/*--------------------------------*- C++ -*----------------------------------*\
| =========                 |                                                 |
| \\      /  F ield         | OpenFOAM: The Open Source CFD Toolbox           |
|  \\    /   O peration     | Version:  2.4.0                                 |
|   \\  /    A nd           | Web:      www.OpenFOAM.org                      |
|    \\/     M anipulation  |                                                 |
\*---------------------------------------------------------------------------*/
FoamFile
{
    version     2.0;
    format      ascii;
    class       volScalarField;
    location    "0.118";
    object      k;
}
// * * * * * * * * * * * * * * * * * * * * * * * * * * * * * * * * * * * * * //

dimensions      [0 2 -2 0 0 0 0];

internalField   nonuniform List<scalar> 
17600
(
9.296
7.40316
5.13478
3.92223
3.35648
2.92901
2.72912
2.43234
2.3737
2.16017
2.16677
1.9848
2.04715
1.8769
1.91236
1.87039
1.81043
1.87419
1.88355
1.53405
4.5147
6.19488
5.84907
5.04234
4.43991
3.90193
3.64321
3.25497
3.17257
2.8884
2.87132
2.65935
2.69154
2.50736
2.51858
2.47913
2.3593
2.4161
2.38262
2.29268
1.33605
3.26863
4.00539
3.95833
3.78436
3.43212
3.26663
2.95828
2.89234
2.65845
2.63295
2.45797
2.46021
2.33395
2.30828
2.28157
2.17888
2.18115
2.15928
2.15826
0.210198
1.18716
1.93703
2.31538
2.5294
2.50068
2.48808
2.3674
2.33929
2.201
2.18667
2.07227
2.06296
1.99701
1.95141
1.93413
1.88464
1.83593
1.8138
1.83754
0.0263457
0.258384
0.649834
0.948603
1.26923
1.40124
1.56827
1.58393
1.63213
1.60394
1.62264
1.5818
1.57787
1.5702
1.53504
1.51788
1.51465
1.47245
1.44217
1.43469
0.00278774
0.0425858
0.144565
0.246841
0.442929
0.540474
0.721879
0.809352
0.903765
0.944835
1.01989
1.03465
1.04295
1.08899
1.08104
1.07627
1.09661
1.0812
1.06617
1.03194
0.000292116
0.0061091
0.0225166
0.0435764
0.102016
0.139972
0.214444
0.297646
0.341848
0.40942
0.47301
0.53014
0.543591
0.613955
0.628945
0.639402
0.675207
0.683408
0.684487
0.661083
5.17221e-05
0.000818859
0.00287317
0.00587452
0.0160121
0.0252022
0.0393801
0.0745596
0.0899071
0.121641
0.144268
0.191709
0.201066
0.251699
0.267705
0.282905
0.315922
0.33588
0.350037
0.341924
2.71141e-05
0.000129802
0.00040198
0.000751906
0.00208109
0.00339108
0.00564674
0.0123717
0.0163564
0.0247926
0.0304774
0.0460385
0.049967
0.071287
0.0773935
0.087054
0.102173
0.113965
0.123097
0.12555
2.45577e-05
4.61001e-05
9.93824e-05
0.000132883
0.000303466
0.000467911
0.000778871
0.00168468
0.00235842
0.00365225
0.00461629
0.00768601
0.00834151
0.0134515
0.014931
0.0174977
0.0224834
0.0254207
0.0282841
0.029275
2.42431e-05
4.13003e-05
9.08393e-05
8.19335e-05
0.000109625
0.000136642
0.000184771
0.000360782
0.000490531
0.000593049
0.000741719
0.00127746
0.00129912
0.0019575
0.00214968
0.00249507
0.00346638
0.0038518
0.00446501
0.00445066
2.56713e-05
6.88698e-05
9.297e-05
7.85572e-05
8.98694e-05
9.53368e-05
0.000112301
0.000181116
0.000199433
0.000212084
0.000278318
0.000370052
0.000359027
0.000439584
0.00045609
0.00047418
0.000530556
0.000634185
0.000723229
0.000706049
2.27378e-05
6.38289e-05
6.04196e-05
7.92118e-05
9.6904e-05
0.00010436
0.000121943
0.000152802
0.000150521
0.000159885
0.00019731
0.000207512
0.000209989
0.000250228
0.000249655
0.000239216
0.000240205
0.000265766
0.000286991
0.000283551
2.09924e-05
3.11658e-05
4.11466e-05
8.73685e-05
0.000101657
0.000104481
0.000127381
0.000130242
0.000126599
0.000134385
0.000130586
0.000131408
0.00014456
0.000178973
0.000181108
0.000183282
0.000183547
0.000184742
0.000184765
0.000197184
2.09361e-05
3.32254e-05
6.81787e-05
8.53832e-05
9.02819e-05
0.000103443
0.000105685
0.000100243
0.000101803
0.000101075
0.000101776
0.000111285
0.000126457
0.000135175
0.00014638
0.000150867
0.00014952
0.000146145
0.000144737
0.000164552
2.15351e-05
2.94464e-05
6.0211e-05
5.99809e-05
6.14363e-05
7.69295e-05
7.23586e-05
7.27979e-05
7.90206e-05
7.96081e-05
8.06541e-05
9.03074e-05
9.1764e-05
9.42989e-05
0.000105007
0.000108185
0.000107868
0.000107086
0.000111736
0.000114459
2.18614e-05
3.76164e-05
4.13502e-05
4.21327e-05
5.21053e-05
5.65313e-05
6.02289e-05
7.12983e-05
7.56813e-05
7.55061e-05
7.77225e-05
8.10098e-05
8.03027e-05
8.17377e-05
9.34908e-05
9.34903e-05
9.3687e-05
9.31604e-05
9.74965e-05
9.77093e-05
2.04709e-05
2.90735e-05
3.82695e-05
3.83277e-05
4.42339e-05
5.14065e-05
5.29074e-05
6.4746e-05
6.42041e-05
6.33901e-05
6.53842e-05
6.54492e-05
6.50347e-05
6.79239e-05
7.10926e-05
7.09276e-05
7.13333e-05
7.28077e-05
7.22195e-05
7.32436e-05
2.05779e-05
2.94875e-05
3.95663e-05
4.11184e-05
4.41659e-05
4.68751e-05
5.23695e-05
5.37654e-05
5.5006e-05
5.75963e-05
5.85297e-05
5.89916e-05
5.89019e-05
5.89844e-05
5.95081e-05
6.07384e-05
6.38283e-05
6.54428e-05
6.36224e-05
6.84986e-05
2.05904e-05
2.96523e-05
3.44987e-05
3.70919e-05
4.57032e-05
4.92946e-05
4.91855e-05
5.16443e-05
5.1735e-05
5.23487e-05
5.28756e-05
5.47622e-05
5.49209e-05
5.54214e-05
5.60584e-05
5.62775e-05
5.7232e-05
5.7414e-05
5.73731e-05
6.15595e-05
2.07787e-05
2.69535e-05
3.09702e-05
4.1934e-05
5.01806e-05
4.95366e-05
4.80079e-05
4.79328e-05
4.72274e-05
4.75308e-05
5.13697e-05
5.52105e-05
5.49038e-05
5.38927e-05
5.32047e-05
5.25652e-05
5.29173e-05
5.35018e-05
5.45703e-05
7.3233e-05
2.0588e-05
2.44269e-05
3.34e-05
5.08585e-05
4.98253e-05
4.45025e-05
4.25163e-05
4.24051e-05
4.36875e-05
4.98044e-05
5.62631e-05
5.64275e-05
5.38041e-05
5.09053e-05
5.08063e-05
5.06966e-05
5.2361e-05
5.32861e-05
5.57059e-05
7.24042e-05
2.0654e-05
2.53209e-05
4.35579e-05
4.54138e-05
4.09305e-05
3.86007e-05
3.97217e-05
4.57416e-05
5.22125e-05
5.75493e-05
5.77126e-05
5.47624e-05
5.0087e-05
4.96875e-05
5.02283e-05
5.28117e-05
5.58528e-05
5.69399e-05
5.85282e-05
6.30539e-05
2.07968e-05
2.94364e-05
4.18314e-05
3.81994e-05
3.58465e-05
3.89748e-05
5.19317e-05
5.69467e-05
5.8542e-05
5.83498e-05
5.36652e-05
5.04536e-05
5.01727e-05
5.23197e-05
5.86115e-05
6.20672e-05
6.23573e-05
6.23359e-05
6.23892e-05
7.46745e-05
2.09284e-05
3.12175e-05
3.57608e-05
3.50318e-05
3.95503e-05
5.60228e-05
6.0158e-05
5.82492e-05
5.51889e-05
5.26218e-05
5.1874e-05
5.31e-05
5.87525e-05
6.56068e-05
6.89339e-05
6.86714e-05
6.67236e-05
6.54156e-05
6.61286e-05
6.90119e-05
2.10771e-05
2.91046e-05
3.31296e-05
4.2643e-05
5.61703e-05
5.79005e-05
5.46916e-05
5.14546e-05
5.19986e-05
5.69755e-05
6.21487e-05
6.95145e-05
7.17205e-05
7.34433e-05
7.38744e-05
7.20831e-05
7.14183e-05
7.2114e-05
7.40328e-05
8.10784e-05
2.14097e-05
2.75756e-05
4.06653e-05
5.28193e-05
5.43539e-05
5.26443e-05
5.22291e-05
5.37968e-05
6.69507e-05
7.75143e-05
7.72169e-05
7.83766e-05
7.83936e-05
7.92094e-05
8.20806e-05
8.36723e-05
8.77367e-05
9.38685e-05
0.000108543
0.000153053
2.16257e-05
2.865e-05
4.82927e-05
5.11618e-05
5.25001e-05
5.51301e-05
6.9557e-05
7.87267e-05
9.08028e-05
8.89306e-05
8.63549e-05
9.2014e-05
9.58984e-05
0.000109507
0.000126377
0.000137996
0.000158853
0.000208135
0.000332752
0.000695935
2.22421e-05
3.00822e-05
5.48388e-05
5.7855e-05
7.08463e-05
7.9483e-05
0.000101227
0.000103406
0.00012206
0.000123946
0.000135718
0.000197689
0.000222803
0.000305148
0.000392432
0.000493695
0.000687085
0.00115592
0.00211602
0.00478938
2.31012e-05
3.31575e-05
6.85372e-05
8.0613e-05
0.000108481
0.000138834
0.000183658
0.000209644
0.000367936
0.000436725
0.000585353
0.00105691
0.00122441
0.00188197
0.0025136
0.00359715
0.00502312
0.00873794
0.0136411
0.0279113
2.41923e-05
4.79102e-05
0.0001194
0.000218656
0.000289739
0.000506578
0.000846407
0.0011591
0.00247622
0.00319018
0.00439133
0.00780896
0.00916332
0.0137024
0.0173035
0.0242271
0.0308427
0.0477846
0.064626
0.118322
2.82338e-05
0.000145377
0.000463904
0.00111621
0.00170244
0.00360003
0.00670567
0.00929422
0.0180821
0.0232812
0.0304108
0.0481892
0.0544227
0.0725122
0.0871346
0.109965
0.129411
0.176367
0.214442
0.332704
5.11437e-05
0.0008742
0.00303297
0.0078829
0.0129035
0.0268761
0.0465609
0.060418
0.100194
0.118958
0.150145
0.198162
0.214163
0.256419
0.294808
0.332651
0.368827
0.447389
0.499775
0.63532
0.000286486
0.00627566
0.0230258
0.0523908
0.0842124
0.153133
0.221787
0.268945
0.374148
0.408891
0.478232
0.543055
0.566053
0.623595
0.669867
0.701621
0.744946
0.815083
0.861413
0.97184
0.0027684
0.0431701
0.147476
0.26145
0.409671
0.574409
0.706984
0.801273
0.923495
0.953064
1.02192
1.05188
1.06552
1.09995
1.12336
1.13309
1.16019
1.19469
1.22575
1.28489
0.0261562
0.260955
0.652432
0.953893
1.24591
1.43046
1.54529
1.59471
1.63471
1.6168
1.62517
1.59795
1.58971
1.57279
1.56715
1.5474
1.55021
1.54363
1.54894
1.54444
0.208389
1.19046
1.9362
2.3122
2.5231
2.51296
2.4771
2.39269
2.32264
2.21985
2.18056
2.07773
2.05421
1.98681
1.95957
1.90393
1.88185
1.82676
1.79711
1.73884
1.3257
3.2779
4.00311
3.95314
3.7829
3.44283
3.23503
3.00892
2.84898
2.6948
2.60836
2.45552
2.42372
2.30991
2.26584
2.17568
2.12431
2.01092
1.9349
1.81174
4.50779
6.19988
5.84843
5.03168
4.44649
3.90566
3.60864
3.30945
3.10801
2.93282
2.82135
2.64973
2.61455
2.46568
2.40875
2.28622
2.20796
2.04097
1.91662
1.71699
9.28882
7.40235
5.13442
3.91631
3.36049
2.93281
2.69882
2.46839
2.31908
2.18687
2.10838
1.97681
1.94802
1.82438
1.76965
1.65087
1.57606
1.41173
1.27207
1.0676
1.42413
1.24019
0.724359
0.544258
0.434836
0.333157
0.269821
0.20982
0.189572
0.199599
0.204542
0.195226
0.197458
0.203131
0.213999
0.228403
0.270904
0.292105
0.275566
0.191474
0.0830661
0.0362599
0.0163143
0.00870296
0.00647073
0.00749244
0.00842155
0.00868197
0.010919
0.0128072
0.0218711
0.0528833
0.278131
0.396211
0.361025
0.266548
0.175117
0.102082
0.0910042
0.107125
0.114912
0.0955943
0.0741038
0.0590643
0.0520033
0.0527088
0.0680386
0.0773481
0.0813119
0.0891091
0.0932356
0.0882459
0.0579492
0.0306836
0.0153953
0.00985041
0.0101475
0.0182092
0.0558782
0.150875
0.19864
0.197109
0.15423
0.0722247
0.0529977
0.0494702
0.0507781
0.0522254
0.0580148
0.0598776
0.0585148
0.0571195
0.0517029
0.049056
0.0475971
0.0465062
0.0454487
0.0442884
0.0441925
0.0459586
0.0568755
0.072113
0.0837877
0.0852634
0.0789717
0.0643956
0.0525234
0.0431043
0.0342187
0.0257627
0.0194747
0.0162669
0.015415
0.0148746
0.0144379
0.0143438
0.015542
0.0168541
0.0173364
0.0183423
0.0184581
0.0175877
0.0173284
0.0193429
0.0331794
0.0554272
0.0697426
0.0693606
0.0671321
0.0509068
0.0398515
0.0387311
0.0357456
0.0338663
0.0312883
0.0318846
0.0317278
0.0323521
0.032082
0.0324344
0.0332311
0.0329612
0.0314671
0.0291886
0.0277513
0.0275896
0.0308403
0.0388412
0.0418875
0.0438788
0.0426382
0.0387972
0.0334439
0.0253802
0.0226635
0.020315
0.0207236
0.0207256
0.020158
0.0192366
0.0164536
0.0154672
0.0141842
0.0143545
0.0141886
0.0144118
0.0161533
0.024965
0.0479318
0.056837
0.0728339
0.0870019
0.112818
0.135135
0.145387
0.147254
0.145792
0.134624
0.113063
0.0990112
0.093517
0.0934183
0.0953716
0.0958169
0.0903705
0.081285
0.0756283
0.0743608
0.0811591
0.0898116
0.0866557
0.0626943
0.0434725
0.0369443
0.0355709
0.0313432
0.0238756
0.0207432
0.02319
0.0231406
0.028519
0.0288739
0.0398457
0.0432945
0.0609536
0.0637065
0.0701158
0.069905
0.0712314
0.0755045
0.0785002
0.0787154
0.0761535
0.0705813
0.0491103
0.0324299
0.0228351
0.0194504
0.0518804
0.415085
1.71379
1.5554
1.21221
0.989651
0.568108
0.403953
0.313283
0.265676
0.272407
0.324494
0.351465
0.346766
0.315287
0.296802
0.291297
0.295176
0.31856
0.306713
0.255113
0.118906
0.0477827
0.0201992
0.00916423
0.00552999
0.00456532
0.00515771
0.00705626
0.00743224
0.0114654
0.0136506
0.019578
0.0374912
0.233255
0.394158
0.355536
0.248437
0.155237
0.100201
0.0998255
0.108318
0.107274
0.0884984
0.0694216
0.0554188
0.0518364
0.0557626
0.0718917
0.07648
0.0816133
0.093569
0.0978996
0.0899125
0.0558499
0.0288713
0.0145184
0.0105829
0.0120455
0.0264398
0.086576
0.175712
0.203525
0.194813
0.128651
0.0634053
0.0520618
0.0491795
0.0502149
0.0527313
0.0561141
0.0568191
0.0539389
0.0527092
0.0483432
0.0439491
0.0435807
0.0445728
0.0447053
0.0438728
0.0435448
0.0447487
0.0534106
0.0676186
0.0788645
0.083004
0.0791605
0.06598
0.0533664
0.0431415
0.0343211
0.026543
0.0204876
0.0173702
0.0164442
0.0158852
0.0155465
0.0155759
0.0172432
0.018727
0.0191932
0.020076
0.0201718
0.0192052
0.0184926
0.0195024
0.0290099
0.0476736
0.0648677
0.066723
0.0653743
0.0540618
0.0428794
0.0401306
0.0385154
0.0371032
0.03245
0.0320864
0.0309633
0.0311592
0.0312344
0.032191
0.0329079
0.0325315
0.0304571
0.0284042
0.0272135
0.0272989
0.031653
0.0392056
0.0421365
0.0430547
0.0410131
0.0367217
0.0309703
0.0242649
0.0208604
0.0191109
0.0198875
0.0197825
0.0198547
0.0191269
0.0167028
0.0155892
0.0140631
0.0145054
0.0141715
0.0142855
0.0160114
0.0270746
0.0515681
0.0620129
0.0763602
0.0872346
0.113839
0.140179
0.153111
0.154421
0.151127
0.1311
0.10646
0.09298
0.0886904
0.0888931
0.0917072
0.0928896
0.0896362
0.0809069
0.0754789
0.074183
0.0805197
0.0891518
0.0862365
0.0618448
0.0422241
0.0360717
0.0344998
0.0291063
0.0237675
0.0210234
0.0238413
0.0234682
0.0251452
0.0256203
0.0370657
0.0411618
0.0624969
0.0637174
0.0703419
0.0698077
0.0738793
0.0759346
0.0838588
0.0847918
0.0832926
0.0736536
0.0600206
0.037279
0.031177
0.0210332
0.0528378
0.292596
1.69117
1.48961
1.22125
1.11318
0.96375
0.625765
0.407769
0.351266
0.36797
0.429653
0.453636
0.429718
0.376451
0.346799
0.342973
0.347472
0.338126
0.297209
0.167277
0.0685051
0.0268489
0.0121029
0.00585378
0.00402452
0.00376592
0.00411839
0.00587571
0.00616479
0.0110728
0.0144008
0.0180958
0.0275876
0.16455
0.391465
0.358939
0.247291
0.148444
0.107187
0.106183
0.106871
0.103098
0.0880588
0.0688588
0.0559914
0.0543504
0.0633596
0.07718
0.0798702
0.0847232
0.0993492
0.103213
0.0897004
0.0514171
0.0253976
0.0132358
0.0111017
0.014386
0.038114
0.116382
0.190829
0.205637
0.184645
0.0977238
0.0590506
0.0505475
0.0456017
0.0488969
0.054062
0.0531914
0.0541613
0.05114
0.0502093
0.0469309
0.0406842
0.0396411
0.0415598
0.0434333
0.0434339
0.0429961
0.0437767
0.0502283
0.0646118
0.0745771
0.0791397
0.0779414
0.0667179
0.0537628
0.0431112
0.0346542
0.0277253
0.0218954
0.0185845
0.0173673
0.0167153
0.0164422
0.0165843
0.0185531
0.0201447
0.0206165
0.0214069
0.0214865
0.0205815
0.0195974
0.0199193
0.0261392
0.042107
0.0581696
0.0640472
0.0630868
0.0552956
0.0459064
0.0426906
0.0400997
0.0388323
0.0335631
0.0321681
0.0305019
0.0304127
0.030499
0.0319608
0.0324264
0.03191
0.0294486
0.0274762
0.0267084
0.0271351
0.0330789
0.0394502
0.0423567
0.0424586
0.039471
0.0342436
0.0276771
0.0228697
0.0187252
0.0176781
0.0186648
0.0185885
0.01936
0.0188487
0.0170054
0.015426
0.0139744
0.0143971
0.0139351
0.0140646
0.016371
0.0276417
0.0545549
0.0670473
0.0798044
0.088109
0.116858
0.149825
0.161856
0.161272
0.153524
0.125104
0.0992111
0.0865995
0.0839563
0.0843205
0.0877139
0.0895806
0.0877617
0.0800299
0.0749203
0.0738321
0.0798301
0.0877569
0.0849962
0.061219
0.0423035
0.035787
0.0338066
0.0272364
0.0245136
0.0221458
0.0236037
0.0232281
0.0229724
0.024047
0.0309229
0.0370311
0.0633524
0.0638249
0.0706851
0.0692646
0.0769005
0.0769397
0.0897154
0.0922638
0.0931478
0.0842197
0.0722649
0.0407603
0.038043
0.0245331
0.0548756
0.197279
1.55573
1.3177
1.14419
0.996859
0.990447
0.935176
0.720047
0.608105
0.601809
0.600654
0.55961
0.49597
0.437676
0.399038
0.383402
0.365861
0.3229
0.207387
0.0854901
0.0325568
0.0130157
0.00593005
0.00316756
0.00267458
0.00322624
0.00359122
0.00478519
0.00483776
0.00931883
0.0146047
0.0168591
0.0227046
0.0933909
0.381307
0.368666
0.252637
0.148974
0.118661
0.109425
0.106546
0.102977
0.0920472
0.0698987
0.0594274
0.059572
0.0725526
0.0825979
0.0841652
0.0929198
0.108154
0.109282
0.0859392
0.0457797
0.0217611
0.0125179
0.0116881
0.0178588
0.0554547
0.147337
0.202947
0.206232
0.163991
0.0820257
0.0573827
0.0462027
0.044186
0.0487623
0.0548205
0.0504058
0.0513537
0.0499937
0.0484457
0.0430527
0.0388193
0.0374816
0.0386925
0.0420423
0.0428149
0.0426326
0.0430405
0.047847
0.0619843
0.0715845
0.0756656
0.0750906
0.0662001
0.0537107
0.0431495
0.0347588
0.028661
0.0231072
0.0196829
0.0182565
0.0175134
0.0172269
0.0174
0.0193831
0.0211255
0.0216411
0.022317
0.0224074
0.0217967
0.0206515
0.0205794
0.0241792
0.0382781
0.0514365
0.0607891
0.0605322
0.0558138
0.0474285
0.0452191
0.0426749
0.0399845
0.0340324
0.0320031
0.0304059
0.0301764
0.0301243
0.0312814
0.0315482
0.0308845
0.0281201
0.0266985
0.0264971
0.0274114
0.0346287
0.0399448
0.0424781
0.0417349
0.0377702
0.0311228
0.0249867
0.0214542
0.0170184
0.0162504
0.0170254
0.0171765
0.0182775
0.0182094
0.0170226
0.015332
0.014088
0.0137984
0.0134893
0.0139304
0.0173019
0.0278013
0.0566789
0.071311
0.081794
0.09193
0.12807
0.155803
0.163577
0.162458
0.150521
0.11671
0.0922361
0.0808175
0.0788608
0.0795249
0.0838102
0.0865746
0.0857093
0.0793313
0.0742094
0.0731535
0.0787976
0.0859054
0.0835963
0.0607456
0.0422324
0.0356239
0.034009
0.0271592
0.0254395
0.022942
0.0218756
0.0217977
0.022031
0.0236334
0.0279922
0.0348005
0.0589365
0.0590472
0.0707305
0.0678132
0.0774642
0.0769057
0.0945825
0.0981201
0.108151
0.0913472
0.0863115
0.0496277
0.0508344
0.0316425
0.0517885
0.132818
1.27561
1.12181
1.01216
0.866658
0.869035
0.878368
0.842925
0.760922
0.686897
0.626145
0.561259
0.495431
0.438644
0.397208
0.370541
0.323468
0.216903
0.0932414
0.037568
0.0149926
0.00647032
0.00325095
0.00214017
0.0021651
0.00308491
0.00328554
0.00368079
0.00359253
0.00619698
0.0140057
0.0157008
0.0194535
0.0512225
0.339598
0.379
0.268858
0.16383
0.129152
0.11254
0.107256
0.104733
0.0930403
0.0720718
0.065712
0.0680429
0.0826242
0.0875816
0.0890695
0.104238
0.117445
0.11387
0.0778934
0.0389374
0.0186432
0.0121028
0.0124874
0.0229882
0.0809415
0.167777
0.209371
0.202079
0.12743
0.0747269
0.0564634
0.0457493
0.0447525
0.0488538
0.0544848
0.0490621
0.0500047
0.0498104
0.0478172
0.0408962
0.0370393
0.0364918
0.0376752
0.0415996
0.0425091
0.0424616
0.0426026
0.0458457
0.0592242
0.0697327
0.07323
0.0726703
0.0645032
0.0533129
0.043153
0.0347672
0.0287463
0.0237117
0.0206926
0.019084
0.0182589
0.0179316
0.0181012
0.0198456
0.0217078
0.0224012
0.0230355
0.023134
0.0228772
0.0217248
0.0213708
0.0232031
0.0344472
0.0466988
0.0567035
0.057892
0.0564216
0.0488392
0.0468349
0.0448149
0.0412607
0.0345873
0.0320045
0.0305613
0.0301546
0.0297179
0.0302857
0.0303054
0.0294035
0.027162
0.026453
0.0264556
0.0284247
0.0365517
0.0408103
0.0422029
0.0403544
0.0353907
0.028144
0.0233883
0.01941
0.0156951
0.0151384
0.0156931
0.0160333
0.0170441
0.0173592
0.01641
0.0149155
0.0143126
0.0133977
0.0133651
0.013846
0.0174281
0.0272856
0.0592358
0.0727436
0.0834538
0.100702
0.140142
0.157694
0.163813
0.162873
0.144441
0.108304
0.0839049
0.0744747
0.0737025
0.0748728
0.0796362
0.0832733
0.0830367
0.0782903
0.0734266
0.072497
0.0773517
0.0836255
0.0816085
0.0603189
0.0425765
0.0357676
0.0341807
0.0276127
0.0250353
0.0232145
0.0213128
0.0215297
0.0230086
0.0243506
0.0272804
0.0343203
0.0536953
0.0554759
0.0664911
0.0626575
0.0780218
0.0752759
0.0955091
0.0995778
0.133287
0.108847
0.111803
0.0681768
0.067498
0.0410605
0.0542782
0.100478
0.926231
0.814034
0.787666
0.725017
0.690847
0.706816
0.730404
0.715154
0.658119
0.55314
0.45691
0.378252
0.328922
0.291492
0.253905
0.17399
0.0846229
0.0377719
0.0158078
0.00672381
0.00319724
0.00195475
0.00162692
0.00187469
0.00293052
0.00294217
0.00306225
0.00331793
0.00407787
0.0113054
0.0140885
0.0171246
0.032766
0.267464
0.372725
0.306052
0.184035
0.13719
0.116026
0.108664
0.106139
0.0924103
0.0776196
0.0755305
0.0805338
0.0911234
0.0931636
0.098136
0.120818
0.127689
0.114686
0.0662378
0.0320967
0.015695
0.0117792
0.0137607
0.0306529
0.107989
0.190252
0.212309
0.189841
0.102459
0.0715094
0.0568421
0.0478499
0.0459314
0.0473534
0.0529308
0.0490879
0.0499673
0.0506313
0.0477637
0.0404443
0.0367742
0.0363027
0.0372916
0.0415949
0.0425202
0.0424726
0.0424019
0.0444792
0.0555361
0.0672714
0.0718
0.0710686
0.0627995
0.0513225
0.0416034
0.0333304
0.0277497
0.0240326
0.0217945
0.0202148
0.0191753
0.0185551
0.0186518
0.0200705
0.0220987
0.0230773
0.0237389
0.0238047
0.0238349
0.0229719
0.022133
0.022919
0.0308959
0.0430936
0.0522909
0.0550392
0.05529
0.050523
0.0479767
0.0460626
0.0426567
0.0359379
0.0324215
0.0311473
0.030327
0.0293583
0.0296338
0.0295743
0.0285492
0.0268648
0.0264931
0.0267696
0.0304448
0.0384087
0.0415634
0.0418239
0.0380659
0.0325565
0.0257949
0.022373
0.0178155
0.0146837
0.0138163
0.0141097
0.015062
0.0158465
0.0163014
0.0155939
0.014151
0.0137131
0.0134402
0.0135311
0.0139451
0.0165
0.0267786
0.0611585
0.0728252
0.0870032
0.110974
0.14338
0.158685
0.165784
0.16515
0.142563
0.0996174
0.0755247
0.0680048
0.0681647
0.0699416
0.0760127
0.0801489
0.080231
0.0768201
0.072192
0.0713948
0.0760798
0.0810367
0.0793968
0.0592699
0.0440122
0.0359155
0.0354084
0.0296437
0.0246661
0.0228642
0.0217765
0.0218578
0.0233711
0.0234327
0.0273073
0.0370003
0.0527255
0.0549561
0.0582131
0.0578142
0.0679187
0.0680606
0.0874
0.0941605
0.157066
0.12956
0.14336
0.0889558
0.0992802
0.0561746
0.0557977
0.0801084
0.601313
0.526745
0.498504
0.500285
0.497053
0.499681
0.519279
0.520277
0.487915
0.406493
0.325292
0.249179
0.192997
0.157697
0.10692
0.061153
0.030742
0.0145118
0.00627196
0.00304332
0.00174463
0.00133089
0.00132199
0.0017362
0.00244557
0.00251769
0.00269094
0.00337464
0.00382451
0.0085816
0.0114941
0.0147953
0.0232559
0.178119
0.352725
0.336863
0.222231
0.152267
0.12539
0.113368
0.109007
0.0962178
0.087167
0.0868039
0.0928601
0.0983084
0.100876
0.116762
0.136586
0.135394
0.104482
0.0547576
0.0253643
0.0132616
0.0117055
0.0159346
0.0418002
0.137495
0.205437
0.213052
0.166765
0.0896774
0.0708033
0.0625403
0.0515081
0.0458047
0.0452455
0.0522821
0.0494785
0.0499266
0.0525435
0.0476971
0.0401134
0.0365453
0.0363201
0.0369857
0.0417325
0.0430051
0.0428719
0.0425246
0.0436704
0.0521259
0.0648867
0.0706589
0.0703456
0.0626163
0.0483503
0.0378108
0.0304915
0.0268938
0.0248499
0.0234676
0.0217609
0.0202875
0.0191336
0.0191206
0.0203143
0.0224526
0.0235913
0.0244087
0.0244227
0.0245555
0.0239673
0.0227393
0.0230299
0.0279578
0.0398584
0.0485181
0.0521221
0.0537997
0.0517936
0.0496386
0.0474348
0.04339
0.0372532
0.0329837
0.0313559
0.0303427
0.0293344
0.0296113
0.0296045
0.0283984
0.0271685
0.0271083
0.0277864
0.0333527
0.0403098
0.0422524
0.0415344
0.0345037
0.0292316
0.0242435
0.0220343
0.0172124
0.0144954
0.0129041
0.0129998
0.0142388
0.0147792
0.0152392
0.0149155
0.0135189
0.012875
0.0131309
0.0134878
0.0142076
0.0162656
0.0278336
0.0615576
0.0715562
0.095646
0.114098
0.143423
0.160977
0.172995
0.172788
0.145996
0.0953824
0.0690447
0.0624912
0.0628608
0.0650061
0.0721339
0.0770199
0.0776805
0.0757
0.071135
0.0702014
0.0745832
0.0791037
0.0776135
0.0587258
0.0451775
0.0364756
0.0369279
0.031316
0.0247299
0.0225133
0.0223939
0.0221966
0.0227538
0.0237708
0.0301113
0.041903
0.0527521
0.0561459
0.0571018
0.0577562
0.0573775
0.0574535
0.0652115
0.0791187
0.186858
0.16701
0.212607
0.131605
0.125521
0.087315
0.0601911
0.0696509
0.315675
0.27345
0.260182
0.270945
0.276161
0.279297
0.297698
0.296862
0.275424
0.221329
0.160703
0.104528
0.0724275
0.0517092
0.0347383
0.0200565
0.0104479
0.00522035
0.00248099
0.00154652
0.00113983
0.00103287
0.0011076
0.0013798
0.00191813
0.00214533
0.00247327
0.00386459
0.00408443
0.00669724
0.008553
0.0118827
0.018866
0.0783431
0.316826
0.336527
0.262757
0.173462
0.137935
0.121324
0.116106
0.106586
0.0980416
0.0984686
0.10474
0.108755
0.116309
0.144
0.15098
0.139898
0.0853145
0.0420876
0.0192819
0.0116839
0.011645
0.0193732
0.0582433
0.165232
0.217642
0.212966
0.138752
0.0862945
0.0759527
0.0678559
0.0520478
0.0447066
0.0452364
0.0518791
0.0499695
0.0502272
0.0543996
0.047693
0.0399966
0.0362336
0.0362962
0.036916
0.0416496
0.0439144
0.0437965
0.0429016
0.0433654
0.0490475
0.0609257
0.0690698
0.0699352
0.0636622
0.0479171
0.0365908
0.0297546
0.0274777
0.0269605
0.0258342
0.0235217
0.0213904
0.019628
0.0194864
0.0206725
0.0229736
0.0237766
0.0251523
0.0251098
0.0250877
0.0246012
0.0234689
0.0233053
0.0260563
0.0369154
0.0455235
0.0499429
0.0522063
0.0515887
0.0510197
0.0489203
0.0439651
0.0378209
0.033204
0.0312256
0.0301072
0.0294441
0.0298767
0.0299544
0.0286771
0.0281031
0.0282608
0.0295381
0.0366111
0.0421711
0.0430515
0.0403394
0.0308925
0.0258328
0.0225398
0.021391
0.0171189
0.014686
0.0127459
0.0126826
0.0135487
0.0140717
0.0144561
0.0143449
0.0130813
0.0122568
0.012523
0.0128987
0.0140465
0.0166566
0.0320301
0.0573649
0.0699328
0.105606
0.115151
0.141741
0.168985
0.188466
0.186658
0.149051
0.0923739
0.0642514
0.0574543
0.0577585
0.0605846
0.0684901
0.0737433
0.0748127
0.0737861
0.0703885
0.0692953
0.0731343
0.0769858
0.0760137
0.0588185
0.0477379
0.038852
0.0369438
0.0313267
0.0249319
0.0223818
0.0228742
0.0224891
0.0235267
0.0291343
0.0316961
0.0455942
0.0502034
0.0610081
0.0582095
0.0580994
0.0565864
0.0573184
0.0568711
0.0638805
0.212152
0.190722
0.227381
0.200614
0.17814
0.111734
0.0717731
0.0714542
0.117993
0.100628
0.0962679
0.104503
0.105814
0.106968
0.11638
0.115696
0.104625
0.0768068
0.0503816
0.0317227
0.0211074
0.0145505
0.00994353
0.00586046
0.00327726
0.0019045
0.00120927
0.000997143
0.000873534
0.000839052
0.000999855
0.00116304
0.00140091
0.00154885
0.00192175
0.00368595
0.00452313
0.00606561
0.00689442
0.00844381
0.015739
0.0424597
0.255568
0.324283
0.292279
0.217062
0.157643
0.133909
0.129745
0.120828
0.114598
0.116697
0.123137
0.128886
0.14933
0.164893
0.160733
0.123696
0.0656106
0.0312753
0.0146313
0.0103682
0.0120075
0.0247189
0.0812188
0.188074
0.225431
0.206143
0.122325
0.0901629
0.0845144
0.0685859
0.0517242
0.0442902
0.0454559
0.0510282
0.0506038
0.0514044
0.0563662
0.0481067
0.0400647
0.0358302
0.0361072
0.0370556
0.0415224
0.0451271
0.0451082
0.0437353
0.0435326
0.0467077
0.0573639
0.0666637
0.0693184
0.0672334
0.0545207
0.0401123
0.0337299
0.0324731
0.0308201
0.0283898
0.0250526
0.0221029
0.01993
0.0197853
0.0211816
0.023701
0.0242293
0.0256778
0.0256609
0.0254813
0.0250516
0.0241571
0.0236247
0.0251651
0.0341631
0.0429691
0.0482136
0.0506902
0.0510567
0.0511449
0.0500225
0.0448688
0.0381647
0.0333212
0.0307987
0.0297357
0.0296366
0.0307115
0.0308834
0.0298035
0.029723
0.0300798
0.0321758
0.0398461
0.043829
0.0437136
0.0376279
0.0285483
0.0231422
0.0210925
0.0204772
0.0170935
0.0150125
0.0128892
0.0127144
0.0131228
0.0134534
0.0136414
0.0136399
0.0124674
0.0115831
0.0117342
0.0125135
0.0140308
0.0166951
0.0340642
0.0541121
0.0700442
0.109
0.114793
0.142323
0.187701
0.20745
0.195632
0.147246
0.0873342
0.0591785
0.0525644
0.0530237
0.0561298
0.0649604
0.0707857
0.0720681
0.0716687
0.0691905
0.0679859
0.0714011
0.075345
0.0757229
0.0595988
0.0496875
0.039895
0.0369116
0.0308127
0.0261414
0.0226262
0.0240748
0.0240486
0.0251375
0.0317832
0.0306489
0.0441526
0.0485698
0.0671321
0.0592525
0.061799
0.0570026
0.0558529
0.0563678
0.0632665
0.229724
0.257341
0.296797
0.237962
0.198999
0.131546
0.0890866
0.0748446
0.0280582
0.0248766
0.0243139
0.0260789
0.0257418
0.025871
0.0280031
0.0276551
0.0248335
0.0175238
0.0113554
0.00745769
0.00484817
0.00352012
0.00256933
0.00164663
0.00120157
0.000966832
0.000847156
0.000774163
0.00071293
0.000720808
0.000934321
0.00105187
0.00114901
0.00136067
0.00167672
0.00252232
0.00455774
0.00581895
0.006792
0.00673515
0.0117093
0.030352
0.183436
0.284993
0.285153
0.262341
0.203639
0.164055
0.161203
0.154994
0.148416
0.150303
0.15364
0.166127
0.179493
0.177419
0.159102
0.0924893
0.0474278
0.0221579
0.0110397
0.00949123
0.0134279
0.0323781
0.105627
0.210215
0.232079
0.188255
0.114949
0.110595
0.0960323
0.0678326
0.0507556
0.0444051
0.0456671
0.0505308
0.0519741
0.0533222
0.057476
0.0486959
0.0399698
0.035672
0.0360453
0.0372898
0.0416336
0.046621
0.0467353
0.045227
0.0438564
0.0455555
0.0535674
0.0624312
0.0681861
0.0679813
0.0639735
0.0549635
0.0453726
0.0399604
0.0352
0.0305757
0.0259276
0.0223572
0.0201541
0.0200861
0.0215423
0.0245576
0.0248698
0.0258352
0.0261358
0.025852
0.025341
0.0247364
0.0239715
0.024801
0.0316614
0.0406066
0.0465096
0.0492066
0.0502095
0.0508817
0.0504313
0.0460108
0.0385923
0.0335069
0.0305163
0.0293818
0.0298282
0.0318034
0.0322646
0.0315869
0.0317259
0.0321731
0.035528
0.0427374
0.0451346
0.0437157
0.0346608
0.0267357
0.0213568
0.0196534
0.0195113
0.0173925
0.0153259
0.0133447
0.0129299
0.0130107
0.0131057
0.0130512
0.0127659
0.0114592
0.0108702
0.0109949
0.0131347
0.0147082
0.0166265
0.0322577
0.0459984
0.0806538
0.109186
0.11531
0.161267
0.210084
0.211873
0.195959
0.132913
0.0798671
0.0539105
0.0481296
0.0488096
0.052068
0.0617111
0.0680407
0.0696053
0.0694653
0.0680102
0.0667834
0.0702764
0.0741785
0.075329
0.0618111
0.0518643
0.0436147
0.0371557
0.0304868
0.0285868
0.0239181
0.0236981
0.0244093
0.0252111
0.0253487
0.0279294
0.0384752
0.0488141
0.0578892
0.0567172
0.0578471
0.051588
0.0554272
0.0584864
0.0845647
0.115501
0.22886
0.416518
0.304733
0.257852
0.159643
0.114365
0.0818082
0.00433482
0.0039691
0.00386926
0.00398491
0.00398289
0.00399115
0.00415154
0.00417388
0.00389655
0.00298631
0.00230689
0.0016802
0.00119238
0.00105308
0.000841987
0.000742983
0.000761201
0.000740428
0.000731868
0.000663082
0.000630788
0.000658587
0.000777116
0.000837803
0.000934444
0.00126767
0.00159944
0.00194303
0.00350381
0.00542751
0.00661759
0.0062116
0.00816294
0.0220525
0.0927014
0.2411
0.277785
0.272702
0.245298
0.222954
0.216119
0.210136
0.19745
0.189253
0.191774
0.194882
0.192514
0.181915
0.124832
0.0657282
0.032917
0.0147147
0.00840556
0.00873841
0.0164916
0.0429315
0.132177
0.228688
0.236969
0.168049
0.126856
0.135773
0.103315
0.0664543
0.0487764
0.0448673
0.0461346
0.0503686
0.0529481
0.0546227
0.0576677
0.0491944
0.0394201
0.0356507
0.0360485
0.0376916
0.0423627
0.0480984
0.0481931
0.0467856
0.0444712
0.0450877
0.05103
0.0588349
0.0644203
0.0676736
0.0675515
0.0647867
0.0568311
0.0470943
0.0385445
0.0318205
0.0261667
0.0224857
0.0205543
0.0206517
0.021792
0.0253446
0.0254354
0.0259777
0.0265943
0.0261118
0.0254307
0.0252326
0.0242891
0.024654
0.0294469
0.0383302
0.0447614
0.0478134
0.049377
0.0502931
0.0502732
0.0464253
0.0390033
0.0338623
0.0304405
0.0292599
0.0301749
0.0328569
0.033497
0.0331654
0.0334591
0.0341226
0.0394955
0.0451659
0.0459223
0.0421106
0.0319888
0.0254919
0.0206852
0.0190397
0.0188132
0.0179486
0.0158026
0.0142284
0.0133029
0.0128589
0.0127222
0.0124378