/*--------------------------------*- C++ -*----------------------------------*\
| =========                 |                                                 |
| \\      /  F ield         | OpenFOAM: The Open Source CFD Toolbox           |
|  \\    /   O peration     | Version:  2.4.0                                 |
|   \\  /    A nd           | Web:      www.OpenFOAM.org                      |
|    \\/     M anipulation  |                                                 |
\*---------------------------------------------------------------------------*/
FoamFile
{
    version     2.0;
    format      ascii;
    class       volScalarField;
    location    "0.148";
    object      p;
}
// * * * * * * * * * * * * * * * * * * * * * * * * * * * * * * * * * * * * * //

dimensions      [0 2 -2 0 0 0 0];

internalField   nonuniform List<scalar> 
4400
(
122.496
102.398
94.725
91.4685
88.9585
86.5284
84.3965
81.9053
79.6778
78.7313
120.561
102.466
94.763
91.4793
88.9625
86.5276
84.3955
81.9068
79.6734
78.6277
119.345
102.784
94.8997
91.5174
88.9839
86.5355
84.3978
81.9082
79.6822
78.5353
118.611
103.169
95.0838
91.5735
89.0275
86.5634
84.4079
81.917
79.7013
78.4909
118.017
103.522
95.272
91.629
89.0873
86.6134
84.4286
81.9393
79.7336
78.4735
117.506
103.815
95.4386
91.6659
89.1448
86.6707
84.4568
81.9706
79.7863
78.4932
117.083
104.048
95.5793
91.683
89.1912
86.7236
84.4792
82.0074
79.8219
78.6072
116.759
104.223
95.6924
91.6877
89.2246
86.7694
84.4897
82.0468
79.806
78.6865
116.539
104.34
95.7701
91.6863
89.2476
86.8038
84.493
82.0797
79.8356
78.7936
116.43
104.397
95.8111
91.6827
89.2605
86.8274
84.4906
82.1096
79.8753
78.7676
116.43
104.396
95.8155
91.6795
89.2639
86.8416
84.4839
82.1397
79.9216
78.7462
116.541
104.331
95.7846
91.6755
89.2585
86.845
84.4736
82.1629
79.9777
78.6944
116.76
104.207
95.7169
91.6696
89.2425
86.8377
84.4585
82.1826
80.0422
78.6171
117.086
104.026
95.613
91.6595
89.2139
86.8185
84.4398
82.196
80.1148
78.5314
117.511
103.788
95.4814
91.6371
89.1717
86.7873
84.4177
82.2045
80.192
78.4467
118.025
103.49
95.322
91.5975
89.117
86.7472
84.3947
82.2107
80.253
78.3988
118.62
103.133
95.14
91.5416
89.058
86.7103
84.3771
82.2183
80.2879
78.3722
119.357
102.744
94.9595
91.486
89.0153
86.6882
84.3698
82.226
80.3051
78.374
120.575
102.425
94.824
91.448
88.9949
86.6806
84.3689
82.2309
80.3105
78.3955
122.512
102.357
94.7864
91.4362
88.9923
86.6806
84.3689
82.2329
80.3089
78.4794
75.9542
74.0929
71.8896
70.333
68.6894
65.9704
62.7834
60.8789
61.2606
62.8035
68.1413
74.8964
77.6591
79.5351
82.2141
79.9946
74.22
71.2229
69.9871
68.5716
68.4836
68.5314
66.5778
66.0796
67.7245
68.1486
67.9877
68.4556
67.0822
61.0762
56.1272
54.8057
51.9999
52.366
57.8283
62.7214
69.9696
81.1847
90.2306
92.8347
92.4201
89.3619
84.9632
80.4121
74.1661
67.5429
63.4703
63.1975
65.0342
69.4489
79.7851
90.9401
98.5158
100.803
101.237
101.391
97.6465
88.7964
75.7307
65.976
60.1742
54.0105
49.2343
51.0319
57.4867
64.4811
73.3201
83.6196
91.9975
94.5426
94.7215
91.1525
86.4108
80.9822
74.0385
69.0177
65.8203
63.8396
65.8
70.555
75.7161
81.0757
86.5847
90.8707
95.1648
97.8643
99.3406
101.082
103.514
103.765
103.512
102.851
104.638
105.133
107.274
107.752
108.238
103.098
95.9333
54.5068
75.5905
73.7752
71.8959
70.6394
69.1943
66.4686
63.0439
60.9853
61.3759
62.899
67.8913
74.5879
77.226
78.8238
81.3986
79.7101
74.9543
72.1203
70.8197
69.7445
69.8188
70.1135
68.8009
68.424
70.1526
70.8666
70.5613
69.825
67.5542
60.9567
53.545
49.9036
46.5582
46.8596
52.129
56.4289
64.4115
77.5639
87.8303
90.4595
90.5371
88.7579
85.5606
82.0046
76.3415
70.0421
66.3175
66.1377
67.8504
71.7884
81.372
92.034
99.1487
101.288
101.699
101.517
97.787
88.4253
74.7139
64.3869
57.9146
51.6789
46.7522
48.5887
55.213
62.2304
71.4706
82.2103
91.3461
94.3768
94.9482
92.1421
87.8811
83.2085
76.6104
71.6865
68.7485
67.7162
68.8651
72.6835
77.0815
81.7625
86.7563
90.7399
94.4302
96.9497
98.4798
99.8446
101.892
102.031
102.353
101.255
103.195
102.487
104.76
103.864
105.131
96.789
88.8739
42.474
75.2743
73.5746
72.0611
70.7918
69.4508
66.9085
63.4849
61.444
61.7973
63.4941
68.0328
74.085
76.6969
78.1898
80.3416
79.0542
75.4916
73.1691
71.9042
71.1536
71.4677
71.9692
71.2073
70.956
72.6471
73.799
73.6715
71.8643
68.1359
60.7954
51.5729
45.6239
41.6443
42.0471
46.8406
50.8021
59.7471
74.6774
85.8203
88.4572
88.9757
88.473
86.6042
84.0749
79.0156
73.1665
69.8046
69.8107
71.2216
74.6865
83.4586
93.4958
100.091
102.07
102.501
101.998
97.9898
88.2164
74.4233
63.3067
56.0324
49.8016
45.1177
46.8351
53.4788
60.4769
70.0956
81.3498
90.99
94.6529
95.5304
93.4534
89.5074
85.3114
79.3145
74.7879
71.8912
71.0627
71.7566
74.6406
78.2696
82.3619
86.9395
90.6491
93.8045
96.057
97.6166
98.6723
100.201
100.028
101.083
99.7299
101.669
99.3785
102.332
99.4788
102.234
90.2397
81.9189
39.2561
74.9828
73.4307
72.3258
71.0695
69.8138
67.4274
64.0693
62.3703
62.6857
64.3264
68.4377
73.6929
76.1758
77.5365
79.1831
78.2809
75.8202
74.1804
73.0782
72.5716
73.1612
74.0663
73.9316
73.8922
75.5205
77.1039
77.1873
74.4043
68.9788
60.6837
50.1062
42.1386
37.5173
38.0398
42.3227
46.046
56.1113
72.4636
84.1727
86.9168
87.8804
88.5068
87.9193
86.4014
82.0148
76.7088
73.7976
73.8437
74.9555
77.9837
85.8831
95.129
101.209
103.067
103.411
102.78
98.3699
88.1305
74.5176
62.4281
54.484
48.3554
44.0964
45.8198
52.3764
59.2928
69.3088
81.1578
91.0767
95.4296
96.5082
94.9403
91.301
87.4695
82.1189
77.8973
74.8813
73.9548
74.1781
76.2589
79.3235
82.8974
87.0096
90.5231
93.1645
95.1995
96.7062
97.5445
98.5626
98.0353
99.6804
98.3263
99.6749
95.627
99.8949
94.5521
99.2384
83.7546
75.2516
39.6978
74.8043
73.3876
72.7724
71.4627
70.0893
68.1287
65.0045
63.4831
63.882
65.4957
69.0455
73.2933
75.6563
76.9662
78.201
77.5911
75.9756
75.1153
74.3166
73.9227
74.7405
76.1407
76.6589
76.9771
78.6665
80.4872
80.6869
77.141
70.1343
60.6765
49.0158
39.4693
34.2877
34.8795
38.6542
42.2768
53.4331
70.8341
82.9044
85.9268
87.3691
88.8856
89.4749
88.9511
85.2087
80.5586
78.1108
78.3458
78.9943
81.6001
88.6176
96.9187
102.38
104.153
104.298
103.559
99.0366
88.2975
74.8467
61.7218
53.2761
47.2864
43.5635
45.4515
51.7381
58.6463
69.0805
81.653
91.5807
96.6331
97.798
96.5439
93.2891
89.7747
84.7362
80.6413
77.4798
76.4608
76.1824
77.6996
80.448
83.5668
87.0125
90.3495
92.4886
94.3369
95.7919
96.468
96.8811
96.1469
98.0899
97.1022
96.7053
91.4493
97.3193
88.967
95.8398
77.2344
68.8855
40.2895
74.7368
73.2495
73.1908
71.9651
70.3641
68.8706
66.199
64.7791
65.2398
66.6992
69.6937
73.0257
75.1354
76.3633
77.403
77.0675
76.0929
75.9032
75.5002
75.2152
76.2209
78.0568
79.1314
79.8814
81.7424
83.6951
83.969
79.8976
71.6139
60.9201
48.2521
37.5592
31.9526
32.4968
35.8108
39.5988
51.8088
69.8535
82.056
85.4801
87.4204
89.6646
91.32
91.6902
88.5605
84.6405
82.5878
82.6675
83.1485
85.3925
91.5107
98.839
103.601
105.191
105.147
104.159
100.069
89.032
75.5867
61.7275
52.6899
46.6127
43.6124
45.5352
51.401
58.5985
69.1982
82.61
92.4947
98.1318
99.383
98.3196
95.3827
92.0885
87.0558
83.0774
79.8411
78.5844
77.8606
78.965
81.5666
84.3947
87.1235
90.1441
91.9021
93.4999
94.9588
95.5322
95.2016
94.4061
96.3956
95.7821
93.3833
87.6452
94.0167
82.7766
91.1711
70.1986
62.8538
40.0649
74.965
73.4724
73.5005
72.3953
70.5831
69.5976
67.4965
66.1084
66.5559
67.7917
70.2469
72.8127
74.6115
75.7883
76.765
76.6724
76.2141
76.5236
76.5632
76.4687
77.6416
79.7595
81.3028
82.4995
84.5575
86.7332
87.16
82.709
73.3792
61.5168
47.9569
36.3988
30.4589
30.8495
33.7946
38.0402
51.2749
69.5517
81.6528
85.496
87.9081
90.7879
93.4253
94.5224
92.0192
88.8284
87.1331
87.0269
87.3134
89.2468
94.4238
100.721
104.79
106.126
105.952
104.621
101.225
90.6278
76.9723
62.7539
52.8962
46.4239
43.9813
45.9711
51.7463
59.2054
69.6103
84.0386
94.1246
99.9083
101.245
100.33
97.4902
94.3402
89.3771
85.4726
82.2019
80.5663
79.5545
80.259
82.6448
85.2618
87.4436
89.9612
91.4464
92.7093
94.1278
94.7465
93.9588
93.0332
94.8795
93.974
90.8868
86.2116
89.1498
76.6879
85.077
62.0689
57.2954
39.225
75.8049
73.9918
73.6692
72.7235
70.8507
70.2401
68.7083
67.4434
67.7513
68.6441
70.6495
72.665
74.1166
75.2699
76.2254
76.3215
76.2911
77.0304
77.4939
77.6893
79.0548
81.292
83.2245
84.8503
87.1316
89.7269
90.3208
85.4935
75.3263
62.4916
48.2729
36.0955
29.7584
29.9148
32.5904
37.414
51.591
69.8613
81.623
85.8487
88.7345
92.2587
95.6921
97.3275
95.4901
93.0175
91.6292
91.3327
91.4127
93.0165
97.2633
102.512
105.862
106.956
106.683
105.21
102.188
92.8877
79.2315
64.5894
53.6656
46.6871
45.0416
46.4881
52.6161
59.9043
70.751
86.0242
96.1999
101.813
103.312
102.408
99.5566
96.5653
91.8864
87.967
84.5541
82.4218
81.2737
81.6747
83.7523
86.1299
87.8629
89.788
91.0631
91.9429
93.2476
93.999
93.2819
92.2645
93.6331
91.8241
89.9033
86.4743
83.4899
72.5863
75.8785
53.5873
52.5579
38.3263
76.367
74.5282
73.9098
73.0105
71.2206
70.8751
69.782
68.6332
68.7936
69.3661
70.9867
72.5504
73.6204
74.7629
75.6777
75.9434
76.3377
77.4397
78.2565
78.8747
80.4651
82.6962
84.8843
86.9484
89.5716
92.6861
93.3272
88.0875
77.3969
63.9214
49.2789
36.6998
29.9201
29.7371
32.2585
37.6953
52.6757
70.6382
81.8268
86.4376
89.7902
93.9085
97.9409
100.064
98.9416
97.1279
95.9616
95.4611
95.3742
96.6639
99.9546
104.107
106.757
107.647
107.319
106.028
103.037
95.38
82.0756
66.9415
55.0311
47.4425
46.3119
47.0923
54.2569
60.3732
72.7808
88.2235
98.3773
104.044
105.583
104.389
101.646
98.7252
94.2929
90.2579
86.6014
84.0892
82.9345
83.1151
84.8313
86.9601
88.2443
89.6509
90.7433
91.1791
92.3291
93.2072
92.8946
92.0301
92.9986
89.8423
89.427
85.7347
79.3924
71.5056
66.0012
48.1813
48.8336
37.683
76.8194
75.0989
74.2474
73.3402
71.7391
71.5128
70.7094
69.6979
69.748
70.026
71.233
72.4022
73.1179
74.244
75.0867
75.5084
76.3909
77.7549
78.8472
79.9799
81.7579
83.9294
86.3503
88.8855
91.9077
95.4356
96.0034
90.3293
79.4602
65.8255
51.0676
38.1765
31.048
30.4927
32.89
39.0496
54.6034
71.7779
82.2507
87.1904
90.932
95.5575
100.138
102.742
102.334
101.045
100.021
99.3142
99.0967
100.112
102.481
105.429
107.433
108.174
107.829
106.811
104
97.7298
85.3473
69.9467
57.1422
49.1097
47.6008
47.8679
56.4213
61.0899
75.9262
90.4632
100.901
106.666
107.81
106.266
103.64
100.527
96.1856
92.0858
88.2958
85.62
84.568
84.6299
85.9228
87.7322
88.5222
89.5457
90.3806
90.5232
91.4254
92.1982
92.4799
91.9333
92.1986
88.5342
88.1521
82.5602
77.3861
69.9479
58.8272
49.8101
46.5373
37.9246
77.1186
75.6179
74.6597
73.7572
72.3644
72.1105
71.5708
70.7146
70.5914
70.6534
71.4489
72.194
72.6265
73.6511
74.4127
75.0879
76.4411
77.9757
79.3485
80.9581
82.8454
85.0378
87.7354
90.5561
93.9478
97.7096
98.11
92.124
81.3452
68.0596
53.5845
40.5839
33.1565
32.3217
34.5986
41.4242
57.1898
73.2646
82.9161
87.9317
91.895
97.037
102.217
105.356
105.57
104.657
103.766
102.872
102.489
103.237
104.779
106.544
107.924
108.535
108.208
107.33
104.917
99.6416
88.9239
74.1745
60.0642
51.769
49.0966
48.976
58.9961
62.0689
79.8177
92.6985
103.937
109.295
109.933
108.048
105.361
102.009
97.7804
93.7271
89.8644
87.1669
86.2475
86.2678
87.059
88.3777
88.6588
89.4338
89.9529
90.0245
90.6915
91.3458
91.7611
91.65
91.2363
87.5459
86.053
80.2606
74.9417
66.4562
56.5
54.3316
45.629
39.8766
77.3249
76.123
75.0869
74.1735
73.0618
72.7088
72.375
71.6986
71.3737
71.3198
71.6479
71.9067
72.1805
73.0162
73.7304
74.7198
76.4056
78.1233
79.7885
81.765
83.8211
86.0832
88.8741
91.7636
95.4167
99.197
99.4194
93.4134
82.9709
70.3676
56.5638
43.829
36.3741
35.1699
37.4094
44.795
60.2184
75.0376
83.7631
88.5064
92.49
98.2068
104.169
107.898
108.534
107.924
107.162
106.08
105.518
105.998
106.724
107.451
108.281
108.791
108.528
107.705
105.644
101.17
92.5249
79.1015
64.102
55.2514
50.9102
51.4688
61.6114
63.5231
84.27
95.5695
107.74
112.233
112.37
109.905
107.025
103.502
99.3934
95.3817
91.4795
88.7658
87.8857
87.8507
88.1872
88.96
88.6525
89.2332
89.5072
89.5451
90.1674
90.8685
90.7202
91.0103
90.4481
86.5899
83.8522
79.9353
73.1278
64.9815
57.4407
57.7765
46.3185
43.5297
77.4391
76.5756
75.5133
74.5971
73.8224
73.3485
73.1168
72.6507
72.1335
71.9498
71.8171
71.6417
71.8113
72.4099
73.1212
74.3853
76.3046
78.2104
80.1499
82.4635
84.6479
86.9242
89.6408
92.3998
96.1381
99.755
99.8142
94.0692
84.3491
72.5336
59.6717
47.703
40.5515
39.0322
41.4205
49.2112
63.7324
76.7646
84.6135
88.8389
92.8048
99.3182
106.15
110.304
111.148
110.833
110.197
108.9
108.139
108.368
108.294
108.121
108.551
109.001
108.85
108.167
106.484
102.778
95.9439
84.0989
69.5798
60.1693
53.5469
55.1053
63.9744
66.2792
89.0269
99.2247
112.338
115.834
115.265
112.024
108.759
105.055
101.019
96.9851
93.1641
90.4543
89.5204
89.3086
89.169
89.4423
88.5368
88.9617
89.0477
88.9174
89.8125
90.8724
89.372
89.8867
89.7716
86.1365
82.3986
79.1874
72.705
66.8855
59.8029
61.1718
48.7979
47.8299
77.4374
76.8994
75.9591
75.0783
74.5883
74.0316
73.7971
73.4874
72.8152
72.4808
71.9821
71.4563
71.532
71.8944
72.6097
74.125
76.1788
78.2526
80.5023
82.9681
85.2084
87.5188
90.0104
92.468
96.1177
99.4035
99.2709
94.0436
85.4464
74.5787
62.8052
51.966
45.2151
43.5545
46.2959
53.9374
67.0281
77.8828
85.0997
88.9544
93.0915
100.618
108.18
112.526
113.403
113.418
112.866
111.245
110.292
110.299
109.519
108.595
108.751
109.248
109.18
108.692
107.479
104.546
99.1356
88.9942
75.7246
66.063
57.7386
60.1984
67.3931
69.7152
93.4481
103.371
117.064
119.394
118.05
114.127
110.375
106.522
102.52
98.4764
94.9274
92.2474
91.1902
90.6443
89.9622
89.7586
88.2661
88.6598
88.5349
88.1862
89.2213
91.1157
88.398
88.4265
88.2176
86.2629
81.4388
78.2722
73.114
70.4427
62.4334
64.6327
52.4161
51.4802
77.36
77.1032
76.4114
75.5834
75.2544
74.6839
74.3861
74.1405
73.3813
72.8811
72.1323
71.3829
71.3522
71.5531
72.2958
73.969
76.0526
78.2907
80.76
83.2771
85.5684
87.8356
89.9206
92.0803
95.4414
98.3089
97.9389
93.5392
86.1674
76.5293
65.7967
56.0678
49.6784
47.773
50.3813
57.6132
69.0795
78.3166
85.1987
89.0313
93.7358
102.386
110.284
114.413
115.347
115.741
115.085
113.088
111.988
111.717
110.382
108.953
108.947
109.434
109.504
109.233
108.397
106.035
101.476
92.8842
80.7449
71.139
63.1344
66.8112
71.1536
74.9943
98.2916
108.175
121.066
122.253
120.243
115.962
111.83
107.886
103.908
99.9047
96.6176
94.0261
92.7962
91.8422
90.6044
89.9409
87.8745
88.3506
87.9732
87.434
88.6712
90.8417
87.5505
87.2555
87.3862
86.6293
80.969
78.1047
74.4119
74.3919
65.4148
67.5014
55.9486
53.8809
77.2343
77.1649
76.7821
76.0355
75.7592
75.219
74.8266
74.5751
73.8283
73.1678
72.2714
71.4297
71.2685
71.3923
72.1933
73.9048
75.9908
78.3363
80.9129
83.4353
85.72
87.8285
89.582
91.6225
94.7417
96.8814
96.1368
92.8649
86.7578
78.2915
68.4879
59.4871
53.3283
51.1798
53.2667
59.8774
69.8195
78.4883
85.1935
89.4999
95.2575
104.591
112.158
115.864
117.096
117.81
116.778
114.465
113.205
112.62
110.931
109.24
109.174
109.625
109.851
109.772
109.129
107.029
102.902
95.4529
84.3766
75.3843
68.2735
71.7286
73.0834
83.2407
103.714
113.21
124.353
124.554
121.997
117.558
113.184
109.144
105.177
101.259
98.1961
95.709
94.1885
92.847
91.1641
90.0738
87.536
88.1639
87.4757
86.7644
88.5405
90.708
85.2213
87.9268
88.2045
86.9813
81.3028
79.1843
76.0179
77.9273
68.0028
69.8449
58.7836
55.209
77.3115
77.2765
77.0162
76.3587
76.0788
75.5705
75.1287
74.8455
74.1135
73.3591
72.4208
71.5502
71.2966
71.406
72.2187
73.8723
75.9839
78.3828
80.9697
83.466
85.6997
87.6828
89.3215
91.4212
94.2449
95.5899
94.447
92.0732
87.5546
80.0239
70.8437
62.3096
56.2469
53.9023
55.5269
61.4559
70.2413
78.5207
85.3106
90.4649
97.1828
106.579
113.51
117.1
118.716
119.454
117.914
115.427
113.959
113.067
111.239
109.593
109.435
109.767
110.145
110.205
109.695
107.708
103.819
97.0778
87.1872
78.9967
72.2961
75.4961
75.0971
91.8495
108.647
117.907
127.359
126.591
123.549
118.921
114.396
110.241
106.242
102.487
99.6064
97.1458
95.2482
93.6032
91.654
90.2068
87.4317
88.1675
87.2023
86.7057
88.8221
90.887
84.9795
90.1539
89.349
87.0548
81.632
82.1082
77.5772
80.6021
69.9325
71.4431
60.8442
55.9656
77.4096
77.3727
77.1361
76.546
76.2419
75.7685
75.303
74.96
74.2646
73.4912
72.5603
71.7082
71.3976
71.5123
72.3289
73.9437
76.0238
78.4046
80.9499
83.4214
85.6427
87.5807
89.303
91.6166
94.2214
94.9068
93.2864
91.6215
88.2676
81.6539
72.9419
64.6477
58.6094
56.0931
57.4567
62.7808
70.6848
78.6718
85.5784
91.5967
99.0001
107.919
114.471
118.17
120.036
120.49
118.578
116.035
114.327
113.185
111.376
109.819
109.649
109.901
110.328
110.46
110.034
108.139
104.376
97.9838
89.1305
81.5899
74.8885
78.7446
78.3359
99.1465
112.46
121.947
129.827
128.246
124.739
119.943
115.31
111.085
107.133
103.434
100.621
98.1431
95.9355
94.0481
91.9986
90.3857
87.5141
88.3522
87.0979
87.1835
89.1763
90.8504
85.5091
91.4462
90.3788
87.9421
81.9459
85.2978
78.7738
81.9348
71.2507
72.6844
62.2947
56.4733
77.5274
77.4497
77.1759
76.6344
76.2916
75.8355
75.3721
74.9816
74.3193
73.5462
72.6432
71.844
71.5148
71.6412
72.4616
74.029
76.0803
78.4479
80.9571
83.3886
85.6081
87.5849
89.4951
92.0689
94.5563
94.9168
93.2975
91.6836
88.6776
82.8221
74.5945
66.418
60.352
57.7055
58.9005
63.8274
71.1598
78.8776
85.8918
92.491
100.288
108.798
115.17
118.909
120.766
120.867
118.843
116.329
114.455
113.157
111.428
109.963
109.746
109.978
110.295
110.527
110.086
108.223
104.564
98.58
90.4778
83.218
76.6926
81.6249
81.6145
103.846
115.219
124.733
131.306
129.348
125.49
120.592
115.82
111.543
107.628
103.955
101.089
98.6142
96.2512
94.21
92.1317
90.4895
87.7177
88.3717
87.1221
87.5593
89.4267
90.8426
85.2588
92.0644
91.4221
88.3868
82.1379
87.2322
79.4183
82.2372
72.1385
73.6976
63.1335
56.8918
77.7078
77.498
77.1676
76.6593
76.2895
75.8371
75.3754
74.9519
74.3117
73.5514
72.6716
71.9102
71.5802
71.7284
72.5609
74.1141
76.1339
78.4799
80.9681
83.3902
85.6209
87.6148
89.6182
92.3233
94.8089
95.1725
93.4639
91.4703
88.5779
83.2354
75.4468
67.3568
61.2804
58.5591
59.6654
64.3723
71.4092
78.9778
86.0292
92.8864
100.864
109.172
115.41
119.074
120.832
120.788
118.779
116.38
114.502
113.171
111.456
110.049
109.769
110
110.296
110.453
109.772
107.935
104.484
98.8822
91.1483
84.154
78.3622
83.4482
83.4718
105.453
116.748
126.017
131.693
129.696
125.682
120.793
116.028
111.667
107.635
103.969
101.054
98.5938
96.2993
94.2532
92.1911
90.4956
87.8301
88.4634
87.218
87.7163
89.491
90.7524
85.4627
92.7018
91.7102
88.3302
82.1182
88.1076
79.7466
82.385
72.3791
74.1825
63.3877
57.055
74.015
73.47
72.0387
70.3927
68.485
68.1953
69.1789
69.6557
70.5742
71.9103
73.6449
73.914
70.8354
67.2174
65.5532
66.0738
67.1541
67.017
66.0034
64.4717
61.8065
58.5901
56.1183
54.7648
55.5623
58.7596
63.1211
69.9576
80.5433
90.2639
100.496
109.255
115.263
119.213
121.229
121.629
121.187
120.939
120.608
120.307
120.237
118.589
115.082
109.834
104.561
98.7607
96.8742
96.2396
97.6113
100.184
102.938
105.793
108.193
109.764
110.789
111.813
113.331
115.369
117.086
117.463
116.657
115.573
114.198
112.506
110.945
109.47
108.155
107.485
106.839
105.578
104.399
103.363
101.626
98.6808
94.3303
89.0741
84.4825
81.8147
81.4866
81.9306
86.6536
91.1849
96.3684
101.416
105.396
108.505
110.958
112.98
114.712
116.348
118.015
119.776
121.63
123.664
125.884
128.08
130.448
132.438
133.676
134.12
74.0207
73.4159
71.9264
70.0443
67.8875
67.4881
68.6883
69.5361
70.5015
71.7209
73.3238
73.3355
70.2264
66.7301
65.2504
66.0282
67.4083
67.6824
66.3368
64.2714
61.2928
58.0141
55.5407
54.1626
54.8769
58.1128
62.4424
69.1083
79.595
89.571
100.05
109.068
115.098
119.27
121.277
121.643
121.147
120.868
120.538
120.268
120.315
118.886
115.21
109.639
104.139
98.5229
96.5376
95.956
97.4132
100.134
102.899
105.818
108.258
109.822
110.805
111.792
113.276
115.299
117.046
117.543
116.877
115.715
114.242
112.481
110.938
109.466
108.109
107.451
106.885
105.543
104.258
103.303
101.812
98.8173
94.1314
88.6493
83.931
81.2702
81.0301
81.4877
86.4782
91.0355
96.3112
101.467
105.453
108.554
110.999
113.017
114.741
116.342
117.972
119.732
121.599
123.628
125.876
128.128
130.439
132.497
133.786
134.236
74.0103
73.3087
71.6932
69.3913
66.706
66.2358
67.909
69.3573
70.4995
71.7063
73.1184
72.6504
69.2452
65.7807
64.6734
65.9185
67.3264
67.3173
65.8139
63.3852
60.2273
56.9229
54.5434
53.3012
53.7217
56.856
61.4502
67.5739
77.7633
88.3115
98.9904
108.492
114.462
119.094
121.191
121.498
120.996
120.665
120.277
120.101
120.283
118.842
114.954
109.017
103.241
97.9349
95.9503
95.3765
97.0091
99.9101
102.754
105.822
108.356
109.911
110.742
111.556
112.995
115.021
116.779
117.25
116.552
115.477
114.115
112.384
110.92
109.465
107.997
107.267
106.772
105.403
104.041
102.982
101.49
98.4077
93.3816
87.742
82.7831
80.0417
79.8466
80.6307
85.7944
90.6062
96.0514
101.442
105.463
108.587
111.024
113.02
114.713
116.313
117.956
119.714
121.558
123.575
125.849
128.163
130.483
132.507
133.861
134.327
74.0002
73.2044
71.4005
68.6034
65.3662
64.7588
66.952
69.1831
70.7952
72.1281
73.1833
72.3105
68.7348
65.2569
64.1844
65.6298
66.868
66.5122
64.5943
61.8925
58.8513
55.6679
53.3547
52.3563
52.6677
55.4943
60.212
65.9111
75.6371
86.6681
97.4106
107.743
113.524
118.537
120.847
121.171
120.703
120.323
119.866
119.557
119.958
118.514
114.346
107.926
101.83
96.8713
94.7502
94.4242
96.4166
99.4387
102.464
105.75
108.408
109.974
110.705
111.387
112.694
114.616
116.279
116.576
115.781
114.845
113.56
111.992
110.8
109.423
107.597
106.995
106.644
105.265
103.732
102.58
100.837
97.4135
92.0137
86.1654
81.0762
78.0605
78.2077
79.3532
84.2494
89.7918
95.4205
101.272
105.427
108.612
111.049
113.018
114.683
116.24
117.831
119.6
121.496
123.535
125.839
128.21
130.585
132.672
133.962
134.398
74.0497
73.1872
71.1707
67.8442
64.0247
63.2659
66.0278
68.9843
71.1911
72.7314
73.5014
72.4023
68.958
65.6005
64.6355
65.5795
66.2111
65.4187
63.2472
60.4261
57.5227
54.5031
52.104
51.2197
51.6175
54.1177
58.7324
64.0014
73.2922
84.8124
95.4223
106.742
112.652
117.707
120.331
120.697
120.215
119.835
119.437
119.194
119.599
117.892
113.2
106.008
99.846
95.2234
92.9658
93.0666
95.5011
98.8046
101.948
105.423
108.2
109.934
110.624
111.159
112.346
114.195
115.656
115.675
114.578
113.638
112.472
111.126
110.375
109.277
107.47
106.806
106.659
105.438
103.869
102.252
99.8834
95.8865
89.9557
83.7987
78.8306
75.465
76.1266
77.6597
82.1415
88.6893
94.5504
100.979
105.385
108.701
111.137
113.063
114.635
116.095
117.607
119.397
121.344
123.46
125.836
128.314
130.756
132.88
134.069
134.465
74.2204
73.3065
71.0676
67.2972
62.8689
62.0213
65.2272
68.7344
71.5153
73.3381
73.9675
72.8721
69.9789
67.2437
66.0191
65.9646
65.6161
64.3566
62.1449
59.3278
56.472
53.6052
51.1551
50.197
50.6313
52.9563
57.3147
62.0759
70.8311
83.0719
93.5253
105.128
111.857
116.719
119.634
120.137
119.622
119.254
119.044
118.957
119.094
116.7
111.552
103.166
97.2406
92.8896
90.5506
91.2338
94.1488
97.9651
101.308
104.96
107.715
109.662
110.427
110.857
111.796
113.487
114.687
114.492
113.002
111.851
110.821
109.67
109.467
108.911
107.349
106.782
106.918
105.966
104.348
102.065
98.7223
93.8903
87.3587
80.7469
76.14
72.5795
73.4864
75.7384
80.065
87.3835
93.5937
100.553
105.32
108.78
111.267
113.144
114.585
115.865
117.251
119.028
121.112
123.289
125.823
128.452
131.007
133.125
134.197
134.51
74.5404
73.5583
71.1236
67.0274
62.0819
61.1901
64.5977
68.446
71.6578
73.7325
74.3525
73.5742
71.5773
69.4013
67.8817
66.7096
65.2596
63.5174
61.4264
58.7368
55.859
52.9693
50.4832
49.3532
49.7309
51.9627
55.9699
60.1084
68.2465
81.3051
91.7864
103.062
110.872
115.626
118.777
119.532
118.995
118.642
118.706
118.684
118.35
115.174
109.107
100.047
94.0747
89.852
87.4016
88.4856
92.0316
96.6918
100.637
104.645
107.218
109.214
110.177
110.42
111.103
112.562
113.376
112.867
111.055
109.563
108.592
107.652
107.993
108.181
107.181
106.924
107.4
106.86
105.069
101.97
97.4135
91.5295
84.4292
77.2095
73.0742
69.571
70.5667
73.6566
78.0077
85.8607
92.4804
99.9088
105.013
108.67
111.284
113.154
114.486
115.586
116.765
118.494
120.732
123.038
125.71
128.545
131.197
133.426
134.303
134.535
74.9785
73.9333
71.3263
66.9877
61.7379
60.8117
64.1922
68.175
71.5913
73.8151
74.5764
74.3558
73.3278
71.7024
69.778
67.604
65.1994
62.9762
61.0209
58.5559
55.6737
52.5646
49.991
48.6826
49.018
51.3017
55.1782
58.3581
65.7501
79.2297
90.1283
100.869
109.579
114.33
117.657
118.842
118.369
118.031
118.381
118.425
117.575
113.333
105.891
96.8248
90.7931
86.513
83.8091
84.8632
88.9411
94.7362
99.7615
104.357
106.714
108.591
109.755
109.861
110.337
111.478
111.806
110.719
108.702
106.857
105.779
105.077
105.903
107.01
106.872
107.115
107.942
107.759
105.782
101.766
95.9575
88.7878
81.29
73.4832
69.7798
66.5357
67.5217
71.4059
76.0342
84.2993
91.3432
99.1336
104.482
108.295
111.118
113.032
114.327
115.288
116.258
117.85
120.168
122.686
125.485
128.485
131.332
133.564
134.381
134.535
75.4529
74.3426
71.6204
67.1577
61.8243
60.8693
64.0225
67.9401
71.3354
73.6219
74.6279
75.0645
75.0758
73.8302
71.4426
68.4878
65.4071
62.8449
60.9316
58.671
55.8733
52.4634
49.6976
48.157
48.4661
50.8626
54.8901
57.2724
63.5888
76.9465
88.2133
98.6115
107.98
112.797
116.177
117.935
117.656
117.364
117.985
118.158
116.691
110.981
102.648
93.7616
87.7049
83.2372
79.5672
80.8092
85.2614
92.062
98.4366
103.795
106.174
107.926
109.091
109.234
109.36
110.033
109.816
107.983
105.747
103.682
102.442
101.948
103.28
105.317
106.243
107.207
108.403
108.481
106.27
101.245
94.3264
85.8218
78.2441
70.011
66.5901
63.7526
64.7493
69.2514
74.2625
82.9025
90.4413
98.4506
103.899
107.728
110.78
112.853
114.114
114.985
115.75
117.152
119.413
122.186
125.139
128.261
131.264
133.624
134.346
134.477
75.8338
74.6332
71.8645
67.4612
62.3232
61.3037
64.0794
67.7467
70.9672
73.2496
74.5388
75.6148
76.5406
75.6909
72.7835
69.2746
65.7704
63.0425
61.2194
59.0292
56.2969
52.6503
49.6277
47.7968
47.9883
50.4735
55.0224
57.0713
62.1863
74.9044
86.1718
96.2341
105.978
110.937
114.264
116.696
116.76
116.547
117.372
117.728
115.46
108.543
99.7617
90.9694
84.7643
80.1581
76.1368
76.9231
81.286
88.7481
96.777
102.92
105.488
107.27
108.311
108.596
108.366
108.397
107.494
104.818
102.168
99.9093
98.5521
98.3176
100.2
103.074
105.182
107.009
108.548
108.853
106.407
100.331
92.5525
83.1614
75.6494
67.0866
63.6288
61.2125
62.1929
67.1915
72.589
81.5382
89.5567
97.8865
103.37
106.99
110.216
112.641
113.898
114.642
115.162
116.312
118.502
121.507
124.693
127.866
131.001
133.409
134.159
134.181
75.9613
74.6394
71.896
67.7359
63.0754
62.0091
64.3538
67.5861
70.546
72.8044
74.3646
76.0193
77.7372
77.2849
74.0549
70.0259
66.2823
63.4172
61.6979
59.6101
56.9032
52.9958
49.7069
47.6771
47.6578
50.2147
55.2936
57.5441
61.4808
73.3336
84.086
93.6142
103.575
108.73
111.869
114.987
115.541
115.435
116.4
116.95
114.003
106.4
97.0596
88.3252
82.1666
77.3565
73.1865
73.4163
77.2466
84.9486
94.7091
101.659
104.616
106.546
107.385
107.809
107.434
106.613
104.809
101.333
98.1765
95.6616
94.1647
94.2692
96.6544
100.34
103.608
106.326
108.226
108.738
106.084
99.129
90.7977
81.1314
73.4552
64.5388
60.8852
58.9366
59.8411
65.3867
71.3588
80.2213
88.5752
97.2631
102.909
106.152
109.293
112.268
113.581
114.173
114.418
115.263
117.472
120.664
124.182
127.362
130.459
132.927
133.637
133.876
75.7881
74.3375
71.6269
67.8426
63.9096
62.8899
64.7247
67.4345
70.1067
72.2827
74.1653
76.2996
78.6588
78.5694
75.3947
70.9072
66.9692
63.9584
62.2507
60.3285
57.7384
53.5516
49.961
47.8522
47.694
50.206
55.5601
57.9814
60.73
72.0219
82.2035
90.657
100.558
106.029
108.938
112.662
113.88
113.964
115.06
115.814
112.488
104.231
94.5911
86.326
80.0744
74.8744
70.4688
70.1222
73.3124
81.0525
92.0856
99.939
103.527
105.757
106.392
106.82
106.323
104.588
101.681
97.4713
93.8196
91.0514
89.3768
89.8229
92.8062
97.2079
101.425
105.111
107.437
108.013
105.188
97.7904
89.0206
79.4768
71.3508
62.2966
58.4975
57.309
58.2635
63.9349
70.7437
79.3947
87.702
96.477
102.464
105.286
108.126
111.523
113.003
113.492
113.487
114.05
116.275
119.662
123.616
126.718
129.675
132.113
132.953
133.221
75.3819
73.7316
70.8522
67.6981
64.6917
63.7772
65.0567
67.1942
69.5736
71.6352
73.9213
76.5185
79.363
79.6255
76.7768
72.0143
67.7699
64.6131
62.8639
61.1035
58.7547
54.5245
50.3661
48.4242
48.3791
50.7626
56.2218
58.6809
60.127
70.7663
80.4664
87.4491
96.8432
102.672
105.408
109.58
111.626
111.989
113.383
114.333
110.704
101.994
92.6683
84.7522
78.1664
72.5851
67.9315
67.0356
69.7058
77.2354
89.2385
97.981
102.328
104.91
105.376
105.739
105.1
102.466
98.2559
93.3649
89.2951
86.1156
84.2638
85.145
88.6847
93.6331
98.806
103.41
106.15
106.73
103.83
96.2995
87.3356
77.9063
69.4915
60.8967
56.7736
56.1904
57.3148
62.7039
70.1982
78.9542
86.9496
95.5839
101.895
104.44
106.944
110.407
112.163
112.592
112.355
112.665
114.932
118.509
122.902
125.917
128.647
130.981
131.795
131.981
74.8621
73.0441
70.0878
67.3748
65.297
64.5479
65.2722
66.7779
68.8785
70.8003
73.5115
76.6341
79.8757
80.5905
78.1576
73.3263
68.6576
65.4086
63.5916
61.9281
59.8682
55.8333
51.3958
49.3615
49.5754
51.7742
57.1935
59.737
59.7038
69.3069
78.8144
84.0971
92.3235
98.4164
101.179
105.708
108.691
109.508
111.305
112.405
108.664
100.066
91.0418
83.2033
76.4745
70.496
65.6215
64.3134
66.6614
73.8435
86.4873
96.1483
101.301
104.066
104.361
104.551
103.734
100.307
94.6324
89.0876
84.7684
81.0971
78.947
80.2798
84.3504
89.7852
95.7677
101.222
104.487
105.122
102.229
94.7155
85.9768
76.6346
68.4013
60.4859
55.7915
55.3432
56.8355
61.9
69.8326
78.8311
86.421
94.6843
101.248
103.677
105.832
109.177
111.226
111.563
111.086
111.075
113.6
117.298
121.91
124.924
127.349
129.422
130.11
129.936
74.4698
72.5311
69.5061
67.1062
65.6954
64.9849
65.1811
66.0656
67.8437
69.7747
72.904
76.574
80.1564
81.4529
79.5971
74.7555
69.637
66.3431
64.431
62.8048
61.0674
57.2915
52.7719
50.6977
51.1419
53.0457
58.0981
61.0509
59.7423
67.3872
76.9339
80.7332
87.0609
93.0839
96.1522
101.067
104.967
106.489
108.81
110.059
106.64
98.37
89.463
81.8808
75.008
68.5784
63.5977
62.0405
64.2348
71.0858
83.9792
94.4512
100.423
103.191
103.426
103.351
102.103
98.0361
91.0744
84.8871
80.3709
76.1661
73.6561
75.3239
79.93
85.7773
92.3396
98.6895
102.536
103.285
100.498
93.2585
84.9786
75.904
68.0019
60.4675
55.2175
54.5997
56.7532
61.7939
69.7768
78.9811
86.2164
93.8682
100.499
102.965
104.803
107.952
110.272
110.567
109.909
109.917
112.474
116.057
120.555
123.696