/*--------------------------------*- C++ -*----------------------------------*\
| =========                 |                                                 |
| \\      /  F ield         | OpenFOAM: The Open Source CFD Toolbox           |
|  \\    /   O peration     | Version:  2.4.0                                 |
|   \\  /    A nd           | Web:      www.OpenFOAM.org                      |
|    \\/     M anipulation  |                                                 |
\*---------------------------------------------------------------------------*/
FoamFile
{
    version     2.0;
    format      ascii;
    class       volScalarField;
    location    "0.127";
    object      k;
}
// * * * * * * * * * * * * * * * * * * * * * * * * * * * * * * * * * * * * * //

dimensions      [0 2 -2 0 0 0 0];

internalField   nonuniform List<scalar> 
17600
(
9.30763
7.39886
5.13451
3.91667
3.36733
2.91312
2.74284
2.4333
2.35686
2.20397
2.11504
2.06886
1.94984
1.98982
1.83833
1.95093
1.83728
1.90065
2.0468
2.03236
4.52424
6.18877
5.84961
5.03309
4.45597
3.87899
3.6609
3.26018
3.14601
2.95421
2.79889
2.75342
2.58754
2.60917
2.44054
2.53461
2.39419
2.43786
2.50988
2.56901
1.34387
3.26426
4.00851
3.94983
3.78841
3.41889
3.27204
2.97799
2.86129
2.72554
2.56102
2.53053
2.38684
2.38962
2.25634
2.30318
2.1862
2.21757
2.17253
2.21742
0.211431
1.18704
1.94737
2.29545
2.53786
2.49637
2.47884
2.39687
2.30659
2.25693
2.13032
2.11517
2.02026
2.0171
1.92635
1.93816
1.86022
1.86744
1.7883
1.78471
0.0265
0.25658
0.666206
0.924405
1.27799
1.41062
1.53457
1.61596
1.61068
1.62854
1.59672
1.60093
1.56419
1.56415
1.53285
1.5201
1.491
1.47073
1.41431
1.38299
0.00280211
0.0428757
0.154036
0.242112
0.435192
0.567057
0.674742
0.842286
0.883832
0.968133
0.995941
1.03881
1.05259
1.06309
1.09015
1.06891
1.08627
1.05164
1.03773
0.991336
0.000295309
0.00631589
0.0251491
0.0450834
0.0942031
0.159179
0.197853
0.299014
0.344019
0.412893
0.474003
0.509053
0.565312
0.582323
0.643113
0.635231
0.67246
0.648355
0.650374
0.619103
5.45599e-05
0.000887056
0.00334504
0.00637258
0.0133219
0.0301878
0.040012
0.0707987
0.0891651
0.116512
0.157043
0.174431
0.212672
0.22721
0.277838
0.281908
0.31749
0.312334
0.311538
0.299126
2.76333e-05
0.000140529
0.000490389
0.000842762
0.00171202
0.00419792
0.00579281
0.0116958
0.0154039
0.0212676
0.0346542
0.0405047
0.0529895
0.0591957
0.0804577
0.0839874
0.103158
0.104549
0.10269
0.0974496
2.4268e-05
4.68443e-05
0.000123295
0.000178369
0.000344612
0.000715227
0.000895382
0.00173337
0.00217295
0.00293502
0.0050934
0.00620814
0.00854773
0.00994296
0.0151316
0.0162596
0.0221095
0.0227937
0.0222259
0.0206043
2.59541e-05
3.92784e-05
7.48557e-05
8.59116e-05
0.000111534
0.000195359
0.000233346
0.000358227
0.000399273
0.000465781
0.00068394
0.000778929
0.00104066
0.00121454
0.00199944
0.00217256
0.00303108
0.0032536
0.00320237
0.00301916
2.23108e-05
3.47637e-05
7.34319e-05
7.37357e-05
7.21365e-05
8.40936e-05
9.09061e-05
0.000106997
0.000144259
0.000202577
0.000236476
0.000245349
0.000293327
0.000304416
0.000370028
0.000360466
0.000389931
0.000463731
0.000487621
0.00048375
2.30903e-05
3.6003e-05
8.0343e-05
7.09588e-05
5.78434e-05
6.34886e-05
7.06244e-05
8.54011e-05
0.000139446
0.000198391
0.000217192
0.00022993
0.00023196
0.000207071
0.00018933
0.000175127
0.000181949
0.000215226
0.000218674
0.000225435
2.31165e-05
4.66545e-05
5.88249e-05
5.01322e-05
4.87423e-05
6.89067e-05
8.3873e-05
0.000110079
0.00015231
0.000161357
0.000166803
0.000160927
0.000142847
0.000133571
0.000134863
0.000146897
0.000192122
0.000198681
0.000186312
0.000180783
2.11505e-05
3.54519e-05
4.0093e-05
4.22106e-05
5.33112e-05
7.01037e-05
7.82237e-05
9.90853e-05
9.51078e-05
8.80683e-05
8.9866e-05
9.09808e-05
9.61637e-05
0.000107991
0.00013612
0.000158465
0.000161603
0.000157685
0.000140287
0.000132947
2.06138e-05
2.6549e-05
3.74505e-05
5.86006e-05
5.94467e-05
5.86142e-05
6.10621e-05
6.15444e-05
6.0656e-05
6.31715e-05
7.62281e-05
8.25001e-05
9.45556e-05
0.000103919
0.000117407
0.000115348
0.000108045
0.000108152
0.000107358
0.000110659
2.07817e-05
2.70847e-05
4.71928e-05
5.33584e-05
4.92337e-05
4.6958e-05
5.07991e-05
5.54734e-05
5.95496e-05
7.10958e-05
7.61134e-05
7.68138e-05
7.8766e-05
7.82746e-05
8.04156e-05
7.91472e-05
8.28724e-05
9.38033e-05
9.61034e-05
0.000114093
2.12075e-05
2.60885e-05
4.22349e-05
4.70244e-05
4.53753e-05
4.58866e-05
4.95694e-05
5.34729e-05
6.20168e-05
6.52958e-05
6.51501e-05
6.39035e-05
6.11923e-05
6.15663e-05
6.23567e-05
6.43998e-05
7.57104e-05
7.74082e-05
7.48797e-05
8.33544e-05
2.06767e-05
2.47637e-05
3.8085e-05
4.55751e-05
4.46798e-05
4.36882e-05
4.38741e-05
4.76616e-05
5.16297e-05
5.30095e-05
5.52998e-05
5.515e-05
5.51943e-05
5.63303e-05
5.77677e-05
6.11712e-05
6.33464e-05
6.40264e-05
6.50864e-05
8.25083e-05
2.04897e-05
2.43504e-05
4.02084e-05
4.31299e-05
4.3056e-05
4.23552e-05
4.46899e-05
4.91661e-05
5.02415e-05
5.18068e-05
5.21091e-05
5.18028e-05
5.19032e-05
5.233e-05
5.4481e-05
5.68201e-05
5.6899e-05
5.71678e-05
6.1496e-05
6.69282e-05
2.04863e-05
2.64233e-05
3.6561e-05
3.80963e-05
3.74582e-05
4.31474e-05
4.79075e-05
4.84905e-05
4.77825e-05
4.72663e-05
4.72349e-05
4.75563e-05
4.90561e-05
5.41673e-05
5.47061e-05
5.43039e-05
5.34342e-05
5.37429e-05
5.72021e-05
5.90177e-05
2.05782e-05
2.62351e-05
2.97992e-05
3.35608e-05
4.29859e-05
4.85225e-05
4.73708e-05
4.37207e-05
4.24781e-05
4.26495e-05
4.48984e-05
4.94013e-05
5.53366e-05
5.53505e-05
5.3936e-05
5.06098e-05
5.05102e-05
5.17904e-05
5.34836e-05
6.16352e-05
2.06415e-05
2.46061e-05
2.97791e-05
4.24252e-05
4.75084e-05
4.65778e-05
4.1378e-05
4.00039e-05
4.11996e-05
4.82049e-05
5.29367e-05
5.48778e-05
5.45901e-05
5.1155e-05
4.85032e-05
4.84167e-05
4.99411e-05
5.5833e-05
5.80691e-05
5.93318e-05
2.07678e-05
2.46313e-05
3.51236e-05
4.67379e-05
4.64566e-05
4.17692e-05
3.93489e-05
4.1736e-05
5.22811e-05
5.64845e-05
5.66828e-05
5.44555e-05
5.05794e-05
4.93544e-05
4.97942e-05
5.543e-05
6.0745e-05
6.27006e-05
6.22184e-05
6.41571e-05
2.09702e-05
2.53613e-05
3.95231e-05
4.54986e-05
4.317e-05
4.14048e-05
4.33502e-05
5.43846e-05
5.84784e-05
5.76358e-05
5.3865e-05
5.22106e-05
5.29671e-05
5.65061e-05
6.16921e-05
6.61518e-05
6.64543e-05
6.4956e-05
6.47845e-05
6.78128e-05
2.11815e-05
2.63557e-05
4.0463e-05
4.46597e-05
4.39371e-05
4.65103e-05
5.55863e-05
5.83458e-05
5.71922e-05
5.53787e-05
5.54641e-05
5.92105e-05
6.81099e-05
6.83814e-05
6.84229e-05
6.91189e-05
6.88823e-05
6.9949e-05
7.52221e-05
9.03769e-05
2.14211e-05
2.71077e-05
3.841e-05
5.23651e-05
5.38904e-05
5.66388e-05
5.91588e-05
5.92763e-05
5.95204e-05
6.16265e-05
7.05963e-05
7.77968e-05
7.73714e-05
7.43593e-05
7.5105e-05
7.8659e-05
8.54102e-05
0.000102201
0.00013174
0.000202977
2.17047e-05
2.76807e-05
4.62133e-05
6.33786e-05
6.31997e-05
6.36463e-05
6.71962e-05
6.98248e-05
7.83232e-05
8.6156e-05
9.01786e-05
9.08027e-05
9.16102e-05
9.53064e-05
0.000106877
0.000146302
0.000183153
0.000260955
0.000435801
0.000917717
2.22621e-05
2.90197e-05
6.60524e-05
7.67967e-05
7.73386e-05
8.15047e-05
9.39849e-05
9.78888e-05
0.000113109
0.000122864
0.00013512
0.000157824
0.000208781
0.000275183
0.000355578
0.000595413
0.000846818
0.00143293
0.00263102
0.00566891
2.30053e-05
3.36627e-05
0.000100655
0.000106276
0.000113882
0.000144391
0.000167375
0.000203095
0.000312525
0.00040503
0.000532117
0.000854588
0.00129318
0.00180125
0.00241302
0.004241
0.00587043
0.00997712
0.0157491
0.0314853
2.508e-05
5.33925e-05
0.000191683
0.000221319
0.000284643
0.000551576
0.000742488
0.00113649
0.00221858
0.00309254
0.00420314
0.00708194
0.00967369
0.0134764
0.016982
0.0268699
0.0340247
0.0517579
0.0703114
0.12852
2.91939e-05
0.000159598
0.000673651
0.000990171
0.00164394
0.00412473
0.00590026
0.00933254
0.0175582
0.0228637
0.0300069
0.04531
0.0563069
0.0720602
0.0852172
0.118616
0.138399
0.184238
0.224946
0.350005
5.04237e-05
0.000895352
0.00401608
0.00697178
0.0128612
0.0308262
0.0417856
0.0627157
0.098614
0.116718
0.149821
0.188151
0.22185
0.255241
0.289097
0.35358
0.385567
0.456121
0.513067
0.65577
0.000280924
0.00631226
0.0274462
0.0474602
0.0862672
0.165992
0.205488
0.281488
0.363428
0.403691
0.478379
0.528381
0.584529
0.620359
0.667336
0.726873
0.758511
0.824858
0.876833
0.990599
0.00273933
0.043559
0.158405
0.247505
0.421408
0.580059
0.68843
0.81533
0.908973
0.952811
1.01984
1.04376
1.08536
1.09651
1.12523
1.15006
1.1713
1.20449
1.2441
1.29696
0.0259362
0.263148
0.66356
0.937774
1.25902
1.42657
1.53916
1.59956
1.62739
1.62043
1.6199
1.59921
1.59718
1.57211
1.57147
1.55829
1.55847
1.55171
1.55801
1.55117
0.206625
1.19698
1.93654
2.30634
2.5293
2.50748
2.47735
2.3888
2.32098
2.22864
2.1719
2.08584
2.05824
1.98489
1.96289
1.90478
1.88369
1.8279
1.79522
1.73084
1.31607
3.29346
3.99851
3.95347
3.78546
3.43032
3.2526
2.98959
2.85751
2.69834
2.59652
2.47181
2.4213
2.30698
2.265
2.16077
2.11377
1.99683
1.91378
1.78343
4.49971
6.21854
5.84149
5.03883
4.44008
3.89228
3.63017
3.2836
3.12463
2.92886
2.81197
2.66774
2.60032
2.46099
2.4014
2.25394
2.18033
2.00602
1.87048
1.65963
9.28189
7.42166
5.11794
3.92644
3.3556
2.92487
2.71227
2.45037
2.33217
2.18028
2.10128
1.98933
1.92757
1.81502
1.75872
1.61646
1.53677
1.36688
1.22255
1.00889
1.08305
0.966181
0.971084
0.888935
0.868047
0.852284
0.823117
0.639689
0.477506
0.43667
0.439682
0.430918
0.357443
0.281168
0.260064
0.248665
0.21694
0.193942
0.191964
0.192657
0.197721
0.214917
0.225233
0.219617
0.190875
0.108739
0.0430253
0.01744
0.00745249
0.00369083
0.00225257
0.00187485
0.00184001
0.00189872
0.00221178
0.00242033
0.00281338
0.00398338
0.00443442
0.00472979
0.00594949
0.00769886
0.00870381
0.0113818
0.0172273
0.0441818
0.122655
0.145402
0.147922
0.14637
0.156918
0.175631
0.182153
0.177572
0.139931
0.0954833
0.0797626
0.0804541
0.0762223
0.0584393
0.0551324
0.071505
0.0904955
0.0862494
0.071765
0.0546732
0.0355585
0.0269344
0.0317464
0.0721789
0.0895364
0.0881619
0.0865043
0.0920718
0.127086
0.245539
0.387594
0.424188
0.296539
0.115178
0.0535056
0.0349435
0.0312877
0.0313862
0.0306615
0.0306476
0.0305818
0.0294307
0.0296866
0.0295674
0.0289032
0.026958
0.0260869
0.0262898
0.0258046
0.0255568
0.0283118
0.0400008
0.0432821
0.041411
0.0399838
0.0401997
0.0408749
0.0453738
0.0504317
0.0551401
0.0630226
0.0718091
0.0720595
0.0711167
0.0620623
0.0581531
0.0516086
0.0487387
0.0464472
0.0462084
0.0478445
0.0562603
0.0714088
0.0716346
0.0705005
0.0627844
0.0515598
0.0475742
0.0447175
0.0387678
0.0330804
0.0319136
0.0321441
0.0331431
0.0371436
0.0394239
0.0425506
0.042867
0.0427532
0.0405628
0.0372426
0.0335213
0.0329411
0.0316904
0.0295155
0.0298147
0.0294776
0.0303608
0.0297201
0.029733
0.0284706
0.0298249
0.0344102
0.0366375
0.0344722
0.0312394
0.0288743
0.0259267
0.0233211
0.0226785
0.0216269
0.0187089
0.0172425
0.0160659
0.0142325
0.0129516
0.0126625
0.0126601
0.0126792
0.01282
0.0132534
0.0144113
0.0174548
0.0243194
0.0446397
0.068173
0.0823775
0.0887979
0.0897466
0.0896562
0.0880117
0.0859638
0.0859118
0.0867815
0.0920546
0.0933176
0.0923504
0.0881527
0.0682071
0.0480824
0.0370952
0.0310881
0.0310105
0.0410596
0.0545694
0.0498687
0.0491532
0.0475798
0.0484755
0.0404288
0.0353649
0.0241423
0.0241298
0.182889
2.04937
1.48326
1.22491
1.08507
0.921022
0.855652
0.858455
0.831136
0.713939
0.673317
0.622637
0.522453
0.418367
0.34477
0.325677
0.304205
0.278506
0.259819
0.249578
0.245825
0.247306
0.24447
0.235768
0.205008
0.119358
0.0473861
0.0187487
0.00799914
0.00380462
0.00227043
0.001667
0.00159476
0.00156729
0.00163505
0.00209539
0.0023827
0.00289323
0.00423445
0.0046789
0.00507039
0.00646564
0.00801306
0.00899311
0.0115835
0.0172966
0.0427204
0.114511
0.138144
0.144274
0.145797
0.164835
0.176227
0.178443
0.173634
0.136897
0.096294
0.0821814
0.0819321
0.0754982
0.0592146
0.05688
0.0737939
0.090285
0.0858373
0.0725776
0.0569934
0.0376637
0.027006
0.0287838
0.0649323
0.0874787
0.08772
0.0856583
0.0886583
0.111358
0.211656
0.375926
0.437694
0.335671
0.128315
0.0562768
0.0359931
0.031886
0.031806
0.031036
0.030775
0.032232
0.0307834
0.030047
0.0303168
0.0298556
0.0283968
0.0263501
0.0261155
0.0253672
0.0251411
0.0275795
0.0389799
0.0431049
0.0413074
0.0391848
0.0393495
0.0399845
0.0440848
0.0496894
0.0556779
0.0620533
0.0694585
0.0693834
0.0681699
0.0580736
0.0534461
0.0463678
0.0436841
0.0414026
0.0411303
0.0418635
0.0453711
0.0589879
0.0659448
0.0650541
0.0622735
0.0524183
0.0477476
0.0440428
0.040373
0.0346651
0.0334718
0.0330664
0.0333971
0.0366088
0.039297
0.0421081
0.0431289
0.0438302
0.0413427
0.0394772
0.0359449
0.0347908
0.033037
0.0302551
0.0298695
0.0292801
0.0299465
0.0293459
0.0290824
0.0278911
0.0286929
0.0335974
0.0363894
0.0340954
0.0313013
0.0293179
0.0272262
0.0251237
0.0242454
0.0223167
0.0187116
0.0173545
0.0164228
0.014479
0.0132143
0.0130826
0.0131194
0.0132746
0.0137097
0.0147392
0.0172963
0.0236184
0.0454773
0.0737717
0.0911436
0.0975614
0.0984588
0.0970475
0.0953533
0.0927435
0.0897728
0.0888029
0.0888352
0.091963
0.0945745
0.0935024
0.0895973
0.0708638
0.0500302
0.0394879
0.0363858
0.0342111
0.0412697
0.0554717
0.0562794
0.0552834
0.0523441
0.0462992
0.0399581
0.0396591
0.0302183
0.0267178
0.112215
1.93526
1.57286
1.25153
1.12174
0.943113
0.818029
0.801631
0.800189
0.77153
0.680402
0.597036
0.536324
0.513758
0.476421
0.426769
0.390881
0.361841
0.329872
0.295978
0.277461
0.265369
0.25022
0.213185
0.119511
0.0482168
0.0194989
0.00811655
0.00398759
0.00231278
0.0016606
0.00141498
0.00140973
0.0014426
0.00154533
0.00208557
0.00244694
0.00302123
0.00468037
0.00517496
0.00563104
0.00744849
0.00880264
0.00965421
0.012189
0.0180888
0.0426751
0.105209
0.132273
0.137993
0.14383
0.171257
0.176167
0.175413
0.168885
0.134069
0.096662
0.0833481
0.081806
0.0734285
0.0602
0.0590289
0.076705
0.0897176
0.0852531
0.0732734
0.0594986
0.0400058
0.0275251
0.0271409
0.057294
0.0849641
0.0869762
0.0849907
0.0864055
0.100447
0.175008
0.354565
0.450147
0.374393
0.144868
0.0594981
0.036926
0.0323578
0.032239
0.0317556
0.0308748
0.0328189
0.0326628
0.0304634
0.0309001
0.030799
0.0297533
0.0269907
0.0257981
0.02486
0.0246654
0.0270323
0.0387943
0.0431685
0.0414298
0.0385418
0.0385795
0.0391272
0.0428254
0.0489347
0.0561771
0.0615158
0.0677253
0.0674213
0.0659273
0.0547103
0.0503387
0.0427865
0.0404144
0.0377977
0.0374504
0.0375893
0.0389061
0.0444557
0.0592084
0.0598125
0.0600604
0.0541948
0.0491588
0.0441656
0.0412006
0.0352248
0.0346361
0.0340212
0.0341151
0.0358936
0.0389252
0.0403297
0.0414458
0.043473
0.0421786
0.0400783
0.0379242
0.0355194
0.0344715
0.0317522
0.0306144
0.0291842
0.0293254
0.0291723
0.0283411
0.0270456
0.0278157
0.0328473
0.0358243
0.0333253
0.0314631
0.0299005
0.0289191
0.0270194
0.0260859
0.0233859
0.0189018
0.0174101
0.0165676
0.0145897
0.0135165
0.013529
0.0137708
0.0142568
0.0151651
0.0170913
0.0220595
0.0377547
0.0760172
0.101395
0.109481
0.11026
0.109362
0.102834
0.0979802
0.0944519
0.0914177
0.090179
0.0903674
0.0924486
0.0948412
0.0946537
0.0911864
0.0731492
0.052246
0.041282
0.0407802
0.044842
0.0462741
0.0529539
0.0700977
0.0567375
0.0521957
0.0665829
0.0469886
0.126952
0.0951465
0.125046
0.117396
1.58537
1.36748
1.10521
0.935444
0.860353
0.74607
0.673081
0.668279
0.664898
0.625278
0.528623
0.474921
0.459809
0.450845
0.427223
0.402312
0.373917
0.336039
0.29755
0.276094
0.245789
0.198504
0.100042
0.0427973
0.0185728
0.00812057
0.00393266
0.00244148
0.00173667
0.00139533
0.00130151
0.00130603
0.00137563
0.00150772
0.00208167
0.00249481
0.00320427
0.00506624
0.00572167
0.00631774
0.00863414
0.00971993
0.0105249
0.0133611
0.0199737
0.0443172
0.0988426
0.127713
0.13257
0.143462
0.174541
0.17579
0.172778
0.163996
0.130004
0.0962666
0.0830588
0.0802282
0.0716783
0.0616334
0.0612802
0.0791557
0.0893768
0.0848743
0.0737615
0.0618909
0.0423713
0.0281716
0.0262431
0.0490216
0.0815645
0.0861559
0.0845862
0.085088
0.094001
0.143682
0.32102
0.456228
0.409469
0.168003
0.063711
0.0381326
0.0329924
0.0327768
0.0325939
0.0311372
0.0325883
0.0342144
0.0310361
0.0309367
0.0311158
0.0302129
0.0271142
0.0252603
0.0242381
0.0240632
0.0268046
0.0389999
0.0434419
0.0416864
0.0379871
0.037853
0.0383114
0.0416815
0.0481841
0.0564807
0.0611185
0.0668551
0.0662512
0.0639233
0.0512127
0.0474442
0.0407456
0.0387068
0.0356207
0.0345394
0.0336134
0.0340024
0.0358859
0.04888
0.0540572
0.0568428
0.0537908
0.052222
0.0466874
0.0427155
0.0357521
0.0347062
0.0338514
0.0341801
0.0344997
0.0360655
0.0359422
0.0361061
0.039566
0.040941
0.0397645
0.0389299
0.0358073
0.0348037
0.0323023
0.0307319
0.0291466
0.0285728
0.0286386
0.0276556
0.0264055
0.0272423
0.0320839
0.03509
0.0326625
0.0314059
0.0298714
0.0293511
0.0284485
0.0279309
0.0248161
0.0193164
0.0176349
0.0165913
0.0146357
0.0139277
0.0141186
0.0149229
0.0158611
0.0173935
0.0208639
0.0302437
0.0634642
0.0950538
0.11066
0.114701
0.114471
0.113111
0.108347
0.101069
0.0956416
0.091534
0.0903989
0.0904584
0.0926691
0.0948117
0.0949207
0.0925606
0.0757223
0.0535462
0.0422114
0.0420025
0.0537194
0.0514603
0.0536376
0.0697482
0.0658409
0.0529
0.113957
0.0939495
0.197725
0.16963
0.251573
0.16739
1.22188
1.05339
0.89311
0.732419
0.67471
0.596239
0.532154
0.510121
0.496645
0.470018
0.426066
0.390781
0.355339
0.343115
0.318926
0.289233
0.269418
0.238058
0.216847
0.186964
0.132478
0.069611
0.0336818
0.015651
0.00764554
0.00388942
0.0024333
0.00186902
0.00149983
0.00126601
0.00122249
0.00123799
0.00135049
0.00150085
0.00216256
0.00263284
0.00371089
0.0054997
0.00610736
0.0069728
0.0100459
0.0108707
0.0116225
0.0150733
0.0226922
0.0482072
0.096172
0.125091
0.129159
0.144857
0.17496
0.174403
0.170107
0.159185
0.12533
0.0940165
0.081309
0.0785146
0.0704839
0.0628099
0.0635806
0.0813597
0.0888908
0.0841764
0.0742644
0.06391
0.0449361
0.0292126
0.0253213
0.0409035
0.0769293
0.0847589
0.0840723
0.0843374
0.0902795
0.120496
0.278543
0.456135
0.438791
0.197751
0.0687085
0.0392742
0.0339255
0.03335
0.0328146
0.0312987
0.0316904
0.0351348
0.0321774
0.0300039
0.0304297
0.0296001
0.0264439
0.0242219
0.0233238
0.0233155
0.026774
0.0397791
0.0440531
0.0421466
0.0376328
0.0372232
0.0376061
0.0407021
0.04744
0.0566329
0.0609815
0.0666957
0.0656987
0.0626433
0.0483694
0.0446543
0.0385645
0.0370648
0.0342682
0.0314695
0.0299021
0.0297821
0.0303201
0.0393393
0.0470739
0.0536444
0.0520773
0.0521858
0.0505182
0.0459307
0.0368111
0.0348457
0.0324772
0.0324928
0.0319859
0.0326826
0.0323767
0.0319063
0.0327688
0.0379305
0.0375725
0.0373699
0.0349739
0.0338685
0.0317784
0.0303637
0.02912
0.0276576
0.0276877
0.0265833
0.025648
0.0269389
0.0315892
0.0347943
0.032448
0.0311508
0.029684
0.0293007
0.0289823
0.029177
0.0259933
0.0197993
0.0180404
0.0164329
0.0146992
0.0142925
0.0147985
0.0165413
0.0181117
0.0205711
0.0264118
0.0496412
0.0872781
0.107278
0.11486
0.115914
0.114934
0.111949
0.109989
0.103881
0.0966471
0.0915921
0.0901479
0.0902318
0.0925536
0.0947103
0.0948682
0.0932795
0.0781315
0.0547637
0.0425272
0.0417741
0.0532664
0.072091
0.0570661
0.0655867
0.0899948
0.0645038
0.124691
0.118327
0.182804
0.179249
0.24884
0.211477
0.861082
0.748845
0.648546
0.53073
0.489488
0.437457
0.376521
0.359325
0.336358
0.305358
0.289807
0.272597
0.235764
0.221942
0.195675
0.172659
0.147479
0.110559
0.0854728
0.0608271
0.0384068
0.0220254
0.0116729
0.00633366
0.00368734
0.0023832
0.00192004
0.00164226
0.00138363
0.00119273
0.00118457
0.00121899
0.00135968
0.00158823
0.00247574
0.00305232
0.0046189
0.00701366
0.00743609
0.00813349
0.0117152
0.0126194
0.0135146
0.0175455
0.0248566
0.0523922
0.0960141
0.122708
0.126512
0.146832
0.175707
0.173696
0.167687
0.15357
0.120286
0.0907101
0.0796022
0.0773168
0.0693681
0.0634846
0.0659723
0.0828516
0.0882831
0.0834358
0.0747713
0.0661015
0.0479165
0.0307677
0.0248307
0.0342819
0.0711132
0.0824228
0.0829385
0.0834138
0.0878653
0.106316
0.230543
0.446971
0.461686
0.23588
0.0752405
0.0402949
0.0349927
0.0340823
0.0328157
0.031244
0.0307583
0.0349646
0.0343323
0.0289107
0.028726
0.0279522
0.0250724
0.0230792
0.0224197
0.0226364
0.026991
0.0413939
0.0451901
0.042594
0.0374467
0.0366649
0.0369875
0.0399878
0.0468072
0.0567947
0.0610584
0.0668315
0.0656485
0.0621631
0.0476805
0.0420339
0.0373271
0.0346971
0.032966
0.0288113
0.0270718
0.0263175
0.0263188
0.0317581
0.0395728
0.049484
0.0491966
0.0508305
0.0501042
0.0488227
0.040177
0.0356356
0.0318625
0.0312733
0.0299296
0.0300682
0.0299491
0.0292427
0.0288765
0.0326003
0.0334672
0.0332761
0.0316163
0.0309382
0.0296768
0.0290964
0.028692
0.0267431
0.026559
0.0255647
0.0249432
0.0268645
0.0309568
0.0344825
0.0324372
0.0305532
0.0291964
0.0292393
0.029356
0.0301381
0.0272268
0.0204995
0.0183953
0.0164028
0.0149593
0.0147557
0.0158695
0.0187656
0.0210636
0.0247782
0.035492
0.0767701
0.107615
0.117481
0.118867
0.118064
0.114737
0.110398
0.108645
0.10485
0.0963564
0.0910781
0.0893266
0.0896011
0.0920508
0.0944281
0.0948992
0.0931221
0.0797106
0.0560481
0.0426501
0.041668
0.0485518
0.0803343
0.0746108
0.0717569
0.090804
0.0804662
0.110716
0.120336
0.145585
0.159424
0.182902
0.204432
0.530446
0.461832
0.41003
0.324696
0.288039
0.268634
0.216468
0.199363
0.180622
0.151761
0.141465
0.13365
0.114204
0.101608
0.0807133
0.0659611
0.0503887
0.0370867
0.0276414
0.0190854
0.0125677
0.00797865
0.00475581
0.00315068
0.00226789
0.00187745
0.00173372
0.0015375
0.00128
0.00115543
0.00116689
0.0012284
0.0014083
0.00181247
0.00312533
0.0038381
0.0056509
0.0091659
0.00948045
0.0099513
0.0133524
0.0142643
0.0154312
0.0197609
0.0265372
0.0525786
0.098792
0.118294
0.122752
0.150051
0.178402
0.173941
0.1657
0.147216
0.115296
0.0876544
0.0781639
0.076008
0.067993
0.0638275
0.0682314
0.084259
0.0876333
0.0826107
0.0748927
0.0681469
0.0505572
0.0326034
0.0245198
0.029324
0.0633689
0.0792909
0.0815843
0.0825191
0.086297
0.0985778
0.184044
0.431309
0.481442
0.278929
0.0832375
0.0413557
0.0360586
0.0349827
0.0328877
0.0312623
0.0305478
0.0340664
0.0367096
0.0294705
0.027218
0.0263263
0.0243903
0.0224647
0.0218501
0.0222175
0.02835
0.0435763
0.0464828
0.0427349
0.0372413
0.0361037
0.0363531
0.0397876
0.0462819
0.0574674
0.0613117
0.0671798
0.065684
0.0620094
0.0480509
0.0399977
0.0371313
0.0322597
0.0314938
0.0283234
0.0262869
0.0243879
0.0240536
0.0262324
0.0330224
0.0441357
0.0451121
0.0475692
0.048394
0.0488635
0.0447894
0.037681
0.0324166
0.0313548
0.0285719
0.0277507
0.0277952
0.027604
0.0267599
0.0280889
0.0293215
0.0290706
0.0284338
0.0284401
0.0281324
0.0279461
0.0279484
0.0263987
0.0258242
0.0249221
0.0245726
0.0268973
0.0302453
0.0339616
0.0325316
0.0300467
0.029036
0.029173
0.0299845
0.0314175
0.0285693
0.0214862
0.0187245
0.0169406
0.0157648
0.0157069
0.0177958
0.0216201
0.0246888
0.0299487
0.0521723
0.101942
0.123414
0.127217
0.126751
0.124397
0.116486
0.110314
0.107297
0.103146
0.0936176
0.0890659
0.0876429
0.0880971
0.0911557
0.0936517
0.0946577
0.0929309
0.0800103
0.0574557
0.0460617
0.0434059
0.0481962
0.0729333
0.106242
0.0799814
0.0903794
0.0901216
0.100849
0.113705
0.109999
0.1221
0.123496
0.163194
0.256387
0.211224
0.187907
0.138557
0.119359
0.107078
0.0798261
0.0706401
0.0614818
0.0496089
0.0455684
0.0429608
0.0374229
0.0323142
0.0253565
0.0204528
0.015205
0.0114346
0.00793504
0.00562893
0.00446986
0.00343573
0.00243078
0.00202151
0.00180794
0.00172437
0.00165047
0.00141881
0.00118585
0.00113918
0.00116913
0.00131537
0.00168178
0.0027235
0.00458312
0.00551755
0.00756347
0.0123331
0.012636
0.0128386
0.0153401
0.0158474
0.0168572
0.0212555
0.0281983
0.0504434
0.102119
0.11733
0.122115
0.154332
0.179654
0.174929
0.164544
0.14195
0.110475
0.0845092
0.0765401
0.0741551
0.0666321
0.0643573
0.071087
0.0850727
0.0872622
0.0818527
0.0751521
0.0698068
0.0535185
0.0343542
0.0245421
0.026074
0.0554683
0.0760046
0.0802095
0.0818264
0.0854071
0.094341
0.147424
0.400185
0.497313
0.325078
0.0932051
0.0426822
0.0370102
0.0361753
0.0334607
0.0315619
0.0308727
0.032734
0.0390148
0.0318975
0.0265476
0.0260024
0.0245145
0.0223864
0.0217014
0.0221732
0.0310471
0.0458331
0.0476548
0.0424051
0.0368578
0.0356323
0.0358519
0.0398267
0.0460622
0.0586335
0.061777
0.0672486
0.0654649
0.0617412
0.0490835
0.0391725
0.0370255
0.0315327
0.030879
0.0281779
0.0262594
0.023491
0.0227159
0.0232736
0.0267949
0.0383359
0.0404195
0.0427444
0.0455121
0.0480617
0.0466104
0.0403989
0.0341088
0.0318827
0.028252
0.0263434
0.0263377
0.0265492
0.0258854
0.0257223
0.0266763
0.0268326
0.0270989
0.0274549
0.0274622
0.0272683
0.0270918
0.0258761
0.0251415
0.0246759
0.0244407
0.0267789
0.0301478
0.0333122
0.0325706
0.0296696
0.0290238
0.0294652
0.0307069
0.0325404
0.0294948
0.0224573
0.0192894
0.0177221
0.0168915
0.0169264
0.0202094
0.0246553
0.0286752
0.0364838
0.0751612
0.114685
0.127209
0.129777
0.129852
0.129045
0.121281
0.111746
0.104883
0.0964221
0.0876546
0.0846789
0.0845327
0.085176
0.0895536
0.0929021
0.0937966
0.0929284
0.079179
0.0587663
0.0520162
0.0519719
0.0513959
0.0606823
0.10665
0.0894352
0.0910575
0.0933709
0.094035
0.0981562
0.0914845
0.098904
0.0966053
0.123955
0.0824015
0.0677149
0.0601913
0.0447814
0.0381666
0.0322093
0.0231903
0.0192163
0.0159335
0.0132833
0.0121986
0.0118075
0.0111199
0.00968979
0.00741128
0.00566605
0.00418427
0.00315968
0.00231065
0.00216918
0.00219802
0.00194702
0.00166897
0.00169116
0.00168101
0.00166446
0.0015506
0.001209
0.00110307
0.00113267
0.00125119
0.0016403
0.00245099
0.00488487
0.00751253
0.00898067
0.0113255
0.0168023
0.0174166
0.017559
0.0192227
0.0188803
0.019089
0.0223382
0.030455
0.0487768
0.10361
0.118824
0.123818
0.158077
0.179522
0.175109
0.162267
0.138027
0.106823
0.081633
0.0749453
0.0726842
0.0659169
0.0649517
0.0734162
0.0853651
0.0867147
0.0814413
0.0755894
0.0710794
0.0561931
0.0359455
0.0244157
0.0236583
0.0473054
0.0721206
0.0787996
0.0812065
0.0846599
0.0911622
0.122662
0.353826
0.510261
0.372438
0.105944
0.0443535
0.0378961
0.0376107
0.0344971
0.0320287
0.0315475
0.0319302
0.0392739
0.0364355
0.0266101
0.0258768
0.0249712
0.0225108
0.0217125
0.022567
0.0355223
0.0485052
0.0485254
0.0412823
0.0362987
0.0351476
0.0354101
0.0404194
0.0462588
0.0601141
0.0625264
0.0668985
0.0642724
0.0605709
0.0500638
0.0379452
0.0365251
0.0309673
0.0297934
0.0275978
0.0258228
0.0225424
0.021001
0.0209198
0.0222102
0.0316653
0.0355591
0.0377383
0.0415838
0.0459577
0.0456433
0.0419443
0.0356068
0.0325018
0.0286788
0.0259311
0.0254539
0.0259243
0.0254319
0.0249322
0.0256671
0.0261544
0.026697
0.0269655
0.0269953
0.026714
0.0265046
0.0256584
0.0248525
0.0247121
0.0245946
0.0269311
0.0307572
0.0325807
0.0322915
0.0295136
0.0292564
0.0306494
0.0312979
0.0332827
0.0299504
0.0232906
0.0197174
0.0183911
0.0179804
0.0181217
0.022931
0.0280318
0.0333325
0.0457818
0.0955025
0.12202
0.127967
0.129456
0.129683
0.129092
0.123343
0.1084
0.0962923
0.0854263
0.0793922
0.0786907
0.0794373
0.0810382
0.0869829
0.0921021
0.0930444
0.0928327
0.0781696
0.0592043
0.0545982
0.0601229
0.0557629
0.0622811
0.089052
0.0909456
0.0885034
0.0906398
0.0825007
0.0830287
0.0729283
0.0813352
0.0817319
0.0975108
0.0173796
0.0153304
0.013975
0.0106211
0.00863353
0.00688393
0.00504264
0.00405737
0.00364072
0.00355178
0.0035305
0.00351222
0.00325026
0.00275512
0.00201045
0.0015358
0.00120824
0.00113774
0.00126974
0.00156145
0.00154701
0.00135834
0.00146443
0.00161886
0.00162242
0.00154719
0.00122916
0.00105308
0.00107126
0.00120026
0.00158014
0.00267294
0.00452247
0.00981203
0.0128248
0.0150198
0.0189792
0.0230987
0.023284
0.0229333
0.0238477
0.0232532
0.0227023
0.0246086
0.0335046
0.0529739
0.102418
0.12304
0.128649
0.161315
0.178145
0.174853
0.159673
0.135008
0.103021
0.0788676
0.0739575
0.07198
0.0656432
0.0652453
0.0752087
0.0855196
0.086454
0.0813798
0.076541
0.0721903
0.0577293
0.037303
0.0244771
0.0220547
0.0395691
0.067726
0.0771428
0.0805674
0.0835034
0.087768
0.106955
0.30266
0.516649
0.418435
0.122897
0.0465031
0.0388093
0.0390246
0.0356078
0.0322311
0.0318547
0.0319205
0.0385212
0.0421466
0.0296197
0.0259125
0.0251349
0.0227305
0.0217918
0.0247081
0.0415569
0.0509517
0.0485382
0.0398726
0.0355844
0.0347586
0.0352637
0.0413044
0.0470863
0.0617188
0.0633452
0.0663954
0.0639317
0.0568991
0.0498941
0.0360004
0.0345656
0.0295033
0.0263238
0.0250659
0.0230208
0.0203021
0.0185975
0.0183109
0.0186876
0.0252176
0.0304985
0.0330704
0.0372937
0.0423223
0.0435402
0.0419577
0.0358869
0.0334967
0.0298246
0.0265018
0.0253024
0.0256343
0.0252507
0.0248602
0.0254689
0.0262564
0.0267017
0.0269003
0.0269371
0.0266247
0.0263986
0.0257243
0.0248456
0.0248366
0.0250583
0.0278345
0.0317944
0.0319811
0.0320706
0.0296762
0.0295644
0.0316999
0.0319607
0.0335491
0.0303963
0.0236094
0.0203916
0.0195532
0.019392
0.0198286
0.026478
0.0318774
0.0392618
0.0601867
0.111294
0.127612
0.129237
0.129528
0.129268
0.127606
0.120722
0.102116
0.0851685
0.0737972
0.0708931
0.0712892
0.0732141
0.0770124
0.0846022
0.0903983
0.0913044
0.0917946
0.077747
0.0592272
0.0543892
0.060447
0.0859499
0.0725753
0.0826832
0.0880114
0.085914
0.0863108
0.0760035
0.0706828
0.0627312
0.0680576
0.0727406
0.0826281
0.00277492
0.00257548
0.00234168
0.00181923
0.00142944
0.00125489
0.00122371
0.00125907
0.00134104
0.00138958
0.0013695
0.00116778
0.000975571
0.000830249
0.000687357
0.000666832
0.000705065
0.000841162
0.00136954
0.0014263
0.00115905
0.00116849
0.00145564
0.00157412
0.00151647
0.00122979
0.00100101
0.00100826
0.00111479
0.00154656
0.00262083
0.00542237
0.00985523
0.019237
0.0226769
0.0264002
0.0299845
0.0316234
0.0314285
0.0295828
0.0292507
0.0284159
0.0261472
0.0272611
0.037061
0.0624512
0.101435
0.121178
0.133732
0.168922
0.176871
0.173713
0.156274
0.132489
0.0992535
0.0766102
0.0736406
0.0718593
0.0655245
0.0653405
0.0761747
0.0858802
0.0864626
0.0817154
0.0777173
0.0733389
0.0585417
0.0382689
0.0243872
0.0210174
0.0328107
0.0623204
0.0748087
0.0793632
0.081841
0.0845189
0.0958615
0.249958
0.515687
0.460345
0.146853
0.049204
0.0396946
0.0403296
0.0365104
0.0322246
0.0317876
0.0320147
0.0364146
0.043843
0.037865
0.0280981
0.0258011
0.0232673
0.0226381
0.0317859
0.0481345
0.0527177
0.0466803
0.0382663
0.0348201
0.0345151
0.0353509
0.0420787
0.0484809
0.0633501
0.0644228
0.0663977
0.0640095
0.0522519
0.0474215
0.0341759
0.0305106
0.0268497
0.022432
0.0206993
0.0183217
0.0174129
0.016251
0.0159566
0.0160685
0.0196302
0.025613
0.0289643
0.0331469
0.0381786
0.040508
0.0403821
0.0359325