/*--------------------------------*- C++ -*----------------------------------*\
| =========                 |                                                 |
| \\      /  F ield         | OpenFOAM: The Open Source CFD Toolbox           |
|  \\    /   O peration     | Version:  2.4.0                                 |
|   \\  /    A nd           | Web:      www.OpenFOAM.org                      |
|    \\/     M anipulation  |                                                 |
\*---------------------------------------------------------------------------*/
FoamFile
{
    version     2.0;
    format      ascii;
    class       volScalarField;
    location    "0.08";
    object      epsilon;
}
// * * * * * * * * * * * * * * * * * * * * * * * * * * * * * * * * * * * * * //

dimensions      [0 2 -3 0 0 0 0];

internalField   nonuniform List<scalar> 
17600
(
290.779
447.673
583.297
681.436
740.84
768.079
772.004
760.736
740.583
715.995
689.91
664.171
639.873
617.619
597.695
580.183
565.027
552.084
540.984
533.367
39.5489
60.6407
78.3965
92.3357
102.281
108.918
113.256
116.234
118.59
120.844
123.336
126.262
129.711
133.688
138.133
142.937
147.958
153.048
158.251
164.281
18.0559
21.7883
25.1119
27.7892
29.7361
31.0342
31.8556
32.3923
32.819
33.2793
33.8838
34.7143
35.829
37.2668
39.0501
41.1867
43.6705
46.4876
49.6805
53.6024
14.7345
15.1157
15.6206
16.0697
16.3751
16.5162
16.5138
16.4077
16.2435
16.0646
15.9097
15.8114
15.7964
15.887
16.1013
16.4547
16.9606
17.6331
18.5067
19.6783
14.0476
13.5192
13.1673
12.9029
12.6639
12.4158
12.1455
11.8534
11.5469
11.2367
10.9344
10.6512
10.397
10.1805
10.0092
9.88981
9.82837
9.83157
9.9119
10.0895
13.8917
13.0886
12.4266
11.871
11.3882
10.9523
10.546
10.1595
9.78829
9.43134
9.08962
8.76519
8.46053
8.17817
7.92053
7.68981
7.48811
7.31771
7.18247
7.08628
13.8556
12.9703
12.1959
11.5177
10.9188
10.383
9.89682
9.44995
9.03502
8.64707
8.28297
7.94085
7.61968
7.31898
7.0386
6.77857
6.53906
6.32041
6.12352
5.94898
13.8471
12.9381
12.1251
11.3979
10.7463
10.1596
9.62813
9.14338
8.6983
8.28727
7.90588
7.55078
7.2194
6.90981
6.62051
6.35038
6.09854
5.86435
5.64749
5.4477
13.845
12.9294
12.1037
11.3584
10.6846
10.074
9.519
9.01257
8.54858
8.12176
7.72764
7.36246
7.02315
6.70716
6.41238
6.13707
5.87981
5.6394
5.41495
5.2059
13.8445
12.9269
12.0973
11.3456
10.6631
10.0423
9.47608
8.95842
8.4838
8.04736
7.64487
7.27263
6.92747
6.60667
6.30789
6.02913
5.76868
5.52507
5.29711
5.0841
13.8443
12.9262
12.0953
11.3414
10.6557
10.0307
9.45967
8.93671
8.45667
8.01497
7.60758
7.23094
6.88193
6.55782
6.25622
5.97505
5.71247
5.46691
5.23701
5.02204
13.8443
12.9259
12.0946
11.3399
10.6531
10.0265
9.45346
8.92818
8.4456
8.00128
7.5913
7.21219
6.8609
6.53475
6.23134
5.94859
5.68463
5.43783
5.20678
4.99072
13.8442
12.9257
12.0942
11.3393
10.6521
10.0249
9.45103
8.92479
8.4411
7.99557
7.58433
7.20396
6.85145
6.52416
6.2197
5.93601
5.67121
5.42367
5.19194
4.97526
13.8442
12.9256
12.094
11.3389
10.6515
10.0241
9.44996
8.92333
8.43919
7.99314
7.58132
7.20036
6.84726
6.51938
6.21438
5.93017
5.66492
5.41696
5.18486
4.96785
13.8441
12.9255
12.0938
11.3387
10.6512
10.0237
9.4494
8.92262
8.43828
7.99201
7.57996
7.19873
6.84536
6.51721
6.21195
5.92749
5.66201
5.41385
5.18157
4.9644
13.8441
12.9254
12.0937
11.3385
10.651
10.0234
9.44905
8.9222
8.43778
7.99142
7.57926
7.19793
6.84444
6.51617
6.2108
5.92624
5.66066
5.4124
5.18004
4.9628
13.8441
12.9254
12.0936
11.3384
10.6508
10.0232
9.44881
8.92191
8.43746
7.99106
7.57886
7.19748
6.84395
6.51563
6.21021
5.92561
5.65999
5.41171
5.17932
4.96206
13.8441
12.9253
12.0935
11.3383
10.6507
10.023
9.44863
8.92172
8.43725
7.99083
7.57861
7.19721
6.84366
6.51533
6.20989
5.92527
5.65965
5.41136
5.17896
4.96169
13.8441
12.9253
12.0935
11.3382
10.6506
10.0229
9.44852
8.9216
8.43711
7.99068
7.57845
7.19704
6.84349
6.51515
6.20971
5.92509
5.65946
5.41117
5.17878
4.9615
13.8441
12.9253
12.0934
11.3382
10.6506
10.0229
9.44847
8.92154
8.43705
7.99061
7.57838
7.19697
6.8434
6.51507
6.20962
5.925
5.65938
5.41109
5.17869
4.96142
13.8441
12.9253
12.0934
11.3382
10.6506
10.0229
9.44847
8.92154
8.43705
7.99061
7.57838
7.19697
6.8434
6.51507
6.20962
5.925
5.65938
5.41109
5.17869
4.9614
13.8441
12.9253
12.0935
11.3382
10.6506
10.0229
9.44852
8.9216
8.43711
7.99068
7.57845
7.19704
6.84349
6.51515
6.20971
5.92509
5.65946
5.41117
5.17876
4.96146
13.8441
12.9253
12.0935
11.3383
10.6507
10.023
9.44863
8.92172
8.43725
7.99083
7.57861
7.19721
6.84366
6.51533
6.20989
5.92527
5.65964
5.41135
5.17893
4.96161
13.8441
12.9254
12.0936
11.3384
10.6508
10.0232
9.44881
8.92191
8.43746
7.99106
7.57886
7.19748
6.84395
6.51563
6.21021
5.92561
5.65999
5.4117
5.17928
4.96195
13.8441
12.9254
12.0937
11.3385
10.651
10.0234
9.44905
8.9222
8.43778
7.99142
7.57926
7.19793
6.84444
6.51617
6.2108
5.92624
5.66065
5.41239
5.17999
4.96266
13.8441
12.9255
12.0938
11.3387
10.6512
10.0237
9.4494
8.92262
8.43828
7.99201
7.57996
7.19873
6.84536
6.51721
6.21195
5.9275
5.66201
5.41383
5.1815
4.96423
13.8442
12.9256
12.094
11.3389
10.6515
10.0241
9.44996
8.92333
8.43919
7.99314
7.58132
7.20036
6.84726
6.51938
6.21438
5.93018
5.66492
5.41694
5.18479
4.96766
13.8442
12.9257
12.0942
11.3393
10.6521
10.0249
9.45103
8.92479
8.4411
7.99557
7.58433
7.20396
6.85145
6.52416
6.2197
5.93601
5.67121
5.42364
5.19185
4.97504
13.8443
12.9259
12.0946
11.3399
10.6531
10.0265
9.45346
8.92818
8.4456
8.00128
7.5913
7.21219
6.8609
6.53475
6.23134
5.94858
5.68462
5.4378
5.20667
4.99044
13.8443
12.9262
12.0953
11.3414
10.6557
10.0307
9.45967
8.93671
8.45667
8.01497
7.60758
7.23094
6.88193
6.55782
6.25622
5.97504
5.71246
5.46686
5.23685
5.02164
13.8445
12.9269
12.0973
11.3456
10.6631
10.0423
9.47608
8.95842
8.4838
8.04736
7.64487
7.27263
6.92747
6.60667
6.30789
6.02912
5.76865
5.52498
5.29682
5.08342
13.845
12.9294
12.1037
11.3584
10.6846
10.074
9.519
9.01257
8.54858
8.12176
7.72764
7.36246
7.02315
6.70715
6.41237
6.13705
5.87974
5.63922
5.41437
5.2045
13.8471
12.9381
12.1251
11.3979
10.7463
10.1596
9.62813
9.14338
8.6983
8.28727
7.90588
7.55078
7.2194
6.9098
6.62049
6.35033
6.09841
5.86396
5.64622
5.4444
13.8556
12.9703
12.1959
11.5177
10.9188
10.383
9.89683
9.44995
9.03502
8.64707
8.28297
7.94085
7.61967
7.31897
7.03856
6.77847
6.53878
6.31954
6.12052
5.94028
13.8917
13.0886
12.4266
11.871
11.3882
10.9523
10.546
10.1595
9.78829
9.43134
9.08962
8.76519
8.46051
8.17813
7.92044
7.68959
7.4875
7.31566
7.17465
7.06055
14.0476
13.5192
13.1673
12.9029
12.6639
12.4158
12.1455
11.8534
11.5469
11.2367
10.9344
10.6512
10.397
10.1804
10.009
9.88931
9.82688
9.82626
9.88941
10.0037
14.7345
15.1157
15.6206
16.0697
16.3751
16.5162
16.5138
16.4078
16.2435
16.0646
15.9097
15.8113
15.7963
15.8868
16.1008
16.4534
16.9567
17.6189
18.4399
19.378
18.0559
21.7883
25.1119
27.7892
29.7361
31.0342
31.8556
32.3923
32.819
33.2793
33.8838
34.7142
35.8288
37.2663
39.049
41.1839
43.6623
46.4571
49.5155
52.723
39.5489
60.6407
78.3965
92.3358
102.281
108.918
113.256
116.234
118.59
120.844
123.336
126.262
129.711
133.687
138.131
142.934
147.951
153.018
157.96
162.656
290.779
447.673
583.297
681.436
740.84
768.079
772.004
760.736
740.584
715.995
689.911
664.172
639.875
617.623
597.702
580.196
565.055
552.145
541.318
532.068
670.511
778.882
849.139
891.356
910.295
910.313
896.697
874.311
847.036
817.781
788.489
760.291
733.724
708.949
685.945
664.609
644.798
626.367
609.185
593.135
578.117
564.049
550.853
538.46
526.806
515.83
505.481
495.714
486.486
477.76
469.499
461.669
454.239
447.179
440.461
434.057
427.943
422.096
416.494
411.116
405.943
400.957
396.142
391.484
386.966
382.577
378.304
374.135
370.06
366.069
362.152
358.302
354.511
350.771
347.076
343.422
339.802
336.212
332.649
329.109
325.588
322.086
318.598
315.124
311.662
308.21
304.768
301.334
297.908
294.488
291.075
287.666
284.262
280.861
277.464
274.068
270.674
267.28
263.886
260.491
257.094
253.694
250.291
246.884
243.471
240.054
236.631
233.201
229.766
226.325
222.878
219.425
215.968
212.507
209.042
205.575
202.108
198.641
195.176
191.716
188.261
184.815
181.379
177.956
174.549
171.158
167.789
164.442
161.121
157.828
154.566
151.339
148.148
144.996
141.887
138.823
135.807
132.842
129.929
127.073
124.275
121.538
118.864
116.256
113.717
111.249
108.853
106.533
104.29
102.127
100.046
98.048
96.1357
94.3107
92.5748
90.93
89.3782
87.9214
86.5618
85.3021
84.145
83.0939
82.1523
81.3241
80.613
80.0224
79.5549
79.2118
78.9929
78.8961
78.9171
79.0496
79.2857
79.6157
80.0289
80.514
81.0596
81.6545
82.2882
82.9514
83.636
84.3353
85.0443
85.7595
86.4796
87.2049
87.9354
88.6733
89.4221
90.187
90.9748
91.794
92.6552
93.5707
94.5555
95.6272
96.8069
98.1198
99.597
101.276
103.206
105.447
108.079
111.207
114.974
119.572
125.27
132.439
141.597
153.467
169.06
189.797
217.716
255.858
309.101
386.283
506.476
723.451
1243.63
2823.7
173.051
189.44
213.084
243.498
279.235
318.384
358.646
397.658
433.279
463.874
488.487
506.856
519.31
526.581
529.602
529.334
526.642
522.231
516.638
510.249
503.337
496.095
488.662
481.145
473.628
466.173
458.83
451.635
444.615
437.785
431.156
424.731
418.512
412.494
406.674
401.046
395.603
390.335
385.235
380.294
375.501
370.848
366.327
361.927
357.641
353.461
349.379
345.387
341.48
337.649
333.89
330.196
326.562
322.983
319.454
315.973
312.534
309.135
305.772
302.443
299.146
295.878
292.637
289.421
286.229
283.059
279.91
276.78
273.669
270.574
267.495
264.429
261.376
258.334
255.302
252.278
249.26
246.247
243.238
240.23
237.222
234.213
231.2
228.184
225.162
222.133
219.096
216.051
212.997
209.933
206.859
203.775
200.681
197.578
194.466
191.346
188.22
185.088
181.951
178.813
175.674
172.536
169.402
166.274
163.155
160.046
156.951
153.873
150.813
147.776
144.763
141.778
138.824
135.903
133.019
130.174
127.371
124.614
121.904
119.246
116.641
114.092
111.602
109.174
106.81
104.514
102.286
100.131
98.0505
96.0466
94.1218
92.2784
90.5185
88.8442
87.2576
85.7604
84.3545
83.0417
81.8238
80.7027
79.6806
78.7597
77.9426
77.2322
76.6315
76.1437
75.7714
75.5165
75.3798
75.3606
75.4562
75.6622
75.972
76.3773
76.8688
77.4357
78.0671
78.7519
79.4797
80.2406
81.0261
81.8291
82.6438
83.4663
84.2951
85.1296
85.9699
86.8173
87.6751
88.5481
89.443
90.3683
91.3344
92.3539
93.4417
94.6158
95.8976
97.3127
98.8925
100.676
102.711
105.061
107.805
111.051
114.942
119.677
125.527
132.873
142.25
154.408
170.401
191.724
220.532
260.054
315.464
396.121
521.645
745.27
1222.15
2366.81
54.8832
56.6557
59.2017
62.8606
68.246
75.7195
85.6014
98.0957
113.298
131.111
151.22
173.093
196.022
219.192
241.773
263.01
282.298
299.233
313.62
325.454
334.877
342.13
347.497
351.27
353.721
355.083
355.553
355.292
354.43
353.076
351.319
349.235
346.89
344.338
341.624
338.788
335.859
332.863
329.82
326.745
323.651
320.55
317.448
314.353
311.27
308.203
305.155
302.129
299.124
296.144
293.188
290.256
287.35
284.468
281.61
278.776
275.967
273.18
270.417
267.676
264.957
262.26
259.584
256.928
254.292
251.675
249.076
246.495
243.93
241.38
238.844
236.321
233.809
231.306
228.812
226.324
223.84
221.358
218.877
216.394
213.907
211.415
208.915
206.406
203.887
201.354
198.808
196.247
193.67
191.076
188.464
185.834
183.187
180.522
177.84
175.142
172.428
169.699
166.958
164.205
161.442
158.673
155.897
153.119
150.341
147.565
144.793
142.03
139.277
136.538
133.816
131.113
128.433
125.779
123.154
120.561
118.003
115.484
113.006
110.572
108.185
105.848
103.565
101.337
99.169
97.0623
95.0201
93.0452
91.1405
89.3085
87.552
85.8736
84.2757
82.7609
81.3314
79.9895
78.7372
77.5765
76.509
75.5365
74.6604
73.8825
73.2043
72.6278
72.1549
71.7878
71.5288
71.3796
71.3415
71.4147
71.5978
71.8879
72.28
72.7676
73.3423
73.9948
74.7148
75.4916
76.3149
77.1747
78.0621
78.9696
79.8909
80.8212
81.7596
82.7046
83.6555
84.6134
85.5811
86.5632
87.566
88.5979
89.6692
90.7925
91.9828
93.2583
94.6404
96.1553
97.8346
99.7175
101.853
104.304
107.151
110.503
114.504
119.353
125.327
132.812
142.351
154.713
170.981
192.7
222.096
262.499
319.2
401.603
528.526
747.159
1164.13
1978.38
20.0157
20.3696
20.7612
21.2231
21.8187
22.6195
23.7169
25.2474
27.3356
30.1186
33.755
38.4096
44.2385
51.3707
59.8872
69.8008
81.0412
93.4483
106.777
120.714
134.901
148.972
162.582
175.433
187.302
198.042
207.582
215.918
223.097
229.197
234.317
238.561
242.029
244.813
246.996
248.652
249.844
250.63
251.059
251.176
251.021
250.628
250.029
249.251
248.318
247.251
246.067
244.782
243.411
241.965
240.454
238.888
237.276
235.624
233.938
232.225
230.49
228.735
226.967
225.187
223.398
221.604
219.806
218.006
216.205
214.405
212.606
210.809
209.014
207.221
205.429
203.639
201.849
200.057
198.264
196.467
194.664
192.855
191.036
189.207
187.364
185.507
183.633
181.74
179.827
177.891
175.932
173.947
171.935
169.897
167.83
165.735
163.612
161.459
159.279
157.071
154.836
152.575
150.291
147.984
145.656
143.31
140.947
138.571
136.184
133.788
131.387
128.983
126.579
124.18
121.787
119.405
117.036
114.684
112.351
110.042
107.76
105.507
103.288
101.105
98.9609
96.8599
94.8047
92.7985
90.8444
88.9454
87.1047
85.3252
83.6101
81.9623
80.385
78.881
77.4533
76.105
74.8387
73.6572
72.5631
71.5587
70.6462
69.8273
69.1037
68.4767
67.9473
67.5167
67.1858
66.9556
66.8274
66.8023
66.8811
67.0643
67.3512
67.7399
68.227
68.8073
69.474
70.2189
71.0327
71.9055
72.8272
73.788
74.7789
75.792
76.8207
77.8595
78.9079
79.9637
81.0256
82.0942
83.172
84.2631
85.3736
86.5116
87.6873
88.9132
90.2045
91.5792
93.059
94.6702
96.4446
98.4217
100.651
103.194
106.134
109.578
113.672
118.613
124.68
132.261
141.902
154.38
170.793
192.706
222.371
263.134
320.227
402.685
527.59
733.654
1091.7
1660.9
10.1412
10.1934
10.2464
10.3025
10.368
10.4506
10.5604
10.711
10.9192
11.2124
11.6161
12.1633
12.8948
13.8599
15.1171
16.7341
18.7862
21.354
24.5179
28.3515
32.9131
38.2369
44.325
51.142
58.6126
66.6246
75.0347
83.6794
92.387
100.99
109.339
117.305
124.794
131.739
138.104
143.877
149.068
153.699
157.8
161.41
164.565
167.304
169.663
171.677
173.376
174.79
175.948
176.873
177.59
178.118
178.478
178.687
178.761
178.714
178.559
178.308
177.971
177.558
177.078
176.538
175.944
175.304
174.622
173.902
173.15
172.369
171.561
170.73
169.877
169.003
168.11
167.198
166.268
165.32
164.353
163.366
162.359
161.33
160.277
159.201
158.098
156.967
155.806
154.613
153.387
152.127
150.83
149.495
148.121
146.707
145.252
143.756
142.219
140.641
139.021
137.361
135.661
133.924
132.149
130.339
128.496
126.622
124.719
122.79
120.837
118.865
116.875
114.87
112.855
110.832
108.805
106.777
104.752
102.733
100.724
98.7275
96.7483
94.7892
92.8539
90.9456
89.0679
87.224
85.4174
83.6514
81.9294
80.2546
78.6303
77.0599
75.5466
74.0938
72.7049
71.3833
70.1322
68.9552
67.8555
66.8366
65.9016
65.0536
64.2954
63.6294
63.0579
62.5824
62.204
61.9236
61.7414
61.6575
61.6721
61.7849
61.9961
62.3053
62.7119
63.2143
63.81
64.4949
65.2637
66.1092
67.0235
67.9974
69.0214
70.0862
71.1828
72.303
73.44
74.588
75.7469
76.9136
78.0867
79.2661
80.4538
81.6535
82.8711
84.1144
85.3934
86.7205
88.1107
89.5822
91.1566
92.8602
94.7251
96.7905
99.1058
101.734
104.755
108.277
112.445
117.456
123.585
131.219
140.902
153.407
169.833
191.738
221.356
261.969
318.597
399.596
519.787
708.988
1012.32
1413.67
7.05805
7.03085
7.00428
6.97837
6.95381
6.9316
6.91293
6.89939
6.89308
6.89716
6.91618
6.95473
7.01861
7.11506
7.25304
7.4436
7.70024
8.03937
8.48068
9.04756
9.76736
10.6715
11.7949
13.1756
14.8527
16.8641
19.2437
22.0174
25.1999
28.7919
32.7775
37.1239
41.7824
46.6906
51.7766
56.9629
62.172
67.3301
72.3713
77.2398
81.8918
86.2952
90.4293
94.2832
97.8543
101.146
104.168
106.93
109.447
111.734
113.805
115.675
117.359
118.872
120.227
121.436
122.512
123.466
124.309
125.05
125.698
126.261
126.748
127.163
127.515
127.807
128.046
128.233
128.374
128.472
128.527
128.543
128.521
128.462
128.366
128.233
128.064
127.857
127.613
127.329
127.004
126.638
126.229
125.775
125.275
124.727
124.13
123.482
122.783
122.031
121.225
120.366
119.452
118.484
117.463
116.387
115.259
114.08
112.851
111.574
110.25
108.882
107.473
106.024
104.54
103.022
101.475
99.9005
98.303
96.6859
95.0526
93.4068
91.7522
90.0924
88.4312
86.7723
85.1193
83.476
81.846
80.2329
78.6403
77.0719
75.5311
74.0215
72.5465
71.1098
69.7147
68.3649
67.0637
65.8149
64.622
63.4886
62.4186
61.4158
60.484
59.6271
58.8491
58.1538
57.5449
57.0258
56.5997
56.269
56.0356
55.9008
55.8649
55.9276
56.0883
56.3456
56.6984
57.145
57.6839
58.3133
59.0305
59.8321
60.7136
61.669
62.6914
63.7725
64.9038
66.0762
67.281
68.5103
69.7569
71.0149
72.2846
73.5626
74.8468
76.1368
77.434
78.7418
80.0657
81.4132
82.7941
84.2205
85.7074
87.2728
88.9384
90.7302
92.6803
94.8279
97.2219
99.9245
103.016
106.603
110.827
115.884
122.045
129.689
139.354
151.801
168.111
189.814
219.084
259.07
314.467
392.741
506.26
676.7
930.707
1219.7
5.89731
5.84708
5.7978
5.74943
5.70204
5.6558
5.61088
5.56749
5.52592
5.48657
5.45034
5.41796
5.39036
5.36872
5.35451
5.34955
5.35611
5.37693
5.41533
5.4753
5.56165
5.68008
5.83736
6.04147
6.30175
6.62903
7.03568
7.53565
8.14432
8.87824
9.75467
10.7908
12.003
13.4052
15.0081
16.818
18.8352
21.0539
23.4618
26.0405
28.7658
31.6096
34.541
37.5278
40.5382
43.5423
46.5128
49.4261
52.2628
55.0074
57.6485
60.1784
62.5924
64.8889
67.0681
69.132
71.084
72.9283
74.6697
76.3132
77.8643
79.3281
80.7098
82.0144
83.2467
84.4109
85.5111
86.5511
87.5339
88.4625
89.3393
90.1662
90.9448
91.6762
92.3612
93.0001
93.593
94.1395
94.639
95.0905
95.4931
95.8455
96.1461
96.3935
96.586
96.7222
96.8004
96.8193
96.7773
96.6734
96.5066
96.276
95.9812
95.6219
95.1981
94.7101
94.1586
93.5445
92.869
92.1338
91.3405
90.4912
89.5884
88.6346
87.6326
86.5854
85.4962
84.3683
83.2052
82.0104
80.7876
79.5405
78.273
76.9887
75.6917
74.3856
73.0743
71.7618
70.4516
69.1478
67.8539
66.5737
65.311
64.0693
62.8523
61.6636
60.5069
59.3858
58.3039
57.2651
56.2731
55.3317
54.445
53.6171
52.8522
52.1547
51.529
50.9799
50.5118
50.1292
49.8365
49.6376
49.5355
49.5328
49.6308
49.8299
50.1293
50.5272
51.0212
51.6085
52.2861
53.0508
53.8993
54.8277
55.8317
56.906
58.0442
59.2392
60.4829
61.7671
63.0833
64.4237
65.7813
67.1501
68.5313
69.9208
71.3161
72.7163
74.1225
75.5376
76.9667
78.4169
79.8979
81.4216
83.0026
84.6588
86.4117
88.2873
90.3172
92.5404
95.0053
97.7733
100.924
104.56
108.824
113.904
120.065
127.679
137.269
149.577
165.651
186.971
215.618
254.554
308.065
382.633
488.204
639.631
850.565
1063.81
5.38835
5.33061
5.27393
5.21826
5.16363
5.11004
5.05752
5.00608
4.95578
4.90665
4.85889
4.81263
4.76801
4.72524
4.68458
4.64636
4.61102
4.57909
4.5512
4.52816
4.51091
4.50058
4.49851
4.50628
4.52571
4.55895
4.60848
4.67712
4.76816
4.88531
5.03279
5.21535
5.43828
5.70739
6.02895
6.40965
6.8564
7.37619
7.9758
8.66152
9.43883
10.312
11.2838
12.3553
13.5254
14.7911
16.1474
17.5873
19.1022
20.6826
22.3177
23.9966
25.7083
27.442
29.1878
30.9364
32.6798
34.411
36.124
37.8141
39.4775
41.1114
42.7136
44.2828
45.8179
47.3187
48.7848
50.2161
51.6129
52.975
54.3027
55.5957
56.8539
58.0768
59.2639
60.4144
61.5271
62.601
63.6344
64.6259
65.5734
66.4751
67.3289
68.1324
68.8836
69.5802
70.2199
70.8006
71.3202
71.777
72.169
72.495
72.7537
72.9442
73.0657
73.118
73.1011
73.0154
72.8614
72.6403
72.3532
72.002
71.5885
71.1149
70.5837
69.9977
69.3597
68.6729
67.9405
67.1661
66.3531
65.5053
64.6262
63.7199
62.7899
61.8403
60.8749
59.8976
58.9121
57.9223
56.9321
55.9451
54.9653
53.9961
53.0415
52.105
51.1903
50.3012
49.4413
48.6144
47.8245
47.0753
46.371
45.7159
45.1144
44.5712
44.091
43.6791
43.3408
43.0814
42.9064
42.8212
42.8306
42.9389
43.1492
43.4636
43.8823
44.4043
45.0271
45.7468
46.5591
47.4591
48.4419
49.5023
50.6353
51.8353
53.096
54.4107
55.7719
57.1719
58.6026
60.0564
61.5262
63.0067
64.4997
66.0008
67.507
69.0169
70.5312
72.0525
73.5854
75.1368
76.7159
78.3343
80.0066
81.7502
83.5864
85.5409
87.645
89.9371
92.4648
95.2886
98.486
102.159
106.443
111.524
117.657
125.202
134.664
146.757
162.487
183.262
211.045
248.571
299.673
369.829
466.764
599.964
774.368
935.694
5.1437
5.08322
5.02383
4.96551
4.90825
4.85202
4.79684
4.74267
4.68953
4.6374
4.58634
4.53634
4.48741
4.43959
4.39291
4.34741
4.30318
4.26031
4.21894
4.17921
4.14134
4.10556
4.07218
4.04155
4.01408
3.99028
3.9707
3.956
3.94692
3.94431
3.94913
3.96246
3.98548
4.01955
4.06614
4.12688
4.20357
4.29815
4.41274
4.54961
4.71117
4.89994
5.11857
5.36972
5.65607
5.98026
6.34479
6.75198
7.20389
7.70225
8.24839
8.84323
9.48718
10.1802
10.9217
11.7106
12.5455
13.4246
14.3456
15.3062
16.3036
17.3353
18.3983
19.4898
20.6069
21.747
22.9072
24.0849
25.2775
26.4824
27.6971
28.919
30.1456
31.3743
32.6025
33.8273
35.0461
36.2557
37.4531
38.6352
39.7985
40.9398
42.0553
43.1416
44.195
45.212
46.1889
47.1222
48.0086
48.8448
49.6277
50.3545
51.0228
51.6302
52.1748
52.6551
53.0698
53.4181
53.6995
53.9141
54.062
54.1441
54.1612
54.1149
54.0069
53.839
53.6138
53.3335
53.0012
52.6197
52.1921
51.7218
51.2121
50.6667
50.089
49.4827
48.8515
48.1992
47.5294
46.8459
46.1524
45.4525
44.7501
44.0486
43.3519
42.6634
41.9868
41.3258
40.6841
40.0652
39.4731
38.9115
38.3845
37.8964
37.4515
37.0546
36.7105
36.4248
36.203
36.0512
35.9758
35.9833
36.0802
36.2727
36.5664
36.9656
37.4732
38.09
38.8149
39.6444
40.5736
41.5963
42.7057
43.8947
45.1564
46.4838
47.8701
49.308
50.7902
52.3089
53.8565
55.4252
57.008
58.6009
60.206
61.8184
63.4349
65.0537
66.6751
68.3011
69.9361
71.5866
73.2614
74.9719
76.7321
78.5594
80.4746
82.5031
84.6754
87.0295
89.612
92.482
95.715
99.4098
103.698
108.758
114.837
122.277
131.563
143.373
158.661
178.752
205.469
241.296
289.597
354.892
442.973
559.319
703.418
828.355
5.02068
4.95907
4.89857
4.83916
4.78084
4.72356
4.66733
4.61211
4.55787
4.50465
4.45241
4.40115
4.35084
4.30148
4.25305
4.20556
4.159
4.11337
4.0687
4.02501
3.98232
3.94068
3.90016
3.86082
3.82277
3.78611
3.75098
3.71754
3.68598
3.65651
3.62938
3.60486
3.58327
3.56495
3.55029
3.5397
3.53366
3.53266
3.53725
3.54801
3.56559
3.59066
3.62396
3.66624
3.71835
3.78116
3.85559
3.94263
4.04329
4.15867
4.28988
4.43809
4.60451
4.79038
4.99695
5.22553
5.47741
5.75389
6.05627
6.38584
6.74384
7.13148
7.54989
8.00015
8.48323
8.99999
9.55114
10.1372
10.7587
11.4156
12.1079
12.8353
13.5971
14.3925
15.2201
16.0784
16.9655
17.879
18.8163
19.7744
20.7499
21.7393
22.7386
23.7436
24.7499
25.7531
26.7484
27.7312
28.6966
29.6401
30.557
31.4429
32.2936
33.1051
33.8737
34.5961
35.2694
35.8909
36.4585
36.9704
37.4254
37.8226
38.1616
38.4423
38.6651
38.8307
38.9404
38.9955
38.9979
38.9495
38.8526
38.7099
38.5239
38.2976
38.034
37.7362
37.4074
37.0509
36.6702
36.2685
35.8493
35.416
34.972
34.5208
34.0657
33.6102
33.1577
32.7116
32.2755
31.8527
31.447
31.0618
30.7011
30.3689
30.0693
29.8067
29.5862
29.4128
29.2924
29.231
29.2356
29.3133
29.4718
29.7191
30.0629
30.5103
31.0674
31.7385
32.5251
33.4264
34.4385
35.5552
36.7685
38.0693
39.4483
40.8962
42.4042
43.9637
45.5665
47.2044
48.8691
50.5528
52.2478
53.9531
55.67
57.3931
59.1188
60.8451
62.5717
64.3006
66.0355
67.7827
69.5505
71.3499
73.1946
75.1016
77.0912
79.1883
81.4229
83.832
86.4611
89.3677
92.6251
96.3285
100.605
105.624
111.623
118.926
127.991
139.46
154.225
173.517
199.005
232.916
278.151
338.357
417.717
518.86
638.167
736.968
4.95802
4.89586
4.83483
4.77493
4.71612
4.65838
4.60168
4.54601
4.49133
4.43765
4.38494
4.33317
4.28234
4.23242
4.18339
4.13523
4.08794
4.04149
3.99587
3.95108
3.9071
3.86395
3.82161
3.78009
3.73941
3.69958
3.66063
3.6226
3.58551
3.54943
3.5144
3.48051
3.44783
3.41645
3.38648
3.35804
3.33126
3.30627
3.28324
3.26234
3.24374
3.22764
3.21426
3.20382
3.19654
3.1927
3.19255
3.19638
3.2045
3.21723
3.2349
3.25791
3.28664
3.32152
3.36302
3.41164
3.46793
3.5325
3.60599
3.68911
3.78265
3.88745
4.00443
4.13459
4.27902
4.43887
4.6154
4.80991
5.02381
5.25853
5.51557
5.79644
6.10263
6.43561
6.79678
7.18739
7.60854
8.0611
8.54568
9.06255
9.6116
10.1923
10.8037
11.4442
12.1121
12.8047
13.5191
14.2521
14.9998
15.7581
16.5227
17.289
18.0523
18.8079
19.5511
20.2774
20.9823
21.6617
22.3119
22.9292
23.5107
24.0535
24.5555
25.0148
25.4301
25.8003
26.1249
26.4039
26.6375
26.8263
26.9713
27.0737
27.1352
27.1576
27.1428
27.0931
27.0109
26.8987
26.7592
26.595
26.4091
26.2043
25.9834
25.7496
25.5057
25.2547
24.9997
24.7438
24.4901
24.2416
24.0016
23.7733
23.5603
23.3661
23.1944
23.0494
22.9355
22.8574
22.8205
22.8307
22.8946
23.0197
23.2139
23.4863
23.846
24.3028
24.8658
25.5431
26.3408
27.2621
28.3067
29.4708
30.7469
32.1252
33.5942
35.142
36.7568
38.4275
40.1437
41.8956
43.6738
45.4694
47.2727
49.0899
50.9168
52.7487
54.5815
56.413
58.2426
60.0716
61.9037
63.7444
65.6019
67.4867
69.412
71.3942
73.4534
75.6136
77.9043
80.3613
83.029
85.9628
89.2335
92.9326
97.1812
102.142
108.037
115.174
123.983
135.06
149.235
167.637
191.778
223.623
265.639
320.71
391.727
479.392
578.562
658.127
4.92637
4.86391
4.80261
4.74245
4.6834
4.62542
4.5685
4.51261
4.45773
4.40385
4.35092
4.29895
4.2479
4.19775
4.14848
4.10008
4.05252
4.00578
3.95986
3.91472
3.87036
3.82677
3.78392
3.74182
3.70044
3.65979
3.61985
3.58063
3.54213
3.50435
3.4673
3.431
3.39544
3.36066
3.32668
3.29353
3.26123
3.22983
3.19938
3.1699
3.14147
3.11414
3.08796
3.06301
3.03936
3.01709
2.99627
2.977
2.95936
2.94346
2.92941
2.91731
2.90729
2.89948
2.89402
2.89107
2.89079
2.89336
2.899
2.90794
2.92041
2.93671
2.95715
2.98208
3.0119
3.04704
3.08802
3.13537
3.18972
3.25175
3.32222
3.40196
3.4919
3.59303
3.70643
3.83326
3.97473
4.13212
4.30674
4.49993
4.713
4.94719
5.20368
5.48348
5.78741
6.11603
6.46962
6.84809
7.25095
7.67728
8.12574
8.5945
9.08132
9.58353
10.0981
10.6218
11.1509
11.6818
12.2107
12.7337
13.2471
13.7474
14.2312
14.6953
15.137
15.5539
15.9437
16.3048
16.6359
16.9359
17.2043
17.4408
17.6456
17.819
17.9618
18.0749
18.1595
18.2171
18.2492
18.2577
18.2445
18.2116
18.1611
18.0953
18.0165
17.927
17.8294
17.7259
17.6193
17.5121
17.407
17.3066
17.214
17.1321
17.0642
17.0136
16.9842
16.98
17.0058
17.0667
17.1686
17.3184
17.5239
17.7937
18.138
18.5675
19.0937
19.7282
20.4816
21.3626
22.3766
23.5247
24.8033
26.2043
27.716
29.3245
31.0149
32.7727
34.5841
36.4362
38.3172
40.2161
42.1229
44.0459
45.9785
47.9151
49.8512
51.7842
53.713
55.6386
57.5641
59.4946
61.4377
63.4036
65.405
67.4578
69.5813
71.799
74.1393
76.637
79.3351
82.2869
85.5604
89.243
93.4496
98.3341
104.106
111.052
119.572
130.219
143.752
161.198
183.91
213.604
252.347
302.376
365.583
441.441
524.288
589.376
4.91073
4.8481
4.78665
4.72635
4.66716
4.60907
4.55204
4.49605
4.44107
4.38708
4.33407
4.282
4.23085
4.18061
4.13124
4.08274
4.03508
3.98824
3.94221
3.89696
3.85248
3.80875
3.76576
3.72349
3.68192
3.64105
3.60086
3.56134
3.52247
3.48426
3.4467
3.40977
3.37347
3.33781
3.30277
3.26837
3.2346
3.20148
3.169
3.13717
3.10601
3.07553
3.04574
3.01667
2.98832
2.96072
2.9339
2.90788
2.88267
2.85833
2.83486
2.81232
2.79073
2.77013
2.75056
2.73208
2.71473
2.69857
2.68366
2.67006
2.65786
2.64714
2.638
2.63053
2.62488
2.62116
2.61955
2.62021
2.62335
2.6292
2.638
2.65006
2.6657
2.68528
2.70921
2.73797
2.77205
2.81203
2.85853
2.91223
2.97386
3.04422
3.12416
3.21454
3.31628
3.4303
3.5575
3.69875
3.85485
4.0265
4.21424
4.41845
4.63927
4.87661
5.13008
5.399
5.68234
5.97881
6.28677
6.60434
6.92938
7.25957
7.59244
7.92547
8.25609
8.58177
8.9001
9.20879
9.50574
9.78907
10.0571
10.3086
10.5423
10.7575
10.9536
11.1304
11.2877
11.426
11.5455
11.647
11.7313
11.7994
11.8526
11.8921
11.9193
11.9359
11.9433
11.9434
11.938
11.929
11.9183
11.9081
11.9005
11.8978
11.9026
11.9175
11.9456
11.99
12.0545
12.1433
12.2613
12.4142
12.6086
12.8525
13.1551
13.527
13.9806
14.5293
15.1871
15.9677
16.8832
17.9418
19.1471
20.4965
21.9817
23.5893
25.303
27.1048
28.9768
30.902
32.8641
34.8481
36.8472
38.8661
40.8959
42.9299
44.9628
46.9913
49.0138
51.0306
53.0443
55.0596
57.0834
59.1254
61.1978
63.3157
65.4979
67.7669
70.1502
72.6815
75.4019
78.3628
81.6288
85.2832
89.4347
94.2277
99.8577
106.592
114.798
124.984
137.839
154.287
175.525
203.036
238.533
283.716
339.733
405.332
474.923
528.896
4.90322
4.8405
4.77897
4.71859
4.65934
4.60119
4.5441
4.48806
4.43303
4.37901
4.32595
4.27384
4.22265
4.17237
4.12297
4.07444
4.02674
3.97987
3.93381
3.88852
3.84401
3.80024
3.75721
3.7149
3.67329
3.63236
3.59211
3.55252
3.51357
3.47526
3.43757
3.4005
3.36402
3.32814
3.29285
3.25813
3.22398
3.19041
3.15739
3.12493
3.09303
3.06168
3.03088
3.00064
2.97095
2.94182
2.91324
2.88523
2.85778
2.8309
2.80459
2.77886
2.75373
2.72919
2.70525
2.68194
2.65925
2.6372
2.61582
2.59511
2.57509
2.55579
2.53724
2.51947
2.5025
2.48638
2.47116
2.45689
2.44362
2.43143
2.4204
2.41062
2.40218
2.39522
2.38985
2.38625
2.38457
2.38501
2.3878
2.39318
2.40142
2.41283
2.42774
2.44654
2.46961
2.4974
2.53038
2.56903
2.61388
2.66546
2.72429
2.79092
2.86583
2.94949
3.0423
3.14458
3.25654
3.37827
3.50971
3.65064
3.80068
3.95925
4.12562
4.29885
4.47789
4.66152
4.84843
5.03722
5.22647
5.41472
5.60055
5.78261
5.95962
6.13042
6.294
6.44947
6.59613
6.73345
6.86107
6.97878
7.08658
7.18459
7.27312
7.35262
7.42365
7.48692
7.54325
7.59357
7.63893
7.68045
7.71938
7.75705
7.79492
7.83456
7.87768
7.92617
7.98212
8.04789
8.12614
8.21998
8.33301
8.46954
8.63473
8.83481
9.07738
9.37167
9.72879
10.1619
10.6862
11.3183
12.0753
12.9732
14.0243
15.2355
16.6065
18.1294
19.79
21.5694
23.4461
25.398
27.4034
29.4405
31.5127
33.6098
35.722
37.8407
39.9597
42.0742
44.1819
46.2823
48.3771
50.4705
52.5687
54.6806
56.8178
58.9948
61.2292
63.543
65.9625
68.5199
71.2546
74.2156
77.4645
81.08
85.1641
89.8519
95.325
101.83
109.703
119.405
131.559
146.987
166.739
192.083
224.422
265.029
314.51
371.241
430.023
475.307
4.89971
4.83695
4.77537
4.71496
4.65568
4.5975
4.54039
4.48432
4.42928
4.37524
4.32217
4.27005
4.21885
4.16856
4.11916
4.07061
4.02291
3.97604
3.92996
3.88468
3.84016
3.79639
3.75336
3.71104
3.66943
3.6285
3.58825
3.54865
3.50969
3.47137
3.43366
3.39656
3.36005
3.32413
3.28878
3.254
3.21977
3.18609
3.15294
3.12033
3.08823
3.05666
3.02559
2.99503
2.96497
2.9354
2.90632
2.87773
2.84962
2.82198
2.79482
2.76813
2.74191
2.71615
2.69085
2.66602
2.64164
2.61773
2.59427
2.57128
2.54874
2.52667
2.50506
2.48393
2.46327
2.4431
2.42342
2.40425
2.3856
2.36749
2.34994
2.33298
2.31663
2.30093
2.28592
2.27164
2.25816
2.24553
2.23382
2.22311
2.2135
2.20509
2.19799
2.19233
2.18827
2.18596
2.18559
2.18734
2.19143
2.19809
2.20756
2.22011
2.23599