/*--------------------------------*- C++ -*----------------------------------*\
| =========                 |                                                 |
| \\      /  F ield         | OpenFOAM: The Open Source CFD Toolbox           |
|  \\    /   O peration     | Version:  2.4.0                                 |
|   \\  /    A nd           | Web:      www.OpenFOAM.org                      |
|    \\/     M anipulation  |                                                 |
\*---------------------------------------------------------------------------*/
FoamFile
{
    version     2.0;
    format      ascii;
    class       volScalarField;
    location    "0.232";
    object      p;
}
// * * * * * * * * * * * * * * * * * * * * * * * * * * * * * * * * * * * * * //

dimensions      [0 2 -2 0 0 0 0];

internalField   nonuniform List<scalar> 
17600
(
92.6001
77.0134
72.5353
71.4125
70.4542
69.5025
68.6268
67.8207
67.1313
66.3457
65.6406
64.92
64.2021
63.5589
62.6864
62.2046
61.4214
60.2743
59.0097
58.2556
90.6926
77.0636
72.5764
71.4217
70.4576
69.5032
68.6273
67.8207
67.1315
66.3465
65.6397
64.9209
64.2016
63.5603
62.6867
62.2032
61.4288
60.2748
59.0176
58.3596
89.2799
77.3199
72.7202
71.4595
70.4717
69.5077
68.6298
67.822
67.1332
66.3479
65.639
64.9218
64.2014
63.5624
62.6865
62.2037
61.4412
60.2752
59.058
58.6092
88.3049
77.6609
72.9405
71.5245
70.5009
69.5226
68.6393
67.8274
67.1386
66.3513
65.6397
64.9233
64.2017
63.565
62.6879
62.2051
61.4595
60.2823
59.1316
58.9963
87.4836
77.9949
73.2057
71.6064
70.5425
69.5508
68.66
67.8408
67.1507
66.3585
65.6434
64.9273
64.2029
63.5686
62.6926
62.2067
61.484
60.3006
59.2478
59.4363
86.7099
78.2867
73.4848
71.689
70.5829
69.5867
68.6907
67.8624
67.1704
66.371
65.6513
64.9351
64.205
63.5738
62.7024
62.2073
61.5135
60.3339
59.4128
59.8787
85.9812
78.5335
73.7634
71.7673
70.6121
69.6202
68.7256
67.8886
67.1955
66.3879
65.6628
64.9469
64.208
63.5809
62.719
62.2066
61.5451
60.3864
59.6137
60.3222
85.3078
78.7374
74.0347
71.8435
70.6301
69.6463
68.7597
67.9157
67.2229
66.406
65.6758
64.9616
64.2107
63.5885
62.7421
62.2047
61.5752
60.4628
59.789
60.7853
84.6957
78.9018
74.2901
71.922
70.6403
69.6642
68.7902
67.9423
67.2511
66.4244
65.688
64.9779
64.2118
63.5962
62.7694
62.2035
61.6013
60.5647
59.9196
61.1268
84.1468
79.0284
74.5262
72.0036
70.6461
69.6737
68.8164
67.9676
67.2791
66.4422
65.6984
64.9949
64.2113
63.6034
62.7994
62.2006
61.6285
60.6754
60.0684
61.6897
83.66
79.1202
74.7418
72.0893
70.6479
69.6752
68.8384
67.9919
67.3058
66.4597
65.7062
65.0117
64.2102
63.6103
62.83
62.1991
61.6623
60.7854
60.2414
61.9865
83.2325
79.1811
74.9374
72.1792
70.6469
69.6694
68.8571
68.015
67.3308
66.4766
65.7119
65.0276
64.2091
63.6177
62.8589
62.2041
61.7041
60.8929
60.4265
62.2097
82.8617
79.2163
75.1131
72.2725
70.6437
69.6586
68.8721
68.0364
67.3533
66.4938
65.7153
65.0428
64.206
63.6244
62.8886
62.2092
61.7505
61.0012
60.6074
62.3977
82.5448
79.2317
75.2685
72.3642
70.6405
69.644
68.8838
68.0565
67.3733
66.5098
65.7178
65.0564
64.2066
63.6301
62.9186
62.2146
61.7986
61.1058
60.775
62.5806
82.2778
79.2358
75.4027
72.4465
70.6387
69.6282
68.8927
68.0754
67.3902
66.5248
65.7196
65.0689
64.2075
63.6349
62.9486
62.2261
61.8402
61.2167
60.9302
62.665
82.0587
79.2338
75.5143
72.5167
70.6381
69.6133
68.899
68.0932
67.403
66.5398
65.7192
65.0799
64.2104
63.6389
62.9814
62.2383
61.8837
61.3157
61.1156
62.6562
81.8864
79.2285
75.6032
72.5736
70.6396
69.5985
68.9034
68.109
67.4127
66.5513
65.7267
65.0877
64.219
63.6413
63.0121
62.2548
61.9321
61.4034
61.3112
62.769
81.7588
79.2222
75.6689
72.6174
70.6415
69.5875
68.9049
68.1243
67.4176
66.5621
65.7265
65.0961
64.2242
63.6465
63.0397
62.2799
61.9645
61.5073
61.3648
62.8417
81.6757
79.2152
75.713
72.6468
70.6436
69.5788
68.905
68.1371
67.4191
66.5694
65.7303
65.0993
64.2353
63.6479
63.0699
62.3028
62.0068
61.5859
61.4579
62.9747
81.6356
79.2092
75.7356
72.6623
70.6447
69.5746
68.9037
68.1475
67.4162
66.5757
65.7337
65.1008
64.2479
63.6487
63.0951
62.3302
62.0404
61.667
61.5691
63.0524
81.6383
79.2046
75.7374
72.6622
70.6448
69.575
68.9008
68.1555
67.4088
66.5797
65.738
65.1019
64.2614
63.6662
63.1162
62.3601
62.0529
61.7454
61.6957
63.0382
81.6841
79.2013
75.7186
72.6468
70.644
69.5793
68.8987
68.16
67.4
66.579
65.7445
65.0929
64.2769
63.6666
63.1472
62.3916
62.0966
61.8052
61.8285
63.0847
81.7725
79.1991
75.6779
72.6171
70.642
69.588
68.8938
68.1633
67.3868
66.5793
65.7499
65.1003
64.2881
63.6736
63.1369
62.4302
62.1169
61.8822
61.8541
63.1177
81.9056
79.1969
75.615
72.5732
70.6418
69.5987
68.8891
68.1616
67.3716
66.5744
65.7573
65.091
64.3059
63.6785
63.1842
62.4642
62.1491
61.9417
61.8974
63.2534
82.0827
79.1942
75.5282
72.5169
70.6414
69.6115
68.8825
68.1568
67.3537
66.5722
65.7635
65.0863
64.3189
63.6878
63.1899
62.502
62.1783
61.9956
61.966
63.2737
82.3068
79.1884
75.4175
72.448
70.6438
69.6242
68.8753
68.1479
67.3344
66.5629
65.7696
65.0793
64.3316
63.6972
63.2008
62.5406
62.2074
62.0443
62.0592
63.188
82.5785
79.1775
75.283
72.3675
70.6487
69.6364
68.8672
68.135
67.3132
66.5509
65.7758
65.0687
64.3474
63.7056
63.2191
62.5748
62.2434
62.0842
62.1562
63.1994
82.8996
79.1577
75.1253
72.2787
70.655
69.6481
68.8567
68.1193
67.2891
66.5413
65.7786
65.0615
64.3558
63.7199
63.2239
62.617
62.2656
62.1409
62.1414
63.1779
83.2743
79.12
74.9468
72.1852
70.6622
69.6557
68.8453
68.0991
67.2648
66.5281
65.7819
65.0505
64.3671
63.7316
63.2359
62.6537
62.2954
62.1855
62.1547
63.2264
83.7041
79.0578
74.7478
72.0955
70.6662
69.6588
68.8315
68.0759
67.239
66.5147
65.7828
65.0388
64.3775
63.7428
63.2494
62.6862
62.3316
62.2216
62.1992
63.1895
84.1928
78.9645
74.5291
72.011
70.6659
69.6556
68.8151
68.0501
67.2112
66.5022
65.7806
65.0271
64.3851
63.7549
63.2592
62.7206
62.3628
62.2701
62.2531
63.0956
84.7429
78.8361
74.2912
71.9318
70.6608
69.6439
68.7959
68.0224
67.1814
66.4891
65.778
65.0129
64.3928
63.7647
63.2715
62.7494
62.3998
62.3116
62.331
62.9533
85.3555
78.6709
74.0347
71.8576
70.6493
69.6234
68.7727
67.9944
67.15
66.4752
65.7743
64.9988
64.3984
63.7737
63.2829
62.7744
62.4364
62.3486
62.4121
62.8577
86.0292
78.4675
73.763
71.7853
70.6295
69.594
68.7457
67.967
67.1192
66.4608
65.7697
64.9866
64.4012
63.7822
63.2912
62.7977
62.4648
62.3869
62.4489
62.768
86.7578
78.2218
73.4846
71.7088
70.5992
69.5575
68.7169
67.941
67.0923
66.4469
65.7646
64.9774
64.4032
63.7891
63.2992
62.8161
62.4899
62.4146
62.4837
62.7435
87.5317
77.9308
73.2056
71.6263
70.5589
69.5194
68.6904
67.9192
67.0725
66.4361
65.7606
64.9726
64.4051
63.795
63.306
62.83
62.5099
62.4344
62.5075
62.7169
88.3534
77.5974
72.9406
71.5437
70.5177
69.4901
68.6724
67.9047
67.0618
66.4299
65.7583
64.9718
64.4068
63.7995
63.3111
62.8398
62.5239
62.449
62.5171
62.7179
89.3287
77.2572
72.7201
71.4781
70.4888
69.4751
68.6643
67.8976
67.0583
66.4276
65.7568
64.9731
64.4081
63.8026
63.3141
62.8455
62.5332
62.4571
62.5232
62.7297
90.7415
77.0018
72.5762
71.4396
70.4747
69.4712
68.6625
67.8946
67.0581
66.4275
65.7555
64.9745
64.4089
63.8039
63.3153
62.8478
62.538
62.4603
62.5258
62.7521
92.6495
76.952
72.5353
71.4301
70.471
69.4709
68.6627
67.8932
67.0583
66.4284
65.7542
64.975
64.4094
63.8039
63.3155
62.8478
62.5398
62.4605
62.5261
62.7951
55.3228
54.6849
56.6331
59.9219
64.5851
69.7305
73.2778
79.1434
80.975
77.4891
70.8017
60.0626
44.1531
28.9957
25.6205
26.7716
21.9082
14.3593
9.28612
5.07415
1.53923
-0.200184
-0.0641234
1.20652
2.2949
4.25057
7.58421
11.7357
16.1488
20.9828
26.3037
31.2401
35.8825
40.5566
44.6371
48.1103
51.0461
53.5447
55.1649
55.9096
56.4695
55.9556
54.3277
52.3967
49.8761
46.7433
42.6298
38.8551
36.1974
33.3012
31.1677
31.2863
32.7675
34.9781
38.7317
43.4683
48.1819
52.7182
57.4393
62.0631
65.6683
68.1917
70.0078
71.1411
71.6999
71.7691
71.3203
70.373
68.9429
67.2122
65.825
65.7336
66.7204
67.6109
68.0439
67.8194
66.8318
64.5811
61.0253
56.201
50.6485
45.6018
40.8849
35.9768
32.4436
30.3684
28.3728
26.8752
26.9506
27.6795
29.9883
35.0811
41.2696
47.1412
53.6041
60.3656
65.709
68.6616
69.9494
70.2602
69.4179
67.3655
64.2443
60.1294
55.4797
50.4061
45.0703
39.9162
35.166
30.8067
26.6865
22.956
20.1418
18.2347
16.7128
15.4967
15.4957
17.3554
19.9363
21.8176
24.8124
29.7602
35.5626
42.3
48.5271
53.5
58.1775
61.6753
63.9685
66.4539
68.4796
68.7198
67.8796
66.4768
64.5108
61.4716
57.8656
53.7225
48.7328
43.0372
36.5021
31.223
27.9116
25.6502
24.8987
25.8791
27.5799
29.2164
31.2816
33.8479
37.624
42.9848
49.254
55.3742
61.6921
67.2424
71.0074
74.4347
76.9275
78.2267
79.1716
79.6101
80.0704
80.2499
80.4156
80.4077
79.9082
79.7598
79.4372
78.0574
77.0556
76.5284
75.2914
73.7023
72.3552
70.9874
69.4079
68.1393
67.5043
67.0424
67.0086
67.4045
67.6481
67.8133
67.8318
67.4055
66.73
66.2232
66.3762
67.2037
68.1465
68.7655
68.2281
66.9258
64.4679
60.2452
54.3487
46.4499
35.2962
6.55148
55.786
55.3496
57.4308
60.7849
65.3398
70.4767
73.9066
79.4891
81.2018
77.3866
71.1796
61.0448
46.4074
31.7643
27.1039
27.6838
23.2453
16.0658
11.2981
7.42135
4.0703
2.36731
2.62274
3.80983
4.56469
6.10733
9.29443
13.6847
18.2432
22.8312
27.9635
32.7171
37.0956
41.5741
45.5025
48.8125
51.5512
53.9308
55.533
56.0542
56.3102
55.7331
53.7315
51.3297
48.4089
44.6929
40.1333
35.7917
32.576
29.4287
27.1647
27.3186
29.0136
31.3576
35.5371
40.9056
46.1173
51.0345
56.1694
61.1829
65.0846
67.8533
69.8579
71.0745
71.6742
71.7577
71.2909
70.3664
69.038
67.4799
66.2703
66.2711
67.2649
68.1749
68.619
68.3716
67.44
65.3947
62.0426
57.3397
51.7842
46.7891
42.2114
37.5254
34.2052
32.4149
30.6773
29.5376
29.6608
30.4289
32.6466
37.5736
43.6029
49.2133
55.3295
61.766
66.7889
69.447
70.5044
70.6637
69.5927
67.1635
63.5934
59.0074
53.9628
48.5957
43.1308
37.8988
33.1316
28.6457
24.3427
20.5178
17.5952
15.6135
14.13
12.985
12.9597
14.9887
17.9222
20.0646
23.2533
28.2245
34.07
41.0074
47.344
52.4421
57.3452
60.8909
63.1301
65.777
68.0367
68.4239
67.7572
66.5043
64.6348
61.6742
58.0845
53.9634
49.0798
43.5303
37.1504
32.0574
28.777
26.4033
25.4326
26.0574
27.4322
28.9099
30.9217
33.638
37.3439
42.7915
49.061
54.994
61.3655
66.701
70.3507
73.7026
75.9829
77.4041
78.4536
79.0426
79.6361
79.849
80.1618
80.208
79.6366
79.5199
79.179
77.5411
76.6339
76.1467
74.6925
72.8879
71.3518
69.8035
68.0992
66.7224
65.9878
65.4178
65.3103
65.6842
65.9427
66.0854
66.1249
65.7528
65.2097
64.7021
64.8123
65.6643
66.6124
67.1857
66.5804
65.0653
62.4626
57.8133
51.2387
42.2633
30.5445
-1.67982
56.3314
55.9454
58.236
61.5925
65.8265
70.9682
74.1538
79.2066
80.8424
76.7457
70.9184
61.4969
48.31
34.5966
28.8874
28.6457
24.6275
17.9516
13.312
9.85258
6.87356
5.10821
5.19481
6.21334
6.87577
8.24911
11.3323
15.8119
20.4362
24.7685
29.6527
34.1634
38.2825
42.6092
46.4034
49.5821
52.1718
54.4174
56.0065
56.3928
56.2827
55.5539
53.3086
50.3954
46.9954
42.6239
37.5653
32.7461
28.9293
25.5231
23.2211
23.3848
25.0993
27.6824
32.3003
38.3049
44.036
49.3567
54.9132
60.317
64.5133
67.5271
69.7245
71.033
71.6681
71.765
71.3002
70.4071
69.1716
67.7912
66.7827
66.9004
67.8794
68.7837
69.1775
68.9512
68.1462
66.3169
63.1311
58.5414
53.0889
48.1655
43.6846
39.0642
35.9246
34.4325
32.9924
32.1175
32.3883
33.2542
35.411
40.1788
46.05
51.4444
57.2344
63.3475
68.0353
70.4006
71.2273
71.1934
69.8732
67.0719
63.0395
58.0773
52.6425
47.019
41.4641
36.174
31.3479
26.6934
22.1925
18.2725
15.2499
13.1698
11.6879
10.5625
10.4997
12.7345
15.9929
18.3938
21.8733
26.9237
32.8026
39.95
46.364
51.5173
56.6609
60.2317
62.3886
65.214
67.7493
68.2605
67.7553
66.6586
64.8901
62.0079
58.4752
54.3552
49.6175
44.2317
38.0187
33.1236
29.8293
27.3256
26.1229
26.3983
27.4004
28.7284
30.7006
33.5581
37.2189
42.6886
48.9048
54.8212
61.052
66.171
69.7023
72.8818
74.9458
76.5584
77.6728
78.4342
79.1906
79.4705
79.945
80.0836
79.4543
79.3088
78.8735
77.0495
76.1745
75.7412
74.1437
72.0968
70.4035
68.6351
66.8235
65.3741
64.5471
63.7798
63.5352
63.7935
64.0634
64.2503
64.3816
64.1515
63.7194
63.2078
63.2456
64.0843
65.0013
65.5033
64.8826
63.2346
60.4362
55.4372
48.3592
38.2063
26.507
-3.99804
56.9779
56.481
58.9335
62.3147
66.1371
71.0881
73.9803
78.3863
79.875
75.6801
70.1605
61.5934
49.8318
37.1926
30.6715
29.6407
26.068
19.9662
15.4526
12.3469
9.79274
7.8513
7.52357
8.43477
9.34248
10.7543
13.6668
18.0976
22.6676
26.7017
31.2797
35.5864
39.4707
43.5766
47.2762
50.38
52.8746
55.0201
56.5588
56.8836
56.4491
55.4608
53.0021
49.6005
45.6572
40.5863
34.9785
29.7596
25.3871
21.7157
19.4192
19.5931
21.2838
24.0669
29.0932
35.6911
41.9318
47.7087
53.7287
59.4958
63.9597
67.2266
69.621
71.0184
71.6753
71.7878
71.3436
70.491
69.3511
68.1456
67.3608
67.6039
68.5343
69.4249
69.7724
69.6136
68.9535
67.2913
64.2367
59.8777
54.6026
49.7383
45.281
40.6597
37.6471
36.428
35.297
34.6252
35.1286
36.1083
38.2473
42.8747
48.594
53.7853
59.3
65.0656
69.45
71.4984
72.1123
71.8953
70.234
67.0305
62.5796
57.2855
51.5279
45.7166
40.0457
34.7443
29.7967
24.9587
20.251
16.2345
13.1226
10.9186
9.40011
8.23891
8.13665
10.6152
14.127
16.8005
20.6832
25.8224
31.7558
39.1421
45.5621
50.7592
56.1492
59.6881
61.7671
64.8171
67.6176
68.2443
67.8628
66.9511
65.2969
62.47
59.0438
54.9015
50.3026
45.106
39.0562
34.3345
31.0335
28.3931
26.922
26.8275
27.4564
28.63
30.6099
33.5654
37.285
42.6463
48.8561
54.7514
60.7268
65.6093
69.0371
71.9421
73.8995
75.6595
76.848
77.7753
78.712
79.0974
79.7425
80.0052
79.3498
79.1905
78.5403
76.6149
75.8189
75.3173
73.613
71.266
69.4268
67.5348
65.6018
64.1734
63.1774
62.1611
61.7812
61.8199
62.0107
62.2639
62.4669
62.4734
62.1787
61.7095
61.7244
62.5241
63.3598
63.8156
63.1488
61.4469
58.4083
53.1243
45.8119
34.5792
23.1875
-3.04162
57.664
57.0506
59.6002
62.9018
66.2567
70.9422
73.4658
76.9741
78.3708
74.4239
69.111
61.3836
50.9976
39.2383
32.1761
30.6933
27.4664
21.8882
17.5634
14.6242
12.4195
10.522
9.86892
10.6769
11.9237
13.556
16.2964
20.4654
24.8158
28.5681
32.8065
36.9338
40.6354
44.481
48.1229
51.242
53.6709
55.7238
57.2225
57.4982
56.8157
55.5411
52.8414
48.972
44.4147
38.62
32.4321
26.8631
22.0381
18.0987
15.8268
16.0233
17.7473
20.6374
26.0027
33.1106
39.86
46.1389
52.6127
58.7064
63.4423
66.968
69.5428
71.0163
71.6819
71.8204
71.4169
70.6134
69.5719
68.5419
67.972
68.3192
69.229
70.1173
70.4552
70.3474
69.8465
68.3222
65.4507
61.357
56.3103
51.5417
47.0584
42.4082
39.4319
38.4443
37.5751
37.1084
37.8485
38.9832
41.1382
45.663
51.2056
56.2366
61.477
66.9174
70.9756
72.7624
73.1313
72.7748
70.7504
67.0576
62.2286
56.5868
50.6115
44.6342
38.8955
33.548
28.4662
23.4219
18.5452
14.423
11.2244
8.88412
7.29036
6.04233
5.92235
8.64603
12.3276
15.3249
19.6853
24.8753
30.9493
38.6038
44.9241
50.2156
55.8332
59.2332
61.268
64.5982
67.6034
68.3451
68.0817
67.3787
65.8573
63.0829
59.7601
55.6218
51.1187
46.1062
40.2203
35.5954
32.3581
29.588
27.7939
27.2993
27.6134
28.6269
30.6207
33.6808
37.5235
42.7175
48.9694
54.7388
60.4168
65.0062
68.3793
70.9769
72.8926
74.7236
75.9954
77.0845
78.2283
78.7349
79.5059
79.9502
79.2708
79.1433
78.3125
76.1728
75.4799
74.9736
73.0904
70.5024
68.5314
66.5257
64.4987
63.0339
61.7495
60.4608
59.9735
59.8322
59.8555
60.099
60.3618
60.5526
60.4353
60.0564
60.179
60.9908
61.7408
62.1709
61.4347
59.6477
56.3643
50.8722
43.6735
31.5038
20.5824
-1.24072
58.3682
57.7109
60.2233
63.3327
66.2036
70.5065
72.6911
75.2914
76.5986
73.1815
67.9339
60.8772
51.8513
40.9259
33.7222
31.9255
28.8283
23.7652
19.62
16.6782
14.8354
13.3182
12.4888
13.0958
14.6282
16.5392
19.1037
22.8307
26.8414
30.3765
34.2888
38.222
41.8199
45.4134
48.9552
52.1831
54.621
56.556
58.0455
58.2985
57.4049
55.8481
52.8819
48.5187
43.2945
36.778
29.9878
24.1119
18.9513
14.7455
12.4677
12.7213
14.4845
17.463
23.1134
30.6447
37.8601
44.6385
51.5527
57.9651
62.9758
66.7463
69.4816
71.0208
71.6938
71.8579
71.511
70.775
69.8311
68.9725
68.5947
69.0442
69.9904
70.8953
71.2191
71.1707
70.8418
69.423
66.7612
63.0085
58.2521
53.5621
49.0463
44.3688
41.3905
40.5351
39.8769
39.5787
40.5404
41.894
44.0908
48.5133
53.8948
58.7595
63.7345
68.8599
72.5829
74.1472
74.2896
73.7539
71.443
67.2577
62.0155
56.0406
49.8497
43.7834
37.9987
32.5544
27.3437
22.0736
17.0714
12.8528
9.56407
7.09982
5.39092
3.97486
3.93445
6.87929
10.6293
14.0051
18.8559
24.0858
30.4358
38.3265
44.4387
49.8998
55.6899
58.8647
60.9074
64.4965
67.625
68.5199
68.4227
67.9143
66.5642
63.8585
60.6032
56.505
52.0787
47.2036
41.4663
36.8878
33.7631
30.8878
28.7484
27.8354
27.8865
28.7985
30.7591
33.9493
37.8978
42.9808
49.1964
54.8378
60.1526
64.4663
67.6845
70.0539
71.9203
73.754
75.1169
76.4155
77.7425
78.3978
79.2587
79.8452
79.1938
79.1172
78.1987
75.8608
75.0726
74.5988
72.5881
69.782
67.8665
65.7282
63.5648
61.9287
60.2644
58.7088
58.0583
57.8041
57.6729
57.8539
58.2034
58.4838
58.5048
58.2155
58.5183
59.4045
60.1335
60.5077
59.7643
57.8313
54.3831
48.7623
41.8636
29.1658
18.6002
0.0579195
59.0282
58.491
60.772
63.5427
65.9469
69.7958
71.7593
73.5117
74.676
71.9655
66.8103
60.2436
52.5045
42.6678
35.5485
33.3203
30.3237
25.7841
21.8864
18.9391
17.2866
16.253
15.4703
15.8434
17.4649
19.5161
21.8907
25.1556
28.7628
32.0989
35.741
39.4368
42.9542
46.3974
49.8226
53.1297
55.6311
57.5148
59.0189
59.2786
58.1945
56.334
53.1083
48.2486
42.3013
35.1099
27.724
21.5338
16.1468
11.7017
9.38685
9.68971
11.5399
14.6135
20.4765
28.3247
35.9597
43.2472
50.5913
57.2904
62.5559
66.5592
69.4356
71.0301
71.709
71.9029
71.6195
70.9634
70.1358
69.4364
69.2441
69.8087
70.8262
71.7651
72.0504
72.1104
71.9066
70.6017
68.186
64.8639
60.3444
55.7377
51.29
46.6207
43.5654
42.7436
42.2117
42.0853
43.2723
44.8123
47.1104
51.4271
56.6376
61.3296
66.0673
70.8426
74.2647
75.5962
75.561
74.8073
72.2007
67.6211
62.0056
55.7072
49.2663
43.1788
37.3226
31.792
26.3999
20.9387
15.8113
11.5286
8.15266
5.58251
3.74643
2.15081
2.27046
5.35374
9.08615
12.9124
18.196
23.4803
30.2255
38.2463
44.1338
49.8427
55.6941
58.6142
60.7197
64.4915
67.69
68.78
68.886
68.5457
67.3824
64.8177
61.5662
57.5213
53.2019
48.3841
42.7696
38.2461
35.2292
32.3039
29.8021
28.498
28.3267
29.2153
31.1008
34.3717
38.4025
43.4542
49.5298
55.0509
59.9653
64.0092
66.9396
69.1379
70.9206
72.7492
74.2164
75.763
77.2905
78.0795
79.0207
79.7038
79.0846
79.0434
78.0875
75.7481
74.8015
74.1529
71.9767
69.0535
67.2077
65.0656
62.7075
60.7319
58.6065
56.8228
56.0962
55.7068
55.4063
55.5708
55.9786
56.3483
56.4112
56.3186
56.8144
57.8081
58.5766
58.848
58.1667
56.118
52.6232
46.8231
40.3119
27.6945
16.8992
0.535455
59.7895
59.3795
61.1892
63.4728
65.4816
68.8405
70.6766
71.8222
72.7066
70.6418
65.8164
59.6848
53.0471
44.5321
37.5925
34.8897
32.0766
27.9525
24.3963
21.529
19.8569
19.2446
18.7009
18.8764
20.355
22.3455
24.5175
27.3849
30.6031
33.6949
37.0418
40.5547
44.0407
47.3506
50.6666
54.0548
56.6438
58.5516
60.1178
60.4121
59.1936
57.0133
53.4617
48.1316
41.4611
33.6257
25.713
19.1886
13.6184
8.97565
6.59881
6.96388
8.89305
12.0835
18.1387
26.2119
34.2191
42.0089
49.7371
56.6765
62.1848
66.4102
69.4055
71.0415
71.7228
71.9556
71.745
71.1793
70.4827
69.9529
69.9632
70.6538
71.7919
72.7183
72.9835
73.16
73.0621
71.8502
69.7165
66.8124
62.535
58.0895
53.7776
49.1089
45.9558
45.1185
44.6726
44.6811
46.0452
47.7826
50.1782
54.4143
59.4108
63.9313
68.41
72.8397
75.9717
77.0956
76.9056
75.943
72.9948
68.0608
62.1597
55.5729
48.932
42.7781
36.8754
31.2509
25.6511
20.0226
14.7921
10.4456
7.01068
4.36994
2.40897
0.760969
1.02843
4.12568
7.7735
12.0916
17.6975
23.0949
30.3296
38.3322
44.0503
50.0391
55.8073
58.4964
60.7405
64.6257
67.8594
69.1475
69.4644
69.2572
68.282
65.9444
62.6473
58.6545
54.4787
49.6789
44.1521
39.7242
36.7899
33.8407
30.9953
29.3393
29.0074
29.8913
31.7322
34.9523
39.0851
44.1065
49.9818
55.3532
59.9046
63.5935
66.1937
68.2284
69.8968
71.7141
73.3752
75.115
76.8324
77.7926
78.8026
79.5673
78.96
78.8623
77.9126
75.6248
74.6422
73.8846
71.3483
68.3456
66.5597
64.2991
61.7619
59.2731
56.6449
54.5789
53.8668
53.4329
52.9738
53.1388
53.6811
54.1582
54.1785
54.3314
55.086
56.1771
57.0082
57.2081
56.5526
54.4776
51.0395
44.9101
39.0471
26.909
15.3854
1.13984
60.9844
60.4394
61.5487
63.2382
64.8866
67.7756
69.5163
70.3296
70.8313
69.1908
64.9627
59.3091
53.5063
46.3722
39.7753
36.6615
34.0368
30.2315
27.0413
24.3531
22.5873
22.1939
21.9461
22.0336
23.2012
24.9354
26.9467
29.5048
32.3442
35.1889
38.2641
41.6093
45.0711
48.2703
51.527
55.0437
57.7325
59.6791
61.3381
61.6868
60.3657
57.8938
53.956
48.1115
40.7696
32.3234
23.9298
17.1002
11.3662
6.58409
4.1251
4.52793
6.57442
9.89388
16.0984
24.3506
32.7021
40.9332
48.9824
56.1443
61.8944
66.3175
69.4078
71.0562
71.7396
72.0122
71.8819
71.4224
70.864
70.5192
70.7223
71.5684
72.8375
73.7134
74.0135
74.2791
74.2616
73.0853
71.3074
68.767
64.7551
60.5136
56.387
51.8079
48.5985
47.7072
47.2967
47.3824
48.8835
50.81
53.2905
57.4279
62.211
66.528
70.7669
74.8463
77.6888
78.6345
78.3141
77.1772
73.9259
68.5943
62.4114
55.6231
48.8481
42.6015
36.6608
30.9037
25.1415
19.3293
14.0526
9.65911
6.16112
3.47112
1.42331
-0.171004
0.268859
3.25088
6.8048
11.5769
17.3503
22.9772
30.7317
38.5717
44.1982
50.4375
56.0087
58.5506
60.9705
64.9011
68.1595
69.6172
70.1396
70.048
69.2698
67.1937
63.8496
59.8961
55.8909
51.1178
45.6161
41.3308
38.4498
35.5063
32.4042
30.4525
29.9803
30.8413
32.6688
35.7258
39.957
44.9535
50.581
55.7729
59.9472
63.2018
65.4918
67.3019
68.8971
70.6902
72.59
74.5013
76.3806
77.5076
78.5862
79.447
78.8768
78.5874
77.7242
75.429
74.316
73.7049
71.0511
67.7785
66.0691
63.5142
60.708
57.6237
54.4917
52.1017
51.3539
50.878
50.3217
50.5317
51.3395
51.9015
51.9063
52.1816
53.2594
54.5429
55.477
55.6723
54.9714
52.8413
49.5972
43.1368
37.9747
26.275
14.3138
2.45449
61.9397
61.3367
61.8711
63.0414
64.3369
66.7655
68.3612
69.0253
69.1712
67.711
64.2328
59.1316
53.8958
48.0246
42.019
38.5907
36.0387
32.5135
29.6795
27.2412
25.3921
25.0223
25.0396
25.1139
25.892
27.309
29.1855
31.4788
33.9922
36.6179
39.4204
42.5765
46.0598
49.1886
52.3737
56.0465
58.9081
60.9409
62.6936
63.1084
61.6933
58.9324
54.5591
48.1534
40.1724
31.1818
22.3728
15.2531
9.38725
4.5147
1.99862
2.41107
4.53416
8.04472
14.4137
22.7868
31.4095
40.0154
48.3665
55.7404
61.6913
66.2755
69.4339
71.0636
71.7523
72.077
72.0328
71.6783
71.2713
71.1194
71.4965
72.5403
73.8853
74.7297
75.0784
75.4404
75.4312
74.3543
72.9141
70.6309
66.8888
62.936
59.1045
54.6642
51.4368
50.4913
50.075
50.2373
51.8181
53.8807
56.4705
60.457
65.0068
69.0976
73.1091
76.8491
79.4101
80.2041
79.7786
78.487
75.0317
69.3286
62.8191
55.8364
48.9962
42.6898
36.6441
30.7989
24.8665
18.9312
13.5915
9.19139
5.66541
2.90517
0.810657
-0.626326
-0.00172745
2.77083
6.25979
11.372
17.2063
23.2025
31.3748
38.9547
44.5998
51.0092
56.3155
58.7919
61.3769
65.2895
68.5539
70.157
70.881
70.9202
70.3591
68.527
65.1676
61.2549
57.4112
52.6907
47.1278
42.9943
40.2034
37.3032
34.0442
31.8259
31.2397
32.0714
33.8926
36.7528
41.0042
45.9747
51.36
56.3404
60.0602
62.8966
64.8412
66.4172
67.9249
69.7349
71.8349
73.8904
75.9738
77.2479
78.3343
79.3039
78.8087
78.3057
77.5258
75.2993
73.883
73.2834
70.8337
67.5125
65.5608
62.6919
59.5265
55.8388
52.263
49.7925
48.9132
48.2073
47.5043
47.845
48.8867
49.5984
49.6157
49.9887
51.3375
52.9182
54.112
54.2528
53.4843
51.2438
48.3362
41.6791
36.9263
25.7134
14.0087
3.86585
62.7089
62.08
62.1591
62.9222
63.8692
65.8538
67.2368
67.831
67.7305
66.3215
63.586
59.1267
54.3159
49.4332
44.0825
40.5189
37.9289
34.6936
32.1738
30.028
28.2128
27.714
27.8263
27.9441
28.4472
29.5655
31.244
33.2915
35.5432
37.9815
40.5361
43.4724
46.9702
50.0864
53.1971
56.9946
60.0941
62.3093
64.1796
64.657
63.1468
60.0964
55.2449
48.2722
39.6885
30.2026
21.0792
13.7167
7.71197
2.79452
0.216478
0.62893
2.81249
6.51037
13.066
21.5345
30.3616
39.2968
47.9163
55.446
61.545
66.2727
69.4676
71.0599
71.7591
72.1457
72.1958
71.9507
71.6959
71.733
72.306
73.5435
74.9229
75.7407
76.1543
76.5991
76.543
75.6425
74.4177
72.3605
68.9085
65.3405
61.8225
57.5705
54.4632
53.4685
53.0253
53.2257
54.8355
57.0003
59.6605
63.4853
67.7641
71.6308
75.3646
78.8096
81.0852
81.7682
81.2866
79.835
76.2021
70.2768
63.4455
56.2191
49.3473
42.9889
36.8455
30.9508
24.8386
18.8424
13.4653
9.02145
5.48376
2.69187
0.595174
-0.634679
0.130822
2.62641
6.13212
11.473
17.3327
23.7993
32.2074
39.4918
45.2491
51.7102
56.7293
59.1955
61.8941
65.728
68.9674
70.7405
71.6417
71.8514
71.5426
69.907
66.5786
62.7444
59.0298
54.3488
48.7091
44.7053
42.0387
39.1865
35.8871
33.4597
32.7635
33.5761
35.3626
38.0834
42.2356
47.1883
52.3356
57.0268
60.3124
62.7435
64.2883
65.6576
67.0255
68.8573
71.1125
73.3136
75.5629
77.045
78.1025
79.131
78.6757
78.0706
77.3117
75.2306
73.5765
72.7522
70.3436
67.3839
64.9973
61.7052
58.2143
53.8632
49.9958
47.3922
46.5314
45.694
44.7462
45.1003
46.4078
47.3774
47.2592
47.779
49.3754
51.3637
52.9542
52.846
52.1099
49.7153
47.2159
40.5031
35.8241
25.7385
14.366
5.0147
63.2987
62.6683
62.4205
62.8918
63.4911
65.0302
66.1763
66.7284
66.5359
65.1876
63.0626
59.2423
54.8256
50.5938
45.8418
42.3212
39.7118
36.792
34.5225
32.6318
30.9404
30.2391
30.2969
30.5231
30.9056
31.7212
33.1347
34.9632
37.0227
39.2899
41.5834
44.2976
47.7935
50.9468
54.0218
57.9245
61.3032
63.7933
65.8259
66.3419
64.7141
61.3701
56.0366
48.5093
39.3809
29.4446
20.0641
12.5096
6.38755
1.43991
-1.16937
-0.840605
1.39998
5.33672
12.069
20.595
29.5969
38.7987
47.6101
55.2491
61.484
66.3287
69.5078
71.0381
71.7526
72.214
72.3639
72.2372
72.137
72.3432
73.1237
74.5162
75.904
76.6917
77.2236
77.6942
77.6311
76.8961
75.8317
73.9514
70.7827
67.667
64.4746
60.5412
57.6119
56.5442
56.0804
56.3055
57.9196
60.1507
62.8447
66.4943
70.4616
74.092
77.5623
80.7196
82.7159
83.2758
82.7728
81.196
77.3769
71.2944
64.2635
56.841
49.8728
43.4744
37.2944
31.2931
25.1181
19.0387
13.6778
9.20947
5.61312
2.79954
0.772175
-0.223557
0.575666
2.79654
6.38862
11.8226
17.7502
24.7429
33.1926
40.2069
46.0923
52.5077
57.2737
59.7647
62.5113
66.2002
69.411
71.4181
72.433
72.8281
72.7891
71.3051
68.0489
64.3768
60.7524
56.0289
50.4215
46.5373
43.9594
41.1434
37.8895
35.362
34.5525
35.331
37.0575
39.6743
43.7009
48.6121
53.534
57.8087
60.7615
62.7066
63.8762
65.0105
66.227
68.0694
70.4434
72.7941
75.1374
76.8502
77.9116
78.9821
78.51
77.8088
77.0706
75.1479
73.3463
72.2936
69.836
67.1584
64.4353
60.7208
56.8093
51.8136
47.8145
45.18
44.2504
43.3485
42.245
42.4474
43.9608
45.1547
44.9851
45.5928
47.4157
50.0084
51.8974
51.5301
50.9343
48.2713
46.1367
39.6774
34.8375
26.3869
15.182
6.50287
63.6909
63.1309
62.6278
62.8992
63.2173
64.3671
65.2758
65.7695
65.6238
64.3779
62.6289
59.3864
55.3659
51.5214
47.3587
44.0267
41.4649
38.8555
36.7658
35.0407
33.4721
32.6056
32.5838
32.9178
33.2213
33.7713
34.9383
36.5413
38.392
40.4933
42.5599
45.0631
48.5101
51.7205
54.8457
58.8738
62.5279
65.3263
67.5631
68.1277
66.3901
62.7642
56.9594
48.8952
39.275
28.9735
19.3931
11.646
5.42784
0.455392
-2.18365
-1.93123
0.318923
4.51873
11.4291
19.989
29.128
38.5137
47.4662
55.1963
61.5202
66.4085
69.5243
70.9902
71.7294
72.2837
72.5441
72.5494
72.6177
72.9927
73.9563
75.4522
76.8209
77.6302
78.2785
78.762
78.7217
78.0894
77.1566
75.3671
72.5625
69.9129
67.025
63.4495
60.7318
59.6544
59.2164
59.4637
61.0354
63.3048
65.9782
69.4088
73.0867
76.4503
79.6438
82.5037
84.276
84.7112
84.183
82.5235
78.5724
72.3242
65.2211
57.7163
50.6121
44.1692
37.9596
31.8577
25.6676
19.5632
14.2156
9.74832
6.122
3.27857
1.31316
0.493729
1.26097
3.29147
7.03187
12.4864
18.5574
25.9786
34.2961
41.1211
47.0892
53.3887
57.9356
60.4598
63.1968
66.7374
69.9834
72.2424
73.2772
73.8358
74.0529
72.696
69.5831
66.1384
62.5564
57.7411
52.3306
48.56
45.9885
43.2311
40.0581
37.5149
36.6133
37.3219
38.9804
41.4976
45.389
50.2732
54.9164
58.7539
61.3524
62.7814
63.5901
64.4383
65.556
67.3741
69.8548
72.3047
74.7385
76.5966
77.9039
78.8155
78.3346
77.5065
76.7274
74.9905
73.0614
71.8234
69.4274
66.8364
63.8094
59.8907
55.2912
49.7766
45.8775
43.2587
42.2444
41.2302
39.9479
39.9544
41.6019
42.9318
42.8112
43.4738
45.5995
48.8414
50.9583
50.3547
49.9398
46.9569
45.0401
39.0983
34.1525
27.314
16.6211
8.7817
64.0946
63.5158
62.7909
62.8918
63.0422
63.8842
64.6246
65.0251
64.9322
63.7859
62.2354
59.5067
55.8811
52.3558
48.7409
45.6802
43.2089
40.8188
38.8478
37.2747
35.8536
34.8711
34.7382
35.0998
35.3695
35.7649
36.6901
38.0179
39.6658
41.628
43.4732
45.744
49.1343
52.4127
55.6119
59.7686
63.7093
66.8564
69.3246
69.9356
68.1105
64.2165
57.9612
49.4037
39.3603
28.7896
19.0621
11.1671
4.84009
-0.128973
-2.81709
-2.66107
-0.356176
4.10535
11.1505
19.6987
28.9299
38.4657
47.5157
55.2719
61.6144
66.4991
69.5281
70.9393
71.7082
72.3599
72.7407
72.8993
73.1495
73.7088
74.8155
76.3262
77.6413
78.5167
79.2715
79.8184
79.773
79.23
78.3771
76.6578
74.2575
71.9778
69.3736
66.2167
63.7766
62.753
62.3569
62.5889
64.1161
66.414
69.0345
72.2112
75.5915
78.6987
81.5913
84.1473
85.7153
86.0648
85.5127
83.8162
79.7882
73.438
66.2475
58.7679
51.6031
45.066
38.8134
32.7036
26.4461
20.4069
15.0836
10.6372
7.01082
4.15065
2.20814
1.43249
2.11579
4.08626
8.01759
13.4749
19.761
27.4318
35.5341
42.2289
48.2158
54.3416
58.6955
61.2284
63.912
67.3802
70.7066
73.122
74.1325
74.8343
75.2658
74.0737
71.199
67.9927
64.4219
59.549
54.4167
50.7776
48.1678
45.4718
42.3989
39.8945
38.9141
39.5564
41.1015
43.5611
47.3182
52.1327
56.4714
59.8892
62.0574
63.0098
63.4456
63.999
65.0382
66.8035
69.3572
71.87
74.3539
76.3614
77.6959
78.5654
78.071
77.217
76.3621
74.6826
72.7639
71.4063
69.0554
66.4905
63.1165
59.142
53.7205
47.8273
44.3202
41.614
40.4871
39.3988
37.7789
37.5378
39.3305
40.8178
40.7411
41.4102
43.9508
47.8858
50.2967
49.3196
49.1488
45.7784
43.9543
38.6989
33.7295
28.1541
18.7375
11.6591
64.3835
63.9314
63.0676
62.951
62.9213
63.4705
64.1005
64.4018
64.3223
63.2881
61.8791
59.603
56.4073
53.1874
50.0242
47.2604
44.8816
42.6812
40.8066
39.3303
38.0477
36.9992
36.7541
37.1175
37.4121
37.7081
38.3906
39.4251
40.846
42.6613
44.3027
46.3339
49.6328
52.9952
56.291
60.5783
64.8496
68.386
71.0842
71.7016
69.7726
65.6115
58.9632
50.013
39.661
28.9128
19.0688
11.0543
4.63211
-0.331248
-3.03331
-2.98453
-0.603743
4.10771
11.23
19.7262
29.0493
38.6834
47.7341
55.4627
61.8317
66.6711
69.5632
70.9058
71.6993
72.4407
72.9533
73.2786
73.7195
74.4621
75.6871
77.1812
78.4338
79.3769
80.2646
80.8964
80.8437
80.3838
79.5459
77.9108
75.8503
73.8513
71.5588
68.8235
66.6456