/*--------------------------------*- C++ -*----------------------------------*\
| =========                 |                                                 |
| \\      /  F ield         | OpenFOAM: The Open Source CFD Toolbox           |
|  \\    /   O peration     | Version:  2.4.0                                 |
|   \\  /    A nd           | Web:      www.OpenFOAM.org                      |
|    \\/     M anipulation  |                                                 |
\*---------------------------------------------------------------------------*/
FoamFile
{
    version     2.0;
    format      ascii;
    class       volSymmTensorField;
    location    "0.232";
    object      UPrime2Mean;
}
// * * * * * * * * * * * * * * * * * * * * * * * * * * * * * * * * * * * * * //

dimensions      [0 2 -2 0 0 0 0];

internalField   nonuniform List<symmTensor> 
17600
(
(0.0170252 -0.00184582 0 0.000278039 0 0)
(0.17528 -0.000703559 0 1.60128e-05 0 0)
(0.22776 -1.01041e-06 0 1.15383e-06 0 0)
(0.252893 -0.000181334 0 7.27551e-07 0 0)
(0.270422 -0.000138899 0 3.94946e-07 0 0)
(0.283719 -5.97135e-05 0 2.90678e-07 0 0)
(0.292632 -1.51864e-05 0 2.63024e-07 0 0)
(0.30047 -2.20901e-07 0 2.63386e-07 0 0)
(0.305061 8.64124e-06 0 3.29111e-07 0 0)
(0.310133 -7.68183e-07 0 4.05829e-07 0 0)
(0.312597 3.31632e-07 0 4.91268e-07 0 0)
(0.317103 -2.5253e-05 0 6.85021e-07 0 0)
(0.319272 -1.86445e-05 0 8.40187e-07 0 0)
(0.324781 -6.58793e-05 0 1.22511e-06 0 0)
(0.328048 -6.31768e-05 0 1.41161e-06 0 0)
(0.338244 -0.000201824 0 2.82592e-06 0 0)
(0.347531 -0.000305318 0 3.11939e-06 0 0)
(0.389516 0.000172857 0 1.21081e-05 0 0)
(0.464134 -0.0129753 0 0.000540678 0 0)
(0.879536 0.0659997 0 0.00858012 0 0)
(0.00820313 0.00368475 0 0.00290341 0 0)
(0.0719167 -0.00688081 0 0.000695011 0 0)
(0.14547 -0.00389287 0 0.000106129 0 0)
(0.195782 -0.00276115 0 4.28395e-05 0 0)
(0.238275 -0.00226627 0 3.35415e-05 0 0)
(0.280671 -0.00189854 0 3.09409e-05 0 0)
(0.313864 -0.00150556 0 2.45802e-05 0 0)
(0.346149 -0.0011828 0 1.64352e-05 0 0)
(0.366212 -0.00089661 0 9.78553e-06 0 0)
(0.389599 -0.000767635 0 7.20963e-06 0 0)
(0.400564 -0.000665571 0 5.34607e-06 0 0)
(0.421419 -0.000702142 0 6.57345e-06 0 0)
(0.428915 -0.000734218 0 8.63628e-06 0 0)
(0.452677 -0.000766789 0 1.20485e-05 0 0)
(0.458977 -0.00118875 0 1.76955e-05 0 0)
(0.497933 -0.00103734 0 3.20641e-05 0 0)
(0.498265 -0.00348746 0 7.42109e-05 0 0)
(0.655398 -0.00491286 0 0.00019881 0 0)
(0.617187 -0.0158345 0 0.00109179 0 0)
(1.87835 -0.188681 0 0.0403922 0 0)
(0.0292128 0.0110872 0 0.00458571 0 0)
(0.0120027 -0.00441168 0 0.00199045 0 0)
(0.0510863 -0.00494578 0 0.0005217 0 0)
(0.0890116 -0.00473199 0 0.000257466 0 0)
(0.129306 -0.00465498 0 0.000195618 0 0)
(0.179453 -0.00448351 0 0.000176225 0 0)
(0.223532 -0.00392708 0 0.000145615 0 0)
(0.271158 -0.00332168 0 0.000100748 0 0)
(0.302055 -0.00266525 0 6.14348e-05 0 0)
(0.340676 -0.0023223 0 3.96952e-05 0 0)
(0.358357 -0.00201138 0 2.3903e-05 0 0)
(0.39451 -0.00213562 0 2.75193e-05 0 0)
(0.405315 -0.00207797 0 3.01949e-05 0 0)
(0.446455 -0.00242521 0 4.73691e-05 0 0)
(0.453234 -0.00296994 0 6.30668e-05 0 0)
(0.513153 -0.00344401 0 0.000130184 0 0)
(0.515631 -0.00808869 0 0.000288397 0 0)
(0.679604 -0.00998297 0 0.000884181 0 0)
(0.727591 -0.0421671 0 0.0048459 0 0)
(1.5886 -0.248381 0 0.0841998 0 0)
(0.0388731 0.0123218 0 0.00414475 0 0)
(0.00114333 0.000811013 0 0.00311475 0 0)
(0.00708012 -0.00184598 0 0.00114979 0 0)
(0.016935 -0.00301596 0 0.00068514 0 0)
(0.0320709 -0.004062 0 0.000553812 0 0)
(0.0617946 -0.00499957 0 0.000502763 0 0)
(0.093775 -0.00505372 0 0.000433846 0 0)
(0.136022 -0.00478047 0 0.000312201 0 0)
(0.164968 -0.00406012 0 0.000202271 0 0)
(0.205676 -0.00368534 0 0.000126102 0 0)
(0.223663 -0.00337555 0 8.00029e-05 0 0)
(0.265097 -0.00327596 0 7.10312e-05 0 0)
(0.275562 -0.00376629 0 9.06063e-05 0 0)
(0.323316 -0.00311685 0 0.000112512 0 0)
(0.329811 -0.00582899 0 0.000205453 0 0)
(0.388969 -0.00279329 0 0.000331781 0 0)
(0.409946 -0.0151497 0 0.000989367 0 0)
(0.488891 -0.00735409 0 0.00178614 0 0)
(0.690354 -0.0767912 0 0.0144927 0 0)
(0.896815 -0.120944 0 0.0614191 0 0)
(0.0364223 0.0099439 0 0.00289917 0 0)
(0.00401732 0.00316708 0 0.00325378 0 0)
(0.00578597 0.00175675 0 0.00143591 0 0)
(0.0061507 0.00103112 0 0.00105612 0 0)
(0.00469267 4.48981e-05 0 0.000995737 0 0)
(0.00757226 -0.00177249 0 0.000959861 0 0)
(0.0160248 -0.00279736 0 0.000869683 0 0)
(0.0351115 -0.00367847 0 0.000665961 0 0)
(0.0503505 -0.00346212 0 0.000449696 0 0)
(0.0770949 -0.00365047 0 0.000298615 0 0)
(0.0887409 -0.00329767 0 0.000179791 0 0)
(0.119823 -0.00387906 0 0.000191119 0 0)
(0.129131 -0.00361809 0 0.000168481 0 0)
(0.162878 -0.00492651 0 0.000286996 0 0)
(0.177224 -0.0041858 0 0.000310954 0 0)
(0.208238 -0.00855178 0 0.00076926 0 0)
(0.243289 -0.00635866 0 0.00110086 0 0)
(0.285493 -0.0273066 0 0.00543789 0 0)
(0.402189 -0.0360212 0 0.0100806 0 0)
(0.601289 -0.174781 0 0.148159 0 0)
(0.0345491 0.00811941 0 0.00207235 0 0)
(0.0046196 0.00279666 0 0.0028998 0 0)
(0.00959726 0.00257357 0 0.0012367 0 0)
(0.0152733 0.00307911 0 0.00101868 0 0)
(0.0194131 0.00378416 0 0.00117673 0 0)
(0.0152499 0.00282244 0 0.00129562 0 0)
(0.0135144 0.00192637 0 0.00128077 0 0)
(0.0112562 9.8371e-05 0 0.00104416 0 0)
(0.0128818 -0.000441501 0 0.000794322 0 0)
(0.018812 -0.00140443 0 0.000528221 0 0)
(0.0212797 -0.00157451 0 0.000379424 0 0)
(0.0338207 -0.00218433 0 0.000336052 0 0)
(0.036049 -0.00284932 0 0.000411041 0 0)
(0.0533074 -0.00303443 0 0.00046318 0 0)
(0.0581022 -0.00498623 0 0.000827501 0 0)
(0.077362 -0.00459535 0 0.00111892 0 0)
(0.089172 -0.0114807 0 0.00294928 0 0)
(0.124202 -0.011914 0 0.0045757 0 0)
(0.176368 -0.0484907 0 0.0251226 0 0)
(0.330038 -0.101568 0 0.0918443 0 0)
(0.0359339 0.00705135 0 0.00154934 0 0)
(0.00615309 0.00214532 0 0.0025952 0 0)
(0.0110939 0.0021847 0 0.00100654 0 0)
(0.0182285 0.00280575 0 0.000766682 0 0)
(0.0287806 0.00443595 0 0.00101211 0 0)
(0.0298543 0.0047753 0 0.00128325 0 0)
(0.0351839 0.00512104 0 0.0014094 0 0)
(0.0298321 0.00367168 0 0.00128238 0 0)
(0.0319072 0.00308695 0 0.000991169 0 0)
(0.0259953 0.0017443 0 0.000794729 0 0)
(0.0273983 0.00146899 0 0.00053696 0 0)
(0.0227447 0.000410464 0 0.000629139 0 0)
(0.0235605 8.03717e-05 0 0.000523519 0 0)
(0.021095 -0.00111832 0 0.000877 0 0)
(0.0222323 -0.00151613 0 0.000924392 0 0)
(0.0232374 -0.00366188 0 0.00200745 0 0)
(0.0247105 -0.00459214 0 0.00257843 0 0)
(0.039608 -0.0116415 0 0.00957371 0 0)
(0.0623349 -0.0228806 0 0.0172377 0 0)
(0.166771 -0.068803 0 0.118525 0 0)
(0.0398206 0.00626164 0 0.00116715 0 0)
(0.00953403 0.00177371 0 0.00232509 0 0)
(0.0120753 0.00188223 0 0.000932292 0 0)
(0.0192168 0.00228907 0 0.000608754 0 0)
(0.0287903 0.00380572 0 0.000814611 0 0)
(0.0308442 0.00445232 0 0.00111711 0 0)
(0.0404066 0.00546171 0 0.00130729 0 0)
(0.0382809 0.00463347 0 0.00121105 0 0)
(0.0470878 0.00447599 0 0.00111366 0 0)
(0.0435958 0.00338114 0 0.000879051 0 0)
(0.0508323 0.00356605 0 0.000745097 0 0)
(0.0459787 0.00247878 0 0.000749491 0 0)
(0.0501552 0.00280487 0 0.000905074 0 0)
(0.0435741 0.00125483 0 0.00105884 0 0)
(0.0451858 0.00175678 0 0.00157717 0 0)
(0.0385267 -0.0010097 0 0.00222557 0 0)
(0.037436 -3.20252e-05 0 0.00402949 0 0)
(0.0373797 -0.00435895 0 0.00818956 0 0)
(0.0464076 -0.0101978 0 0.0258056 0 0)
(0.105012 -0.0222461 0 0.130807 0 0)
(0.0432973 0.00554129 0 0.00089039 0 0)
(0.0105556 0.0015637 0 0.0020335 0 0)
(0.0105168 0.00168317 0 0.000929209 0 0)
(0.0178869 0.00197764 0 0.000531785 0 0)
(0.0244918 0.00313324 0 0.000676205 0 0)
(0.0263596 0.00373937 0 0.000965515 0 0)
(0.0343722 0.00477524 0 0.00118373 0 0)
(0.0336016 0.00420738 0 0.00122048 0 0)
(0.043504 0.0041293 0 0.000972034 0 0)
(0.0424628 0.00353671 0 0.000944727 0 0)
(0.0539094 0.00342425 0 0.000763625 0 0)
(0.0524715 0.00351943 0 0.000979243 0 0)
(0.0635426 0.00298342 0 0.000948557 0 0)
(0.0605476 0.0035822 0 0.00142535 0 0)
(0.0693492 0.00240146 0 0.00166719 0 0)
(0.0643971 0.00305073 0 0.00290749 0 0)
(0.0691725 0.00211349 0 0.00410976 0 0)
(0.0650157 0.00266466 0 0.0106882 0 0)
(0.0722764 0.00373726 0 0.0278448 0 0)
(0.107024 0.00666902 0 0.108618 0 0)
(0.0415655 0.00473942 0 0.000707236 0 0)
(0.00694417 0.00140316 0 0.00177314 0 0)
(0.0068715 0.00144955 0 0.00095459 0 0)
(0.0131887 0.00163736 0 0.000493737 0 0)
(0.0188113 0.00245473 0 0.000598614 0 0)
(0.0216585 0.00315749 0 0.000873134 0 0)
(0.0268578 0.00402785 0 0.00109183 0 0)
(0.0285841 0.00363236 0 0.00105017 0 0)
(0.0351368 0.00338126 0 0.00100957 0 0)
(0.037941 0.00286201 0 0.000939241 0 0)
(0.0454727 0.00295663 0 0.000862641 0 0)
(0.0497747 0.00294645 0 0.000985042 0 0)
(0.0576198 0.00283332 0 0.00111075 0 0)
(0.0624899 0.00318136 0 0.00147928 0 0)
(0.0681645 0.00290518 0 0.00183242 0 0)
(0.0737789 0.00340885 0 0.00298017 0 0)
(0.0758465 0.00332086 0 0.00440312 0 0)
(0.0815032 0.00796958 0 0.011629 0 0)
(0.0837736 0.00868368 0 0.0278805 0 0)
(0.118846 0.0290813 0 0.114816 0 0)
(0.0369431 0.00381561 0 0.000568979 0 0)
(0.00310635 0.00103585 0 0.0015436 0 0)
(0.00450837 0.00106388 0 0.000945125 0 0)
(0.0097837 0.00119007 0 0.000471114 0 0)
(0.0154195 0.00169813 0 0.000553677 0 0)
(0.0194671 0.00263513 0 0.000828904 0 0)
(0.0235769 0.00321666 0 0.00102051 0 0)
(0.0268069 0.00300825 0 0.00109135 0 0)
(0.0311462 0.00239231 0 0.000906873 0 0)
(0.0358932 0.00246684 0 0.000933947 0 0)
(0.0408949 0.00196073 0 0.00084754 0 0)
(0.0476197 0.00269075 0 0.00105753 0 0)
(0.0532406 0.00181126 0 0.00108591 0 0)
(0.0592243 0.0031209 0 0.00150639 0 0)
(0.0644674 0.00222549 0 0.0017351 0 0)
(0.0714218 0.00341598 0 0.00290072 0 0)
(0.0734463 0.0039756 0 0.00440495 0 0)
(0.0794066 0.00778658 0 0.0110785 0 0)
(0.0841354 0.0125598 0 0.0296547 0 0)
(0.115 0.0336518 0 0.102821 0 0)
(0.035488 0.00309879 0 0.000465971 0 0)
(0.00291782 0.000573009 0 0.00130616 0 0)
(0.00474013 0.000608858 0 0.000912671 0 0)
(0.00962696 0.000827772 0 0.000417145 0 0)
(0.0150911 0.00114751 0 0.00052002 0 0)
(0.0189175 0.00203031 0 0.000786095 0 0)
(0.0223824 0.00254722 0 0.00094666 0 0)
(0.0253343 0.00242058 0 0.000939318 0 0)
(0.0288422 0.00191419 0 0.000916824 0 0)
(0.0333725 0.00178015 0 0.000946639 0 0)
(0.0381718 0.0016284 0 0.000852535 0 0)
(0.044234 0.00203743 0 0.000979567 0 0)
(0.0490521 0.00151646 0 0.00104231 0 0)
(0.0546284 0.00258274 0 0.00144265 0 0)
(0.0604951 0.00178187 0 0.00153654 0 0)
(0.0653786 0.0037623 0 0.00291817 0 0)
(0.0682387 0.00368664 0 0.00406813 0 0)
(0.0734692 0.00961503 0 0.0116271 0 0)
(0.0804911 0.0135399 0 0.0288046 0 0)
(0.108936 0.035544 0 0.0994229 0 0)
(0.0358873 0.00254985 0 0.000370871 0 0)
(0.00354769 0.00023681 0 0.0010863 0 0)
(0.00444008 0.000196514 0 0.000877947 0 0)
(0.00805604 0.000578866 0 0.000416887 0 0)
(0.0134506 0.00086058 0 0.00048928 0 0)
(0.0169223 0.00158359 0 0.000727279 0 0)
(0.0196635 0.00200953 0 0.00087183 0 0)
(0.0219853 0.00207956 0 0.00090722 0 0)
(0.0254887 0.00160387 0 0.000826233 0 0)
(0.0297942 0.00153635 0 0.000842188 0 0)
(0.0341882 0.00127547 0 0.000778995 0 0)
(0.0393505 0.0018028 0 0.000922154 0 0)
(0.0441304 0.00140328 0 0.000921573 0 0)
(0.0500624 0.00227763 0 0.00127478 0 0)
(0.0543843 0.00178071 0 0.00136156 0 0)
(0.0590883 0.00319303 0 0.00264163 0 0)
(0.0623947 0.00436264 0 0.00398106 0 0)
(0.0676619 0.00956835 0 0.0112384 0 0)
(0.0752064 0.0146478 0 0.0284261 0 0)
(0.104448 0.0394897 0 0.095392 0 0)
(0.0355584 0.00209108 0 0.000296894 0 0)
(0.002464 0.000108129 0 0.000883907 0 0)
(0.0029962 -8.828e-07 0 0.000795192 0 0)
(0.00627778 0.000422604 0 0.000405251 0 0)
(0.0115597 0.000768228 0 0.000448001 0 0)
(0.0151192 0.00139265 0 0.000637507 0 0)
(0.0174675 0.00176477 0 0.000770842 0 0)
(0.0197616 0.00182903 0 0.000765822 0 0)
(0.0228287 0.00161065 0 0.000731694 0 0)
(0.0271743 0.0014416 0 0.000746078 0 0)
(0.0311601 0.00125206 0 0.000692261 0 0)
(0.036409 0.00158688 0 0.000803577 0 0)
(0.0405058 0.00137413 0 0.000777567 0 0)
(0.0460814 0.00220781 0 0.00115656 0 0)
(0.0494146 0.00168831 0 0.00116969 0 0)
(0.0550646 0.00341563 0 0.00253956 0 0)
(0.0578697 0.00427639 0 0.00392717 0 0)
(0.0642735 0.00946062 0 0.0111224 0 0)
(0.0724722 0.0158655 0 0.0279375 0 0)
(0.103415 0.0404715 0 0.0906894 0 0)
(0.0350815 0.00169322 0 0.000225271 0 0)
(0.00148717 0.000202561 0 0.00068037 0 0)
(0.00240087 0.000145614 0 0.000611068 0 0)
(0.00568738 0.000507963 0 0.00035055 0 0)
(0.0103632 0.000732992 0 0.000389416 0 0)
(0.01377 0.00134708 0 0.000538297 0 0)
(0.0158855 0.00159255 0 0.000649695 0 0)
(0.018243 0.00166699 0 0.000682183 0 0)
(0.0208852 0.00137453 0 0.000644834 0 0)
(0.0249284 0.00130818 0 0.00063532 0 0)
(0.0288068 0.00100066 0 0.000581283 0 0)
(0.0340219 0.00137357 0 0.000698187 0 0)
(0.037694 0.00100785 0 0.000653186 0 0)
(0.0428644 0.00176934 0 0.0010361 0 0)
(0.046319 0.0013298 0 0.00102594 0 0)
(0.0522698 0.00309603 0 0.0024091 0 0)
(0.055145 0.00373126 0 0.00392368 0 0)
(0.0626482 0.00932195 0 0.0111753 0 0)
(0.071563 0.0163915 0 0.0272085 0 0)
(0.103503 0.0393897 0 0.0842111 0 0)
(0.0351327 0.00134399 0 0.000174083 0 0)
(0.00132507 0.000195928 0 0.000506158 0 0)
(0.00236052 0.000185644 0 0.000454915 0 0)
(0.00539613 0.000467296 0 0.000299728 0 0)
(0.00987808 0.000531578 0 0.000363924 0 0)
(0.0129441 0.000974961 0 0.000488186 0 0)
(0.0150217 0.0012399 0 0.000599695 0 0)
(0.0170128 0.0012102 0 0.000609769 0 0)
(0.0197005 0.00095797 0 0.000636376 0 0)
(0.0231377 0.000727761 0 0.000633895 0 0)
(0.0271646 0.000618806 0 0.000576991 0 0)
(0.0318101 0.000854213 0 0.000662468 0 0)
(0.0360894 0.000648909 0 0.000603544 0 0)
(0.0407118 0.0010851 0 0.00100623 0 0)
(0.0448914 0.0010748 0 0.0009401 0 0)
(0.0496894 0.00232877 0 0.0024231 0 0)
(0.0540714 0.00368587 0 0.00390282 0 0)
(0.0610581 0.00868516 0 0.0112201 0 0)
(0.0715118 0.0171798 0 0.0267186 0 0)
(0.104349 0.0380358 0 0.0757316 0 0)
(0.0351741 0.000967623 0 0.00014508 0 0)
(0.00112389 -5.1285e-06 0 0.000409891 0 0)
(0.00215794 -8.37003e-05 0 0.000395516 0 0)
(0.0049034 0.000135025 0 0.000325658 0 0)
(0.00936782 0.000132309 0 0.000393103 0 0)
(0.01228 0.000420522 0 0.000500361 0 0)
(0.014302 0.000630139 0 0.000593418 0 0)
(0.0159483 0.000626753 0 0.000607971 0 0)
(0.0187042 0.000428464 0 0.00061824 0 0)
(0.0219415 0.000262904 0 0.000599202 0 0)
(0.0259844 0.000234185 0 0.000518569 0 0)
(0.0303165 0.000516461 0 0.000587879 0 0)
(0.0348257 0.000252721 0 0.000517552 0 0)
(0.0391353 0.00075722 0 0.00088638 0 0)
(0.0433467 0.000587962 0 0.000899567 0 0)
(0.0478273 0.00210888 0 0.0022121 0 0)
(0.0529422 0.00323508 0 0.0039226 0 0)
(0.0600175 0.00891284 0 0.0108048 0 0)
(0.0716916 0.016709 0 0.0256497 0 0)
(0.10455 0.0416351 0 0.0714056 0 0)
(0.0351149 0.000637367 0 0.00012139 0 0)
(0.00114659 -9.98452e-05 0 0.000327182 0 0)
(0.00237236 -0.000232689 0 0.00032639 0 0)
(0.00502187 -6.62706e-05 0 0.000312003 0 0)
(0.00920746 -4.04445e-05 0 0.000371178 0 0)
(0.0120622 0.00016033 0 0.000457761 0 0)
(0.0138951 0.000269864 0 0.000540289 0 0)
(0.0156863 0.000262431 0 0.00055477 0 0)
(0.0181398 0.000167141 0 0.000551371 0 0)
(0.0215167 0.000138734 0 0.000522882 0 0)
(0.0252414 0.000108552 0 0.000434707 0 0)
(0.029711 0.000335734 0 0.000519825 0 0)
(0.0337153 8.54099e-05 0 0.000435499 0 0)
(0.0381978 0.000511524 0 0.000806506 0 0)
(0.0418279 0.000366687 0 0.000901543 0 0)
(0.04703 0.0018565 0 0.00200642 0 0)
(0.0519123 0.00307061 0 0.00414637 0 0)
(0.0600922 0.00881595 0 0.0100319 0 0)
(0.0728267 0.0167401 0 0.0260083 0 0)
(0.107198 0.0430666 0 0.0661116 0 0)
(0.0350679 0.00038935 0 9.61793e-05 0 0)
(0.00121083 -5.45768e-05 0 0.00023164 0 0)
(0.00255832 -0.000105936 0 0.000220765 0 0)
(0.00515696 2.48342e-05 0 0.000225271 0 0)
(0.00905942 4.20343e-05 0 0.0002868 0 0)
(0.0119054 0.000139609 0 0.000346429 0 0)
(0.0136763 0.000271498 0 0.000410113 0 0)
(0.0156501 0.000178714 0 0.000414144 0 0)
(0.0179723 0.000189177 0 0.000427635 0 0)
(0.0212726 6.88609e-05 0 0.000407282 0 0)
(0.0246695 0.000100525 0 0.000349353 0 0)
(0.0290174 0.000121947 0 0.000438371 0 0)
(0.0328056 1.17157e-05 0 0.000364269 0 0)
(0.0374977 0.000182434 0 0.000704993 0 0)
(0.0410752 0.000348787 0 0.000828116 0 0)
(0.0466253 0.00150138 0 0.00188807 0 0)
(0.0514658 0.00322609 0 0.00403491 0 0)
(0.0607844 0.00830207 0 0.00975736 0 0)
(0.0742757 0.0174199 0 0.025003 0 0)
(0.108503 0.0394362 0 0.0571774 0 0)
(0.0350623 0.00011616 0 8.03779e-05 0 0)
(0.00102999 -2.18891e-05 0 0.00018245 0 0)
(0.00223778 -6.81005e-06 0 0.000157804 0 0)
(0.00474585 7.74566e-05 0 0.000173997 0 0)
(0.00867766 3.15807e-05 0 0.000233563 0 0)
(0.0114869 8.49074e-05 0 0.000278592 0 0)
(0.0132657 0.000130981 0 0.000315131 0 0)
(0.0150746 0.000149048 0 0.000319352 0 0)
(0.0175465 8.31936e-05 0 0.000330317 0 0)
(0.0207406 2.06451e-05 0 0.000339071 0 0)
(0.0242645 -0.00016659 0 0.000304014 0 0)
(0.0282904 5.9714e-05 0 0.000392063 0 0)
(0.0323669 -0.000313854 0 0.000310979 0 0)
(0.0368656 0.00020117 0 0.000656845 0 0)
(0.0409127 -5.05589e-05 0 0.000707877 0 0)
(0.0460561 0.00164151 0 0.00195914 0 0)
(0.0516207 0.00273441 0 0.00342785 0 0)
(0.0612225 0.00855295 0 0.0104877 0 0)
(0.0760518 0.0167736 0 0.0213754 0 0)
(0.111125 0.0367602 0 0.0575356 0 0)
(0.0350034 -0.000129995 0 7.39784e-05 0 0)
(0.000737193 -5.9335e-05 0 0.000174611 0 0)
(0.00188281 -5.79316e-05 0 0.000152005 0 0)
(0.00440105 -5.83739e-05 0 0.000170993 0 0)
(0.00843274 -6.48791e-05 0 0.000219618 0 0)
(0.011181 -0.000180125 0 0.000256714 0 0)
(0.0129418 -0.000130322 0 0.000285359 0 0)
(0.014546 -0.000217758 0 0.000301583 0 0)
(0.0170744 -0.000103503 0 0.000300911 0 0)
(0.0202874 -0.00029574 0 0.000326157 0 0)
(0.024056 -0.000283278 0 0.000278728 0 0)
(0.0279979 -0.00031425 0 0.000380137 0 0)
(0.0322114 -0.000338595 0 0.000282336 0 0)
(0.0364872 -0.000275114 0 0.000601379 0 0)
(0.0408441 2.82208e-05 0 0.000771468 0 0)
(0.0459453 0.000902903 0 0.00174844 0 0)
(0.0522852 0.00293782 0 0.00377208 0 0)
(0.0621655 0.00745198 0 0.00943905 0 0)
(0.0782469 0.017292 0 0.0215623 0 0)
(0.114443 0.0331173 0 0.0519077 0 0)
(0.0349713 -0.000424969 0 7.43473e-05 0 0)
(0.000682807 -0.000122003 0 0.000193452 0 0)
(0.00183841 -0.000125482 0 0.000168771 0 0)
(0.00440623 -0.000199528 0 0.000173949 0 0)
(0.00846904 -0.000223034 0 0.000219355 0 0)
(0.0111966 -0.000408203 0 0.000242761 0 0)
(0.012971 -0.000475479 0 0.000282512 0 0)
(0.0145486 -0.000540502 0 0.000304487 0 0)
(0.0170791 -0.000456189 0 0.000309005 0 0)
(0.0202918 -0.000492292 0 0.000307889 0 0)
(0.0241901 -0.000561753 0 0.000278783 0 0)
(0.0281766 -0.000477446 0 0.000344484 0 0)
(0.0324686 -0.000705824 0 0.000295381 0 0)
(0.0367331 -0.000438177 0 0.000540613 0 0)
(0.0412537 -0.000519889 0 0.000804093 0 0)
(0.0467026 0.00077116 0 0.00166318 0 0)
(0.0536183 0.00215209 0 0.00366921 0 0)
(0.0641165 0.00752083 0 0.00907284 0 0)
(0.0812548 0.0157054 0 0.0202917 0 0)
(0.117509 0.0357157 0 0.0492658 0 0)
(0.0349275 -0.000705441 0 8.0229e-05 0 0)
(0.000744721 -0.000159158 0 0.000236348 0 0)
(0.00192037 -0.000143509 0 0.000197682 0 0)
(0.00458781 -0.0002841 0 0.000174303 0 0)
(0.00867975 -0.000339528 0 0.000215556 0 0)
(0.0114855 -0.000636061 0 0.000244655 0 0)
(0.0132783 -0.000735045 0 0.000287044 0 0)
(0.0150018 -0.000836719 0 0.000323035 0 0)
(0.0175013 -0.000691838 0 0.000313836 0 0)
(0.0207741 -0.000709078 0 0.000315278 0 0)
(0.0246639 -0.000769764 0 0.0002867 0 0)
(0.0287732 -0.000728344 0 0.000340623 0 0)
(0.0330768 -0.00097717 0 0.000312808 0 0)
(0.0375211 -0.000744828 0 0.000511951 0 0)
(0.042201 -0.00090225 0 0.000847574 0 0)
(0.0480396 0.000501645 0 0.00161437 0 0)
(0.0553121 0.00160924 0 0.00362296 0 0)
(0.0665601 0.00736441 0 0.00875787 0 0)
(0.0851344 0.0143726 0 0.0195479 0 0)
(0.122593 0.0372493 0 0.0465917 0 0)
(0.0348623 -0.000998915 0 9.05661e-05 0 0)
(0.000728687 -0.000177682 0 0.000301234 0 0)
(0.00192233 -0.000137595 0 0.000238689 0 0)
(0.00479326 -0.000348832 0 0.000172533 0 0)
(0.0089594 -0.000429781 0 0.000209113 0 0)
(0.0118579 -0.000860662 0 0.000254322 0 0)
(0.0137063 -0.000951707 0 0.000291747 0 0)
(0.0156012 -0.00113214 0 0.00035403 0 0)
(0.0181407 -0.00084359 0 0.00030802 0 0)
(0.0215201 -0.000951478 0 0.000326891 0 0)
(0.0254243 -0.000864117 0 0.000273569 0 0)
(0.0297117 -0.00108356 0 0.000364651 0 0)
(0.0340674 -0.00105804 0 0.000305556 0 0)
(0.0387052 -0.0012545 0 0.000546869 0 0)
(0.043587 -0.00088487 0 0.000842206 0 0)
(0.0497573 -0.000241499 0 0.00162802 0 0)
(0.0574122 0.00175299 0 0.00359502 0 0)
(0.0695218 0.00605546 0 0.00815644 0 0)
(0.0894689 0.0145125 0 0.0193818 0 0)
(0.126807 0.0318855 0 0.0381304 0 0)
(0.034786 -0.00134359 0 0.00011267 0 0)
(0.000648895 -0.000209789 0 0.000391996 0 0)
(0.00181397 -0.00015142 0 0.000315871 0 0)
(0.00494189 -0.000399182 0 0.000168415 0 0)
(0.00930586 -0.000561821 0 0.000211134 0 0)
(0.0123441 -0.00106489 0 0.000275543 0 0)
(0.0142811 -0.00126518 0 0.000337702 0 0)
(0.0162907 -0.00136811 0 0.000391587 0 0)
(0.0189482 -0.00113887 0 0.000345489 0 0)
(0.0224585 -0.0011187 0 0.000336611 0 0)
(0.0265008 -0.00116034 0 0.000308209 0 0)
(0.0309455 -0.00125233 0 0.000371673 0 0)
(0.035437 -0.00141938 0 0.000340211 0 0)
(0.0402611 -0.00145378 0 0.000577173 0 0)
(0.0453793 -0.00133048 0 0.000794511 0 0)
(0.0518237 -0.000489156 0 0.00180117 0 0)
(0.0600676 0.00111595 0 0.00307867 0 0)
(0.0730561 0.00547914 0 0.00872817 0 0)
(0.0943906 0.0130402 0 0.0165614 0 0)
(0.132226 0.0276848 0 0.0387098 0 0)
(0.0347115 -0.00169227 0 0.000145197 0 0)
(0.00061573 -0.000273833 0 0.000525934 0 0)
(0.00177564 -0.000216626 0 0.000411576 0 0)
(0.00518031 -0.000492149 0 0.000185873 0 0)
(0.00976085 -0.000686327 0 0.000222405 0 0)
(0.0129954 -0.00137362 0 0.00032815 0 0)
(0.0150937 -0.00152927 0 0.000387369 0 0)
(0.0172601 -0.0017523 0 0.000479633 0 0)
(0.0200601 -0.00133438 0 0.000374767 0 0)
(0.0237462 -0.00148623 0 0.000395569 0 0)
(0.0279648 -0.00130969 0 0.000314928 0 0)
(0.0325899 -0.00168963 0 0.000404935 0 0)
(0.0372571 -0.00153125 0 0.000350408 0 0)
(0.0423003 -0.00203226 0 0.00059222 0 0)
(0.0476473 -0.00142886 0 0.000845304 0 0)
(0.0545219 -0.00129767 0 0.00176462 0 0)
(0.0634645 0.000906703 0 0.0031819 0 0)
(0.0774451 0.00401924 0 0.00830253 0 0)
(0.0999631 0.0121013 0 0.0158426 0 0)
(0.139184 0.023229 0 0.0385746 0 0)
(0.0346709 -0.00213592 0 0.000194574 0 0)
(0.000635761 -0.000357216 0 0.000672436 0 0)
(0.0018579 -0.000318073 0 0.000540685 0 0)
(0.0056173 -0.000600281 0 0.000196298 0 0)
(0.0104025 -0.00089563 0 0.000245144 0 0)
(0.013832 -0.00164485 0 0.000381934 0 0)
(0.0161586 -0.00189555 0 0.000472311 0 0)
(0.0185699 -0.00205244 0 0.00055742 0 0)
(0.0215523 -0.00166671 0 0.000444508 0 0)
(0.025448 -0.00172375 0 0.000436227 0 0)
(0.0298505 -0.00164793 0 0.00036595 0 0)
(0.034722 -0.00194956 0 0.000439597 0 0)
(0.0396763 -0.00192718 0 0.000402763 0 0)
(0.0449945 -0.00235846 0 0.000619982 0 0)
(0.0506852 -0.00196861 0 0.000893372 0 0)
(0.058003 -0.00169996 0 0.00171579 0 0)
(0.0677181 -1.33193e-05 0 0.00321316 0 0)
(0.0825913 0.00323805 0 0.00765025 0 0)
(0.106504 0.00968085 0 0.0156132 0 0)
(0.146773 0.0224819 0 0.0352967 0 0)
(0.034816 -0.00260582 0 0.000262446 0 0)
(0.000720543 -0.00046924 0 0.000871442 0 0)
(0.00208107 -0.000463149 0 0.000649969 0 0)
(0.00624788 -0.000740153 0 0.000227318 0 0)
(0.0112996 -0.00112439 0 0.000279254 0 0)
(0.0149055 -0.00200139 0 0.000465364 0 0)
(0.0175798 -0.0022582 0 0.000566223 0 0)
(0.0202456 -0.00245056 0 0.000666241 0 0)
(0.0235022 -0.00198053 0 0.000511933 0 0)
(0.0276232 -0.00207621 0 0.000499909 0 0)
(0.0322424 -0.00193907 0 0.000394978 0 0)
(0.0374714 -0.00239706 0 0.000493915 0 0)
(0.0426807 -0.00225362 0 0.000432639 0 0)
(0.0484556 -0.00292156 0 0.000693136 0 0)
(0.0544896 -0.00239829 0 0.000903405 0 0)
(0.0623894 -0.00243439 0 0.00180319 0 0)
(0.0726652 -0.000768178 0 0.00316978 0 0)
(0.0886361 0.00198436 0 0.0073879 0 0)
(0.114106 0.00739156 0 0.0154925 0 0)
(0.155752 0.020734 0 0.0337692 0 0)
(0.0354571 -0.0031874 0 0.000359185 0 0)
(0.000906963 -0.000611966 0 0.00111376 0 0)
(0.00254457 -0.000700533 0 0.000734382 0 0)
(0.00702947 -0.000926151 0 0.000277702 0 0)
(0.0126836 -0.00145128 0 0.000341606 0 0)
(0.0160257 -0.00239404 0 0.000579687 0 0)
(0.0196568 -0.00274241 0 0.000701952 0 0)
(0.0220288 -0.00288684 0 0.00081301 0 0)
(0.026235 -0.00240225 0 0.000615214 0 0)
(0.029968 -0.00246488 0 0.000600882 0 0)
(0.0354568 -0.00228988 0 0.000443385 0 0)
(0.0403998 -0.0028954 0 0.000586435 0 0)
(0.0465364 -0.00259846 0 0.000467657 0 0)
(0.0522067 -0.003572 0 0.000817918 0 0)
(0.0592505 -0.00273638 0 0.000886967 0 0)
(0.0672803 -0.00341994 0 0.00195808 0 0)
(0.0785458 -0.00120688 0 0.00299855 0 0)
(0.0954165 3.62307e-05 0 0.00728965 0 0)
(0.122394 0.00615146 0 0.0146306 0 0)
(0.165254 0.0145975 0 0.0312525 0 0)
(0.0364475 -0.0038909 0 0.000492549 0 0)
(0.00127712 -0.000776744 0 0.0013876 0 0)
(0.00342526 -0.00103865 0 0.000799599 0 0)
(0.00795559 -0.00115012 0 0.000339742 0 0)
(0.0148728 -0.00192128 0 0.000427026 0 0)
(0.017074 -0.00275202 0 0.000691969 0 0)
(0.0227896 -0.00338267 0 0.000860601 0 0)
(0.0236321 -0.00324164 0 0.000934195 0 0)
(0.0303191 -0.0030461 0 0.000755961 0 0)
(0.0321477 -0.00273903 0 0.000674082 0 0)
(0.0402775 -0.00285928 0 0.000523332 0 0)
(0.0430866 -0.00318269 0 0.000640986 0 0)
(0.052234 -0.00326574 0 0.000553298 0 0)
(0.0557014 -0.00390745 0 0.000892448 0 0)
(0.0660529 -0.00354782 0 0.000941139 0 0)
(0.0719649 -0.00390543 0 0.00203572 0 0)
(0.0863533 -0.00232261 0 0.00287992 0 0)
(0.101592 -0.000882156 0 0.00727008 0 0)
(0.13079 0.00434686 0 0.013166 0 0)
(0.172445 0.0119707 0 0.0315737 0 0)
(0.0369074 -0.00466306 0 0.000670263 0 0)
(0.00176896 -0.00101348 0 0.00171099 0 0)
(0.00459511 -0.00145492 0 0.000867454 0 0)
(0.00900524 -0.00146279 0 0.000435516 0 0)
(0.0176223 -0.0025296 0 0.000544145 0 0)
(0.0183071 -0.00318576 0 0.000835595 0 0)
(0.0267831 -0.00410484 0 0.00102399 0 0)
(0.0252997 -0.00364201 0 0.00107708 0 0)
(0.0356438 -0.00380765 0 0.000897914 0 0)
(0.0343359 -0.00310733 0 0.000772656 0 0)
(0.0468132 -0.00352889 0 0.000592962 0 0)
(0.0456262 -0.00354679 0 0.000706183 0 0)
(0.059827 -0.00398776 0 0.000611105 0 0)
(0.0582487 -0.00430685 0 0.000983071 0 0)
(0.0740203 -0.00428616 0 0.000974445 0 0)
(0.0737362 -0.00429906 0 0.0020857 0 0)
(0.0925981 -0.0029889 0 0.00281364 0 0)
(0.100393 -0.000677943 0 0.0068327 0 0)
(0.130428 0.00499528 0 0.0120216 0 0)
(0.165555 0.0169156 0 0.0298893 0 0)
(0.0363868 -0.00543531 0 0.000892065 0 0)
(0.00230551 -0.00132859 0 0.00204477 0 0)
(0.00561081 -0.00181527 0 0.000930073 0 0)
(0.0101643 -0.00185348 0 0.000540741 0 0)
(0.0201911 -0.00324099 0 0.000696677 0 0)
(0.0202956 -0.00373692 0 0.000999983 0 0)
(0.0307715 -0.00487319 0 0.00120776 0 0)
(0.0278233 -0.0041011 0 0.00121835 0 0)
(0.040726 -0.00457576 0 0.00105693 0 0)
(0.0367493 -0.00350497 0 0.000868385 0 0)
(0.051997 -0.0041867 0 0.000678282 0 0)
(0.0465065 -0.00377984 0 0.000760432 0 0)
(0.0627242 -0.00446386 0 0.000666303 0 0)
(0.0547258 -0.00425129 0 0.00103522 0 0)
(0.0707824 -0.00426344 0 0.000978674 0 0)
(0.0622432 -0.003586 0 0.00202204 0 0)
(0.0786816 -0.00168837 0 0.00265432 0 0)
(0.0779544 0.00198432 0 0.00596714 0 0)
(0.103918 0.0108944 0 0.0109028 0 0)
(0.141604 0.028332 0 0.0247238 0 0)
(0.0353184 -0.0061986 0 0.00117626 0 0)
(0.00272518 -0.00167772 0 0.00237464 0 0)
(0.00633675 -0.00203082 0 0.000972287 0 0)
(0.0115677 -0.00228039 0 0.000659528 0 0)
(0.0226023 -0.00392747 0 0.000871068 0 0)
(0.0231858 -0.00437883 0 0.00117968 0 0)
(0.0339552 -0.00548635 0 0.00137713 0 0)
(0.0298435 -0.00441965 0 0.00133091 0 0)
(0.041042 -0.00481956 0 0.00115395 0 0)
(0.0340133 -0.0033839 0 0.000899233 0 0)
(0.0448656 -0.00398998 0 0.000706478 0 0)
(0.0352338 -0.00301002 0 0.000733344 0 0)
(0.044207 -0.00356737 0 0.000656348 0 0)
(0.0327903 -0.00243148 0 0.000955965 0 0)
(0.039933 -0.00241858 0 0.000897383 0 0)
(0.031187 -0.000363754 0 0.00176226 0 0)
(0.0394938 0.00163426 0 0.00226712 0 0)
(0.0450548 0.00774943 0 0.00492922 0 0)
(0.0716958 0.0179322 0 0.00880423 0 0)
(0.134752 0.0410046 0 0.0187049 0 0)
(0.0342342 -0.00704515 0 0.00155831 0 0)
(0.00302101 -0.00211329 0 0.00263836 0 0)
(0.00710139 -0.00226146 0 0.00104982 0 0)
(0.0134597 -0.00280314 0 0.000817042 0 0)
(0.024039 -0.00449325 0 0.00106574 0 0)
(0.0235732 -0.00463731 0 0.00134038 0 0)
(0.0291514 -0.00507213 0 0.00146954 0 0)
(0.0216324 -0.00341058 0 0.00134465 0 0)
(0.0242911 -0.00323079 0 0.00110645 0 0)
(0.0161943 -0.00151602 0 0.000808291 0 0)
(0.0174713 -0.00175264 0 0.000605704 0 0)
(0.0120932 -0.000411371 0 0.00060003 0 0)
(0.012137 -0.000658018 0 0.000524944 0 0)
(0.0115636 0.00106072 0 0.000760702 0 0)
(0.0123415 0.000927535 0 0.000689355 0 0)
(0.0201417 0.00390485 0 0.00138366 0 0)
(0.0273549 0.00529837 0 0.00172864 0 0)
(0.0553229 0.0129446 0 0.00373596 0 0)
(0.0945862 0.0225552 0 0.00663911 0 0)
(0.191146 0.0453252 0 0.0126666 0 0)
(0.0340737 -0.00812592 0 0.00207455 0 0)
(0.00360663 -0.00278179 0 0.00292212 0 0)
(0.00772866 -0.0025862 0 0.00126258 0 0)
(0.0129414 -0.00304878 0 0.00104849 0 0)
(0.0167653 -0.00379173 0 0.00120692 0 0)
(0.0114347 -0.00267962 0 0.00132942 0 0)
(0.00907101 -0.00183356 0 0.00132119 0 0)
(0.00551811 0.000156302 0 0.00111216 0 0)
(0.00591861 0.000496979 0 0.000844768 0 0)
(0.0112421 0.00174282 0 0.000574236 0 0)
(0.011739 0.00152257 0 0.000409767 0 0)
(0.0257724 0.00263561 0 0.000393948 0 0)
(0.0250199 0.00242996 0 0.00034749 0 0)
(0.0484268 0.00408759 0 0.000507331 0 0)
(0.0493154 0.00361782 0 0.000461168 0 0)
(0.0825582 0.00680757 0 0.000954028 0 0)
(0.0946657 0.00698793 0 0.00117728 0 0)
(0.146931 0.0154451 0 0.00259803 0 0)
(0.203267 0.0214824 0 0.0043852 0 0)
(0.32724 0.0452157 0 0.00833165 0 0)
(0.0363393 -0.00995174 0 0.00289835 0 0)
(0.00376937 -0.00315883 0 0.00326512 0 0)
(0.00500957 -0.00175425 0 0.00144831 0 0)
(0.00510903 -0.000994933 0 0.00107308 0 0)
(0.0032801 -2.80507e-05 0 0.0010108 0 0)
(0.00573455 0.00188382 0 0.000977736 0 0)
(0.0131239 0.00289397 0 0.000892505 0 0)
(0.0322861 0.00390577 0 0.000697534 0 0)
(0.0453515 0.00361273 0 0.000494659 0 0)
(0.0735276 0.00393101 0 0.000321732 0 0)
(0.0819846 0.00352424 0 0.000221098 0 0)
(0.117609 0.00417162 0 0.00021432 0 0)