/*--------------------------------*- C++ -*----------------------------------*\
| =========                 |                                                 |
| \\      /  F ield         | OpenFOAM: The Open Source CFD Toolbox           |
|  \\    /   O peration     | Version:  2.4.0                                 |
|   \\  /    A nd           | Web:      www.OpenFOAM.org                      |
|    \\/     M anipulation  |                                                 |
\*---------------------------------------------------------------------------*/
FoamFile
{
    version     2.0;
    format      ascii;
    class       volScalarField;
    location    "0.039";
    object      nuSgs;
}
// * * * * * * * * * * * * * * * * * * * * * * * * * * * * * * * * * * * * * //

dimensions      [0 2 -1 0 0 0 0];

internalField   nonuniform List<scalar> 
4400
(
0.00205347
0.00193513
0.00169754
0.00153006
0.00142477
0.00137787
0.0013227
0.00129704
0.00130226
0.00118729
0.0013981
0.00172615
0.00172518
0.00166996
0.00158066
0.00153209
0.00147066
0.00144078
0.00143372
0.00139462
0.000727217
0.00117849
0.00136401
0.00141692
0.0014028
0.00138212
0.00134339
0.00132172
0.00130754
0.00129482
0.000272788
0.000646468
0.000865321
0.00101464
0.00108169
0.00111475
0.00112259
0.0011213
0.00111737
0.00111433
8.87488e-05
0.000273336
0.000415589
0.000576646
0.000690303
0.000758355
0.000826811
0.000847541
0.000877274
0.000878882
2.5939e-05
9.2758e-05
0.000151296
0.000233066
0.000344776
0.000394992
0.000493904
0.000525576
0.000587472
0.000601833
7.91084e-06
2.92249e-05
4.47235e-05
7.21042e-05
0.000120399
0.000148523
0.000218798
0.00024544
0.00029746
0.000330654
4.28164e-06
1.19524e-05
1.48355e-05
2.05651e-05
3.09124e-05
3.89448e-05
6.90185e-05
8.01742e-05
9.9926e-05
0.000129747
3.87162e-06
7.90707e-06
9.98106e-06
1.11729e-05
1.16487e-05
1.20549e-05
1.80993e-05
2.00858e-05
2.43323e-05
3.19459e-05
3.82326e-06
7.11489e-06
9.40556e-06
1.00376e-05
9.99474e-06
9.65002e-06
9.79354e-06
9.91117e-06
1.03288e-05
1.1205e-05
3.83394e-06
6.88403e-06
9.24952e-06
1.0047e-05
1.00119e-05
9.78529e-06
9.67434e-06
1.02302e-05
1.11393e-05
1.42028e-05
3.87339e-06
6.34855e-06
1.00445e-05
1.12933e-05
1.18953e-05
1.376e-05
1.55074e-05
2.40464e-05
3.13206e-05
4.8588e-05
4.22948e-06
8.74187e-06
1.60469e-05
2.30819e-05
3.01856e-05
4.67762e-05
5.99157e-05
9.34471e-05
0.000115298
0.000165578
7.74888e-06
2.52867e-05
4.8928e-05
8.23296e-05
0.000109924
0.000165569
0.000201171
0.000272654
0.000307893
0.000387658
2.5186e-05
8.50853e-05
0.000162708
0.000254445
0.000317607
0.000418576
0.000476266
0.000558525
0.000591353
0.000662982
8.62051e-05
0.000254509
0.000442661
0.000573778
0.000685154
0.000769189
0.000822417
0.000866685
0.000884341
0.000923097
0.000265577
0.000638947
0.000879809
0.00100735
0.00108707
0.00111197
0.0011288
0.00112669
0.00112717
0.00113225
0.000711072
0.00118376
0.00137036
0.0014118
0.00140718
0.00137311
0.00135578
0.0013169
0.00130848
0.00129096
0.00139144
0.00173216
0.00172703
0.0016631
0.00159333
0.00151231
0.00148475
0.00142659
0.00141489
0.00137106
0.00204945
0.00193991
0.00169621
0.00152508
0.0014362
0.00135738
0.00133134
0.00127456
0.00125846
0.00118258
0.000536697
0.000473676
0.000430487
0.000407634
0.000314796
0.000236874
0.00023036
0.000234801
0.000229659
0.000199121
0.000180944
0.000184923
0.000215487
0.000236093
0.00024829
0.000255183
0.00024697
0.00022374
0.000160436
0.00010849
8.3615e-05
7.62153e-05
7.69983e-05
8.06212e-05
0.000102168
0.000108603
0.000108081
0.000118775
0.000123327
0.000119976
0.000108182
9.49683e-05
8.20026e-05
7.34811e-05
6.9847e-05
6.61287e-05
5.89475e-05
4.93365e-05
3.94213e-05
3.04626e-05
2.29617e-05
1.69695e-05
1.23271e-05
8.81179e-06
6.20252e-06
4.30207e-06
2.94287e-06
1.98759e-06
1.32707e-06
8.77366e-07
5.75157e-07
3.74788e-07
2.42869e-07
1.57423e-07
1.01814e-07
6.73569e-08
4.66763e-08
4.00144e-08
5.14579e-08
8.4353e-08
1.96574e-07
3.25191e-07
9.03818e-07
1.06193e-06
2.87348e-06
2.78082e-06
5.51472e-06
5.12111e-06
8.17837e-06
7.71228e-06
1.08494e-05
1.0522e-05
1.35386e-05
1.35634e-05
1.68555e-05
1.71984e-05
2.03048e-05
2.10975e-05
2.51519e-05
2.54173e-05
3.23215e-05
3.1478e-05
3.80938e-05
3.66324e-05
4.0392e-05
3.54422e-05
3.36446e-05
2.39337e-05
2.02257e-05
1.26306e-05
9.76364e-06
5.85382e-06
5.94853e-06
6.19628e-06
8.72208e-06
9.25871e-06
1.74159e-05
2.47015e-05
6.55467e-05
0.000214052
0.000658432
0.00057393
0.000495498
0.000479287
0.00044004
0.000367785
0.00034294
0.00034068
0.000319145
0.000239253
0.000209708
0.000224867
0.000266843
0.000275001
0.000273448
0.000265709
0.00024094
0.0001702
0.000110389
8.16419e-05
7.36259e-05
7.45142e-05
8.30969e-05
9.3418e-05
0.000121657
0.000137019
0.000132187
0.000126983
0.000125822
0.000122878
0.000112299
9.81759e-05
8.4704e-05
7.57418e-05
7.05209e-05
6.4671e-05
5.65342e-05
4.70832e-05
3.77305e-05
2.93593e-05
2.23054e-05
1.65947e-05
1.21131e-05
8.68753e-06
6.12877e-06
4.25721e-06
2.91492e-06
1.96986e-06
1.31567e-06
8.69994e-07
5.70361e-07
3.71717e-07
2.40888e-07
1.56319e-07
1.01113e-07
6.77482e-08
4.67005e-08
4.55183e-08
5.93496e-08
1.09281e-07
2.34252e-07
4.26337e-07
9.5887e-07
1.30453e-06
2.83665e-06
3.16702e-06
4.33551e-06
5.13051e-06
5.6476e-06
6.16192e-06
9.1868e-06
9.18984e-06
1.34092e-05
1.30366e-05
1.6688e-05
1.65484e-05
2.01418e-05
2.00748e-05
2.1184e-05
2.27877e-05
2.37564e-05
2.58148e-05
2.84664e-05
3.14182e-05
3.87171e-05
4.12972e-05
5.3035e-05
5.3308e-05
5.7011e-05
4.66128e-05
3.96534e-05
2.30982e-05
1.78511e-05
1.06866e-05
1.33518e-05
1.19253e-05
2.3917e-05
2.67672e-05
7.54463e-05
0.000183732
0.000642653
0.000584683
0.00050963
0.000483582
0.00047323
0.000436212
0.000404826
0.000391964
0.00037673
0.000323129
0.000297226
0.000300255
0.00029469
0.00028591
0.000274818
0.00024869
0.00017358
0.00011133
7.99593e-05
7.11715e-05
7.23783e-05
8.15516e-05
0.00011204
0.000134904
0.000154802
0.000164349
0.000161742
0.000144466
0.000134201
0.000127269
0.000116294
0.000102295
8.8462e-05
7.81915e-05
7.06343e-05
6.28826e-05
5.39673e-05
4.46095e-05
3.57288e-05
2.7878e-05
2.12647e-05
1.58905e-05
1.16499e-05
8.38741e-06
5.93609e-06
4.13474e-06
2.83806e-06
1.92235e-06
1.28677e-06
8.52723e-07
5.60206e-07
3.659e-07
2.37574e-07
1.5463e-07
1.00145e-07
6.82389e-08
4.71535e-08
5.15973e-08
7.03139e-08
1.45585e-07
2.85281e-07
5.86466e-07
1.0404e-06
1.62542e-06
2.44061e-06
3.15559e-06
3.26709e-06
3.92054e-06
6.86433e-06
6.68982e-06
1.40563e-05
1.24608e-05
1.83627e-05
1.6749e-05
2.01596e-05
1.94723e-05
2.20234e-05
2.20275e-05
2.33554e-05
2.44644e-05
2.59751e-05
2.65208e-05
2.82288e-05
3.03084e-05
3.19213e-05
3.50713e-05
4.18116e-05
4.70877e-05
6.74058e-05
6.82166e-05
8.96857e-05
7.18108e-05
6.79102e-05
3.9136e-05
3.50846e-05
2.0296e-05
4.62386e-05
3.40593e-05
8.48445e-05
0.000157425
0.000568037
0.000534369
0.000482052
0.00043766
0.000432336
0.000427531
0.000408024
0.000375084
0.00036387
0.000355259
0.000348826
0.000327615
0.000297867
0.000274302
0.000240194
0.00016528
0.000108708
7.76152e-05
6.83812e-05
6.98717e-05
8.09657e-05
0.000109798
0.000164436
0.000196994
0.000199534
0.000195824
0.000188581
0.000168134
0.000146824
0.000132058
0.000119438
0.000105979
9.19252e-05
7.97895e-05
6.98684e-05
6.05248e-05
5.11915e-05
4.21488e-05
3.38319e-05
2.65141e-05
2.03086e-05
1.52183e-05
1.11707e-05
8.0438e-06
5.69147e-06
3.96365e-06
2.72137e-06
1.84508e-06
1.2372e-06
8.21944e-07
5.41697e-07
3.55161e-07
2.31503e-07
1.51474e-07
9.84415e-08
6.82793e-08
4.8179e-08
5.60086e-08
7.94993e-08
1.75336e-07
3.15201e-07
6.95622e-07
1.0344e-06
1.98302e-06
2.06935e-06
2.84556e-06
3.43838e-06
4.07152e-06
8.02539e-06
8.23208e-06
1.13088e-05
1.23496e-05
1.17142e-05
1.42835e-05
1.41236e-05
1.70642e-05
1.71558e-05
1.95804e-05
1.97676e-05
2.2283e-05
2.31391e-05
2.56696e-05
2.67078e-05
2.91987e-05
3.1412e-05
3.35986e-05
3.94375e-05
4.23988e-05
5.22536e-05
5.99996e-05
9.78521e-05
9.72245e-05
0.000144624
0.000103125
0.000115822
6.53988e-05
7.12274e-05
4.86249e-05
8.06916e-05
0.000131014
0.000456503
0.000440213
0.000418332
0.000370838
0.000357935
0.000366416
0.000364404
0.000337216
0.000309719
0.000307005
0.00030347
0.000285768
0.000251045
0.000205511
0.000145635
9.95524e-05
7.2861e-05
6.46606e-05
6.67178e-05
7.99324e-05
0.00011264
0.000169354
0.000228718
0.000248498
0.000246755
0.000235317
0.000215099
0.000187122
0.000158944
0.000140218
0.00012727
0.000112278
9.53558e-05
8.03071e-05
6.81295e-05
5.78791e-05
4.86798e-05
4.02297e-05
3.25298e-05
2.56766e-05
1.97683e-05
1.48525e-05
1.09059e-05
7.84202e-06
5.53465e-06
3.84281e-06
2.63045e-06
1.77883e-06
1.19065e-06
7.90454e-07
5.21197e-07
3.42359e-07
2.23773e-07
1.47156e-07
9.60286e-08
6.78088e-08
4.95661e-08
6.03795e-08
8.94575e-08
1.98948e-07
3.4114e-07
7.75401e-07
9.7846e-07
1.929e-06
1.86897e-06
2.41128e-06
3.52065e-06
4.42961e-06
6.3928e-06
7.91184e-06
7.42266e-06
9.93543e-06
9.63266e-06
1.20123e-05
1.20303e-05
1.47444e-05
1.45637e-05
1.67675e-05
1.67991e-05
1.91239e-05
1.93379e-05
2.26781e-05
2.32228e-05
2.62961e-05
2.70778e-05
3.03134e-05
3.38202e-05
3.72258e-05
4.30606e-05
4.87781e-05
7.01795e-05
8.14144e-05
0.000165419
0.000150849
0.000283744
0.000208835
0.000231236
0.000118648
0.000108853
0.000121566
0.000316042
0.000311752
0.000309216
0.00028217
0.000259991
0.000267797
0.000270161
0.000255523
0.000228355
0.000224118
0.000215587
0.000187897
0.000147793
0.000112214
8.06644e-05
6.21283e-05
5.88608e-05
6.23151e-05
7.74332e-05
0.000113774
0.000174308
0.000249368
0.000278914
0.000280499
0.000274765
0.000263963
0.000239423
0.000205559
0.000174066
0.000149435
0.000130875
0.000114024
9.64269e-05
7.99948e-05
6.66843e-05
5.6313e-05
4.75691e-05
3.9619e-05
3.22631e-05
2.55947e-05
1.97658e-05
1.4874e-05
1.0926e-05
7.85125e-06
5.53115e-06
3.82917e-06
2.61154e-06
1.75904e-06
1.17284e-06
7.75988e-07
5.10327e-07
3.34713e-07
2.18656e-07
1.44068e-07
9.42374e-08
6.7631e-08
5.22815e-08
6.66584e-08
1.05105e-07
2.2758e-07
3.84065e-07
8.42066e-07
9.69238e-07
1.84659e-06
1.66867e-06
2.22149e-06
3.0979e-06
4.59815e-06
4.90411e-06
6.99067e-06
6.59344e-06
7.88528e-06
7.38125e-06
9.56089e-06
9.14953e-06
1.14013e-05
1.18928e-05
1.44058e-05
1.38215e-05
1.66111e-05
1.66611e-05
1.98177e-05
2.00619e-05
2.44288e-05
2.44542e-05
2.86651e-05
3.08341e-05
3.70723e-05
3.97065e-05
4.73782e-05
5.83351e-05
7.438e-05
9.10202e-05
0.000116974
0.000177724
0.00019344
0.000233333
0.000209615
0.000201813
0.000141169
0.000174246
0.000176242
0.000183125
0.000171865
0.000151684
0.00015833
0.000162836
0.000151265
0.000132233
0.000127883
0.000118431
9.97456e-05
7.69788e-05
5.97927e-05
4.77765e-05
4.92671e-05
5.57741e-05
7.38977e-05
0.000113192
0.000179024
0.000270343
0.000301871
0.000301898
0.000293121
0.000280138
0.000271
0.000250559
0.000217147
0.000180458
0.000152279
0.000134609
0.000118552
9.81132e-05
7.94462e-05
6.59557e-05
5.61104e-05
4.78631e-05
4.02499e-05
3.30273e-05
2.63281e-05
2.03761e-05
1.533e-05
1.12373e-05
8.04671e-06
5.64539e-06
3.89183e-06
2.64341e-06
1.77358e-06
1.17827e-06
7.77031e-07
5.09583e-07
3.33447e-07
2.17487e-07
1.43188e-07
9.37662e-08
6.74995e-08
5.34726e-08
6.69742e-08
1.06747e-07
2.07784e-07
3.52522e-07
6.81659e-07
7.62619e-07
1.44433e-06
1.21063e-06
1.83758e-06
2.41152e-06
4.30377e-06
4.04647e-06
5.86096e-06
5.48482e-06
6.54963e-06
6.26637e-06
7.84387e-06
7.81943e-06
9.62936e-06
9.1509e-06
1.13513e-05
1.09774e-05
1.33762e-05
1.35e-05
1.65715e-05
1.60901e-05
1.97657e-05
1.9919e-05
2.42453e-05
2.53024e-05
3.20734e-05
3.41344e-05
4.05622e-05
6.58432e-05
7.09562e-05
0.000134895
0.000126079
0.000230764
0.000209859
0.000240205
0.0002249
0.000225438
0.000186185
7.00389e-05
7.36957e-05
8.17236e-05
7.58794e-05
6.59188e-05
6.99444e-05
7.26872e-05
6.81588e-05
5.93637e-05
5.58471e-05
5.15955e-05
4.43598e-05
3.58049e-05
3.51485e-05
3.80676e-05
4.76947e-05
6.9388e-05
0.000109706
0.000178405
0.000282053
0.000319414
0.000319625
0.000310288
0.000291955
0.000279005
0.000269813
0.000254029
0.000225799
0.00018928
0.000162297
0.000144126
0.000121389
9.81549e-05
7.9462e-05
6.67699e-05
5.80818e-05
5.06818e-05
4.32399e-05
3.56891e-05
2.84165e-05
2.1851e-05
1.62782e-05
1.17958e-05
8.34914e-06
5.79447e-06
3.95751e-06
2.66812e-06
1.78031e-06
1.17832e-06
7.75261e-07
5.07829e-07
3.32137e-07
2.16734e-07
1.42698e-07
9.37219e-08
6.73317e-08
5.42875e-08
6.67394e-08
1.0826e-07
1.94117e-07
3.45171e-07
5.42598e-07
7.03449e-07
1.09767e-06
1.0226e-06
1.43932e-06
1.95853e-06
3.64264e-06
3.26038e-06
4.68896e-06
4.74911e-06
5.5777e-06
5.36704e-06
6.70224e-06
6.89635e-06
8.43365e-06
8.43858e-06
9.54409e-06
9.96026e-06
1.20317e-05
1.23372e-05
1.4354e-05
1.49508e-05
1.76633e-05
1.861e-05
2.1459e-05
2.26774e-05
2.78045e-05
2.86641e-05
3.3592e-05
3.61494e-05
5.81453e-05
6.20174e-05
0.000107762
0.000115668
0.000180993
0.000227532
0.000224805
0.000226149
0.000202445
1.81682e-05
2.07896e-05
2.39413e-05
2.22116e-05
2.01883e-05
2.26164e-05
2.30043e-05
2.2023e-05
2.11111e-05
2.2294e-05
2.40264e-05
2.46033e-05
2.67311e-05
3.20433e-05
4.51305e-05
6.99739e-05
0.000107527
0.000170068
0.000277529
0.000331722
0.000334328
0.000324154
0.000296521
0.00027596
0.000268528
0.00026409
0.00025245
0.000224818
0.000193965
0.000168336
0.000144672
0.000120653
9.74026e-05
7.96375e-05
6.91023e-05
6.20826e-05
5.52156e-05
4.75044e-05
3.90921e-05
3.07817e-05
2.32922e-05
1.70361e-05
1.21164e-05
8.42519e-06
5.75374e-06
3.87114e-06
2.57396e-06
1.69701e-06
1.11316e-06
7.28533e-07
4.76688e-07
3.12469e-07
2.05102e-07
1.3591e-07
9.02869e-08
6.51394e-08
5.39095e-08
6.65127e-08
1.09225e-07
1.93968e-07
3.5249e-07
5.04936e-07
8.20046e-07
8.58887e-07
1.03543e-06
1.23795e-06
1.78233e-06
2.73622e-06
2.93394e-06
3.94636e-06
4.55011e-06
4.87774e-06
4.98559e-06
5.95165e-06
6.49539e-06
7.28646e-06
8.20813e-06
8.47352e-06
9.58427e-06
1.06898e-05
1.18954e-05
1.25037e-05
1.47199e-05
1.57333e-05
1.81661e-05
1.93607e-05
2.19271e-05
2.54696e-05
2.75856e-05
3.18549e-05
3.29628e-05
4.8936e-05
4.86036e-05
8.51273e-05
7.73376e-05
0.000143626
0.000139418
0.000198572
0.000243301
0.00022459
6.79668e-06
6.83155e-06
7.77038e-06
9.3024e-06
1.03276e-05
1.04105e-05
9.90865e-06
1.05165e-05
1.20112e-05
1.7985e-05
2.6627e-05
3.25508e-05
4.08171e-05
5.40796e-05
7.91213e-05
0.000114981
0.000163522
0.000254611
0.000339456
0.000348708
0.000337619
0.000301657
0.000271837
0.000257195
0.000253064
0.000253039
0.000245956
0.000221135
0.000193188
0.000166683
0.000143211
0.000119584
9.65308e-05
8.17975e-05
7.32647e-05
6.59316e-05
5.75717e-05
4.80162e-05
3.82498e-05
2.93212e-05
2.17586e-05
1.57052e-05
1.10726e-05
7.65475e-06
5.20885e-06
3.50371e-06
2.3381e-06
1.55221e-06
1.02714e-06
6.78648e-07
4.4832e-07
2.96517e-07
1.96376e-07
1.3094e-07
8.78805e-08
6.32718e-08
5.33944e-08
6.68788e-08
1.11311e-07
2.11008e-07
3.75869e-07
5.88311e-07
9.61522e-07
9.98103e-07
1.52983e-06
1.38287e-06
2.30032e-06
2.41988e-06
3.64981e-06
3.62342e-06
4.48957e-06
4.86905e-06
5.78017e-06
5.83132e-06
7.22943e-06
7.20672e-06
9.46363e-06
8.83218e-06
1.06489e-05
1.0776e-05
1.38406e-05
1.28514e-05
1.65928e-05
1.61064e-05
1.98083e-05
1.94938e-05
2.38661e-05
2.45054e-05
2.8384e-05
2.97518e-05
3.15024e-05
4.23711e-05
4.229e-05
6.96341e-05
6.32435e-05
0.000117981
0.000109391
0.000151819
0.000198752
0.000215642
9.09475e-06
8.78337e-06
8.51327e-06
1.3228e-05
1.84492e-05
1.7913e-05
1.5872e-05
1.68204e-05
2.26247e-05
3.60225e-05
5.2444e-05
6.44162e-05
7.58601e-05
9.72882e-05
0.000136724
0.000174997
0.000235224
0.000338833
0.000362467
0.000352189
0.000309875
0.000267669
0.000259898
0.000252049
0.000243124
0.000243296
0.000239081
0.000218827
0.000190522
0.000165562
0.000144187
0.000118725
9.66431e-05
8.42472e-05
7.89784e-05
7.36323e-05
6.48508e-05
5.38249e-05
4.27224e-05
3.26848e-05
2.42476e-05
1.7518e-05
1.23693e-05
8.56515e-06
5.83535e-06
3.92313e-06
2.60977e-06
1.72214e-06
1.12998e-06
7.38917e-07
4.82576e-07
3.15322e-07
2.06525e-07
1.3595e-07
9.0685e-08
6.37869e-08
5.36056e-08
6.69441e-08
1.14228e-07
2.30907e-07
4.24623e-07
7.51183e-07
1.17077e-06
1.45654e-06
2.27085e-06
1.94358e-06
3.24135e-06
2.6608e-06
5.07416e-06
4.14362e-06
5.85157e-06
5.79045e-06
7.31251e-06
6.6464e-06
9.47289e-06
7.9443e-06
1.26433e-05
1.05459e-05
1.43611e-05
1.21011e-05
1.78791e-05
1.44868e-05
2.12449e-05
1.80257e-05
2.41638e-05
2.0821e-05
2.86597e-05
2.58283e-05
3.19277e-05
3.02612e-05
3.38152e-05
3.91406e-05
4.04237e-05
5.94488e-05
5.595e-05
9.65423e-05
9.00949e-05
0.000129099
0.000136389
0.000178373
3.0735e-05
2.98571e-05
2.96452e-05
3.58358e-05
4.78771e-05
4.84056e-05
4.83915e-05
5.05314e-05
5.82613e-05
7.81861e-05
9.77018e-05
0.000110276
0.000128381
0.000166084
0.000206138
0.000246852
0.00033214
0.000372786
0.000367754
0.000327575
0.000267023
0.000252607
0.000254248
0.000249705
0.000236734
0.000236229
0.000233233
0.000214793
0.000188399
0.000167652
0.000144366
0.00011719
9.78018e-05
8.8848e-05
8.64943e-05
8.28838e-05
7.09366e-05
5.63239e-05
4.33187e-05
3.23821e-05
2.35413e-05
1.66899e-05
1.15999e-05
7.9375e-06
5.36474e-06
3.58999e-06
2.38443e-06
1.57573e-06
1.03854e-06
6.83909e-07
4.50876e-07
2.97668e-07
1.97363e-07
1.31211e-07
8.87503e-08
6.2866e-08
5.29179e-08
6.51843e-08
1.11134e-07
2.22631e-07
4.31064e-07
7.9068e-07
1.25869e-06
1.80477e-06
2.74316e-06
2.70368e-06
4.75552e-06
3.48465e-06
7.77362e-06
5.72619e-06
8.57493e-06
7.89501e-06
9.8167e-06
8.86015e-06
1.38024e-05
1.01559e-05
1.73859e-05
1.39697e-05
1.92504e-05
1.53374e-05
2.44354e-05
1.82232e-05
2.73268e-05
2.19941e-05
3.11358e-05
2.4213e-05
3.56062e-05
2.93681e-05
3.84032e-05
3.24773e-05
4.25312e-05
4.01874e-05
4.33183e-05
5.28796e-05
5.29845e-05
8.13208e-05
7.74644e-05
0.000110711
0.000113136
0.000140313
9.67688e-05
9.54219e-05
9.36255e-05
9.82032e-05
0.00011483
0.000116682
0.00011699
0.000121096
0.000135839
0.00014883
0.000163323
0.000178347
0.000203345
0.000247189
0.000275312
0.000325757
0.00037508
0.000379782
0.000353007
0.000274454
0.000244853
0.000244377
0.000246129
0.000239504
0.000229669
0.000221046
0.000217635
0.000204448
0.000185912
0.000167095
0.000140412
0.000115443
0.000101021
9.78441e-05
9.44119e-05
8.32245e-05
6.72676e-05
5.21118e-05
3.93147e-05
2.91429e-05
2.13625e-05
1.55053e-05
1.11073e-05
7.84102e-06
5.45717e-06
3.75233e-06
2.55356e-06
1.72303e-06
1.15538e-06
7.72469e-07
5.17463e-07
3.50436e-07
2.42555e-07
1.77658e-07
1.32297e-07
1.29907e-07
1.19336e-07
1.67205e-07
1.96522e-07
3.29257e-07
5.13707e-07
8.26598e-07
1.31575e-06
1.90552e-06
3.11492e-06
3.43294e-06
7.36549e-06
5.30908e-06
1.28131e-05
9.02029e-06
1.39377e-05
1.23648e-05
1.46758e-05
1.33676e-05
2.09134e-05
1.46664e-05
2.61334e-05
2.04037e-05
2.82322e-05
2.19896e-05
3.44031e-05
2.48056e-05
3.77086e-05
2.93037e-05
4.16299e-05
3.05177e-05
4.6114e-05
3.59813e-05
4.86508e-05
3.76571e-05
5.09502e-05
4.38425e-05
5.25593e-05
5.35872e-05
5.4971e-05
7.08035e-05
6.97621e-05
9.37388e-05
9.56939e-05
0.000116605
0.000211958
0.000208728
0.000203064
0.000206166
0.00021457
0.000212946
0.000211111
0.000214797
0.000227707
0.000234554
0.00024844
0.000261672
0.000285066
0.000306176
0.000332428
0.000370389
0.000386599
0.000372254
0.000294159
0.00024297
0.000224872
0.000222547
0.00022204
0.000220569
0.000222754
0.000210372
0.000201708
0.000193297
0.000180826
0.000158767
0.000134154
0.000116648
0.000111956
0.000106291
9.3383e-05
7.6312e-05
6.01392e-05
4.68234e-05
3.62238e-05
2.78206e-05
2.1125e-05
1.58299e-05
1.17213e-05
8.58646e-06
6.23412e-06
4.50137e-06
3.25491e-06
2.38475e-06
1.79839e-06
1.42282e-06
1.18896e-06
1.05796e-06
9.69314e-07
9.36788e-07
8.89572e-07
9.44344e-07
8.99276e-07
1.11872e-06
1.0415e-06
1.52452e-06
1.49749e-06
2.03705e-06
2.4604e-06
2.72828e-06
5.03884e-06
5.20857e-06
1.26247e-05
9.15348e-06
2.19764e-05
1.52072e-05
2.39089e-05
2.09884e-05
2.37633e-05
2.14266e-05
3.21847e-05
2.26517e-05
3.96196e-05
3.05338e-05
3.98344e-05
3.295e-05
4.81755e-05
3.49416e-05
5.07056e-05
4.03875e-05
5.50163e-05
4.06883e-05
5.98646e-05
4.65181e-05
6.22658e-05
4.70726e-05
6.49081e-05
5.26777e-05
6.43473e-05
5.85124e-05
6.03921e-05
6.88226e-05
6.916e-05
8.34007e-05
8.56057e-05
0.000100788
0.000354737
0.000341301
0.00032439
0.000324509
0.000324818
0.000311403
0.000299866
0.000303724
0.000310047
0.000312777
0.000318641
0.000327561
0.000342904
0.000353472
0.000369858
0.000385986
0.000379835
0.00031563
0.000252733
0.000222668
0.000195656
0.000189212
0.000190143
0.00020212
0.00021236
0.000206188
0.000195371
0.000184229
0.000169428
0.000151724
0.000135494
0.000128743
0.000119231
0.000104449
8.55012e-05
6.86614e-05
5.53829e-05
4.48405e-05
3.62616e-05
2.9317e-05
2.37988e-05
1.94487e-05
1.60478e-05
1.34406e-05
1.1496e-05
1.00916e-05
9.10534e-06
8.43245e-06
7.96783e-06
7.6655e-06
7.42876e-06
7.30596e-06
7.15006e-06
7.11186e-06
6.99518e-06
7.10648e-06
6.95154e-06
7.44162e-06
7.11851e-06
8.17092e-06
7.71341e-06
8.96549e-06
8.93889e-06
8.75537e-06
1.30384e-05
1.19416e-05
2.48392e-05
1.87812e-05
3.96073e-05
2.74709e-05
4.29734e-05
3.70337e-05
4.18048e-05
3.74889e-05
5.09772e-05
3.76145e-05
6.01908e-05
4.62374e-05
5.78651e-05
5.01082e-05
6.71633e-05
4.95769e-05
6.98224e-05
5.71475e-05
7.32064e-05
5.56116e-05
7.87476e-05
6.22766e-05
8.03952e-05
6.27891e-05
8.32971e-05
6.77803e-05
8.08229e-05
6.87923e-05
7.40973e-05
7.30396e-05
7.35544e-05
8.16194e-05
8.25946e-05
8.88212e-05
0.00048391
0.000455477
0.000432333
0.000419718
0.000398998
0.000374814
0.000368766
0.000369991
0.000368307
0.000360973
0.000361517
0.000368997
0.000379377
0.000381479
0.00038429
0.000379084
0.000331741
0.000253728
0.000235494
0.000215427
0.000185344
0.000173438
0.000172065
0.00018099
0.000198603
0.000201779
0.000191686
0.000179638
0.000167193
0.000154709
0.00014518
0.000132394
0.000114665
9.4468e-05
7.85942e-05
6.64858e-05
5.71979e-05
5.06929e-05
4.64431e-05
4.3713e-05
4.19204e-05
4.06986e-05
3.98201e-05
3.91516e-05
3.8617e-05
3.81811e-05
3.78143e-05
3.75226e-05
3.72585e-05
3.7086e-05
3.687e-05
3.68012e-05
3.66107e-05
3.65938e-05
3.64227e-05
3.65271e-05
3.62437e-05
3.67325e-05
3.61399e-05
3.7232e-05
3.63519e-05
3.77245e-05
3.74874e-05
3.68107e-05
4.15517e-05
3.71591e-05
5.45015e-05
4.60482e-05
7.46153e-05
5.4563e-05
8.00101e-05
6.76169e-05
7.60809e-05
6.89934e-05
8.28677e-05
6.59037e-05
9.37859e-05
7.17038e-05
8.73809e-05
7.62597e-05
9.43093e-05
7.21022e-05
9.72076e-05
8.05765e-05
9.74581e-05
7.68842e-05
0.000104684
8.52931e-05
0.000104468
8.30358e-05
0.00010863
9.00268e-05
0.00010442
8.66415e-05
9.29211e-05
8.53625e-05
8.68793e-05
8.69751e-05
8.56527e-05
8.66312e-05
0.000581738
0.000536227
0.000496709
0.000468685
0.000442428
0.000420135
0.000412749
0.000404965
0.000393969
0.000392577
0.00039481
0.000395406
0.000393142
0.000389214
0.00037547
0.000327804
0.000244426
0.000224944
0.000231995
0.000219501
0.000185729
0.000169853
0.000165728
0.000166601
0.000182166
0.000189081
0.000188253
0.000177767
0.000168117
0.000157092
0.0001427
0.000124725
0.000107195
9.44787e-05
8.78516e-05
8.66722e-05
8.76743e-05
9.14849e-05
9.54717e-05
9.85772e-05
0.000100965
0.000102757
0.000104072
0.00010502
0.000105692
0.000106167
0.000106498
0.000106743
0.000106903
0.000107049
0.000107114
0.000107228
0.000107225
0.000107334
0.000107224
0.000107481
0.000107091
0.000107753
0.000106758
0.000108336
0.000106481
0.000109392
0.000107343
0.000110144
0.000110659
0.000106398
0.000117379
0.000102446
0.000137419
0.000113614
0.000147577
0.000122453
0.000136123
0.000123408
0.000133917
0.00011276
0.000141109
0.000111777
0.000130975
0.000114711
0.000129959
0.000108675
0.000134993
0.000112097
0.000130736
0.000110707
0.000141969
0.000115538
0.000138403
0.000114174
0.000146406
0.000122497
0.000138306
0.000114642
0.000123808
0.000111597
0.000113042
0.000108464
0.000103359
9.6255e-05
0.000640254
0.000570103
0.00051986
0.000485093
0.000458015
0.00043979
0.000432196
0.00042311
0.000414936
0.000412492
0.000408875
0.000402095
0.000389159
0.000360659
0.000297091
0.000223779
0.000194686
0.00021667
0.000258712
0.000268639
0.000227437
0.000195919
0.000178302
0.000167403
0.000164179
0.000174018
0.000177478
0.000174252
0.000166039
0.000154587
0.000141605
0.000131146
0.000129113
0.000134409
0.000148514
0.000161322
0.000171124
0.000178274
0.000183349
0.00018697
0.000189595
0.000191523
0.000192954
0.000194025
0.000194837
0.00019546
0.000195944
0.000196329
0.000196629
0.000196885
0.000197058
0.00019726
0.000197326
0.000197525
0.00019749
0.000197765
0.000197437
0.000198217
0.000197075
0.000199273
0.00019619
0.000201686
0.000195246
0.000206345
0.000196467
0.000211241
0.00020139
0.000203259
0.000211841
0.000188031
0.00022181
0.000191136
0.00021488
0.000193844
0.000201531
0.000181094
0.000200763
0.000174214
0.000198288
0.000174216
0.000189084
0.000166397
0.000197527
0.000166302
0.000192293
0.000166924
0.000204797
0.000167269
0.00020047
0.000170319
0.000212056
0.00017588
0.000201653
0.000169021
0.000188643
0.000170176
0.000174399
0.000166797
0.000161922
0.000153123
0.000644979
0.000561402
0.000512218
0.000482938
0.000462863
0.000450991
0.000443505
0.000432653
0.000422665
0.000413291
0.000394253
0.000364538
0.000311737
0.000241705
0.000184555
0.000163123
0.000175691
0.000223013
0.000282508
0.000326356
0.000343
0.000323234
0.000304937
0.000264043
0.00021066
0.000183462
0.000180552
0.000178527
0.000176493
0.000176557
0.000181931
0.000194627
0.000209955
0.000224071
0.000234903
0.000242448
0.000247947
0.000252058
0.000255199
0.000257651
0.000259597
0.000261158
0.000262417
0.000263439
0.000264271
0.000264952
0.000265511
0.00026597
0.000266351
0.000266665
0.000266926
0.000267151
0.00026732
0.000267523
0.000267584
0.000267859
0.000267726
0.000268315
0.000267427
0.000269391
0.000266122
0.00027214
0.000263073
0.000278641
0.000258973
0.000290922
0.000257367
0.000307527
0.00026365
0.000313034
0.000278884
0.00029812
0.000284578
0.00029936
0.000279121
0.000307955
0.000288058
0.000295147
0.000302407
0.000295797
0.000295489
0.000295735
0.000310202
0.000287231
0.00030962
0.000294777
0.000321831
0.000286207
0.000324341
0.000295996
0.0003399
0.000298506
0.000338136
0.000306829
0.000348019
0.000336345
0.000356929
0.00036524
0.000376071
0.000395306
0.000524504
0.000473509
0.00045009
0.000435016
0.000421755
0.000408023
0.000389057
0.000362919
0.000332185
0.000295902
0.000251958
0.000207334
0.000168024
0.000143836
0.000140521
0.000149624
0.000170189
0.000195161
0.000234783
0.000313428
0.000404347
0.000479852
0.000537411
0.000564643
0.000533981
0.00043567
0.000329116
0.000248937
0.000197502
0.00017331
0.00017314
0.000188035
0.000205855
0.00022148
0.000233522
0.000242487
0.000249258
0.000254537
0.000258779
0.000262251
0.000265114
0.000267476
0.000269423
0.000271024
0.000272341
0.000273424
0.000274317
0.000275053
0.000275667
0.000276176
0.000276612
0.000276975
0.000277297
0.00027758
0.000277795
0.000278108
0.000278086
0.000278691
0.000277904
0.000279824
0.000276419
0.000282871
0.000272145
0.000290293
0.000264003
0.000304077
0.000254078
0.000326311
0.000248939
0.000363396
0.00025925
0.000407026
0.000285584
0.000440466
0.00030903
0.000470864
0.000329268
0.000494682
0.000357431
0.0005073
0.000378556
0.000527631
0.000397916
0.000537953
0.000428925
0.000553298
0.000446656
0.000550614
0.000483358
0.000569119
0.000514708
0.000564739
0.000555821
0.000611996
0.000634419
0.000696253
0.000715624
0.000791868
0.000803099
0.000892212
0.000104612
0.000144802
0.000209452
0.00030112
0.000446336
0.000497731
0.000469565
0.000420051
0.000344011
0.000274133
0.000381035
0.000585204
0.000727905
0.000811725
0.00084158
0.000839988
0.000784526
0.000680704
0.000604576
0.000462665
0.000387456
0.000270953
0.000210866
0.000168205
0.000152838
0.00016851
0.000204678
0.000248715
0.000289073
0.000318929
0.000336522
0.000343195
0.000342923
0.000338023
0.000330053
0.000321808
0.000314031
0.000307156
0.000301322
0.000296521
0.000292637
0.000289526
0.000287045
0.00028507
0.000283494
0.000282232
0.000281216
0.00028039
0.000279711
0.000279143
0.000278658
0.000278229
0.000277838
0.000277461
0.000277088
0.000276688
0.000276262
0.000275764
0.000275212
0.000274539
0.000273785
0.000272875
0.000271858
0.000270686
0.000269382
0.00026798
0.000266423
0.000264842
0.000263089
0.000261327
0.000259397
0.000257346
0.000255135
0.000252612
0.000249861
0.000246655
0.000242994
0.000238798
0.000233844
0.000228156
0.000221481
0.000213668
0.000204606
0.000194037
0.000181694
0.000167776
0.000151581
0.000134285
0.000115544
9.81711e-05
8.9445e-05
9.28895e-05
0.000107369
0.000129749
0.000146841
0.000152945
0.000146118
0.00011441
7.83328e-05
5.15413e-05
0.000115038
0.000122055
0.000134081
0.000156758
0.00017695
0.000247338
0.000272908
0.000273504
0.0003771
0.000535193
0.000566343
0.000578475
0.00056094
0.000488848
0.000417165
0.000352161
0.000254989
0.000219337
0.000196571
0.000166194
0.000156492
0.000145214
0.000136165
0.000134597
0.000129591
0.000127169
0.00012917
0.000139839
0.000162454
0.000191138
0.000220565
0.000245971
0.000264212
0.000275305
0.000281267
0.000283018
0.000282787
0.000281696
0.000279803
0.00027795
0.000276268
0.000274805
0.000273565
0.000272533
0.000271681
0.000270981
0.000270407
0.000269937
0.000269551
0.000269234
0.000268972
0.000268753
0.000268571
0.000268412
0.00026828
0.000268153
0.000268047
0.000267928
0.000267828
0.000267695
0.000267571
0.000267401
0.000267212
0.000266984
0.000266687
0.000266382
0.000265949
0.000265545
0.000264989
0.000264457
0.000263808
0.000263116
0.000262364
0.000261516
0.000260573
0.000259598
0.000258362
0.000257194
0.000255637
0.000254105
0.000252122
0.000250177
0.000247324
0.000245112
0.000240737
0.000237988
0.000231796
0.000227749
0.000218766
0.000212148
0.000197719
0.00018577
0.000163687
0.000147151
0.000129744
0.000115141
9.84399e-05
8.91137e-05
7.81615e-05
6.98541e-05
0.000114958
0.000122201
0.000140244
0.000172942
0.000180712
0.000194281
0.000226369
0.000336602
0.000516789
0.000526082
0.000473354
0.000373209
0.000269068
0.000207124
0.000173546
0.000163581
0.000161441
0.00016847
0.000168331
0.000166623
0.000167182
0.00016663
0.000154881
0.000149729
0.000136587
0.000124237
0.000111727
0.000101235
9.42571e-05
9.21923e-05
9.42268e-05
0.000102516
0.000123666
0.000147361
0.000165325
0.000178538
0.000187947
0.000194151
0.000197882
0.000199938
0.000200923
0.00020127
0.000201214
0.000201051
0.000200755
0.000200439
0.000200138
0.000199867
0.000199631
0.000199433
0.000199271
0.000199146
0.000199052
0.000198993
0.000198969
0.000198975