/*--------------------------------*- C++ -*----------------------------------*\
| =========                 |                                                 |
| \\      /  F ield         | OpenFOAM: The Open Source CFD Toolbox           |
|  \\    /   O peration     | Version:  2.4.0                                 |
|   \\  /    A nd           | Web:      www.OpenFOAM.org                      |
|    \\/     M anipulation  |                                                 |
\*---------------------------------------------------------------------------*/
FoamFile
{
    version     2.0;
    format      ascii;
    class       surfaceScalarField;
    location    "0.045";
    object      phi_0;
}
// * * * * * * * * * * * * * * * * * * * * * * * * * * * * * * * * * * * * * //

dimensions      [0 3 -1 0 0 0 0];

internalField   nonuniform List<scalar> 
34680
(
2.40656e-05
9.34441e-07
2.16896e-05
2.37597e-06
1.88316e-05
2.85795e-06
1.60307e-05
2.80089e-06
1.36235e-05
2.40728e-06
1.16789e-05
1.94452e-06
1.01311e-05
1.54788e-06
9.04875e-06
1.08231e-06
8.3022e-06
7.46547e-07
7.72057e-06
5.81626e-07
7.35706e-06
3.63511e-07
7.11969e-06
2.37375e-07
6.89865e-06
2.21037e-07
6.75428e-06
1.44375e-07
6.65579e-06
9.84824e-08
6.53998e-06
1.15815e-07
6.44629e-06
9.36881e-08
6.37687e-06
6.94183e-08
6.31041e-06
6.6459e-08
6.23099e-06
7.94197e-08
6.17371e-06
5.72888e-08
6.12892e-06
4.47905e-08
6.05898e-06
6.99306e-08
5.9996e-06
5.93884e-08
5.96313e-06
3.64696e-08
5.8948e-06
6.83241e-08
5.8393e-06
5.55034e-08
5.79708e-06
4.22166e-08
5.7461e-06
5.09841e-08
5.69358e-06
5.25141e-08
5.6611e-06
3.24827e-08
5.60591e-06
5.51884e-08
5.55922e-06
4.66906e-08
5.4953e-06
6.39268e-08
5.42337e-06
7.19241e-08
5.32605e-06
9.73264e-08
5.21657e-06
1.0948e-07
5.067e-06
1.49568e-07
4.78053e-06
2.86471e-07
1.20511e-07
4.66002e-06
2.51891e-05
7.45363e-07
2.55531e-05
2.01193e-06
2.55976e-05
2.81342e-06
2.52167e-05
3.18183e-06
2.46485e-05
2.97547e-06
2.38934e-05
2.69965e-06
2.30324e-05
2.4089e-06
2.22873e-05
1.82738e-06
2.15578e-05
1.47601e-06
2.08612e-05
1.27824e-06
2.02772e-05
9.47541e-07
1.97332e-05
7.81375e-07
1.92368e-05
7.17429e-07
1.87954e-05
5.85758e-07
1.84126e-05
4.81269e-07
1.80579e-05
4.70549e-07
1.77192e-05
4.32404e-07
1.74452e-05
3.4344e-07
1.71954e-05
3.16244e-07
1.69316e-05
3.43181e-07
1.67341e-05
2.54811e-07
1.65521e-05
2.26744e-07
1.63482e-05
2.73867e-07
1.61876e-05
2.19985e-07
1.60463e-05
1.77751e-07
1.58748e-05
2.39852e-07
1.57401e-05
1.90219e-07
1.56054e-05
1.7692e-07
1.54819e-05
1.74448e-07
1.53491e-05
1.85353e-07
1.52531e-05
1.28446e-07
1.51242e-05
1.84061e-07
1.50296e-05
1.41285e-07
1.48844e-05
2.09139e-07
1.4779e-05
1.77389e-07
1.45832e-05
2.93134e-07
1.44348e-05
2.57793e-07
1.41693e-05
4.15064e-07
1.41537e-05
3.021e-07
3.88249e-07
1.3886e-05
2.51229e-05
6.22473e-07
2.56023e-05
1.53256e-06
2.61954e-05
2.22024e-06
2.65698e-05
2.80746e-06
2.68924e-05
2.65292e-06
2.70713e-05
2.52076e-06
2.70824e-05
2.39779e-06
2.7097e-05
1.81273e-06
2.70052e-05
1.5678e-06
2.68631e-05
1.4204e-06
2.67307e-05
1.0799e-06
2.65221e-05
9.90018e-07
2.63123e-05
9.27148e-07
2.61075e-05
7.90555e-07
2.58705e-05
7.18267e-07
2.5686e-05
6.55092e-07
2.54599e-05
6.58504e-07
2.52545e-05
5.48804e-07
2.50796e-05
4.91174e-07
2.48563e-05
5.66476e-07
2.46631e-05
4.48035e-07
2.45154e-05
3.74417e-07
2.42957e-05
4.93569e-07
2.41435e-05
3.72242e-07
2.39847e-05
3.36528e-07
2.381e-05
4.14491e-07
2.36423e-05
3.57921e-07
2.35075e-05
3.11803e-07
2.33266e-05
3.55273e-07
2.3207e-05
3.04994e-07
2.30409e-05
2.94529e-07
2.29262e-05
2.98741e-07
2.27599e-05
3.07577e-07
2.26451e-05
3.24005e-07
2.2443e-05
3.79439e-07
2.23755e-05
3.60643e-07
2.215e-05
4.83325e-07
2.20394e-05
5.25624e-07
2.17868e-05
5.54719e-07
1.9774e-07
2.19773e-05
2.5122e-05
5.00465e-07
2.54444e-05
1.21016e-06
2.59792e-05
1.68543e-06
2.64827e-05
2.30399e-06
2.68933e-05
2.24229e-06
2.72465e-05
2.16755e-06
2.75563e-05
2.08807e-06
2.77794e-05
1.58955e-06
2.79806e-05
1.36662e-06
2.81596e-05
1.2414e-06
2.82958e-05
9.43743e-07
2.83671e-05
9.18717e-07
2.84302e-05
8.64032e-07
2.84549e-05
7.65819e-07
2.84542e-05
7.18994e-07
2.84744e-05
6.34926e-07
2.84878e-05
6.45049e-07
2.84739e-05
5.62749e-07
2.84967e-05
4.68355e-07
2.84685e-05
5.94664e-07
2.84466e-05
4.69946e-07
2.84239e-05
3.97174e-07
2.83849e-05
5.32546e-07
2.83418e-05
4.15286e-07
2.83247e-05
3.53639e-07
2.82744e-05
4.64849e-07
2.82454e-05
3.86892e-07
2.82036e-05
3.53575e-07
2.81507e-05
4.08241e-07
2.80958e-05
3.59857e-07
2.80389e-05
3.51394e-07
2.79777e-05
3.5999e-07
2.79173e-05
3.67916e-07
2.78637e-05
3.77611e-07
2.77381e-05
5.05034e-07
2.76725e-05
4.26317e-07
2.76689e-05
4.86911e-07
2.78914e-05
3.03122e-07
2.82167e-05
2.29387e-07
-6.38805e-08
2.84783e-05
2.51553e-05
3.45179e-07
2.53344e-05
1.03105e-06
2.57534e-05
1.26642e-06
2.62388e-05
1.81858e-06
2.67127e-05
1.76842e-06
2.7019e-05
1.86126e-06
2.74237e-05
1.68329e-06
2.75786e-05
1.43467e-06
2.78633e-05
1.0819e-06
2.80523e-05
1.0524e-06
2.82867e-05
7.09363e-07
2.83994e-05
8.05992e-07
2.86094e-05
6.54082e-07
2.86282e-05
7.47017e-07
2.87902e-05
5.57004e-07
2.8788e-05
6.37152e-07
2.89659e-05
4.67095e-07
2.8966e-05
5.62663e-07
2.91432e-05
2.91105e-07
2.91434e-05
5.94476e-07
2.92956e-05
3.17739e-07
2.92469e-05
4.45876e-07
2.94096e-05
3.69893e-07
2.93537e-05
4.7119e-07
2.94975e-05
2.09854e-07
2.94623e-05
5.00043e-07
2.96324e-05
2.16726e-07
2.95797e-05
4.06348e-07
2.97559e-05
2.32032e-07
2.96641e-05
4.51627e-07
2.98229e-05
1.92635e-07
2.97041e-05
4.78782e-07
2.98875e-05
1.84541e-07
2.97892e-05
4.75819e-07
3.00338e-05
2.60501e-07
2.99074e-05
5.52686e-07
2.99819e-05
4.12456e-07
2.92404e-05
1.04454e-06
2.85695e-05
9.00304e-07
8.52574e-07
2.76531e-05
2.51169e-05
2.28258e-07
2.53277e-05
8.20283e-07
2.56105e-05
9.83589e-07
2.60545e-05
1.37457e-06
2.64867e-05
1.33622e-06
2.68522e-05
1.49576e-06
2.72034e-05
1.33216e-06
2.74334e-05
1.20468e-06
2.76433e-05
8.71956e-07
2.78622e-05
8.33487e-07
2.80348e-05
5.36784e-07
2.82216e-05
6.1914e-07
2.83622e-05
5.13514e-07
2.84832e-05
6.26062e-07
2.85915e-05
4.48651e-07
2.86823e-05
5.46392e-07
2.8793e-05
3.56404e-07
2.89072e-05
4.48472e-07
2.89738e-05
2.24454e-07
2.90988e-05
4.69449e-07
2.91651e-05
2.51435e-07
2.92342e-05
3.76819e-07
2.93163e-05
2.87775e-07
2.93956e-05
3.91882e-07
2.9429e-05
1.76445e-07
2.9549e-05
3.80102e-07
2.95985e-05
1.67249e-07
2.96999e-05
3.04926e-07
2.97658e-05
1.6616e-07
2.98494e-05
3.67934e-07
2.98826e-05
1.59503e-07
2.9978e-05
3.83359e-07
3.00156e-05
1.46895e-07
3.01316e-05
3.59862e-07
3.01815e-05
2.10613e-07
3.02898e-05
4.44363e-07
3.04001e-05
3.02168e-07
3.08826e-05
5.62021e-07
3.14087e-05
3.74246e-07
4.59722e-07
3.18015e-05
2.50661e-05
1.62145e-07
2.53138e-05
5.72635e-07
2.55396e-05
7.57789e-07
2.59495e-05
9.64634e-07
2.6285e-05
1.00068e-06
2.66986e-05
1.0822e-06
2.70244e-05
1.00639e-06
2.73063e-05
9.22747e-07
2.74936e-05
6.84673e-07
2.77352e-05
5.91893e-07
2.78471e-05
4.24864e-07
2.80609e-05
4.05302e-07
2.81589e-05
4.15576e-07
2.8341e-05
4.43936e-07
2.84205e-05
3.69167e-07
2.85635e-05
4.03422e-07
2.8622e-05
2.97889e-07
2.87829e-05
2.87544e-07
2.8786e-05
2.21398e-07
2.8967e-05
2.88352e-07
2.89873e-05
2.31215e-07
2.9114e-05
2.50133e-07
2.91479e-05
2.53826e-07
2.92864e-05
2.53362e-07
2.92695e-05
1.93346e-07
2.94396e-05
2.09992e-07
2.94235e-05
1.83406e-07
2.9577e-05
1.5142e-07
2.95801e-05
1.63011e-07
2.97367e-05
2.11325e-07
2.97188e-05
1.77428e-07
2.98904e-05
2.11792e-07
2.98597e-05
1.77562e-07
3.00541e-05
1.65502e-07
3.00731e-05
1.91571e-07
3.03407e-05
1.76752e-07
3.04453e-05
1.97611e-07
3.07533e-05
2.54015e-07
3.08122e-05
3.15304e-07
9.35914e-08
3.11784e-05
2.50554e-05
1.06722e-07
2.524e-05
3.88012e-07
2.55191e-05
4.78736e-07
2.58712e-05
6.12583e-07
2.61958e-05
6.76015e-07
2.65724e-05
7.05573e-07
2.69131e-05
6.65768e-07
2.71885e-05
6.47351e-07
2.74325e-05
4.40606e-07
2.76165e-05
4.07934e-07
2.77613e-05
2.80097e-07
2.7928e-05
2.38597e-07
2.80555e-05
2.87988e-07
2.81991e-05
3.00391e-07
2.83366e-05
2.31677e-07
2.84343e-05
3.05713e-07
2.85514e-05
1.80748e-07
2.86503e-05
1.88711e-07
2.8719e-05
1.52657e-07
2.88263e-05
1.81101e-07
2.89115e-05
1.45991e-07
2.89731e-05
1.88518e-07
2.90782e-05
1.48744e-07
2.91448e-05
1.86722e-07
2.92161e-05
1.22106e-07
2.92969e-05
1.29161e-07
2.93706e-05
1.09701e-07
2.94199e-05
1.02088e-07
2.95064e-05
7.65832e-08
2.95646e-05
1.53068e-07
2.96538e-05
8.82649e-08
2.97293e-05
1.36282e-07
2.98325e-05
7.42975e-08
2.99196e-05
7.8434e-08
3.00673e-05
4.38777e-08
3.01926e-05
5.14809e-08
3.03763e-05
1.38524e-08
3.0575e-05
5.5389e-08
3.08849e-05
5.39182e-09
5.57757e-09
3.09729e-05
2.50239e-05
8.28536e-08
2.52603e-05
1.51577e-07
2.54677e-05
2.71347e-07
2.58291e-05
2.512e-07
2.61051e-05
4.00006e-07
2.65107e-05
2.99973e-07
2.68049e-05
3.71545e-07
2.71316e-05
3.20623e-07
2.73282e-05
2.44048e-07
2.75784e-05
1.57773e-07
2.76749e-05
1.83521e-07
2.78743e-05
3.91862e-08
2.79589e-05
2.03434e-07
2.81455e-05
1.13764e-07
2.82284e-05
1.48813e-07
2.83877e-05
1.4639e-07
2.84452e-05
1.23276e-07
2.86026e-05
3.13042e-08
2.86221e-05
1.33167e-07
2.878e-05
2.31845e-08
2.88144e-05
1.11581e-07
2.89326e-05
7.0335e-08
2.89735e-05
1.07782e-07
2.91034e-05
5.68318e-08
2.91199e-05
1.05613e-07
2.9252e-05
-2.91353e-09
2.92729e-05
8.881e-08
2.93841e-05
-9.13944e-09
2.94056e-05
5.51035e-08
2.95285e-05
3.01961e-08
2.95521e-05
6.46459e-08
2.96926e-05
-4.1819e-09
2.97268e-05
4.00375e-08
2.98749e-05
-6.96119e-08
2.99575e-05
-3.87915e-08
3.01451e-05
-1.36044e-07
3.02937e-05
-1.34784e-07
3.05455e-05
-1.9646e-07
3.07235e-05
-1.72561e-07
-7.27345e-08
3.08018e-05
2.50218e-05
6.10446e-08
2.52374e-05
-6.40276e-08
2.54584e-05
5.03388e-08
2.58027e-05
-9.30697e-08
2.60859e-05
1.16758e-07
2.64824e-05
-9.65134e-08
2.67677e-05
8.6287e-08
2.70931e-05
-4.78022e-09
2.7314e-05
2.30927e-08
2.75278e-05
-5.59646e-08
2.7666e-05
4.53339e-08
2.78292e-05
-1.24079e-07
2.79438e-05
8.88376e-08
2.8089e-05
-3.14357e-08
2.82093e-05
2.85646e-08
2.83328e-05
2.29126e-08
2.84406e-05
1.5395e-08
2.85504e-05
-7.84541e-08
2.86291e-05
5.44128e-08
2.87244e-05
-7.2038e-08
2.88111e-05
2.48724e-08
2.88746e-05
6.8138e-09
2.89701e-05
1.22673e-08
2.90446e-05
-1.76297e-08
2.91271e-05
2.30957e-08
2.9195e-05
-7.08265e-08
2.92832e-05
6.23809e-10
2.93255e-05
-5.14065e-08
2.94057e-05
-2.51104e-08
2.94647e-05
-2.87996e-08
2.95489e-05
-1.96221e-08
2.9617e-05
-7.22721e-08
2.97213e-05
-6.42479e-08
2.98011e-05
-1.49406e-07
2.99516e-05
-1.89274e-07
3.00828e-05
-2.67229e-07
3.02663e-05
-3.18266e-07
3.04789e-05
-4.0907e-07
3.0777e-05
-4.70694e-07
-2.03818e-07
3.09081e-05
2.50103e-05
5.07429e-08
2.52633e-05
-3.17071e-07
2.54301e-05
-1.16382e-07
2.58185e-05
-4.81483e-07
2.60651e-05
-1.29906e-07
2.65141e-05
-5.45455e-07
2.67311e-05
-1.30715e-07
2.71274e-05
-4.01109e-07
2.72655e-05
-1.14952e-07
2.75744e-05
-3.64889e-07
2.76414e-05
-2.16709e-08
2.78862e-05
-3.68907e-07
2.79173e-05
5.7788e-08
2.81548e-05
-2.6899e-07
2.81661e-05
1.73228e-08
2.83958e-05
-2.06862e-07
2.83806e-05
3.06727e-08
2.8604e-05
-3.01907e-07
2.85702e-05
8.82719e-08
2.87836e-05
-2.85526e-07
2.8756e-05
5.24958e-08
2.89524e-05
-1.89517e-07
2.89094e-05
5.52566e-08
2.91166e-05
-2.24884e-07
2.90618e-05
7.78658e-08
2.92599e-05
-2.68894e-07
2.92087e-05
5.18522e-08
2.9402e-05
-2.44711e-07
2.93342e-05
4.2702e-08
2.95503e-05
-2.44876e-07
2.9482e-05
4.86259e-08
2.96934e-05
-2.83703e-07
2.9624e-05
5.14794e-09
2.98335e-05
-3.58823e-07
2.97944e-05
-1.50211e-07
3.00946e-05
-5.67428e-07
3.01879e-05
-4.11616e-07
3.05825e-05
-8.03628e-07
3.06964e-05
-5.84578e-07
-6.2785e-07
3.11204e-05
2.50435e-05
7.23004e-09
2.52481e-05
-5.21654e-07
2.54676e-05
-3.35858e-07
2.58219e-05
-8.35781e-07
2.61499e-05
-4.57903e-07
2.65411e-05
-9.36668e-07
2.68067e-05
-3.96325e-07
2.71555e-05
-7.49942e-07
2.73302e-05
-2.8962e-07
2.75926e-05
-6.27339e-07
2.76937e-05
-1.22759e-07
2.79099e-05
-5.85081e-07
2.79644e-05
3.33105e-09
2.81827e-05
-4.87325e-07
2.82047e-05
-4.66337e-09
2.84332e-05
-4.35431e-07
2.84249e-05
3.90572e-08
2.86404e-05
-5.1744e-07
2.86205e-05
1.08152e-07
2.88194e-05
-4.84394e-07
2.87982e-05
7.3717e-08
2.89908e-05
-3.82141e-07
2.89479e-05
9.81005e-08
2.91563e-05
-4.33199e-07
2.91015e-05
1.32636e-07
2.92995e-05
-4.66953e-07
2.92435e-05
1.07868e-07
2.94397e-05
-4.40871e-07
2.93645e-05
1.1794e-07
2.95869e-05
-4.67361e-07
2.95122e-05
1.23385e-07
2.97344e-05
-5.05879e-07
2.96492e-05
9.03413e-08
2.98575e-05
-5.67139e-07
2.97544e-05
-4.70923e-08
2.99907e-05
-8.03797e-07
2.99598e-05
-3.80656e-07
3.06268e-05
-1.47067e-06
3.12019e-05
-1.15967e-06
-1.46588e-06
3.20399e-05
2.51216e-05
-1.14359e-07
2.51473e-05
-5.4736e-07
2.55795e-05
-7.68081e-07
2.58124e-05
-1.06864e-06
2.63097e-05
-9.55267e-07
2.65454e-05
-1.17234e-06
2.69792e-05
-8.30093e-07
2.71323e-05
-9.03103e-07
2.75186e-05
-6.75922e-07
2.75703e-05
-6.78942e-07
2.7897e-05
-4.49522e-07
2.78922e-05
-5.80287e-07
2.81816e-05
-2.86078e-07
2.8155e-05
-4.60709e-07
2.84254e-05
-2.75094e-07
2.83802e-05
-3.90181e-07
2.86337e-05
-2.1445e-07
2.85739e-05
-4.57652e-07
2.88292e-05
-1.4709e-07
2.8754e-05
-4.09261e-07
2.90126e-05
-1.84854e-07
2.89265e-05
-2.96015e-07
2.91659e-05
-1.41326e-07
2.90796e-05
-3.46873e-07
2.93215e-05
-1.09291e-07
2.9212e-05
-3.57484e-07
2.94641e-05
-1.44167e-07
2.93501e-05
-3.2695e-07
2.95914e-05
-1.23286e-07
2.94924e-05
-3.68419e-07
2.97446e-05
-1.2878e-07
2.9629e-05
-3.90291e-07
2.98769e-05
-1.57558e-07
2.9745e-05
-4.35244e-07
3.00027e-05
-3.04822e-07
2.98361e-05
-6.37139e-07
3.0006e-05
-5.50587e-07
2.94174e-05
-8.82054e-07
2.89225e-05
-6.64818e-07
-8.2076e-07
2.82774e-05
2.51012e-05
-2.15542e-07
2.52316e-05
-6.77784e-07
2.5606e-05
-1.14248e-06
2.59144e-05
-1.377e-06
2.63917e-05
-1.43263e-06
2.66593e-05
-1.43988e-06
2.70687e-05
-1.23952e-06
2.72606e-05
-1.09498e-06
2.75922e-05
-1.00758e-06
2.76907e-05
-7.77439e-07
2.79515e-05
-7.10288e-07
2.80049e-05
-6.33707e-07
2.82423e-05
-5.23429e-07
2.8265e-05
-4.83421e-07
2.84923e-05
-5.0239e-07
2.84971e-05
-3.95007e-07
2.87144e-05
-4.318e-07
2.87009e-05
-4.44136e-07
2.89098e-05
-3.5601e-07
2.88772e-05
-3.76655e-07
2.9085e-05
-3.9266e-07
2.90479e-05
-2.58861e-07
2.92423e-05
-3.35712e-07
2.92032e-05
-3.07781e-07
2.94004e-05
-3.0653e-07
2.9335e-05
-2.92027e-07
2.95449e-05
-3.54085e-07
2.9479e-05
-2.6107e-07
2.96788e-05
-3.23106e-07
2.96224e-05
-3.11958e-07
2.98265e-05
-3.32963e-07
2.9752e-05
-3.15737e-07
2.99534e-05
-3.58924e-07
2.9862e-05
-3.43931e-07
3.00302e-05
-4.72974e-07
2.98216e-05
-4.28566e-07
2.98117e-05
-5.40617e-07
2.94774e-05
-5.47785e-07
2.93767e-05
-5.64121e-07
-4.10971e-07
2.89669e-05
2.50905e-05
-3.06036e-07
2.53187e-05
-9.05994e-07
2.56816e-05
-1.50539e-06
2.60536e-05
-1.74903e-06
2.64969e-05
-1.87591e-06
2.6836e-05
-1.77899e-06
2.71886e-05
-1.5921e-06
2.74566e-05
-1.36293e-06
2.76985e-05
-1.2495e-06
2.78755e-05
-9.5441e-07
2.80589e-05
-8.93741e-07
2.81869e-05
-7.61736e-07
2.83435e-05
-6.79964e-07
2.84474e-05
-5.8736e-07
2.85927e-05
-6.47641e-07
2.86868e-05
-4.89116e-07
2.88199e-05
-5.64939e-07
2.89033e-05
-5.27558e-07
2.90108e-05
-4.63464e-07
2.90757e-05
-4.41543e-07
2.91723e-05
-4.89326e-07
2.92386e-05
-3.2511e-07
2.93264e-05
-4.2348e-07
2.93941e-05
-3.75543e-07
2.94779e-05
-3.90264e-07
2.95282e-05
-3.42347e-07
2.96211e-05
-4.4704e-07
2.96827e-05
-3.22671e-07
2.97641e-05
-4.04501e-07
2.98261e-05
-3.73931e-07
2.98965e-05
-4.03361e-07
2.99438e-05
-3.6299e-07
3.0002e-05
-4.17173e-07
3.00277e-05
-3.69646e-07
3.00067e-05
-4.51972e-07
2.99582e-05
-3.80053e-07
2.98599e-05
-4.42262e-07
2.96624e-05
-3.50375e-07
2.93946e-05
-2.96313e-07
-1.83152e-07
2.91668e-05
2.51059e-05
-4.11907e-07
2.53976e-05
-1.19773e-06
2.58106e-05
-1.91835e-06
2.62146e-05
-2.15305e-06
2.66706e-05
-2.3319e-06
2.70378e-05
-2.1462e-06
2.73862e-05
-1.94056e-06
2.76528e-05
-1.62947e-06
2.78908e-05
-1.4875e-06
2.80721e-05
-1.13571e-06
2.82476e-05
-1.06929e-06
2.83767e-05
-8.90814e-07
2.85221e-05
-8.2538e-07
2.86294e-05
-6.94587e-07
2.87685e-05
-7.86799e-07
2.88414e-05
-5.62027e-07
2.89682e-05
-6.91699e-07
2.90161e-05
-5.75454e-07
2.91194e-05
-5.66804e-07
2.91491e-05
-4.71235e-07
2.9242e-05
-5.82173e-07
2.92735e-05
-3.56661e-07
2.93685e-05
-5.1849e-07
2.93928e-05
-3.99837e-07
2.94874e-05
-4.84804e-07
2.94938e-05
-3.48781e-07
2.95892e-05
-5.42401e-07
2.95941e-05
-3.27607e-07
2.96847e-05
-4.95139e-07
2.96627e-05
-3.51923e-07
2.97456e-05
-4.86258e-07
2.97013e-05
-3.18712e-07
2.97842e-05
-5.00079e-07
2.97221e-05
-3.07488e-07
2.97784e-05
-5.08278e-07
2.96264e-05
-2.28097e-07
2.95678e-05
-3.8358e-07
2.92754e-05
-5.79841e-08
2.91351e-05
-1.56068e-07
1.27755e-07
2.88242e-05
2.51237e-05
-5.35596e-07
2.55155e-05
-1.58953e-06
2.59661e-05
-2.36896e-06
2.64321e-05
-2.61909e-06
2.68757e-05
-2.77551e-06
2.72671e-05
-2.53752e-06
2.75585e-05
-2.23202e-06
2.783e-05
-1.90093e-06
2.79946e-05
-1.65209e-06
2.81545e-05
-1.29569e-06
2.82549e-05
-1.16966e-06
2.83474e-05
-9.83292e-07
2.84008e-05
-8.78742e-07
2.84728e-05
-7.66631e-07
2.84793e-05
-7.93325e-07
2.8516e-05
-5.98689e-07
2.85007e-05
-6.76421e-07
2.84935e-05
-5.68259e-07
2.84725e-05
-5.45785e-07
2.84596e-05
-4.58349e-07
2.84204e-05
-5.42972e-07
2.84184e-05
-3.54693e-07
2.83781e-05
-4.78168e-07
2.83533e-05
-3.74968e-07
2.83127e-05
-4.44301e-07
2.82784e-05
-3.1443e-07
2.82161e-05
-4.8012e-07
2.81743e-05
-2.85749e-07
2.81108e-05
-4.31678e-07
2.80392e-05
-2.80276e-07
2.79798e-05
-4.26919e-07
2.78946e-05
-2.33501e-07
2.78294e-05
-4.34843e-07
2.77327e-05
-2.1082e-07
2.766e-05
-4.35541e-07
2.75246e-05
-9.27266e-08
2.74039e-05
-2.62876e-07
2.70912e-05
2.54696e-07
2.68097e-05
1.25419e-07
4.8065e-07
2.64568e-05
2.51669e-05
-7.0249e-07
2.56344e-05
-2.05709e-06
2.61352e-05
-2.8697e-06
2.65791e-05
-3.06302e-06
2.68674e-05
-3.06381e-06
2.70572e-05
-2.7273e-06
2.71135e-05
-2.28832e-06
2.71017e-05
-1.88909e-06
2.69906e-05
-1.54099e-06
2.68779e-05
-1.18307e-06
2.66978e-05
-9.89469e-07
2.65195e-05
-8.05036e-07
2.63154e-05
-6.74621e-07
2.61233e-05
-5.74551e-07
2.58781e-05
-5.48177e-07
2.56983e-05
-4.18817e-07
2.54529e-05
-4.31073e-07
2.52547e-05
-3.7006e-07
2.50446e-05
-3.35608e-07
2.48643e-05
-2.78096e-07
2.46461e-05
-3.24729e-07
2.45028e-05
-2.11479e-07
2.42941e-05
-2.6947e-07
2.41388e-05
-2.19597e-07
2.39431e-05
-2.48669e-07
2.38033e-05
-1.74572e-07
2.35889e-05
-2.65726e-07
2.34638e-05
-1.60639e-07
2.32632e-05
-2.31075e-07
2.31358e-05
-1.52883e-07
2.29396e-05
-2.30737e-07
2.28273e-05
-1.21179e-07
2.26238e-05
-2.31339e-07
2.25171e-05
-1.04159e-07
2.22898e-05
-2.08233e-07
2.22439e-05
-4.68542e-08
2.21253e-05
-1.44234e-07
2.2353e-05
2.70384e-08
2.25935e-05
-1.15163e-07
-4.66303e-08
2.31208e-05
2.52244e-05
-9.26911e-07
2.55513e-05
-2.38397e-06
2.55592e-05
-2.87764e-06
2.52497e-05
-2.75351e-06
2.46218e-05
-2.4359e-06
2.38688e-05
-1.97431e-06
2.30719e-05
-1.49135e-06
2.2281e-05
-1.09818e-06
2.15334e-05
-7.93414e-07
2.08778e-05
-5.27517e-07
2.02658e-05
-3.77426e-07
1.9725e-05
-2.64276e-07
1.92389e-05
-1.8849e-07
1.88055e-05
-1.41178e-07
1.83931e-05
-1.35786e-07
1.80591e-05
-8.47646e-08
1.77219e-05
-9.38737e-08
1.74364e-05
-8.45622e-08
1.71721e-05
-7.1355e-08
1.69488e-05
-5.47408e-08
1.67089e-05
-8.48573e-08
1.65385e-05
-4.11144e-08
1.63362e-05
-6.71383e-08
1.61734e-05
-5.682e-08
1.5994e-05
-6.92836e-08
1.58606e-05
-4.11124e-08
1.56761e-05
-8.1223e-08
1.55595e-05
-4.40709e-08
1.53947e-05
-6.632e-08
1.52852e-05
-4.32883e-08
1.51232e-05
-6.88247e-08
1.50361e-05
-3.40461e-08
1.48715e-05
-6.67047e-08
1.47977e-05
-3.04069e-08
1.46448e-05
-5.52782e-08
1.46082e-05
-1.02567e-08
1.44725e-05
-8.59713e-09
1.4509e-05
-9.3956e-09
1.44793e-05
-8.55145e-08
-2.4958e-07
1.46823e-05
2.40731e-05
2.16891e-05
1.88115e-05
1.6058e-05
1.36221e-05
1.16478e-05
1.01564e-05
9.05824e-06
8.26482e-06
7.7373e-06
7.35988e-06
7.0956e-06
6.90711e-06
6.76594e-06
6.63015e-06
6.54539e-06
6.45151e-06
6.36695e-06
6.29559e-06
6.24085e-06
6.156e-06
6.11488e-06
6.04774e-06
5.99092e-06
5.92164e-06
5.88053e-06
5.7993e-06
5.75523e-06
5.68891e-06
5.64563e-06
5.5768e-06
5.54275e-06
5.47605e-06
5.44564e-06
5.39036e-06
5.38011e-06
5.37151e-06
5.36212e-06
5.2766e-06
5.02702e-06
4.93269e-06
-1.7051e-07
-1.02168e-07
5.23206e-06
-2.30607e-07
-6.8757e-08
5.46411e-06
-2.67517e-07
3.5463e-08
5.6927e-06
-2.76103e-07
4.75164e-08
5.87131e-06
-2.19367e-07
4.07604e-08
5.9868e-06
-1.51822e-07
3.63229e-08
6.04041e-06
-9.60615e-08
4.24577e-08
6.04713e-06
-5.58674e-08
4.91494e-08
6.02828e-06
-1.99971e-08
3.8842e-08
6.00373e-06
8.90088e-09
1.56495e-08
5.99335e-06
3.85328e-08
-2.81527e-08
6.00303e-06
7.80771e-08
-8.7756e-08
6.03482e-06
1.2505e-07
-1.5684e-07
6.08341e-06
1.86447e-07
-2.35038e-07
6.16874e-06
2.50023e-07
-3.35348e-07
6.30019e-06
3.13664e-07
-4.45121e-07
6.48906e-06
3.83407e-07
-5.7227e-07
6.73948e-06
4.49132e-07
-6.99557e-07
7.05732e-06
5.17935e-07
-8.35774e-07
7.43454e-06
5.88984e-07
-9.66204e-07
7.86622e-06
6.55326e-07
-1.08701e-06
8.34567e-06
7.23047e-07
-1.2025e-06
8.86613e-06
7.88587e-07
-1.30905e-06
9.41981e-06
8.45898e-07
-1.39958e-06
9.99911e-06
8.98624e-07
-1.47792e-06
1.05992e-05
9.50251e-07
-1.55038e-06
1.12206e-05
9.95547e-07
-1.61691e-06
1.1857e-05
1.0263e-06
-1.66271e-06
1.25012e-05
1.05074e-06
-1.69492e-06
1.31572e-05
1.08058e-06
-1.73661e-06
1.38245e-05
1.11098e-06
-1.77827e-06
1.44927e-05
1.12183e-06
-1.79001e-06
1.51591e-05
1.1085e-06
-1.77493e-06
1.5829e-05
1.08333e-06
-1.75321e-06
1.64982e-05
1.05351e-06
-1.72274e-06
1.71628e-05
1.00627e-06
-1.67086e-06
1.78201e-05
9.43394e-07
-1.60069e-06
1.84644e-05
8.6262e-07
-1.5069e-06
1.90962e-05
7.57056e-07
-1.38889e-06
1.97163e-05
6.3026e-07
-1.25032e-06
2.03124e-05
4.95996e-07
-1.09214e-06
2.08882e-05
3.29359e-07
-9.05121e-07
2.14614e-05
1.1734e-07
-6.90586e-07
2.20031e-05
-7.55154e-08
-4.66133e-07
2.25109e-05
-2.77053e-07
-2.30769e-07
2.29806e-05
-5.18927e-07
4.91978e-08
2.33971e-05
-7.71277e-07
3.54844e-07
2.37735e-05
-1.03485e-06
6.5843e-07
2.41115e-05
-1.31977e-06
9.81719e-07
2.44159e-05
-1.6123e-06
1.30798e-06
2.46932e-05
-1.90582e-06
1.62844e-06
2.49401e-05
-2.20682e-06
1.95999e-06
2.51598e-05
-2.51249e-06
2.29274e-06
2.5364e-05
-2.81336e-06
2.60915e-06
2.55577e-05
-3.10914e-06
2.91546e-06
2.57501e-05
-3.40726e-06
3.21489e-06
2.59508e-05
-3.70085e-06
3.50015e-06
2.6166e-05
-3.97781e-06
3.76259e-06
2.6404e-05
-4.24993e-06
4.0119e-06
2.66699e-05
-4.51893e-06
4.25307e-06
2.69652e-05
-4.76253e-06
4.46727e-06
2.7288e-05
-4.98855e-06
4.66568e-06
2.76372e-05
-5.21749e-06
4.86827e-06
2.80157e-05
-5.42295e-06
5.04453e-06
2.84241e-05
-5.60272e-06
5.19429e-06
2.88608e-05
-5.78931e-06
5.35264e-06
2.93122e-05
-5.95445e-06
5.50303e-06
2.97684e-05
-6.08039e-06
5.62419e-06
3.02299e-05
-6.20598e-06
5.74445e-06
3.06782e-05
-6.30965e-06
5.86136e-06
3.10953e-05
-6.36166e-06
5.94462e-06
3.15008e-05
-6.41303e-06
6.0075e-06
3.18892e-05
-6.44638e-06
6.05798e-06
3.22359e-05
-6.4385e-06
6.09181e-06
3.2568e-05
-6.43395e-06
6.10188e-06
3.28653e-05
-6.39555e-06
6.09825e-06
3.31004e-05
-6.32951e-06
6.09442e-06
3.33077e-05
-6.25849e-06
6.05113e-06
3.34562e-05
-6.15275e-06
6.00422e-06
3.35242e-05
-6.03641e-06
5.96841e-06
3.35379e-05
-5.9096e-06
5.89596e-06
3.34689e-05
-5.7625e-06
5.83152e-06
3.33236e-05
-5.61163e-06
5.75687e-06
3.31317e-05
-5.46658e-06
5.65851e-06
3.28462e-05
-5.30243e-06
5.58796e-06
3.24762e-05
-5.12617e-06
5.49618e-06
3.20658e-05
-4.9838e-06
5.39418e-06
3.15376e-05
-4.80402e-06
5.33224e-06
3.08866e-05
-4.59541e-06
5.24638e-06
3.02206e-05
-4.46958e-06
5.13555e-06
2.94717e-05
-4.30365e-06
5.05258e-06
2.85603e-05
-4.04534e-06
4.95672e-06
2.76474e-05
-3.90449e-06
4.81739e-06
2.67974e-05
-3.80254e-06
4.65253e-06
2.58184e-05
-3.52851e-06
4.50754e-06
2.46885e-05
-3.25479e-06
4.38466e-06
2.36267e-05
-3.11856e-06
4.18037e-06
2.26908e-05
-2.9601e-06
3.89601e-06
2.17688e-05
-2.7126e-06
3.63464e-06
2.0807e-05
-2.43287e-06
3.39468e-06
1.98593e-05
-2.19185e-06
3.13949e-06
1.90155e-05
-2.01956e-06
2.86338e-06
1.82768e-05
-1.83355e-06
2.57225e-06
1.7613e-05
-1.62463e-06
2.28851e-06
1.71369e-05
-1.51652e-06
1.99259e-06
1.69461e-05
-1.50801e-06
1.69876e-06
1.68979e-05
-1.47759e-06
1.52582e-06
1.68069e-05
-1.40219e-06
1.49317e-06
1.66852e-05
-1.30551e-06
1.42724e-06
1.6611e-05
-1.16121e-06
1.23537e-06
1.65701e-05
-1.03705e-06
1.078e-06
1.65396e-05
-1.08453e-06
1.11497e-06
1.65385e-05
-1.23992e-06
1.24106e-06
1.65314e-05
-1.24492e-06
1.25204e-06
1.64531e-05
-1.06694e-06
1.14519e-06
1.63412e-05
-9.60422e-07
1.07234e-06
1.62736e-05
-1.03977e-06
1.10738e-06
1.61984e-05
-1.12364e-06
1.19883e-06
1.59966e-05
-1.06906e-06
1.27086e-06
1.56888e-05
-9.51896e-07
1.25969e-06
1.54089e-05
-8.48537e-07
1.12847e-06
1.51971e-05
-7.2016e-07
9.31906e-07
1.49645e-05
-5.64322e-07
7.96922e-07
1.46564e-05
-4.85031e-07
7.93222e-07
1.43383e-05
-5.50696e-07
8.687e-07
1.40868e-05
-6.71658e-07
9.23198e-07
1.3875e-05
-6.95424e-07
9.0721e-07
1.36279e-05
-5.81134e-07
8.28301e-07
1.33443e-05
-4.14181e-07
6.97696e-07
1.31145e-05
-2.85649e-07
5.15458e-07
1.30193e-05
-2.09578e-07
3.04836e-07
1.30483e-05
-1.48148e-07
1.19105e-07
1.31147e-05
-7.84145e-08
1.19846e-08
1.31271e-05
-2.86633e-08
1.62989e-08
1.30703e-05
-5.03928e-08
1.07183e-07
1.30105e-05
-1.64235e-07
2.24024e-07
1.30508e-05
-3.28279e-07
2.88008e-07
1.32519e-05
-4.54873e-07
2.53763e-07
1.35796e-05
-4.71276e-07
1.43601e-07
1.39317e-05
-3.80176e-07
2.80186e-08
1.42179e-05
-2.60761e-07
-2.53623e-08
1.44237e-05
-2.01712e-07
-4.12739e-09
1.45919e-05
-2.27186e-07
5.89706e-08
1.47631e-05
-2.76865e-07
1.05739e-07
1.49453e-05
-2.7418e-07
9.19572e-08
1.50754e-05
-1.74618e-07
4.45132e-08
1.50582e-05
-2.34824e-08
4.06699e-08
1.48367e-05
9.04796e-08
1.3097e-07
1.44475e-05
1.03799e-07
2.85439e-07
1.39994e-05
3.42758e-08
4.13824e-07
1.36096e-05
-4.2649e-08
4.32451e-07
1.33676e-05
-7.70655e-08
3.19034e-07
1.32932e-05
-4.32237e-08
1.17639e-07
1.3347e-05
2.36077e-08
-7.73514e-08
1.34945e-05
7.34675e-08
-2.20991e-07
1.36922e-05
6.92416e-08
-2.66974e-07
1.3905e-05
5.68571e-09
-2.18423e-07
1.40964e-05
-8.71168e-08
-1.04373e-07
1.42232e-05
-1.71885e-07
4.50823e-08
1.42578e-05
-2.25173e-07
1.90668e-07
1.41872e-05
-2.46514e-07
3.17111e-07
1.40263e-05
-2.47576e-07
4.08401e-07
1.3816e-05
-2.40634e-07
4.50971e-07
1.36092e-05
-2.3023e-07
4.37032e-07
1.34534e-05
-2.12346e-07
3.68127e-07
1.33749e-05
-1.77583e-07
2.56106e-07
1.33741e-05
-1.18302e-07
1.19109e-07
1.34315e-05
-3.50477e-08
-2.23413e-08
1.35213e-05
5.91172e-08
-1.48996e-07
1.36144e-05
1.54161e-07
-2.47165e-07
1.3689e-05
2.34706e-07
-3.09399e-07
1.37331e-05
2.91114e-07
-3.35156e-07
1.37428e-05
3.19795e-07
-3.29474e-07
1.37209e-05
3.22722e-07
-3.00877e-07
1.36743e-05
3.05504e-07
-2.58884e-07
1.36111e-05
2.75215e-07
-2.1206e-07
1.35394e-05
2.38524e-07
-1.6681e-07
1.34659e-05
2.00566e-07
-1.2702e-07
1.33955e-05
1.64677e-07
-9.43281e-08
1.33317e-05
1.32592e-07
-6.87696e-08
1.32763e-05
1.04896e-07
-4.94474e-08
1.32298e-05
8.15452e-08
-3.50959e-08
1.31922e-05
6.20714e-08
-2.44659e-08
1.31627e-05
4.59451e-08
-1.64678e-08
1.31402e-05
3.26578e-08
-1.01615e-08
1.31235e-05
2.16912e-08
-4.9199e-09
1.31113e-05
1.28065e-08
-6.6577e-10
1.31034e-05
5.80866e-09
2.07534e-09
1.31e-05
-1.34448e-09
4.75903e-09
1.30995e-05
-6.75656e-09
7.27458e-09
1.31007e-05
-1.07821e-08
9.55242e-09
1.3103e-05
-1.38584e-08
1.15822e-08
1.31059e-05
-1.62197e-08
1.33305e-08
1.31091e-05
-1.80186e-08
1.47846e-08
1.31126e-05
-1.93661e-08
1.59457e-08
1.31161e-05
-2.03256e-08
1.68311e-08
1.31196e-05
-2.09558e-08
1.74554e-08
1.3123e-05
-2.1291e-08
1.78473e-08
1.31263e-05
-2.13756e-08
1.80225e-08
1.31296e-05
-2.12343e-08
1.80118e-08
1.31326e-05
-2.09054e-08
1.78301e-08
1.31355e-05
-2.04092e-08
1.75076e-08
1.31383e-05
-1.97817e-08
1.70552e-08
1.31408e-05
-1.90376e-08
1.65015e-08
1.31432e-05
-1.82095e-08
1.5855e-08
1.31453e-05
-1.73044e-08
1.51399e-08
1.31473e-05
-1.63554e-08
1.43633e-08
1.31491e-05
-1.53558e-08
1.35426e-08
1.31508e-05
-1.4346e-08
1.26884e-08
1.31523e-05
-1.32987e-08
1.18034e-08
1.31536e-05
-1.22726e-08
1.09113e-08
1.31549e-05
-1.12062e-08
9.98992e-09
1.3156e-05
-1.01943e-08
9.09043e-09
1.31569e-05
-9.12321e-09
8.14396e-09
1.31578e-05
-8.14409e-09
7.26512e-09
1.31586e-05
-7.0708e-09
6.29065e-09
1.31593e-05
-6.13146e-09
5.46379e-09
1.31599e-05
-5.06476e-09
4.43825e-09
1.31603e-05
-4.15058e-09
3.70729e-09
1.31609e-05
-3.11927e-09
2.56607e-09
1.3161e-05
-2.1723e-09
2.03854e-09
1.31617e-05
-1.27381e-09
6.49077e-10
1.31613e-05
-1.34045e-10
4.93935e-10
1.31623e-05
4.63879e-10
-1.41826e-09
1.3161e-05
2.03507e-09
-7.90533e-10
1.31628e-05
1.94381e-09
-3.73131e-09
1.316e-05
4.37722e-09
-1.58933e-09
1.31635e-05
3.07902e-09
-6.52449e-09
1.31581e-05
6.89007e-09
-1.56278e-09
1.31644e-05
3.86196e-09
-1.0131e-08
1.31553e-05
9.37108e-09
-2.63151e-10
1.31656e-05
4.59083e-09
-1.49181e-08
1.31518e-05
1.11728e-08
2.61055e-09
1.31669e-05
6.04968e-09
-2.11101e-08
1.31487e-05
1.09416e-08
7.26195e-09
1.31671e-05
9.90559e-09
-2.82799e-08
1.3148e-05
6.59936e-09
1.24524e-08
1.31641e-05
1.83679e-08
-3.44353e-08
1.3153e-05
-4.03933e-09
1.5125e-08
1.31548e-05
3.35994e-08
-3.53678e-08
1.31677e-05
-2.2459e-08
9.55023e-09
1.31365e-05
5.57494e-08
-2.45383e-08
1.31949e-05
-4.63731e-08
-1.20347e-08
1.31082e-05
8.0128e-08
6.49037e-09
1.32297e-05
-6.83427e-08
-5.31192e-08
1.30766e-05
9.65884e-08
5.64838e-08
1.32616e-05
-7.3163e-08
-1.11812e-07
1.30511e-05
9.13408e-08
1.19189e-07
1.32704e-05
-4.77381e-08
-1.71577e-07
1.30469e-05
5.45417e-08
1.68986e-07
1.32442e-05
7.65125e-09
-2.05002e-07
1.30774e-05
-7.29732e-09
1.74139e-07
1.31876e-05
7.45904e-08
-1.84797e-07
1.31353e-05
-6.42588e-08
1.16561e-07
1.31278e-05
1.1632e-07
-1.08845e-07
1.31872e-05
-7.78678e-08
1.84694e-08
1.31005e-05
1.03469e-07
-1.67575e-08
1.31947e-05
-3.28262e-08
-6.1339e-08
1.31203e-05
4.60424e-08
2.8306e-08
1.31578e-05
3.3071e-08
-7.05777e-08
1.31633e-05
2.23588e-09
-7.71867e-09
1.31183e-05
5.17299e-08
-6.70073e-09
1.3177e-05
3.15607e-08
-9.03298e-08
1.31315e-05
-1.2709e-08
5.82106e-08
1.31386e-05
1.17531e-07
-1.24606e-07
1.31928e-05
-8.96395e-08
3.54791e-08
1.30748e-05
1.73399e-07
-5.54602e-08
1.32495e-05
-9.62831e-08
-7.84029e-08
1.30561e-05
1.40795e-07
5.2611e-08
1.32364e-05
-3.00083e-08
-1.50233e-07
1.30947e-05
8.4732e-08
5.69122e-08
1.31903e-05
-4.16461e-09
-9.13799e-08
1.31244e-05
1.23233e-07
-5.7427e-08
1.31981e-05
-9.20681e-08
1.83759e-08
1.30849e-05
2.46957e-07
-1.33749e-07
1.3269e-05
-1.86802e-07
2.69073e-09
1.30242e-05
2.78723e-07
-3.3877e-08
1.33084e-05
-1.11583e-07
-1.726e-07
1.30384e-05
1.3044e-07