/*--------------------------------*- C++ -*----------------------------------*\
| =========                 |                                                 |
| \\      /  F ield         | OpenFOAM: The Open Source CFD Toolbox           |
|  \\    /   O peration     | Version:  2.4.0                                 |
|   \\  /    A nd           | Web:      www.OpenFOAM.org                      |
|    \\/     M anipulation  |                                                 |
\*---------------------------------------------------------------------------*/
FoamFile
{
    version     2.0;
    format      ascii;
    class       surfaceScalarField;
    location    "0.059";
    object      phi;
}
// * * * * * * * * * * * * * * * * * * * * * * * * * * * * * * * * * * * * * //

dimensions      [0 3 -1 0 0 0 0];

internalField   nonuniform List<scalar> 
34880
(
5.4875e-06
7.0125e-06
3.12625e-06
2.36125e-06
2.47176e-06
6.54491e-07
2.21815e-06
2.5361e-07
2.07575e-06
1.42399e-07
1.96917e-06
1.0658e-07
1.8849e-06
8.42705e-08
1.8221e-06
6.27941e-08
1.77317e-06
4.89298e-08
1.7385e-06
3.46756e-08
1.71083e-06
2.76641e-08
1.68131e-06
2.95217e-08
1.67056e-06
1.0753e-08
1.64867e-06
2.1888e-08
1.64824e-06
4.34162e-10
1.65452e-06
-6.28778e-09
1.66475e-06
-1.02232e-08
1.73559e-06
-7.08429e-08
1.76023e-06
-2.4643e-08
-4.67828e-07
2.22806e-06
1.01105e-05
9.40201e-06
7.83261e-06
4.63913e-06
6.70787e-06
1.77923e-06
6.06332e-06
8.98161e-07
5.64708e-06
5.58642e-07
5.34967e-06
4.03992e-07
5.12196e-06
3.11982e-07
4.94558e-06
2.39172e-07
4.80663e-06
1.87884e-07
4.70509e-06
1.36212e-07
4.61524e-06
1.17512e-07
4.54308e-06
1.01679e-07
4.48996e-06
6.38782e-08
4.43736e-06
7.44867e-08
4.4137e-06
2.40888e-08
4.40247e-06
4.95024e-09
4.42522e-06
-3.29766e-08
4.52878e-06
-1.74404e-07
4.67417e-06
-1.70037e-07
-5.24842e-07
4.73119e-06
1.24251e-05
9.47692e-06
1.10078e-05
6.05639e-06
9.97737e-06
2.80969e-06
9.20234e-06
1.67319e-06
8.62055e-06
1.14043e-06
8.18961e-06
8.34936e-07
7.85754e-06
6.44048e-07
7.59453e-06
5.02183e-07
7.38339e-06
3.99024e-07
7.22698e-06
2.92626e-07
7.08287e-06
2.61616e-07
6.97684e-06
2.07719e-07
6.88302e-06
1.5769e-07
6.80577e-06
1.51735e-07
6.75621e-06
7.3656e-08
6.71963e-06
4.15298e-08
6.7481e-06
-6.14478e-08
6.82577e-06
-2.52073e-07
7.02748e-06
-3.71754e-07
-6.42557e-07
7.1452e-06
1.34112e-05
8.56573e-06
1.28949e-05
6.57273e-06
1.23232e-05
3.3813e-06
1.17159e-05
2.2805e-06
1.11354e-05
1.72096e-06
1.06576e-05
1.3128e-06
1.02735e-05
1.02808e-06
9.95912e-06
8.16584e-07
9.69881e-06
6.59335e-07
9.50512e-06
4.8632e-07
9.31864e-06
4.48094e-07
9.1864e-06
3.39959e-07
9.06076e-06
2.83324e-07
8.96025e-06
2.52253e-07
8.89208e-06
1.41826e-07
8.82419e-06
1.09411e-07
8.85538e-06
-9.2638e-08
8.90113e-06
-2.97822e-07
9.07286e-06
-5.4348e-07
-8.0644e-07
9.23674e-06
1.35878e-05
7.47793e-06
1.36687e-05
6.49185e-06
1.36227e-05
3.42732e-06
1.34e-05
2.50316e-06
1.30199e-05
2.10107e-06
1.26243e-05
1.70833e-06
1.22716e-05
1.3808e-06
1.19645e-05
1.12372e-06
1.16941e-05
9.2973e-07
1.14923e-05
6.88099e-07
1.12869e-05
6.53496e-07
1.11419e-05
4.85004e-07
1.10006e-05
4.24637e-07
1.08835e-05
3.69296e-07
1.08086e-05
2.16744e-07
1.07126e-05
2.05437e-07
1.07429e-05
-1.22959e-07
1.07769e-05
-3.31804e-07
1.08683e-05
-6.34912e-07
-8.94103e-07
1.0956e-05
1.34755e-05
6.50242e-06
1.37636e-05
6.20378e-06
1.40026e-05
3.18831e-06
1.41425e-05
2.36329e-06
1.40824e-05
2.16111e-06
1.39018e-05
1.88895e-06
1.36898e-05
1.59279e-06
1.34761e-05
1.33742e-06
1.32588e-05
1.14701e-06
1.30934e-05
8.53489e-07
1.29073e-05
8.39652e-07
1.27733e-05
6.18987e-07
1.26406e-05
5.57345e-07
1.25216e-05
4.88262e-07
1.24566e-05
2.81738e-07
1.23443e-05
3.1774e-07
1.23734e-05
-1.52064e-07
1.24245e-05
-3.82859e-07
1.24001e-05
-6.10562e-07
-8.66423e-07
1.23725e-05
1.33485e-05
5.65391e-06
1.36992e-05
5.85307e-06
1.39486e-05
2.9389e-06
1.42198e-05
2.09212e-06
1.43844e-05
1.99649e-06
1.44177e-05
1.85565e-06
1.43926e-05
1.61793e-06
1.43416e-05
1.38839e-06
1.425e-05
1.2386e-06
1.418e-05
9.235e-07
1.40682e-05
9.51443e-07
1.39843e-05
7.0296e-07
1.38958e-05
6.45788e-07
1.37991e-05
5.84975e-07
1.37687e-05
3.12119e-07
1.36565e-05
4.29948e-07
1.36971e-05
-1.92642e-07
1.37785e-05
-4.64292e-07
1.36927e-05
-5.24775e-07
-1.46196e-06
1.42883e-05
1.32507e-05
4.90317e-06
1.36826e-05
5.42117e-06
1.38325e-05
2.789e-06
1.40978e-05
1.82687e-06
1.4325e-05
1.76927e-06
1.44534e-05
1.72724e-06
1.45285e-05
1.54281e-06
1.45968e-05
1.32011e-06
1.46284e-05
1.207e-06
1.46665e-05
8.85381e-07
1.46662e-05
9.51819e-07
1.4665e-05
7.04111e-07
1.46593e-05
6.51479e-07
1.46193e-05
6.24993e-07
1.4653e-05
2.78404e-07
1.45668e-05
5.16129e-07
1.46546e-05
-2.80364e-07
1.47466e-05
-5.56297e-07
1.46814e-05
-4.59627e-07
-2.19214e-06
1.54116e-05
1.31783e-05
4.22488e-06
1.36181e-05
4.98131e-06
1.37424e-05
2.6647e-06
1.3984e-05
1.58536e-06
1.42071e-05
1.54617e-06
1.43591e-05
1.57524e-06
1.44588e-05
1.44305e-06
1.45589e-05
1.21999e-06
1.46451e-05
1.12088e-06
1.47294e-05
8.01061e-07
1.48032e-05
8.78006e-07
1.4859e-05
6.48311e-07
1.49187e-05
5.91812e-07
1.49466e-05
5.97051e-07
1.50392e-05
1.85814e-07
1.50097e-05
5.45667e-07
1.51658e-05
-4.36544e-07
1.52665e-05
-6.56973e-07
1.52904e-05
-4.83492e-07
-3.03046e-06
1.61287e-05
1.31186e-05
3.60632e-06
1.35617e-05
4.53822e-06
1.36766e-05
2.54975e-06
1.38987e-05
1.36324e-06
1.41114e-05
1.3335e-06
1.42647e-05
1.42197e-06
1.43717e-05
1.33596e-06
1.4471e-05
1.12075e-06
1.4573e-05
1.01887e-06
1.46631e-05
7.10907e-07
1.47615e-05
7.79694e-07
1.48319e-05
5.77875e-07
1.49028e-05
5.20931e-07
1.4977e-05
5.22827e-07
1.50556e-05
1.07218e-07
1.50997e-05
5.01521e-07
1.5292e-05
-6.2884e-07
1.53343e-05
-6.99215e-07
1.55599e-05
-7.09118e-07
-3.83427e-06
1.63637e-05
1.30544e-05
3.05191e-06
1.35108e-05
4.0818e-06
1.36328e-05
2.42776e-06
1.38376e-05
1.15848e-06
1.40338e-05
1.13729e-06
1.41871e-05
1.26865e-06
1.43025e-05
1.2206e-06
1.44017e-05
1.02147e-06
1.45034e-05
9.1723e-07
1.4589e-05
6.25315e-07
1.46921e-05
6.76602e-07
1.47641e-05
5.05814e-07
1.48362e-05
4.48868e-07
1.49352e-05
4.23837e-07
1.49587e-05
8.36729e-08
1.51013e-05
3.58914e-07
1.52174e-05
-7.44856e-07
1.52195e-05
-7.0132e-07
1.56573e-05
-1.14697e-06
-4.40052e-06
1.62236e-05
1.29885e-05
2.56345e-06
1.3457e-05
3.61321e-06
1.36025e-05
2.28229e-06
1.37896e-05
9.71376e-07
1.39686e-05
9.58317e-07
1.41228e-05
1.11439e-06
1.42435e-05
1.09999e-06
1.43494e-05
9.15537e-07
1.44481e-05
8.18514e-07
1.45255e-05
5.47957e-07
1.46281e-05
5.74021e-07
1.46931e-05
4.40782e-07
1.47832e-05
3.58771e-07
1.48688e-05
3.38186e-07
1.48874e-05
6.50732e-08
1.50977e-05
1.48691e-07
1.50737e-05
-7.20882e-07
1.51698e-05
-7.97425e-07
1.57144e-05
-1.69161e-06
-4.53278e-06
1.58467e-05
1.29306e-05
2.13283e-06
1.34017e-05
3.14215e-06
1.35987e-05
2.08526e-06
1.37493e-05
8.2076e-07
1.39094e-05
7.98271e-07
1.40653e-05
9.58454e-07
1.41926e-05
9.7271e-07
1.43055e-05
8.0264e-07
1.4398e-05
7.26002e-07
1.44738e-05
4.72143e-07
1.45732e-05
4.74601e-07
1.46356e-05
3.78407e-07
1.47352e-05
2.5915e-07
1.47877e-05
2.85701e-07
1.48658e-05
-1.29987e-08
1.50399e-05
-2.53943e-08
1.49626e-05
-6.43563e-07
1.52235e-05
-1.05839e-06
1.56442e-05
-2.11228e-06
-4.2794e-06
1.53908e-05
1.28845e-05
1.74834e-06
1.33514e-05
2.67527e-06
1.3611e-05
1.82558e-06
1.37154e-05
7.16416e-07
1.3858e-05
6.55691e-07
1.40157e-05
8.00729e-07
1.41471e-05
8.41298e-07
1.42638e-05
6.85901e-07
1.43537e-05
6.36158e-07
1.44332e-05
3.92613e-07
1.4522e-05
3.85799e-07
1.45959e-05
3.04535e-07
1.46779e-05
1.77157e-07
1.47284e-05
2.35146e-07
1.48576e-05
-1.4213e-07
1.49312e-05
-9.89906e-08
1.49422e-05
-6.54572e-07
1.52674e-05
-1.38358e-06
1.54436e-05
-2.28855e-06
-3.91304e-06
1.50773e-05
1.28477e-05
1.40062e-06
1.33074e-05
2.21562e-06
1.35884e-05
1.5446e-06
1.36897e-05
6.15111e-07
1.38176e-05
5.27757e-07
1.39737e-05
6.44671e-07
1.41077e-05
7.07245e-07
1.42274e-05
5.66182e-07
1.4318e-05
5.4564e-07
1.43974e-05
3.13127e-07
1.44813e-05
3.01942e-07
1.45658e-05
2.20077e-07
1.46143e-05
1.28631e-07
1.47122e-05
1.37237e-07
1.48144e-05
-2.44387e-07
1.48377e-05
-1.22256e-07
1.49887e-05
-8.05532e-07
1.52164e-05
-1.61129e-06
1.52103e-05
-2.28243e-06
-3.69155e-06
1.49888e-05
1.28177e-05
1.08289e-06
1.32701e-05
1.76328e-06
1.35642e-05
1.25051e-06
1.36715e-05
5.0775e-07
1.37873e-05
4.12003e-07
1.39384e-05
4.93525e-07
1.40738e-05
5.71893e-07
1.41959e-05
4.44052e-07
1.42905e-05
4.51048e-07
1.43662e-05
2.37384e-07
1.44556e-05
2.12628e-07
1.4527e-05
1.48578e-07
1.45721e-05
8.36224e-08
1.4712e-05
-2.67554e-09
1.47314e-05
-2.63849e-07
1.48161e-05
-2.06967e-07
1.50213e-05
-1.01067e-06
1.50838e-05
-1.67383e-06
1.5063e-05
-2.2616e-06
-3.71777e-06
1.50892e-05
1.27934e-05
7.89541e-07
1.32403e-05
1.31632e-06
1.35432e-05
9.47648e-07
1.36598e-05
3.91168e-07
1.37637e-05
3.08043e-07
1.39098e-05
3.47466e-07
1.40471e-05
4.34617e-07
1.41715e-05
3.19625e-07
1.4267e-05
3.55502e-07
1.43438e-05
1.60648e-07
1.44362e-05
1.20162e-07
1.44831e-05
1.01663e-07
1.45674e-05
-6.10102e-10
1.46814e-05
-1.16671e-07
1.46645e-05
-2.46994e-07
1.48538e-05
-3.96293e-07
1.49754e-05
-1.13224e-06
1.49618e-05
-1.6602e-06
1.50426e-05
-2.34239e-06
-3.88364e-06
1.52084e-05
1.27751e-05
5.14459e-07
1.32183e-05
8.73147e-07
1.35261e-05
6.39759e-07
1.36533e-05
2.64025e-07
1.37468e-05
2.14544e-07
1.38887e-05
2.05515e-07
1.40268e-05
2.96552e-07
1.41519e-05
1.94475e-07
1.42493e-05
2.58151e-07
1.43331e-05
7.68348e-08
1.44096e-05
4.36434e-08
1.44597e-05
5.15547e-08
1.45738e-05
-1.14683e-07
1.46171e-05
-1.59993e-07
1.46658e-05
-2.95631e-07
1.48722e-05
-6.02685e-07
1.48818e-05
-1.1419e-06
1.49239e-05
-1.70224e-06
1.50685e-05
-2.48702e-06
-4.03612e-06
1.5221e-05
1.27628e-05
2.51609e-07
1.32035e-05
4.32545e-07
1.35146e-05
3.28566e-07
1.3651e-05
1.2765e-07
1.3735e-05
1.3061e-07
1.38751e-05
6.53436e-08
1.40135e-05
1.58156e-07
1.41373e-05
7.067e-08
1.4241e-05
1.54439e-07
1.43244e-05
-6.54549e-09
1.43827e-05
-1.4669e-08
1.4468e-05
-3.37615e-08
1.45509e-05
-1.9754e-07
1.45748e-05
-1.83861e-07
1.47084e-05
-4.29295e-07
1.4825e-05
-7.19267e-07
1.48242e-05
-1.14105e-06
1.49454e-05
-1.82344e-06
1.50604e-05
-2.60204e-06
-4.17209e-06
1.51964e-05
1.27569e-05
-5.27094e-09
1.3196e-05
-6.60501e-09
1.35088e-05
1.58032e-08
1.36506e-05
-1.4168e-08
1.37291e-05
5.21381e-08
1.38695e-05
-7.50947e-08
1.40052e-05
2.24639e-08
1.41291e-05
-5.31836e-08
1.4242e-05
4.14952e-08
1.43109e-05
-7.54084e-08
1.43764e-05
-8.01918e-08
1.44802e-05
-1.37609e-07
1.4507e-05
-2.24305e-07
1.45903e-05
-2.67116e-07
1.47209e-05
-5.59954e-07
1.47595e-05
-7.57832e-07
1.48331e-05
-1.2147e-06
1.49588e-05
-1.94909e-06
1.50314e-05
-2.67471e-06
-4.27419e-06
1.51336e-05
1.27571e-05
-2.62329e-07
1.3196e-05
-4.45511e-07
1.3509e-05
-2.97204e-07
1.36504e-05
-1.55558e-07
1.37294e-05
-2.69067e-08
1.38704e-05
-2.16057e-07
1.40022e-05
-1.09342e-07
1.41315e-05
-1.82509e-07
1.42435e-05
-7.05109e-08
1.43009e-05
-1.32767e-07
1.43932e-05
-1.72516e-07
1.44694e-05
-2.138e-07
1.44906e-05
-2.45492e-07
1.46286e-05
-4.0511e-07
1.46862e-05
-6.17626e-07
1.47412e-05
-8.12803e-07
1.48633e-05
-1.33683e-06
1.49419e-05
-2.02761e-06
1.50026e-05
-2.73544e-06
-4.27249e-06
1.50009e-05
1.27634e-05
-5.25729e-07
1.32034e-05
-8.8554e-07
1.35144e-05
-6.08202e-07
1.36508e-05
-2.91896e-07
1.37365e-05
-1.12636e-07
1.38767e-05
-3.56214e-07
1.40068e-05
-2.39517e-07
1.4142e-05
-3.17691e-07
1.42414e-05
-1.69895e-07
1.43105e-05
-2.01878e-07
1.44092e-05
-2.71175e-07
1.44505e-05
-2.55125e-07
1.45182e-05
-3.13242e-07
1.46369e-05
-5.23761e-07
1.46558e-05
-6.36526e-07
1.47694e-05
-9.26397e-07
1.487e-05
-1.43744e-06
1.49175e-05
-2.07514e-06
1.49845e-05
-2.80245e-06
-4.21848e-06
1.49305e-05
1.27757e-05
-8.01478e-07
1.32182e-05
-1.328e-06
1.35251e-05
-9.15116e-07
1.36542e-05
-4.21011e-07
1.37491e-05
-2.07534e-07
1.38884e-05
-4.95496e-07
1.40219e-05
-3.72965e-07
1.41541e-05
-4.49899e-07
1.42451e-05
-2.60941e-07
1.43364e-05
-2.93158e-07
1.44086e-05
-3.43379e-07
1.44595e-05
-3.06048e-07
1.45536e-05
-4.07314e-07
1.46186e-05
-5.88754e-07
1.46679e-05
-6.85818e-07
1.4799e-05
-1.05749e-06
1.48573e-05
-1.49578e-06
1.49098e-05
-2.1276e-06
1.49851e-05
-2.87776e-06
-4.19554e-06
1.49622e-05
1.27943e-05
-1.09573e-06
1.324e-05
-1.77379e-06
1.35408e-05
-1.21591e-06
1.36618e-05
-5.41941e-07
1.3767e-05
-3.12759e-07
1.39086e-05
-6.37155e-07
1.40446e-05
-5.08899e-07
1.41662e-05
-5.71561e-07
1.42649e-05
-3.59647e-07
1.43591e-05
-3.87359e-07
1.44105e-05
-3.94708e-07
1.4498e-05
-3.93528e-07
1.4565e-05
-4.74313e-07
1.46179e-05
-6.417e-07
1.47061e-05
-7.74066e-07
1.48079e-05
-1.15921e-06
1.48515e-05
-1.5394e-06
1.49235e-05
-2.19964e-06
1.49939e-05
-2.9481e-06
-4.16895e-06
1.49673e-05
1.28189e-05
-1.41462e-06
1.32687e-05
-2.22359e-06
1.35614e-05
-1.50858e-06
1.36739e-05
-6.54452e-07
1.37911e-05
-4.29934e-07
1.3938e-05
-7.84063e-07
1.40701e-05
-6.41037e-07
1.41874e-05
-6.88883e-07
1.4295e-05
-4.67184e-07
1.43736e-05
-4.65974e-07
1.44374e-05
-4.58486e-07
1.4535e-05
-4.91181e-07
1.45686e-05
-5.07906e-07
1.46525e-05
-7.2556e-07
1.47377e-05
-8.59325e-07
1.48105e-05
-1.23196e-06
1.48657e-05
-1.59462e-06
1.49496e-05
-2.2835e-06
1.49975e-05
-2.99603e-06
-4.16518e-06
1.49937e-05
1.28495e-05
-1.76415e-06
1.33046e-05
-2.67865e-06
1.35855e-05
-1.78945e-06
1.3691e-05
-7.59979e-07
1.38235e-05
-5.62426e-07
1.39738e-05
-9.34404e-07
1.41001e-05
-7.67342e-07
1.42218e-05
-8.10584e-07
1.43229e-05
-5.68246e-07
1.43971e-05
-5.40162e-07
1.44809e-05
-5.4234e-07
1.45572e-05
-5.67502e-07
1.45957e-05
-5.46325e-07
1.47012e-05
-8.31134e-07
1.47559e-05
-9.13943e-07
1.48284e-05
-1.30453e-06
1.48943e-05
-1.66054e-06
1.49739e-05
-2.36302e-06
1.50089e-05
-3.03111e-06
-4.20681e-06
1.50506e-05
1.28864e-05
-2.15051e-06
1.3348e-05
-3.14032e-06
1.36089e-05
-2.05035e-06
1.37148e-05
-8.6589e-07
1.38657e-05
-7.13243e-07
1.40138e-05
-1.08256e-06
1.41406e-05
-8.94149e-07
1.42616e-05
-9.31563e-07
1.43526e-05
-6.59285e-07
1.44396e-05
-6.27086e-07
1.45205e-05
-6.23268e-07
1.45834e-05
-6.30387e-07
1.46496e-05
-6.12496e-07
1.4743e-05
-9.24606e-07
1.47799e-05
-9.50817e-07
1.48672e-05
-1.39183e-06
1.49197e-05
-1.71306e-06
1.49929e-05
-2.43621e-06
1.50442e-05
-3.08236e-06
-4.27158e-06
1.51089e-05
1.29315e-05
-2.58203e-06
1.33988e-05
-3.60761e-06
1.36005e-05
-2.25202e-06
1.37472e-05
-1.01264e-06
1.39177e-05
-8.83749e-07
1.40614e-05
-1.22619e-06
1.41925e-05
-1.02529e-06
1.43003e-05
-1.03934e-06
1.43973e-05
-7.56331e-07
1.44908e-05
-7.20509e-07
1.4558e-05
-6.90525e-07
1.46322e-05
-7.04566e-07
1.47104e-05
-6.90739e-07
1.4782e-05
-9.96166e-07
1.48264e-05
-9.95265e-07
1.49098e-05
-1.47522e-06
1.49349e-05
-1.73808e-06
1.50194e-05
-2.52072e-06
1.50893e-05
-3.15228e-06
-4.3415e-06
1.51592e-05
1.29879e-05
-3.06988e-06
1.34543e-05
-4.07402e-06
1.36024e-05
-2.40013e-06
1.3788e-05
-1.19824e-06
1.39775e-05
-1.07327e-06
1.41191e-05
-1.36782e-06
1.42496e-05
-1.15572e-06
1.4343e-05
-1.13279e-06
1.44551e-05
-8.68475e-07
1.45404e-05
-8.05738e-07
1.46117e-05
-7.61812e-07
1.46956e-05
-7.88508e-07
1.47665e-05
-7.61635e-07
1.4831e-05
-1.06071e-06
1.48825e-05
-1.04669e-06
1.49394e-05
-1.53214e-06
1.49558e-05
-1.75444e-06
1.50539e-05
-2.61888e-06
1.51215e-05
-3.21988e-06
-4.42679e-06
1.52068e-05
1.30527e-05
-3.62254e-06
1.35082e-05
-4.52955e-06
1.36334e-05
-2.5253e-06
1.38376e-05
-1.40251e-06
1.40449e-05
-1.28054e-06
1.41854e-05
-1.50829e-06
1.43118e-05
-1.28221e-06
1.43982e-05
-1.2191e-06
1.45152e-05
-9.85543e-07
1.45954e-05
-8.8588e-07
1.46847e-05
-8.51174e-07
1.47568e-05
-8.60602e-07
1.48263e-05
-8.31098e-07
1.48818e-05
-1.11625e-06
1.49288e-05
-1.09367e-06
1.49651e-05
-1.56838e-06
1.49931e-05
-1.78246e-06
1.50754e-05
-2.70116e-06
1.51162e-05
-3.26072e-06
-4.54388e-06
1.52333e-05
1.31161e-05
-4.23866e-06
1.35595e-05
-4.97294e-06
1.36792e-05
-2.64499e-06
1.39017e-05
-1.62505e-06
1.4123e-05
-1.50177e-06
1.42605e-05
-1.6458e-06
1.43848e-05
-1.40649e-06
1.44673e-05
-1.30167e-06
1.45803e-05
-1.09854e-06
1.46631e-05
-9.68664e-07
1.47572e-05
-9.45224e-07
1.48142e-05
-9.17629e-07
1.4884e-05
-9.00869e-07
1.49178e-05
-1.15011e-06
1.49622e-05
-1.13804e-06
1.49795e-05
-1.58565e-06
1.49965e-05
-1.79947e-06
1.5009e-05
-2.71373e-06
1.49727e-05
-3.22434e-06
-4.56998e-06
1.49988e-05
1.31765e-05
-4.91511e-06
1.36177e-05
-5.41419e-06
1.37462e-05
-2.77348e-06
1.39863e-05
-1.86521e-06
1.42175e-05
-1.73291e-06
1.4351e-05
-1.77927e-06
1.44687e-05
-1.52425e-06
1.45489e-05
-1.38182e-06
1.46496e-05
-1.19932e-06
1.47234e-05
-1.04242e-06
1.47947e-05
-1.01656e-06
1.48312e-05
-9.54082e-07
1.48751e-05
-9.44751e-07
1.48726e-05
-1.14763e-06
1.48824e-05
-1.14781e-06
1.48383e-05
-1.54154e-06
1.47832e-05
-1.74443e-06
1.46621e-05
-2.59264e-06
1.44835e-05
-3.04572e-06
-4.38573e-06
1.42993e-05
1.32486e-05
-5.66374e-06
1.36833e-05
-5.84886e-06
1.38369e-05
-2.92709e-06
1.40958e-05
-2.12408e-06
1.433e-05
-1.96714e-06
1.44434e-05
-1.89265e-06
1.45341e-05
-1.61489e-06
1.45852e-05
-1.43293e-06
1.46313e-05
-1.24547e-06
1.4651e-05
-1.06214e-06
1.46486e-05
-1.01414e-06
1.46216e-05
-9.27084e-07
1.45888e-05
-9.11907e-07
1.45097e-05
-1.06859e-06
1.44349e-05
-1.07294e-06
1.42968e-05
-1.40347e-06
1.41407e-05
-1.58833e-06
1.38812e-05
-2.33313e-06
1.35667e-05
-2.73124e-06
-4.00143e-06
1.31824e-05
1.33466e-05
-6.51037e-06
1.36981e-05
-6.20031e-06
1.39503e-05
-3.17931e-06
1.42145e-05
-2.38829e-06
1.43877e-05
-2.14036e-06
1.44104e-05
-1.91533e-06
1.4394e-05
-1.59847e-06
1.43309e-05
-1.3699e-06
1.4248e-05
-1.16252e-06
1.41539e-05
-9.68095e-07
1.40396e-05
-8.99756e-07
1.39224e-05
-8.09963e-07
1.38008e-05
-7.90284e-07
1.36467e-05
-9.14501e-07
1.34966e-05
-9.22813e-07
1.3289e-05
-1.19589e-06
1.30588e-05
-1.3581e-06
1.27102e-05
-1.98457e-06
1.23041e-05
-2.32506e-06
-3.50147e-06
1.18041e-05
1.34735e-05
-7.48386e-06
1.37626e-05
-6.48937e-06
1.40031e-05
-3.41981e-06
1.41375e-05
-2.52276e-06
1.40843e-05
-2.08716e-06
1.38967e-05
-1.72774e-06
1.36871e-05
-1.38887e-06
1.3465e-05
-1.14776e-06
1.32505e-05
-9.47961e-07
1.30595e-05
-7.77101e-07
1.28688e-05
-7.09144e-07
1.26965e-05
-6.37655e-07
1.25266e-05
-6.20395e-07
1.23344e-05
-7.22261e-07
1.21456e-05
-7.33985e-07
1.1902e-05
-9.52321e-07
1.16322e-05
-1.0883e-06
1.12355e-05
-1.58784e-06
1.07726e-05
-1.86217e-06
-2.6282e-06
9.89933e-06
1.35857e-05
-8.56956e-06
1.36676e-05
-6.57132e-06
1.36232e-05
-3.37541e-06
1.33963e-05
-2.29578e-06
1.30202e-05
-1.71109e-06
1.26197e-05
-1.3273e-06
1.22661e-05
-1.0352e-06
1.19527e-05
-8.34424e-07
1.16806e-05
-6.75825e-07
1.1454e-05
-5.50535e-07
1.12414e-05
-4.9655e-07
1.10556e-05
-4.51847e-07
1.08736e-05
-4.3838e-07
1.06731e-05
-5.21782e-07
1.04726e-05
-5.33431e-07
1.02188e-05
-6.98492e-07
9.93448e-06
-8.04031e-07
9.52164e-06
-1.17501e-06
9.04645e-06
-1.38698e-06
-1.89909e-06
8.31734e-06
1.34094e-05
-9.47891e-06
1.28942e-05
-6.05613e-06
1.23239e-05
-2.80518e-06
1.17127e-05
-1.68449e-06
1.11349e-05
-1.13329e-06
1.0653e-05
-8.45405e-07
1.02664e-05
-6.48693e-07
9.94694e-06
-5.14915e-07
9.68203e-06
-4.10913e-07
9.46596e-06
-3.34469e-07
9.26879e-06
-2.99382e-07
9.09686e-06
-2.79917e-07
8.92752e-06
-2.69038e-07
8.73962e-06
-3.33888e-07
8.54761e-06
-3.41415e-07
8.30479e-06
-4.55671e-07
8.02715e-06
-5.26395e-07
7.62959e-06
-7.77444e-07
7.16273e-06
-9.20117e-07
-1.27662e-06
6.54026e-06
1.24238e-05
-9.40267e-06
1.10074e-05
-4.63974e-06
9.97825e-06
-1.77606e-06
9.1992e-06
-9.05444e-07
8.61973e-06
-5.53808e-07
8.1849e-06
-4.10578e-07
7.85017e-06
-3.13962e-07
7.58247e-06
-2.4721e-07
7.36575e-06
-1.94198e-07
7.19012e-06
-1.5884e-07
7.03239e-06
-1.41648e-07
6.8915e-06
-1.39032e-07
6.75261e-06
-1.30147e-07
6.59256e-06
-1.73838e-07
6.42653e-06
-1.75385e-07
6.2132e-06
-2.42338e-07
5.96509e-06
-2.78285e-07
5.60943e-06
-4.21789e-07
5.18339e-06
-4.94077e-07
-7.34095e-07
4.64086e-06
1.01099e-05
-7.01255e-06
7.832e-06
-2.36186e-06
6.7089e-06
-6.52956e-07
6.06025e-06
-2.56803e-07
5.64651e-06
-1.40063e-07
5.34521e-06
-1.09277e-07
5.11594e-06
-8.46946e-08
4.9348e-06
-6.60711e-08
4.79141e-06
-5.08059e-08
4.67471e-06
-4.21354e-08
4.57079e-06
-3.77279e-08
4.47256e-06
-4.08084e-08
4.37803e-06
-3.56111e-08
4.25914e-06
-5.49566e-08
4.13733e-06
-5.35716e-08
3.97358e-06
-7.85899e-08
3.78367e-06
-8.83703e-08
3.50279e-06
-1.40914e-07
3.16962e-06
-1.60899e-07
-2.89121e-07
2.72464e-06
5.48745e-06
3.12558e-06
2.47263e-06
2.21583e-06
2.07576e-06
1.96649e-06
1.88179e-06
1.81572e-06
1.76491e-06
1.72278e-06
1.68505e-06
1.64424e-06
1.60863e-06
1.55368e-06
1.5001e-06
1.42151e-06
1.33314e-06
1.19223e-06
1.03133e-06
7.4221e-07
2.98787e-06
2.99539e-07
-1.05935e-06
3.72773e-06
2.61268e-07
-1.00113e-06
4.52142e-06
5.32515e-07
-1.3262e-06
5.52321e-06
3.93848e-07
-1.39564e-06
6.38683e-06
6.42796e-08
-9.27904e-07
7.13217e-06
-9.13476e-07
1.6814e-07
7.91243e-06
-1.75231e-06
9.72042e-07
8.65964e-06
-3.04464e-06
2.29743e-06
9.26666e-06
-4.93802e-06
4.331e-06
9.9895e-06
-6.42958e-06
5.70673e-06
1.08255e-05
-8.56636e-06
7.73037e-06
1.13585e-05
-1.05123e-05
9.97932e-06
1.14414e-05
-1.24598e-05
1.23769e-05
1.11728e-05
-1.49287e-05
1.51973e-05
1.052e-05
-1.53441e-05
1.59969e-05
9.55286e-06
-1.5142e-05
1.61091e-05
8.78096e-06
-1.4077e-05
1.48489e-05
7.66855e-06
-1.07702e-05
1.18826e-05
7.11679e-06
-9.16319e-06
9.71495e-06
6.83869e-06
-6.33797e-06
6.61607e-06
5.79376e-06
-2.20557e-06
3.25051e-06
5.12521e-06
-1.74424e-06
2.41279e-06
5.79344e-06
-2.09628e-06
1.42805e-06
6.52508e-06
4.95066e-06
-5.6823e-06
6.85314e-06
1.38408e-05
-1.41689e-05
7.08746e-06
1.54852e-05
-1.57196e-05
6.92588e-06
1.39214e-05
-1.37598e-05
7.10129e-06
1.2682e-05
-1.28574e-05
7.50316e-06
1.14079e-05
-1.18098e-05
7.91912e-06
1.07404e-05
-1.11564e-05
8.37727e-06
9.59501e-06
-1.00532e-05
8.97176e-06
1.05568e-05
-1.11513e-05
9.73725e-06
1.13744e-05
-1.21399e-05
1.07095e-05
1.0787e-05
-1.17593e-05
1.1707e-05
1.14992e-05
-1.24967e-05
1.24722e-05
9.49699e-06
-1.02622e-05
1.31651e-05
5.5727e-06
-6.2656e-06
1.38173e-05
3.34762e-06
-3.99975e-06
1.42695e-05
-9.52468e-07
5.00223e-07
1.45129e-05
-5.47505e-06
5.23169e-06
1.44995e-05
-8.22913e-06
8.24252e-06
1.40395e-05
-1.12151e-05
1.16751e-05
1.3568e-05
-1.21689e-05
1.26404e-05
1.39486e-05
-1.36815e-05
1.3301e-05
1.46653e-05
-1.79625e-05
1.72458e-05
1.49865e-05
-2.07899e-05
2.04687e-05
1.50808e-05
-2.25734e-05
2.2479e-05
1.4801e-05
-2.40578e-05
2.43376e-05
1.41384e-05
-2.35212e-05
2.41839e-05
1.37194e-05
-2.28317e-05
2.32506e-05
1.34748e-05
-2.33318e-05
2.35764e-05
1.29424e-05
-2.28526e-05
2.3385e-05
1.25176e-05
-2.15981e-05
2.20228e-05
1.2627e-05
-2.16857e-05
2.15763e-05
1.28313e-05
-2.28577e-05
2.26534e-05
1.27919e-05
-2.32133e-05
2.32527e-05
1.25977e-05
-2.23279e-05
2.25221e-05
1.24921e-05
-2.15478e-05
2.16534e-05
1.2815e-05
-2.13506e-05
2.10277e-05
1.34793e-05
-2.16067e-05
2.09424e-05
1.407e-05
-2.19729e-05
2.13821e-05
1.4439e-05
-2.07964e-05
2.04275e-05
1.46806e-05
-1.79504e-05
1.77088e-05
1.48283e-05
-1.52653e-05
1.51176e-05
1.48814e-05
-1.23883e-05
1.23352e-05
1.47962e-05
-8.13837e-06
8.22353e-06
1.45556e-05
-3.93106e-06
4.17169e-06
1.42466e-05
-4.13006e-07
7.21994e-07
1.39082e-05
3.68625e-06
-3.34785e-06
1.33873e-05
7.84474e-06
-7.32376e-06
1.26749e-05
1.06706e-05
-9.95833e-06
1.19305e-05
1.24351e-05
-1.16907e-05
1.12277e-05
1.40633e-05
-1.33605e-05
1.05397e-05
1.52987e-05
-1.46107e-05
9.85748e-06
1.54538e-05
-1.47715e-05
9.21432e-06
1.46199e-05
-1.39768e-05
8.65739e-06
1.33886e-05
-1.28317e-05
8.21226e-06
1.21519e-05
-1.17068e-05
7.87365e-06
1.09615e-05
-1.06228e-05
7.6108e-06
9.84056e-06
-9.57771e-06
7.39837e-06
8.81959e-06
-8.60716e-06
7.21637e-06
7.98513e-06
-7.80313e-06
7.07484e-06
7.24017e-06
-7.09864e-06
6.96281e-06
6.63213e-06
-6.5201e-06
6.89445e-06
6.00528e-06
-5.93692e-06
6.82729e-06
5.57836e-06
-5.51119e-06
6.79057e-06
5.10165e-06
-5.06493e-06
6.72827e-06
4.90274e-06
-4.84044e-06
6.71607e-06
4.48272e-06
-4.47052e-06
6.67208e-06
4.33402e-06
-4.29003e-06
6.69919e-06
3.76798e-06
-3.79509e-06
6.66714e-06
3.55486e-06
-3.52281e-06
6.70489e-06
2.87286e-06
-2.91062e-06
6.65202e-06
2.71684e-06
-2.66397e-06
6.68421e-06
2.09928e-06
-2.13147e-06
6.61419e-06
2.12466e-06
-2.05464e-06
6.65722e-06
1.65551e-06
-1.69854e-06
6.59047e-06
1.80191e-06
-1.73516e-06
6.64224e-06
1.4768e-06
-1.52858e-06
6.58958e-06
1.54724e-06
-1.49458e-06
6.62751e-06
1.39355e-06
-1.43147e-06
6.59514e-06
1.23928e-06
-1.20691e-06
6.61579e-06
1.2589e-06
-1.27954e-06
6.59091e-06
9.58342e-07
-9.33471e-07
6.6232e-06
9.95722e-07
-1.02801e-06
6.57505e-06
8.02712e-07
-7.54559e-07
6.64208e-06
6.79089e-07
-7.46125e-07
6.56666e-06
6.99212e-07
-6.23784e-07
6.64719e-06
4.7695e-07
-5.57487e-07
6.58246e-06
5.30457e-07
-4.6572e-07
6.62973e-06
4.4029e-07
-4.87562e-07
6.61075e-06
3.4032e-07
-3.21346e-07
6.60756e-06
4.37874e-07
-4.34677e-07
6.62238e-06
2.63046e-07
-2.77866e-07
6.60155e-06
3.45658e-07
-3.24826e-07
6.60962e-06
2.95425e-07
-3.03502e-07
6.60727e-06
2.26602e-07
-2.24253e-07
6.59613e-06
2.9096e-07
-2.79812e-07
6.60789e-06
1.93316e-07
-2.05084e-07
6.59913e-06
2.13219e-07
-2.04459e-07
6.59885e-06
2.10176e-07
-2.09898e-07
6.60603e-06
1.67724e-07
-1.74898e-07
6.59165e-06
1.85689e-07
-1.71307e-07
6.60302e-06
1.78011e-07
-1.89388e-07
6.59251e-06
1.47317e-07
-1.36808e-07
6.59698e-06
1.673e-07
-1.71763e-07
6.59421e-06
1.48811e-07
-1.46046e-07
6.59643e-06
1.38259e-07
-1.40475e-07
6.59117e-06
1.54991e-07
-1.49736e-07
6.59619e-06
1.40956e-07
-1.45977e-07
6.58845e-06
1.4002e-07
-1.32281e-07
6.59508e-06
1.47259e-07
-1.53883e-07
6.58679e-06
1.45112e-07
-1.36822e-07
6.59685e-06
1.32789e-07
-1.42847e-07
6.58572e-06
1.63809e-07
-1.52685e-07
6.59559e-06
1.41488e-07
-1.51352e-07
6.58717e-06
1.61461e-07
-1.53047e-07
6.59567e-06
1.65019e-07
-1.73514e-07
6.58444e-06
1.74434e-07
-1.63209e-07
6.59971e-06
1.73884e-07
-1.89154e-07
6.584e-06
1.97669e-07
-1.81954e-07
6.59783e-06
2.02364e-07
-2.16196e-07
6.5859e-06
2.1337e-07
-2.01437e-07
6.60156e-06
2.24087e-07
-2.39747e-07
6.58227e-06
2.58592e-07
-2.393e-07
6.60633e-06
2.46226e-07
-2.70294e-07
6.58412e-06
2.85071e-07
-2.62857e-07
6.60694e-06
3.08852e-07
-3.31673e-07
6.58733e-06
3.17342e-07
-2.9773e-07
6.61054e-06
3.36506e-07
-3.59716e-07
6.58754e-06
4.06467e-07
-3.83466e-07
6.6227e-06
3.67957e-07
-4.03123e-07
6.5803e-06
4.52089e-07
-4.09683e-07
6.6315e-06
4.91188e-07
-5.42388e-07
6.60008e-06
4.54625e-07
-4.23211e-07
6.6199e-06
5.88842e-07
-6.08656e-07
6.61294e-06
6.18298e-07
-6.11342e-07
6.64889e-06
5.20065e-07
-5.56014e-07
6.58763e-06
8.48738e-07
-7.87472e-07
6.67574e-06
6.49468e-07
-7.3758e-07
6.61078e-06
7.84603e-07
-7.19648e-07
6.66852e-06
9.57395e-07
-1.01513e-06
6.63432e-06
8.84804e-07
-8.50612e-07
6.699e-06
1.00372e-06
-1.0684e-06
6.6487e-06
1.12642e-06
-1.07612e-06
6.7092e-06
1.15715e-06
-1.21765e-06
6.67701e-06
1.31425e-06
-1.28205e-06
6.74271e-06
1.31804e-06
-1.38374e-06
6.70793e-06
1.51273e-06
-1.47795e-06
6.75651e-06
1.58581e-06
-1.63439e-06
6.76505e-06
1.75063e-06
-1.75918e-06
6.78805e-06
1.80972e-06
-1.83272e-06
6.82725e-06
1.98458e-06
-2.02378e-06
6.80677e-06
2.20008e-06
-2.1796e-06
6.91449e-06
2.30151e-06
-2.40923e-06
6.85842e-06
2.49442e-06
-2.43834e-06
6.99095e-06
2.63619e-06
-2.76872e-06
6.89172e-06
2.98329e-06
-2.88406e-06
7.04431e-06
3.09508e-06
-3.24767e-06
6.9848e-06
3.43273e-06
-3.37321e-06
7.09094e-06
3.54981e-06
-3.65596e-06
7.09312e-06
3.95217e-06
-3.95435e-06
7.10131e-06
4.22792e-06
-4.23611e-06
7.20658e-06
4.54283e-06
-4.64811e-06
7.10932e-06
4.99131e-06
-4.89405e-06
7.29725e-06
5.21221e-06
-5.40014e-06
7.22406e-06
5.78193e-06
-5.70874e-06
7.30752e-06
6.13197e-06
-6.21543e-06
7.33724e-06
6.72049e-06
-6.75021e-06
7.16194e-06
7.33982e-06
-7.16451e-06
7.20763e-06
7.87557e-06
-7.92126e-06
7.01543e-06
8.71632e-06
-8.52412e-06
6.89384e-06
9.54431e-06
-9.42273e-06
6.96436e-06
1.04043e-05
-1.04748e-05
6.70952e-06
1.19798e-05
-1.17249e-05
6.64152e-06
1.31659e-05
-1.30979e-05
6.81467e-06
1.53875e-05
-1.55606e-05
5.74755e-06
1.91726e-05
-1.81055e-05
5.73299e-06
2.11979e-05
-2.11833e-05
3.24951e-05
-3.22021e-05
5.44004e-06
5.22075e-06
-1.90024e-07
5.84637e-06
-3.64351e-07
6.52324e-06
-1.44356e-07
7.31174e-06
-3.94649e-07
8.08241e-06
-7.06394e-07
8.87373e-06
-1.70479e-06
9.55911e-06
-2.43769e-06
1.03372e-05
-3.82279e-06
1.09819e-05
-5.58263e-06
1.15414e-05
-6.98911e-06
1.21378e-05
-9.16281e-06
1.2369e-05
-1.07434e-05
1.22454e-05
-1.23361e-05
1.18067e-05
-1.44901e-05
1.10432e-05
-1.45806e-05
9.94285e-06
-1.40416e-05
9.12861e-06
-1.32628e-05
8.00251e-06
-9.64406e-06
7.39411e-06
-8.55479e-06
7.29024e-06
-6.2341e-06
6.50237e-06
-1.4177e-06
5.86984e-06
-1.11171e-06
6.26791e-06
-2.49436e-06
6.88231e-06
4.33627e-06
7.17335e-06
1.35498e-05
7.36172e-06
1.52969e-05
7.26769e-06
1.40154e-05
7.42673e-06
1.25229e-05
7.79851e-06
1.10361e-05
8.07638e-06
1.04626e-05
8.53744e-06
9.13395e-06
9.20971e-06
9.88455e-06
9.95389e-06
1.06302e-05
1.09549e-05
9.78593e-06
1.20556e-05
1.03985e-05
1.28785e-05
8.67407e-06
1.3581e-05
4.87021e-06
1.42297e-05
2.69899e-06
1.46697e-05
-1.39247e-06
1.48516e-05
-5.657e-06
1.47101e-05
-8.08766e-06
1.42184e-05
-1.07233e-05
1.39756e-05
-1.19261e-05
1.45953e-05
-1.43013e-05
1.52788e-05
-1.86459e-05
1.54223e-05
-2.09334e-05
1.53215e-05
-2.24726e-05
1.48937e-05
-2.363e-05
1.42053e-05
-2.28328e-05
1.38055e-05
-2.24319e-05
1.34997e-05
-2.3026e-05
1.29314e-05
-2.22842e-05
1.25625e-05
-2.12292e-05
1.27081e-05
-2.18313e-05
1.28398e-05
-2.29893e-05
1.26443e-05
-2.30178e-05
1.23608e-05
-2.20444e-05
1.22991e-05
-2.1486e-05
1.26787e-05
-2.17303e-05
1.33262e-05
-2.22542e-05
1.38238e-05
-2.24704e-05
1.4089e-05
-2.10617e-05
1.42629e-05
-1.81244e-05
1.43826e-05
-1.5385e-05
1.4371e-05
-1.23766e-05
1.4244e-05
-8.01144e-06
1.39862e-05
-3.67319e-06
1.36691e-05
-9.59862e-08
1.3344e-05
4.01141e-06
1.28747e-05
8.31403e-06
1.22282e-05
1.13171e-05
1.152e-05
1.31433e-05
1.0836e-05
1.47472e-05
1.01764e-05
1.59583e-05
9.5336e-06
1.60965e-05
8.93116e-06
1.52224e-05
8.4088e-06
1.3911e-05
7.98956e-06
1.25712e-05
7.67229e-06
1.12787e-05
7.43038e-06
1.00825e-05
7.23903e-06
9.01094e-06
7.07538e-06
8.14878e-06
6.94903e-06
7.36652e-06
6.84525e-06
6.73591e-06
6.78345e-06
6.06707e-06
6.71834e-06
5.64347e-06
6.69637e-06
5.12361e-06
6.64902e-06
4.9501e-06
6.67427e-06
4.45748e-06
6.65178e-06
4.35651e-06
6.71772e-06
3.70204e-06
6.68203e-06
3.59055e-06
6.73774e-06
2.81715e-06
6.64378e-06
2.8108e-06
6.68256e-06
2.0605e-06
6.54777e-06
2.25945e-06
6.6098e-06
1.59349e-06
6.47452e-06
1.93718e-06
6.5661e-06
1.38523e-06
6.45828e-06
1.65506e-06
6.54318e-06
1.30865e-06
6.48266e-06
1.2998e-06
6.53672e-06
1.20483e-06
6.51623e-06