/*--------------------------------*- C++ -*----------------------------------*\
| =========                 |                                                 |
| \\      /  F ield         | OpenFOAM: The Open Source CFD Toolbox           |
|  \\    /   O peration     | Version:  2.4.0                                 |
|   \\  /    A nd           | Web:      www.OpenFOAM.org                      |
|    \\/     M anipulation  |                                                 |
\*---------------------------------------------------------------------------*/
FoamFile
{
    version     2.0;
    format      ascii;
    class       volScalarField;
    location    "0.184";
    object      pMean;
}
// * * * * * * * * * * * * * * * * * * * * * * * * * * * * * * * * * * * * * //

dimensions      [0 2 -2 0 0 0 0];

internalField   nonuniform List<scalar> 
17600
(
103.701
87.6521
82.9176
81.5243
80.3142
79.092
77.9456
76.8594
75.8202
74.7766
73.7537
72.7157
71.7103
70.6865
69.6953
68.6515
67.6007
66.4319
65.0606
63.0073
101.801
87.7014
82.9582
81.5338
80.3174
79.0925
77.9459
76.8596
75.8204
74.7767
73.7537
72.7158
71.7103
70.687
69.6953
68.6528
67.6012
66.4348
65.068
63.2124
100.395
87.9551
83.1007
81.5716
80.3312
79.097
77.948
76.8612
75.8217
74.7773
73.754
72.7159
71.7107
70.6871
69.6961
68.6528
67.6042
66.4352
65.113
63.332
99.423
88.2932
83.318
81.6357
80.3603
79.1122
77.9566
76.8675
75.826
74.7802
73.7555
72.7174
71.7114
70.6899
69.6976
68.6596
67.6077
66.4526
65.1587
63.4886
98.6041
88.6243
83.5783
81.7163
80.4021
79.1411
77.9759
76.8819
75.8363
74.7876
73.7598
72.72
71.714
70.6922
69.7025
68.663
67.6211
66.4678
65.2327
63.6747
97.8334
88.9132
83.8516
81.7971
80.4435
79.1779
78.0047
76.905
75.8536
74.8008
73.7676
72.7271
71.7181
70.7005
69.708
68.6765
67.6337
66.497
65.3224
63.8882
97.1082
89.1572
84.1236
81.8727
80.4751
79.212
78.0374
76.9336
75.8761
74.8185
73.7794
72.7361
71.7255
70.7093
69.718
68.6908
67.6516
66.5353
65.4184
64.1575
96.4383
89.3593
84.3882
81.9451
80.4962
79.2385
78.0693
76.9642
75.9005
74.8383
73.7924
72.7474
71.7339
70.7214
69.731
68.7097
67.6779
66.578
65.5111
64.4863
95.829
89.5233
84.6375
82.02
80.509
79.2565
78.098
76.9947
75.9252
74.8583
73.8054
72.7592
71.742
70.7352
69.742
68.7344
67.6986
66.6369
65.5759
64.8173
95.2824
89.6504
84.8683
82.0994
80.5154
79.2668
78.1227
77.0239
75.9495
74.8771
73.8177
72.7697
71.751
70.748
69.7573
68.7574
67.7295
66.6946
65.673
65.1806
94.7969
89.7429
85.0798
82.1836
80.5167
79.2704
78.1432
77.0516
75.9728
74.895
73.8287
72.78
71.7586
70.7612
69.771
68.782
67.7641
66.755
65.8019
65.4922
94.3699
89.805
85.2719
82.2723
80.5141
79.2684
78.1598
77.0774
75.9954
74.9117
73.8389
72.7889
71.7673
70.7737
69.7872
68.8068
67.8017
66.8226
65.9379
65.7673
93.9985
89.8424
85.4443
82.3636
80.5091
79.262
78.173
77.1012
76.0168
74.927
73.8481
72.7969
71.7755
70.786
69.8044
68.8322
67.8447
66.8938
66.0774
66.0161
93.6802
89.8621
85.5961
82.4525
80.5039
79.2524
78.1834
77.1224
76.037
74.9408
73.8567
72.8041
71.7843
70.7982
69.8225
68.8591
67.8899
66.9693
66.2161
66.2428
93.4119
89.8712
85.7263
82.5324
80.5001
79.2417
78.1914
77.1412
76.0552
74.9533
73.8643
72.8107
71.7927
70.8109
69.8412
68.8881
67.9367
67.0478
66.3539
66.448
93.1913
89.8745
85.8339
82.6009
80.4982
79.2309
78.1976
77.1571
76.0712
74.9641
73.8713
72.8171
71.8016
70.8233
69.8614
68.9167
67.9875
67.1245
66.4988
66.6331
93.017
89.8747
85.9187
82.6569
80.4983
79.2206
78.2022
77.1701
76.0848
74.973
73.8777
72.8227
71.8109
70.8359
69.8829
68.9466
68.0393
67.2015
66.6378
66.8328
92.8876
89.8734
85.9811
82.7001
80.4994
79.2122
78.2053
77.1803
76.0953
74.9808
73.8829
72.829
71.8189
70.85
69.9024
68.9809
68.0884
67.2844
66.7441
66.9956
92.8022
89.8716
86.0222
82.7293
80.5012
79.2059
78.2076
77.1873
76.1033
74.9866
73.8881
72.8347
71.8282
70.8635
69.9242
69.0138
68.1399
67.3649
66.8513
67.1759
92.7597
89.8704
86.0425
82.7443
80.5024
79.2028
78.2089
77.1914
76.1078
74.9909
73.8922
72.8408
71.837
70.8776
69.9459
69.0479
68.1919
67.4438
66.9684
67.3312
92.7599
89.8702
86.0427
82.7444
80.5027
79.2031
78.2094
77.1923
76.1091
74.9935
73.8957
72.8466
71.8462
70.8915
69.9689
69.0813
68.246
67.5185
67.099
67.4658
92.8028
89.8711
86.0227
82.7295
80.5022
79.2064
78.2094
77.1899
76.1075
74.9939
73.8991
72.8518
71.856
70.9048
69.9929
69.1148
68.3005
67.5918
67.2227
67.6277
92.8886
89.8726
85.982
82.7005
80.501
79.2133
78.2083
77.1848
76.1021
74.9935
73.9006
72.8586
71.8641
70.9208
70.0141
69.1525
68.3495
67.6716
67.3017
67.74
93.0185
89.8736
85.92
82.6575
80.5005
79.222
78.2064
77.1763
76.0943
74.9906
73.9024
72.864
71.8735
70.9354
70.0372
69.189
68.4005
67.7474
67.3798
67.8874
93.1932
89.8732
85.8354
82.6017
80.5011
79.2324
78.203
77.1648
76.0837
74.9861
73.9033
72.8694
71.8829
70.9499
70.0609
69.2249
68.4536
67.8186
67.4694
68.0142
93.4142
89.8696
85.7281
82.5336
80.5035
79.2437
78.198
77.1505
76.0704
74.9799
73.9035
72.8744
71.892
70.9646
70.0847
69.2612
68.5073
67.8893
67.5632
68.118
93.683
89.8603
85.5981
82.4539
80.5079
79.2548
78.1911
77.1332
76.0551
74.9719
73.9031
72.8786
71.9012
70.9791
70.1086
69.298
68.5612
67.9622
67.6512
68.2161
94.0016
89.8406
85.4463
82.3652
80.5137
79.2649
78.1819
77.1135
76.0378
74.9624
73.9016
72.8824
71.9098
70.9941
70.1318
69.3364
68.6143
68.0396
67.7258
68.293
94.3731
89.8032
85.274
82.274
80.5193
79.272
78.1697
77.0912
76.0193
74.9512
73.8996
72.8848
71.9188
71.0079
70.156
69.3735
68.6699
68.117
67.8044
68.3565
94.8003
89.741
85.082
82.1855
80.5222
79.2748
78.154
77.0669
75.9996
74.9387
73.8964
72.8861
71.9275
71.021
70.1804
69.4096
68.7276
68.1943
67.8936
68.3909
95.286
89.6482
84.8705
82.1014
80.5211
79.2722
78.1343
77.0409
75.9788
74.925
73.8918
72.8865
71.9356
71.0335
70.2044
69.4448
68.7863
68.2724
67.9942
68.3992
95.8327
89.5209
84.6398
82.0223
80.5148
79.263
78.1105
77.0132
75.9572
74.9101
73.886
72.8856
71.943
71.0447
70.2281
69.4777
68.8456
68.348
68.1058
68.3897
96.4421
89.357
84.3905
81.9477
80.5021
79.2459
78.0826
76.9845
75.9349
74.8943
73.879
72.8839
71.9493
71.0549
70.2498
69.5083
68.901
68.4191
68.2117
68.3859
97.1122
89.155
84.1259
81.8756
80.4811
79.2205
78.0516
76.9555
75.9128
74.8784
73.8715
72.8819
71.9543
71.064
70.2683
69.5356
68.9482
68.4827
68.2958
68.3671
97.8374
88.9112
83.8539
81.8002
80.4497
79.1871
78.0199
76.9284
75.8924
74.8639
73.8649
72.8802
71.9585
71.0717
70.2838
69.5583
68.9865
68.5333
68.3605
68.3783
98.6081
88.6225
83.5807
81.7196
80.4084
79.151
77.9919
76.9064
75.8768
74.8534
73.8606
72.8797
71.9625
71.0783
70.2958
69.5757
69.0146
68.5706
68.4037
68.3866
99.4271
88.2916
83.3205
81.6392
80.3667
79.1225
77.9732
76.8928
75.8676
74.8478
73.8589
72.8805
71.9658
71.0833
70.3041
69.5876
69.0326
68.5952
68.4275
68.3995
100.399
87.9538
83.1032
81.5751
80.3377
79.1075
77.9649
76.8871
75.8639
74.8459
73.8588
72.8816
71.968
71.0864
70.3088
69.5943
69.0423
68.6085
68.439
68.4165
101.805
87.7001
82.9607
81.5373
80.3239
79.1032
77.9629
76.8856
75.8629
74.8455
73.859
72.8823
71.9688
71.0876
70.3105
69.5968
69.0455
68.6131
68.4421
68.4385
103.705
87.6508
82.9201
81.5278
80.3207
79.1027
77.9626
76.8853
75.8628
74.8455
73.859
72.8823
71.9689
71.0876
70.3106
69.5967
69.0456
68.6129
68.4409
68.4756
61.3964
60.9418
60.1513
59.1967
58.1717
57.0889
55.9333
54.6912
53.5507
52.5056
51.5875
50.8328
50.2256
49.6694
49.0432
48.2812
47.4214
46.7045
46.2455
46.0673
46.1439
46.4526
47.0237
47.8174
48.7769
49.8839
51.0607
52.2426
53.3818
54.4219
55.3314
56.1352
56.8597
57.514
58.1065
58.6542
59.1811
59.6952
60.193
60.6532
61.0507
61.3849
61.6855
61.9883
62.304
62.6275
62.9668
63.3108
63.6162
63.8703
64.0904
64.282
64.4134
64.4562
64.4305
64.3579
64.2442
64.0891
63.9083
63.719
63.5269
63.3352
63.1285
62.9238
62.7367
62.5635
62.4008
62.2526
62.1172
61.9901
61.8719
61.7577
61.6406
61.5082
61.3639
61.2395
61.1662
61.1541
61.2001
61.3141
61.5046
61.762
62.0765
62.4283
62.8068
63.2048
63.6159
64.0421
64.4734
64.8989
65.3036
65.6712
66.0017
66.2835
66.5256
66.7223
66.8857
67.0222
67.1364
67.2196
67.2827
67.3376
67.3974
67.47
67.56
67.6695
67.7926
67.9208
68.0617
68.2093
68.3689
68.5331
68.7147
68.8926
69.0747
69.235
69.3914
69.5222
69.6356
69.7364
69.8172
69.8923
69.9521
70.0053
70.0665
70.1177
70.1904
70.2256
70.2725
70.3112
70.3488
70.4161
70.4756
70.5729
70.6758
70.8113
70.9561
71.1178
71.2872
71.4588
71.636
71.7967
71.9668
72.1137
72.2718
72.3997
72.5293
72.6139
72.6948
72.7361
72.7751
72.7885
72.797
72.7906
72.7789
72.7567
72.7229
72.6781
72.6248
72.5609
72.4914
72.4035
72.3173
72.2156
72.1317
72.0367
71.9715
71.9044
71.8803
71.8591
71.8839
71.8995
71.9698
72.0091
72.1243
72.1803
72.3512
72.4088
72.645
72.6925
72.9646
72.9938
73.2593
73.2579
73.4682
73.4044
73.5152
73.3307
73.2928
72.9349
72.6717
72.0744
71.4867
70.5167
69.3496
67.6255
65.2069
61.0631
55.9666
32.4289
61.7412
61.1935
60.5012
59.6696
58.7528
57.7768
56.7426
55.6311
54.598
53.6517
52.7969
52.0772
51.4634
50.8884
50.2727
49.5525
48.7284
48.0002
47.5287
47.3314
47.3865
47.6814
48.2329
49.0011
49.9322
50.9918
52.1199
53.256
54.358
55.3751
56.2734
57.055
57.7465
58.3618
58.9065
59.3916
59.8465
60.2827
60.6987
61.082
61.4106
61.6748
61.897
62.12
62.3624
62.6159
62.8994
63.2114
63.4988
63.7315
63.9263
64.0941
64.2011
64.2221
64.1739
64.0722
63.9218
63.7271
63.5055
63.2761
63.0498
62.8263
62.5883
62.3603
62.1575
61.9723
61.7997
61.6445
61.5065
61.3814
61.2699
61.1653
61.059
60.9389
60.8118
60.7156
60.6793
60.7091
60.8023
60.9696
61.2165
61.5293
61.8972
62.2996
62.7217
63.157
63.6006
64.0513
64.5002
64.9385
65.3527
65.7266
66.0608
66.3452
66.5884
66.7843
66.9479
67.084
67.196
67.2793
67.3462
67.4066
67.4761
67.5597
67.6619
67.7787
67.9075
68.0375
68.1795
68.3251
68.4824
68.6412
68.8168
68.9843
69.1537
69.3002
69.4433
69.5633
69.6623
69.7523
69.8249
69.8944
69.95
69.9965
70.0503
70.0962
70.1642
70.2054
70.2488
70.2973
70.3334
70.4052
70.4688
70.5652
70.6707
70.8051
70.952
71.1175
71.2907
71.47
71.6525
71.8201
71.9929
72.1412
72.2984
72.4219
72.5474
72.6266
72.7058
72.7394
72.7757
72.7824
72.7893
72.7767
72.7618
72.7327
72.694
72.6439
72.5848
72.5162
72.4386
72.3408
72.2388
72.1178
72.0126
71.8917
71.7998
71.6991
71.6436
71.5863
71.5854
71.5623
71.6158
71.6149
71.7208
71.7368
71.9081
71.9293
72.1653
72.1907
72.4527
72.4717
72.7159
72.7024
72.8845
72.7984
72.8773
72.6658
72.5842
72.1865
71.8621
71.1907
70.4984
69.3874
68.0222
65.9345
63.268
57.6871
52.1594
25.6057
62.1025
61.536
60.8526
60.071
59.2256
58.3271
57.3911
56.4023
55.4667
54.6084
53.8137
53.135
52.5346
51.9623
51.3656
50.7013
49.9477
49.2525
48.7946
48.5858
48.6374
48.927
49.454
50.189
51.0789
52.084
53.1592
54.2519
55.3191
56.3158
57.2079
57.9745
58.6373
59.2176
59.72
60.1481
60.5316
60.8906
61.228
61.5333
61.7907
61.9853
62.132
62.2773
62.4485
62.6345
62.8615
63.139
63.4061
63.6205
63.7961
63.9431
64.0288
64.0323
63.967
63.8408
63.658
63.4268
63.1676
62.9009
62.6433
62.3883
62.1218
61.8736
61.6571
61.4605
61.2797
61.1189
60.9792
60.8573
60.7537
60.6602
60.5664
60.4623
60.3566
60.2918
60.2946
60.3676
60.5087
60.7288
61.0307
61.397
61.8158
62.2673
62.732
63.2033
63.6786
64.1529
64.6166
65.0643
65.4838
65.8601
66.1947
66.4796
66.7238
66.9179
67.0817
67.2171
67.3274
67.4117
67.4848
67.553
67.6339
67.7275
67.8417
67.9642
68.0973
68.2278
68.3712
68.5137
68.6684
68.82
68.9879
69.1429
69.2984
69.4294
69.5559
69.6612
69.7443
69.8187
69.8809
69.9404
69.9904
70.0278
70.0729
70.1107
70.1708
70.217
70.2569
70.3149
70.3515
70.4284
70.4972
70.596
70.7036
70.8407
70.9901
71.1594
71.3346
71.5191
71.7033
71.8766
72.0497
72.2013
72.3562
72.476
72.5947
72.669
72.742
72.7688
72.7998
72.8002
72.8044
72.7873
72.7692
72.7341
72.6909
72.6372
72.5724
72.4991
72.4128
72.3045
72.1889
72.0496
71.9259
71.7791
71.6619
71.5279
71.4434
71.3475
71.3237
71.2596
71.2981
71.2526
71.3486
71.3249
71.4901
71.4822
71.7048
71.7178
71.9554
71.9674
72.18
72.1558
72.3033
72.1982
72.2349
72.0014
71.859
71.4296
71.0292
70.2957
69.4804
68.2125
66.6906
64.1387
61.4949
54.3062
48.5187
23.7862
62.4179
61.8911
61.2378
60.4559
59.6313
58.7903
57.9474
57.0808
56.2402
55.4657
54.7358
54.0908
53.5099
52.9564
52.39
51.7886
51.1156
50.4841
50.0555
49.8535
49.911
50.1935
50.6851
51.3749
52.2148
53.1636
54.184
55.2317
56.2603
57.2332
58.1172
58.8764
59.5166
60.0669
60.5343
60.914
61.232
61.5158
61.7759
62.0047
62.1887
62.3141
62.3894
62.4625
62.5667
62.6901
62.8613
63.098
63.3393
63.5374
63.7003
63.8305
63.8988
63.8886
63.81
63.6625
63.4514
63.1889
62.8968
62.5968
62.3104
62.025
61.7333
61.4694
61.2402
61.0336
60.8453
60.6806
60.5405
60.4237
60.3304
60.2497
60.1706
60.0857
60.0054
59.975
60.0177
60.1345
60.3235
60.5953
60.9494
61.3666
61.8335
62.3315
62.8369
63.3415
63.8469
64.3432
64.8204
65.2749
65.6958
66.0713
66.4039
66.6867
66.9311
67.123
67.2874
67.4221
67.5313
67.617
67.6978
67.7742
67.8678
67.97
68.0946
68.2213
68.3572
68.4873
68.6326
68.7721
68.9239
69.0674
69.2265
69.3672
69.5079
69.6218
69.7297
69.8164
69.8824
69.9368
69.9868
70.032
70.0755
70.1012
70.1372
70.1644
70.2154
70.2632
70.3017
70.3651
70.4066
70.4879
70.5619
70.6659
70.7758
70.9165
71.0686
71.2413
71.4179
71.6054
71.7886
71.9659
72.1383
72.2943
72.4454
72.5614
72.6717
72.7402
72.8047
72.8243
72.8495
72.8433
72.8461
72.8242
72.8038
72.7618
72.7164
72.6573
72.5895
72.5091
72.4156
72.2966
72.1707
72.014
71.8714
71.699
71.5575
71.3919
71.2809
71.1469
71.0981
70.9914
71.013
70.9275
71.0062
70.9502
71.0997
71.0694
71.2685
71.2699
71.4754
71.4789
71.6532
71.6228
71.726
71.6098
71.5976
71.3422
71.1279
70.6653
70.1768
69.3752
68.4564
66.9896
65.4451
62.2338
59.8819
51.2087
45.1155
24.2875
62.7152
62.2462
61.6353
60.8444
60.0133
59.2183
58.4654
57.7209
56.9843
56.2905
55.6236
55.0084
54.454
53.9302
53.3997
52.86
52.2777
51.7224
51.3315
51.1489
51.2123
51.4782
51.9232
52.5569
53.3402
54.2306
55.1935
56.191
57.1766
58.1188
58.9881
59.7439
60.3699
60.8958
61.3348
61.6765
61.9392
62.1528
62.3375
62.4917
62.6025
62.6604
62.6687
62.6768
62.7194
62.7865
62.9024
63.0916
63.3008
63.4848
63.6399
63.7589
63.8143
63.7936
63.7034
63.5371
63.3011
63.0131
62.6941
62.3656
62.0533
61.7399
61.428
61.1521
60.9111
60.6954
60.5005
60.333
60.1949
60.086
60.0051
59.9395
59.8774
59.8147
59.7639
59.7693
59.8522
60.0122
60.2487
60.5701
60.9735
61.4387
61.9507
62.4912
63.0334
63.5691
64.1018
64.6175
65.1072
65.5666
65.9871
66.3593
66.6879
66.9664
67.2097
67.399
67.5646
67.6989
67.8074
67.8945
67.983
68.0678
68.1738
68.2833
68.415
68.544
68.6824
68.8114
68.9593
69.0961
69.2455
69.3804
69.5298
69.6549
69.7804
69.8758
69.9645
70.0289
70.0769
70.1075
70.143
70.1708
70.2066
70.2181
70.2453
70.2601
70.3025
70.3477
70.3876
70.4514
70.5017
70.5842
70.6645
70.773
70.8864
71.0297
71.1848
71.361
71.5393
71.7272
71.9089
72.0866
72.2575
72.4165
72.5647
72.6754
72.7767
72.8374
72.8934
72.9059
72.926
72.9128
72.9158
72.8885
72.8663
72.8177
72.7709
72.7056
72.6359
72.5473
72.4471
72.3176
72.1821
72.0094
71.8479
71.651
71.4862
71.2897
71.1561
70.9824
70.9121
70.762
70.7618
70.6389
70.6965
70.6103
70.7394
70.6893
70.8576
70.8467
71.0153
71.0111
71.1417
71.1072
71.1626
71.0375
70.9737
70.6912
70.4092
69.903
69.3388
68.4232
67.4712
65.6632
64.3136
60.2354
58.36
48.5703
41.8666
24.9362
63.0684
62.6349
62.026
61.2138
60.37
59.6157
58.9538
58.332
57.7078
57.0944
56.4927
55.919
55.3958
54.9062
54.4181
53.9369
53.4441
52.968
52.6187
52.4577
52.5205
52.7677
53.1671
53.7383
54.4571
55.2839
56.1857
57.1289
58.0686
58.9714
59.8156
60.565
61.1862
61.6963
62.1092
62.4184
62.6369
62.7894
62.903
62.9865
63.0277
63.0227
62.9717
62.9213
62.9097
62.926
62.9866
63.1242
63.298
63.4687
63.6193
63.7316
63.7778
63.7493
63.6476
63.4643
63.2071
62.8999
62.5598
62.2074
61.8725
61.536
61.2096
60.9248
60.673
60.4477
60.2471
60.0794
59.9465
59.8481
59.782
59.7338
59.6917
59.6545
59.6361
59.6782
59.8
60.0009
60.2836
60.6524
61.1022
61.6125
62.1668
62.7443
63.3184
63.8824
64.4388
64.9715
65.4725
65.9362
66.3551
66.7222
67.0461
67.318
67.5587
67.7447
67.9118
68.0455
68.154
68.2417
68.3374
68.43
68.548
68.6634
68.7986
68.9266
69.0673
69.1955
69.3467
69.482
69.6299
69.7561
69.8949
70.0038
70.1144
70.1909
70.2599
70.2993
70.329
70.3336
70.3521
70.3597
70.3863
70.3814
70.4
70.4011
70.4357
70.4749
70.5171
70.5777
70.6379
70.7192
70.8059
70.9162
71.0364
71.1787
71.3375
71.5162
71.697
71.8824
72.0641
72.2393
72.4082
72.5645
72.7094
72.8135
72.9083
72.9598
73.0095
73.0148
73.0318
73.0103
73.0143
72.9791
72.9579
72.9011
72.8555
72.7824
72.713
72.6129
72.5095
72.3661
72.2245
72.0332
71.8557
71.6333
71.4498
71.2224
71.0705
70.8555
70.7642
70.5758
70.5512
70.3916
70.4241
70.3091
70.4131
70.3446
70.4757
70.4514
70.5813
70.5637
70.6559
70.6067
70.6226
70.4784
70.3666
70.0393
69.7182
69.1221
68.5475
67.4083
66.591
64.2339
63.2837
58.2277
56.7064
46.4073
38.6863
24.9903
63.4751
63.0644
62.3979
61.5295
60.6737
59.9682
59.4058
58.9078
58.4012
57.8736
57.341
56.8224
56.3364
55.8823
55.4408
55.015
54.6008
54.2021
53.8953
53.7525
53.812
54.0447
54.4082
54.9181
55.5678
56.3264
57.1653
58.0506
58.939
59.7957
60.6059
61.3388
61.9556
62.4558
62.8463
63.1232
63.306
63.4095
63.4613
63.4803
63.4587
63.3984
63.2977
63.1949
63.1379
63.1081
63.115
63.1998
63.3387
63.4955
63.6422
63.7495
63.7888
63.7532
63.6414
63.444
63.1707
62.8494
62.492
62.1195
61.7671
61.4143
61.0799
60.7886
60.5264
60.2915
60.0864
59.9222
59.7973
59.7121
59.6632
59.6353
59.6165
59.6071
59.6236
59.7022
59.8602
60.0997
60.426
60.8399
61.3331
61.8857
62.4789
63.0877
63.6892
64.2772
64.8531
65.4001
65.9114
66.378
66.7953
67.1573
67.4765
67.7398
67.9764
68.1584
68.3268
68.4588
68.5672
68.6551
68.7571
68.8565
68.985
69.105
69.2418
69.3663
69.5082
69.6362
69.7902
69.9245
70.0723
70.1906
70.3188
70.4114
70.5076
70.5655
70.6162
70.6294
70.6406
70.6185
70.619
70.6032
70.6179
70.5947
70.6042
70.5903
70.6184
70.6476
70.6923
70.745
70.815
70.8913
70.9843
71.0926
71.2229
71.3601
71.5266
71.7013
71.888
72.0671
72.2519
72.4187
72.5898
72.7352
72.8797
72.9707
73.065
73.1015
73.1532
73.146
73.1684
73.1332
73.1429
73.093
73.0801
73.0086
72.9725
72.8846
72.8224
72.703
72.6034
72.4393
72.297
72.0826
71.895
71.6455
71.4469
71.1876
71.0228
70.7712
70.6583
70.4312
70.3805
70.1837
70.1939
70.0453
70.122
70.0319
70.1275
70.0831
70.18
70.1367
70.2032
70.1231
70.1153
69.9226
69.7897
69.371
69.083
68.2806
67.826
66.2708
65.765
62.7185
62.2481
56.322
54.7735
44.6579
35.5843
24.624
64.0851
63.6052
62.7213
61.7327
60.8801
60.2549
59.8076
59.4343
59.0452
58.613
58.1564
57.6987
57.2563
56.8411
56.4482
56.0736
55.7232
55.3953
55.1349
55.0098
55.0662
55.2865
55.626
56.0864
56.6714
57.3618
58.1337
58.9542
59.7856
60.5928
61.3616
62.0683
62.6724
63.1594
63.5292
63.778
63.9307
63.9979
63.9987
63.9623
63.8886
63.7815
63.6388
63.4937
63.3988
63.3293
63.2867
63.3209
63.4263
63.5675
63.7075
63.8096
63.8436
63.8026
63.6833
63.4758
63.1922
62.8602
62.4871
62.0989
61.7351
61.3739
61.0378
60.7417
60.4696
60.2259
60.0187
59.8621
59.7486
59.6792
59.6497
59.6442
59.6507
59.6714
59.7239
59.8389
60.0314
60.3063
60.6726
61.1293
61.6623
62.2542
62.8825
63.518
64.1419
64.7495
65.3398
65.8985
66.4185
66.8871
67.3038
67.6606
67.9759
68.2298
68.4607
68.6379
68.8066
68.9353
69.0427
69.1296
69.2368
69.3429
69.4793
69.603
69.7403
69.8602
70.0024
70.1299
70.2864
70.4196
70.5678
70.6793
70.7976
70.875
70.9578
70.9969
71.0311
71.0182
71.0108
70.963
70.9453
70.9033
70.9032
70.8599
70.8591
70.8292
70.8522
70.8681
70.9146
70.9558
71.0322
71.099
71.199
71.2999
71.44
71.5722
71.7488
71.913
72.1079
72.2768
72.4678
72.62
72.797
72.9242
73.0722
73.144
73.243
73.2579
73.3191
73.2944
73.3304
73.2769
73.2988
73.2273
73.2315
73.1378
73.1202
73.0083
72.9633
72.8144
72.7286
72.5327
72.3991
72.1516
71.9665
71.6816
71.4814
71.1821
71.0139
70.7162
70.5947
70.3236
70.2552
70.0117
70.0115
69.8183
69.8725
69.7491
69.8214
69.7379
69.8199
69.7228
69.7903
69.634
69.6516
69.3353
69.2651
68.6452
68.5049
67.3539
67.1452
65.0535
64.9325
61.178
61.0782
54.611
52.2561
43.1534
33.0464
24.3267
64.9557
64.3396
63.0282
61.859
61.0205
60.4953
60.168
59.9137
59.6381
59.3061
58.9289
58.5327
58.1384
57.7637
57.4157
57.0893
56.7911
56.5228
56.3118
56.2097
56.2651
56.4736
56.797
57.223
57.7557
58.3837
59.087
59.8387
60.6093
61.3649
62.0862
62.7555
63.3356
63.8013
64.1477
64.372
64.5013
64.5416
64.5055
64.4237
64.3089
64.1646
63.9865
63.8078
63.6819
63.5813
63.4959
63.4844
63.5592
63.6831
63.8123
63.9076
63.9392
63.8975
63.775
63.5623
63.2714
62.929
62.5402
62.1423
61.7745
61.412
61.0792
60.7809
60.5007
60.2501
60.0442
59.8987
59.8004
59.7491
59.7403
59.7588
59.7925
59.8446
59.9325
60.0831
60.3086
60.6163
61.0195
61.5156
62.0851
62.7126
63.3723
64.0302
64.6713
65.293
65.8932
66.4611
66.9877
67.4578
67.8751
68.227
68.5387
68.7844
69.0089
69.181
69.3484
69.4718
69.5757
69.6599
69.77
69.8813
70.0251
70.1516
70.2904
70.4049
70.5468
70.6733
70.8317
70.9631
71.1119
71.2175
71.3275
71.3906
71.4607
71.4815
71.5004
71.4624
71.4368
71.3648
71.3293
71.2595
71.2418
71.1772
71.1653
71.1188
71.1358
71.1366
71.1828
71.2101
71.2895
71.3432
71.4499
71.5375
71.687
71.8133
71.9991
72.1486
72.3534
72.5073
72.7066
72.8409
73.0265
73.1306
73.2822
73.3302
73.4359
73.4261
73.5003
73.4551
73.512
73.4377
73.4793
73.3813
73.4089
73.2848
73.2945
73.1475
73.1313
72.9405
72.8809
72.6384
72.5293
72.233
72.0703
71.7349
71.5553
71.1982
71.0477
70.6871
70.5748
70.2402
70.1796
69.8688
69.8795
69.6182
69.6766
69.4814
69.5666
69.3986
69.5083
69.301
69.425
69.1189
69.2297
68.704
68.7692
67.86
67.9028
66.3378
66.3883
63.7689
64.0097
59.7207
59.494
53.1843
49.1141
41.737
31.6241
24.586
65.6582
64.9681
63.365
62.0438
61.1853
60.726
60.4998
60.3536
60.1845
59.9487
59.649
59.3134
58.9682
58.6331
58.3246
58.0429
57.7891
57.5713
57.4085
57.3342
57.3936
57.5938
57.9064
58.3097
58.8017
59.3745
60.0133
60.6981
61.406
62.1071
62.7777
63.3998
63.9428
64.3815
64.7024
64.9039
65.0115
65.0309
64.9701
64.8562
64.7119
64.5422
64.337
64.1312
63.9784
63.8558
63.7357
63.6843
63.734
63.8395
63.9539
64.0428
64.0751
64.0372
63.9175
63.7035
63.4063
63.0517
62.6475
62.2471
61.8827
61.5251
61.1989
60.9006
60.6164
60.3625
60.1623
60.0317
59.9505
59.9196
59.9327
59.976
60.0388
60.1223
60.2445
60.4282
60.6849
61.0239
61.4617
61.993
62.5955
63.2541
63.9407
64.6174
65.2718
65.9022
66.5072
67.0817
67.6129
68.0835
68.5022
68.85
69.1593
69.3982
69.6169
69.7838
69.9476
70.0635
70.1609
70.2386
70.3503
70.4647
70.6157
70.7446
70.8865
70.9965
71.1373
71.263
71.4224
71.552
71.7001
71.8003
71.903
71.9528
72.01
72.0124
72.0164
71.9549
71.9115
71.8171
71.7648
71.6678
71.6305
71.5439
71.5208
71.4568
71.4673
71.4519
71.4946
71.5057
71.5845
71.6235
71.7356
71.8074
71.9647
72.0827
72.2754
72.4078
72.6217
72.7572
72.9631
73.0778
73.2724
73.3536
73.5089
73.5304
73.6415
73.606
73.6924
73.6255
73.7045
73.6093
73.6758
73.5509
73.605
73.4452
73.4863
73.2955
73.3165
73.0729
73.0502
72.747
72.6752
72.3158
72.1989
71.7909
71.6566
71.2221
71.1141
70.6714
70.5998
70.1707
70.15
69.7412
69.7932
69.4299
69.5288
69.2198
69.3527
69.0554
69.2288
68.8621
69.0754
68.5657
68.8003
68.0184
68.2448
67.0066
67.2448
65.2775
65.5694
62.5832
62.8086
58.4907
57.2056
51.8018
46.3049
40.6002
31.3056
25.3713
66.2156
65.509
63.7389
62.2956
61.3902
60.9601
60.8109
60.7581
60.6836
60.5354
60.3106
60.0347
59.7378
59.4407
59.1664
58.9237
58.7099
58.5368
58.4194
58.3765
58.4438
58.6383
58.9423
59.3297
59.79
60.3164
60.8984
61.52
62.1648
62.81
63.4288
63.9988
64.4961
64.8994
65.1932
65.3745
65.4621
65.4634
65.3862
65.2514
65.0893
64.9073
64.6874
64.4624
64.2871
64.1501
64.0014
63.9173
63.947
64.0345
64.1311
64.2154
64.2519
64.2209
64.1083
63.8981
63.5944
63.2238
62.8061
62.4122
62.0581
61.7099
61.3925
61.0968
60.8119
60.5601
60.3714
60.2595
60.1975
60.1885
60.2244
60.294
60.3869
60.5006
60.6544
60.8682
61.1544
61.523
61.9924
62.5555
63.1869
63.8713
64.5801
65.2716
65.9357
66.5697
67.1768
67.754
68.2871
68.7564
69.1769
69.5221
69.831
70.0641
70.2777
70.4402
70.5979
70.7038
70.7924
70.8599
70.9712
71.0879
71.2456
71.3766
71.5219
71.63
71.7696
71.8944
72.0542
72.1818
72.3285
72.4228
72.5179
72.5556
72.5995
72.5828
72.5711
72.4881
72.428
72.3124
72.2445
72.1215
72.0647
71.9563
71.9221
71.84
71.8431
71.8101
71.8474
71.8402
71.9144
71.937
72.0525
72.1089
72.2701
72.3767
72.5744
72.689
72.9083
73.026
73.2373
73.3318
73.5309
73.5901
73.7478
73.7441
73.8583
73.7994
73.8938
73.8068
73.9032
73.79
73.8791
73.733
73.8094
73.6191
73.683
73.4505
73.5028
73.2087
73.2202
72.8537
72.8255
72.3945
72.3338
71.843
71.7727
71.2463
71.1984
70.6482
70.6423
70.0943
70.1441
69.6102
69.7332
69.2411
69.4103
68.9589
69.1658
68.6996
68.9523
68.3921
68.6904
67.9541
68.3037
67.2619
67.6399
66.1213
66.4814
64.3238
64.5587
61.6752
61.1427
57.3734
54.6602
50.2749
44.4877
40.1111
31.8959
26.4146
66.6535
65.9705
64.1219
62.5969
61.6439
61.2149
61.1119
61.1298
61.1362
61.069
60.9175
60.7013
60.4508
60.1901
59.9456
59.7351
59.5575
59.4225
59.3456
59.3358
59.4161
59.6055
59.8984
60.2713
60.7066
61.196
61.7302
62.2968
62.883
63.4719
64.0357
64.5508
64.999
65.3613
65.6241
65.7852
65.8547
65.8425
65.7553
65.6104
65.4406
65.258
65.0374
64.8001
64.6088
64.4603
64.2894
64.1799
64.1956
64.2648
64.3434
64.4245
64.4693
64.449
64.3451
64.1401
63.8308
63.4427
63.0148
62.6358
62.2987
61.9629
61.655
61.3653
61.0845
60.84
60.669
60.58
60.5392
60.553
60.6131
60.71
60.8325
60.9757
61.1576
61.3981
61.7118
62.1078
62.6051
63.1959
63.8525
64.5572
65.2822
65.9848
66.6548
67.2889
67.8965
68.4719
69.0048
69.4696
69.8909
70.2356
70.5448
70.774
70.9843
71.1411
71.2914
71.3849
71.4638
71.5195
71.6291
71.7456
71.909
72.0411
72.1904
72.2979
72.4377
72.5608
72.7217
72.8461
72.991
73.0788
73.1662
73.1918
73.2212
73.1858
73.1574
73.0551
72.9786
72.8426
72.7605
72.6144
72.5382
72.4091
72.364
72.2651
72.2585
72.2079
72.2368
72.2107
72.2766
72.2817
72.398
72.4406
72.6008
72.694
72.8923
72.9904
73.2085
73.3094
73.5225
73.6002
73.7998
73.8395
73.9952
73.9695
74.0836
74.0067
74.1032
73.9998
74.1046
73.9783
74.0828
73.9236
74.015
73.8044
73.8781
73.6141
73.6815
73.3468
73.378
72.9616
72.9608
72.4709
72.4518
71.8893
71.868
71.2581
71.265
70.6095
70.6665
69.988
70.1196
69.4439
69.6583
69.0078
69.2805
68.6494
68.9715
68.2974
68.6558
67.8865
68.2613
67.356
67.7604
66.6034
66.973
65.4152
65.5805
63.5774
63.2438
60.7557
59.1855
56.0359
52.5915
49.0463
43.6056
40.2578
32.9852
27.4933
67.0082
66.3632
64.4993
62.9316
61.9379
61.4881
61.4025
61.4713
61.5484
61.5574
61.4768
61.3197
61.1145
60.8887
60.6715
60.487
60.3408
60.2383
60.1936
60.2144
60.3115
60.4987
60.7784
61.1341
61.5476
62.0071
62.5009
63.0198
63.5535
64.0866
64.5936
65.0541
65.4538
65.7747
66.0053
66.1441
66.1949
66.1713
66.0809
65.9362
65.7697
65.594
65.3844
65.1428
64.9405
64.7831
64.5965
64.4697
64.4783
64.5288
64.5905
64.6701
64.7253
64.7192
64.6268
64.4263
64.1103
63.7052
63.2731
62.9156
62.6018
62.2807
61.9831
61.7031
61.4321
61.2012
61.0524
60.9891
60.9717
61.0102
61.0964
61.2214
61.3721
61.543
61.7493
62.0134
62.3521
62.7731
63.2939
63.9074
64.5843
65.3046
66.0393
66.7485
67.4209
68.0533
68.6604
69.2298
69.761
70.2172
70.6368
70.982
71.2914
71.5184
71.7276
71.8768
72.0193
72.0995
72.1693
72.2118
72.3193
72.4335
72.6024
72.733
72.8871
72.9929
73.1344
73.2545
73.4188
73.5381
73.683
73.7612
73.8412
73.8546
73.8688
73.815
73.7701
73.6504
73.5584
73.4016
73.3058
73.1395
73.0452
72.8959
72.8401
72.7262
72.7095
72.6413
72.6594
72.6141
72.6698
72.6562
72.7699
72.7994
72.9554
73.0324
73.2273
73.3107
73.5235
73.6089
73.8192
73.881
74.0755
74.0985
74.2498
74.2063
74.3171
74.2269
74.3217
74.2048
74.3087
74.1717
74.283
74.1163
74.2161
73.9933
74.0674
73.7812
73.8483
73.4872
73.5205
73.0738
73.0804
72.5547
72.5501
71.9429
71.9445
71.2792
71.2945
70.5767
70.6472
69.8909
70.0322
69.2814
69.5031
68.7671
69.0542
68.3235
68.6717
67.8795
68.2604
67.3754
67.7554
66.7712
67.1378
65.9527
66.1828
64.6791
64.5099
62.6734
61.7595
59.4963
57.4445
54.6859
51.2335
48.5371
43.5589
40.8233
34.1808
28.4972
67.2988
66.699
64.8629
63.2817
62.2573
61.778
61.6939
61.7987
61.9339
62.0101
61.9948
61.8947
61.7349
61.5439
61.3532
61.1905
61.0696
60.9945
60.9748
61.0194
61.1334
61.3223
61.5902
61.9271
62.3181
62.7502
63.2096
63.6846
64.168
64.6463
65.0979
65.5063
65.8599
66.1413
66.3416
66.4582
66.4913
66.4573
66.368
66.2299
66.074
65.9119
65.7222
65.4891
65.2807
65.116
64.9184
64.7858
64.7917
64.8245
64.8707
64.9506
65.0163
65.024
64.947
64.7533
64.4301
64.0098
63.5794
63.249
62.9621
62.6583
62.3745
62.1092
61.8537
61.6413
61.5176
61.4819
61.4915
61.5566
61.6702
61.8236
62.0013
62.1971
62.425
62.71
63.0701
63.5128
64.0521
64.6827
65.3752
66.1058
66.8444
67.5553
68.2267
68.8557
69.4618
70.0219
70.5505
70.9935
71.4093
71.7541
72.0608
72.2876
72.4982
72.6364
72.7736
72.8386
72.9008
72.9299
73.0362
73.1442
73.3213
73.4472
73.6076
73.7071
73.8522
73.9665
74.1375
74.2486
74.3972
74.4623
74.5364
74.5364
74.5362
74.4644
74.404
74.2679
74.1614
73.9836
73.8745
73.6895
73.5794
73.4091
73.3439
73.2164
73.1895
73.104
73.1108
73.0465
73.0915
73.0595
73.167
73.1833
73.3343
73.3947
73.582
73.6495
73.854
73.922
74.1269
74.1752
74.36
74.366
74.5104
74.4524
74.5582
74.457
74.548
74.42
74.5178
74.3714
74.4821
74.3093
74.4112
74.18
74.2499
73.9474
74.0056
73.6269
73.6508
73.1876
73.1877
72.6404
72.6335
72.004
72.0046
71.3236
71.3201
70.5812
70.6223
69.8468
69.9457
69.1815
69.3491
68.5883
68.8162
68.0572
68.3372
67.5046
67.8056
66.8773
67.1723
66.1447
66.4023
65.143
65.2173
63.6331
63.26
61.3566
60.2084
58.0352
55.9955
53.6691
50.552
48.6303
44.0789
41.494
35.2616
29.4353
67.5349
66.9851
65.2122
63.6425
62.5998
62.0883
61.9932
62.1189
62.2983
62.4317
62.4764
62.4314
62.317
62.1611
61.9963
61.8532
61.7517
61.6983
61.6988
61.7613
61.8888
62.0808
62.3391
62.6575
63.0249
63.4287
63.855
64.2896
64.7238
65.1494
65.5481
65.907
66.2158
66.4608
66.6342
66.7298
66.7488
66.7077
66.6211
66.4946
66.3513
66.2071
66.0444
65.8334
65.6289
65.4568
65.254
65.1246
65.1309
65.1495
65.1797
65.2606
65.3359
65.3552
65.2944
65.1116
64.786
64.3553
63.9327
63.6348
63.3775
63.0922
62.8273
62.5829
62.3475
62.1569
62.0595
62.0527
62.0932
62.1869
62.3294
62.5108
62.7141
62.9315
63.179
63.482
63.86
64.3203
64.8719
65.5146
66.2173
66.9522
67.6898
68.3982
69.066
69.689
70.2933
70.8408
71.3683
71.7932
72.2039
72.5448
72.8453
73.072
73.2866