/*--------------------------------*- C++ -*----------------------------------*\
| =========                 |                                                 |
| \\      /  F ield         | OpenFOAM: The Open Source CFD Toolbox           |
|  \\    /   O peration     | Version:  2.4.0                                 |
|   \\  /    A nd           | Web:      www.OpenFOAM.org                      |
|    \\/     M anipulation  |                                                 |
\*---------------------------------------------------------------------------*/
FoamFile
{
    version     2.0;
    format      ascii;
    class       surfaceScalarField;
    location    "0.014";
    object      phi;
}
// * * * * * * * * * * * * * * * * * * * * * * * * * * * * * * * * * * * * * //

dimensions      [0 3 -1 0 0 0 0];

internalField   nonuniform List<scalar> 
8640
(
1.14768e-05
1.35232e-05
7.2149e-06
4.26191e-06
5.9284e-06
1.2865e-06
5.27703e-06
6.51369e-07
5.07723e-06
1.99801e-07
5.13741e-06
-6.01825e-08
5.29912e-06
-1.61702e-07
5.13711e-06
1.62006e-07
5.62974e-06
-4.92633e-07
-2.0113e-06
7.64104e-06
2.10752e-05
1.7448e-05
1.75602e-05
7.77688e-06
1.55636e-05
3.28309e-06
1.40868e-05
2.12823e-06
1.36156e-05
6.70969e-07
1.3565e-05
-9.60708e-09
1.38298e-05
-4.26499e-07
1.33214e-05
6.70397e-07
1.5797e-05
-2.96818e-06
1.12312e-06
1.26626e-05
2.57192e-05
1.67288e-05
2.42495e-05
9.2466e-06
2.27108e-05
4.82173e-06
2.1041e-05
3.79802e-06
2.04278e-05
1.28417e-06
2.02325e-05
1.85751e-07
2.04843e-05
-6.78328e-07
1.99577e-05
1.19698e-06
2.26229e-05
-5.63334e-06
9.11572e-07
2.28344e-05
2.74497e-05
1.42791e-05
2.7881e-05
8.81532e-06
2.74872e-05
5.21554e-06
2.63519e-05
4.93334e-06
2.58044e-05
1.83165e-06
2.56173e-05
3.72872e-07
2.56635e-05
-7.24583e-07
2.56061e-05
1.25443e-06
2.69457e-05
-6.97294e-06
-2.80781e-06
3.06651e-05
2.76316e-05
1.16475e-05
2.89962e-05
7.45069e-06
2.96575e-05
4.5543e-06
2.95651e-05
5.02567e-06
2.94134e-05
1.98343e-06
2.93209e-05
4.65337e-07
2.924e-05
-6.43647e-07
2.95896e-05
9.04831e-07
2.95008e-05
-6.88421e-06
-4.89587e-06
3.15889e-05
2.74943e-05
9.15321e-06
2.89334e-05
6.01152e-06
2.99694e-05
3.51833e-06
3.07723e-05
4.22277e-06
3.09684e-05
1.78737e-06
3.10304e-05
4.03322e-07
3.10383e-05
-6.51558e-07
3.10738e-05
8.6936e-07
3.05872e-05
-6.39761e-06
-5.17446e-06
3.08658e-05
2.74009e-05
6.75234e-06
2.87713e-05
4.64112e-06
2.98597e-05
2.42995e-06
3.08139e-05
3.26853e-06
3.12876e-05
1.31369e-06
3.13957e-05
2.95246e-07
3.11607e-05
-4.16626e-07
3.14286e-05
6.01471e-07
3.11311e-05
-6.1001e-06
-3.82292e-06
2.97796e-05
2.73079e-05
4.44443e-06
2.87697e-05
3.17938e-06
2.97017e-05
1.49794e-06
3.07175e-05
2.25266e-06
3.12609e-05
7.70348e-07
3.1245e-05
3.11102e-07
3.12784e-05
-4.50032e-07
3.14696e-05
4.103e-07
3.05105e-05
-5.14105e-06
-2.67163e-06
2.93592e-05
2.7262e-05
2.18239e-06
2.87638e-05
1.6776e-06
2.96366e-05
6.25213e-07
3.06434e-05
1.24582e-06
3.114e-05
2.73798e-07
3.12771e-05
1.73928e-07
3.12076e-05
-3.80469e-07
3.12496e-05
3.68284e-07
3.09784e-05
-4.86989e-06
-4.03176e-06
3.23385e-05
2.72317e-05
-4.92932e-08
2.87676e-05
1.41722e-07
2.96067e-05
-2.13893e-07
3.05807e-05
2.71792e-07
3.1164e-05
-3.09561e-07
3.12178e-05
1.20176e-07
3.11836e-05
-3.46223e-07
3.14215e-05
1.30348e-07
3.11686e-05
-4.61696e-06
-3.011e-06
3.01478e-05
2.72308e-05
-2.28013e-06
2.87712e-05
-1.39862e-06
2.96015e-05
-1.04423e-06
3.05949e-05
-7.21577e-07
3.11427e-05
-8.57371e-07
3.122e-05
4.29152e-08
3.12459e-05
-3.72164e-07
3.13872e-05
-1.09057e-08
3.05997e-05
-3.82951e-06
-2.7054e-06
3.02941e-05
2.72543e-05
-4.53445e-06
2.87744e-05
-2.91871e-06
2.9635e-05
-1.90484e-06
3.06271e-05
-1.71364e-06
3.11972e-05
-1.42748e-06
3.1243e-05
-2.85834e-09
3.12323e-05
-3.61545e-07
3.13334e-05
-1.11948e-07
3.105e-05
-3.54617e-06
-2.99836e-06
3.1343e-05
2.73028e-05
-6.83727e-06
2.87793e-05
-4.39521e-06
2.97024e-05
-2.8279e-06
3.07164e-05
-2.72766e-06
3.12635e-05
-1.97459e-06
3.12812e-05
-2.05884e-08
3.1283e-05
-3.63314e-07
3.13548e-05
-1.83764e-07
3.09673e-05
-3.15869e-06
-2.7413e-06
3.07103e-05
2.73744e-05
-9.21164e-06
2.88109e-05
-5.83174e-06
2.98257e-05
-3.84271e-06
3.08321e-05
-3.73405e-06
3.13358e-05
-2.47829e-06
3.13238e-05
-8.5356e-09
3.12946e-05
-3.34199e-07
3.13301e-05
-2.19241e-07
3.09202e-05
-2.74876e-06
-2.51388e-06
3.06928e-05
2.74781e-05
-1.16897e-05
2.89495e-05
-7.30321e-06
2.99746e-05
-4.86776e-06
3.07441e-05
-4.50355e-06
3.10322e-05
-2.76644e-06
3.10209e-05
2.83122e-09
3.09862e-05
-2.99488e-07
3.09682e-05
-2.01278e-07
3.06198e-05
-2.4004e-06
-2.38e-06
3.0486e-05
2.76203e-05
-1.431e-05
2.90216e-05
-8.70453e-06
2.96223e-05
-5.46851e-06
2.96122e-05
-4.49348e-06
2.93529e-05
-2.50709e-06
2.93099e-05
4.58136e-08
2.92342e-05
-2.23771e-07
2.92116e-05
-1.78653e-07
2.88187e-05
-2.0075e-06
-1.90512e-06
2.83438e-05
2.74355e-05
-1.67455e-05
2.7914e-05
-9.18306e-06
2.74272e-05
-4.98173e-06
2.64399e-05
-3.50616e-06
2.56861e-05
-1.75325e-06
2.56163e-05
1.15558e-07
2.55176e-05
-1.25028e-07
2.54843e-05
-1.45318e-07
2.5025e-05
-1.5482e-06
-1.3221e-06
2.44419e-05
2.57099e-05
-1.74554e-05
2.42747e-05
-7.74784e-06
2.26551e-05
-3.3621e-06
2.11346e-05
-1.98568e-06
2.02825e-05
-9.01151e-07
2.02679e-05
1.30156e-07
2.0196e-05
-5.31086e-08
2.01669e-05
-1.16238e-07
1.96099e-05
-9.91203e-07
-6.76753e-07
1.89646e-05
2.10705e-05
-1.35259e-05
1.75752e-05
-4.25249e-06
1.5525e-05
-1.31196e-06
1.41497e-05
-6.1038e-07
1.35107e-05
-2.62129e-07
1.35703e-05
7.05931e-08
1.3534e-05
-1.67955e-08
1.34841e-05
-6.63982e-08
1.28994e-05
-4.06531e-07
-2.49236e-07
1.24719e-05
1.14741e-05
7.2216e-06
5.90964e-06
5.29926e-06
5.03713e-06
5.10772e-06
5.09093e-06
5.02453e-06
4.618e-06
4.36876e-06
1.32246e-05
-9.37511e-06
3.7915e-06
2.1253e-05
7.63482e-07
-8.79179e-06
2.4851e-05
2.45251e-05
-2.81231e-05
2.52204e-05
2.54269e-05
-2.57963e-05
2.44726e-05
1.15501e-07
6.32303e-07
2.29388e-05
-2.87089e-05
3.02427e-05
2.0829e-05
-4.2259e-05
4.43688e-05
1.96185e-05
-4.20033e-05
4.32138e-05
1.85296e-05
-3.45449e-05
3.56338e-05
1.62568e-05
-2.75808e-05
2.98537e-05
1.51729e-05
-2.35443e-05
2.46282e-05
1.50235e-05
-1.93624e-05
1.95118e-05
1.46128e-05
-1.53285e-05
1.57392e-05
1.41499e-05
-1.22791e-05
1.2742e-05
1.39006e-05
-9.88703e-06
1.01363e-05
1.37652e-05
-7.91326e-06
8.04865e-06
1.36417e-05
-6.34536e-06
6.46885e-06
1.3522e-05
-5.12747e-06
5.24719e-06
1.34222e-05
-4.1646e-06
4.26444e-06
1.33471e-05
-3.38587e-06
3.46098e-06
1.32927e-05
-2.75054e-06
2.80487e-06
1.32537e-05
-2.23249e-06
2.27157e-06
1.32254e-05
-1.81106e-06
1.83932e-06
1.32048e-05
-1.46875e-06
1.48929e-06
1.31898e-05
-1.19088e-06
1.20588e-06
1.31788e-05
-9.65378e-07
9.76376e-07
1.31708e-05
-7.82395e-07
7.9049e-07
1.31648e-05
-6.3394e-07
6.39925e-07
1.31603e-05
-5.13522e-07
5.17969e-07
1.3157e-05
-4.15864e-07
4.19186e-07
1.31545e-05
-3.3669e-07
3.39184e-07
1.31526e-05
-2.72506e-07
2.74392e-07
1.31512e-05
-2.20495e-07
2.21926e-07
1.31501e-05
-1.78351e-07
1.79444e-07
1.31493e-05
-1.44203e-07
1.45043e-07
1.31486e-05
-1.16545e-07
1.17193e-07
1.31481e-05
-9.41345e-08
9.46368e-08
1.31477e-05
-7.59721e-08
7.63642e-08
1.31474e-05
-6.12573e-08
6.15641e-08
1.31472e-05
-4.93251e-08
4.9565e-08
1.3147e-05
-3.96305e-08
3.98195e-08
1.31468e-05
-3.17441e-08
3.18937e-08
1.31467e-05
-2.53174e-08
2.5435e-08
1.31466e-05
-2.00584e-08
2.01504e-08
1.31465e-05
-1.57278e-08
1.57997e-08
1.31465e-05
-1.21322e-08
1.2188e-08
1.31465e-05
-9.11247e-09
9.15488e-09
1.31464e-05
-6.53469e-09
6.56566e-09
1.31464e-05
-4.28548e-09
4.30671e-09
1.31464e-05
-2.26767e-09
2.28072e-09
1.31464e-05
-3.98784e-10
4.04518e-10
1.31464e-05
1.41868e-09
-1.41957e-09
1.31464e-05
3.24091e-09
-3.24825e-09
1.31464e-05
5.14171e-09
-5.15548e-09
1.31464e-05
7.19562e-09
-7.21589e-09
1.31465e-05
9.48045e-09
-9.50782e-09
1.31465e-05
1.20814e-08
-1.21167e-08
1.31465e-05
1.50945e-08
-1.51393e-08
1.31466e-05
1.86292e-08
-1.86854e-08
1.31467e-05
2.28125e-08
-2.28824e-08
1.31467e-05
2.77938e-08
-2.78803e-08
1.31468e-05
3.37511e-08
-3.38578e-08
1.3147e-05
4.08963e-08
-4.10277e-08
1.31471e-05
4.94836e-08
-4.96456e-08
1.31473e-05
5.98173e-08
-6.00173e-08
1.31476e-05
7.22646e-08
-7.25119e-08
1.31479e-05
8.72665e-08
-8.75728e-08
1.31483e-05
1.05356e-07
-1.05737e-07
1.31488e-05
1.27174e-07
-1.2765e-07
1.31494e-05
1.53503e-07
-1.54101e-07
1.31501e-05
1.85264e-07
-1.86019e-07
1.31511e-05
2.2365e-07
-2.24608e-07
1.31523e-05
2.69886e-07
-2.7112e-07
1.31539e-05
3.26124e-07
-3.27688e-07
1.3156e-05
3.9311e-07
-3.95245e-07
1.31585e-05
4.7708e-07
-4.79559e-07
1.31628e-05
5.71359e-07
-5.75638e-07
1.31656e-05
7.05708e-07
-7.08566e-07
1.31774e-05
8.21278e-07
-8.33035e-07
1.31726e-05
1.08022e-06
-1.0755e-06
1.32167e-05
1.13714e-06
-1.1812e-06
1.31549e-05
1.79412e-06
-1.73235e-06
1.33222e-05
1.43798e-06
-1.60523e-06
1.30043e-05
3.32432e-06
-3.00644e-06
1.34782e-05
1.56622e-06
-2.04008e-06
1.25668e-05
6.04492e-06
-5.13356e-06
1.33522e-05
1.63743e-06
-2.42288e-06
1.20555e-05
8.42636e-06
-7.12963e-06
1.31092e-05
1.96271e-06
-3.01637e-06
1.18719e-05
9.07989e-06
-7.8426e-06
1.30726e-05
4.09579e-06
-5.29645e-06
1.21912e-05
9.6387e-06
-8.75736e-06
1.30884e-05
7.60079e-06
-8.49798e-06
1.16964e-05
1.39558e-05
-1.25638e-05
1.33525e-05
1.15008e-05
-1.31569e-05
1.24823e-05
1.99422e-05
-1.9072e-05
1.43714e-05
1.76158e-05
-1.95048e-05
1.2414e-05
3.19728e-05
-3.00155e-05
1.30194e-05
3.17217e-05
-3.23271e-05
6.13514e-05
-5.97205e-05
1.13886e-05
1.55255e-05
-1.2238e-05
2.44606e-05
-8.17171e-06
2.91535e-05
1.98323e-05
2.86995e-05
2.58808e-05
2.76433e-05
1.17171e-06
2.66698e-05
-2.77354e-05
2.44422e-05
-4.00314e-05
2.13573e-05
-3.89185e-05
1.9794e-05
-3.29815e-05
1.78539e-05
-2.56407e-05
1.58683e-05
-2.15587e-05
1.53363e-05
-1.88303e-05
1.51877e-05
-1.51799e-05
1.47265e-05
-1.18179e-05
1.42614e-05
-9.42196e-06
1.39789e-05
-7.63073e-06
1.38073e-05
-6.17379e-06
1.36718e-05
-4.9919e-06
1.35548e-05
-4.04765e-06
1.3459e-05
-3.29004e-06
1.33846e-05
-2.67613e-06
1.33282e-05
-2.17616e-06
1.32858e-05
-1.76867e-06
1.32539e-05
-1.43676e-06
1.32296e-05
-1.16662e-06
1.32111e-05
-9.4688e-07
1.31969e-05
-7.68215e-07
1.3186e-05
-6.23015e-07
1.31775e-05
-5.05064e-07
1.3171e-05
-4.09286e-07
1.31658e-05
-3.31553e-07
1.31618e-05
-2.68478e-07
1.31586e-05
-2.17325e-07
1.31561e-05
-1.75847e-07
1.31541e-05
-1.4222e-07
1.31526e-05
-1.14971e-07
1.31513e-05
-9.28825e-08
1.31503e-05
-7.49736e-08
1.31495e-05
-6.04602e-08
1.31489e-05
-4.86894e-08
1.31484e-05
-3.91227e-08
1.3148e-05
-3.13379e-08
1.31476e-05
-2.49937e-08
1.31474e-05
-1.98021e-08
1.31472e-05
-1.5526e-08
1.3147e-05
-1.19749e-08
1.31469e-05
-8.99201e-09
1.31468e-05
-6.44541e-09
1.31468e-05
-4.2229e-09
1.31467e-05
-2.22842e-09
1.31467e-05
-3.80354e-10
1.31467e-05
1.41745e-09
1.31467e-05
3.22085e-09
1.31468e-05
5.10248e-09
1.31468e-05
7.13643e-09
1.31469e-05
9.39952e-09
1.3147e-05
1.19762e-08
1.31471e-05
1.49611e-08
1.31473e-05
1.84627e-08
1.31475e-05
2.26066e-08
1.31478e-05
2.75411e-08
1.31481e-05
3.3442e-08
1.31484e-05
4.05191e-08
1.31489e-05
4.90237e-08
1.31495e-05
5.9257e-08
1.31501e-05
7.15817e-08
1.3151e-05
8.64337e-08
1.3152e-05
1.04339e-07
1.31532e-05
1.2593e-07
1.31548e-05
1.51977e-07
1.31566e-05
1.83388e-07
1.3159e-05
2.21332e-07
1.31618e-05
2.67012e-07
1.31654e-05
3.22551e-07
1.31699e-05
3.88575e-07
1.31755e-05
4.71563e-07
1.31833e-05
5.63549e-07
1.31909e-05
6.98095e-07
1.32082e-05
8.03917e-07
1.3211e-05
1.07749e-06
1.3268e-05
1.08007e-06
1.32133e-05
1.84884e-06
1.34358e-05
1.21546e-06
1.30696e-05
3.69053e-06
1.37938e-05
8.4205e-07
1.25544e-05
7.28428e-06
1.39242e-05
2.67669e-07
1.19671e-05
1.03834e-05
1.35253e-05
4.04546e-07
1.18203e-05
1.07849e-05
1.33949e-05
2.52113e-06
1.20598e-05
1.09738e-05
1.31342e-05
6.5264e-06
1.21058e-05
1.49842e-05
1.38646e-05
9.74208e-06
1.24815e-05
2.13253e-05
1.40975e-05
1.59998e-05
1.30071e-05
3.30632e-05
1.73771e-05
2.73516e-05
6.08567e-05
1.78719e-05
2.13131e-05
-1.07166e-05
2.42502e-05
-1.11089e-05
2.76111e-05
1.64714e-05
2.92134e-05
2.42785e-05
3.10269e-05
-6.41807e-07
2.9897e-05
-2.66055e-05
2.72193e-05
-3.73537e-05
2.3458e-05
-3.51571e-05
2.09164e-05
-3.044e-05
1.96208e-05
-2.43451e-05
1.7451e-05
-1.93889e-05
1.58981e-05
-1.72774e-05
1.55275e-05
-1.48093e-05
1.52552e-05
-1.15456e-05
1.47599e-05
-8.92664e-06
1.43094e-05
-7.18024e-06
1.40145e-05
-5.87894e-06
1.38225e-05
-4.79983e-06
1.36789e-05
-3.90412e-06
1.35638e-05
-3.17493e-06
1.34719e-05
-2.58421e-06
1.34e-05
-2.10423e-06
1.33444e-05
-1.71306e-06
1.33015e-05
-1.39388e-06
1.32683e-05
-1.13347e-06
1.32426e-05
-9.21136e-07
1.32225e-05
-7.48137e-07
1.32068e-05
-6.07289e-07
1.31944e-05
-4.927e-07
1.31847e-05
-3.99531e-07
1.31769e-05
-3.23832e-07
1.31708e-05
-2.62351e-07
1.31659e-05
-2.12449e-07
1.3162e-05
-1.7196e-07
1.31589e-05
-1.39115e-07
1.31565e-05
-1.12486e-07
1.31545e-05
-9.08929e-08
1.31529e-05
-7.33788e-08
1.31516e-05
-5.91798e-08
1.31506e-05
-4.76624e-08
1.31497e-05
-3.82998e-08
1.31491e-05
-3.06788e-08
1.31486e-05
-2.44672e-08
1.31481e-05
-1.93838e-08
1.31478e-05
-1.51959e-08
1.31476e-05
-1.17169e-08
1.31474e-05
-8.79415e-09
1.31472e-05
-6.29847e-09
1.31471e-05
-4.1197e-09
1.3147e-05
-2.16337e-09
1.3147e-05
-3.49684e-10
1.3147e-05
1.41589e-09
1.3147e-05
3.18793e-09
1.31471e-05
5.03793e-09
1.31472e-05
7.03864e-09
1.31473e-05
9.26552e-09
1.31475e-05
1.18017e-08
1.31477e-05
1.47399e-08
1.3148e-05
1.81867e-08
1.31484e-05
2.22661e-08
1.31488e-05
2.71236e-08
1.31493e-05
3.29323e-08
1.31499e-05
3.98985e-08
1.31507e-05
4.82691e-08
1.31516e-05
5.834e-08
1.31527e-05
7.04679e-08
1.3154e-05
8.50804e-08
1.31557e-05
1.02693e-07
1.31577e-05
1.23927e-07
1.31601e-05
1.49533e-07
1.31631e-05
1.80405e-07
1.31668e-05
2.17673e-07
1.31713e-05
2.62528e-07
1.31768e-05
3.16993e-07
1.31837e-05
3.81714e-07
1.31922e-05
4.63002e-07
1.32033e-05
5.52474e-07
1.3216e-05
6.85446e-07
1.32378e-05
7.82056e-07
1.32497e-05
1.06565e-06
1.33148e-05
1.0149e-06
1.32804e-05
1.88322e-06
1.35258e-05
9.70125e-07
1.32117e-05
4.00456e-06
1.40238e-05
3.00329e-08
1.27929e-05
8.51513e-06
1.45839e-05
-1.52332e-06
1.23528e-05
1.26145e-05
1.45028e-05
-1.74541e-06
1.28456e-05
1.24421e-05
1.42473e-05
1.11942e-06
1.29866e-05
1.22345e-05
1.47192e-05
4.7938e-06
1.36147e-05
1.60887e-05
1.58344e-05
7.52233e-06
1.4799e-05
2.23606e-05
1.75123e-05
1.32865e-05
1.54203e-05
3.51553e-05
2.04795e-05
2.22924e-05
5.97277e-05
2.16084e-05
2.67151e-05
-6.76666e-06
2.12994e-05
-5.69313e-06
2.18656e-05
1.59052e-05
2.87553e-05
1.73887e-05
3.43897e-05
-6.27616e-06
3.26611e-05
-2.48768e-05
2.82541e-05
-3.29467e-05
2.4242e-05
-3.1145e-05
2.10432e-05
-2.72412e-05
2.01421e-05
-2.34441e-05
1.90964e-05
-1.83432e-05
1.71272e-05
-1.53081e-05
1.59288e-05
-1.3611e-05
1.5527e-05
-1.11438e-05
1.51529e-05
-8.55251e-06
1.46842e-05
-6.71161e-06
1.42836e-05
-5.47833e-06
1.4003e-05
-4.51925e-06
1.3809e-05
-3.71012e-06
1.36659e-05
-3.03183e-06
1.35552e-05
-2.47352e-06
1.34685e-05
-2.01745e-06
1.34005e-05
-1.64508e-06
1.33473e-05
-1.34072e-06
1.33057e-05
-1.09186e-06
1.32731e-05
-8.88465e-07
1.32473e-05
-7.22396e-07
1.3227e-05
-5.8694e-07
1.32108e-05
-4.76564e-07
1.3198e-05
-3.86701e-07
1.31878e-05
-3.13606e-07
1.31796e-05
-2.54185e-07
1.31731e-05
-2.05915e-07
1.31678e-05
-1.66726e-07
1.31636e-05
-1.34916e-07
1.31603e-05
-1.09112e-07
1.31576e-05
-8.8183e-08
1.31554e-05
-7.1201e-08
1.31536e-05
-5.74273e-08
1.31522e-05
-4.62534e-08
1.31511e-05
-3.71692e-08
1.31502e-05
-2.97723e-08
1.31495e-05
-2.37418e-08
1.31489e-05
-1.88065e-08
1.31484e-05
-1.474e-08
1.31481e-05
-1.13607e-08
1.31478e-05
-8.52076e-09
1.31476e-05
-6.0953e-09
1.31474e-05
-3.97675e-09
1.31474e-05
-2.07326e-09
1.31473e-05
-3.0725e-10
1.31473e-05
1.41377e-09
1.31474e-05
3.14228e-09
1.31475e-05
4.94833e-09
1.31476e-05
6.90272e-09
1.31478e-05
9.07917e-09
1.3148e-05
1.15588e-08
1.31483e-05
1.44322e-08
1.31487e-05
1.78031e-08
1.31492e-05
2.17929e-08
1.31498e-05
2.6544e-08
1.31505e-05
3.22254e-08
1.31513e-05
3.90384e-08
1.31524e-05
4.72243e-08
1.31536e-05
5.70724e-08
1.31552e-05
6.89304e-08
1.3157e-05
8.32155e-08
1.31593e-05
1.0043e-07
1.31621e-05
1.21179e-07
1.31654e-05
1.46191e-07
1.31695e-05
1.76338e-07
1.31744e-05
2.12701e-07
1.31805e-05
2.56471e-07
1.3188e-05
3.09488e-07
1.31971e-05
3.72621e-07
1.32087e-05
4.51378e-07
1.32226e-05
5.38546e-07
1.32409e-05
6.67202e-07
1.32653e-05
7.57646e-07
1.32888e-05
1.04215e-06
1.33569e-05
9.46786e-07
1.33462e-05
1.8939e-06
1.36183e-05
6.98025e-07
1.33669e-05
4.25597e-06
1.42389e-05
-8.41944e-07
1.31807e-05
9.57334e-06
1.50166e-05
-3.35922e-06
1.28821e-05
1.47491e-05
1.56439e-05
-4.50726e-06
1.3588e-05
1.44981e-05
1.55878e-05
-8.80409e-07
1.3485e-05
1.43373e-05
1.5286e-05
2.9928e-06
1.28262e-05
1.85485e-05
1.45946e-05
5.75389e-06
1.41891e-05
2.27662e-05
1.72031e-05
1.02725e-05
1.72821e-05
3.50762e-05
2.4056e-05
1.55185e-05
5.74356e-05
2.63481e-05
2.94321e-05
-4.60985e-06
2.29608e-05
7.78116e-07
2.2763e-05
1.6103e-05
3.05819e-05
9.56979e-06
3.59635e-05
-1.16578e-05
3.43269e-05
-2.32402e-05
2.91716e-05
-2.77914e-05
2.49904e-05
-2.69638e-05
2.13482e-05
-2.3599e-05
1.95263e-05
-2.16222e-05
1.93434e-05
-1.81602e-05
1.82606e-05
-1.42253e-05
1.66567e-05
-1.2007e-05
1.57241e-05
-1.02112e-05
1.5294e-05
-8.12245e-06
1.49186e-05
-6.3362e-06
1.453e-05
-5.08976e-06
1.41984e-05
-4.18759e-06
1.39501e-05
-3.46181e-06
1.37699e-05
-2.8517e-06
1.36362e-05
-2.33979e-06
1.35338e-05
-1.91504e-06
1.34539e-05
-1.5652e-06
1.33911e-05
-1.27791e-06
1.33415e-05
-1.04229e-06
1.33023e-05
-8.49236e-07
1.32712e-05
-6.91268e-07
1.32464e-05
-5.62175e-07
1.32267e-05
-4.56816e-07
1.32109e-05
-3.7092e-07
1.31982e-05
-3.00972e-07
1.31881e-05
-2.44056e-07
1.318e-05
-1.97782e-07
1.31734e-05
-1.6019e-07
1.31682e-05
-1.29659e-07
1.3164e-05
-1.0488e-07
1.31606e-05
-8.47764e-08
1.31578e-05
-6.84582e-08
1.31556e-05
-5.52174e-08
1.31538e-05
-4.44744e-08
1.31524e-05
-3.574e-08
1.31512e-05
-2.86256e-08
1.31503e-05
-2.28238e-08
1.31496e-05
-1.80753e-08
1.3149e-05
-1.41621e-08
1.31486e-05
-1.09089e-08
1.31482e-05
-8.17409e-09
1.3148e-05
-5.83762e-09
1.31478e-05
-3.79542e-09
1.31477e-05
-1.95899e-09
1.31476e-05
-2.53626e-10
1.31476e-05
1.41088e-09
1.31477e-05
3.08389e-09
1.31478e-05
4.834e-09
1.3148e-05
6.72936e-09
1.31482e-05
8.84152e-09
1.31485e-05
1.12492e-08
1.31489e-05
1.40398e-08
1.31494e-05
1.73142e-08
1.315e-05
2.11901e-08
1.31507e-05
2.58058e-08
1.31516e-05
3.13255e-08
1.31527e-05
3.79443e-08
1.31541e-05
4.58961e-08
1.31557e-05
5.5462e-08
1.31576e-05
6.6979e-08
1.316e-05
8.0851e-08
1.31628e-05
9.7564e-08
1.31663e-05
1.17704e-07
1.31705e-05
1.41971e-07
1.31757e-05
1.71216e-07
1.31819e-05
2.0645e-07
1.31895e-05
2.48888e-07
1.31989e-05
3.00092e-07
1.32101e-05
3.61399e-07
1.32248e-05
4.36702e-07
1.32411e-05
5.22266e-07
1.32658e-05
6.42423e-07
1.3289e-05
7.34461e-07
1.33324e-05
9.98754e-07
1.33813e-05
8.97911e-07
1.34313e-05
1.84394e-06
1.36691e-05
4.60181e-07
1.35735e-05
4.35155e-06
1.45526e-05
-1.82101e-06
1.38145e-05
1.03115e-05
1.58993e-05
-5.44407e-06
1.46916e-05
1.59568e-05
1.78999e-05
-7.71555e-06
1.71587e-05
1.52393e-05
2.02947e-05
-4.0164e-06
1.89175e-05
1.57144e-05
2.1333e-05
5.77296e-07
1.90029e-05
2.08786e-05
2.11148e-05
3.64203e-06
1.80341e-05
2.58469e-05
2.01393e-05
8.16733e-06
1.68679e-05
3.83476e-05
2.24524e-05
9.93407e-06
5.23399e-05
2.75481e-05
2.9969e-05
-3.71314e-06
2.77481e-05
2.9991e-06
2.95569e-05
1.42942e-05
3.36172e-05
5.50948e-06
3.48566e-05
-1.28972e-05
3.33202e-05
-2.17038e-05
2.9173e-05
-2.36443e-05
2.56368e-05
-2.34275e-05
2.27124e-05
-2.06747e-05
1.97535e-05
-1.86633e-05
1.85987e-05
-1.70054e-05
1.82631e-05
-1.38897e-05
1.72263e-05
-1.09703e-05
1.60193e-05
-9.00422e-06
1.52946e-05
-7.39776e-06
1.49217e-05
-5.96327e-06
1.46307e-05
-4.7988e-06
1.43433e-05
-3.90012e-06
1.40843e-05
-3.20284e-06
1.38761e-05
-2.64355e-06
1.37176e-05
-2.18124e-06
1.35974e-05
-1.79486e-06
1.35049e-05
-1.4727e-06
1.34326e-05
-1.2056e-06
1.33755e-05
-9.85167e-07
1.33301e-05
-8.03849e-07
1.32939e-05
-6.55075e-07
1.3265e-05
-5.33244e-07
1.32418e-05
-4.33645e-07
1.32232e-05
-3.52334e-07
1.32083e-05
-2.86043e-07
1.31963e-05
-2.32053e-07
1.31866e-05
-1.88121e-07
1.31788e-05
-1.52409e-07
1.31726e-05
-1.2339e-07
1.31675e-05
-9.98249e-08
1.31634e-05
-8.07002e-08
1.31601e-05
-6.51731e-08
1.31575e-05
-5.25692e-08
1.31554e-05
-4.23401e-08
1.31536e-05
-3.40233e-08
1.31523e-05
-2.72478e-08
1.31512e-05
-2.17207e-08
1.31503e-05
-1.71963e-08
1.31496e-05
-1.34671e-08
1.3149e-05
-1.03655e-08
1.31486e-05
-7.75705e-09
1.31483e-05
-5.52761e-09
1.31481e-05
-3.57735e-09
1.3148e-05
-1.82175e-09
1.31479e-05
-1.89402e-10
1.31479e-05
1.40687e-09
1.3148e-05
3.01293e-09
1.31481e-05
4.69547e-09
1.31483e-05
6.51947e-09
1.31486e-05
8.55393e-09
1.3149e-05
1.08745e-08
1.31495e-05
1.35652e-08
1.31501e-05
1.67228e-08
1.31508e-05
2.04612e-08
1.31517e-05
2.49136e-08
1.31528e-05
3.02382e-08
1.31541e-05
3.66227e-08
1.31557e-05
4.42926e-08
1.31576e-05
5.35189e-08
1.316e-05
6.46258e-08
1.31628e-05
7.80018e-08
1.31663e-05
9.41135e-08
1.31705e-05
1.13524e-07
1.31755e-05
1.36903e-07
1.31817e-05
1.65072e-07
1.31892e-05
1.98967e-07
1.31982e-05
2.39831e-07
1.32094e-05
2.88883e-07
1.32227e-05
3.48123e-07
1.32403e-05
4.19119e-07
1.32587e-05
5.03853e-07
1.32902e-05
6.10894e-07
1.33096e-05
7.15108e-07
1.33802e-05
9.28167e-07
1.33816e-05
8.9643e-07
1.35546e-05
1.67094e-06
1.35694e-05
4.4539e-07
1.39117e-05
4.00934e-06
1.44054e-05
-2.31479e-06
1.45684e-05
1.01485e-05
1.6114e-05
-6.98966e-06
1.58513e-05
1.62195e-05
1.80321e-05
-9.89637e-06
1.74185e-05
1.58529e-05
2.13102e-05
-7.9081e-06
2.01082e-05
1.69164e-05
2.34694e-05
-2.78392e-06
2.18988e-05
2.24493e-05
2.68226e-05
-1.28177e-06
2.38015e-05
2.8868e-05
2.79616e-05
4.00719e-06
2.3828e-05
4.24812e-05
2.55103e-05
8.25181e-06
4.86709e-05
2.91792e-05
2.80826e-05
-2.0162e-06
2.90656e-05
2.01609e-06
3.37982e-05
9.56162e-06
3.56664e-05
3.64135e-06
3.36308e-05
-1.08616e-05
3.16662e-05
-1.97392e-05
2.90278e-05
-2.10059e-05
2.61777e-05
-2.05775e-05
2.43413e-05
-1.88383e-05
2.16596e-05
-1.59816e-05
1.88742e-05
-1.422e-05
1.77255e-05
-1.27409e-05
1.72642e-05
-1.0509e-05
1.64013e-05
-8.14125e-06
1.54478e-05
-6.44427e-06
1.48401e-05
-5.35555e-06
1.45289e-05
-4.48764e-06
1.4321e-05
-3.6922e-06
1.41277e-05
-3.00955e-06
1.39448e-05
-2.46066e-06
1.3786e-05
-2.02241e-06
1.36564e-05
-1.66527e-06
1.35534e-05
-1.36977e-06
1.34721e-05
-1.12429e-06
1.34077e-05
-9.20733e-07
1.33564e-05
-7.5255e-07
1.33154e-05
-6.14072e-07
1.32825e-05
-5.00377e-07
1.32561e-05
-4.07248e-07
1.32349e-05
-3.31104e-07
1.32178e-05
-2.68949e-07
1.3204e-05
-2.18278e-07
1.31929e-05
-1.77015e-07
1.31839e-05
-1.43448e-07
1.31767e-05
-1.16159e-07
1.31709e-05
-9.39888e-08
1.31662e-05
-7.59894e-08
1.31624e-05
-6.13723e-08
1.31593e-05
-4.95029e-08
1.31568e-05
-3.98675e-08
1.31548e-05
-3.20336e-08
1.31532e-05
-2.56505e-08
1.3152e-05
-2.04415e-08
1.31509e-05
-1.61765e-08
1.31501e-05
-1.26603e-08
1.31495e-05
-9.73471e-09
1.3149e-05
-7.27309e-09
1.31487e-05
-5.168e-09
1.31484e-05
-3.32455e-09
1.31482e-05
-1.66284e-09
1.31482e-05
-1.15469e-10
1.31482e-05
1.40134e-09
1.31483e-05
2.9295e-09
1.31484e-05
4.5333e-09
1.31487e-05
6.27408e-09
1.3149e-05
8.21796e-09
1.31494e-05
1.0437e-08
1.315e-05
1.3011e-08
1.31507e-05
1.60325e-08
1.31515e-05
1.96107e-08
1.31526e-05
2.38729e-08
1.31538e-05
2.897e-08
1.31554e-05
3.50819e-08
1.31573e-05
4.24237e-08
1.31595e-05
5.12551e-08
1.31623e-05
6.18856e-08
1.31656e-05
7.46858e-08
1.31696e-05
9.01005e-08
1.31744e-05
1.08667e-07
1.31803e-05
1.3102e-07
1.31875e-05
1.57946e-07
1.31961e-05
1.90305e-07
1.32066e-05
2.29359e-07
1.32195e-05
2.75965e-07
1.32348e-05
3.32839e-07
1.3255e-05
3.98948e-07
1.32758e-05
4.83024e-07
1.33126e-05
5.74059e-07
1.33304e-05
6.97341e-07
1.34223e-05
8.36256e-07
1.33829e-05
9.35797e-07
1.3661e-05
1.3929e-06
1.34315e-05
6.74903e-07
1.41273e-05
3.31351e-06
1.39666e-05
-2.1541e-06
1.45138e-05
9.60125e-06
1.61451e-05
-8.62092e-06
1.44488e-05
1.79158e-05
1.73394e-05
-1.2787e-05
1.48049e-05
1.83874e-05
1.73584e-05
-1.04616e-05
1.55433e-05
1.87315e-05
1.83616e-05
-5.60226e-06
1.64263e-05
2.43845e-05
2.10575e-05
-5.9129e-06
1.97658e-05
3.01597e-05
2.48194e-05
-1.0464e-06
2.51694e-05
4.21312e-05
2.63546e-05
7.06655e-06
4.44522e-05
3.05733e-05
2.95146e-05
-2.17157e-06
3.2575e-05
-1.04435e-06
3.6619e-05
5.51762e-06
3.67278e-05
3.53258e-06
3.30989e-05
-7.23273e-06
3.0233e-05
-1.68733e-05
2.90988e-05
-1.98717e-05
2.68157e-05
-1.82944e-05
2.45611e-05
-1.65836e-05
2.29262e-05
-1.43467e-05
2.03213e-05
-1.16151e-05
1.78923e-05
-1.03119e-05
1.70547e-05
-9.67151e-06
1.68332e-05
-7.91967e-06
1.62496e-05
-5.86067e-06
1.54527e-05
-4.55868e-06
1.48156e-05
-3.85055e-06
1.44112e-05
-3.28779e-06
1.41554e-05
-2.75371e-06
1.39706e-05
-2.27585e-06
1.38211e-05
-1.87297e-06
1.36959e-05
-1.54008e-06
1.35917e-05
-1.26553e-06
1.35062e-05
-1.03873e-06
1.34367e-05
-8.51253e-07
1.33806e-05
-6.96433e-07
1.33353e-05
-5.68842e-07
1.32989e-05
-4.63935e-07
1.32695e-05
-3.77875e-07
1.32458e-05
-3.07417e-07
1.32267e-05
-2.49835e-07
1.32113e-05
-2.02848e-07
1.31988e-05
-1.64553e-07
1.31888e-05
-1.33381e-07
1.31806e-05
-1.08027e-07
1.31741e-05
-8.74187e-08
1.31687e-05
-7.06807e-08
1.31645e-05
-5.70863e-08
1.3161e-05
-4.60446e-08
1.31582e-05
-3.70776e-08
1.3156e-05
-2.97868e-08
1.31542e-05
-2.38459e-08
1.31527e-05
-1.89961e-08
1.31516e-05
-1.50242e-08
1.31507e-05
-1.17486e-08
1.31499e-05
-9.02187e-09
1.31494e-05
-6.72629e-09
1.3149e-05
-4.76183e-09
1.31487e-05
-3.03934e-09
1.31485e-05
-1.48381e-09
1.31484e-05
-3.27189e-11
1.31484e-05
1.39383e-09
1.31485e-05
2.83379e-09
1.31487e-05
4.3482e-09
1.3149e-05
5.99448e-09
1.31494e-05
7.83556e-09
1.31499e-05
9.93925e-09
1.31505e-05
1.23805e-08
1.31513e-05
1.52475e-08
1.31523e-05
1.86437e-08
1.31535e-05
2.26897e-08
1.31549e-05
2.75288e-08
1.31566e-05
3.33311e-08
1.31588e-05
4.03008e-08
1.31613e-05
4.86845e-08
1.31644e-05
5.87752e-08
1.31682e-05
7.09236e-08
1.31728e-05
8.55502e-08
1.31783e-05
1.03163e-07
1.31849e-05
1.24358e-07
1.3193e-05
1.49886e-07
1.32028e-05
1.80522e-07
1.32146e-05
2.17535e-07
1.32291e-05
2.61454e-07
1.32464e-05
3.15587e-07
1.32687e-05
3.7658e-07
1.32925e-05
4.5928e-07
1.33323e-05
5.34233e-07
1.33536e-05
6.76072e-07
1.34526e-05
7.3718e-07
1.34041e-05
9.84338e-07
1.372e-05
1.07698e-06
1.33731e-05
1.02181e-06
1.41953e-05
2.49135e-06
1.3583e-05
-1.54183e-06
1.43401e-05
8.84414e-06
1.58808e-05
-1.01616e-05
1.34732e-05
2.03233e-05
1.73481e-05
-1.66619e-05
1.47745e-05
2.0961e-05
1.63027e-05
-1.19898e-05
1.47344e-05
2.02999e-05
1.76329e-05
-8.50077e-06
1.47101e-05
2.73074e-05
1.86801e-05
-9.88297e-06
1.72767e-05
3.15631e-05
2.06823e-05
-4.45198e-06
2.26941e-05
4.01194e-05
2.4068e-05
5.69265e-06
3.8475e-05
3.00453e-05
3.1372e-05
-1.20505e-06
2.96783e-05
6.49408e-07
3.22583e-05
2.93754e-06
3.60744e-05
-2.83512e-07
3.47721e-05
-5.93036e-06
3.05026e-05
-1.26038e-05
2.83612e-05
-1.77304e-05
2.64309e-05
-1.63641e-05
2.30846e-05
-1.32373e-05
2.14902e-05
-1.27523e-05
2.1127e-05
-1.12519e-05
1.93566e-05
-8.5415e-06
1.72704e-05
-7.58526e-06
1.64134e-05
-7.06272e-06
1.63209e-05
-5.76809e-06
1.61104e-05
-4.34818e-06
1.55982e-05
-3.33837e-06
1.50069e-05
-2.69647e-06
1.45189e-05
-2.26578e-06
1.4172e-05
-1.92894e-06
1.39334e-05
-1.6344e-06
1.37643e-05
-1.37096e-06
1.36386e-05
-1.13978e-06
1.35414e-05
-9.41577e-07
1.34646e-05
-7.74465e-07
1.34032e-05
-6.35033e-07
1.33539e-05
-5.19475e-07
1.33141e-05
-4.24137e-07
1.32819e-05
-3.45746e-07
1.3256e-05
-2.81462e-07
1.3235e-05
-2.28857e-07
1.3218e-05
-1.85887e-07
1.32043e-05
-1.50839e-07
1.31932e-05
-1.2229e-07
1.31843e-05
-9.9058e-08
1.3177e-05
-8.01674e-08
1.31711e-05
-6.48183e-08
1.31664e-05
-5.23498e-08
1.31626e-05
-4.22206e-08
1.31595e-05
-3.39917e-08
1.3157e-05
-2.73009e-08
1.3155e-05
-2.18489e-08
1.31534e-05
-1.73966e-08
1.31521e-05
-1.37489e-08
1.31511e-05
-1.07393e-08
1.31503e-05
-8.23258e-09
1.31497e-05
-6.12109e-09
1.31493e-05
-4.31256e-09
1.3149e-05
-2.72434e-09
1.31488e-05
-1.28686e-09
1.31487e-05
5.83806e-11
1.31487e-05
1.38358e-09
1.31488e-05
2.72602e-09
1.3149e-05
4.14092e-09
1.31493e-05
5.68208e-09
1.31497e-05
7.40881e-09
1.31503e-05
9.38405e-09
1.3151e-05
1.16775e-08
1.31519e-05
1.43724e-08
1.3153e-05
1.75661e-08
1.31543e-05
2.13714e-08
1.31559e-05
2.59232e-08
1.31578e-05
3.13811e-08
1.31602e-05
3.79368e-08
1.31631e-05
4.58229e-08
1.31665e-05
5.53138e-08
1.31707e-05
6.67383e-08
1.31758e-05
8.04907e-08
1.31819e-05
9.70471e-08
1.31893e-05
1.16962e-07
1.31982e-05
1.40941e-07
1.32091e-05
1.69686e-07
1.32222e-05
2.04434e-07
1.32381e-05
2.45467e-07
1.32573e-05
2.96437e-07
1.32815e-05
3.5237e-07
1.33085e-05
4.3225e-07
1.33493e-05
4.93495e-07
1.33787e-05
6.46636e-07
1.34712e-05
6.44693e-07
1.34465e-05
1.00907e-06
1.3735e-05
7.88446e-07
1.34177e-05
1.33915e-06
1.42016e-05
1.70746e-06
1.34306e-05
-7.70909e-07
1.42975e-05
7.97725e-06
1.54739e-05
-1.1338e-05
1.28463e-05
2.2951e-05
1.70218e-05
-2.08374e-05
1.48446e-05
2.31382e-05
1.55787e-05
-1.27239e-05
1.45479e-05
2.13306e-05
1.7785e-05
-1.17379e-05
1.54805e-05
2.96119e-05
1.81977e-05
-1.26002e-05
1.80548e-05
3.17061e-05
1.96648e-05
-6.06192e-06
2.26261e-05
3.7158e-05
2.28541e-05
5.46471e-06
3.24919e-05
2.88372e-05
2.88262e-05
1.16541e-07
2.93022e-05
1.7347e-07
3.24782e-05
-2.38543e-07
3.38962e-05
-1.70149e-06
3.43453e-05
-6.37949e-06
3.27891e-05
-1.10475e-05
2.86232e-05
-1.35645e-05
2.56735e-05
-1.34144e-05
2.32383e-05
-1.08021e-05
2.08013e-05
-1.03153e-05
2.06103e-05
-1.1061e-05
2.09983e-05
-8.92948e-06
1.92718e-05
-5.8587e-06
1.65776e-05
-4.36857e-06
1.48866e-05
-4.07709e-06
1.43386e-05
-3.8002e-06
1.42686e-05
-3.26837e-06
1.42597e-05
-2.68751e-06
1.41881e-05
-2.19418e-06
1.40627e-05
-1.80354e-06
1.39197e-05
-1.49139e-06
1.37842e-05
-1.23549e-06
1.36666e-05
-1.02221e-06
1.35687e-05
-8.43618e-07
1.34885e-05
-6.94289e-07
1.34234e-05
-5.6989e-07
1.33706e-05
-4.66688e-07
1.33278e-05
-3.81398e-07
1.32932e-05
-3.11149e-07
1.32652e-05
-2.53455e-07
1.32426e-05
-2.06184e-07
1.32242e-05
-1.67532e-07
1.32094e-05
-1.3598e-07
1.31973e-05
-1.10263e-07
1.31876e-05
-8.93247e-08
1.31797e-05
-7.22925e-08
1.31733e-05
-5.84475e-08
1.31682e-05
-4.72002e-08
1.3164e-05
-3.80619e-08
1.31607e-05
-3.0635e-08
1.3158e-05
-2.4596e-08
1.31558e-05
-1.9675e-08
1.31541e-05
-1.56553e-08
1.31527e-05
-1.23606e-08
1.31516e-05
-9.64059e-09
1.31507e-05
-7.37346e-09
1.31501e-05
-5.46257e-09
1.31496e-05
-3.82409e-09
1.31492e-05
-2.38227e-09
1.3149e-05
-1.07362e-09
1.31489e-05
1.55959e-10
1.31489e-05
1.37047e-09
1.3149e-05