/*--------------------------------*- C++ -*----------------------------------*\
| =========                 |                                                 |
| \\      /  F ield         | OpenFOAM: The Open Source CFD Toolbox           |
|  \\    /   O peration     | Version:  2.4.0                                 |
|   \\  /    A nd           | Web:      www.OpenFOAM.org                      |
|    \\/     M anipulation  |                                                 |
\*---------------------------------------------------------------------------*/
FoamFile
{
    version     2.0;
    format      ascii;
    class       volVectorField;
    location    "0.014";
    object      UMean;
}
// * * * * * * * * * * * * * * * * * * * * * * * * * * * * * * * * * * * * * //

dimensions      [0 1 -1 0 0 0 0];

internalField   nonuniform List<vector> 
4400
(
(5.7325 0.282559 0)
(4.31111 0.0677267 0)
(3.65686 0.00238094 0)
(3.42861 -0.00346269 0)
(3.4161 -0.00208644 0)
(3.47743 -0.00139633 0)
(3.45581 0.000686218 0)
(3.60174 -0.00215248 0)
(3.6562 -0.01885 0)
(3.88896 0.0153286 0)
(8.54428 0.72091 0)
(8.41176 0.286587 0)
(7.69361 0.085872 0)
(7.22845 0.0209621 0)
(7.1203 -0.00730859 0)
(7.23927 -0.00342456 0)
(7.11699 -0.00937235 0)
(7.55237 -0.010897 0)
(7.02611 -0.0325284 0)
(9.09057 -0.531905 0)
(9.38231 0.753544 0)
(10.4256 0.367264 0)
(10.0743 0.144735 0)
(9.59919 0.0529488 0)
(9.40871 -0.00661739 0)
(9.55171 -0.00303489 0)
(9.35004 -0.0274177 0)
(9.90201 0.00339298 0)
(9.23958 -0.16673 0)
(11.1716 -0.522016 0)
(9.47617 0.632826 0)
(11.1639 0.356906 0)
(11.2526 0.168166 0)
(10.9407 0.0822678 0)
(10.7271 -0.0060539 0)
(10.8601 0.00845561 0)
(10.6564 -0.0488571 0)
(11.1022 0.0142376 0)
(10.7557 -0.237757 0)
(11.5703 -0.495022 0)
(9.42403 0.510865 0)
(11.2513 0.30461 0)
(11.629 0.154179 0)
(11.4769 0.0879384 0)
(11.3684 0.000990362 0)
(11.3481 0.00195394 0)
(11.3874 -0.030974 0)
(11.4219 -0.0365731 0)
(11.5337 -0.180382 0)
(11.5781 -0.653543 0)
(9.40358 0.409124 0)
(11.1869 0.249025 0)
(11.6492 0.124612 0)
(11.6023 0.0798941 0)
(11.5309 -0.00414634 0)
(11.4902 0.0170267 0)
(11.5615 -0.0579621 0)
(11.528 -0.00848715 0)
(11.6074 -0.276448 0)
(11.581 -0.543763 0)
(9.40066 0.313892 0)
(11.1329 0.195617 0)
(11.6123 0.0965358 0)
(11.6006 0.0588318 0)
(11.5245 0.00765768 0)
(11.5321 -0.00637882 0)
(11.5206 -0.013318 0)
(11.5948 -0.0725171 0)
(11.5231 -0.208591 0)
(11.5519 -0.611893 0)
(9.40074 0.221396 0)
(11.0944 0.142321 0)
(11.5917 0.0639537 0)
(11.5663 0.0519465 0)
(11.5371 -0.0105486 0)
(11.4859 0.0199565 0)
(11.557 -0.0464799 0)
(11.5424 -0.0449955 0)
(11.5071 -0.242037 0)
(11.4316 -0.603535 0)
(9.40011 0.131762 0)
(11.0722 0.0855179 0)
(11.5723 0.0398143 0)
(11.5567 0.0267016 0)
(11.5201 0.00254352 0)
(11.4876 -0.00403636 0)
(11.5472 -0.0188025 0)
(11.5213 -0.0706639 0)
(11.488 -0.234984 0)
(11.3631 -0.57531 0)
(9.4001 0.0431711 0)
(11.06 0.030549 0)
(11.5653 0.00887535 0)
(11.547 0.0171607 0)
(11.5182 -0.0137155 0)
(11.4839 0.0116413 0)
(11.536 -0.0321501 0)
(11.5169 -0.0736357 0)
(11.456 -0.215712 0)
(11.2628 -0.545802 0)
(9.40015 -0.044351 0)
(11.0598 -0.0268193 0)
(11.5653 -0.0162266 0)
(11.5469 -0.00510985 0)
(11.5181 -0.00757851 0)
(11.4811 -1.20519e-05 0)
(11.5354 -0.0257492 0)
(11.5022 -0.0664932 0)
(11.4213 -0.218749 0)
(11.2046 -0.511122 0)
(9.40059 -0.132771 0)
(11.0707 -0.0825161 0)
(11.5746 -0.0453563 0)
(11.5528 -0.0185323 0)
(11.5228 -0.0170194 0)
(11.4834 0.00593957 0)
(11.5301 -0.0266874 0)
(11.4906 -0.0740728 0)
(11.4007 -0.200835 0)
(11.1605 -0.464355 0)
(9.40126 -0.222523 0)
(11.0931 -0.138536 0)
(11.5926 -0.0723632 0)
(11.566 -0.0368928 0)
(11.532 -0.0169373 0)
(11.4873 0.00305388 0)
(11.5283 -0.0268234 0)
(11.482 -0.0646105 0)
(11.3773 -0.188227 0)
(11.1102 -0.405151 0)
(9.40216 -0.314732 0)
(11.1282 -0.193198 0)
(11.6205 -0.101119 0)
(11.5854 -0.0525422 0)
(11.5449 -0.0201882 0)
(11.4935 0.00551101 0)
(11.5268 -0.0257209 0)
(11.4732 -0.0610792 0)
(11.3578 -0.174294 0)
(11.0764 -0.35335 0)
(9.40497 -0.409659 0)
(11.1827 -0.246867 0)
(11.6554 -0.130409 0)
(11.5928 -0.0687996 0)
(11.5359 -0.0210403 0)
(11.4804 0.00709455 0)
(11.5112 -0.0246554 0)
(11.4447 -0.0518701 0)
(11.3295 -0.158705 0)
(11.0201 -0.285697 0)
(9.42411 -0.511394 0)
(11.25 -0.302877 0)
(11.6306 -0.158573 0)
(11.4721 -0.0802734 0)
(11.3706 -0.0194049 0)
(11.3208 0.00890688 0)
(11.3575 -0.0223083 0)
(11.2657 -0.0430629 0)
(11.1731 -0.140562 0)
(10.7771 -0.217438 0)
(9.47638 -0.633041 0)
(11.1617 -0.355943 0)
(11.2585 -0.171422 0)
(10.9208 -0.0758155 0)
(10.7676 -0.0122579 0)
(10.739 0.00920898 0)
(10.7773 -0.0185112 0)
(10.6582 -0.0328445 0)
(10.5887 -0.115773 0)
(10.0587 -0.141051 0)
(9.38154 -0.753641 0)
(10.4257 -0.366898 0)
(10.0755 -0.146233 0)
(9.58733 -0.0505081 0)
(9.43521 -0.00217298 0)
(9.43893 0.00758146 0)
(9.4679 -0.0131812 0)
(9.34045 -0.0228259 0)
(9.2755 -0.0832272 0)
(8.63414 -0.0647825 0)
(8.54371 -0.720962 0)
(8.41234 -0.286425 0)
(7.69271 -0.0865686 0)
(7.22265 -0.0201213 0)
(7.13053 0.00333567 0)
(7.15987 0.00420226 0)
(7.17332 -0.00708837 0)
(7.06612 -0.0131861 0)
(6.98918 -0.0431349 0)
(6.36608 -0.0155988 0)
(5.73222 -0.282577 0)
(4.31142 -0.0676892 0)
(3.65581 -0.00251522 0)
(3.42641 0.00360188 0)
(3.41531 0.00187003 0)
(3.44391 0.000529966 0)
(3.4435 -0.0010865 0)
(3.38711 -0.00189586 0)
(3.31547 -0.00450064 0)
(2.96845 0.0237365 0)
(6.94501 -2.29845 0)
(8.36799 -2.17023 0)
(8.75701 -2.95344 0)
(8.57256 -3.91118 0)
(7.99696 -4.37596 0)
(7.26913 -4.27141 0)
(6.63753 -3.79859 0)
(6.22232 -3.19926 0)
(5.92864 -2.6289 0)
(5.68928 -2.15324 0)
(5.543 -1.76019 0)
(5.44392 -1.43539 0)
(5.3628 -1.17023 0)
(5.30436 -0.953421 0)
(5.26438 -0.776921 0)
(5.23434 -0.634149 0)
(5.2107 -0.518392 0)
(5.19263 -0.423906 0)
(5.17929 -0.346492 0)
(5.16957 -0.283069 0)
(5.16248 -0.23118 0)
(5.15727 -0.188771 0)
(5.15341 -0.154127 0)
(5.15054 -0.125831 0)
(5.1484 -0.102722 0)
(5.14679 -0.08385 0)
(5.14557 -0.0684388 0)
(5.14464 -0.0558551 0)
(5.14393 -0.0455807 0)
(5.14339 -0.0371925 0)
(5.14297 -0.0303445 0)
(5.14264 -0.0247543 0)
(5.14238 -0.0201908 0)
(5.14218 -0.0164652 0)
(5.14202 -0.0134233 0)
(5.1419 -0.0109393 0)
(5.1418 -0.00891077 0)
(5.14172 -0.0072535 0)
(5.14165 -0.0058983 0)
(5.1416 -0.00478857 0)
(5.14156 -0.00387869 0)
(5.14153 -0.0031312 0)
(5.1415 -0.00251499 0)
(5.14148 -0.00200425 0)
(5.14146 -0.00157785 0)
(5.14145 -0.00121819 0)
(5.14144 -0.000910453 0)
(5.14144 -0.000642029 0)
(5.14143 -0.000401955 0)
(5.14143 -0.000180536 0)
(5.14143 3.10483e-05 0)
(5.14143 0.000241131 0)
(5.14143 0.000457827 0)
(5.14143 0.000689545 0)
(5.14144 0.000945043 0)
(5.14145 0.00123404 0)
(5.14146 0.00156727 0)
(5.14147 0.00195722 0)
(5.14149 0.00241828 0)
(5.14151 0.00296752 0)
(5.14153 0.00362518 0)
(5.14156 0.00441554 0)
(5.1416 0.00536767 0)
(5.14164 0.00651664 0)
(5.1417 0.00790469 0)
(5.14177 0.00958285 0)
(5.14185 0.0116128 0)
(5.14195 0.0140691 0)
(5.14207 0.0170421 0)
(5.14222 0.0206411 0)
(5.1424 0.0249983 0)
(5.14263 0.0302746 0)
(5.1429 0.0366628 0)
(5.14324 0.0444032 0)
(5.14367 0.0537699 0)
(5.14415 0.0651451 0)
(5.14487 0.0788588 0)
(5.1455 0.095681 0)
(5.14692 0.115598 0)
(5.1473 0.14102 0)
(5.1508 0.169056 0)
(5.14907 0.209884 0)
(5.15849 0.245634 0)
(5.14874 0.319064 0)
(5.17091 0.352958 0)
(5.14111 0.497249 0)
(5.17907 0.501793 0)
(5.11519 0.767719 0)
(5.16933 0.709733 0)
(5.05828 1.12217 0)
(5.15014 1.01606 0)
(5.00097 1.56451 0)
(5.12894 1.49334 0)
(4.95605 2.23991 0)
(5.09709 2.17744 0)
(4.94506 3.32797 0)
(5.17162 3.30248 0)
(4.63274 5.20428 0)
(6.16237 5.52262 0)
(3.72371 10.1731 0)
(8.42657 -2.58709 0)
(9.37613 -2.46849 0)
(9.44964 -2.94051 0)
(9.05199 -3.69548 0)
(8.39636 -4.13784 0)
(7.62734 -4.0381 0)
(6.95187 -3.58109 0)
(6.45797 -3.02857 0)
(6.1292 -2.50106 0)
(5.85371 -2.05644 0)
(5.66162 -1.69629 0)
(5.54853 -1.39113 0)
(5.45804 -1.13578 0)
(5.38095 -0.928025 0)
(5.32424 -0.758919 0)
(5.28357 -0.620683 0)
(5.25239 -0.507858 0)
(5.22771 -0.41574 0)
(5.20836 -0.340311 0)
(5.19344 -0.278445 0)
(5.182 -0.227716 0)
(5.17321 -0.186161 0)
(5.16644 -0.152145 0)
(5.16119 -0.124317 0)
(5.1571 -0.101558 0)
(5.1539 -0.0829502 0)
(5.15138 -0.0677396 0)
(5.14939 -0.0553091 0)
(5.14781 -0.0451521 0)
(5.14655 -0.0368546 0)
(5.14555 -0.0300771 0)
(5.14475 -0.0245417 0)
(5.1441 -0.0200213 0)
(5.14359 -0.0163298 0)
(5.14317 -0.013315 0)
(5.14283 -0.010852 0)
(5.14256 -0.0088407 0)
(5.14234 -0.00719736 0)
(5.14216 -0.00585329 0)
(5.14202 -0.00475243 0)
(5.1419 -0.00384963 0)
(5.14181 -0.00310798 0)
(5.14174 -0.00249654 0)
(5.14168 -0.00198972 0)
(5.14163 -0.00156648 0)
(5.14159 -0.00120943 0)
(5.14156 -0.000903896 0)
(5.14154 -0.000637359 0)
(5.14153 -0.000398922 0)
(5.14152 -0.000178977 0)
(5.14151 3.12444e-05 0)
(5.14152 0.000239958 0)
(5.14152 0.000455278 0)
(5.14154 0.00068551 0)
(5.14155 0.000939414 0)
(5.14158 0.00122653 0)
(5.14161 0.00155765 0)
(5.14165 0.00194509 0)
(5.1417 0.00240323 0)
(5.14176 0.00294894 0)
(5.14183 0.00360244 0)
(5.14192 0.00438781 0)
(5.14204 0.00533395 0)
(5.14217 0.00647564 0)
(5.14234 0.00785486 0)
(5.14254 0.00952234 0)
(5.14278 0.0115393 0)
(5.14308 0.0139798 0)
(5.14344 0.0169335 0)
(5.14388 0.020509 0)
(5.14441 0.0248376 0)
(5.14505 0.0300788 0)
(5.14584 0.0364242 0)
(5.14679 0.044112 0)
(5.14798 0.053413 0)
(5.14937 0.06471 0)
(5.15122 0.0783156 0)
(5.15312 0.0950378 0)
(5.15637 0.114721 0)
(5.15834 0.140157 0)
(5.16531 0.167351 0)
(5.16449 0.209355 0)
(5.18249 0.241108 0)
(5.16859 0.322496 0)
(5.214 0.339003 0)
(5.1665 0.516946 0)
(5.24862 0.466852 0)
(5.16576 0.81862 0)
(5.24444 0.645904 0)
(5.1724 1.20744 0)
(5.20667 0.907936 0)
(5.19614 1.6856 0)
(5.21507 1.3423 0)
(5.2051 2.35628 0)
(5.4351 2.03347 0)
(5.06487 3.4598 0)
(6.03557 3.08136 0)
(4.6313 5.51608 0)
(7.62348 4.98131 0)
(5.47726 10.7207 0)
(9.84173 -2.15179 0)
(9.75619 -2.38297 0)
(9.81637 -2.83465 0)
(9.45404 -3.48534 0)
(8.7876 -3.86205 0)
(7.94901 -3.75296 0)
(7.22 -3.33001 0)
(6.66711 -2.83036 0)
(6.2978 -2.36155 0)
(6.01694 -1.9538 0)
(5.78866 -1.62325 0)
(5.64613 -1.34174 0)
(5.54921 -1.09687 0)
(5.46236 -0.895972 0)
(5.38903 -0.734845 0)
(5.3339 -0.603188 0)
(5.29294 -0.494535 0)
(5.2613 -0.405199 0)
(5.2363 -0.331967 0)
(5.21654 -0.271917 0)
(5.201 -0.222645 0)
(5.18879 -0.18222 0)
(5.1792 -0.149073 0)
(5.17163 -0.121911 0)
(5.16564 -0.0996643 0)
(5.16088 -0.0814533 0)
(5.15709 -0.0665519 0)
(5.15406 -0.0543634 0)
(5.15162 -0.0443968 0)
(5.14967 -0.0362497 0)
(5.1481 -0.0295914 0)
(5.14683 -0.0241509 0)
(5.1458 -0.0197063 0)
(5.14498 -0.0160754 0)
(5.1443 -0.0131093 0)
(5.14376 -0.0106859 0)
(5.14332 -0.00870619 0)
(5.14296 -0.00708825 0)
(5.14267 -0.00576483 0)
(5.14243 -0.0046808 0)
(5.14224 -0.00379165 0)
(5.14209 -0.00306114 0)
(5.14197 -0.00245887 0)
(5.14187 -0.00195962 0)
(5.14179 -0.00154265 0)
(5.14173 -0.00119089 0)
(5.14168 -0.000889865 0)
(5.14165 -0.000627223 0)
(5.14162 -0.000392226 0)
(5.14161 -0.000175379 0)
(5.1416 3.19132e-05 0)
(5.1416 0.000237817 0)
(5.14162 0.000450297 0)
(5.14164 0.000677548 0)
(5.14167 0.000928183 0)
(5.14171 0.00121164 0)
(5.14176 0.00153855 0)
(5.14182 0.00192106 0)
(5.1419 0.00237336 0)
(5.14201 0.00291213 0)
(5.14213 0.00355732 0)
(5.14228 0.00433267 0)
(5.14247 0.00526675 0)
(5.14269 0.00639387 0)
(5.14297 0.0077555 0)
(5.1433 0.00940169 0)
(5.14371 0.0113929 0)
(5.1442 0.0138021 0)
(5.14479 0.0167179 0)
(5.14551 0.0202474 0)
(5.14639 0.02452 0)
(5.14745 0.0296931 0)
(5.14875 0.0359555 0)
(5.15032 0.0435417 0)
(5.15225 0.0527186 0)
(5.15453 0.0638637 0)
(5.15751 0.0772771 0)
(5.16066 0.0937836 0)
(5.16575 0.113114 0)
(5.16915 0.138373 0)
(5.17986 0.164548 0)
(5.1792 0.207394 0)
(5.20745 0.234709 0)
(5.18542 0.323828 0)
(5.26444 0.320376 0)
(5.17673 0.536981 0)
(5.35599 0.415958 0)
(5.16301 0.88462 0)
(5.43798 0.54553 0)
(5.16952 1.31816 0)
(5.52323 0.779325 0)
(5.14281 1.812 0)
(5.72627 1.195 0)
(5.08497 2.51956 0)
(6.07889 1.75249 0)
(5.06291 3.69272 0)
(6.93312 2.6212 0)
(4.98389 5.61353 0)
(9.21264 4.10803 0)
(6.87988 10.4964 0)
(10.9645 -2.16503 0)
(10.1589 -2.58008 0)
(10.0691 -2.909 0)
(9.78678 -3.35514 0)
(9.0783 -3.57107 0)
(8.16665 -3.43477 0)
(7.39792 -3.06633 0)
(6.84275 -2.62913 0)
(6.45264 -2.21707 0)
(6.17929 -1.8477 0)
(5.94287 -1.54145 0)
(5.75984 -1.28449 0)
(5.63733 -1.05434 0)
(5.54135 -0.85882 0)
(5.45702 -0.70355 0)
(5.38789 -0.579371 0)
(5.3349 -0.476922 0)
(5.29462 -0.391777 0)
(5.26342 -0.321443 0)
(5.23885 -0.263595 0)
(5.21936 -0.216066 0)
(5.20389 -0.177022 0)
(5.19159 -0.144959 0)
(5.18179 -0.118646 0)
(5.17396 -0.0970647 0)
(5.1677 -0.0793773 0)
(5.16267 -0.0648893 0)
(5.15862 -0.0530286 0)
(5.15536 -0.0433229 0)
(5.15272 -0.0353839 0)
(5.15059 -0.0288924 0)
(5.14887 -0.0235857 0)
(5.14747 -0.0192487 0)
(5.14634 -0.0157045 0)
(5.14542 -0.0128086 0)
(5.14467 -0.0104421 0)
(5.14406 -0.00850823 0)
(5.14357 -0.00692743 0)
(5.14317 -0.00563428 0)
(5.14284 -0.00457498 0)
(5.14258 -0.00370599 0)
(5.14237 -0.00299197 0)
(5.14219 -0.00240331 0)
(5.14206 -0.00191532 0)
(5.14195 -0.00150771 0)
(5.14186 -0.00116377 0)
(5.1418 -0.000869392 0)
(5.14175 -0.000612481 0)
(5.14172 -0.000382522 0)
(5.14169 -0.000170247 0)
(5.14169 3.2769e-05 0)
(5.14169 0.000234514 0)
(5.14171 0.000442781 0)
(5.14173 0.000665567 0)
(5.14178 0.000911328 0)
(5.14183 0.0011893 0)
(5.1419 0.0015099 0)
(5.142 0.00188502 0)
(5.14211 0.00232859 0)
(5.14225 0.00285698 0)
(5.14242 0.00348974 0)
(5.14264 0.00425017 0)
(5.14289 0.00516627 0)
(5.14321 0.00627172 0)
(5.14359 0.00760718 0)
(5.14405 0.00922172 0)
(5.14462 0.0111746 0)
(5.1453 0.0135374 0)
(5.14612 0.0163969 0)
(5.14713 0.0198581 0)
(5.14834 0.0240478 0)
(5.14982 0.0291201 0)
(5.15161 0.03526 0)
(5.15378 0.0426962 0)
(5.15645 0.0516917 0)
(5.1596 0.0626113 0)
(5.1637 0.0757535 0)
(5.16804 0.0919216 0)
(5.175 0.110807 0)
(5.17963 0.135657 0)
(5.19441 0.160715 0)
(5.19295 0.20397 0)
(5.233 0.226579 0)
(5.20041 0.322325 0)
(5.31614 0.29916 0)
(5.18726 0.548676 0)
(5.4669 0.36441 0)
(5.15763 0.933549 0)
(5.64608 0.443396 0)
(5.17274 1.41187 0)
(5.80486 0.610959 0)
(5.25616 1.95675 0)
(5.99049 0.937128 0)
(5.29931 2.71676 0)
(6.42813 1.44124 0)
(5.13251 3.83146 0)
(7.99406 2.35574 0)
(4.81524 5.82869 0)
(10.2445 2.91755 0)
(8.14233 9.89152 0)
(11.4813 -1.69823 0)
(10.8864 -2.02978 0)
(10.5362 -2.4966 0)
(10.0891 -2.97574 0)
(9.28043 -3.17462 0)
(8.35053 -3.07063 0)
(7.5582 -2.7778 0)
(7.00496 -2.41907 0)
(6.60462 -2.07066 0)
(6.31603 -1.7412 0)
(6.08673 -1.45069 0)
(5.88448 -1.21309 0)
(5.7263 -1.00515 0)
(5.61013 -0.820839 0)
(5.51742 -0.67008 0)
(5.43995 -0.55115 0)
(5.37713 -0.45485 0)
(5.328 -0.374921 0)
(5.29001 -0.308415 0)
(5.2604 -0.253364 0)
(5.23702 -0.207961 0)
(5.21841 -0.170578 0)
(5.20353 -0.139825 0)
(5.19159 -0.114544 0)
(5.18201 -0.0937791 0)
(5.17429 -0.0767386 0)
(5.16807 -0.0627653 0)
(5.16304 -0.0513155 0)
(5.15898 -0.0419389 0)
(5.15568 -0.0342642 0)
(5.15301 -0.0279855 0)
(5.15085 -0.0228502 0)
(5.14909 -0.0186519 0)
(5.14766 -0.01522 0)
(5.1465 -0.0124148 0)
(5.14555 -0.0101222 0)
(5.14478 -0.00824834 0)
(5.14416 -0.00671611 0)
(5.14365 -0.00546254 0)
(5.14324 -0.0044357 0)
(5.1429 -0.0035933 0)
(5.14263 -0.00290099 0)
(5.14242 -0.00233017 0)
(5.14224 -0.00185691 0)
(5.1421 -0.00146155 0)
(5.14199 -0.00112789 0)
(5.14191 -0.000842257 0)
(5.14185 -0.0005929 0)
(5.14181 -0.000369598 0)
(5.14178 -0.000163363 0)
(5.14177 3.39911e-05 0)
(5.14178 0.000230203 0)
(5.1418 0.000432853 0)
(5.14183 0.000649706 0)
(5.14188 0.000888978 0)
(5.14195 0.00115967 0)
(5.14205 0.00147189 0)
(5.14216 0.00183723 0)
(5.14231 0.00226924 0)
(5.14249 0.00278389 0)
(5.14271 0.00340022 0)
(5.14298 0.00414092 0)
(5.14331 0.00503327 0)
(5.14371 0.00611008 0)
(5.1442 0.00741096 0)
(5.14479 0.00898366 0)
(5.14551 0.0108859 0)
(5.14637 0.0131874 0)
(5.14743 0.0159726 0)
(5.1487 0.0193437 0)
(5.15025 0.0234241 0)
(5.15213 0.0283634 0)
(5.15441 0.0343423 0)
(5.15716 0.0415812 0)
(5.16055 0.0503397 0)
(5.16455 0.0609605 0)
(5.16973 0.0737592 0)
(5.17523 0.0894539 0)
(5.18406 0.107849 0)
(5.18969 0.13195 0)
(5.20903 0.15607 0)
(5.20488 0.19884 0)
(5.26103 0.217116 0)
(5.20762 0.31844 0)
(5.37992 0.272004 0)
(5.18099 0.558338 0)
(5.61483 0.290029 0)
(5.14708 0.981235 0)
(5.98958 0.280026 0)
(5.16306 1.51175 0)
(6.59423 0.353301 0)
(5.26758 2.06382 0)
(7.5382 0.676423 0)
(5.21299 2.81693 0)
(8.92605 1.2016 0)
(4.84372 3.94902 0)
(10.4447 1.82561 0)
(5.44437 6.0616 0)
(10.4123 1.76863 0)
(8.94257 9.19993 0)
(11.4693 -1.5267 0)
(11.0432 -1.98188 0)
(10.6008 -2.47685 0)
(10.0303 -2.89592 0)
(9.23457 -3.01228 0)
(8.38175 -2.86155 0)
(7.63304 -2.57027 0)
(7.11485 -2.24191 0)
(6.74988 -1.93627 0)
(6.44195 -1.6461 0)
(6.19642 -1.36686 0)
(5.9931 -1.13148 0)
(5.81511 -0.940139 0)
(5.67267 -0.775378 0)
(5.56616 -0.635456 0)
(5.4835 -0.522051 0)
(5.41586 -0.430648 0)
(5.36046 -0.355621 0)
(5.31622 -0.29332 0)
(5.28144 -0.241513 0)
(5.25406 -0.198554 0)
(5.23233 -0.163048 0)
(5.21495 -0.133772 0)
(5.20098 -0.109669 0)
(5.18972 -0.0898481 0)
(5.18062 -0.0735649 0)
(5.17326 -0.0602 0)
(5.1673 -0.0492392 0)
(5.16246 -0.0402566 0)
(5.15854 -0.0328998 0)
(5.15535 -0.0268779 0)
(5.15276 -0.0219506 0)
(5.15065 -0.0179206 0)
(5.14893 -0.0146253 0)
(5.14754 -0.0119312 0)
(5.1464 -0.00972896 0)
(5.14548 -0.00792844 0)
(5.14473 -0.00645584 0)
(5.14412 -0.005251 0)
(5.14362 -0.00426411 0)
(5.14322 -0.00345435 0)
(5.14289 -0.00278872 0)
(5.14263 -0.00223981 0)
(5.14242 -0.00178471 0)
(5.14225 -0.00140448 0)
(5.14212 -0.00108353 0)
(5.14202 -0.000808707 0)
(5.14195 -0.000568683 0)
(5.14189 -0.000353611 0)
(5.14186 -0.000154856 0)
(5.14185 3.54858e-05 0)
(5.14186 0.00022484 0)
(5.14188 0.000420526 0)
(5.14192 0.000630019 0)
(5.14199 0.000861253 0)
(5.14207 0.00112292 0)
(5.14219 0.00142477 0)
(5.14233 0.00177799 0)
(5.1425 0.0021957 0)
(5.14272 0.00269336 0)
(5.14299 0.00328936 0)
(5.14332 0.00400564 0)
(5.14371 0.00486859 0)
(5.1442 0.00590997 0)
(5.14479 0.00716805 0)
(5.1455 0.008689 0)
(5.14637 0.0105286 0)
(5.14742 0.0127543 0)
(5.14869 0.0154477 0)
(5.15023 0.0187074 0)
(5.1521 0.0226528 0)
(5.15437 0.0274281 0)
(5.15712 0.0332083 0)
(5.16044 0.0402039 0)
(5.16452 0.0486716 0)
(5.16936 0.0589221 0)
(5.17557 0.0713104 0)
(5.18222 0.0863892 0)
(5.1928 0.104301 0)
(5.19941 0.127158 0)
(5.22328 0.151056 0)
(5.21537 0.191009 0)
(5.29084 0.209237 0)
(5.20362 0.306818 0)
(5.4623 0.251431 0)
(5.1145 0.551319 0)
(5.84183 0.228834 0)
(4.95646 1.00111 0)
(6.49445 0.168528 0)
(4.75315 1.56729 0)
(7.47204 0.177702 0)
(4.62733 2.16435 0)
(8.7244 0.401878 0)
(4.63928 2.94219 0)
(10.1279 0.755629 0)
(5.17223 4.11346 0)
(10.8466 1.02726 0)
(6.99365 6.17289 0)
(10.3349 1.24525 0)
(9.6097 8.43016 0)
(11.2638 -1.45702 0)
(10.9923 -1.73597 0)
(10.6855 -2.0742 0)
(10.1269 -2.43566 0)
(9.32015 -2.55227 0)
(8.50393 -2.43806 0)
(7.83122 -2.22499 0)
(7.34002 -1.98037 0)
(6.97023 -1.73121 0)
(6.60756 -1.49131 0)
(6.28308 -1.25409 0)
(6.0485 -1.03528 0)
(5.86746 -0.854002 0)
(5.71334 -0.707976 0)
(5.59296 -0.587505 0)
(5.50564 -0.486655 0)
(5.43914 -0.402453 0)
(5.38441 -0.332675 0)
(5.33853 -0.274987 0)
(5.30076 -0.227126 0)
(5.27019 -0.187298 0)
(5.24561 -0.154176 0)
(5.22585 -0.126711 0)
(5.20992 -0.104007 0)
(5.19706 -0.0852851 0)
(5.18665 -0.0698761 0)
(5.17821 -0.0572121 0)
(5.17135 -0.0468158 0)
(5.16579 -0.0382892 0)
(5.16126 -0.0313013 0)
(5.15758 -0.0255783 0)
(5.15458 -0.0208936 0)
(5.15214 -0.0170605 0)
(5.15015 -0.0139252 0)
(5.14854 -0.0113614 0)
(5.14722 -0.00926508 0)
(5.14615 -0.00755087 0)
(5.14527 -0.00614868 0)
(5.14456 -0.00500129 0)
(5.14399 -0.00406136 0)
(5.14352 -0.00329005 0)
(5.14314 -0.00265592 0)
(5.14283 -0.00213295 0)
(5.14259 -0.00169933 0)
(5.14239 -0.001337 0)
(5.14224 -0.00103108 0)
(5.14212 -0.000769037 0)
(5.14204 -0.000540054 0)
(5.14198 -0.000334733 0)
(5.14194 -0.000144827 0)
(5.14193 3.72002e-05 0)
(5.14194 0.000218427 0)
(5.14196 0.000405857 0)
(5.14201 0.00060663 0)
(5.14209 0.000828334 0)
(5.14219 0.00107929 0)
(5.14232 0.00136884 0)
(5.14248 0.00170769 0)
(5.14269 0.00210845 0)
(5.14295 0.00258596 0)
(5.14326 0.00315784 0)
(5.14364 0.00384516 0)
(5.1441 0.00467326 0)
(5.14467 0.00567262 0)
(5.14536 0.00687997 0)
(5.14619 0.00833957 0)
(5.1472 0.0101049 0)
(5.14842 0.0122408 0)
(5.14991 0.0148254 0)
(5.1517 0.0179532 0)
(5.15388 0.0217388 0)
(5.15652 0.0263201 0)
(5.15973 0.0318655 0)
(5.1636 0.0385736 0)
(5.16835 0.046698 0)
(5.17398 0.0565113 0)
(5.18118 0.0684205 0)
(5.18898 0.082757 0)
(5.20107 0.100177 0)
(5.20903 0.121329 0)
(5.23622 0.145769 0)
(5.22685 0.180257 0)
(5.31582 0.204352 0)
(5.20414 0.284361 0)
(5.52596 0.247437 0)
(5.05538 0.511345 0)
(5.98941 0.20642 0)
(4.80075 0.961725 0)
(6.65031 0.0942029 0)
(4.62711 1.53338 0)
(7.31311 0.0108182 0)
(4.58399 2.15923 0)
(7.97602 0.0924482 0)
(4.80451 2.99791 0)
(8.53901 0.203654 0)
(5.75877 4.31922 0)
(8.78094 0.221171 0)
(7.60487 6.3515 0)
(9.51532 1.07274 0)
(9.89879 7.65105 0)
(11.119 -1.25691 0)
(10.9049 -1.54707 0)
(10.5452 -1.89688 0)
(9.95851 -2.24075 0)
(9.18122 -2.38162 0)
(8.45243 -2.30557 0)
(7.87474 -2.12296 0)
(7.37005 -1.89627 0)
(6.94487 -1.63897 0)
(6.57739 -1.38537 0)
(6.2486 -1.16679 0)
(6.01636 -0.978414 0)
(5.87064 -0.808625 0)
(5.74832 -0.663825 0)
(5.63119 -0.549572 0)
(5.53297 -0.458205 0)
(5.45809 -0.380904 0)
(5.40038 -0.314745 0)
(5.35386 -0.259293 0)
(5.31544 -0.21351 0)
(5.28358 -0.175795 0)
(5.25731 -0.144663 0)
(5.23579 -0.118936 0)
(5.21823 -0.0976851 0)
(5.20394 -0.0801526 0)
(5.19232 -0.0657094 0)
(5.18287 -0.0538276 0)
(5.17518 -0.044065 0)
(5.16893 -0.0360521 0)
(5.16383 -0.0294811 0)
(5.15968 -0.0240967 0)
(5.15631 -0.0196871 0)
(5.15355 -0.0160779 0)
(5.15131 -0.013125 0)
(5.14948 -0.0107095 0)
(5.14799 -0.00873414 0)
(5.14678 -0.0071186 0)
(5.14579 -0.00579689 0)
(5.14499 -0.00471511 0)
(5.14433 -0.00382888 0)
(5.1438 -0.00310164 0)
(5.14337 -0.00250367 0)
(5.14303 -0.00201043 0)
(5.14275 -0.00160141 0)
(5.14253 -0.00125957 0)
(5.14236 -0.00097089 0)
(5.14222 -0.000723508 0)
(5.14213 -0.000507205 0)
(5.14206 -0.000313078 0)
(5.14202 -0.000133344 0)
(5.142 3.91486e-05 0)
(5.14201 0.000211021 0)
(5.14204 0.000388953 0)
(5.1421 0.000579691 0)
(5.14219 0.000790431 0)
(5.1423 0.00102906 0)
(5.14245 0.00130445 0)
(5.14264 0.00162677 0)
(5.14287 0.00200803 0)
(5.14316 0.00246234 0)
(5.14351 0.00300648 0)
(5.14395 0.0036605 0)
(5.14448 0.00444852 0)
(5.14512 0.00539955 0)
(5.1459 0.00654855 0)
(5.14685 0.00793761 0)
(5.14799 0.00961766 0)
(5.14938 0.0116502 0)
(5.15107 0.0141097 0)
(5.15311 0.017086 0)
(5.15559 0.0206881 0)
(5.15859 0.0250465 0)
(5.16222 0.0303222 0)
(5.16662 0.0367011 0)
(5.172 0.044431 0)
(5.17841 0.0537464 0)
(5.1865 0.0651022 0)
(5.19548 0.0786036 0)
(5.20879 0.0954459 0)
(5.21862 0.114667 0)
(5.24731 0.139857 0)
(5.24071 0.167631 0)
(5.33244 0.200459 0)
(5.21969 0.255983 0)
(5.5553 0.252146 0)
(5.05141 0.45533 0)
(6.04059 0.199202 0)
(4.75069 0.91249 0)
(6.65974 -0.00349232 0)
(4.68121 1.53468 0)
(7.08832 -0.204471 0)
(4.84093 2.19214 0)
(7.44844 -0.239717 0)
(5.26708 3.11945 0)
(7.60487 -0.347991 0)
(6.32668 4.5373 0)
(7.79492 -0.338635 0)
(7.91946 6.29297 0)
(8.89569 0.93186 0)
(9.84662 6.71594 0)
(10.9809 -1.14903 0)
(10.7116 -1.39875 0)
(10.447 -1.64347 0)
(10.0122 -1.89178 0)
(9.34277 -2.01604 0)
(8.65311 -1.96603 0)
(8.05147 -1.78889 0)
(7.51593 -1.57403 0)
(7.07752 -1.37623 0)
(6.77011 -1.1827 0)
(6.50614 -1.00096 0)
(6.25198 -0.855883 0)
(6.05338 -0.729254 0)
(5.90619 -0.604687 0)
(5.77487 -0.495195 0)
(5.65014 -0.408945 0)
(5.54108 -0.340974 0)
(5.45393 -0.28476 0)
(5.38769 -0.237048 0)
(5.33778 -0.19657 0)
(5.29952 -0.162496 0)
(5.26947 -0.134015 0)
(5.24547 -0.110329 0)
(5.2261 -0.0907015 0)
(5.21039 -0.0744774 0)
(5.19762 -0.0610939 0)
(5.18723 -0.0500719 0)
(5.17876 -0.0410077 0)
(5.17186 -0.0335623 0)
(5.16624 -0.0274529 0)
(5.16166 -0.0224441 0)
(5.15792 -0.0183404 0)
(5.15487 -0.0149803 0)
(5.15239 -0.0122304 0)
(5.15037 -0.00998046 0)
(5.14872 -0.00814008 0)
(5.14737 -0.00663469 0)
(5.14627 -0.00540292 0)
(5.14538 -0.0043946 0)
(5.14466 -0.00356848 0)
(5.14407 -0.00289056 0)
(5.14359 -0.00233306 0)
(5.14321 -0.00187311 0)
(5.1429 -0.00149165 0)
(5.14266 -0.0011728 0)
(5.14247 -0.000903448 0)
(5.14232 -0.000672522 0)
(5.14221 -0.000470441 0)
(5.14213 -0.000288874 0)
(5.14209 -0.000120545 0)
(5.14207 4.12019e-05 0)
(5.14208 0.0002026 0)
(5.14212 0.000369876 0)
(5.14218 0.000549341 0)
(5.14228 0.000747762 0)
(5.1424 0.000972549 0)
(5.14257 0.00123201 0)
(5.14278 0.00153575 0)
(5.14304 0.00189508 0)
(5.14336 0.00232332 0)
(5.14376 0.00283625 0)
(5.14424 0.00345283 0)
(5.14483 0.00419578 0)
(5.14554 0.00509247 0)
(5.14641 0.00617587 0)
(5.14747 0.00748565 0)
(5.14875 0.00906979 0)
(5.15029 0.0109863 0)
(5.15217 0.0133053 0)
(5.15445 0.0161114 0)
(5.1572 0.0195072 0)
(5.16054 0.0236156 0)
(5.16459 0.0285886 0)
(5.16948 0.0345987 0)
(5.17545 0.041885 0)
(5.1826 0.0506478 0)
(5.19152 0.0613712 0)
(5.20167 0.0739786 0)
(5.21593 0.0900814 0)
(5.2281 0.107393 0)
(5.2566 0.132907 0)
(5.25674 0.154325 0)
(5.34107 0.195115 0)
(5.25064 0.226814 0)
(5.55427 0.257225 0)
(5.10739 0.397987 0)
(6.01858 0.197541 0)
(4.82112 0.870994 0)
(6.57768 -0.110794 0)
(4.8477 1.58134 0)
(6.8607 -0.433402 0)
(5.15138 2.29933 0)
(7.15304 -0.569819 0)
(5.71276 3.28947 0)
(7.30444 -0.790162 0)
(6.78591 4.63745 0)
(7.66296 -0.52581 0)
(8.15751 5.97023 0)
(8.86862 0.97454 0)
(9.69134 5.68052 0)
(10.8495 -1.01136 0)
(10.647 -1.23906 0)
(10.3755 -1.47953 0)
(9.89967 -1.67389 0)
(9.30659 -1.78377 0)
(8.62165 -1.78275 0)
(7.93917 -1.65761 0)
(7.43584 -1.46585 0)
(7.07209 -1.30368 0)
(6.75792 -1.15872 0)
(6.47845 -0.979406 0)
(6.19784 -0.798554 0)
(5.927 -0.65804 0)
(5.72888 -0.548668 0)
(5.61161 -0.454651 0)
(5.54024 -0.374985 0)
(5.4858 -0.310133 0)
(5.43578 -0.257727 0)
(5.38864 -0.214612 0)
(5.3462 -0.178491 0)
(5.30968 -0.148031 0)
(5.2791 -0.122401 0)
(5.25387 -0.100953 0)
(5.23318 -0.0830983 0)
(5.21629 -0.0682965 0)
(5.2025 -0.0560621 0)
(5.19124 -0.0459725 0)
(5.18206 -0.0376664 0)
(5.17458 -0.0308383 0)
(5.16847 -0.0252318 0)
(5.16348 -0.0206328 0)
(5.15942 -0.0168633 0)
(5.1561 -0.0137757 0)
(5.15339 -0.0112481 0)
(5.15119 -0.00917957 0)
(5.14939 -0.00748726 0)
(5.14792 -0.00610274 0)
(5.14672 -0.00496974 0)
(5.14575 -0.00404212 0)
(5.14496 -0.00328204 0)
(5.14432 -0.00265832 0)
(5.1438 -0.00214532 0)
(5.14338 -0.001722 0)
(5.14304 -0.00137086 0)
(5.14278 -0.00107729 0)
(5.14257 -0.000829231 0)
(5.1424 -0.000616425 0)
(5.14229 -0.000430006 0)
(5.1422 -0.000262274 0)
(5.14216 -0.000106517 0)
(5.14214 4.33731e-05 0)
(5.14215 0.000193234 0)
(5.14219 0.000348753 0)
(5.14226 0.000515776 0)
(5.14236 0.000700604 0)
(5.1425 0.000910099 0)
(5.14268 0.00115197 0)
(5.14291 0.00143519 0)
(5.1432 0.00177031 0)
(5.14355 0.00216974 0)
(5.14398 0.00264822 0)
(5.14451 0.00322344 0)
(5.14516 0.00391662 0)
(5.14594 0.00475333 0)
(5.1469 0.00576431 0)
(5.14805 0.00698655 0)
(5.14945 0.00846482 0)
(5.15115 0.0102532 0)
(5.15321 0.0124171 0)
(5.1557 0.0150354 0)
(5.15871 0.0182038 0)
(5.16237 0.0220365 0)
(5.1668 0.0266755 0)
(5.17216 0.03228 0)
(5.17868 0.0390761 0)
(5.18653 0.047237 0)
(5.19621 0.0572485 0)
(5.2075 0.0689258 0)
(5.2225 0.0840816 0)
(5.23723 0.0996779 0)
(5.26444 0.124641 0)
(5.27388 0.141251 0)
(5.34368 0.186382 0)
(5.29277 0.200537 0)
(5.52841 0.255347 0)
(5.21458 0.347917 0)
(5.92931 0.190107 0)
(5.01253 0.837428 0)
(6.40705 -0.220574 0)
(5.10799 1.63272 0)
(6.6212 -0.630581 0)
(5.50498 2.37619 0)
(6.8619 -0.823909 0)
(6.10074 3.40753 0)
(7.08191 -1.00417 0)
(7.09078 4.59217 0)
(7.69728 -0.542004 0)
(8.19859 5.37966 0)
(9.08534 1.07988 0)
(9.62294 4.69485 0)
(10.8328 -0.896684 0)
(10.6024 -1.07983 0)
(10.2277 -1.25729 0)
(9.81133 -1.44302 0)
(9.3075 -1.55056 0)
(8.69311 -1.49886 0)
(8.11786 -1.38357 0)
(7.68168 -1.24683 0)
(7.30935 -1.07826 0)
(6.86771 -0.913237 0)
(6.47223 -0.768575 0)
(6.2478 -0.639461 0)
(6.11404 -0.536124 0)
(5.97971 -0.459584 0)
(5.82787 -0.395822 0)
(5.6849 -0.336656 0)
(5.57004 -0.282658 0)
(5.48274 -0.235432 0)
(5.41596 -0.195305 0)
(5.36383 -0.161713 0)
(5.32238 -0.133735 0)
(5.28897 -0.110453 0)
(5.26183 -0.0910886 0)
(5.23971 -0.0750081 0)
(5.22166 -0.061681 0)
(5.20693 -0.0506592 0)
(5.1949 -0.0415621 0)
(5.18507 -0.0340666 0)
(5.17705 -0.0279004 0)
(5.17049 -0.0228342 0)
(5.16514 -0.0186761 0)
(5.16078 -0.0152666 0)
(5.15721 -0.012473 0)
(5.15431 -0.0101853 0)
(5.15193 -0.00831275 0)
(5.15 -0.00678043 0)
(5.14842 -0.00552661 0)
(5.14713 -0.00450049 0)
(5.14609 -0.00366022 0)
(5.14524 -0.00297167 0)
(5.14454 -0.00240662 0)
(5.14398 -0.00194184 0)
(5.14353 -0.00155822 0)
(5.14317 -0.00123994 0)
(5.14288 -0.000973797 0)
(5.14266 -0.000748831 0)
(5.14248 -0.000555692 0)
(5.14236 -0.000386271 0)
(5.14227 -0.000233546 0)
(5.14222 -9.14417e-05 0)
(5.1422 4.56225e-05 0)
(5.14221 0.000182931 0)
(5.14225 0.000325679 0)
(5.14233 0.000479176 0)
(5.14244 0.000649242 0)
(5.14259 0.000842098 0)
(5.14279 0.00106484 0)
(5.14304 0.00132573 0)
(5.14335 0.00163452 0)
(5.14373 0.00200259 0)
(5.1442 0.00244357 0)
(5.14477 0.00297379 0)
(5.14547 0.00361281 0)
(5.14631 0.00438425 0)
(5.14734 0.00531644 0)
(5.14859 0.00644344 0)
(5.15011 0.00780656 0)
(5.15194 0.00945558 0)
(5.15416 0.0114508 0)
(5.15686 0.0138649 0)
(5.16012 0.016786 0)
(5.16407 0.0203192 0)
(5.16885 0.0245952 0)
(5.17465 0.0297598 0)
(5.18168 0.0360223 0)
(5.19017 0.0435361 0)
(5.20055 0.0527611 0)
(5.2129 0.0634807 0)
(5.22853 0.0774802 0)
(5.24577 0.091608 0)
(5.27132 0.115005 0)
(5.29059 0.128867 0)
(5.34335 0.173251 0)
(5.33819 0.179505 0)
(5.48844 0.241281 0)
(5.3461 0.311372 0)
(5.79451 0.167031 0)
(5.2693 0.811924 0)
(6.20018 -0.324597 0)
(5.37824 1.68521 0)
(6.43455 -0.781628 0)
(5.80408 2.41891 0)
(6.68307 -0.952802 0)
(6.37741 3.41033 0)
(7.06615 -1.0638 0)
(7.25761 4.33611 0)
(7.86683 -0.416829 0)
(8.12199 4.62234 0)
(9.21945 1.14675 0)
(9.68612 3.89261 0)
(10.7184 -0.762983 0)
(10.4758 -0.902158 0)
(10.2239 -1.0809 0)
(9.80589 -1.25039 0)
(9.22648 -1.32479 0)
(8.70845 -1.30134 0)
(8.21342 -1.21191 0)
(7.64142 -1.0826 0)
(7.17767 -0.9355 0)
(6.88481 -0.806499 0)
(6.60492 -0.712792 0)
(6.29707 -0.628274 0)
(6.03752 -0.533578 0)
(5.85891 -0.437629 0)
(5.73308 -0.353956 0)
(5.63482 -0.288624 0)
(5.55319 -0.239577 0)
(5.48343 -0.201 0)
(5.42372 -0.168744 0)
(5.37337 -0.141103 0)