/*--------------------------------*- C++ -*----------------------------------*\
| =========                 |                                                 |
| \\      /  F ield         | OpenFOAM: The Open Source CFD Toolbox           |
|  \\    /   O peration     | Version:  2.4.0                                 |
|   \\  /    A nd           | Web:      www.OpenFOAM.org                      |
|    \\/     M anipulation  |                                                 |
\*---------------------------------------------------------------------------*/
FoamFile
{
    version     2.0;
    format      ascii;
    class       surfaceScalarField;
    location    "0.077";
    object      phi;
}
// * * * * * * * * * * * * * * * * * * * * * * * * * * * * * * * * * * * * * //

dimensions      [0 3 -1 0 0 0 0];

internalField   nonuniform List<scalar> 
34880
(
1.2158e-05
3.42008e-07
1.18568e-05
3.01196e-07
1.157e-05
2.86781e-07
1.12862e-05
2.83841e-07
1.10137e-05
2.72441e-07
1.07572e-05
2.56546e-07
1.05181e-05
2.39102e-07
1.02968e-05
2.21319e-07
1.0093e-05
2.03778e-07
9.90617e-06
1.86802e-07
9.73561e-06
1.70561e-07
9.58047e-06
1.55138e-07
9.43989e-06
1.40569e-07
9.31301e-06
1.26881e-07
9.1989e-06
1.14108e-07
9.0966e-06
1.02298e-07
9.005e-06
9.15936e-08
8.9225e-06
8.24978e-08
8.84452e-06
7.79834e-08
1.89769e-07
8.65475e-06
1.24955e-05
3.4654e-07
1.24494e-05
3.47222e-07
1.23924e-05
3.43783e-07
1.23212e-05
3.55046e-07
1.22379e-05
3.55749e-07
1.21454e-05
3.4905e-07
1.2046e-05
3.38481e-07
1.19418e-05
3.25521e-07
1.18346e-05
3.10976e-07
1.1726e-05
2.95428e-07
1.16173e-05
2.79289e-07
1.15096e-05
2.62847e-07
1.14038e-05
2.4631e-07
1.13008e-05
2.29852e-07
1.12013e-05
2.13644e-07
1.11057e-05
1.97884e-07
1.10144e-05
1.8296e-07
1.09269e-05
1.69952e-07
1.08381e-05
1.66832e-07
2.39083e-07
1.07887e-05
1.25262e-05
3.20311e-07
1.25337e-05
3.39744e-07
1.25359e-05
3.41555e-07
1.25342e-05
3.56796e-07
1.25273e-05
3.62587e-07
1.25156e-05
3.60793e-07
1.24991e-05
3.5501e-07
1.24779e-05
3.46732e-07
1.24521e-05
3.36728e-07
1.2422e-05
3.25571e-07
1.23876e-05
3.13684e-07
1.2349e-05
3.01356e-07
1.23066e-05
2.88789e-07
1.22603e-05
2.76128e-07
1.22104e-05
2.635e-07
1.21573e-05
2.51051e-07
1.2101e-05
2.39186e-07
1.20418e-05
2.29194e-07
1.1979e-05
2.29591e-07
2.69276e-07
1.19488e-05
1.25308e-05
2.89481e-07
1.25492e-05
3.2139e-07
1.2564e-05
3.26695e-07
1.2578e-05
3.42838e-07
1.25901e-05
3.50499e-07
1.26002e-05
3.50715e-07
1.26081e-05
3.47042e-07
1.26139e-05
3.40981e-07
1.26173e-05
3.33267e-07
1.26185e-05
3.24454e-07
1.26172e-05
3.1496e-07
1.26135e-05
3.05078e-07
1.26072e-05
2.95017e-07
1.25984e-05
2.84936e-07
1.25869e-05
2.74975e-07
1.25727e-05
2.65295e-07
1.25555e-05
2.56347e-07
1.25353e-05
2.49402e-07
1.25131e-05
2.51787e-07
2.72648e-07
1.25097e-05
1.253e-05
2.59472e-07
1.25513e-05
3.00134e-07
1.25701e-05
3.07887e-07
1.25889e-05
3.23987e-07
1.2607e-05
3.32388e-07
1.26241e-05
3.33598e-07
1.26401e-05
3.31061e-07
1.26549e-05
3.26252e-07
1.26683e-05
3.19869e-07
1.26803e-05
3.1244e-07
1.26909e-05
3.04368e-07
1.27e-05
2.95937e-07
1.27077e-05
2.87354e-07
1.27138e-05
2.78776e-07
1.27184e-05
2.70352e-07
1.27215e-05
2.62252e-07
1.27229e-05
2.54942e-07
1.27227e-05
2.49534e-07
1.27227e-05
2.51799e-07
2.61684e-07
1.27337e-05
1.25277e-05
2.31727e-07
1.25498e-05
2.7806e-07
1.25702e-05
2.87535e-07
1.2591e-05
3.03169e-07
1.26116e-05
3.11804e-07
1.26316e-05
3.13571e-07
1.26509e-05
3.11758e-07
1.26694e-05
3.0779e-07
1.26869e-05
3.02329e-07
1.27035e-05
2.95875e-07
1.2719e-05
2.88812e-07
1.27335e-05
2.8141e-07
1.2747e-05
2.73867e-07
1.27595e-05
2.66335e-07
1.27709e-05
2.58961e-07
1.27812e-05
2.51912e-07
1.27905e-05
2.45631e-07
1.2799e-05
2.41025e-07
1.28085e-05
2.42346e-07
2.45267e-07
1.28249e-05
1.25253e-05
2.0645e-07
1.25474e-05
2.55931e-07
1.25683e-05
2.66602e-07
1.259e-05
2.81509e-07
1.26117e-05
2.90077e-07
1.26331e-05
2.92153e-07
1.26541e-05
2.90838e-07
1.26744e-05
2.87496e-07
1.26939e-05
2.82746e-07
1.27127e-05
2.77061e-07
1.27308e-05
2.70801e-07
1.27479e-05
2.64221e-07
1.27643e-05
2.57508e-07
1.27798e-05
2.50807e-07
1.27945e-05
2.44258e-07
1.28084e-05
2.38021e-07
1.28216e-05
2.32496e-07
1.28342e-05
2.28376e-07
1.2848e-05
2.28563e-07
2.26815e-07
1.28664e-05
1.2523e-05
1.83437e-07
1.25449e-05
2.3408e-07
1.25659e-05
2.4552e-07
1.25879e-05
2.59531e-07
1.26102e-05
2.67827e-07
1.26323e-05
2.70045e-07
1.2654e-05
2.6908e-07
1.26753e-05
2.66226e-07
1.2696e-05
2.62059e-07
1.2716e-05
2.57018e-07
1.27354e-05
2.5144e-07
1.2754e-05
2.45563e-07
1.2772e-05
2.39561e-07
1.27892e-05
2.33572e-07
1.28058e-05
2.27726e-07
1.28216e-05
2.22172e-07
1.28368e-05
2.17256e-07
1.28517e-05
2.13472e-07
1.28677e-05
2.12568e-07
2.07591e-07
1.2887e-05
1.2521e-05
1.62403e-07
1.25425e-05
2.12639e-07
1.25635e-05
2.24477e-07
1.25856e-05
2.37488e-07
1.2608e-05
2.45365e-07
1.26305e-05
2.47609e-07
1.26526e-05
2.46891e-07
1.26744e-05
2.4443e-07
1.26957e-05
2.40756e-07
1.27165e-05
2.36276e-07
1.27366e-05
2.313e-07
1.27561e-05
2.26048e-07
1.2775e-05
2.20681e-07
1.27933e-05
2.15327e-07
1.28109e-05
2.10107e-07
1.28279e-05
2.05157e-07
1.28444e-05
2.00762e-07
1.28606e-05
1.97236e-07
1.28778e-05
1.95367e-07
1.88137e-07
1.28973e-05
1.25193e-05
1.43072e-07
1.25403e-05
1.91646e-07
1.25613e-05
2.03545e-07
1.25833e-05
2.1549e-07
1.26058e-05
2.22849e-07
1.26283e-05
2.25038e-07
1.26507e-05
2.24495e-07
1.26728e-05
2.2236e-07
1.26944e-05
2.19117e-07
1.27156e-05
2.15137e-07
1.27362e-05
2.10706e-07
1.27562e-05
2.06023e-07
1.27756e-05
2.01238e-07
1.27945e-05
1.96467e-07
1.28128e-05
1.9182e-07
1.28305e-05
1.87418e-07
1.28478e-05
1.83486e-07
1.28648e-05
1.80181e-07
1.28827e-05
1.77501e-07
1.68717e-07
1.29021e-05
1.25179e-05
1.25193e-07
1.25384e-05
1.71095e-07
1.25592e-05
1.82744e-07
1.25811e-05
1.93584e-07
1.26036e-05
2.00353e-07
1.26262e-05
2.0243e-07
1.26487e-05
2.02014e-07
1.26709e-05
2.00158e-07
1.26927e-05
1.97301e-07
1.27141e-05
1.9378e-07
1.27349e-05
1.89852e-07
1.27553e-05
1.857e-07
1.2775e-05
1.81457e-07
1.27943e-05
1.7723e-07
1.2813e-05
1.73118e-07
1.28312e-05
1.69225e-07
1.28489e-05
1.65718e-07
1.28665e-05
1.62618e-07
1.28847e-05
1.59287e-07
1.49472e-07
1.2904e-05
1.25166e-05
1.08545e-07
1.25368e-05
1.50964e-07
1.25574e-05
1.62075e-07
1.25792e-05
1.71781e-07
1.26017e-05
1.77906e-07
1.26243e-05
1.79831e-07
1.26468e-05
1.7951e-07
1.26691e-05
1.77903e-07
1.26909e-05
1.75403e-07
1.27124e-05
1.7231e-07
1.27334e-05
1.68857e-07
1.27539e-05
1.65207e-07
1.27739e-05
1.61478e-07
1.27933e-05
1.57766e-07
1.28123e-05
1.54161e-07
1.28308e-05
1.50749e-07
1.28488e-05
1.47641e-07
1.28667e-05
1.44746e-07
1.28851e-05
1.40922e-07
1.3048e-07
1.29041e-05
1.25156e-05
9.29312e-08
1.25354e-05
1.31217e-07
1.25559e-05
1.41531e-07
1.25776e-05
1.50078e-07
1.26e-05
1.55517e-07
1.26226e-05
1.5726e-07
1.26451e-05
1.57012e-07
1.26673e-05
1.55633e-07
1.26893e-05
1.5347e-07
1.27108e-05
1.50788e-07
1.27318e-05
1.4779e-07
1.27524e-05
1.44621e-07
1.27725e-05
1.41387e-07
1.27921e-05
1.38171e-07
1.28112e-05
1.35052e-07
1.28299e-05
1.321e-07
1.28481e-05
1.29377e-07
1.28662e-05
1.26697e-07
1.28846e-05
1.22529e-07
1.11786e-07
1.29033e-05
1.25148e-05
7.8179e-08
1.25342e-05
1.11814e-07
1.25546e-05
1.21097e-07
1.25762e-05
1.28466e-07
1.25985e-05
1.33185e-07
1.26211e-05
1.34721e-07
1.26435e-05
1.34532e-07
1.26658e-05
1.33368e-07
1.26877e-05
1.31529e-07
1.27093e-05
1.29244e-07
1.27304e-05
1.2669e-07
1.2751e-05
1.2399e-07
1.27712e-05
1.21236e-07
1.27908e-05
1.18502e-07
1.281e-05
1.15855e-07
1.28288e-05
1.13351e-07
1.28472e-05
1.11003e-07
1.28653e-05
1.08557e-07
1.28836e-05
1.04184e-07
9.34085e-08
1.2902e-05
1.2514e-05
6.41335e-08
1.25331e-05
9.27117e-08
1.25535e-05
1.00761e-07
1.2575e-05
1.06932e-07
1.25973e-05
1.10905e-07
1.26198e-05
1.12215e-07
1.26423e-05
1.12072e-07
1.26645e-05
1.11114e-07
1.26864e-05
1.09591e-07
1.2708e-05
1.07696e-07
1.27291e-05
1.05577e-07
1.27498e-05
1.03337e-07
1.27699e-05
1.01056e-07
1.27896e-05
9.87948e-08
1.28089e-05
9.661e-08
1.28277e-05
9.45437e-08
1.28461e-05
9.25707e-08
1.28643e-05
9.03824e-08
1.28825e-05
8.59354e-08
7.53565e-08
1.29006e-05
1.25135e-05
5.06555e-08
1.25323e-05
7.3862e-08
1.25526e-05
8.05075e-08
1.2574e-05
8.54653e-08
1.25963e-05
8.86694e-08
1.26188e-05
8.97365e-08
1.26412e-05
8.96325e-08
1.26634e-05
8.88728e-08
1.26854e-05
8.76607e-08
1.27069e-05
8.61502e-08
1.2728e-05
8.44607e-08
1.27487e-05
8.2677e-08
1.27689e-05
8.08622e-08
1.27886e-05
7.90682e-08
1.28079e-05
7.73398e-08
1.28267e-05
7.57069e-08
1.28452e-05
7.41105e-08
1.28633e-05
7.22089e-08
1.28815e-05
6.78075e-08
5.76281e-08
1.28992e-05
1.2513e-05
3.76177e-08
1.25317e-05
5.52164e-08
1.25519e-05
6.03207e-08
1.25733e-05
6.40516e-08
1.25955e-05
6.64698e-08
1.26179e-05
6.72814e-08
1.26404e-05
6.72092e-08
1.26626e-05
6.66437e-08
1.26845e-05
6.57383e-08
1.2706e-05
6.46092e-08
1.27272e-05
6.33467e-08
1.27478e-05
6.20153e-08
1.2768e-05
6.06639e-08
1.27877e-05
5.93332e-08
1.2807e-05
5.80577e-08
1.28259e-05
5.68558e-08
1.28443e-05
5.56418e-08
1.28625e-05
5.40578e-08
1.28805e-05
4.98125e-08
4.02178e-08
1.28979e-05
1.25127e-05
2.49024e-08
1.25312e-05
3.67247e-08
1.25513e-05
4.01846e-08
1.25727e-05
4.26781e-08
1.25949e-05
4.42974e-08
1.26173e-05
4.48439e-08
1.26397e-05
4.47986e-08
1.26619e-05
4.4424e-08
1.26839e-05
4.38227e-08
1.27054e-05
4.30728e-08
1.27265e-05
4.22354e-08
1.27472e-05
4.13545e-08
1.27674e-05
4.04644e-08
1.27871e-05
3.95948e-08
1.28064e-05
3.87703e-08
1.28252e-05
3.79993e-08
1.28437e-05
3.71754e-08
1.28618e-05
3.59412e-08
1.28797e-05
3.19536e-08
2.31166e-08
1.28968e-05
1.25125e-05
1.23984e-08
1.25309e-05
1.8336e-08
1.2551e-05
2.00827e-08
1.25723e-05
2.13313e-08
1.25945e-05
2.21431e-08
1.26169e-05
2.24182e-08
1.26393e-05
2.23967e-08
1.26615e-05
2.22107e-08
1.26834e-05
2.1912e-08
1.2705e-05
2.15401e-08
1.27261e-05
2.11265e-08
1.27467e-05
2.06949e-08
1.27669e-05
2.02651e-08
1.27867e-05
1.98555e-08
1.2806e-05
1.94811e-08
1.28248e-05
1.91419e-08
1.28433e-05
1.87169e-08
1.28613e-05
1.7865e-08
1.28791e-05
1.42285e-08
6.31639e-09
1.28959e-05
1.25124e-05
-9.09794e-13
1.25307e-05
-1.46576e-12
1.25508e-05
-1.76909e-12
1.25722e-05
-1.92211e-12
1.25943e-05
-1.95812e-12
1.26167e-05
-1.66383e-12
1.26391e-05
-8.73312e-13
1.26613e-05
7.39757e-13
1.26832e-05
3.71679e-12
1.27048e-05
9.19978e-12
1.27259e-05
1.89549e-11
1.27465e-05
3.61905e-11
1.27667e-05
6.59006e-11
1.27865e-05
1.15703e-10
1.28057e-05
1.91254e-10
1.28246e-05
2.85777e-10
1.2843e-05
2.69255e-10
1.28611e-05
-1.68584e-10
1.28787e-05
-3.36843e-09
-1.01902e-08
1.28952e-05
1.25124e-05
-1.24002e-08
1.25307e-05
-1.83389e-08
1.25508e-05
-2.00862e-08
1.25722e-05
-2.13352e-08
1.25943e-05
-2.2147e-08
1.26167e-05
-2.24215e-08
1.26391e-05
-2.23984e-08
1.26613e-05
-2.22092e-08
1.26832e-05
-2.19046e-08
1.27048e-05
-2.15217e-08
1.27259e-05
-2.10887e-08
1.27465e-05
-2.06228e-08
1.27667e-05
-2.01335e-08
1.27865e-05
-1.96243e-08
1.28057e-05
-1.90984e-08
1.28246e-05
-1.85679e-08
1.2843e-05
-1.81663e-08
1.2861e-05
-1.81592e-08
1.28785e-05
-2.08447e-08
-2.64073e-08
1.28947e-05
1.25125e-05
-2.49042e-08
1.25309e-05
-3.67277e-08
1.2551e-05
-4.01881e-08
1.25723e-05
-4.26819e-08
1.25945e-05
-4.43013e-08
1.26169e-05
-4.48472e-08
1.26393e-05
-4.48004e-08
1.26615e-05
-4.44225e-08
1.26834e-05
-4.38154e-08
1.2705e-05
-4.30547e-08
1.27261e-05
-4.21979e-08
1.27467e-05
-4.12828e-08
1.27669e-05
-4.03337e-08
1.27867e-05
-3.93648e-08
1.2806e-05
-3.83876e-08
1.28248e-05
-3.74182e-08
1.28432e-05
-3.65888e-08
1.28612e-05
-3.61075e-08
1.28785e-05
-3.82075e-08
-4.23362e-08
1.28945e-05
1.25127e-05
-3.76195e-08
1.25312e-05
-5.52193e-08
1.25513e-05
-6.03242e-08
1.25727e-05
-6.40554e-08
1.25949e-05
-6.64737e-08
1.26173e-05
-6.72847e-08
1.26397e-05
-6.7211e-08
1.2662e-05
-6.66423e-08
1.26839e-05
-6.57311e-08
1.27054e-05
-6.45913e-08
1.27265e-05
-6.33097e-08
1.27472e-05
-6.19446e-08
1.27674e-05
-6.05347e-08
1.27871e-05
-5.91049e-08
1.28064e-05
-5.76749e-08
1.28252e-05
-5.62634e-08
1.28436e-05
-5.49967e-08
1.28616e-05
-5.40135e-08
1.28788e-05
-5.54622e-08
-5.79734e-08
1.28944e-05
1.2513e-05
-5.06573e-08
1.25317e-05
-7.38649e-08
1.25519e-05
-8.0511e-08
1.25733e-05
-8.5469e-08
1.25955e-05
-8.86733e-08
1.26179e-05
-8.97399e-08
1.26404e-05
-8.96344e-08
1.26626e-05
-8.88715e-08
1.26845e-05
-8.76538e-08
1.2706e-05
-8.61327e-08
1.27272e-05
-8.44246e-08
1.27478e-05
-8.26077e-08
1.2768e-05
-8.07352e-08
1.27878e-05
-7.88426e-08
1.2807e-05
-7.69572e-08
1.28259e-05
-7.50995e-08
1.28443e-05
-7.3386e-08
1.28621e-05
-7.18754e-08
1.28793e-05
-7.26117e-08
-7.33093e-08
1.28946e-05
1.25135e-05
-6.41353e-08
1.25323e-05
-9.27146e-08
1.25526e-05
-1.00765e-07
1.2574e-05
-1.06936e-07
1.25963e-05
-1.10909e-07
1.26188e-05
-1.12218e-07
1.26412e-05
-1.12074e-07
1.26634e-05
-1.11113e-07
1.26854e-05
-1.09584e-07
1.27069e-05
-1.07679e-07
1.2728e-05
-1.05541e-07
1.27487e-05
-1.0327e-07
1.27689e-05
-1.00931e-07
1.27886e-05
-9.85726e-08
1.28079e-05
-9.6228e-08
1.28267e-05
-9.39189e-08
1.28451e-05
-9.17485e-08
1.28629e-05
-8.96868e-08
1.28799e-05
-8.96533e-08
-8.83256e-08
1.28949e-05
1.2514e-05
-7.81807e-08
1.25331e-05
-1.11817e-07
1.25535e-05
-1.21101e-07
1.2575e-05
-1.28469e-07
1.25973e-05
-1.33189e-07
1.26198e-05
-1.34724e-07
1.26423e-05
-1.34534e-07
1.26645e-05
-1.33367e-07
1.26864e-05
-1.31523e-07
1.2708e-05
-1.29228e-07
1.27291e-05
-1.26656e-07
1.27498e-05
-1.23924e-07
1.27699e-05
-1.21115e-07
1.27897e-05
-1.18285e-07
1.28089e-05
-1.15475e-07
1.28277e-05
-1.12707e-07
1.2846e-05
-1.10069e-07
1.28638e-05
-1.07434e-07
1.28807e-05
-1.06576e-07
-1.02993e-07
1.28953e-05
1.25148e-05
-9.2933e-08
1.25342e-05
-1.3122e-07
1.25546e-05
-1.41534e-07
1.25762e-05
-1.50082e-07
1.25985e-05
-1.5552e-07
1.26211e-05
-1.57263e-07
1.26435e-05
-1.57014e-07
1.26658e-05
-1.55632e-07
1.26878e-05
-1.53464e-07
1.27093e-05
-1.50772e-07
1.27304e-05
-1.47758e-07
1.2751e-05
-1.44558e-07
1.27712e-05
-1.4127e-07
1.27909e-05
-1.37959e-07
1.28101e-05
-1.34674e-07
1.28288e-05
-1.31438e-07
1.2847e-05
-1.2832e-07
1.28647e-05
-1.25092e-07
1.28815e-05
-1.23356e-07
-1.17267e-07
1.28957e-05
1.25156e-05
-1.08547e-07
1.25354e-05
-1.50967e-07
1.25559e-05
-1.62079e-07
1.25776e-05
-1.71785e-07
1.26e-05
-1.77909e-07
1.26226e-05
-1.79834e-07
1.26451e-05
-1.79512e-07
1.26673e-05
-1.77902e-07
1.26893e-05
-1.75397e-07
1.27108e-05
-1.72296e-07
1.27319e-05
-1.68827e-07
1.27524e-05
-1.65147e-07
1.27725e-05
-1.61366e-07
1.27921e-05
-1.57561e-07
1.28112e-05
-1.53788e-07
1.28299e-05
-1.50069e-07
1.2848e-05
-1.46455e-07
1.28655e-05
-1.42616e-07
1.28821e-05
-1.39951e-07
-1.31083e-07
1.28959e-05
1.25166e-05
-1.25195e-07
1.25368e-05
-1.71098e-07
1.25574e-05
-1.82747e-07
1.25792e-05
-1.93588e-07
1.26017e-05
-2.00356e-07
1.26243e-05
-2.02434e-07
1.26468e-05
-2.02016e-07
1.26691e-05
-2.00158e-07
1.26909e-05
-1.97297e-07
1.27124e-05
-1.93767e-07
1.27334e-05
-1.89823e-07
1.27539e-05
-1.85643e-07
1.27739e-05
-1.8135e-07
1.27934e-05
-1.77032e-07
1.28123e-05
-1.72751e-07
1.28308e-05
-1.68532e-07
1.28487e-05
-1.64403e-07
1.28661e-05
-1.59934e-07
1.28824e-05
-1.56288e-07
-1.44347e-07
1.28957e-05
1.25179e-05
-1.43074e-07
1.25384e-05
-1.91648e-07
1.25592e-05
-2.03548e-07
1.25811e-05
-2.15494e-07
1.26036e-05
-2.22853e-07
1.26262e-05
-2.25042e-07
1.26487e-05
-2.24497e-07
1.26709e-05
-2.2236e-07
1.26927e-05
-2.19112e-07
1.27141e-05
-2.15125e-07
1.27349e-05
-2.10679e-07
1.27553e-05
-2.0597e-07
1.27751e-05
-2.01137e-07
1.27943e-05
-1.96278e-07
1.2813e-05
-1.91463e-07
1.28312e-05
-1.86716e-07
1.28488e-05
-1.8205e-07
1.28658e-05
-1.76934e-07
1.28818e-05
-1.72255e-07
-1.56927e-07
1.28944e-05
1.25193e-05
-1.62405e-07
1.25403e-05
-2.12641e-07
1.25613e-05
-2.2448e-07
1.25833e-05
-2.37491e-07
1.26058e-05
-2.45369e-07
1.26283e-05
-2.47613e-07
1.26507e-05
-2.46893e-07
1.26728e-05
-2.4443e-07
1.26944e-05
-2.40753e-07
1.27156e-05
-2.36265e-07
1.27362e-05
-2.31275e-07
1.27562e-05
-2.25999e-07
1.27757e-05
-2.20587e-07
1.27945e-05
-2.15149e-07
1.28128e-05
-2.09763e-07
1.28306e-05
-2.04455e-07
1.28477e-05
-1.99218e-07
1.28642e-05
-1.93437e-07
1.28796e-05
-1.87671e-07
-1.6863e-07
1.28913e-05
1.2521e-05
-1.83439e-07
1.25425e-05
-2.34082e-07
1.25635e-05
-2.45523e-07
1.25856e-05
-2.59535e-07
1.2608e-05
-2.6783e-07
1.26305e-05
-2.70048e-07
1.26526e-05
-2.69082e-07
1.26744e-05
-2.66226e-07
1.26957e-05
-2.62056e-07
1.27165e-05
-2.57008e-07
1.27366e-05
-2.51418e-07
1.27561e-05
-2.45518e-07
1.2775e-05
-2.39475e-07
1.27933e-05
-2.33406e-07
1.28109e-05
-2.27398e-07
1.28279e-05
-2.2148e-07
1.28444e-05
-2.15628e-07
1.28601e-05
-2.09158e-07
1.28746e-05
-2.02251e-07
-1.79169e-07
1.28852e-05
1.2523e-05
-2.06452e-07
1.25449e-05
-2.55933e-07
1.25659e-05
-2.66605e-07
1.25879e-05
-2.81512e-07
1.26102e-05
-2.90081e-07
1.26323e-05
-2.92156e-07
1.2654e-05
-2.9084e-07
1.26753e-05
-2.87496e-07
1.2696e-05
-2.82744e-07
1.2716e-05
-2.77052e-07
1.27354e-05
-2.70781e-07
1.27541e-05
-2.6418e-07
1.2772e-05
-2.57429e-07
1.27893e-05
-2.50655e-07
1.28058e-05
-2.43951e-07
1.28217e-05
-2.37349e-07
1.28369e-05
-2.30816e-07
1.28513e-05
-2.23616e-07
1.28646e-05
-2.1551e-07
-1.8809e-07
1.28735e-05
1.25253e-05
-2.31729e-07
1.25474e-05
-2.78062e-07
1.25683e-05
-2.87538e-07
1.259e-05
-3.03172e-07
1.26117e-05
-3.11807e-07
1.26331e-05
-3.13574e-07
1.26541e-05
-3.1176e-07
1.26744e-05
-3.07791e-07
1.26939e-05
-3.02327e-07
1.27127e-05
-2.95868e-07
1.27308e-05
-2.88795e-07
1.2748e-05
-2.81375e-07
1.27643e-05
-2.73797e-07
1.27799e-05
-2.66198e-07
1.27946e-05
-2.58678e-07
1.28085e-05
-2.51274e-07
1.28216e-05
-2.43943e-07
1.2834e-05
-2.35932e-07
1.2845e-05
-2.26559e-07
-1.94601e-07
1.28515e-05
1.25277e-05
-2.59473e-07
1.25498e-05
-3.00136e-07
1.25702e-05
-3.07889e-07
1.2591e-05
-3.2399e-07
1.26116e-05
-3.32391e-07
1.26316e-05
-3.33601e-07
1.26509e-05
-3.31064e-07
1.26694e-05
-3.26253e-07
1.26869e-05
-3.19868e-07
1.27035e-05
-3.12434e-07
1.2719e-05
-3.04354e-07
1.27336e-05
-2.95907e-07
1.2747e-05
-2.87293e-07
1.27595e-05
-2.78656e-07
1.27709e-05
-2.70099e-07
1.27813e-05
-2.61665e-07
1.27907e-05
-2.53306e-07
1.2799e-05
-2.44286e-07
1.2806e-05
-2.33526e-07
-1.97119e-07
1.28085e-05
1.253e-05
-2.89483e-07
1.25513e-05
-3.21392e-07
1.25701e-05
-3.26698e-07
1.25889e-05
-3.42841e-07
1.2607e-05
-3.50502e-07
1.26241e-05
-3.50718e-07
1.26401e-05
-3.47044e-07
1.26549e-05
-3.40982e-07
1.26683e-05
-3.33267e-07
1.26803e-05
-3.2445e-07
1.26909e-05
-3.14948e-07
1.27e-05
-3.05053e-07
1.27077e-05
-2.94967e-07
1.27139e-05
-2.84835e-07
1.27185e-05
-2.74758e-07
1.27216e-05
-2.6478e-07
1.27232e-05
-2.54849e-07
1.27232e-05
-2.44293e-07
1.27215e-05
-2.31831e-07
-1.91949e-07
1.27163e-05
1.25308e-05
-3.20312e-07
1.25492e-05
-3.39746e-07
1.2564e-05
-3.41557e-07
1.2578e-05
-3.56799e-07
1.25901e-05
-3.6259e-07
1.26002e-05
-3.60796e-07
1.26081e-05
-3.55012e-07
1.26139e-05
-3.46733e-07
1.26173e-05
-3.36728e-07
1.26185e-05
-3.25568e-07
1.26172e-05
-3.13675e-07
1.26135e-05
-3.01337e-07
1.26072e-05
-2.8875e-07
1.25985e-05
-2.76048e-07
1.2587e-05
-2.63328e-07
1.25729e-05
-2.50637e-07
1.2556e-05
-2.37948e-07
1.25364e-05
-2.2474e-07
1.25146e-05
-2.09966e-07
-1.70352e-07
1.2493e-05
1.25262e-05
-3.46541e-07
1.25337e-05
-3.47223e-07
1.25359e-05
-3.43785e-07
1.25342e-05
-3.55048e-07
1.25273e-05
-3.55751e-07
1.25156e-05
-3.49052e-07
1.24991e-05
-3.38483e-07
1.24779e-05
-3.25522e-07
1.24521e-05
-3.10977e-07
1.2422e-05
-2.95426e-07
1.23876e-05
-2.79284e-07
1.23491e-05
-2.62835e-07
1.23066e-05
-2.46284e-07
1.22603e-05
-2.29799e-07
1.22105e-05
-2.13529e-07
1.21575e-05
-1.97606e-07
1.21017e-05
-1.8212e-07
1.20438e-05
-1.66831e-07
1.19851e-05
-1.51259e-07
-1.21077e-07
1.19358e-05
1.24955e-05
-3.42009e-07
1.24494e-05
-3.01197e-07
1.23924e-05
-2.86782e-07
1.23212e-05
-2.83842e-07
1.22379e-05
-2.72443e-07
1.21454e-05
-2.56548e-07
1.2046e-05
-2.39103e-07
1.19418e-05
-2.2132e-07
1.18346e-05
-2.03779e-07
1.1726e-05
-1.86802e-07
1.16173e-05
-1.7056e-07
1.15096e-05
-1.55133e-07
1.14039e-05
-1.40557e-07
1.13009e-05
-1.26857e-07
1.12014e-05
-1.14055e-07
1.1106e-05
-1.02171e-07
1.10151e-05
-9.12093e-08
1.09293e-05
-8.10197e-08
1.08493e-05
-7.12891e-08
-5.76925e-08
1.07859e-05
1.2158e-05
1.18568e-05
1.157e-05
1.12862e-05
1.10137e-05
1.07572e-05
1.05181e-05
1.02968e-05
1.0093e-05
9.90617e-06
9.73561e-06
9.58048e-06
9.43992e-06
9.31307e-06
9.19901e-06
9.09684e-06
9.00563e-06
8.92461e-06
8.85332e-06
8.79563e-06
8.44944e-06
9.28773e-09
1.96019e-07
8.23123e-06
-2.56395e-08
2.4385e-07
8.01637e-06
-7.30382e-08
2.87896e-07
7.84736e-06
-1.15358e-07
2.84363e-07
7.72613e-06
-1.49408e-07
2.70642e-07
7.64655e-06
-1.77669e-07
2.57243e-07
7.59959e-06
-1.99978e-07
2.46936e-07
7.57595e-06
-2.16854e-07
2.40488e-07
7.56808e-06
-2.29316e-07
2.37186e-07
7.57048e-06
-2.38457e-07
2.3606e-07
7.57942e-06
-2.45351e-07
2.36407e-07
7.59254e-06
-2.50908e-07
2.37786e-07
7.60837e-06
-2.5582e-07
2.39986e-07
7.62601e-06
-2.60545e-07
2.42908e-07
7.64485e-06
-2.6537e-07
2.46523e-07
7.66448e-06
-2.70524e-07
2.50892e-07
7.6846e-06
-2.76166e-07
2.56047e-07
7.705e-06
-2.82391e-07
2.6199e-07
7.72553e-06
-2.89291e-07
2.6876e-07
7.74607e-06
-2.96948e-07
2.76407e-07
7.76654e-06
-3.05418e-07
2.84951e-07
7.78685e-06
-3.14776e-07
2.94457e-07
7.80695e-06
-3.25124e-07
3.05027e-07
7.82677e-06
-3.36524e-07
3.167e-07
7.84628e-06
-3.49009e-07
3.29493e-07
7.86547e-06
-3.62613e-07
3.43431e-07
7.88428e-06
-3.77389e-07
3.58574e-07
7.90269e-06
-3.93379e-07
3.74967e-07
7.92067e-06
-4.10596e-07
3.9261e-07
7.93821e-06
-4.29059e-07
4.11522e-07
7.95527e-06
-4.48795e-07
4.31733e-07
7.97183e-06
-4.69807e-07
4.53244e-07
7.98787e-06
-4.92098e-07
4.76058e-07
8.00336e-06
-5.15662e-07
5.00169e-07
8.01828e-06
-5.40482e-07
5.25562e-07
8.0326e-06
-5.66534e-07
5.52215e-07
8.04629e-06
-5.93778e-07
5.80089e-07
8.05931e-06
-6.22163e-07
6.09135e-07
8.07165e-06
-6.51624e-07
6.39287e-07
8.08326e-06
-6.82078e-07
6.70464e-07
8.09413e-06
-7.13434e-07
7.0257e-07
8.10421e-06
-7.45584e-07
7.35498e-07
8.1135e-06
-7.78413e-07
7.69128e-07
8.12196e-06
-8.11799e-07
8.03334e-07
8.12959e-06
-8.45612e-07
8.37985e-07
8.13636e-06
-8.79724e-07
8.72948e-07
8.14228e-06
-9.14003e-07
9.08088e-07
8.14732e-06
-9.48321e-07
9.43273e-07
8.1515e-06
-9.82551e-07
9.78375e-07
8.1548e-06
-1.01657e-06
1.01327e-06
8.15724e-06
-1.05026e-06
1.04782e-06
8.15881e-06
-1.0835e-06
1.08193e-06
8.15952e-06
-1.11619e-06
1.11547e-06
8.1594e-06
-1.14822e-06
1.14835e-06
8.15844e-06
-1.17949e-06
1.18045e-06
8.15667e-06
-1.20992e-06
1.21169e-06
8.15412e-06
-1.23942e-06
1.24198e-06
8.15079e-06
-1.26791e-06
1.27123e-06
8.14673e-06
-1.29533e-06
1.2994e-06
8.14196e-06
-1.32163e-06
1.3264e-06
8.13651e-06
-1.34674e-06
1.35219e-06
8.13041e-06
-1.37064e-06
1.37674e-06
8.12371e-06
-1.39329e-06
1.39999e-06
8.11644e-06
-1.41467e-06
1.42194e-06
8.10864e-06
-1.43477e-06
1.44257e-06
8.10035e-06
-1.45358e-06
1.46188e-06
8.0916e-06
-1.47112e-06
1.47986e-06
8.08245e-06
-1.48739e-06
1.49654e-06
8.07294e-06
-1.50242e-06
1.51193e-06
8.0631e-06
-1.51624e-06
1.52608e-06
8.05298e-06
-1.52889e-06
1.53901e-06
8.04262e-06
-1.54041e-06
1.55077e-06
8.03206e-06
-1.55086e-06
1.56142e-06
8.02134e-06
-1.56029e-06
1.57101e-06
8.01049e-06
-1.56877e-06
1.57962e-06
7.99954e-06
-1.57635e-06
1.5873e-06
7.98853e-06
-1.58313e-06
1.59413e-06
7.97749e-06
-1.58915e-06
1.60019e-06
7.96645e-06
-1.59451e-06
1.60555e-06
7.95542e-06
-1.59927e-06
1.6103e-06
7.94443e-06
-1.60352e-06
1.61451e-06
7.9335e-06
-1.60733e-06
1.61826e-06
7.92263e-06
-1.61078e-06
1.62164e-06
7.91185e-06
-1.61394e-06
1.62472e-06
7.90115e-06
-1.61688e-06
1.62757e-06
7.89054e-06
-1.61967e-06
1.63027e-06
7.88003e-06
-1.62237e-06
1.63288e-06
7.86962e-06
-1.62505e-06
1.63547e-06
7.85929e-06
-1.62776e-06
1.63809e-06
7.84904e-06
-1.63056e-06
1.6408e-06
7.83886e-06
-1.63347e-06
1.64364e-06
7.82874e-06
-1.63655e-06
1.64666e-06
7.81868e-06
-1.63982e-06
1.64989e-06
7.80864e-06
-1.64331e-06
1.65335e-06
7.79861e-06
-1.64704e-06
1.65706e-06
7.78858e-06
-1.65102e-06
1.66104e-06
7.77853e-06
-1.65525e-06
1.6653e-06
7.76842e-06
-1.65973e-06
1.66983e-06
7.75825e-06
-1.66446e-06
1.67463e-06
7.74798e-06
-1.66941e-06
1.67968e-06
7.73758e-06
-1.67458e-06
1.68497e-06
7.72704e-06
-1.67992e-06
1.69046e-06
7.71633e-06
-1.68541e-06
1.69613e-06
7.70541e-06
-1.69101e-06
1.70193e-06
7.69426e-06
-1.69668e-06
1.70783e-06
7.68285e-06
-1.70237e-06
1.71378e-06
7.67115e-06
-1.70803e-06
1.71973e-06
7.65912e-06
-1.7136e-06
1.72563e-06
7.64673e-06
-1.71902e-06
1.73141e-06
7.63396e-06
-1.72424e-06
1.73702e-06
7.62076e-06
-1.72919e-06
1.74239e-06
7.60711e-06
-1.7338e-06
1.74746e-06
7.59295e-06
-1.73801e-06
1.75217e-06
7.57827e-06
-1.74173e-06
1.75643e-06
7.56301e-06
-1.74491e-06
1.76018e-06
7.54714e-06
-1.74747e-06
1.76335e-06
7.53063e-06
-1.74934e-06
1.76586e-06
7.51343e-06
-1.75044e-06
1.76764e-06
7.49551e-06
-1.75069e-06
1.76862e-06
7.47683e-06
-1.75004e-06
1.76872e-06
7.45737e-06
-1.74839e-06
1.76786e-06
7.4371e-06
-1.74568e-06
1.76596e-06
7.416e-06
-1.74183e-06
1.76294e-06
7.39407e-06
-1.73678e-06
1.75872e-06
7.37131e-06
-1.73043e-06
1.7532e-06
7.34774e-06
-1.72272e-06
1.7463e-06
7.32341e-06
-1.71355e-06
1.73789e-06
7.29839e-06
-1.70284e-06
1.72787e-06
7.27277e-06
-1.69047e-06
1.7161e-06
7.2467e-06
-1.67632e-06
1.70241e-06
7.22034e-06
-1.66025e-06
1.68662e-06
7.19391e-06
-1.64208e-06
1.66852e-06
7.16764e-06
-1.6216e-06
1.64788e-06
7.14182e-06
-1.5986e-06
1.62443e-06
7.11674e-06
-1.57281e-06
1.59789e-06
7.0927e-06
-1.54394e-06
1.56799e-06
7.06999e-06
-1.51172e-06
1.53445e-06
7.04885e-06
-1.47588e-06
1.49702e-06
7.0295e-06
-1.43616e-06
1.45551e-06
7.01208e-06
-1.39237e-06
1.4098e-06
6.99665e-06
-1.34441e-06
1.35983e-06
6.98322e-06
-1.29223e-06
1.30566e-06
6.97171e-06
-1.23592e-06
1.24743e-06
6.96197e-06
-1.17562e-06
1.18536e-06
6.95383e-06
-1.1116e-06
1.11976e-06
6.94704e-06
-1.04419e-06
1.05098e-06
6.94137e-06
-9.73768e-07
9.79436e-07
6.93657e-06
-9.00759e-07
9.05559e-07
6.93239e-06
-8.25604e-07
8.29784e-07
6.9286e-06
-7.48743e-07
7.52532e-07
6.92499e-06
-6.70597e-07
6.74204e-07
6.92138e-06
-5.91551e-07
5.95162e-07
6.9176e-06
-5.11951e-07
5.15722e-07
6.91354e-06
-4.32087e-07
4.36146e-07
6.90909e-06
-3.52189e-07
3.56639e-07
6.90416e-06
-2.72422e-07
2.77343e-07
6.89871e-06
-1.92882e-07
1.98332e-07
6.89269e-06
-1.13593e-07
1.19614e-07
6.88606e-06
-3.45212e-08
4.11405e-08
6.87882e-06
4.44973e-08
-3.7256e-08
6.87094e-06
1.23627e-07
-1.15751e-07
6.86242e-06
2.03024e-07
-1.9451e-07
6.85327e-06
2.82907e-07
-2.73755e-07
6.84347e-06
3.63552e-07
-3.53765e-07
6.83305e-06
4.45291e-07
-4.34871e-07
6.822e-06
5.28515e-07
-5.17466e-07
6.81032e-06
6.13672e-07
-6.01996e-07
6.79801e-06
7.01276e-07
-6.8897e-07
6.78507e-06
7.91901e-07
-7.78959e-07
6.77148e-06
8.86187e-07
-8.72601e-07
6.75723e-06
9.84849e-07
-9.70603e-07
6.7423e-06
1.08868e-06
-1.07375e-06
6.72667e-06
1.19856e-06
-1.18293e-06
6.7103e-06
1.31546e-06
-1.2991e-06
6.69316e-06
1.44048e-06
-1.42334e-06
6.67521e-06
1.57482e-06
-1.55688e-06
6.65641e-06
1.71986e-06
-1.70107e-06
6.6367e-06
1.87714e-06
-1.85744e-06
6.61604e-06
2.04841e-06
-2.02775e-06
6.59436e-06
2.23566e-06
-2.21399e-06
6.5716e-06
2.44122e-06
-2.41847e-06
6.5477e-06
2.66778e-06
-2.64388e-06
6.52257e-06
2.9185e-06
-2.89337e-06
6.49613e-06
3.19713e-06
-3.17069e-06
6.46825e-06
3.50819e-06
-3.48031e-06
6.43879e-06
3.85706e-06
-3.8276e-06
6.40752e-06
4.25028e-06
-4.21901e-06
6.3741e-06
4.69563e-06
-4.66221e-06
6.338e-06
5.20233e-06
-5.16623e-06
6.29841e-06
5.78097e-06
-5.74138e-06
6.25407e-06
6.44337e-06
-6.39903e-06
6.20312e-06
7.20214e-06
-7.15119e-06
6.14287e-06
8.07037e-06
-8.01012e-06
6.06969e-06
9.06135e-06
-8.98816e-06
5.9786e-06
1.01903e-05
-1.00992e-05
5.86438e-06
1.14762e-05
-1.13619e-05
5.71828e-06
1.29628e-05
-1.28167e-05
5.54834e-06
1.4728e-05
-1.45581e-05
5.3716e-06
1.72533e-05
-1.70765e-05
2.17877e-05
-2.44278e-05
8.01178e-06
1.07481e-05
4.99315e-08
1.0686e-05
3.64046e-08
1.05941e-05
1.89429e-08
1.04809e-05
-2.18278e-09
1.03538e-05
-2.22756e-08
1.02185e-05
-4.2427e-08
1.00815e-05
-6.29946e-08
9.94842e-06
-8.37406e-08
9.82346e-06
-1.04364e-07
9.70945e-06
-1.24442e-07
9.60767e-06
-1.43573e-07
9.51821e-06
-1.6145e-07
9.44031e-06
-1.77919e-07
9.37274e-06
-1.9298e-07
9.31414e-06
-2.06772e-07
9.26319e-06
-2.19567e-07
9.2187e-06
-2.31684e-07
9.17974e-06
-2.43428e-07
9.14552e-06
-2.55071e-07
9.11541e-06
-2.66845e-07
9.08892e-06
-2.7892e-07
9.06559e-06
-2.91449e-07
9.04504e-06
-3.04574e-07
9.02692e-06
-3.18406e-07
9.01093e-06
-3.33023e-07
8.99681e-06
-3.48499e-07
8.98433e-06
-3.6491e-07
8.97328e-06
-3.82324e-07
8.96347e-06
-4.00783e-07
8.95473e-06
-4.20326e-07
8.94692e-06
-4.40989e-07
8.93991e-06
-4.62793e-07
8.93356e-06
-4.8575e-07
8.92776e-06
-5.09861e-07
8.92239e-06
-5.35118e-07
8.91736e-06
-5.61502e-07
8.91256e-06
-5.88979e-07
8.9079e-06
-6.17503e-07
8.90329e-06
-6.47015e-07
8.89865e-06
-6.7744e-07
8.8939e-06
-7.08689e-07
8.88898e-06
-7.40663e-07
8.88382e-06
-7.73253e-07
8.87837e-06
-8.06341e-07
8.87256e-06
-8.39808e-07
8.86636e-06
-8.73527e-07
8.85973e-06
-9.07375e-07
8.85264e-06
-9.41227e-07
8.84505e-06
-9.74963e-07
8.83695e-06
-1.00846e-06
8.8283e-06
-1.04161e-06
8.8191e-06
-1.0743e-06
8.80934e-06
-1.10643e-06
8.79902e-06
-1.13789e-06
8.78812e-06
-1.1686e-06
8.77665e-06
-1.19846e-06
8.76463e-06
-1.22739e-06
8.75205e-06
-1.25534e-06
8.73894e-06
-1.28222e-06
8.72531e-06
-1.308e-06
8.71119e-06
-1.33262e-06
8.69659e-06
-1.35605e-06
8.68156e-06
-1.37826e-06
8.66611e-06
-1.39922e-06
8.65027e-06
-1.41894e-06
8.6341e-06
-1.43741e-06
8.61761e-06
-1.45463e-06
8.60085e-06
-1.47063e-06
8.58385e-06
-1.48542e-06
8.56665e-06
-1.49904e-06
8.54929e-06
-1.51153e-06
8.53182e-06
-1.52293e-06
8.51425e-06
-1.5333e-06
8.49664e-06
-1.54268e-06
8.47902e-06
-1.55114e-06
8.46141e-06
-1.55875e-06
8.44386e-06
-1.56557e-06
8.42638e-06
-1.57168e-06
8.40901e-06
-1.57714e-06
8.39177e-06
-1.58203e-06
8.37468e-06
-1.58643e-06
8.35775e-06
-1.59041e-06
8.341e-06
-1.59404e-06
8.32445e-06
-1.59738e-06
8.30809e-06
-1.60052e-06
8.29193e-06
-1.60352e-06
8.27598e-06
-1.60643e-06
8.26023e-06
-1.60931e-06
8.24468e-06
-1.61222e-06
8.22932e-06
-1.6152e-06
8.21414e-06
-1.61829e-06
8.19912e-06
-1.62153e-06
8.18426e-06
-1.62496e-06
8.16953e-06
-1.62858e-06
8.15491e-06
-1.63243e-06
8.1404e-06
-1.6365e-06
8.12595e-06
-1.6408e-06
8.11155e-06
-1.64533e-06
8.09718e-06
-1.65008e-06
8.0828e-06
-1.65504e-06
8.06839e-06
-1.66017e-06
8.05393e-06
-1.66545e-06
8.03938e-06
-1.67086e-06
8.02471e-06
-1.67634e-06
8.00989e-06
-1.68186e-06
7.99488e-06
-1.68737e-06
7.97967e-06
-1.69281e-06