/*--------------------------------*- C++ -*----------------------------------*\
| =========                 |                                                 |
| \\      /  F ield         | OpenFOAM: The Open Source CFD Toolbox           |
|  \\    /   O peration     | Version:  2.4.0                                 |
|   \\  /    A nd           | Web:      www.OpenFOAM.org                      |
|    \\/     M anipulation  |                                                 |
\*---------------------------------------------------------------------------*/
FoamFile
{
    version     2.0;
    format      ascii;
    class       volScalarField;
    location    "0.236";
    object      pMean;
}
// * * * * * * * * * * * * * * * * * * * * * * * * * * * * * * * * * * * * * //

dimensions      [0 2 -2 0 0 0 0];

internalField   nonuniform List<scalar> 
17600
(
99.6611
83.6985
79.0313
77.696
76.5401
75.3773
74.2921
73.2705
72.2943
71.3187
70.3563
69.3848
68.4369
67.4778
66.5379
65.5512
64.5472
63.4158
62.0858
60.0571
97.76
83.748
79.072
77.7055
76.5434
75.3778
74.2924
73.2707
72.2945
71.3188
70.3563
69.3849
68.4369
67.4782
66.5381
65.5522
64.5479
63.4179
62.093
60.2162
96.352
84.0023
79.2147
77.7434
76.5572
75.3822
74.2945
73.2724
72.2958
71.3195
70.3568
69.385
68.4373
67.4785
66.5391
65.5526
64.5512
63.4186
62.1337
60.3237
95.3793
84.341
79.4327
77.8078
76.5863
75.3975
74.3033
73.2787
72.3003
71.3225
70.3583
69.3865
68.4383
67.4812
66.5411
65.5588
64.5562
63.4347
62.1791
60.4801
94.5597
84.673
79.6939
77.8886
76.6282
75.4263
74.3227
73.2932
72.3109
71.3301
70.363
69.3894
68.4413
67.484
66.5466
65.5633
64.5704
63.4519
62.2527
60.6751
93.7882
84.9627
79.9682
77.9698
76.6697
75.463
74.3516
73.3164
72.3285
71.3435
70.3714
69.3966
68.4461
67.4921
66.5537
65.5769
64.5858
63.4834
62.3457
60.906
93.0622
85.2075
80.2413
78.0457
76.7013
75.497
74.3844
73.345
72.3515
71.3616
70.3838
69.406
68.4543
67.5015
66.5652
65.5924
64.607
63.525
62.4504
61.1916
92.3915
85.4103
80.507
78.1185
76.7224
75.5233
74.4163
73.3756
72.3765
71.3816
70.3976
69.4177
68.4638
67.514
66.5801
65.6129
64.6359
63.5732
62.5515
61.5447
91.7816
85.5749
80.7572
78.1938
76.7351
75.5411
74.445
73.406
72.4018
71.4019
70.4113
69.4298
68.4731
67.5283
66.5935
65.6395
64.6605
63.6383
62.6222
61.8914
91.2344
85.7023
80.989
78.2736
76.7416
75.551
74.4696
73.4352
72.4265
71.421
70.4244
69.4409
68.4832
67.5418
66.6105
65.665
64.6942
63.7029
62.7262
62.2756
90.7485
85.795
81.2014
78.3584
76.743
75.5543
74.49
73.4629
72.4503
71.4393
70.4362
69.4516
68.492
67.5557
66.6263
65.692
64.7321
63.7699
62.8634
62.606
90.321
85.8572
81.3942
78.4477
76.7406
75.552
74.5065
73.4887
72.4734
71.4563
70.4469
69.4611
68.5014
67.5692
66.6443
65.7195
64.7733
63.8441
63.0082
62.8972
89.9494
85.8945
81.5673
78.5396
76.7357
75.545
74.5196
73.5124
72.4952
71.472
70.4568
69.4697
68.5106
67.5825
66.6632
65.7475
64.8198
63.9218
63.1568
63.1589
89.631
85.9139
81.7198
78.6292
76.7306
75.535
74.5298
73.5336
72.5157
71.4863
70.4658
69.4775
68.5201
67.5956
66.6832
65.7771
64.8689
64.0038
63.3045
63.3952
89.3626
85.9227
81.8506
78.7097
76.7269
75.5239
74.5377
73.5525
72.5342
71.4992
70.474
69.4848
68.5294
67.6095
66.7035
65.8089
64.9193
64.0892
63.4514
63.6088
89.1418
85.9258
81.9586
78.7788
76.7251
75.5128
74.5437
73.5685
72.5505
71.5104
70.4814
69.4918
68.539
67.6229
66.7256
65.8401
64.9741
64.1721
63.6076
63.7973
88.9676
85.9257
82.0438
78.8352
76.7253
75.5022
74.5482
73.5817
72.5644
71.5196
70.4884
69.4978
68.5493
67.6364
66.7493
65.8725
65.0303
64.2546
63.76
64.0104
88.8381
85.9242
82.1064
78.8787
76.7265
75.4937
74.551
73.5922
72.575
71.5278
70.4938
69.5049
68.5579
67.652
66.7701
65.9098
65.0824
64.3437
63.867
64.1739
88.7527
85.9223
82.1477
78.9082
76.7285
75.4873
74.5532
73.5994
72.5832
71.5338
70.4996
69.511
68.5681
67.6666
66.7938
65.9456
65.1374
64.4297
63.9779
64.3666
88.7104
85.9209
82.1681
78.9233
76.7297
75.4842
74.5543
73.6037
72.5878
71.5383
70.504
69.5176
68.5776
67.6819
66.8172
65.9824
65.193
64.5137
64.1013
64.5305
88.7107
85.9207
82.1681
78.9235
76.73
75.4846
74.5547
73.6049
72.5892
71.541
70.5079
69.5239
68.5877
67.6969
66.8419
66.0184
65.2508
64.5931
64.2408
64.6698
88.7538
85.9214
82.1482
78.9084
76.7296
75.4882
74.5548
73.6026
72.5878
71.5414
70.5119
69.5294
68.5985
67.7112
66.8677
66.0544
65.3093
64.6713
64.3737
64.8412
88.8398
85.9228
82.1072
78.8792
76.7283
75.4954
74.5536
73.5979
72.5823
71.5411
70.5135
69.5368
68.6071
67.7287
66.8901
66.0951
65.3614
64.7564
64.4554
64.955
88.97
85.9237
82.0449
78.8359
76.7279
75.5045
74.5518
73.5895
72.5747
71.538
70.5158
69.5425
68.6174
67.7445
66.915
66.1342
65.4159
64.8373
64.5372
65.1106
89.145
85.9233
81.96
78.7797
76.7285
75.5153
74.5486
73.5783
72.5639
71.5335
70.5171
69.5483
68.6274
67.7603
66.9402
66.1727
65.4725
64.9135
64.6343
65.2411
89.3663
85.9196
81.8522
78.711
76.731
75.5269
74.5438
73.564
72.5507
71.5271
70.5177
69.5536
68.6374
67.776
66.9656
66.2113
65.5302
64.9883
64.7407
65.3454
89.6355
85.9102
81.7215
78.6306
76.7355
75.5384
74.5372
73.5469
72.5354
71.5188
70.5177
69.5581
68.6474
67.7916
66.9914
66.2503
65.5879
65.0649
64.8404
65.4555
89.9545
85.8906
81.569
78.5414
76.7414
75.5489
74.528
73.5272
72.518
71.5094
70.5163
69.5625
68.6563
67.8081
67.0156
66.2915
65.6434
65.1472
64.9145
65.5317
90.3266
85.8531
81.3959
78.4493
76.7472
75.5564
74.5162
73.505
72.4994
71.498
70.5145
69.5652
68.6658
67.8232
67.0412
66.3312
65.7018
65.2289
64.9923
65.6086
90.7543
85.7908
81.203
78.3601
76.7503
75.5596
74.5007
73.4807
72.4797
71.4854
70.5115
69.5668
68.6752
67.8374
67.0672
66.3695
65.7628
65.3097
65.085
65.6537
91.2405
85.6977
80.9907
78.2755
76.7493
75.5573
74.4812
73.4547
72.4588
71.4716
70.507
69.5674
68.6838
67.8509
67.0927
66.4068
65.8246
65.3913
65.1921
65.6689
91.7881
85.57
80.759
78.1958
76.7432
75.5484
74.4577
73.4271
72.4371
71.4565
70.5013
69.5667
68.6918
67.8631
67.1179
66.4417
65.8869
65.4703
65.3117
65.6632
92.3982
85.4054
80.5087
78.1208
76.7305
75.5316
74.4301
73.3984
72.4147
71.4405
70.4943
69.5652
68.6985
67.8742
67.141
66.4741
65.9449
65.5448
65.4233
65.6665
93.0691
85.2029
80.243
78.0483
76.7096
75.5062
74.3993
73.3696
72.3925
71.4244
70.4868
69.5634
68.704
67.8842
67.1607
66.5031
65.9941
65.6115
65.5095
65.6521
93.7951
84.9583
79.97
77.9726
76.6782
75.473
74.3678
73.3424
72.372
71.4098
70.4801
69.5618
68.7086
67.8926
67.1771
66.527
66.0339
65.6641
65.5757
65.6708
94.5665
84.6689
79.6959
77.8915
76.6369
75.4369
74.3399
73.3204
72.3562
71.3992
70.4758
69.5614
68.7128
67.8996
67.1897
66.5452
66.0631
65.7025
65.6203
65.6841
95.3861
84.3372
79.4349
77.8107
76.5951
75.4085
74.3212
73.3067
72.3469
71.3935
70.4741
69.5622
68.7163
67.9048
67.1985
66.5576
66.0818
65.7277
65.645
65.7009
96.3588
83.9986
79.217
77.7463
76.566
75.3936
74.3129
73.3009
72.3432
71.3915
70.4739
69.5633
68.7187
67.9081
67.2034
66.5645
66.0917
65.7413
65.6571
65.7205
97.7668
83.7444
79.0743
77.7084
76.5523
75.3892
74.3109
73.2993
72.3421
71.3911
70.4741
69.564
68.7196
67.9094
67.2051
66.567
66.0951
65.7459
65.6605
65.7437
99.6679
83.6951
79.0336
77.6989
76.549
75.3887
74.3107
73.2991
72.3419
71.3911
70.4741
69.5641
68.7196
67.9094
67.2052
66.567
66.0951
65.7456
65.6594
65.7795
58.6316
57.9725
56.9835
56.0124
55.0367
54.1487
53.229
52.2972
51.3582
50.3702
49.3522
48.3112
47.2709
46.1904
45.1698
44.213
43.3296
42.6417
42.1504
41.9067
41.9296
42.2018
42.7445
43.525
44.4432
45.5049
46.673
47.8936
49.1059
50.2454
51.3055
52.2824
53.1652
53.9596
54.6841
55.3762
56.0514
56.693
57.2906
57.8353
58.2997
58.6693
58.9599
59.2041
59.4099
59.5646
59.6793
59.7569
59.7779
59.7485
59.7052
59.6582
59.5837
59.4675
59.3224
59.1649
59.003
58.8318
58.6587
58.4887
58.325
58.1669
58.0019
57.8474
57.72
57.624
57.5545
57.5063
57.4741
57.4489
57.4265
57.4031
57.3736
57.3321
57.2834
57.2486
57.257
57.3226
57.438
57.6045
57.8241
58.0901
58.3891
58.696
59.0061
59.3172
59.6238
59.9351
60.2542
60.5828
60.9148
61.2371
61.5488
61.8361
62.0983
62.322
62.5122
62.6696
62.7983
62.8832
62.9267
62.9336
62.9106
62.87
62.8218
62.7776
62.7422
62.7137
62.7016
62.7009
62.7137
62.7329
62.7704
62.8104
62.8582
62.8975
62.9469
63.0016
63.0842
63.1969
63.3278
63.4807
63.6425
63.8223
64.0286
64.2317
64.4459
64.6267
64.8081
64.9659
65.102
65.2338
65.3321
65.4324
65.5173
65.6158
65.7184
65.8378
65.9678
66.1034
66.2446
66.3748
66.5117
66.6286
66.7505
66.859
66.9893
67.1113
67.2497
67.3818
67.5172
67.6485
67.7745
67.9022
68.0189
68.136
68.2382
68.3345
68.4256
68.4963
68.5419
68.5354
68.5252
68.4671
68.4309
68.3687
68.3346
68.2919
68.2858
68.2664
68.286
68.2832
68.3215
68.3271
68.3922
68.3971
68.5014
68.5002
68.6663
68.636
68.8738
68.835
69.1228
69.0883
69.347
69.3245
69.4954
69.4213
69.4859
69.287
69.1584
68.7395
68.3048
67.5107
66.5192
64.9505
62.659
58.6262
53.3743
30.0256
58.9008
58.2651
57.4193
56.5855
55.7367
54.9528
54.1524
53.3283
52.4819
51.5835
50.6298
49.6338
48.6165
47.5325
46.4874
45.5284
44.6454
43.9468
43.4573
43.2097
43.2252
43.494
44.025
44.7938
45.7089
46.7446
47.8719
49.0382
50.202
51.3024
52.3263
53.263
54.1026
54.8489
55.5151
56.1356
56.7344
57.2994
57.8142
58.2769
58.6678
58.9639
59.1724
59.3278
59.4462
59.5174
59.562
59.5926
59.5808
59.5183
59.4405
59.3594
59.2533
59.112
58.9438
58.7619
58.5743
58.3777
58.1797
57.9874
57.8078
57.6367
57.4594
57.3001
57.1763
57.0875
57.0266
56.9882
56.9674
56.9533
56.9425
56.9318
56.9165
56.8916
56.8646
56.8608
56.9057
57.0102
57.1688
57.3832
57.6539
57.9716
58.3216
58.6792
59.0333
59.3806
59.7179
60.0534
60.3904
60.7318
61.0716
61.3973
61.7077
61.99
62.2438
62.4567
62.6402
62.796
62.9258
63.0148
63.0633
63.0726
63.0508
63.0088
62.9574
62.9064
62.8646
62.828
62.8086
62.7985
62.8016
62.8091
62.8371
62.8671
62.9059
62.9372
62.9808
63.0293
63.1003
63.2038
63.329
63.4766
63.6314
63.8025
64.0003
64.1953
64.4034
64.5876
64.7663
64.9331
65.0718
65.2115
65.3175
65.4219
65.5134
65.6134
65.7171
65.8363
65.9645
66.1011
66.2405
66.3709
66.5051
66.6196
66.7365
66.8343
66.9542
67.0646
67.195
67.3147
67.4443
67.5654
67.6857
67.8051
67.9149
68.0256
68.1203
68.2117
68.295
68.3562
68.3878
68.3716
68.3487
68.2745
68.2238
68.1391
68.0851
68.013
67.9799
67.9286
67.9284
67.8923
67.9141
67.8838
67.9366
67.9026
68.0039
67.9597
68.1312
68.0601
68.2936
68.2275
68.4895
68.4482
68.6621
68.6332
68.773
68.6788
68.704
68.4705
68.2875
67.7951
67.2549
66.3091
65.1016
63.1555
60.5565
55.1469
49.4012
23.0582
59.2009
58.6153
57.8371
57.0696
56.309
55.5995
54.8945
54.1682
53.4045
52.5895
51.6998
50.7616
49.7939
48.7431
47.7031
46.7591
45.9034
45.2254
44.7545
44.5058
44.526
44.7985
45.3167
46.0641
46.9619
47.9666
49.0531
50.1719
51.2893
52.3531
53.3437
54.2427
55.0415
55.7448
56.3593
56.9124
57.4337
57.9207
58.3559
58.7368
59.0523
59.2748
59.4044
59.4746
59.5087
59.5003
59.477
59.4602
59.4154
59.3242
59.2176
59.1055
58.9709
58.8082
58.6211
58.4187
58.2088
57.9894
57.7696
57.5581
57.366
57.1833
56.9978
56.838
56.7206
56.6406
56.5902
56.5632
56.5553
56.5546
56.5578
56.5622
56.5638
56.5592
56.558
56.5885
56.6715
56.8151
57.0161
57.2767
57.5966
57.9629
58.36
58.7657
59.1631
59.5455
59.9124
60.2706
60.6224
60.972
61.3147
61.6395
61.9456
62.2208
62.4662
62.669
62.8477
63.0036
63.1351
63.2287
63.2842
63.2985
63.2802
63.237
63.183
63.1246
63.0753
63.0289
63.0009
62.9786
62.9699
62.9636
62.9799
62.9967
63.024
63.0456
63.08
63.1187
63.177
63.2685
63.3863
63.5249
63.6727
63.835
64.0237
64.2089
64.4092
64.5973
64.7738
64.9503
65.0939
65.2427
65.3578
65.4695
65.5678
65.6723
65.7774
65.8964
66.0212
66.1568
66.2917
66.4212
66.5495
66.6616
66.7723
66.8613
66.9688
67.0677
67.1866
67.2936
67.4143
67.5246
67.6377
67.7492
67.8524
67.9573
68.0458
68.1355
68.2097
68.2598
68.2767
68.2528
68.2167
68.1277
68.0623
67.952
67.8805
67.7784
67.7186
67.6314
67.6115
67.5391
67.545
67.4737
67.5149
67.4408
67.5369
67.452
67.6214
67.5167
67.731
67.6464
67.8641
67.8205
67.9903
67.9518
68.0538
67.9439
67.9148
67.651
67.3993
66.8413
66.1793
65.0663
63.6798
61.2762
58.6079
51.6803
45.6428
21.0942
59.4778
58.9696
58.2791
57.529
56.8021
56.1375
55.5127
54.8809
54.199
53.4644
52.6433
51.7597
50.8507
49.8592
48.8566
47.9498
47.1378
46.5
46.0573
45.8218
45.8515
46.125
46.6203
47.3347
48.2015
49.1703
50.2145
51.2896
52.3592
53.3833
54.3396
55.2052
55.9665
56.6316
57.2027
57.6958
58.1434
58.5527
58.9095
59.2105
59.4493
59.5988
59.6537
59.6453
59.6001
59.5186
59.4308
59.3638
59.2836
59.1673
59.0389
58.9004
58.7414
58.5606
58.357
58.1367
57.9078
57.6698
57.4321
57.205
57.003
56.8105
56.6208
56.4657
56.3568
56.2873
56.2485
56.235
56.2416
56.2567
56.2772
56.3002
56.321
56.3398
56.3683
56.436
56.558
56.7411
56.9837
57.2887
57.6539
58.0646
58.5047
58.9547
59.3921
59.807
60.2022
60.5808
60.9449
61.2995
61.6406
61.9609
62.2603
62.5264
62.7635
62.958
63.1348
63.2924
63.4262
63.5237
63.587
63.6066
63.5938
63.55
63.4945
63.4288
63.3706
63.3127
63.2754
63.2393
63.2174
63.1962
63.1986
63.2
63.2145
63.2247
63.247
63.2724
63.3173
63.3936
63.5019
63.6283
63.7701
63.923
64.1025
64.2766
64.469
64.6595
64.8361
65.0198
65.1721
65.3294
65.4538
65.5748
65.6797
65.7893
65.8961
66.0149
66.1361
66.2691
66.3978
66.5248
66.6461
66.7551
66.8585
66.9395
67.0341
67.1206
67.2264
67.3197
67.43
67.5286
67.6349
67.737
67.8347
67.9325
68.0178
68.1052
68.1701
68.207
68.2122
68.1816
68.1317
68.0273
67.9448
67.8074
67.7179
67.5867
67.5035
67.3798
67.3354
67.224
67.2125
67.1014
67.1281
67.0166
67.1046
66.9811
67.1398
67.0063
67.1898
67.0926
67.2532
67.2098
67.3329
67.2857
67.3456
67.219
67.1286
66.8305
66.4976
65.8688
65.1038
63.7911
62.3337
59.3172
56.829
48.509
42.1906
21.515
59.7629
59.3303
58.7327
57.9892
57.2604
56.626
56.0681
55.5272
54.9342
54.2747
53.5226
52.6897
51.841
50.9243
49.9808
49.1265
48.3783
47.792
47.3871
47.1759
47.2124
47.4748
47.9355
48.6043
49.4287
50.3542
51.3514
52.3801
53.4009
54.3805
55.2999
56.1364
56.8662
57.4972
58.0305
58.472
58.8539
59.1883
59.469
59.6932
59.8561
59.9344
59.9193
59.8398
59.7227
59.5755
59.4259
59.306
59.1878
59.0507
58.9063
58.7477
58.5696
58.3731
58.1542
57.9182
57.673
57.421
57.1703
56.9313
56.722
56.5224
56.3332
56.1868
56.088
56.0302
56.0041
56.0055
56.0291
56.0634
56.1043
56.1488
56.1913
56.2363
56.2981
56.4043
56.5661
56.7887
57.0725
57.419
57.826
58.2768
58.7556
59.2445
59.7169
60.161
60.5814
60.9779
61.3521
61.709
62.0462
62.359
62.6497
62.9055
63.1343
63.3223
63.5005
63.6616
63.7981
63.8982
63.9685
63.9935
63.9864
63.942
63.8851
63.8127
63.746
63.6759
63.6284
63.5778
63.5428
63.5059
63.4932
63.4771
63.4782
63.4745
63.4833
63.4922
63.5232
63.581
63.6772
63.7896
63.9259
64.0688
64.2397
64.4021
64.5879
64.7783
64.9577
65.1449
65.3088
65.4718
65.6057
65.735
65.8469
65.9608
66.0697
66.1888
66.307
66.4352
66.5578
66.6798
66.7935
66.8978
66.9939
67.0665
67.1484
67.2213
67.3141
67.3937
67.4932
67.5791
67.6791
67.7706
67.8636
67.9538
68.0376
68.1208
68.1754
68.1989
68.196
68.1578
68.0914
67.9708
67.8676
67.7051
67.598
67.4363
67.3336
67.1721
67.1033
66.9502
66.9182
66.7658
66.7784
66.6251
66.7066
66.5448
66.6825
66.5293
66.6694
66.5675
66.6694
66.6225
66.6982
66.6425
66.6581
66.5084
66.3614
66.0163
65.6145
64.8728
64.0643
62.4435
61.0989
57.3008
55.1764
45.8106
38.9933
22.1771
60.1113
59.7274
59.1747
58.425
57.6805
57.0694
56.5773
56.1282
55.6285
55.0448
54.3657
53.5934
52.8048
51.9705
51.1033
50.3075
49.63
49.1021
48.7388
48.5542
48.5922
48.8374
49.2598
49.8734
50.6443
51.5164
52.4593
53.4371
54.4094
55.3411
56.2193
57.0264
57.7311
58.3333
58.8302
59.2249
59.5497
59.8162
60.0253
60.1786
60.2692
60.2808
60.2024
60.0588
59.8793
59.6734
59.4637
59.29
59.1345
58.9795
58.8238
58.6509
58.4583
58.2485
58.0151
57.7656
57.5071
57.2458
56.9869
56.74
56.526
56.323
56.1388
56.0039
55.9161
55.8698
55.8574
55.8764
55.9198
55.9763
56.041
56.1096
56.1765
56.2502
56.3474
56.493
56.6941
56.9553
57.2796
57.6663
58.1116
58.598
59.1113
59.6324
60.1336
60.603
61.0447
61.4561
61.8389
62.1965
62.5284
62.8319
63.1128
63.3566
63.5775
63.7607
63.9428
64.1082
64.2475
64.3489
64.4248
64.4539
64.4529
64.4088
64.3496
64.2697
64.1955
64.1137
64.0562
63.9911
63.9437
63.8911
63.8623
63.8279
63.8151
63.7962
63.7898
63.7804
63.797
63.8336
63.9155
64.0126
64.1442
64.2757
64.4382
64.5889
64.77
64.9571
65.1404
65.3285
65.5048
65.6709
65.8136
65.9482
66.0685
66.1839
66.2958
66.4148
66.5312
66.6528
66.7706
66.8853
66.9918
67.087
67.1747
67.2379
67.3099
67.3694
67.4509
67.5171
67.6066
67.6777
67.7719
67.8504
67.9411
68.021
68.1061
68.1809
68.2254
68.2361
68.2306
68.1785
68.0957
67.9563
67.8318
67.644
67.5226
67.3296
67.2096
67.0083
66.9139
66.7214
66.6668
66.4698
66.4707
66.27
66.344
66.1464
66.2509
66.0856
66.1744
66.0663
66.1207
66.0607
66.0958
66.0201
65.9974
65.8043
65.6286
65.1936
64.7791
63.8364
63.1192
61.0209
59.9719
55.3042
53.4719
43.613
35.9672
22.319
60.5331
60.1729
59.5878
58.7964
58.035
57.4567
57.0403
56.6856
56.2829
55.7806
55.1791
54.4811
53.7567
53.0059
52.224
51.4928
50.8816
50.413
50.09
49.9283
49.9659
50.1951
50.5838
51.1393
51.8465
52.6572
53.5405
54.4628
55.3833
56.267
57.1011
57.8734
58.5529
59.1296
59.593
59.9423
60.2159
60.4239
60.57
60.6592
60.6845
60.6363
60.5031
60.3022
60.0707
59.8125
59.5449
59.319
59.1294
58.9587
58.7938
58.6103
58.4071
58.186
57.9405
57.6816
57.4141
57.1472
56.8832
56.6318
56.4171
56.2154
56.0406
55.9183
55.8413
55.8061
55.8082
55.8481
55.914
55.9953
56.0869
56.1826
56.2761
56.3797
56.5136
56.6981
56.9375
57.2364
57.6007
58.0268
58.5071
59.0255
59.5685
60.1147
60.6389
61.1285
61.5871
62.0101
62.3997
62.7571
63.0835
63.3774
63.6482
63.8788
64.0918
64.2723
64.4599
64.6286
64.7696
64.871
64.9502
64.9819
64.9867
64.9438
64.8826
64.7952
64.714
64.6219
64.5538
64.4753
64.4168
64.349
64.304
64.2516
64.2245
64.1891
64.168
64.1395
64.1415
64.1557
64.2225
64.3026
64.4287
64.547
64.7012
64.8402
65.0177
65.1982
65.3853
65.5707
65.7585
65.9239
66.0747
66.211
66.3414
66.455
66.5735
66.688
66.8054
66.9181
67.0337
67.1362
67.2392
67.3195
67.4006
67.4493
67.5166
67.5599
67.6364
67.6854
67.7709
67.823
67.9144
67.9743
68.0684
68.1322
68.2238
68.2826
68.3219
68.3176
68.3166
68.2406
68.144
67.9797
67.8393
67.6277
67.4905
67.2647
67.1299
66.8903
66.7701
66.5352
66.4596
66.2129
66.2078
65.9522
66.0161
65.7831
65.8489
65.6697
65.7103
65.5849
65.6098
65.5232
65.5361
65.4127
65.3787
65.0916
64.9546
64.3305
64.0159
62.7083
62.2403
59.5428
58.8757
53.4243
51.5837
41.8565
33.0898
22.0574
61.1506
60.7223
59.9397
59.0399
58.2798
57.7685
57.446
57.1899
56.8851
56.4732
55.9565
55.3405
54.6853
54.0157
53.3225
52.6613
52.1089
51.6949
51.4127
51.2729
51.3105
51.5257
51.8875
52.3912
53.0325
53.7774
54.5952
55.4555
56.3208
57.1566
57.9453
58.6782
59.327
59.8748
60.3062
60.6152
60.8427
61.0021
61.0938
61.1271
61.0968
60.9972
60.8161
60.5675
60.2934
59.9899
59.6687
59.3948
59.175
58.9888
58.8144
58.6223
58.4122
58.1836
57.9312
57.6679
57.3966
57.1267
56.8591
56.6067
56.3961
56.201
56.0395
55.9299
55.8623
55.8379
55.8558
55.9193
56.0104
56.1191
56.2403
56.3645
56.4853
56.6202
56.7909
57.0135
57.2901
57.6259
58.0291
58.4941
59.0058
59.5532
60.1216
60.6875
61.2287
61.7339
62.2042
62.6353
63.03
63.3868
63.7086
63.9927
64.2538
64.4712
64.6761
64.8545
65.0478
65.2177
65.3583
65.4579
65.5384
65.5718
65.5809
65.5399
65.4784
65.384
65.297
65.1952
65.1175
65.0261
64.9577
64.8757
64.8155
64.7459
64.7049
64.6523
64.6181
64.57
64.5568
64.5489
64.6011
64.6629
64.7813
64.8848
65.0306
65.1576
65.3318
65.5021
65.6926
65.8722
66.0677
66.2281
66.3869
66.5205
66.6605
66.7721
66.8992
67.0048
67.1255
67.227
67.343
67.4279
67.5306
67.5908
67.6692
67.6983
67.7652
67.7876
67.8655
67.8932
67.9814
68.0107
68.1041
68.1406
68.2438
68.2856
68.3887
68.4218
68.4666
68.442
68.4533
68.3397
68.2366
68.0397
67.8918
67.6512
67.5082
67.2417
67.0936
66.8057
66.6731
66.3874
66.3018
65.9941
65.9926
65.6742
65.7263
65.4529
65.4818
65.2752
65.2836
65.1192
65.144
64.9909
65.028
64.791
64.8156
64.3429
64.3394
63.4064
63.3093
61.5251
61.3818
58.0585
57.7094
51.7394
49.251
40.385
30.7367
21.8258
62.0693
61.4983
60.2668
59.1863
58.4416
58.0224
57.8046
57.6472
57.4381
57.1203
56.691
56.1592
55.5758
54.9811
54.3727
53.7848
53.2865
52.9195
52.6795
52.5656
52.6058
52.8081
53.1478
53.6102
54.1928
54.8727
55.6216
56.415
57.2221
58.0087
58.7515
59.4403
60.0513
60.5639
60.9615
61.2343
61.4222
61.5405
61.5892
61.5753
61.5
61.3579
61.1357
60.8477
60.5389
60.1982
59.8303
59.5156
59.2692
59.0673
58.8817
58.6824
58.4702
58.2409
57.9892
57.7282
57.4563
57.1841
56.9132
56.6644
56.463
56.2795
56.134
56.0371
55.9783
55.9638
55.9991
56.0886
56.2069
56.3448
56.4967
56.6502
56.7993
56.966
57.1724
57.4311
57.7436
58.1158
58.5565
59.0585
59.5998
60.1736
60.7642
61.3447
61.8978
62.4137
62.8911
63.3273
63.725
64.0807
64.3993
64.6736
64.9256
65.131
65.3282
65.5045
65.7016
65.87
66.007
66.1022
66.181
66.2148
66.2284
66.1898
66.1303
66.0305
65.9384
65.8281
65.7423
65.6391
65.5617
65.4669
65.3935
65.3075
65.253
65.1839
65.1377
65.0705
65.0413
65.0127
65.0512
65.0936
65.2016
65.2894
65.4269
65.5412
65.7102
65.8676
66.0595
66.2306
66.4302
66.5825
66.7491
66.8752
67.0244
67.1336
67.2689
67.3627
67.4886
67.5756
67.6935
67.7584
67.8626
67.8995
67.9761
67.9824
68.0507
68.0493
68.1315
68.1358
68.2323
68.2369
68.3382
68.3475
68.464
68.477
68.5968
68.5934
68.658
68.6037
68.6353
68.4701
68.3731
68.1321
67.9942
67.7102
67.5758
67.2535
67.1055
66.753
66.6266
66.2711
66.1979
65.812
65.8278
65.4334
65.4858
65.145
65.159
64.8886
64.9032
64.6582
64.7273
64.4519
64.5687
64.1437
64.291
63.557
63.7081
62.4184
62.5523
60.2949
60.4806
56.6463
56.2351
50.3197
46.4229
39.0495
29.3542
22.0554
62.8056
62.1567
60.6178
59.3799
58.6155
58.2587
58.1321
58.0677
57.9503
57.7225
57.3768
56.9255
56.4134
55.8858
55.3546
54.8405
54.3951
54.0692
53.8689
53.7839
53.8322
54.0251
54.3466
54.7776
55.311
55.9304
56.6132
57.3397
58.0855
58.8198
59.5154
60.1556
60.7207
61.1945
61.5578
61.7973
61.948
62.0317
62.0477
61.9977
61.8885
61.7149
61.4588
61.1386
60.8001
60.4302
60.0244
59.6769
59.4093
59.1907
58.9918
58.7882
58.5795
58.357
58.1153
57.8627
57.5928
57.3174
57.0441
56.8042
56.6167
56.4485
56.3202
56.2361
56.1874
56.1835
56.2369
56.3537
56.5001
56.6683
56.8508
57.0335
57.2122
57.4103
57.6501
57.9423
58.2892
58.6961
59.1728
59.7093
60.2792
60.8773
61.4869
62.0784
62.6402
63.1626
63.6422
64.0807
64.4796
64.8331
65.1488
65.4148
65.6586
65.8532
66.0434
66.2167
66.4142
66.578
66.7079
66.7949
66.8703
66.9025
66.9208
66.8856
66.8306
66.7278
66.6316
66.5147
66.4223
66.3095
66.2236
66.1175
66.0326
65.9314
65.8631
65.7782
65.7209
65.6353
65.5904
65.543
65.5682
65.5912
65.6868
65.7588
65.8879
65.9882
66.1501
66.2931
66.483
66.6423
66.8419
66.9847
67.1582
67.2753
67.4331
67.5382
67.6803
67.7608
67.892
67.962
68.081
68.1248
68.2307
68.2449
68.3204
68.3016
68.37
68.3432
68.4291
68.4091
68.5149
68.4947
68.6087
68.5899
68.7218
68.7023
68.8401
68.7932
68.8888
68.795
68.8522
68.6249
68.5456
68.2477
68.1389
67.7959
67.6852
67.2884
67.1604
66.7275
66.6335
66.1803
66.1443
65.6571
65.7103
65.2201
65.287
64.8513
64.8777
64.5075
64.561
64.1955
64.3358
63.8944
64.1157
63.4727
63.7542
62.7324
63.0298
61.4056
61.7355
59.1364
59.3578
55.4043
54.1964
48.9606
43.8743
37.9891
28.9497
22.752
63.3907
62.7191
61.0039
59.6394
58.827
58.4958
58.4377
58.4555
58.4217
58.2767
58.01
57.6351
57.1921
56.7256
56.2602
55.8151
55.4239
55.1371
54.9721
54.9161
54.9752
55.1626
55.4696
55.8757
56.3691
56.9364
57.5598
58.2217
58.9039
59.5829
60.2287
60.8179
61.3332
61.7635
62.092
62.3037
62.4225
62.4754
62.4652
62.3889
62.2563
62.0626
61.7833
61.4388
61.0753
60.6825
60.2475
59.8758
59.5914
59.356
59.1429
58.9388
58.7394
58.5301
58.3062
58.0691
57.8031
57.5238
57.2503
57.0256
56.8561
56.7053
56.5946
56.5235
56.4856
56.4942
56.5682
56.7126
56.8868
57.0851
57.2976
57.5093
57.7184
57.9469
58.2175
58.54
58.9189
59.3584
59.8676
60.4358
61.0328
61.6534
62.2787
62.8793
63.4474
63.9725
64.4518
64.8895
65.2872
65.6365
65.9494
66.2084
66.4457
66.6307
66.8142
66.9837
67.1772
67.3326
67.4526
67.5273
67.5977
67.6285
67.6518
67.6205
67.5708
67.4678
67.3693
67.2483
67.1511
67.0306
66.9369
66.821
66.726
66.6111
66.529
66.4285
66.3596
66.2575
66.1992
66.1349
66.1468
66.1501
66.2325
66.289
66.4098
66.4943
66.647
66.7742
66.9593
67.1037
67.2989
67.4303
67.6092
67.718
67.8828
67.9818
68.1299
68.1967
68.331
68.385
68.5045
68.5276
68.6314
68.624
68.6977
68.6546
68.7205
68.6695
68.7553
68.712
68.823
68.7806
68.9057
68.8631
69.0074
68.9595
69.1081
69.0208
69.1456
69.0115
69.0897
68.7973
68.7438
68.3833
68.3095
67.8967
67.8279
67.3434
67.2474
66.712
66.6715
66.0991
66.1232
65.5141
65.6219
65.0221
65.1163
64.5665
64.6296
64.129
64.238
63.7248
63.9336
63.3064
63.6185
62.773
63.1417
61.9004
62.2829
60.4785
60.7689
58.2091
57.8374
54.2299
51.9119
47.4787
42.146
37.4935
29.3752
23.7199
63.8489
63.1964
61.3987
59.9502
59.0868
58.7507
58.7308
58.8108
58.8502
58.7829
58.5936
58.292
57.9145
57.5055
57.0955
56.71
56.3729
56.1236
55.9893
55.9603
56.0331
56.2168
56.5091
56.8933
57.3541
57.8781
58.4498
59.0536
59.6752
60.2967
60.888
61.4237
61.8884
62.2736
62.5664
62.7547
62.8491
62.8777
62.8462
62.7513
62.6033
62.3993
62.1093
61.748
61.3654
60.952
60.4967
60.1091
59.8122
59.5603
59.3339
59.1326
58.9489
58.7595
58.5576
58.3403
58.0817
57.8001
57.5304
57.3275
57.1799
57.0466
56.9523
56.8946
56.8694
56.8928
56.9898
57.1625
57.3637
57.591
57.8324
58.0727
58.3118
58.5702
58.8687
59.2177
59.6259
60.0946
60.6315
61.2273
61.8499
62.4906
63.1288
63.7373
64.3094
64.8345
65.3124
65.7465
66.1415
66.4831
66.7922
67.0457
67.2776
67.4543
67.6314
67.7941
67.9802
68.1236
68.2321
68.293
68.3574
68.386
68.415
68.3878
68.3437
68.2421
68.144
68.0201
67.9213
67.7945
67.6946
67.5703
67.4667
67.3392
67.2431
67.1274
67.046
66.9304
66.8605
66.7804
66.7797
66.7641
66.8321
66.8736
66.986
67.0548
67.196
67.3066
67.4835
67.6106
67.7966
67.915
68.0966
68.1983
68.3673
68.4602
68.6125
68.6673
68.8008
68.8401
68.9579
68.9642
69.0624
69.0351
69.1029
69.0377
69.0982
69.0268
69.1069
69.0427
69.1519
69.0912
69.2216
69.162
69.3139
69.2454
69.3944
69.2766
69.4187
69.2512
69.3365
68.9877
68.9492
68.5355
68.4881
68.0129
67.9727
67.4043
67.3397
66.7039
66.7158
66.015
66.1072
65.3666
65.5315
64.8073
64.9463
64.2555
64.3947
63.7326
63.9222
63.2462
63.5138
62.7537
63.0964
62.1499
62.4754
61.1949
61.4375
59.715
59.5722
57.3027
56.0758
52.9178
49.9843
46.2532
41.2176
37.5567
30.3023
24.7809
64.2182
63.6012
61.7868
60.2947
59.3869
59.0236
59.0125
59.1357
59.2397
59.2466
59.1332
58.9023
58.5869
58.2316
57.87
57.5345
57.2471
57.0352
56.9268
56.9207
57.0082
57.1904
57.4679
57.83
58.2624
58.7493
59.2748
59.8266
60.3924
60.9555
61.4893
61.9706
62.3859
62.7276
62.9884
63.1565
63.232
63.2411
63.1941
63.0882
62.9329
62.7248
62.4355
62.0656
61.667
61.2353
60.7686
60.3734
60.0699
59.8017
59.5648
59.3694
59.2059
59.0418
58.8662
58.6703
58.4218
58.1416
57.8826
57.7069
57.5851
57.4693
57.3893
57.345
57.3347
57.3764
57.498
57.6982
57.9257
58.1811
58.4505
58.7188
58.987
59.2746
59.5981
59.9701
60.4042
60.8976
61.4564
62.0745
62.7193
63.3776
64.026
64.6409
65.2151
65.7389
66.2154
66.6438
67.0345
67.365
67.6682
67.9169
68.1431
68.3125
68.4834
68.6361
68.8123
68.9412
69.0384
69.0852
69.1447
69.1702
69.2056
69.1808
69.143
69.0428
68.9477
68.8217
68.7248
68.5927
68.491
68.3579
68.2476
68.109
67.9986
67.868
67.7742
67.6471
67.5674
67.4706
67.4574
67.4249
67.4789
67.5045
67.6077
67.6616
67.7915
67.8858
68.0509
68.1585
68.3321
68.4346
68.6149
68.7102
68.882
68.968
69.1235
69.1685
69.2994
69.3261
69.4398
69.4309
69.5196
69.4738
69.5327
69.4489
69.5011
69.4117
69.4826
69.3994
69.4994
69.4227
69.5517
69.4802
69.6347
69.552
69.6952
69.5561
69.7018
69.5116
69.5886
69.1966
69.159
68.7075
68.6649
68.151
68.1211
67.487
67.4225
66.7209
66.745
65.9561
66.0561
65.2392
65.3801
64.5971
64.7138
63.9483
64.1021
63.3503
63.5553
62.787
63.0518
62.2305
62.5218
61.5165
61.7214
60.4488
60.4428
58.8478
58.2456
56.1386
54.4886
51.6673
48.6551
45.6602
41.0237
38.0094
31.4015
25.8323
64.515
63.9431
62.1606
60.6574
59.7155
59.3143
59.294
59.4451
59.6026
59.6761
59.633
59.4697
59.2139
58.9094
58.5924
58.2986
58.054
57.878
57.7928
57.8043
57.9047
58.0877
58.3525
58.6932
59.0973
59.5496
60.0335
60.536
61.047
61.5513
62.0271
62.4561
62.8261
63.1286
63.3612
63.5122
63.5748
63.5699
63.513
63.4012
63.2437
63.0375
62.7575
62.3902
61.9776
61.5301
61.0587
60.6666
60.3603
60.0786
59.8342
59.6483
59.5075
59.3698
59.2244
59.0532
58.8175
58.5437
58.3022
58.1587
58.0648
57.9668
57.9017
57.8726
57.8786
57.9401
58.0872
58.3142
58.5677
58.8501
59.1462
59.4419
59.7384
60.0533
60.3995
60.792
61.2473
61.7606
62.3356
62.9699
63.6321
64.3033
64.9592
65.5786
66.1535
66.6748
67.1512
67.5721
67.9577
68.2738
68.57
68.8131
69.0304
69.1923
69.3576
69.4963
69.6636
69.7762
69.8635
69.8968
69.9533
69.974
70.0188
69.9937
69.9632
69.8615
69.7722
69.644
69.5533
69.4157
69.3178
69.1757
69.0621
68.9128
68.7898
68.6441
68.5383
68.4005
68.3115
68.1974
68.1724
68.1242
68.1655
68.1733
68.2665
68.3067
68.4257
68.5044
68.6563
68.7434
68.9028
68.9875
69.1616
69.249
69.4234
69.5034
69.6602
69.6963
69.8247
69.8385
69.9479
69.9264
70.0026
69.937
69.9839
69.8844
69.9271
69.8205
69.8806
69.7797
69.8659
69.7746
69.8965
69.8146
69.9668
69.8729
70.0078
69.8534
69.9934
69.7875
69.8483
69.4185
69.3702
68.8932
68.8446
68.3065
68.2704
67.6007
67.5186
66.781
66.7832
65.9538
66.0161
65.1778
65.2398
64.4458
64.4929
63.7133
63.8094
63.0294
63.1658
62.3591
62.5452
61.6756
61.8525
60.7527
60.839
59.4865
59.3048
57.6686
56.8859
54.8448
53.1697
50.7326
47.938
45.6358
41.3537
38.6007
32.4699
26.8621
64.7491
64.2294
62.523
61.0358
60.0697
59.6245
59.5815
59.7461
59.9451
60.0759
60.0968
59.9981
59.7998
59.544
59.2693
59.0121
58.8022
58.6578
58.5941
58.6194
58.7291
58.9135
59.1682
59.4881
59.864
60.2819
60.726
61.1814
61.6373
62.0828
62.5018
62.8814
63.2099
63.4787
63.6863
63.8216
63.8767
63.8654
63.8038
63.6915
63.5346
63.335
63.0711
62.7165
62.296
61.8338
61.3645
60.9841
60.6777
60.3881
60.1393
59.9649
59.8482
59.7364
59.6222
59.4798
59.2628
59.0019
58.7841
58.6774
58.613
58.5322
58.4842
58.4738
58.4973
58.5791
58.7502
59.0025
59.2828
59.5913
59.9128
60.235
60.5588
60.8983
61.2658
61.6768
62.1487
62.677
63.2617
63.9065
64.58
65.2584
65.9181
66.5393
67.1136
67.6314
68.1082
68.5201
68.9022
69.201
69.4892
69.7238
69.9293