/*--------------------------------*- C++ -*----------------------------------*\
| =========                 |                                                 |
| \\      /  F ield         | OpenFOAM: The Open Source CFD Toolbox           |
|  \\    /   O peration     | Version:  2.4.0                                 |
|   \\  /    A nd           | Web:      www.OpenFOAM.org                      |
|    \\/     M anipulation  |                                                 |
\*---------------------------------------------------------------------------*/
FoamFile
{
    version     2.0;
    format      ascii;
    class       volScalarField;
    location    "0.126916";
    object      epsilon;
}
// * * * * * * * * * * * * * * * * * * * * * * * * * * * * * * * * * * * * * //

dimensions      [0 2 -3 0 0 0 0];

internalField   nonuniform List<scalar> 
17600
(
265.083
385.347
484.505
552.109
589.313
603.053
601.301
590.759
576.22
560.724
545.992
532.85
521.566
512.084
504.179
497.559
491.902
486.979
482.196
479.115
36.8025
56.6282
73.1831
86.8324
97.814
106.593
113.919
120.474
126.716
132.875
139.006
145.037
150.833
156.237
161.106
165.344
168.908
171.844
174.445
178.132
17.542
21.146
24.3411
26.9229
28.8592
30.2266
31.2078
32.0163
32.8401
33.8215
35.055
36.5919
38.4477
40.6092
43.0419
45.6973
48.5179
51.4642
54.5333
57.9996
14.6101
14.9316
15.4008
15.8275
16.125
16.2635
16.2595
16.1551
16.001
15.8458
15.732
15.6941
15.7587
15.9449
16.2657
16.7291
17.3385
18.1056
19.0292
20.2937
14.0149
13.4584
13.0867
12.8096
12.5646
12.3136
12.0403
11.7436
11.4314
11.1152
10.8075
10.5206
10.2649
10.0493
9.88102
9.76581
9.70818
9.71571
9.79184
9.99328
13.8829
13.0682
12.3956
11.8315
11.3433
10.9041
10.4954
10.1064
9.73204
9.37125
9.02507
8.69571
8.38585
8.09813
7.83496
7.59845
7.39032
7.21326
7.06876
6.97254
13.8529
12.9632
12.1837
11.5005
10.8976
10.3589
9.87048
9.4217
9.00491
8.61494
8.24852
7.90375
7.57957
7.27552
6.99142
6.72727
6.48312
6.25952
6.05663
5.87922
13.8461
12.9351
12.1197
11.3899
10.7357
10.1469
9.61355
9.12723
8.68076
8.2684
7.88567
7.52913
7.19616
6.88479
6.5935
6.32112
6.0667
5.8297
5.60951
5.4076
13.8445
12.9277
12.1007
11.3539
10.6786
10.0665
9.51013
9.00244
8.53733
8.10948
7.71438
7.34826
7.008
6.691
6.39513
6.11862
5.86
5.61811
5.39192
5.18165
13.8441
12.9257
12.0952
11.3425
10.659
10.0371
9.46986
8.95122
8.47567
8.03837
7.63507
7.26208
6.91621
6.59472
6.29525
6.01578
5.75457
5.51016
5.28128
5.06764
13.844
12.9251
12.0935
11.3388
10.6524
10.0265
9.45465
8.93089
8.45005
8.00759
7.59948
7.22217
6.87254
6.54786
6.24572
5.96403
5.70095
5.45489
5.22447
5.00916
13.844
12.9249
12.0929
11.3376
10.6501
10.0227
9.44897
8.92298
8.43969
7.99468
7.58402
7.20428
6.8524
6.5257
6.2218
5.93859
5.67422
5.42704
5.19563
4.97936
13.844
12.9248
12.0927
11.3371
10.6492
10.0213
9.44678
8.91987
8.43552
7.98933
7.57745
7.19646
6.84337
6.51554
6.21059
5.92645
5.66126
5.41337
5.18133
4.96448
13.8439
12.9247
12.0925
11.3368
10.6487
10.0206
9.44585
8.91857
8.43378
7.98708
7.57464
7.19306
6.83938
6.51096
6.20546
5.9208
5.65514
5.40683
5.17443
4.95725
13.8439
12.9247
12.0924
11.3366
10.6485
10.0203
9.44537
8.91794
8.43297
7.98606
7.57337
7.19154
6.83759
6.50889
6.20311
5.9182
5.6523
5.40378
5.17118
4.95382
13.8439
12.9246
12.0923
11.3365
10.6483
10.02
9.44507
8.91757
8.43252
7.98553
7.57274
7.1908
6.83673
6.50791
6.20201
5.91698
5.65097
5.40235
5.16966
4.95221
13.8439
12.9246
12.0922
11.3364
10.6481
10.0199
9.44486
8.91733
8.43224
7.98521
7.57238
7.19039
6.83627
6.5074
6.20146
5.91638
5.65033
5.40166
5.16894
4.95145
13.8439
12.9246
12.0922
11.3363
10.648
10.0197
9.44471
8.91717
8.43206
7.985
7.57216
7.19015
6.83601
6.50712
6.20116
5.91606
5.64999
5.40132
5.16858
4.95108
13.8439
12.9246
12.0921
11.3362
10.648
10.0197
9.44462
8.91706
8.43194
7.98488
7.57202
7.19001
6.83586
6.50696
6.20099
5.91589
5.64982
5.40114
5.1684
4.95089
13.8439
12.9246
12.0921
11.3362
10.6479
10.0196
9.44457
8.91701
8.43188
7.98482
7.57196
7.18994
6.83579
6.50689
6.20092
5.91581
5.64974
5.40106
5.16832
4.9508
13.8439
12.9246
12.0921
11.3362
10.6479
10.0196
9.44457
8.91701
8.43188
7.98482
7.57196
7.18994
6.83579
6.50689
6.20092
5.91581
5.64974
5.40106
5.16831
4.95078
13.8439
12.9246
12.0921
11.3362
10.648
10.0197
9.44462
8.91706
8.43194
7.98488
7.57202
7.19001
6.83586
6.50696
6.20099
5.91589
5.64982
5.40114
5.16838
4.95083
13.8439
12.9246
12.0922
11.3363
10.648
10.0197
9.44471
8.91717
8.43206
7.985
7.57216
7.19015
6.83601
6.50712
6.20116
5.91606
5.64999
5.40131
5.16855
4.95099
13.8439
12.9246
12.0922
11.3364
10.6481
10.0199
9.44486
8.91733
8.43224
7.98521
7.57238
7.19039
6.83627
6.5074
6.20146
5.91638
5.65032
5.40165
5.1689
4.95133
13.8439
12.9246
12.0923
11.3365
10.6483
10.02
9.44507
8.91757
8.43252
7.98553
7.57274
7.1908
6.83673
6.50791
6.20201
5.91698
5.65097
5.40233
5.16961
4.95206
13.8439
12.9247
12.0924
11.3366
10.6485
10.0203
9.44537
8.91794
8.43297
7.98606
7.57337
7.19154
6.83759
6.50889
6.20311
5.9182
5.65229
5.40376
5.17112
4.95363
13.8439
12.9247
12.0925
11.3368
10.6487
10.0206
9.44585
8.91857
8.43378
7.98708
7.57464
7.19306
6.83938
6.51096
6.20546
5.9208
5.65514
5.40681
5.17436
4.95703
13.844
12.9248
12.0927
11.3371
10.6492
10.0213
9.44679
8.91987
8.43552
7.98933
7.57745
7.19646
6.84337
6.51554
6.21059
5.92645
5.66125
5.41334
5.18125
4.96423
13.844
12.9249
12.0929
11.3376
10.6501
10.0227
9.44897
8.92298
8.43969
7.99468
7.58402
7.20428
6.8524
6.5257
6.2218
5.93859
5.67421
5.42702
5.19554
4.97906
13.844
12.9251
12.0935
11.3388
10.6524
10.0265
9.45465
8.93089
8.45005
8.00759
7.59948
7.22217
6.87254
6.54786
6.24572
5.96402
5.70094
5.45485
5.22435
5.00877
13.8441
12.9257
12.0952
11.3425
10.659
10.0371
9.46986
8.95122
8.47567
8.03837
7.63507
7.26208
6.91621
6.59472
6.29525
6.01578
5.75456
5.51009
5.2811
5.06702
13.8445
12.9277
12.1007
11.3539
10.6786
10.0665
9.51013
9.00244
8.53733
8.10948
7.71438
7.34826
7.008
6.691
6.39513
6.11861
5.85998
5.61798
5.39159
5.18045
13.8461
12.9351
12.1197
11.3899
10.7357
10.1469
9.61355
9.12723
8.68076
8.2684
7.88567
7.52912
7.19616
6.88479
6.59349
6.32109
6.06664
5.82941
5.60879
5.40482
13.8529
12.9632
12.1837
11.5005
10.8976
10.3589
9.87048
9.4217
9.00491
8.61494
8.24852
7.90374
7.57957
7.27551
6.9914
6.72721
6.48299
6.25882
6.05485
5.87173
13.8829
13.0682
12.3956
11.8315
11.3433
10.9041
10.4954
10.1064
9.73204
9.37125
9.02506
8.6957
8.38584
8.09811
7.83492
7.59831
7.38998
7.21142
7.06396
6.9495
14.0149
13.4584
13.0867
12.8096
12.5646
12.3136
12.0403
11.7436
11.4314
11.1152
10.8075
10.5206
10.2649
10.0493
9.8809
9.76541
9.70727
9.7102
9.77746
9.91339
14.6101
14.9316
15.4008
15.8275
16.125
16.2635
16.2595
16.1551
16.001
15.8458
15.732
15.6941
15.7586
15.9447
16.2653
16.728
17.3358
18.0887
18.9835
20.0188
17.542
21.146
24.3411
26.9229
28.8592
30.2265
31.2078
32.0163
32.8401
33.8215
35.055
36.5918
38.4474
40.6087
43.041
45.6944
48.5103
51.4271
54.3866
57.3363
36.8025
56.6282
73.1831
86.8324
97.814
106.593
113.919
120.474
126.716
132.875
139.005
145.037
150.833
156.236
161.104
165.338
168.888
171.754
173.99
175.673
265.083
385.347
484.505
552.109
589.313
603.053
601.301
590.76
576.22
560.724
545.992
532.85
521.567
512.086
504.182
497.564
491.932
487.014
482.578
478.432
696.881
874.148
1012.74
1109.04
1163.82
1183.36
1176.89
1153.4
1119.89
1081.15
1040.14
998.592
957.469
917.375
878.765
842.008
807.383
775.08
745.184
717.686
692.507
669.526
648.596
629.557
612.244
596.486
582.116
568.967
556.881
545.708
535.314
525.572
516.373
507.617
499.22
491.107
483.217
475.496
467.904
460.408
452.983
445.611
438.28
430.985
423.721
416.488
409.288
402.124
394.999
387.914
380.87
373.866
366.897
359.958
353.04
346.13
339.215
332.279
325.303
318.27
311.16
303.953
296.631
289.174
281.567
273.794
265.841
257.697
249.353
240.802
232.04
223.064
213.877
204.482
194.886
185.1
175.139
165.023
154.775
144.427
134.014
123.582
113.183
102.878
92.7388
82.8446
73.2831
64.1474
55.5324
47.5291
40.2183
33.6633
27.9045
22.9571
18.814
15.4528
12.8451
10.9688
9.81946
9.4188
9.81325
11.059
13.2023
16.2673
20.2483
25.0927
30.6715
36.7599
43.0545
49.2253
54.9761
60.0867
64.4246
67.9342
70.615
72.5001
73.6392
74.0869
73.8964
73.1158
71.7865
69.9394
67.5912
64.7866
61.577
58.0285
54.2317
50.3136
46.449
42.8612
39.8024
37.5033
36.1105
35.6409
35.9759
36.8951
38.1281
39.407
40.5045
41.2537
41.5531
41.3608
40.6831
39.5611
38.0587
36.2514
34.2182
32.0354
29.7727
27.4907
25.2397
23.0598
20.9812
19.0251
17.2051
15.5282
13.9962
12.6069
11.3548
10.2326
9.2315
8.34194
7.55411
6.8583
6.24513
5.70578
5.23205
4.81648
4.45233
4.1336
3.855
3.61192
3.40039
3.21704
3.05906
2.92418
2.8106
2.71707
2.6428
2.58756
2.55169
2.53626
2.54318
2.57552
2.63787
2.73705
2.88311
3.0911
3.38402
3.79798
4.3916
5.26334
6.58769
8.68274
12.2197
18.5916
32.5603
64.567
189.798
266.754
190.261
212.363
247.089
294.679
353.457
420.06
489.738
557.27
617.728
667.275
703.776
726.967
738.123
739.442
733.384
722.183
707.616
691.002
673.286
655.14
637.057
619.39
602.385
586.199
570.911
556.544
543.076
530.46
518.63
507.513
497.033
487.112
477.675
468.652
459.977
451.592
443.449
435.503
427.723
420.081
412.558
405.14
397.817
390.586
383.445
376.393
369.433
362.566
355.794
349.117
342.531
336.033
329.614
323.263
316.966
310.707
304.465
298.219
291.944
285.618
279.215
272.711
266.081
259.306
252.363
245.235
237.908
230.368
222.607
214.618
206.399
197.95
189.277
180.386
171.291
162.007
152.557
142.967
133.27
123.505
113.719
103.967
94.311
84.823
75.582
66.6741
58.1892
50.2173
42.8425
36.1371
30.1547
24.9253
20.4549
16.7285
13.7175
11.3897
9.7205
8.70469
8.36748
8.76726
9.98499
12.104
15.1926
19.2912
24.3902
30.3913
37.0737
44.1023
51.0883
57.6699
63.5732
68.6341
72.7862
76.0328
78.4181
80.0049
80.8605
81.0481
80.6243
79.6372
78.1261
76.1194
73.6264
70.6842
67.3341
63.6273
59.6328
55.4479
51.209
47.1014
43.356
40.2195
37.8981
36.4968
35.9851
36.2064
36.9205
37.8589
38.7722
39.4617
39.7923
39.6917
39.1416
38.1645
36.8113
35.1487
33.2507
31.1909
29.0378
26.8523
24.6854
22.5782
20.5622
18.6601
16.8865
15.2495
13.752
12.3926
11.1665
10.0669
9.08564
8.21345
7.44088
6.75847
6.15709
5.62808
5.16343
4.75579
4.39856
4.08584
3.81244
3.57383
3.36612
3.186
3.03073
2.89806
2.78627
2.69411
2.62084
2.56623
2.53067
2.51522
2.52182
2.55358
2.61515
2.71344
2.85875
3.06656
3.36072
3.77904
4.3836
5.28001
6.6576
8.86646
12.6442
19.5476
34.6661
69.804
199.689
261.633
59.3913
61.4231
64.4644
69.3237
77.1645
88.9207
105.606
128.091
156.851
191.676
231.479
274.279
317.455
358.228
394.206
423.807
446.4
462.224
472.098
477.113
478.369
476.835
473.287
468.319
462.375
455.784
448.794
441.587
434.295
427.012
419.794
412.675
405.667
398.77
391.979
385.283
378.671
372.134
365.666
359.262
352.92
346.642
340.431
334.293
328.233
322.26
316.379
310.597
304.918
299.342
293.869
288.492
283.202
277.987
272.829
267.709
262.603
257.485
252.328
247.103
241.783
236.339
230.744
224.974
219.007
212.823
206.408
199.748
192.836
185.667
178.243
170.566
162.646
154.497
146.137
137.59
128.884
120.057
111.149
102.209
93.2954
84.471
75.8082
67.3854
59.2862
51.5965
44.3999
37.7726
31.7769
26.4557
21.8292
17.8947
14.6308
12.0052
9.98355
8.54045
7.67048
7.40019
7.79494
8.95397
10.9931
14.0245
18.1391
23.3801
29.6953
36.8855
44.5964
52.3807
59.8006
66.5151
72.3174
77.125
80.9438
83.8309
85.8643
87.1253
87.6885
87.6188
86.9706
85.7889
84.1092
81.956
79.335
76.2763
72.8141
68.9888
64.8542
60.4857
55.9899
51.5154
47.2593
43.4559
40.3375
38.074
36.7187
36.1916
36.3028
36.8024
37.4342
37.9763
38.2636
38.1944
37.7243
36.8557
35.6242
34.0861
32.3085
30.3612
28.3105
26.2165
24.1304
22.0941
20.1398
18.2912
16.564
14.9673
13.5048
12.1758
10.9762
9.89988
8.93889
8.08449
7.32752
6.6588
6.0694
5.55089
5.0954
4.69575
4.34545
4.03873
3.7705
3.53632
3.33237
3.15543
3.0028
2.87229
2.76223
2.67139
2.59906
2.54504
2.50972
2.49419
2.50038
2.53141
2.59196
2.68902
2.833
3.03967
3.33349
3.75353
4.36456
5.27804
6.69553
8.99528
12.9656
20.318
36.1187
73.5947
195.596
254.112
20.6959
21.0978
21.5048
21.9509
22.5919
23.6084
25.1921
27.614
31.2364
36.5051
43.9491
54.1174
67.4725
84.2608
104.361
127.15
151.676
176.74
201.089
223.624
243.541
260.396
274.083
284.761
292.749
298.44
302.231
304.481
305.493
305.514
304.738
303.317
301.372
298.997
296.27
293.251
289.993
286.536
282.917
279.169
275.318
271.392
267.415
263.41
259.4
255.402
251.436
247.515
243.651
239.849
236.114
232.442
228.827
225.257
221.716
218.183
214.634
211.043
207.38
203.615
199.717
195.658
191.408
186.943
182.238
177.276
172.041
166.522
160.713
154.614
148.227
141.563
134.636
127.466
120.078
112.505
104.783
96.9589
89.0828
81.2135
73.4163
65.7632
58.3311
51.2005
44.4516
38.1607
32.3945
27.2047
22.6238
18.6626
15.3117
12.546
10.3317
8.6352
7.43224
6.71831
6.52049
6.90702
7.98824
9.90495
12.8088
16.8418
22.1065
28.6114
36.2003
44.5191
53.0691
61.3283
68.8729
75.4391
80.9193
85.3203
88.713
91.1937
92.8599
93.7988
94.0842
93.776
92.9232
91.5653
89.7332
87.4479
84.7127
81.5527
77.9968
74.0782
69.8402
65.3425
60.6697
55.9406
51.3179
47.0084
43.243
40.2271
38.0817
36.8034
36.2652
36.2538
36.5217
36.8354
37.0066
36.9067
36.4661
35.6656
34.5244
33.0869
31.4117
29.5633
27.6052
25.5956
23.5854
21.6164
19.7215
17.9249
16.2433
14.6865
13.2587
11.9601
10.7871
9.73407
8.79349
7.95698
7.21569
6.56069
5.98329
5.47524
5.02887
4.63713
4.29368
3.99286
3.72969
3.49983
3.29954
3.12567
2.97558
2.84714
2.73871
2.64912
2.57766
2.52416
2.48902
2.47332
2.47901
2.50917
2.5685
2.66399
2.80609
3.01071
3.30266
3.7218
4.33471
5.25704
6.6992
9.06121
13.1615
20.8296
36.8381
75.2174
186.266
244.626
10.0603
10.1223
10.1736
10.2133
10.2554
10.3252
10.4446
10.6394
10.9464
11.4305
12.1718
13.2719
14.8581
17.0801
20.1332
24.3092
29.8226
36.8424
45.4371
55.5396
66.9352
79.2779
92.1322
105.031
117.533
129.269
139.972
149.479
157.726
164.729
170.553
175.3
179.081
182.012
184.199
185.741
186.723
187.222
187.303
187.028
186.448
185.614
184.57
183.357
182.011
180.566
179.05
177.488
175.9
174.3
172.698
171.098
169.496
167.886
166.255
164.584
162.852
161.033
159.099
157.019
154.764
152.304
149.61
146.656
143.42
139.883
136.032
131.857
127.356
122.531
117.39
111.947
106.223
100.245
94.0464
87.6659
81.1503
74.5527
67.9324
61.3551
54.8914
48.6156
42.6035
36.9286
31.6582
26.8488
22.5417
18.7596
15.5064
12.7686
10.5201
8.72917
7.36527
6.40768
5.85444
5.7333
6.11255
7.10692
8.87295
11.5938
15.4583
20.6304
27.1903
35.0471
43.8734
53.135
62.2238
70.616
77.9719
84.1466
89.1427
93.0464
95.9756
98.0474
99.3638
100.008
100.045
99.5267
98.4946
96.9816
95.0143
92.6104
89.772
86.5208
82.8825
78.8857
74.5664
69.9736
65.176
60.2703
55.3896
50.7097
46.4424
42.8032
39.9569
37.9661
36.7706
36.2057
36.0478
36.064
36.0519
35.8609
35.398
34.6231
33.538
32.1739
30.5801
28.8145
26.9366
25.0023
23.061
21.1543
19.3151
17.568
15.93
14.4117
13.0178
11.7489
10.6021
9.57201
8.65158
7.83274
7.10693
6.46546
5.89988
5.40212
4.96467
4.58065
4.24386
3.94876
3.69047
3.46475
3.26796
3.09701
2.94932
2.82283
2.71593
2.62748
2.5568
2.50374
2.4687
2.45275
2.45783
2.487
2.54492
2.63853
2.77825
2.97999
3.26862
3.68433
4.29455
5.21731
6.66796
9.06013
13.2215
21.0411
36.8922
74.5461
175.031
234.774
6.94597
6.91923
6.89027
6.85837
6.82515
6.79362
6.76833
6.75225
6.75029
6.76963
6.81918
6.91047
7.05805
7.27962
7.59714
8.04692
8.68452
9.5684
10.7674
12.3583
14.42
17.0248
20.227
24.051
28.483
33.467
38.9079
44.6795
50.6375
56.6332
62.5263
68.1953
73.5436
78.5017
83.0267
87.0988
90.7179
93.8982
96.6644
99.0484
101.086
102.814
104.271
105.493
106.516
107.373
108.093
108.703
109.224
109.675
110.068
110.411
110.705
110.947
111.128
111.232
111.242
111.133
110.879
110.451
109.82
108.956
107.83
106.416
104.693
102.641
100.248
97.5066
94.4146
90.9773
87.2067
83.1212
78.7464
74.1147
69.2654
64.2445
59.1045
53.9039
48.7064
43.5795
38.5927
33.8152
29.312
25.1408
21.3479
17.9649
15.0073
12.4745
10.3523
8.61739
7.24255
6.20324
5.48441
5.08826
5.04379
5.41773
6.32371
7.92461
10.4244
14.0502
19.0234
25.5017
33.4787
42.6846
52.5773
62.4687
71.7211
79.8953
86.7909
92.3983
96.8193
100.197
102.673
104.368
105.374
105.764
105.591
104.895
103.71
102.063
99.9763
97.4654
94.5322
91.1962
87.4815
83.4141
79.0258
74.3581
69.4689
64.4384
59.3771
54.4326
49.7905
45.6574
42.2187
39.5858
37.7594
36.6294
36.0071
35.673
35.4198
35.0818
34.5463
33.7538
32.6887
31.3687
29.8328
28.1315
26.3193
24.4489
22.568
20.7169
18.9284
17.2269
15.6298
14.1477
12.786
11.5456
10.424
9.41609
8.51518
7.71348
7.00269
6.37434
5.8202
5.33237
4.90353
4.52693
4.19652
3.90687
3.65322
3.43143
3.23793
3.06971
2.92426
2.79956
2.69404
2.60661
2.53662
2.4839
2.44887
2.43258
2.43696
2.46502
2.52134
2.6128
2.7497
2.9478
3.23178
3.64169
4.24487
5.15981
6.6028
8.9919
13.146
20.9442
36.365
71.9171
162.187
224.965
5.82715
5.77623
5.72547
5.67456
5.62376
5.57366
5.52511
5.47892
5.43592
5.39709
5.36358
5.33685
5.31873
5.31141
5.31738
5.34194
5.3922
5.47642
5.60485
5.78995
6.04654
6.39178
6.84493
7.42678
8.15875
9.06148
10.1531
11.4473
12.9511
14.6632
16.5732
18.6615
20.9005
23.2566
25.6926
28.1703
30.6533
33.1088
35.5094
37.8339
40.0672
42.2008
44.2319
46.1622
47.9977
49.7469
51.4202
53.0286
54.5826
56.0916
57.5624
58.9991
60.4019
61.7668
63.0851
64.3435
65.5242
66.6049
67.56
68.361
68.9778
69.3798
69.5371
69.4218
69.0095
68.2798
67.2179
65.8149
64.0686
61.984
59.5735
56.857
53.8619
50.623
47.1819
43.5869
39.8915
36.1541
32.4357
28.7982
25.3018
22.0017
18.9454
16.1697
13.6989
11.5438
9.70294
8.16473
6.91121
5.92253
5.18205
4.68196
4.42971
4.45606
4.82524
5.64588
7.07895
9.3374
12.6749
17.3612
23.629
31.5698
41.0029
51.4148
62.0577
72.1719
81.1936
88.8417
95.0808
100.026
103.85
106.726
108.795
110.166
110.915
111.097
110.752
109.91
108.597
106.835
104.643
102.034
99.0122
95.5948
91.806
87.6712
83.2196
78.4883
73.5274
68.4059
63.2173
58.0864
53.1727
48.6635
44.7459
41.5603
39.1569
37.4783
36.3777
35.6586
35.1191
34.5857
33.9311
33.0788
31.9973
30.6907
29.1873
27.5298
25.7668
23.9473
22.1164
20.313
18.5687
16.9079
15.3478
13.899
12.5672
11.3535
10.2555
9.26855
8.38615
7.60076
6.90426
6.28841
5.74515
5.26677
4.84608
4.47651
4.15211
3.86758
3.61827
3.40013
3.20967
3.04396
2.90055
2.77747
2.67319
2.58665
2.51721
2.46472
2.4296
2.41289
2.41646
2.44329
2.49787
2.58694
2.72062
2.91439
3.19255
3.59449
4.18663
5.08601
6.50607
8.86001
12.943
20.558
35.3256
67.8848
147.752
213.872
5.34779
5.28953
5.23206
5.17524
5.1191
5.0638
5.00957
4.95663
4.90517
4.85538
4.80741
4.76145
4.71768
4.67632
4.63779
4.60305
4.57313
4.54939
4.53354
4.52773
4.53451
4.55692
4.59841
4.66288
4.75461
4.8782
5.0385
5.24047
5.489
5.78872
6.14375
6.55747
7.0323
7.5695
8.16909
8.82978
9.54909
10.3235
11.1487
12.0201
12.9328
13.8827
14.866
15.8801
16.9233
17.9953
19.0967
20.229
21.3943
22.5944
23.8311
25.1044
26.4129
27.7525
29.1157
30.4915
31.8646
33.2159
34.5219
35.7557
36.8878
37.887
38.7215
39.3605
39.7756
39.9421
39.8401
39.4559
38.7824
37.8202
36.5774
35.0703
33.3226
31.3655
29.2368
26.9799
24.6423
22.2743
19.9262
17.6467
15.4801
13.4637
11.6262
9.98672
8.55425
7.32909
6.30466
5.47031
4.8148
4.3302
4.01631
3.88592
3.9714
4.33381
5.0743
6.34563
8.35899
11.3808
15.7158
21.6624
29.4133
38.9029
49.6897
61.0015
71.961
81.856
90.2932
97.1896
102.667
106.933
110.197
112.631
114.361
115.472
116.02
116.04
115.56
114.6
113.18
111.318
109.031
106.333
103.226
99.7286
95.8661
91.664
87.1511
82.3618
77.3412
72.1502
66.8705
61.6094
56.5037
51.7182
47.4292
43.7886
40.8803
38.693
37.1231
36.0039
35.1473
34.3798
33.5653
32.6139
31.4804
30.1563
28.6592
27.0235
25.2917
23.5085
21.7157
19.9504
18.243
16.6169
15.0889
13.6697
12.3647
11.1752
10.0989
9.13135
8.26614
7.49592
6.81277
6.2086
5.67551
5.20595
4.79287
4.42982
4.11099
3.83119
3.58587
3.37106
3.18337
3.01992
2.87833
2.75667
2.65346
2.56765
2.49863
2.44627
2.41096
2.39372
2.3964
2.42188
2.47456
2.56103
2.69114
2.88001
3.1513
3.5434
4.12093
4.99781
6.38118
8.67084
12.6259
19.9216
33.846
63.0093
132.252
200.006
5.11918
5.05843
4.99867
4.93983
4.88188
4.82487
4.76887
4.71393
4.66013
4.6075
4.55606
4.50581
4.45672
4.40878
4.36212
4.31684
4.27308
4.23108
4.19114
4.15366
4.11916
4.08825
4.06167
4.04026
4.02499
4.01687
4.01703
4.02661
4.04678
4.07871
4.12353
4.18231
4.25605
4.34565
4.45189
4.57545
4.71693
4.87681
5.05558
5.25369
5.47168
5.71022
5.97018
6.25277
6.55952
6.89245
7.25403
7.64723
8.0755
8.54262
9.05258
9.60927
10.2161
10.8756
11.5887
12.3541
13.1677
14.022
14.9053
15.8021
16.6928
17.5543
18.3607
19.0849
19.6994
20.1782
20.4983
20.6409
20.5926
20.3467
19.9034
19.2702
18.4616
17.4989
16.409
15.2233
13.9763
12.7035
11.4394
10.2161
9.06079
7.99521
7.03449
6.18742
5.45712
4.84253
4.3403
3.94725
3.66321
3.49447
3.45793
3.58671
3.938
4.60408
5.72553
7.50323
10.2033
14.1495
19.6905
27.1132
36.482
47.4705
59.3312
71.0921
81.8768
91.1432
98.7297
104.751
109.451
113.086
115.866
117.943
119.411
120.327
120.725
120.624
120.039
118.984
117.474
115.525
113.152
110.368
107.179
103.603
99.6663
95.3963
90.8221
85.9774
80.9041
75.6576
70.3114
64.96
59.7223
54.7415
50.1764
46.1769
42.8458
40.207
38.1963
36.6803
35.491
34.4619
33.4541
32.369
31.1504
29.7784
28.261
26.6243
24.9047
23.1418
21.3743
19.6365
17.9573
16.359
14.8576
13.4634
12.1816
11.0134
9.9564
9.0062
8.15654
7.40013
6.72915
6.13567
5.6119
5.1504
4.74428
4.38719
4.07343
3.79792
3.55619
3.34438
3.15915
2.99769
2.85768
2.73723
2.6349
2.54967
2.48094
2.42857
2.39296
2.3751
2.37677
2.4008
2.45146
2.53513
2.66139
2.84486
3.10839
3.48903
4.04892
4.89736
6.23223
8.4328
12.2122
19.0851
32.0123
57.7391
116.523
182.96
5.0041
4.94237
4.88173
4.8221
4.76347
4.70584
4.64921
4.5936
4.53903
4.48551
4.43302
4.38156
4.33111
4.28164
4.23315
4.18562
4.13906
4.09349
4.04895
4.00549
3.96322
3.92224
3.88273
3.84486
3.80887
3.775
3.74356
3.71484
3.68917
3.66688
3.64831
3.63378
3.6236
3.61806
3.61743
3.62193
3.63179
3.64721
3.66837
3.6955
3.72881
3.7686
3.81522
3.86913
3.93095
4.00146
4.08165
4.17275
4.27628
4.39408
4.52826
4.68126
4.85577
5.05461
5.28059
5.53627
5.82359
6.14345
6.49523
6.87627
7.28143
7.70274
8.12934
8.54768
8.94207
9.29558
9.5911
9.81263
9.94653
9.98269
9.91533
9.74366
9.472
9.10955
8.66978
8.16951
7.62762
7.06379
6.49709
5.94478
5.42141
4.93828
4.50333
4.12155
3.79576
3.5278
3.32008
3.17767
3.11089
3.13877
3.29375
3.62849
4.22589
5.21246
6.77327
9.16338
12.7098
17.7924
24.7754
33.8547
44.8523
57.1032
69.5847
81.2566
91.3924
99.7105
106.295
111.421
115.402
118.499
120.897
122.706
123.988
124.768
125.06
124.87
124.204
123.071
121.484
119.456
117.003
114.139
110.871
107.216
103.205
98.8662
94.2307
89.3321
84.2108
78.9188
73.5235
68.1109
62.7859
57.6734
52.9131
48.6438
44.9741
41.9511
39.5436
37.6503
36.1273
34.821
33.5952
32.3475
31.0139
29.5656
28.002
26.3416
24.6144
22.8553
21.099
19.3772
17.7168
16.1385
14.6575
13.2832
12.0204
10.87
9.82957
8.89447
8.05845
7.31426
6.65413
6.07019
5.55476
5.1005
4.70061
4.34884
4.0396
3.76789
3.52934
3.32015
3.13705
2.9773
2.83862
2.71917
2.61754
2.53271
2.46412
2.41162
2.37559
2.357
2.35758
2.38006
2.42857
2.50929
2.63144
2.80909
3.06415
3.432
3.97178
4.78692
6.06374
8.15551
11.7215
18.102
29.9226
52.3831
101.378
163.457
4.9451
4.8829
4.82183
4.76184
4.70291
4.645
4.58811
4.53225
4.47741
4.42358
4.37075
4.31891
4.26804
4.21812
4.16913
4.12104
4.07383
4.02748
3.982
3.93736
3.89356
3.85064
3.80859
3.76746
3.7273
3.68816
3.6501
3.61321
3.57758
3.5433
3.51047
3.4792
3.44959
3.42174
3.39575
3.37169
3.34966
3.32974
3.31198
3.29645
3.28323
3.27238
3.26401
3.25821
3.25514
3.25499
3.258
3.2645
3.27488
3.28966
3.30946
3.33504
3.36728
3.40721
3.45596
3.51475
3.58483
3.66732
3.76313
3.87272
3.99591
4.13159
4.27752
4.43015
4.58458
4.73465
4.87322
4.99269
5.08556
5.14515
5.16624
5.14568
5.08269
4.97904
4.83884
4.6682
4.47463
4.26639
4.05176
3.83855
3.63359
3.44259
3.2702
3.12035
2.99693
2.90479
2.85118
2.84784
2.91386
3.07969
3.39301
3.92751
4.79547
6.16354
8.26848
11.4272
16.031
22.4986
31.1433
41.9537
54.4027
67.4799
80.0061
91.0443
100.144
107.32
112.869
117.166
120.54
123.22
125.342
126.971
128.131
128.824
129.044
128.788
128.058
126.859
125.202
123.102
120.575
117.634
114.289
110.558
106.473
102.066
97.3706
92.4202
87.2552
81.9255
76.4949
71.043
65.665
60.4708
55.5817
51.1212
47.1941
43.8587
41.1082
38.8702
37.0258
35.438
33.9787
32.5461
31.0722
29.522
27.8876
26.1812
24.4267
22.6543
20.8948
19.177
17.5252
15.9587
14.4912
13.1312
11.883
10.7467
9.71968
8.79714
7.97267
7.23894
6.58818
6.01255
5.5044
5.05646
4.66202
4.3149
4.00959
3.74118
3.50535
3.29839
3.11709
2.95876
2.82115
2.70247
2.60133
2.51675
2.44814
2.39539
2.35883
2.3394
2.33878
2.35961
2.40587
2.48349
2.60132
2.77281
3.01882
3.37286
3.89059
4.66874
5.88029
7.84891
11.1746
17.023
27.6779
47.1358
87.4058
142.849
4.91499
4.85252
4.79121
4.73102
4.67191
4.61386
4.55685
4.50087
4.44591
4.39196
4.339
4.28702
4.236
4.18592
4.13676
4.0885
4.04111
3.99459
3.94889
3.90401
3.85994
3.81665
3.77415
3.73242
3.69148
3.65131
3.61194
3.57337
3.53563
3.49874
3.46272
3.42761
3.39342
3.3602
3.32796
3.29675
3.26659
3.23749
3.20949
3.1826
3.15683
3.13221
3.10875
3.08647
3.0654
3.04556
3.02701
3.00982
2.99407
2.97988
2.9674
2.95684
2.94843
2.94247
2.9393
2.93932
2.94296
2.95068
2.96291
2.98003
3.00228
3.02972
3.06209
3.09875
3.13863
3.18015
3.22125
3.25951
3.29225
3.31679
3.33069
3.33202
3.3196
3.29312
3.2532
3.20132
3.1397
3.07105
2.99839
2.92479
2.85331
2.78695
2.72889
2.68283
2.65374
2.64891
2.67969
2.76383
2.92902
3.21789
3.69563
4.46125
5.66284
7.5152
10.3156
14.4496
20.3647
28.467
38.909
51.344
64.8466
78.1515
90.1066
100.042
107.853
113.83
118.413
122.012
124.92
127.309
129.256
130.78
131.871
132.51
132.681
132.375
131.59
130.331
128.611
126.444
123.847
120.834
117.416
113.611
109.456
104.984
100.231
95.2323
90.0289
84.6695
79.2156
73.7427
68.339
63.1026
58.1391
53.5551
49.4445
45.8681
42.8342
40.2933
38.1503
36.2874
34.588
32.9553
31.3209
29.6464
27.9191
26.1455
24.3447
22.5421
20.7649
19.0386
17.3851
15.8217
14.3605
13.009
11.7704
10.6443
9.62746
8.71479
7.89963
7.1745
6.53155
5.96291
5.46092
5.01836
4.62854
4.28537
3.98339
3.71774
3.4842
3.27907
3.09923
2.94201
2.80521
2.68708
2.58623
2.50171
2.43295
2.3798
2.34259
2.32223
2.32032
2.3394
2.38329
2.45769
2.57103
2.7361
2.97262
3.31207
3.80638
4.54493
5.68628
7.52258
10.5913
15.8932
25.3729
42.1174
74.9134
122.576
4.89993
4.83729
4.77583
4.71551
4.65629
4.59815
4.54107
4.48503
4.43001
4.376
4.32298
4.27093
4.21985
4.1697
4.12047
4.07215
4.0247
3.97811
3.93236
3.88743
3.84331
3.79996
3.75739
3.71558
3.67451
3.63419
3.5946
3.55574
3.51761
3.48021
3.44354
3.4076
3.3724
3.33795
3.30424
3.27128
3.23908
3.20763
3.17694
3.14701
3.11783
3.0894
3.06171
3.03475
3.00851
2.98299
2.95818
2.93407
2.91069
2.88803
2.86612
2.84501
2.82474
2.80539
2.78707
2.7699
2.754
2.73956
2.72675
2.71574
2.70669
2.69974
2.69493
2.69225
2.69151
2.69243
2.69452
2.69717
2.69961
2.70101
2.70053
2.69742
2.69108
2.68115
2.66756
2.65054
2.63062
2.6086
2.58554
2.56274
2.54178
2.52474
2.51449
2.51522
2.53342
2.57924
2.66857
2.82613
3.08985
3.51743
4.19624
5.25726
6.89278
9.37525
13.0714
18.4342
25.9308
35.857
48.0661
61.7861
75.7426
88.5951
99.4182
107.923
114.349
119.192
122.957
126.023
128.615
130.83
132.688
134.163
135.221
135.828
135.962
135.612
134.777
133.463
131.684
129.454
126.792
123.713
120.227
116.354
112.133
107.601
102.797
97.756
92.5212
87.1412
81.6763
76.1992
70.793
65.5474
60.5541
55.9034
51.6753
47.9252
44.6683
41.8719
39.4616
37.3386
35.4007
33.5595
31.7499
29.9329
28.093
26.2331
24.3679
22.519
20.7098
18.9627
17.2972
15.7282
14.2661
12.9171
11.6831
10.5631
9.55312
8.64756
7.83941
7.12098
6.48425
5.92124
5.42428
4.98613
4.60011
4.26018
3.9609
3.6975
3.46577
3.26209
3.08335
2.92694
2.79071
2.67289
2.57215
2.48752
2.41844
2.36476
2.32679
2.30539
2.30209
2.31933
2.36077
2.43183
2.54054
2.69898
2.9257
3.25004
3.72002
4.41739
5.48575
7.18527
9.99012
14.7501
23.0886
37.4055
63.9778
103.755
4.89258
4.82984
4.76829
4.70789
4.64861
4.59042
4.5333
4.47722
4.42216
4.36812
4.31507
4.26299
4.21188
4.1617
4.11243
4.06407
4.01659
3.96997
3.9242
3.87924
3.83509
3.79173
3.74915
3.70732
3.66624
3.6259
3.58629
3.54739
3.50921
3.47173
3.43495
3.39886
3.36346
3.32874
3.29471
3.26135
3.22867
3.19664
3.16527
3.13455
3.10446
3.075
3.04613
3.01786
2.99015
2.96299
2.93636
2.91024
2.88461
2.85946
2.83477
2.81055
2.78679
2.76352
2.74075
2.71852
2.69689
2.67592
2.65569
2.63629
2.61783
2.6004
2.58409
2.56898
2.55512
2.5425
2.5311
2.52081
2.51148
2.50293
2.49493
2.48725
2.47969
2.47209
2.46438
2.45657
2.44883
2.44147
2.43505
2.43043
2.42898
2.43288
2.44557
2.47264
2.52296
2.61059
2.75749
2.99744
3.38182
3.98816
4.93263
6.3866
8.59631
11.9019
16.7431
23.6166
32.9272
44.7217
58.4315
72.8603
86.5416
98.2844
107.552
114.47
119.561
123.434
126.574
129.284
131.699
133.84
135.671
137.135
138.179
138.763
138.863
138.471
137.586
136.219
134.384
132.097
129.376
126.237
122.691
118.758
114.48
109.897
105.049
99.9759
94.7197
89.3304
83.8678
78.4033
73.0163
67.7897
62.8042
58.1349
53.8463
49.9839
46.5627
43.5602
40.9186
38.5572
36.3895
34.338
32.3437
30.3703
28.4017
26.4386
24.4927
22.5824
20.7277
18.9482
17.2605
15.6773
14.2073
12.8548
11.6207
10.5028
9.49633
8.59514
7.79175
7.07812
6.44602
5.88733
5.39426
4.95956
4.57653
4.23913
3.94197
3.68029
3.44992
3.24729
3.06933
2.91344
2.7775
2.65978
2.55895
2.47405
2.40451
2.35017
2.31132
2.28877
2.28399
2.29929
2.33818
2.40581
2.50977
2.66143
2.87814
3.18706
3.63225
4.28778
5.28223
6.8445
9.38686
13.6243
20.8881
33.0516
54.5306
87.033
4.88909
4.82629
4.76469
4.70424
4.64493
4.58671
4.52956
4.47346
4.41839
4.36434
4.31127
4.25918
4.20804
4.15784
4.10856
4.06018
4.01267
3.96603
3.92022
3.87524
3.83107
3.78769
3.74509
3.70325
3.66216
3.6218
3.58218
3.54327
3.50507
3.46757
3.43076
3.39464
3.35919
3.32442
3.29031
3.25686
3.22405
3.19188
3.16033
3.1294
3.09907
3.06932
3.04013
3.01148
2.98336
2.95573
2.92858
2.90188
2.87561
2.84974
2.82426
2.79915
2.77441
2.75001
2.72598
2.70233
2.67907
2.65625
2.63391
2.61211
2.59093
2.57044
2.55073
2.53189
2.51401
2.49717
2.48144
2.46686
2.45347
2.44127
2.43027
2.42042
2.4117
2.40409
2.3976
2.39229
2.38833
2.38605
2.38605
2.38937
2.39778
2.41424
2.44358
2.49362
2.57684
2.71283
2.93186
3.28003
3.82685
4.67615
5.98116
7.96338
10.9334
15.3057