/*--------------------------------*- C++ -*----------------------------------*\
| =========                 |                                                 |
| \\      /  F ield         | OpenFOAM: The Open Source CFD Toolbox           |
|  \\    /   O peration     | Version:  2.4.0                                 |
|   \\  /    A nd           | Web:      www.OpenFOAM.org                      |
|    \\/     M anipulation  |                                                 |
\*---------------------------------------------------------------------------*/
FoamFile
{
    version     2.0;
    format      ascii;
    class       surfaceScalarField;
    location    "0.188";
    object      phi_0;
}
// * * * * * * * * * * * * * * * * * * * * * * * * * * * * * * * * * * * * * //

dimensions      [0 3 -1 0 0 0 0];

internalField   nonuniform List<scalar> 
34880
(
5.48699e-06
7.01301e-06
3.12502e-06
2.36197e-06
2.47285e-06
6.52164e-07
2.21715e-06
2.55698e-07
2.08006e-06
1.3709e-07
1.96118e-06
1.1888e-07
1.88872e-06
7.24671e-08
1.82562e-06
6.30968e-08
1.76871e-06
5.6908e-08
1.73953e-06
2.91839e-08
1.7126e-06
2.69231e-08
1.68763e-06
2.49782e-08
1.65704e-06
3.05865e-08
1.67392e-06
-1.68836e-08
1.65709e-06
1.6836e-08
1.67983e-06
-2.27462e-08
1.75314e-06
-7.33101e-08
1.91275e-06
-1.59603e-07
2.00092e-06
-8.8176e-08
-1.73225e-06
3.73317e-06
1.01102e-05
9.40284e-06
7.82834e-06
4.6438e-06
6.70937e-06
1.77113e-06
6.06365e-06
9.01421e-07
5.64953e-06
5.51207e-07
5.34188e-06
4.26529e-07
5.12649e-06
2.87862e-07
4.94835e-06
2.4123e-07
4.80028e-06
2.04977e-07
4.70599e-06
1.2348e-07
4.61961e-06
1.13301e-07
4.54019e-06
1.04397e-07
4.48023e-06
9.05448e-08
4.4592e-06
4.15249e-09
4.40809e-06
6.79458e-08
4.44576e-06
-6.04177e-08
4.49652e-06
-1.24072e-07
4.73584e-06
-3.98925e-07
5.03851e-06
-3.90843e-07
-3.18298e-06
6.48924e-06
1.24264e-05
9.47642e-06
1.10003e-05
6.06994e-06
9.97804e-06
2.79338e-06
9.20532e-06
1.67414e-06
8.61902e-06
1.13751e-06
8.18491e-06
8.60631e-07
7.86029e-06
6.12486e-07
7.59706e-06
5.0446e-07
7.37635e-06
4.25688e-07
7.22682e-06
2.73007e-07
7.09137e-06
2.4875e-07
6.96289e-06
2.32878e-07
6.8834e-06
1.7004e-07
6.81831e-06
6.92433e-08
6.73545e-06
1.50801e-07
6.77867e-06
-1.03633e-07
6.78214e-06
-1.27548e-07
7.00512e-06
-6.21901e-07
7.46244e-06
-8.48161e-07
-4.46014e-06
8.73959e-06
1.34156e-05
8.56085e-06
1.28855e-05
6.60003e-06
1.23208e-05
3.35808e-06
1.17225e-05
2.2724e-06
1.1129e-05
1.731e-06
1.06563e-05
1.33334e-06
1.02762e-05
9.92563e-07
9.96055e-06
8.20139e-07
9.6932e-06
6.93046e-07
9.50102e-06
4.65178e-07
9.33418e-06
4.15594e-07
9.1607e-06
4.06355e-07
9.06953e-06
2.6121e-07
8.97143e-06
1.67346e-07
8.8524e-06
2.69834e-07
8.90131e-06
-1.52541e-07
8.86951e-06
-9.57517e-08
9.02047e-06
-7.72858e-07
9.5889e-06
-1.41659e-06
-5.54498e-06
1.06737e-05
1.35957e-05
7.46516e-06
1.36592e-05
6.53653e-06
1.36124e-05
3.40487e-06
1.3411e-05
2.47381e-06
1.30085e-05
2.13347e-06
1.26256e-05
1.71629e-06
1.22765e-05
1.34168e-06
1.19638e-05
1.13282e-06
1.16937e-05
9.63164e-07
1.14806e-05
6.78239e-07
1.13116e-05
5.84578e-07
1.11056e-05
6.12329e-07
1.10139e-05
3.52909e-07
1.09019e-05
2.7944e-07
1.07496e-05
4.22134e-07
1.08054e-05
-2.08436e-07
1.07553e-05
-4.55885e-08
1.083e-05
-8.47612e-07
1.14299e-05
-2.01641e-06
-6.61345e-06
1.24983e-05
1.34902e-05
6.475e-06
1.37602e-05
6.2665e-06
1.39767e-05
3.18839e-06
1.41573e-05
2.29322e-06
1.40659e-05
2.22483e-06
1.3901e-05
1.88116e-06
1.36996e-05
1.54315e-06
1.3472e-05
1.36042e-06
1.32678e-05
1.16733e-06
1.30715e-05
8.74552e-07
1.29422e-05
7.13902e-07
1.27296e-05
8.24881e-07
1.2652e-05
4.30477e-07
1.25523e-05
3.79215e-07
1.2383e-05
5.91386e-07
1.2447e-05
-2.72435e-07
1.23929e-05
8.49795e-09
1.24138e-05
-8.68479e-07
1.29976e-05
-2.60022e-06
-7.60938e-06
1.39935e-05
1.33691e-05
5.6059e-06
1.37227e-05
5.91287e-06
1.38992e-05
3.01195e-06
1.4231e-05
1.96134e-06
1.4367e-05
2.08884e-06
1.44105e-05
1.83769e-06
1.44097e-05
1.544e-06
1.43346e-05
1.43543e-06
1.42748e-05
1.22721e-06
1.4146e-05
1.0033e-06
1.41125e-05
7.47448e-07
1.39382e-05
9.991e-07
1.38971e-05
4.71594e-07
1.38409e-05
4.35488e-07
1.36902e-05
7.42009e-07
1.37654e-05
-3.47623e-07
1.37159e-05
5.79686e-08
1.3741e-05
-8.93571e-07
1.42251e-05
-3.0843e-06
-7.66389e-06
1.42796e-05
1.32554e-05
4.85047e-06
1.3748e-05
5.42027e-06
1.37851e-05
2.97489e-06
1.40918e-05
1.65467e-06
1.43076e-05
1.87299e-06
1.44424e-05
1.70292e-06
1.45557e-05
1.43072e-06
1.45956e-05
1.39551e-06
1.46807e-05
1.14207e-06
1.46238e-05
1.06019e-06
1.47132e-05
6.58072e-07
1.46261e-05
1.08621e-06
1.4645e-05
4.52669e-07
1.4664e-05
4.16491e-07
1.45839e-05
8.22156e-07
1.46792e-05
-4.42907e-07
1.46523e-05
8.48047e-08
1.47361e-05
-9.77307e-07
1.50894e-05
-3.43765e-06
-7.00874e-06
1.44343e-05
1.31415e-05
4.20895e-06
1.36976e-05
4.86419e-06
1.37363e-05
2.9362e-06
1.39698e-05
1.42117e-06
1.41831e-05
1.65964e-06
1.43383e-05
1.54773e-06
1.44817e-05
1.28737e-06
1.45738e-05
1.30337e-06
1.47355e-05
9.80427e-07
1.47016e-05
1.09404e-06
1.48417e-05
5.17965e-07
1.48434e-05
1.08451e-06
1.48877e-05
4.08451e-07
1.49749e-05
3.29226e-07
1.50058e-05
7.91234e-07
1.51032e-05
-5.40265e-07
1.51335e-05
5.44621e-08
1.53354e-05
-1.17913e-06
1.55901e-05
-3.69241e-06
-7.39563e-06
1.5977e-05
1.30527e-05
3.65625e-06
1.35962e-05
4.32072e-06
1.37094e-05
2.82299e-06
1.3907e-05
1.22355e-06
1.40958e-05
1.47084e-06
1.4233e-05
1.41054e-06
1.43554e-05
1.16495e-06
1.44711e-05
1.18764e-06
1.46788e-05
7.72748e-07
1.46825e-05
1.09034e-06
1.47865e-05
4.14011e-07
1.48701e-05
1.00092e-06
1.48489e-05
4.29632e-07
1.49629e-05
2.15218e-07
1.50917e-05
6.62438e-07
1.51048e-05
-5.53359e-07
1.52522e-05
-9.30006e-08
1.55693e-05
-1.49621e-06
1.56834e-05
-3.80651e-06
-7.4166e-06
1.57044e-05
1.3e-05
3.15622e-06
1.35082e-05
3.81252e-06
1.36675e-05
2.66376e-06
1.38489e-05
1.04214e-06
1.40452e-05
1.27454e-06
1.41719e-05
1.28377e-06
1.42518e-05
1.08511e-06
1.43658e-05
1.07364e-06
1.45801e-05
5.58441e-07
1.46225e-05
1.04788e-06
1.4709e-05
3.2753e-07
1.48511e-05
8.58857e-07
1.47688e-05
5.11887e-07
1.49378e-05
4.62589e-08
1.50133e-05
5.86896e-07
1.49531e-05
-4.93111e-07
1.52817e-05
-4.21571e-07
1.55603e-05
-1.77484e-06
1.55198e-05
-3.76605e-06
-7.23634e-06
1.53396e-05
1.29639e-05
2.69232e-06
1.34402e-05
3.33618e-06
1.36118e-05
2.49217e-06
1.37913e-05
8.62714e-07
1.40118e-05
1.05395e-06
1.41275e-05
1.16812e-06
1.41875e-05
1.02514e-06
1.43058e-05
9.5534e-07
1.44709e-05
3.93299e-07
1.45219e-05
9.96844e-07
1.46569e-05
1.92567e-07
1.4765e-05
7.50729e-07
1.47625e-05
5.14467e-07
1.49447e-05
-1.36018e-07
1.48538e-05
6.77838e-07
1.49067e-05
-5.46017e-07
1.52623e-05
-7.7715e-07
1.53989e-05
-1.91148e-06
1.53426e-05
-3.7097e-06
-7.04956e-06
1.51558e-05
1.29262e-05
2.26613e-06
1.33751e-05
2.88725e-06
1.3583e-05
2.28425e-06
1.37654e-05
6.80363e-07
1.39716e-05
8.47755e-07
1.40566e-05
1.08308e-06
1.41391e-05
9.42655e-07
1.42724e-05
8.22013e-07
1.43957e-05
2.70062e-07
1.44703e-05
9.22213e-07
1.45857e-05
7.7196e-08
1.46643e-05
6.72074e-07
1.47614e-05
4.17363e-07
1.48569e-05
-2.31472e-07
1.47824e-05
7.52358e-07
1.49438e-05
-7.07438e-07
1.51331e-05
-9.66429e-07
1.52401e-05
-2.01847e-06
1.52622e-05
-3.73189e-06
-6.76847e-06
1.49812e-05
1.28858e-05
1.88038e-06
1.33256e-05
2.44742e-06
1.36028e-05
2.00707e-06
1.37369e-05
5.4622e-07
1.39077e-05
6.76934e-07
1.39832e-05
1.00762e-06
1.41162e-05
8.09658e-07
1.4246e-05
6.92234e-07
1.43518e-05
1.64222e-07
1.44634e-05
8.10614e-07
1.44763e-05
6.43108e-08
1.45926e-05
5.5573e-07
1.47123e-05
2.97644e-07
1.47444e-05
-2.63479e-07
1.48139e-05
6.82855e-07
1.49375e-05
-8.3109e-07
1.49998e-05
-1.02873e-06
1.51294e-05
-2.14808e-06
1.51856e-05
-3.78803e-06
-6.41103e-06
1.48281e-05
1.2851e-05
1.52935e-06
1.3299e-05
1.99949e-06
1.35854e-05
1.7206e-06
1.36874e-05
4.44262e-07
1.38491e-05
5.15252e-07
1.39482e-05
9.08499e-07
1.41121e-05
6.45765e-07
1.4212e-05
5.9233e-07
1.43144e-05
6.18477e-08
1.44332e-05
6.91801e-07
1.43921e-05
1.05421e-07
1.45709e-05
3.76869e-07
1.46414e-05
2.27176e-07
1.4692e-05
-3.14129e-07
1.48488e-05
5.26094e-07
1.4869e-05
-8.51257e-07
1.49161e-05
-1.07581e-06
1.5071e-05
-2.30304e-06
1.50894e-05
-3.80639e-06
-6.16216e-06
1.48405e-05
1.28295e-05
1.19987e-06
1.32688e-05
1.5602e-06
1.355e-05
1.43936e-06
1.36663e-05
3.27997e-07
1.38175e-05
3.63985e-07
1.39201e-05
8.05911e-07
1.40827e-05
4.83195e-07
1.41764e-05
4.98635e-07
1.43018e-05
-6.35911e-08
1.43798e-05
6.13782e-07
1.43803e-05
1.04988e-07
1.45616e-05
1.95532e-07
1.45711e-05
2.17678e-07
1.46811e-05
-4.24108e-07
1.48356e-05
3.71623e-07
1.47827e-05
-7.98351e-07
1.4923e-05
-1.21617e-06
1.50277e-05
-2.40774e-06
1.49719e-05
-3.75055e-06
-6.19185e-06
1.50016e-05
1.28071e-05
8.92805e-07
1.3226e-05
1.14129e-06
1.35365e-05
1.12887e-06
1.36741e-05
1.90358e-07
1.37737e-05
2.64416e-07
1.38779e-05
7.01661e-07
1.4057e-05
3.04162e-07
1.41717e-05
3.83849e-07
1.42871e-05
-1.7898e-07
1.43426e-05
5.58317e-07
1.43907e-05
5.68505e-08
1.45018e-05
8.44876e-08
1.45462e-05
1.73304e-07
1.46712e-05
-5.49145e-07
1.47695e-05
2.73309e-07
1.47596e-05
-7.88481e-07
1.49559e-05
-1.41246e-06
1.49291e-05
-2.38096e-06
1.47765e-05
-3.59794e-06
-4.87851e-06
1.34632e-05
1.27825e-05
6.10315e-07
1.32036e-05
7.20128e-07
1.35457e-05
7.868e-07
1.36549e-05
8.11249e-08
1.37179e-05
2.01433e-07
1.38685e-05
5.51079e-07
1.40672e-05
1.05464e-07
1.41708e-05
2.80264e-07
1.42223e-05
-2.30517e-07
1.43348e-05
4.45857e-07
1.43705e-05
2.11038e-08
1.44607e-05
-5.64993e-09
1.45562e-05
7.77616e-08
1.46388e-05
-6.31758e-07
1.47012e-05
2.10944e-07
1.47955e-05
-8.82743e-07
1.48888e-05
-1.50584e-06
1.48544e-05
-2.34657e-06
1.4824e-05
-3.5675e-06
-5.07222e-06
1.50177e-05
1.27741e-05
3.36203e-07
1.32008e-05
2.93483e-07
1.35318e-05
4.55723e-07
1.36188e-05
-5.83207e-09
1.37083e-05
1.11917e-07
1.38906e-05
3.68809e-07
1.40669e-05
-7.08882e-08
1.41295e-05
2.17682e-07
1.41752e-05
-2.76244e-07
1.43415e-05
2.79551e-07
1.43594e-05
3.23867e-09
1.44703e-05
-1.16579e-07
1.45527e-05
-4.63256e-09
1.45597e-05
-6.38743e-07
1.47112e-05
5.94829e-08
1.47838e-05
-9.55388e-07
1.48046e-05
-1.5266e-06
1.48331e-05
-2.37509e-06
1.48393e-05
-3.57368e-06
-5.22904e-06
1.49961e-05
1.2773e-05
6.31853e-08
1.31902e-05
-1.23701e-07
1.35072e-05
1.38716e-07
1.36209e-05
-1.19561e-07
1.37336e-05
-7.23135e-10
1.38874e-05
2.14989e-07
1.40318e-05
-2.15317e-07
1.41031e-05
1.46455e-07
1.41906e-05
-3.63797e-07
1.43537e-05
1.1641e-07
1.43637e-05
-6.76356e-09
1.44825e-05
-2.35327e-07
1.44977e-05
-1.98329e-08
1.45508e-05
-6.91826e-07
1.47362e-05
-1.25959e-07
1.47512e-05
-9.704e-07
1.47832e-05
-1.55855e-06
1.48513e-05
-2.44317e-06
1.48473e-05
-3.5697e-06
-5.27894e-06
1.48972e-05
1.27683e-05
-2.0513e-07
1.31858e-05
-5.41192e-07
1.35103e-05
-1.85777e-07
1.36422e-05
-2.51453e-07
1.3736e-05
-9.44884e-08
1.38646e-05
8.63549e-08
1.40128e-05
-3.6348e-07
1.41275e-05
3.17544e-08
1.4212e-05
-4.48354e-07
1.43481e-05
-1.96773e-08
1.43767e-05
-3.53239e-08
1.44479e-05
-3.06547e-07
1.44867e-05
-5.86196e-08
1.45994e-05
-8.04572e-07
1.47227e-05
-2.49217e-07
1.47161e-05
-9.63877e-07
1.48202e-05
-1.66261e-06
1.48278e-05
-2.45078e-06
1.48026e-05
-3.54449e-06
-5.3517e-06
1.48754e-05
1.27716e-05
-4.76749e-07
1.32014e-05
-9.70947e-07
1.35262e-05
-5.10563e-07
1.3642e-05
-3.67311e-07
1.37211e-05
-1.73545e-07
1.38668e-05
-5.93754e-08
1.40309e-05
-5.27596e-07
1.41577e-05
-9.5001e-08
1.42057e-05
-4.96392e-07
1.43426e-05
-1.5659e-07
1.43821e-05
-7.48329e-08
1.44235e-05
-3.47956e-07
1.45416e-05
-1.767e-07
1.45962e-05
-8.59096e-07
1.46941e-05
-3.47208e-07
1.4712e-05
-9.81746e-07
1.48443e-05
-1.79486e-06
1.47992e-05
-2.40569e-06
1.46232e-05
-3.36848e-06
-4.07408e-06
1.33455e-05
1.27888e-05
-7.65535e-07
1.32196e-05
-1.40173e-06
1.3531e-05
-8.21969e-07
1.36344e-05
-4.70743e-07
1.37267e-05
-2.65788e-07
1.38952e-05
-2.27945e-07
1.40534e-05
-6.85774e-07
1.41662e-05
-2.07821e-07
1.41996e-05
-5.29801e-07
1.4361e-05
-3.18001e-07
1.43738e-05
-8.75868e-08
1.44618e-05
-4.35977e-07
1.45716e-05
-2.86445e-07
1.45823e-05
-8.69866e-07
1.46747e-05
-4.39538e-07
1.47631e-05
-1.07016e-06
1.48201e-05
-1.85185e-06
1.48058e-05
-2.39139e-06
1.47537e-05
-3.31642e-06
-4.21506e-06
1.48947e-05
1.28097e-05
-1.07523e-06
1.32328e-05
-1.82489e-06
1.35399e-05
-1.12904e-06
1.36446e-05
-5.75393e-07
1.37517e-05
-3.72952e-07
1.39205e-05
-3.96678e-07
1.40631e-05
-8.2842e-07
1.41741e-05
-3.18784e-07
1.42304e-05
-5.86092e-07
1.43762e-05
-4.63824e-07
1.43955e-05
-1.06869e-07
1.44982e-05
-5.38687e-07
1.45822e-05
-3.70414e-07
1.45791e-05
-8.66839e-07
1.46882e-05
-5.48619e-07
1.47894e-05
-1.17136e-06
1.48101e-05
-1.87251e-06
1.4827e-05
-2.40834e-06
1.47746e-05
-3.26402e-06
-4.19142e-06
1.4751e-05
1.28313e-05
-1.40656e-06
1.3257e-05
-2.25052e-06
1.35643e-05
-1.43636e-06
1.3663e-05
-6.74139e-07
1.37737e-05
-4.83583e-07
1.3946e-05
-5.68995e-07
1.40756e-05
-9.58018e-07
1.42113e-05
-4.54499e-07
1.42674e-05
-6.42214e-07
1.43897e-05
-5.86069e-07
1.4425e-05
-1.42211e-07
1.45231e-05
-6.36822e-07
1.45865e-05
-4.33754e-07
1.46033e-05
-8.83697e-07
1.47162e-05
-6.6143e-07
1.48088e-05
-1.26402e-06
1.48197e-05
-1.88339e-06
1.48456e-05
-2.43428e-06
1.47952e-05
-3.21357e-06
-4.1776e-06
1.47814e-05
1.28609e-05
-1.76742e-06
1.32983e-05
-2.68796e-06
1.35897e-05
-1.7278e-06
1.36796e-05
-7.63997e-07
1.38045e-05
-6.08451e-07
1.398e-05
-7.44546e-07
1.41113e-05
-1.08929e-06
1.42542e-05
-5.97391e-07
1.42932e-05
-6.81181e-07
1.44091e-05
-7.02011e-07
1.44678e-05
-2.0095e-07
1.45339e-05
-7.02918e-07
1.46172e-05
-5.17004e-07
1.46418e-05
-9.08275e-07
1.47568e-05
-7.76498e-07
1.48203e-05
-1.32746e-06
1.48565e-05
-1.91964e-06
1.48419e-05
-2.41966e-06
1.48182e-05
-3.18988e-06
-4.37246e-06
1.50131e-05
1.29005e-05
-2.16796e-06
1.33466e-05
-3.13399e-06
1.36084e-05
-1.98962e-06
1.3703e-05
-8.58592e-07
1.3848e-05
-7.53488e-07
1.40252e-05
-9.21778e-07
1.4158e-05
-1.22205e-06
1.42885e-05
-7.27861e-07
1.43259e-05
-7.18635e-07
1.44445e-05
-8.20546e-07
1.45117e-05
-2.68192e-07
1.45525e-05
-7.43678e-07
1.46689e-05
-6.33438e-07
1.469e-05
-9.29406e-07
1.47955e-05
-8.82007e-07
1.48413e-05
-1.37319e-06
1.48994e-05
-1.97772e-06
1.48561e-05
-2.37645e-06
1.47248e-05
-3.05855e-06
-3.16751e-06
1.35198e-05
1.29508e-05
-2.61871e-06
1.33943e-05
-3.57758e-06
1.35927e-05
-2.18802e-06
1.37359e-05
-1.00174e-06
1.39029e-05
-9.20463e-07
1.40864e-05
-1.10528e-06
1.42127e-05
-1.34837e-06
1.43239e-05
-8.39098e-07
1.43665e-05
-7.61255e-07
1.4489e-05
-9.42982e-07
1.45411e-05
-3.20328e-07
1.46059e-05
-8.08437e-07
1.47208e-05
-7.48385e-07
1.47632e-05
-9.71787e-07
1.48145e-05
-9.33321e-07
1.4912e-05
-1.47073e-06
1.49079e-05
-1.97358e-06
1.49105e-05
-2.37906e-06
1.48821e-05
-3.03015e-06
-3.38787e-06
1.51025e-05
1.30084e-05
-3.12707e-06
1.34341e-05
-4.00329e-06
1.35815e-05
-2.33542e-06
1.37849e-05
-1.20513e-06
1.39801e-05
-1.11568e-06
1.41559e-05
-1.28114e-06
1.42662e-05
-1.4586e-06
1.43528e-05
-9.2569e-07
1.44177e-05
-8.26155e-07
1.45225e-05
-1.04784e-06
1.46023e-05
-4.00099e-07
1.46697e-05
-8.75896e-07
1.47909e-05
-8.69573e-07
1.48186e-05
-9.99468e-07
1.48661e-05
-9.80863e-07
1.49537e-05
-1.55826e-06
1.49181e-05
-1.93799e-06
1.49652e-05
-2.42615e-06
1.49214e-05
-2.98641e-06
-3.51253e-06
1.50461e-05
1.30602e-05
-3.68724e-06
1.34697e-05
-4.41286e-06
1.36163e-05
-2.48194e-06
1.38632e-05
-1.45206e-06
1.40623e-05
-1.31476e-06
1.42163e-05
-1.43518e-06
1.43121e-05
-1.55434e-06
1.43875e-05
-1.00116e-06
1.44753e-05
-9.1397e-07
1.45767e-05
-1.14923e-06
1.46844e-05
-5.07758e-07
1.47394e-05
-9.30883e-07
1.48604e-05
-9.90593e-07
1.48739e-05
-1.01302e-06
1.49251e-05
-1.03203e-06
1.49821e-05
-1.61523e-06
1.49589e-05
-1.91476e-06
1.49936e-05
-2.46085e-06
1.49377e-05
-2.93057e-06
-3.61179e-06
1.5037e-05
1.31023e-05
-4.28955e-06
1.352e-05
-4.83053e-06
1.36931e-05
-2.65503e-06
1.39517e-05
-1.71064e-06
1.41274e-05
-1.49054e-06
1.42796e-05
-1.58731e-06
1.4367e-05
-1.64175e-06
1.44412e-05
-1.07535e-06
1.45582e-05
-1.03102e-06
1.46577e-05
-1.24876e-06
1.47646e-05
-6.14625e-07
1.48163e-05
-9.82583e-07
1.49178e-05
-1.09205e-06
1.49262e-05
-1.02141e-06
1.49648e-05
-1.07064e-06
1.49931e-05
-1.64353e-06
1.49571e-05
-1.87879e-06
1.49297e-05
-2.43343e-06
1.48409e-05
-2.84177e-06
-3.68264e-06
1.49117e-05
1.31508e-05
-4.94036e-06
1.36035e-05
-5.28323e-06
1.37927e-05
-2.8442e-06
1.40212e-05
-1.93912e-06
1.41977e-05
-1.66708e-06
1.43671e-05
-1.7567e-06
1.44375e-05
-1.71213e-06
1.4528e-05
-1.16585e-06
1.46595e-05
-1.16256e-06
1.47204e-05
-1.30967e-06
1.48143e-05
-7.08549e-07
1.48481e-05
-1.01631e-06
1.48947e-05
-1.13872e-06
1.4881e-05
-1.00766e-06
1.48841e-05
-1.07378e-06
1.48362e-05
-1.59555e-06
1.4748e-05
-1.79066e-06
1.46005e-05
-2.2859e-06
1.44292e-05
-2.67043e-06
-3.72605e-06
1.44726e-05
1.32276e-05
-5.66793e-06
1.36973e-05
-5.75299e-06
1.38787e-05
-3.02552e-06
1.40946e-05
-2.15509e-06
1.43105e-05
-1.88297e-06
1.44619e-05
-1.90808e-06
1.45015e-05
-1.7517e-06
1.45866e-05
-1.25099e-06
1.46566e-05
-1.23255e-06
1.46347e-05
-1.28776e-06
1.46757e-05
-7.49536e-07
1.46378e-05
-9.78428e-07
1.45848e-05
-1.08576e-06
1.45144e-05
-9.37193e-07
1.44396e-05
-9.99039e-07
1.42907e-05
-1.4466e-06
1.41213e-05
-1.6213e-06
1.38641e-05
-2.0287e-06
1.35353e-05
-2.34159e-06
-2.77668e-06
1.25859e-05
1.33349e-05
-6.5028e-06
1.37197e-05
-6.13784e-06
1.39672e-05
-3.27302e-06
1.42023e-05
-2.39019e-06
1.43874e-05
-2.06808e-06
1.44236e-05
-1.94428e-06
1.43674e-05
-1.69543e-06
1.43464e-05
-1.23002e-06
1.42684e-05
-1.15458e-06
1.41286e-05
-1.14791e-06
1.40693e-05
-6.90287e-07
1.39338e-05
-8.42902e-07
1.37849e-05
-9.36839e-07
1.36544e-05
-8.0669e-07
1.35075e-05
-8.52145e-07
1.32902e-05
-1.2293e-06
1.30552e-05
-1.38638e-06
1.27386e-05
-1.71206e-06
1.2397e-05
-2e-06
-2.58075e-06
1.22011e-05
1.34695e-05
-7.4723e-06
1.37867e-05
-6.455e-06
1.40044e-05
-3.49076e-06
1.41296e-05
-2.51535e-06
1.40949e-05
-2.03343e-06
1.39019e-05
-1.75124e-06
1.36666e-05
-1.46017e-06
1.3483e-05
-1.04639e-06
1.32636e-05
-9.35151e-07
1.30341e-05
-9.18395e-07
1.28977e-05
-5.53959e-07
1.27052e-05
-6.50335e-07
1.2509e-05
-7.40664e-07
1.23452e-05
-6.42938e-07
1.21619e-05
-6.68777e-07
1.19117e-05
-9.79083e-07
1.16428e-05
-1.11754e-06
1.12975e-05
-1.36679e-06
1.08954e-05
-1.59788e-06
-1.89093e-06
1.02056e-05
1.35868e-05
-8.55913e-06
1.36861e-05
-6.55422e-06
1.36178e-05
-3.42249e-06
1.33915e-05
-2.28905e-06
1.30324e-05
-1.67434e-06
1.26205e-05
-1.33934e-06
1.22503e-05
-1.08995e-06
1.1969e-05
-7.65097e-07
1.16897e-05
-6.55905e-07
1.14321e-05
-6.60763e-07
1.12673e-05
-3.89164e-07
1.10634e-05
-4.4648e-07
1.08583e-05
-5.3551e-07
1.06851e-05
-4.69722e-07
1.04927e-05
-4.76395e-07
1.0235e-05
-7.21442e-07
9.95533e-06
-8.37823e-07
9.60099e-06
-1.01245e-06
9.20238e-06
-1.19926e-06
-1.36313e-06
8.67458e-06
1.34128e-05
-9.47195e-06
1.29067e-05
-6.04814e-06
1.23169e-05
-2.83267e-06
1.17093e-05
-1.68141e-06
1.11448e-05
-1.10985e-06
1.06529e-05
-8.47405e-07
1.02541e-05
-6.91185e-07
9.95966e-06
-4.70667e-07
9.69046e-06
-3.86698e-07
9.44754e-06
-4.17847e-07
9.28984e-06
-2.31469e-07
9.10603e-06
-2.62664e-07
8.91475e-06
-3.44228e-07
8.7497e-06
-3.04676e-07
8.5698e-06
-2.965e-07
8.32453e-06
-4.76169e-07
8.05037e-06
-5.63661e-07
7.71304e-06
-6.75117e-07
7.3231e-06
-8.09321e-07
-9.2568e-07
6.88564e-06
1.24276e-05
-9.39958e-06
1.10152e-05
-4.63575e-06
9.97177e-06
-1.7892e-06
9.19628e-06
-9.05922e-07
8.62695e-06
-5.40517e-07
8.18646e-06
-4.06915e-07
7.83938e-06
-3.44106e-07
7.59122e-06
-2.2251e-07
7.37621e-06
-1.71688e-07
7.17355e-06
-2.15183e-07
7.04735e-06
-1.05265e-07
6.9035e-06
-1.18814e-07
6.74085e-06
-1.81585e-07
6.59818e-06
-1.62002e-07
6.44792e-06
-1.46237e-07
6.23067e-06
-2.58923e-07
5.98047e-06
-3.1346e-07
5.67952e-06
-3.7417e-07
5.31891e-06
-4.48704e-07
-5.44954e-07
4.93818e-06
1.01123e-05
-7.01193e-06
7.83687e-06
-2.36027e-06
6.7044e-06
-6.56739e-07
6.0569e-06
-2.58419e-07
5.6515e-06
-1.35123e-07
5.34944e-06
-1.04851e-07
5.10492e-06
-9.95821e-08
4.93996e-06
-5.75489e-08
4.80498e-06
-3.67113e-08
4.65835e-06
-6.85529e-08
4.57916e-06
-2.60816e-08
4.48717e-06
-2.68233e-08
4.36517e-06
-5.95773e-08
4.25782e-06
-5.4651e-08
4.15266e-06
-4.10806e-08
3.98112e-06
-8.73829e-08
3.77905e-06
-1.11391e-07
3.53715e-06
-1.3227e-07
3.24441e-06
-1.55965e-07
-2.32265e-07
2.93172e-06
5.48807e-06
3.1278e-06
2.47106e-06
2.21264e-06
2.07752e-06
1.97267e-06
1.87309e-06
1.81554e-06
1.77883e-06
1.71027e-06
1.68419e-06
1.65737e-06
1.59779e-06
1.54314e-06
1.50206e-06
1.41468e-06
1.30329e-06
1.17102e-06
1.01505e-06
7.82787e-07
5.30736e-06
-2.34194e-06
7.67756e-07
6.16418e-06
-4.49152e-06
3.63469e-06
6.37334e-06
-6.64954e-06
6.44038e-06
6.02575e-06
-8.20287e-06
8.55045e-06
5.40989e-06
-9.68003e-06
1.02959e-05
4.52156e-06
-1.03652e-05
1.12535e-05
3.64634e-06
-1.01917e-05
1.10669e-05
2.41988e-06
-9.04656e-06
1.0273e-05
8.56209e-07
-7.786e-06
9.34968e-06
4.19733e-07
-6.03545e-06
6.47193e-06
1.13434e-06
3.45487e-07
-1.06009e-06
2.13584e-06
7.61089e-06
-8.6124e-06
3.88794e-06
1.38344e-05
-1.55865e-05
4.63937e-06
2.28842e-05
-2.36356e-05
5.9108e-06
2.36023e-05
-2.48737e-05
6.02345e-06
1.53128e-05
-1.54255e-05
6.25832e-06
1.33659e-05
-1.36008e-05
6.94576e-06
1.1204e-05
-1.18915e-05
7.67153e-06
8.76755e-06
-9.49332e-06
8.71147e-06
6.96358e-06
-8.00352e-06
9.56144e-06
3.25855e-06
-4.10852e-06
1.07045e-05
-9.53708e-07
-1.89328e-07
1.19704e-05
-4.20209e-06
2.93617e-06
1.29606e-05
-7.65248e-06
6.66224e-06
1.36147e-05
-1.02859e-05
9.63178e-06
1.41424e-05
-1.24763e-05
1.19486e-05
1.46744e-05
-1.5137e-05
1.4605e-05
1.54725e-05
-1.68505e-05
1.60524e-05
1.64157e-05
-1.8683e-05
1.77397e-05
1.6886e-05
-2.0625e-05
2.01547e-05
1.68289e-05
-2.09731e-05
2.10302e-05
1.64887e-05
-2.12487e-05
2.15889e-05
1.59438e-05
-2.14935e-05
2.20384e-05
1.53725e-05
-2.10279e-05
2.15992e-05
1.49137e-05
-2.11397e-05
2.15985e-05
1.44476e-05
-2.12713e-05
2.17373e-05
1.39543e-05
-2.06619e-05
2.11552e-05
1.36597e-05
-2.01374e-05
2.0432e-05
1.33745e-05
-2.04916e-05
2.07768e-05
1.29394e-05
-2.0168e-05
2.06031e-05
1.26627e-05
-1.88848e-05
1.91615e-05
1.26915e-05
-1.91844e-05
1.91556e-05
1.28157e-05
-2.05001e-05
2.03759e-05
1.26151e-05
-1.98549e-05
2.00555e-05
1.20948e-05
-1.84391e-05
1.89594e-05
1.17208e-05
-1.7646e-05
1.802e-05
1.15582e-05
-1.65578e-05
1.67205e-05
1.16558e-05
-1.61984e-05
1.61008e-05
1.21247e-05
-1.75745e-05
1.71056e-05
1.26074e-05
-1.88676e-05
1.8385e-05
1.29925e-05
-1.83071e-05
1.79221e-05
1.34184e-05
-1.57403e-05
1.53143e-05
1.37326e-05
-1.32995e-05
1.29853e-05
1.38836e-05
-1.00658e-05
9.91488e-06
1.39223e-05
-5.16798e-06
5.12923e-06
1.38505e-05
-1.17718e-06
1.24901e-06
1.3796e-05
2.49687e-06
-2.44242e-06
1.37267e-05
7.27163e-06
-7.20233e-06
1.33358e-05
1.09763e-05
-1.05853e-05
1.26545e-05
1.3703e-05
-1.30218e-05
1.20821e-05
1.5378e-05
-1.48056e-05
1.15513e-05
1.60494e-05
-1.55186e-05
1.09315e-05
1.74824e-05
-1.68627e-05
1.03445e-05
1.80542e-05
-1.74673e-05
9.8484e-06
1.68825e-05
-1.63863e-05
9.26759e-06
1.52603e-05
-1.46795e-05
8.69715e-06
1.45429e-05
-1.39725e-05
8.49106e-06
1.43515e-05
-1.41454e-05
8.36421e-06
1.22651e-05
-1.21383e-05
8.11746e-06
9.76565e-06
-9.5189e-06
7.95676e-06
1.05758e-05
-1.04151e-05
7.87242e-06
1.24103e-05
-1.23259e-05
7.77407e-06
1.09795e-05
-1.08812e-05
7.94442e-06
8.109e-06
-8.27935e-06
8.35023e-06
6.79847e-06
-7.20428e-06
8.58175e-06
7.01237e-06
-7.2439e-06
8.51829e-06
7.53466e-06
-7.47119e-06
8.43362e-06
8.85127e-06
-8.7666e-06
8.6681e-06
1.07135e-05
-1.0948e-05
9.20215e-06
1.04366e-05
-1.09706e-05
9.95841e-06
9.71101e-06
-1.04673e-05
1.06611e-05
1.2881e-05
-1.35837e-05
1.10632e-05
1.77788e-05
-1.81809e-05
1.12968e-05
1.91352e-05
-1.93688e-05
1.16302e-05
1.70504e-05
-1.73838e-05
1.21256e-05
1.63289e-05
-1.68243e-05
1.25717e-05
1.78047e-05
-1.82508e-05
1.27122e-05
1.92276e-05
-1.9368e-05
1.25116e-05
1.83908e-05
-1.81903e-05
1.21808e-05
1.50835e-05
-1.47526e-05
1.18676e-05
1.15428e-05
-1.12296e-05
1.16663e-05
9.75977e-06
-9.55846e-06
1.16641e-05
7.98422e-06
-7.982e-06
1.17388e-05
3.90162e-06
-3.97636e-06
1.16993e-05
-1.76433e-06
1.80378e-06
1.1392e-05
-6.25985e-06
6.56716e-06
1.10219e-05
-1.02854e-05
1.06555e-05
1.08121e-05
-1.5157e-05
1.53668e-05
1.07033e-05
-1.95685e-05
1.96772e-05
1.05944e-05
-2.26989e-05
2.28078e-05
1.03971e-05
-2.45126e-05
2.471e-05
1.02275e-05
-2.59225e-05
2.60922e-05
1.01012e-05
-2.61442e-05
2.62705e-05
9.97852e-06
-2.50826e-05
2.52053e-05
9.84655e-06
-2.56054e-05
2.57374e-05
9.81415e-06
-2.59779e-05
2.60103e-05
1.00219e-05
-2.64345e-05
2.62267e-05
1.03854e-05
-2.67888e-05
2.64254e-05
1.07458e-05
-2.73424e-05
2.69819e-05
1.09635e-05
-2.78366e-05
2.76189e-05
1.09541e-05
-2.71579e-05
2.71673e-05
1.08473e-05
-2.49795e-05
2.50862e-05
1.08486e-05
-2.17817e-05
2.17804e-05
1.07655e-05
-1.9145e-05
1.92282e-05
1.06696e-05
-1.66608e-05
1.67567e-05
1.06268e-05
-1.31862e-05
1.3229e-05
1.05265e-05
-9.02838e-06
9.12865e-06
1.05896e-05
-5.13574e-06
5.07272e-06
1.06348e-05
-1.48764e-06
1.44245e-06
1.03539e-05
2.82559e-06
-2.54476e-06
9.92857e-06
7.55392e-06
-7.12857e-06
9.7241e-06
1.18715e-05
-1.1667e-05
9.83708e-06
1.58307e-05
-1.59437e-05
9.9896e-06
2.01334e-05
-2.02859e-05
9.93111e-06
2.37765e-05
-2.3718e-05
9.63189e-06
2.52907e-05
-2.49914e-05
9.25313e-06
2.36375e-05
-2.32588e-05
8.97073e-06
2.20642e-05
-2.17818e-05
8.70217e-06
2.46899e-05
-2.44214e-05
8.33197e-06
2.63041e-05
-2.59339e-05
7.89122e-06
2.31585e-05
-2.27178e-05
7.57456e-06
2.01435e-05
-1.98268e-05
7.57793e-06
1.98399e-05
-1.98433e-05
7.8244e-06
2.24757e-05
-2.27222e-05
7.92337e-06
2.526e-05
-2.53589e-05
7.66775e-06
2.5598e-05
-2.53423e-05
7.0614e-06
2.4288e-05
-2.36816e-05
6.3415e-06
2.19928e-05
-2.12729e-05
5.78805e-06
2.02445e-05
-1.9691e-05
5.36575e-06
1.84729e-05
-1.80506e-05
5.00078e-06
1.63327e-05
-1.59678e-05
4.94845e-06
1.38985e-05
-1.38462e-05
5.14362e-06
1.12256e-05
-1.14208e-05
5.39335e-06
8.14242e-06
-8.39215e-06
5.82473e-06
4.62287e-06
-5.05425e-06
6.34675e-06
1.09169e-06
-1.61371e-06
6.77505e-06
-2.14512e-06
1.71683e-06
7.33775e-06
-6.02483e-06
5.46213e-06
8.14254e-06
-9.68648e-06
8.88169e-06
8.93747e-06
-1.14117e-05
1.06167e-05
9.54044e-06
-1.07175e-05
1.01145e-05
9.74475e-06
-9.4825e-06
9.27818e-06
9.84307e-06
-9.57447e-06
9.47615e-06
1.00805e-05
-1.27234e-05
1.2486e-05
1.00822e-05
-1.56786e-05
1.5677e-05
1.01928e-05
-1.8061e-05
1.79504e-05
1.00294e-05
-1.96905e-05
1.98539e-05
9.82483e-06
-1.86363e-05
1.88408e-05
9.55657e-06
-1.73318e-05
1.76001e-05
9.39182e-06
-1.47442e-05
1.4909e-05
9.16226e-06
-1.36685e-05
1.3898e-05
9.02305e-06
-1.01966e-05
1.03358e-05
8.90449e-06
-9.10282e-06
9.22138e-06
8.92734e-06
-6.34048e-06
6.31764e-06
8.7059e-06
-5.7873e-06
6.00873e-06
8.43629e-06
-3.32807e-06
3.59769e-06
8.575e-06
-5.62204e-06
5.48333e-06
8.23837e-06
-3.05341e-06
3.39004e-06
8.21781e-06
-3.82834e-06
3.8489e-06
8.24006e-06
-2.0698e-06
2.04756e-06
8.57516e-06
-2.37446e-06
2.03935e-06
8.42179e-06
-2.35435e-06
2.50772e-06
8.85227e-06
-3.95416e-06
3.52368e-06
9.41488e-06
-4.30243e-06
3.73981e-06
9.87218e-06
-4.8635e-06
4.40621e-06
1.02729e-05
-6.0844e-06
5.68371e-06
1.06055e-05
-6.71359e-06
6.38101e-06
1.08184e-05
-6.46038e-06
6.24746e-06
1.1102e-05
-6.12699e-06
5.8434e-06
1.15042e-05
-6.098e-06
5.69572e-06
1.20126e-05
-6.79592e-06
6.28756e-06
1.23493e-05
-6.56437e-06
6.22772e-06
1.25322e-05
-5.49148e-06
5.30855e-06
1.27946e-05
-4.14956e-06
3.88714e-06
1.30021e-05
-2.88482e-06
2.67734e-06
1.30657e-05
-1.01239e-06
9.48834e-07
1.3258e-05
2.20237e-06
-2.39475e-06
1.36753e-05
5.69371e-06
-6.11095e-06
1.38837e-05
1.06022e-05
-1.08106e-05
1.3592e-05
1.46695e-05
-1.43778e-05
1.30937e-05
1.62316e-05
-1.57333e-05
1.26741e-05
1.9048e-05
-1.86284e-05
1.21471e-05
2.27323e-05
-2.22053e-05
1.15076e-05
2.53014e-05
-2.46619e-05
1.08676e-05
2.85087e-05
-2.78687e-05
1.00447e-05
3.19239e-05
-3.11009e-05
8.89356e-06
3.46369e-05
-3.34857e-05
7.50001e-06
3.69014e-05
-3.55078e-05
6.65831e-06
4.21211e-05
-4.12794e-05
5.31586e-05
-5.29213e-05
6.42101e-06
7.44858e-06
-3.30128e-06
7.88555e-06
-4.92849e-06
7.96639e-06
-6.73038e-06
7.52344e-06
-7.75992e-06
6.93279e-06
-9.08938e-06
6.18152e-06
-9.6139e-06
5.23793e-06
-9.24814e-06
4.31945e-06
-8.12808e-06
2.71261e-06
-6.17916e-06
1.5871e-06
-4.90994e-06
1.81878e-06
1.138e-07
2.94295e-06
6.48673e-06
4.56026e-06
1.22171e-05
5.86787e-06
2.15766e-05
7.06716e-06
2.2403e-05
6.95638e-06
1.54236e-05
7.13532e-06
1.31869e-05
7.52048e-06
1.08188e-05
8.27514e-06
8.01289e-06
9.37157e-06
5.86715e-06
1.06837e-05
1.94642e-06
1.20703e-05
-2.34027e-06
1.31381e-05
-5.26993e-06
1.38052e-05
-8.31958e-06
1.42742e-05
-1.07548e-05
1.4926e-05
-1.31282e-05
1.5741e-05
-1.5952e-05
1.66433e-05
-1.77528e-05
1.72796e-05
-1.93193e-05
1.72329e-05
-2.05783e-05
1.68377e-05
-2.05779e-05
1.63935e-05
-2.08045e-05
1.58438e-05
-2.09438e-05
1.53298e-05
-2.05139e-05
1.49192e-05
-2.07291e-05
1.44648e-05
-2.08169e-05
1.40076e-05
-2.02047e-05
1.37407e-05
-1.98705e-05
1.34143e-05
-2.01652e-05
1.29444e-05
-1.96981e-05
1.27394e-05
-1.86799e-05
1.2822e-05
-1.9267e-05
1.2807e-05
-2.04851e-05
1.24412e-05
-1.9489e-05
1.18181e-05
-1.7816e-05
1.14331e-05
-1.7261e-05
1.13611e-05
-1.64859e-05
1.15004e-05
-1.63377e-05
1.1924e-05
-1.7998e-05
1.23855e-05
-1.93292e-05
1.27176e-05
-1.86392e-05
1.30577e-05
-1.60804e-05
1.32749e-05
-1.35166e-05
1.32933e-05
-1.00843e-05
1.32789e-05
-5.15356e-06
1.32287e-05
-1.12699e-06
1.31673e-05
2.55833e-06
1.31255e-05
7.31342e-06
1.28307e-05
1.1271e-05
1.22421e-05
1.42917e-05
1.16845e-05
1.59356e-05
1.11371e-05
1.65969e-05
1.0535e-05
1.80846e-05
9.99927e-06
1.85899e-05
9.56196e-06
1.73198e-05
9.00206e-06
1.58202e-05
8.47918e-06
1.50658e-05
8.3341e-06
1.44965e-05
8.19832e-06
1.24009e-05
7.94738e-06
1.00166e-05
7.82889e-06
1.06943e-05
7.77077e-06
1.24684e-05
7.66636e-06
1.1084e-05
7.91462e-06
7.86074e-06
8.36873e-06
6.34435e-06
8.55136e-06
6.82974e-06
8.43239e-06
7.65362e-06
8.34639e-06
8.93727e-06
8.63664e-06
1.04232e-05
9.21144e-06
9.86177e-06
9.93311e-06
8.98933e-06
1.06174e-05
1.21968e-05
1.10709e-05
1.73253e-05
1.13722e-05
1.88338e-05
1.1677e-05
1.67457e-05
1.21368e-05
1.5869e-05
1.25926e-05
1.73489e-05
1.27973e-05
1.90229e-05
1.26988e-05
1.84893e-05
1.24329e-05
1.53495e-05
1.21507e-05
1.18249e-05
1.20008e-05
9.90969e-06
1.20445e-05
7.94049e-06
1.21418e-05
3.80432e-06
1.20691e-05
-1.69158e-06
1.17713e-05
-5.96203e-06
1.14592e-05
-9.97337e-06
1.12787e-05
-1.49764e-05
1.1146e-05
-1.94359e-05
1.09401e-05
-2.24929e-05
1.06726e-05
-2.42452e-05
1.04317e-05
-2.56816e-05
1.02273e-05
-2.59398e-05
1.0061e-05