/*--------------------------------*- C++ -*----------------------------------*\
| =========                 |                                                 |
| \\      /  F ield         | OpenFOAM: The Open Source CFD Toolbox           |
|  \\    /   O peration     | Version:  2.4.0                                 |
|   \\  /    A nd           | Web:      www.OpenFOAM.org                      |
|    \\/     M anipulation  |                                                 |
\*---------------------------------------------------------------------------*/
FoamFile
{
    version     2.0;
    format      ascii;
    class       volVectorField;
    location    "0.188";
    object      U;
}
// * * * * * * * * * * * * * * * * * * * * * * * * * * * * * * * * * * * * * //

dimensions      [0 1 -1 0 0 0 0];

internalField   nonuniform List<vector> 
17600
(
(5.32768 0.309465 0)
(2.98544 0.0606257 0)
(2.19425 -0.00159734 0)
(1.85052 -0.0034333 0)
(1.70649 -0.00168319 0)
(1.60953 0.000548339 0)
(1.53986 -0.000575952 0)
(1.47807 -4.90378e-07 0)
(1.44164 0.000210832 0)
(1.39418 -0.000333901 0)
(1.38875 -0.000254725 0)
(1.35108 -0.000226986 0)
(1.34258 0.000696243 0)
(1.33185 -0.00193034 0)
(1.33001 0.000214632 0)
(1.33403 -0.000818564 0)
(1.38304 -0.00391724 0)
(1.4377 -0.0041844 0)
(1.65752 -0.00259311 0)
(1.55913 -0.0929488 0)
(8.59776 0.871994 0)
(6.95101 0.383596 0)
(5.80313 0.121536 0)
(5.06465 0.0510093 0)
(4.65094 0.0274708 0)
(4.373 0.022494 0)
(4.18949 0.0144874 0)
(4.00595 0.0123933 0)
(3.91242 0.0108705 0)
(3.77442 0.00596794 0)
(3.75465 0.00552905 0)
(3.63635 0.00502334 0)
(3.62117 0.00535864 0)
(3.57635 -0.00193004 0)
(3.53633 0.00292934 0)
(3.53797 -0.00441631 0)
(3.61256 -0.0123004 0)
(3.60209 -0.0308183 0)
(4.02977 -0.0205078 0)
(4.03698 -0.256461 0)
(9.85475 1.0222 0)
(9.34991 0.577909 0)
(8.45894 0.240762 0)
(7.65573 0.129932 0)
(7.09138 0.081038 0)
(6.68359 0.0605336 0)
(6.42835 0.0417734 0)
(6.14141 0.0343735 0)
(6.01483 0.0293945 0)
(5.79386 0.0181465 0)
(5.7684 0.016618 0)
(5.57796 0.0151935 0)
(5.55526 0.0125211 0)
(5.48806 0.00228523 0)
(5.39954 0.0092232 0)
(5.39862 -0.00846389 0)
(5.48653 -0.0149039 0)
(5.38483 -0.0558918 0)
(5.86865 -0.063167 0)
(6.05082 -0.373754 0)
(10.1547 0.947613 0)
(10.5808 0.669914 0)
(10.2344 0.329827 0)
(9.66092 0.209085 0)
(9.124 0.147473 0)
(8.66637 0.110248 0)
(8.40178 0.0792959 0)
(8.0326 0.0644038 0)
(7.90622 0.0546549 0)
(7.60965 0.0356485 0)
(7.5909 0.0320359 0)
(7.34422 0.0303844 0)
(7.30503 0.0213698 0)
(7.23712 0.0105008 0)
(7.09429 0.0191524 0)
(7.09176 -0.013186 0)
(7.19025 -0.0133591 0)
(7.01672 -0.0754824 0)
(7.4438 -0.118299 0)
(7.84673 -0.490217 0)
(10.062 0.805001 0)
(10.9439 0.67203 0)
(11.0968 0.356828 0)
(10.9107 0.253393 0)
(10.5959 0.204402 0)
(10.2019 0.159729 0)
(10.02 0.120222 0)
(9.61247 0.0984418 0)
(9.5339 0.0836664 0)
(9.18285 0.0570861 0)
(9.18436 0.0496277 0)
(8.91483 0.0499513 0)
(8.84622 0.0309111 0)
(8.8078 0.0212734 0)
(8.6104 0.0330516 0)
(8.61225 -0.0185115 0)
(8.71612 -0.00974591 0)
(8.4994 -0.0856671 0)
(8.84009 -0.174036 0)
(9.3473 -0.628402 0)
(9.96345 0.689689 0)
(10.8986 0.639974 0)
(11.2641 0.335571 0)
(11.3734 0.245852 0)
(11.3649 0.227504 0)
(11.1291 0.190336 0)
(11.1369 0.151719 0)
(10.7686 0.12921 0)
(10.7956 0.110874 0)
(10.439 0.0799457 0)
(10.4733 0.0663303 0)
(10.2346 0.0723924 0)
(10.1252 0.040349 0)
(10.1503 0.0322248 0)
(9.9061 0.0501848 0)
(9.93145 -0.0244279 0)
(10.0231 -0.00570183 0)
(9.7979 -0.0891866 0)
(10.062 -0.227478 0)
(10.6001 -0.732112 0)
(9.92592 0.598508 0)
(10.794 0.606745 0)
(11.1898 0.310959 0)
(11.3496 0.209914 0)
(11.561 0.216821 0)
(11.4307 0.191892 0)
(11.6536 0.160134 0)
(11.3839 0.144435 0)
(11.5682 0.125658 0)
(11.2749 0.0979117 0)
(11.3579 0.0764097 0)
(11.2213 0.0938107 0)
(11.0738 0.0482556 0)
(11.1938 0.0402029 0)
(10.9216 0.0689122 0)
(11.0079 -0.031636 0)
(11.057 -0.000125319 0)
(10.8576 -0.08976 0)
(11.1103 -0.2782 0)
(11.5047 -0.777114 0)
(9.90791 0.518862 0)
(10.6924 0.566011 0)
(11.1413 0.302673 0)
(11.2107 0.176077 0)
(11.5276 0.195781 0)
(11.4016 0.17884 0)
(11.7374 0.151421 0)
(11.5326 0.143455 0)
(11.8448 0.12235 0)
(11.6439 0.105508 0)
(11.7574 0.0728047 0)
(11.7801 0.107176 0)
(11.6185 0.0502152 0)
(11.8456 0.041889 0)
(11.5845 0.0824633 0)
(11.7737 -0.0389625 0)
(11.7531 0.002 0)
(11.6349 -0.0869629 0)
(11.8904 -0.336649 0)
(12.0661 -0.754548 0)
(9.9229 0.4503 0)
(10.5611 0.511265 0)
(11.1119 0.299436 0)
(11.1327 0.152595 0)
(11.4414 0.172894 0)
(11.3279 0.162838 0)
(11.6576 0.135716 0)
(11.4975 0.136641 0)
(11.8481 0.107389 0)
(11.7243 0.109524 0)
(11.8053 0.0576122 0)
(11.9362 0.111275 0)
(11.8117 0.0438135 0)
(12.0436 0.0360023 0)
(11.881 0.084632 0)
(12.152 -0.0498515 0)
(12.0477 0.00140845 0)
(12.0928 -0.0997342 0)
(12.3143 -0.368924 0)
(12.3173 -0.751407 0)
(9.96101 0.39379 0)
(10.4463 0.452286 0)
(11.0183 0.290907 0)
(11.1362 0.132169 0)
(11.3474 0.154782 0)
(11.3126 0.146874 0)
(11.5287 0.121446 0)
(11.4324 0.124127 0)
(11.7478 0.0885513 0)
(11.7259 0.110564 0)
(11.7715 0.0452921 0)
(11.8814 0.105263 0)
(11.9072 0.0424806 0)
(11.8963 0.0233768 0)
(12.0062 0.0777113 0)
(12.1658 -0.0617137 0)
(12.0298 -0.00149634 0)
(12.2721 -0.130257 0)
(12.4246 -0.383685 0)
(12.2937 -0.759623 0)
(9.9826 0.340866 0)
(10.3992 0.40105 0)
(10.9007 0.273376 0)
(11.135 0.11546 0)
(11.2504 0.135035 0)
(11.3468 0.136137 0)
(11.4189 0.109633 0)
(11.3867 0.114736 0)
(11.6223 0.0638144 0)
(11.6882 0.108424 0)
(11.7044 0.0365015 0)
(11.8254 0.0926838 0)
(11.9259 0.0483145 0)
(11.7568 0.0149739 0)
(12.1087 0.0549623 0)
(11.9502 -0.0515937 0)
(11.9865 -0.0265091 0)
(12.3264 -0.166555 0)
(12.3149 -0.383364 0)
(12.1045 -0.752236 0)
(9.99733 0.293618 0)
(10.3783 0.350254 0)
(10.8042 0.258857 0)
(11.0856 0.0967819 0)
(11.1918 0.115817 0)
(11.3648 0.120687 0)
(11.348 0.105747 0)
(11.3606 0.10288 0)
(11.5498 0.0458197 0)
(11.5881 0.100782 0)
(11.6298 0.0292066 0)
(11.8223 0.0745871 0)
(11.7791 0.0587106 0)
(11.8908 -0.00824776 0)
(12.0024 0.0578829 0)
(11.8031 -0.0480113 0)
(12.04 -0.0643257 0)
(12.2304 -0.194626 0)
(12.1394 -0.373864 0)
(11.9745 -0.740123 0)
(10.0085 0.248159 0)
(10.3522 0.305116 0)
(10.7248 0.240506 0)
(11.0334 0.0812617 0)
(11.1818 0.0899189 0)
(11.3262 0.111149 0)
(11.2892 0.0983585 0)
(11.342 0.0924378 0)
(11.5099 0.0295662 0)
(11.5057 0.0985691 0)
(11.6208 0.00974337 0)
(11.729 0.0699225 0)
(11.6992 0.049323 0)
(11.9692 -0.0232567 0)
(11.7952 0.0739122 0)
(11.8709 -0.0617239 0)
(12.0372 -0.0941242 0)
(12.0266 -0.201437 0)
(12.078 -0.3848 0)
(11.8934 -0.731683 0)
(10.0104 0.208467 0)
(10.3234 0.260722 0)
(10.6752 0.218228 0)
(10.9974 0.0619127 0)
(11.1515 0.0738858 0)
(11.2678 0.102395 0)
(11.2401 0.0907446 0)
(11.3528 0.0757673 0)
(11.4517 0.0210687 0)
(11.4871 0.0850962 0)
(11.6268 0.00744742 0)
(11.5584 0.0576003 0)
(11.7474 0.0407746 0)
(11.8436 -0.0307974 0)
(11.739 0.074466 0)
(11.9507 -0.0758698 0)
(11.9608 -0.107699 0)
(11.893 -0.205894 0)
(12.0312 -0.391948 0)
(11.8152 -0.723987 0)
(10.0041 0.170223 0)
(10.3043 0.219953 0)
(10.6555 0.186043 0)
(10.9487 0.0517608 0)
(11.1005 0.0566356 0)
(11.2301 0.0971002 0)
(11.228 0.0725846 0)
(11.3621 0.0673146 0)
(11.3839 0.00777716 0)
(11.4923 0.0767073 0)
(11.5699 0.00664079 0)
(11.4847 0.0499799 0)
(11.781 0.0231978 0)
(11.6997 -0.0277479 0)
(11.7904 0.0567162 0)
(11.9474 -0.0806804 0)
(11.8564 -0.109358 0)
(11.8663 -0.22634 0)
(11.9717 -0.391192 0)
(11.7265 -0.667036 0)
(9.99963 0.13732 0)
(10.3004 0.174393 0)
(10.6184 0.158172 0)
(10.902 0.0407302 0)
(11.0905 0.0422742 0)
(11.1938 0.0837257 0)
(11.2282 0.0584591 0)
(11.32 0.0563908 0)
(11.3606 -0.000407083 0)
(11.4954 0.0603164 0)
(11.4763 0.0150738 0)
(11.5565 0.0233726 0)
(11.7011 0.0251797 0)
(11.6599 -0.0430388 0)
(11.8209 0.0477005 0)
(11.8778 -0.0898101 0)
(11.8003 -0.105419 0)
(11.9066 -0.253609 0)
(11.9029 -0.380768 0)
(11.6248 -0.629987 0)
(10.0018 0.10469 0)
(10.2851 0.132848 0)
(10.57 0.128764 0)
(10.9058 0.0274843 0)
(11.0818 0.0278151 0)
(11.1379 0.0749007 0)
(11.2225 0.042751 0)
(11.2846 0.0462912 0)
(11.3819 -0.0158096 0)
(11.4514 0.0572753 0)
(11.4576 0.0105622 0)
(11.589 0.0100193 0)
(11.5861 0.0228659 0)
(11.7142 -0.0496825 0)
(11.7763 0.0249129 0)
(11.7888 -0.0708108 0)
(11.8634 -0.138066 0)
(11.8831 -0.246518 0)
(11.8099 -0.375794 0)
(11.5605 -0.576573 0)
(10.0024 0.0749597 0)
(10.2615 0.0925612 0)
(10.5589 0.0947251 0)
(10.9196 0.0141403 0)
(11.0249 0.0201862 0)
(11.1059 0.066195 0)
(11.2368 0.020452 0)
(11.2932 0.0356037 0)
(11.3667 -0.0257038 0)
(11.3691 0.052541 0)
(11.5123 0.00278021 0)
(11.514 0.00632158 0)
(11.5824 0.0125357 0)
(11.7423 -0.0617644 0)
(11.6875 0.0189322 0)
(11.7806 -0.0785419 0)
(11.8926 -0.154909 0)
(11.7861 -0.233758 0)
(11.7521 -0.391274 0)
(11.5518 -0.498692 0)
(10.0015 0.0485076 0)
(10.2584 0.0486169 0)
(10.5611 0.061621 0)
(10.891 0.00351493 0)
(10.9821 0.0166155 0)
(11.128 0.0444361 0)
(11.2506 0.0045114 0)
(11.2902 0.0221628 0)
(11.3005 -0.0228369 0)
(11.3571 0.031797 0)
(11.53 0.00557856 0)
(11.4743 -0.0103053 0)
(11.6425 0.00806243 0)
(11.6746 -0.0737409 0)
(11.6367 0.0208039 0)
(11.8312 -0.0989061 0)
(11.8279 -0.150968 0)
(11.7347 -0.240518 0)
(11.7342 -0.374536 0)
(11.5878 -0.509768 0)
(10.006 0.019335 0)
(10.2571 0.00880002 0)
(10.5497 0.0283899 0)
(10.8588 -0.0032065 0)
(11.005 0.00226793 0)
(11.1465 0.0308046 0)
(11.2307 -0.0167785 0)
(11.2646 0.023489 0)
(11.2689 -0.0360791 0)
(11.4143 0.0215019 0)
(11.4904 -0.00306379 0)
(11.5198 -0.0135083 0)
(11.6232 -0.007455 0)
(11.6042 -0.0577257 0)
(11.6862 -0.0145352 0)
(11.8239 -0.085971 0)
(11.7756 -0.160942 0)
(11.7528 -0.249803 0)
(11.7478 -0.351689 0)
(11.5959 -0.563426 0)
(10.0054 -0.00617266 0)
(10.2494 -0.0343661 0)
(10.5508 -0.000611562 0)
(10.8596 -0.0194692 0)
(11.0393 -0.00610553 0)
(11.1217 0.0141172 0)
(11.2168 -0.0258341 0)
(11.2517 0.00864639 0)
(11.3081 -0.0386321 0)
(11.4162 -0.000269772 0)
(11.4813 0.0039952 0)
(11.5462 -0.0351138 0)
(11.5521 0.00541601 0)
(11.6385 -0.0842292 0)
(11.7398 -0.0167587 0)
(11.7444 -0.106799 0)
(11.7964 -0.153774 0)
(11.7765 -0.257414 0)
(11.7297 -0.352802 0)
(11.5607 -0.564129 0)
(9.99568 -0.0345319 0)
(10.257 -0.0738941 0)
(10.567 -0.0352552 0)
(10.872 -0.030341 0)
(11.0395 -0.0157056 0)
(11.0996 0.00368901 0)
(11.2336 -0.0442214 0)
(11.2668 -0.00177075 0)
(11.3383 -0.0497044 0)
(11.3812 -0.00795167 0)
(11.5117 -0.00788904 0)
(11.5158 -0.0301931 0)
(11.5525 -0.0127842 0)
(11.7036 -0.083653 0)
(11.6988 -0.03646 0)
(11.7205 -0.091309 0)
(11.821 -0.179544 0)
(11.7825 -0.246796 0)
(11.7048 -0.355883 0)
(11.5146 -0.479277 0)
(9.99128 -0.0613401 0)
(10.2763 -0.118867 0)
(10.5763 -0.0658967 0)
(10.8787 -0.0419537 0)
(11.0344 -0.0232127 0)
(11.1137 -0.0124018 0)
(11.2535 -0.0611685 0)
(11.2939 -0.0150764 0)
(11.3166 -0.0514008 0)
(11.4032 -0.0250521 0)
(11.5153 -0.00921104 0)
(11.5038 -0.0372995 0)
(11.6127 -0.0239194 0)
(11.7056 -0.0871385 0)
(11.6547 -0.0441338 0)
(11.7547 -0.0977468 0)
(11.8308 -0.190228 0)
(11.7679 -0.239741 0)
(11.7014 -0.359394 0)
(11.5274 -0.412368 0)
(9.99881 -0.0911652 0)
(10.2852 -0.160554 0)
(10.5871 -0.0958933 0)
(10.8924 -0.0530518 0)
(11.0541 -0.0317049 0)
(11.1337 -0.0320016 0)
(11.2653 -0.0738396 0)
(11.3026 -0.028523 0)
(11.318 -0.0522177 0)
(11.4508 -0.0445684 0)
(11.5031 -0.00588777 0)
(11.5367 -0.0530316 0)
(11.6468 -0.0277206 0)
(11.6835 -0.0943043 0)
(11.6713 -0.0454483 0)
(11.7659 -0.118975 0)
(11.8481 -0.18441 0)
(11.7614 -0.245814 0)
(11.7111 -0.346173 0)
(11.5528 -0.418923 0)
(10.0057 -0.125417 0)
(10.2911 -0.200648 0)
(10.6156 -0.129701 0)
(10.9198 -0.0607502 0)
(11.0756 -0.0466772 0)
(11.1466 -0.0427141 0)
(11.2822 -0.0925526 0)
(11.3093 -0.0344234 0)
(11.3656 -0.0650973 0)
(11.4708 -0.0500595 0)
(11.5092 -0.0176066 0)
(11.5739 -0.0521195 0)
(11.6512 -0.0476014 0)
(11.6852 -0.080132 0)
(11.701 -0.0717588 0)
(11.787 -0.112765 0)
(11.8539 -0.196946 0)
(11.7744 -0.248216 0)
(11.7344 -0.322353 0)
(11.5547 -0.450551 0)
(10.003 -0.155784 0)
(10.3133 -0.246432 0)
(10.6554 -0.157079 0)
(10.947 -0.0751979 0)
(11.0962 -0.0516537 0)
(11.1702 -0.0676389 0)
(11.3009 -0.0979251 0)
(11.3472 -0.0577927 0)
(11.4006 -0.0606755 0)
(11.4789 -0.0714884 0)
(11.5414 -0.0115626 0)
(11.5984 -0.0737922 0)
(11.6527 -0.0403662 0)
(11.7194 -0.098314 0)
(11.7354 -0.0657708 0)
(11.8067 -0.141098 0)
(11.8668 -0.181781 0)
(11.7999 -0.26045 0)
(11.7481 -0.30706 0)
(11.5647 -0.457164 0)
(10.0018 -0.198768 0)
(10.3457 -0.285259 0)
(10.6973 -0.18995 0)
(10.9749 -0.0807289 0)
(11.127 -0.0696949 0)
(11.1999 -0.0785073 0)
(11.3315 -0.117982 0)
(11.3904 -0.0651761 0)
(11.4208 -0.0714017 0)
(11.5076 -0.075075 0)
(11.5818 -0.0263427 0)
(11.6141 -0.0693416 0)
(11.6759 -0.0588765 0)
(11.7643 -0.0907313 0)
(11.7749 -0.0879022 0)
(11.8257 -0.131142 0)
(11.8947 -0.202545 0)
(11.8298 -0.241346 0)
(11.7641 -0.323526 0)
(11.6028 -0.379936 0)
(10.0125 -0.237459 0)
(10.3786 -0.330982 0)
(10.7398 -0.212089 0)
(11.0085 -0.0941286 0)
(11.1656 -0.0822949 0)
(11.2367 -0.0988833 0)
(11.3782 -0.128918 0)
(11.4333 -0.0803472 0)
(11.4412 -0.0735136 0)
(11.555 -0.0888889 0)
(11.6107 -0.031688 0)
(11.6342 -0.0735905 0)
(11.7258 -0.0725986 0)
(11.8159 -0.0918893 0)
(11.8084 -0.0977804 0)
(11.8652 -0.136182 0)
(11.9253 -0.21002 0)
(11.8596 -0.232808 0)
(11.7938 -0.329737 0)
(11.6434 -0.32088 0)
(10.0406 -0.286638 0)
(10.4002 -0.376188 0)
(10.7865 -0.225957 0)
(11.0445 -0.112177 0)
(11.2248 -0.0978182 0)
(11.2837 -0.118906 0)
(11.4325 -0.138832 0)
(11.4612 -0.0923661 0)
(11.4755 -0.0741459 0)
(11.5934 -0.105288 0)
(11.6419 -0.0310315 0)
(11.6823 -0.0884386 0)
(11.7873 -0.0749571 0)
(11.8602 -0.107352 0)
(11.8534 -0.0893272 0)
(11.9068 -0.160691 0)
(11.9493 -0.190244 0)
(11.8925 -0.254555 0)
(11.8309 -0.305808 0)
(11.6795 -0.334836 0)
(10.073 -0.342236 0)
(10.4025 -0.414192 0)
(10.8515 -0.241999 0)
(11.0946 -0.130366 0)
(11.3109 -0.123517 0)
(11.3137 -0.131811 0)
(11.4877 -0.153805 0)
(11.4766 -0.0963243 0)
(11.5282 -0.0870356 0)
(11.6251 -0.10835 0)
(11.7101 -0.0489406 0)
(11.7361 -0.0857249 0)
(11.8532 -0.0966151 0)
(11.9012 -0.0992047 0)
(11.9091 -0.104468 0)
(11.9385 -0.15697 0)
(11.985 -0.19807 0)
(11.924 -0.249166 0)
(11.8694 -0.298484 0)
(11.711 -0.369981 0)
(10.0816 -0.39675 0)
(10.4058 -0.461491 0)
(10.948 -0.253017 0)
(11.1711 -0.160394 0)
(11.3828 -0.139967 0)
(11.3284 -0.148671 0)
(11.5569 -0.160124 0)
(11.4903 -0.106105 0)
(11.6059 -0.0935949 0)
(11.6738 -0.12191 0)
(11.8012 -0.0565781 0)
(11.7776 -0.0946132 0)
(11.9328 -0.105371 0)
(11.9233 -0.103368 0)
(11.9668 -0.106296 0)
(11.9482 -0.162992 0)
(12.0085 -0.196463 0)
(11.9002 -0.245186 0)
(11.8473 -0.293159 0)
(11.6313 -0.399363 0)
(10.052 -0.462437 0)
(10.4499 -0.501221 0)
(11.0764 -0.275496 0)
(11.2488 -0.182645 0)
(11.4136 -0.156152 0)
(11.3794 -0.164965 0)
(11.625 -0.16872 0)
(11.5248 -0.113005 0)
(11.7121 -0.108348 0)
(11.7231 -0.131237 0)
(11.8629 -0.0678539 0)
(11.8018 -0.100061 0)
(11.9565 -0.113367 0)
(11.8707 -0.106327 0)
(11.9454 -0.105073 0)
(11.8384 -0.169015 0)
(11.8819 -0.181515 0)
(11.6861 -0.248643 0)
(11.6054 -0.268561 0)
(11.2786 -0.393347 0)
(10.0055 -0.525832 0)
(10.5514 -0.549815 0)
(11.2043 -0.297319 0)
(11.2952 -0.202011 0)
(11.4581 -0.17488 0)
(11.474 -0.18331 0)
(11.6654 -0.176877 0)
(11.5745 -0.123404 0)
(11.7582 -0.121616 0)
(11.6694 -0.134712 0)
(11.7824 -0.0769766 0)
(11.6697 -0.100227 0)
(11.7454 -0.116137 0)
(11.5918 -0.0996679 0)
(11.636 -0.107094 0)
(11.4357 -0.152366 0)
(11.4179 -0.178268 0)
(11.1463 -0.215767 0)
(11.0058 -0.261093 0)
(10.602 -0.327158 0)
(9.96931 -0.603892 0)
(10.694 -0.591704 0)
(11.3011 -0.316688 0)
(11.3502 -0.224316 0)
(11.522 -0.198191 0)
(11.5021 -0.197344 0)
(11.5722 -0.179164 0)
(11.4429 -0.129677 0)
(11.5093 -0.123278 0)
(11.2964 -0.127199 0)
(11.3423 -0.0760968 0)
(11.1494 -0.0927533 0)
(11.1331 -0.103822 0)
(10.9263 -0.0902997 0)
(10.9247 -0.0938676 0)
(10.657 -0.135434 0)
(10.595 -0.153944 0)
(10.2687 -0.190297 0)
(10.0951 -0.224856 0)
(9.63588 -0.270489 0)
(9.97599 -0.69121 0)
(10.8496 -0.628949 0)
(11.3534 -0.344063 0)
(11.3316 -0.252843 0)
(11.3662 -0.215377 0)
(11.1775 -0.194066 0)
(11.0613 -0.165794 0)
(10.8265 -0.119541 0)
(10.7477 -0.107187 0)
(10.4502 -0.106298 0)
(10.4324 -0.0646814 0)
(10.192 -0.0747344 0)
(10.1213 -0.0847433 0)
(9.89608 -0.0743068 0)
(9.861 -0.0765746 0)
(9.56881 -0.111367 0)
(9.47724 -0.12716 0)
(9.12821 -0.159241 0)
(8.93277 -0.179001 0)
(8.44293 -0.231195 0)
(10.0624 -0.805111 0)
(10.9261 -0.666248 0)
(11.1547 -0.363928 0)
(10.8633 -0.256512 0)
(10.6147 -0.197216 0)
(10.2271 -0.160677 0)
(9.96012 -0.131215 0)
(9.65746 -0.0925112 0)
(9.49651 -0.0791441 0)
(9.18376 -0.0792447 0)
(9.13159 -0.0477535 0)
(8.88875 -0.0538049 0)
(8.79636 -0.0635969 0)
(8.57874 -0.0565756 0)
(8.52269 -0.0575671 0)
(8.23748 -0.0850872 0)
(8.12553 -0.100269 0)
(7.78068 -0.120558 0)
(7.56717 -0.144717 0)
(7.09658 -0.162538 0)
(10.1521 -0.947253 0)
(10.577 -0.666783 0)
(10.2704 -0.334591 0)
(9.6192 -0.210294 0)
(9.14684 -0.143801 0)
(8.67614 -0.109142 0)
(8.36178 -0.0881928 0)
(8.05935 -0.0608684 0)
(7.88097 -0.0499778 0)
(7.60125 -0.0527983 0)
(7.536 -0.0306704 0)
(7.32294 -0.0340432 0)
(7.22985 -0.0432365 0)
(7.03479 -0.0390909 0)
(6.97022 -0.0386103 0)
(6.71437 -0.0597385 0)
(6.59134 -0.0714167 0)
(6.26818 -0.0858945 0)
(6.05715 -0.102525 0)
(5.60135 -0.113585 0)
(9.85268 -1.02188 0)
(9.35293 -0.576605 0)
(8.47907 -0.243416 0)
(7.62504 -0.130475 0)
(7.10982 -0.0794772 0)
(6.68551 -0.0583753 0)
(6.40553 -0.0486046 0)
(6.15071 -0.0323754 0)
(6.00033 -0.0252555 0)
(5.77995 -0.0299391 0)
(5.71729 -0.0159568 0)
(5.55471 -0.0176045 0)
(5.47411 -0.025267 0)
(5.31213 -0.0231817 0)
(5.25036 -0.0217454 0)
(5.04016 -0.0362434 0)
(4.91556 -0.0442367 0)
(4.63329 -0.0530311 0)
(4.43699 -0.0629601 0)
(4.01892 -0.0740502 0)
(8.59689 -0.871835 0)
(6.95489 -0.383228 0)
(5.81261 -0.122457 0)
(5.04617 -0.0513734 0)
(4.66124 -0.0270758 0)
(4.37312 -0.0204838 0)
(4.17839 -0.0187594 0)
(4.00267 -0.011433 0)
(3.90581 -0.00796456 0)
(3.76098 -0.0124876 0)
(3.71182 -0.00547377 0)
(3.61099 -0.00592836 0)
(3.55188 -0.0110881 0)
(3.43387 -0.0103392 0)
(3.38415 -0.00868629 0)
(3.23464 -0.0166324 0)
(3.12315 -0.0210398 0)
(2.90526 -0.0251747 0)
(2.73756 -0.0295692 0)
(2.40629 -0.0386031 0)
(5.32766 -0.309446 0)
(2.98708 -0.0606583 0)
(2.19708 0.00160148 0)
(1.84368 0.00329236 0)
(1.70795 0.00159486 0)
(1.61115 0.000355181 0)
(1.53752 -0.000795785 0)
(1.46965 0.000289294 0)
(1.44042 0.00082196 0)
(1.38761 -0.00130498 0)
(1.36315 0.000281135 0)
(1.33139 0.000359065 0)
(1.30607 -0.00122939 0)
(1.25094 -0.00114158 0)
(1.2248 -0.00020801 0)
(1.16015 -0.00197279 0)
(1.09334 -0.00287394 0)
(0.980995 -0.00347757 0)
(0.881035 -0.00400615 0)
(0.71456 -0.00317244 0)
(3.41453 -0.692718 0)
(4.55886 -1.41083 0)
(5.51795 -2.19882 0)
(4.9699 -2.79911 0)
(5.19539 -3.29096 0)
(4.03384 -3.59157 0)
(3.70771 -3.60011 0)
(2.6522 -3.24819 0)
(1.49399 -2.94264 0)
(0.284805 -2.30989 0)
(0.534345 -0.00219825 0)
(1.31046 2.57381 0)
(2.33385 4.73161 0)
(3.54135 7.6086 0)
(2.98454 8.2901 0)
(6.03567 5.25387 0)
(4.71685 4.39047 0)
(5.55771 3.80556 0)
(5.82492 2.9951 0)
(6.36792 2.52691 0)
(7.39013 1.4767 0)
(8.07457 0.139306 0)
(8.84836 -0.978636 0)
(9.97142 -2.20899 0)
(10.7029 -3.21842 0)
(11.1043 -3.99168 0)
(11.5838 -4.91899 0)
(11.9687 -5.50414 0)
(12.7799 -6.08063 0)
(13.5855 -6.83541 0)
(13.6454 -7.06463 0)
(13.3492 -7.15298 0)
(12.9745 -7.27412 0)
(12.4881 -7.12709 0)
(12.1497 -7.10942 0)
(11.8479 -7.17623 0)
(11.3953 -7.00693 0)
(11.0137 -6.77823 0)
(10.8398 -6.88154 0)
(10.6411 -6.85818 0)
(10.1558 -6.38918 0)
(10.0695 -6.33647 0)
(10.2749 -6.79883 0)
(10.2792 -6.71508 0)
(9.92092 -6.26276 0)
(9.47242 -5.96714 0)
(9.29037 -5.56595 0)
(9.20185 -5.30659 0)
(9.30219 -5.6294 0)
(9.81793 -6.10263 0)
(10.1489 -6.08743 0)
(10.5511 -5.31091 0)
(10.8098 -4.51659 0)
(11.077 -3.56775 0)
(11.1599 -1.96262 0)
(11.2123 -0.573021 0)
(11.1356 0.589662 0)
(11.1343 2.16642 0)
(10.9818 3.44136 0)
(10.5939 4.35586 0)
(9.94952 5.01078 0)
(9.46912 5.23576 0)
(9.11339 5.64707 0)
(8.54491 5.92334 0)
(8.07475 5.65281 0)
(7.69632 5.07473 0)
(7.20894 4.75091 0)
(6.81799 4.81282 0)
(6.77211 4.24078 0)
(6.59042 3.28508 0)
(6.48557 3.40743 0)
(6.31152 4.09551 0)
(6.28009 3.77002 0)
(6.16855 2.8927 0)
(6.49041 2.41959 0)
(6.74169 2.38926 0)
(6.89756 2.4499 0)
(6.82749 2.8054 0)
(6.81027 3.55318 0)
(7.04705 3.64713 0)
(7.51533 3.3467 0)
(8.16924 4.15723 0)
(8.72815 5.74397 0)
(8.90615 6.43436 0)
(9.08885 5.86164 0)
(9.36394 5.49934 0)
(9.85817 5.85428 0)
(10.2592 6.32292 0)
(10.2391 6.1654 0)
(10.0266 5.17037 0)
(9.76388 3.92696 0)
(9.41863 3.24503 0)
(9.3578 2.77628 0)
(9.51791 1.58373 0)
(9.59017 -0.26649 0)
(9.42022 -1.87318 0)
(9.13214 -3.19745 0)
(8.8628 -4.77399 0)
(8.72778 -6.30782 0)
(8.63211 -7.46295 0)
(8.41344 -8.12621 0)
(8.27858 -8.64969 0)
(8.01899 -8.81147 0)
(8.14958 -8.43511 0)
(7.80743 -8.52807 0)
(7.9236 -8.63706 0)
(7.80261 -8.77638 0)
(8.03156 -8.88452 0)
(8.35813 -9.0492 0)
(8.60206 -9.23003 0)
(8.76978 -9.08132 0)
(8.70761 -8.46471 0)
(8.62643 -7.4196 0)
(8.65271 -6.48603 0)
(8.57861 -5.69396 0)
(8.54975 -4.59253 0)
(8.56588 -3.2268 0)
(8.46494 -1.88911 0)
(8.55559 -0.683954 0)
(8.63489 0.648852 0)
(8.26023 2.15863 0)
(7.81544 3.64973 0)
(7.80774 5.05776 0)
(7.98355 6.52843 0)
(8.09681 7.78343 0)
(7.8519 8.40616 0)
(7.54682 7.95379 0)
(7.17547 7.29766 0)
(7.12919 8.02111 0)
(6.86204 8.7076 0)
(6.55766 7.81142 0)
(5.9688 6.75436 0)
(6.0692 6.56394 0)
(5.94792 7.42147 0)
(6.21306 8.37103 0)
(6.21604 8.48796 0)
(5.84301 8.01354 0)
(5.40895 7.2156 0)
(4.72405 6.66854 0)
(4.55603 6.14132 0)
(4.09299 5.47386 0)
(4.04 4.77522 0)
(3.89702 3.97699 0)
(4.24746 3.00227 0)
(4.29979 1.87342 0)
(4.88706 0.689488 0)
(5.10276 -0.41154 0)
(5.60481 -1.67604 0)
(5.98676 -2.95392 0)
(6.66658 -3.69834 0)
(7.24122 -3.6217 0)
(7.77317 -3.23332 0)
(7.65245 -3.09291 0)
(8.06057 -4.00368 0)
(7.96059 -5.00866 0)
(8.29434 -5.84859 0)
(7.92109 -6.53135 0)
(8.34377 -6.29164 0)
(7.20072 -5.94859 0)
(8.32758 -5.04932 0)
(6.65585 -4.74214 0)
(8.10346 -3.59053 0)
(6.37754 -3.18336 0)
(7.83903 -2.24003 0)
(6.52005 -2.05585 0)
(7.33554 -1.13667 0)
(6.36871 -1.85701 0)
(7.16987 -1.11363 0)
(6.31153 -1.30772 0)
(6.55926 -0.730281 0)
(6.78275 -0.717228 0)
(6.76386 -0.759286 0)
(6.74061 -1.15502 0)
(7.2251 -1.26871 0)
(7.64883 -1.4458 0)
(7.97758 -1.89012 0)
(8.26876 -2.10891 0)
(8.56244 -2.10183 0)
(8.6906 -1.9307 0)
(8.99825 -1.8508 0)
(9.28578 -2.08666 0)
(9.84259 -2.07469 0)
(9.93726 -1.79504 0)
(10.089 -1.31645 0)
(10.3928 -0.890511 0)
(10.5121 -0.372392 0)
(10.4605 0.621433 0)
(10.7196 1.73858 0)
(11.1517 3.31148 0)
(11.1543 4.75112 0)
(10.8291 5.28912 0)
(10.334 6.15868 0)
(10.1018 7.38168 0)
(9.59069 8.23498 0)
(9.08991 9.24829 0)
(8.61859 10.3823 0)
(7.87132 11.2198 0)
(7.22221 11.9289 0)
(6.51023 13.7528 0)
(3.3055 17.1417 0)
(5.45688 -0.965928 0)
(5.97638 -1.56343 0)
(6.83003 -2.22603 0)
(6.19148 -2.6721 0)
(6.37596 -3.16594 0)
(5.30465 -3.37006 0)
(5.03051 -3.29188 0)
(3.94137 -2.9183 0)
(3.10125 -2.37161 0)
(1.7623 -1.98491 0)
(1.06362 -0.21102 0)
(1.73624 2.21809 0)
(3.18677 4.18244 0)
(3.85569 7.37543 0)
(4.39713 7.91326 0)
(6.53353 5.28709 0)
(5.5152 4.4693 0)
(6.02855 3.79711 0)
(6.10822 2.91086 0)
(6.64793 2.32413 0)
(7.83701 1.16516 0)
(9.14969 -0.326882 0)
(9.96202 -1.42383 0)
(10.8034 -2.57012 0)
(11.2316 -3.48311 0)
(11.6167 -4.24283 0)
(12.331 -5.16936 0)
(12.9884 -5.8022 0)
(13.6969 -6.35048 0)
(14.0298 -6.89483 0)
(13.719 -6.97061 0)
(13.3011 -7.01733 0)
(12.8856 -7.09665 0)
(12.4337 -6.95282 0)
(12.1507 -6.97495 0)
(11.8586 -7.03228 0)
(11.4168 -6.8477 0)
(11.0824 -6.68559 0)
(10.8868 -6.79016 0)
(10.6524 -6.71275 0)
(10.1914 -6.31152 0)
(10.1729 -6.35956 0)
(10.3759 -6.83384 0)
(10.2233 -6.64772 0)
(9.73464 -6.07479 0)
(9.21606 -5.82105 0)
(9.07618 -5.51814 0)
(9.09324 -5.32833 0)
(9.18393 -5.76396 0)
(9.6527 -6.26835 0)
(9.97889 -6.20872 0)
(10.3226 -5.44784 0)
(10.491 -4.61434 0)
(10.6783 -3.59421 0)
(10.6903 -1.9731 0)
(10.7077 -0.552008 0)
(10.6232 0.607047 0)
(10.6185 2.17768 0)
(10.5488 3.54542 0)
(10.2421 4.55639 0)
(9.62986 5.18423 0)
(9.12317 5.41631 0)
(8.80518 5.87236 0)
(8.22963 6.13749 0)
(7.80128 5.82293 0)
(7.49735 5.262 0)
(6.99179 4.94735 0)
(6.65116 4.89263 0)
(6.67345 4.27647 0)
(6.42736 3.36458 0)
(6.35384 3.46363 0)
(6.2524 4.13009 0)
(6.17033 3.8168 0)
(6.06623 2.83877 0)
(6.52383 2.27128 0)
(6.78667 2.29849 0)
(6.83696 2.45816 0)
(6.74521 2.84767 0)
(6.74366 3.49225 0)
(7.04072 3.48461 0)
(7.51427 3.09664 0)
(8.13368 3.90372 0)
(8.72895 5.59045 0)
(8.94554 6.34987 0)
(9.15615 5.76672 0)
(9.4042 5.35117 0)
(9.86695 5.70119 0)
(10.2848 6.2517 0)
(10.3434 6.20187 0)
(10.2033 5.26745 0)
(9.99191 4.0265 0)
(9.66556 3.31336 0)
(9.63968 2.78163 0)
(9.83288 1.57502 0)
(9.9013 -0.261441 0)
(9.67496 -1.80747 0)
(9.45135 -3.1118 0)
(9.24165 -4.71651 0)
(9.10836 -6.2652 0)
(8.96047 -7.4031 0)
(8.65534 -8.0426 0)
(8.48527 -8.55946 0)
(8.15599 -8.74525 0)
(8.25489 -8.3855 0)
(7.83343 -8.4681 0)
(7.95153 -8.62048 0)
(7.7743 -8.83809 0)
(7.95305 -8.98328 0)
(8.1948 -9.154 0)
(8.39098 -9.31402 0)
(8.55045 -9.09423 0)
(8.47309 -8.40725 0)
(8.31526 -7.39151 0)
(8.30415 -6.47466 0)
(8.22919 -5.65131 0)
(8.17215 -4.59347 0)
(8.21887 -3.20821 0)
(8.16035 -1.88064 0)
(8.21546 -0.693592 0)
(8.32286 0.713292 0)
(8.00217 2.28212 0)
(7.51914 3.72266 0)
(7.46881 5.02898 0)
(7.59789 6.46995 0)
(7.76307 7.78402 0)
(7.57115 8.4831 0)
(7.35379 8.06685 0)
(7.03283 7.38534 0)
(7.014 8.10563 0)
(6.77941 8.82024 0)
(6.48754 7.94845 0)
(5.95913 6.87033 0)
(6.09195 6.57267 0)
(6.03438 7.33414 0)
(6.35098 8.31979 0)
(6.50994 8.55001 0)
(6.2033 8.20025 0)
(5.88481 7.45646 0)
(5.14429 6.86762 0)
(4.97884 6.29425 0)
(4.49438 5.60954 0)
(4.43672 4.81816 0)
(4.3105 3.92339 0)
(4.70088 2.91556 0)
(4.82867 1.7429 0)
(5.44407 0.525388 0)
(5.60754 -0.524866 0)
(5.98463 -1.8225 0)
(6.32716 -3.18512 0)
(6.86135 -3.95378 0)
(7.39946 -3.8186 0)
(7.74347 -3.30504 0)
(7.71892 -3.14643 0)
(8.1678 -4.0939 0)
(8.18117 -5.04262 0)
(8.52659 -5.89451 0)
(8.27556 -6.4648 0)
(8.42958 -6.24033 0)
(7.61886 -5.84164 0)
(8.4607 -4.99781 0)
(6.88788 -4.64471 0)
(8.25923 -3.53017 0)
(6.41842 -3.13707 0)
(8.0449 -2.23303 0)
(6.36333 -1.99825 0)
(7.53875 -1.05279 0)
(6.35471 -1.88567 0)
(7.33628 -0.996909 0)
(6.11722 -1.28159 0)
(6.69319 -0.734528 0)
(6.68396 -0.826473 0)
(6.59632 -0.655126 0)
(6.66067 -1.32418 0)
(7.29646 -1.50727 0)
(7.63948 -1.60322 0)
(7.8017 -1.94862 0)
(8.12681 -2.25477 0)
(8.43386 -2.15557 0)
(8.68943 -2.07398 0)
(8.96252 -1.97843 0)
(9.30348 -2.25044 0)
(9.90893 -2.20492 0)
(9.97877 -1.82489 0)
(10.0488 -1.39754 0)
(10.3191 -0.986353 0)
(10.5889 -0.396429 0)
(10.6002 0.591554 0)
(10.6552 1.63247 0)
(11.0156 3.22453 0)
(11.176 4.81504 0)
(10.8917 5.45103 0)
(10.477 6.25257 0)
(10.2943 7.46854 0)
(9.81082 8.41683 0)
(9.31831 9.45096 0)
(8.92776 10.6379 0)
(8.24505 11.5932 0)
(7.7546 12.2884 0)
(7.79923 13.8453 0)
(4.65592 18.2014 0)
(7.10974 -1.18897 0)
(7.31054 -1.70363 0)
(8.03745 -2.3079 0)
(7.33945 -2.57989 0)
(7.72739 -2.93002 0)
(6.47871 -3.11896 0)
(6.31127 -2.99551 0)
(5.29241 -2.68611 0)
(4.46684 -1.90411 0)
(3.61996 -1.51675 0)
(1.99134 -0.20962 0)
(2.4061 1.71628 0)
(4.13497 3.63937 0)
(4.0411 6.82879 0)
(5.79307 7.57817 0)
(7.36665 5.41872 0)
(6.66659 4.54721 0)
(6.97414 3.77309 0)
(7.36782 2.74666 0)
(7.6882 2.00638 0)
(9.03565 0.72003 0)
(10.37 -0.768937 0)
(10.8963 -1.77479 0)
(11.4308 -2.79963 0)
(11.8409 -3.64728 0)
(12.4969 -4.446 0)
(13.3501 -5.40081 0)
(13.9121 -6.02827 0)
(14.2078 -6.4784 0)
(14.0951 -6.81903 0)
(13.6241 -6.81841 0)
(13.2263 -6.88716 0)
(12.8233 -6.93473 0)
(12.4267 -6.78252 0)
(12.1739 -6.83242 0)
(11.8727 -6.88383 0)
(11.4468 -6.70802 0)
(11.1365 -6.60928 0)
(10.9261 -6.69401 0)
(10.6576 -6.54592 0)
(10.2542 -6.22332 0)
(10.2761 -6.38338 0)
(10.4062 -6.80094 0)
(10.0781 -6.51229 0)
(9.48082 -5.86883 0)
(8.94831 -5.69966 0)
(8.88987 -5.51811 0)
(8.99887 -5.38901 0)
(9.08066 -5.89226 0)
(9.47908 -6.4199 0)
(9.78323 -6.31005 0)
(10.0323 -5.52528 0)
(10.1129 -4.65907 0)
(10.227 -3.55775 0)
(10.1705 -1.94491 0)
(10.14 -0.53554 0)
(10.047 0.635859 0)
(10.0535 2.17546 0)
(10.0541 3.61126 0)
(9.79904 4.74356 0)
(9.23484 5.37302 0)
(8.77892 5.57347 0)
(8.50216 6.04745 0)
(7.90781 6.30047 0)
(7.5269 5.94668 0)
(7.26703 5.43045 0)
(6.75 5.12769 0)
(6.48058 4.94933 0)
(6.55186 4.31829 0)
(6.27034 3.44278 0)
(6.21396 3.50347 0)
(6.16696 4.13913 0)
(6.0748 3.85306 0)
(5.99356 2.76791 0)
(6.50378 2.11157 0)
(6.79779 2.21574 0)
(6.75501 2.49003 0)
(6.61757 2.88547 0)
(6.66627 3.41033 0)
(7.10068 3.30465 0)
(7.60034 2.86973 0)
(8.0959 3.67359 0)
(8.66255 5.42306 0)
(8.9299 6.24031 0)
(9.18002 5.662 0)
(9.42671 5.20263 0)
(9.85582 5.53492 0)
(10.2792 6.15331 0)
(10.4085 6.20718 0)
(10.3421 5.33098 0)
(10.183 4.1024 0)
(9.87636 3.36232 0)
(9.90856 2.76461 0)
(10.1091 1.53728 0)
(10.1742 -0.256978 0)
(9.92497 -1.70765 0)
(9.78115 -2.97885 0)
(9.61292 -4.6222 0)
(9.47096 -6.20035 0)
(9.25678 -7.29908 0)
(8.86491 -7.92597 0)
(8.67211 -8.45638 0)
(8.27257 -8.65137 0)
(8.34384 -8.32172 0)
(7.84764 -8.39515 0)
(7.96212 -8.57292 0)
(7.71486 -8.85666 0)
(7.84482 -9.05378 0)
(7.99532 -9.23558 0)
(8.17264 -9.38243 0)
(8.30987 -9.11729 0)
(8.21625 -8.33041 0)
(7.98545 -7.34772 0)
(7.92734 -6.45273 0)
(7.87051 -5.61878 0)
(7.76951 -4.56869 0)
(7.80032 -3.19478 0)
(7.81872 -1.90039 0)
(7.85904 -0.70091 0)
(7.94807 0.789225 0)
(7.65528 2.44472 0)
(7.16609 3.85827 0)
(7.10997 5.03451 0)
(7.20375 6.41742 0)
(7.41901 7.76026 0)
(7.27032 8.52883 0)
(7.12792 8.14687 0)
(6.87801 7.45881 0)
(6.89746 8.17983 0)
(6.68772 8.92088 0)
(6.41056 8.0723 0)
(5.9338 6.96138 0)
(6.10066 6.56679 0)
(6.11392 7.21988 0)
(6.46094 8.22043 0)
(6.78395 8.56614 0)
(6.55867 8.33965 0)
(6.38044 7.68697 0)
(5.64816 7.07053 0)
(5.47351 6.44626 0)
(5.00769 5.74998 0)
(4.99058 4.86384 0)
(4.81296 3.87855 0)
(5.24027 2.8079 0)
(5.42603 1.56759 0)
(6.05012 0.36371 0)
(6.10211 -0.60044 0)
(6.39887 -1.94059 0)
(6.66874 -3.37719 0)
(7.07447 -4.16678 0)
(7.49468 -3.97512 0)
(7.68106 -3.36612 0)
(7.76915 -3.22208 0)
(8.28672 -4.23012 0)
(8.37867 -5.09927 0)
(8.80817 -5.97323 0)
(8.52884 -6.37285 0)
(8.5781 -6.2046 0)
(8.03538 -5.76711 0)
(8.55459 -4.89551 0)