/*--------------------------------*- C++ -*----------------------------------*\
| =========                 |                                                 |
| \\      /  F ield         | OpenFOAM: The Open Source CFD Toolbox           |
|  \\    /   O peration     | Version:  2.4.0                                 |
|   \\  /    A nd           | Web:      www.OpenFOAM.org                      |
|    \\/     M anipulation  |                                                 |
\*---------------------------------------------------------------------------*/
FoamFile
{
    version     2.0;
    format      ascii;
    class       volSymmTensorField;
    location    "0.036";
    object      UPrime2Mean;
}
// * * * * * * * * * * * * * * * * * * * * * * * * * * * * * * * * * * * * * //

dimensions      [0 2 -2 0 0 0 0];

internalField   nonuniform List<symmTensor> 
4400
(
(0.154054 -0.0152525 0 0.00270786 0 0)
(1.70775 -0.00519034 0 0.000232832 0 0)
(1.92891 -0.00298899 0 1.09077e-05 0 0)
(2.16015 -0.00181227 0 5.37259e-06 0 0)
(2.298 0.000122356 0 1.84235e-06 0 0)
(2.35788 -1.34544e-05 0 2.80651e-06 0 0)
(2.40772 -0.000156368 0 3.50718e-06 0 0)
(2.47579 0.000461587 0 1.27907e-05 0 0)
(2.83026 -0.0467089 0 0.00104117 0 0)
(4.39557 0.253187 0 0.0332228 0 0)
(0.113306 0.0471354 0 0.0278253 0 0)
(0.660331 -0.0526725 0 0.0047992 0 0)
(0.933802 -0.0306697 0 0.00102578 0 0)
(1.31423 -0.0246059 0 0.000596179 0 0)
(1.65837 -0.0128415 0 0.000289067 0 0)
(1.8944 -0.009154 0 0.000123223 0 0)
(2.01434 -0.00491196 0 0.000111741 0 0)
(2.33089 -0.01673 0 0.000239289 0 0)
(2.21511 -0.0425363 0 0.00244289 0 0)
(6.35143 -0.791473 0 0.194848 0 0)
(0.355389 0.112618 0 0.0377922 0 0)
(0.109122 -0.0282656 0 0.0113787 0 0)
(0.190392 -0.0246547 0 0.00411774 0 0)
(0.373814 -0.0318829 0 0.00294132 0 0)
(0.631301 -0.024989 0 0.00165027 0 0)
(0.920952 -0.0202032 0 0.00073654 0 0)
(1.0114 -0.0162434 0 0.000723835 0 0)
(1.45574 -0.0134558 0 0.000795621 0 0)
(1.26218 -0.126853 0 0.0203438 0 0)
(4.1006 -0.777794 0 0.329543 0 0)
(0.436798 0.109491 0 0.0286626 0 0)
(0.017137 0.003708 0 0.0141661 0 0)
(0.0686479 0.00961497 0 0.00697651 0 0)
(0.0624252 -0.00235705 0 0.00674243 0 0)
(0.0753166 -0.0109136 0 0.00461395 0 0)
(0.228617 -0.0167567 0 0.00180919 0 0)
(0.185123 -0.0164201 0 0.00237798 0 0)
(0.555606 -0.00521095 0 0.00166795 0 0)
(0.413296 -0.077657 0 0.0366403 0 0)
(1.23578 -0.26242 0 0.322853 0 0)
(0.417424 0.0848564 0 0.0181045 0 0)
(0.0222321 0.00958311 0 0.0109907 0 0)
(0.177602 0.0280761 0 0.00621448 0 0)
(0.219668 0.0322783 0 0.00821059 0 0)
(0.21906 0.0234414 0 0.00698672 0 0)
(0.139166 0.00508282 0 0.00405438 0 0)
(0.150609 0.0037322 0 0.00243004 0 0)
(0.141799 -0.00130178 0 0.00508989 0 0)
(0.202662 0.00928646 0 0.0300578 0 0)
(0.282265 0.0859322 0 0.463091 0 0)
(0.423236 0.0678201 0 0.01144 0 0)
(0.0206432 0.00543301 0 0.00758442 0 0)
(0.197557 0.0229928 0 0.00370597 0 0)
(0.309814 0.0369194 0 0.00670895 0 0)
(0.455711 0.0392185 0 0.00668422 0 0)
(0.366628 0.0270773 0 0.00407767 0 0)
(0.455698 0.0223803 0 0.00405561 0 0)
(0.371676 0.0246289 0 0.00427236 0 0)
(0.385365 0.0945158 0 0.0494594 0 0)
(0.467568 0.300774 0 0.289595 0 0)
(0.418027 0.0523804 0 0.00699487 0 0)
(0.017406 0.00376028 0 0.00487856 0 0)
(0.170707 0.0150781 0 0.00205661 0 0)
(0.319148 0.0283124 0 0.00367154 0 0)
(0.452428 0.0303299 0 0.0036123 0 0)
(0.486541 0.029663 0 0.00456675 0 0)
(0.595894 0.0196116 0 0.00173746 0 0)
(0.606808 0.0532788 0 0.00982219 0 0)
(0.685879 0.107855 0 0.0250231 0 0)
(0.794013 0.420952 0 0.331083 0 0)
(0.405292 0.0355831 0 0.00340682 0 0)
(0.0133236 0.00287336 0 0.00330605 0 0)
(0.155344 0.00853503 0 0.00114514 0 0)
(0.314935 0.0213865 0 0.00261334 0 0)
(0.419705 0.0162601 0 0.00237242 0 0)
(0.499906 0.0230961 0 0.00230907 0 0)
(0.574593 0.0181057 0 0.00161099 0 0)
(0.679986 0.0440173 0 0.00465724 0 0)
(0.762756 0.129478 0 0.0330517 0 0)
(1.07584 0.444756 0 0.260771 0 0)
(0.400482 0.0218246 0 0.0012794 0 0)
(0.0139286 0.00165021 0 0.00115732 0 0)
(0.150032 0.00456527 0 0.000410117 0 0)
(0.312573 0.0128805 0 0.000941605 0 0)
(0.401309 0.00865322 0 0.000630175 0 0)
(0.487265 0.0183489 0 0.0017006 0 0)
(0.557074 0.0094403 0 0.00091549 0 0)
(0.678308 0.0484375 0 0.00636937 0 0)
(0.780755 0.121577 0 0.0219109 0 0)
(1.14178 0.408542 0 0.184461 0 0)
(0.401219 0.00678692 0 0.000187163 0 0)
(0.0130616 0.000383224 0 0.000358984 0 0)
(0.146508 0.000347129 0 0.000226733 0 0)
(0.306815 0.00634455 0 0.000402365 0 0)
(0.394865 -0.00125705 0 0.00040215 0 0)
(0.48098 0.00948826 0 0.000710623 0 0)
(0.553007 0.00600141 0 0.000568812 0 0)
(0.682124 0.0406863 0 0.00411621 0 0)
(0.803768 0.109392 0 0.0196731 0 0)
(1.20349 0.383325 0 0.16666 0 0)
(0.402407 -0.006812 0 0.000125667 0 0)
(0.0129241 -0.0006817 0 0.000126088 0 0)
(0.147376 -0.00318192 0 0.000214682 0 0)
(0.30568 -0.00146695 0 0.000217884 0 0)
(0.397126 -0.00903675 0 0.000588453 0 0)
(0.480583 0.00314529 0 0.000429062 0 0)
(0.558079 0.000175711 0 0.000655429 0 0)
(0.693331 0.0338758 0 0.00350893 0 0)
(0.833805 0.102246 0 0.0147553 0 0)
(1.27472 0.339077 0 0.114738 0 0)
(0.401673 -0.0215341 0 0.00123406 0 0)
(0.0132359 -0.00192496 0 0.000955 0 0)
(0.150312 -0.00730028 0 0.000564767 0 0)
(0.308643 -0.00884961 0 0.000442366 0 0)
(0.403797 -0.018242 0 0.00132563 0 0)
(0.488426 -0.00565513 0 0.000587324 0 0)
(0.569615 -0.00527722 0 0.000744771 0 0)
(0.710637 0.0271354 0 0.00258758 0 0)
(0.870473 0.0867813 0 0.0103668 0 0)
(1.3298 0.295553 0 0.08172 0 0)
(0.399873 -0.035638 0 0.00333635 0 0)
(0.0138544 -0.00334481 0 0.00258141 0 0)
(0.15552 -0.0115666 0 0.00128724 0 0)
(0.315791 -0.0166894 0 0.0014413 0 0)
(0.417942 -0.0271894 0 0.002961 0 0)
(0.50375 -0.0131604 0 0.00125698 0 0)
(0.589796 -0.0115063 0 0.00117529 0 0)
(0.731741 0.0188007 0 0.00216003 0 0)
(0.911543 0.0708694 0 0.0067869 0 0)
(1.37647 0.245593 0 0.05587 0 0)
(0.397508 -0.0504212 0 0.0067178 0 0)
(0.0150267 -0.00531724 0 0.00480653 0 0)
(0.16328 -0.0165 0 0.00231389 0 0)
(0.328576 -0.0256257 0 0.0028613 0 0)
(0.439192 -0.0369505 0 0.00491398 0 0)
(0.511758 -0.0220888 0 0.00254004 0 0)
(0.593853 -0.0172212 0 0.00181099 0 0)
(0.696496 0.00950339 0 0.00180098 0 0)
(0.870458 0.0535317 0 0.00423393 0 0)
(1.2497 0.181021 0 0.0318884 0 0)
(0.396497 -0.0655868 0 0.0113862 0 0)
(0.0179871 -0.00805535 0 0.00739413 0 0)
(0.175154 -0.0228584 0 0.0040914 0 0)
(0.33737 -0.0350769 0 0.00512705 0 0)
(0.409364 -0.0422397 0 0.00723434 0 0)
(0.411067 -0.0230913 0 0.00374177 0 0)
(0.435663 -0.0160649 0 0.00216514 0 0)
(0.451659 0.00522163 0 0.0016889 0 0)
(0.552687 0.0327419 0 0.00261809 0 0)
(0.785843 0.107285 0 0.0172973 0 0)
(0.406285 -0.0835649 0 0.0180068 0 0)
(0.0216339 -0.0115616 0 0.0109666 0 0)
(0.16104 -0.0270076 0 0.00662617 0 0)
(0.232629 -0.0321278 0 0.00716647 0 0)
(0.193612 -0.0232749 0 0.00751181 0 0)
(0.141821 -0.00595518 0 0.00351126 0 0)
(0.14368 -0.00244116 0 0.00161997 0 0)
(0.141523 0.004232 0 0.00116957 0 0)
(0.178725 0.00953775 0 0.00180613 0 0)
(0.281105 0.0357462 0 0.00801317 0 0)
(0.430111 -0.108665 0 0.0286842 0 0)
(0.0154745 -0.00482457 0 0.0140851 0 0)
(0.0669732 -0.00857281 0 0.00734092 0 0)
(0.053921 0.00108768 0 0.00590575 0 0)
(0.0791637 0.0138125 0 0.00476043 0 0)
(0.168101 0.0130144 0 0.00193349 0 0)
(0.235201 0.00699631 0 0.000743542 0 0)
(0.289715 -0.000240638 0 0.000634495 0 0)
(0.252198 -0.0124036 0 0.00124231 0 0)
(0.200563 -0.00632746 0 0.00345858 0 0)
(0.352111 -0.112038 0 0.0377906 0 0)
(0.104482 0.0276098 0 0.0113299 0 0)
(0.199384 0.0257066 0 0.00425937 0 0)
(0.35911 0.0297159 0 0.00262531 0 0)
(0.633026 0.028183 0 0.00178713 0 0)
(0.883495 0.0140293 0 0.000648419 0 0)
(0.982907 0.00587825 0 0.000223299 0 0)
(1.06767 -0.00446118 0 0.00024718 0 0)
(0.928193 -0.0209372 0 0.000691327 0 0)
(0.758703 -0.00660263 0 0.00170403 0 0)
(0.112808 -0.0469067 0 0.0278357 0 0)
(0.65529 0.0523684 0 0.00478166 0 0)
(0.944256 0.031321 0 0.00105902 0 0)
(1.30155 0.0231152 0 0.000525898 0 0)
(1.657 0.0148505 0 0.00031533 0 0)
(1.87992 0.00500638 0 0.000104846 0 0)
(1.94023 0.00141246 0 3.67766e-05 0 0)
(1.99059 -0.00407341 0 6.14749e-05 0 0)
(1.82041 -0.0143821 0 0.000209984 0 0)
(1.60783 0.00558131 0 0.00103787 0 0)
(0.154414 0.015281 0 0.00270981 0 0)
(1.70582 0.00514248 0 0.000233533 0 0)
(1.93252 0.00311894 0 1.09445e-05 0 0)
(2.15585 0.00153876 0 4.63075e-06 0 0)
(2.29655 0.000168845 0 1.67545e-06 0 0)
(2.35258 -0.000405034 0 1.61135e-06 0 0)
(2.35631 -0.000341762 0 1.37726e-06 0 0)
(2.34954 -0.000926278 0 2.37563e-06 0 0)
(2.25333 -0.00322328 0 9.28596e-06 0 0)
(2.04888 0.0046826 0 0.000512785 0 0)
(13.7715 -9.12308 0 7.69363 0 0)
(11.077 -6.28261 0 8.81549 0 0)
(8.75701 -4.5251 0 8.94398 0 0)
(8.23 -3.76436 0 8.91219 0 0)
(6.19804 -2.48661 0 8.41991 0 0)
(5.19729 -1.79975 0 8.40287 0 0)
(4.58274 -0.775613 0 7.76156 0 0)
(4.91249 -0.223088 0 6.8609 0 0)
(5.52385 -0.236666 0 5.60625 0 0)
(6.11363 -0.69408 0 4.464 0 0)
(6.12567 -1.174 0 3.50095 0 0)
(5.77845 -1.70023 0 2.79411 0 0)
(5.69736 -2.42573 0 2.60319 0 0)
(6.02288 -3.23588 0 2.84125 0 0)
(6.3664 -3.88803 0 3.1306 0 0)
(6.88753 -4.41156 0 3.35478 0 0)
(7.54431 -4.85951 0 3.515 0 0)
(7.84005 -5.06082 0 3.5298 0 0)
(7.38409 -4.81538 0 3.28417 0 0)
(6.39314 -4.11436 0 2.71845 0 0)
(5.30759 -3.18532 0 1.96278 0 0)
(4.17526 -2.26425 0 1.27044 0 0)
(3.201 -1.48007 0 0.720564 0 0)
(2.32814 -0.864846 0 0.350944 0 0)
(1.56015 -0.437992 0 0.145855 0 0)
(1.01434 -0.182731 0 0.0508864 0 0)
(0.632328 -0.0620102 0 0.0194721 0 0)
(0.370925 -0.0160979 0 0.0088574 0 0)
(0.219003 0.00829293 0 0.0069532 0 0)
(0.137964 0.0234187 0 0.0107697 0 0)
(0.091103 0.0273422 0 0.015466 0 0)
(0.061328 0.0231812 0 0.0163178 0 0)
(0.0422772 0.0164733 0 0.0133071 0 0)
(0.0305123 0.0107259 0 0.00932105 0 0)
(0.0235165 0.00682867 0 0.006112 0 0)
(0.0194612 0.00445442 0 0.00395472 0 0)
(0.0171268 0.00306146 0 0.00258964 0 0)
(0.0157689 0.0022331 0 0.00172697 0 0)
(0.0149632 0.00171764 0 0.00117056 0 0)
(0.0144751 0.0013754 0 0.000802724 0 0)
(0.0141739 0.00113232 0 0.000554826 0 0)
(0.013986 0.000948733 0 0.000385318 0 0)
(0.0138685 0.00080388 0 0.000268411 0 0)
(0.0137952 0.000686302 0 0.000187532 0 0)
(0.0137502 0.000589085 0 0.000131408 0 0)
(0.0137229 0.000508066 0 9.24247e-05 0 0)
(0.0137074 0.000440496 0 6.53299e-05 0 0)
(0.0136986 0.000384641 0 4.65795e-05 0 0)
(0.013696 0.00033889 0 3.35353e-05 0 0)
(0.0136936 0.000302747 0 2.46818e-05 0 0)
(0.0136999 0.000274009 0 1.83692e-05 0 0)
(0.0136951 0.0002553 0 1.45684e-05 0 0)
(0.0137184 0.000238758 0 1.12013e-05 0 0)
(0.0136926 0.000240454 0 1.071e-05 0 0)
(0.0137692 0.000225128 0 7.63355e-06 0 0)
(0.0136617 0.000266196 0 1.19184e-05 0 0)
(0.0139138 0.000212877 0 5.12554e-06 0 0)
(0.0135341 0.000364247 0 2.58251e-05 0 0)
(0.0143372 0.000126519 0 8.43077e-06 0 0)
(0.0131567 0.000607085 0 0.000114621 0 0)
(0.0155958 -0.000344529 0 0.000111113 0 0)
(0.0123442 0.00100881 0 0.000727624 0 0)
(0.019314 -0.00245641 0 0.00107453 0 0)
(0.0113046 0.000841253 0 0.00447529 0 0)
(0.029124 -0.0100863 0 0.00648134 0 0)
(0.010849 -0.00212137 0 0.0206214 0 0)
(0.0475537 -0.0284698 0 0.0238043 0 0)
(0.0103227 -0.00643053 0 0.0591537 0 0)
(0.0681773 -0.053651 0 0.052605 0 0)
(0.00896291 -0.00379618 0 0.101387 0 0)
(0.0869916 -0.0748098 0 0.0761973 0 0)
(0.00904669 0.00506133 0 0.120127 0 0)
(0.112665 -0.0837091 0 0.0806039 0 0)
(0.0121377 0.0139756 0 0.120347 0 0)
(0.141363 -0.0755861 0 0.0711465 0 0)
(0.0175324 0.0211072 0 0.116685 0 0)
(0.155852 -0.0634639 0 0.0595661 0 0)
(0.0241375 0.0273708 0 0.114004 0 0)
(0.135174 -0.0490375 0 0.0482582 0 0)
(0.0350701 0.0299908 0 0.105056 0 0)
(0.0918967 -0.0292001 0 0.036059 0 0)
(0.0366383 0.0239131 0 0.0900503 0 0)
(0.0535176 -0.0129829 0 0.0260105 0 0)
(0.0256697 0.0118916 0 0.0717965 0 0)
(0.0214267 -0.00486654 0 0.0186032 0 0)
(0.0149546 -0.000821349 0 0.0529102 0 0)
(0.00822478 -0.00180653 0 0.0126843 0 0)
(0.0113184 -0.00933411 0 0.0373913 0 0)
(0.00591749 -0.00149326 0 0.0084262 0 0)
(0.0182758 -0.0138408 0 0.028255 0 0)
(0.0167113 1.97628e-05 0 0.00752943 0 0)
(0.0329413 -0.0164438 0 0.025015 0 0)
(0.0325723 -0.000112863 0 0.00991003 0 0)
(0.0341393 -0.0159078 0 0.0292166 0 0)
(0.0424683 -0.00234129 0 0.0224355 0 0)
(0.0479075 -0.0329322 0 0.0410984 0 0)
(0.218535 -0.0359729 0 0.0220442 0 0)
(0.0857836 -0.0391163 0 0.0347587 0 0)
(0.189812 -0.0278352 0 0.0260268 0 0)
(0.461338 0.0332848 0 0.0998827 0 0)
(10.3017 -6.57239 0 6.46833 0 0)
(8.36338 -5.26664 0 7.46342 0 0)
(6.9703 -3.43628 0 7.22851 0 0)
(6.81715 -2.83057 0 7.06939 0 0)
(5.84951 -2.10175 0 6.62489 0 0)
(5.28049 -1.72996 0 6.53088 0 0)
(5.25584 -1.20792 0 6.03985 0 0)
(5.62765 -0.926946 0 5.33867 0 0)
(6.18469 -0.97116 0 4.47849 0 0)
(6.44363 -1.19141 0 3.62793 0 0)
(6.45533 -1.45728 0 2.86056 0 0)
(6.75838 -2.07075 0 2.39379 0 0)
(7.48802 -3.03166 0 2.42088 0 0)
(8.13447 -3.96755 0 2.75524 0 0)
(8.55839 -4.64099 0 3.0774 0 0)
(9.05064 -5.13383 0 3.31113 0 0)
(9.24737 -5.39843 0 3.42379 0 0)
(8.91194 -5.31292 0 3.33973 0 0)
(8.06365 -4.83862 0 2.99906 0 0)
(6.89823 -4.0429 0 2.42282 0 0)
(5.79195 -3.10208 0 1.7062 0 0)
(4.67439 -2.17255 0 1.04592 0 0)
(3.61325 -1.35606 0 0.538436 0 0)
(2.60976 -0.719717 0 0.222156 0 0)
(1.69915 -0.305789 0 0.0737753 0 0)
(1.04988 -0.0820681 0 0.0218387 0 0)
(0.623359 0.00753238 0 0.0126443 0 0)
(0.34345 0.0256286 0 0.0108891 0 0)
(0.183229 0.0278594 0 0.0123255 0 0)
(0.103901 0.0292998 0 0.0174878 0 0)
(0.0651058 0.026688 0 0.0216376 0 0)
(0.0445763 0.0208512 0 0.0210857 0 0)
(0.0328159 0.0147311 0 0.0166548 0 0)
(0.025665 0.00990148 0 0.011494 0 0)
(0.0211659 0.00657093 0 0.0074324 0 0)
(0.0183206 0.00443072 0 0.00471742 0 0)
(0.0165341 0.00309871 0 0.00301212 0 0)
(0.0154201 0.0022696 0 0.00195328 0 0)
(0.0147277 0.00174054 0 0.00128938 0 0)
(0.0142976 0.00138637 0 0.000864339 0 0)
(0.0140312 0.00113566 0 0.000586348 0 0)
(0.0138672 0.000948036 0 0.000401279 0 0)
(0.0137683 0.000801288 0 0.000276358 0 0)
(0.0137102 0.000682998 0 0.000191349 0 0)
(0.013678 0.000585546 0 0.000133106 0 0)
(0.0136619 0.000504642 0 9.30686e-05 0 0)
(0.0136563 0.000437333 0 6.54725e-05 0 0)
(0.0136563 0.000381762 0 4.64951e-05 0 0)
(0.0136618 0.000336323 0 3.3369e-05 0 0)
(0.0136664 0.000300351 0 2.44852e-05 0 0)
(0.01368 0.00027179 0 1.81733e-05 0 0)
(0.0136801 0.000252958 0 1.4359e-05 0 0)
(0.0137122 0.000236434 0 1.0992e-05 0 0)
(0.013686 0.000237611 0 1.04676e-05 0 0)
(0.013781 0.000221834 0 7.35318e-06 0 0)
(0.0136543 0.000262253 0 1.16068e-05 0 0)
(0.0139634 0.000205497 0 4.73435e-06 0 0)
(0.0134973 0.000358492 0 2.57757e-05 0 0)
(0.0145015 9.86744e-05 0 9.92427e-06 0 0)
(0.0130221 0.000588961 0 0.000120893 0 0)
(0.0161839 -0.000494194 0 0.00014444 0 0)
(0.0120624 0.000850931 0 0.000804275 0 0)
(0.02165 -0.00334701 0 0.001415 0 0)
(0.0113912 -0.000365934 0 0.00511961 0 0)
(0.0385103 -0.0148216 0 0.00878119 0 0)
(0.0138246 -0.00845836 0 0.0245733 0 0)
(0.0796324 -0.0472365 0 0.033627 0 0)
(0.0201757 -0.027524 0 0.0746467 0 0)
(0.1503 -0.103805 0 0.0782511 0 0)
(0.0248608 -0.0463943 0 0.136359 0 0)
(0.249175 -0.168037 0 0.120923 0 0)
(0.0226918 -0.0501463 0 0.172006 0 0)
(0.366795 -0.212978 0 0.13966 0 0)
(0.0155118 -0.036669 0 0.182279 0 0)
(0.457088 -0.220404 0 0.135668 0 0)
(0.0162669 -0.0153982 0 0.185228 0 0)
(0.516105 -0.20992 0 0.123708 0 0)
(0.0243842 0.00662544 0 0.189659 0 0)
(0.529168 -0.189174 0 0.108332 0 0)
(0.04757 0.0272267 0 0.183603 0 0)
(0.472335 -0.141311 0 0.0834838 0 0)
(0.0744391 0.0363475 0 0.165946 0 0)
(0.378421 -0.0808546 0 0.0592289 0 0)
(0.0722211 0.0332539 0 0.142542 0 0)
(0.24004 -0.0321824 0 0.043063 0 0)
(0.0459399 0.0185166 0 0.111379 0 0)
(0.0958693 -0.00172946 0 0.0339609 0 0)
(0.00972233 0.00139751 0 0.0787981 0 0)
(0.0197199 0.0102694 0 0.0288294 0 0)
(0.00462707 -0.00245607 0 0.0563288 0 0)
(0.0295317 0.0207149 0 0.0297448 0 0)
(0.00798785 -0.00350748 0 0.0454368 0 0)
(0.042818 0.00908194 0 0.0315851 0 0)
(0.0673197 -0.00785483 0 0.0418274 0 0)
(0.0993979 -0.000611484 0 0.0194969 0 0)
(0.0627769 -0.0388806 0 0.0470623 0 0)
(0.167774 0.0242763 0 0.0392299 0 0)
(0.147638 -0.0771168 0 0.0800796 0 0)
(0.262252 -0.0787837 0 0.0529364 0 0)
(0.454375 -0.168816 0 0.170024 0 0)
(5.49626 -2.84451 0 3.28453 0 0)
(5.52311 -3.43327 0 4.96904 0 0)
(4.4632 -2.16768 0 5.73907 0 0)
(4.9979 -1.41128 0 5.90397 0 0)
(5.24765 -0.862792 0 5.55362 0 0)
(5.6877 -0.717173 0 5.24382 0 0)
(6.18784 -0.682881 0 4.81471 0 0)
(6.63208 -0.686383 0 4.23623 0 0)
(7.00429 -0.824504 0 3.57268 0 0)
(7.322 -1.03665 0 2.86879 0 0)
(8.04711 -1.54029 0 2.29008 0 0)
(9.15443 -2.50162 0 2.06899 0 0)
(10.1562 -3.67923 0 2.25997 0 0)
(10.6679 -4.64361 0 2.65167 0 0)
(10.8318 -5.27264 0 2.99409 0 0)
(10.8145 -5.6226 0 3.21195 0 0)
(10.3253 -5.63888 0 3.26089 0 0)
(9.43086 -5.32025 0 3.10263 0 0)
(8.4074 -4.71742 0 2.70569 0 0)
(7.3052 -3.90811 0 2.13961 0 0)
(6.23412 -2.98219 0 1.47223 0 0)
(5.10491 -2.04211 0 0.852718 0 0)
(3.9811 -1.19794 0 0.387521 0 0)
(2.88529 -0.54297 0 0.120982 0 0)
(1.85125 -0.145269 0 0.0267496 0 0)
(1.0934 0.0345962 0 0.0147991 0 0)
(0.614541 0.0825337 0 0.0236909 0 0)
(0.316188 0.067718 0 0.0257666 0 0)
(0.150718 0.0452024 0 0.0254302 0 0)
(0.0744143 0.031403 0 0.0277221 0 0)
(0.043191 0.0220907 0 0.028626 0 0)
(0.0303611 0.0152085 0 0.0252164 0 0)
(0.0243552 0.0105972 0 0.0189658 0 0)
(0.0209184 0.00756936 0 0.0128298 0 0)
(0.0186158 0.00547106 0 0.0082477 0 0)
(0.0169735 0.00398238 0 0.00522654 0 0)
(0.0158047 0.00293974 0 0.00332385 0 0)
(0.014996 0.00222249 0 0.00213774 0 0)
(0.014454 0.00172887 0 0.0013931 0 0)
(0.0141015 0.00138328 0 0.000919978 0 0)
(0.013879 0.00113264 0 0.000614726 0 0)
(0.0137434 0.000943801 0 0.00041488 0 0)
(0.013665 0.000796208 0 0.000282416 0 0)
(0.0136233 0.000677368 0 0.000193592 0 0)
(0.0136046 0.000579986 0 0.000133563 0 0)
(0.0136002 0.000499352 0 9.27811e-05 0 0)
(0.0136049 0.000432475 0 6.49308e-05 0 0)
(0.0136138 0.000377316 0 4.5913e-05 0 0)
(0.0136276 0.000332289 0 3.28403e-05 0 0)
(0.0136391 0.00029656 0 2.40105e-05 0 0)
(0.0136599 0.000268316 0 1.77779e-05 0 0)
(0.0136648 0.000249321 0 1.39752e-05 0 0)
(0.0137056 0.000233114 0 1.06838e-05 0 0)
(0.013679 0.000233291 0 1.00721e-05 0 0)
(0.0137923 0.000218099 0 7.06474e-06 0 0)
(0.0136453 0.000255842 0 1.10182e-05 0 0)
(0.0140139 0.000199405 0 4.43216e-06 0 0)
(0.0134551 0.000347092 0 2.46633e-05 0 0)
(0.0146784 7.68638e-05 0 1.10488e-05 0 0)
(0.0128771 0.000555227 0 0.000121247 0 0)
(0.0168573 -0.000634651 0 0.000172944 0 0)
(0.0118387 0.000634551 0 0.000848085 0 0)
(0.0244481 -0.00430348 0 0.0017469 0 0)
(0.0121195 -0.00182359 0 0.00559188 0 0)
(0.0498038 -0.0201385 0 0.0112351 0 0)
(0.0194633 -0.0153145 0 0.0276478 0 0)
(0.116903 -0.0677799 0 0.0444184 0 0)
(0.0357708 -0.0470342 0 0.0858894 0 0)
(0.23794 -0.153055 0 0.104017 0 0)
(0.050382 -0.0805112 0 0.157352 0 0)
(0.392384 -0.245228 0 0.15968 0 0)
(0.0518488 -0.0930791 0 0.201048 0 0)
(0.532231 -0.311981 0 0.192716 0 0)
(0.0419896 -0.0783873 0 0.222795 0 0)
(0.625957 -0.343304 0 0.204498 0 0)
(0.0419902 -0.0456143 0 0.237024 0 0)
(0.713309 -0.355774 0 0.205234 0 0)
(0.0444248 -0.00521059 0 0.253779 0 0)
(0.802979 -0.355189 0 0.203067 0 0)
(0.0714327 0.0398712 0 0.257621 0 0)
(0.872111 -0.330117 0 0.178243 0 0)
(0.124165 0.0736779 0 0.241898 0 0)
(0.912621 -0.272008 0 0.137355 0 0)
(0.201624 0.100385 0 0.224389 0 0)
(0.871491 -0.188003 0 0.0999336 0 0)
(0.274229 0.107683 0 0.199878 0 0)
(0.68653 -0.0891934 0 0.0720496 0 0)
(0.252456 0.0756875 0 0.163568 0 0)
(0.341384 -0.029121 0 0.0613757 0 0)
(0.117501 0.0118646 0 0.118616 0 0)
(0.0590974 -0.0199801 0 0.0555227 0 0)
(0.0192517 -0.0299432 0 0.0887451 0 0)
(0.0767022 -0.00295463 0 0.0612081 0 0)
(0.0513935 -0.0364163 0 0.0967146 0 0)
(0.107019 -0.0454369 0 0.0535119 0 0)
(0.168137 -0.056412 0 0.0914501 0 0)
(0.240016 -0.0222682 0 0.0632112 0 0)
(0.295932 -0.138621 0 0.125872 0 0)
(0.423632 -0.13353 0 0.0830407 0 0)
(0.457942 -0.263899 0 0.274537 0 0)
(2.16634 -0.751796 0 2.73978 0 0)
(4.14063 -1.13934 0 4.08318 0 0)
(4.13718 -0.821251 0 4.56904 0 0)
(4.4838 -0.248788 0 4.73363 0 0)
(5.12272 0.281551 0 4.50242 0 0)
(5.96206 0.418076 0 4.18638 0 0)
(6.74448 0.324583 0 3.80525 0 0)
(7.47521 0.155733 0 3.24676 0 0)
(8.2745 -0.176429 0 2.65475 0 0)
(9.41716 -0.775175 0 2.11817 0 0)
(10.7961 -1.76118 0 1.80028 0 0)
(11.9966 -2.99016 0 1.79504 0 0)
(12.5867 -4.20778 0 2.09153 0 0)
(12.6087 -5.0764 0 2.50219 0 0)
(12.2584 -5.57642 0 2.83384 0 0)
(11.6426 -5.7385 0 3.01442 0 0)
(10.7312 -5.56872 0 3.00186 0 0)
(9.64105 -5.14455 0 2.80384 0 0)
(8.67731 -4.52919 0 2.4101 0 0)
(7.69612 -3.76101 0 1.89828 0 0)
(6.64433 -2.84143 0 1.27935 0 0)
(5.46923 -1.86251 0 0.684461 0 0)
(4.2435 -0.986781 0 0.264673 0 0)
(3.06032 -0.329729 0 0.055839 0 0)
(1.95489 0.0406586 0 0.0158514 0 0)
(1.12356 0.16738 0 0.0394289 0 0)
(0.602531 0.163155 0 0.0594318 0 0)
(0.29086 0.109709 0 0.0579251 0 0)
(0.124635 0.0603127 0 0.0489023 0 0)
(0.053437 0.0308466 0 0.0426331 0 0)
(0.0291655 0.0153782 0 0.0365982 0 0)
(0.0218128 0.00819759 0 0.0285636 0 0)
(0.0190941 0.0055465 0 0.0200968 0 0)
(0.0175816 0.00456002 0 0.0132277 0 0)
(0.0165182 0.00387743 0 0.00847173 0 0)
(0.0156913 0.00320166 0 0.00539279 0 0)
(0.0150305 0.00257621 0 0.00344118 0 0)
(0.0145179 0.00205462 0 0.00221004 0 0)
(0.0141415 0.00164769 0 0.00143203 0 0)
(0.0138814 0.00133939 0 0.000938112 0 0)
(0.0137128 0.00110544 0 0.000621604 0 0)
(0.0136115 0.000924757 0 0.000416293 0 0)
(0.013557 0.000781706 0 0.000281455 0 0)
(0.0135335 0.000665635 0 0.000191774 0 0)
(0.0135297 0.000570201 0 0.000131626 0 0)
(0.0135377 0.000491016 0 9.10366e-05 0 0)
(0.013553 0.000425267 0 6.34737e-05 0 0)
(0.0135712 0.000370946 0 4.47279e-05 0 0)
(0.0135932 0.000326627 0 3.19026e-05 0 0)
(0.0136118 0.000291312 0 2.32438e-05 0 0)
(0.0136397 0.000263593 0 1.71867e-05 0 0)
(0.0136496 0.000244398 0 1.34238e-05 0 0)
(0.0136987 0.00022888 0 1.0293e-05 0 0)
(0.0136717 0.000227415 0 9.51979e-06 0 0)
(0.0138027 0.000214289 0 6.80579e-06 0 0)
(0.0136354 0.000246339 0 1.00752e-05 0 0)
(0.0140637 0.000196775 0 4.27335e-06 0 0)
(0.0134095 0.000326918 0 2.16726e-05 0 0)
(0.014866 7.39296e-05 0 1.02745e-05 0 0)
(0.0127274 0.000495688 0 0.000106006 0 0)
(0.0176518 -0.000692904 0 0.000167271 0 0)
(0.0117364 0.000343951 0 0.000758643 0 0)
(0.0282204 -0.00498194 0 0.00176007 0 0)
(0.0144615 -0.00367629 0 0.00516524 0 0)
(0.0670183 -0.0250631 0 0.0118601 0 0)
(0.0354022 -0.0255243 0 0.0270804 0 0)
(0.176471 -0.0899411 0 0.049821 0 0)
(0.083705 -0.0822536 0 0.0922978 0 0)
(0.360141 -0.208204 0 0.125294 0 0)
(0.122528 -0.144322 0 0.186061 0 0)
(0.517179 -0.32252 0 0.209121 0 0)
(0.126001 -0.165306 0 0.259173 0 0)
(0.597549 -0.384752 0 0.275152 0 0)
(0.132039 -0.150024 0 0.306342 0 0)
(0.675684 -0.414166 0 0.306277 0 0)
(0.141695 -0.128609 0 0.336176 0 0)
(0.77703 -0.449874 0 0.316483 0 0)
(0.130479 -0.104463 0 0.369569 0 0)
(0.908279 -0.487238 0 0.331295 0 0)
(0.120144 -0.0660234 0 0.389047 0 0)
(1.08072 -0.522796 0 0.320641 0 0)
(0.109851 -0.0274377 0 0.377347 0 0)
(1.29383 -0.547237 0 0.285495 0 0)
(0.12695 0.0181806 0 0.357815 0 0)
(1.53644 -0.523299 0 0.235985 0 0)
(0.21571 0.0662276 0 0.319646 0 0)
(1.75211 -0.423005 0 0.170478 0 0)
(0.348313 0.0951829 0 0.277754 0 0)
(1.74482 -0.241275 0 0.118613 0 0)
(0.410382 0.0867145 0 0.231379 0 0)
(1.21132 -0.0611968 0 0.0988576 0 0)
(0.194028 0.0145536 0 0.178948 0 0)
(0.288059 -0.0417058 0 0.0967283 0 0)
(0.106077 -0.0405253 0 0.147846 0 0)
(0.193814 0.0383242 0 0.188314 0 0)
(0.152045 -0.0712995 0 0.160111 0 0)
(0.429605 -0.171372 0 0.134268 0 0)
(0.561865 -0.2942 0 0.232545 0 0)
(0.600039 -0.231097 0 0.162623 0 0)
(0.309107 -0.248802 0 0.411222 0 0)
(0.839911 0.321098 0 1.39453 0 0)
(2.0768 0.233815 0 2.31323 0 0)
(3.49916 0.260635 0 2.93642 0 0)
(4.39468 0.577458 0 3.33834 0 0)
(5.35082 0.978503 0 3.42767 0 0)
(6.47128 1.14951 0 3.28105 0 0)
(7.70082 1.11754 0 2.89395 0 0)
(9.07208 0.831018 0 2.31243 0 0)
(10.507 0.18758 0 1.81735 0 0)
(11.9512 -0.789332 0 1.50318 0 0)
(13.1565 -2.01952 0 1.39417 0 0)
(13.9733 -3.30067 0 1.53616 0 0)
(14.0056 -4.42203 0 1.89591 0 0)
(13.5551 -5.1673 0 2.29861 0 0)
(12.7931 -5.56813 0 2.61475 0 0)
(11.8302 -5.62489 0 2.78031 0 0)
(10.7795 -5.39341 0 2.76093 0 0)
(9.74131 -4.97113 0 2.58623 0 0)
(8.96684 -4.39508 0 2.22126 0 0)
(8.0908 -3.65027 0 1.747 0 0)
(6.98926 -2.69973 0 1.15623 0 0)
(5.72606 -1.65535 0 0.566602 0 0)
(4.39108 -0.740531 0 0.181552 0 0)
(3.10843 -0.0896766 0 0.0331831 0 0)
(1.96093 0.23535 0 0.0485093 0 0)
(1.10541 0.299768 0 0.100985 0 0)
(0.572774 0.240091 0 0.12286 0 0)
(0.262794 0.147314 0 0.109037 0 0)
(0.103787 0.0722857 0 0.0837701 0 0)
(0.0408259 0.0289364 0 0.0626116 0 0)
(0.022964 0.00903749 0 0.0455 0 0)
(0.0188793 0.00246915 0 0.0309973 0 0)
(0.0172404 0.00167489 0 0.019948 0 0)
(0.0160684 0.00220239 0 0.0126184 0 0)
(0.0152702 0.00250429 0 0.00808033 0 0)
(0.0147322 0.00244058 0 0.00525965 0 0)
(0.0143399 0.00218309 0 0.00345186 0 0)
(0.0140386 0.00186813 0 0.00226752 0 0)
(0.0138108 0.001566 0 0.0014873 0 0)
(0.0136476 0.0013042 0 0.000975141 0 0)
(0.0135401 0.00108827 0 0.000641308 0 0)
(0.0134777 0.000913192 0 0.000424435 0 0)
(0.0134492 0.000771332 0 0.000283156 0 0)
(0.0134445 0.000655576 0 0.000190569 0 0)
(0.0134556 0.000560421 0 0.000129433 0 0)
(0.0134758 0.000481812 0 8.87624e-05 0 0)
(0.0135016 0.000416799 0 6.14938e-05 0 0)
(0.0135289 0.000363219 0 4.31113e-05 0 0)
(0.013559 0.00031964 0 3.06396e-05 0 0)
(0.0135847 0.000284779 0 2.22306e-05 0 0)
(0.0136196 0.000257705 0 1.64241e-05 0 0)
(0.0136344 0.000238244 0 1.27217e-05 0 0)
(0.0136912 0.000223757 0 9.82697e-06 0 0)
(0.0136645 0.000220061 0 8.83151e-06 0 0)
(0.0138115 0.000210383 0 6.57275e-06 0 0)
(0.0136264 0.000234116 0 8.86895e-06 0 0)
(0.0141087 0.000197199 0 4.24944e-06 0 0)
(0.013369 0.000300432 0 1.75301e-05 0 0)
(0.0150351 8.82291e-05 0 8.24307e-06 0 0)
(0.0126079 0.000428579 0 8.21065e-05 0 0)
(0.0183429 -0.000656147 0 0.000137821 0 0)
(0.0117616 0.000136368 0 0.000595087 0 0)
(0.0312068 -0.00506492 0 0.0015405 0 0)
(0.0168866 -0.00451826 0 0.0041824 0 0)
(0.0785531 -0.0265776 0 0.0110813 0 0)
(0.048543 -0.0295765 0 0.0235072 0 0)
(0.206735 -0.0986507 0 0.0511614 0 0)
(0.114633 -0.0963644 0 0.090099 0 0)
(0.390932 -0.229488 0 0.143969 0 0)
(0.151008 -0.160319 0 0.201645 0 0)
(0.493935 -0.334265 0 0.26388 0 0)
(0.156261 -0.159202 0 0.297047 0 0)
(0.538689 -0.361878 0 0.362619 0 0)
(0.183156 -0.129257 0 0.357555 0 0)
(0.595736 -0.376744 0 0.407204 0 0)
(0.197761 -0.114696 0 0.393412 0 0)
(0.664897 -0.414949 0 0.42413 0 0)
(0.191244 -0.109469 0 0.435513 0 0)
(0.762237 -0.476338 0 0.452981 0 0)
(0.181114 -0.0970301 0 0.473379 0 0)
(0.897442 -0.540935 0 0.459332 0 0)
(0.169607 -0.0793118 0 0.477926 0 0)
(1.10763 -0.614234 0 0.445542 0 0)
(0.14583 -0.0450845 0 0.48195 0 0)
(1.40807 -0.702525 0 0.43745 0 0)
(0.152771 0.0160353 0 0.456005 0 0)
(1.8769 -0.77325 0 0.394475 0 0)
(0.231542 0.0861765 0 0.405409 0 0)
(2.56979 -0.786952 0 0.324825 0 0)
(0.50016 0.150524 0 0.34814 0 0)
(3.28822 -0.641732 0 0.241163 0 0)
(0.821079 0.151927 0 0.300785 0 0)
(3.19634 -0.383986 0 0.195345 0 0)
(0.604644 0.0330136 0 0.271771 0 0)
(1.79458 -0.373541 0 0.18455 0 0)
(0.310908 -0.210786 0 0.255707 0 0)
(1.7558 -0.469375 0 0.19361 0 0)
(0.824418 -0.336924 0 0.353062 0 0)
(0.645195 -0.279493 0 0.311307 0 0)
(0.232327 -0.204225 0 0.528431 0 0)
(0.933039 0.803235 0 1.05842 0 0)
(1.94065 1.28792 0 2.03121 0 0)
(3.80768 1.64646 0 2.57649 0 0)
(5.61471 1.7761 0 2.75377 0 0)
(7.05526 1.87334 0 2.74555 0 0)
(8.31794 1.90251 0 2.53455 0 0)
(9.68886 1.73965 0 2.11714 0 0)
(11.1082 1.18956 0 1.61043 0 0)
(12.3569 0.2622 0 1.26409 0 0)
(13.4684 -0.874911 0 1.11297 0 0)
(14.3015 -2.15402 0 1.12359 0 0)
(14.7544 -3.37868 0 1.33781 0 0)
(14.3908 -4.37734 0 1.70441 0 0)
(13.6658 -5.06298 0 2.09768 0 0)
(12.7211 -5.43442 0 2.42435 0 0)
(11.6424 -5.43545 0 2.59186 0 0)
(10.7055 -5.20626 0 2.58901 0 0)
(9.89412 -4.83439 0 2.44931 0 0)
(9.31986 -4.29643 0 2.10076 0 0)
(8.4593 -3.51385 0 1.62113 0 0)
(7.22082 -2.48632 0 1.03313 0 0)
(5.77746 -1.37892 0 0.473969 0 0)
(4.34683 -0.455492 0 0.141659 0 0)
(3.02109 0.163129 0 0.058934 0 0)
(1.87031 0.428006 0 0.129644 0 0)
(1.03616 0.424672 0 0.204528 0 0)
(0.520542 0.30745 0 0.217122 0 0)
(0.230328 0.177585 0 0.180545 0 0)
(0.0892332 0.0817384 0 0.130535 0 0)
(0.0362717 0.028195 0 0.087929 0 0)
(0.0226323 0.0058115 0 0.0558857 0 0)
(0.0194551 0.000243681 0 0.0335979 0 0)
(0.0174553 0.00057369 0 0.019818 0 0)
(0.015878 0.00156324 0 0.0119938 0 0)
(0.0148797 0.00199325 0 0.00753601 0 0)
(0.0142783 0.00199901 0 0.00485341 0 0)
(0.0138983 0.00182459 0 0.00316043 0 0)
(0.0136507 0.00160117 0 0.0020677 0 0)
(0.0134913 0.00138121 0 0.00135872 0 0)
(0.0133945 0.00118246 0 0.000897153 0 0)
(0.0133429 0.00100997 0 0.000595604 0 0)
(0.0133238 0.000862645 0 0.000397805 0 0)
(0.0133278 0.000737574 0 0.000267254 0 0)
(0.0133474 0.000631837 0 0.000180644 0 0)
(0.013377 0.000542658 0 0.000122918 0 0)
(0.0134117 0.00046772 0 8.42845e-05 0 0)
(0.0134493 0.000405136 0 5.83262e-05 0 0)
(0.0134864 0.000353218 0 4.08173e-05 0 0)
(0.0135249 0.000310907 0 2.89704e-05 0 0)
(0.0135578 0.000276768 0 2.09499e-05 0 0)
(0.0135994 0.000250567 0 1.54879e-05 0 0)
(0.0136194 0.00023082 0 1.18746e-05 0 0)
(0.0136833 0.000217791 0 9.29673e-06 0 0)
(0.0136575 0.00021116 0 8.01478e-06 0 0)
(0.013819 0.000206745 0 6.39942e-06 0 0)
(0.0136167 0.000218589 0 7.40161e-06 0 0)
(0.0141544 0.000202606 0 4.50185e-06 0 0)
(0.0133217 0.000264843 0 1.22983e-05 0 0)
(0.0152354 0.000128451 0 5.4233e-06 0 0)
(0.0124733 0.000343044 0 5.04427e-05 0 0)
(0.0192898 -0.000503135 0 8.49512e-05 0 0)
(0.0120033 -6.62682e-05 0 0.000374141 0 0)
(0.0356468 -0.0046873 0 0.00109579 0 0)
(0.0215931 -0.00520446 0 0.00289547 0 0)
(0.0953148 -0.0266701 0 0.00905719 0 0)
(0.0714435 -0.033798 0 0.0190714 0 0)
(0.248262 -0.105775 0 0.0498429 0 0)
(0.168488 -0.117044 0 0.0911387 0 0)
(0.447976 -0.259141 0 0.170357 0 0)
(0.218284 -0.199506 0 0.247809 0 0)
(0.54168 -0.373638 0 0.355651 0 0)
(0.236106 -0.187471 0 0.399701 0 0)
(0.590546 -0.393009 0 0.502998 0 0)
(0.27165 -0.154617 0 0.484029 0 0)
(0.644338 -0.423691 0 0.56519 0 0)