/*--------------------------------*- C++ -*----------------------------------*\
| =========                 |                                                 |
| \\      /  F ield         | OpenFOAM: The Open Source CFD Toolbox           |
|  \\    /   O peration     | Version:  2.4.0                                 |
|   \\  /    A nd           | Web:      www.OpenFOAM.org                      |
|    \\/     M anipulation  |                                                 |
\*---------------------------------------------------------------------------*/
FoamFile
{
    version     2.0;
    format      ascii;
    class       surfaceScalarField;
    location    "0.075";
    object      phi_0;
}
// * * * * * * * * * * * * * * * * * * * * * * * * * * * * * * * * * * * * * //

dimensions      [0 3 -1 0 0 0 0];

internalField   nonuniform List<scalar> 
8640
(
1.14661e-05
1.35339e-05
7.17471e-06
4.29136e-06
5.92303e-06
1.25168e-06
5.36712e-06
5.55908e-07
5.09305e-06
2.74072e-07
4.94152e-06
1.51527e-07
4.80608e-06
1.35445e-07
4.7727e-06
3.33745e-08
4.40649e-06
3.66213e-07
-1.83251e-06
6.239e-06
2.10474e-05
1.74866e-05
1.74553e-05
7.88342e-06
1.55245e-05
3.18248e-06
1.4251e-05
1.82946e-06
1.34872e-05
1.03783e-06
1.30262e-05
6.12506e-07
1.26782e-05
4.83451e-07
1.25503e-05
1.61319e-07
1.20812e-05
8.35271e-07
-2.16658e-06
1.24153e-05
2.5693e-05
1.67936e-05
2.41094e-05
9.467e-06
2.26279e-05
4.66393e-06
2.1233e-05
3.22444e-06
2.02264e-05
2.04439e-06
1.95609e-05
1.27797e-06
1.90839e-05
9.60447e-07
1.88201e-05
4.25145e-07
1.84149e-05
1.24051e-06
-1.88875e-06
1.81371e-05
2.74457e-05
1.43479e-05
2.77386e-05
9.17409e-06
2.73955e-05
5.00702e-06
2.65281e-05
4.09188e-06
2.56607e-05
2.91179e-06
2.49789e-05
1.95974e-06
2.4513e-05
1.42641e-06
2.41296e-05
8.08456e-07
2.37861e-05
1.58403e-06
-1.39983e-06
2.32972e-05
2.76249e-05
1.1723e-05
2.88885e-05
7.9104e-06
2.96402e-05
4.25541e-06
2.96976e-05
4.03447e-06
2.94034e-05
3.20597e-06
2.89864e-05
2.37671e-06
2.8742e-05
1.67085e-06
2.83778e-05
1.17265e-06
2.80852e-05
1.87662e-06
-7.00352e-07
2.73857e-05
2.74598e-05
9.26322e-06
2.88773e-05
6.49293e-06
3.00198e-05
3.11284e-06
3.07374e-05
3.31694e-06
3.11219e-05
2.82148e-06
3.11811e-05
2.31748e-06
3.139e-05
1.46199e-06
3.12477e-05
1.31494e-06
3.11682e-05
1.95613e-06
1.33545e-07
3.03343e-05
2.73673e-05
6.89591e-06
2.87493e-05
5.11097e-06
2.98483e-05
2.01376e-06
3.07682e-05
2.39704e-06
3.13673e-05
2.22244e-06
3.17217e-05
1.96304e-06
3.2373e-05
8.10744e-07
3.25168e-05
1.17109e-06
3.27768e-05
1.69615e-06
8.90378e-07
3.202e-05
2.72492e-05
4.64668e-06
2.88442e-05
3.51603e-06
2.98293e-05
1.0286e-06
3.06921e-05
1.5343e-06
3.11599e-05
1.75457e-06
3.17081e-05
1.41489e-06
3.24774e-05
4.13841e-08
3.27605e-05
8.8805e-07
3.3341e-05
1.11563e-06
5.68722e-08
3.41745e-05
2.72016e-05
2.44506e-06
2.90481e-05
1.66953e-06
2.97625e-05
3.14218e-07
3.04165e-05
8.80312e-07
3.11467e-05
1.02438e-06
3.18719e-05
6.8966e-07
3.23142e-05
-4.00943e-07
3.26197e-05
5.8255e-07
3.32836e-05
4.51811e-07
-6.91107e-07
3.40315e-05
2.72844e-05
1.60681e-07
2.90465e-05
-9.2562e-08
2.95455e-05
-1.84832e-07
3.03431e-05
8.27221e-08
3.12838e-05
8.37351e-08
3.18556e-05
1.17789e-07
3.2139e-05
-6.84292e-07
3.26076e-05
1.13966e-07
3.32872e-05
-2.27837e-07
-1.32084e-06
3.39169e-05
2.7272e-05
-2.11134e-06
2.89085e-05
-1.72903e-06
2.95838e-05
-8.60168e-07
3.04245e-05
-7.57995e-07
3.12391e-05
-7.30848e-07
3.18697e-05
-5.12795e-07
3.21823e-05
-9.96909e-07
3.2655e-05
-3.58757e-07
3.3246e-05
-8.18754e-07
-1.97316e-06
3.38983e-05
2.7229e-05
-4.34031e-06
2.89665e-05
-3.46658e-06
2.97257e-05
-1.61936e-06
3.04304e-05
-1.46269e-06
3.12578e-05
-1.55825e-06
3.19375e-05
-1.19246e-06
3.21845e-05
-1.2439e-06
3.26561e-05
-8.30414e-07
3.32882e-05
-1.45077e-06
-2.60497e-06
3.392e-05
2.73177e-05
-6.65797e-06
2.90358e-05
-5.18474e-06
2.97733e-05
-2.35689e-06
3.0506e-05
-2.19531e-06
3.13482e-05
-2.40051e-06
3.19204e-05
-1.76466e-06
3.22089e-05
-1.53238e-06
3.27419e-05
-1.36339e-06
3.33169e-05
-2.02574e-06
-3.08409e-06
3.3796e-05
2.74249e-05
-9.08289e-06
2.88956e-05
-6.65546e-06
2.98438e-05
-3.30504e-06
3.06803e-05
-3.03182e-06
3.141e-05
-3.1302e-06
3.18695e-05
-2.22415e-06
3.21779e-05
-1.84084e-06
3.25401e-05
-1.72556e-06
3.28336e-05
-2.31923e-06
-3.28078e-06
3.30303e-05
2.75321e-05
-1.1615e-05
2.8925e-05
-8.04836e-06
2.99677e-05
-4.34781e-06
3.07384e-05
-3.80251e-06
3.10972e-05
-3.48898e-06
3.12252e-05
-2.35209e-06
3.12471e-05
-1.86277e-06
3.12043e-05
-1.68279e-06
3.10632e-05
-2.17812e-06
-3.04442e-06
3.08268e-05
2.7678e-05
-1.42929e-05
2.88914e-05
-9.26177e-06
2.95951e-05
-5.05154e-06
2.97256e-05
-3.93299e-06
2.93638e-05
-3.12714e-06
2.89798e-05
-1.96815e-06
2.86238e-05
-1.50678e-06
2.82597e-05
-1.31868e-06
2.78335e-05
-1.75191e-06
-2.26943e-06
2.70585e-05
2.74741e-05
-1.67671e-05
2.7726e-05
-9.51368e-06
2.73654e-05
-4.69092e-06
2.65572e-05
-3.12478e-06
2.56165e-05
-2.18642e-06
2.49466e-05
-1.29829e-06
2.44223e-05
-9.82449e-07
2.39557e-05
-8.5204e-07
2.34259e-05
-1.22218e-06
-1.41866e-06
2.25751e-05
2.57088e-05
-1.74758e-05
2.40969e-05
-7.90185e-06
2.26074e-05
-3.20135e-06
2.12571e-05
-1.77451e-06
2.0184e-05
-1.11337e-06
1.95195e-05
-6.33727e-07
1.90198e-05
-4.82826e-07
1.85966e-05
-4.28782e-07
1.80561e-05
-6.81642e-07
-7.22799e-07
1.73602e-05
2.10557e-05
-1.35315e-05
1.74482e-05
-4.29431e-06
1.55085e-05
-1.2617e-06
1.42695e-05
-5.35522e-07
1.34538e-05
-2.97654e-07
1.29858e-05
-1.65739e-07
1.26334e-05
-1.30388e-07
1.23293e-05
-1.24724e-07
1.18698e-05
-2.22095e-07
-2.39881e-07
1.13869e-05
1.14685e-05
7.17416e-06
5.91246e-06
5.37694e-06
5.07929e-06
4.91355e-06
4.78316e-06
4.65844e-06
4.43634e-06
4.19646e-06
6.15676e-06
-1.36851e-06
1.45076e-06
6.37311e-06
1.55828e-07
-3.72178e-07
8.00919e-06
1.53282e-06
-3.1689e-06
1.09391e-05
4.15854e-06
-7.08845e-06
1.3715e-05
5.76426e-06
-8.54011e-06
1.52847e-05
6.97315e-06
-8.54288e-06
1.72367e-05
6.27067e-06
-8.2227e-06
1.98001e-05
3.85729e-06
-6.4207e-06
2.18515e-05
1.12171e-06
-3.17312e-06
2.25406e-05
-3.86764e-06
3.17859e-06
2.23672e-05
-9.30646e-06
9.47981e-06
2.25432e-05
-1.24914e-05
1.23154e-05
2.40724e-05
-1.34704e-05
1.19413e-05
2.64509e-05
-1.57506e-05
1.3372e-05
2.83022e-05
-1.90513e-05
1.72e-05
2.91906e-05
-2.15261e-05
2.06378e-05
2.93497e-05
-2.3811e-05
2.36518e-05
2.8682e-05
-2.24644e-05
2.31321e-05
2.76821e-05
-1.86852e-05
1.96851e-05
2.70684e-05
-1.3676e-05
1.42898e-05
2.65661e-05
-3.76454e-06
4.26683e-06
2.75486e-05
3.6735e-06
-4.656e-06
2.92369e-05
6.76774e-06
-8.45603e-06
3.04895e-05
1.17606e-05
-1.30132e-05
3.12983e-05
9.37871e-06
-1.01875e-05
3.1289e-05
3.41114e-06
-3.40181e-06
3.06282e-05
5.6132e-08
6.04644e-07
2.9698e-05
-7.72155e-06
8.65177e-06
2.82472e-05
-1.21375e-05
1.35884e-05
2.68271e-05
-1.15966e-05
1.30167e-05
2.55318e-05
-1.66332e-05
1.79285e-05
2.36979e-05
-1.99286e-05
2.17625e-05
2.19575e-05
-1.77901e-05
1.95305e-05
2.06222e-05
-2.08416e-05
2.21769e-05
1.86679e-05
-2.51775e-05
2.71318e-05
1.61336e-05
-2.0541e-05
2.30753e-05
1.3759e-05
-1.4435e-05
1.68096e-05
1.29207e-05
-2.02847e-05
2.1123e-05
1.27868e-05
-3.83114e-05
3.84453e-05
1.34586e-05
-4.73293e-05
4.66575e-05
1.48195e-05
-4.61927e-05
4.48318e-05
1.55879e-05
-3.8096e-05
3.73276e-05
1.63346e-05
-3.39046e-05
3.31579e-05
1.72772e-05
-2.15932e-05
2.06505e-05
1.83495e-05
-1.18941e-05
1.08219e-05
1.88355e-05
6.37143e-08
-5.49746e-07
1.94984e-05
1.42696e-05
-1.49325e-05
1.99332e-05
2.54623e-05
-2.58971e-05
2.03958e-05
2.93913e-05
-2.98539e-05
2.08931e-05
3.52917e-05
-3.57889e-05
2.17932e-05
4.26767e-05
-4.35768e-05
2.17496e-05
5.02396e-05
-5.0196e-05
2.10522e-05
4.86231e-05
-4.79257e-05
1.92125e-05
4.55003e-05
-4.36607e-05
1.7749e-05
3.3388e-05
-3.19245e-05
1.61703e-05
3.16014e-05
-3.00228e-05
1.60018e-05
2.0162e-05
-1.99935e-05
1.57282e-05
2.29609e-05
-2.26874e-05
1.62271e-05
9.38726e-06
-9.88615e-06
1.58568e-05
1.14802e-05
-1.11099e-05
1.60487e-05
-7.76162e-06
7.56975e-06
1.61409e-05
-6.70359e-06
6.61141e-06
1.60812e-05
-2.03874e-05
2.0447e-05
1.55275e-05
-1.3765e-05
1.43188e-05
1.58365e-05
-2.19311e-05
2.16221e-05
1.51122e-05
-9.90505e-06
1.06294e-05
1.5462e-05
-1.70371e-05
1.66873e-05
1.45162e-05
-4.62905e-06
5.57487e-06
1.49381e-05
-1.11678e-05
1.0746e-05
1.41225e-05
-1.07294e-06
1.88851e-06
1.49848e-05
-8.1025e-06
7.24016e-06
1.41364e-05
2.02429e-06
-1.17586e-06
1.51466e-05
-6.14107e-06
5.13091e-06
1.43663e-05
2.69851e-06
-1.91825e-06
1.52923e-05
-4.24063e-06
3.31464e-06
1.42848e-05
4.00438e-06
-2.99684e-06
1.5461e-05
-3.71678e-06
2.54057e-06
1.44942e-05
4.18728e-06
-3.22049e-06
1.54596e-05
-2.09641e-06
1.13102e-06
1.43201e-05
4.89165e-06
-3.75216e-06
1.55319e-05
-1.34749e-06
1.35639e-07
1.4487e-05
4.81997e-06
-3.77507e-06
1.54005e-05
2.50795e-07
-1.16424e-06
1.42938e-05
5.75646e-06
-4.6498e-06
1.53753e-05
1.16138e-06
-2.24281e-06
1.44144e-05
5.88255e-06
-4.92166e-06
1.53973e-05
2.78851e-06
-3.77143e-06
1.44802e-05
7.15536e-06
-6.23825e-06
1.53987e-05
4.22977e-06
-5.14825e-06
1.46527e-05
8.10864e-06
-7.36269e-06
1.56116e-05
5.88077e-06
-6.83968e-06
1.46531e-05
1.04228e-05
-9.46421e-06
1.52444e-05
8.36313e-06
-8.95447e-06
1.43132e-05
1.33495e-05
-1.24182e-05
1.55919e-05
1.10622e-05
-1.23409e-05
1.48e-05
1.88934e-05
-1.81015e-05
1.69458e-05
1.56764e-05
-1.78222e-05
1.50013e-05
2.89645e-05
-2.70199e-05
1.4852e-05
2.77954e-05
-2.76461e-05
5.35451e-05
-5.12871e-05
1.2594e-05
1.20775e-05
-1.03069e-06
1.2157e-05
7.63133e-08
1.23014e-05
1.38844e-06
1.36472e-05
2.81271e-06
1.57585e-05
3.65296e-06
1.72484e-05
5.4832e-06
1.89873e-05
4.53184e-06
2.11348e-05
1.70971e-06
2.28876e-05
-6.31092e-07
2.43037e-05
-5.28374e-06
2.54362e-05
-1.04389e-05
2.64311e-05
-1.34863e-05
2.80315e-05
-1.50709e-05
3.00569e-05
-1.7776e-05
3.14458e-05
-2.04402e-05
3.18131e-05
-2.18934e-05
3.1412e-05
-2.34099e-05
3.0526e-05
-2.15784e-05
2.93847e-05
-1.75439e-05
2.86458e-05
-1.2937e-05
2.81693e-05
-3.28808e-06
2.88024e-05
3.04035e-06
3.01071e-05
5.46305e-06
3.12232e-05
1.06445e-05
3.20021e-05
8.59982e-06
3.17888e-05
3.62445e-06
3.10674e-05
7.77564e-07
3.01368e-05
-6.79095e-06
2.84495e-05
-1.04503e-05
2.69693e-05
-1.01164e-05
2.57143e-05
-1.53782e-05
2.38164e-05
-1.80307e-05
2.20004e-05
-1.59741e-05
2.06414e-05
-1.94826e-05
1.85558e-05
-2.30919e-05
1.57103e-05
-1.76956e-05
1.3249e-05
-1.19736e-05
1.214e-05
-1.91757e-05
1.15565e-05
-3.7728e-05
1.19237e-05
-4.76965e-05
1.31623e-05
-4.74314e-05
1.42736e-05
-3.92072e-05
1.45856e-05
-3.42166e-05
1.51213e-05
-2.21289e-05
1.62229e-05
-1.29957e-05
1.65112e-05
-2.24554e-07
1.74368e-05
1.3344e-05
1.80168e-05
2.48823e-05
1.85756e-05
2.88325e-05
1.932e-05
3.45472e-05
2.05906e-05
4.14061e-05
2.09804e-05
4.98499e-05
2.07681e-05
4.88354e-05
1.94369e-05
4.68315e-05
1.861e-05
3.42149e-05
1.72728e-05
3.29386e-05
1.72252e-05
2.02097e-05
1.67896e-05
2.33965e-05
1.71872e-05
8.98963e-06
1.69974e-05
1.167e-05
1.71156e-05
-7.8798e-06
1.72052e-05
-6.79319e-06
1.71859e-05
-2.0368e-05
1.64819e-05
-1.30611e-05
1.63069e-05
-2.17561e-05
1.53042e-05
-8.90234e-06
1.56102e-05
-1.73431e-05
1.48551e-05
-3.87394e-06
1.5158e-05
-1.14707e-05
1.41594e-05
-7.42935e-08
1.48937e-05
-8.83687e-06
1.38707e-05
3.04736e-06
1.4758e-05
-7.02837e-06
1.39235e-05
3.53297e-06
1.49556e-05
-5.27275e-06
1.39255e-05
5.03446e-06
1.52444e-05
-5.03561e-06
1.42977e-05
5.13392e-06
1.55259e-05
-3.32454e-06
1.43426e-05
6.07496e-06
1.59022e-05
-2.90709e-06
1.4716e-05
6.00617e-06
1.60411e-05
-1.07435e-06
1.46348e-05
7.16282e-06
1.61121e-05
-3.15925e-07
1.47768e-05
7.21777e-06
1.59494e-05
1.61591e-06
1.45082e-05
8.59661e-06
1.56673e-05
3.07062e-06
1.46506e-05
9.12538e-06
1.57644e-05
4.76701e-06
1.48216e-05
1.13655e-05
1.62153e-05
6.96944e-06
1.50388e-05
1.45259e-05
1.63425e-05
9.75845e-06
1.44452e-05
2.07907e-05
1.54296e-05
1.4692e-05
1.50906e-05
2.93035e-05
2.03521e-05
2.25338e-05
5.39082e-05
1.9989e-05
1.77163e-05
-6.09897e-07
1.78629e-05
-7.03696e-08
1.79847e-05
1.26672e-06
1.87021e-05
2.09523e-06
1.98053e-05
2.54981e-06
2.08931e-05
4.39537e-06
2.24176e-05
3.0074e-06
2.41382e-05
-1.09647e-08
2.59213e-05
-2.4142e-06
2.7532e-05
-6.89435e-06
2.89548e-05
-1.18617e-05
3.04967e-05
-1.50282e-05
3.18262e-05
-1.64004e-05
3.31074e-05
-1.90571e-05
3.39584e-05
-2.12912e-05
3.38704e-05
-2.18054e-05
3.29934e-05
-2.2533e-05
3.18882e-05
-2.04732e-05
3.0933e-05
-1.65887e-05
2.99395e-05
-1.19436e-05
2.9054e-05
-2.40265e-06
2.93107e-05
2.78365e-06
3.02083e-05
4.56552e-06
3.1225e-05
9.62777e-06
3.19581e-05
7.86666e-06
3.162e-05
3.9626e-06
3.10224e-05
1.37517e-06
2.98796e-05
-5.64819e-06
2.7952e-05
-8.52262e-06
2.67497e-05
-8.9141e-06
2.56173e-05
-1.42458e-05
2.35816e-05
-1.5995e-05
2.18318e-05
-1.42244e-05
2.05804e-05
-1.82312e-05
1.85003e-05
-2.10118e-05
1.55054e-05
-1.47006e-05
1.28666e-05
-9.33483e-06
1.14024e-05
-1.77116e-05
1.03224e-05
-3.6648e-05
1.02966e-05
-4.76707e-05
1.10164e-05
-4.81511e-05
1.21277e-05
-4.03185e-05
1.22172e-05
-3.43061e-05
1.27191e-05
-2.26309e-05
1.3878e-05
-1.41546e-05
1.39934e-05
-3.39947e-07
1.49557e-05
1.23817e-05
1.58431e-05
2.39949e-05
1.69679e-05
2.77077e-05
1.78536e-05
3.36615e-05
1.90436e-05
4.02161e-05
1.97963e-05
4.90972e-05
2.01934e-05
4.84383e-05
1.90636e-05
4.79614e-05
1.85312e-05
3.47472e-05
1.77129e-05
3.37569e-05
1.78694e-05
2.00532e-05
1.74831e-05
2.37828e-05
1.78747e-05
8.59803e-06
1.79906e-05
1.15541e-05
1.81335e-05
-8.02269e-06
1.81554e-05
-6.81512e-06
1.80718e-05
-2.02844e-05
1.73587e-05
-1.2348e-05
1.70718e-05
-2.14692e-05
1.57379e-05
-7.56846e-06
1.56739e-05
-1.72791e-05
1.4898e-05
-3.09804e-06
1.52597e-05
-1.18325e-05
1.44413e-05
7.44143e-07
1.52335e-05
-9.62906e-06
1.42604e-05
4.02043e-06
1.50819e-05
-7.84989e-06
1.41921e-05
4.42279e-06
1.51954e-05
-6.27608e-06
1.41157e-05
6.11418e-06
1.54189e-05
-6.33878e-06
1.44319e-05
6.12095e-06
1.56932e-05
-4.58584e-06
1.45247e-05
7.24343e-06
1.62931e-05
-4.67553e-06
1.51185e-05
7.18076e-06
1.66865e-05
-2.64227e-06
1.5372e-05
8.47729e-06
1.7304e-05
-2.24797e-06
1.588e-05
8.64183e-06
1.75323e-05
-3.64183e-08
1.58017e-05
1.03272e-05
1.73429e-05
1.52933e-06
1.55652e-05
1.09032e-05
1.68858e-05
3.44634e-06
1.50677e-05
1.31836e-05
1.66655e-05
5.37165e-06
1.56708e-05
1.55206e-05
1.79208e-05
7.50853e-06
1.77328e-05
2.09787e-05
1.96678e-05
1.2757e-05
1.72237e-05
3.17475e-05
2.21118e-05
1.76458e-05
5.30681e-05
2.29519e-05
2.30621e-05
-3.74752e-07
2.3163e-05
-1.71345e-07
2.32318e-05
1.19795e-06
2.39695e-05
1.35757e-06
2.4767e-05
1.75227e-06
2.56206e-05
3.54175e-06
2.70013e-05
1.62677e-06
2.8178e-05
-1.18771e-06
2.98468e-05
-4.08295e-06
3.14878e-05
-8.53541e-06
3.23994e-05
-1.27733e-05
3.36595e-05
-1.62883e-05
3.45514e-05
-1.72923e-05
3.48632e-05
-1.93689e-05
3.50385e-05
-2.14664e-05
3.4561e-05
-2.13279e-05
3.34316e-05
-2.14036e-05
3.22845e-05
-1.93261e-05
3.14364e-05
-1.57405e-05
3.05097e-05
-1.10169e-05
2.99301e-05
-1.82299e-06
3.00567e-05
2.65703e-06
3.01741e-05
4.44818e-06
3.06582e-05
9.14359e-06
3.11019e-05
7.42304e-06
3.07095e-05
4.35498e-06
3.02904e-05
1.79422e-06
2.88774e-05
-4.23519e-06
2.69346e-05
-6.57978e-06
2.61835e-05
-8.16299e-06
2.51052e-05
-1.31675e-05
2.30191e-05
-1.39089e-05
2.16975e-05
-1.29028e-05
2.08133e-05
-1.7347e-05
1.86401e-05
-1.88386e-05
1.5371e-05
-1.14315e-05
1.24037e-05
-6.36751e-06
1.05472e-05
-1.5855e-05
9.01695e-06
-3.51178e-05
8.61142e-06
-4.72652e-05
8.68508e-06
-4.82247e-05
9.35637e-06
-4.09898e-05
9.38812e-06
-3.43378e-05
9.99246e-06
-2.32352e-05
1.11512e-05
-1.53133e-05
1.13401e-05
-5.28795e-07
1.27709e-05
1.09508e-05
1.35614e-05
2.32045e-05
1.47258e-05
2.65433e-05
1.61544e-05
3.22329e-05
1.77812e-05
3.85893e-05
1.86915e-05
4.81869e-05
1.95647e-05
4.75651e-05
1.89732e-05
4.85528e-05
1.8679e-05
3.50415e-05
1.80065e-05
3.44294e-05
1.80046e-05
2.00551e-05
1.7712e-05
2.40754e-05
1.8365e-05
7.94499e-06
1.88381e-05
1.1081e-05
1.91117e-05
-8.29635e-06
1.90603e-05
-6.7637e-06
1.8686e-05
-1.991e-05
1.7764e-05
-1.14261e-05
1.74507e-05
-2.11559e-05
1.6257e-05
-6.37477e-06
1.59399e-05
-1.69621e-05
1.49312e-05
-2.08927e-06
1.49614e-05
-1.18627e-05
1.40161e-05
1.68945e-06
1.48317e-05
-1.04446e-05
1.39112e-05
4.94092e-06
1.46082e-05
-8.54693e-06
1.38781e-05
5.15289e-06
1.49494e-05
-7.34734e-06
1.38705e-05
7.19303e-06
1.50709e-05
-7.5392e-06
1.42182e-05
6.9737e-06
1.5499e-05
-5.86669e-06
1.43191e-05
8.42338e-06
1.60494e-05
-6.40579e-06
1.50155e-05
8.21461e-06
1.6703e-05
-4.32981e-06
1.54144e-05
9.76593e-06
1.77248e-05
-4.55836e-06
1.64525e-05
9.91409e-06
1.86663e-05
-2.25022e-06
1.69901e-05
1.20035e-05
1.95794e-05
-1.05996e-06
1.75051e-05
1.29774e-05
1.93732e-05
1.57826e-06
1.69144e-05
1.56424e-05
1.80188e-05
4.26726e-06
1.55637e-05
1.79757e-05
1.63127e-05
6.75956e-06
1.60904e-05
2.1201e-05
1.977e-05
9.07739e-06
2.01269e-05
3.13907e-05
2.60226e-05
1.175e-05
5.12087e-05
2.78821e-05
2.74381e-05
-4.27148e-07
2.77146e-05
-4.47827e-07
2.78184e-05
1.09408e-06
2.85813e-05
5.94685e-07
2.92499e-05
1.0837e-06
2.99063e-05
2.88536e-06
3.12316e-05
3.01431e-07
3.21115e-05
-2.06763e-06
3.32651e-05
-5.23649e-06
3.45576e-05
-9.82795e-06
3.49952e-05
-1.32109e-05
3.56314e-05
-1.69245e-05
3.59342e-05
-1.75951e-05
3.5552e-05
-1.89867e-05
3.53228e-05
-2.12373e-05
3.46833e-05
-2.06884e-05
3.35423e-05
-2.02627e-05
3.27065e-05
-1.84903e-05
3.20372e-05
-1.50712e-05
3.08766e-05
-9.85627e-06
3.0366e-05
-1.31243e-06
3.04346e-05
2.58839e-06
3.00656e-05
4.8172e-06
3.0316e-05
8.89316e-06
3.0376e-05
7.36307e-06
2.96015e-05
5.12943e-06
2.89211e-05
2.47467e-06
2.73437e-05
-2.65784e-06
2.58199e-05
-5.05593e-06
2.55447e-05
-7.88778e-06
2.4442e-05
-1.20648e-05
2.24394e-05
-1.19063e-05
2.16015e-05
-1.20649e-05
2.09725e-05
-1.6718e-05
1.85874e-05
-1.64534e-05
1.50059e-05
-7.84999e-06
1.18604e-05
-3.22203e-06
9.7747e-06
-1.37693e-05
7.94049e-06
-3.32835e-05
7.08844e-06
-4.64131e-05
6.59145e-06
-4.77278e-05
6.60976e-06
-4.10081e-05
6.49802e-06
-3.42261e-05
7.29426e-06
-2.40314e-05
8.40911e-06
-1.64282e-05
8.52843e-06
-6.48119e-07
1.01113e-05
9.36799e-06
1.12462e-05
2.20695e-05
1.33494e-05
2.44402e-05
1.42691e-05
3.13132e-05
1.60355e-05
3.68229e-05
1.7245e-05
4.69774e-05
1.85801e-05
4.623e-05
1.84892e-05
4.86437e-05
1.85674e-05
3.49632e-05
1.80591e-05
3.49378e-05
1.82061e-05
1.99081e-05
1.82414e-05
2.40401e-05
1.91324e-05
7.05397e-06
1.98351e-05
1.03784e-05
2.01031e-05
-8.56433e-06
1.99697e-05
-6.63036e-06
1.93905e-05
-1.93308e-05
1.81272e-05
-1.01628e-05
1.74848e-05
-2.05135e-05
1.64928e-05
-5.38277e-06
1.62392e-05
-1.67085e-05
1.53958e-05
-1.24587e-06
1.54416e-05
-1.19086e-05
1.43632e-05
2.76792e-06
1.49835e-05
-1.10649e-05
1.40383e-05
5.88612e-06
1.45734e-05
-9.08208e-06
1.37833e-05
5.94295e-06
1.47829e-05
-8.34687e-06
1.36804e-05
8.29546e-06
1.47195e-05
-8.57826e-06
1.38954e-05
7.79777e-06
1.51355e-05
-7.10676e-06
1.39662e-05
9.5927e-06
1.54717e-05
-7.91132e-06
1.45793e-05
9.10702e-06
1.62342e-05
-5.9847e-06
1.51058e-05
1.08943e-05
1.71868e-05
-6.63933e-06
1.64509e-05
1.065e-05
1.88381e-05
-4.63744e-06
1.79232e-05
1.29185e-05
2.0894e-05
-4.03084e-06
2.02179e-05
1.36536e-05
2.33537e-05
-1.55756e-06
2.22111e-05
1.67849e-05
2.47121e-05
1.76632e-06
2.24787e-05
2.02091e-05
2.39499e-05
5.28841e-06
1.97618e-05
2.53891e-05
2.14481e-05
7.39116e-06
1.83364e-05
3.45023e-05
2.20901e-05
7.99635e-06
4.4488e-05
2.88108e-05
3.05078e-05
-6.00683e-07
3.08813e-05
-8.21313e-07
3.10746e-05
9.00742e-07
3.17942e-05
-1.24911e-07
3.26411e-05
2.36864e-07
3.33923e-05
2.13415e-06
3.43558e-05
-6.62106e-07
3.50309e-05
-2.7427e-06
3.58495e-05
-6.05508e-06
3.6543e-05
-1.05214e-05
3.64609e-05
-1.31288e-05
3.63876e-05
-1.68512e-05
3.60502e-05
-1.72578e-05
3.52758e-05
-1.82123e-05
3.49055e-05
-2.0867e-05
3.4445e-05
-2.02278e-05
3.37446e-05
-1.95623e-05
3.32438e-05
-1.79896e-05
3.26502e-05
-1.44776e-05
3.16208e-05
-8.82685e-06
3.13382e-05
-1.02979e-06
3.11112e-05
2.81532e-06
3.0304e-05
5.62446e-06
3.00587e-05
9.13846e-06
2.93958e-05
8.0259e-06
2.84057e-05
6.11959e-06
2.77484e-05
3.13196e-06
2.6389e-05
-1.29842e-06
2.53689e-05
-4.03582e-06
2.50441e-05
-7.56305e-06
2.36963e-05
-1.0717e-05
2.21233e-05
-1.03333e-05
2.18324e-05
-1.1774e-05
2.12049e-05
-1.60905e-05
1.85493e-05
-1.37978e-05
1.47089e-05
-4.00953e-06
1.14411e-05
4.57317e-08
9.10945e-06
-1.14377e-05
6.9226e-06
-3.10967e-05
5.70051e-06
-4.5191e-05
4.76897e-06
-4.67962e-05
4.25332e-06
-4.04925e-05
4.1538e-06
-3.41266e-05
4.68926e-06
-2.45669e-05
5.36407e-06
-1.7103e-05
5.80341e-06
-1.08746e-06
7.76228e-06
7.40912e-06
8.53225e-06
2.12995e-05
1.12882e-05
2.16842e-05
1.2529e-05
3.00724e-05
1.49903e-05
3.43615e-05
1.61973e-05
4.57704e-05
1.7714e-05
4.47133e-05
1.78876e-05
4.84701e-05
1.8295e-05
3.45558e-05
1.81804e-05
3.50524e-05
1.88857e-05
1.92027e-05
1.92373e-05
2.36885e-05
1.99389e-05
6.35241e-06
2.06995e-05
9.61775e-06
2.08389e-05
-8.70371e-06
2.0621e-05
-6.41242e-06
1.98846e-05
-1.85945e-05
1.86259e-05
-8.90403e-06
1.76948e-05
-1.95824e-05
1.64079e-05
-4.09586e-06
1.58914e-05
-1.6192e-05
1.50231e-05
-3.77596e-07
1.51358e-05
-1.20212e-05
1.42299e-05
3.67378e-06
1.4781e-05
-1.1616e-05
1.40674e-05
6.59972e-06
1.4514e-05
-9.52871e-06
1.37532e-05
6.70383e-06
1.4758e-05
-9.35176e-06
1.37652e-05
9.28833e-06
1.45962e-05
-9.40929e-06
1.38373e-05
8.55666e-06
1.50452e-05
-8.31459e-06
1.38931e-05
1.07448e-05
1.51263e-05
-9.14449e-06
1.42424e-05
9.99091e-06
1.57353e-05
-7.47768e-06
1.4552e-05
1.20776e-05
1.60172e-05
-8.10447e-06
1.52195e-05
1.14476e-05
1.72094e-05
-6.62731e-06
1.63491e-05
1.37788e-05
1.82609e-05
-5.94261e-06
1.78402e-05
1.40743e-05
2.10311e-05
-4.74852e-06
2.07805e-05
1.70355e-05
2.46536e-05
-2.10674e-06
2.36558e-05
2.12069e-05
2.87363e-05
2.07845e-07
2.58105e-05
2.83149e-05
2.92617e-05
3.93991e-06
2.62544e-05
3.75096e-05
2.42713e-05
9.97942e-06
4.00627e-05
2.86966e-05
3.21023e-05
-6.83047e-07
3.24528e-05
-1.17174e-06
3.29429e-05
4.1056e-07
3.33835e-05
-5.65429e-07
3.42189e-05
-5.98624e-07
3.53359e-05
1.01715e-06
3.59856e-05
-1.3118e-06
3.65665e-05
-3.32356e-06
3.7176e-05
-6.6646e-06
3.73323e-05
-1.06777e-05
3.68473e-05
-1.26438e-05
3.60835e-05
-1.60874e-05
3.55261e-05
-1.67003e-05
3.51067e-05
-1.77929e-05
3.48872e-05
-2.06476e-05
3.45267e-05
-1.98673e-05
3.41743e-05
-1.92098e-05
3.39631e-05
-1.77785e-05
3.31674e-05
-1.36819e-05
3.19873e-05
-7.64672e-06
3.17821e-05
-8.24592e-07
3.14465e-05
3.15089e-06
3.03047e-05
6.76625e-06
2.95763e-05
9.86688e-06
2.87095e-05
8.8927e-06
2.78693e-05
6.9598e-06
2.70816e-05
3.91963e-06
2.58892e-05
-1.05976e-07
2.52846e-05
-3.43128e-06
2.47819e-05
-7.06032e-06
2.32879e-05
-9.22303e-06
2.21612e-05
-9.2066e-06
2.21199e-05
-1.17326e-05
2.12755e-05
-1.52462e-05
1.84326e-05
-1.09549e-05
1.44708e-05
-4.76947e-08
1.10999e-05
3.41663e-06
8.49576e-06
-8.83356e-06
6.02085e-06
-2.86218e-05
4.35869e-06
-4.35289e-05
3.236e-06
-4.56735e-05
2.47225e-06
-3.97287e-05
1.92558e-06
-3.35799e-05
2.2097e-06
-2.4851e-05
2.39232e-06
-1.72856e-05
3.08172e-06
-1.77687e-06
5.22837e-06
5.26247e-06
6.75582e-06
1.97721e-05
9.9947e-06
1.84453e-05
1.01213e-05
2.99459e-05
1.32829e-05
3.11998e-05
1.46795e-05
4.43739e-05
1.68425e-05
4.25503e-05
1.75619e-05
4.77508e-05
1.81804e-05
3.39373e-05
1.82357e-05
3.4997e-05
1.92197e-05
1.82187e-05
1.98876e-05
2.30207e-05
2.05246e-05
5.7154e-06
2.14051e-05
8.73732e-06
2.14816e-05
-8.78024e-06
2.10975e-05
-6.02835e-06
2.02189e-05
-1.77158e-05
1.91336e-05
-7.81875e-06
1.81931e-05
-1.86419e-05
1.70325e-05
-2.93525e-06
1.62894e-05
-1.54489e-05
1.52663e-05
6.45549e-07
1.516e-05
-1.1915e-05
1.42818e-05
4.55197e-06
1.45843e-05
-1.19184e-05
1.39322e-05
7.25179e-06
1.43018e-05
-9.89827e-06
1.35513e-05
7.45431e-06
1.43982e-05
-1.01986e-05
1.35799e-05
1.01066e-05
1.42495e-05
-1.00789e-05
1.35038e-05
9.30233e-06
1.46632e-05
-9.47394e-06
1.36359e-05
1.17721e-05
1.46594e-05
-1.0168e-05
1.37611e-05
1.08892e-05
1.52711e-05
-8.98768e-06
1.40813e-05
1.32674e-05
1.53302e-05
-9.35334e-06
1.42615e-05
1.25162e-05
1.61897e-05
-8.55547e-06
1.47297e-05
1.52388e-05
1.60074e-05
-7.2203e-06
1.45527e-05
1.55289e-05
1.72155e-05
-7.41124e-06
1.57649e-05
1.8486e-05
1.83508e-05
-4.69264e-06
1.70503e-05
2.25075e-05
2.17301e-05
-4.47203e-06
2.18748e-05
2.81702e-05
2.64074e-05
-5.92626e-07
2.86326e-05
3.52844e-05
2.7689e-05
1.0923e-05
3.75132e-05
3.02385e-05
3.3544e-05
-5.25475e-08
3.30168e-05
-6.44576e-07
3.35543e-05
-1.26878e-07
3.39971e-05
-1.00823e-06
3.4695e-05
-1.2965e-06
3.56022e-05
1.09918e-07
3.59036e-05
-1.61322e-06
3.6558e-05
-3.97794e-06
3.69418e-05
-7.0484e-06
3.66747e-05
-1.04106e-05
3.61844e-05
-1.21535e-05
3.53774e-05
-1.52804e-05
3.5157e-05
-1.648e-05
3.52006e-05
-1.78365e-05
3.49917e-05
-2.04386e-05
3.48202e-05
-1.96958e-05
3.46372e-05
-1.90268e-05
3.41179e-05
-1.72592e-05
3.3103e-05
-1.26669e-05
3.21158e-05
-6.65956e-06
3.17628e-05
-4.71542e-07
3.10891e-05
3.8246e-06
3.00817e-05
7.77362e-06
2.93637e-05
1.05849e-05
2.84008e-05
9.8556e-06
2.75476e-05
7.81292e-06
2.68666e-05
4.60065e-06
2.60474e-05
7.13209e-07
2.52896e-05
-2.6734e-06
2.42866e-05
-6.05736e-06
2.30247e-05
-7.96112e-06
2.24108e-05
-8.59267e-06
2.22989e-05
-1.16208e-05
2.09981e-05
-1.39453e-05
1.78933e-05
-7.8501e-06
1.39614e-05
3.88416e-06
1.07255e-05
6.65252e-06
8.00873e-06
-6.11676e-06
5.25401e-06
-2.58671e-05
3.1522e-06
-4.14271e-05
1.91956e-06
-4.44409e-05
9.18709e-07
-3.87278e-05
2.80138e-07
-3.29414e-05
-3.76686e-07
-2.41942e-05
-5.11013e-07
-1.71513e-05
9.62847e-07
-3.25073e-06
2.90471e-06
3.3206e-06
4.22455e-06
1.84522e-05
8.04756e-06
1.46223e-05
8.87058e-06
2.91229e-05
1.24734e-05
2.7597e-05
1.30259e-05
4.38214e-05
1.59208e-05
3.96554e-05
1.68222e-05
4.68493e-05
1.79701e-05
3.27895e-05
1.88135e-05
3.41536e-05
1.9875e-05
1.71572e-05
2.04337e-05
2.2462e-05
2.10231e-05
5.12596e-06
2.19667e-05
7.79371e-06
2.19503e-05
-8.76388e-06
2.14781e-05
-5.55613e-06
2.03166e-05
-1.65543e-05
1.90776e-05
-6.5797e-06
1.79243e-05
-1.74886e-05
1.69618e-05
-1.97274e-06
1.61933e-05
-1.46804e-05
1.54303e-05
1.40856e-06
1.52412e-05
-1.17259e-05
1.45408e-05
5.25239e-06
1.46168e-05
-1.19944e-05
1.40938e-05
7.77482e-06
1.43759e-05
-1.01804e-05
1.37306e-05
8.09967e-06
1.43403e-05
-1.08084e-05
1.37275e-05
1.07193e-05
1.42757e-05
-1.06271e-05
1.35433e-05
1.00347e-05
1.45262e-05
-1.04568e-05
1.37072e-05
1.2591e-05
1.45378e-05
-1.09985e-05
1.36538e-05
1.17732e-05
1.50287e-05
-1.03626e-05
1.40237e-05
1.42724e-05
1.51096e-05
-1.04393e-05
1.40139e-05
1.3612e-05
1.5888e-05
-1.04296e-05
1.46955e-05
1.64314e-05
1.62106e-05
-8.73543e-06
1.46299e-05
1.71097e-05
1.72462e-05
-1.00275e-05
1.56998e-05
2.00324e-05
1.81678e-05
-7.16066e-06
1.6088e-05
2.45873e-05
1.90143e-05
-7.39836e-06
1.91701e-05
2.80145e-05
2.19719e-05
-3.39449e-06
2.55511e-05
3.17053e-05
2.73964e-05
9.07769e-06
3.38563e-05
3.10534e-05
3.38241e-05
1.54845e-07
3.36941e-05
-5.14508e-07
3.41307e-05
-5.63547e-07
3.42154e-05
-1.09293e-06
3.43294e-05
-1.41047e-06
3.4766e-05
-3.26677e-07
3.52717e-05
-2.11893e-06
3.61028e-05
-4.80904e-06
3.61404e-05
-7.08598e-06
3.57094e-05
-9.9796e-06
3.54814e-05
-1.19256e-05
3.49819e-05
-1.47809e-05
3.51046e-05
-1.66026e-05
3.52094e-05
-1.79413e-05
3.47395e-05
-1.99688e-05
3.44472e-05
-1.94035e-05
3.40442e-05
-1.86237e-05
3.30626e-05
-1.62776e-05
3.17208e-05
-1.13251e-05
3.09947e-05
-5.93351e-06
3.08271e-05
-3.03964e-07
3.02328e-05
4.41897e-06
2.93865e-05
8.61985e-06
2.86654e-05
1.13061e-05
2.77985e-05
1.07226e-05
2.70526e-05
8.55874e-06
2.65271e-05
5.12614e-06
2.58818e-05
1.35855e-06
2.48388e-05
-1.63043e-06
2.3604e-05
-4.82253e-06
2.2639e-05
-6.99612e-06
2.23462e-05
-8.29991e-06
2.20901e-05
-1.13647e-05
2.0435e-05
-1.22902e-05
1.71176e-05
-4.53269e-06
1.33584e-05
7.64333e-06
1.0415e-05
9.59596e-06
7.69657e-06
-3.39837e-06
4.62739e-06
-2.27979e-05
1.90041e-06
-3.87001e-05
4.7043e-07
-4.30109e-05
-5.15142e-07
-3.77423e-05
-1.66259e-06
-3.17939e-05
-2.48497e-06
-2.33718e-05
-2.60229e-06
-1.7034e-05
-9.21355e-07
-4.93166e-06
9.20182e-07
1.47907e-06
2.92712e-06
1.64453e-05
6.03491e-06
1.15145e-05
6.09046e-06
2.90673e-05
1.07302e-05
2.29573e-05
1.11446e-05
4.34069e-05
1.52525e-05
3.55475e-05
1.62826e-05
4.58192e-05
1.77106e-05
3.13615e-05
1.88579e-05
3.30062e-05
1.98287e-05
1.61864e-05
2.06578e-05
2.1633e-05
2.13614e-05
4.4223e-06
2.24216e-05
6.73356e-06
2.23435e-05
-8.68574e-06
2.17699e-05
-4.98261e-06
2.04608e-05
-1.52452e-05
1.92127e-05
-5.33156e-06
1.78012e-05
-1.60771e-05
1.67601e-05
-9.31634e-07
1.58471e-05
-1.37675e-05
1.51611e-05
2.09455e-06
1.48564e-05
-1.14212e-05
1.43889e-05
5.71986e-06
1.4271e-05
-1.18765e-05
1.39483e-05
8.09759e-06
1.40748e-05
-1.0307e-05
1.36311e-05
8.54339e-06
1.39717e-05
-1.1149e-05
1.35942e-05
1.10968e-05
1.39526e-05
-1.09854e-05
1.33932e-05
1.05941e-05
1.41137e-05
-1.11773e-05
1.35474e-05
1.31572e-05
1.42395e-05
-1.16906e-05
1.34252e-05
1.25876e-05
1.45541e-05
-1.14915e-05
1.37207e-05
1.51057e-05
1.47575e-05
-1.1476e-05
1.36723e-05
1.46971e-05
1.5285e-05
-1.20423e-05
1.41186e-05
1.75978e-05
1.55848e-05
-1.02016e-05
1.41458e-05
1.85487e-05
1.62396e-05
-1.21214e-05
1.53395e-05
2.09326e-05
1.74311e-05
-9.25228e-06
1.64388e-05
2.55795e-05
1.8125e-05
-9.08453e-06
1.89113e-05
2.72281e-05
1.94133e-05
-3.89649e-06
2.24881e-05
2.86305e-05
2.44901e-05
7.07569e-06
2.86433e-05
2.97031e-05
3.40628e-05
9.0233e-09
3.41487e-05
-6.00425e-07
3.4124e-05
-5.38849e-07
3.36375e-05
-6.06429e-07
3.36005e-05
-1.37354e-06
3.44258e-05
-1.15189e-06
3.52248e-05
-2.91802e-06
3.5657e-05
-5.2412e-06
3.54399e-05
-6.86889e-06
3.51878e-05
-9.72745e-06
3.52191e-05
-1.19569e-05
3.49173e-05
-1.44791e-05
3.48701e-05
-1.65554e-05
3.45544e-05
-1.76256e-05
3.38372e-05
-1.92516e-05
3.34054e-05
-1.89717e-05
3.23425e-05
-1.75608e-05
3.07084e-05
-1.46435e-05
2.95564e-05
-1.01732e-05
2.92168e-05
-5.59388e-06
2.88938e-05
1.90359e-08
2.82124e-05
5.10041e-06
2.766e-05
9.17226e-06
2.72811e-05
1.16849e-05
2.67321e-05
1.12716e-05
2.61891e-05
9.1017e-06
2.57059e-05
5.60931e-06
2.4895e-05
2.16951e-06
2.37284e-05
-4.63853e-07
2.27015e-05
-3.79561e-06
2.20627e-05
-6.35737e-06
2.18359e-05
-8.07315e-06
2.13116e-05
-1.08403e-05
1.9372e-05
-1.03506e-05
1.60596e-05
-1.22036e-06
1.26856e-05
1.10173e-05
1.02166e-05
1.2065e-05
7.68313e-06
-8.64912e-07
4.17492e-06
-1.92897e-05
5.94931e-07
-3.51201e-05
-1.49238e-06
-4.09236e-05
-2.42996e-06
-3.68047e-05
-3.66317e-06
-3.05607e-05
-4.35712e-06
-2.26779e-05
-4.00621e-06
-1.73849e-05
-2.05992e-06
-6.87795e-06
-1.19514e-06
6.14291e-07
3.76803e-07
1.48734e-05
3.86806e-06
8.02328e-06
4.97065e-06
2.79647e-05
9.00239e-06
1.89256e-05