/*--------------------------------*- C++ -*----------------------------------*\
| =========                 |                                                 |
| \\      /  F ield         | OpenFOAM: The Open Source CFD Toolbox           |
|  \\    /   O peration     | Version:  2.4.0                                 |
|   \\  /    A nd           | Web:      www.OpenFOAM.org                      |
|    \\/     M anipulation  |                                                 |
\*---------------------------------------------------------------------------*/
FoamFile
{
    version     2.0;
    format      ascii;
    class       volScalarField;
    location    "0.075";
    object      pPrime2Mean;
}
// * * * * * * * * * * * * * * * * * * * * * * * * * * * * * * * * * * * * * //

dimensions      [0 4 -4 0 0 0 0];

internalField   nonuniform List<scalar> 
4400
(
8.49192e+06
8.05513e+06
7.59999e+06
7.15674e+06
6.72674e+06
6.30991e+06
5.90598e+06
5.514e+06
5.13076e+06
4.74149e+06
8.49211e+06
8.05512e+06
7.59998e+06
7.15674e+06
6.72674e+06
6.30992e+06
5.90601e+06
5.51408e+06
5.13104e+06
4.7429e+06
8.49223e+06
8.05509e+06
7.59997e+06
7.15674e+06
6.72674e+06
6.30994e+06
5.90606e+06
5.51424e+06
5.13159e+06
4.74613e+06
8.49229e+06
8.05505e+06
7.59995e+06
7.15674e+06
6.72674e+06
6.30995e+06
5.90612e+06
5.51447e+06
5.13239e+06
4.75034e+06
8.49235e+06
8.05502e+06
7.59994e+06
7.15673e+06
6.72675e+06
6.30998e+06
5.90621e+06
5.51476e+06
5.13341e+06
4.75509e+06
8.4924e+06
8.05499e+06
7.59993e+06
7.15673e+06
6.72675e+06
6.31001e+06
5.90631e+06
5.5151e+06
5.1346e+06
4.76007e+06
8.49244e+06
8.05497e+06
7.59991e+06
7.15674e+06
6.72676e+06
6.31004e+06
5.90643e+06
5.51549e+06
5.13591e+06
4.76507e+06
8.49247e+06
8.05495e+06
7.59991e+06
7.15674e+06
6.72677e+06
6.31008e+06
5.90656e+06
5.51591e+06
5.1373e+06
4.76995e+06
8.49249e+06
8.05494e+06
7.5999e+06
7.15674e+06
6.72678e+06
6.31012e+06
5.9067e+06
5.51635e+06
5.13872e+06
4.77461e+06
8.4925e+06
8.05494e+06
7.5999e+06
7.15675e+06
6.7268e+06
6.31017e+06
5.90684e+06
5.5168e+06
5.14014e+06
4.77901e+06
8.4925e+06
8.05494e+06
7.5999e+06
7.15675e+06
6.72681e+06
6.31021e+06
5.90699e+06
5.51725e+06
5.14153e+06
4.78307e+06
8.49249e+06
8.05494e+06
7.59991e+06
7.15676e+06
6.72683e+06
6.31026e+06
5.90713e+06
5.51768e+06
5.14285e+06
4.78678e+06
8.49247e+06
8.05495e+06
7.59991e+06
7.15676e+06
6.72684e+06
6.3103e+06
5.90726e+06
5.51809e+06
5.14408e+06
4.79011e+06
8.49244e+06
8.05497e+06
7.59992e+06
7.15677e+06
6.72686e+06
6.31035e+06
5.90739e+06
5.51847e+06
5.1452e+06
4.79304e+06
8.4924e+06
8.05499e+06
7.59994e+06
7.15677e+06
6.72688e+06
6.31039e+06
5.9075e+06
5.51882e+06
5.14619e+06
4.79557e+06
8.49235e+06
8.05502e+06
7.59995e+06
7.15678e+06
6.72689e+06
6.31042e+06
5.90761e+06
5.51911e+06
5.14704e+06
4.79768e+06
8.4923e+06
8.05506e+06
7.59997e+06
7.15679e+06
6.7269e+06
6.31046e+06
5.90769e+06
5.51936e+06
5.14773e+06
4.79937e+06
8.49223e+06
8.05509e+06
7.59999e+06
7.15679e+06
6.72691e+06
6.31048e+06
5.90775e+06
5.51954e+06
5.14826e+06
4.80065e+06
8.49211e+06
8.05512e+06
7.6e+06
7.1568e+06
6.72692e+06
6.31049e+06
5.90779e+06
5.51967e+06
5.14861e+06
4.80149e+06
8.49193e+06
8.05513e+06
7.60001e+06
7.1568e+06
6.72692e+06
6.3105e+06
5.90782e+06
5.51973e+06
5.14879e+06
4.80191e+06
4.40819e+06
4.33094e+06
4.26922e+06
4.21263e+06
4.15858e+06
4.10612e+06
4.05478e+06
4.00429e+06
3.95448e+06
3.90519e+06
3.85635e+06
3.80793e+06
3.75989e+06
3.71218e+06
3.6648e+06
3.61774e+06
3.57101e+06
3.5246e+06
3.47852e+06
3.43279e+06
3.3874e+06
3.34234e+06
3.29761e+06
3.2532e+06
3.2091e+06
3.16529e+06
3.1218e+06
3.07861e+06
3.03575e+06
2.99321e+06
2.95099e+06
2.90909e+06
2.86751e+06
2.82624e+06
2.78528e+06
2.7446e+06
2.70422e+06
2.66412e+06
2.6243e+06
2.58477e+06
2.5455e+06
2.50651e+06
2.46778e+06
2.42933e+06
2.39115e+06
2.35326e+06
2.31566e+06
2.27839e+06
2.24144e+06
2.20484e+06
2.16855e+06
2.13258e+06
2.09694e+06
2.06161e+06
2.02659e+06
1.99187e+06
1.95745e+06
1.92333e+06
1.8895e+06
1.85598e+06
1.82275e+06
1.78982e+06
1.75719e+06
1.72487e+06
1.69284e+06
1.66113e+06
1.6297e+06
1.59859e+06
1.56776e+06
1.53726e+06
1.50702e+06
1.47712e+06
1.44748e+06
1.41817e+06
1.38913e+06
1.36042e+06
1.33197e+06
1.30386e+06
1.276e+06
1.24848e+06
1.22121e+06
1.19428e+06
1.1676e+06
1.14125e+06
1.11515e+06
1.08937e+06
1.06384e+06
1.03861e+06
1.01362e+06
988920
964430
940193
916116
892225
868371
844556
820460
795990
770080
740994
4.44384e+06
4.35673e+06
4.28794e+06
4.22692e+06
4.16982e+06
4.11511e+06
4.06203e+06
4.01016e+06
3.95923e+06
3.90905e+06
3.85949e+06
3.81049e+06
3.76197e+06
3.71387e+06
3.66617e+06
3.61886e+06
3.57192e+06
3.52534e+06
3.47912e+06
3.43328e+06
3.38779e+06
3.34266e+06
3.29787e+06
3.25341e+06
3.20927e+06
3.16545e+06
3.12194e+06
3.07876e+06
3.03589e+06
2.99336e+06
2.95115e+06
2.90926e+06
2.86768e+06
2.8264e+06
2.78543e+06
2.74475e+06
2.70436e+06
2.66424e+06
2.62442e+06
2.58487e+06
2.54559e+06
2.5066e+06
2.46785e+06
2.42939e+06
2.39119e+06
2.35328e+06
2.31567e+06
2.27839e+06
2.24144e+06
2.20483e+06
2.16853e+06
2.13257e+06
2.09692e+06
2.0616e+06
2.02657e+06
1.99186e+06
1.95744e+06
1.92332e+06
1.88949e+06
1.85597e+06
1.82273e+06
1.78981e+06
1.75717e+06
1.72486e+06
1.69282e+06
1.66111e+06
1.62968e+06
1.59857e+06
1.56773e+06
1.53722e+06
1.50697e+06
1.47706e+06
1.44741e+06
1.41809e+06
1.38902e+06
1.3603e+06
1.33181e+06
1.30368e+06
1.27577e+06
1.24822e+06
1.22089e+06
1.1939e+06
1.16713e+06
1.1407e+06
1.11448e+06
1.08858e+06
1.06287e+06
1.03748e+06
1.01225e+06
987295
962471
937862
913305
888856
864275
839582
814276
788197
759749
726067
4.47096e+06
4.3794e+06
4.30552e+06
4.24066e+06
4.18074e+06
4.12388e+06
4.06913e+06
4.01592e+06
3.96392e+06
3.91287e+06
3.8626e+06
3.81301e+06
3.76401e+06
3.71553e+06
3.66752e+06
3.61995e+06
3.5728e+06
3.52606e+06
3.47971e+06
3.43376e+06
3.38818e+06
3.34298e+06
3.29813e+06
3.25362e+06
3.20945e+06
3.16561e+06
3.1221e+06
3.07891e+06
3.03604e+06
2.99351e+06
2.9513e+06
2.90941e+06
2.86783e+06
2.82655e+06
2.78557e+06
2.74488e+06
2.70447e+06
2.66435e+06
2.62451e+06
2.58496e+06
2.54567e+06
2.50666e+06
2.46791e+06
2.42944e+06
2.39122e+06
2.3533e+06
2.31567e+06
2.27839e+06
2.24143e+06
2.20481e+06
2.16852e+06
2.13255e+06
2.0969e+06
2.06158e+06
2.02655e+06
1.99184e+06
1.95742e+06
1.9233e+06
1.88948e+06
1.85596e+06
1.82272e+06
1.7898e+06
1.75716e+06
1.72484e+06
1.69281e+06
1.66109e+06
1.62966e+06
1.59854e+06
1.5677e+06
1.53718e+06
1.50692e+06
1.477e+06
1.44733e+06
1.418e+06
1.38892e+06
1.36017e+06
1.33166e+06
1.3035e+06
1.27555e+06
1.24796e+06
1.22057e+06
1.19353e+06
1.16667e+06
1.14016e+06
1.11381e+06
1.08781e+06
1.06193e+06
1.03637e+06
1.0109e+06
985702
960545
935578
910551
885571
860299
834786
808375
780910
750586
714795
4.4925e+06
4.39915e+06
4.32172e+06
4.25367e+06
4.19122e+06
4.13237e+06
4.07602e+06
4.02153e+06
3.96849e+06
3.91659e+06
3.86563e+06
3.81547e+06
3.76601e+06
3.71715e+06
3.66884e+06
3.62102e+06
3.57367e+06
3.52677e+06
3.48029e+06
3.43423e+06
3.38857e+06
3.3433e+06
3.29839e+06
3.25385e+06
3.20964e+06
3.16578e+06
3.12225e+06
3.07906e+06
3.03619e+06
2.99366e+06
2.95145e+06
2.90956e+06
2.86797e+06
2.82668e+06
2.78569e+06
2.74498e+06
2.70457e+06
2.66443e+06
2.62459e+06
2.58502e+06
2.54572e+06
2.50671e+06
2.46794e+06
2.42947e+06
2.39123e+06
2.3533e+06
2.31567e+06
2.27838e+06
2.24142e+06
2.2048e+06
2.16849e+06
2.13253e+06
2.09688e+06
2.06155e+06
2.02653e+06
1.99182e+06
1.9574e+06
1.92329e+06
1.88946e+06
1.85594e+06
1.82271e+06
1.78979e+06
1.75715e+06
1.72483e+06
1.6928e+06
1.66107e+06
1.62964e+06
1.59851e+06
1.56767e+06
1.53714e+06
1.50688e+06
1.47694e+06
1.44727e+06
1.41792e+06
1.38882e+06
1.36005e+06
1.33152e+06
1.30332e+06
1.27534e+06
1.2477e+06
1.22026e+06
1.19316e+06
1.16623e+06
1.13964e+06
1.11317e+06
1.08705e+06
1.06101e+06
1.03529e+06
1.00958e+06
984157
958663
933363
907871
882392
856473
830206
802842
774220
742639
706058
4.51008e+06
4.41629e+06
4.33645e+06
4.26584e+06
4.20117e+06
4.1405e+06
4.08266e+06
4.02696e+06
3.97291e+06
3.92019e+06
3.86856e+06
3.81786e+06
3.76795e+06
3.71873e+06
3.67012e+06
3.62206e+06
3.57452e+06
3.52746e+06
3.48086e+06
3.4347e+06
3.38896e+06
3.34362e+06
3.29866e+06
3.25407e+06
3.20984e+06
3.16595e+06
3.12241e+06
3.07921e+06
3.03634e+06
2.9938e+06
2.95159e+06
2.90969e+06
2.86809e+06
2.82679e+06
2.78578e+06
2.74507e+06
2.70464e+06
2.66449e+06
2.62464e+06
2.58506e+06
2.54575e+06
2.50673e+06
2.46796e+06
2.42948e+06
2.39123e+06
2.35329e+06
2.31565e+06
2.27836e+06
2.2414e+06
2.20478e+06
2.16847e+06
2.1325e+06
2.09686e+06
2.06153e+06
2.02651e+06
1.9918e+06
1.95738e+06
1.92327e+06
1.88945e+06
1.85593e+06
1.8227e+06
1.78977e+06
1.75714e+06
1.72482e+06
1.69278e+06
1.66106e+06
1.62962e+06
1.59849e+06
1.56764e+06
1.5371e+06
1.50684e+06
1.47689e+06
1.4472e+06
1.41784e+06
1.38872e+06
1.35993e+06
1.33138e+06
1.30315e+06
1.27514e+06
1.24745e+06
1.21996e+06
1.1928e+06
1.1658e+06
1.13912e+06
1.11256e+06
1.08632e+06
1.06013e+06
1.03424e+06
1.00832e+06
982670
956859
931243
905299
879361
852808
825869
797695
768142
735824
699073
4.52475e+06
4.43119e+06
4.34975e+06
4.27711e+06
4.21054e+06
4.14822e+06
4.08901e+06
4.03216e+06
3.97717e+06
3.92367e+06
3.8714e+06
3.82017e+06
3.76983e+06
3.72027e+06
3.67137e+06
3.62308e+06
3.57535e+06
3.52815e+06
3.48143e+06
3.43517e+06
3.38934e+06
3.34394e+06
3.29893e+06
3.2543e+06
3.21003e+06
3.16613e+06
3.12257e+06
3.07935e+06
3.03648e+06
2.99393e+06
2.95171e+06
2.9098e+06
2.86819e+06
2.82687e+06
2.78585e+06
2.74512e+06
2.70468e+06
2.66452e+06
2.62466e+06
2.58507e+06
2.54576e+06
2.50673e+06
2.46794e+06
2.42947e+06
2.3912e+06
2.35327e+06
2.31562e+06
2.27835e+06
2.24138e+06
2.20475e+06
2.16845e+06
2.13248e+06
2.09683e+06
2.06151e+06
2.02649e+06
1.99178e+06
1.95737e+06
1.92325e+06
1.88943e+06
1.85591e+06
1.82269e+06
1.78976e+06
1.75713e+06
1.7248e+06
1.69277e+06
1.66104e+06
1.6296e+06
1.59846e+06
1.56761e+06
1.53707e+06
1.50679e+06
1.47683e+06
1.44714e+06
1.41776e+06
1.38863e+06
1.35982e+06
1.33124e+06
1.30298e+06
1.27494e+06
1.24721e+06
1.21968e+06
1.19245e+06
1.16538e+06
1.13862e+06
1.11197e+06
1.0856e+06
1.05928e+06
1.03322e+06
1.00711e+06
981227
955141
929213
902866
876504
849380
821859
792992
762693
729899
693294
4.53717e+06
4.44416e+06
4.36169e+06
4.28746e+06
4.21928e+06
4.1555e+06
4.09503e+06
4.03712e+06
3.98124e+06
3.92701e+06
3.87413e+06
3.8224e+06
3.77165e+06
3.72175e+06
3.67258e+06
3.62407e+06
3.57617e+06
3.52882e+06
3.48198e+06
3.43562e+06
3.38972e+06
3.34425e+06
3.29919e+06
3.25452e+06
3.21023e+06
3.1663e+06
3.12272e+06
3.07949e+06
3.0366e+06
2.99405e+06
2.95181e+06
2.90988e+06
2.86825e+06
2.82692e+06
2.78589e+06
2.74514e+06
2.70469e+06
2.66452e+06
2.62465e+06
2.58504e+06
2.54573e+06
2.5067e+06
2.46791e+06
2.42943e+06
2.39116e+06
2.35323e+06
2.31559e+06
2.27833e+06
2.24135e+06
2.20473e+06
2.16842e+06
2.13245e+06
2.09681e+06
2.06148e+06
2.02647e+06
1.99176e+06
1.95735e+06
1.92324e+06
1.88942e+06
1.8559e+06
1.82268e+06
1.78975e+06
1.75712e+06
1.72479e+06
1.69276e+06
1.66102e+06
1.62958e+06
1.59844e+06
1.56758e+06
1.53703e+06
1.50676e+06
1.47678e+06
1.44708e+06
1.41768e+06
1.38854e+06
1.35971e+06
1.33111e+06
1.30282e+06
1.27475e+06
1.24698e+06
1.2194e+06
1.19212e+06
1.16499e+06
1.13814e+06
1.1114e+06
1.08491e+06
1.05846e+06
1.03224e+06
1.00595e+06
979830
953500
927254
900567
873792
846214
818175
788747
757886
724723
688425
4.5478e+06
4.45546e+06
4.37237e+06
4.29691e+06
4.22736e+06
4.1623e+06
4.10069e+06
4.04181e+06
3.98511e+06
3.93019e+06
3.87674e+06
3.82454e+06
3.7734e+06
3.72317e+06
3.67375e+06
3.62503e+06
3.57696e+06
3.52947e+06
3.48252e+06
3.43607e+06
3.3901e+06
3.34457e+06
3.29945e+06
3.25474e+06
3.21041e+06
3.16646e+06
3.12286e+06
3.07962e+06
3.03671e+06
2.99414e+06
2.95189e+06
2.90994e+06
2.8683e+06
2.82695e+06
2.7859e+06
2.74514e+06
2.70467e+06
2.66449e+06
2.62462e+06
2.58499e+06
2.54569e+06
2.50664e+06
2.46786e+06
2.42939e+06
2.39111e+06
2.35318e+06
2.31555e+06
2.27831e+06
2.24131e+06
2.20471e+06
2.16839e+06
2.13243e+06
2.09678e+06
2.06146e+06
2.02645e+06
1.99174e+06
1.95733e+06
1.92322e+06
1.88941e+06
1.85589e+06
1.82266e+06
1.78974e+06
1.75711e+06
1.72478e+06
1.69274e+06
1.66101e+06
1.62956e+06
1.59842e+06
1.56756e+06
1.53699e+06
1.50672e+06
1.47673e+06
1.44702e+06
1.41761e+06
1.38846e+06
1.3596e+06
1.33099e+06
1.30267e+06
1.27457e+06
1.24676e+06
1.21914e+06
1.1918e+06
1.16462e+06
1.13769e+06
1.11086e+06
1.08426e+06
1.05769e+06
1.03131e+06
1.00485e+06
978512
951954
925402
898416
871233
843283
814738
784885
753576
720197
684288
4.55699e+06
4.46533e+06
4.38186e+06
4.30546e+06
4.23478e+06
4.1686e+06
4.10598e+06
4.04621e+06
3.98875e+06
3.93319e+06
3.87922e+06
3.82657e+06
3.77506e+06
3.72454e+06
3.67487e+06
3.62596e+06
3.57772e+06
3.5301e+06
3.48305e+06
3.43651e+06
3.39046e+06
3.34487e+06
3.2997e+06
3.25494e+06
3.21059e+06
3.16661e+06
3.12299e+06
3.07972e+06
3.0368e+06
2.99421e+06
2.95194e+06
2.90998e+06
2.86832e+06
2.82695e+06
2.78589e+06
2.74511e+06
2.70463e+06
2.66444e+06
2.62456e+06
2.58492e+06
2.54562e+06
2.50656e+06
2.46779e+06
2.42932e+06
2.39105e+06
2.35312e+06
2.31552e+06
2.2783e+06
2.24128e+06
2.2047e+06
2.16836e+06
2.13241e+06
2.09676e+06
2.06144e+06
2.02643e+06
1.99172e+06
1.95731e+06
1.9232e+06
1.88939e+06
1.85587e+06
1.82265e+06
1.78972e+06
1.7571e+06
1.72476e+06
1.69273e+06
1.66099e+06
1.62954e+06
1.59839e+06
1.56753e+06
1.53696e+06
1.50668e+06
1.47668e+06
1.44697e+06
1.41754e+06
1.38838e+06
1.3595e+06
1.33087e+06
1.30252e+06
1.2744e+06
1.24655e+06
1.2189e+06
1.1915e+06
1.16426e+06
1.13725e+06
1.11035e+06
1.08365e+06
1.05697e+06
1.03044e+06
1.00382e+06
977282
950511
923680
896420
868855
840581
811554
781355
749686
716242
680720
4.56498e+06
4.47395e+06
4.39026e+06
4.31314e+06
4.24152e+06
4.17439e+06
4.11087e+06
4.0503e+06
3.99215e+06
3.93601e+06
3.88153e+06
3.82848e+06
3.77663e+06
3.72582e+06
3.67593e+06
3.62683e+06
3.57845e+06
3.53071e+06
3.48355e+06
3.43693e+06
3.39081e+06
3.34515e+06
3.29993e+06
3.25513e+06
3.21075e+06
3.16674e+06
3.12309e+06
3.07981e+06
3.03687e+06
2.99426e+06
2.95197e+06
2.90999e+06
2.86831e+06
2.82693e+06
2.78585e+06
2.74506e+06
2.70457e+06
2.66437e+06
2.62448e+06
2.58484e+06
2.54554e+06
2.50648e+06
2.46772e+06
2.42924e+06
2.39099e+06
2.35306e+06
2.31549e+06
2.27828e+06
2.24125e+06
2.20468e+06
2.16834e+06
2.1324e+06
2.09674e+06
2.06142e+06
2.02641e+06
1.9917e+06
1.9573e+06
1.92318e+06
1.88938e+06
1.85586e+06
1.82264e+06
1.78971e+06
1.75708e+06
1.72475e+06
1.69271e+06
1.66097e+06
1.62952e+06
1.59836e+06
1.5675e+06
1.53692e+06
1.50664e+06
1.47663e+06
1.44691e+06
1.41746e+06
1.38829e+06
1.35939e+06
1.33076e+06
1.30237e+06
1.27424e+06
1.24634e+06
1.21867e+06
1.19121e+06
1.16393e+06
1.13684e+06
1.10988e+06
1.08307e+06
1.05629e+06
1.02962e+06
1.00287e+06
976135
949178
922078
894573
866656
838071
808638
778140
746198
712787
677597
4.57192e+06
4.48146e+06
4.39766e+06
4.31998e+06
4.2476e+06
4.17964e+06
4.11534e+06
4.05406e+06
3.99529e+06
3.93861e+06
3.88368e+06
3.83025e+06
3.77809e+06
3.72702e+06
3.67692e+06
3.62765e+06
3.57913e+06
3.53128e+06
3.48403e+06
3.43733e+06
3.39114e+06
3.34541e+06
3.30014e+06
3.25531e+06
3.2109e+06
3.16685e+06
3.12318e+06
3.07987e+06
3.03691e+06
2.99428e+06
2.95197e+06
2.90997e+06
2.86828e+06
2.82689e+06
2.78579e+06
2.74499e+06
2.70449e+06
2.66428e+06
2.62438e+06
2.58475e+06
2.54545e+06
2.50638e+06
2.46764e+06
2.42916e+06
2.39093e+06
2.353e+06
2.31547e+06
2.27825e+06
2.24122e+06
2.20467e+06
2.16831e+06
2.13239e+06
2.09672e+06
2.0614e+06
2.02639e+06
1.99168e+06
1.95728e+06
1.92317e+06
1.88936e+06
1.85584e+06
1.82262e+06
1.78969e+06
1.75707e+06
1.72473e+06
1.6927e+06
1.66094e+06
1.6295e+06
1.59833e+06
1.56747e+06
1.53688e+06
1.50659e+06
1.47657e+06
1.44685e+06
1.41739e+06
1.38821e+06
1.35929e+06
1.33064e+06
1.30223e+06
1.27408e+06
1.24615e+06
1.21844e+06
1.19093e+06
1.16361e+06
1.13646e+06
1.10943e+06
1.08252e+06
1.05567e+06
1.02886e+06
1.00199e+06
975067
947943
920594
892858
864628
835756
805982
775245
743116
709764
674861
4.57795e+06
4.48798e+06
4.40413e+06
4.32602e+06
4.25301e+06
4.18436e+06
4.11938e+06
4.05747e+06
3.99814e+06
3.94098e+06
3.88565e+06
3.83187e+06
3.77943e+06
3.72813e+06
3.67783e+06
3.62841e+06
3.57976e+06
3.5318e+06
3.48446e+06
3.43769e+06
3.39144e+06
3.34565e+06
3.30033e+06
3.25546e+06
3.21102e+06
3.16694e+06
3.12324e+06
3.07991e+06
3.03693e+06
2.99428e+06
2.95195e+06
2.90994e+06
2.86823e+06
2.82682e+06
2.78571e+06
2.7449e+06
2.70439e+06
2.66418e+06
2.62428e+06
2.58465e+06
2.54535e+06
2.50628e+06
2.46756e+06
2.42907e+06
2.39088e+06
2.35295e+06
2.31545e+06
2.27822e+06
2.2412e+06
2.20465e+06
2.16829e+06
2.13238e+06
2.0967e+06
2.06139e+06
2.02638e+06
1.99167e+06
1.95726e+06
1.92315e+06
1.88935e+06
1.85582e+06
1.82261e+06
1.78968e+06
1.75705e+06
1.72471e+06
1.69268e+06
1.66092e+06
1.62948e+06
1.5983e+06
1.56744e+06
1.53684e+06
1.50655e+06
1.47652e+06
1.44679e+06
1.41731e+06
1.38813e+06
1.35919e+06
1.33053e+06
1.30209e+06
1.27392e+06
1.24595e+06
1.21822e+06
1.19067e+06
1.16331e+06
1.13609e+06
1.10901e+06
1.08201e+06
1.05508e+06
1.02814e+06
1.00116e+06
974072
946791
919217
891271
862760
833644
803589
772671
740425
707127
672492
4.58314e+06
4.4936e+06
4.40973e+06
4.3313e+06
4.25778e+06
4.18854e+06
4.12297e+06
4.06052e+06
4.00071e+06
3.94312e+06
3.88743e+06
3.83334e+06
3.78064e+06
3.72913e+06
3.67866e+06
3.6291e+06
3.58033e+06
3.53228e+06
3.48486e+06
3.43802e+06
3.3917e+06
3.34586e+06
3.30049e+06
3.25559e+06
3.21112e+06
3.16701e+06
3.12329e+06
3.07993e+06
3.03692e+06
2.99425e+06
2.95191e+06
2.90988e+06
2.86815e+06
2.82673e+06
2.78561e+06
2.74479e+06
2.70428e+06
2.66407e+06
2.62416e+06
2.58454e+06
2.54524e+06
2.50618e+06
2.46747e+06
2.42898e+06
2.39082e+06
2.3529e+06
2.31544e+06
2.27817e+06
2.24119e+06
2.20462e+06
2.16828e+06
2.13236e+06
2.09668e+06
2.06137e+06
2.02636e+06
1.99165e+06
1.95725e+06
1.92314e+06
1.88933e+06
1.85581e+06
1.8226e+06
1.78966e+06
1.75704e+06
1.72469e+06
1.69266e+06
1.6609e+06
1.62945e+06
1.59827e+06
1.56741e+06
1.5368e+06
1.50651e+06
1.47647e+06
1.44673e+06
1.41724e+06
1.38805e+06
1.35909e+06
1.33042e+06
1.30196e+06
1.27377e+06
1.24577e+06
1.21801e+06
1.19041e+06
1.16302e+06
1.13574e+06
1.10861e+06
1.08153e+06
1.05452e+06
1.02747e+06
1.0004e+06
973144
945727
917944
889820
861059
831749
801467
770411
738103
704856
670463
4.58758e+06
4.49839e+06
4.41453e+06
4.33584e+06
4.2619e+06
4.19218e+06
4.12613e+06
4.06321e+06
4.00297e+06
3.94501e+06
3.889e+06
3.83464e+06
3.78172e+06
3.73002e+06
3.6794e+06
3.62971e+06
3.58084e+06
3.5327e+06
3.48521e+06
3.43831e+06
3.39194e+06
3.34605e+06
3.30063e+06
3.2557e+06
3.21119e+06
3.16706e+06
3.12331e+06
3.07993e+06
3.0369e+06
2.99421e+06
2.95185e+06
2.9098e+06
2.86806e+06
2.82663e+06
2.7855e+06
2.74467e+06
2.70416e+06
2.66395e+06
2.62404e+06
2.58443e+06
2.54513e+06
2.50608e+06
2.46737e+06
2.4289e+06
2.39077e+06
2.35284e+06
2.31541e+06
2.27811e+06
2.24117e+06
2.20459e+06
2.16827e+06
2.13234e+06
2.09667e+06
2.06136e+06
2.02635e+06
1.99164e+06
1.95724e+06
1.92312e+06
1.88932e+06
1.8558e+06
1.82258e+06
1.78965e+06
1.75703e+06
1.72467e+06
1.69264e+06
1.66088e+06
1.62943e+06
1.59824e+06
1.56738e+06
1.53676e+06
1.50647e+06
1.47642e+06
1.44668e+06
1.41717e+06
1.38798e+06
1.359e+06
1.33032e+06
1.30183e+06
1.27363e+06
1.24559e+06
1.21782e+06
1.19017e+06
1.16276e+06
1.13541e+06
1.10824e+06
1.08107e+06
1.05401e+06
1.02685e+06
999693
972287
944762
916786
888520
859547
830081
799630
768464
736127
702926
668737
4.59131e+06
4.50241e+06
4.41856e+06
4.33967e+06
4.26541e+06
4.1953e+06
4.12883e+06
4.06552e+06
4.00492e+06
3.94665e+06
3.89036e+06
3.83578e+06
3.78266e+06
3.7308e+06
3.68005e+06
3.63025e+06
3.58129e+06
3.53307e+06
3.48551e+06
3.43855e+06
3.39213e+06
3.3462e+06
3.30075e+06
3.25578e+06
3.21125e+06
3.16709e+06
3.12332e+06
3.07992e+06
3.03687e+06
2.99416e+06
2.95178e+06
2.90972e+06
2.86797e+06
2.82653e+06
2.78539e+06
2.74456e+06
2.70404e+06
2.66383e+06
2.62392e+06
2.58432e+06
2.54502e+06
2.50599e+06
2.46729e+06
2.42881e+06
2.39071e+06
2.35279e+06
2.31538e+06
2.27805e+06
2.24116e+06
2.20456e+06
2.16827e+06
2.13231e+06
2.09666e+06
2.06135e+06
2.02634e+06
1.99163e+06
1.95723e+06
1.92311e+06
1.88931e+06
1.85578e+06
1.82257e+06
1.78963e+06
1.75701e+06
1.72466e+06
1.69263e+06
1.66086e+06
1.62941e+06
1.59822e+06
1.56735e+06
1.53673e+06
1.50643e+06
1.47637e+06
1.44663e+06
1.41711e+06
1.38792e+06
1.35892e+06
1.33023e+06
1.30172e+06
1.27351e+06
1.24544e+06
1.21766e+06
1.18996e+06
1.16252e+06
1.13511e+06
1.10792e+06
1.08066e+06
1.05356e+06
1.02628e+06
999068
971519
943909
915767
887386
858247
828651
798078
766821
734476
701314
667288
4.59436e+06
4.5057e+06
4.42187e+06
4.34283e+06
4.26831e+06
4.19788e+06
4.13109e+06
4.06746e+06
4.00657e+06
3.94803e+06
3.89152e+06
3.83674e+06
3.78346e+06
3.73147e+06
3.68059e+06
3.6307e+06
3.58166e+06
3.53337e+06
3.48576e+06
3.43876e+06
3.39229e+06
3.34632e+06
3.30084e+06
3.25585e+06
3.21129e+06
3.16711e+06
3.12332e+06
3.07989e+06
3.03683e+06
2.9941e+06
2.95171e+06
2.90964e+06
2.86788e+06
2.82643e+06
2.78528e+06
2.74446e+06
2.70394e+06
2.66373e+06
2.62382e+06
2.58422e+06
2.54492e+06
2.50591e+06
2.4672e+06
2.42874e+06
2.39066e+06
2.35274e+06
2.31536e+06
2.278e+06
2.24114e+06
2.20452e+06
2.16827e+06
2.13227e+06
2.09666e+06
2.06133e+06
2.02633e+06
1.99162e+06
1.95722e+06
1.9231e+06
1.8893e+06
1.85577e+06
1.82256e+06
1.78962e+06
1.757e+06
1.72465e+06
1.69261e+06
1.66084e+06
1.62939e+06
1.5982e+06
1.56733e+06
1.5367e+06
1.5064e+06
1.47633e+06
1.44659e+06
1.41706e+06
1.38786e+06
1.35884e+06
1.33016e+06
1.30162e+06
1.27341e+06
1.2453e+06
1.21751e+06
1.18977e+06
1.16232e+06
1.13485e+06
1.10764e+06
1.0803e+06
1.05317e+06
1.02579e+06
998531
970862
943182
914907
886431
857168
827464
796804
765471
733127
699998
666097
4.59677e+06
4.50829e+06
4.42448e+06
4.34534e+06
4.27062e+06
4.19995e+06
4.1329e+06
4.06902e+06
4.00789e+06
3.94915e+06
3.89245e+06
3.83752e+06
3.7841e+06
3.732e+06
3.68104e+06
3.63106e+06
3.58196e+06
3.53362e+06
3.48596e+06
3.43891e+06
3.39241e+06
3.34642e+06
3.30091e+06
3.25589e+06
3.21131e+06
3.16711e+06
3.12331e+06
3.07987e+06
3.03679e+06
2.99405e+06
2.95164e+06
2.90956e+06
2.86779e+06
2.82634e+06
2.7852e+06
2.74437e+06
2.70385e+06
2.66364e+06
2.62373e+06
2.58414e+06
2.54484e+06
2.50583e+06
2.46713e+06
2.42867e+06
2.39062e+06
2.35269e+06
2.31532e+06
2.27796e+06
2.24114e+06
2.20447e+06
2.16826e+06
2.13225e+06
2.09665e+06
2.06133e+06
2.02633e+06
1.99161e+06
1.95722e+06
1.9231e+06
1.8893e+06
1.85577e+06
1.82256e+06
1.78961e+06
1.75699e+06
1.72464e+06
1.6926e+06
1.66083e+06
1.62938e+06
1.59818e+06
1.56731e+06
1.53668e+06
1.50638e+06
1.4763e+06
1.44656e+06
1.41702e+06
1.38782e+06
1.35879e+06
1.33009e+06
1.30154e+06
1.27332e+06
1.24519e+06
1.21739e+06
1.18962e+06
1.16215e+06
1.13464e+06
1.1074e+06
1.08001e+06
1.05285e+06
1.0254e+06
998091
970332
942591
914218
885665
856310
826519
795800
764402
732064
698961
665154
4.59856e+06
4.51021e+06
4.42642e+06
4.34721e+06
4.27235e+06
4.20151e+06
4.13426e+06
4.07019e+06
4.0089e+06
3.95e+06
3.89316e+06
3.83811e+06
3.7846e+06
3.73241e+06
3.68137e+06
3.63134e+06
3.58218e+06
3.5338e+06
3.4861e+06
3.43902e+06
3.39249e+06
3.34648e+06
3.30096e+06
3.25592e+06
3.21132e+06
3.16711e+06
3.12329e+06
3.07984e+06
3.03675e+06
2.994e+06
2.95159e+06
2.9095e+06
2.86773e+06
2.82628e+06
2.78513e+06
2.7443e+06
2.70379e+06
2.66358e+06
2.62367e+06
2.58407e+06
2.54477e+06
2.50578e+06
2.46707e+06
2.42863e+06
2.39058e+06
2.35265e+06
2.31529e+06
2.27793e+06
2.24115e+06
2.20443e+06
2.16824e+06
2.13225e+06
2.09665e+06
2.06132e+06
2.02632e+06
1.99161e+06
1.95721e+06
1.92309e+06
1.88929e+06
1.85576e+06
1.82255e+06
1.78961e+06
1.75699e+06
1.72463e+06
1.6926e+06
1.66082e+06
1.62937e+06
1.59817e+06
1.5673e+06
1.53666e+06
1.50636e+06
1.47628e+06
1.44654e+06
1.41699e+06
1.38778e+06
1.35875e+06
1.33005e+06
1.30148e+06
1.27326e+06
1.24511e+06
1.2173e+06
1.18951e+06
1.16203e+06
1.13448e+06
1.10723e+06
1.07979e+06
1.0526e+06
1.0251e+06
997756
969933
942144
913703
885090
855672
825814
795055
763607
731274
698194
664450
4.59974e+06
4.51147e+06
4.42771e+06
4.34845e+06
4.27351e+06
4.20255e+06
4.13518e+06
4.07098e+06
4.00957e+06
3.95056e+06
3.89364e+06
3.83851e+06
3.78493e+06
3.73268e+06
3.6816e+06
3.63152e+06
3.58233e+06
3.53391e+06
3.48619e+06
3.43909e+06
3.39254e+06
3.34652e+06
3.30099e+06
3.25594e+06
3.21132e+06
3.1671e+06
3.12328e+06
3.07982e+06
3.03672e+06
2.99397e+06
2.95156e+06
2.90946e+06
2.86769e+06
2.82624e+06
2.7851e+06
2.74427e+06
2.70375e+06
2.66354e+06
2.62363e+06
2.58403e+06
2.54473e+06
2.50574e+06
2.46703e+06
2.4286e+06
2.39056e+06
2.35263e+06
2.31528e+06
2.2779e+06
2.24114e+06
2.20442e+06
2.16824e+06
2.13224e+06
2.09665e+06
2.06132e+06
2.02632e+06
1.99161e+06
1.95721e+06
1.92309e+06
1.88929e+06
1.85576e+06
1.82255e+06
1.78961e+06
1.75699e+06
1.72463e+06
1.69259e+06
1.66081e+06
1.62937e+06
1.59816e+06
1.56729e+06
1.53665e+06
1.50635e+06
1.47627e+06
1.44652e+06
1.41697e+06
1.38776e+06
1.35872e+06
1.33002e+06
1.30145e+06
1.27322e+06
1.24506e+06
1.21724e+06
1.18943e+06
1.16194e+06
1.13438e+06
1.10711e+06
1.07965e+06
1.05244e+06
1.0249e+06
997532
969670
941846
913362
884705
855249
825342
794563
763076
730751
697687
663984
4.60031e+06
4.5121e+06
4.42835e+06
4.34907e+06
4.27408e+06
4.20307e+06
4.13563e+06
4.07138e+06
4.00991e+06
3.95085e+06
3.89388e+06
3.83871e+06
3.78509e+06
3.73282e+06
3.68171e+06
3.63161e+06
3.5824e+06
3.53397e+06
3.48623e+06
3.43912e+06
3.39257e+06
3.34654e+06
3.30101e+06
3.25595e+06
3.21132e+06
3.1671e+06
3.12327e+06
3.07981e+06
3.03671e+06
2.99396e+06
2.95154e+06
2.90945e+06
2.86768e+06
2.82622e+06
2.78508e+06
2.74425e+06
2.70373e+06
2.66352e+06
2.62361e+06
2.58401e+06
2.54471e+06
2.50572e+06
2.46701e+06
2.42859e+06
2.39055e+06
2.35262e+06
2.31526e+06
2.27788e+06
2.24112e+06
2.20441e+06
2.16823e+06
2.13224e+06
2.09665e+06
2.06132e+06
2.02632e+06
1.99161e+06
1.95721e+06
1.92309e+06
1.88929e+06
1.85576e+06
1.82255e+06
1.78961e+06
1.75699e+06
1.72462e+06
1.69259e+06
1.66081e+06
1.62936e+06
1.59816e+06
1.56729e+06
1.53665e+06
1.50635e+06
1.47626e+06
1.44652e+06
1.41696e+06
1.38775e+06
1.35871e+06
1.33001e+06
1.30143e+06
1.2732e+06
1.24504e+06
1.21721e+06
1.1894e+06
1.16191e+06
1.13433e+06
1.10706e+06
1.07958e+06
1.05237e+06
1.0248e+06
997426
969541
941701
913194
884517
855040
825110
794319
762816
730492
697437
663760
4.07013e+06
4.06408e+06
4.05224e+06
4.03503e+06
4.01299e+06
3.98672e+06
3.95681e+06
3.9238e+06
3.88827e+06
3.85069e+06
3.81143e+06
3.77084e+06
3.72921e+06
3.68681e+06
3.64384e+06
3.60043e+06
3.55672e+06
3.51281e+06
3.46878e+06
3.42472e+06
3.3807e+06
3.33674e+06
3.29292e+06
3.24923e+06
3.20568e+06
3.16226e+06
3.11905e+06
3.07608e+06
3.03336e+06
2.99089e+06
2.94869e+06
2.90681e+06
2.86523e+06
2.82401e+06
2.7831e+06
2.74251e+06
2.70221e+06
2.6622e+06
2.62249e+06
2.58306e+06
2.54391e+06
2.50505e+06
2.46648e+06
2.4282e+06
2.3902e+06
2.35251e+06
2.31511e+06
2.278e+06
2.2412e+06
2.20469e+06
2.16848e+06
2.13256e+06
2.09695e+06
2.06163e+06
2.02661e+06
1.9919e+06
1.95749e+06
1.92337e+06
1.88956e+06
1.85605e+06
1.82285e+06
1.78995e+06
1.75735e+06
1.72506e+06
1.69308e+06
1.66141e+06
1.63005e+06
1.59901e+06
1.56827e+06
1.53785e+06
1.50776e+06
1.47798e+06
1.44853e+06
1.41941e+06
1.39064e+06
1.36221e+06
1.33413e+06
1.30642e+06
1.27909e+06
1.25215e+06
1.22563e+06
1.19954e+06
1.17391e+06
1.14878e+06
1.12417e+06
1.10014e+06
1.07675e+06
1.05405e+06
1.03212e+06
1.01106e+06
990979
972008
954304
938048
923446
910725
900128
891886
886222
883322
4.0712e+06
4.06511e+06
4.0532e+06
4.0359e+06
4.01377e+06
3.9874e+06
3.95739e+06
3.92429e+06
3.88869e+06
3.85104e+06
3.81172e+06
3.77108e+06
3.72942e+06
3.68699e+06
3.644e+06
3.60057e+06
3.55683e+06
3.5129e+06
3.46886e+06
3.42478e+06
3.38075e+06
3.33679e+06
3.29297e+06
3.24929e+06
3.20574e+06
3.16232e+06
3.11909e+06
3.07611e+06
3.03339e+06
2.99092e+06
2.94871e+06
2.90682e+06
2.86525e+06
2.82402e+06
2.78311e+06
2.74251e+06
2.70221e+06
2.66221e+06
2.62249e+06
2.58306e+06
2.54391e+06
2.50505e+06
2.46648e+06
2.4282e+06
2.39021e+06
2.35251e+06
2.31511e+06
2.278e+06
2.2412e+06
2.20469e+06
2.16848e+06
2.13256e+06
2.09695e+06
2.06163e+06
2.02661e+06
1.9919e+06
1.95749e+06
1.92337e+06
1.88956e+06
1.85605e+06
1.82285e+06
1.78995e+06
1.75735e+06
1.72506e+06
1.69308e+06
1.66141e+06
1.63005e+06
1.599e+06
1.56827e+06
1.53785e+06
1.50775e+06
1.47797e+06
1.44852e+06
1.41941e+06
1.39063e+06
1.36219e+06
1.33412e+06
1.3064e+06
1.27907e+06
1.25213e+06
1.2256e+06
1.19951e+06
1.17387e+06
1.14873e+06
1.12412e+06
1.10008e+06
1.07667e+06
1.05395e+06
1.03201e+06
1.01093e+06
990820
971819
954079
937784
923139
910374
899732
891449
885752
882834
4.07334e+06
4.06718e+06
4.05512e+06
4.03764e+06
4.01531e+06
3.98876e+06
3.95855e+06
3.92527e+06
3.88952e+06
3.85174e+06
3.81231e+06
3.77158e+06
3.72985e+06
3.68737e+06
3.64433e+06
3.60085e+06
3.55707e+06
3.51309e+06
3.46902e+06
3.42492e+06
3.38086e+06
3.3369e+06
3.29308e+06
3.24941e+06
3.20586e+06
3.16242e+06
3.11918e+06
3.07618e+06
3.03344e+06
2.99096e+06
2.94875e+06
2.90685e+06
2.86527e+06
2.82403e+06
2.78312e+06
2.74252e+06
2.70223e+06
2.66222e+06
2.6225e+06
2.58307e+06
2.54392e+06
2.50506e+06
2.46649e+06
2.4282e+06
2.39021e+06
2.35251e+06
2.31511e+06
2.278e+06
2.2412e+06
2.20469e+06
2.16848e+06
2.13256e+06
2.09695e+06
2.06163e+06
2.02661e+06
1.9919e+06
1.95749e+06
1.92337e+06
1.88956e+06
1.85605e+06
1.82285e+06
1.78994e+06
1.75735e+06
1.72506e+06
1.69308e+06
1.66141e+06
1.63005e+06
1.599e+06
1.56826e+06
1.53784e+06
1.50774e+06
1.47796e+06
1.44851e+06
1.41939e+06
1.39061e+06
1.36217e+06
1.33409e+06
1.30637e+06
1.27903e+06
1.25209e+06
1.22555e+06
1.19944e+06
1.1738e+06
1.14864e+06
1.12401e+06
1.09995e+06
1.07651e+06
1.05377e+06
1.03179e+06
1.01066e+06
990504
971442
953633
937257
922525
909669
898938
890572
884809
881854
4.07657e+06
4.07029e+06
4.058e+06
4.04024e+06
4.01762e+06
3.99077e+06
3.96028e+06
3.92674e+06
3.89076e+06
3.85278e+06
3.81318e+06
3.77232e+06
3.73049e+06
3.68793e+06
3.64481e+06
3.60126e+06
3.55741e+06
3.51337e+06
3.46926e+06
3.42512e+06
3.38103e+06
3.33705e+06
3.29323e+06
3.24957e+06
3.20602e+06
3.16257e+06
3.11929e+06
3.07626e+06
3.03351e+06
2.99103e+06
2.94881e+06
2.9069e+06
2.86531e+06
2.82406e+06
2.78315e+06
2.74255e+06
2.70225e+06
2.66224e+06
2.62252e+06
2.58309e+06
2.54394e+06
2.50508e+06
2.4665e+06
2.42821e+06
2.39022e+06
2.35252e+06
2.31511e+06
2.27801e+06
2.2412e+06
2.20469e+06
2.16848e+06
2.13256e+06
2.09695e+06
2.06163e+06
2.02661e+06
1.9919e+06