/*--------------------------------*- C++ -*----------------------------------*\
| =========                 |                                                 |
| \\      /  F ield         | OpenFOAM: The Open Source CFD Toolbox           |
|  \\    /   O peration     | Version:  2.4.0                                 |
|   \\  /    A nd           | Web:      www.OpenFOAM.org                      |
|    \\/     M anipulation  |                                                 |
\*---------------------------------------------------------------------------*/
FoamFile
{
    version     2.0;
    format      ascii;
    class       surfaceScalarField;
    location    "0.066";
    object      phi;
}
// * * * * * * * * * * * * * * * * * * * * * * * * * * * * * * * * * * * * * //

dimensions      [0 3 -1 0 0 0 0];

internalField   nonuniform List<scalar> 
34880
(
5.48653e-06
7.01347e-06
3.12514e-06
2.36139e-06
2.47374e-06
6.51402e-07
2.21763e-06
2.56113e-07
2.07543e-06
1.42195e-07
1.9693e-06
1.06132e-07
1.88536e-06
8.39396e-08
1.82003e-06
6.53354e-08
1.77472e-06
4.53083e-08
1.73528e-06
3.94341e-08
1.70372e-06
3.15602e-08
1.67743e-06
2.62912e-08
1.66151e-06
1.59256e-08
1.61596e-06
4.55428e-08
1.62743e-06
-1.14695e-08
1.59052e-06
3.69147e-08
1.55234e-06
3.81801e-08
1.57688e-06
-2.45386e-08
1.46561e-06
1.11263e-07
-1.78267e-07
1.64388e-06
1.01081e-05
9.40533e-06
7.83022e-06
4.63931e-06
6.71149e-06
1.77013e-06
6.06218e-06
9.05418e-07
5.64681e-06
5.57562e-07
5.35165e-06
4.01296e-07
5.12027e-06
3.15324e-07
4.94555e-06
2.40051e-07
4.80886e-06
1.81999e-07
4.69789e-06
1.50405e-07
4.60931e-06
1.20141e-07
4.53625e-06
9.93451e-08
4.47531e-06
7.68671e-08
4.39324e-06
1.27618e-07
4.38442e-06
-2.65069e-09
4.29697e-06
1.24369e-07
4.26178e-06
7.3363e-08
4.26058e-06
-2.33372e-08
4.09983e-06
2.72012e-07
-1.7232e-07
4.09389e-06
1.24219e-05
9.48345e-06
1.10038e-05
6.05741e-06
9.9817e-06
2.79221e-06
9.20107e-06
1.68604e-06
8.61976e-06
1.13887e-06
8.1938e-06
8.27254e-07
7.85344e-06
6.55684e-07
7.59698e-06
4.96519e-07
7.38618e-06
3.92797e-07
7.21737e-06
3.19213e-07
7.08104e-06
2.5647e-07
6.96793e-06
2.12455e-07
6.8682e-06
1.76597e-07
6.76127e-06
2.34546e-07
6.7273e-06
3.13183e-08
6.60686e-06
2.44813e-07
6.56614e-06
1.14082e-07
6.55858e-06
-1.57765e-08
6.38357e-06
4.47024e-07
1.26405e-07
6.08484e-06
1.34083e-05
8.57518e-06
1.28884e-05
6.57725e-06
1.23272e-05
3.35348e-06
1.17148e-05
2.29839e-06
1.11329e-05
1.72076e-06
1.06647e-05
1.29549e-06
1.02678e-05
1.0526e-06
9.96266e-06
8.01644e-07
9.7044e-06
6.5106e-07
9.49186e-06
5.3175e-07
9.32155e-06
4.26782e-07
9.17735e-06
3.56653e-07
9.04491e-06
3.09034e-07
8.92001e-06
3.59451e-07
8.8656e-06
8.57219e-08
8.71974e-06
3.90675e-07
8.66347e-06
1.70352e-07
8.64212e-06
5.57996e-09
8.57566e-06
5.13476e-07
9.23312e-07
7.77876e-06
1.35864e-05
7.48881e-06
1.36597e-05
6.50389e-06
1.36242e-05
3.38901e-06
1.33995e-05
2.52314e-06
1.30146e-05
2.10561e-06
1.26341e-05
1.67603e-06
1.22656e-05
1.42109e-06
1.19667e-05
1.10054e-06
1.17052e-05
9.12492e-07
1.1475e-05
7.61957e-07
1.1293e-05
6.08805e-07
1.11364e-05
5.13308e-07
1.09804e-05
4.65013e-07
1.08506e-05
4.89205e-07
1.07842e-05
1.52187e-07
1.06211e-05
5.53731e-07
1.05573e-05
2.34187e-07
1.04819e-05
8.09889e-08
1.05549e-05
4.40486e-07
1.66363e-06
9.81454e-06
1.34778e-05
6.51099e-06
1.37535e-05
6.22818e-06
1.39976e-05
3.14495e-06
1.41423e-05
2.37842e-06
1.40734e-05
2.17457e-06
1.39113e-05
1.83805e-06
1.36857e-05
1.64672e-06
1.3474e-05
1.31227e-06
1.32769e-05
1.10957e-06
1.30742e-05
9.646e-07
1.29139e-05
7.69117e-07
1.27761e-05
6.51099e-07
1.26135e-05
6.27621e-07
1.24965e-05
6.06275e-07
1.24362e-05
2.12498e-07
1.22619e-05
7.2795e-07
1.22131e-05
2.82988e-07
1.20829e-05
2.1122e-07
1.21573e-05
3.66046e-07
1.99373e-06
1.18272e-05
1.3357e-05
5.65402e-06
1.36975e-05
5.88765e-06
1.3933e-05
2.90944e-06
1.42179e-05
2.09355e-06
1.43696e-05
2.02285e-06
1.44203e-05
1.78731e-06
1.43929e-05
1.67421e-06
1.43322e-05
1.37293e-06
1.4275e-05
1.16675e-06
1.41622e-05
1.0774e-06
1.40726e-05
8.58754e-07
1.39998e-05
7.23906e-07
1.38624e-05
7.65032e-07
1.378e-05
6.88626e-07
1.37553e-05
2.37191e-07
1.35812e-05
9.02032e-07
1.35629e-05
3.01315e-07
1.34376e-05
3.36554e-07
1.34141e-05
3.89557e-07
2.00466e-06
1.34031e-05
1.32595e-05
4.89453e-06
1.36988e-05
5.44834e-06
1.38176e-05
2.7906e-06
1.40957e-05
1.81544e-06
1.43077e-05
1.81089e-06
1.44413e-05
1.65374e-06
1.45325e-05
1.58297e-06
1.45733e-05
1.33211e-06
1.46558e-05
1.0843e-06
1.4653e-05
1.0802e-06
1.46621e-05
8.49671e-07
1.46965e-05
6.89506e-07
1.4624e-05
8.3751e-07
1.4603e-05
7.09611e-07
1.46515e-05
1.88733e-07
1.45058e-05
1.04766e-06
1.45219e-05
2.852e-07
1.44805e-05
3.77956e-07
1.43905e-05
4.79621e-07
1.69729e-06
1.46979e-05
1.31757e-05
4.21888e-06
1.3644e-05
4.98001e-06
1.37416e-05
2.69302e-06
1.39899e-05
1.56712e-06
1.42038e-05
1.59699e-06
1.43407e-05
1.5168e-06
1.44672e-05
1.45644e-06
1.45231e-05
1.27627e-06
1.46671e-05
9.40283e-07
1.47141e-05
1.03325e-06
1.47839e-05
7.7988e-07
1.48989e-05
5.74477e-07
1.48848e-05
8.51608e-07
1.49315e-05
6.62931e-07
1.50518e-05
6.83572e-08
1.49704e-05
1.12911e-06
1.50226e-05
2.3299e-07
1.51126e-05
2.87958e-07
1.50475e-05
5.44699e-07
1.31241e-06
1.54324e-05
1.31041e-05
3.61475e-06
1.35771e-05
4.50703e-06
1.36868e-05
2.58335e-06
1.3912e-05
1.34194e-06
1.41202e-05
1.38875e-06
1.42597e-05
1.37729e-06
1.43862e-05
1.32995e-06
1.44429e-05
1.21959e-06
1.45965e-05
7.86657e-07
1.46353e-05
9.94426e-07
1.47454e-05
6.69847e-07
1.48578e-05
4.62075e-07
1.48623e-05
8.47039e-07
1.49691e-05
5.56165e-07
1.50724e-05
-3.49254e-08
1.50613e-05
1.14025e-06
1.5155e-05
1.3924e-07
1.5327e-05
1.15918e-07
1.53416e-05
5.30185e-07
1.01708e-06
1.56369e-05
1.30401e-05
3.07461e-06
1.35117e-05
4.03545e-06
1.36402e-05
2.45489e-06
1.38486e-05
1.13349e-06
1.40431e-05
1.19427e-06
1.41999e-05
1.22053e-06
1.43077e-05
1.22206e-06
1.44014e-05
1.12592e-06
1.4522e-05
6.66112e-07
1.4561e-05
9.55436e-07
1.47128e-05
5.18048e-07
1.47452e-05
4.29675e-07
1.48074e-05
7.84778e-07
1.49386e-05
4.24966e-07
1.49476e-05
-4.38853e-08
1.50365e-05
1.0513e-06
1.5137e-05
3.87314e-08
1.5298e-05
-4.50631e-08
1.54084e-05
4.1977e-07
7.68145e-07
1.56574e-05
1.2981e-05
2.59362e-06
1.34507e-05
3.56574e-06
1.36051e-05
2.30046e-06
1.37895e-05
9.4914e-07
1.39767e-05
1.00705e-06
1.41357e-05
1.06156e-06
1.42387e-05
1.11901e-06
1.43724e-05
9.92278e-07
1.44372e-05
6.01283e-07
1.45306e-05
8.6207e-07
1.46561e-05
3.92538e-07
1.46397e-05
4.46005e-07
1.47909e-05
6.33589e-07
1.48705e-05
3.45394e-07
1.48328e-05
-6.15097e-09
1.5022e-05
8.62095e-07
1.50969e-05
-3.62307e-08
1.51866e-05
-1.34782e-07
1.53819e-05
2.24533e-07
4.01391e-07
1.57486e-05
1.29282e-05
2.16546e-06
1.33945e-05
3.09938e-06
1.35974e-05
2.09761e-06
1.37398e-05
8.06688e-07
1.39247e-05
8.22184e-07
1.40604e-05
9.2584e-07
1.41929e-05
9.86561e-07
1.43233e-05
8.61867e-07
1.43718e-05
5.52712e-07
1.45163e-05
7.17591e-07
1.45576e-05
3.51285e-07
1.46003e-05
4.03239e-07
1.47638e-05
4.70134e-07
1.47746e-05
3.34629e-07
1.47903e-05
-2.1862e-08
1.50033e-05
6.49101e-07
1.50414e-05
-7.43299e-08
1.50875e-05
-1.809e-07
1.53451e-05
-3.31139e-08
-1.03946e-07
1.58505e-05
1.28818e-05
1.78365e-06
1.3346e-05
2.6352e-06
1.36082e-05
1.83535e-06
1.37078e-05
7.0717e-07
1.38751e-05
6.54798e-07
1.39962e-05
8.04751e-07
1.41612e-05
8.2158e-07
1.42578e-05
7.65288e-07
1.43462e-05
4.64308e-07
1.44746e-05
5.89167e-07
1.44751e-05
3.50856e-07
1.46064e-05
2.71885e-07
1.46924e-05
3.84179e-07
1.47072e-05
3.19744e-07
1.47939e-05
-1.08527e-07
1.49546e-05
4.88396e-07
1.49763e-05
-9.60122e-08
1.50604e-05
-2.65021e-07
1.5313e-05
-2.85723e-07
-5.7085e-07
1.57799e-05
1.28432e-05
1.44049e-06
1.33047e-05
2.17366e-06
1.35834e-05
1.55663e-06
1.36902e-05
6.0036e-07
1.38253e-05
5.19719e-07
1.39604e-05
6.69699e-07
1.41198e-05
6.62176e-07
1.42111e-05
6.73943e-07
1.43375e-05
3.37906e-07
1.4404e-05
5.22641e-07
1.4451e-05
3.03909e-07
1.45951e-05
1.27749e-07
1.4608e-05
3.71276e-07
1.46904e-05
2.37367e-07
1.47883e-05
-2.06416e-07
1.4888e-05
3.88663e-07
1.49204e-05
-1.28383e-07
1.5076e-05
-4.20637e-07
1.52926e-05
-5.02321e-07
-8.83237e-07
1.5605e-05
1.28136e-05
1.12694e-06
1.32686e-05
1.71859e-06
1.35608e-05
1.26446e-06
1.36741e-05
4.87104e-07
1.37877e-05
4.06111e-07
1.39391e-05
5.18243e-07
1.40677e-05
5.33637e-07
1.41991e-05
5.42531e-07
1.43033e-05
2.33723e-07
1.43494e-05
4.76503e-07
1.44634e-05
1.89862e-07
1.45359e-05
5.5292e-08
1.45565e-05
3.50628e-07
1.46973e-05
9.65757e-08
1.47478e-05
-2.56839e-07
1.4817e-05
3.19467e-07
1.49165e-05
-2.27907e-07
1.50763e-05
-5.80489e-07
1.52314e-05
-6.57355e-07
-1.10465e-06
1.54528e-05
1.2791e-05
8.3595e-07
1.32389e-05
1.27068e-06
1.35433e-05
9.60066e-07
1.36565e-05
3.73917e-07
1.37712e-05
2.91344e-07
1.39077e-05
3.81805e-07
1.40344e-05
4.069e-07
1.41978e-05
3.7911e-07
1.42449e-05
1.86698e-07
1.4345e-05
3.76338e-07
1.44531e-05
8.1817e-08
1.4465e-05
4.3329e-08
1.4557e-05
2.58632e-07
1.46854e-05
-3.18382e-08
1.4684e-05
-2.55383e-07
1.47875e-05
2.15992e-07
1.49318e-05
-3.72219e-07
1.50351e-05
-6.83837e-07
1.51654e-05
-7.87647e-07
-1.26346e-06
1.53242e-05
1.27731e-05
5.6283e-07
1.32184e-05
8.2544e-07
1.35259e-05
6.52507e-07
1.36477e-05
2.52165e-07
1.37619e-05
1.77088e-07
1.38715e-05
2.72234e-07
1.40337e-05
2.44692e-07
1.41708e-05
2.42038e-07
1.421e-05
1.47464e-07
1.43671e-05
2.19268e-07
1.44023e-05
4.65626e-08
1.44397e-05
6.0104e-09
1.45756e-05
1.22663e-07
1.46387e-05
-9.49371e-08
1.46471e-05
-2.63798e-07
1.4805e-05
5.81002e-08
1.49101e-05
-4.77301e-07
1.49878e-05
-7.61477e-07
1.51431e-05
-9.42989e-07
-1.35817e-06
1.52378e-05
1.27611e-05
3.01716e-07
1.32048e-05
3.81705e-07
1.35105e-05
3.46845e-07
1.36524e-05
1.10319e-07
1.37428e-05
8.66307e-08
1.38583e-05
1.56775e-07
1.40365e-05
6.651e-08
1.41292e-05
1.49256e-07
1.42231e-05
5.35856e-08
1.43606e-05
8.17883e-08
1.43561e-05
5.10409e-08
1.44634e-05
-1.01294e-07
1.45652e-05
2.09269e-08
1.45915e-05
-1.21255e-07
1.46614e-05
-3.33687e-07
1.48091e-05
-8.96257e-08
1.48712e-05
-5.39431e-07
1.49758e-05
-8.66024e-07
1.51295e-05
-1.09669e-06
-1.47199e-06
1.52433e-05
1.27565e-05
4.52393e-08
1.31952e-05
-5.7002e-08
1.35059e-05
3.61363e-08
1.3656e-05
-3.98281e-08
1.37242e-05
1.84721e-08
1.38718e-05
9.13947e-09
1.4016e-05
-7.76966e-08
1.41156e-05
4.97411e-08
1.42474e-05
-7.82919e-08
1.43218e-05
7.43832e-09
1.43579e-05
1.49143e-08
1.44841e-05
-2.27492e-07
1.45273e-05
-2.22534e-08
1.45844e-05
-1.78368e-07
1.4685e-05
-4.34295e-07
1.47812e-05
-1.8583e-07
1.48595e-05
-6.17719e-07
1.49819e-05
-9.88442e-07
1.51033e-05
-1.21811e-06
-1.64031e-06
1.52717e-05
1.27568e-05
-2.11523e-07
1.31926e-05
-4.92832e-07
1.35124e-05
-2.83651e-07
1.36483e-05
-1.75757e-07
1.37277e-05
-6.09662e-08
1.38818e-05
-1.44875e-07
1.39925e-05
-1.88408e-07
1.41388e-05
-9.66342e-08
1.42423e-05
-1.81714e-07
1.42991e-05
-4.94213e-08
1.43894e-05
-7.53249e-08
1.44726e-05
-3.10761e-07
1.45055e-05
-5.50793e-08
1.46096e-05
-2.8246e-07
1.46792e-05
-5.03976e-07
1.47646e-05
-2.71238e-07
1.48662e-05
-7.19258e-07
1.49792e-05
-1.10143e-06
1.50911e-05
-1.33001e-06
-1.76842e-06
1.52192e-05
1.2761e-05
-4.72555e-07
1.3203e-05
-9.34824e-07
1.35187e-05
-5.99356e-07
1.36416e-05
-2.98664e-07
1.37473e-05
-1.66648e-07
1.38747e-05
-2.72281e-07
1.40005e-05
-3.14151e-07
1.41623e-05
-2.58468e-07
1.42213e-05
-2.40721e-07
1.43186e-05
-1.46753e-07
1.44077e-05
-1.64377e-07
1.44539e-05
-3.56939e-07
1.45213e-05
-1.22524e-07
1.4627e-05
-3.88121e-07
1.46672e-05
-5.44172e-07
1.47716e-05
-3.7571e-07
1.48724e-05
-8.1998e-07
1.49811e-05
-1.21012e-06
1.50904e-05
-1.43935e-06
-1.81271e-06
1.51347e-05
1.27736e-05
-7.46162e-07
1.32225e-05
-1.38368e-06
1.35223e-05
-8.99231e-07
1.36506e-05
-4.26943e-07
1.37596e-05
-2.75667e-07
1.38758e-05
-3.88441e-07
1.40331e-05
-4.71442e-07
1.41633e-05
-3.88649e-07
1.42244e-05
-3.01811e-07
1.43527e-05
-2.75123e-07
1.44056e-05
-2.17219e-07
1.44603e-05
-4.11699e-07
1.45527e-05
-2.14891e-07
1.46288e-05
-4.64209e-07
1.46738e-05
-5.89164e-07
1.47855e-05
-4.87467e-07
1.48861e-05
-9.20579e-07
1.49864e-05
-1.31042e-06
1.50924e-05
-1.54533e-06
-2.01819e-06
1.52979e-05
1.27953e-05
-1.04151e-06
1.32422e-05
-1.83058e-06
1.35356e-05
-1.19257e-06
1.36661e-05
-5.57423e-07
1.37654e-05
-3.75025e-07
1.39047e-05
-5.27674e-07
1.40584e-05
-6.25152e-07
1.41635e-05
-4.93747e-07
1.42562e-05
-3.94511e-07
1.43712e-05
-3.90188e-07
1.44093e-05
-2.55291e-07
1.44924e-05
-4.94824e-07
1.45738e-05
-2.96218e-07
1.4637e-05
-5.27442e-07
1.4692e-05
-6.44187e-07
1.48085e-05
-6.03989e-07
1.49012e-05
-1.01324e-06
1.49884e-05
-1.39762e-06
1.51217e-05
-1.67859e-06
-2.23808e-06
1.53415e-05
1.282e-05
-1.36148e-06
1.32657e-05
-2.27632e-06
1.35626e-05
-1.48948e-06
1.36752e-05
-6.69979e-07
1.37868e-05
-4.86607e-07
1.39447e-05
-6.8559e-07
1.40713e-05
-7.51799e-07
1.41885e-05
-6.10948e-07
1.42908e-05
-4.96829e-07
1.43809e-05
-4.80288e-07
1.44363e-05
-3.1065e-07
1.45282e-05
-5.8673e-07
1.45893e-05
-3.57335e-07
1.46597e-05
-5.97778e-07
1.47205e-05
-7.05009e-07
1.48372e-05
-7.20699e-07
1.49069e-05
-1.08291e-06
1.50102e-05
-1.50101e-06
1.5168e-05
-1.83638e-06
-2.3925e-06
1.53224e-05
1.28467e-05
-1.70816e-06
1.33034e-05
-2.73299e-06
1.35903e-05
-1.77646e-06
1.36856e-05
-7.65226e-07
1.38277e-05
-6.28695e-07
1.39768e-05
-8.34712e-07
1.40959e-05
-8.70887e-07
1.42311e-05
-7.4616e-07
1.4315e-05
-5.80696e-07
1.44042e-05
-5.69526e-07
1.448e-05
-3.86488e-07
1.45563e-05
-6.6301e-07
1.46138e-05
-4.14787e-07
1.46974e-05
-6.81407e-07
1.47557e-05
-7.63318e-07
1.48601e-05
-8.25081e-07
1.49245e-05
-1.14728e-06
1.50556e-05
-1.63215e-06
1.51901e-05
-1.97089e-06
-2.50774e-06
1.53054e-05
1.28835e-05
-2.09161e-06
1.33521e-05
-3.20161e-06
1.36089e-05
-2.03329e-06
1.371e-05
-8.66312e-07
1.38735e-05
-7.92171e-07
1.40097e-05
-9.70945e-07
1.41431e-05
-1.00426e-06
1.42696e-05
-8.72656e-07
1.43418e-05
-6.52967e-07
1.44481e-05
-6.75736e-07
1.45253e-05
-4.63689e-07
1.45841e-05
-7.21844e-07
1.4655e-05
-4.85653e-07
1.47445e-05
-7.70905e-07
1.47878e-05
-8.06626e-07
1.48928e-05
-9.30112e-07
1.49602e-05
-1.21473e-06
1.50928e-05
-1.76474e-06
1.52011e-05
-2.07918e-06
-2.65995e-06
1.53533e-05
1.29323e-05
-2.52394e-06
1.34008e-05
-3.67009e-06
1.35972e-05
-2.22968e-06
1.37472e-05
-1.01626e-06
1.39202e-05
-9.65219e-07
1.40612e-05
-1.11194e-06
1.42006e-05
-1.14363e-06
1.43017e-05
-9.738e-07
1.43869e-05
-7.38192e-07
1.44993e-05
-7.88145e-07
1.45684e-05
-5.32741e-07
1.46261e-05
-7.79531e-07
1.47088e-05
-5.68383e-07
1.47885e-05
-8.50558e-07
1.48293e-05
-8.47433e-07
1.49406e-05
-1.0414e-06
1.49956e-05
-1.26976e-06
1.51267e-05
-1.89586e-06
1.52375e-05
-2.18993e-06
-2.89259e-06
1.54701e-05
1.29878e-05
-3.01173e-06
1.34508e-05
-4.13306e-06
1.36051e-05
-2.38403e-06
1.37907e-05
-1.20186e-06
1.39778e-05
-1.15234e-06
1.41268e-05
-1.26096e-06
1.42545e-05
-1.2713e-06
1.4342e-05
-1.06124e-06
1.44442e-05
-8.40463e-07
1.45438e-05
-8.87677e-07
1.46199e-05
-6.08894e-07
1.46818e-05
-8.4146e-07
1.47653e-05
-6.51827e-07
1.48335e-05
-9.18747e-07
1.48879e-05
-9.01854e-07
1.49855e-05
-1.13898e-06
1.50372e-05
-1.32152e-06
1.51694e-05
-2.02806e-06
1.52877e-05
-2.30822e-06
-3.17864e-06
1.55738e-05
1.30481e-05
-3.55988e-06
1.35092e-05
-4.59412e-06
1.3644e-05
-2.51885e-06
1.38434e-05
-1.40121e-06
1.40493e-05
-1.35829e-06
1.41904e-05
-1.40206e-06
1.43091e-05
-1.38998e-06
1.43952e-05
-1.14733e-06
1.45015e-05
-9.46785e-07
1.45892e-05
-9.7537e-07
1.46846e-05
-7.04248e-07
1.47418e-05
-8.98672e-07
1.48288e-05
-7.38875e-07
1.48891e-05
-9.78996e-07
1.49524e-05
-9.65164e-07
1.50281e-05
-1.21465e-06
1.50888e-05
-1.3823e-06
1.51996e-05
-2.13879e-06
1.5302e-05
-2.41069e-06
-3.44879e-06
1.55722e-05
1.31144e-05
-4.17424e-06
1.35742e-05
-5.05391e-06
1.36912e-05
-2.63594e-06
1.39093e-05
-1.61928e-06
1.41237e-05
-1.57269e-06
1.42559e-05
-1.53423e-06
1.43727e-05
-1.50678e-06
1.44581e-05
-1.23276e-06
1.45675e-05
-1.05617e-06
1.46515e-05
-1.05934e-06
1.47561e-05
-8.08862e-07
1.48063e-05
-9.48855e-07
1.48972e-05
-8.29837e-07
1.49443e-05
-1.02609e-06
1.50027e-05
-1.02351e-06
1.50504e-05
-1.26239e-06
1.50934e-05
-1.4253e-06
1.51366e-05
-2.18193e-06
1.51631e-05
-2.43725e-06
-3.5792e-06
1.52935e-05
1.31866e-05
-4.8608e-06
1.36382e-05
-5.50552e-06
1.37495e-05
-2.74726e-06
1.3987e-05
-1.85682e-06
1.42053e-05
-1.79099e-06
1.43416e-05
-1.67053e-06
1.44519e-05
-1.61711e-06
1.45396e-05
-1.32045e-06
1.46456e-05
-1.16213e-06
1.47161e-05
-1.12987e-06
1.48044e-05
-8.97169e-07
1.48354e-05
-9.79789e-07
1.48976e-05
-8.92061e-07
1.49076e-05
-1.03607e-06
1.49221e-05
-1.03806e-06
1.49063e-05
-1.24661e-06
1.48777e-05
-1.39668e-06
1.47955e-05
-2.09974e-06
1.46858e-05
-2.3275e-06
-3.50204e-06
1.46086e-05
1.32682e-05
-5.62904e-06
1.36902e-05
-5.92751e-06
1.38271e-05
-2.88408e-06
1.40907e-05
-2.12044e-06
1.43118e-05
-2.01207e-06
1.44416e-05
-1.8004e-06
1.45216e-05
-1.6971e-06
1.45841e-05
-1.38294e-06
1.46382e-05
-1.21625e-06
1.46474e-05
-1.139e-06
1.46646e-05
-9.14437e-07
1.46297e-05
-9.44837e-07
1.46085e-05
-8.7092e-07
1.45398e-05
-9.67291e-07
1.44695e-05
-9.67821e-07
1.43647e-05
-1.14176e-06
1.42409e-05
-1.27289e-06
1.4031e-05
-1.88988e-06
1.37993e-05
-2.09577e-06
-3.19648e-06
1.34937e-05
1.33634e-05
-6.49239e-06
1.36866e-05
-6.25073e-06
1.39403e-05
-3.13781e-06
1.42129e-05
-2.39302e-06
1.43741e-05
-2.17325e-06
1.44196e-05
-1.84593e-06
1.43857e-05
-1.66323e-06
1.43341e-05
-1.33128e-06
1.42581e-05
-1.14025e-06
1.41485e-05
-1.0294e-06
1.40544e-05
-8.20382e-07
1.39293e-05
-8.19668e-07
1.3816e-05
-7.57671e-07
1.36736e-05
-8.24873e-07
1.35322e-05
-8.26421e-07
1.33614e-05
-9.71007e-07
1.31691e-05
-1.08056e-06
1.28798e-05
-1.60057e-06
1.25622e-05
-1.77819e-06
-2.77909e-06
1.21448e-05
1.34826e-05
-7.47495e-06
1.37499e-05
-6.51808e-06
1.4002e-05
-3.38992e-06
1.41389e-05
-2.52988e-06
1.40749e-05
-2.10925e-06
1.39083e-05
-1.67932e-06
1.36795e-05
-1.4345e-06
1.34687e-05
-1.12044e-06
1.32595e-05
-9.31054e-07
1.30528e-05
-8.22728e-07
1.28817e-05
-6.49232e-07
1.27028e-05
-6.4077e-07
1.25398e-05
-5.94722e-07
1.23607e-05
-6.45774e-07
1.21846e-05
-6.5024e-07
1.19797e-05
-7.66102e-07
1.17529e-05
-8.53817e-07
1.14212e-05
-1.26886e-06
1.10527e-05
-1.40967e-06
-2.02306e-06
1.02967e-05
1.35902e-05
-8.56512e-06
1.36587e-05
-6.58663e-06
1.36262e-05
-3.35745e-06
1.3397e-05
-2.30061e-06
1.30136e-05
-1.72592e-06
1.26298e-05
-1.2955e-06
1.22595e-05
-1.06416e-06
1.19567e-05
-8.17698e-07
1.16879e-05
-6.6219e-07
1.14478e-05
-5.8268e-07
1.12527e-05
-4.54153e-07
1.10619e-05
-4.49885e-07
1.08863e-05
-4.19154e-07
1.07002e-05
-4.59705e-07
1.05157e-05
-4.65728e-07
1.03018e-05
-5.52175e-07
1.00651e-05
-6.17098e-07
9.72115e-06
-9.24948e-07
9.34334e-06
-1.03186e-06
-1.40714e-06
8.72741e-06
1.34114e-05
-9.47652e-06
1.28886e-05
-6.06383e-06
1.23274e-05
-2.79627e-06
1.17127e-05
-1.68589e-06
1.11304e-05
-1.14367e-06
1.06605e-05
-8.25587e-07
1.02613e-05
-6.64974e-07
9.95065e-06
-5.07006e-07
9.6877e-06
-3.99245e-07
9.46113e-06
-3.56111e-07
9.2788e-06
-2.71824e-07
9.10372e-06
-2.74801e-07
8.94072e-06
-2.56159e-07
8.76851e-06
-2.8749e-07
8.59512e-06
-2.92332e-07
8.39317e-06
-3.50229e-07
8.16673e-06
-3.90662e-07
7.84047e-06
-5.98688e-07
7.47402e-06
-6.65403e-07
-8.91388e-07
6.95827e-06
1.24247e-05
-9.40127e-06
1.10043e-05
-4.64341e-06
9.98085e-06
-1.77279e-06
9.19924e-06
-9.04281e-07
8.61657e-06
-5.60992e-07
8.19031e-06
-3.99325e-07
7.84688e-06
-3.21546e-07
7.58519e-06
-2.45316e-07
7.37077e-06
-1.84832e-07
7.18683e-06
-1.72166e-07
7.0411e-06
-1.26098e-07
6.89973e-06
-1.33425e-07
6.76689e-06
-1.23324e-07
6.62366e-06
-1.44254e-07
6.47752e-06
-1.46191e-07
6.30536e-06
-1.78075e-07
6.1103e-06
-1.95596e-07
5.82597e-06
-3.14365e-07
5.50123e-06
-3.40662e-07
-4.60154e-07
5.07e-06
1.01107e-05
-7.01195e-06
7.83039e-06
-2.36312e-06
6.71004e-06
-6.52442e-07
6.06097e-06
-2.55208e-07
5.6437e-06
-1.43718e-07
5.34929e-06
-1.04921e-07
5.11436e-06
-8.66144e-08
4.93597e-06
-6.69288e-08
4.79671e-06
-4.55709e-08
4.67234e-06
-4.77985e-08
4.57826e-06
-3.20159e-08
4.48208e-06
-3.72433e-08
4.39239e-06
-3.36308e-08
4.29052e-06
-4.2381e-08
4.18695e-06
-4.26227e-08
4.06192e-06
-5.30488e-08
3.92171e-06
-5.53869e-08
3.70638e-06
-9.90296e-08
3.46654e-06
-1.00822e-07
-1.45274e-07
3.15165e-06
5.48805e-06
3.12493e-06
2.47249e-06
2.21728e-06
2.07356e-06
1.96864e-06
1.88203e-06
1.8151e-06
1.76953e-06
1.72173e-06
1.68972e-06
1.65247e-06
1.61884e-06
1.57646e-06
1.53384e-06
1.48079e-06
1.4254e-06
1.32637e-06
1.22555e-06
1.08028e-06
1.88484e-06
4.51009e-08
-2.86061e-07
3.07212e-06
1.82051e-06
-3.00778e-06
4.63043e-06
3.29112e-06
-4.84944e-06
6.1671e-06
5.52507e-06
-7.06174e-06
7.41861e-06
5.17704e-06
-6.42855e-06
8.71532e-06
3.90124e-06
-5.19795e-06
9.6313e-06
3.25702e-06
-4.173e-06
1.00675e-05
1.12678e-06
-1.56299e-06
1.07327e-05
-7.40369e-07
7.51442e-08
1.09986e-05
-2.17002e-06
1.90415e-06
1.0828e-05
-4.28121e-06
4.45183e-06
1.06588e-05
-5.23871e-06
5.40791e-06
1.04777e-05
-6.3469e-06
6.52798e-06
1.09922e-05
-6.60186e-06
6.0874e-06
1.20252e-05
-7.41561e-06
6.38257e-06
1.28582e-05
-1.08409e-05
1.00079e-05
1.34502e-05
-1.25097e-05
1.19177e-05
1.34502e-05
-1.43555e-05
1.43555e-05
1.29301e-05
-1.73627e-05
1.78828e-05
1.20784e-05
-1.76343e-05
1.8486e-05
1.06937e-05
-1.66262e-05
1.80109e-05
9.65298e-06
-1.50449e-05
1.60856e-05
8.88751e-06
-1.22014e-05
1.29668e-05
8.21411e-06
-1.17535e-05
1.24269e-05
7.97501e-06
-1.1149e-05
1.13881e-05
7.2313e-06
-8.19111e-06
8.93482e-06
6.56914e-06
-5.51448e-06
6.17664e-06
6.71004e-06
-3.52251e-06
3.38161e-06
6.4436e-06
-3.29952e-07
5.9639e-07
5.70874e-06
6.31171e-07
1.03688e-07
6.11279e-06
2.15893e-06
-2.56297e-06
7.81822e-06
8.48289e-06
-1.01883e-05
9.34016e-06
1.261e-05
-1.41319e-05
9.85229e-06
1.36009e-05
-1.41131e-05
9.98888e-06
1.24061e-05
-1.25427e-05
1.00196e-05
1.0493e-05
-1.05237e-05
9.52983e-06
1.06062e-05
-1.01164e-05
9.30851e-06
8.77266e-06
-8.55135e-06
9.67189e-06
7.16715e-06
-7.53053e-06
9.87872e-06
8.45551e-06
-8.66234e-06
1.01203e-05
7.29959e-06
-7.5412e-06
1.05193e-05
5.46164e-06
-5.86066e-06
1.10854e-05
4.55097e-06
-5.11699e-06
1.17561e-05
3.3554e-06
-4.02617e-06
1.21512e-05
1.24161e-06
-1.63671e-06
1.2391e-05
-1.75612e-06
1.51639e-06
1.28191e-05
-4.08399e-06
3.65588e-06
1.31901e-05
-6.53093e-06
6.15985e-06
1.33171e-05
-8.70742e-06
8.58046e-06
1.34753e-05
-1.07182e-05
1.056e-05
1.32698e-05
-1.27363e-05
1.29418e-05
1.25948e-05
-1.29946e-05
1.36696e-05
1.23278e-05
-1.34948e-05
1.37618e-05
1.26818e-05
-1.62583e-05
1.59043e-05
1.31404e-05
-1.93365e-05
1.88778e-05
1.3347e-05
-2.17561e-05
2.15496e-05
1.31418e-05
-2.31549e-05
2.33601e-05
1.28129e-05
-2.32856e-05
2.36145e-05
1.28351e-05
-2.40306e-05
2.40083e-05
1.30234e-05
-2.609e-05
2.59017e-05
1.27458e-05
-2.70586e-05
2.73362e-05
1.17639e-05
-2.55718e-05
2.65536e-05
1.04985e-05
-2.27541e-05
2.40195e-05
9.57635e-06
-2.04097e-05
2.13318e-05
9.24402e-06
-1.96802e-05
2.00126e-05
9.38676e-06
-2.03307e-05
2.0188e-05
9.79137e-06
-2.13481e-05
2.09435e-05
1.02588e-05
-2.19214e-05
2.1454e-05
1.06938e-05
-2.15351e-05
2.11e-05
1.10676e-05
-2.01309e-05
1.97571e-05
1.14012e-05
-1.7976e-05
1.76424e-05
1.1715e-05
-1.51904e-05
1.48766e-05
1.19554e-05
-1.19943e-05
1.17539e-05
1.21008e-05
-8.26276e-06
8.11734e-06
1.21976e-05
-4.17261e-06
4.07584e-06
1.22235e-05
-2.82107e-07
2.56176e-07
1.21347e-05
3.6055e-06
-3.51665e-06
1.19717e-05
7.45247e-06
-7.28948e-06
1.17633e-05
1.06628e-05
-1.04545e-05
1.15125e-05
1.32803e-05
-1.30295e-05
1.11855e-05
1.57374e-05
-1.54104e-05
1.07366e-05
1.74975e-05
-1.70487e-05
1.01799e-05
1.79655e-05
-1.74088e-05
9.61135e-06
1.7506e-05
-1.69374e-05
9.10796e-06
1.67871e-05
-1.62837e-05
8.69647e-06
1.59342e-05
-1.55227e-05
8.34638e-06
1.49919e-05
-1.46418e-05
8.05775e-06
1.3901e-05
-1.36124e-05
7.77619e-06
1.28202e-05
-1.25387e-05
7.57729e-06
1.15166e-05
-1.13177e-05
7.37246e-06
1.03555e-05
-1.01506e-05
7.24614e-06
9.10586e-06
-8.97955e-06
7.09075e-06
8.29422e-06
-8.13882e-06
7.00637e-06
7.47499e-06
-7.39061e-06
6.88969e-06
6.91808e-06
-6.8014e-06
6.82776e-06
6.23543e-06
-6.1735e-06
6.74043e-06
5.63825e-06
-5.55092e-06
6.68677e-06
5.03731e-06
-4.98365e-06
6.6119e-06
4.58459e-06
-4.50971e-06
6.57063e-06
4.18978e-06
-4.14852e-06
6.49295e-06
4.01127e-06
-3.93359e-06
6.4709e-06
3.6971e-06
-3.67505e-06
6.42525e-06
3.55394e-06
-3.50828e-06
6.43886e-06
3.20315e-06
-3.21676e-06
6.47059e-06
2.87644e-06
-2.90816e-06
6.51597e-06
2.58054e-06
-2.62593e-06
6.59402e-06
2.20318e-06
-2.28123e-06
6.64691e-06
1.99893e-06
-2.05182e-06
6.70526e-06
1.78929e-06
-1.84764e-06
6.74535e-06
1.61401e-06
-1.65409e-06
6.75851e-06
1.54372e-06
-1.55688e-06
6.77093e-06
1.40238e-06
-1.4148e-06
6.75729e-06
1.31157e-06
-1.29793e-06
6.74169e-06
1.22285e-06
-1.20725e-06
6.72298e-06
1.08359e-06
-1.06488e-06
6.69989e-06
9.89673e-07
-9.66587e-07
6.68093e-06
8.83459e-07
-8.64494e-07
6.66771e-06
7.59823e-07
-7.46607e-07
6.65113e-06
6.88681e-07
-6.72099e-07
6.64575e-06
5.97156e-07
-5.91777e-07
6.63698e-06
5.18324e-07
-5.09557e-07
6.63527e-06
4.69836e-07
-4.68124e-07
6.62926e-06
4.19508e-07
-4.13499e-07
6.63258e-06
3.62544e-07
-3.65868e-07
6.62456e-06
3.59e-07
-3.50975e-07
6.62738e-06
3.10001e-07
-3.1282e-07
6.6225e-06
2.94537e-07
-2.89662e-07
6.62372e-06
2.82428e-07
-2.83652e-07
6.61705e-06
2.60344e-07
-2.53674e-07
6.62464e-06
2.4234e-07
-2.49922e-07
6.61282e-06
2.4721e-07
-2.35397e-07
6.62113e-06
2.26076e-07
-2.34381e-07
6.61221e-06
2.22273e-07
-2.13351e-07
6.62058e-06
2.1938e-07
-2.27756e-07
6.6078e-06
2.20281e-07
-2.075e-07
6.62257e-06
2.07168e-07
-2.21938e-07
6.60781e-06
2.18874e-07
-2.04113e-07
6.61918e-06
2.22292e-07
-2.33658e-07
6.60829e-06
2.19055e-07
-2.08164e-07
6.6231e-06
2.20087e-07
-2.34904e-07
6.6041e-06
2.48532e-07
-2.29531e-07
6.62562e-06
2.41181e-07
-2.62698e-07
6.60812e-06
2.35435e-07
-2.17933e-07
6.62134e-06
2.99481e-07
-3.12705e-07
6.61611e-06
2.68868e-07
-2.63638e-07
6.62277e-06
2.62076e-07
-2.6873e-07
6.60845e-06
4.0301e-07
-3.88694e-07
6.64563e-06
2.37519e-07
-2.74694e-07
6.58994e-06
4.1801e-07
-3.62328e-07
6.65425e-06
4.13961e-07
-4.78264e-07
6.61313e-06
3.08047e-07
-2.66927e-07
6.63881e-06
5.56968e-07
-5.82649e-07
6.6246e-06
4.35341e-07
-4.2113e-07
6.66401e-06
4.52174e-07
-4.91585e-07
6.61056e-06
6.48298e-07
-5.94847e-07
6.67464e-06
5.32195e-07
-5.96275e-07
6.63232e-06
6.3949e-07
-5.97178e-07
6.68006e-06
6.85164e-07
-7.32896e-07
6.63372e-06
7.75225e-07
-7.28893e-07
6.70485e-06
7.47349e-07
-8.18478e-07
6.65435e-06
8.80758e-07
-8.30256e-07
6.71122e-06
9.10674e-07
-9.67539e-07
6.66886e-06
1.02788e-06
-9.85524e-07
6.73908e-06
1.03599e-06
-1.10621e-06
6.70183e-06
1.17258e-06
-1.13533e-06
6.74733e-06
1.21393e-06
-1.25943e-06
6.73213e-06
1.39295e-06
-1.37774e-06
6.77757e-06
1.4013e-06
-1.44674e-06
6.78919e-06
1.54065e-06
-1.55227e-06
6.78179e-06
1.6631e-06
-1.65571e-06
6.84949e-06
1.82145e-06
-1.88915e-06
6.83152e-06
1.92427e-06
-1.9063e-06
6.92007e-06
2.01683e-06
-2.10538e-06
6.83865e-06
2.28216e-06
-2.20074e-06
6.99637e-06
2.35963e-06
-2.51735e-06
6.91969e-06
2.64262e-06
-2.56594e-06
7.05311e-06
2.71203e-06
-2.84544e-06
6.99228e-06
3.0269e-06
-2.96607e-06
7.08936e-06
3.16431e-06
-3.26139e-06
7.09832e-06
3.51993e-06
-3.52889e-06
7.11845e-06
3.73337e-06
-3.7535e-06
7.22409e-06
3.98659e-06
-4.09222e-06
7.14564e-06
4.38638e-06
-4.30793e-06
7.34088e-06
4.55774e-06
-4.75298e-06
7.24813e-06
5.10728e-06
-5.01453e-06
7.37318e-06
5.34656e-06
-5.4716e-06
7.39259e-06
5.86613e-06
-5.88554e-06
7.34696e-06
6.30194e-06
-6.25631e-06
7.50021e-06
6.74314e-06
-6.89639e-06
7.35134e-06
7.43231e-06
-7.28344e-06
7.39198e-06
7.9164e-06
-7.95703e-06
7.32351e-06
8.65601e-06
-8.58754e-06
7.08288e-06
9.55233e-06
-9.31169e-06
7.21692e-06
1.02324e-05
-1.03664e-05
7.03098e-06
1.17583e-05
-1.15724e-05
6.83314e-06
1.29612e-05
-1.27633e-05
7.07151e-06
1.48228e-05
-1.50612e-05
6.04463e-06
1.86476e-05
-1.76207e-05
5.95605e-06
2.04143e-05
-2.03257e-05
3.18267e-05
-3.14482e-05
5.57753e-06
3.92645e-06
2.12535e-07
4.05919e-06
1.68777e-06
4.88388e-06
2.46643e-06
6.22476e-06
4.18419e-06
7.05741e-06
4.34439e-06
8.0996e-06
2.85905e-06
9.11699e-06
2.23962e-06
9.6724e-06
5.71366e-07
1.03691e-05
-1.43711e-06
1.0898e-05
-2.69883e-06
1.11794e-05
-4.56265e-06
1.15304e-05
-5.58966e-06
1.18239e-05
-6.6404e-06
1.25511e-05
-7.32909e-06
1.34965e-05
-8.36098e-06
1.39982e-05
-1.13426e-05
1.42483e-05
-1.27598e-05
1.40449e-05
-1.41521e-05
1.32719e-05
-1.65897e-05
1.22492e-05
-1.66117e-05
1.09029e-05
-1.52799e-05
9.85948e-06
-1.40014e-05
9.25129e-06
-1.15932e-05
8.56078e-06
-1.1063e-05
8.27385e-06
-1.08621e-05
7.64104e-06
-7.5583e-06
6.87604e-06
-4.74949e-06
6.96276e-06
-3.60923e-06
6.95211e-06
-3.19296e-07
6.19684e-06
1.38644e-06
6.20233e-06
2.15344e-06
7.8696e-06
6.81563e-06
9.66086e-06
1.08187e-05
1.04343e-05
1.28275e-05
1.08175e-05
1.2023e-05
1.10366e-05
1.02739e-05
1.06005e-05
1.10423e-05
1.02988e-05
9.07433e-06
1.04215e-05
7.04451e-06
1.05746e-05
8.30236e-06
1.08477e-05
7.0265e-06
1.1032e-05
5.27739e-06
1.1498e-05
4.08492e-06
1.21056e-05
2.74781e-06
1.24795e-05
8.67719e-07
1.28364e-05
-2.11299e-06
1.31846e-05
-4.43225e-06
1.34265e-05
-6.77275e-06
1.3571e-05
-8.85194e-06
1.36069e-05
-1.07542e-05
1.31595e-05
-1.22888e-05
1.25301e-05
-1.23652e-05
1.25671e-05
-1.35318e-05
1.30595e-05
-1.67507e-05
1.34267e-05
-1.97037e-05
1.34652e-05
-2.17947e-05
1.31601e-05
-2.28498e-05
1.28828e-05
-2.30083e-05
1.29565e-05
-2.41043e-05
1.29853e-05
-2.61187e-05
1.24216e-05
-2.64949e-05
1.12292e-05
-2.43794e-05
9.92896e-06
-2.14538e-05
9.10081e-06
-1.95815e-05
8.86842e-06
-1.94478e-05
9.03684e-06
-2.04991e-05
9.39869e-06
-2.17099e-05
9.80146e-06
-2.23242e-05
1.01661e-05
-2.18997e-05
1.04816e-05
-2.04464e-05
1.07739e-05
-1.82683e-05
1.10658e-05
-1.54823e-05
1.12674e-05
-1.21958e-05
1.14108e-05
-8.40619e-06
1.15171e-05
-4.27888e-06
1.15676e-05
-3.32572e-07
1.14837e-05
3.6894e-06
1.13122e-05
7.62391e-06
1.11109e-05
1.08642e-05
1.0889e-05
1.35021e-05
1.06116e-05
1.60148e-05
1.0238e-05
1.78711e-05
9.75215e-06
1.84513e-05
9.23744e-06
1.80207e-05
8.77266e-06
1.72519e-05
8.38757e-06
1.63192e-05
8.05501e-06
1.53244e-05
7.79089e-06
1.41651e-05
7.5414e-06
1.30697e-05
7.3572e-06
1.17008e-05
7.18967e-06
1.0523e-05
7.06622e-06
9.22931e-06
6.94541e-06
8.41503e-06
6.86684e-06
7.55356e-06
6.7796e-06
7.00531e-06
6.7267e-06
6.28834e-06
6.66079e-06
5.70416e-06
6.61765e-06
5.08045e-06
6.54187e-06
4.66036e-06
6.50091e-06
4.23074e-06
6.41811e-06
4.09407e-06
6.39459e-06
3.72062e-06
6.35942e-06
3.58911e-06
6.38534e-06
3.17723e-06
6.42448e-06
2.83729e-06