/*--------------------------------*- C++ -*----------------------------------*\
| =========                 |                                                 |
| \\      /  F ield         | OpenFOAM: The Open Source CFD Toolbox           |
|  \\    /   O peration     | Version:  2.4.0                                 |
|   \\  /    A nd           | Web:      www.OpenFOAM.org                      |
|    \\/     M anipulation  |                                                 |
\*---------------------------------------------------------------------------*/
FoamFile
{
    version     2.0;
    format      ascii;
    class       volSymmTensorField;
    location    "0.066";
    object      UPrime2Mean;
}
// * * * * * * * * * * * * * * * * * * * * * * * * * * * * * * * * * * * * * //

dimensions      [0 2 -2 0 0 0 0];

internalField   nonuniform List<symmTensor> 
17600
(
(0.0587503 -0.00636575 0 0.000963639 0 0)
(0.604768 -0.00249321 0 5.62316e-05 0 0)
(0.784012 -5.05774e-05 0 3.87555e-06 0 0)
(0.868529 -0.000640221 0 2.43535e-06 0 0)
(0.927722 -0.000483314 0 1.16911e-06 0 0)
(0.970017 -0.000193991 0 6.71912e-07 0 0)
(0.998446 -4.87673e-05 0 4.40828e-07 0 0)
(1.02071 1.03881e-05 0 2.63242e-07 0 0)
(1.03441 2.43429e-05 0 2.61727e-07 0 0)
(1.04807 -1.73654e-06 0 2.21525e-07 0 0)
(1.0555 -9.57397e-06 0 1.57462e-07 0 0)
(1.06888 -7.67024e-05 0 2.47969e-07 0 0)
(1.07598 -7.42716e-05 0 2.46369e-07 0 0)
(1.09408 -0.000195599 0 4.68452e-07 0 0)
(1.10511 -0.000214008 0 5.80508e-07 0 0)
(1.14003 -0.000637251 0 3.20791e-06 0 0)
(1.17119 -0.000994375 0 3.21636e-06 0 0)
(1.31057 0.00071893 0 3.18138e-05 0 0)
(1.52853 -0.0439179 0 0.00184527 0 0)
(2.77426 0.220781 0 0.027681 0 0)
(0.0286572 0.0127777 0 0.0100103 0 0)
(0.244787 -0.0234189 0 0.00236886 0 0)
(0.492463 -0.013123 0 0.00035577 0 0)
(0.657832 -0.00920452 0 0.000141405 0 0)
(0.800213 -0.00745883 0 0.000109597 0 0)
(0.934312 -0.00601548 0 9.79573e-05 0 0)
(1.04148 -0.00461313 0 7.56189e-05 0 0)
(1.1344 -0.00337636 0 4.59336e-05 0 0)
(1.19518 -0.00253202 0 2.44421e-05 0 0)
(1.25787 -0.00208636 0 1.38788e-05 0 0)
(1.28947 -0.00192267 0 7.10845e-06 0 0)
(1.34908 -0.00204936 0 6.54661e-06 0 0)
(1.37088 -0.00228626 0 1.07796e-05 0 0)
(1.44566 -0.00238377 0 9.8123e-06 0 0)
(1.46403 -0.00375445 0 2.09547e-05 0 0)
(1.59438 -0.00343795 0 2.07324e-05 0 0)
(1.58973 -0.0106832 0 0.000112624 0 0)
(2.11302 -0.0152512 0 0.000167035 0 0)
(1.85036 -0.0500091 0 0.00195578 0 0)
(5.74523 -0.679758 0 0.113305 0 0)
(0.100421 0.0380701 0 0.0157445 0 0)
(0.0401807 -0.0148223 0 0.00673184 0 0)
(0.170722 -0.0164868 0 0.00173259 0 0)
(0.292577 -0.0155722 0 0.000845662 0 0)
(0.427426 -0.015258 0 0.000638351 0 0)
(0.585181 -0.0142546 0 0.00056189 0 0)
(0.728726 -0.0121659 0 0.000454343 0 0)
(0.866838 -0.00965425 0 0.000294604 0 0)
(0.961486 -0.00761455 0 0.000172145 0 0)
(1.06555 -0.00632033 0 9.55139e-05 0 0)
(1.11516 -0.00572181 0 4.92865e-05 0 0)
(1.21764 -0.00600232 0 4.96547e-05 0 0)
(1.24544 -0.00624891 0 5.43999e-05 0 0)
(1.37318 -0.00709715 0 7.3036e-05 0 0)
(1.38724 -0.00912938 0 9.38677e-05 0 0)
(1.58816 -0.0103772 0 0.000116376 0 0)
(1.57752 -0.0242737 0 0.000443156 0 0)
(2.13552 -0.0298723 0 0.000843653 0 0)
(2.11678 -0.125793 0 0.0110666 0 0)
(4.77088 -0.847261 0 0.247526 0 0)
(0.132767 0.0421475 0 0.0141895 0 0)
(0.00324581 0.00283585 0 0.0104702 0 0)
(0.0225758 -0.00612567 0 0.00378806 0 0)
(0.0523389 -0.00967855 0 0.00223722 0 0)
(0.102682 -0.0132796 0 0.00180276 0 0)
(0.194159 -0.0159094 0 0.00160442 0 0)
(0.298912 -0.0158605 0 0.00135597 0 0)
(0.421535 -0.0140698 0 0.000920807 0 0)
(0.510607 -0.011728 0 0.000581212 0 0)
(0.620944 -0.0100683 0 0.000319716 0 0)
(0.669325 -0.00948512 0 0.000189654 0 0)
(0.786954 -0.0090086 0 0.000145153 0 0)
(0.809172 -0.0109749 0 0.000199347 0 0)
(0.956743 -0.00860261 0 0.000191801 0 0)
(0.963574 -0.0172693 0 0.000423288 0 0)
(1.16446 -0.00700701 0 0.00030585 0 0)
(1.2001 -0.0439681 0 0.00213481 0 0)
(1.48865 -0.0163495 0 0.00110129 0 0)
(1.98432 -0.221596 0 0.0392173 0 0)
(2.50446 -0.357882 0 0.151418 0 0)
(0.123805 0.0340461 0 0.00994257 0 0)
(0.0117975 0.0107554 0 0.0109123 0 0)
(0.015803 0.00567217 0 0.00469966 0 0)
(0.0169193 0.00371824 0 0.00341797 0 0)
(0.0100244 0.000112148 0 0.00322721 0 0)
(0.0162819 -0.00555633 0 0.00305396 0 0)
(0.0424449 -0.00908267 0 0.00271361 0 0)
(0.0964084 -0.0109776 0 0.00195805 0 0)
(0.142067 -0.0101577 0 0.00129305 0 0)
(0.214385 -0.0100166 0 0.000757628 0 0)
(0.24277 -0.00910037 0 0.000421683 0 0)
(0.330799 -0.0104335 0 0.000418417 0 0)
(0.348594 -0.0100113 0 0.000332453 0 0)
(0.451759 -0.0131464 0 0.000556858 0 0)
(0.483107 -0.0111004 0 0.000477808 0 0)
(0.590889 -0.0224991 0 0.00109238 0 0)
(0.674416 -0.0131654 0 0.00126863 0 0)
(0.826661 -0.0727804 0 0.0111557 0 0)
(1.07993 -0.0750498 0 0.017173 0 0)
(1.56005 -0.499547 0 0.431926 0 0)
(0.115373 0.0277393 0 0.00710799 0 0)
(0.0104161 0.00949223 0 0.00971897 0 0)
(0.0235896 0.00822674 0 0.00402268 0 0)
(0.0437949 0.0103811 0 0.00325799 0 0)
(0.0523505 0.0122016 0 0.00378572 0 0)
(0.0382437 0.00912441 0 0.00409139 0 0)
(0.0270852 0.00553407 0 0.0039726 0 0)
(0.0176904 0.000138489 0 0.0030314 0 0)
(0.0193612 -0.00144344 0 0.00226198 0 0)
(0.0332357 -0.00382532 0 0.00130793 0 0)
(0.0355466 -0.00399235 0 0.000871185 0 0)
(0.0694693 -0.00527255 0 0.000679603 0 0)
(0.070066 -0.00707643 0 0.000860031 0 0)
(0.120573 -0.00640129 0 0.000785331 0 0)
(0.130251 -0.0119548 0 0.00170892 0 0)
(0.192133 -0.00733271 0 0.00121288 0 0)
(0.215979 -0.0256354 0 0.00624263 0 0)
(0.321048 -0.0158984 0 0.00369224 0 0)
(0.401727 -0.109594 0 0.0641876 0 0)
(0.703239 -0.224865 0 0.211269 0 0)
(0.114615 0.0238927 0 0.00530416 0 0)
(0.00709327 0.00703825 0 0.00862839 0 0)
(0.020172 0.00670626 0 0.00321641 0 0)
(0.045648 0.00930063 0 0.00237325 0 0)
(0.0745634 0.0142234 0 0.0032055 0 0)
(0.0790783 0.0152074 0 0.00395955 0 0)
(0.0885344 0.0155112 0 0.00431514 0 0)
(0.0715608 0.0106574 0 0.00361496 0 0)
(0.0739605 0.00893976 0 0.00272135 0 0)
(0.05448 0.00486443 0 0.00187607 0 0)
(0.0564184 0.0049751 0 0.00109674 0 0)
(0.0398542 0.00224499 0 0.00123902 0 0)
(0.0416016 0.00229779 0 0.000817028 0 0)
(0.0302633 -2.17274e-05 0 0.0015206 0 0)
(0.0371703 -7.38491e-05 0 0.00125577 0 0)
(0.0327181 -0.00231645 0 0.00300975 0 0)
(0.0387918 -0.00247591 0 0.00292561 0 0)
(0.0552768 -0.0102258 0 0.0183342 0 0)
(0.083509 -0.0263336 0 0.0294288 0 0)
(0.200831 -0.0945169 0 0.293152 0 0)
(0.116987 0.0207715 0 0.00393991 0 0)
(0.00513424 0.00517742 0 0.0075814 0 0)
(0.0162723 0.00533023 0 0.00282005 0 0)
(0.0388971 0.00717217 0 0.00173548 0 0)
(0.068985 0.0119173 0 0.00243352 0 0)
(0.0783453 0.0140129 0 0.0032816 0 0)
(0.102697 0.0164099 0 0.0038241 0 0)
(0.0989244 0.0133702 0 0.00318299 0 0)
(0.121783 0.0128177 0 0.00287434 0 0)
(0.113476 0.00938876 0 0.00186743 0 0)
(0.131552 0.010865 0 0.00135156 0 0)
(0.119093 0.00817959 0 0.00118921 0 0)
(0.127858 0.0103894 0 0.00147234 0 0)
(0.107901 0.00723734 0 0.00141641 0 0)
(0.11228 0.0102437 0 0.00254136 0 0)
(0.0841037 0.00661859 0 0.00236292 0 0)
(0.0788299 0.0127676 0 0.00594232 0 0)
(0.0482449 0.0139002 0 0.0102082 0 0)
(0.0414322 0.0160079 0 0.0503313 0 0)
(0.066972 0.0352499 0 0.311764 0 0)
(0.119066 0.017974 0 0.0029015 0 0)
(0.0042021 0.00387789 0 0.00631607 0 0)
(0.0132529 0.00424399 0 0.00258368 0 0)
(0.0333575 0.00562066 0 0.00126003 0 0)
(0.0597699 0.00963277 0 0.00180687 0 0)
(0.0689531 0.0117222 0 0.00255408 0 0)
(0.0907948 0.0141596 0 0.00323046 0 0)
(0.0926976 0.0118324 0 0.00293322 0 0)
(0.118164 0.0117599 0 0.00215957 0 0)
(0.121372 0.00976489 0 0.00170079 0 0)
(0.149115 0.0103339 0 0.00101019 0 0)
(0.150802 0.0108973 0 0.00135883 0 0)
(0.175302 0.0108447 0 0.00100558 0 0)
(0.168738 0.0136895 0 0.00172612 0 0)
(0.188025 0.012238 0 0.00190532 0 0)
(0.16667 0.0185012 0 0.00331571 0 0)
(0.171049 0.0198654 0 0.00452999 0 0)
(0.135631 0.0340885 0 0.0159441 0 0)
(0.122798 0.0549753 0 0.0516048 0 0)
(0.126272 0.0969182 0 0.225084 0 0)
(0.119654 0.0153301 0 0.00212087 0 0)
(0.0030586 0.00293761 0 0.00515895 0 0)
(0.0104412 0.00330706 0 0.00239597 0 0)
(0.0292046 0.00446862 0 0.000926222 0 0)
(0.052151 0.00761523 0 0.00132203 0 0)
(0.0619561 0.00989025 0 0.00201709 0 0)
(0.0781633 0.0119189 0 0.00261093 0 0)
(0.0833452 0.0103906 0 0.00214716 0 0)
(0.101962 0.00980688 0 0.00199882 0 0)
(0.112643 0.00804686 0 0.00146667 0 0)
(0.132251 0.00916984 0 0.000924069 0 0)
(0.147711 0.00913967 0 0.00101155 0 0)
(0.163744 0.0103782 0 0.00108631 0 0)
(0.178309 0.0119873 0 0.00143794 0 0)
(0.188766 0.0130924 0 0.00200738 0 0)
(0.196153 0.0188073 0 0.00321349 0 0)
(0.193879 0.021931 0 0.00508218 0 0)
(0.189017 0.0469606 0 0.0189267 0 0)
(0.171928 0.0616586 0 0.047673 0 0)
(0.199924 0.150908 0 0.263921 0 0)
(0.119248 0.0129313 0 0.00151718 0 0)
(0.00242783 0.00230452 0 0.0041191 0 0)
(0.00856504 0.00254075 0 0.00225115 0 0)
(0.0261113 0.00363651 0 0.000675542 0 0)
(0.0457291 0.00607051 0 0.000951291 0 0)
(0.0569108 0.0084229 0 0.00155058 0 0)
(0.0682152 0.0100971 0 0.00216939 0 0)
(0.0760759 0.00907381 0 0.00205195 0 0)
(0.0895264 0.00781473 0 0.00143229 0 0)
(0.102672 0.00725535 0 0.00115455 0 0)
(0.117893 0.00695827 0 0.000659164 0 0)
(0.134983 0.00858458 0 0.000991171 0 0)
(0.147616 0.0080447 0 0.000814305 0 0)
(0.165391 0.0115107 0 0.00122054 0 0)
(0.172136 0.0113417 0 0.00169785 0 0)
(0.186248 0.0176839 0 0.00271948 0 0)
(0.184001 0.0233626 0 0.00523596 0 0)
(0.186748 0.042748 0 0.0159628 0 0)
(0.178226 0.0708218 0 0.053675 0 0)
(0.213101 0.155533 0 0.219916 0 0)
(0.118913 0.0107948 0 0.00107831 0 0)
(0.0020639 0.00171919 0 0.00321873 0 0)
(0.00728201 0.00181913 0 0.0020815 0 0)
(0.0233695 0.00282441 0 0.000463923 0 0)
(0.0409834 0.0047445 0 0.00066937 0 0)
(0.0523638 0.00701904 0 0.00118577 0 0)
(0.0608967 0.00853978 0 0.00171901 0 0)
(0.0695228 0.00772228 0 0.00143738 0 0)
(0.0800654 0.0067533 0 0.00123123 0 0)
(0.0938098 0.00575771 0 0.00105351 0 0)
(0.107292 0.00606079 0 0.000572719 0 0)
(0.122859 0.00698632 0 0.000749108 0 0)
(0.136083 0.00700109 0 0.000713514 0 0)
(0.15092 0.0101561 0 0.00110932 0 0)
(0.159009 0.00983436 0 0.00143546 0 0)
(0.171393 0.0184759 0 0.00310576 0 0)
(0.172122 0.0208348 0 0.00480287 0 0)
(0.175943 0.0466271 0 0.0185536 0 0)
(0.17635 0.0710579 0 0.0516053 0 0)
(0.213476 0.155376 0 0.204954 0 0)
(0.11909 0.00897942 0 0.000757992 0 0)
(0.00184483 0.00125559 0 0.00245265 0 0)
(0.00650663 0.00131999 0 0.00188004 0 0)
(0.0209375 0.00224774 0 0.000349408 0 0)
(0.0374557 0.0037361 0 0.000474133 0 0)
(0.0480548 0.00578073 0 0.000873847 0 0)
(0.0554311 0.00720317 0 0.00136105 0 0)
(0.0635945 0.00655889 0 0.00127685 0 0)
(0.0725721 0.00549569 0 0.000909787 0 0)
(0.0864402 0.00496863 0 0.000733147 0 0)
(0.0978057 0.0048833 0 0.000412676 0 0)
(0.114045 0.00622434 0 0.000645851 0 0)
(0.12538 0.00606413 0 0.000579889 0 0)
(0.14002 0.00879322 0 0.000809484 0 0)
(0.146908 0.00944957 0 0.00123859 0 0)
(0.160673 0.0157763 0 0.00238911 0 0)
(0.161012 0.0218862 0 0.00483793 0 0)
(0.169539 0.0447195 0 0.017728 0 0)
(0.172797 0.0719353 0 0.0500559 0 0)
(0.22058 0.158926 0 0.191379 0 0)
(0.119382 0.00736494 0 0.000519263 0 0)
(0.00171724 0.000888317 0 0.001805 0 0)
(0.00599289 0.000856912 0 0.00151144 0 0)
(0.0189226 0.00176407 0 0.000244397 0 0)
(0.0345973 0.00291699 0 0.000322419 0 0)
(0.0443798 0.00469693 0 0.00063313 0 0)
(0.0510955 0.0059909 0 0.00101369 0 0)
(0.0583414 0.00542475 0 0.00087829 0 0)
(0.0668184 0.00461103 0 0.000670463 0 0)
(0.0801653 0.00402704 0 0.00064949 0 0)
(0.0902877 0.00408381 0 0.000333309 0 0)
(0.106921 0.00530008 0 0.000482992 0 0)
(0.116159 0.00504116 0 0.000458807 0 0)
(0.131528 0.00806295 0 0.000752346 0 0)
(0.137364 0.00818674 0 0.00103322 0 0)
(0.151991 0.0155804 0 0.00248022 0 0)
(0.152497 0.0210903 0 0.00466973 0 0)
(0.165399 0.0435854 0 0.0175067 0 0)
(0.171405 0.0734838 0 0.0492268 0 0)
(0.225401 0.157936 0 0.17557 0 0)
(0.119641 0.00591749 0 0.000348973 0 0)
(0.00165417 0.000620473 0 0.00130149 0 0)
(0.00567599 0.000530395 0 0.00113331 0 0)
(0.0173615 0.00141105 0 0.000204222 0 0)
(0.0323485 0.00227374 0 0.000239931 0 0)
(0.0414557 0.00374086 0 0.000448515 0 0)
(0.0478147 0.00492526 0 0.000752764 0 0)
(0.0537886 0.00440283 0 0.000704234 0 0)
(0.0626983 0.00369948 0 0.000496506 0 0)
(0.0741039 0.00321205 0 0.000453331 0 0)
(0.0854155 0.00327523 0 0.00025072 0 0)
(0.100126 0.00436023 0 0.000402069 0 0)
(0.109742 0.00423907 0 0.000410906 0 0)
(0.124192 0.0066401 0 0.000584374 0 0)
(0.130851 0.0074019 0 0.000921953 0 0)
(0.144334 0.0141799 0 0.00226236 0 0)
(0.147623 0.0201498 0 0.00468443 0 0)
(0.162382 0.0427394 0 0.0172876 0 0)
(0.173307 0.073728 0 0.0477506 0 0)
(0.230665 0.155356 0 0.160142 0 0)
(0.119836 0.00464211 0 0.000222697 0 0)
(0.00162245 0.000423329 0 0.000866942 0 0)
(0.00549315 0.000288119 0 0.000761183 0 0)
(0.016171 0.00109858 0 0.000140701 0 0)
(0.0305094 0.0017384 0 0.000155606 0 0)
(0.0392936 0.00289478 0 0.000292658 0 0)
(0.0450676 0.00392536 0 0.000512124 0 0)
(0.0505296 0.00346158 0 0.000452145 0 0)
(0.0594149 0.00294299 0 0.000317739 0 0)
(0.0694618 0.00246051 0 0.000360301 0 0)
(0.0820031 0.00247093 0 0.000201294 0 0)
(0.0939424 0.00355204 0 0.000303569 0 0)
(0.105723 0.00336407 0 0.0003165 0 0)
(0.117758 0.00569764 0 0.000493495 0 0)
(0.126612 0.00645924 0 0.000793467 0 0)
(0.137669 0.0131129 0 0.00210751 0 0)
(0.146076 0.0191993 0 0.00457825 0 0)
(0.159623 0.0420862 0 0.0167343 0 0)
(0.178126 0.0730915 0 0.0456132 0 0)
(0.237446 0.153913 0 0.145853 0 0)
(0.119969 0.00349111 0 0.000138742 0 0)
(0.00161744 0.000274183 0 0.000542912 0 0)
(0.00540561 0.00013781 0 0.000488299 0 0)
(0.015292 0.00082694 0 0.00011332 0 0)
(0.0290701 0.00127072 0 0.000119386 0 0)
(0.0377417 0.0021274 0 0.000191646 0 0)
(0.0427593 0.0029867 0 0.000336411 0 0)
(0.0483933 0.00262098 0 0.000306891 0 0)
(0.0561846 0.00220522 0 0.000217606 0 0)
(0.0667207 0.00181724 0 0.000247675 0 0)
(0.0785993 0.00183201 0 0.000151086 0 0)
(0.0900491 0.00280642 0 0.000234218 0 0)
(0.102161 0.00263508 0 0.000269753 0 0)
(0.113468 0.00476705 0 0.000417212 0 0)
(0.122635 0.00570946 0 0.000675864 0 0)
(0.134146 0.0121734 0 0.00196385 0 0)
(0.144675 0.0185915 0 0.00440449 0 0)
(0.159356 0.0412107 0 0.0160239 0 0)
(0.183322 0.0723673 0 0.0432592 0 0)
(0.245449 0.151419 0 0.132699 0 0)
(0.120071 0.00244249 0 7.77458e-05 0 0)
(0.00161999 0.000163429 0 0.000290417 0 0)
(0.0053673 4.57548e-05 0 0.000266888 0 0)
(0.0146594 0.00056748 0 7.23642e-05 0 0)
(0.0280626 0.00087537 0 7.77634e-05 0 0)
(0.036532 0.00143667 0 0.000108791 0 0)
(0.0412516 0.00212056 0 0.000192667 0 0)
(0.046816 0.00182468 0 0.000171626 0 0)
(0.053862 0.00156111 0 0.00011944 0 0)
(0.0650211 0.00128466 0 0.000157819 0 0)
(0.0753364 0.00130313 0 0.000108819 0 0)
(0.0880509 0.00215036 0 0.00015785 0 0)
(0.0987272 0.00209392 0 0.000189964 0 0)
(0.111005 0.00388888 0 0.000323498 0 0)
(0.119099 0.00518094 0 0.000564341 0 0)
(0.133205 0.0111482 0 0.00177339 0 0)
(0.14271 0.0183183 0 0.0041644 0 0)
(0.161883 0.0398479 0 0.0151785 0 0)
(0.188376 0.0721284 0 0.0406161 0 0)
(0.25562 0.147412 0 0.119237 0 0)
(0.120133 0.00146171 0 4.30108e-05 0 0)
(0.00162408 8.05876e-05 0 0.000136269 0 0)
(0.0053535 4.32398e-06 0 0.000129204 0 0)
(0.0142533 0.000325622 0 5.49427e-05 0 0)
(0.0274175 0.000526187 0 6.61671e-05 0 0)
(0.0356688 0.000790477 0 7.00208e-05 0 0)
(0.0404549 0.00129083 0 0.000107524 0 0)
(0.0453484 0.00105344 0 0.000101498 0 0)
(0.0528386 0.000917687 0 7.90439e-05 0 0)
(0.0634568 0.000731226 0 0.0001071 0 0)
(0.0737162 0.000767112 0 8.64187e-05 0 0)
(0.0865222 0.00148245 0 0.000116374 0 0)
(0.0967026 0.00144863 0 0.000155271 0 0)
(0.109129 0.00308404 0 0.000266972 0 0)
(0.117743 0.00445021 0 0.000481692 0 0)
(0.132352 0.0102786 0 0.00159751 0 0)
(0.142671 0.0176713 0 0.00392297 0 0)
(0.165334 0.0386071 0 0.0142279 0 0)
(0.195059 0.0712071 0 0.0377048 0 0)
(0.267001 0.143527 0 0.107207 0 0)
(0.120149 0.000523313 0 2.41139e-05 0 0)
(0.00162734 1.26703e-05 0 5.68268e-05 0 0)
(0.00535074 -1.46254e-05 0 5.00731e-05 0 0)
(0.014065 8.61481e-05 0 4.03001e-05 0 0)
(0.0270566 0.000208535 0 5.30904e-05 0 0)
(0.0353338 0.000174999 0 4.8935e-05 0 0)
(0.0400375 0.000485376 0 5.79948e-05 0 0)
(0.0446333 0.000295269 0 6.1034e-05 0 0)
(0.0526106 0.000292471 0 5.88863e-05 0 0)
(0.0621481 0.000217131 0 7.15042e-05 0 0)
(0.0735201 0.00019834 0 7.61189e-05 0 0)
(0.0852113 0.000806272 0 9.1105e-05 0 0)
(0.0962405 0.000788777 0 0.000126986 0 0)
(0.107854 0.00228795 0 0.000225693 0 0)
(0.118269 0.00360687 0 0.000436025 0 0)
(0.131407 0.00947713 0 0.00143301 0 0)
(0.145371 0.0166023 0 0.00373018 0 0)
(0.168875 0.0375154 0 0.0131624 0 0)
(0.203877 0.069236 0 0.0348625 0 0)
(0.278469 0.139352 0 0.0956883 0 0)
(0.120123 -0.000399939 0 2.44487e-05 0 0)
(0.00162577 -4.96707e-05 0 6.43671e-05 0 0)
(0.00534778 -2.01127e-05 0 4.55435e-05 0 0)
(0.0140734 -0.000149375 0 4.78241e-05 0 0)
(0.027015 -9.75964e-05 0 5.90376e-05 0 0)
(0.0354686 -0.000435704 0 5.91057e-05 0 0)
(0.0398105 -0.000290443 0 5.70593e-05 0 0)
(0.0448445 -0.000457137 0 6.88142e-05 0 0)
(0.0524673 -0.000293147 0 7.5184e-05 0 0)
(0.0621489 -0.000308832 0 6.46773e-05 0 0)
(0.0737197 -0.000345062 0 8.22874e-05 0 0)
(0.0850791 0.000150638 0 8.33673e-05 0 0)
(0.0964602 0.00016604 0 0.000116042 0 0)
(0.108274 0.00143364 0 0.000208931 0 0)
(0.119031 0.00285644 0 0.000408036 0 0)
(0.132612 0.00846837 0 0.0013115 0 0)
(0.148996 0.0155615 0 0.0035045 0 0)
(0.17401 0.0360426 0 0.0120824 0 0)
(0.214 0.066975 0 0.0318336 0 0)
(0.290898 0.134564 0 0.0847801 0 0)
(0.120059 -0.001341 0 4.10452e-05 0 0)
(0.00161896 -0.000118608 0 0.000150985 0 0)
(0.00534177 -3.584e-05 0 0.000108005 0 0)
(0.0142603 -0.000388542 0 6.91848e-05 0 0)
(0.0273462 -0.000420185 0 7.26399e-05 0 0)
(0.0358563 -0.00104536 0 9.27236e-05 0 0)
(0.0402146 -0.00108075 0 9.8424e-05 0 0)
(0.0455977 -0.00121395 0 0.000120638 0 0)
(0.0527026 -0.000864943 0 0.000118706 0 0)
(0.0632036 -0.000848958 0 8.08517e-05 0 0)
(0.0742075 -0.000837122 0 9.30678e-05 0 0)
(0.0862334 -0.00052034 0 8.92161e-05 0 0)
(0.0972535 -0.000407641 0 0.000106996 0 0)
(0.110063 0.00051729 0 0.000215866 0 0)
(0.120232 0.00223735 0 0.000372137 0 0)
(0.136066 0.00720681 0 0.00123867 0 0)
(0.152783 0.014808 0 0.00317721 0 0)
(0.181428 0.0339034 0 0.0111217 0 0)
(0.224206 0.0650421 0 0.028543 0 0)
(0.305154 0.128175 0 0.0754484 0 0)
(0.119959 -0.00232412 0 7.66298e-05 0 0)
(0.00161156 -0.000204063 0 0.000320869 0 0)
(0.00534843 -7.48783e-05 0 0.000238982 0 0)
(0.0146632 -0.000634195 0 0.00010254 0 0)
(0.0280334 -0.000771926 0 9.77946e-05 0 0)
(0.0365255 -0.00168598 0 0.000154115 0 0)
(0.0413334 -0.00191207 0 0.000186818 0 0)
(0.0465519 -0.00198756 0 0.000218888 0 0)
(0.0540904 -0.00149622 0 0.000196597 0 0)
(0.0647013 -0.0014115 0 0.000125185 0 0)
(0.0757876 -0.00137423 0 0.000119479 0 0)
(0.0880744 -0.00120704 0 0.000114839 0 0)
(0.0994643 -0.00106302 0 0.000116793 0 0)
(0.112291 -0.00032159 0 0.000224344 0 0)
(0.123428 0.00143093 0 0.000380324 0 0)
(0.14015 0.00608629 0 0.00113823 0 0)
(0.158328 0.0137177 0 0.0029332 0 0)
(0.189759 0.0318079 0 0.0100356 0 0)
(0.235819 0.0623362 0 0.025509 0 0)
(0.321382 0.121384 0 0.0664139 0 0)
(0.119821 -0.00337949 0 0.000134709 0 0)
(0.00160806 -0.000318611 0 0.000577128 0 0)
(0.00538263 -0.000157183 0 0.000441236 0 0)
(0.0153091 -0.000897056 0 0.000143888 0 0)
(0.0290065 -0.00117009 0 0.000135404 0 0)
(0.0377708 -0.00239017 0 0.000247558 0 0)
(0.0429116 -0.00278078 0 0.000320906 0 0)
(0.0481476 -0.00280794 0 0.000362744 0 0)
(0.0563552 -0.00217548 0 0.000304264 0 0)
(0.0667431 -0.00200385 0 0.000195462 0 0)
(0.0784836 -0.0019478 0 0.000157857 0 0)
(0.0907145 -0.00193838 0 0.000161831 0 0)
(0.102895 -0.00176054 0 0.000140055 0 0)
(0.115467 -0.00120037 0 0.000252341 0 0)
(0.128355 0.000512467 0 0.00041907 0 0)
(0.14494 0.004982 0 0.00104384 0 0)
(0.16596 0.0122631 0 0.00276846 0 0)
(0.198663 0.0298159 0 0.00883856 0 0)
(0.250291 0.0585231 0 0.0228731 0 0)
(0.338428 0.115269 0 0.0573209 0 0)
(0.119631 -0.00453412 0 0.000220433 0 0)
(0.00161261 -0.000471217 0 0.000919893 0 0)
(0.00546261 -0.000299873 0 0.000716804 0 0)
(0.0162145 -0.00117881 0 0.000189725 0 0)
(0.0303369 -0.00163246 0 0.000187684 0 0)
(0.0395683 -0.00316534 0 0.000373247 0 0)
(0.0448164 -0.00368946 0 0.000498532 0 0)
(0.0507109 -0.00369454 0 0.000549329 0 0)
(0.0590783 -0.00287756 0 0.000436742 0 0)
(0.0698404 -0.00265587 0 0.000291403 0 0)
(0.081913 -0.00254645 0 0.000206446 0 0)
(0.094675 -0.00276264 0 0.000235248 0 0)
(0.107075 -0.00243407 0 0.000166929 0 0)
(0.120461 -0.00228821 0 0.000331738 0 0)
(0.134046 -0.000302962 0 0.000439605 0 0)
(0.151694 0.00350533 0 0.00105252 0 0)
(0.174527 0.010975 0 0.00250497 0 0)
(0.209868 0.0271053 0 0.00787776 0 0)
(0.266292 0.0546308 0 0.0201176 0 0)
(0.35693 0.108274 0 0.0492926 0 0)
(0.119374 -0.00581878 0 0.000343072 0 0)
(0.00164265 -0.000678583 0 0.00135239 0 0)
(0.00562636 -0.000525473 0 0.00106591 0 0)
(0.0174036 -0.00148963 0 0.000241401 0 0)
(0.032136 -0.00217889 0 0.000260429 0 0)
(0.0417978 -0.0040136 0 0.000535642 0 0)
(0.0474484 -0.0046813 0 0.000725365 0 0)
(0.0540459 -0.00464292 0 0.000777587 0 0)
(0.0625409 -0.00364896 0 0.000603174 0 0)
(0.0740265 -0.00338578 0 0.000417152 0 0)
(0.0863466 -0.00322982 0 0.000272789 0 0)
(0.099823 -0.00363412 0 0.000326295 0 0)
(0.112515 -0.00320922 0 0.000210464 0 0)
(0.126961 -0.00346446 0 0.000432204 0 0)
(0.141016 -0.00121333 0 0.000484287 0 0)
(0.160256 0.00189316 0 0.00108282 0 0)
(0.184612 0.00951469 0 0.00229591 0 0)
(0.223376 0.0239286 0 0.00699367 0 0)
(0.283397 0.0503797 0 0.0174998 0 0)
(0.378257 0.100095 0 0.0422377 0 0)
(0.11907 -0.00727291 0 0.000515862 0 0)
(0.00171651 -0.000957876 0 0.00187662 0 0)
(0.00592767 -0.000848454 0 0.00146466 0 0)
(0.0189716 -0.00185503 0 0.000304702 0 0)
(0.034417 -0.00283092 0 0.000359254 0 0)
(0.044596 -0.00495513 0 0.00073769 0 0)
(0.050983 -0.0057762 0 0.00100059 0 0)
(0.0581505 -0.00566048 0 0.00104386 0 0)
(0.0671477 -0.00452549 0 0.000802565 0 0)
(0.0793112 -0.00421343 0 0.000570137 0 0)
(0.0920787 -0.00400279 0 0.000350584 0 0)
(0.106217 -0.00457807 0 0.000436446 0 0)
(0.119641 -0.00408671 0 0.000267859 0 0)
(0.134873 -0.00470796 0 0.000550077 0 0)
(0.149907 -0.00223371 0 0.000548851 0 0)
(0.170553 0.000162576 0 0.00112237 0 0)
(0.197005 0.00778758 0 0.00217317 0 0)
(0.238532 0.020474 0 0.00611036 0 0)
(0.302959 0.0454147 0 0.0152499 0 0)
(0.402452 0.0909215 0 0.0358912 0 0)
(0.118848 -0.00890343 0 0.000752631 0 0)
(0.0018417 -0.00133059 0 0.0025193 0 0)
(0.00642058 -0.00128222 0 0.00182159 0 0)
(0.0209799 -0.00232101 0 0.000394918 0 0)
(0.0372679 -0.00364548 0 0.000498843 0 0)
(0.0482088 -0.00603848 0 0.000989442 0 0)
(0.055447 -0.0069936 0 0.00132666 0 0)
(0.0632846 -0.00677492 0 0.00134555 0 0)
(0.0730359 -0.00553603 0 0.00103613 0 0)
(0.0858848 -0.00514697 0 0.000744069 0 0)
(0.0992153 -0.0048853 0 0.000443477 0 0)
(0.114262 -0.00563138 0 0.00056817 0 0)
(0.128451 -0.00504899 0 0.000335394 0 0)
(0.144612 -0.00608995 0 0.00070273 0 0)
(0.160852 -0.00331821 0 0.000611789 0 0)
(0.183081 -0.00184723 0 0.00123439 0 0)
(0.21157 0.00601413 0 0.00204122 0 0)
(0.256128 0.0164326 0 0.00541884 0 0)
(0.325388 0.0400355 0 0.0131456 0 0)
(0.429859 0.0802347 0 0.0306367 0 0)
(0.119021 -0.010763 0 0.0010751 0 0)
(0.00202795 -0.00180163 0 0.00329986 0 0)
(0.00722043 -0.0018443 0 0.00206102 0 0)
(0.0233234 -0.00291979 0 0.000530951 0 0)
(0.0409477 -0.00470108 0 0.000701662 0 0)
(0.0523874 -0.00726396 0 0.00129994 0 0)
(0.0610726 -0.00838332 0 0.00171369 0 0)
(0.0692942 -0.00796253 0 0.00167345 0 0)
(0.0804162 -0.00674722 0 0.00131765 0 0)
(0.0935056 -0.00614588 0 0.000934933 0 0)
(0.108174 -0.00597856 0 0.00056903 0 0)
(0.123717 -0.00674255 0 0.000714676 0 0)
(0.139286 -0.00621343 0 0.000425599 0 0)
(0.156067 -0.00755162 0 0.00089118 0 0)
(0.174331 -0.00460369 0 0.000681979 0 0)
(0.197644 -0.00402696 0 0.00143489 0 0)
(0.22893 0.00406513 0 0.00187288 0 0)
(0.276285 0.0119126 0 0.00500391 0 0)
(0.350579 0.0342599 0 0.0110721 0 0)
(0.460342 0.0678418 0 0.0265996 0 0)
(0.120029 -0.0129533 0 0.00152082 0 0)
(0.00238118 -0.00234453 0 0.00420869 0 0)
(0.00861275 -0.00257611 0 0.00222885 0 0)
(0.0258477 -0.00363233 0 0.000725076 0 0)
(0.0460254 -0.00603517 0 0.000982084 0 0)
(0.0566389 -0.00858153 0 0.00167417 0 0)
(0.0687695 -0.00999175 0 0.00215199 0 0)
(0.0755501 -0.00914889 0 0.0020286 0 0)
(0.0903328 -0.0082146 0 0.00164199 0 0)
(0.101577 -0.00716414 0 0.00114719 0 0)
(0.120338 -0.00733044 0 0.000724216 0 0)
(0.133842 -0.0078573 0 0.000866959 0 0)
(0.153903 -0.00766027 0 0.00054762 0 0)
(0.168573 -0.00901243 0 0.00109178 0 0)
(0.192036 -0.00617591 0 0.000781381 0 0)
(0.213344 -0.0062231 0 0.00165108 0 0)
(0.250316 0.00185219 0 0.00178379 0 0)
(0.296637 0.00725989 0 0.00460364 0 0)
(0.376669 0.028215 0 0.00946792 0 0)
(0.487347 0.0544054 0 0.0223672 0 0)
(0.121382 -0.0154752 0 0.00212496 0 0)
(0.00325246 -0.00298481 0 0.0052469 0 0)
(0.0109943 -0.00351986 0 0.00240414 0 0)
(0.0287756 -0.00446079 0 0.000982041 0 0)
(0.0531094 -0.00772613 0 0.00135375 0 0)
(0.0611316 -0.00998673 0 0.0021193 0 0)
(0.0797648 -0.0119804 0 0.00265425 0 0)
(0.0819069 -0.0102884 0 0.00241876 0 0)
(0.104661 -0.0101389 0 0.00202637 0 0)
(0.109631 -0.00815484 0 0.0013783 0 0)
(0.137882 -0.00911026 0 0.000924621 0 0)
(0.143418 -0.0089368 0 0.00103222 0 0)
(0.17433 -0.0095385 0 0.000715393 0 0)
(0.17885 -0.0103003 0 0.00130714 0 0)
(0.213578 -0.00803905 0 0.00091414 0 0)
(0.222308 -0.00807426 0 0.001879 0 0)
(0.2688 -0.000266449 0 0.0017359 0 0)
(0.299344 0.00326646 0 0.00423843 0 0)
(0.382628 0.0232137 0 0.0081684 0 0)
(0.473823 0.0420215 0 0.0179775 0 0)
(0.120878 -0.0181406 0 0.00291253 0 0)
(0.00460038 -0.00389439 0 0.00642275 0 0)
(0.0140894 -0.00456919 0 0.00260635 0 0)
(0.0327169 -0.00555476 0 0.00132201 0 0)
(0.0616102 -0.0097783 0 0.0018385 0 0)
(0.067572 -0.0117064 0 0.00266992 0 0)
(0.0934513 -0.0143689 0 0.00324564 0 0)
(0.0902028 -0.0116468 0 0.00288089 0 0)
(0.121952 -0.0124295 0 0.00247479 0 0)
(0.117406 -0.00918268 0 0.00163344 0 0)
(0.155385 -0.0110951 0 0.00117523 0 0)
(0.146437 -0.00968903 0 0.00120559 0 0)
(0.186116 -0.011255 0 0.000921693 0 0)
(0.17006 -0.0103812 0 0.00149067 0 0)
(0.210016 -0.00904293 0 0.00105066 0 0)
(0.192872 -0.00768766 0 0.00200988 0 0)
(0.238243 -0.000806984 0 0.00164148 0 0)
(0.237841 0.00257022 0 0.00385551 0 0)
(0.309342 0.0210719 0 0.00679203 0 0)
(0.36728 0.0338937 0 0.0142219 0 0)
(0.118099 -0.0208911 0 0.00393833 0 0)
(0.00591427 -0.00522352 0 0.00763874 0 0)
(0.0172653 -0.00560643 0 0.0028429 0 0)
(0.0382268 -0.00712887 0 0.00177951 0 0)
(0.070499 -0.0121103 0 0.00245818 0 0)
(0.0770844 -0.0139262 0 0.00334331 0 0)
(0.104987 -0.016603 0 0.00388526 0 0)
(0.0964898 -0.0129336 0 0.00338936 0 0)
(0.125529 -0.0135868 0 0.00287621 0 0)
(0.108802 -0.0091065 0 0.00184455 0 0)
(0.137949 -0.011003 0 0.00136317 0 0)
(0.112514 -0.00802049 0 0.0012852 0 0)
(0.137802 -0.00965797 0 0.00103983 0 0)
(0.105794 -0.00637568 0 0.00148596 0 0)
(0.128207 -0.006187 0 0.00104102 0 0)
(0.100575 -0.00235823 0 0.00188467 0 0)
(0.126116 0.00146065 0 0.00139413 0 0)
(0.119958 0.00698777 0 0.00329141 0 0)
(0.169574 0.0197429 0 0.00527405 0 0)
(0.224659 0.0316268 0 0.0108285 0 0)
(0.115374 -0.0239514 0 0.00529687 0 0)
(0.00761336 -0.00702195 0 0.0086772 0 0)
(0.0210394 -0.00689155 0 0.00323136 0 0)
(0.0452458 -0.00926312 0 0.00242588 0 0)
(0.0760135 -0.0143272 0 0.00322279 0 0)
(0.078169 -0.0150836 0 0.00401405 0 0)
(0.0903795 -0.0156232 0 0.00433484 0 0)
(0.0701902 -0.0103333 0 0.00364025 0 0)
(0.0755467 -0.00933566 0 0.00290468 0 0)
(0.0535878 -0.00437154 0 0.00177408 0 0)
(0.0569265 -0.00525677 0 0.00126021 0 0)
(0.0411025 -0.00156612 0 0.00111088 0 0)
(0.0414336 -0.0025697 0 0.000899314 0 0)
(0.0370648 0.00169236 0 0.00120839 0 0)
(0.037339 0.000317424 0 0.00082208 0 0)
(0.0492651 0.00539559 0 0.0014884 0 0)
(0.0532983 0.00434236 0 0.00104812 0 0)
(0.0877879 0.0123113 0 0.00253311 0 0)
(0.11594 0.0154507 0 0.00388191 0 0)
(0.199948 0.0317003 0 0.00764204 0 0)
(0.11583 -0.0277812 0 0.00709923 0 0)
(0.0106334 -0.00944952 0 0.0097368 0 0)
(0.0241946 -0.0083326 0 0.00402924 0 0)
(0.043587 -0.0103034 0 0.00328447 0 0)
(0.0533381 -0.0122988 0 0.00379044 0 0)
(0.0379119 -0.00896289 0 0.00410752 0 0)
(0.0279304 -0.00563006 0 0.00399016 0 0)
(0.017645 0.000141205 0 0.00311189 0 0)
(0.019244 0.00131305 0 0.00227121 0 0)
(0.0336984 0.00428943 0 0.00130026 0 0)
(0.0343306 0.00357505 0 0.000871594 0 0)
(0.0723008 0.00617927 0 0.000739656 0 0)
(0.0649902 0.00536589 0 0.000603731 0 0)
(0.128439 0.00858209 0 0.000796801 0 0)
(0.114315 0.00584346 0 0.000536072 0 0)
(0.195511 0.0103209 0 0.000995871 0 0)
(0.180413 0.00475956 0 0.000717118 0 0)
(0.267066 0.0141137 0 0.00170055 0 0)
(0.276791 0.00768853 0 0.00271607 0 0)
(0.372287 0.0276532 0 0.00483366 0 0)
(0.124081 -0.0340614 0 0.00992878 0 0)
(0.0118932 -0.0107215 0 0.0109267 0 0)
(0.0160952 -0.005749 0 0.0047014 0 0)
(0.0170282 -0.00364095 0 0.00343658 0 0)
(0.0102106 -0.000177575 0 0.00322826 0 0)
(0.0169003 0.00567686 0 0.00306243 0 0)
(0.0420295 0.00901963 0 0.00272194 0 0)
(0.0981451 0.0112318 0 0.00197584 0 0)
(0.140269 0.0101712 0 0.00133745 0 0)
(0.217369 0.0101291 0 0.000731445 0 0)
(0.239265 0.00904226 0 0.000463662 0 0)
(0.336838 0.0101309 0 0.000396253 0 0)
(0.335975 0.00929683 0 0.000327882 0 0)
(0.46154 0.0109235 0 0.000438225 0 0)
(0.438808 0.00775966 0 0.000292585 0 0)
(0.577801 0.010437 0 0.000569494 0 0)
(0.541858 0.0028565 0 0.000424594 0 0)
(0.658793 0.0116136 0 0.0010209 0 0)
(0.65115 -0.00118352 0 0.001683 0 0)
(0.707555 0.0201457 0 0.00311884 0 0)
(0.132933 -0.0421572 0 0.0141771 0 0)
(0.00332797 -0.00282007 0 0.0104813 0 0)
(0.0224615 0.00608023 0 0.00378866 0 0)
(0.0528152 0.0097449 0 0.00224675 0 0)
(0.102249 0.0132513 0 0.00180306 0 0)
(0.195396 0.0159785 0 0.00160631 0 0)
(0.297779 0.0158349 0 0.00135705 0 0)
(0.424254 0.0142576 0 0.000934646 0 0)
(0.508511 0.0117104 0 0.000595141 0 0)
(0.62462 0.0101962 0 0.000316049 0 0)
(0.666401 0.00905945 0 0.000187398 0 0)
(0.790089 0.00931785 0 0.000168113 0 0)
(0.799375 0.0085177 0 0.00013968 0 0)