/*--------------------------------*- C++ -*----------------------------------*\
| =========                 |                                                 |
| \\      /  F ield         | OpenFOAM: The Open Source CFD Toolbox           |
|  \\    /   O peration     | Version:  2.4.0                                 |
|   \\  /    A nd           | Web:      www.OpenFOAM.org                      |
|    \\/     M anipulation  |                                                 |
\*---------------------------------------------------------------------------*/
FoamFile
{
    version     2.0;
    format      ascii;
    class       volScalarField;
    location    "0.184";
    object      p;
}
// * * * * * * * * * * * * * * * * * * * * * * * * * * * * * * * * * * * * * //

dimensions      [0 2 -2 0 0 0 0];

internalField   nonuniform List<scalar> 
17600
(
93.0255
77.4001
72.9736
71.8287
70.8406
69.9375
69.0569
68.1867
67.5836
66.7626
66.0221
65.3336
64.6438
63.8738
63.1322
62.578
61.6276
60.6872
59.6032
57.7701
91.1175
77.4501
73.0145
71.8385
70.8436
69.938
69.058
68.1863
67.5834
66.7642
66.0206
65.3339
64.6444
63.8747
63.1313
62.5799
61.6305
60.689
59.6081
57.887
89.7041
77.7065
73.1584
71.8766
70.8572
69.9425
69.0612
68.1868
67.5851
66.7663
66.0195
65.3345
64.6455
63.8757
63.1307
62.5846
61.6352
60.6977
59.6492
58.1153
88.7282
78.0482
73.3787
71.9413
70.8863
69.9577
69.0708
68.1921
67.5904
66.7701
66.0198
65.3366
64.6466
63.8777
63.1315
62.5912
61.6442
60.7163
59.7242
58.4511
87.9063
78.3833
73.6435
72.0226
70.9286
69.9861
69.0908
68.2064
67.6017
66.7782
66.0232
65.3414
64.6479
63.8822
63.1345
62.5988
61.6602
60.7468
59.8343
58.8706
87.1322
78.6762
73.9217
72.1044
70.9706
70.0216
69.12
68.2306
67.6194
66.7921
66.0313
65.3499
64.6498
63.8905
63.1406
62.6063
61.6858
60.7898
59.986
59.3164
86.4034
78.9239
74.1986
72.182
71.0024
70.0535
69.153
68.2611
67.6409
66.8108
66.0438
65.362
64.6521
63.9033
63.1507
62.6123
61.7235
60.8421
60.1926
59.8483
85.7302
79.1284
74.4676
72.2579
71.0236
70.0767
69.1853
68.2937
67.6634
66.8317
66.0585
65.3759
64.6539
63.9196
63.1639
62.6173
61.7707
60.9072
60.3889
60.4161
85.1183
79.2932
74.7208
72.3362
71.0367
70.0914
69.2148
68.3263
67.6852
66.8534
66.0728
65.3905
64.6545
63.9384
63.1775
62.623
61.8229
60.9842
60.4998
60.9276
84.5697
79.4203
74.9547
72.4178
71.0445
70.0982
69.2404
68.3576
67.7063
66.875
66.0857
65.4044
64.6549
63.9569
63.1936
62.6282
61.8793
61.065
60.6767
61.4112
84.0828
79.5132
75.1687
72.5033
71.0482
70.0977
69.2615
68.3879
67.7263
66.8962
66.0962
65.4174
64.6554
63.9741
63.2126
62.6342
61.9371
61.1554
60.8585
61.8201
83.6548
79.5757
75.3631
72.5936
71.0484
70.0901
69.279
68.417
67.7446
66.917
66.1055
65.4289
64.6565
63.9899
63.2322
62.6424
61.9971
61.2505
61.0397
62.1503
83.283
79.6126
75.538
72.687
71.0463
70.077
69.2931
68.4442
67.7607
66.9373
66.114
65.4389
64.6581
64.0046
63.2543
62.6519
62.0621
61.3461
61.214
62.4266
82.9648
79.63
75.6923
72.7789
71.0438
70.0606
69.3041
68.4693
67.7742
66.9566
66.1216
65.4463
64.664
64.0174
63.2795
62.6642
62.127
61.4477
61.373
62.6767
82.6969
79.6359
75.8257
72.8616
71.0426
70.0432
69.3125
68.4927
67.7846
66.9749
66.1284
65.4519
64.668
64.0289
63.3049
62.6822
62.1886
61.5558
61.5208
62.8579
82.4772
79.636
75.9364
72.9324
71.0432
70.0262
69.319
68.5143
67.7917
66.9915
66.1356
65.4555
64.6755
64.0381
63.3311
62.7025
62.2503
61.6542
61.7048
62.9473
82.3041
79.6328
76.0242
72.99
71.0456
70.0093
69.3239
68.5333
67.7964
67.0058
66.1439
65.457
64.6879
64.0441
63.3582
62.716
62.3087
61.7485
61.8801
63.1199
82.1761
79.6282
76.0889
73.0345
71.0483
69.9968
69.327
68.5504
67.7953
67.0188
66.1493
65.4585
64.6966
64.0565
63.3811
62.7486
62.3581
61.8492
61.9419
63.2477
82.0927
79.6231
76.1318
73.0646
71.0511
69.9874
69.3293
68.5646
67.7932
67.0287
66.1582
65.4566
64.7101
64.0639
63.408
62.7755
62.4111
61.9395
62.0256
63.4183
82.0526
79.6186
76.1533
73.0804
71.0527
69.9823
69.3303
68.576
67.7876
67.0364
66.1661
65.4535
64.7229
64.074
63.4298
62.8084
62.4508
62.0261
62.1313
63.5191
82.0555
79.6149
76.1538
73.0812
71.0531
69.9811
69.33
68.5844
67.779
67.0416
66.1739
65.4503
64.7383
64.0835
63.451
62.8416
62.4968
62.106
62.2524
63.5311
82.1014
79.6125
76.1334
73.0674
71.0521
69.9839
69.329
68.5884
67.7692
67.0426
66.1819
65.4438
64.7572
64.0922
63.473
62.875
62.5488
62.1767
62.3729
63.6177
82.1902
79.6109
76.0911
73.0393
71.0501
69.9907
69.3267
68.5899
67.7562
67.044
66.1889
65.4398
64.7672
64.1068
63.488
62.915
62.5816
62.255
62.3999
63.645
82.3239
79.6092
76.0262
72.997
71.0488
70.0001
69.3242
68.5864
67.7416
67.0387
66.1969
65.4321
64.7841
64.1199
63.5054
62.9507
62.6227
62.3237
62.4389
63.7925
82.5016
79.6066
75.9376
72.9422
71.0483
70.0119
69.3206
68.5788
67.7252
67.0339
66.2034
65.426
64.7965
64.1356
63.5207
62.9866
62.665
62.3854
62.5017
63.8309
82.7269
79.6004
75.8252
72.8747
71.0495
70.0239
69.3164
68.5669
67.7075
67.026
66.2096
65.419
64.8085
64.1523
63.535
63.0215
62.7088
62.4402
62.5918
63.7609
82.9996
79.5891
75.6889
72.7962
71.0527
70.0355
69.3114
68.5503
67.6885
67.0156
66.2152
65.4111
64.8211
64.169
63.5508
63.0535
62.755
62.4908
62.677
63.793
83.3219
79.5687
75.5292
72.7098
71.0574
70.0466
69.304
68.5303
67.6672
67.0059
66.2176
65.4055
64.8264
64.1911
63.5599
63.0929
62.7913
62.552
62.6657
63.7657
83.6985
79.5293
75.3485
72.618
71.0629
70.0542
69.2954
68.506
67.6455
66.9932
66.2199
65.3978
64.834
64.2109
63.572
63.1264
62.8342
62.6057
62.6716
63.8226
84.1296
79.4656
75.1473
72.5304
71.065
70.0571
69.2844
68.4787
67.623
66.9796
66.2201
65.3897
64.841
64.2293
63.5867
63.1544
62.8833
62.6533
62.7089
63.7988
84.6212
79.3694
74.9262
72.4485
71.0621
70.0544
69.2699
68.449
67.599
66.9663
66.2169
65.3818
64.8457
64.248
63.5996
63.1819
62.9316
62.7059
62.7616
63.7091
85.1737
79.2385
74.6863
72.3722
71.0544
70.0432
69.2531
68.4167
67.5733
66.9535
66.2117
65.3721
64.8503
64.2648
63.6137
63.204
62.9828
62.7563
62.8338
63.578
85.7881
79.0727
74.4271
72.3018
71.04
70.0225
69.2336
68.3836
67.5457
66.9404
66.2054
65.3619
64.8532
64.2805
63.627
63.2229
63.0305
62.8045
62.903
63.499
86.4633
78.8695
74.1531
72.2331
71.0183
69.9924
69.2101
68.3523
67.5179
66.9266
66.1986
65.3527
64.8545
64.2939
63.6384
63.2411
63.0683
62.8506
62.938
63.4096
87.1923
78.6249
73.873
72.1593
70.9877
69.9546
69.1839
68.3238
67.4931
66.9129
66.1919
65.3463
64.8554
64.3036
63.6496
63.2564
63.0983
62.8856
62.9697
63.3859
87.9663
78.3354
73.5926
72.0783
70.9476
69.9153
69.1588
68.3008
67.4749
66.9018
66.1868
65.344
64.8564
64.3102
63.66
63.269
63.1196
62.9111
62.9923
63.3591
88.7875
78.0035
73.3264
71.9964
70.9069
69.8856
69.1409
68.2861
67.4653
66.8949
66.1838
65.3453
64.8577
64.3139
63.6684
63.279
63.1323
62.9292
63.003
63.3579
89.7623
77.6645
73.1055
71.9308
70.8781
69.871
69.1322
68.279
67.4629
66.8917
66.1816
65.3485
64.8591
64.3148
63.6743
63.2862
63.1386
62.9395
63.0106
63.3679
91.175
77.4096
72.9616
71.8921
70.8639
69.8679
69.1294
68.276
67.4638
66.8908
66.1795
65.3514
64.8604
64.3137
63.6773
63.2905
63.1402
62.9433
63.0151
63.388
93.0831
77.3599
72.921
71.8825
70.8598
69.8685
69.129
68.2743
67.4651
66.891
66.1774
65.3528
64.8615
64.3117
63.6781
63.2925
63.1398
62.9431
63.0169
63.4296
57.381
57.8284
60.001
64.0387
69.0744
73.2515
76.5676
78.1523
76.2294
69.569
60.2085
48.7611
36.4959
28.4061
26.3684
25.9039
23.0907
17.5992
12.2036
7.26242
3.57793
1.43772
0.860182
2.13474
4.72906
8.20638
13.0119
18.911
24.7644
29.9061
34.6322
39.202
43.2023
46.4617
49.2432
51.5627
53.218
53.843
53.9246
53.266
51.74
49.2541
45.6945
41.8163
37.0329
32.2826
28.3982
24.303
21.5529
21.2878
21.6469
23.2568
27.4708
32.3992
37.4868
43.6593
50.2606
56.2011
61.0949
64.8848
67.9049
70.6011
72.6546
73.7481
74.689
75.9596
76.9098
77.1309
77.0012
76.7589
76.5258
76.1367
75.7068
74.9824
73.4548
71.5928
69.9428
67.9109
64.7066
59.6813
52.9488
45.2326
38.122
31.9357
26.0563
20.0808
14.7852
11.9341
12.6395
16.6992
23.0052
29.8266
36.7779
44.1467
50.9289
55.9433
59.2874
61.6645
63.031
63.503
62.6026
60.3395
57.0019
52.2844
46.3085
39.6125
32.3569
25.3717
19.868
16.2945
13.3429
10.0371
7.73441
8.18792
11.9891
17.1978
22.5197
28.5434
35.3557
41.7189
47.1126
51.951
57.9941
63.5388
67.2
68.346
68.6229
67.908
66.403
63.1959
59.0723
53.9153
48.6329
43.6602
39.6111
36.8949
35.8129
36.3317
37.8434
39.699
40.8123
41.0019
40.4758
39.6099
40.2542
43.1804
48.2496
54.6171
60.8318
65.8217
69.5399
72.3178
74.151
75.4662
76.6137
77.6718
78.5001
79.2883
79.8665
80.4957
80.8726
81.1616
81.633
81.6891
81.5339
81.3744
80.6953
79.8635
78.5956
76.7168
74.6832
71.6136
68.3953
64.5814
60.3613
55.776
51.2531
47.1392
43.3324
40.0459
37.9482
36.7454
35.7009
36.2561
38.3269
40.8932
44.3422
48.5298
52.4016
55.4382
57.9332
59.942
60.6445
59.895
57.2781
53.3214
47.6905
39.4208
25.9461
-5.81289
57.7739
58.4461
60.7366
64.8679
69.7737
73.8714
77.15
78.5832
76.482
69.8311
60.6039
50.0283
38.5966
30.2439
27.1749
26.4293
24.0308
19.0082
13.8402
9.59469
6.23258
4.26257
3.64961
4.67256
7.11135
10.5857
15.364
21.0635
26.6696
31.5814
35.9248
40.2487
44.1433
47.2949
49.9968
52.2052
53.8311
54.3143
54.1543
53.4244
51.4959
48.6922
44.8297
40.124
34.5759
29.2736
24.8277
20.1195
17.2115
16.97
17.031
18.7198
23.5402
28.8513
34.1736
40.8335
47.9534
54.3826
59.7713
63.9278
67.1943
70.0736
72.2556
73.4367
74.4223
75.768
76.8138
77.0813
76.9668
76.772
76.5936
76.2896
75.992
75.5142
74.167
72.2341
70.491
68.5947
65.5689
60.6142
53.948
46.3047
39.2642
33.1957
27.4725
21.794
16.8549
14.215
14.7897
18.4911
24.5421
31.2007
37.8507
44.9251
51.5489
56.4302
59.6825
61.8732
63.1539
63.5174
62.529
60.1459
56.7241
51.9357
46.033
39.2259
31.8852
24.8113
18.9876
14.9496
11.5979
8.04734
5.26223
5.95514
9.76812
15.0913
20.654
27.0218
34.0349
40.6713
46.0449
51.2614
57.5451
63.4747
67.1325
68.3355
68.4299
67.6536
66.2751
63.4999
59.7851
55.0503
50.0723
45.3389
41.3823
38.5813
37.2508
37.4672
38.715
40.4585
41.583
41.8055
41.3585
40.4614
40.8826
43.5707
48.4341
54.6928
60.7424
65.6766
69.3174
72.0049
73.8635
75.1985
76.3554
77.4107
78.2882
79.1186
79.669
80.3598
80.6819
81.0912
81.5454
81.6003
81.5162
81.3188
80.5736
79.7497
78.3323
76.3725
74.2121
70.9942
67.7257
63.5162
58.9707
54.0295
49.1894
44.7571
40.5924
37.2001
35.0292
33.371
32.597
33.2332
35.2934
37.8657
41.4289
45.7149
49.591
52.5946
55.2332
57.1785
57.9094
56.9901
54.2997
50.0816
43.878
35.0841
21.2694
-14.3508
58.3489
59.1651
61.4718
65.5277
70.1526
74.0695
77.1216
78.4169
76.2269
69.7104
60.6647
50.8497
40.4333
32.265
28.384
27.2536
25.0301
20.4528
15.8119
11.9117
8.77332
6.92379
6.31641
7.2781
9.79847
13.3198
17.8958
23.2608
28.5136
33.1674
37.2656
41.3496
45.1075
48.1945
50.8209
52.9037
54.5027
54.9359
54.5155
53.685
51.4172
48.2487
44.0757
38.4935
32.1191
26.2987
21.2887
16.0673
13.0312
12.7724
12.4971
14.2858
19.6509
25.2784
30.8762
38.0546
45.646
52.5531
58.4542
62.9737
66.4864
69.5666
71.8834
73.1528
74.1974
75.6212
76.7459
77.058
76.9679
76.8151
76.6906
76.4722
76.2672
75.9608
74.7042
72.7071
70.9517
69.2702
66.4482
61.605
55.0491
47.5467
40.6196
34.6713
29.1618
23.8057
19.2625
16.908
17.4037
20.7252
26.4528
32.916
39.2477
45.9356
52.3576
57.1164
60.3201
62.3651
63.5563
63.8302
62.7253
60.1996
56.6649
51.7231
45.8477
39.0694
31.6524
24.4264
18.2591
13.7603
10.1012
6.43431
3.62792
4.1332
7.84761
13.1979
19.0005
25.7217
32.9556
39.7713
45.1665
50.8024
57.2879
63.6019
67.2082
68.4791
68.3368
67.58
66.3687
63.9909
60.6271
56.3745
51.6969
47.1766
43.312
40.473
38.9191
38.8529
39.823
41.3902
42.5046
42.7342
42.3255
41.4484
41.7267
44.1993
48.8131
54.9201
60.7791
65.5863
69.126
71.7234
73.5644
74.9548
76.0891
77.1698
78.0668
78.9318
79.5162
80.2067
80.566
81.0215
81.4528
81.5712
81.5435
81.3571
80.5073
79.5671
78.0412
76.1131
73.7819
70.34
66.9633
62.5575
57.6961
52.3834
47.2655
42.5018
38.0496
34.4141
32.1947
30.7137
29.7157
30.2048
32.2004
34.8291
38.3391
42.7864
46.7477
49.8443
52.5803
54.6095
55.3008
54.2707
51.5567
46.9992
40.349
30.8442
17.4516
-16.7303
59.0349
59.89
62.1303
66.0225
70.221
73.8197
76.5664
77.6481
75.4302
69.1286
60.4412
51.3107
41.9373
34.1364
29.6188
28.1758
26.0946
21.9148
17.8028
14.1536
11.1
9.4087
8.97323
10.1296
12.821
16.2935
20.4754
25.3891
30.3146
34.6995
38.616
42.4602
46.0676
49.1179
51.7371
53.7242
55.3003
55.7531
55.104
54.0945
51.5141
47.8514
43.3525
36.9655
29.7075
23.4156
17.9062
12.2503
9.084
8.73883
8.17422
10.0753
15.8658
21.7238
27.6394
35.3533
43.3892
50.7485
57.149
62.0374
65.8089
69.089
71.5399
72.9099
74.0217
75.4891
76.6796
77.0563
77.0037
76.8859
76.8104
76.6674
76.5203
76.317
75.0958
73.0664
71.3739
69.9423
67.3317
62.6571
56.2738
48.969
42.1801
36.3924
31.1183
26.0482
21.8637
19.8325
20.3379
23.3115
28.6552
34.9135
40.9906
47.3024
53.439
58.0772
61.2346
63.1642
64.2079
64.3685
63.1082
60.4712
56.7894
51.7155
45.6737
38.969
31.6312
24.2255
17.711
12.7657
8.85681
5.18863
2.44885
2.73536
6.27081
11.5927
17.611
24.6327
32.1053
39.007
44.5683
50.4812
57.3184
63.8776
67.4918
68.7117
68.3858
67.7062
66.672
64.5868
61.6491
57.8845
53.4935
49.1542
45.3672
42.5065
40.7858
40.463
41.1536
42.4925
43.5585
43.7871
43.3799
42.5348
42.7392
45.0548
49.3965
55.2647
60.9463
65.544
68.9712
71.4626
73.2703
74.7035
75.8593
76.8997
77.8851
78.724
79.3603
80.0973
80.4563
81.0009
81.3472
81.5917
81.645
81.3962
80.5128
79.4918
77.7275
75.8126
73.3915
69.8688
66.2426
61.5404
56.6729
50.9165
45.4786
40.4466
35.6857
31.9123
29.6049
28.0404
26.9802
27.3279
29.1019
31.642
35.2608
39.8722
44.0461
47.2729
50.0581
52.2504
52.7949
51.919
48.9988
44.3387
37.2811
27.341
15.0015
-15.4256
59.7811
60.6049
62.7122
66.3554
70.0288
73.1906
75.5643
76.382
74.1461
68.2393
60.1548
51.5507
43.0379
35.6242
30.7295
29.16
27.2551
23.4512
19.7232
16.2773
13.4559
12.055
11.8771
13.2266
16.01
19.3041
23.0258
27.4586
32.0455
36.1729
39.9292
43.553
47.0093
50.0657
52.7282
54.6852
56.2344
56.7199
55.912
54.6951
51.8601
47.6184
42.6339
35.5207
27.4297
20.6444
14.7386
8.7472
5.43176
4.8922
4.12487
6.19144
12.2397
18.2284
24.5257
32.7865
41.1962
48.9652
55.8976
61.1674
65.1676
68.6334
71.226
72.696
73.862
75.3652
76.6318
77.0819
77.0645
76.9791
76.9485
76.8652
76.7632
76.6109
75.4059
73.4035
71.8267
70.6251
68.2406
63.7684
57.6248
50.553
43.9512
38.3689
33.3151
28.4699
24.5775
22.868
23.4608
26.159
31.1126
37.1147
42.9757
48.9869
54.8388
59.2965
62.3894
64.214
65.0869
65.08
63.6263
60.9018
57.0421
51.8895
45.6359
38.8626
31.6893
24.2057
17.3965
12.0434
7.87453
4.24684
1.60628
1.74511
5.05209
10.2978
16.5337
23.8098
31.4695
38.4158
44.1711
50.2997
57.6472
64.3116
67.952
69.0502
68.6054
67.9779
67.1091
65.2979
62.8721
59.5442
55.4437
51.252
47.5086
44.6392
42.7996
42.2488
42.6849
43.7646
44.7312
44.9493
44.521
43.7127
43.8852
46.0841
50.1836
55.7298
61.2043
65.5539
68.8514
71.2168
72.9956
74.4373
75.6324
76.6625
77.6651
78.5578
79.1813
79.9934
80.395
80.9732
81.3223
81.6059
81.7712
81.5012
80.5258
79.4557
77.6293
75.5044
72.927
69.4532
65.7557
60.6534
55.6717
49.7467
43.8836
38.5345
33.601
29.6431
27.2657
25.4368
24.3017
24.4666
26.1437
28.6214
32.5086
37.2707
41.6193
44.8526
47.7345
49.8985
50.625
49.4732
46.8401
42.0936
34.7515
24.6244
13.7246
-12.3479
60.4907
61.3034
63.2228
66.4999
69.6388
72.2945
74.2692
74.8477
72.6201
67.2317
59.9093
51.8349
44.1156
37.124
31.9756
30.2882
28.6451
25.1307
21.571
18.4961
16.1228
15.0062
15.0237
16.4105
19.1499
22.2335
25.5042
29.4729
33.6748
37.565
41.1956
44.6528
47.9734
51.0568
53.7708
55.7257
57.2602
57.825
56.926
55.4866
52.4426
47.6784
42.0577
34.1988
25.3606
18.048
11.7972
5.56693
2.09312
1.28073
0.387291
2.66389
8.81223
14.8486
21.5876
30.3744
39.0754
47.2459
54.737
60.3439
64.543
68.21
70.9585
72.5132
73.7265
75.2831
76.6117
77.132
77.1499
77.0863
77.1035
77.0806
77.019
76.8889
75.7329
73.8303
72.39
71.3573
69.1603
64.9373
59.0662
52.2971
45.9233
40.5918
35.7193
31.0319
27.3796
25.9629
26.6868
29.1831
33.7909
39.509
45.1128
50.8529
56.4474
60.6992
63.6742
65.4493
66.1804
65.948
64.3063
61.442
57.4007
52.1177
45.7953
38.9042
31.7619
24.3188
17.2967
11.588
7.18955
3.57753
1.06377
1.09229
4.19376
9.36044
15.777
23.2594
31.0641
38.0344
43.908
50.3376
58.2256
64.8895
68.5337
69.4674
68.928
68.3701
67.6876
66.1966
64.243
61.324
57.4958
53.442
49.7088
46.8194
44.9118
44.1792
44.3788
45.1827
45.9959
46.1979
45.7639
44.9895
45.1395
47.2499
51.1548
56.3423
61.5344
65.6319
68.7428
71.0089
72.718
74.1932
75.3755
76.4339
77.4683
78.352
79.0467
79.8557
80.383
80.9389
81.3103
81.687
81.8773
81.5993
80.6167
79.3704
77.6347
75.4027
72.5049
69.02
65.2277
60.0524
54.8069
48.5568
42.6584
36.8265
31.6653
27.6733
25.1467
23.4256
21.9835
21.8665
23.3556
25.9384
29.9845
34.9343
39.2706
42.6317
45.4587
47.9405
48.6314
47.4068
44.7598
40.1851
33.0286
22.4907
13.181
-9.27783
61.1028
61.8374
63.6006
66.4416
69.0268
71.2506
72.794
73.19
71.1198
66.237
59.64
52.2461
45.387
38.8871
33.5351
31.6079
30.2603
27.0419
23.5856
20.9029
18.988
18.1728
18.3145
19.584
22.1215
24.9761
27.867
31.3974
35.2276
38.8985
42.4232
45.7616
48.9859
52.082
54.8339
56.8339
58.3955
59.0556
58.138
56.484
53.2134
48.0082
41.7078
33.0984
23.562
15.7281
9.15274
2.74213
-0.914572
-2.04869
-3.00125
-0.525117
5.58364
11.6616
18.9143
28.1504
37.0599
45.6493
53.6823
59.5655
63.9575
67.842
70.7368
72.3656
73.6319
75.2318
76.6006
77.1877
77.2482
77.2199
77.2906
77.329
77.3004
77.1955
76.1781
74.4363
73.0991
72.1239
70.064
66.1235
60.5841
54.1678
48.0825
43.0157
38.2773
33.7353
30.2814
29.1115
29.9755
32.3134
36.6225
42.0777
47.4165
52.8417
58.1557
62.2033
65.0547
66.7945
67.4361
66.975
65.1863
62.1271
57.9111
52.4063
46.0323
39.153
31.972
24.4966
17.3844
11.3477
6.73531
3.16822
0.785119
0.770109
3.71085
8.81775
15.3635
22.9844
30.9086
37.8482
43.8178
50.644
59.0055
65.6049
69.1797
69.9028
69.3668
68.9113
68.3928
67.2492
65.7113
63.1746
59.5916
55.6873
51.9365
49.032
47.0846
46.1907
46.1824
46.7214
47.3341
47.5043
47.1013
46.3825
46.4859
48.5141
52.2727
57.1051
61.9395
65.7644
68.6696
70.8112
72.4749
73.9291
75.1537
76.172
77.2804
78.1545
78.8909
79.7423
80.3433
80.9569
81.2817
81.761
82.0613
81.7059
80.717
79.3001
77.5516
75.3502
72.2815
68.67
64.6126
59.4463
54.1701
47.3722
41.4129
35.5196
29.9797
25.8776
23.2734
21.2974
19.7597
19.5337
20.8379
23.4013
27.5035
32.608
37.0277
40.553
43.5195
46.1272
46.9242
45.9168
42.9377
38.9507
32.0906
21.0987
13.2128
-6.59258
61.9154
62.4414
63.8208
66.1332
68.1753
70.0987
71.2708
71.4791
69.7108
65.3343
59.3815
52.78
46.7629
40.8295
35.421
33.1414
32.0545
29.1932
25.8523
23.4183
21.9352
21.4639
21.609
22.599
24.8594
27.4923
30.104
33.2398
36.7042
40.1808
43.6026
46.8253
49.9977
53.1338
55.9406
58.0423
59.6823
60.4088
59.4877
57.6621
54.1435
48.5079
41.5482
32.2806
22.1036
13.7618
6.87999
0.328902
-3.56221
-5.04913
-6.02696
-3.39077
2.60527
8.73663
16.5186
26.113
35.1761
44.1956
52.7313
58.8566
63.4283
67.5328
70.5604
72.2411
73.5484
75.1761
76.5918
77.2526
77.3701
77.3873
77.5123
77.618
77.6362
77.5811
76.7735
75.2422
73.9266
72.9064
70.9307
67.2902
62.164
56.1262
50.4012
45.5582
40.987
36.6208
33.3127
32.3076
33.2884
35.5126
39.5525
44.7661
49.8875
55.0008
59.9694
63.8288
66.5338
68.2451
68.765
68.1574
66.2328
63.0041
58.6313
52.9071
46.3408
39.468
32.3631
24.8508
17.6406
11.3716
6.52917
2.98892
0.756942
0.753274
3.58462
8.65712
15.2809
22.9993
30.9685
37.8308
43.9537
51.232
59.9172
66.4779
69.8724
70.4272
69.9671
69.5604
69.163
68.4037
67.2428
65.0435
61.7166
57.9534
54.2051
51.254
49.2688
48.2326
48.0342
48.3362
48.735
48.8498
48.5001
47.882
47.9329
49.8318
53.4848
57.9805
62.4073
65.9494
68.6433
70.6383
72.2599
73.6753
74.9053
75.966
77.0456
77.9713
78.7338
79.6378
80.2878
80.9398
81.3601
81.8159
82.1639
81.8521
80.8371
79.2533
77.4127
75.1551
72.0674
68.4903
64.0302
58.8617
53.4589
46.4694
40.1932
34.174
28.6657
24.3427
21.5068
19.4228
17.7345
17.361
18.5462
20.994
25.2183
30.4267
35.0406
38.6509
41.9517
44.2382
45.6995
44.5422
41.8393
37.9184
31.8907
20.6089
13.1033
-4.03562
62.9647
63.2566
63.9771
65.6759
67.205
68.9125
69.849
69.8412
68.3896
64.5709
59.2158
53.3703
48.0933
42.831
37.5222
34.868
33.9092
31.478
28.3399
26.0213
24.8697
24.6665
24.7284
25.4061
27.3766
29.8181
32.1963
34.986
38.1035
41.378
44.7048
47.833
50.9919
54.2196
57.1095
59.3519
61.0953
61.8923
60.9789
58.988
55.1942
49.1086
41.5149
31.7045
21.0048
12.1798
5.00271
-1.66575
-5.83234
-7.69272
-8.65813
-5.93716
-0.106573
6.15363
14.4593
24.2883
33.4505
42.9191
51.9155
58.2228
62.9531
67.2809
70.4311
72.1468
73.4867
75.1417
76.6047
77.3411
77.5255
77.595
77.7783
77.9539
78.0429
78.0683
77.4935
76.159
74.826
73.6806
71.7404
68.4285
63.7598
58.1485
52.796
48.2084
43.8553
39.6616
36.4613
35.5634
36.6122
38.771
42.5706
47.5195
52.4566
57.3243
61.9667
65.6242
68.1797
69.7964
70.1807
69.4489
67.3812
64.0495
59.554
53.7111
46.8657
39.8803
32.8257
25.4657
18.1842
11.6903
6.67356
3.0948
0.988834
1.04285
3.85009
8.86577
15.5067
23.3376
31.2338
38.0197
44.3441
52.1058
60.9263
67.5551
70.6446
71.1008
70.6955
70.3362
70.0577
69.6881
68.8388
66.9474
63.8709
60.2413
56.4986
53.4644
51.4527
50.2561
49.8568
49.9726
50.1843
50.2243
49.9286
49.4342
49.4688
51.2065
54.7505
58.9432
62.9303
66.1786
68.6311
70.5347
72.0425
73.4643
74.6395
75.7549
76.8441
77.7543
78.5941
79.5284
80.2669
80.872
81.4163
81.984
82.2377
81.9127
80.9157
79.3068
77.2603
74.9704
71.7376
68.3463
63.561
58.441
52.7149
45.6133
39.4103
32.9131
27.3591
22.9987
19.9416
17.6552
15.9777
15.4992
16.5092
18.9625
23.336
28.7063
33.2677
37.1628
40.4658
42.9323
44.4055
43.7371
40.8384
36.8246
32.1605
20.4313
13.132
-2.15773
63.7737
63.8992
64.0771
65.2344
66.33
67.7876
68.5858
68.3853
67.1742
63.9385
59.1694
53.9439
49.3125
44.7896
39.7311
36.7433
35.753
33.7904
30.9553
28.6621
27.6645
27.5985
27.5829
28.0576
29.7236
31.9396
34.152
36.6448
39.4277
42.5067
45.7676
48.8463
51.9888
55.2951
58.2942
60.734
62.6274
63.5018
62.5916
60.4189
56.3206
49.8039
41.609
31.3271
20.2182
10.9715
3.51922
-3.26463
-7.73464
-9.96397
-10.8959
-8.12453
-2.47889
3.95518
12.7184
22.6535
31.9154
41.8817
51.2502
57.6477
62.5255
67.0748
70.3462
72.1038
73.4846
75.1631
76.6653
77.4732
77.7092
77.8322
78.0831
78.3355
78.5113
78.6331
78.2524
77.0731
75.7272
74.4274
72.5086
69.5338
65.3473
60.1864
55.2412
50.948
46.8269
42.8323
39.7365
38.8814
39.925
42.0397
45.6756
50.3444
55.0741
59.7109
64.1092
67.5592
69.9895
71.4757
71.7198
70.8055
68.6483
65.2287
60.6624
54.7052
47.668
40.5383
33.4418
26.2145
19.0626
12.3842
7.18399
3.55692
1.52147
1.67164
4.46394
9.4312
16.0882
23.9328
31.6627
38.3904
44.9749
53.2358
62.0924
68.7542
71.4488
71.8948
71.578
71.3343
71.1767
71.1614
70.5594
68.9017
66.018
62.5171
58.7934
55.6973
53.6169
52.2038
51.5872
51.5781
51.6802
51.6223
51.3527
51.0025
51.0562
52.6456
56.0353
59.9518
63.5125
66.443
68.6597
70.4486
71.8662
73.2318
74.4132
75.508
76.6459
77.5479
78.4534
79.409
80.2463
80.8843
81.3909
82.1164
82.4274
82.0139
80.8772
79.3679
77.1353
74.777
71.47
67.9855
63.1529
58.1343
52.0767
44.7868
38.7053
32.0986
26.3507
21.7597
18.4962
16.0535
14.3586
13.9095
14.8008
17.3087
21.7662
27.3273
31.8225
35.8507
39.2979
41.9437
43.2439
43.5665
40.271
36.3225
32.4388
20.4304
12.698
-0.714396
64.3451
64.3834
64.1284
64.8609
65.6389
66.7738
67.4662
67.1102
66.0185
63.3613
59.2008
54.4719
50.4389
46.6129
41.8964
38.6807
37.5655
36.0204
33.5166
31.225
30.2251
30.1901
30.1907
30.5807
31.9632
33.895
35.952
38.2286
40.7051
43.5776
46.7583
49.7977
52.9657
56.3659
59.4896
62.1576
64.247
65.207
64.3006
61.9335
57.5063
50.5668
41.8271
31.1276
19.6886
10.0928
2.40071
-4.48802
-9.28516
-11.8442
-12.7208
-9.94714
-4.45959
2.1999
11.3114
21.2317
30.6257
41.0907
50.7095
57.1596
62.189
66.9384
70.3075
72.1099
73.5354
75.2347
76.7682
77.6372
77.9278
78.106
78.4115
78.7377
79.0207
79.2158
78.9585
77.9084
76.5594
75.1367
73.2439
70.6254
66.9106
62.212
57.7275
53.7363
49.8571
46.0902
43.1213
42.2433
43.2289
45.3215
48.8151
53.2306
57.7151
62.1274
66.2636
69.5685
71.8709
73.2844
73.3754
72.266
70.0639
66.5482
61.9568
55.8287
48.6727
41.4084
34.3013
27.1727
20.1495
13.447
8.09843
4.39087
2.37258
2.65624
5.43084
10.3386
17.0385
24.7696
32.2963
38.9405
45.8747
54.5497
63.402
69.8511
72.2684
72.8083
72.6184
72.5208
72.5117
72.8079
72.3443
70.818
68.093
64.774
61.1189
57.9392
55.7045
54.0364
53.2121
53.13
53.2137
53.0595
52.7574
52.5518
52.6699
54.1332
57.3328
60.9593
64.1161
66.7213
68.7216
70.3719
71.7073
72.9925
74.1691
75.2616
76.4174
77.3448
78.3071
79.3079
80.1803
80.907
81.4568
82.1623
82.5713
82.2392
80.9244
79.2812
77.0479
74.496
71.3202
67.6788
62.7245
57.8756
51.5796
44.2866
38.0021
31.2921
25.6555
20.8274
17.2417
14.6966
13.0267
12.5485
13.4183
15.9506
20.4349
26.036
30.7524
34.5187
38.676
41.0685
42.7212
43.1415
40.8736
35.9954
33.0014
21.2854
11.5984
1.01221
64.7339
64.7471
64.1587
64.5602
65.0859
65.8767
66.447
65.9938
64.9441
62.846
59.3072
55.0096
51.4611
48.1876
43.9032
40.6258
39.333
38.0834
35.8764
33.5903
32.5739
32.5743
32.6504
32.9853
34.0683
35.7029
37.6149
39.7341
41.9352
44.5713
47.661
50.6872
53.9071
57.431
60.7177
63.6232
65.9076
66.9463
66.053
63.5148
58.7727
51.3962
42.1735
31.1109
19.4042
9.50346
1.61003
-5.37536
-10.4701
-13.3297
-14.1005
-11.3229
-5.99451
0.882253
10.1964
20.0289
29.6536
40.5811
50.3069
56.7615
61.9522
66.8974
70.3355
72.1527
73.6054
75.3243
76.8813
77.8103
78.1659
78.4095
78.7545
79.1408
79.5339
79.7801
79.5752
78.6284
77.3047
75.8019
74.0044
71.7278
68.4374
64.2284
60.2482
56.5455
52.8887
49.3849
46.5631
45.6332
46.5288
48.6139
51.9665
56.1209
60.3789
64.5522
68.4142
71.549
73.7887
75.151
75.1283
73.8721
71.568
68.0094
63.3777
57.2138
49.8651
42.4137
35.2965
28.3774
21.4972
14.7982
9.38466
5.5817
3.60552
3.98402
6.74097
11.6041
18.2934
25.7899
33.1125
39.6926
47.0459
56.0113
64.8019
70.8035
73.1526
73.7813
73.7087
73.8165
73.9868
74.4858
74.0698
72.6453
70.1118
67.0143
63.4069
60.1216
57.6749
55.7352
54.7626
54.6674
54.7711
54.5283
54.1542
54.0757
54.3063
55.6589
58.6413
61.9347
64.7222
67.0028
68.7848
70.2973
71.5302
72.7475
73.8836
74.9917
76.158
77.1218
78.1572
79.2139
80.1158
80.8552
81.5467
82.2818
82.6304
82.3892
81.1157
79.1868
76.9169
74.2999
71.151
67.6172
62.4952
57.5634
51.2902
44.0977
37.5912
30.6924
25.0622
19.9908
16.2724
13.5647
11.9212
11.4569
12.3044
14.8125
19.3943
24.9714
29.9315
33.6599
38.1572
40.8897
42.2537
42.8051
41.6638
35.2771
33.879
22.4117
11.0058
2.92538
64.9995
64.9942
64.188
64.325
64.6325
65.0897
65.5344
65.0722
64.0524
62.4369
59.4709
55.5439
52.3369
49.5158
45.7425
42.531
41.0078
39.9047
38.0148
35.8481
34.845
34.8621
34.937
35.1819
36.0553
37.437
39.1581
41.1066
43.0947
45.5235
48.4946
51.5066
54.8041
58.455
61.9336
65.0926
67.5672
68.6645
67.7814
65.0898
60.081
52.3366
42.704
31.3345
19.4001
9.22483
1.14655
-5.92417
-11.2709
-14.3518
-15.0155
-12.2429
-7.04222
0.00899587
9.36609
19.0788
29.0085
40.3214
50.0453
56.4562
61.8159
66.9192
70.4016
72.233
73.7106
75.4318
76.9999
77.994
78.4261
78.7272
79.096
79.5351
80.0371
80.3319
80.1163
79.2593
77.9842
76.4755
74.8445
72.8558
69.9467
66.2667
62.7997
59.3117
55.8684
52.6598
50.0046
49.0294
49.826
51.885
55.1165
58.9651
63.0096
66.9703
70.5926
73.5427
75.7305
77.0457
76.98
75.5698
73.1305
69.5754
64.8909
58.7819
51.3006
43.6216
36.4107
29.6308
23.0271
16.4195
10.9692
7.10942
5.15766
5.63188
8.35912
13.2238
19.789
26.9897
34.0704
40.6568
48.4722
57.658
66.2609
71.7103
74.0517
74.7303
74.8286
75.2197
75.5292
76.1231
75.7794
74.4265
72.0833
69.1431
65.5513
62.1928
59.516
57.3551
56.306
56.2352
56.3631
56.0286
55.546
55.5676
55.9686
57.2418
59.9517
62.8703
65.2953
67.2656
68.8481
70.1944
71.3223
72.4579
73.5593
74.6628
75.8658
76.8708
77.9929
79.1064
80.0529
80.7951
81.5637
82.4097
82.7314
82.4442
81.207
79.175
76.7614
74.2742
71.0044
67.3906
62.4775
57.2825
51.0074
44.0819
37.3151
30.4899
24.84
19.3884
15.5204
12.7424
11.0606
10.6578
11.4512
14.0382
18.7034
24.3677
29.4161
33.362
37.5233
41.1548
42.0801
43.087
42.2663
35.3654
34.241
23.2883
11.8392
5.38658
65.2088
65.1482
64.2185
64.142
64.2909
64.4559
64.7919
64.3774
63.367
62.085
59.6373
56.0724
53.1056
50.6558
47.4312
44.303
42.5599
41.6124
40.0449
38.0538
37.0313
36.9598
37.01
37.2287
37.9713
39.102
40.5768
42.3597
44.1866
46.4127
49.2401
52.2335
55.6075
59.3906
63.083
66.5248
69.2051
70.3226
69.4122
66.5637
61.3401
53.3649
43.4562
31.8603
19.7308
9.32819
1.05287
-6.08406
-11.6142
-14.8611
-15.3963
-12.6697
-7.60908
-0.442961
8.86271
18.4665
28.7371
40.3206
49.937
56.2921
61.7832
66.9832
70.4951
72.3663
73.8823
75.6015
77.1698
78.1942
78.6986
79.0513
79.4226
79.9107
80.5343
80.8725
80.6224
79.8597
78.6582
77.218
75.7812
74.0424
71.4656
68.3376
65.304
61.9849
58.7711
55.8513
53.4013
52.4112
53.0916
55.1074
58.1914
61.7591
65.5358
69.3358
72.7613
75.6048
77.7113
78.9827
78.8854
77.3269
74.7905
71.2119
66.5254
60.378
52.8882
45.0908
37.7398
30.9433
24.5144
18.1533
12.7863
8.92403
6.89594
7.565
10.2878
15.1004
21.4857
28.3921
35.1694
41.8403
50.1314
59.4711
67.6986
72.6442
74.9459
75.7105
76.0395
76.6975
77.1476
77.8234
77.5538
76.1809
73.9846
71.0981
67.5297
64.1573
61.2873
58.979
57.9096
57.866
57.9872
57.5583
56.9485
57.0289
57.6302
58.8776
61.256
63.7751
65.8032
67.5029
68.8745
70.0553
71.0686
72.0992
73.1674
74.2679
75.5165
76.601
77.7981
78.9747
79.959
80.7433
81.5534
82.4659
82.8223
82.5481
81.1905
79.1237
76.6498
74.2836
71.061
67.136
62.4285
57.192
50.8554
44.1058
36.9812
30.2999
24.8061
19.1662
15.2007
12.2166
10.5254
10.1505
10.9732
13.6945
18.4219
24.1308
29.308
33.2459
37.2817
41.2884
42.8209
43.0618
43.5516
36.7901
33.9628
25.0487
14.0254
8.95125
65.3268
65.3127
64.3257
64.0239
64.0268
63.9533
64.1624
63.8384
62.8447
61.7619
59.7728
56.5813
53.8233
51.6845
48.9433
45.9945
44.1509
43.3058
41.9612
40.0862
39.042
38.9286
38.9899
39.1815
39.7933
40.7046
41.9454
43.5365
45.1962
47.2172
49.8855
52.8721
56.3224
60.245
64.1854
67.8992
70.7277
71.8367
70.8793
67.8558
62.4561
54.3731
44.3675
32.7073
20.4496
9.85974
1.38966
-5.82174
-11.4355
-14.7717
-15.2597
-12.6255
-7.72343
-0.551601
8.61693
18.1649
28.8176
40.5341
49.9416
56.2599
61.8443
67.103
70.6272
72.544
74.1047
75.8168
77.3592
78.3808
78.9579
79.3616
79.7303
80.2885
81.0514
81.4239
81.1543
80.4903
79.3724
78.0553
76.8286
75.2929
73.022
70.4089
67.71
64.5479
61.578
58.9281
56.6994
55.7379