/*--------------------------------*- C++ -*----------------------------------*\
| =========                 |                                                 |
| \\      /  F ield         | OpenFOAM: The Open Source CFD Toolbox           |
|  \\    /   O peration     | Version:  2.4.0                                 |
|   \\  /    A nd           | Web:      www.OpenFOAM.org                      |
|    \\/     M anipulation  |                                                 |
\*---------------------------------------------------------------------------*/
FoamFile
{
    version     2.0;
    format      ascii;
    class       volVectorField;
    location    "0.184";
    object      UMean;
}
// * * * * * * * * * * * * * * * * * * * * * * * * * * * * * * * * * * * * * //

dimensions      [0 1 -1 0 0 0 0];

internalField   nonuniform List<vector> 
4400
(
(5.42942 0.314182 0)
(3.39152 0.0612507 0)
(2.66502 0.0015406 0)
(2.3261 -0.00225058 0)
(2.18225 -0.00146572 0)
(2.1108 -0.000739001 0)
(2.07009 -0.000227009 0)
(2.04625 -0.000323153 0)
(2.04367 0.000941077 0)
(1.8892 -0.05211 0)
(8.67559 0.846892 0)
(7.60758 0.340172 0)
(6.70823 0.113987 0)
(6.01702 0.0521855 0)
(5.63994 0.0245008 0)
(5.4254 0.0133857 0)
(5.3015 0.00852363 0)
(5.22476 0.00365822 0)
(5.16942 0.0134335 0)
(5.13718 -0.110697 0)
(9.85388 0.923151 0)
(10.0256 0.468947 0)
(9.5328 0.207905 0)
(8.82597 0.123411 0)
(8.35395 0.0697269 0)
(8.04095 0.0399492 0)
(7.86705 0.0248679 0)
(7.73023 0.0147711 0)
(7.67356 0.0120397 0)
(7.5948 -0.106279 0)
(10.0745 0.793555 0)
(11.1217 0.48747 0)
(11.265 0.258339 0)
(10.8449 0.187311 0)
(10.4685 0.121897 0)
(10.1411 0.0752431 0)
(9.97894 0.047903 0)
(9.78779 0.0293443 0)
(9.77561 0.0180434 0)
(9.59238 -0.101407 0)
(10.004 0.63647 0)
(11.3221 0.426704 0)
(11.9502 0.239153 0)
(11.9339 0.205839 0)
(11.8418 0.155758 0)
(11.6197 0.104513 0)
(11.5667 0.0730042 0)
(11.367 0.0424529 0)
(11.4084 0.0306142 0)
(11.2184 -0.108178 0)
(9.97693 0.506714 0)
(11.2386 0.35227 0)
(12.0125 0.182601 0)
(12.2129 0.17512 0)
(12.3908 0.148983 0)
(12.3718 0.109999 0)
(12.4767 0.0808119 0)
(12.4013 0.0525504 0)
(12.4793 0.0304656 0)
(12.3857 -0.0874641 0)
(9.97889 0.390687 0)
(11.1734 0.282508 0)
(11.9469 0.133021 0)
(12.1985 0.130942 0)
(12.4349 0.117952 0)
(12.5508 0.089612 0)
(12.7431 0.0676748 0)
(12.8271 0.0457762 0)
(12.9585 0.0153676 0)
(12.9927 -0.0383562 0)
(9.96625 0.271797 0)
(11.1457 0.212257 0)
(11.8827 0.0868541 0)
(12.1763 0.0969388 0)
(12.3795 0.0784918 0)
(12.5437 0.069412 0)
(12.7291 0.0380614 0)
(12.8825 0.036028 0)
(13.0287 -0.0148289 0)
(13.1276 -0.0390811 0)
(9.95286 0.165104 0)
(11.126 0.125515 0)
(11.843 0.0531827 0)
(12.1632 0.0545311 0)
(12.3428 0.0496043 0)
(12.524 0.0370677 0)
(12.6937 0.0225687 0)
(12.8619 0.00753465 0)
(12.9989 -0.0265392 0)
(13.0951 -0.0948222 0)
(9.95435 0.0524749 0)
(11.1081 0.0451112 0)
(11.8312 0.0133946 0)
(12.1488 0.0218703 0)
(12.3321 0.0105074 0)
(12.5074 0.0155859 0)
(12.6816 -0.00514329 0)
(12.8431 -0.00743422 0)
(12.9814 -0.0544498 0)
(13.0597 -0.117705 0)
(9.95419 -0.0535756 0)
(11.1091 -0.0423319 0)
(11.8301 -0.0181059 0)
(12.1497 -0.0186918 0)
(12.3317 -0.0204151 0)
(12.5086 -0.0155461 0)
(12.68 -0.0238398 0)
(12.8417 -0.0317774 0)
(12.974 -0.074103 0)
(13.0476 -0.139834 0)
(9.96124 -0.165078 0)
(11.1203 -0.124347 0)
(11.8489 -0.0557267 0)
(12.1582 -0.0540674 0)
(12.3477 -0.0563848 0)
(12.5182 -0.0410784 0)
(12.694 -0.0467685 0)
(12.8493 -0.0522187 0)
(12.9823 -0.0948739 0)
(13.0486 -0.161091 0)
(9.98216 -0.274515 0)
(11.1333 -0.207989 0)
(11.8945 -0.0924898 0)
(12.1658 -0.0924689 0)
(12.3871 -0.0896024 0)
(12.5311 -0.0684403 0)
(12.7297 -0.0684132 0)
(12.858 -0.0727501 0)
(12.9991 -0.114154 0)
(13.0338 -0.183711 0)
(9.99766 -0.390739 0)
(11.1549 -0.281715 0)
(11.963 -0.135231 0)
(12.18 -0.129943 0)
(12.4484 -0.124559 0)
(12.5284 -0.0940664 0)
(12.7487 -0.0903657 0)
(12.7812 -0.090466 0)
(12.911 -0.129656 0)
(12.8155 -0.198642 0)
(9.98676 -0.508668 0)
(11.2258 -0.350073 0)
(12.0222 -0.185771 0)
(12.1994 -0.172711 0)
(12.399 -0.156254 0)
(12.3516 -0.113665 0)
(12.4708 -0.102244 0)
(12.3398 -0.0963715 0)
(12.3828 -0.128104 0)
(12.1079 -0.193733 0)
(10.0098 -0.637177 0)
(11.3132 -0.42538 0)
(11.957 -0.241408 0)
(11.9228 -0.204134 0)
(11.8471 -0.162261 0)
(11.5967 -0.107778 0)
(11.5497 -0.0916759 0)
(11.2885 -0.0800642 0)
(11.2522 -0.113773 0)
(10.8615 -0.150611 0)
(10.0769 -0.794277 0)
(11.1152 -0.486733 0)
(11.2704 -0.259987 0)
(10.8328 -0.186132 0)
(10.477 -0.127214 0)
(10.1051 -0.077244 0)
(9.97097 -0.0642324 0)
(9.67007 -0.0558916 0)
(9.6079 -0.0880693 0)
(9.15103 -0.0974339 0)
(9.8541 -0.923415 0)
(10.022 -0.468494 0)
(9.53577 -0.208861 0)
(8.8165 -0.122876 0)
(8.35952 -0.0730121 0)
(8.00382 -0.0417943 0)
(7.85971 -0.0356249 0)
(7.59082 -0.0330884 0)
(7.5268 -0.0565564 0)
(7.04782 -0.0558613 0)
(8.67536 -0.84702 0)
(7.60587 -0.340026 0)
(6.70915 -0.114422 0)
(6.01095 -0.0520441 0)
(5.64118 -0.0260371 0)
(5.39584 -0.0145047 0)
(5.28892 -0.0135751 0)
(5.09936 -0.0146429 0)
(5.03534 -0.0265822 0)
(4.62763 -0.0239125 0)
(5.42915 -0.314204 0)
(3.39105 -0.0612174 0)
(2.6648 -0.00161365 0)
(2.32363 0.00229053 0)
(2.18085 0.00130477 0)
(2.09663 0.000511147 0)
(2.05594 -0.00021676 0)
(1.98113 -0.00114277 0)
(1.93347 -0.00251692 0)
(1.73831 0.00932189 0)
(2.9194 -0.18258 0)
(3.29716 -0.0713863 0)
(3.88578 -0.147605 0)
(4.26756 -0.191454 0)
(4.70359 -0.252504 0)
(5.00385 -0.340092 0)
(5.43901 -0.389515 0)
(5.68603 -0.502887 0)
(6.1712 -0.629849 0)
(6.34815 -0.662766 0)
(6.77243 -0.78889 0)
(7.01628 -0.846515 0)
(7.41017 -0.996771 0)
(7.72748 -1.12006 0)
(8.1083 -1.23527 0)
(8.42925 -1.32907 0)
(8.82188 -1.50301 0)
(9.10428 -1.62275 0)
(9.34746 -1.76 0)
(9.61182 -1.85433 0)
(9.75574 -1.95695 0)
(9.9718 -2.02318 0)
(10.0692 -2.11227 0)
(10.2774 -2.18865 0)
(10.381 -2.27927 0)
(10.4923 -2.33988 0)
(10.4974 -2.40142 0)
(10.4681 -2.42808 0)
(10.3474 -2.42642 0)
(10.1639 -2.34132 0)
(9.96928 -2.26108 0)
(9.84639 -2.16271 0)
(9.61599 -2.06344 0)
(9.45148 -1.89456 0)
(9.11774 -1.72817 0)
(8.89051 -1.47252 0)
(8.5956 -1.23681 0)
(8.29606 -0.922962 0)
(8.14386 -0.733463 0)
(7.91553 -0.491798 0)
(7.91144 -0.338737 0)
(7.73987 -0.110837 0)
(7.72335 0.0404498 0)
(7.62758 0.301801 0)
(7.5956 0.415418 0)
(7.49868 0.666421 0)
(7.5074 0.709046 0)
(7.32849 0.956044 0)
(7.38029 0.899055 0)
(7.20558 1.08994 0)
(7.23369 0.94014 0)
(7.10003 1.13522 0)
(7.09496 0.883445 0)
(7.0123 1.0832 0)
(7.0077 0.744025 0)
(6.9587 0.984615 0)
(6.97407 0.553105 0)
(6.93264 0.859913 0)
(6.94375 0.359772 0)
(6.94459 0.727402 0)
(6.95514 0.185163 0)
(6.97789 0.610337 0)
(6.9472 0.00547572 0)
(6.96899 0.47147 0)
(6.90646 -0.172296 0)
(6.9423 0.375244 0)
(6.91391 -0.282976 0)
(6.92485 0.305587 0)
(6.92154 -0.360045 0)
(6.84231 0.249298 0)
(6.86711 -0.437052 0)
(6.72063 0.257053 0)
(6.75746 -0.432973 0)
(6.60913 0.333021 0)
(6.67079 -0.396036 0)
(6.60417 0.372796 0)
(6.71134 -0.351158 0)
(6.57894 0.446026 0)
(6.77072 -0.234621 0)
(6.47414 0.592329 0)
(6.77405 -0.0587685 0)
(6.3932 0.716341 0)
(6.75439 0.130714 0)
(6.27419 0.869955 0)
(6.75797 0.361831 0)
(6.14516 1.07146 0)
(6.6799 0.595339 0)
(6.03833 1.30215 0)
(6.61831 0.892126 0)
(5.95674 1.55422 0)
(6.51872 1.1827 0)
(5.84976 1.83012 0)
(6.43423 1.48535 0)
(5.75845 2.22432 0)
(6.30271 1.89233 0)
(5.47709 2.88497 0)
(6.36525 2.61969 0)
(5.17697 4.28613 0)
(6.41614 4.4316 0)
(3.78626 8.38939 0)
(5.40955 -0.201477 0)
(5.51018 -0.161647 0)
(5.81454 -0.250795 0)
(5.997 -0.330121 0)
(6.31208 -0.399915 0)
(6.51321 -0.479246 0)
(6.8573 -0.547974 0)
(7.06284 -0.63788 0)
(7.43096 -0.766866 0)
(7.60913 -0.809065 0)
(7.9194 -0.924056 0)
(8.15815 -0.990992 0)
(8.4884 -1.12519 0)
(8.80559 -1.25945 0)
(9.12543 -1.38558 0)
(9.40193 -1.47739 0)
(9.71864 -1.6256 0)
(9.95129 -1.72936 0)
(10.1223 -1.8519 0)
(10.3113 -1.93691 0)
(10.387 -2.02307 0)
(10.5533 -2.08451 0)
(10.6356 -2.1675 0)
(10.7633 -2.23694 0)
(10.806 -2.3044 0)
(10.7996 -2.34001 0)
(10.7436 -2.37926 0)
(10.6173 -2.37449 0)
(10.3843 -2.34475 0)
(10.1595 -2.26339 0)
(9.941 -2.18729 0)
(9.77426 -2.08383 0)
(9.48082 -1.96553 0)
(9.26781 -1.77602 0)
(8.86708 -1.59638 0)
(8.62194 -1.34364 0)
(8.25991 -1.11236 0)
(7.99563 -0.820134 0)
(7.8252 -0.661515 0)
(7.60898 -0.433698 0)
(7.6318 -0.301568 0)
(7.43697 -0.0756344 0)
(7.47377 0.0715036 0)
(7.36184 0.327155 0)
(7.38653 0.436383 0)
(7.28471 0.691451 0)
(7.33456 0.736012 0)
(7.14763 0.987605 0)
(7.25036 0.915081 0)
(7.08429 1.13031 0)
(7.12596 0.958399 0)
(6.98483 1.17413 0)
(7.0268 0.897576 0)
(6.9209 1.12157 0)
(6.93249 0.742723 0)
(6.90656 1.01128 0)
(6.88312 0.543314 0)
(6.92665 0.886893 0)
(6.87664 0.340082 0)
(6.94804 0.749157 0)
(6.91876 0.147238 0)
(6.97599 0.643866 0)
(6.9499 -0.0287317 0)
(6.95806 0.522148 0)
(6.90532 -0.207152 0)
(6.91171 0.434658 0)
(6.89741 -0.334669 0)
(6.86875 0.362076 0)
(6.90207 -0.409755 0)
(6.78344 0.331072 0)
(6.8448 -0.477032 0)
(6.64512 0.359831 0)
(6.74812 -0.487091 0)
(6.55596 0.431104 0)
(6.71767 -0.478822 0)
(6.57378 0.462486 0)
(6.7608 -0.442384 0)
(6.53228 0.552884 0)
(6.80819 -0.339642 0)
(6.42355 0.717054 0)
(6.90342 -0.188396 0)
(6.36849 0.855597 0)
(6.97421 0.000599983 0)
(6.31703 1.01276 0)
(7.04941 0.226824 0)
(6.27215 1.23442 0)
(6.98973 0.477543 0)
(6.17086 1.48135 0)
(6.85786 0.740628 0)
(6.0697 1.75526 0)
(6.80133 1.0318 0)
(5.96017 2.04034 0)
(6.75481 1.29476 0)
(5.92111 2.44271 0)
(6.84927 1.7771 0)
(5.70255 3.21661 0)
(6.75088 2.46908 0)
(5.11104 4.56425 0)
(8.14674 3.87015 0)
(5.81344 8.84758 0)
(7.76264 -0.234121 0)
(7.75172 -0.230349 0)
(7.93816 -0.312409 0)
(8.04175 -0.398331 0)
(8.24021 -0.48142 0)
(8.35812 -0.551509 0)
(8.57207 -0.63397 0)
(8.69921 -0.716956 0)
(8.93004 -0.845365 0)
(9.06019 -0.907094 0)
(9.26664 -1.01515 0)
(9.46165 -1.10213 0)
(9.7047 -1.23123 0)
(9.95917 -1.36879 0)
(10.1906 -1.49208 0)
(10.3595 -1.58346 0)
(10.5665 -1.70913 0)
(10.7244 -1.79733 0)
(10.8263 -1.90145 0)
(10.9205 -1.97386 0)
(10.9484 -2.05056 0)
(11.0397 -2.11908 0)
(11.0765 -2.19381 0)
(11.1044 -2.25141 0)
(11.061 -2.29597 0)
(10.9652 -2.31257 0)
(10.8315 -2.32467 0)
(10.6 -2.28556 0)
(10.3141 -2.24254 0)
(10.0767 -2.17008 0)
(9.81212 -2.09383 0)
(9.5988 -1.97588 0)
(9.23345 -1.83474 0)
(8.96135 -1.63362 0)
(8.52762 -1.44769 0)
(8.2738 -1.20865 0)
(7.85242 -0.980079 0)
(7.62807 -0.718785 0)
(7.41571 -0.58645 0)
(7.23917 -0.377427 0)
(7.27053 -0.273435 0)
(7.07201 -0.0461743 0)
(7.16965 0.0936176 0)
(7.03721 0.341536 0)
(7.11667 0.450218 0)
(7.02167 0.707624 0)
(7.07846 0.757653 0)
(6.92906 1.00657 0)
(7.03819 0.922328 0)
(6.92865 1.1574 0)
(6.95326 0.975726 0)
(6.83912 1.1953 0)
(6.88735 0.900532 0)
(6.79318 1.14375 0)
(6.835 0.734632 0)
(6.80036 1.02559 0)
(6.78285 0.522724 0)
(6.87673 0.898955 0)
(6.77997 0.317521 0)
(6.93191 0.758142 0)
(6.83879 0.122912 0)
(6.9571 0.65951 0)
(6.90829 -0.0469518 0)
(6.93525 0.562484 0)
(6.86041 -0.230534 0)
(6.8711 0.463648 0)
(6.83185 -0.367109 0)
(6.80825 0.41524 0)
(6.81782 -0.433101 0)
(6.72937 0.398542 0)
(6.75248 -0.503615 0)
(6.59627 0.429682 0)
(6.66903 -0.534563 0)
(6.52173 0.492309 0)
(6.68141 -0.546788 0)
(6.52112 0.538626 0)
(6.71754 -0.516754 0)
(6.45748 0.648218 0)
(6.77085 -0.43831 0)
(6.36829 0.813408 0)
(6.96076 -0.333534 0)
(6.34141 0.96965 0)
(7.17469 -0.157472 0)
(6.33722 1.13651 0)
(7.40036 0.0712642 0)
(6.37651 1.37963 0)
(7.49067 0.3455 0)
(6.34488 1.64271 0)
(7.48629 0.622358 0)
(6.17825 1.91483 0)
(7.4126 0.895911 0)
(6.06074 2.21137 0)
(7.25689 1.12203 0)
(5.91624 2.55472 0)
(7.53528 1.46308 0)
(5.99314 3.35983 0)
(8.37331 2.27885 0)
(5.4095 4.92408 0)
(9.04783 3.27284 0)
(6.91776 8.80363 0)
(9.76121 -0.268665 0)
(9.71892 -0.289532 0)
(9.82119 -0.361623 0)
(9.90464 -0.440178 0)
(10.0308 -0.525858 0)
(10.1072 -0.595973 0)
(10.2208 -0.684627 0)
(10.2914 -0.767493 0)
(10.4118 -0.887087 0)
(10.4984 -0.966942 0)
(10.6286 -1.07325 0)
(10.7602 -1.17317 0)
(10.9039 -1.29932 0)
(11.0451 -1.43565 0)
(11.1676 -1.55667 0)
(11.2261 -1.64248 0)
(11.3048 -1.75065 0)
(11.3673 -1.82896 0)
(11.3916 -1.91353 0)
(11.4016 -1.97709 0)
(11.3866 -2.05067 0)
(11.4001 -2.12523 0)
(11.3623 -2.18808 0)
(11.2918 -2.22726 0)
(11.1603 -2.25031 0)
(10.9905 -2.24612 0)
(10.7588 -2.22903 0)
(10.4614 -2.17161 0)
(10.173 -2.12838 0)
(9.9001 -2.05401 0)
(9.57824 -1.97678 0)
(9.29109 -1.84074 0)
(8.86227 -1.67887 0)
(8.54004 -1.47973 0)
(8.10803 -1.29275 0)
(7.83195 -1.06124 0)
(7.37191 -0.839096 0)
(7.1828 -0.619026 0)
(6.94118 -0.517675 0)
(6.83728 -0.330669 0)
(6.85811 -0.255556 0)
(6.67845 -0.0238976 0)
(6.83117 0.102215 0)
(6.67048 0.352263 0)
(6.80968 0.456491 0)
(6.70026 0.719753 0)
(6.77722 0.763673 0)
(6.67414 1.02343 0)
(6.77305 0.919785 0)
(6.70916 1.18194 0)
(6.73729 0.982288 0)
(6.67036 1.22384 0)
(6.70738 0.902632 0)
(6.62731 1.16545 0)
(6.70438 0.725496 0)
(6.64358 1.05166 0)
(6.67355 0.491641 0)
(6.73723 0.918851 0)
(6.69163 0.281505 0)
(6.84774 0.772457 0)
(6.7459 0.091244 0)
(6.89676 0.667251 0)
(6.84534 -0.0744842 0)
(6.86907 0.600988 0)
(6.80984 -0.242233 0)
(6.77838 0.521495 0)
(6.75117 -0.390052 0)
(6.69113 0.469752 0)
(6.70769 -0.475317 0)
(6.61631 0.474805 0)
(6.6418 -0.535156 0)
(6.48993 0.519107 0)
(6.58609 -0.584093 0)
(6.4125 0.568708 0)
(6.60843 -0.621953 0)
(6.34619 0.645188 0)
(6.62874 -0.609388 0)
(6.27215 0.776997 0)
(6.70011 -0.573607 0)
(6.20871 0.944696 0)
(6.93874 -0.493592 0)
(6.16244 1.11088 0)
(7.2939 -0.339623 0)
(6.15986 1.27461 0)
(7.65689 -0.151681 0)
(6.26813 1.53525 0)
(7.92877 0.132017 0)
(6.35704 1.82262 0)
(8.14884 0.434752 0)
(6.38239 2.14913 0)
(8.21263 0.727301 0)
(6.31072 2.511 0)
(8.00282 0.986586 0)
(5.93403 2.90405 0)
(7.85206 1.16234 0)
(5.51816 3.5479 0)
(9.03512 1.75536 0)
(5.97812 5.04707 0)
(10.5359 2.37886 0)
(8.15802 8.22151 0)
(11.3348 -0.251878 0)
(11.3206 -0.288396 0)
(11.353 -0.373807 0)
(11.4017 -0.458464 0)
(11.4703 -0.54805 0)
(11.5175 -0.623764 0)
(11.5619 -0.713141 0)
(11.592 -0.797004 0)
(11.6411 -0.908442 0)
(11.6907 -1.00403 0)
(11.756 -1.11087 0)
(11.8163 -1.21276 0)
(11.8676 -1.33019 0)
(11.9019 -1.45245 0)
(11.9189 -1.5701 0)
(11.8932 -1.65345 0)
(11.8563 -1.75038 0)
(11.8233 -1.82871 0)
(11.7687 -1.90508 0)
(11.7246 -1.97005 0)
(11.6697 -2.03881 0)
(11.6121 -2.10553 0)
(11.4909 -2.14837 0)
(11.332 -2.16877 0)
(11.118 -2.17172 0)
(10.866 -2.14748 0)
(10.5564 -2.10961 0)
(10.2435 -2.05098 0)
(9.94017 -2.00158 0)
(9.60796 -1.91739 0)
(9.22376 -1.82998 0)
(8.85174 -1.67915 0)
(8.38526 -1.50939 0)
(8.0478 -1.32401 0)
(7.60381 -1.13184 0)
(7.30005 -0.905932 0)
(6.82829 -0.699526 0)
(6.68195 -0.535275 0)
(6.43907 -0.461849 0)
(6.42494 -0.306594 0)
(6.39805 -0.246036 0)
(6.26709 -0.00985271 0)
(6.44381 0.0984099 0)
(6.2835 0.352623 0)
(6.47011 0.45576 0)
(6.33906 0.723092 0)
(6.43564 0.764505 0)
(6.38979 1.0218 0)
(6.46542 0.906393 0)
(6.47191 1.19525 0)
(6.45202 0.974856 0)
(6.47955 1.23567 0)
(6.46949 0.900043 0)
(6.47094 1.16659 0)
(6.49043 0.707469 0)
(6.51143 1.05043 0)
(6.50781 0.466029 0)
(6.58818 0.914602 0)
(6.57381 0.245422 0)
(6.72721 0.771183 0)
(6.64804 0.0641761 0)
(6.83064 0.663245 0)
(6.73286 -0.0828518 0)
(6.81044 0.618927 0)
(6.7142 -0.240293 0)
(6.69971 0.547817 0)
(6.62036 -0.398942 0)
(6.5897 0.508014 0)
(6.54687 -0.499299 0)
(6.52149 0.523904 0)
(6.48697 -0.56535 0)
(6.40329 0.570334 0)
(6.457 -0.622993 0)
(6.31456 0.625198 0)
(6.44892 -0.683916 0)
(6.21242 0.714511 0)
(6.4763 -0.699651 0)
(6.13844 0.869476 0)
(6.56181 -0.687038 0)
(6.08892 1.04052 0)
(6.82742 -0.64929 0)
(6.03351 1.19953 0)
(7.23747 -0.526777 0)
(6.03622 1.38408 0)
(7.64631 -0.371529 0)
(6.12009 1.65948 0)
(8.08713 -0.141023 0)
(6.2504 1.95929 0)
(8.65974 0.104478 0)
(6.40268 2.27737 0)
(9.32986 0.387662 0)
(6.58875 2.66677 0)
(9.96093 0.759348 0)
(6.45816 3.11889 0)
(10.294 1.19876 0)
(5.74338 3.81737 0)
(10.1395 1.5053 0)
(5.79206 5.40369 0)
(10.0753 1.59336 0)
(8.74345 7.60971 0)
(12.4508 -0.265599 0)
(12.4461 -0.341295 0)
(12.4495 -0.420871 0)
(12.4745 -0.487492 0)
(12.503 -0.561452 0)
(12.5187 -0.631173 0)
(12.5122 -0.716183 0)
(12.5068 -0.802551 0)
(12.5047 -0.910399 0)
(12.5092 -1.01265 0)
(12.5054 -1.11856 0)
(12.4964 -1.21713 0)
(12.4716 -1.32489 0)
(12.4308 -1.43092 0)
(12.3678 -1.54242 0)
(12.2862 -1.62794 0)
(12.1786 -1.71772 0)
(12.0829 -1.79733 0)
(11.9804 -1.87515 0)
(11.9018 -1.94433 0)
(11.8008 -2.00656 0)
(11.6663 -2.055 0)
(11.4687 -2.07636 0)
(11.2305 -2.07805 0)
(10.9434 -2.06267 0)
(10.6195 -2.01905 0)
(10.2774 -1.97246 0)
(9.94139 -1.91251 0)
(9.58696 -1.85191 0)
(9.1879 -1.75599 0)
(8.74945 -1.65582 0)
(8.30535 -1.49618 0)
(7.83285 -1.33367 0)
(7.47603 -1.15625 0)
(7.01924 -0.966989 0)
(6.70446 -0.752076 0)
(6.25601 -0.572337 0)
(6.16102 -0.468866 0)
(5.94028 -0.42114 0)
(5.98271 -0.287732 0)
(5.89389 -0.231536 0)
(5.8422 -0.0078592 0)
(6.00942 0.0732387 0)
(5.88689 0.343669 0)
(6.10069 0.442088 0)
(5.95387 0.721534 0)
(6.08343 0.746085 0)
(6.07336 1.02453 0)
(6.12832 0.874693 0)
(6.17729 1.20709 0)
(6.16886 0.956727 0)
(6.2376 1.25248 0)
(6.21189 0.889286 0)
(6.29042 1.17677 0)
(6.24159 0.692802 0)
(6.3581 1.04575 0)
(6.31025 0.44609 0)
(6.43502 0.900154 0)
(6.43226 0.205182 0)
(6.55511 0.767663 0)
(6.56386 0.0227445 0)
(6.68463 0.674098 0)
(6.62699 -0.0916476 0)
(6.67124 0.654101 0)
(6.60522 -0.230444 0)
(6.55503 0.596791 0)
(6.5049 -0.406303 0)
(6.43657 0.563088 0)
(6.41201 -0.528758 0)
(6.34866 0.584188 0)
(6.34741 -0.595063 0)
(6.23725 0.635775 0)
(6.32499 -0.662605 0)
(6.12875 0.706793 0)
(6.31411 -0.749092 0)
(6.02781 0.806342 0)
(6.35929 -0.804827 0)
(5.96941 0.981664 0)
(6.47063 -0.835429 0)
(5.92709 1.16169 0)
(6.71038 -0.82202 0)
(5.84595 1.31729 0)
(7.14572 -0.717842 0)
(5.84986 1.50918 0)
(7.58655 -0.55071 0)
(5.82995 1.83174 0)
(8.02806 -0.332412 0)
(5.77755 2.14935 0)
(8.6617 -0.132124 0)
(5.75781 2.47757 0)
(9.47314 0.0503094 0)
(5.91571 2.83194 0)
(10.633 0.330656 0)
(6.29211 3.25942 0)
(11.7178 0.66766 0)
(6.86984 4.03384 0)
(11.9376 0.979047 0)
(7.62474 5.4977 0)
(10.6441 1.44399 0)
(8.95294 6.90248 0)
(13.0259 -0.290361 0)
(13.0305 -0.406953 0)
(13.0395 -0.464457 0)
(13.054 -0.499942 0)
(13.0518 -0.552228 0)
(13.0347 -0.617968 0)
(12.9977 -0.704524 0)
(12.9635 -0.79812 0)
(12.9235 -0.903178 0)
(12.8837 -1.00527 0)
(12.8283 -1.10781 0)
(12.7697 -1.20272 0)
(12.6966 -1.30358 0)
(12.6145 -1.40044 0)
(12.5137 -1.5057 0)
(12.411 -1.59359 0)
(12.2895 -1.67729 0)
(12.181 -1.75577 0)
(12.0639 -1.83475 0)
(11.9474 -1.90413 0)
(11.7825 -1.95429 0)
(11.5706 -1.98114 0)
(11.3044 -1.97961 0)
(11.0016 -1.96231 0)
(10.6521 -1.92641 0)
(10.2897 -1.87246 0)
(9.91708 -1.82205 0)
(9.53001 -1.75701 0)
(9.10801 -1.68398 0)
(8.65847 -1.57911 0)
(8.17801 -1.46505 0)
(7.69914 -1.30598 0)
(7.22474 -1.15441 0)
(6.83893 -0.985632 0)
(6.38357 -0.804287 0)
(6.06926 -0.604136 0)
(5.67191 -0.463032 0)
(5.61884 -0.418955 0)
(5.41938 -0.386866 0)
(5.48801 -0.269685 0)
(5.35338 -0.217164 0)
(5.40385 -0.0194805 0)
(5.50988 0.045455 0)
(5.45784 0.324642 0)
(5.68767 0.426338 0)
(5.53922 0.711911 0)
(5.6986 0.718396 0)
(5.72945 1.01187 0)
(5.77393 0.860644 0)
(5.84924 1.20835 0)
(5.82956 0.92335 0)
(5.96666 1.24601 0)
(5.91257 0.862451 0)
(6.09184 1.16433 0)
(5.98304 0.674942 0)
(6.20354 1.02661 0)
(6.07681 0.427526 0)
(6.293 0.865663 0)
(6.22993 0.169822 0)
(6.39696 0.73153 0)
(6.39985 -0.0210928 0)
(6.50901 0.669184 0)
(6.47873 -0.107174 0)
(6.50926 0.669181 0)
(6.45772 -0.216959 0)
(6.39991 0.640014 0)
(6.35015 -0.395817 0)
(6.27952 0.600005 0)
(6.26303 -0.538952 0)
(6.17925 0.626149 0)
(6.17243 -0.60993 0)
(6.0718 0.679056 0)
(6.13648 -0.691988 0)
(5.99179 0.756857 0)
(6.14438 -0.799593 0)
(5.9184 0.863604 0)
(6.18046 -0.887861 0)
(5.88446 1.05117 0)
(6.28536 -0.954328 0)
(5.855 1.24127 0)
(6.5112 -0.972619 0)
(5.79249 1.38679 0)
(6.941 -0.900405 0)
(5.83798 1.57245 0)
(7.32755 -0.7346 0)
(5.84443 1.88321 0)
(7.67857 -0.519111 0)
(5.74848 2.20455 0)
(7.99811 -0.334146 0)
(5.70514 2.58682 0)
(8.31325 -0.1934 0)
(5.63704 3.02037 0)
(8.85352 -0.0516734 0)
(5.94028 3.54036 0)
(9.69185 0.150204 0)
(6.89476 4.33962 0)
(10.7394 0.473404 0)
(8.37994 5.54016 0)
(11.5068 1.61054 0)
(9.59231 6.16804 0)
(13.121 -0.276917 0)
(13.1361 -0.404839 0)
(13.1658 -0.467091 0)
(13.1748 -0.500245 0)
(13.1555 -0.545719 0)
(13.1211 -0.610005 0)
(13.0749 -0.696184 0)
(13.0237 -0.790208 0)
(12.9638 -0.888091 0)
(12.8992 -0.984439 0)
(12.8247 -1.08253 0)
(12.7475 -1.17537 0)
(12.6616 -1.2719 0)
(12.5748 -1.36574 0)
(12.4797 -1.4666 0)
(12.386 -1.55483 0)
(12.2788 -1.63625 0)
(12.1724 -1.71326 0)
(12.0366 -1.7846 0)
(11.8677 -1.83789 0)
(11.6362 -1.86555 0)
(11.3536 -1.86589 0)
(11.0257 -1.84482 0)
(10.6611 -1.81228 0)
(10.2629 -1.76446 0)
(9.86723 -1.70687 0)
(9.44404 -1.65097 0)
(8.99698 -1.57583 0)
(8.52312 -1.49234 0)
(8.03552 -1.37783 0)
(7.52692 -1.25351 0)
(7.03479 -1.10374 0)
(6.56896 -0.970021 0)
(6.16469 -0.813625 0)
(5.72351 -0.646645 0)
(5.40842 -0.464497 0)
(5.08924 -0.380353 0)
(5.05417 -0.376856 0)
(4.87321 -0.357933 0)
(4.9616 -0.25815 0)
(4.81569 -0.219064 0)
(4.9393 -0.0439556 0)
(4.96176 0.0122708 0)
(5.00262 0.288868 0)
(5.19786 0.397577 0)
(5.09318 0.702439 0)
(5.27773 0.678084 0)
(5.33744 0.993928 0)
(5.3779 0.808468 0)
(5.48117 1.21116 0)
(5.49087 0.882266 0)
(5.64562 1.24328 0)
(5.61763 0.824659 0)
(5.82624 1.15555 0)
(5.71998 0.641298 0)
(5.98378 1.00969 0)
(5.85185 0.400068 0)
(6.11504 0.849611 0)
(6.02081 0.140038 0)
(6.23436 0.716201 0)
(6.20358 -0.0583801 0)
(6.31225 0.681572 0)
(6.29406 -0.124059 0)
(6.30077 0.70476 0)
(6.29108 -0.212954 0)
(6.20896 0.679679 0)
(6.20312 -0.393086 0)
(6.08541 0.65503 0)
(6.12592 -0.537406 0)
(5.97591 0.691496 0)
(6.00839 -0.62699 0)
(5.87005 0.72982 0)
(5.97668 -0.735086 0)
(5.84073 0.807694 0)
(6.00122 -0.857114 0)
(5.80073 0.930529 0)
(6.03612 -0.977885 0)
(5.77659 1.13723 0)
(6.16795 -1.07663 0)
(5.7237 1.33908 0)
(6.37036 -1.13885 0)
(5.69855 1.45762 0)
(6.80068 -1.11282 0)
(5.76036 1.67326 0)
(7.19317 -0.930528 0)
(5.77464 2.0014 0)
(7.59497 -0.717266 0)
(5.71793 2.32672 0)
(7.89612 -0.564657 0)
(5.83619 2.67756 0)
(8.13366 -0.433311 0)
(5.95779 3.07639 0)
(8.29383 -0.398573 0)
(6.33277 3.62044 0)
(8.51158 -0.355412 0)
(7.03485 4.50428 0)
(9.29072 -0.000853075 0)
(8.2015 5.38963 0)
(10.9883 1.52216 0)
(10.1389 5.55724 0)
(13.0717 -0.271215 0)
(13.0902 -0.363845 0)
(13.1317 -0.423175 0)
(13.147 -0.466677 0)
(13.1263 -0.516942 0)
(13.0835 -0.582536 0)
(13.0261 -0.667004 0)
(12.9647 -0.760685 0)
(12.8958 -0.855819 0)
(12.8264 -0.951171 0)
(12.7541 -1.04866 0)
(12.6829 -1.14398 0)
(12.6047 -1.23914 0)
(12.5283 -1.33319 0)
(12.4415 -1.42907 0)
(12.3471 -1.51684 0)
(12.2299 -1.59504 0)
(12.0946 -1.6639 0)
(11.9079 -1.7135 0)
(11.6708 -1.73962 0)
(11.3658 -1.74 0)
(11.0154 -1.71673 0)
(10.6235 -1.68089 0)
(10.1997 -1.64031 0)
(9.75716 -1.58542 0)
(9.31995 -1.52467 0)
(8.83877 -1.46041 0)
(8.34917 -1.37652 0)
(7.8388 -1.28475 0)
(7.32491 -1.16865 0)
(6.80021 -1.04442 0)
(6.3115 -0.910553 0)
(5.85831 -0.78694 0)
(5.44987 -0.642007 0)
(5.02346 -0.492764 0)
(4.73455 -0.345787 0)
(4.49994 -0.314044 0)
(4.48036 -0.337208 0)
(4.31435 -0.333074 0)
(4.42141 -0.249006 0)
(4.2677 -0.218459 0)
(4.43307 -0.0611776 0)
(4.38167 -0.0124988 0)
(4.51055 0.253743 0)
(4.65793 0.370382 0)
(4.63102 0.677913 0)
(4.8268 0.619527 0)
(4.93157 0.972562 0)
(4.97584 0.790391 0)
(5.10027 1.18665 0)
(5.10467 0.830447 0)
(5.30601 1.21264 0)
(5.27541 0.773319 0)
(5.54458 1.12792 0)
(5.44617 0.610243 0)
(5.74081 0.98078 0)
(5.60251 0.365671 0)
(5.9274 0.821465 0)
(5.76507 0.104277 0)
(6.07274 0.685468 0)
(5.93851 -0.0881989 0)
(6.12963 0.66692 0)
(6.04372 -0.14737 0)
(6.11604 0.709308 0)
(6.05016 -0.200291 0)
(6.03578 0.70619 0)
(5.99027 -0.372441 0)
(5.93854 0.669535 0)
(5.92081 -0.526328 0)
(5.83972 0.719742 0)
(5.81683 -0.621679 0)
(5.75651 0.741891 0)
(5.77896 -0.749238 0)
(5.75241 0.824528 0)
(5.79347 -0.88119 0)
(5.75339 0.955963 0)
(5.84292 -1.02183 0)
(5.71824 1.16683 0)
(5.96098 -1.15544 0)
(5.6643 1.39558 0)
(6.11886 -1.24753 0)
(5.66088 1.51821 0)
(6.47145 -1.2665 0)
(5.77077 1.7279 0)
(6.8938 -1.10761 0)
(5.79188 2.07268 0)
(7.26893 -0.893734 0)
(5.73551 2.43619 0)
(7.56569 -0.781341 0)
(5.8726 2.81305 0)
(7.82419 -0.660524 0)
(6.04395 3.23012 0)
(8.09673 -0.691258 0)
(6.53222 3.74378 0)
(8.38373 -0.628975 0)
(7.32468 4.43519 0)
(8.84662 -0.160761 0)
(8.26377 5.01862 0)
(9.95638 1.25832 0)
(10.2872 4.91283 0)
(13.0273 -0.247495 0)
(13.0469 -0.316001 0)
(13.094 -0.377166 0)
(13.1082 -0.435812 0)
(13.0843 -0.499481 0)
(13.0305 -0.570244 0)
(12.9641 -0.653204 0)
(12.8998 -0.744032 0)
(12.8375 -0.837618 0)
(12.7761 -0.930723 0)
(12.7141 -1.0255 0)
(12.6485 -1.11832 0)
(12.5734 -1.21077 0)
(12.4859 -1.30004 0)
(12.3807 -1.38822 0)
(12.2507 -1.46804 0)
(12.0884 -1.53564 0)
(11.885 -1.58378 0)
(11.6227 -1.60741 0)
(11.3014 -1.60599 0)
(10.9225 -1.58235 0)
(10.5075 -1.53902 0)
(10.0623 -1.49366 0)
(9.5931 -1.44569 0)
(9.11614 -1.38474 0)
(8.63423 -1.32008 0)
(8.10757 -1.25027 0)
(7.58984 -1.15809 0)
(7.05549 -1.06276 0)
(6.5317 -0.951599 0)
(6.01896 -0.837071 0)
(5.55069 -0.721001 0)
(5.11803 -0.606918 0)
(4.71664 -0.474934 0)
(4.31172 -0.351489 0)
(4.0663 -0.251699 0)
(3.9033 -0.268376 0)
(3.89065 -0.313497 0)
(3.741 -0.321715 0)
(3.85469 -0.247578 0)
(3.68295 -0.221202 0)
(3.88207 -0.0814081 0)
(3.77059 -0.0452393 0)
(3.9885 0.206188 0)
(4.05364 0.322494 0)
(4.16007 0.630448 0)
(4.32164 0.544644 0)
(4.47461 0.929592 0)
(4.49926 0.71676 0)
(4.71275 1.17 0)
(4.70951 0.776321 0)
(4.9469 1.18697 0)
(4.93642 0.713103 0)
(5.20611 1.09014 0)
(5.1401 0.546562 0)
(5.4621 0.951796 0)
(5.31115 0.310415 0)
(5.68685 0.801633 0)
(5.48059 0.0656934 0)
(5.85192 0.674658 0)
(5.644 -0.113165 0)
(5.91502 0.670187 0)
(5.75858 -0.160722 0)
(5.91796 0.723684 0)
(5.80648 -0.202737 0)
(5.8632 0.726211 0)
(5.77338 -0.352485 0)
(5.77501 0.696295 0)
(5.72916 -0.501776 0)
(5.70018 0.757357 0)
(5.66198 -0.59988 0)
(5.62712 0.760668 0)
(5.62089 -0.752838 0)
(5.63733 0.835061 0)
(5.6312 -0.898857 0)
(5.65127 0.98306 0)
(5.66402 -1.05252 0)
(5.62473 1.20506 0)
(5.80907 -1.20743 0)
(5.52457 1.4372 0)
(6.11702 -1.36799 0)
(5.59924 1.54385 0)
(6.42137 -1.4311 0)
(5.74267 1.78897 0)
(6.69967 -1.25752 0)
(5.77019 2.13713 0)
(7.10531 -1.04822 0)
(5.79983 2.51904 0)
(7.43544 -0.976445 0)
(5.95527 2.90106 0)
(7.683 -0.879173 0)
(6.27356 3.30704 0)
(7.87018 -0.935796 0)
(6.87541 3.75869 0)
(8.09149 -0.779062 0)
(7.60863 4.28649 0)
(8.53963 -0.143561 0)
(8.50604 4.55375 0)
(9.37477 1.14585 0)
(10.1805 4.21868 0)
(13.0073 -0.233605 0)
(13.0289 -0.28493 0)
(13.0776 -0.344286 0)
(13.0937 -0.411086 0)
(13.0692 -0.482728 0)
(13.0173 -0.558959 0)
(12.9519 -0.639426 0)
(12.8903 -0.725255 0)
(12.8286 -0.812956 0)
(12.7643 -0.901462 0)
(12.6901 -0.989256 0)
(12.6069 -1.07653 0)
(12.5057 -1.1623 0)
(12.3819 -1.24454 0)
(12.2285 -1.32093 0)
(12.0386 -1.38758 0)
(11.8007 -1.43581 0)
(11.5073 -1.46112 0)
(11.1497 -1.46036 0)
(10.7427 -1.43813 0)
(10.2941 -1.39721 0)
(9.82291 -1.34423 0)
(9.33577 -1.29729 0)
(8.83475 -1.24578 0)
(8.33596 -1.17835 0)
(7.82145 -1.10687 0)
(7.26978 -1.03222 0)
(6.74484 -0.937527 0)
(6.20713 -0.841644 0)
(5.70044 -0.735734 0)
(5.21866 -0.634171 0)
(4.79003 -0.536785 0)
(4.38218 -0.427139 0)
(3.99611 -0.310858 0)
(3.6298 -0.219596 0)
(3.44052 -0.173031 0)
(3.33742 -0.227821 0)
(3.31567 -0.282349 0)
(3.18904 -0.297961 0)
(3.2974 -0.240821 0)
(3.12342 -0.221146 0)
(3.34885 -0.0983657 0)
(3.17228 -0.0748145 0)
(3.46691 0.158197 0)
(3.43846 0.2709 0)
(3.6894 0.571859 0)
(3.77292 0.477662 0)
(4.03265 0.910006 0)
(4.02648 0.674189 0)
(4.32137 1.115 0)
(4.27715 0.704024 0)
(4.60246 1.13967 0)
(4.5457 0.642127 0)
(4.90139 1.05012 0)
(4.78155 0.497861 0)
(5.18166 0.914759 0)
(4.98537 0.265713 0)
(5.42607 0.758492 0)
(5.14251 0.0205806 0)
(5.62187 0.636612 0)
(5.29609 -0.137449 0)
(5.69633 0.648778 0)
(5.42626 -0.172805 0)
(5.713 0.705219 0)
(5.51472 -0.186877 0)
(5.68487 0.714031 0)
(5.53149 -0.329857 0)
(5.61395 0.682645 0)
(5.50912 -0.475435 0)
(5.54094 0.742329 0)
(5.4664 -0.560945 0)
(5.48281 0.748263 0)
(5.41185 -0.723113 0)
(5.50851 0.820427 0)
(5.41679 -0.868146 0)
(5.56283 0.968823 0)
(5.44905 -1.01703 0)
(5.54513 1.17748 0)
(5.50519 -1.16594 0)
(5.48425 1.43157 0)
(5.74484 -1.39644 0)
(5.56661 1.52966 0)
(6.08226 -1.51376 0)
(5.68116 1.78361 0)
(6.42865 -1.33068 0)
(5.72104 2.16731 0)
(6.79271 -1.16105 0)
(5.84023 2.54801 0)
(7.14096 -1.09047 0)
(6.01412 2.94808 0)
(7.40949 -1.00771 0)
(6.4459 3.33871 0)
(7.59004 -1.0633 0)
(7.09993 3.71884 0)
(7.9978 -0.803161 0)
(7.85202 4.01943 0)
(8.61414 -0.0853062 0)
(8.77126 4.00723 0)
(9.53292 1.17157 0)
(10.1719 3.50874 0)
(13.0054 -0.223348 0)
(13.0211 -0.253897 0)
(13.0636 -0.305287 0)
(13.071 -0.373164 0)
(13.0408 -0.451792 0)
(12.9841 -0.53432 0)
(12.9129 -0.617089 0)
(12.8382 -0.699185 0)
(12.7589 -0.782359 0)
(12.6694 -0.864639 0)
(12.5649 -0.945983 0)
(12.4427 -1.02464 0)
(12.2931 -1.10105 0)
(12.1091 -1.17104 0)
(11.8833 -1.23182 0)
(11.6076 -1.27796 0)
(11.2739 -1.30256 0)
(10.8784 -1.30201 0)
(10.43 -1.27914 0)
(9.94924 -1.24033 0)
(9.43718 -1.18793 0)
(8.91958 -1.13214 0)
(8.39501 -1.08708 0)
(7.86982 -1.03419 0)
(7.364 -0.961712 0)
(6.83898 -0.884004 0)
(6.29386 -0.811736 0)
(5.79191 -0.720515 0)
(5.28338 -0.633752 0)
(4.81594 -0.542577 0)
(4.37857 -0.457427 0)
(3.98865 -0.367934 0)
(3.61527 -0.265552 0)
(3.26999 -0.171872 0)
(2.9629 -0.119219 0)
(2.83745 -0.128409 0)
(2.76928 -0.205391 0)
(2.73205 -0.261061 0)
(2.64132 -0.284329 0)
(2.7259 -0.236052 0)
(2.58282 -0.22192 0)
(2.79807 -0.112556 0)
(2.58054 -0.105729 0)
(2.91584 0.114691 0)
(2.80322 0.208552 0)
(3.21122 0.49466 0)
(3.18397 0.401888 0)
(3.58849 0.838772 0)
(3.49357 0.575064 0)
(3.9398 1.07424 0)
(3.82846 0.644438 0)
(4.26617 1.09167 0)
(4.14812 0.578171 0)
(4.57427 0.982413 0)
(4.40696 0.414646 0)
(4.89754 0.86025 0)
(4.63129 0.202582 0)
(5.1682 0.726051 0)
(4.79287 -0.0183921 0)
(5.35252 0.611725 0)
(4.92957 -0.153617 0)
(5.44981 0.619337 0)
(5.08244 -0.181382 0)
(5.4834 0.691794 0)
(5.20825 -0.186589 0)
(5.48172 0.708217 0)
(5.27315 -0.300455 0)
(5.43915 0.673882 0)
(5.2878 -0.434928 0)
(5.3689 0.736417 0)
(5.28752 -0.51478 0)
(5.33139 0.740203 0)
(5.25241 -0.693139 0)
(5.37798 0.791146 0)
(5.27169 -0.852654 0)
(5.44678 0.9449 0)
(5.28743 -0.979399 0)