/*--------------------------------*- C++ -*----------------------------------*\
| =========                 |                                                 |
| \\      /  F ield         | OpenFOAM: The Open Source CFD Toolbox           |
|  \\    /   O peration     | Version:  2.4.0                                 |
|   \\  /    A nd           | Web:      www.OpenFOAM.org                      |
|    \\/     M anipulation  |                                                 |
\*---------------------------------------------------------------------------*/
FoamFile
{
    version     2.0;
    format      ascii;
    class       volScalarField;
    location    "0.108";
    object      p;
}
// * * * * * * * * * * * * * * * * * * * * * * * * * * * * * * * * * * * * * //

dimensions      [0 2 -2 0 0 0 0];

internalField   nonuniform List<scalar> 
4400
(
94.1984
73.9654
66.4138
63.0634
60.6485
58.2502
56.047
53.7394
51.2803
51.1971
92.2621
74.0336
66.4511
63.0755
60.6512
58.2501
56.0458
53.746
51.2773
51.0476
91.0457
74.3528
66.5862
63.1148
60.6717
58.2584
56.0456
53.7555
51.2742
50.833
90.3101
74.7411
66.7655
63.1732
60.7138
58.2849
56.0512
53.7686
51.2791
50.6544
89.7153
75.0973
66.9459
63.2344
60.7707
58.3308
56.0668
53.7858
51.3002
50.5082
89.202
75.392
67.103
63.2814
60.8219
58.3819
56.092
53.7998
51.3457
50.451
88.7793
75.6265
67.2309
63.3123
60.8582
58.4263
56.1157
53.8104
51.3633
50.4451
88.4561
75.804
67.3299
63.3333
60.8761
58.4628
56.1304
53.8186
51.3255
50.427
88.2413
75.9251
67.3935
63.3469
60.8852
58.4868
56.1408
53.8133
51.3259
50.4323
88.1362
75.9868
67.4212
63.3584
60.8849
58.4989
56.1472
53.7986
51.3623
50.4017
88.1403
75.9881
67.4124
63.37
60.876
58.4996
56.148
53.7873
51.3868
50.3668
88.2539
75.9277
67.3685
63.3795
60.86
58.4868
56.1476
53.7744
51.4199
50.3371
88.476
75.8082
67.2888
63.3862
60.8352
58.4619
56.1419
53.7618
51.4559
50.3056
88.8032
75.6318
67.1743
63.3865
60.8014
58.4227
56.1306
53.751
51.4952
50.2614
89.2274
75.3981
67.0336
63.3708
60.7577
58.3731
56.1138
53.7393
51.54
50.2023
89.7396
75.1055
66.8677
63.3335
60.7042
58.3177
56.0927
53.7283
51.5841
50.1658
90.3325
74.7539
66.681
63.2771
60.6471
58.2716
56.0739
53.7253
51.6078
50.1411
91.066
74.3702
66.4982
63.2198
60.6055
58.2458
56.0646
53.7275
51.6219
50.1494
92.2808
74.0533
66.3623
63.1807
60.5851
58.2385
56.0623
53.7294
51.6325
50.1541
94.2166
73.9854
66.3249
63.1694
60.5809
58.2401
56.0623
53.7298
51.6386
50.2628
47.3384
43.9139
40.8973
39.5056
39.0302
39.1518
39.8245
42.045
46.7301
53.0014
61.1056
68.6928
69.3397
66.7808
59.7386
43.6665
27.3203
18.244
13.0317
9.1729
6.38033
8.89557
12.2109
13.6518
18.2914
25.2344
30.2082
34.6914
40.4143
45.7875
49.653
52.8448
55.5369
58.0969
59.7636
58.4638
55.761
53.6198
53.2837
53.3291
54.8951
56.9208
58.7841
59.439
57.8667
53.8043
47.7924
41.2733
35.0804
30.3265
27.1534
26.6551
30.6362
37.3971
44.7604
53.467
62.0657
68.0549
71.3778
74.3883
75.9675
74.6296
73.4632
75.0173
78.3209
72.4282
63.2731
53.0155
46.4925
43.2921
43.6229
45.8852
49.6709
56.2424
63.7533
69.8438
72.9161
73.3769
73.6705
71.0901
69.1321
63.1301
60.8088
56.6987
56.906
56.9314
58.7988
60.0287
62.0984
63.297
65.4743
65.7781
67.4525
67.1988
68.7891
68.3746
70.3498
68.01
69.8608
51.3931
47.4026
43.6861
40.4665
39.3337
39.2473
40.0347
40.9869
43.2726
48.0434
54.2833
62.0425
69.4002
70.022
67.0209
60.0168
45.3699
29.6575
20.1382
15.4424
11.8381
8.3726
10.3333
14.2642
16.0659
19.931
26.2785
31.346
35.5752
40.6266
45.7216
49.6992
53.1197
55.7142
58.0031
59.05
56.8559
52.9697
49.984
48.9731
48.5535
50.143
52.5838
55.2945
56.9071
56.5179
53.6942
49.2234
43.7239
38.4047
34.4762
31.8123
31.4388
34.7943
40.8845
47.7045
55.2614
62.8628
68.5613
71.3101
74.3432
76.4079
75.1909
74.0093
75.7965
77.2309
71.1348
61.2997
49.9786
43.4542
40.0403
40.3179
42.5338
46.6742
53.8673
62.1248
68.6803
72.4442
72.7045
73.6663
70.6177
69.3335
63.1459
60.8887
57.0455
56.9954
57.1731
58.7679
59.7409
61.5412
62.4563
64.6189
64.6263
66.6295
65.806
67.802
66.6378
68.8755
64.8922
65.374
45.8284
47.4766
43.5782
40.2768
39.4887
39.7046
41.054
42.2792
44.5835
49.2587
55.1669
62.1303
68.8936
69.6313
66.2735
59.3099
46.5041
31.7719
21.7244
17.3851
14.5996
11.1093
12.2333
16.404
18.865
22.0596
27.4377
32.349
36.4372
40.8754
45.7283
49.7972
53.4431
56.1968
58.2829
58.6361
55.5308
50.4121
46.4768
44.6632
43.9358
45.5905
48.4285
51.9161
54.5302
55.4394
54.0098
50.9617
46.7221
42.174
39.0456
36.8958
36.5712
39.3608
44.6026
50.7571
57.1518
63.666
69.0388
71.3651
74.3636
76.8952
76.0184
74.6198
76.9732
76.0571
69.5383
58.6759
46.7073
40.6605
37.0924
37.5314
39.6481
44.1601
51.8652
60.9545
67.657
72.3598
72.1622
73.8239
70.4534
69.6538
63.6085
61.1531
57.7572
57.2775
57.5541
58.8251
59.5968
61.0399
61.7099
63.5945
63.4147
65.1129
63.9551
66.202
64.0813
67.1627
61.0617
59.0045
43.5883
47.4887
43.646
40.477
40.0382
40.4007
42.1075
43.5343
45.8556
50.2627
55.5949
61.6469
67.429
68.4834
64.9665
58.1056
47.1419
33.8949
23.5937
19.3702
17.5185
14.6027
14.9586
18.7609
21.7088
24.4798
28.8024
33.1978
37.0868
41.0511
45.6539
49.8904
53.7984
56.8639
58.9282
58.61
54.3851
48.0271
43.1552
40.4399
39.506
41.2344
44.5538
48.8027
52.4353
54.6591
54.7098
53.0309
50.2198
46.3885
43.8709
42.2011
41.9274
44.1815
48.4412
53.8098
59.0567
64.4485
69.3723
71.3921
74.3284
77.2025
76.8641
75.1666
78.3308
75.8877
68.5196
56.047
43.7969
38.3364
34.4478
35.2624
37.148
42.1977
50.2569
60.314
66.8179
72.6551
71.8103
74.2032
70.6941
69.9804
64.4833
61.6836
58.7083
57.84
58.0458
58.9461
59.5272
60.6553
61.0596
62.5876
62.2306
63.6474
62.2547
64.036
61.3926
62.8821
56.1271
52.8968
41.7436
47.4428
43.8419
41.2898
40.9179
41.2382
43.1742
44.6023
46.943
51.0837
55.5465
60.8454
65.4548
66.7294
63.607
56.8182
47.4521
36.333
26.4421
21.8285
20.5152
18.7073
18.5523
21.4115
24.4016
26.9259
30.2503
33.9542
37.5563
41.1479
45.4715
49.87
54.1506
57.6687
59.8766
58.9892
53.4225
45.7263
39.935
36.3912
35.3391
37.1356
41.01
45.9579
50.7072
54.1376
55.7399
55.4535
53.9802
50.9683
48.8928
47.6798
47.4004
49.0853
52.3036
56.81
60.9301
65.1927
69.5564
71.3187
74.1306
77.2007
77.4324
75.7951
79.1721
76.2999
68.1426
53.7112
41.6068
36.5494
32.1378
33.64
34.9322
40.9474
48.9149
60.3135
66.2443
73.2508
71.8645
74.7545
71.3278
70.3918
65.6272
62.4794
59.8146
58.645
58.5877
59.0398
59.3661
60.194
60.2793
61.4078
61.178
62.1298
60.8015
61.626
58.7607
57.5061
52.067
47.7993
39.5176
47.3543
44.0631
42.1408
41.999
42.0505
44.0841
45.5239
47.7015
51.647
55.1734
59.7963
63.4539
64.5786
62.2509
55.9358
47.751
38.9624
30.348
25.0383
23.6611
22.8865
22.6836
24.3997
26.8787
29.1912
31.7131
34.6318
37.8411
41.0857
45.1551
49.7751
54.5369
58.5938
61.0451
59.6621
52.6491
43.5929
36.9189
32.6844
31.4736
33.3255
37.7713
43.4642
49.3897
53.868
57.0144
58.1636
57.821
55.7698
54.1339
53.2123
52.8052
53.9601
56.1438
59.6747
62.712
65.8692
69.6639
71.1908
73.7281
76.9612
77.6727
76.598
79.5391
76.6098
68.1136
51.7678
39.8839
35.1422
30.1579
32.5299
32.892
40.561
47.6778
61.0712
65.9459
74.1309
72.4865
75.333
72.2887
70.9213
66.8258
63.4489
60.9869
59.5741
59.1266
59.147
59.1914
59.6239
59.519
60.1201
59.9787
60.3148
59.1459
58.4066
56.2318
54.1934
50.6136
43.9433
37.7266
47.6061
44.4815
42.8655
43.0565
42.8007
44.7246
46.3017
48.1455
51.8933
54.6958
58.5788
61.7276
62.3606
60.8157
55.5098
48.3108
41.3303
34.3232
28.9698
27.083
26.7914
26.8066
27.5705
29.2155
31.1918
33.1118
35.2479
37.9539
40.8393
44.661
49.496
54.7744
59.4813
62.2599
60.3937
52.0454
41.7527
34.3081
29.5365
28.0121
29.8754
34.8125
41.3553
48.4219
53.9401
58.5198
61.083
61.6668
60.6542
59.4482
58.6472
58.0778
58.6657
59.8398
62.3292
64.3251
66.4695
69.7662
71.0196
73.1474
76.5241
77.7041
77.2278
79.6631
76.9327
67.9572
50.2608
38.6049
33.8306
28.5576
32.1837
30.9586
41.0313
46.4605
62.5442
66.0625
75.2642
73.6796
75.9171
73.3681
71.5651
67.9646
64.5177
62.1135
60.4482
59.6171
59.2558
59.1111
59.106
58.9143
58.9657
58.8959
58.4034
57.6748
56.2279
54.9195
52.0234
49.5084
41.8547
37.4825
48.3013
45.2335
43.4722
43.9715
43.5589
45.2043
46.9978
48.4349
51.9001
54.2693
57.3157
60.2587
60.489
59.331
55.4098
49.1673
43.2982
37.9716
33.2255
30.6817
30.3217
30.5319
30.7144
31.5038
32.9825
34.4178
35.8317
37.8934
40.3281
43.8901
48.9228
54.7336
60.2
63.3675
60.9511
51.5506
40.2748
32.2133
26.9951
25.0434
26.8753
32.2866
39.7959
47.7374
54.2956
60.1633
64.0863
65.4837
65.4054
64.635
63.9245
63.119
63.1118
63.3253
64.7442
65.7777
66.9004
69.8085
70.9338
72.5008
75.8302
77.5764
77.6784
79.8493
77.5921
67.6327
49.3394
38.3721
32.7065
27.3342
31.739
29.2142
42.3416
45.2203
64.5973
66.8592
76.5061
75.2359
76.5067
74.322
72.2735
68.9869
65.6018
63.1088
61.2088
60.1536
59.4585
59.1543
58.7417
58.3951
58.1841
58.0649
57.3505
56.9198
55.223
54.4262
50.7413
49.2782
41.1901
38.0033
48.8832
45.972
44.1112
44.7514
44.303
45.6285
47.6244
48.7222
51.8329
53.976
56.192
59.006
59.0882
57.9464
55.3731
50.1879
45.0007
41.0294
37.2167
34.2519
33.4842
33.7517
33.7021
33.8413
34.6775
35.5929
36.368
37.6744
39.5951
42.9096
48.0453
54.3254
60.5307
64.1282
61.1937
51.0681
39.1034
30.6763
25.0527
22.7622
24.5464
30.493
38.9102
47.3368
55.0159
61.9817
67.0753
69.1667
69.8876
69.6008
68.9465
67.8355
67.2371
66.5306
66.7952
67.0056
67.271
69.7502
70.8544
71.9777
75.1713
77.551
78.064
80.0749
78.2438
68.1385
49.8232
39.8318
31.9741
26.8099
31.5082
27.8503
44.254
44.1418
67.1392
68.3824
77.5754
76.7767
77.0934
75.0649
72.9833
69.9204
66.6788
64.0843
62.0319
60.8582
59.7511
59.2423
58.5828
57.9808
57.7571
57.6693
56.7303
56.5911
54.5172
54.3143
49.9959
49.6602
41.9299
38.4858
49.3005
46.7953
44.8033
45.4263
45.0256
46.0022
48.1068
49.0031
51.7257
53.8012
55.2747
57.8606
58.0556
56.8282
55.2711
51.2257
46.5612
43.5441
40.6373
37.6187
36.4617
36.661
36.519
36.1701
36.3561
36.6787
36.8499
37.3762
38.725
41.7858
46.8942
53.5495
60.324
64.2563
60.9646
50.5148
38.1969
29.6597
23.7892
21.3934
23.0107
29.5259
38.5969
47.2104
56.073
63.9468
69.9011
72.6881
74.0691
74.2153
73.5713
72.0972
70.8482
69.348
68.5655
67.9707
67.5658
69.6129
70.7106
71.7006
74.7786
77.4672
78.3139
79.9973
78.2393
69.4845
51.8455
42.5064
31.8256
27.2322
31.6102
27.2001
46.5714
43.6801
69.9306
70.3784
78.1732
77.9595
77.723
75.7846
73.7447
70.9129
67.8154
65.1905
62.9639
61.6873
60.12
59.3725
58.6262
57.8699
57.5613
57.6769
56.3617
56.6287
54.0394
54.5779
49.8786
49.774
42.4527
38.3004
49.556
47.4261
45.4822
45.998
45.7008
46.3441
48.436
49.2681
51.5455
53.6087
54.5622
56.7975
57.2463
56.0289
55.1272
52.2067
48.1378
45.6043
43.4558
40.8236
39.4675
39.3988
39.1183
38.4
37.991
37.72
37.2657
37.0922
37.8939
40.6244
45.5826
52.465
59.523
63.5252
60.2007
49.9415
37.7043
29.234
23.2484
20.9284
22.3336
29.3352
38.6363
47.3851
57.3964
65.9109
72.4468
75.9833
77.8046
78.3092
77.6098
75.7954
73.9064
71.7034
70.0259
68.7312
67.8276
69.4308
70.5466
71.6142
74.5504
77.1861
78.3495
79.4629
77.4207
70.2081
54.3199
45.3241
32.4283
28.7258
32.2428
27.5695
49.1454
44.2213
72.5317
72.5665
78.393
78.8194
78.4669
76.7326
74.6379
72.1102
69.0488
66.4225
63.9691
62.6326
60.6781
59.5943
58.9098
58.045
57.424
57.891
56.1627
56.8118
53.8579
54.7499
50.0444
49.4761
42.8895
37.9528
49.6455
47.9282
46.1595
46.4498
46.2932
46.6935
48.6208
49.5074
51.3308
53.324
54.0479
55.8498
56.5501
55.5613
55.0138
53.0394
49.7092
47.5274
45.9388
43.8542
42.4027
41.9333
41.4203
40.4453
39.5252
38.7231
37.6861
36.8834
37.2067
39.523
44.2741
51.2586
58.1642
61.851
58.9714
49.5108
37.7433
29.5131
23.4059
21.1964
22.2882
29.6938
39.0314
48.0031
58.7808
67.7107
74.7118
78.861
80.9636
81.7546
80.9131
78.8295
76.4097
73.6147
71.199
69.3321
68.1094
69.3094
70.4345
71.5932
74.3591
76.7882
78.2361
78.6904
76.4859
70.3884
56.8095
48.1306
34.1999
31.8636
33.728
29.5626
51.8664
46.1968
74.3447
74.6731
78.7185
79.7724
79.3853
78.0896
75.713
73.516
70.3301
67.7617
65.0401
63.6463
61.5639
59.9606
59.1224
58.486
57.1937
58.0976
55.9662
56.7683
53.7368
54.4636
50.1586
48.8075
43.0867
37.8416
49.5724
48.2793
46.8203
46.8307
46.817
47.0983
48.7018
49.7106
51.1479
52.9452
53.6908
55.0602
55.9009
55.3201
54.9689
53.7357
51.2636
49.4321
48.1702
46.5204
45.083
44.23
43.3802
42.1951
40.9263
39.6623
38.1535
36.8378
36.7111
38.6284
43.179
50.0462
56.3449
59.4261
57.3071
49.2577
38.354
30.3399
24.141
22.0813
22.8185
30.4512
39.7691
48.9696
60.1368
69.3797
76.6185
81.1558
83.5121
84.4448
83.46
81.1729
78.3501
75.1383
72.1701
69.8184
68.4329
69.3026
70.355
71.6607
74.2639
76.3981
77.735
77.9344
76.0978
71.2325
59.9791
51.5769
37.6941
36.5773
36.0846
33.379
54.5176
49.7384
74.9022
76.8318
79.4168
81.3075
80.4781
79.8249
76.9252
75.0257
71.6094
69.1626
66.1736
64.5871
62.5419
60.6495
58.9717
59.0357
56.9834
57.9564
55.7136
56.2504
53.5703
53.7093
50.0476
47.984
43.1901
37.999
49.3775
48.4894
47.4727
47.2134
47.2593
47.5388
48.7275
49.8361
51.041
52.5482
53.4089
54.4425
55.3028
55.2144
55.0279
54.3015
52.6928
51.2259
50.0703
48.7149
47.3508
46.1633
44.9675
43.594
42.1215
40.5541
38.7017
36.989
36.4615
38.0515
42.4945
49.0158
54.3028
56.4372
55.4178
49.2369
39.5448
31.6186
25.4319
23.4703
24.1147
31.6087
40.8053
50.1665
61.3822
70.8509
78.1078
82.8976
85.4183
86.364
85.3136
82.8593
79.7738
76.2861
72.982
70.29
68.8206
69.4409
70.5398
71.8755
74.2621
76.1052
77.1932
77.3143
76.0155
72.5353
63.5754
55.4832
42.3663
43.1878
39.2944
38.4346
56.5742
54.6787
74.6586
79.878
80.3617
83.5217
81.6604
81.7029
78.1844
76.5293
72.8012
70.4993
67.2066
65.4491
63.0908
61.6882
58.9521
59.3196
56.8218
57.2178
55.2342
55.2018
53.2106
52.6041
49.6603
47.2532
43.3173
38.369
49.1299
48.5863
48.0646
47.6308
47.6366
47.9484
48.7726
49.9122
50.9858
52.1808
53.1543
53.9967
54.8111
55.1523
55.1738
54.777
53.8259
52.691
51.591
50.3922
49.0592
47.6183
46.143
44.6513
43.1077
41.3871
39.3179
37.3316
36.5184
37.862
42.387
48.4252
52.3641
53.5075
53.6857
49.5968
41.4123
33.5261
27.4021
25.3144
26.0395
33.0879
41.9752
51.4449
62.4748
72.1398
79.2289
84.1243
86.7256
87.6253
86.5216
83.9541
80.7685
77.1103
73.6383
70.7803
69.2894
69.7573
70.9283
72.2536
74.3147
75.9371
76.7729
76.8342
75.8516
73.5591
66.0675
58.9061
47.2886
47.4215
42.9421
44.6716
58.2832
59.9563
74.5011
84.3753
81.2123
85.9932
82.77
83.4668
79.3243
77.9766
73.7483
71.6877
68.0833
66.4629
63.6539
62.7432
59.5376
59.1417
56.455
55.7271
54.4541
53.853
52.6546
51.5085
49.1308
46.7697
43.4735
38.8463
48.8819
48.6088
48.5177
48.0167
47.9453
48.2886
48.8664
49.9391
50.9408
51.9092
52.9213
53.6945
54.4637
55.0977
55.3084
55.1104
54.6072
53.7679
52.6897
51.5077
50.1712
48.6036
46.9712
45.3998
43.8334
42.0838
39.9579
37.856
36.958
38.3401
42.9862
48.449
50.9937
51.5223
52.3467
50.2739
43.7898
36.1228
29.9564
27.4406
28.143
34.683
43.2695
52.8115
63.444
73.216
80.0319
84.96
87.5617
88.3174
87.1392
84.5277
81.3974
77.7149
74.1769
71.2902
69.8316
70.259
71.3971
72.6885
74.3701
75.8683
76.514
76.4224
75.6116
74.1267
67.7746
61.7701
51.9155
50.9364
46.8573
51.0963
59.9407
67.2798
74.0262
89.3043
81.5563
88.3497
83.6367
85.0225
80.4527
79.3924
74.7455
72.7719
69.128
67.5777
64.6737
63.5036
60.2767
58.6489
55.9297
54.477
53.6793
52.8237
52.1128
50.8097
48.8047
46.6323
43.7008
39.4014
48.9191
48.73
48.7641
48.2774
48.1633
48.5222
48.978
49.9441
50.8956
51.732
52.7283
53.5071
54.2509
55.0243
55.3829
55.3233
55.0509
54.3742
53.3304
52.1646
50.8133
49.1754
47.4635
45.866
44.3186
42.5979
40.5376
38.4994
37.7737
39.4486
44.2284
49.0588
50.4258
50.4838
51.581
51.0881
46.3532
39.1694
32.87
29.8055
30.346
36.3471
44.645
54.1183
64.3837
74.0621
80.6266
85.474
88.0119
88.5821
87.3368
84.6933
81.6695
78.1254
74.673
71.8858
70.5343
70.8518
71.806
73.0193
74.3986
75.8776
76.4122
76.0689
75.4248
74.3657
69.4586
64.3554
55.7648
54.0557
50.6357
57.3083
61.8237
75.2744
73.5419
93.7413
81.5655
90.7969
84.926
86.3243
81.7993
80.5504
75.985
73.6256
70.1512
68.4104
65.63
63.8699
60.6812
58.264
55.6152
53.9633
53.258
52.355
51.8968
50.5242
48.7463
46.7948
43.9728
39.9997
49.0108
48.843
48.8707
48.4419
48.3253
48.6735
49.0825
49.9462
50.8543
51.6369
52.5991
53.3954
54.1318
54.9429
55.3829
55.3888
55.2056
54.6243
53.6228
52.4489
51.0834
49.4353
47.7144
46.1091
44.5716
42.9056
40.9833
39.1762
38.8307
41.0324
45.8721
50.0738
50.6568
50.4416
51.437
51.8096
48.5806
42.212
35.902
32.3245
32.6596
38.0832
45.9962
55.3112
65.2991
74.689
81.1084
85.8009
88.239
88.4913
87.211
84.6764
81.7497
78.3446
75.0537
72.4612
71.1764
71.3456
72.0682
73.1425
74.3427
75.9338
76.4836
76.0407
75.4344
74.568
70.6226
66.3205
58.1863
56.4799
53.5079
62.8494
63.5066
82.2101
72.9151
98.3381
82.2303
92.8246
86.7017
86.9628
82.8682
81.0463
76.9241
74.2058
70.9584
68.8174
66.1275
63.9646
60.8355
58.2157
55.6026
54.0855
53.1938
52.3928
51.8274
50.546
48.8663
47.0793
44.2144
40.5657
49.1217
48.9573
48.9188
48.542
48.4387
48.7547
49.1583
49.9519
50.8221
51.5984
52.5288
53.3394
54.0813
54.8722
55.302
55.3677
55.1935
54.6341
53.6684
52.5074
51.1502
49.515
47.7978
46.1829
44.6505
43.0424
41.2643
39.7346
39.8409
42.4267
47.2683
50.9731
51.1516
50.6615
51.6159
52.1964
49.7682
44.4049
38.4594
34.6694
34.7925
39.6873
47.1848
56.3677
66.0899
75.1351
81.4811
86.0016
88.3233
88.3085
87.0058
84.5147
81.7336
78.4728
75.3012
72.8022
71.4884
71.5914
72.1637
73.1926
74.3079
76.1049
76.7103
76.2243
75.6012
74.7076
71.3453
67.3499
59.1725
58.062
55.0927
66.8981
64.8618
87.3445
73.4142
101.877
83.6712
93.511
87.8631
86.9254
83.4145
81.0549
77.3
74.4328
71.385
69.033
66.2437
63.9244
60.858
58.3262
55.661
54.3539
53.1988
52.5887
51.8416
50.6631
49.0258
47.2952
44.364
40.9489
49.3078
49.0407
48.9204
48.5821
48.4944
48.7787
49.1957
49.9559
50.8044
51.5984
52.5094
53.3222
54.0757
54.8371
55.2704
55.3449
55.1458
54.5795
53.6275
52.4594
51.0954
49.4921
47.8047
46.1909
44.6537
43.0635
41.3652
39.9749
40.1452
42.911
47.7754
51.1776
51.263
50.8355
51.5958
51.5999
49.6813
45.3548
39.7937
36.0417
36.0259
40.5851
47.9176
57.0109
66.5647
75.3617
81.6769
86.1293
88.3434
88.2072
86.88
84.4708
81.7148
78.5325
75.4253
72.9634
71.6215
71.6976
72.2094
73.2322
74.3632
76.2955
76.8203
76.4228
75.6237
74.6072
71.4681
67.6519
59.6093
58.7188
55.5859
68.9216
65.478
89.8996
73.4483
103.106
83.9517
93.4658
88.1027
86.8281
83.5206
81.0133
77.3709
74.368
71.2688
68.9279
66.2651
63.9375
60.8752
58.3885
55.6984
54.4943
53.2003
52.703
51.8099
50.7102
49.0819
47.3086
44.3702
40.8952
51.0881
51.506
50.9705
49.3017
48.0189
46.4402
44.6159
42.6356
40.4884
38.6582
37.4683
36.8816
36.9603
37.0238
37.33
38.0446
38.0556
37.6287
36.5531
34.5928
31.7605
28.3705
26.5324
26.5821
28.1817
30.9266
34.7883
39.6994
44.2629
48.4253
54.2446
60.1013
67.3082
74.4423
80.5483
85.4931
88.4164
90.0237
90.1697
88.7703
86.0344
83.0154
81.4648
81.2463
79.9206
76.6854
71.7112
64.9793
58.3212
51.8206
48.8311
46.5446
49.9484
53.79
60.3028
67.2112
72.9281
76.9001
79.1347
80.0464
79.8521
78.717
76.9453
75.1021
73.8909
73.8274
75.2095
77.4286
79.8372
81.9419
83.5596
84.5531
84.8399
84.5345
83.9291
83.2297
82.4644
81.5637
80.4457
79.0656
77.4219
75.5697
73.6222
71.7651
70.1559
68.9262
68.1404
67.783
67.795
68.0633
68.5023
69.0759
69.7414
70.4007
70.9273
71.4614
71.9943
72.2632
73.4419
74.9895
51.0441
51.2544
50.689
49.1282
47.8959
46.3278
44.5984
42.6527
40.4182
38.524
37.3207
36.749
36.9302
37.0586
37.3256
38.0183
38.0145
37.6363
37.0717
34.7295
31.1343
27.4714
25.7198
25.9668
27.8145
30.7051
34.6772
39.6325
44.2176
48.3038
53.9662
59.6543
66.8569
74.16
80.2379
85.26
88.1964
89.8088
90.047
88.6972
86.0486
82.9522
81.4386
81.3755
80.3201
76.8421
71.5566
64.3983
57.7669
51.0471
48.227
45.8646
49.4946
53.3648
59.9458
67.0445
72.9181
76.9821
79.2434
80.1574
79.9948
78.8027
76.9583
75.0386
73.7499
73.6848
75.0789
77.3754
79.84
81.9676
83.599
84.6099
84.9027
84.5915
83.9613
83.2575
82.4986
81.6013
80.4775
79.0848
77.4226
75.5485
73.5787
71.7006
70.0757
68.8385
68.0557
67.7084
67.7307
68.0204
68.4729
69.0476
69.7094
70.3664
70.9119
71.4782
71.9664
72.0541
73.21
74.6424
50.9774
50.8321
50.0976
48.7686
47.5697
46.0343
44.6009
42.819
40.2745
38.1248
36.8457
36.3904
36.8597
37.2127
37.5785
38.0477
37.9492
37.6047
36.4047
33.4073
29.3476
25.519
24.0005
24.6868
26.9685
30.274
34.5015
39.3744
44.1617
48.0389
53.1594
58.8039
65.8475
73.4851
79.5723
84.6918
87.5919
89.1
89.4462
88.2686
85.6391
82.6316
81.2949
81.3204
80.1665
76.4358
70.8035
63.2599
56.7135
49.5819
47.164
44.5197
48.369
52.4542
59.0262
66.4852
72.6659
76.9865
79.3322
80.3038
80.1728
78.9358
76.9636
74.8841
73.5201
73.3093
74.7225
77.1724
79.8044
82.0202
83.6845
84.7272
85.0048
84.6415
83.9643
83.2516
82.5049
81.6163
80.4885
79.081
77.3925
75.4826
73.4758
71.5613
69.9131
68.6712
67.9021
67.5788
67.6267
67.9466
68.416
68.9901
69.6428
70.3137
70.9115
71.5344
71.9405
71.7934
72.795
74.1884
50.7688
50.4629
49.5409
48.3889
47.1597
45.7535
44.7103
42.8868
39.9108
37.4831
36.1166
35.8248
36.6409
37.4504
38.0828
38.2516
37.8113
36.9899
34.5149
30.5429
26.4779
23.0748
21.8283
23.2014
25.9643
29.6162
34.2251
39.1293
44.1038
47.774
52.2561
57.8309
64.6953
72.646
78.8249
84.0263
86.8985
88.2162
88.5859
87.608
85.13
82.1212
80.7321
80.8595
79.5798
75.5209
69.5459
61.6279
55.1914
47.482
45.1791
42.4464
46.3372
50.9411
57.3093
65.3045
71.9569
76.8465
79.4082
80.462
80.3984
79.115
76.9654
74.635
72.898
72.5654
73.9316
76.5926
79.5518
82.0002
83.7505
84.814
85.0808
84.6592
83.9299
83.216
82.4884
81.6081
80.4726
79.0442
77.3239
75.3718
73.3209
71.3655
69.6942
68.4486
67.7013
67.4073
67.4921
67.8462
68.3513
68.933
69.578
70.2752
70.9573
71.6841
71.947
71.591
72.369
73.7373
50.4165
50.0684
49.0697
47.9791
46.7461
45.5658
44.9032
42.9363
39.5366
36.8294
35.282
35.0987
36.2819
37.7404
38.5723
38.4696
37.5476
35.5482
31.4375
27.1459
23.3619
20.6704
19.6576
21.576
24.8656
28.7967
33.8916
38.989
44.0016
47.5399
51.4057
56.734
63.4205
71.6879
78.0819
83.3242
86.2824
87.4427
87.7866
87.0819
84.9249
82.0994
80.4788
80.2371
78.5807
74.2423
68.0082
59.5725
53.2991
44.9792
42.9811
39.9989
43.5224
49.0124
55.1152
63.6173
70.6783
76.3846
79.4732
80.747
80.7663
79.3796
76.9681
74.3274
72.31
71.6447
72.8582
75.6543
78.9508
81.8005
83.7833
84.8448
85.1094
84.6304
83.8519
83.146
82.4432
81.5703
80.4263
78.9776
77.2242
75.2257
73.1192
71.117
69.4153
68.1756
67.4596
67.217
67.349
67.7498
68.2842
68.8877
69.5376
70.2576
71.0093
71.8604
71.9897
71.4176
71.9906
73.3866
50.0636
49.7214
48.6848
47.6176
46.4003
45.4743
45.1185
42.9282
39.2338
36.2396
34.3822
34.2976
35.8729
37.9058
38.874
38.5309
36.8062
33.3383
27.8793
23.5765
20.3456
18.2538
17.5987
19.7777
23.6434
27.901
33.4176
38.8676
43.9447
47.3608
50.5874
55.5842
62.0786
70.5666
77.2645
82.517
85.6257
86.8061
87.1659
86.7488
85.0853
82.5771
80.6703
79.7467
77.45
72.5342
66.0992
57.1078
51.1222
42.247
40.4727
37.362
40.4438
46.9593
53.0563
61.8128
69.0985
75.4806
79.3453
81.0072
81.1955
79.7112
76.9898
73.9859
71.6614
70.7059
71.7258
74.5673
78.0743
81.3222
83.6278
84.7699
85.0179
84.4849
83.6909
83.038
82.383
81.5242
80.3691
78.8936
77.095
75.0344
72.8558
70.7914
69.0604
67.829
67.1686
66.9837
67.1909
67.6423
68.2351
68.8724
69.5375
70.2721
71.0656
71.9955
72.0824
71.3524
71.8102
73.2387
49.7621
49.4062
48.3578
47.2706
46.0962
45.4197
45.3114
42.8262
38.8498
35.4792
33.3442
33.442
35.4398
37.8556
38.9118
38.2959
35.5052
30.3992
24.1532
19.6558
17.4229
15.7652
15.5944
17.8213
22.2216
26.8714
32.801
38.7229
43.9243
47.3011
49.9678
54.5446
60.8466
69.3694
76.378
81.6206
84.8418
86.2154
86.6914
86.5924
85.504
83.3938
81.3688
79.6051
76.201
70.6668
64.1234
54.4599
48.761
39.3082
37.5614
34.4412
37.0706
44.6531
50.9312
60.233
67.6626
74.4085
78.9645
81.1264
81.612
80.1091
77.092
73.6966
71.0161
69.7021
70.5384
73.47
77.0617
80.5272
83.2371
84.5036
84.7098
84.1958
83.4889
82.9183
82.3049
81.4459
80.2734
78.7668
76.9205
74.7815
72.5114
70.3663
68.5981
67.3833
66.7891
66.6954
66.9873
67.5231
68.1778
68.8773
69.5778
70.3291
71.1251
72.0847
72.2262
71.4539
71.895
73.3118
49.5159
49.1204
48.0559
46.8882
45.7566
45.3381
45.4247
42.7211
38.4061
34.5377
32.2201
32.6217
34.9886
37.551
38.653
37.6039
33.5945
26.9078
20.5208
15.8459
14.5113
13.4705
13.7338
16.0189
20.6706
25.6943
31.8812
38.4501
43.9259
47.3186
49.5926
53.6818
59.7396
68.1829
75.4442
80.6838
83.9105
85.5403
86.2564
86.4924
85.9833
84.3486
82.4372
79.6092
75.1365
69.3297
62.3493
51.9389
46.3088
36.1929
34.3917
31.293
33.2433
41.9374
48.1922
58.7032
66.5571
73.5157
78.4929
81.2176
82.0258
80.5912
77.3031
73.5934
70.6194
68.8182
69.3473
72.3647
76.01
79.4691
82.4786
83.9943
84.2098
83.7522
83.1767
82.7267
82.1797
81.3395
80.1591
78.6222
76.7076
74.4655
72.0664
69.8201
68.0056
66.8157
66.3115
66.327
66.7331
67.3606
68.1068
68.8734
69.6352
70.4022
71.2082
72.1037
72.4016
71.7486
72.2363
73.5704
49.3178
48.8778
47.7889
46.5028
45.3956
45.2141
45.3188
42.5403
38.1964
33.939
31.5486
32.1465
34.5983
37.0778
38.1149
36.3975
31.2568
23.4648
17.2126
12.7095
11.7542
11.5091
12.0684
14.4081
19.1475
24.4799
30.7222
37.9186
43.8022
47.3814
49.4149
53.0123
58.8042
67.0476
74.432
79.6979
82.8325
84.6701
85.6961
86.2804
86.3192
85.3025
83.3936
79.7039
74.5517
68.1654
60.2998
49.3609
43.5283
32.9083
30.9975
28.131
29.1194
38.7873
44.9055
57.0977
65.5492
72.7638
77.9734
81.3254
82.6415
81.1968
77.6202
73.6956
70.6131
68.3897
68.3892
71.2741
74.939
78.2229
81.3344
83.1841
83.4448
83.0998
82.7668
82.4872
82.0163
81.1963
80.004
78.425
76.4264
74.0509
71.4945
69.1161
67.2573
66.1052
65.7222
65.8798
66.4142
67.163
67.9963
68.8597
69.6602
70.4951
71.2748
72.1696
72.5434
72.1119
72.7229
74.0013
49.1316
48.6338
47.523
46.1378
45.0223
44.9212
44.8511
42.2032
38.2949
33.9524
31.6026
32.1756
34.4116
36.6779
37.409
34.9736
28.6049
20.3068
13.8072
9.97648
9.1747
9.83811
10.6445
13.0589
17.8738
23.4578
29.5657
37.1986
43.4786
47.3919
49.3933
52.5603
58.102
65.9741
73.3036
78.5906
81.599
83.5525
84.9096
85.8104
86.326
85.8045
83.949
79.7524
73.9151
66.5929
57.8486
46.5301
40.4804
29.7645
27.4398
25.0717
25.1763
35.7386
42.1426
55.1017
64.4677
72.0708
77.3674
81.1569
83.1769
81.8789
78.0617
73.9594
70.8599
68.3625
67.7384
70.1948
73.8121
76.8585
79.8499
81.9952
82.3936
82.2516
82.2082
82.1497
81.7831
80.9826
79.7794
78.1662
76.0678
73.5215
70.7558
68.227
66.3293
65.24
65.0079
65.3494
66.0302
66.9226
67.8592
68.8124
69.669
70.5174
71.3555
72.1651
72.6765
72.5023
73.267
74.6211
48.9146
48.3342
47.1915
45.7421
44.5732
44.3682
44.0088
41.8025
38.6062
34.4483
32.3083
32.7435
34.5584
36.5489
36.8488
33.5446
25.8898
17.6459
10.6293
7.38224
6.86193
8.35744
9.49751
11.9163
16.8247
22.708
28.6414
36.4294
43.0434
47.2431
49.3979
52.2358
57.624
64.9734
72.0282
77.2409
80.1427
82.1521
83.8199
84.9992
85.8912
85.7673
83.9512
79.3351
72.9263
64.8989
55.4364
44.0188
37.38
27.0068
24.0332
22.1156
21.5442
33.2992
40.0295
52.8786
63.1497
71.5989
76.7775
80.4737
83.1562
82.4074
78.4157
74.2209
71.1693
68.5862
67.3545
69.134
72.5224
75.325
78.084
80.3999
80.9865
81.1031
81.4883
81.7319
81.4491
80.6728
79.4859
77.8408
75.5879
72.8218
69.8368
67.1386
65.2408
64.2323
64.1853
64.7118
65.5864
66.6356
67.6908
68.7229
69.6546
70.5264
71.3732
72.2049
72.8175
73.0075
73.9157
75.3699
48.5997
47.9235
46.7326
45.2304
43.9886
43.5126
42.8662
41.335
38.9593
35.3516
33.6926
34.0404
35.3625
37.023
36.709
32.2236
23.2628
15.6325
8.63933
5.29942
5.05853
7.10697
8.53119
10.9422
15.9573
22.1415
27.9181
35.7183
42.5824
46.8802
49.3081
52.0055
57.3452
64.1525
70.7106
75.6762
78.4306
80.4547
82.3518
83.7732
84.9383
85.1218
83.2872
78.3645
71.8549
63.3353
53.2796
41.9604
34.488
24.9255
20.9549
19.5647
18.8428
30.8302
38.499
50.7963
61.6604
71.2311
76.3535
79.563
82.4179
82.2427
78.4852
74.4639
71.6587
69.1028
67.1938
68.0607
71.0242
73.6282
76.0432
78.3106
79.1676
79.7224
80.5926
81.1175
80.9767
80.2846
79.0995
77.3789
74.9699
71.9852
68.7708
65.9051
64.0163
63.1563
63.2992
64.0603
65.1071
66.3114
67.4911
68.6013
69.597
70.5028
71.3872
72.2087
73.0055
73.4793
74.6789
76.1132
48.1795
47.3934
46.1373
44.6057
43.2727
42.4378
41.6208
40.8092
39.3758
36.7835
35.9468
36.3486
37.179
38.4242
37.1756
31.3563
21.1562
13.7638
7.44138
3.7406
3.77041
6.19566
7.8291
10.2277
15.2757
21.7173
27.3223
35.1298
42.2242
46.4076
49.0646
51.8621
57.1584
63.4721
69.394
73.9819
76.5284
78.4973
80.4873
82.1077
83.5026
83.8598
81.9302
77.1367
70.7788
61.9009
51.4882
40.1302
32.1865
23.2737
18.4731
17.8159
17.5614
28.4375
37.4101
49.3375
60.321
70.5834
76.049
78.6565
81.1829
81.5344
78.2708
74.7103
72.3652
69.9315
67.3424
67.0795
69.3916
71.7807
73.7618
75.8814
76.9871
78.0259
79.3932
80.3417
80.4122
79.7813
78.5728
76.831
74.2825
71.0181
67.5389
64.5378
62.7371
62.0567
62.4403
63.3788
64.6391
65.9679
67.2714
68.4493
69.5217
70.3997
71.3535
72.236
73.1209
73.975
75.2983
76.9393
47.6778
46.7411
45.4251
43.9043
42.477
41.3062
40.5011
40.3738
39.9806
38.7638
39.0295
39.7134
40.1321
41.0154
38.6693
31.3543
20.5978
12.205
6.5834
2.45065
2.82885
5.56198
7.40882
9.70574
14.7773
21.481
26.8505
34.5243
42.0334
46.0893
48.7435
51.7307
56.9693
62.8531
68.1006
72.1934
74.5056
76.3313
78.2678
80.0223
81.585
81.9544
80.0753
75.7137
69.5432
60.4237
49.9067
38.6605
30.3732
22.0356
16.6797
16.7254
17.3938
26.7676
36.7453
48.6532
59.3377
69.6338
75.6898
77.7834
79.8311
80.3863
77.7792
74.8102
73.1823
71.0911
67.9602
66.3426
67.6133
69.6192
71.237
73.0971
74.4151
75.9616
77.9547
79.4167
79.6732
79.1324
77.9827
76.2079
73.4534
69.8941
66.2272
63.1696
61.4999
61.0214
61.6524
62.7797
64.2046
65.6497
67.0439
68.2915
69.4021
70.3928
71.2675
72.1985
73.2432
74.2858
76.0377
77.5685
47.142
46.033
44.6128
43.1336
41.6498
40.319
39.6374
40.0455
40.6919
41.0498
42.6697
44.1082
44.248
44.711
41.2517
31.5054
21.1667
11.8099
6.36193
2.06764
2.18597
5.11878
7.23085
9.38546
14.5209
21.434
26.5797
33.8887
41.8299
46.0092
48.5214
51.6393
56.7457
62.1834
66.8273
70.2843
72.3236
73.9399
75.7519
77.5352
79.1394
79.519
77.8842
73.9288
68.0859
58.8976
48.5592
37.5771
29.017
21.2796
15.5283
15.9962
17.6584
25.9536
36.4166
48.5425
58.7934
68.6239
75.1331
77.0091
78.6438
79.0474
77.0453
74.7803
74.0261
72.2705
68.7213
65.7365
65.5314
66.8269
68.2338
69.7166
71.4511
73.573
76.2961
78.2781
78.7935
78.4286
77.3086
75.4537
72.5212
68.7878
64.9434
61.8103
60.3619
60.0651
60.9929
62.2535
63.8528
65.3629
66.8463
68.1078