/*--------------------------------*- C++ -*----------------------------------*\
| =========                 |                                                 |
| \\      /  F ield         | OpenFOAM: The Open Source CFD Toolbox           |
|  \\    /   O peration     | Version:  2.4.0                                 |
|   \\  /    A nd           | Web:      www.OpenFOAM.org                      |
|    \\/     M anipulation  |                                                 |
\*---------------------------------------------------------------------------*/
FoamFile
{
    version     2.0;
    format      ascii;
    class       volVectorField;
    location    "0.0830731";
    object      U;
}
// * * * * * * * * * * * * * * * * * * * * * * * * * * * * * * * * * * * * * //

dimensions      [0 1 -1 0 0 0 0];

internalField   nonuniform List<vector> 
17600
(
(9.84298 -0.187473 0)
(9.53021 -0.133539 0)
(9.21422 -0.0671253 0)
(8.91079 -0.0262597 0)
(8.63693 -0.00497504 0)
(8.39919 0.00458705 0)
(8.19695 0.00794358 0)
(8.02713 0.00821054 0)
(7.88568 0.00708415 0)
(7.76814 0.00552953 0)
(7.67004 0.00404521 0)
(7.58726 0.0028519 0)
(7.51616 0.00201927 0)
(7.45355 0.00154338 0)
(7.39654 0.00139727 0)
(7.34231 0.001577 0)
(7.2872 0.0020878 0)
(7.22659 0.00362928 0)
(7.1461 0.00384452 0)
(7.0422 0.0321017 0)
(10.0568 0.104544 0)
(10.1493 0.134355 0)
(10.1837 0.103792 0)
(10.1747 0.0771031 0)
(10.1353 0.0592378 0)
(10.0718 0.0470603 0)
(9.98919 0.0385278 0)
(9.89336 0.0322883 0)
(9.78957 0.0275108 0)
(9.68207 0.0237604 0)
(9.57405 0.0207665 0)
(9.46791 0.0183489 0)
(9.36538 0.0163932 0)
(9.26759 0.0148382 0)
(9.17502 0.0136764 0)
(9.08766 0.0129764 0)
(9.00422 0.0129186 0)
(8.9253 0.0142021 0)
(8.83751 0.0177246 0)
(8.79067 0.0371661 0)
(10.0096 0.0173569 0)
(10.0499 0.00874767 0)
(10.0889 0.0109982 0)
(10.1182 0.0211397 0)
(10.1396 0.0286441 0)
(10.153 0.0319972 0)
(10.1575 0.0327742 0)
(10.153 0.0322233 0)
(10.1402 0.0310164 0)
(10.12 0.0295198 0)
(10.0928 0.0279343 0)
(10.0595 0.0263787 0)
(10.0206 0.0249332 0)
(9.97677 0.0236673 0)
(9.92853 0.0226625 0)
(9.87622 0.0220916 0)
(9.81946 0.0221254 0)
(9.75811 0.0241082 0)
(9.68668 0.0274098 0)
(9.61274 0.0496129 0)
(10.0045 0.0149701 0)
(10.0285 0.0283276 0)
(10.0553 0.0335834 0)
(10.0785 0.0360884 0)
(10.1002 0.0365017 0)
(10.1206 0.0355727 0)
(10.1383 0.0341878 0)
(10.1526 0.0327477 0)
(10.1635 0.0313522 0)
(10.171 0.0300375 0)
(10.1752 0.0288417 0)
(10.1762 0.0277968 0)
(10.1739 0.0269289 0)
(10.1683 0.0262748 0)
(10.1591 0.0259079 0)
(10.1462 0.0260177 0)
(10.1285 0.0268662 0)
(10.1053 0.0298444 0)
(10.0728 0.0350887 0)
(10.0332 0.0569699 0)
(10.0035 0.0139833 0)
(10.0226 0.0275825 0)
(10.0443 0.0298985 0)
(10.0635 0.0311366 0)
(10.0827 0.0320709 0)
(10.1022 0.032005 0)
(10.1209 0.031305 0)
(10.1379 0.0303756 0)
(10.1532 0.0293823 0)
(10.1669 0.0284071 0)
(10.1788 0.0275185 0)
(10.1891 0.0267655 0)
(10.1976 0.0261871 0)
(10.2043 0.0258364 0)
(10.2091 0.0258103 0)
(10.2115 0.0263349 0)
(10.2108 0.0277465 0)
(10.2063 0.0314768 0)
(10.1952 0.0381348 0)
(10.1805 0.0592265 0)
(10.0031 0.0129459 0)
(10.0198 0.0253987 0)
(10.0393 0.0271225 0)
(10.0568 0.0284274 0)
(10.0743 0.0296441 0)
(10.0927 0.029755 0)
(10.1107 0.0291661 0)
(10.1277 0.0283577 0)
(10.1438 0.0275034 0)
(10.1589 0.0266755 0)
(10.1729 0.0259372 0)
(10.1859 0.0253365 0)
(10.1978 0.0249157 0)
(10.2085 0.0247372 0)
(10.2179 0.0249143 0)
(10.2257 0.0257008 0)
(10.2311 0.0274858 0)
(10.2336 0.0317305 0)
(10.231 0.0392439 0)
(10.2262 0.0597323 0)
(10.0027 0.0114957 0)
(10.0178 0.0229036 0)
(10.0363 0.0248245 0)
(10.053 0.0262134 0)
(10.0697 0.0274424 0)
(10.0871 0.027571 0)
(10.1045 0.0270305 0)
(10.1212 0.0263041 0)
(10.1371 0.025548 0)
(10.1524 0.0248233 0)
(10.167 0.0241899 0)
(10.1808 0.023697 0)
(10.1939 0.0233907 0)
(10.2061 0.0233416 0)
(10.2173 0.023677 0)
(10.2272 0.024675 0)
(10.2352 0.026769 0)
(10.2408 0.03143 0)
(10.2422 0.0395902 0)
(10.2416 0.0597237 0)
(10.0023 0.0101207 0)
(10.0162 0.0207639 0)
(10.034 0.0228968 0)
(10.0504 0.0241963 0)
(10.0667 0.0253262 0)
(10.0836 0.0254493 0)
(10.1005 0.0249493 0)
(10.1168 0.0242863 0)
(10.1325 0.0236035 0)
(10.1477 0.022955 0)
(10.1623 0.0223993 0)
(10.1763 0.021987 0)
(10.1898 0.0217677 0)
(10.2025 0.0218196 0)
(10.2145 0.0222835 0)
(10.2254 0.0234591 0)
(10.2346 0.0258186 0)
(10.2418 0.0308309 0)
(10.2455 0.0395263 0)
(10.2472 0.0594584 0)
(10.0021 0.00890281 0)
(10.0149 0.018795 0)
(10.032 0.0210036 0)
(10.0483 0.0221762 0)
(10.0644 0.0232202 0)
(10.081 0.0233579 0)
(10.0976 0.0229055 0)
(10.1137 0.0223016 0)
(10.1292 0.021683 0)
(10.1442 0.0210992 0)
(10.1587 0.0206081 0)
(10.1727 0.0202614 0)
(10.1862 0.0201128 0)
(10.1992 0.0202479 0)
(10.2115 0.0208201 0)
(10.2229 0.0221483 0)
(10.2328 0.0247388 0)
(10.2409 0.0300498 0)
(10.2461 0.0391939 0)
(10.2495 0.0590171 0)
(10.0018 0.00781494 0)
(10.0138 0.0169076 0)
(10.0304 0.0191078 0)
(10.0465 0.0201699 0)
(10.0625 0.0211394 0)
(10.0789 0.0212931 0)
(10.0954 0.0208879 0)
(10.1113 0.0203412 0)
(10.1266 0.0197836 0)
(10.1415 0.0192603 0)
(10.1559 0.0188277 0)
(10.1699 0.0185392 0)
(10.1834 0.0184521 0)
(10.1965 0.0186593 0)
(10.2089 0.0193259 0)
(10.2205 0.0207875 0)
(10.2308 0.0235802 0)
(10.2396 0.029145 0)
(10.2459 0.0386646 0)
(10.2506 0.0584316 0)
(10.0017 0.00682738 0)
(10.0128 0.015084 0)
(10.0289 0.0172242 0)
(10.045 0.0181881 0)
(10.0608 0.01908 0)
(10.0772 0.0192431 0)
(10.0935 0.0188841 0)
(10.1094 0.0183945 0)
(10.1246 0.0178975 0)
(10.1394 0.0174334 0)
(10.1538 0.0170573 0)
(10.1677 0.0168235 0)
(10.1812 0.0167931 0)
(10.1942 0.0170653 0)
(10.2067 0.0178164 0)
(10.2184 0.0193961 0)
(10.2291 0.0223659 0)
(10.2384 0.0281451 0)
(10.2456 0.0379758 0)
(10.2515 0.0577086 0)
(10.0015 0.00592156 0)
(10.012 0.0133227 0)
(10.0276 0.0153594 0)
(10.0436 0.0162278 0)
(10.0594 0.0170359 0)
(10.0757 0.0172015 0)
(10.0919 0.0168879 0)
(10.1078 0.0164554 0)
(10.123 0.0160185 0)
(10.1377 0.0156135 0)
(10.1521 0.0152932 0)
(10.166 0.0151127 0)
(10.1794 0.0151361 0)
(10.1924 0.0154688 0)
(10.205 0.0162967 0)
(10.2168 0.0179813 0)
(10.2277 0.0211057 0)
(10.2375 0.0270637 0)
(10.2455 0.0371467 0)
(10.2526 0.0568436 0)
(10.0014 0.00508399 0)
(10.0113 0.0116195 0)
(10.0266 0.0135119 0)
(10.0425 0.0142842 0)
(10.0582 0.0150039 0)
(10.0744 0.0151662 0)
(10.0906 0.0148966 0)
(10.1064 0.0145205 0)
(10.1216 0.0141432 0)
(10.1363 0.013797 0)
(10.1506 0.0135323 0)
(10.1645 0.0134042 0)
(10.178 0.0134796 0)
(10.191 0.0138692 0)
(10.2036 0.0147673 0)
(10.2156 0.0165451 0)
(10.2267 0.0198029 0)
(10.2369 0.0259068 0)
(10.2457 0.0361868 0)
(10.254 0.0558285 0)
(10.0013 0.00430315 0)
(10.0107 0.00996757 0)
(10.0256 0.0116793 0)
(10.0415 0.0123542 0)
(10.0572 0.0129825 0)
(10.0733 0.013136 0)
(10.0895 0.0129087 0)
(10.1052 0.0125883 0)
(10.1204 0.0122697 0)
(10.1352 0.0119819 0)
(10.1494 0.0117724 0)
(10.1633 0.0116959 0)
(10.1768 0.0118217 0)
(10.1899 0.0122649 0)
(10.2025 0.0132271 0)
(10.2146 0.015087 0)
(10.226 0.018458 0)
(10.2366 0.0246765 0)
(10.2461 0.0351008 0)
(10.2556 0.0546547 0)
(10.0012 0.00356885 0)
(10.0102 0.00835995 0)
(10.0249 0.00985992 0)
(10.0406 0.0104357 0)
(10.0563 0.0109705 0)
(10.0723 0.0111103 0)
(10.0885 0.0109236 0)
(10.1042 0.010658 0)
(10.1194 0.0103971 0)
(10.1342 0.0101671 0)
(10.1485 0.0100123 0)
(10.1623 0.00998652 0)
(10.1758 0.0101609 0)
(10.1889 0.0106545 0)
(10.2016 0.0116749 0)
(10.2139 0.013606 0)
(10.2255 0.0170706 0)
(10.2366 0.0233737 0)
(10.2468 0.0338914 0)
(10.2575 0.0533156 0)
(10.0011 0.00287205 0)
(10.0098 0.00678964 0)
(10.0243 0.0080518 0)
(10.0399 0.00852669 0)
(10.0556 0.00896659 0)
(10.0716 0.00908836 0)
(10.0877 0.00894057 0)
(10.1034 0.00872892 0)
(10.1186 0.00852494 0)
(10.1334 0.00835197 0)
(10.1477 0.00825118 0)
(10.1616 0.00827515 0)
(10.1751 0.00849639 0)
(10.1882 0.00903707 0)
(10.201 0.0101095 0)
(10.2134 0.0121009 0)
(10.2253 0.0156398 0)
(10.2368 0.0219985 0)
(10.2478 0.0325605 0)
(10.2597 0.0518063 0)
(10.0011 0.0022047 0)
(10.0095 0.00524975 0)
(10.0238 0.00625312 0)
(10.0394 0.0066253 0)
(10.055 0.0069693 0)
(10.071 0.00706949 0)
(10.0871 0.00695922 0)
(10.1028 0.00680085 0)
(10.118 0.00665287 0)
(10.1327 0.00653629 0)
(10.147 0.00648882 0)
(10.161 0.00656139 0)
(10.1745 0.00682752 0)
(10.1877 0.00741182 0)
(10.2006 0.00853015 0)
(10.2131 0.0105712 0)
(10.2252 0.0141653 0)
(10.2372 0.0205513 0)
(10.2489 0.0311099 0)
(10.262 0.0501249 0)
(10.001 0.00155952 0)
(10.0093 0.00373344 0)
(10.0234 0.0044619 0)
(10.039 0.00472975 0)
(10.0546 0.00497717 0)
(10.0705 0.005053 0)
(10.0866 0.00497908 0)
(10.1023 0.00487345 0)
(10.1175 0.00478075 0)
(10.1323 0.0047199 0)
(10.1466 0.004725 0)
(10.1605 0.00484499 0)
(10.1741 0.00515398 0)
(10.1873 0.00577838 0)
(10.2003 0.00693636 0)
(10.213 0.00901622 0)
(10.2254 0.012647 0)
(10.2377 0.0190325 0)
(10.2502 0.0295419 0)
(10.2644 0.0482713 0)
(10.001 0.000929779 0)
(10.0092 0.0022339 0)
(10.0232 0.00267607 0)
(10.0387 0.00283832 0)
(10.0543 0.00298873 0)
(10.0702 0.00303818 0)
(10.0863 0.00299977 0)
(10.102 0.00294642 0)
(10.1172 0.00290843 0)
(10.132 0.0029027 0)
(10.1463 0.00295964 0)
(10.1602 0.00312583 0)
(10.1738 0.00347561 0)
(10.1871 0.00413651 0)
(10.2002 0.00532785 0)
(10.213 0.00743589 0)
(10.2257 0.0110851 0)
(10.2385 0.0174432 0)
(10.2516 0.027859 0)
(10.267 0.0462474 0)
(10.001 0.000309173 0)
(10.0091 0.000744386 0)
(10.023 0.00089349 0)
(10.0386 0.000949343 0)
(10.0542 0.00100247 0)
(10.0701 0.00102433 0)
(10.0862 0.00102086 0)
(10.1019 0.0010195 0)
(10.1171 0.00103575 0)
(10.1318 0.00108464 0)
(10.1462 0.00119267 0)
(10.1601 0.00140384 0)
(10.1737 0.00179232 0)
(10.1871 0.00248609 0)
(10.2002 0.00370452 0)
(10.2132 0.00583021 0)
(10.2261 0.00948002 0)
(10.2394 0.0157844 0)
(10.2532 0.0260642 0)
(10.2697 0.0440569 0)
(10.001 -0.00030841 0)
(10.0091 -0.000741795 0)
(10.023 -0.000888003 0)
(10.0386 -0.000938828 0)
(10.0542 -0.000983088 0)
(10.0701 -0.000989263 0)
(10.0862 -0.000958019 0)
(10.1019 -0.0009076 0)
(10.1171 -0.000837398 0)
(10.1318 -0.000734347 0)
(10.1462 -0.000575932 0)
(10.1602 -0.000321 0)
(10.1738 0.000104049 0)
(10.1872 0.000827076 0)
(10.2004 0.00206636 0)
(10.2136 0.00419935 0)
(10.2267 0.00783244 0)
(10.2404 0.0140577 0)
(10.2548 0.0241608 0)
(10.2725 0.0417045 0)
(10.001 -0.000929021 0)
(10.0092 -0.00223132 0)
(10.0232 -0.00267061 0)
(10.0387 -0.00282786 0)
(10.0543 -0.00296945 0)
(10.0702 -0.00300331 0)
(10.0863 -0.00293727 0)
(10.102 -0.00283514 0)
(10.1173 -0.00271115 0)
(10.132 -0.0025543 0)
(10.1464 -0.00234619 0)
(10.1604 -0.00204872 0)
(10.174 -0.0015892 0)
(10.1875 -0.000840524 0)
(10.2008 0.000413471 0)
(10.2141 0.00254361 0)
(10.2275 0.00614321 0)
(10.2416 0.0122648 0)
(10.2567 0.0221525 0)
(10.2753 0.0391959 0)
(10.001 -0.00155877 0)
(10.0093 -0.00373089 0)
(10.0234 -0.00445651 0)
(10.039 -0.00471942 0)
(10.0546 -0.00495812 0)
(10.0705 -0.00501852 0)
(10.0866 -0.00491729 0)
(10.1024 -0.00476339 0)
(10.1176 -0.00458563 0)
(10.1323 -0.00437526 0)
(10.1467 -0.00411813 0)
(10.1607 -0.00377931 0)
(10.1744 -0.00328741 0)
(10.1879 -0.00251667 0)
(10.2013 -0.00125402 0)
(10.2148 0.000863383 0)
(10.2284 0.00441328 0)
(10.2429 0.0104075 0)
(10.2586 0.0200431 0)
(10.2783 0.0365376 0)
(10.0011 -0.00220396 0)
(10.0095 -0.00524725 0)
(10.0238 -0.00624783 0)
(10.0394 -0.00661515 0)
(10.055 -0.00695058 0)
(10.071 -0.0070356 0)
(10.0871 -0.00689846 0)
(10.1028 -0.00669263 0)
(10.1181 -0.00646097 0)
(10.1328 -0.00619728 0)
(10.1472 -0.00589176 0)
(10.1612 -0.00551279 0)
(10.175 -0.00499058 0)
(10.1885 -0.0042013 0)
(10.202 -0.00293594 0)
(10.2156 -0.000840906 0)
(10.2295 0.00264372 0)
(10.2444 0.00848779 0)
(10.2606 0.0178365 0)
(10.2813 0.0337366 0)
(10.0011 -0.00287133 0)
(10.0098 -0.0067872 0)
(10.0243 -0.00804663 0)
(10.0399 -0.00851677 0)
(10.0556 -0.0089483 0)
(10.0716 -0.00905525 0)
(10.0877 -0.0088812 0)
(10.1035 -0.00862313 0)
(10.1187 -0.0083373 0)
(10.1335 -0.00802042 0)
(10.1479 -0.00766714 0)
(10.1619 -0.00724919 0)
(10.1757 -0.00669874 0)
(10.1893 -0.00589441 0)
(10.2029 -0.00463213 0)
(10.2166 -0.0025688 0)
(10.2307 0.000835642 0)
(10.246 0.00650791 0)
(10.2628 0.0155371 0)
(10.2844 0.0308002 0)
(10.0012 -0.00356815 0)
(10.0102 -0.00835758 0)
(10.0249 -0.00985491 0)
(10.0406 -0.0104261 0)
(10.0563 -0.0109527 0)
(10.0723 -0.0110782 0)
(10.0885 -0.0108659 0)
(10.1043 -0.0105552 0)
(10.1195 -0.0102148 0)
(10.1343 -0.00984479 0)
(10.1487 -0.00944436 0)
(10.1628 -0.00898863 0)
(10.1766 -0.008412 0)
(10.1902 -0.00759606 0)
(10.2039 -0.00634252 0)
(10.2177 -0.00431987 0)
(10.2321 -0.00100985 0)
(10.2477 0.00447007 0)
(10.2651 0.0131491 0)
(10.2875 0.027736 0)
(10.0013 -0.00430248 0)
(10.0107 -0.00996529 0)
(10.0256 -0.0116745 0)
(10.0415 -0.012345 0)
(10.0572 -0.0129654 0)
(10.0733 -0.013105 0)
(10.0895 -0.0128531 0)
(10.1053 -0.0124891 0)
(10.1205 -0.0120937 0)
(10.1353 -0.0116706 0)
(10.1497 -0.0112237 0)
(10.1638 -0.0107314 0)
(10.1777 -0.0101307 0)
(10.1914 -0.0093065 0)
(10.2051 -0.00806716 0)
(10.2191 -0.00609379 0)
(10.2337 -0.00289161 0)
(10.2497 0.00237664 0)
(10.2676 0.0106772 0)
(10.2908 0.0245522 0)
(10.0014 -0.00508335 0)
(10.0113 -0.0116173 0)
(10.0266 -0.0135073 0)
(10.0425 -0.0142754 0)
(10.0582 -0.0149875 0)
(10.0744 -0.0151365 0)
(10.0906 -0.0148433 0)
(10.1064 -0.0144254 0)
(10.1217 -0.0139744 0)
(10.1365 -0.0134984 0)
(10.151 -0.0130057 0)
(10.1651 -0.0124781 0)
(10.179 -0.0118554 0)
(10.1927 -0.0110263 0)
(10.2066 -0.00980631 0)
(10.2207 -0.00789026 0)
(10.2355 -0.00480837 0)
(10.2518 0.000230375 0)
(10.2702 0.00812651 0)
(10.2942 0.0212572 0)
(10.0015 -0.00592096 0)
(10.012 -0.0133207 0)
(10.0277 -0.015355 0)
(10.0436 -0.0162194 0)
(10.0594 -0.0170204 0)
(10.0757 -0.0171734 0)
(10.092 -0.0168373 0)
(10.1078 -0.0163649 0)
(10.1231 -0.0158578 0)
(10.138 -0.0153292 0)
(10.1524 -0.0147915 0)
(10.1666 -0.01423 0)
(10.1805 -0.0135872 0)
(10.1944 -0.0127561 0)
(10.2083 -0.0115602 0)
(10.2226 -0.00970875 0)
(10.2376 -0.00675831 0)
(10.2542 -0.00196516 0)
(10.273 0.00550334 0)
(10.2976 0.0178612 0)
(10.0017 -0.00682681 0)
(10.0128 -0.015082 0)
(10.0289 -0.0172201 0)
(10.045 -0.0181802 0)
(10.0608 -0.0190654 0)
(10.0772 -0.0192166 0)
(10.0936 -0.0188364 0)
(10.1094 -0.0183092 0)
(10.1248 -0.0177458 0)
(10.1397 -0.0171649 0)
(10.1542 -0.0165832 0)
(10.1684 -0.0159889 0)
(10.1824 -0.0153275 0)
(10.1963 -0.0144969 0)
(10.2104 -0.0133288 0)
(10.2248 -0.0115478 0)
(10.2399 -0.00873823 0)
(10.2568 -0.00420451 0)
(10.276 0.00281631 0)
(10.3012 0.0143764 0)
(10.0018 -0.00781441 0)
(10.0138 -0.0169058 0)
(10.0304 -0.019104 0)
(10.0465 -0.0201626 0)
(10.0625 -0.0211258 0)
(10.0789 -0.0212684 0)
(10.0954 -0.0208434 0)
(10.1114 -0.0202615 0)
(10.1268 -0.0196419 0)
(10.1418 -0.019009 0)
(10.1564 -0.0183837 0)
(10.1707 -0.0177569 0)
(10.1847 -0.0170775 0)
(10.1987 -0.0162482 0)
(10.2128 -0.01511 0)
(10.2273 -0.0134034 0)
(10.2426 -0.0107417 0)
(10.2596 -0.0064783 0)
(10.2791 7.86566e-05 0)
(10.3047 0.0108197 0)
(10.0021 -0.00890233 0)
(10.0149 -0.0187934 0)
(10.032 -0.0210001 0)
(10.0483 -0.0221695 0)
(10.0644 -0.0232077 0)
(10.081 -0.0233351 0)
(10.0976 -0.0228644 0)
(10.1137 -0.022228 0)
(10.1293 -0.0215518 0)
(10.1444 -0.0208665 0)
(10.1591 -0.0201965 0)
(10.1735 -0.0195356 0)
(10.1877 -0.0188362 0)
(10.2017 -0.0180065 0)
(10.2158 -0.0168972 0)
(10.2302 -0.0152659 0)
(10.2455 -0.0127554 0)
(10.2625 -0.0087696 0)
(10.282 -0.00268808 0)
(10.3077 0.00721623 0)
(10.0023 -0.0101203 0)
(10.0162 -0.0207624 0)
(10.034 -0.0228937 0)
(10.0504 -0.0241902 0)
(10.0667 -0.0253148 0)
(10.0836 -0.0254285 0)
(10.1005 -0.0249119 0)
(10.1169 -0.0242192 0)
(10.1326 -0.0234837 0)
(10.1479 -0.0227421 0)
(10.1628 -0.0220223 0)
(10.1772 -0.0213212 0)
(10.1912 -0.0205954 0)
(10.2051 -0.0197591 0)
(10.219 -0.0186732 0)
(10.2332 -0.0171133 0)
(10.2481 -0.0147525 0)
(10.2648 -0.0110465 0)
(10.2839 -0.00544597 0)
(10.3094 0.0036079 0)
(10.0027 -0.0114954 0)
(10.0178 -0.0229023 0)
(10.0363 -0.0248217 0)
(10.053 -0.026208 0)
(10.0697 -0.0274323 0)
(10.0872 -0.0275525 0)
(10.1045 -0.026997 0)
(10.1213 -0.0262437 0)
(10.1373 -0.0254401 0)
(10.1527 -0.0246312 0)
(10.1675 -0.0238492 0)
(10.1817 -0.0230945 0)
(10.1954 -0.0223285 0)
(10.2088 -0.0214718 0)
(10.222 -0.0203967 0)
(10.2354 -0.0188973 0)
(10.2495 -0.0166776 0)
(10.2651 -0.0132466 0)
(10.2832 -0.00812388 0)
(10.3076 7.10114e-05 0)
(10.0031 -0.0129456 0)
(10.0198 -0.0253976 0)
(10.0393 -0.0271201 0)
(10.0568 -0.0284227 0)
(10.0744 -0.0296353 0)
(10.0927 -0.0297387 0)
(10.1107 -0.0291366 0)
(10.1278 -0.0283045 0)
(10.144 -0.0274079 0)
(10.1592 -0.0265051 0)
(10.1734 -0.0256343 0)
(10.1868 -0.0247999 0)
(10.1994 -0.023968 0)
(10.2114 -0.0230663 0)
(10.2229 -0.0219784 0)
(10.2343 -0.0205179 0)
(10.246 -0.0184198 0)
(10.2592 -0.0152488 0)
(10.2746 -0.0105884 0)
(10.2962 -0.003255 0)
(10.0035 -0.013983 0)
(10.0226 -0.0275815 0)
(10.0443 -0.0298964 0)
(10.0635 -0.0311326 0)
(10.0827 -0.0320634 0)
(10.1023 -0.0319911 0)
(10.1209 -0.0312795 0)
(10.138 -0.0303295 0)
(10.1534 -0.0292994 0)
(10.1672 -0.0282588 0)
(10.1794 -0.0272542 0)
(10.19 -0.0262964 0)
(10.1993 -0.0253569 0)
(10.2073 -0.0243701 0)
(10.2142 -0.0232303 0)
(10.2204 -0.0217706 0)
(10.2265 -0.0197567 0)
(10.2334 -0.0168131 0)
(10.242 -0.0125811 0)
(10.2567 -0.00611413 0)
(10.0045 -0.0149699 0)
(10.0285 -0.0283269 0)
(10.0553 -0.0335818 0)
(10.0785 -0.0360852 0)
(10.1002 -0.0364955 0)
(10.1206 -0.0355611 0)
(10.1384 -0.0341665 0)
(10.1527 -0.0327089 0)
(10.1636 -0.0312821 0)
(10.1713 -0.0299116 0)
(10.1758 -0.0286169 0)
(10.1771 -0.0273972 0)
(10.1756 -0.0262214 0)
(10.1713 -0.0250252 0)
(10.1646 -0.0237107 0)
(10.1559 -0.0221306 0)
(10.1458 -0.0200834 0)
(10.1357 -0.0172669 0)
(10.1268 -0.0133826 0)
(10.1239 -0.00777096 0)
(10.0096 -0.0173567 0)
(10.0499 -0.00874697 0)
(10.0889 -0.0109968 0)
(10.1182 -0.021137 0)
(10.1396 -0.028639 0)
(10.153 -0.0319876 0)
(10.1575 -0.0327566 0)
(10.1531 -0.0321915 0)
(10.1404 -0.0309592 0)
(10.1203 -0.0294179 0)
(10.0934 -0.0277535 0)
(10.0605 -0.0260594 0)
(10.0225 -0.0243713 0)
(9.98022 -0.02268 0)
(9.9348 -0.0209361 0)
(9.88751 -0.0190434 0)
(9.83984 -0.0168565 0)
(9.79414 -0.0141623 0)
(9.75207 -0.0107661 0)
(9.72038 -0.00623726 0)
(10.0568 -0.104544 0)
(10.1493 -0.134355 0)
(10.1837 -0.103791 0)
(10.1747 -0.0771009 0)
(10.1353 -0.0592337 0)
(10.0718 -0.0470527 0)
(9.98923 -0.0385142 0)
(9.89344 -0.0322634 0)
(9.78973 -0.0274659 0)
(9.68237 -0.0236803 0)
(9.57461 -0.0206246 0)
(9.46894 -0.0180989 0)
(9.36724 -0.015955 0)
(9.27092 -0.0140723 0)
(9.18097 -0.0123404 0)
(9.09815 -0.0106404 0)
(9.02303 -0.00883393 0)
(8.95681 -0.00673342 0)
(8.89968 -0.00429413 0)
(8.85944 -0.00137469 0)
(9.84298 0.187473 0)
(9.53021 0.133539 0)
(9.21423 0.0671257 0)
(8.91081 0.0262607 0)
(8.63697 0.00497713 0)
(8.39926 -0.00458308 0)
(8.1971 -0.0079365 0)
(8.0274 -0.00819763 0)
(7.88617 -0.0070607 0)
(7.76902 -0.00548732 0)
(7.67161 -0.00396992 0)
(7.59003 -0.0027186 0)
(7.52103 -0.00178477 0)
(7.46208 -0.00113282 0)
(7.41145 -0.000681871 0)
(7.36832 -0.000323573 0)
(7.33269 5.62675e-05 0)
(7.30624 0.000618492 0)
(7.2902 0.00133088 0)
(7.28931 0.00220105 0)
(6.73385 -0.0964959 0)
(6.4694 -0.133014 0)
(6.20476 -0.14726 0)
(5.95343 -0.156526 0)
(5.73148 -0.159226 0)
(5.54269 -0.148391 0)
(5.38134 -0.118809 0)
(5.24485 -0.0708435 0)
(5.14039 -0.00747469 0)
(5.07436 0.0647313 0)
(5.04965 0.138922 0)
(5.06384 0.209456 0)
(5.10996 0.272041 0)
(5.17899 0.323896 0)
(5.26199 0.363664 0)
(5.35134 0.391143 0)
(5.44119 0.406945 0)
(5.52751 0.41218 0)
(5.60784 0.408182 0)
(5.68096 0.396323 0)
(5.74661 0.377894 0)
(5.80518 0.354038 0)
(5.85747 0.325712 0)
(5.90451 0.293679 0)
(5.94741 0.258508 0)
(5.98729 0.220591 0)
(6.0252 0.18016 0)
(6.0621 0.137311 0)
(6.09887 0.0920193 0)
(6.13628 0.044143 0)
(6.17499 -0.00653685 0)
(6.21569 -0.0602967 0)
(6.25894 -0.117447 0)
(6.30531 -0.178327 0)
(6.35532 -0.243308 0)
(6.40949 -0.31279 0)
(6.46833 -0.387191 0)
(6.53237 -0.466948 0)
(6.60211 -0.552514 0)
(6.67811 -0.644352 0)
(6.76092 -0.74294 0)
(6.85111 -0.848766 0)
(6.94926 -0.962325 0)
(7.05596 -1.08412 0)
(7.17181 -1.21466 0)
(7.29738 -1.35444 0)
(7.43319 -1.50393 0)
(7.57969 -1.66359 0)
(7.73718 -1.83378 0)
(7.90571 -2.01473 0)
(8.0849 -2.20642 0)
(8.27358 -2.40837 0)
(8.46922 -2.61927 0)
(8.66701 -2.83639 0)
(8.85868 -3.05479 0)
(9.03163 -3.26668 0)
(9.16981 -3.46157 0)
(9.25711 -3.62791 0)
(9.28299 -3.75605 0)
(9.24704 -3.84094 0)
(9.15954 -3.88309 0)
(9.03749 -3.88715 0)
(8.8989 -3.85944 0)
(8.75856 -3.80578 0)
(8.62645 -3.73052 0)
(8.50821 -3.63654 0)
(8.40644 -3.52561 0)
(8.32173 -3.39881 0)
(8.25348 -3.25682 0)
(8.20028 -3.10011 0)
(8.16017 -2.92912 0)
(8.13077 -2.74435 0)
(8.10935 -2.54646 0)
(8.09281 -2.3363 0)
(8.07767 -2.11498 0)
(8.06016 -1.88402 0)
(8.03635 -1.64547 0)
(8.00251 -1.40196 0)
(7.95536 -1.1568 0)
(7.89247 -0.913792 0)
(7.81246 -0.677092 0)
(7.71516 -0.450893 0)
(7.60155 -0.239115 0)
(7.47369 -0.0452183 0)
(7.33447 0.12802 0)
(7.18731 0.278786 0)
(7.03571 0.406394 0)
(6.88302 0.510998 0)
(6.73235 0.5935 0)
(6.58633 0.655401 0)
(6.44706 0.698629 0)
(6.31609 0.725364 0)
(6.19447 0.737891 0)
(6.08275 0.738475 0)
(5.98114 0.72927 0)
(5.88951 0.712257 0)
(5.80752 0.68921 0)
(5.73466 0.661681 0)
(5.67029 0.630994 0)
(5.61374 0.598261 0)
(5.56429 0.564396 0)
(5.52125 0.530136 0)
(5.48391 0.496063 0)
(5.45163 0.462625 0)
(5.4238 0.430157 0)
(5.39986 0.398902 0)
(5.3793 0.369026 0)
(5.36167 0.340633 0)
(5.34654 0.313779 0)
(5.33357 0.288481 0)
(5.32244 0.264728 0)
(5.31285 0.242486 0)
(5.30456 0.221706 0)
(5.29737 0.20233 0)
(5.29109 0.184289 0)
(5.28556 0.167513 0)
(5.28064 0.15193 0)
(5.27622 0.137467 0)
(5.2722 0.124052 0)
(5.26849 0.111617 0)
(5.26502 0.100097 0)
(5.26174 0.0894292 0)
(5.2586 0.0795571 0)
(5.25554 0.0704282 0)
(5.25255 0.0619956 0)
(5.24959 0.0542184 0)
(5.24665 0.047062 0)
(5.24371 0.0404986 0)
(5.24076 0.0345076 0)
(5.23779 0.0290759 0)
(5.23482 0.0241979 0)
(5.23183 0.0198759 0)
(5.22884 0.0161193 0)
(5.22586 0.0129445 0)
(5.22289 0.0103741 0)
(5.21996 0.00843595 0)
(5.21707 0.00716176 0)
(5.21424 0.0065859 0)
(5.21149 0.00674378 0)
(5.20883 0.0076703 0)
(5.20627 0.00939833 0)
(5.20383 0.0119573 0)
(5.20151 0.0153718 0)
(5.19933 0.0196612 0)
(5.19729 0.0248383 0)
(5.1954 0.03091 0)
(5.19366 0.037877 0)
(5.19207 0.045735 0)
(5.19064 0.0544754 0)
(5.18935 0.0640874 0)
(5.18822 0.0745591 0)
(5.18723 0.0858804 0)
(5.18639 0.0980446 0)
(5.18569 0.111051 0)
(5.18514 0.124906 0)
(5.18473 0.139629 0)
(5.18446 0.155248 0)
(5.18435 0.171807 0)
(5.18439 0.189366 0)
(5.1846 0.208 0)
(5.18499 0.227804 0)
(5.18559 0.248889 0)
(5.18641 0.271386 0)
(5.18747 0.295446 0)
(5.18881 0.321236 0)
(5.19046 0.348948 0)
(5.19247 0.378788 0)
(5.19486 0.410985 0)
(5.19769 0.445787 0)
(5.20101 0.483461 0)
(5.20487 0.524298 0)
(5.20933 0.568608 0)
(5.21443 0.616725 0)
(5.22022 0.669012 0)
(5.22677 0.725856 0)
(5.23411 0.78768 0)
(5.24227 0.854943 0)
(5.25127 0.92815 0)
(5.26113 1.00786 0)
(5.27181 1.09469 0)
(5.28328 1.18934 0)
(5.29544 1.29261 0)
(5.30816 1.40542 0)
(5.32124 1.52885 0)
(5.33442 1.66416 0)
(5.34731 1.81289 0)
(5.35943 1.9769 0)
(5.37012 2.15852 0)
(5.37851 2.36066 0)
(5.38345 2.58712 0)
(5.38346 2.84283 0)
(5.37633 3.13449 0)
(5.35971 3.47097 0)
(5.32827 3.86558 0)
(5.28106 4.33454 0)
(5.19512 4.91243 0)
(5.10545 5.62131 0)
(4.82539 6.62148 0)
(4.85935 7.75177 0)
(3.3873 10.3614 0)
(8.72299 0.0620679 0)
(8.65475 0.0706554 0)
(8.53733 0.0481427 0)
(8.3567 0.0137473 0)
(8.11753 -0.00914525 0)
(7.83319 -0.0119277 0)
(7.52235 0.00511596 0)
(7.20889 0.0370736 0)
(6.91737 0.0790565 0)
(6.66636 0.12671 0)
(6.46609 0.177206 0)
(6.31801 0.227546 0)
(6.21831 0.274187 0)
(6.16025 0.314159 0)
(6.13551 0.345727 0)
(6.13553 0.36821 0)
(6.15257 0.381611 0)
(6.18025 0.386363 0)
(6.21372 0.383161 0)
(6.24952 0.372843 0)
(6.28544 0.356284 0)
(6.32022 0.33433 0)
(6.35334 0.307738 0)
(6.38478 0.27715 0)
(6.41486 0.243076 0)
(6.44411 0.205889 0)
(6.47312 0.165828 0)
(6.50254 0.123012 0)
(6.533 0.0774446 0)
(6.56507 0.0290136 0)
(6.59931 -0.0224793 0)
(6.63625 -0.077295 0)
(6.67639 -0.135728 0)
(6.72021 -0.198106 0)
(6.76819 -0.264796 0)
(6.82079 -0.336194 0)
(6.87849 -0.412722 0)
(6.94177 -0.494819 0)
(7.01113 -0.582942 0)
(7.08708 -0.677563 0)
(7.17017 -0.779165 0)
(7.26092 -0.888242 0)
(7.3599 -1.00529 0)
(7.46767 -1.13082 0)
(7.58475 -1.26532 0)
(7.71166 -1.40928 0)
(7.84882 -1.56314 0)
(7.99652 -1.72729 0)
(8.15483 -1.90198 0)
(8.32338 -2.08729 0)
(8.50113 -2.28287 0)
(8.6858 -2.48769 0)
(8.87303 -2.69954 0)
(9.0553 -2.91431 0)
(9.22105 -3.12534 0)
(9.35513 -3.3234 0)
(9.4417 -3.49787 0)
(9.46937 -3.63928 0)
(9.43602 -3.74194 0)
(9.35006 -3.80516 0)
(9.22722 -3.83237 0)
(9.08512 -3.82886 0)
(8.93873 -3.79979 0)
(8.79852 -3.74906 0)
(8.67071 -3.67924 0)
(8.55848 -3.59192 0)
(8.46311 -3.48806 0)
(8.38466 -3.36821 0)
(8.32235 -3.23272 0)
(8.27479 -3.08181 0)
(8.24014 -2.91573 0)
(8.21614 -2.73483 0)
(8.20017 -2.53959 0)
(8.18909 -2.33069 0)
(8.17922 -2.10908 0)
(8.16642 -1.87616 0)
(8.14634 -1.63395 0)
(8.11473 -1.38525 0)
(8.06793 -1.13363 0)
(8.00324 -0.883343 0)
(7.91919 -0.639041 0)
(7.81567 -0.405444 0)
(7.69392 -0.186968 0)
(7.55644 0.0124993 0)
(7.40657 0.189873 0)
(7.24826 0.343264 0)
(7.08547 0.47198 0)
(6.92202 0.576267 0)
(6.76135 0.657205 0)
(6.60633 0.716521 0)
(6.45919 0.756385 0)
(6.32154 0.779217 0)
(6.19438 0.787514 0)
(6.07821 0.783724 0)
(5.97313 0.770151 0)
(5.8789 0.748891 0)
(5.79505 0.721799 0)
(5.72095 0.690483 0)
(5.65586 0.656303 0)
(5.599 0.620385 0)
(5.54958 0.583648 0)
(5.50681 0.546819 0)
(5.46994 0.510468 0)
(5.43827 0.475024 0)
(5.41115 0.440801 0)
(5.38798 0.40802 0)
(5.36823 0.376824 0)
(5.35141 0.347296 0)
(5.33711 0.31947 0)
(5.32495 0.293346 0)
(5.31459 0.268892 0)
(5.30576 0.246061 0)
(5.29819 0.224789 0)
(5.29168 0.205002 0)
(5.28605 0.186623 0)
(5.28112 0.169571 0)
(5.27677 0.153764 0)
(5.27288 0.139121 0)
(5.26935 0.125565 0)
(5.2661 0.113021 0)
(5.26306 0.101418 0)
(5.26017 0.0906906 0)
(5.25739 0.0807773 0)
(5.25467 0.0716222 0)
(5.25198 0.0631756 0)
(5.24929 0.0553937 0)
(5.2466 0.0482394 0)
(5.24388 0.0416827 0)
(5.24113 0.035701 0)
(5.23834 0.0302794 0)
(5.23552 0.0254107 0)
(5.23266 0.0210956 0)
(5.22978 0.0173424 0)
(5.22689 0.0141665 0)
(5.224 0.0115895 0)
(5.22112 0.00963868 0)
(5.21828 0.0083454 0)
(5.21548 0.00774381 0)
(5.21274 0.00786938 0)
(5.21009 0.00875723 0)
(5.20753 0.0104406 0)
(5.20509 0.0129495 0)
(5.20277 0.0163093 0)
(5.20059 0.0205397 0)
(5.19856 0.0256546 0)
(5.19669 0.0316615 0)
(5.19498 0.0385619 0)
(5.19344 0.046352 0)
(5.19208 0.0550239 0)
(5.1909 0.0645671 0)
(5.1899 0.07497 0)
(5.18908 0.0862226 0)
(5.18844 0.0983179 0)
(5.188 0.111255 0)
(5.18774 0.125041 0)
(5.18767 0.139692 0)
(5.18781 0.155237 0)
(5.18815 0.17172 0)
(5.18872 0.189198 0)
(5.18951 0.207746 0)
(5.19056 0.227455 0)
(5.19188 0.248437 0)
(5.19349 0.270821 0)
(5.19543 0.294754 0)
(5.19773 0.320405 0)
(5.20042 0.34796 0)
(5.20356 0.377626 0)
(5.20719 0.409629 0)
(5.21135 0.444216 0)
(5.21611 0.481654 0)
(5.22153 0.522229 0)
(5.22766 0.566254 0)
(5.23457 0.614063 0)
(5.24233 0.666017 0)
(5.25099 0.722507 0)
(5.26061 0.783957 0)
(5.27124 0.850831 0)
(5.28293 0.923639 0)
(5.29571 1.00295 0)
(5.30958 1.08938 0)
(5.32453 1.18366 0)
(5.34052 1.28659 0)
(5.35749 1.39912 0)
(5.37529 1.52234 0)
(5.39377 1.65757 0)
(5.41266 1.80636 0)
(5.43165 1.97063 0)
(5.45028 2.15278 0)
(5.468 2.3558 0)
(5.48407 2.5836 0)
(5.4976 2.84125 0)
(5.50724 3.13566 0)
(5.51206 3.47598 0)
(5.50838 3.87593 0)
(5.50001 4.35233 0)
(5.46593 4.94067 0)
(5.46991 5.66626 0)
(5.31146 6.69043 0)
(5.6902 7.88299 0)
(4.89964 10.4621 0)
(9.56676 0.0636191 0)
(9.54315 0.0599052 0)
(9.50503 0.0447368 0)
(9.44131 0.0353584 0)
(9.34738 0.0429441 0)
(9.22067 0.0694004 0)
(9.05599 0.111127 0)
(8.84732 0.161463 0)
(8.59451 0.211751 0)
(8.3103 0.25531 0)
(8.02026 0.289662 0)
(7.7515 0.316555 0)
(7.52184 0.338853 0)
(7.33748 0.357881 0)
(7.19662 0.373116 0)
(7.09373 0.383392 0)
(7.02197 0.38791 0)
(6.97455 0.386439 0)
(6.94538 0.37912 0)
(6.92944 0.366276 0)
(6.92282 0.348309 0)
(6.92265 0.325654 0)
(6.927 0.29875 0)
(6.93463 0.268005 0)
(6.94488 0.233767 0)
(6.95748 0.196309 0)
(6.97242 0.155812 0)
(6.98988 0.112368 0)
(7.01013 0.065972 0)
(7.03347 0.0165161 0)
(7.06027 -0.0361934 0)
(7.09086 -0.0924136 0)
(7.1256 -0.152435 0)
(7.16485 -0.216583 0)
(7.20899 -0.285224 0)
(7.25841 -0.358758 0)
(7.31353 -0.437611 0)
(7.37475 -0.52223 0)
(7.44254 -0.613078 0)
(7.51735 -0.710635 0)
(7.59968 -0.81539 0)
(7.69002 -0.927842 0)
(7.78887 -1.04849 0)
(7.89672 -1.17783 0)
(8.01402 -1.31635 0)
(8.14116 -1.46449 0)
(8.27839 -1.62265 0)
(8.42575 -1.79111 0)
(8.58287 -1.96998 0)
(8.74873 -2.15903 0)
(8.92118 -2.35741 0)
(9.09611 -2.56328 0)
(9.26656 -2.77313 0)
(9.42178 -2.98126 0)
(9.5476 -3.17955 0)
(9.62883 -3.35846 0)
(9.65402 -3.50906 0)
(9.62006 -3.62551 0)
(9.53395 -3.70636 0)
(9.41014 -3.754 0)
(9.26544 -3.77275 0)
(9.11454 -3.76699 0)
(8.96794 -3.74005 0)
(8.83208 -3.69411 0)
(8.71054 -3.63051 0)
(8.60509 -3.55006 0)
(8.51641 -3.45322 0)
(8.44438 -3.34021 0)
(8.38823 -3.2111 0)
(8.34667 -3.06591 0)
(8.31802 -2.90473 0)
(8.30024 -2.72774 0)
(8.29079 -2.53522 0)
(8.28645 -2.32758 0)
(8.28323 -2.10553 0)
(8.27649 -1.8703 0)
(8.26126 -1.62388 0)
(8.23276 -1.36923 0)
(8.18689 -1.11026 0)
(8.12067 -0.851703 0)
(8.03252 -0.598811 0)
(7.92246 -0.356906 0)
(7.792 -0.130971 0)
(7.64409 0.0746222 0)
(7.48262 0.256467 0)
(7.31212 0.412604 0)
(7.1371 0.542336 0)
(6.96192 0.646039 0)
(6.7904 0.725018 0)
(6.62568 0.781275 0)
(6.47013 0.817264 0)
(6.3254 0.835678 0)
(6.19245 0.839254 0)
(6.07169 0.830642 0)
(5.96309 0.812301 0)
(5.86627 0.786446 0)
(5.78063 0.755016 0)
(5.70539 0.719671 0)
(5.6397 0.6818 0)
(5.58267 0.642542 0)
(5.53341 0.602809 0)
(5.49106 0.56332 0)
(5.45479 0.524622 0)
(5.42385 0.487124 0)
(5.39755 0.451115 0)
(5.37525 0.416789 0)
(5.3564 0.384264 0)
(5.34049 0.3536 0)
(5.32708 0.324809 0)
(5.31578 0.297867 0)
(5.30626 0.272727 0)
(5.29823 0.249321 0)
(5.29143 0.227572 0)
(5.28564 0.207392 0)
(5.28068 0.188692 0)
(5.27638 0.171379 0)
(5.27262 0.155364 0)
(5.26928 0.140558 0)
(5.26626 0.126876 0)
(5.26348 0.114238 0)
(5.26088 0.102567 0)
(5.25839 0.0917938 0)
(5.25597 0.0818523 0)
(5.25358 0.0726836 0)
(5.2512 0.0642348 0)
(5.24879 0.0564595 0)