/*--------------------------------*- C++ -*----------------------------------*\
| =========                 |                                                 |
| \\      /  F ield         | OpenFOAM: The Open Source CFD Toolbox           |
|  \\    /   O peration     | Version:  2.4.0                                 |
|   \\  /    A nd           | Web:      www.OpenFOAM.org                      |
|    \\/     M anipulation  |                                                 |
\*---------------------------------------------------------------------------*/
FoamFile
{
    version     2.0;
    format      ascii;
    class       volVectorField;
    location    "0.085";
    object      U_0;
}
// * * * * * * * * * * * * * * * * * * * * * * * * * * * * * * * * * * * * * //

dimensions      [0 1 -1 0 0 0 0];

internalField   nonuniform List<vector> 
4400
(
(5.40442 0.31679 0)
(3.31557 0.0606676 0)
(2.58204 0.00154372 0)
(2.24037 -0.00253052 0)
(2.07523 -0.000784004 0)
(2.01492 -0.00179736 0)
(1.94902 0.000741942 0)
(1.94849 -0.00215471 0)
(1.9813 0.00305712 0)
(1.53929 -0.0745453 0)
(8.6876 0.857319 0)
(7.53974 0.344642 0)
(6.62395 0.11617 0)
(5.92936 0.053965 0)
(5.49918 0.0282992 0)
(5.31646 0.0111563 0)
(5.12451 0.0140159 0)
(5.09158 -0.0098261 0)
(5.11132 0.0332164 0)
(4.70243 -0.122418 0)
(9.89578 0.937113 0)
(9.98978 0.477582 0)
(9.48168 0.212278 0)
(8.78385 0.12866 0)
(8.22999 0.0773824 0)
(7.97911 0.0369241 0)
(7.69135 0.0372608 0)
(7.65152 -0.011016 0)
(7.55513 0.0391379 0)
(7.39968 -0.119988 0)
(10.1316 0.80694 0)
(11.1155 0.499313 0)
(11.2522 0.263673 0)
(10.8724 0.196231 0)
(10.3881 0.133584 0)
(10.1662 0.0717819 0)
(9.83554 0.0658328 0)
(9.84092 -0.00303346 0)
(9.5899 0.0426406 0)
(9.61623 -0.15435 0)
(10.0644 0.646233 0)
(11.3309 0.439386 0)
(11.9497 0.241803 0)
(12.0258 0.217784 0)
(11.8003 0.169349 0)
(11.7386 0.101769 0)
(11.4706 0.091455 0)
(11.5569 0.0107554 0)
(11.2554 0.0493821 0)
(11.303 -0.203933 0)
(10.0383 0.513506 0)
(11.2619 0.366551 0)
(12.0011 0.179027 0)
(12.338 0.187147 0)
(12.3749 0.1636 0)
(12.5168 0.104227 0)
(12.4591 0.100404 0)
(12.6356 0.0149282 0)
(12.4463 0.0563528 0)
(12.4734 -0.214304 0)
(10.0613 0.391388 0)
(11.1757 0.300008 0)
(11.9406 0.125783 0)
(12.336 0.141938 0)
(12.474 0.133319 0)
(12.621 0.077864 0)
(12.8002 0.0827575 0)
(13.0288 0.00577662 0)
(13.0137 0.0361713 0)
(13.0883 -0.176721 0)
(10.0389 0.270674 0)
(11.0849 0.233033 0)
(11.9324 0.0688633 0)
(12.3295 0.10291 0)
(12.4254 0.106197 0)
(12.5248 0.0537048 0)
(12.8384 0.0446161 0)
(13.0613 -0.010266 0)
(13.1175 0.000214657 0)
(13.2668 -0.177493 0)
(10.0082 0.167076 0)
(11.0987 0.138083 0)
(11.9217 0.0254439 0)
(12.179 0.0667384 0)
(12.3648 0.0883639 0)
(12.6055 0.0118756 0)
(12.8438 0.0125477 0)
(12.9697 -0.0298486 0)
(13.1042 -0.0261716 0)
(13.2766 -0.238899 0)
(10.021 0.0507626 0)
(11.1117 0.0549504 0)
(11.837 -0.00551049 0)
(12.1124 0.0360231 0)
(12.4451 0.0335922 0)
(12.6696 -0.0184605 0)
(12.763 -0.0050103 0)
(12.8944 -0.0481177 0)
(13.1357 -0.0659583 0)
(13.1911 -0.260948 0)
(9.99798 -0.0570776 0)
(11.0932 -0.030639 0)
(11.8781 -0.0352362 0)
(12.1553 -0.018105 0)
(12.4418 -0.00570968 0)
(12.6447 -0.0394314 0)
(12.7376 -0.0239384 0)
(12.9184 -0.0764788 0)
(13.1141 -0.101251 0)
(13.1252 -0.264925 0)
(9.98433 -0.167645 0)
(11.1494 -0.123232 0)
(11.9213 -0.0719808 0)
(12.1277 -0.0469348 0)
(12.4264 -0.0491625 0)
(12.6507 -0.0694661 0)
(12.7645 -0.0451117 0)
(12.9412 -0.0981793 0)
(13.1201 -0.126104 0)
(13.1268 -0.269733 0)
(10.0181 -0.281494 0)
(11.1676 -0.211196 0)
(11.9145 -0.0972123 0)
(12.1491 -0.0896092 0)
(12.4978 -0.0954561 0)
(12.6408 -0.0923596 0)
(12.8162 -0.0693814 0)
(12.9671 -0.121398 0)
(13.1357 -0.150125 0)
(13.1202 -0.28251 0)
(10.0405 -0.399486 0)
(11.1563 -0.285362 0)
(11.9762 -0.139721 0)
(12.214 -0.133277 0)
(12.5672 -0.133466 0)
(12.6025 -0.117302 0)
(12.8624 -0.0963435 0)
(12.8687 -0.136787 0)
(13.0177 -0.165848 0)
(12.8462 -0.286714 0)
(10.0248 -0.518361 0)
(11.2227 -0.354958 0)
(12.0527 -0.192054 0)
(12.2488 -0.180876 0)
(12.4991 -0.168044 0)
(12.3963 -0.135541 0)
(12.5721 -0.111799 0)
(12.3652 -0.137661 0)
(12.4144 -0.162667 0)
(12.0403 -0.275684 0)
(10.0485 -0.647899 0)
(11.3189 -0.433419 0)
(11.9899 -0.250267 0)
(11.9569 -0.214664 0)
(11.9045 -0.17374 0)
(11.5906 -0.127254 0)
(11.5795 -0.101542 0)
(11.2226 -0.113297 0)
(11.1744 -0.143933 0)
(10.6768 -0.218687 0)
(10.1207 -0.80774 0)
(11.1144 -0.496471 0)
(11.2755 -0.268545 0)
(10.8205 -0.195556 0)
(10.4645 -0.136277 0)
(10.027 -0.0920993 0)
(9.90692 -0.0716058 0)
(9.51446 -0.0799553 0)
(9.42078 -0.111785 0)
(8.86195 -0.144468 0)
(9.89003 -0.93752 0)
(9.9914 -0.476331 0)
(9.49372 -0.214743 0)
(8.74749 -0.129227 0)
(8.27816 -0.0784165 0)
(7.8639 -0.0512678 0)
(7.71986 -0.0397671 0)
(7.37539 -0.0483672 0)
(7.2656 -0.0713608 0)
(6.69821 -0.0852841 0)
(8.6847 -0.857441 0)
(7.54095 -0.344237 0)
(6.62948 -0.116999 0)
(5.9066 -0.0549642 0)
(5.5226 -0.0281213 0)
(5.23389 -0.0189877 0)
(5.12067 -0.0151081 0)
(4.87799 -0.0218122 0)
(4.76581 -0.0335658 0)
(4.29592 -0.0401479 0)
(5.40387 -0.316831 0)
(3.31553 -0.0606785 0)
(2.58372 -0.00154534 0)
(2.23056 0.00206766 0)
(2.08026 0.00146926 0)
(1.977 -0.000140504 0)
(1.93057 5.06878e-05 0)
(1.83362 -0.00199048 0)
(1.75749 -0.00360597 0)
(1.52938 0.00475533 0)
(2.89908 -0.169425 0)
(3.92981 -0.47511 0)
(4.05794 -0.786197 0)
(4.61984 -0.917403 0)
(3.54661 -0.755524 0)
(3.87885 -0.770104 0)
(2.83635 0.165392 0)
(3.38646 0.214684 0)
(4.55979 0.405669 0)
(5.84178 1.39088 0)
(7.53428 1.64991 0)
(8.58563 1.58609 0)
(9.14581 1.28981 0)
(9.72552 0.865424 0)
(10.4346 0.0893074 0)
(10.7519 -0.833257 0)
(10.9863 -1.97267 0)
(10.9189 -3.05697 0)
(11.1707 -3.8072 0)
(12.4512 -5.05652 0)
(13.2362 -5.84475 0)
(12.6099 -5.38208 0)
(12.6534 -4.74796 0)
(12.4512 -3.9358 0)
(12.3643 -2.54026 0)
(12.2116 -1.02373 0)
(11.8929 0.479677 0)
(12.4336 1.94895 0)
(12.9096 2.5996 0)
(12.8987 2.88258 0)
(12.854 3.15788 0)
(12.9417 2.32688 0)
(12.6543 1.23807 0)
(12.437 0.297634 0)
(12.3803 -1.2236 0)
(11.5866 -2.32589 0)
(11.1093 -3.30081 0)
(9.97494 -3.93958 0)
(8.9511 -3.62731 0)
(8.26253 -2.665 0)
(7.29445 -2.52095 0)
(7.45788 -2.755 0)
(5.96053 -1.93712 0)
(5.83226 -0.991873 0)
(5.46216 -2.22283 0)
(6.21234 -4.36644 0)
(5.19812 -6.67261 0)
(6.86397 -6.59901 0)
(6.7176 -6.10514 0)
(6.70319 -4.66618 0)
(6.90726 -4.02952 0)
(7.48381 -2.30317 0)
(8.27082 -0.850204 0)
(8.72277 1.77058 0)
(8.86316 3.79076 0)
(8.4273 5.0589 0)
(9.34787 6.36338 0)
(9.51188 8.32014 0)
(10.1334 8.94182 0)
(8.59455 8.58555 0)
(8.91807 6.29914 0)
(6.36598 5.3287 0)
(7.67517 3.13184 0)
(5.39052 3.73918 0)
(7.41777 1.7802 0)
(5.57592 2.61875 0)
(7.44382 0.401097 0)
(5.80965 1.31585 0)
(7.18772 -1.31997 0)
(5.49783 -0.541766 0)
(6.71662 -3.29121 0)
(5.20518 -2.23243 0)
(6.28 -4.28985 0)
(5.37521 -2.28685 0)
(6.14747 -3.49682 0)
(5.53149 -1.53051 0)
(6.05307 -2.20896 0)
(5.62545 -0.52804 0)
(5.97532 -1.26383 0)
(5.81548 0.0143049 0)
(6.08957 -0.557111 0)
(5.87253 0.450234 0)
(6.08623 -0.116952 0)
(5.99741 0.618857 0)
(6.15777 0.195557 0)
(5.96676 0.845155 0)
(5.99263 0.514868 0)
(5.92573 0.98863 0)
(6.04386 0.734104 0)
(6.06028 1.25292 0)
(6.05816 1.13363 0)
(6.08249 1.61856 0)
(6.1619 1.486 0)
(6.19248 2.05955 0)
(5.89991 2.01898 0)
(5.99027 2.96084 0)
(6.34286 2.72306 0)
(6.38019 4.43859 0)
(7.13968 4.92298 0)
(4.2579 8.77983 0)
(5.29171 -0.317576 0)
(6.06393 -0.625197 0)
(6.0801 -0.805962 0)
(6.49004 -0.881209 0)
(5.648 -0.645485 0)
(6.12548 -0.612879 0)
(5.07066 0.163489 0)
(5.52736 0.234318 0)
(5.92819 0.06896 0)
(6.04817 0.771779 0)
(7.22534 1.16043 0)
(8.51158 1.13729 0)
(9.2718 0.961935 0)
(9.98304 0.611143 0)
(10.711 -0.134605 0)
(10.9601 -0.963057 0)
(11.3926 -2.04909 0)
(11.8629 -3.32187 0)
(12.3513 -4.1221 0)
(13.444 -5.26389 0)
(13.7702 -5.87524 0)
(13.0324 -5.20715 0)
(13.0294 -4.65107 0)
(13.0522 -3.9011 0)
(12.8791 -2.45539 0)
(12.8711 -0.980461 0)
(12.4215 0.399485 0)
(12.6265 1.85914 0)
(13.1553 2.54113 0)
(13.2666 2.87654 0)
(13.1692 3.1809 0)
(13.2844 2.35628 0)
(12.9375 1.38994 0)
(12.6476 0.447548 0)
(12.5903 -1.08983 0)
(11.7911 -2.1071 0)
(11.2431 -2.95453 0)
(10.031 -3.49178 0)
(9.15441 -3.23856 0)
(8.23432 -2.34753 0)
(7.7532 -2.29051 0)
(7.52166 -2.52404 0)
(6.20732 -1.55194 0)
(5.65682 -0.834411 0)
(5.35501 -2.28221 0)
(5.54983 -4.35457 0)
(4.33709 -6.72455 0)
(6.15652 -6.83355 0)
(6.01968 -6.16558 0)
(6.2597 -4.57996 0)
(6.09679 -4.34655 0)
(6.68538 -2.52453 0)
(7.3955 -1.05618 0)
(7.84981 1.66934 0)
(8.13179 3.73479 0)
(7.65718 5.07824 0)
(8.7583 6.18643 0)
(8.89129 8.19706 0)
(9.98119 8.92541 0)
(8.40943 8.87899 0)
(9.13017 6.63611 0)
(6.65468 5.77855 0)
(7.96539 3.25235 0)
(5.81006 3.86707 0)
(7.66116 1.62539 0)
(5.99541 2.64102 0)
(7.75445 0.333259 0)
(6.34104 1.41693 0)
(7.66318 -1.32047 0)
(5.82767 -0.472816 0)
(7.06451 -3.33314 0)
(5.62672 -2.11775 0)
(6.6564 -4.38789 0)
(5.62687 -2.15191 0)
(6.40503 -3.63999 0)
(5.65914 -1.335 0)
(6.26737 -2.41383 0)
(5.69407 -0.337338 0)
(6.12825 -1.54477 0)
(5.88695 0.226065 0)
(6.17456 -0.775084 0)
(5.91416 0.681707 0)
(6.11733 -0.392273 0)
(6.12623 0.835536 0)
(6.20517 0.00608568 0)
(6.12504 1.09821 0)
(6.07262 0.256743 0)
(6.1805 1.2072 0)
(6.08659 0.580176 0)
(6.05288 1.43498 0)
(6.03906 0.908125 0)
(6.092 1.78229 0)
(6.29685 1.27921 0)
(6.27087 2.31644 0)
(6.51782 1.90487 0)
(6.05921 3.46437 0)
(6.23147 2.68095 0)
(5.12846 4.84801 0)
(8.5371 4.31393 0)
(6.60385 9.21617 0)
(7.71088 -0.433633 0)
(8.17128 -0.82315 0)
(8.01602 -0.903781 0)
(8.49811 -0.779166 0)
(7.79052 -0.526496 0)
(7.99024 -0.515489 0)
(7.23532 0.0603688 0)
(7.49519 0.238419 0)
(8.10508 0.156167 0)
(7.34232 0.554847 0)
(7.72817 0.711029 0)
(8.69218 0.674792 0)
(9.30531 0.563429 0)
(10.1031 0.269608 0)
(10.8975 -0.416172 0)
(11.2346 -1.15523 0)
(12.0274 -2.21315 0)
(13.001 -3.73561 0)
(13.4481 -4.54366 0)
(14.0565 -5.33921 0)
(14.0385 -5.81573 0)
(13.3115 -5.04733 0)
(13.4391 -4.62104 0)
(13.6178 -3.94598 0)
(13.2797 -2.36622 0)
(13.3072 -0.939337 0)
(13.037 0.414742 0)
(12.9092 1.81227 0)
(13.2317 2.46518 0)
(13.3342 2.91766 0)
(13.19 3.23276 0)
(13.4009 2.34422 0)
(13.0516 1.51045 0)
(12.8235 0.604389 0)
(12.6889 -0.885374 0)
(11.8697 -1.83177 0)
(11.1862 -2.58137 0)
(10.0098 -3.10507 0)
(9.2968 -2.89509 0)
(8.32086 -2.05156 0)
(7.98357 -2.09438 0)
(7.56016 -2.2353 0)
(6.38625 -1.11897 0)
(5.75953 -0.517842 0)
(5.12481 -2.13702 0)
(4.94303 -4.17077 0)
(3.356 -6.72555 0)
(5.12355 -7.17796 0)
(4.93572 -6.24694 0)
(5.64998 -4.47388 0)
(5.15436 -4.5371 0)
(5.64688 -2.63128 0)
(6.42071 -1.24004 0)
(6.73533 1.63405 0)
(7.22359 3.53639 0)
(6.91544 4.94961 0)
(8.13063 5.93763 0)
(8.1485 8.02529 0)
(9.56198 8.81322 0)
(8.15122 9.09439 0)
(9.17402 6.86928 0)
(6.79472 6.05036 0)
(8.14086 3.32487 0)
(6.13738 3.92543 0)
(7.92643 1.61772 0)
(6.26655 2.64795 0)
(8.04515 0.251816 0)
(6.71483 1.40046 0)
(8.08455 -1.17152 0)
(6.49687 -0.313337 0)
(7.62062 -3.17207 0)
(6.22979 -2.02324 0)
(7.11803 -4.3641 0)
(5.96414 -2.04975 0)
(6.72473 -3.68387 0)
(5.71727 -1.23865 0)
(6.54118 -2.50657 0)
(5.65329 -0.148081 0)
(6.31351 -1.73864 0)
(5.75659 0.326017 0)
(6.51756 -1.013 0)
(5.8453 0.825896 0)
(6.66914 -0.65043 0)
(6.14731 0.966945 0)
(6.91678 -0.232766 0)
(6.2398 1.28152 0)
(7.0187 0.100615 0)
(6.37561 1.38411 0)
(7.00676 0.403052 0)
(6.35846 1.66511 0)
(6.70365 0.776874 0)
(6.09467 1.96748 0)
(6.43574 0.931726 0)
(6.21126 2.3724 0)
(6.98629 1.36585 0)
(6.54639 3.38396 0)
(8.75259 2.41425 0)
(5.86921 5.05845 0)
(9.45877 3.61573 0)
(7.3525 9.37586 0)
(9.9015 -0.420174 0)
(10.2067 -0.82279 0)
(9.88724 -0.914159 0)
(10.1789 -0.724623 0)
(9.70375 -0.432874 0)
(9.68084 -0.367877 0)
(9.32919 0.0313897 0)
(9.22952 0.195114 0)
(9.82392 0.162991 0)
(9.37125 0.529803 0)
(9.38529 0.63537 0)
(9.83019 0.536003 0)
(10.1794 0.311213 0)
(10.8022 -0.0266357 0)
(11.6421 -0.660509 0)
(12.1342 -1.42498 0)
(13.106 -2.5073 0)
(14.1805 -4.04546 0)
(14.2986 -4.77202 0)
(14.2673 -5.21579 0)
(14.078 -5.64006 0)
(13.528 -5.0318 0)
(13.7983 -4.6902 0)
(13.9384 -4.01886 0)
(13.5853 -2.36152 0)
(13.6003 -0.968187 0)
(13.4509 0.457188 0)
(13.1165 1.91371 0)
(13.2456 2.47573 0)
(13.2239 2.90118 0)
(13.1535 3.20265 0)
(13.3701 2.33467 0)
(12.9115 1.63171 0)
(12.7205 0.714684 0)
(12.5736 -0.701584 0)
(11.6881 -1.5579 0)
(10.9429 -2.26071 0)
(9.96638 -2.73156 0)
(9.37212 -2.53823 0)
(8.44352 -1.7412 0)
(8.13326 -1.91734 0)
(7.56918 -1.96301 0)
(6.3464 -0.732161 0)
(5.70451 -0.266467 0)
(4.90699 -1.88788 0)
(4.14849 -3.87947 0)
(2.47796 -6.55883 0)
(3.55812 -7.50606 0)
(3.59205 -6.4111 0)
(4.80103 -4.46107 0)
(4.17416 -4.66478 0)
(4.64071 -2.69563 0)
(5.24225 -1.49523 0)
(5.60379 1.61831 0)
(6.26873 3.36922 0)
(6.03639 4.85069 0)
(7.44175 5.66611 0)
(7.50254 7.73437 0)
(9.18739 8.60976 0)
(7.84474 9.21405 0)
(9.10576 6.9753 0)
(6.8749 6.34775 0)
(8.30023 3.42632 0)
(6.42145 4.06438 0)
(8.15919 1.57782 0)
(6.71287 2.64667 0)
(8.21737 0.130818 0)
(7.19494 1.45502 0)
(8.27739 -1.15571 0)
(6.96264 -0.224598 0)
(7.81143 -3.17876 0)
(6.66118 -1.91588 0)
(7.32706 -4.39328 0)
(6.23989 -1.87979 0)
(6.94635 -3.67966 0)
(5.80818 -1.0267 0)
(6.616 -2.65362 0)
(5.64177 0.0865652 0)
(6.36645 -1.94103 0)
(5.55594 0.566153 0)
(6.50859 -1.24019 0)
(5.57557 1.08532 0)
(6.59223 -1.03306 0)
(5.86982 1.18484 0)
(7.08667 -0.574628 0)
(6.0935 1.51625 0)
(7.365 -0.357427 0)
(6.57587 1.63429 0)
(7.7738 0.0783248 0)
(6.84021 1.98046 0)
(7.7397 0.519578 0)
(6.85051 2.41733 0)
(7.3548 0.873102 0)
(6.14638 2.86362 0)
(7.0931 1.25033 0)
(5.04902 3.60954 0)
(8.85161 1.73636 0)
(5.90991 5.16532 0)
(11.2136 2.33169 0)
(9.06882 8.56773 0)
(11.5537 -0.432096 0)
(11.7998 -0.787946 0)
(11.4759 -0.87248 0)
(11.5728 -0.650645 0)
(11.2746 -0.329324 0)
(11.0261 -0.268751 0)
(10.9108 -0.0473109 0)
(10.7569 0.170764 0)
(11.121 0.175668 0)
(11.1156 0.463314 0)
(11.1232 0.610512 0)
(11.4077 0.508653 0)
(11.6948 0.188011 0)
(12.09 -0.242843 0)
(12.8438 -0.906942 0)
(13.3841 -1.71756 0)
(14.2591 -2.79915 0)
(14.8956 -4.25101 0)
(14.5186 -4.83357 0)
(14.0973 -5.07404 0)
(13.9979 -5.54395 0)
(13.75 -5.12451 0)
(13.9273 -4.78057 0)
(13.9211 -4.03844 0)
(13.4757 -2.31157 0)
(13.5084 -0.99672 0)
(13.5878 0.453555 0)
(13.4009 2.00625 0)
(13.4167 2.52813 0)
(13.1333 2.96605 0)
(12.9166 3.17646 0)
(13.0224 2.31149 0)
(12.56 1.73096 0)
(12.4105 0.807057 0)
(12.1854 -0.490152 0)
(11.4058 -1.24185 0)
(10.7344 -1.89637 0)
(9.91853 -2.40498 0)
(9.29189 -2.27825 0)
(8.49512 -1.56123 0)
(8.30498 -1.69365 0)
(7.71687 -1.57601 0)
(6.3874 -0.256205 0)
(5.67583 0.070875 0)
(4.64428 -1.49141 0)
(3.36514 -3.39823 0)
(1.75229 -6.29544 0)
(2.09275 -7.73663 0)
(2.35186 -6.56827 0)
(4.04519 -4.6573 0)
(3.23679 -4.74742 0)
(3.77585 -2.70033 0)
(3.91895 -1.79415 0)
(4.34033 1.50731 0)
(5.31228 2.98795 0)
(5.17681 4.72516 0)
(6.72949 5.31399 0)
(6.70609 7.49146 0)
(8.60179 8.40249 0)
(7.44931 9.25456 0)
(8.95454 7.05203 0)
(7.04151 6.63661 0)
(8.38928 3.46421 0)
(6.70876 4.07684 0)
(8.2425 1.49377 0)
(7.11207 2.60493 0)
(8.44378 0.0520583 0)
(7.56668 1.42233 0)
(8.59895 -1.10275 0)
(7.34713 -0.1621 0)
(8.15634 -3.10526 0)
(7.11523 -1.82378 0)
(7.71061 -4.31632 0)
(6.56363 -1.79376 0)
(7.17055 -3.62792 0)
(6.01306 -0.87842 0)
(6.67452 -2.7005 0)
(5.72997 0.246565 0)
(6.43549 -2.07094 0)
(5.52251 0.65816 0)
(6.59978 -1.45766 0)
(5.56687 1.26707 0)
(6.69992 -1.29547 0)
(5.62011 1.32452 0)
(7.27184 -0.912844 0)
(5.86308 1.74818 0)
(7.82415 -0.81269 0)
(6.1304 1.76942 0)
(8.97156 -0.475047 0)
(6.73336 2.18126 0)
(10.0813 -0.00723946 0)
(7.09549 2.4724 0)
(11.447 0.54459 0)
(7.21411 3.02112 0)
(11.8232 1.38117 0)
(5.88605 3.90742 0)
(10.8432 1.57711 0)
(5.55233 5.67933 0)
(9.28534 1.37866 0)
(9.17269 8.00369 0)
(12.7095 -0.468006 0)
(12.7895 -0.803965 0)
(12.4776 -0.84887 0)
(12.4835 -0.597794 0)
(12.286 -0.251043 0)
(12.0696 -0.135558 0)
(12.0667 -0.0670096 0)
(11.8762 0.131736 0)
(12.0616 0.145045 0)
(12.3087 0.339688 0)
(12.3917 0.550768 0)
(12.7284 0.461371 0)
(13.0444 0.0708316 0)
(13.366 -0.375396 0)
(13.9565 -1.07263 0)
(14.3623 -2.01806 0)
(14.9025 -3.05654 0)
(14.9859 -4.22345 0)
(14.3199 -4.72666 0)
(13.9201 -4.90064 0)
(13.9474 -5.44667 0)
(13.8766 -5.2198 0)
(13.7615 -4.75131 0)
(13.4333 -3.90155 0)
(13.0441 -2.24258 0)
(13.0571 -1.04862 0)
(13.2582 0.389105 0)
(13.3341 2.03933 0)
(13.3742 2.65608 0)
(12.9367 3.11092 0)
(12.6648 3.19901 0)
(12.6183 2.3695 0)
(12.0602 1.82689 0)
(12.0154 0.896568 0)
(11.7392 -0.266815 0)
(10.9872 -0.966896 0)
(10.4332 -1.65549 0)
(9.86293 -2.13439 0)
(9.29358 -1.96106 0)
(8.59033 -1.28277 0)
(8.34304 -1.51612 0)
(7.6862 -1.25961 0)
(6.33861 0.178244 0)
(5.63056 0.448071 0)
(4.38309 -0.993053 0)
(2.64162 -2.82464 0)
(1.51838 -6.07415 0)
(1.19886 -7.81843 0)
(1.66174 -6.83536 0)
(3.57271 -4.88297 0)
(2.59026 -4.65665 0)
(2.73081 -2.63735 0)
(2.74477 -2.02054 0)
(3.09301 1.6441 0)
(4.12457 2.51188 0)
(4.23002 4.59364 0)
(6.0443 4.95451 0)
(5.99301 7.26479 0)
(8.04436 7.98913 0)
(7.05785 9.16098 0)
(8.67191 6.96218 0)
(7.09552 6.75554 0)
(8.354 3.44954 0)
(6.9745 4.15039 0)
(8.24843 1.40738 0)
(7.39592 2.54675 0)
(8.61493 -0.0589964 0)
(7.8336 1.43838 0)
(8.76992 -1.04539 0)
(7.82644 -0.0830839 0)
(8.5559 -3.0778 0)
(7.57628 -1.72811 0)
(8.02669 -4.22879 0)
(6.83476 -1.59362 0)
(7.29707 -3.59671 0)
(6.1458 -0.6483 0)
(6.73304 -2.75447 0)
(5.74091 0.498991 0)
(6.37068 -2.14547 0)
(5.3613 0.886049 0)
(6.38084 -1.65425 0)
(5.34561 1.51362 0)
(6.4479 -1.49866 0)
(5.22048 1.55213 0)
(6.91023 -1.20481 0)
(5.39218 2.02275 0)
(7.33709 -1.03833 0)
(5.10296 2.07595 0)
(8.35629 -0.900319 0)
(5.44233 2.49482 0)
(9.73656 -0.448853 0)
(5.54711 2.73357 0)
(11.5806 -0.184179 0)
(6.58425 3.18 0)
(13.4215 0.587482 0)
(7.71471 4.16893 0)
(13.6446 0.876306 0)
(8.66477 5.78484 0)
(11.2445 1.55096 0)
(9.10859 7.04271 0)
(13.326 -0.487429 0)
(13.2063 -0.790709 0)
(12.8925 -0.779461 0)
(12.8799 -0.532755 0)
(12.6147 -0.232554 0)
(12.5024 -0.113245 0)
(12.6874 -0.0950746 0)
(12.5683 0.111918 0)
(12.6786 0.133807 0)
(12.9256 0.203081 0)
(13.0871 0.416185 0)
(13.4737 0.360026 0)
(13.8236 -0.0210744 0)
(14.1031 -0.517425 0)
(14.5469 -1.21517 0)
(14.7908 -2.18694 0)
(14.916 -3.13666 0)
(14.6302 -4.01881 0)
(13.9869 -4.57573 0)
(13.8266 -4.912 0)
(13.8318 -5.41271 0)
(13.5602 -5.21087 0)
(13.1296 -4.61261 0)
(12.5631 -3.69422 0)
(12.2405 -2.1707 0)
(12.2945 -1.08882 0)
(12.5098 0.338156 0)
(12.7436 2.01662 0)
(13.0053 2.72059 0)
(12.6743 3.23029 0)
(12.3914 3.27202 0)
(12.2041 2.49013 0)
(11.6549 1.92244 0)
(11.6499 0.969869 0)
(11.3162 -0.0304876 0)
(10.6788 -0.730239 0)
(10.1965 -1.45579 0)
(9.69646 -1.91208 0)
(9.05604 -1.74101 0)
(8.54059 -1.1592 0)
(8.38604 -1.30522 0)
(7.69918 -0.838611 0)
(6.29663 0.691814 0)
(5.46026 0.845303 0)
(4.11579 -0.368176 0)
(2.22915 -2.33601 0)
(1.74989 -5.84572 0)
(0.968028 -7.8266 0)
(1.27475 -7.24516 0)
(3.51943 -5.19127 0)
(1.89842 -4.37866 0)
(1.9465 -2.54723 0)
(1.58002 -2.26162 0)
(2.10096 1.49911 0)
(3.1564 1.97548 0)
(3.54011 4.43319 0)
(5.32075 4.32797 0)
(5.18987 6.98027 0)
(7.37703 7.60723 0)
(6.61286 9.08226 0)
(8.28496 6.83065 0)
(7.12718 6.85696 0)
(8.26093 3.48178 0)
(7.19117 4.17147 0)
(8.26341 1.35918 0)
(7.67946 2.4184 0)
(8.69054 -0.130954 0)
(8.07835 1.37937 0)
(8.80036 -1.03379 0)
(8.19249 -0.092081 0)
(8.78972 -2.9386 0)
(8.09345 -1.63166 0)
(8.30261 -4.07302 0)
(7.21152 -1.43655 0)
(7.45162 -3.44118 0)
(6.39233 -0.474076 0)
(6.71637 -2.79739 0)
(5.88821 0.608677 0)
(6.47086 -2.22925 0)
(5.52658 0.990074 0)
(6.33172 -1.81517 0)
(5.46446 1.61897 0)
(6.37247 -1.65876 0)
(5.29328 1.61394 0)
(6.51731 -1.43779 0)
(5.44133 2.10312 0)
(6.72503 -1.2099 0)
(5.16195 2.07616 0)
(7.00672 -1.20537 0)
(5.45019 2.53493 0)
(7.41812 -0.742769 0)
(5.07013 2.96898 0)
(7.74803 -0.800149 0)
(5.75694 3.61169 0)
(9.23565 -0.15472 0)
(7.18529 4.7084 0)
(11.1334 0.265417 0)
(9.06598 5.92697 0)
(12.8653 2.07022 0)
(10.0774 6.28218 0)
(13.4415 -0.451762 0)
(13.1951 -0.68907 0)
(12.8766 -0.67931 0)
(12.8792 -0.429026 0)
(12.6241 -0.185841 0)
(12.6304 -0.131557 0)
(12.826 -0.148306 0)
(12.7281 0.0407281 0)
(12.8321 0.0920819 0)
(13.1206 0.137384 0)
(13.3591 0.277831 0)
(13.6567 0.202327 0)
(13.9068 -0.126315 0)
(14.1871 -0.59626 0)
(14.5495 -1.34359 0)
(14.6412 -2.33407 0)
(14.4969 -3.09264 0)
(14.1361 -3.81574 0)
(13.8205 -4.51473 0)
(13.7184 -4.92453 0)
(13.4351 -5.23724 0)
(12.8265 -4.98547 0)
(12.0577 -4.30816 0)
(11.3867 -3.4289 0)
(11.1617 -2.1396 0)
(11.1598 -1.11981 0)
(11.2869 0.270104 0)
(11.6556 1.86572 0)
(12.2617 2.67918 0)
(12.0977 3.3499 0)
(11.9766 3.3822 0)
(11.7953 2.65278 0)
(11.2869 2.04748 0)
(11.2429 1.069 0)
(10.8616 0.182371 0)
(10.3657 -0.514345 0)
(10.0317 -1.24583 0)
(9.55472 -1.65324 0)
(8.89031 -1.4751 0)
(8.42509 -0.991264 0)
(8.31945 -1.1014 0)
(7.54826 -0.455795 0)
(6.21778 1.17449 0)
(5.38026 1.28462 0)
(3.8156 0.253354 0)
(2.38351 -1.98262 0)
(2.07787 -5.58339 0)
(1.15209 -7.66655 0)
(0.636253 -7.74025 0)
(2.99379 -5.39952 0)
(1.02966 -4.0489 0)
(1.30299 -2.44601 0)
(0.951539 -2.24663 0)
(1.09344 1.45224 0)
(2.1808 1.18167 0)
(2.86965 4.26481 0)
(4.50028 3.81405 0)
(4.43731 6.89878 0)
(6.65335 7.08886 0)
(6.07055 8.88845 0)
(7.85841 6.56503 0)
(7.12425 6.93171 0)
(8.15262 3.4342 0)
(7.3591 4.16105 0)
(8.2624 1.28316 0)
(7.9206 2.30973 0)
(8.74541 -0.195167 0)
(8.31808 1.38804 0)
(8.9256 -1.0029 0)
(8.5279 -0.140013 0)
(8.93324 -2.97246 0)
(8.36596 -1.554 0)
(8.47176 -3.87816 0)
(7.43841 -1.227 0)
(7.49979 -3.32694 0)
(6.51795 -0.206988 0)
(6.72342 -2.73611 0)
(5.84239 0.852544 0)
(6.34971 -2.27818 0)
(5.45115 1.2041 0)
(6.19111 -2.02615 0)
(5.37214 1.8136 0)
(6.31936 -1.84473 0)
(5.21184 1.82705 0)
(6.41138 -1.79119 0)
(5.31776 2.29009 0)
(6.75804 -1.46176 0)
(5.23312 2.2772 0)
(6.89008 -1.66508 0)
(5.47281 2.65209 0)
(7.37125 -1.05584 0)
(5.66914 3.1431 0)
(7.17635 -1.3546 0)
(6.20947 3.62486 0)
(7.70552 -0.951894 0)
(7.0775 4.90506 0)
(8.92286 -0.389657 0)
(8.17776 5.65302 0)
(11.6174 1.78398 0)
(10.7984 5.7241 0)
(13.2833 -0.413519 0)
(13.1081 -0.557843 0)
(12.8205 -0.512291 0)
(12.8008 -0.322246 0)
(12.7601 -0.203789 0)
(12.8424 -0.174 0)
(12.89 -0.149309 0)
(12.7245 0.00275251 0)
(12.8186 0.0324946 0)
(13.1297 -0.00205013 0)
(13.216 0.126478 0)
(13.3406 0.131035 0)
(13.6488 -0.196404 0)
(14.0367 -0.749548 0)
(14.2905 -1.45999 0)
(14.308 -2.30979 0)
(14.1162 -2.97279 0)
(13.8904 -3.65045 0)
(13.7105 -4.43588 0)
(13.399 -4.84458 0)
(12.5667 -4.931 0)
(11.5751 -4.59355 0)
(10.6778 -3.94442 0)
(10.0291 -3.1514 0)
(9.86125 -2.05223 0)
(9.75726 -1.05954 0)
(9.77721 0.242234 0)
(10.3331 1.62559 0)
(11.1297 2.54274 0)
(11.2065 3.37711 0)
(11.3693 3.39857 0)
(11.1987 2.78464 0)
(10.8462 2.16107 0)
(10.8235 1.19032 0)
(10.3793 0.36573 0)
(9.9657 -0.386822 0)
(9.66851 -1.08557 0)
(9.17386 -1.42106 0)
(8.58904 -1.25808 0)
(8.2659 -0.89147 0)
(8.19908 -0.89522 0)
(7.39182 -0.0356825 0)
(6.01717 1.64348 0)
(5.34765 1.72559 0)
(3.62964 0.809225 0)
(2.83012 -1.71664 0)
(2.42557 -5.16515 0)
(1.22451 -7.38754 0)
(-0.343868 -8.06089 0)
(1.63363 -5.59214 0)
(-0.0161665 -3.71001 0)
(0.935142 -2.59805 0)
(0.240862 -2.33082 0)
(0.50674 1.35612 0)
(1.57102 0.612772 0)
(2.23356 4.16627 0)
(3.60812 3.03974 0)
(3.72218 6.78488 0)
(5.84196 6.45675 0)
(5.54935 8.66722 0)
(7.2958 6.25967 0)
(7.01566 6.84143 0)
(7.97111 3.35237 0)
(7.488 4.09915 0)
(8.23224 1.2236 0)
(8.12889 2.14499 0)
(8.7642 -0.25024 0)
(8.50654 1.28008 0)
(9.04067 -0.997339 0)
(8.95862 -0.227962 0)
(9.26665 -2.85006 0)
(8.79744 -1.52356 0)
(8.63826 -3.63887 0)
(7.74672 -1.01084 0)
(7.52173 -3.10099 0)
(6.70745 -0.0559107 0)
(6.74666 -2.67049 0)
(6.02347 0.941573 0)
(6.37367 -2.30537 0)
(5.62303 1.32733 0)
(6.08562 -2.09416 0)
(5.43956 1.90831 0)
(6.1238 -1.97935 0)
(5.31309 1.94896 0)
(6.08601 -1.95696 0)
(5.34907 2.41577 0)
(6.32447 -1.70305 0)
(5.35458 2.45813 0)
(6.30728 -1.92171 0)
(5.4821 2.87306 0)
(6.74613 -1.43449 0)
(5.79028 3.4111 0)
(6.74238 -1.7496 0)
(6.22926 3.80375 0)
(7.39423 -1.22176 0)
(7.1317 4.78389 0)
(8.09687 -0.43307 0)
(7.90439 5.22623 0)
(9.38734 1.24785 0)
(10.572 5.06988 0)
(13.109 -0.345254 0)
(13.0029 -0.434585 0)
(12.8666 -0.366065 0)
(13.0214 -0.283499 0)
(13.0068 -0.283688 0)
(12.8502 -0.177078 0)
(12.8656 -0.1074 0)
(12.8064 -0.0542037 0)
(12.9072 -0.0381786 0)
(12.9356 0.014465 0)
(12.8792 0.110785 0)
(13.1494 0.041437 0)
(13.6205 -0.330239 0)
(13.8942 -0.871788 0)
(14.0245 -1.48636 0)
(14.0673 -2.2031 0)
(13.8291 -2.84968 0)
(13.651 -3.57837 0)
(13.3898 -4.29649 0)
(12.5494 -4.50419 0)
(11.2169 -4.40946 0)
(9.98193 -4.10079 0)
(9.14479 -3.57781 0)
(8.63095 -2.9001 0)
(8.40216 -1.94801 0)
(8.2226 -1.00769 0)
(8.33053 0.126492 0)
(8.97311 1.32077 0)
(9.75218 2.34768 0)
(10.0744 3.23008 0)
(10.4472 3.31162 0)
(10.3689 2.86538 0)
(10.2817 2.2144 0)
(10.2069 1.30934 0)
(9.77149 0.554071 0)
(9.42326 -0.252987 0)
(9.03875 -0.924192 0)
(8.62453 -1.20245 0)
(8.20125 -1.08454 0)
(8.04175 -0.805547 0)
(7.96002 -0.685428 0)
(7.16363 0.392606 0)
(5.79775 2.0523 0)
(5.24476 2.1199 0)
(3.59214 1.25989 0)
(3.37942 -1.5009 0)
(2.66158 -4.6785 0)
(1.33796 -6.90777 0)
(-1.01824 -7.97237 0)
(-0.138127 -5.60552 0)
(-0.938652 -3.68782 0)
(0.823671 -2.66476 0)
(-0.281066 -1.94899 0)
(-0.231294 1.02934 0)
(0.826953 -0.11316 0)
(1.49471 3.94314 0)
(2.7633 2.26356 0)
(3.29152 6.74757 0)
(4.87134 5.75628 0)
(5.10707 8.49602 0)
(6.78383 5.85132 0)
(6.87698 6.73214 0)
(7.8165 3.30182 0)
(7.59956 4.01948 0)
(8.27368 1.16314 0)
(8.35368 1.98196 0)
(8.81512 -0.283063 0)
(8.69081 1.17853 0)
(9.13669 -1.02276 0)
(9.35384 -0.314603 0)
(9.5941 -2.73166 0)
(9.17695 -1.40831 0)
(8.72822 -3.40712 0)
(7.90153 -0.810459 0)
(7.53808 -2.81934 0)
(6.77316 0.186727 0)
(6.61897 -2.50939 0)
(5.98356 1.12742 0)
(6.2476 -2.26421 0)
(5.61639 1.48456 0)
(6.05648 -2.21847 0)
(5.44161 2.02686 0)
(6.13105 -2.14026 0)
(5.34096 2.13661 0)
(6.11853 -2.23159 0)
(5.34287 2.57262 0)
(6.36441 -1.9827 0)
(5.4826 2.70093 0)
(6.39258 -2.27723 0)
(5.62339 3.03138 0)
(6.6648 -1.81398 0)
(6.14761 3.60948 0)
(6.7979 -1.91301 0)
(6.50806 3.74509 0)
(7.03731 -1.38343 0)
(7.28076 4.56395 0)
(7.64723 -0.400776 0)
(8.09582 4.6676 0)
(8.37984 1.08563 0)
(9.92628 4.24791 0)
(13.0504 -0.278035 0)
(13.0213 -0.374469 0)
(13.0021 -0.345655 0)
(13.2003 -0.269006 0)
(13.0267 -0.21078 0)
(12.8629 -0.115308 0)
(12.9821 -0.143549 0)
(12.9176 -0.129984 0)
(12.7474 0.0158862 0)
(12.7729 0.0546431 0)
(12.9912 -0.013372 0)
(13.2106 -0.13752 0)
(13.4549 -0.456611 0)
(13.6382 -0.879396 0)
(13.7672 -1.43519 0)
(13.7806 -2.15623 0)
(13.5015 -2.78896 0)
(13.2208 -3.44155 0)
(12.5868 -3.96659 0)
(11.1488 -3.98037 0)
(9.46893 -3.82041 0)
(8.31214 -3.68227 0)
(7.68208 -3.32923 0)
(7.33697 -2.74645 0)
(7.11361 -1.87779 0)
(6.89813 -0.998708 0)
(7.02678 -0.0285466 0)
(7.50463 1.08259 0)
(8.11206 2.18985 0)
(8.63131 3.05441 0)
(9.20393 3.17464 0)
(9.37056 2.82009 0)
(9.40939 2.2048 0)
(9.2867 1.41214 0)
(8.97974 0.688265 0)
(8.72997 -0.108497 0)
(8.30377 -0.730444 0)
(7.95715 -1.03909 0)
(7.70745 -0.988788 0)
(7.65409 -0.747855 0)
(7.55269 -0.470194 0)
(6.75882 0.808313 0)
(5.50479 2.44967 0)
(5.17664 2.45258 0)
(3.55218 1.58434 0)
(3.93791 -1.216 0)
(2.99298 -4.14852 0)
(1.63616 -6.06476 0)
(-0.932822 -7.19711 0)
(-1.41794 -5.74378 0)
(-1.33415 -3.96548 0)
(0.733137 -2.98429 0)
(-1.28667 -1.90176 0)
(-0.26796 0.931195 0)
(0.0769055 -0.45531 0)
(1.1401 3.92046 0)
(1.6445 1.52954 0)
(2.39999 6.71907 0)
(3.60926 4.85829 0)
(4.70265 8.22136 0)
(6.07316 5.34013 0)
(6.68874 6.49285 0)
(7.56071 3.15138 0)
(7.69424 3.82233 0)
(8.27062 1.0884 0)
(8.62376 1.77754 0)
(8.86855 -0.270527 0)
(8.94644 1.0361 0)
(9.30479 -1.08544 0)
(9.70523 -0.542927 0)
(9.71707 -2.65643 0)
(9.5229 -1.28972 0)
(8.82957 -3.00969 0)
(8.05672 -0.600734 0)
(7.48813 -2.58772 0)
(6.95376 0.296671 0)
(6.635 -2.2765 0)
(6.12964 1.19157 0)
(6.15684 -2.13014 0)
(5.73888 1.56493 0)
(5.87659 -2.0909 0)
(5.49495 2.08664 0)
(5.8749 -2.10268 0)
(5.44087 2.20378 0)
(5.858 -2.22554 0)
(5.40204 2.6346 0)
(6.00941 -2.10262 0)
(5.56103 2.79874 0)
(6.13581 -2.3194 0)
(5.6994 3.12146 0)
(6.34633 -2.0042 0)
(6.19588 3.64269 0)
(6.69512 -1.86428 0)
(6.59498 3.75082 0)
(7.03479 -1.32582 0)
(7.36316 4.18765 0)
(7.77966 -0.270446 0)
(8.25278 4.06453 0)
(8.68553 1.2078 0)
(9.58216 3.40644 0)
(13.0821 -0.271044 0)
(13.0711 -0.360842 0)
(13.0735 -0.277579 0)
(13.1148 -0.183251 0)
(13.0105 -0.216371 0)
(12.9825 -0.15102 0)
(13.0203 -0.143851 0)
(12.8487 -0.0924919 0)
(12.7216 0.0466728 0)
(12.9167 -0.02646 0)
(12.981 -0.107714 0)
(13.0158 -0.154258 0)
(13.2636 -0.449836 0)
(13.4039 -0.900557 0)
(13.5234 -1.48044 0)
(13.3758 -2.06735 0)
(13.005 -2.63049 0)
(12.4845 -3.19907 0)
(11.2259 -3.44376 0)
(9.30395 -3.30116 0)
(7.72476 -3.24801 0)
(6.83813 -3.33871 0)
(6.31655 -3.16958 0)
(5.96722 -2.62735 0)
(5.7431 -1.8261 0)
(5.55161 -0.977511 0)
(5.58264 -0.0659002 0)
(5.91197 0.926371 0)
(6.48571 1.92889 0)
(7.12612 2.70447 0)
(7.78421 2.9052 0)
(8.04414 2.72849 0)
(8.18057 2.2006 0)
(8.12789 1.48231 0)
(8.00205 0.766271 0)
(7.79194 0.0132696 0)
(7.41214 -0.59032 0)
(7.18252 -0.947537 0)
(7.09192 -0.932255 0)
(7.08597 -0.68289 0)
(6.94712 -0.234626 0)
(6.20066 1.20413 0)
(5.10626 2.72165 0)
(5.11762 2.7097 0)
(3.72467 1.77704 0)
(4.29262 -0.992151 0)
(3.45995 -3.60528 0)
(1.95562 -5.20002 0)
(-0.214355 -6.22133 0)
(-2.22894 -5.65805 0)
(-1.79175 -4.3886 0)
(-0.223488 -3.10571 0)
(-2.34865 -1.33178 0)
(-0.678501 0.282045 0)
(-1.14981 -0.816486 0)
(0.250837 3.69416 0)
(0.21095 0.751309 0)
(2.01672 6.9046 0)
(2.27933 3.97059 0)
(4.18547 7.99764 0)
(5.42722 4.77708 0)
(6.40281 6.15905 0)
(7.28649 2.97303 0)
(7.78451 3.5984 0)
(8.30033 0.982406 0)
(8.8742 1.57609 0)
(8.93809 -0.270585 0)
(9.21921 0.843564 0)
(9.53997 -1.14073 0)
(10.1032 -0.662753 0)
(9.83634 -2.54188 0)
(9.72302 -1.18602 0)
(8.92064 -2.65506 0)
(8.18843 -0.348041 0)
(7.38068 -2.23477 0)
(6.92408 0.463412 0)
(6.46699 -2.08271 0)
(6.14393 1.26664 0)
(6.11859 -2.02875 0)
(5.79298 1.60441 0)
(5.89137 -2.04102 0)
(5.53909 2.09126 0)
(5.90649 -2.07662 0)
(5.49466 2.25813 0)
(5.91152 -2.20455 0)
(5.46171 2.69362 0)
(6.05135 -2.10485 0)
(5.67866 2.84907 0)
(6.22429 -2.32209 0)
(5.83419 3.15023 0)
(6.40706 -1.97074 0)
(6.29518 3.62821 0)
(6.76913 -1.80639 0)
(6.7289 3.48366 0)
(7.2051 -1.21407 0)
(7.40991 3.68499 0)