/*--------------------------------*- C++ -*----------------------------------*\
| =========                 |                                                 |
| \\      /  F ield         | OpenFOAM: The Open Source CFD Toolbox           |
|  \\    /   O peration     | Version:  2.4.0                                 |
|   \\  /    A nd           | Web:      www.OpenFOAM.org                      |
|    \\/     M anipulation  |                                                 |
\*---------------------------------------------------------------------------*/
FoamFile
{
    version     2.0;
    format      ascii;
    class       volScalarField;
    location    "0.058";
    object      pMean;
}
// * * * * * * * * * * * * * * * * * * * * * * * * * * * * * * * * * * * * * //

dimensions      [0 2 -2 0 0 0 0];

internalField   nonuniform List<scalar> 
4400
(
177.51
154.369
145.098
140.235
135.962
131.642
127.245
122.803
117.998
111.344
175.622
154.43
145.133
140.245
135.965
131.643
127.246
122.809
118.025
112.281
174.435
154.726
145.262
140.284
135.984
131.649
127.25
122.809
118.155
112.755
173.707
155.083
145.432
140.341
136.024
131.678
127.262
122.845
118.286
113.312
173.116
155.406
145.6
140.401
136.082
131.717
127.294
122.868
118.458
113.797
172.607
155.674
145.747
140.448
136.135
131.772
127.33
122.924
118.635
114.275
172.189
155.886
145.868
140.477
136.179
131.816
127.371
122.979
118.778
114.793
171.87
156.046
145.962
140.493
136.21
131.854
127.412
123.037
118.909
115.237
171.654
156.155
146.026
140.502
136.23
131.883
127.439
123.1
119.044
115.658
171.545
156.211
146.058
140.506
136.242
131.897
127.474
123.156
119.186
116.006
171.543
156.215
146.058
140.509
136.243
131.907
127.493
123.214
119.326
116.297
171.648
156.165
146.026
140.507
136.237
131.903
127.514
123.273
119.454
116.533
171.859
156.062
145.961
140.502
136.221
131.891
127.527
123.325
119.577
116.723
172.175
155.907
145.866
140.49
136.194
131.869
127.534
123.377
119.695
116.863
172.591
155.698
145.743
140.465
136.155
131.839
127.536
123.423
119.802
116.96
173.099
155.433
145.595
140.423
136.105
131.803
127.535
123.464
119.892
117.031
173.69
155.111
145.426
140.367
136.052
131.773
127.535
123.499
119.958
117.083
174.418
154.754
145.256
140.312
136.014
131.756
127.54
123.526
119.998
117.122
175.605
154.458
145.127
140.274
135.997
131.753
127.545
123.542
120.014
117.156
177.493
154.397
145.092
140.264
135.995
131.754
127.547
123.547
120.017
117.264
106.758
106.64
105.493
104.223
103.861
104.088
104.17
103.875
103.38
102.923
102.316
101.332
100.432
100.443
101.367
102.9
105.005
107.622
110.436
113.172
115.62
117.626
119.106
120.058
120.546
120.652
120.455
120.044
119.552
119.11
118.837
118.845
119.234
119.978
120.993
122.216
123.532
124.794
125.947
126.947
127.725
128.228
128.497
128.561
128.504
128.323
128.113
127.831
127.574
127.253
126.99
126.652
126.393
126.042
125.783
125.416
125.162
124.781
124.545
124.149
123.938
123.524
123.339
122.9
122.743
122.278
122.157
121.662
121.582
121.047
121.013
120.436
120.458
119.838
119.918
119.247
119.386
118.67
118.865
118.105
118.337
117.551
117.785
117
117.201
116.414
116.544
115.736
115.752
114.861
114.733
113.634
113.354
111.786
111.374
108.635
108.119
101.611
100.302
70.5906
107.843
107.133
106.368
105.456
105.062
105.217
105.348
105.173
104.763
104.291
103.679
102.772
101.905
101.843
102.68
104.123
106.077
108.475
111.054
113.55
115.758
117.536
118.798
119.549
119.857
119.807
119.482
118.969
118.401
117.908
117.624
117.675
118.155
119.023
120.184
121.568
123.041
124.439
125.708
126.809
127.675
128.242
128.553
128.637
128.588
128.401
128.181
127.884
127.616
127.284
127.011
126.669
126.396
126.043
125.768
125.398
125.13
124.744
124.498
124.099
123.881
123.465
123.273
122.829
122.665
122.192
122.064
121.558
121.473
120.919
120.887
120.278
120.315
119.644
119.759
119.009
119.213
118.382
118.686
117.765
118.164
117.157
117.643
116.55
117.061
115.914
116.388
115.19
115.544
114.244
114.402
112.85
112.777
110.592
110.479
106.625
106.53
97.417
95.9546
63.1537
109.246
108.153
107.222
106.518
106.178
106.279
106.415
106.282
105.913
105.437
104.886
104.16
103.416
103.333
104.112
105.489
107.3
109.465
111.784
114.014
115.953
117.474
118.503
119.055
119.198
119.012
118.572
117.964
117.324
116.782
116.49
116.584
117.15
118.14
119.444
120.982
122.603
124.128
125.501
126.692
127.634
128.259
128.606
128.707
128.664
128.473
128.244
127.937
127.655
127.315
127.029
126.683
126.394
126.037
125.744
125.37
125.087
124.7
124.442
124.046
123.815
123.403
123.194
122.754
122.571
122.101
121.953
121.448
121.343
120.786
120.733
120.115
120.136
119.443
119.549
118.757
118.972
118.067
118.415
117.37
117.867
116.67
117.334
115.96
116.769
115.227
116.119
114.425
115.267
113.418
114.045
111.913
112.185
109.265
109.418
104.45
104.888
93.8818
90.9088
61.465
110.459
109.348
108.289
107.592
107.296
107.349
107.471
107.367
107.045
106.609
106.14
105.59
105.005
104.931
105.655
106.955
108.614
110.538
112.581
114.519
116.169
117.422
118.218
118.587
118.585
118.279
117.74
117.049
116.345
115.759
115.464
115.605
116.261
117.367
118.802
120.476
122.228
123.867
125.332
126.601
127.607
128.279
128.658
128.771
128.733
128.539
128.303
127.987
127.692
127.346
127.044
126.692
126.385
126.024
125.712
125.339
125.038
124.657
124.381
123.994
123.741
123.339
123.102
122.672
122.46
122.002
121.823
121.329
121.189
120.641
120.553
119.944
119.925
119.238
119.299
118.503
118.677
117.751
118.067
116.966
117.462
116.15
116.871
115.291
116.262
114.378
115.624
113.39
114.85
112.216
113.653
110.609
111.63
107.838
108.119
102.301
102.546
90.7404
85.1099
62.058
111.342
110.404
109.472
108.703
108.372
108.364
108.471
108.425
108.201
107.854
107.474
107.08
106.659
106.615
107.273
108.474
109.968
111.646
113.394
115.023
116.38
117.369
117.95
118.161
118.031
117.623
117.001
116.243
115.485
114.868
114.584
114.781
115.524
116.736
118.287
120.075
121.932
123.666
125.208
126.539
127.595
128.305
128.708
128.831
128.796
128.6
128.355
128.035
127.725
127.376
127.055
126.699
126.372
126.008
125.678
125.309
124.991
124.618
124.321
123.944
123.664
123.273
123.004
122.589
122.341
121.9
121.682
121.206
121.017
120.492
120.35
119.767
119.685
119.021
119.011
118.242
118.337
117.436
117.66
116.577
116.975
115.659
116.284
114.656
115.556
113.527
114.764
112.206
113.834
110.641
112.68
108.691
110.661
105.77
107.207
100.425
99.9841
88.2502
78.2335
61.9064
112.11
111.318
110.497
109.714
109.342
109.33
109.462
109.506
109.391
109.147
108.85
108.585
108.328
108.333
108.916
109.986
111.3
112.728
114.175
115.5
116.576
117.318
117.712
117.79
117.547
117.054
116.371
115.562
114.766
114.137
113.881
114.143
114.967
116.27
117.918
119.793
121.726
123.531
125.134
126.511
127.603
128.338
128.757
128.886
128.851
128.654
128.402
128.081
127.757
127.404
127.063
126.704
126.358
125.994
125.649
125.286
124.953
124.588
124.271
123.902
123.596
123.215
122.914
122.513
122.228
121.807
121.541
121.087
120.843
120.345
120.14
119.589
119.429
118.801
118.7
117.975
117.965
117.111
117.212
116.183
116.436
115.189
115.637
114.084
114.779
112.819
113.822
111.274
112.686
109.312
111.174
106.599
108.872
102.886
105.183
97.1608
96.2537
85.6552
73.2245
62.0855
112.909
112.112
111.297
110.567
110.235
110.285
110.474
110.589
110.565
110.417
110.207
110.044
109.926
109.99
110.497
111.418
112.543
113.734
114.901
115.939
116.752
117.273
117.517
117.482
117.136
116.579
115.855
115.018
114.208
113.587
113.372
113.703
114.606
115.985
117.705
119.638
121.618
123.468
125.112
126.52
127.632
128.38
128.807
128.938
128.901
128.705
128.444
128.124
127.784
127.431
127.073
126.71
126.348
125.988
125.629
125.278
124.929
124.577
124.236
123.879
123.541
123.175
122.839
122.458
122.132
121.731
121.417
120.986
120.685
120.219
119.944
119.428
119.181
118.597
118.391
117.721
117.585
116.793
116.741
115.791
115.87
114.712
114.953
113.516
113.972
112.174
112.875
110.564
111.55
108.445
109.685
105.237
106.774
100.446
101.694
92.7915
90.9683
81.1569
70.4369
62.5389
113.835
112.99
112.021
111.334
111.069
111.173
111.408
111.587
111.645
111.593
111.477
111.4
111.392
111.511
111.951
112.725
113.672
114.646
115.557
116.335
116.912
117.251
117.375
117.235
116.797
116.201
115.465
114.622
113.826
113.241
113.076
113.464
114.432
115.869
117.641
119.609
121.608
123.48
125.145
126.566
127.682
128.429
128.855
128.985
128.943
128.749
128.48
128.163
127.811
127.46
127.083
126.722
126.342
125.993
125.618
125.286
124.917
124.586
124.216
123.877
123.504
123.159
122.787
122.431
122.063
121.686
121.321
120.921
120.559
120.13
119.779
119.305
118.964
118.429
118.113
117.501
117.228
116.504
116.285
115.42
115.301
114.24
114.25
112.923
113.122
111.439
111.849
109.669
110.279
107.345
107.998
103.922
104.332
98.5126
97.8563
89.7352
86.1337
77.9866
69.3323
62.3443
114.555
113.708
112.645
111.976
111.778
111.94
112.237
112.491
112.628
112.665
112.637
112.638
112.715
112.882
113.273
113.913
114.689
115.459
116.143
116.695
117.067
117.256
117.283
117.043
116.531
115.93
115.204
114.382
113.631
113.112
113.007
113.446
114.451
115.92
117.716
119.694
121.693
123.567
125.233
126.65
127.754
128.488
128.904
129.03
128.98
128.789
128.51
128.201
127.835
127.49
127.095
126.741
126.343
126.008
125.618
125.307
124.919
124.613
124.214
123.899
123.491
123.172
122.766
122.439
122.031
121.685
121.269
120.903
120.483
120.095
119.67
119.243
118.808
118.329
117.898
117.353
116.933
116.287
115.886
115.115
114.776
113.819
113.56
112.353
112.243
110.67
110.732
108.638
108.841
105.989
106.084
102.23
101.6
96.5562
94.0122
88.0714
83.1374
77.3724
69.1325
62.2142
115.124
114.31
113.229
112.588
112.442
112.659
113.008
113.32
113.522
113.628
113.68
113.753
113.896
114.11
114.468
114.993
115.599
116.172
116.651
117.005
117.205
117.283
117.226
116.894
116.337
115.765
115.077
114.313
113.635
113.195
113.158
113.641
114.664
116.134
117.925
119.888
121.866
123.723
125.373
126.768
127.845
128.554
128.954
129.073
129.011
128.825
128.534
128.236
127.859
127.522
127.112
126.768
126.352
126.036
125.63
125.34
124.935
124.654
124.23
123.945
123.501
123.216
122.773
122.485
122.037
121.73
121.264
120.941
120.467
120.126
119.637
119.259
118.744
118.322
117.792
117.311
116.759
116.188
115.617
114.932
114.366
113.515
112.962
111.885
111.403
109.969
109.575
107.646
107.279
104.662
104.003
100.616
98.9608
94.9478
91.5043
87.4399
82.1127
78.579
69.5106
62.9603
115.577
114.823
113.774
113.163
113.054
113.304
113.69
114.053
114.318
114.493
114.623
114.768
114.968
115.219
115.555
115.976
116.419
116.809
117.106
117.278
117.328
117.322
117.199
116.796
116.223
115.713
115.093
114.423
113.853
113.51
113.543
114.058
115.075
116.516
118.271
120.192
122.127
123.946
125.56
126.913
127.951
128.626
129.001
129.112
129.035
128.855
128.553
128.266
127.88
127.555
127.13
126.804
126.37
126.075
125.654
125.384
124.961
124.705
124.261
124.007
123.533
123.285
122.806
122.564
122.074
121.821
121.303
121.039
120.505
120.23
119.672
119.367
118.769
118.427
117.801
117.401
116.732
116.247
115.531
114.935
114.172
113.422
112.599
111.637
110.781
109.497
108.59
106.901
105.867
103.631
102.191
99.4212
97.0813
94.0736
90.4108
87.9291
82.3679
80.2986
70.5151
64.3712
115.913
115.227
114.262
113.716
113.652
113.929
114.337
114.736
115.055
115.296
115.498
115.706
115.952
116.229
116.531
116.848
117.151
117.387
117.514
117.519
117.445
117.38
117.213
116.757
116.189
115.765
115.234
114.682
114.252
114.029
114.14
114.677
115.671
117.062
118.752
120.604
122.472
124.231
125.788
127.083
128.067
128.702
129.047
129.148
129.055
128.88
128.569
128.292
127.9
127.589
127.155
126.848
126.401
126.124
125.689
125.436
124.999
124.765
124.305
124.082
123.585
123.372
122.863
122.665
122.139
121.943
121.379
121.182
120.589
120.394
119.765
119.555
118.871
118.639
117.906
117.632
116.832
116.488
115.612
115.165
114.205
113.601
112.535
111.712
110.537
109.422
108.077
106.635
105.037
103.206
101.182
99.0554
96.3022
94.3635
90.4809
89.3593
83.3181
81.7852
71.9366
65.5895
116.162
115.566
114.73
114.275
114.253
114.536
114.943
115.353
115.707
116.002
116.268
116.535
116.818
117.098
117.349
117.565
117.728
117.812
117.801
117.68
117.523
117.444
117.278
116.799
116.257
115.923
115.509
115.1
114.819
114.721
114.904
115.454
116.409
117.733
119.34
121.101
122.881
124.559
126.04
127.265
128.186
128.778
129.091
129.18
129.071
128.9
128.583
128.314
127.919
127.623
127.184
126.898
126.442
126.181
125.733
125.497
125.045
124.832
124.357
124.164
123.651
123.472
122.936
122.78
122.223
122.083
121.482
121.353
120.707
120.595
119.9
119.798
119.028
118.929
118.082
117.973
117.028
116.884
115.82
115.608
114.412
114.076
112.715
112.189
110.645
109.866
108.068
107.018
104.889
103.612
101.018
99.7478
96.5065
95.7603
91.3628
91.1957
84.5957
82.8312
73.3118
66.3956
116.299
115.801
115.144
114.809
114.84
115.124
115.511
115.911
116.282
116.616
116.933
117.242
117.537
117.795
117.99
118.111
118.163
118.136
118.01
117.786
117.582
117.519
117.386
116.918
116.419
116.158
115.879
115.638
115.517
115.546
115.794
116.343
117.244
118.484
119.988
121.643
123.32
124.904
126.3
127.447
128.303
128.85
129.132
129.206
129.087
128.915
128.598
128.332
127.936
127.653
127.217
126.948
126.49
126.242
125.783
125.561
125.095
124.899
124.412
124.247
123.723
123.577
123.019
122.901
122.318
122.23
121.601
121.536
120.846
120.811
120.06
120.06
119.221
119.249
118.305
118.361
117.287
117.36
116.118
116.186
114.745
114.776
113.079
113.017
111.02
110.818
108.449
108.097
105.29
104.9
101.561
101.413
97.4193
97.735
92.666
92.8135
85.7936
83.3996
74.3806
66.9971
116.353
115.975
115.535
115.333
115.396
115.652
116.005
116.387
116.761
117.116
117.453
117.769
118.05
118.277
118.426
118.487
118.464
118.357
118.157
117.877
117.658
117.625
117.533
117.117
116.682
116.475
116.317
116.233
116.265
116.413
116.721
117.264
118.106
119.253
120.647
122.188
123.755
125.24
126.547
127.616
128.409
128.915
129.168
129.226
129.104
128.926
128.614
128.344
127.952
127.676
127.248
126.992
126.538
126.301
125.832
125.622
125.144
124.963
124.464
124.322
123.789
123.677
123.103
123.02
122.412
122.37
121.716
121.712
120.987
121.022
120.224
120.317
119.42
119.57
118.54
118.754
117.567
117.852
116.453
116.803
115.138
115.559
113.548
114.014
111.569
112.08
109.099
109.655
106.079
106.761
102.579
103.481
98.7089
99.6336
93.9926
93.9314
86.734
83.5889
75.1963
67.6193
116.378
116.113
115.879
115.782
115.856
116.077
116.388
116.741
117.105
117.462
117.806
118.123
118.394
118.596
118.708
118.723
118.655
118.506
118.279
117.991
117.795
117.792
117.723
117.371
117.015
116.862
116.802
116.848
117.004
117.248
117.6
118.129
118.909
119.965
121.252
122.683
124.147
125.537
126.763
127.762
128.499
128.967
129.199
129.241
129.121
128.932
128.627
128.351
127.966
127.69
127.269
127.021
126.574
126.346
125.876
125.672
125.188
125.015
124.51
124.38
123.843
123.757
123.175
123.122
122.497
122.49
121.814
121.863
121.112
121.212
120.371
120.545
119.599
119.858
118.758
119.109
117.828
118.303
116.777
117.38
115.534
116.309
114.043
115.002
112.184
113.377
109.882
111.313
107.067
108.727
103.788
105.468
100.017
101.143
95.1061
94.5469
87.4418
83.5637
75.8412
68.3042
116.412
116.229
116.14
116.114
116.185
116.372
116.647
116.973
117.324
117.679
118.023
118.334
118.589
118.769
118.86
118.856
118.77
118.612
118.397
118.148
117.998
118.008
117.948
117.665
117.39
117.282
117.295
117.433
117.679
117.992
118.374
118.885
119.605
120.574
121.764
123.097
124.471
125.78
126.935
127.876
128.568
129.005
129.222
129.249
129.131
128.934
128.637
128.355
127.976
127.696
127.278
127.032
126.587
126.368
125.898
125.702
125.216
125.049
124.541
124.418
123.878
123.808
123.225
123.195
122.562
122.58
121.892
121.975
121.211
121.36
120.495
120.727
119.747
120.088
118.943
119.402
118.054
118.677
117.059
117.871
115.889
116.954
114.498
115.866
112.776
114.519
110.657
112.777
108.057
110.421
104.946
107.079
101.141
102.215
95.9484
94.787
88.0197
83.5036
76.3401
69.0203
116.491
116.368
116.327
116.317
116.384
116.548
116.796
117.103
117.443
117.792
118.129
118.429
118.669
118.836
118.917
118.912
118.843
118.712
118.53
118.331
118.231
118.245
118.186
117.965
117.759
117.687
117.746
117.933
118.226
118.578
118.979
119.476
120.147
121.044
122.155
123.409
124.712
125.956
127.058
127.954
128.613
129.027
129.232
129.25
129.134
128.934
128.641
128.356
127.983
127.697
127.285
127.029
126.591
126.368
125.902
125.708
125.221
125.06
124.548
124.432
123.886
123.827
123.235
123.228
122.581
122.627
121.922
122.037
121.254
121.446
120.559
120.843
119.833
120.237
119.061
119.607
118.214
118.946
117.271
118.239
116.176
117.447
114.878
116.537
113.293
115.406
111.343
113.903
108.918
111.692
105.892
108.246
101.978
102.911
96.5342
94.8409
88.4802
83.4953
76.6977
69.6955
116.578
116.476
116.425
116.414
116.475
116.624
116.855
117.149
117.481
117.827
118.16
118.455
118.691
118.857
118.944
118.95
118.895
118.787
118.643
118.497
118.435
118.447
118.388
118.217
118.064
118.015
118.09
118.293
118.602
118.967
119.376
119.865
120.509
121.356
122.411
123.609
124.862
126.063
127.128
127.994
128.632
129.031
129.23
129.245
129.129
128.929
128.64
128.354
127.986
127.695
127.29
127.026
126.595
126.363
125.907
125.704
125.226
125.058
124.554
124.432
123.892
123.828
123.242
123.232
122.589
122.639
121.931
122.056
121.265
121.476
120.575
120.89
119.855
120.303
119.092
119.703
118.262
119.08
117.343
118.429
116.291
117.714
115.059
116.911
113.577
115.915
111.761
114.556
109.477
112.43
106.521
108.924
102.546
103.276
97.0207
94.7966
88.8965
83.5106
76.9162
70.2054
116.742
116.559
116.463
116.442
116.498
116.64
116.864
117.153
117.479
117.822
118.15
118.443
118.68
118.852
118.949
118.969
118.93
118.841
118.719
118.599
118.548
118.552
118.494
118.35
118.22
118.177
118.253
118.454
118.76
119.126
119.548
120.046
120.679
121.503
122.529
123.698
124.925
126.103
127.151
128.004
128.632
129.026
129.222
129.237
129.122
128.924
128.638
128.351
127.988
127.694
127.293
127.025
126.598
126.362
125.908
125.705
125.228
125.059
124.555
124.434
123.894
123.83
123.242
123.234
122.59
122.642
121.933
122.059
121.266
121.481
120.578
120.897
119.859
120.314
119.096
119.722
118.267
119.112
117.349
118.48
116.299
117.796
115.071
117.037
113.602
116.1
111.815
114.799
109.584
112.708
106.68
109.18
102.72
103.397
97.1608
94.7125
88.9593
83.4642
76.9551
70.1988
111.65
111.121
110.015
108.436
106.455
104.602
103.471
103.281
103.696
104.514
105.666
107.106
108.575
109.913
111.263
112.79
114.538
116.51
118.608
120.725
122.691
124.542
126.204
127.838
129.438
130.985
132.322
133.343
133.94
134.116
133.953
133.525
132.94
132.279
131.606
130.967
130.385
129.868
129.419
129.033
128.703
128.421
128.181
127.971
127.784
127.61
127.44
127.266
127.082
126.884
126.672
126.447
126.209
125.961
125.705
125.442
125.173
124.901
124.627
124.35
124.073
123.795
123.518
123.242
122.968
122.697
122.429
122.164
121.904
121.65
121.402
121.161
120.929
120.708
120.497
120.301
120.119
119.956
119.811
119.69
119.593
119.524
119.485
119.479
119.507
119.569
119.664
119.791
119.947
120.132
120.34
120.565
120.79
121.014
121.256
121.558
122.021
122.728
123.552
124.147
111.568
111.035
109.901
108.248
106.158
104.23
103.087
102.949
103.418
104.238
105.369
106.816
108.282
109.576
110.898
112.448
114.231
116.263
118.421
120.607
122.615
124.481
126.145
127.765
129.363
130.921
132.279
133.312
133.923
134.103
133.945
133.519
132.933
132.271
131.597
130.957
130.375
129.859
129.411
129.026
128.697
128.417
128.177
127.968
127.782
127.609
127.44
127.267
127.083
126.886
126.674
126.449
126.21
125.962
125.706
125.442
125.174
124.901
124.627
124.35
124.073
123.795
123.518
123.242
122.968
122.696
122.428
122.163
121.904
121.648
121.401
121.16
120.928
120.706
120.495
120.298
120.117
119.952
119.808
119.685
119.588
119.518
119.479
119.472
119.5
119.561
119.657
119.784
119.944
120.129
120.342
120.567
120.796
121.016
121.247
121.522
121.969
122.662
123.495
124.097
111.429
110.885
109.699
107.894
105.592
103.482
102.266
102.212
102.797
103.614
104.699
106.104
107.486
108.718
110.016
111.62
113.52
115.705
118.02
120.338
122.443
124.33
126.001
127.592
129.199
130.771
132.17
133.225
133.859
134.049
133.897
133.476
132.893
132.232
131.561
130.925
130.347
129.836
129.393
129.013
128.688
128.411
128.174
127.968
127.784
127.612
127.444
127.271
127.087
126.89
126.677
126.451
126.213
125.964
125.707
125.443
125.175
124.902
124.627
124.35
124.072
123.795
123.517
123.241
122.967
122.695
122.426
122.161
121.901
121.646
121.397
121.156
120.923
120.701
120.489
120.292
120.108
119.943
119.796
119.672
119.572
119.501
119.457
119.449
119.472
119.532
119.623
119.751
119.906
120.096
120.305
120.54
120.773
121.001
121.211
121.467
121.87
122.565
123.404
124.025
111.242
110.696
109.437
107.465
104.929
102.565
101.174
101.08
101.724
102.607
103.693
105.017
106.259
107.433
108.757
110.461
112.561
114.964
117.492
119.966
122.199
124.118
125.799
127.363
128.973
130.567
132.008
133.09
133.743
133.948
133.803
133.389
132.812
132.157
131.494
130.866
130.296
129.794
129.36
128.988
128.672
128.401
128.17
127.967
127.787
127.617
127.45
127.278
127.094
126.896
126.683
126.456
126.216
125.967
125.709
125.445
125.175
124.902
124.627
124.349
124.072
123.793
123.516
123.239
122.964
122.692
122.423
122.157
121.897
121.64
121.392
121.148
120.915
120.69
120.478
120.277
120.092
119.922
119.774
119.644
119.542
119.463
119.416
119.398
119.417
119.466
119.554
119.673
119.829
120.011
120.228
120.459
120.705
120.93
121.149
121.384
121.795
122.474
123.341
123.97
111.016
110.461
109.138
107.017
104.239
101.566
99.9149
99.6409
100.243
101.166
102.242
103.507
104.665
105.856
107.281
109.133
111.466
114.116
116.873
119.523
121.892
123.862
125.544
127.083
128.701
130.322
131.804
132.908
133.572
133.791
133.652
133.247
132.679
132.036
131.386
130.773
130.218
129.731
129.311
128.952
128.646
128.385
128.16
127.964
127.788
127.622
127.458
127.286
127.103
126.904
126.69
126.462
126.221
125.97
125.711
125.446
125.176
124.903
124.627
124.349
124.07
123.792
123.513
123.237
122.961
122.689
122.418
122.152
121.89
121.633
121.382
121.139
120.902
120.677
120.46
120.258
120.068
119.896
119.741
119.608
119.497
119.412
119.355
119.328
119.334
119.374
119.448
119.557
119.702
119.881
120.09
120.328
120.57
120.816
121.034
121.304
121.704
122.435
123.282
123.964
110.753
110.182
108.807
106.574
103.598
100.589
98.5946
97.996
98.4374
99.3287
100.351
101.581
102.79
104.081
105.667
107.69
110.268
113.176
116.166
119.013
121.528
123.561
125.25
126.767
128.398
130.055
131.558
132.673
133.34
133.566
133.431
133.036
132.481
131.856
131.228
130.637
130.107
129.644
129.245
128.903
128.611
128.361
128.146
127.957
127.787
127.625
127.465
127.295
127.113
126.913
126.698
126.469
126.226
125.975
125.714
125.449
125.178
124.903
124.627
124.348
124.069
123.79
123.511
123.233
122.958
122.684
122.413
122.145
121.883
121.624
121.372
121.126
120.888
120.66
120.441
120.235
120.042
119.864
119.704
119.564
119.445
119.351
119.282
119.244
119.234
119.26
119.316
119.412
119.538
119.707
119.903
120.136
120.383
120.635
120.893
121.181
121.66
122.383
123.334
123.96
110.439
109.844
108.434
106.131
103.028
99.6952
97.3
96.2595
96.4182
97.1896
98.1297
99.3471
100.749
102.186
103.951
106.154
108.984
112.161
115.385
118.439
121.114
123.219
124.918
126.43
128.082
129.771
131.273
132.381
133.037
133.26
133.128
132.743
132.205
131.605
131.009
130.452
129.958
129.529
129.16
128.842
128.568
128.332
128.128
127.947
127.784
127.628
127.472
127.305
127.124
126.924
126.709
126.477
126.233
125.98
125.719
125.452
125.179
124.905
124.626
124.348
124.068
123.788
123.509
123.23
122.954
122.678
122.407
122.138
121.874
121.614
121.36
121.113
120.873
120.641
120.42
120.209
120.012
119.829
119.663
119.515
119.388
119.282
119.203
119.149
119.126
119.131
119.172
119.24
119.353
119.492
119.681
119.891
120.144
120.404
120.695
121.054
121.57
122.397
123.278
124.056
110.059
109.423
107.972
105.643
102.502
98.9116
96.0955
94.5671
94.3789
94.9658
95.7939
97.0071
98.6575
100.266
102.177
104.584
107.652
111.091
114.553
117.815
120.653
122.843
124.558
126.084
127.76
129.466
130.946
132.022
132.652
132.861
132.729
132.356
131.841
131.273
130.717
130.208
129.764
129.383
129.054
128.768
128.518
128.3
128.109
127.938
127.782
127.632
127.482
127.317
127.138
126.937
126.721
126.486
126.242
125.986
125.724
125.455
125.182
124.906
124.627
124.348
124.066
123.786
123.505
123.227
122.949
122.673
122.4
122.131
121.865
121.604
121.347
121.099
120.855
120.621
120.395
120.182
119.979
119.791
119.618
119.462
119.325
119.209
119.117
119.048
119.008
118.995
119.012
119.062
119.143
119.266
119.418
119.624
119.847
120.135
120.442
120.875
121.471
122.335
123.368
123.913
109.606
108.894
107.381
105.052
101.965
98.2217
95.0205
93.0468
92.5328
92.8938
93.5655
94.7326
96.5857
98.3981
100.446
103.038
106.308
109.998
113.688
117.149
120.148
122.427
124.169
125.734
127.43
129.132
130.564
131.584
132.171
132.357
132.221
131.861
131.375
130.849
130.345
129.898
129.519
129.2
128.925
128.681
128.462
128.266
128.09
127.929
127.782
127.638
127.493
127.331
127.154
126.951
126.735
126.498
126.252
125.994
125.73
125.46
125.185
124.908
124.628
124.348
124.065
123.784
123.503
123.222
122.945
122.667
122.394
122.122
121.855
121.592
121.334
121.082
120.836
120.599
120.37
120.151
119.944
119.75
119.569
119.406
119.258
119.132
119.024
118.944
118.881
118.852
118.842
118.871
118.923
119.015
119.144
119.312
119.535
119.796
120.158
120.611
121.294
122.189
123.107
124.038
109.06
108.233
106.62
104.312
101.357
97.592
94.1187
91.7807
90.9904
91.1176
91.622
92.6659
94.6483
96.6651
98.8429
101.584
105.033
108.952
112.829
116.459
119.6
121.969
123.757
125.377
127.085
128.752
130.112
131.054
131.584
131.739
131.594
131.248
130.798
130.326
129.888
129.518
129.22
128.979
128.771
128.579
128.4
128.231
128.074
127.924
127.786
127.648
127.508
127.349
127.173
126.968
126.751
126.51
126.264
126.002
125.738
125.464
125.189
124.91
124.629
124.347
124.064
123.782
123.499
123.219
122.938
122.661
122.385
122.113
121.844
121.579
121.319
121.065
120.816
120.575
120.342
120.119
119.907
119.705
119.518
119.344
119.188
119.048
118.93
118.828
118.753
118.696
118.671
118.663
118.696
118.747
118.849
118.983
119.172
119.437
119.776
120.298
120.975
121.973
123.013
123.52
108.414
107.419
105.663
103.4
100.656
97.0184
93.4354
90.8347
89.8267
89.7484
90.0924
90.9888
93.0624
95.2327
97.4785
100.328
103.917
108.002
112.011
115.774
119.026
121.477
123.326
125.006
126.71
128.313
129.576
130.424
130.886
131.002
130.844
130.511
130.103
129.697
129.344
129.067
128.867
128.718
128.59
128.464
128.334
128.199
128.062
127.925
127.795
127.662
127.528
127.37
127.195
126.988
126.769
126.524
126.277
126.01
125.747
125.468
125.195
124.911
124.631
124.346
124.064
123.779
123.497
123.214
122.933
122.654
122.378
122.103
121.833
121.566
121.303
121.046
120.795
120.551
120.313
120.085
119.866
119.659
119.463
119.281
119.114
118.962
118.828
118.712
118.614
118.54
118.483
118.456
118.446
118.477
118.526
118.636
118.78
119.015
119.355
119.838
120.573
121.432
122.452
123.38
107.659
106.471
104.522
102.352
99.8913
96.5233
93.0292
90.314
89.1565
88.9551
89.14
89.8836
91.9512
94.1957
96.4503
99.3373
103.003
107.194
111.281
115.124
118.444
120.964
122.884
124.615
126.293
127.802
128.949
129.693
130.076
130.145
129.969
129.65
129.291
128.963
128.71
128.545
128.46
128.419
128.385
128.336
128.266
128.171
128.058
127.934
127.812
127.684
127.554
127.396
127.221
127.009
126.789
126.538
126.291
126.019
125.757
125.472
125.201
124.911
124.635
124.343
124.065
123.775
123.495
123.208
122.928
122.646
122.369
122.092
121.821
121.551
121.287
121.026
120.772
120.524
120.282
120.049
119.824
119.61
119.406
119.215
119.036
118.872
118.723
118.589
118.473
118.373
118.294
118.232
118.196
118.178
118.201
118.248
118.366
118.54
118.846
119.305
119.965
120.932
121.814
122.373
106.824
105.43
103.284
101.263
99.1723
96.1791
92.9832
90.337
89.1262
88.8518
88.8681
89.4357
91.3758
93.5905
95.811
98.6672
102.345
106.56
110.66
114.521
117.877
120.451
122.436
124.195
125.82
127.211
128.232
128.863
129.157
129.169
128.971
128.667
128.367
128.133
127.993
127.955
128.002
128.084
128.157
128.198
128.198
128.151
128.067
127.956
127.842
127.716
127.587
127.428
127.25
127.034
126.811
126.554
126.307
126.027
125.767
125.475
125.208
124.91
124.639
124.339
124.066
123.768
123.494
123.199
122.925
122.635
122.362
122.08
121.81
121.535
121.271
121.005
120.749
120.495
120.25
120.011
119.781
119.559
119.347
119.146
118.956
118.778
118.614
118.462
118.326
118.203
118.096
118.004
117.929
117.877
117.843
117.855
117.896
118.032
118.25
118.641
119.221
119.926
120.797
121.496
105.986
104.428
102.202
100.294
98.6046
96.0822
93.3673
90.9661
89.7707
89.4626
89.3009
89.6612
91.3613
93.4449
95.5785
98.3375
101.955
106.11
110.159
113.985
117.343
119.952
121.984
123.74
125.285
126.54
127.43
127.94
128.131
128.078
127.858
127.575
127.344
127.215
127.201
127.305
127.498
127.716
127.91
128.052
128.133
128.14
128.09
127.995
127.887
127.76
127.629
127.465
127.283
127.06
126.834
126.569
126.322
126.035
125.778
125.477
125.214
124.907
124.642
124.333
124.068
123.759
123.494
123.187
122.923
122.621
122.357
122.063
121.8
121.516
121.255
120.981
120.725
120.465
120.217
119.972
119.735
119.506
119.285
119.074
118.872
118.682
118.501
118.333
118.174
118.029
117.891
117.769
117.655
117.557
117.48
117.422
117.414
117.446
117.602
117.852
118.3
118.922
119.459
119.872
105.354
103.646
101.473
99.6189
98.2982
96.3493
94.1969
92.1794
91.0415
90.7244
90.4134
90.5239
91.8806
93.736
95.7298
98.3435
101.83
105.846
109.786
113.529
116.856
119.476
121.527
123.248
124.687
125.798
126.552
126.932
127.009
126.885
126.646
126.394
126.242
126.227
126.349
126.606
126.955
127.32
127.646
127.901
128.071
128.141
128.129
128.052
127.949
127.819
127.682
127.508
127.32
127.087
126.858
126.584
126.338
126.041
125.787
125.476
125.22
124.901
124.646
124.323
124.07
123.746
123.495
123.171
122.922
122.601
122.355
122.039
121.795
121.488
121.244
120.949
120.707
120.427
120.188
119.926
119.692
119.449
119.223
118.999
118.787
118.582
118.386
118.199
118.02
117.848
117.684