/*--------------------------------*- C++ -*----------------------------------*\
| =========                 |                                                 |
| \\      /  F ield         | OpenFOAM: The Open Source CFD Toolbox           |
|  \\    /   O peration     | Version:  2.4.0                                 |
|   \\  /    A nd           | Web:      www.OpenFOAM.org                      |
|    \\/     M anipulation  |                                                 |
\*---------------------------------------------------------------------------*/
FoamFile
{
    version     2.0;
    format      ascii;
    class       volScalarField;
    location    "0.001";
    object      k;
}
// * * * * * * * * * * * * * * * * * * * * * * * * * * * * * * * * * * * * * //

dimensions      [0 2 -2 0 0 0 0];

internalField   nonuniform List<scalar> 
17600
(
0.58903
0.787733
0.941488
1.04569
1.10669
1.13448
1.13896
1.12828
1.10857
1.08409
1.05771
1.03127
1.0059
0.982211
0.960485
0.940672
0.922373
0.904593
0.885555
0.856263
0.40944
0.408541
0.403038
0.397434
0.39244
0.388624
0.386546
0.386656
0.389272
0.394589
0.402686
0.41354
0.42702
0.442887
0.460796
0.480296
0.500856
0.521933
0.543457
0.569219
0.378978
0.37161
0.358824
0.344059
0.328946
0.314506
0.301446
0.290252
0.281231
0.274568
0.270355
0.26863
0.269392
0.27262
0.278289
0.286385
0.296976
0.310428
0.328269
0.35864
0.370717
0.363373
0.353456
0.341914
0.329538
0.316943
0.304599
0.292862
0.281991
0.272174
0.263542
0.256184
0.25016
0.245518
0.242305
0.240593
0.240535
0.242568
0.248038
0.262428
0.368689
0.361459
0.353051
0.343668
0.333631
0.323253
0.312806
0.302513
0.292553
0.283063
0.274148
0.265885
0.258329
0.251523
0.245499
0.240298
0.235997
0.232827
0.231465
0.234733
0.36811
0.360967
0.353339
0.345184
0.336605
0.327747
0.318763
0.309787
0.300939
0.292314
0.283992
0.276032
0.268482
0.261376
0.254739
0.248593
0.242972
0.237984
0.233921
0.232183
0.367938
0.360858
0.353646
0.346201
0.338525
0.33067
0.322711
0.314728
0.306796
0.298979
0.291335
0.283909
0.276739
0.269851
0.263267
0.257001
0.251069
0.245524
0.240494
0.236726
0.367886
0.360848
0.353863
0.346835
0.339724
0.332532
0.325287
0.318029
0.3108
0.303644
0.296598
0.289696
0.282965
0.276428
0.270099
0.263988
0.258104
0.252477
0.247167
0.242616
0.36787
0.360857
0.353997
0.347213
0.340455
0.3337
0.326949
0.320213
0.313515
0.306877
0.300323
0.293877
0.287556
0.281377
0.27535
0.269483
0.263779
0.258259
0.252957
0.248163
0.367864
0.360866
0.354073
0.347428
0.340886
0.334416
0.328001
0.321639
0.315333
0.309094
0.302933
0.296864
0.290898
0.285045
0.279312
0.273704
0.268221
0.26288
0.25771
0.252919
0.367862
0.360871
0.354112
0.347545
0.341132
0.334842
0.328653
0.322551
0.316531
0.310592
0.304737
0.298971
0.293299
0.287728
0.282259
0.276895
0.271635
0.266495
0.261506
0.256827
0.36786
0.360872
0.35413
0.347605
0.341268
0.335089
0.329046
0.323121
0.317303
0.311584
0.305961
0.300433
0.294999
0.289662
0.284419
0.279272
0.274219
0.269276
0.264479
0.259956
0.367859
0.360872
0.354138
0.347635
0.341339
0.335227
0.329276
0.323468
0.317789
0.312228
0.306776
0.301429
0.296182
0.291032
0.285978
0.281016
0.276146
0.271382
0.266769
0.262411
0.367858
0.360871
0.354141
0.347649
0.341375
0.335301
0.329406
0.323673
0.318087
0.312635
0.307306
0.302093
0.296988
0.291986
0.287083
0.282274
0.277559
0.272952
0.268504
0.264303
0.367857
0.36087
0.354141
0.347654
0.341393
0.33534
0.329478
0.323791
0.318265
0.312886
0.307643
0.302525
0.297526
0.292636
0.287851
0.283164
0.278576
0.274101
0.269796
0.265734
0.367856
0.360868
0.35414
0.347656
0.3414
0.335359
0.329516
0.323857
0.318368
0.313037
0.307851
0.302801
0.297876
0.29307
0.288373
0.283781
0.279294
0.274926
0.270738
0.266792
0.367856
0.360867
0.354139
0.347655
0.341403
0.335367
0.329535
0.323892
0.318426
0.313125
0.307977
0.302971
0.298099
0.293351
0.288719
0.284198
0.279787
0.275503
0.271408
0.267554
0.367856
0.360867
0.354138
0.347655
0.341404
0.335371
0.329544
0.323911
0.318458
0.313175
0.30805
0.303073
0.298235
0.293526
0.288939
0.284468
0.280113
0.27589
0.271865
0.268081
0.367855
0.360866
0.354137
0.347654
0.341403
0.335372
0.329548
0.32392
0.318474
0.313201
0.30809
0.30313
0.298312
0.293628
0.289069
0.28463
0.280313
0.276132
0.272155
0.268419
0.367855
0.360866
0.354137
0.347654
0.341403
0.335373
0.32955
0.323923
0.318481
0.313212
0.308107
0.303155
0.298347
0.293675
0.28913
0.284709
0.280412
0.276256
0.272307
0.268598
0.367855
0.360866
0.354137
0.347654
0.341403
0.335373
0.32955
0.323923
0.318481
0.313212
0.308107
0.303156
0.298349
0.293677
0.289135
0.284716
0.280425
0.276277
0.272338
0.268637
0.367855
0.360866
0.354137
0.347654
0.341404
0.335373
0.329549
0.32392
0.318474
0.313202
0.308091
0.303132
0.298316
0.293635
0.289082
0.284653
0.280352
0.276195
0.272248
0.268536
0.367856
0.360867
0.354138
0.347655
0.341404
0.335371
0.329545
0.323911
0.318459
0.313176
0.308052
0.303077
0.298242
0.293538
0.288961
0.284506
0.28018
0.275997
0.272025
0.268285
0.367856
0.360867
0.354139
0.347655
0.341403
0.335368
0.329535
0.323893
0.318427
0.313127
0.30798
0.302977
0.298108
0.293368
0.28875
0.284253
0.279883
0.275657
0.27164
0.267855
0.367856
0.360868
0.35414
0.347656
0.3414
0.335359
0.329516
0.323858
0.318369
0.313039
0.307855
0.302808
0.297889
0.293092
0.288414
0.283855
0.279421
0.275131
0.271051
0.267202
0.367857
0.36087
0.354141
0.347654
0.341393
0.33534
0.329478
0.323792
0.318266
0.312888
0.307647
0.302534
0.297541
0.292665
0.287903
0.283258
0.278738
0.274363
0.270198
0.266267
0.367858
0.360871
0.354141
0.347649
0.341376
0.335301
0.329407
0.323674
0.318089
0.312638
0.307312
0.302103
0.297007
0.292021
0.287146
0.282388
0.277757
0.273274
0.269004
0.264974
0.367859
0.360872
0.354138
0.347635
0.341339
0.335227
0.329276
0.323469
0.317791
0.312231
0.306783
0.301441
0.296204
0.291074
0.286053
0.281151
0.276382
0.271768
0.267373
0.263227
0.36786
0.360872
0.35413
0.347605
0.341268
0.335089
0.329047
0.323123
0.317305
0.311589
0.305969
0.300447
0.295026
0.28971
0.284507
0.279428
0.274495
0.269727
0.265188
0.260913
0.367862
0.360871
0.354112
0.347545
0.341132
0.334843
0.328654
0.322553
0.316534
0.310597
0.304746
0.298988
0.29333
0.287784
0.282359
0.277073
0.271948
0.267008
0.262314
0.257905
0.367864
0.360866
0.354073
0.347428
0.340886
0.334416
0.328002
0.32164
0.315336
0.309099
0.302944
0.296883
0.290933
0.285108
0.279425
0.273902
0.268565
0.263446
0.258594
0.254059
0.36787
0.360857
0.353997
0.347213
0.340455
0.333701
0.326949
0.320215
0.313518
0.306883
0.300335
0.293898
0.287595
0.281447
0.275474
0.269699
0.264146
0.258857
0.253868
0.249238
0.367886
0.360848
0.353863
0.346835
0.339725
0.332533
0.325288
0.318031
0.310804
0.303651
0.296611
0.28972
0.283008
0.276504
0.270231
0.264213
0.258477
0.253064
0.248001
0.243357
0.367938
0.360858
0.353646
0.346201
0.338525
0.33067
0.322712
0.31473
0.3068
0.298987
0.291349
0.283935
0.276784
0.26993
0.263401
0.257219
0.251408
0.246
0.241026
0.236553
0.36811
0.360967
0.353339
0.345185
0.336605
0.327748
0.318764
0.30979
0.300944
0.292323
0.284007
0.276059
0.268528
0.261451
0.254855
0.248762
0.243185
0.238138
0.233641
0.22977
0.368689
0.361459
0.353051
0.343668
0.333631
0.323253
0.312807
0.302515
0.292557
0.283071
0.274163
0.265909
0.258365
0.25157
0.245548
0.24031
0.235849
0.23215
0.229178
0.227037
0.370717
0.363373
0.353456
0.341914
0.329538
0.316943
0.3046
0.292864
0.281995
0.27218
0.263549
0.256189
0.250154
0.245473
0.242154
0.240183
0.23951
0.240046
0.241659
0.244302
0.378978
0.37161
0.358824
0.344059
0.328946
0.314506
0.301446
0.290251
0.281229
0.27456
0.270336
0.268583
0.269285
0.272387
0.277795
0.285362
0.294877
0.306037
0.318495
0.331521
0.409439
0.40854
0.403038
0.397434
0.392439
0.388622
0.386542
0.386649
0.38926
0.394567
0.402649
0.41348
0.426925
0.442748
0.46061
0.480084
0.500692
0.521944
0.543388
0.56333
0.58903
0.787733
0.941489
1.04569
1.10669
1.13449
1.13898
1.12832
1.10864
1.08422
1.05795
1.0317
1.00667
0.983593
0.962947
0.945052
0.930166
0.918614
0.910595
0.906893
1.08882
1.36673
1.59968
1.73942
1.78198
1.75685
1.69981
1.6368
1.58153
1.53909
1.50987
1.49219
1.48366
1.48195
1.48509
1.49161
1.50042
1.51118
1.52391
1.53503
1.54182
1.54082
1.52768
1.49755
1.44582
1.36942
1.26812
1.14553
1.00906
0.868693
0.734938
0.616701
0.519973
0.447587
0.399774
0.375021
0.370793
0.383982
0.411201
0.449089
0.494589
0.545071
0.59827
0.652169
0.704919
0.754854
0.800558
0.840954
0.875345
0.90341
0.925152
0.940823
0.95084
0.955718
0.95601
0.952276
0.945053
0.934843
0.922105
0.907257
0.890671
0.872677
0.853569
0.833604
0.813007
0.791975
0.770677
0.749261
0.727851
0.706555
0.685465
0.664654
0.644187
0.624115
0.60448
0.585315
0.566645
0.548489
0.53086
0.513768
0.497215
0.481205
0.465734
0.450798
0.436393
0.422509
0.409139
0.396272
0.3839
0.372011
0.360595
0.349642
0.339141
0.329084
0.319459
0.31026
0.301478
0.293106
0.285138
0.277568
0.270392
0.263607
0.257208
0.251195
0.245563
0.240312
0.235438
0.230939
0.22681
0.223044
0.219635
0.216571
0.213841
0.211429
0.209317
0.207487
0.205916
0.204582
0.203462
0.202533
0.201771
0.201155
0.200665
0.200283
0.19999
0.199773
0.199618
0.199513
0.199448
0.199416
0.199408
0.199419
0.199444
0.199479
0.199521
0.199566
0.199613
0.19966
0.199706
0.19975
0.199792
0.199831
0.199867
0.199899
0.199929
0.199956
0.199981
0.200004
0.200026
0.200048
0.20007
0.200094
0.20012
0.200151
0.200186
0.20023
0.200286
0.20036
0.200455
0.200575
0.200724
0.200907
0.201132
0.201403
0.201731
0.202125
0.202596
0.203158
0.203828
0.204625
0.205573
0.2067
0.208039
0.209631
0.211525
0.21378
0.216468
0.219678
0.223519
0.228125
0.233667
0.240361
0.248482
0.258389
0.270557
0.285624
0.304466
0.328316
0.358943
0.398959
0.452289
0.524915
0.625958
0.769077
0.974611
1.27043
1.69932
2.27443
3.13049
1.76596
0.614013
0.701875
0.83378
0.997953
1.16917
1.32116
1.43726
1.51342
1.55518
1.57245
1.57513
1.57092
1.56482
1.55955
1.55632
1.55546
1.55664
1.55986
1.55962
1.55254
1.53596
1.50644
1.46035
1.39461
1.30771
1.20057
1.07718
0.944437
0.81105
0.685894
0.576341
0.487224
0.420656
0.376518
0.353191
0.348195
0.35861
0.381363
0.413509
0.452469
0.496126
0.54277
0.590943
0.639311
0.686591
0.731566
0.773145
0.81044
0.842818
0.869924
0.891654
0.908112
0.919556
0.926341
0.92888
0.927609
0.922961
0.915357
0.905195
0.892841
0.878635
0.862884
0.845866
0.82783
0.809
0.789574
0.769725
0.749608
0.729357
0.709088
0.6889
0.66888
0.649101
0.629622
0.610495
0.591762
0.573454
0.555599
0.538217
0.521322
0.504924
0.489029
0.47364
0.458757
0.444377
0.430496
0.417108
0.404206
0.391781
0.379826
0.368331
0.357286
0.346683
0.336513
0.326767
0.317436
0.308512
0.29999
0.291861
0.28412
0.276763
0.269784
0.263181
0.25695
0.251088
0.245594
0.240463
0.235695
0.231284
0.227228
0.223518
0.220149
0.21711
0.214389
0.211973
0.209845
0.207988
0.206381
0.205005
0.203838
0.202859
0.202047
0.201381
0.200844
0.200417
0.200085
0.199831
0.199644
0.199512
0.199425
0.199374
0.199352
0.199353
0.19937
0.1994
0.19944
0.199485
0.199534
0.199584
0.199635
0.199685
0.199733
0.199779
0.199822
0.199862
0.199901
0.199936
0.19997
0.200003
0.200035
0.200067
0.200101
0.200136
0.200175
0.20022
0.200271
0.200335
0.200416
0.200518
0.200645
0.200802
0.200993
0.201224
0.201504
0.201839
0.202241
0.202721
0.203292
0.203971
0.204779
0.205737
0.206875
0.208226
0.209831
0.211738
0.214008
0.216713
0.219942
0.223806
0.228441
0.234021
0.240765
0.248957
0.258966
0.271284
0.286576
0.305761
0.330141
0.361599
0.402939
0.458414
0.534566
0.641468
0.794383
1.01607
1.33839
1.80565
2.44395
3.28694
2.11981
0.376974
0.407664
0.45561
0.526369
0.621269
0.735869
0.861262
0.986741
1.10267
1.20255
1.28358
1.34618
1.3927
1.42626
1.44992
1.46607
1.47624
1.4788
1.46709
1.44137
1.40057
1.34332
1.26874
1.17717
1.07082
0.954016
0.83294
0.714735
0.606269
0.512978
0.438208
0.383175
0.347383
0.329203
0.326369
0.336322
0.356461
0.384368
0.417983
0.455661
0.496124
0.538339
0.581403
0.624444
0.66658
0.70693
0.744657
0.77903
0.809483
0.835638
0.857307
0.874474
0.887255
0.895866
0.900587
0.901736
0.89965
0.894665
0.887113
0.877312
0.86556
0.85214
0.837309
0.821307
0.804351
0.786638
0.768345
0.749631
0.730637
0.711488
0.692292
0.673144
0.654127
0.635311
0.616755
0.59851
0.580617
0.563109
0.546014
0.529352
0.51314
0.49739
0.482108
0.467299
0.452964
0.439102
0.42571
0.412784
0.400318
0.388305
0.376738
0.365609
0.35491
0.344632
0.334767
0.325308
0.316247
0.307576
0.299289
0.29138
0.283844
0.276675
0.269869
0.263422
0.257332
0.251595
0.246209
0.24117
0.236476
0.232122
0.228105
0.224419
0.221056
0.218007
0.215263
0.212809
0.210633
0.208718
0.207047
0.205601
0.204362
0.20331
0.202426
0.201692
0.20109
0.200603
0.200216
0.199914
0.199685
0.199516
0.199399
0.199323
0.199281
0.199266
0.199272
0.199295
0.199329
0.199373
0.199422
0.199475
0.19953
0.199585
0.19964
0.199693
0.199744
0.199793
0.199841
0.199886
0.19993
0.199973
0.200017
0.200061
0.200107
0.200156
0.20021
0.20027
0.200342
0.200431
0.200541
0.200675
0.200839
0.201037
0.201276
0.201562
0.201905
0.202314
0.202801
0.20338
0.204068
0.204884
0.205851
0.206998
0.208358
0.209973
0.211891
0.214173
0.216891
0.220135
0.224016
0.228673
0.234281
0.241064
0.249309
0.259396
0.27183
0.287298
0.306754
0.331558
0.363691
0.406119
0.463375
0.54248
0.654312
0.815463
1.05055
1.39426
1.88905
2.56761
3.34512
2.46102
0.270513
0.283055
0.300998
0.326965
0.363875
0.413826
0.477278
0.552689
0.636715
0.724865
0.812358
0.894898
0.969193
1.03311
1.08556
1.12607
1.15433
1.16524
1.15724
1.13039
1.08537
1.02355
0.947227
0.859851
0.765981
0.670972
0.580323
0.498898
0.430291
0.376529
0.338155
0.314556
0.304364
0.305794
0.316889
0.33571
0.3605
0.389778
0.422369
0.457362
0.494035
0.531778
0.570025
0.608198
0.645683
0.681838
0.716024
0.747649
0.776213
0.801341
0.822796
0.840469
0.854367
0.864587
0.871294
0.8747
0.875044
0.872585
0.867587
0.860313
0.851022
0.839961
0.827367
0.813464
0.798459
0.782545
0.765899
0.748682
0.731041
0.713106
0.694995
0.676809
0.658641
0.64057
0.622663
0.604979
0.587568
0.570471
0.553723
0.537351
0.521377
0.505818
0.490687
0.475993
0.46174
0.447933
0.43457
0.42165
0.40917
0.397126
0.385511
0.37432
0.363546
0.35318
0.343217
0.333648
0.324466
0.315664
0.307236
0.299175
0.291476
0.284132
0.277139
0.270493
0.26419
0.258226
0.252598
0.247303
0.242338
0.237699
0.233384
0.229386
0.225701
0.222323
0.219243
0.216453
0.213941
0.211695
0.209701
0.207945
0.20641
0.205079
0.203937
0.202964
0.202145
0.201463
0.200902
0.200447
0.200084
0.199802
0.199587
0.19943
0.199321
0.199252
0.199216
0.199206
0.199216
0.199243
0.199282
0.199329
0.199383
0.19944
0.1995
0.19956
0.19962
0.199679
0.199737
0.199794
0.19985
0.199905
0.19996
0.200015
0.200072
0.200132
0.200197
0.200268
0.200348
0.200446
0.200563
0.200705
0.200877
0.201082
0.201328
0.201622
0.201972
0.202389
0.202883
0.203469
0.204164
0.204987
0.205962
0.207117
0.208485
0.210108
0.212035
0.214326
0.217054
0.220308
0.224202
0.228875
0.234503
0.241312
0.249596
0.259738
0.272256
0.287853
0.307511
0.332636
0.365285
0.408556
0.467206
0.548641
0.664364
0.831976
1.07733
1.43672
1.94925
2.64767
3.37178
2.75918
0.237317
0.241698
0.247834
0.256511
0.26889
0.286292
0.309918
0.3405
0.378035
0.421673
0.469782
0.520146
0.570215
0.617366
0.659081
0.692986
0.716723
0.727273
0.725279
0.70968
0.680828
0.640414
0.591259
0.536972
0.48151
0.428675
0.381668
0.342784
0.313316
0.293652
0.283479
0.282015
0.288205
0.300879
0.318874
0.341126
0.366722
0.394911
0.425085
0.456757
0.489517
0.522997
0.556829
0.590622
0.623942
0.656322
0.687276
0.71633
0.743056
0.767099
0.788198
0.806184
0.82098
0.832589
0.841076
0.846557
0.849186
0.849141
0.846622
0.841834
0.834992
0.826307
0.815989
0.804241
0.791259
0.777226
0.762317
0.746692
0.730501
0.713878
0.696946
0.679817
0.662589
0.645349
0.628174
0.61113
0.594276
0.57766
0.561323
0.545301
0.529621
0.514307
0.499375
0.484841
0.470713
0.456998
0.4437
0.43082
0.418358
0.406312
0.394677
0.383449
0.372623
0.362193
0.352152
0.342493
0.33321
0.324297
0.315745
0.30755
0.299704
0.292203
0.28504
0.278212
0.271712
0.265538
0.259686
0.254151
0.24893
0.244021
0.239419
0.235121
0.231123
0.227419
0.224004
0.220871
0.218013
0.215421
0.213083
0.210989
0.209126
0.207481
0.206038
0.204784
0.203704
0.20278
0.202
0.201348
0.20081
0.200372
0.200022
0.199749
0.199541
0.199389
0.199284
0.199218
0.199185
0.199177
0.199191
0.199221
0.199263
0.199314
0.199372
0.199434
0.199499
0.199566
0.199632
0.199699
0.199766
0.199832
0.199898
0.199966
0.200035
0.200106
0.200182
0.200264
0.200355
0.200461
0.200587
0.200738
0.200917
0.201131
0.201385
0.201686
0.202044
0.202467
0.202969
0.203562
0.204264
0.205094
0.206075
0.207237
0.208612
0.210242
0.212175
0.214472
0.217207
0.220469
0.224371
0.229053
0.234693
0.241518
0.249825
0.260001
0.272571
0.288251
0.308042
0.333382
0.366387
0.410247
0.469883
0.552974
0.671457
0.843577
1.09583
1.46497
1.98665
2.68815
3.38062
3.01105
0.232393
0.233388
0.23492
0.237204
0.240596
0.245559
0.252626
0.262298
0.274902
0.290455
0.308587
0.328512
0.349068
0.368786
0.385985
0.398845
0.405446
0.406386
0.403176
0.395227
0.382563
0.365882
0.34647
0.325986
0.306192
0.288697
0.274776
0.265282
0.260652
0.26097
0.266058
0.275555
0.288999
0.305883
0.325702
0.347973
0.372257
0.398171
0.425386
0.453622
0.482634
0.512188
0.542039
0.57192
0.601524
0.630511
0.658516
0.685166
0.710104
0.733011
0.753621
0.771731
0.787207
0.799977
0.810026
0.817387
0.822135
0.824374
0.824238
0.821877
0.817456
0.811148
0.803133
0.793589
0.782693
0.77062
0.757534
0.743595
0.72895
0.713738
0.698087
0.682112
0.665919
0.649602
0.633247
0.616928
0.600709
0.584648
0.568794
0.553187
0.537863
0.522851
0.508173
0.493848
0.479891
0.466312
0.453119
0.440317
0.427907
0.415891
0.404266
0.39303
0.382179
0.371708
0.361613
0.351887
0.342525
0.333519
0.324864
0.316553
0.30858
0.300939
0.293624
0.286631
0.279953
0.273586
0.267527
0.261769
0.256311
0.251147
0.246275
0.241691
0.237391
0.233371
0.229627
0.226154
0.222947
0.219999
0.217303
0.214852
0.212635
0.210643
0.208865
0.207289
0.205901
0.20469
0.203642
0.202743
0.20198
0.20134
0.200809
0.200376
0.200028
0.199756
0.199548
0.199396
0.199291
0.199225
0.199192
0.199186
0.199201
0.199233
0.199278
0.199333
0.199396
0.199463
0.199534
0.199607
0.199682
0.199758
0.199835
0.199914
0.199994
0.200078
0.200165
0.200258
0.20036
0.200476
0.200612
0.200772
0.20096
0.201182
0.201444
0.201754
0.202119
0.20255
0.203059
0.203659
0.204368
0.205204
0.206192
0.20736
0.20874
0.210375
0.212314
0.214616
0.217354
0.22062
0.224526
0.229212
0.234857
0.241688
0.250003
0.260193
0.272786
0.288505
0.308363
0.333817
0.367016
0.411211
0.471419
0.555475
0.675544
0.850154
1.1059
1.47903
2.00217
2.69414
3.36972
3.20939
0.23599
0.235684
0.235528
0.235567
0.235898
0.236648
0.237977
0.240066
0.243069
0.247048
0.251926
0.257442
0.263138
0.26838
0.272405
0.274393
0.273589
0.271293
0.268231
0.264404
0.259943
0.255128
0.250373
0.246183
0.243087
0.24158
0.242071
0.24486
0.250133
0.25797
0.268357
0.281207
0.296368
0.313639
0.332784
0.35355
0.375684
0.398955
0.42316
0.448122
0.473684
0.499693
0.525987
0.552381
0.578662
0.604589
0.629893
0.654287
0.677481
0.6992
0.719191
0.737239
0.753174
0.766871
0.778251
0.787279
0.793959
0.798329
0.800459
0.800442
0.798395
0.794448
0.788746
0.781441
0.772687
0.762642
0.751463
0.7393
0.7263
0.7126
0.69833
0.68361
0.668553
0.653257
0.637816
0.622311
0.606814
0.59139
0.576094
0.560975
0.546075
0.531428
0.517062
0.503003
0.489268
0.475874
0.462831
0.450147
0.437829
0.425878
0.414297
0.403085
0.392238
0.381756
0.371633
0.361864
0.352445
0.343369
0.334631
0.326225
0.318144
0.310383
0.302935
0.295795
0.288958
0.282417
0.276169
0.270208
0.26453
0.25913
0.254006
0.249153
0.244567
0.240245
0.236183
0.232379
0.228827
0.225524
0.222465
0.219644
0.217056
0.214694
0.212551
0.210616
0.208883
0.207339
0.205975
0.204778
0.203738
0.202842
0.202078
0.201434
0.200898
0.200458
0.200104
0.199825
0.199612
0.199454
0.199345
0.199277
0.199242
0.199235
0.19925
0.199284
0.199332
0.199391
0.199458
0.199531
0.199609
0.199691
0.199776
0.199863
0.199954
0.200048
0.200147
0.200252
0.200365
0.200491
0.200637
0.200807
0.201004
0.201236
0.201507
0.201825
0.202198
0.202637
0.203153
0.203761
0.204476
0.205319
0.206313
0.207486
0.208871
0.210511
0.212453
0.214757
0.217498
0.220765
0.224671
0.229356
0.234998
0.241826
0.250137
0.260322
0.272911
0.288628
0.30849
0.33396
0.367201
0.411482
0.471853
0.55619
0.676682
0.851792
1.10773
1.47947
1.99718
2.6709
3.33596
3.34745
0.241503
0.240699
0.23994
0.239223
0.238569
0.238003
0.23756
0.237288
0.237232
0.237418
0.237831
0.238395
0.238966
0.239338
0.23927
0.238531
0.23699
0.235346
0.233787
0.232421
0.231378
0.230814
0.230907
0.231849
0.233833
0.237048
0.241665
0.247828
0.255649
0.265199
0.276503
0.289537
0.304224
0.320441
0.338032
0.35682
0.376627
0.397288
0.418663
0.440628
0.46308
0.48592
0.509041
0.532323
0.555623
0.578775
0.601588
0.623849
0.645334
0.66581
0.685054
0.702854
0.719024
0.733405
0.745873
0.756336
0.76474
0.771063
0.775315
0.777535
0.77779
0.776166
0.772769
0.76772
0.761149
0.753194
0.743996
0.733696
0.722435
0.710347
0.697562
0.684203
0.670385
0.656213
0.641786
0.627191
0.612508
0.597808
0.583155
0.568604
0.554201
0.539989
0.526002
0.512269
0.498815
0.485659
0.472816
0.460298
0.448115
0.436272
0.424773
0.413619
0.402812
0.392348
0.382226
0.372442
0.362992
0.353871
0.345074
0.336594
0.328427
0.320566
0.313005
0.305739
0.298761
0.292066
0.285648
0.279503
0.273625
0.26801
0.262652
0.257549
0.252697
0.24809
0.243728
0.239606
0.235721
0.232071
0.228652
0.225461
0.222495
0.21975
0.217221
0.214903
0.21279
0.210875
0.209151
0.207609
0.20624
0.205034
0.203981
0.203069
0.202289
0.201627
0.201075
0.200619
0.200251
0.199959
0.199735
0.199568
0.199451
0.199377
0.199338
0.199329
0.199344
0.199378
0.199428
0.199491
0.199563
0.199644
0.199731
0.199823
0.19992
0.200023
0.200131
0.200247
0.200371
0.200507
0.200663
0.200842
0.20105
0.20129
0.201571
0.201898
0.20228
0.202727
0.203251
0.203866
0.204588
0.205438
0.206437
0.207615
0.209006
0.210648
0.212593
0.214899
0.21764
0.220906
0.224808
0.229488
0.235121
0.241938
0.250232
0.260396
0.272955
0.288631
0.308439
0.333836
0.366973
0.411106
0.471251
0.555213
0.675018
0.848748
1.10181
1.46739
1.97354
2.62319
3.27791
3.42423
0.246909
0.245915
0.244951
0.244
0.243062
0.242135
0.241222
0.240328
0.239465
0.238643
0.237862
0.237112
0.236365
0.235582
0.234722
0.233764
0.232756
0.231935
0.231385
0.231201
0.231484
0.232342
0.233888
0.236242
0.239524
0.24385
0.249334
0.256074
0.26415
0.273613
0.284479
0.296723
0.310279
0.325046
0.340893
0.357677
0.375257
0.393503
0.412308
0.431584
0.451261
0.471277
0.491569
0.512064
0.532674
0.553293
0.573793
0.594025
0.613822
0.633001
0.651371
0.668739
0.684918
0.699734
0.713032
0.72468
0.734577
0.742647
0.74885
0.753171
0.755627
0.756261
0.755138
0.752344
0.747981
0.742162
0.735009
0.726652
0.71722
0.706842
0.695646
0.683753
0.671282
0.658341
0.645032
0.63145
0.61768
0.6038
0.58988
0.575982
0.56216
0.54846
0.534924
0.521587
0.508477
0.49562
0.483034
0.470735
0.458737
0.447047
0.435673
0.424619
0.413888
0.403478
0.393391
0.383623
0.374171
0.365032
0.356201
0.347673
0.339443
0.331505
0.323852
0.31648
0.309383
0.302554
0.295987
0.289678
0.28362
0.277809
0.27224
0.266908
0.261809
0.25694
0.252296
0.247876
0.243675
0.239692
0.235925
0.232373
0.229032
0.225902
0.222979
0.220263
0.21775
0.215437
0.213318
0.21139
0.209646
0.20808
0.206682
0.205446
0.204362
0.20342
0.202609
0.201919
0.20134
0.200861
0.200471
0.200161
0.19992
0.19974
0.199613
0.19953
0.199485
0.199472
0.199485
0.19952
0.199573
0.19964
0.199719
0.199808
0.199906
0.200012
0.200126
0.200248
0.200381
0.200526
0.200691
0.200879
0.201096
0.201346
0.201636
0.201972
0.202364
0.20282
0.203352
0.203975
0.204704
0.20556
0.206566
0.207749
0.209143
0.210789
0.212735
0.215042
0.217781
0.221043
0.224939
0.229609
0.235229
0.242026
0.250293
0.260419
0.272925
0.288528
0.308228
0.333467
0.366368
0.410135
0.469694
0.552678
0.670774
0.841423
1.08888
1.44418
1.93351
2.55506
3.196
3.44348
0.251625
0.250568
0.249547
0.248547
0.247562
0.246583
0.245603
0.244621
0.243638
0.24266
0.241694
0.240748
0.239833
0.238961
0.238149
0.237428
0.236868
0.236541
0.236517
0.236871
0.237687
0.239049
0.24105
0.243781
0.247339
0.251817
0.257302
0.26387
0.271581
0.280467
0.290533
0.301747
0.314045
0.327334
0.341498
0.356414
0.371961
0.388033
0.404543
0.421427
0.438637
0.456139
0.473903
0.491893
0.510063
0.528356
0.546696
0.564986
0.583112
0.600938
0.618312
0.635068
0.651032
0.666029
0.679889
0.692456
0.70359
0.713178
0.721129
0.727383
0.731911
0.734708
0.7358
0.735234
0.73308
0.729425
0.724368
0.718021
0.7105
0.701925
0.692418
0.682098
0.671082
0.659481
0.647401
0.634939
0.622188
0.60923
0.596141
0.58299
0.569837
0.556736
0.543732
0.530866
0.518173
0.505681
0.493415
0.481395
0.469637
0.458154
0.446954
0.436045
0.425432
0.415118
0.405102
0.395385
0.385965
0.376838
0.368003
0.359454
0.351186
0.343195
0.335475
0.32802
0.320824
0.313882
0.307188
0.300736
0.29452
0.288535
0.282775
0.277236
0.271914
0.266803
0.261901
0.257204
0.252709
0.248414
0.244318
0.240419
0.236717
0.233211
0.2299
0.226784
0.223864
0.221137
0.218603
0.216261
0.214106
0.212137
0.210348
0.208735
0.20729
0.206006
0.204876
0.203889
0.203036
0.202308
0.201694
0.201183
0.200766
0.200431
0.20017
0.199973
0.199832
0.199739
0.199686
0.199668
0.199679
0.199714
0.19977
0.199842
0.19993
0.20003
0.200143
0.200267
0.200404
0.200555
0.200725
0.200921
0.201146
0.201405
0.201704
0.202049
0.202449
0.202914
0.203455
0.204086
0.204823
0.205686
0.206697
0.207885
0.209284
0.210932
0.21288
0.215185
0.217922
0.221178
0.225065
0.229722
0.235323
0.242093
0.250323
0.260398
0.272831
0.288328
0.307873
0.33288
0.365425
0.408632
0.467282
0.548745
0.664234
0.830317
1.06984
1.41146
1.87961
2.47006
3.09219
3.41155
0.25554
0.254471
0.25345
0.252464
0.251507
0.250567
0.249638
0.248716
0.247799
0.246894
0.246007
0.245154
0.244351
0.243624
0.243003
0.242527
0.242252
0.242213
0.242468
0.243082
0.244126
0.245671
0.247797
0.250582
0.254108
0.258451
0.263684
0.269866
0.277042
0.285232
0.294431
0.304603
0.315685
0.32759
0.340212
0.35344
0.36717
0.381309
0.395784
0.410546
0.425566
0.440829
0.456328
0.472058
0.488007
0.504154
0.520465
0.536891
0.553361
0.569784
0.586048
0.60202
0.61755
0.632474
0.646622
0.659827
0.671926
0.682772
0.692241
0.700229
0.706662
0.711495
0.71471
0.716317
0.716349
0.714863
0.711933
0.707647
0.702107
0.69542
0.687697
0.679053
0.669601
0.659451
0.648711
0.637482
0.625859
0.613931
0.601778
0.589476
0.577089
0.564678
0.552294
0.539984
0.527786
0.515736
0.503861
0.492186
0.480731
0.469512
0.458542
0.44783
0.437384
0.427208
0.417307
0.40768
0.398328
0.38925
0.380442
0.371902
0.363626
0.355609
0.347847
0.340334
0.333064
0.326032
0.319232
0.312658
0.306306
0.300168
0.29424
0.288516
0.282993
0.277664
0.272527
0.267577
0.262812
0.258229
0.253828
0.249605
0.245562
0.241698
0.238013
0.234509
0.231187
0.228048
0.225093
0.222323
0.219738
0.217339
0.215123
0.21309
0.211236
0.209558
0.208048
0.206703
0.205513
0.20447
0.203566
0.202791
0.202134
0.201585
0.201135
0.200771
0.200486
0.200268
0.200111
0.200005
0.199943
0.19992
0.199928
0.199964
0.200024
0.200105
0.200204
0.20032
0.200453
0.200604
0.200775
0.200974
0.201204
0.201469
0.201774
0.202128
0.202536
0.203009
0.203558
0.204197
0.204942
0.205812
0.206829
0.208023
0.209425
0.211076
0.213025
0.215329
0.218061
0.221311
0.225186
0.229826
0.235404
0.242142
0.250326
0.260336
0.272678
0.288041
0.307389
0.332099
0.364183
0.406658
0.464119
0.543599
0.655714
0.816001
1.04569
1.37095
1.81449
2.37146
2.96949
3.33614
0.258696
0.257638
0.256634
0.25568
0.254766
0.253885
0.253027
0.25219
0.251373
0.250579
0.249816
0.249098
0.248443
0.247875
0.247426
0.247131
0.247035
0.247162
0.247565
0.248301
0.249431
0.251018
0.253132
0.255842
0.259216
0.263321
0.268217
0.273951
0.280556
0.288044
0.296402
0.305593
0.315553
0.326201
0.337438
0.349164
0.361281
0.373709
0.386384
0.399267
0.412341
0.425606
0.439073
0.452759
0.466678
0.48084
0.495244
0.509877
0.524708
0.539686
0.554739
0.56977
0.584658
0.599262
0.613425
0.626978
0.639751
0.651577
0.662302
0.671791
0.679932
0.686637
0.691849
0.695538
0.697701
0.698362
0.697565
0.695374
0.691868
0.687139
0.681286
0.674413
0.666628
0.65804
0.648753
0.63887
0.62849
0.617704
0.606598
0.595251
0.583735
0.572114
0.560446
0.548783
0.537168
0.525641
0.514235
0.502979
0.491897
0.481007
0.470328
0.459871
0.449646
0.439661
0.429921
0.420429
0.411186
0.402194
0.393451
0.384955
0.376702
0.368689
0.360913
0.353368
0.34605
0.338952
0.33207
0.325398
0.318931
0.312663
0.306589
0.300703
0.295001
0.289478
0.284129
0.278952
0.273942
0.269097
0.264415
0.259895
0.255537
0.251339
0.247304
0.243433
0.239727
0.236189
0.232822
0.229628
0.226609
0.22377
0.22111
0.218632
0.216336
0.214221
0.212286
0.210527
0.208941
0.207521
0.206261
0.205154
0.20419
0.203361
0.202655
0.202063
0.201574
0.201178
0.200865
0.200624
0.200449
0.200329
0.200258
0.200228
0.200236
0.200275
0.200342
0.200435
0.200551
0.20069
0.200854
0.201048
0.201277
0.201543
0.201853
0.202211
0.202625
0.203105
0.203662
0.204308
0.20506
0.205936
0.20696
0.208159
0.209565
0.211218
0.213167
0.21547
0.218197
0.221438
0.225301
0.229921
0.235472
0.242171
0.250302
0.260236
0.272469
0.287675
0.30679
0.331144
0.362678
0.404278
0.460316
0.53743
0.645554
0.799075
1.01747
1.32441
1.7408
2.26242
2.83154
3.22544
0.261185
0.260146
0.259164
0.25824
0.257367
0.256536
0.25574
0.254976
0.254243
0.253543
0.252885
0.252278
0.251741
0.251294
0.250965
0.250787
0.250792
0.251007
0.251476
0.252252
0.253388
0.254942
0.256973
0.259544
0.262714
0.266541
0.271073
0.27635
0.282395
0.289213
0.296788
0.305079
0.314025
0.323546
0.33355
0.343942
0.354633
0.365547
0.376629
0.387846
0.399189
0.410668
0.422309
0.434143
0.446206
0.45853
0.47114
0.484052
0.497269
0.510774
0.524532
0.538482
0.552539
0.566589
0.580498
0.594109
0.607255
0.619762
0.63146
0.642186
0.651799
0.660176
0.66722
0.672865
0.677071
0.679824
0.681137
0.681047
0.679607
0.676889
0.672976
0.66796
0.661939
0.655016
0.647292
0.63887
0.629847
0.620319
0.610374
0.600096
0.589559
0.578835
0.567985
0.557067
0.546129
0.535215
0.524364
0.513607
0.502974
0.492487
0.482166
0.472028
0.462084
0.452346
0.44282
0.433512
0.424426