/*--------------------------------*- C++ -*----------------------------------*\
| =========                 |                                                 |
| \\      /  F ield         | OpenFOAM: The Open Source CFD Toolbox           |
|  \\    /   O peration     | Version:  2.4.0                                 |
|   \\  /    A nd           | Web:      www.OpenFOAM.org                      |
|    \\/     M anipulation  |                                                 |
\*---------------------------------------------------------------------------*/
FoamFile
{
    version     2.0;
    format      ascii;
    class       volScalarField;
    location    "0.292";
    object      k_0;
}
// * * * * * * * * * * * * * * * * * * * * * * * * * * * * * * * * * * * * * //

dimensions      [0 2 -2 0 0 0 0];

internalField   nonuniform List<scalar> 
17600
(
9.28827
7.41552
5.12174
3.9296
3.34859
2.94605
2.70255
2.47372
2.3386
2.21684
2.11996
2.08512
1.97512
2.02326
1.92246
2.02043
2.09906
2.05227
2.78818
3.27511
4.50451
6.21285
5.84227
5.04129
4.43049
3.91717
3.61101
3.31115
3.12098
2.96062
2.80925
2.75626
2.598
2.62898
2.49348
2.55703
2.58758
2.46143
3.08032
3.09326
1.31866
3.29096
3.99693
3.95448
3.77778
3.44619
3.23567
3.00995
2.84546
2.72244
2.57334
2.52881
2.38344
2.3907
2.27741
2.2839
2.2827
2.1639
2.35781
2.29491
0.206927
1.19839
1.9308
2.31162
2.52166
2.51049
2.47407
2.39731
2.30241
2.24808
2.13924
2.11454
2.0121
2.0068
1.93469
1.90451
1.8732
1.83924
1.72657
1.68101
0.0259374
0.268323
0.653727
0.946921
1.25032
1.42618
1.53495
1.60561
1.61138
1.62475
1.60004
1.6006
1.55939
1.55116
1.53133
1.48732
1.43614
1.45019
1.29757
1.24248
0.00273518
0.0444496
0.154465
0.251679
0.41663
0.575373
0.689155
0.820405
0.889625
0.96335
0.994989
1.04365
1.04938
1.05041
1.07438
1.05109
1.01088
1.01665
0.913155
0.876671
0.000279856
0.00645726
0.0263226
0.04786
0.0845207
0.162083
0.20482
0.286348
0.349948
0.408844
0.465892
0.520014
0.565001
0.571929
0.625948
0.614708
0.611266
0.601575
0.529711
0.494802
5.07048e-05
0.000915583
0.00378222
0.0070026
0.0126614
0.0292713
0.0411437
0.0643966
0.0943032
0.113426
0.14792
0.179305
0.216835
0.222858
0.267103
0.266435
0.277135
0.267174
0.216176
0.184819
2.96887e-05
0.000160502
0.000619847
0.00101763
0.00165464
0.0037701
0.00581098
0.00937197
0.0166918
0.0217339
0.0289231
0.0415079
0.0557842
0.0575689
0.0739688
0.0766864
0.084663
0.0805405
0.0606866
0.0523021
2.42434e-05
4.90657e-05
0.000154915
0.000252269
0.000306319
0.000504474
0.000763428
0.00110747
0.00203874
0.00316574
0.00388876
0.00605981
0.00976371
0.00986851
0.0131232
0.0141736
0.0163209
0.0155059
0.0111323
0.00987599
2.25643e-05
3.32991e-05
8.98431e-05
0.000125404
0.000133481
0.000181734
0.000194813
0.000218875
0.000347863
0.000465643
0.000531459
0.000858842
0.0013842
0.00134718
0.00190982
0.00202932
0.00219631
0.00212156
0.00154093
0.00119297
2.31569e-05
3.1189e-05
5.85651e-05
6.25457e-05
8.69978e-05
0.000113628
0.000108503
0.000129853
0.000142187
0.000147855
0.000179534
0.000252171
0.000281442
0.000287039
0.000374517
0.000404411
0.000400877
0.000384661
0.000285683
0.000251833
2.33891e-05
4.3704e-05
5.2256e-05
5.16117e-05
6.88622e-05
7.81274e-05
8.10704e-05
9.07648e-05
8.84156e-05
8.99021e-05
0.000111105
0.000121832
0.000137027
0.000136444
0.000137086
0.00016272
0.000171167
0.000167856
0.000153636
0.000171244
2.25101e-05
4.32394e-05
4.51078e-05
4.94421e-05
5.04636e-05
5.75292e-05
7.70481e-05
7.34085e-05
7.235e-05
7.56352e-05
7.85595e-05
8.71014e-05
0.000113353
0.000103194
0.00010193
0.000112408
0.000128277
0.000125672
0.000130892
0.000197257
2.09801e-05
2.71547e-05
4.10588e-05
4.66232e-05
4.7035e-05
5.52164e-05
6.18311e-05
6.14349e-05
6.54135e-05
6.51501e-05
6.50687e-05
7.25376e-05
8.01334e-05
7.54907e-05
7.75444e-05
7.80206e-05
8.47304e-05
9.45724e-05
0.000125111
0.000140886
2.07058e-05
2.57482e-05
4.11504e-05
4.38495e-05
4.3178e-05
4.65505e-05
4.85886e-05
5.65416e-05
5.92903e-05
5.65041e-05
5.62493e-05
6.06116e-05
6.25167e-05
6.82481e-05
6.78581e-05
6.62192e-05
6.68423e-05
8.44936e-05
0.000102541
9.8685e-05
2.09382e-05
2.62539e-05
3.73283e-05
4.29441e-05
4.29744e-05
4.29253e-05
4.39272e-05
5.18404e-05
5.19063e-05
5.05403e-05
5.05005e-05
5.0674e-05
5.52088e-05
6.38434e-05
6.32989e-05
6.09918e-05
6.22185e-05
7.4813e-05
7.55044e-05
8.35923e-05
2.06888e-05
2.56576e-05
3.38487e-05
4.17021e-05
4.16568e-05
4.16424e-05
4.41619e-05
4.49259e-05
4.67562e-05
4.96958e-05
4.87184e-05
4.92677e-05
5.59597e-05
5.75829e-05
5.85896e-05
5.79565e-05
6.14157e-05
6.21892e-05
6.26898e-05
8.14416e-05
2.06266e-05
2.50167e-05
3.33815e-05
3.80413e-05
3.94694e-05
3.94981e-05
4.05945e-05
4.26707e-05
4.76979e-05
4.77627e-05
4.75545e-05
4.72274e-05
5.01857e-05
5.13543e-05
5.20299e-05
5.35616e-05
5.36204e-05
5.36787e-05
5.64694e-05
7.57468e-05
2.07729e-05
2.47792e-05
2.99208e-05
3.90434e-05
4.028e-05
4.13497e-05
4.12202e-05
4.18042e-05
4.41174e-05
4.50436e-05
4.46933e-05
4.44951e-05
4.47613e-05
4.55759e-05
4.86403e-05
5.03165e-05
4.91445e-05
4.92184e-05
5.40492e-05
6.43295e-05
2.06649e-05
2.4493e-05
3.37609e-05
4.21051e-05
4.0716e-05
3.95441e-05
3.99562e-05
4.11761e-05
4.28631e-05
4.40606e-05
4.38115e-05
4.36544e-05
4.4026e-05
4.48444e-05
4.73117e-05
4.75164e-05
4.73948e-05
4.78686e-05
5.23746e-05
5.46693e-05
2.07072e-05
2.44956e-05
3.78798e-05
3.9797e-05
3.77246e-05
3.81933e-05
3.89543e-05
4.14288e-05
4.38416e-05
4.44553e-05
4.5292e-05
4.54586e-05
4.56988e-05
4.54104e-05
4.55244e-05
4.58421e-05
4.65971e-05
4.83815e-05
5.10471e-05
5.40131e-05
2.07245e-05
2.69201e-05
3.61102e-05
3.5979e-05
3.57087e-05
3.8333e-05
3.99419e-05
4.40253e-05
4.57444e-05
4.81576e-05
4.78905e-05
4.67863e-05
4.5009e-05
4.45781e-05
4.53365e-05
4.78448e-05
4.90288e-05
5.22537e-05
5.29809e-05
5.64977e-05
2.08597e-05
2.61201e-05
3.28326e-05
3.57516e-05
4.06311e-05
4.19421e-05
4.53434e-05
4.80779e-05
4.98578e-05
4.94531e-05
4.7601e-05
4.54126e-05
4.56889e-05
4.87305e-05
5.16068e-05
5.4514e-05
5.49398e-05
5.64977e-05
5.79806e-05
6.79479e-05
2.09707e-05
2.57325e-05
3.50123e-05
4.11695e-05
4.24537e-05
4.75573e-05
5.06677e-05
5.1372e-05
5.01601e-05
4.89407e-05
4.79838e-05
4.86485e-05
5.60438e-05
6.02117e-05
6.10473e-05
6.04037e-05
6.03615e-05
6.14021e-05
6.63578e-05
9.92797e-05
2.12759e-05
2.71569e-05
3.89553e-05
4.24069e-05
4.62153e-05
5.28437e-05
5.26313e-05
5.26419e-05
5.23476e-05
5.39188e-05
5.64988e-05
6.6623e-05
6.99232e-05
6.81818e-05
6.79812e-05
6.69279e-05
6.82871e-05
7.6129e-05
9.82121e-05
0.000176546
2.15881e-05
2.90868e-05
3.84293e-05
4.70348e-05
5.44124e-05
5.56731e-05
5.54815e-05
5.64834e-05
6.26118e-05
7.19256e-05
7.79273e-05
7.99936e-05
7.72046e-05
7.42412e-05
7.43548e-05
7.73432e-05
9.18324e-05
0.000131861
0.00023479
0.000612156
2.17919e-05
2.94888e-05
4.21334e-05
5.83001e-05
6.07477e-05
6.09302e-05
6.16032e-05
7.07711e-05
8.53491e-05
9.25034e-05
9.36378e-05
9.12292e-05
8.82817e-05
9.06843e-05
0.000100988
0.000139157
0.000234464
0.000461176
0.00102658
0.003177
2.29662e-05
3.08728e-05
5.46446e-05
6.32857e-05
6.74587e-05
7.11059e-05
8.16248e-05
0.000107807
0.000122379
0.000131589
0.000138138
0.000149311
0.000172436
0.000228976
0.000353923
0.000688292
0.00127229
0.00264881
0.00561656
0.0173341
2.31015e-05
3.40429e-05
7.07146e-05
7.85109e-05
9.69745e-05
0.000130714
0.000165392
0.000251892
0.000304056
0.00042274
0.000533951
0.000783947
0.00107996
0.00176731
0.00271712
0.00513935
0.00821285
0.0156775
0.0272187
0.070335
2.42404e-05
4.86956e-05
0.000127209
0.000170413
0.000285922
0.000511033
0.000736355
0.00142106
0.00191134
0.00317198
0.00428408
0.00679772
0.00898035
0.013981
0.0189085
0.0311433
0.0427931
0.0707925
0.102691
0.211112
2.78548e-05
0.000144363
0.000479585
0.000850473
0.00180595
0.00372063
0.00555871
0.0111024
0.0150195
0.0238078
0.0306165
0.0446608
0.0544122
0.0753874
0.0923799
0.131017
0.160531
0.227019
0.288971
0.46963
4.97164e-05
0.000867916
0.00311256
0.00628639
0.0148121
0.0273567
0.0397178
0.0701056
0.0903782
0.120427
0.15112
0.188904
0.218303
0.266465
0.306396
0.375125
0.422575
0.520759
0.600281
0.792093
0.000282973
0.00633242
0.0229513
0.0449363
0.0991089
0.147476
0.208835
0.294881
0.353456
0.409992
0.480461
0.530329
0.585297
0.636459
0.690937
0.753094
0.80471
0.893489
0.966175
1.1179
0.00275624
0.0442238
0.142651
0.251972
0.435162
0.560259
0.704114
0.821077
0.902227
0.957798
1.02283
1.04724
1.09014
1.1101
1.14987
1.17538
1.21735
1.26215
1.32241
1.39466
0.0260982
0.269278
0.639335
0.955469
1.26132
1.4168
1.55016
1.59919
1.62812
1.62109
1.62315
1.6033
1.60278
1.58516
1.58906
1.57924
1.59086
1.59089
1.60905
1.60203
0.208154
1.19499
1.92321
2.32269
2.52353
2.51064
2.47941
2.38661
2.32786
2.2223
2.17723
2.08795
2.06085
1.99106
1.97055
1.91109
1.89334
1.83033
1.78963
1.70113
1.32479
3.28095
3.99648
3.96047
3.77442
3.45158
3.23986
2.9907
2.86597
2.68736
2.60158
2.46852
2.41735
2.30079
2.25413
2.13822
2.07924
1.93352
1.83478
1.65358
4.50724
6.2025
5.84372
5.04973
4.42007
3.92326
3.60994
3.28655
3.13032
2.91585
2.81196
2.65526
2.58608
2.4344
2.36061
2.18908
2.08479
1.85194
1.67818
1.39592
9.28875
7.4058
5.12867
3.93223
3.33871
2.94547
2.69987
2.45051
2.3297
2.1713
2.09318
1.96786
1.90424
1.77008
1.68976
1.51625
1.39296
1.15438
0.962591
0.690859
1.87215
1.18264
0.874405
0.991006
1.03477
0.940166
0.650229
0.372005
0.188359
0.0899937
0.0566437
0.0325016
0.0274904
0.0264204
0.0241364
0.0425001
0.0835896
0.168252
0.420215
0.419986
0.315803
0.202885
0.139811
0.0974927
0.0787024
0.0726794
0.0700706
0.0692274
0.0647143
0.0571647
0.0549562
0.0530933
0.0500073
0.049452
0.0502388
0.056622
0.0668525
0.071071
0.0755685
0.0869526
0.0931861
0.0894215
0.0658677
0.0572743
0.0687181
0.129186
0.184449
0.228195
0.271125
0.28298
0.277129
0.249661
0.185442
0.126302
0.0985865
0.0927638
0.0923238
0.0873176
0.0740777
0.0648293
0.0577645
0.0524056
0.0486876
0.0449702
0.0436878
0.0439702
0.0453199
0.0472918
0.0496981
0.0565157
0.0639448
0.0649855
0.0638003
0.0594097
0.0496118
0.0384981
0.0296882
0.0247193
0.0242467
0.02453
0.0242138
0.0217444
0.020427
0.018468
0.0142466
0.0112321
0.0102885
0.0105777
0.0150193
0.0195159
0.0199445
0.0203253
0.0201862
0.0200237
0.020272
0.0228519
0.0274233
0.031216
0.0386162
0.0508928
0.0606766
0.063565
0.0629783
0.0614395
0.0579174
0.0489782
0.0412515
0.0331341
0.0258558
0.0242086
0.0246644
0.0257378
0.0275891
0.0321251
0.0467703
0.0605195
0.065778
0.0649837
0.0583027
0.0563616
0.0580043
0.0671169
0.0744444
0.0763389
0.0756769
0.0714108
0.0605081
0.0459761
0.0331854
0.0231649
0.0172019
0.0151986
0.0152604
0.0168371
0.017345
0.017292
0.0182542
0.0217614
0.024553
0.027628
0.0299996
0.0313959
0.0318772
0.031758
0.032412
0.0373727
0.0432826
0.0438198
0.0447318
0.0525418
0.075237
0.0863908
0.0865322
0.0709089
0.049677
0.0438949
0.0439418
0.0431066
0.0397679
0.0337086
0.0319517
0.0300804
0.0294513
0.0300304
0.0329853
0.0333163
0.0321326
0.029319
0.0277178
0.0275449
0.028164
0.0306425
0.0398551
0.0628582
0.0687498
0.0628716
0.0509336
0.0523721
0.0614407
0.0670934
0.071066
0.0909839
0.101304
0.106472
0.0947234
0.0646513
0.0562641
0.0668849
0.0809747
0.082266
0.0753613
0.0660179
0.056011
0.0461943
0.0428633
0.0454522
0.0488671
0.0520338
0.0990191
1.11282
2.49622
1.8417
1.47324
1.3557
1.15321
0.831056
0.482115
0.249478
0.114751
0.0475901
0.0276928
0.0200125
0.0192812
0.0222171
0.0195712
0.0222417
0.0407867
0.130724
0.384919
0.408115
0.345856
0.225649
0.151027
0.104728
0.0864683
0.0781882
0.0712465
0.0693936
0.0643757
0.0604464
0.0586762
0.0543398
0.0506966
0.0504362
0.0514971
0.0613936
0.07272
0.0770382
0.0832429
0.0955066
0.0964529
0.0861374
0.0567395
0.0562193
0.0807666
0.156283
0.205262
0.252579
0.285592
0.286116
0.269542
0.215111
0.13148
0.0966455
0.0843035
0.0806369
0.0805969
0.0791978
0.0686242
0.059484
0.0515942
0.046676
0.0434808
0.0404751
0.0397696
0.0401877
0.0418055
0.0434944
0.0452032
0.0489792
0.0578709
0.0627332
0.0632771
0.0614461
0.055889
0.0433736
0.0330293
0.0262386
0.0250949
0.0252238
0.0244892
0.0218362
0.0210665
0.0198749
0.0156668
0.0119311
0.010673
0.010873
0.0147931
0.0187263
0.0189484
0.0194375
0.0194162
0.0193915
0.0194548
0.0219174
0.0284498
0.03165
0.0357166
0.046262
0.0593346
0.0646519
0.0644551
0.0632275
0.0609178
0.0530108
0.0452105
0.0369899
0.0289474
0.0267658
0.0270412
0.0279181
0.0298258
0.0351069
0.050312
0.0628784
0.0672915
0.0654379
0.058431
0.0571503
0.0603032
0.0717861
0.0786187
0.0798121
0.0782464
0.0711526
0.0581678
0.0438162
0.0311441
0.021947
0.0162232
0.0141424
0.0141704
0.0163322
0.0173677
0.0172864
0.0175423
0.0195665
0.0229031
0.0268243
0.0295402
0.0309991
0.0313514
0.0313754
0.0326532
0.0387757
0.0435928
0.0434243
0.0448723
0.0539559
0.0737777
0.0843556
0.0848114
0.0708491
0.0490824
0.0424113
0.0427073
0.0432626
0.0415386
0.0358099
0.0337466
0.031291
0.0299786
0.0305531
0.0348987
0.0359932
0.0342031
0.030355
0.0280886
0.0277722
0.028664
0.0320023
0.0470651
0.065552
0.0671476
0.0554725
0.0434473
0.0433104
0.0523612
0.0618569
0.0680903
0.0919397
0.106697
0.108951
0.0973488
0.0651043
0.0552867
0.0566847
0.0769845
0.0849229
0.0807174
0.0694068
0.057857
0.0468296
0.0435261
0.0453406
0.0525816
0.0569594
0.108302
0.810991
1.96853
1.5864
1.4075
1.19228
0.891514
0.584755
0.306439
0.138437
0.0561242
0.0243075
0.0134767
0.0125058
0.0117579
0.0164689
0.0167888
0.0168817
0.0234099
0.0861677
0.319454
0.376066
0.345718
0.248033
0.162945
0.115881
0.095191
0.0820011
0.0725902
0.0706084
0.0676987
0.0648013
0.0605688
0.0549905
0.0514477
0.0513964
0.0531963
0.0685118
0.0790644
0.0838113
0.0938788
0.100636
0.0977018
0.0739601
0.0527044
0.0561947
0.105173
0.177434
0.22386
0.273443
0.292391
0.28624
0.246518
0.155879
0.100249
0.0797368
0.0728726
0.0742056
0.0762036
0.0742374
0.0635252
0.0540355
0.0461931
0.0406683
0.0378822
0.0355044
0.035164
0.0357373
0.0382622
0.0402618
0.041745
0.0445054
0.0512861
0.0590642
0.062289
0.0616373
0.0587745
0.0488645
0.0359592
0.0277997
0.0261415
0.0259026
0.0243827
0.0223207
0.0222612
0.0214154
0.0167955
0.0126078
0.0113015
0.0114577
0.0146892
0.0177371
0.0177835
0.0181057
0.0183292
0.0183882
0.0183611
0.0199617
0.0278668
0.0322966
0.0349521
0.0408712
0.0565658
0.0643761
0.0651253
0.0646526
0.0632499
0.0573607
0.0492448
0.0410797
0.0323798
0.0295173
0.0296233
0.0303567
0.0323968
0.0386495
0.053849
0.0654415
0.0687239
0.0658133
0.0587516
0.058103
0.0636714
0.0769854
0.0831944
0.083606
0.0799083
0.0684454
0.0554844
0.0408012
0.0284568
0.0201438
0.0151801
0.0132556
0.0132035
0.0154411
0.0172777
0.0173698
0.0173881
0.0181418
0.021219
0.0253153
0.0283398
0.0298777
0.0304159
0.0311001
0.0337635
0.0403412
0.0438109
0.0431018
0.0456051
0.0554881
0.0718161
0.0821178
0.0828487
0.0719891
0.0493062
0.0412728
0.0411233
0.0430086
0.0422463
0.038255
0.0349561
0.0323242
0.031255
0.0332236
0.0375828
0.0381168
0.0343099
0.0299987
0.0278569
0.0280805
0.0301745
0.0346439
0.0527646
0.066256
0.0649833
0.0521927
0.0433708
0.042573
0.0467807
0.0567315
0.0650992
0.0910557
0.113361
0.11477
0.098936
0.065409
0.0586643
0.0540127
0.0656784
0.0869604
0.0866644
0.0741728
0.0599229
0.0484731
0.0441859
0.0452247
0.0546276
0.0577078
0.12007
0.575806
1.45473
1.22115
1.06946
0.835107
0.630566
0.3606
0.150699
0.0663066
0.0259464
0.0133297
0.00782447
0.00900262
0.00787549
0.011441
0.0155641
0.0151137
0.0179154
0.0410651
0.188524
0.328038
0.330489
0.273157
0.187127
0.138908
0.109235
0.0879348
0.0779501
0.0761827
0.0700711
0.0671618
0.0622528
0.0558804
0.0526415
0.0528917
0.0574003
0.0775474
0.0853831
0.0920093
0.103408
0.104282
0.0954493
0.0599685
0.0482952
0.0605238
0.133194
0.197466
0.248266
0.289398
0.294843
0.275399
0.202556
0.112792
0.0754571
0.0670005
0.0657945
0.0709533
0.0746612
0.0719181
0.0596427
0.0505854
0.0436737
0.0371064
0.0344057
0.0326994
0.0322917
0.0326288
0.034341
0.0371477
0.0388053
0.0410702
0.0455754
0.0553039
0.060609
0.0611923
0.0599445
0.0536026
0.0398622
0.0299817
0.0269665
0.0264015
0.0243987
0.0230576
0.0232673
0.0224369
0.0177494
0.0134192
0.0120464
0.0121186
0.0145773
0.0167119
0.0165722
0.0166146
0.0169709
0.0171396
0.0171038
0.0179121
0.0258512
0.0333303
0.0352724
0.0387079
0.0511421
0.0630719
0.0651077
0.0652163
0.0645982
0.061044
0.0534093
0.0454373
0.0359776
0.0324579
0.0324274
0.0331437
0.0355703
0.0427998
0.0572623
0.0677102
0.070037
0.0657358
0.0592505
0.059255
0.0681593
0.0825376
0.0878557
0.0875167
0.0804543
0.0654068
0.0516482
0.0374974
0.0259127
0.0187309
0.0145711
0.0127577
0.0126182
0.0143853
0.0168084
0.0173852
0.0174355
0.0178029
0.0201879
0.0241749
0.0272277
0.0287528
0.0296708
0.0313632
0.0348475
0.0410987
0.043871
0.0428113
0.0466355
0.0568732
0.0705048
0.0794827
0.0803899
0.0727203
0.0504893
0.0408472
0.0392467
0.041948
0.0420801
0.0393442
0.0351749
0.0326943
0.0328364
0.0366923
0.0393119
0.03879
0.032754
0.0288508
0.0278404
0.0295928
0.0325459
0.0376808
0.0567925
0.064762
0.0614179
0.05054
0.046345
0.045759
0.0466653
0.0525186
0.0620732
0.0896077
0.119156
0.121432
0.0994313
0.0686948
0.0590941
0.0543631
0.0582472
0.0855114
0.0898517
0.0810802
0.065453
0.0505329
0.0449624
0.0456224
0.0563381
0.0608208
0.119866
0.406028
1.05085
0.861464
0.686518
0.553725
0.337571
0.156276
0.0672405
0.0312389
0.0115917
0.00881773
0.00610215
0.00685122
0.00602573
0.00671624
0.0140028
0.014836
0.0179719
0.0318986
0.114038
0.298382
0.318924
0.294077
0.221181
0.167915
0.12965
0.100138
0.0898014
0.0823238
0.072121
0.069035
0.0658291
0.0586799
0.0558732
0.0564838
0.0667604
0.0850017
0.092107
0.103416
0.109112
0.105712
0.0817774
0.0466191
0.0465739
0.0738944
0.166831
0.216825
0.265642
0.296719
0.294175
0.251798
0.143787
0.0870259
0.0639331
0.0579677
0.0589356
0.0699021
0.0744513
0.0696696
0.0560516
0.0461967
0.0402606
0.0339285
0.0306023
0.0301692
0.0302957
0.0306551
0.0315213
0.0339515
0.0361507
0.0384235
0.0418467
0.0507683
0.0589051
0.0609523
0.0606562
0.0566955
0.0432505
0.0318987
0.0284361
0.027568
0.0246985
0.023496
0.0238773
0.0230685
0.0184599
0.0140466
0.0125607
0.0125242
0.0142093
0.0156907
0.0155095
0.0151987
0.0153877
0.0156334
0.0156075
0.0160187
0.0226166
0.0333091
0.0361117
0.0383723
0.0455469
0.0600934
0.0644888
0.0652605
0.064988
0.0632479
0.0579828
0.0497051
0.0393983
0.0355303
0.035483
0.0364253
0.0393764
0.0471276
0.0606165
0.0699958
0.071319
0.0655041
0.0598681
0.0607204
0.0736286
0.088661
0.0927936
0.0912153
0.0782411
0.0612842
0.0475986
0.0342152
0.0235015
0.0170495
0.013818
0.0124503
0.0122308
0.013466
0.0160406
0.0171139
0.0173823
0.0178565
0.0201631
0.0237827
0.0261684
0.0275483
0.0292888
0.0321963
0.0362253
0.0418314
0.0434683
0.0426324
0.0480248
0.0572862
0.0688714
0.076971
0.0779289
0.0724512
0.0523973
0.0408116
0.0374865
0.0387944
0.0399056
0.0388307
0.034935
0.0325995
0.0333951
0.0384396
0.0397979
0.0380909
0.0311993
0.0280751
0.0281261
0.0316368
0.0338077
0.0405898
0.0583831
0.0630555
0.0582184
0.050389
0.0498731
0.0509055
0.050032
0.0518726
0.060409
0.0893828
0.119995
0.12537
0.100504
0.0724295
0.0587562
0.055535
0.062125
0.0817401
0.0935898
0.088093
0.0704123
0.0541555
0.0473335
0.0460762
0.059112
0.0617478
0.115089
0.30206
0.739141
0.578549
0.457096
0.293903
0.152447
0.0666202
0.0291042
0.0142047
0.00559139
0.00693899
0.00591124
0.00603433
0.00586767
0.00526889
0.00976117
0.013259
0.0156721
0.0275705
0.094384
0.278093
0.313172
0.30286
0.263321
0.207454
0.161291
0.123093
0.105975
0.0886722
0.0753735
0.0727944
0.0709437
0.0633818
0.0608696
0.0621938
0.0779654
0.0914267
0.1021
0.112378
0.111831
0.101636
0.0597489
0.0396392
0.0448169
0.103234
0.189441
0.233741
0.282484
0.299736
0.285771
0.207509
0.106037
0.0668718
0.0536381
0.0517898
0.0554232
0.0712589
0.0757587
0.0681643
0.0545585
0.0438358
0.0376034
0.032091
0.0289861
0.028757
0.0292481
0.0296843
0.0302167
0.0317646
0.0338432
0.0361081
0.0389811
0.0468552
0.0564996
0.0605886
0.0607847
0.0582793
0.0466396
0.0340198
0.0300025
0.0282969
0.0249952
0.0241613
0.0247969
0.0239251
0.0189926
0.014501
0.0128324
0.0126387
0.0137202
0.0148815
0.0147798
0.0140087
0.0141007
0.0144517
0.0143816
0.0146053
0.0186878
0.0319798
0.0362353
0.0384127
0.042795
0.0549818
0.0624539
0.0649242
0.0648539
0.0638296
0.061358
0.0546785
0.0430065
0.0392106
0.0392928
0.0404801
0.0435864
0.0509718
0.0637631
0.0718915
0.0723616
0.064975
0.060499
0.0626416
0.0802283
0.0951101
0.0978075
0.0938823
0.0743705
0.0569246
0.0440394
0.031589
0.0218172
0.0160444
0.0134462
0.0123377
0.0121174
0.0130368
0.0152201
0.016494
0.0171153
0.0179887
0.0204704
0.0232308
0.024716
0.0267973
0.0293305
0.0335826
0.0375305
0.0423335
0.0429536
0.0426191
0.0497171
0.0575187
0.0670705
0.0747576
0.0757463
0.071756
0.0540857
0.0410547
0.0361204
0.0362462
0.0369956
0.0367658
0.0338003
0.0318664
0.0333076
0.0386838
0.0396086
0.0370036
0.030032
0.0277341
0.0294426
0.0329794
0.0345682
0.0442864
0.0590176
0.061174
0.0555381
0.0511372
0.0517409
0.055107
0.0540954
0.0539249
0.0599624
0.0897541
0.118423
0.127913
0.104608
0.0751054
0.0645988
0.0585152
0.0864397
0.0865084
0.0990894
0.0953289
0.081371
0.0582972
0.0502182
0.047136
0.0653738
0.0647708
0.104254
0.232369
0.413419
0.326231
0.223974
0.122424
0.0581978
0.0261116
0.011935
0.00628899
0.00313982
0.00580802
0.00582637
0.00531387
0.0067117
0.00547538
0.00720225
0.0100472
0.0106098
0.0179014
0.0650737
0.227203
0.295787
0.297896
0.283523
0.245253
0.189554
0.147208
0.124345
0.099081
0.0844547
0.0819952
0.0791341
0.0712609
0.0694843
0.0725592
0.0877549
0.0991523
0.114076
0.116872
0.112565
0.0854296
0.0403456
0.0348599
0.0508973
0.138733
0.210719
0.251277
0.29326
0.300106
0.268075
0.153228
0.0803559
0.0578846
0.0497152
0.0478767
0.0542298
0.0760003
0.0791332
0.0677086
0.0531295
0.0423368
0.0351158
0.0299842
0.027686
0.0277321
0.028878
0.0295636
0.0299674
0.0310885
0.0325053
0.0343405
0.0368171
0.0435863
0.054174
0.0603257
0.0612858
0.0594949
0.0488544
0.0351127
0.0315032
0.0287055
0.0252034
0.0246733
0.0256614
0.0247479
0.0194037
0.0148682
0.0129937
0.012621
0.0132827
0.0144623
0.014399
0.01312
0.0130721
0.0137022
0.0136132
0.0137204
0.015827
0.0279899
0.0354737
0.0382527
0.0419874
0.0514501
0.0594977
0.063833
0.0642292
0.0636673
0.0625524
0.0590598
0.0472001
0.0435815
0.0436996
0.044814
0.0475494
0.0547854
0.0669706
0.073581
0.0731549
0.0644437
0.0612245
0.0653847
0.0879713
0.101824
0.102921
0.0950014
0.0697618
0.0535156
0.0417857
0.0297629
0.0205199
0.0155143
0.0133313
0.0123238
0.0121145
0.0129489
0.0150191
0.0162097
0.0170015
0.0183732
0.0202776
0.0220294
0.0234963
0.0268541
0.0302896
0.0353594
0.0386263
0.0423326
0.042333
0.0429181
0.0513193
0.0572248
0.0661278
0.0729899
0.0737513
0.0712502
0.0548558
0.0414527
0.0356535
0.0350297
0.035395
0.0353194
0.0326576
0.0312713
0.0332417
0.0385572
0.0394868
0.0361968
0.0293928
0.027929
0.0310862
0.0334965
0.0350552
0.0477033
0.0592878
0.0598993
0.0546173
0.052351
0.0535331
0.0584713
0.0575157
0.056574
0.0593278
0.0902871
0.118002
0.128196
0.109977
0.0778525
0.0737673
0.0668032
0.103689
0.0996512
0.117693
0.10666
0.0941101
0.0651132
0.0600268
0.0506483
0.0736269
0.067575
0.0900812
0.180391
0.141009
0.102683
0.0667896
0.036989
0.0183069
0.00984063
0.00494243
0.00271627
0.00208354
0.00393884
0.00515869
0.00433338
0.00690708
0.00589274
0.00587768
0.00774979
0.0082266
0.0118587
0.0341217
0.108992
0.240436
0.280712
0.277244
0.258836
0.208637
0.167137
0.138268
0.108437
0.092725
0.0893734
0.0872762
0.0788533
0.0770113
0.0812876
0.0925402
0.112523
0.119826
0.118581
0.104035
0.0528949
0.0305232
0.0332923
0.0673079
0.178032
0.225823
0.266354
0.298617
0.294732
0.236507
0.111586
0.0663209
0.055111
0.0483357
0.0473007
0.0575913
0.082102
0.0819696
0.0658737
0.050874
0.0412111
0.0330201
0.0284294
0.0268657
0.0268596
0.0279765
0.0292633
0.0301081
0.0309458
0.0318511
0.0332582
0.0353009
0.0408726
0.0521233
0.0600895
0.0616241
0.0601881
0.0509006
0.0372969
0.0331783
0.029026
0.0255471
0.025518
0.0268818
0.0257116
0.0196475
0.0150597
0.012985
0.0124154
0.0127584
0.0139985
0.013898
0.0122963
0.0121658
0.013332
0.0132544
0.0132286
0.0142066
0.0210488
0.0329803
0.0380207
0.0411942
0.0484012
0.0570897
0.0623627
0.0631096
0.0630634
0.0627204
0.0610638
0.0518362
0.0484151
0.048467
0.0493211
0.0515915
0.05829
0.0696057
0.0749439
0.0736251
0.0639019
0.0620132
0.0694469
0.0965403
0.108482
0.108223
0.0942419
0.0654582
0.0517539
0.0406989
0.0286029
0.0196934
0.0152326
0.013315
0.0124627
0.0122592
0.0131381
0.0152532
0.0163206
0.0173106
0.0187282
0.0198128
0.0210789
0.0228857
0.0281661
0.0321557
0.037251
0.0399368
0.0422965
0.0417986
0.0450563
0.0541888
0.0575369
0.0649321
0.0709362
0.0718772
0.070288
0.0568491
0.0418904
0.0358752
0.0348776
0.0350672
0.0345612
0.0320337
0.0312698
0.0341073
0.0388119
0.0395958
0.03503
0.0288526
0.0282837
0.0323136
0.0333156
0.0357214
0.052107
0.0596111
0.0589692
0.0543112
0.0544351
0.0571957
0.061711
0.060847
0.0592781
0.0601358
0.0880252
0.118894
0.130253
0.116112
0.0828947
0.0826597
0.0753028
0.102195
0.107034
0.204561
0.144268
0.124587
0.074962
0.0723081
0.0563843
0.0908119
0.074163
0.0842828
0.145401
0.0398808
0.0277535
0.0182374
0.0101053
0.00595162
0.00407589
0.00211926
0.00134641
0.00172993
0.00252821
0.00371613
0.00271283
0.00517392
0.0054889
0.00523813
0.00638041
0.00748332
0.010863
0.019543
0.0447885
0.124024
0.220801
0.246827
0.241561
0.214514
0.188641
0.154425
0.119096
0.10333
0.09993
0.0912959
0.0828525
0.0827666
0.0871073
0.104806
0.120759
0.122069
0.116449
0.078261
0.0339591
0.0262194
0.0359371
0.106175
0.202706
0.238667
0.278667
0.30039
0.285488
0.187458
0.0851764
0.0617717
0.0549514
0.0484004
0.0483418
0.0659116
0.0874743
0.0832033
0.0636807
0.048683
0.0404217
0.0318158
0.0276626
0.0266743
0.0266487
0.0273073
0.0285346
0.0300027
0.0308353
0.0315555
0.0326425
0.0343368
0.0388948
0.0502794
0.0600462
0.0622636
0.0611048
0.0526818
0.039195
0.0349503
0.0299764
0.0264353
0.0268746
0.0283441
0.0267649
0.019745
0.015076
0.0127412
0.0120122
0.0122392
0.013358
0.0131612
0.0115715
0.0115264
0.013166
0.0131248
0.0129942
0.013358
0.0157685
0.027467
0.0369495
0.040412
0.0455134
0.0544442
0.0604303
0.0613778
0.0619766
0.0622929
0.0614409
0.0555557
0.0527972
0.0527515
0.0532699
0.0552413
0.0619076
0.0722871
0.0760694
0.0732463
0.0632905
0.0627792
0.0753548
0.105397
0.115459
0.113313
0.0915969
0.0634189
0.050521
0.0395767
0.0274278
0.0189134
0.015103
0.0135361
0.0128335
0.0126823
0.0136064
0.0159664
0.0170743
0.0181658
0.0190284
0.0197353
0.0207104
0.0233037
0.0304289
0.0345338
0.0387255
0.0407355
0.0418662
0.0412845
0.0474215
0.0572439
0.0582494
0.0636274
0.0688757
0.0704182
0.0692473
0.0584156
0.0433932
0.0365669
0.0351598
0.0351492
0.0341065
0.0323573
0.0324456
0.0362411
0.0390625
0.0392064
0.0328768
0.0282839
0.0284685
0.0317908
0.0320556
0.0382108
0.0553473
0.0603226
0.058348
0.0554756
0.0568141
0.0623611
0.0648961
0.0624135
0.060448
0.0614341
0.0877739
0.119073
0.133675
0.121521
0.0880683
0.0881686
0.081753
0.100815
0.107567
0.234925
0.191326
0.194269
0.101811
0.103251
0.0705667
0.111026
0.0828598
0.0836591
0.120953
0.00857061
0.00641805
0.00462004
0.00292811
0.00220235
0.00180848
0.000964555
0.00086887
0.00187998
0.00203394
0.00221069
0.00173329
0.00215226
0.00371752
0.00370261
0.00443334
0.00819243
0.0125632
0.0154936
0.0235529
0.0465932
0.104915
0.165505
0.191768
0.192912
0.186227
0.168708
0.138083
0.126437
0.116054
0.0993312
0.0932327
0.093122
0.0961512
0.116134
0.125643
0.12328
0.105143
0.0472502
0.0241214
0.0246694
0.0482175
0.147201
0.223767
0.248216
0.28723
0.298674
0.267041
0.141868
0.0719544
0.0609135
0.0559079
0.0504696
0.0527237
0.0769376
0.0905162
0.0829827
0.0614267
0.0475559
0.0398111
0.0311297
0.0272112
0.0266779
0.0266634
0.0270366
0.0278389
0.0291925
0.0301077
0.0313355
0.0324579
0.0338021
0.0376246
0.048994
0.0601975
0.0626812
0.061609
0.0535441
0.0412296
0.0366335
0.0307947
0.0272317
0.0283352
0.0294556
0.0273537
0.0197433
0.0150041
0.0124437
0.011625
0.0118166
0.0126439
0.0122629
0.0109847
0.0112971
0.012934
0.0129171
0.0126507
0.0126238
0.0133836
0.0215032
0.034635
0.0389585
0.0437987
0.0528215
0.0581815
0.059377
0.0607037
0.0614405
0.0609741
0.0577156
0.0560896
0.0560989
0.0566232
0.0586368
0.0650974
0.0743695
0.0769735
0.072262
0.0631708
0.063769
0.0831409
0.114519
0.122908
0.118366
0.0885033
0.0610316
0.0487453
0.0378943
0.025995
0.01822
0.0150246
0.0137999
0.013261
0.0132846
0.0144569
0.0169848
0.0188205
0.0195725
0.0196099
0.0198516
0.0206448
0.0262825
0.0330309
0.0370929
0.0401067
0.041104
0.0409499
0.0409686
0.0507404
0.0602845
0.0597968
0.062585
0.0666255
0.0682499
0.0680256
0.0584251
0.0443992
0.0369613
0.0353427
0.0352142
0.0340256
0.0330347
0.0336354
0.0369357
0.0383785
0.0372021
0.0306974
0.0273855
0.0280148
0.0300738
0.0311895
0.0438158
0.0583878
0.061016
0.0578069
0.0563916
0.0601075
0.0659449
0.067229
0.0631811
0.0605993
0.0619246
0.0879253
0.119033
0.137332
0.130851
0.0929629
0.0963266
0.0876904
0.10745
0.111649
0.132751
0.183567
0.400829
0.182717
0.213377
0.105081
0.14584
0.10623
0.0875415
0.107402
0.00120279
0.00117148
0.00103577
0.00104535
0.000941238
0.000671897
0.000519869
0.00062774
0.00185893
0.00181374
0.00157609
0.00147564
0.00136144
0.00220405
0.00221413
0.00250941
0.00687814
0.0106183
0.0132004
0.0167566
0.024492
0.0407366
0.0894387
0.147783
0.171845
0.17325
0.16889
0.157771
0.146976
0.128748
0.109631
0.10227
0.100355
0.105164
0.126722
0.127677
0.117661
0.0692787
0.0288759
0.0199817
0.0255804
0.0742996
0.189295
0.235897
0.256483
0.291835
0.292346
0.238757
0.104816
0.067007
0.0625121
0.0598621
0.0565398
0.0612805
0.0878601
0.0913353
0.0795334
0.0596419
0.0470376
0.0392631
0.0306006
0.0270408
0.0267093
0.0267619
0.0271388
0.027617
0.0283175
0.0290634
0.0306402
0.0317712
0.0331236
0.0367557
0.0478088
0.0602405
0.0629569
0.0619456
0.0541657
0.0421483
0.0373782
0.0316775
0.0281455
0.0295367
0.0305159
0.0279588
0.0198086
0.0149387
0.0121698
0.0112233
0.0114345
0.0119735
0.0114795
0.0106501
0.0114418
0.0127535
0.0128524
0.0124511
0.0118621
0.0120164
0.0182434
0.0315148
0.0359832
0.0432766
0.0525133
0.0563153
0.0573866
0.0593518
0.0603741
0.0602093
0.0585332
0.0585459
0.0588064
0.0595056
0.0615908
0.0683003
0.0762525
0.0776015
0.0707581
0.0630027
0.0652401
0.0924348
0.124342
0.13097
0.121907
0.0846999
0.0578333
0.0463586
0.0359609
0.0245654
0.0175712
0.015078
0.0140555
0.013659
0.0139636
0.0158493