/*--------------------------------*- C++ -*----------------------------------*\
| =========                 |                                                 |
| \\      /  F ield         | OpenFOAM: The Open Source CFD Toolbox           |
|  \\    /   O peration     | Version:  2.4.0                                 |
|   \\  /    A nd           | Web:      www.OpenFOAM.org                      |
|    \\/     M anipulation  |                                                 |
\*---------------------------------------------------------------------------*/
FoamFile
{
    version     2.0;
    format      ascii;
    class       surfaceScalarField;
    location    "0.292";
    object      phi_0;
}
// * * * * * * * * * * * * * * * * * * * * * * * * * * * * * * * * * * * * * //

dimensions      [0 3 -1 0 0 0 0];

internalField   nonuniform List<scalar> 
34880
(
5.48818e-06
7.01182e-06
3.12587e-06
2.36231e-06
2.4726e-06
6.53277e-07
2.21634e-06
2.5626e-07
2.07827e-06
1.38065e-07
1.97017e-06
1.08101e-07
1.88393e-06
8.62423e-08
1.8277e-06
5.62301e-08
1.77714e-06
5.05576e-08
1.74626e-06
3.08837e-08
1.7165e-06
2.97604e-08
1.71128e-06
5.21487e-09
1.67872e-06
3.25589e-08
1.7039e-06
-2.51795e-08
1.70351e-06
3.90872e-10
1.74662e-06
-4.31111e-08
1.83859e-06
-9.19631e-08
1.94049e-06
-1.01906e-07
2.21893e-06
-2.7844e-07
-1.88731e-07
2.40767e-06
1.0112e-05
9.39985e-06
7.83213e-06
4.64215e-06
6.70818e-06
1.77722e-06
6.06182e-06
9.02617e-07
5.65059e-06
5.49302e-07
5.35049e-06
4.08195e-07
5.12327e-06
3.13465e-07
4.95281e-06
2.26687e-07
4.81703e-06
1.86344e-07
4.71424e-06
1.33668e-07
4.6371e-06
1.06901e-07
4.58192e-06
6.0399e-08
4.52417e-06
9.03045e-08
4.53353e-06
-3.45391e-08
4.50967e-06
2.42501e-08
4.62926e-06
-1.62699e-07
4.6903e-06
-1.52998e-07
4.97018e-06
-3.81788e-07
5.56626e-06
-8.74514e-07
-4.07405e-07
5.78493e-06
1.24274e-05
9.4725e-06
1.10077e-05
6.06182e-06
9.97657e-06
2.80833e-06
9.20154e-06
1.67765e-06
8.62413e-06
1.12671e-06
8.18965e-06
8.4267e-07
7.86119e-06
6.41921e-07
7.60048e-06
4.87404e-07
7.39904e-06
3.87777e-07
7.23305e-06
2.99663e-07
7.11749e-06
2.22463e-07
7.01065e-06
1.67235e-07
6.936e-06
1.64956e-07
6.91714e-06
-1.56784e-08
6.85764e-06
8.37468e-08
7.0323e-06
-3.37352e-07
7.00653e-06
-1.27233e-07
7.39672e-06
-7.71972e-07
8.07165e-06
-1.54945e-06
-8.03517e-07
8.46776e-06
1.34139e-05
8.55859e-06
1.2896e-05
6.57968e-06
1.23213e-05
3.38305e-06
1.17152e-05
2.28379e-06
1.11397e-05
1.7022e-06
1.06549e-05
1.32748e-06
1.02799e-05
1.01686e-06
9.96256e-06
8.04786e-07
9.71858e-06
6.31765e-07
9.50622e-06
5.12024e-07
9.36267e-06
3.66005e-07
9.21272e-06
3.17187e-07
9.11925e-06
2.58434e-07
9.0819e-06
2.16672e-08
8.9769e-06
1.8875e-07
9.1735e-06
-5.33958e-07
9.11184e-06
-6.55657e-08
9.48061e-06
-1.14075e-06
1.01491e-05
-2.21798e-06
-1.46127e-06
1.08069e-05
1.35901e-05
7.46846e-06
1.36723e-05
6.49752e-06
1.36198e-05
3.43559e-06
1.33979e-05
2.50568e-06
1.30264e-05
2.07369e-06
1.26167e-05
1.73715e-06
1.22811e-05
1.35244e-06
1.19642e-05
1.12175e-06
1.17168e-05
8.79096e-07
1.14886e-05
7.40219e-07
1.13361e-05
5.18498e-07
1.11632e-05
4.90134e-07
1.10519e-05
3.69728e-07
1.1013e-05
6.05295e-08
1.08739e-05
3.27895e-07
1.10418e-05
-7.01844e-07
1.10233e-05
-4.7032e-08
1.13108e-05
-1.42828e-06
1.19096e-05
-2.81681e-06
-2.20033e-06
1.26487e-05
1.34762e-05
6.49222e-06
1.37719e-05
6.20185e-06
1.4e-05
3.20747e-06
1.41356e-05
2.3701e-06
1.40927e-05
2.11661e-06
1.3887e-05
1.94282e-06
1.3701e-05
1.53846e-06
1.34722e-05
1.35057e-06
1.32813e-05
1.06999e-06
1.3087e-05
9.3454e-07
1.29567e-05
6.48774e-07
1.27953e-05
6.51485e-07
1.26735e-05
4.91547e-07
1.26548e-05
7.92526e-08
1.25124e-05
4.70301e-07
1.26107e-05
-8.0019e-07
1.26571e-05
-9.3378e-08
1.28836e-05
-1.65479e-06
1.34633e-05
-3.39658e-06
-3.1063e-06
1.43693e-05
1.33435e-05
5.64868e-06
1.3717e-05
5.82839e-06
1.39543e-05
2.97016e-06
1.42047e-05
2.11968e-06
1.43978e-05
1.92356e-06
1.43937e-05
1.94686e-06
1.44e-05
1.53218e-06
1.43359e-05
1.41472e-06
1.42673e-05
1.13853e-06
1.41716e-05
1.0303e-06
1.41132e-05
7.07121e-07
1.40159e-05
7.48842e-07
1.38995e-05
6.07877e-07
1.39291e-05
4.97202e-08
1.38224e-05
5.76917e-07
1.38489e-05
-8.26599e-07
1.39416e-05
-1.86125e-07
1.40948e-05
-1.80799e-06
1.47345e-05
-4.03627e-06
-4.33294e-06
1.59611e-05
1.3232e-05
4.91664e-06
1.36948e-05
5.36559e-06
1.38587e-05
2.80633e-06
1.40807e-05
1.89766e-06
1.43449e-05
1.65935e-06
1.44282e-05
1.86354e-06
1.45201e-05
1.44028e-06
1.45918e-05
1.34304e-06
1.46355e-05
1.09482e-06
1.46532e-05
1.01264e-06
1.47025e-05
6.57758e-07
1.47202e-05
7.31174e-07
1.46265e-05
7.01612e-07
1.47364e-05
-6.0214e-08
1.47056e-05
6.07755e-07
1.46933e-05
-8.14342e-07
1.48388e-05
-3.31612e-07
1.49071e-05
-1.87626e-06
1.54357e-05
-4.56489e-06
-4.2932e-06
1.5396e-05
1.31542e-05
4.26248e-06
1.36039e-05
4.91582e-06
1.37759e-05
2.63435e-06
1.39678e-05
1.70574e-06
1.42345e-05
1.39269e-06
1.43514e-05
1.74657e-06
1.44266e-05
1.36508e-06
1.45644e-05
1.20528e-06
1.46388e-05
1.02046e-06
1.46982e-05
9.53197e-07
1.48267e-05
5.29217e-07
1.49442e-05
6.13691e-07
1.48607e-05
7.85137e-07
1.50423e-05
-2.41782e-07
1.50967e-05
5.53343e-07
1.50881e-05
-8.05769e-07
1.53065e-05
-5.50023e-07
1.534e-05
-1.90979e-06
1.56042e-05
-4.82908e-06
-5.99971e-06
1.73107e-05
1.30981e-05
3.66437e-06
1.35272e-05
4.48677e-06
1.36953e-05
2.4662e-06
1.38567e-05
1.54437e-06
1.41494e-05
1.09993e-06
1.42754e-05
1.62059e-06
1.43201e-05
1.3204e-06
1.45101e-05
1.0153e-06
1.45527e-05
9.77884e-07
1.46123e-05
8.93609e-07
1.47805e-05
3.60949e-07
1.4918e-05
4.76251e-07
1.4849e-05
8.54071e-07
1.50439e-05
-4.36631e-07
1.51373e-05
4.59924e-07
1.51508e-05
-8.19292e-07
1.53886e-05
-7.87771e-07
1.55418e-05
-2.06307e-06
1.54737e-05
-4.76089e-06
-7.07699e-06
1.65509e-05
1.30416e-05
3.1228e-06
1.34989e-05
4.02942e-06
1.36124e-05
2.35273e-06
1.37926e-05
1.36415e-06
1.40947e-05
7.97872e-07
1.41719e-05
1.54338e-06
1.42751e-05
1.21715e-06
1.44587e-05
8.31689e-07
1.44475e-05
9.8911e-07
1.45784e-05
7.62744e-07
1.47109e-05
2.28381e-07
1.48053e-05
3.81938e-07
1.4821e-05
8.38323e-07
1.49621e-05
-5.77694e-07
1.50318e-05
3.90194e-07
1.51188e-05
-9.06252e-07
1.53281e-05
-9.97129e-07
1.55263e-05
-2.26128e-06
1.54408e-05
-4.67539e-06
-7.59639e-06
1.59602e-05
1.29916e-05
2.63124e-06
1.34807e-05
3.54027e-06
1.35837e-05
2.24977e-06
1.37871e-05
1.16075e-06
1.39766e-05
6.08374e-07
1.4103e-05
1.41698e-06
1.42717e-05
1.04838e-06
1.43503e-05
7.53102e-07
1.43972e-05
9.42236e-07
1.45579e-05
6.02037e-07
1.4585e-05
2.01306e-07
1.47373e-05
2.29594e-07
1.48205e-05
7.55174e-07
1.48393e-05
-5.96496e-07
1.49144e-05
3.15067e-07
1.50557e-05
-1.04758e-06
1.52447e-05
-1.18604e-06
1.5424e-05
-2.44061e-06
1.54862e-05
-4.73764e-06
-7.87026e-06
1.57601e-05
1.29506e-05
2.18062e-06
1.34209e-05
3.07002e-06
1.36153e-05
2.05535e-06
1.37524e-05
1.02358e-06
1.38566e-05
5.04239e-07
1.40831e-05
1.19045e-06
1.42191e-05
9.12368e-07
1.42712e-05
7.00974e-07
1.43917e-05
8.21733e-07
1.44942e-05
4.99629e-07
1.44868e-05
2.08641e-07
1.47134e-05
2.99737e-09
1.47758e-05
6.92759e-07
1.47638e-05
-5.84423e-07
1.48625e-05
2.16308e-07
1.49688e-05
-1.15382e-06
1.51589e-05
-1.37618e-06
1.53455e-05
-2.62721e-06
1.55203e-05
-4.91242e-06
-8.008e-06
1.5658e-05
1.28994e-05
1.78117e-06
1.33327e-05
2.63679e-06
1.36365e-05
1.75155e-06
1.37005e-05
9.59561e-07
1.38218e-05
3.82951e-07
1.40346e-05
9.7765e-07
1.41452e-05
8.01745e-07
1.42589e-05
5.87316e-07
1.43716e-05
7.0902e-07
1.4439e-05
4.32264e-07
1.4462e-05
1.8556e-07
1.46403e-05
-1.75278e-07
1.47123e-05
6.20789e-07
1.47593e-05
-6.31476e-07
1.48407e-05
1.34914e-07
1.48885e-05
-1.20164e-06
1.50929e-05
-1.58056e-06
1.52969e-05
-2.83113e-06
1.54219e-05
-5.03747e-06
-8.07281e-06
1.54867e-05
1.28362e-05
1.44497e-06
1.32804e-05
2.19262e-06
1.36132e-05
1.41871e-06
1.36822e-05
8.90618e-07
1.38127e-05
2.52414e-07
1.39649e-05
8.25467e-07
1.41048e-05
6.61823e-07
1.42562e-05
4.35921e-07
1.43275e-05
6.37677e-07
1.44071e-05
3.52714e-07
1.44419e-05
1.50781e-07
1.45494e-05
-2.8281e-07
1.46724e-05
4.97749e-07
1.4754e-05
-7.13051e-07
1.4806e-05
8.29177e-08
1.48424e-05
-1.23801e-06
1.50273e-05
-1.76545e-06
1.52279e-05
-3.03182e-06
1.52605e-05
-5.07006e-06
-8.17048e-06
1.53582e-05
1.28011e-05
1.14391e-06
1.32614e-05
1.73224e-06
1.35829e-05
1.0972e-06
1.36906e-05
7.82973e-07
1.37807e-05
1.62309e-07
1.39266e-05
6.79576e-07
1.40936e-05
4.94848e-07
1.42073e-05
3.22163e-07
1.42834e-05
5.61607e-07
1.44003e-05
2.35755e-07
1.43953e-05
1.5586e-07
1.44955e-05
-3.83076e-07
1.46527e-05
3.40555e-07
1.47021e-05
-7.62459e-07
1.47801e-05
4.99585e-09
1.48208e-05
-1.27872e-06
1.49856e-05
-1.93028e-06
1.51273e-05
-3.1735e-06
1.51327e-05
-5.07547e-06
-8.40216e-06
1.53644e-05
1.27886e-05
8.55284e-07
1.32372e-05
1.28367e-06
1.35584e-05
7.76016e-07
1.36838e-05
6.57589e-07
1.3748e-05
9.80311e-08
1.39197e-05
5.07884e-07
1.40611e-05
3.53486e-07
1.41396e-05
2.43688e-07
1.42802e-05
4.20983e-07
1.43822e-05
1.33757e-07
1.43669e-05
1.71141e-07
1.44738e-05
-4.89933e-07
1.46356e-05
1.78722e-07
1.46247e-05
-7.51525e-07
1.47805e-05
-1.50837e-07
1.48096e-05
-1.30786e-06
1.49512e-05
-2.07186e-06
1.50334e-05
-3.25567e-06
1.50367e-05
-5.0788e-06
-7.13336e-06
1.37679e-05
1.27718e-05
5.83475e-07
1.32234e-05
8.32105e-07
1.35497e-05
4.49723e-07
1.36487e-05
5.58593e-07
1.37376e-05
9.07174e-09
1.39177e-05
3.27831e-07
1.39995e-05
2.71653e-07
1.41291e-05
1.14056e-07
1.4275e-05
2.75074e-07
1.43456e-05
6.3212e-08
1.43719e-05
1.44809e-07
1.44807e-05
-5.98713e-07
1.45729e-05
8.65182e-08
1.46088e-05
-7.87411e-07
1.4763e-05
-3.0505e-07
1.48266e-05
-1.37148e-06
1.48914e-05
-2.13658e-06
1.49953e-05
-3.35963e-06
1.50798e-05
-5.16332e-06
-7.29037e-06
1.52368e-05
1.27693e-05
3.14149e-07
1.32276e-05
3.73866e-07
1.35197e-05
1.57548e-07
1.36261e-05
4.52249e-07
1.37496e-05
-1.14467e-07
1.38906e-05
1.86861e-07
1.39726e-05
1.89659e-07
1.41474e-05
-6.07461e-08
1.42464e-05
1.76111e-07
1.4324e-05
-1.44508e-08
1.44093e-05
5.95425e-08
1.44552e-05
-6.44604e-07
1.45444e-05
-2.74878e-09
1.45881e-05
-8.31056e-07
1.47582e-05
-4.75134e-07
1.48096e-05
-1.42294e-06
1.48468e-05
-2.17372e-06
1.49729e-05
-3.48581e-06
1.50414e-05
-5.23177e-06
-7.42512e-06
1.51762e-05
1.27816e-05
3.25616e-08
1.32126e-05
-5.71162e-08
1.34769e-05
-1.06752e-07
1.36478e-05
2.81353e-07
1.37503e-05
-2.16962e-07
1.38534e-05
8.37377e-08
1.39914e-05
5.16051e-08
1.4148e-05
-2.17291e-07
1.42221e-05
1.01967e-07
1.43398e-05
-1.32171e-07
1.44121e-05
-1.2746e-08
1.44345e-05
-6.67e-07
1.45276e-05
-9.58238e-08
1.45822e-05
-8.85655e-07
1.47395e-05
-6.32439e-07
1.47785e-05
-1.46197e-06
1.48397e-05
-2.23491e-06
1.49411e-05
-3.5872e-06
1.49631e-05
-5.25373e-06
-7.57327e-06
1.51112e-05
1.27768e-05
-2.44236e-07
1.31797e-05
-4.5997e-07
1.34798e-05
-4.06893e-07
1.36798e-05
8.13351e-08
1.37281e-05
-2.65217e-07
1.38514e-05
-3.95892e-08
1.40078e-05
-1.04811e-07
1.41437e-05
-3.53201e-07
1.4226e-05
1.96625e-08
1.43364e-05
-2.4255e-07
1.44014e-05
-7.77423e-08
1.44254e-05
-6.90957e-07
1.45352e-05
-2.05708e-07
1.45831e-05
-9.33498e-07
1.47111e-05
-7.60505e-07
1.47663e-05
-1.51712e-06
1.48416e-05
-2.31019e-06
1.48969e-05
-3.6425e-06
1.48792e-05
-5.23606e-06
-7.87298e-06
1.51789e-05
1.27651e-05
-5.09317e-07
1.31787e-05
-8.73573e-07
1.3519e-05
-7.47241e-07
1.36797e-05
-7.93069e-08
1.37226e-05
-3.08148e-07
1.38767e-05
-1.93646e-07
1.40144e-05
-2.42537e-07
1.41433e-05
-4.82145e-07
1.42322e-05
-6.91819e-08
1.43223e-05
-3.32641e-07
1.44203e-05
-1.75825e-07
1.44294e-05
-6.99985e-07
1.45639e-05
-3.40215e-07
1.45666e-05
-9.36262e-07
1.47063e-05
-9.00142e-07
1.47492e-05
-1.56007e-06
1.48442e-05
-2.40514e-06
1.48657e-05
-3.66401e-06
1.47861e-05
-5.15644e-06
-6.81551e-06
1.37286e-05
1.27728e-05
-7.82109e-07
1.32148e-05
-1.31556e-06
1.35373e-05
-1.06973e-06
1.36696e-05
-2.11649e-07
1.37424e-05
-3.80897e-07
1.38933e-05
-3.44604e-07
1.4014e-05
-3.63185e-07
1.4156e-05
-6.24146e-07
1.42293e-05
-1.42511e-07
1.43457e-05
-4.49025e-07
1.44329e-05
-2.63005e-07
1.44671e-05
-7.34253e-07
1.45511e-05
-4.24226e-07
1.45873e-05
-9.72477e-07
1.46914e-05
-1.00422e-06
1.47725e-05
-1.64112e-06
1.48316e-05
-2.46427e-06
1.48577e-05
-3.69015e-06
1.48849e-05
-5.18361e-06
-7.17823e-06
1.52476e-05
1.27972e-05
-1.07933e-06
1.32463e-05
-1.76461e-06
1.35371e-05
-1.36053e-06
1.36728e-05
-3.474e-07
1.37647e-05
-4.72729e-07
1.39021e-05
-4.82077e-07
1.40295e-05
-4.90555e-07
1.41724e-05
-7.67082e-07
1.42635e-05
-2.33586e-07
1.43623e-05
-5.47848e-07
1.44605e-05
-3.6121e-07
1.44681e-05
-7.41784e-07
1.45641e-05
-5.20256e-07
1.46017e-05
-1.01003e-06
1.4695e-05
-1.09755e-06
1.47933e-05
-1.73939e-06
1.482e-05
-2.49104e-06
1.48521e-05
-3.72224e-06
1.49411e-05
-5.27256e-06
-7.34144e-06
1.51043e-05
1.28235e-05
-1.40284e-06
1.32707e-05
-2.21181e-06
1.35492e-05
-1.63906e-06
1.36855e-05
-4.83633e-07
1.37839e-05
-5.71161e-07
1.39329e-05
-6.31089e-07
1.40653e-05
-6.2298e-07
1.42036e-05
-9.0538e-07
1.42883e-05
-3.18242e-07
1.43847e-05
-6.44278e-07
1.44645e-05
-4.40944e-07
1.44855e-05
-7.6283e-07
1.45986e-05
-6.33394e-07
1.46302e-05
-1.04155e-06
1.47105e-05
-1.17788e-06
1.48068e-05
-1.83568e-06
1.48136e-05
-2.49782e-06
1.48819e-05
-3.79062e-06
1.49388e-05
-5.32941e-06
-7.3898e-06
1.49871e-05
1.28494e-05
-1.75222e-06
1.33092e-05
-2.67164e-06
1.35779e-05
-1.90773e-06
1.3695e-05
-6.00752e-07
1.38167e-05
-6.9282e-07
1.39807e-05
-7.95126e-07
1.41069e-05
-7.4917e-07
1.42245e-05
-1.02299e-06
1.43123e-05
-4.06012e-07
1.44054e-05
-7.37388e-07
1.44849e-05
-5.20406e-07
1.45335e-05
-8.11507e-07
1.46361e-05
-7.35986e-07
1.46574e-05
-1.06283e-06
1.47457e-05
-1.26616e-06
1.48008e-05
-1.89077e-06
1.48378e-05
-2.53486e-06
1.49179e-05
-3.87073e-06
1.48798e-05
-5.29131e-06
-7.57128e-06
1.50613e-05
1.28859e-05
-2.13813e-06
1.33595e-05
-3.14523e-06
1.35981e-05
-2.14636e-06
1.37136e-05
-7.16199e-07
1.38655e-05
-8.44773e-07
1.40249e-05
-9.54501e-07
1.41415e-05
-8.65756e-07
1.42469e-05
-1.12845e-06
1.43551e-05
-5.14219e-07
1.44346e-05
-8.16874e-07
1.45401e-05
-6.25929e-07
1.45801e-05
-8.51475e-07
1.467e-05
-8.25847e-07
1.46896e-05
-1.08246e-06
1.47754e-05
-1.35197e-06
1.48038e-05
-1.91913e-06
1.4894e-05
-2.62511e-06
1.49321e-05
-3.90875e-06
1.47642e-05
-5.12351e-06
-6.44693e-06
1.36399e-05
1.2933e-05
-2.57117e-06
1.34075e-05
-3.61968e-06
1.35818e-05
-2.32071e-06
1.37516e-05
-8.85966e-07
1.39191e-05
-1.01223e-06
1.40672e-05
-1.10261e-06
1.41835e-05
-9.82051e-07
1.42953e-05
-1.24025e-06
1.44008e-05
-6.19765e-07
1.4493e-05
-9.09023e-07
1.45891e-05
-7.22028e-07
1.46352e-05
-8.97614e-07
1.46911e-05
-8.81771e-07
1.47478e-05
-1.13917e-06
1.47844e-05
-1.38854e-06
1.48625e-05
-1.99719e-06
1.49228e-05
-2.68546e-06
1.49408e-05
-3.92674e-06
1.49056e-05
-5.08828e-06
-6.83581e-06
1.52945e-05
1.29867e-05
-3.05791e-06
1.34576e-05
-4.09058e-06
1.35935e-05
-2.45658e-06
1.37966e-05
-1.08909e-06
1.39744e-05
-1.19002e-06
1.41165e-05
-1.24466e-06
1.42456e-05
-1.11118e-06
1.43445e-05
-1.33908e-06
1.44643e-05
-7.39566e-07
1.45485e-05
-9.93268e-07
1.46423e-05
-8.15824e-07
1.4673e-05
-9.2828e-07
1.47347e-05
-9.43498e-07
1.47837e-05
-1.18813e-06
1.4825e-05
-1.42984e-06
1.49234e-05
-2.09559e-06
1.4945e-05
-2.70709e-06
1.49616e-05
-3.94335e-06
1.49789e-05
-5.10553e-06
-7.07584e-06
1.52189e-05
1.30477e-05
-3.60556e-06
1.35161e-05
-4.55908e-06
1.3631e-05
-2.57148e-06
1.38412e-05
-1.2993e-06
1.40339e-05
-1.38269e-06
1.41806e-05
-1.39133e-06
1.43174e-05
-1.24797e-06
1.44078e-05
-1.42954e-06
1.45351e-05
-8.66816e-07
1.45989e-05
-1.05713e-06
1.46861e-05
-9.02981e-07
1.47112e-05
-9.53432e-07
1.4781e-05
-1.01326e-06
1.48279e-05
-1.23499e-06
1.48982e-05
-1.50014e-06
1.49702e-05
-2.16759e-06
1.49648e-05
-2.70178e-06
1.49793e-05
-3.95783e-06
1.49501e-05
-5.07635e-06
-7.06001e-06
1.49343e-05
1.31138e-05
-4.21939e-06
1.35749e-05
-5.0202e-06
1.36701e-05
-2.66666e-06
1.38941e-05
-1.52326e-06
1.41106e-05
-1.59916e-06
1.42673e-05
-1.54805e-06
1.44025e-05
-1.38318e-06
1.44843e-05
-1.51134e-06
1.45989e-05
-9.81448e-07
1.46445e-05
-1.10265e-06
1.47256e-05
-9.84076e-07
1.47675e-05
-9.95332e-07
1.48371e-05
-1.08292e-06
1.48946e-05
-1.29245e-06
1.49554e-05
-1.56095e-06
1.49688e-05
-2.18096e-06
1.4925e-05
-2.658e-06
1.48494e-05
-3.88221e-06
1.46743e-05
-4.90127e-06
-6.88011e-06
1.44944e-05
1.3182e-05
-4.9014e-06
1.36311e-05
-5.46928e-06
1.37225e-05
-2.75806e-06
1.39791e-05
-1.77993e-06
1.4219e-05
-1.83897e-06
1.43696e-05
-1.69872e-06
1.44917e-05
-1.50522e-06
1.45531e-05
-1.57276e-06
1.46508e-05
-1.07916e-06
1.46874e-05
-1.13921e-06
1.47635e-05
-1.06018e-06
1.48023e-05
-1.03413e-06
1.48462e-05
-1.12686e-06
1.48621e-05
-1.30828e-06
1.48538e-05
-1.5527e-06
1.47673e-05
-2.09447e-06
1.46378e-05
-2.52846e-06
1.43878e-05
-3.63219e-06
1.40307e-05
-4.54422e-06
-6.56539e-06
1.3716e-05
1.32605e-05
-5.66189e-06
1.36819e-05
-5.89065e-06
1.38086e-05
-2.88478e-06
1.41065e-05
-2.07781e-06
1.43368e-05
-2.06927e-06
1.44562e-05
-1.81814e-06
1.4549e-05
-1.59803e-06
1.45705e-05
-1.59424e-06
1.46259e-05
-1.13455e-06
1.4624e-05
-1.13738e-06
1.46304e-05
-1.06652e-06
1.46028e-05
-1.00657e-06
1.45582e-05
-1.08223e-06
1.44769e-05
-1.22699e-06
1.43595e-05
-1.43533e-06
1.41605e-05
-1.89545e-06
1.39134e-05
-2.28135e-06
1.35087e-05
-3.2275e-06
1.29743e-05
-4.00979e-06
-5.3442e-06
1.17531e-05
1.33541e-05
-6.51602e-06
1.3685e-05
-6.22157e-06
1.39358e-05
-3.13556e-06
1.42331e-05
-2.37505e-06
1.43832e-05
-2.21945e-06
1.44165e-05
-1.85144e-06
1.44044e-05
-1.58585e-06
1.43093e-05
-1.49916e-06
1.42475e-05
-1.07274e-06
1.4137e-05
-1.02692e-06
1.40226e-05
-9.5214e-07
1.38995e-05
-8.83405e-07
1.37565e-05
-9.39295e-07
1.35875e-05
-1.05796e-06
1.33826e-05
-1.23042e-06
1.3104e-05
-1.61687e-06
1.27681e-05
-1.94548e-06
1.22701e-05
-2.7295e-06
1.16586e-05
-3.3982e-06
-4.7252e-06
1.10396e-05
1.34749e-05
-7.4909e-06
1.37503e-05
-6.49704e-06
1.40022e-05
-3.38737e-06
1.41508e-05
-2.52371e-06
1.40736e-05
-2.14226e-06
1.39024e-05
-1.68023e-06
1.36945e-05
-1.37796e-06
1.34423e-05
-1.24697e-06
1.32516e-05
-8.82035e-07
1.30449e-05
-8.20201e-07
1.28485e-05
-7.55728e-07
1.26668e-05
-7.01675e-07
1.24705e-05
-7.43074e-07
1.2255e-05
-8.42421e-07
1.20051e-05
-9.80545e-07
1.16842e-05
-1.29592e-06
1.12982e-05
-1.55944e-06
1.07512e-05
-2.18254e-06
1.00659e-05
-2.71294e-06
-3.68565e-06
9.02638e-06
1.35845e-05
-8.57542e-06
1.36598e-05
-6.57232e-06
1.36279e-05
-3.35546e-06
1.34036e-05
-2.29944e-06
1.30092e-05
-1.74787e-06
1.26254e-05
-1.29644e-06
1.22706e-05
-1.0231e-06
1.19311e-05
-9.07476e-07
1.16813e-05
-6.32202e-07
1.14396e-05
-5.78561e-07
1.12183e-05
-5.34443e-07
1.10199e-05
-5.03297e-07
1.08091e-05
-5.32259e-07
1.05801e-05
-6.13397e-07
1.03164e-05
-7.16788e-07
9.98107e-06
-9.6064e-07
9.57601e-06
-1.15438e-06
9.01064e-06
-1.61718e-06
8.30979e-06
-2.01208e-06
-2.75333e-06
7.37747e-06
1.34076e-05
-9.48297e-06
1.28899e-05
-6.05467e-06
1.23296e-05
-2.79514e-06
1.17162e-05
-1.68604e-06
1.11252e-05
-1.15684e-06
1.06572e-05
-8.28486e-07
1.02692e-05
-6.35071e-07
9.92779e-06
-5.66099e-07
9.68106e-06
-3.85466e-07
9.45159e-06
-3.491e-07
9.24442e-06
-3.27274e-07
9.05726e-06
-3.16128e-07
8.85866e-06
-3.33661e-07
8.64026e-06
-3.95001e-07
8.38651e-06
-4.63031e-07
8.06114e-06
-6.3527e-07
7.6648e-06
-7.58046e-07
7.11774e-06
-1.07011e-06
6.43356e-06
-1.3279e-06
-1.92175e-06
5.60197e-06
1.24219e-05
-9.40484e-06
1.10054e-05
-4.63822e-06
9.98277e-06
-1.77248e-06
9.201e-06
-9.04274e-07
8.61182e-06
-5.67663e-07
8.18697e-06
-4.03631e-07
7.85299e-06
-3.01095e-07
7.56608e-06
-2.79187e-07
7.36244e-06
-1.81829e-07
7.17697e-06
-1.6363e-07
7.00853e-06
-1.58837e-07
6.85161e-06
-1.59203e-07
6.68512e-06
-1.67168e-07
6.49617e-06
-2.06055e-07
6.27386e-06
-2.4072e-07
5.98178e-06
-3.43189e-07
5.62605e-06
-4.02311e-07
5.13406e-06
-5.78124e-07
4.51611e-06
-7.09945e-07
-1.15224e-06
3.7466e-06
1.01084e-05
-7.01325e-06
7.83139e-06
-2.36121e-06
6.71142e-06
-6.52521e-07
6.06203e-06
-2.54877e-07
5.64025e-06
-1.45893e-07
5.345e-06
-1.08378e-07
5.12043e-06
-7.65244e-08
4.92099e-06
-7.97492e-08
4.78656e-06
-4.73955e-08
4.66461e-06
-4.16809e-08
4.55029e-06
-4.45212e-08
4.43865e-06
-4.75595e-08
4.32068e-06
-4.92e-08
4.17931e-06
-6.46828e-08
4.01289e-06
-7.42959e-08
3.78341e-06
-1.1371e-07
3.50959e-06
-1.28488e-07
3.12185e-06
-1.9039e-07
2.64304e-06
-2.31127e-07
-4.7662e-07
1.96742e-06
5.48675e-06
3.12555e-06
2.47303e-06
2.21815e-06
2.07226e-06
1.96388e-06
1.88735e-06
1.80761e-06
1.76021e-06
1.71853e-06
1.67401e-06
1.62645e-06
1.57725e-06
1.51257e-06
1.43827e-06
1.32456e-06
1.19607e-06
1.00568e-06
7.74554e-07
2.97934e-07
4.41663e-06
1.92294e-06
-3.9319e-06
6.40023e-06
5.57288e-08
-2.03933e-06
7.69031e-06
-5.67366e-07
-7.22713e-07
9.18851e-06
-2.69552e-06
1.19732e-06
1.09581e-05
-6.51911e-06
4.74949e-06
1.20113e-05
-1.08232e-05
9.77003e-06
1.22647e-05
-1.63059e-05
1.60526e-05
1.1991e-05
-1.84451e-05
1.87187e-05
1.10249e-05
-1.87036e-05
1.96697e-05
1.01825e-05
-1.76147e-05
1.84571e-05
9.18292e-06
-1.51042e-05
1.61037e-05
8.46195e-06
-1.24062e-05
1.31272e-05
7.61281e-06
-8.78109e-06
9.63023e-06
6.80946e-06
-7.53037e-06
8.33372e-06
7.07886e-06
-5.35498e-06
5.08558e-06
6.89274e-06
-4.79015e-07
6.65134e-07
5.97081e-06
-8.60756e-07
1.78269e-06
6.10917e-06
-1.26565e-06
1.12728e-06
7.82298e-06
7.86303e-06
-9.57685e-06
9.48294e-06
1.58603e-05
-1.75203e-05
1.03087e-05
1.71915e-05
-1.80173e-05
1.08357e-05
1.55449e-05
-1.60718e-05
1.0977e-05
1.29795e-05
-1.31209e-05
1.1156e-05
1.01582e-05
-1.03371e-05
1.15127e-05
8.81483e-06
-9.17153e-06
1.21558e-05
7.7895e-06
-8.43265e-06
1.28242e-05
7.14673e-06
-7.81513e-06
1.35242e-05
6.50179e-06
-7.20178e-06
1.38597e-05
6.43899e-06
-6.77448e-06
1.414e-05
6.01539e-06
-6.29566e-06
1.46576e-05
2.81708e-06
-3.3347e-06
1.51412e-05
9.50468e-09
-4.93089e-07
1.54497e-05
-1.22163e-06
9.13127e-07
1.56863e-05
-3.00892e-06
2.7723e-06
1.62067e-05
-8.42599e-06
7.90559e-06
1.64021e-05
-1.52468e-05
1.50514e-05
1.59924e-05
-1.88074e-05
1.92172e-05
1.57646e-05
-2.04315e-05
2.06592e-05
1.59667e-05
-2.2952e-05
2.27499e-05
1.59941e-05
-2.56038e-05
2.55764e-05
1.5612e-05
-2.7219e-05
2.76011e-05
1.52331e-05
-2.83595e-05
2.87384e-05
1.51128e-05
-3.00546e-05
3.0175e-05
1.49182e-05
-3.18803e-05
3.20749e-05
1.43202e-05
-3.20947e-05
3.26927e-05
1.33649e-05
-3.06919e-05
3.16472e-05
1.23693e-05
-2.86189e-05
2.96146e-05
1.13161e-05
-2.60177e-05
2.70709e-05
1.00283e-05
-2.29356e-05
2.42234e-05
8.56058e-06
-1.94557e-05
2.09235e-05
7.15284e-06
-1.58213e-05
1.7229e-05
6.15955e-06
-1.31115e-05
1.41048e-05
5.67939e-06
-1.14926e-05
1.19727e-05
5.57897e-06
-1.00641e-05
1.01645e-05
5.82922e-06
-1.0057e-05
9.80677e-06
6.55105e-06
-1.20477e-05
1.13258e-05
7.60441e-06
-1.35007e-05
1.24474e-05
8.6436e-06
-1.38528e-05
1.28136e-05
9.54538e-06
-1.3453e-05
1.25513e-05
1.04112e-05
-1.20213e-05
1.11555e-05
1.12086e-05
-1.03661e-05
9.56863e-06
1.17431e-05
-8.45703e-06
7.92258e-06
1.21976e-05
-5.2797e-06
4.8252e-06
1.26151e-05
-2.44839e-06
2.03092e-06
1.28191e-05
1.31173e-07
-3.352e-07
1.28648e-05
3.35004e-06
-3.39579e-06
1.28426e-05
6.63708e-06
-6.6148e-06
1.28512e-05
9.53116e-06
-9.53984e-06
1.27699e-05
1.16019e-05
-1.15206e-05
1.22982e-05
1.35619e-05
-1.30902e-05
1.18681e-05
1.5958e-05
-1.55279e-05
1.15279e-05
1.56755e-05
-1.53354e-05
1.10481e-05
1.65459e-05
-1.60661e-05
1.08356e-05
1.74214e-05
-1.7209e-05
1.07223e-05
1.6841e-05
-1.67277e-05
1.05825e-05
1.70523e-05
-1.69125e-05
1.03791e-05
1.67962e-05
-1.65929e-05
1.0099e-05
1.69709e-05
-1.66908e-05
9.82073e-06
1.66501e-05
-1.63719e-05
9.41341e-06
1.44416e-05
-1.40343e-05
8.93589e-06
1.31063e-05
-1.26288e-05
8.57981e-06
1.335e-05
-1.29939e-05
8.45505e-06
1.14824e-05
-1.13577e-05
8.42941e-06
8.94597e-06
-8.92033e-06
8.30662e-06
8.14081e-06
-8.01803e-06
8.17077e-06
8.4335e-06
-8.29765e-06
8.17422e-06
8.84816e-06
-8.8516e-06
8.40108e-06
9.4535e-06
-9.68037e-06
8.40702e-06
9.16433e-06
-9.17027e-06
7.94949e-06
7.55835e-06
-7.10081e-06
7.85139e-06
6.4436e-06
-6.34551e-06
8.23183e-06
6.15037e-06
-6.53081e-06
8.30526e-06
7.00744e-06
-7.08087e-06
8.13264e-06
8.04624e-06
-7.87362e-06
8.32624e-06
7.24778e-06
-7.44139e-06
8.98293e-06
7.18466e-06
-7.84135e-06
9.64904e-06
8.72652e-06
-9.39262e-06
1.01004e-05
1.03297e-05
-1.07811e-05
1.04506e-05
1.0399e-05
-1.07492e-05
1.09586e-05
1.09502e-05
-1.14582e-05
1.17118e-05
1.22176e-05
-1.29708e-05
1.25826e-05
1.32786e-05
-1.41495e-05
1.31818e-05
1.42176e-05
-1.48168e-05
1.36496e-05
1.46913e-05
-1.5159e-05
1.41795e-05
1.33741e-05
-1.3904e-05
1.4362e-05
1.30492e-05
-1.32317e-05
1.42224e-05
1.16e-05
-1.14605e-05
1.4137e-05
7.82905e-06
-7.74362e-06
1.39966e-05
5.66848e-06
-5.5281e-06
1.37251e-05
2.92041e-06
-2.64884e-06
1.34276e-05
-2.31061e-06
2.60802e-06
1.30094e-05
-6.7695e-06
7.1877e-06
1.25614e-05
-9.49098e-06
9.93899e-06
1.22265e-05
-1.39724e-05
1.43073e-05
1.18144e-05
-1.94318e-05
1.98439e-05
1.13474e-05
-2.30212e-05
2.34882e-05
1.08753e-05
-2.51721e-05
2.56442e-05
1.04856e-05
-2.67609e-05
2.71505e-05
1.01484e-05
-2.72252e-05
2.75624e-05
9.8241e-06
-2.64734e-05
2.67977e-05
9.65101e-06
-2.53136e-05
2.54867e-05
9.7384e-06
-2.44695e-05
2.43822e-05
1.00431e-05
-2.43268e-05
2.40221e-05
1.04364e-05
-2.45542e-05
2.41609e-05
1.07834e-05
-2.43587e-05
2.40117e-05
1.10141e-05
-2.36199e-05
2.33892e-05
1.11669e-05
-2.28747e-05
2.27219e-05
1.1299e-05
-2.20657e-05
2.19337e-05
1.14163e-05
-2.05015e-05
2.03843e-05
1.14343e-05
-1.81034e-05
1.80854e-05
1.13959e-05
-1.49535e-05
1.49919e-05
1.13205e-05
-1.11846e-05
1.126e-05
1.1114e-05
-7.15526e-06
7.36174e-06
1.07436e-05
-3.59115e-06
3.96164e-06
1.031e-05
-5.51482e-07
9.85079e-07
1.00063e-05
2.18853e-06
-1.88487e-06
1.01014e-05
4.90506e-06
-5.00015e-06
1.04033e-05
7.03081e-06
-7.33272e-06
1.06306e-05
9.5833e-06
-9.81063e-06
1.05532e-05
1.18794e-05
-1.18019e-05
1.04687e-05
1.41205e-05
-1.40361e-05
1.04287e-05
1.46297e-05
-1.45897e-05
1.02505e-05
1.46614e-05
-1.44831e-05
1.01284e-05
1.49626e-05
-1.48405e-05
9.94419e-06
1.37157e-05
-1.35315e-05
9.46085e-06
1.36693e-05
-1.31859e-05
8.65644e-06
1.60419e-05
-1.52374e-05
8.07408e-06
2.06906e-05
-2.01083e-05
7.83519e-06
2.01086e-05
-1.98697e-05
7.86341e-06
1.89005e-05
-1.89287e-05
7.52994e-06
1.91043e-05
-1.87708e-05
7.23903e-06
1.94182e-05
-1.91273e-05
6.75387e-06
1.90874e-05
-1.86022e-05
6.78177e-06
2.04307e-05
-2.04586e-05
7.00206e-06
2.08702e-05
-2.10905e-05
6.83934e-06
2.13967e-05
-2.1234e-05
6.43248e-06
1.81326e-05
-1.77257e-05
6.38438e-06
1.89227e-05
-1.88746e-05
6.26864e-06
2.00304e-05
-1.99147e-05
6.37974e-06
2.0136e-05
-2.02471e-05
6.76109e-06
2.09308e-05
-2.13121e-05
7.1516e-06
2.09813e-05
-2.13718e-05
7.36012e-06
1.97393e-05
-1.99478e-05
7.58326e-06
1.78127e-05
-1.80358e-05
7.99714e-06
1.27469e-05
-1.31608e-05
8.56939e-06
9.86508e-06
-1.04373e-05
9.28893e-06
6.26592e-06
-6.98546e-06
9.58333e-06
4.63589e-06
-4.93029e-06
1e-05
1.05983e-07
-5.22694e-07
1.035e-05
-3.33859e-06
2.98859e-06
1.06862e-05
-7.3368e-06
7.00067e-06
1.09504e-05
-1.045e-05
1.01858e-05
1.10102e-05
-1.51844e-05
1.51245e-05
1.04721e-05
-1.67175e-05
1.72556e-05
9.87379e-06
-1.75407e-05
1.8139e-05
9.56462e-06
-1.96675e-05
1.99767e-05
9.59654e-06
-2.08967e-05
2.08647e-05
9.72191e-06
-1.87702e-05
1.86448e-05
9.7929e-06
-1.50058e-05
1.49349e-05
9.57732e-06
-1.23444e-05
1.256e-05
9.08998e-06
-1.0905e-05
1.13923e-05
8.14925e-06
-8.01416e-06
8.95489e-06
7.71873e-06
-6.57087e-06
7.00139e-06
6.77403e-06
-4.62135e-06
5.56606e-06
6.24148e-06
-5.98094e-06
6.51349e-06
6.20676e-06
-4.29783e-06
4.33255e-06
6.42838e-06
-3.66537e-06
3.44375e-06
5.76587e-06
-2.64347e-06
3.30598e-06
5.50808e-06
-2.85975e-06
3.11753e-06
5.99753e-06
-1.9129e-07
-2.9816e-07
6.89802e-06
4.89486e-06
-5.79535e-06
7.61877e-06
9.63093e-06
-1.03517e-05
8.08112e-06
1.3564e-05
-1.40264e-05
8.30778e-06
1.62223e-05
-1.64489e-05
8.25416e-06
1.82209e-05
-1.81673e-05
7.87175e-06
2.09476e-05
-2.05652e-05
6.90619e-06
2.32608e-05
-2.22953e-05
6.00254e-06
2.54207e-05
-2.4517e-05
6.1717e-06
3.02701e-05
-3.04393e-05
4.38307e-05
-4.37224e-05
6.06341e-06
7.35477e-06
3.531e-07
8.48536e-06
-1.07486e-06
9.79352e-06
-1.87553e-06
1.1417e-05
-4.31898e-06
1.26774e-05
-7.77956e-06
1.33383e-05
-1.14842e-05
1.32947e-05
-1.62622e-05
1.26575e-05
-1.78079e-05
1.14514e-05
-1.74974e-05
1.05471e-05
-1.67104e-05
9.45648e-06
-1.40136e-05
8.57185e-06
-1.15216e-05
8.10023e-06
-8.30946e-06
7.19087e-06
-6.62102e-06
7.25012e-06
-5.41423e-06
7.48538e-06
-7.1427e-07
6.4813e-06
1.43318e-07
6.18852e-06
-9.72863e-07
7.98887e-06
6.06268e-06
9.84695e-06
1.40023e-05
1.07849e-05
1.62536e-05
1.13498e-05
1.498e-05
1.154e-05
1.27893e-05
1.17014e-05
9.99675e-06
1.20589e-05
8.45741e-06
1.26543e-05
7.19409e-06
1.32924e-05
6.50863e-06
1.39885e-05
5.80568e-06
1.43297e-05
6.09773e-06
1.47017e-05
5.64339e-06
1.52545e-05
2.26437e-06
1.56445e-05
-3.80517e-07
1.58528e-05
-1.42997e-06
1.61854e-05
-3.34155e-06
1.67431e-05
-8.98362e-06
1.67276e-05
-1.52313e-05
1.62225e-05
-1.83023e-05
1.60717e-05
-2.02807e-05
1.62303e-05
-2.31107e-05
1.60892e-05
-2.54627e-05
1.56154e-05
-2.67452e-05
1.52774e-05
-2.80215e-05
1.51559e-05
-2.99331e-05
1.4811e-05
-3.15355e-05
1.40346e-05
-3.13183e-05
1.29815e-05
-2.96389e-05
1.18764e-05
-2.75138e-05
1.06404e-05
-2.47817e-05
9.13255e-06
-2.14278e-05
7.53546e-06
-1.78587e-05
6.23348e-06
-1.45193e-05
5.47033e-06
-1.23483e-05
5.18935e-06
-1.12116e-05
5.28488e-06
-1.01597e-05
5.70121e-06
-1.04733e-05
6.45711e-06
-1.28036e-05
7.48157e-06
-1.45252e-05
8.4487e-06
-1.48199e-05
9.28408e-06
-1.42884e-05
1.00942e-05
-1.28314e-05
1.08145e-05
-1.10864e-05
1.13034e-05
-8.94594e-06
1.17394e-05
-5.71574e-06
1.21152e-05
-2.82415e-06
1.23002e-05
-5.37772e-08
1.23376e-05
3.31257e-06
1.2291e-05
6.68371e-06
1.23254e-05
9.4968e-06
1.22972e-05
1.163e-05
1.18989e-05
1.39602e-05
1.15477e-05
1.63091e-05
1.11702e-05
1.6053e-05
1.06622e-05
1.7054e-05
1.04394e-05
1.76442e-05
1.03035e-05
1.69769e-05
1.01662e-05
1.71897e-05
9.99353e-06
1.69689e-05
9.80147e-06
1.7163e-05
9.57527e-06
1.68763e-05
9.21296e-06
1.48039e-05
8.79926e-06
1.352e-05
8.49218e-06
1.36571e-05
8.37571e-06
1.15989e-05
8.30262e-06
9.01906e-06
8.15077e-06
8.29266e-06
8.00752e-06
8.57676e-06
8.02577e-06
8.82991e-06
8.28818e-06
9.19109e-06
8.29756e-06
9.15495e-06
7.86973e-06
7.98617e-06
7.78996e-06
6.52338e-06
8.22125e-06
5.71908e-06
8.36507e-06
6.86362e-06
8.20854e-06
8.20277e-06
8.27748e-06
7.17884e-06
8.82905e-06
6.63309e-06
9.56952e-06
7.98604e-06
1.01597e-05
9.73959e-06
1.05225e-05
1.00362e-05
1.09521e-05
1.05206e-05
1.16772e-05
1.14925e-05
1.25734e-05
1.23824e-05
1.32307e-05