/*--------------------------------*- C++ -*----------------------------------*\
| =========                 |                                                 |
| \\      /  F ield         | OpenFOAM: The Open Source CFD Toolbox           |
|  \\    /   O peration     | Version:  2.4.0                                 |
|   \\  /    A nd           | Web:      www.OpenFOAM.org                      |
|    \\/     M anipulation  |                                                 |
\*---------------------------------------------------------------------------*/
FoamFile
{
    version     2.0;
    format      ascii;
    class       volSymmTensorField;
    location    "0.115";
    object      UPrime2Mean;
}
// * * * * * * * * * * * * * * * * * * * * * * * * * * * * * * * * * * * * * //

dimensions      [0 2 -2 0 0 0 0];

internalField   nonuniform List<symmTensor> 
17600
(
(0.0340895 -0.00369502 0 0.000557705 0 0)
(0.350959 -0.00142462 0 3.22832e-05 0 0)
(0.455626 -1.21135e-05 0 2.27669e-06 0 0)
(0.505441 -0.000367454 0 1.40248e-06 0 0)
(0.540222 -0.000276977 0 6.81213e-07 0 0)
(0.566046 -0.000118032 0 4.08687e-07 0 0)
(0.583288 -2.77453e-05 0 2.85464e-07 0 0)
(0.598035 9.24349e-07 0 2.02209e-07 0 0)
(0.606554 1.99344e-05 0 2.30651e-07 0 0)
(0.616205 -5.12001e-06 0 2.48654e-07 0 0)
(0.620532 7.0227e-06 0 2.91242e-07 0 0)
(0.629673 -5.60102e-05 0 3.92774e-07 0 0)
(0.633504 -2.84721e-05 0 5.0521e-07 0 0)
(0.645135 -0.000132571 0 7.02952e-07 0 0)
(0.651356 -0.000111491 0 9.63685e-07 0 0)
(0.672446 -0.000397358 0 2.6005e-06 0 0)
(0.690667 -0.000564481 0 2.81714e-06 0 0)
(0.772361 0.000406101 0 1.9755e-05 0 0)
(0.905581 -0.0257224 0 0.00107114 0 0)
(1.63736 0.128322 0 0.0160854 0 0)
(0.0165027 0.00739357 0 0.00581151 0 0)
(0.143187 -0.0137032 0 0.00138514 0 0)
(0.28905 -0.00772077 0 0.000209793 0 0)
(0.387869 -0.00545564 0 8.40826e-05 0 0)
(0.471867 -0.00444513 0 6.50926e-05 0 0)
(0.55406 -0.0036815 0 5.92747e-05 0 0)
(0.618425 -0.00287651 0 4.61191e-05 0 0)
(0.679415 -0.00221235 0 2.93186e-05 0 0)
(0.716717 -0.0016557 0 1.58199e-05 0 0)
(0.760926 -0.00143412 0 1.01598e-05 0 0)
(0.779647 -0.00121418 0 5.76115e-06 0 0)
(0.821248 -0.00137782 0 6.24707e-06 0 0)
(0.832932 -0.00136848 0 9.12021e-06 0 0)
(0.882369 -0.00155693 0 9.26838e-06 0 0)
(0.892441 -0.00224302 0 1.87471e-05 0 0)
(0.972567 -0.00213329 0 1.92301e-05 0 0)
(0.970622 -0.00635234 0 8.61202e-05 0 0)
(1.27875 -0.00930165 0 0.000130637 0 0)
(1.13879 -0.0289417 0 0.00133765 0 0)
(3.45092 -0.398427 0 0.0698494 0 0)
(0.058387 0.0221572 0 0.00916289 0 0)
(0.0236665 -0.0087386 0 0.00395503 0 0)
(0.100838 -0.00976743 0 0.00102784 0 0)
(0.174659 -0.00929911 0 0.000505083 0 0)
(0.254164 -0.00911684 0 0.000381265 0 0)
(0.35123 -0.00870061 0 0.000340522 0 0)
(0.43671 -0.00753881 0 0.000278197 0 0)
(0.526912 -0.00624994 0 0.000187025 0 0)
(0.584246 -0.00495607 0 0.000110281 0 0)
(0.657208 -0.00431376 0 6.66937e-05 0 0)
(0.686595 -0.00368851 0 3.45578e-05 0 0)
(0.758335 -0.00407511 0 3.83863e-05 0 0)
(0.773042 -0.00384913 0 3.91679e-05 0 0)
(0.85811 -0.00473063 0 5.43763e-05 0 0)
(0.865581 -0.00553975 0 7.54325e-05 0 0)
(0.989521 -0.00673866 0 9.3414e-05 0 0)
(0.986977 -0.0145124 0 0.000345096 0 0)
(1.31201 -0.0186142 0 0.00062893 0 0)
(1.3266 -0.0747399 0 0.00702701 0 0)
(2.89157 -0.501732 0 0.150111 0 0)
(0.0774274 0.0245817 0 0.00827071 0 0)
(0.00192431 0.00163856 0 0.006174 0 0)
(0.0132961 -0.00364055 0 0.00225815 0 0)
(0.0319744 -0.00586475 0 0.00134065 0 0)
(0.0615107 -0.0079389 0 0.00107985 0 0)
(0.118578 -0.00971125 0 0.000972514 0 0)
(0.18017 -0.00974618 0 0.000831619 0 0)
(0.260209 -0.00904453 0 0.000583756 0 0)
(0.313315 -0.0075773 0 0.000371648 0 0)
(0.390308 -0.0068427 0 0.000220286 0 0)
(0.41873 -0.00617765 0 0.000127978 0 0)
(0.500988 -0.00615542 0 0.000107564 0 0)
(0.512372 -0.00691049 0 0.000132326 0 0)
(0.611107 -0.00588547 0 0.00013417 0 0)
(0.614615 -0.010747 0 0.000292918 0 0)
(0.739086 -0.00497357 0 0.000228023 0 0)
(0.767384 -0.0270302 0 0.00144745 0 0)
(0.928897 -0.0109164 0 0.000930196 0 0)
(1.25688 -0.135066 0 0.0238838 0 0)
(1.55028 -0.217226 0 0.0944499 0 0)
(0.072203 0.0198376 0 0.00578752 0 0)
(0.00702947 0.00630194 0 0.00644216 0 0)
(0.00964422 0.00342423 0 0.00281077 0 0)
(0.0101902 0.002108 0 0.00205643 0 0)
(0.00644508 0.0001153 0 0.00193735 0 0)
(0.0110154 -0.00345299 0 0.00185251 0 0)
(0.0261978 -0.00545674 0 0.00166487 0 0)
(0.0616955 -0.00703955 0 0.00124175 0 0)
(0.0884112 -0.00647013 0 0.000826664 0 0)
(0.13889 -0.00679951 0 0.000521002 0 0)
(0.15531 -0.00595951 0 0.000284604 0 0)
(0.21725 -0.00715488 0 0.000301118 0 0)
(0.226522 -0.00642783 0 0.000224627 0 0)
(0.297119 -0.00891595 0 0.000386412 0 0)
(0.315765 -0.00717222 0 0.000366868 0 0)
(0.384112 -0.0149326 0 0.000778031 0 0)
(0.440235 -0.00861278 0 0.00115298 0 0)
(0.525665 -0.0462596 0 0.00710197 0 0)
(0.699231 -0.0476306 0 0.0116727 0 0)
(0.98656 -0.304131 0 0.259145 0 0)
(0.0674668 0.0161657 0 0.00413474 0 0)
(0.00650555 0.00553102 0 0.0057336 0 0)
(0.0149648 0.00498723 0 0.00240754 0 0)
(0.0262844 0.0061009 0 0.00196424 0 0)
(0.0329636 0.00742739 0 0.00227549 0 0)
(0.0236661 0.00543535 0 0.00248458 0 0)
(0.0186153 0.003621 0 0.0024376 0 0)
(0.0124156 2.50512e-05 0 0.00192758 0 0)
(0.0139428 -0.000769352 0 0.0014466 0 0)
(0.0239012 -0.00265874 0 0.000901564 0 0)
(0.0254269 -0.00263665 0 0.000591357 0 0)
(0.049721 -0.00376639 0 0.000496108 0 0)
(0.0495282 -0.00469705 0 0.0005756 0 0)
(0.084678 -0.00461331 0 0.000555491 0 0)
(0.0901152 -0.00809898 0 0.00117143 0 0)
(0.129761 -0.00547079 0 0.000905186 0 0)
(0.147421 -0.0174282 0 0.00427916 0 0)
(0.208637 -0.0112917 0 0.00288227 0 0)
(0.272614 -0.0713772 0 0.0395681 0 0)
(0.46232 -0.138028 0 0.129115 0 0)
(0.0676518 0.0139561 0 0.00308455 0 0)
(0.00546295 0.0040906 0 0.00509683 0 0)
(0.0141022 0.0041305 0 0.00192456 0 0)
(0.028287 0.00546903 0 0.00143528 0 0)
(0.0477411 0.00866022 0 0.00192334 0 0)
(0.0487105 0.00913778 0 0.00241511 0 0)
(0.0578664 0.00976294 0 0.00264282 0 0)
(0.045267 0.00669735 0 0.00231512 0 0)
(0.049629 0.00593067 0 0.00175031 0 0)
(0.0355573 0.00316192 0 0.00130917 0 0)
(0.0390921 0.0031797 0 0.00076696 0 0)
(0.0274486 0.00129249 0 0.000912372 0 0)
(0.0305762 0.00111719 0 0.000601863 0 0)
(0.0227622 -0.000339065 0 0.00111564 0 0)
(0.0285357 -0.000959237 0 0.00102971 0 0)
(0.0245754 -0.00221313 0 0.0022083 0 0)
(0.0307566 -0.00347556 0 0.00269325 0 0)
(0.0406062 -0.00811014 0 0.0119122 0 0)
(0.0658555 -0.020628 0 0.0200322 0 0)
(0.157074 -0.0636237 0 0.177559 0 0)
(0.0703515 0.0122105 0 0.00229806 0 0)
(0.00602016 0.00303266 0 0.004483 0 0)
(0.0129935 0.00338545 0 0.00170108 0 0)
(0.0254931 0.00423263 0 0.00106167 0 0)
(0.0453398 0.00730052 0 0.00146831 0 0)
(0.0488727 0.00844838 0 0.00201856 0 0)
(0.0672293 0.0103356 0 0.00235784 0 0)
(0.0620048 0.00843772 0 0.00207601 0 0)
(0.0804092 0.00850869 0 0.00187037 0 0)
(0.0713478 0.00621617 0 0.00133853 0 0)
(0.0877466 0.00711102 0 0.00098364 0 0)
(0.0749089 0.00533949 0 0.000941552 0 0)
(0.0868693 0.0063251 0 0.00108935 0 0)
(0.0688621 0.00459329 0 0.00113777 0 0)
(0.0777947 0.00547605 0 0.00197143 0 0)
(0.0552607 0.00381867 0 0.00197477 0 0)
(0.0576135 0.00564374 0 0.00482419 0 0)
(0.0367656 0.00705459 0 0.00760215 0 0)
(0.0405319 0.00517769 0 0.0330615 0 0)
(0.0751112 0.0179288 0 0.195008 0 0)
(0.0734927 0.010684 0 0.00170249 0 0)
(0.00654892 0.00229634 0 0.00375669 0 0)
(0.0111999 0.00278469 0 0.0015719 0 0)
(0.0223702 0.00336391 0 0.000805593 0 0)
(0.0395544 0.00592158 0 0.00110518 0 0)
(0.0429891 0.00714483 0 0.00162224 0 0)
(0.0592741 0.0089343 0 0.00200939 0 0)
(0.0575516 0.00759058 0 0.00196797 0 0)
(0.0774698 0.00780222 0 0.0014584 0 0)
(0.0752253 0.00656809 0 0.00130665 0 0)
(0.0980934 0.00679173 0 0.000828278 0 0)
(0.0935522 0.00725908 0 0.00114451 0 0)
(0.116886 0.00652102 0 0.000909037 0 0)
(0.106465 0.00891487 0 0.00149736 0 0)
(0.126897 0.00652571 0 0.00180446 0 0)
(0.108368 0.0115489 0 0.00281765 0 0)
(0.119629 0.00962832 0 0.00430274 0 0)
(0.0945426 0.0199485 0 0.0113676 0 0)
(0.099174 0.0295144 0 0.0341559 0 0)
(0.114569 0.0606129 0 0.146828 0 0)
(0.0736625 0.00916472 0 0.00126188 0 0)
(0.00452723 0.00179258 0 0.00308744 0 0)
(0.00794203 0.00218285 0 0.00148698 0 0)
(0.0186563 0.00271575 0 0.00063177 0 0)
(0.0333111 0.00466274 0 0.000849909 0 0)
(0.0381149 0.00608655 0 0.00132753 0 0)
(0.0493269 0.00742666 0 0.00168068 0 0)
(0.0516442 0.00670522 0 0.00152774 0 0)
(0.0652056 0.00640643 0 0.00140655 0 0)
(0.0702199 0.00547884 0 0.00119964 0 0)
(0.0846418 0.00590875 0 0.000857405 0 0)
(0.0924791 0.00610108 0 0.000982977 0 0)
(0.106971 0.0060871 0 0.00106925 0 0)
(0.113753 0.00777981 0 0.00140257 0 0)
(0.125293 0.00704394 0 0.0020173 0 0)
(0.129681 0.0116264 0 0.00278884 0 0)
(0.133593 0.0111581 0 0.00463364 0 0)
(0.132401 0.028034 0 0.0130887 0 0)
(0.131088 0.0347801 0 0.0319028 0 0)
(0.161443 0.0931905 0 0.166502 0 0)
(0.0709446 0.00761567 0 0.000914229 0 0)
(0.00255401 0.00139455 0 0.00250376 0 0)
(0.00611282 0.0015666 0 0.00141413 0 0)
(0.0162968 0.00212824 0 0.000521215 0 0)
(0.0283455 0.00349106 0 0.000668054 0 0)
(0.0353626 0.00508878 0 0.0010991 0 0)
(0.0428982 0.00594815 0 0.00144022 0 0)
(0.0483545 0.00573271 0 0.00153052 0 0)
(0.05714 0.00472003 0 0.00110934 0 0)
(0.0652688 0.00479637 0 0.00110708 0 0)
(0.0748062 0.00405427 0 0.000747717 0 0)
(0.0872887 0.00547914 0 0.00103613 0 0)
(0.0960634 0.00420527 0 0.000984153 0 0)
(0.107631 0.00724808 0 0.00135771 0 0)
(0.11483 0.0056038 0 0.00188233 0 0)
(0.125588 0.010661 0 0.00250068 0 0)
(0.127097 0.0120642 0 0.00459774 0 0)
(0.1322 0.0252647 0 0.0112709 0 0)
(0.133314 0.0408279 0 0.0352871 0 0)
(0.166451 0.0941075 0 0.140143 0 0)
(0.0700442 0.00627621 0 0.000662171 0 0)
(0.00281252 0.000973346 0 0.00198705 0 0)
(0.00591616 0.00101187 0 0.00133512 0 0)
(0.0151302 0.00155111 0 0.000419964 0 0)
(0.0264274 0.0025214 0 0.00053517 0 0)
(0.0334742 0.00401972 0 0.00091841 0 0)
(0.039478 0.00480786 0 0.00122519 0 0)
(0.0447113 0.00465626 0 0.0012214 0 0)
(0.0515388 0.0038271 0 0.00104857 0 0)
(0.0597877 0.00357522 0 0.00106507 0 0)
(0.0691175 0.00323732 0 0.000710462 0 0)
(0.080235 0.00416937 0 0.000894735 0 0)
(0.0883553 0.00345495 0 0.000968087 0 0)
(0.0985115 0.006119 0 0.0012677 0 0)
(0.106874 0.00468543 0 0.00167007 0 0)
(0.115421 0.0107791 0 0.00265475 0 0)
(0.118306 0.0109251 0 0.00411824 0 0)
(0.123516 0.0273327 0 0.0126406 0 0)
(0.129564 0.0415731 0 0.0337562 0 0)
(0.16339 0.0917547 0 0.13078 0 0)
(0.0704219 0.00520764 0 0.000476558 0 0)
(0.00296234 0.000689358 0 0.00153603 0 0)
(0.00496283 0.000671095 0 0.0012265 0 0)
(0.0133453 0.0012236 0 0.000355658 0 0)
(0.0243286 0.00189076 0 0.00042837 0 0)
(0.0302584 0.00322358 0 0.00074699 0 0)
(0.0354388 0.00401356 0 0.00103792 0 0)
(0.0397978 0.00397321 0 0.00112246 0 0)
(0.0466523 0.00312936 0 0.000833278 0 0)
(0.0548546 0.0031084 0 0.00081429 0 0)
(0.0634863 0.00254348 0 0.000575068 0 0)
(0.0728992 0.00374501 0 0.000801095 0 0)
(0.0809821 0.00306865 0 0.000849531 0 0)
(0.0909993 0.00547005 0 0.000971572 0 0)
(0.0983353 0.00475921 0 0.00141014 0 0)
(0.10653 0.00931602 0 0.00205474 0 0)
(0.110102 0.0119453 0 0.00392577 0 0)
(0.116825 0.0265341 0 0.0118642 0 0)
(0.125112 0.0419894 0 0.0327306 0 0)
(0.163827 0.093885 0 0.121717 0 0)
(0.0700302 0.00427172 0 0.000333465 0 0)
(0.00216449 0.00052452 0 0.00114792 0 0)
(0.00394967 0.000437444 0 0.000989401 0 0)
(0.0116606 0.00105404 0 0.00026654 0 0)
(0.0214749 0.0015489 0 0.000307017 0 0)
(0.0275508 0.002761 0 0.000564766 0 0)
(0.0318759 0.00349748 0 0.00079076 0 0)
(0.0365183 0.00356643 0 0.000800855 0 0)
(0.0425117 0.00287404 0 0.000594656 0 0)
(0.0507348 0.00281311 0 0.000631774 0 0)
(0.0576409 0.00234998 0 0.000432051 0 0)
(0.0675259 0.00348033 0 0.000588513 0 0)
(0.0748397 0.00284172 0 0.000642897 0 0)
(0.0850461 0.00534667 0 0.000776104 0 0)
(0.0904846 0.00447897 0 0.00109022 0 0)
(0.100073 0.00958625 0 0.00192518 0 0)
(0.103451 0.0118867 0 0.00357715 0 0)
(0.11281 0.026067 0 0.0115638 0 0)
(0.122663 0.0426144 0 0.0320783 0 0)
(0.164823 0.0937059 0 0.111606 0 0)
(0.0695082 0.00342285 0 0.000231663 0 0)
(0.00136523 0.000417889 0 0.000842018 0 0)
(0.00357187 0.000331999 0 0.000738679 0 0)
(0.0105554 0.000942294 0 0.000218729 0 0)
(0.019254 0.0013289 0 0.000227748 0 0)
(0.025675 0.00243763 0 0.000403782 0 0)
(0.0293261 0.00304821 0 0.000589737 0 0)
(0.0339626 0.00311355 0 0.000629899 0 0)
(0.0388043 0.00242984 0 0.000447629 0 0)
(0.0471061 0.00240598 0 0.000444749 0 0)
(0.0531898 0.00202049 0 0.000324423 0 0)
(0.0637211 0.00304647 0 0.000452974 0 0)
(0.069865 0.00250008 0 0.000530084 0 0)
(0.0802925 0.00438079 0 0.000612129 0 0)
(0.0846048 0.00408551 0 0.000929248 0 0)
(0.0957286 0.00859133 0 0.00173823 0 0)
(0.0985043 0.0113847 0 0.00347156 0 0)
(0.111352 0.0250687 0 0.0114719 0 0)
(0.121982 0.042553 0 0.0311319 0 0)
(0.168659 0.0917112 0 0.102056 0 0)
(0.0696202 0.00267243 0 0.000155128 0 0)
(0.00130359 0.000279464 0 0.000582024 0 0)
(0.00346167 0.000194489 0 0.000512632 0 0)
(0.00974255 0.000710175 0 0.00018405 0 0)
(0.0182636 0.000969492 0 0.000184506 0 0)
(0.0242847 0.00188895 0 0.00030824 0 0)
(0.0276248 0.00235025 0 0.00045636 0 0)
(0.0317278 0.00234827 0 0.000476159 0 0)
(0.0364149 0.00175719 0 0.000356987 0 0)
(0.0439791 0.00169607 0 0.000392411 0 0)
(0.0504519 0.00138864 0 0.000295169 0 0)
(0.0600551 0.00232557 0 0.00038471 0 0)
(0.0665166 0.00175487 0 0.000472717 0 0)
(0.0760458 0.00342121 0 0.000564246 0 0)
(0.0813798 0.00321737 0 0.0008495 0 0)
(0.0915782 0.00743927 0 0.00166124 0 0)
(0.0963257 0.010458 0 0.00344334 0 0)
(0.109734 0.0239819 0 0.0111763 0 0)
(0.123549 0.0419189 0 0.0299842 0 0)
(0.171989 0.0899328 0 0.0931924 0 0)
(0.0698054 0.00201173 0 0.000107279 0 0)
(0.00121008 0.000132602 0 0.000390354 0 0)
(0.00334287 9.47444e-06 0 0.000365976 0 0)
(0.00908167 0.000414803 0 0.000182724 0 0)
(0.0175476 0.000563195 0 0.000184362 0 0)
(0.0229065 0.00120133 0 0.000273097 0 0)
(0.0264991 0.0015568 0 0.00039855 0 0)
(0.029842 0.00152204 0 0.000410603 0 0)
(0.0350056 0.0011117 0 0.000324783 0 0)
(0.0414473 0.00103164 0 0.000339194 0 0)
(0.048777 0.000840486 0 0.000291497 0 0)
(0.0568039 0.00153655 0 0.000368926 0 0)
(0.0645028 0.00108039 0 0.000464113 0 0)
(0.0725051 0.00255589 0 0.000545124 0 0)
(0.0795283 0.00255384 0 0.000785409 0 0)
(0.0878821 0.00654227 0 0.00163041 0 0)
(0.0956904 0.0097679 0 0.00337258 0 0)
(0.107924 0.0231109 0 0.0108133 0 0)
(0.126198 0.0409492 0 0.0286706 0 0)
(0.173224 0.0879977 0 0.0854563 0 0)
(0.069908 0.00139164 0 6.76082e-05 0 0)
(0.00128895 7.40542e-05 0 0.000234497 0 0)
(0.00348169 -4.00132e-05 0 0.000221889 0 0)
(0.00888135 0.000274121 0 0.000136842 0 0)
(0.0171308 0.000338788 0 0.000143017 0 0)
(0.0223416 0.000783549 0 0.000198324 0 0)
(0.0259783 0.00100756 0 0.000287602 0 0)
(0.0292157 0.00101404 0 0.000293257 0 0)
(0.0340575 0.000723448 0 0.000230366 0 0)
(0.040306 0.00072225 0 0.000253286 0 0)
(0.0475482 0.000482083 0 0.000238689 0 0)
(0.0553898 0.00108532 0 0.000304823 0 0)
(0.063183 0.000703223 0 0.000380535 0 0)
(0.0710175 0.0019828 0 0.000467961 0 0)
(0.0778735 0.0022465 0 0.000673736 0 0)
(0.0864456 0.00590447 0 0.00149883 0 0)
(0.0950488 0.00962656 0 0.00319132 0 0)
(0.108312 0.022278 0 0.0102343 0 0)
(0.129025 0.0404904 0 0.0271591 0 0)
(0.177328 0.0854454 0 0.0776815 0 0)
(0.0698378 0.000842998 0 4.45077e-05 0 0)
(0.00123917 6.07762e-05 0 0.00012381 0 0)
(0.00349266 2.73427e-05 0 0.000116106 0 0)
(0.00862706 0.000231254 0 8.98753e-05 0 0)
(0.0164399 0.000263366 0 0.000102628 0 0)
(0.0219091 0.000516666 0 0.000122032 0 0)
(0.0251499 0.000729647 0 0.000172244 0 0)
(0.0287118 0.000662268 0 0.000169666 0 0)
(0.0330012 0.000514637 0 0.000145557 0 0)
(0.0396369 0.000420546 0 0.000157696 0 0)
(0.0461267 0.000306618 0 0.000170343 0 0)
(0.0545788 0.000702018 0 0.000200177 0 0)
(0.061561 0.000516484 0 0.000272356 0 0)
(0.0701653 0.00145813 0 0.000339581 0 0)
(0.0760957 0.00201179 0 0.000548344 0 0)
(0.0860335 0.00529833 0 0.00130807 0 0)
(0.094017 0.00949527 0 0.00296841 0 0)
(0.110133 0.0213621 0 0.00969363 0 0)
(0.131722 0.0401019 0 0.0252135 0 0)
(0.183555 0.0820524 0 0.0714789 0 0)
(0.0698351 0.000279332 0 3.16328e-05 0 0)
(0.00114682 8.54745e-06 0 7.64346e-05 0 0)
(0.00333623 1.83716e-05 0 6.95225e-05 0 0)
(0.00839152 9.48744e-05 0 7.38489e-05 0 0)
(0.0161131 7.96171e-05 0 8.91005e-05 0 0)
(0.0215355 0.000216823 0 9.47562e-05 0 0)
(0.0246412 0.000290819 0 0.00012267 0 0)
(0.0279319 0.000317315 0 0.000123782 0 0)
(0.0324269 0.000146429 0 0.000120255 0 0)
(0.0390046 0.000161744 0 0.000135367 0 0)
(0.0455085 -6.15239e-05 0 0.000156825 0 0)
(0.0536422 0.000464049 0 0.000178036 0 0)
(0.0606888 5.81019e-05 0 0.000241662 0 0)
(0.0691207 0.00119213 0 0.000313319 0 0)
(0.0756237 0.00136087 0 0.00049479 0 0)
(0.085614 0.00501947 0 0.00126243 0 0)
(0.0947135 0.0085996 0 0.00275306 0 0)
(0.112197 0.0207967 0 0.00930109 0 0)
(0.136142 0.0386946 0 0.0232347 0 0)
(0.190638 0.0778172 0 0.0650022 0 0)
(0.0698357 -0.000249536 0 3.25135e-05 0 0)
(0.00111656 -8.38501e-05 0 8.47931e-05 0 0)
(0.00330353 -8.48618e-05 0 8.37028e-05 0 0)
(0.00833699 -0.000140019 0 8.62679e-05 0 0)
(0.0161356 -0.000135181 0 9.31192e-05 0 0)
(0.0213366 -0.000248295 0 9.91341e-05 0 0)
(0.0245567 -0.000235756 0 0.000126556 0 0)
(0.0274729 -0.000282281 0 0.000132259 0 0)
(0.0323837 -0.00024047 0 0.000128872 0 0)
(0.0385975 -0.000315303 0 0.000129241 0 0)
(0.0456316 -0.000319831 0 0.000137265 0 0)
(0.0530886 -8.7256e-05 0 0.000157913 0 0)
(0.0608677 -0.000200968 0 0.000193102 0 0)
(0.0686308 0.000430228 0 0.000293945 0 0)
(0.0763309 0.00115863 0 0.000430838 0 0)
(0.0857986 0.00399734 0 0.00116294 0 0)
(0.0971044 0.00840116 0 0.00267381 0 0)
(0.114799 0.0190843 0 0.00849742 0 0)
(0.142178 0.0383183 0 0.0221453 0 0)
(0.198313 0.0722025 0 0.0572962 0 0)
(0.0698099 -0.000803375 0 4.08883e-05 0 0)
(0.00115606 -0.000133775 0 0.000132179 0 0)
(0.00341755 -0.00012434 0 0.000123028 0 0)
(0.00853823 -0.000315832 0 9.9594e-05 0 0)
(0.0163517 -0.000339582 0 0.000102684 0 0)
(0.0215894 -0.000643608 0 0.00011921 0 0)
(0.0247267 -0.00079529 0 0.000165769 0 0)
(0.0278189 -0.000847837 0 0.000182402 0 0)
(0.0326157 -0.000709498 0 0.000175585 0 0)
(0.0389381 -0.000681615 0 0.000149195 0 0)
(0.0459369 -0.000700845 0 0.000156342 0 0)
(0.0535899 -0.000496763 0 0.000160993 0 0)
(0.0614018 -0.000722945 0 0.000212105 0 0)
(0.069459 -5.11822e-05 0 0.000286438 0 0)
(0.0773695 0.000458436 0 0.000444936 0 0)
(0.0874834 0.00347953 0 0.00109418 0 0)
(0.0997206 0.00729416 0 0.0024879 0 0)
(0.118882 0.0184738 0 0.00798304 0 0)
(0.148455 0.0356129 0 0.019704 0 0)
(0.205467 0.0731277 0 0.0518695 0 0)
(0.0697563 -0.00136917 0 5.93594e-05 0 0)
(0.00116435 -0.000167776 0 0.0002239 0 0)
(0.00342408 -0.000101726 0 0.000189226 0 0)
(0.00881537 -0.000441118 0 0.000111234 0 0)
(0.0167442 -0.000532758 0 0.000113726 0 0)
(0.0220704 -0.00103097 0 0.000151403 0 0)
(0.0252566 -0.001291 0 0.000216601 0 0)
(0.028652 -0.0013802 0 0.000245694 0 0)
(0.0333554 -0.00113097 0 0.000226261 0 0)
(0.0398653 -0.00103678 0 0.000176172 0 0)
(0.0468497 -0.00106822 0 0.00017691 0 0)
(0.0548624 -0.000932153 0 0.000175716 0 0)
(0.0625624 -0.00121821 0 0.000240449 0 0)
(0.0710928 -0.000558717 0 0.000277144 0 0)
(0.0792128 -0.000230098 0 0.000511792 0 0)
(0.0901868 0.00283528 0 0.00100935 0 0)
(0.102994 0.00621157 0 0.00250031 0 0)
(0.124011 0.0175733 0 0.00730299 0 0)
(0.155799 0.0328469 0 0.0182393 0 0)
(0.214966 0.0727789 0 0.0474656 0 0)
(0.0696846 -0.00196741 0 9.03038e-05 0 0)
(0.00113478 -0.000224361 0 0.000368855 0 0)
(0.00339857 -0.000116608 0 0.000292941 0 0)
(0.00915332 -0.000570755 0 0.000123358 0 0)
(0.0173684 -0.000741169 0 0.000124059 0 0)
(0.0227751 -0.00147837 0 0.000199996 0 0)
(0.0262614 -0.00175608 0 0.000275738 0 0)
(0.0297932 -0.00193321 0 0.000333702 0 0)
(0.0347283 -0.00146791 0 0.000264795 0 0)
(0.0412022 -0.00149191 0 0.000225788 0 0)
(0.0485905 -0.0013357 0 0.000178729 0 0)
(0.0566809 -0.00154886 0 0.000219231 0 0)
(0.0647739 -0.00149415 0 0.000214188 0 0)
(0.0733187 -0.00141326 0 0.000340495 0 0)
(0.0821681 -0.000479517 0 0.000470564 0 0)
(0.0934541 0.00156236 0 0.00106027 0 0)
(0.107609 0.00592039 0 0.00232962 0 0)
(0.129814 0.0152097 0 0.00662236 0 0)
(0.164418 0.0320027 0 0.0169306 0 0)
(0.224617 0.065044 0 0.039119 0 0)
(0.0695228 -0.00264523 0 0.000140688 0 0)
(0.00105603 -0.000295035 0 0.000566966 0 0)
(0.00333702 -0.000180061 0 0.000465285 0 0)
(0.00957743 -0.000701257 0 0.000147306 0 0)
(0.0180872 -0.00100542 0 0.000160174 0 0)
(0.0238198 -0.00189349 0 0.000272379 0 0)
(0.0274789 -0.00234257 0 0.000395253 0 0)
(0.0313529 -0.00241399 0 0.000444499 0 0)
(0.0363369 -0.00194804 0 0.000365658 0 0)
(0.0431748 -0.00184272 0 0.000286836 0 0)
(0.050697 -0.00184753 0 0.000245273 0 0)
(0.0592153 -0.00192764 0 0.000256826 0 0)
(0.0674377 -0.00214502 0 0.000273848 0 0)
(0.076481 -0.00186719 0 0.000366051 0 0)
(0.0855966 -0.00133241 0 0.000519785 0 0)
(0.0977396 0.000967584 0 0.00108393 0 0)
(0.112853 0.00461826 0 0.00211245 0 0)
(0.136919 0.0138792 0 0.00633651 0 0)
(0.174065 0.0289455 0 0.014797 0 0)
(0.236664 0.0593133 0 0.0355289 0 0)
(0.0693815 -0.00336478 0 0.000207289 0 0)
(0.00101505 -0.000418023 0 0.000821311 0 0)
(0.00333736 -0.000318011 0 0.000660573 0 0)
(0.010199 -0.000896725 0 0.000173727 0 0)
(0.0190749 -0.00128274 0 0.000184896 0 0)
(0.0251249 -0.00244216 0 0.0003597 0 0)
(0.0290634 -0.00289076 0 0.000493474 0 0)
(0.033242 -0.00309767 0 0.000589129 0 0)
(0.0384699 -0.00236552 0 0.000427937 0 0)
(0.0456706 -0.00243697 0 0.000370489 0 0)
(0.0534293 -0.00219922 0 0.000257405 0 0)
(0.0622455 -0.00261065 0 0.00030853 0 0)
(0.0708099 -0.00250553 0 0.000273361 0 0)
(0.0803458 -0.00276395 0 0.000420229 0 0)
(0.0900476 -0.00178543 0 0.000548248 0 0)
(0.102971 -0.000253984 0 0.00108585 0 0)
(0.119369 0.00373098 0 0.00206159 0 0)
(0.145221 0.0116512 0 0.00580378 0 0)
(0.185353 0.0258691 0 0.0133406 0 0)
(0.250272 0.0537662 0 0.0324802 0 0)
(0.0692562 -0.00423915 0 0.000311963 0 0)
(0.0010547 -0.000591996 0 0.00112965 0 0)
(0.00348832 -0.000523374 0 0.000914906 0 0)
(0.0110775 -0.00111406 0 0.000214048 0 0)
(0.0204294 -0.00169125 0 0.000251598 0 0)
(0.0267968 -0.00300923 0 0.000486317 0 0)
(0.0311309 -0.00356675 0 0.000668306 0 0)
(0.0356573 -0.00374104 0 0.000770525 0 0)
(0.0413573 -0.00296558 0 0.000570658 0 0)
(0.0488722 -0.00297971 0 0.000487681 0 0)
(0.0570748 -0.002721 0 0.000317325 0 0)
(0.0661439 -0.00321681 0 0.000392869 0 0)
(0.075324 -0.00306351 0 0.000305388 0 0)
(0.0852805 -0.00358752 0 0.000521236 0 0)
(0.0959334 -0.00244169 0 0.000570531 0 0)
(0.109512 -0.00148977 0 0.00117803 0 0)
(0.127593 0.00259973 0 0.00199001 0 0)
(0.154867 0.00914489 0 0.00538161 0 0)
(0.198405 0.0224802 0 0.0121979 0 0)
(0.264881 0.0474962 0 0.0293964 0 0)
(0.0692281 -0.00517618 0 0.000445538 0 0)
(0.00112763 -0.000811364 0 0.00150748 0 0)
(0.00376628 -0.000780863 0 0.00112007 0 0)
(0.0122433 -0.00138906 0 0.000263336 0 0)
(0.0221325 -0.00216862 0 0.000325068 0 0)
(0.0289585 -0.00368991 0 0.000635415 0 0)
(0.0337274 -0.00427539 0 0.000843849 0 0)
(0.0388245 -0.00446661 0 0.000956775 0 0)
(0.0449288 -0.00357947 0 0.000697658 0 0)
(0.0530322 -0.00363035 0 0.000601438 0 0)
(0.0615747 -0.00327962 0 0.000368492 0 0)
(0.0713228 -0.00395064 0 0.000481326 0 0)
(0.0808743 -0.00366033 0 0.000343765 0 0)
(0.0917457 -0.00455395 0 0.000630525 0 0)
(0.102931 -0.00315432 0 0.000618411 0 0)
(0.117843 -0.00290621 0 0.00127554 0 0)
(0.136989 0.00135235 0 0.00198068 0 0)
(0.166488 0.00635334 0 0.00498909 0 0)
(0.212527 0.0187595 0 0.0113442 0 0)
(0.282031 0.0402301 0 0.0263846 0 0)
(0.0697568 -0.00627891 0 0.000634823 0 0)
(0.00121693 -0.00105839 0 0.00197107 0 0)
(0.00426021 -0.00113567 0 0.001261 0 0)
(0.0135592 -0.00173408 0 0.000349314 0 0)
(0.0244768 -0.00279356 0 0.000446641 0 0)
(0.0312787 -0.00442616 0 0.000831853 0 0)
(0.0373032 -0.00512077 0 0.00107557 0 0)
(0.0423524 -0.00522004 0 0.00117956 0 0)
(0.0496137 -0.00430912 0 0.000864377 0 0)
(0.0576778 -0.00432959 0 0.000751466 0 0)
(0.0673691 -0.00396783 0 0.0004448 0 0)
(0.0771598 -0.0047507 0 0.00059648 0 0)
(0.0879185 -0.00436403 0 0.000393256 0 0)
(0.0990515 -0.0056207 0 0.000777188 0 0)
(0.111591 -0.00394375 0 0.000656649 0 0)
(0.127315 -0.00450881 0 0.00145336 0 0)
(0.14812 8.17942e-05 0 0.00190116 0 0)
(0.179511 0.0032024 0 0.00486115 0 0)
(0.228218 0.0149471 0 0.0103256 0 0)
(0.301495 0.031593 0 0.0243238 0 0)
(0.0711178 -0.00760174 0 0.000894607 0 0)
(0.00151497 -0.0013207 0 0.00250218 0 0)
(0.00529776 -0.00162786 0 0.00135968 0 0)
(0.0149512 -0.00212741 0 0.000462486 0 0)
(0.0279517 -0.00362325 0 0.000612507 0 0)
(0.0334493 -0.00516289 0 0.00105333 0 0)
(0.0425698 -0.0061676 0 0.00134253 0 0)
(0.0456552 -0.00589126 0 0.00139641 0 0)
(0.0563403 -0.00529086 0 0.00107429 0 0)
(0.0621012 -0.00493127 0 0.000894029 0 0)
(0.0755838 -0.00490323 0 0.000551534 0 0)
(0.0828552 -0.0054522 0 0.000705561 0 0)
(0.0978574 -0.00536346 0 0.000478763 0 0)
(0.106263 -0.00654614 0 0.000917765 0 0)
(0.123576 -0.00504796 0 0.000730098 0 0)
(0.136743 -0.00597642 0 0.00165101 0 0)
(0.162325 -0.001456 0 0.00183584 0 0)
(0.191753 0.000171404 0 0.00485588 0 0)
(0.244537 0.011162 0 0.0091678 0 0)
(0.316699 0.0229372 0 0.0230363 0 0)
(0.0723191 -0.0091088 0 0.00124705 0 0)
(0.00221317 -0.00164812 0 0.00311507 0 0)
(0.00706713 -0.00225373 0 0.00146302 0 0)
(0.0166544 -0.00259361 0 0.000616948 0 0)
(0.0327858 -0.00469461 0 0.000833781 0 0)
(0.035791 -0.00596337 0 0.00131947 0 0)
(0.0499543 -0.00745857 0 0.00164726 0 0)
(0.0489662 -0.00653754 0 0.00163513 0 0)
(0.065935 -0.00658556 0 0.00131709 0 0)
(0.0663822 -0.0055101 0 0.00104983 0 0)
(0.0873541 -0.00611939 0 0.000684301 0 0)
(0.0880879 -0.00612903 0 0.000826051 0 0)
(0.111731 -0.00666495 0 0.000597173 0 0)
(0.111786 -0.00733578 0 0.00107195 0 0)
(0.138294 -0.00637861 0 0.000830306 0 0)
(0.141043 -0.00704027 0 0.00181581 0 0)
(0.174384 -0.00293118 0 0.00183465 0 0)
(0.19065 -0.00176352 0 0.00466028 0 0)
(0.245345 0.00880802 0 0.00829932 0 0)
(0.300288 0.0183437 0 0.0208326 0 0)
(0.071679 -0.0106596 0 0.0017046 0 0)
(0.00300099 -0.00217876 0 0.00380874 0 0)
(0.00899126 -0.00289326 0 0.00158544 0 0)
(0.0189396 -0.0032362 0 0.000819763 0 0)
(0.0380407 -0.00597414 0 0.00112853 0 0)
(0.0395369 -0.00698869 0 0.00165141 0 0)
(0.0583969 -0.00896108 0 0.00200854 0 0)
(0.0538421 -0.00736487 0 0.00191464 0 0)
(0.076704 -0.00807834 0 0.00160377 0 0)
(0.0710368 -0.00618486 0 0.00122032 0 0)
(0.0982526 -0.00740333 0 0.00084258 0 0)
(0.0897743 -0.0066351 0 0.000948837 0 0)
(0.118703 -0.0077206 0 0.000721178 0 0)
(0.105502 -0.00738565 0 0.00120468 0 0)
(0.134556 -0.00683408 0 0.000902675 0 0)
(0.120129 -0.00647891 0 0.00190884 0 0)
(0.151042 -0.00251804 0 0.00173932 0 0)
(0.146571 -0.000660445 0 0.00433753 0 0)
(0.191082 0.0108284 0 0.00720415 0 0)
(0.225452 0.0207723 0 0.0179253 0 0)
(0.0696161 -0.0122366 0 0.00229737 0 0)
(0.00367686 -0.00296416 0 0.0045197 0 0)
(0.0107315 -0.00347206 0 0.00171917 0 0)
(0.0221159 -0.0041635 0 0.00108639 0 0)
(0.0431993 -0.0073803 0 0.00149791 0 0)
(0.0452669 -0.00832183 0 0.00204693 0 0)
(0.0652349 -0.0103472 0 0.00239797 0 0)
(0.0577407 -0.00814182 0 0.00220706 0 0)
(0.07851 -0.00883481 0 0.00186072 0 0)
(0.0657857 -0.00610625 0 0.00134196 0 0)
(0.0861072 -0.00729944 0 0.000965972 0 0)
(0.0682747 -0.00543628 0 0.000980033 0 0)
(0.0855842 -0.0065077 0 0.000794907 0 0)
(0.0639345 -0.00448859 0 0.00116546 0 0)
(0.0784913 -0.00448502 0 0.000894924 0 0)
(0.0598313 -0.00198854 0 0.00170885 0 0)
(0.0750356 0.00042608 0 0.00155417 0 0)
(0.071661 0.00509194 0 0.0035369 0 0)
(0.10299 0.0145203 0 0.0059775 0 0)
(0.147846 0.0284758 0 0.0129274 0 0)
(0.0676657 -0.0139959 0 0.00308634 0 0)
(0.00456462 -0.00402775 0 0.00512279 0 0)
(0.0128104 -0.0041887 0 0.00194206 0 0)
(0.0262318 -0.0054252 0 0.00146673 0 0)
(0.0462715 -0.00869649 0 0.00195275 0 0)
(0.0460324 -0.00902203 0 0.00244545 0 0)
(0.0560036 -0.00976019 0 0.00267022 0 0)
(0.0417533 -0.00647029 0 0.00234451 0 0)
(0.0467256 -0.00610702 0 0.0018749 0 0)
(0.0315266 -0.0028738 0 0.00127308 0 0)
(0.0341497 -0.00342263 0 0.000883886 0 0)
(0.023741 -0.000964264 0 0.00084009 0 0)
(0.0240173 -0.00157311 0 0.000672071 0 0)
(0.0217083 0.00127899 0 0.000949107 0 0)
(0.0220493 0.000536786 0 0.000695842 0 0)
(0.0314517 0.00433551 0 0.00135708 0 0)
(0.0361613 0.00420708 0 0.00116644 0 0)
(0.064277 0.0111777 0 0.00271377 0 0)
(0.0932301 0.0164066 0 0.00448897 0 0)
(0.169704 0.0326593 0 0.00855046 0 0)
(0.0676507 -0.0162024 0 0.00413387 0 0)
(0.00624123 -0.00547907 0 0.00574112 0 0)
(0.0145348 -0.00501954 0 0.00241719 0 0)
(0.0253164 -0.00604828 0 0.00198038 0 0)
(0.0322195 -0.00745501 0 0.00229243 0 0)
(0.0221331 -0.00532166 0 0.00249791 0 0)
(0.0171276 -0.00360249 0 0.00245821 0 0)
(0.0103026 0.000179329 0 0.00199339 0 0)
(0.0111613 0.000772829 0 0.00146792 0 0)
(0.0210566 0.00300762 0 0.000927675 0 0)
(0.0214125 0.00247777 0 0.000612815 0 0)
(0.0471608 0.0043877 0 0.000558874 0 0)
(0.0437004 0.00384517 0 0.000449686 0 0)
(0.0859153 0.00629482 0 0.000629015 0 0)
(0.0808476 0.00472746 0 0.000456231 0 0)
(0.136075 0.00862139 0 0.000919304 0 0)
(0.137273 0.00577037 0 0.000783234 0 0)
(0.202269 0.0142148 0 0.00187797 0 0)
(0.236385 0.0133896 0 0.00294558 0 0)
(0.333306 0.0331513 0 0.00569775 0 0)
(0.0723625 -0.0198603 0 0.00578478 0 0)
(0.00696207 -0.00626366 0 0.006446 0 0)
(0.00950995 -0.00345356 0 0.00281613 0 0)
(0.00984154 -0.00206066 0 0.00206645 0 0)
(0.00595949 -0.000122771 0 0.00194733 0 0)
(0.0105283 0.00353757 0 0.00186 0 0)
(0.0250107 0.00548331 0 0.00167692 0 0)
(0.0613687 0.00724404 0 0.0012639 0 0)
(0.0861762 0.00657054 0 0.000866175 0 0)
(0.138714 0.00698527 0 0.00052204 0 0)
(0.152731 0.00613642 0 0.000328768 0 0)
(0.218629 0.00711057 0 0.000300497 0 0)
(0.221081 0.00650906 0 0.000245132 0 0)
(0.303882 0.0080756 0 0.000348763 0 0)
(0.297996 0.00620632 0 0.000253664 0 0)
(0.390536 0.00913272 0 0.000530272 0 0)
(0.388234 0.00498171 0 0.000465042 0 0)
(0.472861 0.0128714 0 0.00112107 0 0)
(0.514123 0.00797391 0 0.00175126 0 0)
(0.587246 0.0272369 0 0.00373523 0 0)
(0.0775228 -0.0245947 0 0.00826756 0 0)