/*--------------------------------*- C++ -*----------------------------------*\
| =========                 |                                                 |
| \\      /  F ield         | OpenFOAM: The Open Source CFD Toolbox           |
|  \\    /   O peration     | Version:  2.4.0                                 |
|   \\  /    A nd           | Web:      www.OpenFOAM.org                      |
|    \\/     M anipulation  |                                                 |
\*---------------------------------------------------------------------------*/
FoamFile
{
    version     2.0;
    format      ascii;
    class       volScalarField;
    location    "0.157";
    object      pMean;
}
// * * * * * * * * * * * * * * * * * * * * * * * * * * * * * * * * * * * * * //

dimensions      [0 2 -2 0 0 0 0];

internalField   nonuniform List<scalar> 
17600
(
107.8
91.6859
86.8978
85.4599
84.2069
82.9381
81.7442
80.6083
79.5174
78.4246
77.351
76.2615
75.2098
74.1359
73.0965
72.0006
70.9081
69.671
68.2352
66.0223
105.903
91.7351
86.9384
85.4693
84.2101
82.9386
81.7444
80.6085
79.5176
78.4247
77.3511
76.2616
75.2098
74.1365
73.0965
72.0021
70.9087
69.6747
68.2433
66.2621
104.498
91.9885
87.0806
85.5071
84.2239
82.943
81.7465
80.6101
79.5188
78.4253
77.3515
76.2616
75.2101
74.1365
73.0973
72.0019
70.912
69.6752
68.2922
66.3956
103.526
92.3258
87.2976
85.5711
84.253
82.9583
81.7551
80.6163
79.523
78.4281
77.3528
76.263
75.2108
74.1396
73.0986
72.0093
70.9151
69.6949
68.3386
66.5649
102.708
92.6561
87.5573
85.6514
84.2947
82.9872
81.7743
80.6306
79.5331
78.4353
77.357
76.2654
75.2134
74.1416
73.1034
72.0122
70.9288
69.7107
68.4151
66.7582
101.938
92.9443
87.8298
85.732
84.3361
83.0239
81.8031
80.6537
79.5501
78.4482
77.3644
76.2725
75.217
74.1499
73.1083
72.0262
70.9405
69.7411
68.5066
66.9842
101.213
93.1876
88.1012
85.8073
84.3676
83.058
81.8358
80.6822
79.5723
78.4656
77.3757
76.281
75.2241
74.1582
73.1177
72.0404
70.9568
69.7817
68.5982
67.2621
100.544
93.3891
88.365
85.8795
84.3887
83.0845
81.8678
80.7128
79.5964
78.485
77.3882
76.292
75.232
74.1699
73.1301
72.0588
70.9822
69.8252
68.6918
67.6001
99.9355
93.5525
88.6135
85.954
84.4015
83.1026
81.8966
80.7432
79.621
78.5046
77.4005
76.3035
75.2394
74.1831
73.1401
72.0832
71.0012
69.885
68.7626
67.9393
99.3895
93.6792
88.8436
86.033
84.408
83.113
81.9213
80.7724
79.6449
78.523
77.4123
76.3137
75.2479
74.1953
73.1549
72.1055
71.0312
69.9434
68.8636
68.3101
98.9047
93.7713
89.0545
86.1167
84.4093
83.1167
81.942
80.8001
79.668
78.5405
77.4228
76.3236
75.2549
74.2079
73.1677
72.1296
71.0646
70.0046
68.9957
68.6321
98.4781
93.8331
89.2461
86.2049
84.4067
83.1149
81.9587
80.8259
79.6903
78.5568
77.4325
76.3321
75.263
74.2198
73.1833
72.1538
71.1009
70.0729
69.1344
68.9181
98.1072
93.8703
89.418
86.2955
84.4017
83.1086
81.9721
80.8497
79.7114
78.5717
77.4413
76.3399
75.2707
74.2316
73.1997
72.1785
71.143
70.1442
69.2768
69.1776
97.7892
93.8899
89.5693
86.3838
84.3964
83.0994
81.9825
80.8709
79.7313
78.5851
77.4495
76.3468
75.279
74.2431
73.2173
72.2045
71.1874
70.2192
69.4186
69.4138
97.5211
93.899
89.6992
86.4632
84.3924
83.089
81.9907
80.8898
79.7493
78.5971
77.4568
76.353
75.2871
74.2553
73.2355
72.2326
71.2332
70.2971
69.559
69.629
97.3007
93.9024
89.8064
86.5313
84.3903
83.0785
81.9969
80.9057
79.7653
78.6075
77.4634
76.3591
75.2954
74.2671
73.2548
72.2606
71.2827
70.374
69.7029
69.8263
97.1266
93.9026
89.891
86.587
84.3901
83.0686
82.0014
80.9187
79.7788
78.616
77.4696
76.3643
75.3041
74.2792
73.2755
72.2901
71.3335
70.4514
69.8404
70.0297
96.9972
93.9013
89.9532
86.63
84.3909
83.0605
82.0045
80.9288
79.7893
78.6233
77.4746
76.3703
75.3118
74.2927
73.2945
72.3231
71.3822
70.5337
69.954
70.2038
96.9117
93.8997
89.9941
86.6591
84.3926
83.0545
82.0067
80.9356
79.7973
78.6286
77.4798
76.3755
75.3207
74.3056
73.3157
72.3552
71.4332
70.6142
70.0665
70.3843
96.8692
93.8986
90.0144
86.674
84.3936
83.0516
82.0078
80.9394
79.802
78.6325
77.4837
76.3812
75.3289
74.3191
73.3367
72.3885
71.4844
70.6931
70.1851
70.5426
96.8693
93.8987
90.0144
86.6743
84.3936
83.052
82.0082
80.9402
79.8034
78.6348
77.4871
76.3867
75.3374
74.3328
73.3588
72.4212
71.5377
70.7679
70.3143
70.681
96.912
93.8997
89.9944
86.6595
84.3931
83.0553
82.0081
80.9373
79.8021
78.6349
77.4904
76.3916
75.3466
74.3457
73.3819
72.454
71.5913
70.841
70.4366
70.8418
96.9975
93.9015
89.9536
86.6308
84.3919
83.0621
82.0068
80.9319
79.797
78.6342
77.4919
76.3981
75.3541
74.3612
73.4025
72.4908
71.6398
70.9201
70.5183
70.9571
97.1271
93.9028
89.8916
86.5882
84.3914
83.0707
82.0047
80.923
79.7894
78.6312
77.4935
76.4034
75.3628
74.3753
73.4249
72.5262
71.6902
70.9948
70.5988
71.1022
97.3014
93.9027
89.8073
86.5328
84.3921
83.0809
82.0012
80.9112
79.779
78.6266
77.4945
76.4085
75.3716
74.3892
73.4481
72.5609
71.7426
71.065
70.6871
71.2311
97.5219
93.8994
89.7002
86.4651
84.3945
83.0919
81.9961
80.8966
79.7657
78.6205
77.4944
76.4135
75.3799
74.4036
73.4709
72.5967
71.7945
71.1362
70.7734
71.3425
97.7902
93.8903
89.5705
86.3858
84.3989
83.1027
81.9891
80.8791
79.7504
78.6126
77.4937
76.4178
75.3883
74.4178
73.4939
72.6329
71.847
71.2086
70.8558
71.4357
98.1083
93.8709
89.4192
86.2976
84.4047
83.1124
81.9798
80.8592
79.7332
78.6032
77.4923
76.4212
75.3967
74.4317
73.5171
72.6692
71.9003
71.2826
70.9354
71.5087
98.4793
93.8339
89.2475
86.2069
84.4102
83.1192
81.9675
80.8369
79.7145
78.5923
77.49
76.4236
75.4051
74.4451
73.5405
72.7053
71.9549
71.3579
71.0158
71.5599
98.9058
93.7721
89.056
86.1188
84.4132
83.1215
81.9517
80.8126
79.6946
78.58
77.4867
76.4249
75.4133
74.4576
73.5642
72.7405
72.0109
71.4341
71.102
71.5876
99.3908
93.6798
88.8453
86.0351
84.4122
83.1184
81.9319
80.7867
79.6736
78.5665
77.4822
76.425
75.4211
74.4692
73.5877
72.7745
72.0683
71.5103
71.198
71.5921
99.9368
93.5531
88.6154
85.9562
84.406
83.1088
81.908
80.7593
79.6517
78.5518
77.4764
76.424
75.4281
74.4797
73.6108
72.8064
72.1262
71.584
71.3046
71.5787
100.545
93.3897
88.367
85.8818
84.3935
83.0914
81.88
80.7307
79.6291
78.5361
77.4694
76.4221
75.4341
74.4893
73.6319
72.836
72.1803
71.6533
71.407
71.5681
101.215
93.1884
88.1033
85.8098
84.3726
83.0657
81.8487
80.702
79.6068
78.5204
77.462
76.42
75.4389
74.4978
73.6499
72.8626
72.2266
71.7153
71.4899
71.5452
101.939
92.9452
87.8321
85.7346
84.3413
83.0322
81.8168
80.6751
79.5864
78.5061
77.4554
76.4182
75.443
74.5052
73.665
72.8848
72.2643
71.7651
71.5542
71.5507
102.709
92.6571
87.5598
85.6542
84.3002
82.996
81.7887
80.6533
79.5707
78.4957
77.4512
76.4176
75.4468
74.5115
73.6767
72.902
72.292
71.8021
71.5972
71.5553
103.528
92.3268
87.3002
85.5739
84.2586
82.9674
81.7699
80.6399
79.5616
78.4902
77.4496
76.4183
75.4501
74.5163
73.6848
72.9139
72.31
71.8268
71.6209
71.5659
104.499
91.9895
87.0833
85.51
84.2296
82.9524
81.7616
80.6342
79.5579
78.4883
77.4495
76.4194
75.4523
74.5194
73.6895
72.9207
72.3198
71.8404
71.6324
71.5818
105.904
91.7361
86.9411
85.4723
84.2159
82.9481
81.7596
80.6327
79.5569
78.488
77.4497
76.4201
75.4532
74.5207
73.6912
72.9233
72.3231
71.8453
71.6357
71.6037
107.802
91.687
86.9006
85.4628
84.2127
82.9476
81.7594
80.6325
79.5568
78.488
77.4497
76.4202
75.4532
74.5207
73.6913
72.9234
72.3233
71.8452
71.6346
71.6425
64.1782
63.6047
62.5163
61.2558
60.07
59.0704
58.2354
57.5236
57.0907
56.8222
56.6886
56.6709
56.6891
56.5978
56.2917
55.7123
54.8745
54.0286
53.3111
52.7752
52.413
52.2224
52.2659
52.5198
52.9499
53.5577
54.2786
55.0555
55.8457
56.5977
57.2926
57.9692
58.6503
59.3286
60.0005
60.6619
61.3249
62.0112
62.7242
63.4229
64.0612
64.6307
65.1451
65.6279
66.0841
66.5029
66.9
67.2635
67.5313
67.7006
67.8095
67.8681
67.8561
67.7586
67.6041
67.4261
67.2386
67.0435
66.8566
66.6987
66.5795
66.5097
66.482
66.5149
66.6168
66.773
66.9768
67.2158
67.4692
67.723
67.9663
68.1764
68.3408
68.454
68.5156
68.5541
68.6059
68.6809
68.7765
68.9029
69.0626
69.2488
69.4554
69.6682
69.883
70.0978
70.3042
70.5063
70.7041
70.8946
71.0785
71.2427
71.3901
71.5181
71.6304
71.7254
71.808
71.8804
71.9531
72.0172
72.0788
72.1373
72.2043
72.2788
72.3709
72.4808
72.6009
72.717
72.8284
72.9302
73.026
73.0988
73.1682
73.2182
73.265
73.2901
73.3251
73.3472
73.3668
73.3946
73.4225
73.4647
73.5095
73.5683
73.6449
73.7169
73.8348
73.9333
74.0697
74.2116
74.36
74.5463
74.7238
74.9439
75.1746
75.4433
75.7211
76.0195
76.3187
76.6098
76.8927
77.1385
77.3844
77.5867
77.7881
77.9451
78.0968
78.1909
78.276
78.308
78.3299
78.3133
78.2842
78.2241
78.1535
78.0647
77.971
77.8647
77.7591
77.6504
77.5547
77.463
77.4042
77.3621
77.3646
77.3806
77.4419
77.5087
77.6182
77.7175
77.8475
77.9535
78.0735
78.1608
78.2637
78.3214
78.4033
78.432
78.5094
78.5156
78.6016
78.587
78.6766
78.6142
78.6756
78.5384
78.5191
78.271
78.1248
77.7119
77.3521
76.688
75.9885
74.8994
73.5458
71.6124
68.8056
64.1754
58.4093
32.7314
64.5736
63.8916
62.9335
61.8265
60.7705
59.8827
59.165
58.567
58.2125
58.012
57.9057
57.8918
57.8811
57.752
57.4303
56.8639
56.0427
55.1739
54.4419
53.8894
53.5154
53.3302
53.3798
53.6366
54.0683
54.6585
55.3581
56.1122
56.8815
57.6261
58.323
58.9894
59.6511
60.3019
60.9389
61.5508
62.1517
62.7675
63.4034
64.0279
64.5978
65.0954
65.5297
65.9291
66.3029
66.6344
66.9533
67.2594
67.4846
67.6123
67.6761
67.6922
67.6393
67.5036
67.3087
67.0838
66.8439
66.5947
66.3549
66.1479
65.9906
65.8899
65.8345
65.8501
65.9427
66.0935
66.2941
66.532
66.7869
67.0452
67.297
67.5177
67.6916
67.8144
67.8925
67.9603
68.05
68.1691
68.3154
68.4988
68.7195
68.9673
69.2342
69.5037
69.7679
70.0259
70.2718
70.5065
70.7335
70.9498
71.1546
71.3366
71.4984
71.6381
71.7592
71.8618
71.954
72.034
72.1114
72.1765
72.2368
72.2897
72.3514
72.4219
72.5122
72.6181
72.7365
72.8505
72.9629
73.062
73.1541
73.2184
73.2751
73.305
73.3289
73.3266
73.3317
73.327
73.3172
73.3207
73.3284
73.3538
73.3877
73.4372
73.5091
73.5795
73.6951
73.8016
73.9366
74.0943
74.247
74.4467
74.6412
74.8752
75.1249
75.4085
75.7019
76.0138
76.324
76.6293
76.9223
77.1806
77.4335
77.641
77.846
78.0032
78.1572
78.2523
78.3428
78.373
78.3984
78.3796
78.3526
78.2887
78.2172
78.1223
78.0244
77.9119
77.7986
77.6808
77.574
77.4664
77.3878
77.3196
77.2961
77.28
77.3105
77.3411
77.4176
77.4809
77.5825
77.6568
77.7553
77.8147
77.9022
77.9359
78.0073
78.0123
78.0815
78.0642
78.1409
78.1036
78.1783
78.0926
78.1308
77.968
77.9153
77.6326
77.4374
76.9733
76.5403
75.7862
74.9642
73.7178
72.1409
69.8188
66.7719
60.5877
54.5229
25.5149
64.9776
64.2792
63.3602
62.3387
61.3774
60.571
59.9437
59.4503
59.1626
59.0172
58.9311
58.9167
58.8836
58.7308
58.3991
57.8608
57.0945
56.2516
55.5352
54.9789
54.6188
54.4535
54.5062
54.7594
55.1811
55.7476
56.4216
57.1555
57.9082
58.6477
59.3486
60.0084
60.6526
61.2783
61.8847
62.4542
62.9966
63.5454
64.1086
64.6571
65.1552
65.5798
65.9352
66.2517
66.5444
66.7916
67.0321
67.2801
67.4634
67.5541
67.5795
67.5555
67.4633
67.2925
67.0615
66.7932
66.504
66.2023
65.9116
65.6575
65.4634
65.3297
65.2477
65.2476
65.3306
65.4747
65.6715
65.9075
66.1636
66.4268
66.6868
66.9182
67.1028
67.2381
67.3362
67.4363
67.5656
67.7294
67.9267
68.1664
68.448
68.7569
69.083
69.4089
69.7228
70.0233
70.3079
70.5751
70.83
71.0701
71.2936
71.4921
71.6679
71.8191
71.9499
72.06
72.1616
72.2488
72.3308
72.3962
72.4561
72.5044
72.5617
72.627
72.715
72.8144
72.9301
73.0406
73.154
73.2506
73.3403
73.3973
73.4434
73.4549
73.4575
73.4289
73.4028
73.3695
73.3297
73.305
73.2911
73.2961
73.3175
73.3544
73.4193
73.4859
73.596
73.7089
73.8409
74.0124
74.1698
74.3817
74.5923
74.8421
75.1079
75.4075
75.7149
76.0384
76.3562
76.6725
76.9716
77.2411
77.4974
77.7122
77.9192
78.0776
78.2303
78.3272
78.4184
78.4476
78.4731
78.4529
78.4265
78.3611
78.2885
78.1889
78.0866
77.9692
77.8484
77.7215
77.6033
77.4799
77.3836
77.2894
77.2427
77.1935
77.1947
77.1885
77.2327
77.2591
77.3325
77.3724
77.4503
77.4795
77.5518
77.5605
77.6209
77.6039
77.662
77.6248
77.6848
77.6281
77.6792
77.5726
77.58
77.3922
77.2986
76.9851
76.7264
76.2202
75.7013
74.871
73.9144
72.493
70.747
67.9183
64.9472
57.0027
50.7864
23.6503
65.323
64.6777
63.8289
62.8442
61.9273
61.1817
60.6362
60.2417
60.012
59.9101
59.8433
59.8136
59.7578
59.593
59.2642
58.7681
58.0731
57.2949
56.6156
56.0806
55.7483
55.6032
55.6473
55.8857
56.2898
56.831
57.4767
58.189
58.922
59.6514
60.3532
61.0095
61.6382
62.2426
62.8241
63.3602
63.8526
64.338
64.8303
65.3047
65.729
66.0815
66.3602
66.5979
66.8123
66.9811
67.1451
67.33
67.469
67.526
67.52
67.4592
67.3304
67.1273
66.8633
66.554
66.2184
65.8684
65.5306
65.2327
65.0026
64.8349
64.728
64.715
64.7876
64.924
65.1152
65.3491
65.6062
65.8747
66.144
66.3866
66.5829
66.7329
66.8543
66.9886
67.1586
67.367
67.6142
67.9094
68.2497
68.6182
69.0018
69.3837
69.7475
70.0897
70.4122
70.7114
70.9925
71.2546
71.4945
71.7085
71.8978
72.059
72.2005
72.3181
72.4291
72.5228
72.609
72.6736
72.733
72.7775
72.8312
72.8908
72.9754
73.0665
73.1781
73.2837
73.398
73.4925
73.5811
73.6322
73.6698
73.6649
73.6481
73.5941
73.5377
73.4737
73.4045
73.3478
73.3118
73.2931
73.3009
73.3211
73.3782
73.4382
73.5418
73.6576
73.7882
73.9671
74.1324
74.3542
74.5789
74.8454
75.1255
75.4396
75.7587
76.0916
76.4152
76.7393
77.0417
77.3202
77.5785
77.8015
78.0091
78.169
78.3185
78.4154
78.5036
78.531
78.5559
78.5332
78.5086
78.4412
78.3689
78.2639
78.1592
78.0347
77.909
77.7706
77.6426
77.5024
77.3919
77.2724
77.2032
77.1212
77.0937
77.0522
77.0644
77.0554
77.098
77.1041
77.1584
77.1584
77.2119
77.1973
77.2446
77.2067
77.2512
77.1939
77.2349
77.158
77.1812
77.0551
77.025
76.8159
76.6741
76.3316
76.0018
75.4514
74.8409
73.9239
72.8618
71.2149
69.46
65.8982
63.3114
53.7122
47.2233
24.3152
65.6485
65.0766
64.3095
63.3569
62.4584
61.7631
61.2924
60.9898
60.821
60.7534
60.7015
60.6502
60.5752
60.4085
60.0925
59.6432
59.036
58.3397
57.7111
57.2156
56.9149
56.781
56.8061
57.019
57.3983
57.9097
58.5235
59.2082
59.9167
60.6284
61.3239
61.9778
62.5953
63.1817
63.7431
64.2555
64.7096
65.136
65.5584
65.9619
66.3152
66.5982
66.804
66.968
67.1096
67.2065
67.296
67.4135
67.5036
67.5297
67.4971
67.4054
67.2439
67.0109
66.7156
66.3675
65.988
65.5948
65.2152
64.8774
64.613
64.4115
64.2829
64.2588
64.3204
64.4478
64.632
64.8626
65.1213
65.3964
65.6757
65.9305
66.1396
66.3064
66.4538
66.6232
66.8338
67.0861
67.382
67.7304
68.1267
68.5528
68.992
69.4276
69.8403
70.2237
70.5834
70.9138
71.2197
71.502
71.7571
71.9849
72.1864
72.3562
72.5081
72.6337
72.7541
72.8534
72.9433
73.0058
73.064
73.105
73.1564
73.2101
73.2894
73.371
73.4777
73.5771
73.6918
73.7841
73.8733
73.9189
73.9503
73.9306
73.8967
73.8184
73.7343
73.638
73.5407
73.4497
73.3908
73.3457
73.3388
73.3391
73.3875
73.4381
73.5357
73.6502
73.7823
73.9614
74.1379
74.3647
74.6032
74.8842
75.1774
75.5022
75.8313
76.1721
76.501
76.8294
77.1343
77.4176
77.6763
77.906
78.1144
78.274
78.4206
78.515
78.5993
78.624
78.648
78.6214
78.5996
78.5293
78.4581
78.3478
78.2413
78.1089
77.9793
77.8285
77.6917
77.5352
77.4114
77.2692
77.1762
77.0639
77.0084
76.9327
76.9148
76.8696
76.8819
76.8524
76.8823
76.8523
76.8872
76.847
76.8806
76.8208
76.8494
76.7714
76.7911
76.6942
76.6863
76.5409
76.469
76.2392
76.0496
75.6716
75.2807
74.6725
73.9912
72.9328
71.8467
69.8168
68.3034
63.7663
61.7743
50.9082
43.7447
25.1391
66.0188
65.5072
64.774
63.8425
62.9599
62.3108
61.9138
61.6989
61.5952
61.5567
61.5199
61.4598
61.3715
61.2086
60.9165
60.5152
59.9997
59.3944
58.8252
58.3748
58.1011
57.9781
57.9861
58.1659
58.5089
58.9831
59.5603
60.2112
60.8911
61.5779
62.2562
62.9033
63.5149
64.0893
64.631
65.1233
65.5491
65.9243
66.2805
66.6185
66.9069
67.1272
67.2678
67.3645
67.4404
67.4711
67.4872
67.5345
67.5728
67.5697
67.5149
67.3967
67.2062
66.9454
66.6192
66.2348
65.8143
65.3841
64.9683
64.5944
64.2977
64.0657
63.9189
63.885
63.9346
64.0504
64.2263
64.454
64.7157
64.9982
65.2888
65.5568
65.7805
65.9671
66.142
66.3465
66.5966
66.8901
67.2324
67.6318
68.0811
68.5619
69.054
69.5399
69.9995
70.423
70.8187
71.1798
71.5097
71.811
72.0803
72.3199
72.5328
72.7091
72.8705
73.0035
73.1328
73.2371
73.3304
73.3899
73.4465
73.4842
73.5351
73.583
73.6552
73.7254
73.8266
73.9189
74.0337
74.1234
74.2136
74.2543
74.2802
74.2474
74.1984
74.0979
73.9892
73.8606
73.7374
73.6113
73.5281
73.4547
73.4319
73.4097
73.4488
73.4875
73.5798
73.6894
73.8244
73.999
74.1878
74.4158
74.6669
74.9574
75.2654
75.5945
75.9327
76.2793
76.6133
76.9423
77.2506
77.5343
77.7935
78.0237
78.2327
78.39
78.5354
78.6254
78.7076
78.7284
78.7525
78.7189
78.7004
78.6239
78.5566
78.4386
78.3337
78.1909
78.0601
77.8942
77.7527
77.5771
77.4434
77.2771
77.163
77.0202
76.9402
76.8301
76.7848
76.7034
76.6866
76.6214
76.6261
76.5651
76.5795
76.513
76.5296
76.4478
76.4565
76.356
76.3527
76.2302
76.1964
76.0231
75.9184
75.6552
75.4301
74.9948
74.5758
73.8559
73.1837
71.8611
70.9493
68.2974
67.2648
61.6153
60.0671
48.6136
40.2838
25.2796
66.4866
65.9922
65.2091
64.2589
63.3975
62.8033
62.4874
62.3587
62.323
62.3173
62.2997
62.2484
62.1561
62.0009
61.7422
61.3908
60.9597
60.4476
59.9413
59.5335
59.2841
59.1773
59.1797
59.3258
59.6247
60.0553
60.5922
61.204
61.8487
62.503
63.1556
63.7859
64.39
64.9563
65.4796
65.9481
66.3496
66.6841
66.9849
67.2649
67.4967
67.6629
67.7492
67.7854
67.8041
67.7751
67.7204
67.6962
67.6831
67.6509
67.5753
67.4331
67.2162
66.9282
66.5728
66.1565
65.7012
65.239
64.7906
64.3834
64.0586
63.8018
63.6413
63.5969
63.6324
63.7356
63.9024
64.1291
64.3945
64.6859
64.9887
65.2712
65.5119
65.7205
65.9245
66.1633
66.4507
66.7831
67.1693
67.6166
68.1147
68.6466
69.188
69.7199
70.2228
70.6847
71.1149
71.5056
71.8596
72.1791
72.4623
72.7119
72.9351
73.1158
73.2852
73.4241
73.5616
73.6692
73.7656
73.8223
73.8771
73.9119
73.9639
74.0064
74.0707
74.1286
74.2231
74.3083
74.4218
74.5081
74.5989
74.6348
74.6558
74.611
74.5486
74.4279
74.2986
74.1389
73.9921
73.8318
73.7244
73.6209
73.5813
73.5349
73.5637
73.588
73.676
73.777
73.9159
74.0809
74.2819
74.5061
74.7685
75.0624
75.3873
75.7141
76.0642
76.4082
76.7506
77.0747
77.3896
77.6663
77.9309
78.1524
78.3654
78.5136
78.6645
78.7423
78.8306
78.8399
78.8717
78.8231
78.8124
78.7205
78.6652
78.5317
78.4377
78.2769
78.1529
77.9646
77.8268
77.6255
77.4877
77.2931
77.1635
76.9894
76.8892
76.7449
76.6753
76.5576
76.5154
76.414
76.3939
76.2983
76.2929
76.1947
76.196
76.0844
76.077
75.9439
75.9231
75.7623
75.7138
75.4948
75.3791
75.0534
74.8264
74.2795
73.9149
72.9543
72.4425
70.6437
70.1069
66.6691
66.2068
59.5673
58.0075
46.7584
36.8567
24.9199
67.1289
66.5798
65.5993
64.5607
63.7301
63.2206
62.9999
62.957
62.9881
63.0258
63.0358
63.0029
62.9183
62.7781
62.5588
62.2572
61.8966
61.4724
61.0344
60.6684
60.4427
60.3539
60.3636
60.4878
60.7454
61.1299
61.6197
62.1846
62.7879
63.4048
64.025
64.6321
65.2194
65.7713
66.275
66.7191
67.0966
67.4018
67.6588
67.8914
68.078
68.199
68.2398
68.2256
68.1953
68.114
67.9929
67.8994
67.8361
67.7738
67.6755
67.5102
67.2689
66.9564
66.5762
66.1333
65.6501
65.1602
64.6806
64.2441
63.8964
63.6213
63.4522
63.3962
63.4155
63.5044
63.6632
63.8914
64.1629
64.4643
64.7799
65.0773
65.3368
65.5699
65.8038
66.0761
66.3995
66.7682
67.1949
67.6865
68.229
68.8075
69.3938
69.9667
70.5083
71.0055
71.4675
71.8868
72.2648
72.6024
72.9
73.1584
73.3908
73.575
73.7496
73.893
74.037
74.1463
74.2447
74.299
74.3526
74.3856
74.4389
74.477
74.534
74.579
74.666
74.7438
74.8547
74.9359
75.0265
75.057
75.0736
75.0173
74.9433
74.8041
74.6583
74.4695
74.3015
74.1095
73.9789
73.8445
73.7873
73.7163
73.7337
73.7412
73.8263
73.9147
74.0578
74.2101
74.4198
74.6346
74.9075
75.1965
75.5365
75.8597
76.2235
76.5562
76.909
77.2228
77.5475
77.81
78.085
78.2889
78.5103
78.6415
78.8038
78.8612
78.964
78.954
79.0019
78.9312
78.9341
78.8169
78.7822
78.6237
78.5516
78.3621
78.2567
78.0355
77.9131
77.6761
77.5447
77.312
77.181
76.9676
76.8596
76.6722
76.5914
76.4273
76.3736
76.2252
76.1923
76.0507
76.0357
75.8925
75.888
75.7292
75.7191
75.5307
75.5109
75.2792
75.245
74.9297
74.8603
74.3872
74.2556
73.4741
73.2997
71.9354
71.7279
69.3191
69.2392
64.9923
64.9733
57.7213
55.2424
45.1473
34.0374
24.6148
68.0044
67.3423
65.9736
64.7848
63.9866
63.5766
63.455
63.4943
63.5905
63.6794
63.7235
63.7143
63.6478
63.5284
63.3468
63.0937
62.7916
62.4431
62.0771
61.7585
61.5574
61.4857
61.5102
61.6276
61.8565
62.1991
62.6386
63.1513
63.7094
64.2867
64.8706
65.4481
66.0078
66.5324
67.0095
67.4276
67.7822
68.0659
68.2934
68.4886
68.6413
68.7276
68.7295
68.6725
68.6003
68.4761
68.2955
68.1385
68.0288
67.935
67.8104
67.622
67.3609
67.0303
66.6316
66.169
65.6626
65.1463
64.6353
64.1753
63.8115
63.5243
63.3497
63.2828
63.285
63.3584
63.5112
63.7442
64.0239
64.3361
64.6644
64.9771
65.2573
65.5162
65.7799
66.0852
66.4437
66.8471
67.311
67.8427
68.4248
69.0443
69.6704
70.2792
70.8532
71.3808
71.872
72.3176
72.7195
73.0758
73.389
73.655
73.896
74.0837
74.2614
74.4079
74.5562
74.6662
74.7644
74.8164
74.8688
74.9003
74.956
74.9898
75.0414
75.0735
75.1528
75.2224
75.3299
75.4041
75.4931
75.518
75.53
75.4625
75.3781
75.2224
75.0629
74.8484
74.6617
74.4413
74.2895
74.1241
74.0489
73.9535
73.9593
73.9488
74.0298
74.1032
74.2484
74.3866
74.6018
74.803
75.0849
75.3597
75.7123
76.0297
76.4053
76.7215
77.086
77.3836
77.7199
77.9638
78.2529
78.4338
78.6651
78.7735
78.9484
78.9806
79.1009
79.0672
79.1377
79.0404
79.0637
78.9131
78.905
78.7109
78.6711
78.4399
78.3676
78.1
78.0081
77.7205
77.6122
77.3259
77.2162
76.9456
76.8529
76.6029
76.5355
76.3039
76.2645
76.0468
76.0282
75.8152
75.817
75.5975
75.6152
75.3676
75.3924
75.097
75.1261
74.7576
74.7985
74.306
74.3604
73.6422
73.6861
72.5704
72.6337
70.7893
70.9009
67.8908
68.2427
63.3853
63.2388
56.175
51.722
43.6053
32.4787
24.9301
68.7218
68.002
66.372
65.0541
64.2481
63.9013
63.8622
63.9779
64.1379
64.2779
64.3591
64.3764
64.3327
64.2358
64.0873
63.8803
63.6287
63.3448
63.0488
62.7825
62.6104
62.5576
62.6003
62.7226
62.9347
63.2423
63.6351
64.0968
64.6077
65.1424
65.687
66.2294
66.7529
67.2415
67.6852
68.0739
68.4038
68.6687
68.8775
69.0472
69.176
69.239
69.21
69.1171
69.0064
68.8489
68.618
68.4042
68.2552
68.1295
67.9757
67.7669
67.4914
67.1498
66.7412
66.2652
65.7378
65.1939
64.6526
64.1766
63.8033
63.5094
63.3311
63.2533
63.2403
63.2995
63.449
63.6899
63.9784
64.3024
64.6434
64.9721
65.2743
65.5592
65.8519
66.1891
66.5813
67.018
67.5165
68.0841
68.7014
69.3557
70.0159
70.655
71.2549
71.8072
72.3227
72.7921
73.2173
73.5913
73.9212
74.1962
74.4457
74.6375
74.8173
74.9657
75.1159
75.2257
75.3216
75.3691
75.4214
75.4503
75.5094
75.5392
75.5871
75.608
75.6793
75.7405
75.8434
75.9104
75.9953
76.014
76.0209
75.9423
75.8484
75.6772
75.5056
75.2688
75.066
74.8213
74.6502
74.4558
74.3624
74.2443
74.2385
74.2091
74.2854
74.3423
74.486
74.6081
74.8255
75.0113
75.2992
75.5548
75.9163
76.2237
76.6084
76.9049
77.28
77.5568
77.9033
78.1267
78.4292
78.586
78.8276
78.9104
79.0959
79.101
79.2373
79.1779
79.2719
79.1462
79.1939
79.007
79.0272
78.7899
78.7867
78.5039
78.4744
78.149
78.0989
77.7467
77.6784
77.3214
77.2578
76.9081
76.8598
76.5231
76.5012
76.1749
76.1838
75.8653
75.8978
75.575
75.6309
75.2925
75.3695
74.9899
75.0853
74.6366
74.7523
74.1913
74.3418
73.6118
73.8213
72.8067
73.0515
71.5578
71.8726
69.5704
69.9786
66.5499
66.8946
62.0148
60.6572
54.6477
48.5596
42.3548
32.1639
25.8318
69.2994
68.5757
66.8003
65.3747
64.5291
64.2084
64.2315
64.4148
64.633
64.82
64.9394
64.985
64.9654
64.8906
64.7703
64.6038
64.3983
64.1721
63.9422
63.7315
63.5913
63.5574
63.6182
63.7515
63.9566
64.2386
64.5924
65.0068
65.4691
65.9608
66.4652
66.9669
67.4487
67.896
68.3021
68.6598
68.9645
69.2108
69.4045
69.5571
69.6718
69.723
69.6753
69.5531
69.408
69.2258
68.9533
68.6914
68.5098
68.3534
68.1694
67.9444
67.6611
67.3142
66.9027
66.4211
65.8738
65.2992
64.7305
64.2483
63.8722
63.5752
63.3937
63.3053
63.2787
63.3278
63.4785
63.7294
64.0273
64.3636
64.7179
65.0633
65.3884
65.6986
66.0186
66.386
66.8099
67.278
67.8082
68.4077
69.056
69.7388
70.4271
71.0903
71.71
72.2805
72.8161
73.305
73.7512
74.141
74.4883
74.7742
75.0334
75.2305
75.4118
75.5616
75.7122
75.8201
75.9135
75.9541
76.0066
76.0329
76.0945
76.1197
76.1644
76.1775
76.241
76.2938
76.3912
76.4507
76.5302
76.5419
76.5423
76.4529
76.3499
76.1641
75.9806
75.7247
75.5088
75.243
75.0548
74.8334
74.7233
74.5843
74.5678
74.5195
74.5899
74.6293
74.7685
74.8721
75.0875
75.2563
75.5468
75.7819
76.1463
76.439
76.8295
77.1055
77.4869
77.7431
78.0968
78.2995
78.6108
78.7444
78.9945
79.052
79.2445
79.2249
79.3711
79.2874
79.3992
79.2476
79.3169
79.0985
79.14
78.8634
78.886
78.555
78.5607
78.1804
78.1694
77.7503
77.7292
77.2936
77.2872
76.8463
76.8601
76.4206
76.4681
76.0236
76.1089
75.659
75.776
75.3087
75.4556
74.9628
75.1323
74.5874
74.7787
74.1381
74.3547
73.567
73.8215
72.8286
73.1754
71.8636
72.2936
70.4815
70.9557
68.4504
68.8075
65.5129
64.9828
60.7557
57.7565
52.9254
46.5258
41.8263
32.8677
27.0165
69.7609
69.0689
67.2291
65.7305
64.8415
64.5189
64.5769
64.8099
65.078
65.3097
65.469
65.5455
65.5496
65.4961
65.3992
65.2661
65.1036
64.9275
64.757
64.6027
64.4985
64.4819
64.5557
64.7004
64.9053
65.1718
65.4964
65.8723
66.2911
66.74
67.201
67.6572
68.0936
68.4968
68.8614
69.1856
69.4654
69.6957
69.8754
70.0152
70.1221
70.1724
70.1199
69.9755
69.8036
69.6015
69.2963
68.9964
68.7899
68.6032
68.3905
68.1538
67.8704
67.5252
67.1152
66.6305
66.0658
65.4597
64.8683
64.3897
64.0175
63.7194
63.5341
63.4369
63.3996
63.4427
63.5999
63.863
64.1709
64.5197
64.8883
65.2509
65.5982
65.933
66.2787
66.674
67.1268
67.623
68.1812
68.8085
69.484
70.1891
70.8996
71.5812
72.2151
72.7981
73.349
73.8519
74.3161
74.7176
75.0812
75.3808
75.6501
75.8545
76.0389
76.189
76.3403
76.4453
76.5363
76.5691
76.6225
76.6449
76.7068
76.7253
76.7675
76.7737
76.8317
76.8757
76.9686
77.0194
77.0939
77.0975
77.0896
76.9897
76.8773
76.6781
76.4824
76.2105
75.983
75.6989
75.4962
75.2514
75.1256
74.968
74.9417
74.8764
74.9388
74.9608
75.0919
75.1759
75.3848
75.5352
75.8246
76.0397
76.4003
76.6752
77.0657
77.3225
77.7025
77.9398
78.2956
78.4797
78.7929
78.9069
79.1609
79.1965
79.3917
79.3529
79.5017
79.3974
79.5165
79.3441
79.426
79.1855
79.2385
78.9323
78.9646
78.5971
78.6185
78.1973
78.2065
77.7356
77.7445
77.2479
77.2775
76.7614
76.8221
76.2887
76.3957
75.8338
75.993
75.4012
75.6153
74.9799
75.2464
74.5623
74.8614
74.107
74.4361
73.5605
73.9072
72.8805
73.2308
72.0421
72.4541
71.0107
71.4358
69.5919
69.8503
67.542
67.2544
64.444
62.7197
59.2304
55.4015
51.5349
45.5525
42.0194
34.1274
28.2343
70.1395
69.4928
67.6451
66.1081
65.1792
64.8328
64.899
65.1664
65.4796
65.7561
65.9554
66.0644
66.0929
66.0598
65.9834
65.8775
65.753
65.6203
65.4982
65.3959
65.3309
65.3339
65.4173
65.5687
65.7758
66.0344
66.3382
66.6841
67.066
67.473
67.8883
68.2973
68.6874
69.0461
69.3689
69.6576
69.9101
70.1232
70.2924
70.4231
70.5259
70.5814
70.5378
70.3812
70.1889
69.9713
69.6424
69.3153
69.0932
68.8775
68.6394
68.3961
68.1182
67.7819
67.3784
66.8905
66.3083
65.6727
65.0657
64.5984
64.2372
63.9398
63.7501
63.647
63.603
63.6448
63.812
64.0885
64.4076
64.7698
65.1539
65.5347
65.9025
66.2603
66.6304
67.0507
67.5284
68.0491
68.6306
69.2809
69.9786
70.7009
71.4277
72.1227
72.7662
73.3573
73.9194
74.4305
74.9089
75.3166
75.6929
76.0064
76.2862
76.5
76.6905
76.8403
76.9938
77.0959
77.1868
77.2112
77.2657
77.2812
77.3421
77.3508
77.3914
77.3898
77.4449
77.4795
77.5703
77.6107
77.6829
77.6751
77.6581
77.5475
77.4255
77.214
77.0068
76.721
76.4834
76.1823
75.9674
75.7028
75.5632
75.3885
75.3534
75.2733
75.3273
75.3327
75.453
75.516
75.7155
75.8458
76.13
76.3261
76.6776
76.9297
77.3153
77.5546
77.9285
78.1474
78.4999
78.6663
78.9753
79.0716
79.3247
79.3423
79.5366
79.4829
79.6292
79.507
79.6236
79.4336
79.5177
79.2622
79.3178
78.9912
79.0205
78.6299
78.6482
78.2023
78.2111
77.7117
77.7263
77.1959
77.2314
76.6712
76.7429
76.1547
76.2709
75.6408
75.81
75.1356
75.364
74.6343
74.923
74.1327
74.4581
73.5869
73.9493
72.9419
73.3204
72.1658
72.5305
71.2529
71.6206
70.1457
70.4102
68.6424
68.5254
66.4278
65.4786
62.9691
60.6999
57.6867
53.8644
50.978
45.5374
42.695
35.5019
29.3633
70.4529
69.8604
68.0412
66.4893
65.5279
65.1504
65.2113
65.5021
65.8521
66.1681
66.4043
66.5459
66.6004
66.5881
66.5317
66.4482
66.3549
66.2597
66.177
66.1178
66.0915
66.1178
66.2114
66.3663
66.5738
66.8274
67.1169
67.437
67.7849
68.1508
68.5205
68.8824
69.2271
69.5428
69.8271
70.0814
70.305
70.4976
70.6571
70.7831
70.8847
70.9467
70.9201
70.7665
70.5614
70.3301
69.9834
69.6449
69.4151
69.1739
68.9142
68.6697
68.4014
68.0773
67.6867
67.1992
66.5984
65.9364
65.3212
64.872
64.526
64.2313
64.04
63.936
63.8909
63.9344
64.1129
64.4025
64.7353
65.1119
65.5122
65.9114
66.2985
66.6777
67.0708
67.5131
68.0109
68.5514
69.1509
69.8188
70.5334
71.2682
72.006
72.7092
73.3592
73.9551
74.5257
75.0386
75.5279
75.9345
76.3194
76.6441
76.9324
77.1566
77.3586
77.5059
77.665
77.7634
77.8568
77.873
77.9303
77.9344
77.9954
77.9911
78.0316
78.0179
78.0745
78.0978
78.1901
78.217
78.2918
78.2677
78.2427
78.12
77.9892
77.7661
77.5492
77.2506
77.0036
76.6865
76.4621
76.1805
76.0299
75.8375
75.796
75.7027
75.748
75.7377
75.847
75.8888
76.0773
76.187
76.462
76.6391
76.979
77.2068
77.5816
77.8005
78.1652
78.3645
78.7095
78.8594
79.1585
79.238
79.4855
79.489
79.6795
79.6125
79.7537
79.6155
79.7228
79.5177
79.595
79.327
79.3771
79.0364
79.055
78.6501
78.6546
78.1956
78.1898
77.6805
77.6817
77.14
77.159
76.5848
76.6387
76.0368
76.1228
75.479
75.6078
74.915
75.0966
74.3431
74.581
73.757
74.0238
73.1175
73.4054
72.3539
72.644
71.446
71.7181
70.4003
70.6377
69.0778
69.1614
67.3089
66.9713
64.8236
63.6071
61.2492
59.009
56.5182
53.1052
51.118
46.1813
43.4992
36.7467
30.4223
70.7153
70.1788
68.4162
66.8705
65.8888
65.4791
65.5239
65.8239
66.1998
66.5485
66.8193
66.9936
67.0757
67.0855
67.0487
66.9855
66.9168
66.8531
66.8037
66.7799
66.7872
66.8377
66.943
67.1009
67.3072
67.5543
67.8312
68.1298
68.4447
68.7707
69.0954
69.4109
69.7103
69.9852
70.2343
70.4574
70.6541
70.8253
70.9731
71.0968
71.1996
71.2694
71.263
71.1265
70.9184
70.6718
70.3151
69.9788
69.7484
69.4887
69.2097
68.9681
68.7126
68.4026
68.0287
67.5469
66.9336
66.25
65.6339
65.2093
64.882
64.5909
64.4026
64.3042
64.2626
64.3108
64.4994
64.8017
65.1504
65.5424
65.9591
66.3767
66.782
67.1806
67.5955
68.0562
68.57
69.1253
69.7358
70.4162
71.1417
71.8842
72.6279
73.335
73.9898
74.5877
75.1655
75.6744
76.1726
76.5697
76.9585
77.288
77.5827
77.8147
78.0342
78.1773