/*--------------------------------*- C++ -*----------------------------------*\
| =========                 |                                                 |
| \\      /  F ield         | OpenFOAM: The Open Source CFD Toolbox           |
|  \\    /   O peration     | Version:  2.4.0                                 |
|   \\  /    A nd           | Web:      www.OpenFOAM.org                      |
|    \\/     M anipulation  |                                                 |
\*---------------------------------------------------------------------------*/
FoamFile
{
    version     2.0;
    format      ascii;
    class       volSymmTensorField;
    location    "0.157";
    object      UPrime2Mean;
}
// * * * * * * * * * * * * * * * * * * * * * * * * * * * * * * * * * * * * * //

dimensions      [0 2 -2 0 0 0 0];

internalField   nonuniform List<symmTensor> 
17600
(
(0.025067 -0.00271741 0 0.000409727 0 0)
(0.2581 -0.00104189 0 2.3653e-05 0 0)
(0.335216 -4.64656e-06 0 1.68703e-06 0 0)
(0.37212 -0.000268949 0 1.04519e-06 0 0)
(0.397724 -0.000202908 0 5.28114e-07 0 0)
(0.41716 -8.84587e-05 0 3.43488e-07 0 0)
(0.429891 -1.99537e-05 0 2.6797e-07 0 0)
(0.441319 -9.2624e-07 0 2.34776e-07 0 0)
(0.447617 1.46869e-05 0 2.86279e-07 0 0)
(0.455134 -2.53384e-06 0 3.24969e-07 0 0)
(0.458314 4.33327e-06 0 4.00432e-07 0 0)
(0.465199 -4.05015e-05 0 5.70518e-07 0 0)
(0.468022 -2.05159e-05 0 7.21366e-07 0 0)
(0.476363 -9.71098e-05 0 1.06121e-06 0 0)
(0.480991 -8.38452e-05 0 1.2672e-06 0 0)
(0.495901 -0.000290163 0 2.8322e-06 0 0)
(0.509305 -0.00042041 0 3.207e-06 0 0)
(0.568814 0.000292237 0 1.57332e-05 0 0)
(0.672158 -0.0189704 0 0.000791566 0 0)
(1.23449 0.0956615 0 0.0121439 0 0)
(0.0121088 0.00543298 0 0.00427433 0 0)
(0.105633 -0.0101082 0 0.00102138 0 0)
(0.213341 -0.00570541 0 0.000155363 0 0)
(0.287035 -0.00404381 0 6.25317e-05 0 0)
(0.348867 -0.00329928 0 4.8479e-05 0 0)
(0.410902 -0.00275793 0 4.45163e-05 0 0)
(0.458302 -0.00216074 0 3.47265e-05 0 0)
(0.505507 -0.00169616 0 2.27467e-05 0 0)
(0.532993 -0.00126275 0 1.25992e-05 0 0)
(0.56758 -0.00109929 0 8.57171e-06 0 0)
(0.581503 -0.000925639 0 5.33456e-06 0 0)
(0.613109 -0.00103727 0 6.36973e-06 0 0)
(0.622136 -0.00101303 0 8.8064e-06 0 0)
(0.657987 -0.001144 0 1.11031e-05 0 0)
(0.666142 -0.0016435 0 1.8432e-05 0 0)
(0.722833 -0.0015114 0 2.79128e-05 0 0)
(0.722671 -0.00473399 0 8.16244e-05 0 0)
(0.945508 -0.00690182 0 0.00017738 0 0)
(0.868281 -0.0214304 0 0.00125054 0 0)
(2.58328 -0.284417 0 0.0550899 0 0)
(0.0430007 0.016315 0 0.00674505 0 0)
(0.017568 -0.0064679 0 0.00292083 0 0)
(0.0745899 -0.00722864 0 0.000762781 0 0)
(0.130074 -0.00691462 0 0.000375758 0 0)
(0.188466 -0.00677086 0 0.000283856 0 0)
(0.261965 -0.00651461 0 0.000255002 0 0)
(0.324766 -0.00565086 0 0.000208652 0 0)
(0.394572 -0.00477273 0 0.000142982 0 0)
(0.436734 -0.00376877 0 8.45686e-05 0 0)
(0.493863 -0.00331954 0 5.29586e-05 0 0)
(0.51591 -0.00281135 0 2.83385e-05 0 0)
(0.570527 -0.00311008 0 3.25134e-05 0 0)
(0.582521 -0.00287468 0 3.40389e-05 0 0)
(0.644507 -0.00356098 0 5.13584e-05 0 0)
(0.651921 -0.00407412 0 6.92205e-05 0 0)
(0.739336 -0.00494954 0 0.000121166 0 0)
(0.741242 -0.0108495 0 0.00031509 0 0)
(0.972117 -0.0139387 0 0.000829924 0 0)
(1.0181 -0.0565173 0 0.0058272 0 0)
(2.1584 -0.364643 0 0.116266 0 0)
(0.0571507 0.0181202 0 0.00609236 0 0)
(0.00155245 0.00118785 0 0.00456507 0 0)
(0.0100588 -0.00267733 0 0.00167882 0 0)
(0.0244335 -0.0043944 0 0.00099857 0 0)
(0.0460203 -0.0058884 0 0.000804381 0 0)
(0.0896652 -0.00727359 0 0.000727938 0 0)
(0.134798 -0.00727648 0 0.000623643 0 0)
(0.196899 -0.00689212 0 0.000445292 0 0)
(0.235952 -0.00574566 0 0.000282992 0 0)
(0.296256 -0.00527287 0 0.000173346 0 0)
(0.317867 -0.00471511 0 0.000102173 0 0)
(0.380508 -0.00473801 0 8.87771e-05 0 0)
(0.390633 -0.0052121 0 0.000109804 0 0)
(0.462825 -0.00452795 0 0.000125069 0 0)
(0.468181 -0.00800834 0 0.000246338 0 0)
(0.555505 -0.00379511 0 0.000312208 0 0)
(0.582054 -0.0203898 0 0.00118749 0 0)
(0.691316 -0.00896596 0 0.00156527 0 0)
(0.96298 -0.103258 0 0.0186753 0 0)
(1.1811 -0.164975 0 0.0778194 0 0)
(0.0534719 0.0146292 0 0.00426214 0 0)
(0.00552802 0.00462885 0 0.00476534 0 0)
(0.00792609 0.00259508 0 0.00209329 0 0)
(0.00829862 0.00151223 0 0.00153531 0 0)
(0.00585932 0.000120146 0 0.00144451 0 0)
(0.00981618 -0.00260349 0 0.0013879 0 0)
(0.0211828 -0.00401215 0 0.00124949 0 0)
(0.0491042 -0.00535417 0 0.000948625 0 0)
(0.0689568 -0.00488236 0 0.000629749 0 0)
(0.108626 -0.0052443 0 0.000411772 0 0)
(0.121477 -0.00456596 0 0.000230269 0 0)
(0.168785 -0.00555536 0 0.000247648 0 0)
(0.177228 -0.00491899 0 0.000197382 0 0)
(0.229042 -0.00698809 0 0.000343996 0 0)
(0.245156 -0.00543898 0 0.000344165 0 0)
(0.292478 -0.0116534 0 0.000829829 0 0)
(0.338165 -0.0070101 0 0.00112539 0 0)
(0.396252 -0.036373 0 0.00645757 0 0)
(0.544201 -0.0408825 0 0.0108407 0 0)
(0.774136 -0.235113 0 0.200107 0 0)
(0.0504588 0.0119442 0 0.00304602 0 0)
(0.0058325 0.00406377 0 0.0042422 0 0)
(0.012852 0.00378563 0 0.00179658 0 0)
(0.0208107 0.00448307 0 0.0014722 0 0)
(0.0268227 0.0055846 0 0.00169967 0 0)
(0.019689 0.00404361 0 0.00186625 0 0)
(0.0170949 0.00283082 0 0.00183233 0 0)
(0.0127738 2.47638e-05 0 0.00147922 0 0)
(0.014514 -0.000549587 0 0.0011059 0 0)
(0.0227666 -0.00206534 0 0.000720466 0 0)
(0.024386 -0.00206957 0 0.000484181 0 0)
(0.0433421 -0.00303501 0 0.000423027 0 0)
(0.0436964 -0.00374283 0 0.000496959 0 0)
(0.0701458 -0.00397477 0 0.000529667 0 0)
(0.0742418 -0.00640269 0 0.00100224 0 0)
(0.103522 -0.00522174 0 0.00112386 0 0)
(0.116962 -0.0140529 0 0.00353365 0 0)
(0.163937 -0.0121391 0 0.00418716 0 0)
(0.22191 -0.0587002 0 0.0315876 0 0)
(0.392635 -0.121825 0 0.109819 0 0)
(0.0517964 0.0103561 0 0.00227445 0 0)
(0.00670858 0.00303441 0 0.00378072 0 0)
(0.0137431 0.00317662 0 0.00144278 0 0)
(0.0237076 0.00403654 0 0.00108643 0 0)
(0.0393958 0.00651836 0 0.00144275 0 0)
(0.039388 0.00683814 0 0.00182754 0 0)
(0.0479961 0.00745068 0 0.00199395 0 0)
(0.0381082 0.00511325 0 0.00179362 0 0)
(0.0423975 0.00450638 0 0.00135308 0 0)
(0.0318262 0.0024004 0 0.00106369 0 0)
(0.0348406 0.00230205 0 0.000655223 0 0)
(0.0264972 0.000769966 0 0.00078723 0 0)
(0.0284406 0.000489148 0 0.000583074 0 0)
(0.0234996 -0.000931733 0 0.00103782 0 0)
(0.0260737 -0.00132507 0 0.00101747 0 0)
(0.0255179 -0.00336229 0 0.00224018 0 0)
(0.0279118 -0.00408933 0 0.00265075 0 0)
(0.0418574 -0.0108497 0 0.0110506 0 0)
(0.0650868 -0.0221497 0 0.0185026 0 0)
(0.167525 -0.0696481 0 0.146135 0 0)
(0.0560799 0.0091414 0 0.00170156 0 0)
(0.00946905 0.002323 0 0.00334778 0 0)
(0.013997 0.00264454 0 0.00129329 0 0)
(0.0233472 0.00316483 0 0.000823753 0 0)
(0.0385123 0.00552577 0 0.00112027 0 0)
(0.0402134 0.00634147 0 0.00155234 0 0)
(0.0555686 0.00789949 0 0.00180076 0 0)
(0.0504923 0.00645466 0 0.00164475 0 0)
(0.0654137 0.00644761 0 0.00147546 0 0)
(0.0578215 0.0047301 0 0.00112869 0 0)
(0.0710005 0.00526786 0 0.000874686 0 0)
(0.0607866 0.00380364 0 0.000874989 0 0)
(0.0699162 0.00433476 0 0.00103305 0 0)
(0.0568847 0.0026929 0 0.00116848 0 0)
(0.0625941 0.00332345 0 0.00183184 0 0)
(0.0480208 0.000758793 0 0.00228974 0 0)
(0.0491485 0.00228628 0 0.00446246 0 0)
(0.0400438 -9.63543e-05 0 0.00830521 0 0)
(0.0479487 -0.00476094 0 0.0296809 0 0)
(0.0979339 -0.00523375 0 0.158566 0 0)
(0.0601644 0.00803347 0 0.00127385 0 0)
(0.0102815 0.00183814 0 0.00285468 0 0)
(0.0119085 0.00221935 0 0.00122613 0 0)
(0.0209917 0.00256949 0 0.000661945 0 0)
(0.0330617 0.00448347 0 0.000876069 0 0)
(0.0349801 0.00535779 0 0.00129054 0 0)
(0.0481578 0.00683118 0 0.00156643 0 0)
(0.0454911 0.00580911 0 0.00160576 0 0)
(0.0616138 0.005873 0 0.00121414 0 0)
(0.0585647 0.0049842 0 0.00116437 0 0)
(0.0772417 0.00498918 0 0.000823912 0 0)
(0.0724698 0.00525824 0 0.00111258 0 0)
(0.0911047 0.00443841 0 0.00100047 0 0)
(0.0834293 0.0060183 0 0.00156821 0 0)
(0.0989997 0.00405628 0 0.00184185 0 0)
(0.0867176 0.00647718 0 0.00307858 0 0)
(0.0961368 0.00505214 0 0.00428366 0 0)
(0.0828038 0.00939318 0 0.0114453 0 0)
(0.0901825 0.0139239 0 0.0310015 0 0)
(0.11885 0.0283076 0 0.124312 0 0)
(0.0583969 0.00686769 0 0.000970802 0 0)
(0.00635815 0.00156091 0 0.00240356 0 0)
(0.0077511 0.00181561 0 0.00119449 0 0)
(0.0162392 0.00214432 0 0.000561107 0 0)
(0.0264142 0.00354559 0 0.000722994 0 0)
(0.0298714 0.00461815 0 0.00111449 0 0)
(0.0384834 0.00568322 0 0.00136352 0 0)
(0.0396858 0.00512729 0 0.00132104 0 0)
(0.0502319 0.004792 0 0.0012303 0 0)
(0.0534545 0.00414905 0 0.00112897 0 0)
(0.0651535 0.00428898 0 0.000902668 0 0)
(0.07041 0.00439652 0 0.00104889 0 0)
(0.0821046 0.0041323 0 0.00118749 0 0)
(0.0878823 0.00529878 0 0.00157456 0 0)
(0.0967282 0.00456202 0 0.00204835 0 0)
(0.102412 0.00665032 0 0.00309702 0 0)
(0.105643 0.00629943 0 0.00460937 0 0)
(0.109705 0.0160567 0 0.012674 0 0)
(0.110362 0.0190575 0 0.0299689 0 0)
(0.147021 0.0550883 0 0.137743 0 0)
(0.0534664 0.005646 0 0.000734341 0 0)
(0.00309007 0.00128949 0 0.00200606 0 0)
(0.00542947 0.0013299 0 0.00115209 0 0)
(0.0131573 0.00172291 0 0.00051153 0 0)
(0.0217947 0.0025882 0 0.000627877 0 0)
(0.0272321 0.00391413 0 0.000999023 0 0)
(0.0330655 0.00451698 0 0.00122044 0 0)
(0.0370002 0.00443289 0 0.00136273 0 0)
(0.0435107 0.00350474 0 0.00105153 0 0)
(0.050514 0.00365844 0 0.00108849 0 0)
(0.0577622 0.0028561 0 0.000847405 0 0)
(0.0673555 0.00393474 0 0.00112866 0 0)
(0.0739746 0.00271161 0 0.00116323 0 0)
(0.0837414 0.00502118 0 0.00157628 0 0)
(0.0900727 0.00353272 0 0.0019083 0 0)
(0.10024 0.00616626 0 0.00289213 0 0)
(0.101111 0.00706634 0 0.00458722 0 0)
(0.10837 0.0149389 0 0.0115007 0 0)
(0.111485 0.0239626 0 0.0326673 0 0)
(0.145068 0.0581316 0 0.119612 0 0)
(0.0519746 0.00460357 0 0.000563844 0 0)
(0.00331306 0.000802668 0 0.00164137 0 0)
(0.00557315 0.00079996 0 0.00111168 0 0)
(0.0126443 0.00127175 0 0.000454761 0 0)
(0.0203688 0.00182774 0 0.000555828 0 0)
(0.0262223 0.00309802 0 0.000887064 0 0)
(0.0309001 0.00364054 0 0.00107853 0 0)
(0.0348772 0.00368916 0 0.00112367 0 0)
(0.0403509 0.00288972 0 0.00100642 0 0)
(0.0473977 0.00272992 0 0.00104807 0 0)
(0.0539692 0.00228686 0 0.000821736 0 0)
(0.0622581 0.00297718 0 0.00102409 0 0)
(0.068746 0.00229551 0 0.00112504 0 0)
(0.0774795 0.00425901 0 0.00147754 0 0)
(0.0845098 0.00296361 0 0.00165879 0 0)
(0.0914147 0.00650998 0 0.00294602 0 0)
(0.0940756 0.00660172 0 0.00418138 0 0)
(0.100556 0.0171622 0 0.0123487 0 0)
(0.106904 0.0249568 0 0.0316396 0 0)
(0.137971 0.0579431 0 0.113716 0 0)
(0.0522097 0.00374182 0 0.000436659 0 0)
(0.00340763 0.00032881 0 0.00135468 0 0)
(0.00488951 0.000343204 0 0.0010876 0 0)
(0.010751 0.000918558 0 0.000455183 0 0)
(0.0185329 0.00136707 0 0.000499728 0 0)
(0.0234838 0.00248603 0 0.00077431 0 0)
(0.0274412 0.00299392 0 0.000953791 0 0)
(0.0310118 0.0031902 0 0.00104633 0 0)
(0.0364316 0.00233891 0 0.000841001 0 0)
(0.0424019 0.00230368 0 0.00086783 0 0)
(0.0484814 0.00178521 0 0.000711148 0 0)
(0.0557964 0.00272284 0 0.000926525 0 0)
(0.0625626 0.0021586 0 0.000967363 0 0)
(0.0706288 0.00373973 0 0.00119872 0 0)
(0.0765019 0.00306151 0 0.00139035 0 0)
(0.0826618 0.00555108 0 0.00246798 0 0)
(0.0864046 0.00758544 0 0.00398238 0 0)
(0.0931555 0.0165016 0 0.0117756 0 0)
(0.101099 0.0258331 0 0.0310368 0 0)
(0.134601 0.0604655 0 0.107813 0 0)
(0.0519046 0.00307411 0 0.000335199 0 0)
(0.00243735 0.00017958 0 0.00107766 0 0)
(0.00347928 0.000105997 0 0.00096128 0 0)
(0.00882049 0.0007408 0 0.000419547 0 0)
(0.0164471 0.00119313 0 0.00042542 0 0)
(0.0213031 0.00214026 0 0.000641287 0 0)
(0.0245149 0.00261195 0 0.000798393 0 0)
(0.0282697 0.0027987 0 0.000815285 0 0)
(0.0326167 0.00219029 0 0.000693185 0 0)
(0.0384885 0.00203251 0 0.000745928 0 0)
(0.043826 0.00175723 0 0.000611643 0 0)
(0.0516599 0.00254139 0 0.000774195 0 0)
(0.0571369 0.00212698 0 0.000790847 0 0)
(0.0652868 0.00358718 0 0.00106444 0 0)
(0.0696132 0.00289259 0 0.00113461 0 0)
(0.0772822 0.00580239 0 0.00241176 0 0)
(0.0805305 0.00746273 0 0.00378911 0 0)
(0.0892624 0.0160365 0 0.0116923 0 0)
(0.0979931 0.0266963 0 0.0304654 0 0)
(0.133777 0.0609303 0 0.101251 0 0)
(0.0513269 0.00251331 0 0.000238828 0 0)
(0.00168588 0.000335039 0 0.000800607 0 0)
(0.00315898 0.00024799 0 0.000722394 0 0)
(0.00815695 0.000803987 0 0.000352124 0 0)
(0.0148295 0.00108195 0 0.000345956 0 0)
(0.0197907 0.00195914 0 0.000509283 0 0)
(0.0224215 0.00226781 0 0.000644611 0 0)
(0.0260625 0.00246145 0 0.000691762 0 0)
(0.0295048 0.00184312 0 0.000571459 0 0)
(0.0356279 0.00181056 0 0.000592267 0 0)
(0.040632 0.00144874 0 0.000496084 0 0)
(0.0484511 0.0022021 0 0.00065743 0 0)
(0.0531121 0.00165303 0 0.00065247 0 0)
(0.0612877 0.00293956 0 0.000882095 0 0)
(0.0652342 0.00238058 0 0.000984536 0 0)
(0.0737601 0.0052663 0 0.00217879 0 0)
(0.0768504 0.00667213 0 0.00385808 0 0)
(0.087459 0.0157168 0 0.0115245 0 0)
(0.0971126 0.0266666 0 0.0299223 0 0)
(0.135403 0.0603904 0 0.0936487 0 0)
(0.0513423 0.00197812 0 0.000175037 0 0)
(0.00145445 0.000323368 0 0.000572892 0 0)
(0.00313496 0.000282575 0 0.00051762 0 0)
(0.00767273 0.000672661 0 0.000295085 0 0)
(0.0139755 0.000777004 0 0.000307343 0 0)
(0.018446 0.00148386 0 0.000425879 0 0)
(0.0212815 0.00177905 0 0.000551937 0 0)
(0.0242709 0.00183363 0 0.000563068 0 0)
(0.0279604 0.00131759 0 0.000526059 0 0)
(0.0332756 0.00113766 0 0.000568509 0 0)
(0.0386492 0.000933192 0 0.000497145 0 0)
(0.0455636 0.0014283 0 0.000631273 0 0)
(0.0512654 0.00106257 0 0.000603574 0 0)
(0.0581727 0.00203432 0 0.000866458 0 0)
(0.0632479 0.00191861 0 0.000893535 0 0)
(0.0704199 0.00416502 0 0.00225861 0 0)
(0.0755906 0.00636755 0 0.00376331 0 0)
(0.0855157 0.0147238 0 0.0117051 0 0)
(0.0979638 0.0272595 0 0.0287817 0 0)
(0.137155 0.0589286 0 0.0871633 0 0)
(0.0515135 0.00143327 0 0.000143406 0 0)
(0.00114197 5.7062e-05 0 0.000445976 0 0)
(0.00272878 -2.48776e-05 0 0.000431705 0 0)
(0.00686668 0.000274259 0 0.000316282 0 0)
(0.0131912 0.00033135 0 0.000330415 0 0)
(0.0172591 0.00085091 0 0.000412591 0 0)
(0.0202993 0.00110002 0 0.00050615 0 0)
(0.0227094 0.00114986 0 0.000510228 0 0)
(0.0267921 0.000710812 0 0.00048829 0 0)
(0.0314709 0.000534644 0 0.000521649 0 0)
(0.0371955 0.000440409 0 0.000448205 0 0)
(0.0434874 0.000885741 0 0.000558816 0 0)
(0.0497972 0.000523024 0 0.000533423 0 0)
(0.0557045 0.00146222 0 0.000776057 0 0)
(0.0614321 0.00133078 0 0.000859814 0 0)
(0.0678685 0.00369183 0 0.00206956 0 0)
(0.0745203 0.00581434 0 0.00381643 0 0)
(0.0841831 0.0145133 0 0.0110889 0 0)
(0.0991522 0.0266496 0 0.0278714 0 0)
(0.137797 0.0599 0 0.0794229 0 0)
(0.0515531 0.000957723 0 0.000112669 0 0)
(0.00124617 -6.95976e-05 0 0.000332892 0 0)
(0.00292783 -0.00020999 0 0.000336494 0 0)
(0.00686722 6.55531e-05 0 0.000291765 0 0)
(0.0129708 0.000130459 0 0.000299898 0 0)
(0.0170454 0.000487513 0 0.000359724 0 0)
(0.0196431 0.000604006 0 0.000436996 0 0)
(0.0222718 0.000683239 0 0.00043346 0 0)
(0.0258998 0.000392598 0 0.000412657 0 0)
(0.0307761 0.00033168 0 0.000437084 0 0)
(0.0361388 0.000256131 0 0.000358609 0 0)
(0.0425848 0.000650229 0 0.000464222 0 0)
(0.0480955 0.000318031 0 0.000431398 0 0)
(0.0544001 0.00106139 0 0.000685859 0 0)
(0.0595074 0.00104398 0 0.000841166 0 0)
(0.0668366 0.00336594 0 0.00185078 0 0)
(0.0732028 0.00564218 0 0.00395152 0 0)
(0.0844244 0.0142105 0 0.0102778 0 0)
(0.100646 0.0260672 0 0.0278164 0 0)
(0.141219 0.0599546 0 0.0716599 0 0)
(0.0514237 0.000596124 0 8.50484e-05 0 0)
(0.0013579 3.90816e-06 0 0.000213124 0 0)
(0.00322729 -7.14856e-05 0 0.00021098 0 0)
(0.00702194 0.000112106 0 0.000204407 0 0)
(0.0126903 0.00014911 0 0.000223915 0 0)
(0.0168522 0.000315887 0 0.000260032 0 0)
(0.0192001 0.000415435 0 0.00032906 0 0)
(0.0220628 0.000390945 0 0.000311002 0 0)
(0.0253747 0.000322934 0 0.000310769 0 0)
(0.0303113 0.000201731 0 0.000317204 0 0)
(0.0351496 0.000239869 0 0.000267962 0 0)
(0.0415693 0.000361678 0 0.000373484 0 0)
(0.0466466 0.000207889 0 0.0003385 0 0)
(0.0534976 0.000616798 0 0.000597617 0 0)
(0.0582354 0.000928279 0 0.000724227 0 0)
(0.0661911 0.00288504 0 0.00177044 0 0)
(0.0723562 0.00566158 0 0.00368179 0 0)
(0.0854491 0.0134286 0 0.0101461 0 0)
(0.10242 0.0262455 0 0.0259699 0 0)
(0.144685 0.0569382 0 0.0651742 0 0)
(0.0514104 0.000183893 0 6.76456e-05 0 0)
(0.00114667 3.1979e-05 0 0.000153365 0 0)
(0.00291093 4.72488e-05 0 0.000135153 0 0)
(0.00668323 0.000107248 0 0.000152748 0 0)
(0.0124075 5.20762e-05 0 0.000182858 0 0)
(0.0164133 0.000180451 0 0.000200088 0 0)
(0.0189006 0.000152097 0 0.000243588 0 0)
(0.0215343 0.000232957 0 0.000233599 0 0)
(0.0249738 8.77652e-05 0 0.000242598 0 0)
(0.0296663 0.000114511 0 0.000262799 0 0)
(0.0346317 -0.000109843 0 0.000238227 0 0)
(0.0406025 0.000229199 0 0.000322286 0 0)
(0.0461817 -0.000255714 0 0.000299696 0 0)
(0.0526998 0.000580816 0 0.000507693 0 0)
(0.0580169 0.000347579 0 0.000663666 0 0)
(0.0655255 0.00291106 0 0.00171161 0 0)
(0.0728505 0.00489327 0 0.00335159 0 0)
(0.0863022 0.013382 0 0.0102574 0 0)
(0.105232 0.0255562 0 0.0231983 0 0)
(0.1487 0.0535789 0 0.0628774 0 0)
(0.05147 -0.000199664 0 6.65587e-05 0 0)
(0.000930895 -5.87642e-05 0 0.00015568 0 0)
(0.00259388 -3.48438e-05 0 0.000138335 0 0)
(0.00632093 -5.93292e-05 0 0.000155068 0 0)
(0.0121849 -7.62851e-05 0 0.000176189 0 0)
(0.016088 -0.000159481 0 0.000184923 0 0)
(0.0185905 -0.000145978 0 0.000215229 0 0)
(0.0209262 -0.000204155 0 0.000215338 0 0)
(0.0245787 -0.000150248 0 0.000223086 0 0)
(0.0291935 -0.000328587 0 0.000253636 0 0)
(0.034561 -0.00029643 0 0.000207463 0 0)
(0.0402363 -0.000283769 0 0.000308989 0 0)
(0.0461983 -0.000328608 0 0.000242517 0 0)
(0.0522012 -5.27944e-05 0 0.0004824 0 0)
(0.0582339 0.000374639 0 0.00065637 0 0)
(0.0655692 0.00198967 0 0.00159188 0 0)
(0.0742015 0.00501775 0 0.00345087 0 0)
(0.0878025 0.0120434 0 0.00941543 0 0)
(0.108966 0.0258746 0 0.0226252 0 0)
(0.153687 0.0490531 0 0.0571415 0 0)
(0.0514284 -0.000617444 0 6.87514e-05 0 0)
(0.000902066 -0.000125824 0 0.000186129 0 0)
(0.00255867 -0.000123782 0 0.000170821 0 0)
(0.00632285 -0.000237582 0 0.000163891 0 0)
(0.0121842 -0.000262131 0 0.000183705 0 0)
(0.0161309 -0.000477075 0 0.00019013 0 0)
(0.0185875 -0.000611278 0 0.000241035 0 0)
(0.0208797 -0.000628666 0 0.000247507 0 0)
(0.0245409 -0.000568281 0 0.00025849 0 0)
(0.0292945 -0.000608674 0 0.00025965 0 0)
(0.0348161 -0.000669482 0 0.000226838 0 0)
(0.0405444 -0.000547244 0 0.000278275 0 0)
(0.0465507 -0.000782414 0 0.000255186 0 0)
(0.0525261 -0.000319698 0 0.000417123 0 0)
(0.0589311 -0.000278676 0 0.000697142 0 0)
(0.0666367 0.00173467 0 0.00146793 0 0)
(0.0760918 0.00403899 0 0.00336997 0 0)
(0.0905826 0.0119011 0 0.00890034 0 0)
(0.11353 0.0236174 0 0.0210383 0 0)
(0.158798 0.0510775 0 0.0524217 0 0)
(0.0513478 -0.00102895 0 8.17813e-05 0 0)
(0.000953558 -0.000168103 0 0.000255016 0 0)
(0.00266726 -0.000151105 0 0.000224112 0 0)
(0.00659403 -0.000378931 0 0.000178691 0 0)
(0.0124975 -0.0004474 0 0.000197493 0 0)
(0.0164968 -0.000821908 0 0.000217259 0 0)
(0.0190017 -0.00103516 0 0.000282619 0 0)
(0.0214591 -0.00108519 0 0.000301854 0 0)
(0.0250942 -0.000921356 0 0.000293655 0 0)
(0.0299448 -0.000898084 0 0.000275546 0 0)
(0.0354446 -0.00096241 0 0.000238765 0 0)
(0.0414135 -0.000879276 0 0.000270378 0 0)
(0.0473722 -0.00118455 0 0.000278036 0 0)
(0.0536804 -0.00071457 0 0.000382534 0 0)
(0.0602517 -0.00084455 0 0.000760861 0 0)
(0.0684617 0.00133643 0 0.00139646 0 0)
(0.0785034 0.00320549 0 0.00335461 0 0)
(0.0942097 0.0114159 0 0.00845988 0 0)
(0.119132 0.0215335 0 0.0199743 0 0)
(0.165949 0.0519449 0 0.0482959 0 0)
(0.0512935 -0.00147163 0 9.92018e-05 0 0)
(0.000964834 -0.00021743 0 0.000352443 0 0)
(0.00271472 -0.000161796 0 0.000289568 0 0)
(0.00694952 -0.000488486 0 0.00017899 0 0)
(0.0130039 -0.000611925 0 0.000198369 0 0)
(0.0171038 -0.0011741 0 0.000245656 0 0)
(0.0197179 -0.00137967 0 0.000310975 0 0)
(0.0224387 -0.00154442 0 0.000364237 0 0)
(0.0261099 -0.00116779 0 0.000301009 0 0)
(0.0310127 -0.00125018 0 0.000298688 0 0)
(0.0365566 -0.00110706 0 0.000222622 0 0)
(0.0427717 -0.00137533 0 0.000306822 0 0)
(0.0488243 -0.00132984 0 0.000259053 0 0)
(0.0554763 -0.00144647 0 0.000452198 0 0)
(0.0622184 -0.000887472 0 0.000719748 0 0)
(0.0709258 0.000301917 0 0.00146086 0 0)
(0.0815727 0.00326323 0 0.00318283 0 0)
(0.0985586 0.00949616 0 0.00793804 0 0)
(0.125331 0.0214241 0 0.0192199 0 0)
(0.172599 0.0458131 0 0.0397685 0 0)
(0.0511651 -0.00196696 0 0.00013424 0 0)
(0.000857341 -0.000249642 0 0.000489909 0 0)
(0.00258361 -0.000174318 0 0.000405726 0 0)
(0.00721535 -0.000558322 0 0.000183426 0 0)
(0.013538 -0.000788157 0 0.000211583 0 0)
(0.0178695 -0.00146413 0 0.000287117 0 0)
(0.0206043 -0.00179954 0 0.000389402 0 0)
(0.0235761 -0.00188108 0 0.000433994 0 0)
(0.0273005 -0.00153452 0 0.000365441 0 0)
(0.032437 -0.0014827 0 0.000325852 0 0)
(0.0380669 -0.00148217 0 0.000265663 0 0)
(0.0445695 -0.00163482 0 0.000311778 0 0)
(0.0508339 -0.00181143 0 0.000297303 0 0)
(0.0578324 -0.00179858 0 0.000465192 0 0)
(0.0647909 -0.00149723 0 0.000717215 0 0)
(0.0740867 -0.000178373 0 0.00156891 0 0)
(0.0854701 0.00233339 0 0.00283957 0 0)
(0.103841 0.00843575 0 0.00811801 0 0)
(0.132404 0.0193589 0 0.0168869 0 0)
(0.180826 0.0412666 0 0.037954 0 0)
(0.0510533 -0.00249082 0 0.00017971 0 0)
(0.000791441 -0.000335208 0 0.000672495 0 0)
(0.00250859 -0.000258958 0 0.000541407 0 0)
(0.00756671 -0.000686356 0 0.000195232 0 0)
(0.0142089 -0.000972951 0 0.000221664 0 0)
(0.0187878 -0.00187166 0 0.000347125 0 0)
(0.0217686 -0.00218802 0 0.000452227 0 0)
(0.0249207 -0.00237369 0 0.000537498 0 0)
(0.0288823 -0.00184252 0 0.000404281 0 0)
(0.0342809 -0.00192347 0 0.00038107 0 0)
(0.0401658 -0.0017658 0 0.000281811 0 0)
(0.0469056 -0.00214548 0 0.000342606 0 0)
(0.0534993 -0.00212573 0 0.000328438 0 0)
(0.0607377 -0.00246478 0 0.000484254 0 0)
(0.0681793 -0.001909 0 0.000798573 0 0)
(0.0780335 -0.00107917 0 0.00150619 0 0)
(0.0904789 0.00155593 0 0.00291591 0 0)
(0.110066 0.0068631 0 0.00758239 0 0)
(0.140718 0.0170127 0 0.0158179 0 0)
(0.190643 0.0371493 0 0.0365197 0 0)
(0.0509764 -0.00313447 0 0.000256221 0 0)
(0.000833894 -0.000468083 0 0.000900097 0 0)
(0.00263375 -0.000415779 0 0.000729981 0 0)
(0.00821507 -0.000852827 0 0.000225196 0 0)
(0.0151623 -0.00126775 0 0.000267208 0 0)
(0.0200029 -0.00229584 0 0.000442053 0 0)
(0.0232991 -0.00268522 0 0.000579207 0 0)
(0.0267784 -0.00287405 0 0.000677232 0 0)
(0.0310582 -0.0022785 0 0.000504401 0 0)
(0.0367108 -0.00234488 0 0.000468085 0 0)
(0.0429201 -0.002159 0 0.0003289 0 0)
(0.0499373 -0.00264493 0 0.00041337 0 0)
(0.0569483 -0.00252938 0 0.000348007 0 0)
(0.0645091 -0.00313622 0 0.000581656 0 0)
(0.0726 -0.00239535 0 0.000788588 0 0)
(0.0829925 -0.00204475 0 0.00161785 0 0)
(0.0966181 0.00071345 0 0.00281682 0 0)
(0.117271 0.00502691 0 0.00726314 0 0)
(0.150392 0.0144171 0 0.014996 0 0)
(0.201838 0.0323803 0 0.0349245 0 0)
(0.0510211 -0.00382786 0 0.000353571 0 0)
(0.000898088 -0.000629456 0 0.00117782 0 0)
(0.00286603 -0.000612598 0 0.000882171 0 0)
(0.00909327 -0.00105582 0 0.000260681 0 0)
(0.0164466 -0.00161717 0 0.000316531 0 0)
(0.0215791 -0.00279769 0 0.000551958 0 0)
(0.0252679 -0.00320917 0 0.000705307 0 0)
(0.0291667 -0.00343666 0 0.000821438 0 0)
(0.0338029 -0.00275551 0 0.000601979 0 0)
(0.03984 -0.00283795 0 0.000552796 0 0)
(0.0463361 -0.00259403 0 0.000374755 0 0)
(0.0538079 -0.00322494 0 0.000482818 0 0)
(0.0611623 -0.00297769 0 0.000386238 0 0)
(0.0693795 -0.00390212 0 0.000676924 0 0)
(0.0779924 -0.0029524 0 0.000819864 0 0)
(0.0892547 -0.00315966 0 0.00172842 0 0)
(0.103654 -0.000192628 0 0.00277186 0 0)
(0.125908 0.00288226 0 0.00698237 0 0)
(0.161038 0.0116538 0 0.0144011 0 0)
(0.214666 0.0267031 0 0.0331355 0 0)
(0.0515878 -0.00465283 0 0.000493562 0 0)
(0.000989844 -0.000814834 0 0.0015247 0 0)
(0.00327584 -0.000890939 0 0.00099099 0 0)
(0.0100656 -0.00130519 0 0.000328069 0 0)
(0.0182611 -0.00208461 0 0.000407377 0 0)
(0.0232763 -0.00335278 0 0.000706808 0 0)
(0.0280151 -0.0038481 0 0.000883354 0 0)
(0.0317103 -0.00401392 0 0.000999992 0 0)
(0.0374282 -0.00334887 0 0.000741862 0 0)
(0.0432633 -0.00336669 0 0.000671435 0 0)
(0.0508022 -0.00314973 0 0.000448396 0 0)
(0.0581204 -0.00383442 0 0.00057499 0 0)
(0.0665388 -0.00353106 0 0.000440549 0 0)
(0.0747866 -0.0046846 0 0.000792197 0 0)
(0.0847004 -0.00362354 0 0.000858217 0 0)
(0.0962949 -0.00432242 0 0.00185377 0 0)
(0.11207 -0.00122176 0 0.00271109 0 0)
(0.135607 0.000599656 0 0.00681081 0 0)
(0.172771 0.00884538 0 0.0137091 0 0)
(0.228994 0.0203181 0 0.0314751 0 0)
(0.0528259 -0.00565109 0 0.000686045 0 0)
(0.00129701 -0.00101871 0 0.00192084 0 0)
(0.00417034 -0.00128669 0 0.00106487 0 0)
(0.0111113 -0.00158952 0 0.000412265 0 0)
(0.0210078 -0.00271261 0 0.000526898 0 0)
(0.0248291 -0.00390536 0 0.000877054 0 0)
(0.032144 -0.00464618 0 0.00107968 0 0)
(0.034032 -0.0045302 0 0.00117002 0 0)
(0.0427497 -0.00413855 0 0.000904077 0 0)
(0.0464327 -0.00383292 0 0.00078375 0 0)
(0.057296 -0.00388503 0 0.000532764 0 0)
(0.0622628 -0.00438798 0 0.000670679 0 0)
(0.0743397 -0.00429221 0 0.000506579 0 0)
(0.0800338 -0.00536796 0 0.000928125 0 0)
(0.0940585 -0.00449787 0 0.000886963 0 0)
(0.103148 -0.00536801 0 0.0020476 0 0)
(0.123006 -0.00247586 0 0.00256816 0 0)
(0.144558 -0.00139199 0 0.00687695 0 0)
(0.184789 0.00629503 0 0.0124225 0 0)
(0.239783 0.0153754 0 0.0306986 0 0)
(0.053749 -0.0067865 0 0.00094675 0 0)
(0.00193952 -0.00130192 0 0.00237511 0 0)
(0.00563185 -0.0018077 0 0.00114993 0 0)
(0.0124124 -0.00195272 0 0.000528221 0 0)
(0.0247386 -0.00354912 0 0.000691918 0 0)
(0.0265594 -0.00451509 0 0.00107946 0 0)
(0.0378399 -0.0056611 0 0.00131371 0 0)
(0.0364206 -0.00501917 0 0.00134919 0 0)
(0.0502396 -0.00520066 0 0.00110571 0 0)
(0.0495221 -0.00426925 0 0.000901749 0 0)
(0.0665078 -0.00487175 0 0.000646754 0 0)
(0.0660297 -0.00489 0 0.000763759 0 0)
(0.0851457 -0.00534871 0 0.000605939 0 0)
(0.083924 -0.00590861 0 0.00104797 0 0)
(0.105402 -0.0055747 0 0.000961832 0 0)
(0.105911 -0.0059902 0 0.00214117 0 0)
(0.132056 -0.00358646 0 0.0025565 0 0)
(0.142996 -0.0019632 0 0.00650879 0 0)
(0.184551 0.00583564 0 0.0114657 0 0)
(0.227694 0.0169023 0 0.0281214 0 0)
(0.0531847 -0.00792326 0 0.0012795 0 0)
(0.00263673 -0.00171897 0 0.00288228 0 0)
(0.0071143 -0.00231304 0 0.00124157 0 0)
(0.0140988 -0.00246479 0 0.00067973 0 0)
(0.0285738 -0.0045169 0 0.000904552 0 0)
(0.029391 -0.0053128 0 0.00132743 0 0)
(0.0439761 -0.00679125 0 0.00157868 0 0)
(0.0401312 -0.00566032 0 0.00155499 0 0)
(0.058128 -0.00632014 0 0.00132289 0 0)
(0.0530471 -0.00480099 0 0.00102948 0 0)
(0.0745445 -0.00582676 0 0.000764048 0 0)
(0.0672536 -0.00526037 0 0.000856229 0 0)
(0.0899988 -0.0061149 0 0.000696566 0 0)
(0.0790111 -0.00590183 0 0.00114849 0 0)
(0.101721 -0.00574535 0 0.000990771 0 0)
(0.0896532 -0.0052124 0 0.00214681 0 0)
(0.11314 -0.0025575 0 0.00240142 0 0)
(0.109827 0.000522565 0 0.00589038 0 0)
(0.144354 0.0106719 0 0.0100828 0 0)
(0.180826 0.0263248 0 0.0240331 0 0)
(0.0516426 -0.00907141 0 0.00170934 0 0)
(0.0031752 -0.00225824 0 0.00338652 0 0)
(0.00839178 -0.00271703 0 0.00132947 0 0)
(0.0164175 -0.00314556 0 0.000868506 0 0)
(0.0323495 -0.00554152 0 0.00116533 0 0)
(0.0336804 -0.00628365 0 0.00160612 0 0)
(0.0488894 -0.00779051 0 0.0018537 0 0)
(0.0431779 -0.00621799 0 0.00175244 0 0)
(0.0591096 -0.0068078 0 0.00149905 0 0)
(0.0491847 -0.0047147 0 0.00110471 0 0)
(0.0648711 -0.00566202 0 0.000839672 0 0)
(0.0509832 -0.00425836 0 0.000858921 0 0)
(0.0641259 -0.00504868 0 0.000732733 0 0)
(0.0475219 -0.00350599 0 0.00108951 0 0)
(0.0582042 -0.00352773 0 0.000947122 0 0)
(0.044563 -0.00114679 0 0.00188029 0 0)
(0.0560188 0.00101594 0 0.00211958 0 0)
(0.0578148 0.00697691 0 0.00477597 0 0)
(0.0876345 0.0174605 0 0.00834491 0 0)
(0.146176 0.0382217 0 0.0176131 0 0)
(0.0501109 -0.0103435 0 0.00228281 0 0)
(0.00374526 -0.00298378 0 0.00380984 0 0)
(0.00982863 -0.0031828 0 0.00147551 0 0)
(0.0194314 -0.00403127 0 0.00113201 0 0)
(0.034672 -0.0064788 0 0.00148262 0 0)
(0.0342545 -0.00674375 0 0.00187772 0 0)
(0.0419858 -0.00730863 0 0.00203453 0 0)
(0.0312655 -0.00490318 0 0.00182801 0 0)
(0.035025 -0.00465028 0 0.00148267 0 0)
(0.0234427 -0.00219022 0 0.00102882 0 0)
(0.0254375 -0.00259023 0 0.000748629 0 0)
(0.0175374 -0.000691136 0 0.000724498 0 0)
(0.0177092 -0.00110048 0 0.000605631 0 0)
(0.0164003 0.00121721 0 0.00088214 0 0)
(0.0170273 0.000819407 0 0.000731081 0 0)
(0.0262192 0.00441302 0 0.00148788 0 0)
(0.0327833 0.00522396 0 0.00160596 0 0)
(0.0631957 0.0132965 0 0.00363393 0 0)
(0.101167 0.0218776 0 0.00630033 0 0)
(0.196383 0.0431592 0 0.011638 0 0)
(0.0499661 -0.0119494 0 0.00304939 0 0)
(0.00484117 -0.00403097 0 0.00425322 0 0)
(0.0109973 -0.00375045 0 0.00181309 0 0)
(0.0187475 -0.00445816 0 0.00149674 0 0)
(0.0241878 -0.0055378 0 0.00172011 0 0)
(0.0164942 -0.00393967 0 0.0018952 0 0)
(0.0129006 -0.0026823 0 0.00185935 0 0)
(0.00775694 0.000161122 0 0.00153927 0 0)
(0.00838914 0.000637498 0 0.00115023 0 0)
(0.0159357 0.00235863 0 0.000743469 0 0)
(0.0164395 0.0020132 0 0.000514303 0 0)
(0.0364113 0.003544 0 0.000479991 0 0)
(0.0344263 0.00317788 0 0.000404598 0 0)
(0.0674838 0.00533517 0 0.000587956 0 0)
(0.0661334 0.00439034 0 0.000485252 0 0)
(0.111247 0.00821639 0 0.00102092 0 0)
(0.12014 0.00718126 0 0.00108503 0 0)
(0.182581 0.0165116 0 0.0025347 0 0)
(0.235191 0.0202442 0 0.00410236 0 0)
(0.358762 0.0442522 0 0.00787278 0 0)
(0.0533628 -0.0146365 0 0.00426336 0 0)
(0.00527204 -0.00461214 0 0.00476992 0 0)
(0.00715874 -0.0025696 0 0.0021002 0 0)
(0.00734034 -0.00148193 0 0.00154932 0 0)
(0.00454847 -7.938e-05 0 0.0014547 0 0)
(0.00806861 0.00269255 0 0.00140376 0 0)
(0.0187995 0.00413321 0 0.00126485 0 0)
(0.0462438 0.00553227 0 0.000972277 0 0)
(0.0651678 0.00508173 0 0.000676656 0 0)
(0.105191 0.00543619 0 0.000417845 0 0)
(0.11661 0.00485424 0 0.000276323 0 0)
(0.167482 0.00569689 0 0.000259267 0 0)
(0.170889 0.0052729 0 0.000222967 0 0)
(0.235275 0.00681301 0 0.000330133 0 0)
(0.235577 0.00565046 0 0.000277009 0 0)
(0.30973 0.00873338 0 0.000600825 0 0)
(0.320907 0.00667633 0 0.000650656 0 0)
(0.40035 0.0152285 0 0.00153002 0 0)