/*--------------------------------*- C++ -*----------------------------------*\
| =========                 |                                                 |
| \\      /  F ield         | OpenFOAM: The Open Source CFD Toolbox           |
|  \\    /   O peration     | Version:  2.4.0                                 |
|   \\  /    A nd           | Web:      www.OpenFOAM.org                      |
|    \\/     M anipulation  |                                                 |
\*---------------------------------------------------------------------------*/
FoamFile
{
    version     2.0;
    format      ascii;
    class       volScalarField;
    location    "0.017";
    object      k_0;
}
// * * * * * * * * * * * * * * * * * * * * * * * * * * * * * * * * * * * * * //

dimensions      [0 2 -2 0 0 0 0];

internalField   nonuniform List<scalar> 
4400
(
9.51754
8.50302
6.56345
5.36835
4.43775
4.35278
4.17604
4.34355
4.05989
5.13466
4.38634
6.77267
6.76815
6.41081
5.52083
5.37895
5.08959
5.17305
5.22229
5.14933
1.14729
3.1564
4.19873
4.63171
4.44316
4.31763
4.12239
3.99345
4.43003
3.73037
0.159716
0.93644
1.64901
2.36846
2.74016
2.7536
2.74914
2.58974
2.88856
2.6716
0.0167636
0.168047
0.355922
0.732651
1.20154
1.31258
1.32733
1.32951
1.32637
1.3143
0.00142023
0.0181762
0.0460302
0.122093
0.320054
0.401166
0.396668
0.414769
0.373716
0.339286
0.000135843
0.00148242
0.00377321
0.0128211
0.0488479
0.0633364
0.0589772
0.0573061
0.0452794
0.0354251
4.15403e-05
0.000220526
0.000333081
0.00107464
0.00432953
0.00477623
0.00386368
0.00322689
0.00165459
0.0011817
3.45502e-05
0.000127582
0.000145003
0.000251932
0.000410622
0.000402652
0.000315178
0.000251229
0.000137607
0.000146951
3.42141e-05
0.00010578
0.000154339
0.000204217
0.000220842
0.000214867
0.000192729
0.000171977
0.000109515
9.38437e-05
3.37557e-05
0.000110446
0.000150267
0.000204989
0.000222925
0.000216014
0.000194431
0.000169848
0.000105979
0.000106772
3.4908e-05
0.000108786
0.000142225
0.000225592
0.000438474
0.000421577
0.000353724
0.000216498
0.000184293
0.000233187
4.09908e-05
0.000183971
0.000334309
0.000885516
0.00446136
0.00506972
0.00463212
0.00276432
0.00280589
0.00399651
0.000137767
0.00134106
0.00383684
0.0116579
0.0496779
0.0651775
0.0646412
0.0559265
0.0564061
0.0679833
0.00145017
0.0163561
0.0462119
0.118067
0.319068
0.410685
0.416303
0.412187
0.420702
0.471574
0.0169336
0.156792
0.360314
0.733459
1.18401
1.3462
1.346
1.35436
1.37832
1.47688
0.160912
0.914003
1.68493
2.34293
2.74964
2.77412
2.72748
2.70465
2.72676
2.82959
1.15371
3.13296
4.23857
4.58892
4.50273
4.25311
4.13996
4.06905
4.12055
4.11637
4.3824
6.76336
6.78717
6.36035
5.63939
5.22227
5.16572
5.06392
5.11836
4.90036
9.50916
8.50256
6.57309
5.32023
4.53244
4.20626
4.21101
4.12429
4.13248
3.6827
2.84882
1.83268
1.7953
1.94578
1.95488
1.39766
0.857021
0.827396
0.9091
0.816747
0.476846
0.191487
0.0847951
0.0580887
0.0465562
0.0367389
0.0268055
0.0169837
0.00932478
0.00456731
0.00205466
0.000871227
0.000356501
0.000143351
5.70463e-05
2.25301e-05
8.8918e-06
3.54321e-06
1.43857e-06
5.98048e-07
2.54625e-07
1.10654e-07
4.88551e-08
2.18213e-08
9.82636e-09
4.45027e-09
2.02381e-09
9.23249e-10
4.22271e-10
1.93587e-10
8.89548e-11
4.09778e-11
1.8931e-11
8.77652e-12
4.08727e-12
1.91488e-12
9.04423e-13
4.32006e-13
2.09639e-13
1.04026e-13
5.33098e-14
2.85757e-14
1.62379e-14
1.00706e-14
6.92331e-15
5.17184e-15
4.61263e-15
4.6827e-15
5.08884e-15
6.13901e-15
8.22889e-15
1.25262e-14
2.00711e-14
3.48758e-14
6.31232e-14
1.19839e-13
2.35267e-13
4.72403e-13
9.66575e-13
1.99273e-12
4.19063e-12
8.68026e-12
1.91933e-11
3.79062e-11
1.04196e-10
1.63934e-10
8.01509e-10
8.12816e-10
1.05299e-08
7.88054e-09
2.47849e-07
2.20879e-07
3.94928e-06
4.81025e-06
1.56821e-05
2.69723e-05
4.32919e-05
5.28675e-05
9.3527e-05
8.46308e-05
8.56471e-05
8.81814e-05
0.000162545
0.000236086
0.000507579
0.000684047
0.00193853
0.00479807
0.0380496
0.301205
4.16726
3.45414
2.90951
2.52352
2.29766
1.86791
1.25723
1.08194
1.00275
0.756511
0.379965
0.165911
0.0722508
0.0439612
0.0391307
0.0342478
0.0252235
0.0161712
0.00910784
0.00454351
0.00205359
0.000863673
0.000346885
0.000136089
5.3133e-05
2.09171e-05
8.35815e-06
3.39658e-06
1.40541e-06
5.92526e-07
2.54411e-07
1.11024e-07
4.90978e-08
2.19332e-08
9.87169e-09
4.46751e-09
2.03015e-09
9.25529e-10
4.23069e-10
1.93856e-10
8.90414e-11
4.10038e-11
1.89376e-11
8.77733e-12
4.08668e-12
1.91417e-12
9.03878e-13
4.31636e-13
2.09398e-13
1.03868e-13
5.32011e-14
2.8497e-14
1.61781e-14
1.00223e-14
6.88212e-15
5.13638e-15
4.58007e-15
4.65001e-15
5.05449e-15
6.0954e-15
8.1779e-15
1.24889e-14
1.99767e-14
3.47264e-14
6.28945e-14
1.19446e-13
2.34467e-13
4.70628e-13
9.62195e-13
1.9823e-12
4.16462e-12
8.60954e-12
1.91367e-11
3.73047e-11
1.0695e-10
1.59983e-10
9.08222e-10
8.62904e-10
1.57709e-08
1.24661e-08
6.13644e-07
5.45661e-07
1.69443e-05
1.4496e-05
0.000117131
8.9533e-05
0.000297933
0.000201119
0.000317364
0.000242626
0.00029537
0.000222449
0.000433851
0.000362261
0.000898278
0.000784931
0.0048893
0.0055652
0.0426712
0.226351
3.14771
3.0714
2.87346
2.11741
1.52263
1.42623
1.22417
1.12692
1.01813
0.601262
0.227159
0.11637
0.0628782
0.0406449
0.032065
0.0299176
0.0243825
0.014786
0.00827555
0.00423299
0.00197119
0.000846372
0.000342391
0.000133785
5.17128e-05
2.01567e-05
8.01591e-06
3.26751e-06
1.36433e-06
5.81574e-07
2.52085e-07
1.10723e-07
4.91425e-08
2.19895e-08
9.90191e-09
4.48077e-09
2.03546e-09
9.27551e-10
4.23818e-10
1.94127e-10
8.91373e-11
4.10359e-11
1.8947e-11
8.77915e-12
4.08629e-12
1.91334e-12
9.03119e-13
4.31041e-13
2.08954e-13
1.03544e-13
5.29648e-14
2.83224e-14
1.60464e-14
9.91889e-15
6.79715e-15
5.06344e-15
4.51274e-15
4.58258e-15
4.98485e-15
6.02274e-15
8.09423e-15
1.23578e-14
1.98339e-14
3.45189e-14
6.25553e-14
1.18846e-13
2.33304e-13
4.68337e-13
9.56853e-13
1.97126e-12
4.1331e-12
8.54715e-12
1.89265e-11
3.69134e-11
1.06791e-10
1.59559e-10
9.6532e-10
1.01675e-09
2.1391e-08
2.46876e-08
1.15659e-06
1.26951e-06
4.90568e-05
4.14897e-05
0.0006321
0.000342078
0.00319089
0.00125821
0.00639077
0.0027964
0.00564252
0.00232783
0.00338783
0.00149702
0.00257859
0.00150521
0.0137839
0.00831955
0.0585014
0.184378
2.00371
1.87086
1.69498
0.914871
0.495576
0.518259
0.822684
0.952189
0.876493
0.442587
0.147208
0.0674521
0.0524837
0.0405455
0.0308724
0.0258673
0.0212953
0.0131493
0.00707668
0.00355924
0.00169444
0.000757578
0.000318698
0.000128264
5.04467e-05
1.98056e-05
7.89149e-06
3.21961e-06
1.34699e-06
5.76029e-07
2.50609e-07
1.10442e-07
4.91376e-08
2.20201e-08
9.92259e-09
4.49084e-09
2.03974e-09
9.29256e-10
4.24468e-10
1.94365e-10
8.9219e-11
4.10621e-11
1.89543e-11
8.78025e-12
4.08554e-12
1.91222e-12
9.02088e-13
4.30217e-13
2.08335e-13
1.0309e-13
5.26331e-14
2.80767e-14
1.58611e-14
9.77333e-15
6.67628e-15
4.96004e-15
4.41705e-15
4.48669e-15
4.88552e-15
5.91246e-15
7.96651e-15
1.21947e-14
1.96401e-14
3.42131e-14
6.21035e-14
1.18125e-13
2.31992e-13
4.65904e-13
9.51045e-13
1.96064e-12
4.09638e-12
8.50289e-12
1.85135e-11
3.68556e-11
1.02642e-10
1.63283e-10
9.61052e-10
1.33007e-09
2.36587e-08
5.1055e-08
1.53816e-06
2.44284e-06
8.53097e-05
6.13163e-05
0.001558
0.00076924
0.00970215
0.00439005
0.0341648
0.0189748
0.066564
0.0289585
0.0849215
0.0283427
0.0564487
0.0173215
0.0314902
0.0157511
0.0476473
0.119291
1.08027
0.893297
0.583528
0.238334
0.157172
0.262308
0.679358
0.770136
0.667449
0.319859
0.118215
0.0509413
0.0454754
0.0426735
0.0332501
0.0248699
0.0186076
0.011742
0.00625396
0.00300652
0.00136467
0.000602275
0.000260647
0.00011022
4.564e-05
1.86749e-05
7.64891e-06
3.17091e-06
1.33758e-06
5.74337e-07
2.50414e-07
1.10501e-07
4.92043e-08
2.20593e-08
9.94171e-09
4.49933e-09
2.04326e-09
9.30626e-10
4.24974e-10
1.94541e-10
8.92756e-11
4.10766e-11
1.89551e-11
8.77737e-12
4.08235e-12
1.90965e-12
9.00221e-13
4.28911e-13
2.07428e-13
1.02457e-13
5.2185e-14
2.77522e-14
1.56187e-14
9.58388e-15
6.51996e-15
4.82681e-15
4.29356e-15
4.36289e-15
4.75747e-15
5.77362e-15
7.80847e-15
1.19844e-14
1.93829e-14
3.38417e-14
6.15698e-14
1.17292e-13
2.30513e-13
4.63273e-13
9.44671e-13
1.95045e-12
4.05333e-12
8.48145e-12
1.79913e-11
3.73684e-11
9.07198e-11
1.7658e-10
7.87527e-10
2.04249e-09
2.67349e-08
1.37852e-07
2.33278e-06
8.32613e-06
0.000165829
0.000157263
0.00237311
0.0018409
0.00785357
0.00761179
0.0213582
0.0203902
0.0714946
0.0581173
0.250866
0.159234
0.517656
0.260282
0.41833
0.137667
0.108669
0.120256
0.274409
0.23366
0.113382
0.046608
0.0506797
0.187337
0.568101
0.629416
0.498801
0.233817
0.101713
0.0468255
0.0372917
0.0382975
0.0358467
0.0256465
0.0171568
0.010637
0.00576476
0.00278505
0.00124044
0.000526721
0.000219165
9.11707e-05
3.82989e-05
1.62698e-05
6.96807e-06
3.00126e-06
1.3003e-06
5.6732e-07
2.49426e-07
1.10489e-07
4.92762e-08
2.21034e-08
9.96225e-09
4.50794e-09
2.04667e-09
9.31928e-10
4.25459e-10
1.94714e-10
8.93307e-11
4.10899e-11
1.89552e-11
8.7743e-12
4.0791e-12
1.90701e-12
8.98258e-13
4.27497e-13
2.06424e-13
1.01743e-13
5.16728e-14
2.7377e-14
1.5337e-14
9.36325e-15
6.33734e-15
4.67071e-15
4.1487e-15
4.21762e-15
4.60705e-15
5.60889e-15
7.62033e-15
1.17357e-14
1.90917e-14
3.34044e-14
6.09524e-14
1.16352e-13
2.28889e-13
4.60467e-13
9.37909e-13
1.94067e-12
4.0051e-12
8.48067e-12
1.7455e-11
3.85201e-11
8.10054e-11
2.07843e-10
6.75301e-10
3.66959e-09
3.52208e-08
3.91792e-07
3.76936e-06
3.04621e-05
0.000152485
0.000441226
0.000984711
0.00184923
0.00234462
0.00372513
0.0116231
0.0150764
0.0188421
0.0395913
0.0552892
0.0911764
0.186169
0.210724
0.295455
0.238849
0.244019
0.162708
0.0254526
0.0200003
0.0103831
0.00959868
0.0205266
0.212549
0.475775
0.470904
0.275663
0.103719
0.066824
0.0455675
0.0355814
0.0352326
0.0343222
0.0277653
0.016676
0.0100979
0.00558427
0.00273635
0.00122354
0.000515982
0.000211418
8.63859e-05
3.5798e-05
1.51329e-05
6.51318e-06
2.84047e-06
1.24968e-06
5.53056e-07
2.45857e-07
1.09722e-07
4.91508e-08
2.20982e-08
9.97041e-09
4.51331e-09
2.04919e-09
9.32974e-10
4.25858e-10
1.94854e-10
8.93727e-11
4.10984e-11
1.89536e-11
8.77038e-12
4.0753e-12
1.90397e-12
8.96013e-13
4.25891e-13
2.05287e-13
1.00937e-13
5.10952e-14
2.69549e-14
1.50208e-14
9.11584e-15
6.13309e-15
4.49666e-15
3.98698e-15
4.05528e-15
4.43873e-15
5.42444e-15
7.41023e-15
1.14599e-14
1.87573e-14
3.2917e-14
6.02765e-14
1.15335e-13
2.27167e-13
4.57516e-13
9.30998e-13
1.93058e-12
3.95307e-12
8.59664e-12
1.67612e-11
4.44252e-11
7.23692e-11
3.1389e-10
5.86458e-10
6.04187e-09
3.49311e-08
5.98518e-07
3.48296e-06
3.7053e-05
8.41775e-05
0.000563613
0.000471387
0.000953382
0.00399845
0.00367065
0.0115411
0.0127482
0.0200927
0.028922
0.0996639
0.0907241
0.260335
0.222178
0.394995
0.317309
0.292307
0.205517
0.00120735
0.00186266
0.00166711
0.00213973
0.0114785
0.114359
0.183325
0.168473
0.086644
0.0418954
0.0394981
0.0504832
0.0457359
0.0364752
0.0335627
0.028393
0.016535
0.00885738
0.0048469
0.00254549
0.00121422
0.000530993
0.000220228
8.95176e-05
3.66441e-05
1.53017e-05
6.5276e-06
2.83275e-06
1.244e-06
5.50553e-07
2.44965e-07
1.09456e-07
4.90891e-08
2.20912e-08
9.97359e-09
4.51638e-09
2.05089e-09
9.3374e-10
4.26163e-10
1.94963e-10
8.9406e-11
4.11038e-11
1.89504e-11
8.76548e-12
4.0709e-12
1.90057e-12
8.93544e-13
4.24141e-13
2.04053e-13
1.00064e-13
5.04717e-14
2.65001e-14
1.46803e-14
8.84994e-15
5.91412e-15
4.31039e-15
3.81382e-15
3.8814e-15
4.25833e-15
5.22627e-15
7.18413e-15
1.1161e-14
1.83999e-14
3.23916e-14
5.95529e-14
1.14256e-13
2.25378e-13
4.54431e-13
9.24191e-13
1.91941e-12
3.90543e-12
8.72423e-12
1.6204e-11
4.91566e-11
6.55044e-11
4.47535e-10
4.87884e-10
9.43923e-09
3.30417e-08
6.45287e-07
3.1068e-06
2.95115e-05
5.63506e-05
0.000432047
0.000340424
0.0006874
0.00323255
0.0035819
0.00300601
0.00753133
0.00726865
0.0172511
0.0179885
0.0640668
0.0599992
0.169289
0.184147
0.282559
0.319503
0.257085
0.000145819
0.000193608
0.000781405
0.0014861
0.00224954
0.00644258
0.0228655
0.0276547
0.0203573
0.0207568
0.0245138
0.0449927
0.059523
0.0515319
0.0364788
0.0277357
0.0165749
0.00822412
0.00376803
0.00166676
0.000740357
0.000334939
0.000153548
7.03325e-05
3.18161e-05
1.42227e-05
6.31409e-06
2.79654e-06
1.23936e-06
5.50456e-07
2.45207e-07
1.09592e-07
4.91477e-08
2.21153e-08
9.98354e-09
4.52052e-09
2.05259e-09
9.34419e-10
4.26425e-10
1.95058e-10
8.94342e-11
4.11078e-11
1.8947e-11
8.76078e-12
4.06671e-12
1.8973e-12
8.9113e-13
4.22404e-13
2.02811e-13
9.91793e-14
4.98343e-14
2.60312e-14
1.43292e-14
8.57592e-15
5.68877e-15
4.11886e-15
3.63538e-15
3.70203e-15
4.07186e-15
5.02053e-15
6.94826e-15
1.08507e-14
1.80275e-14
3.18403e-14
5.88011e-14
1.13141e-13
2.23567e-13
4.51249e-13
9.17696e-13
1.90692e-12
3.86716e-12
8.73815e-12
1.58548e-11
5.07968e-11
6.14512e-11
4.79931e-10
3.86117e-10
1.22437e-08
2.67808e-08
6.13187e-07
2.77227e-06
2.13364e-05
4.74886e-05
0.000212311
0.000190914
0.00062576
0.0013946
0.00322444
0.00251604
0.00511864
0.00538251
0.0122094
0.0100418
0.0362676
0.0267435
0.10379
0.0808504
0.20424
0.214641
0.238552
0.000203899
0.000251292
0.00252894
0.00369471
0.00255017
0.00227693
0.00267131
0.00343485
0.00567289
0.014822
0.0245437
0.0374458
0.0650296
0.0663724
0.05013
0.0271653
0.0154752
0.0078355
0.00348771
0.00148109
0.00063257
0.000277267
0.000125193
5.77664e-05
2.68797e-05
1.24775e-05
5.74702e-06
2.62401e-06
1.18949e-06
5.36635e-07
2.4152e-07
1.08648e-07
4.8919e-08
2.20642e-08
9.97374e-09
4.51925e-09
2.05272e-09
9.34605e-10
4.26514e-10
1.95084e-10
8.94345e-11
4.10997e-11
1.8938e-11
8.75323e-12
4.06099e-12
1.89318e-12
8.88244e-13
4.20406e-13
2.01429e-13
9.82183e-14
4.91531e-14
2.55394e-14
1.39665e-14
8.2958e-15
5.46019e-15
3.92603e-15
3.45642e-15
3.52216e-15
3.8848e-15
4.81383e-15
6.71066e-15
1.05338e-14
1.76524e-14
3.12829e-14
5.80414e-14
1.12013e-13
2.21764e-13
4.48017e-13
9.11634e-13
1.89278e-12
3.8395e-12
8.6225e-12
1.57111e-11
4.92165e-11
6.01359e-11
4.4157e-10
3.29445e-10
1.06617e-08
1.87218e-08
4.90267e-07
2.0775e-06
1.78261e-05
4.0569e-05
0.000147816
0.000127653
0.000511743
0.000677164
0.00225383
0.00193726
0.00359212
0.00358592
0.00820457
0.00652934
0.0219333
0.0160908
0.0678865
0.0514873
0.130412
0.125584
0.180024
0.000134973
0.000851763
0.000836187
0.0011893
0.00143896
0.00207274
0.00224331
0.00383706
0.00786451
0.0177357
0.0554431
0.0671965
0.0699992
0.0713841
0.0583224
0.0272884
0.0123877
0.00602435
0.00318164
0.00165617
0.000793333
0.000355256
0.000154814
6.75123e-05
2.97627e-05
1.32545e-05
5.9377e-06
2.66595e-06
1.19737e-06
5.37702e-07
2.41519e-07
1.08578e-07
4.88868e-08
2.20544e-08
9.97174e-09
4.51928e-09
2.05301e-09
9.34799e-10
4.26602e-10
1.95115e-10
8.94395e-11
4.10954e-11
1.89317e-11
8.74751e-12
4.05654e-12
1.88997e-12
8.8604e-13
4.18934e-13
2.00473e-13
9.76124e-14
4.87833e-14
2.53335e-14
1.38729e-14
8.27546e-15
5.48745e-15
3.99037e-15
3.5442e-15
3.61507e-15
3.98309e-15
4.91691e-15
6.80764e-15
1.05954e-14
1.76904e-14
3.11939e-14
5.77979e-14
1.11462e-13
2.20631e-13
4.45496e-13
9.0679e-13
1.87847e-12
3.82167e-12
8.40774e-12
1.57366e-11
4.52447e-11
6.10914e-11
3.61958e-10
3.18384e-10
6.63705e-09
1.20667e-08
2.75388e-07
1.21014e-06
1.17526e-05
2.92382e-05
0.000144551
9.23116e-05
0.000253898
0.00052405
0.00161778
0.0018124
0.00272938
0.00306118
0.0064203
0.00553734
0.0142538
0.0120769
0.0440047
0.0336701
0.0888308
0.092719
0.145521
0.000388985
0.000611104
0.00133348
0.00249641
0.00409006
0.00411236
0.011945
0.0142268
0.0264488
0.0493279
0.0975904
0.136294
0.119304
0.0749416
0.0524867
0.0361198
0.0188153
0.00795551
0.00319656
0.00131928
0.00057035
0.00025836
0.000120662
5.69271e-05
2.6751e-05
1.24445e-05
5.72669e-06
2.61149e-06
1.18318e-06
5.33941e-07
2.4051e-07
1.08312e-07
4.88212e-08
2.20418e-08
9.97167e-09
4.52125e-09
2.05472e-09
9.35968e-10
4.27367e-10
1.95625e-10
8.97952e-11
4.13581e-11
1.91366e-11
8.91463e-12
4.19814e-12
2.01345e-12
9.96351e-13
5.19087e-13
2.92915e-13
1.83699e-13
1.29734e-13
1.02883e-13
8.92484e-14
8.2367e-14
7.88868e-14
7.73977e-14
7.74706e-14
7.80931e-14
7.96785e-14
8.30701e-14
8.78788e-14
9.62058e-14
1.08611e-13
1.29399e-13
1.6504e-13
2.27239e-13
3.44672e-13
5.79228e-13
1.0506e-12
2.02525e-12
3.98362e-12
8.35e-12
1.60761e-11
4.04503e-11
6.38675e-11
2.58932e-10
3.2284e-10
2.85512e-09
7.72238e-09
1.02243e-07
5.3633e-07
4.19617e-06
1.22166e-05
9.21602e-05
6.43088e-05
9.94429e-05
0.00103679
0.00104973
0.00238313
0.00280369
0.00358029
0.00436361
0.00536774
0.0106833
0.0110738
0.0286802
0.0242132
0.0685262
0.067643
0.0978147
0.00620627
0.00691699
0.00959909
0.0149746
0.0147816
0.0147043
0.0172789
0.0336469
0.0856024
0.180806
0.184836
0.168347
0.157267
0.133759
0.0801518
0.0424105
0.0219936
0.0110984
0.00522367
0.00229341
0.000967619
0.000404679
0.00017102
7.35052e-05
3.20739e-05
1.41415e-05
6.27314e-06
2.79233e-06
1.24579e-06
5.57004e-07
2.49681e-07
1.12281e-07
5.06959e-08
2.30049e-08
1.0507e-08
4.84125e-09
2.25926e-09
1.07495e-09
5.27185e-10
2.7095e-10
1.49173e-10
8.99724e-11
6.02549e-11
4.46508e-11
3.60036e-11
3.08581e-11
2.75983e-11
2.53309e-11
2.3738e-11
2.24434e-11
2.14966e-11
2.08819e-11
2.04803e-11
2.02272e-11
2.0057e-11
1.99612e-11
1.99222e-11
1.98862e-11
1.98857e-11
1.98994e-11
1.99355e-11
2.00196e-11
2.01337e-11
2.03188e-11
2.06158e-11
2.10616e-11
2.17311e-11
2.27646e-11
2.43492e-11
2.69202e-11
3.07213e-11
3.77708e-11
4.76896e-11
7.13226e-11
1.04319e-10
2.11358e-10
3.91507e-10
1.29149e-09
5.74158e-09
3.50702e-08
2.38716e-07
1.01196e-06
3.31603e-06
2.06916e-05
6.69037e-05
0.000119977
0.00246377
0.00126205
0.00445156
0.0036588
0.00649652
0.00449958
0.00940519
0.0117753
0.0125683
0.0216848
0.0201707
0.0418974
0.0434341
0.0660075
0.0741239
0.0755306
0.0781046
0.0865201
0.0944976
0.0984809
0.10775
0.148378
0.307056
0.359393
0.352073
0.325833
0.259127
0.179538
0.110416
0.0609695
0.031393
0.0154083
0.00729368
0.00335542
0.00151089
0.000670038
0.000294146
0.00012841
5.6001e-05
2.45184e-05
1.08343e-05
4.85968e-06
2.22631e-06
1.04889e-06
5.12251e-07
2.61672e-07
1.41165e-07
8.1131e-08
4.99659e-08
3.30248e-08
2.33428e-08
1.75187e-08
1.38405e-08
1.141e-08
9.74147e-09
8.55719e-09
7.69358e-09
7.04735e-09
6.55778e-09
6.17711e-09
5.87886e-09
5.63423e-09
5.44209e-09
5.2684e-09
5.15072e-09
5.0729e-09
5.02044e-09
4.98605e-09
4.96262e-09
4.94688e-09
4.9357e-09
4.92811e-09
4.92197e-09
4.91575e-09
4.9089e-09
4.90308e-09
4.89552e-09
4.88785e-09
4.88113e-09
4.87523e-09
4.87008e-09
4.86475e-09
4.86461e-09
4.86904e-09
4.8858e-09
4.91506e-09
4.98063e-09
5.05875e-09
5.25853e-09
5.44181e-09
6.33104e-09
7.14729e-09
1.56648e-08
3.13605e-08
2.16896e-07
4.43042e-07
1.79976e-06
7.34074e-06
0.000135389
0.000334289
0.0056776
0.00203837
0.00955487
0.00648784
0.0118265
0.00620449
0.0175876
0.0168482
0.0154724
0.0177264
0.0188293
0.036501
0.0421452
0.057072
0.456044
0.4356
0.422186
0.409396
0.394496
0.399478
0.433148
0.516738
0.675527
0.701312
0.661367
0.539534
0.377116
0.241536
0.149602
0.090942
0.0530587
0.0293113
0.0154051
0.00781415
0.00388692
0.00191905
0.000949147
0.000474396
0.000241893
0.000127118
6.9527e-05
3.98889e-05
2.41172e-05
1.53874e-05
1.0346e-05
7.30752e-06
5.40098e-06
4.15929e-06
3.3233e-06
2.74442e-06
2.33319e-06
2.03459e-06
1.81392e-06
1.6481e-06
1.52203e-06
1.42492e-06
1.34937e-06
1.28984e-06
1.24279e-06
1.20512e-06
1.17445e-06
1.14909e-06
1.12778e-06
1.11083e-06
1.09921e-06
1.0914e-06
1.08593e-06
1.08213e-06
1.07941e-06
1.0774e-06
1.07583e-06
1.07462e-06
1.07347e-06
1.07216e-06
1.07077e-06
1.06925e-06
1.06739e-06
1.06534e-06
1.06296e-06
1.06015e-06
1.05686e-06
1.05306e-06
1.04864e-06
1.04348e-06
1.03757e-06
1.03061e-06
1.02315e-06
1.0136e-06
1.00583e-06
9.91646e-07
9.89314e-07
9.75787e-07
1.04415e-06
1.09092e-06
1.73018e-06
2.02922e-06
1.32505e-05
1.27472e-05
0.000603192
0.00101194
0.0130259
0.00411525
0.0219524
0.0134186
0.0228762
0.0120192
0.0333892
0.0258231
0.0223236
0.0181705
0.0198274
0.0456202
0.0476763
0.0442732
1.36967
1.23522
1.16138
1.07429
0.947549
0.914906
0.951856
1.12107
1.15809
1.11037
0.959113
0.707599
0.491358
0.330805
0.216224
0.138443
0.0874987
0.0545455
0.033576
0.0205636
0.0126808
0.00793235
0.00506602
0.0033247
0.00225379
0.00158337
0.00115427
0.000872645
0.000682853
0.000551647
0.00045877
0.000391603
0.000342154
0.000305155
0.000277093
0.000255595
0.000238957
0.000225968
0.00021577
0.000207706
0.000201318
0.000196218
0.000192139
0.000188841
0.000186181
0.000184032
0.000182251
0.000180754
0.000179565
0.000178675
0.000178
0.000177513
0.000177139
0.000176848
0.000176619
0.000176428
0.000176268
0.000176128
0.000175982
0.000175806
0.000175612
0.000175401
0.000175144
0.000174852
0.000174508
0.000174095
0.000173608
0.000173035
0.00017236
0.000171561
0.000170617
0.000169514
0.000168198
0.000166709
0.000164891
0.000162939
0.000160615
0.000157965
0.000156275
0.000152887
0.000158537
0.000154583
0.000426739
0.000243753
0.00380793
0.00291058
0.0300963
0.0105069
0.0500638
0.0309923
0.0478054
0.0294455
0.0663555
0.0441025
0.0385225
0.0236898
0.0306483
0.0490481
0.0434679
0.0332771
2.52568
2.1944
1.87974
1.66229
1.52859
1.4655
1.45946
1.45998
1.42574
1.29118
1.05388
0.829808
0.620756
0.445969
0.320755
0.235301
0.175965
0.132869
0.100964
0.0775456
0.0605262
0.0482033
0.0392492
0.032689
0.0278247
0.0241603
0.0213683
0.0192234
0.0175622
0.0162665
0.0152493
0.014446
0.0138088
0.0133011
0.0128951
0.0125699
0.0123087
0.0120983
0.0119287
0.0117915
0.0116809
0.0115911
0.0115186
0.0114592
0.0114111
0.0113725
0.0113413
0.0113155
0.0112943
0.0112772
0.011263
0.0112521
0.0112432
0.0112353
0.0112285
0.0112223
0.0112168
0.0112115
0.0112053
0.0111977
0.0111891
0.0111796
0.0111682
0.011155
0.0111394
0.0111206
0.0110984
0.0110722
0.0110413
0.0110047
0.0109614
0.0109105
0.0108501
0.0107806
0.0106975
0.0106046
0.0104997
0.0103675
0.0102765
0.0100463
0.0101192
0.00966513
0.0127648
0.0095794
0.0274477
0.0157182
0.0815247
0.0363511
0.126333
0.075489
0.112886
0.0721862
0.142293
0.0906039
0.0820075
0.052403
0.069498
0.0725169
0.064076
0.041461
3.45977
2.78419
2.32499
2.01428
1.81896
1.74194
1.70188
1.61496
1.47674
1.30567
1.11834
0.937911
0.782007
0.656045
0.558623
0.487158
0.432347
0.387134
0.34909
0.317166
0.290393
0.267886
0.24905
0.233409
0.220518
0.209963
0.201354
0.194345
0.18864
0.184
0.180227
0.177157
0.17466
0.172628
0.170974
0.169628
0.168533
0.167642
0.166916
0.166324
0.165844
0.165451
0.165133
0.164872
0.164659
0.164486
0.164345
0.164226
0.164125
0.164043
0.163975
0.163922
0.163877
0.163836
0.163797
0.163761
0.163728
0.163693
0.16365
0.163597
0.163535
0.163466
0.163386
0.163292
0.163181
0.163049
0.162892
0.162708
0.16249
0.162233
0.16193
0.161575
0.161151
0.160678
0.160088
0.159496
0.158733
0.157966
0.157327
0.156054
0.156917
0.154642
0.164595
0.151885
0.194055
0.137654
0.276263
0.152774
0.347401
0.201255
0.30037
0.195172
0.334404
0.213598
0.222939
0.176984
0.227369
0.230675
0.189625
0.141254
3.69469
2.81139
2.35522
2.10688
1.95184
1.8179
1.67136
1.49219
1.32497
1.20939
1.12936
1.06759
1.02032
0.983746
0.954822
0.930416
0.90657
0.881997
0.857595
0.834661
0.813603
0.794544
0.777598
0.762787
0.750019
0.739136
0.72995
0.722256
0.715854
0.710552
0.70618
0.702587
0.69964
0.69723
0.695261
0.693657
0.692351
0.691289
0.690426
0.689725
0.689158
0.688698
0.688325
0.688025
0.687781
0.687586
0.68743
0.687302
0.687198
0.687117
0.687062
0.687019
0.686985
0.68697
0.68697
0.68697
0.686973
0.686978
0.68699
0.687009
0.687038
0.687077
0.687128
0.687196
0.687281
0.687387
0.687517
0.687678
0.687877
0.688128
0.688424
0.688827
0.689231
0.689972
0.690422
0.691984
0.692164
0.695982
0.693948
0.705325
0.694222
0.731655
0.694091
0.792881
0.720852
0.810065
0.809072
0.613258
0.894609
0.610921
0.837297
0.673413
0.921722
0.677256
0.823543
0.817442
1.08056
1.12161
1.05191
1.10281
2.39942
1.93765
1.70502
1.50511
1.27704
1.01658
0.766732
0.591935
0.520953
0.526861
0.574297
0.631412
0.69476
0.76575
0.837814
0.901129
0.949889
0.984492
1.00877
1.02572
1.03724
1.04488
1.04987
1.05309
1.05514
1.05644
1.05726
1.0578
1.05815
1.0584
1.05859
1.05875
1.05889
1.05901
1.05913
1.05924
1.05935
1.05945
1.05955
1.05964
1.05972
1.0598
1.05988
1.05996
1.06003
1.0601
1.06018
1.06026
1.06035
1.06044
1.06055
1.06066
1.0608
1.06096
1.06116
1.06139
1.06166
1.06199
1.06238
1.06285
1.06341
1.06409
1.06491
1.06589
1.06706
1.06848
1.07017
1.07222
1.07467
1.07763
1.08116
1.08544
1.09045
1.09674
1.10344
1.11337
1.12043
1.13953
1.13985
1.18446
1.14474
1.2853
1.094
1.5235
1.00164
1.90186
1.00328
2.25896
1.44379
2.20938
1.92773
2.51227
2.31968
2.4374
2.79639
3.95236
4.26369
4.74634
4.68389
6.0095
0.0780857
0.351505
0.781933
1.13366
1.27208
1.08813
0.749604
0.446448
0.271225
0.195083
0.174864
0.213961
0.296761
0.411145
0.538456
0.660551
0.765648
0.848706
0.911511
0.957343
0.989933
1.01272
1.02847
1.03921
1.0465
1.05145
1.05479
1.05703
1.05852
1.05949
1.06011
1.0605
1.06072
1.06083
1.06087
1.06087
1.06083
1.06078
1.06072
1.06065
1.06058
1.0605
1.06043
1.06036
1.06029
1.06022
1.06014
1.06006
1.05997
1.05988
1.05977
1.05965
1.0595
1.05934
1.05914
1.0589
1.05862
1.05829
1.0579
1.05743
1.05686
1.05617
1.05534
1.05435
1.05314
1.0517
1.04995
1.04785
1.04531
1.04225
1.03856
1.03412
1.02877
1.02234
1.0146
1.00532
0.994224
0.980996
0.965304
0.946798
0.925132
0.899976
0.871034
0.838064
0.800871
0.759336
0.71339
0.663079
0.608585
0.550306
0.48892
0.425745
0.362801
0.30217
0.246188
0.195748
0.150479
0.10675
0.0584865
0.0153699
0.073306
0.242711
0.335553
0.326143
0.195445
0.102083
0.066071
0.0608333
0.0554685
0.0520432
0.0514187
0.0587771
0.0770477
0.108476
0.152556
0.207348
0.268432
0.331504
0.391292
0.44479
0.490701
0.52897
0.560328
0.585759
0.606191
0.622484
0.635441
0.645739
0.653934
0.660457
0.665653
0.669804
0.673128
0.675793
0.677933
0.679653
0.681036
0.682149
0.683046
0.683769
0.684351
0.68482
0.685198
0.685502
0.685746
0.685943
0.6861
0.686227
0.686328
0.686403
0.686465
0.686516
0.686544
0.68656
0.686591
0.686605
0.686603
0.686592
0.68657
0.686538
0.686496
0.686442
0.686375
0.686294
0.686195
0.686074
0.685927
0.685749
0.685531
0.685266
0.684945
0.684556
0.684082
0.683503
0.682792
0.681916
0.680828
0.679468
0.677753
0.675581
0.672814
0.669281
0.664679
0.658705
0.65102
0.641261
0.628963
0.613677
0.594684
0.57159
0.544161
0.512234
0.473601
0.428662
0.374059
0.311515
0.238613
0.162152
0.0850795
0.025436
0.0561429
0.100176
0.101874
0.071216
0.0577697
0.0672449
0.0798265
0.0855934
0.0736146
0.0537958
0.0378605
0.0256338
0.0185261
0.0148583
0.0143935
0.0166447
0.0232831
0.0325385
0.0435911
0.0559134
0.0687838
0.0814714
0.0934381
0.104351
0.114038
0.122449
0.129629
0.135677
0.140725
0.144915
0.148374
0.151216
0.153543
0.155444
0.156994
0.158257
0.159284
0.16012
0.160798
0.161353
0.161801
0.162168
0.162465
0.162706
0.162907
0.163068
0.163198
0.163309
0.163402
0.163473
0.163538
0.1636
0.163645
0.163683
0.163736
0.163795
0.163849
0.1639
0.163954
0.164015
0.164082
0.164158
0.164247
0.164356
0.164488
0.164646
0.164837
0.16507
0.165351
0.165687
0.166094
0.166585
0.16718
0.167898
0.168763
0.169803
0.171046
0.172524
0.174268
0.176309
0.178668
0.181369
0.18452
0.18819
0.192459
0.197372
0.203037
0.209421
0.216628
0.224126
0.230899
0.235938
0.235818
0.231153
0.2203
0.194995
0.162739
0.117031
0.0729668
0.0265282
0.0472722
0.056102
0.0608719
0.0724476
0.110666
0.163853
0.185722
0.192676
0.177353
0.133172
0.0884989
0.0516672
0.0272899
0.0139908
0.00735299
0.00409629
0.00256187
0.001929
0.00185599
0.00197773
0.00241027
0.00311561
0.00388232
0.00468277
0.0054813
0.00624686
0.00695735
0.0075995
0.00816789
0.00866265
0.00908762
0.00944885
0.00975325
0.0100081
0.0102201
0.0103962
0.0105412
0.0106612
0.0107591
0.0108403
0.0109061
0.0109604
0.0110051
0.0110408
0.0110714
0.0110961
0.0111167
0.0111357
0.0111514
0.0111643
0.0111772
0.0111902
0.0112004
0.0112105
0.0112249
0.0112414
0.0112575
0.0112744
0.0112932
0.0113154
0.0113415
0.0113719
0.0114081
0.011452
0.0115049
0.0115686
0.0116459
0.0117399
0.0118534
0.0119906
0.0121567
0.0123584
0.0126036
0.0129017
0.0132636
0.0137035
0.0142365
0.0148819
0.01566
0.0165968
0.0177165
0.0190506
0.020631
0.0225009
0.0246999
0.0273204
0.0303698
0.0341081
0.0383311
0.043784
0.0493125
0.0571694
0.0629347
0.0722148
0.0750822
0.0804294
0.0759508
0.0699948
0.0528395
0.023806
0.0478913
0.0479762
0.0677129
0.119899
0.23162
0.273467
0.286898
0.269986
0.250664
0.213041
0.169861
0.114054
0.0646105
0.0333743
0.0158972
0.00719442
0.00321578
0.00150507
0.000747764
0.000392562
0.000219208
0.000133274
9.24429e-05
7.87119e-05
7.85731e-05
8.15724e-05
8.96757e-05
9.97807e-05
0.000109691
0.000118999
0.000127456
0.000134963
0.000141507
0.000147142
0.000151931
0.000155987
0.000159372
0.000162216
0.000164553
0.000166513
0.000168113
0.000169439
0.00017054
0.00017142
0.000172169
0.000172786
0.000173261
0.000173706
0.0001741
0.000174544
0.000175108
0.000175709
0.000176279
0.000176941
0.000177823
0.000178807
0.000179827
0.000180959
0.000182275
0.000183855
0.000185748
0.000187993
0.000190695
0.000193967
0.000197924
0.000202721
0.000208571
0.000215722
0.00022445
0.000235137
0.000248276
0.0002645
0.000284613
0.000309648
0.000340898
0.00038017
0.000429602
0.000492244
0.000571685
0.000673076
0.000802561
0.000968095
0.00118138
0.00145416
0.00180969
0.00226747
0.00287506
0.0036636
0.00475184
0.00612939
0.00817434
0.0105347
0.014402
0.01799
0.0246529
0.0288178
0.0377087
0.0401191
0.0379639
0.0299192
0.0580811
0.0505639
0.0949743
0.225375
0.306551
0.331355
0.335398
0.301132
0.276061
0.235801
0.200293
0.160365
0.113563
0.0651608
0.0329033
0.015298
0.00668671
0.00283665
0.00120933
0.00053201
0.000244379
0.000117366
5.80498e-05
2.91507e-05
1.47786e-05
7.57865e-06
4.00707e-06
2.27198e-06
1.45286e-06
1.08428e-06
9.31555e-07
8.81544e-07
8.81304e-07
8.89653e-07
9.10278e-07
9.33117e-07
9.5388e-07
9.72423e-07
9.8821e-07
1.00181e-06
1.01312e-06
1.02261e-06
1.03059e-06
1.03702e-06
1.04248e-06
1.04712e-06
1.05047e-06
1.05398e-06
1.05615e-06
1.05926e-06
1.06557e-06
1.0739e-06
1.08299e-06
1.09413e-06
1.10831e-06
1.12415e-06
1.14121e-06
1.16065e-06
1.1835e-06
1.21106e-06
1.2444e-06
1.28454e-06
1.33348e-06
1.39355e-06
1.46742e-06
1.55883e-06
1.67291e-06
1.81626e-06
1.99715e-06
2.22747e-06
2.52359e-06
2.90834e-06
3.4137e-06
4.08578e-06
4.98843e-06
6.22037e-06
7.91598e-06
1.02874e-05
1.36287e-05
1.8391e-05
2.5263e-05
3.51181e-05
4.96643e-05
7.07046e-05
0.000101746
0.000149329
0.000215065
0.000331393
0.000475234
0.000766139
0.00112569
0.00184577