/*--------------------------------*- C++ -*----------------------------------*\
| =========                 |                                                 |
| \\      /  F ield         | OpenFOAM: The Open Source CFD Toolbox           |
|  \\    /   O peration     | Version:  2.4.0                                 |
|   \\  /    A nd           | Web:      www.OpenFOAM.org                      |
|    \\/     M anipulation  |                                                 |
\*---------------------------------------------------------------------------*/
FoamFile
{
    version     2.0;
    format      ascii;
    class       volVectorField;
    location    "0.017";
    object      U;
}
// * * * * * * * * * * * * * * * * * * * * * * * * * * * * * * * * * * * * * //

dimensions      [0 1 -1 0 0 0 0];

internalField   nonuniform List<vector> 
4400
(
(5.40472 0.316757 0)
(3.31602 0.060955 0)
(2.59066 0.00146859 0)
(2.24989 -0.00257599 0)
(2.0382 -0.000460519 0)
(1.9855 0.00238689 0)
(1.97174 -0.00424122 0)
(2.01256 0.00297898 0)
(1.81458 0.0093875 0)
(2.31211 -0.0470848 0)
(8.68262 0.857142 0)
(7.54221 0.343758 0)
(6.64775 0.114634 0)
(5.9648 0.0599944 0)
(5.39738 0.0288554 0)
(5.30536 0.0151395 0)
(5.19749 -0.0163032 0)
(5.30254 0.0173269 0)
(4.97983 -0.00267055 0)
(5.79676 -0.0550192 0)
(9.88317 0.937802 0)
(9.99215 0.474729 0)
(9.50832 0.207532 0)
(8.85141 0.144276 0)
(8.09271 0.0784155 0)
(7.97767 0.0379725 0)
(7.80993 -0.0295608 0)
(7.81199 0.0394633 0)
(7.90044 0.00431088 0)
(7.67016 -0.155742 0)
(10.098 0.8069 0)
(11.1124 0.494718 0)
(11.27 0.252367 0)
(10.9613 0.223246 0)
(10.2657 0.138333 0)
(10.128 0.0643755 0)
(10.0535 -0.0234942 0)
(9.6635 0.025319 0)
(10.5189 0.0632134 0)
(9.65926 -0.0794764 0)
(10.0282 0.652334 0)
(11.3087 0.42732 0)
(11.9694 0.224991 0)
(12.0819 0.249874 0)
(11.7589 0.183024 0)
(11.6278 0.0831596 0)
(11.7612 -0.00464203 0)
(11.0574 0.0103027 0)
(12.1541 0.0388557 0)
(11.9352 0.0683224 0)
(10.0073 0.518027 0)
(11.2424 0.361569 0)
(12.0336 0.149616 0)
(12.2719 0.228511 0)
(12.4417 0.18624 0)
(12.4439 0.0711657 0)
(12.5713 0.0223713 0)
(12.2014 0.0110465 0)
(12.7675 -0.0297107 0)
(12.9347 0.12104 0)
(9.9883 0.407854 0)
(11.2568 0.267563 0)
(11.8839 0.128251 0)
(12.2726 0.161404 0)
(12.4789 0.148716 0)
(12.7274 0.0736725 0)
(12.7439 0.00116198 0)
(12.702 0.0147303 0)
(12.7869 -0.0394862 0)
(12.904 0.104279 0)
(10.0218 0.274084 0)
(11.1663 0.228095 0)
(11.9021 0.0524928 0)
(12.1734 0.136364 0)
(12.4451 0.109338 0)
(12.7826 0.0246895 0)
(12.6415 0.0153272 0)
(12.7494 0.0399481 0)
(12.8221 -0.0533334 0)
(12.9853 -0.00966653 0)
(10.0231 0.173286 0)
(11.1438 0.116884 0)
(11.8723 0.0522975 0)
(12.1373 0.0697275 0)
(12.4513 0.0508334 0)
(12.7003 0.0456668 0)
(12.621 -0.00489706 0)
(12.7834 0.00423317 0)
(12.8248 -0.0402519 0)
(12.9717 -0.0247245 0)
(10.0296 0.047333 0)
(11.1223 0.0623099 0)
(11.8579 -0.00936509 0)
(12.1445 0.041827 0)
(12.4084 0.0193385 0)
(12.6942 -0.00552962 0)
(12.6405 0.000238111 0)
(12.7346 0.0289092 0)
(12.8075 -0.0777582 0)
(12.6622 0.0289644 0)
(10.0295 -0.0555059 0)
(11.1208 -0.0422349 0)
(11.8615 -0.0168685 0)
(12.1354 -0.0155409 0)
(12.4171 -0.0393284 0)
(12.696 0.00521462 0)
(12.6302 -0.0144246 0)
(12.7279 -0.00122713 0)
(12.7558 -0.035489 0)
(12.7841 -0.00272742 0)
(10.0293 -0.176792 0)
(11.1341 -0.107175 0)
(11.8719 -0.0676743 0)
(12.1493 -0.0507469 0)
(12.4282 -0.0734813 0)
(12.7088 -0.0400617 0)
(12.651 -0.0103004 0)
(12.7311 0.0132092 0)
(12.8078 -0.078927 0)
(12.9415 -0.126769 0)
(10.0253 -0.287207 0)
(11.1627 -0.197172 0)
(11.8964 -0.0906984 0)
(12.1703 -0.101751 0)
(12.46 -0.128763 0)
(12.7404 -0.0391084 0)
(12.6794 -0.0211439 0)
(12.7542 -0.0106446 0)
(12.8065 -0.0780986 0)
(12.6749 0.00328351 0)
(10.0178 -0.407729 0)
(11.1987 -0.266193 0)
(11.9394 -0.134452 0)
(12.2261 -0.148563 0)
(12.49 -0.169703 0)
(12.7471 -0.0706242 0)
(12.6884 -0.018929 0)
(12.7407 -0.00427025 0)
(12.776 -0.0721184 0)
(12.7234 -0.129807 0)
(10.0086 -0.526603 0)
(11.2377 -0.339284 0)
(12.02 -0.180368 0)
(12.298 -0.196573 0)
(12.4034 -0.21045 0)
(12.4922 -0.0814144 0)
(12.4366 -0.0247463 0)
(12.4375 -0.0119592 0)
(12.487 -0.0844501 0)
(12.3554 -0.060215 0)
(10.0276 -0.65435 0)
(11.293 -0.419267 0)
(11.9945 -0.241557 0)
(12.0348 -0.228287 0)
(11.8064 -0.206901 0)
(11.618 -0.0793154 0)
(11.5592 -0.020122 0)
(11.4719 -0.0100343 0)
(11.54 -0.0708686 0)
(11.264 -0.0974185 0)
(10.0971 -0.809714 0)
(11.0987 -0.487584 0)
(11.2999 -0.265317 0)
(10.893 -0.20558 0)
(10.3657 -0.159236 0)
(10.0261 -0.0544976 0)
(9.98004 -0.0109064 0)
(9.85457 -0.00676568 0)
(9.94252 -0.0630737 0)
(9.57654 -0.0595859 0)
(9.87721 -0.938464 0)
(9.98872 -0.471709 0)
(9.52507 -0.21407 0)
(8.79928 -0.134509 0)
(8.18478 -0.0918363 0)
(7.85256 -0.0283496 0)
(7.8323 -0.00311799 0)
(7.72212 -0.00444629 0)
(7.80498 -0.0437997 0)
(7.37491 -0.0412665 0)
(8.67847 -0.857583 0)
(7.5429 -0.342434 0)
(6.6537 -0.117331 0)
(5.9359 -0.0560722 0)
(5.45271 -0.0347066 0)
(5.21938 -0.01035 0)
(5.21718 0.000507543 0)
(5.14953 -0.00308855 0)
(5.19146 -0.0225243 0)
(4.80544 -0.0184132 0)
(5.40293 -0.316859 0)
(3.31694 -0.0607371 0)
(2.59114 -0.00185168 0)
(2.24123 0.00315754 0)
(2.05304 -0.00041304 0)
(1.96176 -0.00068465 0)
(1.963 0.000870487 0)
(1.94436 -0.000499674 0)
(1.93779 -0.00219672 0)
(1.76679 0.0100635 0)
(2.23338 0.649159 0)
(3.37779 1.22947 0)
(4.25142 1.58497 0)
(6.14285 0.732356 0)
(8.88573 -0.454327 0)
(12.013 -0.958354 0)
(13.1268 -0.856186 0)
(13.0357 -2.22558 0)
(11.4502 -4.57755 0)
(9.79965 -5.77768 0)
(8.20758 -5.82841 0)
(7.25501 -5.10744 0)
(6.97401 -4.08887 0)
(6.54693 -3.36578 0)
(6.19296 -2.79245 0)
(5.98185 -2.23961 0)
(5.79761 -1.7702 0)
(5.64613 -1.39956 0)
(5.54656 -1.10765 0)
(5.48248 -0.879894 0)
(5.4354 -0.703474 0)
(5.39806 -0.565492 0)
(5.36886 -0.455844 0)
(5.34686 -0.367776 0)
(5.33073 -0.296755 0)
(5.31904 -0.239439 0)
(5.31059 -0.193186 0)
(5.30448 -0.155859 0)
(5.30005 -0.125731 0)
(5.29682 -0.101412 0)
(5.29446 -0.0817798 0)
(5.29272 -0.0659313 0)
(5.29144 -0.0531382 0)
(5.29049 -0.0428136 0)
(5.28979 -0.0344812 0)
(5.28925 -0.0277571 0)
(5.28885 -0.0223313 0)
(5.28855 -0.0179525 0)
(5.28831 -0.0144183 0)
(5.28814 -0.0115648 0)
(5.288 -0.00925795 0)
(5.28789 -0.00738998 0)
(5.28781 -0.00587505 0)
(5.28774 -0.00464273 0)
(5.28769 -0.00363489 0)
(5.28766 -0.00280429 0)
(5.28763 -0.0021127 0)
(5.2876 -0.00152835 0)
(5.28759 -0.00102474 0)
(5.28758 -0.000579008 0)
(5.28757 -0.000171654 0)
(5.28757 0.00021502 0)
(5.28757 0.000596995 0)
(5.28757 0.000989559 0)
(5.28758 0.0014081 0)
(5.28759 0.00186856 0)
(5.28761 0.00238781 0)
(5.28763 0.00298468 0)
(5.28766 0.00368061 0)
(5.28769 0.00450014 0)
(5.28773 0.00547177 0)
(5.28778 0.00662933 0)
(5.28785 0.00801286 0)
(5.28793 0.00967044 0)
(5.28803 0.0116589 0)
(5.28817 0.0140481 0)
(5.28834 0.0169181 0)
(5.28855 0.0203758 0)
(5.28886 0.0245224 0)
(5.28917 0.0295588 0)
(5.2898 0.0355178 0)
(5.29012 0.0430031 0)
(5.29177 0.0513067 0)
(5.29126 0.0632125 0)
(5.29654 0.0732862 0)
(5.29131 0.0958482 0)
(5.30925 0.100872 0)
(5.28551 0.156593 0)
(5.34117 0.126037 0)
(5.26132 0.288349 0)
(5.40116 0.127319 0)
(5.19712 0.5698 0)
(5.44414 0.0863474 0)
(5.08667 0.979025 0)
(5.35973 0.0369707 0)
(4.97187 1.2154 0)
(5.20117 0.101334 0)
(5.01821 1.10316 0)
(5.1641 0.558308 0)
(4.93623 1.09091 0)
(5.394 0.924536 0)
(4.88977 1.56483 0)
(5.24112 1.3313 0)
(4.95797 2.148 0)
(5.47899 2.02899 0)
(5.36579 3.00061 0)
(5.74865 2.98911 0)
(4.82202 5.13373 0)
(5.73426 5.59748 0)
(3.23825 10.0363 0)
(5.46101 0.757848 0)
(5.86064 1.15044 0)
(6.52281 0.981965 0)
(7.56328 -0.553107 0)
(9.77788 -1.84608 0)
(11.9234 -1.59752 0)
(13.2534 -0.919669 0)
(13.5812 -1.81417 0)
(11.9674 -3.90385 0)
(10.3302 -5.15153 0)
(9.13843 -5.15584 0)
(7.72894 -4.74546 0)
(7.18739 -3.96534 0)
(6.88338 -3.20162 0)
(6.47637 -2.64763 0)
(6.20411 -2.14586 0)
(6.01213 -1.69115 0)
(5.82595 -1.33348 0)
(5.67172 -1.06202 0)
(5.56619 -0.850192 0)
(5.49634 -0.682395 0)
(5.44649 -0.549274 0)
(5.40856 -0.443251 0)
(5.37936 -0.35822 0)
(5.35713 -0.289646 0)
(5.34039 -0.234194 0)
(5.32783 -0.189319 0)
(5.3184 -0.152997 0)
(5.31129 -0.123605 0)
(5.3059 -0.0998225 0)
(5.30179 -0.0805854 0)
(5.29865 -0.065029 0)
(5.29623 -0.0524531 0)
(5.29436 -0.04229 0)
(5.29291 -0.0340787 0)
(5.29177 -0.0274471 0)
(5.29089 -0.0220912 0)
(5.29019 -0.0177654 0)
(5.28964 -0.0142717 0)
(5.28921 -0.0114501 0)
(5.28886 -0.00916812 0)
(5.28859 -0.00731938 0)
(5.28838 -0.00581947 0)
(5.28821 -0.0045992 0)
(5.28808 -0.00360097 0)
(5.28797 -0.00277808 0)
(5.28789 -0.00209268 0)
(5.28783 -0.00151352 0)
(5.28779 -0.00101421 0)
(5.28775 -0.000572197 0)
(5.28774 -0.000168028 0)
(5.28773 0.000215702 0)
(5.28773 0.000594949 0)
(5.28774 0.00098478 0)
(5.28776 0.00140052 0)
(5.2878 0.00185794 0)
(5.28784 0.00237385 0)
(5.2879 0.00296687 0)
(5.28797 0.00365821 0)
(5.28806 0.00447222 0)
(5.28817 0.00543719 0)
(5.28831 0.00658656 0)
(5.28848 0.00795999 0)
(5.28869 0.00960496 0)
(5.28894 0.0115777 0)
(5.28926 0.0139468 0)
(5.28965 0.0167915 0)
(5.29013 0.0202166 0)
(5.29076 0.0243207 0)
(5.29145 0.0293031 0)
(5.29259 0.0351829 0)
(5.29338 0.0425911 0)
(5.29598 0.0506948 0)
(5.29573 0.0626168 0)
(5.30347 0.0718742 0)
(5.29649 0.0955518 0)
(5.32301 0.0962785 0)
(5.28787 0.160241 0)
(5.3749 0.108293 0)
(5.25072 0.313051 0)
(5.48421 0.0677365 0)
(5.17358 0.661489 0)
(5.58146 -0.0423719 0)
(5.11661 1.16104 0)
(5.45425 -0.124906 0)
(5.05909 1.43161 0)
(5.18231 -0.111253 0)
(5.10722 1.37039 0)
(4.96801 0.255689 0)
(5.19471 1.34598 0)
(4.94258 0.702437 0)
(5.03594 1.8045 0)
(4.96153 1.15997 0)
(5.21232 2.33536 0)
(5.28992 1.92274 0)
(4.91423 3.47819 0)
(5.18064 3.04691 0)
(4.38249 5.5095 0)
(7.53144 4.94774 0)
(5.49336 10.3279 0)
(7.8686 0.512978 0)
(9.17286 1.20318 0)
(10.6843 1.04053 0)
(11.5326 -0.919329 0)
(12.4976 -2.5626 0)
(13.5571 -2.11234 0)
(14.1326 -1.18438 0)
(13.7028 -1.5871 0)
(11.7227 -3.33864 0)
(9.8227 -4.78899 0)
(9.40846 -4.76369 0)
(8.40268 -4.24679 0)
(7.43463 -3.73193 0)
(7.10743 -3.07706 0)
(6.73519 -2.50326 0)
(6.37177 -2.03319 0)
(6.15176 -1.60539 0)
(5.97527 -1.25542 0)
(5.80339 -0.998154 0)
(5.6628 -0.805697 0)
(5.56379 -0.652729 0)
(5.49588 -0.528305 0)
(5.44709 -0.427456 0)
(5.41043 -0.346063 0)
(5.38239 -0.280324 0)
(5.36092 -0.2271 0)
(5.34449 -0.183934 0)
(5.3319 -0.148905 0)
(5.32222 -0.120482 0)
(5.31475 -0.0974274 0)
(5.30896 -0.0787397 0)
(5.30445 -0.0635996 0)
(5.30092 -0.0513404 0)
(5.29815 -0.0414209 0)
(5.29597 -0.0333979 0)
(5.29425 -0.026911 0)
(5.29289 -0.021668 0)
(5.2918 -0.0174311 0)
(5.29094 -0.014007 0)
(5.29026 -0.0112401 0)
(5.28972 -0.00900145 0)
(5.28928 -0.00718702 0)
(5.28894 -0.00571445 0)
(5.28867 -0.00451621 0)
(5.28845 -0.00353578 0)
(5.28828 -0.00272713 0)
(5.28815 -0.00205331 0)
(5.28805 -0.00148374 0)
(5.28798 -0.00099265 0)
(5.28793 -0.000557736 0)
(5.2879 -0.000159866 0)
(5.28789 0.000218083 0)
(5.28789 0.000591813 0)
(5.28791 0.00097618 0)
(5.28795 0.00138632 0)
(5.288 0.00183773 0)
(5.28807 0.002347 0)
(5.28817 0.00293248 0)
(5.28828 0.00361506 0)
(5.28843 0.0044187 0)
(5.28861 0.00537126 0)
(5.28883 0.00650569 0)
(5.28911 0.00786101 0)
(5.28944 0.00948381 0)
(5.28984 0.0114293 0)
(5.29034 0.0137645 0)
(5.29095 0.0165673 0)
(5.29169 0.0199393 0)
(5.29264 0.0239774 0)
(5.29369 0.0288739 0)
(5.29534 0.0346445 0)
(5.29657 0.0419164 0)
(5.30014 0.0497988 0)
(5.30001 0.0615922 0)
(5.31046 0.0700922 0)
(5.30093 0.0944653 0)
(5.33773 0.0911813 0)
(5.28661 0.162342 0)
(5.41568 0.0884483 0)
(5.222 0.337201 0)
(5.60848 -0.00870539 0)
(5.07866 0.776606 0)
(5.87262 -0.25539 0)
(5.03701 1.44305 0)
(5.8437 -0.454931 0)
(5.26332 1.74355 0)
(5.65511 -0.393878 0)
(5.39777 1.53762 0)
(5.77919 0.167269 0)
(5.27899 1.4321 0)
(5.77274 0.577934 0)
(5.14734 1.93174 0)
(5.85568 0.815697 0)
(5.29669 2.37896 0)
(6.53414 1.55443 0)
(5.2223 3.55036 0)
(7.57458 2.62977 0)
(4.50907 5.78049 0)
(8.58252 4.2356 0)
(6.27627 10.5389 0)
(9.19037 -0.0726151 0)
(10.2019 0.349894 0)
(12.1159 0.332326 0)
(13.2413 -1.2529 0)
(14.1026 -2.76069 0)
(14.9452 -2.09159 0)
(14.2309 -0.7353 0)
(12.8773 -1.0402 0)
(11.4854 -2.7774 0)
(9.6064 -4.40191 0)
(9.13048 -4.6709 0)
(8.91697 -3.94673 0)
(7.84683 -3.37666 0)
(7.23516 -2.88995 0)
(6.9181 -2.36259 0)
(6.52512 -1.912 0)
(6.22824 -1.5196 0)
(6.04703 -1.18239 0)
(5.89348 -0.929158 0)
(5.75011 -0.748925 0)
(5.63333 -0.611823 0)
(5.54752 -0.499959 0)
(5.4859 -0.407221 0)
(5.44068 -0.331011 0)
(5.40662 -0.268862 0)
(5.38055 -0.218297 0)
(5.36044 -0.177154 0)
(5.34487 -0.143667 0)
(5.33276 -0.116421 0)
(5.3233 -0.0942679 0)
(5.3159 -0.0762705 0)
(5.31007 -0.0616629 0)
(5.30547 -0.0498169 0)
(5.30184 -0.0402184 0)
(5.29895 -0.0324458 0)
(5.29666 -0.0261556 0)
(5.29484 -0.0210683 0)
(5.29338 -0.0169541 0)
(5.29222 -0.0136265 0)
(5.29129 -0.0109363 0)
(5.29055 -0.00875951 0)
(5.28996 -0.00699445 0)
(5.28949 -0.00556109 0)
(5.28912 -0.0043944 0)
(5.28882 -0.00343964 0)
(5.28859 -0.00265198 0)
(5.28841 -0.00199543 0)
(5.28827 -0.00144031 0)
(5.28817 -0.000961464 0)
(5.2881 -0.000537063 0)
(5.28806 -0.000148483 0)
(5.28804 0.000220939 0)
(5.28805 0.000586571 0)
(5.28807 0.000962983 0)
(5.28812 0.00136492 0)
(5.2882 0.00180751 0)
(5.2883 0.00230706 0)
(5.28843 0.00288156 0)
(5.28859 0.00355133 0)
(5.28879 0.00433984 0)
(5.28904 0.00527443 0)
(5.28935 0.00638732 0)
(5.28972 0.00771659 0)
(5.29017 0.00930767 0)
(5.29073 0.0112145 0)
(5.2914 0.0135023 0)
(5.29223 0.016247 0)
(5.29321 0.0195458 0)
(5.29449 0.0234957 0)
(5.29589 0.0282742 0)
(5.29803 0.0339103 0)
(5.29968 0.0409801 0)
(5.30421 0.0486446 0)
(5.30408 0.0601187 0)
(5.31744 0.0680471 0)
(5.30458 0.0924431 0)
(5.35306 0.0861102 0)
(5.28254 0.16173 0)
(5.45905 0.0704204 0)
(5.18544 0.349057 0)
(5.74613 -0.0734971 0)
(4.94384 0.846612 0)
(6.27293 -0.439147 0)
(4.69997 1.66645 0)
(6.70401 -0.783601 0)
(4.83835 2.04569 0)
(7.00518 -0.791601 0)
(5.22387 1.83607 0)
(7.36962 -0.178383 0)
(5.39274 1.909 0)
(7.02986 0.372881 0)
(5.21393 2.38381 0)
(6.34914 0.596357 0)
(4.89745 2.84356 0)
(5.92505 1.17051 0)
(4.57487 3.84492 0)
(7.90621 1.9226 0)
(5.21841 5.78168 0)
(11.037 2.87474 0)
(8.09079 9.69278 0)
(11.1521 -0.090175 0)
(11.007 0.0722519 0)
(12.1731 -0.420302 0)
(13.113 -2.30547 0)
(13.2788 -3.20551 0)
(13.1196 -1.67985 0)
(12.1923 -0.143017 0)
(11.817 -0.826518 0)
(12.0057 -2.48328 0)
(10.9469 -3.85009 0)
(9.58147 -4.35939 0)
(9.33691 -3.74323 0)
(8.48159 -3.01875 0)
(7.47131 -2.59646 0)
(7.0087 -2.17026 0)
(6.65587 -1.75882 0)
(6.30604 -1.41614 0)
(6.07053 -1.11747 0)
(5.92043 -0.874575 0)
(5.79714 -0.69714 0)
(5.6868 -0.567695 0)
(5.59484 -0.466136 0)
(5.52357 -0.382333 0)
(5.47006 -0.312593 0)
(5.42986 -0.254971 0)
(5.39924 -0.207663 0)
(5.37562 -0.168941 0)
(5.35722 -0.137288 0)
(5.34282 -0.111443 0)
(5.33149 -0.0903655 0)
(5.32255 -0.0731991 0)
(5.31548 -0.0592382 0)
(5.30986 -0.0478959 0)
(5.30539 -0.0386925 0)
(5.30183 -0.0312324 0)
(5.29899 -0.0251887 0)
(5.29672 -0.0202962 0)
(5.29491 -0.0163373 0)
(5.29345 -0.0131336 0)
(5.29229 -0.0105422 0)
(5.29136 -0.00844445 0)
(5.29062 -0.00674289 0)
(5.29002 -0.00536058 0)
(5.28955 -0.00423523 0)
(5.28918 -0.0033142 0)
(5.28889 -0.00255404 0)
(5.28866 -0.00191995 0)
(5.28848 -0.00138352 0)
(5.28836 -0.000920485 0)
(5.28827 -0.000509806 0)
(5.28822 -0.000133387 0)
(5.28819 0.000224932 0)
(5.2882 0.000579935 0)
(5.28823 0.000945805 0)
(5.2883 0.00133689 0)
(5.28839 0.00176788 0)
(5.28852 0.00225459 0)
(5.28868 0.00281455 0)
(5.28889 0.00346746 0)
(5.28915 0.00423617 0)
(5.28946 0.00514727 0)
(5.28985 0.00623203 0)
(5.29032 0.00752751 0)
(5.29089 0.00907769 0)
(5.29159 0.0109349 0)
(5.29244 0.013162 0)
(5.29347 0.0158331 0)
(5.29471 0.0190394 0)
(5.29628 0.0228799 0)
(5.29803 0.0275086 0)
(5.30064 0.0329898 0)
(5.30269 0.0397845 0)
(5.30817 0.0472674 0)
(5.30792 0.0581572 0)
(5.32442 0.0658988 0)
(5.30713 0.0892874 0)
(5.36984 0.0814824 0)
(5.27273 0.158661 0)
(5.50999 0.0527244 0)
(5.13165 0.356478 0)
(5.89641 -0.147348 0)
(4.8128 0.899325 0)
(6.65579 -0.658874 0)
(4.52334 1.8346 0)
(7.57497 -1.21694 0)
(4.58392 2.29636 0)
(8.7015 -1.31318 0)
(5.13874 1.90842 0)
(9.70092 -0.566505 0)
(5.95539 1.97852 0)
(10.1332 -0.0858962 0)
(6.29368 2.59623 0)
(10.7015 0.305329 0)
(6.23305 3.1839 0)
(10.3599 1.31203 0)
(4.77173 4.11104 0)
(9.90034 1.86985 0)
(4.00375 6.31893 0)
(10.1085 1.66933 0)
(8.54384 9.20254 0)
(12.8187 -0.0157322 0)
(12.5688 0.0559451 0)
(13.1081 -0.674644 0)
(13.3419 -2.25511 0)
(12.4708 -2.83072 0)
(11.6801 -1.32686 0)
(11.7111 -0.0918483 0)
(12.2632 -0.861448 0)
(12.6133 -2.37477 0)
(12.3017 -3.43469 0)
(10.6012 -3.88937 0)
(9.51678 -3.45834 0)
(8.90701 -2.68326 0)
(7.87267 -2.26403 0)
(7.12914 -1.9489 0)
(6.75169 -1.57593 0)
(6.42004 -1.26001 0)
(6.12473 -1.01727 0)
(5.92642 -0.816436 0)
(5.80196 -0.653858 0)
(5.70816 -0.528773 0)
(5.62614 -0.432459 0)
(5.55509 -0.355501 0)
(5.49716 -0.292123 0)
(5.45187 -0.239426 0)
(5.41695 -0.195709 0)
(5.38995 -0.159626 0)
(5.36889 -0.129968 0)
(5.35233 -0.105665 0)
(5.33925 -0.0857911 0)
(5.32887 -0.0695706 0)
(5.32062 -0.0563535 0)
(5.31404 -0.0455985 0)
(5.30878 -0.0368607 0)
(5.30458 -0.0297693 0)
(5.30122 -0.0240179 0)
(5.29853 -0.0193593 0)
(5.29637 -0.0155876 0)
(5.29463 -0.0125331 0)
(5.29325 -0.0100606 0)
(5.29214 -0.00805888 0)
(5.29125 -0.00643507 0)
(5.29054 -0.0051153 0)
(5.28997 -0.00404032 0)
(5.28952 -0.0031602 0)
(5.28917 -0.00243348 0)
(5.2889 -0.0018269 0)
(5.28869 -0.0013135 0)
(5.28854 -0.000870023 0)
(5.28843 -0.000476248 0)
(5.28837 -0.000114855 0)
(5.28834 0.000229704 0)
(5.28835 0.000571544 0)
(5.28839 0.000924438 0)
(5.28847 0.00130216 0)
(5.28858 0.00171879 0)
(5.28873 0.00218966 0)
(5.28893 0.00273172 0)
(5.28918 0.00336391 0)
(5.28949 0.00410825 0)
(5.28987 0.00499052 0)
(5.29034 0.0060409 0)
(5.29091 0.00729513 0)
(5.29159 0.00879544 0)
(5.29243 0.0105924 0)
(5.29344 0.012746 0)
(5.29468 0.0153285 0)
(5.29615 0.0184237 0)
(5.29801 0.0221344 0)
(5.3001 0.0265831 0)
(5.30315 0.031892 0)
(5.30561 0.0383339 0)
(5.31193 0.0457058 0)
(5.31163 0.0556432 0)
(5.33111 0.0639509 0)
(5.30898 0.0842649 0)
(5.38775 0.079481 0)
(5.25531 0.148518 0)
(5.5771 0.0466608 0)
(5.02232 0.342206 0)
(6.13837 -0.191227 0)
(4.43801 0.907366 0)
(7.31813 -0.819117 0)
(3.76777 1.95276 0)
(8.7324 -1.44295 0)
(3.45377 2.53896 0)
(9.68804 -1.60427 0)
(4.00022 2.38909 0)
(9.84888 -1.16905 0)
(4.83889 2.41933 0)
(10.9645 -0.672514 0)
(5.20742 2.9498 0)
(12.5095 -0.432974 0)
(6.00013 3.36367 0)
(14.2227 0.537974 0)
(6.73823 4.30481 0)
(14.5492 0.95366 0)
(7.19572 6.46541 0)
(12.0851 1.25223 0)
(8.94004 8.29233 0)
(13.0877 -0.059063 0)
(13.5335 0.0369004 0)
(14.2895 -0.662539 0)
(13.54 -1.95175 0)
(11.3725 -2.20359 0)
(10.4076 -1.05257 0)
(11.6326 -0.303548 0)
(13.064 -1.04654 0)
(13.0203 -2.35306 0)
(12.6598 -3.03769 0)
(11.396 -3.26638 0)
(9.5281 -3.05703 0)
(8.70349 -2.36694 0)
(8.08561 -1.91556 0)
(7.33743 -1.73454 0)
(6.85759 -1.45804 0)
(6.57409 -1.12123 0)
(6.28842 -0.877384 0)
(6.02015 -0.721867 0)
(5.8312 -0.599605 0)
(5.71455 -0.491544 0)
(5.63499 -0.400285 0)
(5.57081 -0.327012 0)
(5.51598 -0.268483 0)
(5.4701 -0.220845 0)
(5.4329 -0.181438 0)
(5.40328 -0.14867 0)
(5.37984 -0.121477 0)
(5.36129 -0.0990137 0)
(5.34656 -0.0805397 0)
(5.33483 -0.0654008 0)
(5.32547 -0.0530309 0)
(5.31798 -0.0429455 0)
(5.31199 -0.034738 0)
(5.30718 -0.0280686 0)
(5.30333 -0.0226552 0)
(5.30023 -0.0182666 0)
(5.29775 -0.0147107 0)
(5.29576 -0.0118293 0)
(5.29415 -0.00949621 0)
(5.29287 -0.00760686 0)
(5.29184 -0.00607369 0)
(5.29102 -0.00482684 0)
(5.29037 -0.00381074 0)
(5.28985 -0.00297867 0)
(5.28944 -0.0022914 0)
(5.28912 -0.00171739 0)
(5.28888 -0.00123114 0)
(5.28871 -0.00081069 0)
(5.28858 -0.000436847 0)
(5.28851 -9.31568e-05 0)
(5.28848 0.000235146 0)
(5.28849 0.00056142 0)
(5.28854 0.000898971 0)
(5.28863 0.00126086 0)
(5.28876 0.00166053 0)
(5.28894 0.00211271 0)
(5.28917 0.0026336 0)
(5.28946 0.00324125 0)
(5.28983 0.00395687 0)
(5.29027 0.0048052 0)
(5.29081 0.0058151 0)
(5.29147 0.0070208 0)
(5.29227 0.00846266 0)
(5.29324 0.0101892 0)
(5.29441 0.0122572 0)
(5.29584 0.0147365 0)
(5.29754 0.017703 0)
(5.29968 0.0212644 0)
(5.3021 0.0255058 0)
(5.30554 0.0306229 0)
(5.30844 0.0366468 0)
(5.31541 0.0439647 0)
(5.3154 0.0526106 0)
(5.3368 0.0622682 0)
(5.31199 0.0771779 0)
(5.4017 0.0812304 0)
(5.24331 0.128229 0)
(5.62964 0.0619777 0)
(4.92708 0.286527 0)
(6.32291 -0.157283 0)
(4.08729 0.800474 0)
(7.69871 -0.844052 0)
(3.21382 1.92527 0)
(8.71424 -1.6804 0)
(3.69051 2.61352 0)
(8.03423 -2.06972 0)
(4.65067 2.5026 0)
(7.21062 -1.53915 0)
(4.72841 2.59448 0)
(7.7391 -0.968455 0)
(4.56232 3.31818 0)
(8.25437 -0.973607 0)
(4.79109 3.92054 0)
(10.1534 -0.172855 0)
(6.3684 4.95534 0)
(11.6174 0.317065 0)
(8.31636 6.67382 0)
(13.0851 1.54565 0)
(10.1639 7.47267 0)
(13.1266 -0.172096 0)
(13.0269 -0.14115 0)
(13.4491 -0.771419 0)
(13.264 -1.56968 0)
(11.7092 -1.5289 0)
(11.0152 -1.05697 0)
(12.0093 -0.955667 0)
(13.3924 -1.49948 0)
(13.2693 -2.44801 0)
(12.2744 -2.76376 0)
(11.4512 -2.47828 0)
(9.68665 -2.39342 0)
(8.32715 -2.10334 0)
(7.98421 -1.62158 0)
(7.57281 -1.41916 0)
(7.00063 -1.32581 0)
(6.66884 -1.08132 0)
(6.4824 -0.799118 0)
(6.25909 -0.618443 0)
(6.01674 -0.519512 0)
(5.8209 -0.44491 0)
(5.68631 -0.373498 0)
(5.59624 -0.307683 0)
(5.53239 -0.251623 0)
(5.48384 -0.205687 0)
(5.44534 -0.168287 0)
(5.41437 -0.137676 0)
(5.38942 -0.112506 0)
(5.36935 -0.0917829 0)
(5.35325 -0.0747401 0)
(5.34034 -0.0607556 0)
(5.32998 -0.0493097 0)
(5.32166 -0.0399621 0)
(5.31498 -0.032344 0)
(5.30962 -0.0261471 0)
(5.3053 -0.0211122 0)
(5.30184 -0.0170264 0)
(5.29905 -0.0137141 0)
(5.29681 -0.0110294 0)
(5.29501 -0.00885422 0)
(5.29356 -0.00709168 0)
(5.29241 -0.00566109 0)
(5.29148 -0.00449737 0)
(5.29074 -0.00354868 0)
(5.29016 -0.00277156 0)
(5.2897 -0.00212934 0)
(5.28934 -0.00159241 0)
(5.28907 -0.00113717 0)
(5.28887 -0.000742945 0)
(5.28873 -0.000391928 0)
(5.28865 -6.85329e-05 0)
(5.28861 0.000241148 0)
(5.28862 0.000549605 0)
(5.28868 0.000869559 0)
(5.28878 0.00121328 0)
(5.28893 0.00159347 0)
(5.28914 0.00202418 0)
(5.2894 0.00252073 0)
(5.28973 0.00310025 0)
(5.29014 0.00378298 0)
(5.29065 0.00459242 0)
(5.29126 0.00555596 0)
(5.29201 0.00670624 0)
(5.29291 0.00808146 0)
(5.29401 0.00972772 0)
(5.29533 0.0116985 0)
(5.29694 0.0140608 0)
(5.29887 0.0168825 0)
(5.30127 0.0202751 0)
(5.304 0.0242864 0)
(5.30779 0.0291863 0)
(5.31118 0.0347543 0)
(5.31854 0.0420121 0)
(5.31936 0.0492151 0)
(5.34107 0.0605485 0)
(5.31737 0.0688899 0)
(5.40839 0.0849115 0)
(5.24608 0.102121 0)
(5.64796 0.0900203 0)
(4.89665 0.209657 0)
(6.38336 -0.0806087 0)
(3.92339 0.65514 0)
(7.81621 -0.837757 0)
(2.81113 1.94732 0)
(8.73613 -2.09797 0)
(3.76749 3.02299 0)
(7.59414 -2.68149 0)
(4.96428 2.7778 0)
(7.39439 -1.76943 0)
(4.68908 2.66396 0)
(7.85582 -1.38871 0)
(5.14738 3.46837 0)
(7.39434 -1.53063 0)
(5.51558 3.97618 0)
(7.7664 -1.03153 0)
(6.58686 5.33944 0)
(7.98202 -0.64672 0)
(7.79828 6.68441 0)
(10.8425 1.21473 0)
(10.556 6.90863 0)
(12.3771 -0.117501 0)
(12.0335 0.0646506 0)
(13.2209 -0.686243 0)
(13.6617 -1.61262 0)
(13.1681 -1.58285 0)
(12.8189 -1.19024 0)
(12.0145 -1.22455 0)
(11.8845 -1.55689 0)
(12.1833 -2.15026 0)
(11.2491 -2.58045 0)
(10.7518 -2.07116 0)
(10.1457 -1.63111 0)
(8.75204 -1.76646 0)
(8.07325 -1.60952 0)
(7.88935 -1.17863 0)
(7.29184 -0.978062 0)
(6.63322 -0.898256 0)
(6.3132 -0.739869 0)
(6.19522 -0.560653 0)
(6.08643 -0.429731 0)
(5.94193 -0.349957 0)
(5.79332 -0.297701 0)
(5.6697 -0.255418 0)
(5.57773 -0.217038 0)
(5.51161 -0.182118 0)
(5.46341 -0.151293 0)
(5.42718 -0.124808 0)
(5.39916 -0.10246 0)
(5.37709 -0.0838169 0)
(5.35951 -0.0683779 0)
(5.34544 -0.0556574 0)
(5.33414 -0.0452169 0)
(5.32506 -0.0366735 0)
(5.31775 -0.0297004 0)
(5.31186 -0.0240206 0)
(5.30713 -0.0194013 0)
(5.30332 -0.01565 0)
(5.30025 -0.0126072 0)
(5.29778 -0.0101396 0)
(5.2958 -0.00813907 0)
(5.2942 -0.00651742 0)
(5.29293 -0.00520124 0)
(5.2919 -0.00413028 0)
(5.29109 -0.00325662 0)
(5.29044 -0.00254054 0)
(5.28993 -0.00194838 0)
(5.28954 -0.00145286 0)
(5.28924 -0.00103226 0)
(5.28902 -0.000667452 0)
(5.28886 -0.000342066 0)
(5.28877 -4.10873e-05 0)
(5.28874 0.000247589 0)
(5.28875 0.000535984 0)
(5.28881 0.000836211 0)
(5.28893 0.00115954 0)
(5.2891 0.00151787 0)
(5.28933 0.00192449 0)
(5.28962 0.00239373 0)
(5.28999 0.00294169 0)
(5.29045 0.00358753 0)
(5.29101 0.00435336 0)
(5.29169 0.00526503 0)
(5.29252 0.00635336 0)
(5.29353 0.0076541 0)
(5.29474 0.00921085 0)
(5.29621 0.0110735 0)
(5.298 0.0133058 0)
(5.30013 0.0159677 0)
(5.30276 0.0191725 0)
(5.30581 0.0229355 0)
(5.30989 0.0275867 0)
(5.31382 0.0326891 0)
(5.32133 0.0398117 0)
(5.32347 0.0456342 0)
(5.34395 0.0584207 0)
(5.32515 0.0604582 0)
(5.40759 0.0882008 0)
(5.26484 0.0752688 0)
(5.63072 0.120931 0)
(4.94004 0.127874 0)
(6.32745 0.0186538 0)
(3.97589 0.49255 0)
(7.71773 -0.760159 0)
(2.71559 1.92795 0)
(8.57241 -2.47711 0)
(3.88539 3.47479 0)
(6.79528 -3.23568 0)
(5.30342 3.02197 0)
(6.75346 -1.92079 0)
(4.48695 2.93175 0)
(7.1746 -1.92914 0)
(5.35073 3.84618 0)
(6.7912 -2.043 0)
(5.81173 4.07987 0)
(7.7306 -1.65982 0)
(6.87687 5.48704 0)
(7.56722 -0.887372 0)
(8.0034 6.25304 0)
(9.22127 0.815858 0)
(10.437 6.15188 0)
(12.2927 0.0304341 0)
(13.4775 -0.284031 0)
(14.2186 -1.20492 0)
(12.4038 -1.53118 0)
(11.3726 -0.947097 0)
(11.9919 -0.219593 0)
(12.1059 -0.681244 0)
(11.7085 -1.89737 0)
(11.7751 -2.26894 0)
(10.8478 -2.26052 0)
(9.91034 -2.1802 0)
(10.4184 -1.50959 0)
(9.9433 -1.17395 0)
(8.53151 -1.36056 0)
(7.87039 -1.22484 0)
(7.48323 -0.837471 0)
(6.80578 -0.606023 0)
(6.16372 -0.535354 0)
(5.8065 -0.49081 0)
(5.67548 -0.422981 0)
(5.64064 -0.345653 0)
(5.62126 -0.28048 0)
(5.59078 -0.231307 0)
(5.55039 -0.193109 0)
(5.50777 -0.161526 0)
(5.46843 -0.134546 0)
(5.43459 -0.111425 0)
(5.4065 -0.0917849 0)
(5.38358 -0.0752793 0)
(5.365 -0.0615304 0)
(5.35 -0.0501544 0)
(5.33789 -0.0407888 0)
(5.32813 -0.0331082 0)
(5.32026 -0.0268285 0)
(5.31391 -0.0217067 0)
(5.30879 -0.0175376 0)
(5.30467 -0.0141491 0)
(5.30134 -0.0113984 0)
(5.29867 -0.00916696 0)
(5.29652 -0.00735713 0)
(5.29479 -0.00588948 0)
(5.2934 -0.00469807 0)
(5.29229 -0.00372824 0)
(5.2914 -0.00293662 0)
(5.2907 -0.00228743 0)
(5.29015 -0.00175017 0)
(5.28972 -0.00130011 0)
(5.28939 -0.000917475 0)
(5.28915 -0.000585021 0)
(5.28899 -0.000287525 0)
(5.28889 -1.13261e-05 0)
(5.28885 0.000254019 0)
(5.28887 0.000520488 0)
(5.28894 0.000799051 0)
(5.28907 0.0010999 0)
(5.28925 0.00143416 0)
(5.2895 0.00181426 0)
(5.28983 0.00225336 0)
(5.29023 0.00276649 0)
(5.29073 0.00337169 0)
(5.29135 0.00408949 0)
(5.2921 0.00494407 0)
(5.29301 0.00596423 0)
(5.29411 0.00718315 0)
(5.29544 0.00864173 0)
(5.29704 0.0103861 0)
(5.29898 0.0124761 0)
(5.30132 0.0149645 0)
(5.30417 0.0179634 0)
(5.30751 0.0214635 0)
(5.31184 0.0258306 0)
(5.31631 0.0304797 0)
(5.3238 0.0373408 0)
(5.32759 0.0420131 0)
(5.34569 0.0555876 0)
(5.33461 0.0527905 0)
(5.4009 0.0890271 0)
(5.29637 0.0522992 0)
(5.58358 0.144961 0)
(5.04932 0.0562106 0)
(6.16339 0.110809 0)
(4.25018 0.342295 0)
(7.38879 -0.653892 0)
(3.04877 1.8803 0)
(8.18724 -2.8434 0)
(3.96285 3.94414 0)
(6.47099 -3.65521 0)
(5.50307 3.08079 0)
(6.58007 -1.91628 0)
(4.69269 3.12372 0)
(6.87852 -2.47683 0)
(5.67836 4.21133 0)
(6.74706 -2.41052 0)
(5.93798 4.22394 0)
(7.22369 -1.96278 0)
(6.82207 5.59798 0)
(7.39938 -0.907124 0)
(8.24675 5.52699 0)
(8.87791 0.828544 0)
(9.89197 5.30938 0)
(13.4361 -0.559126 0)
(13.3155 -0.564658 0)
(12.2789 -0.178472 0)
(12.1454 -0.714469 0)
(11.7648 -1.51953 0)
(11.9771 -1.239 0)
(13.4892 -0.786071 0)
(13.2028 -1.46211 0)
(11.8296 -2.08876 0)
(11.4536 -1.64673 0)
(10.401 -1.61939 0)
(9.96693 -1.80514 0)
(10.2025 -1.19203 0)
(8.88575 -0.602954 0)
(7.25772 -0.555918 0)
(6.65527 -0.581648 0)
(6.70819 -0.484101 0)
(6.79978 -0.391924 0)
(6.64839 -0.34406 0)
(6.34615 -0.312816 0)
(6.05586 -0.27919 0)
(5.84135 -0.241967 0)
(5.69742 -0.205231 0)
(5.60106 -0.171964 0)
(5.53348 -0.143191 0)
(5.48341 -0.118764 0)
(5.44475 -0.0981614 0)
(5.41418 -0.0808486 0)
(5.3897 -0.0663622 0)
(5.36999 -0.0543013 0)
(5.35409 -0.0443093 0)
(5.34125 -0.0360678 0)
(5.33088 -0.0292971 0)
(5.3225 -0.023753 0)
(5.31574 -0.0192253 0)
(5.31028 -0.0155363 0)
(5.30588 -0.0125355 0)
(5.30233 -0.0100979 0)
(5.29946 -0.00812001 0)
(5.29716 -0.00651497 0)
(5.29531 -0.00521271 0)
(5.29383 -0.00415547 0)
(5.29264 -0.00329462 0)
(5.29169 -0.00259158 0)
(5.29094 -0.00201455 0)
(5.29034 -0.00153647 0)
(5.28989 -0.00113537 0)
(5.28954 -0.000793779 0)
(5.28928 -0.000496226 0)
(5.2891 -0.000228917 0)
(5.289 1.98817e-05 0)
(5.28896 0.000260266 0)
(5.28898 0.000503164 0)
(5.28906 0.000758213 0)
(5.28919 0.00103464 0)
(5.2894 0.00134274 0)
(5.28967 0.00169401 0)
(5.29002 0.00210033 0)
(5.29046 0.00257564 0)
(5.291 0.00313669 0)
(5.29166 0.00380231 0)
(5.29247 0.00459492 0)
(5.29346 0.00554117 0)
(5.29464 0.00667144 0)
(5.29608 0.00802377 0)
(5.29781 0.00964035 0)
(5.2999 0.0115766 0)
(5.30242 0.0138792 0)
(5.30547 0.016655 0)
(5.30909 0.0198804 0)
(5.31364 0.0239282 0)
(5.31865 0.0281468 0)
(5.326 0.0346008 0)
(5.33156 0.0384322 0)
(5.34674 0.0519146 0)
(5.34459 0.0464181 0)
(5.39104 0.0861056 0)
(5.33414 0.0365415 0)
(5.51842 0.154302 0)
(5.1993 0.00782374 0)
(5.91439 0.169586 0)
(4.69681 0.230001 0)
(6.82921 -0.550454 0)
(3.77233 1.80059 0)
(7.60979 -3.05752 0)
(3.93062 4.2952 0)
(6.48425 -3.83981 0)
(5.45009 3.15574 0)
(6.23442 -1.81594 0)
(4.84837 3.28398 0)
(6.80472 -2.90044 0)
(5.95874 4.38977 0)
(6.6331 -2.54591 0)
(6.16637 4.29557 0)
(7.11588 -2.02003 0)
(7.08878 5.46035 0)
(7.7747 -0.775295 0)
(7.92117 4.88833 0)
(9.00697 0.915237 0)
(9.69264 4.33355 0)
(12.4059 -0.151379 0)
(11.6319 0.129877 0)
(12.8954 -0.493548 0)
(14.0793 -1.24361 0)
(12.4581 -0.993305 0)
(11.1795 -0.982372 0)
(12.0497 -1.06956 0)
(12.76 -0.906452 0)
(11.7917 -1.52696 0)
(11.9271 -1.98088 0)
(12.3321 -1.44525 0)
(9.97206 -1.00238 0)
(8.05735 -0.755312 0)
(8.00741 -0.428384 0)
(8.23578 -0.337491 0)
(7.6126 -0.446149 0)
(6.67609 -0.510427 0)
(6.0995 -0.449194 0)
(5.87215 -0.335069 0)
(5.79492 -0.243311 0)
(5.75044 -0.193837 0)
(5.70076 -0.169653 0)
(5.64371 -0.152461 0)
(5.58615 -0.135027 0)
(5.53361 -0.116872 0)
(5.48844 -0.0992429 0)
(5.4508 -0.0831339 0)
(5.41989 -0.0689895 0)