/*--------------------------------*- C++ -*----------------------------------*\
| =========                 |                                                 |
| \\      /  F ield         | OpenFOAM: The Open Source CFD Toolbox           |
|  \\    /   O peration     | Version:  2.4.0                                 |
|   \\  /    A nd           | Web:      www.OpenFOAM.org                      |
|    \\/     M anipulation  |                                                 |
\*---------------------------------------------------------------------------*/
FoamFile
{
    version     2.0;
    format      ascii;
    class       volVectorField;
    location    "0.017";
    object      UMean;
}
// * * * * * * * * * * * * * * * * * * * * * * * * * * * * * * * * * * * * * //

dimensions      [0 1 -1 0 0 0 0];

internalField   nonuniform List<vector> 
4400
(
(5.67445 0.288597 0)
(4.13637 0.0665333 0)
(3.46971 0.00221173 0)
(3.21828 -0.00318637 0)
(3.17064 -0.00163383 0)
(3.22088 -0.00113809 0)
(3.20014 -0.000122394 0)
(3.32793 -0.000883612 0)
(3.36934 -0.0148678 0)
(3.56461 0.0041394 0)
(8.5678 0.744906 0)
(8.2608 0.29649 0)
(7.51155 0.091281 0)
(7.00016 0.0282682 0)
(6.81407 -0.00164672 0)
(6.91653 -0.00185086 0)
(6.78676 -0.0108223 0)
(7.18342 -0.00545214 0)
(6.69623 -0.0316721 0)
(8.56206 -0.448157 0)
(9.46869 0.785901 0)
(10.3525 0.385702 0)
(9.97838 0.156721 0)
(9.4604 0.0698937 0)
(9.17397 0.00620321 0)
(9.29934 0.000972734 0)
(9.0822 -0.0287617 0)
(9.58295 0.0124429 0)
(9.00768 -0.15683 0)
(10.6278 -0.449763 0)
(9.58275 0.663377 0)
(11.1588 0.380153 0)
(11.2608 0.184481 0)
(10.9367 0.108828 0)
(10.6427 0.0151737 0)
(10.7568 0.0139807 0)
(10.5437 -0.0469994 0)
(10.9125 0.0218583 0)
(10.7255 -0.211012 0)
(11.1625 -0.469993 0)
(9.52846 0.535443 0)
(11.2646 0.324518 0)
(11.6944 0.16918 0)
(11.5745 0.118534 0)
(11.4359 0.0276689 0)
(11.4147 0.0107882 0)
(11.4354 -0.0309765 0)
(11.4129 -0.0222479 0)
(11.6841 -0.163509 0)
(11.471 -0.590935 0)
(9.50968 0.428355 0)
(11.1986 0.266089 0)
(11.7158 0.132266 0)
(11.7192 0.109569 0)
(11.6959 0.0214834 0)
(11.6544 0.0226698 0)
(11.7181 -0.0490786 0)
(11.6725 -0.00455365 0)
(11.8238 -0.246148 0)
(11.6864 -0.485407 0)
(9.50776 0.329664 0)
(11.1494 0.207164 0)
(11.659 0.104833 0)
(11.7251 0.0781396 0)
(11.6951 0.0287901 0)
(11.7346 0.00252033 0)
(11.7074 -0.0167725 0)
(11.7783 -0.0539904 0)
(11.7394 -0.190746 0)
(11.7416 -0.538447 0)
(9.51242 0.231128 0)
(11.1034 0.155027 0)
(11.6438 0.0639081 0)
(11.6771 0.0699999 0)
(11.7085 0.00381184 0)
(11.6938 0.0199881 0)
(11.7219 -0.0371766 0)
(11.7489 -0.0338951 0)
(11.7245 -0.225929 0)
(11.6276 -0.53377 0)
(9.51219 0.138576 0)
(11.0812 0.0907318 0)
(11.6216 0.0431935 0)
(11.6655 0.0341385 0)
(11.6911 0.0107646 0)
(11.682 0.00232128 0)
(11.7185 -0.0214879 0)
(11.7301 -0.056395 0)
(11.6898 -0.21031 0)
(11.5495 -0.504136 0)
(9.51313 0.0443336 0)
(11.0674 0.0351123 0)
(11.6145 0.00617025 0)
(11.6563 0.0230192 0)
(11.6829 -0.0111805 0)
(11.6811 0.00934176 0)
(11.7071 -0.0270378 0)
(11.716 -0.058228 0)
(11.6646 -0.201248 0)
(11.4864 -0.486296 0)
(9.51314 -0.0465161 0)
(11.0672 -0.0288678 0)
(11.6146 -0.016718 0)
(11.6553 -0.00801734 0)
(11.6845 -0.011475 0)
(11.6774 0.00143785 0)
(11.7054 -0.0266443 0)
(11.7049 -0.0545977 0)
(11.6391 -0.199144 0)
(11.439 -0.458605 0)
(9.51343 -0.140062 0)
(11.0783 -0.0865724 0)
(11.6245 -0.0502052 0)
(11.6626 -0.0244551 0)
(11.6903 -0.0269036 0)
(11.6821 0.00130065 0)
(11.7041 -0.0238283 0)
(11.6951 -0.0620861 0)
(11.618 -0.186971 0)
(11.3865 -0.411266 0)
(9.51331 -0.233748 0)
(11.1016 -0.147425 0)
(11.6436 -0.0774655 0)
(11.6778 -0.0501049 0)
(11.7037 -0.0332089 0)
(11.6903 -0.000439899 0)
(11.7066 -0.027104 0)
(11.689 -0.0548452 0)
(11.5978 -0.174041 0)
(11.3506 -0.365603 0)
(9.51246 -0.330596 0)
(11.1378 -0.20459 0)
(11.675 -0.109571 0)
(11.7021 -0.0713548 0)
(11.7193 -0.042727 0)
(11.699 -0.00150647 0)
(11.7081 -0.0240344 0)
(11.6805 -0.0532614 0)
(11.5793 -0.163234 0)
(11.3175 -0.319945 0)
(9.51163 -0.429788 0)
(11.1931 -0.261298 0)
(11.7206 -0.142136 0)
(11.7146 -0.0939277 0)
(11.6927 -0.0495603 0)
(11.6531 -0.000983528 0)
(11.6648 -0.0242494 0)
(11.6177 -0.0454994 0)
(11.5186 -0.148164 0)
(11.2225 -0.261386 0)
(9.5282 -0.536221 0)
(11.2621 -0.321891 0)
(11.6983 -0.175404 0)
(11.5643 -0.108359 0)
(11.447 -0.0483333 0)
(11.3787 0.000411973 0)
(11.4024 -0.0212445 0)
(11.3167 -0.0382997 0)
(11.245 -0.131823 0)
(10.8614 -0.202126 0)
(9.58274 -0.663911 0)
(11.1552 -0.378291 0)
(11.2699 -0.189402 0)
(10.9093 -0.100075 0)
(10.6961 -0.0351165 0)
(10.6256 0.00319583 0)
(10.6566 -0.0169965 0)
(10.5384 -0.0291227 0)
(10.4921 -0.108565 0)
(9.98 -0.133693 0)
(9.46711 -0.786075 0)
(10.3525 -0.384979 0)
(9.98145 -0.159018 0)
(9.44217 -0.0661555 0)
(9.21398 -0.0161723 0)
(9.17337 0.00443393 0)
(9.2012 -0.0114805 0)
(9.0768 -0.0203621 0)
(9.034 -0.0781831 0)
(8.41814 -0.0646594 0)
(8.56668 -0.745008 0)
(8.26157 -0.296163 0)
(7.51134 -0.092307 0)
(6.99071 -0.0269018 0)
(6.83338 -0.00271358 0)
(6.82872 0.00308377 0)
(6.84508 -0.00592926 0)
(6.74353 -0.0119695 0)
(6.68309 -0.0405893 0)
(6.08886 -0.018552 0)
(5.67394 -0.288627 0)
(4.13684 -0.0664706 0)
(3.46875 -0.00239046 0)
(3.21498 0.0033887 0)
(3.17301 0.00137673 0)
(3.18595 0.000499781 0)
(3.18831 -0.000877215 0)
(3.13663 -0.00182517 0)
(3.07264 -0.00437309 0)
(2.74565 0.0206887 0)
(6.18469 -1.86922 0)
(7.67442 -1.74721 0)
(8.38181 -2.16699 0)
(8.64658 -2.85014 0)
(8.54936 -3.36385 0)
(8.08164 -3.64222 0)
(7.51147 -3.69635 0)
(7.01202 -3.5858 0)
(6.53125 -3.27586 0)
(6.13237 -2.82072 0)
(5.84329 -2.34131 0)
(5.65767 -1.91215 0)
(5.52782 -1.56042 0)
(5.43277 -1.27246 0)
(5.36591 -1.03145 0)
(5.3157 -0.833425 0)
(5.2772 -0.673768 0)
(5.24882 -0.545496 0)
(5.22797 -0.442402 0)
(5.21225 -0.359394 0)
(5.20026 -0.29229 0)
(5.19121 -0.237829 0)
(5.18446 -0.193531 0)
(5.17948 -0.157476 0)
(5.17581 -0.12813 0)
(5.1731 -0.104246 0)
(5.17109 -0.0848089 0)
(5.16959 -0.0689907 0)
(5.16847 -0.0561175 0)
(5.16762 -0.0456415 0)
(5.16698 -0.0371164 0)
(5.16649 -0.0301793 0)
(5.16612 -0.0245345 0)
(5.16583 -0.0199412 0)
(5.16561 -0.0162031 0)
(5.16543 -0.0131609 0)
(5.1653 -0.0106847 0)
(5.16519 -0.00866854 0)
(5.1651 -0.00702588 0)
(5.16504 -0.00568598 0)
(5.16498 -0.00459149 0)
(5.16494 -0.00369582 0)
(5.16491 -0.00296071 0)
(5.16488 -0.00235442 0)
(5.16486 -0.00185094 0)
(5.16485 -0.00142878 0)
(5.16483 -0.00107006 0)
(5.16483 -0.000759626 0)
(5.16482 -0.000484452 0)
(5.16482 -0.000233095 0)
(5.16481 4.67965e-06 0)
(5.16481 0.000238459 0)
(5.16482 0.000477395 0)
(5.16482 0.000730823 0)
(5.16483 0.0010084 0)
(5.16483 0.00132066 0)
(5.16485 0.0016792 0)
(5.16486 0.00209739 0)
(5.16488 0.00259055 0)
(5.1649 0.0031768 0)
(5.16492 0.00387752 0)
(5.16496 0.00471831 0)
(5.165 0.00572977 0)
(5.16505 0.00694876 0)
(5.16511 0.00841958 0)
(5.16518 0.0101958 0)
(5.16528 0.0123418 0)
(5.16539 0.0149362 0)
(5.16553 0.0180723 0)
(5.1657 0.0218673 0)
(5.16593 0.0264522 0)
(5.16618 0.0320153 0)
(5.16656 0.0387078 0)
(5.16688 0.0469159 0)
(5.16767 0.056599 0)
(5.16784 0.0689729 0)
(5.16983 0.082518 0)
(5.16881 0.102352 0)
(5.17452 0.119293 0)
(5.16867 0.155338 0)
(5.18427 0.169486 0)
(5.16432 0.244773 0)
(5.19912 0.235367 0)
(5.15044 0.394127 0)
(5.20724 0.323197 0)
(5.12061 0.60674 0)
(5.19509 0.450064 0)
(5.07819 0.85541 0)
(5.17225 0.663103 0)
(5.02883 1.13983 0)
(5.17195 1.00017 0)
(4.96598 1.5613 0)
(5.16464 1.46371 0)
(4.95671 2.2311 0)
(5.13993 2.1489 0)
(4.94628 3.29944 0)
(5.23096 3.27355 0)
(4.67608 5.16707 0)
(6.14815 5.50223 0)
(3.65726 10.1376 0)
(7.95449 -2.08615 0)
(8.84555 -2.1128 0)
(9.18168 -2.39166 0)
(9.18997 -2.86338 0)
(8.9931 -3.24175 0)
(8.51998 -3.43291 0)
(7.98133 -3.46716 0)
(7.3933 -3.3656 0)
(6.81709 -3.08043 0)
(6.36867 -2.66164 0)
(6.03933 -2.22627 0)
(5.81434 -1.83632 0)
(5.66414 -1.50531 0)
(5.54777 -1.23103 0)
(5.45899 -1.00136 0)
(5.39199 -0.810587 0)
(5.33868 -0.656176 0)
(5.29697 -0.532397 0)
(5.26576 -0.432746 0)
(5.24258 -0.35213 0)
(5.22501 -0.28674 0)
(5.21148 -0.233591 0)
(5.20104 -0.190318 0)
(5.193 -0.155051 0)
(5.18683 -0.126297 0)
(5.18207 -0.102857 0)
(5.17839 -0.0837503 0)
(5.17554 -0.0681797 0)
(5.17331 -0.0554929 0)
(5.17156 -0.0451577 0)
(5.17019 -0.03674 0)
(5.1691 -0.0298848 0)
(5.16824 -0.0243032 0)
(5.16756 -0.0197588 0)
(5.16701 -0.0160589 0)
(5.16658 -0.0130462 0)
(5.16623 -0.0105935 0)
(5.16595 -0.00859598 0)
(5.16572 -0.00696805 0)
(5.16554 -0.00563989 0)
(5.1654 -0.00455469 0)
(5.16528 -0.00366651 0)
(5.16519 -0.00293745 0)
(5.16511 -0.00233613 0)
(5.16505 -0.00183665 0)
(5.16501 -0.00141777 0)
(5.16497 -0.00106177 0)
(5.16495 -0.00075365 0)
(5.16493 -0.000480457 0)
(5.16492 -0.000230869 0)
(5.16491 5.30475e-06 0)
(5.16491 0.000237512 0)
(5.16492 0.000474899 0)
(5.16493 0.000726678 0)
(5.16495 0.0010025 0)
(5.16497 0.00131274 0)
(5.16501 0.00166902 0)
(5.16505 0.00208452 0)
(5.1651 0.00257455 0)
(5.16517 0.00315703 0)
(5.16525 0.00385328 0)
(5.16534 0.00468868 0)
(5.16546 0.00569365 0)
(5.16561 0.00690472 0)
(5.16579 0.00836591 0)
(5.166 0.0101304 0)
(5.16626 0.012262 0)
(5.16658 0.0148387 0)
(5.16697 0.017953 0)
(5.16744 0.0217211 0)
(5.16804 0.0262724 0)
(5.16872 0.0317947 0)
(5.16966 0.0384318 0)
(5.17059 0.0465837 0)
(5.17226 0.0561525 0)
(5.1732 0.068502 0)
(5.17684 0.0816772 0)
(5.17626 0.101903 0)
(5.18598 0.117185 0)
(5.17815 0.156168 0)
(5.20506 0.16299 0)
(5.17517 0.252141 0)
(5.2373 0.217305 0)
(5.16682 0.41931 0)
(5.26356 0.286551 0)
(5.15791 0.658191 0)
(5.25144 0.390343 0)
(5.154 0.937182 0)
(5.20028 0.564036 0)
(5.17153 1.25482 0)
(5.14665 0.86283 0)
(5.19438 1.69808 0)
(5.1726 1.3098 0)
(5.19488 2.35911 0)
(5.3755 2.01783 0)
(5.03418 3.46962 0)
(5.92365 3.08264 0)
(4.60361 5.50333 0)
(7.62321 4.97073 0)
(5.48064 10.6625 0)
(9.86198 -1.71702 0)
(9.82463 -2.0654 0)
(9.95955 -2.4347 0)
(9.8437 -2.82843 0)
(9.49784 -3.09275 0)
(8.95964 -3.19919 0)
(8.32752 -3.21329 0)
(7.64523 -3.1129 0)
(7.01649 -2.86198 0)
(6.55571 -2.49409 0)
(6.22442 -2.10065 0)
(5.96903 -1.74888 0)
(5.79357 -1.44449 0)
(5.66004 -1.18329 0)
(5.5499 -0.96364 0)
(5.46537 -0.781243 0)
(5.39951 -0.632993 0)
(5.34628 -0.514434 0)
(5.30454 -0.419291 0)
(5.27304 -0.342099 0)
(5.24934 -0.279117 0)
(5.23122 -0.2277 0)
(5.21715 -0.185739 0)
(5.20617 -0.151492 0)
(5.19758 -0.123532 0)
(5.19084 -0.100704 0)
(5.18555 -0.0820685 0)
(5.18137 -0.0668606 0)
(5.17806 -0.0544539 0)
(5.17544 -0.0443364 0)
(5.17334 -0.0360884 0)
(5.17167 -0.0293662 0)
(5.17034 -0.0238893 0)
(5.16926 -0.0194277 0)
(5.1684 -0.0157934 0)
(5.16771 -0.0128332 0)
(5.16715 -0.0104223 0)
(5.1667 -0.00845813 0)
(5.16634 -0.00685698 0)
(5.16604 -0.00555041 0)
(5.16581 -0.00448265 0)
(5.16562 -0.00360858 0)
(5.16546 -0.00289104 0)
(5.16534 -0.00229915 0)
(5.16524 -0.00180741 0)
(5.16517 -0.00139496 0)
(5.16511 -0.00104439 0)
(5.16507 -0.000740916 0)
(5.16504 -0.000471801 0)
(5.16502 -0.00022584 0)
(5.16501 6.95629e-06 0)
(5.16501 0.000235954 0)
(5.16502 0.00047014 0)
(5.16504 0.000718608 0)
(5.16507 0.000990853 0)
(5.16511 0.00129713 0)
(5.16517 0.00164887 0)
(5.16524 0.00205909 0)
(5.16532 0.0025429 0)
(5.16543 0.00311799 0)
(5.16556 0.00380539 0)
(5.16572 0.00463016 0)
(5.16592 0.0056223 0)
(5.16616 0.00681786 0)
(5.16645 0.00826026 0)
(5.16681 0.0100019 0)
(5.16724 0.0121059 0)
(5.16776 0.0146487 0)
(5.1684 0.0177218 0)
(5.16917 0.0214394 0)
(5.17012 0.0259289 0)
(5.17124 0.031375 0)
(5.17272 0.0379166 0)
(5.17426 0.0459563 0)
(5.17681 0.0553584 0)
(5.17845 0.0675843 0)
(5.18383 0.0803325 0)
(5.18337 0.100753 0)
(5.19778 0.114287 0)
(5.18623 0.155935 0)
(5.22857 0.154558 0)
(5.17978 0.259066 0)
(5.28954 0.191548 0)
(5.1633 0.450985 0)
(5.36591 0.226062 0)
(5.16316 0.7308 0)
(5.4166 0.28918 0)
(5.18595 1.0424 0)
(5.46604 0.442794 0)
(5.18778 1.36998 0)
(5.56968 0.738312 0)
(5.13826 1.81968 0)
(5.76211 1.14119 0)
(5.08937 2.51791 0)
(6.15306 1.7048 0)
(5.11218 3.67367 0)
(7.05167 2.61225 0)
(4.97428 5.60572 0)
(9.14737 4.11387 0)
(6.79542 10.514 0)
(11.0766 -1.78751 0)
(10.5574 -2.21291 0)
(10.3987 -2.49232 0)
(10.1883 -2.73441 0)
(9.75265 -2.87404 0)
(9.14661 -2.92438 0)
(8.4488 -2.93886 0)
(7.75891 -2.86437 0)
(7.15053 -2.65188 0)
(6.70265 -2.3356 0)
(6.39071 -1.98019 0)
(6.12402 -1.65227 0)
(5.91555 -1.37224 0)
(5.76255 -1.12831 0)
(5.63482 -0.919564 0)
(5.53195 -0.746227 0)
(5.45389 -0.604974 0)
(5.39226 -0.491911 0)
(5.34249 -0.401724 0)
(5.30341 -0.328812 0)
(5.27346 -0.269108 0)
(5.25054 -0.22005 0)
(5.2328 -0.179802 0)
(5.21892 -0.146844 0)
(5.20799 -0.119877 0)
(5.19935 -0.0978209 0)
(5.1925 -0.079788 0)
(5.18705 -0.065051 0)
(5.18269 -0.053014 0)
(5.17922 -0.0431873 0)
(5.17643 -0.0351691 0)
(5.17419 -0.0286292 0)
(5.17238 -0.0232973 0)
(5.17093 -0.0189513 0)
(5.16976 -0.0154097 0)
(5.16882 -0.012524 0)
(5.16805 -0.0101727 0)
(5.16743 -0.0082565 0)
(5.16693 -0.00669404 0)
(5.16653 -0.00541891 0)
(5.16621 -0.00437668 0)
(5.16594 -0.0035233 0)
(5.16573 -0.00282266 0)
(5.16557 -0.00224467 0)
(5.16543 -0.00176442 0)
(5.16533 -0.00136153 0)
(5.16525 -0.001019 0)
(5.16519 -0.000722412 0)
(5.16514 -0.000459283 0)
(5.16512 -0.000218678 0)
(5.1651 9.1744e-06 0)
(5.16511 0.000233432 0)
(5.16512 0.000462892 0)
(5.16515 0.000706431 0)
(5.16519 0.000973354 0)
(5.16525 0.0012737 0)
(5.16532 0.00161869 0)
(5.16542 0.00202104 0)
(5.16554 0.00249558 0)
(5.16569 0.00305966 0)
(5.16588 0.0037339 0)
(5.1661 0.00454287 0)
(5.16637 0.00551598 0)
(5.16671 0.00668858 0)
(5.16711 0.00810322 0)
(5.1676 0.00981124 0)
(5.1682 0.0118744 0)
(5.16892 0.0143676 0)
(5.1698 0.0173806 0)
(5.17086 0.0210243 0)
(5.17218 0.0254245 0)
(5.17372 0.030759 0)
(5.17574 0.0371674 0)
(5.17786 0.0450366 0)
(5.18129 0.0542291 0)
(5.18356 0.066216 0)
(5.19077 0.0785259 0)
(5.19012 0.0988511 0)
(5.2097 0.110809 0)
(5.19328 0.154112 0)
(5.25292 0.145747 0)
(5.18145 0.261268 0)
(5.34752 0.166768 0)
(5.14548 0.471113 0)
(5.50068 0.168142 0)
(5.1124 0.787344 0)
(5.67578 0.185836 0)
(5.13066 1.13514 0)
(5.85572 0.29725 0)
(5.19609 1.51474 0)
(5.98469 0.548673 0)
(5.24435 2.02633 0)
(6.0418 0.884277 0)
(5.23924 2.75584 0)
(6.36068 1.38636 0)
(5.05468 3.84517 0)
(7.95552 2.2945 0)
(4.90533 5.79861 0)
(10.3534 2.90896 0)
(8.12984 9.88039 0)
(11.5225 -1.48057 0)
(11.1933 -1.82218 0)
(10.7487 -2.19329 0)
(10.2848 -2.46434 0)
(9.74111 -2.58664 0)
(9.13275 -2.6458 0)
(8.48397 -2.68646 0)
(7.86121 -2.6325 0)
(7.3131 -2.44375 0)
(6.87549 -2.17061 0)
(6.5526 -1.85661 0)
(6.27455 -1.54942 0)
(6.02972 -1.2871 0)
(5.84746 -1.06256 0)
(5.70579 -0.868605 0)
(5.58893 -0.706901 0)
(5.49866 -0.5746 0)
(5.43001 -0.467559 0)
(5.37548 -0.381894 0)
(5.33149 -0.313022 0)
(5.29656 -0.256841 0)
(5.26923 -0.210583 0)
(5.24791 -0.172451 0)
(5.23121 -0.141083 0)
(5.21802 -0.115332 0)
(5.20755 -0.0942184 0)
(5.1992 -0.076922 0)
(5.19253 -0.0627641 0)
(5.18717 -0.0511842 0)
(5.18287 -0.0417197 0)
(5.17941 -0.0339897 0)
(5.17662 -0.0276798 0)
(5.17437 -0.0225318 0)
(5.17255 -0.0183336 0)
(5.17108 -0.0149107 0)
(5.16989 -0.0121206 0)
(5.16893 -0.00984653 0)
(5.16815 -0.0079926 0)
(5.16752 -0.00648055 0)
(5.16701 -0.00524638 0)
(5.1666 -0.0042375 0)
(5.16626 -0.00341128 0)
(5.166 -0.00273281 0)
(5.16578 -0.00217304 0)
(5.16561 -0.00170785 0)
(5.16548 -0.00131748 0)
(5.16538 -0.000985492 0)
(5.1653 -0.000697923 0)
(5.16525 -0.000442666 0)
(5.16521 -0.000209123 0)
(5.1652 1.22076e-05 0)
(5.1652 0.000230189 0)
(5.16522 0.00045336 0)
(5.16525 0.00069035 0)
(5.16531 0.000950203 0)
(5.16538 0.00124268 0)
(5.16548 0.0015787 0)
(5.1656 0.00197063 0)
(5.16576 0.0024329 0)
(5.16595 0.00298243 0)
(5.16618 0.0036393 0)
(5.16647 0.00442742 0)
(5.16682 0.00537545 0)
(5.16724 0.0065178 0)
(5.16775 0.0078959 0)
(5.16838 0.00955968 0)
(5.16914 0.0115693 0)
(5.17006 0.0139974 0)
(5.17117 0.0169315 0)
(5.17252 0.0204785 0)
(5.17418 0.0247626 0)
(5.17613 0.0299508 0)
(5.17868 0.0361906 0)
(5.18136 0.0438279 0)
(5.18566 0.0527826 0)
(5.18849 0.0643874 0)
(5.19764 0.0763185 0)
(5.1963 0.0961564 0)
(5.22206 0.10685 0)
(5.19812 0.150926 0)
(5.27966 0.135711 0)
(5.17784 0.261073 0)
(5.41107 0.136645 0)
(5.12773 0.485788 0)
(5.64942 0.0908555 0)
(5.08227 0.835537 0)
(6.00735 0.0324595 0)
(5.10549 1.21474 0)
(6.51919 0.068429 0)
(5.25164 1.60476 0)
(7.17067 0.271933 0)
(5.41231 2.14002 0)
(8.04297 0.619684 0)
(5.35174 2.87958 0)
(9.22276 1.18432 0)
(4.85788 3.98586 0)
(10.4163 1.82035 0)
(5.25859 6.08335 0)
(10.3693 1.76334 0)
(8.85499 9.22484 0)
(11.6032 -1.35395 0)
(11.327 -1.79411 0)
(10.8467 -2.15567 0)
(10.2905 -2.39838 0)
(9.72492 -2.48604 0)
(9.14961 -2.5023 0)
(8.55576 -2.49787 0)
(7.98764 -2.42463 0)
(7.50409 -2.25468 0)
(7.08707 -2.01192 0)
(6.72215 -1.72647 0)
(6.41174 -1.43779 0)
(6.13747 -1.19103 0)
(5.92103 -0.985887 0)
(5.76187 -0.808323 0)
(5.63619 -0.659652 0)
(5.53609 -0.539181 0)
(5.45976 -0.441119 0)
(5.40131 -0.361132 0)
(5.35485 -0.296171 0)
(5.31715 -0.243251 0)
(5.28666 -0.199806 0)
(5.26229 -0.163965 0)
(5.24295 -0.134384 0)
(5.22761 -0.110011 0)
(5.21539 -0.0899701 0)
(5.20562 -0.0735182 0)
(5.19777 -0.0600307 0)
(5.19147 -0.0489855 0)
(5.18638 -0.0399486 0)
(5.18228 -0.0325613 0)
(5.17896 -0.0265264 0)
(5.17628 -0.0215996 0)
(5.17411 -0.0175796 0)
(5.17235 -0.0143004 0)
(5.17093 -0.0116265 0)
(5.16977 -0.00944651 0)
(5.16884 -0.00766862 0)
(5.16808 -0.0062182 0)
(5.16747 -0.00503421 0)
(5.16697 -0.00406627 0)
(5.16657 -0.00327338 0)
(5.16625 -0.00262211 0)
(5.16599 -0.00208469 0)
(5.16579 -0.00163801 0)
(5.16563 -0.00126307 0)
(5.1655 -0.00094409 0)
(5.16541 -0.000667671 0)
(5.16535 -0.000422143 0)
(5.16531 -0.000197329 0)
(5.16529 1.59222e-05 0)
(5.16529 0.000226125 0)
(5.16531 0.000441505 0)
(5.16536 0.000670388 0)
(5.16542 0.000921484 0)
(5.16551 0.00120422 0)
(5.16563 0.00152913 0)
(5.16578 0.00190817 0)
(5.16596 0.00235526 0)
(5.16619 0.0028868 0)
(5.16648 0.0035222 0)
(5.16682 0.00428457 0)
(5.16725 0.00520162 0)
(5.16776 0.00630661 0)
(5.16838 0.00763961 0)
(5.16913 0.00924882 0)
(5.17005 0.0111924 0)
(5.17116 0.0135403 0)
(5.1725 0.0163774 0)
(5.17413 0.0198056 0)
(5.17612 0.0239479 0)
(5.17848 0.0289555 0)
(5.18152 0.0349941 0)
(5.18476 0.0423354 0)
(5.18989 0.051043 0)
(5.19326 0.0620721 0)
(5.20433 0.0738529 0)
(5.20192 0.0923765 0)
(5.23491 0.103279 0)
(5.19934 0.144763 0)
(5.31238 0.128448 0)
(5.15366 0.253189 0)
(5.50399 0.11429 0)
(5.0338 0.486049 0)
(5.87734 0.0342877 0)
(4.8689 0.86311 0)
(6.43611 -0.0650495 0)
(4.71531 1.28992 0)
(7.15544 -0.101585 0)
(4.67231 1.73572 0)
(8.10824 0.0165096 0)
(4.6852 2.28889 0)
(9.39999 0.263651 0)
(4.81739 3.03146 0)
(10.8225 0.679807 0)
(5.40142 4.15865 0)
(11.4918 1.00348 0)
(7.07148 6.1937 0)
(10.6609 1.2579 0)
(9.49858 8.42892 0)
(11.5057 -1.28257 0)
(11.2625 -1.57322 0)
(10.8807 -1.79255 0)
(10.3622 -1.98305 0)
(9.81202 -2.09021 0)
(9.28855 -2.14936 0)
(8.77236 -2.1808 0)
(8.2542 -2.15234 0)
(7.76868 -2.02817 0)
(7.31326 -1.8169 0)
(6.86996 -1.5611 0)
(6.4954 -1.29963 0)
(6.20458 -1.07582 0)
(5.97627 -0.8972 0)
(5.80445 -0.74167 0)
(5.67454 -0.605566 0)
(5.57033 -0.495336 0)
(5.48657 -0.40803 0)
(5.42179 -0.33664 0)
(5.37215 -0.27719 0)
(5.33296 -0.227926 0)
(5.3011 -0.187376 0)
(5.27501 -0.154013 0)
(5.25377 -0.126495 0)
(5.23661 -0.103769 0)
(5.22281 -0.0850122 0)
(5.2117 -0.0695595 0)
(5.20276 -0.056855 0)
(5.19555 -0.0464293 0)
(5.18972 -0.0378863 0)
(5.185 -0.0308947 0)
(5.18119 -0.0251783 0)
(5.1781 -0.0205081 0)
(5.17559 -0.0166953 0)
(5.17356 -0.0135839 0)
(5.17191 -0.0110458 0)
(5.17058 -0.00897569 0)
(5.16949 -0.007287 0)
(5.16862 -0.00590908 0)
(5.1679 -0.00478409 0)
(5.16733 -0.00386422 0)
(5.16686 -0.00311054 0)
(5.16649 -0.00249134 0)
(5.16619 -0.00198031 0)
(5.16596 -0.00155549 0)
(5.16577 -0.0011988 0)
(5.16563 -0.000895203 0)
(5.16552 -0.000631954 0)
(5.16544 -0.000397937 0)
(5.1654 -0.000183442 0)
(5.16537 2.02436e-05 0)
(5.16538 0.00022123 0)
(5.1654 0.00042738 0)
(5.16545 0.000646657 0)
(5.16553 0.000887375 0)
(5.16563 0.00115857 0)
(5.16577 0.00147031 0)
(5.16595 0.00183405 0)
(5.16616 0.00226317 0)
(5.16643 0.00277339 0)
(5.16676 0.00338334 0)
(5.16717 0.0041152 0)
(5.16766 0.00499555 0)
(5.16826 0.00605632 0)
(5.16898 0.00733594 0)
(5.16986 0.00888061 0)
(5.17093 0.0107461 0)
(5.17222 0.0129993 0)
(5.17378 0.015722 0)
(5.17567 0.0190101 0)
(5.17799 0.0229854 0)
(5.18074 0.0277804 0)
(5.18425 0.033585 0)
(5.18804 0.0405715 0)
(5.1939 0.0490212 0)
(5.19793 0.0592845 0)
(5.2105 0.0711837 0)
(5.20777 0.0874084 0)
(5.24612 0.100628 0)
(5.20197 0.134447 0)
(5.33928 0.127604 0)
(5.13332 0.231205 0)
(5.57234 0.112918 0)
(4.95098 0.452504 0)
(5.99513 0.0110545 0)
(4.7483 0.835131 0)
(6.4761 -0.139894 0)
(4.65031 1.27036 0)
(6.9024 -0.242325 0)
(4.60957 1.73567 0)
(7.4251 -0.191549 0)
(4.57821 2.33668 0)
(8.07817 -0.0811409 0)
(4.83387 3.16426 0)
(8.75797 0.105923 0)
(5.80306 4.43155 0)
(9.24261 0.210569 0)
(7.71363 6.3926 0)
(10.0427 1.16529 0)
(9.92518 7.65195 0)
(11.3133 -1.07806 0)
(11.1183 -1.37507 0)
(10.8191 -1.65701 0)
(10.3471 -1.86503 0)
(9.8277 -2.00147 0)
(9.34892 -2.0838 0)
(8.86735 -2.10037 0)
(8.3454 -2.03939 0)
(7.79648 -1.88648 0)
(7.29041 -1.65543 0)
(6.84104 -1.41064 0)
(6.4712 -1.18386 0)
(6.21445 -0.98424 0)
(6.02466 -0.82424 0)
(5.86297 -0.690782 0)
(5.73131 -0.568669 0)
(5.62598 -0.462524 0)
(5.53598 -0.378627 0)
(5.45933 -0.313068 0)
(5.39802 -0.259346 0)
(5.35094 -0.21406 0)
(5.3147 -0.176033 0)
(5.28614 -0.144494 0)
(5.26321 -0.118524 0)
(5.24464 -0.0971728 0)
(5.22956 -0.0796132 0)
(5.21733 -0.0651697 0)
(5.20741 -0.053297 0)
(5.19937 -0.0435482 0)
(5.19285 -0.0355533 0)
(5.18757 -0.0290047 0)
(5.18329 -0.0236465 0)
(5.17981 -0.0192661 0)
(5.17699 -0.0156879 0)
(5.1747 -0.0127666 0)
(5.17285 -0.0103827 0)
(5.17134 -0.00843775 0)
(5.17011 -0.00685081 0)
(5.16912 -0.00555558 0)
(5.16832 -0.00449783 0)
(5.16767 -0.00363283 0)
(5.16714 -0.00292403 0)
(5.16672 -0.00234156 0)
(5.16638 -0.00186076 0)
(5.16611 -0.00146097 0)
(5.1659 -0.00112515 0)
(5.16574 -0.000839176 0)
(5.16562 -0.000591032 0)
(5.16553 -0.000370206 0)
(5.16548 -0.000167577 0)
(5.16546 2.51599e-05 0)
(5.16546 0.000215551 0)
(5.16549 0.000411088 0)
(5.16555 0.000619315 0)
(5.16563 0.000848097 0)
(5.16575 0.001106 0)
(5.16591 0.00140259 0)
(5.16611 0.00174875 0)
(5.16636 0.00215719 0)
(5.16666 0.0026429 0)
(5.16704 0.00322358 0)
(5.1675 0.00392036 0)
(5.16805 0.00475855 0)
(5.16873 0.0057685 0)
(5.16956 0.00698682 0)
(5.17055 0.00845739 0)
(5.17176 0.0102333 0)
(5.17323 0.0123779 0)
(5.17501 0.0149694 0)
(5.17715 0.0180972 0)
(5.17978 0.0218811 0)
(5.1829 0.0264341 0)
(5.18685 0.0319703 0)
(5.1912 0.0385556 0)
(5.19766 0.0467116 0)
(5.20254 0.0560973 0)
(5.21595 0.068204 0)
(5.21432 0.081598 0)
(5.25437 0.0982393 0)
(5.20958 0.121645 0)
(5.3539 0.130119 0)
(5.13369 0.202353 0)
(5.60114 0.121258 0)
(4.91895 0.408219 0)
(6.0405 -0.00891968 0)
(4.68985 0.817711 0)
(6.48426 -0.241784 0)
(4.66331 1.29348 0)
(6.81908 -0.41048 0)
(4.70678 1.76158 0)
(7.20758 -0.422876 0)
(4.84762 2.3861 0)
(7.47797 -0.457677 0)
(5.32795 3.28539 0)
(7.58408 -0.481681 0)
(6.32239 4.6656 0)
(7.84453 -0.428009 0)
(7.90974 6.35831 0)
(9.14379 0.997523 0)
(9.9322 6.77671 0)
(11.2304 -0.991555 0)
(11.0831 -1.26643 0)
(10.8401 -1.49528 0)
(10.4342 -1.63301 0)
(9.97855 -1.72433 0)
(9.47702 -1.783 0)
(8.93195 -1.78418 0)
(8.39861 -1.71575 0)
(7.86305 -1.58337 0)
(7.38561 -1.39218 0)
(7.00869 -1.19193 0)
(6.67787 -1.02559 0)
(6.40775 -0.873978 0)
(6.19848 -0.72835 0)
(6.00417 -0.605512 0)
(5.82886 -0.504271 0)
(5.6952 -0.41498 0)
(5.59528 -0.338636 0)
(5.51267 -0.277653 0)
(5.44178 -0.229754 0)
(5.38329 -0.191121 0)
(5.33723 -0.158937 0)
(5.30179 -0.131737 0)
(5.27448 -0.108783 0)
(5.25314 -0.0895496 0)
(5.23624 -0.0735432 0)
(5.2227 -0.0602897 0)
(5.21178 -0.0493547 0)
(5.20294 -0.0403561 0)
(5.19578 -0.0329657 0)
(5.18997 -0.0269056 0)
(5.18525 -0.0219429 0)
(5.18141 -0.0178832 0)
(5.1783 -0.0145651 0)
(5.17577 -0.011855 0)
(5.17372 -0.00964251 0)
(5.17205 -0.00783692 0)
(5.17069 -0.00636331 0)
(5.1696 -0.00516029 0)
(5.16871 -0.00417762 0)
(5.16798 -0.00337396 0)
(5.1674 -0.00271534 0)
(5.16693 -0.00217396 0)
(5.16656 -0.00172693 0)
(5.16626 -0.00135513 0)
(5.16603 -0.0010427 0)
(5.16585 -0.000776481 0)
(5.16571 -0.000545266 0)
(5.16562 -0.000339247 0)
(5.16556 -0.000149903 0)
(5.16553 3.05339e-05 0)
(5.16554 0.000209024 0)
(5.16557 0.000392658 0)
(5.16564 0.000588481 0)
(5.16573 0.000803853 0)
(5.16587 0.00104683 0)
(5.16604 0.00132639 0)
(5.16626 0.00165278 0)
(5.16654 0.00203798 0)
(5.16688 0.00249613 0)
(5.1673 0.00304392 0)
(5.16781 0.00370128 0)
(5.16843 0.00449208 0)
(5.16918 0.00544495 0)
(5.1701 0.00659441 0)
(5.17121 0.00798181 0)
(5.17256 0.00965716 0)
(5.17419 0.01168 0)
(5.17617 0.0141243 0)
(5.17855 0.0170729 0)
(5.18147 0.020642 0)
(5.18494 0.0249264 0)
(5.1893 0.0301581 0)
(5.1942 0.0363096 0)
(5.20116 0.0441081 0)
(5.20705 0.0525941 0)
(5.22065 0.0647813 0)
(5.22158 0.075357 0)
(5.25958 0.0953052 0)
(5.22255 0.108089 0)
(5.35648 0.132964 0)
(5.15704 0.171674 0)
(5.59515 0.13475 0)
(4.94917 0.358972 0)
(6.02067 -0.0176444 0)
(4.72107 0.802051 0)
(6.40025 -0.338555 0)
(4.76764 1.33595 0)
(6.62544 -0.574657 0)
(4.87107 1.8451 0)
(6.94086 -0.672833 0)
(5.11945 2.54205 0)
(7.13377 -0.845966 0)
(5.74339 3.47426 0)
(7.32479 -0.934807 0)
(6.76096 4.7646 0)
(7.6834 -0.642028 0)
(8.14285 6.0382 0)
(8.89032 0.989753 0)
(9.76183 5.78503 0)
(11.1626 -0.900934 0)
(10.9795 -1.11135 0)
(10.6405 -1.28868 0)
(10.2275 -1.41861 0)
(9.81814 -1.53387 0)
(9.33171 -1.62904 0)
(8.78642 -1.67175 0)
(8.26757 -1.61234 0)
(7.79004 -1.47103 0)
(7.36771 -1.30445 0)
(7.03904 -1.12219 0)
(6.72067 -0.947557 0)
(6.38537 -0.803481 0)
(6.11342 -0.669003 0)
(5.90536 -0.541315 0)
(5.72726 -0.439806 0)
(5.58947 -0.365407 0)
(5.49997 -0.306128 0)
(5.4434 -0.255072 0)
(5.40199 -0.211157 0)
(5.3665 -0.174543 0)
(5.33427 -0.144443 0)
(5.3054 -0.119553 0)
(5.28034 -0.0988032 0)
(5.25922 -0.0814636 0)
(5.24174 -0.0670072 0)
(5.22741 -0.0550019 0)
(5.21572 -0.0450703 0)
(5.2062 -0.0368805 0)
(5.19846 -0.030144 0)
(5.19217 -0.0246137 0)
(5.18705 -0.0200808 0)
(5.18289 -0.0163701 0)
(5.17951 -0.0133355 0)
(5.17676 -0.0108559 0)
(5.17452 -0.00883087 0)
(5.1727 -0.00717771 0)
(5.17123 -0.00582819 0)
(5.17003 -0.00472625 0)
(5.16906 -0.00382595 0)
(5.16828 -0.00308957 0)
(5.16764 -0.002486 0)
(5.16713 -0.00198973 0)
(5.16672 -0.00157983 0)
(5.1664 -0.0012388 0)
(5.16614 -0.000952093 0)
(5.16595 -0.0007076 0)
(5.1658 -0.000495005 0)
(5.1657 -0.000305283 0)
(5.16564 -0.000130548 0)
(5.16561 3.62636e-05 0)
(5.16561 0.000201668 0)
(5.16565 0.000372203 0)
(5.16572 0.000554345 0)
(5.16582 0.000754925 0)
(5.16597 0.000981426 0)
(5.16616 0.00124219 0)
(5.1664 0.00154674 0)
(5.16671 0.00190628 0)
(5.16708 0.002334 0)
(5.16754 0.00284547 0)
(5.1681 0.00345931 0)
(5.16878 0.00419781 0)
(5.16961 0.0050877 0)
(5.17061 0.0061612 0)
(5.17183 0.00745686 0)
(5.17331 0.00902135 0)
(5.17509 0.0109101 0)
(5.17725 0.0131921 0)
(5.17987 0.0159437 0)
(5.18305 0.0192757 0)
(5.18686 0.0232676 0)
(5.19159 0.0281582 0)
(5.19703 0.0338542 0)
(5.20438 0.0412113 0)
(5.21139 0.0488472 0)
(5.22469 0.0608137 0)
(5.22922 0.0690398 0)
(5.26228 0.0911158 0)
(5.23973 0.0952741 0)
(5.34875 0.133097 0)
(5.20099 0.143577 0)
(5.55701 0.145392 0)
(5.04377 0.312707 0)
(5.93359 -0.0260849 0)
(4.85453 0.7892 0)
(6.25403 -0.432375 0)
(4.9541 1.37241 0)
(6.43154 -0.707815 0)
(5.13336 1.90147 0)
(6.6758 -0.880757 0)
(5.46961 2.66232 0)
(6.83382 -1.146 0)
(6.11765 3.61283 0)
(7.09468 -1.15866 0)
(7.05894 4.7292 0)
(7.67222 -0.660014 0)
(8.20084 5.45781 0)
(9.06075 1.08923 0)
(9.65632 4.80016 0)
(11.0673 -0.78391 0)
(10.8336 -0.936385 0)
(10.5863 -1.12516 0)
(10.2723 -1.29211 0)
(9.85931 -1.38626 0)
(9.4227 -1.41954 0)
(8.93644 -1.41973 0)
(8.40948 -1.35999 0)
(7.95708 -1.22244 0)
(7.55696 -1.0653 0)
(7.17836 -0.919783 0)
(6.83524 -0.758718 0)
(6.49104 -0.60951 0)
(6.19642 -0.509435 0)
(6.01071 -0.437692 0)
(5.89018 -0.372094 0)
(5.78195 -0.313843 0)
(5.67075 -0.265385 0)
(5.56522 -0.224101 0)
(5.47699 -0.188057 0)
(5.40914 -0.156773 0)
(5.35833 -0.130077 0)
(5.31983 -0.107591 0)
(5.28995 -0.0887958 0)
(5.26626 -0.0731507 0)
(5.24723 -0.06016 0)
(5.23183 -0.0493961 0)
(5.21933 -0.0404968 0)
(5.20917 -0.0331555 0)
(5.20089 -0.0271124 0)
(5.19416 -0.0221473 0)
(5.18868 -0.0180745 0)
(5.18423 -0.0147383 0)
(5.1806 -0.0120085 0)
(5.17765 -0.00977695 0)
(5.17525 -0.00795388 0)
(5.1733 -0.00646511 0)
(5.17172 -0.00524953 0)
(5.17043 -0.00425676 0)
(5.16939 -0.00344547 0)
(5.16854 -0.0027818 0)
(5.16786 -0.00223777 0)
(5.16731 -0.00179032 0)
(5.16687 -0.00142063 0)
(5.16652 -0.0011129 0)
(5.16625 -0.000854045 0)
(5.16604 -0.000633096 0)
(5.16588 -0.000440695 0)
(5.16577 -0.000268626 0)
(5.1657 -0.000109768 0)
(5.16567 4.22652e-05 0)
(5.16568 0.000193489 0)
(5.16572 0.00034981 0)
(5.16579 0.000517076 0)
(5.16591 0.000701587 0)
(5.16607 0.00091017 0)
(5.16628 0.00115049 0)
(5.16654 0.00143127 0)
(5.16686 0.00176291 0)
(5.16727 0.00215751 0)
(5.16776 0.00262947 0)
(5.16837 0.00319597 0)
(5.16911 0.00387758 0)
(5.17 0.00469895 0)
(5.17109 0.00568988 0)
(5.1724 0.00688581 0)
(5.174 0.00832982 0)
(5.17593 0.0100728 0)
(5.17826 0.0121787 0)
(5.18109 0.0147168 0)
(5.18452 0.0177909 0)
(5.18864 0.0214685 0)
(5.1937 0.025983 0)
(5.19966 0.0312078 0)
(5.20733 0.0380335 0)
(5.21548 0.0449044 0)
(5.22822 0.0562636 0)
(5.23677 0.0628719 0)
(5.26345 0.0852224 0)
(5.25874 0.0843125 0)
(5.3343 0.12818 0)
(5.25739 0.121674 0)
(5.49365 0.146497 0)
(5.18408 0.275999 0)
(5.79076 -0.0381496 0)
(5.05872 0.775744 0)
(6.07631 -0.507865 0)
(5.15959 1.41051 0)
(6.24554 -0.807794 0)
(5.37831 1.95064 0)
(6.47622 -1.02969 0)
(5.73659 2.74806 0)
(6.70031 -1.29823 0)
(6.38643 3.61728 0)
(7.07252 -1.20112 0)
(7.23058 4.49978 0)
(7.8512 -0.539614 0)
(8.12986 4.70093 0)
(9.21195 1.15757 0)
(9.68703 3.97047 0)
(10.991 -0.672305 0)
(10.8197 -0.820793 0)
(10.6143 -0.98798 0)
(10.2344 -1.09187 0)
(9.78919 -1.16373 0)
(9.37642 -1.2269 0)
(8.93772 -1.22767 0)
(8.45037 -1.18014 0)
(7.99144 -1.09192 0)
(7.57853 -0.945207 0)
(7.12625 -0.790134 0)
(6.71504 -0.663113 0)
(6.43886 -0.554635 0)
(6.22533 -0.469193 0)
(6.00856 -0.403695 0)
(5.80675 -0.342845 0)
(5.65968 -0.283198 0)
(5.56471 -0.230446 0)
(5.49839 -0.188533 0)
(5.44493 -0.156551 0)
(5.39868 -0.131424 0)
(5.35848 -0.110544 0)