/*--------------------------------*- C++ -*----------------------------------*\
| =========                 |                                                 |
| \\      /  F ield         | OpenFOAM: The Open Source CFD Toolbox           |
|  \\    /   O peration     | Version:  2.4.0                                 |
|   \\  /    A nd           | Web:      www.OpenFOAM.org                      |
|    \\/     M anipulation  |                                                 |
\*---------------------------------------------------------------------------*/
FoamFile
{
    version     2.0;
    format      ascii;
    class       volScalarField;
    location    "0.181";
    object      nuSgs;
}
// * * * * * * * * * * * * * * * * * * * * * * * * * * * * * * * * * * * * * //

dimensions      [0 2 -1 0 0 0 0];

internalField   nonuniform List<scalar> 
4400
(
0.00205233
0.00193672
0.00169802
0.00152744
0.001435
0.00136267
0.00133493
0.00130108
0.00128517
0.00125123
0.00139563
0.00172814
0.00172673
0.00166598
0.00159203
0.00151489
0.00148427
0.00144344
0.00141899
0.001405
0.000719593
0.00117982
0.00136778
0.00141338
0.001408
0.00137245
0.00135313
0.00132182
0.00130168
0.00128179
0.000269109
0.000641531
0.000873003
0.00100775
0.00109167
0.00110959
0.00112391
0.00112257
0.00111635
0.00109957
8.73606e-05
0.000256515
0.00042933
0.000570314
0.000697178
0.000768345
0.000816629
0.000854828
0.000872607
0.000869921
2.55081e-05
8.61044e-05
0.000152121
0.000240409
0.00033011
0.000423627
0.00047307
0.000537695
0.000581672
0.000599559
7.82826e-06
2.56119e-05
4.40991e-05
7.3393e-05
0.000109896
0.000170557
0.000199957
0.000255131
0.000295156
0.000325223
4.22867e-06
9.97703e-06
1.30968e-05
1.89986e-05
2.81393e-05
4.88419e-05
5.92325e-05
8.59463e-05
0.000100847
0.000123621
3.83682e-06
8.09815e-06
8.59875e-06
9.17419e-06
1.05176e-05
1.47632e-05
1.62823e-05
2.20796e-05
2.46838e-05
3.14565e-05
3.80123e-06
8.31691e-06
8.71529e-06
8.61211e-06
8.82643e-06
9.88849e-06
1.0176e-05
1.06278e-05
1.09667e-05
1.15619e-05
3.81579e-06
7.60219e-06
8.77569e-06
9.60606e-06
9.89272e-06
9.82354e-06
9.73237e-06
9.81064e-06
1.03929e-05
1.5085e-05
3.84771e-06
7.95396e-06
1.01294e-05
1.04533e-05
1.10052e-05
1.21138e-05
1.48074e-05
1.92176e-05
2.68719e-05
5.22013e-05
4.20264e-06
1.10359e-05
1.44445e-05
1.93012e-05
2.81142e-05
4.36304e-05
5.96643e-05
8.36948e-05
0.000107178
0.000170716
7.77757e-06
2.63477e-05
4.57434e-05
7.08256e-05
0.000108469
0.00016543
0.000203184
0.000262482
0.000300557
0.000396217
2.54913e-05
8.76727e-05
0.000160173
0.000230504
0.00033172
0.000419233
0.00048083
0.000546614
0.000586116
0.000672348
8.73788e-05
0.000259833
0.000434611
0.000564568
0.000696326
0.000767518
0.000822323
0.000859999
0.000883241
0.000928633
0.000269027
0.000646888
0.000870332
0.00100697
0.00108998
0.00111122
0.00112705
0.00112548
0.00112756
0.00113604
0.000719078
0.00118287
0.00136445
0.00141438
0.00140676
0.00137352
0.00135332
0.00131884
0.00130849
0.00129249
0.00139545
0.0017295
0.00172442
0.00166795
0.0015875
0.00151594
0.00148103
0.00143113
0.00141396
0.00136635
0.00205218
0.00193788
0.00169453
0.00153027
0.00143013
0.00136128
0.00132693
0.00127774
0.00125547
0.00117089
0.000546984
0.000464816
0.000424906
0.000411565
0.000387876
0.000374326
0.000336694
0.000307215
0.000277394
0.000253713
0.000255115
0.000251104
0.000253248
0.000264899
0.000288503
0.000297657
0.000290688
0.000272965
0.00022555
0.000187444
0.000143124
0.000144494
0.000168739
0.000246405
0.000265903
0.000254796
0.000223256
0.00019602
0.000178353
0.000177666
0.000183626
0.00018104
0.000158207
0.000148004
0.00017348
0.000230698
0.000237451
0.000220699
0.000178369
0.000147517
0.00014782
0.000148433
0.000150617
0.000158024
0.000186591
0.000205581
0.000207522
0.000200763
0.00019619
0.000187277
0.000169894
0.000151869
0.000138885
0.000130373
0.000117849
0.00010668
9.91848e-05
8.98011e-05
7.94787e-05
7.39889e-05
7.44986e-05
8.5403e-05
0.000112682
0.000122459
0.000128093
0.000132807
0.00013239
0.000128552
0.000125472
0.000127845
0.000128271
0.000127876
0.00012526
0.000117367
0.000108526
0.000106949
0.000104006
0.000103607
0.000111141
0.000130561
0.000183256
0.000187386
0.000200373
0.000192878
0.000184083
0.000173148
0.000159434
0.000137079
0.000116686
0.000112853
0.000124399
0.000159333
0.000168031
0.000165435
0.000149766
0.000120329
0.000105879
0.000109673
0.000126667
0.000207136
0.000679156
0.000583282
0.000507317
0.000477798
0.000439722
0.00043118
0.000406828
0.000390941
0.000367221
0.000347391
0.000343887
0.000332376
0.000330353
0.000326693
0.000317
0.000308495
0.00028739
0.000244052
0.000188936
0.000148385
0.000122967
0.000112768
0.000114694
0.000164042
0.000234083
0.000238961
0.000233494
0.000217368
0.000198856
0.000194463
0.00019066
0.00017899
0.000141022
0.000144189
0.000197115
0.00023949
0.000237964
0.000203152
0.000161482
0.000144073
0.000147367
0.000147127
0.000148858
0.000151617
0.000159088
0.000187544
0.000200634
0.000199522
0.000195829
0.000187297
0.000174953
0.000158217
0.000141523
0.000131267
0.000117793
0.000105706
9.8254e-05
8.97757e-05
7.94988e-05
7.20391e-05
7.16712e-05
7.66688e-05
9.89909e-05
0.000114757
0.000121235
0.000128803
0.000128851
0.000127323
0.00012859
0.000131907
0.000130894
0.000129024
0.000123199
0.000113357
0.000107613
0.000105259
0.000102672
0.000103354
0.000111068
0.000132132
0.000195015
0.000201694
0.000223185
0.000214007
0.000204452
0.000190696
0.000165162
0.000137984
0.000116737
0.000111465
0.000119489
0.000155575
0.00016529
0.000162033
0.000146726
0.000130872
0.000110995
0.000109934
0.000127214
0.000183779
0.00064352
0.000586985
0.000520739
0.000486823
0.000448068
0.000437658
0.000415571
0.000407127
0.000388982
0.000371836
0.000364514
0.00035037
0.000344063
0.000329923
0.000318082
0.000289907
0.00024726
0.000192405
0.000132335
9.72738e-05
9.06645e-05
8.07615e-05
8.04797e-05
9.97297e-05
0.000162968
0.000209413
0.000217536
0.000214654
0.000205046
0.000198665
0.000189639
0.000154073
0.000126946
0.000145657
0.000220129
0.000244
0.00023267
0.00017983
0.000154931
0.000144924
0.000149861
0.000151006
0.000151926
0.000151478
0.000152492
0.000164479
0.000191305
0.000196899
0.000195193
0.000187511
0.000174541
0.000159593
0.000141964
0.000131757
0.000118445
0.00010593
9.79634e-05
8.95452e-05
7.92145e-05
7.0599e-05
6.94118e-05
7.15507e-05
8.55179e-05
0.000106712
0.000113546
0.000122622
0.00012366
0.000124315
0.000129445
0.000129838
0.000126709
0.000121226
0.000110162
0.000103447
0.000103162
0.000102465
0.000101286
0.000103183
0.000110918
0.00014148
0.000200807
0.000210594
0.000228863
0.00022873
0.000224767
0.000209007
0.000171511
0.000136819
0.000115762
0.000109945
0.000115326
0.000147253
0.00015809
0.000156634
0.000145325
0.000130337
0.000122481
0.000111707
0.000129636
0.000163961
0.000560964
0.000525893
0.000484665
0.000449332
0.000419534
0.000406458
0.000385829
0.000379073
0.000363353
0.00035127
0.000331064
0.000321662
0.000311307
0.00028668
0.000270108
0.000227501
0.000177139
0.000124688
8.71414e-05
6.92903e-05
6.42598e-05
6.1504e-05
6.09945e-05
6.82255e-05
8.95431e-05
0.000140185
0.000177135
0.000187637
0.000186894
0.000181599
0.000163437
0.000117178
0.000117826
0.000165241
0.000240003
0.000245936
0.000218707
0.000168311
0.000154014
0.000152255
0.000160099
0.00016398
0.000162395
0.000155313
0.000151927
0.000156392
0.000178774
0.000193974
0.000194258
0.00018863
0.000174301
0.000162446
0.000144324
0.000135943
0.000122463
0.000107525
9.71697e-05
8.84055e-05
7.90717e-05
7.01909e-05
6.8103e-05
6.8988e-05
7.57378e-05
9.73301e-05
0.000106333
0.00011492
0.000116568
0.000118927
0.000126885
0.000123152
0.00011226
0.000104884
0.000100538
9.87111e-05
9.87722e-05
9.89818e-05
0.000100077
0.000103696
0.00011232
0.000165746
0.000203649
0.000218861
0.000229486
0.000230497
0.000229332
0.000214944
0.000172771
0.000134749
0.000112747
0.000106391
0.000111173
0.00014103
0.000154214
0.000154173
0.000147068
0.000128664
0.000127215
0.000117373
0.000130296
0.000156297
0.000453111
0.000427953
0.00040656
0.00037457
0.000356816
0.000342816
0.000328273
0.000323178
0.000310154
0.000299314
0.000273043
0.000260335
0.000240329
0.000216243
0.000186934
0.000141827
0.000104791
7.4432e-05
5.82348e-05
5.29178e-05
5.30287e-05
5.41676e-05
5.55308e-05
5.69508e-05
6.08556e-05
7.70934e-05
0.000105318
0.000140449
0.000143248
0.000138196
0.000112603
9.46203e-05
0.000112261
0.000197507
0.000248542
0.000245122
0.000198355
0.00016424
0.000158463
0.000163406
0.000179104
0.000177151
0.000173875
0.000163228
0.00015388
0.000155141
0.00016695
0.000186827
0.000192312
0.000190116
0.000177973
0.000166739
0.000150308
0.000137887
0.000123113
0.000107708
9.6261e-05
8.75332e-05
7.91587e-05
7.02844e-05
6.79296e-05
6.81602e-05
7.09112e-05
8.62322e-05
0.000100442
0.000106989
0.000108779
0.000114446
0.000119327
0.000113924
0.000103639
9.98433e-05
9.78201e-05
9.73144e-05
9.74412e-05
9.80728e-05
0.000100061
0.000104478
0.000115637
0.000188845
0.000206208
0.00023548
0.0002293
0.000227803
0.000226856
0.00021168
0.000167533
0.00013173
0.000110167
0.00010444
0.000108331
0.0001378
0.000153462
0.000154162
0.000148982
0.000128834
0.000128039
0.000125786
0.000134425
0.000156663
0.000314003
0.00029824
0.000289698
0.00026555
0.000257829
0.000248296
0.00023904
0.000236468
0.000231282
0.000220701
0.00019717
0.000174184
0.000148691
0.000123511
9.97456e-05
7.73401e-05
5.83185e-05
4.64285e-05
4.51537e-05
4.73957e-05
5.1068e-05
5.32513e-05
5.58171e-05
5.25324e-05
5.11543e-05
5.38055e-05
6.30075e-05
9.088e-05
9.26574e-05
9.01753e-05
7.87388e-05
8.39747e-05
0.000130499
0.000229233
0.000252642
0.000236577
0.000184296
0.000163482
0.000166079
0.000175878
0.000187917
0.000179536
0.000177006
0.000168686
0.000161141
0.000155396
0.000162557
0.000176579
0.000187454
0.00018865
0.000180471
0.000168772
0.00015281
0.000137591
0.000122495
0.000107585
9.57294e-05
8.72079e-05
8.02455e-05
7.11377e-05
6.82437e-05
6.83087e-05
6.91156e-05
7.82859e-05
9.37908e-05
9.84208e-05
0.000103181
0.000109569
0.000111453
0.000107769
9.97076e-05
9.8683e-05
9.73737e-05
9.69647e-05
9.73649e-05
9.85466e-05
0.000102075
0.000108013
0.000123473
0.000199614
0.000213305
0.000239498
0.000223423
0.00021803
0.000215862
0.000198453
0.000158939
0.000128189
0.000106083
0.000101898
0.00010542
0.000130669
0.000150941
0.000154778
0.000149118
0.000128969
0.000125896
0.000126692
0.000135155
0.000155793
0.000170155
0.000163003
0.000160094
0.000149797
0.000147001
0.000143715
0.000137047
0.000135424
0.000132109
0.00012352
0.00010701
8.90088e-05
7.49273e-05
5.95203e-05
4.86724e-05
3.99932e-05
3.65935e-05
3.81927e-05
4.20528e-05
5.16716e-05
6.15774e-05
6.28924e-05
6.20032e-05
5.62883e-05
5.01494e-05
4.83086e-05
5.05917e-05
5.78826e-05
6.07965e-05
6.26635e-05
6.64181e-05
8.65791e-05
0.000174587
0.000246787
0.00025219
0.000217696
0.000177236
0.0001642
0.000170626
0.000183766
0.000190005
0.000179726
0.000177473
0.000169124
0.000171395
0.000158703
0.000158193
0.000165807
0.000177001
0.000184734
0.000180003
0.000168421
0.00015749
0.000138273
0.000122732
0.000108348
9.5944e-05
8.84749e-05
8.16202e-05
7.33179e-05
6.97242e-05
6.9111e-05
6.91123e-05
7.33392e-05
8.50582e-05
9.14136e-05
9.86524e-05
0.000104534
0.000105737
0.000103936
9.79591e-05
9.80858e-05
9.79026e-05
9.75657e-05
9.84673e-05
0.000100237
0.000103177
0.00011029
0.000132326
0.000202542
0.000216871
0.000229863
0.000212838
0.000203812
0.000210375
0.00018946
0.000148768
0.000119731
0.000102035
9.95027e-05
0.000104391
0.000129813
0.000142775
0.000150584
0.000145714
0.000128722
0.000123671
0.000126456
0.000134374
0.000147824
6.60694e-05
6.46277e-05
6.43559e-05
6.23869e-05
6.21577e-05
6.15379e-05
5.82114e-05
5.68453e-05
5.48231e-05
5.02991e-05
4.28441e-05
3.5563e-05
3.04581e-05
2.55323e-05
2.56261e-05
2.71524e-05
3.26739e-05
4.31424e-05
5.47911e-05
7.63762e-05
8.50935e-05
8.46318e-05
8.17186e-05
7.17441e-05
5.9419e-05
5.22991e-05
4.94427e-05
4.90572e-05
5.06067e-05
5.5044e-05
6.58898e-05
0.000111054
0.00021736
0.000254308
0.000247737
0.000199618
0.000173195
0.000163168
0.000173824
0.000187009
0.00019081
0.000183143
0.000175269
0.000168481
0.000174192
0.000166505
0.000158032
0.00015842
0.000164182
0.000174823
0.00017669
0.000167289
0.0001589
0.000140983
0.000126927
0.000113902
9.88175e-05
9.03942e-05
8.23467e-05
7.75252e-05
7.35058e-05
7.11887e-05
6.98083e-05
7.17462e-05
7.88683e-05
8.58514e-05
9.25077e-05
9.92788e-05
0.000101029
0.000100111
9.70812e-05
9.69129e-05
9.80243e-05
9.80734e-05
9.88595e-05
0.000100184
0.000103119
0.000110611
0.000137991
0.000202953
0.000221585
0.000203114
0.000210668
0.000202244
0.000210124
0.000187884
0.000145189
0.000114635
0.000101357
9.80303e-05
0.000104322
0.00013122
0.000140046
0.000142396
0.000139899
0.000127125
0.000124232
0.000126668
0.000129169
0.000137663
1.70754e-05
1.71761e-05
1.73088e-05
1.7274e-05
1.72299e-05
1.69023e-05
1.60355e-05
1.57514e-05
1.55839e-05
1.51115e-05
1.51423e-05
1.53511e-05
1.60741e-05
1.82467e-05
2.29287e-05
3.20362e-05
5.45096e-05
7.07967e-05
9.25021e-05
0.000116159
0.000118802
0.000116209
0.000109045
9.49097e-05
7.97375e-05
6.64364e-05
5.70466e-05
5.6175e-05
5.85475e-05
6.48387e-05
8.54203e-05
0.000161414
0.000247828
0.000256965
0.000233401
0.000187407
0.000167717
0.000161822
0.000178026
0.000190882
0.000195843
0.00019051
0.000173923
0.000168599
0.000174598
0.000177928
0.000168725
0.000159048
0.000159026
0.000162897
0.000166358
0.000161609
0.000156535
0.000140864
0.000127551
0.000114489
0.000100967
9.2438e-05
8.46079e-05
8.37749e-05
8.24497e-05
7.76994e-05
7.22987e-05
7.28409e-05
7.80409e-05
8.14235e-05
8.6257e-05
9.45609e-05
9.77301e-05
9.80378e-05
9.69626e-05
9.68726e-05
9.91385e-05
0.000100423
9.9944e-05
0.000100461
0.00010363
0.000111709
0.000140486
0.000209106
0.00022252
0.000200531
0.000223628
0.000209228
0.0002144
0.000193694
0.000145163
0.0001121
0.000103232
9.80611e-05
0.000105852
0.000136189
0.000142358
0.000142199
0.000139119
0.000127283
0.000124735
0.000125012
0.000125616
0.000134757
6.58682e-06
6.58077e-06
6.61762e-06
6.76433e-06
7.04944e-06
8.0366e-06
9.26366e-06
1.03719e-05
1.22659e-05
1.3838e-05
1.55567e-05
1.83909e-05
2.30231e-05
3.13186e-05
4.44745e-05
6.38513e-05
9.85356e-05
0.000116463
0.000143506
0.000160637
0.000159929
0.000154087
0.000139976
0.000121712
0.000106468
8.83219e-05
7.64865e-05
7.67069e-05
7.9604e-05
8.82209e-05
0.00011996
0.000217782
0.000261224
0.000255008
0.000211418
0.000177285
0.000159982
0.000164193
0.000182701
0.000199013
0.000208343
0.000204408
0.000177407
0.000170375
0.0001737
0.000182776
0.000186312
0.000166836
0.000159551
0.000159208
0.000160868
0.000154943
0.000147933
0.000137028
0.000125172
0.000112859
0.000101467
9.35364e-05
8.87103e-05
8.9854e-05
8.97148e-05
8.70481e-05
7.93481e-05
7.70082e-05
7.9504e-05
8.13415e-05
8.35193e-05
9.18213e-05
9.72208e-05
9.83523e-05
9.81977e-05
9.94243e-05
0.000104896
0.00010639
0.000104744
0.000104551
0.00010743
0.000116605
0.00014504
0.000217765
0.000213847
0.000212905
0.000247551
0.000228674
0.000226957
0.000203243
0.000158374
0.000111262
0.000107138
9.84266e-05
0.000106616
0.000146442
0.00015029
0.000146858
0.000142348
0.000129427
0.000125491
0.000124452
0.000126806
0.000140276
9.21969e-06
9.3915e-06
9.83667e-06
1.08729e-05
1.30005e-05
1.94485e-05
2.3426e-05
2.71963e-05
3.1538e-05
3.42692e-05
3.77899e-05
4.33589e-05
5.2188e-05
6.84452e-05
8.89339e-05
0.000121044
0.000151719
0.000175026
0.000201901
0.000209034
0.000205203
0.000194736
0.000177964
0.000154514
0.000136895
0.000116637
0.000106561
0.000106905
0.000109007
0.000120089
0.000170889
0.000260524
0.000267205
0.000238317
0.000190531
0.000164137
0.000157414
0.000171905
0.000185862
0.000215718
0.000232649
0.000231265
0.000189747
0.000173356
0.000171622
0.000184225
0.00019161
0.000183997
0.000166268
0.000161636
0.000162114
0.000154575
0.000146033
0.000135581
0.000124507
0.000112602
0.000103232
9.60925e-05
9.31134e-05
9.46698e-05
9.52096e-05
9.32543e-05
8.55191e-05
8.19966e-05
8.23415e-05
8.26261e-05
8.36745e-05
9.03622e-05
9.83468e-05
0.000101092
0.000102267
0.000105566
0.000115373
0.000115961
0.000113145
0.000113026
0.000116933
0.000126236
0.000158561
0.00022123
0.00020899
0.000232226
0.000257694
0.000241253
0.000257205
0.000203718
0.000204317
0.000110361
0.000108167
0.000100128
0.000107598
0.000147937
0.000150401
0.00014632
0.000142905
0.00013545
0.000128409
0.000126331
0.000128438
0.000142685
2.98347e-05
2.97786e-05
3.21108e-05
3.55095e-05
4.16122e-05
5.71763e-05
6.31126e-05
6.86393e-05
7.43142e-05
7.75599e-05
8.28105e-05
9.09122e-05
0.000105399
0.000127492
0.000158285
0.000189699
0.000215344
0.000240959
0.000259267
0.00025978
0.000253067
0.000241775
0.000220487
0.000195035
0.000173732
0.000150883
0.000142132
0.000141422
0.000143538
0.000160278
0.00023662
0.00027705
0.000263563
0.000203267
0.000168475
0.000155423
0.000160205
0.000178474
0.000196968
0.000242391
0.000266545
0.000269008
0.000216592
0.000178669
0.000172676
0.000181802
0.000193358
0.000193092
0.000185629
0.000175506
0.000173388
0.000161744
0.000152032
0.000139884
0.000130335
0.000118411
0.000109153
0.000102582
9.9448e-05
0.000102184
0.000103338
0.000100359
9.10305e-05
8.87989e-05
8.76646e-05
8.6018e-05
8.57633e-05
9.01264e-05
0.000100825
0.000105739
0.000108237
0.000115557
0.000126838
0.000125704
0.000123781
0.000125622
0.000134763
0.000141917
0.000170919
0.000218725
0.000211011
0.000229036
0.000266115
0.000244363
0.000267382
0.000207272
0.000266232
0.000120495
0.000106911
0.000105936
0.000111843
0.000140271
0.000147968
0.000144355
0.000141811
0.000136218
0.00013224
0.000129482
0.000128657
0.000138172
9.43454e-05
9.43241e-05
9.83319e-05
0.00010297
0.00011308
0.000131115
0.00013575
0.000140354
0.000144712
0.00014758
0.000152782
0.000162385
0.000182721
0.00020773
0.000235357
0.000259791
0.000282612
0.000302399
0.000308872
0.000305897
0.000296706
0.000280547
0.000254389
0.000233191
0.000210954
0.000190279
0.000183585
0.000182242
0.00018601
0.000215897
0.000280017
0.000281895
0.000229914
0.000170972
0.000153194
0.000150197
0.000167511
0.000192433
0.000219757
0.000266874
0.000306888
0.000317228
0.000271458
0.000195206
0.000177719
0.00018017
0.000196812
0.000199717
0.00019847
0.000191636
0.000191361
0.000185832
0.000177783
0.000161542
0.000156641
0.000136003
0.00012835
0.000120774
0.000112862
0.00011675
0.000116889
0.000113382
0.000100557
9.67119e-05
9.25899e-05
9.0193e-05
8.94728e-05
9.24202e-05
0.000103967
0.000110007
0.000114416
0.000129129
0.000139051
0.000136917
0.000137263
0.00014663
0.000155677
0.000156836
0.000177728
0.000212327
0.000212424
0.000225115
0.000281667
0.000237037
0.000262867
0.000292587
0.000279489
0.000139852
0.000119956
0.000135348
0.000130555
0.000137358
0.000147833
0.000144779
0.000141227
0.000135984
0.000133235
0.000130716
0.00012661
0.000131964
0.000214905
0.000211095
0.000212309
0.000213207
0.000218438
0.000228249
0.00022831
0.000228535
0.000229159
0.000230376
0.000234104
0.000245005
0.000265663
0.000284668
0.000303033
0.000321725
0.000336929
0.000341877
0.000338739
0.000328624
0.000316621
0.000298184
0.000280751
0.000266442
0.000243776
0.000227124
0.000221933
0.000221656
0.00022967
0.000272436
0.000291852
0.000266918
0.000181616
0.000146706
0.000141216
0.000148738
0.000180558
0.000216873
0.000246875
0.000287149
0.000342638
0.000377657
0.000350503
0.000237042
0.000186587
0.000177817
0.000192841
0.000205049
0.000206372
0.000198569
0.000197338
0.000197067
0.000197306
0.00018484
0.000175388
0.000154228
0.000150447
0.00013227
0.000131005
0.00013349
0.000131955
0.000122695
0.000106847
0.00010473
0.000101103
9.55675e-05
9.51989e-05
9.84564e-05
0.000110094
0.000116316
0.000124113
0.000147163
0.000150227
0.000148209
0.000154902
0.000177276
0.000176995
0.000170152
0.000181951
0.000204219
0.000204983
0.000238367
0.000284419
0.000213567
0.000256545
0.000336102
0.000276079
0.000142974
0.000145039
0.000159664
0.000155539
0.000140054
0.000150158
0.000146893
0.00014382
0.000138477
0.000133683
0.000130037
0.000126218
0.000128497
0.000358583
0.000345335
0.000340153
0.000329163
0.000326928
0.000324651
0.000316323
0.000305589
0.000302336
0.000302631
0.000305963
0.000318578
0.000329107
0.000338812
0.00035051
0.000358335
0.000359725
0.000356499
0.00034716
0.000333893
0.000321268
0.000307258
0.000295544
0.000280197
0.000262571
0.000255271
0.000254273
0.000257071
0.000278039
0.00029565
0.000285881
0.00021556
0.000145927
0.000130717
0.000132577
0.000152009
0.000194142
0.000231023
0.000266164
0.000295416
0.000348161
0.000412589
0.000438773
0.000328331
0.000222344
0.000184199
0.000181511
0.000200716
0.000207575
0.000206705
0.000204182
0.000207893
0.000210633
0.000203418
0.00019558
0.000174061
0.000166167
0.000149419
0.00015324
0.000149224
0.000140832
0.00012785
0.000116776
0.000116294
0.00011477
0.000107342
0.000106719
0.000112804
0.00012098
0.000127892
0.000145984
0.000160662
0.000158625
0.000161755
0.000189922
0.000213969
0.000202362
0.000183411
0.000184037
0.000193386
0.000199083
0.000250954
0.000283784
0.000214315
0.000230135
0.000242357
0.000267307
0.000155312
0.00017284
0.000157337
0.000178691
0.000150204
0.000163538
0.000153835
0.000151177
0.000146898
0.000137688
0.000131643
0.000126858
0.000126942
0.000487064
0.000463307
0.000441202
0.000417314
0.00040472
0.000388339
0.000370424
0.000360535
0.000357176
0.000357344
0.000359221
0.000363171
0.000365845
0.000369884
0.000371327
0.000370261
0.000366664
0.000357462
0.000344574
0.000331667
0.00031955
0.000309827
0.000299604
0.000288563
0.000283961
0.000284837
0.000289739
0.000294538
0.00029587
0.000288742
0.000240893
0.000159078
0.000125781
0.000123733
0.00012979
0.000153071
0.000194592
0.000229121
0.000267861
0.000295321
0.000335955
0.000417568
0.000487095
0.000471794
0.000320606
0.00021949
0.000186828
0.000186495
0.000206601
0.000213407
0.000216534
0.00021825
0.000214184
0.000214139
0.000214011
0.000181761
0.000185187
0.000171985
0.000164101
0.000155952
0.000141822
0.000128174
0.000124326
0.000125533
0.000123704
0.000119886
0.000121309
0.000129915
0.000135803
0.000149182
0.00016972
0.00017754
0.000186761
0.000208027
0.000252731
0.000245899
0.000213414
0.000184961
0.000181655
0.000182234
0.000192363
0.000254223
0.000295094
0.000216802
0.000230403
0.000229797
0.000230455
0.000225818
0.000308422
0.000155514
0.000207986
0.000161794
0.000169364
0.000159744
0.000159211
0.000159647
0.000152393
0.000139882
0.000132146
0.000129379
0.000584967
0.00054274
0.000497996
0.000465799
0.000443477
0.000421757
0.000406553
0.000398004
0.000392546
0.000388159
0.000386481
0.000384549
0.000381427
0.000379765
0.000375826
0.000367934
0.000353752
0.000337015
0.000325677
0.00031711
0.000311205
0.00030835
0.000304742
0.000302361
0.000303353
0.000303855
0.000301504
0.00029397
0.000277646
0.000235455
0.000173896
0.000137634
0.000128007
0.000127617
0.000132695
0.000152737
0.000183704
0.000200474
0.000234082
0.000272661
0.000304832
0.000371676
0.000500585
0.00055328
0.000505793
0.000336611
0.000231791
0.000191718
0.000187422
0.000205456
0.000214225
0.000217502
0.000215773
0.000213341
0.000208749
0.00018311
0.000194952
0.000183832
0.000174712
0.000158861
0.000140806
0.000131735
0.000131207
0.000133249
0.000131581
0.000132076
0.00014
0.000148416
0.000163313
0.000191591
0.000219444
0.000237628
0.000275528
0.00028549
0.000280994
0.000240094
0.000198681
0.000174763
0.000170964
0.000172693
0.000191209
0.000262229
0.000297933
0.000214748
0.000246343
0.000250861
0.000234929
0.000258053
0.000258203
0.000162343
0.000207441
0.00018247
0.000184069
0.000177043
0.000174234
0.000169821
0.000159145
0.000151705
0.000149099
0.000143661
0.000641713
0.000571132
0.000515507
0.000482229
0.00045706
0.000437452
0.000425549
0.000416468
0.000408432
0.000402061
0.000396516
0.000389566
0.00038077
0.000367372
0.000349009
0.000327066
0.000307286
0.000295691
0.000291006
0.000290548
0.000292544
0.000294981
0.000295385
0.000294649
0.000292426
0.000282984
0.000260761
0.000231218
0.00019769
0.000169676
0.000153828
0.000149161
0.000149773
0.000144354
0.000145131
0.000155811
0.000172221
0.000179458
0.000185186
0.000198214
0.000228467
0.000274048
0.00041076
0.000574342
0.000609644
0.000581301
0.000415585
0.000288255
0.000220813
0.00019351
0.000190837
0.000200908
0.000211724
0.000213477
0.000205033
0.000185973
0.000192894
0.000188838
0.000179672
0.00015557
0.00014267
0.000139116
0.000141959
0.000149434
0.000152077
0.00015957
0.000175597
0.000221047
0.00026065
0.000304612
0.000346759
0.000356713
0.000346187
0.0003136
0.000254722
0.000199776
0.000184387
0.000172029
0.00016941
0.000176868
0.000218688
0.00027476
0.000300701
0.000235578
0.000278771
0.000295998
0.000246145
0.000248434
0.000217336
0.000185449
0.000208147
0.000232392
0.000227001
0.000204586
0.000192352
0.000181213
0.000180703
0.000183558
0.000203164
0.00020625
0.000641329
0.000556859
0.000507366
0.000479367
0.000458101
0.000443826
0.000433687
0.000422571
0.000410916
0.000397073
0.000379785
0.000358437
0.000332735
0.000304233
0.000275625
0.000251406
0.000235842
0.0002296
0.000229075
0.000231062
0.000233769
0.000236068
0.000236814
0.000231424
0.000217505
0.00019422
0.000174556
0.000165047
0.000164245
0.000168196
0.000176857
0.000190308
0.000193508
0.000185233
0.000184714
0.000195493
0.000230405
0.000254851
0.000246098
0.000214337
0.000209481
0.000213557
0.000252634
0.000411974
0.000616079
0.00067762
0.000682933
0.000635779
0.000519088
0.000401815
0.000313207
0.000276696
0.000259574
0.000245589
0.00022196
0.000194674
0.000189591
0.000196667
0.00017687
0.000165363
0.000166897
0.000174354
0.000193111
0.000230284
0.000253965
0.000290961
0.000369878
0.000454444
0.000474246
0.000472741
0.000440095
0.000403613
0.000324515
0.000283959
0.00023206
0.000238213
0.000223853
0.000225733
0.000225383
0.00027913
0.000312073
0.000294621
0.000304933
0.000280137
0.000302039
0.000376784
0.000308912
0.000247897
0.000279833
0.000261327
0.000230661
0.000244236
0.000244565
0.000245551
0.000251138
0.00026853
0.000303022
0.000370405
0.00045007
0.000472124
0.000514322
0.000463749
0.000438517
0.000421888
0.000406474
0.000390646
0.000372671
0.000351282
0.00032581
0.000296346
0.000262809
0.000224547
0.000184164
0.000146473
0.000121798
0.000116003
0.000128468
0.000152304
0.000176198
0.000190461
0.000195918
0.000189696
0.000175277
0.000158192
0.00014597
0.000140626
0.000149194
0.000171158
0.00021023
0.000269419
0.000349867
0.000391715
0.000409222
0.000410893
0.000438978
0.000533349
0.000589612
0.000581999
0.000535563
0.000491192
0.000458245
0.000409685
0.000332959
0.000257993
0.000226007
0.00038256
0.0007
0.000870203
0.00093471
0.000942889
0.000881048
0.000784381
0.000715787
0.000634571
0.00049362
0.000336573
0.000293135
0.000191687
0.000175579
0.000188504
0.000224447
0.000289883
0.000370776
0.000466093
0.00054158
0.000617616
0.000644555
0.000642158
0.000589899
0.000522723
0.000403842
0.000349908
0.000266121
0.000277613
0.000222469
0.000292178
0.000263397
0.000347882
0.000403393
0.000488189
0.000437666
0.000329261
0.000283229
0.000285617
0.000300023
0.000454735
0.000523815
0.000334313
0.000427769
0.000336462
0.000241111
0.000235631
0.000295753
0.000409283
0.000492932
0.000648672
0.000739972
0.000883015
0.000902136
0.000949686
7.74085e-05
9.06713e-05
0.000121617
0.000212451
0.00018895
0.000139992
0.000184298
0.000210815
0.000180345
0.000168918
0.000173701
0.00015442
0.0001763
0.000238859
0.000258526
0.00036428
0.000359573
0.000196349
0.000179292
0.000188958
0.000216481
0.000269348
0.000341848
0.00040099
0.000420277
0.000415518
0.000354864
0.000329718
0.000535074
0.000666941
0.000712142
0.000700329
0.000632837
0.000524599
0.000385231
0.00030903
0.000215207
0.000203304
0.00022287
0.000254901
0.000317612
0.000399301
0.000477167
0.000533132
0.000544729
0.000531008
0.000487634
0.000420686
0.000347871
0.000273105
0.000206419
0.000156665
0.000127909
0.000118251
0.00011665
0.00011588
0.000113693
0.000110706
0.000108486
0.00011423
0.000135089
0.000177968
0.000233342
0.000249416
0.0002326
0.000194496
0.000175548
0.000190813
0.000223426
0.000266008
0.000305751
0.000319014
0.000279581
0.000259584
0.000229156
0.000209888
0.000198646
0.000203739
0.000227374
0.000268793
0.000322979
0.00039325
0.000447669
0.000474067
0.000462759
0.000414054
0.000360057
0.000326051
0.000313158
0.000315391
0.000325471
0.000335566
0.000341069
0.000334337
0.000291307
0.000215901
0.000142745
9.46765e-05
6.92902e-05
4.56487e-05
9.89691e-05
0.00010231
0.000113089
0.000136144
0.000190224
0.000171057
0.000146086
0.000138038
0.000120371
0.000141087
0.000160108
0.000169137
0.000198131
0.000226747
0.000206756
0.000237754
0.000322944
0.00032738
0.000313895
0.000272208
0.000253645
0.00023536
0.000233763
0.00025776
0.000262695
0.000279052
0.000425298
0.000534172
0.000525547
0.000459365
0.000384363
0.000313361
0.000277326
0.000266317
0.000268318
0.000276247
0.000281175
0.000293133
0.000292795
0.000290349
0.00028121
0.000278202
0.00028046
0.000289002
0.000307193
0.000336704
0.000356092
0.000362844
0.000351771
0.000335744
0.000324871
0.000306183
0.000264579
0.000223503
0.000194271
0.000170878
0.000148383
0.000130838
0.00011561
0.000107429
0.000107945
0.000113357
0.000128449
0.000163495
0.000190692
0.000191124
0.000182116
0.000176441
0.000174425
0.000180089
0.000176365
0.000170042
0.000154219
0.000158228
0.000158924
0.000163499
0.000170258
0.0001754
0.000180724
0.000191237
0.000205192
0.000229765
0.000269848
0.000321822
0.000345988
0.000342351
0.000304774
0.000254436
0.000222728
0.000206972
0.00020077
0.000194076
0.000186869
0.000182423
0.000176557
0.000152603
0.000105403
7.43988e-05
6.00401e-05
5.17756e-05
0.000105517
0.000109105
0.000111965
0.000110347
0.000173657
0.000180896
0.000119467
0.000108189
0.000120991
0.000152045
0.000177212
0.000199936
0.000206345
0.000263988
0.000198144
0.000269164
0.000261049
0.000274474
0.000268958
0.000256419
0.000226633
0.000196635
0.00018773
0.000187609
0.000201356
0.00033375
0.000501774
0.000488887
0.000356504
0.000278663
0.000254009
0.000246815
0.00025474
0.000262719
0.00026979
0.000287154
0.000287771
0.000308442
0.000305302
0.000305266
0.000301538
0.000295951
0.000291593
0.00028217
0.000262658
0.000254563
0.000255657
0.000261552
0.000281494
0.000290159
0.000300075
0.000298133
0.000291388
0.000275901
0.000239584
0.000204076