/*--------------------------------*- C++ -*----------------------------------*\
| =========                 |                                                 |
| \\      /  F ield         | OpenFOAM: The Open Source CFD Toolbox           |
|  \\    /   O peration     | Version:  2.4.0                                 |
|   \\  /    A nd           | Web:      www.OpenFOAM.org                      |
|    \\/     M anipulation  |                                                 |
\*---------------------------------------------------------------------------*/
FoamFile
{
    version     2.0;
    format      ascii;
    class       volVectorField;
    location    "0.181";
    object      U;
}
// * * * * * * * * * * * * * * * * * * * * * * * * * * * * * * * * * * * * * //

dimensions      [0 1 -1 0 0 0 0];

internalField   nonuniform List<vector> 
4400
(
(5.40507 0.316741 0)
(3.31496 0.0607662 0)
(2.58613 0.00139108 0)
(2.23071 -0.00200245 0)
(2.08707 -0.00166263 0)
(1.9952 -0.000716889 0)
(1.95958 -0.00015709 0)
(1.91862 -0.000401111 0)
(1.91663 0.000299534 0)
(1.73941 -0.0595297 0)
(8.68847 0.857235 0)
(7.53732 0.34455 0)
(6.63731 0.116339 0)
(5.90269 0.0550676 0)
(5.53706 0.0262018 0)
(5.26265 0.0153613 0)
(5.15871 0.0097962 0)
(5.03758 0.0056676 0)
(5.00504 0.0108653 0)
(4.79263 -0.0778055 0)
(9.89683 0.937127 0)
(9.98354 0.476885 0)
(9.50721 0.213499 0)
(8.7374 0.129521 0)
(8.29897 0.0742526 0)
(7.89396 0.0455739 0)
(7.7521 0.0277018 0)
(7.56607 0.0186169 0)
(7.51375 0.0179872 0)
(7.21521 -0.0827531 0)
(10.1321 0.807232 0)
(11.101 0.497185 0)
(11.2947 0.266558 0)
(10.8028 0.196225 0)
(10.4905 0.12949 0)
(10.0542 0.0851669 0)
(9.92741 0.051684 0)
(9.71206 0.0370332 0)
(9.65375 0.0328505 0)
(9.2659 -0.10388 0)
(10.0663 0.647588 0)
(11.2986 0.434847 0)
(12.0154 0.247506 0)
(11.9317 0.216156 0)
(11.9318 0.163673 0)
(11.6159 0.120754 0)
(11.5813 0.0733343 0)
(11.4147 0.0578312 0)
(11.3608 0.0527327 0)
(10.9832 -0.120202 0)
(10.0448 0.517039 0)
(11.1936 0.357083 0)
(12.0768 0.188513 0)
(12.219 0.183688 0)
(12.5225 0.154524 0)
(12.425 0.13036 0)
(12.5565 0.0783914 0)
(12.539 0.0684251 0)
(12.5144 0.0719961 0)
(12.2987 -0.118713 0)
(10.0676 0.400939 0)
(11.145 0.287449 0)
(11.9781 0.134271 0)
(12.1787 0.136329 0)
(12.5632 0.116011 0)
(12.6175 0.115238 0)
(12.8684 0.0552651 0)
(12.9857 0.0674368 0)
(13.0308 0.0587776 0)
(13.1224 -0.0851053 0)
(10.0544 0.276629 0)
(11.1411 0.221402 0)
(11.8769 0.0922082 0)
(12.1616 0.0969616 0)
(12.4883 0.0681016 0)
(12.6086 0.0926718 0)
(12.8674 0.0219407 0)
(12.9768 0.0587258 0)
(13.1782 0.0187031 0)
(13.4243 -0.10315 0)
(10.0011 0.168122 0)
(11.1064 0.136367 0)
(11.8681 0.0583968 0)
(12.2396 0.0488104 0)
(12.3984 0.0358033 0)
(12.5844 0.0595123 0)
(12.8092 0.00649652 0)
(12.9569 0.0231035 0)
(13.2342 -0.0124013 0)
(13.2265 -0.141831 0)
(9.97994 0.0563905 0)
(11.0946 0.049946 0)
(11.9084 0.0106888 0)
(12.2101 0.0212478 0)
(12.3472 0.000448169 0)
(12.6017 0.0308776 0)
(12.7977 -0.0256027 0)
(12.9763 -0.002193 0)
(13.1172 -0.0305493 0)
(13.0898 -0.148722 0)
(9.98769 -0.0498735 0)
(11.1145 -0.0454013 0)
(11.8606 -0.0184718 0)
(12.1886 -0.0140661 0)
(12.3969 -0.0380312 0)
(12.6214 -0.00903361 0)
(12.7983 -0.0424197 0)
(12.9277 -0.0226499 0)
(13.0726 -0.0515689 0)
(13.2368 -0.200943 0)
(10.0043 -0.163143 0)
(11.1073 -0.126648 0)
(11.8664 -0.0579679 0)
(12.2486 -0.0570586 0)
(12.4339 -0.07444 0)
(12.5978 -0.0359024 0)
(12.7897 -0.0611118 0)
(12.9222 -0.0467592 0)
(13.1372 -0.0869137 0)
(13.3014 -0.231989 0)
(10.0204 -0.271859 0)
(11.135 -0.214917 0)
(11.9468 -0.101901 0)
(12.2506 -0.0948065 0)
(12.4415 -0.10328 0)
(12.5998 -0.0682215 0)
(12.8318 -0.0829032 0)
(12.9447 -0.0730397 0)
(13.1745 -0.116967 0)
(13.2027 -0.235141 0)
(10.0347 -0.39099 0)
(11.183 -0.29261 0)
(12.0111 -0.144051 0)
(12.2334 -0.1312 0)
(12.505 -0.1384 0)
(12.6104 -0.0998998 0)
(12.8434 -0.104416 0)
(12.8702 -0.0956499 0)
(13.0767 -0.136034 0)
(12.8802 -0.236203 0)
(10.0259 -0.512309 0)
(11.2635 -0.362708 0)
(12.0483 -0.194418 0)
(12.2509 -0.175931 0)
(12.4572 -0.170899 0)
(12.4247 -0.12332 0)
(12.5363 -0.114907 0)
(12.406 -0.106162 0)
(12.4882 -0.131716 0)
(12.0545 -0.218982 0)
(10.0567 -0.644814 0)
(11.3424 -0.438612 0)
(11.9676 -0.250357 0)
(11.9665 -0.210024 0)
(11.8763 -0.176876 0)
(11.6257 -0.117589 0)
(11.5483 -0.103118 0)
(11.2852 -0.0887446 0)
(11.2472 -0.114037 0)
(10.7358 -0.167038 0)
(10.1272 -0.805993 0)
(11.1257 -0.499405 0)
(11.2555 -0.268553 0)
(10.8338 -0.192258 0)
(10.4453 -0.138647 0)
(10.0593 -0.0847326 0)
(9.88648 -0.0722835 0)
(9.57995 -0.0622867 0)
(9.50273 -0.0854786 0)
(8.98118 -0.117569 0)
(9.89411 -0.936623 0)
(9.99744 -0.477873 0)
(9.47846 -0.214727 0)
(8.76043 -0.127026 0)
(8.26583 -0.0800967 0)
(7.89066 -0.0460556 0)
(7.71094 -0.040333 0)
(7.43411 -0.0371234 0)
(7.35919 -0.0528869 0)
(6.8387 -0.0792653 0)
(8.68711 -0.857138 0)
(7.54437 -0.344807 0)
(6.61983 -0.117087 0)
(5.91604 -0.0538203 0)
(5.51589 -0.0290512 0)
(5.25371 -0.0160602 0)
(5.1213 -0.0156133 0)
(4.92326 -0.0165243 0)
(4.85648 -0.0239685 0)
(4.41778 -0.0369073 0)
(5.40448 -0.316776 0)
(3.31713 -0.0606833 0)
(2.58025 -0.00162671 0)
(2.23418 0.00232633 0)
(2.07858 0.00114652 0)
(1.98673 0.000637217 0)
(1.93613 -0.000434467 0)
(1.85469 -0.00150395 0)
(1.81276 -0.00126465 0)
(1.6015 0.00571235 0)
(2.636 0.0453826 0)
(2.90483 -0.12664 0)
(3.5085 -0.365617 0)
(3.3372 -0.469959 0)
(3.70647 -0.324952 0)
(3.03463 0.159029 0)
(3.95139 0.26503 0)
(3.89876 0.385194 0)
(4.8162 0.341908 0)
(5.18034 0.352806 0)
(5.88033 0.0582991 0)
(6.27246 0.0354284 0)
(6.74282 -0.149195 0)
(7.80823 -0.602231 0)
(8.39875 -1.01008 0)
(9.20457 -1.80686 0)
(10.3691 -2.7376 0)
(10.3114 -3.62985 0)
(10.413 -4.04995 0)
(10.3297 -4.35248 0)
(8.77855 -3.23343 0)
(8.34457 -1.50099 0)
(8.75004 -0.661967 0)
(8.0325 0.814167 0)
(9.19716 1.83517 0)
(10.2016 1.69924 0)
(10.0208 1.2318 0)
(10.6678 0.272572 0)
(10.4538 -0.305198 0)
(10.6972 -0.98253 0)
(11.5326 -2.4554 0)
(11.7891 -4.22323 0)
(11.6266 -5.91817 0)
(11.1264 -7.13226 0)
(10.2222 -7.50393 0)
(8.74788 -6.99425 0)
(7.30796 -6.12435 0)
(5.86043 -5.58341 0)
(5.32675 -5.08284 0)
(4.11016 -5.12486 0)
(5.15826 -4.90578 0)
(3.74974 -4.67515 0)
(5.057 -4.24299 0)
(4.97739 -3.43416 0)
(5.3737 -2.43439 0)
(6.1769 -1.29192 0)
(7.36406 0.0929673 0)
(8.25094 1.58239 0)
(8.60505 3.10879 0)
(9.75023 4.78923 0)
(9.9546 5.75671 0)
(10.0832 5.91293 0)
(9.82567 5.95939 0)
(9.8843 5.34753 0)
(9.2685 4.76546 0)
(9.25451 4.33187 0)
(8.82275 4.05316 0)
(8.53806 3.73629 0)
(8.21367 3.23919 0)
(8.02201 3.13837 0)
(8.15399 3.63279 0)
(8.61236 4.15321 0)
(7.63222 3.48972 0)
(7.46917 3.14561 0)
(6.5728 2.58642 0)
(7.91061 3.16418 0)
(7.72368 2.62159 0)
(8.96643 2.67291 0)
(8.36294 1.38234 0)
(9.13243 -0.161316 0)
(8.71241 -1.34255 0)
(9.80603 -1.10226 0)
(8.78385 -2.97609 0)
(10.4661 -2.30547 0)
(8.81606 -2.9038 0)
(10.4064 -2.12093 0)
(7.68734 -3.81173 0)
(9.64819 -3.27228 0)
(7.17726 -3.89977 0)
(7.7888 -3.75806 0)
(7.20064 -5.98668 0)
(7.89155 -5.30638 0)
(7.14173 -6.33284 0)
(8.80621 -4.17082 0)
(8.26731 -3.82484 0)
(8.04611 -3.16846 0)
(8.20377 -1.41863 0)
(8.34474 0.690494 0)
(8.47598 2.97438 0)
(8.69921 5.6624 0)
(8.73691 7.45062 0)
(7.89272 7.32633 0)
(6.92605 6.2944 0)
(6.84144 5.52573 0)
(6.17761 4.71896 0)
(5.11604 3.99814 0)
(5.3878 4.47569 0)
(4.94195 5.65334 0)
(5.01949 6.44885 0)
(3.26824 8.9077 0)
(5.27655 -0.00539042 0)
(5.23094 -0.194161 0)
(5.64244 -0.349638 0)
(5.60863 -0.468757 0)
(5.82063 -0.323247 0)
(5.45773 0.0921816 0)
(5.95307 0.158945 0)
(5.86847 0.247382 0)
(6.55035 0.160861 0)
(6.81225 0.150555 0)
(7.45339 -0.186759 0)
(7.84466 -0.194643 0)
(8.46475 -0.395449 0)
(9.32278 -0.926375 0)
(9.78078 -1.28845 0)
(11.001 -2.25433 0)
(11.6397 -2.96436 0)
(11.5506 -3.5421 0)
(11.6869 -4.05299 0)
(11.3386 -3.89324 0)
(9.51994 -2.89607 0)
(9.45685 -1.59493 0)
(9.69246 -0.565953 0)
(8.80919 0.767753 0)
(9.97092 1.46586 0)
(10.5891 1.53496 0)
(10.582 1.13393 0)
(11.3328 0.226498 0)
(11.0221 -0.285673 0)
(11.3457 -1.16593 0)
(11.8871 -2.62453 0)
(11.9018 -4.23144 0)
(11.5903 -5.76366 0)
(10.8926 -6.80056 0)
(9.73504 -6.95255 0)
(8.01655 -6.34733 0)
(6.47549 -5.5396 0)
(5.11582 -5.08603 0)
(4.52486 -4.79985 0)
(3.7644 -5.03057 0)
(4.38566 -4.77638 0)
(3.21367 -4.73273 0)
(4.8736 -4.35459 0)
(4.28133 -3.44183 0)
(4.51249 -2.64768 0)
(5.1215 -1.66321 0)
(6.19136 -0.324347 0)
(7.02113 1.23496 0)
(7.30346 2.80146 0)
(8.4751 4.56635 0)
(8.56718 5.59434 0)
(8.87514 5.87756 0)
(9.00918 5.98201 0)
(9.09941 5.40034 0)
(8.73174 4.90705 0)
(8.91627 4.40973 0)
(8.5748 4.16478 0)
(8.3524 3.91023 0)
(7.83796 3.4198 0)
(7.89337 3.15896 0)
(7.83201 3.54582 0)
(8.6717 4.2093 0)
(7.99042 3.70566 0)
(7.83858 3.36907 0)
(6.77857 2.55049 0)
(7.97604 2.88042 0)
(7.82887 2.49199 0)
(8.92158 2.49823 0)
(8.41126 1.4101 0)
(9.02764 -0.277021 0)
(8.55224 -1.45282 0)
(9.70239 -1.15327 0)
(8.56827 -3.00922 0)
(10.3087 -2.39635 0)
(8.4545 -2.89802 0)
(10.2021 -2.03053 0)
(7.76384 -3.53437 0)
(9.83473 -3.09634 0)
(6.90401 -3.61526 0)
(8.30494 -3.77179 0)
(6.64497 -5.97954 0)
(7.78718 -5.07304 0)
(5.7757 -6.75545 0)
(8.25498 -4.2126 0)
(7.88093 -3.89716 0)
(7.72955 -3.01486 0)
(7.89488 -1.50524 0)
(8.10171 0.680544 0)
(7.87933 3.16144 0)
(8.11589 5.94736 0)
(8.14203 7.7629 0)
(7.72685 7.83818 0)
(6.64534 6.57263 0)
(6.34934 5.6195 0)
(6.47656 4.99615 0)
(5.95144 4.40014 0)
(5.35911 4.37138 0)
(4.97201 5.80236 0)
(5.74353 6.35339 0)
(4.59558 9.49473 0)
(7.80778 -0.130525 0)
(7.70455 -0.252906 0)
(7.76026 -0.385901 0)
(7.88459 -0.482297 0)
(7.90536 -0.346531 0)
(7.74996 -0.00943554 0)
(8.12814 0.106488 0)
(8.11434 0.178934 0)
(8.51999 0.00993576 0)
(8.68452 -0.039676 0)
(9.46128 -0.365557 0)
(9.53228 -0.470849 0)
(10.2472 -0.7116 0)
(11.1902 -1.1449 0)
(11.3896 -1.46911 0)
(12.69 -2.49973 0)
(12.7365 -3.08164 0)
(12.3666 -3.49399 0)
(12.5258 -4.00424 0)
(11.5614 -3.53298 0)
(10.4357 -2.57656 0)
(10.3051 -1.67601 0)
(9.93191 -0.486559 0)
(9.55719 0.712217 0)
(10.762 1.17034 0)
(10.7977 1.40062 0)
(11.109 0.923586 0)
(11.634 0.149428 0)
(11.2219 -0.335111 0)
(11.7359 -1.33288 0)
(12.0674 -2.68161 0)
(11.8691 -4.14721 0)
(11.4128 -5.52715 0)
(10.5038 -6.37611 0)
(9.14557 -6.33278 0)
(7.29899 -5.62176 0)
(5.67006 -4.92531 0)
(4.4151 -4.66636 0)
(3.94575 -4.62261 0)
(3.34514 -4.92612 0)
(3.61338 -4.7558 0)
(3.14079 -4.95191 0)
(4.61442 -4.47911 0)
(3.73825 -3.42654 0)
(4.11318 -2.77058 0)
(4.26235 -1.91404 0)
(4.9411 -0.622705 0)
(5.65235 1.00884 0)
(5.95423 2.59795 0)
(7.26198 4.34608 0)
(7.40239 5.35071 0)
(7.90105 5.6965 0)
(8.29043 5.94374 0)
(8.47269 5.3574 0)
(8.2698 4.91237 0)
(8.454 4.4239 0)
(8.12279 4.23853 0)
(8.10527 4.02296 0)
(7.59087 3.46319 0)
(7.79527 3.09399 0)
(7.60815 3.35745 0)
(8.65101 4.09412 0)
(8.22829 3.82674 0)
(8.21691 3.54893 0)
(7.04744 2.62152 0)
(8.07291 2.58324 0)
(7.87853 2.34519 0)
(8.88965 2.36034 0)
(8.29914 1.41661 0)
(8.95705 -0.370021 0)
(8.23917 -1.49956 0)
(9.59437 -1.27329 0)
(8.11196 -3.0921 0)
(10.3114 -2.44536 0)
(8.11133 -2.76335 0)
(10.0299 -1.89099 0)
(7.73514 -3.58532 0)
(9.74701 -2.98006 0)
(6.63927 -3.32947 0)
(8.89398 -3.89543 0)
(5.75514 -5.64111 0)
(7.65662 -4.74189 0)
(4.57375 -7.11358 0)
(7.52845 -4.35746 0)
(7.20433 -4.14839 0)
(7.35705 -2.9521 0)
(7.43096 -1.4165 0)
(7.61011 0.638593 0)
(7.47386 2.91259 0)
(7.8455 5.60409 0)
(7.83059 7.62628 0)
(7.46525 7.93596 0)
(6.98152 6.83899 0)
(6.40667 5.7259 0)
(6.38001 4.74895 0)
(6.30034 4.68893 0)
(5.92781 4.55105 0)
(4.98662 6.01855 0)
(6.9845 5.8664 0)
(5.72553 9.13514 0)
(9.89427 -0.21793 0)
(9.94758 -0.22356 0)
(9.80215 -0.330294 0)
(9.93304 -0.4723 0)
(9.80838 -0.322054 0)
(9.74911 -0.104674 0)
(9.95456 0.000524923 0)
(10.1083 0.0984095 0)
(10.4556 -0.0302908 0)
(10.482 -0.219998 0)
(11.2153 -0.556342 0)
(11.2822 -0.609977 0)
(11.9467 -0.999294 0)
(12.48 -1.39376 0)
(12.8134 -1.70082 0)
(13.8051 -2.67382 0)
(13.4835 -3.01447 0)
(13.1104 -3.30445 0)
(13.0778 -3.74972 0)
(11.6483 -3.13914 0)
(11.0172 -2.30261 0)
(10.8255 -1.51902 0)
(9.8399 -0.384778 0)
(10.0891 0.515982 0)
(11.2318 1.03073 0)
(10.9635 1.3335 0)
(11.6704 0.73368 0)
(11.7108 0.192168 0)
(11.434 -0.370326 0)
(12.0996 -1.45029 0)
(12.0647 -2.65052 0)
(11.6915 -4.03068 0)
(11.1196 -5.24793 0)
(10.0758 -5.85169 0)
(8.45948 -5.63756 0)
(6.4859 -4.93249 0)
(4.9145 -4.37072 0)
(3.83518 -4.309 0)
(3.38243 -4.43896 0)
(2.73873 -4.78244 0)
(2.95945 -4.8424 0)
(2.92179 -5.17495 0)
(3.84342 -4.47971 0)
(3.12638 -3.41425 0)
(3.96451 -2.81719 0)
(3.50924 -1.97064 0)
(3.67822 -0.803744 0)
(4.11143 0.815072 0)
(4.62869 2.38691 0)
(5.93615 4.09218 0)
(6.31121 5.09419 0)
(6.75862 5.53762 0)
(7.53711 5.83436 0)
(7.67483 5.28913 0)
(7.506 4.97327 0)
(7.90658 4.44725 0)
(7.63993 4.29969 0)
(7.82393 4.14437 0)
(7.32185 3.57291 0)
(7.6335 3.09923 0)
(7.30119 3.22709 0)
(8.5339 3.93038 0)
(8.29171 3.89166 0)
(8.58525 3.70967 0)
(7.26785 2.73388 0)
(8.25101 2.33801 0)
(7.92067 2.18471 0)
(8.82944 2.27004 0)
(8.11587 1.47093 0)
(9.12517 -0.440109 0)
(7.83902 -1.55889 0)
(9.80369 -1.33554 0)
(7.72881 -3.13809 0)
(10.3837 -2.52414 0)
(7.65134 -2.6753 0)
(9.99793 -1.96595 0)
(8.00239 -3.30434 0)
(9.47383 -2.749 0)
(6.78082 -3.00479 0)
(8.81792 -3.74025 0)
(5.10004 -5.2909 0)
(7.71504 -4.46976 0)
(3.78075 -7.18115 0)
(7.11228 -4.65653 0)
(6.12601 -4.31484 0)
(6.62699 -2.92568 0)
(6.86214 -1.59922 0)
(6.85053 0.760325 0)
(6.74296 3.24359 0)
(7.02353 5.71558 0)
(7.30978 7.63411 0)
(7.07981 7.95661 0)
(7.1949 7.01083 0)
(6.82834 6.05454 0)
(6.62527 4.77034 0)
(5.81208 4.86457 0)
(6.38741 4.62623 0)
(4.74222 6.2364 0)
(7.83635 5.22863 0)
(6.89527 8.68513 0)
(11.5154 -0.324123 0)
(11.6288 -0.24236 0)
(11.4626 -0.277081 0)
(11.6132 -0.450072 0)
(11.4446 -0.257539 0)
(11.408 -0.142331 0)
(11.4573 -0.100527 0)
(11.695 -0.0186162 0)
(11.8521 -0.111697 0)
(12.0774 -0.349519 0)
(12.5184 -0.696427 0)
(12.5725 -0.809488 0)
(13.3415 -1.1565 0)
(13.3997 -1.52237 0)
(13.9002 -1.90415 0)
(14.3331 -2.63622 0)
(13.753 -2.93226 0)
(13.5173 -3.17444 0)
(13.0977 -3.39195 0)
(11.7617 -2.7645 0)
(11.3882 -2.08877 0)
(11.0501 -1.28278 0)
(9.98414 -0.294347 0)
(10.5781 0.292391 0)
(11.0836 0.94293 0)
(11.0863 1.1615 0)
(11.9963 0.660097 0)
(11.5802 0.317071 0)
(11.7371 -0.456049 0)
(12.2272 -1.51005 0)
(11.7614 -2.54368 0)
(11.3654 -3.8375 0)
(10.6959 -4.9126 0)
(9.50803 -5.28959 0)
(7.75835 -4.8856 0)
(5.70953 -4.18562 0)
(4.22356 -3.83645 0)
(3.2604 -3.96996 0)
(2.6655 -4.20516 0)
(1.93808 -4.64679 0)
(2.12751 -4.96375 0)
(1.96047 -5.31499 0)
(2.7131 -4.53046 0)
(2.45644 -3.55881 0)
(3.67942 -2.81059 0)
(2.73758 -1.78536 0)
(2.64267 -0.774875 0)
(2.73687 0.624239 0)
(3.3815 2.06208 0)
(4.59699 3.74425 0)
(5.06096 4.79887 0)
(5.67226 5.2667 0)
(6.58488 5.64137 0)
(6.75535 5.205 0)
(6.76136 4.88853 0)
(7.33098 4.34806 0)
(7.19787 4.2772 0)
(7.57042 4.14216 0)
(7.06931 3.60649 0)
(7.4432 3.06831 0)
(7.05007 3.07259 0)
(8.36862 3.66927 0)
(8.24485 3.84156 0)
(8.84548 3.83122 0)
(7.54964 2.89266 0)
(8.45248 2.1571 0)
(7.98723 2.09451 0)
(8.82173 2.24828 0)
(7.90823 1.45038 0)
(9.49113 -0.454279 0)
(7.70368 -1.64606 0)
(10.0268 -1.40759 0)
(7.60448 -3.1216 0)
(10.5258 -2.60532 0)
(7.44775 -2.44798 0)
(9.97103 -2.15483 0)
(8.1076 -3.18481 0)
(9.06686 -2.58654 0)
(6.96258 -2.78164 0)
(8.2958 -3.42247 0)
(4.86152 -4.90456 0)
(7.2432 -4.24103 0)
(3.4041 -7.02476 0)
(6.79813 -4.64531 0)
(4.83533 -4.5921 0)
(5.67409 -2.75499 0)
(5.73197 -1.54771 0)
(5.79556 0.760312 0)
(6.31407 3.07474 0)
(6.24828 5.49019 0)
(6.74484 7.58055 0)
(6.44094 7.89108 0)
(6.75459 6.88216 0)
(6.72922 6.23542 0)
(7.36569 5.08024 0)
(5.60145 5.20605 0)
(7.0842 4.444 0)
(5.10397 6.19552 0)
(8.12424 4.48986 0)
(7.90096 8.18868 0)
(12.733 -0.423447 0)
(12.7475 -0.308408 0)
(12.6054 -0.267794 0)
(12.6998 -0.442049 0)
(12.5947 -0.214542 0)
(12.5354 -0.136448 0)
(12.5311 -0.174939 0)
(12.8638 -0.0856959 0)
(12.8118 -0.1731 0)
(13.1906 -0.466704 0)
(13.3803 -0.751132 0)
(13.5245 -0.982085 0)
(13.9887 -1.28157 0)
(13.9295 -1.62673 0)
(14.4239 -2.04217 0)
(14.2934 -2.50267 0)
(13.7767 -2.78602 0)
(13.5626 -3.00211 0)
(12.9318 -3.02092 0)
(11.9087 -2.4817 0)
(11.5613 -1.88938 0)
(11.1177 -1.0616 0)
(10.6325 -0.331635 0)
(10.968 0.213891 0)
(10.6562 0.973761 0)
(11.2481 0.903956 0)
(11.6974 0.581525 0)
(11.2329 0.330515 0)
(11.8115 -0.598186 0)
(11.7914 -1.46683 0)
(11.2574 -2.40654 0)
(11.027 -3.67921 0)
(10.2249 -4.53598 0)
(8.85899 -4.61444 0)
(6.92273 -4.0766 0)
(4.9229 -3.48351 0)
(3.58382 -3.34187 0)
(2.5679 -3.60371 0)
(1.80733 -3.9171 0)
(1.09257 -4.48061 0)
(1.01302 -4.98358 0)
(0.644876 -5.39191 0)
(1.51336 -4.76318 0)
(1.75712 -3.95345 0)
(2.93933 -2.93872 0)
(2.0972 -1.67911 0)
(2.18045 -0.706965 0)
(1.86607 0.455779 0)
(2.40729 1.75562 0)
(3.35557 3.35336 0)
(4.06607 4.45589 0)
(4.61952 5.01482 0)
(5.72325 5.41447 0)
(6.11771 5.07466 0)
(6.15866 4.78356 0)
(6.85764 4.23218 0)
(6.71597 4.22304 0)
(7.2479 4.11728 0)
(6.73851 3.65583 0)
(7.25591 3.04339 0)
(6.7736 2.91358 0)
(8.11828 3.44311 0)
(8.08485 3.72801 0)
(8.91493 3.90904 0)
(7.90742 3.07692 0)
(8.71087 2.04979 0)
(8.04541 2.04456 0)
(8.88498 2.34084 0)
(7.91113 1.34935 0)
(9.80472 -0.519966 0)
(7.92094 -1.59013 0)
(10.0327 -1.46718 0)
(7.73022 -3.11443 0)
(10.4401 -2.62373 0)
(7.58875 -2.36397 0)
(9.97309 -2.24518 0)
(8.20887 -2.91903 0)
(8.84204 -2.44356 0)
(7.09323 -2.45479 0)
(7.33668 -3.12174 0)
(5.0187 -4.50153 0)
(6.09696 -4.09848 0)
(3.30179 -7.03111 0)
(6.60848 -4.49858 0)
(3.94689 -4.64334 0)
(5.00796 -2.77627 0)
(4.65893 -1.9334 0)
(5.31827 0.822566 0)
(5.53807 3.01717 0)
(5.47883 5.40852 0)
(6.31305 7.53882 0)
(6.03161 7.90284 0)
(6.33988 6.71139 0)
(6.13855 6.14067 0)
(7.59452 4.96065 0)
(5.86859 5.50075 0)
(7.71148 4.29096 0)
(5.91138 6.03456 0)
(8.79774 3.9246 0)
(8.97845 7.45253 0)
(13.36 -0.429593 0)
(13.2585 -0.358623 0)
(13.1714 -0.295292 0)
(13.0882 -0.443966 0)
(13.1672 -0.202166 0)
(13.0343 -0.124431 0)
(13.079 -0.262838 0)
(13.4082 -0.165879 0)
(13.3798 -0.266515 0)
(13.7317 -0.557033 0)
(13.791 -0.814057 0)
(14.0525 -1.11528 0)
(14.1179 -1.29049 0)
(14.1093 -1.72105 0)
(14.3192 -2.08678 0)
(13.8846 -2.30753 0)
(13.6218 -2.70727 0)
(13.394 -2.83767 0)
(12.7943 -2.71433 0)
(12.239 -2.317 0)
(11.8641 -1.68652 0)
(11.4159 -0.954304 0)
(11.3093 -0.382425 0)
(10.8313 0.393632 0)
(10.518 0.970316 0)
(11.3699 0.676067 0)
(11.0243 0.61599 0)
(10.9652 0.239537 0)
(11.5128 -0.712994 0)
(11.16 -1.33306 0)
(10.954 -2.29312 0)
(10.7757 -3.46348 0)
(9.67877 -4.03772 0)
(8.06363 -3.90489 0)
(6.07554 -3.27611 0)
(4.21073 -2.82067 0)
(2.93946 -2.85953 0)
(1.82216 -3.18911 0)
(0.921119 -3.62067 0)
(0.177801 -4.27239 0)
(-0.212345 -4.90302 0)
(-0.431641 -5.47581 0)
(0.280432 -5.02155 0)
(0.685633 -4.26786 0)
(1.67269 -3.03219 0)
(1.29653 -1.69832 0)
(1.94418 -0.663304 0)
(1.44557 0.371423 0)
(1.60614 1.53359 0)
(2.25362 3.02558 0)
(3.04614 4.1186 0)
(3.69752 4.69911 0)
(4.83469 5.04708 0)
(5.45901 4.92614 0)
(5.63628 4.63215 0)
(6.31193 4.12794 0)
(6.28721 4.15081 0)
(6.97795 4.035 0)
(6.35512 3.69038 0)
(6.96613 2.99565 0)
(6.41682 2.75561 0)
(7.87518 3.15305 0)
(7.93137 3.5325 0)
(8.76681 3.85826 0)
(8.16776 3.13686 0)
(8.95213 2.07672 0)
(8.14233 2.04983 0)
(8.93546 2.37587 0)
(8.14284 1.24973 0)
(9.93449 -0.628877 0)
(8.23551 -1.58898 0)
(9.68221 -1.46308 0)
(8.2922 -3.08865 0)
(10.0115 -2.651 0)
(8.03296 -2.21511 0)
(9.51672 -2.45388 0)
(8.37314 -2.648 0)
(8.49906 -2.1464 0)
(7.33716 -2.14104 0)
(6.41094 -2.81274 0)
(5.23681 -4.08131 0)
(4.9216 -3.93981 0)
(3.4654 -7.35824 0)
(6.32806 -4.55292 0)
(3.66895 -4.29827 0)
(4.22096 -2.64918 0)
(3.89186 -2.26289 0)
(4.61895 0.865357 0)
(4.31687 2.92193 0)
(4.81615 5.37576 0)
(5.45035 7.22312 0)
(5.81364 7.87035 0)
(6.17308 6.65144 0)
(5.40632 6.06241 0)
(7.22323 4.55422 0)
(5.66524 5.5816 0)
(7.81289 4.05415 0)
(6.44001 5.80834 0)
(9.102 3.32897 0)
(9.80839 6.76495 0)
(13.2842 -0.354031 0)
(13.23 -0.333428 0)
(13.1904 -0.287816 0)
(13.0694 -0.366582 0)
(13.2784 -0.194356 0)
(13.1293 -0.167858 0)
(13.2711 -0.303461 0)
(13.5009 -0.234284 0)
(13.5717 -0.389519 0)
(13.7781 -0.623176 0)
(13.942 -0.861738 0)
(14.0071 -1.16488 0)
(13.9277 -1.3149 0)
(14.0249 -1.72009 0)
(13.8598 -1.99887 0)
(13.5321 -2.16172 0)
(13.605 -2.63149 0)
(13.3265 -2.66344 0)
(12.8301 -2.46459 0)
(12.5709 -2.23239 0)
(12.1477 -1.57785 0)
(11.8342 -0.865436 0)
(11.5343 -0.215162 0)
(10.586 0.618612 0)
(10.8204 0.864465 0)
(11.1848 0.693927 0)
(10.5881 0.688059 0)
(11.06 0.0524664 0)
(11.2492 -0.632157 0)
(10.809 -1.12287 0)
(10.8327 -2.21044 0)
(10.3846 -3.21169 0)
(9.02714 -3.44248 0)
(7.2536 -3.10367 0)
(5.26461 -2.50434 0)
(3.59564 -2.20423 0)
(2.26033 -2.34514 0)
(1.10986 -2.73868 0)
(0.153031 -3.26281 0)
(-0.682666 -3.97849 0)
(-1.28948 -4.8175 0)
(-1.42939 -5.51425 0)
(-1.06504 -5.2723 0)
(-0.530924 -4.49547 0)
(0.253532 -3.078 0)
(0.223078 -1.82638 0)
(1.37565 -0.663276 0)
(0.88018 0.446825 0)
(0.962107 1.46774 0)
(1.25299 2.76939 0)
(1.963 3.81587 0)
(2.76506 4.34212 0)
(3.90883 4.63191 0)
(4.69422 4.70749 0)
(4.98196 4.41533 0)
(5.69565 3.95227 0)
(5.73788 4.0213 0)
(6.36421 4.00428 0)
(5.97455 3.70726 0)
(6.55813 2.91126 0)
(5.99954 2.57305 0)
(7.62787 2.89727 0)
(7.55721 3.35428 0)
(8.50811 3.74903 0)
(8.30186 3.13199 0)
(9.01973 2.06565 0)
(8.39163 2.09157 0)
(9.00541 2.37841 0)
(8.47511 1.05105 0)
(10.056 -0.704371 0)
(8.58231 -1.45144 0)
(9.33122 -1.60331 0)
(9.04507 -3.07824 0)
(9.59129 -2.67363 0)
(8.57497 -2.09262 0)
(9.09701 -2.39348 0)
(8.42862 -2.5411 0)
(8.09263 -1.85514 0)
(7.16786 -1.74659 0)
(6.0559 -2.5699 0)
(4.79659 -3.51681 0)
(4.48126 -3.75273 0)
(3.51797 -7.78644 0)
(5.50418 -4.27358 0)
(3.86187 -3.9154 0)
(3.63254 -2.46074 0)
(2.85613 -2.45317 0)
(3.63116 0.923275 0)
(3.63231 2.70868 0)
(4.12057 5.29853 0)
(4.66536 6.82372 0)
(5.0853 7.80881 0)
(6.4601 6.64715 0)
(5.18745 6.19951 0)
(7.44397 4.46739 0)
(5.3987 5.69557 0)
(8.0127 3.84072 0)
(7.3423 5.46385 0)
(9.24558 2.72406 0)
(10.2111 5.94899 0)
(12.9819 -0.295901 0)
(13.2189 -0.298612 0)
(13.1401 -0.248924 0)
(13.1045 -0.293846 0)
(13.4335 -0.223542 0)
(13.2445 -0.234306 0)
(13.3251 -0.344166 0)
(13.5335 -0.319296 0)
(13.5635 -0.460895 0)
(13.6998 -0.702048 0)
(13.8351 -0.900378 0)
(13.7839 -1.13761 0)
(13.7225 -1.33718 0)
(13.7437 -1.66865 0)
(13.5764 -1.90534 0)
(13.5323 -2.12523 0)
(13.7346 -2.56134 0)
(13.2989 -2.52575 0)
(12.9247 -2.37032 0)
(12.7664 -2.17486 0)
(12.1152 -1.42157 0)
(11.7176 -0.677714 0)
(11.3382 0.0174762 0)
(10.7006 0.70046 0)
(11.0701 0.823623 0)
(10.9402 0.838971 0)
(10.7317 0.606155 0)
(11.1748 -0.0832895 0)
(10.8639 -0.450247 0)
(10.5246 -1.03492 0)
(10.6073 -2.14705 0)
(9.80102 -2.81425 0)
(8.14668 -2.78847 0)
(6.38738 -2.34339 0)
(4.54363 -1.77701 0)
(2.97706 -1.59273 0)
(1.56321 -1.82266 0)
(0.50901 -2.31033 0)
(-0.484923 -2.87282 0)
(-1.38653 -3.6621 0)
(-2.20996 -4.68082 0)
(-2.56101 -5.4555 0)
(-2.35975 -5.48319 0)
(-1.61982 -4.6445 0)
(-0.975186 -3.24118 0)
(-0.717135 -2.14904 0)
(0.596159 -0.822739 0)
(0.227478 0.479992 0)
(0.530543 1.44168 0)
(0.488352 2.55738 0)
(1.18824 3.42628 0)
(2.02684 3.94018 0)
(2.87838 4.19198 0)
(3.89524 4.44211 0)
(4.19374 4.18734 0)
(4.75803 3.84437 0)
(4.93065 3.91644 0)
(5.82358 3.8338 0)
(5.60754 3.67826 0)
(6.01957 2.86775 0)
(5.81966 2.32849 0)
(7.41773 2.55704 0)
(7.2427 3.10971 0)
(8.29182 3.45313 0)
(8.25427 3.02305 0)
(9.02659 2.02157 0)
(8.5364 2.05181 0)
(9.12155 2.36076 0)
(8.9041 0.901809 0)
(10.1124 -0.750328 0)
(8.91489 -1.27091 0)
(9.40026 -1.75448 0)
(9.77729 -3.07223 0)
(9.47959 -2.53457 0)
(8.74622 -2.10787 0)
(8.99345 -2.23618 0)
(8.34289 -2.27425 0)
(7.84558 -1.62302 0)
(6.85277 -1.24358 0)
(6.03565 -2.14793 0)
(3.75867 -3.04087 0)
(5.35812 -3.85493 0)
(2.79752 -7.64179 0)
(4.79578 -4.64796 0)
(3.85064 -3.71047 0)
(3.66509 -1.94835 0)
(1.63988 -2.49942 0)
(2.40804 1.21478 0)
(2.5738 2.29891 0)
(3.38684 5.34309 0)
(3.93145 6.35741 0)
(4.43095 7.52114 0)
(6.81053 6.19999 0)
(5.52443 6.1286 0)
(8.02604 4.35738 0)
(6.02212 5.60406 0)
(8.28396 3.45895 0)
(8.1134 4.91629 0)
(9.36594 2.39441 0)
(10.3625 5.23203 0)
(13.1655 -0.289597 0)
(13.425 -0.280219 0)
(13.183 -0.223291 0)
(13.2472 -0.254959 0)
(13.457 -0.247327 0)
(13.2156 -0.267427 0)
(13.3066 -0.325305 0)
(13.4539 -0.368483 0)
(13.4797 -0.539295 0)
(13.584 -0.723214 0)
(13.5942 -0.884368 0)
(13.6213 -1.13792 0)
(13.5348 -1.32214 0)
(13.5233 -1.57909 0)
(13.5892 -1.85922 0)
(13.6201 -2.16742 0)
(13.562 -2.50686 0)
(13.1511 -2.40381 0)
(12.9058 -2.26956 0)
(12.556 -2.01367 0)
(11.7562 -1.16749 0)
(11.4199 -0.473121 0)
(11.1398 0.11332 0)
(10.8162 0.711673 0)
(11.0192 0.925165 0)
(10.7537 0.909776 0)
(10.8156 0.490896 0)
(10.8638 -0.0210381 0)
(10.3384 -0.270372 0)
(10.2981 -1.00136 0)
(10.1599 -1.99529 0)
(8.96434 -2.30928 0)
(7.21408 -2.06034 0)
(5.53518 -1.59148 0)
(3.86398 -1.09947 0)
(2.35549 -1.00383 0)
(1.04838 -1.33345 0)
(0.107076 -1.90011 0)
(-1.02654 -2.44362 0)
(-1.9977 -3.26902 0)
(-2.99703 -4.42283 0)
(-3.49436 -5.45233 0)
(-3.40528 -5.72152 0)
(-2.7408 -4.85577 0)
(-2.16017 -3.61556 0)
(-1.64513 -2.59241 0)
(-0.548791 -1.10634 0)
(-0.640583 0.360076 0)
(-0.0387129 1.3959 0)
(-0.107055 2.49983 0)
(0.702179 3.15027 0)
(1.45193 3.64553 0)
(2.22562 3.83258 0)
(3.08434 4.21501 0)
(3.46132 3.9987 0)
(4.2202 3.61695 0)
(4.46624 3.62334 0)
(5.21983 3.65511 0)
(5.21799 3.69406 0)
(5.72958 2.70526 0)
(5.85867 2.06006 0)
(6.99551 2.36777 0)
(6.8747 2.91674 0)
(8.09693 3.22556 0)
(7.94164 2.84093 0)
(9.04032 1.89802 0)
(8.56716 2.01534 0)
(9.14202 2.26495 0)
(9.28122 0.734907 0)
(10.0946 -0.764591 0)
(9.11064 -1.13971 0)
(9.79465 -1.94665 0)
(10.1007 -3.00374 0)
(9.4287 -2.33975 0)
(8.64636 -1.96558 0)
(8.75752 -2.12541 0)
(8.3537 -1.96484 0)
(7.38652 -1.27405 0)
(6.55319 -0.99317 0)
(5.79884 -1.51779 0)
(2.74562 -2.76001 0)
(5.98174 -3.93983 0)
(2.13728 -6.8772 0)
(3.29518 -4.85811 0)
(3.38641 -3.76329 0)
(3.59911 -1.69588 0)
(0.840906 -2.33193 0)
(2.05255 0.963459 0)
(2.03151 1.67884 0)
(2.77666 5.35214 0)
(2.95188 5.83916 0)
(3.46891 7.0127 0)
(6.27114 5.56231 0)
(5.3516 5.82214 0)
(7.66189 4.10825 0)
(6.5037 5.42729 0)
(8.28602 3.20569 0)
(8.35046 4.53252 0)
(9.2195 2.09928 0)
(10.5809 4.44694 0)
(13.3107 -0.27437 0)
(13.2684 -0.188999 0)
(13.0711 -0.198987 0)
(13.1092 -0.190173 0)
(13.2867 -0.225122 0)
(13.1972 -0.34259 0)
(13.2576 -0.341172 0)
(13.4918 -0.444146 0)
(13.5077 -0.610157 0)
(13.4792 -0.711399 0)
(13.5277 -0.893918 0)
(13.4992 -1.11073 0)
(13.4013 -1.29038 0)
(13.4432 -1.57789 0)
(13.5032 -1.90499 0)
(13.4472 -2.14101 0)
(13.1827 -2.339 0)
(12.749 -2.3091 0)
(12.4459 -2.14978 0)
(11.8912 -1.75357 0)
(11.2521 -0.981479 0)
(11.1267 -0.403598 0)
(10.8225 0.17425 0)
(10.6023 0.764112 0)
(10.665 0.984649 0)
(10.4081 0.946375 0)
(10.5477 0.50505 0)
(10.3015 0.0939677 0)
(9.84669 -0.193592 0)
(9.9765 -0.963655 0)
(9.47431 -1.66984 0)
(7.90768 -1.68703 0)
(6.19169 -1.35334 0)
(4.72425 -0.911759 0)
(3.24543 -0.486931 0)
(1.8623 -0.479788 0)
(0.782016 -0.895016 0)
(-0.22573 -1.45062 0)
(-1.34354 -2.00568 0)
(-2.19941 -2.90317 0)
(-3.35857 -4.12471 0)
(-4.2237 -5.32382 0)
(-4.54419 -5.77868 0)
(-4.08654 -4.98682 0)
(-3.39813 -3.8246 0)
(-2.92201 -2.72847 0)
(-2.10553 -1.13755 0)
(-1.90396 0.262269 0)
(-0.770636 1.29986 0)
(-0.655952 2.30389 0)
(0.206271 2.78856 0)
(1.02352 3.35793 0)
(1.8365 3.48427 0)
(2.62664 3.9606 0)
(3.25013 3.72168 0)
(3.83105 3.52459 0)
(3.89578 3.51192 0)
(4.93322 3.46688 0)
(5.04666 3.54506 0)
(5.53015 2.53585 0)
(5.80642 1.91335 0)
(6.68629 2.14471 0)
(6.73628 2.58347 0)
(7.8984 2.91576 0)
(7.75071 2.64009 0)
(8.95283 1.72647 0)
(8.52123 2.02342 0)
(9.09645 2.11912 0)
(9.45068 0.531025 0)
(10.0666 -0.718836 0)
(9.165 -1.10058 0)
(10.1902 -2.21302 0)
(10.0227 -2.80672 0)
(9.30133 -2.06854 0)
(8.40166 -1.8449 0)
(8.64122 -1.98279 0)
(8.23969 -1.71172 0)
(7.13427 -0.833349 0)
(6.08504 -0.636238 0)
(5.36545 -0.948034 0)
(2.7418 -2.49284 0)
(4.62747 -3.9781 0)
(1.74653 -6.18016 0)
(2.13002 -4.92135 0)
(2.07448 -4.05332 0)
(2.40281 -0.813557 0)
(0.162989 -1.87676 0)
(0.764392 1.2945 0)
(0.952333 1.19479 0)
(2.03717 5.53099 0)
(2.42138 5.56318 0)
(2.44766 6.51498 0)
(5.74227 5.13493 0)
(4.78805 5.65293 0)
(6.97536 3.95879 0)
(6.78637 5.16308 0)
(8.32357 3.05681 0)
(8.85346 4.20162 0)
(9.34105 1.73141 0)
(10.8433 3.56758 0)
(13.0849 -0.16773 0)
(13.0314 -0.0858102 0)
(13.0412 -0.207619 0)
(13.0282 -0.143466 0)
(13.3432 -0.269112 0)
(13.2809 -0.437785 0)
(13.3171 -0.362485 0)
(13.5662 -0.489191 0)
(13.4141 -0.613016 0)
(13.3751 -0.686235 0)
(13.3513 -0.841754 0)
(13.2358 -1.06234 0)
(13.2365 -1.29004 0)
(13.2554 -1.54298 0)
(13.1434 -1.84172 0)
(12.9039 -2.04139 0)
(12.518 -2.16999 0)
(12.0277 -2.14304 0)
(11.5092 -1.92823 0)
(10.8595 -1.51595 0)
(10.4409 -0.885436 0)
(10.2367 -0.276444 0)
(9.91372 0.318377 0)
(9.86832 0.771565 0)
(9.84045 1.04469 0)
(9.79455 0.987345 0)
(9.94219 0.519636 0)
(9.54879 0.243152 0)
(9.33079 -0.123083 0)
(9.37316 -0.859878 0)
(8.44578 -1.21267 0)
(6.66982 -0.996639 0)
(5.11498 -0.698206 0)
(3.94772 -0.342235 0)
(2.74986 0.0384152 0)
(1.59949 -0.00732251 0)
(0.650055 -0.469984 0)
(-0.324092 -1.04604 0)
(-1.24038 -1.62504 0)
(-2.13861 -2.44288 0)
(-3.56537 -3.64587 0)
(-4.67552 -5.08921 0)
(-5.33456 -5.8346 0)
(-5.28498 -5.25208 0)
(-4.49873 -4.10558 0)
(-4.18709 -2.91009 0)
(-3.51953 -1.38366 0)
(-2.95825 -0.120631 0)
(-1.61276 0.976383 0)
(-1.43415 1.96571 0)
(-0.47742 2.41948 0)
(0.481338 3.04416 0)
(1.27902 3.15136 0)
(2.065 3.68027 0)
(2.83769 3.44645 0)
(3.31746 3.40297 0)
(3.86652 3.13248 0)
(4.70168 3.19703 0)
(4.72084 3.42955 0)
(5.57187 2.3036 0)
(5.59892 1.75402 0)
(6.36608 1.99859 0)
(6.62013 2.38251 0)
(7.45147 2.76257 0)
(7.63173 2.40856 0)
(8.86977 1.67072 0)
(8.18541 2.00377 0)
(9.13986 1.86966 0)
(9.45591 0.383682 0)
(9.95609 -0.663966 0)
(9.27475 -1.17235 0)
(10.4406 -2.35805 0)
(9.68138 -2.57769 0)
(9.16701 -1.77533 0)
(8.06567 -1.76589 0)
(8.7406 -1.88807 0)
(7.87449 -1.32414 0)
(6.91685 -0.47602 0)
(5.68474 -0.162054 0)
(4.66717 -0.483372 0)
(3.17248 -2.14146 0)
(3.19764 -4.04454 0)
(1.63698 -5.79547 0)
(1.16673 -4.95108 0)
(-0.39778 -4.28745 0)
(2.34141 -0.834793 0)
(0.694921 -1.83849 0)
(0.599455 0.999005 0)
(-0.306171 0.977592 0)
(0.922206 5.63032 0)
(2.65388 5.00997 0)
(1.9376 5.98346 0)
(5.34478 4.64896 0)