/*--------------------------------*- C++ -*----------------------------------*\
| =========                 |                                                 |
| \\      /  F ield         | OpenFOAM: The Open Source CFD Toolbox           |
|  \\    /   O peration     | Version:  2.4.0                                 |
|   \\  /    A nd           | Web:      www.OpenFOAM.org                      |
|    \\/     M anipulation  |                                                 |
\*---------------------------------------------------------------------------*/
FoamFile
{
    version     2.0;
    format      ascii;
    class       volScalarField;
    location    "0.283";
    object      p;
}
// * * * * * * * * * * * * * * * * * * * * * * * * * * * * * * * * * * * * * //

dimensions      [0 2 -2 0 0 0 0];

internalField   nonuniform List<scalar> 
17600
(
105.321
89.6996
85.2567
84.0939
83.1718
82.2084
81.2994
80.5754
79.8193
79.0117
78.3748
77.5858
76.8336
76.1108
75.2678
74.4683
73.3122
71.9164
70.1702
64.3613
103.414
89.7498
85.2978
84.1033
83.1749
82.2097
81.2993
80.5756
79.8204
79.0113
78.3746
77.5869
76.8333
76.1122
75.2689
74.4705
73.317
71.9157
70.1919
64.7732
102.001
90.0061
85.4417
84.1411
83.1889
82.2144
81.301
80.5776
79.8227
79.0114
78.3755
77.5881
76.8337
76.115
75.2719
74.477
73.3305
71.9293
70.2841
65.3876
101.026
90.3474
85.6617
84.2062
83.2184
82.2293
81.3098
80.5841
79.8278
79.0142
78.378
77.59
76.8353
76.1194
75.2774
74.489
73.3564
71.9655
70.4454
66.1972
100.204
90.6821
85.9259
84.2887
83.2604
82.257
81.3303
80.5983
79.8387
79.0225
78.383
77.5941
76.8388
76.1262
75.2859
74.5074
73.3954
72.0273
70.6832
67.1294
99.4306
90.9746
86.2039
84.3721
83.3014
82.2918
81.3614
80.6201
79.8564
79.0383
78.3911
77.6017
76.845
76.136
75.2977
74.5327
73.4482
72.1187
70.9941
68.1649
98.702
91.222
86.4812
84.4511
83.3315
82.3236
81.3974
80.6458
79.8788
79.0607
78.4014
77.6128
76.8538
76.1489
75.3135
74.5646
73.5154
72.2364
71.3652
69.2797
98.029
91.4266
86.7511
84.5279
83.3503
82.3477
81.4336
80.6717
79.9032
79.0865
78.4119
77.6266
76.8642
76.1632
75.3343
74.6015
73.5953
72.383
71.7588
70.4708
97.4172
91.5919
87.0049
84.6073
83.3608
82.3635
81.4664
80.6966
79.9284
79.1132
78.421
77.6423
76.8736
76.1784
75.3581
74.643
73.6799
72.5632
72.1453
71.5787
96.869
91.7189
87.2398
84.6906
83.3659
82.3716
81.4949
80.72
79.9539
79.139
78.4279
77.6595
76.8817
76.1922
75.3867
74.6843
73.771
72.756
72.5358
72.6312
96.3826
91.8106
87.4547
84.7783
83.3667
82.372
81.519
80.7424
79.9787
79.1628
78.4345
77.6761
76.8896
76.2071
75.4172
74.7238
73.8703
72.9527
72.9323
73.598
95.955
91.8711
87.6495
84.8703
83.3638
82.3662
81.5396
80.763
80.0023
79.1861
78.4397
77.6911
76.9155
76.2237
75.4493
74.7676
73.9755
73.161
73.3128
74.4356
95.5837
91.9058
87.8244
84.9651
83.3583
82.3561
81.5559
80.7822
80.0238
79.2093
78.443
77.7041
76.9214
76.2403
75.4848
74.8124
74.0847
73.3714
73.6642
75.1599
95.2657
91.922
87.9788
85.0584
83.3523
82.3432
81.5693
80.799
80.0439
79.2299
78.4464
77.7154
76.9336
76.2562
75.5215
74.845
74.1995
73.5765
73.9779
75.7667
94.9978
91.9277
88.1119
85.1423
83.3472
82.3298
81.5801
80.814
80.0621
79.2481
78.449
77.727
76.9438
76.2706
75.5593
74.8952
74.3073
73.7879
74.2697
76.2146
94.7774
91.9284
88.2217
85.2146
83.3433
82.3176
81.5878
80.8277
80.0769
79.2659
78.4509
77.737
76.9552
76.2847
75.5984
74.9464
74.4166
73.9845
74.5783
76.5842
94.604
91.9257
88.3089
85.2735
83.3417
82.3063
81.5939
80.8381
80.0904
79.2773
78.455
77.7453
76.9746
76.2977
75.6401
74.9939
74.5397
74.1663
74.8691
76.9671
94.4752
91.9221
88.3728
85.3195
83.3401
82.2983
81.5974
80.8472
80.0996
79.2912
78.4522
77.7538
76.9822
76.3143
75.6772
75.05
74.5933
74.3598
75.047
77.2444
94.3907
91.918
88.4153
85.3508
83.3398
82.2934
81.5995
80.8529
80.1064
79.2995
78.4556
77.7598
76.9987
76.3301
75.7178
75.1039
74.6982
74.5222
75.2326
77.5229
94.3492
91.9148
88.4366
85.3672
83.3404
82.2923
81.6002
80.856
80.11
79.306
78.4596
77.7652
77.014
76.3456
75.7561
75.1604
74.7945
74.6853
75.4211
77.7182
94.3503
91.9129
88.437
85.3686
83.3375
82.2955
81.5989
80.8568
80.1067
79.3106
78.4623
77.7714
77.0289
76.3644
75.7908
75.2176
74.8868
74.8396
75.6278
77.8091
94.3944
91.9121
88.4175
85.3544
83.3343
82.3011
81.5984
80.853
80.1052
79.3111
78.4673
77.7724
77.0469
76.3786
75.8293
75.2723
74.9841
74.9692
75.8374
77.9498
94.481
91.9122
88.3761
85.3257
83.33
82.3126
81.5959
80.8486
80.0981
79.3113
78.4699
77.7801
77.0584
76.4008
75.8596
75.3315
75.0626
75.1102
75.9152
78.0802
94.6125
91.9116
88.3133
85.2819
83.3276
82.3244
81.5937
80.8392
80.0895
79.3067
78.4738
77.7806
77.0749
76.4196
75.8931
75.3854
75.1482
75.2247
76.0145
78.25
94.7881
91.91
88.227
85.2254
83.3258
82.3391
81.5899
80.8278
80.0769
79.3012
78.4766
77.7835
77.0881
76.4409
75.9232
75.4409
75.2266
75.3385
76.1254
78.3342
95.0108
91.9051
88.1177
85.1559
83.3263
82.3535
81.5854
80.8129
80.062
79.2935
78.4792
77.7851
77.0997
76.4635
75.9505
75.4954
75.3016
75.4459
76.2536
78.3121
95.2811
91.8948
87.9855
85.0741
83.3294
82.3673
81.5798
80.7945
80.0452
79.2828
78.4825
77.7831
77.1145
76.4831
75.9818
75.543
75.3826
75.532
76.3963
78.3381
95.601
91.875
87.8303
84.9839
83.3336
82.3809
81.5713
80.7744
80.0245
79.2728
78.482
77.7843
77.122
76.5089
76.0046
75.5982
75.4449
75.6319
76.4029
78.3734
95.975
91.8363
87.6545
84.8886
83.3391
82.3903
81.5613
80.7505
80.0035
79.26
78.4827
77.7806
77.1337
76.5299
76.0318
75.6451
75.5146
75.7106
76.4363
78.449
96.4042
91.7728
87.4585
84.7972
83.3415
82.3952
81.5485
80.7247
79.9805
79.2468
78.4811
77.7759
77.1439
76.5505
76.058
75.689
75.5847
75.7822
76.4982
78.4239
96.8923
91.678
87.2431
84.711
83.3398
82.3942
81.5316
80.6976
79.9555
79.2334
78.4774
77.7701
77.1518
76.5716
76.0802
75.7343
75.6469
75.8654
76.5474
78.3349
97.4416
91.5486
87.0092
84.6299
83.3333
82.3856
81.5108
80.6687
79.9296
79.2186
78.473
77.7612
77.1603
76.5893
76.1043
75.7707
75.7158
75.9338
76.6313
78.1945
98.0532
91.3828
86.7574
84.5538
83.3195
82.3693
81.4862
80.639
79.9026
79.2031
78.4674
77.7517
77.1665
76.606
76.1255
75.804
75.778
75.9961
76.7201
78.0912
98.7263
91.1784
86.4902
84.4798
83.2966
82.3441
81.4584
80.6094
79.8756
79.1874
78.4607
77.743
77.1707
76.6208
76.1431
75.835
75.8282
76.0569
76.76
77.9943
99.4547
90.931
86.2154
84.403
83.2633
82.3106
81.4295
80.5817
79.851
79.1725
78.4546
77.7363
77.1744
76.6326
76.1592
75.861
75.8703
76.1039
76.802
77.9686
100.229
90.6379
85.9385
84.3213
83.2204
82.274
81.4032
80.5595
79.8321
79.1612
78.4505
77.7329
77.178
76.6421
76.1732
75.8824
75.9028
76.1405
76.8332
77.9366
101.051
90.3022
85.6746
84.2399
83.1779
82.2449
81.3852
80.5459
79.8212
79.1547
78.4488
77.7328
77.1814
76.6491
76.1841
75.8989
75.9252
76.1688
76.8496
77.9405
102.027
89.9602
85.4545
84.1748
83.149
82.2296
81.3766
80.5402
79.8171
79.1519
78.4486
77.7344
77.184
76.6535
76.1916
75.9103
75.9394
76.1869
76.8623
77.9584
103.441
89.7041
85.3106
84.1362
83.1356
82.2253
81.3739
80.5388
79.8165
79.151
78.4485
77.7361
77.1856
76.6553
76.1955
75.9165
75.9464
76.1959
76.8703
77.989
105.35
89.6542
85.2697
84.126
83.1327
82.2252
81.373
80.5385
79.8169
79.1507
78.4482
77.7369
77.1863
76.6553
76.1966
75.9187
75.9486
76.1982
76.8734
78.0395
65.1652
67.3974
71.7045
77.5954
84.0963
90.6894
95.2989
98.4687
100.09
97.7645
92.0077
81.331
64.0507
46.2566
35.5677
35.2863
35.017
31.37
25.3347
19.5414
14.7868
10.0629
7.23457
6.79856
7.16883
9.0606
12.9169
17.6307
22.745
29.0475
36.0724
41.7889
46.6735
51.5944
55.8946
59.3739
62.54
65.689
68.437
70.5042
72.2099
73.5489
74.2438
73.9986
72.7555
70.7113
68.0193
64.545
60.271
55.2092
50.0214
44.7481
39.9201
36.4408
33.9712
32.7382
33.5371
36.0468
39.3678
44.0976
50.4497
56.9434
62.7311
68.0804
73.3295
78.0194
82.1068
85.3384
88.1123
89.9621
91.5884
93.0066
93.8257
94.9238
95.7247
95.9042
96.4506
96.8542
96.7749
96.7668
96.4726
95.5883
93.9785
91.1911
86.9142
81.2584
74.5552
66.873
59.8781
54.7257
49.3874
43.1325
37.6533
33.6448
30.8428
29.3775
29.7285
32.2997
36.2811
40.9402
46.8033
54.1129
60.7168
66.1141
71.5571
76.3831
79.9024
81.815
82.697
82.7617
81.9239
80.6466
78.5507
75.7355
72.5874
69.0244
64.8833
60.5368
56.2978
51.9243
47.5535
43.697
40.9382
40.068
41.0609
43.2011
46.6229
51.7681
58.0329
64.4133
70.5161
76.4788
82.2293
87.2358
89.7241
90.2726
90.1698
89.7757
89.4482
87.6248
85.3109
82.8123
79.8579
76.6663
72.9714
68.9637
64.2564
59.4121
54.6372
50.0841
45.9084
42.305
39.4066
37.6678
37.2488
37.8073
40.208
42.4329
44.5367
49.155
54.297
58.1381
62.715
68.747
74.4132
78.4699
82.0862
84.2195
84.6047
84.926
84.227
83.7378
84.4428
84.4415
83.8972
84.6955
86.1504
86.2838
84.9636
83.1291
81.4861
80.2059
78.99
78.3213
78.6255
79.5911
80.8787
82.2544
83.7741
85.3907
86.6787
87.0615
86.7383
85.9455
84.0903
80.7107
75.3449
67.1225
53.5495
14.2328
65.7512
68.363
73.1144
79.2338
85.7336
92.3641
97.1521
100.554
102.439
100.009
94.0829
83.6464
66.2952
47.9429
37.0668
35.3297
34.7525
32.194
26.8662
21.4576
17.0504
12.6568
9.889
9.49402
9.80043
11.2682
14.9899
20.2134
25.4976
31.1291
37.6204
43.178
47.794
52.3608
56.4827
59.9904
63.0746
66.071
68.8634
70.9962
72.5742
73.8162
74.481
74.1319
72.6534
70.367
67.4464
63.6077
58.777
53.1052
47.3659
41.6601
36.4986
32.8068
30.2227
28.9425
29.8051
32.482
35.9556
40.9278
47.7195
54.8027
61.0834
66.7672
72.2678
77.2548
81.5775
84.9943
87.9379
89.8243
91.5773
93.004
93.8539
95.0285
95.7886
95.9311
96.4818
96.8673
96.7157
96.7264
96.4772
95.6348
94.0737
91.3755
87.1785
81.6442
75.0404
67.4239
60.6048
55.7914
50.9608
45.3304
40.2638
36.4853
33.9331
32.6334
32.8478
35.2123
39.0819
43.5826
49.1624
56.2263
62.6739
67.7141
72.7605
77.2635
80.528
82.2704
82.9492
82.8629
81.9194
80.4906
78.2358
75.2883
71.9947
68.2975
63.9628
59.3606
55.0156
50.5588
45.9606
41.8439
39.0367
38.3036
39.3701
41.5877
45.2101
50.5232
56.8924
63.3997
69.5964
75.7353
81.7047
86.8852
89.4842
90.0942
90.0066
89.6739
89.6004
87.8696
85.7677
83.7821
80.8862
77.7191
74.2721
70.3884
65.7551
60.9594
56.2713
51.6878
47.3673
43.7579
41.0233
39.1772
38.6253
39.0659
41.0023
43.3605
45.3381
49.701
54.9149
58.871
63.1785
69.0157
74.6944
78.6305
81.791
83.7835
84.008
84.0753
83.4693
83.1242
83.7471
83.7145
83.2735
84.0455
85.3707
85.351
83.7346
81.4691
79.4634
77.9267
76.5127
75.7464
75.9849
76.9704
78.3659
79.7963
81.364
83.1197
84.421
84.7855
84.3223
83.3015
81.1399
77.3258
71.0677
61.4574
47.1317
2.61766
66.7852
69.5747
74.4455
80.7022
87.0525
93.5286
98.4273
101.936
103.947
101.606
95.9854
85.653
68.5197
50.1529
39.4619
36.1982
34.9008
32.9618
28.1074
22.8701
18.9126
14.9631
12.3803
12.1689
12.6409
13.9236
17.389
22.8494
28.3174
33.3725
39.1589
44.5028
48.9428
53.1622
57.0584
60.5984
63.6409
66.4913
69.3006
71.5344
73.0522
74.2099
74.8568
74.4289
72.7492
70.2335
67.0494
62.8111
57.3841
51.0844
44.8036
38.7221
33.3061
29.3922
26.6421
25.307
26.2318
29.0586
32.6858
37.8746
45.0683
52.7131
59.4641
65.5009
71.2563
76.5582
81.0585
84.6959
87.7714
89.746
91.6153
93.0327
93.9393
95.1835
95.8864
95.9914
96.5171
96.8685
96.6518
96.651
96.468
95.6727
94.1528
91.5633
87.4931
82.159
75.7519
68.2556
61.5863
57.0072
52.6247
47.5831
42.9742
39.5019
37.2262
36.096
36.1786
38.3165
42.0739
46.4472
51.7455
58.4776
64.7269
69.4432
74.1009
78.2672
81.2473
82.8365
83.3374
83.0386
81.9938
80.4009
77.9412
74.9041
71.517
67.6468
63.1084
58.2558
53.7542
49.2323
44.4038
40.0128
37.1567
36.5478
37.7278
40.0907
43.9202
49.3853
55.8618
62.5105
68.7989
75.1399
81.2803
86.5458
89.316
89.9434
89.9162
89.6525
89.7626
88.2882
86.3076
84.6844
81.974
78.8417
75.68
71.986
67.4286
62.7097
58.1347
53.5277
49.0874
45.4176
42.8238
40.9667
40.2429
40.638
42.1086
44.4348
46.4512
50.5028
55.6664
59.8254
63.9374
69.4473
75.1526
79.0324
81.7257
83.5384
83.6554
83.4955
82.957
82.7811
83.2489
83.167
82.8819
83.6469
84.7007
84.314
82.3543
79.6632
77.2798
75.4373
73.8115
73.0235
73.2283
74.2565
75.7911
77.3665
78.9915
80.8064
82.1529
82.505
81.9538
80.7609
78.3027
74.0942
67.1277
56.132
41.8394
-0.588747
68.1053
71.0199
75.6967
81.8801
88.0134
94.1792
99.1195
102.602
104.633
102.598
97.6279
87.5437
70.5143
52.4428
41.9992
37.5551
35.431
33.8576
29.484
24.4096
20.7998
17.2758
14.9178
14.8619
15.6198
16.9928
20.232
25.5376
31.0394
35.7368
40.8235
45.7898
50.076
53.985
57.6313
61.2046
64.2674
66.964
69.7707
72.1253
73.6465
74.74
75.3727
74.9001
73.0561
70.2983
66.8258
62.1524
56.1123
49.1834
42.4117
36.0127
30.3687
26.2083
23.2454
21.8623
22.864
25.8328
29.6111
34.9763
42.5468
50.7255
57.913
64.3101
70.3171
75.9245
80.5596
84.4533
87.6399
89.7252
91.6814
93.0809
94.0667
95.3572
95.9993
96.0725
96.5542
96.85
96.5626
96.5292
96.4301
95.6852
94.221
91.7775
87.9062
82.8302
76.6936
69.3673
62.8047
58.3592
54.3268
49.8181
45.7046
42.5978
40.5857
39.633
39.6415
41.5544
45.1884
49.4613
54.5128
60.8444
66.847
71.2725
75.5489
79.3948
82.0957
83.4989
83.8636
83.3453
82.1733
80.3796
77.6202
74.4817
71.0875
67.0961
62.3179
57.2482
52.5994
47.9719
42.9104
38.234
35.3155
34.8412
36.1703
38.7151
42.7581
48.3914
54.9591
61.7553
68.173
74.6408
80.928
86.2242
89.2273
89.8122
89.8571
89.6668
89.8522
88.8041
86.9703
85.4867
83.0045
80.0694
77.1611
73.6922
69.2515
64.6034
60.1472
55.5398
50.9706
47.2524
44.7846
42.9422
42.0552
42.402
43.5114
45.6551
47.8524
51.5958
56.6036
60.9468
65.0273
70.097
75.7081
79.5464
81.8613
83.4434
83.4907
83.1565
82.7329
82.6858
82.9331
82.7388
82.6579
83.4101
84.0911
83.1913
80.7796
77.72
74.9151
72.7381
70.9223
70.1333
70.4024
71.5026
73.2496
74.996
76.7616
78.5928
79.962
80.2615
79.6861
78.3438
75.5802
71.0875
63.9147
51.3972
37.7357
1.29646
69.55
72.6525
76.9344
82.7267
88.6244
94.3187
99.1701
102.557
104.52
102.847
98.4578
88.9011
72.1107
54.6072
44.584
39.407
36.3699
34.9504
31.2305
26.2895
22.7469
19.6707
17.6466
17.6476
18.6808
20.3974
23.5057
28.3054
33.5887
38.1174
42.5558
47
51.132
54.8408
58.2453
61.8081
64.9141
67.5191
70.282
72.7424
74.3457
75.4268
76.0426
75.5238
73.5487
70.5633
66.7576
61.6125
54.96
47.4349
40.2099
33.5483
27.71
23.2636
20.0724
18.668
19.7763
22.8564
26.7331
32.2741
40.2312
48.8613
56.4511
63.2048
69.4636
75.3525
80.1183
84.2756
87.5469
89.7313
91.7625
93.1419
94.22
95.5359
96.1218
96.1763
96.5857
96.7967
96.4356
96.3732
96.3523
95.6666
94.2925
92.0423
88.4167
83.659
77.8562
70.753
64.2483
59.8736
56.0819
52.0129
48.3766
45.6529
43.8929
43.1495
43.1647
44.8719
48.3629
52.5624
57.4097
63.3175
69.0116
73.184
77.0808
80.6204
83.0863
84.2807
84.5122
83.7968
82.5144
80.5324
77.4103
74.0861
70.6761
66.6124
61.6337
56.3431
51.6117
46.8899
41.5561
36.5703
33.5915
33.2324
34.7283
37.4858
41.7595
47.5581
54.2169
61.1309
67.7034
74.2022
80.7003
85.9463
89.1447
89.694
89.7738
89.688
89.8284
89.311
87.8081
86.2997
83.9904
81.3516
78.674
75.4389
71.1317
66.5955
62.2769
57.6916
53.0188
49.2925
46.9105
45.0152
44.003
44.3383
45.1953
47.0181
49.4862
52.9918
57.7872
62.1957
66.3579
71.0519
76.4019
80.1384
82.143
83.5154
83.5511
83.0938
82.781
82.8197
82.773
82.4166
82.5671
83.2202
83.4432
82.0066
79.0981
75.5963
72.4009
69.8275
67.8297
67.1258
67.5051
68.7054
70.7293
72.7276
74.6325
76.5296
77.9235
78.2427
77.5549
76.0806
73.0496
68.2198
61.4064
47.5019
34.7447
4.62192
70.9694
74.2802
78.1572
83.3021
88.9129
94.0791
98.6392
101.767
103.637
102.238
98.1319
89.3673
73.3643
56.8596
47.3923
41.811
37.752
36.2346
33.3098
28.5404
24.8012
22.1531
20.5964
20.6586
21.8979
24.0205
27.0234
31.1603
35.9715
40.3433
44.2729
48.1825
52.155
55.7327
58.8908
62.3674
65.5162
68.1005
70.8387
73.3812
75.1245
76.2478
76.8551
76.2988
74.1976
71.0117
66.8374
61.1964
53.9441
45.8777
38.2656
31.3686
25.3172
20.5576
17.1696
15.8097
17.0209
20.1885
24.1408
29.8463
38.1467
47.1407
55.1131
62.1946
68.731
74.8584
79.7594
84.1441
87.4839
89.7815
91.8739
93.2338
94.4157
95.7429
96.2771
96.3082
96.6143
96.7083
96.2727
96.1944
96.2459
95.6445
94.3953
92.3604
89.0106
84.6427
79.2239
72.3576
65.9339
61.6014
57.9432
54.203
50.9939
48.6324
47.0838
46.5736
46.6691
48.2153
51.5624
55.7047
60.3998
65.8762
71.2013
75.1545
78.69
81.9254
84.189
85.1981
85.2791
84.3814
83.0129
80.8747
77.4446
73.864
70.3387
66.1581
61.0413
55.5655
50.7728
46.0326
40.4465
35.1195
32.0587
31.7919
33.4441
36.4385
40.943
46.8622
53.6308
60.6349
67.3551
73.8798
80.5592
85.659
88.9747
89.5988
89.662
89.7038
89.7512
89.7062
88.7921
87.3497
85.121
82.7312
80.2393
77.1245
72.9927
68.6235
64.4525
59.9867
55.2667
51.4746
49.1599
47.1924
46.0454
46.414
47.1499
48.5742
51.2617
54.7014
59.1985
63.5998
67.8533
72.272
77.2822
80.8106
82.6298
83.7877
83.8963
83.3541
83.0381
83.1283
82.7349
82.2252
82.5551
83.0599
82.8079
80.7267
77.2163
73.235
69.6525
66.7442
64.5971
63.9683
64.5494
66.0237
68.3279
70.5896
72.5926
74.6069
76.0254
76.3368
75.5909
74.0246
70.7527
65.5679
59.4922
44.4425
32.4086
7.40741
72.3626
75.7793
79.1902
83.5316
88.8507
93.5528
97.6704
100.531
102.156
100.913
96.8892
89.0563
74.4016
59
50.0489
44.4123
39.478
37.6566
35.4955
31.0426
27.087
24.7738
23.7454
23.9876
25.3548
27.68
30.5638
34.0361
38.2196
42.3715
45.9769
49.4216
53.1705
56.5933
59.544
62.9146
66.0925
68.7082
71.4681
74.0916
75.9981
77.2082
77.8195
77.2034
74.983
71.5868
67.046
60.8754
53.051
44.5186
36.5668
29.4937
23.2181
18.1434
14.5979
13.3575
14.6927
17.8815
21.8689
27.7575
36.3566
45.6154
53.9094
61.2971
68.1263
74.4103
79.4498
84.0476
87.4537
89.8614
91.9922
93.3562
94.6353
95.9595
96.4526
96.4521
96.6409
96.5945
96.1017
96.0226
96.1511
95.6534
94.5585
92.7588
89.7157
85.789
80.7669
74.1728
67.9131
63.6087
60.0045
56.4593
53.5965
51.5534
50.2738
49.8771
50.1289
51.5572
54.7696
58.8578
63.4423
68.501
73.3952
77.1566
80.3773
83.2989
85.3733
86.2413
86.1428
85.1111
83.644
81.325
77.6337
73.8461
70.1393
65.7414
60.4952
54.902
50.0769
45.3603
39.6219
34.0182
30.8121
30.5898
32.3785
35.6063
40.3211
46.3449
53.2323
60.3045
67.1391
73.7171
80.4889
85.4283
88.7922
89.5936
89.5734
89.7019
89.719
89.9985
89.8086
88.6753
86.5654
84.302
81.8877
78.8025
74.8492
70.6753
66.6402
62.3489
57.6549
53.7661
51.4694
49.4562
48.182
48.586
49.3013
50.3674
53.1219
56.682
60.8201
65.16
69.5067
73.7307
78.3073
81.6283
83.3837
84.3253
84.5066
83.9147
83.4619
83.5272
82.7885
82.1648
82.5345
82.7526
82.0979
79.4129
75.0748
70.5765
66.7273
63.5306
61.2903
60.8042
61.6598
63.4765
66.0784
68.6452
70.8434
72.9231
74.3034
74.6095
73.7366
72.1224
68.7356
63.1033
58.1474
42.2881
30.3536
9.03806
73.7147
77.0646
79.9789
83.4005
88.352
92.6784
96.4835
99.0125
100.312
99.1851
95.1506
88.2043
75.1723
60.7272
52.2563
46.9549
41.5238
39.2271
37.6263
33.719
29.7831
27.6284
27.0575
27.5968
28.9957
31.2382
33.9347
36.8824
40.3914
44.2366
47.6352
50.6919
54.1398
57.404
60.1988
63.4968
66.7004
69.3654
72.155
74.8803
76.9691
78.2883
78.9073
78.2264
75.8811
72.237
67.3345
60.6628
52.3006
43.3698
35.1398
27.8935
21.4076
16.0492
12.4354
11.3513
12.797
15.9686
19.9509
26.0404
34.8647
44.2866
52.8702
60.5462
67.652
74.02
79.2128
83.9941
87.4131
89.936
92.1182
93.4972
94.8503
96.1827
96.6507
96.6138
96.6689
96.472
95.9472
95.8829
96.0788
95.6896
94.7997
93.2534
90.5484
87.0987
82.474
76.2018
70.1895
65.9301
62.31
58.8481
56.2491
54.4409
53.2496
53.0666
53.542
54.9112
57.9801
62.0153
66.4935
71.1675
75.5879
79.1402
82.1288
84.734
86.629
87.3871
87.1051
85.9638
84.3967
81.8561
77.9004
73.9283
70.0715
65.3905
59.9808
54.3178
49.5144
44.8715
39.1061
33.3336
29.9632
29.7002
31.5859
35.0172
39.8931
46.0198
53.0292
60.1692
67.0068
73.6978
80.5374
85.4395
88.7542
89.7134
89.5525
89.6357
89.7649
90.3309
90.7416
90.0637
88.1836
85.9882
83.6265
80.5257
76.7285
72.8004
68.8222
64.6352
60.0743
56.1647
53.8399
51.8055
50.4283
50.8176
51.5739
52.4156
55.1009
58.8473
62.6667
66.8522
71.2352
75.3526
79.4456
82.6523
84.346
85.1325
85.2827
84.6481
84.0465
84
82.9427
82.2084
82.4578
82.1325
81.004
77.9426
72.8236
67.6777
63.7179
60.3559
57.9749
57.6851
58.9082
61.1047
64.067
66.8765
69.2256
71.4373
72.8302
73.0754
72.1158
70.4046
67.2005
60.7593
57.0354
40.8536
28.4141
9.81156
75.0444
78.2587
80.5278
83.041
87.5518
91.491
95.0431
97.3181
98.2425
97.2978
93.2753
87.0298
75.8146
62.4286
54.2859
49.4904
43.9869
40.9394
39.7288
36.5996
32.9492
30.8094
30.5316
31.3481
32.6345
34.5994
37.0854
39.6456
42.5315
45.9909
49.1993
51.9556
55.0939
58.1961
60.8774
64.0863
67.296
70.0198
72.8415
75.6901
78.0072
79.4972
80.1131
79.339
76.853
72.9705
67.6723
60.5333
51.7433
42.4381
33.9934
26.5925
19.9152
14.3204
10.696
9.78575
11.3138
14.4309
18.4323
24.7326
33.6835
43.2179
52.0543
59.9658
67.3127
73.7168
79.1022
84.0112
87.4289
90.1076
92.3173
93.6956
95.128
96.4668
96.8833
96.7756
96.6932
96.36
95.8117
95.776
96.0215
95.7618
95.119
93.825
91.5233
88.5791
84.3084
78.423
72.7469
68.548
64.8799
61.4591
59.0279
57.3649
56.235
56.2104
56.915
58.2971
61.2144
65.1623
69.526
73.8394
77.7854
81.0859
83.8972
86.2483
87.9417
88.6072
88.1818
86.9029
85.2437
82.4705
78.2721
74.113
70.0531
65.1413
59.5203
53.7959
49.0817
44.5891
38.9018
33.102
29.5691
29.1869
31.1191
34.7016
39.7083
45.9214
53.0193
60.2834
66.9762
73.8565
80.6217
85.6998
88.8205
89.8582
89.5688
89.515
89.853
90.7741
91.645
91.3626
89.7654
87.6824
85.3678
82.2362
78.5651
74.9079
70.9802
66.8051
62.4648
58.6867
56.3041
54.1909
52.7739
53.1564
53.9335
54.6812
57.2311
61.1192
64.7479
68.7044
73.0413
77.0425
80.7288
83.7664
85.3911
86.0918
86.1312
85.4076
84.7266
84.5535
83.2526
82.3996
82.3914
81.3538
79.5434
76.194
70.5924
64.7622
60.6402
57.296
54.8567
54.7256
56.3484
59.0102
62.3426
65.3544
67.9015
70.2172
71.5827
71.7555
70.7265
68.8334
66.128
58.5905
55.9629
39.868
26.4606
10.1138
76.1682
79.1508
80.9363
82.6424
86.6578
90.1421
93.4515
95.5797
96.0949
95.3582
91.5295
85.8104
76.4746
64.4517
56.4525
52.0454
46.8892
43.2737
41.9198
39.6596
36.5221
34.3487
34.1097
35.0221
36.1241
37.7518
40.0269
42.2878
44.6614
47.6891
50.673
53.1931
56.0576
58.9755
61.5143
64.6057
67.8353
70.6384
73.5264
76.5226
79.0914
80.7647
81.397
80.5196
77.8645
73.7504
68.0762
60.4947
51.3534
41.7779
33.1081
25.5772
18.7423
12.9897
9.39903
8.61898
10.2008
13.2698
17.3189
23.8347
32.8434
42.4226
51.4375
59.5378
67.0507
73.4683
79.0914
84.1003
87.5288
90.3395
92.5409
93.9378
95.4453
96.7548
97.0982
96.9058
96.7079
96.2761
95.7216
95.7124
95.9971
95.9137
95.5217
94.4733
92.6504
90.1926
86.224
80.8264
75.544
71.4229
67.7367
64.333
61.9841
60.4197
59.3241
59.3868
60.289
61.7181
64.4852
68.2858
72.4998
76.4696
79.9823
83.002
85.6323
87.8288
89.3158
89.8819
89.3518
87.9366
86.1671
83.1788
78.7313
74.434
70.1116
64.9763
59.1772
53.3568
48.7697
44.5236
39.0022
33.2681
29.6284
29.0906
31.0001
34.6528
39.7648
46.0555
53.2446
60.6178
67.0783
74.1036
80.6864
86.0187
88.8702
89.9374
89.5641
89.42
89.9619
91.2978
92.601
92.6313
91.3223
89.377
87.0761
83.8929
80.2518
76.8918
73.1075
68.9218
64.8581
61.3025
58.8228
56.6119
55.215
55.6032
56.3682
57.114
59.5536
63.456
66.9892
70.6823
74.9085
78.7799
82.161
84.8749
86.4326
87.0803
87.0366
86.139
85.3794
85.1413
83.6833
82.7827
82.4305
80.7508
78.1428
74.3273
68.4382
62.0348
57.6703
54.4514
52.0717
51.9931
54.0887
57.2612
60.8875
64.091
66.8958
69.3057
70.5712
70.6696
69.5556
67.2891
65.5032
56.593
54.6328
39.0942
24.6194
10.3307
77.0855
79.7522
81.2806
82.3567
85.8448
88.9443
91.852
93.9067
94.0895
93.4244
90.0404
84.7376
77.0693
66.7018
58.8042
54.5433
50.0575
46.0822
44.3171
42.7858
40.2878
38.0919
37.6362
38.4539
39.4217
40.7309
42.7631
44.8045
46.7646
49.345
52.0544
54.3732
56.9891
59.6791
62.0926
65.0936
68.3416
71.2459
74.2429
77.375
80.1813
82.0473
82.6853
81.7003
78.8888
74.549
68.5493
60.6031
51.1489
41.3769
32.5151
24.8657
17.9084
12.0625
8.50669
7.82123
9.39584
12.4231
16.6171
23.335
32.3264
41.9207
51.0778
59.3191
66.9134
73.3291
79.1454
84.1641
87.5784
90.5173
92.7425
94.1708
95.7352
97.0219
97.305
97.0242
96.7278
96.2418
95.6992
95.7042
96.0439
96.1789
95.999
95.2084
93.9128
91.873
88.2029
83.3739
78.5245
74.5195
70.8718
67.4827
65.1624
63.6652
62.5694
62.6394
63.6943
65.1753
67.7742
71.3671
75.3728
79.0086
82.1489
84.903
87.3203
89.4119
90.7451
91.1974
90.5772
89.0672
87.1607
83.9433
79.2629
74.8217
70.2986
64.9189
58.9745
53.0339
48.5609
44.6048
39.3891
33.7879
30.0927
29.3922
31.2209
34.8942
40.0746
46.4228
53.7609
61.127
67.4275
74.41
80.7977
86.2602
88.9188
89.9529
89.5118
89.3647
90.0813
91.7933
93.5288
93.9285
92.8673
91.0769
88.7729
85.5005
81.8607
78.7542
75.1982
71.0376
67.1848
63.8863
61.3541
59.0909
57.7565
58.1306
58.8606
59.6531
62.0583
65.8751
69.3345
72.7593
76.8078
80.5386
83.6474
85.9827
87.5046
88.0627
87.9703
86.8887
85.9431
85.6721
84.0541
83.2139
82.6114
80.3939
77.0752
72.5691
66.3183
59.5822
55.0348
51.9211
49.7661
49.7614
52.2317
55.8617
59.7244
63.1154
66.1373
68.6481
69.8786
69.826
68.7715
65.6751
65.2291
54.8221
52.6963
38.3013
23.0652
10.724
77.7787
80.1367
81.6207
82.2479
85.1424
87.9431
90.3175
92.3169
92.3441
91.5908
88.8376
83.899
77.4303
68.7921
61.2258
56.9635
53.1892
49.1996
47.0146
45.8231
43.9044
41.7729
40.9608
41.5945
42.5259
43.6069
45.3169
47.1634
48.8195
50.9643
53.376
55.4895
57.8848
60.3488
62.633
65.575
68.8223
71.7954
74.921
78.2252
81.2314
83.2695
83.9243
82.8459
79.8777
75.3383
69.0709
60.8481
51.1916
41.2134
32.2173
24.47
17.4448
11.5439
8.01764
7.33273
8.91488
11.9382
16.298
23.2053
32.1723
41.7545
50.9589
59.2648
66.8895
73.3322
79.3069
84.2643
87.719
90.781
92.9867
94.4407
96.0883
97.3494
97.5322
97.1357
96.7655
96.2699
95.7517
95.7764
96.203
96.5522
96.5271
96.0229
95.2469
93.5327
90.193
85.9845
81.5991
77.766
74.2226
70.8649
68.5451
67.1022
65.9938
65.9867
67.1327
68.6481
71.042
74.3686
78.1068
81.4122
84.2426
86.7865
88.9902
90.9672
92.2032
92.5478
91.8531
90.2749
88.1931
84.7297
79.8856
75.2512
70.5509
64.9808
58.9092
52.8277
48.4438
44.7752
39.9404
34.6011
30.9079
30.0496
31.762
35.4304
40.6489
47.0704
54.5396
61.7396
68.0487
74.7402
81.01
86.445
88.9437
89.9075
89.4382
89.2938
90.2068
92.2497
94.3793
95.1773
94.3135
92.713
90.4231
87.0753
83.4769
80.5443
77.2109
73.0448
69.3378
66.3687
63.869
61.588
60.3351
60.6892
61.3992
62.2816
64.7098
68.3664
71.7238
74.9093
78.7298
82.2888
85.095
87.1067
88.5798
89.0298
88.8609
87.6578
86.4923
86.0797
84.2681
83.4311
82.7601
80.1331
76.1141
71.0794
64.3129
57.3664
52.8119
49.8697
47.8291
48.0391
50.7896
54.8114
58.9051
62.4461
65.7637
68.3314
69.3337
69.0522
68.3534
63.9248
64.8723
53.1732
49.9862
37.5158
22.2274
11.6069
78.3787
80.3628
81.8296
82.2113
84.5063
87.082
88.9587
90.855
90.836
89.9486
87.8126
83.3049
77.6171
70.5191
63.5832
59.2659
55.9717
52.3302
49.8666
48.6151
47.119
45.1495
44.089
44.5696
45.4662
46.3325
47.7148
49.3738
50.8411
52.5925
54.652
56.571
58.7486
60.9751
63.1049
65.9825
69.2213
72.2464
75.4999
79.0002
82.2
84.3738
85.0385
83.891
80.7735
76.0762
69.6124
61.2154
51.4218
41.322
32.22
24.4161
17.3746
11.4635
7.93057
7.217
8.73862
11.8063
16.3964
23.4298
32.3432
41.8842
51.0392
59.3571
66.9474
73.452
79.5734
84.4408
87.9503
91.0795
93.2452
94.7685
96.4741
97.669
97.7224
97.2206
96.8204
96.3657
95.9015
95.9525
96.4669
96.9812
97.0896
96.8817
96.5549
95.0915
92.1351
88.5574
84.6516
81.0742
77.689
74.3988
72.0746
70.6762
69.5708
69.4117
70.5655
72.0756
74.2323
77.2523
80.6869
83.6604
86.2235
88.613
90.6656
92.499
93.6698
93.9172
93.1743
91.5314
89.257
85.5762
80.6241
75.7583
70.8134
65.0959
58.9492
52.7425
48.3958
45.0037
40.5925
35.5859
31.9826
31.014
32.6178
36.2581
41.4839
48.0227
55.571
62.4913
68.8967
75.0794
81.3807
86.4806
88.8636
89.8222
89.3761
89.2092
90.375
92.7449
95.1726
96.2609
95.5671
94.2254
92.0282
88.61
85.0632
82.2433
79.0402
74.9146
71.3792
68.7278
66.3271
64.0574
62.9023
63.256
63.9729
64.9736
67.4442
70.9249
74.1185
77.103
80.6254
83.9661
86.4533
88.2209
89.5531
89.9209
89.6514
88.3534
87.0932
86.3642
84.4518
83.3948
82.6498
79.8044
75.071
69.7932
62.6707
55.5538
50.9984
48.2436
46.4311
46.7862
49.7351
54.0258
58.2733
62.1124
65.7044
68.2905
69.1081
68.2123
68.3836
62.1849
64.2028
51.6349
46.5159
36.645
22.3725
13.2116
78.9491
80.5623
81.9168
82.1963
83.9604
86.3192
87.8063
89.5019
89.5424
88.5243
86.8409
82.8857
77.7786
71.9115
65.7694
61.3982
58.3562
55.253
52.5966
51.1078
49.9476
48.2399
47.1554
47.4415
48.1748
48.8865
50.0223
51.4884
52.7941
54.2095
55.8854
57.582
59.5638
61.5451
63.4819
66.2806
69.5272
72.5936
75.9739
79.6824
83.0535
85.3274
85.9974
84.7685
81.5258
76.7245
70.1425
61.6718
51.8064
41.6842
32.516
24.7141
17.6967
11.8704
8.28802
7.48802
8.97807
12.0953
16.8819
23.9992
32.8823
42.3477
51.3754
59.6632
67.1531
73.6782
79.8291
84.536
88.0919
91.3129
93.4619
95.0203
96.7398
97.9245
97.899
97.3121
96.9033
96.5256
96.1389
96.2269
96.8121
97.4403
97.6801
97.7498
97.7699
96.5304
93.9931
90.9865
87.5888
84.3461
81.1349
77.9659
75.6511
74.2754
73.1901
72.8453
73.938
75.3898
77.2831
79.977
83.087
85.7649
88.0852
90.3468
92.3147
94.0234
95.1341
95.3141
94.508
92.7986
90.39
86.5385
81.4634
76.4132
71.1399
65.29
59.0329
52.782
48.444
45.2562
41.2928
36.6787
33.2316
32.2207
33.7512
37.3449
42.5957
49.2809
56.8177
63.3931
69.8716
75.4461
81.7965
86.3188
88.7898
89.7485
89.319
89.1557
90.5845
93.2284
95.8509
97.0524
96.5548
95.6146
93.632
90.1469
86.5764
83.8103
80.7195
76.7455
73.3647
70.9579
68.6872
66.4675
65.4604
65.8359
66.5519
67.7045
70.2108
73.4991
76.4918
79.2848
82.4874
85.5457
87.7191
89.2711
90.3945
90.6984
90.3055
88.8727
87.6168
86.5768
84.6603
83.1886
82.2891
79.2485
73.9629
68.4967
61.4598
54.2346
49.7452
47.0173
45.5393
46.0283
49.1201
53.5191
57.8365
62.0255
66.0869
68.224
69.3413
67.1935
68.6703
60.331
62.6071
50.3958
42.5735
35.8233
23.6015
15.6311
79.372
80.8038
82.0327
82.2601
83.4707
85.6024
86.8141
88.2292
88.4012
87.3425
85.9312
82.5703
77.9931
73.0053
67.6504
63.2909
60.4339
57.814
55.08
53.4735
52.5333
51.14
50.1061
50.1334
50.6964
51.3468
52.2677
53.5028
54.6629
55.7912
57.0855
58.536
60.318
62.0559
63.8001
66.4919
69.7212
72.8271
76.3049
80.1853
83.7265
86.0918
86.7697
85.4381
82.1119
77.2461
70.616
62.1361
52.3758
42.2808
33.1159
25.302
18.4176
12.6883
9.14168
8.22224
9.65221
12.8411
17.7859
24.9392
33.7599
43.062
51.8949
60.1067
67.4907
74.0331
80.1291
84.6673
88.3205
91.5928
93.6717
95.2773
97.0795
98.2594
98.1175
97.4177
97.0005
96.7278
96.4534
96.6103
97.2536
97.9532
98.2998
98.6091
98.854
97.8267
95.6905
93.1767
90.3319
87.4374
84.3945
81.4349
79.1688
77.7896
76.7374
76.2057