/*--------------------------------*- C++ -*----------------------------------*\
| =========                 |                                                 |
| \\      /  F ield         | OpenFOAM: The Open Source CFD Toolbox           |
|  \\    /   O peration     | Version:  2.4.0                                 |
|   \\  /    A nd           | Web:      www.OpenFOAM.org                      |
|    \\/     M anipulation  |                                                 |
\*---------------------------------------------------------------------------*/
FoamFile
{
    version     2.0;
    format      ascii;
    class       surfaceScalarField;
    location    "0.143";
    object      phi;
}
// * * * * * * * * * * * * * * * * * * * * * * * * * * * * * * * * * * * * * //

dimensions      [0 3 -1 0 0 0 0];

internalField   nonuniform List<scalar> 
34880
(
5.48652e-06
7.01348e-06
3.12501e-06
2.36151e-06
2.4737e-06
6.51316e-07
2.21572e-06
2.57973e-07
2.07996e-06
1.35762e-07
1.96139e-06
1.18572e-07
1.88871e-06
7.26766e-08
1.82069e-06
6.80215e-08
1.7745e-06
4.61914e-08
1.73414e-06
4.03553e-08
1.71385e-06
2.02909e-08
1.67963e-06
3.42244e-08
1.65776e-06
2.18701e-08
1.65027e-06
7.49305e-09
1.65744e-06
-7.17086e-09
1.63356e-06
2.38774e-08
1.70663e-06
-7.30703e-08
1.80623e-06
-9.95996e-08
1.97685e-06
-1.70624e-07
-3.63245e-07
2.3401e-06
1.011e-05
9.40349e-06
7.8286e-06
4.6429e-06
6.70978e-06
1.77013e-06
6.06047e-06
9.07283e-07
5.65058e-06
5.45659e-07
5.34084e-06
4.28309e-07
5.12379e-06
2.89721e-07
4.94556e-06
2.46254e-07
4.80311e-06
1.88643e-07
4.70372e-06
1.39742e-07
4.61775e-06
1.06262e-07
4.53191e-06
1.2006e-07
4.4789e-06
7.48852e-08
4.42176e-06
6.4633e-08
4.4153e-06
-7.15837e-10
4.34797e-06
9.12168e-08
4.4694e-06
-1.94501e-07
4.53361e-06
-1.63816e-07
4.78701e-06
-4.24026e-07
-1.04786e-06
5.47163e-06
1.24271e-05
9.47635e-06
1.10012e-05
6.06889e-06
9.97826e-06
2.79302e-06
9.20134e-06
1.6842e-06
8.62048e-06
1.12652e-06
8.183e-06
8.65792e-07
7.85433e-06
6.18393e-07
7.59811e-06
5.02473e-07
7.37275e-06
4.14003e-07
7.23113e-06
2.81354e-07
7.08501e-06
2.5239e-07
6.95707e-06
2.47994e-07
6.88231e-06
1.49648e-07
6.77389e-06
1.73047e-07
6.75475e-06
1.8427e-08
6.64779e-06
1.98182e-07
6.77854e-06
-3.25258e-07
6.8187e-06
-2.03967e-07
6.94375e-06
-5.49082e-07
-2.16749e-06
8.06338e-06
1.34162e-05
8.56015e-06
1.28881e-05
6.59694e-06
1.23219e-05
3.35924e-06
1.17182e-05
2.28796e-06
1.11308e-05
1.71391e-06
1.06553e-05
1.3413e-06
1.02648e-05
1.00889e-06
9.96661e-06
8.00647e-07
9.6824e-06
6.98213e-07
9.51034e-06
4.53406e-07
9.32627e-06
4.36463e-07
9.15504e-06
4.19225e-07
9.07187e-06
2.32815e-07
8.9219e-06
3.23022e-07
8.88469e-06
5.56336e-08
8.75265e-06
3.30224e-07
8.86909e-06
-4.41701e-07
8.91308e-06
-2.47955e-07
8.90485e-06
-5.40857e-07
-3.33223e-06
1.00696e-05
1.35947e-05
7.46548e-06
1.36646e-05
6.52707e-06
1.3616e-05
3.40776e-06
1.3408e-05
2.49598e-06
1.30093e-05
2.1126e-06
1.26287e-05
1.72195e-06
1.22575e-05
1.38007e-06
1.19748e-05
1.08334e-06
1.1677e-05
9.95992e-07
1.14902e-05
6.40191e-07
1.13044e-05
6.22281e-07
1.10996e-05
6.24026e-07
1.10181e-05
3.14324e-07
1.08526e-05
4.88553e-07
1.07906e-05
1.17593e-07
1.06517e-05
4.69099e-07
1.07561e-05
-5.46127e-07
1.07711e-05
-2.62907e-07
1.07887e-05
-5.58511e-07
-4.4586e-06
1.19151e-05
1.34863e-05
6.47921e-06
1.37688e-05
6.2445e-06
1.39854e-05
3.19121e-06
1.41609e-05
2.32046e-06
1.40626e-05
2.21093e-06
1.3912e-05
1.87255e-06
1.36726e-05
1.61948e-06
1.34842e-05
1.27171e-06
1.32487e-05
1.2315e-06
1.30753e-05
8.13586e-07
1.29352e-05
7.62365e-07
1.27261e-05
8.33099e-07
1.26544e-05
3.86066e-07
1.25117e-05
6.31207e-07
1.24256e-05
2.03739e-07
1.22951e-05
5.99595e-07
1.24107e-05
-6.61693e-07
1.23471e-05
-1.99362e-07
1.2434e-05
-6.45372e-07
-5.69961e-06
1.3675e-05
1.33603e-05
5.61887e-06
1.37313e-05
5.87359e-06
1.39154e-05
3.00708e-06
1.42561e-05
1.9797e-06
1.43591e-05
2.10798e-06
1.44331e-05
1.79853e-06
1.43791e-05
1.67351e-06
1.43403e-05
1.31047e-06
1.42563e-05
1.31554e-06
1.41408e-05
9.29045e-07
1.41033e-05
7.99867e-07
1.39406e-05
9.95817e-07
1.38932e-05
4.33459e-07
1.38182e-05
7.06189e-07
1.37235e-05
2.98452e-07
1.3626e-05
6.97143e-07
1.37621e-05
-7.97875e-07
1.36161e-05
-5.33654e-08
1.37785e-05
-8.07708e-07
-6.05921e-06
1.41381e-05
1.32407e-05
4.87815e-06
1.37441e-05
5.37018e-06
1.37914e-05
2.9598e-06
1.41451e-05
1.62603e-06
1.43113e-05
1.9418e-06
1.44821e-05
1.62772e-06
1.45378e-05
1.61774e-06
1.4591e-05
1.25729e-06
1.46638e-05
1.24281e-06
1.46101e-05
9.82757e-07
1.4698e-05
7.11908e-07
1.46361e-05
1.0577e-06
1.46333e-05
4.36315e-07
1.46629e-05
6.76615e-07
1.45955e-05
3.65812e-07
1.45796e-05
7.13067e-07
1.47121e-05
-9.30438e-07
1.454e-05
1.18736e-07
1.47829e-05
-1.05063e-06
-5.91593e-06
1.46397e-05
1.31212e-05
4.25696e-06
1.36878e-05
4.80354e-06
1.37129e-05
2.9347e-06
1.40187e-05
1.32025e-06
1.42039e-05
1.75657e-06
1.43861e-05
1.44559e-06
1.45025e-05
1.50131e-06
1.45723e-05
1.18748e-06
1.47252e-05
1.08988e-06
1.46858e-05
1.02223e-06
1.48194e-05
5.78298e-07
1.4848e-05
1.02909e-06
1.48899e-05
3.94358e-07
1.49902e-05
5.76334e-07
1.49816e-05
3.74415e-07
1.51063e-05
5.88431e-07
1.5158e-05
-9.82143e-07
1.50574e-05
2.19321e-07
1.55045e-05
-1.49774e-06
-6.70611e-06
1.62947e-05
1.30324e-05
3.72458e-06
1.35937e-05
4.24226e-06
1.36656e-05
2.86277e-06
1.39216e-05
1.0642e-06
1.41221e-05
1.55607e-06
1.42538e-05
1.31396e-06
1.44107e-05
1.34442e-06
1.44957e-05
1.10244e-06
1.46845e-05
9.01102e-07
1.46695e-05
1.03716e-06
1.47698e-05
4.78045e-07
1.48205e-05
9.78389e-07
1.49122e-05
3.02607e-07
1.49681e-05
5.2043e-07
1.5038e-05
3.04544e-07
1.53013e-05
3.25183e-07
1.51515e-05
-8.32359e-07
1.52606e-05
1.10217e-07
1.58165e-05
-2.05369e-06
-6.94972e-06
1.60601e-05
1.29933e-05
3.23125e-06
1.35085e-05
3.72712e-06
1.3619e-05
2.75221e-06
1.38557e-05
8.27562e-07
1.40665e-05
1.3452e-06
1.41457e-05
1.23477e-06
1.4295e-05
1.1952e-06
1.43944e-05
1.00302e-06
1.45999e-05
6.95574e-07
1.46474e-05
9.89716e-07
1.46942e-05
4.31229e-07
1.47438e-05
9.28784e-07
1.48888e-05
1.57606e-07
1.4852e-05
5.57157e-07
1.50163e-05
1.40254e-07
1.52813e-05
6.02658e-08
1.49949e-05
-5.45966e-07
1.53945e-05
-2.89382e-07
1.58597e-05
-2.51892e-06
-6.69987e-06
1.56098e-05
1.29777e-05
2.75359e-06
1.34371e-05
3.26766e-06
1.35701e-05
2.61925e-06
1.37996e-05
5.98022e-07
1.4014e-05
1.13079e-06
1.40855e-05
1.1633e-06
1.42027e-05
1.07801e-06
1.42908e-05
9.14927e-07
1.45033e-05
4.83029e-07
1.46015e-05
8.91557e-07
1.46037e-05
4.29036e-07
1.47211e-05
8.11359e-07
1.48146e-05
6.40818e-08
1.47743e-05
5.97464e-07
1.49795e-05
-6.48716e-08
1.50981e-05
-5.83862e-08
1.49418e-05
-3.89624e-07
1.54688e-05
-8.16441e-07
1.56927e-05
-2.74281e-06
-6.20057e-06
1.51934e-05
1.29398e-05
2.3138e-06
1.33587e-05
2.84873e-06
1.3556e-05
2.42199e-06
1.37567e-05
3.97301e-07
1.39623e-05
9.2517e-07
1.40463e-05
1.0793e-06
1.41448e-05
9.79516e-07
1.42039e-05
8.55818e-07
1.44322e-05
2.5474e-07
1.45358e-05
7.87963e-07
1.45588e-05
4.05997e-07
1.47111e-05
6.59063e-07
1.46688e-05
1.06435e-07
1.47716e-05
4.94676e-07
1.48831e-05
-1.76382e-07
1.4928e-05
-1.03308e-07
1.50425e-05
-5.041e-07
1.53953e-05
-1.16924e-06
1.54168e-05
-2.76435e-06
-5.63825e-06
1.48545e-05
1.28789e-05
1.93494e-06
1.33096e-05
2.41803e-06
1.36008e-05
2.13071e-06
1.37174e-05
2.80734e-07
1.39013e-05
7.41289e-07
1.40023e-05
9.78273e-07
1.41085e-05
8.73312e-07
1.41586e-05
8.05699e-07
1.43949e-05
1.84901e-08
1.44699e-05
7.12989e-07
1.45457e-05
3.30109e-07
1.46281e-05
5.76722e-07
1.45762e-05
1.58286e-07
1.47898e-05
2.81144e-07
1.47706e-05
-1.57211e-07
1.49056e-05
-2.38346e-07
1.5105e-05
-7.03434e-07
1.52144e-05
-1.27868e-06
1.51918e-05
-2.74178e-06
-5.27485e-06
1.48284e-05
1.28415e-05
1.59349e-06
1.33053e-05
1.9542e-06
1.35967e-05
1.83928e-06
1.36607e-05
2.16735e-07
1.3833e-05
5.69037e-07
1.39734e-05
8.37795e-07
1.41005e-05
7.4627e-07
1.41492e-05
7.5696e-07
1.43505e-05
-1.82766e-07
1.44125e-05
6.50994e-07
1.44982e-05
2.44392e-07
1.45465e-05
5.28425e-07
1.45866e-05
1.18184e-07
1.47614e-05
1.0632e-07
1.46974e-05
-9.31693e-08
1.4941e-05
-4.81965e-07
1.50163e-05
-7.78713e-07
1.50541e-05
-1.31651e-06
1.51018e-05
-2.78945e-06
-5.14637e-06
1.49733e-05
1.28323e-05
1.26123e-06
1.32774e-05
1.50903e-06
1.35487e-05
1.56804e-06
1.36218e-05
1.43609e-07
1.38009e-05
3.89908e-07
1.39637e-05
6.75007e-07
1.40894e-05
6.20578e-07
1.41365e-05
7.09858e-07
1.42963e-05
-3.42509e-07
1.43714e-05
5.75813e-07
1.4435e-05
1.80867e-07
1.45391e-05
4.24264e-07
1.46018e-05
5.55107e-08
1.46685e-05
3.95805e-08
1.47008e-05
-1.25422e-07
1.49125e-05
-6.93652e-07
1.49021e-05
-7.68343e-07
1.4971e-05
-1.38538e-06
1.50898e-05
-2.90829e-06
-5.15107e-06
1.50945e-05
1.28045e-05
9.56754e-07
1.32097e-05
1.1038e-06
1.35295e-05
1.24821e-06
1.36333e-05
3.98763e-08
1.37923e-05
2.30895e-07
1.39297e-05
5.37607e-07
1.4056e-05
4.94265e-07
1.41278e-05
6.38004e-07
1.42749e-05
-4.89592e-07
1.43354e-05
5.15373e-07
1.43941e-05
1.22143e-07
1.45613e-05
2.57063e-07
1.45455e-05
7.13397e-08
1.45939e-05
-8.87437e-09
1.47691e-05
-3.00624e-07
1.48108e-05
-7.35322e-07
1.48339e-05
-7.91429e-07
1.49718e-05
-1.52325e-06
1.49613e-05
-2.89779e-06
-3.77299e-06
1.35832e-05
1.27634e-05
6.9331e-07
1.31865e-05
6.80788e-07
1.35567e-05
8.78013e-07
1.36411e-05
-4.46177e-08
1.37549e-05
1.17103e-07
1.3877e-05
4.15498e-07
1.40474e-05
3.23923e-07
1.41512e-05
5.34227e-07
1.42495e-05
-5.87975e-07
1.42903e-05
4.74619e-07
1.43743e-05
3.8106e-08
1.45541e-05
7.72953e-08
1.44653e-05
1.60153e-07
1.46343e-05
-1.77861e-07
1.4766e-05
-4.32379e-07
1.47236e-05
-6.92926e-07
1.48355e-05
-9.03271e-07
1.4991e-05
-1.67874e-06
1.49447e-05
-2.8515e-06
-3.99465e-06
1.51663e-05
1.27554e-05
4.37913e-07
1.32074e-05
2.28763e-07
1.35584e-05
5.27049e-07
1.3615e-05
-1.0123e-07
1.37218e-05
1.03096e-08
1.38593e-05
2.77971e-07
1.40693e-05
1.13974e-07
1.41579e-05
4.45574e-07
1.41924e-05
-6.2243e-07
1.42554e-05
4.11561e-07
1.43928e-05
-9.92735e-08
1.4497e-05
-2.69307e-08
1.44613e-05
1.95912e-07
1.46906e-05
-4.07195e-07
1.46927e-05
-4.34446e-07
1.46783e-05
-6.78508e-07
1.48712e-05
-1.0962e-06
1.49478e-05
-1.75531e-06
1.4871e-05
-2.7747e-06
-4.14181e-06
1.50181e-05
1.27679e-05
1.7003e-07
1.3206e-05
-2.0936e-07
1.35303e-05
2.0274e-07
1.36036e-05
-1.74467e-07
1.37246e-05
-1.10727e-07
1.38707e-05
1.31876e-07
1.40643e-05
-7.96364e-08
1.41328e-05
3.77081e-07
1.41461e-05
-6.35748e-07
1.42996e-05
2.58019e-07
1.43937e-05
-1.93327e-07
1.44508e-05
-8.40648e-08
1.4511e-05
1.35726e-07
1.46636e-05
-5.59759e-07
1.4624e-05
-3.94816e-07
1.47206e-05
-7.75162e-07
1.48536e-05
-1.22914e-06
1.48841e-05
-1.78583e-06
1.48663e-05
-2.75689e-06
-4.27985e-06
1.50043e-05
1.27724e-05
-1.02383e-07
1.31929e-05
-6.29895e-07
1.35213e-05
-1.25649e-07
1.36138e-05
-2.66978e-07
1.37376e-05
-2.34457e-07
1.38742e-05
-4.71935e-09
1.40395e-05
-2.45012e-07
1.41105e-05
3.06097e-07
1.41653e-05
-6.90485e-07
1.4364e-05
5.93127e-08
1.43522e-05
-1.81597e-07
1.44456e-05
-1.774e-07
1.45446e-05
3.67088e-08
1.45977e-05
-6.12813e-07
1.46556e-05
-4.52789e-07
1.47444e-05
-8.63892e-07
1.48362e-05
-1.32103e-06
1.48489e-05
-1.79845e-06
1.48534e-05
-2.76143e-06
-4.60116e-06
1.51747e-05
1.27744e-05
-3.76801e-07
1.31943e-05
-1.04977e-06
1.35319e-05
-4.63301e-07
1.36311e-05
-3.66182e-07
1.37455e-05
-3.4876e-07
1.38655e-05
-1.24739e-07
1.40263e-05
-4.05853e-07
1.41243e-05
2.08062e-07
1.42209e-05
-7.87086e-07
1.43659e-05
-8.56809e-08
1.4321e-05
-1.3667e-07
1.44653e-05
-3.21654e-07
1.45482e-05
-4.61926e-08
1.45807e-05
-6.45301e-07
1.47204e-05
-5.92498e-07
1.4738e-05
-8.81484e-07
1.48302e-05
-1.41323e-06
1.48157e-05
-1.78398e-06
1.4737e-05
-2.68278e-06
-3.46377e-06
1.35997e-05
1.27849e-05
-6.6167e-07
1.32078e-05
-1.47269e-06
1.35499e-05
-8.05456e-07
1.36478e-05
-4.64031e-07
1.37437e-05
-4.44643e-07
1.38683e-05
-2.49332e-07
1.40284e-05
-5.66021e-07
1.41742e-05
6.23025e-08
1.4242e-05
-8.54917e-07
1.43401e-05
-1.8371e-07
1.43247e-05
-1.21311e-07
1.44963e-05
-4.93303e-07
1.45419e-05
-9.17091e-08
1.46302e-05
-7.33599e-07
1.47201e-05
-6.82423e-07
1.47447e-05
-9.06106e-07
1.47903e-05
-1.45881e-06
1.48468e-05
-1.84045e-06
1.48867e-05
-2.72271e-06
-3.60946e-06
1.50324e-05
1.28038e-05
-9.65427e-07
1.32318e-05
-1.90074e-06
1.35728e-05
-1.14642e-06
1.36533e-05
-5.44585e-07
1.3748e-05
-5.39336e-07
1.38941e-05
-3.95422e-07
1.40495e-05
-7.21362e-07
1.42148e-05
-1.03059e-07
1.42394e-05
-8.79469e-07
1.43336e-05
-2.77942e-07
1.43602e-05
-1.47901e-07
1.45132e-05
-6.46332e-07
1.45714e-05
-1.49874e-07
1.46494e-05
-8.11593e-07
1.47133e-05
-7.46376e-07
1.47358e-05
-9.28555e-07
1.47954e-05
-1.51845e-06
1.49057e-05
-1.95071e-06
1.48758e-05
-2.69282e-06
-3.59035e-06
1.48567e-05
1.28299e-05
-1.29528e-06
1.32643e-05
-2.33518e-06
1.35899e-05
-1.47204e-06
1.36606e-05
-6.15299e-07
1.37755e-05
-6.54192e-07
1.39303e-05
-5.50194e-07
1.40721e-05
-8.63186e-07
1.4243e-05
-2.74006e-07
1.42448e-05
-8.81274e-07
1.43607e-05
-3.93812e-07
1.4402e-05
-1.89212e-07
1.4531e-05
-7.75308e-07
1.46088e-05
-2.27694e-07
1.46528e-05
-8.55534e-07
1.47184e-05
-8.12007e-07
1.47628e-05
-9.72978e-07
1.48496e-05
-1.60524e-06
1.49056e-05
-2.00675e-06
1.48679e-05
-2.65509e-06
-3.58216e-06
1.48597e-05
1.28638e-05
-1.65907e-06
1.33033e-05
-2.77473e-06
1.36014e-05
-1.77011e-06
1.36817e-05
-6.95573e-07
1.38156e-05
-7.88078e-07
1.39656e-05
-7.00229e-07
1.4102e-05
-9.99607e-07
1.4273e-05
-4.44939e-07
1.42702e-05
-8.78549e-07
1.43982e-05
-5.2176e-07
1.44402e-05
-2.31217e-07
1.45597e-05
-8.94841e-07
1.46385e-05
-3.06431e-07
1.46714e-05
-8.88509e-07
1.47509e-05
-8.91488e-07
1.48196e-05
-1.04171e-06
1.48666e-05
-1.65223e-06
1.49055e-05
-2.04564e-06
1.49099e-05
-2.65945e-06
-3.57815e-06
1.49059e-05
1.29055e-05
-2.0646e-06
1.33434e-05
-3.21262e-06
1.36146e-05
-2.04134e-06
1.37164e-05
-7.97331e-07
1.38569e-05
-9.28566e-07
1.40121e-05
-8.55396e-07
1.41474e-05
-1.13492e-06
1.43e-05
-5.97561e-07
1.43032e-05
-8.81748e-07
1.44359e-05
-6.54453e-07
1.44872e-05
-2.82545e-07
1.45939e-05
-1.00152e-06
1.46776e-05
-3.90175e-07
1.47165e-05
-9.27349e-07
1.47965e-05
-9.71533e-07
1.48542e-05
-1.09942e-06
1.48816e-05
-1.67962e-06
1.49443e-05
-2.10833e-06
1.49443e-05
-2.65941e-06
-3.48743e-06
1.48535e-05
1.29515e-05
-2.5161e-06
1.33852e-05
-3.64629e-06
1.36119e-05
-2.2681e-06
1.37587e-05
-9.44135e-07
1.39084e-05
-1.07819e-06
1.40748e-05
-1.02189e-06
1.41894e-05
-1.2495e-06
1.4321e-05
-7.29172e-07
1.43478e-05
-9.0854e-07
1.44833e-05
-7.89915e-07
1.45498e-05
-3.49012e-07
1.46413e-05
-1.09309e-06
1.47351e-05
-4.83914e-07
1.47719e-05
-9.64226e-07
1.48276e-05
-1.0272e-06
1.48906e-05
-1.16239e-06
1.4912e-05
-1.70099e-06
1.49815e-05
-2.17784e-06
1.49863e-05
-2.66419e-06
-3.5195e-06
1.50183e-05
1.30029e-05
-3.01898e-06
1.34352e-05
-4.07856e-06
1.36139e-05
-2.44687e-06
1.38062e-05
-1.13643e-06
1.3971e-05
-1.24292e-06
1.41325e-05
-1.18345e-06
1.42239e-05
-1.34093e-06
1.43535e-05
-8.58708e-07
1.44138e-05
-9.68835e-07
1.45449e-05
-9.21029e-07
1.46271e-05
-4.31231e-07
1.46976e-05
-1.16363e-06
1.47976e-05
-5.83892e-07
1.4816e-05
-9.82563e-07
1.4863e-05
-1.07424e-06
1.49317e-05
-1.23107e-06
1.49375e-05
-1.70683e-06
1.50199e-05
-2.26024e-06
1.50298e-05
-2.67414e-06
-3.57563e-06
1.5086e-05
1.30581e-05
-3.57711e-06
1.349e-05
-4.51047e-06
1.36504e-05
-2.60722e-06
1.38609e-05
-1.34692e-06
1.40286e-05
-1.41065e-06
1.41831e-05
-1.33798e-06
1.42773e-05
-1.4351e-06
1.44096e-05
-9.90947e-07
1.45016e-05
-1.06087e-06
1.46167e-05
-1.03615e-06
1.47068e-05
-5.21357e-07
1.47504e-05
-1.20722e-06
1.48546e-05
-6.88046e-07
1.48566e-05
-9.84604e-07
1.49059e-05
-1.12355e-06
1.49707e-05
-1.29588e-06
1.49733e-05
-1.70939e-06
1.50454e-05
-2.33234e-06
1.50479e-05
-2.67663e-06
-3.66391e-06
1.51362e-05
1.31111e-05
-4.18824e-06
1.35532e-05
-4.9525e-06
1.37045e-05
-2.75853e-06
1.39153e-05
-1.55771e-06
1.40853e-05
-1.58068e-06
1.42614e-05
-1.51413e-06
1.43591e-05
-1.5328e-06
1.4489e-05
-1.12077e-06
1.46033e-05
-1.17523e-06
1.4683e-05
-1.11589e-06
1.47749e-05
-6.13179e-07
1.48001e-05
-1.23245e-06
1.48994e-05
-7.87302e-07
1.48974e-05
-9.82642e-07
1.49457e-05
-1.17187e-06
1.49934e-05
-1.3436e-06
1.49822e-05
-1.69812e-06
1.49905e-05
-2.34066e-06
1.49538e-05
-2.63995e-06
-3.72919e-06
1.50191e-05
1.31712e-05
-4.85949e-06
1.36287e-05
-5.40995e-06
1.37654e-05
-2.89525e-06
1.39772e-05
-1.76945e-06
1.41811e-05
-1.78463e-06
1.43748e-05
-1.70786e-06
1.44536e-05
-1.61157e-06
1.45833e-05
-1.25048e-06
1.46849e-05
-1.27681e-06
1.47216e-05
-1.15262e-06
1.48124e-05
-7.03973e-07
1.48127e-05
-1.23275e-06
1.488e-05
-8.54547e-07
1.48663e-05
-9.68945e-07
1.48737e-05
-1.17934e-06
1.48598e-05
-1.32961e-06
1.47927e-05
-1.63102e-06
1.46729e-05
-2.22086e-06
1.45347e-05
-2.50179e-06
-3.76326e-06
1.45688e-05
1.32505e-05
-5.61002e-06
1.36983e-05
-5.85775e-06
1.38366e-05
-3.03352e-06
1.40831e-05
-2.01599e-06
1.43176e-05
-2.0191e-06
1.44749e-05
-1.86517e-06
1.45235e-05
-1.66016e-06
1.46184e-05
-1.34534e-06
1.46511e-05
-1.30958e-06
1.46307e-05
-1.1322e-06
1.46751e-05
-7.48397e-07
1.46011e-05
-1.15876e-06
1.45902e-05
-8.43594e-07
1.45208e-05
-8.99593e-07
1.44376e-05
-1.09608e-06
1.43312e-05
-1.22328e-06
1.41786e-05
-1.47838e-06
1.39376e-05
-1.9799e-06
1.36399e-05
-2.20404e-06
-2.80273e-06
1.26794e-05
1.33531e-05
-6.4631e-06
1.37067e-05
-6.21139e-06
1.39397e-05
-3.26644e-06
1.42168e-05
-2.29309e-06
1.43876e-05
-2.18997e-06
1.44277e-05
-1.90524e-06
1.43861e-05
-1.61853e-06
1.43538e-05
-1.31311e-06
1.42511e-05
-1.20685e-06
1.41336e-05
-1.0147e-06
1.40733e-05
-6.88079e-07
1.39032e-05
-9.88618e-07
1.38047e-05
-7.45124e-07
1.36724e-05
-7.67288e-07
1.35103e-05
-9.33995e-07
1.33376e-05
-1.05058e-06
1.31182e-05
-1.25893e-06
1.28116e-05
-1.67337e-06
1.24949e-05
-1.88737e-06
-2.60283e-06
1.2295e-05
1.34829e-05
-7.44597e-06
1.37747e-05
-6.50318e-06
1.39914e-05
-3.4832e-06
1.41484e-05
-2.4501e-06
1.40848e-05
-2.12636e-06
1.39016e-05
-1.72199e-06
1.36826e-05
-1.39958e-06
1.34795e-05
-1.11001e-06
1.32464e-05
-9.73724e-07
1.30455e-05
-8.13829e-07
1.29038e-05
-5.46326e-07
1.26814e-05
-7.66291e-07
1.25342e-05
-5.97857e-07
1.23675e-05
-6.00637e-07
1.21687e-05
-7.35178e-07
1.19613e-05
-8.43142e-07
1.17087e-05
-1.00641e-06
1.13714e-05
-1.33603e-06
1.09952e-05
-1.51121e-06
-1.90317e-06
1.02956e-05
1.35961e-05
-8.54206e-06
1.36768e-05
-6.58393e-06
1.36127e-05
-3.41904e-06
1.34078e-05
-2.24519e-06
1.30195e-05
-1.73809e-06
1.26197e-05
-1.32214e-06
1.22641e-05
-1.04403e-06
1.19618e-05
-8.07726e-07
1.1675e-05
-6.86915e-07
1.14462e-05
-5.85017e-07
1.12749e-05
-3.75013e-07
1.10459e-05
-5.37303e-07
1.08839e-05
-4.35876e-07
1.07089e-05
-4.25632e-07
1.05031e-05
-5.29404e-07
1.02844e-05
-6.24356e-07
1.00231e-05
-7.45176e-07
9.67588e-06
-9.88797e-07
9.30003e-06
-1.13536e-06
-1.35971e-06
8.75657e-06
1.34195e-05
-9.4616e-06
1.29005e-05
-6.06494e-06
1.23149e-05
-2.83335e-06
1.17216e-05
-1.65197e-06
1.11329e-05
-1.14932e-06
1.06519e-05
-8.4124e-07
1.02653e-05
-6.57422e-07
9.9527e-06
-4.9508e-07
9.67855e-06
-4.1277e-07
9.46145e-06
-3.67912e-07
9.29936e-06
-2.12926e-07
9.0931e-06
-3.3104e-07
8.938e-06
-2.80777e-07
8.77505e-06
-2.6268e-07
8.58303e-06
-3.37388e-07
8.37176e-06
-4.13089e-07
8.11902e-06
-4.92439e-07
7.78885e-06
-6.58625e-07
7.41986e-06
-7.66369e-07
-9.17053e-07
6.9772e-06
1.24325e-05
-9.39408e-06
1.10114e-05
-4.64382e-06
9.97019e-06
-1.79218e-06
9.20551e-06
-8.8728e-07
8.61759e-06
-5.61401e-07
8.18455e-06
-4.082e-07
7.8486e-06
-3.21472e-07
7.58693e-06
-2.33405e-07
7.36598e-06
-1.91822e-07
7.18529e-06
-1.87225e-07
7.05955e-06
-8.71855e-08
6.89304e-06
-1.64525e-07
6.75968e-06
-1.47422e-07
6.62543e-06
-1.28426e-07
6.4626e-06
-1.7456e-07
6.27421e-06
-2.24695e-07
6.04848e-06
-2.6671e-07
5.75464e-06
-3.6479e-07
5.41187e-06
-4.23594e-07
-5.29266e-07
5.02408e-06
1.01159e-05
-7.00998e-06
7.83481e-06
-2.36273e-06
6.70185e-06
-6.59221e-07
6.06462e-06
-2.50052e-07
5.64529e-06
-1.42071e-07
5.3456e-06
-1.08511e-07
5.11317e-06
-8.90434e-08
4.93925e-06
-5.94823e-08
4.79516e-06
-4.77391e-08
4.66673e-06
-5.87887e-08
4.59397e-06
-1.44239e-08
4.47715e-06
-4.77031e-08
4.37839e-06
-4.86701e-08
4.28601e-06
-3.60419e-08
4.16604e-06
-5.4591e-08
4.01777e-06
-7.6421e-08
3.84143e-06
-9.03759e-08
3.60538e-06
-1.2874e-07
3.32766e-06
-1.45872e-07
-2.18863e-07
3.01726e-06
5.49002e-06
3.12729e-06
2.46807e-06
2.21802e-06
2.07595e-06
1.96744e-06
1.87839e-06
1.81891e-06
1.77117e-06
1.71238e-06
1.69796e-06
1.65026e-06
1.60159e-06
1.56554e-06
1.51095e-06
1.43453e-06
1.34416e-06
1.21542e-06
1.06955e-06
8.50682e-07
3.64978e-06
-6.73868e-07
-6.35813e-07
4.86923e-06
-1.89674e-06
6.77291e-07
5.45665e-06
-3.33024e-06
2.74282e-06
5.69932e-06
-5.67542e-06
5.43275e-06
5.79388e-06
-7.34685e-06
7.25228e-06
5.35011e-06
-8.52425e-06
8.96802e-06
4.78691e-06
-8.98413e-06
9.54733e-06
3.76044e-06
-8.4344e-06
9.46087e-06
2.43116e-06
-7.81439e-06
9.14366e-06
9.32589e-07
-6.58018e-06
8.07875e-06
-1.77333e-07
-5.25366e-06
6.36358e-06
-3.79479e-08
-1.83817e-06
1.69878e-06
8.88633e-07
4.30577e-06
-5.23235e-06
2.76632e-06
1.03595e-05
-1.22372e-05
4.79974e-06
1.54599e-05
-1.74933e-05
6.0636e-06
2.18907e-05
-2.31546e-05
6.69534e-06
2.0313e-05
-2.09447e-05
6.75327e-06
1.14035e-05
-1.14614e-05
7.32754e-06
6.45179e-06
-7.02606e-06
8.77962e-06
5.53182e-06
-6.98389e-06
9.99915e-06
2.95053e-06
-4.17007e-06
1.07537e-05
5.7997e-07
-1.33456e-06
1.16009e-05
1.62816e-07
-1.01001e-06
1.2579e-05
-1.70777e-06
7.29698e-07
1.35248e-05
-4.63307e-06
3.68731e-06
1.41968e-05
-6.98625e-06
6.31423e-06
1.44422e-05
-9.62867e-06
9.38325e-06
1.46714e-05
-1.16227e-05
1.13936e-05
1.54039e-05
-1.36692e-05
1.29367e-05
1.63167e-05
-1.7036e-05
1.61232e-05
1.68651e-05
-1.93486e-05
1.88002e-05
1.68751e-05
-2.05408e-05
2.05307e-05
1.64127e-05
-2.13643e-05
2.18267e-05
1.57084e-05
-2.12526e-05
2.19569e-05
1.50815e-05
-2.09337e-05
2.15606e-05
1.44893e-05
-2.0997e-05
2.15892e-05
1.39075e-05
-2.06115e-05
2.11934e-05
1.3385e-05
-1.97953e-05
2.03178e-05
1.29772e-05
-1.99721e-05
2.038e-05
1.26014e-05
-2.00167e-05
2.03925e-05
1.21452e-05
-1.89823e-05
1.94385e-05
1.20778e-05
-1.87029e-05
1.87703e-05
1.22067e-05
-1.95843e-05
1.94554e-05
1.21446e-05
-2.02469e-05
2.0309e-05
1.20317e-05
-1.98036e-05
1.99165e-05
1.17965e-05
-1.81429e-05
1.83781e-05
1.17449e-05
-1.75444e-05
1.7596e-05
1.20443e-05
-1.83041e-05
1.80047e-05
1.26307e-05
-1.77284e-05
1.7142e-05
1.32601e-05
-1.60451e-05
1.54157e-05
1.3793e-05
-1.53742e-05
1.48414e-05
1.41079e-05
-1.50399e-05
1.47249e-05
1.40981e-05
-1.42093e-05
1.42191e-05
1.40187e-05
-1.30754e-05
1.31548e-05
1.3887e-05
-1.08489e-05
1.09805e-05
1.35093e-05
-7.29721e-06
7.67493e-06
1.3167e-05
-3.3617e-06
3.70397e-06
1.29458e-05
8.18311e-07
-5.97108e-07
1.27057e-05
5.88866e-06
-5.64854e-06
1.24193e-05
1.10647e-05
-1.07784e-05
1.20359e-05
1.47455e-05
-1.43621e-05
1.14837e-05
1.76656e-05
-1.71134e-05
1.08363e-05
2.00861e-05
-1.94387e-05
1.01926e-05
1.97336e-05
-1.909e-05
9.60442e-06
1.7647e-05
-1.70588e-05
9.05678e-06
1.70734e-05
-1.65258e-05
8.62905e-06
1.66541e-05
-1.62263e-05
8.33214e-06
1.51983e-05
-1.49014e-05
8.04388e-06
1.3076e-05
-1.27878e-05
7.8627e-06
1.19468e-05
-1.17656e-05
7.83118e-06
1.29587e-05
-1.29272e-05
7.72557e-06
1.40328e-05
-1.39272e-05
7.51788e-06
1.29327e-05
-1.2725e-05
7.3229e-06
1.04287e-05
-1.02338e-05
7.21047e-06
9.0299e-06
-8.91747e-06
7.60143e-06
9.64323e-06
-1.00342e-05
7.79669e-06
1.00918e-05
-1.0287e-05
7.66581e-06
1.16864e-05
-1.15556e-05
7.98494e-06
1.10378e-05
-1.13569e-05
7.8698e-06
8.41703e-06
-8.30189e-06
7.45049e-06
1.0764e-05
-1.03447e-05
7.71226e-06
1.14749e-05
-1.17366e-05
7.93923e-06
8.61481e-06
-8.84178e-06
8.08985e-06
1.28204e-05
-1.2971e-05
8.50001e-06
2.07022e-05
-2.11123e-05
8.89143e-06
2.20511e-05
-2.24425e-05
9.06943e-06
1.9512e-05
-1.969e-05
9.17403e-06
1.80401e-05
-1.81447e-05
9.21145e-06
1.67997e-05
-1.68371e-05
9.09822e-06
1.32564e-05
-1.31431e-05
8.75928e-06
8.42738e-06
-8.08844e-06
8.23677e-06
3.79293e-06
-3.27043e-06
7.63501e-06
-6.55403e-08
6.67297e-07
7.01091e-06
-3.28465e-06
3.90876e-06
6.63974e-06
-6.88708e-06
7.25824e-06
6.72275e-06
-1.05514e-05
1.04684e-05
6.89446e-06
-1.35408e-05
1.33691e-05
6.85996e-06
-1.74171e-05
1.74516e-05
6.63568e-06
-2.34096e-05
2.36339e-05
6.47799e-06
-2.89968e-05
2.91545e-05
6.81195e-06
-3.05864e-05
3.02524e-05
7.38963e-06
-2.77344e-05
2.71567e-05
7.58109e-06
-2.34121e-05
2.32206e-05
7.73972e-06
-2.36186e-05
2.34599e-05
7.94118e-06
-2.5321e-05
2.51196e-05
8.31296e-06
-2.56933e-05
2.53216e-05
8.35615e-06
-2.70956e-05
2.70524e-05
8.00495e-06
-2.45795e-05
2.49307e-05
8.1467e-06
-2.4724e-05
2.45823e-05
8.17331e-06
-2.47093e-05
2.46827e-05
8.26123e-06
-2.58789e-05
2.5791e-05
8.36173e-06
-2.56255e-05
2.5525e-05
8.51898e-06
-2.2819e-05
2.26618e-05
8.65274e-06
-1.79903e-05
1.78566e-05
8.66569e-06
-1.30132e-05
1.30003e-05
8.60472e-06
-8.81495e-06
8.87591e-06
8.72127e-06
-5.07122e-06
4.95467e-06
9.03749e-06
-1.4415e-06
1.12528e-06
9.29155e-06
2.78354e-06
-3.0376e-06
9.30775e-06
8.53721e-06
-8.55341e-06
9.17937e-06
1.47412e-05
-1.46129e-05
8.99679e-06
1.89263e-05
-1.87437e-05
8.77525e-06
2.02238e-05
-2.00023e-05
8.47498e-06
2.15852e-05
-2.12849e-05
8.12092e-06
2.58217e-05
-2.54677e-05
7.66719e-06
3.11041e-05
-3.06504e-05
7.09603e-06
3.30954e-05
-3.25243e-05
6.53237e-06
3.05684e-05
-3.00047e-05
6.08459e-06
2.50933e-05
-2.46455e-05
5.61812e-06
1.97462e-05
-1.92797e-05
5.50351e-06
1.56991e-05
-1.55845e-05
5.14707e-06
1.57432e-05
-1.53868e-05
5.11905e-06
1.46868e-05
-1.46588e-05
5.23736e-06
1.66608e-05
-1.67791e-05
5.03554e-06
1.55059e-05
-1.53041e-05
5.01733e-06
1.51724e-05
-1.51542e-05
5.03831e-06
1.37652e-05
-1.37861e-05
4.63842e-06
1.3382e-05
-1.29822e-05
4.60954e-06
1.19456e-05
-1.19167e-05
4.27903e-06
1.18274e-05
-1.14969e-05
4.36065e-06
1.00516e-05
-1.01332e-05
4.16066e-06
1.05665e-05
-1.03666e-05
4.48183e-06
9.20144e-06
-9.5226e-06
4.37824e-06
8.95974e-06
-8.85615e-06
4.83584e-06
6.13278e-06
-6.59039e-06
4.64349e-06
7.58167e-06
-7.38932e-06
5.20489e-06
4.84976e-06
-5.41117e-06
5.46517e-06
4.56861e-06
-4.82889e-06
6.38726e-06
1.43859e-06
-2.36068e-06
7.05306e-06
1.31673e-06
-1.98253e-06
8.30804e-06
-2.9743e-07
-9.5755e-07
9.0416e-06
-5.35801e-07
-1.97753e-07
9.95599e-06
-2.03079e-06
1.1164e-06
1.04819e-05
-2.2335e-06
1.70754e-06
1.10984e-05
-3.64087e-06
3.02442e-06
1.1413e-05
-5.06825e-06
4.75361e-06
1.16162e-05
-6.0914e-06
5.88825e-06
1.18223e-05
-6.43427e-06
6.22813e-06
1.21071e-05
-8.55597e-06
8.27124e-06
1.21595e-05
-9.21448e-06
9.1621e-06
1.22318e-05
-1.00323e-05
9.95992e-06
1.24033e-05
-1.08189e-05
1.06474e-05
1.25599e-05
-1.22257e-05
1.20691e-05
1.2296e-05
-1.23764e-05
1.26403e-05
1.21323e-05
-1.22208e-05
1.23846e-05
1.21667e-05
-1.18284e-05
1.17939e-05
1.22328e-05
-1.13988e-05
1.13327e-05
1.22574e-05
-1.13858e-05
1.13612e-05
1.2218e-05
-1.0776e-05
1.08154e-05
1.21845e-05
-9.39888e-06
9.4323e-06
1.21599e-05
-8.88572e-06
8.91032e-06
1.21823e-05
-9.02681e-06
9.00442e-06
1.241e-05
-7.87101e-06
7.64336e-06
1.25711e-05
-6.11667e-06
5.95553e-06
1.26127e-05
-5.13195e-06
5.09039e-06
1.2754e-05
-4.19035e-06
4.04904e-06
1.30789e-05
-2.73878e-06
2.41384e-06
1.31857e-05
-9.72624e-07
8.65849e-07
1.315e-05
3.25579e-07
-2.89866e-07
1.31044e-05
1.67471e-06
-1.62909e-06
1.29617e-05
3.36099e-06
-3.21831e-06
1.26065e-05
5.38144e-06
-5.0262e-06
1.20085e-05
6.68888e-06
-6.09091e-06
1.13455e-05
7.12421e-06
-6.46123e-06
1.07482e-05
7.32644e-06
-6.72912e-06
1.04524e-05
7.87961e-06
-7.58382e-06
1.02413e-05
8.97802e-06
-8.76696e-06
9.94803e-06
9.91643e-06
-9.62312e-06
9.48581e-06
1.03854e-05
-9.92314e-06
9.09678e-06
1.01724e-05
-9.78335e-06
8.95358e-06
1.0487e-05
-1.03438e-05
8.97036e-06
1.14666e-05
-1.14834e-05
9.12016e-06
1.29739e-05
-1.31237e-05
9.10343e-06
1.48382e-05
-1.48214e-05
8.75178e-06
1.6249e-05
-1.58973e-05
8.56064e-06
1.74031e-05
-1.7212e-05
8.36905e-06
1.96139e-05
-1.94223e-05
7.28584e-06
2.24142e-05
-2.1331e-05
6.68808e-06
2.37227e-05
-2.31249e-05
3.35249e-05
-3.3005e-05
6.16819e-06
6.35549e-06
-1.55773e-06
7.08541e-06
-2.62666e-06
7.56184e-06
-3.80667e-06
7.56726e-06
-5.68084e-06
7.48207e-06
-7.26166e-06
7.04276e-06
-8.08495e-06
6.46318e-06
-8.40455e-06
5.42361e-06
-7.39482e-06
4.26264e-06
-6.65342e-06
2.90163e-06
-5.21916e-06
1.54621e-06
-3.89824e-06
8.68239e-07
-1.16019e-06
1.63275e-06
3.54126e-06
4.09838e-06
7.89386e-06
6.01652e-06
1.35418e-05
7.03968e-06
2.08676e-05
7.99744e-06
1.93552e-05
8.1993e-06
1.12017e-05
8.65738e-06
5.99371e-06
9.69204e-06
4.49715e-06
1.06163e-05
2.02629e-06
1.12966e-05
-1.00364e-07
1.21698e-05
-7.1038e-07
1.33171e-05
-2.85505e-06
1.42636e-05
-5.57953e-06
1.47263e-05
-7.44898e-06
1.49764e-05
-9.87882e-06
1.55434e-05
-1.21897e-05
1.6485e-05
-1.46109e-05
1.72037e-05
-1.77546e-05
1.73465e-05
-1.94914e-05
1.70277e-05
-2.0222e-05
1.64014e-05
-2.0738e-05
1.5665e-05
-2.05163e-05
1.50538e-05
-2.03225e-05
1.44985e-05
-2.04416e-05
1.3936e-05
-2.00491e-05
1.34201e-05
-1.92794e-05
1.3011e-05
-1.9563e-05
1.26499e-05
-1.96556e-05
1.22032e-05
-1.85356e-05
1.21085e-05
-1.86082e-05
1.22108e-05
-1.96866e-05
1.20517e-05
-2.00877e-05
1.19028e-05
-1.96546e-05
1.17024e-05
-1.79425e-05
1.16974e-05
-1.75395e-05
1.20465e-05
-1.86532e-05
1.26153e-05
-1.82972e-05
1.32153e-05
-1.66451e-05
1.36825e-05
-1.58415e-05
1.39567e-05
-1.5314e-05
1.39116e-05
-1.41642e-05
1.3763e-05
-1.29268e-05
1.35699e-05
-1.06557e-05
1.31865e-05
-6.91381e-06
1.27676e-05
-2.94284e-06
1.24687e-05
1.11724e-06
1.21947e-05
6.16263e-06
1.18991e-05
1.13604e-05
1.15273e-05
1.51173e-05
1.10133e-05
1.81795e-05
1.04375e-05
2.06619e-05
9.86829e-06
2.03028e-05
9.32636e-06
1.81889e-05
8.81577e-06
1.7584e-05
8.40308e-06
1.70667e-05
8.15198e-06
1.54494e-05
7.89305e-06
1.33349e-05
7.72601e-06
1.21138e-05
7.72624e-06
1.29585e-05
7.63742e-06
1.41216e-05
7.46567e-06
1.31044e-05
7.25622e-06
1.06382e-05
7.17765e-06
9.10847e-06
7.63014e-06
9.19074e-06
7.79834e-06
9.92357e-06
7.74619e-06
1.17386e-05
8.0908e-06
1.06931e-05
7.93214e-06
8.5757e-06
7.5349e-06
1.11613e-05
7.81419e-06
1.11956e-05
8.04335e-06
8.38566e-06
8.16327e-06
1.27005e-05
8.60396e-06
2.02615e-05
9.0614e-06
2.15937e-05
9.33154e-06
1.92419e-05
9.49972e-06
1.78719e-05
9.57958e-06
1.67198e-05
9.4845e-06
1.33514e-05
9.14279e-06
8.76909e-06
8.60637e-06
4.32936e-06
8.01221e-06
5.28621e-07
7.40077e-06
-2.6732e-06
7.00979e-06
-6.4961e-06
7.05753e-06
-1.05992e-05
7.24584e-06
-1.37291e-05
7.27496e-06
-1.74463e-05
7.08964e-06
-2.32243e-05
6.94237e-06
-2.88496e-05
7.19612e-06
-3.08401e-05
7.5982e-06
-2.81364e-05
7.67101e-06
-2.34849e-05