/*--------------------------------*- C++ -*----------------------------------*\
| =========                 |                                                 |
| \\      /  F ield         | OpenFOAM: The Open Source CFD Toolbox           |
|  \\    /   O peration     | Version:  2.4.0                                 |
|   \\  /    A nd           | Web:      www.OpenFOAM.org                      |
|    \\/     M anipulation  |                                                 |
\*---------------------------------------------------------------------------*/
FoamFile
{
    version     2.0;
    format      ascii;
    class       volScalarField;
    location    "0.206";
    object      p;
}
// * * * * * * * * * * * * * * * * * * * * * * * * * * * * * * * * * * * * * //

dimensions      [0 2 -2 0 0 0 0];

internalField   nonuniform List<scalar> 
17600
(
103.279
87.6445
83.1961
82.1
81.0857
80.1671
79.2966
78.4609
77.8266
76.9259
76.3226
75.5472
74.8036
74.0774
73.4542
72.7136
71.9164
71.2975
70.6004
68.8616
101.371
87.6945
83.2368
82.1095
81.0891
80.1673
79.2976
78.4604
77.8274
76.9264
76.3209
75.549
74.803
74.0774
73.4542
72.7149
71.9151
71.296
70.604
68.8211
99.9572
87.9506
83.3806
82.1477
81.1029
80.1717
79.3006
78.4612
77.83
76.9267
76.3206
75.5509
74.8022
74.0774
73.4552
72.7166
71.9138
71.2921
70.6081
68.8551
98.9813
88.2916
83.6013
82.2127
81.1317
80.187
79.3102
78.4669
77.8359
76.9291
76.3221
75.5541
74.8011
74.0797
73.4567
72.7191
71.9151
71.2855
70.6152
68.8757
98.1594
88.6261
83.8669
82.2939
81.1732
80.216
79.3304
78.4813
77.8479
76.9369
76.3264
75.5601
74.8007
74.0867
73.4586
72.7231
71.9211
71.2762
70.6217
68.8565
97.3852
88.9186
84.1465
82.3748
81.2143
80.2528
79.3598
78.5049
77.8667
76.9517
76.3347
75.5703
74.8015
74.1003
73.4608
72.7292
71.9352
71.2663
70.6126
68.8391
96.6562
89.166
84.4254
82.4507
81.2452
80.2869
79.393
78.5337
77.8901
76.9724
76.3465
75.5846
74.8039
74.1207
73.464
72.7377
71.9561
71.2545
70.5902
68.8075
95.9829
89.3707
84.6964
82.5242
81.2657
80.3125
79.4253
78.5637
77.9153
76.9962
76.3598
75.6011
74.8075
74.1454
73.4696
72.7497
71.9822
71.2422
70.5458
68.9383
95.3715
89.5352
84.9516
82.6007
81.2788
80.3292
79.4536
78.5936
77.9403
77.0217
76.3712
75.6192
74.8102
74.1726
73.4702
72.7642
72.0093
71.2314
70.4657
68.9965
94.8237
89.6609
85.1869
82.6808
81.2869
80.3378
79.4776
78.6222
77.965
77.0469
76.3806
75.6373
74.8128
74.1985
73.4754
72.7772
72.0394
71.22
70.4278
69.2682
94.3385
89.752
85.4014
82.7649
81.2908
80.3388
79.4974
78.6504
77.987
77.0726
76.387
75.6552
74.8153
74.2222
73.4842
72.7877
72.0738
71.2149
70.4305
69.4202
93.9123
89.8133
85.5966
82.8534
81.2911
80.3339
79.5134
78.6776
78.0067
77.0983
76.3908
75.6724
74.8179
74.2433
73.497
72.7953
72.1117
71.2274
70.4394
69.5888
93.5415
89.8488
85.7728
82.9451
81.2885
80.324
79.5267
78.7031
78.0247
77.1228
76.3944
75.6872
74.824
74.2609
73.5146
72.8024
72.1515
71.2562
70.4571
69.7626
93.2239
89.865
85.929
83.0344
81.2851
80.3107
79.5365
78.7277
78.04
77.1466
76.3947
75.7002
74.8317
74.2747
73.5359
72.8111
72.1904
71.2998
70.4854
69.926
92.9567
89.8706
86.064
83.1145
81.2835
80.2959
79.5434
78.7504
78.0526
77.1687
76.3973
75.7117
74.8372
74.2867
73.5583
72.8231
72.226
71.3574
70.535
70.0534
92.7382
89.8709
86.1759
83.1842
81.2835
80.2821
79.5482
78.7703
78.0624
77.189
76.4005
75.72
74.851
74.2954
73.5823
72.8352
72.2725
71.4149
70.6292
70.1402
92.5662
89.8683
86.2647
83.2405
81.2856
80.2691
79.5514
78.7879
78.069
77.2075
76.4035
75.7262
74.8664
74.3012
73.6073
72.8502
72.3203
71.4746
70.7279
70.3331
92.4389
89.8641
86.3309
83.2829
81.2882
80.2591
79.5536
78.8032
78.0726
77.2238
76.4063
75.7315
74.8824
74.3091
73.6295
72.8777
72.3507
71.5528
70.757
70.4614
92.3562
89.8599
86.3746
83.3116
81.2911
80.2517
79.5547
78.8154
78.0724
77.2378
76.4095
75.7344
74.9011
74.3157
73.6512
72.9073
72.384
71.6284
70.8096
70.6326
92.3167
89.8561
86.3968
83.3258
81.294
80.2475
79.5551
78.8241
78.0699
77.2496
76.4129
75.7355
74.9209
74.3225
73.6727
72.9384
72.423
71.7008
70.9088
70.7805
92.32
89.8536
86.3974
83.3253
81.2954
80.2473
79.5552
78.829
78.065
77.2585
76.4169
75.734
74.9428
74.3288
73.6938
72.9716
72.466
71.7703
71.0513
70.9137
92.366
89.8525
86.3771
83.3098
81.2962
80.2506
79.5548
78.8306
78.0568
77.2658
76.4206
75.7315
74.9656
74.3354
73.7138
73.0088
72.5088
71.8426
71.1894
71.0917
92.4551
89.8521
86.3351
83.2798
81.2962
80.2571
79.5539
78.8284
78.046
77.2713
76.4233
75.7301
74.9862
74.3449
73.7297
73.0526
72.5473
71.9268
71.2684
71.2147
92.5883
89.8519
86.27
83.2366
81.2962
80.2662
79.5526
78.822
78.0328
77.2741
76.4264
75.7266
75.0084
74.3552
73.7439
73.0999
72.5878
72.0101
71.3485
71.4102
92.7661
89.8504
86.1819
83.1799
81.2982
80.2768
79.5506
78.8116
78.0175
77.2746
76.4287
75.7217
75.0322
74.3653
73.7592
73.1468
72.634
72.0883
71.4759
71.5859
92.9905
89.8462
86.0697
83.111
81.3018
80.2884
79.5473
78.797
78.0006
77.273
76.4302
75.716
75.0558
74.3755
73.7766
73.1914
72.6873
72.1605
71.6492
71.7759
93.2625
89.8369
85.9334
83.0308
81.3067
80.3006
79.543
78.7786
77.9814
77.2704
76.4299
75.7107
75.0777
74.3871
73.792
73.2392
72.7415
72.2381
71.807
72.0048
93.5839
89.8183
85.7746
82.941
81.3136
80.3115
79.5369
78.7566
77.9608
77.2668
76.4274
75.7058
75.0978
74.4008
73.8045
73.2915
72.7937
72.3279
71.9061
72.1512
93.9588
89.7819
85.5947
82.848
81.3204
80.3196
79.5282
78.731
77.9396
77.262
76.4237
75.6992
75.1185
74.4142
73.8178
73.3426
72.8507
72.4181
72.0024
72.3578
94.3889
89.7205
85.3952
82.7583
81.3238
80.3238
79.517
78.701
77.9185
77.2561
76.4179
75.6917
75.1395
74.4262
73.8333
73.391
72.9134
72.5069
72.1327
72.5533
94.878
89.6281
85.1761
82.6743
81.3219
80.3227
79.5028
78.6676
77.8971
77.2499
76.4091
75.6834
75.16
74.4374
73.8494
73.4371
72.9808
72.5953
72.296
72.7131
95.429
89.5008
84.937
82.5959
81.3142
80.314
79.4858
78.6321
77.8738
77.245
76.3973
75.6737
75.1799
74.4483
73.864
73.4807
73.05
72.6826
72.4767
72.8401
96.0424
89.3372
84.6784
82.5219
81.3006
80.2964
79.4658
78.5956
77.8489
77.2399
76.3848
75.663
75.1973
74.4595
73.8771
73.5212
73.1143
72.7675
72.6341
72.9624
96.7163
89.1358
84.4041
82.4492
81.2797
80.2697
79.4422
78.5605
77.8235
77.2332
76.3732
75.6528
75.2108
74.4701
73.8893
73.5553
73.1691
72.8433
72.7527
73.031
97.4446
88.892
84.124
82.3719
81.249
80.2353
79.4162
78.5289
77.8001
77.2248
76.3639
75.6454
75.22
74.4795
73.9009
73.5812
73.2129
72.902
72.8401
73.1203
98.2177
88.603
83.8445
82.2885
81.2086
80.1984
79.3915
78.5041
77.7824
77.2169
76.3584
75.6422
75.2252
74.4873
73.9113
73.5989
73.2442
72.943
72.9013
73.1802
99.0381
88.2713
83.5794
82.2054
81.1673
80.1698
79.3742
78.4889
77.7726
77.2109
76.3565
75.6427
75.2271
74.4929
73.9199
73.6092
73.2632
72.9685
72.9384
73.2206
100.012
87.9323
83.359
82.1395
81.1383
80.1553
79.3658
78.4825
77.7697
77.2069
76.3565
75.6456
75.2266
74.4958
73.9261
73.6136
73.272
72.9814
72.9582
73.249
101.423
87.6772
83.2152
82.101
81.1244
80.1516
79.3629
78.4807
77.7703
77.2042
76.3561
75.6489
75.225
74.496
73.9298
73.6142
73.2736
72.9853
72.966
73.2709
103.33
87.6273
83.1742
82.0917
81.1207
80.1516
79.3622
78.4798
77.7719
77.2029
76.355
75.6514
75.2238
74.4944
73.9316
73.6135
73.2722
72.9848
72.967
73.2934
72.7441
72.5519
67.4384
60.8414
52.7941
43.9289
34.1302
25.4488
19.37
15.1676
12.702
12.8033
14.9914
18.4522
24.705
32.7457
41.3702
49.6638
58.1527
66.3995
73.8282
79.7959
84.2002
88.5386
91.3078
93.7575
95.0756
95.1229
95.1517
94.4592
92.3273
88.7941
81.2815
72.3626
60.5292
50.6433
43.359
36.0893
29.0182
26.4966
26.8756
28.1825
30.7455
34.7996
39.5246
44.4931
49.5256
54.7638
59.8621
64.2506
68.0726
71.6441
74.9815
77.6137
79.654
81.3005
82.7035
83.3377
83.1066
82.3094
80.7291
77.9434
73.7592
67.4558
60.1596
52.4733
44.3535
36.0425
27.5057
18.732
10.6991
3.50665
-2.82381
-7.55637
-9.93386
-9.50895
-7.49204
-4.79458
0.666118
9.3907
19.0556
27.17
33.588
39.5326
45.3208
51.6925
58.7021
65.2292
70.5672
75.1015
78.4073
80.7059
82.6105
84.1041
85.1422
85.7533
86.1862
86.6334
86.8278
86.5759
86.1816
85.8031
85.5084
85.1135
84.2068
83.3083
82.44
81.0524
79.7458
78.7262
77.348
75.6945
73.6343
71.3037
69.1593
66.7049
64.4011
63.1621
62.8274
62.5593
63.013
64.6602
66.535
68.5399
70.9266
73.494
75.8083
77.8244
79.9405
81.6013
82.3529
82.3538
81.7768
80.761
78.4798
74.5889
69.615
63.7784
57.3046
50.5395
44.2567
38.0672
32.0648
27.2942
23.4967
19.6308
16.2356
14.2453
14.2747
17.2797
22.0934
26.8356
32.2457
39.039
46.473
53.9235
60.3871
65.9548
70.965
74.8856
77.1825
78.2309
78.6513
78.5471
77.8499
76.648
74.7638
72.456
69.065
65.0669
60.9391
56.9464
52.9621
49.2039
45.9265
43.1264
40.624
38.1361
36.027
33.0696
32.4775
31.923
32.2538
34.5512
38.9843
42.8427
48.7358
54.1628
60.8195
68.1195
76.2444
81.676
86.4928
90.1296
94.204
96.1816
97.5378
94.1972
88.5009
53.5628
72.4976
72.7535
67.9413
61.4318
54.0358
45.9178
36.9803
28.8825
22.9004
18.8271
16.2276
15.7701
17.8331
21.6395
27.8125
35.6438
44.0622
52.1579
60.1436
67.716
74.9259
80.6494
84.7558
89.1
92.1235
94.7786
96.3099
96.7644
97.0494
96.6638
94.8236
90.7374
83.6106
74.5892
63.082
52.939
45.8684
38.6287
31.9188
29.1488
29.4145
30.7376
33.0331
36.8896
41.6927
46.7171
51.5386
56.3674
61.0684
65.2265
68.8613
72.2331
75.3977
77.93
79.9159
81.5331
82.9417
83.621
83.3873
82.619
81.0068
78.1032
73.6664
67.2594
59.9502
52.2575
44.084
35.7514
27.2609
18.4804
10.4003
3.1029
-3.37597
-8.24453
-10.7246
-10.4647
-8.51342
-5.61741
0.122421
9.0003
18.6926
26.7419
33.3106
39.3935
45.2974
51.7878
58.9569
65.5584
70.9568
75.5267
78.8251
81.1626
83.0312
84.528
85.6158
86.1918
86.5811
87.024
87.1937
86.8884
86.4194
85.9669
85.6609
85.2533
84.3238
83.4123
82.5373
81.1289
79.7651
78.796
77.623
76.1477
74.3125
72.3317
70.4256
68.0878
66.0488
65.0427
64.8065
64.6967
65.2509
66.8239
68.5778
70.4493
72.5823
74.8826
77.0661
78.9627
80.9011
82.3976
82.9862
82.9018
82.1467
80.9362
78.5291
74.4814
69.3012
63.373
56.8576
49.9883
43.5659
37.2838
31.2446
26.2862
22.2911
18.3287
14.7541
12.5396
12.571
15.7728
20.7395
25.6333
31.1388
37.9906
45.6838
53.383
59.9687
65.675
70.7868
74.8003
77.2238
78.3791
78.7712
78.653
77.9137
76.771
74.843
72.596
69.3147
65.3677
61.3809
57.3406
53.5833
49.7569
46.6156
43.865
41.4959
39.0627
37.2744
34.3101
33.6771
32.8193
32.8112
34.6592
39.2567
42.8044
48.4693
53.8187
60.1169
66.9055
75.3226
80.4745
85.4341
88.4407
92.5061
93.7639
95.262
89.7199
83.2258
43.4416
71.9985
72.231
67.7589
61.3489
54.5753
47.2016
39.1938
31.766
26.1619
22.1827
19.2535
18.5712
20.8689
25.2133
31.2339
38.5719
46.6234
54.465
61.8802
68.8011
75.7933
81.4482
85.411
89.5488
92.8689
95.5842
97.3257
98.0789
98.6401
98.5511
97.0204
92.4026
85.8509
76.8498
65.875
55.5018
48.2536
41.169
34.979
31.9263
32.0105
33.3987
35.5898
39.2573
44.0027
48.9579
53.5533
57.9786
62.2665
66.1881
69.6386
72.816
75.8349
78.2878
80.2126
81.8173
83.2216
83.984
83.7661
83.0697
81.448
78.477
73.82
67.2748
59.9101
52.2017
44.0224
35.6904
27.2667
18.5445
10.4322
3.09001
-3.48155
-8.47381
-11.0572
-10.9334
-9.05159
-5.99836
-0.00571845
8.97742
18.5852
26.4831
33.1788
39.3431
45.371
52.0176
59.3046
65.9485
71.4194
75.9763
79.2612
81.6419
83.4629
84.956
86.0827
86.6113
86.9679
87.3897
87.5329
87.2034
86.6629
86.1365
85.8188
85.3973
84.4738
83.5438
82.6377
81.2562
79.8731
78.9237
77.9038
76.5618
74.914
73.2493
71.5408
69.3245
67.5486
66.7709
66.6057
66.6562
67.3548
68.817
70.4265
72.1884
74.1131
76.1797
78.2662
80.0708
81.8289
83.1786
83.6526
83.4997
82.628
81.2171
78.6882
74.4644
69.1168
63.1337
56.5133
49.5707
43.0223
36.6426
30.5697
25.4531
21.2674
17.2344
13.5652
11.2088
11.3002
14.666
19.7369
24.7446
30.2863
37.1896
45.1507
53.0473
59.7772
65.5671
70.7231
74.8446
77.4042
78.6249
78.9984
78.8858
78.0677
76.9784
75.0568
72.8267
69.6989
65.769
61.9085
57.813
54.3127
50.4214
47.34
44.6368
42.4128
39.9289
38.4898
35.6101
34.9029
33.9067
33.8043
34.9384
39.445
42.9207
48.0373
53.2677
59.5273
65.6084
74.0746
78.9665
84.0428
86.5212
90.4724
91.0258
92.8152
84.8451
77.3362
40.4025
71.2699
71.432
67.3519
61.2224
54.8536
48.0264
40.7487
33.8749
28.8472
25.0257
22.1105
21.5242
24.2147
28.9437
34.7732
41.4716
48.971
56.5176
63.444
69.8344
76.4372
82.0834
86.0318
89.9611
93.4988
96.186
98.0631
99.0646
99.944
100.143
98.7861
94.0256
87.8244
79.0988
68.5316
58.0196
50.5797
44.0141
38.1802
34.7926
34.649
36.1533
38.3778
41.8407
46.4237
51.2097
55.5285
59.5535
63.464
67.1257
70.3839
73.3951
76.3037
78.678
80.5205
82.1219
83.5684
84.4234
84.24
83.6279
82.0551
79.0193
74.1708
67.4777
59.96
52.2808
44.1693
35.8477
27.4836
18.8664
10.7831
3.44649
-3.1211
-8.15477
-10.8124
-10.8354
-9.04292
-5.85137
0.346061
9.33171
18.694
26.3822
33.1839
39.3864
45.558
52.3865
59.7509
66.4084
71.9397
76.4398
79.708
82.1338
83.8952
85.3896
86.5444
87.0188
87.3464
87.7381
87.857
87.512
86.9148
86.3246
85.9797
85.5417
84.6464
83.6833
82.7477
81.4627
80.0863
79.1323
78.1993
76.9817
75.4996
74.0653
72.5084
70.4088
68.9088
68.348
68.2352
68.4657
69.2894
70.6347
72.0912
73.7405
75.5087
77.4029
79.3926
81.1483
82.7726
83.9831
84.3508
84.1269
83.1775
81.5962
78.9487
74.6008
69.0915
63.0464
56.3288
49.3135
42.6463
36.1754
30.0802
24.7916
20.4312
16.3322
12.6401
10.2654
10.4879
13.976
19.0927
24.148
29.69
36.6818
44.8516
52.9153
59.7769
65.6266
70.8159
75.0246
77.7394
78.9857
79.3351
79.239
78.3443
77.2472
75.4088
73.1682
70.1899
66.2251
62.4972
58.3746
55.073
51.1361
48.028
45.3883
43.3948
40.7673
39.629
36.9147
35.9752
35.0884
35.1169
35.4947
39.5505
43.1049
47.7344
52.6083
59.1193
64.1419
72.4873
77.0691
82.4367
84.0245
88.118
87.7336
89.8801
79.9483
70.9325
40.0456
70.4727
70.52
66.9603
61.3197
55.2078
48.7024
42.0064
35.8506
31.2558
27.7614
25.1894
24.8443
27.7765
32.6748
38.263
44.2822
51.0717
58.2433
64.8368
70.8747
77.0793
82.6369
86.5077
90.3213
94.0262
96.6377
98.5628
99.7818
100.939
101.406
100.127
95.5405
89.4141
81.1415
71
60.7581
53.34
47.1311
41.2801
37.6281
37.329
38.9926
41.3144
44.6077
48.9105
53.4006
57.4528
61.1067
64.6308
68.0431
71.1341
73.995
76.7917
79.0936
80.8707
82.4686
83.9771
84.9143
84.7929
84.2659
82.8041
79.665
74.6715
67.8822
60.1973
52.5917
44.5529
36.2226
27.8837
19.4118
11.4236
4.16611
-2.30342
-7.28502
-9.94321
-10.1091
-8.43169
-5.13118
1.18195
10.0238
18.9794
26.4728
33.3225
39.5238
45.8819
52.8998
60.2769
66.9436
72.5102
76.922
80.1616
82.6271
84.318
85.8309
86.9935
87.4101
87.7126
88.0737
88.1565
87.7986
87.1728
86.5346
86.1439
85.6795
84.8327
83.8432
82.9147
81.7837
80.4099
79.4123
78.5193
77.4249
76.0789
74.7879
73.3256
71.3829
70.1573
69.7772
69.7178
70.0986
71.045
72.2747
73.5527
75.1196
76.7864
78.5255
80.4253
82.1223
83.6435
84.7598
85.0405
84.7469
83.7524
82.0443
79.3054
74.9265
69.2675
63.0933
56.3344
49.2891
42.4906
35.9379
29.86
24.3947
19.836
15.6759
12.007
9.69759
10.1133
13.7087
18.8117
23.8292
29.3755
36.4672
44.7645
52.9763
59.966
65.8677
71.0804
75.3588
78.2189
79.4911
79.8057
79.6997
78.7799
77.556
75.8667
73.5215
70.7756
66.7868
63.1635
59.0461
55.8507
51.8853
48.6479
46.1401
44.4368
41.5849
40.6572
38.1354
36.8872
36.3696
36.614
36.4659
39.6704
43.051
47.1947
51.7617
58.5219
62.5324
70.4651
74.4577
80.4826
80.9404
85.2334
83.8812
86.1362
74.989
63.8651
39.0587
69.8234
69.6785
66.5636
61.4502
55.6629
49.5638
43.5203
37.8746
33.569
30.5982
28.5885
28.4851
31.4448
36.2661
41.4849
46.8312
52.9523
59.7223
66.0515
71.7886
77.6543
83.1521
86.9063
90.6136
94.4373
97.0021
98.9109
100.348
101.652
102.33
101.04
96.7075
90.6372
82.9779
73.5461
63.777
56.2848
49.9709
44.1159
40.4562
40.1014
41.9391
44.3543
47.4569
51.4221
55.554
59.2841
62.5993
65.7856
68.9487
71.8612
74.6047
77.3011
79.514
81.2311
82.8482
84.4329
85.4585
85.4096
84.965
83.6429
80.4157
75.3286
68.482
60.699
53.1281
45.1201
36.7621
28.4423
20.1369
12.3171
5.20483
-1.05976
-5.89718
-8.51065
-8.78177
-7.23038
-3.85817
2.46538
10.9909
19.4399
26.7552
33.5533
39.7692
46.3558
53.5317
60.891
67.5571
73.1295
77.42
80.6374
83.1208
84.7345
86.2803
87.4111
87.7858
88.0637
88.3847
88.4169
88.0454
87.4262
86.7708
86.3133
85.8145
85.0385
84.0451
83.1677
82.191
80.833
79.7647
78.8591
77.8697
76.64
75.4165
74.0365
72.2872
71.2991
71.0464
71.0324
71.5731
72.6037
73.6941
74.8477
76.3374
77.922
79.578
81.4188
83.0365
84.445
85.4876
85.736
85.3709
84.3491
82.5471
79.7231
75.4015
69.6316
63.2992
56.5437
49.5397
42.5749
35.9584
29.9001
24.3116
19.5506
15.2923
11.6995
9.5491
10.1902
13.8583
18.8583
23.7685
29.3525
36.512
44.9118
53.2383
60.3651
66.285
71.5003
75.8383
78.811
80.1236
80.425
80.2323
79.31
77.9058
76.3893
73.9308
71.4103
67.4585
63.9675
59.8404
56.6936
52.7039
49.2335
46.9545
45.5163
42.4002
41.4977
39.3344
37.8101
37.6425
38.1867
37.8467
40.0785
43.0306
46.4322
50.6451
56.9001
60.6361
67.8974
71.3625
77.478
77.1678
81.7387
78.9509
81.1812
69.7045
56.2799
36.5422
69.3389
69.0075
66.1644
61.5352
56.2118
50.6428
45.247
40.0041
35.943
33.5799
32.2084
32.3291
35.046
39.5021
44.3353
49.1375
54.6316
60.9798
67.0469
72.5298
77.9798
83.4041
87.1963
90.8609
94.724
97.2818
99.1333
100.81
102.191
103.012
101.604
97.4468
91.4754
84.4752
75.7995
66.5374
58.8733
52.4663
46.8439
43.3241
43.0703
45.0136
47.4434
50.3544
53.9256
57.6298
61.0165
64.0042
66.8928
69.8541
72.5925
75.1797
77.7645
79.9229
81.6158
83.264
84.9094
86.0272
86.0861
85.7288
84.5316
81.2846
76.1146
69.2002
61.3443
53.771
45.8031
37.4259
29.1534
20.9894
13.3931
6.47975
0.48417
-4.11256
-6.6345
-7.00026
-5.53903
-2.1065
4.09383
12.1557
20.0594
27.188
33.8672
40.1602
46.9982
54.2718
61.6009
68.2367
73.7857
77.9227
81.1485
83.6043
85.1535
86.7257
87.7892
88.1539
88.4011
88.6698
88.6452
88.2525
87.674
87.0292
86.495
85.9656
85.2742
84.288
83.4604
82.6213
81.3301
80.1784
79.2398
78.3023
77.1302
75.8233
74.531
73.1287
72.3326
72.1523
72.199
72.8898
73.9601
74.9257
75.9753
77.4067
78.9365
80.5418
82.3186
83.8868
85.2201
86.1814
86.4
85.9827
84.9226
83.0883
80.1797
75.9362
70.136
63.6747
56.9552
50.0091
42.8765
36.2106
30.1191
24.4406
19.572
15.234
11.735
9.82302
10.7115
14.3842
19.1931
23.9775
29.5928
36.7825
45.2892
53.7073
60.9622
66.8568
72.0775
76.4557
79.4754
80.8698
81.1915
80.8196
79.9197
78.3531
76.9077
74.3718
72.0541
68.1858
64.9026
60.7327
57.5178
53.6805
49.9525
47.8717
46.5999
43.2773
42.1287
40.4422
38.961
38.673
39.4833
39.1182
40.8487
43.39
46.3582
49.8369
54.7429
58.245
64.3455
68.1222
73.5465
72.6288
76.9992
72.7721
74.1398
63.3212
48.7795
33.3648
69.1529
68.5666
65.7538
61.4758
56.7452
51.783
46.9791
42.2197
38.4816
36.5789
35.8196
36.155
38.4469
42.3574
46.8597
51.3329
56.2082
62.0761
67.8487
73.1469
78.1942
83.3806
87.254
90.9661
94.8736
97.4302
99.2492
101.159
102.7
103.609
102.16
98.0582
92.1485
85.6176
77.6001
68.9256
61.2226
54.8612
49.6057
46.3831
46.2856
48.246
50.6054
53.2116
56.3436
59.628
62.6304
65.2927
67.9399
70.726
73.3176
75.7527
78.2026
80.295
81.9918
83.7076
85.4364
86.6179
86.7997
86.5519
85.473
82.2418
76.9873
69.9669
62.0628
54.5139
46.6318
38.2844
30.0195
21.9766
14.5532
7.87678
2.18077
-2.1224
-4.50686
-4.84894
-3.49015
-0.0551144
5.91632
13.4339
20.7971
27.7268
34.2781
40.7491
47.8012
55.108
62.3962
68.9745
74.441
78.4348
81.6909
84.061
85.5814
87.1448
88.1364
88.5129
88.7225
88.9452
88.8646
88.4427
87.9269
87.303
86.6966
86.1557
85.5315
84.5354
83.7444
83.0374
81.8526
80.6435
79.6629
78.6947
77.5096
76.2974
75.1501
73.9461
73.2732
73.1348
73.2541
74.0586
75.1462
75.9933
76.9537
78.364
79.8472
81.4186
83.1534
84.6337
85.8936
86.8186
87.0156
86.5785
85.4763
83.625
80.6812
76.4763
70.705
64.2141
57.5577
50.6246
43.3752
36.6578
30.4657
24.719
19.8064
15.4833
12.1531
10.5094
11.6247
15.2295
19.7963
24.458
30.0607
37.2885
45.8994
54.4169
61.7559
67.5806
72.7983
77.2332
80.243
81.7075
82.1082
81.485
80.5978
78.8257
77.3346
74.8291
72.6389
68.9738
65.8891
61.7605
58.3282
54.7715
50.9273
48.7757
47.6483
44.3658
42.6665
41.4879
40.2339
39.4305
40.1746
40.1443
41.761
43.922
46.6785
49.4969
53.2353
56.1138
60.2583
65.0924
68.7536
68.2668
70.3707
65.3118
65.335
55.658
42.2275
30.5693
69.4366
68.6341
65.4087
61.2781
57.1826
52.8946
48.6588
44.4739
41.1148
39.4987
39.1835
39.6635
41.4655
44.8616
49.0858
53.3441
57.6769
63.0297
68.5675
73.6831
78.4309
83.3263
87.2071
90.8555
94.8189
97.399
99.254
101.393
103.189
104.154
102.861
98.8174
93.0257
86.7393
79.3597
71.1487
63.5163
57.2833
52.4983
49.7187
49.7846
51.5991
53.7278
55.9718
58.6418
61.5037
64.1547
66.5151
68.9325
71.5506
74.0186
76.3171
78.6141
80.6353
82.3475
84.1429
85.9881
87.2279
87.5282
87.4147
86.4557
83.2459
77.9154
70.8164
62.9262
55.4297
47.6542
39.3731
31.08
23.1213
15.7908
9.3034
3.90337
-0.0872417
-2.28534
-2.58411
-1.26508
2.13912
7.81818
14.7424
21.631
28.3543
34.833
41.5441
48.7214
56.0446
63.2715
69.7731
75.0925
78.9577
82.2235
84.4793
86.013
87.5225
88.463
88.845
89.0207
89.2338
89.096
88.652
88.1944
87.5768
86.9117
86.3781
85.7771
84.7645
84.0221
83.4466
82.3554
81.1114
80.067
79.0553
77.9283
76.788
75.768
74.6849
74.1533
74.0247
74.2113
75.1018
76.1599
76.9133
77.8215
79.1956
80.6603
82.2284
83.926
85.3197
86.5055
87.411
87.6123
87.16
86.0401
84.1397
81.1945
77.036
71.3036
64.8472
58.2962
51.3718
44.0804
37.3184
30.9708
25.2036
20.3052
16.0227
12.9231
11.6002
12.8889
16.3354
20.6289
25.1678
30.7299
38.0402
46.7492
55.3559
62.7146
68.4526
73.6146
78.1444
81.1336
82.6552
83.1114
82.2631
81.3224
79.354
77.6211
75.2913
73.1812
69.8072
66.9827
62.8083
59.0651
55.8907
52.1718
49.6457
48.5166
45.7009
43.4867
42.6213
41.5251
40.2496
40.5111
40.9189
42.4695
44.3868
46.6279
48.7853
51.9663
54.9485
58.1661
62.2893
64.1798
64.211
62.4946
58.5476
55.2927
47.7703
37.6197
28.7356
69.5731
68.5262
65.2423
61.2694
57.6142
53.9573
50.3125
46.7069
43.7071
42.3043
42.1771
42.6836
44.1323
47.1026
51.0555
55.0741
59.012
63.846
69.163
74.0986
78.5569
83.2152
87.1796
90.6749
94.5585
97.1939
99.1375
101.476
103.491
104.518
103.42
99.5779
93.9876
87.9574
81.1093
73.2433
65.8335
59.8562
55.6574
53.4097
53.4703
54.9559
56.7461
58.5826
60.828
63.3043
65.6199
67.7153
69.9318
72.3469
74.6439
76.8457
79.027
80.9516
82.6613
84.5551
86.5338
87.8405
88.2493
88.2876
87.448
84.2781
78.9051
71.7817
63.9512
56.4818
48.7836
40.5965
32.3557
24.4358
17.1521
10.7603
5.5878
1.88788
-0.0984256
-0.224319
0.99569
4.33274
9.67852
16.0481
22.5459
29.0734
35.5779
42.5221
49.7444
57.0903
64.2382
70.6318
75.7309
79.4783
82.7317
84.8781
86.4485
87.8677
88.7701
89.1343
89.3
89.5386
89.3469
88.8976
88.461
87.8256
87.1196
86.6039
86.0025
85.0009
84.3171
83.8363
82.7677
81.5128
80.4405
79.4333
78.3835
77.3264
76.419
75.5016
74.9783
74.8442
75.1016
76.0284
77.0065
77.6975
78.5843
79.9398
81.4034
82.9753
84.6183
85.9279
87.0549
87.951
88.1685
87.7032
86.5955
84.6529
81.6839
77.6242
71.9747
65.5248
59.0755
52.2644
45.0078
38.1958
31.7219
25.9461
21.1026
16.9045
14.0421
13.0004
14.4094
17.655
21.6795
26.0801
31.5942
39.0592
47.8149
56.5049
63.7858
69.447
74.5506
79.1682
82.1215
83.6493
84.1943
83.1415
82.1525
79.9172
77.7679
75.7325
73.7134
70.4992
68.183
63.8744
59.7716
57.0086
53.6826
50.4859
49.1868
47.0235
44.5901
43.756
42.7586
41.256
40.9549
41.63
42.8867
44.8415
46.6952
47.9129
50.4762
53.7964
57.2853
59.9138
60.3589
59.9428
55.7986
54.6651
46.4552
42.0034
35.1173
27.7818
69.6398
68.5462
65.3247
61.4857
58.1188
54.9711
51.8645
48.7919
46.1598
44.8901
44.77
45.3012
46.5731
49.1351
52.8046
56.5802
60.1828
64.5859
69.623
74.3944
78.562
82.9576
87.016
90.454
94.1941
96.8838
98.8954
101.329
103.539
104.658
103.724
100.166
94.8284
89.1446
82.6922
75.3753
68.3705
62.7767
59.1671
57.3239
57.193
58.2291
59.5996
61.0535
62.9313
65.0463
67.0468
68.8926
70.8885
73.1051
75.2244
77.2904
79.3876
81.2625
82.9868
84.9569
87.0328
88.4221
88.9496
89.1333
88.4093
85.3197
79.9509
72.8024
65.0345
57.5441
49.9268
41.8951
33.7693
25.8948
18.6408
12.268
7.22288
3.77664
1.98313
1.93041
3.19103
6.44329
11.4576
17.3474
23.5243
29.9336
36.5547
43.6681
50.8794
58.2639
65.2674
71.5147
76.3477
80.0047
83.2059
85.2838
86.8849
88.1916
89.0534
89.3828
89.5678
89.8376
89.6062
89.1573
88.7032
88.0435
87.3267
86.8281
86.2141
85.267
84.6247
84.1582
83.0833
81.8678
80.8316
79.8578
78.8641
77.8711
77.059
76.2637
75.7632
75.6429
75.9442
76.8545
77.7358
78.3972
79.2798
80.6003
82.0686
83.6775
85.2756
86.472
87.5331
88.4495
88.7021
88.2419
87.164
85.205
82.1866
78.2039
72.6996
66.2766
59.8774
53.2565
46.1234
39.2414
32.6928
26.947
22.1333
18.0716
15.4736
14.6673
16.1121
19.1225
22.8684
27.1341
32.6846
40.338
49.069
57.8352
64.9338
70.5612
75.64
80.249
83.2053
84.6986
85.3671
84.1725
82.9118
80.4381
77.8458
76.0067
74.2923
70.9714
69.4651
65.0691
60.5598
58.1322
55.2778
51.3707
49.7982
48.0546
45.5257
44.7854
44.0478
42.2031
41.6945
42.571
43.1432
45.0491
46.8039
47.7128
49.5097
53.1
54.8798
57.6305
56.8338
55.8112
53.1996
52.5707
41.4452
40.562
34.3595
27.3754
69.7295
68.5862
65.4642
61.8255
58.6706
55.933
53.2736
50.658
48.4208
47.2248
47.0548
47.6121
48.7901
50.9878
54.3289
57.8797
61.1762
65.221
69.9699
74.5473
78.4992
82.6629
86.7146
90.0536
93.6939
96.5065
98.5371
101.001
103.356
104.573
103.755
100.506
95.5775
90.2649
84.2714
77.7263
71.2488
66.0381
62.9182
61.2456
60.7475
61.3432
62.2957
63.3617
64.9242
66.7332
68.4097
69.9958
71.7774
73.7752
75.7317
77.6811
79.6839
81.5157
83.2907
85.3453
87.4804
88.9383
89.5983
89.9277
89.3082
86.3397
80.9918
73.8401
66.1145
58.6332
51.1657
43.2889
35.2513
27.4218
20.217
13.8492
8.85928
5.60949
3.9798
3.92155
5.29531
8.45907
13.1549
18.6564
24.6097
31.0013
37.7671
44.949
52.14
59.5353
66.3331
72.4175
76.9424
80.533
83.6514
85.7194
87.3094
88.5096
89.3257
89.6101
89.8212
90.0872
89.8368
89.3999
88.9182
88.2563
87.5555
87.0476
86.4151
85.5534
84.9329
84.396
83.3449
82.2288
81.2768
80.3085
79.3202
78.3924
77.6652
76.9739
76.5065
76.4199
76.747
77.5988
78.3577
79.0208
79.9296
81.207
82.6865
84.3155
85.8591
86.9582
87.9517
88.8918
89.2005
88.7622
87.7238
85.7869
82.7688
78.789
73.4523
67.1355
60.7566
54.2588
47.3171
40.435
33.7838
28.0678
23.3108
19.4464
17.1196
16.4967
17.9234
20.6891
24.1704
28.3534
34.0278
41.8255
50.5247
59.2932
66.1582
71.8343
76.7768
81.3515
84.3846
85.8766
86.6384
85.2293
83.5017
80.6597
77.804
76.0247
74.9151
71.5096
70.7001
66.3572
61.5357
59.1551
56.8844
52.6413
50.6389
48.9107
46.2235
45.575
45.2129
43.1097
42.5235
43.57
43.7547
45.0497
46.2706
47.9677
49.2231
52.9088
53.2197
55.2731
53.5356
54.2095
52.8763
50.5076
40.806
42.4765
34.7352
27.2728
69.8793
68.6394
65.6479
62.2713
59.2708
56.8307
54.5552
52.3543
50.4407
49.3015
49.1323
49.7283
50.8525
52.7203
55.6858
58.9892
62.074
65.7752
70.1959
74.5143
78.3127
82.3094
86.3752
89.5865
93.0232
95.9802
98.0714
100.482
102.907
104.118
103.376
100.544
96.1909
91.2998
85.8418
80.1383
74.2592
69.4299
66.6329
64.8975
64.0446
64.2863
64.8212
65.5096
66.7848
68.317
69.7044
71.037
72.602
74.3867
76.1666
77.9985
79.9092
81.7103
83.5347
85.6565
87.8427
89.377
90.1701
90.6354
90.117
87.294
81.9839
74.8879
67.252
59.8944
52.5664
44.7665
36.8168
29.048
21.8949
15.5374
10.5946
7.47261
5.96836
5.89712
7.3473
10.3995
14.821
20.0587
25.8722
32.3208
39.1944
46.3423
53.5339
60.8586
67.4595
73.3088
77.5339
81.068
84.0791
86.1633
87.707
88.8423
89.6084
89.847
90.0587
90.2703
90.0297
89.6193
89.1185
88.4836
87.8033
87.2474
86.6078
85.8497
85.2262
84.5681
83.5852
82.6079
81.74
80.7664
79.7721
78.9016
78.2572
77.6533
77.2185
77.1412
77.4703
78.188
78.9
79.5899
80.5358
81.7826
83.2646
84.9017
86.3603
87.35
88.3039
89.2707
89.6381
89.2357
88.2397
86.3636
83.4074
79.4403
74.2516
68.0793
61.7461
55.3199
48.5467
41.7414
35.0221
29.2892
24.5561
20.9351
18.8999
18.3961
19.7702
22.3023
25.5899
29.7319
35.5978
43.4844
52.1945
60.8394
67.495
73.195
77.9232
82.4579
85.6432
87.0537
88.0265
86.1219
83.8793
80.6918
77.7585
76.2231
75.6692
72.2256
71.6141
67.8543
62.7663
60.1864
58.468
54.2989
51.8031
49.8894
46.8678
46.2026
45.8632
44.0373
43.2001
44.4095
44.8233
45.674
46.1236
48.3867
49.3132
52.1839
52.4659
54.1851
51.9331
55.0025
52.3619
49.0284
42.7732
44.4857
35.4432
27.2755
70.0303
68.7042
65.9003
62.8224
59.9541
57.7205
55.7293
53.8492
52.184
51.1487
51.0701
51.6911
52.714
54.2687
56.9067
59.9714
62.877
66.2762
70.3319
74.3468
78.0091
81.8531
85.8564
89.0679
92.3487
95.3396
97.4312
99.774
102.173
103.306
102.695
100.349
96.6165
92.1303
87.2439
82.4191
77.1302
72.7371
70.1148
68.1931
67.0795
66.9742
67.1191
67.4996
68.5463
69.826
70.9142
72.023
73.406
74.9484
76.5204
78.2517
80.083
81.8485
83.711
85.8723
88.089
89.7035
90.633
91.2284
90.815
88.1546
82.9288
75.9522
68.4863
61.29
54.0501
46.3303
38.5383
30.8433
23.7661
17.4316
12.5132
9.46741
8.04154
7.90416
9.42905
12.3456
16.5688
21.6367
27.3866
33.9031
40.799
47.8631
55.0709
62.1952
68.6329
74.1578
78.1465
81.597
84.4979
86.587
88.0639
89.1953
89.9096
90.1139
90.3016
90.4376
90.2195
89.8202
89.3084
88.7111
88.0497
87.4316
86.803
86.1409
85.4846
84.7284
83.8335
82.9849
82.1674
81.1952
80.2249
79.421
78.8302
78.2839
77.8736
77.8087
78.1114
78.743
79.3999
80.123
81.1194
82.329
83.7632
85.4138
86.8062
87.6575
88.5711
89.5797
90.0045
89.6536
88.7134
86.9258
84.0372
80.164
75.1289
69.0527
62.8445
56.5563
49.9382
43.1965
36.4775
30.7514
25.9843
22.5377
20.74
20.3273
21.6339
23.9619
27.1098
31.2673
37.4082
45.2895
54.0791
62.4575
68.9287
74.5302
79.1565
83.5572
86.9674
88.2024
89.3901
86.8451
84.0515
80.8473
77.9653
76.7867
76.4676
72.8451
72.0805
69.1676
64.0333
61.278
59.9733
55.8249
52.9109
51.0617
47.8786
47.1679
46.6282
45.2113
44.1145
45.2476
45.6111
46.7311
47.0425
48.7431
49.4214
51.9179
52.0002
54.599
53.7736
55.5105
51.2586
49.4458
45.1189
44.8536
35.7393
27.2052
70.1595
68.822
66.2354
63.4547
60.7263
58.5936
56.8214
55.2058
53.7475
52.8829
52.9017
53.4461
54.3301
55.6453
57.9795
60.8163
63.5349
66.6638
70.3652
74.1175
77.6399
81.3504
85.186
88.3457
91.5721
94.6323
96.7372
98.9592
101.253
102.315
101.874
99.9829
96.8607
92.7586
88.4981
84.4287
79.7452
75.8108
73.1524
71.0599
69.7673
69.3669
69.2319
69.4026
70.2038
71.2151
72.0713
72.9663
74.1466
75.4649
76.8164
78.4218
80.1976
81.9443
83.8306
86.0032
88.2062
89.8864
90.9669
91.6783
91.3563
88.8814
83.8218
77.0187
69.7163
62.6496
55.567
48.0503
40.3499
32.8714
25.8716
19.5943
14.6855
11.6694
10.2882
10.0796
11.6059
14.4174
18.4654
23.4567
29.1888
35.7062
42.5528
49.5437
56.7048
63.5284
69.8239
74.9745
78.7962
82.1331
84.9209