/*--------------------------------*- C++ -*----------------------------------*\
| =========                 |                                                 |
| \\      /  F ield         | OpenFOAM: The Open Source CFD Toolbox           |
|  \\    /   O peration     | Version:  2.4.0                                 |
|   \\  /    A nd           | Web:      www.OpenFOAM.org                      |
|    \\/     M anipulation  |                                                 |
\*---------------------------------------------------------------------------*/
FoamFile
{
    version     2.0;
    format      ascii;
    class       volScalarField;
    location    "0.09";
    object      k_0;
}
// * * * * * * * * * * * * * * * * * * * * * * * * * * * * * * * * * * * * * //

dimensions      [0 2 -2 0 0 0 0];

internalField   nonuniform List<scalar> 
4400
(
9.52562
8.50759
6.48203
5.34297
4.58374
4.30343
3.94834
3.90114
3.73519
3.92155
4.40076
6.78122
6.71545
6.34156
5.6338
5.31985
4.8709
4.79492
4.57701
4.67029
1.16032
3.18511
4.18226
4.56158
4.44792
4.3338
4.05267
3.99465
3.8413
3.80472
0.162235
0.964041
1.67655
2.33345
2.64914
2.8356
2.82604
2.83407
2.82724
2.76358
0.0170852
0.172496
0.396453
0.740404
1.08869
1.33338
1.53018
1.59337
1.72784
1.72585
0.00144747
0.0197439
0.0533027
0.119253
0.271383
0.365863
0.553283
0.611905
0.750239
0.812516
0.000137358
0.00190137
0.004686
0.0112597
0.034049
0.0541179
0.108691
0.131239
0.182758
0.240355
4.26223e-05
0.00032551
0.000484013
0.000852462
0.00231486
0.00413851
0.0107869
0.0132453
0.0180584
0.0335473
3.40285e-05
0.000151165
0.000205945
0.000227412
0.000315343
0.000425919
0.000830196
0.00085921
0.000957465
0.00175723
3.2886e-05
0.000149435
0.000170433
0.000165461
0.000176299
0.000231956
0.000279401
0.000270888
0.000270391
0.000283632
3.26792e-05
0.000127312
0.000184734
0.000199648
0.000213696
0.000232857
0.000235083
0.000244527
0.000280282
0.000472975
3.29792e-05
0.000151635
0.000236738
0.000241406
0.000254869
0.000351919
0.000513371
0.00101665
0.00210345
0.00554999
3.95135e-05
0.00026015
0.000436111
0.000818844
0.00168567
0.00492959
0.00847586
0.0180515
0.0297248
0.0649725
0.000137863
0.00148631
0.0043879
0.0114066
0.0256344
0.0654726
0.0953944
0.164513
0.216475
0.374507
0.00148415
0.0167569
0.0527829
0.127007
0.234719
0.415173
0.520062
0.698727
0.802426
1.0712
0.0173628
0.149146
0.421026
0.729446
1.09263
1.3469
1.5365
1.69608
1.79178
2.00628
0.164354
0.933441
1.72273
2.29442
2.69536
2.79792
2.88902
2.87688
2.89392
2.94224
1.17321
3.1508
4.22856
4.51992
4.48779
4.26524
4.16013
3.92484
3.87142
3.75178
4.40686
6.75668
6.74188
6.27948
5.73544
5.17321
4.98145
4.59186
4.48162
4.16163
9.52818
8.48497
6.51969
5.27728
4.6543
4.16468
3.99429
3.64973
3.5147
3.07727
1.97972
1.2761
1.31482
1.28126
1.32525
1.18987
1.1842
1.21048
1.10556
0.688849
0.448302
0.340891
0.271625
0.236848
0.239769
0.250438
0.241785
0.236102
0.24281
0.262524
0.314964
0.326837
0.305651
0.2132
0.112457
0.0937851
0.103181
0.134425
0.142757
0.141555
0.142672
0.149399
0.180215
0.269674
0.33076
0.332409
0.31642
0.294355
0.275631
0.256472
0.205996
0.155485
0.11788
0.0902709
0.0805684
0.076449
0.0790929
0.104566
0.249074
0.447521
0.426892
0.308843
0.213109
0.133053
0.101163
0.0837475
0.0798047
0.0802973
0.0832944
0.0924013
0.113165
0.190582
0.332167
0.358721
0.328888
0.198454
0.119594
0.0712596
0.0592665
0.0462827
0.0445652
0.0414347
0.0415717
0.0417001
0.0435546
0.0481761
0.0611708
0.0660496
0.0719898
0.0699513
0.0625991
0.0437942
0.0350821
0.0263105
0.0211046
0.0170876
0.015402
0.0131052
0.0101812
0.00725052
0.00540945
0.00420206
0.00348333
0.00299763
0.00192091
0.00124098
0.00197894
0.00475929
0.0504728
0.503254
3.56917
2.46732
2.10224
1.64184
1.52854
1.30913
1.17942
1.17992
1.17725
1.11856
0.786239
0.516959
0.40463
0.356687
0.371144
0.378365
0.356881
0.361368
0.363397
0.36228
0.358691
0.337377
0.25833
0.111972
0.0798708
0.0858653
0.119538
0.170219
0.169831
0.159002
0.14619
0.137547
0.14254
0.167799
0.237434
0.281303
0.28632
0.28053
0.262431
0.233046
0.175263
0.131118
0.0993429
0.0842489
0.0786893
0.0771792
0.0818227
0.111
0.289454
0.470116
0.448562
0.324882
0.226949
0.134822
0.100168
0.0793626
0.0723348
0.072472
0.0752681
0.0839395
0.102353
0.161734
0.303874
0.347335
0.329644
0.23102
0.151691
0.086006
0.0755172
0.053129
0.0514362
0.044743
0.0445901
0.0444213
0.0464507
0.0499109
0.0600079
0.0679005
0.0733084
0.0711424
0.0639393
0.042555
0.0352379
0.0256679
0.0232347
0.0181576
0.0181508
0.0163454
0.0151528
0.0107102
0.00892045
0.00575089
0.00513159
0.00347825
0.00383472
0.00222574
0.0051355
0.00537455
0.0391665
0.318667
3.27229
2.58983
2.19662
1.74374
1.50545
1.33826
1.10889
1.05807
1.03504
1.07034
1.01463
0.883449
0.741542
0.649427
0.61559
0.552873
0.524418
0.47223
0.41435
0.389012
0.350791
0.258744
0.111545
0.0656914
0.0702923
0.0986455
0.192459
0.250526
0.246035
0.223524
0.173648
0.143134
0.131095
0.135088
0.155185
0.200193
0.227972
0.227328
0.214106
0.187884
0.140138
0.112329
0.0904436
0.0820591
0.0784319
0.0785819
0.0864142
0.122926
0.330451
0.488949
0.477167
0.336697
0.227439
0.136562
0.0991593
0.0766262
0.0683684
0.067305
0.0692648
0.0768552
0.0932483
0.139977
0.273921
0.334398
0.325878
0.254125
0.184778
0.105348
0.0933243
0.0669412
0.0639201
0.0519743
0.050815
0.0481649
0.0493348
0.0518249
0.0596403
0.0697404
0.0741583
0.0728067
0.0654061
0.0435993
0.0323138
0.0233209
0.0209846
0.017432
0.0189995
0.0179065
0.0209193
0.0181491
0.0190707
0.0128083
0.0118203
0.00645646
0.00646639
0.00411205
0.0127113
0.00781305
0.0380878
0.197164
2.44824
2.08384
1.73338
1.48043
1.21445
1.07816
0.872005
0.773153
0.755475
0.824755
0.885439
0.867571
0.807888
0.741751
0.656616
0.582168
0.546523
0.465736
0.391869
0.328411
0.202836
0.0903424
0.0499872
0.0529366
0.0801826
0.178971
0.324444
0.361062
0.352153
0.323951
0.252678
0.169187
0.135545
0.124276
0.127215
0.137307
0.167263
0.170259
0.163608
0.149309
0.118347
0.0994734
0.0861998
0.0814305
0.0791244
0.0800568
0.0920342
0.139432
0.345141
0.510422
0.504828
0.339315
0.213337
0.131793
0.098372
0.0738148
0.0685445
0.0640387
0.0648209
0.070811
0.0857366
0.124071
0.242235
0.319552
0.317626
0.268984
0.212721
0.127571
0.113311
0.0813099
0.0772391
0.0620652
0.0585403
0.053158
0.0540887
0.055525
0.0610082
0.071125
0.075524
0.0746512
0.0670525
0.0457296
0.0313874
0.0228904
0.017247
0.0154221
0.0171663
0.0169595
0.0240113
0.0224009
0.0515721
0.0405916
0.11011
0.0549384
0.0821404
0.0281062
0.0318271
0.0155212
0.0305266
0.107538
1.57673
1.39395
1.14146
0.990851
0.812097
0.715239
0.584259
0.473783
0.448412
0.467559
0.558867
0.637367
0.635186
0.609414
0.522615
0.430372
0.367262
0.262894
0.18794
0.107503
0.0566344
0.0330845
0.0341706
0.0548943
0.148557
0.362801
0.446369
0.442394
0.414211
0.387219
0.344798
0.231012
0.153939
0.127748
0.1169
0.116875
0.12786
0.133703
0.131762
0.125892
0.106971
0.0936481
0.0847501
0.0835811
0.0824412
0.0835047
0.0964652
0.151666
0.320062
0.532657
0.513322
0.321158
0.19297
0.121216
0.0996159
0.0725667
0.0718845
0.0650575
0.0650901
0.0678427
0.0791576
0.110901
0.214573
0.302528
0.304648
0.274965
0.235425
0.149078
0.133015
0.0970058
0.0920528
0.0743767
0.0675092
0.0585193
0.0583545
0.0585533
0.0640374
0.0723961
0.0782768
0.0769903
0.0687787
0.0482416
0.0310572
0.0233931
0.0159332
0.0151575
0.0142341
0.0158902
0.0166644
0.0196499
0.033639
0.0369453
0.109283
0.0920369
0.252984
0.166896
0.227849
0.102673
0.0645306
0.0861857
0.754076
0.680381
0.538238
0.466479
0.374182
0.318687
0.256949
0.19075
0.176449
0.185465
0.223705
0.300503
0.326719
0.319303
0.287535
0.231202
0.15298
0.0948071
0.0529114
0.029725
0.0202888
0.0208518
0.0314609
0.104084
0.355098
0.502214
0.507092
0.474903
0.419999
0.393511
0.372166
0.310459
0.199274
0.140876
0.119415
0.114435
0.11582
0.119565
0.119759
0.115521
0.101604
0.0915231
0.0886363
0.089362
0.0892656
0.090636
0.102622
0.16218
0.303853
0.535796
0.508886
0.318317
0.189658
0.120998
0.109531
0.07586
0.0770301
0.067448
0.0678099
0.068507
0.076004
0.1014
0.189583
0.284231
0.292557
0.273249
0.245
0.172973
0.153712
0.113393
0.106453
0.0860083
0.0759072
0.0632218
0.0619986
0.0619501
0.0680685
0.0773012
0.0832916
0.0816629
0.071193
0.0491856
0.0314106
0.0229924
0.0160116
0.0139075
0.0120884
0.0133792
0.0139893
0.0169663
0.0310013
0.038301
0.0711664
0.0790228
0.140332
0.152632
0.188372
0.161032
0.178927
0.119267
0.222926
0.200617
0.157348
0.135181
0.108137
0.0876947
0.0716158
0.0517418
0.047144
0.0503452
0.060549
0.0919559
0.121783
0.120504
0.109189
0.0787459
0.0465315
0.0265857
0.0141877
0.0107852
0.0121559
0.0185519
0.0585835
0.26011
0.537834
0.569831
0.535925
0.454364
0.394654
0.371631
0.364784
0.342997
0.26198
0.173423
0.13071
0.118063
0.116436
0.117098
0.11725
0.109789
0.0995911
0.0977715
0.0991666
0.101172
0.0999607
0.10065
0.111225
0.165216
0.30669
0.531028
0.494234
0.352881
0.201104
0.145231
0.136858
0.0879604
0.0908245
0.0728325
0.0748647
0.0706625
0.0759936
0.0954635
0.168447
0.268299
0.279755
0.269253
0.246336
0.188408
0.167151
0.12771
0.118387
0.0949732
0.0828364
0.0683258
0.066272
0.0657101
0.0704951
0.0799958
0.0874058
0.0860398
0.0752423
0.0509606
0.0327704
0.0228294
0.0167049
0.0131701
0.0108683
0.0108725
0.0111154
0.0122751
0.0158846
0.0265683
0.0799027
0.077515
0.213373
0.180737
0.259631
0.217209
0.202513
0.150215
0.0317097
0.0292866
0.0241605
0.0205782
0.0170501
0.013537
0.010907
0.00803297
0.00737183
0.00807046
0.0104066
0.0192787
0.0302047
0.0302602
0.027515
0.017881
0.010239
0.00609035
0.00594287
0.00724537
0.0114335
0.034348
0.14961
0.503247
0.627653
0.597939
0.50133
0.407899
0.349943
0.335994
0.343368
0.341176
0.311437
0.2163
0.153378
0.126693
0.119309
0.11871
0.117559
0.107214
0.107128
0.114403
0.11873
0.117883
0.1124
0.111876
0.120943
0.166273
0.322902
0.497485
0.490737
0.449041
0.236679
0.205731
0.174379
0.0914972
0.106559
0.0800859
0.087999
0.0755729
0.0779796
0.0910602
0.152372
0.249771
0.267405
0.261452
0.24393
0.196884
0.174164
0.138755
0.126891
0.102108
0.088775
0.0732856
0.0709661
0.0699054
0.0748829
0.0839657
0.092231
0.0903767
0.0784552
0.0516945
0.0337064
0.0225577
0.0168414
0.0128205
0.0107402
0.00986593
0.0100901
0.0109029
0.0107739
0.0172354
0.0190767
0.0560086
0.0549284
0.139387
0.157209
0.199472
0.256777
0.206507
0.00174766
0.00169837
0.00155718
0.00142414
0.00135125
0.00120328
0.00117697
0.00119745
0.0012376
0.00133875
0.00165337
0.00336206
0.00455745
0.00455148
0.00383552
0.00294131
0.00301362
0.00351215
0.00545279
0.0105335
0.025632
0.0900196
0.402591
0.681081
0.674217
0.573335
0.44979
0.38923
0.338725
0.321536
0.327996
0.336299
0.326162
0.267198
0.189084
0.142845
0.128552
0.126915
0.120733
0.117305
0.128133
0.145497
0.147799
0.142491
0.125184
0.122876
0.129494
0.170517
0.338794
0.425512
0.53006
0.549615
0.2525
0.226316
0.179327
0.0893379
0.138236
0.089225
0.106662
0.0816987
0.0830401
0.0912018
0.140332
0.233181
0.25602
0.251642
0.237615
0.20052
0.176396
0.146636
0.130684
0.106808
0.092392
0.0776387
0.0759688
0.0752451
0.083229
0.0888446
0.0981949
0.0952719
0.0826463
0.0528795
0.0357747
0.023056
0.0174082
0.0125395
0.0109961
0.00962655
0.0101651
0.0102055
0.010104
0.013834
0.0133359
0.0347523
0.0296351
0.0892536
0.0842819
0.135909
0.242566
0.233109
0.000304053
0.000332593
0.000384357
0.00045166
0.000629458
0.0007966
0.000973945
0.00149792
0.00164873
0.00163137
0.00160593
0.00154857
0.00138209
0.00140832
0.0016051
0.00236757
0.00420437
0.00827736
0.016567
0.0319816
0.0732075
0.2286
0.671946
0.760774
0.693561
0.505943
0.427211
0.385969
0.340349
0.315839
0.3166
0.334081
0.334698
0.310477
0.236786
0.172813
0.155553
0.144722
0.136002
0.140641
0.176971
0.188218
0.185691
0.168154
0.137917
0.13243
0.136602
0.174222
0.33453
0.380597
0.573343
0.602301
0.259277
0.228008
0.171662
0.0985117
0.221865
0.0988083
0.123909
0.090119
0.0949893
0.0934911
0.136821
0.220101
0.245685
0.242027
0.23036
0.200045
0.176096
0.150675
0.132529
0.10963
0.0945874
0.0819911
0.0820631
0.0825706
0.095367
0.0985572
0.107659
0.102553
0.0874078
0.0537829
0.0374199
0.023036
0.0181224
0.012319
0.0117736
0.00995342
0.0104661
0.00996102
0.00997563
0.0113604
0.0113074
0.0237799
0.0208568
0.0589422
0.0544916
0.0957228
0.123906
0.197528
0.000803363
0.00131677
0.00188008
0.00251493
0.00405975
0.005019
0.00592925
0.00827275
0.00909452
0.00899411
0.00813245
0.00593245
0.0056416
0.00598653
0.00750097
0.0119635
0.0191031
0.034211
0.0533923
0.0879547
0.182731
0.551786
0.812985
0.789309
0.605962
0.46599
0.419591
0.392522
0.350212
0.315653
0.311907
0.331906
0.343992
0.334485
0.281209
0.224688
0.191603
0.168909
0.167954
0.195324
0.240943
0.241179
0.228023
0.187648
0.15123
0.138935
0.140457
0.174575
0.301466
0.355813
0.581691
0.621957
0.288142
0.228137
0.184311
0.156467
0.302294
0.100371
0.167567
0.0957553
0.113455
0.0988397
0.143372
0.205885
0.237986
0.234775
0.224716
0.198245
0.175956
0.152535
0.133473
0.111506
0.0966567
0.0880127
0.0905682
0.0929948
0.111953
0.113804
0.121058
0.112415
0.0940278
0.0549161
0.0406661
0.0232851
0.0198044
0.0128225
0.0142208
0.0110956
0.0123244
0.0103655
0.0113678
0.0110567
0.011315
0.0174847
0.0171444
0.0405922
0.0391962
0.0728692
0.0792678
0.116968
0.00992792
0.0151581
0.0186243
0.0231181
0.0292017
0.0315372
0.0349917
0.0421382
0.0433505
0.0427418
0.0394625
0.0322957
0.0320737
0.0337792
0.039795
0.050965
0.0717306
0.105242
0.139692
0.207459
0.425135
0.812124
0.863202
0.738325
0.529151
0.447201
0.419026
0.40275
0.371759
0.340065
0.32848
0.340854
0.355688
0.354171
0.333593
0.274398
0.221819
0.209776
0.223142
0.284625
0.299957
0.283283
0.247688
0.198497
0.161329
0.14567
0.146256
0.177597
0.2571
0.326931
0.567948
0.646295
0.350773
0.263824
0.249714
0.266637
0.289806
0.114533
0.32895
0.103934
0.152477
0.107801
0.162969
0.204241
0.237576
0.23225
0.21955
0.193989
0.175168
0.154202
0.134944
0.112197
0.0998011
0.0967311
0.104846
0.109765
0.138253
0.135539
0.14129
0.124258
0.103391
0.0566593
0.0435349
0.0234619
0.0230824
0.0157076
0.0189298
0.0135875
0.0164044
0.0118982
0.0144437
0.0119262
0.0132656
0.016564
0.0167482
0.0304754
0.0298209
0.0538842
0.0573147
0.0785516
0.0912339
0.11112
0.118119
0.127845
0.13828
0.140671
0.148693
0.156584
0.155232
0.151461
0.139727
0.122216
0.121887
0.126085
0.139803
0.159143
0.200803
0.24348
0.297666
0.417815
0.748629
0.901641
0.850682
0.613092
0.499374
0.43993
0.422797
0.421141
0.4077
0.381699
0.364993
0.366143
0.380197
0.384136
0.368887
0.298918
0.265804
0.271905
0.317473
0.347654
0.33925
0.294461
0.255797
0.204228
0.162484
0.146081
0.148297
0.180527
0.21482
0.294043
0.504617
0.669636
0.468356
0.354155
0.286651
0.324483
0.235667
0.187602
0.482279
0.110133
0.241361
0.127129
0.20226
0.209616
0.24061
0.233831
0.219896
0.192907
0.176801
0.157893
0.137045
0.113531
0.107835
0.108566
0.133422
0.144054
0.184722
0.173325
0.175847
0.142258
0.115353
0.0593228
0.0483657
0.026686
0.0307641
0.0210185
0.0262954
0.0178127
0.0229154
0.0154087
0.0202167
0.0149786
0.0193586
0.0181872
0.0185598
0.0260957
0.0256635
0.0391909
0.0417957
0.0571076
0.4006
0.411988
0.410184
0.412344
0.41299
0.407616
0.408294
0.404309
0.389666
0.369688
0.337133
0.307024
0.303729
0.309152
0.326337
0.353363
0.397756
0.444886
0.526469
0.734551
0.891724
0.89669
0.688658
0.543311
0.489852
0.433842
0.423142
0.432781
0.440402
0.421054
0.396437
0.39369
0.402901
0.4052
0.381266
0.333733
0.33504
0.364763
0.382699
0.382705
0.351407
0.291313
0.258635
0.205558
0.1607
0.145252
0.151127
0.178786
0.193092
0.262692
0.415297
0.658253
0.60534
0.4502
0.299702
0.292404
0.266104
0.28587
0.346876
0.149683
0.474062
0.140022
0.29092
0.230493
0.252005
0.239296
0.224564
0.194163
0.182944
0.163044
0.139379
0.12159
0.123445
0.132535
0.201539
0.21972
0.268492
0.237783
0.230763
0.167131
0.12748
0.0626243
0.0563811
0.037393
0.0431758
0.0302167
0.0378137
0.025893
0.0336634
0.022854
0.0303577
0.0221671
0.0278866
0.0230082
0.023438
0.0268104
0.0263819
0.0321859
0.0336594
0.0423475
1.03127
0.993806
0.918963
0.879186
0.837143
0.789538
0.770297
0.737605
0.689272
0.636277
0.588285
0.547873
0.541934
0.547213
0.558262
0.580425
0.615343
0.676639
0.79764
0.889736
0.903801
0.770691
0.519322
0.515748
0.492966
0.431258
0.417325
0.435671
0.455298
0.454004
0.442872
0.440218
0.438772
0.439119
0.417717
0.419704
0.415045
0.412851
0.398805
0.377998
0.297012
0.260282
0.244122
0.197342
0.152068
0.143502
0.160507
0.184323
0.181639
0.223797
0.337725
0.643357
0.687719
0.500738
0.291987
0.276058
0.273448
0.27162
0.252799
0.230272
0.404494
0.173376
0.303852
0.275432
0.283872
0.253728
0.235601
0.202578
0.193108
0.169189
0.146464
0.141615
0.162888
0.1986
0.366042
0.387932
0.42971
0.355301
0.315792
0.189822
0.14102
0.0711384
0.0726413
0.0518791
0.0604044
0.043339
0.0548901
0.038204
0.0501791
0.0354499
0.0465049
0.0349691
0.0424424
0.0331583
0.0339679
0.0319129
0.0310076
0.0330122
0.0336948
0.0367027
1.84407
1.66106
1.47567
1.35269
1.24114
1.15009
1.08443
1.0088
0.921031
0.855738
0.807573
0.77285
0.764277
0.765792
0.770661
0.788407
0.831214
0.894838
0.922409
0.91207
0.80826
0.504605
0.434931
0.524214
0.547148
0.455712
0.417001
0.425169
0.454918
0.469841
0.479472
0.485844
0.49109
0.494108
0.477702
0.458898
0.424026
0.407372
0.366097
0.263069
0.193581
0.209268
0.20646
0.176109
0.146593
0.144628
0.182223
0.199332
0.178702
0.189163
0.265555
0.626943
0.709598
0.535061
0.332382
0.335098
0.277454
0.28203
0.335709
0.228881
0.316546
0.250424
0.304071
0.303049
0.33287
0.287364
0.253115
0.231784
0.211604
0.175945
0.174553
0.185922
0.300583
0.418447
0.75145
0.738772
0.735565
0.546694
0.42184
0.20863
0.166151
0.0931356
0.103359
0.0743682
0.0902635
0.0653777
0.084689
0.0591828
0.0792288
0.0569537
0.074941
0.0560793
0.0667317
0.0508602
0.0509139
0.0448309
0.0441161
0.0416705
0.0392861
0.0391719
2.58602
2.18964
1.87551
1.65256
1.46895
1.34297
1.24109
1.13973
1.06548
1.01697
0.980059
0.952814
0.945958
0.948572
0.956727
0.981445
0.988516
0.979406
0.931982
0.763601
0.472078
0.335895
0.379785
0.608741
0.701598
0.575531
0.450495
0.417376
0.427146
0.454663
0.476568
0.490508
0.500003
0.500268
0.480128
0.447462
0.403293
0.34064
0.215537
0.155354
0.152136
0.163868
0.159997
0.155539
0.148577
0.15216
0.205803
0.21053
0.184404
0.178991
0.235629
0.581802
0.694215
0.710505
0.434064
0.429598
0.319488
0.315792
0.337669
0.229558
0.346429
0.463623
0.407371
0.354582
0.364822
0.319038
0.277981
0.250021
0.231624
0.236701
0.277577
0.401378
0.822967
1.15717
1.37006
1.16355
0.995508
0.589916
0.46371
0.230769
0.215459
0.148711
0.169244
0.121571
0.154208
0.111321
0.148156
0.103463
0.141839
0.102724
0.136437
0.100548
0.121118
0.0898159
0.0898945
0.0777626
0.0766207
0.0690259
0.0659278
0.0568971
3.04943
2.38709
1.98521
1.70715
1.51562
1.39459
1.29421
1.22211
1.17939
1.14183
1.116
1.10395
1.10383
1.10376
1.09658
1.07604
1.02477
0.888069
0.600155
0.364312
0.249138
0.242921
0.354657
0.663061
0.939492
0.94195
0.654124
0.497882
0.428892
0.413324
0.438303
0.460654
0.471265
0.464027
0.432655
0.368383
0.278673
0.171993
0.122435
0.126064
0.142715
0.138562
0.146752
0.153484
0.159001
0.20055
0.247761
0.25022
0.283873
0.298271
0.354847
0.532856
0.644798
0.805141
0.658208
0.653169
0.460548
0.412921
0.499314
0.274642
0.373968
0.541821
0.408749
0.428599
0.378504
0.369034
0.344734
0.366242
0.442019
0.649124
0.905979
1.59128
1.88058
1.84212
1.67224
1.15015
0.958439
0.567816
0.514442
0.342112
0.378319
0.28066
0.331351
0.246696
0.317559
0.233479
0.308558
0.222847
0.30562
0.224579
0.29946
0.222328
0.276317
0.208783
0.223549
0.197591
0.202942
0.187512
0.194651
0.189523
3.00983
2.25155
1.84878
1.61248
1.47914
1.39045
1.31845
1.27507
1.24733
1.22271
1.21437
1.21022
1.19582
1.15968
1.09014
0.944648
0.718658
0.477326
0.301228
0.225152
0.216219
0.236937
0.334604
0.643556
1.0177
1.27647
1.42978
1.20333
0.871262
0.569192
0.410007
0.354071
0.341433
0.312667
0.270962
0.214133
0.167274
0.138316
0.136071
0.155661
0.163867
0.169804
0.19229
0.227034
0.254731
0.335413
0.416355
0.698633
0.897198
0.886699
0.746897
0.668012
0.622909
0.782482
0.997822
0.917031
0.976501
0.566849
1.00336
0.449941
0.508327
0.640794
0.484453
0.631808
0.595236
0.774752
0.9353
1.70424
2.04882
2.90508
2.76443
2.84017
2.26002
1.99031
1.22831
1.18879
0.903617
0.877879
0.790163
0.796919
0.793866
0.752941
0.79614
0.731855
0.815447
0.709252
0.816684
0.690989
0.840831
0.707094
0.861003
0.729722
0.876333
0.76803
0.883216
0.907195
0.996372
1.04979
1.19682
1.31332
1.94807
1.52441
1.3271
1.21327
1.12924
1.05413
0.988711
0.942873
0.917445
0.906014
0.901915
0.890148
0.853427
0.78543
0.687577
0.572912
0.476249
0.428394
0.429414
0.48823
0.6489
0.887829
1.05902
1.00781
0.779298
0.985097
1.82856
2.66934
3.08305
3.03176
2.41519
1.57611
0.900317
0.474662
0.261698
0.172256
0.151995
0.175513
0.194973
0.179572
0.164807
0.191627
0.246386
0.345705
0.462654
0.854183
1.24908
1.65729
1.49219
1.51704
1.40162
1.14327
0.688455
0.726754
1.04425
1.26186
2.20303
1.08143
2.49235
0.61927
0.988398
0.705443
0.702858
1.52041
2.05065
3.96779
4.52165
5.71541
4.91744
4.91381
3.29683
2.95279
1.31822
1.52597
0.639184
1.3397
0.644383
1.57131
0.857212
1.84639
1.08232
2.03512
1.26601
2.1568
1.42236
2.20946
1.57617
2.26058
1.78666
2.32231
2.02715
2.48279
2.38022
2.79386
2.97678
3.64987
3.76382
4.55683
4.75125
5.56697
0.116015
0.206816
0.439934
1.10015
0.918918
0.368489
0.2153
0.251388
0.397909
0.555325
0.587904
0.494766
0.370245
0.648316
1.37948
1.85998
2.33787
3.16182
3.74612
3.6826
2.42432
1.3416
0.804495
0.579697
0.495551
0.618549
1.14341
1.48098
1.59464
1.58675
1.29798
0.850652
1.15779
2.06972
2.63025
3.02803
3.25195
2.13671
1.1083
0.963011
0.447134
0.340059
0.364551
0.566547
0.906342
1.18606
1.31018
1.35843
1.40523
1.45895
1.54785
1.70404
1.8621
1.85122
1.55853
1.16488
0.861544
0.616555
0.397065
0.223253
0.131207
0.0888742
0.0726758
0.0653358
0.0647848
0.0691006
0.0775497
0.0894945
0.0990269
0.105583
0.107524
0.106846
0.107901
0.109581
0.11299
0.117451
0.120783
0.122094
0.118711
0.110598
0.09771
0.0818485
0.0642928
0.0473502
0.0339851
0.0277956
0.0252133
0.0238062
0.0232387
0.0234357
0.0239277
0.0249653
0.0276046
0.0340758
0.0419979
0.0470533
0.179872
0.367695
0.271125
0.137491
0.194715
0.212199
0.218347
0.319897
0.506774
0.395488
0.201019
0.137598
0.139461
0.15929
0.247127
0.603777
1.41365
1.72884
1.66522
1.48384
1.32278
1.22772
0.877129
0.663956
0.62703
0.618457
0.592071
0.595216
0.651138
0.612717
0.468435
0.530724
0.534144
0.574059
1.05215
1.53302
1.57658
1.51798
1.00674
0.805037
0.609395
0.265296
0.217949
0.219791
0.227215
0.22223
0.249987
0.25368
0.274952
0.348746
0.544843
0.670376
0.701827
0.751455
0.825689
0.871911
0.964342
1.28147
1.45716
1.38026
0.906401
0.423715
0.208811
0.127551
0.103444
0.095795
0.095885
0.0970816
0.0970205
0.10012
0.101916
0.107405
0.11211
0.119186
0.127439
0.140404
0.154126
0.171983
0.190603
0.209906
0.226715
0.239315
0.246166
0.246854
0.241662
0.229316
0.212206
0.19164
0.166949
0.139307
0.107375
0.0735515
0.0471126
0.0326943
0.0287937
0.0331719
0.0430871
0.0549563
0.0694701
0.133576
0.21729
0.211657
0.136153
0.150724
0.22691
0.176973
0.149241
0.162322
0.239154
0.242772
0.184883
0.127976
0.129283
0.190958
0.4755
1.22745
1.57445
1.52521
1.05987
0.793218
0.673476
0.565615
0.470808
0.453706
0.512039
0.589368
0.62201
0.624995
0.634609
0.656591
0.566524
0.382107
0.371955
0.724236
1.4078
1.38922
1.0183
0.488664
0.292591
0.243355
0.220627
0.207867
0.181702
0.182543
0.177654
0.170147
0.183647
0.18177
0.157956
0.135652
0.137451
0.152286
0.163334
0.164531
0.167404
0.176442
0.198987
0.264562
0.535377
0.9676
0.982487
0.75195
0.326548
0.159408
0.119043
0.111015
0.10427
0.101388
0.0933703
0.0882143
0.0751296
0.0701572
0.0576072
0.0549795
0.0489086
0.0522926
0.056493
0.0639488
0.0754461
0.0958626
0.125089
0.158342
0.192883
0.218364
0.235394
0.242649
0.244323
0.242553
0.236374
0.222777
0.203263
0.177231
0.140303
0.0958003
0.0586463
0.046788
0.0481446
0.0585828
0.0817046
0.14005
0.181739
0.115501
0.0975996
0.128781
0.245402
0.161672
0.120754
0.121781
0.14472
0.16657
0.155345
0.130612
0.155068
0.333486
0.877403
1.29534
1.35942
0.80737
0.559886
0.487616
0.458072
0.440561
0.390655
0.379298
0.385516
0.423803
0.495909
0.556651
0.570717
0.588196
0.558593
0.502117
0.596553
1.08866
1.3314
0.849791
0.433041
0.232077
0.192755
0.217867
0.231356
0.228365
0.210649
0.209471
0.185758
0.162928
0.145874
0.156966
0.148552
0.115342
0.093165
0.0842499
0.0775175
0.0763709
0.0800631
0.0938873
0.111412
0.126352
0.165028
0.301459
0.717796
0.760022
0.586709
0.259208
0.143106
0.112759
0.0952473
0.0844738
0.0654935
0.0513071
0.0381879
0.0336401
0.0286036
0.0283138
0.0293382
0.0305091
0.0313677
0.0311618
0.030748
0.0308621
0.0329856
0.0415623
0.0617022
0.0980049
0.137957
0.176339
0.203942
0.221628
0.231404
0.235293
0.23534
0.23156
0.220119
0.194682
0.146493
0.10304
0.0810551
0.075347
0.0824693
0.125846
0.133328
0.0794921
0.0710755
0.122974
0.246336
0.151817
0.11193
0.104449
0.112884
0.142737
0.145566
0.146197
0.218152
0.539903
0.972929
1.16568
0.728527
0.411641
0.341287
0.327536
0.328167
0.327397
0.323661
0.324256
0.343651
0.350601
0.382939
0.458244
0.539373
0.572471
0.533034
0.550288
0.776322
1.09548
0.969757
0.454416
0.249075
0.188074
0.192829
0.225836
0.228609
0.212406
0.227852
0.262966
0.244946
0.181306
0.13491
0.129446
0.132833
0.117653
0.0874328
0.0791963
0.0794609
0.0779483
0.0833237
0.113724
0.154182
0.179828
0.182803
0.198145
0.317778
0.632925
0.634279
0.432206
0.19775
0.110239
0.0745157
0.0566196
0.0434362
0.0345792
0.0293673
0.0283776
0.0282235
0.0303422
0.0356204
0.0367145
0.0366109
0.0334938
0.0307139
0.0270819
0.0232552
0.0204154
0.019414
0.0209445
0.029882
0.0548708
0.0936406
0.130065
0.168574
0.198157
0.215626
0.227159
0.233085
0.233293
0.222732
0.190969
0.153994
0.12399
0.0855223
0.107392
0.106268
0.0604976
0.05313
0.117616
0.227568
0.148093
0.110009
0.0946048
0.100032
0.13527
0.1436
0.164776
0.31324
0.662985
0.901613
0.815357
0.409284
0.315805
0.313249
0.33597
0.34021
0.326249
0.31144
0.308065
0.313056
0.31049
0.348386
0.354719
0.505849
0.57337
0.544768
0.574038
0.799657
0.977099
0.561255
0.275194
0.191443
0.177
0.196395
0.210526
0.182715
0.172088
0.210367
0.259554
0.257867
0.201944
0.140118
0.110836
0.120103
0.115202
0.093605
0.0823279
0.0819999
0.0926084
0.117782
0.168826
0.190822
0.208013
0.217204
0.211365
0.229332
0.403964
0.57946
0.533548
0.290757
0.132575
0.0689377
0.0459569
0.0349785
0.0306831
0.0291427
0.0297463
0.034292
0.0397728
0.0453462
0.0465896
0.0483354
0.0474199
0.0441914
0.0389332
0.0311895
0.0238279
0.0170594
0.0128993
0.0114707
0.0127548
0.0190722
0.038995
0.0607211
0.0981296
0.132898
0.175309
0.205306
0.222738
0.232671
0.22962
0.216941
0.20228
0.126222
0.103168
0.0879734
0.0467518
0.0454296
0.11554
0.221565
0.153733
0.112104
0.0911758
0.0944421
0.135568
0.143351
0.193943
0.39368
0.652204
0.735402
0.488411
0.302487
0.281502
0.297427
0.31371
0.314497
0.317468
0.291551
0.284123
0.299843
0.297479
0.320375
0.312037
0.42729
0.571817
0.639888
0.582159
0.744776
0.650102
0.351316
0.206991
0.177622
0.177194
0.191936
0.192052
0.166709
0.16052
0.184911
0.210385
0.203334
0.207167
0.149813
0.101686
0.111951
0.113977
0.102222
0.0918099
0.0919218
0.102748
0.158986
0.212571
0.23716
0.23616
0.233101
0.227222
0.223138
0.270076
0.487412
0.523538
0.412248
0.184322
0.0815819
0.0469616
0.0348993
0.0304722
0.0313179
0.0344578
0.0411347
0.0448679
0.0490363
0.0506105
0.0539757
0.0544797
0.05461
0.0503485
0.0448896
0.0360386
0.0273501
0.0182077
0.0115676
0.00776641
0.00753263
0.0091669
0.0152833
0.0272614
0.0509138
0.0772665
0.115489
0.16397
0.203196
0.221113
0.224766
0.239177
0.214675
0.11435
0.080083
0.0400935
0.0436381
0.115036
0.220057
0.175362
0.116069
0.0985995
0.0925151
0.138488
0.143601
0.230159
0.414537
0.595994
0.564695
0.344315
0.265342
0.256157
0.255858
0.253968
0.256356
0.280793
0.278657
0.281442
0.296715
0.291459
0.309176
0.307219
0.32417
0.567475
0.733035
0.587215
0.63009
0.406112
0.246047
0.183401
0.178056
0.179803
0.192192
0.185639
0.160418
0.156829
0.173023
0.193206
0.180369
0.202757
0.15592
0.10408
0.103484
0.11393
0.107557
0.0983566
0.0985608
0.107783
0.166297
0.230973
0.262295
0.264149
0.257981
0.242523
0.22657
0.236722
0.36966
0.495559
0.464176
0.271597
0.112804
0.0535925
0.0366655
0.0325614
0.0343157
0.0393281
0.0442001
0.0460937
0.0502487
0.0524496
0.0576769
0.0590463
0.0601067
0.0583531
0.0513222
0.0436542
0.0341487
0.0262384
0.0179625
0.0117608
0.00670131
0.00525678
0.00550145
0.00748904
0.0137235
0.0243589
0.046343
0.0711753
0.114628
0.17276
0.200266
0.233703
0.253032
0.15555
0.0843944
0.0423527
0.0505659
0.11638
0.221168
0.191552
0.11676
0.101856
0.0916534
0.138845
0.152413
0.253172
0.403377
0.516799
0.443373
0.272593
0.231051
0.221381
0.222169
0.214245
0.217863
0.236512
0.267422
0.28232
0.284245
0.280355
0.28255
0.317098
0.307189
0.463852
0.754271
0.654702
0.488563
0.335479
0.200956
0.181981
0.186279
0.190982
0.193715
0.183683
0.155331
0.156843
0.158074
0.179952
0.177737
0.20143
0.173613
0.109635
0.0984325
0.102941
0.10882
0.09655
0.0999026
0.118993
0.182249
0.240705
0.266787
0.268967
0.265729
0.257104
0.231778
0.228775
0.277599
0.453896
0.466698
0.359992
0.14968
0.0631284
0.0386662
0.0350448
0.0389157
0.0424303
0.0446413
0.0463226
0.0497482
0.0526013
0.0581359
0.0591864
0.0614401
0.0609273
0.0569923
0.0466224
0.0389042
0.0295295
0.0221154
0.0146782
0.0100554
0.00605051
0.0042011
0.00386938
0.00466581
0.00707745
0.0139908
0.0263441
0.0453453
0.0877075
0.124019
0.19361
0.24991
0.217663
0.106237
0.051359
0.0602493
0.125917
0.225161
0.204968
0.116876
0.0879504
0.0880293
0.136392
0.168621
0.259682
0.371208
0.430473
0.34978
0.227705
0.199272
0.179172
0.176703
0.167974
0.19045
0.218547
0.263424
0.280513
0.281641
0.273933
0.252018
0.309896
0.306531
0.380124
0.730188
0.709382
0.505396
0.324695
0.203145
0.186561
0.198493
0.19839
0.192507
0.181943
0.155708
0.156968
0.15592
0.163328
0.177043
0.194475
0.184474
0.118974
0.0982096
0.0975065
0.0939209
0.0869884
0.0872174
0.142129
0.213939
0.253018
0.262044
0.25986
0.259116
0.260087
0.245474
0.226827
0.242788
0.377118
0.458929
0.419142
0.222044
0.0813055
0.0435885
0.0384058
0.0418933
0.0438528
0.0442316
0.0454613
0.049364
0.0514668
0.056849
0.0580259
0.0615503
0.0619143
0.0594413
0.051096
0.0411638
0.0336514