/*--------------------------------*- C++ -*----------------------------------*\
| =========                 |                                                 |
| \\      /  F ield         | OpenFOAM: The Open Source CFD Toolbox           |
|  \\    /   O peration     | Version:  2.4.0                                 |
|   \\  /    A nd           | Web:      www.OpenFOAM.org                      |
|    \\/     M anipulation  |                                                 |
\*---------------------------------------------------------------------------*/
FoamFile
{
    version     2.0;
    format      ascii;
    class       volScalarField;
    location    "0.09";
    object      pMean;
}
// * * * * * * * * * * * * * * * * * * * * * * * * * * * * * * * * * * * * * //

dimensions      [0 2 -2 0 0 0 0];

internalField   nonuniform List<scalar> 
4400
(
151.191
129.102
120.419
116.118
112.468
108.851
105.167
101.501
97.5244
92.4332
149.286
129.166
120.455
116.129
112.471
108.852
105.168
101.502
97.5456
93.0182
148.089
129.47
120.587
116.168
112.491
108.859
105.173
101.501
97.6425
93.3238
147.359
129.836
120.761
116.225
112.533
108.888
105.187
101.525
97.7483
93.7077
146.766
130.171
120.936
116.284
112.592
108.928
105.221
101.545
97.8901
94.0642
146.256
130.448
121.088
116.329
112.648
108.982
105.263
101.59
98.0464
94.4407
145.836
130.668
121.214
116.356
112.693
109.028
105.307
101.638
98.1713
94.8757
145.515
130.835
121.313
116.37
112.725
109.065
105.348
101.692
98.2691
95.2588
145.298
130.948
121.381
116.377
112.746
109.095
105.377
101.746
98.38
95.6361
145.189
131.006
121.414
116.381
112.759
109.11
105.409
101.797
98.5019
95.936
145.188
131.008
121.414
116.383
112.761
109.12
105.428
101.849
98.6208
96.1856
145.295
130.954
121.381
116.382
112.756
109.117
105.446
101.902
98.7332
96.3865
145.509
130.845
121.313
116.378
112.74
109.105
105.458
101.95
98.8436
96.5444
145.829
130.682
121.214
116.368
112.714
109.082
105.462
101.997
98.9516
96.6585
146.248
130.464
121.087
116.345
112.675
109.049
105.461
102.037
99.0531
96.7357
146.757
130.189
120.934
116.305
112.625
109.011
105.457
102.072
99.1374
96.7951
147.349
129.855
120.759
116.248
112.571
108.978
105.454
102.102
99.1977
96.8414
148.08
129.488
120.586
116.193
112.532
108.96
105.456
102.126
99.2331
96.8802
149.277
129.184
120.454
116.155
112.514
108.955
105.46
102.139
99.247
96.9198
151.182
129.12
120.418
116.144
112.511
108.956
105.462
102.144
99.249
97.0223
89.5067
89.2219
87.9744
86.5509
85.4675
84.9121
84.5032
83.7307
83.0543
82.2776
81.4432
80.9485
80.9727
81.6957
82.9473
84.4847
86.2535
88.2502
90.3384
92.3569
94.1388
95.5963
96.6922
97.4493
97.8864
98.0441
98.026
97.9642
97.9179
97.9228
97.9834
98.1441
98.3745
98.6419
98.9019
99.2523
99.6441
100.14
100.617
101.088
101.551
101.975
102.349
102.688
102.982
103.127
103.233
103.236
103.237
103.2
103.289
103.386
103.758
104.074
104.639
105.118
105.839
106.38
107.008
107.326
107.76
107.796
107.963
107.742
107.81
107.541
107.658
107.417
107.629
107.414
107.736
107.518
107.919
107.633
108.073
107.675
108.115
107.57
107.993
107.312
107.715
106.957
107.325
106.551
106.855
106.072
106.269
105.466
105.512
104.631
104.501
103.424
103.122
101.61
101.197
98.6262
98.2166
92.3361
91.4654
63.5954
90.0931
89.4954
88.5789
87.4475
86.4312
85.8304
85.4402
84.8063
84.2117
83.5672
82.8193
82.3262
82.2928
82.908
84.0346
85.4616
87.0952
88.9115
90.8064
92.6334
94.2588
95.575
96.5405
97.1917
97.5617
97.6916
97.68
97.642
97.6266
97.6506
97.7245
97.8854
98.11
98.3618
98.5969
98.9167
99.2664
99.7348
100.19
100.656
101.133
101.574
102.001
102.388
102.733
102.918
103.066
103.098
103.116
103.108
103.199
103.29
103.656
103.961
104.543
105.023
105.778
106.34
106.992
107.335
107.793
107.845
108.015
107.791
107.839
107.558
107.651
107.391
107.581
107.333
107.64
107.373
107.773
107.423
107.888
107.407
107.906
107.247
107.779
106.936
107.518
106.532
107.172
106.072
106.714
105.549
106.117
104.904
105.311
104.004
104.185
102.643
102.576
100.457
100.335
96.6988
96.6691
88.2202
86.9834
56.0027
90.9312
90.1112
89.1621
88.1994
87.308
86.7006
86.314
85.7823
85.2358
84.6821
84.0657
83.6456
83.5994
84.1281
85.1616
86.5019
88.0145
89.6562
91.355
92.9793
94.4207
95.5788
96.3951
96.9251
97.2165
97.3143
97.309
97.2991
97.3229
97.3774
97.476
97.6526
97.8823
98.1317
98.3609
98.6659
98.9899
99.4401
99.8738
100.34
100.835
101.283
101.77
102.201
102.601
102.831
103.027
103.083
103.141
103.154
103.257
103.332
103.681
103.968
104.562
105.027
105.808
106.378
107.042
107.408
107.873
107.943
108.101
107.877
107.89
107.598
107.651
107.375
107.528
107.258
107.529
107.231
107.598
107.211
107.657
107.125
107.63
106.89
107.466
106.497
107.185
106.004
106.838
105.45
106.411
104.839
105.851
104.121
105.05
103.166
103.845
101.708
102.007
99.1638
99.2805
94.5841
95.0357
84.807
81.8761
54.233
91.6706
90.8485
89.8905
88.9796
88.1946
87.6103
87.222
86.7788
86.2868
85.8132
85.3314
84.9952
84.9588
85.4189
86.3656
87.6145
89.0049
90.4781
91.9739
93.3829
94.6179
95.595
96.2541
96.6509
96.8536
96.9153
96.9154
96.9386
97.0077
97.0994
97.2361
97.4439
97.6979
97.9622
98.204
98.5063
98.8192
99.2603
99.6708
100.145
100.654
101.11
101.666
102.132
102.59
102.864
103.109
103.185
103.304
103.332
103.464
103.513
103.843
104.103
104.708
105.135
105.944
106.489
107.16
107.542
108.001
108.088
108.225
107.997
107.962
107.657
107.656
107.369
107.469
107.19
107.402
107.095
107.4
107.001
107.389
106.845
107.299
106.533
107.073
106.048
106.734
105.44
106.334
104.742
105.874
103.96
105.341
103.07
104.624
101.957
103.441
100.412
101.463
97.7652
98.0826
92.5201
92.6989
81.7837
76.0364
54.5792
92.2442
91.5417
90.7243
89.8131
89.0691
88.5157
88.1449
87.7963
87.4025
87.0184
86.659
86.4147
86.4063
86.8059
87.6485
88.7866
90.0455
91.3436
92.6287
93.8109
94.824
95.6072
96.1061
96.3715
96.4807
96.5031
96.5126
96.5734
96.6893
96.8264
97.0136
97.2686
97.5634
97.8621
98.1362
98.4459
98.7576
99.1939
99.5809
100.077
100.591
101.063
101.689
102.177
102.698
103.012
103.303
103.387
103.591
103.629
103.813
103.815
104.143
104.36
104.983
105.348
106.194
106.673
107.358
107.736
108.179
108.284
108.386
108.154
108.058
107.742
107.672
107.379
107.407
107.126
107.264
106.957
107.182
106.787
107.091
106.561
106.926
106.178
106.621
105.611
106.195
104.9
105.696
104.064
105.119
103.072
104.434
101.859
103.567
100.378
102.449
98.5067
100.481
95.7202
97.1974
90.6989
90.1961
79.463
69.343
54.3573
92.767
92.1688
91.4644
90.5911
89.8815
89.4064
89.0998
88.854
88.5719
88.2778
88.0183
87.863
87.8978
88.2494
88.9756
89.9773
91.0885
92.2053
93.2728
94.2245
95.0146
95.5964
95.943
96.0927
96.1121
96.0988
96.1244
96.223
96.3862
96.5752
96.8225
97.1398
97.4916
97.8392
98.1551
98.4817
98.8042
99.2426
99.6119
100.141
100.645
101.147
101.836
102.33
102.911
103.264
103.596
103.672
103.993
104.028
104.286
104.227
104.584
104.737
105.381
105.659
106.553
106.925
107.646
107.986
108.415
108.533
108.588
108.348
108.185
107.855
107.708
107.409
107.355
107.078
107.126
106.831
106.957
106.583
106.778
106.279
106.525
105.821
106.13
105.177
105.607
104.382
105.001
103.455
104.305
102.342
103.467
100.926
102.417
99.083
100.966
96.479
98.6855
92.8693
95.1255
87.3781
86.4972
76.7631
64.8406
54.7992
93.398
92.7638
92.0332
91.2268
90.621
90.2808
90.081
89.9196
89.7318
89.5222
89.3465
89.2676
89.3469
89.6646
90.2758
91.1248
92.0717
93.0097
93.8697
94.602
95.177
95.5691
95.7825
95.8322
95.7703
95.7306
95.7721
95.9068
96.1171
96.3646
96.68
97.0717
97.4937
97.8999
98.2613
98.615
98.9597
99.4058
99.7619
100.329
100.808
101.359
102.089
102.583
103.215
103.611
103.963
104.02
104.496
104.501
104.853
104.725
105.137
105.211
105.888
106.058
107.009
107.237
108.019
108.281
108.712
108.838
108.835
108.59
108.349
108.007
107.774
107.471
107.328
107.057
107.006
106.728
106.743
106.399
106.466
106.014
106.118
105.474
105.62
104.745
104.991
103.862
104.273
102.848
103.461
101.673
102.5
100.214
101.28
98.2242
99.4738
95.1422
96.5953
90.4843
91.6531
83.151
81.358
72.4436
62.5607
55.2899
94.241
93.5113
92.5474
91.77
91.2977
91.0927
91.0011
90.9202
90.811
90.6825
90.581
90.563
90.678
90.972
91.4813
92.1798
92.9642
93.7279
94.3982
94.9348
95.3216
95.5545
95.6578
95.6163
95.4787
95.4192
95.478
95.6446
95.9031
96.2172
96.6048
97.0714
97.5685
98.039
98.4534
98.8427
99.2184
99.6743
100.026
100.629
101.071
101.685
102.424
102.929
103.59
104.028
104.393
104.41
105.072
105.018
105.467
105.29
105.774
105.75
106.465
106.524
107.525
107.598
108.472
108.608
109.081
109.193
109.13
108.883
108.559
108.205
107.882
107.577
107.338
107.08
106.924
106.67
106.566
106.258
106.188
105.79
105.735
105.16
105.12
104.333
104.37
103.348
103.522
102.216
102.571
100.906
101.449
99.2989
99.9927
97.1106
97.7684
93.8105
94.1503
88.6221
87.8838
80.4237
76.9821
69.6838
61.7171
54.9645
94.8796
94.1124
93.0206
92.2592
91.8939
91.8107
91.8347
91.8428
91.8064
91.7483
91.7058
91.7318
91.8712
92.1462
92.5724
93.136
93.7639
94.3596
94.8605
95.2361
95.4702
95.5804
95.5943
95.4631
95.2573
95.1872
95.2612
95.4586
95.7688
96.1546
96.6142
97.1541
97.7246
98.2614
98.7308
99.1598
99.5702
100.031
100.393
101.009
101.423
102.101
102.822
103.364
104.015
104.507
104.844
104.838
105.69
105.565
106.111
105.883
106.437
106.33
107.085
107.038
108.087
107.998
108.989
108.954
109.526
109.588
109.48
109.23
108.825
108.457
108.047
107.74
107.411
107.164
106.908
106.678
106.459
106.192
105.982
105.645
105.419
104.926
104.679
103.992
103.786
102.887
102.778
101.607
101.643
100.103
100.298
98.2476
98.534
95.7575
95.8515
92.1811
91.473
86.8477
84.3539
79.0974
74.4581
69.3272
61.5437
54.7106
95.3671
94.6192
93.4997
92.7664
92.4753
92.4884
92.6102
92.6987
92.7227
92.7181
92.7218
92.7797
92.9346
93.1947
93.5548
94.0006
94.4814
94.9223
95.2763
95.5194
95.6386
95.6653
95.6051
95.3872
95.1216
95.0483
95.1389
95.3715
95.7323
96.1801
96.7091
97.3268
97.9727
98.5771
99.1031
99.5719
100.014
100.47
100.854
101.45
101.851
102.581
103.268
103.872
104.463
105.023
105.296
105.309
106.316
106.118
106.77
106.494
107.126
106.937
107.721
107.589
108.66
108.434
109.545
109.322
110.039
110.01
109.883
109.635
109.144
108.767
108.272
107.966
107.555
107.319
106.979
106.773
106.458
106.228
105.902
105.614
105.244
104.815
104.382
103.778
103.324
102.548
102.117
101.1
100.741
99.3719
99.094
97.2441
96.9446
94.4701
93.8068
90.7
89.0388
85.4737
82.2377
78.7449
73.7179
70.5406
61.8424
55.4088
95.7508
95.0525
93.9658
93.273
93.0384
93.1163
93.3113
93.4713
93.556
93.6023
93.6478
93.7355
93.9008
94.1451
94.4482
94.7925
95.144
95.4512
95.6826
95.8119
95.8387
95.8098
95.6915
95.3958
95.0806
95.0141
95.1239
95.394
95.8064
96.3176
96.9203
97.6124
98.3326
99.0049
99.585
100.091
100.555
101
101.403
101.954
102.352
103.114
103.765
104.441
104.923
105.578
105.731
105.857
106.942
106.713
107.415
107.129
107.808
107.57
108.376
108.185
109.254
108.916
110.115
109.715
110.598
110.447
110.332
110.089
109.505
109.135
108.545
108.262
107.758
107.561
107.126
106.972
106.557
106.389
105.952
105.73
105.236
104.878
104.293
103.773
103.109
102.436
101.715
100.828
100.076
98.8845
98.0827
96.5099
95.554
93.5101
92.125
89.6671
87.4389
84.853
81.4191
79.3802
74.039
72.0878
62.7602
56.8008
96.0272
95.3945
94.3979
93.7821
93.6072
93.7361
93.9786
94.1923
94.3306
94.4242
94.509
94.6203
94.7906
95.0147
95.2619
95.5161
95.7609
95.9602
96.0825
96.1158
96.0767
96.0127
95.8464
95.4807
95.1289
95.0825
95.2163
95.5233
95.9922
96.5746
97.2561
98.0242
98.8175
99.5542
100.187
100.726
101.202
101.634
102.043
102.534
102.934
103.698
104.32
105.065
105.409
106.182
106.166
106.535
107.546
107.378
108.055
107.801
108.508
108.233
109.036
108.823
109.85
109.476
110.68
110.158
111.175
110.893
110.816
110.57
109.892
109.539
108.852
108.605
108.004
107.868
107.33
107.26
106.73
106.669
106.103
106.006
105.364
105.149
104.391
104.023
103.153
102.622
101.647
100.901
99.8242
98.8106
97.5792
96.2717
94.7915
93.1731
91.276
89.4786
86.8756
85.3233
81.6326
80.7734
74.9521
73.3834
64.121
57.9789
96.216
95.6702
94.8176
94.3086
94.1934
94.3486
94.6084
94.8498
95.0278
95.1621
95.2812
95.4151
95.5867
95.7816
95.9725
96.1488
96.2959
96.3946
96.431
96.3921
96.3107
96.2389
96.0553
95.6435
95.2781
95.2594
95.4305
95.7827
96.3086
96.9611
97.7191
98.5629
99.423
100.22
100.902
101.471
101.952
102.373
102.774
103.199
103.603
104.341
104.938
105.739
105.951
106.872
106.662
107.36
108.152
108.137
108.631
108.564
109.165
108.957
109.707
109.535
110.456
110.15
111.224
110.699
111.722
111.359
111.308
111.054
110.288
109.955
109.174
108.967
108.274
108.207
107.569
107.599
106.952
107.028
106.323
106.403
105.59
105.599
104.625
104.521
103.383
103.144
101.845
101.421
99.9489
99.2991
97.5975
96.7227
94.7087
93.6841
91.2396
90.2988
87.2019
86.754
82.5279
82.4343
76.1301
74.2732
65.4067
58.7551
96.2998
95.8549
95.1999
94.827
94.7753
94.943
95.1963
95.4411
95.6423
95.8063
95.9529
96.1025
96.2627
96.4218
96.56
96.6665
96.7389
96.7668
96.7338
96.6359
96.5293
96.467
96.2929
95.8737
95.5215
95.5287
95.7513
96.1634
96.7523
97.477
98.3096
99.2182
100.135
100.981
101.702
102.294
102.78
103.194
103.576
103.947
104.351
105.039
105.623
106.459
106.571
107.638
107.252
108.33
108.729
109.005
109.196
109.46
109.821
109.781
110.376
110.334
111.052
110.939
111.741
111.38
112.216
111.878
111.784
111.524
110.675
110.361
109.494
109.322
108.548
108.544
107.82
107.943
107.196
107.403
106.579
106.839
105.877
106.13
104.953
105.17
103.75
103.922
102.24
102.331
100.356
100.329
98.0155
97.8802
95.1667
95.0445
91.8522
91.9644
88.1451
88.5986
83.7519
83.8418
77.219
74.7393
66.4016
59.3506
96.3054
95.9848
95.5639
95.3335
95.3236
95.475
95.703
95.9382
96.1485
96.3281
96.4861
96.6335
96.7716
96.895
96.9925
97.0537
97.0765
97.0539
96.9748
96.8431
96.731
96.69
96.5452
96.1663
95.8628
95.8972
96.1676
96.6366
97.2879
98.0837
98.9865
99.953
100.915
101.796
102.543
103.152
103.642
104.053
104.416
104.749
105.149
105.77
106.352
107.213
107.238
108.439
107.878
109.348
109.392
109.903
109.821
110.489
110.465
110.751
111.022
111.207
111.619
111.805
112.211
112.199
112.644
112.467
112.206
111.964
111.031
110.734
109.791
109.649
108.805
108.857
108.058
108.266
107.431
107.759
106.832
107.264
106.176
106.668
105.316
105.857
104.183
104.788
102.748
103.415
100.945
101.664
98.7041
99.4799
95.9928
96.881
92.8797
93.9075
89.3789
90.2866
84.958
84.7803
78.0648
74.8758
67.1475
59.9662
96.2882
96.0851
95.8835
95.7648
95.7727
95.8984
96.0934
96.3085
96.5145
96.6978
96.8594
97.0044
97.1284
97.2258
97.2909
97.3172
97.3074
97.2575
97.1627
97.0279
96.9341
96.9206
96.8091
96.4989
96.2726
96.3459
96.6583
97.1781
97.8846
98.7389
99.6965
100.706
101.696
102.596
103.356
103.973
104.469
104.883
105.235
105.556
105.946
106.505
107.103
107.969
107.929
109.254
108.477
110.276
110.008
110.774
110.272
111.54
111.037
111.809
111.56
112.131
112.086
112.683
112.605
113.083
112.988
113.102
112.561
112.352
111.341
111.052
110.05
109.929
109.028
109.126
108.266
108.544
107.636
108.065
107.056
107.641
106.453
107.159
105.667
106.497
104.619
105.615
103.286
104.48
101.607
103.019
99.52
101.143
96.9907
98.7576
94.0494
95.7101
90.5921
91.5866
85.958
85.2572
78.7004
74.8422
67.7276
60.6317
96.3167
96.1898
96.1206
96.0727
96.0874
96.1896
96.3557
96.5501
96.7475
96.9305
97.0934
97.2333
97.3424
97.4202
97.4655
97.4748
97.4518
97.3958
97.3114
97.2045
97.1456
97.1542
97.0784
96.8574
96.7235
96.8407
97.1881
97.7464
98.4933
99.3881
100.38
101.41
102.407
103.305
104.064
104.681
105.181
105.601
105.96
106.292
106.676
107.186
107.796
108.645
108.547
110.009
109.063
111.085
110.41
111.771
110.706
112.417
111.516
112.724
112.007
113.055
112.479
113.554
112.951
113.89
113.301
113.661
112.831
112.659
111.594
111.295
110.26
110.144
109.208
109.335
108.434
108.763
107.8
108.312
107.24
107.956
106.69
107.578
105.974
107.045
105.011
106.328
103.782
105.405
102.238
104.201
100.32
102.588
97.9722
100.347
95.1447
97.1453
91.6146
92.4719
86.7081
85.3991
79.2018
74.7953
68.1695
61.3125
96.3975
96.3151
96.2817
96.254
96.2719
96.3591
96.5038
96.6815
96.8708
97.051
97.2103
97.3423
97.4404
97.5077
97.545
97.5513
97.5369
97.4991
97.4413
97.3745
97.3569
97.3861
97.3427
97.2111
97.1661
97.3274
97.699
98.2759
99.0396
99.9491
100.949
101.977
102.962
103.843
104.589
105.198
105.701
106.128
106.506
106.867
107.261
107.746
108.354
109.145
109.03
110.586
109.524
111.77
110.601
112.584
111.131
112.994
111.859
113.501
112.374
113.821
112.783
114.254
113.221
114.466
113.514
114.034
112.994
112.864
111.768
111.452
110.391
110.285
109.315
109.476
108.534
108.914
107.899
108.49
107.364
108.191
106.863
107.892
106.213
107.46
105.331
106.874
104.204
106.119
102.791
105.114
101.024
103.691
98.8142
101.532
96.0274
98.1701
92.3754
93.0205
87.2262
85.3858
79.5813
74.7976
68.4789
61.9425
96.4842
96.4123
96.3639
96.3353
96.3525
96.429
96.5589
96.7253
96.9086
97.0877
97.2461
97.377
97.4732
97.5407
97.5823
97.5979
97.5972
97.5809
97.5548
97.5306
97.5478
97.5905
97.5733
97.5099
97.5351
97.7303
98.1126
98.6891
99.4465
100.346
101.334
102.34
103.3
104.158
104.886
105.486
105.99
106.424
106.822
107.213
107.626
108.109
108.727
109.438
109.342
110.972
109.726
112.294
110.816
112.921
111.341
113.417
112.168
114.031
112.62
114.317
113.042
114.672
113.441
114.782
113.658
114.241
113.104
112.973
111.863
111.532
110.451
110.356
109.357
109.548
108.569
108.994
107.93
108.589
107.404
108.321
106.925
108.061
106.31
107.686
105.48
107.179
104.427
106.526
103.115
105.642
101.47
104.332
99.3729
102.22
96.6238
98.7551
92.8992
93.2912
87.67
85.3064
79.9079
74.8215
68.6633
62.4101
96.6397
96.4855
96.3935
96.3568
96.3705
96.441
96.5647
96.7259
96.9046
97.0807
97.237
97.3673
97.4677
97.5427
97.5948
97.6247
97.6402
97.6418
97.6358
97.6343
97.6648
97.7099
97.7047
97.6736
97.7304
97.9395
98.3202
98.8879
99.6319
100.517
101.489
102.48
103.424
104.269
104.99
105.588
106.094
106.532
106.939
107.344
107.771
108.251
108.865
109.548
109.476
111.138
109.896
112.541
110.954
113.055
111.493
113.738
112.251
114.217
112.749
114.53
113.162
114.823
113.534
114.901
113.698
114.318
113.124
113.005
111.886
111.555
110.468
110.377
109.367
109.564
108.574
109.015
107.937
108.618
107.408
108.358
106.925
108.11
106.312
107.755
105.487
107.28
104.443
106.669
103.147
105.835
101.535
104.57
99.4845
102.477
96.7774
98.9695
93.0552
93.3712
87.7816
85.2159
79.9572
74.7846
68.6935
62.3869
92.0963
91.5514
90.3015
88.7581
87.3684
86.1392
85.193
84.9295
84.9273
85.2542
86.0017
87.1385
88.5443
89.8635
91.0021
92.1959
93.5808
95.0389
96.405
97.8185
99.4919
101.201
102.708
103.95
105.034
106.26
107.678
109.182
110.575
111.844
113.11
114.276
115.415
116.144
116.683
116.741
116.712
116.461
116.237
115.841
115.475
115.045
114.578
114.107
113.662
113.264
112.919
112.616
112.345
112.096
111.858
111.628
111.397
111.162
110.934
110.712
110.499
110.289
110.085
109.892
109.724
109.571
109.439
109.319
109.214
109.125
109.06
109.012
108.994
108.993
109.013
109.037
109.065
109.089
109.106
109.114
109.115
109.112
109.108
109.108
109.117
109.137
109.169
109.217
109.278
109.352
109.44
109.54
109.65
109.768
109.895
110.032
110.159
110.231
110.253
110.33
110.465
110.845
111.683
112.714
92.0185
91.4511
90.1537
88.5473
87.095
85.831
84.8799
84.6446
84.64
84.9885
85.7543
86.8722
88.2276
89.4969
90.6047
91.8267
93.2581
94.7465
96.1416
97.6325
99.3508
101.068
102.504
103.648
104.691
105.935
107.388
108.901
110.296
111.553
112.821
113.982
115.123
115.889
116.434
116.54
116.514
116.315
116.1
115.75
115.395
114.994
114.545
114.089
113.653
113.262
112.921
112.621
112.351
112.101
111.863
111.632
111.401
111.163
110.931
110.708
110.494
110.285
110.08
109.886
109.718
109.565
109.434
109.314
109.208
109.118
109.053
109.005
108.988
108.987
109.009
109.035
109.064
109.088
109.106
109.114
109.115
109.111
109.107
109.107
109.115
109.134
109.167
109.214
109.276
109.35
109.44
109.54
109.651
109.767
109.894
110.029
110.161
110.234
110.249
110.281
110.351
110.692
111.527
112.55
91.8761
91.2486
89.8633
88.1244
86.5562
85.16
84.1868
84.0114
84.0733
84.466
85.2595
86.303
87.5
88.6374
89.6809
90.9221
92.4246
93.9904
95.5015
97.1507
99.0107
100.752
102.073
103.045
103.988
105.229
106.739
108.29
109.703
110.945
112.217
113.389
114.531
115.356
115.899
116.091
116.078
115.966
115.783
115.5
115.178
114.823
114.408
113.977
113.56
113.184
112.856
112.567
112.307
112.066
111.834
111.606
111.377
111.143
110.916
110.696
110.483
110.274
110.068
109.873
109.706
109.554
109.423
109.302
109.196
109.105
109.04
108.992
108.977
108.976
109.001
109.027
109.059
109.084
109.102
109.11
109.11
109.104
109.098
109.096
109.102
109.119
109.149
109.195
109.255
109.33
109.417
109.518
109.627
109.747
109.869
110.009
110.15
110.251
110.261
110.229
110.156
110.436
111.253
112.279
91.672
90.9818
89.4643
87.5768
85.886
84.3004
83.2843
83.1132
83.2206
83.7025
84.5603
85.4804
86.4206
87.3727
88.3737
89.6499
91.2441
92.9098
94.5795
96.412
98.4211
100.184
101.443
102.265
103.101
104.311
105.864
107.463
108.914
110.158
111.434
112.625
113.741
114.62
115.17
115.442
115.466
115.442
115.318
115.101
114.83
114.525
114.152
113.754
113.363
113.009
112.699
112.429
112.188
111.964
111.747
111.532
111.314
111.092
110.874
110.662
110.456
110.25
110.048
109.853
109.686
109.536
109.404
109.282
109.176
109.081
109.017
108.966
108.954
108.954
108.983
109.01
109.044
109.071
109.09
109.097
109.095
109.086
109.077
109.07
109.071
109.083
109.109
109.149
109.206
109.276
109.363
109.462
109.574
109.691
109.819
109.956
110.119
110.245
110.278
110.163
109.977
110.17
110.978
111.987
91.4296
90.6733
89.0164
86.9832
85.1516
83.3669
82.2615
82.0361
82.1122
82.6279
83.4783
84.2627
84.9775
85.7957
86.8256
88.1723
89.8643
91.6545
93.4877
95.4805
97.6094
99.3948
100.651
101.383
102.126
103.328
104.937
106.578
108.061
109.301
110.548
111.736
112.801
113.692
114.257
114.591
114.682
114.755
114.714
114.578
114.376
114.122
113.798
113.438
113.078
112.749
112.462
112.214
111.997
111.795
111.599
111.402
111.2
110.995
110.793
110.597
110.405
110.208
110.013
109.82
109.654
109.505
109.372
109.247
109.138
109.04
108.976
108.924
108.916
108.917
108.951
108.98
109.019
109.047
109.067
109.073
109.069
109.057
109.042
109.029
109.023
109.027
109.045
109.077
109.125
109.189
109.27
109.366
109.475
109.597
109.727
109.876
110.04
110.205
110.247
110.102
109.804
109.965
110.74
111.766
91.1779
90.3627
88.577
86.4138
84.4423
82.4481
81.1962
80.8262
80.7575
81.1984
81.9344
82.5817
83.2129
84.0185
85.1638
86.6233
88.4442
90.3867
92.3785
94.4851
96.6688
98.5089
99.8116
100.521
101.196
102.416
104.084
105.739
107.214
108.42
109.601
110.741
111.727
112.581
113.16
113.547
113.724
113.904
113.985
113.949
113.825
113.631
113.358
113.041
112.716
112.412
112.148
111.923
111.732
111.554
111.381
111.205
111.024
110.841
110.662
110.491
110.319
110.139
109.959
109.77
109.609
109.458
109.324
109.193
109.086
108.982
108.921
108.867
108.865
108.867
108.908
108.94
108.985
109.016
109.037
109.043
109.035
109.019
108.997
108.977
108.96
108.956
108.96
108.983
109.017
109.072
109.14
109.23
109.331
109.453
109.588
109.744
109.923
110.095
110.175
110.005
109.701
109.821
110.655
111.642
90.9424
90.0772
88.1732
85.8943
83.7805
81.5972
80.1413
79.5005
79.1913
79.4164
79.9806
80.5218
81.2575
82.177
83.4903
85.1054
87.096
89.2261
91.3843
93.5894
95.8061
97.7023
99.0694
99.7892
100.412
101.647
103.353
104.966
106.385
107.523
108.621
109.674
110.563
111.347
111.935
112.367
112.643
112.93
113.15
113.215
113.18
113.058
112.836
112.562
112.278
112.001
111.759
111.555
111.39
111.236
111.088
110.936
110.782
110.625
110.476
110.336
110.195
110.04
109.881
109.704
109.548
109.396
109.261
109.124
109.018
108.91
108.852
108.796
108.803
108.805
108.856
108.89
108.943
108.977
109.001
109.007
108.997
108.975
108.948
108.917
108.893
108.873
108.868
108.872
108.895
108.93
108.988
109.057
109.153
109.261
109.4
109.556
109.743
109.926
110.018
109.894
109.609
109.798
110.6
111.696
90.73
89.818
87.7867
85.3975
83.1549
80.8191
79.1123
78.1361
77.5503
77.4577
77.8251
78.3104
79.2658
80.4058
81.8916
83.7059
85.8874
88.2253
90.5665
92.8771
95.13
97.0752
98.5036
99.246
99.842
101.075
102.764
104.261
105.584
106.632
107.628
108.559
109.34
110.039
110.627
111.114
111.489
111.881
112.234
112.397
112.454
112.403
112.234
111.996
111.757
111.511
111.292
111.111
110.971
110.84
110.716
110.589
110.465
110.342
110.23
110.127
110.027
109.905
109.777
109.615
109.47
109.316
109.183
109.039
108.934
108.823
108.769
108.711
108.725
108.729
108.791
108.83
108.895
108.931
108.961
108.965
108.955
108.928
108.893
108.854
108.818
108.787
108.766
108.757
108.76
108.78
108.814
108.869
108.94
109.041
109.158
109.318
109.491
109.686
109.793
109.736
109.553
109.808
110.738
111.706
90.5341
89.557
87.3854
84.8824
82.5224
80.0838
78.1131
76.8179
75.9926
75.5476
75.6811
76.1575
77.3499
78.7892
80.4555
82.4783
84.8472
87.4072
89.9426
92.3724
94.6696
96.6511
98.1267
98.9004
99.4912
100.697
102.291
103.633
104.816
105.75
106.624
107.406
108.073
108.702
109.283
109.832
110.295
110.789
111.26
111.516
111.655
111.669
111.552
111.344
111.146
110.935
110.742
110.587
110.474
110.365
110.263
110.161
110.07
109.986
109.921
109.861
109.81
109.73
109.64
109.503
109.373
109.221
109.09
108.937
108.836
108.72
108.672
108.611
108.634
108.639
108.714
108.762
108.836
108.88
108.914
108.921
108.907
108.878
108.834
108.789
108.739
108.698
108.66
108.636
108.619
108.62
108.632
108.664
108.713
108.785
108.889
109.018
109.19
109.361
109.508
109.517
109.478
109.84
110.75
111.987
90.3239
89.2614
86.9356
84.3129
81.8352
79.3541
77.1713
75.6196
74.6031
73.8153
73.7352
74.2179
75.6304
77.3916
79.2359
81.4504
84.0071
86.7806
89.4977
92.0513
94.4011
96.4099
97.9125
98.7237
99.3224
100.455
101.898
103.055
104.059
104.869
105.598
106.231
106.786
107.371
107.944
108.553
109.099
109.681
110.246
110.584
110.795
110.863
110.793
110.615
110.455
110.278
110.111
109.981
109.898
109.81
109.732
109.651
109.598
109.557
109.548
109.534
109.542
109.509
109.469
109.36
109.257
109.107
108.983
108.821
108.723
108.601
108.561
108.496
108.529
108.537
108.627
108.684
108.771
108.82
108.861
108.869
108.857
108.822
108.775
108.717
108.66
108.602
108.552
108.507
108.476
108.451
108.445
108.447
108.472
108.513
108.585
108.687
108.821
108.99
109.14
109.254
109.348
109.86
110.925
111.938
90.0693
88.8949
86.4267
83.6709
81.088
78.6368
76.3482
74.6206
73.4525
72.3595
72.1314
72.6477
74.2684
76.3127
78.2906
80.6597
83.373
86.3169
89.1875
91.8571
94.2628
96.3024
97.8181
98.6721
99.2916
100.302
101.547
102.496
103.3
103.969
104.54
105.043
105.5
106.064
106.639
107.304
107.921
108.576
109.21
109.616
109.888
110
109.97
109.822
109.694
109.546
109.41
109.302
109.249
109.182
109.125
109.064
109.05
109.055
109.109
109.149
109.224
109.244
109.262
109.19
109.118
108.975
108.861
108.691
108.6
108.471
108.438
108.368
108.414
108.428
108.532
108.599
108.698
108.753
108.803
108.813
108.803
108.765
108.711
108.646
108.575
108.506
108.438
108.379
108.324
108.282
108.246
108.227
108.216
108.23
108.259
108.324
108.421
108.552
108.724
108.885
109.145
109.727
110.845
112.205
89.7206
88.4411
85.8683
83.0103
80.3645
78.0158
75.7575
73.9498
72.6588
71.3637
71.0394
71.5888
73.348
75.5865
77.6504
80.1143
82.9414
86.0103
88.99
91.7501
94.2033
96.2649
97.7858
98.6947
99.3375
100.208
101.201
101.935
102.534
103.043
103.467
103.873
104.274
104.829
105.411
106.118
106.79
107.495
108.169
108.629
108.945
109.091
109.097
108.979
108.881
108.757
108.654
108.569
108.544
108.492
108.452
108.407
108.435
108.489
108.61
108.71
108.861
108.94
109.024
108.992
108.962
108.827
108.729
108.551
108.469
108.332
108.31
108.236
108.296
108.315
108.431
108.508
108.618
108.681
108.74
108.754
108.745
108.705
108.645
108.57
108.489
108.404
108.323
108.244
108.173
108.104
108.047
107.993
107.957
107.926
107.922
107.934
107.989
108.082
108.229
108.457
108.798
109.57
110.739
111.773
89.268
87.891
85.2835
82.4123
79.8293
77.6322
75.5373
73.7414
72.375
70.9629
70.5467
71.0849
72.8943
75.2153
77.3337
79.8256
82.7187
85.8481
88.8803
91.6914
94.1719
96.2425
97.7518
98.7157
99.3673
100.087
100.828
101.365
101.775
102.137
102.447
102.789
103.15
103.698
104.285
105.012
105.718
106.451
107.138
107.633
107.98
108.154
108.192
108.109
108.04
107.937
107.872
107.808
107.804
107.755
107.731
107.702
107.776
107.88
108.07
108.228
108.461
108.605
108.759
108.771
108.79
108.668
108.589
108.407
108.337
108.192
108.182
108.105
108.175
108.201
108.327
108.414
108.536
108.606
108.675
108.69
108.686
108.639
108.575
108.49
108.398
108.301
108.204
108.108
108.015
107.925
107.839
107.759
107.683
107.619
107.561
107.532
107.521
107.567
107.677
107.89
108.298
109.02
110.154
111.504
88.7613
87.326
84.7789
81.9407
79.5874
77.5787
75.7565
74.0519
72.6433
71.1941
70.6673
71.1517
72.9195
75.2117
77.3364
79.7906
82.6834
85.8083
88.8455
91.6674
94.1488
96.2107
97.69
98.6787
99.3333
99.9044
100.431
100.804
101.059
101.299
101.518
101.815
102.15
102.687
103.271
103.994
104.712
105.447
106.131
106.642
107.01
107.211
107.278
107.234
107.199
107.122
107.09
107.043
107.047
106.992
106.986
106.975
107.098
107.253
107.51
107.728
108.041
108.251
108.477
108.534
108.606
108.501
108.449
108.263
108.211
108.056
108.061
107.979
108.065
108.094
108.231
108.321
108.454
108.528
108.607
108.624
108.622
108.572
108.502
108.409
108.305
108.195
108.082
107.969
107.855
107.742
107.628
107.516
107.405
107.295
107.195
107.1
107.039
107.004
107.056
107.232
107.593
108.355
109.433
110.448
88.3644
86.8728
84.4687
81.7048
79.64
77.9073
76.3962
74.8458
73.4367
72.0219
71.388
71.7669
73.3856
75.5503
77.6247
80.0047
82.8405
85.9017
88.8894
91.6752
94.1327
96.1705
97.6117
98.5967
99.2497
99.6904
100.042
100.272
100.4
100.542
100.697
100.964
101.287
101.801
102.365
103.061
103.771
104.49
105.155
105.668
106.052
106.282
106.383
106.384
106.388
106.342
106.334
106.295
106.297
106.231
106.249
106.258
106.43
106.633
106.953
107.226
107.619
107.89
108.187
108.291
108.421
108.335
108.318
108.125
108.096
107.926
107.954
107.862
107.968
107.986
108.143
108.222
108.378
108.446
108.543
108.551
108.56
108.499
108.43
108.323
108.211
108.086
107.958
107.826
107.692
107.555
107.414
107.269
107.119
106.965
106.809
106.657
106.512
106.411
106.35