/*--------------------------------*- C++ -*----------------------------------*\
| =========                 |                                                 |
| \\      /  F ield         | OpenFOAM: The Open Source CFD Toolbox           |
|  \\    /   O peration     | Version:  2.4.0                                 |
|   \\  /    A nd           | Web:      www.OpenFOAM.org                      |
|    \\/     M anipulation  |                                                 |
\*---------------------------------------------------------------------------*/
FoamFile
{
    version     2.0;
    format      ascii;
    class       volSymmTensorField;
    location    "0.001";
    object      UPrime2Mean;
}
// * * * * * * * * * * * * * * * * * * * * * * * * * * * * * * * * * * * * * //

dimensions      [0 2 -2 0 0 0 0];

internalField   nonuniform List<symmTensor> 
4400
(
(0.37136 0.0120102 0 0.000776525 0 0)
(0.119056 -0.00324766 0 0.000136984 0 0)
(0.120273 0.0016151 0 2.36254e-05 0 0)
(0.12422 0.000967186 0 7.67645e-06 0 0)
(0.1151 0.000177816 0 2.79765e-07 0 0)
(0.113514 -4.99232e-05 0 2.27365e-08 0 0)
(0.115634 -0.000200776 0 3.52823e-07 0 0)
(0.114984 -0.00191408 0 3.36671e-05 0 0)
(0.133393 0.0137167 0 0.00187282 0 0)
(0.36103 -0.18058 0 0.135236 0 0)
(0.522369 0.0209498 0 0.00131349 0 0)
(0.104259 0.00172226 0 7.71895e-05 0 0)
(0.00706964 -0.00021825 0 6.91021e-06 0 0)
(0.00064987 -5.76229e-05 0 5.29282e-06 0 0)
(0.000865912 -1.49217e-05 0 2.57815e-07 0 0)
(0.000987685 9.31533e-06 0 9.17095e-08 0 0)
(0.000858848 2.93827e-05 0 1.01573e-06 0 0)
(0.00233246 0.000174014 0 1.33011e-05 0 0)
(0.00436932 -0.000527393 0 0.000282957 0 0)
(0.244164 -0.105994 0 0.0645309 0 0)
(0.521707 0.018681 0 0.00104718 0 0)
(0.107163 0.00182571 0 7.69122e-05 0 0)
(0.00820584 -0.000220196 0 6.09133e-06 0 0)
(0.00104087 -7.00494e-05 0 4.99376e-06 0 0)
(0.00128562 -1.66153e-05 0 2.16967e-07 0 0)
(0.00142183 1.85758e-05 0 2.55165e-07 0 0)
(0.00131662 3.25787e-05 0 8.5802e-07 0 0)
(0.00222188 0.000431312 0 8.39849e-05 0 0)
(0.000414085 -0.000162946 0 0.00310521 0 0)
(0.000164136 0.00178463 0 0.0648111 0 0)
(0.520109 0.0157103 0 0.000745099 0 0)
(0.106124 0.00166223 0 6.27591e-05 0 0)
(0.00809685 -0.000159227 0 3.27568e-06 0 0)
(0.00104731 -5.70142e-05 0 3.30144e-06 0 0)
(0.00129769 -1.19052e-05 0 1.10286e-07 0 0)
(0.0014299 2.41223e-05 0 4.26756e-07 0 0)
(0.00134521 4.41424e-05 0 1.49115e-06 0 0)
(0.00206562 0.000307665 0 4.62411e-05 0 0)
(0.000301797 9.84847e-05 0 0.00113245 0 0)
(0.00474256 0.000958527 0 0.000705191 0 0)
(0.518808 0.0129887 0 0.000511969 0 0)
(0.105262 0.00145768 0 4.81158e-05 0 0)
(0.00799991 -0.000113689 0 1.72843e-06 0 0)
(0.00105151 -4.57007e-05 0 2.1165e-06 0 0)
(0.00130811 -7.4297e-06 0 4.29501e-08 0 0)
(0.00143689 2.85242e-05 0 5.91096e-07 0 0)
(0.00137517 4.68588e-05 0 1.63144e-06 0 0)
(0.0018549 0.000270248 0 4.01908e-05 0 0)
(0.000475688 -0.000201829 0 0.00113544 0 0)
(0.00073379 0.000465079 0 0.0026075 0 0)
(0.517764 0.0104256 0 0.000331266 0 0)
(0.104568 0.00122566 0 3.39353e-05 0 0)
(0.00791871 -7.84835e-05 0 8.62589e-07 0 0)
(0.00105451 -3.51217e-05 0 1.24823e-06 0 0)
(0.00131739 -2.9192e-06 0 7.82342e-09 0 0)
(0.00144373 3.15642e-05 0 7.17626e-07 0 0)
(0.00139804 4.91079e-05 0 1.74817e-06 0 0)
(0.00170147 0.000206171 0 2.64336e-05 0 0)
(0.000590179 -0.00026493 0 0.000806497 0 0)
(0.000642504 7.85046e-05 0 0.00180727 0 0)
(0.51696 0.00798493 0 0.000195015 0 0)
(0.104025 0.000973907 0 2.13785e-05 0 0)
(0.0078531 -5.15493e-05 0 3.95607e-07 0 0)
(0.00105679 -2.52004e-05 0 6.41309e-07 0 0)
(0.00132557 1.49783e-06 0 4.44282e-09 0 0)
(0.00145007 3.35384e-05 0 8.03467e-07 0 0)
(0.00141508 4.92001e-05 0 1.72978e-06 0 0)
(0.00158108 0.000154854 0 1.74404e-05 0 0)
(0.000701793 -0.000288614 0 0.000567954 0 0)
(0.000535367 9.77302e-06 0 0.00139563 0 0)
(0.516372 0.00563753 0 9.74894e-05 0 0)
(0.103628 0.00070929 0 1.12826e-05 0 0)
(0.00780435 -3.09814e-05 0 1.553e-07 0 0)
(0.00105859 -1.58943e-05 0 2.54219e-07 0 0)
(0.00133253 5.72281e-06 0 2.9309e-08 0 0)
(0.00145576 3.45681e-05 0 8.46915e-07 0 0)
(0.00142686 4.79371e-05 0 1.63471e-06 0 0)
(0.00148908 0.000113454 0 1.1752e-05 0 0)
(0.000799226 -0.000270938 0 0.000380029 0 0)
(0.000471026 7.76056e-05 0 0.00104053 0 0)
(0.515992 0.00335488 0 3.46214e-05 0 0)
(0.103365 0.00043433 0 4.18634e-06 0 0)
(0.0077718 -1.48624e-05 0 4.11755e-08 0 0)
(0.00106019 -7.04833e-06 0 4.95097e-08 0 0)
(0.00133833 9.70218e-06 0 7.74271e-08 0 0)
(0.00146067 3.48049e-05 0 8.52466e-07 0 0)
(0.00143432 4.56682e-05 0 1.4912e-06 0 0)
(0.00142006 8.24016e-05 0 8.57983e-06 0 0)
(0.000884669 -0.000232211 0 0.000243537 0 0)
(0.00044523 0.000162686 0 0.000775973 0 0)
(0.515806 0.00111013 0 3.81711e-06 0 0)
(0.103236 0.000154048 0 5.00064e-07 0 0)
(0.0077566 -1.33243e-06 0 1.9447e-09 0 0)
(0.00106166 1.44151e-06 0 2.81971e-09 0 0)
(0.00134284 1.3381e-05 0 1.42933e-07 0 0)
(0.00146473 3.43784e-05 0 8.2649e-07 0 0)
(0.00143859 4.27737e-05 0 1.32614e-06 0 0)
(0.00136942 6.03076e-05 0 6.86604e-06 0 0)
(0.000960354 -0.000183568 0 0.000149344 0 0)
(0.000458906 0.000235035 0 0.000590356 0 0)
(0.515816 -0.0011207 0 3.82302e-06 0 0)
(0.103234 -0.000128187 0 4.12839e-07 0 0)
(0.00775777 1.10577e-05 0 1.68196e-08 0 0)
(0.0010631 9.73404e-06 0 9.85162e-08 0 0)
(0.00134612 1.67475e-05 0 2.20422e-07 0 0)
(0.00146796 3.34065e-05 0 7.76234e-07 0 0)
(0.0014406 3.96148e-05 0 1.16064e-06 0 0)
(0.00133361 4.55043e-05 0 5.84282e-06 0 0)
(0.00102888 -0.000132161 0 8.74682e-05 0 0)
(0.000502948 0.000290158 0 0.000464442 0 0)
(0.516014 -0.00336573 0 3.4645e-05 0 0)
(0.103363 -0.000409215 0 3.93215e-06 0 0)
(0.00777631 2.44596e-05 0 8.79107e-08 0 0)
(0.00106444 1.79833e-05 0 3.3134e-07 0 0)
(0.00134804 1.97618e-05 0 3.04004e-07 0 0)
(0.00147035 3.19863e-05 0 7.08489e-07 0 0)
(0.00144127 3.64506e-05 0 1.0053e-06 0 0)
(0.00130955 3.64017e-05 0 5.06037e-06 0 0)
(0.00109271 -8.22678e-05 0 4.89686e-05 0 0)
(0.000566676 0.000332607 0 0.000381583 0 0)
(0.516411 -0.00564695 0 9.75042e-05 0 0)
(0.103622 -0.000684822 0 1.08737e-05 0 0)
(0.0078111 4.00465e-05 0 2.34886e-07 0 0)
(0.00106559 2.63642e-05 0 7.07269e-07 0 0)
(0.00134863 2.24321e-05 0 3.89289e-07 0 0)
(0.00147199 3.01941e-05 0 6.29109e-07 0 0)
(0.00144125 3.34354e-05 0 8.63742e-07 0 0)
(0.00129496 3.15928e-05 0 4.32921e-06 0 0)
(0.00115407 -3.62168e-05 0 2.65189e-05 0 0)
(0.000640292 0.000367742 0 0.000329464 0 0)
(0.51701 -0.00799493 0 0.000195067 0 0)
(0.104019 -0.000952593 0 2.08909e-05 0 0)
(0.00786294 6.02108e-05 0 5.15713e-07 0 0)
(0.00106636 3.49979e-05 0 1.24017e-06 0 0)
(0.00134773 2.47153e-05 0 4.70789e-07 0 0)
(0.00147292 2.80867e-05 0 5.42952e-07 0 0)
(0.00144113 3.06313e-05 0 7.34982e-07 0 0)
(0.00128784 2.99535e-05 0 3.60231e-06 0 0)
(0.0012149 4.74567e-06 0 1.46338e-05 0 0)
(0.000717434 0.000400358 0 0.000299765 0 0)
(0.517828 -0.0104335 0 0.000331276 0 0)
(0.104559 -0.00120534 0 3.33467e-05 0 0)
(0.00793058 8.61934e-05 0 1.01885e-06 0 0)
(0.00106643 4.40111e-05 0 1.95324e-06 0 0)
(0.00134536 2.66043e-05 0 5.44367e-07 0 0)
(0.00147324 2.56892e-05 0 4.53367e-07 0 0)
(0.00144127 2.80385e-05 0 6.17773e-07 0 0)
(0.0012867 3.05027e-05 0 2.91513e-06 0 0)
(0.00127694 4.00782e-05 0 9.28725e-06 0 0)
(0.000793767 0.000433969 0 0.000287426 0 0)
(0.51888 -0.0129973 0 0.000512044 0 0)
(0.105253 -0.00144097 0 4.75468e-05 0 0)
(0.00801433 0.000120675 0 1.92868e-06 0 0)
(0.00106551 5.35337e-05 0 2.88123e-06 0 0)
(0.00134133 2.80433e-05 0 6.04566e-07 0 0)
(0.00147302 2.30129e-05 0 3.63397e-07 0 0)
(0.00144199 2.56128e-05 0 5.10171e-07 0 0)
(0.00129017 3.24943e-05 0 2.31452e-06 0 0)
(0.00134181 6.93609e-05 0 7.68635e-06 0 0)
(0.000867831 0.000471267 0 0.000289362 0 0)
(0.52019 -0.0157175 0 0.000745165 0 0)
(0.106114 -0.0016479 0 6.21857e-05 0 0)
(0.00811287 0.000165095 0 3.50376e-06 0 0)
(0.00106305 6.35419e-05 0 4.05228e-06 0 0)
(0.00133562 2.89587e-05 0 6.45331e-07 0 0)
(0.00147234 2.00339e-05 0 2.75235e-07 0 0)
(0.00144343 2.32081e-05 0 4.09595e-07 0 0)
(0.00129714 3.50501e-05 0 1.83695e-06 0 0)
(0.00141099 9.18421e-05 0 7.80923e-06 0 0)
(0.000939513 0.000513605 0 0.000303363 0 0)
(0.521793 -0.018686 0 0.00104715 0 0)
(0.107153 -0.00181709 0 7.65296e-05 0 0)
(0.00822366 0.000224696 0 6.32253e-06 0 0)
(0.00105797 7.53008e-05 0 5.68799e-06 0 0)
(0.00132733 2.98113e-05 0 6.85115e-07 0 0)
(0.00147042 1.66627e-05 0 1.90454e-07 0 0)
(0.00144469 2.02877e-05 0 3.04074e-07 0 0)
(0.001305 3.63453e-05 0 1.43917e-06 0 0)
(0.00148329 0.000102223 0 7.69308e-06 0 0)
(0.00100797 0.000554378 0 0.000320065 0 0)
(0.522453 -0.0209523 0 0.00131335 0 0)
(0.104244 -0.00171656 0 7.69538e-05 0 0)
(0.00708724 0.000221036 0 7.06713e-06 0 0)
(0.000664494 6.07856e-05 0 5.76735e-06 0 0)
(0.000903125 2.2738e-05 0 5.76699e-07 0 0)
(0.00103125 1.05911e-05 0 1.08882e-07 0 0)
(0.00101165 1.43913e-05 0 2.13063e-07 0 0)
(0.000897314 3.08616e-05 0 1.20264e-06 0 0)
(0.00110737 8.99229e-05 0 7.43172e-06 0 0)
(0.000731468 0.000452491 0 0.000288424 0 0)
(0.371426 -0.0120112 0 0.00077642 0 0)
(0.119039 0.0032474 0 0.000136953 0 0)
(0.120171 -0.00161907 0 2.37648e-05 0 0)
(0.123931 -0.000983292 0 7.95809e-06 0 0)
(0.114394 -0.000225687 0 4.5387e-07 0 0)
(0.111927 -8.23976e-05 0 6.09613e-08 0 0)
(0.110739 -0.000154659 0 2.17014e-07 0 0)
(0.10788 -0.000406827 0 1.55657e-06 0 0)
(0.0946445 -0.000895089 0 8.51243e-06 0 0)
(0.0781573 -0.00490103 0 0.000307516 0 0)
(1.55184 0.563013 0 0.867998 0 0)
(0.566864 0.130884 0 0.0376836 0 0)
(0.0233306 0.00252393 0 0.002086 0 0)
(0.00696042 -0.00600277 0 0.00530926 0 0)
(0.00176863 -0.00277015 0 0.00438529 0 0)
(0.000337481 -0.000913958 0 0.00249222 0 0)
(0.000105931 -0.000391303 0 0.00145377 0 0)
(4.58183e-05 -0.00019947 0 0.000873641 0 0)
(2.30686e-05 -0.000111361 0 0.000541192 0 0)
(1.31621e-05 -6.70562e-05 0 0.000344328 0 0)
(8.32731e-06 -4.29326e-05 0 0.000223502 0 0)
(5.73329e-06 -2.88743e-05 0 0.000147184 0 0)
(4.22894e-06 -2.01967e-05 0 9.79157e-05 0 0)
(3.30231e-06 -1.45851e-05 0 6.55965e-05 0 0)
(2.71186e-06 -1.08324e-05 0 4.41931e-05 0 0)
(2.31564e-06 -8.2175e-06 0 2.98811e-05 0 0)
(2.03832e-06 -6.33632e-06 0 2.0248e-05 0 0)
(1.84516e-06 -4.96065e-06 0 1.37455e-05 0 0)
(1.70704e-06 -3.92918e-06 0 9.34393e-06 0 0)
(1.60471e-06 -3.13873e-06 0 6.35725e-06 0 0)
(1.52823e-06 -2.52457e-06 0 4.32761e-06 0 0)
(1.47059e-06 -2.04177e-06 0 2.94717e-06 0 0)
(1.42671e-06 -1.65838e-06 0 2.00755e-06 0 0)
(1.39296e-06 -1.35145e-06 0 1.36771e-06 0 0)
(1.36677e-06 -1.10415e-06 0 9.3186e-07 0 0)
(1.34631e-06 -9.03929e-07 0 6.34931e-07 0 0)
(1.33022e-06 -7.41149e-07 0 4.32586e-07 0 0)
(1.31745e-06 -6.08388e-07 0 2.94698e-07 0 0)
(1.30718e-06 -4.99841e-07 0 2.00739e-07 0 0)
(1.29884e-06 -4.10934e-07 0 1.36722e-07 0 0)
(1.29199e-06 -3.38018e-07 0 9.31142e-08 0 0)
(1.28636e-06 -2.78158e-07 0 6.3406e-08 0 0)
(1.28239e-06 -2.29045e-07 0 4.31777e-08 0 0)
(1.27844e-06 -1.8856e-07 0 2.93907e-08 0 0)
(1.27446e-06 -1.54968e-07 0 1.99271e-08 0 0)
(1.27278e-06 -1.27653e-07 0 1.35564e-08 0 0)
(1.27088e-06 -1.053e-07 0 9.25474e-09 0 0)
(1.2681e-06 -8.65393e-08 0 6.2704e-09 0 0)
(1.26683e-06 -7.10606e-08 0 4.23592e-09 0 0)
(1.2663e-06 -5.83623e-08 0 2.86079e-09 0 0)
(1.26574e-06 -4.78226e-08 0 1.92245e-09 0 0)
(1.2653e-06 -3.90391e-08 0 1.28139e-09 0 0)
(1.265e-06 -3.17048e-08 0 8.44654e-10 0 0)
(1.26471e-06 -2.55316e-08 0 5.46761e-10 0 0)
(1.26443e-06 -2.03035e-08 0 3.446e-10 0 0)
(1.26425e-06 -1.58261e-08 0 2.08093e-10 0 0)
(1.26416e-06 -1.19344e-08 0 1.17139e-10 0 0)
(1.26402e-06 -8.47345e-09 0 5.81153e-11 0 0)
(1.26383e-06 -5.31793e-09 0 2.25183e-11 0 0)
(1.26372e-06 -2.35728e-09 0 5.21115e-12 0 0)
(1.2637e-06 5.28526e-10 0 3.68934e-12 0 0)
(1.2636e-06 3.45166e-09 0 1.7898e-11 0 0)
(1.26343e-06 6.51498e-09 0 5.01391e-11 0 0)
(1.26337e-06 9.83668e-09 0 1.05348e-10 0 0)
(1.26343e-06 1.35432e-08 0 1.92042e-10 0 0)
(1.2634e-06 1.77928e-08 0 3.24058e-10 0 0)
(1.26333e-06 2.27262e-08 0 5.20893e-10 0 0)
(1.26344e-06 2.85497e-08 0 8.13457e-10 0 0)
(1.26373e-06 3.54811e-08 0 1.24606e-09 0 0)
(1.26399e-06 4.38143e-08 0 1.8881e-09 0 0)
(1.26424e-06 5.3849e-08 0 2.83636e-09 0 0)
(1.26477e-06 6.59914e-08 0 4.23861e-09 0 0)
(1.26561e-06 8.07177e-08 0 6.31134e-09 0 0)
(1.26649e-06 9.86174e-08 0 9.38002e-09 0 0)
(1.26743e-06 1.20368e-07 0 1.39159e-08 0 0)
(1.26877e-06 1.46844e-07 0 2.06198e-08 0 0)
(1.27056e-06 1.79098e-07 0 3.05315e-08 0 0)
(1.27245e-06 2.18389e-07 0 4.5191e-08 0 0)
(1.27448e-06 2.66231e-07 0 6.68537e-08 0 0)
(1.27706e-06 3.24573e-07 0 9.88681e-08 0 0)
(1.28016e-06 3.95732e-07 0 1.46187e-07 0 0)
(1.28321e-06 4.82447e-07 0 2.16154e-07 0 0)
(1.28604e-06 5.88019e-07 0 3.19547e-07 0 0)
(1.28874e-06 7.16599e-07 0 4.72364e-07 0 0)
(1.29071e-06 8.72909e-07 0 6.98218e-07 0 0)
(1.29037e-06 1.06214e-06 0 1.03212e-06 0 0)
(1.2862e-06 1.29e-06 0 1.52555e-06 0 0)
(1.27638e-06 1.56256e-06 0 2.25486e-06 0 0)
(1.25731e-06 1.8843e-06 0 3.33276e-06 0 0)
(1.22317e-06 2.25526e-06 0 4.92626e-06 0 0)
(1.16667e-06 2.66699e-06 0 7.2813e-06 0 0)
(1.07891e-06 3.09413e-06 0 1.07622e-05 0 0)
(9.48918e-07 3.47529e-06 0 1.59066e-05 0 0)
(7.67208e-07 3.68027e-06 0 2.35096e-05 0 0)
(5.37459e-07 3.45368e-06 0 3.47421e-05 0 0)
(3.03461e-07 2.31057e-06 0 5.13336e-05 0 0)
(2.14208e-07 -6.61663e-07 0 7.58274e-05 0 0)
(6.81259e-07 -7.15991e-06 0 0.000111965 0 0)
(2.74439e-06 -2.03084e-05 0 0.000165218 0 0)
(8.92099e-06 -4.58506e-05 0 0.000243558 0 0)
(2.52088e-05 -9.43742e-05 0 0.000358472 0 0)
(6.59673e-05 -0.000185601 0 0.000526185 0 0)
(0.000165136 -0.000355397 0 0.00076872 0 0)
(0.000415664 -0.000679236 0 0.00111356 0 0)
(0.000953999 -0.0012222 0 0.00157624 0 0)
(0.00326687 -0.00271134 0 0.00225333 0 0)
(0.00241955 -0.00201309 0 0.00194554 0 0)
(0.126102 -0.0359138 0 0.0105765 0 0)
(0.212129 -0.137024 0 0.08906 0 0)
(10.1702 -1.6631 0 0.300604 0 0)
(1.31735 0.122825 0 0.0704488 0 0)
(0.214222 0.043356 0 0.0140757 0 0)
(0.0252152 -0.000894165 0 0.000739726 0 0)
(0.00044601 -0.00053847 0 0.00200644 0 0)
(0.00122014 -0.00188813 0 0.00295032 0 0)
(0.000484139 -0.000973925 0 0.00196546 0 0)
(0.000194687 -0.000489868 0 0.00123577 0 0)
(9.30222e-05 -0.000269102 0 0.000780475 0 0)
(4.8939e-05 -0.000155932 0 0.000498293 0 0)
(2.81697e-05 -9.52156e-05 0 0.000322996 0 0)
(1.75784e-05 -6.09382e-05 0 0.000212239 0 0)
(1.17415e-05 -4.05549e-05 0 0.000140933 0 0)
(8.30656e-06 -2.78844e-05 0 9.43539e-05 0 0)
(6.16524e-06 -1.96865e-05 0 6.35033e-05 0 0)
(4.7798e-06 -1.4232e-05 0 4.29099e-05 0 0)
(3.84882e-06 -1.05032e-05 0 2.91026e-05 0 0)
(3.19801e-06 -7.87923e-06 0 1.97677e-05 0 0)
(2.73631e-06 -6.00161e-06 0 1.34416e-05 0 0)
(2.40084e-06 -4.63173e-06 0 9.15011e-06 0 0)
(2.15086e-06 -3.61315e-06 0 6.23279e-06 0 0)
(1.96204e-06 -2.84478e-06 0 4.24711e-06 0 0)
(1.81771e-06 -2.25762e-06 0 2.89475e-06 0 0)
(1.70611e-06 -1.80359e-06 0 1.97321e-06 0 0)
(1.61891e-06 -1.44886e-06 0 1.34507e-06 0 0)
(1.55018e-06 -1.16927e-06 0 9.16866e-07 0 0)
(1.49566e-06 -9.47267e-07 0 6.24974e-07 0 0)
(1.45214e-06 -7.69843e-07 0 4.25971e-07 0 0)
(1.41716e-06 -6.27257e-07 0 2.90299e-07 0 0)
(1.38887e-06 -5.12154e-07 0 1.97821e-07 0 0)
(1.36586e-06 -4.18895e-07 0 1.34793e-07 0 0)
(1.34709e-06 -3.43102e-07 0 9.18367e-08 0 0)
(1.3317e-06 -2.81327e-07 0 6.25521e-08 0 0)
(1.31947e-06 -2.30794e-07 0 4.25584e-08 0 0)
(1.30918e-06 -1.89979e-07 0 2.91261e-08 0 0)
(1.30011e-06 -1.55845e-07 0 1.97361e-08 0 0)
(1.29343e-06 -1.2769e-07 0 1.33388e-08 0 0)
(1.28772e-06 -1.05536e-07 0 9.19197e-09 0 0)
(1.28242e-06 -8.68449e-08 0 6.25305e-09 0 0)
(1.27876e-06 -7.11694e-08 0 4.21328e-09 0 0)
(1.27609e-06 -5.83528e-08 0 2.83989e-09 0 0)
(1.27382e-06 -4.77521e-08 0 1.90555e-09 0 0)
(1.27201e-06 -3.89425e-08 0 1.26884e-09 0 0)
(1.27059e-06 -3.16046e-08 0 8.35976e-10 0 0)
(1.26943e-06 -2.54544e-08 0 5.41724e-10 0 0)
(1.26846e-06 -2.0237e-08 0 3.41333e-10 0 0)
(1.26774e-06 -1.57609e-08 0 2.05805e-10 0 0)
(1.26721e-06 -1.18729e-08 0 1.15643e-10 0 0)
(1.26676e-06 -8.43644e-09 0 5.74953e-11 0 0)
(1.26638e-06 -5.30087e-09 0 2.23312e-11 0 0)
(1.26617e-06 -2.34566e-09 0 5.14349e-12 0 0)
(1.26611e-06 5.19296e-10 0 3.51584e-12 0 0)
(1.26607e-06 3.39959e-09 0 1.7125e-11 0 0)
(1.2661e-06 6.42976e-09 0 4.83351e-11 0 0)
(1.26631e-06 9.73398e-09 0 1.02262e-10 0 0)
(1.26674e-06 1.34141e-08 0 1.86713e-10 0 0)
(1.26723e-06 1.76109e-08 0 3.14742e-10 0 0)
(1.26786e-06 2.25198e-08 0 5.07417e-10 0 0)
(1.26881e-06 2.83378e-08 0 7.95047e-10 0 0)
(1.27013e-06 3.52678e-08 0 1.22074e-09 0 0)
(1.27169e-06 4.35749e-08 0 1.85021e-09 0 0)
(1.27357e-06 5.36332e-08 0 2.78551e-09 0 0)
(1.27607e-06 6.58494e-08 0 4.1721e-09 0 0)
(1.27928e-06 8.06796e-08 0 6.22028e-09 0 0)
(1.28309e-06 9.8702e-08 0 9.24438e-09 0 0)
(1.28764e-06 1.20698e-07 0 1.37226e-08 0 0)
(1.29337e-06 1.47597e-07 0 2.03505e-08 0 0)
(1.3005e-06 1.80482e-07 0 3.0142e-08 0 0)
(1.30894e-06 2.20714e-07 0 4.46109e-08 0 0)
(1.31903e-06 2.70083e-07 0 6.6027e-08 0 0)
(1.33146e-06 3.30805e-07 0 9.77236e-08 0 0)
(1.34657e-06 4.05544e-07 0 1.4459e-07 0 0)
(1.36439e-06 4.97623e-07 0 2.13903e-07 0 0)
(1.3854e-06 6.11364e-07 0 3.16499e-07 0 0)
(1.41039e-06 7.52229e-07 0 4.68372e-07 0 0)
(1.43968e-06 9.2687e-07 0 6.93111e-07 0 0)
(1.47291e-06 1.14343e-06 0 1.02579e-06 0 0)
(1.50991e-06 1.41222e-06 0 1.51861e-06 0 0)
(1.55031e-06 1.74579e-06 0 2.24891e-06 0 0)
(1.59206e-06 2.15825e-06 0 3.33134e-06 0 0)
(1.63066e-06 2.66416e-06 0 4.93666e-06 0 0)
(1.65932e-06 3.2767e-06 0 7.31948e-06 0 0)
(1.66748e-06 4.00214e-06 0 1.08593e-05 0 0)
(1.63786e-06 4.82567e-06 0 1.61214e-05 0 0)
(1.54525e-06 5.68601e-06 0 2.39531e-05 0 0)
(1.35924e-06 6.42828e-06 0 3.56244e-05 0 0)
(1.05458e-06 6.71149e-06 0 5.30458e-05 0 0)
(6.44256e-07 5.82532e-06 0 7.90942e-05 0 0)
(2.77461e-07 2.34768e-06 0 0.000118131 0 0)
(4.94676e-07 -6.50305e-06 0 0.000176795 0 0)
(2.86703e-06 -2.61197e-05 0 0.00026527 0 0)
(1.15952e-05 -6.69744e-05 0 0.000399322 0 0)
(3.75642e-05 -0.00014962 0 0.000603648 0 0)
(0.000108359 -0.000314423 0 0.000918634 0 0)
(0.000300847 -0.000649053 0 0.00140507 0 0)
(0.000757655 -0.00129322 0 0.00222235 0 0)
(0.00264686 -0.00295496 0 0.00330818 0 0)
(0.00300942 -0.00407367 0 0.00661814 0 0)
(0.0993402 -0.031839 0 0.0112973 0 0)
(0.168348 -0.079375 0 0.0389282 0 0)
(4.77089 -3.40493 0 2.70526 0 0)
(0.618826 0.173783 0 0.0518768 0 0)
(0.275402 -0.0363211 0 0.00515111 0 0)
(0.0108263 -0.00415963 0 0.00162319 0 0)
(0.00256723 -0.0020655 0 0.00167638 0 0)
(0.00185649 -0.00197039 0 0.00209797 0 0)
(0.000722837 -0.00104902 0 0.00152575 0 0)
(0.000298367 -0.000551297 0 0.00102042 0 0)
(0.000147819 -0.000316061 0 0.000676831 0 0)
(8.04305e-05 -0.000189452 0 0.000447002 0 0)
(4.70811e-05 -0.000117973 0 0.000296237 0 0)
(2.94412e-05 -7.61595e-05 0 0.000197571 0 0)
(1.94798e-05 -5.07198e-05 0 0.000132567 0 0)
(1.35253e-05 -3.46836e-05 0 8.93976e-05 0 0)
(9.79464e-06 -2.42628e-05 0 6.0505e-05 0 0)
(7.36471e-06 -1.73166e-05 0 4.10645e-05 0 0)
(5.72637e-06 -1.25802e-05 0 2.7934e-05 0 0)
(4.58909e-06 -9.28176e-06 0 1.90197e-05 0 0)
(3.78355e-06 -6.94818e-06 0 1.29601e-05 0 0)
(3.20008e-06 -5.26954e-06 0 8.83716e-06 0 0)
(2.76824e-06 -4.04206e-06 0 6.02766e-06 0 0)
(2.44384e-06 -3.13228e-06 0 4.1118e-06 0 0)
(2.19704e-06 -2.4495e-06 0 2.80503e-06 0 0)
(2.00707e-06 -1.93098e-06 0 1.91347e-06 0 0)
(1.85924e-06 -1.53284e-06 0 1.30515e-06 0 0)
(1.74313e-06 -1.22413e-06 0 8.90127e-07 0 0)
(1.65127e-06 -9.82676e-07 0 6.07021e-07 0 0)
(1.57815e-06 -7.92338e-07 0 4.13893e-07 0 0)
(1.51952e-06 -6.41231e-07 0 2.82163e-07 0 0)
(1.47223e-06 -5.20559e-07 0 1.92337e-07 0 0)
(1.43389e-06 -4.23705e-07 0 1.31099e-07 0 0)
(1.40269e-06 -3.45638e-07 0 8.93546e-08 0 0)
(1.37734e-06 -2.82452e-07 0 6.08795e-08 0 0)
(1.35678e-06 -2.31176e-07 0 4.14797e-08 0 0)
(1.33967e-06 -1.89596e-07 0 2.83128e-08 0 0)
(1.32552e-06 -1.55272e-07 0 1.92099e-08 0 0)
(1.31424e-06 -1.27384e-07 0 1.30679e-08 0 0)
(1.30465e-06 -1.04951e-07 0 8.96279e-09 0 0)
(1.29659e-06 -8.60944e-08 0 6.07344e-09 0 0)
(1.2905e-06 -7.04932e-08 0 4.09397e-09 0 0)
(1.28575e-06 -5.77597e-08 0 2.76038e-09 0 0)
(1.28184e-06 -4.72383e-08 0 1.85236e-09 0 0)
(1.27869e-06 -3.85042e-08 0 1.23346e-09 0 0)
(1.27618e-06 -3.12316e-08 0 8.12389e-10 0 0)
(1.27413e-06 -2.51317e-08 0 5.25823e-10 0 0)
(1.27247e-06 -1.99685e-08 0 3.31151e-10 0 0)
(1.2712e-06 -1.55552e-08 0 1.99894e-10 0 0)
(1.27024e-06 -1.17248e-08 0 1.12506e-10 0 0)
(1.26949e-06 -8.32906e-09 0 5.59191e-11 0 0)
(1.2689e-06 -5.23255e-09 0 2.17129e-11 0 0)
(1.26858e-06 -2.32673e-09 0 5.01093e-12 0 0)
(1.2685e-06 4.9603e-10 0 3.3666e-12 0 0)
(1.26854e-06 3.35073e-09 0 1.66339e-11 0 0)
(1.26873e-06 6.35159e-09 0 4.70766e-11 0 0)
(1.26921e-06 9.61107e-09 0 9.94641e-11 0 0)
(1.27002e-06 1.32482e-08 0 1.81734e-10 0 0)
(1.27102e-06 1.74164e-08 0 3.07015e-10 0 0)
(1.2723e-06 2.22836e-08 0 4.94986e-10 0 0)
(1.27409e-06 2.80391e-08 0 7.74695e-10 0 0)
(1.27644e-06 3.49058e-08 0 1.18901e-09 0 0)
(1.2793e-06 4.31687e-08 0 1.80327e-09 0 0)
(1.28277e-06 5.31737e-08 0 2.71417e-09 0 0)
(1.28723e-06 6.53221e-08 0 4.06198e-09 0 0)
(1.29284e-06 8.01093e-08 0 6.05472e-09 0 0)
(1.2996e-06 9.81567e-08 0 9.00303e-09 0 0)
(1.30777e-06 1.20244e-07 0 1.33684e-08 0 0)
(1.31794e-06 1.4733e-07 0 1.98261e-08 0 0)
(1.33052e-06 1.80604e-07 0 2.93764e-08 0 0)
(1.34567e-06 2.2156e-07 0 4.35086e-08 0 0)
(1.36404e-06 2.72114e-07 0 6.44301e-08 0 0)
(1.38666e-06 3.34715e-07 0 9.53955e-08 0 0)
(1.41439e-06 4.1245e-07 0 1.41224e-07 0 0)
(1.44787e-06 5.09251e-07 0 2.09086e-07 0 0)
(1.48835e-06 6.30257e-07 0 3.09613e-07 0 0)
(1.53763e-06 7.8221e-07 0 4.58554e-07 0 0)
(1.59733e-06 9.7377e-07 0 6.79292e-07 0 0)
(1.66875e-06 1.21606e-06 0 1.00667e-06 0 0)
(1.75379e-06 1.5237e-06 0 1.49252e-06 0 0)
(1.85475e-06 1.91585e-06 0 2.21408e-06 0 0)
(1.9729e-06 2.41662e-06 0 3.28664e-06 0 0)
(2.10758e-06 3.05559e-06 0 4.88283e-06 0 0)
(2.25624e-06 3.86844e-06 0 7.26156e-06 0 0)
(2.41249e-06 4.89536e-06 0 1.08118e-05 0 0)
(2.56138e-06 6.1731e-06 0 1.61203e-05 0 0)
(2.67453e-06 7.71815e-06 0 2.40756e-05 0 0)
(2.70595e-06 9.49289e-06 0 3.60296e-05 0 0)
(2.58806e-06 1.13329e-05 0 5.40489e-05 0 0)
(2.2351e-06 1.27931e-05 0 8.13163e-05 0 0)
(1.58255e-06 1.28452e-05 0 0.000122776 0 0)
(7.25951e-07 9.28143e-06 0 0.000186198 0 0)
(3.22891e-07 -2.4805e-06 0 0.00028397 0 0)
(2.68772e-06 -3.18584e-05 0 0.000436294 0 0)
(1.4699e-05 -9.8178e-05 0 0.000676998 0 0)
(5.55632e-05 -0.000242045 0 0.00106672 0 0)
(0.000176885 -0.000548667 0 0.00171035 0 0)
(0.000518552 -0.0012261 0 0.00291176 0 0)
(0.00149139 -0.00265893 0 0.00475114 0 0)
(0.00392385 -0.00682106 0 0.0121586 0 0)
(0.0201565 -0.0165706 0 0.0184055 0 0)
(0.0656212 -0.0424236 0 0.0276822 0 0)
(0.672717 -1.13077 0 2.86367 0 0)
(0.00874455 0.00183627 0 0.00710318 0 0)
(0.0114237 -0.00348155 0 0.002421 0 0)
(0.000337955 1.37049e-05 0 5.10919e-05 0 0)
(0.00074298 -0.000439877 0 0.000283417 0 0)
(0.00139193 -0.00123842 0 0.00110958 0 0)
(0.000794665 -0.000931507 0 0.00109464 0 0)
(0.000381574 -0.000556901 0 0.000814017 0 0)
(0.000201666 -0.000339256 0 0.000571356 0 0)
(0.000114205 -0.000211358 0 0.000391609 0 0)
(6.83772e-05 -0.000134771 0 0.00026602 0 0)
(4.3158e-05 -8.81579e-05 0 0.000180438 0 0)
(2.85535e-05 -5.90648e-05 0 0.000122514 0 0)
(1.96848e-05 -4.04261e-05 0 8.33299e-05 0 0)
(1.40618e-05 -2.8181e-05 0 5.67555e-05 0 0)
(1.03814e-05 -1.99811e-05 0 3.8703e-05 0 0)
(7.90349e-06 -1.43927e-05 0 2.64225e-05 0 0)
(6.18432e-06 -1.05101e-05 0 1.80425e-05 0 0)
(4.96844e-06 -7.77645e-06 0 1.23217e-05 0 0)
(4.09201e-06 -5.82565e-06 0 8.41659e-06 0 0)
(3.44781e-06 -4.4137e-06 0 5.74896e-06 0 0)
(2.96719e-06 -3.37905e-06 0 3.92625e-06 0 0)
(2.60397e-06 -2.61202e-06 0 2.68101e-06 0 0)
(2.3262e-06 -2.03687e-06 0 1.8303e-06 0 0)
(2.1114e-06 -1.60088e-06 0 1.24922e-06 0 0)
(1.94367e-06 -1.26701e-06 0 8.52445e-07 0 0)
(1.81168e-06 -1.009e-06 0 5.81591e-07 0 0)
(1.7071e-06 -8.07857e-07 0 3.96707e-07 0 0)
(1.6236e-06 -6.49798e-07 0 2.7054e-07 0 0)
(1.55653e-06 -5.24739e-07 0 1.84475e-07 0 0)
(1.50236e-06 -4.25191e-07 0 1.25781e-07 0 0)
(1.45851e-06 -3.45526e-07 0 8.57506e-08 0 0)
(1.42282e-06 -2.81457e-07 0 5.84477e-08 0 0)
(1.39394e-06 -2.29688e-07 0 3.98135e-08 0 0)
(1.37042e-06 -1.87965e-07 0 2.71815e-08 0 0)
(1.35059e-06 -1.53783e-07 0 1.84881e-08 0 0)
(1.33446e-06 -1.25886e-07 0 1.25656e-08 0 0)
(1.32151e-06 -1.03497e-07 0 8.6021e-09 0 0)
(1.31074e-06 -8.48823e-08 0 5.83963e-09 0 0)
(1.30213e-06 -6.94545e-08 0 3.9388e-09 0 0)
(1.2953e-06 -5.68489e-08 0 2.65442e-09 0 0)
(1.28976e-06 -4.64572e-08 0 1.78078e-09 0 0)
(1.28527e-06 -3.78464e-08 0 1.18572e-09 0 0)
(1.28169e-06 -3.06821e-08 0 7.80769e-10 0 0)
(1.27878e-06 -2.46795e-08 0 5.05262e-10 0 0)
(1.27642e-06 -1.96037e-08 0 3.18187e-10 0 0)
(1.2746e-06 -1.52679e-08 0 1.92075e-10 0 0)
(1.27322e-06 -1.15037e-08 0 1.08051e-10 0 0)
(1.27217e-06 -8.1688e-09 0 5.36752e-11 0 0)
(1.27138e-06 -5.13228e-09 0 2.08494e-11 0 0)
(1.27094e-06 -2.28206e-09 0 4.80863e-12 0 0)
(1.27084e-06 4.89162e-10 0 3.22997e-12 0 0)
(1.27095e-06 3.2895e-09 0 1.59803e-11 0 0)
(1.27131e-06 6.23008e-09 0 4.51683e-11 0 0)
(1.27206e-06 9.42661e-09 0 9.54119e-11 0 0)
(1.27324e-06 1.29991e-08 0 1.74428e-10 0 0)
(1.27475e-06 1.70925e-08 0 2.94702e-10 0 0)
(1.27669e-06 2.18738e-08 0 4.75071e-10 0 0)
(1.27929e-06 2.7535e-08 0 7.43594e-10 0 0)
(1.28267e-06 3.43017e-08 0 1.14182e-09 0 0)
(1.28681e-06 4.2451e-08 0 1.73212e-09 0 0)
(1.29187e-06 5.23296e-08 0 2.60733e-09 0 0)
(1.29827e-06 6.43485e-08 0 3.9029e-09 0 0)
(1.30626e-06 7.90139e-08 0 5.81978e-09 0 0)
(1.31597e-06 9.69526e-08 0 8.65597e-09 0 0)
(1.32777e-06 1.18964e-07 0 1.28551e-08 0 0)
(1.3424e-06 1.46055e-07 0 1.90697e-08 0 0)
(1.36048e-06 1.79476e-07 0 2.82655e-08 0 0)
(1.38244e-06 2.20811e-07 0 4.18771e-08 0 0)
(1.40925e-06 2.7212e-07 0 6.20346e-08 0 0)
(1.44235e-06 3.36089e-07 0 9.1889e-08 0 0)
(1.48318e-06 4.16162e-07 0 1.36109e-07 0 0)
(1.53307e-06 5.16791e-07 0 2.01639e-07 0 0)
(1.59419e-06 6.43922e-07 0 2.98797e-07 0 0)
(1.66959e-06 8.05527e-07 0 4.42917e-07 0 0)
(1.76251e-06 1.01213e-06 0 6.56813e-07 0 0)
(1.87641e-06 1.27766e-06 0 9.74545e-07 0 0)
(2.01603e-06 1.621e-06 0 1.44699e-06 0 0)
(2.18754e-06 2.06779e-06 0 2.15026e-06 0 0)
(2.39725e-06 2.652e-06 0 3.19855e-06 0 0)
(2.65106e-06 3.41826e-06 0 4.76373e-06 0 0)
(2.95478e-06 4.42527e-06 0 7.1053e-06 0 0)
(3.31247e-06 5.74855e-06 0 1.06164e-05 0 0)
(3.7212e-06 7.47943e-06 0 1.58956e-05 0 0)
(4.16427e-06 9.71883e-06 0 2.38592e-05 0 0)
(4.60285e-06 1.25603e-05 0 3.59193e-05 0 0)
(4.96201e-06 1.60441e-05 0 5.42686e-05 0 0)
(5.11047e-06 2.00465e-05 0 8.23445e-05 0 0)
(4.85027e-06 2.40449e-05 0 0.000125602 0 0)
(3.95011e-06 2.66319e-05 0 0.000192828 0 0)
(2.31984e-06 2.45032e-05 0 0.00029847 0 0)
(5.88818e-07 1.02952e-05 0 0.000466946 0 0)
(1.8141e-06 -3.18406e-05 0 0.00074105 0 0)
(1.62271e-05 -0.000137195 0 0.00120105 0 0)
(7.08946e-05 -0.00037451 0 0.00200062 0 0)
(0.00026342 -0.000964873 0 0.00354343 0 0)
(0.000577375 -0.00191762 0 0.00637755 0 0)
(0.00348736 -0.00718646 0 0.0149464 0 0)
(0.000266291 -0.00258246 0 0.0330865 0 0)
(0.133245 -0.0600521 0 0.0303917 0 0)
(0.0705934 0.197086 0 2.006 0 0)
(0.0165266 0.0126385 0 0.0122163 0 0)
(0.0346341 -0.0094851 0 0.00265764 0 0)
(0.00340859 -0.00185442 0 0.00108332 0 0)
(0.00112274 -0.000652218 0 0.000405982 0 0)
(0.00133247 -0.000996207 0 0.000752 0 0)
(0.000856841 -0.000826746 0 0.000800002 0 0)
(0.000452416 -0.000537654 0 0.000639877 0 0)
(0.000251762 -0.000344656 0 0.000472266 0 0)
(0.000147864 -0.000222728 0 0.000335793 0 0)
(9.06704e-05 -0.000145609 0 0.000234097 0 0)
(5.79861e-05 -9.67588e-05 0 0.000161707 0 0)
(3.85457e-05 -6.54101e-05 0 0.000111236 0 0)
(2.65257e-05 -4.4945e-05 0 7.63773e-05 0 0)
(1.88338e-05 -3.13504e-05 0 5.23879e-05 0 0)
(1.37581e-05 -2.21718e-05 0 3.59124e-05 0 0)
(1.03234e-05 -1.58889e-05 0 2.46144e-05 0 0)
(7.9459e-06 -1.15274e-05 0 1.68606e-05 0 0)
(6.26745e-06 -8.46273e-06 0 1.15429e-05 0 0)
(5.0611e-06 -6.28436e-06 0 7.89963e-06 0 0)
(4.17902e-06 -4.71743e-06 0 5.40408e-06 0 0)
(3.52472e-06 -3.57783e-06 0 3.69526e-06 0 0)
(3.03324e-06 -2.74018e-06 0 2.5258e-06 0 0)
(2.65972e-06 -2.11788e-06 0 1.72574e-06 0 0)
(2.37263e-06 -1.65067e-06 0 1.17865e-06 0 0)
(2.14976e-06 -1.29637e-06 0 8.04732e-07 0 0)
(1.97533e-06 -1.02517e-06 0 5.49294e-07 0 0)
(1.8378e-06 -8.15687e-07 0 3.74828e-07 0 0)
(1.72851e-06 -6.52482e-07 0 2.55708e-07 0 0)
(1.64107e-06 -5.2437e-07 0 1.74415e-07 0 0)
(1.57076e-06 -4.23127e-07 0 1.18956e-07 0 0)
(1.51397e-06 -3.42625e-07 0 8.1123e-08 0 0)
(1.4681e-06 -2.78245e-07 0 5.53001e-08 0 0)
(1.43078e-06 -2.26521e-07 0 3.76969e-08 0 0)
(1.40022e-06 -1.84939e-07 0 2.57353e-08 0 0)
(1.37539e-06 -1.5105e-07 0 1.75071e-08 0 0)
(1.35491e-06 -1.23497e-07 0 1.1909e-08 0 0)
(1.338e-06 -1.01345e-07 0 8.14476e-09 0 0)
(1.32441e-06 -8.3048e-08 0 5.53238e-09 0 0)
(1.31351e-06 -6.79139e-08 0 3.73378e-09 0 0)
(1.30468e-06 -5.5536e-08 0 2.51536e-09 0 0)
(1.29752e-06 -4.53502e-08 0 1.68706e-09 0 0)
(1.29173e-06 -3.69244e-08 0 1.12325e-09 0 0)
(1.28708e-06 -2.99202e-08 0 7.39517e-10 0 0)
(1.28332e-06 -2.40565e-08 0 4.78474e-10 0 0)
(1.28028e-06 -1.91031e-08 0 3.013e-10 0 0)
(1.27793e-06 -1.4875e-08 0 1.81887e-10 0 0)
(1.27615e-06 -1.12058e-08 0 1.02313e-10 0 0)
(1.27479e-06 -7.95521e-09 0 5.08067e-11 0 0)
(1.2738e-06 -4.99747e-09 0 1.97309e-11 0 0)
(1.27326e-06 -2.22231e-09 0 4.54698e-12 0 0)
(1.27314e-06 4.7602e-10 0 3.05461e-12 0 0)
(1.27332e-06 3.20378e-09 0 1.51406e-11 0 0)
(1.27384e-06 6.06807e-09 0 4.27809e-11 0 0)
(1.27484e-06 9.18145e-09 0 9.03325e-11 0 0)
(1.27639e-06 1.26634e-08 0 1.65158e-10 0 0)
(1.27839e-06 1.66561e-08 0 2.79082e-10 0 0)
(1.28097e-06 2.13228e-08 0 4.49904e-10 0 0)
(1.28438e-06 2.68521e-08 0 7.04187e-10 0 0)
(1.28877e-06 3.34693e-08 0 1.08151e-09 0 0)
(1.29417e-06 4.14491e-08 0 1.64099e-09 0 0)
(1.30078e-06 5.1134e-08 0 2.47043e-09 0 0)
(1.3091e-06 6.29365e-08 0 3.69843e-09 0 0)
(1.31947e-06 7.73672e-08 0 5.51602e-09 0 0)
(1.33209e-06 9.50613e-08 0 8.20617e-09 0 0)
(1.34749e-06 1.16832e-07 0 1.21896e-08 0 0)
(1.36657e-06 1.43713e-07 0 1.80865e-08 0 0)
(1.39016e-06 1.77006e-07 0 2.68161e-08 0 0)
(1.41897e-06 2.18371e-07 0 3.97434e-08 0 0)
(1.45432e-06 2.69992e-07 0 5.88955e-08 0 0)
(1.49812e-06 3.3475e-07 0 8.72766e-08 0 0)
(1.55239e-06 4.16393e-07 0 1.29345e-07 0 0)
(1.61928e-06 5.19847e-07 0 1.91735e-07 0 0)