/*--------------------------------*- C++ -*----------------------------------*\
| =========                 |                                                 |
| \\      /  F ield         | OpenFOAM: The Open Source CFD Toolbox           |
|  \\    /   O peration     | Version:  2.4.0                                 |
|   \\  /    A nd           | Web:      www.OpenFOAM.org                      |
|    \\/     M anipulation  |                                                 |
\*---------------------------------------------------------------------------*/
FoamFile
{
    version     2.0;
    format      ascii;
    class       volScalarField;
    location    "0.089";
    object      pMean;
}
// * * * * * * * * * * * * * * * * * * * * * * * * * * * * * * * * * * * * * //

dimensions      [0 2 -2 0 0 0 0];

internalField   nonuniform List<scalar> 
17600
(
126.706
110.266
105.191
103.524
102.039
100.536
99.0883
97.6986
96.34
94.9881
93.6472
92.311
90.9982
89.69
88.4078
87.0998
85.784
84.3767
82.732
80.0136
124.817
110.314
105.232
103.533
102.042
100.537
99.0885
97.6988
96.3401
94.9881
93.6472
92.3112
90.9982
89.6907
88.4079
87.1018
85.785
84.3822
82.744
80.4853
123.418
110.566
105.373
103.57
102.056
100.541
99.0904
97.7002
96.3411
94.9886
93.6474
92.3108
90.9984
89.69
88.4086
87.0999
85.7886
84.38
82.8195
80.7459
122.45
110.9
105.587
103.633
102.085
100.556
99.0989
97.7059
96.3448
94.9908
93.6482
92.3121
90.9985
89.6932
88.4087
87.1087
85.7885
84.4049
82.8786
81.0215
121.635
111.227
105.844
103.712
102.126
100.585
99.1181
97.7194
96.3542
94.9968
93.6518
92.3128
91.0005
89.6921
88.4127
87.1054
85.8027
84.4133
82.9738
81.29
120.867
111.511
106.113
103.791
102.167
100.622
99.147
97.7417
96.3701
95.0081
93.6577
92.3187
91.0023
89.6993
88.4142
87.1171
85.8084
84.4381
83.0677
81.5614
120.146
111.751
106.381
103.865
102.198
100.656
99.1801
97.7693
96.3913
95.0233
93.6677
92.3241
91.0079
89.7028
88.4202
87.1241
85.8164
84.4731
83.1368
81.85
119.48
111.95
106.641
103.936
102.219
100.683
99.2126
97.7992
96.4144
95.0404
93.6783
92.3321
91.0137
89.7099
88.4292
87.1335
85.8376
84.5013
83.2245
82.1661
118.875
112.11
106.885
104.008
102.232
100.702
99.2421
97.8289
96.4381
95.0577
93.6891
92.3403
91.0188
89.718
88.4334
87.1485
85.8468
84.546
83.2967
82.4733
118.332
112.235
107.112
104.085
102.239
100.714
99.2677
97.8575
96.4612
95.0736
93.6993
92.3467
91.0257
89.7244
88.4445
87.1599
85.8694
84.5897
83.3873
82.784
117.85
112.325
107.32
104.166
102.241
100.718
99.2893
97.8845
96.4833
95.0888
93.7082
92.3533
91.0299
89.732
88.4507
87.1749
85.8925
84.6367
83.4989
83.05
117.426
112.386
107.508
104.251
102.239
100.717
99.3071
97.9096
96.5048
95.1027
93.7164
92.3585
91.0359
89.7387
88.4609
87.1902
85.9168
84.6907
83.6108
83.2841
117.057
112.422
107.678
104.339
102.235
100.712
99.3215
97.9328
96.5249
95.1153
93.7235
92.3632
91.0404
89.7457
88.4708
87.2065
85.9476
84.7456
83.7247
83.4971
116.74
112.441
107.826
104.424
102.23
100.704
99.3331
97.9534
96.5439
95.1266
93.7298
92.3675
91.0456
89.753
88.4814
87.2243
85.9794
84.8023
83.838
83.6912
116.474
112.45
107.954
104.5
102.226
100.694
99.3422
97.9717
96.5607
95.1366
93.7352
92.3709
91.0506
89.7607
88.4932
87.2439
86.0126
84.8603
83.9479
83.87
116.255
112.453
108.06
104.566
102.224
100.684
99.3492
97.9871
96.5756
95.1452
93.74
92.3748
91.0555
89.7685
88.5055
87.2641
86.0476
84.9199
84.0534
84.0357
116.082
112.453
108.143
104.62
102.223
100.676
99.3543
97.9997
96.5879
95.1524
93.7441
92.378
91.0605
89.777
88.5185
87.2855
86.0834
84.9793
84.1545
84.1902
115.954
112.451
108.205
104.661
102.224
100.668
99.3579
98.0092
96.5975
95.1581
93.7476
92.3815
91.0656
89.7856
88.532
87.3079
86.1204
85.0382
84.2514
84.3345
115.869
112.449
108.245
104.689
102.225
100.662
99.3603
98.0158
96.6043
95.1625
93.7506
92.3849
91.0708
89.7943
88.5465
87.33
86.1584
85.0963
84.3435
84.4689
115.827
112.448
108.265
104.703
102.226
100.66
99.3615
98.0192
96.6081
95.1653
93.7529
92.3884
91.0759
89.8036
88.5606
87.354
86.1951
85.1553
84.4295
84.5907
115.827
112.447
108.265
104.703
102.227
100.66
99.3618
98.0196
96.6089
95.1669
93.7545
92.3921
91.0811
89.8132
88.5756
87.3778
86.2331
85.211
84.5179
84.69
115.869
112.448
108.245
104.689
102.226
100.662
99.3613
98.0168
96.6067
95.1667
93.7559
92.3954
91.0866
89.8218
88.5916
87.401
86.2722
85.2641
84.6041
84.7916
115.955
112.45
108.205
104.661
102.225
100.668
99.3596
98.011
96.6014
95.1653
93.7566
92.3994
91.0917
89.8321
88.6065
87.4269
86.3077
85.3214
84.6665
84.8891
116.084
112.451
108.144
104.62
102.225
100.675
99.3568
98.0021
96.5934
95.1621
93.7569
92.4026
91.0974
89.8413
88.6226
87.4516
86.3448
85.3751
84.7287
84.9907
116.257
112.451
108.061
104.566
102.226
100.684
99.3523
97.9902
96.5827
95.1576
93.7565
92.4059
91.1028
89.8509
88.6386
87.4768
86.3822
85.4263
84.7921
85.0672
116.477
112.447
107.955
104.5
102.229
100.694
99.3461
97.9754
96.5696
95.1514
93.7557
92.409
91.1082
89.8607
88.6544
87.5028
86.4189
85.4782
84.8491
85.1305
116.744
112.438
107.827
104.424
102.233
100.703
99.3378
97.9578
96.5543
95.1437
93.7543
92.4114
91.1138
89.8701
88.6707
87.5286
86.4563
85.5299
84.9011
85.1818
117.06
112.418
107.678
104.339
102.238
100.712
99.327
97.9377
96.5372
95.1346
93.7522
92.4132
91.1194
89.8795
88.6868
87.5546
86.4943
85.5816
84.9499
85.2185
117.429
112.382
107.509
104.251
102.243
100.717
99.3133
97.9153
96.5187
95.1241
93.7495
92.4141
91.125
89.8883
88.7033
87.5802
86.5333
85.6338
84.9986
85.2374
117.854
112.321
107.321
104.166
102.246
100.719
99.296
97.8908
96.499
95.1122
93.7457
92.4141
91.1305
89.8965
88.7198
87.6051
86.5733
85.6866
85.0503
85.2356
118.336
112.23
107.113
104.085
102.244
100.715
99.2749
97.8646
96.4783
95.0992
93.7408
92.4133
91.1356
89.904
88.7361
87.629
86.6143
85.7399
85.1083
85.2116
118.88
112.106
106.886
104.008
102.237
100.704
99.2498
97.8369
96.4566
95.085
93.7348
92.4115
91.1401
89.9105
88.752
87.6512
86.6559
85.7919
85.1746
85.1663
119.485
111.945
106.641
103.936
102.224
100.686
99.2208
97.8081
96.4344
95.07
93.7277
92.409
91.1437
89.9162
88.7666
87.6716
86.6959
85.8408
85.2449
85.1117
120.151
111.747
106.381
103.865
102.203
100.66
99.1888
97.7792
96.4124
95.0549
93.7203
92.4063
91.1464
89.9212
88.7792
87.69
86.7312
85.8848
85.3097
85.0601
120.872
111.507
106.114
103.792
102.172
100.626
99.1563
97.7522
96.3924
95.0413
93.7138
92.404
91.1488
89.9259
88.7898
87.7058
86.7603
85.9218
85.3615
85.0277
121.639
111.223
105.845
103.713
102.131
100.59
99.1279
97.7306
96.3773
95.0316
93.7098
92.4031
91.1513
89.9303
88.7983
87.7188
86.7819
85.9509
85.3945
85.0055
122.455
110.896
105.588
103.634
102.09
100.561
99.109
97.7174
96.3687
95.0265
93.7082
92.4036
91.1537
89.9339
88.8045
87.7281
86.7963
85.9712
85.4113
84.9969
123.423
110.562
105.374
103.571
102.061
100.546
99.1008
97.712
96.3653
95.0248
93.7082
92.4045
91.1554
89.9364
88.8082
87.7337
86.8043
85.9831
85.419
85
124.821
110.311
105.233
103.534
102.047
100.542
99.0989
97.7106
96.3645
95.0246
93.7084
92.4051
91.1561
89.9374
88.8096
87.736
86.8073
85.9877
85.4207
85.0165
126.711
110.263
105.193
103.524
102.044
100.541
99.0987
97.7105
96.3643
95.0246
93.7084
92.4052
91.1562
89.9375
88.8098
87.7362
86.8076
85.9882
85.4198
85.062
78.0076
78.2247
77.961
77.3076
76.3841
75.2037
73.8221
72.3257
70.945
69.7345
68.7427
68.0446
67.5997
67.2753
67.0017
66.7477
66.4176
66.0397
65.7069
65.5909
65.7749
66.1969
66.8376
67.6506
68.6251
69.764
71.0281
72.351
73.6664
74.93
76.1125
77.1829
78.1308
78.9734
79.7071
80.3238
80.8817
81.4206
81.9576
82.4795
82.9528
83.3586
83.6962
83.9932
84.2711
84.5749
84.9712
85.427
85.8326
86.1741
86.4908
86.7832
87.0212
87.1815
87.3046
87.4337
87.5712
87.7101
87.8531
88.013
88.1758
88.3229
88.4499
88.5668
88.6767
88.77
88.8382
88.8788
88.8875
88.8686
88.8301
88.7734
88.706
88.634
88.5673
88.5159
88.4818
88.4702
88.4827
88.5204
88.5882
88.6851
88.8034
88.9295
89.0548
89.1657
89.2552
89.3279
89.38
89.4209
89.456
89.4697
89.4819
89.4952
89.5065
89.5179
89.5401
89.577
89.6321
89.7096
89.8226
89.9695
90.1496
90.3744
90.6549
90.9858
91.3726
91.8106
92.2921
92.8002
93.3276
93.86
94.3835
94.8775
95.3356
95.7487
96.1115
96.4133
96.6538
96.8348
96.9665
97.0564
97.1136
97.1428
97.1503
97.1395
97.115
97.0793
97.0353
96.9831
96.9227
96.8531
96.775
96.6903
96.6005
96.5079
96.4133
96.3182
96.2221
96.1265
96.0298
95.9341
95.8371
95.7412
95.6436
95.5472
95.4489
95.3517
95.2524
95.1539
95.0531
94.9529
94.8501
94.7478
94.6426
94.5374
94.4292
94.3203
94.2085
94.095
93.9785
93.8594
93.7371
93.6109
93.4813
93.3465
93.2078
93.0625
92.9126
92.7543
92.5905
92.4167
92.2358
92.0434
91.8418
91.6274
91.4009
91.1609
90.9055
90.6351
90.3462
90.0397
89.7113
89.3606
88.9833
88.5748
88.1297
87.6403
87.0967
86.4796
85.7735
84.9471
83.9447
82.7114
81.0683
78.9701
75.804
70.8251
64.641
37.5581
78.7585
78.5888
78.3381
77.7725
76.9153
75.8098
74.5285
73.1374
71.8402
70.7209
69.7939
69.1224
68.6755
68.3525
68.0764
67.8171
67.5067
67.1573
66.8358
66.6889
66.8241
67.2042
67.8147
68.6064
69.553
70.6461
71.8463
73.0966
74.3431
75.5445
76.6804
77.7263
78.6616
79.4953
80.2222
80.8245
81.3655
81.8884
82.3999
82.8973
83.3604
83.7602
84.0883
84.3702
84.6255
84.8906
85.2494
85.6895
86.0928
86.4173
86.6972
86.9499
87.1509
87.2763
87.36
87.4409
87.524
87.6068
87.6926
87.7978
87.9126
88.0197
88.1122
88.2001
88.287
88.3652
88.4278
88.4711
88.4874
88.479
88.4534
88.4098
88.3535
88.2921
88.2349
88.1921
88.1662
88.1633
88.1853
88.2348
88.317
88.4306
88.5677
88.7158
88.8651
88.9999
89.1126
89.2053
89.2745
89.3304
89.3753
89.3958
89.4141
89.4304
89.4423
89.4528
89.4751
89.5106
89.5643
89.6394
89.7517
89.8979
90.0801
90.3068
90.5918
90.9276
91.3219
91.7659
92.2567
92.7723
93.3085
93.8476
94.3795
94.88
95.3462
95.7644
96.1334
96.4382
96.6819
96.8625
96.9942
97.0813
97.137
97.1627
97.1685
97.1544
97.1285
97.0901
97.0454
96.9907
96.9296
96.8575
96.7791
96.6923
96.6024
96.508
96.4133
96.3163
96.2202
96.1225
96.0259
95.9279
95.831
95.7326
95.6351
95.5362
95.4379
95.3378
95.2384
95.1369
95.0359
94.9325
94.8294
94.7235
94.6176
94.5087
94.3994
94.2866
94.1732
94.0557
93.9368
93.8136
93.6879
93.5577
93.4237
93.2847
93.1404
92.9906
92.8337
92.6704
92.4983
92.3184
92.1277
91.9276
91.7146
91.4902
91.2506
90.9972
90.7265
90.4385
90.1314
89.803
89.4522
89.074
88.6673
88.2246
87.7408
87.2051
86.6053
85.9249
85.1339
84.2098
83.0695
81.6856
79.7939
77.3253
73.9294
67.3636
61.0265
30.5039
79.4645
79.1133
78.7262
78.1548
77.3405
76.2995
75.1001
73.8143
72.6028
71.559
70.6998
70.0636
69.62
69.2939
69.0142
68.7527
68.4671
68.1617
67.8797
67.7303
67.8414
68.1996
68.7856
69.5555
70.4706
71.5138
72.6459
73.8238
75.0022
76.1438
77.2332
78.2488
79.1662
79.9894
80.7112
81.3062
81.8336
82.3482
82.8485
83.3218
83.7651
84.1552
84.4742
84.7444
84.9848
85.2172
85.5331
85.9509
86.3496
86.6606
86.9105
87.1271
87.2936
87.3886
87.4381
87.4738
87.505
87.5313
87.5602
87.6115
87.6793
87.7477
87.809
87.8714
87.9382
88.0031
88.0623
88.1092
88.1331
88.1357
88.123
88.0925
88.048
87.9973
87.9502
87.9165
87.8993
87.9051
87.9373
87.9995
88.0969
88.2274
88.3832
88.5528
88.726
88.8843
89.0189
89.1309
89.2167
89.2865
89.3399
89.3672
89.3917
89.4098
89.4217
89.4305
89.4524
89.4848
89.5357
89.6069
89.7175
89.8612
90.0446
90.2709
90.5592
90.8978
91.298
91.7458
92.2444
92.7646
93.3079
93.8501
94.3881
94.8916
95.3643
95.7846
96.1586
96.4636
96.7101
96.8885
97.0207
97.1038
97.1589
97.1801
97.1853
97.1671
97.1411
97.0994
97.0547
96.9971
96.9357
96.8611
96.7825
96.6937
96.6037
96.5076
96.4128
96.3142
96.2178
96.1184
96.0213
95.9219
95.8241
95.7244
95.6258
95.5256
95.4259
95.3248
95.2235
95.1211
95.0177
94.9134
94.8074
94.7007
94.5915
94.4816
94.3686
94.2546
94.1369
94.0179
93.8944
93.7693
93.6386
93.5057
93.3663
93.2237
93.0738
92.919
92.7563
92.5864
92.408
92.2198
92.0219
91.8115
91.5896
91.3527
91.1019
90.8335
90.5482
90.2428
89.9163
89.5671
89.1912
88.7874
88.3492
87.8733
87.3494
86.7689
86.1118
85.3673
84.4948
83.48
82.1939
80.6357
78.5613
75.5796
72.3451
63.922
57.5934
28.8945
80.0053
79.6141
79.1536
78.5032
77.6836
76.7061
75.6065
74.4388
73.3219
72.3519
71.555
70.9446
70.496
70.163
69.8844
69.6264
69.3618
69.1046
68.8816
68.7618
68.8667
69.2074
69.76
70.4972
71.3754
72.3658
73.4291
74.5342
75.6444
76.7278
77.7681
78.7465
79.6403
80.4501
81.1689
81.766
82.2867
82.7942
83.2891
83.7446
84.1634
84.5398
84.8505
85.1144
85.3475
85.5558
85.8283
86.2133
86.601
86.8999
87.1276
87.3138
87.4494
87.5178
87.5367
87.5283
87.5091
87.4817
87.4566
87.4565
87.4795
87.5112
87.5444
87.5849
87.6338
87.6883
87.7459
87.7979
87.8301
87.8444
87.845
87.8275
87.7954
87.7556
87.7187
87.6938
87.6854
87.6997
87.7421
87.8174
87.9303
88.078
88.2522
88.4434
88.6399
88.8199
88.9751
89.1049
89.2065
89.2887
89.3495
89.3833
89.4141
89.4323
89.4444
89.4508
89.4719
89.4999
89.5478
89.614
89.7217
89.8608
90.0439
90.2671
90.557
90.8959
91.3003
91.7495
92.2544
92.7762
93.3251
93.8672
94.4094
94.9124
95.3901
95.8094
96.1873
96.4895
96.7387
96.9126
97.0461
97.1235
97.1794
97.1946
97.201
97.1773
97.1529
97.1066
97.0638
97.0016
96.9418
96.8628
96.7859
96.6934
96.6053
96.5059
96.4127
96.311
96.2158
96.1137
96.0173
95.9152
95.818
95.7157
95.6173
95.5147
95.4149
95.3113
95.2097
95.1046
95.0007
94.8935
94.7869
94.6769
94.567
94.4535
94.3395
94.2216
94.1025
93.9792
93.8539
93.724
93.5911
93.453
93.3107
93.1623
93.0088
92.8477
92.68
92.5034
92.3185
92.1229
91.9164
91.6978
91.4646
91.2179
90.953
90.6723
90.37
90.0484
89.7017
89.3311
88.9311
88.4995
88.0315
87.5201
86.9559
86.3313
85.6127
84.809
83.8487
82.7366
81.3515
79.5409
77.5095
73.7047
71.0116
60.7495
54.3201
29.9333
80.4287
80.0561
79.5503
78.8189
77.9751
77.0619
76.0754
75.0389
74.0313
73.1394
72.3932
71.7998
71.3513
71.0177
70.7438
70.4967
70.2576
70.0454
69.8812
69.8044
69.9153
70.2339
70.7392
71.4294
72.2628
73.1958
74.1914
75.2259
76.2702
77.2961
78.285
79.2217
80.0868
80.8782
81.5933
82.2001
82.7244
83.2217
83.7075
84.1505
84.5496
84.9127
85.2165
85.4775
85.711
85.904
86.1354
86.4805
86.847
87.1343
87.3467
87.5106
87.6211
87.6645
87.6533
87.602
87.533
87.4561
87.3836
87.3366
87.3183
87.316
87.3241
87.3447
87.3786
87.4255
87.4839
87.5417
87.5835
87.6107
87.6247
87.6207
87.6013
87.5726
87.5455
87.5284
87.5284
87.5508
87.6029
87.691
87.8194
87.9843
88.1767
88.3891
88.6071
88.8072
88.9813
89.1272
89.2431
89.3362
89.4034
89.4433
89.4799
89.4967
89.5086
89.5116
89.5322
89.5548
89.5999
89.6603
89.7646
89.8971
90.0783
90.2958
90.5856
90.9219
91.3284
91.776
92.2853
92.8059
93.3591
93.8977
94.4426
94.9418
95.423
95.838
96.219
96.5153
96.767
96.934
97.0699
97.1395
97.1981
97.2053
97.2151
97.1837
97.1638
97.1103
97.0725
97.0026
96.948
96.861
96.7898
96.6895
96.6076
96.5005
96.4136
96.3043
96.2152
96.1054
96.0149
95.9054
95.8135
95.7041
95.6105
95.5011
95.4054
95.2955
95.1972
95.0863
94.9848
94.8723
94.7672
94.6524
94.543
94.425
94.3106
94.1886
94.0682
93.941
93.8133
93.6797
93.5434
93.4015
93.2549
93.1025
92.9436
92.778
92.6039
92.422
92.2294
92.0273
91.8119
91.5846
91.3414
91.0833
90.8066
90.5109
90.1938
89.8537
89.4884
89.0961
88.6707
88.2142
87.7114
87.1705
86.5599
85.8931
85.1182
84.2501
83.2336
81.9457
80.5824
78.3168
76.6434
71.6931
69.8243
58.0464
51.0023
31.0975
80.882
80.5
79.8784
79.0708
78.2151
77.3687
76.5028
75.6097
74.7263
73.9156
73.2181
72.6489
72.211
71.8828
71.6173
71.387
71.1782
71.0056
70.891
70.8523
70.9693
71.2682
71.7276
72.36
73.1325
73.9999
74.9291
75.8988
76.8826
77.8533
78.7911
79.6841
80.5174
81.2851
81.9866
82.6005
83.1333
83.62
84.0918
84.5268
84.9155
85.2711
85.5721
85.8335
86.0745
86.2609
86.4547
86.7563
87.0953
87.3689
87.5716
87.7207
87.8097
87.8288
87.7845
87.691
87.5745
87.455
87.3432
87.2552
87.1992
87.1668
87.1519
87.1555
87.1772
87.219
87.28
87.3451
87.3981
87.4387
87.4667
87.4764
87.4698
87.4529
87.4347
87.4241
87.4314
87.4609
87.522
87.6223
87.7657
87.9472
88.1579
88.3899
88.6274
88.8454
89.0366
89.1968
89.3255
89.4278
89.5006
89.5454
89.587
89.6008
89.6125
89.6113
89.632
89.6481
89.6907
89.7442
89.8453
89.9703
90.1487
90.3582
90.6454
90.9761
91.3824
91.8253
92.3365
92.8529
93.4087
93.9409
94.4869
94.9793
95.4625
95.8701
96.2528
96.5404
96.794
96.952
97.091
97.1512
97.2136
97.2114
97.2262
97.1856
97.1724
97.1096
97.079
96.999
96.9521
96.8545
96.7921
96.681
96.6088
96.4906
96.4139
96.2932
96.2144
96.0931
96.0127
95.8917
95.8096
95.689
95.6046
95.4844
95.3971
95.2771
95.186
95.0657
94.9704
94.8493
94.749
94.6263
94.5205
94.3953
94.2833
94.1546
94.0354
93.9018
93.7745
93.6345
93.4977
93.3493
93.2013
93.0421
92.8809
92.7079
92.5306
92.3404
92.1434
91.9318
91.7104
91.4722
91.2204
90.95
90.6611
90.3516
90.0178
89.6613
89.2746
88.8607
88.4103
87.9266
87.3945
86.8138
86.1721
85.433
84.6478
83.6427
82.6708
81.0642
79.9643
76.9339
75.9276
69.6132
68.4128
55.8428
47.4989
31.4026
81.4529
80.9985
80.1649
79.2557
78.3958
77.6202
76.8839
76.1413
75.3916
74.6712
74.0311
73.4993
73.0782
72.7587
72.5068
72.2973
72.1193
71.9811
71.9029
71.8965
72.0179
72.299
72.7217
73.2939
73.9967
74.7921
75.6567
76.567
77.4928
78.4079
79.2934
80.1385
80.9354
81.6756
82.3544
82.9599
83.4947
83.9732
84.4325
84.8643
85.2522
85.6082
85.9134
86.1799
86.4363
86.6241
86.7864
87.0457
87.354
87.6104
87.8048
87.9427
88.0104
88.0016
87.9228
87.7903
87.6337
87.48
87.3359
87.2127
87.1239
87.065
87.0311
87.0207
87.0331
87.0731
87.1381
87.2118
87.2766
87.3314
87.3735
87.3972
87.4042
87.3991
87.3889
87.3841
87.3965
87.4321
87.5012
87.6129
87.7702
87.9671
88.1953
88.4453
88.6994
88.9332
89.1395
89.312
89.452
89.5616
89.6392
89.6878
89.7332
89.7424
89.7537
89.7477
89.7676
89.7764
89.8171
89.8639
89.9618
90.079
90.2542
90.4542
90.7368
91.0588
91.4628
91.8977
92.4077
92.9171
93.4729
93.9965
94.5415
95.0245
95.5075
95.9052
96.2878
96.5643
96.819
96.9661
97.1082
97.1577
97.2249
97.2118
97.2331
97.1816
97.1768
97.1028
97.0815
96.9888
96.9524
96.8409
96.7909
96.6651
96.6071
96.4732
96.4119
96.2744
96.2122
96.0728
96.01
95.8698
95.806
95.6654
95.5996
95.4589
95.3905
95.2497
95.1773
95.0361
94.9591
94.8174
94.7347
94.5917
94.5023
94.3577
94.2606
94.1134
94.0076
93.8564
93.7404
93.5839
93.4563
93.2926
93.1517
92.978
92.8218
92.6351
92.4606
92.2569
92.0605
91.8352
91.6119
91.3589
91.1028
90.8152
90.5202
90.1893
89.8476
89.4633
89.0675
88.6163
88.1599
87.6242
87.0944
86.4342
85.81
84.9284
84.2324
82.9333
82.1861
79.9855
79.4264
75.3739
75.1493
67.6206
66.5391
54.0274
43.8086
31.0604
82.0612
81.536
80.4431
79.3819
78.5103
77.8192
77.2189
76.6248
76.0092
75.3919
74.8221
74.3349
73.9361
73.6297
73.3958
73.21
73.0596
72.951
72.902
72.9247
73.051
73.3146
73.7068
74.2266
74.8643
75.591
76.3893
77.2358
78.1004
78.9587
79.791
80.5853
81.3384
82.0434
82.6906
83.2752
83.8002
84.2723
84.7214
85.1549
85.5525
85.9166
86.2318
86.512
86.7908
86.989
87.1269
87.3491
87.625
87.8588
88.0419
88.1669
88.2116
88.1738
88.0616
87.8958
87.71
87.5306
87.3592
87.2073
87.0913
87.0108
86.9625
86.9418
86.9497
86.9904
87.0608
87.144
87.2216
87.291
87.3472
87.3847
87.405
87.4109
87.4087
87.4092
87.4257
87.4658
87.5419
87.6637
87.8331
88.0442
88.2882
88.5536
88.8216
89.0686
89.2881
89.4711
89.6207
89.7354
89.8175
89.8679
89.9159
89.9194
89.9293
89.9182
89.9364
89.9376
89.9757
90.0158
90.1108
90.2207
90.3922
90.5827
90.8592
91.1699
91.5693
91.9932
92.4988
92.9983
93.5515
94.0635
94.6058
95.0769
95.5577
95.9427
96.3232
96.5864
96.8411
96.9758
97.1207
97.1587
97.2307
97.2059
97.234
97.171
97.1753
97.0886
97.0777
96.9706
96.9461
96.8186
96.7829
96.6399
96.5981
96.4458
96.4027
96.2449
96.2027
96.0412
96.0002
95.836
95.7961
95.6293
95.5895
95.4206
95.3799
95.209
95.1659
94.9929
94.9462
94.7715
94.7198
94.5432
94.4848
94.3064
94.2399
94.0592
93.9828
93.7989
93.7106
93.522
93.4205
93.2253
93.1082
92.904
92.7694
92.5529
92.3976
92.1643
91.9853
91.7297
91.522
91.2367
90.9949
90.6707
90.3899
90.015
89.6893
89.2486
88.8745
88.347
87.9288
87.2794
86.8218
85.9813
85.4949
84.3143
83.8956
82.0646
81.7807
78.7563
78.8342
73.7499
74.1186
65.7985
63.7674
52.4263
40.6011
30.7129
82.7415
82.1246
80.7172
79.4831
78.5948
77.9847
77.5107
77.0534
76.5694
76.0655
75.5748
75.1361
74.7655
74.4764
74.2611
74.0977
73.9741
73.8933
73.8709
73.9198
74.0531
74.3011
74.6664
75.1432
75.7282
76.3961
77.1271
77.9026
78.7017
79.5027
80.2818
81.0249
81.7276
82.3854
82.9906
83.542
84.0468
84.5119
84.9556
85.3917
85.8076
86.1888
86.5188
86.8181
87.123
87.3413
87.4646
87.6579
87.9019
88.1081
88.2741
88.3814
88.404
88.3419
88.2016
88.0096
87.8031
87.6048
87.4111
87.2368
87.0997
87.003
86.945
86.9201
86.9283
86.9728
87.0503
87.1438
87.2352
87.3186
87.3881
87.4388
87.4715
87.4876
87.4927
87.4983
87.5185
87.5625
87.6442
87.7743
87.954
88.1774
88.4348
88.7126
88.9912
89.2491
89.4802
89.6715
89.8289
89.9466
90.0329
90.0821
90.1312
90.1294
90.1367
90.1208
90.1356
90.1299
90.164
90.1974
90.2878
90.3899
90.559
90.7401
91.0103
91.3075
91.7009
92.1108
92.6094
93.0957
93.6434
94.1414
94.6788
95.1352
95.6117
95.9817
96.3579
96.606
96.8591
96.9806
97.1273
97.1537
97.2297
97.1933
97.2278
97.1531
97.1663
97.0664
97.0655
96.9433
96.9306
96.7866
96.7648
96.6042
96.5786
96.4071
96.382
96.2032
96.1812
95.9965
95.9779
95.7882
95.7731
95.5783
95.566
95.3661
95.3563
95.1511
95.1423
94.9315
94.9229
94.7065
94.6963
94.4744
94.4607
94.2337
94.2143
93.9824
93.9556
93.7177
93.6811
93.4363
93.3874
93.1347
93.0699
92.8071
92.7243
92.4478
92.3441
92.0487
91.9213
91.6005
91.4452
91.0889
90.9018
90.4976
90.2766
89.8068
89.5506
88.9911
88.707
88.0213
87.7303
86.8582
86.5861
85.4236
85.2069
83.5647
83.5146
81.0308
81.2025
77.4037
78.0259
72.1838
72.5322
64.3176
59.8483
50.823
38.8789
31.1209
83.3022
82.6311
81.0145
79.6445
78.713
78.143
77.7674
77.4356
77.0796
76.6885
76.2782
75.8906
75.5532
75.2837
75.0854
74.9425
74.8431
74.7886
74.7914
74.862
75.0059
75.2462
75.5894
76.0323
76.5737
77.1913
77.8593
78.5638
79.2947
80.0346
80.7588
81.4508
82.1
82.7028
83.2559
83.7632
84.2371
84.688
85.1306
85.571
86.0087
86.4156
86.7656
87.0875
87.4173
87.6655
87.7867
87.9594
88.1756
88.3529
88.4952
88.5825
88.5846
88.5034
88.3441
88.134
87.9125
87.7013
87.4912
87.2997
87.1471
87.0395
86.9779
86.9556
86.9697
87.0213
87.108
87.2127
87.3172
87.4137
87.4954
87.5581
87.602
87.6271
87.639
87.6491
87.6731
87.7205
87.8066
87.9431
88.1307
88.3643
88.6321
88.919
89.2051
89.4717
89.7123
89.9101
90.0738
90.1917
90.2811
90.327
90.3754
90.3682
90.3724
90.3523
90.3617
90.3493
90.3781
90.4029
90.4885
90.5805
90.7478
90.9203
91.1859
91.4689
91.8546
92.2485
92.7374
93.2078
93.7467
94.2284
94.7578
95.1976
95.6669
96.02
96.3895
96.6214
96.871
96.979
97.126
97.1407
97.2198
97.172
97.2122
97.1262
97.1469
97.0343
97.0422
96.9054
96.9029
96.7431
96.7335
96.5565
96.5449
96.3556
96.3462
96.1481
96.1437
95.9374
95.9385
95.7248
95.7323
95.5105
95.5236
95.2934
95.3127
95.0732
95.0977
94.8479
94.8777
94.6171
94.651
94.3786
94.4159
94.131
94.1702
93.872
93.9111
93.5994
93.6347
93.3101
93.3394
93.0008
93.0209
92.6648
92.6735
92.2963
92.2889
91.8864
91.8602
91.4244
91.3744
90.8935
90.8167
90.2744
90.1708
89.5449
89.418
88.674
88.5402
87.624
87.5176
86.347
86.31
84.7579
84.8354
82.6944
82.9793
79.91
80.4529
76.1108
76.8285
70.9174
69.8036
62.8863
56.1729
49.4326
38.5971
32.2518
83.7531
83.0844
81.3427
79.8566
78.8622
78.304
78.0044
77.7839
77.5437
77.2547
76.9237
76.5908
76.29
76.0424
75.8599
75.7335
75.6553
75.625
75.6507
75.7402
75.8973
76.1373
76.4662
76.882
77.3846
77.9571
78.5715
79.212
79.8757
80.5523
81.2186
81.8554
82.4488
82.9915
83.4857
83.9435
84.3803
84.8095
85.248
85.6941
86.1529
86.591
86.9672
87.3124
87.6677
87.9539
88.0865
88.2469
88.4392
88.5886
88.7042
88.7705
88.7556
88.6585
88.4859
88.2676
88.038
87.8185
87.5994
87.3977
87.2337
87.1197
87.0613
87.048
87.0731
87.1359
87.234
87.3505
87.4677
87.5764
87.6684
87.7412
87.7946
87.8269
87.8442
87.8584
87.8856
87.9364
88.0262
88.167
88.3602
88.6011
88.8764
89.1684
89.4593
89.7324
89.9805
90.1822
90.3515
90.4668
90.5573
90.5979
90.6436
90.6314
90.6314
90.6075
90.6107
90.5903
90.6148
90.6295
90.7103
90.791
90.9539
91.1193
91.38
91.6514
92.0271
92.4042
92.8801
93.3327
93.8593
94.3228
94.8405
95.262
95.7214
96.0559
96.416
96.6306
96.875
96.9692
97.1151
97.118
97.199
97.14
97.1849
97.0877
97.115
96.9894
97.0049
96.8539
96.8598
96.6854
96.6855
96.4938
96.4933
96.2884
96.2911
96.0765
96.0857
95.861
95.8773
95.6434
95.6682
95.4237
95.4564
95.2006
95.2427
94.974
95.0249
94.7417
94.8021
94.5031
94.5726
94.2557
94.3349
93.9981
94.0865
93.7278
93.8254
93.4426
93.5485
93.1399
93.2544
92.8153
92.9351
92.4636
92.5864
92.0796
92.1999
91.6543
91.768
91.176
91.2766
90.6254
90.7067
89.9801
90.0403
89.2129
89.2517
88.281
88.3162
87.1393
87.2023
85.7199
85.8796
83.955
84.2747
81.7268
82.2293
78.867
79.4097
75.234
74.886
69.8726
66.475
61.0828
53.9476
48.9379
39.4964
33.6783
84.1191
83.4752
81.6663
80.0986
79.0521
78.4904
78.2409
78.1047
77.9602
77.7641
77.5135
77.2387
76.9758
76.7516
76.5825
76.4694
76.4099
76.4006
76.4467
76.5535
76.7239
76.9658
77.2853
77.6797
78.1476
78.6797
79.2503
79.839
80.4431
81.0578
81.6631
82.2387
82.7711
83.2506
83.6827
84.0877
84.4846
84.8903
85.318
85.7677
86.2447
86.7155
87.1222
87.4884
87.8713
88.2009
88.363
88.518
88.6914
88.8138
88.903
88.9484
88.9224
88.8137
88.6289
88.4071
88.1771
87.9562
87.7362
87.5318
87.3601
87.2454
87.1952
87.1963
87.2375
87.3158
87.4281
87.5573
87.6859
87.8047
87.9052
87.9859
88.0461
88.084
88.1053
88.1226
88.1524
88.206
88.2986
88.4417
88.638
88.8834
89.1625
89.4561
89.7492
90.0266
90.2806
90.483
90.6572
90.7659
90.8554
90.89
90.9289
90.9121
90.9081
90.8779
90.8769
90.8487
90.8709
90.8765
90.952
91.0209
91.1755
91.3328
91.5872
91.8476
92.2133
92.5734
93.0347
93.4676
93.9783
94.422
94.9244
95.3263
95.7725
96.0877
96.4357
96.6327
96.8694
96.9503
97.0932
97.0847
97.1658
97.0966
97.1445
97.0371
97.0682
96.9312
96.9509
96.7881
96.7987
96.6127
96.6178
96.4152
96.4205
96.2043
96.2134
95.9869
96.0034
95.7652
95.7898
95.5416
95.576
95.3152
95.3587
95.085
95.14
94.851
94.9166
94.6105
94.6884
94.3631
94.4528
94.1055
94.209
93.8364
93.9537
93.5526
93.6855
93.2515
93.4009
92.9297
93.0978
92.5816
92.7689
92.2042
92.4125
91.7902
92.0203
91.3326
91.5832
90.8172
91.0878
90.2274
90.5115
89.541
89.828
88.7279
89.0057
87.7426
88.0057
86.5351
86.7764
85.0459
85.3172
83.2346
83.5564
80.9982
81.2333
78.1886
77.8435
74.4304
72.2986
68.3526
63.8269
59.5089
52.9909
49.3519
41.0548
35.0933
84.4183
83.8076
81.9796
80.3649
79.2752
78.6938
78.469
78.3981
78.3385
78.2292
78.056
77.8387
77.6132
77.4125
77.2569
77.1558
77.1117
77.1205
77.1844
77.306
77.4874
77.7308
78.0423
78.4188
78.8577
79.355
79.8883
80.4355
80.9902
81.5474
82.0902
82.6003
83.0673
83.4819
83.8519
84.2032
84.5582
84.9369
85.3507
85.8005
86.2899
86.7892
87.2318
87.6189
88.0268
88.4034
88.611
88.7696
88.9343
89.0319
89.0972
89.1247
89.0904
88.9741
88.7805
88.5541
88.3286
88.1139
87.9029
87.7011
87.5272
87.4172
87.3795
87.3996
87.4615
87.5592
87.6879
87.83
87.969
88.0957
88.2029
88.2892
88.354
88.3952
88.4189
88.438
88.4691
88.5244
88.6183
88.7618
88.9586
89.2052
89.4847
89.7767
90.0701
90.3492
90.6073
90.8072
90.9861
91.0835
91.1682
91.1959
91.2241
91.2022
91.1946
91.1558
91.1535
91.1193
91.1433
91.1403
91.2106
91.2667
91.4117
91.5575
91.8039
92.052
92.4082
92.7517
93.1979
93.6093
94.1023
94.5239
95.0079
95.3888
95.8192
96.1141
96.4483
96.6267
96.8545
96.9217
97.0606
97.0405
97.1206
97.0414
97.0908
96.9737
97.0067
96.8589
96.8801
96.7072
96.7193
96.5243
96.5305
96.3198
96.3266
96.1019
96.1128
95.8779
95.8962
95.6485
95.6751
95.4174
95.4543
95.1825
95.229
94.9439
95.0025
94.7004
94.7703
94.4502
94.5335
94.1922
94.2883
93.9232
94.0345
93.6416
93.7682
93.3439
93.488
93.0267
93.1896
92.6863
92.8703
92.3153
92.523
91.9107
92.1445
91.4613
91.7246
90.9599
91.2536
90.3902
90.7153
89.7422
90.0958
88.9945
89.3748
88.1164
88.5069
87.0742
87.4482
85.8176
86.1368
84.3115
84.5543
82.5093
82.6044
80.2773
79.9211
77.3278
75.9464
73.018
70.0626
66.642
62.1969
58.972
53.1326
50.3466
42.7169
36.3486
84.6722
84.0974
82.2743
80.6309
79.5088
78.9083
78.7008
78.6825
78.6946
78.6604
78.5558
78.3929
78.2052
78.0292
77.8882
77.7989
77.7669
77.7905
77.8689
78.0023
78.192
78.4367
78.7413
79.1022
79.5163
79.9827
80.4824
80.994
81.5054
82.0105
82.4929
82.9368
83.3366
83.686
83.9957
84.2946
84.6077
84.9556
85.3534
85.8005
86.2967
86.8154
87.2962
87.7111
88.1406
88.5607
88.8202
88.9991
89.1652
89.2447
89.2885
89.3042
89.2624
89.1371
88.9404
88.7133
88.4923
88.2913
88.0984
87.9051
87.7355
87.636
87.6149
87.6573
87.7434
87.8636
88.0101
88.165
88.3127
88.4452
88.5571
88.647
88.7143
88.7569
88.781
88.8007
88.8315
88.8866
88.9797
89.1213
89.3162
89.5609
89.8373
90.1248
90.4169
90.6942
90.9561
91.1481
91.3325
91.4124
91.4894
91.5077
91.5215
91.4931
91.4844
91.4334
91.4348
91.3951
91.4241
91.4117
91.4809
91.5228
91.6611
91.7912
92.0294
92.2604
92.6078
92.9337
93.3659
93.7545
94.2294
94.6257
95.09
95.4481
95.8613
96.134
96.4536
96.6127
96.8307
96.8838
97.0181
96.9859
97.0641
96.9753
97.0247
96.8982
96.9315
96.7739
96.7938
96.6128
96.6232
96.4211
96.4251
96.2085
96.2129
95.9821
95.9908
95.7505
95.7657
95.5115
95.5351
95.272
95.3048
95.0265
95.0693
94.7781
94.8324
94.5232
94.5886
94.2619
94.3405
93.9913
94.0824
93.7096
93.8154
93.4139
93.5343
93.1015
93.2381
92.7681
92.9218
92.4106
92.5822
92.0209
92.2126
91.5958
91.8076
91.1225
91.357
90.5925
90.8492
89.9874
90.2695
89.2959
89.5997
88.4924
88.8106
87.5422
87.8542
86.4151
86.6848
85.0595
85.2551
83.4422
83.5116
81.4653
81.2928
78.9702
78.2428
75.6508
73.8782
71.065
68.2466
65.3355
61.5086
59.3501
54.0574
51.4702
44.1912
37.4824
84.8947
84.3523
82.5457
80.8925
79.7564
79.1447
78.9456
78.9625
79.0297
79.0584
79.0171
78.9078
78.7597
78.6093
78.4835
78.404
78.3809
78.4161
78.5061
78.6497
78.8451
79.0907
79.3889
79.7356
80.1277
80.5644
81.0324
81.5111
81.9819
82.4384
82.8642
83.2444
83.577
83.8611
84.1127
84.3619
84.6346
84.9517
85.3323
85.7743
86.2729
86.8046
87.3198
87.7701
88.2201
88.6744
88.9879
89.2004
89.3777
89.4507
89.4746
89.4843
89.4376
89.301
89.1021
88.8818
88.6708
88.4896
88.3197
88.1426
87.9869
87.9028
87.9007
87.9676
88.08
88.2247
88.3895
88.5564
88.7118
88.8486
88.963
89.0547
89.1222
89.1637
89.187
89.2056
89.2349
89.2876
89.377
89.5146
89.7049
89.9446
90.2145
90.4942
90.7841
91.0549
91.3221
91.4995
91.6917
91.7452
91.8134
91.817