/*--------------------------------*- C++ -*----------------------------------*\
| =========                 |                                                 |
| \\      /  F ield         | OpenFOAM: The Open Source CFD Toolbox           |
|  \\    /   O peration     | Version:  2.4.0                                 |
|   \\  /    A nd           | Web:      www.OpenFOAM.org                      |
|    \\/     M anipulation  |                                                 |
\*---------------------------------------------------------------------------*/
FoamFile
{
    version     2.0;
    format      ascii;
    class       volScalarField;
    location    "0.091";
    object      p;
}
// * * * * * * * * * * * * * * * * * * * * * * * * * * * * * * * * * * * * * //

dimensions      [0 2 -2 0 0 0 0];

internalField   nonuniform List<scalar> 
4400
(
103.82
83.6862
76.0095
72.8057
70.223
67.9431
65.6047
63.2809
61.4435
59.7049
101.885
83.7543
76.0472
72.8165
70.2268
67.9416
65.606
63.2764
61.4406
59.4938
100.671
84.0716
76.1839
72.8547
70.2484
67.9483
65.6099
63.2691
61.4206
59.2359
99.9372
84.4553
76.3684
72.9105
70.2937
67.972
65.623
63.267
61.3869
59.0435
99.3442
84.8075
76.5567
72.9656
70.3565
68.0141
65.6485
63.2773
61.3574
58.931
98.831
85.1014
76.7231
73.0035
70.417
68.061
65.6831
63.2958
61.3668
58.9161
98.4064
85.3369
76.8631
73.021
70.467
68.1009
65.7172
63.3194
61.3561
59.0479
98.079
85.5148
76.9766
73.0252
70.5051
68.1308
65.7408
63.3513
61.2696
59.2498
97.8566
85.6359
77.0555
73.0217
70.5317
68.1502
65.7594
63.3758
61.247
59.4791
97.744
85.6962
77.098
73.0149
70.5496
68.1591
65.7715
63.4004
61.2451
59.5818
97.7411
85.6964
77.1043
73.0082
70.5584
68.1604
65.7776
63.4262
61.2524
59.6534
97.8491
85.6347
77.0746
73.0004
70.5597
68.1523
65.777
63.4484
61.2735
59.6806
98.0672
85.5136
77.008
72.9906
70.5508
68.1346
65.7694
63.4706
61.3045
59.6668
98.3924
85.3348
76.9041
72.9765
70.5301
68.1071
65.7557
63.4875
61.3465
59.6216
98.8163
85.0977
76.7727
72.951
70.4942
68.0696
65.737
63.4995
61.3979
59.5615
99.3293
84.8014
76.6138
72.9085
70.4445
68.025
65.716
63.5081
61.4398
59.5271
99.9244
84.4451
76.4324
72.8501
70.389
67.9852
65.6995
63.5166
61.4612
59.5095
100.661
84.0569
76.2524
72.7929
70.3481
67.9614
65.6926
63.5238
61.4675
59.5192
101.879
83.7378
76.1171
72.7542
70.3282
67.9531
65.6919
63.5272
61.4667
59.5503
103.815
83.6696
76.0796
72.7424
70.3255
67.9522
65.6926
63.5274
61.4633
59.6439
56.1124
53.0681
50.1083
50.2033
52.5552
55.2682
60.8465
64.53
67.4165
68.3607
62.72
53.1548
44.4431
39.0022
35.0197
32.4615
31.213
30.0676
29.7061
30.7323
33.509
38.8793
44.1774
47.1271
50.682
56.5208
60.9367
63.3661
64.5418
63.7929
61.1236
56.3892
51.1703
48.4341
47.7241
46.9115
46.7237
47.0113
49.602
55.2759
61.1808
67.5061
74.2112
79.3647
83.2684
86.1178
88.0765
89.4004
89.0818
88.8526
87.7725
82.8162
70.8812
61.025
56.0688
48.0445
41.2466
38.2847
41.6309
46.2631
51.2499
58.6283
67.1696
72.255
74.8253
73.9923
73.7165
71.3914
69.7681
67.8531
66.5814
65.8175
66.1777
66.9837
68.3227
70.0885
72.6923
75.757
79.048
82.0771
84.4883
85.3938
86.6506
86.3756
87.0417
86.3744
86.7203
86.0097
86.0605
85.3131
85.1343
84.1933
83.8801
82.5431
82.222
79.9659
79.5894
74.8206
74.3202
49.7334
55.9385
53.1035
50.3299
50.3049
52.7368
55.6168
60.5717
64.4255
66.6626
67.5219
62.9136
54.0616
45.7692
40.3869
36.2741
33.7035
32.7687
31.8193
31.722
33.259
35.4221
40.0226
45.5382
48.3355
50.3754
54.2996
57.2124
57.6991
57.3943
56.7583
54.9899
51.337
47.7989
47.0658
48.1902
49.0179
49.8796
50.8519
53.8561
59.0281
64.2357
69.6145
75.1866
79.703
83.3457
85.9978
88.0779
89.4647
89.4199
89.7218
89.0426
83.5746
69.9726
59.7242
54.0019
45.323
38.4833
34.8551
38.6979
43.5169
48.5512
56.3315
65.4185
71.223
74.4477
73.9691
73.7408
71.6723
70.1431
68.4082
67.1501
66.4408
66.7975
67.5864
68.7328
70.2064
72.6215
75.4981
78.6254
81.6459
83.9392
84.8834
86.1277
85.78
86.7186
85.8159
86.6129
85.3911
85.8612
84.6829
84.8172
83.3747
83.3732
81.4283
81.3395
78.1552
78.1001
70.8945
69.6783
42.0588
55.8557
53.1861
50.8536
50.7837
52.9633
55.9998
60.2179
63.8886
65.7119
66.2135
62.6172
54.5711
46.7606
41.5622
37.4942
35.011
34.4722
33.7181
33.8066
35.8983
38.032
41.7031
46.9939
49.8135
50.3646
52.182
53.4631
51.999
50.2245
49.6794
48.6617
46.0345
44.3029
45.5778
48.4494
50.965
52.8958
54.5946
57.9688
62.6105
67.1359
71.5915
76.0568
79.9637
83.3154
85.801
88.0713
89.5285
89.6905
90.1946
89.6116
83.9771
69.8455
59.7749
52.3302
43.1722
36.3655
31.8747
36.515
41.1412
46.3067
54.4107
64.1463
70.6815
74.3796
74.2462
73.9676
72.1973
70.6503
69.0057
67.8293
67.157
67.4662
68.1935
69.1704
70.4153
72.6633
75.3874
78.3792
81.3088
83.4223
84.3285
85.4366
85.0795
86.1916
85.0133
86.1848
84.5214
85.5491
83.7782
84.5109
82.4146
82.8184
80.1548
80.2049
76.0611
76.4612
67.7497
64.6575
40.3918
55.9515
53.5041
51.5631
51.5711
53.2583
56.2245
59.8393
63.0587
64.6335
64.7686
61.9638
54.9724
47.9053
42.9794
38.9704
36.7102
36.5283
36.1014
36.318
38.6971
41.1325
44.011
48.501
51.3036
50.7563
50.3356
49.8445
46.7254
43.6433
43.0029
42.4475
40.7577
40.7581
43.9221
48.4947
52.6939
55.7209
58.1892
61.8323
65.99
69.8421
73.3695
76.7746
80.1167
83.1638
85.5317
87.9621
89.6033
89.811
90.2221
89.6057
84.2192
70.6538
60.7179
51.049
41.8571
34.926
29.4541
35.3862
39.1059
44.5577
52.9566
63.3321
70.3665
74.7175
74.8477
74.5201
72.8702
71.2963
69.7509
68.5191
67.8599
68.1625
68.8805
69.687
70.6824
72.7641
75.3666
78.2379
81.0568
82.9732
83.8132
84.6863
84.3176
85.4483
84.0809
85.3762
83.3914
85.0621
82.5414
83.945
81.1208
82.3053
78.7932
79.1239
74.1594
74.2683
64.987
59.007
40.4066
56.2196
54.1969
52.4626
52.4945
53.6794
56.2946
59.4579
62.0808
63.4617
63.4691
61.1128
55.2957
49.1637
44.6115
40.8459
38.7637
38.8239
38.8156
39.1646
41.6021
44.2323
46.5137
50.0145
52.6439
51.4671
49.0466
46.5869
42.0476
38.0227
37.186
36.8188
35.8182
37.3178
42.1566
48.2974
54.2515
58.3885
61.6246
65.4554
69.0978
72.2773
74.9378
77.3585
80.1451
82.9056
85.1766
87.6586
89.3584
89.7404
89.9825
89.356
84.4951
72.1122
61.7018
50.084
41.2623
34.0996
27.7971
35.2614
37.2184
43.5414
52.1807
62.8731
70.5944
75.4989
75.7754
75.355
73.6858
72.1278
70.5595
69.256
68.6538
68.8897
69.5839
70.2097
71.0119
72.9351
75.4195
78.1765
80.8624
82.5748
83.3736
84.0422
83.6802
84.5683
83.1596
84.2244
82.1295
83.8807
80.9195
82.801
79.3795
81.3125
76.7642
78.298
72.5772
71.8914
62.9425
52.9325
40.1798
56.3328
54.9246
53.4909
53.3204
54.1612
56.3064
59.0098
61.1303
62.3058
62.2818
60.2791
55.5615
50.3562
46.3854
43.106
41.1238
41.2751
41.6688
42.205
44.4778
47.1465
49.068
51.7044
54.0186
52.4274
48.3461
43.9918
38.1734
33.344
32.2776
32.0365
31.5372
34.1808
40.3044
48.0592
55.7447
60.8805
64.9009
68.7587
71.9093
74.456
76.2825
77.8268
80.0324
82.4723
84.6983
87.2133
88.9079
89.5119
89.676
89.0802
84.8541
73.5167
62.1405
49.4309
41.2497
33.8132
27.1646
35.9385
35.4348
43.4
51.8185
62.9654
71.5253
76.6551
77.0562
76.5124
74.7977
73.1363
71.4933
70.1253
69.5357
69.6174
70.3079
70.7741
71.4306
73.1837
75.5277
78.1417
80.6997
82.258
83.0069
83.4895
83.1688
83.7142
82.4172
83.2596
81.2875
82.6568
79.6426
81.3732
77.7091
79.639
73.9384
76.1844
69.4761
68.2778
60.0735
49.3957
41.1264
56.679
55.5963
54.3843
53.9171
54.5539
56.2574
58.487
60.3202
61.3137
61.2042
59.5374
55.7868
51.4427
48.1552
45.4322
43.6412
43.7401
44.3989
45.2234
47.2677
49.8159
51.647
53.703
55.5468
53.5864
48.1217
41.976
35.0604
29.5604
28.179
28.0351
27.9971
31.4145
38.5729
47.9352
57.1097
63.1713
67.8958
71.6899
74.4329
76.3793
77.4071
78.1739
79.7945
81.9055
84.1012
86.6083
88.3158
89.1602
89.3707
88.7938
85.2591
74.8469
62.3997
49.2007
42.0619
34.0687
27.6111
36.9929
33.8091
44.2675
51.5139
63.7743
72.9465
78.2901
78.7657
78.0294
76.2165
74.3658
72.6636
71.1196
70.4731
70.441
71.0832
71.3933
71.8442
73.4481
75.767
78.2163
80.5827
81.9759
82.6734
82.9815
82.5968
82.8604
81.6794
82.3742
80.7002
81.456
78.8015
80.0152
76.5526
77.5175
71.705
73.0415
65.846
63.5873
56.4007
48.0813
41.7878
57.3586
56.3389
55.0731
54.292
54.8165
56.2342
57.9812
59.636
60.5114
60.2831
58.9608
56.0331
52.4137
49.7363
47.6249
46.0767
46.0393
46.9305
48.024
49.8433
52.2484
54.1973
56.0103
57.3583
54.9056
48.2793
40.5161
32.5418
26.4427
24.7624
24.7336
25.1138
29.0954
37.1654
47.9346
58.2758
65.1775
70.5415
74.2194
76.6322
78.0791
78.4095
78.4491
79.4234
81.204
83.393
85.8547
87.6141
88.6729
89.0598
88.3947
85.5226
76.1679
63.9746
50.0203
44.0344
34.9303
29.017
37.9102
32.5404
46.1442
50.88
65.5118
74.9976
80.3631
80.8086
79.8671
77.9296
75.8344
74.0037
72.2431
71.5195
71.345
71.8511
72.0277
72.3477
73.7551
76.0793
78.3865
80.5737
81.7277
82.3252
82.4767
82.0031
82.0091
80.9177
81.4514
79.8379
80.1089
77.7104
78.502
75.1748
74.9672
70.195
69.6591
63.6496
60.0793
54.6521
47.8026
41.445
57.8951
56.8955
55.6024
54.6176
55.0359
56.2452
57.5447
59.0843
59.8954
59.5292
58.5191
56.3131
53.2874
51.0916
49.6192
48.3532
48.2039
49.2711
50.5434
52.2342
54.5682
56.7478
58.535
59.4202
56.4222
48.7909
39.6254
30.6388
23.9699
21.9958
22.08
22.8752
27.3067
36.1298
48.0016
59.153
66.9207
72.8149
76.3864
78.6575
79.6166
79.2588
78.6087
78.948
80.4414
82.5751
84.9951
86.9064
88.1197
88.6249
87.764
85.3134
77.3027
67.3714
52.3027
46.8178
36.3546
31.3458
38.0945
31.7455
48.5799
49.5429
68.3704
77.5158
82.6629
83.2064
82.0488
79.9346
77.5135
75.4973
73.5042
72.6809
72.321
72.7493
72.6871
72.9087
74.1307
76.4241
78.572
80.6335
81.6111
82.0501
81.9616
81.426
81.179
80.183
80.4204
78.8257
78.6669
76.5254
76.8337
73.6422
72.378
69.047
66.8082
62.7455
58.7001
54.8897
47.7907
41.1947
58.2937
57.3455
56.0577
54.9622
55.2426
56.296
57.2341
58.5933
59.3685
58.9335
58.2105
56.5789
54.1026
52.3213
51.363
50.4422
50.3148
51.3846
52.7571
54.4844
56.8293
59.1776
61.0854
61.5947
58.049
49.5823
39.2952
29.4357
22.2505
19.9606
20.1253
21.3071
26.0645
35.4718
48.1012
59.8598
68.485
74.7446
78.3159
80.4844
80.9568
80.0002
78.68
78.3713
79.6183
81.6588
84.0751
86.2679
87.554
87.972
86.9284
84.6463
78.5437
70.9315
55.1157
49.7547
38.4041
34.9219
37.8404
31.6754
50.9307
47.9189
72.4195
80.0415
85.2172
86.0375
84.5625
82.2202
79.3926
77.1594
74.8828
73.9397
73.3686
73.5875
73.3498
73.4753
74.5359
76.8206
78.8466
80.7231
81.5477
81.8228
81.5667
80.9621
80.4375
79.5359
79.308
77.8523
77.2195
75.5286
75.0077
72.3348
70.5365
68.3407
65.3728
62.8277
58.6058
56.1217
48.0831
41.8828
58.61
57.7206
56.4609
55.3434
55.4826
56.3616
57.0124
58.1523
58.8873
58.4705
57.9359
56.8228
54.8796
53.4595
52.9428
52.3852
52.2739
53.2855
54.7591
56.5591
58.904
61.352
63.3951
63.6662
59.6481
50.5096
39.3986
28.9204
21.362
18.6928
18.8093
20.3314
25.3965
35.2817
48.3879
60.6018
69.9031
76.3798
79.9984
82.049
82.1214
80.6224
78.6386
77.7499
78.7714
80.6896
83.1323
85.6855
87.0614
87.4944
86.1503
84.2002
80.2156
74.2755
57.7837
53.0427
41.0444
40.0088
37.9066
33.0203
53.0061
46.5886
77.2343
82.2374
88.0446
89.2515
87.3558
84.7434
81.4386
78.9625
76.3741
75.2583
74.4574
74.4573
74.0064
74.1079
74.9701
77.1753
79.0747
80.7978
81.5759
81.6813
81.3266
80.6911
79.9807
79.1264
78.4722
77.23
76.1787
74.842
73.6287
71.6669
69.7353
68.3411
65.0137
63.7353
59.0954
57.2713
48.8803
43.1377
58.842
58.025
56.8041
55.7424
55.7451
56.419
56.8889
57.7673
58.4111
58.099
57.7042
57.0114
55.5952
54.5635
54.3708
54.1177
54.0924
55.0287
56.5472
58.3774
60.6028
63.0978
65.2626
65.3886
61.0578
51.515
39.8865
29.0034
21.2005
18.1232
18.0295
19.9002
25.3255
35.6229
48.9613
61.395
71.1239
77.6877
81.3878
83.3142
83.0849
81.1082
78.5115
77.1416
77.9386
79.6922
82.2349
85.3225
86.7919
86.922
85.6627
84.486
82.4754
77.6042
62.0655
57.2576
44.1983
45.5518
39.2483
36.6144
54.3248
46.3049
82.36
84.0725
91.2233
92.8725
90.3637
87.4201
83.6123
80.8469
77.927
76.6453
75.6097
75.3069
74.6021
74.7306
75.3845
77.4804
79.2537
80.9923
81.6457
81.6511
81.29
80.6631
79.8465
79.0353
78.0954
77.074
75.7762
74.728
73.0755
71.925
69.7406
69.1425
65.4659
65.0549
59.9634
58.0979
50.033
44.1532
58.9846
58.2543
57.1017
56.1672
56.0563
56.4719
56.8241
57.4617
57.9345
57.7575
57.5351
57.1505
56.2793
55.6734
55.6181
55.5875
55.7724
56.6179
58.0249
59.7754
61.7932
64.2207
66.4505
66.5265
62.1226
52.5719
40.767
29.6892
21.6927
18.1854
17.9618
20.0323
25.8017
36.4056
49.7399
62.1962
72.1162
78.6541
82.4377
84.2425
83.8352
81.4459
78.3406
76.61
77.1714
78.8311
81.6523
85.3008
86.7618
86.5525
85.5851
85.349
85.0148
80.9553
67.3951
61.7284
47.9085
50.1442
42.0782
42.7907
55.6432
48.5427
86.8569
85.9147
94.9397
96.7937
93.4574
90.1632
85.8287
82.7517
79.5172
78.052
76.7408
76.1893
75.2158
75.2644
75.6714
77.6299
79.3358
80.9752
81.6743
81.7348
81.3939
80.9773
80.0077
79.4589
78.1557
77.5901
75.9103
75.3961
73.2581
73.0202
70.3173
70.456
66.3569
66.3582
60.8626
58.5643
51.0345
44.8398
59.0126
58.4089
57.3908
56.6062
56.393
56.52
56.797
57.2351
57.4825
57.4667
57.4199
57.195
56.8913
56.6435
56.6833
56.8795
57.182
57.8919
59.1529
60.7077
62.4215
64.687
66.8992
66.9201
62.6852
53.6227
42.0272
30.9329
22.8281
18.8881
18.4112
20.7113
26.7755
37.5296
50.7054
63.027
72.866
79.2718
83.101
84.8148
84.3543
81.6373
78.1966
76.2648
76.5325
78.2241
81.5045
85.5924
87.0102
86.537
85.9271
86.3617
86.9928
83.5513
71.7229
65.4724
52.6229
54.0457
45.7202
50.2966
57.3634
54.2297
90.2235
88.5659
98.9391
100.71
96.4835
92.8547
88.02
84.6446
81.0883
79.41
77.8467
77.1327
75.8232
75.6618
75.7537
77.5525
79.2527
80.873
81.7452
82.01
81.5964
81.5587
80.3812
80.3503
78.5388
78.6761
76.4589
76.7054
73.9492
74.5344
71.2194
71.7688
67.3747
67.3136
61.6231
58.72
51.8203
45.4241
58.946
58.4952
57.6745
57.0184
56.7052
56.6002
56.8012
57.0573
57.1366
57.2592
57.3368
57.3414
57.4081
57.4482
57.5666
57.8643
58.2266
58.8507
59.9055
61.1182
62.5274
64.6511
66.741
66.5763
62.7278
54.5898
43.6168
32.6719
24.5203
20.19
19.4529
21.888
28.1898
38.9532
51.8345
63.8312
73.353
79.5831
83.3853
85.0391
84.5988
81.7188
78.2045
76.177
76.1989
78.1102
81.9104
86.255
87.594
86.9255
86.6012
87.3722
88.1346
85.0647
74.676
68.9104
58.2532
57.6105
49.4385
57.7927
60.3151
63.1094
92.158
93.0975
102.915
104.38
99.3548
95.3846
90.1164
86.4217
82.6131
80.7086
78.9356
78.0741
76.4016
75.9187
75.643
77.3064
78.96
80.654
81.7982
82.4019
81.8906
82.3208
80.8933
81.4961
79.1367
80.0053
77.2675
78.2098
74.885
76.0162
72.2039
72.7663
68.2669
67.8291
62.1913
58.7027
52.4097
46.0278
58.803
58.5176
57.929
57.3502
56.9608
56.6994
56.7991
56.9324
56.9136
57.1084
57.305
57.4319
57.7656
58.0275
58.2126
58.5392
58.928
59.4407
60.2359
61.1742
62.3834
64.2575
65.8084
65.6635
62.3482
55.44
45.3975
34.8888
26.6785
21.9799
20.9828
23.5022
29.9938
40.5828
52.9833
64.5509
73.6271
79.6524
83.3417
84.9534
84.5391
81.7497
78.4532
76.3928
76.2212
78.6072
82.998
87.3063
88.4145
87.6612
87.4697
88.3366
88.9038
85.8117
77.6385
72.1228
62.8308
61.0335
53.1558
62.3741
63.0812
73.9461
93.3465
100.007
106.591
107.612
102.053
97.6417
92.0618
87.9538
84.0259
81.9163
80.034
78.974
76.9667
76.0097
75.3451
76.5145
78.5774
80.5446
81.8064
82.8598
82.1974
83.1099
81.4321
82.6607
79.8331
81.3008
78.1525
79.6133
75.8199
77.2205
73.0906
73.4084
68.9677
67.9663
62.6198
58.6641
52.8627
46.648
58.8413
58.6076
58.1091
57.5571
57.1266
56.7907
56.8006
56.8532
56.8029
57.0271
57.2888
57.527
58.0054
58.3764
58.5959
58.9266
59.2882
59.7123
60.329
61.0861
62.2364
63.9167
65.0358
64.5193
61.6959
56.1169
47.3172
37.4037
29.1564
24.1102
22.8448
25.3995
31.9553
42.2513
54.1291
65.1538
73.776
79.5874
83.08
84.6014
84.239
81.8062
78.8794
76.8263
76.6589
79.6955
84.4452
88.3892
88.9909
88.3111
88.2342
88.9666
89.2361
86.5213
79.8577
74.8055
66.0034
63.7932
56.5708
65.7303
65.2934
85.0308
95.7596
107.418
108.825
110.066
104.541
99.517
93.771
89.1745
85.233
82.981
81.1437
79.7828
77.3818
76.0414
75.0854
76.4457
78.2966
80.7099
81.7806
83.3919
82.488
83.8945
81.9007
83.6701
80.548
82.4126
78.9517
80.7637
76.6196
78.0901
73.8116
73.7042
69.4575
67.9054
62.9455
58.6763
53.1924
47.2401
58.919
58.6906
58.2078
57.663
57.2243
56.8662
56.8116
56.8222
56.7711
56.9942
57.2924
57.5955
58.1079
58.5336
58.7752
59.0749
59.4166
59.7958
60.3365
61.0685
62.2429
63.7479
64.4168
63.39
61.0116
56.589
49.1153
39.9259
31.6731
26.3126
24.7826
27.2926
33.8384
43.8095
55.1552
65.6517
73.8983
79.4803
82.7404
84.1572
83.8731
81.8693
79.3693
77.4756
77.6254
81.2438
85.769
89.115
89.1963
88.664
88.6674
89.1268
89.0754
86.7607
81.3208
76.5618
68.0144
65.7885
59.131
69.9192
67.6913
94.1766
97.8233
113.058
110.118
111.615
106.573
100.91
95.0352
90.047
86.1964
83.8934
82.0235
80.367
77.6211
76.1763
74.9396
76.7193
78.1256
81.1383
81.7582
83.8952
82.7068
84.6012
82.3033
84.427
81.1693
83.2825
79.5663
81.6215
77.2756
78.6369
74.3333
73.809
69.7759
67.7994
63.1609
58.7287
53.4066
47.7585
58.9909
58.7487
58.2493
57.7131
57.2766
56.923
56.8288
56.8115
56.7786
56.9921
57.299
57.6377
58.1296
58.5528
58.8291
59.1289
59.4522
59.8207
60.3575
61.1343
62.3526
63.7427
64.157
62.9774
60.6141
56.7832
50.3519
41.9682
33.8328
28.28
26.5349
29.0418
35.4337
45.0837
55.9727
66.0425
73.995
79.4374
82.4943
83.8268
83.6019
81.8957
79.7419
78.0898
78.6406
82.5219
86.6227
89.4165
89.1702
88.7642
88.8664
89.0825
88.6403
86.4825
82.037
77.5684
69.0024
66.9731
60.4518
72.8105
70.0393
100.067
98.8948
117.041
111.494
112.382
107.788
101.781
95.7476
90.5441
86.6475
84.4391
82.4897
80.6529
77.7312
76.4165
74.9117
77.1475
78.0297
81.5066
81.7112
84.2391
82.8138
85.0547
82.553
84.8785
81.5502
83.822
79.9749
82.101
77.747
78.9026
74.6969
73.8398
70.0607
67.6577
63.2827
58.7749
53.5228
48.1321
59.128
58.7841
58.2613
57.7324
57.2944
56.9507
56.837
56.8067
56.7959
57.0033
57.3039
57.6482
58.13
58.5393
58.8207
59.1185
59.459
59.8633
60.4092
61.2162
62.4697
63.8393
64.1942
62.892
60.2988
56.6388
50.879
43.0508
35.0632
29.4672
27.59
29.9854
36.3862
45.8278
56.4401
66.2626
74.0518
79.4326
82.3455
83.6576
83.4382
81.8742
79.9045
78.3911
79.0686
82.9047
86.8273
89.3962
89.0791
88.737
88.8418
88.9659
88.3717
86.398
82.3573
78.0739
69.63
67.541
61.3592
74.1729
71.3819
102.74
99.7883
118.295
111.599
112.507
108.068
102.058
96.0393
90.7994
86.7424
84.3723
82.4207
80.6581
77.8623
76.5924
75.0226
77.3815
77.9688
81.6599
81.5976
84.3723
82.7681
85.215
82.5534
85.0524
81.5912
84.0315
80.051
82.2643
77.863
78.9909
74.7717
73.8328
70.0983
67.5374
63.2895
58.7647
53.5393
48.0759
57.374
57.9137
56.9824
53.2021
52.4277
52.6864
53.0006
53.0252
52.1317
50.6069
49.002
47.6372
46.5028
44.5902
41.9468
39.0619
36.7235
35.1404
34.2258
35.3048
39.6995
47.013
56.5758
68.1875
78.9948
84.2067
83.2106
80.8523
78.5131
77.5908
77.8825
76.2392
72.9473
68.1373
60.9798
54.0078
49.9476
49.6819
51.5311
56.4518
67.2218
74.7545
82.4019
88.0197
91.3726
93.0814
93.7303
93.8709
93.9948
94.3605
94.8925
95.5425
96.2403
96.6094
96.3212
95.6002
94.8483
94.2763
93.7012
92.6922
91.2233
89.6046
88.1666
86.9068
85.6514
84.2457
82.6897
80.753
79.0917
77.5306
76.4466
75.8742
76.0334
76.697
77.9177
79.4244
81.0631
82.6784
84.1676
85.4667
86.5515
87.4251
88.1108
88.6346
89.0225
89.3071
89.5149
89.655
89.7366
89.7692
89.7618
89.7427
89.7686
89.8599
89.7344
89.6704
89.7458
89.254
89.559
90.7947
57.262
57.675
56.3329
52.6031
52.0683
52.6891
53.0589
52.9956
52.0505
50.5091
48.9279
47.671
46.7855
44.7026
41.7115
38.5843
36.0802
34.4107
33.4957
34.5622
39.0019
46.3733
55.8255
67.1429
77.7474
83.1552
82.8851
80.7715
78.4517
77.5953
78.0736
76.8555
73.0103
67.5458
60.2216
52.9866
48.8465
48.7887
50.8402
55.7209
66.2759
74.4112
81.9851
87.8375
91.3236
93.0937
93.7595
93.8757
93.9831
94.3776
94.9221
95.5245
96.2338
96.6679
96.5198
95.6961
94.8156
94.2455
93.73
92.7664
91.2442
89.5731
88.1346
86.9011
85.6667
84.255
82.6465
80.7694
79.0486
77.4527
76.3548
75.7648
75.9152
76.6055
77.8622
79.3896
81.0497
82.6818
84.1836
85.4899
86.5775
87.4489
88.1372
88.658
89.0442
89.3269
89.5303
89.6672
89.7447
89.7737
89.7633
89.7353
89.7501
89.8241
89.7049
89.649
89.6168
88.9813
89.294
90.4652
57.0845
57.235
55.1025
51.4257
51.535
52.8373
53.3835
53.1168
52.0057
50.4102
48.7958
47.5028
46.7637
44.3537
40.9841
37.608
34.8776
32.957
31.988
32.9898
37.3846
44.724
53.9852
64.7432
75.1669
81.1335
82.1196
80.3369
78.2037
77.6598
78.262
76.683
72.3687
66.1822
58.6318
51.1828
46.8958
46.9242
49.5665
54.3354
64.5192
73.4843
81.0483
87.1677
90.9998
92.9596
93.6929
93.8345
93.9482
94.3269
94.9503
95.6432
96.323
96.6417
96.3424
95.5749
94.7802
94.2547
93.7673
92.8029
91.2165
89.4829
88.0612
86.8799
85.6794
84.2587
82.6054
80.7316
78.9463
77.3201
76.1899
75.5658
75.7763
76.4534
77.7691
79.3285
81.0254
82.6897
84.2125
85.5296
86.6189
87.4935
88.174
88.6901
89.0697
89.3468
89.5442
89.6787
89.7582
89.7903
89.7665
89.7054
89.6974
89.7821
89.7297
89.7273
89.4287
88.5606
88.7929
89.9924
56.846
56.6842
53.74
50.1726
50.9852
53.0114
53.8515
53.3733
52.0902
50.454
48.8623
47.5691
46.1825
43.4156
39.7381
36.2663
33.304
30.8722
29.6889
30.6472
34.9922
42.2093
51.1778
61.2048
71.6018
78.6071
80.8614
79.6391
77.7504
77.3578
78.2649
76.0761
71.1442
64.3885
56.6303
48.9832
44.6614
44.9125
47.742
52.7846
62.687
72.2388
79.8083
86.1082
90.371
92.6832
93.5467
93.6926
93.8238
94.2915
94.9906
95.7276
96.3763
96.5404
96.0672
95.3015
94.5284
94.0053
93.6202
92.7251
91.1004
89.3273
87.9554
86.8506
85.6856
84.2537
82.5498
80.6507
78.7927
77.1148
75.9408
75.2773
75.5339
76.2054
77.6004
79.2072
80.96
82.6712
84.2281
85.5634
86.659
87.531
88.2043
88.7121
89.0868
89.3591
89.5558
89.6875
89.7666
89.7921
89.7651
89.6859
89.6514
89.7643
89.852
89.9039
89.2277
88.1048
88.21
89.4557
56.5603
56.0612
52.4728
48.9965
50.547
53.1851
54.3344
53.6914
52.3321
50.7392
49.1895
47.4187
45.0706
41.7008
37.8766
34.6416
31.6254
28.5614
26.9269
27.934
32.3252
39.351
47.9174
57.2322
67.7732
75.8652
79.6929
79.5218
78.0265
77.8891
78.3277
75.593
69.9346
62.6512
54.562
46.5456
41.9572
42.1848
45.3583
51.0677
60.3778
70.8857
78.5577
84.8489
89.5411
92.2713
93.3302
93.5088
93.6814
94.2028
94.9765
95.7569
96.3675
96.4058
95.6944
94.8198
93.9796
93.4595
93.1708
92.4155
90.8588
89.1182
87.8374
86.8184
85.6809
84.2191
82.4529
80.4967
78.5538
76.7985
75.5756
74.8642
75.1738
75.8275
77.3337
79.0004
80.8327
82.6087
84.2115
85.5728
86.6768
87.5461
88.2094
88.7086
89.0724
89.3419
89.5337
89.669
89.7487
89.781
89.7512
89.674
89.6267
89.7775
89.978
90.1327
89.0693
87.6797
87.7551
88.9879
56.275
55.5221
51.4759
48.0944
50.2659
53.3583
54.7694
54.0191
52.7491
51.3174
49.4777
46.8401
43.1628
39.2777
35.5704
32.7889
29.9261
26.4596
24.4202
25.5562
30.016
36.818
45.0677
53.891
64.456
73.4838
79.2651
80.6995
79.6386
79.5339
79.03
75.4331
68.9971
61.0272
52.368
43.7699
38.6367
38.6613
42.4021
48.3742
57.4637
69.3627
77.2895
83.461
88.5452
91.837
93.1191
93.299
93.4842
94.1076
94.9959
95.8059
96.2832
96.1053
95.1361
93.9661
93.0833
92.5372
92.3353
91.8347
90.4636
88.8472
87.7059
86.777
85.6465
84.1351
82.2877
80.2544
78.2107
76.3653
75.0903
74.3293
74.6982
75.3308
76.9697
78.7073
80.641
82.4967
84.1615
85.5577
86.6772
87.5429
88.1928
88.6739
89.0255
89.2804
89.4691
89.6005
89.689
89.7271
89.7208
89.6603
89.6439
89.7993
90.0879
90.3276
89.0053
87.4496
87.5493
88.7315
56.0854
55.192
50.6999
47.4725
50.1653
53.5732
55.1242
54.3568
53.346
52.086
49.7205
45.7206
40.8234
36.8254
33.4859
30.995
28.246
24.6631
22.3625
23.4859
27.9396
34.6531
42.5228
51.1975
61.5771
71.8367
79.4163
82.9565
82.698
82.3123
80.4022
75.6728
68.2506
59.3668
50.0786
40.9986
35.4598
35.2402
39.105
45.2676
54.4636
67.2987
76.2155
82.0547
87.224
91.3756
92.9332
93.1185
93.2351
93.8705
94.8944
95.7715
96.0534
95.46
94.2973
92.8159
91.7264
91.1888
91.115
90.8962
89.8612
88.5267
87.5521
86.6987
85.5493
83.9531
82.0152
79.9119
77.7698
75.8139
74.4856
73.6604
74.0996
74.7106
76.5027
78.3262
80.3848
82.3358
84.0758
85.5198
86.6592
87.5274
88.1639
88.6278
88.9508
89.1877
89.3587
89.4866
89.5688
89.6223
89.6361
89.6313
89.6437
89.8228
90.1307
90.4076
89.0307
87.4308
87.5864
88.7041
56.0546
55.1088
50.1152
47.17
50.2437
53.8742
55.407
54.7503
54.1281
53.0041
49.8979
44.2335
38.5051
34.6805
31.8365
29.4795
26.7207
23.0222
20.5559
21.4427
26.0601
32.8904
40.3204
48.7956
59.088
70.568
79.9742
85.8743
86.6952
85.7461
82.288
76.2302
67.6875
57.8414
47.9591
38.5943
32.7318
32.2098
36.0367
42.4997
51.5233
64.9588
75.0762
80.7884
85.8592
90.7366
92.7208
92.9364
92.9858
93.5848
94.7459
95.6023
95.6182
94.4412
92.9965
91.2706
89.8561
89.3252
89.4354
89.5653
89.022
88.0554
87.2851
86.5172
85.3679
83.704
81.6867
79.5029
77.2298
75.1277
73.7361
72.8385
73.331
73.962
75.9052
77.8359
80.05
82.1155
83.9538
85.4561
86.6249
87.4965
88.1218
88.5752
88.8651
89.0783
89.2245
89.3337
89.4056
89.4582
89.5024
89.5278
89.6075
89.7875
90.1227
90.3586
89.1058
87.5703
87.8091
88.8852
56.1928
55.1789
49.825
47.3294
50.5237
54.2516
55.6252
55.1349
54.9897
53.986
50.1281
42.7349
36.4895
32.9807
30.5785
28.2936
25.5026
21.6496
19.0522
19.782
24.6039
31.646
38.9063
46.9041
57.2926
69.5431
80.7723
88.8957
90.8813
89.153
84.4439
77.0349
67.3184
56.4874
46.0971
36.6443
30.5678
29.7238
33.4488
39.9336
48.848
62.7257
73.7276
79.8717
84.777
89.7298
92.5452
92.5886
92.6658
93.3288
94.645
95.3927
94.9274
92.9528
91.0802
89.2386
87.4822
86.8577
87.2587
87.8364
87.8221
87.3946
86.9359
86.2665
85.0938
83.3715
81.2672
78.9698
76.5572
74.2807
72.847
71.8357
72.4304
73.0963
75.1741
77.2222
79.6231
81.8238
83.793
85.3679
86.5757
87.4559
88.0692
88.4801
88.7741
88.9567
89.0789
89.1583
89.2165
89.2538
89.305
89.3542
89.4658
89.6901
89.9874
90.184
89.1603
87.8264
88.1907
89.2352
56.4777
55.3522
49.9578
47.8599
51.0121
54.7018
55.8275
55.7784
55.9411
54.8629
50.389
41.6273
35.0333
31.8488
29.7383
27.4671
24.6128
20.6284
17.865
18.3947
23.4767
30.79
38.0578
45.6942
56.2106
68.961
81.6258
91.611
94.5876
92.2168
86.5056
77.8888
67.0237
55.3702
44.6816
35.2858
29.0751
27.8768
31.3988
37.9105
46.9513
60.7419
72.5394
79.126
83.8717
88.5736
92.203
92.0735
92.1213
92.821
94.4081
95.0418
93.8469
90.9023
88.4438
86.5469
84.5312
83.8342
84.5947
85.6588
86.2564
86.4951
86.4348
85.8842
84.6752
82.8728
80.7078
78.32
75.7903
73.2904
71.8273
70.7259
71.4004
72.1427
74.3262
76.509
79.1179
81.469
83.601
85.2592
86.5213
87.4097
88.0181
88.4145
88.6699
88.8316
88.9203
88.9751
88.9988
89.0245
89.058
89.1145
89.235
89.4536
89.7393
89.9119
89.2034
88.1202
88.6094
89.7133
56.8282
55.5968
50.5301
48.7625
51.6459
55.1125
56.1411
56.6173
57.0875
55.7971
50.5351
40.7774
34.0028
31.1231
29.1956
26.9485
23.9929
19.9135
16.8656
17.1738
22.6064
30.3502
37.5973
44.9144
55.4249
68.5595
82.2547
93.5332
97.3178
94.6848
88.0791
78.5787
66.7748
54.5793
43.8144
34.5407
28.2189
26.5075
29.8844
36.682
45.5762
59.0508
71.4484
78.5343
83.1574
87.6034
91.3748
91.4094
91.377
92.059
93.7705
94.2325
92.2739
88.4254
85.2942
83.1411
80.9184
80.2245
81.4134
82.9981
84.2594
85.2487
85.6868
85.2965
84.0877
82.3042
80.1191
77.5848
74.8984
72.1588
70.7242
69.548
70.2837
71.1245
73.3795
75.7254
78.5312
81.0513
83.3617
85.1244
86.4522
87.3506
87.9568
88.3289
88.567
88.689
88.7559
88.7731
88.781
88.772
88.7866
88.8084
88.9232
89.1206
89.3444
89.5547
89.1498
88.476
89.1082
90.316
57.1103
55.8149
51.409
50.0698
52.3808
55.3735
56.6501
57.6571
58.5113
57.0369
50.8601
40.131
33.2306
30.6956
28.8485
26.6464
23.6107
19.537
16.2256
16.2176
21.773
30.1869
37.6405
44.5921
54.8751
68.0112
82.34
94.2594
98.7805
96.1199
88.952
78.9383
66.4991
53.9823
43.3169
34.3318
28.0747
26.0014
29.054
35.9016
44.852
57.9376
70.4163
78.1234
82.698
86.8862
90.3281
90.6725
90.6684
91.2276
92.7453
92.8646
90.2072
85.6858
81.9662
79.3211
76.7354
76.0715
77.705
79.8509
81.843
83.6125
84.6462
84.5451
83.4294
81.6861
79.4177
76.6558
73.9435
71.0006
69.6255
68.37
69.122
70.0822
72.3635
74.8841
77.8657
80.5634
83.0676
84.9434
86.3437
87.2675
87.8675
88.2269
88.4431
88.5406
88.5819
88.5761
88.5493
88.5124
88.4725
88.4862
88.5224
88.691
88.8661
89.1181
89.0223
88.7032
89.6212
90.6969
57.217
55.8962
52.1732
51.232
53.0888
55.5234
57.3266
58.8686
60.1589
58.6344
51.6844
40.1237
32.9956
30.6516
28.7549
26.556
23.4945
19.5629
16.112
15.6075
21.197
30.1256
37.8367
44.5045
54.539
67.2978
81.7285
93.7856
98.856
96.3644
89.0338
78.8006
66.037
53.4642
43.1093
34.6047
28.6735
26.5302
29.0654
35.8577
44.7023
57.402
69.7544
77.8173
82.4849
86.4596
89.49
90.0431
90.1113
90.3899
91.4679
91.1964
87.855
82.7492
78.5752
75.3979
72.4111
71.5941
73.6218
76.3681
78.986
81.5691
83.3919
83.6563
82.619
80.8531
78.5716
75.6952
73.0482
69.8648
68.5403
67.2761
68.0095
69.0863
71.3533
74.0237
77.1523
80.0286
82.7476
84.7302
86.2101
87.1625
87.7669
88.1164
88.3125
88.3906
88.403
88.3706
88.303
88.233
88.1461
88.1092
88.1077
88.175
88.3299
88.577
88.7093
88.8152
89.6507
90.9932
57.09
55.7811
52.5896
51.9637
53.5503
55.5956
58.1122
60.194
61.9121
60.4329
52.8392
40.811
33.3535
30.8166
28.8865
26.6939
23.6627
19.9939
16.6665
16.0256
21.4975
30.6829
38.378
44.4304
54.2298
66.6037
80.3936
92.3459
97.6548
95.4379
88.2628
78.0772
65.3047
52.9856
43.2201
35.3567
29.9998
27.6843
29.6905
36.4559
45.1382
57.303
69.3986
77.664
82.4729
86.3394
89.0725
89.7451
89.6788
89.3917
89.9181
89.4393
85.5077
79.703
75.2123
71.521
68.1472
67.0235
69.341
72.5273
75.7176
79.2471
81.8369
82.5118
81.6253
79.9203
77.7692
74.732
72.1414
68.8155
67.5962
66.3593
67.0548
68.1768
70.4029
73.1912
76.4212
79.4568
82.3916
84.4869
86.0652
87.0511
87.6533
88.0081
88.1736
88.2337
88.2101
88.1507
88.0447
87.9296
87.8045
87.7206
87.643
87.6644
87.72
87.9679
88.2209
88.6067
89.6411
90.9312
56.7423
55.3706
52.5554
51.9996
53.8852
55.8192
58.8749
61.4984
63.6614
62.213
54.1932
41.9869
34.0692
31.1616
29.1753
26.999
24.1134
20.8268
17.7788
17.2974
22.5087
31.4726
39.1951
44.5887
53.7791
65.8604
78.4679
90.059
95.4323
93.4041
86.5971
76.7406
64.2552
52.5235
43.6542
36.5192
31.7494
29.4578
31.0632
37.6397
46.1238
57.6589
69.3566
77.625
82.515
86.3925
88.98
89.759
89.3189
88.2407
88.0339
87.525
83.2183
76.6409
71.9641
67.7835
63.2902
62.4721
64.9899
68.449
72.2086
76.6045
79.9548
81.1845
80.5852
78.9703
76.9339
73.7296
71.3136
68.015
66.8242
65.6401
66.2486
67.414
69.5512
72.4262
75.7019
78.8853
82.0075
84.1975
85.9119
86.9105
87.5405
87.8794
88.0207
88.0567
88.0059
87.911
87.772
87.6258
87.4558
87.3168
87.1456
87.0803
87.0795
87.2151
87.5711
88.0886
88.9977