/*--------------------------------*- C++ -*----------------------------------*\
| =========                 |                                                 |
| \\      /  F ield         | OpenFOAM: The Open Source CFD Toolbox           |
|  \\    /   O peration     | Version:  2.4.0                                 |
|   \\  /    A nd           | Web:      www.OpenFOAM.org                      |
|    \\/     M anipulation  |                                                 |
\*---------------------------------------------------------------------------*/
FoamFile
{
    version     2.0;
    format      ascii;
    class       volScalarField;
    location    "0.235";
    object      nuSgs;
}
// * * * * * * * * * * * * * * * * * * * * * * * * * * * * * * * * * * * * * //

dimensions      [0 2 -1 0 0 0 0];

internalField   nonuniform List<scalar> 
17600
(
0.00101243
0.000904781
0.000751492
0.000660494
0.000605295
0.000573609
0.000542642
0.000524942
0.000505799
0.000493431
0.000484794
0.000472115
0.000468208
0.000460054
0.000456263
0.000450102
0.00045564
0.000451645
0.000495913
0.000451842
0.000704914
0.000828435
0.000802462
0.000747923
0.000695942
0.000661943
0.000627553
0.000606678
0.000586295
0.000568945
0.000560436
0.000543806
0.000539159
0.000529818
0.000522414
0.000514789
0.000515025
0.000505721
0.0005154
0.000499196
0.000380744
0.000603639
0.000662911
0.000661766
0.000643376
0.000620913
0.000595285
0.000577011
0.000562231
0.000543785
0.000537658
0.000522672
0.000517267
0.000509969
0.000501256
0.000495321
0.000491513
0.000487022
0.000474683
0.000465083
0.000150824
0.000365569
0.00045759
0.000508864
0.000524987
0.000527522
0.000523506
0.000512939
0.000507736
0.000493476
0.000490009
0.000480635
0.000474308
0.000471066
0.000462847
0.000459421
0.000451776
0.000452496
0.000436148
0.000423724
5.34064e-05
0.000179352
0.000259639
0.000329045
0.000369342
0.00039622
0.000415039
0.000417796
0.000425343
0.000421421
0.000422124
0.000420747
0.000415802
0.000415691
0.000413143
0.000410541
0.000403627
0.000405588
0.000393821
0.000378409
1.73425e-05
7.72716e-05
0.000118402
0.000173877
0.000216124
0.000246712
0.000283572
0.000295543
0.000318794
0.000324122
0.000332394
0.000340813
0.000341154
0.000343565
0.00034853
0.000346882
0.000345232
0.000345514
0.000340584
0.000324394
5.49777e-06
3.00618e-05
4.81464e-05
7.19329e-05
0.000105969
0.000124462
0.000159012
0.000173586
0.000200943
0.000213878
0.00022446
0.0002429
0.000249262
0.000253996
0.000269384
0.00026986
0.000272385
0.000273168
0.000272174
0.000258599
2.25433e-06
1.1215e-05
1.79764e-05
2.64994e-05
4.20857e-05
5.23033e-05
7.24103e-05
8.32416e-05
0.000102715
0.000117728
0.000125477
0.00014255
0.000153824
0.000159073
0.000177587
0.000182893
0.000185959
0.000191327
0.000194038
0.000183292
1.73542e-06
4.90841e-06
6.9364e-06
9.55668e-06
1.49724e-05
1.91555e-05
2.78933e-05
3.32352e-05
4.21226e-05
5.29822e-05
5.76796e-05
6.74504e-05
7.72471e-05
8.11298e-05
9.47369e-05
0.000103864
0.000105209
0.000109492
0.000116054
0.000108846
1.71069e-06
3.40189e-06
3.83958e-06
4.40679e-06
6.23922e-06
7.46792e-06
1.07702e-05
1.26348e-05
1.51684e-05
2.02105e-05
2.20707e-05
2.58929e-05
3.16115e-05
3.294e-05
4.11442e-05
4.81813e-05
4.83173e-05
5.0694e-05
5.7541e-05
5.38466e-05
1.67339e-06
2.60776e-06
3.42284e-06
3.47476e-06
3.90772e-06
4.10954e-06
5.18329e-06
5.90731e-06
6.44726e-06
8.05382e-06
8.37547e-06
9.72675e-06
1.11837e-05
1.14465e-05
1.60637e-05
1.8474e-05
1.85405e-05
2.13246e-05
2.42394e-05
2.27938e-05
1.62245e-06
2.09997e-06
3.10117e-06
3.02348e-06
3.00055e-06
3.01134e-06
3.37203e-06
3.71662e-06
4.28327e-06
4.41979e-06
4.46336e-06
4.84905e-06
4.90845e-06
5.31378e-06
6.89887e-06
7.25268e-06
7.85461e-06
9.06894e-06
1.00433e-05
9.78111e-06
1.57489e-06
1.84883e-06
2.50385e-06
2.51069e-06
2.51162e-06
2.73217e-06
2.86934e-06
2.96561e-06
3.38609e-06
3.35043e-06
3.64155e-06
3.65089e-06
3.75063e-06
3.94399e-06
4.04232e-06
4.34599e-06
4.9432e-06
4.92523e-06
5.8474e-06
6.50682e-06
1.53959e-06
1.73001e-06
2.05159e-06
2.42659e-06
2.52662e-06
2.55675e-06
2.53693e-06
2.56702e-06
2.7885e-06
2.87146e-06
2.98254e-06
3.00045e-06
3.46808e-06
3.37245e-06
3.40163e-06
4.19082e-06
4.09191e-06
4.10563e-06
5.01816e-06
5.32341e-06
1.52583e-06
1.69561e-06
1.97268e-06
2.37896e-06
2.40044e-06
2.38663e-06
2.34322e-06
2.37904e-06
2.47378e-06
2.81163e-06
2.76451e-06
2.88135e-06
2.94232e-06
2.95143e-06
3.3246e-06
3.54333e-06
3.43578e-06
3.78217e-06
4.16199e-06
3.88809e-06
1.51952e-06
1.68686e-06
1.92601e-06
2.20288e-06
2.21176e-06
2.24427e-06
2.27611e-06
2.28668e-06
2.35197e-06
2.47568e-06
2.44696e-06
2.66341e-06
2.65111e-06
2.68502e-06
3.00438e-06
2.92e-06
2.90403e-06
3.1444e-06
3.19169e-06
3.22713e-06
1.51603e-06
1.67805e-06
1.88691e-06
2.09089e-06
2.11564e-06
2.15174e-06
2.19822e-06
2.18739e-06
2.28557e-06
2.30942e-06
2.37344e-06
2.37169e-06
2.37935e-06
2.4546e-06
2.51853e-06
2.52074e-06
2.71267e-06
2.67746e-06
2.69835e-06
3.06897e-06
1.5101e-06
1.67686e-06
1.85703e-06
2.03644e-06
2.06448e-06
2.07037e-06
2.08469e-06
2.09491e-06
2.17992e-06
2.22612e-06
2.2696e-06
2.28666e-06
2.35924e-06
2.34703e-06
2.35493e-06
2.54979e-06
2.54523e-06
2.51337e-06
2.53198e-06
2.97606e-06
1.50914e-06
1.66044e-06
1.85242e-06
1.99366e-06
2.03638e-06
2.04261e-06
2.05839e-06
2.05932e-06
2.07322e-06
2.16868e-06
2.1874e-06
2.19234e-06
2.22655e-06
2.20658e-06
2.20924e-06
2.3181e-06
2.29478e-06
2.28817e-06
2.39432e-06
2.65182e-06
1.50809e-06
1.6471e-06
1.86826e-06
1.97908e-06
2.00834e-06
2.03235e-06
2.06909e-06
2.05998e-06
2.06452e-06
2.1224e-06
2.14429e-06
2.17615e-06
2.18033e-06
2.17075e-06
2.17479e-06
2.19547e-06
2.20147e-06
2.22686e-06
2.34885e-06
2.51649e-06
1.5077e-06
1.63982e-06
1.90821e-06
1.9555e-06
1.97662e-06
2.07484e-06
2.11315e-06
2.09695e-06
2.07272e-06
2.09015e-06
2.11142e-06
2.17727e-06
2.20921e-06
2.21738e-06
2.21336e-06
2.23048e-06
2.24328e-06
2.30773e-06
2.29797e-06
2.59391e-06
1.50841e-06
1.63923e-06
1.94837e-06
1.96132e-06
2.00068e-06
2.11782e-06
2.12522e-06
2.09024e-06
2.08907e-06
2.1302e-06
2.16392e-06
2.26562e-06
2.264e-06
2.25278e-06
2.30532e-06
2.31381e-06
2.34717e-06
2.35381e-06
2.37441e-06
2.8136e-06
1.50917e-06
1.67691e-06
1.93361e-06
1.94886e-06
2.08265e-06
2.14443e-06
2.12534e-06
2.11809e-06
2.16843e-06
2.21426e-06
2.25435e-06
2.28657e-06
2.28027e-06
2.29659e-06
2.37551e-06
2.39529e-06
2.39217e-06
2.41918e-06
2.44075e-06
2.56773e-06
1.51673e-06
1.71419e-06
1.86098e-06
2.02804e-06
2.19972e-06
2.19283e-06
2.18934e-06
2.23949e-06
2.25458e-06
2.26888e-06
2.3266e-06
2.33336e-06
2.34198e-06
2.42238e-06
2.4445e-06
2.43376e-06
2.45074e-06
2.46441e-06
2.48456e-06
2.59022e-06
1.52253e-06
1.70547e-06
1.88563e-06
2.23313e-06
2.27491e-06
2.26043e-06
2.28971e-06
2.33689e-06
2.32334e-06
2.41288e-06
2.44486e-06
2.46763e-06
2.54273e-06
2.56017e-06
2.55686e-06
2.57636e-06
2.62068e-06
2.63908e-06
2.6548e-06
2.74753e-06
1.5347e-06
1.7105e-06
2.10458e-06
2.33575e-06
2.3056e-06
2.30679e-06
2.40601e-06
2.4267e-06
2.45497e-06
2.59004e-06
2.57561e-06
2.61176e-06
2.64305e-06
2.66903e-06
2.78348e-06
2.89929e-06
2.90131e-06
2.89799e-06
2.89753e-06
3.06707e-06
1.5472e-06
1.75264e-06
2.26573e-06
2.31792e-06
2.31174e-06
2.44447e-06
2.58303e-06
2.59066e-06
2.65624e-06
2.67388e-06
2.67177e-06
2.74761e-06
2.85116e-06
3.09545e-06
3.32427e-06
3.3069e-06
3.26154e-06
3.27114e-06
3.33892e-06
3.94748e-06
1.55266e-06
1.80797e-06
2.27234e-06
2.30677e-06
2.52466e-06
2.73836e-06
2.75316e-06
2.76732e-06
2.78194e-06
2.82186e-06
2.92642e-06
3.40685e-06
3.65757e-06
3.9683e-06
3.99355e-06
3.95069e-06
4.0736e-06
4.4719e-06
5.23829e-06
7.25354e-06
1.5936e-06
1.84022e-06
2.37642e-06
2.53927e-06
2.94358e-06
2.96726e-06
3.03336e-06
3.06929e-06
3.21029e-06
3.73032e-06
4.16805e-06
5.22195e-06
5.51056e-06
6.19016e-06
6.51288e-06
6.98862e-06
8.1696e-06
1.07054e-05
1.32328e-05
1.92331e-05
1.60931e-06
1.92369e-06
2.75409e-06
3.14185e-06
3.43271e-06
3.5754e-06
4.25344e-06
4.69407e-06
5.72058e-06
7.67318e-06
8.59992e-06
1.10355e-05
1.19552e-05
1.45659e-05
1.62766e-05
1.88172e-05
2.25457e-05
2.96091e-05
3.4551e-05
4.71211e-05
1.63911e-06
2.30706e-06
3.89118e-06
4.80514e-06
5.43403e-06
6.59826e-06
9.87557e-06
1.1741e-05
1.51583e-05
2.04088e-05
2.27993e-05
2.89763e-05
3.17374e-05
3.88059e-05
4.29398e-05
4.99137e-05
5.66794e-05
6.97867e-05
7.7504e-05
9.91646e-05
1.76148e-06
4.00744e-06
7.63903e-06
1.06708e-05
1.33723e-05
1.80358e-05
2.83038e-05
3.34025e-05
4.17403e-05
5.36752e-05
5.88789e-05
7.14207e-05
7.70007e-05
8.97987e-05
9.64031e-05
0.000107659
0.00011735
0.000135562
0.000144911
0.000170018
2.35806e-06
9.8524e-06
1.90306e-05
2.89362e-05
3.7478e-05
5.0855e-05
7.44039e-05
8.38845e-05
0.000101086
0.000119236
0.000127638
0.000145988
0.000153573
0.00016929
0.000176989
0.000188918
0.000200963
0.000217444
0.00022549
0.000245061
5.58683e-06
2.64386e-05
5.13907e-05
7.56617e-05
9.6158e-05
0.000127076
0.00015995
0.00017348
0.000199727
0.000216629
0.000227119
0.000244179
0.000250443
0.000262531
0.00026856
0.000276538
0.000285895
0.000295741
0.000300607
0.000311815
1.74046e-05
6.93467e-05
0.00012855
0.000169784
0.000211895
0.000251083
0.000281507
0.000296363
0.000318721
0.000326524
0.00033406
0.000340718
0.00034369
0.00034768
0.000350205
0.000352333
0.00035727
0.000360375
0.00036271
0.000366265
5.35909e-05
0.000170374
0.000268862
0.000324429
0.000370375
0.000397654
0.000413808
0.000419071
0.000425172
0.000422998
0.000422853
0.000420395
0.000419087
0.00041621
0.000415327
0.000412965
0.000413318
0.00041219
0.000411234
0.000409557
0.000151417
0.000363038
0.000462498
0.000505415
0.000527618
0.000527005
0.000523161
0.000514051
0.000507001
0.000494648
0.00049048
0.000479839
0.000476284
0.000468558
0.000465602
0.000459153
0.000456903
0.000451188
0.000447282
0.000442546
0.000382182
0.00060231
0.000664894
0.000660902
0.000646052
0.00061736
0.000596991
0.000577135
0.000561317
0.000544486
0.000537582
0.000521744
0.000517253
0.000506268
0.000501816
0.000491987
0.000487196
0.000476399
0.000470362
0.00046001
0.000705542
0.000828113
0.000803586
0.000745772
0.000700188
0.000657637
0.000630364
0.000605567
0.000586147
0.000568004
0.000559852
0.000542014
0.000537252
0.00052372
0.000518108
0.000505322
0.000497698
0.000481624
0.000472997
0.000454485
0.00101301
0.000904875
0.00075248
0.000658069
0.000608741
0.000569949
0.000545212
0.000522809
0.000506509
0.000490766
0.00048362
0.000468427
0.000463712
0.000449803
0.000443303
0.00042887
0.00041814
0.000396931
0.000383126
0.000355511
0.000216682
0.000204308
0.000180773
0.000171383
0.00015889
0.000155541
0.000151155
0.000162974
0.00016916
0.000151616
0.000116352
0.000105035
0.000102342
8.53747e-05
8.45643e-05
8.68376e-05
8.04884e-05
8.01969e-05
8.92542e-05
9.60257e-05
9.46352e-05
9.44636e-05
9.40572e-05
8.9631e-05
8.29188e-05
7.84903e-05
7.80432e-05
7.9206e-05
7.8521e-05
7.60479e-05
6.76048e-05
4.51261e-05
3.07311e-05
2.17645e-05
1.65462e-05
1.26346e-05
1.06314e-05
9.71543e-06
8.77918e-06
8.52373e-06
8.67615e-06
9.03407e-06
1.01943e-05
1.3553e-05
2.10002e-05
3.57454e-05
5.54297e-05
6.42221e-05
6.6661e-05
6.64405e-05
6.42626e-05
5.78162e-05
5.21394e-05
4.82529e-05
4.47527e-05
4.30005e-05
4.30132e-05
4.37406e-05
4.61903e-05
5.11712e-05
5.31075e-05
5.29758e-05
5.08452e-05
4.54973e-05
4.22743e-05
3.97295e-05
3.66737e-05
3.22705e-05
2.72771e-05
2.31029e-05
2.0843e-05
2.0559e-05
2.16544e-05
2.37306e-05
2.69236e-05
3.53557e-05
4.17914e-05
4.50263e-05
4.66667e-05
4.74011e-05
4.7673e-05
4.78728e-05
4.88778e-05
5.11315e-05
5.15343e-05
5.13788e-05
4.82898e-05
4.5681e-05
4.49783e-05
4.15629e-05
3.64973e-05
3.29852e-05
2.99243e-05
2.81714e-05
2.76599e-05
2.68893e-05
2.66539e-05
2.7904e-05
3.24336e-05
4.35262e-05
5.79984e-05
6.26641e-05
6.98244e-05
7.36434e-05
7.18476e-05
5.7684e-05
4.03944e-05
3.12711e-05
2.82807e-05
2.7936e-05
2.80719e-05
2.80418e-05
2.76759e-05
2.75644e-05
2.80403e-05
2.82756e-05
2.75917e-05
2.67308e-05
2.6886e-05
2.91365e-05
3.12855e-05
3.19223e-05
3.18837e-05
3.20538e-05
3.18863e-05
3.07718e-05
3.06647e-05
3.13656e-05
3.60283e-05
4.36103e-05
4.58576e-05
4.54916e-05
4.47058e-05
4.4908e-05
4.59959e-05
5.17735e-05
5.6524e-05
5.68527e-05
5.33555e-05
4.26994e-05
3.74812e-05
3.69695e-05
3.86517e-05
3.90414e-05
3.6598e-05
3.26551e-05
3.11174e-05
3.097e-05
3.11141e-05
3.25867e-05
3.30011e-05
3.29049e-05
3.2919e-05
3.30507e-05
3.36013e-05
3.83997e-05
4.21016e-05
4.47661e-05
5.10744e-05
5.98729e-05
6.71167e-05
6.95723e-05
6.86072e-05
6.87333e-05
6.53902e-05
6.09121e-05
5.54931e-05
4.98309e-05
4.3238e-05
3.83381e-05
3.55692e-05
3.55446e-05
3.64043e-05
3.70003e-05
3.89022e-05
4.00782e-05
4.27392e-05
4.47809e-05
4.48002e-05
4.46848e-05
4.43594e-05
4.3877e-05
4.33275e-05
4.06526e-05
3.84653e-05
3.84092e-05
3.95005e-05
4.01059e-05
3.99886e-05
3.66883e-05
3.01807e-05
2.51597e-05
2.37847e-05
2.39002e-05
2.68551e-05
4.07689e-05
5.15299e-05
5.02423e-05
5.33861e-05
0.000187888
0.000241094
0.000214595
0.000185737
0.000171756
0.000159721
0.000152602
0.000152371
0.000151589
0.000170648
0.00016304
0.000127723
0.000109397
0.000107418
8.68023e-05
9.01409e-05
8.62508e-05
8.69662e-05
9.0748e-05
9.92027e-05
0.000100345
0.000100485
0.000100632
9.7583e-05
8.88575e-05
8.24657e-05
8.14777e-05
8.23818e-05
8.15063e-05
7.88893e-05
7.06885e-05
4.75876e-05
3.23145e-05
2.26242e-05
1.69626e-05
1.34397e-05
1.0886e-05
9.80921e-06
9.21123e-06
8.51946e-06
8.43495e-06
8.71152e-06
9.41537e-06
1.14741e-05
1.65934e-05
2.68554e-05
4.71239e-05
6.2526e-05
6.80297e-05
6.86552e-05
6.70344e-05
6.11555e-05
5.33608e-05
4.82288e-05
4.4985e-05
4.21778e-05
4.04644e-05
4.03174e-05
4.072e-05
4.21819e-05
4.77967e-05
5.18378e-05
5.25254e-05
5.15451e-05
4.71637e-05
4.41394e-05
4.14137e-05
3.82931e-05
3.37378e-05
2.85768e-05
2.45885e-05
2.26414e-05
2.25316e-05
2.37584e-05
2.56101e-05
2.86987e-05
3.75244e-05
4.31295e-05
4.5877e-05
4.71424e-05
4.75726e-05
4.78989e-05
4.75626e-05
4.79819e-05
4.92716e-05
5.01069e-05
5.01399e-05
4.79148e-05
4.60913e-05
4.54788e-05
4.20105e-05
3.73103e-05
3.47679e-05
3.15373e-05
2.8706e-05
2.74692e-05
2.64828e-05
2.65271e-05
2.83839e-05
3.34501e-05
4.47012e-05
5.83957e-05
6.3546e-05
7.18451e-05
7.52776e-05
7.23337e-05
5.52272e-05
3.85548e-05
3.09556e-05
2.90313e-05
2.89257e-05
2.89253e-05
2.8526e-05
2.76127e-05
2.7448e-05
2.77951e-05
2.79817e-05
2.72683e-05
2.62531e-05
2.62207e-05
2.80168e-05
3.08241e-05
3.16072e-05
3.1623e-05
3.18969e-05
3.18557e-05
3.05389e-05
2.99435e-05
3.02496e-05
3.30636e-05
4.18384e-05
4.53476e-05
4.53366e-05
4.46965e-05
4.48514e-05
4.56918e-05
5.04993e-05
5.54887e-05
5.62138e-05
5.40126e-05
4.4206e-05
3.80685e-05
3.70875e-05
3.843e-05
3.89079e-05
3.70583e-05
3.28389e-05
3.08205e-05
3.03753e-05
3.04097e-05
3.19598e-05
3.30891e-05
3.3002e-05
3.29356e-05
3.29108e-05
3.32495e-05
3.76047e-05
4.18175e-05
4.47868e-05
5.18698e-05
6.17167e-05
6.87279e-05
6.96713e-05
6.8601e-05
6.86567e-05
6.60922e-05
6.08169e-05
5.51705e-05
4.92803e-05
4.36272e-05
3.92756e-05
3.58062e-05
3.60593e-05
3.73306e-05
3.91029e-05
4.05486e-05
4.17008e-05
4.53943e-05
4.86173e-05
4.86129e-05
4.80677e-05
4.61934e-05
4.44356e-05
4.36113e-05
4.17795e-05
3.86247e-05
3.7502e-05
3.79659e-05
3.97848e-05
3.98647e-05
3.82595e-05
3.21816e-05
2.728e-05
2.41612e-05
2.39435e-05
2.55521e-05
3.64336e-05
4.99785e-05
4.95931e-05
5.58659e-05
0.000160302
0.000230967
0.000209292
0.000185713
0.000163016
0.000156857
0.000142407
0.000146858
0.000145636
0.000164655
0.000167816
0.000137547
0.000124581
0.000115989
9.04877e-05
9.3829e-05
8.81782e-05
8.88714e-05
9.82191e-05
0.000102552
0.000102502
0.000102805
0.000100926
9.30469e-05
8.61822e-05
8.48944e-05
8.54005e-05
8.4438e-05
8.16754e-05
7.33656e-05
5.01307e-05
3.34545e-05
2.35253e-05
1.73098e-05
1.39166e-05
1.15926e-05
9.91085e-06
9.34127e-06
8.72056e-06
8.27489e-06
8.3614e-06
8.8626e-06
1.01565e-05
1.34748e-05
2.0799e-05
3.49898e-05
5.74868e-05
6.80952e-05
7.06066e-05
6.97011e-05
6.54586e-05
5.57621e-05
4.93365e-05
4.55936e-05
4.28452e-05
4.03409e-05
3.89025e-05
3.87127e-05
3.88884e-05
3.97634e-05
4.40519e-05
5.00554e-05
5.17371e-05
5.14305e-05
4.85399e-05
4.57091e-05
4.30749e-05
3.98914e-05
3.5068e-05
2.98991e-05
2.61746e-05
2.45673e-05
2.4569e-05
2.57856e-05
2.7303e-05
3.0401e-05
3.9274e-05
4.44346e-05
4.65289e-05
4.737e-05
4.76987e-05
4.81714e-05
4.75481e-05
4.73139e-05
4.77676e-05
4.88278e-05
4.91928e-05
4.77775e-05
4.65979e-05
4.61581e-05
4.29095e-05
3.8827e-05
3.64992e-05
3.23764e-05
2.87691e-05
2.68385e-05
2.62311e-05
2.65501e-05
2.92532e-05
3.45871e-05
4.61579e-05
5.90043e-05
6.48073e-05
7.39439e-05
7.69088e-05
7.26035e-05
5.3023e-05
3.74239e-05
3.09025e-05
2.99397e-05
3.00038e-05
2.98881e-05
2.90919e-05
2.779e-05
2.7546e-05
2.76584e-05
2.76654e-05
2.69687e-05
2.59511e-05
2.58383e-05
2.71872e-05
3.00008e-05
3.09657e-05
3.11554e-05
3.1801e-05
3.1828e-05
3.04813e-05
2.93603e-05
2.93814e-05
3.10799e-05
3.93908e-05
4.4493e-05
4.49629e-05
4.46368e-05
4.47568e-05
4.54208e-05
4.93062e-05
5.44352e-05
5.55353e-05
5.42073e-05
4.58157e-05
3.87178e-05
3.71741e-05
3.82596e-05
3.88167e-05
3.76298e-05
3.33019e-05
3.0658e-05
2.97804e-05
2.96586e-05
3.06911e-05
3.27695e-05
3.28546e-05
3.27111e-05
3.25109e-05
3.26911e-05
3.68322e-05
4.1475e-05
4.47e-05
5.2938e-05
6.39706e-05
6.96924e-05
7.01228e-05
6.89118e-05
6.83975e-05
6.59899e-05
6.05713e-05
5.47148e-05
4.9111e-05
4.42743e-05
3.90608e-05
3.55543e-05
3.63115e-05
3.83899e-05
4.09917e-05
4.24721e-05
4.33752e-05
4.59593e-05
5.18156e-05
5.27317e-05
5.20679e-05
5.03765e-05
4.64944e-05
4.44662e-05
4.24844e-05
3.90008e-05
3.71103e-05
3.71163e-05
3.89275e-05
3.9517e-05
3.86584e-05
3.34312e-05
2.87979e-05
2.49632e-05
2.41207e-05
2.50004e-05
3.22687e-05
4.80279e-05
4.89698e-05
5.71997e-05
0.0001363
0.000210862
0.000188893
0.000169975
0.000143676
0.000137402
0.000129805
0.000132843
0.000135026
0.000146371
0.000165673
0.000152154
0.000139303
0.000126834
0.000103968
9.94292e-05
9.37628e-05
9.24239e-05
9.83422e-05
0.000100202
9.97396e-05
9.85556e-05
9.57828e-05
8.99089e-05
8.89586e-05
8.85564e-05
8.7207e-05
8.41068e-05
7.53395e-05
5.14614e-05
3.43089e-05
2.40995e-05
1.80105e-05
1.41269e-05
1.21596e-05
1.05379e-05
9.3807e-06
8.92307e-06
8.33317e-06
8.09293e-06
8.33636e-06
9.28443e-06
1.15528e-05
1.64823e-05
2.64981e-05
4.66849e-05
6.50585e-05
7.21807e-05
7.2723e-05
7.01052e-05
6.10357e-05
5.22345e-05
4.66282e-05
4.34082e-05
4.10878e-05
3.89557e-05
3.77983e-05
3.7662e-05
3.77297e-05
3.82701e-05
4.08991e-05
4.81348e-05
5.10697e-05
5.11541e-05
4.94722e-05
4.69063e-05
4.43767e-05
4.12018e-05
3.63308e-05
3.11646e-05
2.77294e-05
2.64069e-05
2.64802e-05
2.76394e-05
2.88701e-05
3.21527e-05
4.08203e-05
4.54257e-05
4.6821e-05
4.73931e-05
4.78214e-05
4.83534e-05
4.76021e-05
4.68125e-05
4.68115e-05
4.78749e-05
4.86074e-05
4.77159e-05
4.70616e-05
4.69017e-05
4.41697e-05
4.04578e-05
3.7761e-05
3.2581e-05
2.81235e-05
2.63405e-05
2.61046e-05
2.68714e-05
3.06694e-05
3.58685e-05
4.73327e-05
5.9551e-05
6.60505e-05
7.59945e-05
7.85216e-05
7.24438e-05
5.11786e-05
3.66293e-05
3.13526e-05
3.07842e-05
3.09273e-05
3.08229e-05
2.95235e-05
2.80525e-05
2.77425e-05
2.77266e-05
2.76759e-05
2.69736e-05
2.59537e-05
2.58256e-05
2.6829e-05
2.87647e-05
2.95862e-05
3.00754e-05
3.15905e-05
3.17271e-05
3.05353e-05
2.90079e-05
2.87468e-05
2.97188e-05
3.68e-05
4.33059e-05
4.44326e-05
4.44464e-05
4.45818e-05
4.51055e-05
4.81962e-05
5.33504e-05
5.47866e-05
5.3993e-05
4.74417e-05
3.94229e-05
3.73825e-05
3.77945e-05
3.8479e-05
3.76157e-05
3.37205e-05
3.06444e-05
2.94018e-05
2.91665e-05
2.9635e-05
3.19601e-05
3.23258e-05
3.22178e-05
3.18601e-05
3.19681e-05
3.6058e-05
4.11207e-05
4.47345e-05
5.42262e-05
6.56863e-05
7.07772e-05
7.12245e-05
6.9558e-05
6.78845e-05
6.52062e-05
5.99312e-05
5.44427e-05
4.92372e-05
4.45217e-05
3.82477e-05
3.6406e-05
3.82695e-05
4.10756e-05
4.33123e-05
4.46603e-05
4.53874e-05
4.67033e-05
5.20066e-05
5.66066e-05
5.61137e-05
5.50958e-05
5.06238e-05
4.59918e-05
4.32921e-05
3.96471e-05
3.71659e-05
3.67305e-05
3.82395e-05
3.93752e-05
3.86972e-05
3.37862e-05
2.92259e-05
2.56973e-05
2.41849e-05
2.46778e-05
2.92298e-05
4.53372e-05
4.81526e-05
5.70651e-05
0.000113824
0.000187447
0.000166681
0.000148743
0.000125197
0.000117796
0.000111888
0.000114232
0.000118711
0.000126901
0.000150391
0.000161203
0.000154152
0.000135408
0.000123073
0.000113877
0.000104198
9.70012e-05
9.81433e-05
9.83802e-05
9.78826e-05
9.63817e-05
9.36685e-05
9.29971e-05
9.18435e-05
8.98141e-05
8.54493e-05
7.57572e-05
5.17963e-05
3.49529e-05
2.4274e-05
1.84879e-05
1.47658e-05
1.23338e-05
1.119e-05
9.86621e-06
8.91136e-06
8.37236e-06
7.88308e-06
7.93491e-06
8.55164e-06
1.02593e-05
1.38392e-05
2.07275e-05
3.41819e-05
5.74226e-05
7.14697e-05
7.52324e-05
7.4092e-05
6.71457e-05
5.61274e-05
4.91538e-05
4.46976e-05
4.18451e-05
3.97574e-05
3.81302e-05
3.73015e-05
3.71059e-05
3.70926e-05
3.73864e-05
3.90794e-05
4.59759e-05
5.01546e-05
5.0785e-05
4.98465e-05
4.76495e-05
4.54194e-05
4.21807e-05
3.73885e-05
3.2346e-05
2.92408e-05
2.81806e-05
2.83001e-05
2.9337e-05
3.03425e-05
3.39595e-05
4.22593e-05
4.61703e-05
4.69892e-05
4.72243e-05
4.77805e-05
4.84887e-05
4.79238e-05
4.66375e-05
4.63494e-05
4.73877e-05
4.84747e-05
4.78797e-05
4.75956e-05
4.77033e-05
4.54069e-05
4.17363e-05
3.79211e-05
3.1707e-05
2.72669e-05
2.60864e-05
2.61076e-05
2.76757e-05
3.2253e-05
3.71699e-05
4.86307e-05
6.02609e-05
6.73607e-05
7.80476e-05
8.01175e-05
7.19968e-05
4.98671e-05
3.62755e-05
3.17009e-05
3.14298e-05
3.1721e-05
3.14942e-05
2.9771e-05
2.81876e-05
2.78331e-05
2.78749e-05
2.78133e-05
2.72174e-05
2.63917e-05
2.62955e-05
2.68839e-05
2.75108e-05
2.79912e-05
2.86435e-05
3.09229e-05
3.13098e-05
3.04274e-05
2.87735e-05
2.82159e-05
2.8766e-05
3.44568e-05
4.19056e-05
4.36739e-05
4.39785e-05
4.42628e-05
4.48185e-05
4.72276e-05
5.23298e-05
5.4072e-05
5.36834e-05
4.87673e-05
4.06105e-05
3.77701e-05
3.77602e-05
3.79138e-05
3.73772e-05
3.37741e-05
3.07038e-05
2.93275e-05
2.88778e-05
2.90022e-05
3.08275e-05
3.15195e-05
3.14383e-05
3.10477e-05
3.11165e-05
3.53791e-05
4.0797e-05
4.47975e-05
5.58581e-05
6.75055e-05
7.24394e-05
7.25788e-05
7.07195e-05
6.71138e-05
6.41536e-05
5.86619e-05
5.41557e-05
4.88958e-05
4.40363e-05
3.81515e-05
3.80741e-05
4.17731e-05
4.34576e-05
4.47527e-05
4.74216e-05
4.8117e-05
4.86722e-05
5.06287e-05
5.83975e-05
5.99959e-05
5.99617e-05
5.71279e-05
4.97706e-05
4.49381e-05
4.06385e-05
3.74715e-05
3.67006e-05
3.76336e-05
3.95377e-05
3.90797e-05
3.42316e-05
2.91564e-05
2.58674e-05
2.40455e-05
2.41118e-05
2.69767e-05
4.18786e-05
4.65084e-05
5.63268e-05
9.58908e-05
0.000159938
0.000140904
0.000123854
9.80319e-05
8.99508e-05
9.06722e-05
9.4498e-05
0.000101183
0.000108788
0.000122133
0.000156156
0.000156937
0.000148501
0.000138031
0.000126747
0.000112865
0.000103502
0.000101134
0.00010168
0.00010066
9.85499e-05
9.83313e-05
9.57835e-05
9.29775e-05
8.72421e-05
7.49205e-05
5.22541e-05
3.52294e-05
2.43896e-05
1.84082e-05
1.53873e-05
1.294e-05
1.13713e-05
1.05829e-05
9.23912e-06
8.25064e-06
7.71926e-06
7.58331e-06
7.87587e-06
9.18531e-06
1.20572e-05
1.72204e-05
2.64009e-05
4.45663e-05
6.74155e-05
7.66218e-05
7.78844e-05
7.45547e-05
6.30081e-05
5.23534e-05
4.61775e-05
4.26994e-05
4.05525e-05
3.88931e-05
3.76037e-05
3.72366e-05
3.70668e-05
3.68101e-05
3.6906e-05
3.80338e-05
4.42736e-05
4.94216e-05
5.04021e-05
4.99096e-05
4.81381e-05
4.64986e-05
4.32435e-05
3.81735e-05
3.35344e-05
3.08372e-05
2.99706e-05
3.00907e-05
3.08971e-05
3.16144e-05
3.55321e-05
4.34357e-05
4.66008e-05
4.69778e-05
4.69706e-05
4.75257e-05
4.86699e-05
4.83661e-05
4.68466e-05
4.6246e-05
4.7421e-05
4.87225e-05
4.83989e-05
4.83553e-05
4.84677e-05
4.61769e-05
4.23172e-05
3.71655e-05
3.04736e-05
2.67265e-05
2.60118e-05
2.64446e-05
2.91855e-05
3.38563e-05
3.86049e-05
4.99328e-05
6.09528e-05
6.8656e-05
8.00267e-05
8.17116e-05
7.14989e-05
4.89391e-05
3.61664e-05
3.20762e-05
3.20635e-05
3.244e-05
3.20508e-05
3.00311e-05
2.8309e-05
2.78922e-05
2.82092e-05
2.81999e-05
2.76211e-05
2.71266e-05
2.72081e-05
2.72734e-05
2.68559e-05
2.67883e-05
2.72466e-05
2.98838e-05
3.03732e-05
2.97235e-05
2.81981e-05
2.75917e-05
2.79098e-05
3.24112e-05
4.0471e-05
4.28309e-05
4.33955e-05
4.38534e-05
4.44363e-05
4.6294e-05
5.12257e-05
5.33017e-05
5.32483e-05
4.98488e-05
4.18857e-05
3.84602e-05
3.78793e-05
3.76733e-05
3.6995e-05
3.372e-05
3.08514e-05
2.9468e-05
2.87203e-05
2.86294e-05
2.97157e-05
3.05366e-05
3.05025e-05
3.01633e-05
3.01969e-05
3.47542e-05
4.04689e-05
4.51991e-05
5.79629e-05
6.99955e-05
7.40667e-05
7.37285e-05
7.11081e-05
6.68129e-05
6.35451e-05
5.74891e-05
5.38573e-05
4.74339e-05
4.34476e-05
3.86657e-05
3.9915e-05
4.4016e-05
4.57078e-05
4.63694e-05
4.92057e-05
5.01408e-05
5.05878e-05
5.12819e-05
5.78939e-05
6.19919e-05
6.34989e-05
6.33062e-05
5.8478e-05
4.89819e-05
4.25841e-05
3.83721e-05
3.68856e-05
3.72394e-05
3.94872e-05
3.93547e-05
3.49225e-05
2.84068e-05
2.50281e-05
2.3409e-05
2.32634e-05
2.50402e-05
3.92279e-05
4.47236e-05
5.48149e-05
8.26992e-05
0.000126923
0.000109762
9.01151e-05
6.53318e-05
5.70356e-05
5.82666e-05
6.67701e-05
8.23183e-05
9.00286e-05
9.9459e-05
0.000135108
0.000153027
0.000151626
0.000147672
0.000137413
0.000121484
0.000113423
0.000110833
0.000109349
0.000106332
0.000104607
0.000101734
9.64131e-05
8.95035e-05
7.33368e-05
5.18554e-05
3.53873e-05
2.41289e-05
1.82108e-05
1.54141e-05
1.37286e-05
1.1917e-05
1.08372e-05
9.85854e-06
8.30061e-06
7.40654e-06
7.27504e-06
7.4466e-06
8.26209e-06
1.07094e-05
1.5004e-05
2.18991e-05
3.36281e-05
5.70676e-05
7.52167e-05
8.0293e-05
7.91667e-05
7.08848e-05
5.80831e-05
4.94569e-05
4.42664e-05
4.09752e-05
3.90578e-05
3.78529e-05
3.72399e-05
3.71848e-05
3.70899e-05
3.67271e-05
3.6729e-05
3.75265e-05
4.27072e-05
4.84965e-05
4.98924e-05
4.97392e-05
4.86779e-05
4.74339e-05
4.45309e-05
3.92071e-05
3.47841e-05
3.2236e-05
3.15402e-05
3.1661e-05
3.22798e-05
3.28088e-05
3.702e-05
4.43991e-05
4.67377e-05
4.67442e-05
4.65962e-05
4.70796e-05
4.87676e-05
4.86662e-05
4.76176e-05
4.69808e-05
4.87803e-05
5.01686e-05
4.95909e-05
4.91703e-05
4.89487e-05
4.67037e-05
4.21717e-05
3.5614e-05
2.92734e-05
2.64204e-05
2.62122e-05
2.72489e-05
3.09888e-05
3.5497e-05
3.99904e-05
5.10761e-05
6.15827e-05
6.99527e-05
8.19572e-05
8.33501e-05
7.08925e-05
4.85373e-05
3.6329e-05
3.28103e-05
3.29887e-05
3.33556e-05
3.28372e-05
3.07166e-05
2.87417e-05
2.80976e-05
2.86489e-05
2.88002e-05
2.8106e-05
2.77149e-05
2.79485e-05
2.78216e-05
2.66248e-05
2.58554e-05
2.62348e-05
2.88129e-05
2.94084e-05
2.89281e-05
2.76101e-05
2.7039e-05
2.71961e-05
3.06361e-05
3.89724e-05
4.18266e-05
4.27003e-05
4.33027e-05
4.39319e-05
4.5452e-05
5.00901e-05
5.25348e-05
5.27306e-05
5.07233e-05
4.32249e-05
3.927e-05
3.81319e-05
3.7722e-05
3.68119e-05
3.37315e-05
3.13745e-05
2.98654e-05
2.87712e-05
2.83672e-05
2.88321e-05
2.95703e-05
2.95709e-05
2.93143e-05
2.94302e-05
3.45102e-05
4.02994e-05
4.56832e-05
6.01706e-05
7.20381e-05
7.53709e-05
7.46217e-05
7.10427e-05
6.65565e-05
6.26469e-05
5.66773e-05
5.30373e-05
4.59096e-05
4.32365e-05
3.91674e-05
4.24708e-05
4.49323e-05
4.67676e-05
4.71449e-05
4.90413e-05
5.04278e-05
5.15122e-05
5.3567e-05
5.89637e-05
6.27881e-05
6.42402e-05
6.46897e-05
6.40109e-05
5.73626e-05
4.67565e-05
4.03136e-05
3.74821e-05
3.74345e-05
3.93041e-05
3.97496e-05
3.61505e-05
2.84454e-05
2.33708e-05
2.15661e-05
2.15474e-05
2.2869e-05
3.61397e-05
4.23732e-05
5.20807e-05
7.29802e-05
8.80775e-05
7.1442e-05
5.50585e-05
3.95811e-05
3.37052e-05
3.44677e-05
3.79411e-05
5.56499e-05
6.79703e-05
7.67366e-05
9.61313e-05
0.000135901
0.000147413
0.000147289
0.000142917
0.000131018
0.000123309
0.000118733
0.000115109
0.000110657
0.000107552
0.000100843
9.05695e-05
7.09763e-05
5.04892e-05
3.50137e-05
2.38542e-05
1.76488e-05
1.52575e-05
1.40234e-05
1.27514e-05
1.12591e-05
1.01406e-05
8.70541e-06
7.1831e-06
6.89804e-06
7.06921e-06
7.54647e-06
9.28073e-06
1.33629e-05
1.92484e-05
2.79115e-05
4.31291e-05
6.90077e-05
8.10467e-05
8.2658e-05
7.95835e-05
6.71357e-05
5.43475e-05
4.62787e-05
4.20499e-05
3.94381e-05
3.80559e-05
3.71885e-05
3.69846e-05
3.70772e-05
3.70272e-05
3.66331e-05
3.66215e-05
3.72406e-05
4.15677e-05
4.76717e-05
4.94695e-05
4.96081e-05
4.92369e-05
4.84522e-05
4.53004e-05
4.00619e-05
3.60071e-05
3.35194e-05
3.29309e-05
3.30929e-05
3.33657e-05
3.36646e-05
3.82256e-05
4.49857e-05
4.67257e-05
4.64757e-05
4.63293e-05
4.67843e-05
4.85934e-05
4.91659e-05
4.86063e-05
4.8871e-05
5.11768e-05
5.21617e-05
5.08033e-05
4.97988e-05
4.93665e-05
4.69055e-05
4.08755e-05
3.37181e-05
2.8327e-05
2.66057e-05
2.6794e-05
2.86652e-05
3.30011e-05
3.72272e-05
4.14315e-05
5.21552e-05
6.23074e-05
7.10695e-05
8.39008e-05
8.49028e-05
7.06247e-05
4.84315e-05
3.71463e-05
3.38672e-05
3.42203e-05
3.45601e-05
3.39053e-05
3.18458e-05
2.96071e-05
2.82351e-05
2.86895e-05
2.89211e-05
2.83316e-05
2.79579e-05
2.82874e-05
2.81447e-05
2.6605e-05
2.51357e-05
2.54168e-05
2.76369e-05
2.82042e-05
2.78981e-05
2.68879e-05
2.64937e-05
2.66028e-05
2.93924e-05
3.76061e-05
4.07959e-05
4.19131e-05
4.27601e-05
4.34069e-05
4.46352e-05
4.8803e-05
5.17351e-05
5.21555e-05
5.1117e-05
4.50856e-05
4.00379e-05
3.86488e-05
3.80757e-05
3.69615e-05
3.42307e-05
3.21075e-05
3.0325e-05
2.89416e-05
2.82488e-05
2.82755e-05
2.87032e-05
2.87165e-05
2.876e-05
2.90897e-05
3.4458e-05
4.02706e-05
4.65518e-05
6.2736e-05
7.40808e-05
7.67381e-05
7.53438e-05
7.00703e-05
6.58073e-05
6.10537e-05
5.62363e-05
5.13338e-05
4.5034e-05
4.30149e-05
3.98106e-05
4.44777e-05
4.58482e-05
4.72716e-05
4.69099e-05
4.78811e-05
5.01025e-05
5.40623e-05
5.89246e-05
6.23989e-05
6.38527e-05
6.37835e-05
6.46993e-05
6.47747e-05
6.33288e-05
5.55054e-05
4.46186e-05
3.9154e-05
3.79378e-05
3.92776e-05
4.01454e-05
3.75101e-05
2.87153e-05
2.20101e-05
1.96115e-05
1.98386e-05
2.11142e-05
3.31277e-05
4.0048e-05
4.87383e-05
6.50062e-05
5.18326e-05
4.13963e-05
3.09453e-05
2.25679e-05
1.92895e-05
1.97822e-05
2.27204e-05
3.40096e-05
4.48005e-05
5.24642e-05
6.64011e-05
9.38382e-05
0.000126638
0.000140543
0.000139747
0.000134153
0.000127402
0.000121192
0.000117163
0.000111292
0.000103213
8.83452e-05
6.63653e-05
4.82523e-05
3.40142e-05
2.33071e-05
1.69779e-05
1.47505e-05
1.40904e-05
1.3351e-05
1.19701e-05
1.04034e-05
8.82014e-06
7.19502e-06
6.57554e-06
6.67451e-06
7.05081e-06
8.24827e-06
1.13973e-05
1.77878e-05
2.48968e-05
3.53692e-05
5.59515e-05
7.7846e-05
8.44958e-05
8.43482e-05
7.69363e-05
6.22407e-05
5.13685e-05