/*--------------------------------*- C++ -*----------------------------------*\
| =========                 |                                                 |
| \\      /  F ield         | OpenFOAM: The Open Source CFD Toolbox           |
|  \\    /   O peration     | Version:  2.4.0                                 |
|   \\  /    A nd           | Web:      www.OpenFOAM.org                      |
|    \\/     M anipulation  |                                                 |
\*---------------------------------------------------------------------------*/
FoamFile
{
    version     2.0;
    format      ascii;
    class       volVectorField;
    location    "0.235";
    object      U;
}
// * * * * * * * * * * * * * * * * * * * * * * * * * * * * * * * * * * * * * //

dimensions      [0 1 -1 0 0 0 0];

internalField   nonuniform List<vector> 
17600
(
(5.32698 0.309539 0)
(2.98435 0.060582 0)
(2.19513 -0.0016496 0)
(1.85267 -0.00340588 0)
(1.70141 -0.00142646 0)
(1.6162 9.16578e-05 0)
(1.53317 -0.000326481 0)
(1.48448 0.000172833 0)
(1.43213 -8.38064e-05 0)
(1.40295 -0.000386666 0)
(1.38028 0.000231519 0)
(1.35203 -0.000661813 0)
(1.33874 0.000805506 0)
(1.32387 -0.00150031 0)
(1.32766 -0.00039784 0)
(1.31958 -0.000415855 0)
(1.36024 -0.00259517 0)
(1.39171 -0.00415232 0)
(1.70479 -0.00918584 0)
(1.48062 -0.0970881 0)
(8.59523 0.872271 0)
(6.94992 0.383224 0)
(5.80376 0.121195 0)
(5.06963 0.0515543 0)
(4.63766 0.0276858 0)
(4.39392 0.0214887 0)
(4.16517 0.0152667 0)
(4.02775 0.0129047 0)
(3.88887 0.0100517 0)
(3.79458 0.0056408 0)
(3.73398 0.00768348 0)
(3.64315 0.00309908 0)
(3.61094 0.00681064 0)
(3.55937 -0.0011143 0)
(3.53689 0.00229393 0)
(3.49805 -0.00199833 0)
(3.5718 -0.0074071 0)
(3.53802 -0.0331466 0)
(4.09632 -0.0216149 0)
(3.64795 -0.262544 0)
(9.85032 1.02292 0)
(9.34985 0.577153 0)
(8.4574 0.239962 0)
(7.66608 0.131448 0)
(7.06818 0.0806778 0)
(6.71949 0.0593458 0)
(6.38677 0.0431861 0)
(6.17709 0.0348344 0)
(5.98129 0.0284473 0)
(5.82061 0.0173419 0)
(5.74056 0.020777 0)
(5.5884 0.0112904 0)
(5.54288 0.016151 0)
(5.46444 0.00286653 0)
(5.40559 0.00920444 0)
(5.34543 -0.00299919 0)
(5.42359 -0.00780798 0)
(5.34795 -0.0605132 0)
(5.92664 -0.0486196 0)
(5.45544 -0.373094 0)
(10.1471 0.948803 0)
(10.5827 0.668688 0)
(10.2281 0.328276 0)
(9.68145 0.212175 0)
(9.0861 0.14585 0)
(8.72174 0.109277 0)
(8.34127 0.0816832 0)
(8.08044 0.0641151 0)
(7.86568 0.05413 0)
(7.63872 0.0339534 0)
(7.56216 0.0385195 0)
(7.35508 0.0242337 0)
(7.29315 0.0276908 0)
(7.20863 0.0105135 0)
(7.10568 0.0196626 0)
(7.04107 -0.00198253 0)
(7.08417 -0.00765124 0)
(7.05015 -0.0839895 0)
(7.48543 -0.0728948 0)
(7.1255 -0.473325 0)
(10.0494 0.806798 0)
(10.9488 0.670295 0)
(11.0809 0.354031 0)
(10.9489 0.258573 0)
(10.5387 0.201291 0)
(10.2778 0.158721 0)
(9.94472 0.124322 0)
(9.6675 0.0965691 0)
(9.49211 0.0842792 0)
(9.20831 0.0542111 0)
(9.15869 0.0583665 0)
(8.92508 0.0414996 0)
(8.83589 0.0401348 0)
(8.7748 0.0206253 0)
(8.62791 0.0329141 0)
(8.57565 0.0022068 0)
(8.55254 -0.0102144 0)
(8.62549 -0.100071 0)
(8.85065 -0.0914776 0)
(8.63506 -0.558389 0)
(9.94447 0.692321 0)
(10.9094 0.637935 0)
(11.2286 0.330501 0)
(11.4405 0.253706 0)
(11.287 0.222952 0)
(11.2208 0.18856 0)
(11.058 0.159034 0)
(10.8215 0.124571 0)
(10.7595 0.113179 0)
(10.4574 0.0759465 0)
(10.4501 0.0769563 0)
(10.2437 0.0616236 0)
(10.1214 0.052793 0)
(10.1053 0.0307191 0)
(9.94431 0.0477238 0)
(9.89448 0.0102261 0)
(9.82733 -0.0168738 0)
(9.98671 -0.112876 0)
(10.0506 -0.100532 0)
(9.95791 -0.608129 0)
(9.898 0.601843 0)
(10.8213 0.605539 0)
(11.1111 0.30215 0)
(11.4642 0.220781 0)
(11.4692 0.212058 0)
(11.5267 0.18748 0)
(11.5896 0.172366 0)
(11.4253 0.13657 0)
(11.5366 0.129559 0)
(11.2874 0.0931145 0)
(11.3374 0.0885718 0)
(11.2239 0.0802544 0)
(11.0899 0.0647397 0)
(11.1165 0.0368891 0)
(11.0174 0.0633205 0)
(10.9201 0.0203195 0)
(10.8959 -0.02567 0)
(11.0547 -0.124324 0)
(11.0687 -0.112375 0)
(10.9913 -0.589317 0)
(9.86282 0.522237 0)
(10.7571 0.567342 0)
(11.005 0.288391 0)
(11.3479 0.186226 0)
(11.4609 0.195186 0)
(11.4794 0.169995 0)
(11.7052 0.169489 0)
(11.5666 0.133073 0)
(11.8094 0.12791 0)
(11.6522 0.0998553 0)
(11.742 0.0870147 0)
(11.7696 0.088899 0)
(11.6672 0.0738527 0)
(11.7171 0.0325596 0)
(11.7747 0.0764987 0)
(11.5893 0.0298616 0)
(11.6871 -0.041488 0)
(11.8027 -0.127217 0)
(11.8124 -0.136609 0)
(11.7465 -0.525475 0)
(9.85702 0.451951 0)
(10.6608 0.518661 0)
(10.9752 0.283698 0)
(11.202 0.153621 0)
(11.4312 0.177676 0)
(11.3768 0.15011 0)
(11.6574 0.157901 0)
(11.5475 0.126455 0)
(11.7998 0.114872 0)
(11.7304 0.101621 0)
(11.7844 0.0746598 0)
(11.933 0.0862477 0)
(11.8498 0.0771282 0)
(11.9242 0.0168274 0)
(12.1275 0.0798701 0)
(11.9024 0.0386158 0)
(12.0945 -0.0680341 0)
(12.2271 -0.128381 0)
(12.1907 -0.160997 0)
(12.197 -0.50633 0)
(9.90398 0.3932 0)
(10.5242 0.461075 0)
(10.958 0.282088 0)
(11.1171 0.124843 0)
(11.3594 0.160066 0)
(11.3399 0.131575 0)
(11.5282 0.14452 0)
(11.5105 0.116693 0)
(11.719 0.100605 0)
(11.7141 0.100905 0)
(11.73 0.0624931 0)
(11.9451 0.0768493 0)
(11.7841 0.0813645 0)
(11.9876 -0.0102089 0)
(12.1191 0.0826926 0)
(11.9805 0.0367922 0)
(12.2107 -0.09316 0)
(12.318 -0.146043 0)
(12.2528 -0.162214 0)
(12.2567 -0.5344 0)
(9.9571 0.340685 0)
(10.4325 0.40798 0)
(10.8978 0.270392 0)
(11.0926 0.106213 0)
(11.2456 0.136809 0)
(11.3629 0.11998 0)
(11.4096 0.130182 0)
(11.4344 0.106588 0)
(11.6743 0.082208 0)
(11.6206 0.102275 0)
(11.7231 0.0449104 0)
(11.8634 0.0771192 0)
(11.7201 0.0771412 0)
(12.0213 -0.030964 0)
(11.9331 0.0824529 0)
(12.0031 0.0296875 0)
(12.2462 -0.122195 0)
(12.1012 -0.150103 0)
(12.2351 -0.169515 0)
(12.1036 -0.584127 0)
(9.98924 0.292817 0)
(10.4031 0.354717 0)
(10.8028 0.260667 0)
(11.0607 0.0882072 0)
(11.1788 0.115894 0)
(11.3556 0.101827 0)
(11.3368 0.129098 0)
(11.3775 0.0860535 0)
(11.6242 0.0710665 0)
(11.5362 0.0964352 0)
(11.7161 0.0331212 0)
(11.6959 0.074914 0)
(11.8195 0.0664283 0)
(11.8924 -0.0386699 0)
(11.7791 0.0832528 0)
(12.0885 0.00146797 0)
(12.1369 -0.119617 0)
(11.8647 -0.154723 0)
(12.2003 -0.201578 0)
(12.005 -0.584644 0)
(10.0095 0.2463 0)
(10.3739 0.309669 0)
(10.7101 0.245263 0)
(11.0257 0.0723001 0)
(11.1663 0.0910236 0)
(11.2983 0.0930853 0)
(11.2894 0.116596 0)
(11.3695 0.0751656 0)
(11.5111 0.0518428 0)
(11.5601 0.0961162 0)
(11.625 0.0242701 0)
(11.6182 0.0623242 0)
(11.8801 0.0593141 0)
(11.6928 -0.0304912 0)
(11.7851 0.0578824 0)
(12.1238 -0.011009 0)
(11.9347 -0.108831 0)
(11.87 -0.178344 0)
(12.1185 -0.229581 0)
(11.9717 -0.584773 0)
(10.0124 0.206042 0)
(10.3331 0.265147 0)
(10.6619 0.225834 0)
(10.9951 0.0513708 0)
(11.1374 0.0787576 0)
(11.2431 0.0794202 0)
(11.2712 0.107824 0)
(11.3532 0.0613454 0)
(11.4205 0.0386565 0)
(11.586 0.0844787 0)
(11.52 0.0294788 0)
(11.6614 0.0367135 0)
(11.7433 0.0663522 0)
(11.6564 -0.0345648 0)
(11.8709 0.0303482 0)
(12.0059 -0.0192885 0)
(11.8613 -0.102755 0)
(11.9449 -0.19242 0)
(12.0341 -0.264809 0)
(11.8037 -0.589631 0)
(9.99564 0.167177 0)
(10.317 0.225413 0)
(10.6434 0.194163 0)
(10.9504 0.0413118 0)
(11.099 0.0622293 0)
(11.207 0.0713242 0)
(11.2745 0.0878357 0)
(11.3083 0.0613032 0)
(11.4105 0.0119544 0)
(11.5022 0.0880803 0)
(11.5212 0.0180882 0)
(11.6629 0.0309305 0)
(11.5907 0.0662347 0)
(11.7613 -0.0466099 0)
(11.8486 0.0036618 0)
(11.8335 -0.0015587 0)
(11.9453 -0.124622 0)
(11.8984 -0.20856 0)
(11.9295 -0.238375 0)
(11.6664 -0.598097 0)
(9.9835 0.135129 0)
(10.3076 0.177882 0)
(10.6231 0.16824 0)
(10.9003 0.0279245 0)
(11.0947 0.0505094 0)
(11.1759 0.0551276 0)
(11.2589 0.0762767 0)
(11.2758 0.0518417 0)
(11.4095 -0.0012506 0)
(11.4019 0.0784281 0)
(11.5936 0.0107816 0)
(11.5525 0.0223501 0)
(11.5899 0.0644945 0)
(11.7979 -0.0746157 0)
(11.7142 0.0209354 0)
(11.8008 -0.0315782 0)
(11.9827 -0.116994 0)
(11.8015 -0.225927 0)
(11.8226 -0.232747 0)
(11.7145 -0.596759 0)
(9.98215 0.10376 0)
(10.2895 0.13385 0)
(10.6012 0.140045 0)
(10.8741 0.0144558 0)
(11.0942 0.0376592 0)
(11.1468 0.0449594 0)
(11.2202 0.059774 0)
(11.291 0.0434546 0)
(11.3616 -0.0123898 0)
(11.3877 0.0661066 0)
(11.5976 0.00866295 0)
(11.4568 0.0181349 0)
(11.6517 0.0483336 0)
(11.7366 -0.0691649 0)
(11.6353 0.00464055 0)
(11.8675 -0.0341303 0)
(11.9083 -0.138515 0)
(11.7402 -0.196521 0)
(11.7845 -0.263517 0)
(11.7696 -0.570235 0)
(9.98017 0.074841 0)
(10.2758 0.0889803 0)
(10.5865 0.110013 0)
(10.8584 0.00278853 0)
(11.0795 0.023632 0)
(11.1228 0.0404066 0)
(11.2115 0.034083 0)
(11.3051 0.0424075 0)
(11.3059 -0.0282152 0)
(11.4086 0.0585726 0)
(11.522 0.00476064 0)
(11.4891 0.0137251 0)
(11.6414 0.0335215 0)
(11.6973 -0.065765 0)
(11.6594 -0.0173073 0)
(11.8361 -0.0409653 0)
(11.8341 -0.139379 0)
(11.7594 -0.197971 0)
(11.7986 -0.282881 0)
(11.7 -0.500749 0)
(9.97863 0.0495202 0)
(10.2699 0.0418124 0)
(10.5703 0.0837604 0)
(10.8506 -0.0138903 0)
(11.0694 0.0182203 0)
(11.1075 0.0244463 0)
(11.227 0.0192064 0)
(11.2769 0.03139 0)
(11.3001 -0.0313788 0)
(11.3944 0.0368937 0)
(11.4856 0.0108433 0)
(11.5468 -0.011912 0)
(11.5831 0.0391684 0)
(11.7031 -0.085167 0)
(11.6811 -0.0135443 0)
(11.7533 -0.0645071 0)
(11.8283 -0.128965 0)
(11.7822 -0.216021 0)
(11.8055 -0.284735 0)
(11.6566 -0.502346 0)
(9.98226 0.0210545 0)
(10.263 0.000429211 0)
(10.5556 0.0506436 0)
(10.8631 -0.0245209 0)
(11.0561 0.0039312 0)
(11.0997 0.0200196 0)
(11.2238 -0.00848993 0)
(11.2567 0.0368599 0)
(11.3318 -0.055695 0)
(11.3543 0.0405489 0)
(11.5116 -0.00670464 0)
(11.5184 -0.00859753 0)
(11.5685 0.0218442 0)
(11.7182 -0.0746314 0)
(11.6611 -0.0410852 0)
(11.7168 -0.0389654 0)
(11.8449 -0.167846 0)
(11.7978 -0.208063 0)
(11.7239 -0.257744 0)
(11.6538 -0.545391 0)
(9.99058 -0.00271958 0)
(10.2544 -0.0453239 0)
(10.551 0.0214275 0)
(10.8867 -0.0433393 0)
(11.0252 0.00197294 0)
(11.1036 0.00263365 0)
(11.2233 -0.021392 0)
(11.2719 0.0186292 0)
(11.3314 -0.0506415 0)
(11.3476 0.0156737 0)
(11.5107 0.00141514 0)
(11.4836 -0.0286193 0)
(11.608 0.0219342 0)
(11.7132 -0.0971136 0)
(11.6288 -0.0226689 0)
(11.7319 -0.0817643 0)
(11.8519 -0.150426 0)
(11.7491 -0.223843 0)
(11.7062 -0.263979 0)
(11.6326 -0.519198 0)
(10.0013 -0.0308652 0)
(10.2413 -0.0851785 0)
(10.5685 -0.0153509 0)
(10.8947 -0.0515561 0)
(11.004 -0.00719958 0)
(11.1286 -0.00809115 0)
(11.2385 -0.0453841 0)
(11.2685 0.0168057 0)
(11.3176 -0.0656858 0)
(11.3814 0.0110467 0)
(11.4743 -0.00829241 0)
(11.5202 -0.0370899 0)
(11.6272 0.00882003 0)
(11.6824 -0.083622 0)
(11.6316 -0.0502229 0)
(11.7633 -0.0692012 0)
(11.8357 -0.173755 0)
(11.712 -0.204436 0)
(11.7512 -0.278875 0)
(11.5693 -0.440876 0)
(10.0063 -0.0567971 0)
(10.2373 -0.129169 0)
(10.6016 -0.0486238 0)
(10.8864 -0.0607902 0)
(11.0168 -0.015752 0)
(11.1572 -0.0267616 0)
(11.2398 -0.0587702 0)
(11.2533 0.00874021 0)
(11.3461 -0.0742184 0)
(11.3926 0.000182575 0)
(11.4759 -0.00989452 0)
(11.5644 -0.0508111 0)
(11.6011 0.00140574 0)
(11.6722 -0.0829101 0)
(11.6801 -0.063244 0)
(11.7689 -0.0763004 0)
(11.802 -0.17861 0)
(11.761 -0.204572 0)
(11.7342 -0.287348 0)
(11.5578 -0.353712 0)
(10.006 -0.0841997 0)
(10.2567 -0.173689 0)
(10.6228 -0.0811261 0)
(10.8861 -0.0692344 0)
(11.0511 -0.0271195 0)
(11.1712 -0.0440832 0)
(11.2309 -0.068482 0)
(11.2741 -0.00695511 0)
(11.3845 -0.0771617 0)
(11.387 -0.0151142 0)
(11.5058 -0.00931498 0)
(11.5759 -0.0708173 0)
(11.5839 0.0085855 0)
(11.7017 -0.102259 0)
(11.7218 -0.0610195 0)
(11.7487 -0.0956897 0)
(11.8117 -0.169058 0)
(11.7838 -0.221223 0)
(11.7279 -0.274364 0)
(11.5737 -0.354241 0)
(10.0058 -0.118108 0)
(10.2867 -0.214061 0)
(10.6288 -0.115785 0)
(10.9118 -0.0740817 0)
(11.0878 -0.0455097 0)
(11.1709 -0.0510041 0)
(11.2426 -0.0873267 0)
(11.3234 -0.0166441 0)
(11.3853 -0.0895772 0)
(11.4113 -0.0173264 0)
(11.5348 -0.0274198 0)
(11.5766 -0.0643538 0)
(11.6061 -0.0123358 0)
(11.7434 -0.088342 0)
(11.7249 -0.0918877 0)
(11.7537 -0.0717372 0)
(11.8426 -0.195257 0)
(11.7892 -0.212659 0)
(11.7473 -0.254549 0)
(11.5827 -0.406728 0)
(10.0068 -0.148955 0)
(10.3083 -0.260059 0)
(10.6455 -0.142805 0)
(10.9634 -0.0907922 0)
(11.1081 -0.050712 0)
(11.1777 -0.072481 0)
(11.2839 -0.0948182 0)
(11.352 -0.0385729 0)
(11.3895 -0.0824172 0)
(11.463 -0.0432474 0)
(11.5488 -0.0159413 0)
(11.5988 -0.0896268 0)
(11.6471 -0.00608657 0)
(11.7568 -0.114492 0)
(11.7373 -0.0736813 0)
(11.7958 -0.107554 0)
(11.8541 -0.175866 0)
(11.8192 -0.234841 0)
(11.7549 -0.243784 0)
(11.6159 -0.40367 0)
(10.0059 -0.191029 0)
(10.3272 -0.2965 0)
(10.6922 -0.180125 0)
(11.0104 -0.0960517 0)
(11.1187 -0.0676475 0)
(11.2109 -0.0820359 0)
(11.3284 -0.115791 0)
(11.3625 -0.0428745 0)
(11.4302 -0.0964363 0)
(11.5064 -0.0463973 0)
(11.5625 -0.0310892 0)
(11.6374 -0.0875968 0)
(11.6733 -0.0261435 0)
(11.7707 -0.101932 0)
(11.7873 -0.0984582 0)
(11.8291 -0.0970264 0)
(11.8811 -0.195777 0)
(11.8455 -0.217607 0)
(11.7707 -0.259095 0)
(11.6412 -0.325062 0)
(10.0066 -0.229251 0)
(10.3586 -0.342766 0)
(10.7538 -0.205887 0)
(11.041 -0.108909 0)
(11.1468 -0.0777487 0)
(11.2603 -0.103517 0)
(11.3577 -0.124127 0)
(11.3954 -0.0582389 0)
(11.4793 -0.100581 0)
(11.531 -0.0588097 0)
(11.5931 -0.0351705 0)
(11.6771 -0.0968511 0)
(11.7029 -0.0332556 0)
(11.8185 -0.10688 0)
(11.8435 -0.109767 0)
(11.8608 -0.0970534 0)
(11.908 -0.204948 0)
(11.8728 -0.209257 0)
(11.7957 -0.268711 0)
(11.6777 -0.265542 0)
(10.0208 -0.276428 0)
(10.3956 -0.388292 0)
(10.8144 -0.225267 0)
(11.069 -0.122059 0)
(11.202 -0.0950938 0)
(11.3009 -0.121819 0)
(11.3931 -0.131311 0)
(11.4399 -0.0753648 0)
(11.5095 -0.100362 0)
(11.5634 -0.0741587 0)
(11.6386 -0.0364557 0)
(11.7221 -0.111402 0)
(11.7614 -0.0350378 0)
(11.8799 -0.125234 0)
(11.8879 -0.0995013 0)
(11.8909 -0.121649 0)
(11.9326 -0.182806 0)
(11.9008 -0.236071 0)
(11.8295 -0.242448 0)
(11.7248 -0.288694 0)
(10.0484 -0.330187 0)
(10.4214 -0.431756 0)
(10.8849 -0.241053 0)
(11.1016 -0.137576 0)
(11.2766 -0.117915 0)
(11.3204 -0.133852 0)
(11.4482 -0.145464 0)
(11.4648 -0.0822204 0)
(11.549 -0.112008 0)
(11.6102 -0.0778933 0)
(11.706 -0.0555773 0)
(11.7813 -0.109851 0)
(11.8383 -0.0561849 0)
(11.9249 -0.117492 0)
(11.9271 -0.114511 0)
(11.9176 -0.111772 0)
(11.9631 -0.196163 0)
(11.9301 -0.225971 0)
(11.8745 -0.246075 0)
(11.7658 -0.326341 0)
(10.0675 -0.387807 0)
(10.4458 -0.478158 0)
(10.9688 -0.253065 0)
(11.1486 -0.160345 0)
(11.345 -0.135558 0)
(11.3342 -0.151641 0)
(11.517 -0.150619 0)
(11.4804 -0.0963304 0)
(11.6347 -0.117193 0)
(11.6641 -0.0928276 0)
(11.8061 -0.0645769 0)
(11.8292 -0.119049 0)
(11.9146 -0.0638733 0)
(11.9389 -0.12138 0)
(11.9643 -0.11373 0)
(11.9311 -0.117804 0)
(11.9904 -0.19344 0)
(11.9223 -0.227749 0)
(11.8721 -0.245278 0)
(11.7112 -0.354524 0)
(10.0604 -0.453815 0)
(10.4899 -0.520733 0)
(11.0629 -0.269854 0)
(11.2129 -0.180693 0)
(11.3882 -0.154894 0)
(11.3835 -0.165917 0)
(11.5889 -0.160434 0)
(11.5358 -0.107267 0)
(11.7416 -0.130396 0)
(11.714 -0.103599 0)
(11.8867 -0.0768742 0)
(11.8249 -0.122201 0)
(11.939 -0.0717193 0)
(11.8857 -0.123224 0)
(11.9272 -0.1098 0)
(11.8474 -0.128163 0)
(11.8843 -0.177961 0)
(11.7258 -0.236196 0)
(11.6538 -0.222168 0)
(11.3807 -0.354116 0)
(10.0329 -0.522973 0)
(10.5656 -0.563966 0)
(11.1702 -0.287822 0)
(11.2752 -0.201014 0)
(11.4429 -0.174968 0)
(11.4818 -0.184277 0)
(11.6426 -0.169545 0)
(11.6019 -0.121286 0)
(11.768 -0.140061 0)
(11.665 -0.109705 0)
(11.8119 -0.0858946 0)
(11.6565 -0.117288 0)
(11.7489 -0.0801463 0)
(11.6091 -0.1127 0)
(11.6152 -0.112552 0)
(11.4713 -0.11494 0)
(11.438 -0.176188 0)
(11.1943 -0.203817 0)
(11.0748 -0.220198 0)
(10.7206 -0.291937 0)
(10.0007 -0.601985 0)
(10.6834 -0.600506 0)
(11.2776 -0.308447 0)
(11.3461 -0.224287 0)
(11.513 -0.200388 0)
(11.5127 -0.1982 0)
(11.557 -0.172991 0)
(11.4721 -0.129383 0)
(11.4979 -0.137183 0)
(11.3006 -0.106967 0)
(11.3684 -0.0830267 0)
(11.1186 -0.10617 0)
(11.1573 -0.074171 0)
(10.9429 -0.100401 0)
(10.9063 -0.098012 0)
(10.7086 -0.104431 0)
(10.6248 -0.151015 0)
(10.3235 -0.179665 0)
(10.1798 -0.190683 0)
(9.77132 -0.236119 0)
(10.0018 -0.690626 0)
(10.8308 -0.634818 0)
(11.3465 -0.338176 0)
(11.3332 -0.252919 0)
(11.3599 -0.217543 0)
(11.1849 -0.194428 0)
(11.0504 -0.160815 0)
(10.8531 -0.119652 0)
(10.7263 -0.117685 0)
(10.4614 -0.0906885 0)
(10.4543 -0.069424 0)
(10.1573 -0.0853559 0)
(10.1563 -0.0615922 0)
(9.90987 -0.0808217 0)
(9.84817 -0.0805196 0)
(9.62701 -0.0865653 0)
(9.51398 -0.123323 0)
(9.18841 -0.151187 0)
(9.02862 -0.150304 0)
(8.58873 -0.204069 0)
(10.0809 -0.804918 0)
(10.9082 -0.669399 0)
(11.1566 -0.360089 0)
(10.865 -0.256298 0)
(10.6101 -0.199065 0)
(10.2315 -0.160999 0)
(9.95283 -0.127456 0)
(9.68078 -0.0926559 0)
(9.47207 -0.0869533 0)
(9.19905 -0.0678183 0)
(9.14926 -0.0503977 0)
(8.8563 -0.0624073 0)
(8.83528 -0.0462346 0)
(8.58967 -0.0600814 0)
(8.51735 -0.0616838 0)
(8.29561 -0.0658687 0)
(8.1674 -0.0964455 0)
(7.84371 -0.114428 0)
(7.67022 -0.123345 0)
(7.24696 -0.140011 0)
(10.1638 -0.947144 0)
(10.563 -0.668638 0)
(10.2745 -0.332402 0)
(9.62018 -0.209874 0)
(9.14461 -0.14532 0)
(8.67755 -0.109427 0)
(8.35774 -0.0855779 0)
(8.07869 -0.0607345 0)
(7.85795 -0.0556406 0)
(7.61715 -0.0450335 0)
(7.54961 -0.0315275 0)
(7.29679 -0.0410155 0)
(7.26617 -0.030928 0)
(7.04515 -0.0403965 0)
(6.97188 -0.0427977 0)
(6.76708 -0.0458339 0)
(6.63611 -0.0678244 0)
(6.33163 -0.0822884 0)
(6.16062 -0.0875624 0)
(5.74788 -0.0953652 0)
(9.85919 -1.0217 0)
(9.34336 -0.577579 0)
(8.48272 -0.242312 0)
(7.62581 -0.129981 0)
(7.10951 -0.0805897 0)
(6.68452 -0.0585819 0)
(6.40384 -0.0470218 0)
(6.16578 -0.0319628 0)
(5.98178 -0.029129 0)
(5.79283 -0.0252305 0)
(5.72866 -0.0156234 0)
(5.53624 -0.0229781 0)
(5.50216 -0.017324 0)
(5.32418 -0.0231388 0)
(5.25631 -0.0256844 0)
(5.08304 -0.0271447 0)
(4.96067 -0.0414798 0)
(4.69287 -0.0516266 0)
(4.53164 -0.0537697 0)
(4.15029 -0.062676 0)
(8.60027 -0.871751 0)
(6.9497 -0.383701 0)
(5.81416 -0.12205 0)
(5.04716 -0.0509686 0)
(4.66208 -0.0277204 0)
(4.37107 -0.0206259 0)
(4.17765 -0.0180164 0)
(4.01346 -0.0109221 0)
(3.89348 -0.010207 0)
(3.76855 -0.0102133 0)
(3.72183 -0.0046603 0)
(3.59992 -0.00946903 0)
(3.56852 -0.0068934 0)
(3.44764 -0.00975426 0)
(3.39078 -0.0117255 0)
(3.26381 -0.0118684 0)
(3.16292 -0.0193703 0)
(2.95358 -0.0252924 0)
(2.81121 -0.0252971 0)
(2.50789 -0.0323397 0)
(5.32855 -0.309379 0)
(2.98583 -0.0607203 0)
(2.19662 0.00161652 0)
(1.84462 0.00345601 0)
(1.709 0.0014286 0)
(1.60959 0.000314144 0)
(1.53691 -0.000699732 0)
(1.47503 0.000609549 0)
(1.43601 0.00011189 0)
(1.38857 -0.000830195 0)
(1.37 0.000795654 0)
(1.32779 -0.000931721 0)
(1.3097 -0.000166684 0)
(1.26167 -0.000818406 0)
(1.22893 -0.00145478 0)
(1.1705 -0.00089639 0)
(1.11584 -0.00253162 0)
(1.00591 -0.00400309 0)
(0.915439 -0.00327455 0)
(0.765448 -0.00140734 0)
(3.32695 -0.585552 0)
(4.21479 -1.4635 0)
(4.23194 -2.41191 0)
(5.07985 -3.02502 0)
(3.969 -3.50569 0)
(4.16147 -3.62689 0)
(2.28806 -3.52054 0)
(2.11455 -3.17767 0)
(-0.54832 -2.59595 0)
(-0.364995 -1.73209 0)
(-0.830631 0.503027 0)
(0.0948983 3.17912 0)
(0.775323 5.20388 0)
(1.62424 7.92859 0)
(1.54526 8.52944 0)
(3.8412 6.08764 0)
(3.86406 3.57907 0)
(3.32767 3.2604 0)
(4.15973 3.10255 0)
(6.1653 1.73659 0)
(7.06388 0.794345 0)
(8.24309 -0.0705449 0)
(9.63391 -1.44786 0)
(10.1486 -2.31897 0)
(10.9039 -3.18198 0)
(11.5396 -4.02996 0)
(11.8165 -4.50245 0)
(12.1343 -5.16768 0)
(12.3791 -5.69035 0)
(12.864 -6.13571 0)
(13.4298 -6.72328 0)
(13.5408 -6.96444 0)
(13.3436 -7.04015 0)
(12.9784 -7.16815 0)
(12.3982 -6.94556 0)
(11.939 -6.811 0)
(11.6275 -6.93162 0)
(11.2177 -6.69096 0)
(10.7756 -6.51849 0)
(10.6624 -6.66456 0)
(10.373 -6.5571 0)
(9.89455 -6.20598 0)
(9.8726 -6.30687 0)
(10.1718 -6.62523 0)
(10.1431 -6.55635 0)
(10.0489 -6.29955 0)
(9.94615 -6.06741 0)
(10.0437 -5.95234 0)
(10.4323 -5.7223 0)
(10.8353 -5.42624 0)
(11.4174 -5.11134 0)
(11.6909 -4.38877 0)
(11.8588 -3.42172 0)
(11.9214 -2.4815 0)
(11.9536 -1.43349 0)
(11.8961 -0.408085 0)
(11.7394 0.524813 0)
(11.4929 1.51587 0)
(11.3638 2.46309 0)
(10.8968 3.21873 0)
(10.3573 3.74855 0)
(9.68875 3.78727 0)
(9.40791 3.98273 0)
(8.98733 4.19915 0)
(8.60907 4.11319 0)
(8.29984 3.91474 0)
(7.9171 3.44643 0)
(7.74329 3.12596 0)
(7.45065 2.80498 0)
(7.28762 2.33871 0)
(7.36207 2.28721 0)
(7.38356 2.32329 0)
(7.68874 1.87272 0)
(8.37942 1.19341 0)
(8.70332 0.653323 0)
(8.75179 0.488136 0)
(8.75709 1.55296 0)
(8.21371 3.38568 0)
(8.02872 4.54421 0)
(7.57998 5.71401 0)
(7.65203 6.56202 0)
(8.04316 6.66883 0)
(8.17297 7.49621 0)
(8.26428 8.53409 0)
(8.34455 8.98893 0)
(8.49645 9.30026 0)
(8.86294 9.39872 0)
(8.97127 8.47536 0)
(8.86739 6.41814 0)
(8.65303 4.27284 0)
(8.61928 2.55097 0)
(8.61541 0.535864 0)
(8.49749 -1.23177 0)
(8.29387 -1.96198 0)
(8.0378 -2.97101 0)
(7.90429 -4.55245 0)
(7.73003 -5.61566 0)
(7.69257 -6.39872 0)
(7.5307 -7.80176 0)
(7.04082 -9.11062 0)
(6.61485 -8.77522 0)
(5.86932 -7.61843 0)
(5.63524 -7.32694 0)
(5.50925 -7.94482 0)
(5.51044 -8.71984 0)
(5.63288 -9.09684 0)
(5.66842 -8.96634 0)
(5.78042 -8.52092 0)
(5.81455 -7.97406 0)
(5.91353 -7.47273 0)
(6.21582 -6.85174 0)
(6.60685 -6.12853 0)
(7.01541 -5.34027 0)
(7.48589 -4.47457 0)
(7.91862 -3.38669 0)
(8.45329 -2.32673 0)
(9.01594 -1.49954 0)
(9.38873 -0.552914 0)
(9.56226 0.584616 0)
(9.78688 1.82884 0)
(10.1014 2.67123 0)
(10.2649 3.17067 0)
(10.7957 4.34127 0)
(10.8333 5.01468 0)
(10.4846 4.57166 0)
(10.6724 4.97042 0)
(10.7226 5.69476 0)
(10.3252 5.94089 0)
(10.1576 6.83541 0)
(9.88268 7.46482 0)
(9.09434 6.96108 0)
(8.71084 6.7005 0)
(8.38161 7.03237 0)
(7.95585 6.8067 0)
(7.37983 6.04659 0)
(6.8766 5.69185 0)
(6.74232 5.81426 0)
(6.57593 6.20412 0)
(6.59172 6.04119 0)
(6.29798 6.02995 0)
(6.25498 5.84992 0)
(6.48939 6.19778 0)
(6.42901 6.14118 0)
(6.50038 6.72865 0)
(7.0125 6.59418 0)
(7.06377 5.7218 0)
(7.00087 4.39423 0)
(6.58899 2.97458 0)
(6.17222 1.48544 0)
(5.98356 0.510502 0)
(5.81668 -0.226316 0)
(5.90756 -0.705388 0)
(6.14007 -1.61633 0)
(6.39901 -2.5087 0)
(6.63608 -3.31917 0)
(6.79155 -4.71846 0)
(7.05345 -6.56058 0)
(7.28023 -8.63763 0)
(7.17576 -10.1743 0)
(8.03862 -10.5446 0)
(7.02495 -10.3602 0)
(8.55091 -9.43382 0)
(7.75807 -8.57617 0)
(8.03451 -6.50245 0)
(7.67729 -4.83923 0)
(7.53865 -3.39123 0)
(7.38663 -1.88671 0)
(6.76581 -0.790659 0)
(6.8385 -1.09035 0)
(6.90572 -0.694437 0)
(6.08858 -0.0733218 0)
(6.00193 -0.575131 0)
(6.72617 -0.952386 0)
(6.91543 -1.1707 0)
(6.54814 -1.58937 0)
(6.739 -1.50882 0)
(6.69484 -1.4478 0)
(7.02122 -1.55315 0)
(7.51965 -1.49298 0)
(7.72974 -1.16661 0)
(8.375 -0.498074 0)
(8.51539 0.29982 0)
(9.10102 1.13704 0)
(9.28208 2.03025 0)
(9.52107 2.59154 0)
(9.07446 2.87322 0)
(8.86298 3.01353 0)
(8.14381 3.22365 0)
(8.03387 3.64891 0)
(7.68373 4.60075 0)
(7.63477 5.53135 0)
(7.27463 6.24837 0)
(7.14268 6.98975 0)
(7.04514 7.66205 0)
(6.75066 8.2273 0)
(6.3211 8.39647 0)
(5.68268 9.11368 0)
(5.39955 10.0953 0)
(5.41223 11.0905 0)
(2.84665 13.791 0)
(5.22137 -0.74543 0)
(6.03969 -1.43437 0)
(5.55728 -2.44446 0)
(6.42644 -3.05688 0)
(5.15125 -3.3787 0)
(5.73785 -3.27793 0)
(3.69675 -3.06381 0)
(3.54961 -2.59637 0)
(1.01675 -1.99307 0)
(0.885035 -1.55901 0)
(-0.0421919 0.357324 0)
(0.450015 2.85572 0)
(1.63958 4.91169 0)
(2.19819 7.64371 0)
(3.14976 8.18006 0)
(4.82491 6.09987 0)
(5.49995 3.89913 0)
(4.40625 3.20148 0)
(5.13302 2.60589 0)
(6.96526 1.21393 0)
(7.66888 0.371388 0)
(9.02172 -0.54204 0)
(10.4877 -1.82635 0)
(11.0207 -2.59008 0)
(11.68 -3.42954 0)
(12.128 -4.18976 0)
(12.3142 -4.60928 0)
(12.7756 -5.32774 0)
(13.2031 -5.90001 0)
(13.6526 -6.3352 0)
(13.887 -6.79943 0)
(13.6293 -6.87889 0)
(13.2396 -6.87809 0)
(12.817 -6.96326 0)
(12.2798 -6.72512 0)
(11.9297 -6.65604 0)
(11.6692 -6.77604 0)
(11.2514 -6.52533 0)
(10.8397 -6.42588 0)
(10.7077 -6.56556 0)
(10.3634 -6.39222 0)
(9.91943 -6.11919 0)
(9.98585 -6.35388 0)
(10.2294 -6.68641 0)
(10.0159 -6.54134 0)
(9.81466 -6.25793 0)
(9.69964 -6.10859 0)
(9.85661 -6.08888 0)
(10.2673 -5.94125 0)
(10.6585 -5.62705 0)
(11.1952 -5.24186 0)
(11.3899 -4.47911 0)
(11.4727 -3.44691 0)
(11.5067 -2.47422 0)
(11.5666 -1.42926 0)
(11.5185 -0.360883 0)
(11.3303 0.624779 0)
(11.0988 1.59708 0)
(11.0083 2.56224 0)
(10.581 3.40603 0)
(10.0636 3.99278 0)
(9.41248 4.00453 0)
(9.10365 4.15052 0)
(8.72122 4.35522 0)
(8.33931 4.25826 0)
(8.09599 4.05025 0)
(7.73309 3.57263 0)
(7.55052 3.23247 0)
(7.31781 2.88038 0)
(7.15102 2.37284 0)
(7.24021 2.25511 0)
(7.30399 2.23097 0)
(7.64218 1.68596 0)
(8.30295 1.00448 0)
(8.53201 0.560999 0)
(8.5356 0.529486 0)
(8.42154 1.70105 0)
(7.92746 3.50389 0)
(7.69959 4.64353 0)
(7.22424 5.79948 0)
(7.41184 6.44319 0)
(7.9625 6.54099 0)
(8.20309 7.43205 0)
(8.30495 8.47094 0)
(8.35846 8.87818 0)
(8.52498 9.20322 0)
(8.92954 9.31158 0)
(9.07012 8.47298 0)
(9.0318 6.43834 0)
(8.91478 4.31914 0)
(8.93453 2.57523 0)
(8.91491 0.569451 0)
(8.68785 -1.14122 0)
(8.37393 -1.8609 0)
(8.15151 -2.89056 0)
(8.09415 -4.50892 0)
(7.94895 -5.56325 0)
(7.91352 -6.32301 0)
(7.72213 -7.68296 0)
(7.19006 -8.91487 0)
(6.71167 -8.52311 0)
(5.91869 -7.40515 0)
(5.61305 -7.21729 0)
(5.39161 -7.91858 0)
(5.33365 -8.7436 0)
(5.37407 -9.10362 0)
(5.36517 -8.96745 0)
(5.4374 -8.51144 0)
(5.39772 -8.00627 0)
(5.4812 -7.55725 0)
(5.75438 -6.99786 0)
(6.11421 -6.29546 0)
(6.51031 -5.49533 0)
(6.98633 -4.63874 0)
(7.39178 -3.62475 0)
(7.98319 -2.55856 0)
(8.57359 -1.64404 0)
(8.88384 -0.685317 0)
(9.03637 0.490586 0)
(9.34418 1.76294 0)
(9.666 2.52363 0)
(9.85636 3.0189 0)
(10.4377 4.27452 0)
(10.4682 5.00689 0)
(10.1775 4.5931 0)
(10.4521 4.98402 0)
(10.5052 5.70045 0)
(10.172 5.99773 0)
(10.0954 6.95595 0)
(9.83072 7.66911 0)
(9.08049 7.18425 0)
(8.71573 6.86188 0)
(8.42454 7.17324 0)
(7.99666 7.00689 0)
(7.50808 6.24912 0)
(6.95411 5.84823 0)
(6.8597 5.84896 0)
(6.67798 6.24034 0)
(6.75991 6.11058 0)
(6.47804 6.08193 0)
(6.4577 5.7957 0)
(6.6903 6.12964 0)
(6.76061 6.10105 0)
(6.81401 6.56834 0)
(7.34531 6.5195 0)
(7.4714 5.73091 0)
(7.52114 4.48375 0)
(7.23585 3.12769 0)
(6.82474 1.63568 0)
(6.68652 0.545155 0)
(6.43438 -0.192441 0)
(6.40912 -0.735163 0)
(6.66049 -1.7001 0)
(6.84946 -2.63551 0)
(7.11639 -3.39121 0)
(7.22808 -4.76041 0)
(7.52144 -6.6157 0)
(7.6051 -8.7631 0)
(7.60508 -10.2708 0)
(8.22174 -10.5684 0)
(7.36338 -10.522 0)
(8.92329 -9.5083 0)
(7.62153 -8.50906 0)
(8.18452 -6.37524 0)
(7.42589 -4.75202 0)
(7.35297 -3.23313 0)
(7.13791 -1.7614 0)
(6.52079 -0.685709 0)
(6.75104 -1.10328 0)
(6.59682 -0.506526 0)
(5.73703 0.0973429 0)
(5.84016 -0.73003 0)
(6.54068 -1.15918 0)
(6.70266 -1.1755 0)
(6.376 -1.57158 0)
(6.51308 -1.48546 0)
(6.54844 -1.60402 0)
(6.71646 -1.74819 0)
(7.47465 -1.60292 0)
(7.5458 -1.33861 0)
(8.22724 -0.681208 0)
(8.43141 0.181261 0)
(8.98863 0.946176 0)
(9.23433 1.89101 0)
(9.52229 2.67484 0)
(9.19774 3.0056 0)
(9.06974 3.16033 0)
(8.32577 3.43206 0)
(8.20048 3.78922 0)
(7.82985 4.66238 0)
(7.7809 5.63291 0)
(7.37537 6.35643 0)
(7.21892 7.07561 0)
(7.15117 7.70862 0)
(6.91082 8.35668 0)
(6.68503 8.57648 0)
(6.07204 9.26628 0)
(5.88304 10.2656 0)
(6.57597 11.0398 0)
(4.11536 14.6236 0)
(6.65512 -0.970313 0)
(7.69204 -1.49814 0)
(6.93156 -2.44861 0)
(7.87455 -2.97213 0)
(6.56235 -3.19046 0)
(6.83733 -3.03701 0)
(5.3428 -2.62812 0)
(4.89188 -2.20112 0)
(2.90901 -1.42937 0)
(2.32479 -1.23688 0)
(0.865718 0.41732 0)
(1.14973 2.61399 0)
(2.53831 4.43872 0)
(2.52872 6.99993 0)
(4.63561 7.66454 0)
(6.06237 5.94147 0)
(7.30349 4.02963 0)
(6.47018 3.19455 0)
(7.02917 2.32275 0)
(8.45895 0.838105 0)
(9.21604 -0.0976664 0)
(10.346 -0.945586 0)
(11.561 -2.1234 0)
(11.8637 -2.84634 0)
(12.3198 -3.66626 0)
(12.6799 -4.35721 0)
(13.0167 -4.79343 0)
(13.6399 -5.54015 0)
(13.9841 -6.04485 0)
(14.1391 -6.38846 0)
(13.9961 -6.72433 0)
(13.4983 -6.7203 0)
(13.0862 -6.71309 0)
(12.6684 -6.76705 0)
(12.2216 -6.56354 0)
(11.9916 -6.5647 0)
(11.6758 -6.63249 0)
(11.2403 -6.36424 0)
(10.8995 -6.3404 0)
(10.7298 -6.44497 0)
(10.3225 -6.22367 0)
(9.96195 -6.092 0)
(10.0872 -6.40938 0)
(10.2083 -6.6588 0)
(9.83409 -6.43818 0)
(9.55454 -6.15346 0)
(9.46286 -6.12691 0)
(9.68209 -6.20718 0)
(10.076 -6.11962 0)
(10.451 -5.78591 0)
(10.905 -5.32354 0)
(10.9978 -4.52076 0)
(11.0119 -3.44037 0)
(11.0227 -2.46818 0)
(11.105 -1.43566 0)
(11.0633 -0.319675 0)
(10.8499 0.700303 0)
(10.6126 1.67159 0)
(10.556 2.66381 0)
(10.1947 3.56388 0)
(9.72382 4.18263 0)
(9.12361 4.18131 0)
(8.79541 4.29119 0)
(8.43248 4.49344 0)
(8.02761 4.39143 0)
(7.85456 4.1656 0)
(7.51413 3.67931 0)
(7.32761 3.31872 0)
(7.15987 2.94465 0)
(6.99833 2.40202 0)
(7.10377 2.21795 0)
(7.21923 2.11704 0)
(7.59113 1.48544 0)
(8.17086 0.862434 0)
(8.32713 0.517741 0)
(8.29445 0.592102 0)
(8.05277 1.8568 0)
(7.58867 3.63781 0)
(7.31055 4.77177 0)
(6.87883 5.83838 0)
(7.19712 6.2653 0)
(7.84825 6.37272 0)
(8.16476 7.35571 0)
(8.27681 8.3882 0)
(8.32425 8.79623 0)
(8.51198 9.08971 0)
(8.95612 9.21457 0)
(9.13146 8.43685 0)
(9.19507 6.47379 0)
(9.14658 4.31343 0)
(9.20849 2.58584 0)
(9.1504 0.650691 0)
(8.80878 -1.04704 0)
(8.44443 -1.76613 0)
(8.30828 -2.83034 0)
(8.32274 -4.48895 0)
(8.19026 -5.52712 0)
(8.13745 -6.24063 0)
(7.90712 -7.55665 0)
(7.32887 -8.6996 0)
(6.79195 -8.24903 0)
(5.95231 -7.17342 0)
(5.56436 -7.07711 0)
(5.25399 -7.87939 0)
(5.13606 -8.72384 0)
(5.09756 -9.08347 0)
(5.03689 -8.94734 0)
(5.05083 -8.48988 0)
(4.94506 -8.02195 0)
(5.01449 -7.63051 0)
(5.2403 -7.12256 0)
(5.60673 -6.43998 0)
(6.00223 -5.64912 0)
(6.45079 -4.82807 0)
(6.84826 -3.86902 0)
(7.47913 -2.7907 0)
(8.04584 -1.79379 0)
(8.30015 -0.799268 0)
(8.48548 0.391085 0)
(8.8856 1.65722 0)
(9.18711 2.3561 0)
(9.43183 2.88727 0)
(10.0245 4.19538 0)
(10.0101 4.96106 0)
(9.7876 4.61479 0)
(10.1304 5.02684 0)
(10.1865 5.7138 0)
(9.92986 6.05304 0)
(9.98189 7.06619 0)
(9.72632 7.83751 0)
(9.02689 7.37005 0)
(8.69656 7.00908 0)
(8.45306 7.30401 0)
(8.00319 7.19585 0)
(7.60742 6.45054 0)
(7.01609 6.00666 0)
(6.95029 5.88872 0)
(6.76689 6.2588 0)
(6.90587 6.16041 0)
(6.68735 6.11966 0)
(6.62627 5.77793 0)
(6.82232 6.04949 0)
(7.11659 6.04843 0)
(7.17884 6.44134 0)
(7.67682 6.44792 0)
(7.87057 5.71521 0)
(7.95974 4.54936 0)
(7.82622 3.23541 0)
(7.47733 1.74849 0)
(7.3375 0.590243 0)
(7.10451 -0.142139 0)
(6.94418 -0.739264 0)
(7.21486 -1.73929 0)
(7.33299 -2.76795 0)
(7.57641 -3.47265 0)
(7.67182 -4.79138 0)
(7.95122 -6.66242 0)
(7.9368 -8.83336 0)
(8.01628 -10.3062 0)
(8.43672 -10.6287 0)