/*--------------------------------*- C++ -*----------------------------------*\
| =========                 |                                                 |
| \\      /  F ield         | OpenFOAM: The Open Source CFD Toolbox           |
|  \\    /   O peration     | Version:  2.4.0                                 |
|   \\  /    A nd           | Web:      www.OpenFOAM.org                      |
|    \\/     M anipulation  |                                                 |
\*---------------------------------------------------------------------------*/
FoamFile
{
    version     2.0;
    format      ascii;
    class       surfaceScalarField;
    location    "0.135";
    object      phi_0;
}
// * * * * * * * * * * * * * * * * * * * * * * * * * * * * * * * * * * * * * //

dimensions      [0 3 -1 0 0 0 0];

internalField   nonuniform List<scalar> 
34680
(
2.40736e-05
9.26448e-07
2.16929e-05
2.38064e-06
1.88207e-05
2.87222e-06
1.6045e-05
2.77565e-06
1.36226e-05
2.42243e-06
1.16545e-05
1.96806e-06
1.01555e-05
1.49903e-06
9.05486e-06
1.10065e-06
8.27554e-06
7.79322e-07
7.73699e-06
5.38556e-07
7.36422e-06
3.72763e-07
7.10093e-06
2.6329e-07
6.9145e-06
1.86429e-07
6.76734e-06
1.47164e-07
6.64907e-06
1.18274e-07
6.5488e-06
1.00268e-07
6.46078e-06
8.80202e-08
6.38076e-06
8.00201e-08
6.31037e-06
7.0384e-08
6.23992e-06
7.04506e-08
6.1786e-06
6.13249e-08
6.11898e-06
5.96155e-08
6.06227e-06
5.67156e-08
6.00893e-06
5.33374e-08
5.96157e-06
4.7357e-08
5.90863e-06
5.29424e-08
5.86696e-06
4.1671e-08
5.82264e-06
4.4322e-08
5.78211e-06
4.0523e-08
5.74138e-06
4.07323e-08
5.71048e-06
3.09023e-08
5.66708e-06
4.33957e-08
5.63577e-06
3.13147e-08
5.59166e-06
4.41106e-08
5.54906e-06
4.26015e-08
5.48696e-06
6.20937e-08
5.41222e-06
7.47407e-08
5.29803e-06
1.14194e-07
5.07415e-06
2.23875e-07
7.60011e-08
4.99815e-06
2.52169e-05
7.09516e-07
2.55483e-05
2.04926e-06
2.55686e-05
2.85194e-06
2.52373e-05
3.10698e-06
2.46311e-05
3.02858e-06
2.38742e-05
2.725e-06
2.30702e-05
2.30299e-06
2.22787e-05
1.89216e-06
2.15436e-05
1.51444e-06
2.08732e-05
1.20899e-06
2.02702e-05
9.75761e-07
1.97286e-05
8.04831e-07
1.9246e-05
6.69066e-07
1.88077e-05
5.85406e-07
1.8415e-05
5.10987e-07
1.80611e-05
4.5422e-07
1.77415e-05
4.07632e-07
1.74536e-05
3.67869e-07
1.71936e-05
3.30392e-07
1.69543e-05
3.09804e-07
1.67414e-05
2.74131e-07
1.65421e-05
2.58929e-07
1.63626e-05
2.36228e-07
1.6195e-05
2.20994e-07
1.60443e-05
1.98016e-07
1.58939e-05
2.03381e-07
1.57685e-05
1.67042e-07
1.56359e-05
1.76951e-07
1.55261e-05
1.50301e-07
1.54076e-05
1.59228e-07
1.53181e-05
1.20446e-07
1.52004e-05
1.61002e-07
1.51257e-05
1.06104e-07
1.50081e-05
1.6165e-07
1.49369e-05
1.13866e-07
1.4774e-05
2.24925e-07
1.46877e-05
1.61102e-07
1.44961e-05
3.05779e-07
1.4533e-05
1.86991e-07
2.79228e-07
1.43297e-05
2.5167e-05
5.42475e-07
2.56254e-05
1.59094e-06
2.61405e-05
2.33676e-06
2.65638e-05
2.6837e-06
2.68784e-05
2.71398e-06
2.70579e-05
2.54549e-06
2.71258e-05
2.23514e-06
2.70986e-05
1.91937e-06
2.70077e-05
1.60536e-06
2.68726e-05
1.34408e-06
2.67046e-05
1.14372e-06
2.65202e-05
9.89209e-07
2.63189e-05
8.70394e-07
2.61099e-05
7.94408e-07
2.58951e-05
7.25769e-07
2.56864e-05
6.62933e-07
2.54725e-05
6.21571e-07
2.52721e-05
5.68219e-07
2.50671e-05
5.3543e-07
2.48728e-05
5.04077e-07
2.46806e-05
4.66364e-07
2.4502e-05
4.3751e-07
2.43153e-05
4.22965e-07
2.41585e-05
3.77776e-07
2.39806e-05
3.75844e-07
2.38301e-05
3.53977e-07
2.3666e-05
3.31137e-07
2.35312e-05
3.1175e-07
2.33667e-05
3.1473e-07
2.32565e-05
2.69412e-07
2.31002e-05
2.76807e-07
2.29971e-05
2.64066e-07
2.28431e-05
2.60139e-07
2.2755e-05
2.49747e-07
2.25963e-05
2.72547e-07
2.25559e-05
2.65317e-07
2.23724e-05
3.44568e-07
2.22949e-05
3.8331e-07
2.21368e-05
3.45122e-07
-1.96934e-08
2.24357e-05
2.51312e-05
4.11305e-07
2.5501e-05
1.22106e-06
2.59707e-05
1.86713e-06
2.64329e-05
2.22144e-06
2.68844e-05
2.26254e-06
2.72469e-05
2.18301e-06
2.75643e-05
1.91766e-06
2.78108e-05
1.67289e-06
2.80104e-05
1.4058e-06
2.81549e-05
1.19954e-06
2.82787e-05
1.0199e-06
2.83469e-05
9.2101e-07
2.84153e-05
8.01989e-07
2.84488e-05
7.60911e-07
2.84861e-05
6.88478e-07
2.84966e-05
6.52454e-07
2.85062e-05
6.12001e-07
2.84946e-05
5.79758e-07
2.84889e-05
5.41155e-07
2.8462e-05
5.30993e-07
2.84509e-05
4.77399e-07
2.84207e-05
4.67778e-07
2.84015e-05
4.42178e-07
2.83681e-05
4.1114e-07
2.83409e-05
4.03002e-07
2.8294e-05
4.00953e-07
2.82595e-05
3.65634e-07
2.82123e-05
3.58941e-07
2.81656e-05
3.61456e-07
2.81279e-05
3.07016e-07
2.80769e-05
3.27899e-07
2.80401e-05
3.00869e-07
2.79795e-05
3.20682e-07
2.79439e-05
2.85374e-07
2.78287e-05
3.87738e-07
2.78104e-05
2.83637e-07
2.78512e-05
3.03736e-07
2.81264e-05
1.08116e-07
2.85039e-05
-3.24139e-08
-3.78249e-07
2.88625e-05
2.51205e-05
2.90837e-07
2.53462e-05
9.95296e-07
2.5823e-05
1.39034e-06
2.62134e-05
1.83102e-06
2.66831e-05
1.79288e-06
2.70202e-05
1.84594e-06
2.74073e-05
1.53048e-06
2.76074e-05
1.4728e-06
2.79067e-05
1.10657e-06
2.80475e-05
1.05867e-06
2.82815e-05
7.85949e-07
2.8368e-05
8.34515e-07
2.85759e-05
5.94068e-07
2.86206e-05
7.16255e-07
2.88079e-05
5.0116e-07
2.88166e-05
6.43691e-07
2.899e-05
4.38613e-07
2.89799e-05
5.89848e-07
2.91458e-05
3.75343e-07
2.913e-05
5.46753e-07
2.92912e-05
3.16203e-07
2.92579e-05
5.0111e-07
2.94145e-05
2.85542e-07
2.93753e-05
4.50328e-07
2.95351e-05
2.43164e-07
2.94832e-05
4.52929e-07
2.96459e-05
2.02881e-07
2.95822e-05
4.2264e-07
2.97472e-05
1.96461e-07
2.96677e-05
3.86503e-07
2.98395e-05
1.5609e-07
2.97468e-05
3.93577e-07
2.99375e-05
1.30058e-07
2.9846e-05
3.76804e-07
3.01036e-05
1.30176e-07
2.99649e-05
4.22361e-07
3.00441e-05
2.24462e-07
2.93383e-05
8.13934e-07
2.87326e-05
5.7333e-07
6.29355e-07
2.7725e-05
2.50881e-05
2.02771e-07
2.52948e-05
7.8852e-07
2.56654e-05
1.01981e-06
2.60693e-05
1.42712e-06
2.64933e-05
1.3689e-06
2.68478e-05
1.49141e-06
2.71641e-05
1.2142e-06
2.74468e-05
1.19008e-06
2.76747e-05
8.78707e-07
2.78644e-05
8.68977e-07
2.8047e-05
6.03264e-07
2.8205e-05
6.76541e-07
2.83274e-05
4.71708e-07
2.84575e-05
5.86165e-07
2.85731e-05
3.85496e-07
2.86934e-05
5.2344e-07
2.87933e-05
3.38709e-07
2.89044e-05
4.78717e-07
2.89897e-05
2.90015e-07
2.90864e-05
4.50079e-07
2.91558e-05
2.46782e-07
2.9245e-05
4.1192e-07
2.93113e-05
2.19308e-07
2.94041e-05
3.57444e-07
2.94722e-05
1.75105e-07
2.95701e-05
3.54987e-07
2.96206e-05
1.52433e-07
2.97033e-05
3.3993e-07
2.97528e-05
1.46999e-07
2.98387e-05
3.00594e-07
2.98904e-05
1.0434e-07
2.99962e-05
2.87834e-07
3.00602e-05
6.60486e-08
3.01638e-05
2.73163e-07
3.02072e-05
8.68018e-08
3.03292e-05
3.00342e-07
3.04765e-05
7.71308e-08
3.09966e-05
2.9388e-07
3.1477e-05
9.29316e-08
7.78579e-08
3.20285e-05
2.50466e-05
1.56207e-07
2.52913e-05
5.43745e-07
2.5555e-05
7.56118e-07
2.59635e-05
1.01868e-06
2.63046e-05
1.02779e-06
2.6706e-05
1.09002e-06
2.69932e-05
9.26927e-07
2.73108e-05
8.72547e-07
2.74878e-05
7.01649e-07
2.77379e-05
6.18889e-07
2.78602e-05
4.80992e-07
2.80561e-05
4.80644e-07
2.81479e-05
3.79933e-07
2.83368e-05
3.97258e-07
2.83963e-05
3.25981e-07
2.85664e-05
3.53354e-07
2.86114e-05
2.9365e-07
2.87744e-05
3.15728e-07
2.87894e-05
2.75012e-07
2.89651e-05
2.74404e-07
2.89868e-05
2.25061e-07
2.91346e-05
2.64097e-07
2.91363e-05
2.17605e-07
2.92887e-05
2.0509e-07
2.92885e-05
1.75272e-07
2.94468e-05
1.96665e-07
2.94336e-05
1.65648e-07
2.95927e-05
1.80868e-07
2.95832e-05
1.56537e-07
2.97439e-05
1.39837e-07
2.97249e-05
1.23334e-07
2.99008e-05
1.11991e-07
2.98756e-05
9.11622e-08
3.00764e-05
7.23848e-08
3.00952e-05
6.80085e-08
3.03816e-05
1.39882e-08
3.04316e-05
2.70504e-08
3.07411e-05
-1.55212e-08
3.08719e-05
-3.79351e-08
-2.8197e-07
3.12317e-05
2.50402e-05
1.16003e-07
2.52379e-05
3.46039e-07
2.55061e-05
4.87948e-07
2.58716e-05
6.53168e-07
2.6219e-05
6.80389e-07
2.65936e-05
7.15448e-07
2.68867e-05
6.33774e-07
2.71835e-05
5.75745e-07
2.74198e-05
4.65418e-07
2.76066e-05
4.32016e-07
2.77707e-05
3.16884e-07
2.79371e-05
3.1433e-07
2.80612e-05
2.55817e-07
2.81831e-05
2.75306e-07
2.82924e-05
2.16708e-07
2.84194e-05
2.26308e-07
2.85251e-05
1.87973e-07
2.86201e-05
2.20782e-07
2.8727e-05
1.68078e-07
2.88349e-05
1.66545e-07
2.89141e-05
1.45865e-07
2.89844e-05
1.93785e-07
2.90703e-05
1.31678e-07
2.91352e-05
1.40166e-07
2.92131e-05
9.73477e-08
2.9291e-05
1.18816e-07
2.93703e-05
8.63122e-08
2.9424e-05
1.27162e-07
2.94985e-05
8.21107e-08
2.95604e-05
7.78594e-08
2.96518e-05
3.19269e-08
2.97225e-05
4.12872e-08
2.98415e-05
-2.7786e-08
2.99302e-05
-1.63696e-08
3.00776e-05
-7.93438e-08
3.01979e-05
-1.06349e-07
3.03954e-05
-1.70454e-07
3.05952e-05
-2.15254e-07
3.08583e-05
-3.01097e-07
-3.41537e-07
3.09179e-05
2.50147e-05
1.01315e-07
2.5255e-05
1.05699e-07
2.5455e-05
2.87969e-07
2.58273e-05
2.80895e-07
2.61334e-05
3.74237e-07
2.6521e-05
3.27928e-07
2.67915e-05
3.63216e-07
2.71244e-05
2.42814e-07
2.73185e-05
2.71377e-07
2.75751e-05
1.75359e-07
2.76851e-05
2.06881e-07
2.78832e-05
1.16239e-07
2.79593e-05
1.79738e-07
2.81234e-05
1.11267e-07
2.82126e-05
1.27429e-07
2.83831e-05
5.58583e-08
2.84301e-05
1.40952e-07
2.85769e-05
7.396e-08
2.86244e-05
1.20637e-07
2.87734e-05
1.75195e-08
2.88018e-05
1.17432e-07
2.89447e-05
5.09536e-08
2.89766e-05
9.97202e-08
2.90913e-05
2.55145e-08
2.91164e-05
7.22078e-08
2.92538e-05
-1.86187e-08
2.92684e-05
7.17817e-08
2.93719e-05
2.36273e-08
2.94006e-05
5.33808e-08
2.95302e-05
-5.16931e-08
2.95586e-05
3.53117e-09
2.96858e-05
-8.59256e-08
2.97324e-05
-7.43461e-08
2.9878e-05
-1.62013e-07
2.99552e-05
-1.56591e-07
3.01331e-05
-2.84211e-07
3.02909e-05
-3.28286e-07
3.05242e-05
-4.48504e-07
3.07291e-05
-5.0597e-07
-4.25833e-07
3.08134e-05
2.50195e-05
8.1863e-08
2.52328e-05
-1.07698e-07
2.54531e-05
6.77553e-08
2.58006e-05
-6.65984e-08
2.61126e-05
6.22276e-08
2.64876e-05
-4.70991e-08
2.67699e-05
8.08712e-08
2.7086e-05
-7.32815e-08
2.73144e-05
4.29791e-08
2.7518e-05
-2.81809e-08
2.76631e-05
6.17124e-08
2.78299e-05
-5.04956e-08
2.79479e-05
6.17203e-08
2.80811e-05
-2.19317e-08
2.81981e-05
1.04337e-08
2.83167e-05
-6.27163e-08
2.84107e-05
4.68757e-08
2.85157e-05
-3.10088e-08
2.86351e-05
1.25363e-09
2.87252e-05
-7.25817e-08
2.88147e-05
2.79227e-08
2.88911e-05
-2.54466e-08
2.89701e-05
2.06812e-08
2.90279e-05
-3.22598e-08
2.91156e-05
-1.54523e-08
2.91822e-05
-8.52828e-08
2.92572e-05
-3.19878e-09
2.93059e-05
-2.50156e-08
2.93998e-05
-4.05786e-08
2.94573e-05
-1.09194e-07
2.95438e-05
-8.29138e-08
2.96023e-05
-1.44472e-07
2.97051e-05
-1.7711e-07
2.9786e-05
-2.4297e-07
2.9934e-05
-3.04541e-07
3.00703e-05
-4.20491e-07
3.02658e-05
-5.23831e-07
3.04707e-05
-6.5338e-07
3.06947e-05
-7.29979e-07
-5.91944e-07
3.08608e-05
2.50053e-05
7.65408e-08
2.52728e-05
-3.75211e-07
2.54273e-05
-8.67093e-08
2.583e-05
-4.69292e-07
2.60621e-05
-1.69857e-07
2.64999e-05
-4.84931e-07
2.67225e-05
-1.41719e-07
2.71231e-05
-4.73871e-07
2.72451e-05
-7.90709e-08
2.75709e-05
-3.53982e-07
2.76334e-05
-7.27335e-10
2.78933e-05
-3.10427e-07
2.79179e-05
3.71086e-08
2.81668e-05
-2.70813e-07
2.81659e-05
1.13789e-08
2.83858e-05
-2.82686e-07
2.83684e-05
6.43505e-08
2.8602e-05
-2.64634e-07
2.85737e-05
2.95354e-08
2.87636e-05
-2.62472e-07
2.87256e-05
6.59202e-08
2.89442e-05
-2.44022e-07
2.88985e-05
6.63958e-08
2.911e-05
-2.43794e-07
2.90596e-05
3.4959e-08
2.92523e-05
-2.77965e-07
2.91817e-05
6.7382e-08
2.93968e-05
-2.40107e-07
2.93384e-05
1.7758e-08
2.95384e-05
-3.09213e-07
2.94711e-05
-1.55655e-08
2.96772e-05
-3.50554e-07
2.95912e-05
-9.11245e-08
2.98198e-05
-4.71568e-07
2.97768e-05
-2.61523e-07
3.00781e-05
-7.21804e-07
3.01627e-05
-6.08426e-07
3.05367e-05
-1.02737e-06
3.06699e-05
-8.63196e-07
-9.56813e-07
3.10348e-05
2.50459e-05
3.06583e-08
2.52667e-05
-5.96029e-07
2.54705e-05
-2.9048e-07
2.58289e-05
-8.2768e-07
2.61337e-05
-4.74655e-07
2.65384e-05
-8.89716e-07
2.68239e-05
-4.27213e-07
2.71564e-05
-8.06326e-07
2.73088e-05
-2.31516e-07
2.75925e-05
-6.37634e-07
2.76798e-05
-8.80208e-08
2.7916e-05
-5.46622e-07
2.79796e-05
-2.65599e-08
2.82069e-05
-4.98028e-07
2.81993e-05
1.89822e-08
2.84154e-05
-4.98863e-07
2.84285e-05
5.12511e-08
2.86454e-05
-4.81494e-07
2.86169e-05
5.80733e-08
2.88069e-05
-4.52532e-07
2.87822e-05
9.06419e-08
2.89923e-05
-4.54093e-07
2.8956e-05
1.02656e-07
2.91558e-05
-4.43541e-07
2.90937e-05
9.70549e-08
2.92779e-05
-4.62174e-07
2.92286e-05
1.16601e-07
2.94565e-05
-4.67965e-07
2.93899e-05
8.43189e-08
2.95893e-05
-5.08618e-07
2.95083e-05
6.54603e-08
2.97175e-05
-5.59777e-07
2.96226e-05
3.82399e-09
2.98394e-05
-6.88352e-07
2.97426e-05
-1.64748e-07
2.99768e-05
-9.56014e-07
2.99252e-05
-5.56837e-07
3.05745e-05
-1.67669e-06
3.11392e-05
-1.42785e-06
-1.6654e-06
3.18478e-05
2.51378e-05
-1.07093e-07
2.51124e-05
-5.70669e-07
2.55646e-05
-7.42668e-07
2.57951e-05
-1.05817e-06
2.63161e-05
-9.95661e-07
2.65449e-05
-1.11857e-06
2.69897e-05
-8.71998e-07
2.71133e-05
-9.29898e-07
2.75204e-05
-6.38597e-07
2.75842e-05
-7.01417e-07
2.79231e-05
-4.26973e-07
2.79188e-05
-5.4235e-07
2.82149e-05
-3.22675e-07
2.8169e-05
-4.52059e-07
2.84438e-05
-2.55879e-07
2.83977e-05
-4.52749e-07
2.8666e-05
-2.1698e-07
2.85906e-05
-4.06123e-07
2.88417e-05
-1.93023e-07
2.87634e-05
-3.74241e-07
2.90134e-05
-1.5934e-07
2.89269e-05
-3.67579e-07
2.91827e-05
-1.53153e-07
2.90844e-05
-3.45305e-07
2.93274e-05
-1.45913e-07
2.92277e-05
-3.62494e-07
2.9486e-05
-1.4168e-07
2.93799e-05
-3.61831e-07
2.96279e-05
-1.63748e-07
2.94957e-05
-3.7635e-07
2.97498e-05
-1.88694e-07
2.96267e-05
-4.36668e-07
2.9885e-05
-2.54419e-07
2.97449e-05
-5.48341e-07
3.00121e-05
-4.31859e-07
2.98281e-05
-7.72021e-07
3e-05
-7.2881e-07
2.93792e-05
-1.05581e-06
2.88656e-05
-9.14283e-07
-1.12449e-06
2.83247e-05
2.51162e-05
-2.23308e-07
2.52181e-05
-6.72592e-07
2.56007e-05
-1.12528e-06
2.59105e-05
-1.36787e-06
2.63805e-05
-1.46573e-06
2.66604e-05
-1.39849e-06
2.7081e-05
-1.29253e-06
2.72671e-05
-1.11608e-06
2.75986e-05
-9.70041e-07
2.76881e-05
-7.90882e-07
2.79546e-05
-6.93564e-07
2.80036e-05
-5.91302e-07
2.82414e-05
-5.60528e-07
2.8278e-05
-4.88574e-07
2.8519e-05
-4.96934e-07
2.8507e-05
-4.40697e-07
2.87196e-05
-4.29647e-07
2.86969e-05
-3.83394e-07
2.89025e-05
-3.98626e-07
2.88751e-05
-3.46876e-07
2.90841e-05
-3.68287e-07
2.90421e-05
-3.25584e-07
2.92404e-05
-3.51463e-07
2.91952e-05
-3.00101e-07
2.9399e-05
-3.49747e-07
2.93482e-05
-3.11651e-07
2.95409e-05
-3.34383e-07
2.94813e-05
-3.02281e-07
2.96844e-05
-3.66833e-07
2.9613e-05
-3.04961e-07
2.98173e-05
-3.9295e-07
2.97547e-05
-3.74033e-07
2.99439e-05
-4.43641e-07
2.98463e-05
-4.50794e-07
2.99987e-05
-5.84194e-07
2.97862e-05
-5.59506e-07
2.97621e-05
-7.04728e-07
2.94233e-05
-7.17047e-07
2.93055e-05
-7.96488e-07
-6.99339e-07
2.88804e-05
2.51072e-05
-3.30505e-07
2.53353e-05
-9.00729e-07
2.56702e-05
-1.46018e-06
2.60579e-05
-1.75555e-06
2.64889e-05
-1.89673e-06
2.6848e-05
-1.75754e-06
2.71951e-05
-1.63965e-06
2.74544e-05
-1.37538e-06
2.76792e-05
-1.19489e-06
2.78598e-05
-9.71479e-07
2.80498e-05
-8.83552e-07
2.8183e-05
-7.24527e-07
2.83485e-05
-7.26034e-07
2.84581e-05
-5.98109e-07
2.85877e-05
-6.26593e-07
2.8679e-05
-5.31943e-07
2.88011e-05
-5.518e-07
2.88901e-05
-4.72322e-07
2.89979e-05
-5.0642e-07
2.90739e-05
-4.22926e-07
2.91703e-05
-4.64686e-07
2.92324e-05
-3.87692e-07
2.93257e-05
-4.44723e-07
2.93907e-05
-3.65164e-07
2.94744e-05
-4.33449e-07
2.95333e-05
-3.70509e-07
2.96108e-05
-4.11845e-07
2.96752e-05
-3.66737e-07
2.97523e-05
-4.43941e-07
2.98139e-05
-3.66556e-07
2.98829e-05
-4.61977e-07
2.9938e-05
-4.29073e-07
2.99826e-05
-4.8824e-07
2.99993e-05
-4.67485e-07
2.99576e-05
-5.42512e-07
2.99069e-05
-5.08777e-07
2.97909e-05
-5.88798e-07
2.9593e-05
-5.19073e-07
2.93368e-05
-5.40361e-07
-4.14266e-07
2.90518e-05
2.51147e-05
-4.45213e-07
2.53914e-05
-1.17741e-06
2.58024e-05
-1.87116e-06
2.62392e-05
-2.19238e-06
2.66646e-05
-2.32218e-06
2.70359e-05
-2.12884e-06
2.73829e-05
-1.98664e-06
2.76354e-05
-1.62786e-06
2.78771e-05
-1.43661e-06
2.80675e-05
-1.16179e-06
2.8249e-05
-1.0651e-06
2.83872e-05
-8.62748e-07
2.85359e-05
-8.74693e-07
2.86355e-05
-6.97729e-07
2.87619e-05
-7.52996e-07
2.88362e-05
-6.06212e-07
2.89507e-05
-6.66358e-07
2.90038e-05
-5.25432e-07
2.91092e-05
-6.11745e-07
2.91496e-05
-4.63308e-07
2.92475e-05
-5.62589e-07
2.92797e-05
-4.19957e-07
2.93779e-05
-5.42902e-07
2.93936e-05
-3.80908e-07
2.94835e-05
-5.23344e-07
2.94877e-05
-3.74694e-07
2.95769e-05
-5.01008e-07
2.95726e-05
-3.62457e-07
2.96577e-05
-5.29052e-07
2.96413e-05
-3.50109e-07
2.97229e-05
-5.43631e-07
2.96822e-05
-3.88394e-07
2.9756e-05
-5.61948e-07
2.96778e-05
-3.89287e-07
2.97166e-05
-5.81352e-07
2.95492e-05
-3.41392e-07
2.94671e-05
-5.06718e-07
2.917e-05
-2.21897e-07
2.89921e-05
-3.62497e-07
-7.50642e-08
2.86529e-05
2.5122e-05
-5.67251e-07
2.55082e-05
-1.56359e-06
2.59712e-05
-2.33414e-06
2.64484e-05
-2.66959e-06
2.68682e-05
-2.74196e-06
2.72615e-05
-2.52218e-06
2.75534e-05
-2.27851e-06
2.78176e-05
-1.89206e-06
2.79983e-05
-1.61729e-06
2.81641e-05
-1.3276e-06
2.82656e-05
-1.16658e-06
2.83633e-05
-9.60453e-07
2.84059e-05
-9.17357e-07
2.84637e-05
-7.55524e-07
2.84699e-05
-7.59196e-07
2.84997e-05
-6.35945e-07
2.84881e-05
-6.54749e-07
2.84978e-05
-5.35182e-07
2.84736e-05
-5.87493e-07
2.84711e-05
-4.609e-07
2.84369e-05
-5.28373e-07
2.84226e-05
-4.05648e-07
2.83758e-05
-4.96036e-07
2.83494e-05
-3.54527e-07
2.82979e-05
-4.71871e-07
2.82553e-05
-3.32136e-07
2.82031e-05
-4.48737e-07
2.81492e-05
-3.08614e-07
2.80831e-05
-4.62969e-07
2.80176e-05
-2.84575e-07
2.79444e-05
-4.70428e-07
2.78503e-05
-2.94262e-07
2.77695e-05
-4.81175e-07
2.76535e-05
-2.73259e-07
2.75661e-05
-4.94002e-07
2.74083e-05
-1.83531e-07
2.72558e-05
-3.5422e-07
2.69198e-05
1.14027e-07
2.65999e-05
-4.2524e-08
3.28545e-07
2.61963e-05
2.51548e-05
-7.22098e-07
2.56261e-05
-2.03485e-06
2.61447e-05
-2.85272e-06
2.65768e-05
-3.10172e-06
2.68717e-05
-3.03688e-06
2.70635e-05
-2.71393e-06
2.71104e-05
-2.32546e-06
2.71012e-05
-1.88281e-06
2.70027e-05
-1.51881e-06
2.68782e-05
-1.2031e-06
2.66982e-05
-9.86532e-07
2.65257e-05
-7.88008e-07
2.63036e-05
-6.9528e-07
2.61146e-05
-5.66533e-07
2.58814e-05
-5.25958e-07
2.56881e-05
-4.42603e-07
2.54587e-05
-4.25423e-07
2.52723e-05
-3.48745e-07
2.50468e-05
-3.61974e-07
2.48714e-05
-2.85518e-07
2.46554e-05
-3.1237e-07
2.44911e-05
-2.41337e-07
2.42785e-05
-2.8344e-07
2.413e-05
-2.06023e-07
2.39199e-05
-2.61777e-07
2.37763e-05
-1.88527e-07
2.35762e-05
-2.48642e-07
2.34368e-05
-1.69193e-07
2.32302e-05
-2.56446e-07
2.31035e-05
-1.57834e-07
2.28895e-05
-2.56422e-07
2.2759e-05
-1.63767e-07
2.25383e-05
-2.60425e-07
2.24101e-05
-1.45101e-07
2.21625e-05
-2.46372e-07
2.20832e-05
-1.04263e-07
2.1936e-05
-2.07012e-07
2.21058e-05
-5.58033e-08
2.2289e-05
-2.25708e-07
-1.40608e-07
2.27582e-05
2.52102e-05
-9.32255e-07
2.55508e-05
-2.37553e-06
2.55704e-05
-2.87224e-06
2.52403e-05
-2.77162e-06
2.46307e-05
-2.42733e-06
2.38798e-05
-1.96304e-06
2.3063e-05
-1.50863e-06
2.2278e-05
-1.09782e-06
2.15388e-05
-7.79616e-07
2.08725e-05
-5.36837e-07
2.02639e-05
-3.77902e-07
1.973e-05
-2.54094e-07
1.92335e-05
-1.98822e-07
1.88061e-05
-1.3908e-07
1.84034e-05
-1.23232e-07
1.80577e-05
-9.69755e-08
1.77272e-05
-9.4847e-08
1.74501e-05
-7.16328e-08
1.71724e-05
-8.4316e-08
1.69479e-05
-6.09883e-08
1.67118e-05
-7.62706e-08
1.65248e-05
-5.43377e-08
1.6317e-05
-7.56278e-08
1.61596e-05
-4.868e-08
1.59708e-05
-7.29365e-08
1.58322e-05
-4.99674e-08
1.5656e-05
-7.24166e-08
1.55325e-05
-4.57222e-08
1.53564e-05
-8.03404e-08
1.52444e-05
-4.58605e-08
1.50673e-05
-7.92915e-08
1.49568e-05
-5.32392e-08
1.47761e-05
-7.97606e-08
1.46789e-05
-4.78924e-08
1.45039e-05
-7.13962e-08
1.44356e-05
-3.59154e-08
1.42679e-05
-3.92887e-08
1.42536e-05
-4.15332e-08
1.41553e-05
-1.27419e-07
-2.90529e-07
1.43052e-05
2.40677e-05
2.16922e-05
1.882e-05
1.60484e-05
1.3621e-05
1.1658e-05
1.01493e-05
9.05153e-06
8.27191e-06
7.73507e-06
7.35717e-06
7.10308e-06
6.90426e-06
6.76518e-06
6.64194e-06
6.54497e-06
6.45012e-06
6.37849e-06
6.29417e-06
6.23319e-06
6.15691e-06
6.10258e-06
6.02695e-06
5.97827e-06
5.90533e-06
5.85537e-06
5.78295e-06
5.73723e-06
5.65689e-06
5.61103e-06
5.53173e-06
5.47849e-06
5.39873e-06
5.35084e-06
5.27945e-06
5.24353e-06
5.20424e-06
5.16271e-06
5.03529e-06
4.74476e-06
5.19226e-06
-1.72873e-07
-2.12391e-08
5.50716e-06
-2.16756e-07
-9.81343e-08
5.90323e-06
-2.05856e-07
-1.90223e-07
6.30208e-06
-1.55865e-07
-2.42984e-07
6.6879e-06
-1.03955e-07
-2.81863e-07
7.01154e-06
-2.6373e-08
-2.97268e-07
7.28911e-06
2.62937e-08
-3.03859e-07
7.56485e-06
5.63798e-08
-3.32126e-07
7.84949e-06
7.70174e-08
-3.61655e-07
8.14201e-06
8.76436e-08
-3.80164e-07
8.43516e-06
8.47101e-08
-3.77855e-07
8.72872e-06
6.68159e-08
-3.6038e-07
9.0249e-06
2.9971e-08
-3.26152e-07
9.32581e-06
-2.55164e-08
-2.75395e-07
9.62331e-06
-1.00751e-07
-1.96743e-07
9.90281e-06
-1.95935e-07
-8.35646e-08
1.0147e-05
-3.09068e-07
6.48946e-08
1.03463e-05
-4.42022e-07
2.42726e-07
1.05051e-05
-5.92631e-07
4.33769e-07
1.06354e-05
-7.58318e-07
6.2803e-07
1.07294e-05
-9.27603e-07
8.33585e-07
1.07549e-05
-1.09955e-06
1.07413e-06
1.07213e-05
-1.26488e-06
1.29842e-06
1.06709e-05
-1.41593e-06
1.46634e-06
1.06312e-05
-1.55193e-06
1.59161e-06
1.05906e-05
-1.66389e-06
1.70454e-06
1.05368e-05
-1.74825e-06
1.80206e-06
1.04469e-05
-1.79674e-06
1.88663e-06
1.02912e-05
-1.79477e-06
1.95049e-06
1.00512e-05
-1.73516e-06
1.97506e-06
9.67575e-06
-1.58232e-06
1.95781e-06
9.13312e-06
-1.32251e-06
1.86515e-06
8.51745e-06
-1.02929e-06
1.64497e-06
7.93207e-06
-7.10435e-07
1.29581e-06
7.49927e-06
-4.01777e-07
8.3458e-07
7.31709e-06
-1.21261e-07
3.03435e-07
7.28507e-06
1.83473e-07
-1.51454e-07
7.46034e-06
4.49339e-07
-6.24603e-07
7.81824e-06
6.91222e-07
-1.04912e-06
8.32108e-06
9.11406e-07
-1.41425e-06
8.9274e-06
1.11099e-06
-1.71731e-06
9.58667e-06
1.29122e-06
-1.95049e-06
1.02615e-05
1.45152e-06
-2.12638e-06
1.09277e-05
1.57347e-06
-2.2396e-06
1.15653e-05
1.69589e-06
-2.33359e-06
1.21745e-05
1.78766e-06
-2.39678e-06
1.27659e-05
1.84562e-06
-2.43702e-06
1.33238e-05
1.89389e-06
-2.45178e-06
1.38621e-05
1.91825e-06
-2.45661e-06
1.43795e-05
1.90342e-06
-2.42078e-06
1.48765e-05
1.87651e-06
-2.37347e-06
1.53453e-05
1.82694e-06
-2.29581e-06
1.58107e-05
1.73334e-06
-2.19874e-06
1.62425e-05
1.64031e-06
-2.07213e-06
1.66597e-05
1.51797e-06
-1.93515e-06
1.70588e-05
1.37123e-06
-1.7703e-06
1.74389e-05
1.21419e-06
-1.59431e-06
1.77866e-05
1.05621e-06
-1.40389e-06
1.81255e-05
8.60492e-07
-1.1994e-06
1.84395e-05
6.73144e-07
-9.87114e-07
1.87351e-05
4.86381e-07
-7.82035e-07
1.89926e-05
2.88258e-07
-5.45745e-07
1.92526e-05
7.19902e-08
-3.31952e-07
1.94758e-05
-8.76825e-08
-1.35551e-07
1.96681e-05
-3.00557e-07
1.08247e-07
1.98605e-05
-5.20983e-07
3.28564e-07
2.00156e-05
-6.76588e-07
5.21523e-07
2.01456e-05
-8.81294e-07
7.51279e-07
2.02848e-05
-1.09143e-06
9.5228e-07
2.03559e-05
-1.20637e-06
1.13526e-06
2.046e-05
-1.45636e-06
1.3522e-06
2.0547e-05
-1.60879e-06
1.52179e-06
2.05974e-05
-1.74162e-06
1.6912e-06
2.06817e-05
-1.98824e-06
1.90399e-06
2.07531e-05
-2.09542e-06
2.024e-06
2.07982e-05
-2.26477e-06
2.21965e-06
2.0897e-05
-2.47186e-06
2.37312e-06
2.09733e-05
-2.55829e-06
2.48196e-06
2.1083e-05
-2.77073e-06
2.66104e-06
2.12148e-05
-2.89579e-06
2.76394e-06
2.13865e-05
-3.02152e-06
2.8499e-06
2.1588e-05
-3.20024e-06
2.99868e-06
2.18432e-05
-3.28538e-06
3.03016e-06
2.21449e-05
-3.42428e-06
3.12266e-06
2.25124e-05
-3.55781e-06
3.19025e-06
2.29227e-05
-3.6318e-06
3.2215e-06
2.33931e-05
-3.76361e-06
3.29325e-06
2.39037e-05
-3.86459e-06
3.35395e-06
2.44567e-05
-3.94706e-06
3.39414e-06
2.50333e-05
-4.07131e-06
3.49471e-06
2.56367e-05
-4.15137e-06
3.5479e-06
2.62517e-05
-4.26076e-06
3.64577e-06
2.68668e-05
-4.35697e-06
3.7419e-06
2.74728e-05
-4.44667e-06
3.84069e-06
2.80761e-05
-4.54549e-06
3.94218e-06
2.86635e-05
-4.64805e-06
4.06066e-06
2.92227e-05
-4.7241e-06
4.16484e-06
2.97777e-05
-4.83948e-06
4.28451e-06
3.02757e-05
-4.91235e-06
4.41437e-06
3.07699e-05
-5.00869e-06
4.51446e-06
3.1214e-05
-5.10221e-06
4.65815e-06
3.16138e-05
-5.17988e-06
4.7801e-06
3.19768e-05
-5.26102e-06
4.89794e-06
3.22999e-05
-5.35879e-06
5.03572e-06
3.25591e-05
-5.41407e-06
5.15487e-06
3.27933e-05
-5.51183e-06
5.27761e-06
3.29568e-05
-5.57457e-06
5.41115e-06
3.30912e-05
-5.64752e-06
5.51311e-06
3.31522e-05
-5.71197e-06
5.6509e-06
3.31749e-05
-5.76666e-06
5.74399e-06
3.31352e-05
-5.82539e-06
5.86508e-06
3.30528e-05
-5.86821e-06
5.95063e-06
3.29199e-05
-5.92499e-06
6.05793e-06
3.27337e-05
-5.94822e-06
6.13437e-06
3.25139e-05
-5.99471e-06
6.21456e-06
3.22601e-05
-6.03172e-06
6.28549e-06
3.19772e-05
-6.0526e-06
6.33552e-06
3.16852e-05
-6.08543e-06
6.37738e-06
3.13858e-05
-6.12909e-06
6.42854e-06
3.10807e-05
-6.1421e-06
6.44717e-06
3.08161e-05
-6.20037e-06
6.46504e-06
3.0557e-05
-6.23271e-06
6.49177e-06
3.03529e-05
-6.29266e-06
6.49675e-06
3.01874e-05
-6.34572e-06
6.51123e-06
3.00928e-05
-6.42275e-06
6.51729e-06
3.00409e-05
-6.48721e-06
6.53914e-06
3.00588e-05
-6.56613e-06
6.54826e-06
3.01147e-05
-6.63568e-06
6.57974e-06
3.02325e-05
-6.70853e-06
6.59076e-06
3.03834e-05
-6.77602e-06
6.62507e-06
3.05723e-05
-6.82298e-06
6.63416e-06
3.07885e-05
-6.88195e-06
6.66569e-06
3.10179e-05
-6.90378e-06
6.67441e-06
3.1263e-05
-6.91579e-06
6.67065e-06
3.15051e-05
-6.89715e-06
6.6551e-06
3.17535e-05
-6.86826e-06
6.61987e-06
3.19849e-05
-6.79163e-06
6.56024e-06
3.22205e-05
-6.71401e-06
6.47839e-06
3.24336e-05
-6.58611e-06
6.37302e-06
3.26564e-05
-6.4498e-06
6.227e-06
3.2851e-05
-6.26021e-06
6.06555e-06
3.3055e-05
-6.05524e-06
5.85133e-06
3.32397e-05
-5.81297e-06
5.62826e-06
3.3424e-05
-5.55248e-06
5.36813e-06
3.35783e-05
-5.25753e-06
5.10326e-06
3.37301e-05
-4.9369e-06
4.78511e-06
3.38541e-05
-4.59435e-06
4.47031e-06
3.39631e-05
-4.23206e-06
4.12307e-06
3.40403e-05
-3.85801e-06
3.78081e-06
3.40936e-05
-3.46348e-06
3.41017e-06
3.41151e-05
-3.07882e-06
3.05731e-06
3.41125e-05
-2.67187e-06
2.67447e-06
3.40837e-05
-2.28166e-06
2.31053e-06
3.40335e-05
-1.89211e-06
1.94232e-06
3.39602e-05
-1.52223e-06
1.59551e-06
3.38621e-05
-1.14983e-06
1.24791e-06
3.37526e-05
-8.29153e-07
9.38605e-07
3.36203e-05
-5.01775e-07
6.34086e-07
3.3468e-05
-2.08767e-07
3.61083e-07
3.32927e-05
6.88211e-08
1.06432e-07
3.31373e-05
2.76841e-07
-1.21418e-07
3.2986e-05
5.07426e-07
-3.5612e-07
3.28416e-05
6.93643e-07
-5.49216e-07
3.26976e-05
8.64912e-07
-7.20909e-07
3.2569e-05
9.91747e-07
-8.63178e-07
3.24468e-05
1.12514e-06
-1.00292e-06
3.23558e-05
1.19817e-06
-1.10716e-06
3.2276e-05
1.28267e-06
-1.20287e-06
3.22192e-05
1.33679e-06
-1.27997e-06
3.21819e-05
1.40026e-06
-1.363e-06
3.2172e-05
1.4191e-06
-1.40924e-06
3.21739e-05
1.45892e-06
-1.46079e-06
3.22076e-05
1.47063e-06
-1.50432e-06
3.22537e-05
1.50745e-06
-1.55351e-06
3.23233e-05
1.51207e-06
-1.58173e-06
3.24022e-05
1.54575e-06
-1.62467e-06
3.24952e-05
1.5637e-06
-1.65667e-06
3.26037e-05
1.59959e-06
-1.70808e-06
3.27234e-05
1.61261e-06
-1.73227e-06
3.28455e-05
1.66147e-06
-1.78361e-06
3.29765e-05
1.68912e-06
-1.82008e-06
3.31074e-05
1.74447e-06
-1.87539e-06
3.32393e-05
1.78331e-06
-1.91525e-06
3.33757e-05
1.84501e-06
-1.98137e-06
3.35043e-05
1.90034e-06
-2.02895e-06
3.36334e-05
1.98075e-06
-2.10984e-06
3.37462e-05
2.05136e-06
-2.16419e-06
3.38498e-05
2.14601e-06
-2.24959e-06
3.39486e-05
2.2206e-06
-2.31942e-06
3.40355e-05
2.33496e-06
-2.42191e-06
3.41043e-05
2.42947e-06
-2.49819e-06
3.41671e-05
2.53695e-06
-2.59982e-06
3.41914e-05
2.64218e-06
-2.66644e-06
3.42115e-05
2.7485e-06
-2.76863e-06
3.42025e-05
2.85569e-06
-2.84667e-06
3.41853e-05
2.973e-06
-2.95579e-06
3.41404e-05
3.07463e-06
-3.02972e-06
3.40916e-05
3.19103e-06
-3.14227e-06
3.40072e-05
3.30377e-06
-3.21938e-06
3.39223e-05
3.39866e-06
-3.31367e-06
3.37912e-05
3.50911e-06
-3.37802e-06
3.36669e-05
3.59406e-06
-3.46977e-06
3.34947e-05
3.68413e-06
-3.512e-06
3.33299e-05
3.74847e-06
-3.58368e-06
3.31245e-05
3.82374e-06
-3.61825e-06
3.29242e-05
3.86352e-06
-3.66322e-06
3.26903e-05
3.91784e-06
-3.68394e-06
3.24703e-05
3.93204e-06
-3.7121e-06
3.22115e-05
3.96806e-06
-3.70924e-06
3.19793e-05
3.95119e-06
-3.71897e-06
3.17115e-05
3.97291e-06
-3.70518e-06
3.14528e-05
3.92927e-06
-3.67055e-06
3.11614e-05
3.91958e-06
-3.6282e-06
3.08752e-05
3.85458e-06
-3.56834e-06
3.05518e-05
3.8074e-06
-3.48403e-06
3.02139e-05
3.7115e-06
-3.37359e-06
2.9873e-05
3.62565e-06
-3.28476e-06
2.95259e-05
3.4949e-06
-3.14781e-06
2.91576e-05
3.3901e-06
-3.02171e-06
2.87949e-05
3.22591e-06
-2.86328e-06
2.8429e-05
3.09075e-06
-2.72483e-06
2.80323e-05
2.93526e-06
-2.53852e-06
2.7662e-05
2.75585e-06
-2.38554e-06
2.72697e-05
2.59449e-06
-2.20222e-06
2.68698e-05
2.4467e-06
-2.04678e-06
2.64166e-05
2.27409e-06
-1.82089e-06
2.59785e-05
2.09376e-06
-1.65568e-06
2.55082e-05
1.94461e-06
-1.4743e-06
2.50649e-05
1.7276e-06
-1.28433e-06
2.45465e-05
1.54444e-06
-1.02604e-06
2.40487e-05
1.36012e-06
-8.62276e-07
2.35133e-05
1.17262e-06
-6.37272e-07
2.29681e-05
9.58064e-07
-4.12786e-07
2.23605e-05
8.56697e-07
-2.49149e-07
2.18501e-05
6.43985e-07
-1.33538e-07
2.12967e-05
4.70704e-07
8.26566e-08
2.07699e-05
3.22128e-07
2.04659e-07
2.02547e-05
1.92725e-07
3.22529e-07
1.97979e-05
-7.98966e-08
5.36705e-07
1.92433e-05
-1.72477e-07
7.27059e-07
1.87867e-05
-2.94265e-07
7.50824e-07
1.83388e-05
-4.3959e-07
8.87531e-07
1.78449e-05
-6.12264e-07
1.10616e-06
1.72105e-05
-5.84999e-07
1.21942e-06
1.67048e-05
-7.42486e-07
1.24812e-06
1.62462e-05
-1.03544e-06
1.4941e-06
1.58109e-05
-1.39256e-06
1.82785e-06
1.52855e-05
-1.51996e-06
2.04529e-06
1.4898e-05
-1.70371e-06
2.09126e-06
1.45618e-05
-1.90176e-06
2.23789e-06
1.42912e-05
-2.15417e-06
2.42481e-06
1.39081e-05
-2.14091e-06
2.52397e-06
1.35631e-05
-1.98049e-06
2.3255e-06
1.31792e-05
-1.66731e-06
2.0512e-06
1.2843e-05
-1.4223e-06
1.75858e-06
1.24295e-05
-1.1826e-06
1.59602e-06
1.20809e-05
-1.0637e-06
1.41236e-06
1.17703e-05
-9.9985e-07
1.31041e-06
1.16495e-05
-1.06178e-06
1.18264e-06
1.16247e-05
-1.07341e-06
1.09816e-06
1.17977e-05
-1.008e-06
8.35048e-07
1.20377e-05
-7.28006e-07
4.87972e-07
1.24083e-05
-4.14554e-07
4.39931e-08
1.27075e-05
-8.87933e-08
-2.10441e-07
1.29682e-05
2.86954e-08
-2.8941e-07
1.30416e-05
1.496e-08
-8.83176e-08
1.30249e-05
-1.90748e-07
2.07368e-07
1.28829e-05
-4.01135e-07
5.43226e-07
1.27858e-05
-6.22021e-07
7.19078e-07
1.26666e-05
-6.99275e-07
8.18462e-07
1.26238e-05
-7.16399e-07
7.59211e-07
1.25597e-05
-6.65191e-07
7.29303e-07
1.2588e-05
-7.65353e-07
7.37063e-07
1.26383e-05
-9.99095e-07
9.48799e-07
1.27964e-05
-1.41884e-06
1.26074e-06
1.29037e-05
-1.8429e-06
1.73552e-06
1.29595e-05
-2.16256e-06
2.10678e-06
1.27913e-05
-2.22931e-06