/*--------------------------------*- C++ -*----------------------------------*\
| =========                 |                                                 |
| \\      /  F ield         | OpenFOAM: The Open Source CFD Toolbox           |
|  \\    /   O peration     | Version:  2.4.0                                 |
|   \\  /    A nd           | Web:      www.OpenFOAM.org                      |
|    \\/     M anipulation  |                                                 |
\*---------------------------------------------------------------------------*/
FoamFile
{
    version     2.0;
    format      ascii;
    class       volScalarField;
    location    "0.135";
    object      pPrime2Mean;
}
// * * * * * * * * * * * * * * * * * * * * * * * * * * * * * * * * * * * * * //

dimensions      [0 4 -4 0 0 0 0];

internalField   nonuniform List<scalar> 
17600
(
4.82258e+06
4.7636e+06
4.69806e+06
4.63256e+06
4.56743e+06
4.50276e+06
4.43854e+06
4.37474e+06
4.31139e+06
4.24849e+06
4.18603e+06
4.12404e+06
4.0625e+06
4.00142e+06
3.9408e+06
3.88064e+06
3.82095e+06
3.76171e+06
3.70293e+06
3.64461e+06
3.58675e+06
3.52934e+06
3.47239e+06
3.41588e+06
3.35981e+06
3.30418e+06
3.24897e+06
3.19417e+06
3.13977e+06
3.08574e+06
3.03203e+06
2.97861e+06
2.9254e+06
2.87229e+06
2.81915e+06
2.76572e+06
2.71165e+06
2.65633e+06
2.59839e+06
2.53427e+06
4.82267e+06
4.76366e+06
4.6981e+06
4.63258e+06
4.56744e+06
4.50276e+06
4.43853e+06
4.37474e+06
4.31139e+06
4.24848e+06
4.18603e+06
4.12403e+06
4.0625e+06
4.00142e+06
3.9408e+06
3.88064e+06
3.82095e+06
3.76171e+06
3.70293e+06
3.64462e+06
3.58675e+06
3.52935e+06
3.47239e+06
3.41588e+06
3.35982e+06
3.30419e+06
3.24898e+06
3.19419e+06
3.1398e+06
3.08577e+06
3.03208e+06
2.97868e+06
2.92549e+06
2.87243e+06
2.81934e+06
2.76602e+06
2.71213e+06
2.65713e+06
2.60004e+06
2.53835e+06
4.82274e+06
4.76372e+06
4.69813e+06
4.63259e+06
4.56743e+06
4.50275e+06
4.43851e+06
4.37472e+06
4.31137e+06
4.24847e+06
4.18602e+06
4.12403e+06
4.06249e+06
4.00142e+06
3.9408e+06
3.88064e+06
3.82095e+06
3.76171e+06
3.70294e+06
3.64462e+06
3.58676e+06
3.52935e+06
3.4724e+06
3.41589e+06
3.35983e+06
3.30421e+06
3.24901e+06
3.19423e+06
3.13985e+06
3.08584e+06
3.03217e+06
2.97881e+06
2.92568e+06
2.87269e+06
2.81973e+06
2.76659e+06
2.71303e+06
2.65862e+06
2.60273e+06
2.54461e+06
4.8228e+06
4.76377e+06
4.69816e+06
4.63259e+06
4.56743e+06
4.50273e+06
4.43849e+06
4.3747e+06
4.31135e+06
4.24846e+06
4.18601e+06
4.12402e+06
4.06249e+06
4.00141e+06
3.9408e+06
3.88064e+06
3.82095e+06
3.76171e+06
3.70294e+06
3.64462e+06
3.58676e+06
3.52936e+06
3.47241e+06
3.41591e+06
3.35985e+06
3.30423e+06
3.24905e+06
3.19428e+06
3.13992e+06
3.08594e+06
3.03231e+06
2.979e+06
2.92594e+06
2.87307e+06
2.82028e+06
2.76741e+06
2.71427e+06
2.66062e+06
2.60619e+06
2.55106e+06
4.82284e+06
4.7638e+06
4.69818e+06
4.6326e+06
4.56742e+06
4.50272e+06
4.43847e+06
4.37468e+06
4.31134e+06
4.24845e+06
4.186e+06
4.12402e+06
4.06248e+06
4.00141e+06
3.94079e+06
3.88064e+06
3.82095e+06
3.76171e+06
3.70294e+06
3.64463e+06
3.58677e+06
3.52937e+06
3.47242e+06
3.41593e+06
3.35988e+06
3.30427e+06
3.2491e+06
3.19435e+06
3.14001e+06
3.08607e+06
3.03249e+06
2.97924e+06
2.92629e+06
2.87356e+06
2.82097e+06
2.76842e+06
2.71577e+06
2.66292e+06
2.60988e+06
2.55719e+06
4.82288e+06
4.76383e+06
4.6982e+06
4.63261e+06
4.56742e+06
4.50271e+06
4.43846e+06
4.37467e+06
4.31133e+06
4.24844e+06
4.186e+06
4.12401e+06
4.06248e+06
4.00141e+06
3.94079e+06
3.88064e+06
3.82095e+06
3.76172e+06
3.70294e+06
3.64463e+06
3.58678e+06
3.52938e+06
3.47244e+06
3.41595e+06
3.35991e+06
3.30431e+06
3.24916e+06
3.19443e+06
3.14012e+06
3.08622e+06
3.0327e+06
2.97954e+06
2.92669e+06
2.87412e+06
2.82177e+06
2.76957e+06
2.71747e+06
2.66546e+06
2.61373e+06
2.56281e+06
4.8229e+06
4.76385e+06
4.69822e+06
4.63262e+06
4.56742e+06
4.50271e+06
4.43846e+06
4.37466e+06
4.31132e+06
4.24843e+06
4.18599e+06
4.12401e+06
4.06248e+06
4.00141e+06
3.94079e+06
3.88064e+06
3.82095e+06
3.76172e+06
3.70295e+06
3.64464e+06
3.58679e+06
3.52939e+06
3.47246e+06
3.41598e+06
3.35995e+06
3.30436e+06
3.24923e+06
3.19452e+06
3.14025e+06
3.08639e+06
3.03294e+06
2.97987e+06
2.92715e+06
2.87476e+06
2.82266e+06
2.77083e+06
2.71926e+06
2.66803e+06
2.6174e+06
2.56789e+06
4.82292e+06
4.76387e+06
4.69823e+06
4.63263e+06
4.56742e+06
4.5027e+06
4.43845e+06
4.37465e+06
4.31131e+06
4.24842e+06
4.18599e+06
4.12401e+06
4.06248e+06
4.00141e+06
3.94079e+06
3.88064e+06
3.82095e+06
3.76172e+06
3.70295e+06
3.64465e+06
3.5868e+06
3.52941e+06
3.47248e+06
3.41601e+06
3.35999e+06
3.30442e+06
3.2493e+06
3.19463e+06
3.14039e+06
3.08659e+06
3.0332e+06
2.98022e+06
2.92764e+06
2.87544e+06
2.8236e+06
2.77214e+06
2.72109e+06
2.67058e+06
2.62091e+06
2.57254e+06
4.82294e+06
4.76388e+06
4.69823e+06
4.63263e+06
4.56742e+06
4.5027e+06
4.43845e+06
4.37465e+06
4.31131e+06
4.24842e+06
4.18599e+06
4.124e+06
4.06248e+06
4.00141e+06
3.9408e+06
3.88064e+06
3.82095e+06
3.76173e+06
3.70296e+06
3.64465e+06
3.58681e+06
3.52943e+06
3.4725e+06
3.41604e+06
3.36003e+06
3.30448e+06
3.24938e+06
3.19474e+06
3.14054e+06
3.08679e+06
3.03348e+06
2.9806e+06
2.92815e+06
2.87614e+06
2.82457e+06
2.77346e+06
2.7229e+06
2.67305e+06
2.62419e+06
2.57671e+06
4.82294e+06
4.76388e+06
4.69824e+06
4.63263e+06
4.56742e+06
4.5027e+06
4.43844e+06
4.37465e+06
4.31131e+06
4.24842e+06
4.18598e+06
4.124e+06
4.06248e+06
4.00141e+06
3.9408e+06
3.88065e+06
3.82096e+06
3.76173e+06
3.70297e+06
3.64466e+06
3.58682e+06
3.52944e+06
3.47253e+06
3.41607e+06
3.36008e+06
3.30454e+06
3.24946e+06
3.19485e+06
3.14069e+06
3.087e+06
3.03376e+06
2.98098e+06
2.92867e+06
2.87685e+06
2.82553e+06
2.77477e+06
2.72466e+06
2.67538e+06
2.6272e+06
2.58045e+06
4.82294e+06
4.76388e+06
4.69824e+06
4.63263e+06
4.56742e+06
4.5027e+06
4.43844e+06
4.37465e+06
4.31131e+06
4.24842e+06
4.18599e+06
4.124e+06
4.06248e+06
4.00141e+06
3.9408e+06
3.88065e+06
3.82096e+06
3.76174e+06
3.70297e+06
3.64467e+06
3.58684e+06
3.52946e+06
3.47255e+06
3.4161e+06
3.36012e+06
3.3046e+06
3.24955e+06
3.19496e+06
3.14085e+06
3.0872e+06
3.03404e+06
2.98136e+06
2.92919e+06
2.87754e+06
2.82647e+06
2.77602e+06
2.72632e+06
2.67754e+06
2.62995e+06
2.58378e+06
4.82293e+06
4.76388e+06
4.69824e+06
4.63263e+06
4.56742e+06
4.5027e+06
4.43845e+06
4.37465e+06
4.31131e+06
4.24842e+06
4.18599e+06
4.12401e+06
4.06248e+06
4.00141e+06
3.9408e+06
3.88065e+06
3.82097e+06
3.76174e+06
3.70298e+06
3.64468e+06
3.58685e+06
3.52948e+06
3.47258e+06
3.41614e+06
3.36017e+06
3.30466e+06
3.24963e+06
3.19507e+06
3.141e+06
3.08741e+06
3.03432e+06
2.98174e+06
2.92969e+06
2.87821e+06
2.82736e+06
2.7772e+06
2.72785e+06
2.67951e+06
2.63242e+06
2.58676e+06
4.82292e+06
4.76387e+06
4.69823e+06
4.63263e+06
4.56742e+06
4.5027e+06
4.43845e+06
4.37466e+06
4.31131e+06
4.24843e+06
4.18599e+06
4.12401e+06
4.06248e+06
4.00141e+06
3.9408e+06
3.88066e+06
3.82097e+06
3.76175e+06
3.70299e+06
3.64469e+06
3.58686e+06
3.5295e+06
3.4726e+06
3.41617e+06
3.36021e+06
3.30472e+06
3.24971e+06
3.19518e+06
3.14114e+06
3.0876e+06
3.03458e+06
2.98209e+06
2.93016e+06
2.87884e+06
2.82819e+06
2.77828e+06
2.72925e+06
2.68127e+06
2.63456e+06
2.58938e+06
4.8229e+06
4.76385e+06
4.69822e+06
4.63262e+06
4.56742e+06
4.50271e+06
4.43846e+06
4.37466e+06
4.31132e+06
4.24843e+06
4.186e+06
4.12401e+06
4.06249e+06
4.00142e+06
3.94081e+06
3.88066e+06
3.82098e+06
3.76175e+06
3.703e+06
3.6447e+06
3.58688e+06
3.52952e+06
3.47262e+06
3.4162e+06
3.36025e+06
3.30478e+06
3.24978e+06
3.19528e+06
3.14128e+06
3.08779e+06
3.03482e+06
2.98242e+06
2.9306e+06
2.87942e+06
2.82894e+06
2.77926e+06
2.7305e+06
2.68283e+06
2.63647e+06
2.59163e+06
4.82288e+06
4.76383e+06
4.6982e+06
4.63261e+06
4.56742e+06
4.50271e+06
4.43846e+06
4.37467e+06
4.31133e+06
4.24844e+06
4.186e+06
4.12402e+06
4.06249e+06
4.00142e+06
3.94081e+06
3.88066e+06
3.82098e+06
3.76176e+06
3.703e+06
3.64471e+06
3.58689e+06
3.52953e+06
3.47264e+06
3.41623e+06
3.36029e+06
3.30483e+06
3.24985e+06
3.19537e+06
3.1414e+06
3.08795e+06
3.03504e+06
2.98271e+06
2.93099e+06
2.87993e+06
2.82961e+06
2.78012e+06
2.73159e+06
2.68417e+06
2.63809e+06
2.59351e+06
4.82284e+06
4.7638e+06
4.69818e+06
4.6326e+06
4.56742e+06
4.50272e+06
4.43848e+06
4.37468e+06
4.31134e+06
4.24845e+06
4.18601e+06
4.12402e+06
4.06249e+06
4.00142e+06
3.94082e+06
3.88067e+06
3.82098e+06
3.76177e+06
3.70301e+06
3.64472e+06
3.5869e+06
3.52954e+06
3.47266e+06
3.41625e+06
3.36032e+06
3.30487e+06
3.24991e+06
3.19545e+06
3.14151e+06
3.08809e+06
3.03523e+06
2.98296e+06
2.93132e+06
2.88037e+06
2.83018e+06
2.78085e+06
2.73251e+06
2.6853e+06
2.63943e+06
2.59505e+06
4.8228e+06
4.76377e+06
4.69816e+06
4.6326e+06
4.56743e+06
4.50273e+06
4.43849e+06
4.3747e+06
4.31136e+06
4.24846e+06
4.18602e+06
4.12403e+06
4.0625e+06
4.00143e+06
3.94082e+06
3.88067e+06
3.82099e+06
3.76177e+06
3.70302e+06
3.64473e+06
3.58691e+06
3.52956e+06
3.47268e+06
3.41627e+06
3.36035e+06
3.30491e+06
3.24996e+06
3.19552e+06
3.14159e+06
3.08821e+06
3.03539e+06
2.98317e+06
2.9316e+06
2.88073e+06
2.83065e+06
2.78145e+06
2.73325e+06
2.68621e+06
2.6405e+06
2.59624e+06
4.82274e+06
4.76372e+06
4.69813e+06
4.63259e+06
4.56743e+06
4.50275e+06
4.43851e+06
4.37472e+06
4.31137e+06
4.24847e+06
4.18603e+06
4.12404e+06
4.06251e+06
4.00143e+06
3.94082e+06
3.88068e+06
3.82099e+06
3.76177e+06
3.70302e+06
3.64473e+06
3.58692e+06
3.52957e+06
3.47269e+06
3.41629e+06
3.36037e+06
3.30493e+06
3.25e+06
3.19557e+06
3.14166e+06
3.0883e+06
3.03551e+06
2.98333e+06
2.93181e+06
2.88101e+06
2.83101e+06
2.7819e+06
2.73382e+06
2.68691e+06
2.64132e+06
2.59712e+06
4.82267e+06
4.76366e+06
4.6981e+06
4.63258e+06
4.56744e+06
4.50277e+06
4.43854e+06
4.37474e+06
4.31139e+06
4.24849e+06
4.18604e+06
4.12404e+06
4.06251e+06
4.00144e+06
3.94083e+06
3.88068e+06
3.821e+06
3.76178e+06
3.70302e+06
3.64474e+06
3.58692e+06
3.52957e+06
3.4727e+06
3.4163e+06
3.36038e+06
3.30495e+06
3.25002e+06
3.1956e+06
3.14171e+06
3.08836e+06
3.03559e+06
2.98344e+06
2.93195e+06
2.88119e+06
2.83125e+06
2.78221e+06
2.7342e+06
2.68736e+06
2.64184e+06
2.59772e+06
4.82258e+06
4.7636e+06
4.69806e+06
4.63256e+06
4.56743e+06
4.50277e+06
4.43854e+06
4.37475e+06
4.3114e+06
4.24849e+06
4.18604e+06
4.12405e+06
4.06251e+06
4.00144e+06
3.94083e+06
3.88068e+06
3.821e+06
3.76178e+06
3.70303e+06
3.64474e+06
3.58692e+06
3.52957e+06
3.4727e+06
3.4163e+06
3.36039e+06
3.30496e+06
3.25004e+06
3.19562e+06
3.14173e+06
3.08839e+06
3.03563e+06
2.98349e+06
2.93202e+06
2.88129e+06
2.83137e+06
2.78236e+06
2.73438e+06
2.68758e+06
2.6421e+06
2.59802e+06
2.4766e+06
2.4581e+06
2.44336e+06
2.43124e+06
2.42057e+06
2.41068e+06
2.4013e+06
2.39232e+06
2.38363e+06
2.37519e+06
2.36694e+06
2.35886e+06
2.35092e+06
2.34309e+06
2.33537e+06
2.32774e+06
2.32019e+06
2.31271e+06
2.30529e+06
2.29793e+06
2.29062e+06
2.28336e+06
2.27614e+06
2.26896e+06
2.26182e+06
2.25471e+06
2.24763e+06
2.24058e+06
2.23356e+06
2.22657e+06
2.2196e+06
2.21266e+06
2.20574e+06
2.19884e+06
2.19197e+06
2.18511e+06
2.17828e+06
2.17146e+06
2.16467e+06
2.15789e+06
2.15112e+06
2.14438e+06
2.13765e+06
2.13093e+06
2.12423e+06
2.11755e+06
2.11087e+06
2.10421e+06
2.09756e+06
2.09092e+06
2.0843e+06
2.07768e+06
2.07108e+06
2.06449e+06
2.05791e+06
2.05134e+06
2.04478e+06
2.03824e+06
2.0317e+06
2.02517e+06
2.01865e+06
2.01215e+06
2.00565e+06
1.99916e+06
1.99268e+06
1.98621e+06
1.97975e+06
1.97331e+06
1.96687e+06
1.96044e+06
1.95402e+06
1.94762e+06
1.94122e+06
1.93484e+06
1.92847e+06
1.92211e+06
1.91576e+06
1.90942e+06
1.9031e+06
1.89678e+06
1.89048e+06
1.88419e+06
1.87792e+06
1.87165e+06
1.8654e+06
1.85916e+06
1.85293e+06
1.84671e+06
1.8405e+06
1.83431e+06
1.82813e+06
1.82195e+06
1.81579e+06
1.80964e+06
1.8035e+06
1.79738e+06
1.79126e+06
1.78515e+06
1.77905e+06
1.77297e+06
1.76689e+06
1.76083e+06
1.75477e+06
1.74872e+06
1.74269e+06
1.73666e+06
1.73065e+06
1.72464e+06
1.71865e+06
1.71267e+06
1.70669e+06
1.70073e+06
1.69478e+06
1.68883e+06
1.6829e+06
1.67698e+06
1.67107e+06
1.66518e+06
1.65929e+06
1.65341e+06
1.64755e+06
1.64169e+06
1.63585e+06
1.63002e+06
1.62419e+06
1.61838e+06
1.61258e+06
1.6068e+06
1.60102e+06
1.59525e+06
1.5895e+06
1.58376e+06
1.57802e+06
1.5723e+06
1.56659e+06
1.56089e+06
1.5552e+06
1.54952e+06
1.54385e+06
1.5382e+06
1.53255e+06
1.52691e+06
1.52128e+06
1.51567e+06
1.51006e+06
1.50447e+06
1.49888e+06
1.4933e+06
1.48774e+06
1.48218e+06
1.47663e+06
1.4711e+06
1.46557e+06
1.46005e+06
1.45455e+06
1.44905e+06
1.44357e+06
1.43809e+06
1.43263e+06
1.42717e+06
1.42173e+06
1.41629e+06
1.41087e+06
1.40545e+06
1.40005e+06
1.39466e+06
1.38927e+06
1.3839e+06
1.37854e+06
1.37318e+06
1.36784e+06
1.36251e+06
1.35719e+06
1.35187e+06
1.34657e+06
1.34128e+06
1.336e+06
1.33072e+06
1.32546e+06
1.32021e+06
1.31496e+06
1.30973e+06
1.30451e+06
1.29929e+06
1.29409e+06
1.28889e+06
1.28371e+06
1.27853e+06
1.27337e+06
1.26821e+06
1.26306e+06
1.25793e+06
1.2528e+06
1.24768e+06
1.24257e+06
1.23747e+06
1.23238e+06
1.2273e+06
1.22223e+06
1.21717e+06
1.21212e+06
1.20708e+06
1.20205e+06
1.19703e+06
1.19202e+06
1.18702e+06
1.18203e+06
1.17705e+06
1.17208e+06
1.16713e+06
1.16218e+06
1.15725e+06
1.15232e+06
1.14741e+06
1.14251e+06
1.13762e+06
1.13274e+06
1.12787e+06
1.12302e+06
1.11817e+06
1.11334e+06
1.10852e+06
1.10371e+06
1.09891e+06
1.09412e+06
1.08934e+06
1.08457e+06
1.07982e+06
1.07507e+06
1.07034e+06
1.06561e+06
1.0609e+06
1.0562e+06
1.05151e+06
1.04683e+06
1.04216e+06
1.0375e+06
1.03286e+06
1.02822e+06
1.02359e+06
1.01898e+06
1.01437e+06
1.00978e+06
1.0052e+06
1.00062e+06
996063
991511
986969
982439
977918
973408
968908
964419
959940
955471
951013
946565
942127
937700
933283
928877
924481
920095
915720
911355
907001
902657
898323
894000
889688
885385
881094
876812
872542
868281
864031
859792
855563
851345
847137
842940
838754
834578
830412
826257
822113
817979
813855
809742
805640
801548
797466
793395
789334
785283
781243
777213
773193
769183
765183
761193
757214
753245
749286
745338
741400
737472
733554
729647
725750
721864
717988
714122
710268
706423
702590
698767
694955
691153
687361
683580
679810
676049
672300
668560
664831
661112
657403
653705
650017
646339
642671
639014
635366
631729
628101
624484
620876
617279
613691
610113
606544
602985
599436
595896
592365
588844
585332
581829
578335
574850
571373
567906
564446
560996
557553
554119
550692
547274
543863
540460
537065
533676
530295
526920
523552
520190
516835
513485
510140
506800
503465
500134
496807
493482
490159
486837
483515
480192
476867
473538
470205
466864
463515
460153
456778
453383
449967
446523
443046
439526
435954
432317
428593
424759
420769
416563
412039
406916
401051
2.49474e+06
2.47743e+06
2.46219e+06
2.44852e+06
2.43627e+06
2.42499e+06
2.41443e+06
2.40442e+06
2.39485e+06
2.38561e+06
2.37667e+06
2.36795e+06
2.35944e+06
2.3511e+06
2.3429e+06
2.33483e+06
2.32688e+06
2.31902e+06
2.31126e+06
2.30357e+06
2.29596e+06
2.28841e+06
2.28092e+06
2.27349e+06
2.26611e+06
2.25878e+06
2.2515e+06
2.24425e+06
2.23705e+06
2.22988e+06
2.22274e+06
2.21564e+06
2.20857e+06
2.20153e+06
2.19452e+06
2.18754e+06
2.18058e+06
2.17365e+06
2.16674e+06
2.15986e+06
2.153e+06
2.14616e+06
2.13934e+06
2.13254e+06
2.12576e+06
2.11899e+06
2.11225e+06
2.10552e+06
2.0988e+06
2.0921e+06
2.08542e+06
2.07875e+06
2.07209e+06
2.06545e+06
2.05882e+06
2.05221e+06
2.0456e+06
2.03901e+06
2.03243e+06
2.02587e+06
2.01932e+06
2.01277e+06
2.00624e+06
1.99972e+06
1.99322e+06
1.98672e+06
1.98024e+06
1.97376e+06
1.9673e+06
1.96085e+06
1.95442e+06
1.94799e+06
1.94158e+06
1.93518e+06
1.92879e+06
1.92241e+06
1.91605e+06
1.9097e+06
1.90336e+06
1.89703e+06
1.89072e+06
1.88442e+06
1.87813e+06
1.87185e+06
1.86559e+06
1.85934e+06
1.8531e+06
1.84687e+06
1.84066e+06
1.83446e+06
1.82826e+06
1.82209e+06
1.81592e+06
1.80976e+06
1.80362e+06
1.79748e+06
1.79136e+06
1.78525e+06
1.77915e+06
1.77306e+06
1.76698e+06
1.76091e+06
1.75485e+06
1.7488e+06
1.74277e+06
1.73674e+06
1.73072e+06
1.72472e+06
1.71873e+06
1.71274e+06
1.70677e+06
1.70081e+06
1.69486e+06
1.68892e+06
1.68299e+06
1.67707e+06
1.67116e+06
1.66527e+06
1.65938e+06
1.65351e+06
1.64764e+06
1.64179e+06
1.63595e+06
1.63012e+06
1.6243e+06
1.61849e+06
1.6127e+06
1.60691e+06
1.60114e+06
1.59537e+06
1.58962e+06
1.58388e+06
1.57815e+06
1.57243e+06
1.56673e+06
1.56103e+06
1.55534e+06
1.54967e+06
1.544e+06
1.53835e+06
1.5327e+06
1.52707e+06
1.52144e+06
1.51583e+06
1.51023e+06
1.50463e+06
1.49905e+06
1.49347e+06
1.48791e+06
1.48235e+06
1.4768e+06
1.47127e+06
1.46574e+06
1.46023e+06
1.45472e+06
1.44922e+06
1.44374e+06
1.43826e+06
1.4328e+06
1.42734e+06
1.4219e+06
1.41646e+06
1.41104e+06
1.40562e+06
1.40022e+06
1.39482e+06
1.38944e+06
1.38407e+06
1.3787e+06
1.37335e+06
1.36801e+06
1.36267e+06
1.35735e+06
1.35204e+06
1.34673e+06
1.34144e+06
1.33616e+06
1.33089e+06
1.32562e+06
1.32037e+06
1.31513e+06
1.30989e+06
1.30467e+06
1.29945e+06
1.29425e+06
1.28905e+06
1.28387e+06
1.27869e+06
1.27352e+06
1.26837e+06
1.26322e+06
1.25808e+06
1.25295e+06
1.24783e+06
1.24271e+06
1.23761e+06
1.23252e+06
1.22743e+06
1.22236e+06
1.2173e+06
1.21224e+06
1.2072e+06
1.20216e+06
1.19714e+06
1.19212e+06
1.18712e+06
1.18213e+06
1.17715e+06
1.17218e+06
1.16722e+06
1.16227e+06
1.15733e+06
1.1524e+06
1.14749e+06
1.14258e+06
1.13769e+06
1.13281e+06
1.12794e+06
1.12308e+06
1.11824e+06
1.1134e+06
1.10858e+06
1.10376e+06
1.09896e+06
1.09417e+06
1.08939e+06
1.08462e+06
1.07987e+06
1.07512e+06
1.07039e+06
1.06566e+06
1.06095e+06
1.05625e+06
1.05156e+06
1.04688e+06
1.04221e+06
1.03755e+06
1.0329e+06
1.02826e+06
1.02364e+06
1.01902e+06
1.01442e+06
1.00982e+06
1.00524e+06
1.00067e+06
996104
991551
987009
982478
977957
973446
968946
964456
959976
955506
951047
946598
942160
937732
933314
928906
924509
920122
915746
911380
907024
902678
898343
894019
889705
885401
881108
876825
872553
868291
864040
859799
855568
851348
847139
842940
838752
834574
830407
826250
822104
817968
813842
809727
805623
801529
797445
793371
789307
785254
781210
777177
773153
769140
765136
761143
757159
753185
749222
745268
741325
737392
733469
729556
725653
721761
717879
714007
710146
706295
702455
698625
694806
690997
687198
683409
679630
675862
672104
668355
664616
660888
657169
653460
649761
646071
642391
638721
635060
631409
627768
624135
620512
616898
613293
609697
606110
602532
598962
595401
591848
588304
584767
581239
577719
574206
570701
567202
563712
560228
556751
553280
549816
546358
542906
539459
536019
532582
529151
525724
522301
518882
515466
512053
508642
505232
501824
498415
495007
491595
488182
484764
481342
477912
474474
471024
467563
464085
460590
457071
453527
449951
446336
442677
438962
435182
431320
427359
423273
419026
414583
409866
404790
399244
392922
2.50709e+06
2.49102e+06
2.47614e+06
2.46228e+06
2.44948e+06
2.43751e+06
2.42622e+06
2.41549e+06
2.40524e+06
2.39538e+06
2.38584e+06
2.37659e+06
2.36757e+06
2.35877e+06
2.35014e+06
2.34167e+06
2.33334e+06
2.32514e+06
2.31704e+06
2.30905e+06
2.30115e+06
2.29333e+06
2.28559e+06
2.27792e+06
2.27032e+06
2.26277e+06
2.25528e+06
2.24785e+06
2.24046e+06
2.23312e+06
2.22583e+06
2.21857e+06
2.21136e+06
2.20418e+06
2.19704e+06
2.18993e+06
2.18286e+06
2.17581e+06
2.1688e+06
2.16181e+06
2.15485e+06
2.14792e+06
2.14101e+06
2.13413e+06
2.12727e+06
2.12042e+06
2.11361e+06
2.10681e+06
2.10003e+06
2.09326e+06
2.08652e+06
2.07979e+06
2.07308e+06
2.06639e+06
2.05971e+06
2.05305e+06
2.0464e+06
2.03977e+06
2.03315e+06
2.02655e+06
2.01996e+06
2.01338e+06
2.00682e+06
2.00027e+06
1.99374e+06
1.98721e+06
1.9807e+06
1.97421e+06
1.96772e+06
1.96125e+06
1.9548e+06
1.94835e+06
1.94192e+06
1.9355e+06
1.9291e+06
1.92271e+06
1.91633e+06
1.90997e+06
1.90361e+06
1.89728e+06
1.89095e+06
1.88464e+06
1.87834e+06
1.87205e+06
1.86578e+06
1.85952e+06
1.85327e+06
1.84704e+06
1.84082e+06
1.83461e+06
1.82841e+06
1.82222e+06
1.81605e+06
1.80989e+06
1.80374e+06
1.7976e+06
1.79147e+06
1.78535e+06
1.77925e+06
1.77316e+06
1.76707e+06
1.761e+06
1.75495e+06
1.7489e+06
1.74286e+06
1.73683e+06
1.73082e+06
1.72482e+06
1.71882e+06
1.71284e+06
1.70687e+06
1.70091e+06
1.69496e+06
1.68902e+06
1.68309e+06
1.67717e+06
1.67127e+06
1.66537e+06
1.65949e+06
1.65362e+06
1.64776e+06
1.64191e+06
1.63607e+06
1.63024e+06
1.62442e+06
1.61862e+06
1.61282e+06
1.60704e+06
1.60127e+06
1.59551e+06
1.58976e+06
1.58403e+06
1.5783e+06
1.57259e+06
1.56688e+06
1.56119e+06
1.55551e+06
1.54983e+06
1.54417e+06
1.53852e+06
1.53288e+06
1.52724e+06
1.52162e+06
1.51601e+06
1.51041e+06
1.50481e+06
1.49923e+06
1.49366e+06
1.48809e+06
1.48254e+06
1.47699e+06
1.47145e+06
1.46593e+06
1.46041e+06
1.4549e+06
1.44941e+06
1.44392e+06
1.43844e+06
1.43298e+06
1.42752e+06
1.42207e+06
1.41664e+06
1.41121e+06
1.4058e+06
1.40039e+06
1.395e+06
1.38961e+06
1.38424e+06
1.37888e+06
1.37352e+06
1.36818e+06
1.36284e+06
1.35752e+06
1.35221e+06
1.3469e+06
1.34161e+06
1.33633e+06
1.33105e+06
1.32579e+06
1.32053e+06
1.31529e+06
1.31006e+06
1.30483e+06
1.29962e+06
1.29441e+06
1.28922e+06
1.28403e+06
1.27885e+06
1.27369e+06
1.26853e+06
1.26338e+06
1.25823e+06
1.2531e+06
1.24798e+06
1.24286e+06
1.23776e+06
1.23266e+06
1.22757e+06
1.2225e+06
1.21743e+06
1.21237e+06
1.20732e+06
1.20228e+06
1.19725e+06
1.19224e+06
1.18723e+06
1.18223e+06
1.17725e+06
1.17227e+06
1.16731e+06
1.16236e+06
1.15742e+06
1.15249e+06
1.14757e+06
1.14266e+06
1.13777e+06
1.13288e+06
1.12801e+06
1.12315e+06
1.1183e+06
1.11346e+06
1.10864e+06
1.10382e+06
1.09902e+06
1.09423e+06
1.08945e+06
1.08468e+06
1.07992e+06
1.07517e+06
1.07044e+06
1.06571e+06
1.061e+06
1.05629e+06
1.0516e+06
1.04692e+06
1.04225e+06
1.03759e+06
1.03295e+06
1.02831e+06
1.02368e+06
1.01907e+06
1.01446e+06
1.00987e+06
1.00528e+06
1.00071e+06
996145
991592
987050
982518
977997
973485
968985
964494
960014
955543
951084
946634
942195
937766
933347
928939
924541
920153
915775
911408
907051
902705
898369
894043
889727
885422
881128
876843
872570
868306
864054
859811
855579
851358
847147
842947
838757
834577
830408
826250
822102
817964
813837
809720
805613
801517
797430
793354
789287
785231
781184
777147
773120
769102
765094
761096
757108
753129
749161
745202
741253
737314
733385
729466
725558
721659
717771
713893
710025
706168
702320
698483
694656
690840
687033
683237
679450
675674
671907
668149
664401
660663
656934
653215
649504
645803
642112
638429
634755
631090
627435
623787
620149
616519
612897
609284
605678
602081
598492
594909
591335
587768
584208
580654
577109
573568
570035
566507
562986
559469
555959
552452
548951
545454
541962
538473
534988
531505
528026
524548
521072
517597
514123
510649
507173
503697
500218
496735
493248
489756
486256
482748
479229
475699
472154
468593
465012
461409
457779
454119
450422
446686
442898
439055
435145
431153
427070
422869
418540
414037
409349
404411
399161
393590
387577
2.51655e+06
2.50143e+06
2.48709e+06
2.47342e+06
2.46051e+06
2.44825e+06
2.43656e+06
2.42539e+06
2.41467e+06
2.40434e+06
2.39435e+06
2.38465e+06
2.37521e+06
2.366e+06
2.357e+06
2.34817e+06
2.33951e+06
2.33099e+06
2.32259e+06
2.31432e+06
2.30615e+06
2.29808e+06
2.2901e+06
2.28221e+06
2.27439e+06
2.26664e+06
2.25896e+06
2.25134e+06
2.24378e+06
2.23628e+06
2.22883e+06
2.22143e+06
2.21407e+06
2.20676e+06
2.19949e+06
2.19226e+06
2.18507e+06
2.17792e+06
2.1708e+06
2.16371e+06
2.15666e+06
2.14964e+06
2.14264e+06
2.13567e+06
2.12873e+06
2.12182e+06
2.11493e+06
2.10806e+06
2.10121e+06
2.09439e+06
2.08759e+06
2.0808e+06
2.07404e+06
2.0673e+06
2.06057e+06
2.05386e+06
2.04717e+06
2.0405e+06
2.03384e+06
2.0272e+06
2.02058e+06
2.01397e+06
2.00738e+06
2.0008e+06
1.99424e+06
1.98769e+06
1.98116e+06
1.97464e+06
1.96813e+06
1.96164e+06
1.95517e+06
1.9487e+06
1.94226e+06
1.93582e+06
1.9294e+06
1.923e+06
1.91661e+06
1.91023e+06
1.90387e+06
1.89752e+06
1.89118e+06
1.88486e+06
1.87855e+06
1.87226e+06
1.86597e+06
1.85971e+06
1.85345e+06
1.84721e+06
1.84098e+06
1.83476e+06
1.82856e+06
1.82237e+06
1.81619e+06
1.81002e+06
1.80387e+06
1.79772e+06
1.79159e+06
1.78547e+06
1.77937e+06
1.77327e+06
1.76719e+06
1.76112e+06
1.75506e+06
1.74901e+06
1.74297e+06
1.73695e+06
1.73093e+06
1.72493e+06
1.71894e+06
1.71295e+06
1.70698e+06
1.70102e+06
1.69508e+06
1.68914e+06
1.68321e+06
1.6773e+06
1.67139e+06
1.6655e+06
1.65962e+06
1.65375e+06
1.64789e+06
1.64204e+06
1.6362e+06
1.63038e+06
1.62456e+06
1.61876e+06
1.61297e+06
1.60719e+06
1.60142e+06
1.59567e+06
1.58992e+06
1.58419e+06
1.57846e+06
1.57275e+06
1.56705e+06
1.56136e+06
1.55568e+06
1.55001e+06
1.54435e+06
1.5387e+06
1.53306e+06
1.52743e+06
1.52181e+06
1.5162e+06
1.5106e+06
1.50501e+06
1.49942e+06
1.49385e+06
1.48829e+06
1.48273e+06
1.47719e+06
1.47165e+06
1.46612e+06
1.4606e+06
1.4551e+06
1.4496e+06
1.44411e+06
1.43863e+06
1.43316e+06
1.42771e+06
1.42226e+06
1.41682e+06
1.4114e+06
1.40598e+06
1.40057e+06
1.39518e+06
1.38979e+06
1.38442e+06
1.37905e+06
1.3737e+06
1.36835e+06
1.36302e+06
1.35769e+06
1.35238e+06
1.34707e+06
1.34178e+06
1.33649e+06
1.33122e+06
1.32595e+06
1.3207e+06
1.31546e+06
1.31022e+06
1.305e+06
1.29978e+06
1.29458e+06
1.28938e+06
1.28419e+06
1.27902e+06
1.27385e+06
1.26869e+06
1.26354e+06
1.25839e+06
1.25326e+06
1.24813e+06
1.24301e+06
1.23791e+06
1.23281e+06
1.22771e+06
1.22263e+06
1.21756e+06
1.2125e+06
1.20744e+06
1.2024e+06
1.19737e+06
1.19235e+06
1.18733e+06
1.18233e+06
1.17734e+06
1.17236e+06
1.1674e+06
1.16244e+06
1.1575e+06
1.15256e+06
1.14764e+06
1.14273e+06
1.13783e+06
1.13295e+06
1.12807e+06
1.12321e+06
1.11836e+06
1.11352e+06
1.10869e+06
1.10387e+06
1.09907e+06
1.09428e+06
1.08949e+06
1.08472e+06
1.07996e+06
1.07522e+06
1.07048e+06
1.06575e+06
1.06104e+06
1.05634e+06
1.05164e+06
1.04696e+06
1.04229e+06
1.03763e+06
1.03298e+06
1.02835e+06
1.02372e+06
1.0191e+06
1.0145e+06
1.0099e+06
1.00532e+06
1.00075e+06
996182
991629
987087
982555
978033
973521
969020
964529
960049
955578
951118
946668
942228
937799
933380
928971
924572
920183
915805
911437
907079
902732
898395
894068
889752
885446
881150
876865
872590
868325
864071
859828
855595
851372
847160
842958
838767
834586
830416
826256
822106
817967
813838
809719
805610
801512
797423
793343
789274
785214
781164
777123
773092
769070
765057
761054
757061
753077
749103
745138
741184
737239
733304
729379
725464
721559
717664
713780
709905
706041
702187
698343
694509
690684
686870
683066
679271
675486
671711
667944
664188
660440
656701
652971
649250
645538
641834
638139
634453
630775
627105
623443
619790
616144
612506
608875
605252
601636
598027
594424
590829
587239
583657
580079
576507
572941
569380
565823
562271
558723
555180
551640
548102
544568
541036
537507
533978
530452
526925
523399
519871
516344
512813
509281
505744
502204
498657
495105
491543
487974
484393
480800
477192
473569
469926
466262
462573
458856
455107
451321
447495
443617
439689
435692
431629
427474
423231
418868
414383
409743
404933
399927
394683
389236
383556
2.52472e+06
2.51023e+06
2.4962e+06
2.48269e+06
2.46978e+06
2.45741e+06
2.44554e+06
2.43412e+06
2.4231e+06
2.41244e+06
2.40211e+06
2.39207e+06
2.3823e+06
2.37275e+06
2.36343e+06
2.35429e+06
2.34533e+06
2.33653e+06
2.32787e+06
2.31934e+06
2.31093e+06
2.30263e+06
2.29443e+06
2.28633e+06
2.27831e+06
2.27037e+06
2.26251e+06
2.25472e+06
2.247e+06
2.23934e+06
2.23173e+06
2.22419e+06
2.2167e+06
2.20926e+06
2.20187e+06
2.19453e+06
2.18722e+06
2.17996e+06
2.17274e+06
2.16556e+06
2.15841e+06
2.1513e+06
2.14422e+06
2.13718e+06
2.13016e+06
2.12317e+06
2.11621e+06
2.10927e+06
2.10237e+06
2.09548e+06
2.08862e+06
2.08179e+06
2.07497e+06
2.06818e+06
2.06141e+06
2.05466e+06
2.04793e+06
2.04121e+06
2.03452e+06
2.02784e+06
2.02119e+06
2.01455e+06
2.00793e+06
2.00132e+06
1.99473e+06
1.98816e+06
1.9816e+06
1.97506e+06
1.96854e+06
1.96203e+06
1.95553e+06
1.94905e+06
1.94259e+06
1.93614e+06
1.92971e+06
1.92329e+06
1.91689e+06
1.9105e+06
1.90412e+06
1.89776e+06
1.89142e+06
1.88508e+06
1.87877e+06
1.87246e+06
1.86617e+06
1.8599e+06
1.85363e+06
1.84738e+06
1.84115e+06
1.83493e+06
1.82872e+06
1.82252e+06
1.81634e+06
1.81017e+06
1.80401e+06
1.79786e+06
1.79173e+06
1.78561e+06
1.7795e+06
1.77341e+06
1.76732e+06
1.76125e+06
1.75519e+06
1.74914e+06
1.7431e+06
1.73708e+06
1.73106e+06
1.72506e+06
1.71907e+06
1.71308e+06
1.70712e+06
1.70116e+06
1.69521e+06
1.68927e+06
1.68335e+06
1.67743e+06
1.67153e+06
1.66564e+06
1.65976e+06
1.65389e+06
1.64803e+06
1.64219e+06
1.63635e+06
1.63053e+06
1.62472e+06
1.61892e+06
1.61313e+06
1.60735e+06
1.60158e+06
1.59583e+06
1.59009e+06
1.58435e+06
1.57863e+06
1.57292e+06
1.56723e+06
1.56154e+06
1.55586e+06
1.55019e+06
1.54454e+06
1.53889e+06
1.53325e+06
1.52762e+06
1.52201e+06
1.5164e+06
1.5108e+06
1.50521e+06
1.49962e+06
1.49405e+06
1.48849e+06
1.48293e+06
1.47738e+06
1.47184e+06
1.46631e+06
1.4608e+06
1.45529e+06
1.44978e+06
1.44429e+06
1.43881e+06
1.43334e+06
1.42789e+06
1.42244e+06
1.417e+06
1.41157e+06
1.40615e+06
1.40074e+06
1.39535e+06
1.38996e+06
1.38458e+06
1.37922e+06
1.37386e+06
1.36851e+06
1.36318e+06
1.35785e+06
1.35254e+06
1.34723e+06
1.34194e+06
1.33665e+06
1.33138e+06
1.32611e+06
1.32086e+06
1.31561e+06
1.31038e+06
1.30516e+06
1.29994e+06
1.29474e+06
1.28954e+06
1.28435e+06
1.27917e+06
1.274e+06
1.26884e+06
1.26369e+06
1.25854e+06
1.25341e+06
1.24828e+06
1.24316e+06
1.23804e+06
1.23294e+06
1.22785e+06
1.22276e+06
1.21768e+06
1.21261e+06
1.20756e+06
1.20251e+06
1.19747e+06
1.19244e+06
1.18743e+06
1.18242e+06
1.17743e+06
1.17244e+06
1.16747e+06
1.16251e+06
1.15757e+06
1.15263e+06
1.1477e+06
1.14279e+06
1.13789e+06
1.133e+06
1.12813e+06
1.12326e+06
1.11841e+06
1.11356e+06
1.10873e+06
1.10392e+06
1.09911e+06
1.09431e+06
1.08953e+06
1.08476e+06
1.08e+06
1.07525e+06
1.07051e+06
1.06579e+06
1.06107e+06
1.05637e+06
1.05167e+06
1.04699e+06
1.04232e+06
1.03766e+06
1.03301e+06
1.02838e+06
1.02375e+06
1.01913e+06
1.01453e+06
1.00993e+06
1.00535e+06
1.00077e+06
996210
991657
987114
982582
978060
973549
969048
964557
960077
955606
951146
946696
942256
937827
933407
928998
924599
920210
915832
911463
907105
902757
898420
894092
889776
885469
881172
876886
872611
868345
864091
859846
855612
851389
847176
842973
838781
834599
830427
826266
822115
817975
813844
809724
805613
801512
797421
793339
789267
785204
781150
777105
773069
769042
765025
761017
757018
753029
749049
745078
741117
737166
733225
729293
725372
721460
717559
713668
709787
705916
702055
698204
694363
690531
686709
682897
679095
675301
671517
667742
663976
660219
656471
652731
648999
645276
641561
637854
634156
630464
626781
623105
619437
615775
612122
608474
604834
601199
597571
593949
590333
586722
583116
579515