/*--------------------------------*- C++ -*----------------------------------*\
| =========                 |                                                 |
| \\      /  F ield         | OpenFOAM: The Open Source CFD Toolbox           |
|  \\    /   O peration     | Version:  2.4.0                                 |
|   \\  /    A nd           | Web:      www.OpenFOAM.org                      |
|    \\/     M anipulation  |                                                 |
\*---------------------------------------------------------------------------*/
FoamFile
{
    version     2.0;
    format      ascii;
    class       volScalarField;
    location    "0.105";
    object      p;
}
// * * * * * * * * * * * * * * * * * * * * * * * * * * * * * * * * * * * * * //

dimensions      [0 2 -2 0 0 0 0];

internalField   nonuniform List<scalar> 
4400
(
97.0135
76.7881
69.2236
65.8571
63.4563
61.0763
58.7452
56.5182
54.7075
51.042
95.0781
76.8564
69.2607
65.8692
63.4585
61.0774
58.7449
56.5133
54.7148
50.8987
93.8636
77.1751
69.3958
65.9084
63.4786
61.0871
58.747
56.5081
54.7201
50.7803
93.1297
77.562
69.5754
65.9674
63.5201
61.1148
58.7577
56.5079
54.7172
50.744
92.5357
77.9173
69.7566
66.0294
63.5761
61.1618
58.78
56.5167
54.7146
50.8128
92.0223
78.2111
69.9164
66.0759
63.6264
61.216
58.8117
56.5277
54.7331
51.0122
91.5992
78.4437
70.049
66.1058
63.6613
61.265
58.8411
56.5401
54.7312
51.3789
91.276
78.6186
70.1519
66.1246
63.6792
61.3077
58.8586
56.5553
54.6929
51.8185
91.0616
78.7349
70.2198
66.1378
63.6866
61.337
58.8744
56.5663
54.683
52.251
90.9567
78.7917
70.2515
66.1489
63.6846
61.3545
58.8861
56.5753
54.694
52.5559
90.961
78.7881
70.2464
66.1602
63.6735
61.3606
58.8932
56.5858
54.7023
52.7899
91.0747
78.7241
70.2063
66.169
63.655
61.3549
58.8975
56.5948
54.7174
52.9519
91.297
78.6016
70.1297
66.1749
63.6278
61.3375
58.8969
56.6035
54.7378
53.0456
91.6244
78.4224
70.0186
66.1743
63.5901
61.3073
58.892
56.6112
54.7638
53.0763
92.0486
78.1862
69.8813
66.1595
63.5426
61.2644
58.8806
56.6163
54.7996
53.0562
92.561
77.8915
69.7178
66.1239
63.4853
61.2133
58.8659
56.6209
54.8334
53.0495
93.1544
77.5384
69.5321
66.0695
63.426
61.1693
58.8529
56.6313
54.8468
53.0595
93.8891
77.1536
69.3495
66.0135
63.3839
61.1438
58.848
56.6444
54.8503
53.0981
95.1052
76.8365
69.2137
65.9745
63.3643
61.1357
58.8483
56.6538
54.8508
53.1498
97.0419
76.7687
69.1766
65.9625
63.3611
61.1371
58.8487
56.6581
54.85
53.2632
52.7726
52.8759
51.9383
50.3545
48.9241
48.0489
49.3706
51.7069
56.2474
60.6051
63.9403
65.4843
59.919
54.9009
47.7067
34.3607
25.6205
21.6072
17.376
16.6244
19.3809
20.113
22.5281
28.6827
33.1631
37.508
43.3507
48.5808
53.1088
56.8821
59.6786
62.4521
64.8372
65.4332
63.1681
60.6114
59.9178
59.8514
60.2191
60.8223
61.7577
61.1568
58.165
52.9312
47.355
41.5565
36.1882
33.1919
32.9894
35.3073
40.1642
47.1153
54.9531
63.3231
70.6056
75.7163
78.312
80.6443
82.3798
80.4155
79.6671
82.6051
83.8711
75.3093
65.1206
56.2064
51.7516
49.5502
49.0867
50.5568
55.2058
62.9391
70.4093
75.2154
77.7049
77.3646
77.399
73.9816
71.7249
66.5562
64.4676
62.3271
62.6722
63.1104
64.6251
66.041
68.1452
69.3487
71.4658
71.9152
73.7124
74.063
76.2606
76.5812
78.5783
78.0854
78.8906
75.3638
75.2936
52.5354
52.3565
53.0831
52.2826
50.4526
49.1486
48.3234
49.8881
52.4969
56.7541
61.217
64.0535
65.1554
59.7162
53.991
47.806
35.8753
27.0213
23.3127
19.501
18.251
21.0317
22.4324
24.5548
30.0178
34.5505
38.7864
44.2193
49.1888
53.5712
57.3217
60.1847
62.5387
64.3911
64.2234
60.7615
57.0586
55.6079
54.9677
54.9923
56.0139
57.8211
58.2388
56.6107
53.0357
49.0736
44.622
40.3083
37.9432
37.7577
40.0334
44.2787
50.4253
57.4903
64.8917
71.3858
76.1569
78.5094
80.9224
82.9846
81.1973
80.112
83.1633
83.0755
73.8286
62.6478
52.7307
48.0923
45.869
45.716
47.36
52.5011
60.8487
69.1317
74.2065
77.4046
76.9585
77.415
73.785
71.8582
66.8796
64.7365
62.7726
62.8984
63.2898
64.4719
65.3999
67.4378
68.5744
70.693
70.9738
72.927
72.8522
75.2843
75.1845
77.6607
76.2044
77.4134
72.2126
70.6702
45.5061
52.1562
53.3388
52.6695
50.7387
49.4981
48.701
50.456
53.1103
57.0163
61.4078
63.4295
64.2314
59.3332
53.0293
47.6053
37.1419
28.2838
24.9988
22.0964
20.5212
22.8058
24.9109
27.0454
31.6518
35.981
40.0486
45.0466
49.7575
53.9978
57.7128
60.785
62.9414
64.3223
63.2369
58.43
53.7366
51.4993
50.2212
49.856
51.3677
54.0005
55.386
55.2084
53.4651
51.0141
48.0878
44.8087
43.0391
42.9208
44.9708
48.6514
53.9553
60.1267
66.4567
72.1604
76.5159
78.7945
81.2053
83.4722
82.1148
80.6621
84.274
82.7105
72.8569
60.4641
49.8689
45.0436
42.6224
42.7551
44.5884
50.2536
59.1026
68.2683
73.4547
77.4924
76.7629
77.6161
73.949
72.1021
67.5238
65.2837
63.4536
63.2992
63.626
64.4606
65.1101
66.6778
67.7296
69.6404
69.8772
71.715
71.3744
73.8777
73.2858
76.5216
73.9112
75.3225
68.5665
64.6488
43.55
52.138
53.6824
52.9349
50.9825
49.9226
49.1354
51.0656
53.5611
57.0294
61.2178
62.4337
62.9961
58.8974
52.1401
47.2868
38.7357
30.0406
26.7399
24.9532
23.4756
24.9461
27.3376
29.6917
33.5104
37.426
41.2803
45.8412
50.3544
54.5119
58.1635
61.502
63.7023
64.6104
62.5979
56.3637
50.6161
47.4503
45.5482
44.921
47.028
50.3643
52.6547
54.0187
54.164
53.1417
51.6961
49.5512
48.3098
48.2876
50.0507
53.1722
57.5554
62.7219
67.9528
72.8984
76.7613
79.0028
81.3679
83.8579
83.0565
81.4069
85.3226
82.7521
72.3976
58.7444
48.0271
42.888
39.9295
40.387
42.2772
48.5425
57.7802
67.898
73.0543
77.8807
76.8111
78.0026
74.4458
72.5365
68.5101
66.0788
64.2966
63.8974
64.0834
64.5762
64.9157
66.1173
67.0566
68.6088
68.9225
70.4322
70.0962
72.2058
71.1292
74.0011
70.3073
73.4574
64.769
57.7481
42.418
52.3043
54.0821
53.0297
51.2226
50.4387
49.5733
51.6521
53.8951
56.7421
60.7488
61.1962
61.5244
58.4867
51.5856
47.0245
40.6446
32.5102
28.7054
27.7536
26.8593
27.5091
29.6472
32.223
35.489
38.8359
42.3783
46.5389
50.8357
54.9906
58.6886
62.3246
64.8216
65.2947
62.2427
54.6159
47.7897
43.5391
40.9084
40.2612
43.0181
46.914
50.2024
53.1241
55.0605
55.4024
55.3774
54.4426
53.6217
53.7682
55.1537
57.6687
61.1077
65.2613
69.4029
73.5405
76.9386
79.0472
81.3164
84.0977
83.8077
82.2826
85.9194
82.8124
72.2594
57.2821
46.6878
41.3914
37.7383
38.7232
40.3339
47.5642
56.8586
68.0945
73.0163
78.5134
77.2757
78.5489
75.2703
73.1979
69.6445
67.0246
65.2535
64.6441
64.5578
64.7704
64.7611
65.6988
66.4661
67.7184
68.1168
69.2417
68.9476
70.5374
69.2052
70.7239
66.7171
68.7168
59.5099
52.3906
41.7017
52.4346
54.3261
53.2221
51.4127
51.008
50.0636
52.0895
54.2452
56.2736
60.0153
60.1022
59.9385
58.0395
51.6313
47.0061
42.4923
35.4652
31.1093
30.4093
30.2053
30.3532
31.9442
34.4908
37.3723
40.1721
43.3147
47.1073
51.158
55.3375
59.2372
63.1944
66.1236
66.3139
62.1413
53.1077
45.2121
39.9163
36.5985
36.0775
39.3414
43.7337
48.1741
52.5431
56.0638
57.8566
59.1164
59.3165
58.9273
59.224
60.1923
62.0894
64.5478
67.6537
70.7517
74.0481
77.1121
79.0134
81.0803
83.9758
84.2139
83.0584
86.1582
82.9595
72.4703
56.008
45.2679
40.1808
35.8792
37.6872
38.629
47.5016
56.2175
68.8658
73.3493
79.4065
78.1641
79.2211
76.3389
74.0068
70.7591
68.0545
66.2344
65.4089
64.9863
64.9317
64.5885
65.2707
65.8479
66.8625
67.1718
67.9675
67.6606
68.5523
67.5085
67.8634
64.5482
61.9099
54.739
48.8145
40.7635
52.6288
54.3431
53.2067
51.4267
51.4653
50.6582
52.3795
54.5795
55.7833
59.015
59.2642
58.4491
57.4722
52.1878
47.355
44.0613
38.5934
33.9274
32.9476
33.2685
33.2531
34.2028
36.5204
39.0979
41.4178
44.1594
47.5728
51.3585
55.5565
59.7114
64.0431
67.4799
67.5706
62.2925
51.8321
42.8841
36.6965
32.8474
32.4949
36.0732
41.0197
46.6494
52.2041
57.1139
60.4656
62.8104
64.054
64.1508
64.5768
65.1021
66.2825
67.7623
69.8232
71.9931
74.4614
77.2089
78.9256
80.7806
83.4029
84.3048
83.6368
86.2776
83.4992
72.6998
54.8036
43.8773
39.025
34.6991
37.2204
37.0624
48.3654
55.7326
70.1905
74.1775
80.4371
79.333
79.9942
77.4362
74.8853
71.8082
69.0888
67.157
66.0862
65.3526
65.027
64.4889
64.933
65.2635
66.0043
66.2108
66.6019
66.3889
66.6979
65.927
64.6765
62.2978
57.7438
53.6904
46.8305
39.5719
52.9745
54.3521
53.1006
51.326
51.7526
51.2775
52.556
54.8176
55.4645
57.988
58.6169
57.2996
56.8212
52.9583
48.0888
45.3694
41.446
36.9222
35.4342
35.954
36.0064
36.4401
38.3587
40.6201
42.5297
44.9145
47.9386
51.3861
55.5614
60.0002
64.7624
68.7035
68.8276
62.5708
50.8749
40.9662
34.0141
29.8823
29.641
33.3557
38.9374
45.599
52.1272
58.3017
63.1217
66.3793
68.5747
69.227
69.6924
69.7383
70.1513
70.6968
71.7129
73.0405
74.7268
77.1901
78.8562
80.3835
82.6521
84.3142
84.4575
86.6906
84.6579
72.9237
54.003
43.3072
37.9911
33.4727
37.4359
35.6633
50.1353
55.3107
72.0654
75.5042
81.5047
80.6468
80.8071
78.4344
75.7948
72.7969
70.0889
68.0409
66.6897
65.7619
65.1709
64.464
64.652
64.7497
65.2363
65.4212
65.4691
65.4708
65.1512
64.7968
62.6354
60.7321
56.0173
53.9099
45.4769
38.9796
53.2727
54.297
53.1203
51.3805
51.9404
51.8296
52.7139
54.9255
55.3324
57.1346
58.062
56.588
56.23
53.6519
49.1148
46.5318
43.7953
39.8114
37.889
38.3101
38.5158
38.6521
40.065
41.9699
43.5818
45.592
48.1344
51.1534
55.2213
59.9587
65.2535
69.6468
69.7374
62.6795
50.2131
39.6295
32.0524
27.8186
27.54
31.2506
37.4653
44.9022
52.2907
59.527
65.6103
69.734
72.7564
73.9434
74.3499
73.9725
73.6378
73.2673
73.2747
73.8891
74.9022
77.0439
78.7723
80.1986
82.2597
84.5582
85.625
87.4565
85.9014
73.9091
54.5913
44.4689
37.284
32.8782
37.5576
34.5263
52.5571
54.9262
74.3902
77.1295
82.5508
81.9561
81.648
79.4101
76.7521
73.8091
71.0417
68.9779
67.3342
66.2502
65.392
64.4404
64.436
64.3521
64.6889
64.9244
64.7313
64.8711
64.142
64.0011
61.6578
60.6511
55.9129
54.1046
44.7185
39.4585
53.468
54.2186
53.2351
51.5862
52.094
52.3176
52.9007
54.9161
55.3213
56.4862
57.5644
56.2315
55.7741
54.1933
50.2517
47.6278
45.7014
42.4673
40.3424
40.4983
40.7684
40.7471
41.7037
43.2074
44.5372
46.1294
48.1134
50.6881
54.5383
59.4875
65.3138
70.0389
70.0556
62.515
49.7567
38.803
30.8683
26.6877
26.2117
29.9461
36.5875
44.4767
52.6792
60.7385
67.8115
72.7294
76.4048
78.0955
78.4276
77.6598
76.6484
75.4645
74.5329
74.5109
75.0368
76.8372
78.6344
80.1374
82.3642
84.8672
86.5755
88.0145
86.339
75.7199
56.8965
47.0602
37.1815
33.1493
37.9665
33.9575
55.4443
54.8139
76.8655
78.8831
83.5147
83.2039
82.5673
80.4968
77.8103
74.9548
72.1061
70.0138
68.0488
66.7787
65.7064
64.4774
64.31
64.2086
64.3494
64.7132
64.1881
64.5594
63.4666
63.7381
61.1897
60.649
55.7476
54.2437
45.1677
40.5587
53.6191
54.1117
53.3222
51.8681
52.2541
52.7254
53.1065
54.8179
55.3208
56.0284
57.1183
56.0778
55.4865
54.5796
51.3926
48.8261
47.3251
44.8285
42.7627
42.5615
42.7611
42.7118
43.287
44.3444
45.3654
46.5396
47.937
50.0386
53.5725
58.5981
64.8012
69.7553
69.7104
62.1819
49.5555
38.4298
30.3565
26.3904
25.7097
29.4528
36.2337
44.4264
53.3161
61.8788
69.6965
75.3308
79.4818
81.5911
81.835
80.7503
79.1278
77.2492
75.5651
74.9422
75.0953
76.6092
78.4795
80.149
82.5546
84.9321
86.9791
88.0789
85.904
77.152
59.9088
49.8703
37.8229
34.5474
38.771
34.3017
58.3551
55.1552
79.1442
80.7889
84.5504
84.5455
83.6089
81.809
78.9806
76.2658
73.2058
71.1275
68.8605
67.3989
66.1424
64.7025
64.2348
64.2885
64.0738
64.6619
63.7565
64.4045
63.0644
63.6125
61.0663
60.6894
55.9003
54.2696
46.1051
41.2475
53.7024
53.9696
53.3516
52.2195
52.4654
53.0487
53.3305
54.6756
55.2995
55.7436
56.6995
56.058
55.3916
54.8464
52.4748
50.1192
48.7667
46.8856
45.0304
44.4994
44.5625
44.485
44.7369
45.3996
46.0745
46.7862
47.6832
49.2992
52.3906
57.4717
63.7993
68.6984
68.5245
61.672
49.6727
38.5674
30.4867
26.7069
25.8373
29.6095
36.2958
44.7128
54.0784
62.977
71.3481
77.4961
81.9815
84.3801
84.5356
83.2353
81.0989
78.6147
76.3727
75.2713
75.1446
76.3995
78.3438
80.2007
82.6264
84.8182
86.8602
87.7621
85.3749
77.9153
62.7935
52.5194
39.4941
37.7439
40.1744
36.1042
61.0381
56.1944
80.8541
82.8636
85.7788
86.1801
84.7928
83.3602
80.2445
77.7112
74.3179
72.3005
69.8078
68.1624
66.5742
65.1967
64.1299
64.4968
63.8189
64.5489
63.4214
64.1873
62.8558
63.3959
61.1601
60.6551
56.2189
54.1551
47.0043
41.5944
53.7064
53.7966
53.3408
52.6202
52.7337
53.2927
53.5749
54.5408
55.2198
55.5738
56.3312
56.0833
55.4899
55.0687
53.4135
51.4129
50.09
48.6204
47.0762
46.3394
46.1607
45.9901
45.9866
46.3015
46.6686
46.9587
47.3977
48.5367
51.1943
56.2802
62.4649
66.8317
66.6172
61.0799
50.2104
39.3224
31.3218
27.6086
26.6154
30.3814
36.7891
45.3492
54.8729
64.0338
72.7356
79.2371
83.9249
86.443
86.5739
85.1078
82.5682
79.6446
77.012
75.5268
75.2285
76.2709
78.3061
80.276
82.6639
84.6676
86.3923
87.2106
85.2142
79.2213
65.9445
55.9469
42.6976
42.6069
42.2839
39.6958
63.2545
58.546
81.8534
85.2371
87.0871
88.1797
86.0633
85.0428
81.5401
79.2259
75.4277
73.4738
70.8177
69.1204
66.8412
65.9444
64.1127
64.6874
63.5602
64.1985
63.1191
63.7578
62.6755
63.0248
61.2838
60.4685
56.4939
53.9139
47.6433
41.9023
53.6293
53.623
53.3188
53.0212
53.0609
53.5019
53.8195
54.4328
55.0827
55.4966
56.0493
56.0814
55.7091
55.3129
54.1788
52.596
51.2911
50.075
48.8135
47.9176
47.4737
47.1766
46.9979
47.0552
47.1685
47.1365
47.1699
47.8838
50.2382
55.3371
61.0156
64.4762
64.2871
60.4424
51.1503
40.8093
32.8885
28.997
27.9762
31.5488
37.666
46.2203
55.5984
65.0855
73.8914
80.5806
85.2903
87.8574
88.008
86.4031
83.5679
80.3782
77.5549
75.7934
75.3716
76.2829
78.4106
80.489
82.7238
84.5216
85.8966
86.7423
85.3214
81.0937
69.5555
60.249
47.3076
48.4111
45.2809
44.5987
64.9706
62.7619
82.4682
88.3558
88.3907
90.3885
87.3495
86.7415
82.8052
80.6969
76.4188
74.6333
71.6983
70.3074
67.2473
66.8381
64.3685
64.5216
63.1565
63.5065
62.7865
63.0663
62.4187
62.5273
61.3714
60.2207
56.7243
53.6555
48.1212
42.3631
53.4606
53.4699
53.3573
53.4145
53.4227
53.6736
54.0116
54.3856
54.9433
55.4361
55.8667
56.0913
55.9436
55.5523
54.7622
53.573
52.3348
51.214
50.1127
49.152
48.5007
48.0556
47.7625
47.6685
47.5982
47.3474
47.101
47.5047
49.6945
54.8635
59.7769
62.0646
61.8195
59.8953
52.5195
42.9819
35.0916
30.8075
29.6712
32.9164
38.8081
47.161
56.3611
66.1727
74.7944
81.542
86.1585
88.7395
88.8792
87.1848
84.1808
80.8728
78.0127
76.1249
75.6194
76.4675
78.6561
80.8582
82.7899
84.3913
85.7737
86.4426
85.3376
82.26
72.4881
64.4368
52.7045
53.2945
48.8753
50.7667
66.3785
68.6567
83.0944
92.3551
89.4452
92.4895
88.5781
88.3791
83.9958
82.0867
77.4365
75.8111
72.6296
71.6356
68.2422
67.6177
64.6927
63.9616
62.5257
62.5479
62.3931
62.317
62.1593
62.1387
61.3737
60.0053
56.8676
53.4691
48.5355
42.9754
53.1917
53.2671
53.4463
53.7303
53.7307
53.8184
54.1395
54.376
54.8365
55.3915
55.7699
56.0822
56.1119
55.7661
55.178
54.257
53.102
52.0296
51.024
50.0382
49.2422
48.6667
48.2879
48.1263
47.9845
47.6198
47.2178
47.5097
49.7952
55.0618
59.0925
60.1477
59.9936
59.4571
54.2627
45.7587
37.8636
33.0768
31.6879
34.4765
40.1045
48.1922
57.2467
67.1718
75.4729
82.2332
86.657
89.1646
89.2719
87.5227
84.4675
81.2304
78.4285
76.4861
76.0167
76.8962
79.0562
81.2608
82.838
84.2186
85.4831
86.1416
85.1536
82.7384
74.2279
67.804
57.6658
56.9622
52.7896
57.4723
67.6298
76.9235
83.9504
96.4488
89.8592
94.3759
89.8357
89.929
85.3156
83.3966
78.7716
76.9574
73.8567
72.8364
69.5582
68.1208
64.7884
63.3174
61.955
61.8321
62.0622
61.8889
62.0869
62.0609
61.3836
59.9287
56.9958
53.4362
48.9466
43.6624
53.2286
53.2965
53.5036
53.8869
53.9254
53.9293
54.2109
54.3936
54.7752
55.3407
55.7168
56.0569
56.1836
55.8955
55.4133
54.6696
53.6093
52.555
51.5843
50.591
49.7127
49.0586
48.6334
48.4416
48.2816
47.9063
47.5226
47.9356
50.507
55.8849
59.0565
59.1429
58.9304
59.3694
56.1471
48.8605
41.052
35.756
33.9644
36.2196
41.5156
49.3274
58.281
68.0075
76.0828
82.7117
86.9239
89.1926
89.2858
87.5607
84.5304
81.4746
78.8355
76.95
76.5609
77.5285
79.606
81.554
82.8332
84.0472
85.2571
85.7306
84.7891
82.949
75.8193
70.7096
61.3979
60.161
56.6308
64.7309
69.7771
85.2418
84.0798
100.329
90.4714
96.2496
91.5188
91.2677
86.7923
84.3982
80.0212
77.8464
75.0261
73.6902
70.6123
68.4111
64.8339
63.0512
61.6871
61.6898
61.9551
61.952
62.2201
62.296
61.4282
59.9958
57.1194
53.5485
49.3462
44.3503
53.2779
53.3594
53.5414
53.9433
54.0245
54.0151
54.2546
54.4166
54.7483
55.293
55.6745
56.0096
56.1787
55.9454
55.5131
54.8487
53.866
52.8366
51.874
50.8909
49.9786
49.2765
48.8333
48.627
48.47
48.1618
47.9463
48.7804
51.7159
57.0872
59.5469
59.1451
58.7337
59.51
57.7409
51.7207
44.2019
38.5373
36.2644
38.0518
42.9811
50.5498
59.3627
68.7832
76.6698
83.0017
87.0182
88.9714
89.0099
87.308
84.5116
81.6943
79.2137
77.6703
77.2416
78.1037
80.0581
81.6881
82.7258
83.8718
85.1065
85.4455
84.4514
82.7377
77.3549
73.1107
63.8583
62.5946
59.6639
71.5406
72.0966
92.2386
83.3881
104.629
91.8972
97.5328
93.1619
91.99
87.8535
84.8782
80.9268
78.5127
75.8749
74.1133
71.1463
68.6244
64.9901
63.4734
61.7269
62.1448
61.9755
62.4655
62.3142
62.6697
61.4835
60.122
57.2285
53.7671
49.6781
44.9454
53.3557
53.4516
53.6164
53.9623
54.0652
54.0723
54.2713
54.4305
54.7438
55.2532
55.6398
55.9637
56.1322
55.9303
55.5129
54.8723
53.9397
52.9328
51.9752
51.0166
50.1111
49.3866
48.9235
48.7028
48.5527
48.3354
48.3428
49.6108
52.6729
58.341
60.2256
59.5603
59.2678
59.795
58.5697
53.5713
46.6285
40.9262
38.2742
39.6045
44.3289
51.6564
60.2652
69.4423
77.1427
83.1694
86.9868
88.6933
88.7267
87.1018
84.4616
81.824
79.5109
77.9966
77.555
78.3931
80.2512
81.7085
82.6304
83.8523
85.1079
85.4333
84.3417
82.665
78.3867
74.5128
64.9206
64.2142
61.4507
76.5602
73.9884
97.4107
83.9996
107.584
93.6069
97.7493
94.0562
92.0774
88.1999
84.9495
81.2914
78.8623
76.3337
74.2881
71.2673
68.6824
65.1255
63.7678
61.8112
62.6
61.973
62.9975
62.3838
62.9715
61.5657
60.2113
57.3216
53.9325
49.8688
45.339
53.5041
53.5286
53.6501
53.9425
54.0623
54.0928
54.2683
54.4374
54.7536
55.2346
55.6223
55.9403
56.0822
55.897
55.4824
54.8405
53.9332
52.9396
51.9753
51.0217
50.1345
49.4217
48.9568
48.717
48.5642
48.3976
48.5095
49.8559
53.0118
58.7593
60.396
59.7646
59.4029
59.636
58.1348
54.2852
47.7224
42.2422
39.4452
40.5083
45.1746
52.2732
60.7733
69.828
77.4071
83.2477
86.9612
88.5932
88.5546
86.9881
84.4446
81.8895
79.6347
78.138
77.6919
78.461
80.3089
81.6924
82.6144
83.9574
85.2081
85.5863
84.3714
82.6932
78.7925
74.97
65.4586
64.9924
62.1113
79.1233
74.8409
99.7672
83.9926
108.294
93.7871
97.6174
94.2207
92.0376
88.3339
84.9932
81.3271
78.7302
76.2047
74.2212
71.3151
68.7275
65.2127
63.9077
61.8623
62.8097
61.925
63.2311
62.3161
63.0913
61.5448
60.1919
57.3191
53.9611
49.8858
45.2608
56.7739
57.0004
55.672
53.1231
50.7849
48.1957
45.8527
43.9624
42.4123
41.0683
40.1095
39.7688
39.7431
39.8044
40.3803
40.6093
40.223
39.369
38.3722
37.1519
35.2273
33.5263
33.6051
35.9169
39.7898
44.528
48.5899
52.5317
57.6311
62.3119
68.6589
75.5302
82.1502
88.0444
92.2688
94.5562
94.7733
92.856
89.7157
87.2784
86.0822
84.8623
82.1525
77.7415
71.5681
63.0358
56.2214
50.8763
50.0495
49.5911
54.6257
59.0734
65.6775
72.0376
78.0126
81.7976
83.7507
84.3749
83.8103
82.2313
80.5231
79.7034
80.6479
83.0976
86.2421
89.0701
90.9399
91.9471
92.4086
92.3601
91.6866
90.6205
89.508
88.4807
87.4369
86.2604
84.8788
83.2678
81.4622
79.4657
77.5753
75.8864
74.5667
73.7238
73.3863
73.5055
73.9674
74.6749
75.5359
76.4749
77.4268
78.3723
79.3154
80.211
80.9219
81.5431
82.1866
82.4223
83.3112
84.6865
56.7351
56.7379
55.3924
52.9041
50.5945
48.0153
45.7848
43.9987
42.3924
40.9589
39.9469
39.654
39.7139
39.847
40.4291
40.5635
40.1446
39.7246
38.5118
36.3713
34.1411
32.642
32.9356
35.4342
39.4654
44.321
48.5256
52.4568
57.4647
62.0383
68.3338
75.2232
81.7822
87.7926
92.0439
94.4156
94.7014
92.8154
89.6177
87.2479
86.0895
85.0225
82.5708
77.7644
70.9366
62.5914
55.5959
50.1443
49.4889
49.0321
54.2856
58.7779
65.4836
71.929
78.1638
81.9316
83.8899
84.5026
83.9254
82.2424
80.4277
79.6118
80.4796
82.9566
86.2299
89.1502
91.0158
91.9848
92.4407
92.4175
91.7508
90.6427
89.512
88.4956
87.4626
86.286
84.8945
83.2663
81.4294
79.437
77.5118
75.8035
74.4743
73.6328
73.3045
73.4211
73.9123
74.6301
75.5037
76.4582
77.4202
78.3641
79.3002
80.1897
80.9056
81.5564
82.1659
82.2362
83.1164
84.3835
56.6627
56.2155
54.7373
52.4124
50.1502
47.5888
45.7638
44.1951
42.3882
40.6806
39.5306
39.3146
39.6529
40.1343
40.6697
40.6072
40.0763
39.1008
37.0591
34.0894
31.7991
30.9521
31.5927
34.1982
38.6257
43.8731
48.5314
52.2111
56.912
61.401
67.4204
74.4002
80.9121
87.0658
91.3
93.835
94.2479
92.3819
89.2051
86.8579
85.8553
84.7906
82.26
77.1029
69.7134
61.3667
54.4044
48.8409
48.1437
47.8919
53.2585
58.0926
64.9167
71.7803
78.0592
82.0511
84.0244
84.6477
84.0635
82.2297
80.1903
79.1955
79.9851
82.5045
85.9648
89.121
91.1066
92.0548
92.5503
92.5104
91.801
90.6225
89.4663
88.4744
87.4647
86.2924
84.8905
83.2386
81.3645
79.3476
77.381
75.6435
74.3021
73.4659
73.157
73.3007
73.8135
74.5694
75.4613
76.4356
77.4107
78.3494
79.2655
80.1568
80.9098
81.6082
82.1562
81.9858
82.7504
83.9911
56.5061
55.7329
54.0081
51.9417
49.6876
47.2226
45.8552
44.3824
42.2719
40.2547
38.8928
38.7425
39.5214
40.5641
41.0831
40.7679
39.6274
37.5646
34.031
30.5048
28.7832
28.987
30.0621
32.957
37.7638
43.3852
48.5545
51.9204
56.1599
60.4963
66.1811
73.2652
79.8661
86.0968
90.2877
92.9999
93.6266
91.9578
88.9418
86.4868
85.4165
84.1706
81.483
75.773
67.9583
59.4908
52.6931
47.0398
46.2489
46.1755
51.4447
56.9027
63.7379
71.0974
77.5678
82.0138
84.1385
84.7947
84.2161
82.1769
79.7996
78.5637
79.1625
81.6474
85.2915
88.7875
91.0428
92.0782
92.55
92.5207
91.7806
90.5362
89.373
88.4264
87.4474
86.2779
84.8601
83.178
81.2616
79.2039
77.1909
75.4215
74.0698
73.2438
72.9704
73.15
73.7149
74.48
75.4135
76.4111
77.4076
78.3466
79.2461
80.1457
80.9765
81.7996
82.2031
81.7914
82.3687
83.6072
56.1623
55.3014
53.4506
51.5423
49.2838
46.976
46.0791
44.5731
42.0884
39.7129
38.0422
37.9678
39.3388
40.8895
41.5087
40.7547
38.6106
35.0084
30.3547
26.6517
25.7598
26.8909
28.5467
31.6127
36.8122
42.8314
48.5036
51.7583
55.526
59.5768
64.9918
72.1641
78.9256
85.2384
89.3662
92.1716
93.0941
91.8286
89.2422
86.8975
85.5026
83.7542
80.4133
73.8556
65.8922
57.1837
50.5622
44.7926
44.1651
43.9857
49.0623
55.2573
62.0541
69.9112
76.6049
81.6721
84.2263
85.0655
84.4629
82.0693
79.2038
77.6475
78.0711
80.4996
84.2779
88.0761
90.7019
91.96
92.3844
92.3891
91.6684
90.3783
89.2299
88.3466
87.4033
86.2344
84.8015
83.0873
81.124
79.0106
76.9388
75.1295
73.7662
72.9598
72.7315
72.9664
73.5859
74.4121
75.3765
76.4011
77.4121
78.3602
79.2555
80.1665
81.062
82.0458
82.3008
81.6365
82.0304
83.3268
55.7736
54.9434
53.082
51.3073
49.0384
46.9572
46.4415
44.802
41.8739
39.0332
36.9989
37.0777
39.0375
40.8968
41.5342
40.2231
36.7984
31.673
26.5571
22.8012
22.6926
24.7023
26.788
30.1128
35.6484
42.1949
48.3909
51.7002
54.9397
58.6123
63.7553
71.0532
78.024
84.4461
88.6667
91.4935
92.7443
92.0616
90.0727
87.9196
86.1551
83.5786
79.1423
71.808
63.6805
54.6736
48.1287
42.2926
41.8425
41.4744
46.4564
53.2535
60.1854
68.4817
75.3113
80.9845
84.1956
85.284
84.674
81.9065
78.5077
76.5081
76.7519
79.124
83.0523
87.1013
90.0507
91.5561
92.0153
92.0517
91.3604
90.0752
89.0112
88.2421
87.3461
86.178
84.7213
82.9649
80.9367
78.7472
76.5978
74.7337
73.3604
72.5788
72.4201
72.7165
73.4252
74.3086
75.3288
76.3823
77.4283
78.4006
79.3076
80.2243
81.1584
82.2472
82.4436
81.5931
81.8953
83.2505
55.4786
54.707
52.9221
51.2417
48.9567
47.146
46.8845
44.9623
41.5431
38.1434
35.7809
36.1193
38.5332
40.5372
41.056
38.9648
34.1244
28.0432
22.8224
19.2909
19.6051
22.3599
25.0813
28.459
34.3112
41.3559
48.2199
51.7528
54.3679
57.5993
62.5043
69.9228
77.0967
83.6211
88.1179
90.9986
92.562
92.5233
91.174
89.2227
87.0014
83.5487
78.0069
69.9988
61.6624
52.124
45.3834
39.5361
39.0216
38.8813
43.5047
51.1652
58.452
67.0751
73.9341
80.0366
83.9416
85.3944
84.8589
81.8117
77.9079
75.3403
75.3293
77.531
81.6396
85.9841
89.1273
90.8922
91.4182
91.4111
90.7559
89.6354
88.7779
88.1308
87.2586
86.0728
84.5878
82.7848
80.6862
78.399
76.1542
74.2158
72.8332
72.0868
72.0139
72.4588
73.2051
74.1739
75.2447
76.3516
77.4302
78.448
79.3858
80.3294
81.2593
82.4263
82.632
81.7223
82.0325
83.3943
55.2807
54.5387
52.8791
51.2345
48.9587
47.3471
47.3305
45.0582
41.0766
37.1578
34.5688
35.2183
37.8022
39.7952
40.0307
37.048
30.9464
24.5937
19.3335
16.3277
16.8478
20.4454
23.6839
27.0369
32.9522
40.3004
47.9365
51.8443
53.8957
56.6758
61.4364
68.9062
76.2185
82.7315
87.5463
90.5971
92.4496
93.0007
92.2175
90.4
87.7503
83.6202
77.1802
68.6858
59.6541
49.0334
42.1343
36.2659
35.7324
36.0617
40.1547
48.9864
56.5157
65.8115
72.7041
79.0003
83.5592
85.5652
85.1946
81.8373
77.4315
74.5074
74.0638
75.929
80.0728
84.7491
87.9949
89.8841
90.4859
90.4431
89.9159
89.0824
88.4774
87.9483
87.1037
85.9212
84.4215
82.5709
80.373
77.9594
75.5829
73.5531
72.1622
71.4665
71.4989
72.0548
72.9256
73.9779
75.1265
76.276
77.4128
78.4744
79.4698
80.4424
81.424
82.4798
82.8417
82.0555
82.4219
83.7363
55.1663
54.4348
52.8918
51.2125
48.9
47.536
47.731
45.2244
40.7978
36.509
33.7613
34.5765
36.9953
38.8305
38.573
34.6781
27.6262
21.4492
16.2285
13.6972
14.5172
18.6493
22.4812
25.8607
31.6159
39.0765
47.4448
51.873
53.5584
55.8923
60.5086
68.0451
75.434
81.8583
86.8103
90.1401
92.2592
93.2775
92.9562
91.292
88.2818
83.4183
76.4001
67.1979
57.0873
45.7778
38.9047
33.0188
32.6517
32.9831
36.7381
46.4138
54.1521
64.6134
71.6653
77.9893
83.0913
85.9129
85.77
82.0398
77.1858
74.0869
73.2835
74.5903
78.4644
83.3934
86.6597
88.4595
89.3049
89.1835
88.7982
88.3721
88.1049
87.6983
86.8827
85.7108
84.1887
82.2761
79.9595
77.3885
74.8526
72.7109
71.3275
70.7037
70.9396
71.5705
72.5759
73.7374
74.9603
76.1805
77.3537
78.4847
79.5108
80.5479
81.5227
82.5938
83.0179
82.4722
82.9908
84.2292
55.1013
54.384
52.9574
51.206
48.8771
47.773
48.0501
45.4212
40.9681
36.5145
33.6363
34.3714
36.4458
37.993
37.094
32.2529
24.6566
18.6603
13.8563
11.5379
12.74
17.0413
21.3904
24.9137
30.3987
37.7921
46.7112
51.7877
53.3178
55.296
59.659
67.2282
74.6946
81.0076
85.8571
89.4711
91.8172
93.1761
93.2276
91.7552
88.3844
82.9157
75.4469
65.1942
54.4589
43.1304
35.989
30.3215
29.9026
30.0561
33.8707
43.6423
51.5798
63.3577
70.9065
77.0965
82.4392
86.2667
86.4995
82.5458
77.3154
74.0237
72.8606
73.5285
76.8813
81.8544
85.1246
86.6765
87.5195
87.536
87.4093
87.4627
87.5887
87.3469
86.5719
85.3985
83.8549
81.8949
79.4372
76.6658
73.9351
71.6825
70.331
69.801
70.1837
70.9988
72.1513
73.4435
74.7505
76.044
77.2669
78.4554
79.5168
80.5822
81.609
82.5968
83.1653
82.9179
83.5941
84.8885
55.0587
54.3515
53.0382
51.2499
48.9891
48.0817
48.2284
45.6407
41.6209
37.3081
34.391
34.8849
36.5852
37.7014
35.8977
30.0655
22.5611
16.4055
12.3828
10.1291
11.599
15.7906
20.4715
24.2209
29.4401
36.6764
45.7535
51.5754
53.1264
54.9398
59.0822
66.4325
73.8936
80.0902
84.7298
88.4612
91.0319
92.6109
92.9554
91.6521
88.0783
82.2915
74.1768
63.3219
52.1795
40.8475
33.3351
28.0121
27.0675
27.6546
31.6666
40.9635
49.4124
61.9201
70.3898
76.5135
81.7122
86.2123
87.2379
83.2057
77.668
74.0434
72.6866
72.8417
75.4545
80.1386
83.3684
84.5756
85.3052
85.5171
85.6641
86.2873
86.926
86.8582
86.1046
84.9761
83.4456
81.4256
78.7668
75.7584
72.856
70.485
69.2182
68.7982
69.3587
70.3581
71.671
73.1002
74.4965
75.8659
77.1378
78.36
79.4837
80.5773
81.6215
82.6162
83.2928
83.4115
84.2355
85.7006
54.9676
54.2742
53.0502
51.2747
49.1508
48.3633
48.238
45.9514
42.7473
38.8387
36.1845
36.414
37.6543
38.1948
35.2192
28.1248
21.3351
14.8872
11.3646
9.37132
10.8169
14.8762
19.7438
23.7389
28.7993
35.7918
44.7527
51.1774
52.8884
54.6489
58.8049
65.7975
73.01
78.9476
83.4352
87.0522
89.8271
91.543
92.068
90.9822
87.453
81.4177
72.9003
61.7707
50.0534
38.7879
30.9256
25.8135
24.678
25.7977
29.9098
38.8043
47.9256
60.4157
69.7658
76.2581
81.2228
85.605
87.3353
83.5917
78.0491
74.3252
72.865
72.6076
74.2955
78.2672
81.2929
82.1898
82.7102
83.0796
83.5947
84.8735
85.9833
86.1313
85.5236
84.497
82.9339
80.8129
77.9672
74.7169
71.653
69.1841
68.0177
67.7745
68.4848
69.7106
71.1676
72.7226
74.2092
75.6381
76.9703
78.2369
79.3848
80.5249
81.6089
82.5777
83.4351
83.9002
85.0678
86.3772
54.7809
54.0963
52.9283
51.2215
49.2988
48.5281
48.1365
46.3814
44.2224
41.1139
39.1108
39.1674
39.9419
39.7032
35.382
26.6548
20.5245
14.2332
10.6671
9.20785
10.5315
14.27
19.1925
23.5892
28.4859
35.1502
43.8674
50.6255
52.5492
54.3166
58.6158
65.3932
72.1816
77.5853
81.9271
85.2906
88.1425
89.9541
90.5613
89.7658
86.3464
80.2976
71.7783
60.2
48.2024
36.9433
28.8693
23.9075
22.0653
23.9942
28.5847
37.4205
47.0589
59.1384
68.8604
76.0927
80.9635
84.7626
86.9609
83.627
78.4438
74.925
73.3791
72.7046
73.4138
76.3301
78.8192
79.43
79.7503
80.2669
81.199
83.0753
84.7423
85.2954
84.8582
83.8818
82.2869
80.1238
77.0922
73.5403
70.3345
67.8358
66.821
66.7867
67.6933
69.0811
70.6917
72.3269
73.9001
75.3608
76.7556
78.0601
79.3152
80.4145
81.5435
82.5311
83.4904
84.368
85.4882
87.1957
54.4978
53.809
52.6777
51.1195
49.4066
48.5827
47.9916
46.8681
45.9061
44.0527
42.9491
42.9899
43.3499
42.3687
36.2842
26.0549
19.867
14.2644
10.4242
9.62238
10.7308
13.9336
18.8467
23.7092
28.4537
34.7498
43.1684
50.0664
52.1376
53.9971
58.3764
65.054
71.392
76.1024
80.1868
83.2333
85.9516
87.8437
88.4888
87.9413
84.6985
78.9622
70.486
58.6667
46.6299
35.5689
27.3097
22.4168
20.5578
22.8405
27.7963
36.4583
46.6255
58.372
68.0179
75.8162
80.6683
83.9832
86.2201
83.476
78.8056
75.6846
74.1522
72.9872
72.6498
74.2533
75.9171
76.2408
76.4519
77.0819
78.4451
80.9683
83.3111
84.2974
84.0142
83.1569
81.607
79.3435
76.0929
72.2721
69.0186
66.5555
65.7154
65.9056
67.0227
68.5376
70.2625
71.9606
73.571
75.0595
76.4863
77.8422
79.1298
80.3136
81.3988
82.4323
83.4725
84.6071
86.2789
87.3166
54.1193
53.3932
52.3428
50.9668
49.4261
48.5471
47.8789
47.3763
47.7075
47.3802
47.4376
47.495
47.3002
45.7667
37.9875
26.477
19.698
14.6728
10.4964
10.265
11.2337
13.7766
18.6405
24.0392
28.6499
34.5322
42.6318
49.614
51.8618
53.8015
58.1808
64.6567
70.5494
74.5508
78.2101
80.9421
83.3161
85.2141
85.8901
85.4764
82.5653
77.2193
68.9359
57.3077
45.4704
34.7773
26.3206
21.6207
19.8069
22.2836
27.539
36.014
46.5343
58.1352
67.6676
75.4845
80.2529
83.1836
85.2009
83.1061
79.0146
76.5557
75.1338
73.1247
71.5893
71.8592
72.634
72.632
72.8434
73.5639
75.384
78.6208
81.6785
83.1089
83.0769
82.3998
80.8463
78.4541
75.0746
71.0598
67.7778
65.3419
64.7448
65.1343
66.4808
68.0872
69.907
71.6237
73.262
74.7292