/*--------------------------------*- C++ -*----------------------------------*\
| =========                 |                                                 |
| \\      /  F ield         | OpenFOAM: The Open Source CFD Toolbox           |
|  \\    /   O peration     | Version:  2.4.0                                 |
|   \\  /    A nd           | Web:      www.OpenFOAM.org                      |
|    \\/     M anipulation  |                                                 |
\*---------------------------------------------------------------------------*/
FoamFile
{
    version     2.0;
    format      ascii;
    class       surfaceScalarField;
    location    "0.105";
    object      phi_0;
}
// * * * * * * * * * * * * * * * * * * * * * * * * * * * * * * * * * * * * * //

dimensions      [0 3 -1 0 0 0 0];

internalField   nonuniform List<scalar> 
8640
(
1.14697e-05
1.35303e-05
7.17669e-06
4.293e-06
5.92108e-06
1.25561e-06
5.35928e-06
5.61804e-07
5.1011e-06
2.58174e-07
4.92214e-06
1.78963e-07
4.81278e-06
1.09363e-07
4.69755e-06
1.15222e-07
4.66723e-06
3.03248e-08
5.58949e-07
4.10828e-06
2.10571e-05
1.74732e-05
1.74617e-05
7.88842e-06
1.55127e-05
3.20464e-06
1.42472e-05
1.82728e-06
1.34989e-05
1.00651e-06
1.29816e-05
6.96245e-07
1.27067e-05
3.84248e-07
1.23423e-05
4.79687e-07
1.22834e-05
8.91951e-08
1.70286e-06
1.11395e-05
2.57081e-05
1.67651e-05
2.41261e-05
9.47039e-06
2.26045e-05
4.72627e-06
2.12348e-05
3.19693e-06
2.02448e-05
1.9965e-06
1.95026e-05
1.4385e-06
1.91175e-05
7.69329e-07
1.85926e-05
1.00453e-06
1.8416e-05
2.65809e-07
2.27497e-06
1.78439e-05
2.74573e-05
1.43078e-05
2.77764e-05
9.1513e-06
2.73645e-05
5.13817e-06
2.65293e-05
4.03216e-06
2.56931e-05
2.83265e-06
2.49219e-05
2.20976e-06
2.45252e-05
1.16599e-06
2.39649e-05
1.56484e-06
2.35632e-05
6.6751e-07
1.99702e-06
2.38412e-05
2.76229e-05
1.16849e-05
2.89622e-05
7.81197e-06
2.96118e-05
4.48858e-06
2.96873e-05
3.95665e-06
2.94557e-05
3.06429e-06
2.89512e-05
2.7142e-06
2.87289e-05
1.38829e-06
2.82775e-05
2.01629e-06
2.77194e-05
1.22557e-06
9.62265e-07
2.87542e-05
2.73978e-05
9.28715e-06
2.89798e-05
6.22996e-06
3.00157e-05
3.45272e-06
3.06864e-05
3.2859e-06
3.11943e-05
2.55636e-06
3.11923e-05
2.71622e-06
3.13679e-05
1.21266e-06
3.11798e-05
2.20441e-06
3.07699e-05
1.63553e-06
4.63631e-07
3.12685e-05
2.72441e-05
7.04308e-06
2.88532e-05
4.62082e-06
2.98975e-05
2.40845e-06
3.06309e-05
2.55246e-06
3.14279e-05
1.75944e-06
3.18319e-05
2.3122e-06
3.23347e-05
7.09856e-07
3.24444e-05
2.09464e-06
3.25231e-05
1.55692e-06
3.53847e-07
3.26328e-05
2.72154e-05
4.8277e-06
2.89585e-05
2.87773e-06
2.98325e-05
1.53447e-06
3.04701e-05
1.91481e-06
3.11822e-05
1.04736e-06
3.18414e-05
1.65301e-06
3.24206e-05
1.30614e-07
3.27736e-05
1.74166e-06
3.33362e-05
9.94338e-07
-7.86948e-07
3.4477e-05
2.72421e-05
2.5856e-06
2.89897e-05
1.13009e-06
2.97022e-05
8.21979e-07
3.03969e-05
1.22011e-06
3.11773e-05
2.66936e-07
3.18506e-05
9.7978e-07
3.22915e-05
-3.10315e-07
3.28214e-05
1.21173e-06
3.34744e-05
3.41408e-07
-1.32623e-06
3.40136e-05
2.72483e-05
3.37256e-07
2.8923e-05
-5.44607e-07
2.96055e-05
1.39528e-07
3.04768e-05
3.48806e-07
3.12539e-05
-5.10163e-07
3.17475e-05
4.86227e-07
3.21474e-05
-7.10299e-07
3.28296e-05
5.29543e-07
3.34749e-05
-3.03896e-07
-1.45409e-06
3.36028e-05
2.72557e-05
-1.9184e-06
2.89113e-05
-2.20022e-06
2.95904e-05
-5.39627e-07
3.05006e-05
-5.61377e-07
3.12459e-05
-1.25545e-06
3.17814e-05
-4.92532e-08
3.2176e-05
-1.10491e-06
3.28229e-05
-1.17359e-07
3.3333e-05
-8.13984e-07
-1.45669e-06
3.33356e-05
2.72948e-05
-4.21323e-06
2.89131e-05
-3.81846e-06
2.96327e-05
-1.25925e-06
3.05544e-05
-1.48305e-06
3.12861e-05
-1.98714e-06
3.18264e-05
-5.89547e-07
3.21855e-05
-1.4641e-06
3.27901e-05
-7.2192e-07
3.32335e-05
-1.25743e-06
-1.73693e-06
3.35138e-05
2.73648e-05
-6.57806e-06
2.89525e-05
-5.40609e-06
2.97622e-05
-2.06895e-06
3.06335e-05
-2.35437e-06
3.12774e-05
-2.63108e-06
3.18376e-05
-1.14975e-06
3.22561e-05
-1.88257e-06
3.283e-05
-1.29582e-06
3.32232e-05
-1.6506e-06
-2.22027e-06
3.37065e-05
2.74625e-05
-9.04058e-06
2.88507e-05
-6.79422e-06
2.98769e-05
-3.09519e-06
3.07254e-05
-3.20285e-06
3.13224e-05
-3.22811e-06
3.18812e-05
-1.70855e-06
3.22085e-05
-2.20983e-06
3.25536e-05
-1.64096e-06
3.27939e-05
-1.89086e-06
-2.52821e-06
3.31018e-05
2.75553e-05
-1.15959e-05
2.8889e-05
-8.12792e-06
3.00045e-05
-4.21074e-06
3.07376e-05
-3.93589e-06
3.10346e-05
-3.52513e-06
3.12905e-05
-1.96449e-06
3.12433e-05
-2.16261e-06
3.11913e-05
-1.58895e-06
3.11327e-05
-1.83222e-06
-2.4404e-06
3.10448e-05
2.76887e-05
-1.42845e-05
2.88661e-05
-9.30533e-06
2.9624e-05
-4.96871e-06
2.97059e-05
-4.01779e-06
2.93243e-05
-3.1435e-06
2.90582e-05
-1.69842e-06
2.8614e-05
-1.71841e-06
2.82605e-05
-1.2354e-06
2.79401e-05
-1.51186e-06
-1.48556e-06
2.69853e-05
2.74779e-05
-1.67624e-05
2.77093e-05
-9.53672e-06
2.73865e-05
-4.64592e-06
2.65376e-05
-3.16887e-06
2.55958e-05
-2.20174e-06
2.5021e-05
-1.12361e-06
2.44133e-05
-1.11066e-06
2.3978e-05
-8.00143e-07
2.35567e-05
-1.09056e-06
-8.19101e-07
2.28902e-05
2.57098e-05
-1.74722e-05
2.40873e-05
-7.91421e-06
2.26219e-05
-3.18052e-06
2.12432e-05
-1.79018e-06
2.01731e-05
-1.13163e-06
1.95831e-05
-5.33634e-07
1.90169e-05
-5.44454e-07
1.86316e-05
-4.14843e-07
1.81696e-05
-6.28526e-07
-3.47394e-07
1.76979e-05
2.10574e-05
-1.35296e-05
1.74425e-05
-4.29929e-06
1.55173e-05
-1.25532e-06
1.42638e-05
-5.36678e-07
1.34437e-05
-3.11572e-07
1.30367e-05
-1.26611e-07
1.26389e-05
-1.46698e-07
1.23557e-05
-1.31665e-07
1.1949e-05
-2.21753e-07
-7.12788e-08
1.16728e-05
1.14704e-05
7.17113e-06
5.91582e-06
5.37914e-06
5.06757e-06
4.94096e-06
4.79426e-06
4.66259e-06
4.44084e-06
4.36956e-06
5.84565e-06
5.90672e-08
-1.79644e-06
7.39633e-06
-4.16514e-07
-1.13417e-06
7.64016e-06
5.67492e-07
-8.11319e-07
8.25113e-06
-4.04853e-08
-5.70484e-07
8.45325e-06
-3.49432e-08
-1.67173e-07
8.46301e-06
-2.00849e-06
1.99873e-06
8.86528e-06
-3.40319e-06
3.00093e-06
8.0608e-06
-3.91517e-06
4.71965e-06
7.41638e-06
-4.583e-06
5.22742e-06
6.19732e-06
-2.22057e-06
3.43962e-06
4.94783e-06
-4.91165e-07
1.74065e-06
6.00076e-06
5.28624e-06
-6.33916e-06
8.2224e-06
7.97304e-06
-1.01947e-05
1.0756e-05
8.19185e-06
-1.07254e-05
1.45741e-05
1.11461e-05
-1.49642e-05
1.75366e-05
9.203e-06
-1.21655e-05
1.95182e-05
3.75886e-06
-5.74045e-06
2.09251e-05
9.59517e-07
-2.36641e-06
2.22642e-05
-4.39498e-06
3.05586e-06
2.39515e-05
-1.0214e-05
8.52673e-06
2.53178e-05
-1.12353e-05
9.86902e-06
2.69085e-05
-1.52981e-05
1.37074e-05
2.83779e-05
-2.07319e-05
1.92625e-05
2.94942e-05
-2.11801e-05
2.00638e-05
3.09139e-05
-2.36744e-05
2.22547e-05
3.15278e-05
-2.62318e-05
2.5618e-05
3.12796e-05
-2.60295e-05
2.62776e-05
3.11208e-05
-2.563e-05
2.57889e-05
3.02595e-05
-2.72974e-05
2.81587e-05
2.84406e-05
-2.4746e-05
2.65648e-05
2.71447e-05
-2.4141e-05
2.5437e-05
2.7016e-05
-2.61949e-05
2.63236e-05
2.68983e-05
-2.45361e-05
2.46538e-05
2.73035e-05
-2.41248e-05
2.37196e-05
2.7299e-05
-2.19233e-05
2.19278e-05
2.74302e-05
-1.60316e-05
1.59004e-05
2.7664e-05
-7.97604e-06
7.74222e-06
2.78064e-05
1.09388e-06
-1.23626e-06
2.83703e-05
9.60977e-06
-1.01737e-05
2.83777e-05
2.07765e-05
-2.07839e-05
2.82919e-05
2.71892e-05
-2.71034e-05
2.7848e-05
3.3458e-05
-3.30141e-05
2.79047e-05
3.58192e-05
-3.58759e-05
2.82355e-05
3.80894e-05
-3.84202e-05
2.81669e-05
3.35116e-05
-3.3443e-05
2.83056e-05
2.99919e-05
-3.01306e-05
2.81771e-05
2.12036e-05
-2.10752e-05
2.84791e-05
1.26344e-05
-1.29363e-05
2.79271e-05
2.40528e-06
-1.8533e-06
2.77695e-05
-6.97448e-06
7.13212e-06
2.72548e-05
-1.60906e-05
1.66053e-05
2.6539e-05
-2.07011e-05
2.14168e-05
2.57838e-05
-2.74494e-05
2.82047e-05
2.44913e-05
-2.76128e-05
2.89053e-05
2.28047e-05
-2.56501e-05
2.73368e-05
2.17107e-05
-2.1245e-05
2.2339e-05
2.01155e-05
-2.14883e-05
2.30835e-05
1.9977e-05
-9.89254e-06
1.0031e-05
1.73917e-05
-1.76661e-05
2.02513e-05
1.61312e-05
-1.04779e-05
1.17384e-05
1.65575e-05
-1.79834e-06
1.37205e-06
1.68778e-05
6.1655e-06
-6.48576e-06
2.11523e-05
-2.36219e-05
1.93474e-05
2.48253e-05
-3.37872e-05
3.01142e-05
2.75569e-05
-3.47771e-05
3.20455e-05
2.60569e-05
-2.54423e-05
2.69423e-05
2.38545e-05
-1.82529e-05
2.04552e-05
2.24117e-05
-7.05038e-06
8.49317e-06
2.16989e-05
2.82609e-06
-2.1132e-06
2.09764e-05
1.51081e-05
-1.43857e-05
2.05108e-05
2.89333e-05
-2.84677e-05
1.93253e-05
4.08971e-05
-3.97116e-05
1.82722e-05
4.18917e-05
-4.08386e-05
1.64112e-05
3.98409e-05
-3.798e-05
1.57152e-05
2.99852e-05
-2.92891e-05
1.42167e-05
3.05621e-05
-2.90635e-05
1.46573e-05
2.36709e-05
-2.41115e-05
1.36293e-05
3.06943e-05
-2.96663e-05
1.48556e-05
1.96836e-05
-2.09099e-05
1.45625e-05
2.43007e-05
-2.40075e-05
1.59439e-05
7.29621e-06
-8.6777e-06
1.57255e-05
1.19215e-05
-1.1703e-05
1.70831e-05
-3.67829e-06
2.32064e-06
1.60437e-05
4.12421e-06
-3.08481e-06
1.66833e-05
-8.80236e-06
8.16279e-06
1.53736e-05
-8.56248e-09
1.31824e-06
1.68647e-05
-1.10361e-05
9.5451e-06
1.58684e-05
-9.96356e-07
1.99262e-06
1.72648e-05
-8.58208e-06
7.18564e-06
1.59607e-05
8.97464e-07
4.06727e-07
1.68808e-05
-6.25183e-06
5.33171e-06
1.51923e-05
1.09162e-06
5.96891e-07
1.62201e-05
-5.30379e-06
4.27592e-06
1.43186e-05
2.94433e-06
-1.04277e-06
1.55518e-05
-1.42506e-06
1.91868e-07
1.39254e-05
9.31746e-06
-7.69108e-06
1.50645e-05
7.13458e-06
-8.27368e-06
1.45955e-05
2.10404e-05
-2.05714e-05
1.57968e-05
2.24353e-05
-2.36367e-05
4.96822e-05
-4.73887e-05
1.35034e-05
1.18228e-05
-6.24292e-07
1.2871e-05
-1.46465e-06
1.30155e-05
4.22943e-07
1.31932e-05
-2.18112e-07
1.34634e-05
-3.05159e-07
1.30087e-05
-1.55384e-06
1.33685e-05
-3.76302e-06
1.27209e-05
-3.26755e-06
1.21347e-05
-3.99676e-06
1.17006e-05
-1.78644e-06
1.04991e-05
7.10313e-07
1.13222e-05
4.46307e-06
1.29072e-05
6.38811e-06
1.42254e-05
6.87359e-06
1.68857e-05
8.48587e-06
1.97196e-05
6.36906e-06
2.21796e-05
1.29891e-06
2.40384e-05
-8.99285e-07
2.5506e-05
-5.86264e-06
2.72022e-05
-1.19102e-05
2.90286e-05
-1.30617e-05
3.06065e-05
-1.6876e-05
3.15752e-05
-2.17006e-05
3.23705e-05
-2.19753e-05
3.30468e-05
-2.43508e-05
3.2621e-05
-2.5806e-05
3.15809e-05
-2.49894e-05
3.09106e-05
-2.49598e-05
2.94737e-05
-2.58605e-05
2.7845e-05
-2.31173e-05
2.7163e-05
-2.3459e-05
2.70223e-05
-2.60543e-05
2.66163e-05
-2.41301e-05
2.66668e-05
-2.41753e-05
2.65681e-05
-2.18246e-05
2.66483e-05
-1.61118e-05
2.71361e-05
-8.46379e-06
2.73907e-05
8.39266e-07
2.80556e-05
8.94483e-06
2.85788e-05
2.02534e-05
2.89159e-05
2.68521e-05
2.88761e-05
3.34978e-05
2.88336e-05
3.58618e-05
2.93956e-05
3.75274e-05
2.9555e-05
3.33522e-05
2.98488e-05
2.96981e-05
2.97598e-05
2.12926e-05
3.01023e-05
1.22919e-05
2.96399e-05
2.86763e-06
2.93309e-05
-6.66543e-06
2.86601e-05
-1.54198e-05
2.80154e-05
-2.00564e-05
2.68865e-05
-2.63205e-05
2.52899e-05
-2.60162e-05
2.35913e-05
-2.39514e-05
2.2042e-05
-1.96957e-05
2.00343e-05
-1.94807e-05
1.99e-05
-9.75818e-06
1.65832e-05
-1.43492e-05
1.49579e-05
-8.85267e-06
1.47827e-05
-1.62309e-06
1.65367e-05
4.41145e-06
1.97315e-05
-2.68167e-05
2.19615e-05
-3.60173e-05
2.48316e-05
-3.76471e-05
2.3991e-05
-2.46018e-05
2.25112e-05
-1.6773e-05
2.10631e-05
-5.6023e-06
2.04476e-05
3.44161e-06
1.97595e-05
1.57962e-05
1.94671e-05
2.92257e-05
1.84209e-05
4.19433e-05
1.78474e-05
4.24653e-05
1.62135e-05
4.14748e-05
1.60555e-05
3.01432e-05
1.47036e-05
3.19139e-05
1.54688e-05
2.29057e-05
1.48096e-05
3.13534e-05
1.62513e-05
1.82419e-05
1.61648e-05
2.43872e-05
1.74383e-05
6.0227e-06
1.7199e-05
1.21608e-05
1.84393e-05
-4.91857e-06
1.75922e-05
4.97133e-06
1.8038e-05
-9.24823e-06
1.65893e-05
1.44014e-06
1.80053e-05
-1.24521e-05
1.6905e-05
1.0399e-07
1.85953e-05
-1.02725e-05
1.72211e-05
2.27173e-06
1.88455e-05
-7.87627e-06
1.68408e-05
3.09629e-06
1.84981e-05
-6.96107e-06
1.66331e-05
4.80938e-06
1.74243e-05
-2.21627e-06
1.64324e-05
1.03093e-05
1.75287e-05
6.03828e-06
1.53818e-05
2.31873e-05
1.98467e-05
1.79704e-05
4.99017e-05
1.96272e-05
1.80337e-05
-8.14098e-07
1.8613e-05
-2.04392e-06
1.88378e-05
1.98147e-07
1.85493e-05
7.03616e-08
1.88603e-05
-6.16128e-07
1.85578e-05
-1.25136e-06
1.83108e-05
-3.51601e-06
1.81772e-05
-3.13397e-06
1.74327e-05
-3.2523e-06
1.70578e-05
-1.41149e-06
1.66639e-05
1.10415e-06
1.69836e-05
4.14343e-06
1.79266e-05
5.44509e-06
1.94285e-05
5.37163e-06
2.13987e-05
6.51567e-06
2.3388e-05
4.37975e-06
2.56789e-05
-9.91954e-07
2.78922e-05
-3.11258e-06
2.94636e-05
-7.434e-06
3.07997e-05
-1.32463e-05
3.2507e-05
-1.47691e-05
3.36903e-05
-1.80593e-05
3.37903e-05
-2.18006e-05
3.40403e-05
-2.22254e-05
3.39777e-05
-2.42881e-05
3.28024e-05
-2.46307e-05
3.15711e-05
-2.3758e-05
3.07334e-05
-2.41221e-05
2.90175e-05
-2.41445e-05
2.7676e-05
-2.17758e-05
2.7286e-05
-2.3069e-05
2.66387e-05
-2.5407e-05
2.57674e-05
-2.32589e-05
2.55161e-05
-2.3924e-05
2.55407e-05
-2.18492e-05
2.5691e-05
-1.62621e-05
2.63372e-05
-9.11e-06
2.68454e-05
3.31015e-07
2.7476e-05
8.31428e-06
2.836e-05
1.93694e-05
2.89506e-05
2.62615e-05
2.94356e-05
3.30128e-05
2.9459e-05
3.58383e-05
3.01399e-05
3.68465e-05
3.05075e-05
3.29846e-05
3.09516e-05
2.92541e-05
3.0978e-05
2.12661e-05
3.12242e-05
1.20458e-05
3.09062e-05
3.18556e-06
3.05361e-05
-6.29523e-06
2.97058e-05
-1.45895e-05
2.90398e-05
-1.93904e-05
2.73887e-05
-2.46694e-05
2.59806e-05
-2.46081e-05
2.39047e-05
-2.18756e-05
2.20569e-05
-1.78479e-05
2.02876e-05
-1.77114e-05
1.92098e-05
-8.68037e-06
1.57271e-05
-1.08665e-05
1.37146e-05
-6.84009e-06
1.33907e-05
-1.29924e-06
1.69025e-05
8.99636e-07
1.86332e-05
-2.85474e-05
1.92457e-05
-3.66298e-05
2.17432e-05
-4.01446e-05
2.12167e-05
-2.40752e-05
2.06861e-05
-1.62425e-05
1.93612e-05
-4.27737e-06
1.90136e-05
3.78923e-06
1.83344e-05
1.64754e-05
1.82793e-05
2.92809e-05
1.74272e-05
4.27953e-05
1.73616e-05
4.25309e-05
1.59845e-05
4.28519e-05
1.6289e-05
2.98387e-05
1.51733e-05
3.30297e-05
1.62212e-05
2.18577e-05
1.59825e-05
3.15921e-05
1.7563e-05
1.66614e-05
1.76316e-05
2.43187e-05
1.87959e-05
4.8584e-06
1.85605e-05
1.23962e-05
1.94435e-05
-5.80157e-06
1.87295e-05
5.68529e-06
1.89813e-05
-9.50001e-06
1.75546e-05
2.86683e-06
1.85836e-05
-1.34811e-05
1.75322e-05
1.15535e-06
1.93563e-05
-1.20966e-05
1.81994e-05
3.42863e-06
2.01299e-05
-9.80671e-06
1.86301e-05
4.59606e-06
2.03382e-05
-8.66918e-06
1.9282e-05
5.8656e-06
2.09605e-05
-3.89484e-06
1.74908e-05
1.3779e-05
1.96691e-05
3.85999e-06
1.8905e-05
2.39514e-05
2.39471e-05
1.29283e-05
4.9551e-05
2.42978e-05
2.40401e-05
-1.01308e-06
2.3901e-05
-1.90482e-06
2.41274e-05
-2.82266e-08
2.37823e-05
4.15481e-07
2.34814e-05
-3.15222e-07
2.36715e-05
-1.44151e-06
2.3109e-05
-2.95344e-06
2.29619e-05
-2.98687e-06
2.27894e-05
-3.07981e-06
2.21078e-05
-7.2989e-07
2.223e-05
9.81912e-07
2.27546e-05
3.61892e-06
2.30086e-05
5.19104e-06
2.45364e-05
3.84387e-06
2.64711e-05
4.58096e-06
2.78979e-05
2.95293e-06
2.96368e-05
-2.73089e-06
3.17324e-05
-5.20817e-06
3.31397e-05
-8.84128e-06
3.38793e-05
-1.39859e-05
3.5061e-05
-1.59508e-05
3.57137e-05
-1.8712e-05
3.52432e-05
-2.133e-05
3.50035e-05
-2.19857e-05
3.43562e-05
-2.36408e-05
3.28546e-05
-2.31291e-05
3.17141e-05
-2.26175e-05
3.06929e-05
-2.3101e-05
2.88302e-05
-2.22817e-05
2.78489e-05
-2.07946e-05
2.74027e-05
-2.26228e-05
2.59096e-05
-2.39139e-05
2.45501e-05
-2.18993e-05
2.40922e-05
-2.34662e-05
2.43125e-05
-2.20695e-05
2.47068e-05
-1.66564e-05
2.54144e-05
-9.81762e-06
2.61522e-05
-4.06803e-07
2.65688e-05
7.89765e-06
2.76872e-05
1.8251e-05
2.84791e-05
2.54696e-05
2.9517e-05
3.19749e-05
2.98354e-05
3.552e-05
3.05366e-05
3.61453e-05
3.10936e-05
3.24276e-05
3.16196e-05
2.87281e-05
3.17924e-05
2.10933e-05
3.18929e-05
1.19453e-05
3.17408e-05
3.33763e-06
3.13374e-05
-5.89182e-06
3.04836e-05
-1.37357e-05
2.96964e-05
-1.86032e-05
2.77585e-05
-2.27314e-05
2.64542e-05
-2.33038e-05
2.38858e-05
-1.93072e-05
2.21151e-05
-1.60772e-05
2.04013e-05
-1.59977e-05
1.82199e-05
-6.49897e-06
1.4623e-05
-7.26957e-06
1.2065e-05
-4.2821e-06
1.25241e-05
-1.75836e-06
1.71077e-05
-3.68399e-06
1.74427e-05
-2.88823e-05
1.74065e-05
-3.65936e-05
1.89976e-05
-4.17357e-05
1.82461e-05
-2.33237e-05
1.8665e-05
-1.66614e-05
1.74346e-05
-3.04699e-06
1.75637e-05
3.66012e-06
1.67917e-05
1.72474e-05
1.69373e-05
2.91353e-05
1.628e-05
4.34526e-05
1.67339e-05
4.2077e-05
1.56852e-05
4.39006e-05
1.64822e-05
2.90417e-05
1.5623e-05
3.38889e-05
1.6952e-05
2.05288e-05
1.69344e-05
3.16097e-05
1.85511e-05
1.50446e-05
1.87848e-05
2.4085e-05
1.98932e-05
3.74992e-06
1.97108e-05
1.25787e-05
2.03376e-05
-6.42838e-06
1.97873e-05
6.23556e-06
1.99457e-05
-9.65839e-06
1.85786e-05
4.23388e-06
1.91559e-05
-1.40584e-05
1.82914e-05
2.01989e-06
1.96901e-05
-1.34952e-05
1.89052e-05
4.21349e-06
2.03881e-05
-1.12896e-05
1.95212e-05
5.46289e-06
2.15212e-05
-1.06691e-05
1.9949e-05
7.43774e-06
2.40904e-05
-8.0362e-06
2.26067e-05
1.52627e-05
2.36093e-05
2.85738e-06
1.91969e-05
2.83638e-05
2.45291e-05
7.59608e-06
4.60451e-05
2.8035e-05
2.92179e-05
-1.47686e-06
2.8662e-05
-1.34888e-06
2.8474e-05
1.59769e-07
2.83015e-05
5.8798e-07
2.74323e-05
5.53949e-07
2.75947e-05
-1.60387e-06
2.72016e-05
-2.56036e-06
2.68879e-05
-2.67317e-06
2.72523e-05
-3.44421e-06
2.66525e-05
-1.30068e-07
2.67934e-05
8.40961e-07
2.77104e-05
2.70199e-06
2.78056e-05
5.09584e-06
2.89165e-05
2.73297e-06
3.08059e-05
2.69158e-06
3.20493e-05
1.70949e-06
3.31233e-05
-3.80489e-06
3.47886e-05
-6.87345e-06
3.58707e-05
-9.92345e-06
3.59908e-05
-1.41059e-05
3.65591e-05
-1.65191e-05
3.66447e-05
-1.87976e-05
3.57398e-05
-2.04251e-05
3.51134e-05
-2.13592e-05
3.4051e-05
-2.25784e-05
3.25197e-05
-2.15978e-05
3.15243e-05
-2.16221e-05
3.03625e-05
-2.19391e-05
2.85375e-05
-2.04568e-05
2.76409e-05
-1.9898e-05
2.65488e-05
-2.15306e-05
2.39976e-05
-2.13626e-05
2.23704e-05
-2.02721e-05
2.20935e-05
-2.31892e-05
2.26599e-05
-2.26359e-05
2.33262e-05
-1.73226e-05
2.41496e-05
-1.06411e-05
2.51688e-05
-1.42599e-06
2.54429e-05
7.6235e-06
2.65263e-05
1.71676e-05
2.74401e-05
2.45559e-05
2.89e-05
3.05149e-05
2.97211e-05
3.46989e-05
3.05182e-05
3.53482e-05
3.12383e-05
3.17075e-05
3.18469e-05
2.81195e-05
3.2194e-05
2.07462e-05
3.22312e-05
1.19081e-05
3.2225e-05
3.34382e-06
3.1796e-05
-5.46274e-06
3.09345e-05
-1.28742e-05
2.98613e-05
-1.753e-05
2.78577e-05
-2.07279e-05
2.63236e-05
-2.17698e-05
2.37176e-05
-1.67011e-05
2.20344e-05
-1.4394e-05
2.00187e-05
-1.39821e-05
1.75145e-05
-3.99476e-06
1.32196e-05
-2.97468e-06
1.09474e-05
-2.0099e-06
1.25109e-05
-3.32182e-06
1.63897e-05
-7.56281e-06
1.63469e-05
-2.88395e-05
1.71326e-05
-3.73793e-05
1.75188e-05
-4.21219e-05
1.60029e-05
-2.18078e-05
1.67777e-05
-1.74361e-05
1.53537e-05
-1.62305e-06
1.60763e-05
2.93755e-06
1.50031e-05
1.83206e-05
1.55576e-05
2.85808e-05
1.50296e-05
4.39806e-05
1.60673e-05
4.10393e-05
1.53525e-05
4.46154e-05
1.65547e-05
2.78394e-05
1.60348e-05
3.44089e-05
1.76244e-05
1.89391e-05
1.7826e-05
3.14081e-05
1.93948e-05
1.34758e-05
1.96029e-05
2.38769e-05
2.06801e-05
2.67275e-06
2.06379e-05
1.26208e-05
2.10524e-05
-6.84286e-06
2.03868e-05
6.90111e-06
2.03838e-05
-9.65538e-06
1.90998e-05
5.51789e-06
1.91818e-05
-1.41404e-05
1.83925e-05
2.80928e-06
1.93008e-05
-1.44036e-05
1.83501e-05
5.16416e-06
1.95434e-05
-1.24828e-05
1.81902e-05
6.81611e-06
1.98825e-05
-1.23614e-05
1.83931e-05
8.92709e-06
2.15733e-05
-1.12164e-05
2.1873e-05
1.4963e-05
2.8449e-05
-3.71867e-06
2.40549e-05
3.2758e-05
2.44468e-05
7.20418e-06
4.15463e-05
2.89456e-05
3.22622e-05
-2.47061e-06
3.21015e-05
-1.18818e-06
3.16666e-05
5.94729e-07
3.16223e-05
6.32262e-07
3.06154e-05
1.56082e-06
3.0517e-05
-1.50544e-06
3.02963e-05
-2.33966e-06
2.98732e-05
-2.25012e-06
3.03858e-05
-3.95678e-06
3.02271e-05
2.86179e-08
3.02943e-05
7.73766e-07
3.13835e-05
1.61281e-06
3.17558e-05
4.72357e-06
3.23778e-05
2.11099e-06
3.39856e-05
1.08378e-06
3.51837e-05
5.11336e-07
3.57135e-05
-4.33466e-06
3.67034e-05
-7.86341e-06
3.74485e-05
-1.06685e-05
3.71967e-05
-1.38541e-05
3.70935e-05
-1.6416e-05
3.6727e-05
-1.84311e-05
3.56846e-05
-1.93828e-05
3.48383e-05
-2.05129e-05
3.35448e-05
-2.1285e-05
3.22105e-05
-2.02635e-05
3.14695e-05
-2.08811e-05
3.02079e-05
-2.06775e-05
2.83592e-05
-1.86081e-05
2.71627e-05
-1.87015e-05
2.50844e-05
-1.94524e-05
2.17036e-05
-1.79818e-05
2.01262e-05
-1.86947e-05
2.01095e-05
-2.31725e-05
2.08897e-05
-2.34161e-05
2.16207e-05
-1.80536e-05
2.23036e-05
-1.1324e-05
2.33869e-05
-2.50933e-06
2.38185e-05
7.19189e-06
2.49208e-05
1.60653e-05
2.60526e-05
2.34241e-05
2.78157e-05
2.87518e-05
2.91903e-05
3.33243e-05
3.01607e-05
3.43778e-05
3.10837e-05
3.07845e-05
3.18403e-05
2.7363e-05
3.22665e-05
2.03199e-05
3.23021e-05
1.18724e-05
3.24255e-05
3.22046e-06
3.18759e-05
-4.91319e-06
3.09612e-05
-1.19595e-05
2.96931e-05
-1.62619e-05
2.78063e-05
-1.8841e-05
2.58481e-05
-1.98116e-05
2.34769e-05
-1.43299e-05
2.15481e-05
-1.24652e-05
1.93273e-05
-1.17613e-05
1.73484e-05
-2.01579e-06
1.23976e-05
1.97606e-06
1.10206e-05
-6.32839e-07
1.29703e-05
-5.27153e-06
1.53205e-05
-9.91302e-06
1.57682e-05
-2.92873e-05
1.76835e-05
-3.92946e-05
1.65799e-05
-4.10183e-05
1.43194e-05
-1.95473e-05
1.50513e-05
-1.81681e-05
1.34925e-05
-6.41862e-08
1.47504e-05
1.6796e-06
1.31225e-05
1.99485e-05
1.42058e-05
2.74975e-05
1.3744e-05
4.44424e-05
1.52408e-05
3.95424e-05
1.49076e-05
4.49486e-05
1.65369e-05
2.62101e-05
1.6262e-05
3.46838e-05
1.81134e-05
1.70878e-05
1.84671e-05
3.10544e-05
2.0044e-05
1.18989e-05
2.01482e-05
2.37727e-05
2.11089e-05
1.71213e-06
2.10402e-05
1.26895e-05
2.14644e-05
-7.26703e-06
2.0635e-05
7.73054e-06
2.07359e-05
-9.75632e-06
1.97653e-05
6.48852e-06
1.97063e-05
-1.40814e-05
1.88742e-05
3.64135e-06
1.95349e-05
-1.50642e-05
1.8422e-05
6.27702e-06
1.94038e-05
-1.34646e-05
1.79149e-05
8.30508e-06
1.90472e-05
-1.34937e-05
1.69833e-05
1.0991e-05
1.86743e-05
-1.29074e-05
1.72117e-05
1.64256e-05
2.34287e-05
-9.93562e-06
2.65704e-05
2.96162e-05
2.71594e-05
6.61525e-06
3.843e-05
3.02757e-05
3.34127e-05
-3.25052e-06
3.36221e-05
-1.39755e-06
3.32548e-05
9.62074e-07
3.32586e-05
6.28399e-07
3.26229e-05
2.19661e-06
3.23469e-05
-1.22949e-06
3.22964e-05
-2.28911e-06
3.20131e-05
-1.96684e-06
3.22418e-05
-4.18555e-06
3.24688e-05
-1.98285e-07
3.25548e-05
6.87731e-07
3.34654e-05
7.02187e-07
3.42993e-05
3.88966e-06
3.46725e-05
1.73782e-06
3.57183e-05
3.79818e-08
3.6864e-05
-6.34391e-07
3.7083e-05
-4.55364e-06
3.74589e-05
-8.23931e-06
3.7831e-05
-1.10406e-05
3.74215e-05
-1.34446e-05
3.69221e-05
-1.59165e-05
3.62245e-05
-1.77335e-05
3.5299e-05
-1.84573e-05
3.44778e-05
-1.96917e-05
3.33099e-05
-2.01171e-05
3.23815e-05
-1.9335e-05
3.16585e-05
-2.01582e-05
3.00789e-05
-1.9098e-05
2.80789e-05
-1.66081e-05
2.62884e-05
-1.69109e-05
2.30646e-05
-1.62286e-05
1.91357e-05
-1.40529e-05
1.77864e-05
-1.73454e-05
1.80507e-05
-2.34368e-05
1.88652e-05
-2.42306e-05
1.95118e-05
-1.87002e-05
2.00919e-05
-1.1904e-05
2.10368e-05
-3.45428e-06
2.17072e-05
6.5215e-06
2.27721e-05
1.50004e-05
2.40709e-05
2.21253e-05
2.59812e-05
2.68415e-05
2.79263e-05
3.13792e-05
2.93212e-05
3.29829e-05
3.04883e-05
2.96173e-05
3.14226e-05
2.64287e-05
3.20014e-05
1.97412e-05
3.20984e-05
1.17754e-05
3.21765e-05
3.14231e-06
3.15433e-05
-4.27997e-06
3.05504e-05
-1.09666e-05
2.90891e-05
-1.48006e-05
2.7295e-05
-1.70469e-05
2.49283e-05
-1.74449e-05
2.29727e-05
-1.23743e-05
2.07679e-05
-1.02605e-05
1.84719e-05
-9.46527e-06
1.68523e-05
-3.96179e-07
1.2521e-05
6.3073e-06
1.1404e-05
4.84235e-07
1.27004e-05
-6.56792e-06
1.45607e-05
-1.17733e-05
1.53474e-05
-3.0074e-05
1.74309e-05
-4.13782e-05
1.49189e-05
-3.85062e-05
1.27265e-05
-1.73549e-05
1.33678e-05
-1.88094e-05
1.14471e-05
1.85647e-06
1.29392e-05
1.87512e-07
1.11146e-05
2.17731e-05
1.28664e-05
2.57457e-05
1.23786e-05
4.49302e-05
1.44154e-05
3.75056e-05
1.44148e-05
4.49492e-05
1.65294e-05
2.40955e-05
1.63827e-05
3.48306e-05
1.83894e-05
1.5081e-05
1.88763e-05
3.05675e-05
2.04355e-05
1.03397e-05
2.05854e-05
2.36228e-05
2.15192e-05
7.78271e-07
2.14697e-05
1.27389e-05
2.21384e-05
-7.93568e-06
2.14621e-05
8.40684e-06
2.1665e-05
-9.9592e-06
2.09069e-05
7.24654e-06
2.08886e-05
-1.40631e-05
2.00865e-05
4.44344e-06
2.05944e-05
-1.55721e-05
1.96612e-05
7.21016e-06
2.05075e-05
-1.43109e-05
1.9643e-05
9.16964e-06
2.05981e-05
-1.44489e-05
1.98185e-05
1.17706e-05
2.13221e-05
-1.44109e-05
1.90421e-05
1.87055e-05
1.99687e-05
-1.08622e-05
2.38477e-05
2.57373e-05
2.66026e-05
3.86034e-06
3.43211e-05
3.07115e-05
3.40151e-05
-2.78869e-06
3.35539e-05
-9.36289e-07
3.31651e-05
1.35086e-06
3.30899e-05
7.0358e-07
3.32268e-05
2.05972e-06
3.30911e-05
-1.09379e-06
3.32658e-05
-2.46382e-06
3.32918e-05
-1.99286e-06
3.30229e-05
-3.91665e-06
3.3438e-05
-6.1335e-07
3.35141e-05
6.11637e-07
3.39752e-05
2.41077e-07
3.51726e-05
2.69227e-06
3.54182e-05
1.49217e-06
3.59798e-05
-5.23549e-07
3.71074e-05
-1.76202e-06
3.72132e-05
-4.65944e-06
3.7255e-05
-8.28109e-06
3.74232e-05
-1.12089e-05
3.7069e-05
-1.30903e-05
3.65e-05
-1.53476e-05
3.57196e-05
-1.69531e-05
3.50458e-05
-1.77834e-05
3.43138e-05
-1.89597e-05
3.3194e-05
-1.89973e-05
3.23604e-05
-1.85014e-05
3.11863e-05
-1.89841e-05
2.90623e-05
-1.6974e-05
2.68273e-05
-1.43731e-05
2.43573e-05
-1.4441e-05
2.03655e-05
-1.22367e-05
1.6385e-05
-1.00724e-05
1.51806e-05
-1.61411e-05
1.5614e-05
-2.38701e-05
1.63635e-05
-2.49801e-05
1.67677e-05
-1.91044e-05
1.72514e-05
-1.23878e-05
1.8138e-05
-4.34089e-06
1.9159e-05
5.50048e-06
2.04123e-05
1.37471e-05
2.19796e-05
2.0558e-05
2.37589e-05
2.50621e-05
2.5971e-05
2.91671e-05
2.78537e-05
3.11003e-05
2.93203e-05
2.81507e-05
3.05144e-05
2.52346e-05
3.1285e-05
1.89706e-05
3.14463e-05
1.16141e-05
3.13811e-05
3.20758e-06
3.07487e-05
-3.64759e-06
2.96637e-05
-9.88167e-06
2.81156e-05
-1.32525e-05
2.6437e-05
-1.53683e-05
2.38142e-05
-1.48221e-05
2.21483e-05
-1.07083e-05
1.97174e-05
-7.82956e-06
1.73909e-05
-7.13879e-06
1.61475e-05
8.47242e-07
1.3997e-05
8.45781e-06
1.24029e-05
2.07829e-06
1.2272e-05
-6.437e-06
1.40772e-05
-1.35785e-05
1.40835e-05
-3.00803e-05
1.47329e-05
-4.20276e-05
1.17573e-05
-3.55305e-05
1.07349e-05
-1.63325e-05
1.14043e-05
-1.94788e-05
9.64803e-06
3.61272e-06
1.13672e-05
-1.53162e-06
9.21977e-06
2.39205e-05
1.14969e-05
2.34686e-05
1.10245e-05
4.54026e-05
1.36556e-05
3.48745e-05
1.39423e-05
4.46625e-05
1.64472e-05
2.15907e-05
1.65125e-05
3.47652e-05
1.85701e-05
1.30235e-05
1.91903e-05
2.99473e-05
2.07006e-05
8.82945e-06
2.09578e-05
2.33656e-05
2.1805e-05
-6.89295e-08
2.18989e-05
1.2645e-05
2.25132e-05
-8.54998e-06
2.19582e-05
8.96181e-06
2.20708e-05
-1.00717e-05
2.14996e-05
7.81766e-06
2.15319e-05
-1.40954e-05
2.08107e-05
5.16458e-06
2.11342e-05
-1.58955e-05
2.06972e-05
7.64712e-06
2.09231e-05
-1.45368e-05
2.07956e-05
9.29715e-06
2.10507e-05
-1.4704e-05
2.04313e-05
1.239e-05
2.05072e-05
-1.44868e-05
2.17238e-05
1.74889e-05
2.05204e-05
-9.65883e-06
2.24454e-05
2.38122e-05
2.42351e-05
2.07063e-06
2.87623e-05
2.97939e-05
3.31834e-05
-1.95841e-06
3.2756e-05
-5.08894e-07
3.25858e-05
1.52106e-06
3.26672e-05
6.22115e-07
3.35472e-05
1.17975e-06
3.3642e-05
-1.18861e-06
3.39327e-05
-2.75453e-06
3.39894e-05
-2.04954e-06
3.3137e-05
-3.06429e-06
3.34237e-05
-9.00016e-07
3.34629e-05
5.72429e-07
3.35419e-05
1.62124e-07
3.46448e-05
1.58934e-06
3.48945e-05
1.2425e-06
3.5454e-05
-1.08309e-06
3.66269e-05
-2.93486e-06
3.6945e-05
-4.97763e-06
3.69456e-05
-8.28162e-06
3.694e-05
-1.12034e-05
3.67298e-05
-1.28801e-05
3.61089e-05
-1.47267e-05
3.53586e-05
-1.62027e-05
3.48196e-05
-1.72445e-05
3.39655e-05
-1.81056e-05
3.27664e-05
-1.77981e-05
3.1722e-05
-1.7457e-05
2.9975e-05
-1.72371e-05
2.75043e-05
-1.45033e-05
2.5168e-05
-1.20368e-05
2.1829e-05
-1.11021e-05
1.68727e-05
-7.28044e-06
1.30133e-05
-6.21297e-06
1.21288e-05
-1.52566e-05
1.27851e-05
-2.45265e-05
1.34829e-05
-2.56779e-05
1.37669e-05
-1.93884e-05
1.42057e-05
-1.28266e-05
1.4933e-05
-5.06813e-06
1.62662e-05
4.16726e-06
1.77302e-05
1.22831e-05
1.94614e-05
1.88268e-05
2.10986e-05
2.3425e-05
2.35424e-05
2.67233e-05
2.58377e-05
2.88049e-05
2.74715e-05
2.65168e-05
2.88841e-05
2.3822e-05
2.98384e-05
1.80164e-05
3.01401e-05
1.13124e-05
3.00583e-05
3.2894e-06
2.94579e-05
-3.04714e-06
2.83263e-05
-8.75015e-06
2.67741e-05
-1.17003e-05
2.52083e-05
-1.38024e-05
2.26316e-05
-1.22454e-05
2.11002e-05
-9.17689e-06
1.88468e-05
-5.57622e-06
1.61972e-05
-4.48917e-06
1.48335e-05
2.21097e-06
1.46676e-05
8.62368e-06
1.31668e-05
3.57905e-06
1.18988e-05
-5.16896e-06
1.32e-05
-1.48797e-05
1.15499e-05
-2.84301e-05
9.62395e-06
-4.01017e-05
7.21567e-06
-3.31222e-05
8.51463e-06
-1.76315e-05
9.04573e-06
-2.00099e-05
7.40624e-06
5.25221e-06
9.22254e-06
-3.34792e-06
7.14557e-06
2.59975e-05
9.97301e-06
2.06411e-05
9.56348e-06
4.58121e-05
1.291e-05
3.1528e-05
1.33971e-05
4.41754e-05
1.61994e-05
1.87884e-05
1.65336e-05
3.4431e-05
1.84864e-05
1.10707e-05
1.94159e-05
2.90178e-05
2.07015e-05
7.54388e-06
2.12097e-05
2.28573e-05
2.18973e-05
-7.56486e-07
2.22207e-05
1.23216e-05
2.26115e-05
-8.94076e-06
2.22785e-05
9.2948e-06
2.22274e-05
-1.00206e-05
2.19823e-05
8.06272e-06
2.20395e-05
-1.41525e-05
2.2003e-05
5.20108e-06
2.18899e-05
-1.57824e-05
2.22164e-05
7.32055e-06
2.20168e-05
-1.43372e-05
2.2411e-05
8.90288e-06
2.21118e-05
-1.44047e-05
2.23493e-05
1.21524e-05
2.08648e-05
-1.30023e-05
2.16476e-05
1.67061e-05
1.99187e-05
-7.92988e-06
2.18415e-05
2.18894e-05
2.18898e-05
2.02233e-06
2.2863e-05
2.77891e-05
3.2824e-05
-1.17966e-06
3.26172e-05
-3.02007e-07
3.27508e-05
1.38738e-06
3.30052e-05
3.67699e-07
3.40456e-05
1.39429e-07
3.41263e-05
-1.26936e-06
3.40797e-05
-2.7079e-06
3.37455e-05
-1.71539e-06
3.26631e-05
-1.98184e-06
3.28459e-05
-1.08283e-06
3.29551e-05
4.63272e-07
3.29152e-05
2.01968e-07
3.38682e-05
6.36367e-07
3.45957e-05
5.1495e-07
3.5323e-05
-1.8103e-06
3.62461e-05
-3.85804e-06
3.67677e-05
-5.49921e-06
3.67686e-05
-8.28251e-06
3.65218e-05
-1.09566e-05
3.62272e-05
-1.25855e-05
3.55728e-05
-1.40724e-05
3.48559e-05
-1.54858e-05
3.41333e-05
-1.65219e-05
3.29899e-05
-1.69622e-05
3.16637e-05
-1.64719e-05
3.01752e-05
-1.59685e-05
2.79268e-05
-1.49886e-05
2.53879e-05
-1.19644e-05
2.28955e-05
-9.54439e-06
1.89057e-05
-7.11223e-06
1.35061e-05
-1.88087e-06
9.99163e-06
-2.69845e-06
9.30032e-06
-1.45653e-05
9.83542e-06
-2.50616e-05
1.02321e-05
-2.60746e-05
1.04851e-05
-1.96414e-05
1.09135e-05
-1.3255e-05
1.14423e-05
-5.59688e-06
1.28098e-05
2.79978e-06
1.44079e-05
1.06849e-05
1.65157e-05
1.6719e-05
1.82679e-05
2.16728e-05
2.07112e-05
2.428e-05
2.31878e-05
2.63284e-05
2.5027e-05
2.46776e-05
2.67103e-05
2.21388e-05
2.77719e-05
1.69548e-05
2.8255e-05
1.08292e-05
2.83442e-05
3.20025e-06
2.77114e-05
-2.4144e-06
2.65359e-05
-7.57459e-06
2.51624e-05