/*--------------------------------*- C++ -*----------------------------------*\
| =========                 |                                                 |
| \\      /  F ield         | OpenFOAM: The Open Source CFD Toolbox           |
|  \\    /   O peration     | Version:  2.4.0                                 |
|   \\  /    A nd           | Web:      www.OpenFOAM.org                      |
|    \\/     M anipulation  |                                                 |
\*---------------------------------------------------------------------------*/
FoamFile
{
    version     2.0;
    format      ascii;
    class       volVectorField;
    location    "0.105";
    object      UMean;
}
// * * * * * * * * * * * * * * * * * * * * * * * * * * * * * * * * * * * * * //

dimensions      [0 1 -1 0 0 0 0];

internalField   nonuniform List<vector> 
4400
(
(5.44813 0.312225 0)
(3.44922 0.0616652 0)
(2.72563 0.00159712 0)
(2.39613 -0.00232838 0)
(2.25594 -0.0014794 0)
(2.19828 -0.000767839 0)
(2.15378 -0.000174498 0)
(2.1513 -0.000466888 0)
(2.1444 9.40244e-05 0)
(2.01804 -0.0472548 0)
(8.6665 0.839014 0)
(7.66029 0.336918 0)
(6.76574 0.11217 0)
(6.09802 0.0503733 0)
(5.72373 0.0224803 0)
(5.54678 0.0122633 0)
(5.40686 0.006716 0)
(5.3928 0.00224224 0)
(5.28027 0.0107572 0)
(5.43056 -0.139425 0)
(9.82225 0.912477 0)
(10.0563 0.462909 0)
(9.55935 0.203733 0)
(8.88445 0.119432 0)
(8.40661 0.0648112 0)
(8.14835 0.0370869 0)
(7.94766 0.0197945 0)
(7.89665 0.0133659 0)
(7.76372 -0.00104804 0)
(7.882 -0.136562 0)
(10.0316 0.783069 0)
(11.1343 0.479853 0)
(11.2534 0.252248 0)
(10.8656 0.181465 0)
(10.4689 0.113732 0)
(10.2012 0.07075 0)
(10.0086 0.0390137 0)
(9.89866 0.0269588 0)
(9.83358 -0.0011176 0)
(9.77278 -0.135493 0)
(9.95688 0.628025 0)
(11.3326 0.41986 0)
(11.9159 0.233214 0)
(11.9219 0.19918 0)
(11.7975 0.146168 0)
(11.6167 0.0974712 0)
(11.5445 0.0629829 0)
(11.3904 0.0351819 0)
(11.4154 0.0128636 0)
(11.2847 -0.155869 0)
(9.92469 0.499515 0)
(11.2547 0.347014 0)
(11.9743 0.17836 0)
(12.1903 0.169866 0)
(12.3252 0.139827 0)
(12.3288 0.103187 0)
(12.4086 0.0686433 0)
(12.3578 0.0456418 0)
(12.419 0.00554655 0)
(12.3555 -0.129679 0)
(9.92211 0.385051 0)
(11.1888 0.277225 0)
(11.9126 0.130901 0)
(12.1738 0.126439 0)
(12.3691 0.112111 0)
(12.4967 0.0823914 0)
(12.6584 0.0595776 0)
(12.7509 0.0352323 0)
(12.8593 -0.00459713 0)
(12.9014 -0.0882189 0)
(9.92071 0.26822 0)
(11.1484 0.207543 0)
(11.8603 0.0858371 0)
(12.1414 0.0934395 0)
(12.3235 0.0749459 0)
(12.4822 0.0637191 0)
(12.6518 0.0317521 0)
(12.7944 0.0273345 0)
(12.9261 -0.0342842 0)
(13.0083 -0.0889991 0)
(9.91805 0.162414 0)
(11.1231 0.122961 0)
(11.8256 0.0526621 0)
(12.1242 0.0526011 0)
(12.2917 0.0476057 0)
(12.4605 0.0330307 0)
(12.6189 0.0187137 0)
(12.7734 0.000254428 0)
(12.8957 -0.044026 0)
(12.9699 -0.13525 0)
(9.9212 0.0515762 0)
(11.1051 0.0440129 0)
(11.8138 0.0138728 0)
(12.1116 0.0204388 0)
(12.2821 0.0107195 0)
(12.4427 0.0129262 0)
(12.6074 -0.00643515 0)
(12.7545 -0.0137105 0)
(12.878 -0.0677559 0)
(12.9313 -0.155462 0)
(9.9219 -0.0537786 0)
(11.1051 -0.0409498 0)
(11.8137 -0.0177924 0)
(12.1126 -0.0185597 0)
(12.2816 -0.0189483 0)
(12.4434 -0.0157142 0)
(12.606 -0.0242719 0)
(12.7521 -0.0349497 0)
(12.8695 -0.0862561 0)
(12.9156 -0.171566 0)
(9.92673 -0.163573 0)
(11.117 -0.121395 0)
(11.831 -0.0546956 0)
(12.1209 -0.0530929 0)
(12.2958 -0.0530384 0)
(12.4529 -0.0393568 0)
(12.6181 -0.0450587 0)
(12.7584 -0.0539381 0)
(12.8745 -0.104182 0)
(12.9122 -0.186522 0)
(9.94455 -0.272145 0)
(11.1317 -0.202836 0)
(11.8731 -0.0911036 0)
(12.1292 -0.089927 0)
(12.3315 -0.0849463 0)
(12.4664 -0.0642152 0)
(12.6504 -0.0654485 0)
(12.7666 -0.0718617 0)
(12.8862 -0.120703 0)
(12.8953 -0.202463 0)
(9.9589 -0.386479 0)
(11.1542 -0.275634 0)
(11.9382 -0.132794 0)
(12.1442 -0.12632 0)
(12.3891 -0.118179 0)
(12.4654 -0.0879114 0)
(12.6674 -0.085443 0)
(12.6947 -0.0876394 0)
(12.8028 -0.133472 0)
(12.6914 -0.211322 0)
(9.95099 -0.503053 0)
(11.2218 -0.343166 0)
(11.9983 -0.182105 0)
(12.162 -0.167085 0)
(12.3435 -0.148357 0)
(12.2978 -0.10546 0)
(12.4071 -0.096738 0)
(12.2821 -0.0915694 0)
(12.312 -0.131797 0)
(12.0336 -0.19996 0)
(9.97381 -0.629745 0)
(11.3068 -0.417337 0)
(11.9376 -0.235981 0)
(11.8943 -0.197199 0)
(11.8168 -0.153775 0)
(11.5776 -0.0999704 0)
(11.5373 -0.0863056 0)
(11.2868 -0.0767024 0)
(11.251 -0.115748 0)
(10.8533 -0.159544 0)
(10.0394 -0.784488 0)
(11.1164 -0.478313 0)
(11.2712 -0.254368 0)
(10.8377 -0.17988 0)
(10.4944 -0.120413 0)
(10.1416 -0.0713431 0)
(10.0225 -0.0606531 0)
(9.73261 -0.0538057 0)
(9.67644 -0.0899716 0)
(9.20545 -0.106911 0)
(9.82455 -0.912987 0)
(10.0461 -0.462043 0)
(9.57081 -0.204922 0)
(8.86374 -0.118768 0)
(8.42515 -0.0687948 0)
(8.09008 -0.0384029 0)
(7.96144 -0.0338328 0)
(7.70136 -0.0321002 0)
(7.6423 -0.0589174 0)
(7.14552 -0.0595589 0)
(8.66703 -0.839241 0)
(7.65532 -0.336645 0)
(6.77121 -0.112675 0)
(6.08556 -0.0502427 0)
(5.73227 -0.0242917 0)
(5.50308 -0.0132316 0)
(5.40709 -0.013056 0)
(5.22277 -0.0145163 0)
(5.16053 -0.0279635 0)
(4.73316 -0.0251316 0)
(5.44788 -0.312248 0)
(3.44789 -0.0616199 0)
(2.72658 -0.00166786 0)
(2.39171 0.00235546 0)
(2.25657 0.00132644 0)
(2.17905 0.000490283 0)
(2.14198 -0.000309263 0)
(2.06813 -0.0012245 0)
(2.01924 -0.00270114 0)
(1.81156 0.00991505 0)
(3.17555 -0.356442 0)
(3.68638 -0.200532 0)
(4.23784 -0.239532 0)
(4.79756 -0.311709 0)
(5.22523 -0.419825 0)
(5.6211 -0.595886 0)
(5.94787 -0.63514 0)
(6.20995 -0.731544 0)
(6.68429 -0.841197 0)
(6.90816 -0.849043 0)
(7.32211 -0.938615 0)
(7.63602 -0.992188 0)
(8.03954 -1.17257 0)
(8.35874 -1.35444 0)
(8.64738 -1.52491 0)
(8.95532 -1.73127 0)
(9.24389 -1.94873 0)
(9.48339 -2.13134 0)
(9.67885 -2.28624 0)
(9.81982 -2.39717 0)
(9.89142 -2.47333 0)
(9.93825 -2.50359 0)
(9.96471 -2.50517 0)
(10.0278 -2.48717 0)
(10.0698 -2.46419 0)
(10.0235 -2.37395 0)
(9.86245 -2.24254 0)
(9.66418 -2.05588 0)
(9.38556 -1.85073 0)
(9.15194 -1.61227 0)
(8.89276 -1.39882 0)
(8.71814 -1.17512 0)
(8.49813 -0.97247 0)
(8.35923 -0.747626 0)
(8.1455 -0.550868 0)
(8.04007 -0.320567 0)
(7.82325 -0.169889 0)
(7.75976 0.02707 0)
(7.55681 0.101245 0)
(7.52893 0.242619 0)
(7.31848 0.247309 0)
(7.33741 0.333491 0)
(7.10052 0.301514 0)
(7.15827 0.360916 0)
(6.97865 0.234281 0)
(7.0058 0.320969 0)
(6.8643 0.191682 0)
(6.79769 0.340224 0)
(6.72003 0.148493 0)
(6.66453 0.347724 0)
(6.56854 0.0903897 0)
(6.54919 0.40607 0)
(6.41977 0.0779771 0)
(6.413 0.504059 0)
(6.34181 0.0831721 0)
(6.29524 0.62375 0)
(6.37415 0.0857585 0)
(6.169 0.713332 0)
(6.43145 0.0783566 0)
(6.09244 0.756521 0)
(6.43974 0.075923 0)
(5.99914 0.72125 0)
(6.40925 -0.00192795 0)
(5.90352 0.748514 0)
(6.33805 0.0363112 0)
(5.74669 0.865037 0)
(6.23235 0.0725371 0)
(5.61247 0.936885 0)
(6.16922 0.0415129 0)
(5.50993 0.925273 0)
(6.12381 -0.062183 0)
(5.43489 0.822254 0)
(6.09075 -0.232273 0)
(5.41015 0.675201 0)
(6.07605 -0.368575 0)
(5.43818 0.572778 0)
(6.07181 -0.428961 0)
(5.50027 0.50233 0)
(6.06484 -0.439653 0)
(5.57405 0.449454 0)
(6.03831 -0.384987 0)
(5.63486 0.447211 0)
(5.97947 -0.245071 0)
(5.65957 0.502914 0)
(5.88784 -0.0305057 0)
(5.64397 0.614547 0)
(5.78652 0.235843 0)
(5.5951 0.779797 0)
(5.69733 0.538505 0)
(5.55311 1.01779 0)
(5.659 0.891733 0)
(5.58289 1.39754 0)
(5.68811 1.34717 0)
(5.63322 2.03775 0)
(5.71207 1.95822 0)
(5.46632 2.98432 0)
(6.09788 2.8892 0)
(5.49684 4.77302 0)
(6.4452 5.2108 0)
(3.73926 9.40994 0)
(5.605 -0.381344 0)
(5.81893 -0.319279 0)
(6.06214 -0.375355 0)
(6.3244 -0.480716 0)
(6.62091 -0.584309 0)
(6.8965 -0.728731 0)
(7.18559 -0.786595 0)
(7.38719 -0.865194 0)
(7.72301 -0.97544 0)
(7.89128 -0.998728 0)
(8.17014 -1.08648 0)
(8.43948 -1.1519 0)
(8.8167 -1.30787 0)
(9.13377 -1.48732 0)
(9.41642 -1.6601 0)
(9.69339 -1.84857 0)
(9.92396 -2.04258 0)
(10.0827 -2.20653 0)
(10.211 -2.34484 0)
(10.2842 -2.4388 0)
(10.3006 -2.48407 0)
(10.3211 -2.50595 0)
(10.3311 -2.51009 0)
(10.3403 -2.48762 0)
(10.2682 -2.43551 0)
(10.1 -2.31013 0)
(9.85467 -2.15176 0)
(9.59612 -1.95048 0)
(9.28975 -1.73921 0)
(9.0397 -1.50912 0)
(8.77144 -1.30905 0)
(8.57278 -1.09271 0)
(8.33553 -0.889317 0)
(8.17171 -0.668763 0)
(7.95023 -0.474876 0)
(7.83864 -0.256932 0)
(7.62879 -0.112988 0)
(7.57988 0.0735138 0)
(7.39348 0.143749 0)
(7.37445 0.289448 0)
(7.18644 0.285321 0)
(7.18354 0.383591 0)
(6.97204 0.337807 0)
(7.01271 0.39147 0)
(6.86442 0.25646 0)
(6.85605 0.359832 0)
(6.75668 0.226796 0)
(6.65598 0.377903 0)
(6.62611 0.16595 0)
(6.56275 0.389029 0)
(6.49419 0.106318 0)
(6.42128 0.451701 0)
(6.37475 0.0950238 0)
(6.30993 0.558118 0)
(6.253 0.0795305 0)
(6.22798 0.664029 0)
(6.25846 0.0660697 0)
(6.1227 0.750919 0)
(6.34393 0.0402582 0)
(6.03393 0.810599 0)
(6.41403 0.0322354 0)
(5.95472 0.797136 0)
(6.41489 -0.0460758 0)
(5.86879 0.834934 0)
(6.35181 -0.00300976 0)
(5.7182 0.966065 0)
(6.2702 0.0185246 0)
(5.57833 1.04126 0)
(6.22641 -0.0307885 0)
(5.47914 1.03531 0)
(6.20592 -0.153765 0)
(5.40694 0.940531 0)
(6.20557 -0.346278 0)
(5.3812 0.801263 0)
(6.2278 -0.506238 0)
(5.40174 0.706664 0)
(6.26685 -0.588121 0)
(5.46206 0.645651 0)
(6.30885 -0.615257 0)
(5.55008 0.606042 0)
(6.32743 -0.570943 0)
(5.65394 0.620785 0)
(6.30476 -0.433745 0)
(5.75316 0.695936 0)
(6.2249 -0.217978 0)
(5.81555 0.824434 0)
(6.08014 0.051445 0)
(5.81102 1.00691 0)
(5.87516 0.347971 0)
(5.73569 1.25142 0)
(5.6952 0.669979 0)
(5.68373 1.62351 0)
(5.75099 1.09648 0)
(5.75758 2.27202 0)
(6.07467 1.8277 0)
(5.61695 3.36981 0)
(6.00889 2.72845 0)
(4.93861 5.00194 0)
(8.31935 4.46146 0)
(6.00858 9.85543 0)
(7.92454 -0.371036 0)
(7.95179 -0.381534 0)
(8.10204 -0.444687 0)
(8.23898 -0.551888 0)
(8.40579 -0.659704 0)
(8.55142 -0.782794 0)
(8.71542 -0.863052 0)
(8.8257 -0.936325 0)
(9.00521 -1.04447 0)
(9.10795 -1.08448 0)
(9.28295 -1.1705 0)
(9.47374 -1.26831 0)
(9.76878 -1.42328 0)
(10.038 -1.59637 0)
(10.255 -1.76321 0)
(10.4437 -1.93139 0)
(10.5793 -2.0974 0)
(10.6472 -2.23849 0)
(10.7055 -2.36075 0)
(10.6932 -2.43523 0)
(10.6557 -2.4688 0)
(10.6293 -2.49507 0)
(10.5774 -2.49738 0)
(10.484 -2.45736 0)
(10.2888 -2.36779 0)
(10.0313 -2.21491 0)
(9.73044 -2.03836 0)
(9.42909 -1.82829 0)
(9.10177 -1.61707 0)
(8.83393 -1.40021 0)
(8.54869 -1.20611 0)
(8.3319 -0.995218 0)
(8.07353 -0.79647 0)
(7.90799 -0.588942 0)
(7.68828 -0.398678 0)
(7.58728 -0.198521 0)
(7.38444 -0.0545937 0)
(7.35179 0.119886 0)
(7.16888 0.188184 0)
(7.16543 0.331742 0)
(6.99155 0.320092 0)
(6.97757 0.429706 0)
(6.79736 0.368665 0)
(6.83354 0.420455 0)
(6.69278 0.2807 0)
(6.67872 0.395142 0)
(6.57395 0.259713 0)
(6.5031 0.40698 0)
(6.46026 0.17764 0)
(6.44399 0.422605 0)
(6.36275 0.136087 0)
(6.27249 0.481294 0)
(6.25519 0.100693 0)
(6.17573 0.593059 0)
(6.16296 0.0707263 0)
(6.11255 0.692859 0)
(6.14907 0.0467498 0)
(6.05997 0.77622 0)
(6.2137 0.0114769 0)
(5.98977 0.840332 0)
(6.33229 -0.00525996 0)
(5.93656 0.84057 0)
(6.37663 -0.080276 0)
(5.86411 0.899017 0)
(6.32361 -0.0282435 0)
(5.72211 1.03724 0)
(6.25816 -0.0182682 0)
(5.60044 1.11039 0)
(6.22541 -0.0855186 0)
(5.51556 1.11017 0)
(6.22661 -0.224364 0)
(5.45666 1.02471 0)
(6.24705 -0.433934 0)
(5.43145 0.89164 0)
(6.29224 -0.616282 0)
(5.44644 0.804664 0)
(6.36263 -0.721827 0)
(5.49387 0.754073 0)
(6.45496 -0.774647 0)
(5.57101 0.728392 0)
(6.55385 -0.757351 0)
(5.68292 0.757146 0)
(6.65673 -0.641543 0)
(5.83432 0.853712 0)
(6.74635 -0.431802 0)
(5.99652 1.00446 0)
(6.7861 -0.139702 0)
(6.09881 1.21019 0)
(6.70677 0.204507 0)
(6.03488 1.46086 0)
(6.46333 0.549972 0)
(5.78635 1.7876 0)
(6.25134 0.890199 0)
(5.64797 2.30662 0)
(6.75518 1.40154 0)
(5.9481 3.43985 0)
(8.1421 2.53151 0)
(5.16393 5.37992 0)
(9.01831 3.79408 0)
(6.91225 9.93927 0)
(9.87479 -0.396645 0)
(9.81241 -0.448384 0)
(9.88452 -0.508751 0)
(9.9744 -0.598633 0)
(10.0699 -0.696782 0)
(10.1424 -0.806203 0)
(10.2048 -0.899576 0)
(10.2432 -0.976067 0)
(10.3081 -1.07136 0)
(10.3596 -1.13262 0)
(10.4751 -1.22086 0)
(10.6012 -1.33382 0)
(10.7704 -1.49381 0)
(10.9262 -1.66579 0)
(11.0297 -1.82382 0)
(11.1043 -1.97686 0)
(11.1354 -2.11626 0)
(11.1152 -2.23454 0)
(11.0819 -2.33722 0)
(10.985 -2.40024 0)
(10.8992 -2.44005 0)
(10.8124 -2.46758 0)
(10.6745 -2.4527 0)
(10.4714 -2.38139 0)
(10.1814 -2.25781 0)
(9.8595 -2.08559 0)
(9.51167 -1.89964 0)
(9.16842 -1.689 0)
(8.82251 -1.48682 0)
(8.53017 -1.28051 0)
(8.22881 -1.09555 0)
(7.99043 -0.89297 0)
(7.73118 -0.705291 0)
(7.56762 -0.508764 0)
(7.37166 -0.32821 0)
(7.27852 -0.142999 0)
(7.09417 -0.0030313 0)
(7.06941 0.159086 0)
(6.89124 0.223254 0)
(6.90288 0.36768 0)
(6.74339 0.350423 0)
(6.72778 0.47681 0)
(6.58707 0.393375 0)
(6.60752 0.454029 0)
(6.48959 0.303414 0)
(6.45275 0.437854 0)
(6.36438 0.276343 0)
(6.32922 0.443106 0)
(6.26876 0.178217 0)
(6.26222 0.452675 0)
(6.2075 0.152842 0)
(6.12421 0.530279 0)
(6.11086 0.115313 0)
(5.99991 0.638595 0)
(6.06289 0.0678009 0)
(5.92411 0.739765 0)
(6.04886 0.0116801 0)
(5.8988 0.817713 0)
(6.10609 -0.0380803 0)
(5.88224 0.871258 0)
(6.24346 -0.0649761 0)
(5.87364 0.888848 0)
(6.339 -0.128033 0)
(5.80002 0.98125 0)
(6.3089 -0.0715448 0)
(5.67338 1.12799 0)
(6.26011 -0.0735857 0)
(5.56912 1.20317 0)
(6.24961 -0.158109 0)
(5.48874 1.2075 0)
(6.26282 -0.316783 0)
(5.42876 1.12746 0)
(6.29847 -0.545677 0)
(5.39684 1.00547 0)
(6.35821 -0.747589 0)
(5.39419 0.930909 0)
(6.4454 -0.871778 0)
(5.40634 0.896766 0)
(6.56034 -0.948547 0)
(5.43703 0.891896 0)
(6.70874 -0.963731 0)
(5.49657 0.940951 0)
(6.90773 -0.892258 0)
(5.62207 1.0511 0)
(7.16864 -0.730063 0)
(5.83874 1.21101 0)
(7.46448 -0.467814 0)
(6.12968 1.44248 0)
(7.70333 -0.0957201 0)
(6.37435 1.77049 0)
(7.70524 0.345842 0)
(6.31373 2.19866 0)
(7.27229 0.765334 0)
(5.69593 2.78775 0)
(6.85708 1.01382 0)
(5.01197 3.61289 0)
(8.68442 1.83471 0)
(5.72333 5.37752 0)
(11.151 2.58134 0)
(8.43175 9.24547 0)
(11.3758 -0.349722 0)
(11.3356 -0.411076 0)
(11.3319 -0.503999 0)
(11.3536 -0.605496 0)
(11.3901 -0.707631 0)
(11.4117 -0.811248 0)
(11.4131 -0.907767 0)
(11.4015 -0.987107 0)
(11.407 -1.07611 0)
(11.4223 -1.15859 0)
(11.4829 -1.25806 0)
(11.5341 -1.37069 0)
(11.5872 -1.52061 0)
(11.6247 -1.6828 0)
(11.6166 -1.83147 0)
(11.5856 -1.97493 0)
(11.5174 -2.10026 0)
(11.4179 -2.20708 0)
(11.2985 -2.29611 0)
(11.1559 -2.35992 0)
(11.037 -2.40263 0)
(10.876 -2.41426 0)
(10.6399 -2.36552 0)
(10.3399 -2.26421 0)
(9.9702 -2.11555 0)
(9.59502 -1.93487 0)
(9.2013 -1.74579 0)
(8.82923 -1.5411 0)
(8.46116 -1.34636 0)
(8.14567 -1.15348 0)
(7.82613 -0.978221 0)
(7.58158 -0.789346 0)
(7.32958 -0.618019 0)
(7.1843 -0.43839 0)
(7.00175 -0.264605 0)
(6.91882 -0.0919535 0)
(6.74969 0.045465 0)
(6.73451 0.192704 0)
(6.56235 0.259705 0)
(6.59276 0.397147 0)
(6.43684 0.378229 0)
(6.44525 0.514984 0)
(6.32732 0.40923 0)
(6.34602 0.482083 0)
(6.25258 0.327416 0)
(6.19856 0.475969 0)
(6.11784 0.289963 0)
(6.12815 0.467019 0)
(6.05051 0.182437 0)
(6.09325 0.485198 0)
(5.97769 0.15722 0)
(5.98078 0.556902 0)
(5.90467 0.119082 0)
(5.8711 0.654832 0)
(5.87654 0.0587049 0)
(5.79839 0.762465 0)
(5.89155 -0.00696653 0)
(5.76418 0.844595 0)
(5.97047 -0.0796273 0)
(5.78875 0.888182 0)
(6.13503 -0.119977 0)
(5.83446 0.914752 0)
(6.24674 -0.163687 0)
(5.76679 1.03751 0)
(6.24137 -0.104252 0)
(5.66987 1.188 0)
(6.21683 -0.115344 0)
(5.58373 1.26068 0)
(6.22026 -0.212924 0)
(5.5252 1.26813 0)
(6.2421 -0.386252 0)
(5.48074 1.19375 0)
(6.28559 -0.631386 0)
(5.46143 1.07844 0)
(6.34546 -0.848233 0)
(5.45444 1.01052 0)
(6.42235 -0.989052 0)
(5.45448 0.987997 0)
(6.51594 -1.08643 0)
(5.45347 0.999921 0)
(6.64684 -1.13098 0)
(5.45649 1.0718 0)
(6.85115 -1.10643 0)
(5.49576 1.20647 0)
(7.18751 -1.01889 0)
(5.62759 1.38521 0)
(7.72189 -0.862182 0)
(5.91544 1.61826 0)
(8.51162 -0.587966 0)
(6.35779 1.92499 0)
(9.52492 -0.154593 0)
(6.77142 2.35769 0)
(10.5322 0.485267 0)
(6.62149 3.02481 0)
(10.9689 1.26279 0)
(5.28019 3.91385 0)
(10.417 1.67427 0)
(4.94421 5.89594 0)
(10.0073 1.46048 0)
(8.98266 8.58143 0)
(12.4075 -0.351496 0)
(12.3744 -0.45454 0)
(12.348 -0.549853 0)
(12.3341 -0.634507 0)
(12.3311 -0.719156 0)
(12.3101 -0.804697 0)
(12.2657 -0.893076 0)
(12.2184 -0.977241 0)
(12.1866 -1.06924 0)
(12.1564 -1.16204 0)
(12.1477 -1.26824 0)
(12.1193 -1.37458 0)
(12.088 -1.5081 0)
(12.0414 -1.65621 0)
(11.9559 -1.79653 0)
(11.8491 -1.9345 0)
(11.7137 -2.05694 0)
(11.5616 -2.15758 0)
(11.4024 -2.24063 0)
(11.2425 -2.30371 0)
(11.0728 -2.33763 0)
(10.8109 -2.31824 0)
(10.4811 -2.23592 0)
(10.0932 -2.10998 0)
(9.6657 -1.9468 0)
(9.2485 -1.76211 0)
(8.8264 -1.57418 0)
(8.42604 -1.37611 0)
(8.03836 -1.19505 0)
(7.69605 -1.01798 0)
(7.37352 -0.857159 0)
(7.12049 -0.68447 0)
(6.88819 -0.535995 0)
(6.75512 -0.371378 0)
(6.59002 -0.211641 0)
(6.51499 -0.0469265 0)
(6.3697 0.086505 0)
(6.3606 0.225184 0)
(6.20565 0.29107 0)
(6.2475 0.421662 0)
(6.09346 0.40093 0)
(6.13016 0.543902 0)
(6.02996 0.414742 0)
(6.05532 0.509325 0)
(5.97558 0.342909 0)
(5.9137 0.515172 0)
(5.86756 0.278424 0)
(5.89775 0.505022 0)
(5.82044 0.153423 0)
(5.8727 0.523028 0)
(5.78844 0.15535 0)
(5.80349 0.607534 0)
(5.70666 0.124021 0)
(5.73426 0.696547 0)
(5.66742 0.0543222 0)
(5.66948 0.781647 0)
(5.71625 -0.0350409 0)
(5.64377 0.860424 0)
(5.84015 -0.131461 0)
(5.66426 0.904237 0)
(6.05808 -0.186777 0)
(5.73097 0.951917 0)
(6.16081 -0.207642 0)
(5.68128 1.10198 0)
(6.19639 -0.153396 0)
(5.60916 1.26229 0)
(6.20256 -0.169797 0)
(5.54808 1.33656 0)
(6.22162 -0.280394 0)
(5.50092 1.34813 0)
(6.26342 -0.469 0)
(5.46594 1.28052 0)
(6.31965 -0.730481 0)
(5.44591 1.17347 0)
(6.38783 -0.961957 0)
(5.43104 1.11642 0)
(6.46187 -1.11854 0)
(5.4186 1.10848 0)
(6.54853 -1.23091 0)
(5.3881 1.13917 0)
(6.66342 -1.29464 0)
(5.33811 1.23195 0)
(6.83921 -1.28915 0)
(5.27389 1.39351 0)
(7.12688 -1.22134 0)
(5.20793 1.61089 0)
(7.61383 -1.10326 0)
(5.15768 1.8815 0)
(8.44288 -0.917975 0)
(5.18399 2.19122 0)
(9.78012 -0.628665 0)
(5.46537 2.58669 0)
(11.635 -0.153167 0)
(6.14313 3.1653 0)
(13.4396 0.503613 0)
(7.04549 4.18309 0)
(13.6499 0.978443 0)
(7.85246 6.03367 0)
(11.0216 1.36588 0)
(8.96378 7.75945 0)
(12.909 -0.369044 0)
(12.8894 -0.495665 0)
(12.8779 -0.56515 0)
(12.8594 -0.617857 0)
(12.8225 -0.684405 0)
(12.7686 -0.765987 0)
(12.695 -0.856682 0)
(12.6285 -0.954421 0)
(12.5636 -1.0527 0)
(12.4912 -1.14742 0)
(12.4272 -1.25347 0)
(12.3469 -1.35606 0)
(12.2674 -1.47792 0)
(12.1751 -1.61667 0)
(12.0542 -1.75232 0)
(11.9168 -1.88594 0)
(11.7646 -2.00457 0)
(11.6005 -2.10045 0)
(11.4256 -2.17891 0)
(11.2269 -2.23268 0)
(10.9669 -2.24028 0)
(10.6058 -2.1833 0)
(10.1959 -2.06936 0)
(9.74505 -1.9268 0)
(9.27742 -1.75614 0)
(8.83701 -1.57575 0)
(8.38359 -1.39421 0)
(7.96249 -1.21022 0)
(7.55804 -1.04409 0)
(7.21107 -0.885532 0)
(6.89384 -0.739625 0)
(6.6441 -0.58852 0)
(6.42545 -0.459601 0)
(6.29548 -0.308864 0)
(6.14373 -0.159875 0)
(6.07283 -0.00571904 0)
(5.94696 0.122376 0)
(5.94534 0.248606 0)
(5.8117 0.316345 0)
(5.87302 0.44044 0)
(5.71641 0.420426 0)
(5.79062 0.563283 0)
(5.70034 0.418149 0)
(5.73367 0.530164 0)
(5.68087 0.366795 0)
(5.6077 0.546272 0)
(5.5939 0.263705 0)
(5.65823 0.528134 0)
(5.60232 0.156597 0)
(5.64352 0.547696 0)
(5.54591 0.131902 0)
(5.62445 0.629866 0)
(5.48216 0.105624 0)
(5.61363 0.710819 0)
(5.46659 0.04773 0)
(5.58155 0.797681 0)
(5.50425 -0.0535461 0)
(5.57332 0.856742 0)
(5.65815 -0.171112 0)
(5.59409 0.879542 0)
(5.91953 -0.244793 0)
(5.65976 0.964825 0)
(6.03157 -0.241326 0)
(5.64504 1.13395 0)
(6.10611 -0.18673 0)
(5.59943 1.30176 0)
(6.12716 -0.209442 0)
(5.56469 1.37569 0)
(6.16273 -0.324327 0)
(5.53783 1.38758 0)
(6.21674 -0.521986 0)
(5.52526 1.32303 0)
(6.27768 -0.794788 0)
(5.51772 1.22181 0)
(6.34037 -1.03898 0)
(5.51471 1.17451 0)
(6.39673 -1.21 0)
(5.50518 1.17912 0)
(6.45809 -1.33835 0)
(5.47404 1.22175 0)
(6.53376 -1.42172 0)
(5.42504 1.31881 0)
(6.64315 -1.4413 0)
(5.36531 1.47307 0)
(6.8011 -1.3998 0)
(5.29381 1.67285 0)
(7.02318 -1.30304 0)
(5.19152 1.93639 0)
(7.32558 -1.15233 0)
(5.04139 2.30402 0)
(7.75755 -0.957393 0)
(4.93845 2.84128 0)
(8.49104 -0.685844 0)
(5.31614 3.56838 0)
(9.77085 -0.29144 0)
(6.77589 4.65889 0)
(11.5046 0.257527 0)
(8.79796 6.17783 0)
(12.6579 1.78972 0)
(9.8157 6.92188 0)
(12.9712 -0.342983 0)
(12.9673 -0.478588 0)
(12.979 -0.560194 0)
(12.9568 -0.612747 0)
(12.9055 -0.675144 0)
(12.8437 -0.756769 0)
(12.7652 -0.845447 0)
(12.6892 -0.943106 0)
(12.602 -1.03652 0)
(12.5079 -1.12538 0)
(12.4188 -1.22619 0)
(12.321 -1.32688 0)
(12.2269 -1.44251 0)
(12.1268 -1.5743 0)
(12.0094 -1.70638 0)
(11.8792 -1.83288 0)
(11.7315 -1.94545 0)
(11.5574 -2.03647 0)
(11.3441 -2.1009 0)
(11.068 -2.12393 0)
(10.7122 -2.09162 0)
(10.2663 -1.99764 0)
(9.79825 -1.86676 0)
(9.29366 -1.7213 0)
(8.80258 -1.556 0)
(8.33419 -1.38272 0)
(7.85966 -1.21124 0)
(7.43084 -1.04063 0)
(7.03304 -0.889444 0)
(6.69099 -0.745512 0)
(6.38453 -0.615431 0)
(6.14127 -0.492145 0)
(5.94601 -0.389087 0)
(5.8174 -0.25328 0)
(5.68555 -0.114695 0)
(5.61378 0.0320686 0)
(5.50566 0.150224 0)
(5.50932 0.269064 0)
(5.40341 0.330473 0)
(5.47879 0.449741 0)
(5.3327 0.428702 0)
(5.43752 0.56558 0)
(5.34841 0.409471 0)
(5.40394 0.539262 0)
(5.34418 0.372302 0)
(5.31343 0.562555 0)
(5.3177 0.226532 0)
(5.40016 0.545192 0)
(5.34505 0.0987692 0)
(5.40079 0.591345 0)
(5.34768 0.107566 0)
(5.41232 0.677119 0)
(5.31008 0.0872923 0)
(5.42858 0.74822 0)
(5.28669 0.0226944 0)
(5.44479 0.819066 0)
(5.35052 -0.091329 0)
(5.47864 0.866465 0)
(5.52561 -0.216043 0)
(5.52257 0.874954 0)
(5.78032 -0.295673 0)
(5.56101 0.983388 0)
(5.91875 -0.280696 0)
(5.57258 1.1645 0)
(6.03036 -0.225887 0)
(5.55225 1.35048 0)
(6.08218 -0.255258 0)
(5.53703 1.42741 0)
(6.14257 -0.377192 0)
(5.52822 1.44066 0)
(6.2119 -0.585179 0)
(5.53131 1.37832 0)
(6.292 -0.86569 0)
(5.53493 1.28699 0)
(6.35732 -1.11911 0)
(5.53298 1.25217 0)
(6.41139 -1.30338 0)
(5.51286 1.27279 0)
(6.46978 -1.45161 0)
(5.46572 1.33465 0)
(6.54323 -1.55975 0)
(5.39764 1.45261 0)
(6.64852 -1.60973 0)
(5.32261 1.62533 0)
(6.79914 -1.60605 0)
(5.25711 1.83132 0)
(7.00471 -1.55073 0)
(5.22047 2.08017 0)
(7.24896 -1.44421 0)
(5.25957 2.40834 0)
(7.46424 -1.3026 0)
(5.44311 2.89079 0)
(7.54567 -1.16674 0)
(5.86632 3.6818 0)
(7.65453 -1.066 0)
(6.7012 4.93349 0)
(8.92176 -0.474917 0)
(8.05817 6.06083 0)
(11.662 1.64952 0)
(10.5184 6.31426 0)
(12.9177 -0.333479 0)
(12.9203 -0.435847 0)
(12.9466 -0.510573 0)
(12.9355 -0.56788 0)
(12.8903 -0.630926 0)
(12.8237 -0.711197 0)
(12.7337 -0.797945 0)
(12.6431 -0.893637 0)
(12.5414 -0.987629 0)
(12.445 -1.08 0)
(12.3529 -1.18231 0)
(12.2639 -1.28848 0)
(12.1737 -1.40223 0)
(12.0826 -1.52889 0)
(11.9687 -1.65493 0)
(11.8333 -1.77329 0)
(11.6578 -1.8751 0)
(11.4375 -1.95208 0)
(11.143 -1.98376 0)
(10.7717 -1.96575 0)
(10.3133 -1.89565 0)
(9.79787 -1.78192 0)
(9.27543 -1.64992 0)
(8.7329 -1.5127 0)
(8.2241 -1.35205 0)
(7.73482 -1.1854 0)
(7.25508 -1.02424 0)
(6.8371 -0.869377 0)
(6.44798 -0.733975 0)
(6.11176 -0.610527 0)
(5.80655 -0.502429 0)
(5.57889 -0.405705 0)
(5.4095 -0.319062 0)
(5.2938 -0.199721 0)
(5.18557 -0.0719308 0)
(5.12751 0.064918 0)
(5.03973 0.175392 0)
(5.05454 0.282563 0)
(4.97759 0.340565 0)
(5.06985 0.455834 0)
(4.94704 0.438516 0)
(5.08292 0.566175 0)
(4.99099 0.40834 0)
(5.07392 0.55078 0)
(5.01197 0.386742 0)
(5.0227 0.569534 0)
(5.02993 0.188427 0)
(5.16712 0.568838 0)
(5.10763 0.101533 0)
(5.16267 0.59429 0)
(5.10279 0.0659422 0)
(5.21109 0.676786 0)
(5.10987 0.048574 0)
(5.27947 0.760195 0)
(5.12214 0.00653968 0)
(5.30795 0.825414 0)
(5.19319 -0.117491 0)
(5.387 0.854734 0)
(5.36163 -0.250641 0)
(5.46712 0.851652 0)
(5.57841 -0.326326 0)
(5.49387 0.96692 0)
(5.75091 -0.298043 0)
(5.52047 1.15473 0)
(5.89014 -0.23955 0)
(5.52755 1.35654 0)
(5.97411 -0.272316 0)
(5.54716 1.4342 0)
(6.05056 -0.394778 0)
(5.57549 1.44436 0)
(6.14083 -0.602413 0)
(5.60521 1.38206 0)
(6.22563 -0.88771 0)
(5.6319 1.29864 0)
(6.2791 -1.15028 0)
(5.64018 1.27713 0)
(6.31502 -1.348 0)
(5.62482 1.31497 0)
(6.35112 -1.51117 0)
(5.57937 1.39407 0)
(6.39476 -1.63966 0)
(5.51174 1.52559 0)
(6.45672 -1.71968 0)
(5.43626 1.71399 0)
(6.54419 -1.75809 0)
(5.3683 1.94787 0)
(6.65915 -1.75474 0)
(5.32531 2.24653 0)
(6.79646 -1.71063 0)
(5.35492 2.63658 0)
(6.96183 -1.65002 0)
(5.55185 3.15793 0)
(7.17854 -1.59382 0)
(6.05589 3.90445 0)
(7.50104 -1.40964 0)
(6.87958 4.86438 0)
(8.16548 -0.698269 0)
(7.81244 5.63422 0)
(9.67289 1.15966 0)
(10.4759 5.6142 0)
(12.8704 -0.3069 0)
(12.8718 -0.383156 0)
(12.9005 -0.456841 0)
(12.8877 -0.528789 0)
(12.8375 -0.603101 0)
(12.7537 -0.686022 0)
(12.6545 -0.772669 0)
(12.5581 -0.865381 0)
(12.4686 -0.961729 0)
(12.3849 -1.05608 0)
(12.3071 -1.15724 0)
(12.2249 -1.26174 0)
(12.1334 -1.3696 0)
(12.0237 -1.48396 0)
(11.8825 -1.5978 0)
(11.6956 -1.69811 0)
(11.4559 -1.77928 0)
(11.1465 -1.82462 0)
(10.7508 -1.8197 0)
(10.2712 -1.76647 0)
(9.72855 -1.67106 0)
(9.16801 -1.54785 0)
(8.61844 -1.42212 0)
(8.06325 -1.29092 0)
(7.55095 -1.13469 0)
(7.05341 -0.980431 0)
(6.58045 -0.837541 0)
(6.17077 -0.69842 0)
(5.79226 -0.582019 0)
(5.47147 -0.481685 0)
(5.18933 -0.400449 0)
(4.98573 -0.332359 0)
(4.84126 -0.263588 0)
(4.73893 -0.15774 0)
(4.65226 -0.0402909 0)
(4.60658 0.0884437 0)
(4.54699 0.186745 0)
(4.5678 0.280696 0)
(4.52372 0.333962 0)
(4.62339 0.442725 0)
(4.52899 0.430249 0)
(4.69643 0.544838 0)
(4.59954 0.392399 0)
(4.72235 0.543825 0)
(4.63086 0.374844 0)
(4.74751 0.553253 0)
(4.69952 0.139773 0)
(4.90108 0.559077 0)
(4.76864 0.0274823 0)
(4.94562 0.628619 0)
(4.85067 0.0400863 0)
(4.99317 0.708822 0)
(4.90861 0.0244521 0)
(5.06184 0.770659 0)
(4.93956 -0.0341061 0)
(5.13929 0.826776 0)
(5.00578 -0.16938 0)
(5.25777 0.842444 0)
(5.1802 -0.295456 0)
(5.36515 0.838035 0)
(5.37322 -0.360619 0)
(5.40226 0.95438 0)
(5.58076 -0.324857 0)
(5.44297 1.14689 0)
(5.75167 -0.259934 0)
(5.49228 1.36087 0)
(5.89088 -0.294214 0)
(5.54514 1.44481 0)
(5.99895 -0.411667 0)
(5.59387 1.45106 0)
(6.11218 -0.614245 0)
(5.6485 1.38801 0)
(6.2082 -0.891155 0)
(5.68991 1.31254 0)
(6.26423 -1.14973 0)
(5.70408 1.30211 0)
(6.30073 -1.35673 0)
(5.6867 1.35399 0)
(6.33776 -1.54313 0)
(5.63658 1.45306 0)
(6.38337 -1.71159 0)
(5.56441 1.61251 0)
(6.44491 -1.83306 0)
(5.4938 1.83218 0)
(6.52805 -1.91469 0)
(5.45292 2.09214 0)
(6.63017 -1.96197 0)
(5.47383 2.41007 0)
(6.73577 -1.97956 0)
(5.6046 2.81196 0)
(6.83088 -1.97385 0)
(5.89649 3.33149 0)
(6.92548 -1.89424 0)
(6.39271 3.97674 0)
(7.12149 -1.56477 0)
(7.06631 4.72702 0)
(7.61882 -0.660415 0)
(7.95 5.10546 0)
(8.51807 0.968142 0)
(9.96593 4.78309 0)
(12.8459 -0.285 0)
(12.848 -0.343933 0)
(12.8776 -0.41528 0)
(12.87 -0.494386 0)
(12.8197 -0.574341 0)
(12.7391 -0.659148 0)
(12.6455 -0.744285 0)
(12.5558 -0.832251 0)
(12.4692 -0.924071 0)
(12.3787 -1.01505 0)
(12.2812 -1.10852 0)
(12.1718 -1.20651 0)
(12.0407 -1.30398 0)
(11.8797 -1.40478 0)
(11.6734 -1.50026 0)
(11.4076 -1.57859 0)
(11.0718 -1.62938 0)
(10.654 -1.64208 0)
(10.1464 -1.60739 0)
(9.57985 -1.53272 0)
(8.98888 -1.42714 0)
(8.41089 -1.30841 0)
(7.85127 -1.1967 0)
(7.29801 -1.07414 0)
(6.80202 -0.923905 0)
(6.31812 -0.780882 0)
(5.85453 -0.654966 0)
(5.46274 -0.535425 0)
(5.10355 -0.438709 0)
(4.8139 -0.355097 0)
(4.56377 -0.296489 0)
(4.39771 -0.258002 0)
(4.28013 -0.203571 0)
(4.1978 -0.112501 0)
(4.13535 -0.000558227 0)
(4.10582 0.115386 0)
(4.08161 0.204484 0)
(4.11108 0.28077 0)
(4.09647 0.332089 0)
(4.20727 0.427188 0)
(4.14036 0.422681 0)
(4.33072 0.525335 0)
(4.23014 0.388602 0)
(4.39376 0.538285 0)
(4.26672 0.366925 0)
(4.49994 0.531363 0)
(4.35411 0.0993012 0)
(4.70601 0.58188 0)
(4.4444 0.0258728 0)
(4.72274 0.612643 0)
(4.54145 -0.0126001 0)
(4.81056 0.681929 0)
(4.65441 -0.0282449 0)
(4.93153 0.771629 0)
(4.70511 -0.04849 0)
(5.01552 0.814727 0)
(4.77368 -0.187707 0)
(5.12609 0.795313 0)
(4.92221 -0.327762 0)
(5.277 0.795214 0)
(5.10283 -0.37457 0)
(5.34227 0.902308 0)
(5.33547 -0.325747 0)
(5.38905 1.09634 0)
(5.54363 -0.256978 0)
(5.47746 1.31232 0)
(5.7373 -0.295421 0)
(5.56812 1.40327 0)
(5.87646 -0.407195 0)
(5.66089 1.40511 0)
(6.00423 -0.597474 0)
(5.74827 1.33819 0)
(6.10688 -0.858508 0)
(5.81354 1.26687 0)
(6.15251 -1.10269 0)
(5.84311 1.26885 0)
(6.17381 -1.30192 0)
(5.83246 1.33955 0)
(6.18957 -1.48393 0)
(5.78468 1.4617 0)
(6.21115 -1.66121 0)
(5.71321 1.63518 0)
(6.24664 -1.81545 0)
(5.64499 1.87079 0)
(6.30428 -1.95141 0)
(5.60831 2.16012 0)
(6.38539 -2.06523 0)
(5.62978 2.52323 0)
(6.48507 -2.13191 0)
(5.75725 2.9539 0)
(6.62259 -2.13626 0)
(6.05153 3.43673 0)
(6.82567 -1.9971 0)
(6.55344 3.99032 0)
(7.15668 -1.54555 0)
(7.23364 4.44902 0)
(7.71915 -0.571275 0)
(8.13686 4.45449 0)
(8.69525 1.05023 0)
(9.64165 3.88362 0)
(12.8402 -0.268389 0)
(12.8366 -0.307143 0)
(12.8578 -0.367069 0)
(12.8413 -0.444102 0)
(12.7843 -0.529131 0)
(12.6985 -0.618707 0)
(12.5999 -0.70856 0)
(12.4942 -0.79448 0)
(12.3848 -0.883258 0)
(12.2607 -0.969117 0)
(12.1237 -1.05571 0)
(11.9641 -1.14267 0)
(11.7726 -1.2273 0)
(11.5354 -1.30838 0)
(11.2427 -1.38063 0)
(10.8751 -1.42967 0)
(10.4299 -1.44664 0)
(9.90147 -1.42505 0)
(9.31199 -1.36699 0)
(8.69806 -1.28193 0)
(8.08029 -1.17725 0)
(7.48856 -1.07 0)
(6.91426 -0.973477 0)
(6.37075 -0.862623 0)
(5.91192 -0.722528 0)
(5.45566 -0.589728 0)
(5.01919 -0.486442 0)
(4.66699 -0.389645 0)
(4.34278 -0.317844 0)
(4.08622 -0.259505 0)
(3.87519 -0.229194 0)
(3.74971 -0.211386 0)
(3.65487 -0.171035 0)
(3.59773 -0.0914721 0)
(3.56361 0.0144671 0)
(3.55763 0.1194 0)
(3.56649 0.201275 0)
(3.60628 0.26931 0)
(3.62435 0.320485 0)
(3.73925 0.400548 0)
(3.72342 0.404722 0)
(3.92895 0.491245 0)
(3.84396 0.372811 0)
(4.05841 0.514287 0)
(3.87809 0.339122 0)
(4.24904 0.487147 0)
(3.97663 0.0707159 0)
(4.45527 0.551374 0)
(4.03599 -0.0310795 0)
(4.54764 0.626313 0)
(4.20736 -0.0196219 0)
(4.63273 0.684406 0)
(4.36293 -0.0385922 0)
(4.74845 0.751124 0)
(4.41866 -0.0830178 0)
(4.87795 0.79163 0)
(4.49915 -0.217665 0)
(5.01356 0.769099 0)
(4.64778 -0.350407 0)
(5.16312 0.75445 0)
(4.83681 -0.388217 0)
(5.24863 0.852506 0)
(5.075 -0.338769 0)
(5.31946 1.04045 0)
(5.32777 -0.270583 0)
(5.46114 1.25045 0)
(5.58338 -0.296613 0)
(5.58437 1.3515 0)
(5.76985 -0.399008 0)
(5.71384 1.34347 0)
(5.92639 -0.574183 0)
(5.83079 1.2701 0)
(6.04649 -0.814651 0)
(5.91809 1.20576 0)
(6.09836 -1.04456 0)
(5.95826 1.21832 0)
(6.1237 -1.24353 0)
(5.95116 1.30103 0)
(6.14253 -1.43159 0)