/*--------------------------------*- C++ -*----------------------------------*\
| =========                 |                                                 |
| \\      /  F ield         | OpenFOAM: The Open Source CFD Toolbox           |
|  \\    /   O peration     | Version:  2.4.0                                 |
|   \\  /    A nd           | Web:      www.OpenFOAM.org                      |
|    \\/     M anipulation  |                                                 |
\*---------------------------------------------------------------------------*/
FoamFile
{
    version     2.0;
    format      ascii;
    class       volSymmTensorField;
    location    "0.249";
    object      UPrime2Mean;
}
// * * * * * * * * * * * * * * * * * * * * * * * * * * * * * * * * * * * * * //

dimensions      [0 2 -2 0 0 0 0];

internalField   nonuniform List<symmTensor> 
17600
(
(0.0158717 -0.00172077 0 0.000259164 0 0)
(0.16339 -0.000655312 0 1.49206e-05 0 0)
(0.212341 -6.58984e-07 0 1.0767e-06 0 0)
(0.235754 -0.000168891 0 6.8057e-07 0 0)
(0.25215 -0.000129546 0 3.71448e-07 0 0)
(0.264505 -5.55643e-05 0 2.76099e-07 0 0)
(0.272918 -1.46556e-05 0 2.56118e-07 0 0)
(0.280147 6.02285e-07 0 2.6777e-07 0 0)
(0.28456 6.69478e-06 0 3.32087e-07 0 0)
(0.28917 8.1315e-07 0 4.1019e-07 0 0)
(0.291584 -9.62506e-07 0 4.83745e-07 0 0)
(0.295653 -2.17339e-05 0 6.89041e-07 0 0)
(0.297746 -1.8539e-05 0 8.15508e-07 0 0)
(0.302746 -5.87139e-05 0 1.25189e-06 0 0)
(0.305777 -5.99066e-05 0 1.40061e-06 0 0)
(0.315272 -0.000187619 0 2.82956e-06 0 0)
(0.32423 -0.000293031 0 3.28301e-06 0 0)
(0.363555 0.000156317 0 1.17794e-05 0 0)
(0.440375 -0.0121586 0 0.000506285 0 0)
(0.826454 0.0611186 0 0.00825175 0 0)
(0.0076435 0.00343352 0 0.00270662 0 0)
(0.0670464 -0.00641546 0 0.000648063 0 0)
(0.135728 -0.00363189 0 9.90281e-05 0 0)
(0.18256 -0.00257525 0 3.99934e-05 0 0)
(0.222379 -0.00211566 0 3.13325e-05 0 0)
(0.261739 -0.00177248 0 2.89444e-05 0 0)
(0.293083 -0.00141034 0 2.30805e-05 0 0)
(0.322867 -0.00110269 0 1.54811e-05 0 0)
(0.342151 -0.000847511 0 9.44463e-06 0 0)
(0.363451 -0.000710085 0 7.00328e-06 0 0)
(0.374263 -0.000629958 0 5.23805e-06 0 0)
(0.393144 -0.000644413 0 6.72737e-06 0 0)
(0.400535 -0.000688551 0 8.35933e-06 0 0)
(0.422179 -0.000696479 0 1.347e-05 0 0)
(0.428131 -0.00111329 0 1.7818e-05 0 0)
(0.464373 -0.000960647 0 3.98191e-05 0 0)
(0.466394 -0.00334794 0 7.70487e-05 0 0)
(0.612117 -0.00473024 0 0.000248414 0 0)
(0.607092 -0.0156968 0 0.00110117 0 0)
(1.76848 -0.178174 0 0.0388268 0 0)
(0.0272251 0.0103341 0 0.00427542 0 0)
(0.0111846 -0.00411163 0 0.00185655 0 0)
(0.0477424 -0.00461771 0 0.000486838 0 0)
(0.0829866 -0.004413 0 0.000240345 0 0)
(0.12083 -0.00434723 0 0.000182671 0 0)
(0.167336 -0.00418427 0 0.000164793 0 0)
(0.208998 -0.00367676 0 0.000136411 0 0)
(0.25292 -0.00309972 0 9.44113e-05 0 0)
(0.28265 -0.00251288 0 5.84803e-05 0 0)
(0.317848 -0.00215917 0 3.77514e-05 0 0)
(0.33535 -0.00189938 0 2.32009e-05 0 0)
(0.368139 -0.00197679 0 2.74783e-05 0 0)
(0.37896 -0.00194777 0 2.89761e-05 0 0)
(0.416485 -0.00223213 0 5.27996e-05 0 0)
(0.423113 -0.00278278 0 6.23795e-05 0 0)
(0.478724 -0.00319168 0 0.000167565 0 0)
(0.484017 -0.00775181 0 0.000292629 0 0)
(0.635131 -0.00960623 0 0.00109158 0 0)
(0.718202 -0.0422346 0 0.00488139 0 0)
(1.51258 -0.237653 0 0.0808541 0 0)
(0.0362246 0.0114831 0 0.00386435 0 0)
(0.00109423 0.000765336 0 0.00290593 0 0)
(0.00667668 -0.00173076 0 0.00107322 0 0)
(0.0157895 -0.00280842 0 0.000639624 0 0)
(0.0301041 -0.00379744 0 0.000517105 0 0)
(0.0575982 -0.00466028 0 0.000470206 0 0)
(0.0879265 -0.00473324 0 0.000406141 0 0)
(0.126849 -0.00445978 0 0.000292216 0 0)
(0.154783 -0.00382813 0 0.000191617 0 0)
(0.191905 -0.00343558 0 0.000118989 0 0)
(0.209788 -0.003186 0 7.69776e-05 0 0)
(0.247438 -0.00304999 0 7.02209e-05 0 0)
(0.258088 -0.00353021 0 8.59144e-05 0 0)
(0.301644 -0.00289796 0 0.000127022 0 0)
(0.308287 -0.0054615 0 0.000197811 0 0)
(0.362952 -0.00264625 0 0.00043201 0 0)
(0.385751 -0.0144443 0 0.00097205 0 0)
(0.458081 -0.0076872 0 0.00227382 0 0)
(0.677174 -0.0763046 0 0.0144148 0 0)
(0.882308 -0.124124 0 0.0622186 0 0)
(0.0339427 0.00926297 0 0.00270274 0 0)
(0.0038364 0.00296946 0 0.00303611 0 0)
(0.0054603 0.00162676 0 0.00134064 0 0)
(0.00584363 0.000973459 0 0.000985978 0 0)
(0.0044914 3.10239e-05 0 0.000929903 0 0)
(0.00715098 -0.00163657 0 0.000897871 0 0)
(0.0152493 -0.00262795 0 0.000814089 0 0)
(0.0328489 -0.0034243 0 0.000623286 0 0)
(0.0476492 -0.00327484 0 0.000425497 0 0)
(0.0720812 -0.00341349 0 0.000281089 0 0)
(0.0837191 -0.0031185 0 0.000172546 0 0)
(0.112014 -0.00364308 0 0.000185445 0 0)
(0.121396 -0.00339481 0 0.000159156 0 0)
(0.152094 -0.00466439 0 0.000306813 0 0)
(0.16608 -0.00393832 0 0.000299439 0 0)
(0.19469 -0.00824715 0 0.000918479 0 0)
(0.229701 -0.00638328 0 0.00113571 0 0)
(0.27019 -0.0271347 0 0.00596247 0 0)
(0.401386 -0.0399962 0 0.0113444 0 0)
(0.609742 -0.177766 0 0.14592 0 0)
(0.0322346 0.00755946 0 0.00193176 0 0)
(0.00449182 0.0026309 0 0.0027064 0 0)
(0.00907958 0.00238558 0 0.00115524 0 0)
(0.0145115 0.00288718 0 0.000950988 0 0)
(0.0181912 0.00351899 0 0.00109943 0 0)
(0.0145426 0.00266439 0 0.00121232 0 0)
(0.0127928 0.00178501 0 0.00119953 0 0)
(0.0109145 0.000110754 0 0.000977708 0 0)
(0.0124661 -0.00044936 0 0.000751848 0 0)
(0.0180606 -0.00133243 0 0.000497838 0 0)
(0.0204792 -0.00150796 0 0.00036288 0 0)
(0.0321089 -0.00210828 0 0.000326711 0 0)
(0.0342737 -0.00268268 0 0.000387214 0 0)
(0.050365 -0.00302807 0 0.000496177 0 0)
(0.054807 -0.004699 0 0.000787432 0 0)
(0.0735703 -0.00492999 0 0.00135348 0 0)
(0.0851479 -0.0111842 0 0.0029074 0 0)
(0.122214 -0.0139475 0 0.00567511 0 0)
(0.18451 -0.051753 0 0.0260691 0 0)
(0.354506 -0.114672 0 0.0987189 0 0)
(0.0336418 0.00656263 0 0.00144414 0 0)
(0.00609012 0.0020268 0 0.00242181 0 0)
(0.0106331 0.00201688 0 0.00094139 0 0)
(0.0174425 0.00263065 0 0.000715916 0 0)
(0.0269751 0.00413022 0 0.000947027 0 0)
(0.0283748 0.00449465 0 0.00120192 0 0)
(0.0330216 0.00477634 0 0.00132184 0 0)
(0.028563 0.00345251 0 0.00120236 0 0)
(0.0300984 0.00285912 0 0.000941564 0 0)
(0.0251607 0.00158996 0 0.000751219 0 0)
(0.025926 0.00134232 0 0.000514713 0 0)
(0.0222528 0.000274053 0 0.000608716 0 0)
(0.0222772 5.91135e-05 0 0.000496064 0 0)
(0.0210811 -0.00134886 0 0.000902995 0 0)
(0.0210293 -0.00145052 0 0.000893679 0 0)
(0.0242324 -0.00435437 0 0.00224537 0 0)
(0.024298 -0.00479266 0 0.00267738 0 0)
(0.0450611 -0.014403 0 0.010635 0 0)
(0.0718556 -0.0278018 0 0.0198479 0 0)
(0.196328 -0.087156 0 0.128279 0 0)
(0.0375141 0.00582375 0 0.00108812 0 0)
(0.00945062 0.00166781 0 0.00216811 0 0)
(0.0116917 0.00173014 0 0.000874102 0 0)
(0.0184248 0.00214096 0 0.000569497 0 0)
(0.0270523 0.00354952 0 0.000765568 0 0)
(0.0293631 0.00419144 0 0.00104824 0 0)
(0.0380059 0.00511265 0 0.0012305 0 0)
(0.0364961 0.00434925 0 0.00113984 0 0)
(0.0442117 0.00417589 0 0.00106441 0 0)
(0.0416567 0.00310454 0 0.000838424 0 0)
(0.0476314 0.00331447 0 0.000716554 0 0)
(0.0441239 0.00218904 0 0.000736441 0 0)
(0.0468829 0.00261783 0 0.000861422 0 0)
(0.0423721 0.000813954 0 0.00110772 0 0)
(0.0423233 0.00162524 0 0.00152807 0 0)
(0.0387612 -0.00202363 0 0.00255591 0 0)
(0.0360261 -0.000546929 0 0.00412401 0 0)
(0.0424868 -0.00786542 0 0.00977854 0 0)
(0.0522662 -0.0155842 0 0.0288136 0 0)
(0.127247 -0.0421032 0 0.143502 0 0)
(0.0408741 0.00515065 0 0.000831298 0 0)
(0.0103741 0.00146229 0 0.00189801 0 0)
(0.0101308 0.00155874 0 0.000876411 0 0)
(0.0169584 0.00184624 0 0.00050155 0 0)
(0.0230579 0.00293678 0 0.000640446 0 0)
(0.0250303 0.00352213 0 0.000910066 0 0)
(0.032486 0.00449629 0 0.00112182 0 0)
(0.0318683 0.00394955 0 0.00115611 0 0)
(0.0408915 0.0038776 0 0.000942853 0 0)
(0.0403861 0.00327034 0 0.00091324 0 0)
(0.0505684 0.00321849 0 0.000745481 0 0)
(0.0500096 0.0031943 0 0.000970814 0 0)
(0.05951 0.00281927 0 0.00091582 0 0)
(0.0580077 0.00303855 0 0.00148194 0 0)
(0.0651469 0.0022505 0 0.00164708 0 0)
(0.0623762 0.00185749 0 0.00324469 0 0)
(0.0658831 0.00136502 0 0.00435694 0 0)
(0.0661587 -0.000933033 0 0.0123389 0 0)
(0.0729733 -0.00195857 0 0.0319812 0 0)
(0.1161 -0.00912258 0 0.12281 0 0)
(0.0390239 0.00441072 0 0.000665186 0 0)
(0.00680145 0.00133077 0 0.00166326 0 0)
(0.00657346 0.00136621 0 0.000909163 0 0)
(0.0123982 0.00153701 0 0.000473247 0 0)
(0.0177585 0.00231082 0 0.000574788 0 0)
(0.0206306 0.00298283 0 0.000833061 0 0)
(0.0253812 0.00379562 0 0.00104831 0 0)
(0.0270361 0.00339942 0 0.00101081 0 0)
(0.0331713 0.00319708 0 0.000994543 0 0)
(0.035982 0.00267684 0 0.00093162 0 0)
(0.0427502 0.00280504 0 0.000856176 0 0)
(0.0472037 0.00268255 0 0.00100279 0 0)
(0.054186 0.00267949 0 0.00109017 0 0)
(0.0594436 0.00272314 0 0.00157987 0 0)
(0.0642447 0.00266161 0 0.00185075 0 0)
(0.0703671 0.0023254 0 0.00337009 0 0)
(0.0722361 0.00229198 0 0.00479346 0 0)
(0.0792429 0.00467593 0 0.0133793 0 0)
(0.081661 0.00336136 0 0.0330855 0 0)
(0.118005 0.0177342 0 0.126402 0 0)
(0.0345506 0.00355891 0 0.000541221 0 0)
(0.00314233 0.000991147 0 0.00145888 0 0)
(0.00431076 0.000992181 0 0.000905718 0 0)
(0.00925698 0.00108526 0 0.000458029 0 0)
(0.0147047 0.00156049 0 0.000542788 0 0)
(0.0184746 0.00244217 0 0.000806468 0 0)
(0.0221794 0.00297305 0 0.000999709 0 0)
(0.0253371 0.00274719 0 0.00107157 0 0)
(0.0293874 0.00222936 0 0.000926109 0 0)
(0.0336925 0.00226666 0 0.000958567 0 0)
(0.0384309 0.00181288 0 0.000863982 0 0)
(0.044845 0.0023945 0 0.00110653 0 0)
(0.0501045 0.00163407 0 0.00109881 0 0)
(0.0557972 0.00265315 0 0.00165652 0 0)
(0.0608959 0.0018813 0 0.00179256 0 0)
(0.067759 0.00242791 0 0.00335706 0 0)
(0.0701337 0.00270983 0 0.00488629 0 0)
(0.0758695 0.00512396 0 0.0132088 0 0)
(0.081367 0.00766884 0 0.0346318 0 0)
(0.110816 0.0256682 0 0.115713 0 0)
(0.0331373 0.00288174 0 0.000449924 0 0)
(0.00284112 0.000514116 0 0.00124624 0 0)
(0.00457304 0.000536487 0 0.000881653 0 0)
(0.00918654 0.000718833 0 0.000415811 0 0)
(0.0143412 0.00101128 0 0.000529953 0 0)
(0.0177826 0.00183894 0 0.00078264 0 0)
(0.021134 0.0023456 0 0.000941717 0 0)
(0.023852 0.00218831 0 0.000939758 0 0)
(0.0271636 0.00177105 0 0.00094879 0 0)
(0.031297 0.00160031 0 0.000973454 0 0)
(0.0360775 0.00147684 0 0.000862693 0 0)
(0.04159 0.00177006 0 0.00103533 0 0)
(0.0462779 0.00133262 0 0.00105752 0 0)
(0.0515075 0.0021683 0 0.00158009 0 0)
(0.0574291 0.00149803 0 0.00159384 0 0)
(0.0622732 0.00287338 0 0.00333507 0 0)
(0.0652007 0.0025522 0 0.00461715 0 0)
(0.0704425 0.00721123 0 0.0138016 0 0)
(0.0773888 0.00961664 0 0.0335248 0 0)
(0.104346 0.0291223 0 0.113913 0 0)
(0.0335099 0.00236431 0 0.000361144 0 0)
(0.00339312 0.000180964 0 0.00104431 0 0)
(0.00421209 0.000154011 0 0.000850263 0 0)
(0.00757359 0.000516706 0 0.000420114 0 0)
(0.0126106 0.000793002 0 0.000502981 0 0)
(0.0158965 0.00148686 0 0.000725767 0 0)
(0.0185912 0.00193818 0 0.000866387 0 0)
(0.0207887 0.00199578 0 0.000901078 0 0)
(0.0242357 0.00158163 0 0.000849297 0 0)
(0.0283225 0.00145917 0 0.000862506 0 0)
(0.0324459 0.0012315 0 0.000775344 0 0)
(0.0372087 0.00163559 0 0.000967346 0 0)
(0.0417944 0.00135398 0 0.000917058 0 0)
(0.0474964 0.00200476 0 0.00138545 0 0)
(0.0517716 0.0016771 0 0.0013996 0 0)
(0.0563228 0.00249246 0 0.00303313 0 0)
(0.0592124 0.00341187 0 0.00458682 0 0)
(0.0647155 0.00739047 0 0.013409 0 0)
(0.071526 0.0112739 0 0.0332446 0 0)
(0.0995818 0.0335689 0 0.110259 0 0)
(0.0331733 0.00195555 0 0.000291305 0 0)
(0.00234687 0.000104348 0 0.000853544 0 0)
(0.00284225 2.05793e-06 0 0.000774369 0 0)
(0.00595056 0.000414134 0 0.000409913 0 0)
(0.0108902 0.000764808 0 0.000462044 0 0)
(0.0142881 0.00135884 0 0.000641232 0 0)
(0.0165745 0.00175805 0 0.000775132 0 0)
(0.0188267 0.00180744 0 0.000767871 0 0)
(0.0217358 0.00163819 0 0.000749078 0 0)
(0.0258074 0.00139188 0 0.000763977 0 0)
(0.0293643 0.00124514 0 0.000681268 0 0)
(0.0343305 0.00146316 0 0.000842968 0 0)
(0.0381689 0.00135874 0 0.000764539 0 0)
(0.0435677 0.0019624 0 0.0012609 0 0)
(0.0467932 0.00156828 0 0.00121479 0 0)
(0.0521214 0.00273112 0 0.00294265 0 0)
(0.0547108 0.00334291 0 0.00454438 0 0)
(0.0609647 0.00734925 0 0.0133838 0 0)
(0.0685439 0.0126211 0 0.0326729 0 0)
(0.0982294 0.0351533 0 0.10525 0 0)
(0.0327106 0.00159114 0 0.000223552 0 0)
(0.00146229 0.000215421 0 0.000663902 0 0)
(0.00229293 0.000149833 0 0.000601126 0 0)
(0.00534979 0.000485056 0 0.000360609 0 0)
(0.00971506 0.000702435 0 0.000410477 0 0)
(0.012932 0.00127088 0 0.0005604 0 0)
(0.0149408 0.00152885 0 0.000679981 0 0)
(0.0170925 0.00157578 0 0.000708415 0 0)
(0.0196173 0.00132312 0 0.000677892 0 0)
(0.0233178 0.00119958 0 0.000675573 0 0)
(0.0270059 0.000945229 0 0.000585492 0 0)
(0.031888 0.0012239 0 0.00075019 0 0)
(0.0354309 0.000902586 0 0.000665666 0 0)
(0.0402946 0.0014963 0 0.00115654 0 0)
(0.0436682 0.00104961 0 0.00112799 0 0)
(0.0490888 0.00247149 0 0.00283016 0 0)
(0.0521258 0.00273108 0 0.00462069 0 0)
(0.0590139 0.00743232 0 0.0134762 0 0)
(0.0675637 0.0133225 0 0.0320562 0 0)
(0.0981683 0.0355478 0 0.0972881 0 0)
(0.0327566 0.00125371 0 0.000179187 0 0)
(0.00125846 0.000176691 0 0.000511271 0 0)
(0.00222168 0.000164891 0 0.000462618 0 0)
(0.005051 0.000410549 0 0.00032077 0 0)
(0.00928146 0.000461028 0 0.000398078 0 0)
(0.0120895 0.000872062 0 0.000523546 0 0)
(0.0140964 0.00113789 0 0.000640197 0 0)
(0.0159176 0.0010855 0 0.000643548 0 0)
(0.0185343 0.000865336 0 0.00066885 0 0)
(0.0217191 0.000601844 0 0.000674774 0 0)
(0.0255978 0.000537919 0 0.000579914 0 0)
(0.0298873 0.000657386 0 0.00072113 0 0)
(0.0339629 0.000501779 0 0.000627814 0 0)
(0.0382517 0.000784174 0 0.00114458 0 0)
(0.0422076 0.000801802 0 0.00106502 0 0)
(0.0467972 0.00171843 0 0.00287144 0 0)
(0.0510113 0.00277439 0 0.00464053 0 0)
(0.0574768 0.00699382 0 0.0135067 0 0)
(0.0673993 0.0146222 0 0.0316035 0 0)
(0.0988621 0.0354447 0 0.0869647 0 0)
(0.0328271 0.000901896 0 0.000151658 0 0)
(0.00109885 -2.41053e-05 0 0.000420985 0 0)
(0.00208839 -9.09341e-05 0 0.000404956 0 0)
(0.00465832 9.55574e-05 0 0.000342546 0 0)
(0.00883932 8.75293e-05 0 0.000421907 0 0)
(0.0115336 0.000375945 0 0.000527403 0 0)
(0.0135161 0.000593919 0 0.00061987 0 0)
(0.0150307 0.000576834 0 0.00062683 0 0)
(0.0176805 0.000399027 0 0.00063686 0 0)
(0.0207105 0.000210391 0 0.000631836 0 0)
(0.0245305 0.000204949 0 0.000516314 0 0)
(0.0285552 0.000360349 0 0.000637776 0 0)
(0.0327982 0.000166272 0 0.000538557 0 0)
(0.0367996 0.000528207 0 0.00101689 0 0)
(0.0407383 0.000441803 0 0.00101185 0 0)
(0.0450884 0.00156381 0 0.00268348 0 0)
(0.0498111 0.00248455 0 0.00462738 0 0)
(0.0564535 0.00732375 0 0.0132856 0 0)
(0.0674838 0.0146773 0 0.0300261 0 0)
(0.0989721 0.0392735 0 0.0831094 0 0)
(0.0327607 0.000600928 0 0.000128413 0 0)
(0.00113316 -8.58889e-05 0 0.000340856 0 0)
(0.00230932 -0.000212276 0 0.000333957 0 0)
(0.00474837 -7.45466e-05 0 0.000323931 0 0)
(0.00865483 -4.56041e-05 0 0.000393214 0 0)
(0.0113451 0.000171643 0 0.000476721 0 0)
(0.0131379 0.000290729 0 0.000557948 0 0)
(0.0147516 0.00027777 0 0.000567125 0 0)
(0.0170657 0.000188537 0 0.000564295 0 0)
(0.0202024 0.000139957 0 0.000555582 0 0)
(0.0237061 0.000115842 0 0.000428636 0 0)
(0.0278762 0.000260725 0 0.000557841 0 0)
(0.0316703 5.63277e-05 0 0.000450103 0 0)
(0.035838 0.000371071 0 0.00090843 0 0)
(0.0392598 0.000220166 0 0.00103926 0 0)
(0.0441547 0.00143649 0 0.0024063 0 0)
(0.0487062 0.00234621 0 0.00498453 0 0)
(0.0563849 0.00748392 0 0.012257 0 0)
(0.0683708 0.0148523 0 0.0307056 0 0)
(0.101377 0.0407022 0 0.0764272 0 0)
(0.0327033 0.000373233 0 0.000105219 0 0)
(0.0011726 -3.97782e-05 0 0.000251991 0 0)
(0.00242727 -9.30171e-05 0 0.000234756 0 0)
(0.00483437 1.18669e-05 0 0.000240417 0 0)
(0.00848676 3.7107e-05 0 0.000311473 0 0)
(0.0111358 0.000139546 0 0.000366486 0 0)
(0.0128334 0.000272425 0 0.000426117 0 0)
(0.0146531 0.000172714 0 0.000427563 0 0)
(0.0168264 0.000193326 0 0.000439188 0 0)
(0.0198928 4.72765e-05 0 0.000441202 0 0)
(0.0230882 9.86889e-05 0 0.000344781 0 0)
(0.0271522 5.23364e-05 0 0.000476956 0 0)
(0.0307138 -1.67167e-05 0 0.000383416 0 0)
(0.035142 2.2156e-05 0 0.000823948 0 0)
(0.0384933 0.000153436 0 0.000984079 0 0)
(0.0437009 0.00108717 0 0.00232031 0 0)
(0.0482496 0.00251227 0 0.00489818 0 0)
(0.0569401 0.0071325 0 0.0119164 0 0)
(0.0695964 0.0155965 0 0.0299156 0 0)
(0.102802 0.0375767 0 0.0654158 0 0)
(0.0327007 0.000103932 0 9.18056e-05 0 0)
(0.000982509 -3.53534e-05 0 0.000210252 0 0)
(0.00211224 -1.75474e-05 0 0.0001766 0 0)
(0.00445676 4.78592e-05 0 0.000194029 0 0)
(0.00814263 -3.22079e-06 0 0.000265577 0 0)
(0.0107445 6.57452e-05 0 0.000307268 0 0)
(0.0124491 9.2429e-05 0 0.000345744 0 0)
(0.014142 0.00011459 0 0.000348777 0 0)
(0.0164414 5.02928e-05 0 0.000361165 0 0)
(0.0194383 -2.52024e-05 0 0.000389552 0 0)
(0.0227237 -0.000178119 0 0.000310577 0 0)
(0.0265037 -3.35245e-05 0 0.000435661 0 0)
(0.0302999 -0.000350832 0 0.000335193 0 0)
(0.0346065 -4.78425e-06 0 0.000790317 0 0)
(0.0383044 -0.000201065 0 0.000835856 0 0)
(0.0432327 0.00116618 0 0.00250841 0 0)
(0.0483392 0.00218711 0 0.00412528 0 0)
(0.0572645 0.00733827 0 0.013123 0 0)
(0.071267 0.0153615 0 0.0253123 0 0)
(0.10542 0.0356055 0 0.0663539 0 0)
(0.0326462 -0.00012593 0 8.51844e-05 0 0)
(0.000712038 -7.93469e-05 0 0.000202168 0 0)
(0.00178427 -7.22672e-05 0 0.000169494 0 0)
(0.00414323 -7.91125e-05 0 0.000188802 0 0)
(0.00794772 -9.4431e-05 0 0.000247556 0 0)
(0.0105098 -0.00018938 0 0.000277964 0 0)
(0.0121991 -0.000137084 0 0.000302011 0 0)
(0.013657 -0.000218421 0 0.000319817 0 0)
(0.0160343 -0.000113002 0 0.000318131 0 0)
(0.0189974 -0.000318661 0 0.000364257 0 0)
(0.0225494 -0.000277732 0 0.000279061 0 0)
(0.0262298 -0.000375286 0 0.00041788 0 0)
(0.0302672 -0.00038281 0 0.00031649 0 0)
(0.0342731 -0.000415089 0 0.000707882 0 0)
(0.038265 -0.000118491 0 0.000951966 0 0)
(0.0430915 0.000554601 0 0.00217853 0 0)
(0.048898 0.00243301 0 0.004656 0 0)
(0.058089 0.00647767 0 0.0116988 0 0)
(0.0734155 0.0162073 0 0.0256828 0 0)
(0.108668 0.0322202 0 0.0601913 0 0)
(0.032602 -0.000399802 0 8.43716e-05 0 0)
(0.000656361 -0.000131396 0 0.000217719 0 0)
(0.00173821 -0.000132024 0 0.000183188 0 0)
(0.00414046 -0.00019508 0 0.000187803 0 0)
(0.00794951 -0.000219982 0 0.000242806 0 0)
(0.0105332 -0.000386209 0 0.000261249 0 0)
(0.0121956 -0.000446681 0 0.000301035 0 0)
(0.0136186 -0.000497573 0 0.000324103 0 0)
(0.0160079 -0.00043076 0 0.000330726 0 0)
(0.0189738 -0.000485538 0 0.000349135 0 0)
(0.0226575 -0.000537092 0 0.000283623 0 0)
(0.0263832 -0.000495905 0 0.000378163 0 0)
(0.03051 -0.000715257 0 0.00032293 0 0)
(0.034445 -0.000510663 0 0.000644874 0 0)
(0.0386801 -0.000636066 0 0.000961812 0 0)
(0.0437389 0.000523863 0 0.00212431 0 0)
(0.0501257 0.00166643 0 0.0045087 0 0)
(0.0599259 0.006801 0 0.0113368 0 0)
(0.0761845 0.0146986 0 0.0243069 0 0)
(0.111802 0.0348047 0 0.0578032 0 0)
(0.0325687 -0.000659542 0 8.87735e-05 0 0)
(0.000719869 -0.000167561 0 0.00025623 0 0)
(0.00182324 -0.00014988 0 0.000208445 0 0)
(0.00430602 -0.000271772 0 0.000185993 0 0)
(0.00811692 -0.00032356 0 0.000235684 0 0)
(0.0107595 -0.000604555 0 0.000260982 0 0)
(0.0124154 -0.000703247 0 0.000304977 0 0)
(0.0140344 -0.000791632 0 0.000343253 0 0)
(0.0163434 -0.000658704 0 0.000332398 0 0)
(0.0194371 -0.000703094 0 0.00035185 0 0)
(0.0230399 -0.000730825 0 0.000289373 0 0)
(0.026935 -0.000745576 0 0.000368068 0 0)
(0.0309204 -0.000951164 0 0.000338918 0 0)
(0.035119 -0.000811879 0 0.000603704 0 0)
(0.0394318 -0.000956875 0 0.00100301 0 0)
(0.0449288 0.000242607 0 0.00207908 0 0)
(0.0516306 0.00127726 0 0.00443881 0 0)
(0.0621715 0.00668933 0 0.0110044 0 0)
(0.0797835 0.0135972 0 0.0235394 0 0)
(0.116394 0.0363701 0 0.0548266 0 0)
(0.0325154 -0.000932431 0 9.71492e-05 0 0)
(0.000700897 -0.000185027 0 0.000315154 0 0)
(0.00181963 -0.000144783 0 0.000245459 0 0)
(0.00449143 -0.000337015 0 0.000184801 0 0)
(0.00838847 -0.000419522 0 0.000230927 0 0)
(0.011089 -0.000827076 0 0.000271927 0 0)
(0.0128266 -0.000915963 0 0.000309635 0 0)
(0.0146011 -0.00108217 0 0.000375244 0 0)
(0.0169629 -0.000811042 0 0.000327164 0 0)
(0.0201384 -0.000938962 0 0.000363152 0 0)
(0.0237694 -0.000823469 0 0.00028386 0 0)
(0.0278015 -0.00108698 0 0.000395343 0 0)
(0.0318281 -0.00103225 0 0.000347158 0 0)
(0.0362291 -0.00130655 0 0.00063727 0 0)
(0.0406991 -0.00093602 0 0.00101962 0 0)
(0.0464996 -0.000448231 0 0.0020653 0 0)
(0.0535951 0.00150528 0 0.00443574 0 0)
(0.0648953 0.00548059 0 0.0102668 0 0)
(0.0838792 0.0139866 0 0.0235124 0 0)
(0.119968 0.031251 0 0.0451478 0 0)
(0.0324354 -0.00125596 0 0.000116283 0 0)
(0.000616525 -0.000211029 0 0.000395838 0 0)
(0.00170276 -0.000153283 0 0.000316056 0 0)
(0.00462474 -0.000382173 0 0.000179396 0 0)
(0.00872626 -0.000551192 0 0.000233305 0 0)
(0.0115553 -0.00101312 0 0.000290727 0 0)
(0.0133769 -0.00120772 0 0.00035394 0 0)
(0.0152492 -0.00128968 0 0.000407809 0 0)
(0.0177336 -0.00109134 0 0.000364328 0 0)
(0.0210103 -0.00107973 0 0.000366325 0 0)
(0.0247893 -0.00111098 0 0.000318325 0 0)
(0.0289343 -0.0012308 0 0.000393995 0 0)
(0.0331528 -0.00138886 0 0.000376609 0 0)
(0.0376859 -0.00147418 0 0.000673118 0 0)
(0.0423885 -0.00136883 0 0.000942692 0 0)
(0.0484224 -0.000620414 0 0.00232391 0 0)
(0.0560819 0.000891186 0 0.00376459 0 0)
(0.0681717 0.00508792 0 0.0111227 0 0)
(0.0884343 0.0126389 0 0.0199552 0 0)
(0.125056 0.0275066 0 0.0462593 0 0)
(0.0323636 -0.0015806 0 0.00014612 0 0)
(0.000597281 -0.000278634 0 0.000522515 0 0)
(0.0016755 -0.000218088 0 0.000404764 0 0)
(0.00485301 -0.000472056 0 0.000196247 0 0)
(0.00913237 -0.000657505 0 0.000241175 0 0)
(0.0121713 -0.00130594 0 0.00034081 0 0)
(0.0141179 -0.00143647 0 0.000394665 0 0)
(0.0161614 -0.00165415 0 0.000493031 0 0)
(0.0187376 -0.00125534 0 0.000387171 0 0)
(0.0222267 -0.00142747 0 0.000425566 0 0)
(0.026125 -0.00123157 0 0.000329383 0 0)
(0.0304787 -0.00164878 0 0.000434815 0 0)
(0.0348304 -0.00147708 0 0.000399327 0 0)
(0.0395906 -0.00202136 0 0.00067669 0 0)
(0.0444837 -0.00143075 0 0.00101824 0 0)
(0.0509595 -0.00138613 0 0.00219819 0 0)
(0.0592432 0.000741112 0 0.00395405 0 0)
(0.0722736 0.00378581 0 0.0104339 0 0)
(0.0936593 0.0118456 0 0.0192167 0 0)
(0.131574 0.0233442 0 0.0458956 0 0)
(0.0323269 -0.0019999 0 0.000191472 0 0)
(0.000629016 -0.000360432 0 0.000655608 0 0)
(0.00177007 -0.00031844 0 0.000526545 0 0)
(0.00526587 -0.000570676 0 0.000203066 0 0)
(0.00971999 -0.000851558 0 0.000258989 0 0)
(0.0129484 -0.0015534 0 0.00038757 0 0)
(0.0151108 -0.00179038 0 0.000476703 0 0)
(0.0173769 -0.00192875 0 0.000561828 0 0)
(0.020124 -0.00157512 0 0.000453863 0 0)
(0.0238069 -0.0016393 0 0.000454018 0 0)
(0.0278811 -0.0015549 0 0.000377913 0 0)
(0.0324652 -0.00187333 0 0.000452711 0 0)
(0.0370891 -0.00185809 0 0.000450489 0 0)
(0.0420884 -0.00230505 0 0.000688935 0 0)
(0.0473274 -0.00194382 0 0.00106666 0 0)
(0.0541823 -0.00173828 0 0.0021351 0 0)
(0.0632143 -0.000103792 0 0.00398845 0 0)
(0.0770808 0.00310569 0 0.00963995 0 0)
(0.0998144 0.00963727 0 0.0189206 0 0)
(0.138603 0.0225595 0 0.0422316 0 0)
(0.0324572 -0.00243523 0 0.000253592 0 0)
(0.000710074 -0.000468172 0 0.00084205 0 0)
(0.00197692 -0.000455456 0 0.000628398 0 0)
(0.00585734 -0.000706056 0 0.000233401 0 0)
(0.0105623 -0.00106685 0 0.000290206 0 0)
(0.0139553 -0.00189601 0 0.00046843 0 0)
(0.0164388 -0.002131 0 0.000564502 0 0)
(0.0189415 -0.00231004 0 0.000666415 0 0)
(0.0219554 -0.00187375 0 0.000520092 0 0)
(0.0258356 -0.0019753 0 0.000516363 0 0)
(0.0301333 -0.00183762 0 0.000413095 0 0)
(0.0350245 -0.00228902 0 0.00050574 0 0)
(0.0399324 -0.002176 0 0.000487583 0 0)
(0.0453267 -0.0028259 0 0.000758779 0 0)
(0.0509055 -0.00237016 0 0.00108491 0 0)
(0.0582368 -0.00237734 0 0.00220554 0 0)
(0.0678017 -0.000804688 0 0.00394317 0 0)
(0.082715 0.00199691 0 0.00923932 0 0)
(0.106847 0.00756805 0 0.0188385 0 0)
(0.146852 0.020745 0 0.0395953 0 0)
(0.0330517 -0.00297666 0 0.000342831 0 0)
(0.000888794 -0.000600854 0 0.00106615 0 0)
(0.00240048 -0.000671966 0 0.000706377 0 0)
(0.00658601 -0.000878178 0 0.000280503 0 0)
(0.0118545 -0.00137234 0 0.000348151 0 0)
(0.0150194 -0.0022696 0 0.000576879 0 0)
(0.0183682 -0.00257555 0 0.000688952 0 0)
(0.0206139 -0.0027281 0 0.000805899 0 0)
(0.0245063 -0.00226354 0 0.000613533 0 0)
(0.0280414 -0.00234406 0 0.000611609 0 0)
(0.0331663 -0.00216816 0 0.000458453 0 0)
(0.0377708 -0.00276343 0 0.000600743 0 0)
(0.0435864 -0.00248855 0 0.000512818 0 0)
(0.0488424 -0.00343815 0 0.000883304 0 0)
(0.0554123 -0.0027086 0 0.00104909 0 0)
(0.0627728 -0.003253 0 0.00233585 0 0)
(0.0732888 -0.00123739 0 0.00374271 0 0)
(0.0890278 0.000311083 0 0.00898142 0 0)
(0.114534 0.00644511 0 0.018025 0 0)
(0.155763 0.0150936 0 0.036074 0 0)
(0.0339822 -0.00363456 0 0.000467045 0 0)
(0.00125464 -0.000760403 0 0.00132008 0 0)
(0.00324145 -0.000990514 0 0.000768201 0 0)
(0.00745914 -0.0010829 0 0.000335844 0 0)
(0.0138899 -0.00181234 0 0.000425373 0 0)
(0.0160294 -0.00260762 0 0.000679615 0 0)
(0.0212961 -0.0031816 0 0.000838148 0 0)
(0.0221226 -0.00305965 0 0.000912888 0 0)
(0.0283361 -0.00288375 0 0.000749458 0 0)
(0.0301025 -0.00258854 0 0.000671562 0 0)
(0.0377014 -0.00272178 0 0.000539953 0 0)
(0.0403191 -0.0030225 0 0.000646263 0 0)
(0.0489264 -0.00311717 0 0.000599415 0 0)
(0.0521046 -0.00370872 0 0.000952428 0 0)
(0.0618157 -0.00351318 0 0.00110193 0 0)
(0.0671579 -0.0036246 0 0.00242552 0 0)
(0.0806127 -0.00233344 0 0.0035299 0 0)
(0.0948659 -0.000221355 0 0.00902405 0 0)
(0.12244 0.00483092 0 0.0159724 0 0)
(0.163085 0.0141338 0 0.0368702 0 0)
(0.0344289 -0.00435601 0 0.000631307 0 0)
(0.00173624 -0.000991405 0 0.00162171 0 0)
(0.0043757 -0.00139832 0 0.000832373 0 0)
(0.00844727 -0.0013858 0 0.000427827 0 0)
(0.0164502 -0.00237939 0 0.00053241 0 0)
(0.0171908 -0.00302735 0 0.000816062 0 0)
(0.0250361 -0.00386104 0 0.000989224 0 0)
(0.0236816 -0.00344912 0 0.00104925 0 0)
(0.0333493 -0.00361139 0 0.000882503 0 0)
(0.0321678 -0.00293849 0 0.000762148 0 0)
(0.0438114 -0.00334519 0 0.000602257 0 0)
(0.0427149 -0.00337857 0 0.000710164 0 0)
(0.0559775 -0.00378577 0 0.000647751 0 0)
(0.0544628 -0.00405801 0 0.00102702 0 0)
(0.0691921 -0.0041979 0 0.00112896 0 0)
(0.0688371 -0.00393865 0 0.00242109 0 0)
(0.0863882 -0.00286822 0 0.00344455 0 0)
(0.0941696 0.000453004 0 0.00838005 0 0)
(0.122649 0.00624634 0 0.014476 0 0)
(0.160293 0.0219785 0 0.0351945 0 0)
(0.033969 -0.00507893 0 0.000837548 0 0)
(0.0022512 -0.00127604 0 0.00192593 0 0)
(0.0053634 -0.00174509 0 0.000890646 0 0)
(0.00953584 -0.00175863 0 0.000524838 0 0)
(0.0188523 -0.0030416 0 0.000670534 0 0)
(0.0190316 -0.00353677 0 0.000965033 0 0)
(0.0287502 -0.00457801 0 0.00115756 0 0)
(0.026041 -0.00387067 0 0.00117533 0 0)
(0.0381106 -0.00432894 0 0.00102856 0 0)
(0.0344169 -0.00330144 0 0.000844923 0 0)
(0.048637 -0.00393903 0 0.000674146 0 0)
(0.0435128 -0.00359137 0 0.000759886 0 0)
(0.0586018 -0.00421216 0 0.000690083 0 0)
(0.0511438 -0.00398474 0 0.00106972 0 0)
(0.0660311 -0.00407549 0 0.00110728 0 0)
(0.0582005 -0.00314745 0 0.00230528 0 0)
(0.0734925 -0.00126632 0 0.00323832 0 0)
(0.0746391 0.00362757 0 0.00719127 0 0)
(0.100814 0.0135728 0 0.0132122 0 0)
(0.147822 0.0357677 0 0.0287547 0 0)
(0.0329894 -0.0057868 0 0.00109991 0 0)
(0.00263928 -0.00157977 0 0.00222529 0 0)
(0.00603678 -0.00193398 0 0.000924331 0 0)
(0.010849 -0.00215574 0 0.000633658 0 0)
(0.0211127 -0.0036741 0 0.000827835 0 0)
(0.0217351 -0.00411973 0 0.00112613 0 0)
(0.0317072 -0.00513122 0 0.00130807 0 0)
(0.0279603 -0.00415015 0 0.00127101 0 0)
(0.0383833 -0.00453157 0 0.00111147 0 0)
(0.0318408 -0.00317107 0 0.000864159 0 0)
(0.0419642 -0.00373294 0 0.000691327 0 0)
(0.0329508 -0.00283463 0 0.000723503 0 0)
(0.0412495 -0.00333525 0 0.00067035 0 0)
(0.0306752 -0.00222183 0 0.000980146 0 0)
(0.0372565 -0.0021841 0 0.000999771 0 0)
(0.0297087 0.000117721 0 0.00200331 0 0)
(0.0379832 0.00237018 0 0.00273623 0 0)
(0.0471181 0.0098639 0 0.00595936 0 0)
(0.0774766 0.0217289 0 0.0105791 0 0)
(0.155719 0.0497209 0 0.0219093 0 0)
(0.0319679 -0.00657369 0 0.00145493 0 0)
(0.00289216 -0.00196882 0 0.00246477 0 0)
(0.00670719 -0.00212545 0 0.000989361 0 0)
(0.0126017 -0.00262583 0 0.000774524 0 0)
(0.0224838 -0.00419191 0 0.00100316 0 0)
(0.0220975 -0.00434012 0 0.0012679 0 0)
(0.0272432 -0.00472454 0 0.00138486 0 0)
(0.0203107 -0.00319107 0 0.00127435 0 0)
(0.0227259 -0.00301528 0 0.00105599 0 0)
(0.015181 -0.00140962 0 0.000770823 0 0)
(0.0163731 -0.00161935 0 0.000586767 0 0)
(0.0113532 -0.000361766 0 0.00058803 0 0)
(0.0113901 -0.000561821 0 0.000532215 0 0)
(0.0110705 0.00112104 0 0.000777543 0 0)
(0.012024 0.00111343 0 0.00076742 0 0)
(0.0205785 0.00433666 0 0.00156639 0 0)
(0.0290044 0.00623191 0 0.00209141 0 0)
(0.0613898 0.0152292 0 0.00450798 0 0)
(0.107827 0.0268717 0 0.00794199 0 0)
(0.223425 0.0541493 0 0.0150062 0 0)
(0.0317965 -0.00757866 0 0.00193523 0 0)
(0.00341132 -0.00258898 0 0.00272656 0 0)
(0.00726268 -0.0024163 0 0.00118321 0 0)
(0.0121028 -0.00284127 0 0.00098481 0 0)
(0.0157112 -0.00353377 0 0.00113003 0 0)
(0.0107443 -0.00249813 0 0.00125071 0 0)
(0.00852519 -0.00169569 0 0.00124001 0 0)
(0.00522551 0.000153225 0 0.00104947 0 0)
(0.00560936 0.000490029 0 0.00080228 0 0)
(0.0105796 0.00164857 0 0.000545472 0 0)
(0.0111048 0.00145981 0 0.000395249 0 0)
(0.0243143 0.00252358 0 0.000385253 0 0)
(0.0237757 0.00236736 0 0.000352463 0 0)
(0.0460321 0.00401296 0 0.000520602 0 0)
(0.0476027 0.00373749 0 0.000516717 0 0)
(0.0805658 0.00717329 0 0.00108423 0 0)
(0.0949474 0.00800358 0 0.00143283 0 0)
(0.152128 0.0176441 0 0.00312585 0 0)
(0.218252 0.0258125 0 0.00527446 0 0)
(0.364913 0.0532203 0 0.00984969 0 0)
(0.0338946 -0.00927973 0 0.00270286 0 0)
(0.0035446 -0.0029422 0 0.00304574 0 0)
(0.00470485 -0.00163746 0 0.00135408 0 0)
(0.00479393 -0.000920581 0 0.00100468 0 0)
(0.0031058 -2.25385e-05 0 0.000944732 0 0)
(0.00541435 0.0017703 0 0.000917658 0 0)
(0.0123402 0.00271672 0 0.000836339 0 0)
(0.0301935 0.00366481 0 0.000657125 0 0)
(0.0425587 0.00341069 0 0.000468828 0 0)
(0.0688548 0.00370021 0 0.000305334 0 0)
(0.0769169 0.00333724 0 0.00021313 0 0)
(0.110415 0.00397535 0 0.000209852 0 0)