/*--------------------------------*- C++ -*----------------------------------*\
| =========                 |                                                 |
| \\      /  F ield         | OpenFOAM: The Open Source CFD Toolbox           |
|  \\    /   O peration     | Version:  2.4.0                                 |
|   \\  /    A nd           | Web:      www.OpenFOAM.org                      |
|    \\/     M anipulation  |                                                 |
\*---------------------------------------------------------------------------*/
FoamFile
{
    version     2.0;
    format      ascii;
    class       volScalarField;
    location    "0.183";
    object      nuSgs;
}
// * * * * * * * * * * * * * * * * * * * * * * * * * * * * * * * * * * * * * //

dimensions      [0 2 -1 0 0 0 0];

internalField   nonuniform List<scalar> 
4400
(
0.00205249
0.00193636
0.00169827
0.00152735
0.0014348
0.0013639
0.00133394
0.00130135
0.0012923
0.0012504
0.001396
0.00172764
0.00172673
0.00166596
0.0015917
0.00151684
0.00148195
0.00144387
0.00142999
0.00139605
0.000720775
0.00117914
0.00136781
0.00141318
0.00140755
0.00137465
0.00135047
0.00132129
0.00131188
0.00128035
0.000269658
0.000641207
0.000873089
0.00100742
0.00109007
0.00111244
0.00112234
0.00112058
0.00112155
0.00110566
8.7571e-05
0.000256474
0.000429876
0.000569182
0.000694086
0.000771225
0.000816224
0.000850817
0.000877567
0.000875272
2.55635e-05
8.60381e-05
0.000151937
0.000238699
0.000325965
0.000424313
0.000477336
0.0005313
0.000582533
0.000606064
7.81781e-06
2.5581e-05
4.37905e-05
7.21238e-05
0.000107667
0.000169913
0.000203349
0.000244436
0.000296402
0.000337734
4.25577e-06
1.02774e-05
1.33784e-05
1.90071e-05
2.72153e-05
4.81889e-05
5.97476e-05
7.75334e-05
0.000103956
0.000130196
3.85419e-06
8.2013e-06
9.08932e-06
9.53571e-06
1.01453e-05
1.37413e-05
1.57315e-05
1.98608e-05
2.48577e-05
3.24322e-05
3.78925e-06
8.13358e-06
9.25815e-06
9.12576e-06
8.99099e-06
9.26642e-06
9.79447e-06
1.02967e-05
1.079e-05
1.22922e-05
3.80941e-06
7.70064e-06
8.61834e-06
9.205e-06
9.9774e-06
1.01363e-05
1.01078e-05
1.01679e-05
1.05159e-05
1.39947e-05
3.86736e-06
7.29605e-06
9.80718e-06
1.06596e-05
1.16093e-05
1.26975e-05
1.51369e-05
1.98558e-05
2.67518e-05
4.94565e-05
4.20331e-06
1.05029e-05
1.46904e-05
1.97769e-05
2.85922e-05
4.29192e-05
5.90774e-05
8.59673e-05
0.000107876
0.000171288
7.76704e-06
2.60797e-05
4.60599e-05
7.1762e-05
0.000109157
0.000163758
0.00020242
0.000265464
0.000301169
0.000401038
2.54291e-05
8.68856e-05
0.000161177
0.000232419
0.000332645
0.000416485
0.000482135
0.000549333
0.000586504
0.000677644
8.71607e-05
0.000258385
0.000435432
0.000567083
0.000695896
0.00076688
0.000823181
0.000860787
0.000884018
0.000933189
0.000268503
0.000645879
0.000871849
0.00100768
0.00108956
0.00111127
0.00112737
0.00112548
0.0011287
0.00113566
0.000717883
0.00118309
0.00136541
0.0014143
0.00140662
0.00137373
0.00135314
0.001318
0.00130981
0.00128968
0.00139489
0.00172999
0.00172486
0.00166752
0.00158754
0.0015161
0.00148071
0.00142904
0.00141422
0.00136536
0.00205184
0.00193829
0.0016947
0.00152975
0.00143019
0.00136114
0.00132697
0.00127499
0.00125469
0.00117629
0.000533507
0.000464638
0.000425587
0.000420025
0.00040823
0.000396077
0.00035516
0.000312914
0.000281136
0.000234718
0.000226553
0.000239452
0.000244892
0.000261331
0.000276418
0.000286281
0.000293974
0.000286039
0.000269751
0.000226361
0.000166148
0.000148782
0.00014808
0.000151138
0.000186234
0.000250728
0.000250834
0.000237965
0.000217591
0.000198825
0.000186007
0.000180887
0.000175824
0.000155602
0.000141613
0.000163971
0.000219658
0.000220168
0.000189696
0.000162717
0.000165146
0.000172059
0.000171439
0.000161509
0.00014413
0.000140044
0.000148197
0.000178376
0.000190271
0.00019097
0.000186177
0.000164782
0.000144909
0.00013456
0.000132644
0.000130107
0.000126093
0.000121376
0.000113743
9.82765e-05
8.47712e-05
8.28235e-05
8.6767e-05
0.000109691
0.000118284
0.000128812
0.000132822
0.000135671
0.00013276
0.000122304
0.000122458
0.000121649
0.000122161
0.00012099
0.00010971
0.000102153
9.84498e-05
9.58429e-05
9.56077e-05
9.70819e-05
0.000103746
0.000130657
0.000190378
0.000199055
0.000198984
0.000199599
0.000198832
0.000190405
0.000166198
0.000142214
0.000129288
0.000127597
0.000145434
0.000169135
0.000167298
0.000145189
0.000116471
0.000114673
0.000143609
0.000229516
0.000661439
0.000580453
0.000509826
0.000479353
0.000444427
0.000437881
0.000416325
0.000392484
0.000379407
0.000345999
0.00032764
0.000326703
0.000320112
0.000319112
0.000312234
0.000305713
0.000298462
0.000279057
0.000235794
0.00017987
0.000124682
0.000105101
0.000102955
0.000104396
0.000122353
0.000181744
0.000220172
0.000222402
0.000217269
0.000204032
0.000190269
0.0001834
0.000173291
0.000138036
0.000133601
0.000179612
0.000225712
0.000219163
0.000184441
0.000171524
0.000180792
0.00018766
0.000181577
0.000171112
0.000150939
0.000141693
0.000143394
0.000164684
0.000182722
0.000187977
0.000186554
0.000173257
0.000149281
0.000136335
0.000132955
0.000130339
0.000127238
0.00011995
0.000110965
9.68306e-05
8.31256e-05
7.92607e-05
8.06474e-05
9.75089e-05
0.000109621
0.000120886
0.00012562
0.000129539
0.000128494
0.000123408
0.000125036
0.000124023
0.000122478
0.000116267
0.000100268
9.523e-05
9.38348e-05
9.38538e-05
9.45975e-05
9.6911e-05
0.000107887
0.000147407
0.000201146
0.000201017
0.000194927
0.000194316
0.000195453
0.000191674
0.000170491
0.000143151
0.00012864
0.00012561
0.000139362
0.000160806
0.000163877
0.00015249
0.000121456
0.00011374
0.000142559
0.000211876
0.00062886
0.000573116
0.000519163
0.00048866
0.000450604
0.000441205
0.000420613
0.00040172
0.00039424
0.000376572
0.000365798
0.000345335
0.000336653
0.000325071
0.000306467
0.000296583
0.00027241
0.000227156
0.000165453
0.00011457
8.59733e-05
7.5424e-05
7.53687e-05
7.55342e-05
8.3122e-05
0.000107574
0.000157445
0.000189906
0.00019224
0.000189812
0.000182525
0.000174416
0.000149985
0.00011868
0.000128226
0.000199152
0.000230472
0.000214086
0.000182757
0.000181307
0.000198891
0.000192511
0.000182103
0.000171331
0.000157898
0.000145399
0.000144232
0.000159008
0.00017856
0.000184146
0.000185417
0.000179979
0.000159282
0.000140142
0.00013594
0.000134459
0.000129823
0.000117076
0.000108591
9.62813e-05
8.2243e-05
7.67776e-05
7.68154e-05
8.57955e-05
9.94555e-05
0.000112137
0.000118491
0.000123878
0.000123882
0.000122341
0.00012401
0.000122609
0.000116413
0.000102914
9.66174e-05
9.35438e-05
9.36402e-05
9.37312e-05
9.5554e-05
0.000100844
0.000116603
0.000170078
0.000204483
0.000202935
0.000192514
0.000189407
0.000188627
0.000186981
0.000168397
0.000142152
0.000126203
0.000122835
0.000133183
0.000155405
0.000159271
0.000155065
0.000128595
0.000114147
0.000136033
0.000183939
0.000559574
0.000510253
0.000470918
0.000447493
0.000413782
0.000406633
0.000389795
0.000378751
0.000364461
0.000352855
0.000345534
0.000321538
0.000309699
0.000286334
0.000260407
0.000242168
0.000193042
0.00014123
0.000100114
7.20225e-05
6.09383e-05
5.91326e-05
6.03055e-05
6.2e-05
6.56381e-05
7.42793e-05
9.42176e-05
0.000131657
0.000151013
0.000152018
0.000148899
0.000140255
0.000109543
0.000100272
0.000132454
0.000218739
0.000232664
0.000208237
0.000185538
0.00018834
0.000206327
0.000193833
0.000180812
0.000168741
0.000164733
0.000151508
0.000146481
0.000158149
0.000178015
0.000183407
0.000184774
0.000182692
0.000168244
0.000150731
0.00014565
0.000139032
0.000130407
0.000114974
0.000107038
9.59633e-05
8.17874e-05
7.50004e-05
7.41334e-05
7.75217e-05
8.92745e-05
0.000102621
0.000111235
0.000115921
0.00011794
0.000119999
0.000120444
0.000117744
0.00010646
9.8333e-05
9.57372e-05
9.34079e-05
9.34555e-05
9.36456e-05
9.61026e-05
0.000103741
0.000125022
0.000186931
0.000205176
0.00020407
0.000193103
0.00018962
0.000181877
0.000175111
0.000158918
0.000137755
0.00012313
0.000120655
0.000129734
0.000152972
0.000158523
0.000155102
0.000135326
0.000115726
0.000127722
0.000167224
0.000454469
0.000420512
0.000392636
0.000373229
0.000342589
0.0003372
0.000326092
0.000321148
0.000307843
0.000299117
0.000290925
0.000268432
0.000255299
0.000226262
0.000193443
0.000154124
0.000113784
8.22156e-05
6.00907e-05
4.90694e-05
4.89984e-05
5.32944e-05
5.60226e-05
5.87449e-05
6.36121e-05
6.40364e-05
6.84415e-05
7.85012e-05
9.9933e-05
0.000105299
0.00010322
9.63961e-05
8.36152e-05
9.1696e-05
0.000158188
0.000230827
0.000232926
0.000200427
0.000185876
0.000196881
0.000210067
0.000197716
0.000180039
0.000166302
0.000165993
0.000157719
0.00014668
0.000153227
0.000173564
0.000182977
0.000184302
0.000183101
0.000170913
0.00015863
0.000152168
0.000141544
0.00013055
0.000114253
0.000106404
9.56025e-05
8.16217e-05
7.36535e-05
7.25211e-05
7.34944e-05
7.9286e-05
9.3281e-05
0.000104363
0.000107862
0.000109805
0.000115777
0.000115288
0.000111477
0.000102048
9.70001e-05
9.54296e-05
9.41786e-05
9.37304e-05
9.38046e-05
9.60792e-05
0.000104022
0.000131144
0.000191878
0.000205514
0.000207317
0.00019827
0.000191979
0.000181474
0.00016124
0.000145029
0.00012909
0.000118294
0.000117235
0.000125403
0.000149927
0.000157142
0.000154823
0.000143104
0.000118001
0.000123842
0.000155004
0.000319263
0.000294821
0.00027663
0.000263851
0.000239542
0.00023496
0.000233557
0.000231091
0.00022255
0.000218363
0.000208921
0.000194514
0.000172681
0.000140834
0.000110532
8.33482e-05
6.15527e-05
4.67244e-05
4.02322e-05
4.13001e-05
4.51113e-05
5.68024e-05
5.96773e-05
6.52314e-05
6.54749e-05
6.07095e-05
5.94272e-05
6.04362e-05
6.76557e-05
7.25646e-05
7.31178e-05
7.07268e-05
7.2144e-05
9.54547e-05
0.000188026
0.000237113
0.000231129
0.000192587
0.000185857
0.000203274
0.000213663
0.000210543
0.000180356
0.000166247
0.000165673
0.000161844
0.000146216
0.000148442
0.000164953
0.000180804
0.000182648
0.000182466
0.000171834
0.000162274
0.000155554
0.000144775
0.000131524
0.000114541
0.000105307
9.47701e-05
8.1376e-05
7.27042e-05
7.1438e-05
7.17533e-05
7.37476e-05
8.43695e-05
9.64869e-05
9.89937e-05
0.000101141
0.000110708
0.00010945
0.000107601
0.000100625
9.57433e-05
9.54158e-05
9.51206e-05
9.46411e-05
9.47882e-05
9.64603e-05
0.000104243
0.000149361
0.000185852
0.000210638
0.000216162
0.00021134
0.000198079
0.000183463
0.000155834
0.000136563
0.000120834
0.000114181
0.000113768
0.000121032
0.000144655
0.000149645
0.000150116
0.000143378
0.000122357
0.000125639
0.000147739
0.00017749
0.000160854
0.000148593
0.000142725
0.000129787
0.000128811
0.000130925
0.000130815
0.000129344
0.000125346
0.000118813
0.000106308
8.82165e-05
7.09924e-05
5.36607e-05
4.10434e-05
3.39434e-05
3.38784e-05
3.57316e-05
4.12821e-05
5.60075e-05
7.52478e-05
8.02365e-05
8.06548e-05
7.69222e-05
6.60779e-05
5.7499e-05
5.64688e-05
5.6668e-05
5.68895e-05
5.80814e-05
5.98356e-05
6.84637e-05
0.000116746
0.000216339
0.000240479
0.000224953
0.00018573
0.00018648
0.000209126
0.000224435
0.000223331
0.000184063
0.000168842
0.000165688
0.000167273
0.000149195
0.000146993
0.000156405
0.000176751
0.000178507
0.0001794
0.000171272
0.000162335
0.000156131
0.00014496
0.000131273
0.000113433
0.000102983
9.30905e-05
8.09485e-05
7.25912e-05
7.13717e-05
7.14795e-05
7.14187e-05
7.75817e-05
8.70395e-05
9.01802e-05
9.43412e-05
0.000106973
0.000105167
0.000103104
9.75966e-05
9.44883e-05
9.53049e-05
9.6159e-05
9.58255e-05
9.66513e-05
9.82575e-05
0.000106796
0.000161306
0.000181631
0.000227111
0.000231842
0.000229399
0.000207936
0.000189389
0.000148547
0.000123631
0.000112067
0.000110146
0.000111427
0.000119428
0.00014226
0.000145971
0.000145316
0.000142307
0.000126685
0.000126613
0.00014334
6.8546e-05
6.29249e-05
5.82449e-05
5.67569e-05
5.3301e-05
5.35404e-05
5.58224e-05
5.59196e-05
5.55489e-05
5.35204e-05
5.03321e-05
4.36821e-05
3.61421e-05
3.00192e-05
2.595e-05
2.62722e-05
2.78358e-05
3.32809e-05
4.43003e-05
6.12859e-05
9.15558e-05
0.000107779
0.000107868
0.000104514
9.55428e-05
7.80154e-05
6.47592e-05
5.99995e-05
5.45816e-05
5.34974e-05
5.4259e-05
5.84723e-05
8.04321e-05
0.000160293
0.000232935
0.000241197
0.000214952
0.000178905
0.00018821
0.000218775
0.000239731
0.000236701
0.000194297
0.000175456
0.000169772
0.000174646
0.000157442
0.000146843
0.000149696
0.000171708
0.000175708
0.000176443
0.000171048
0.000160705
0.00015483
0.000142748
0.000128756
0.000109923
0.000100065
9.14478e-05
8.15697e-05
7.36053e-05
7.18314e-05
7.19093e-05
7.08649e-05
7.34269e-05
7.81431e-05
8.2892e-05
8.95081e-05
0.000101732
0.00010082
9.71897e-05
9.45882e-05
9.41988e-05
9.7403e-05
9.95897e-05
9.93009e-05
0.000100992
0.000102191
0.000113273
0.00016561
0.000193296
0.000244596
0.00024471
0.000235342
0.000216057
0.000199346
0.000145079
0.000115591
0.000105484
0.000104892
0.000107175
0.000118867
0.000142774
0.000146873
0.000145988
0.000142156
0.000127152
0.000124411
0.000142134
1.78612e-05
1.75043e-05
1.6347e-05
1.57498e-05
1.53715e-05
1.55171e-05
1.61666e-05
1.62302e-05
1.61032e-05
1.58789e-05
1.60901e-05
1.66096e-05
1.81581e-05
2.001e-05
2.33484e-05
2.88558e-05
3.7584e-05
5.73518e-05
7.71868e-05
0.000105581
0.00013803
0.000145387
0.000143382
0.000137094
0.000120981
9.83354e-05
8.27772e-05
6.87215e-05
6.09373e-05
6.0969e-05
6.35617e-05
7.40383e-05
0.00011056
0.000202694
0.000241103
0.0002385
0.000197646
0.000174039
0.00019014
0.000230121
0.000257859
0.000262718
0.000209896
0.000181782
0.000175194
0.000176855
0.00017041
0.00014701
0.000145543
0.000162072
0.000173478
0.000174655
0.000173315
0.000160743
0.000151752
0.00014126
0.000126758
0.00010943
9.93319e-05
9.15335e-05
8.38454e-05
7.72546e-05
7.40473e-05
7.29357e-05
7.12845e-05
7.29675e-05
7.53972e-05
7.75246e-05
8.30721e-05
9.44203e-05
9.49714e-05
9.40731e-05
9.4002e-05
9.53807e-05
0.000103939
0.000107256
0.00010626
0.000108232
0.000108465
0.000122512
0.000167513
0.000210927
0.000249886
0.000248882
0.000234145
0.000217423
0.000208706
0.000144481
0.000111814
0.000100941
0.000101975
0.000104356
0.000116644
0.000146869
0.000148991
0.000147951
0.000141589
0.000126227
0.000123034
0.000144395
6.89864e-06
7.20946e-06
7.81153e-06
7.95331e-06
7.92338e-06
7.74275e-06
7.74567e-06
8.02508e-06
8.96536e-06
1.14226e-05
1.57804e-05
2.01138e-05
2.85034e-05
3.52237e-05
4.3992e-05
5.46028e-05
7.08037e-05
0.000102887
0.000127693
0.000164715
0.000189222
0.00018964
0.000185013
0.000172789
0.000145337
0.000123222
0.000105882
8.52423e-05
7.90954e-05
8.03203e-05
8.47232e-05
0.000100043
0.000157399
0.000232008
0.000244216
0.000228726
0.000179716
0.000171143
0.000190248
0.000242216
0.000283064
0.000295013
0.000236373
0.000188211
0.000177539
0.00017758
0.000176906
0.00015193
0.000144833
0.000152282
0.000167316
0.000171264
0.000173982
0.000161439
0.000151189
0.000141988
0.00012635
0.000113287
9.92144e-05
9.45205e-05
8.76801e-05
8.40195e-05
7.97667e-05
7.52619e-05
7.2551e-05
7.42897e-05
7.62524e-05
7.68149e-05
7.88381e-05
8.6592e-05
9.25352e-05
9.32912e-05
9.498e-05
9.98778e-05
0.000113721
0.000116266
0.000115198
0.000116216
0.000118074
0.000137349
0.00017334
0.000212948
0.000247891
0.000247793
0.000226853
0.000221319
0.000220739
0.000153373
0.000113801
9.98725e-05
0.0001026
0.000104342
0.000114384
0.000148356
0.000149358
0.000147015
0.000137261
0.000125354
0.000123483
0.000145749
1.07475e-05
1.3663e-05
1.50235e-05
1.55655e-05
1.53882e-05
1.53279e-05
1.58304e-05
1.78491e-05
2.23442e-05
3.13914e-05
4.20002e-05
4.92308e-05
6.19941e-05
7.25824e-05
8.36741e-05
9.9461e-05
0.000124923
0.000164144
0.000195317
0.000228623
0.000241284
0.000238347
0.000228781
0.000206754
0.000173501
0.000151105
0.000128864
0.000109367
0.000107224
0.00010848
0.000113666
0.000134656
0.000209594
0.000245547
0.000242503
0.000205464
0.000167835
0.00016897
0.000190357
0.000255501
0.000311191
0.000332763
0.000286593
0.000205857
0.000182847
0.000178995
0.000180703
0.000160725
0.000146417
0.000148245
0.000156811
0.000160859
0.000170474
0.000159868
0.000150316
0.000140513
0.000125527
0.00011418
9.78394e-05
9.60893e-05
9.00127e-05
8.78952e-05
8.60209e-05
8.18618e-05
7.61805e-05
7.77727e-05
7.85499e-05
7.78186e-05
7.84447e-05
8.27618e-05
9.19296e-05
9.4004e-05
9.78029e-05
0.000108725
0.000124607
0.000125124
0.000125032
0.00012583
0.000129345
0.000145254
0.000185426
0.000198645
0.000243565
0.000241144
0.000225183
0.000250743
0.000249093
0.000161738
0.000110509
9.87343e-05
0.000102471
0.000105886
0.000115285
0.000145666
0.000149666
0.000144248
0.000133797
0.000126516
0.000123663
0.000142104
4.00021e-05
4.2485e-05
4.341e-05
4.42137e-05
4.34004e-05
4.36662e-05
4.59521e-05
5.21874e-05
6.32487e-05
7.84164e-05
9.15529e-05
0.000101537
0.000115419
0.000127819
0.000141011
0.000164332
0.000199279
0.000235336
0.000268055
0.000289085
0.000291374
0.000284964
0.0002696
0.000242443
0.000211725
0.000188912
0.000160467
0.000143813
0.000141797
0.000141849
0.000147544
0.00018375
0.000247096
0.000250559
0.000225141
0.000178489
0.000159168
0.000165446
0.000195687
0.000258849
0.000327402
0.000377862
0.000353799
0.000242447
0.000192559
0.000183386
0.000186686
0.000174225
0.000153612
0.000149546
0.000153627
0.000151453
0.000156463
0.000150778
0.000144639
0.000132129
0.000120116
0.000110964
9.61657e-05
9.4909e-05
9.23038e-05
9.15672e-05
9.01317e-05
8.64793e-05
8.03356e-05
8.16295e-05
8.19711e-05
8.01919e-05
7.98951e-05
8.35088e-05
9.22599e-05
9.58117e-05
0.000101764
0.000121542
0.000135381
0.000135659
0.000136912
0.000139851
0.000143257
0.000156176
0.000191864
0.000195979
0.000243564
0.000233787
0.000230871
0.000270946
0.000258102
0.000181753
0.000106846
9.71859e-05
0.000101647
0.000112263
0.000121503
0.000143771
0.000150437
0.000142764
0.000135857
0.000132307
0.000124915
0.000133782
0.000109629
0.000110214
0.000110161
0.000110615
0.000109339
0.000110218
0.000114988
0.000124677
0.000137557
0.000152524
0.000163911
0.000173697
0.000185092
0.000195665
0.000212182
0.000244221
0.000274973
0.000307339
0.000327578
0.000330449
0.000324868
0.000311037
0.000295246
0.000269401
0.000245605
0.000220041
0.000192788
0.000183666
0.00018001
0.000179769
0.000188875
0.000239843
0.000260698
0.000243431
0.000190993
0.00015856
0.000152033
0.000166047
0.000202608
0.000255599
0.000327135
0.000402624
0.000427392
0.000308887
0.000213995
0.000189664
0.000189688
0.000187153
0.000171662
0.000160175
0.000158035
0.000150825
0.000150867
0.000144504
0.000138994
0.000127663
0.000118038
0.000108312
9.64993e-05
9.52627e-05
9.72118e-05
9.87632e-05
9.87284e-05
9.56574e-05
8.66517e-05
8.78586e-05
8.81151e-05
8.48254e-05
8.33821e-05
8.72724e-05
9.26017e-05
9.81495e-05
0.000109444
0.00013935
0.000147465
0.00014878
0.000156168
0.000159613
0.000158126
0.000164586
0.000187581
0.000192977
0.000240056
0.000236057
0.000245208
0.000243332
0.000247484
0.000183385
0.000118774
9.70337e-05
0.000101285
0.000139309
0.00015041
0.000147189
0.000154252
0.000144052
0.000138064
0.000138945
0.000130794
0.000132934
0.000223059
0.00022105
0.000217702
0.000215965
0.000210726
0.000211271
0.000215435
0.000221881
0.000229952
0.000238326
0.000243332
0.000247601
0.000254441
0.000266877
0.000287488
0.000314756
0.000338148
0.000350707
0.000351098
0.000345903
0.000332198
0.000317704
0.000300241
0.000282776
0.00026833
0.000245953
0.000229066
0.000222065
0.000215384
0.000216166
0.000237618
0.000270563
0.000263118
0.000208542
0.000160305
0.000144105
0.000146377
0.000173003
0.000213748
0.000250535
0.000308312
0.000406527
0.000476058
0.000416138
0.000265254
0.000201793
0.000192868
0.000195826
0.00018866
0.000182084
0.000177234
0.000159821
0.000155121
0.000145501
0.00014152
0.000129236
0.000121209
0.000111856
0.000102029
0.000101525
0.000107505
0.000114964
0.000114114
0.000105358
9.69131e-05
9.73142e-05
9.54262e-05
8.91646e-05
8.77578e-05
9.16419e-05
9.61325e-05
0.000104636
0.000129812
0.000155928
0.000160552
0.000167256
0.000184633
0.000183549
0.000171239
0.000174501
0.000177047
0.000186079
0.00023883
0.000249961
0.000251734
0.00022099
0.000233483
0.00015929
0.000157904
0.000101988
0.00010624
0.000154216
0.000166619
0.000155804
0.00015819
0.000149643
0.000139568
0.000143789
0.000137686
0.000134572
0.000363263
0.000350264
0.000337653
0.000329045
0.000315226
0.00031229
0.000312735
0.000312523
0.000312231
0.000309212
0.000306967
0.000308068
0.000313533
0.000327763
0.000345929
0.000358113
0.000363974
0.000363178
0.000358372
0.000346535
0.000331352
0.000315808
0.000301976
0.000292594
0.000279938
0.000262999
0.00025447
0.00024755
0.000244753
0.00025169
0.000278341
0.000276793
0.000236903
0.000164339
0.000135984
0.000133387
0.000143746
0.00017886
0.000220638
0.000247053
0.000283122
0.000378701
0.000491439
0.000522676
0.000364587
0.000234122
0.000199401
0.000200624
0.000201272
0.00019772
0.000195941
0.000190687
0.000179263
0.000157939
0.000158197
0.00014068
0.000141968
0.000126777
0.000119418
0.000122989
0.00013171
0.000134948
0.000129719
0.000113796
0.000109606
0.000109865
0.000105734
9.86591e-05
9.7209e-05
9.9556e-05
0.00010628
0.000120357
0.000159313
0.000174146
0.000185369
0.000208301
0.000223405
0.000211854
0.000184755
0.000177797
0.000172678
0.000180371
0.000248168
0.000249908
0.000256082
0.000229663
0.000202841
0.000168089
0.000184301
0.000119295
0.000125135
0.000152554
0.000170638
0.000159738
0.000161427
0.000157105
0.000143528
0.000146033
0.000142301
0.000135717
0.000488519
0.000458895
0.000437073
0.000417893
0.000398058
0.000389467
0.000380418
0.000368512
0.000358454
0.000351088
0.000350153
0.000352434
0.000360612
0.000367203
0.000371323
0.000371493
0.000370184
0.000364207
0.000349009
0.000333802
0.000319806
0.000309494
0.000301963
0.000293299
0.000283231
0.000277249
0.000275993
0.000275175
0.000278823
0.000285252
0.000282376
0.00025596
0.000176854
0.000130772
0.000121643
0.000125131
0.00014192
0.000175791
0.000214117
0.000240874
0.000259826
0.0003117
0.000475705
0.000560664
0.000522001
0.000323305
0.000223394
0.000204788
0.000211574
0.000213781
0.000215037
0.000215207
0.000210071
0.000200543
0.00020059
0.000173279
0.000177343
0.000152
0.000151702
0.000151881
0.000151869
0.000146242
0.000130408
0.000120474
0.000120892
0.000122342
0.000119383
0.000113012
0.000112318
0.00011532
0.000126014
0.000152216
0.000198899
0.000217124
0.000251884
0.000264073
0.000253198
0.00021912
0.000188257
0.000175273
0.000169392
0.000178505
0.000251948
0.000238953
0.000283901
0.000255495
0.000210791
0.000218853
0.000217978
0.000146876
0.000182723
0.000146308
0.000173496
0.000164463
0.000160449
0.000160555
0.000152972
0.000152839
0.000150868
0.000140756
0.00058291
0.000537294
0.000501982
0.00046811
0.000442772
0.000425453
0.000408913
0.000395543
0.00038785
0.000383656
0.000382056
0.000382244
0.00038174
0.000379731
0.000376678
0.000370191
0.000355498
0.000333543
0.000316274
0.000306361
0.000301231
0.000299835
0.000298433
0.000294715
0.000293618
0.000294759
0.000294606
0.0002929
0.00028843
0.000278016
0.000247699
0.000184161
0.000138012
0.000121854
0.000120929
0.000125429
0.000144062
0.000168281
0.000182396
0.000206498
0.000217579
0.00024124
0.000362504
0.000564455
0.000614739
0.000502947
0.000307136
0.000226968
0.000211957
0.000220136
0.000223859
0.000224644
0.000221427
0.000222644
0.000212181
0.000194711
0.000204209
0.000175753
0.00017417
0.000171105
0.000160643
0.000147055
0.00013273
0.000129435
0.000130069
0.000130084
0.000126749
0.000125383
0.000128524
0.00013918
0.000174327
0.000221026
0.000279707
0.000313206
0.000312965
0.000288998
0.000243215
0.000194389
0.000176271
0.000167629
0.00016326
0.000181329
0.000250595
0.000238865
0.000300247
0.000294916
0.000220482
0.000209286
0.000190418
0.000189304
0.00024015
0.000148712
0.00017839
0.000174189
0.000164595
0.000169782
0.000168611
0.000164776
0.00016158
0.000150781
0.000637819
0.000569335
0.000519675
0.000479779
0.000455415
0.000437625
0.000423611
0.000414616
0.000407415
0.000400759
0.000395693
0.000390447
0.000383227
0.000370502
0.000351508
0.000325799
0.000298235
0.000279958
0.000271805
0.000269532
0.000273136
0.000279889
0.000284843
0.000285918
0.00028695
0.000285691
0.000279132
0.000264906
0.000238945
0.000209414
0.000174677
0.000150472
0.000140271
0.00013386
0.000131938
0.000134958
0.000148391
0.000163759
0.00017436
0.000180159
0.000188725
0.000204545
0.000253806
0.000430495
0.000633844
0.000653883
0.000527167
0.000349844
0.000257492
0.000225459
0.000220039
0.000224639
0.000224143
0.000222411
0.000207015
0.000197975
0.000206126
0.00018992
0.00018788
0.000175141
0.000158216
0.000145338
0.000137193
0.000139645
0.000142392
0.000144795
0.000147079
0.000156757
0.000178749
0.000229387
0.000309198
0.000378355
0.00038112
0.000368757
0.000326961
0.000252743
0.000208575
0.000176217
0.000162074
0.000165963
0.000170275
0.000201866
0.000255587
0.000251378
0.000303644
0.00033462
0.000237923
0.000207454
0.000196439
0.000199421
0.000215931
0.00019116
0.00020397
0.000196816
0.000186939
0.000186744
0.00018509
0.000180505
0.000183683
0.000187795
0.000638939
0.000556301
0.000504692
0.000474335
0.000457634
0.000443346
0.00043192
0.000422063
0.000411372
0.000399303
0.000384169
0.000364578
0.000338975
0.000308133
0.000274508
0.000242682
0.000219524
0.000209319
0.000209653
0.000216416
0.000220962
0.000224314
0.000226762
0.000228997
0.00022726
0.00021714
0.000199635
0.000181831
0.000170924
0.000169682
0.000170928
0.000173328
0.000186331
0.000187427
0.000184812
0.000191644
0.000214733
0.00026309
0.000312382
0.000320441
0.000317726
0.000306572
0.00026488
0.000280678
0.000464318
0.000678318
0.00069716
0.000687804
0.000543858
0.000449014
0.000380657
0.000332007
0.000280594
0.000240508
0.000210929
0.000200144
0.000199734
0.00020269
0.000181276
0.000172237
0.000162351
0.000162633
0.000167905
0.000192818
0.000218421
0.000248239
0.000275211
0.000335057
0.000414627
0.000486443
0.000487226
0.000474155
0.000410191
0.000352659
0.00026091
0.000247986
0.000220755
0.000216815
0.000197164
0.000215452
0.000273508
0.000280776
0.000269249
0.000259044
0.000294523
0.000384055
0.000327836
0.000291698
0.000288843
0.000216651
0.000222292
0.000259825
0.000236401
0.000237581
0.000241454
0.000251534
0.000281109
0.000312273
0.000367482
0.000428999
0.00051408
0.000459195
0.000433015
0.000418355
0.000405771
0.000390468
0.000372459
0.000352372
0.000330239
0.000304435
0.000274183
0.000238526
0.000197693
0.000155659
0.000122864
0.000109412
0.000119459
0.000147895
0.000183259
0.000215928
0.000234373
0.000240713
0.00022914
0.000207119
0.000181484
0.000161368
0.000150296
0.000153114
0.00017149
0.000203818
0.000267025
0.000326078
0.000380244
0.000399206
0.00042382
0.00048563
0.000607987
0.000680653
0.000686227
0.000666657
0.000628141
0.000570007
0.00050342
0.000424089
0.0003335
0.000272302
0.000516439
0.000785495
0.000891924
0.000922226
0.000910226
0.000863622
0.000773774
0.000627305
0.000458521
0.000348249
0.000311536
0.000190479
0.000174614
0.000171244
0.000191982
0.000239815
0.000291464
0.000373197
0.00043432
0.000512188
0.000572238
0.000623581
0.000625437
0.000610924
0.000526139
0.00045398
0.000324417
0.000306698
0.000225651
0.000259765
0.000212555
0.000270419
0.00029176
0.000391014
0.000408659
0.0003895
0.000326448
0.000301029
0.00027047
0.000376329
0.00044963
0.000442765
0.000527589
0.00028603
0.000258407
0.000241442
0.000255845
0.000320364
0.000415637
0.000572645
0.000663669
0.000823813
0.000901396
0.00103624
7.35027e-05
8.37276e-05
0.000111485
0.000199311
0.000172688
0.000128351
0.000163568
0.000184577
0.000157657
0.000150888
0.000154667
0.000139935
0.000153561
0.000207255
0.000206143
0.00027879
0.000262499
0.000191848
0.000196291
0.000193881
0.00020958
0.0002529
0.000324245
0.000378478
0.000383561
0.00039247
0.00039325
0.000336446
0.000353658
0.000558958
0.000686148
0.000735947
0.0007403
0.000645576
0.000483145
0.00037724
0.000271953
0.000253456
0.000259945
0.000298407
0.000379691
0.000489901
0.000589291
0.000659142
0.000675854
0.000661108
0.000614817
0.00052886
0.000426316
0.000316297
0.000216087
0.000144651
0.000113721
0.000110253
0.000115229
0.00011821
0.000113905
0.000106048
0.00010091
0.000103639
0.000121063
0.00015557
0.000217434
0.000270929
0.00028255
0.000260836
0.000202009
0.000176027
0.000213118
0.000288748
0.000350867
0.000371159
0.000350775
0.000347685
0.000299077
0.000262924
0.000220614
0.000199793
0.000196736
0.000209787
0.000238582
0.000291981
0.00035643
0.000431207
0.000480012
0.000486518
0.000452741
0.000391333
0.000343615
0.000318103
0.000311464
0.000314191
0.000322786
0.000326439
0.000316653
0.00026595
0.000182925
0.000115585
7.98637e-05
4.79465e-05
9.34809e-05
9.62691e-05
0.000109753
0.000131287
0.000177107
0.00016012
0.000141286
0.000130968
0.000118494
0.000139305
0.000153455
0.00016371
0.000192176
0.00021939
0.000192567
0.000226511
0.000280045
0.000279629
0.000265725
0.000250722
0.000248061
0.000238346
0.000228822
0.000245109
0.000281502
0.000272955
0.000293233
0.000449224
0.0005183
0.000522666
0.000466822
0.000404544
0.000339305
0.00029156
0.000280731
0.00029384
0.000298668
0.000311841
0.000311169
0.000313896
0.000313752
0.000316692
0.000324267
0.000340194
0.000369168
0.000398354
0.000421065
0.000420017
0.000405105
0.000366276
0.000333819
0.00030558
0.000260066
0.00021392
0.000183841
0.000163356
0.000143804
0.000128618
0.000112757
0.000103894
0.000104217
0.000107651
0.000117488
0.000135989
0.000164116
0.000179775
0.000177605
0.000174716
0.000192484
0.000211825
0.000209866
0.000187631
0.000160292
0.000169673
0.000153469
0.000157367
0.000162875
0.000163961
0.000167896
0.000175165
0.000185163
0.000202037
0.000219099
0.000247734
0.000300913
0.000353339
0.000363872
0.000345664
0.000289477
0.000246979
0.000223532
0.000209295
0.000196959
0.000189159
0.000184462
0.000175843
0.000138073
8.78554e-05
6.44063e-05
5.27935e-05
9.95914e-05
0.000104013
0.000110515
0.00010826
0.000164098
0.000168419
0.000114848
0.000105918
0.000121802
0.00015021
0.000175291
0.000206418
0.000219085
0.000262636
0.000209091
0.000291468
0.00025756
0.00024535
0.000231368
0.000225263
0.000212961
0.00019332
0.000179174
0.000181189
0.000185543
0.000202511
0.000352452
0.000491153
0.000455222
0.00034258
0.000284328
0.000258877
0.000250328
0.000258625
0.000277849
0.000291917
0.000294712
0.000313689
0.000304979
0.000304579
0.000304604
0.000304385
0.000302199
0.000300923
0.000300594
0.000296494
0.000297304
0.000299899
0.000311731
0.000323183
0.000320262
0.000310532
0.00029442
0.000274992
0.000240279
0.000206122
0.000170778