/*--------------------------------*- C++ -*----------------------------------*\
| =========                 |                                                 |
| \\      /  F ield         | OpenFOAM: The Open Source CFD Toolbox           |
|  \\    /   O peration     | Version:  2.4.0                                 |
|   \\  /    A nd           | Web:      www.OpenFOAM.org                      |
|    \\/     M anipulation  |                                                 |
\*---------------------------------------------------------------------------*/
FoamFile
{
    version     2.0;
    format      ascii;
    class       volScalarField;
    location    "0.183";
    object      pPrime2Mean;
}
// * * * * * * * * * * * * * * * * * * * * * * * * * * * * * * * * * * * * * //

dimensions      [0 4 -4 0 0 0 0];

internalField   nonuniform List<scalar> 
4400
(
3.48136e+06
3.30228e+06
3.11571e+06
2.93401e+06
2.75774e+06
2.58687e+06
2.42128e+06
2.26059e+06
2.10348e+06
1.94385e+06
3.48144e+06
3.30227e+06
3.1157e+06
2.93401e+06
2.75774e+06
2.58687e+06
2.42129e+06
2.26062e+06
2.10359e+06
1.94445e+06
3.48149e+06
3.30226e+06
3.1157e+06
2.93401e+06
2.75774e+06
2.58688e+06
2.42131e+06
2.26069e+06
2.10382e+06
1.94579e+06
3.48152e+06
3.30224e+06
3.11569e+06
2.93401e+06
2.75774e+06
2.58689e+06
2.42134e+06
2.26078e+06
2.10415e+06
1.94752e+06
3.48154e+06
3.30223e+06
3.11569e+06
2.93401e+06
2.75775e+06
2.5869e+06
2.42138e+06
2.2609e+06
2.10457e+06
1.94948e+06
3.48156e+06
3.30222e+06
3.11568e+06
2.93401e+06
2.75775e+06
2.58691e+06
2.42142e+06
2.26104e+06
2.10505e+06
1.95152e+06
3.48157e+06
3.30221e+06
3.11567e+06
2.93401e+06
2.75775e+06
2.58692e+06
2.42147e+06
2.2612e+06
2.10559e+06
1.95357e+06
3.48159e+06
3.3022e+06
3.11567e+06
2.93401e+06
2.75776e+06
2.58694e+06
2.42152e+06
2.26138e+06
2.10617e+06
1.95558e+06
3.4816e+06
3.3022e+06
3.11567e+06
2.93401e+06
2.75776e+06
2.58696e+06
2.42158e+06
2.26156e+06
2.10675e+06
1.95749e+06
3.4816e+06
3.30219e+06
3.11567e+06
2.93402e+06
2.75777e+06
2.58697e+06
2.42164e+06
2.26174e+06
2.10733e+06
1.95929e+06
3.4816e+06
3.30219e+06
3.11567e+06
2.93402e+06
2.75777e+06
2.58699e+06
2.42169e+06
2.26192e+06
2.1079e+06
1.96096e+06
3.4816e+06
3.3022e+06
3.11567e+06
2.93402e+06
2.75778e+06
2.58701e+06
2.42175e+06
2.2621e+06
2.10845e+06
1.96249e+06
3.48159e+06
3.3022e+06
3.11567e+06
2.93402e+06
2.75779e+06
2.58703e+06
2.42181e+06
2.26227e+06
2.10895e+06
1.96385e+06
3.48158e+06
3.30221e+06
3.11568e+06
2.93402e+06
2.75779e+06
2.58705e+06
2.42186e+06
2.26243e+06
2.10941e+06
1.96506e+06
3.48156e+06
3.30222e+06
3.11568e+06
2.93403e+06
2.7578e+06
2.58707e+06
2.42191e+06
2.26257e+06
2.10982e+06
1.9661e+06
3.48154e+06
3.30223e+06
3.11569e+06
2.93403e+06
2.75781e+06
2.58708e+06
2.42195e+06
2.26269e+06
2.11017e+06
1.96696e+06
3.48152e+06
3.30225e+06
3.1157e+06
2.93403e+06
2.75781e+06
2.58709e+06
2.42198e+06
2.26279e+06
2.11045e+06
1.96766e+06
3.48149e+06
3.30226e+06
3.11571e+06
2.93403e+06
2.75782e+06
2.5871e+06
2.42201e+06
2.26287e+06
2.11067e+06
1.96818e+06
3.48144e+06
3.30228e+06
3.11571e+06
2.93404e+06
2.75782e+06
2.58711e+06
2.42203e+06
2.26292e+06
2.11082e+06
1.96853e+06
3.48136e+06
3.30228e+06
3.11571e+06
2.93404e+06
2.75782e+06
2.58711e+06
2.42204e+06
2.26295e+06
2.11089e+06
1.9687e+06
1.80719e+06
1.77555e+06
1.75024e+06
1.72701e+06
1.70483e+06
1.68334e+06
1.66232e+06
1.64167e+06
1.62129e+06
1.60114e+06
1.58117e+06
1.56137e+06
1.54173e+06
1.52222e+06
1.50283e+06
1.48359e+06
1.46449e+06
1.44553e+06
1.42671e+06
1.40802e+06
1.38947e+06
1.37103e+06
1.3527e+06
1.33449e+06
1.31639e+06
1.29842e+06
1.28057e+06
1.26285e+06
1.24525e+06
1.22778e+06
1.21044e+06
1.19324e+06
1.17617e+06
1.15923e+06
1.14242e+06
1.12575e+06
1.1092e+06
1.09279e+06
1.0765e+06
1.06034e+06
1.0443e+06
1.02837e+06
1.01257e+06
996871
981286
965809
950436
935172
920015
904978
890056
875264
860603
846073
831671
817395
803247
789226
775331
761565
747924
734411
721024
707764
694632
681626
668744
655988
643355
630845
618453
606181
594030
582001
570095
558312
546648
535107
523681
512385
501196
490150
479204
468392
457673
447092
436611
426254
415989
405860
395796
385866
375983
366185
356401
346618
336729
326630
315986
303838
1.82182e+06
1.78613e+06
1.75793e+06
1.73289e+06
1.70946e+06
1.68704e+06
1.6653e+06
1.64408e+06
1.62325e+06
1.60273e+06
1.58246e+06
1.56242e+06
1.54257e+06
1.52289e+06
1.50337e+06
1.48402e+06
1.46483e+06
1.44579e+06
1.42691e+06
1.40818e+06
1.38958e+06
1.37111e+06
1.35276e+06
1.33452e+06
1.31642e+06
1.29844e+06
1.28058e+06
1.26286e+06
1.24526e+06
1.2278e+06
1.21047e+06
1.19327e+06
1.1762e+06
1.15927e+06
1.14247e+06
1.1258e+06
1.10926e+06
1.09284e+06
1.07655e+06
1.0604e+06
1.04436e+06
1.02844e+06
1.01263e+06
996935
981348
965868
950490
935222
920058
905012
890080
875280
860609
846073
831664
817386
803233
789213
775315
761550
747906
734393
721005
707744
694610
681604
668722
655968
643335
630826
618434
606161
594009
581978
570068
558278
546602
535049
523604
512290
501074
490005
479024
468173
457411
446772
436229
425792
415435
405192
394997
384901
374830
364792
354717
344560
334186
323401
311737
297693
1.83296e+06
1.79543e+06
1.76514e+06
1.73854e+06
1.71396e+06
1.69065e+06
1.66823e+06
1.64646e+06
1.62518e+06
1.60429e+06
1.58373e+06
1.56344e+06
1.5434e+06
1.52356e+06
1.50391e+06
1.48444e+06
1.46516e+06
1.44605e+06
1.42711e+06
1.40832e+06
1.38969e+06
1.37118e+06
1.35281e+06
1.33456e+06
1.31644e+06
1.29846e+06
1.2806e+06
1.26288e+06
1.24529e+06
1.22783e+06
1.2105e+06
1.19331e+06
1.17625e+06
1.15932e+06
1.14252e+06
1.12585e+06
1.10931e+06
1.09289e+06
1.0766e+06
1.06045e+06
1.04441e+06
1.02849e+06
1.01269e+06
996988
981400
965915
950534
935262
920093
905038
890095
875287
860607
846065
831650
817368
803211
789191
775291
761527
747883
734371
720981
707721
694586
681580
668699
655946
643313
630805
618412
606139
593985
581951
570035
558239
546551
534988
523522
512193
500947
489858
478840
467952
457145
446451
435845
425330
414884
404526
394209
383949
373696
363428
353079
342571
331763
320388
307956
293068
1.84181e+06
1.80354e+06
1.77179e+06
1.74388e+06
1.71827e+06
1.69415e+06
1.67107e+06
1.64877e+06
1.62706e+06
1.60582e+06
1.58497e+06
1.56444e+06
1.5442e+06
1.52421e+06
1.50443e+06
1.48486e+06
1.46549e+06
1.44631e+06
1.4273e+06
1.40847e+06
1.38979e+06
1.37126e+06
1.35286e+06
1.3346e+06
1.31647e+06
1.29848e+06
1.28063e+06
1.26291e+06
1.24532e+06
1.22786e+06
1.21054e+06
1.19335e+06
1.17629e+06
1.15937e+06
1.14257e+06
1.12589e+06
1.10934e+06
1.09292e+06
1.07664e+06
1.06049e+06
1.04445e+06
1.02854e+06
1.01273e+06
997029
981439
965949
950566
935291
920115
905052
890100
875285
860597
846049
831627
817342
803182
789161
775259
761499
747854
734345
720954
707695
694560
681554
668674
655922
643289
630781
618386
606113
593955
581920
569996
558195
546493
534923
523434
512095
500815
489713
478651
467731
456877
446131
435460
424870
414338
403869
393434
383018
372592
362104
351500
340669
329480
317619
304654
289494
1.84903e+06
1.81058e+06
1.77784e+06
1.74888e+06
1.72237e+06
1.6975e+06
1.67381e+06
1.651e+06
1.62887e+06
1.6073e+06
1.58617e+06
1.56541e+06
1.54498e+06
1.52483e+06
1.50493e+06
1.48526e+06
1.46581e+06
1.44656e+06
1.42749e+06
1.40861e+06
1.3899e+06
1.37133e+06
1.35292e+06
1.33464e+06
1.31651e+06
1.29852e+06
1.28066e+06
1.26295e+06
1.24536e+06
1.22791e+06
1.21059e+06
1.1934e+06
1.17634e+06
1.15941e+06
1.1426e+06
1.12592e+06
1.10937e+06
1.09295e+06
1.07667e+06
1.06052e+06
1.04448e+06
1.02857e+06
1.01275e+06
997059
981465
965970
950586
935307
920125
905056
890095
875274
860577
846024
831597
817309
803147
789126
775223
761466
747820
734315
720923
707666
694531
681526
668645
655895
643262
630756
618357
606084
593920
581885
569951
558147
546429
534855
523339
511997
500676
489571
478458
467514
456608
445818
435079
424418
413799
403226
392675
382113
371521
360829
349989
338868
327348
315106
301798
286630
1.85505e+06
1.8167e+06
1.7833e+06
1.75351e+06
1.72622e+06
1.70068e+06
1.67642e+06
1.65314e+06
1.63062e+06
1.60872e+06
1.58733e+06
1.56635e+06
1.54574e+06
1.52544e+06
1.50542e+06
1.48565e+06
1.46612e+06
1.4468e+06
1.42769e+06
1.40876e+06
1.39001e+06
1.37142e+06
1.35298e+06
1.3347e+06
1.31656e+06
1.29856e+06
1.28071e+06
1.26299e+06
1.24541e+06
1.22795e+06
1.21063e+06
1.19344e+06
1.17638e+06
1.15944e+06
1.14263e+06
1.12594e+06
1.10938e+06
1.09296e+06
1.07668e+06
1.06053e+06
1.04449e+06
1.02859e+06
1.01277e+06
997078
981477
965980
950596
935311
920123
905049
890079
875253
860547
845991
831559
817270
803106
789086
775181
761430
747781
734281
720888
707635
694498
681495
668614
655867
643233
630728
618324
606052
593881
581847
569903
558097
546361
534783
523241
511897
500537
489433
478265
467304
456340
445513
434704
423977
413274
402604
391938
381241
370489
359610
348555
337177
325375
312844
299327
284266
1.86015e+06
1.82202e+06
1.78821e+06
1.75777e+06
1.72982e+06
1.70368e+06
1.6789e+06
1.65518e+06
1.6323e+06
1.61009e+06
1.58844e+06
1.56726e+06
1.54647e+06
1.52604e+06
1.5059e+06
1.48604e+06
1.46642e+06
1.44704e+06
1.42788e+06
1.40891e+06
1.39012e+06
1.37151e+06
1.35305e+06
1.33476e+06
1.31661e+06
1.29861e+06
1.28076e+06
1.26304e+06
1.24545e+06
1.228e+06
1.21068e+06
1.19348e+06
1.17641e+06
1.15947e+06
1.14264e+06
1.12595e+06
1.10939e+06
1.09296e+06
1.07669e+06
1.06053e+06
1.0445e+06
1.02859e+06
1.01277e+06
997088
981478
965980
950595
935303
920111
905031
890052
875222
860508
845951
831514
817225
803060
789043
775136
761391
747739
734246
720849
707602
694461
681462
668579
655837
643201
630698
618289
606019
593839
581806
569850
558042
546290
534709
523145
511795
500401
489292
478073
467100
456078
445219
434339
423553
412768
402007
391231
380409
369506
358457
347202
335607
323567
310824
297182
282275
1.86451e+06
1.82666e+06
1.79259e+06
1.76166e+06
1.73315e+06
1.70648e+06
1.68124e+06
1.65711e+06
1.63389e+06
1.6114e+06
1.58951e+06
1.56813e+06
1.54718e+06
1.52661e+06
1.50636e+06
1.48641e+06
1.46673e+06
1.44728e+06
1.42807e+06
1.40906e+06
1.39024e+06
1.3716e+06
1.35313e+06
1.33482e+06
1.31667e+06
1.29867e+06
1.28081e+06
1.26309e+06
1.2455e+06
1.22804e+06
1.21072e+06
1.19351e+06
1.17644e+06
1.15948e+06
1.14265e+06
1.12595e+06
1.10938e+06
1.09295e+06
1.07668e+06
1.06052e+06
1.04449e+06
1.02858e+06
1.01276e+06
997084
981467
965971
950583
935284
920088
905001
890016
875182
860462
845903
831464
817176
803011
788997
775089
761352
747695
734211
720807
707568
694422
681428
668542
655804
643165
630665
618250
605982
593795
581762
569796
557985
546220
534632
523051
511692
500270
489149
477891
466902
455824
444936
433987
423147
412283
401438
390558
379618
368578
357375
345942
334158
321926
309025
295316
280575
1.86828e+06
1.83071e+06
1.79649e+06
1.76517e+06
1.7362e+06
1.70908e+06
1.68342e+06
1.65893e+06
1.63539e+06
1.61263e+06
1.59052e+06
1.56896e+06
1.54786e+06
1.52716e+06
1.50681e+06
1.48677e+06
1.46702e+06
1.44752e+06
1.42826e+06
1.40921e+06
1.39036e+06
1.3717e+06
1.35321e+06
1.33489e+06
1.31673e+06
1.29872e+06
1.28085e+06
1.26313e+06
1.24554e+06
1.22808e+06
1.21074e+06
1.19354e+06
1.17645e+06
1.15948e+06
1.14264e+06
1.12593e+06
1.10936e+06
1.09293e+06
1.07666e+06
1.0605e+06
1.04448e+06
1.02856e+06
1.01274e+06
997063
981443
965951
950559
935256
920058
904960
889971
875134
860410
845849
831410
817123
802960
788948
775041
761311
747650
734175
720764
707534
694381
681394
668504
655770
643128
630630
618209
605941
593749
581715
569742
557925
546150
534552
522963
511590
500148
489000
477722
466706
455585
444659
433653
422759
411822
400899
389922
378875
367711
356368
344780
332831
320442
307423
293689
279107
1.87156e+06
1.83425e+06
1.79994e+06
1.76833e+06
1.73898e+06
1.71146e+06
1.68543e+06
1.66061e+06
1.63679e+06
1.61379e+06
1.59147e+06
1.56974e+06
1.54849e+06
1.52768e+06
1.50723e+06
1.48712e+06
1.4673e+06
1.44775e+06
1.42844e+06
1.40936e+06
1.39049e+06
1.3718e+06
1.3533e+06
1.33496e+06
1.31679e+06
1.29877e+06
1.2809e+06
1.26316e+06
1.24556e+06
1.2281e+06
1.21076e+06
1.19354e+06
1.17645e+06
1.15947e+06
1.14262e+06
1.12591e+06
1.10933e+06
1.0929e+06
1.07663e+06
1.06047e+06
1.04445e+06
1.02852e+06
1.01271e+06
997025
981408
965920
950525
935219
920019
904910
889920
875079
860353
845790
831352
817069
802907
788897
774992
761267
747604
734138
720720
707500
694339
681359
668464
655735
643089
630593
618168
605898
593703
581664
569686
557861
546082
534467
522878
511485
500034
488849
477562
466515
455361
444394
433339
422391
411389
400394
389330
378183
366910
355442
343716
331624
319107
306001
292270
277828
1.87441e+06
1.83733e+06
1.80298e+06
1.77114e+06
1.74148e+06
1.71362e+06
1.68727e+06
1.66216e+06
1.63808e+06
1.61485e+06
1.59235e+06
1.57046e+06
1.54909e+06
1.52816e+06
1.50763e+06
1.48745e+06
1.46757e+06
1.44797e+06
1.42862e+06
1.40951e+06
1.3906e+06
1.3719e+06
1.35337e+06
1.33502e+06
1.31684e+06
1.29881e+06
1.28093e+06
1.26319e+06
1.24558e+06
1.22811e+06
1.21076e+06
1.19354e+06
1.17643e+06
1.15944e+06
1.14259e+06
1.12588e+06
1.1093e+06
1.09287e+06
1.07659e+06
1.06043e+06
1.04441e+06
1.02847e+06
1.01266e+06
996972
981361
965876
950480
935173
919971
904854
889866
875018
860293
845728
831293
817012
802852
788844
774942
761219
747558
734096
720677
707464
694298
681322
668425
655698
643048
630552
618124
605851
593655
581607
569629
557790
546013
534376
522791
511359
499921
488701
477419
466344
455156
444142
433048
422045
410989
399924
388784
377546
366177
354596
342748
330536
317916
304751
291033
276713
1.87688e+06
1.84001e+06
1.80564e+06
1.77363e+06
1.7437e+06
1.71556e+06
1.68893e+06
1.66356e+06
1.63925e+06
1.61583e+06
1.59316e+06
1.57112e+06
1.54963e+06
1.52861e+06
1.508e+06
1.48775e+06
1.46782e+06
1.44817e+06
1.42879e+06
1.40965e+06
1.39072e+06
1.37198e+06
1.35344e+06
1.33508e+06
1.31688e+06
1.29884e+06
1.28095e+06
1.2632e+06
1.24559e+06
1.2281e+06
1.21075e+06
1.19352e+06
1.1764e+06
1.15941e+06
1.14255e+06
1.12584e+06
1.10926e+06
1.09283e+06
1.07654e+06
1.06038e+06
1.04436e+06
1.02842e+06
1.01261e+06
996908
981304
965819
950426
935117
919914
904793
889810
874956
860233
845666
831234
816956
802798
788789
774894
761166
747513
734048
720636
707421
694259
681284
668386
655657
643006
630507
618078
605798
593602
581543
569568
557713
545940
534285
522702
511228
499813
488548
477284
466175
454969
443906
432782
421725
410620
399493
388287
376966
365510
353828
341875
329563
316863
303659
289960
275747
1.87902e+06
1.84232e+06
1.80794e+06
1.77579e+06
1.74566e+06
1.71729e+06
1.69041e+06
1.66482e+06
1.64031e+06
1.61671e+06
1.59389e+06
1.57172e+06
1.55013e+06
1.52902e+06
1.50833e+06
1.48802e+06
1.46804e+06
1.44836e+06
1.42894e+06
1.40977e+06
1.39081e+06
1.37206e+06
1.3535e+06
1.33512e+06
1.31692e+06
1.29886e+06
1.28096e+06
1.2632e+06
1.24558e+06
1.22809e+06
1.21072e+06
1.19348e+06
1.17636e+06
1.15937e+06
1.14251e+06
1.1258e+06
1.10922e+06
1.09278e+06
1.07649e+06
1.06032e+06
1.0443e+06
1.02835e+06
1.01255e+06
996835
981236
965749
950364
935055
919854
904732
889754
874892
860175
845604
831177
816897
802745
788733
774844
761108
747466
733992
720594
707372
694221
681240
668347
655612
642963
630456
618030
605740
593548
581475
569505
557633
545868
534194
522616
511117
499710
488408
477152
465981
454797
443696
432540
421436
410286
399100
387838
376444
364910
353138
341099
328707
315944
302715
289037
274918
1.88084e+06
1.84428e+06
1.80991e+06
1.77766e+06
1.74736e+06
1.71879e+06
1.69171e+06
1.66593e+06
1.64124e+06
1.61749e+06
1.59453e+06
1.57226e+06
1.55057e+06
1.52938e+06
1.50863e+06
1.48827e+06
1.46825e+06
1.44853e+06
1.42908e+06
1.40988e+06
1.3909e+06
1.37213e+06
1.35355e+06
1.33516e+06
1.31694e+06
1.29887e+06
1.28096e+06
1.26319e+06
1.24556e+06
1.22806e+06
1.21069e+06
1.19344e+06
1.17632e+06
1.15932e+06
1.14247e+06
1.12576e+06
1.10918e+06
1.09274e+06
1.07644e+06
1.06027e+06
1.04424e+06
1.02829e+06
1.01248e+06
996759
981163
965670
950293
934983
919790
904667
889697
874828
860118
845543
831122
816840
802692
788677
774796
761048
747420
733930
720551
707316
694184
681194
668311
655566
642921
630404
617982
605681
593492
581408
569441
557553
545796
534108
522535
511023
499621
488281
477024
465787
454639
443496
432332
421180
409989
398750
387440
375983
364380
352530
340422
327966
315154
301909
288253
274212
1.88237e+06
1.84593e+06
1.81157e+06
1.77924e+06
1.7488e+06
1.72007e+06
1.69283e+06
1.66688e+06
1.64205e+06
1.61816e+06
1.5951e+06
1.57272e+06
1.55095e+06
1.5297e+06
1.5089e+06
1.48849e+06
1.46843e+06
1.44867e+06
1.4292e+06
1.40997e+06
1.39097e+06
1.37218e+06
1.35358e+06
1.33518e+06
1.31695e+06
1.29887e+06
1.28095e+06
1.26318e+06
1.24553e+06
1.22802e+06
1.21065e+06
1.1934e+06
1.17627e+06
1.15928e+06
1.14243e+06
1.12573e+06
1.10915e+06
1.09269e+06
1.07638e+06
1.06021e+06
1.04417e+06
1.02823e+06
1.01242e+06
996685
981090
965590
950219
934907
919720
904603
889637
874766
860064
845485
831072
816787
802647
788626
774754
760993
747379
733872
720510
707259
694146
681147
668277
655521
642883
630353
617937
605626
593439
581343
569379
557480
545731
534027
522461
510943
499545
488168
476911
465636
454497
443303
432145
420953
409732
398447
387095
375586
363921
352009
339845
327340
314488
301234
287598
273620
1.88363e+06
1.84729e+06
1.81293e+06
1.78053e+06
1.74999e+06
1.72113e+06
1.69376e+06
1.66768e+06
1.64272e+06
1.61873e+06
1.59557e+06
1.57312e+06
1.55128e+06
1.52997e+06
1.50912e+06
1.48867e+06
1.46858e+06
1.4488e+06
1.4293e+06
1.41005e+06
1.39103e+06
1.37222e+06
1.35361e+06
1.3352e+06
1.31695e+06
1.29887e+06
1.28094e+06
1.26315e+06
1.2455e+06
1.22798e+06
1.2106e+06
1.19335e+06
1.17622e+06
1.15923e+06
1.1424e+06
1.12569e+06
1.10911e+06
1.09265e+06
1.07633e+06
1.06016e+06
1.04411e+06
1.02817e+06
1.01235e+06
996616
981019
965512
950146
934831
919653
904542
889586
874713
860018
845436
831034
816743
802614
788585
774723
760951
747346
733826
720476
707213
694112
681105
668245
655481
642849
630309
617898
605579
593391
581287
569322
557417
545671
533959
522398
510867
499478
488070
476819
465513
454371
443133
431978
420743
409515
398187
386805
375249
363536
351575
339367
326824
313941
300681
287062
273135
1.88462e+06
1.84835e+06
1.814e+06
1.78156e+06
1.75094e+06
1.72198e+06
1.6945e+06
1.66832e+06
1.64327e+06
1.61919e+06
1.59595e+06
1.57344e+06
1.55154e+06
1.53019e+06
1.5093e+06
1.48882e+06
1.4687e+06
1.44889e+06
1.42937e+06
1.41011e+06
1.39108e+06
1.37226e+06
1.35363e+06
1.33521e+06
1.31695e+06
1.29886e+06
1.28092e+06
1.26312e+06
1.24547e+06
1.22795e+06
1.21056e+06
1.1933e+06
1.17617e+06
1.15919e+06
1.14236e+06
1.12566e+06
1.10907e+06
1.09261e+06
1.07629e+06
1.0601e+06
1.04406e+06
1.02812e+06
1.01229e+06
996554
980954
965440
950075
934760
919594
904484
889542
874666
859982
845396
831005
816707
802587
788552
774698
760918
747320
733796
720450
707183
694087
681075
668220
655448
642820
630273
617865
605539
593351
581241
569277
557367
545621
533905
522351
510792
499416
487986
476744
465412
454268
442992
431840
420568
409342
397968
386573
374973
363225
351229
338985
326414
313507
300244
286640
272751
1.88535e+06
1.84914e+06
1.8148e+06
1.78233e+06
1.75165e+06
1.72262e+06
1.69506e+06
1.6688e+06
1.64368e+06
1.61954e+06
1.59624e+06
1.57368e+06
1.55174e+06
1.53035e+06
1.50943e+06
1.48893e+06
1.46879e+06
1.44897e+06
1.42943e+06
1.41015e+06
1.39111e+06
1.37228e+06
1.35365e+06
1.33521e+06
1.31695e+06
1.29884e+06
1.2809e+06
1.2631e+06
1.24543e+06
1.22791e+06
1.21051e+06
1.19325e+06
1.17613e+06
1.15915e+06
1.14232e+06
1.12562e+06
1.10904e+06
1.09257e+06
1.07625e+06
1.06006e+06
1.04401e+06
1.02807e+06
1.01224e+06
996503
980900
965380
950016
934704
919549
904434
889499
874627
859951
845362
830979
816677
802565
788525
774677
760895
747299
733776
720430
707166
694071
681059
668204
655428
642798
630247
617842
605511
593323
581208
569246
557329
545586
533867
522323
510731
499362
487915
476682
465333
454188
442884
431735
420436
409209
397802
386393
374758
362991
350971
338700
326108
313183
299918
286326
272465
1.88583e+06
1.84966e+06
1.81533e+06
1.78284e+06
1.75213e+06
1.72305e+06
1.69544e+06
1.66913e+06
1.64396e+06
1.61977e+06
1.59644e+06
1.57384e+06
1.55188e+06
1.53047e+06
1.50953e+06
1.48901e+06
1.46885e+06
1.44901e+06
1.42947e+06
1.41018e+06
1.39113e+06
1.37229e+06
1.35366e+06
1.33521e+06
1.31694e+06
1.29883e+06
1.28088e+06
1.26307e+06
1.2454e+06
1.22788e+06
1.21048e+06
1.19322e+06
1.1761e+06
1.15912e+06
1.14229e+06
1.12559e+06
1.10901e+06
1.09255e+06
1.07622e+06
1.06003e+06
1.04397e+06
1.02803e+06
1.0122e+06
996465
980860
965338
949976
934664
919514
904398
889470
874600
859927
845337
830961
816655
802548
788508
774662
760882
747287
733766
720419
707158
694061
681052
668196
655419
642788
630231
617828
605494
593309
581187
569228
557302
545564
533837
522294
510691
499320
487862
476636
465277
454129
442810
431662
420347
409116
397693
386277
374613
362834
350799
338509
325904
312968
299702
286119
272276
1.88607e+06
1.84992e+06
1.81559e+06
1.7831e+06
1.75236e+06
1.72326e+06
1.69562e+06
1.66929e+06
1.6441e+06
1.61989e+06
1.59654e+06
1.57393e+06
1.55195e+06
1.53052e+06
1.50957e+06
1.48904e+06
1.46888e+06
1.44904e+06
1.42949e+06
1.4102e+06
1.39114e+06
1.3723e+06
1.35366e+06
1.33521e+06
1.31693e+06
1.29882e+06
1.28087e+06
1.26306e+06
1.24539e+06
1.22786e+06
1.21047e+06
1.1932e+06
1.17608e+06
1.15911e+06
1.14228e+06
1.12558e+06
1.109e+06
1.09254e+06
1.07621e+06
1.06002e+06
1.04395e+06
1.02801e+06
1.01218e+06
996446
980839
965317
949951
934642
919493
904382
889453
874585
859916
845327
830951
816646
802539
788502
774654
760877
747280
733762
720414
707155
694056
681050
668192
655417
642784
630226
617823
605488
593304
581179
569220
557289
545554
533822
522276
510673
499304
487840
476613
465251
454097
442773
431625
420304
409070
397641
386218
374544
362758
350714
338415
325802
312862
299596
286016
272184
1.66868e+06
1.6662e+06
1.66134e+06
1.65429e+06
1.64524e+06
1.63445e+06
1.62217e+06
1.60866e+06
1.59412e+06
1.57874e+06
1.56269e+06
1.54612e+06
1.52914e+06
1.51185e+06
1.4943e+06
1.47654e+06
1.45865e+06
1.44068e+06
1.42266e+06
1.40463e+06
1.38661e+06
1.36862e+06
1.35067e+06
1.33278e+06
1.31495e+06
1.29721e+06
1.27955e+06
1.26198e+06
1.24451e+06
1.22711e+06
1.20979e+06
1.19257e+06
1.17545e+06
1.15844e+06
1.14153e+06
1.12478e+06
1.10815e+06
1.09167e+06
1.07533e+06
1.05914e+06
1.04307e+06
1.02713e+06
1.01131e+06
995628
980062
964622
949296
934097
919012
904056
889213
874498
859898
845425
831070
816841
802735
788755
774899
761170
747565
734085
720725
707491
694376
681390
668529
655799
643192
630717
618364
606145
594044
582090
570261
558598
547077
535719
524519
513485
502621
491936
481440
471148
461073
451237
441662
432374
423406
414794
406586
398833
391599
384956
378991
373793
369467
366109
363799
362617
1.66912e+06
1.66662e+06
1.66174e+06
1.65465e+06
1.64556e+06
1.63472e+06
1.6224e+06
1.60885e+06
1.59428e+06
1.57888e+06
1.56281e+06
1.54622e+06
1.52922e+06
1.51193e+06
1.49436e+06
1.4766e+06
1.4587e+06
1.44072e+06
1.4227e+06
1.40466e+06
1.38664e+06
1.36865e+06
1.3507e+06
1.33281e+06
1.31498e+06
1.29723e+06
1.27957e+06
1.26201e+06
1.24453e+06
1.22713e+06
1.20982e+06
1.1926e+06
1.17547e+06
1.15846e+06
1.14155e+06
1.12479e+06
1.10816e+06
1.09168e+06
1.07535e+06
1.05915e+06
1.04308e+06
1.02714e+06
1.01132e+06
995632
980066
964626
949300
934101
919015
904059
889215
874501
859900
845428
831072
816844
802737
788758
774902
761173
747568
734089
720730
707496
694381
681395
668534
655804
643196
630720
618367
606148
594046
582090
570261
558595
547074
535714
524513
513477
502611
491924
481425
471130
461051
451211
441630
432336
423360
414740
406522
398757
391508
384849
378865
373650
369306
365931
363608
362419
1.67e+06
1.66747e+06
1.66253e+06
1.65537e+06
1.64619e+06
1.63526e+06
1.62286e+06
1.60924e+06
1.59461e+06
1.57916e+06
1.56305e+06
1.54642e+06
1.5294e+06
1.51208e+06
1.4945e+06
1.47671e+06
1.45879e+06
1.4408e+06
1.42277e+06
1.40473e+06
1.38671e+06
1.36871e+06
1.35076e+06
1.33287e+06
1.31504e+06
1.29729e+06
1.27963e+06
1.26207e+06
1.24458e+06
1.22719e+06
1.20986e+06
1.19265e+06
1.17551e+06
1.1585e+06
1.14159e+06
1.12483e+06
1.10819e+06
1.09171e+06
1.07537e+06
1.05917e+06
1.04309e+06
1.02715e+06
1.01133e+06
995643
980077
964637
949310
934109
919023
904066
889221
874507
859906
845433
831078
816850
802743
788764
774907
761180
747575
734098
720741
707509
694394
681409
668547
655816
643206
630728
618373
606154
594049
582092
570262
558590
547068
535705
524501
513462
502592
491901
481397
471095
461009
451160
441568
432262
423271
414633
406393
398604
391327
384636
378615
373361
368982
365574
363225
362020
1.67132e+06
1.66875e+06
1.66372e+06
1.65644e+06
1.64714e+06
1.63608e+06
1.62355e+06
1.60983e+06
1.59511e+06
1.57958e+06
1.56341e+06
1.54672e+06
1.52966e+06
1.51231e+06
1.49469e+06
1.47687e+06
1.45893e+06
1.44092e+06
1.42288e+06
1.40484e+06
1.38681e+06
1.36881e+06
1.35086e+06
1.33296e+06
1.31513e+06
1.29737e+06
1.2797e+06
1.26214e+06
1.24465e+06
1.22725e+06
1.20992e+06
1.19271e+06
1.17557e+06
1.15855e+06
1.14163e+06
1.12486e+06
1.10823e+06
1.09174e+06
1.0754e+06
1.0592e+06
1.04312e+06
1.02717e+06
1.01135e+06
995662
980095
964654
949327
934125
919037
904080
889233
874519
859916
845444
831089
816861
802754
788774
774918
761192
747589
734116
720761
707531
694417
681432
668569
655835
643222
630741
618383
606162
594055
582094
570263
558585
547060
535692
524484
513440
502565
491867
481355
471044
460946
451083
441476
432150
423137
414473
406202
398376
391056
384315
378240
372929
368494
365035
362645
361416
1.67311e+06
1.67046e+06
1.66531e+06
1.65787e+06
1.64839e+06
1.63716e+06
1.62447e+06
1.6106e+06
1.59576e+06
1.58014e+06
1.56388e+06
1.54712e+06
1.53e+06
1.51261e+06
1.49495e+06
1.47709e+06
1.45912e+06
1.44108e+06
1.42303e+06
1.40497e+06
1.38694e+06
1.36893e+06
1.35097e+06
1.33307e+06
1.31523e+06
1.29747e+06
1.27979e+06
1.26222e+06
1.24473e+06
1.22732e+06
1.20999e+06
1.19277e+06
1.17563e+06
1.15861e+06
1.14169e+06
1.12491e+06
1.10828e+06
1.09179e+06
1.07544e+06
1.05923e+06
1.04315e+06
1.0272e+06
1.01138e+06
995687
980119
964678
949350
934147
919057
904099
889251
874537
859933
845460
831105
816877
802770
788791
774934
761211
747611
734142
720789
707560
694447
681462
668598
655861
643245
630759
618396
606173
594063
582098
570264
558579
547051
535677
524464
513413
502530
491823
481300
470975
460863
450982
441354
432003
422960
414261
405948
398073
390696
383889
377741
372351
367841
364311
361864
360603
1.67536e+06
1.67262e+06
1.66731e+06
1.65966e+06
1.64995e+06
1.63849e+06
1.6256e+06
1.61156e+06
1.59658e+06
1.58083e+06
1.56446e+06
1.54762e+06
1.53043e+06
1.51297e+06
1.49526e+06
1.47736e+06
1.45934e+06
1.44127e+06
1.4232e+06
1.40513e+06
1.38709e+06
1.36907e+06
1.35109e+06
1.33318e+06
1.31534e+06
1.29757e+06
1.27988e+06
1.2623e+06
1.24481e+06
1.2274e+06
1.21006e+06
1.19284e+06
1.1757e+06
1.15867e+06
1.14174e+06
1.12496e+06
1.10833e+06
1.09184e+06
1.07549e+06
1.05927e+06
1.04319e+06
1.02723e+06
1.01141e+06
995718
980150
964708
949379
934175
919083
904126
889274
874560
859954
845479
831124
816896
802789
788812
774956
761236
747638
734173
720821
707593
694481
681497
668633
655892
643272
630781
618413
606185
594073
582102
570265
558574
547040
535659
524439
513380
502487
491768
481232
470892
460761
450857
441203
431822
422742
413998
405633
397697
390249
383360
377120
371631
367020
363398
360877
359574
1.6781e+06
1.67524e+06
1.66971e+06
1.6618e+06
1.65181e+06
1.64009e+06
1.62695e+06
1.6127e+06
1.59754e+06
1.58165e+06
1.56516e+06
1.54821e+06
1.53093e+06
1.51339e+06
1.49561e+06
1.47766e+06
1.4596e+06
1.44149e+06
1.42339e+06
1.40531e+06
1.38725e+06
1.36921e+06
1.35122e+06
1.3333e+06
1.31545e+06
1.29768e+06
1.27998e+06
1.26239e+06
1.24488e+06
1.22747e+06
1.21012e+06
1.1929e+06
1.17576e+06
1.15873e+06
1.1418e+06
1.12501e+06
1.10839e+06
1.09189e+06
1.07554e+06
1.05932e+06
1.04324e+06
1.02728e+06
1.01145e+06
995759
980191
964745
949416
934210
919116
904158
889304
874589
859982
845505
831150
816921
802814
788838
774983
761265
747669
734206
720855
707631
694522
681537
668672
655928
643303
630805
618432
606198
594083
582106
570266
558569
547028
535639
524410
513341
502437
491704
481152
470793
460640
450710
441025
431606
422482
413687
405260
397250
389716
382729
376378
370769
366032
362294
359678
358323
1.68134e+06
1.67833e+06
1.67254e+06
1.66431e+06
1.65398e+06
1.64193e+06
1.62851e+06
1.61402e+06
1.59866e+06
1.5826e+06
1.56597e+06
1.54889e+06
1.5315e+06
1.51387e+06
1.49601e+06
1.478e+06
1.45989e+06
1.44174e+06
1.42361e+06
1.4055e+06
1.38741e+06
1.36936e+06
1.35135e+06
1.33342e+06
1.31556e+06
1.29778e+06
1.28007e+06
1.26247e+06
1.24495e+06
1.22753e+06
1.21018e+06
1.19296e+06
1.17582e+06
1.15879e+06
1.14186e+06
1.12507e+06
1.10845e+06
1.09195e+06
1.0756e+06
1.05938e+06
1.04329e+06
1.02733e+06
1.0115e+06
995810
980240
964793
949462
934254
919158
904197
889342
874625
860018
845539
831184
816953
802847
788870
775015
761297
747701
734239
720891
707670
694563
681578
668713
655966
643336
630832
618454
606211
594093
582110
570266
558563
547015
535617
524378
513298
502381
491632
481061
470679
460501
450541
440820
431359
422184
413328
404830
396735
389101
382000
375518
369765
364876
360993
358262
356840
1.68512e+06
1.68192e+06
1.6758e+06
1.66717e+06
1.65644e+06
1.64402e+06
1.63028e+06
1.61552e+06
1.59992e+06
1.58366e+06
1.56686e+06
1.54964e+06
1.53212e+06
1.51438e+06
1.49645e+06
1.47837e+06
1.4602e+06
1.44201e+06
1.42384e+06
1.4057e+06
1.38758e+06
1.3695e+06
1.35148e+06
1.33353e+06
1.31566e+06
1.29788e+06
1.28016e+06
1.26254e+06
1.24502e+06
1.22759e+06
1.21023e+06
1.19301e+06
1.17588e+06
1.15884e+06
1.14192e+06
1.12513e+06
1.10851e+06
1.09201e+06
1.07566e+06
1.05944e+06
1.04335e+06
1.02739e+06
1.01156e+06
995869
980296
964848
949515
934305
919207
904244
889388
874669
860063
845580
831227
816990
802883
788903
775048
761328
747734
734272
720928
707706
694600
681615
668751
656001
643368
630858
618475
606225
594104
582114
570266
558556
547000
535593
524342
513250
502319
491551
480960
470553
460346
450352
440590
431082
421849
412926
404346
396155
388409
381175
374542
368621
363553
359496
356620
355118
1.68947e+06
1.68603e+06
1.6795e+06
1.6704e+06
1.6592e+06
1.64635e+06
1.63225e+06
1.61717e+06
1.60131e+06
1.58482e+06
1.56784e+06
1.55046e+06
1.5328e+06
1.51494e+06
1.49691e+06
1.47876e+06
1.46053e+06
1.44229e+06
1.42408e+06
1.40591e+06
1.38776e+06
1.36965e+06
1.3516e+06
1.33364e+06
1.31576e+06
1.29797e+06
1.28025e+06
1.26261e+06
1.24507e+06
1.22765e+06