/*--------------------------------*- C++ -*----------------------------------*\
| =========                 |                                                 |
| \\      /  F ield         | OpenFOAM: The Open Source CFD Toolbox           |
|  \\    /   O peration     | Version:  2.4.0                                 |
|   \\  /    A nd           | Web:      www.OpenFOAM.org                      |
|    \\/     M anipulation  |                                                 |
\*---------------------------------------------------------------------------*/
FoamFile
{
    version     2.0;
    format      ascii;
    class       volVectorField;
    location    "0.183";
    object      U_0;
}
// * * * * * * * * * * * * * * * * * * * * * * * * * * * * * * * * * * * * * //

dimensions      [0 1 -1 0 0 0 0];

internalField   nonuniform List<vector> 
4400
(
(5.40509 0.316742 0)
(3.31459 0.0607508 0)
(2.58641 0.0014037 0)
(2.23074 -0.00203273 0)
(2.08653 -0.00159238 0)
(1.99649 -0.000772507 0)
(1.95945 -0.000242169 0)
(1.91868 -0.000218028 0)
(1.91877 0.00087412 0)
(1.78052 -0.0625192 0)
(8.6891 0.857276 0)
(7.53572 0.34452 0)
(6.63849 0.116314 0)
(5.90247 0.0550846 0)
(5.53533 0.0262363 0)
(5.26771 0.0151559 0)
(5.15609 0.00984236 0)
(5.03417 0.00498166 0)
(5.03514 0.0129252 0)
(4.79993 -0.0851487 0)
(9.89848 0.937217 0)
(9.98039 0.476807 0)
(9.50918 0.213373 0)
(8.73681 0.129681 0)
(8.29531 0.0740169 0)
(7.90448 0.0453307 0)
(7.74461 0.0283696 0)
(7.55664 0.0150771 0)
(7.5798 0.0250788 0)
(7.20487 -0.0902336 0)
(10.1359 0.807465 0)
(11.0961 0.497152 0)
(11.2969 0.266278 0)
(10.8017 0.196729 0)
(10.483 0.128562 0)
(10.0725 0.0850763 0)
(9.91367 0.053865 0)
(9.69338 0.0277783 0)
(9.74963 0.0430717 0)
(9.31207 -0.0798902 0)
(10.0735 0.647885 0)
(11.2922 0.434874 0)
(12.0174 0.246896 0)
(11.9299 0.217399 0)
(11.9175 0.161621 0)
(11.6427 0.12074 0)
(11.5628 0.0784878 0)
(11.386 0.0411631 0)
(11.4737 0.0593373 0)
(11.0698 -0.0526666 0)
(10.0583 0.517175 0)
(11.1891 0.357472 0)
(12.0799 0.187372 0)
(12.211 0.186065 0)
(12.4958 0.150613 0)
(12.4571 0.130098 0)
(12.5313 0.0877142 0)
(12.5118 0.0432627 0)
(12.6381 0.0732263 0)
(12.3141 -0.0205784 0)
(10.0651 0.400367 0)
(11.1477 0.289113 0)
(12.0109 0.134039 0)
(12.1697 0.140774 0)
(12.5247 0.109006 0)
(12.6381 0.114505 0)
(12.8298 0.0684874 0)
(12.9966 0.0322363 0)
(13.1153 0.0630187 0)
(12.9728 0.0354815 0)
(10.0399 0.2766 0)
(11.1607 0.21748 0)
(11.9268 0.0931784 0)
(12.1404 0.108499 0)
(12.4554 0.0610556 0)
(12.6041 0.0917612 0)
(12.8551 0.0318639 0)
(13.0258 0.0190479 0)
(13.094 0.0429958 0)
(13.3068 0.0133206 0)
(10.0109 0.166372 0)
(11.1201 0.13017 0)
(11.8446 0.0634576 0)
(12.2274 0.063122 0)
(12.4294 0.0268611 0)
(12.575 0.0557618 0)
(12.8174 0.0133734 0)
(12.9362 -0.00165396 0)
(13.114 0.0152981 0)
(13.4625 -0.0915246 0)
(10.0029 0.053637 0)
(11.0707 0.0500112 0)
(11.8672 0.014619 0)
(12.2558 0.0261642 0)
(12.3744 -0.00660185 0)
(12.5685 0.0321488 0)
(12.7859 -0.014794 0)
(12.9681 -0.0258761 0)
(13.1396 -0.0304057 0)
(13.2898 -0.10312 0)
(9.99441 -0.0511156 0)
(11.1052 -0.0437405 0)
(11.8607 -0.0218055 0)
(12.2011 -0.00866977 0)
(12.3846 -0.0366697 0)
(12.5947 -0.00795282 0)
(12.8149 -0.0393826 0)
(12.9756 -0.0507299 0)
(13.0673 -0.0465402 0)
(13.1509 -0.103037 0)
(10.0104 -0.16567 0)
(11.1199 -0.125977 0)
(11.8439 -0.0566068 0)
(12.2225 -0.0503857 0)
(12.4506 -0.0763194 0)
(12.6069 -0.0387466 0)
(12.8151 -0.0601277 0)
(12.9499 -0.0677961 0)
(13.0406 -0.0644142 0)
(13.2405 -0.157388 0)
(10.0259 -0.275372 0)
(11.1278 -0.210031 0)
(11.9205 -0.0996489 0)
(12.2568 -0.0948842 0)
(12.4764 -0.106049 0)
(12.5961 -0.0683334 0)
(12.844 -0.0832466 0)
(12.9492 -0.0855098 0)
(13.0879 -0.0944671 0)
(13.3008 -0.212573 0)
(10.0308 -0.393142 0)
(11.1689 -0.288179 0)
(12.0121 -0.144453 0)
(12.2508 -0.132631 0)
(12.5173 -0.138658 0)
(12.6024 -0.0996479 0)
(12.8612 -0.105973 0)
(12.8549 -0.102766 0)
(13.0317 -0.121192 0)
(13.0544 -0.23279 0)
(10.0175 -0.513373 0)
(11.2571 -0.359259 0)
(12.0586 -0.195943 0)
(12.2591 -0.177363 0)
(12.4602 -0.170369 0)
(12.4224 -0.12364 0)
(12.55 -0.116018 0)
(12.3769 -0.109542 0)
(12.479 -0.127275 0)
(12.2375 -0.222938 0)
(10.0489 -0.645148 0)
(11.3442 -0.4368 0)
(11.975 -0.251867 0)
(11.9668 -0.210713 0)
(11.8765 -0.176141 0)
(11.6242 -0.118116 0)
(11.557 -0.103184 0)
(11.2579 -0.0914267 0)
(11.2575 -0.117576 0)
(10.8392 -0.15465 0)
(10.1221 -0.806125 0)
(11.1288 -0.498415 0)
(11.2593 -0.269514 0)
(10.8317 -0.192606 0)
(10.4454 -0.138124 0)
(10.0582 -0.0853003 0)
(9.89192 -0.0718141 0)
(9.55871 -0.0649954 0)
(9.50879 -0.0895164 0)
(9.01729 -0.0883673 0)
(9.89126 -0.936713 0)
(10.0002 -0.477398 0)
(9.48018 -0.215274 0)
(8.75793 -0.127197 0)
(8.26598 -0.0797976 0)
(7.8895 -0.0465054 0)
(7.71483 -0.0396166 0)
(7.41831 -0.0392137 0)
(7.35469 -0.0549376 0)
(6.86809 -0.052759 0)
(8.68567 -0.857172 0)
(7.54602 -0.34462 0)
(6.62062 -0.117276 0)
(5.91419 -0.0539019 0)
(5.51599 -0.0289351 0)
(5.25238 -0.0163242 0)
(5.12436 -0.0149438 0)
(4.91337 -0.0176601 0)
(4.84664 -0.0252493 0)
(4.45988 -0.0222184 0)
(5.40415 -0.316798 0)
(3.31747 -0.0606733 0)
(2.58064 -0.00162632 0)
(2.23346 0.00230355 0)
(2.07855 0.00116338 0)
(1.98571 0.000547488 0)
(1.93806 -7.18308e-05 0)
(1.85305 -0.00179647 0)
(1.80293 -0.00212519 0)
(1.6364 0.00997147 0)
(2.61665 0.110847 0)
(2.88437 -0.0845929 0)
(3.55034 -0.344575 0)
(3.29469 -0.490858 0)
(3.88372 -0.508162 0)
(2.95981 0.055917 0)
(3.97233 0.116579 0)
(3.92239 0.314582 0)
(4.68644 0.370295 0)
(5.13 0.551522 0)
(5.77339 0.389807 0)
(6.56921 -0.0361782 0)
(6.639 -0.18488 0)
(7.30205 -0.633753 0)
(8.17185 -1.1905 0)
(8.43719 -1.25704 0)
(9.56985 -1.85185 0)
(10.5215 -2.84373 0)
(10.8125 -3.45954 0)
(11.0367 -4.09089 0)
(10.9649 -4.22719 0)
(9.19239 -3.01162 0)
(8.91472 -1.62782 0)
(9.35205 -0.911607 0)
(8.37141 0.766883 0)
(9.41473 1.89488 0)
(10.4641 1.81944 0)
(10.6381 1.41296 0)
(11.1205 0.302742 0)
(10.8656 -0.649493 0)
(10.6791 -1.21031 0)
(11.0208 -2.09744 0)
(11.207 -3.37889 0)
(11.0053 -4.95699 0)
(10.6553 -6.37666 0)
(9.57651 -6.86437 0)
(8.00985 -6.35345 0)
(6.29975 -5.65878 0)
(5.49698 -5.20325 0)
(4.73185 -5.4065 0)
(4.93658 -5.34712 0)
(4.64477 -5.5945 0)
(6.06537 -5.44496 0)
(6.2294 -4.2312 0)
(6.29549 -3.18183 0)
(5.97458 -2.54206 0)
(5.9336 -1.70262 0)
(7.12932 -0.368086 0)
(7.65506 1.0405 0)
(8.6238 2.71688 0)
(9.50984 4.64574 0)
(10.069 5.9337 0)
(10.2545 6.61934 0)
(10.4163 6.92009 0)
(10.2871 6.39635 0)
(10.0307 5.54794 0)
(9.97638 4.53259 0)
(9.3368 3.98201 0)
(9.13126 3.57848 0)
(8.36967 2.96173 0)
(7.89277 2.57258 0)
(8.42856 3.14999 0)
(8.19499 3.33382 0)
(8.05481 3.49992 0)
(6.72042 2.5505 0)
(7.69452 3.1892 0)
(7.04298 2.6993 0)
(8.78931 2.80115 0)
(8.54175 2.07881 0)
(9.80654 2.14923 0)
(8.1184 -0.418211 0)
(9.80211 -0.615982 0)
(7.58524 -2.03745 0)
(9.48678 -2.19256 0)
(7.28948 -3.83713 0)
(9.67765 -3.32207 0)
(7.29049 -3.02147 0)
(9.79076 -2.93393 0)
(7.09243 -3.86011 0)
(9.23085 -2.25779 0)
(6.46622 -4.3654 0)
(9.00986 -3.30599 0)
(6.30168 -5.2736 0)
(7.26645 -5.76349 0)
(7.13614 -5.46821 0)
(7.65236 -3.97721 0)
(8.16971 -2.89209 0)
(8.80203 -1.26356 0)
(8.64834 0.265932 0)
(8.55481 1.84317 0)
(8.61654 4.59847 0)
(8.62731 7.15624 0)
(8.07671 7.88887 0)
(7.1472 7.36646 0)
(6.10519 6.20886 0)
(5.88945 5.5036 0)
(5.90205 5.35832 0)
(5.54967 5.78417 0)
(5.74681 6.18548 0)
(3.11677 9.95722 0)
(5.22339 0.0735957 0)
(5.31808 -0.146731 0)
(5.70031 -0.376173 0)
(5.57867 -0.48534 0)
(6.02717 -0.502981 0)
(5.428 -0.0360237 0)
(6.04971 0.0435997 0)
(5.92397 0.229104 0)
(6.49623 0.179348 0)
(6.73201 0.323364 0)
(7.24016 0.196123 0)
(8.12986 -0.307555 0)
(7.97493 -0.393068 0)
(9.08069 -0.893722 0)
(9.747 -1.36427 0)
(9.8287 -1.51224 0)
(11.4579 -2.26871 0)
(11.8113 -3.04767 0)
(12.0001 -3.53477 0)
(12.1133 -4.07408 0)
(11.371 -3.9858 0)
(10.0921 -2.77393 0)
(9.84636 -1.65788 0)
(10.1095 -0.818094 0)
(9.23506 0.723089 0)
(10.1803 1.56639 0)
(10.8679 1.67077 0)
(11.0907 1.32167 0)
(11.5325 0.266139 0)
(11.2938 -0.593791 0)
(11.1707 -1.22474 0)
(11.3369 -2.13888 0)
(11.2524 -3.379 0)
(10.9171 -4.85139 0)
(10.4517 -6.0506 0)
(9.1606 -6.2893 0)
(7.40145 -5.67179 0)
(5.72717 -5.11013 0)
(4.96005 -4.92589 0)
(4.02408 -5.19188 0)
(4.09937 -5.40236 0)
(4.01165 -5.93181 0)
(5.11714 -5.65919 0)
(5.18289 -4.35332 0)
(5.84485 -3.20388 0)
(5.67965 -2.48046 0)
(5.30374 -1.87995 0)
(6.25056 -0.708916 0)
(6.64403 0.682371 0)
(7.47861 2.44041 0)
(8.39582 4.42708 0)
(9.10466 5.70517 0)
(9.24787 6.50578 0)
(9.72939 6.91366 0)
(9.74606 6.40473 0)
(9.59379 5.60693 0)
(9.55289 4.6833 0)
(9.01695 4.16513 0)
(8.80583 3.7895 0)
(8.42226 3.2413 0)
(7.68053 2.56276 0)
(8.44222 3.11147 0)
(8.24027 3.37899 0)
(8.56336 3.76435 0)
(7.21203 2.73205 0)
(7.90009 3.06158 0)
(7.28662 2.56724 0)
(8.77731 2.42147 0)
(8.57488 1.89418 0)
(10.0622 2.20313 0)
(7.99925 -0.295753 0)
(9.95468 -0.622088 0)
(7.289 -1.93055 0)
(9.44072 -2.19996 0)
(7.57107 -3.76924 0)
(9.36659 -3.19418 0)
(7.06594 -3.12902 0)
(9.71825 -3.105 0)
(6.8671 -3.71898 0)
(9.56501 -2.37329 0)
(6.59747 -4.16106 0)
(8.87908 -3.01992 0)
(5.86259 -5.2353 0)
(7.56377 -5.76416 0)
(7.21077 -5.61433 0)
(7.27674 -4.18784 0)
(7.50712 -3.03899 0)
(8.3003 -1.39768 0)
(8.53761 0.227922 0)
(8.07631 2.02713 0)
(8.37015 4.76519 0)
(8.28724 7.14018 0)
(7.73111 8.02626 0)
(7.40431 7.75765 0)
(6.8082 6.60937 0)
(5.85406 5.59478 0)
(6.21627 5.20472 0)
(5.58124 6.0995 0)
(7.4273 6.17343 0)
(4.77147 10.5457 0)
(7.54281 -0.0682435 0)
(7.79206 -0.215745 0)
(7.95044 -0.391026 0)
(7.87293 -0.491315 0)
(8.19722 -0.51816 0)
(7.76848 -0.141958 0)
(8.16045 -0.0382052 0)
(8.02928 0.161986 0)
(8.67475 0.0930244 0)
(8.66881 0.156109 0)
(9.05765 -0.0229347 0)
(10.0135 -0.486598 0)
(9.71761 -0.575467 0)
(10.787 -1.22376 0)
(11.3166 -1.57668 0)
(11.4626 -1.75331 0)
(12.8455 -2.58259 0)
(12.9527 -3.11731 0)
(12.8454 -3.49623 0)
(13.0519 -3.79464 0)
(11.7762 -3.52002 0)
(10.7329 -2.53942 0)
(10.7312 -1.64927 0)
(10.3573 -0.700901 0)
(9.71174 0.659089 0)
(10.7826 1.29091 0)
(11.1084 1.52322 0)
(11.4052 1.18248 0)
(11.8057 0.239025 0)
(11.4875 -0.557353 0)
(11.3753 -1.24657 0)
(11.4684 -2.12872 0)
(11.2357 -3.24644 0)
(10.8014 -4.64013 0)
(10.1502 -5.65092 0)
(8.62534 -5.66889 0)
(6.73384 -4.99721 0)
(5.18765 -4.56858 0)
(4.2627 -4.55032 0)
(3.24026 -4.93524 0)
(3.23668 -5.45777 0)
(2.89704 -6.12239 0)
(3.77362 -5.76918 0)
(3.93242 -4.5388 0)
(5.20734 -3.37801 0)
(5.25484 -2.41806 0)
(4.66486 -1.89898 0)
(5.2545 -0.933546 0)
(5.42879 0.44844 0)
(6.40658 2.18313 0)
(7.15197 4.11877 0)
(7.92468 5.41968 0)
(8.21119 6.33898 0)
(8.88074 6.77876 0)
(8.94872 6.33974 0)
(8.87091 5.62776 0)
(8.85292 4.8066 0)
(8.66283 4.28156 0)
(8.48138 3.89238 0)
(8.37868 3.41525 0)
(7.49998 2.54585 0)
(8.29187 3.01005 0)
(8.18746 3.28589 0)
(8.90442 3.85178 0)
(7.73248 2.95503 0)
(8.14527 2.96349 0)
(7.482 2.46925 0)
(8.7541 2.11137 0)
(8.48133 1.69738 0)
(10.2449 2.2074 0)
(7.78146 -0.181294 0)
(10.0261 -0.568643 0)
(7.25772 -1.75426 0)
(9.35248 -2.34009 0)
(7.8677 -3.79064 0)
(9.02133 -3.17814 0)
(7.58347 -3.00837 0)
(9.52118 -3.10443 0)
(7.07603 -3.48749 0)
(9.27573 -2.46959 0)
(6.51844 -4.06014 0)
(8.61701 -2.73216 0)
(5.34057 -5.10191 0)
(7.58666 -5.92385 0)
(7.2048 -5.58077 0)
(6.89945 -4.09207 0)
(6.8856 -3.34301 0)
(7.7222 -1.54533 0)
(8.05467 0.261724 0)
(7.76791 1.97981 0)
(7.84717 4.77419 0)
(7.84367 7.24342 0)
(7.34579 8.13222 0)
(7.33398 7.82487 0)
(7.47515 6.98187 0)
(6.17748 6.02851 0)
(6.48853 5.05654 0)
(5.49008 6.1746 0)
(8.42427 5.64433 0)
(6.12341 10.6803 0)
(9.44261 -0.169111 0)
(9.79198 -0.31875 0)
(9.89977 -0.378248 0)
(9.92696 -0.458243 0)
(10.1578 -0.500946 0)
(9.89549 -0.197173 0)
(10.1325 -0.0619972 0)
(9.88938 0.0612876 0)
(10.5371 -0.0415663 0)
(10.4967 0.0715437 0)
(10.9755 -0.194622 0)
(11.5227 -0.670639 0)
(11.4535 -0.750035 0)
(12.4192 -1.40169 0)
(12.5519 -1.731 0)
(12.8738 -1.95974 0)
(13.7576 -2.7811 0)
(13.6474 -3.14986 0)
(13.2706 -3.45327 0)
(13.2005 -3.57675 0)
(12.0101 -3.0849 0)
(11.2252 -2.38465 0)
(11.3493 -1.51369 0)
(10.2992 -0.403715 0)
(9.94592 0.542106 0)
(11.0658 1.03933 0)
(11.1293 1.42632 0)
(11.6971 1.06915 0)
(11.9257 0.259481 0)
(11.5858 -0.471225 0)
(11.6075 -1.20686 0)
(11.5176 -2.0305 0)
(11.0582 -3.09862 0)
(10.5586 -4.41999 0)
(9.75293 -5.19307 0)
(8.04459 -4.94508 0)
(6.10615 -4.28342 0)
(4.58731 -4.01045 0)
(3.43537 -4.11518 0)
(2.43975 -4.65013 0)
(2.10182 -5.39762 0)
(1.72046 -6.19859 0)
(2.55866 -5.99766 0)
(3.00765 -4.88289 0)
(4.37483 -3.65269 0)
(4.46497 -2.35157 0)
(3.95806 -1.76652 0)
(3.99116 -1.03476 0)
(4.06368 0.270655 0)
(5.17937 1.97162 0)
(5.86512 3.80734 0)
(6.62369 5.08475 0)
(7.05754 6.16258 0)
(7.83552 6.60263 0)
(7.92926 6.28147 0)
(8.10861 5.6509 0)
(8.22898 4.8046 0)
(8.34915 4.31141 0)
(8.03424 3.95924 0)
(8.17144 3.58381 0)
(7.30511 2.58343 0)
(8.04849 2.86356 0)
(8.01949 3.14331 0)
(9.03465 3.81873 0)
(8.10065 3.18729 0)
(8.43867 2.97389 0)
(7.63473 2.4166 0)
(8.89624 1.82261 0)
(8.22323 1.47848 0)
(10.4495 2.24916 0)
(7.68162 -0.0257517 0)
(10.0423 -0.609819 0)
(7.48548 -1.5387 0)
(9.48662 -2.52544 0)
(8.26961 -3.55392 0)
(8.73351 -3.17725 0)
(8.02232 -3.12635 0)
(9.05809 -3.09922 0)
(7.69582 -3.27399 0)
(8.77561 -2.34099 0)
(6.68497 -3.79054 0)
(8.1468 -2.37192 0)
(5.08811 -5.14052 0)
(7.06301 -5.97085 0)
(7.0315 -5.61834 0)
(6.7011 -3.80264 0)
(6.19079 -3.41688 0)
(6.95711 -1.83377 0)
(7.36219 0.220727 0)
(7.17362 2.07216 0)
(7.38587 4.71186 0)
(7.4328 7.28562 0)
(6.90253 8.17195 0)
(6.67325 7.74293 0)
(7.22107 6.98783 0)
(6.49605 6.37503 0)
(7.0787 4.99192 0)
(5.74288 6.24063 0)
(9.2617 4.93402 0)
(7.26288 10.463 0)
(11.0541 -0.21609 0)
(11.4031 -0.447165 0)
(11.4336 -0.408611 0)
(11.5184 -0.459287 0)
(11.64 -0.512608 0)
(11.6271 -0.23458 0)
(11.683 -0.0763534 0)
(11.5445 -0.0102819 0)
(12.0633 -0.108758 0)
(11.8579 -0.0731941 0)
(12.5305 -0.350911 0)
(12.7228 -0.728947 0)
(12.8151 -0.975115 0)
(13.4855 -1.52988 0)
(13.4286 -1.84196 0)
(13.8217 -2.1654 0)
(14.2707 -2.78283 0)
(13.9313 -3.02586 0)
(13.5707 -3.26514 0)
(13.0992 -3.26035 0)
(12.0097 -2.71183 0)
(11.5835 -2.25535 0)
(11.4307 -1.33768 0)
(10.238 -0.153178 0)
(10.436 0.414693 0)
(11.0564 0.876259 0)
(10.9696 1.2763 0)
(11.7948 0.925444 0)
(11.7413 0.314841 0)
(11.6045 -0.394645 0)
(11.6714 -1.16328 0)
(11.2472 -1.89625 0)
(10.7229 -2.93885 0)
(10.3159 -4.12339 0)
(9.27658 -4.62065 0)
(7.38114 -4.21544 0)
(5.49908 -3.57427 0)
(3.94799 -3.39804 0)
(2.63931 -3.64007 0)
(1.64599 -4.32129 0)
(0.933024 -5.29123 0)
(0.869944 -6.36423 0)
(1.45298 -6.34615 0)
(2.17209 -5.34242 0)
(3.16519 -3.96942 0)
(3.30887 -2.376 0)
(3.20451 -1.56341 0)
(2.79063 -1.00881 0)
(2.73153 0.040376 0)
(3.88121 1.71098 0)
(4.55531 3.49687 0)
(5.32912 4.76603 0)
(5.85797 5.97271 0)
(6.69181 6.35199 0)
(6.97516 6.12901 0)
(7.47122 5.54733 0)
(7.49575 4.76651 0)
(7.94786 4.35156 0)
(7.60655 4.02437 0)
(7.9473 3.66533 0)
(7.0813 2.66118 0)
(7.78321 2.72256 0)
(7.71758 2.93209 0)
(9.09314 3.6679 0)
(8.38345 3.31728 0)
(8.76045 2.98104 0)
(7.68591 2.37234 0)
(9.24449 1.65196 0)
(7.97976 1.26033 0)
(10.4069 2.26537 0)
(7.89065 0.168299 0)
(9.99977 -0.655511 0)
(8.01622 -1.38626 0)
(9.43709 -2.61149 0)
(8.48893 -3.51503 0)
(8.77298 -3.1613 0)
(8.41377 -2.99881 0)
(8.75368 -3.17871 0)
(8.01931 -3.08058 0)
(8.14983 -2.29393 0)
(6.71736 -3.61732 0)
(7.42361 -2.00802 0)
(5.30456 -5.23509 0)
(6.41262 -6.21883 0)
(6.65597 -5.69753 0)
(6.75096 -3.57136 0)
(5.70438 -3.50604 0)
(5.97294 -1.72084 0)
(6.34161 0.263719 0)
(6.44605 2.24538 0)
(6.61205 4.7773 0)
(6.97494 7.34389 0)
(6.59449 8.23076 0)
(6.48037 7.82919 0)
(6.51234 6.78828 0)
(6.43798 6.43202 0)
(7.66329 4.72442 0)
(5.96985 6.32227 0)
(9.34348 4.13294 0)
(8.13306 10.0053 0)
(12.3723 -0.253335 0)
(12.6465 -0.581139 0)
(12.6333 -0.479695 0)
(12.6965 -0.455156 0)
(12.6315 -0.546043 0)
(12.8141 -0.268186 0)
(12.657 -0.0768763 0)
(12.7026 -0.115305 0)
(13.0198 -0.14293 0)
(12.9268 -0.162812 0)
(13.4561 -0.453921 0)
(13.4737 -0.78669 0)
(13.782 -1.13448 0)
(14.0279 -1.54998 0)
(13.9741 -1.91485 0)
(14.2755 -2.29187 0)
(14.2666 -2.72386 0)
(13.8254 -2.94813 0)
(13.4514 -3.08256 0)
(12.8719 -2.94572 0)
(12.252 -2.49913 0)
(11.9987 -2.08335 0)
(11.2739 -1.04175 0)
(10.5687 -0.0480432 0)
(11.1203 0.298385 0)
(10.9492 0.864174 0)
(11.0261 1.12065 0)
(11.6181 0.806081 0)
(11.2927 0.358656 0)
(11.4502 -0.423872 0)
(11.2852 -1.09414 0)
(10.7187 -1.73483 0)
(10.4088 -2.80563 0)
(10.0129 -3.83147 0)
(8.7843 -3.99267 0)
(6.77676 -3.41989 0)
(4.86718 -2.8699 0)
(3.28843 -2.78565 0)
(1.92754 -3.13745 0)
(0.824959 -3.93654 0)
(0.00633361 -5.15597 0)
(-0.0888912 -6.46116 0)
(0.231622 -6.57551 0)
(1.04588 -5.62808 0)
(1.74239 -4.1624 0)
(2.02924 -2.57155 0)
(2.6157 -1.51321 0)
(1.96643 -0.955089 0)
(1.7454 -0.15275 0)
(2.6261 1.40811 0)
(3.23131 3.2232 0)
(3.87486 4.49225 0)
(4.71812 5.75077 0)
(5.60433 6.00427 0)
(5.97162 5.92009 0)
(6.63519 5.39603 0)
(6.85487 4.60816 0)
(7.47731 4.26836 0)
(7.02736 4.04126 0)
(7.65058 3.71325 0)
(6.77909 2.69962 0)
(7.63349 2.57936 0)
(7.36732 2.71381 0)
(8.94155 3.41437 0)
(8.48952 3.45837 0)
(9.07335 3.15344 0)
(7.72595 2.29622 0)
(9.61335 1.53923 0)
(7.96881 1.21349 0)
(10.0775 2.19126 0)
(8.43558 0.252515 0)
(9.74873 -0.681926 0)
(8.6073 -1.28764 0)
(9.37746 -2.60963 0)
(8.83778 -3.33079 0)
(8.77479 -3.22419 0)
(8.64111 -2.9761 0)
(8.5528 -3.12158 0)
(8.18507 -2.8105 0)
(8.00057 -2.06991 0)
(6.27561 -3.28038 0)
(6.85191 -1.81521 0)
(5.63351 -5.22011 0)
(5.80496 -6.4809 0)
(6.0473 -5.85731 0)
(6.70808 -3.18097 0)
(5.0402 -3.5918 0)
(5.3408 -1.81183 0)
(5.83065 0.0301428 0)
(5.9437 2.07583 0)
(5.7753 4.63148 0)
(6.50316 7.18152 0)
(6.25554 8.15196 0)
(6.32042 7.99221 0)
(6.52423 6.74388 0)
(6.03221 6.50314 0)
(8.14285 4.42718 0)
(5.97188 6.47106 0)
(9.02388 3.32317 0)
(8.57393 9.45778 0)
(13.2837 -0.288408 0)
(13.3642 -0.654471 0)
(13.3636 -0.556993 0)
(13.3082 -0.441297 0)
(13.1575 -0.548996 0)
(13.3321 -0.289029 0)
(13.0726 -0.0933283 0)
(13.2288 -0.187575 0)
(13.3435 -0.169313 0)
(13.4711 -0.301735 0)
(13.7387 -0.516005 0)
(13.8334 -0.831212 0)
(14.1448 -1.28241 0)
(14.0989 -1.54495 0)
(14.1561 -1.97761 0)
(14.3197 -2.3429 0)
(13.9521 -2.54202 0)
(13.6302 -2.80887 0)
(13.3395 -2.86551 0)
(12.7951 -2.71251 0)
(12.5512 -2.43342 0)
(12.1679 -1.88678 0)
(11.4051 -0.843854 0)
(11.4455 -0.146623 0)
(11.5243 0.331728 0)
(10.8509 1.00007 0)
(11.2063 0.977477 0)
(11.2321 0.775271 0)
(10.8771 0.387837 0)
(11.0878 -0.40416 0)
(10.7101 -0.914756 0)
(10.377 -1.61157 0)
(10.2714 -2.68699 0)
(9.66096 -3.41842 0)
(8.14489 -3.30438 0)
(6.17766 -2.64107 0)
(4.27573 -2.14648 0)
(2.70276 -2.155 0)
(1.31865 -2.60338 0)
(0.11318 -3.51355 0)
(-0.835988 -4.9677 0)
(-1.26839 -6.43974 0)
(-1.01773 -6.83144 0)
(-0.156884 -5.84772 0)
(0.547738 -4.23776 0)
(0.842243 -2.79968 0)
(1.95957 -1.54266 0)
(1.40898 -0.849532 0)
(0.971091 -0.212326 0)
(1.41986 1.1786 0)
(2.05487 2.91135 0)
(2.61087 4.14112 0)
(3.56954 5.41384 0)
(4.52786 5.62142 0)
(5.01071 5.66142 0)
(5.84408 5.13785 0)
(5.95457 4.50369 0)
(6.76222 4.24171 0)
(6.52974 3.98579 0)
(7.31539 3.6823 0)
(6.5059 2.71896 0)
(7.4672 2.45779 0)
(7.04711 2.49902 0)
(8.79625 3.06669 0)
(8.44783 3.38299 0)
(9.36511 3.27937 0)
(7.99908 2.25369 0)
(9.80318 1.44544 0)
(8.23489 1.25443 0)
(9.53055 2.11384 0)
(9.19804 0.29019 0)
(9.40896 -0.747943 0)
(8.95542 -1.23543 0)
(9.45377 -2.644 0)
(9.27269 -3.31196 0)
(8.98059 -3.07804 0)
(8.78701 -2.92091 0)
(8.65145 -3.00293 0)
(7.71388 -2.61949 0)
(8.13693 -1.88451 0)
(5.51151 -2.90746 0)
(6.57804 -1.75474 0)
(5.61897 -4.9417 0)
(5.39818 -6.39369 0)
(4.97281 -5.96273 0)
(6.39369 -2.88194 0)
(4.29256 -3.42606 0)
(4.82813 -1.74093 0)
(5.01419 -0.119908 0)
(4.88665 2.19958 0)
(5.20268 4.67326 0)
(5.55296 7.15192 0)
(5.94859 7.99961 0)
(5.93461 8.13165 0)
(7.28867 6.58978 0)
(6.12469 6.57619 0)
(8.96383 4.12081 0)
(6.43417 6.57271 0)
(8.95998 2.68522 0)
(8.87673 8.70665 0)
(13.5852 -0.307071 0)
(13.4891 -0.603773 0)
(13.4894 -0.524105 0)
(13.2638 -0.401953 0)
(13.2094 -0.48705 0)
(13.2657 -0.243803 0)
(13.0974 -0.12227 0)
(13.1874 -0.228384 0)
(13.38 -0.223867 0)
(13.5756 -0.389006 0)
(13.6192 -0.5888 0)
(13.8998 -0.920206 0)
(14.1086 -1.31885 0)
(13.917 -1.55192 0)
(14.0827 -2.02649 0)
(14.0105 -2.2791 0)
(13.5692 -2.36744 0)
(13.5402 -2.71363 0)
(13.3253 -2.73315 0)
(12.9821 -2.58164 0)
(12.8959 -2.33055 0)
(12.2356 -1.6575 0)
(11.8042 -0.818436 0)
(12.0636 -0.199294 0)
(11.3881 0.577717 0)
(10.8995 1.09566 0)
(11.2762 0.95396 0)
(10.7193 0.883452 0)
(10.5749 0.388756 0)
(10.7772 -0.308586 0)
(10.4139 -0.721197 0)
(10.3325 -1.5095 0)
(10.0563 -2.52453 0)
(9.12295 -2.96383 0)
(7.47526 -2.57315 0)
(5.55137 -1.85954 0)
(3.66371 -1.43988 0)
(2.17655 -1.5525 0)
(0.806293 -2.04695 0)
(-0.418449 -3.02718 0)
(-1.5849 -4.67141 0)
(-2.16817 -6.40415 0)
(-2.21237 -7.10066 0)
(-1.31708 -6.11616 0)
(-0.430131 -4.4892 0)
(-0.104154 -3.13332 0)
(1.08822 -1.62922 0)
(0.617639 -0.691569 0)
(0.184598 -0.136094 0)
(0.275409 1.06496 0)
(1.00432 2.70901 0)
(1.44117 3.86045 0)
(2.54885 5.03658 0)
(3.58907 5.25751 0)
(3.97963 5.43191 0)
(4.98731 4.90562 0)
(5.28329 4.30389 0)
(6.42075 3.98082 0)
(6.05008 3.88688 0)
(6.97352 3.63917 0)
(6.26333 2.63624 0)
(7.20656 2.37104 0)
(6.74096 2.28278 0)
(8.53597 2.7448 0)
(8.20863 3.319 0)
(9.35001 3.36013 0)
(8.26125 2.21436 0)
(9.8828 1.38377 0)
(8.58034 1.43136 0)
(9.08466 1.88572 0)
(9.7208 0.228389 0)
(9.37618 -0.630145 0)
(9.08148 -1.35135 0)
(9.88321 -2.61405 0)
(9.60758 -3.31336 0)
(9.22564 -3.0003 0)
(8.83969 -2.73293 0)
(9.01335 -2.79334 0)
(7.20059 -2.33676 0)
(8.35406 -1.59369 0)
(4.61888 -2.38381 0)
(6.41844 -1.98271 0)
(5.22837 -4.44951 0)
(5.05969 -6.13681 0)
(3.527 -6.20753 0)
(6.07836 -2.76195 0)
(3.57956 -3.1586 0)
(3.85281 -1.6985 0)
(3.96843 -0.361018 0)
(4.03401 2.27124 0)
(4.51077 4.51733 0)
(4.75555 6.9228 0)
(5.45921 7.54998 0)
(5.55337 7.96813 0)
(7.49766 6.00799 0)
(6.28846 6.39662 0)
(9.363 3.67247 0)
(7.17951 6.67613 0)
(8.71784 2.39959 0)
(8.80756 7.88856 0)
(13.3691 -0.295082 0)
(13.1513 -0.475172 0)
(13.2265 -0.441977 0)
(13.0617 -0.353833 0)
(13.0688 -0.404521 0)
(13.1987 -0.25951 0)
(13.1096 -0.170183 0)
(13.2212 -0.275737 0)
(13.466 -0.327741 0)
(13.5327 -0.460706 0)
(13.6146 -0.662697 0)
(13.8379 -0.983549 0)
(13.909 -1.34748 0)
(13.8091 -1.5707 0)
(13.8999 -1.98222 0)
(13.6487 -2.15787 0)
(13.4589 -2.27299 0)
(13.5934 -2.67984 0)
(13.3446 -2.65381 0)
(13.0201 -2.52281 0)
(12.8827 -2.27327 0)
(12.287 -1.48795 0)
(12.0032 -0.753261 0)
(11.8068 -0.0358443 0)
(10.918 0.842834 0)
(10.9241 1.12474 0)
(11.0047 1.07329 0)
(10.3549 0.992777 0)
(10.579 0.340412 0)
(10.624 -0.191168 0)
(10.204 -0.624399 0)
(10.1435 -1.51381 0)
(9.65902 -2.27683 0)
(8.43066 -2.38134 0)
(6.73702 -1.83677 0)
(4.89682 -1.11141 0)
(3.09931 -0.775401 0)
(1.77596 -0.98807 0)
(0.409835 -1.50809 0)
(-0.798054 -2.54327 0)
(-2.06497 -4.31319 0)
(-2.82869 -6.28321 0)
(-3.4206 -7.15886 0)
(-2.65594 -6.38827 0)
(-1.49411 -4.93927 0)
(-1.08276 -3.55277 0)
(-0.00419702 -1.82842 0)
(-0.253182 -0.557141 0)
(-0.456074 -0.0589205 0)
(-0.743413 0.936316 0)
(-0.118985 2.46768 0)
(0.360783 3.53753 0)
(1.6281 4.54654 0)
(2.76288 4.91155 0)
(3.21708 5.11187 0)
(4.50227 4.5294 0)
(4.68393 4.07654 0)
(5.88639 3.87546 0)
(5.58783 3.82736 0)
(6.73768 3.49207 0)
(5.78614 2.60507 0)
(6.73021 2.2781 0)
(6.63201 2.05401 0)
(8.10781 2.32645 0)
(7.96938 3.07667 0)
(9.20742 3.29219 0)
(8.44637 2.08723 0)
(9.85798 1.26988 0)
(8.82796 1.63538 0)
(9.0819 1.69266 0)
(9.91707 0.106307 0)
(9.49495 -0.488952 0)
(9.27463 -1.433 0)
(10.2232 -2.71922 0)
(9.9243 -3.15528 0)
(9.23401 -2.84221 0)
(8.83443 -2.6076 0)
(8.98659 -2.4692 0)
(6.94337 -2.10857 0)
(8.22838 -1.18684 0)
(4.24355 -1.6973 0)
(5.7358 -2.25884 0)
(4.45604 -4.24404 0)
(4.29891 -5.72586 0)
(2.00708 -6.36364 0)
(5.3294 -2.84642 0)
(2.8061 -2.87456 0)
(2.81885 -1.34424 0)
(2.65161 -0.555491 0)
(3.14563 2.42922 0)
(3.43038 4.32086 0)
(3.9406 6.92645 0)
(4.64391 7.16829 0)
(4.93734 7.69835 0)
(7.20313 5.53948 0)
(5.86635 6.34263 0)
(8.89608 3.24328 0)
(7.42322 6.97906 0)
(8.57941 2.47558 0)
(8.79341 6.91615 0)
(13.0268 -0.217018 0)
(13.0367 -0.346632 0)
(13.3329 -0.398992 0)
(13.1882 -0.358102 0)
(13.2487 -0.378489 0)
(13.3828 -0.301494 0)
(13.1846 -0.249885 0)
(13.2967 -0.331219 0)
(13.4107 -0.351934 0)
(13.4345 -0.50668 0)
(13.546 -0.725628 0)
(13.695 -0.983158 0)
(13.7335 -1.3434 0)
(13.7024 -1.5775 0)
(13.6475 -1.86773 0)
(13.4326 -2.08504 0)
(13.4894 -2.2782 0)
(13.4847 -2.62934 0)
(13.1115 -2.58472 0)
(12.8316 -2.43212 0)
(12.5194 -2.1295 0)
(11.9144 -1.3053 0)
(11.6343 -0.551412 0)
(11.1595 0.202418 0)
(10.5504 0.968003 0)
(10.7753 1.19094 0)
(10.5484 1.23261 0)
(10.272 0.984333 0)
(10.5472 0.301609 0)
(10.2145 -0.0631662 0)
(9.93068 -0.526732 0)
(9.85375 -1.38968 0)
(9.0412 -1.90664 0)
(7.65173 -1.74757 0)
(6.0202 -1.09818 0)
(4.26021 -0.410291 0)
(2.69535 -0.173791 0)
(1.53008 -0.454444 0)
(0.222323 -0.979772 0)
(-0.870432 -2.04934 0)
(-2.21264 -3.86763 0)
(-3.27752 -5.98644 0)
(-4.3786 -7.13129 0)
(-3.92861 -6.72657 0)
(-2.71947 -5.303 0)
(-2.36032 -3.77009 0)
(-1.35819 -1.98962 0)
(-1.21503 -0.568971 0)
(-1.12832 0.0180979 0)
(-1.62026 0.965818 0)
(-1.09735 2.22938 0)
(-0.51891 3.14427 0)
(0.614268 4.02406 0)
(1.9473 4.56909 0)
(2.5627 4.67843 0)
(3.71063 4.16489 0)
(3.95119 3.82878 0)
(5.36018 3.539 0)
(5.08859 3.63682 0)
(6.21476 3.41967 0)
(5.28916 2.57498 0)
(6.43933 2.05542 0)
(6.44853 1.77877 0)
(7.65386 2.06727 0)
(7.56081 2.84996 0)
(8.84478 3.14539 0)
(8.5076 1.94616 0)
(9.70337 1.17389 0)
(8.8385 1.79499 0)
(9.41547 1.48777 0)
(9.90261 0.0695864 0)
(9.61878 -0.443906 0)
(9.55218 -1.52582 0)
(10.3951 -2.8087 0)
(9.92169 -3.0292 0)
(9.05025 -2.55237 0)
(8.79054 -2.50424 0)
(8.76472 -2.07543 0)
(6.9534 -1.83866 0)
(7.52176 -0.847983 0)
(4.5817 -1.05699 0)
(4.54785 -2.12034 0)
(3.46083 -4.32657 0)
(3.24365 -5.23278 0)
(0.783744 -6.29711 0)
(4.10366 -3.04205 0)
(2.07638 -2.5554 0)
(2.23944 -1.46884 0)
(2.02695 -0.87984 0)
(2.21035 2.50293 0)
(2.6237 3.77033 0)
(3.34968 6.76054 0)
(4.50084 6.69679 0)
(4.01022 7.52657 0)
(7.11963 5.16411 0)
(5.76888 6.29236 0)
(8.43541 2.84334 0)
(7.58239 6.8233 0)
(8.73013 2.46233 0)
(9.09768 5.84358 0)
(13.1586 -0.235874 0)
(13.3593 -0.353708 0)
(13.5498 -0.397454 0)
(13.3606 -0.384284 0)
(13.2668 -0.331234 0)
(13.2632 -0.285049 0)
(13.0909 -0.282992 0)
(13.0864 -0.308369 0)
(13.2578 -0.393099 0)
(13.3792 -0.583741 0)
(13.4651 -0.770351 0)
(13.6507 -0.990097 0)
(13.6691 -1.34696 0)
(13.5238 -1.54423 0)
(13.4507 -1.74586 0)
(13.3261 -2.06517 0)
(13.2745 -2.3065 0)
(13.0333 -2.51813 0)
(12.6381 -2.45845 0)
(12.286 -2.28132 0)
(11.7037 -1.90461 0)
(11.0717 -1.10236 0)
(10.8786 -0.402317 0)
(10.4544 0.319679 0)
(10.2259 1.00441 0)
(10.4313 1.23392 0)
(10.0958 1.29935 0)
(10.1309 0.931961 0)
(10.1807 0.373922 0)
(9.67084 0.0988695 0)
(9.57624 -0.482722 0)
(9.37474 -1.20814 0)
(8.22935 -1.40924 0)
(6.72795 -1.08927 0)
(5.25484 -0.413863 0)
(3.7031 0.205354 0)
(2.45674 0.346131 0)
(1.36525 0.0512298 0)
(0.333522 -0.521574 0)
(-0.612073 -1.56109 0)
(-1.99482 -3.35989 0)
(-3.19063 -5.59827 0)
(-4.84212 -6.95108 0)
(-5.00889 -6.96545 0)
(-3.96864 -5.57364 0)
(-3.5395 -3.8547 0)
(-2.66426 -2.0531 0)
(-2.25614 -0.66784 0)
(-1.76155 0.121894 0)
(-2.25331 1.03396 0)
(-1.77281 1.97828 0)
(-1.24895 2.80597 0)
(-0.356784 3.52438 0)
(1.0505 4.16167 0)
(1.63164 4.31878 0)
(2.79405 3.83537 0)
(3.34223 3.49615 0)
(4.32408 3.33313 0)
(4.45362 3.57597 0)
(5.54114 3.29824 0)
(4.82661 2.49645 0)
(6.27852 1.84133 0)
(6.15483 1.5912 0)
(7.25759 1.73744 0)
(7.32787 2.57566 0)
(8.34837 2.86627 0)
(8.47601 1.67764 0)
(9.57125 1.13272 0)
(8.65495 1.84575 0)
(9.74298 1.21143 0)
(9.72044 0.100362 0)
(9.78053 -0.433956 0)
(9.66262 -1.75253 0)
(10.6237 -2.80801 0)
(9.57658 -2.78189 0)
(8.95729 -2.35365 0)
(8.68041 -2.3295 0)
(8.54917 -1.82628 0)
(7.07768 -1.4119 0)
(6.69286 -0.50273 0)
(4.89263 -0.406823 0)
(4.2191 -1.84641 0)
(3.14477 -3.99808 0)
(2.44498 -4.85231 0)
(0.322268 -6.46976 0)
(2.83899 -3.05193 0)
(2.17673 -2.14043 0)
(1.22294 -0.979117 0)
(0.884525 -1.00594 0)
(1.62974 2.54525 0)
(1.58509 3.29746 0)
(2.37334 6.77605 0)
(4.39809 6.15769 0)
(3.42849 7.17595 0)
(7.14566 4.43573 0)
(6.27109 5.97005 0)
(8.13559 2.59249 0)
(7.92192 6.40321 0)
(9.15069 2.52258 0)
(9.38591 4.86812 0)
(13.4139 -0.309001 0)
(13.4239 -0.300342 0)
(13.4384 -0.30224 0)
(13.2247 -0.329925 0)
(13.022 -0.201942 0)
(13.134 -0.259968 0)
(13.0006 -0.328051 0)
(13.0466 -0.343927 0)
(13.312 -0.46382 0)
(13.3771 -0.640167 0)
(13.4368 -0.807118 0)
(13.5278 -0.981564 0)
(13.4032 -1.26099 0)
(13.175 -1.45987 0)
(13.052 -1.70022 0)
(12.9086 -2.01263 0)
(12.6852 -2.17637 0)
(12.2102 -2.33334 0)
(11.7067 -2.3045 0)
(11.1473 -2.03345 0)
(10.433 -1.61103 0)
(9.97389 -0.96316 0)
(9.75306 -0.282062 0)
(9.40966 0.436805 0)
(9.4855 0.975891 0)
(9.5558 1.28443 0)
(9.36174 1.34954 0)
(9.58269 0.888038 0)
(9.41156 0.499163 0)
(9.03152 0.227656 0)
(9.08875 -0.415431 0)
(8.57025 -0.903016 0)
(7.15741 -0.83406 0)
(5.7249 -0.445081 0)
(4.50865 0.167617 0)
(3.29909 0.698523 0)
(2.32615 0.785586 0)
(1.43173 0.455718 0)
(0.707866 -0.135308 0)
(-0.161691 -1.08577 0)
(-1.27677 -2.84092 0)
(-2.62536 -4.99264 0)
(-4.86129 -6.48434 0)
(-5.80125 -7.02954 0)
(-5.15289 -5.96781 0)
(-4.41065 -4.21406 0)
(-3.71563 -2.45177 0)
(-3.04019 -0.990589 0)
(-2.4052 0.0384651 0)
(-2.75643 0.948512 0)
(-2.16674 1.72681 0)
(-1.66566 2.57594 0)
(-0.912643 3.08513 0)
(0.342051 3.82416 0)
(0.910981 3.87582 0)
(2.34734 3.45051 0)
(2.42101 3.28044 0)
(3.64793 3.00922 0)
(4.22694 3.28055 0)
(4.74028 3.16937 0)
(4.80036 2.28336 0)
(6.2681 1.56724 0)
(5.84857 1.41063 0)
(7.05624 1.52476 0)
(6.96666 2.34599 0)
(8.00146 2.61595 0)
(8.3895 1.47399 0)
(9.33282 1.13464 0)
(8.40151 1.76513 0)
(9.84914 1.00407 0)
(9.41801 0.129172 0)
(9.87579 -0.508401 0)
(9.85071 -1.88459 0)
(10.5612 -2.7349 0)
(9.14522 -2.4635 0)
(8.72793 -2.2298 0)
(8.53417 -2.15214 0)
(8.17613 -1.56423 0)
(6.96342 -0.940646 0)
(6.09541 -0.0994102 0)
(4.31967 0.0446435 0)
(4.57575 -1.52865 0)
(3.27062 -3.34366 0)
(1.86814 -4.25679 0)
(0.609345 -6.29469 0)
(1.48281 -3.81841 0)
(2.86356 -2.04313 0)
(1.11981 -0.995417 0)
(-0.281259 -1.08795 0)
(0.916374 2.57106 0)