/*--------------------------------*- C++ -*----------------------------------*\
| =========                 |                                                 |
| \\      /  F ield         | OpenFOAM: The Open Source CFD Toolbox           |
|  \\    /   O peration     | Version:  2.4.0                                 |
|   \\  /    A nd           | Web:      www.OpenFOAM.org                      |
|    \\/     M anipulation  |                                                 |
\*---------------------------------------------------------------------------*/
FoamFile
{
    version     2.0;
    format      ascii;
    class       volSymmTensorField;
    location    "0.183";
    object      UPrime2Mean;
}
// * * * * * * * * * * * * * * * * * * * * * * * * * * * * * * * * * * * * * //

dimensions      [0 2 -2 0 0 0 0];

internalField   nonuniform List<symmTensor> 
4400
(
(0.0329121 -0.00327173 0 0.000560921 0 0)
(0.35952 -0.00084775 0 4.7082e-05 0 0)
(0.407483 -0.000572213 0 2.16665e-06 0 0)
(0.458517 -0.000372655 0 1.13121e-06 0 0)
(0.494115 -2.24342e-05 0 5.4698e-07 0 0)
(0.515142 2.80864e-05 0 8.52158e-07 0 0)
(0.526899 -2.40891e-05 0 9.56682e-07 0 0)
(0.559439 4.9521e-05 0 3.38839e-06 0 0)
(0.626129 -0.00992495 0 0.000214868 0 0)
(1.01911 0.0576349 0 0.00720004 0 0)
(0.0227527 0.0097209 0 0.00592021 0 0)
(0.147714 -0.0115535 0 0.00102417 0 0)
(0.212536 -0.0068641 0 0.000225865 0 0)
(0.298821 -0.00573441 0 0.000137542 0 0)
(0.386703 -0.003976 0 9.23147e-05 0 0)
(0.463356 -0.00245284 0 3.27445e-05 0 0)
(0.487822 -0.00256446 0 5.50514e-05 0 0)
(0.634922 -0.00358399 0 9.73133e-05 0 0)
(0.526921 -0.0102956 0 0.000753702 0 0)
(1.84949 -0.192858 0 0.0468021 0 0)
(0.0760137 0.0243609 0 0.00823982 0 0)
(0.0258143 -0.00664882 0 0.00253126 0 0)
(0.0474978 -0.00592652 0 0.000931701 0 0)
(0.0899964 -0.00756358 0 0.000683079 0 0)
(0.156038 -0.0073936 0 0.000522268 0 0)
(0.243608 -0.00547238 0 0.000195558 0 0)
(0.261836 -0.00683523 0 0.000381118 0 0)
(0.445891 -0.00182487 0 0.000370014 0 0)
(0.32143 -0.032715 0 0.0056634 0 0)
(1.2829 -0.189282 0 0.0752948 0 0)
(0.095944 0.0242118 0 0.00636602 0 0)
(0.00409857 0.000720454 0 0.00327813 0 0)
(0.014604 0.0017717 0 0.00163121 0 0)
(0.0137547 -0.000652446 0 0.00155493 0 0)
(0.0189815 -0.00333309 0 0.00145222 0 0)
(0.0590079 -0.00444151 0 0.00048328 0 0)
(0.0538835 -0.00640063 0 0.00116373 0 0)
(0.168135 -0.000981283 0 0.000757841 0 0)
(0.123265 -0.0235187 0 0.0100765 0 0)
(0.409687 -0.0764841 0 0.0752419 0 0)
(0.0918126 0.0186414 0 0.0039828 0 0)
(0.0068757 0.00248237 0 0.00261967 0 0)
(0.0385147 0.00616355 0 0.0014744 0 0)
(0.0538076 0.00777617 0 0.00191207 0 0)
(0.0500061 0.00628416 0 0.00217442 0 0)
(0.0356569 0.0016946 0 0.00109967 0 0)
(0.0334416 0.000899182 0 0.00141853 0 0)
(0.0344532 -0.00121505 0 0.00170467 0 0)
(0.0506071 -6.04254e-05 0 0.00834584 0 0)
(0.10746 0.00381062 0 0.106539 0 0)
(0.0927384 0.0147277 0 0.00251016 0 0)
(0.00880396 0.0017808 0 0.00183857 0 0)
(0.043938 0.00509719 0 0.000905009 0 0)
(0.0798234 0.00867128 0 0.00152146 0 0)
(0.10875 0.0111089 0 0.00218568 0 0)
(0.104511 0.0069379 0 0.00110451 0 0)
(0.114913 0.00935251 0 0.00225888 0 0)
(0.105053 0.00449182 0 0.00169085 0 0)
(0.105148 0.0271938 0 0.0141743 0 0)
(0.150123 0.0603409 0 0.0704818 0 0)
(0.0940091 0.0113896 0 0.00152598 0 0)
(0.00736153 0.00113514 0 0.00128174 0 0)
(0.0392164 0.00343892 0 0.000545884 0 0)
(0.0775112 0.00632978 0 0.000888783 0 0)
(0.113828 0.00919506 0 0.00135971 0 0)
(0.129642 0.00724985 0 0.00128429 0 0)
(0.164425 0.0092514 0 0.00138621 0 0)
(0.173205 0.0123457 0 0.00323671 0 0)
(0.21011 0.0317896 0 0.00806398 0 0)
(0.254084 0.0999843 0 0.083697 0 0)
(0.0899674 0.00768536 0 0.00078581 0 0)
(0.00407515 0.000634381 0 0.000913613 0 0)
(0.0345347 0.00189215 0 0.000416493 0 0)
(0.0747426 0.00437102 0 0.00073698 0 0)
(0.105661 0.00569639 0 0.00112409 0 0)
(0.131621 0.00463883 0 0.000918777 0 0)
(0.157657 0.00793999 0 0.00132545 0 0)
(0.194995 0.00933687 0 0.00227203 0 0)
(0.232254 0.0348301 0 0.00960454 0 0)
(0.334122 0.1104 0 0.0701672 0 0)
(0.0880439 0.00463591 0 0.00033773 0 0)
(0.00347673 0.000163443 0 0.00042438 0 0)
(0.0323685 0.000899406 0 0.00027843 0 0)
(0.0727852 0.00218135 0 0.000422188 0 0)
(0.0998925 0.00322713 0 0.000678907 0 0)
(0.12713 0.00287608 0 0.000843483 0 0)
(0.151682 0.00445626 0 0.000925643 0 0)
(0.193437 0.00985511 0 0.00245094 0 0)
(0.234999 0.0315338 0 0.00694706 0 0)
(0.34611 0.0993027 0 0.0498014 0 0)
(0.0881604 0.0013844 0 9.15715e-05 0 0)
(0.0032234 -3.90094e-05 0 0.00020493 0 0)
(0.0317076 0.000143664 0 0.000187861 0 0)
(0.071353 0.000858296 0 0.000269391 0 0)
(0.0985951 0.000858563 0 0.00044266 0 0)
(0.125055 0.000651355 0 0.000572585 0 0)
(0.150628 0.00279959 0 0.000521649 0 0)
(0.192224 0.00821773 0 0.00175944 0 0)
(0.239427 0.0270563 0 0.00556211 0 0)
(0.3564 0.0949686 0 0.0438691 0 0)
(0.0880572 -0.00158275 0 7.98282e-05 0 0)
(0.00303189 -0.000283282 0 0.000167306 0 0)
(0.0313473 -0.000570727 0 0.000154453 0 0)
(0.0709774 -0.00104856 0 0.000207989 0 0)
(0.097869 -0.00127565 0 0.000329953 0 0)
(0.124783 -0.00139324 0 0.00050606 0 0)
(0.150136 0.000605816 0 0.000386105 0 0)
(0.194703 0.00553423 0 0.00143674 0 0)
(0.245903 0.024342 0 0.00436552 0 0)
(0.374755 0.0834281 0 0.0311741 0 0)
(0.0885774 -0.00483731 0 0.000324056 0 0)
(0.00315267 -0.000586604 0 0.00038516 0 0)
(0.032371 -0.00151194 0 0.0002123 0 0)
(0.0718615 -0.00282664 0 0.000289363 0 0)
(0.0999001 -0.0038655 0 0.000437194 0 0)
(0.126481 -0.0039462 0 0.000619027 0 0)
(0.153875 -0.00190291 0 0.00035787 0 0)
(0.19964 0.00324891 0 0.00124281 0 0)
(0.257036 0.0190339 0 0.00322787 0 0)
(0.392745 0.0699392 0 0.022849 0 0)
(0.0904955 -0.00799945 0 0.00078031 0 0)
(0.00319562 -0.000798461 0 0.000807772 0 0)
(0.0342707 -0.00241128 0 0.000346157 0 0)
(0.0720842 -0.00460329 0 0.000536627 0 0)
(0.104912 -0.00629142 0 0.000748058 0 0)
(0.128516 -0.00607196 0 0.000848072 0 0)
(0.161599 -0.00418139 0 0.00046189 0 0)
(0.204346 0.000229233 0 0.00114633 0 0)
(0.269486 0.0142898 0 0.00231475 0 0)
(0.403054 0.0554454 0 0.0161063 0 0)
(0.0921737 -0.0114804 0 0.00152637 0 0)
(0.00380754 -0.000970796 0 0.00128024 0 0)
(0.0376924 -0.0036155 0 0.000550739 0 0)
(0.0729482 -0.00638671 0 0.000864445 0 0)
(0.11311 -0.00914219 0 0.0011919 0 0)
(0.127563 -0.00812072 0 0.00118434 0 0)
(0.16577 -0.00674808 0 0.000693438 0 0)
(0.188635 -0.00195073 0 0.00107192 0 0)
(0.250741 0.00942303 0 0.00166407 0 0)
(0.344183 0.0396957 0 0.0102663 0 0)
(0.0905565 -0.0147734 0 0.00254117 0 0)
(0.00454735 -0.00149419 0 0.00181143 0 0)
(0.040848 -0.00518049 0 0.000927926 0 0)
(0.0744859 -0.0085582 0 0.00142263 0 0)
(0.10554 -0.0110003 0 0.00178212 0 0)
(0.0998656 -0.0080988 0 0.00153374 0 0)
(0.115925 -0.00626819 0 0.000829664 0 0)
(0.109917 -0.00154967 0 0.00102064 0 0)
(0.139094 0.00614257 0 0.00125632 0 0)
(0.187567 0.0242785 0 0.00615782 0 0)
(0.0915132 -0.0187014 0 0.00400013 0 0)
(0.00492364 -0.00230494 0 0.00261083 0 0)
(0.0364575 -0.00620528 0 0.00151086 0 0)
(0.0499292 -0.00761987 0 0.00190652 0 0)
(0.0468258 -0.00636096 0 0.00190913 0 0)
(0.029941 -0.00208063 0 0.00135451 0 0)
(0.0296214 -0.00100926 0 0.000648087 0 0)
(0.0291752 0.00151549 0 0.0006936 0 0)
(0.0376262 0.00284528 0 0.000835877 0 0)
(0.070625 0.0120342 0 0.00369546 0 0)
(0.0959886 -0.0242651 0 0.00638575 0 0)
(0.00361078 -0.00062718 0 0.00327011 0 0)
(0.0135022 -0.00180745 0 0.00166326 0 0)
(0.0116233 0.000762361 0 0.00153242 0 0)
(0.0172922 0.00338981 0 0.00122667 0 0)
(0.0454859 0.0046622 0 0.000743819 0 0)
(0.0663588 0.00307272 0 0.000306239 0 0)
(0.095363 0.00250116 0 0.00036074 0 0)
(0.0991168 -0.00115706 0 0.000503471 0 0)
(0.10505 0.00326148 0 0.0021861 0 0)
(0.0760013 -0.0243719 0 0.0082472 0 0)
(0.0259441 0.00667401 0 0.00252536 0 0)
(0.046755 0.00594544 0 0.000944792 0 0)
(0.089944 0.00758078 0 0.000674201 0 0)
(0.153817 0.00734614 0 0.000464212 0 0)
(0.23301 0.00539975 0 0.000251057 0 0)
(0.271145 0.00292679 0 9.24387e-05 0 0)
(0.314335 0.00136325 0 0.000134134 0 0)
(0.306313 -0.00388227 0 0.000250697 0 0)
(0.275365 0.00269591 0 0.00101567 0 0)
(0.0227435 -0.00971901 0 0.00592267 0 0)
(0.147938 0.0115528 0 0.00102324 0 0)
(0.212215 0.00689127 0 0.000228777 0 0)
(0.29946 0.00571026 0 0.000135155 0 0)
(0.384901 0.0039664 0 8.12327e-05 0 0)
(0.458015 0.00221938 0 3.98004e-05 0 0)
(0.486606 0.000983484 0 1.43762e-05 0 0)
(0.516305 3.08096e-05 0 2.88451e-05 0 0)
(0.497518 -0.00311268 0 7.18683e-05 0 0)
(0.442807 0.00340469 0 0.000384399 0 0)
(0.0329275 0.00327306 0 0.000561017 0 0)
(0.359583 0.000844765 0 4.71038e-05 0 0)
(0.407471 0.000577341 0 2.2152e-06 0 0)
(0.458748 0.000365678 0 1.07e-06 0 0)
(0.493398 2.18039e-05 0 4.07629e-07 0 0)
(0.513709 -7.35895e-05 0 4.52666e-07 0 0)
(0.519016 -0.000102084 0 4.33689e-07 0 0)
(0.522338 -0.000193524 0 9.4493e-07 0 0)
(0.505848 -0.000688575 0 2.93219e-06 0 0)
(0.456987 0.0016333 0 0.000113883 0 0)
(3.28381 -2.09462 0 1.69646 0 0)
(2.96959 -1.54365 0 1.91646 0 0)
(2.75237 -1.19079 0 2.0002 0 0)
(2.98551 -1.05769 0 2.1524 0 0)
(3.18517 -0.913207 0 2.22619 0 0)
(3.49799 -0.927364 0 2.40395 0 0)
(3.69747 -0.929616 0 2.55551 0 0)
(4.33515 -0.960054 0 2.65855 0 0)
(4.28219 -1.11654 0 2.86203 0 0)
(5.10894 -1.54153 0 3.27852 0 0)
(4.81233 -1.636 0 3.55113 0 0)
(5.22371 -1.90212 0 3.91344 0 0)
(5.24872 -1.97041 0 4.0181 0 0)
(5.25836 -2.10005 0 4.12756 0 0)
(5.03766 -2.54946 0 4.62466 0 0)
(5.32485 -3.11858 0 5.21409 0 0)
(5.29366 -3.31848 0 5.51079 0 0)
(5.8826 -3.89529 0 5.87003 0 0)
(6.21223 -4.15878 0 5.99838 0 0)
(6.35283 -4.49773 0 6.2955 0 0)
(6.7437 -4.65085 0 6.349 0 0)
(6.41419 -4.46676 0 6.53008 0 0)
(7.07062 -4.80633 0 6.80529 0 0)
(7.06162 -4.7555 0 7.26091 0 0)
(7.86307 -5.20236 0 7.8224 0 0)
(8.12677 -5.14123 0 8.24232 0 0)
(8.53107 -5.17843 0 8.6253 0 0)
(9.21683 -5.31566 0 8.99116 0 0)
(9.21229 -5.00373 0 9.38801 0 0)
(9.54946 -4.86876 0 9.95503 0 0)
(8.97278 -4.11461 0 10.6098 0 0)
(9.38877 -4.23239 0 11.5872 0 0)
(8.71293 -3.40926 0 12.4776 0 0)
(8.58612 -2.8766 0 13.0323 0 0)
(7.59039 -1.54253 0 13.109 0 0)
(6.97284 -0.444173 0 13.0688 0 0)
(6.49236 0.788352 0 12.7189 0 0)
(6.12151 2.01758 0 12.163 0 0)
(6.03022 2.54357 0 12.314 0 0)
(5.81818 3.35263 0 12.6032 0 0)
(5.38353 3.33507 0 13.2401 0 0)
(5.13285 3.71011 0 13.4634 0 0)
(4.82532 3.68298 0 13.4543 0 0)
(4.45896 3.4767 0 13.6436 0 0)
(4.32237 3.7021 0 13.5649 0 0)
(3.9213 3.00708 0 13.6746 0 0)
(3.97185 3.44424 0 13.852 0 0)
(3.64253 2.64474 0 13.6735 0 0)
(3.67949 3.36578 0 14.1552 0 0)
(3.35022 2.16166 0 14.3219 0 0)
(3.0043 2.68804 0 14.5435 0 0)
(3.02959 1.69996 0 14.7644 0 0)
(2.44007 2.21833 0 14.6901 0 0)
(2.73804 1.19691 0 14.7176 0 0)
(2.11269 1.96475 0 14.5349 0 0)
(2.51053 0.833026 0 14.2867 0 0)
(1.87137 1.7143 0 14.4223 0 0)
(2.44293 0.688379 0 14.0106 0 0)
(1.75922 1.38494 0 14.275 0 0)
(2.453 0.46821 0 13.9776 0 0)
(1.69524 0.978622 0 14.3671 0 0)
(2.71058 0.128981 0 13.8887 0 0)
(1.82039 0.387491 0 13.9016 0 0)
(3.07756 -0.666517 0 13.2416 0 0)
(2.02781 -0.0068052 0 12.901 0 0)
(3.49455 -1.08947 0 12.3379 0 0)
(2.10171 0.0593474 0 11.9826 0 0)
(3.66112 -1.23111 0 11.6863 0 0)
(2.15264 0.328557 0 11.3051 0 0)
(3.5964 -1.40522 0 10.9638 0 0)
(2.29003 0.398804 0 10.6145 0 0)
(3.60515 -1.52571 0 9.96191 0 0)
(2.65949 0.67793 0 9.76948 0 0)
(3.76318 -1.60373 0 8.82356 0 0)
(2.91577 0.986628 0 9.04205 0 0)
(3.46759 -1.4845 0 8.11342 0 0)
(2.34929 0.985694 0 8.80332 0 0)
(3.05578 -1.11619 0 7.82433 0 0)
(2.27843 0.938725 0 8.71092 0 0)
(2.43076 -0.39042 0 7.55524 0 0)
(2.05824 1.06511 0 8.18113 0 0)
(2.0799 -0.0453859 0 7.32572 0 0)
(1.75844 1.18246 0 7.33923 0 0)
(1.94272 0.142907 0 6.76384 0 0)
(1.86827 1.07561 0 6.41935 0 0)
(1.98206 0.213747 0 5.79467 0 0)
(1.73851 0.518053 0 5.80568 0 0)
(1.77598 0.413005 0 4.81382 0 0)
(1.73508 0.405299 0 5.35962 0 0)
(1.76843 0.568739 0 4.21483 0 0)
(1.59649 0.223796 0 4.62433 0 0)
(1.58042 0.291445 0 3.33558 0 0)
(1.24813 -0.380125 0 3.57476 0 0)
(1.13382 0.0909019 0 2.22058 0 0)
(1.02919 -0.64055 0 2.7926 0 0)
(0.921002 0.336802 0 1.68686 0 0)
(0.757655 -0.546236 0 2.69733 0 0)
(0.997677 0.783317 0 2.15272 0 0)
(0.879702 0.0332326 0 3.79074 0 0)
(0.274031 -0.0803546 0 4.60328 0 0)
(2.36076 -1.51922 0 1.45683 0 0)
(2.16366 -1.3143 0 1.66589 0 0)
(1.92859 -0.952285 0 1.64732 0 0)
(2.06567 -0.900384 0 1.71042 0 0)
(2.08242 -0.860066 0 1.77257 0 0)
(2.29224 -0.94061 0 1.91627 0 0)
(2.53414 -1.01093 0 2.0376 0 0)
(2.92402 -1.11604 0 2.14546 0 0)
(3.08224 -1.23235 0 2.29869 0 0)
(3.56424 -1.49329 0 2.60642 0 0)
(3.71786 -1.56088 0 2.82207 0 0)
(4.26489 -1.84684 0 3.14028 0 0)
(4.76023 -2.07819 0 3.38341 0 0)
(4.96406 -2.23835 0 3.5741 0 0)
(5.28044 -2.70576 0 4.0133 0 0)
(5.81042 -3.29852 0 4.57954 0 0)
(5.93173 -3.53928 0 4.98867 0 0)
(6.31728 -3.93456 0 5.39595 0 0)
(6.68098 -4.17188 0 5.55526 0 0)
(6.78599 -4.38334 0 5.84479 0 0)
(7.10966 -4.49723 0 5.93251 0 0)
(6.98594 -4.42083 0 6.20838 0 0)
(7.60737 -4.75677 0 6.6131 0 0)
(7.82526 -4.8305 0 7.10802 0 0)
(8.39071 -5.07356 0 7.65832 0 0)
(8.61215 -4.96545 0 8.04995 0 0)
(8.94611 -4.92412 0 8.48924 0 0)
(9.43888 -4.91213 0 8.82736 0 0)
(9.26501 -4.41854 0 9.11726 0 0)
(9.59944 -4.25793 0 9.65577 0 0)
(9.20757 -3.71087 0 10.4719 0 0)
(9.485 -3.73829 0 11.5078 0 0)
(8.59773 -2.81183 0 12.2344 0 0)
(8.24002 -2.02054 0 12.6715 0 0)
(7.04592 -0.60483 0 12.6565 0 0)
(6.69546 0.359001 0 12.4965 0 0)
(6.13667 1.59896 0 12.121 0 0)
(6.18053 2.59877 0 11.7656 0 0)
(5.99385 3.10603 0 12.1462 0 0)
(6.08904 3.81983 0 12.5632 0 0)
(5.4494 3.7238 0 13.2307 0 0)
(5.50209 4.18581 0 13.5405 0 0)
(4.92684 3.97094 0 13.4605 0 0)
(4.74484 3.7478 0 13.713 0 0)
(4.49081 3.91859 0 13.5821 0 0)
(4.11417 3.0702 0 13.7497 0 0)
(4.19279 3.58131 0 13.7809 0 0)
(3.84845 2.68831 0 13.7034 0 0)
(3.78889 3.30766 0 14.2195 0 0)
(3.54106 2.14085 0 14.4474 0 0)
(3.13699 2.55293 0 14.5189 0 0)
(3.16951 1.65909 0 14.8025 0 0)
(2.63421 2.0562 0 14.6662 0 0)
(2.84163 1.13523 0 14.7165 0 0)
(2.27129 1.75987 0 14.4089 0 0)
(2.70006 0.664088 0 14.2662 0 0)
(2.01764 1.55936 0 14.2721 0 0)
(2.7209 0.509174 0 14.0151 0 0)
(1.82526 1.27399 0 14.2036 0 0)
(2.68885 0.287536 0 14.0351 0 0)
(1.73094 0.865566 0 14.3767 0 0)
(2.8415 -0.0283928 0 14.0614 0 0)
(1.83531 0.332217 0 14.1012 0 0)
(3.13596 -0.769025 0 13.4285 0 0)
(2.03924 0.0162806 0 12.985 0 0)
(3.39965 -1.19487 0 12.409 0 0)
(2.08667 0.13182 0 12.1204 0 0)
(3.45988 -1.35162 0 11.7596 0 0)
(2.14542 0.463834 0 11.3585 0 0)
(3.40347 -1.47526 0 11.0148 0 0)
(2.38336 0.52056 0 10.5517 0 0)
(3.38278 -1.61226 0 9.95319 0 0)
(2.8344 0.72234 0 9.76444 0 0)
(3.38832 -1.69739 0 8.87782 0 0)
(2.71772 1.01201 0 9.15946 0 0)
(3.19776 -1.64947 0 8.29676 0 0)
(2.16063 1.07104 0 8.84577 0 0)
(2.88105 -1.40584 0 7.93563 0 0)
(2.05775 1.1144 0 8.59688 0 0)
(2.24158 -0.588253 0 7.55217 0 0)
(1.90631 1.21185 0 8.21092 0 0)
(1.87666 -0.135042 0 7.38281 0 0)
(1.74212 1.34597 0 7.55365 0 0)
(1.72942 -0.0422953 0 6.9165 0 0)
(1.97421 1.09519 0 6.70159 0 0)
(1.55122 0.0757143 0 5.95588 0 0)
(1.88159 0.469463 0 6.12945 0 0)
(1.47389 0.180717 0 4.87073 0 0)
(2.09112 0.105668 0 5.66282 0 0)
(1.54781 0.420071 0 4.1979 0 0)
(2.53414 0.0361802 0 5.28306 0 0)
(1.53957 0.216401 0 3.33842 0 0)
(2.18454 -0.643265 0 4.03682 0 0)
(1.03095 0.0679092 0 2.15326 0 0)
(1.66268 -0.980453 0 3.10518 0 0)
(0.949306 0.275107 0 1.62336 0 0)
(1.72345 -0.980151 0 2.90389 0 0)
(0.72483 0.401008 0 1.98696 0 0)
(1.15183 0.307697 0 3.5905 0 0)
(0.43539 0.293448 0 5.31942 0 0)
(1.2834 -0.692842 0 0.768439 0 0)
(1.32748 -0.837724 0 1.15813 0 0)
(1.1559 -0.596781 0 1.34787 0 0)
(1.40236 -0.517592 0 1.45352 0 0)
(1.57469 -0.493781 0 1.50261 0 0)
(1.83839 -0.583764 0 1.59807 0 0)
(2.12148 -0.697017 0 1.70336 0 0)
(2.39793 -0.825761 0 1.81271 0 0)
(2.60717 -0.929455 0 1.9192 0 0)
(2.99101 -1.09688 0 2.12767 0 0)
(3.45818 -1.25968 0 2.31705 0 0)
(4.1916 -1.62339 0 2.59138 0 0)
(4.85518 -1.9991 0 2.86957 0 0)
(5.23422 -2.24178 0 3.1163 0 0)
(5.7169 -2.68639 0 3.55029 0 0)
(6.49741 -3.26372 0 4.07682 0 0)
(6.63152 -3.51249 0 4.50074 0 0)
(6.79859 -3.78541 0 4.94075 0 0)
(7.12892 -3.9791 0 5.1685 0 0)
(7.2404 -4.12008 0 5.43816 0 0)
(7.59012 -4.27485 0 5.57577 0 0)
(7.78172 -4.40055 0 5.92735 0 0)
(8.23292 -4.70283 0 6.4254 0 0)
(8.45811 -4.79164 0 6.9156 0 0)
(8.74068 -4.83784 0 7.42608 0 0)
(8.9056 -4.7124 0 7.81879 0 0)
(9.1967 -4.59274 0 8.25407 0 0)
(9.33934 -4.32643 0 8.53895 0 0)
(9.18488 -3.81166 0 8.85245 0 0)
(9.62543 -3.74713 0 9.43712 0 0)
(9.3395 -3.31192 0 10.2617 0 0)
(9.34496 -3.09924 0 11.2379 0 0)
(8.26853 -2.03033 0 11.7597 0 0)
(7.77038 -1.06943 0 12.0944 0 0)
(6.60275 0.32863 0 12.0759 0 0)
(6.43851 1.14857 0 11.8559 0 0)
(5.95529 2.30984 0 11.4851 0 0)
(6.33464 3.05446 0 11.3207 0 0)
(6.06994 3.6093 0 11.8833 0 0)
(6.52442 4.15622 0 12.4422 0 0)
(5.70858 4.05247 0 13.0762 0 0)
(6.136 4.55602 0 13.4499 0 0)
(5.25782 4.19756 0 13.3264 0 0)
(5.30183 3.98215 0 13.626 0 0)
(4.81649 4.0397 0 13.4184 0 0)
(4.62336 3.11601 0 13.5747 0 0)
(4.58581 3.67669 0 13.4878 0 0)
(4.38467 2.69705 0 13.5876 0 0)
(4.01494 3.19059 0 14.0496 0 0)
(4.02428 2.10824 0 14.3568 0 0)
(3.43458 2.45523 0 14.2871 0 0)
(3.55723 1.5338 0 14.653 0 0)
(2.92232 1.84965 0 14.3809 0 0)
(3.10147 1.07155 0 14.5355 0 0)
(2.57864 1.51948 0 14.1081 0 0)
(2.88849 0.620678 0 14.0548 0 0)
(2.36185 1.30923 0 13.947 0 0)
(2.98593 0.412273 0 13.8563 0 0)
(2.15697 1.17199 0 13.9755 0 0)
(2.95534 0.115422 0 13.9401 0 0)
(1.95741 0.794442 0 14.1539 0 0)
(2.96754 -0.181204 0 13.9957 0 0)
(1.96949 0.3047 0 14.0618 0 0)
(3.10173 -0.803421 0 13.4081 0 0)
(2.08958 0.064062 0 12.9416 0 0)
(3.14097 -1.24718 0 12.3207 0 0)
(2.17012 0.21381 0 11.9845 0 0)
(3.15183 -1.40088 0 11.5231 0 0)
(2.26134 0.530482 0 11.202 0 0)
(3.09588 -1.52325 0 10.8973 0 0)
(2.56958 0.595043 0 10.3495 0 0)
(3.04119 -1.65135 0 9.81969 0 0)
(3.02634 0.713403 0 9.58538 0 0)
(2.91501 -1.71716 0 8.81881 0 0)
(2.61616 0.934903 0 9.08435 0 0)
(2.87001 -1.7151 0 8.33634 0 0)
(2.22467 1.08584 0 8.72467 0 0)
(2.57878 -1.51156 0 7.91436 0 0)
(2.12266 1.2809 0 8.36563 0 0)
(2.01006 -0.86449 0 7.60435 0 0)
(1.9797 1.37185 0 8.05835 0 0)
(1.7048 -0.272604 0 7.43636 0 0)
(1.9405 1.48802 0 7.58681 0 0)
(1.58971 -0.191446 0 6.9899 0 0)
(2.03949 1.087 0 6.87289 0 0)
(1.26938 -0.0439145 0 6.03508 0 0)
(1.78941 0.359383 0 6.27969 0 0)
(1.10446 0.0161587 0 4.85763 0 0)
(1.92255 -0.107099 0 5.81521 0 0)
(1.41241 0.12737 0 3.97281 0 0)
(2.42041 -0.411909 0 5.52368 0 0)
(1.33198 0.28501 0 3.28135 0 0)
(2.40228 -0.834199 0 4.50307 0 0)
(1.17719 0.187637 0 2.07821 0 0)
(1.79683 -1.05984 0 3.42155 0 0)
(0.886265 0.303804 0 1.56672 0 0)
(1.34456 -0.870142 0 3.22234 0 0)
(0.799007 0.0998897 0 2.02358 0 0)
(1.45554 0.235218 0 3.39191 0 0)
(0.545384 0.46269 0 6.16042 0 0)
(0.553986 -0.238263 0 0.653898 0 0)
(0.942887 -0.309276 0 0.987433 0 0)
(0.953525 -0.231982 0 1.11805 0 0)
(1.13564 -0.162581 0 1.20634 0 0)
(1.37965 -0.117801 0 1.2521 0 0)
(1.66614 -0.161073 0 1.3252 0 0)
(1.9889 -0.238078 0 1.42136 0 0)
(2.30498 -0.329682 0 1.52498 0 0)
(2.65835 -0.43549 0 1.6067 0 0)
(3.17695 -0.610121 0 1.7623 0 0)
(3.80585 -0.87294 0 1.9684 0 0)
(4.52256 -1.25945 0 2.2428 0 0)
(5.1481 -1.67434 0 2.52881 0 0)
(5.69833 -1.99519 0 2.76671 0 0)
(6.15764 -2.37466 0 3.13163 0 0)
(6.92715 -2.91511 0 3.61431 0 0)
(7.23135 -3.21109 0 4.00313 0 0)
(7.40367 -3.46693 0 4.42734 0 0)
(7.67352 -3.63449 0 4.71403 0 0)
(7.80307 -3.77537 0 5.02626 0 0)
(8.18776 -4.04472 0 5.30813 0 0)
(8.44155 -4.2835 0 5.71961 0 0)
(8.6942 -4.52509 0 6.21325 0 0)
(8.8022 -4.5568 0 6.65252 0 0)
(8.93204 -4.50403 0 7.12239 0 0)
(9.03913 -4.33823 0 7.50941 0 0)
(9.20055 -4.0729 0 7.89159 0 0)
(9.15042 -3.658 0 8.17875 0 0)
(9.17627 -3.29244 0 8.6126 0 0)
(9.59084 -3.2728 0 9.24665 0 0)
(9.2346 -2.80521 0 9.96322 0 0)
(8.94771 -2.32711 0 10.7497 0 0)
(7.80015 -1.13993 0 11.0915 0 0)
(7.27859 -0.161321 0 11.3669 0 0)
(6.28883 1.11091 0 11.4087 0 0)
(6.27681 1.85024 0 11.1304 0 0)
(6.06579 2.8793 0 10.7868 0 0)
(6.64804 3.41216 0 10.8164 0 0)
(6.43298 4.00939 0 11.5382 0 0)
(7.13231 4.34912 0 12.1974 0 0)
(6.24374 4.30401 0 12.7616 0 0)
(6.9785 4.82301 0 13.185 0 0)
(5.80964 4.37015 0 13.0203 0 0)
(6.11261 4.20402 0 13.3637 0 0)
(5.30006 4.08729 0 13.0695 0 0)
(5.42361 3.15364 0 13.2089 0 0)
(5.13091 3.72059 0 13.012 0 0)
(5.20902 2.69634 0 13.346 0 0)
(4.42273 3.04372 0 13.6976 0 0)
(4.81867 2.01055 0 14.056 0 0)
(3.87551 2.39417 0 13.8975 0 0)
(4.28904 1.43619 0 14.4276 0 0)
(3.34237 1.73853 0 13.9535 0 0)
(3.65377 0.927067 0 14.252 0 0)
(3.04388 1.29858 0 13.6599 0 0)
(3.27801 0.581052 0 13.7189 0 0)
(2.86793 0.992307 0 13.452 0 0)
(3.29544 0.386036 0 13.4835 0 0)
(2.6731 0.998674 0 13.5779 0 0)
(3.30273 0.0416592 0 13.6692 0 0)
(2.38158 0.767033 0 13.8127 0 0)
(3.20179 -0.322898 0 13.858 0 0)
(2.189 0.335835 0 13.8462 0 0)
(3.12887 -0.766482 0 13.31 0 0)
(2.16605 0.170265 0 12.8191 0 0)
(3.0217 -1.21669 0 12.1256 0 0)
(2.26559 0.302068 0 11.7409 0 0)
(3.00036 -1.39305 0 11.2428 0 0)
(2.42262 0.573536 0 10.9803 0 0)
(2.98281 -1.54227 0 10.7071 0 0)
(2.74988 0.636327 0 10.0658 0 0)
(2.92806 -1.69262 0 9.65493 0 0)
(3.04394 0.727254 0 9.33164 0 0)
(2.80381 -1.79976 0 8.73295 0 0)
(2.68271 0.874099 0 8.80868 0 0)
(2.69769 -1.77218 0 8.19888 0 0)
(2.56083 1.1312 0 8.45789 0 0)
(2.40654 -1.60813 0 7.86806 0 0)
(2.39473 1.3311 0 7.96287 0 0)
(2.06732 -1.17036 0 7.67163 0 0)
(2.29466 1.42345 0 7.67468 0 0)
(1.79214 -0.556386 0 7.41755 0 0)
(2.47833 1.63405 0 7.54893 0 0)
(1.58525 -0.447061 0 6.96935 0 0)
(2.30037 1.0802 0 6.93513 0 0)
(1.16444 -0.16161 0 6.06378 0 0)
(1.92564 0.319989 0 6.49783 0 0)
(0.952555 -0.206022 0 4.83994 0 0)
(1.98201 -0.258969 0 6.04231 0 0)
(1.06875 0.0195944 0 3.86465 0 0)
(1.9032 -0.795046 0 5.74223 0 0)
(1.15784 0.306333 0 3.05571 0 0)
(1.94027 -1.02835 0 4.81702 0 0)
(0.990817 0.239829 0 2.01744 0 0)
(2.66883 -0.924833 0 3.70051 0 0)
(0.986598 0.260059 0 1.48865 0 0)
(1.65177 -0.594642 0 3.28233 0 0)
(0.602302 0.13647 0 1.96393 0 0)
(1.8857 0.533925 0 2.81096 0 0)
(0.883922 1.23311 0 6.1277 0 0)
(0.25734 0.0261452 0 0.353808 0 0)
(0.518935 0.00844005 0 0.584757 0 0)
(0.81049 0.0509898 0 0.750216 0 0)
(1.105 0.111241 0 0.8948 0 0)
(1.42844 0.161496 0 1.0028 0 0)
(1.76076 0.173618 0 1.08721 0 0)
(2.1773 0.156019 0 1.15082 0 0)
(2.6586 0.0990804 0 1.22753 0 0)
(3.16744 -0.035751 0 1.31347 0 0)
(3.72977 -0.24255 0 1.45733 0 0)
(4.31984 -0.518008 0 1.67471 0 0)
(4.92518 -0.858802 0 1.95725 0 0)
(5.49335 -1.23537 0 2.254 0 0)
(6.12233 -1.59246 0 2.49242 0 0)
(6.59023 -1.9275 0 2.7751 0 0)
(7.18676 -2.40158 0 3.20145 0 0)
(7.62694 -2.76258 0 3.55809 0 0)
(7.90603 -3.05274 0 3.92723 0 0)
(8.12995 -3.26253 0 4.24281 0 0)
(8.29436 -3.4723 0 4.63016 0 0)
(8.61042 -3.82137 0 5.05321 0 0)
(8.74379 -4.03891 0 5.48705 0 0)
(8.84057 -4.1771 0 5.91876 0 0)
(8.88183 -4.15725 0 6.31334 0 0)
(8.95997 -4.05169 0 6.75416 0 0)
(8.99293 -3.81162 0 7.12234 0 0)
(9.05695 -3.45033 0 7.47643 0 0)
(9.05039 -3.09972 0 7.83973 0 0)
(9.20922 -2.86107 0 8.37524 0 0)
(9.37387 -2.72103 0 8.99025 0 0)
(8.86935 -2.13678 0 9.53815 0 0)
(8.38752 -1.45364 0 10.0503 0 0)
(7.30988 -0.247493 0 10.2788 0 0)
(6.82028 0.646612 0 10.544 0 0)
(6.1173 1.75423 0 10.6123 0 0)
(6.33135 2.44125 0 10.3454 0 0)
(6.52111 3.2876 0 10.0949 0 0)
(7.18347 3.65921 0 10.3416 0 0)
(7.12521 4.2583 0 11.1793 0 0)
(7.78964 4.41035 0 11.8825 0 0)
(7.04431 4.50921 0 12.3296 0 0)
(7.93484 4.9447 0 12.7694 0 0)
(6.55859 4.50879 0 12.5604 0 0)
(7.08838 4.38584 0 12.9784 0 0)
(5.88246 4.04355 0 12.5816 0 0)
(6.4912 3.20544 0 12.6695 0 0)
(5.7191 3.62005 0 12.3224 0 0)
(6.2156 2.6965 0 12.9231 0 0)
(4.95555 2.88441 0 13.135 0 0)
(5.74195 1.90556 0 13.5571 0 0)
(4.44844 2.24502 0 13.2839 0 0)
(5.21007 1.28269 0 13.9562 0 0)
(3.93791 1.65576 0 13.3179 0 0)
(4.43619 0.755026 0 13.8102 0 0)
(3.59252 1.15108 0 12.9842 0 0)
(3.91812 0.515213 0 13.2991 0 0)
(3.44947 0.76772 0 12.8202 0 0)
(3.70253 0.360515 0 13.006 0 0)
(3.21194 0.756787 0 13.0334 0 0)
(3.61861 0.0573214 0 13.2476 0 0)
(2.85038 0.706654 0 13.3124 0 0)
(3.40807 -0.410724 0 13.5461 0 0)
(2.51956 0.428075 0 13.3511 0 0)
(3.19612 -0.679238 0 12.978 0 0)
(2.35966 0.341602 0 12.3952 0 0)
(3.0074 -1.08945 0 11.8112 0 0)
(2.46384 0.410464 0 11.4026 0 0)
(2.99282 -1.33318 0 10.8866 0 0)
(2.68997 0.581053 0 10.5384 0 0)
(2.94815 -1.5252 0 10.3319 0 0)
(2.98696 0.673025 0 9.57913 0 0)
(2.90512 -1.67882 0 9.39617 0 0)
(3.12111 0.751323 0 8.94044 0 0)
(2.7387 -1.78684 0 8.58642 0 0)
(3.07061 0.909031 0 8.37609 0 0)
(2.48134 -1.74601 0 8.04676 0 0)
(3.04807 1.11852 0 7.98516 0 0)
(2.2753 -1.58889 0 7.80066 0 0)
(2.92922 1.34724 0 7.46328 0 0)
(2.15196 -1.41507 0 7.61982 0 0)
(2.92082 1.6205 0 7.10873 0 0)
(1.91141 -0.901291 0 7.46903 0 0)
(3.20108 1.83538 0 7.24832 0 0)
(1.72977 -0.632881 0 7.08297 0 0)
(2.79429 1.10637 0 6.82918 0 0)
(1.26829 -0.289103 0 5.97142 0 0)
(2.37501 0.296186 0 6.52103 0 0)
(0.997177 -0.34025 0 4.69798 0 0)
(2.27515 -0.44356 0 6.12845 0 0)
(0.911252 -0.234392 0 3.70956 0 0)
(2.38468 -1.11833 0 5.80814 0 0)
(1.05194 0.284728 0 2.91124 0 0)
(2.4216 -1.16508 0 5.02543 0 0)
(0.799744 0.349907 0 1.92125 0 0)
(2.22344 -0.760743 0 3.95761 0 0)
(0.873862 0.102914 0 1.49807 0 0)
(1.70418 -0.310841 0 3.38591 0 0)
(1.82795 -0.341456 0 2.34081 0 0)
(1.57184 0.468151 0 2.382 0 0)
(0.858186 1.63494 0 5.96197 0 0)
(0.295787 0.15746 0 0.283737 0 0)
(0.521714 0.263898 0 0.534664 0 0)
(0.926603 0.388676 0 0.677543 0 0)
(1.41267 0.440148 0 0.775398 0 0)
(1.8354 0.451069 0 0.861379 0 0)
(2.21902 0.46786 0 0.902651 0 0)
(2.67835 0.452568 0 0.915966 0 0)
(3.18577 0.374022 0 0.974789 0 0)
(3.6667 0.211003 0 1.08032 0 0)
(4.1855 0.00442363 0 1.21447 0 0)
(4.73468 -0.243131 0 1.41261 0 0)
(5.3027 -0.533837 0 1.6765 0 0)
(5.85745 -0.857292 0 1.96187 0 0)
(6.43441 -1.20186 0 2.21678 0 0)
(6.89092 -1.51942 0 2.47172 0 0)
(7.31425 -1.90647 0 2.86147 0 0)
(7.70265 -2.27674 0 3.21694 0 0)
(8.0217 -2.60339 0 3.55309 0 0)
(8.261 -2.9102 0 3.87503 0 0)
(8.45964 -3.22535 0 4.29097 0 0)
(8.62534 -3.55038 0 4.74652 0 0)
(8.6346 -3.66345 0 5.16019 0 0)
(8.65859 -3.69747 0 5.55556 0 0)
(8.71203 -3.62968 0 5.93923 0 0)
(8.79766 -3.44844 0 6.33849 0 0)
(8.8061 -3.16924 0 6.68741 0 0)
(8.93093 -2.8554 0 7.06521 0 0)
(9.04506 -2.6349 0 7.50979 0 0)
(9.15855 -2.37229 0 8.05223 0 0)
(9.00184 -2.02905 0 8.59 0 0)
(8.40654 -1.3321 0 8.98551 0 0)
(7.81521 -0.545683 0 9.28686 0 0)
(6.90541 0.529714 0 9.46366 0 0)
(6.51904 1.30357 0 9.70093 0 0)
(6.18787 2.24908 0 9.73287 0 0)
(6.66985 2.85022 0 9.51989 0 0)
(7.28064 3.51069 0 9.42864 0 0)
(7.88407 3.78395 0 9.87931 0 0)
(8.00011 4.36634 0 10.7788 0 0)
(8.51338 4.39071 0 11.4427 0 0)
(8.03767 4.6491 0 11.739 0 0)
(8.80015 4.98252 0 12.2164 0 0)
(7.37588 4.60206 0 11.9828 0 0)
(8.05582 4.50538 0 12.4903 0 0)
(6.569 3.97387 0 11.9621 0 0)
(7.61677 3.28492 0 12.0037 0 0)
(6.35246 3.46754 0 11.5376 0 0)
(7.18553 2.64919 0 12.4268 0 0)
(5.70295 2.6834 0 12.4098 0 0)
(6.77208 1.80977 0 12.8828 0 0)
(5.17643 2.08084 0 12.5452 0 0)
(6.2437 1.14918 0 13.3714 0 0)
(4.67899 1.54515 0 12.5886 0 0)
(5.4607 0.602222 0 13.2877 0 0)
(4.29824 0.990206 0 12.2106 0 0)
(4.78283 0.349048 0 12.789 0 0)
(4.10543 0.623034 0 11.9998 0 0)
(4.2804 0.248201 0 12.4567 0 0)
(3.76853 0.561832 0 12.27 0 0)
(4.01472 0.0579809 0 12.6893 0 0)
(3.26367 0.611795 0 12.6471 0 0)
(3.71906 -0.339427 0 13.0759 0 0)
(2.83226 0.544374 0 12.6834 0 0)
(3.45114 -0.537532 0 12.6382 0 0)
(2.64156 0.532706 0 11.9568 0 0)
(3.27343 -0.901312 0 11.5035 0 0)
(2.74045 0.561646 0 10.8771 0 0)
(3.25399 -1.19504 0 10.5005 0 0)
(2.95764 0.596341 0 10.0787 0 0)
(3.17729 -1.5114 0 10.0341 0 0)
(3.24115 0.668754 0 9.09556 0 0)
(3.1477 -1.70283 0 9.12349 0 0)
(3.40922 0.775115 0 8.44646 0 0)
(2.96531 -1.7772 0 8.43002 0 0)
(3.55501 0.94454 0 7.91882 0 0)
(2.70365 -1.81445 0 7.87812 0 0)
(3.5889 1.14945 0 7.39103 0 0)
(2.58088 -1.72421 0 7.65757 0 0)
(3.60599 1.37046 0 6.81235 0 0)
(2.51091 -1.70628 0 7.66872 0 0)
(3.82262 1.67481 0 6.37718 0 0)
(2.28351 -1.17158 0 7.46908 0 0)
(4.00125 1.84766 0 6.68242 0 0)
(2.17853 -0.833585 0 7.09128 0 0)
(3.37191 1.24477 0 6.55617 0 0)
(1.79417 -0.511405 0 5.93799 0 0)
(2.99623 0.374321 0 6.43379 0 0)
(1.55651 -0.594719 0 4.61685 0 0)
(2.79617 -0.336283 0 6.24643 0 0)
(1.24205 -0.352315 0 3.59938 0 0)
(2.62457 -1.30722 0 5.89075 0 0)
(0.961125 0.10483 0 2.73946 0 0)
(4.06641 -1.30712 0 5.16686 0 0)
(0.68203 0.198278 0 1.83854 0 0)
(6.79643 -0.597878 0 3.96487 0 0)
(0.714301 0.126249 0 1.53931 0 0)
(5.72713 0.127397 0 3.29197 0 0)
(0.646691 0.324368 0 2.69964 0 0)
(1.58428 0.487137 0 2.03547 0 0)
(0.773136 1.37963 0 5.58722 0 0)
(0.452204 0.222824 0 0.240304 0 0)
(0.674189 0.297914 0 0.37311 0 0)
(1.01162 0.385349 0 0.469023 0 0)
(1.47464 0.446936 0 0.558192 0 0)
(1.94391 0.483483 0 0.637573 0 0)
(2.38358 0.524319 0 0.667282 0 0)
(2.83504 0.518453 0 0.677174 0 0)
(3.30504 0.436043 0 0.745943 0 0)
(3.77876 0.283916 0 0.864895 0 0)
(4.31225 0.100686 0 0.988649 0 0)
(4.85868 -0.116212 0 1.1593 0 0)
(5.42295 -0.380084 0 1.39286 0 0)
(5.94244 -0.662741 0 1.65729 0 0)
(6.4298 -0.966754 0 1.9211 0 0)
(6.83842 -1.26308 0 2.18539 0 0)
(7.17032 -1.58516 0 2.54758 0 0)
(7.47753 -1.9255 0 2.90283 0 0)
(7.76415 -2.28305 0 3.25517 0 0)
(7.99708 -2.64924 0 3.61157 0 0)
(8.16411 -2.9688 0 4.0199 0 0)
(8.19825 -3.16347 0 4.42384 0 0)
(8.21688 -3.17958 0 4.78228 0 0)
(8.27738 -3.14496 0 5.13995 0 0)
(8.43262 -3.02601 0 5.50697 0 0)
(8.57249 -2.79049 0 5.871 0 0)
(8.66629 -2.54289 0 6.23359 0 0)
(8.91076 -2.31812 0 6.67504 0 0)
(9.01798 -2.11665 0 7.14424 0 0)
(8.94357 -1.74307 0 7.62384 0 0)
(8.56569 -1.23069 0 8.06913 0 0)
(7.91896 -0.462077 0 8.32736 0 0)
(7.34888 0.331283 0 8.47504 0 0)
(6.7007 1.21143 0 8.62332 0 0)
(6.49883 1.8259 0 8.82392 0 0)
(6.55683 2.56832 0 8.84807 0 0)
(7.31151 3.02567 0 8.72392 0 0)
(8.1839 3.56054 0 8.78595 0 0)
(8.74464 3.77588 0 9.43467 0 0)
(8.96684 4.37274 0 10.3048 0 0)
(9.32176 4.35939 0 10.8709 0 0)
(9.12528 4.76165 0 11.0862 0 0)
(9.48673 4.95373 0 11.5846 0 0)
(8.35102 4.64384 0 11.2833 0 0)
(9.08143 4.54444 0 11.8892 0 0)
(7.32729 3.84973 0 11.2207 0 0)
(8.76461 3.3443 0 11.2592 0 0)
(7.08207 3.23069 0 10.5915 0 0)