/*--------------------------------*- C++ -*----------------------------------*\
| =========                 |                                                 |
| \\      /  F ield         | OpenFOAM: The Open Source CFD Toolbox           |
|  \\    /   O peration     | Version:  2.4.0                                 |
|   \\  /    A nd           | Web:      www.OpenFOAM.org                      |
|    \\/     M anipulation  |                                                 |
\*---------------------------------------------------------------------------*/
FoamFile
{
    version     2.0;
    format      ascii;
    class       volScalarField;
    location    "0.12";
    object      pPrime2Mean;
}
// * * * * * * * * * * * * * * * * * * * * * * * * * * * * * * * * * * * * * //

dimensions      [0 4 -4 0 0 0 0];

internalField   nonuniform List<scalar> 
17600
(
5.38486e+06
5.24907e+06
5.10307e+06
4.95837e+06
4.81573e+06
4.67518e+06
4.53671e+06
4.40031e+06
4.26598e+06
4.13371e+06
4.0035e+06
3.87533e+06
3.74916e+06
3.62492e+06
3.50249e+06
3.38161e+06
3.26184e+06
3.14222e+06
3.0206e+06
2.88973e+06
5.38497e+06
5.24907e+06
5.10307e+06
4.95837e+06
4.81573e+06
4.67518e+06
4.53671e+06
4.40031e+06
4.26598e+06
4.13371e+06
4.0035e+06
3.87533e+06
3.74916e+06
3.62493e+06
3.50249e+06
3.38163e+06
3.26187e+06
3.14229e+06
3.02078e+06
2.89007e+06
5.38506e+06
5.24905e+06
5.10306e+06
4.95837e+06
4.81573e+06
4.67518e+06
4.53671e+06
4.40031e+06
4.26598e+06
4.13371e+06
4.00351e+06
3.87534e+06
3.74917e+06
3.62494e+06
3.50251e+06
3.38166e+06
3.26194e+06
3.14243e+06
3.02109e+06
2.89141e+06
5.38512e+06
5.24903e+06
5.10304e+06
4.95837e+06
4.81573e+06
4.67518e+06
4.53671e+06
4.40031e+06
4.26598e+06
4.13371e+06
4.00351e+06
3.87534e+06
3.74918e+06
3.62495e+06
3.50254e+06
3.38171e+06
3.26204e+06
3.14263e+06
3.02157e+06
2.89329e+06
5.38516e+06
5.24901e+06
5.10303e+06
4.95836e+06
4.81573e+06
4.67518e+06
4.53671e+06
4.40031e+06
4.26598e+06
4.13372e+06
4.00351e+06
3.87535e+06
3.74919e+06
3.62497e+06
3.50257e+06
3.38178e+06
3.26216e+06
3.1429e+06
3.0222e+06
2.89553e+06
5.38521e+06
5.24899e+06
5.10301e+06
4.95836e+06
4.81573e+06
4.67518e+06
4.53671e+06
4.40031e+06
4.26598e+06
4.13372e+06
4.00351e+06
3.87535e+06
3.7492e+06
3.62499e+06
3.50261e+06
3.38186e+06
3.26232e+06
3.14322e+06
3.02296e+06
2.89799e+06
5.38525e+06
5.24898e+06
5.10299e+06
4.95835e+06
4.81573e+06
4.67518e+06
4.5367e+06
4.40031e+06
4.26598e+06
4.13372e+06
4.00352e+06
3.87536e+06
3.74921e+06
3.62502e+06
3.50266e+06
3.38195e+06
3.2625e+06
3.1436e+06
3.02383e+06
2.90056e+06
5.38529e+06
5.24896e+06
5.10298e+06
4.95835e+06
4.81572e+06
4.67518e+06
4.5367e+06
4.4003e+06
4.26598e+06
4.13372e+06
4.00352e+06
3.87537e+06
3.74923e+06
3.62505e+06
3.50272e+06
3.38206e+06
3.26271e+06
3.14403e+06
3.0248e+06
2.90318e+06
5.38533e+06
5.24895e+06
5.10296e+06
4.95834e+06
4.81572e+06
4.67518e+06
4.5367e+06
4.4003e+06
4.26598e+06
4.13372e+06
4.00353e+06
3.87538e+06
3.74925e+06
3.62508e+06
3.50278e+06
3.38217e+06
3.26294e+06
3.1445e+06
3.02584e+06
2.90581e+06
5.38536e+06
5.24894e+06
5.10295e+06
4.95834e+06
4.81572e+06
4.67518e+06
4.5367e+06
4.4003e+06
4.26598e+06
4.13372e+06
4.00353e+06
3.87539e+06
3.74927e+06
3.62512e+06
3.50285e+06
3.38231e+06
3.2632e+06
3.14501e+06
3.02694e+06
2.90841e+06
5.38539e+06
5.24894e+06
5.10294e+06
4.95833e+06
4.81572e+06
4.67518e+06
4.5367e+06
4.4003e+06
4.26598e+06
4.13373e+06
4.00354e+06
3.8754e+06
3.74929e+06
3.62516e+06
3.50293e+06
3.38245e+06
3.26347e+06
3.14555e+06
3.02808e+06
2.91097e+06
5.38542e+06
5.24893e+06
5.10292e+06
4.95833e+06
4.81572e+06
4.67518e+06
4.5367e+06
4.4003e+06
4.26598e+06
4.13373e+06
4.00355e+06
3.87541e+06
3.74931e+06
3.6252e+06
3.50301e+06
3.3826e+06
3.26376e+06
3.14612e+06
3.02925e+06
2.91346e+06
5.38544e+06
5.24893e+06
5.10291e+06
4.95832e+06
4.81572e+06
4.67518e+06
4.5367e+06
4.4003e+06
4.26598e+06
4.13373e+06
4.00355e+06
3.87543e+06
3.74934e+06
3.62525e+06
3.50309e+06
3.38276e+06
3.26406e+06
3.14671e+06
3.03044e+06
2.91588e+06
5.38546e+06
5.24893e+06
5.1029e+06
4.95832e+06
4.81573e+06
4.67518e+06
4.5367e+06
4.4003e+06
4.26598e+06
4.13374e+06
4.00356e+06
3.87544e+06
3.74936e+06
3.6253e+06
3.50318e+06
3.38293e+06
3.26438e+06
3.14732e+06
3.03164e+06
2.91822e+06
5.38547e+06
5.24893e+06
5.1029e+06
4.95831e+06
4.81573e+06
4.67518e+06
4.5367e+06
4.4003e+06
4.26598e+06
4.13374e+06
4.00357e+06
3.87546e+06
3.74939e+06
3.62535e+06
3.50328e+06
3.3831e+06
3.2647e+06
3.14794e+06
3.03283e+06
2.92047e+06
5.38549e+06
5.24893e+06
5.10289e+06
4.95831e+06
4.81573e+06
4.67518e+06
4.5367e+06
4.4003e+06
4.26598e+06
4.13375e+06
4.00358e+06
3.87547e+06
3.74942e+06
3.6254e+06
3.50337e+06
3.38328e+06
3.26504e+06
3.14857e+06
3.03402e+06
2.92263e+06
5.3855e+06
5.24893e+06
5.10289e+06
4.95831e+06
4.81573e+06
4.67518e+06
4.5367e+06
4.4003e+06
4.26599e+06
4.13375e+06
4.00359e+06
3.87549e+06
3.74945e+06
3.62545e+06
3.50347e+06
3.38346e+06
3.26538e+06
3.1492e+06
3.03519e+06
2.9247e+06
5.3855e+06
5.24893e+06
5.10288e+06
4.9583e+06
4.81573e+06
4.67518e+06
4.5367e+06
4.4003e+06
4.26599e+06
4.13375e+06
4.00359e+06
3.8755e+06
3.74948e+06
3.62551e+06
3.50357e+06
3.38365e+06
3.26572e+06
3.14983e+06
3.03634e+06
2.92667e+06
5.38551e+06
5.24893e+06
5.10288e+06
4.9583e+06
4.81573e+06
4.67518e+06
4.5367e+06
4.4003e+06
4.26599e+06
4.13376e+06
4.0036e+06
3.87552e+06
3.74951e+06
3.62556e+06
3.50367e+06
3.38384e+06
3.26606e+06
3.15045e+06
3.03746e+06
2.92856e+06
5.38551e+06
5.24893e+06
5.10288e+06
4.9583e+06
4.81573e+06
4.67518e+06
4.5367e+06
4.40031e+06
4.26599e+06
4.13376e+06
4.00361e+06
3.87554e+06
3.74954e+06
3.62562e+06
3.50378e+06
3.38402e+06
3.2664e+06
3.15107e+06
3.03855e+06
2.93034e+06
5.38551e+06
5.24893e+06
5.10288e+06
4.9583e+06
4.81573e+06
4.67518e+06
4.5367e+06
4.40031e+06
4.266e+06
4.13377e+06
4.00362e+06
3.87555e+06
3.74957e+06
3.62568e+06
3.50388e+06
3.38421e+06
3.26674e+06
3.15168e+06
3.0396e+06
2.93204e+06
5.38551e+06
5.24893e+06
5.10288e+06
4.9583e+06
4.81573e+06
4.67518e+06
4.53671e+06
4.40031e+06
4.266e+06
4.13377e+06
4.00363e+06
3.87557e+06
3.7496e+06
3.62573e+06
3.50398e+06
3.38439e+06
3.26707e+06
3.15227e+06
3.04062e+06
2.93364e+06
5.38551e+06
5.24893e+06
5.10288e+06
4.9583e+06
4.81573e+06
4.67518e+06
4.53671e+06
4.40031e+06
4.266e+06
4.13378e+06
4.00364e+06
3.87559e+06
3.74963e+06
3.62579e+06
3.50408e+06
3.38457e+06
3.2674e+06
3.15284e+06
3.04159e+06
2.93515e+06
5.3855e+06
5.24893e+06
5.10289e+06
4.95831e+06
4.81573e+06
4.67518e+06
4.53671e+06
4.40031e+06
4.26601e+06
4.13378e+06
4.00365e+06
3.8756e+06
3.74966e+06
3.62584e+06
3.50418e+06
3.38475e+06
3.26771e+06
3.15339e+06
3.04252e+06
2.93657e+06
5.38549e+06
5.24893e+06
5.10289e+06
4.95831e+06
4.81573e+06
4.67518e+06
4.53671e+06
4.40032e+06
4.26601e+06
4.13379e+06
4.00366e+06
3.87562e+06
3.74969e+06
3.62589e+06
3.50427e+06
3.38492e+06
3.26802e+06
3.15392e+06
3.0434e+06
2.93789e+06
5.38547e+06
5.24893e+06
5.1029e+06
4.95832e+06
4.81573e+06
4.67518e+06
4.53671e+06
4.40032e+06
4.26601e+06
4.13379e+06
4.00367e+06
3.87564e+06
3.74972e+06
3.62594e+06
3.50437e+06
3.38509e+06
3.26831e+06
3.15443e+06
3.04423e+06
2.93913e+06
5.38546e+06
5.24893e+06
5.10291e+06
4.95832e+06
4.81573e+06
4.67518e+06
4.53671e+06
4.40032e+06
4.26602e+06
4.1338e+06
4.00367e+06
3.87565e+06
3.74975e+06
3.62599e+06
3.50446e+06
3.38525e+06
3.26859e+06
3.15491e+06
3.04501e+06
2.94029e+06
5.38544e+06
5.24893e+06
5.10292e+06
4.95833e+06
4.81573e+06
4.67518e+06
4.53671e+06
4.40032e+06
4.26602e+06
4.1338e+06
4.00368e+06
3.87566e+06
3.74977e+06
3.62604e+06
3.50454e+06
3.3854e+06
3.26886e+06
3.15536e+06
3.04574e+06
2.94135e+06
5.38542e+06
5.24893e+06
5.10293e+06
4.95833e+06
4.81573e+06
4.67518e+06
4.53671e+06
4.40033e+06
4.26602e+06
4.13381e+06
4.00369e+06
3.87568e+06
3.7498e+06
3.62608e+06
3.50462e+06
3.38554e+06
3.2691e+06
3.15578e+06
3.04641e+06
2.94233e+06
5.38539e+06
5.24894e+06
5.10294e+06
4.95834e+06
4.81573e+06
4.67518e+06
4.53671e+06
4.40033e+06
4.26603e+06
4.13381e+06
4.0037e+06
3.87569e+06
3.74982e+06
3.62613e+06
3.50469e+06
3.38567e+06
3.26934e+06
3.15617e+06
3.04703e+06
2.94323e+06
5.38536e+06
5.24895e+06
5.10295e+06
4.95834e+06
4.81573e+06
4.67518e+06
4.53672e+06
4.40033e+06
4.26603e+06
4.13382e+06
4.0037e+06
3.8757e+06
3.74984e+06
3.62617e+06
3.50476e+06
3.3858e+06
3.26955e+06
3.15653e+06
3.0476e+06
2.94405e+06
5.38533e+06
5.24895e+06
5.10297e+06
4.95835e+06
4.81573e+06
4.67519e+06
4.53672e+06
4.40033e+06
4.26603e+06
4.13382e+06
4.00371e+06
3.87571e+06
3.74986e+06
3.6262e+06
3.50483e+06
3.38591e+06
3.26974e+06
3.15686e+06
3.04811e+06
2.94478e+06
5.38529e+06
5.24896e+06
5.10298e+06
4.95835e+06
4.81573e+06
4.67519e+06
4.53672e+06
4.40034e+06
4.26604e+06
4.13383e+06
4.00372e+06
3.87572e+06
3.74988e+06
3.62623e+06
3.50488e+06
3.38601e+06
3.26992e+06
3.15715e+06
3.04857e+06
2.94542e+06
5.38525e+06
5.24898e+06
5.103e+06
4.95836e+06
4.81573e+06
4.67519e+06
4.53672e+06
4.40034e+06
4.26604e+06
4.13383e+06
4.00372e+06
3.87573e+06
3.74989e+06
3.62626e+06
3.50494e+06
3.3861e+06
3.27007e+06
3.15741e+06
3.04897e+06
2.94599e+06
5.38521e+06
5.24899e+06
5.10301e+06
4.95836e+06
4.81573e+06
4.67519e+06
4.53673e+06
4.40034e+06
4.26604e+06
4.13383e+06
4.00373e+06
3.87574e+06
3.74991e+06
3.62629e+06
3.50498e+06
3.38618e+06
3.27021e+06
3.15763e+06
3.04931e+06
2.94647e+06
5.38517e+06
5.24901e+06
5.10303e+06
4.95837e+06
4.81574e+06
4.67519e+06
4.53673e+06
4.40034e+06
4.26604e+06
4.13384e+06
4.00373e+06
3.87575e+06
3.74992e+06
3.62631e+06
3.50502e+06
3.38624e+06
3.27032e+06
3.15781e+06
3.0496e+06
2.94688e+06
5.38512e+06
5.24903e+06
5.10305e+06
4.95837e+06
4.81574e+06
4.67519e+06
4.53673e+06
4.40034e+06
4.26604e+06
4.13384e+06
4.00373e+06
3.87575e+06
3.74993e+06
3.62632e+06
3.50505e+06
3.3863e+06
3.27041e+06
3.15796e+06
3.04983e+06
2.9472e+06
5.38506e+06
5.24905e+06
5.10306e+06
4.95837e+06
4.81574e+06
4.6752e+06
4.53673e+06
4.40034e+06
4.26604e+06
4.13384e+06
4.00374e+06
3.87576e+06
3.74994e+06
3.62634e+06
3.50507e+06
3.38634e+06
3.27048e+06
3.15807e+06
3.05e+06
2.94744e+06
5.38498e+06
5.24907e+06
5.10307e+06
4.95838e+06
4.81574e+06
4.6752e+06
4.53673e+06
4.40034e+06
4.26604e+06
4.13384e+06
4.00374e+06
3.87576e+06
3.74994e+06
3.62634e+06
3.50508e+06
3.38636e+06
3.27053e+06
3.15815e+06
3.05011e+06
2.94759e+06
5.38486e+06
5.24907e+06
5.10307e+06
4.95838e+06
4.81574e+06
4.6752e+06
4.53673e+06
4.40034e+06
4.26605e+06
4.13384e+06
4.00374e+06
3.87576e+06
3.74994e+06
3.62635e+06
3.50509e+06
3.38638e+06
3.27055e+06
3.15819e+06
3.05017e+06
2.94767e+06
2.76578e+06
2.7361e+06
2.71314e+06
2.69302e+06
2.67417e+06
2.65613e+06
2.63866e+06
2.62162e+06
2.6049e+06
2.58844e+06
2.5722e+06
2.55614e+06
2.54023e+06
2.52445e+06
2.50877e+06
2.4932e+06
2.47771e+06
2.4623e+06
2.44697e+06
2.43171e+06
2.41652e+06
2.40139e+06
2.38632e+06
2.3713e+06
2.35633e+06
2.3414e+06
2.32651e+06
2.31167e+06
2.29688e+06
2.28214e+06
2.26745e+06
2.25281e+06
2.23822e+06
2.22369e+06
2.2092e+06
2.19476e+06
2.18037e+06
2.16602e+06
2.15173e+06
2.13749e+06
2.1233e+06
2.10916e+06
2.09508e+06
2.08104e+06
2.06706e+06
2.05312e+06
2.03923e+06
2.0254e+06
2.01161e+06
1.99788e+06
1.9842e+06
1.97057e+06
1.95699e+06
1.94347e+06
1.93001e+06
1.91659e+06
1.90322e+06
1.88991e+06
1.87664e+06
1.86342e+06
1.85025e+06
1.83713e+06
1.82405e+06
1.81102e+06
1.79804e+06
1.7851e+06
1.77221e+06
1.75937e+06
1.74658e+06
1.73383e+06
1.72113e+06
1.70847e+06
1.69586e+06
1.6833e+06
1.67078e+06
1.6583e+06
1.64586e+06
1.63345e+06
1.62108e+06
1.60874e+06
1.59644e+06
1.58419e+06
1.57198e+06
1.55981e+06
1.5477e+06
1.53563e+06
1.52361e+06
1.51164e+06
1.49972e+06
1.48786e+06
1.47605e+06
1.46429e+06
1.45258e+06
1.44093e+06
1.42932e+06
1.41777e+06
1.40626e+06
1.3948e+06
1.38339e+06
1.37203e+06
1.36071e+06
1.34945e+06
1.33822e+06
1.32705e+06
1.31592e+06
1.30483e+06
1.29379e+06
1.2828e+06
1.27186e+06
1.26096e+06
1.2501e+06
1.23929e+06
1.22853e+06
1.21782e+06
1.20715e+06
1.19652e+06
1.18595e+06
1.17542e+06
1.16493e+06
1.15449e+06
1.14409e+06
1.13374e+06
1.12343e+06
1.11317e+06
1.10295e+06
1.09277e+06
1.08264e+06
1.07256e+06
1.06253e+06
1.05255e+06
1.04262e+06
1.03273e+06
1.0229e+06
1.01312e+06
1.00339e+06
993709
984074
974487
964948
955456
946011
936614
927264
917961
908705
899497
890335
881221
872153
863134
854161
845236
836358
827527
818742
810005
801315
792671
784073
775522
767016
758556
750141
741771
733447
725169
716937
708751
700611
692517
684467
676463
668501
660586
652711
644882
637089
629342
621624
613954
606305
598703
591125
583588
576080
568606
561157
553733
546323
538923
531520
524104
516655
509152
501566
493847
485927
477704
468786
459066
2.77983e+06
2.7475e+06
2.72212e+06
2.70036e+06
2.68039e+06
2.6615e+06
2.64335e+06
2.62574e+06
2.60855e+06
2.59168e+06
2.57509e+06
2.55872e+06
2.54255e+06
2.52653e+06
2.51064e+06
2.49488e+06
2.47922e+06
2.46366e+06
2.44819e+06
2.43281e+06
2.41751e+06
2.40228e+06
2.38711e+06
2.37201e+06
2.35696e+06
2.34197e+06
2.32702e+06
2.31213e+06
2.29729e+06
2.28251e+06
2.26778e+06
2.2531e+06
2.23849e+06
2.22392e+06
2.2094e+06
2.19494e+06
2.18053e+06
2.16617e+06
2.15186e+06
2.13761e+06
2.1234e+06
2.10925e+06
2.09516e+06
2.08112e+06
2.06713e+06
2.05319e+06
2.0393e+06
2.02546e+06
2.01167e+06
1.99793e+06
1.98425e+06
1.97062e+06
1.95705e+06
1.94352e+06
1.93006e+06
1.91664e+06
1.90328e+06
1.88996e+06
1.8767e+06
1.86348e+06
1.85031e+06
1.83719e+06
1.82412e+06
1.81109e+06
1.79811e+06
1.78517e+06
1.77229e+06
1.75944e+06
1.74665e+06
1.7339e+06
1.7212e+06
1.70855e+06
1.69594e+06
1.68338e+06
1.67086e+06
1.65838e+06
1.64593e+06
1.63352e+06
1.62114e+06
1.6088e+06
1.5965e+06
1.58424e+06
1.57202e+06
1.55985e+06
1.54772e+06
1.53565e+06
1.52362e+06
1.51165e+06
1.49973e+06
1.48786e+06
1.47605e+06
1.46429e+06
1.45258e+06
1.44092e+06
1.42932e+06
1.41776e+06
1.40625e+06
1.39479e+06
1.38338e+06
1.37202e+06
1.36071e+06
1.34944e+06
1.33822e+06
1.32704e+06
1.31591e+06
1.30483e+06
1.29379e+06
1.2828e+06
1.27186e+06
1.26096e+06
1.2501e+06
1.2393e+06
1.22853e+06
1.21782e+06
1.20715e+06
1.19653e+06
1.18595e+06
1.17542e+06
1.16493e+06
1.15449e+06
1.1441e+06
1.13374e+06
1.12344e+06
1.11317e+06
1.10295e+06
1.09278e+06
1.08265e+06
1.07257e+06
1.06254e+06
1.05255e+06
1.04262e+06
1.03274e+06
1.02291e+06
1.01313e+06
1.00339e+06
993709
984073
974484
964943
955449
946002
936603
927250
917945
908686
899475
890310
881192
872121
863098
854121
845191
836309
827473
818683
809941
801244
792594
783989
775429
766915
758445
750019
741638
733302
725011
716765
708565
700408
692297
684228
676203
668218
660279
652375
644516
636689
628907
621147
613433
605734
598077
590439
582835
575254
567700
560161
552638
545117
537594
530050
522474
514840
507121
499274
491234
482897
474105
464341
452831
2.79094e+06
2.75752e+06
2.73057e+06
2.70746e+06
2.68647e+06
2.66677e+06
2.64797e+06
2.62982e+06
2.61216e+06
2.5949e+06
2.57796e+06
2.5613e+06
2.54485e+06
2.5286e+06
2.5125e+06
2.49655e+06
2.48073e+06
2.46502e+06
2.44941e+06
2.4339e+06
2.41849e+06
2.40316e+06
2.3879e+06
2.37271e+06
2.35759e+06
2.34253e+06
2.32753e+06
2.31259e+06
2.2977e+06
2.28287e+06
2.26811e+06
2.2534e+06
2.23875e+06
2.22415e+06
2.20961e+06
2.19513e+06
2.1807e+06
2.16632e+06
2.15199e+06
2.13772e+06
2.12351e+06
2.10935e+06
2.09525e+06
2.0812e+06
2.0672e+06
2.05326e+06
2.03936e+06
2.02552e+06
2.01173e+06
1.99799e+06
1.98431e+06
1.97067e+06
1.9571e+06
1.94357e+06
1.93011e+06
1.91669e+06
1.90333e+06
1.89002e+06
1.87675e+06
1.86354e+06
1.85037e+06
1.83725e+06
1.82418e+06
1.81115e+06
1.79817e+06
1.78524e+06
1.77235e+06
1.75951e+06
1.74672e+06
1.73398e+06
1.72128e+06
1.70862e+06
1.69602e+06
1.68346e+06
1.67094e+06
1.65846e+06
1.64601e+06
1.63359e+06
1.62121e+06
1.60886e+06
1.59655e+06
1.58428e+06
1.57205e+06
1.55987e+06
1.54775e+06
1.53567e+06
1.52364e+06
1.51166e+06
1.49973e+06
1.48786e+06
1.47604e+06
1.46428e+06
1.45257e+06
1.44092e+06
1.42931e+06
1.41775e+06
1.40624e+06
1.39479e+06
1.38338e+06
1.37201e+06
1.3607e+06
1.34943e+06
1.33821e+06
1.32704e+06
1.31591e+06
1.30482e+06
1.29379e+06
1.2828e+06
1.27185e+06
1.26095e+06
1.2501e+06
1.23929e+06
1.22853e+06
1.21782e+06
1.20715e+06
1.19653e+06
1.18595e+06
1.17542e+06
1.16493e+06
1.15449e+06
1.14409e+06
1.13374e+06
1.12344e+06
1.11317e+06
1.10295e+06
1.09278e+06
1.08265e+06
1.07257e+06
1.06254e+06
1.05256e+06
1.04263e+06
1.03274e+06
1.02291e+06
1.01313e+06
1.00339e+06
993708
984070
974480
964937
955441
945992
936591
927236
917928
908667
899453
890285
881164
872089
863062
854081
845148
836260
827419
818625
809876
801174
792516
783904
775337
766813
758333
749897
741505
733156
724852
716592
708376
700204
692075
683987
675942
667934
659969
652037
644149
636288
628470
620670
612912
605165
597452
589757
582087
574435
566802
559175
551554
543925
536280
528599
520867
513055
505129
497036
488702
479985
470718
460329
447873
2.80005e+06
2.76641e+06
2.73845e+06
2.71424e+06
2.69235e+06
2.67192e+06
2.6525e+06
2.63383e+06
2.61573e+06
2.59808e+06
2.58081e+06
2.56384e+06
2.54714e+06
2.53065e+06
2.51435e+06
2.49821e+06
2.48222e+06
2.46636e+06
2.45062e+06
2.43499e+06
2.41946e+06
2.40403e+06
2.38868e+06
2.37341e+06
2.35822e+06
2.34309e+06
2.32803e+06
2.31304e+06
2.2981e+06
2.28324e+06
2.26843e+06
2.25369e+06
2.23901e+06
2.22438e+06
2.20982e+06
2.19531e+06
2.18086e+06
2.16647e+06
2.15213e+06
2.13784e+06
2.12361e+06
2.10945e+06
2.09533e+06
2.08128e+06
2.06728e+06
2.05333e+06
2.03943e+06
2.02558e+06
2.01179e+06
1.99805e+06
1.98436e+06
1.97073e+06
1.95715e+06
1.94362e+06
1.93015e+06
1.91674e+06
1.90338e+06
1.89007e+06
1.87681e+06
1.86359e+06
1.85043e+06
1.83731e+06
1.82424e+06
1.81121e+06
1.79824e+06
1.7853e+06
1.77242e+06
1.75958e+06
1.74679e+06
1.73404e+06
1.72135e+06
1.70869e+06
1.69609e+06
1.68353e+06
1.67101e+06
1.65853e+06
1.64607e+06
1.63365e+06
1.62127e+06
1.60891e+06
1.59659e+06
1.58432e+06
1.57208e+06
1.5599e+06
1.54776e+06
1.53568e+06
1.52364e+06
1.51166e+06
1.49973e+06
1.48785e+06
1.47604e+06
1.46427e+06
1.45256e+06
1.4409e+06
1.4293e+06
1.41774e+06
1.40623e+06
1.39477e+06
1.38336e+06
1.372e+06
1.36069e+06
1.34942e+06
1.3382e+06
1.32702e+06
1.3159e+06
1.30481e+06
1.29378e+06
1.28279e+06
1.27184e+06
1.26094e+06
1.25009e+06
1.23929e+06
1.22852e+06
1.21781e+06
1.20714e+06
1.19652e+06
1.18594e+06
1.17541e+06
1.16493e+06
1.15449e+06
1.14409e+06
1.13374e+06
1.12343e+06
1.11317e+06
1.10295e+06
1.09278e+06
1.08265e+06
1.07257e+06
1.06254e+06
1.05256e+06
1.04263e+06
1.03274e+06
1.02291e+06
1.01313e+06
1.00339e+06
993705
984066
974474
964929
955432
945981
936578
927221
917911
908647
899430
890259
881136
872058
863027
854042
845104
836212
827366
818566
809812
801104
792440
783820
775245
766712
758222
749774
741370
733009
724692
716417
708187
699997
691852
683744
675679
667648
659659
651699
643782
635887
628033
620194
612391
604598
596831
589080
581345
573624
565912
558200
550483
542748
534984
527170
519289
511306
503185
494859
486263
477207
467563
456733
443955
2.80781e+06
2.77429e+06
2.74572e+06
2.72068e+06
2.69802e+06
2.67692e+06
2.65693e+06
2.63776e+06
2.61923e+06
2.60121e+06
2.58361e+06
2.56636e+06
2.54939e+06
2.53267e+06
2.51617e+06
2.49985e+06
2.48369e+06
2.46769e+06
2.45181e+06
2.43606e+06
2.42043e+06
2.40489e+06
2.38946e+06
2.37411e+06
2.35884e+06
2.34365e+06
2.32853e+06
2.31348e+06
2.2985e+06
2.28359e+06
2.26875e+06
2.25398e+06
2.23926e+06
2.22461e+06
2.21002e+06
2.19549e+06
2.18102e+06
2.16661e+06
2.15226e+06
2.13796e+06
2.12372e+06
2.10954e+06
2.09542e+06
2.08136e+06
2.06735e+06
2.0534e+06
2.0395e+06
2.02565e+06
2.01185e+06
1.99811e+06
1.98441e+06
1.97078e+06
1.9572e+06
1.94367e+06
1.9302e+06
1.91678e+06
1.90342e+06
1.89011e+06
1.87685e+06
1.86364e+06
1.85048e+06
1.83736e+06
1.82429e+06
1.81127e+06
1.79829e+06
1.78536e+06
1.77248e+06
1.75964e+06
1.74685e+06
1.73411e+06
1.72141e+06
1.70876e+06
1.69616e+06
1.6836e+06
1.67108e+06
1.65859e+06
1.64614e+06
1.63371e+06
1.62132e+06
1.60896e+06
1.59663e+06
1.58435e+06
1.57211e+06
1.55991e+06
1.54777e+06
1.53568e+06
1.52364e+06
1.51165e+06
1.49972e+06
1.48784e+06
1.47602e+06
1.46426e+06
1.45255e+06
1.44089e+06
1.42928e+06
1.41772e+06
1.40621e+06
1.39475e+06
1.38334e+06
1.37198e+06
1.36067e+06
1.3494e+06
1.33818e+06
1.32701e+06
1.31588e+06
1.3048e+06
1.29376e+06
1.28277e+06
1.27183e+06
1.26093e+06
1.25008e+06
1.23927e+06
1.22851e+06
1.2178e+06
1.20713e+06
1.19651e+06
1.18594e+06
1.1754e+06
1.16492e+06
1.15448e+06
1.14408e+06
1.13373e+06
1.12343e+06
1.11316e+06
1.10295e+06
1.09278e+06
1.08265e+06
1.07257e+06
1.06254e+06
1.05256e+06
1.04263e+06
1.03274e+06
1.02291e+06
1.01313e+06
1.00339e+06
993700
984059
974466
964920
955421
945969
936564
927204
917893
908626
899407
890233
881107
872026
862992
854003
845061
836164
827314
818509
809749
801034
792364
783737
775153
766611
758111
749652
741236
732862
724531
716242
707996
699790
691628
683501
675415
667361
659348
651361
643414
635487
627597
619720
611873
604035
596214
588407
580611
572821
565033
557238
549427
541589
533710
525768
517745
509597
501298
492750
483929
474576
464645
453543
440741
2.81454e+06
2.78135e+06
2.75242e+06
2.72675e+06
2.70344e+06
2.68175e+06
2.66123e+06
2.6416e+06
2.62266e+06
2.60429e+06
2.58637e+06
2.56883e+06
2.55162e+06
2.53467e+06
2.51796e+06
2.50146e+06
2.48515e+06
2.469e+06
2.45299e+06
2.43713e+06
2.42138e+06
2.40575e+06
2.39022e+06
2.37479e+06
2.35945e+06
2.3442e+06
2.32902e+06
2.31393e+06
2.2989e+06
2.28395e+06
2.26907e+06
2.25426e+06
2.23952e+06
2.22484e+06
2.21023e+06
2.19568e+06
2.18119e+06
2.16676e+06
2.15239e+06
2.13808e+06
2.12384e+06
2.10965e+06
2.09552e+06
2.08145e+06
2.06743e+06
2.05347e+06
2.03957e+06
2.02572e+06
2.01191e+06
1.99816e+06
1.98447e+06
1.97083e+06
1.95724e+06
1.94372e+06
1.93024e+06
1.91683e+06
1.90347e+06
1.89016e+06
1.8769e+06
1.86369e+06
1.85053e+06
1.83741e+06
1.82435e+06
1.81132e+06
1.79835e+06
1.78542e+06
1.77253e+06
1.7597e+06
1.74691e+06
1.73416e+06
1.72147e+06
1.70882e+06
1.69622e+06
1.68366e+06
1.67114e+06
1.65865e+06
1.64619e+06
1.63376e+06
1.62137e+06
1.609e+06
1.59667e+06
1.58437e+06
1.57212e+06
1.55993e+06
1.54778e+06
1.53568e+06
1.52363e+06
1.51164e+06
1.49971e+06
1.48783e+06
1.476e+06
1.46424e+06
1.45253e+06
1.44087e+06
1.42926e+06
1.4177e+06
1.40619e+06
1.39473e+06
1.38332e+06
1.37196e+06
1.36065e+06
1.34938e+06
1.33816e+06
1.32699e+06
1.31586e+06
1.30478e+06
1.29374e+06
1.28276e+06
1.27181e+06
1.26091e+06
1.25006e+06
1.23926e+06
1.2285e+06
1.21778e+06
1.20712e+06
1.1965e+06
1.18592e+06
1.17539e+06
1.16491e+06
1.15447e+06
1.14407e+06
1.13372e+06
1.12342e+06
1.11316e+06
1.10294e+06
1.09277e+06
1.08264e+06
1.07257e+06
1.06254e+06
1.05256e+06
1.04262e+06
1.03274e+06
1.02291e+06
1.01312e+06
1.00338e+06
993693
984051
974456
964909
955408
945954
936548
927187
917873
908604
899383
890207
881078
871994
862957
853964
845018
836116
827262
818451
809686
800965
792288
783654
775062
766511
758001
749530
741102
732715
724371
716066
707806
699583
691403
683257
675152
667075
659037
651024
643047
635088
627162
619248
611357
603476
595604
587741
579885
572028
564165
556288
548387
540449
532461
524394
516239
507930
499472
490718
481704
472102
461955
450713
438016
2.82047e+06
2.78769e+06
2.7586e+06
2.73247e+06
2.70861e+06
2.6864e+06
2.6654e+06
2.64534e+06
2.62602e+06
2.6073e+06
2.58907e+06
2.57126e+06
2.5538e+06
2.53664e+06
2.51974e+06
2.50306e+06
2.48658e+06
2.47029e+06
2.45416e+06
2.43817e+06
2.42232e+06
2.40659e+06
2.39098e+06
2.37547e+06
2.36006e+06
2.34475e+06
2.32951e+06
2.31437e+06
2.2993e+06
2.2843e+06
2.26939e+06
2.25455e+06
2.23977e+06
2.22507e+06
2.21043e+06
2.19586e+06
2.18135e+06
2.16691e+06
2.15253e+06
2.13821e+06
2.12395e+06
2.10975e+06
2.09561e+06
2.08154e+06
2.06752e+06
2.05355e+06
2.03964e+06
2.02578e+06
2.01198e+06
1.99822e+06
1.98452e+06
1.97088e+06
1.95729e+06
1.94376e+06
1.93029e+06
1.91687e+06
1.90351e+06
1.8902e+06
1.87694e+06
1.86373e+06
1.85057e+06
1.83746e+06
1.82439e+06
1.81137e+06
1.79839e+06
1.78547e+06
1.77258e+06
1.75975e+06
1.74696e+06
1.73421e+06
1.72152e+06
1.70887e+06
1.69627e+06
1.68371e+06
1.67119e+06
1.6587e+06
1.64624e+06
1.63381e+06
1.6214e+06
1.60903e+06
1.59669e+06
1.58439e+06
1.57213e+06
1.55993e+06
1.54778e+06
1.53567e+06
1.52362e+06
1.51163e+06
1.49969e+06
1.48781e+06
1.47598e+06
1.46421e+06
1.4525e+06
1.44084e+06
1.42923e+06
1.41768e+06
1.40617e+06
1.39471e+06
1.3833e+06
1.37194e+06
1.36062e+06
1.34936e+06
1.33814e+06
1.32696e+06
1.31584e+06
1.30476e+06
1.29372e+06
1.28273e+06
1.27179e+06
1.26089e+06
1.25004e+06
1.23924e+06
1.22848e+06
1.21777e+06
1.2071e+06
1.19648e+06
1.1859e+06
1.17538e+06
1.16489e+06
1.15445e+06
1.14406e+06
1.13371e+06
1.12341e+06
1.11315e+06
1.10293e+06
1.09276e+06
1.08264e+06
1.07256e+06
1.06253e+06
1.05255e+06
1.04262e+06
1.03273e+06
1.0229e+06
1.01311e+06
1.00337e+06
993684
984040
974445
964895
955394
945938
936531
927168
917853
908582
899359
890180
881049
871961
862921
853925
844975
836069
827210
818394
809624
800896
792213
783571
774972
766411
757891
749409
740969
732568
724211
715891
707616
699376
691179
683014
674888
666790
658728
650688
642682
634691
626730
618779
610847
602921
595000
587083
579167
571245
563309
555352
547365
539329
531239
523050
514774
506312
497712
488770
479588
469792
459477
448190
435645
2.82576e+06
2.79344e+06
2.76429e+06
2.73784e+06
2.71354e+06
2.69086e+06
2.66943e+06
2.64897e+06
2.62929e+06
2.61024e+06
2.59173e+06
2.57365e+06
2.55595e+06
2.53858e+06
2.52148e+06
2.50463e+06
2.488e+06
2.47157e+06
2.45531e+06
2.43921e+06
2.42325e+06
2.40743e+06
2.39173e+06
2.37614e+06
2.36066e+06
2.34529e+06
2.33e+06
2.3148e+06
2.29969e+06
2.28465e+06
2.2697e+06
2.25483e+06
2.24003e+06
2.2253e+06
2.21064e+06
2.19604e+06
2.18152e+06
2.16706e+06
2.15267e+06
2.13834e+06
2.12407e+06
2.10986e+06
2.09571e+06
2.08163e+06
2.0676e+06
2.05363e+06
2.03971e+06
2.02585e+06
2.01204e+06
1.99828e+06
1.98457e+06
1.97093e+06
1.95734e+06
1.9438e+06
1.93033e+06
1.91691e+06
1.90355e+06
1.89024e+06
1.87698e+06
1.86377e+06
1.85061e+06
1.8375e+06
1.82443e+06
1.81141e+06
1.79843e+06
1.78551e+06
1.77263e+06
1.75979e+06
1.747e+06
1.73426e+06
1.72156e+06
1.70891e+06
1.69631e+06
1.68376e+06
1.67123e+06
1.65874e+06
1.64628e+06
1.63384e+06
1.62143e+06
1.60906e+06
1.59671e+06
1.5844e+06
1.57214e+06
1.55993e+06
1.54777e+06
1.53566e+06
1.52361e+06
1.51161e+06
1.49967e+06
1.48778e+06
1.47596e+06
1.46419e+06
1.45247e+06
1.44081e+06
1.4292e+06
1.41765e+06
1.40614e+06
1.39468e+06
1.38327e+06
1.37191e+06
1.3606e+06
1.34933e+06
1.33811e+06
1.32694e+06
1.31581e+06
1.30473e+06
1.2937e+06
1.28271e+06
1.27177e+06
1.26087e+06
1.25002e+06
1.23921e+06
1.22845e+06
1.21774e+06
1.20708e+06
1.19646e+06
1.18588e+06
1.17536e+06
1.16487e+06
1.15443e+06
1.14404e+06
1.13369e+06
1.12339e+06
1.11313e+06
1.10292e+06
1.09275e+06
1.08262e+06
1.07255e+06
1.06252e+06
1.05254e+06
1.04261e+06
1.03273e+06
1.02289e+06
1.0131e+06
1.00336e+06
993672
984028
974431
964880
955378
945921
936512
927147
917831
908558
899333
890152
881019
871928
862885
853885
844932
836022
827158
818336
809562
800828
792139
783489
774882
766312
757782
749289
740837
732423
724052
715718
707427
699171
690956
682772
674626
666506
658420
650354
642320
634298
626302
618315
610342
602372
594404
586433
578461
570473
562470
554432
546366
538231
530048
521740
513354
504747
496019
486911
477580
467648
457195
445915
433535
2.83055e+06
2.79867e+06
2.76955e+06
2.74287e+06
2.71821e+06
2.69514e+06
2.67332e+06
2.65249e+06
2.63247e+06
2.61312e+06
2.59432e+06
2.57599e+06
2.55807e+06
2.54048e+06
2.5232e+06
2.50618e+06
2.4894e+06
2.47283e+06
2.45644e+06
2.44023e+06
2.42417e+06
2.40825e+06
2.39247e+06
2.37681e+06
2.36126e+06
2.34582e+06
2.33048e+06
2.31523e+06
2.30007e+06
2.285e+06
2.27001e+06
2.25511e+06
2.24028e+06
2.22552e+06
2.21084e+06
2.19623e+06
2.18169e+06
2.16721e+06
2.1528e+06
2.13846e+06
2.12419e+06
2.10997e+06
2.09582e+06
2.08172e+06
2.06769e+06
2.05371e+06
2.03979e+06
2.02592e+06
2.0121e+06
1.99834e+06
1.98463e+06
1.97097e+06
1.95738e+06
1.94384e+06
1.93037e+06
1.91695e+06
1.90358e+06
1.89027e+06
1.87702e+06
1.86381e+06
1.85065e+06
1.83754e+06
1.82447e+06
1.81144e+06
1.79847e+06
1.78554e+06
1.77266e+06
1.75982e+06
1.74703e+06
1.73429e+06
1.72159e+06
1.70895e+06
1.69635e+06
1.68379e+06
1.67127e+06
1.65877e+06
1.64631e+06
1.63387e+06
1.62146e+06
1.60907e+06
1.59672e+06
1.5844e+06
1.57214e+06
1.55992e+06
1.54775e+06
1.53564e+06
1.52359e+06
1.51158e+06
1.49964e+06
1.48775e+06
1.47593e+06
1.46416e+06
1.45244e+06
1.44078e+06
1.42917e+06
1.41762e+06
1.40611e+06
1.39465e+06
1.38324e+06
1.37188e+06
1.36057e+06
1.3493e+06
1.33808e+06
1.32691e+06
1.31578e+06
1.3047e+06
1.29367e+06
1.28268e+06
1.27174e+06
1.26084e+06
1.24999e+06
1.23919e+06
1.22843e+06
1.21772e+06
1.20705e+06
1.19643e+06
1.18586e+06
1.17533e+06
1.16485e+06
1.15441e+06
1.14402e+06
1.13367e+06
1.12337e+06
1.11311e+06
1.1029e+06
1.09273e+06
1.08261e+06
1.07254e+06
1.06251e+06
1.05253e+06
1.0426e+06
1.03271e+06
1.02288e+06
1.01309e+06
1.00335e+06
993659
984013
974415
964863
955360
945901
936491
927125
917807
908533
899307
890123
880988
871894
862849
853844
844889
835974
827107
818279
809500
800759
792065
783407
774793
766213
757675
749169
740707
732279
723895
715545
707240
698967
690736
682532
674367
666224
658115
650022
641961
633908
625880
617856
609845
601831
593818
585794
577767
569714
561647
553530
545389
537159
528889
520467
511980
503240
494390
485148
475675
465663
455094
443832
431618
2.83493e+06
2.80345e+06
2.77442e+06
2.74757e+06
2.72263e+06
2.69923e+06
2.67706e+06
2.6559e+06
2.63556e+06
2.61592e+06
2.59686e+06
2.57829e+06
2.56014e+06
2.54236e+06
2.52489e+06
2.50771e+06
2.49078e+06
2.47407e+06
2.45756e+06
2.44124e+06
2.42508e+06
2.40907e+06
2.3932e+06
2.37747e+06
2.36185e+06
2.34635e+06
2.33095e+06
2.31566e+06
2.30046e+06
2.28535e+06
2.27032e+06
2.25539e+06
2.24053e+06
2.22575e+06
2.21104e+06
2.19641e+06
2.18185e+06
2.16737e+06
2.15295e+06
2.13859e+06
2.12431e+06
2.11008e+06
2.09592e+06
2.08182e+06
2.06778e+06
2.05379e+06
2.03986e+06
2.02599e+06
2.01216e+06
1.99839e+06
1.98468e+06
1.97102e+06
1.95742e+06
1.94389e+06
1.93041e+06
1.91698e+06
1.90362e+06
1.89031e+06
1.87705e+06
1.86384e+06
1.85068e+06
1.83757e+06
1.8245e+06
1.81147e+06
1.7985e+06
1.78557e+06
1.77269e+06
1.75985e+06
1.74706e+06
1.73431e+06
1.72162e+06
1.70897e+06
1.69637e+06
1.68381e+06
1.67129e+06
1.65879e+06
1.64632e+06
1.63388e+06
1.62147e+06
1.60908e+06
1.59672e+06
1.5844e+06
1.57213e+06
1.5599e+06
1.54774e+06
1.53562e+06
1.52356e+06
1.51155e+06
1.49961e+06
1.48772e+06