/*--------------------------------*- C++ -*----------------------------------*\
| =========                 |                                                 |
| \\      /  F ield         | OpenFOAM: The Open Source CFD Toolbox           |
|  \\    /   O peration     | Version:  2.4.0                                 |
|   \\  /    A nd           | Web:      www.OpenFOAM.org                      |
|    \\/     M anipulation  |                                                 |
\*---------------------------------------------------------------------------*/
FoamFile
{
    version     2.0;
    format      ascii;
    class       volVectorField;
    location    "0.186";
    object      U;
}
// * * * * * * * * * * * * * * * * * * * * * * * * * * * * * * * * * * * * * //

dimensions      [0 1 -1 0 0 0 0];

internalField   nonuniform List<vector> 
4400
(
(5.405 0.316753 0)
(3.31408 0.0607274 0)
(2.58637 0.00141555 0)
(2.23189 -0.00210343 0)
(2.08401 -0.00139684 0)
(1.99896 -0.000965164 0)
(1.95756 -8.3555e-05 0)
(1.91919 -0.000602808 0)
(1.89958 0.00283055 0)
(1.77749 -0.0638997 0)
(8.68957 0.857352 0)
(7.53402 0.344495 0)
(6.63851 0.116203 0)
(5.90534 0.0550932 0)
(5.52788 0.0266451 0)
(5.27628 0.014392 0)
(5.15301 0.010911 0)
(5.02862 0.00425664 0)
(5.0048 0.0167027 0)
(4.86089 -0.0908872 0)
(9.89992 0.93736 0)
(9.97746 0.476789 0)
(9.50865 0.21295 0)
(8.74258 0.130069 0)
(8.28073 0.0744598 0)
(7.91915 0.0434832 0)
(7.74427 0.031425 0)
(7.54054 0.0138383 0)
(7.53196 0.02706 0)
(7.372 -0.0958908 0)
(10.1397 0.807766 0)
(11.0922 0.497331 0)
(11.2944 0.2653 0)
(10.8123 0.197879 0)
(10.4589 0.128993 0)
(10.0914 0.0812209 0)
(9.92117 0.060125 0)
(9.66608 0.0283125 0)
(9.66549 0.0335629 0)
(9.56866 -0.0998106 0)
(10.0805 0.648146 0)
(11.2886 0.435425 0)
(12.0107 0.244837 0)
(11.948 0.219768 0)
(11.8817 0.162503 0)
(11.6605 0.113456 0)
(11.5824 0.0885714 0)
(11.3476 0.0474812 0)
(11.356 0.0336871 0)
(11.3954 -0.117949 0)
(10.0712 0.517227 0)
(11.1926 0.359122 0)
(12.0738 0.183365 0)
(12.2407 0.190022 0)
(12.4414 0.152582 0)
(12.467 0.11763 0)
(12.5624 0.102148 0)
(12.4441 0.0581544 0)
(12.5448 0.0275425 0)
(12.6896 -0.118848 0)
(10.0749 0.398489 0)
(11.1278 0.292486 0)
(12.025 0.129066 0)
(12.2337 0.148704 0)
(12.4671 0.113379 0)
(12.6451 0.0935768 0)
(12.8424 0.0897465 0)
(12.8775 0.0531935 0)
(13.1817 -0.0126915 0)
(13.2248 -0.0182522 0)
(10.0356 0.278029 0)
(11.1194 0.218606 0)
(11.982 0.0789391 0)
(12.2047 0.121027 0)
(12.4212 0.0716659 0)
(12.6034 0.0696089 0)
(12.7935 0.0628851 0)
(12.996 0.0257601 0)
(13.2827 -0.043759 0)
(13.134 0.0176128 0)
(10.0015 0.170058 0)
(11.1445 0.125339 0)
(11.8644 0.04614 0)
(12.1775 0.0818947 0)
(12.4444 0.0399099 0)
(12.5887 0.0370664 0)
(12.788 0.0373709 0)
(13.0163 -0.0107535 0)
(13.1104 -0.038177 0)
(13.0971 -0.0495155 0)
(10.0166 0.0531536 0)
(11.1107 0.0474244 0)
(11.798 0.00911587 0)
(12.2176 0.0390388 0)
(12.4405 -0.00272233 0)
(12.5874 0.014029 0)
(12.7603 0.00873465 0)
(12.9723 -0.0220021 0)
(13.0973 -0.0706518 0)
(13.1552 -0.0689421 0)
(10.0027 -0.0537677 0)
(11.1067 -0.0382362 0)
(11.8438 -0.028751 0)
(12.2067 -0.00701526 0)
(12.408 -0.0305515 0)
(12.5732 -0.0151636 0)
(12.7673 -0.0156855 0)
(12.9915 -0.0537936 0)
(13.1409 -0.0876599 0)
(13.1811 -0.110184 0)
(10.0019 -0.167471 0)
(11.1422 -0.125562 0)
(11.8637 -0.0625107 0)
(12.1738 -0.0427308 0)
(12.4341 -0.0684017 0)
(12.614 -0.047758 0)
(12.8029 -0.0428345 0)
(13.0055 -0.0774793 0)
(13.1443 -0.108372 0)
(13.1581 -0.135668 0)
(10.0278 -0.279796 0)
(11.1401 -0.208793 0)
(11.9008 -0.0967627 0)
(12.2081 -0.0887847 0)
(12.5061 -0.106906 0)
(12.6222 -0.0752921 0)
(12.832 -0.0678827 0)
(13.0009 -0.100629 0)
(13.1473 -0.125274 0)
(13.0805 -0.139519 0)
(10.0355 -0.396654 0)
(11.1525 -0.285102 0)
(11.9932 -0.142341 0)
(12.2475 -0.131561 0)
(12.5529 -0.140278 0)
(12.5989 -0.102168 0)
(12.8636 -0.0946821 0)
(12.9015 -0.118632 0)
(13.0203 -0.13331 0)
(12.8474 -0.168884 0)
(10.0157 -0.515824 0)
(11.24 -0.356018 0)
(12.0579 -0.194881 0)
(12.265 -0.178141 0)
(12.4797 -0.171339 0)
(12.4095 -0.124714 0)
(12.5675 -0.109364 0)
(12.401 -0.121161 0)
(12.4308 -0.128275 0)
(12.1092 -0.175897 0)
(10.0435 -0.64631 0)
(11.3365 -0.434626 0)
(11.9819 -0.251857 0)
(11.9687 -0.211704 0)
(11.8864 -0.176284 0)
(11.6104 -0.118831 0)
(11.5765 -0.0990275 0)
(11.2635 -0.098041 0)
(11.2075 -0.1131 0)
(10.8137 -0.141543 0)
(10.1182 -0.806762 0)
(11.1261 -0.497186 0)
(11.2652 -0.269553 0)
(10.8309 -0.193318 0)
(10.4508 -0.13793 0)
(10.0474 -0.0860115 0)
(9.90816 -0.0691122 0)
(9.55625 -0.067808 0)
(9.47693 -0.0875384 0)
(9.03691 -0.0958643 0)
(9.88884 -0.937047 0)
(9.9992 -0.476742 0)
(9.48473 -0.215323 0)
(8.75624 -0.127673 0)
(8.26917 -0.0795079 0)
(7.88186 -0.0471826 0)
(7.72609 -0.0377979 0)
(7.4165 -0.0401323 0)
(7.33865 -0.0554031 0)
(6.87197 -0.0594205 0)
(8.68433 -0.857283 0)
(7.54548 -0.344366 0)
(6.62357 -0.11727 0)
(5.91271 -0.0541278 0)
(5.51794 -0.0287095 0)
(5.2476 -0.0168023 0)
(5.13092 -0.0139019 0)
(4.91511 -0.0176526 0)
(4.83916 -0.0258032 0)
(4.44386 -0.0257583 0)
(5.40383 -0.316823 0)
(3.3171 -0.0606652 0)
(2.58177 -0.00160798 0)
(2.23298 0.0022632 0)
(2.07942 0.00125176 0)
(1.98393 0.000357898 0)
(1.94015 0.000210844 0)
(1.85647 -0.00151897 0)
(1.80323 -0.00235306 0)
(1.61587 0.00804263 0)
(2.70169 0.0228405 0)
(2.78564 0.00974935 0)
(3.70828 -0.128031 0)
(3.08165 -0.322474 0)
(4.08508 -0.480553 0)
(2.89491 0.0866125 0)
(3.85899 -0.0246726 0)
(4.12892 -0.0369364 0)
(4.4383 0.162293 0)
(5.03131 0.320827 0)
(5.63054 0.282273 0)
(6.18563 0.513198 0)
(7.48865 -0.0273205 0)
(7.30368 -0.476065 0)
(7.60545 -0.541051 0)
(8.83962 -1.25439 0)
(8.76418 -1.78304 0)
(9.17964 -2.0165 0)
(10.5988 -2.61756 0)
(11.1174 -3.1205 0)
(11.3266 -3.5133 0)
(11.859 -4.29747 0)
(11.1489 -3.9393 0)
(9.47485 -2.36186 0)
(9.86447 -1.68047 0)
(9.17244 -0.266947 0)
(8.61185 1.73603 0)
(10.0088 2.26127 0)
(10.8147 2.1552 0)
(11.0985 1.74086 0)
(11.6485 0.581741 0)
(11.3737 -0.60343 0)
(11.1555 -1.7142 0)
(10.9673 -2.60973 0)
(10.3749 -3.22407 0)
(10.0726 -4.24337 0)
(9.34164 -5.30884 0)
(8.12558 -5.50745 0)
(6.39393 -4.95964 0)
(4.88749 -4.43435 0)
(3.46979 -4.64136 0)
(2.96611 -6.01694 0)
(2.69604 -7.64737 0)
(3.97253 -7.36028 0)
(4.93078 -6.15983 0)
(5.69549 -4.28576 0)
(6.39586 -2.08363 0)
(6.44861 -1.23574 0)
(6.92003 -0.941874 0)
(7.12276 -0.249842 0)
(8.00998 0.873523 0)
(8.46785 2.51134 0)
(9.48369 4.3472 0)
(10.1865 6.22066 0)
(11.0436 7.56237 0)
(11.2772 8.15213 0)
(11.2805 7.85015 0)
(10.8981 6.74479 0)
(10.382 5.33315 0)
(10.1811 4.18762 0)
(9.54553 3.03317 0)
(8.8158 2.1235 0)
(7.90285 1.37636 0)
(8.59065 2.14765 0)
(7.62991 1.9722 0)
(8.08985 2.75511 0)
(6.77356 1.81297 0)
(8.02309 3.5487 0)
(7.10825 2.39165 0)
(9.27786 2.93121 0)
(8.39398 1.59644 0)
(10.1782 1.39706 0)
(9.37534 -0.0851003 0)
(9.85691 -1.22185 0)
(8.32839 -1.81704 0)
(8.79446 -1.93658 0)
(7.40217 -3.72797 0)
(8.27713 -3.17132 0)
(6.82505 -4.58878 0)
(8.38978 -3.67725 0)
(7.17812 -3.59311 0)
(8.08228 -3.95212 0)
(7.65534 -3.5696 0)
(8.06072 -1.51683 0)
(6.77539 -4.05999 0)
(7.38904 -5.84747 0)
(8.72903 -4.60988 0)
(8.56324 -3.41523 0)
(8.2123 -2.66823 0)
(8.84021 -0.547816 0)
(8.9497 0.992128 0)
(8.7422 2.00881 0)
(8.55181 4.17355 0)
(8.66849 6.82119 0)
(7.81974 7.97133 0)
(7.11509 7.87244 0)
(6.57627 7.68038 0)
(5.61364 7.97287 0)
(5.75091 7.68713 0)
(3.27686 11.1504 0)
(5.32611 -0.0187798 0)
(5.11285 -0.0355121 0)
(5.88961 -0.16698 0)
(5.37145 -0.303964 0)
(6.15902 -0.482727 0)
(5.48181 -0.0219161 0)
(5.94997 -0.0775546 0)
(6.36139 -0.156801 0)
(6.1937 0.068642 0)
(7.02318 0.123043 0)
(7.12991 0.0797131 0)
(7.3499 0.205712 0)
(8.85076 -0.277344 0)
(8.72157 -0.562547 0)
(8.99003 -0.867079 0)
(10.305 -1.5767 0)
(10.6099 -1.90376 0)
(10.8721 -2.28674 0)
(12.0321 -2.88758 0)
(12.2674 -3.27957 0)
(12.3641 -3.61715 0)
(12.7428 -4.06728 0)
(11.7078 -3.56521 0)
(10.3125 -2.03468 0)
(10.4683 -1.47501 0)
(10.0002 -0.270034 0)
(9.60158 1.53444 0)
(10.6353 2.00808 0)
(11.2795 1.97554 0)
(11.6021 1.59939 0)
(12.0365 0.567745 0)
(11.7241 -0.526749 0)
(11.49 -1.63425 0)
(11.0995 -2.43352 0)
(10.4362 -3.01603 0)
(10.0135 -4.00211 0)
(9.25822 -4.89827 0)
(7.84427 -4.86564 0)
(5.99576 -4.24845 0)
(4.3862 -3.75276 0)
(2.76325 -4.19106 0)
(2.17356 -5.93796 0)
(1.74391 -7.87798 0)
(2.5977 -7.91971 0)
(4.0095 -6.48149 0)
(4.39774 -4.57254 0)
(5.31192 -2.31316 0)
(5.54429 -1.44608 0)
(5.97843 -1.1874 0)
(6.38006 -0.47875 0)
(7.33678 0.662868 0)
(7.69195 2.29297 0)
(8.52089 4.03721 0)
(9.13938 5.87135 0)
(10.101 7.30639 0)
(10.5631 8.03691 0)
(10.6717 7.88972 0)
(10.4074 6.89168 0)
(10.1338 5.45417 0)
(10.1602 4.34003 0)
(9.59132 3.23852 0)
(9.10158 2.48284 0)
(7.76671 1.41909 0)
(8.77233 2.17282 0)
(7.88174 2.04947 0)
(8.5679 2.88406 0)
(7.10764 1.848 0)
(8.46968 3.46693 0)
(7.11546 2.21134 0)
(9.47267 2.5287 0)
(8.77733 1.43326 0)
(10.1515 1.22537 0)
(10.0187 -0.00678311 0)
(9.73021 -1.04993 0)
(8.83677 -1.51565 0)
(8.64157 -1.89813 0)
(7.85718 -3.58432 0)
(8.44098 -3.0492 0)
(7.36613 -4.52878 0)
(8.44612 -3.68483 0)
(7.31492 -3.73333 0)
(8.21364 -4.07426 0)
(6.94893 -3.63125 0)
(8.23371 -1.27335 0)
(6.73464 -4.04233 0)
(7.35314 -6.02813 0)
(8.43038 -4.76643 0)
(8.24128 -3.35966 0)
(7.94074 -2.60231 0)
(8.52132 -0.692319 0)
(8.6165 0.996752 0)
(8.64609 2.09217 0)
(8.33459 4.06704 0)
(8.71502 6.76546 0)
(7.84175 8.13196 0)
(7.19867 8.222 0)
(6.57278 7.82349 0)
(5.77399 8.38363 0)
(7.14382 7.60177 0)
(4.85888 11.8701 0)
(7.74006 -0.14657 0)
(7.38562 -0.108598 0)
(8.01099 -0.2147 0)
(7.60388 -0.289711 0)
(8.19928 -0.493357 0)
(7.83314 -0.166041 0)
(8.0607 -0.160581 0)
(8.66106 -0.223007 0)
(8.12624 -0.010528 0)
(9.11962 -0.0969338 0)
(9.14074 -0.00705154 0)
(9.16975 0.0284276 0)
(10.4141 -0.580797 0)
(10.4131 -0.70544 0)
(10.8577 -1.00331 0)
(11.816 -1.83661 0)
(11.9861 -2.12326 0)
(12.3935 -2.51599 0)
(13.0676 -3.07498 0)
(13.1282 -3.31512 0)
(13.1105 -3.65738 0)
(13.1377 -3.84003 0)
(11.8005 -3.20449 0)
(10.6769 -1.87217 0)
(10.9557 -1.30535 0)
(10.6001 -0.241914 0)
(10.272 1.35799 0)
(11.0981 1.8213 0)
(11.6009 1.84105 0)
(11.8891 1.4595 0)
(12.2093 0.556022 0)
(11.8447 -0.422199 0)
(11.6804 -1.49326 0)
(11.1863 -2.19141 0)
(10.4183 -2.74131 0)
(9.91808 -3.7064 0)
(9.05653 -4.45107 0)
(7.50636 -4.2282 0)
(5.66103 -3.49533 0)
(3.86927 -3.02576 0)
(2.24318 -3.68436 0)
(1.34365 -5.75244 0)
(0.732346 -7.91127 0)
(1.1582 -8.38364 0)
(2.88969 -6.75166 0)
(2.97187 -4.77499 0)
(4.07244 -2.5567 0)
(4.58036 -1.66085 0)
(4.72505 -1.43124 0)
(5.45665 -0.747278 0)
(6.40586 0.455096 0)
(6.84115 2.13052 0)
(7.56164 3.73119 0)
(8.05901 5.51156 0)
(9.10024 6.98747 0)
(9.51738 7.86449 0)
(9.96831 7.82682 0)
(10.0284 6.8871 0)
(9.73656 5.48327 0)
(9.92857 4.51052 0)
(9.36887 3.42519 0)
(9.25258 2.86804 0)
(7.70828 1.55144 0)
(8.79206 2.09284 0)
(8.05014 2.10901 0)
(8.99375 3.01909 0)
(7.47101 1.88933 0)
(9.01669 3.34322 0)
(7.16233 2.11775 0)
(9.4427 2.06495 0)
(9.03087 1.30348 0)
(10.0198 0.995518 0)
(10.1738 0.0648757 0)
(9.63493 -0.908549 0)
(9.03402 -1.27372 0)
(9.08254 -1.65709 0)
(7.9935 -3.44035 0)
(8.6548 -3.12243 0)
(7.70913 -4.51636 0)
(8.46388 -3.61693 0)
(7.59933 -3.69789 0)
(8.45782 -3.67875 0)
(6.25582 -3.56515 0)
(8.40808 -1.29032 0)
(6.54854 -3.9258 0)
(7.21151 -6.24856 0)
(8.08879 -4.97994 0)
(8.01553 -3.31757 0)
(7.7227 -2.60411 0)
(8.04944 -0.848192 0)
(8.3898 0.934476 0)
(8.38681 2.21708 0)
(8.08771 4.28677 0)
(8.35733 6.99329 0)
(7.73786 8.45848 0)
(7.16413 8.59253 0)
(7.16496 7.87825 0)
(5.65922 8.71743 0)
(8.20673 6.99795 0)
(6.19285 11.8852 0)
(9.83848 -0.176818 0)
(9.4592 -0.093876 0)
(9.87486 -0.221876 0)
(9.5055 -0.282604 0)
(9.98426 -0.497213 0)
(9.73129 -0.280499 0)
(9.89561 -0.286342 0)
(10.5265 -0.297686 0)
(10.0432 -0.0220446 0)
(10.9795 -0.266116 0)
(10.9326 -0.149726 0)
(10.9674 -0.11629 0)
(12.0459 -0.748696 0)
(11.9297 -0.8845 0)
(12.371 -1.20208 0)
(13.1687 -1.97646 0)
(13.0828 -2.27439 0)
(13.4624 -2.65485 0)
(13.7574 -3.09814 0)
(13.589 -3.29188 0)
(13.5488 -3.62488 0)
(13.22 -3.49516 0)
(11.9622 -2.67595 0)
(11.1764 -1.72467 0)
(11.3631 -1.2482 0)
(10.8998 -0.187283 0)
(10.5515 1.25409 0)
(11.2405 1.66797 0)
(11.5477 1.70729 0)
(11.9327 1.33484 0)
(12.1057 0.598805 0)
(11.7654 -0.32273 0)
(11.6915 -1.33982 0)
(11.1014 -1.89972 0)
(10.1958 -2.45908 0)
(9.70147 -3.43818 0)
(8.82187 -3.9702 0)
(7.17416 -3.53698 0)
(5.29 -2.71097 0)
(3.4048 -2.29981 0)
(1.77085 -3.13364 0)
(0.615857 -5.40217 0)
(-0.0884792 -7.8696 0)
(0.0235909 -8.84535 0)
(1.88503 -6.97545 0)
(1.86704 -4.91268 0)
(3.06906 -2.82756 0)
(3.56158 -1.82969 0)
(3.50151 -1.64337 0)
(4.36361 -1.05276 0)
(5.29155 0.224587 0)
(5.86884 1.94986 0)
(6.52456 3.47934 0)
(6.9326 5.25092 0)
(7.93685 6.72583 0)
(8.51833 7.53047 0)
(9.25655 7.58676 0)
(9.35487 6.94172 0)
(9.06446 5.48849 0)
(9.68651 4.59226 0)
(9.14142 3.51433 0)
(9.25326 3.12819 0)
(7.69007 1.71557 0)
(8.71556 1.9689 0)
(8.0944 2.0517 0)
(9.34476 3.02231 0)
(7.74437 1.95971 0)
(9.58447 3.32873 0)
(7.35121 2.23111 0)
(9.29702 1.59625 0)
(9.02645 1.17463 0)
(9.93154 0.824571 0)
(10.0457 0.10417 0)
(9.77862 -0.695906 0)
(8.90711 -1.06893 0)
(9.61728 -1.63667 0)
(7.95177 -3.30238 0)
(9.34106 -3.09538 0)
(8.19201 -4.23883 0)
(8.62109 -3.54907 0)
(7.68202 -3.78685 0)
(8.42622 -3.45896 0)
(5.53546 -3.49858 0)
(8.39965 -1.47643 0)
(6.19635 -3.87999 0)
(6.83013 -6.23519 0)
(7.73195 -5.25376 0)
(7.45167 -3.33946 0)
(7.21417 -2.51314 0)
(7.54758 -0.932607 0)
(8.04243 0.788977 0)
(7.86192 2.17141 0)
(8.09511 4.20209 0)
(7.76265 6.90813 0)
(7.7671 8.45058 0)
(6.95622 8.86483 0)
(7.98622 7.73825 0)
(5.77288 9.11587 0)
(9.08342 6.33842 0)
(7.15734 11.5395 0)
(11.45 -0.149416 0)
(11.1879 -0.0411521 0)
(11.4214 -0.200336 0)
(11.1224 -0.281248 0)
(11.5352 -0.467705 0)
(11.2241 -0.357768 0)
(11.4761 -0.415783 0)
(11.8768 -0.373459 0)
(11.5489 -0.116474 0)
(12.3568 -0.401164 0)
(12.3661 -0.240851 0)
(12.4728 -0.240281 0)
(13.241 -0.862532 0)
(13.1339 -1.03321 0)
(13.5261 -1.35912 0)
(13.9547 -2.02463 0)
(13.827 -2.36044 0)
(13.9723 -2.73446 0)
(13.9783 -3.09289 0)
(13.8185 -3.26238 0)
(13.6867 -3.45806 0)
(12.9115 -3.13825 0)
(11.9425 -2.39526 0)
(11.8557 -1.69364 0)
(11.79 -1.0816 0)
(10.9977 0.0361561 0)
(10.7416 1.17838 0)
(11.1383 1.55721 0)
(11.2212 1.62888 0)
(11.7111 1.22513 0)
(11.6424 0.620125 0)
(11.5559 -0.267237 0)
(11.4958 -1.20989 0)
(10.6553 -1.63806 0)
(9.85679 -2.21134 0)
(9.51248 -3.14159 0)
(8.58764 -3.4581 0)
(6.88397 -2.82661 0)
(4.95051 -1.90883 0)
(3.05631 -1.54353 0)
(1.27103 -2.54338 0)
(0.207362 -5.02609 0)
(-0.772675 -7.76574 0)
(-1.03655 -9.24382 0)
(0.662558 -7.37492 0)
(1.14325 -5.13729 0)
(2.23017 -3.16062 0)
(2.67911 -1.99832 0)
(2.61768 -1.87059 0)
(3.3792 -1.36853 0)
(4.094 -0.000427995 0)
(4.75728 1.70519 0)
(5.38735 3.24796 0)
(5.81425 5.00943 0)
(6.84828 6.38074 0)
(7.37032 7.19241 0)
(8.08661 7.42954 0)
(8.68988 6.89246 0)
(8.41192 5.39746 0)
(9.26507 4.62053 0)
(8.74759 3.61031 0)
(9.08888 3.35763 0)
(7.64885 1.92837 0)
(8.49259 1.84002 0)
(7.96605 1.93159 0)
(9.58831 3.00359 0)
(7.83881 1.90586 0)
(10.1154 3.22816 0)
(7.90009 2.4782 0)
(9.20276 1.26833 0)
(9.10491 0.926868 0)
(9.85939 0.724941 0)
(9.7988 0.138986 0)
(9.959 -0.603943 0)
(8.74861 -0.928586 0)
(10.1326 -1.40492 0)
(8.02542 -3.19644 0)
(9.78768 -3.36788 0)
(8.4146 -4.06281 0)
(9.04384 -3.50128 0)
(8.06781 -3.57168 0)
(8.45058 -2.85883 0)
(5.28945 -3.27532 0)
(7.93436 -1.6982 0)
(5.82037 -3.80312 0)
(6.33485 -6.37532 0)
(7.06939 -5.19345 0)
(6.78186 -3.30142 0)
(6.52578 -2.60674 0)
(6.95697 -0.940101 0)
(7.15021 0.799974 0)
(7.40181 2.33829 0)
(7.51958 4.39087 0)
(7.22237 7.01644 0)
(7.35378 8.37133 0)
(6.75918 9.07294 0)
(8.02141 7.42745 0)
(5.8896 9.46063 0)
(9.87683 5.42124 0)
(8.00023 10.925 0)
(12.4758 -0.15116 0)
(12.4066 -0.0275116 0)
(12.5039 -0.161171 0)
(12.3973 -0.308532 0)
(12.6881 -0.443723 0)
(12.4045 -0.394914 0)
(12.7285 -0.515173 0)
(12.8312 -0.431237 0)
(12.6972 -0.222478 0)
(13.2564 -0.466399 0)
(13.2148 -0.360836 0)
(13.4754 -0.398165 0)
(13.9131 -0.86754 0)
(13.826 -1.14901 0)
(14.1591 -1.47119 0)
(14.1861 -1.9821 0)
(14.0859 -2.41862 0)
(14.1387 -2.72871 0)
(13.9021 -2.99799 0)
(13.7624 -3.21172 0)
(13.5703 -3.25912 0)
(12.7824 -2.74766 0)
(12.2251 -2.222 0)
(12.3803 -1.76636 0)
(11.8909 -0.905185 0)
(11.0716 0.268078 0)
(10.9618 1.15769 0)
(10.9505 1.56431 0)
(11.0564 1.54619 0)
(11.376 1.15166 0)
(11.181 0.653662 0)
(11.3823 -0.261793 0)
(11.067 -1.04553 0)
(10.1471 -1.34876 0)
(9.65137 -1.98828 0)
(9.39649 -2.8675 0)
(8.31213 -2.94057 0)
(6.54493 -2.10098 0)
(4.63509 -1.12455 0)
(2.7979 -0.795945 0)
(0.984021 -1.9532 0)
(-0.124477 -4.61299 0)
(-1.33809 -7.4995 0)
(-2.05177 -9.32989 0)
(-0.844479 -7.93679 0)
(0.314196 -5.51419 0)
(1.26875 -3.51459 0)
(1.80813 -2.22717 0)
(1.90969 -2.11372 0)
(2.42421 -1.62919 0)
(2.92167 -0.209312 0)
(3.63313 1.43332 0)
(4.24735 3.01341 0)
(4.67504 4.79269 0)
(5.6011 6.08778 0)
(6.303 6.80716 0)
(7.01513 7.05637 0)
(7.93158 6.7452 0)
(7.67835 5.26395 0)
(8.84359 4.53243 0)
(8.21515 3.62416 0)
(8.82213 3.44302 0)
(7.5816 2.15402 0)
(8.35216 1.7313 0)
(7.5417 1.69174 0)
(9.7909 2.93009 0)
(7.86164 1.86759 0)
(10.3681 3.11335 0)
(8.54805 2.76911 0)
(9.16708 1.14128 0)
(9.31783 0.739781 0)
(9.80472 0.656457 0)
(9.66994 0.0742455 0)
(10.1617 -0.39839 0)
(8.52876 -0.95673 0)
(10.3385 -1.43899 0)
(8.38738 -3.06134 0)
(10.1948 -3.43434 0)
(8.71927 -3.77555 0)
(9.20613 -3.4269 0)
(8.12637 -3.47926 0)
(8.23209 -2.42908 0)
(5.58795 -2.92693 0)
(7.12237 -1.72997 0)
(5.80893 -3.64719 0)
(5.66337 -6.47172 0)
(6.49155 -5.25687 0)
(6.24832 -3.15786 0)
(5.58816 -2.76039 0)
(6.47246 -1.05415 0)
(6.66003 0.544113 0)
(7.14401 2.22634 0)
(6.70239 4.35918 0)
(6.9882 7.10404 0)
(6.89802 8.17946 0)
(6.44561 9.33376 0)
(8.1896 7.09585 0)
(5.57146 9.79655 0)
(10.2021 4.43075 0)
(8.69193 10.317 0)
(12.9484 -0.175191 0)
(13.0345 -0.132274 0)
(13.0587 -0.217966 0)
(13.2377 -0.392777 0)
(13.3686 -0.446913 0)
(13.1948 -0.460815 0)
(13.4408 -0.58325 0)
(13.3479 -0.440496 0)
(13.3392 -0.352568 0)
(13.6035 -0.503935 0)
(13.5794 -0.430638 0)
(13.8514 -0.540927 0)
(13.9823 -0.852649 0)
(14.0275 -1.23573 0)
(14.1654 -1.54962 0)
(14.0468 -1.91833 0)
(14.0256 -2.44345 0)
(13.9672 -2.71401 0)
(13.7633 -2.94366 0)
(13.6623 -3.12964 0)
(13.302 -3.03179 0)
(12.7706 -2.60125 0)
(12.7704 -2.24774 0)
(12.7764 -1.67693 0)
(11.8893 -0.576159 0)
(11.2905 0.441921 0)
(11.2222 1.19239 0)
(11.0319 1.60277 0)
(11.1543 1.48306 0)
(11.1212 1.17499 0)
(10.9974 0.637786 0)
(11.1646 -0.233874 0)
(10.5672 -0.73549 0)
(9.81645 -1.07861 0)
(9.56268 -1.85836 0)
(9.27878 -2.54631 0)
(8.0253 -2.33549 0)
(6.197 -1.36177 0)
(4.36642 -0.36584 0)
(2.63539 -0.0747649 0)
(0.967637 -1.35085 0)
(-0.297429 -4.11261 0)
(-1.61026 -7.14187 0)
(-2.7028 -9.21755 0)
(-2.22841 -8.45223 0)
(-0.557453 -6.0026 0)
(0.0707734 -3.80799 0)
(0.762072 -2.43237 0)
(1.0283 -2.29128 0)
(1.30565 -1.76074 0)
(1.76614 -0.370749 0)
(2.36748 1.18155 0)
(3.00249 2.90701 0)
(3.43363 4.53911 0)
(4.55427 5.67531 0)
(5.08877 6.46592 0)
(5.79861 6.74949 0)
(7.13356 6.4804 0)
(6.97362 5.07204 0)
(8.18996 4.46945 0)
(7.72766 3.71032 0)
(8.5088 3.43849 0)
(7.32302 2.30499 0)
(8.34839 1.77253 0)
(6.89994 1.42485 0)
(9.68684 2.7587 0)
(8.0878 1.79689 0)
(10.2193 2.88366 0)
(9.19921 3.00741 0)
(9.48623 1.13236 0)
(9.48003 0.502716 0)
(9.87472 0.696141 0)
(9.72299 0.002546 0)
(10.2558 -0.303524 0)
(8.67822 -0.777871 0)
(10.3259 -1.51126 0)
(8.90388 -3.0494 0)
(10.105 -3.59644 0)
(8.93212 -3.59098 0)
(9.26347 -3.32169 0)
(8.21433 -3.10607 0)
(7.89018 -2.05033 0)
(5.8255 -2.50408 0)
(5.97369 -1.63354 0)
(5.94428 -3.73536 0)
(4.84404 -6.47395 0)
(5.81042 -5.28532 0)
(5.65566 -3.01453 0)
(4.81674 -2.99227 0)
(5.90221 -1.14773 0)
(6.09783 0.33772 0)
(6.22789 2.44871 0)
(6.08606 4.39466 0)
(6.36674 7.21827 0)
(7.15384 7.91001 0)
(5.73953 9.65458 0)
(8.76245 6.68877 0)
(5.5999 9.85991 0)
(9.76937 3.37893 0)
(9.18215 9.52339 0)
(13.1017 -0.191534 0)
(13.1883 -0.176278 0)
(13.2861 -0.245927 0)
(13.5995 -0.421557 0)
(13.6384 -0.441558 0)
(13.5304 -0.482238 0)
(13.5455 -0.537259 0)
(13.3753 -0.43794 0)
(13.4044 -0.429623 0)
(13.3852 -0.455482 0)
(13.5041 -0.49156 0)
(13.6565 -0.644495 0)
(13.6723 -0.83421 0)
(13.9595 -1.28491 0)
(13.8954 -1.58005 0)
(13.7994 -1.88372 0)
(13.9419 -2.47441 0)
(13.8326 -2.67174 0)
(13.6714 -2.82895 0)
(13.5677 -3.03656 0)
(13.301 -2.86519 0)
(12.9885 -2.56633 0)
(12.9771 -2.28416 0)
(12.6195 -1.51996 0)
(11.7892 -0.32388 0)
(11.6119 0.523313 0)
(11.5 1.21864 0)
(11.2816 1.63722 0)
(11.3281 1.50672 0)
(11.0794 1.21935 0)
(10.951 0.669914 0)
(10.7862 -0.0448837 0)
(10.1324 -0.459279 0)
(9.70576 -0.92897 0)
(9.4946 -1.72536 0)
(9.01163 -2.20847 0)
(7.63011 -1.73302 0)
(5.82487 -0.64553 0)
(4.11943 0.33403 0)
(2.55451 0.567646 0)
(1.09836 -0.776115 0)
(-0.00932217 -3.56795 0)
(-1.59659 -6.68629 0)
(-3.06569 -8.98766 0)
(-3.27792 -8.8477 0)
(-1.35006 -6.35486 0)
(-0.976201 -4.06473 0)
(-0.256797 -2.65134 0)
(0.0829399 -2.40038 0)
(0.074597 -1.88161 0)
(0.668279 -0.529234 0)
(1.05208 0.905825 0)
(1.7142 2.74338 0)
(2.32588 4.21762 0)
(3.20743 5.33976 0)
(4.04173 6.13867 0)
(4.79951 6.2629 0)
(6.2054 6.15746 0)
(6.21113 4.87858 0)
(7.70955 4.27539 0)
(7.21477 3.59873 0)
(8.16554 3.41016 0)
(6.98036 2.40023 0)
(8.36004 1.82234 0)
(6.51389 1.17829 0)
(9.21211 2.42611 0)
(8.48643 1.73724 0)
(9.81421 2.71187 0)
(9.40695 3.04385 0)
(10.0201 1.2861 0)
(9.63907 0.460263 0)
(9.78005 0.656548 0)
(9.92349 -0.0248708 0)
(10.0798 -0.151298 0)
(9.08697 -0.746644 0)
(10.177 -1.62254 0)
(9.52699 -2.94803 0)
(9.99255 -3.50579 0)
(9.09472 -3.29774 0)
(8.96126 -3.21717 0)
(8.11864 -2.84152 0)
(7.56572 -1.60613 0)
(5.94706 -1.96389 0)
(4.97825 -1.66431 0)
(6.05317 -3.79687 0)
(3.97252 -6.27961 0)
(5.17138 -5.15196 0)
(5.08781 -2.86762 0)
(4.01187 -3.08037 0)
(5.03857 -1.15383 0)
(4.94472 0.227473 0)
(5.40813 2.54435 0)
(5.62813 4.25613 0)
(5.44284 7.10926 0)
(7.27103 7.54801 0)
(5.1631 9.76671 0)
(9.31279 6.03064 0)
(6.26358 9.83145 0)
(9.0771 3.02471 0)
(9.37666 8.7344 0)
(13.1597 -0.185348 0)
(13.285 -0.180693 0)
(13.4614 -0.260275 0)
(13.7361 -0.420699 0)
(13.724 -0.447486 0)
(13.4065 -0.44786 0)
(13.2987 -0.457526 0)
(13.2341 -0.412317 0)
(13.1213 -0.454023 0)
(13.0849 -0.461922 0)
(13.4206 -0.532219 0)
(13.4245 -0.720081 0)
(13.5479 -0.896572 0)
(13.8886 -1.31093 0)
(13.7114 -1.59557 0)
(13.7684 -1.88104 0)
(13.8844 -2.44144 0)
(13.6607 -2.62403 0)
(13.6002 -2.75618 0)
(13.4499 -2.98015 0)
(13.156 -2.83224 0)
(13.0093 -2.5583 0)
(12.8339 -2.14005 0)
(12.1613 -1.23105 0)
(11.6517 -0.19769 0)
(11.7626 0.539307 0)
(11.4031 1.31141 0)
(11.232 1.6952 0)
(11.296 1.5541 0)
(10.8287 1.29659 0)
(10.5988 0.763625 0)
(10.3666 0.17818 0)
(9.88125 -0.260936 0)
(9.58391 -0.885866 0)
(9.32014 -1.58893 0)
(8.66961 -1.77364 0)
(7.16269 -1.08039 0)
(5.45965 0.0426714 0)
(3.93506 0.952167 0)
(2.60626 1.12497 0)
(1.4328 -0.258993 0)
(0.514134 -2.98695 0)
(-1.25956 -6.06767 0)
(-3.12389 -8.59021 0)
(-4.09081 -9.18542 0)
(-2.25495 -6.60947 0)
(-1.70825 -4.22612 0)
(-0.995828 -2.88215 0)
(-0.757728 -2.5028 0)
(-1.09835 -2.0032 0)
(-0.45758 -0.699009 0)
(-0.314895 0.714019 0)
(0.355821 2.5473 0)
(1.07365 3.86841 0)
(2.01887 4.97179 0)
(3.131 5.73899 0)
(3.5727 5.85437 0)
(5.54693 5.72346 0)
(5.45874 4.51177 0)
(7.17561 4.08527 0)
(6.46425 3.57778 0)
(7.62051 3.30717 0)
(6.62572 2.40792 0)
(8.14728 1.93045 0)
(6.36245 1.05336 0)
(8.49395 1.93432 0)
(8.84835 1.61203 0)
(9.34069 2.60542 0)
(9.259 2.79729 0)
(10.2721 1.23522 0)
(9.82437 0.542423 0)
(9.71084 0.570187 0)
(10.0377 -0.130776 0)
(9.86049 -0.0250953 0)
(9.4848 -0.687438 0)
(10.1958 -1.75731 0)
(9.87347 -2.91734 0)
(9.65776 -3.4604 0)
(9.24469 -3.11064 0)
(8.87334 -2.89431 0)
(7.97156 -2.53817 0)
(7.17145 -1.16985 0)
(5.7249 -1.45341 0)
(4.58826 -1.73986 0)
(5.86458 -3.74471 0)
(3.27512 -6.13836 0)
(4.60764 -5.04781 0)
(4.70474 -2.76725 0)
(3.41723 -3.19011 0)
(4.18043 -1.07243 0)
(4.0993 -0.136319 0)
(4.66355 2.53789 0)
(4.88544 4.02814 0)
(4.37577 7.13258 0)
(6.63758 7.00183 0)
(4.88495 9.8979 0)
(9.5224 5.15331 0)
(7.19804 10.0806 0)
(9.19044 3.17029 0)
(9.36322 7.74868 0)
(13.229 -0.17348 0)
(13.4244 -0.221702 0)
(13.4207 -0.257683 0)
(13.5546 -0.384752 0)
(13.4355 -0.380521 0)
(13.1123 -0.344373 0)
(13.1721 -0.421443 0)
(13.2646 -0.429104 0)
(13.189 -0.467312 0)
(13.2531 -0.517356 0)
(13.5288 -0.596397 0)
(13.4879 -0.792599 0)
(13.5611 -0.948113 0)
(13.674 -1.27296 0)
(13.5381 -1.60589 0)
(13.6657 -1.89964 0)
(13.6712 -2.35729 0)
(13.4419 -2.56383 0)
(13.3609 -2.73067 0)
(13.1559 -2.89123 0)
(12.7861 -2.7319 0)
(12.4802 -2.47544 0)
(12.0917 -1.93552 0)
(11.4686 -1.00779 0)
(11.2832 -0.175233 0)
(11.2749 0.619832 0)
(10.782 1.48738 0)
(10.8026 1.74616 0)
(10.6795 1.64165 0)
(10.1671 1.46138 0)
(10.123 0.909089 0)
(9.88588 0.310105 0)
(9.58283 -0.183014 0)
(9.39071 -0.782952 0)
(9.00073 -1.32268 0)
(8.16652 -1.28444 0)
(6.64932 -0.430745 0)
(5.14024 0.648536 0)
(3.83955 1.46458 0)
(2.81553 1.58014 0)
(1.96594 0.184439 0)
(1.12931 -2.4069 0)
(-0.516755 -5.32182 0)
(-2.79217 -7.94634 0)
(-4.50121 -9.22082 0)
(-3.47035 -7.07939 0)
(-2.12711 -4.43439 0)
(-1.73156 -3.09144 0)
(-1.63202 -2.48496 0)
(-2.16261 -1.96112 0)
(-1.64399 -0.787396 0)
(-1.60308 0.588388 0)
(-0.881822 2.28804 0)
(-0.20848 3.45284 0)
(0.781079 4.63087 0)
(1.97829 5.32756 0)
(2.7066 5.29446 0)
(4.61618 5.26871 0)
(4.41482 4.24301 0)
(6.56832 3.90763 0)
(5.58948 3.46258 0)
(7.09711 3.14905 0)
(6.23623 2.33108 0)
(7.86733 1.88574 0)
(6.42892 1.0142 0)
(7.81989 1.35793 0)
(8.9274 1.39787 0)
(8.86987 2.56581 0)
(9.0558 2.50182 0)
(10.2577 1.12567 0)
(9.69576 0.662304 0)
(9.82932 0.56436 0)
(10.0607 -0.109272 0)
(9.69093 0.014475 0)
(9.67763 -0.689917 0)
(10.3696 -1.90421 0)
(9.9696 -2.74444 0)
(9.63762 -3.26155 0)
(9.08525 -2.94175 0)
(8.74708 -2.63062 0)
(7.84408 -2.17684 0)
(6.78029 -0.735518 0)
(5.50845 -0.9351 0)
(4.85283 -1.67355 0)
(5.25999 -3.36455 0)
(3.09925 -6.12592 0)
(3.79654 -5.14662 0)
(4.29364 -2.67226 0)
(2.48581 -3.1423 0)
(3.41356 -1.0822 0)
(2.95462 -0.448454 0)
(3.56705 2.72649 0)
(3.93874 3.77292 0)
(3.47817 7.19862 0)
(6.02128 6.22299 0)
(4.67256 9.96333 0)
(8.97491 3.8271 0)
(7.99079 10 0)
(9.56872 3.33688 0)
(9.42477 6.66546 0)
(13.2252 -0.186061 0)
(13.2187 -0.214041 0)
(13.1588 -0.191017 0)
(13.3119 -0.265797 0)
(13.2931 -0.348103 0)
(13.2295 -0.373184 0)
(13.4125 -0.463101 0)
(13.4817 -0.495843 0)
(13.4084 -0.539502 0)
(13.3539 -0.545464 0)
(13.4107 -0.588953 0)
(13.3224 -0.803419 0)
(13.2806 -0.9207 0)
(13.3471 -1.21719 0)
(13.397 -1.63488 0)
(13.4965 -1.8943 0)
(13.3415 -2.26631 0)
(13.1302 -2.51147 0)
(12.8751 -2.65038 0)
(12.4009 -2.75388 0)
(11.9824 -2.57743 0)
(11.504 -2.27171 0)
(10.919 -1.67979 0)
(10.4327 -0.836631 0)
(10.3406 -0.119564 0)
(10.1177 0.755209 0)
(9.81955 1.57678 0)
(10.0506 1.76825 0)
(9.76293 1.77519 0)
(9.51706 1.52658 0)
(9.70004 0.955483 0)
(9.44793 0.444897 0)
(9.26579 -0.0914561 0)
(9.05831 -0.675846 0)
(8.49108 -1.02972 0)
(7.4686 -0.756294 0)
(6.05978 0.154663 0)
(4.7833 1.15907 0)
(3.7785 1.85774 0)
(3.1209 1.88662 0)
(2.61945 0.537684 0)
(2.00506 -1.87058 0)
(0.501026 -4.4606 0)
(-2.03546 -7.02985 0)
(-4.42386 -8.71413 0)
(-4.65917 -7.63439 0)
(-2.50735 -4.88765 0)
(-2.44603 -3.23608 0)
(-2.35019 -2.42735 0)
(-2.96485 -1.89295 0)
(-2.69485 -0.904699 0)
(-2.64718 0.381334 0)
(-1.83639 1.98948 0)
(-1.26268 3.11303 0)
(-0.477471 4.23185 0)
(1.06489 4.77815 0)
(1.56273 4.867 0)
(3.65677 4.84438 0)
(4.03907 3.7506 0)
(5.81687 3.70929 0)
(5.14823 3.32072 0)
(6.72766 2.85872 0)
(5.89728 2.25247 0)
(7.32579 1.80428 0)
(6.37074 0.99858 0)
(7.4345 0.850976 0)
(8.56754 1.24481 0)
(8.44062 2.48543 0)
(8.70853 2.11637 0)
(10.1363 1.0321 0)
(9.32546 0.758828 0)
(9.92455 0.43235 0)
(10.0016 -0.0416048 0)
(9.60363 0.033782 0)
(9.74515 -0.812622 0)
(10.5376 -1.98878 0)
(9.71669 -2.64299 0)
(9.71728 -3.05806 0)
(8.73202 -2.73352 0)
(8.61101 -2.39514 0)
(7.44051 -1.70693 0)
(6.31033 -0.324097 0)
(5.26879 -0.472509 0)
(4.90206 -1.50224 0)
(4.51266 -3.00693 0)
(3.05595 -5.86072 0)
(2.20478 -5.24365 0)
(3.45592 -2.58707 0)
(1.19843 -2.77394 0)
(2.45932 -0.876984 0)
(1.97688 -0.697487 0)
(2.45617 2.73977 0)
(3.24636 3.38553 0)
(2.72005 7.20134 0)
(5.44851 5.40987 0)
(4.27926 9.75104 0)
(7.62568 2.59891 0)
(7.97915 9.71386 0)
(9.68928 3.44703 0)
(9.7464 5.73786 0)
(13.0537 -0.112058 0)
(13.0778 -0.167706 0)
(13.1254 -0.168359 0)
(13.3344 -0.240843 0)
(13.4957 -0.438907 0)
(13.4597 -0.458645 0)
(13.5191 -0.464317 0)
(13.4782 -0.498576 0)
(13.2582 -0.491716 0)
(13.1003 -0.458484 0)
(13.1358 -0.55206 0)
(13.0715 -0.782944 0)
(13.0734 -0.912408 0)
(13.2603 -1.21709 0)
(13.246 -1.63758 0)
(13.0823 -1.85544 0)
(12.7631 -2.13305 0)
(12.3705 -2.37756 0)
(11.8598 -2.47431 0)
(11.2138 -2.51309 0)
(10.6569 -2.3493 0)
(9.93367 -1.9863 0)
(9.30582 -1.40099 0)
(9.03326 -0.728186 0)
(8.8751 -0.0359128 0)
(8.60321 0.864245 0)
(8.75703 1.51473 0)
(9.07145 1.74982 0)
(8.78902 1.82654 0)
(8.92309 1.4765 0)
(9.06316 0.991867 0)
(8.81388 0.540682 0)
(8.79418 -0.0341966 0)
(8.47549 -0.50627 0)
(7.69923 -0.626006 0)
(6.60049 -0.219588 0)
(5.43227 0.644129 0)
(4.42363 1.55241 0)
(3.80882 2.10059 0)
(3.42754 2.04569 0)
(3.31698 0.739301 0)
(3.08843 -1.38546 0)
(1.72492 -3.55602 0)
(-0.844633 -5.97914 0)
(-3.81598 -7.94673 0)
(-5.3116 -7.86606 0)
(-3.28762 -5.29896 0)
(-3.13764 -3.35201 0)
(-2.97409 -2.40766 0)
(-3.45679 -1.75739 0)
(-3.51211 -0.903187 0)
(-3.62453 0.277048 0)
(-2.7531 1.73586 0)
(-2.10229 2.81932 0)
(-1.42445 3.73149 0)
(0.199152 4.28959 0)
(0.602855 4.33361 0)
(3.32902 4.10137 0)
(3.11981 3.4767 0)
(5.0777 3.52926 0)
(4.98156 3.03239 0)
(5.96717 2.7363 0)
(5.47959 2.17527 0)
(7.01323 1.63603 0)
(6.1557 0.909593 0)
(7.4557 0.441509 0)
(7.90248 1.10727 0)
(8.04375 2.32507 0)
(8.47061 1.78256 0)
(9.74837 0.922276 0)
(9.05352 0.768632 0)
(9.95356 0.309117 0)
(9.6503 0.00688083 0)
(9.50565 0.0539214 0)
(9.73385 -0.978467 0)
(10.5842 -1.95423 0)
(9.4594 -2.49638 0)
(9.65588 -2.77171 0)
(8.23328 -2.51459 0)
(8.36442 -2.07905 0)
(6.83957 -1.18331 0)
(5.7663 0.127077 0)
(4.71125 -0.204297 0)
(4.46229 -1.2918 0)
(3.81759 -2.84138 0)
(2.33476 -5.26072 0)
(0.491669 -4.87756 0)
(2.23986 -2.72794 0)
(0.633733 -2.78819 0)
(1.78862 -1.06672 0)