/*--------------------------------*- C++ -*----------------------------------*\
| =========                 |                                                 |
| \\      /  F ield         | OpenFOAM: The Open Source CFD Toolbox           |
|  \\    /   O peration     | Version:  2.4.0                                 |
|   \\  /    A nd           | Web:      www.OpenFOAM.org                      |
|    \\/     M anipulation  |                                                 |
\*---------------------------------------------------------------------------*/
FoamFile
{
    version     2.0;
    format      ascii;
    class       volSymmTensorField;
    location    "0.003";
    object      UPrime2Mean;
}
// * * * * * * * * * * * * * * * * * * * * * * * * * * * * * * * * * * * * * //

dimensions      [0 2 -2 0 0 0 0];

internalField   nonuniform List<symmTensor> 
4400
(
(0.0390916 -0.00378156 0 0.00039194 0 0)
(0.115243 -0.00341724 0 0.000145009 0 0)
(0.1912 -0.00397942 0 0.000135848 0 0)
(0.276265 -0.00343253 0 8.88206e-05 0 0)
(0.355458 -0.00261656 0 5.44333e-05 0 0)
(0.417763 -0.0018508 0 3.7631e-05 0 0)
(0.46456 -0.00132646 0 3.07903e-05 0 0)
(0.504359 -0.00116646 0 3.27859e-05 0 0)
(0.537456 -0.000662322 0 6.88643e-05 0 0)
(0.929978 -0.0196494 0 0.00106626 0 0)
(0.0583612 0.00289166 0 0.000968972 0 0)
(0.215898 0.00258577 0 0.000840915 0 0)
(0.272503 -0.00126028 0 0.000430115 0 0)
(0.324963 -0.00172718 0 0.000218805 0 0)
(0.371092 -0.00113995 0 0.000145772 0 0)
(0.406961 -0.000473438 0 0.000126742 0 0)
(0.433623 -4.87658e-05 0 0.000122694 0 0)
(0.455417 4.79707e-05 0 0.000150922 0 0)
(0.468444 -0.00175797 0 0.000567787 0 0)
(0.630127 -0.0207856 0 0.00288732 0 0)
(0.0625587 0.00249267 0 0.000552331 0 0)
(0.216606 0.00262567 0 0.000636656 0 0)
(0.260323 -0.000700837 0 0.000342861 0 0)
(0.295437 -0.00109647 0 0.000198262 0 0)
(0.325331 -0.000551275 0 0.000176485 0 0)
(0.349213 0.00010016 0 0.000182487 0 0)
(0.367842 0.000601168 0 0.000185444 0 0)
(0.383438 0.000962524 0 0.000239927 0 0)
(0.391019 0.000370391 0 0.000984194 0 0)
(0.461556 -0.0138494 0 0.0046274 0 0)
(0.063103 0.0023328 0 0.000434904 0 0)
(0.215348 0.00286052 0 0.000545123 0 0)
(0.252845 -7.13429e-05 0 0.00031738 0 0)
(0.278801 -0.000577533 0 0.000226297 0 0)
(0.299999 -0.000143768 0 0.000223384 0 0)
(0.317342 0.000475215 0 0.000228961 0 0)
(0.331544 0.00103382 0 0.000229955 0 0)
(0.343781 0.00160119 0 0.000311637 0 0)
(0.349011 0.00182788 0 0.00135009 0 0)
(0.380475 -0.00660835 0 0.00558854 0 0)
(0.0630218 0.00201991 0 0.000309644 0 0)
(0.214058 0.00265903 0 0.000417458 0 0)
(0.248767 0.000144192 0 0.000254638 0 0)
(0.270071 -0.000397114 0 0.000191458 0 0)
(0.286676 -2.90238e-05 0 0.000197466 0 0)
(0.30041 0.000580221 0 0.000206469 0 0)
(0.312011 0.001208 0 0.000214453 0 0)
(0.322236 0.0020003 0 0.000321171 0 0)
(0.326601 0.0030423 0 0.00148814 0 0)
(0.344898 -0.000877905 0 0.00594399 0 0)
(0.0628483 0.00166201 0 0.000200767 0 0)
(0.213183 0.00228328 0 0.000288481 0 0)
(0.246884 0.00022291 0 0.000183286 0 0)
(0.265936 -0.000280339 0 0.000141501 0 0)
(0.280156 3.62198e-05 0 0.000150111 0 0)
(0.29194 0.000619178 0 0.000161777 0 0)
(0.302076 0.00129914 0 0.000179122 0 0)
(0.311181 0.00228663 0 0.000305757 0 0)
(0.31527 0.00396844 0 0.00149354 0 0)
(0.329987 0.00317364 0 0.00590089 0 0)
(0.0626974 0.00129624 0 0.00011749 0 0)
(0.212741 0.00184394 0 0.000178899 0 0)
(0.246422 0.000251828 0 0.000117921 0 0)
(0.26453 -0.000175478 0 9.11966e-05 0 0)
(0.277573 8.44365e-05 0 9.83793e-05 0 0)
(0.288349 0.000622433 0 0.000111083 0 0)
(0.297722 0.00133584 0 0.000136024 0 0)
(0.306341 0.00247826 0 0.000273154 0 0)
(0.31062 0.00457665 0 0.00139776 0 0)
(0.324948 0.00585266 0 0.00554932 0 0)
(0.0625734 0.000936961 0 5.93366e-05 0 0)
(0.212558 0.0013899 0 9.57925e-05 0 0)
(0.24668 0.000276722 0 6.60789e-05 0 0)
(0.264538 -5.09887e-05 0 5.01502e-05 0 0)
(0.277041 0.000146486 0 5.45222e-05 0 0)
(0.287315 0.000623828 0 6.65572e-05 0 0)
(0.296413 0.00135542 0 9.56202e-05 0 0)
(0.304905 0.0026119 0 0.000233299 0 0)
(0.309423 0.00495012 0 0.00124358 0 0)
(0.324555 0.00742927 0 0.00498981 0 0)
(0.0624667 0.000581578 0 2.24841e-05 0 0)
(0.212494 0.000927803 0 3.94147e-05 0 0)
(0.247175 0.000307839 0 2.97949e-05 0 0)
(0.26505 9.9362e-05 0 2.20174e-05 0 0)
(0.277344 0.000231807 0 2.4313e-05 0 0)
(0.28745 0.000633229 0 3.44369e-05 0 0)
(0.296504 0.00136561 0 6.35213e-05 0 0)
(0.305095 0.00269449 0 0.000192596 0 0)
(0.310002 0.00512557 0 0.00105866 0 0)
(0.325994 0.00819399 0 0.00431078 0 0)
(0.0623741 0.000226893 0 3.86187e-06 0 0)
(0.21243 0.000459032 0 8.74168e-06 0 0)
(0.247596 0.000349558 0 9.79399e-06 0 0)
(0.265572 0.000273978 0 8.08562e-06 0 0)
(0.277804 0.000339521 0 9.74935e-06 0 0)
(0.287873 0.000654264 0 1.70152e-05 0 0)
(0.296931 0.00137007 0 4.26038e-05 0 0)
(0.30577 0.00273006 0 0.000156007 0 0)
(0.311125 0.00514408 0 0.000868187 0 0)
(0.32801 0.00833258 0 0.00359267 0 0)
(0.0623687 -0.000128608 0 1.96706e-06 0 0)
(0.212423 -1.83018e-05 0 3.6399e-06 0 0)
(0.24766 0.000391373 0 6.68654e-06 0 0)
(0.265684 0.000459604 0 8.73927e-06 0 0)
(0.277983 0.00045905 0 1.10754e-05 0 0)
(0.288107 0.000680113 0 1.50273e-05 0 0)
(0.297307 0.00135597 0 3.43682e-05 0 0)
(0.306436 0.00271079 0 0.000127347 0 0)
(0.312388 0.00502092 0 0.000687445 0 0)
(0.329954 0.00801424 0 0.00289644 0 0)
(0.0624562 -0.000485591 0 1.70297e-05 0 0)
(0.212496 -0.000506127 0 2.49097e-05 0 0)
(0.247316 0.000411723 0 2.0669e-05 0 0)
(0.265284 0.000630838 0 2.38732e-05 0 0)
(0.277772 0.000568652 0 2.81246e-05 0 0)
(0.288133 0.000691441 0 2.84625e-05 0 0)
(0.297522 0.00131269 0 3.96903e-05 0 0)
(0.306924 0.00262457 0 0.000109751 0 0)
(0.313431 0.00475849 0 0.000529744 0 0)
(0.331605 0.00732684 0 0.00227106 0 0)
(0.0625668 -0.000845531 0 5.08734e-05 0 0)
(0.212592 -0.000999067 0 7.36047e-05 0 0)
(0.246855 0.000407002 0 5.14697e-05 0 0)
(0.264799 0.000768916 0 5.29019e-05 0 0)
(0.277597 0.000651654 0 6.02496e-05 0 0)
(0.288319 0.000678393 0 5.68797e-05 0 0)
(0.297977 0.00122856 0 5.8182e-05 0 0)
(0.307649 0.00247231 0 0.00010584 0 0)
(0.314628 0.00436445 0 0.000404783 0 0)
(0.332587 0.00635764 0 0.00174666 0 0)
(0.0626939 -0.00121152 0 0.000106797 0 0)
(0.212802 -0.00149094 0 0.000150791 0 0)
(0.246629 0.000382696 0 9.88212e-05 0 0)
(0.264836 0.000870966 0 9.45357e-05 0 0)
(0.278207 0.000701258 0 0.000105468 0 0)
(0.2895 0.000632572 0 9.80868e-05 0 0)
(0.299547 0.00110751 0 8.84201e-05 0 0)
(0.309589 0.00224845 0 0.000114652 0 0)
(0.316865 0.00383763 0 0.000316417 0 0)
(0.333247 0.00519937 0 0.00133916 0 0)
(0.062847 -0.00158476 0 0.000188641 0 0)
(0.213271 -0.00197192 0 0.000256584 0 0)
(0.24714 0.000354847 0 0.00016095 0 0)
(0.266292 0.000943513 0 0.000145167 0 0)
(0.280864 0.000729655 0 0.000158705 0 0)
(0.293228 0.00057831 0 0.000147474 0 0)
(0.3041 0.000974818 0 0.000126383 0 0)
(0.314656 0.00198894 0 0.000132345 0 0)
(0.322022 0.00323918 0 0.00026237 0 0)
(0.335243 0.00397294 0 0.00104303 0 0)
(0.0630201 -0.00195171 0 0.000296914 0 0)
(0.214169 -0.00239481 0 0.000384005 0 0)
(0.24909 0.000363037 0 0.00023096 0 0)
(0.270557 0.00101775 0 0.000195104 0 0)
(0.287575 0.00076316 0 0.000207392 0 0)
(0.301984 0.00053527 0 0.000193062 0 0)
(0.314354 0.000854856 0 0.000162665 0 0)
(0.325897 0.00170911 0 0.000149073 0 0)
(0.333192 0.00259732 0 0.000228711 0 0)
(0.341585 0.00283733 0 0.000831312 0 0)
(0.0630948 -0.00227544 0 0.000423065 0 0)
(0.215472 -0.00264987 0 0.000514643 0 0)
(0.253283 0.000496432 0 0.000293847 0 0)
(0.279566 0.00113279 0 0.000228931 0 0)
(0.301374 0.000828447 0 0.000234256 0 0)
(0.319648 0.000546037 0 0.000220153 0 0)
(0.334869 0.000775505 0 0.000184359 0 0)
(0.348239 0.00146403 0 0.00015584 0 0)
(0.355757 0.00199529 0 0.000198005 0 0)
(0.357942 0.0019275 0 0.000654638 0 0)
(0.0625069 -0.00244948 0 0.000543337 0 0)
(0.216712 -0.00248024 0 0.000615205 0 0)
(0.260912 0.00101902 0 0.000317649 0 0)
(0.296739 0.00153684 0 0.000193507 0 0)
(0.32778 0.00114143 0 0.000182442 0 0)
(0.353197 0.000796405 0 0.000179602 0 0)
(0.373504 0.00085024 0 0.000151214 0 0)
(0.390495 0.00136796 0 0.000125106 0 0)
(0.399067 0.00153195 0 0.000143172 0 0)
(0.394138 0.00146823 0 0.000471173 0 0)
(0.0595138 -0.00292932 0 0.000966117 0 0)
(0.216361 -0.00250632 0 0.000837135 0 0)
(0.27331 0.0014641 0 0.000421124 0 0)
(0.327108 0.00203267 0 0.00021829 0 0)
(0.375351 0.00158837 0 0.000151465 0 0)
(0.414086 0.00115816 0 0.000130008 0 0)
(0.443945 0.00100743 0 0.000104411 0 0)
(0.468413 0.00132301 0 8.45119e-05 0 0)
(0.480817 0.00117686 0 8.13811e-05 0 0)
(0.469343 0.00101338 0 0.000253985 0 0)
(0.0390385 0.00378105 0 0.000393122 0 0)
(0.115506 0.00344626 0 0.000145082 0 0)
(0.192257 0.00403239 0 0.000131878 0 0)
(0.279276 0.00351619 0 8.41037e-05 0 0)
(0.361403 0.00275751 0 5.01514e-05 0 0)
(0.427568 0.0020807 0 3.28152e-05 0 0)
(0.479516 0.00157915 0 2.23064e-05 0 0)
(0.522934 0.00143016 0 1.58616e-05 0 0)
(0.548927 0.000844111 0 1.49547e-05 0 0)
(0.529356 0.000608279 0 6.12726e-05 0 0)
(0.797234 -0.262338 0 0.248191 0 0)
(0.502593 -0.205473 0 0.361645 0 0)
(0.436513 -0.159343 0 0.386493 0 0)
(0.394662 -0.1413 0 0.404173 0 0)
(0.375054 -0.126288 0 0.408323 0 0)
(0.382331 -0.123524 0 0.405117 0 0)
(0.398414 -0.127244 0 0.401993 0 0)
(0.417899 -0.131969 0 0.398693 0 0)
(0.440764 -0.137975 0 0.395954 0 0)
(0.464822 -0.145194 0 0.394595 0 0)
(0.488652 -0.152864 0 0.394221 0 0)
(0.511743 -0.160593 0 0.394188 0 0)
(0.533605 -0.168081 0 0.393848 0 0)
(0.553792 -0.175055 0 0.392669 0 0)
(0.572065 -0.181366 0 0.390276 0 0)
(0.588332 -0.187011 0 0.386488 0 0)
(0.602569 -0.192054 0 0.381285 0 0)
(0.614809 -0.196589 0 0.374772 0 0)
(0.62514 -0.200731 0 0.367118 0 0)
(0.633663 -0.204588 0 0.358544 0 0)
(0.640481 -0.208251 0 0.349276 0 0)
(0.645693 -0.211773 0 0.339531 0 0)
(0.649378 -0.215187 0 0.329509 0 0)
(0.65156 -0.218509 0 0.319394 0 0)
(0.652329 -0.2217 0 0.309313 0 0)
(0.651851 -0.224767 0 0.29937 0 0)
(0.650019 -0.227673 0 0.289685 0 0)
(0.64692 -0.230364 0 0.280327 0 0)
(0.642663 -0.232794 0 0.271338 0 0)
(0.637309 -0.234904 0 0.262744 0 0)
(0.630938 -0.23664 0 0.254549 0 0)
(0.623639 -0.237948 0 0.246746 0 0)
(0.615512 -0.238789 0 0.239314 0 0)
(0.606663 -0.239128 0 0.232226 0 0)
(0.597204 -0.238947 0 0.225448 0 0)
(0.587241 -0.238233 0 0.218945 0 0)
(0.576887 -0.23699 0 0.212684 0 0)
(0.566244 -0.235226 0 0.206631 0 0)
(0.555418 -0.232965 0 0.200757 0 0)
(0.544502 -0.230232 0 0.195033 0 0)
(0.533583 -0.227063 0 0.189441 0 0)
(0.522742 -0.223494 0 0.183959 0 0)
(0.512056 -0.219569 0 0.178575 0 0)
(0.501589 -0.215327 0 0.173279 0 0)
(0.491396 -0.210812 0 0.168063 0 0)
(0.481524 -0.206065 0 0.162925 0 0)
(0.472011 -0.201126 0 0.157862 0 0)
(0.462882 -0.196032 0 0.152872 0 0)
(0.454151 -0.190816 0 0.147955 0 0)
(0.445824 -0.18551 0 0.143113 0 0)
(0.43791 -0.180143 0 0.138346 0 0)
(0.430401 -0.174738 0 0.133656 0 0)
(0.423292 -0.16932 0 0.129045 0 0)
(0.416565 -0.163905 0 0.124515 0 0)
(0.410209 -0.15851 0 0.120067 0 0)
(0.404199 -0.153146 0 0.115702 0 0)
(0.398518 -0.147828 0 0.111421 0 0)
(0.393145 -0.142561 0 0.107224 0 0)
(0.388063 -0.137355 0 0.103111 0 0)
(0.383252 -0.13221 0 0.0990816 0 0)
(0.378691 -0.127129 0 0.0951336 0 0)
(0.374361 -0.122111 0 0.0912658 0 0)
(0.370245 -0.117153 0 0.0874758 0 0)
(0.366318 -0.11225 0 0.0837612 0 0)
(0.362559 -0.107397 0 0.0801193 0 0)
(0.358943 -0.102587 0 0.0765482 0 0)
(0.355447 -0.0978146 0 0.0730465 0 0)
(0.352041 -0.0930718 0 0.0696137 0 0)
(0.3487 -0.0883516 0 0.0662489 0 0)
(0.345397 -0.0836451 0 0.0629535 0 0)
(0.342107 -0.0789462 0 0.0597292 0 0)
(0.338802 -0.0742484 0 0.0565802 0 0)
(0.335452 -0.069548 0 0.0535122 0 0)
(0.332022 -0.0648414 0 0.0505338 0 0)
(0.328478 -0.0601291 0 0.0476563 0 0)
(0.324777 -0.0554145 0 0.0448947 0 0)
(0.320878 -0.0507063 0 0.0422676 0 0)
(0.316727 -0.0460172 0 0.039799 0 0)
(0.312269 -0.041368 0 0.0375176 0 0)
(0.307435 -0.036786 0 0.0354594 0 0)
(0.302153 -0.0323097 0 0.0336677 0 0)
(0.296333 -0.027987 0 0.0321965 0 0)
(0.289881 -0.0238775 0 0.0311127 0 0)
(0.282689 -0.0200483 0 0.0305022 0 0)
(0.274649 -0.0165763 0 0.0304786 0 0)
(0.265646 -0.0135399 0 0.0311981 0 0)
(0.255597 -0.0110254 0 0.0328726 0 0)
(0.244389 -0.00907377 0 0.0357948 0 0)
(0.231984 -0.00771887 0 0.0403974 0 0)
(0.218397 -0.00694985 0 0.0473472 0 0)
(0.203723 -0.0066808 0 0.0576404 0 0)
(0.188157 -0.00670691 0 0.0727748 0 0)
(0.172006 -0.00664151 0 0.0949587 0 0)
(0.155673 -0.0058193 0 0.127398 0 0)
(0.139592 -0.00310508 0 0.174487 0 0)
(0.123921 0.00281079 0 0.243058 0 0)
(0.109007 0.0153344 0 0.34504 0 0)
(0.0923577 0.0277824 0 0.52543 0 0)
(0.083342 0.0902236 0 0.784485 0 0)
(0.0417694 -0.0676329 0 1.31139 0 0)
(0.549432 -0.0884282 0 0.154171 0 0)
(0.443201 -0.0407649 0 0.257716 0 0)
(0.428255 0.00799968 0 0.31653 0 0)
(0.441949 0.0488503 0 0.358342 0 0)
(0.477339 0.0829972 0 0.37403 0 0)
(0.522349 0.101856 0 0.375868 0 0)
(0.56411 0.109358 0 0.374436 0 0)
(0.600784 0.110208 0 0.371597 0 0)
(0.634192 0.105081 0 0.368802 0 0)
(0.665316 0.0951438 0 0.367082 0 0)
(0.695175 0.0820884 0 0.366169 0 0)
(0.724578 0.0671886 0 0.36546 0 0)
(0.753668 0.0513906 0 0.364444 0 0)
(0.782222 0.0353877 0 0.362736 0 0)
(0.809901 0.019557 0 0.360057 0 0)
(0.836303 0.00403052 0 0.356275 0 0)
(0.861006 -0.011194 0 0.351382 0 0)
(0.883647 -0.0261613 0 0.345456 0 0)
(0.903943 -0.0409289 0 0.338617 0 0)
(0.921693 -0.0555266 0 0.331029 0 0)
(0.936768 -0.0699563 0 0.322865 0 0)
(0.949113 -0.0841764 0 0.314301 0 0)
(0.958715 -0.0981339 0 0.305511 0 0)
(0.965547 -0.111759 0 0.296631 0 0)
(0.96964 -0.124919 0 0.287799 0 0)
(0.971195 -0.137645 0 0.2791 0 0)
(0.970107 -0.149809 0 0.270648 0 0)
(0.966507 -0.161297 0 0.262492 0 0)
(0.960552 -0.172034 0 0.25466 0 0)
(0.952373 -0.181945 0 0.247169 0 0)
(0.942133 -0.190962 0 0.240021 0 0)
(0.930013 -0.199032 0 0.233204 0 0)
(0.916215 -0.206116 0 0.226698 0 0)
(0.900948 -0.212189 0 0.220474 0 0)
(0.884429 -0.217245 0 0.214502 0 0)
(0.866869 -0.221292 0 0.20875 0 0)
(0.848485 -0.224351 0 0.203187 0 0)
(0.829477 -0.226458 0 0.197784 0 0)
(0.81004 -0.227659 0 0.192515 0 0)
(0.790351 -0.228008 0 0.187357 0 0)
(0.770577 -0.227565 0 0.182292 0 0)
(0.750867 -0.226396 0 0.177304 0 0)
(0.731361 -0.224567 0 0.172381 0 0)
(0.712178 -0.222148 0 0.167517 0 0)
(0.693419 -0.219204 0 0.162708 0 0)
(0.67517 -0.215801 0 0.157951 0 0)
(0.6575 -0.212 0 0.153246 0 0)
(0.640458 -0.207858 0 0.148592 0 0)
(0.624077 -0.20343 0 0.143991 0 0)
(0.608375 -0.198762 0 0.139444 0 0)
(0.593369 -0.193901 0 0.134956 0 0)
(0.579057 -0.188886 0 0.130527 0 0)
(0.565434 -0.183754 0 0.126161 0 0)
(0.552479 -0.178535 0 0.121861 0 0)
(0.540177 -0.173256 0 0.117629 0 0)
(0.528503 -0.167942 0 0.113466 0 0)
(0.517432 -0.162613 0 0.109373 0 0)
(0.506938 -0.157286 0 0.105353 0 0)
(0.496994 -0.151971 0 0.101404 0 0)
(0.487572 -0.14668 0 0.0975262 0 0)
(0.478646 -0.141419 0 0.0937189 0 0)
(0.470185 -0.136192 0 0.0899808 0 0)
(0.462163 -0.131 0 0.0863105 0 0)
(0.454547 -0.125844 0 0.0827055 0 0)
(0.447309 -0.12072 0 0.0791639 0 0)
(0.440411 -0.115625 0 0.0756843 0 0)
(0.433823 -0.110558 0 0.0722662 0 0)
(0.427508 -0.105514 0 0.0689089 0 0)
(0.421433 -0.100488 0 0.0656126 0 0)
(0.415562 -0.0954734 0 0.0623786 0 0)
(0.409862 -0.090467 0 0.0592096 0 0)
(0.404301 -0.0854656 0 0.0561097 0 0)
(0.398843 -0.0804675 0 0.0530855 0 0)
(0.393446 -0.0754724 0 0.050146 0 0)
(0.388067 -0.0704832 0 0.0473033 0 0)
(0.382663 -0.0655074 0 0.0445726 0 0)
(0.377182 -0.0605566 0 0.0419735 0 0)
(0.371567 -0.0556481 0 0.0395302 0 0)
(0.365755 -0.0508067 0 0.0372728 0 0)
(0.359669 -0.0460661 0 0.035237 0 0)
(0.353228 -0.0414704 0 0.0334668 0 0)
(0.346327 -0.0370769 0 0.0320157 0 0)
(0.338851 -0.0329554 0 0.0309497 0 0)
(0.330667 -0.0291885 0 0.0303518 0 0)
(0.321631 -0.0258693 0 0.0303314 0 0)
(0.311581 -0.0231012 0 0.0310364 0 0)
(0.300378 -0.0209883 0 0.0326605 0 0)
(0.287831 -0.0195998 0 0.0354731 0 0)
(0.273826 -0.0190003 0 0.0398833 0 0)
(0.258291 -0.019209 0 0.0465175 0 0)
(0.241234 -0.020159 0 0.0563253 0 0)
(0.222785 -0.0216414 0 0.0707399 0 0)
(0.203229 -0.0232048 0 0.0919128 0 0)
(0.183045 -0.0240235 0 0.123007 0 0)
(0.162886 -0.0226012 0 0.168472 0 0)
(0.143544 -0.0171784 0 0.235233 0 0)
(0.125914 -0.00282546 0 0.335824 0 0)
(0.110179 0.013525 0 0.511832 0 0)
(0.108793 0.105093 0 0.77726 0 0)
(0.0739683 -0.00519844 0 1.29203 0 0)
(0.439963 -0.0230409 0 0.0903267 0 0)
(0.396539 0.0100754 0 0.180336 0 0)
(0.410957 0.0602923 0 0.247457 0 0)
(0.452726 0.113579 0 0.292282 0 0)
(0.517729 0.160996 0 0.313578 0 0)
(0.598187 0.196101 0 0.322105 0 0)
(0.683994 0.220986 0 0.326051 0 0)
(0.770701 0.238692 0 0.327889 0 0)
(0.856062 0.250024 0 0.329265 0 0)
(0.937788 0.255662 0 0.331083 0 0)
(1.01413 0.256312 0 0.333103 0 0)
(1.08407 0.252369 0 0.334769 0 0)
(1.14704 0.244132 0 0.335618 0 0)
(1.20294 0.231992 0 0.3353 0 0)
(1.25206 0.216413 0 0.333599 0 0)
(1.2949 0.197917 0 0.330468 0 0)
(1.33198 0.177075 0 0.326001 0 0)
(1.36382 0.15448 0 0.320376 0 0)
(1.39084 0.130678 0 0.313813 0 0)
(1.41333 0.106152 0 0.30655 0 0)
(1.43148 0.0813004 0 0.298815 0 0)
(1.44542 0.0564606 0 0.290807 0 0)
(1.45521 0.0318952 0 0.282698 0 0)
(1.46085 0.00783101 0 0.274608 0 0)
(1.46244 -0.0155211 0 0.266645 0 0)
(1.46009 -0.0381092 0 0.258877 0 0)
(1.4538 -0.0597128 0 0.251378 0 0)
(1.44373 -0.0801716 0 0.244178 0 0)
(1.43015 -0.0993813 0 0.237291 0 0)
(1.41326 -0.117258 0 0.230725 0 0)
(1.39337 -0.133728 0 0.224469 0 0)
(1.37075 -0.148736 0 0.218507 0 0)
(1.34574 -0.162248 0 0.212814 0 0)
(1.31867 -0.174253 0 0.207361 0 0)
(1.28988 -0.18476 0 0.202119 0 0)
(1.25968 -0.193794 0 0.197056 0 0)
(1.2284 -0.201401 0 0.192144 0 0)
(1.19634 -0.207638 0 0.187356 0 0)
(1.16379 -0.212576 0 0.182668 0 0)
(1.131 -0.216294 0 0.17806 0 0)
(1.09823 -0.218879 0 0.173516 0 0)
(1.06568 -0.220418 0 0.169022 0 0)
(1.03355 -0.221005 0 0.16457 0 0)
(1.00201 -0.220732 0 0.160153 0 0)
(0.971213 -0.219688 0 0.155769 0 0)
(0.941267 -0.217958 0 0.151416 0 0)
(0.91227 -0.215625 0 0.147095 0 0)
(0.884289 -0.212763 0 0.142807 0 0)
(0.857372 -0.209442 0 0.138553 0 0)
(0.831541 -0.205728 0 0.134337 0 0)
(0.806819 -0.201682 0 0.130162 0 0)
(0.783199 -0.197357 0 0.12603 0 0)
(0.760673 -0.192802 0 0.121947 0 0)
(0.739217 -0.188061 0 0.117914 0 0)
(0.71881 -0.183173 0 0.113936 0 0)
(0.699411 -0.17817 0 0.110013 0 0)
(0.680987 -0.173082 0 0.106148 0 0)
(0.663495 -0.167931 0 0.102342 0 0)
(0.646898 -0.162739 0 0.0985952 0 0)
(0.631157 -0.157519 0 0.0949077 0 0)
(0.616231 -0.152286 0 0.0912789 0 0)
(0.602077 -0.147049 0 0.0877083 0 0)
(0.588656 -0.141814 0 0.0841947 0 0)
(0.575924 -0.136584 0 0.0807364 0 0)
(0.563836 -0.131362 0 0.0773319 0 0)
(0.552345 -0.126149 0 0.0739801 0 0)
(0.541408 -0.120945 0 0.0706811 0 0)
(0.530978 -0.115751 0 0.0674347 0 0)
(0.52101 -0.110563 0 0.0642413 0 0)
(0.511458 -0.10538 0 0.0611026 0 0)
(0.502279 -0.1002 0 0.0580219 0 0)
(0.493433 -0.0950225 0 0.0550037 0 0)
(0.484874 -0.0898499 0 0.0520549 0 0)
(0.476551 -0.0846846 0 0.049185 0 0)
(0.468414 -0.0795326 0 0.0464064 0 0)
(0.460412 -0.0744043 0 0.0437347 0 0)
(0.452486 -0.0693152 0 0.04119 0 0)
(0.444569 -0.0642859 0 0.0387969 0 0)
(0.436591 -0.0593454 0 0.0365855 0 0)
(0.428467 -0.0545315 0 0.0345919 0 0)
(0.420106 -0.0498935 0 0.0328599 0 0)
(0.41139 -0.0454948 0 0.0314424 0 0)
(0.402187 -0.0414134 0 0.0304039 0 0)
(0.392341 -0.0377413 0 0.0298249 0 0)
(0.381677 -0.0345851 0 0.0298102 0 0)
(0.369993 -0.0320661 0 0.0304969 0 0)
(0.357091 -0.0302955 0 0.0320609 0 0)
(0.34271 -0.0293688 0 0.0347495 0 0)
(0.326656 -0.0293775 0 0.0389418 0 0)
(0.308756 -0.0303698 0 0.0452183 0 0)
(0.288916 -0.0323057 0 0.054464 0 0)
(0.267165 -0.034987 0 0.0680253 0 0)
(0.243719 -0.0379362 0 0.0879448 0 0)
(0.219076 -0.0402259 0 0.117265 0 0)
(0.194026 -0.0401057 0 0.160353 0 0)
(0.169998 -0.0354139 0 0.22394 0 0)
(0.148112 -0.0202935 0 0.320502 0 0)
(0.13199 9.01421e-05 0 0.483778 0 0)
(0.130137 0.097342 0 0.748776 0 0)
(0.11587 0.061358 0 1.19261 0 0)
(0.389043 0.00300956 0 0.0575889 0 0)
(0.37495 0.0295114 0 0.127901 0 0)
(0.402973 0.0738083 0 0.188651 0 0)
(0.455795 0.124952 0 0.231777 0 0)
(0.530816 0.173558 0 0.256894 0 0)
(0.621932 0.213285 0 0.27002 0 0)
(0.720901 0.243964 0 0.277096 0 0)
(0.823775 0.267522 0 0.28119 0 0)
(0.928865 0.285158 0 0.284245 0 0)
(1.03465 0.297903 0 0.28734 0 0)
(1.13986 0.306698 0 0.290593 0 0)
(1.24352 0.312061 0 0.293692 0 0)
(1.34461 0.314129 0 0.296243 0 0)
(1.44203 0.312836 0 0.297876 0 0)
(1.53455 0.308 0 0.298297 0 0)
(1.62094 0.299437 0 0.297355 0 0)
(1.7 0.287056 0 0.29503 0 0)
(1.77072 0.270931 0 0.291405 0 0)
(1.83236 0.251308 0 0.286638 0 0)
(1.88449 0.228598 0 0.28094 0 0)
(1.92703 0.203339 0 0.274538 0 0)
(1.96017 0.176151 0 0.267665 0 0)
(1.98427 0.147671 0 0.260535 0 0)
(1.9998 0.118504 0 0.25332 0 0)
(2.00724 0.0891992 0 0.246166 0 0)
(2.00728 0.0601464 0 0.239178 0 0)
(2.00041 0.0317974 0 0.232439 0 0)
(1.98724 0.00449757 0 0.22599 0 0)
(1.96835 -0.0215022 0 0.219847 0 0)
(1.94432 -0.0460013 0 0.214016 0 0)
(1.91569 -0.06885 0 0.208485 0 0)
(1.883 -0.0899459 0 0.20323 0 0)
(1.84681 -0.109227 0 0.198223 0 0)
(1.80764 -0.126666 0 0.193434 0 0)
(1.76598 -0.142264 0 0.18883 0 0)
(1.72233 -0.156047 0 0.184381 0 0)
(1.67716 -0.168068 0 0.180059 0 0)
(1.63089 -0.178392 0 0.175836 0 0)
(1.58394 -0.187103 0 0.17169 0 0)
(1.53666 -0.194292 0 0.167602 0 0)
(1.48941 -0.200061 0 0.163558 0 0)
(1.44248 -0.204517 0 0.159545 0 0)
(1.39614 -0.207766 0 0.155554 0 0)
(1.35062 -0.209916 0 0.151582 0 0)
(1.30613 -0.211071 0 0.147625 0 0)
(1.26281 -0.211332 0 0.143683 0 0)
(1.22081 -0.210794 0 0.139756 0 0)
(1.18022 -0.209547 0 0.135845 0 0)
(1.14111 -0.207675 0 0.131954 0 0)
(1.1035 -0.205255 0 0.128084 0 0)
(1.06744 -0.20236 0 0.124241 0 0)
(1.03292 -0.199059 0 0.120428 0 0)
(0.999942 -0.195411 0 0.116649 0 0)
(0.968471 -0.19147 0 0.112907 0 0)
(0.938476 -0.187283 0 0.109207 0 0)
(0.90991 -0.182892 0 0.10555 0 0)
(0.882725 -0.178334 0 0.101938 0 0)
(0.856871 -0.173639 0 0.0983726 0 0)
(0.832296 -0.168834 0 0.0948546 0 0)
(0.808949 -0.163942 0 0.0913841 0 0)
(0.786775 -0.15898 0 0.0879611 0 0)
(0.765717 -0.153965 0 0.0845853 0 0)
(0.745724 -0.148908 0 0.0812562 0 0)
(0.726735 -0.143817 0 0.0779725 0 0)
(0.708696 -0.138699 0 0.0747331 0 0)
(0.691542 -0.13356 0 0.0715373 0 0)
(0.675219 -0.128405 0 0.0683856 0 0)
(0.659668 -0.123237 0 0.0652782 0 0)
(0.644832 -0.118057 0 0.0622157 0 0)
(0.630653 -0.112866 0 0.0592004 0 0)
(0.617076 -0.107667 0 0.0562358 0 0)
(0.60405 -0.102463 0 0.0533267 0 0)
(0.591521 -0.0972583 0 0.0504803 0 0)
(0.579426 -0.0920595 0 0.0477064 0 0)
(0.567706 -0.0868756 0 0.0450176 0 0)
(0.556298 -0.0817202 0 0.0424296 0 0)
(0.545136 -0.0766121 0 0.0399626 0 0)
(0.534143 -0.0715755 0 0.0376412 0 0)
(0.523238 -0.0666428 0 0.0354953 0 0)
(0.512329 -0.0618554 0 0.033561 0 0)
(0.501313 -0.0572663 0 0.0318812 0 0)
(0.49006 -0.0529431 0 0.0305079 0 0)
(0.478424 -0.0489694 0 0.0295039 0 0)
(0.46623 -0.0454434 0 0.0289464 0 0)
(0.453278 -0.0424803 0 0.0289357 0 0)
(0.439337 -0.0402098 0 0.0295962 0 0)
(0.424149 -0.0387455 0 0.0310867 0 0)
(0.407403 -0.0382002 0 0.0336342 0 0)
(0.388833 -0.038685 0 0.0375847 0 0)
(0.368173 -0.0402707 0 0.0434682 0 0)
(0.345221 -0.0429408 0 0.0520955 0 0)
(0.319892 -0.0465149 0 0.0647084 0 0)
(0.292297 -0.0505137 0 0.0832056 0 0)
(0.262896 -0.0539632 0 0.110443 0 0)
(0.23253 -0.0549761 0 0.150589 0 0)
(0.203159 -0.051068 0 0.209954 0 0)
(0.176065 -0.0360929 0 0.300446 0 0)
(0.158037 -0.0119336 0 0.447988 0 0)
(0.154148 0.0803186 0 0.702561 0 0)
(0.160649 0.115756 0 1.08164 0 0)
(0.365881 0.0144146 0 0.0399148 0 0)
(0.364962 0.0363773 0 0.0922374 0 0)
(0.396042 0.0721593 0 0.142837 0 0)
(0.449136 0.115934 0 0.181338 0 0)
(0.523687 0.159937 0 0.20606 0 0)
(0.614993 0.198155 0 0.220268 0 0)
(0.71622 0.229253 0 0.228426 0 0)
(0.823547 0.25413 0 0.233491 0 0)
(0.93498 0.273615 0 0.237299 0 0)
(1.04885 0.288537 0 0.240908 0 0)
(1.16386 0.299768 0 0.244588 0 0)
(1.27911 0.307922 0 0.248173 0 0)
(1.39384 0.313292 0 0.251372 0 0)
(1.50724 0.315968 0 0.253894 0 0)
(1.6184 0.315891 0 0.255502 0 0)
(1.7263 0.312922 0 0.256056 0 0)
(1.82974 0.30691 0 0.25551 0 0)
(1.92746 0.297749 0 0.253899 0 0)
(2.01816 0.2854 0 0.251308 0 0)
(2.10064 0.26992 0 0.247862 0 0)
(2.17384 0.251464 0 0.243706 0 0)
(2.23699 0.230303 0 0.238993 0 0)
(2.28957 0.206798 0 0.233878 0 0)
(2.33135 0.181381 0 0.228495 0 0)
(2.36241 0.154542 0 0.222972 0 0)
(2.38305 0.126749 0 0.21742 0 0)
(2.39376 0.0985533 0 0.211937 0 0)
(2.39514 0.0704611 0 0.206589 0 0)
(2.38787 0.0428997 0 0.201424 0 0)
(2.37262 0.0162338 0 0.196472 0 0)
(2.35012 -0.00923437 0 0.191744 0 0)
(2.32109 -0.0332722 0 0.187235 0 0)
(2.28628 -0.0557096 0 0.182928 0 0)
(2.24642 -0.0764316 0 0.178801 0 0)
(2.20223 -0.0953709 0 0.174825 0 0)
(2.15441 -0.1125 0 0.170975 0 0)
(2.10364 -0.127826 0 0.167224 0 0)
(2.05053 -0.141384 0 0.163547 0 0)
(1.9957 -0.153229 0 0.159926 0 0)
(1.93968 -0.163437 0 0.156343 0 0)
(1.88296 -0.172095 0 0.152785 0 0)
(1.82599 -0.179297 0 0.149241 0 0)
(1.76918 -0.185146 0 0.145704 0 0)
(1.71288 -0.189744 0 0.14217 0 0)
(1.6574 -0.193196 0 0.138637 0 0)
(1.60298 -0.195602 0 0.135103 0 0)
(1.54985 -0.197062 0 0.131569 0 0)
(1.49817 -0.197668 0 0.128038 0 0)
(1.44806 -0.197507 0 0.124511 0 0)
(1.39963 -0.196666 0 0.120994 0 0)
(1.35294 -0.195226 0 0.11749 0 0)
(1.30804 -0.193258 0 0.114003 0 0)
(1.26494 -0.19083 0 0.110538 0 0)
(1.22363 -0.188002 0 0.107099 0 0)
(1.18409 -0.184827 0 0.103688 0 0)
(1.14629 -0.181352 0 0.100309 0 0)
(1.11018 -0.177622 0 0.0969628 0 0)
(1.07572 -0.173672 0 0.0936517 0 0)
(1.04285 -0.169537 0 0.0903771 0 0)
(1.01153 -0.165243 0 0.0871392 0 0)
(0.981687 -0.160815 0 0.0839384 0 0)
(0.953265 -0.156273 0 0.0807747 0 0)
(0.926205 -0.151636 0 0.077648 0 0)
(0.900439 -0.146916 0 0.0745575 0 0)
(0.875905 -0.142126 0 0.0715022 0 0)
(0.852528 -0.137274 0 0.0684822 0 0)
(0.830245 -0.132372 0 0.065498 0 0)
(0.808989 -0.127426 0 0.0625502 0 0)
(0.788694 -0.122441 0 0.0596397 0 0)
(0.769289 -0.117424 0 0.0567692 0 0)
(0.750712 -0.112379 0 0.0539422 0 0)
(0.732903 -0.107313 0 0.0511639 0 0)
(0.715798 -0.102236 0 0.0484415 0 0)
(0.699325 -0.097156 0 0.0457851 0 0)
(0.683412 -0.0920863 0 0.043207 0 0)
(0.66799 -0.0870433 0 0.0407231 0 0)
(0.652982 -0.0820495 0 0.0383531 0 0)
(0.638298 -0.077132 0 0.0361214 0 0)
(0.62385 -0.0723265 0 0.0340573 0 0)
(0.609533 -0.0676774 0 0.0321961 0 0)
(0.595235 -0.0632405 0 0.0305798 0 0)
(0.580811 -0.0590866 0 0.0292586 0 0)
(0.566103 -0.0553027 0 0.0282929 0 0)
(0.55092 -0.0519909 0 0.0277566 0 0)
(0.535044 -0.0492723 0 0.0277434 0 0)
(0.518212 -0.0472726 0 0.0283653 0 0)
(0.500122 -0.0461101 0 0.0297651 0 0)
(0.480428 -0.0459069 0 0.0321501 0 0)
(0.458809 -0.0467864 0 0.0358313 0 0)
(0.434921 -0.048836 0 0.0412841 0 0)
(0.40847 -0.0520594 0 0.049237 0 0)
(0.379264 -0.0562962 0 0.0608113 0 0)
(0.347302 -0.0610829 0 0.0777312 0 0)
(0.312975 -0.0654444 0 0.102609 0 0)
(0.277107 -0.067465 0 0.139303 0 0)
(0.242008 -0.0644408 0 0.193553 0 0)
(0.209175 -0.0504001 0 0.276287 0 0)
(0.187369 -0.0237251 0 0.40734 0 0)
(0.180967 0.0601133 0 0.639822 0 0)
(0.202624 0.146636 0 0.961112 0 0)
(0.357263 0.01945 0 0.0292132 0 0)
(0.361758 0.0380832 0 0.0675482 0 0)
(0.391602 0.0667402 0 0.108111 0 0)
(0.440732 0.103066 0 0.141092 0 0)
(0.509861 0.141116 0 0.163857 0 0)
(0.595432 0.175631 0 0.178025 0 0)
(0.691909 0.204841 0 0.186692 0 0)
(0.79582 0.228913 0 0.19228 0 0)
(0.905069 0.248259 0 0.196431 0 0)
(1.01792 0.263443 0 0.200147 0 0)
(1.13296 0.275161 0 0.203791 0 0)
(1.24926 0.283967 0 0.207308 0 0)
(1.36601 0.290181 0 0.210506 0 0)
(1.48252 0.293949 0 0.213164 0 0)
(1.59801 0.295297 0 0.215096 0 0)
(1.71169 0.294173 0 0.216181 0 0)
(1.82264 0.29051 0 0.216384 0 0)
(1.9299 0.284262 0 0.215729 0 0)
(2.03243 0.27543 0 0.214292 0 0)
(2.12919 0.264063 0 0.212178 0 0)
(2.21912 0.250268 0 0.209509 0 0)
(2.30126 0.234209 0 0.206406 0 0)
(2.37467 0.216089 0 0.202986 0 0)
(2.43852 0.196141 0 0.199346 0 0)
(2.49203 0.17462 0 0.19557 0 0)
(2.53487 0.151801 0 0.191727 0 0)
(2.56688 0.128044 0 0.187876 0 0)
(2.58816 0.103714 0 0.184056 0 0)
(2.59911 0.0791694 0 0.180295 0 0)
(2.60031 0.0547623 0 0.176614 0 0)
(2.59251 0.0308314 0 0.173027 0 0)
(2.57656 0.00767851 0 0.169542 0 0)
(2.55331 -0.0144413 0 0.166157 0 0)
(2.52359 -0.0353255 0 0.162865 0 0)
(2.4882 -0.0548249 0 0.159657 0 0)
(2.44787 -0.0728413 0 0.156516 0 0)
(2.4033 -0.0893206 0 0.153428 0 0)
(2.35513 -0.104244 0 0.150375 0 0)
(2.30397 -0.117623 0 0.147341 0 0)
(2.25038 -0.129492 0 0.144315 0 0)
(2.1949 -0.139905 0 0.141286 0 0)
(2.13802 -0.148927 0 0.138246 0 0)
(2.08021 -0.15663 0 0.135189 0 0)
(2.0219 -0.163097 0 0.132114 0 0)
(1.96347 -0.16841 0 0.12902 0 0)
(1.90527 -0.172653 0 0.125907 0 0)
(1.84762 -0.17591 0 0.122776 0 0)
(1.79078 -0.178263 0 0.119632 0 0)
(1.735 -0.179792 0 0.116478 0 0)
(1.68046 -0.180574 0 0.113318 0 0)
(1.62733 -0.180684 0 0.110158 0 0)
(1.57572 -0.180189 0 0.107003 0 0)
(1.52572 -0.179153 0 0.103856 0 0)
(1.47739 -0.177634 0 0.100723 0 0)
(1.43076 -0.175685 0 0.0976057 0 0)
(1.38584 -0.173355 0 0.0945085 0 0)
(1.34264 -0.170689 0 0.0914333 0 0)
(1.30114 -0.167726 0 0.0883825 0 0)
(1.26132 -0.164502 0 0.0853577 0 0)
(1.22315 -0.161048 0 0.0823597 0 0)
(1.18659 -0.157393 0 0.0793891 0 0)
(1.15159 -0.153561 0 0.0764463 0 0)
(1.11811 -0.149573 0 0.0735316 0 0)
(1.08608 -0.145449 0 0.0706447 0 0)
(1.05545 -0.141205 0 0.067785 0 0)
(1.02615 -0.136853 0 0.064953 0 0)
(0.99811 -0.13241 0 0.0621493 0 0)
(0.971277 -0.127885 0 0.0593749 0 0)
(0.945579 -0.123289 0 0.0566309 0 0)
(0.920945 -0.11863 0 0.0539203 0 0)
(0.897308 -0.113919 0 0.0512466 0 0)
(0.874605 -0.109166 0 0.0486152 0 0)
(0.85277 -0.104383 0 0.0460334 0 0)
(0.831723 -0.0995828 0 0.0435111 0 0)
(0.811389 -0.0947818 0 0.0410603 0 0)
(0.791689 -0.0899995 0 0.0386967 0 0)
(0.77254 -0.0852612 0 0.0364394 0 0)
(0.753844 -0.0805973 0 0.0343121 0 0)
(0.735503 -0.0760456 0 0.0323432 0 0)
(0.717402 -0.0716534 0 0.0305666 0 0)
(0.699416 -0.0674784 0 0.0290226 0 0)
(0.681393 -0.0635932 0 0.0277595 0 0)
(0.663158 -0.0600869 0 0.0268344 0 0)
(0.644507 -0.0570644 0 0.0263175 0 0)
(0.625217 -0.0546471 0 0.0262924 0 0)
(0.604961 -0.052948 0 0.026861 0 0)