/*--------------------------------*- C++ -*----------------------------------*\
| =========                 |                                                 |
| \\      /  F ield         | OpenFOAM: The Open Source CFD Toolbox           |
|  \\    /   O peration     | Version:  2.4.0                                 |
|   \\  /    A nd           | Web:      www.OpenFOAM.org                      |
|    \\/     M anipulation  |                                                 |
\*---------------------------------------------------------------------------*/
FoamFile
{
    version     2.0;
    format      ascii;
    class       volScalarField;
    location    "0.06";
    object      pMean;
}
// * * * * * * * * * * * * * * * * * * * * * * * * * * * * * * * * * * * * * //

dimensions      [0 2 -2 0 0 0 0];

internalField   nonuniform List<scalar> 
4400
(
175.045
152.004
142.786
137.977
133.762
129.507
125.177
120.798
116.067
109.564
173.156
152.065
142.821
137.988
133.764
129.508
125.178
120.803
116.093
110.467
171.968
152.362
142.951
138.026
133.784
129.515
125.182
120.803
116.22
110.925
171.24
152.719
143.121
138.084
133.824
129.544
125.194
120.839
116.348
111.464
170.649
153.044
143.29
138.143
133.882
129.582
125.226
120.863
116.518
111.937
170.14
153.312
143.437
138.19
133.935
129.637
125.263
120.918
116.695
112.404
169.722
153.525
143.559
138.219
133.98
129.682
125.305
120.975
116.837
112.914
169.402
153.685
143.654
138.235
134.011
129.72
125.346
121.035
116.966
113.354
169.186
153.795
143.718
138.244
134.031
129.749
125.374
121.098
117.101
113.773
169.078
153.851
143.751
138.248
134.043
129.764
125.408
121.155
117.242
114.121
169.075
153.855
143.75
138.25
134.045
129.773
125.428
121.213
117.382
114.414
169.181
153.804
143.718
138.249
134.039
129.77
125.449
121.273
117.511
114.652
169.392
153.7
143.654
138.244
134.023
129.758
125.462
121.326
117.636
114.843
169.709
153.544
143.558
138.232
133.996
129.737
125.47
121.379
117.754
114.986
170.125
153.335
143.435
138.207
133.957
129.706
125.472
121.425
117.863
115.086
170.633
153.069
143.286
138.166
133.907
129.67
125.47
121.466
117.954
115.16
171.224
152.745
143.116
138.109
133.854
129.64
125.471
121.501
118.021
115.214
171.953
152.388
142.947
138.054
133.817
129.623
125.475
121.529
118.062
115.254
173.141
152.091
142.817
138.017
133.799
129.62
125.48
121.544
118.078
115.29
175.03
152.03
142.782
138.006
133.797
129.621
125.482
121.55
118.081
115.397
105.078
104.915
103.682
102.206
101.611
101.725
101.913
101.937
101.879
101.902
101.675
100.986
100.285
100.088
100.587
101.646
103.207
105.312
107.76
110.255
112.615
114.696
116.355
117.539
118.258
118.566
118.542
118.242
117.757
117.205
116.722
116.439
116.465
116.888
117.673
118.726
120.003
121.387
122.722
123.92
124.978
125.81
126.396
126.704
126.836
126.78
126.667
126.45
126.251
125.976
125.746
125.433
125.189
124.849
124.602
124.243
124.005
123.631
123.414
123.024
122.829
122.418
122.248
121.813
121.673
121.213
121.108
120.615
120.549
120.017
120
119.429
119.467
118.847
118.943
118.275
118.431
117.717
117.927
117.167
117.413
116.629
116.876
116.091
116.302
115.516
115.654
114.847
114.867
113.976
113.849
112.749
112.469
110.906
110.496
107.775
107.276
100.821
99.5504
69.9642
106.111
105.38
104.537
103.427
102.815
102.874
103.115
103.252
103.255
103.238
102.989
102.343
101.667
101.442
101.88
102.882
104.334
106.254
108.492
110.771
112.904
114.753
116.193
117.169
117.695
117.836
117.676
117.265
116.686
116.064
115.538
115.252
115.327
115.845
116.759
117.958
119.393
120.931
122.399
123.71
124.868
125.786
126.44
126.792
126.951
126.9
126.785
126.553
126.334
126.04
125.79
125.464
125.202
124.853
124.589
124.223
123.973
123.594
123.369
122.976
122.774
122.359
122.181
121.741
121.593
121.125
121.013
120.508
120.438
119.885
119.872
119.268
119.323
118.65
118.781
118.033
118.257
117.426
117.746
116.824
117.24
116.233
116.735
115.637
116.163
115.013
115.499
114.297
114.659
113.358
113.519
111.966
111.896
109.718
109.603
105.77
105.69
96.631
95.1963
62.5195
107.46
106.355
105.366
104.49
103.957
103.979
104.227
104.394
104.403
104.348
104.13
103.625
103.052
102.854
103.272
104.243
105.604
107.337
109.34
111.377
113.256
114.85
116.05
116.817
117.164
117.158
116.877
116.362
115.699
115.009
114.442
114.155
114.282
114.894
115.931
117.272
118.854
120.533
122.121
123.533
124.78
125.772
126.487
126.876
127.059
127.013
126.893
126.649
126.41
126.099
125.829
125.49
125.208
124.849
124.568
124.196
123.933
123.554
123.315
122.925
122.707
122.296
122.099
121.663
121.495
121.031
120.899
120.394
120.304
119.748
119.715
119.101
119.139
118.444
118.568
117.777
118.013
117.107
117.471
116.424
116.942
115.742
116.423
115.044
115.87
114.324
115.23
113.53
114.383
112.53
113.164
111.029
111.308
108.395
108.545
103.6
104.048
93.1031
90.1431
60.8186
108.633
107.503
106.402
105.575
105.12
105.109
105.338
105.515
105.531
105.472
105.3
104.932
104.498
104.354
104.762
105.696
106.965
108.509
110.256
112.025
113.635
114.965
115.923
116.489
116.675
116.542
116.155
115.55
114.813
114.06
113.459
113.184
113.371
114.076
115.223
116.69
118.402
120.205
121.897
123.397
124.718
125.772
126.538
126.957
127.16
127.117
126.992
126.737
126.479
126.152
125.86
125.509
125.206
124.841
124.54
124.169
123.888
123.514
123.256
122.874
122.63
122.228
122.004
121.578
121.382
120.929
120.765
120.269
120.146
119.6
119.532
118.927
118.923
118.232
118.313
117.519
117.714
116.784
117.118
116.014
116.534
115.218
115.957
114.369
115.362
113.472
114.735
112.492
113.967
111.327
112.771
109.724
110.756
106.969
107.251
101.457
101.704
89.9663
84.3358
61.3923
109.494
108.531
107.56
106.699
106.249
106.195
106.4
106.608
106.678
106.657
106.54
106.292
106.005
105.928
106.316
107.193
108.359
109.706
111.187
112.675
114.015
115.085
115.81
116.196
116.239
115.996
115.522
114.842
114.043
113.242
112.625
112.377
112.63
113.422
114.668
116.241
118.056
119.958
121.734
123.306
124.687
125.79
126.596
127.037
127.253
127.213
127.08
126.816
126.539
126.198
125.885
125.523
125.2
124.831
124.512
124.144
123.844
123.477
123.195
122.821
122.55
122.158
121.903
121.492
121.261
120.824
120.617
120.142
119.97
119.449
119.326
118.743
118.676
118.01
118.021
117.254
117.368
116.462
116.706
115.62
116.043
114.722
115.364
113.729
114.652
112.618
113.869
111.304
112.949
109.75
111.796
107.807
109.788
104.9
106.345
99.5854
99.1475
87.485
77.4588
61.2302
110.246
109.43
108.573
107.728
107.276
107.235
107.451
107.714
107.853
107.883
107.82
107.674
107.527
107.53
107.891
108.68
109.722
110.874
112.097
113.31
114.382
115.2
115.719
115.948
115.862
115.525
114.985
114.247
113.403
112.574
111.967
111.763
112.084
112.954
114.283
115.942
117.832
119.802
121.637
123.265
124.688
125.826
126.66
127.116
127.339
127.3
127.157
126.886
126.59
126.238
125.904
125.533
125.193
124.823
124.49
124.127
123.809
123.448
123.143
122.777
122.477
122.098
121.81
121.415
121.144
120.726
120.471
120.019
119.793
119.3
119.111
118.56
118.413
117.785
117.707
116.982
116.989
116.131
116.252
115.223
115.498
114.245
114.71
113.154
113.872
111.906
112.924
110.37
111.799
108.421
110.287
105.716
107.998
102.01
104.318
96.3154
95.4178
84.8811
72.4815
61.4274
111.038
110.222
109.372
108.599
108.217
108.252
108.514
108.81
109.003
109.087
109.085
109.024
108.992
109.074
109.406
110.092
111
111.977
112.965
113.913
114.726
115.311
115.657
115.75
115.544
115.132
114.543
113.771
112.906
112.077
111.501
111.354
111.746
112.684
114.079
115.8
117.737
119.744
121.611
123.276
124.725
125.883
126.731
127.194
127.418
127.381
127.224
126.949
126.633
126.272
125.922
125.544
125.19
124.826
124.478
124.127
123.786
123.437
123.103
122.75
122.419
122.056
121.732
121.356
121.043
120.645
120.342
119.916
119.632
119.17
118.909
118.393
118.158
117.578
117.393
116.723
116.6
115.807
115.777
114.827
114.925
113.763
114.023
112.583
113.06
111.257
111.973
109.661
110.662
107.551
108.798
104.355
105.895
99.5641
100.825
91.9476
90.1336
80.3837
69.731
61.8877
111.965
111.104
110.099
109.381
109.09
109.192
109.487
109.813
110.053
110.198
110.268
110.284
110.343
110.494
110.807
111.391
112.17
112.986
113.764
114.465
115.039
115.428
115.636
115.6
115.279
114.816
114.203
113.419
112.563
111.769
111.242
111.154
111.607
112.601
114.045
115.808
117.768
119.783
121.657
123.339
124.798
125.96
126.81
127.272
127.49
127.455
127.28
127.006
126.672
126.306
125.938
125.561
125.194
124.842
124.476
124.143
123.778
123.445
123.079
122.744
122.38
122.04
121.679
121.326
120.969
120.597
120.242
119.85
119.502
119.078
118.736
118.265
117.936
117.407
117.109
116.498
116.235
115.513
115.316
114.452
114.347
113.284
113.315
111.988
112.204
110.517
110.944
108.764
109.387
106.447
107.11
103.041
103.447
97.6344
96.9896
88.9084
85.3229
77.2355
68.6443
61.6771
112.687
111.827
110.732
110.041
109.83
109.998
110.346
110.714
111.004
111.208
111.344
111.433
111.564
111.774
112.083
112.578
113.225
113.887
114.474
114.963
115.33
115.56
115.65
115.485
115.064
114.58
113.967
113.197
112.381
111.657
111.204
111.18
111.676
112.7
114.169
115.948
117.908
119.911
121.774
123.456
124.906
126.058
126.897
127.35
127.554
127.524
127.327
127.061
126.705
126.342
125.956
125.585
125.204
124.868
124.485
124.174
123.784
123.473
123.075
122.763
122.367
122.054
121.66
121.334
120.933
120.592
120.187
119.831
119.424
119.04
118.622
118.198
117.776
117.306
116.889
116.346
115.932
115.295
114.912
114.142
113.812
112.859
112.622
111.415
111.316
109.742
109.825
107.73
107.942
105.09
105.198
101.351
100.71
95.6923
93.1638
87.2658
82.3544
76.6377
68.4412
61.5249
113.258
112.435
111.328
110.671
110.52
110.745
111.136
111.536
111.864
112.111
112.304
112.461
112.655
112.918
113.235
113.656
114.169
114.672
115.086
115.396
115.594
115.698
115.682
115.394
114.901
114.429
113.84
113.116
112.371
111.74
111.376
111.42
111.953
112.983
114.445
116.211
118.149
120.119
121.956
123.619
125.046
126.174
126.989
127.43
127.61
127.59
127.366
127.114
126.735
126.38
125.977
125.618
125.221
124.906
124.506
124.218
123.805
123.521
123.09
122.809
122.379
122.101
121.67
121.383
120.938
120.636
120.182
119.871
119.408
119.071
118.586
118.214
117.711
117.299
116.779
116.301
115.755
115.194
114.639
113.955
113.394
112.552
112.018
110.942
110.467
109.038
108.663
106.733
106.372
103.765
103.119
99.7392
98.0791
94.1033
90.6783
86.6517
81.3521
77.8454
68.8052
62.2602
113.715
112.955
111.886
111.264
111.153
111.412
111.833
112.262
112.628
112.919
113.165
113.392
113.647
113.952
114.276
114.634
115.023
115.373
115.632
115.779
115.827
115.835
115.726
115.334
114.798
114.37
113.833
113.189
112.548
112.033
111.772
111.881
112.437
113.452
114.876
116.598
118.487
120.403
122.199
123.826
125.212
126.302
127.084
127.51
127.655
127.65
127.395
127.166
126.761
126.423
126.001
125.663
125.248
124.955
124.537
124.271
123.838
123.581
123.124
122.875
122.412
122.175
121.708
121.468
120.978
120.729
120.223
119.971
119.449
119.178
118.621
118.324
117.739
117.406
116.788
116.392
115.729
115.254
114.552
113.958
113.197
112.457
111.65
110.691
109.839
108.563
107.674
105.984
104.954
102.738
101.311
98.5508
96.218
93.2465
89.6004
87.1491
81.6122
79.5525
69.7978
63.6725
114.055
113.367
112.386
111.834
111.77
112.055
112.491
112.937
113.331
113.664
113.962
114.25
114.558
114.891
115.21
115.506
115.784
116.004
116.117
116.113
116.038
115.973
115.791
115.316
114.762
114.401
113.934
113.387
112.884
112.515
112.371
112.546
113.113
114.097
115.459
117.108
118.921
120.763
122.497
124.07
125.402
126.442
127.179
127.588
127.692
127.707
127.419
127.215
126.788
126.472
126.033
125.718
125.285
125.013
124.578
124.331
123.882
123.652
123.174
122.956
122.466
122.266
121.768
121.576
121.049
120.858
120.302
120.118
119.536
119.349
118.719
118.519
117.844
117.623
116.896
116.63
115.832
115.498
114.635
114.192
113.233
112.637
111.585
110.767
109.593
108.487
107.158
105.719
104.125
102.317
100.307
98.1938
95.4549
93.5492
89.6797
88.5767
82.5593
81.0267
71.2156
64.8918
114.308
113.712
112.865
112.409
112.39
112.678
113.103
113.544
113.951
114.317
114.662
115.006
115.358
115.7
115.994
116.225
116.392
116.482
116.474
116.354
116.191
116.094
115.887
115.364
114.821
114.533
114.158
113.73
113.376
113.159
113.132
113.367
113.935
114.875
116.161
117.718
119.433
121.181
122.837
124.339
125.604
126.586
127.269
127.66
127.722
127.756
127.439
127.257
126.816
126.526
126.07
125.784
125.331
125.077
124.626
124.396
123.932
123.728
123.235
123.047
122.534
122.369
121.844
121.699
121.14
121.009
120.409
120.295
119.657
119.559
118.861
118.772
118.006
117.921
117.077
116.98
116.033
115.902
114.845
114.643
113.444
113.117
111.765
111.248
109.704
108.936
107.15
106.11
103.983
102.727
100.148
98.8958
95.6691
94.9506
90.5639
90.4042
83.8309
82.0645
72.5884
65.6975
114.449
113.953
113.291
112.959
112.992
113.276
113.673
114.092
114.498
114.886
115.267
115.65
116.02
116.35
116.608
116.775
116.856
116.85
116.738
116.52
116.303
116.206
116.012
115.486
114.975
114.744
114.477
114.191
113.994
113.931
114.014
114.298
114.855
115.736
116.931
118.381
119.986
121.628
123.194
124.614
125.806
126.725
127.354
127.722
127.75
127.792
127.459
127.292
126.846
126.583
126.114
125.853
125.383
125.144
124.678
124.463
123.985
123.804
123.3
123.142
122.611
122.478
121.929
121.827
121.244
121.168
120.533
120.482
119.798
119.782
119.03
119.044
118.203
118.249
117.304
117.378
116.298
116.387
115.145
115.23
113.784
113.828
112.13
112.085
110.085
109.897
107.532
107.198
104.391
104.022
100.695
100.568
96.5854
96.9192
91.8644
92.0134
85.0238
82.6297
73.6552
66.2978
114.508
114.133
113.691
113.493
113.56
113.812
114.168
114.559
114.955
115.35
115.743
116.132
116.492
116.799
117.026
117.153
117.179
117.104
116.921
116.645
116.409
116.333
116.168
115.687
115.235
115.044
114.871
114.716
114.669
114.748
114.937
115.261
115.798
116.613
117.711
119.048
120.537
122.07
123.541
124.876
125.994
126.852
127.43
127.769
127.781
127.816
127.48
127.317
126.876
126.635
126.163
125.919
125.436
125.208
124.727
124.525
124.034
123.871
123.359
123.23
122.686
122.584
122.013
121.948
121.343
121.317
120.656
120.664
119.94
119.999
119.2
119.313
118.407
118.575
117.543
117.78
116.585
116.888
115.481
115.855
114.184
114.622
112.601
113.091
110.64
111.17
108.184
108.765
105.187
105.887
101.716
102.637
97.873
98.8056
93.186
93.1253
85.9607
82.8182
74.468
66.9187
114.536
114.276
114.042
113.95
114.027
114.242
114.55
114.906
115.284
115.674
116.068
116.455
116.808
117.095
117.295
117.39
117.38
117.268
117.059
116.771
116.556
116.505
116.363
115.946
115.574
115.422
115.323
115.28
115.354
115.545
115.815
116.169
116.682
117.427
118.429
119.658
121.038
122.469
123.852
125.107
126.158
126.96
127.497
127.802
127.815
127.827
127.501
127.332
126.903
126.671
126.206
125.97
125.484
125.262
124.771
124.577
124.079
123.925
123.407
123.298
122.749
122.673
122.088
122.052
121.429
121.444
120.763
120.825
120.069
120.191
119.351
119.55
118.593
118.868
117.762
118.142
116.854
117.347
115.807
116.439
114.587
115.384
113.099
114.087
111.263
112.478
108.969
110.429
106.18
107.854
102.925
104.62
99.1767
100.303
94.2951
93.7368
86.6658
82.7936
75.1098
67.6016
114.572
114.396
114.308
114.286
114.359
114.54
114.81
115.136
115.496
115.879
116.27
116.649
116.987
117.256
117.439
117.519
117.496
117.375
117.176
116.926
116.755
116.716
116.588
116.249
115.959
115.841
115.799
115.836
115.996
116.264
116.589
116.964
117.45
118.129
119.043
120.174
121.458
122.801
124.107
125.294
126.287
127.043
127.55
127.824
127.843
127.828
127.518
127.338
126.92
126.688
126.227
125.996
125.511
125.293
124.8
124.61
124.109
123.959
123.439
123.341
122.79
122.734
122.144
122.129
121.495
121.537
120.846
120.947
120.174
120.342
119.477
119.737
118.746
119.105
117.951
118.439
117.084
117.731
116.095
116.936
114.946
116.04
113.561
114.957
111.859
113.631
109.748
111.894
107.174
109.548
104.081
106.224
100.297
101.364
95.1347
93.9742
87.2398
82.7346
75.6055
68.3151
114.653
114.537
114.496
114.492
114.559
114.718
114.96
115.266
115.614
115.989
116.371
116.737
117.06
117.317
117.491
117.569
117.562
117.466
117.3
117.098
116.976
116.944
116.824
116.558
116.338
116.25
116.243
116.328
116.534
116.839
117.194
117.58
118.05
118.677
119.518
120.569
121.776
123.049
124.296
125.429
126.378
127.098
127.585
127.833
127.857
127.824
127.527
127.338
126.932
126.689
126.237
125.997
125.52
125.299
124.809
124.619
124.117
123.971
123.447
123.356
122.799
122.759
122.158
122.166
121.518
121.586
120.878
121.014
120.222
120.434
119.544
119.853
118.835
119.263
118.075
118.647
117.246
118.007
116.314
117.309
115.234
116.539
113.948
115.634
112.377
114.524
110.44
113.021
108.036
110.821
105.024
107.384
101.133
102.052
95.7163
94.0248
87.6959
82.7264
75.9595
68.9869
114.74
114.645
114.596
114.589
114.651
114.795
115.021
115.314
115.655
116.026
116.402
116.764
117.081
117.336
117.514
117.603
117.607
117.535
117.405
117.255
117.169
117.137
117.024
116.815
116.65
116.581
116.588
116.687
116.904
117.22
117.587
117.978
118.442
119.041
119.835
120.83
121.983
123.206
124.412
125.509
126.428
127.123
127.597
127.832
127.857
127.818
127.529
127.335
126.937
126.686
126.243
125.993
125.527
125.295
124.816
124.617
124.124
123.97
123.454
123.356
122.806
122.76
122.166
122.174
121.527
121.599
120.888
121.035
120.235
120.468
119.562
119.902
118.859
119.333
118.11
118.746
117.296
118.144
116.391
117.503
115.352
116.808
114.135
116.013
112.665
115.036
110.864
113.676
108.596
111.562
105.653
108.056
101.701
102.414
96.201
93.9777
88.1069
82.7411
76.1753
69.4939
114.903
114.726
114.633
114.616
114.673
114.811
115.032
115.319
115.656
116.023
116.396
116.754
117.072
117.332
117.518
117.619
117.639
117.584
117.476
117.351
117.276
117.237
117.128
116.946
116.805
116.741
116.749
116.848
117.061
117.374
117.742
118.143
118.618
119.211
119.984
120.951
122.076
123.274
124.458
125.537
126.442
127.127
127.595
127.824
127.852
127.81
127.525
127.331
126.938
126.684
126.246
125.992
125.529
125.296
124.818
124.619
124.126
123.972
123.456
123.358
122.807
122.763
122.167
122.177
121.529
121.603
120.889
121.039
120.237
120.474
119.564
119.91
118.862
119.345
118.114
118.767
117.301
118.176
116.397
117.556
115.361
116.892
114.147
116.142
112.691
115.221
110.92
113.919
108.703
111.841
105.814
108.308
101.874
102.535
96.3394
93.8921
88.169
82.6952
76.2137
69.4864
110.029
109.527
108.472
106.962
105.084
103.231
102.012
101.774
102.157
102.944
104.072
105.516
107.069
108.394
109.649
111.064
112.674
114.466
116.338
118.219
120.001
121.741
123.397
125.143
126.98
128.876
130.592
131.94
132.78
133.113
133.016
132.579
131.939
131.192
130.42
129.682
129.011
128.418
127.906
127.468
127.094
126.778
126.511
126.287
126.1
125.939
125.796
125.662
125.528
125.387
125.231
125.059
124.868
124.662
124.442
124.209
123.967
123.718
123.463
123.205
122.943
122.681
122.418
122.155
121.893
121.634
121.377
121.123
120.875
120.631
120.393
120.163
119.942
119.73
119.53
119.344
119.172
119.018
118.883
118.771
118.683
118.623
118.592
118.592
118.625
118.691
118.788
118.915
119.068
119.25
119.452
119.667
119.878
120.082
120.299
120.573
121.008
121.708
122.553
123.182
109.947
109.443
108.36
106.778
104.788
102.851
101.615
101.43
101.862
102.668
103.784
105.229
106.774
108.059
109.288
110.733
112.391
114.223
116.129
118.07
119.896
121.655
123.311
125.041
126.875
128.785
130.531
131.897
132.754
133.09
133
132.568
131.928
131.18
130.407
129.668
128.997
128.406
127.895
127.459
127.087
126.771
126.505
126.283
126.096
125.936
125.795
125.662
125.529
125.388
125.233
125.061
124.87
124.664
124.443
124.21
123.968
123.718
123.464
123.205
122.944
122.681
122.417
122.155
121.893
121.633
121.377
121.123
120.874
120.63
120.392
120.162
119.94
119.728
119.528
119.341
119.169
119.014
118.88
118.767
118.679
118.617
118.586
118.586
118.619
118.684
118.782
118.909
119.066
119.248
119.453
119.669
119.885
120.085
120.291
120.534
120.95
121.636
122.489
123.126
109.81
109.294
108.162
106.43
104.224
102.085
100.767
100.669
101.223
102.052
103.147
104.55
106
107.22
108.426
109.924
111.679
113.632
115.668
117.736
119.671
121.467
123.131
124.822
126.657
128.589
130.39
131.786
132.669
133.017
132.935
132.511
131.875
131.131
130.362
129.627
128.961
128.375
127.87
127.439
127.072
126.761
126.499
126.279
126.094
125.936
125.796
125.664
125.532
125.392
125.237
125.065
124.874
124.667
124.445
124.212
123.969
123.719
123.464
123.205
122.943
122.681
122.417
122.154
121.892
121.632
121.375
121.121
120.871
120.627
120.389
120.158
119.935
119.723
119.521
119.334
119.16
119.005
118.868
118.753
118.662
118.6
118.564
118.562
118.591
118.655
118.749
118.877
119.03
119.215
119.419
119.645
119.865
120.075
120.257
120.476
120.842
121.526
122.385
123.04
109.624
109.105
107.902
106.007
103.56
101.144
99.6544
99.5269
100.148
101.06
102.199
103.549
104.836
105.987
107.215
108.791
110.694
112.818
115.046
117.277
119.362
121.214
122.89
124.541
126.373
128.331
130.187
131.617
132.522
132.886
132.813
132.399
131.771
131.035
130.276
129.552
128.896
128.32
127.826
127.405
127.047
126.743
126.488
126.273
126.093
125.937
125.799
125.669
125.538
125.399
125.243
125.071
124.879
124.671
124.448
124.214
123.971
123.72
123.465
123.205
122.943
122.68
122.416
122.152
121.89
121.629
121.372
121.116
120.867
120.621
120.383
120.15
119.927
119.712
119.51
119.319
119.144
118.984
118.845
118.725
118.631
118.562
118.522
118.512
118.536
118.59
118.681
118.799
118.954
119.133
119.345
119.567
119.802
120.009
120.198
120.39
120.757
121.421
122.307
122.97
109.399
108.869
107.602
105.56
102.866
100.12
98.3866
98.0971
98.6867
99.651
100.831
102.15
103.333
104.49
105.806
107.486
109.555
111.881
114.328
116.743
118.987
120.914
122.598
124.21
126.041
128.029
129.938
131.392
132.307
132.686
132.62
132.218
131.601
130.879
130.135
129.428
128.791
128.235
127.759
127.354
127.009
126.717
126.471
126.263
126.088
125.937
125.802
125.675
125.546
125.407
125.252
125.078
124.885
124.677
124.452
124.217
123.973
123.721
123.465
123.205
122.942
122.678
122.413
122.15
121.886
121.626
121.366
121.112
120.86
120.614
120.373
120.141
119.914
119.699
119.492
119.3
119.12
118.958
118.812
118.688
118.586
118.51
118.46
118.441
118.453
118.496
118.574
118.685
118.829
119.006
119.209
119.44
119.671
119.898
120.084
120.306
120.657
121.369
122.238
122.954
109.134
108.588
107.266
105.11
102.211
99.1215
97.065
96.4793
96.9181
97.8661
99.0433
100.346
101.563
102.805
104.262
106.056
108.31
110.858
113.526
116.143
118.557
120.573
122.273
123.849
125.681
127.706
129.644
131.108
132.023
132.407
132.346
131.953
131.35
130.647
129.927
129.246
128.638
128.113
127.665
127.284
126.958
126.68
126.445
126.247
126.079
125.932
125.803
125.678
125.553
125.415
125.261
125.087
124.893
124.683
124.457
124.221
123.975
123.723
123.466
123.204
122.942
122.677
122.412
122.146
121.883
121.621
121.361
121.105
120.853
120.605
120.363
120.128
119.9
119.681
119.473
119.276
119.093
118.925
118.774
118.643
118.532
118.447
118.386
118.355
118.351
118.382
118.44
118.538
118.664
118.831
119.024
119.25
119.487
119.719
119.942
120.181
120.607
121.312
122.284
122.947
108.817
108.245
106.883
104.651
101.61
98.2084
95.7798
94.781
94.9542
95.8027
96.9385
98.2325
99.6263
101.002
102.609
104.528
106.985
109.769
112.657
115.482
118.077
120.195
121.916
123.475
125.315
127.371
129.31
130.761
131.659
132.037
131.977
131.592
131.005
130.325
129.638
128.994
128.427
127.946
127.539
127.192
126.892
126.634
126.414
126.226
126.066
125.926
125.802
125.682
125.561
125.425
125.273
125.098
124.903
124.691
124.464
124.226
123.979
123.726
123.467
123.205
122.941
122.675
122.41
122.143
121.88
121.615
121.356
121.098
120.844
120.595
120.351
120.114
119.884
119.662
119.451
119.25
119.063
118.889
118.732
118.593
118.474
118.377
118.305
118.258
118.241
118.25
118.294
118.365
118.478
118.616
118.802
119.006
119.248
119.488
119.745
120.053
120.518
121.328
122.236
123.049
108.432
107.815
106.405
104.133
101.034
97.4
94.5879
93.1354
92.9913
93.6845
94.7283
96.0056
97.6343
99.1706
100.888
102.965
105.621
108.64
111.742
114.77
117.55
119.784
121.535
123.097
124.953
127.021
128.93
130.342
131.206
131.565
131.499
131.121
130.553
129.905
129.257
128.664
128.153
127.728
127.376
127.075
126.812
126.579
126.378
126.203
126.053
125.919
125.802
125.686
125.571
125.437
125.287
125.11
124.915
124.701
124.472
124.233
123.983
123.729
123.468
123.206
122.94
122.674
122.407
122.14
121.874
121.611
121.349
121.09
120.834
120.585
120.338
120.099
119.866
119.642
119.426
119.221
119.029
118.849
118.686
118.538
118.411
118.302
118.218
118.155
118.121
118.112
118.132
118.184
118.266
118.388
118.537
118.736
118.95
119.218
119.492
119.877
120.428
121.278
122.337
122.93
107.971
107.274
105.788
103.492
100.425
96.668
93.5145
91.6615
91.234
91.7428
92.6256
93.841
95.6643
97.3902
99.203
101.43
104.257
107.496
110.796
114.012
116.97
119.328
121.124
122.718
124.595
126.648
128.496
129.84
130.652
130.98
130.902
130.528
129.981
129.371
128.777
128.247
127.807
127.456
127.173
126.932
126.715
126.516
126.339
126.179
126.04
125.914
125.803
125.693
125.582
125.451
125.303
125.125
124.93
124.712
124.482
124.24
123.989
123.733
123.47
123.207
122.94
122.672
122.405
122.136
121.871
121.604
121.343
121.081
120.825
120.572
120.324
120.083
119.847
119.619
119.4
119.191
118.993
118.808
118.636
118.481
118.341
118.224
118.123
118.049
117.991
117.967
117.96
117.991
118.044
118.134
118.26
118.422
118.634
118.878
119.209
119.623
120.268
121.159
122.107
123.078
107.415
106.597
104.993
102.685
99.7212
95.9702
92.5958
90.4304
89.7763
90.1017
90.7965
91.8842
93.8324
95.7464
97.6469
99.9898
102.968
106.402
109.857
113.225
116.339
118.827
120.682
122.339
124.228
126.24
127.994
129.248
129.991
130.276
130.177
129.804
129.28
128.715
128.189
127.741
127.388
127.127
126.929
126.76
126.602
126.446
126.298
126.157
126.03
125.912
125.808
125.702
125.598
125.469
125.323
125.142
124.947
124.724
124.494
124.247
123.996
123.736
123.474
123.208
122.94
122.671
122.402
122.133
121.865
121.599
121.334
121.072
120.814
120.56
120.309
120.065
119.826
119.595
119.372
119.158
118.955
118.762
118.584
118.419
118.271
118.138
118.027
117.932
117.862
117.809
117.787
117.781
117.814
117.865
117.962
118.091
118.269
118.518
118.832
119.324
119.976
120.971
122.051
122.607
106.758
105.768
103.998
101.691
98.9055
95.3034
91.8738
89.4897
88.6763
88.84
89.3664
90.3186
92.3543
94.4027
96.3334
98.7512
101.841
105.407
108.966
112.447
115.684
118.292
120.216
121.948
123.841
125.781
127.415
128.562
129.22
129.447
129.32
128.944
128.447
127.938
127.494
127.143
126.895
126.741
126.644
126.561
126.473
126.37
126.259
126.14
126.026
125.915
125.818
125.717
125.618
125.49
125.346
125.162
124.966
124.738
124.507
124.255
124.004
123.74
123.478
123.209
122.941
122.67
122.4
122.129
121.86
121.592
121.327
121.063
120.803
120.546
120.294
120.047
119.805
119.57
119.342
119.124
118.914
118.715
118.529
118.355
118.196
118.051
117.924
117.814
117.722
117.651
117.598
117.573
117.563
117.592
117.638
117.741
117.876
118.096
118.418
118.878
119.601
120.475
121.535
122.517
105.994
104.806
102.823
100.557
98.016
94.6971
91.3941
88.9348
88.0432
88.1191
88.5015
89.3205
91.3534
93.4545
95.359
97.7814
100.921
104.56
108.177
111.722
115.038
117.738
119.738
121.54
123.42
125.257
126.753
127.781
128.339
128.493
128.328
127.951
127.486
127.045
126.697
126.458
126.331
126.3
126.319
126.337
126.331
126.292
126.224
126.131
126.032
125.927
125.835
125.738
125.643
125.516
125.372
125.184
124.987
124.753
124.522
124.263
124.014
123.743
123.484
123.208
122.943
122.666
122.399
122.124
121.855
121.584
121.318
121.052
120.791
120.532
120.277
120.027
119.782
119.543
119.311
119.088
118.871
118.667
118.471
118.288
118.117
117.96
117.817
117.69
117.579
117.483
117.407
117.346
117.312
117.292
117.311
117.352
117.461
117.624
117.916
118.364
119.019
120.007
120.949
121.55
105.156
103.756
101.558
99.3914
97.1758
94.2348
91.2453
88.8946
88.0155
88.0571
88.3033
88.9744
90.8872
92.9329
94.7739
97.1347
100.258
103.897
107.514
111.069
114.421
117.184
119.259
121.107
122.953
124.663
126.008
126.907
127.354
127.42
127.21
126.836
126.411
126.052
125.812
125.696
125.704
125.811
125.96
126.091
126.18
126.214
126.199
126.135
126.052
125.954
125.865
125.769
125.676
125.548
125.403
125.209
125.011
124.768
124.539
124.271
124.025
123.745
123.49
123.206
122.947
122.661
122.399
122.116
121.853
121.574
121.312
121.04
120.78
120.515
120.261
120.005
119.759
119.515
119.279
119.049
118.827
118.614
118.411
118.218
118.036
117.865
117.708
117.562
117.431
117.312
117.207
117.118
117.043
116.99
116.953
116.959
116.993
117.119
117.327
117.711
118.3
119.036
119.958
120.726
104.321
102.753
100.458
98.3638
96.5131
94.0318
91.5232
89.4442
88.6286
88.6799
88.7899
89.2948
90.9756
92.8598
94.5907
96.8334
99.8667
103.433
106.991
110.504
113.853
116.648
118.78
120.646
122.43
124
125.186
125.947
126.272
126.242
125.987
125.621
125.248
124.978
124.856
124.874
125.027
125.282
125.571
125.828
126.023
126.141
126.186
126.157
126.092
125.999
125.912
125.813
125.718
125.586
125.438
125.235
125.036
124.783
124.555
124.277
124.035
123.745
123.497
123.201
122.951
122.653
122.401
122.105
121.851
121.561
121.307
121.024
120.77
120.496
120.245
119.982
119.735
119.484
119.246
119.009
118.782
118.561
118.349
118.146
117.951
117.768
117.594
117.432
117.278
117.136
117.002
116.881
116.768
116.669
116.589
116.526
116.512
116.537
116.686
116.936
117.393
118.058
118.661
119.126
103.696
101.975
99.7155
97.6521
96.1431
94.2165
92.2597
90.5721
89.8462
89.925
89.9299
90.2359
91.5913
93.2175
94.7849
96.8698
99.7512
103.173
106.62
110.045
113.354
116.148
118.31
120.164
121.863
123.281
124.302
124.911
125.109
124.98
124.682
124.333
124.023
123.846
123.849
124.01
124.316
124.724
125.161
125.551
125.864
126.076
126.189
126.199
126.156
126.067
125.978
125.873
125.772
125.629
125.476
125.263
125.061
124.798
124.572
124.282
124.046
123.742
123.503
123.193
122.954
122.641
122.402
122.089
121.852
121.541
121.306
121
120.766
120.468
120.235
119.949
119.717
119.447
119.216
118.963
118.737
118.503
118.286
118.07
117.866
117.667
117.478
117.297
117.123
116.955
116.794
116.636
116.486
116.339
116.202
116.078
115.975
115.924