/*--------------------------------*- C++ -*----------------------------------*\
| =========                 |                                                 |
| \\      /  F ield         | OpenFOAM: The Open Source CFD Toolbox           |
|  \\    /   O peration     | Version:  2.4.0                                 |
|   \\  /    A nd           | Web:      www.OpenFOAM.org                      |
|    \\/     M anipulation  |                                                 |
\*---------------------------------------------------------------------------*/
FoamFile
{
    version     2.0;
    format      ascii;
    class       volVectorField;
    location    "0.06";
    object      U_0;
}
// * * * * * * * * * * * * * * * * * * * * * * * * * * * * * * * * * * * * * //

dimensions      [0 1 -1 0 0 0 0];

internalField   nonuniform List<vector> 
4400
(
(5.40393 0.316809 0)
(3.31873 0.0607016 0)
(2.57959 0.00156572 0)
(2.24249 -0.00238395 0)
(2.07843 -0.00120041 0)
(2.01074 -0.0010139 0)
(1.97175 -0.00102463 0)
(1.93518 -0.000192599 0)
(1.95475 0.00249413 0)
(1.92594 -0.0707629 0)
(8.68234 0.857073 0)
(7.55186 0.344637 0)
(6.61284 0.116445 0)
(5.93779 0.0535351 0)
(5.50655 0.0276658 0)
(5.30631 0.0123715 0)
(5.17733 0.00890267 0)
(5.03932 0.00159435 0)
(5.10626 0.0027203 0)
(5.21838 -0.115653 0)
(9.88323 0.936645 0)
(10.0131 0.477853 0)
(9.46209 0.213184 0)
(8.79672 0.127016 0)
(8.24033 0.0769675 0)
(7.96345 0.0377834 0)
(7.77412 0.0301174 0)
(7.53694 0.0084369 0)
(7.63812 -0.0105639 0)
(7.83796 -0.1053 0)
(10.1029 0.805436 0)
(11.1515 0.499309 0)
(11.2271 0.265905 0)
(10.8875 0.192737 0)
(10.3996 0.133806 0)
(10.1481 0.0704835 0)
(9.95193 0.0611476 0)
(9.64772 0.0208504 0)
(9.76565 -0.0307393 0)
(9.99027 -0.111421 0)
(10.0106 0.644563 0)
(11.3779 0.438833 0)
(11.9203 0.246308 0)
(12.0409 0.21181 0)
(11.8083 0.170628 0)
(11.7298 0.0963743 0)
(11.6108 0.093981 0)
(11.3145 0.0382962 0)
(11.4473 -0.0476912 0)
(11.7038 -0.161515 0)
(9.9588 0.512291 0)
(11.3006 0.362476 0)
(11.966 0.187472 0)
(12.3429 0.179484 0)
(12.3537 0.164542 0)
(12.5577 0.0917716 0)
(12.5871 0.114115 0)
(12.4061 0.0467411 0)
(12.5906 -0.0591178 0)
(12.9102 -0.189281 0)
(9.97802 0.395954 0)
(11.1949 0.291806 0)
(11.9467 0.134508 0)
(12.2687 0.134307 0)
(12.3642 0.12991 0)
(12.7802 0.0600037 0)
(12.8633 0.10931 0)
(12.8488 0.0470205 0)
(13.144 -0.119106 0)
(13.503 -0.122799 0)
(9.99582 0.277845 0)
(11.1328 0.213998 0)
(11.967 0.0929869 0)
(12.1347 0.110016 0)
(12.3794 0.076762 0)
(12.7661 0.0212626 0)
(12.7458 0.0960712 0)
(12.9794 0.0296768 0)
(13.2945 -0.169775 0)
(13.4555 -0.114922 0)
(9.98716 0.171321 0)
(11.1386 0.1201 0)
(11.8873 0.0639387 0)
(12.1333 0.0680465 0)
(12.5122 0.0328029 0)
(12.5754 0.00546965 0)
(12.6518 0.0749603 0)
(13.1329 -0.0212509 0)
(13.2211 -0.173103 0)
(13.1311 -0.143554 0)
(10.0003 0.0555685 0)
(11.1214 0.0363786 0)
(11.8148 0.0303248 0)
(12.226 0.0220397 0)
(12.4777 -0.000231675 0)
(12.4617 -0.0096941 0)
(12.7763 0.0239697 0)
(13.0877 -0.0436573 0)
(13.0656 -0.174757 0)
(13.1183 -0.175874 0)
(10.0187 -0.0524667 0)
(11.087 -0.0470193 0)
(11.8244 -0.0108891 0)
(12.2545 -0.0235127 0)
(12.4135 -0.0228065 0)
(12.5278 -0.0395983 0)
(12.8019 -0.0130732 0)
(12.9641 -0.0596309 0)
(13.1233 -0.193225 0)
(13.1696 -0.223818 0)
(10.0155 -0.164365 0)
(11.0939 -0.131611 0)
(11.8804 -0.0509005 0)
(12.2374 -0.0618652 0)
(12.4206 -0.0584352 0)
(12.5923 -0.0687492 0)
(12.7505 -0.0367376 0)
(13.0134 -0.0891436 0)
(13.1719 -0.211537 0)
(13.1004 -0.23557 0)
(10.0362 -0.27408 0)
(11.1155 -0.216793 0)
(11.9619 -0.0948316 0)
(12.2048 -0.0999327 0)
(12.4818 -0.0950294 0)
(12.5991 -0.087477 0)
(12.8079 -0.0701313 0)
(13.0598 -0.121152 0)
(13.1279 -0.209582 0)
(13.0586 -0.278554 0)
(10.0591 -0.392154 0)
(11.1501 -0.294802 0)
(12.0374 -0.137317 0)
(12.2031 -0.136458 0)
(12.558 -0.135979 0)
(12.5934 -0.113977 0)
(12.8554 -0.101865 0)
(12.9314 -0.135359 0)
(12.9765 -0.211943 0)
(12.7867 -0.290588 0)
(10.0535 -0.513374 0)
(11.2281 -0.363256 0)
(12.082 -0.190913 0)
(12.2293 -0.181562 0)
(12.4993 -0.170938 0)
(12.3957 -0.131056 0)
(12.5514 -0.117345 0)
(12.4035 -0.137077 0)
(12.3502 -0.197586 0)
(11.9897 -0.280968 0)
(10.0772 -0.645603 0)
(11.3163 -0.439214 0)
(11.9977 -0.248185 0)
(11.9424 -0.2142 0)
(11.9025 -0.176823 0)
(11.5874 -0.123528 0)
(11.5615 -0.106522 0)
(11.2407 -0.114194 0)
(11.1065 -0.16632 0)
(10.6267 -0.240134 0)
(10.1398 -0.806518 0)
(11.1069 -0.499679 0)
(11.2768 -0.267235 0)
(10.8119 -0.195226 0)
(10.4618 -0.138963 0)
(10.0225 -0.0890442 0)
(9.89218 -0.0756175 0)
(9.51846 -0.0804471 0)
(9.36117 -0.126228 0)
(8.80579 -0.174788 0)
(9.90067 -0.936746 0)
(9.98545 -0.478158 0)
(9.49262 -0.214052 0)
(8.74373 -0.128898 0)
(8.27424 -0.0802669 0)
(7.85978 -0.0489503 0)
(7.70861 -0.0425727 0)
(7.37342 -0.0480048 0)
(7.21741 -0.0813093 0)
(6.65214 -0.107069 0)
(8.69024 -0.857187 0)
(7.53786 -0.345036 0)
(6.62718 -0.116742 0)
(5.90563 -0.0547379 0)
(5.51841 -0.0290638 0)
(5.23147 -0.0175619 0)
(5.11419 -0.0166184 0)
(4.87569 -0.0211718 0)
(4.73432 -0.0385331 0)
(4.26334 -0.0495719 0)
(5.40516 -0.316738 0)
(3.31517 -0.0607421 0)
(2.58183 -0.0015251 0)
(2.23062 0.00217251 0)
(2.07832 0.00126228 0)
(1.97682 0.000318763 0)
(1.92983 -0.000339723 0)
(1.83479 -0.00142833 0)
(1.74756 -0.00450066 0)
(1.51916 0.00412539 0)
(2.9076 0.0213613 0)
(3.35099 0.117929 0)
(3.99442 0.433293 0)
(4.93496 0.79942 0)
(6.16487 0.305212 0)
(6.64357 -0.568456 0)
(8.16842 -1.81078 0)
(7.96818 -3.19817 0)
(8.39561 -3.8646 0)
(8.16255 -4.19357 0)
(7.25602 -3.48942 0)
(7.57894 -2.52282 0)
(5.26825 -1.59965 0)
(4.69243 1.03223 0)
(7.00743 2.59303 0)
(7.82854 3.59948 0)
(8.12405 3.97409 0)
(9.52907 3.01102 0)
(9.74759 1.79427 0)
(10.6849 0.0160593 0)
(10.9692 -1.70901 0)
(11.1712 -3.22374 0)
(11.9989 -5.13925 0)
(12.4406 -6.80189 0)
(12.0125 -7.44422 0)
(11.7148 -7.76501 0)
(11.5232 -8.06865 0)
(10.4826 -7.54461 0)
(8.86607 -6.40176 0)
(7.71069 -5.77028 0)
(7.35353 -5.92289 0)
(7.70919 -5.8939 0)
(8.05693 -5.57499 0)
(8.78268 -4.26128 0)
(9.06155 -2.8006 0)
(8.99579 -1.48749 0)
(9.87317 0.349374 0)
(9.86577 2.10058 0)
(9.4154 2.91606 0)
(9.50272 4.08462 0)
(10.2014 5.12175 0)
(10.2101 6.23403 0)
(10.215 6.19594 0)
(9.85747 6.30731 0)
(9.91912 5.08284 0)
(9.30321 4.89744 0)
(9.61372 3.0409 0)
(8.47752 2.59635 0)
(9.10929 0.648875 0)
(7.55348 0.636279 0)
(8.10607 -0.665646 0)
(6.80682 0.0475929 0)
(7.04501 -0.913262 0)
(6.52271 0.185472 0)
(6.1554 -0.868489 0)
(6.38495 0.398601 0)
(5.56849 -0.827434 0)
(6.15383 0.53523 0)
(5.33935 -0.811769 0)
(5.90768 0.574805 0)
(5.36626 -0.737409 0)
(5.72346 0.524765 0)
(5.50436 -0.610339 0)
(5.59459 0.536205 0)
(5.58253 -0.612748 0)
(5.58776 0.651807 0)
(5.58177 -0.666204 0)
(5.62245 0.661613 0)
(5.64293 -0.54369 0)
(5.59966 0.616517 0)
(5.71617 -0.512726 0)
(5.60291 0.742808 0)
(5.73081 -0.552949 0)
(5.70288 0.68425 0)
(5.76605 -0.329065 0)
(5.72182 0.675467 0)
(5.84095 -0.338259 0)
(5.85295 0.757213 0)
(5.83633 -0.148796 0)
(5.92174 0.708878 0)
(6.02056 -0.0470421 0)
(5.98809 0.822878 0)
(6.05066 0.180478 0)
(6.04155 0.806322 0)
(6.23355 0.345763 0)
(6.03999 0.956303 0)
(6.19259 0.663314 0)
(5.93186 1.04227 0)
(6.08308 0.84908 0)
(5.84142 1.24362 0)
(5.76481 1.11115 0)
(5.59057 1.59555 0)
(5.59886 1.39216 0)
(5.65088 2.07594 0)
(6.19795 2.03561 0)
(5.64343 2.93351 0)
(6.3743 2.75361 0)
(5.67235 4.61367 0)
(6.40375 5.07843 0)
(3.65537 9.32621 0)
(5.45577 0.0204002 0)
(5.82254 0.0844831 0)
(6.02105 0.175637 0)
(6.38365 0.38204 0)
(7.90313 0.0399077 0)
(8.32984 -0.881176 0)
(9.60393 -2.08775 0)
(9.92355 -3.2498 0)
(9.58092 -3.85093 0)
(9.79368 -4.00609 0)
(8.05958 -3.34541 0)
(8.8519 -2.14769 0)
(7.05453 -1.19024 0)
(5.75708 0.655177 0)
(7.8264 2.08409 0)
(8.4036 3.2567 0)
(8.99995 3.5968 0)
(9.98349 2.7548 0)
(10.5177 1.46003 0)
(11.3833 -0.17156 0)
(11.5101 -1.76139 0)
(11.9335 -3.487 0)
(12.7161 -5.42658 0)
(12.8075 -6.75868 0)
(12.208 -7.19695 0)
(11.9094 -7.56808 0)
(11.4357 -7.70915 0)
(9.87857 -6.9702 0)
(8.04927 -5.83364 0)
(7.02404 -5.47797 0)
(6.71542 -5.90632 0)
(6.95309 -6.05252 0)
(7.23029 -5.68756 0)
(7.83955 -4.42226 0)
(8.09976 -2.90712 0)
(8.06178 -1.5879 0)
(8.89884 0.221378 0)
(9.04849 2.13088 0)
(8.61308 2.94629 0)
(8.66468 3.99037 0)
(9.37194 4.92442 0)
(9.47201 6.16744 0)
(9.59673 6.13975 0)
(9.28853 6.39812 0)
(9.55345 5.1017 0)
(8.88738 5.00542 0)
(9.49131 3.10156 0)
(8.28265 2.79055 0)
(8.93887 0.727286 0)
(7.63925 0.952955 0)
(7.71319 -0.617465 0)
(7.11248 0.372813 0)
(6.56448 -0.934669 0)
(6.7772 0.434018 0)
(5.86179 -0.906414 0)
(6.39986 0.576168 0)
(5.62591 -0.861866 0)
(5.98749 0.659788 0)
(5.72901 -0.854864 0)
(5.65314 0.671549 0)
(5.93936 -0.796497 0)
(5.47643 0.628504 0)
(6.05324 -0.709185 0)
(5.4058 0.676567 0)
(6.05213 -0.761303 0)
(5.47128 0.799376 0)
(5.95964 -0.823572 0)
(5.54623 0.790481 0)
(6.00538 -0.707286 0)
(5.47873 0.770072 0)
(6.06881 -0.696166 0)
(5.54172 0.888318 0)
(6.04174 -0.745829 0)
(5.6004 0.849173 0)
(6.13849 -0.53897 0)
(5.60106 0.84755 0)
(6.14524 -0.554107 0)
(5.74716 0.954065 0)
(6.14767 -0.399397 0)
(5.76965 0.903725 0)
(6.23491 -0.263267 0)
(5.87597 1.05343 0)
(6.15632 -0.0986161 0)
(5.96255 1.01714 0)
(6.23262 0.121594 0)
(6.02914 1.22554 0)
(6.0982 0.354998 0)
(6.11527 1.29447 0)
(6.072 0.603373 0)
(6.13568 1.50779 0)
(6.00082 0.887057 0)
(5.89911 1.85605 0)
(6.07602 1.16648 0)
(5.7268 2.27645 0)
(6.20252 1.78578 0)
(5.84157 3.39421 0)
(6.11186 2.63246 0)
(4.91882 4.7996 0)
(8.40924 4.16197 0)
(6.05989 9.72154 0)
(7.8251 -0.108719 0)
(8.0452 -0.126215 0)
(8.4344 0.0019928 0)
(8.40559 0.0400709 0)
(9.66197 -0.31559 0)
(10.4578 -1.04608 0)
(11.0164 -2.27722 0)
(11.5713 -3.24121 0)
(10.635 -3.80027 0)
(10.9411 -3.79583 0)
(9.06095 -3.15746 0)
(9.43386 -1.89371 0)
(8.68323 -0.751286 0)
(7.05795 0.535819 0)
(8.28807 1.7336 0)
(9.08928 2.92481 0)
(9.84836 3.38069 0)
(10.5132 2.70093 0)
(11.3944 1.23568 0)
(11.8678 -0.308879 0)
(12.0837 -1.88146 0)
(12.7213 -3.74977 0)
(13.2998 -5.5757 0)
(12.9729 -6.63645 0)
(12.2348 -6.98956 0)
(11.9693 -7.34717 0)
(11.2046 -7.25251 0)
(9.27626 -6.21213 0)
(7.16514 -5.23137 0)
(6.13385 -5.26321 0)
(5.92069 -5.93251 0)
(6.11047 -6.18762 0)
(6.33823 -5.78111 0)
(6.79902 -4.51102 0)
(6.99805 -3.02083 0)
(7.03046 -1.68962 0)
(7.79687 0.0864151 0)
(8.0837 2.10149 0)
(7.73001 2.95981 0)
(7.78341 3.9392 0)
(8.43466 4.77202 0)
(8.65173 6.12855 0)
(8.86961 6.07983 0)
(8.66927 6.44019 0)
(9.02882 5.06549 0)
(8.47186 5.10863 0)
(9.11264 3.1166 0)
(8.16083 2.96456 0)
(8.52156 0.798705 0)
(7.74169 1.24889 0)
(7.28282 -0.551243 0)
(7.3002 0.630194 0)
(6.29143 -0.910492 0)
(6.80823 0.618339 0)
(5.93039 -0.892358 0)
(6.22031 0.708146 0)
(5.99818 -0.85312 0)
(5.72137 0.755511 0)
(6.10425 -0.876831 0)
(5.53382 0.767118 0)
(5.97647 -0.884011 0)
(5.57916 0.734909 0)
(5.802 -0.821451 0)
(5.54146 0.780088 0)
(5.73783 -0.901512 0)
(5.57516 0.939666 0)
(5.59565 -0.982227 0)
(5.64069 0.897831 0)
(5.64682 -0.812661 0)
(5.49743 0.859142 0)
(5.79501 -0.857797 0)
(5.54028 1.048 0)
(5.79117 -0.930483 0)
(5.60506 0.960106 0)
(5.94544 -0.697481 0)
(5.60465 0.995919 0)
(6.04817 -0.813928 0)
(5.77642 1.10333 0)
(6.17009 -0.594946 0)
(5.85249 1.02294 0)
(6.42608 -0.548948 0)
(6.00612 1.22336 0)
(6.54936 -0.325523 0)
(6.20077 1.18142 0)
(6.79536 -0.15041 0)
(6.29942 1.42701 0)
(6.89608 0.179046 0)
(6.33125 1.50789 0)
(6.92976 0.426476 0)
(6.31015 1.72148 0)
(6.75855 0.852855 0)
(5.89567 1.99117 0)
(6.68303 1.02088 0)
(5.74302 2.38177 0)
(6.91633 1.34174 0)
(5.93243 3.39979 0)
(8.59574 2.53637 0)
(5.20598 5.33168 0)
(8.94433 3.63613 0)
(6.73487 9.80856 0)
(10.0623 -0.100998 0)
(10.0729 -0.217146 0)
(10.4644 -0.196817 0)
(10.5024 -0.169123 0)
(11.2119 -0.639771 0)
(11.982 -1.23916 0)
(12.1908 -2.43542 0)
(12.5935 -3.1893 0)
(11.8065 -3.56004 0)
(11.5042 -3.55485 0)
(10.0818 -2.77844 0)
(9.65114 -1.75211 0)
(9.7579 -0.511525 0)
(8.33184 0.661509 0)
(8.64935 1.46629 0)
(9.74558 2.41435 0)
(10.4556 3.06506 0)
(11.168 2.43158 0)
(12.0353 0.966249 0)
(12.0822 -0.448816 0)
(12.6073 -2.10462 0)
(13.4409 -3.97362 0)
(13.6542 -5.53984 0)
(13.0331 -6.32474 0)
(12.2593 -6.73967 0)
(11.8424 -7.05526 0)
(10.617 -6.64276 0)
(8.38305 -5.37114 0)
(6.24557 -4.55766 0)
(5.27269 -5.01333 0)
(5.1118 -5.93241 0)
(5.23091 -6.26568 0)
(5.35713 -5.83078 0)
(5.74369 -4.57731 0)
(5.84367 -3.1135 0)
(5.89989 -1.796 0)
(6.5708 -0.0395733 0)
(6.9521 2.02723 0)
(6.72881 2.9266 0)
(6.86764 3.86416 0)
(7.48305 4.57605 0)
(7.79923 6.00788 0)
(8.06775 5.93296 0)
(7.95926 6.46073 0)
(8.48189 5.018 0)
(7.88563 5.14275 0)
(8.7311 3.06669 0)
(7.83778 3.18357 0)
(8.13834 0.800547 0)
(7.63916 1.57065 0)
(6.94393 -0.559508 0)
(7.23198 0.89022 0)
(6.10205 -0.894079 0)
(6.64328 0.749539 0)
(5.95931 -0.849233 0)
(5.97451 0.773941 0)
(6.04314 -0.857018 0)
(5.58334 0.848573 0)
(5.85784 -0.98795 0)
(5.62056 0.907447 0)
(5.49209 -1.04639 0)
(5.68743 0.859637 0)
(5.42552 -0.93521 0)
(5.51582 0.883035 0)
(5.53787 -1.0091 0)
(5.50481 1.06803 0)
(5.46365 -1.1077 0)
(5.5753 1.02483 0)
(5.60674 -0.926204 0)
(5.33227 1.00171 0)
(5.81085 -1.00156 0)
(5.40394 1.20782 0)
(5.71694 -1.09686 0)
(5.44351 1.13895 0)
(5.93659 -0.890984 0)
(5.33695 1.19667 0)
(5.99455 -1.02561 0)
(5.5203 1.32334 0)
(6.18619 -0.855113 0)
(5.44744 1.25486 0)
(6.47414 -0.812559 0)
(5.66361 1.47349 0)
(6.76434 -0.679408 0)
(5.77748 1.40345 0)
(7.273 -0.483301 0)
(6.08011 1.66191 0)
(7.65454 -0.220072 0)
(6.40012 1.73866 0)
(8.09294 0.0954913 0)
(6.684 2.03388 0)
(8.0253 0.584851 0)
(6.60888 2.43621 0)
(7.60827 0.831431 0)
(5.8922 2.91705 0)
(7.20927 0.991751 0)
(4.88139 3.54576 0)
(8.85957 1.6051 0)
(5.89661 5.24056 0)
(11.6045 2.5016 0)
(8.42642 9.10978 0)
(11.7656 -0.0991731 0)
(11.7562 -0.208982 0)
(12.0806 -0.351814 0)
(12.1787 -0.311096 0)
(12.5936 -0.804683 0)
(13.0661 -1.28358 0)
(13.2488 -2.39663 0)
(13.1245 -3.2123 0)
(12.5133 -3.27382 0)
(11.7679 -3.28278 0)
(10.7228 -2.39932 0)
(9.86451 -1.52108 0)
(10.1137 -0.48078 0)
(9.24785 0.806101 0)
(9.3208 1.36273 0)
(10.3392 1.95965 0)
(10.7176 2.63134 0)
(11.6365 2.04788 0)
(12.2544 0.850047 0)
(12.4803 -0.554725 0)
(13.3314 -2.41915 0)
(13.922 -4.16983 0)
(13.6755 -5.42182 0)
(12.9788 -6.07145 0)
(12.2794 -6.46931 0)
(11.5575 -6.62924 0)
(9.88934 -5.85463 0)
(7.23733 -4.45737 0)
(5.14596 -3.9547 0)
(4.38977 -4.84886 0)
(4.21541 -5.9211 0)
(4.22534 -6.29159 0)
(4.23644 -5.81772 0)
(4.57211 -4.60395 0)
(4.65995 -3.16598 0)
(4.69505 -1.87272 0)
(5.23124 -0.155966 0)
(5.67816 1.91836 0)
(5.60694 2.85986 0)
(5.88058 3.79325 0)
(6.45241 4.40517 0)
(6.85102 5.90509 0)
(7.18366 5.79275 0)
(7.17834 6.42015 0)
(7.83442 4.90192 0)
(7.36815 5.18634 0)
(8.11984 2.98354 0)
(7.60696 3.34931 0)
(7.55795 0.748842 0)
(7.60329 1.85529 0)
(6.47481 -0.527773 0)
(7.28888 1.10897 0)
(5.88284 -0.80976 0)
(6.66166 0.855628 0)
(5.87557 -0.787219 0)
(5.96832 0.863627 0)
(5.93543 -0.883989 0)
(5.65279 0.98431 0)
(5.72604 -1.09241 0)
(5.70182 1.05132 0)
(5.55041 -1.12287 0)
(5.65292 0.949984 0)
(5.7024 -0.957801 0)
(5.4501 0.962462 0)
(5.81404 -1.0992 0)
(5.47049 1.21537 0)
(5.6523 -1.25743 0)
(5.5565 1.11374 0)
(5.75597 -1.0017 0)
(5.34292 1.07904 0)
(5.89232 -1.17677 0)
(5.45309 1.3869 0)
(5.70588 -1.29311 0)
(5.48166 1.21915 0)
(5.95846 -1.02155 0)
(5.3595 1.34486 0)
(5.98374 -1.28467 0)
(5.54882 1.46365 0)
(6.13326 -1.0259 0)
(5.42681 1.3912 0)
(6.41358 -1.12341 0)
(5.61798 1.66523 0)
(6.67068 -0.955347 0)
(5.58198 1.57479 0)
(7.26875 -0.912734 0)
(5.88901 1.90634 0)
(7.91819 -0.703927 0)
(6.10471 1.91044 0)
(9.0275 -0.517666 0)
(6.73551 2.26784 0)
(10.1093 0.0500274 0)
(7.07957 2.59571 0)
(11.3808 0.58679 0)
(6.97091 3.1891 0)
(11.7143 1.43317 0)
(5.29241 3.98123 0)
(10.6378 1.67471 0)
(4.56783 5.85392 0)
(9.8655 1.2998 0)
(8.95009 8.45044 0)
(12.9266 -0.143042 0)
(12.9039 -0.256151 0)
(13.0987 -0.51014 0)
(13.2355 -0.42835 0)
(13.4847 -0.873553 0)
(13.6591 -1.32669 0)
(13.9896 -2.3068 0)
(13.485 -3.05424 0)
(12.7566 -2.91952 0)
(11.8107 -2.9033 0)
(10.7319 -2.05864 0)
(10.0955 -1.21646 0)
(10.0955 -0.492691 0)
(9.53927 0.766517 0)
(10.0509 1.31795 0)
(10.9278 1.76863 0)
(11.0915 2.35412 0)
(12.0298 1.83505 0)
(12.4675 0.741276 0)
(13.1535 -0.809965 0)
(13.9904 -2.66694 0)
(14.0364 -4.15313 0)
(13.5334 -5.19721 0)
(12.9132 -5.78673 0)
(12.2146 -6.12292 0)
(11.0348 -6.03831 0)
(8.95916 -4.909 0)
(6.12955 -3.4605 0)
(4.2071 -3.42521 0)
(3.57759 -4.71676 0)
(3.29942 -5.89443 0)
(3.18353 -6.30109 0)
(3.13566 -5.82398 0)
(3.35725 -4.61992 0)
(3.43673 -3.2012 0)
(3.42125 -1.90646 0)
(3.78833 -0.24675 0)
(4.2927 1.77073 0)
(4.39401 2.72382 0)
(4.85416 3.67054 0)
(5.40361 4.20632 0)
(5.88092 5.7501 0)
(6.26787 5.57315 0)
(6.36676 6.32636 0)
(7.10889 4.75232 0)
(6.7473 5.20195 0)
(7.59483 2.81602 0)
(7.1804 3.54897 0)
(7.11398 0.674534 0)
(7.40116 2.16302 0)
(6.19438 -0.558219 0)
(7.13784 1.28388 0)
(5.69573 -0.783502 0)
(6.41363 0.915964 0)
(5.82371 -0.743024 0)
(5.68103 0.922047 0)
(5.99994 -0.924515 0)
(5.468 1.11324 0)
(5.77587 -1.19909 0)
(5.60697 1.16941 0)
(5.56556 -1.1964 0)
(5.54249 1.01528 0)
(5.6241 -1.0454 0)
(5.44604 1.07145 0)
(5.4836 -1.2687 0)
(5.57436 1.35628 0)
(5.30485 -1.38884 0)
(5.49654 1.19958 0)
(5.51744 -1.08376 0)
(5.30126 1.19514 0)
(5.53793 -1.35156 0)
(5.4553 1.54718 0)
(5.46798 -1.40895 0)
(5.31429 1.32596 0)
(5.8303 -1.1685 0)
(5.23696 1.5413 0)
(5.74669 -1.49637 0)
(5.3754 1.61457 0)
(6.07025 -1.2026 0)
(5.17665 1.58707 0)
(6.27308 -1.38014 0)
(5.34952 1.86205 0)
(6.63106 -1.16828 0)
(5.1823 1.80168 0)
(7.13191 -1.21203 0)
(5.33828 2.15103 0)
(7.8247 -0.949921 0)
(5.13844 2.19657 0)
(8.94274 -0.9637 0)
(5.37297 2.54269 0)
(10.5595 -0.476903 0)
(5.68739 2.77431 0)
(12.6682 -0.198102 0)
(6.59522 3.24003 0)
(14.6346 0.564021 0)
(7.53232 4.22629 0)
(14.5664 0.967144 0)
(8.17373 6.01166 0)
(11.1658 1.39529 0)
(8.74414 7.65096 0)
(13.3405 -0.216176 0)
(13.3911 -0.365622 0)
(13.4937 -0.641531 0)
(13.5725 -0.577692 0)
(13.7601 -0.943091 0)
(13.8902 -1.39514 0)
(14.289 -2.21099 0)
(13.4849 -2.82174 0)
(12.5474 -2.56051 0)
(11.8459 -2.47293 0)
(10.6652 -1.76505 0)
(10.3132 -0.945457 0)
(10.137 -0.38705 0)
(9.55945 0.605929 0)
(10.4197 1.08197 0)
(11.1573 1.62587 0)
(11.548 2.14971 0)
(12.3793 1.67361 0)
(12.8771 0.571008 0)
(13.7915 -1.11252 0)
(14.1133 -2.81204 0)
(13.7622 -4.03235 0)
(13.3111 -4.9906 0)
(12.6972 -5.53059 0)
(11.8985 -5.66387 0)
(10.352 -5.24934 0)
(7.76046 -3.87901 0)
(4.97952 -2.55209 0)
(3.41719 -2.96957 0)
(2.76315 -4.47856 0)
(2.39195 -5.74856 0)
(2.13876 -6.23503 0)
(2.01768 -5.82368 0)
(2.16509 -4.64128 0)
(2.23825 -3.22091 0)
(2.15904 -1.90482 0)
(2.33118 -0.311769 0)
(2.85578 1.59975 0)
(3.14382 2.53777 0)
(3.77498 3.50996 0)
(4.28077 4.0284 0)
(4.81947 5.59505 0)
(5.29376 5.34629 0)
(5.49938 6.21006 0)
(6.38388 4.56594 0)
(6.08926 5.14085 0)
(6.94367 2.66922 0)
(6.81083 3.67602 0)
(6.55369 0.56886 0)
(7.16474 2.35089 0)
(5.75933 -0.559486 0)
(6.9411 1.4446 0)
(5.46848 -0.6697 0)
(6.31128 0.973523 0)
(5.77743 -0.644242 0)
(5.66496 0.993439 0)
(5.90929 -0.96048 0)
(5.60521 1.25572 0)
(5.51643 -1.31601 0)
(5.80511 1.28005 0)
(5.2808 -1.26359 0)
(5.66105 1.07034 0)
(5.40255 -1.10185 0)
(5.52158 1.14942 0)
(5.36833 -1.34487 0)
(5.5904 1.42945 0)
(5.39929 -1.43121 0)
(5.44962 1.26558 0)
(5.60468 -1.15639 0)
(5.34412 1.2897 0)
(5.57983 -1.48395 0)
(5.42355 1.66777 0)
(5.60795 -1.52849 0)
(5.31981 1.40714 0)
(5.77913 -1.30711 0)
(5.28941 1.68197 0)
(5.6902 -1.70112 0)
(5.37146 1.73071 0)
(5.96353 -1.33586 0)
(5.18576 1.71109 0)
(6.00266 -1.61771 0)
(5.36743 2.00457 0)
(6.25174 -1.35763 0)
(5.1393 1.89527 0)
(6.46631 -1.46333 0)
(5.29302 2.2789 0)
(6.78564 -1.16815 0)
(5.01783 2.2763 0)
(7.0967 -1.23782 0)
(5.09334 2.70574 0)
(7.72243 -0.811096 0)
(4.79656 3.12674 0)
(8.30572 -0.81496 0)
(5.43023 3.7626 0)
(10.0655 -0.267611 0)
(7.0939 4.83814 0)
(12.0159 0.257449 0)
(9.12397 6.16033 0)
(13.4136 1.94343 0)
(9.76564 6.74961 0)
(13.2013 -0.252879 0)
(13.3795 -0.406944 0)
(13.4382 -0.642155 0)
(13.4718 -0.635858 0)
(13.6921 -0.99407 0)
(14.0116 -1.48067 0)
(14.1901 -2.06121 0)
(13.324 -2.44044 0)
(12.3663 -2.18293 0)
(11.947 -2.10398 0)
(10.8505 -1.5363 0)
(10.548 -0.77372 0)
(10.4905 -0.268927 0)
(9.91454 0.434833 0)
(10.2907 0.902665 0)
(10.8692 1.51353 0)
(11.8117 1.79989 0)
(12.5408 1.3714 0)
(13.0764 0.30561 0)
(13.8964 -1.33783 0)
(13.8476 -2.75466 0)
(13.4806 -3.85661 0)
(13.1157 -4.75061 0)
(12.3035 -5.21856 0)
(11.1717 -5.16695 0)
(9.42706 -4.33288 0)
(6.57719 -2.7296 0)
(3.90113 -1.71739 0)
(2.55005 -2.59052 0)
(1.85577 -4.30995 0)
(1.46174 -5.64502 0)
(1.11187 -6.13718 0)
(0.871811 -5.81067 0)
(0.937795 -4.68832 0)
(1.05898 -3.24582 0)
(0.973944 -1.89512 0)
(1.01052 -0.373926 0)
(1.51446 1.37931 0)
(1.94565 2.3014 0)
(2.67882 3.31194 0)
(3.15532 3.83067 0)
(3.7714 5.3865 0)
(4.30733 5.07269 0)
(4.6029 6.02151 0)
(5.59388 4.33791 0)
(5.41673 5.07384 0)
(6.30172 2.43603 0)
(6.37517 3.78222 0)
(6.09968 0.426285 0)
(6.8934 2.6513 0)
(5.50001 -0.617658 0)
(6.87304 1.59998 0)
(5.36115 -0.633674 0)
(6.23137 0.960162 0)
(5.6435 -0.586423 0)
(5.52512 1.005 0)
(5.79208 -1.02327 0)
(5.48124 1.38457 0)
(5.48934 -1.41557 0)
(5.72883 1.34817 0)
(5.3728 -1.24563 0)
(5.55513 1.07927 0)
(5.58557 -1.11862 0)
(5.41425 1.24922 0)
(5.53212 -1.45873 0)
(5.5341 1.53432 0)
(5.42595 -1.50325 0)
(5.41621 1.30997 0)
(5.52244 -1.26808 0)
(5.34891 1.42485 0)
(5.44758 -1.65312 0)
(5.42962 1.76905 0)
(5.47404 -1.60596 0)
(5.26485 1.48705 0)
(5.61402 -1.48752 0)
(5.2869 1.84181 0)
(5.63314 -1.84829 0)
(5.22351 1.79894 0)
(5.9335 -1.51253 0)
(5.15755 1.91123 0)
(5.9419 -1.89845 0)
(5.24033 2.09788 0)
(6.35113 -1.54015 0)
(5.08446 2.10892 0)
(6.45634 -1.84135 0)
(5.23206 2.37819 0)
(6.94611 -1.43371 0)
(5.17158 2.44485 0)
(7.06453 -1.6903 0)
(5.29286 2.71581 0)
(7.55858 -1.19211 0)
(5.52697 3.23659 0)
(7.32883 -1.38206 0)
(6.00666 3.80005 0)
(7.74947 -1.15911 0)
(6.91184 5.12331 0)
(9.17457 -0.476074 0)
(8.03465 6.01521 0)
(12.3651 1.82334 0)
(10.667 6.23187 0)
(13.0754 -0.305679 0)
(13.3021 -0.433626 0)
(13.3801 -0.598585 0)
(13.5374 -0.692755 0)
(13.8822 -1.12497 0)
(14.1289 -1.5486 0)
(13.8525 -1.83319 0)
(13.1067 -2.10431 0)
(12.3957 -1.96647 0)
(12.1605 -1.86542 0)
(11.3476 -1.38904 0)
(10.8613 -0.655392 0)
(10.8667 -0.141681 0)
(10.429 0.403501 0)
(10.3213 0.817057 0)
(10.8043 1.14138 0)
(11.6584 1.2908 0)
(12.1394 1.05975 0)
(12.853 -0.00380829 0)
(13.5029 -1.48155 0)
(13.4687 -2.64181 0)
(13.2459 -3.71636 0)
(12.7476 -4.53525 0)
(11.7786 -4.77061 0)
(10.3046 -4.47083 0)
(8.181 -3.36565 0)
(5.32394 -1.66579 0)
(3.02484 -0.985595 0)
(1.8509 -2.18454 0)
(1.16517 -4.06562 0)
(0.622746 -5.4478 0)
(0.168589 -5.96196 0)
(-0.203781 -5.72109 0)
(-0.27143 -4.72168 0)
(-0.106246 -3.29488 0)
(-0.107588 -1.89664 0)
(-0.101026 -0.448027 0)
(0.371672 1.11241 0)
(0.860778 2.02487 0)
(1.60232 3.06668 0)
(2.0164 3.63927 0)
(2.66798 5.17018 0)
(3.27576 4.78676 0)
(3.68614 5.78075 0)
(4.78623 4.09869 0)
(4.72535 4.8979 0)
(5.74867 2.27321 0)
(5.85741 3.80976 0)
(5.62636 0.329216 0)
(6.62965 2.7267 0)
(5.22307 -0.649954 0)
(6.64248 1.63301 0)
(5.12378 -0.529521 0)
(6.03397 0.933245 0)
(5.43719 -0.428279 0)
(5.46088 0.987948 0)
(5.7059 -0.993928 0)
(5.49817 1.47776 0)
(5.43071 -1.4381 0)
(5.82851 1.41749 0)
(5.17874 -1.19374 0)
(5.69855 1.07901 0)
(5.28862 -1.08606 0)
(5.53444 1.28459 0)
(5.20298 -1.4814 0)
(5.64603 1.56598 0)
(5.11204 -1.50255 0)
(5.50267 1.33262 0)
(5.2806 -1.26576 0)
(5.39335 1.44813 0)
(5.27368 -1.66702 0)
(5.45261 1.81335 0)
(5.35169 -1.66729 0)
(5.2893 1.55983 0)
(5.47797 -1.5584 0)
(5.29978 1.91604 0)
(5.48711 -1.95529 0)
(5.2401 1.91329 0)
(5.6669 -1.63785 0)
(5.17422 2.01363 0)
(5.67689 -2.0247 0)
(5.21755 2.23395 0)
(5.93096 -1.71771 0)
(5.10122 2.24572 0)
(5.96453 -2.03861 0)
(5.19013 2.56164 0)
(6.32373 -1.70391 0)
(5.1118 2.70002 0)
(6.32186 -1.97056 0)
(5.2392 3.03148 0)
(6.87172 -1.57288 0)
(5.57107 3.52361 0)
(6.94546 -1.8367 0)
(6.02009 4.01373 0)
(7.58205 -1.49033 0)
(6.99068 5.03648 0)
(8.40344 -0.632181 0)
(7.68737 5.54172 0)
(9.88383 1.16678 0)
(10.6945 5.56938 0)
(13.2037 -0.344477 0)
(13.2851 -0.424846 0)
(13.3929 -0.578028 0)
(13.7771 -0.814236 0)
(14.0019 -1.20699 0)
(13.7165 -1.43397 0)
(13.2585 -1.57209 0)
(12.9636 -1.86662 0)
(12.6568 -1.81828 0)
(12.3562 -1.6923 0)
(11.6776 -1.22664 0)
(11.1628 -0.495298 0)
(11.1491 -0.0583416 0)
(10.84 0.378184 0)
(10.5273 0.76812 0)
(10.6108 1.07655 0)
(11.1483 1.1965 0)
(11.8829 0.766336 0)
(12.906 -0.272577 0)
(13.1919 -1.47697 0)
(13.0315 -2.59417 0)
(12.8855 -3.6047 0)
(12.108 -4.22852 0)
(10.8194 -4.25564 0)
(9.19797 -3.66696 0)
(6.92552 -2.29793 0)
(4.15633 -0.653634 0)
(2.26509 -0.361802 0)
(1.26742 -1.84066 0)
(0.499908 -3.81535 0)
(-0.218224 -5.22702 0)
(-0.757854 -5.7909 0)
(-1.23807 -5.59142 0)
(-1.42866 -4.69818 0)
(-1.28823 -3.35698 0)
(-1.16221 -1.92803 0)
(-1.09012 -0.523854 0)
(-0.653569 0.892785 0)
(-0.206558 1.79686 0)
(0.480224 2.85617 0)
(0.856632 3.46309 0)
(1.57651 4.90595 0)
(2.27918 4.465 0)
(2.73351 5.47214 0)
(4.01322 3.85392 0)
(4.00686 4.63627 0)
(5.16913 2.09087 0)
(5.31357 3.7571 0)
(5.23675 0.148003 0)
(6.20898 2.84599 0)
(5.06752 -0.728709 0)
(6.26182 1.76536 0)
(5.00586 -0.473995 0)
(5.89771 0.876076 0)
(5.27317 -0.325853 0)
(5.50614 0.856662 0)
(5.53948 -0.969449 0)
(5.48764 1.46093 0)
(5.32068 -1.47947 0)
(5.83252 1.43966 0)
(5.06551 -1.16507 0)
(5.76508 1.04335 0)
(5.26056 -1.06634 0)
(5.50925 1.32849 0)
(5.38074 -1.53525 0)
(5.54676 1.63472 0)
(5.36285 -1.44562 0)
(5.44273 1.32339 0)
(5.46412 -1.238 0)
(5.38023 1.53537 0)
(5.40441 -1.72902 0)
(5.4062 1.86291 0)
(5.4659 -1.59774 0)
(5.27792 1.58996 0)
(5.48188 -1.63569 0)
(5.3218 1.99327 0)
(5.55422 -1.97196 0)
(5.19457 1.91611 0)
(5.69715 -1.73184 0)
(5.19642 2.13187 0)
(5.77461 -2.20994 0)
(5.18998 2.28082 0)
(5.98444 -1.90642 0)
(5.15344 2.42252 0)
(6.07843 -2.33026 0)
(5.1976 2.66388 0)
(6.39992 -1.98626 0)
(5.36124 2.92224 0)
(6.39437 -2.35453 0)
(5.49667 3.08988 0)
(6.72698 -2.02766 0)
(5.9336 3.79545 0)
(6.77667 -2.08725 0)
(6.32864 4.02975 0)
(7.02201 -1.72634 0)
(7.11177 4.85503 0)
(7.59686 -0.578801 0)
(7.83665 5.04911 0)
(8.2323 0.899299 0)
(10.0207 4.77951 0)
(13.2035 -0.339372 0)
(13.2289 -0.418794 0)
(13.418 -0.649593 0)
(13.7695 -0.904299 0)
(13.5849 -1.08698 0)
(13.2183 -1.21059 0)
(13.1886 -1.45768 0)
(13.1917 -1.8086 0)
(12.8247 -1.736 0)
(12.3083 -1.48198 0)
(11.7376 -1.03947 0)
(11.2977 -0.382825 0)
(11.0964 0.0684799 0)
(10.792 0.491505 0)
(10.5457 0.859383 0)
(10.8297 1.02303 0)
(11.5141 0.831011 0)
(12.056 0.31749 0)
(12.5225 -0.463315 0)
(12.5426 -1.4654 0)
(12.5284 -2.52674 0)
(12.2874 -3.3852 0)
(11.1674 -3.75718 0)
(9.57244 -3.57025 0)
(7.80725 -2.80664 0)
(5.63473 -1.29197 0)
(3.2096 0.235209 0)
(1.67358 0.15699 0)
(0.848685 -1.52233 0)
(-0.023916 -3.50325 0)
(-0.840936 -4.94726 0)
(-1.5153 -5.55113 0)
(-2.13364 -5.40577 0)
(-2.48888 -4.60633 0)
(-2.48409 -3.37022 0)
(-2.27169 -1.9793 0)
(-2.09549 -0.629403 0)
(-1.68212 0.663339 0)
(-1.29105 1.57151 0)
(-0.658527 2.62267 0)
(-0.296474 3.24959 0)
(0.471442 4.62092 0)
(1.22738 4.16806 0)
(1.7674 5.08787 0)
(3.3368 3.61781 0)
(3.28553 4.25906 0)
(4.60582 1.94957 0)
(4.76195 3.60504 0)
(4.87648 0.0498833 0)
(5.79009 2.8462 0)
(4.85833 -0.729138 0)
(5.94386 1.77871 0)
(4.86098 -0.389337 0)
(5.81344 0.782548 0)
(5.01482 -0.176065 0)
(5.63309 0.71365 0)
(5.31666 -0.836845 0)
(5.5254 1.38979 0)
(5.32483 -1.42469 0)
(5.79025 1.42755 0)
(5.05905 -1.08956 0)
(5.86474 0.976297 0)
(5.11363 -0.947287 0)
(5.6131 1.24994 0)
(5.20352 -1.43447 0)
(5.59133 1.5951 0)
(5.0487 -1.38532 0)
(5.5916 1.30078 0)
(5.0118 -1.20529 0)
(5.49955 1.47947 0)
(5.04724 -1.61406 0)
(5.46024 1.80336 0)
(5.11131 -1.54433 0)
(5.3685 1.6004 0)
(5.16168 -1.56536 0)
(5.34143 1.9581 0)
(5.29689 -1.85918 0)
(5.24033 1.98016 0)
(5.33542 -1.68787 0)
(5.24892 2.15501 0)
(5.46794 -2.11617 0)
(5.17397 2.37141 0)
(5.55868 -1.93585 0)
(5.20273 2.49007 0)
(5.71947 -2.3558 0)
(5.24119 2.76538 0)
(5.93672 -2.20306 0)
(5.31494 3.09391 0)
(6.09183 -2.49504 0)
(5.5503 3.31705 0)
(6.38057 -2.23933 0)
(6.01755 3.86184 0)
(6.75799 -2.16782 0)
(6.45211 4.02924 0)
(7.0792 -1.71854 0)
(7.25008 4.5481 0)
(7.6995 -0.492221 0)
(8.15845 4.4384 0)
(8.49515 0.986033 0)
(9.5956 3.80681 0)
(13.1764 -0.35242 0)
(13.2087 -0.451889 0)
(13.3753 -0.676666 0)
(13.4728 -0.822669 0)
(13.255 -0.91761 0)
(13.2759 -1.21287 0)
(13.3004 -1.51652 0)
(13.0216 -1.68686 0)
(12.4895 -1.53466 0)
(12.0027 -1.27211 0)
(11.5531 -0.892863 0)
(11.1234 -0.213264 0)
(10.9391 0.209455 0)
(10.8601 0.444966 0)
(10.8088 0.758723 0)
(11.0404 0.880542 0)
(11.313 0.709975 0)
(11.5614 0.269802 0)
(11.9539 -0.500838 0)
(12.1126 -1.48789 0)
(12.0234 -2.48059 0)
(11.2803 -3.09555 0)
(9.72426 -3.16728 0)
(8.04193 -2.82337 0)
(6.39523 -1.94051 0)
(4.38687 -0.370379 0)
(2.38578 0.927186 0)
(1.29825 0.562575 0)
(0.637753 -1.16329 0)
(-0.292751 -3.13999 0)
(-1.28104 -4.62797 0)
(-2.12316 -5.26366 0)
(-2.86013 -5.16178 0)
(-3.40113 -4.47094 0)
(-3.61191 -3.33577 0)
(-3.46786 -2.00827 0)
(-3.25056 -0.715593 0)
(-2.87117 0.493972 0)
(-2.5033 1.42334 0)
(-1.90248 2.4286 0)
(-1.4965 3.06019 0)
(-0.666697 4.31169 0)
(0.295973 3.82605 0)
(0.963026 4.54339 0)
(2.7405 3.40654 0)
(2.42733 3.82331 0)
(4.07916 1.79681 0)
(4.20132 3.36942 0)
(4.51972 -0.0818159 0)
(5.25789 2.77352 0)
(4.74261 -0.765214 0)
(5.46894 1.78664 0)
(4.81709 -0.385574 0)
(5.647 0.712805 0)
(4.80499 -0.112133 0)
(5.77395 0.556756 0)
(5.05542 -0.740132 0)
(5.62402 1.26517 0)
(5.21428 -1.37563 0)
(5.74697 1.38216 0)
(4.90614 -1.03458 0)
(5.9901 0.867276 0)
(4.78731 -0.837667 0)
(5.78082 1.13152 0)
(5.05262 -1.3816 0)
(5.57351 1.56275 0)
(5.13104 -1.31844 0)
(5.61816 1.21913 0)
(5.08506 -1.07427 0)
(5.52006 1.39044 0)
(5.2625 -1.5475 0)
(5.38403 1.76711 0)
(5.32084 -1.46204 0)
(5.39299 1.52688 0)
(5.34248 -1.50739 0)
(5.30138 1.93498 0)
(5.4343 -1.83567 0)
(5.31052 1.9263 0)
(5.43512 -1.66979 0)
(5.26036 2.12476 0)
(5.5885 -2.1022 0)
(5.21557 2.36392 0)
(5.65482 -1.91287 0)
(5.30493 2.50449 0)
(5.8213 -2.35836 0)
(5.27314 2.81539 0)
(5.96088 -2.16385 0)
(5.46668 3.16008 0)
(6.19584 -2.54458 0)
(5.72726 3.23535 0)
(6.35269 -2.28324 0)
(6.15541 3.89045 0)
(6.66172 -2.04455 0)
(6.55514 3.90168 0)
(7.11773 -1.60067 0)
(7.27074 4.10095 0)
(7.87626 -0.302198 0)