/*--------------------------------*- C++ -*----------------------------------*\
| =========                 |                                                 |
| \\      /  F ield         | OpenFOAM: The Open Source CFD Toolbox           |
|  \\    /   O peration     | Version:  2.4.0                                 |
|   \\  /    A nd           | Web:      www.OpenFOAM.org                      |
|    \\/     M anipulation  |                                                 |
\*---------------------------------------------------------------------------*/
FoamFile
{
    version     2.0;
    format      ascii;
    class       volVectorField;
    location    "0.017";
    object      UMean;
}
// * * * * * * * * * * * * * * * * * * * * * * * * * * * * * * * * * * * * * //

dimensions      [0 1 -1 0 0 0 0];

internalField   nonuniform List<vector> 
17600
(
(5.48072 0.292373 0)
(3.47312 0.0615714 0)
(2.79009 2.15521e-05 0)
(2.49975 -0.0033536 0)
(2.40481 -0.00151073 0)
(2.36513 -0.000564262 0)
(2.34592 -0.000119108 0)
(2.34098 -9.30878e-05 0)
(2.34212 0.000115815 0)
(2.34567 -9.60897e-05 0)
(2.3412 0.000217117 0)
(2.34103 -0.000142112 0)
(2.34069 -0.000211842 0)
(2.34779 -0.000328732 0)
(2.35827 -0.000571749 0)
(2.37445 -0.00099989 0)
(2.39596 -0.000887375 0)
(2.4877 -0.000890514 0)
(2.6237 -0.0223146 0)
(2.81965 0.057129 0)
(8.54513 0.807709 0)
(7.35215 0.344211 0)
(6.4502 0.102862 0)
(5.83996 0.038135 0)
(5.55004 0.015792 0)
(5.4092 0.00715692 0)
(5.33879 0.00311875 0)
(5.31482 0.000235067 0)
(5.31296 -0.000274739 0)
(5.32203 -0.00023982 0)
(5.3094 0.000934951 0)
(5.3124 0.000381507 0)
(5.30575 -0.00130613 0)
(5.321 -0.000319236 0)
(5.33835 -0.00453868 0)
(5.36817 -1.71299e-05 0)
(5.39208 -0.0136876 0)
(5.60611 -0.0126992 0)
(5.5421 -0.0405998 0)
(6.70888 -0.350165 0)
(9.65002 0.933145 0)
(9.52389 0.502811 0)
(8.9117 0.195651 0)
(8.2579 0.0962781 0)
(7.85634 0.0497265 0)
(7.63482 0.0245995 0)
(7.51504 0.0111217 0)
(7.46638 0.0023569 0)
(7.45406 -0.00042787 0)
(7.4648 -0.000318217 0)
(7.44432 0.0024169 0)
(7.4506 -0.000152029 0)
(7.43798 -0.00147836 0)
(7.45302 -0.00402894 0)
(7.48124 -0.00696385 0)
(7.49348 -0.00745008 0)
(7.56609 -0.0249477 0)
(7.70631 -0.0256551 0)
(7.82208 -0.107513 0)
(8.57977 -0.476778 0)
(9.90124 0.858782 0)
(10.5415 0.56839 0)
(10.402 0.258344 0)
(9.93101 0.152573 0)
(9.54113 0.0923326 0)
(9.2868 0.0507541 0)
(9.13186 0.0245201 0)
(9.05834 0.0072111 0)
(9.03041 0.000100501 0)
(9.03809 0.000398759 0)
(9.01011 0.0030746 0)
(9.01659 0.00208267 0)
(9.00218 -0.00350699 0)
(9.00672 -0.00152947 0)
(9.0538 -0.0153322 0)
(9.0213 0.000250386 0)
(9.18353 -0.0534064 0)
(9.12558 -0.0142465 0)
(9.58422 -0.226486 0)
(9.60489 -0.361077 0)
(9.84035 0.734347 0)
(10.8143 0.565135 0)
(11.0612 0.273399 0)
(10.8672 0.182248 0)
(10.6095 0.127487 0)
(10.3965 0.0787011 0)
(10.2422 0.0420731 0)
(10.1558 0.0148706 0)
(10.1141 0.00287193 0)
(10.1134 0.000764067 0)
(10.0832 0.00690396 0)
(10.0798 -0.000537542 0)
(10.0776 0.00205593 0)
(10.0515 -0.0123272 0)
(10.1351 -0.00245121 0)
(10.0469 -0.0293939 0)
(10.2498 -0.0141712 0)
(10.1687 -0.10988 0)
(10.4914 -0.117381 0)
(10.6439 -0.640743 0)
(9.77457 0.633333 0)
(10.7647 0.538794 0)
(11.1835 0.256637 0)
(11.1934 0.17986 0)
(11.0984 0.140949 0)
(10.9891 0.0981567 0)
(10.8879 0.0575877 0)
(10.8156 0.0248533 0)
(10.7729 0.0058478 0)
(10.7658 0.00445497 0)
(10.7331 0.00704832 0)
(10.7276 0.00451987 0)
(10.7185 -0.00427926 0)
(10.6995 -0.00225683 0)
(10.7536 -0.0253004 0)
(10.7048 0.000595988 0)
(10.8303 -0.0869956 0)
(10.8271 -0.0205942 0)
(11.0059 -0.304118 0)
(11.1407 -0.473116 0)
(9.75788 0.552623 0)
(10.6637 0.510747 0)
(11.1159 0.236228 0)
(11.2039 0.161549 0)
(11.1986 0.136344 0)
(11.1684 0.10213 0)
(11.1483 0.066668 0)
(11.1054 0.0294439 0)
(11.0956 0.011904 0)
(11.0718 0.00357682 0)
(11.0668 0.0147993 0)
(11.0338 -0.00164437 0)
(11.0513 0.0104967 0)
(11.0031 -0.0197455 0)
(11.0718 0.00529364 0)
(11.0074 -0.0438323 0)
(11.1317 -0.0257223 0)
(11.1075 -0.131836 0)
(11.2831 -0.226137 0)
(11.3102 -0.581758 0)
(9.76087 0.480281 0)
(10.5798 0.481171 0)
(11.0321 0.220266 0)
(11.139 0.145177 0)
(11.1683 0.123749 0)
(11.1516 0.100732 0)
(11.1826 0.0654083 0)
(11.1608 0.0332917 0)
(11.1841 0.0106075 0)
(11.1624 0.00835728 0)
(11.1646 0.0123306 0)
(11.1474 0.00645211 0)
(11.1414 -0.000409885 0)
(11.1309 -0.00387518 0)
(11.1422 -0.0202473 0)
(11.1431 -0.0133316 0)
(11.1832 -0.074288 0)
(11.2283 -0.100846 0)
(11.3132 -0.270189 0)
(11.3505 -0.653338 0)
(9.76387 0.41612 0)
(10.5153 0.444554 0)
(10.9568 0.210256 0)
(11.0845 0.126542 0)
(11.1154 0.115444 0)
(11.1129 0.091594 0)
(11.138 0.0668893 0)
(11.1432 0.0286874 0)
(11.166 0.0147987 0)
(11.1619 0.00456522 0)
(11.1612 0.0187214 0)
(11.1571 -0.000568548 0)
(11.1419 0.0121866 0)
(11.1499 -0.0168395 0)
(11.1444 -0.00508951 0)
(11.1594 -0.0336474 0)
(11.1864 -0.0613931 0)
(11.2308 -0.119064 0)
(11.2901 -0.310021 0)
(11.308 -0.594321 0)
(9.76672 0.357457 0)
(10.4572 0.407895 0)
(10.8956 0.197439 0)
(11.033 0.114558 0)
(11.077 0.0999559 0)
(11.0683 0.0897722 0)
(11.1026 0.0598967 0)
(11.1037 0.0305 0)
(11.1414 0.0123825 0)
(11.1337 0.00680255 0)
(11.1466 0.0171005 0)
(11.1302 0.00307703 0)
(11.1373 0.0086581 0)
(11.1281 -0.0113435 0)
(11.1424 -0.00750457 0)
(11.1462 -0.0365146 0)
(11.184 -0.0628918 0)
(11.2051 -0.160266 0)
(11.2673 -0.287666 0)
(11.243 -0.667567 0)
(9.76851 0.305949 0)
(10.4071 0.367711 0)
(10.839 0.188421 0)
(10.9908 0.0971811 0)
(11.0403 0.092554 0)
(11.0336 0.0784649 0)
(11.0687 0.0606947 0)
(11.0717 0.0261258 0)
(11.1165 0.0139306 0)
(11.1105 0.00533756 0)
(11.1254 0.0184109 0)
(11.1153 -0.000225976 0)
(11.1181 0.0110322 0)
(11.1188 -0.0129928 0)
(11.1321 -0.0116028 0)
(11.137 -0.0306397 0)
(11.1707 -0.0785916 0)
(11.1914 -0.143591 0)
(11.2331 -0.323325 0)
(11.1865 -0.657019 0)
(9.77003 0.259066 0)
(10.3636 0.329476 0)
(10.7886 0.174259 0)
(10.9528 0.0862483 0)
(11.0082 0.0781968 0)
(11.0045 0.0743936 0)
(11.0372 0.0541262 0)
(11.047 0.0250698 0)
(11.0916 0.0141058 0)
(11.0925 0.00327581 0)
(11.1079 0.0193717 0)
(11.1 -0.000632139 0)
(11.1037 0.0122624 0)
(11.1099 -0.0163112 0)
(11.1213 -0.00592153 0)
(11.1295 -0.0473664 0)
(11.1602 -0.0734343 0)
(11.1754 -0.171915 0)
(11.2002 -0.328525 0)
(11.1306 -0.649139 0)
(9.77104 0.217875 0)
(10.3267 0.289287 0)
(10.7438 0.16094 0)
(10.9191 0.0719842 0)
(10.9806 0.0699469 0)
(10.9784 0.0639408 0)
(11.0112 0.0512998 0)
(11.0232 0.0220585 0)
(11.0719 0.0127125 0)
(11.0759 0.00381762 0)
(11.0933 0.0181205 0)
(11.0852 -0.00212063 0)
(11.095 0.0107846 0)
(11.0973 -0.0135991 0)
(11.1156 -0.0128125 0)
(11.1201 -0.0400845 0)
(11.1502 -0.0832569 0)
(11.1557 -0.178239 0)
(11.1713 -0.331584 0)
(11.076 -0.648706 0)
(9.77175 0.180372 0)
(10.2959 0.250549 0)
(10.7049 0.142938 0)
(10.8895 0.0622795 0)
(10.9567 0.0581665 0)
(10.9567 0.0571105 0)
(10.9877 0.0452452 0)
(11.0041 0.0189179 0)
(11.0535 0.013587 0)
(11.0625 0.000592626 0)
(11.0793 0.018328 0)
(11.0751 -0.00355447 0)
(11.0826 0.0111495 0)
(11.0912 -0.0176902 0)
(11.1073 -0.0113794 0)
(11.113 -0.0484356 0)
(11.1381 -0.0885345 0)
(11.1414 -0.182911 0)
(11.1386 -0.336565 0)
(11.0314 -0.643386 0)
(9.77215 0.146831 0)
(10.2706 0.211126 0)
(10.6717 0.124316 0)
(10.8642 0.0511834 0)
(10.9366 0.0495543 0)
(10.9384 0.0475217 0)
(10.9682 0.0399682 0)
(10.9872 0.0162403 0)
(11.0386 0.0112255 0)
(11.0509 0.0010227 0)
(11.0681 0.0163205 0)
(11.0655 -0.0047023 0)
(11.0742 0.00990359 0)
(11.0838 -0.01638 0)
(11.1005 -0.0149608 0)
(11.1053 -0.0501497 0)
(11.1281 -0.0916417 0)
(11.1241 -0.189314 0)
(11.1095 -0.340093 0)
(10.9881 -0.629877 0)
(9.77237 0.116078 0)
(10.2503 0.172433 0)
(10.6441 0.103266 0)
(10.8433 0.0419887 0)
(10.92 0.0397252 0)
(10.9237 0.0390716 0)
(10.9518 0.0338147 0)
(10.9739 0.0122793 0)
(11.0257 0.01153 0)
(11.0417 -0.00179869 0)
(11.0586 0.0153749 0)
(11.0575 -0.00610564 0)
(11.067 0.00729444 0)
(11.0776 -0.0177602 0)
(11.0949 -0.017368 0)
(11.0983 -0.052231 0)
(11.1174 -0.0955665 0)
(11.1079 -0.193875 0)
(11.0822 -0.340929 0)
(10.9483 -0.615497 0)
(9.77247 0.0878888 0)
(10.2345 0.133618 0)
(10.6222 0.0816855 0)
(10.8266 0.0321712 0)
(10.9069 0.0310735 0)
(10.9122 0.0298795 0)
(10.9389 0.0271577 0)
(10.9633 0.00928542 0)
(11.0155 0.00920152 0)
(11.0346 -0.00217883 0)
(11.0508 0.0129833 0)
(11.0517 -0.00727372 0)
(11.0607 0.00664004 0)
(11.0726 -0.0182582 0)
(11.0894 -0.0199162 0)
(11.0919 -0.0547388 0)
(11.1069 -0.0989713 0)
(11.0925 -0.196839 0)
(11.0559 -0.338952 0)
(10.9093 -0.598122 0)
(9.77249 0.0614992 0)
(10.223 0.0951709 0)
(10.6059 0.059042 0)
(10.8141 0.0227761 0)
(10.8971 0.0223409 0)
(10.9038 0.0207681 0)
(10.9291 0.0205253 0)
(10.9555 0.0052677 0)
(11.0078 0.00843475 0)
(11.0293 -0.00390713 0)
(11.0451 0.0107578 0)
(11.0469 -0.00806152 0)
(11.0561 0.00311598 0)
(11.0684 -0.0185871 0)
(11.0848 -0.0229278 0)
(11.0856 -0.056697 0)
(11.0971 -0.101731 0)
(11.0774 -0.197944 0)
(11.0302 -0.33487 0)
(10.8718 -0.579202 0)
(9.77247 0.0364725 0)
(10.2155 0.0568083 0)
(10.595 0.0359509 0)
(10.8059 0.0132063 0)
(10.8905 0.01391 0)
(10.8984 0.0116509 0)
(10.9224 0.0133358 0)
(10.9505 0.00177959 0)
(11.0024 0.00654492 0)
(11.0259 -0.00519092 0)
(11.041 0.0084559 0)
(11.0438 -0.00952014 0)
(11.0528 0.00113115 0)
(11.0651 -0.0189956 0)
(11.0808 -0.0254449 0)
(11.08 -0.058518 0)
(11.0875 -0.103249 0)
(11.0626 -0.197819 0)
(11.0062 -0.329779 0)
(10.842 -0.560964 0)
(9.77244 0.0122246 0)
(10.2118 0.0185794 0)
(10.5895 0.0124855 0)
(10.8019 0.00365596 0)
(10.887 0.00560087 0)
(10.8959 0.00244303 0)
(10.9189 0.00618824 0)
(10.9483 -0.00198137 0)
(10.9995 0.00484137 0)
(11.0245 -0.00624789 0)
(11.0387 0.00557473 0)
(11.0421 -0.010186 0)
(11.0507 -0.00165063 0)
(11.0628 -0.0193915 0)
(11.0773 -0.0279569 0)
(11.075 -0.0600271 0)
(11.0783 -0.104264 0)
(11.0487 -0.196887 0)
(10.9845 -0.323646 0)
(10.8113 -0.539656 0)
(9.77239 -0.0117558 0)
(10.2119 -0.0196198 0)
(10.5893 -0.0110877 0)
(10.8021 -0.00590257 0)
(10.8867 -0.0027021 0)
(10.8963 -0.00670258 0)
(10.9184 -0.00110935 0)
(10.9488 -0.00566314 0)
(10.999 0.00308749 0)
(11.0248 -0.00744761 0)
(11.0382 0.00284119 0)
(11.0419 -0.0110931 0)
(11.0499 -0.00441082 0)
(11.0614 -0.0195868 0)
(11.0746 -0.0304322 0)
(11.0705 -0.06095 0)
(11.0696 -0.104986 0)
(11.0355 -0.194734 0)
(10.9632 -0.315683 0)
(10.7809 -0.51571 0)
(9.77233 -0.0360061 0)
(10.2158 -0.057843 0)
(10.5945 -0.0345594 0)
(10.8066 -0.015437 0)
(10.8895 -0.0110588 0)
(10.8995 -0.015824 0)
(10.921 -0.00838887 0)
(10.952 -0.00926619 0)
(11.0008 0.00121982 0)
(11.0269 -0.00848835 0)
(11.0395 1.6222e-05 0)
(11.0431 -0.011905 0)
(11.0504 -0.00703184 0)
(11.0609 -0.0198858 0)
(11.0725 -0.0323713 0)
(11.0665 -0.0617891 0)
(11.0615 -0.104878 0)
(11.0229 -0.1915 0)
(10.9433 -0.306135 0)
(10.7573 -0.493668 0)
(9.77226 -0.0610556 0)
(10.2235 -0.0961577 0)
(10.6051 -0.0577157 0)
(10.8152 -0.0249175 0)
(10.8955 -0.019571 0)
(10.9058 -0.0248827 0)
(10.9266 -0.0155782 0)
(10.9579 -0.0127797 0)
(11.005 -0.000631459 0)
(11.0309 -0.00944869 0)
(11.0425 -0.0027921 0)
(11.0458 -0.0125956 0)
(11.0522 -0.0096498 0)
(11.0614 -0.0199299 0)
(11.071 -0.0342546 0)
(11.0631 -0.0621361 0)
(11.054 -0.104163 0)
(11.011 -0.18735 0)
(10.9254 -0.296033 0)
(10.7334 -0.4693 0)
(9.77214 -0.0874408 0)
(10.2352 -0.13462 0)
(10.6212 -0.0803253 0)
(10.8281 -0.0343519 0)
(10.9047 -0.0283189 0)
(10.915 -0.0338469 0)
(10.9354 -0.0226073 0)
(10.9666 -0.0161357 0)
(11.0117 -0.00245228 0)
(11.0368 -0.0103241 0)
(11.0474 -0.00549267 0)
(11.05 -0.0132428 0)
(11.0554 -0.0120395 0)
(11.0629 -0.0198984 0)
(11.0703 -0.0358862 0)
(11.0604 -0.0619014 0)
(11.047 -0.103085 0)
(11 -0.182217 0)
(10.9084 -0.284458 0)
(10.711 -0.443614 0)
(9.77195 -0.115703 0)
(10.2512 -0.173272 0)
(10.6427 -0.102158 0)
(10.8453 -0.0437954 0)
(10.9171 -0.0373765 0)
(10.9273 -0.0426816 0)
(10.9474 -0.0293905 0)
(10.9782 -0.0193058 0)
(11.0208 -0.0042013 0)
(11.0447 -0.0110913 0)
(11.0541 -0.00804835 0)
(11.0558 -0.0137776 0)
(11.0598 -0.0142182 0)
(11.0654 -0.0197353 0)
(11.0703 -0.0371385 0)
(11.0583 -0.0612809 0)
(11.0407 -0.101472 0)
(10.9898 -0.176118 0)
(10.8928 -0.272378 0)
(10.6925 -0.418704 0)
(9.77163 -0.146402 0)
(10.2717 -0.212108 0)
(10.6699 -0.12294 0)
(10.8667 -0.0533932 0)
(10.933 -0.0468013 0)
(10.9429 -0.0513308 0)
(10.9627 -0.0358444 0)
(10.9926 -0.0222517 0)
(11.0325 -0.00584583 0)
(11.0545 -0.0117498 0)
(11.0627 -0.0103789 0)
(11.0632 -0.0142058 0)
(11.0657 -0.0161329 0)
(11.0691 -0.0193568 0)
(11.0712 -0.0381343 0)
(11.0569 -0.0601109 0)
(11.0351 -0.0994005 0)
(10.9805 -0.169249 0)
(10.8787 -0.259339 0)
(10.6747 -0.391507 0)
(9.77112 -0.180126 0)
(10.2973 -0.2511 0)
(10.7028 -0.142259 0)
(10.8925 -0.0634324 0)
(10.9524 -0.0566526 0)
(10.962 -0.0597196 0)
(10.9814 -0.041882 0)
(11.0101 -0.0249221 0)
(11.0467 -0.00735028 0)
(11.0665 -0.0122795 0)
(11.0732 -0.01243 0)
(11.0723 -0.0145237 0)
(11.073 -0.0177 0)
(11.0738 -0.0187894 0)
(11.0729 -0.0388092 0)
(11.0562 -0.0583261 0)
(11.0302 -0.0969797 0)
(10.972 -0.161516 0)
(10.8657 -0.245755 0)
(10.6591 -0.365479 0)
(9.77033 -0.217455 0)
(10.3283 -0.290285 0)
(10.7415 -0.159471 0)
(10.9226 -0.0743405 0)
(10.9756 -0.0670222 0)
(10.9847 -0.0677854 0)
(11.0036 -0.0474423 0)
(11.0306 -0.027284 0)
(11.0637 -0.00864816 0)
(11.0806 -0.0126399 0)
(11.0858 -0.0141348 0)
(11.0831 -0.0147017 0)
(11.0819 -0.0188776 0)
(11.0797 -0.0179918 0)
(11.0755 -0.0391008 0)
(11.0563 -0.0559771 0)
(11.0261 -0.0941776 0)
(10.9644 -0.153042 0)
(10.8543 -0.23166 0)
(10.6459 -0.337482 0)
(9.76919 -0.259015 0)
(10.3654 -0.329598 0)
(10.7859 -0.174213 0)
(10.9568 -0.0864625 0)
(11.0027 -0.0779492 0)
(11.0111 -0.0754606 0)
(11.0293 -0.0524475 0)
(11.0543 -0.0293598 0)
(11.0834 -0.0097397 0)
(11.0971 -0.0128227 0)
(11.1005 -0.0154371 0)
(11.0958 -0.0147206 0)
(11.0924 -0.0196169 0)
(11.0869 -0.0169441 0)
(11.0792 -0.0389804 0)
(11.0571 -0.0530358 0)
(11.0227 -0.0910279 0)
(10.9578 -0.143728 0)
(10.844 -0.217428 0)
(10.6341 -0.310109 0)
(9.76767 -0.305531 0)
(10.409 -0.36875 0)
(10.8361 -0.186824 0)
(10.9952 -0.0997114 0)
(11.034 -0.0893408 0)
(11.0416 -0.0826057 0)
(11.0589 -0.0567287 0)
(11.0813 -0.0310443 0)
(11.1061 -0.0106033 0)
(11.1161 -0.0128212 0)
(11.1176 -0.0163031 0)
(11.1106 -0.0145635 0)
(11.1046 -0.0198307 0)
(11.0955 -0.0156575 0)
(11.0839 -0.0383848 0)
(11.0588 -0.0494769 0)
(11.0202 -0.0875778 0)
(10.9521 -0.13362 0)
(10.8351 -0.203213 0)
(10.6249 -0.281709 0)
(9.76576 -0.357631 0)
(10.4593 -0.407531 0)
(10.8921 -0.198067 0)
(11.0381 -0.113764 0)
(11.07 -0.101008 0)
(11.0767 -0.0891952 0)
(11.0929 -0.0603032 0)
(11.1123 -0.0322827 0)
(11.1323 -0.0110789 0)
(11.1382 -0.0125685 0)
(11.1373 -0.0166513 0)
(11.1278 -0.0142574 0)
(11.119 -0.0194422 0)
(11.1056 -0.0141318 0)
(11.0901 -0.0372129 0)
(11.0614 -0.0453765 0)
(11.0186 -0.0836974 0)
(10.9472 -0.122817 0)
(10.8273 -0.188855 0)
(10.6175 -0.25508 0)
(9.7633 -0.415767 0)
(10.5165 -0.445443 0)
(10.955 -0.208952 0)
(11.0871 -0.128625 0)
(11.1117 -0.11275 0)
(11.1172 -0.0952329 0)
(11.1326 -0.0634626 0)
(11.1474 -0.0334123 0)
(11.1608 -0.0113566 0)
(11.1621 -0.0120347 0)
(11.1577 -0.0164192 0)
(11.1455 -0.0136634 0)
(11.1329 -0.0184898 0)
(11.1152 -0.0122843 0)
(11.0959 -0.0354301 0)
(11.0627 -0.040681 0)
(11.0167 -0.0793595 0)
(10.9408 -0.111133 0)
(10.8189 -0.174792 0)
(10.6093 -0.228421 0)
(9.75986 -0.480522 0)
(10.5821 -0.480738 0)
(11.0282 -0.220793 0)
(11.145 -0.144579 0)
(11.16 -0.124444 0)
(11.1619 -0.100444 0)
(11.1705 -0.0659099 0)
(11.172 -0.0341348 0)
(11.1723 -0.0113467 0)
(11.1675 -0.0112231 0)
(11.1556 -0.0154184 0)
(11.1409 -0.0126871 0)
(11.1226 -0.0166913 0)
(11.1022 -0.0103493 0)
(11.0817 -0.0327289 0)
(11.042 -0.0355437 0)
(10.9975 -0.0744446 0)
(10.9118 -0.0978334 0)
(10.7915 -0.161942 0)
(10.5738 -0.198394 0)
(9.75788 -0.552506 0)
(10.6638 -0.511035 0)
(11.115 -0.235901 0)
(11.2052 -0.16217 0)
(11.1962 -0.135577 0)
(11.1714 -0.103422 0)
(11.1434 -0.0654592 0)
(11.1101 -0.0323205 0)
(11.088 -0.00987423 0)
(11.0755 -0.00939331 0)
(11.0518 -0.013303 0)
(11.037 -0.011029 0)
(11.0118 -0.0140496 0)
(10.9931 -0.00852483 0)
(10.9741 -0.02919 0)
(10.9256 -0.0304203 0)
(10.8896 -0.0683104 0)
(10.7818 -0.0837289 0)
(10.671 -0.147762 0)
(10.4232 -0.167014 0)
(9.77443 -0.633456 0)
(10.7648 -0.538646 0)
(11.1833 -0.256785 0)
(11.1934 -0.179805 0)
(11.0984 -0.140992 0)
(10.9883 -0.0983982 0)
(10.8883 -0.0577265 0)
(10.8128 -0.0256951 0)
(10.7738 -0.00635342 0)
(10.7586 -0.00649268 0)
(10.7286 -0.0103944 0)
(10.717 -0.0089314 0)
(10.6865 -0.0110539 0)
(10.6736 -0.00716316 0)
(10.6533 -0.0248731 0)
(10.5972 -0.0256377 0)
(10.5689 -0.0602063 0)
(10.429 -0.0692018 0)
(10.3345 -0.12993 0)
(10.0313 -0.136513 0)
(9.84026 -0.73434 0)
(10.8144 -0.565171 0)
(11.061 -0.273388 0)
(10.8672 -0.182355 0)
(10.6095 -0.127335 0)
(10.3954 -0.0791736 0)
(10.243 -0.0417987 0)
(10.1519 -0.0160943 0)
(10.1155 -0.00249309 0)
(10.1052 -0.00375559 0)
(10.077 -0.00763454 0)
(10.0685 -0.00680433 0)
(10.036 -0.00823901 0)
(10.0287 -0.00598907 0)
(10.0035 -0.0198146 0)
(9.9448 -0.0209333 0)
(9.91616 -0.0496492 0)
(9.74706 -0.0539246 0)
(9.67151 -0.108813 0)
(9.30042 -0.102356 0)
(9.90122 -0.858825 0)
(10.5415 -0.568373 0)
(10.4018 -0.258362 0)
(9.93088 -0.152625 0)
(9.54115 -0.0922373 0)
(9.28572 -0.0510721 0)
(9.13245 -0.0243941 0)
(9.05436 -0.0079756 0)
(9.03161 -0.000185711 0)
(9.02837 -0.00198211 0)
(9.00527 -0.00533159 0)
(8.99782 -0.00473206 0)
(8.9669 -0.00569995 0)
(8.96269 -0.00464351 0)
(8.93268 -0.014343 0)
(8.87652 -0.0159938 0)
(8.84042 -0.0369325 0)
(8.65796 -0.038401 0)
(8.60005 -0.084406 0)
(8.16567 -0.0636776 0)
(9.65001 -0.933161 0)
(9.52382 -0.502803 0)
(8.91161 -0.195664 0)
(8.25768 -0.0963152 0)
(7.85635 -0.0496301 0)
(7.63392 -0.0248482 0)
(7.51528 -0.0109969 0)
(7.46302 -0.00296988 0)
(7.45424 0.000500013 0)
(7.45596 -0.000971978 0)
(7.43836 -0.00332854 0)
(7.43063 -0.00278206 0)
(7.4045 -0.0034851 0)
(7.40098 -0.00306382 0)
(7.36961 -0.00894805 0)
(7.32067 -0.0106987 0)
(7.27532 -0.0231257 0)
(7.10592 -0.0240954 0)
(7.0573 -0.0561489 0)
(6.5917 -0.0285968 0)
(8.54511 -0.807718 0)
(7.35205 -0.344205 0)
(6.45018 -0.102873 0)
(5.83967 -0.0381493 0)
(5.55016 -0.0157219 0)
(5.40857 -0.00731238 0)
(5.33877 -0.00303008 0)
(5.31232 -0.000585225 0)
(5.31227 0.000351721 0)
(5.31527 -0.00039858 0)
(5.30298 -0.00160669 0)
(5.29545 -0.00118647 0)
(5.27681 -0.0016595 0)
(5.27272 -0.00148779 0)
(5.24618 -0.00422891 0)
(5.20827 -0.00542058 0)
(5.16158 -0.0106134 0)
(5.03339 -0.0119098 0)
(4.98263 -0.0270459 0)
(4.57092 -0.00653452 0)
(5.4807 -0.292375 0)
(3.47306 -0.0615689 0)
(2.79012 -2.56042e-05 0)
(2.49944 0.0033555 0)
(2.40514 0.00154104 0)
(2.36491 0.000511339 0)
(2.34583 0.000166666 0)
(2.33976 -8.39345e-06 0)
(2.34126 -3.80968e-05 0)
(2.34245 -3.83306e-05 0)
(2.33671 -0.000234348 0)
(2.33204 -3.71887e-05 0)
(2.32382 -0.000234811 0)
(2.32024 -7.50373e-05 0)
(2.30674 -0.000487445 0)
(2.28684 -0.000581504 0)
(2.25792 -0.00100434 0)
(2.19843 -0.00140049 0)
(2.1539 -0.00272966 0)
(1.94855 0.0155075 0)
(4.59131 -1.52866 0)
(5.57255 -1.29753 0)
(6.43657 -1.37448 0)
(7.25838 -1.65894 0)
(7.71789 -1.92274 0)
(8.09162 -2.19007 0)
(8.44875 -2.50762 0)
(8.61252 -2.75592 0)
(8.62479 -2.97818 0)
(8.4987 -3.22502 0)
(8.25344 -3.45267 0)
(8.07364 -3.66938 0)
(7.90331 -3.81861 0)
(7.65629 -3.83496 0)
(7.34462 -3.75121 0)
(7.03787 -3.6319 0)
(6.76698 -3.48901 0)
(6.50824 -3.29889 0)
(6.26953 -3.06941 0)
(6.07042 -2.8247 0)
(5.90803 -2.58135 0)
(5.77619 -2.3479 0)
(5.66055 -2.12589 0)
(5.56136 -1.92184 0)
(5.48721 -1.7384 0)
(5.43106 -1.57239 0)
(5.38436 -1.42278 0)
(5.34495 -1.28867 0)
(5.31169 -1.16795 0)
(5.28343 -1.05874 0)
(5.25959 -0.95945 0)
(5.23959 -0.868845 0)
(5.22272 -0.786167 0)
(5.20836 -0.710955 0)
(5.19609 -0.642777 0)
(5.18557 -0.58113 0)
(5.17657 -0.525456 0)
(5.16888 -0.475186 0)
(5.16232 -0.429781 0)
(5.15673 -0.388748 0)
(5.15199 -0.351649 0)
(5.14795 -0.3181 0)
(5.14453 -0.287755 0)
(5.14161 -0.260307 0)
(5.13914 -0.235477 0)
(5.13702 -0.213016 0)
(5.13523 -0.192698 0)
(5.13369 -0.174317 0)
(5.13238 -0.157688 0)
(5.13126 -0.142645 0)
(5.1303 -0.129036 0)
(5.12948 -0.116725 0)
(5.12877 -0.105586 0)
(5.12817 -0.0955103 0)
(5.12765 -0.0863947 0)
(5.1272 -0.0781481 0)
(5.12681 -0.0706876 0)
(5.12648 -0.0639385 0)
(5.12619 -0.057833 0)
(5.12594 -0.0523096 0)
(5.12572 -0.0473127 0)
(5.12554 -0.0427925 0)
(5.12537 -0.0387032 0)
(5.12523 -0.0350039 0)
(5.12511 -0.0316571 0)
(5.125 -0.0286295 0)
(5.1249 -0.0258905 0)
(5.12482 -0.0234126 0)
(5.12475 -0.0211707 0)
(5.12468 -0.0191425 0)
(5.12462 -0.0173076 0)
(5.12458 -0.0156473 0)
(5.12453 -0.0141447 0)
(5.12449 -0.0127852 0)
(5.12446 -0.0115548 0)
(5.12443 -0.010441 0)
(5.1244 -0.00943269 0)
(5.12438 -0.00851978 0)
(5.12436 -0.00769309 0)
(5.12434 -0.00694411 0)
(5.12432 -0.00626528 0)
(5.12431 -0.00564997 0)
(5.12429 -0.00509195 0)
(5.12428 -0.0045854 0)
(5.12427 -0.0041252 0)
(5.12426 -0.00370691 0)
(5.12425 -0.00332633 0)
(5.12425 -0.00297951 0)
(5.12424 -0.00266293 0)
(5.12423 -0.00237366 0)
(5.12423 -0.00210874 0)
(5.12422 -0.00186537 0)
(5.12422 -0.00164107 0)
(5.12421 -0.00143379 0)
(5.12421 -0.00124142 0)
(5.12421 -0.0010619 0)
(5.12421 -0.000893403 0)
(5.12421 -0.000734493 0)
(5.1242 -0.000583532 0)
(5.1242 -0.000438925 0)
(5.1242 -0.000299221 0)
(5.1242 -0.000163304 0)
(5.1242 -2.98134e-05 0)
(5.1242 0.000102669 0)
(5.1242 0.000235469 0)
(5.1242 0.000369627 0)
(5.1242 0.000506442 0)
(5.1242 0.000647311 0)
(5.1242 0.000793618 0)
(5.1242 0.000946497 0)
(5.12421 0.00110742 0)
(5.12421 0.00127798 0)
(5.12421 0.00145981 0)
(5.12421 0.00165435 0)
(5.12422 0.00186344 0)
(5.12422 0.00208914 0)
(5.12423 0.00233354 0)
(5.12423 0.00259864 0)
(5.12424 0.00288687 0)
(5.12424 0.00320094 0)
(5.12425 0.00354372 0)
(5.12425 0.00391806 0)
(5.12426 0.00432741 0)
(5.12427 0.00477558 0)
(5.12428 0.00526666 0)
(5.12429 0.0058049 0)
(5.1243 0.00639519 0)
(5.12432 0.00704298 0)
(5.12433 0.00775413 0)
(5.12435 0.00853488 0)
(5.12437 0.00939228 0)
(5.12439 0.0103342 0)
(5.12441 0.0113691 0)
(5.12443 0.0125062 0)
(5.12446 0.0137557 0)
(5.12449 0.0151291 0)
(5.12452 0.0166388 0)
(5.12456 0.0182982 0)
(5.1246 0.0201223 0)
(5.12465 0.0221279 0)
(5.1247 0.024333 0)
(5.12476 0.0267577 0)
(5.12482 0.0294239 0)
(5.12489 0.0323561 0)
(5.12497 0.0355811 0)
(5.12506 0.0391285 0)
(5.12516 0.0430306 0)
(5.12527 0.0473242 0)
(5.12539 0.0520487 0)
(5.12552 0.057249 0)
(5.12568 0.0629725 0)
(5.12585 0.0692776 0)
(5.12604 0.0762176 0)
(5.12624 0.083874 0)
(5.12647 0.0922962 0)
(5.1267 0.101617 0)
(5.12697 0.111846 0)
(5.12719 0.123237 0)
(5.12748 0.135658 0)
(5.12763 0.149645 0)
(5.12783 0.164713 0)
(5.12776 0.181931 0)
(5.12764 0.200152 0)
(5.12709 0.221234 0)
(5.12626 0.243107 0)
(5.12499 0.2685 0)
(5.1229 0.294363 0)
(5.12155 0.324432 0)
(5.11619 0.354297 0)
(5.11967 0.389887 0)
(5.1024 0.423877 0)
(5.12701 0.466455 0)
(5.07488 0.505653 0)
(5.15117 0.557963 0)
(5.03257 0.601401 0)
(5.18572 0.671636 0)
(4.99204 0.713399 0)
(5.20809 0.8098 0)
(4.97673 0.855685 0)
(5.19818 0.964634 0)
(5.00246 1.04403 0)
(5.14847 1.14574 0)
(5.05732 1.27206 0)
(5.08883 1.37947 0)
(5.10561 1.54065 0)
(5.04681 1.67757 0)
(5.13225 1.87203 0)
(5.03852 2.05574 0)
(5.11758 2.27626 0)
(5.0602 2.54246 0)
(5.08588 2.79406 0)
(5.07479 3.15131 0)
(5.07271 3.49711 0)
(5.06962 3.92693 0)
(5.03878 4.48342 0)
(5.07867 5.02139 0)
(4.94672 5.85958 0)
(4.81365 6.99933 0)
(5.41443 8.04666 0)
(3.10562 11.5841 0)
(6.7648 -1.63474 0)
(7.04533 -1.54834 0)
(7.43818 -1.68384 0)
(7.84775 -1.89747 0)
(8.09223 -2.10689 0)
(8.43028 -2.37201 0)
(8.70924 -2.63072 0)
(8.7659 -2.79973 0)
(8.69161 -2.96 0)
(8.51212 -3.15894 0)
(8.38265 -3.39314 0)
(8.31293 -3.60657 0)
(8.13897 -3.71255 0)
(7.83329 -3.70244 0)
(7.48383 -3.62742 0)
(7.17642 -3.52278 0)
(6.90486 -3.38311 0)
(6.63793 -3.19404 0)
(6.39521 -2.9756 0)
(6.19182 -2.74765 0)
(6.0166 -2.51596 0)
(5.86881 -2.29042 0)
(5.74223 -2.07735 0)
(5.63439 -1.88287 0)
(5.55288 -1.70847 0)
(5.49227 -1.54933 0)
(5.4423 -1.404 0)
(5.3992 -1.27269 0)
(5.36175 -1.15412 0)
(5.32899 -1.04677 0)
(5.30065 -0.949242 0)
(5.27648 -0.860218 0)
(5.25592 -0.778844 0)
(5.2383 -0.704686 0)
(5.22311 -0.637384 0)
(5.20996 -0.576488 0)
(5.19859 -0.521465 0)
(5.18877 -0.47176 0)
(5.18029 -0.426841 0)
(5.17298 -0.386228 0)
(5.16668 -0.349491 0)
(5.16124 -0.31625 0)
(5.15654 -0.286169 0)
(5.15248 -0.258945 0)
(5.14897 -0.234307 0)
(5.14592 -0.212009 0)
(5.14327 -0.191829 0)
(5.14097 -0.173567 0)
(5.13896 -0.157041 0)
(5.13722 -0.142085 0)
(5.13569 -0.12855 0)
(5.13435 -0.116303 0)
(5.13318 -0.10522 0)
(5.13216 -0.0951914 0)
(5.13126 -0.0861163 0)
(5.13047 -0.0779049 0)
(5.12977 -0.0704749 0)
(5.12915 -0.0637518 0)
(5.12861 -0.0576687 0)
(5.12813 -0.052165 0)
(5.12771 -0.0471854 0)
(5.12733 -0.04268 0)
(5.12699 -0.0386036 0)
(5.1267 -0.0349159 0)
(5.12643 -0.0315795 0)
(5.1262 -0.0285607 0)
(5.12599 -0.0258295 0)
(5.1258 -0.0233587 0)
(5.12563 -0.0211232 0)
(5.12548 -0.0191003 0)
(5.12535 -0.0172699 0)
(5.12523 -0.0156138 0)
(5.12513 -0.0141151 0)
(5.12503 -0.0127586 0)
(5.12495 -0.0115309 0)
(5.12487 -0.0104198 0)
(5.1248 -0.00941389 0)
(5.12474 -0.0085029 0)
(5.12469 -0.00767781 0)
(5.12464 -0.00693055 0)
(5.12459 -0.00625336 0)
(5.12455 -0.00563923 0)
(5.12452 -0.00508217 0)
(5.12448 -0.00457676 0)
(5.12445 -0.00411772 0)
(5.12443 -0.00370023 0)
(5.12441 -0.00332032 0)
(5.12438 -0.00297437 0)
(5.12436 -0.00265871 0)
(5.12435 -0.00236991 0)
(5.12433 -0.00210528 0)
(5.12432 -0.00186237 0)
(5.12431 -0.00163858 0)
(5.1243 -0.00143146 0)
(5.12429 -0.00123915 0)
(5.12428 -0.00105995 0)
(5.12428 -0.000891896 0)
(5.12427 -0.000733079 0)
(5.12427 -0.00058218 0)
(5.12426 -0.000437881 0)
(5.12426 -0.000298628 0)
(5.12426 -0.000162827 0)
(5.12426 -2.93744e-05 0)
(5.12426 0.000102821 0)
(5.12426 0.000235199 0)
(5.12426 0.000369239 0)
(5.12426 0.000506009 0)
(5.12426 0.000646588 0)
(5.12427 0.000792467 0)
(5.12427 0.000945238 0)
(5.12428 0.0011061 0)
(5.12428 0.00127636 0)
(5.12429 0.00145772 0)
(5.1243 0.00165211 0)
(5.12431 0.00186108 0)
(5.12432 0.00208637 0)
(5.12433 0.00233015 0)
(5.12435 0.00259489 0)
(5.12436 0.00288273 0)
(5.12438 0.00319612 0)
(5.1244 0.00353803 0)
(5.12442 0.00391184 0)
(5.12444 0.00432069 0)
(5.12447 0.00476811 0)
(5.1245 0.00525827 0)
(5.12453 0.00579582 0)
(5.12456 0.00638536 0)
(5.1246 0.00703208 0)
(5.12464 0.00774189 0)
(5.12469 0.00852149 0)
(5.12474 0.00937761 0)
(5.1248 0.0103179 0)
(5.12486 0.0113508 0)
(5.12493 0.0124861 0)
(5.12501 0.0137336 0)
(5.12509 0.0151046 0)
(5.12518 0.0166113 0)
(5.12529 0.0182679 0)
(5.1254 0.0200889 0)
(5.12553 0.0220909 0)
(5.12566 0.0242918 0)
(5.12582 0.0267121 0)
(5.12599 0.0293735 0)
(5.12617 0.0323002 0)
(5.12638 0.0355188 0)
(5.12661 0.0390595 0)
(5.12686 0.0429541 0)
(5.12714 0.0472393 0)
(5.12745 0.0519541 0)
(5.1278 0.0571444 0)
(5.12818 0.0628563 0)
(5.1286 0.0691495 0)
(5.12907 0.0760746 0)
(5.12958 0.0837194 0)
(5.13016 0.0921222 0)
(5.13077 0.101438 0)
(5.13147 0.111636 0)
(5.13215 0.123047 0)
(5.13298 0.135415 0)
(5.13369 0.149492 0)
(5.13457 0.164456 0)
(5.13516 0.181919 0)
(5.13586 0.199965 0)
(5.13605 0.221502 0)
(5.13625 0.243208 0)
(5.13536 0.269075 0)
(5.13566 0.295101 0)
(5.13134 0.325054 0)
(5.13612 0.355871 0)
(5.12114 0.390216 0)
(5.14306 0.425912 0)
(5.10096 0.466329 0)
(5.16279 0.508221 0)
(5.06916 0.555162 0)
(5.19505 0.609674 0)
(5.03174 0.65716 0)
(5.23167 0.737697 0)
(4.99955 0.778061 0)
(5.25895 0.889359 0)
(4.99383 0.936073 0)
(5.25291 1.05994 0)
(5.032 1.14145 0)
(5.21301 1.2652 0)
(5.09581 1.39049 0)
(5.16052 1.52415 0)
(5.16053 1.6947 0)
(5.12505 1.85081 0)
(5.20745 2.06658 0)
(5.13095 2.27753 0)
(5.2122 2.52434 0)
(5.1677 2.83185 0)
(5.20668 3.11854 0)
(5.18606 3.54671 0)
(5.22674 3.94103 0)
(5.20717 4.49608 0)
(5.28786 5.13017 0)
(5.3599 5.80437 0)
(5.17916 7.10251 0)
(6.76512 7.7418 0)
(4.51094 12.3307 0)
(8.5311 -1.32092 0)
(8.3293 -1.54742 0)
(8.58498 -1.72866 0)
(8.78299 -1.92189 0)
(8.86535 -2.15156 0)
(8.98139 -2.41592 0)
(8.99487 -2.63468 0)
(8.8915 -2.77517 0)
(8.76691 -2.92042 0)
(8.69801 -3.12355 0)
(8.70718 -3.35545 0)
(8.60549 -3.527 0)
(8.31565 -3.59199 0)
(7.93938 -3.57863 0)
(7.5986 -3.51294 0)
(7.31432 -3.40913 0)
(7.03634 -3.26736 0)
(6.75948 -3.08512 0)
(6.51551 -2.88104 0)
(6.30577 -2.66733 0)
(6.11693 -2.44653 0)
(5.95512 -2.22986 0)
(5.82136 -2.02648 0)
(5.71076 -1.84215 0)
(5.62467 -1.6768 0)
(5.55797 -1.52419 0)
(5.50219 -1.38287 0)
(5.45373 -1.2545 0)
(5.41131 -1.1384 0)
(5.37393 -1.03307 0)
(5.34118 -0.937319 0)
(5.31289 -0.849963 0)
(5.28864 -0.770065 0)
(5.26779 -0.697132 0)
(5.24974 -0.630845 0)
(5.23403 -0.570815 0)
(5.22034 -0.516544 0)
(5.20842 -0.467496 0)
(5.19806 -0.423149 0)
(5.18905 -0.383031 0)
(5.18122 -0.346721 0)
(5.17439 -0.313848 0)
(5.16845 -0.284084 0)
(5.16325 -0.257132 0)
(5.15871 -0.232728 0)
(5.15474 -0.210632 0)
(5.15125 -0.190627 0)
(5.14819 -0.172515 0)
(5.1455 -0.156119 0)
(5.14313 -0.141276 0)
(5.14105 -0.12784 0)
(5.1392 -0.115678 0)
(5.13757 -0.10467 0)
(5.13613 -0.0947057 0)
(5.13485 -0.0856874 0)
(5.13372 -0.0775256 0)
(5.13271 -0.070139 0)
(5.13181 -0.063454 0)
(5.13102 -0.0574045 0)
(5.13031 -0.0519304 0)
(5.12968 -0.0469769 0)
(5.12911 -0.0424944 0)
(5.12861 -0.0384384 0)
(5.12816 -0.0347687 0)
(5.12776 -0.0314482 0)
(5.12739 -0.0284435 0)
(5.12707 -0.0257249 0)
(5.12678 -0.0232652 0)
(5.12652 -0.0210396 0)
(5.12629 -0.0190254 0)
(5.12608 -0.0172028 0)
(5.12589 -0.0155536 0)
(5.12572 -0.0140611 0)
(5.12557 -0.0127102 0)
(5.12543 -0.0114874 0)
(5.12531 -0.0103807 0)
(5.1252 -0.00937876 0)
(5.1251 -0.00847127 0)
(5.12501 -0.00764934 0)
(5.12493 -0.00690492 0)
(5.12486 -0.00623028 0)
(5.12479 -0.0056184 0)
(5.12474 -0.00506338 0)
(5.12468 -0.00455985 0)
(5.12464 -0.0041025 0)
(5.12459 -0.00368653 0)
(5.12456 -0.00330801 0)
(5.12452 -0.00296336 0)
(5.12449 -0.00264885 0)
(5.12446 -0.00236107 0)
(5.12444 -0.00209737 0)
(5.12442 -0.00185536 0)
(5.1244 -0.00163236 0)
(5.12438 -0.00142596 0)
(5.12437 -0.00123434 0)
(5.12436 -0.00105582 0)
(5.12434 -0.000888369 0)
(5.12433 -0.000730114 0)
(5.12433 -0.000579745 0)
(5.12432 -0.000436004 0)
(5.12432 -0.000297233 0)
(5.12431 -0.000161868 0)
(5.12431 -2.88714e-05 0)
(5.12431 0.000102846 0)
(5.12431 0.000234764 0)
(5.12431 0.000368351 0)