/*--------------------------------*- C++ -*----------------------------------*\
| =========                 |                                                 |
| \\      /  F ield         | OpenFOAM: The Open Source CFD Toolbox           |
|  \\    /   O peration     | Version:  2.4.0                                 |
|   \\  /    A nd           | Web:      www.OpenFOAM.org                      |
|    \\/     M anipulation  |                                                 |
\*---------------------------------------------------------------------------*/
FoamFile
{
    version     2.0;
    format      ascii;
    class       volScalarField;
    location    "0.02";
    object      k_0;
}
// * * * * * * * * * * * * * * * * * * * * * * * * * * * * * * * * * * * * * //

dimensions      [0 2 -2 0 0 0 0];

internalField   nonuniform List<scalar> 
4400
(
9.53082
8.49348
6.49238
5.3929
4.55508
4.17381
4.01069
4.00309
3.79447
4.39043
4.40474
6.7676
6.71157
6.39398
5.6488
5.16934
5.03531
4.78011
4.91841
5.07275
1.16018
3.17693
4.14941
4.59762
4.51241
4.2159
4.20563
3.84887
4.11161
4.14581
0.161851
0.964684
1.64159
2.30457
2.76287
2.77976
2.89836
2.6981
2.76628
2.93069
0.0170404
0.18061
0.390023
0.673026
1.14385
1.3911
1.51978
1.54615
1.51176
1.62973
0.00143434
0.0232457
0.0523119
0.109684
0.25249
0.468715
0.514815
0.614986
0.575253
0.627033
0.000133648
0.00239589
0.0045449
0.0101251
0.029474
0.0883418
0.103062
0.130954
0.115118
0.132989
4.14351e-05
0.000356347
0.000445772
0.000728081
0.00233469
0.00871489
0.00986446
0.0125468
0.00947445
0.012225
3.39036e-05
0.000167997
0.000175237
0.000183635
0.000296238
0.000646708
0.000630948
0.000756158
0.000515977
0.000651756
3.38093e-05
0.000136661
0.000144363
0.000154739
0.000208724
0.000236406
0.000231803
0.000227811
0.000187882
0.000216284
3.31461e-05
0.000142088
0.000148325
0.000154174
0.000205299
0.000238728
0.00023761
0.000226883
0.00019148
0.000183707
3.46897e-05
0.000149645
0.000158652
0.000167951
0.000270155
0.000676212
0.000781029
0.000617133
0.000631656
0.000548984
4.03185e-05
0.000264922
0.000386832
0.000682729
0.00216298
0.00865725
0.0119708
0.0105338
0.0114851
0.0122745
0.000137728
0.00168419
0.0041978
0.00992886
0.0283121
0.0851978
0.119096
0.118385
0.125437
0.142274
0.0014774
0.018293
0.0518634
0.110091
0.243543
0.462332
0.563104
0.576736
0.605978
0.671085
0.0173254
0.161976
0.400668
0.688047
1.10343
1.42785
1.53079
1.5377
1.56721
1.65535
0.163893
0.935338
1.67664
2.30053
2.72302
2.85125
2.83717
2.76771
2.77792
2.84641
1.17107
3.14543
4.18809
4.57159
4.50877
4.27016
4.10249
3.9496
3.97733
3.96151
4.40129
6.75366
6.72681
6.37059
5.6951
5.14045
4.95927
4.79909
4.84493
4.67525
9.52149
8.48738
6.50847
5.35604
4.60801
4.128
3.99503
3.89596
3.93388
3.58493
2.27322
1.30012
0.793026
0.596284
0.425281
0.402657
0.691205
0.906007
0.744516
0.445643
0.453827
0.562937
0.544257
0.361863
0.194319
0.103827
0.0602533
0.0410848
0.0313709
0.022856
0.0146046
0.00822866
0.00419566
0.00197823
0.000877378
0.00037181
0.000152796
6.16684e-05
2.46626e-05
9.83828e-06
3.93956e-06
1.59376e-06
6.54921e-07
2.7423e-07
1.17058e-07
5.08454e-08
2.24038e-08
9.98174e-09
4.48404e-09
2.02654e-09
9.20026e-10
4.19165e-10
1.91545e-10
8.7775e-11
4.03387e-11
1.85989e-11
8.60927e-12
4.00531e-12
1.876e-12
8.86904e-13
4.24827e-13
2.07457e-13
1.04265e-13
5.45132e-14
3.04239e-14
1.87307e-14
1.25388e-14
1.02563e-14
1.03387e-14
1.139e-14
1.42942e-14
2.0678e-14
3.31679e-14
5.80684e-14
1.06417e-13
2.02152e-13
4.00898e-13
7.92297e-13
1.71377e-12
3.24405e-12
8.87215e-12
1.34962e-11
6.57055e-11
6.58892e-11
8.71644e-10
6.81311e-10
2.59609e-08
2.33574e-08
8.74835e-07
9.25451e-07
1.17252e-05
1.37568e-05
5.16139e-05
5.8239e-05
0.000136662
0.000109312
0.000130372
0.000111099
0.000115051
9.98858e-05
0.000113982
0.00011405
0.000167482
0.000191831
0.000287701
0.000541756
0.00346536
0.00559792
0.0470393
0.298324
3.85226
2.56498
1.93614
1.23801
0.687359
0.664356
1.02881
0.984043
0.476422
0.26043
0.266029
0.376543
0.415153
0.352964
0.202488
0.110998
0.0638013
0.04137
0.0294142
0.0209388
0.0136451
0.00791448
0.00412556
0.00196887
0.000876062
0.000369684
0.000150412
5.99401e-05
2.37212e-05
9.42497e-06
3.78783e-06
1.5463e-06
6.42394e-07
2.71633e-07
1.16778e-07
5.09416e-08
2.24937e-08
1.00284e-08
4.50424e-09
2.03455e-09
9.23036e-10
4.20254e-10
1.91927e-10
8.79033e-11
4.03792e-11
1.86102e-11
8.61147e-12
4.00501e-12
1.87525e-12
8.86244e-13
4.24349e-13
2.07126e-13
1.04035e-13
5.43496e-14
3.03019e-14
1.86322e-14
1.2457e-14
1.01808e-14
1.02616e-14
1.13056e-14
1.4192e-14
2.05345e-14
3.29674e-14
5.773e-14
1.05664e-13
2.0062e-13
3.97355e-13
7.84329e-13
1.69837e-12
3.19432e-12
8.91369e-12
1.32679e-11
7.04184e-11
7.14924e-11
1.17743e-09
1.17801e-09
4.96468e-08
5.92544e-08
2.46093e-06
2.33649e-06
4.56439e-05
3.29639e-05
0.000256669
0.000153887
0.000813857
0.000425071
0.00087452
0.000595772
0.000660647
0.000423915
0.000490021
0.000324503
0.000371209
0.000280124
0.000867912
0.000884147
0.00622568
0.00688637
0.049633
0.236921
3.54428
2.69652
2.21995
1.81168
1.41964
1.37012
1.33529
0.839019
0.290971
0.194345
0.224485
0.284467
0.302718
0.293408
0.201153
0.113234
0.0666398
0.0430257
0.0290612
0.0192919
0.0121491
0.00706535
0.00375651
0.00183509
0.000834765
0.00035836
0.000147299
5.88927e-05
2.3271e-05
9.21728e-06
3.69814e-06
1.51186e-06
6.30807e-07
2.68284e-07
1.15994e-07
5.08273e-08
2.25092e-08
1.00512e-08
4.51733e-09
2.04054e-09
9.25506e-10
4.21214e-10
1.92284e-10
8.80302e-11
4.04213e-11
1.86223e-11
8.61364e-12
4.00429e-12
1.87396e-12
8.85068e-13
4.23432e-13
2.0645e-13
1.03544e-13
5.39913e-14
3.00342e-14
1.84213e-14
1.22855e-14
1.0026e-14
1.01055e-14
1.11397e-14
1.40006e-14
2.02985e-14
3.25854e-14
5.72179e-14
1.0465e-13
1.98886e-13
3.92875e-13
7.7709e-13
1.66592e-12
3.16253e-12
8.67942e-12
1.33281e-11
7.00468e-11
8.46953e-11
1.31642e-09
2.28021e-09
6.56285e-08
1.47201e-07
4.82382e-06
6.10164e-06
0.000151657
0.00010576
0.00138777
0.000613401
0.00591951
0.00260361
0.0147415
0.0070204
0.0169275
0.00741831
0.012873
0.00554359
0.00551797
0.00226357
0.00357538
0.00211495
0.0142781
0.00957168
0.0528795
0.180197
2.69141
2.38823
1.96719
1.74446
1.61265
1.50405
1.23795
0.503101
0.19362
0.143858
0.185988
0.227809
0.226609
0.212488
0.158599
0.101513
0.0650911
0.0436975
0.0294261
0.0188185
0.0111757
0.00616501
0.00318952
0.00156032
0.000724119
0.0003201
0.000135586
5.56431e-05
2.24301e-05
9.00368e-06
3.64139e-06
1.49563e-06
6.26029e-07
2.66968e-07
1.15702e-07
5.08004e-08
2.25304e-08
1.007e-08
4.52774e-09
2.0454e-09
9.27561e-10
4.22024e-10
1.92586e-10
8.8136e-11
4.04548e-11
1.86306e-11
8.61389e-12
4.00241e-12
1.87188e-12
8.83336e-13
4.22123e-13
2.05495e-13
1.02852e-13
5.34882e-14
2.96591e-14
1.81254e-14
1.20445e-14
9.80963e-15
9.88807e-15
1.09101e-14
1.37387e-14
1.99524e-14
3.21235e-14
5.65935e-14
1.03419e-13
1.96985e-13
3.87766e-13
7.70945e-13
1.61458e-12
3.1576e-12
8.1016e-12
1.37313e-11
6.33686e-11
1.08907e-10
1.16325e-09
4.44133e-09
7.27932e-08
3.13337e-07
5.15093e-06
1.02652e-05
0.00023619
0.000184032
0.00229688
0.00145619
0.00842907
0.00602438
0.0236079
0.018579
0.0599305
0.0413671
0.129126
0.0809427
0.141247
0.0471353
0.0683541
0.0210041
0.0292248
0.0156805
0.0438352
0.116502
1.55835
1.48742
1.26043
1.1748
1.19986
1.15433
0.804305
0.298001
0.108104
0.091703
0.130986
0.153266
0.144247
0.122023
0.0944299
0.0712876
0.0551422
0.0419557
0.0297035
0.0190572
0.0110684
0.0059165
0.00294087
0.0013779
0.00061775
0.00026896
0.000114966
4.84719e-05
2.02264e-05
8.39599e-06
3.48926e-06
1.46089e-06
6.18936e-07
2.65785e-07
1.15619e-07
5.08602e-08
2.25771e-08
1.0094e-08
4.53852e-09
2.0499e-09
9.29345e-10
4.22697e-10
1.92825e-10
8.82126e-11
4.04736e-11
1.86309e-11
8.60945e-12
3.99777e-12
1.86818e-12
8.80639e-13
4.20223e-13
2.0417e-13
1.01921e-13
5.28248e-14
2.91694e-14
1.77427e-14
1.1735e-14
9.53241e-15
9.60968e-15
1.06173e-14
1.34078e-14
1.95368e-14
3.15611e-14
5.58201e-14
1.02041e-13
1.94908e-13
3.82039e-13
7.66025e-13
1.5608e-12
3.19201e-12
7.07072e-12
1.47529e-11
4.97168e-11
1.52181e-10
1.45166e-09
9.90653e-09
1.28724e-07
9.18221e-07
8.87469e-06
2.90103e-05
0.000303394
0.000333972
0.00153618
0.00198978
0.00270409
0.00384137
0.00725817
0.0109548
0.013917
0.0230806
0.0594218
0.0678001
0.244206
0.176499
0.639558
0.316613
0.44633
0.123295
0.0929722
0.109888
0.610378
0.587231
0.451383
0.391201
0.442452
0.42647
0.263823
0.0898851
0.0344133
0.0363808
0.0587998
0.0545094
0.0456143
0.0475133
0.0558816
0.0563688
0.05113
0.041005
0.0296291
0.0193563
0.0113317
0.00598333
0.00291889
0.00134029
0.000587388
0.000249161
0.000103864
4.31191e-05
1.79918e-05
7.57814e-06
3.22434e-06
1.38441e-06
5.99172e-07
2.61272e-07
1.1476e-07
5.07572e-08
2.25922e-08
1.01124e-08
4.54831e-09
2.05419e-09
9.31062e-10
4.23341e-10
1.9305e-10
8.82823e-11
4.04892e-11
1.86295e-11
8.60418e-12
3.99259e-12
1.86407e-12
8.77622e-13
4.18077e-13
2.02658e-13
1.00849e-13
5.20563e-14
2.86011e-14
1.7298e-14
1.13747e-14
9.20927e-15
9.28536e-15
1.02767e-14
1.30235e-14
1.90395e-14
3.09169e-14
5.49588e-14
1.00518e-13
1.92813e-13
3.75556e-13
7.6591e-13
1.50838e-12
3.3354e-12
6.52672e-12
1.67814e-11
4.59746e-11
2.50835e-10
1.86802e-09
2.36073e-08
2.17133e-07
2.57485e-06
1.37033e-05
8.52514e-05
0.000212441
0.000636098
0.000617372
0.0010784
0.00380354
0.00315467
0.0117757
0.0112851
0.0147086
0.0200625
0.0325269
0.0577271
0.0747872
0.115255
0.236986
0.265657
0.372422
0.292023
0.286183
0.1598
0.132138
0.124953
0.0817352
0.0670188
0.0809042
0.0742843
0.0506253
0.0211351
0.0127479
0.0130359
0.0176433
0.019325
0.0213381
0.0256145
0.041328
0.0507487
0.050851
0.0447528
0.0307392
0.0193711
0.0114087
0.00613303
0.00299841
0.00136453
0.000590954
0.000247843
0.000102183
4.19815e-05
1.73735e-05
7.28634e-06
3.10141e-06
1.33774e-06
5.83196e-07
2.56346e-07
1.13403e-07
5.04327e-08
2.25312e-08
1.01076e-08
4.55145e-09
2.05662e-09
9.32246e-10
4.23824e-10
1.93223e-10
8.8334e-11
4.0498e-11
1.86252e-11
8.59726e-12
3.9864e-12
1.85931e-12
8.74173e-13
4.15642e-13
2.00948e-13
9.96413e-14
5.11937e-14
2.79642e-14
1.6801e-14
1.09739e-14
8.85015e-15
8.92483e-15
9.89783e-15
1.25967e-14
1.84931e-14
3.02132e-14
5.39978e-14
9.88664e-14
1.91076e-13
3.68445e-13
7.78472e-13
1.44946e-12
3.76447e-12
5.91758e-12
2.53573e-11
4.06569e-11
3.9757e-10
1.93811e-09
3.58595e-08
2.3585e-07
3.07226e-06
1.10801e-05
0.000104224
0.000103157
0.000492286
0.000567649
0.000776305
0.00384577
0.00339757
0.00337574
0.00781731
0.00743278
0.0117837
0.0190616
0.0346558
0.0990565
0.107601
0.365728
0.298077
0.441046
0.368377
0.334749
0.209038
0.0125243
0.0111415
0.00631552
0.00453335
0.00458628
0.00475658
0.00580224
0.00756791
0.00809471
0.00855969
0.00920422
0.0125283
0.0177647
0.0219677
0.0371202
0.0521318
0.0559993
0.0536796
0.0373217
0.020142
0.0105444
0.00543738
0.00272431
0.00129235
0.000578721
0.000247872
0.000103337
4.26058e-05
1.75989e-05
7.35039e-06
3.11555e-06
1.33964e-06
5.82987e-07
2.56088e-07
1.13299e-07
5.04088e-08
2.25327e-08
1.0113e-08
4.55533e-09
2.05867e-09
9.33177e-10
4.24201e-10
1.93357e-10
8.83714e-11
4.05008e-11
1.86179e-11
8.5888e-12
3.97933e-12
1.85402e-12
8.70396e-13
4.12993e-13
1.99097e-13
9.83375e-14
5.02653e-14
2.72805e-14
1.62693e-14
1.05464e-14
8.46712e-15
8.5403e-15
9.49385e-15
1.21418e-14
1.79024e-14
2.94682e-14
5.29677e-14
9.71676e-14
1.89148e-13
3.61803e-13
7.87125e-13
1.4007e-12
4.10043e-12
5.41916e-12
3.3979e-11
3.48095e-11
6.60207e-10
1.88081e-09
4.12891e-08
2.31832e-07
2.62915e-06
9.51049e-06
7.37567e-05
6.605e-05
0.000395579
0.000502656
0.000714019
0.00158885
0.00296356
0.00240599
0.00451399
0.00453982
0.00775525
0.00826003
0.020742
0.0216446
0.0712545
0.0820968
0.231371
0.267189
0.338134
0.399865
0.303508
0.000800143
0.000697967
0.000629352
0.00098029
0.0015677
0.00137791
0.00179736
0.00600388
0.0100418
0.00959235
0.00883517
0.0108811
0.0248458
0.0306481
0.04135
0.0613493
0.0655545
0.0634105
0.0449493
0.022815
0.010725
0.0048573
0.0021348
0.000921054
0.000396736
0.00017258
7.6e-05
3.37464e-05
1.50154e-05
6.66437e-06
2.94885e-06
1.30278e-06
5.75763e-07
2.54942e-07
1.13215e-07
5.04504e-08
2.25635e-08
1.01277e-08
4.56155e-09
2.06116e-09
9.34146e-10
4.24557e-10
1.93474e-10
8.84004e-11
4.05004e-11
1.86097e-11
8.5801e-12
3.9722e-12
1.84869e-12
8.66565e-13
4.10299e-13
1.97207e-13
9.70002e-14
4.93103e-14
2.65767e-14
1.5723e-14
1.01083e-14
8.07425e-15
8.14567e-15
9.07864e-15
1.16729e-14
1.73044e-14
2.86989e-14
5.18765e-14
9.54669e-14
1.8677e-13
3.55984e-13
7.8617e-13
1.36571e-12
4.2302e-12
5.10113e-12
3.61725e-11
2.85468e-11
8.23941e-10
1.57912e-09
4.0968e-08
2.1311e-07
2.21169e-06
8.84581e-06
4.18095e-05
4.69888e-05
0.000193165
0.000293561
0.000740098
0.000840145
0.0022476
0.00202525
0.00323946
0.00355787
0.00605277
0.00602975
0.0149072
0.0136575
0.0460979
0.0353789
0.143073
0.118717
0.238264
0.335055
0.317592
0.000240807
0.000690889
0.00130013
0.00108014
0.00272491
0.00449285
0.00489335
0.00980794
0.0109323
0.0117401
0.0133569
0.0158363
0.0342444
0.0651688
0.068817
0.0770308
0.0813597
0.0742951
0.0464612
0.0233705
0.0109296
0.00478688
0.00201696
0.000841682
0.000354588
0.000152322
6.68516e-05
2.98431e-05
1.3452e-05
6.08225e-06
2.74696e-06
1.23711e-06
5.55586e-07
2.49057e-07
1.11583e-07
5.00214e-08
2.24579e-08
1.01041e-08
4.55715e-09
2.0607e-09
9.34251e-10
4.24643e-10
1.935e-10
8.83962e-11
4.04868e-11
1.85956e-11
8.56847e-12
3.96354e-12
1.84253e-12
8.62294e-13
4.07368e-13
1.95188e-13
9.5595e-14
4.83226e-14
2.58593e-14
1.51732e-14
9.6727e-15
7.68713e-15
7.75729e-15
8.67016e-15
1.12111e-14
1.67294e-14
2.79402e-14
5.07479e-14
9.38175e-14
1.83942e-13
3.51132e-13
7.74438e-13
1.34521e-12
4.13192e-12
4.96293e-12
3.40138e-11
2.50893e-11
7.36129e-10
1.19554e-09
3.3765e-08
1.67422e-07
1.89205e-06
7.66522e-06
3.30561e-05
4.56393e-05
9.73771e-05
0.000158351
0.00065861
0.000593826
0.00154166
0.00156278
0.00228236
0.00275517
0.00493772
0.00474409
0.00988748
0.00922358
0.0299273
0.0217918
0.0953586
0.0762243
0.162228
0.173198
0.270463
0.000310609
0.000332286
0.000991189
0.0012987
0.00124351
0.00351391
0.00737863
0.0102134
0.0211734
0.0271442
0.0360105
0.0496638
0.0539896
0.090536
0.120067
0.121712
0.112538
0.0761338
0.0400855
0.0200979
0.00986607
0.00483142
0.00230971
0.00104857
0.000453472
0.00019131
8.05433e-05
3.42744e-05
1.47936e-05
6.46445e-06
2.84957e-06
1.26304e-06
5.61728e-07
2.50415e-07
1.11863e-07
5.00771e-08
2.247e-08
1.01078e-08
4.55873e-09
2.06145e-09
9.34594e-10
4.24781e-10
1.93544e-10
8.84028e-11
4.04811e-11
1.85877e-11
8.5618e-12
3.95888e-12
1.83969e-12
8.60834e-13
4.06872e-13
1.95362e-13
9.62316e-14
4.92789e-14
2.70386e-14
1.65013e-14
1.11348e-14
9.33197e-15
9.47018e-15
1.05015e-14
1.32025e-14
1.89069e-14
3.03865e-14
5.32266e-14
9.61561e-14
1.85319e-13
3.52115e-13
7.59665e-13
1.34354e-12
3.85642e-12
4.98917e-12
2.90051e-11
2.45289e-11
5.00026e-10
8.67802e-10
2.10443e-08
1.09422e-07
1.33191e-06
5.73745e-06
2.8646e-05
4.87469e-05
0.000107558
0.000116715
0.000392156
0.000627933
0.00107311
0.00152563
0.00182492
0.00258924
0.00368502
0.00453277
0.00753097
0.0079151
0.020778
0.0158194
0.0624764
0.0490575
0.112041
0.119132
0.20199
0.000586917
0.00119467
0.00173706
0.00246669
0.00340264
0.00571878
0.0137006
0.0338411
0.0620853
0.0776956
0.0872389
0.126275
0.145817
0.16347
0.182392
0.166776
0.114365
0.0784063
0.0507892
0.0267109
0.0118272
0.00486403
0.00196773
0.000803585
0.000337124
0.000146185
6.51151e-05
2.94467e-05
1.33814e-05
6.07292e-06
2.74564e-06
1.23642e-06
5.55141e-07
2.48855e-07
1.11526e-07
5.00228e-08
2.24736e-08
1.01187e-08
4.56744e-09
2.06732e-09
9.38473e-10
4.27419e-10
1.95428e-10
8.98232e-11
4.16065e-11
1.95167e-11
9.35624e-12
4.65564e-12
2.46518e-12
1.4299e-12
9.3452e-13
6.93611e-13
5.7429e-13
5.141e-13
4.84002e-13
4.68855e-13
4.63142e-13
4.63697e-13
4.67202e-13
4.75514e-13
4.90841e-13
5.15106e-13
5.52341e-13
6.10891e-13
6.9524e-13
8.57411e-13
1.07463e-12
1.57386e-12
2.22585e-12
4.51886e-12
6.15094e-12
2.34831e-11
2.62749e-11
2.52967e-10
6.29436e-10
9.58752e-09
6.01999e-08
5.98076e-07
3.06268e-06
1.42123e-05
3.06587e-05
0.000119213
0.000154071
0.000175584
0.00142455
0.00109685
0.00210403
0.00203999
0.00400208
0.0036179
0.00692853
0.00756092
0.00853894
0.0141161
0.0131249
0.0389808
0.0336581
0.0806987
0.0862698
0.139872
0.0122236
0.0126233
0.0149738
0.0210692
0.0289259
0.0388814
0.0630746
0.133136
0.162157
0.175223
0.203442
0.2741
0.309315
0.288752
0.223454
0.192447
0.152477
0.100717
0.0573602
0.0302225
0.0152098
0.00722154
0.0032162
0.00136311
0.00056196
0.000229842
9.45693e-05
3.94362e-05
1.67005e-05
7.17226e-06
3.11563e-06
1.36568e-06
6.03081e-07
2.68132e-07
1.20057e-07
5.42019e-08
2.47327e-08
1.14547e-08
5.42274e-09
2.6541e-09
1.36585e-09
7.55116e-10
4.58041e-10
3.08218e-10
2.29032e-10
1.84512e-10
1.57912e-10
1.40574e-10
1.28795e-10
1.19956e-10
1.1379e-10
1.09532e-10
1.06627e-10
1.04677e-10
1.0338e-10
1.02512e-10
1.01914e-10
1.01566e-10
1.01413e-10
1.01281e-10
1.01281e-10
1.01346e-10
1.01547e-10
1.01996e-10
1.02668e-10
1.03883e-10
1.05355e-10
1.08608e-10
1.11598e-10
1.20038e-10
1.2569e-10
1.52417e-10
1.71549e-10
3.04997e-10
7.86914e-10
4.61263e-09
3.4736e-08
2.1815e-07
1.27162e-06
4.41402e-06
1.22905e-05
6.70336e-05
0.00031466
0.000174541
0.00296182
0.0015037
0.00395719
0.00317657
0.00731437
0.00420588
0.0120448
0.00902011
0.0123408
0.0128371
0.0135258
0.028407
0.0282615
0.0555587
0.0617604
0.09955
0.13779
0.137065
0.13776
0.139492
0.155163
0.214321
0.259031
0.322991
0.373428
0.411073
0.517111
0.551664
0.524611
0.449048
0.348723
0.272954
0.195374
0.121437
0.0686137
0.0367433
0.0187444
0.00912324
0.00427327
0.00194431
0.00086617
0.000380494
0.000165891
7.22595e-05
3.16689e-05
1.40737e-05
6.3969e-06
3.00251e-06
1.47077e-06
7.60241e-07
4.18949e-07
2.4801e-07
1.582e-07
1.08477e-07
7.94286e-08
6.15403e-08
4.99806e-08
4.21859e-08
3.67422e-08
3.28178e-08
2.99183e-08
2.77226e-08
2.60413e-08
2.47117e-08
2.36445e-08
2.28221e-08
2.22105e-08
2.17748e-08
2.14704e-08
2.12591e-08
2.1111e-08
2.10061e-08
2.09285e-08
2.08683e-08
2.08202e-08
2.07808e-08
2.07401e-08
2.06984e-08
2.0654e-08
2.06043e-08
2.05487e-08
2.04895e-08
2.04232e-08
2.03603e-08
2.02812e-08
2.02481e-08
2.01646e-08
2.01891e-08
2.02878e-08
2.07636e-08
2.33278e-08
3.19861e-08
7.16949e-08
2.01938e-07
8.39138e-07
1.90356e-06
8.05001e-06
4.02051e-05
0.000718201
0.000401422
0.00664254
0.00284944
0.00853701
0.00621806
0.0143
0.00639833
0.0219391
0.014368
0.0204217
0.0149117
0.0175565
0.0289002
0.0299511
0.0475367
0.0502096
0.0637133
0.632503
0.59324
0.586615
0.553774
0.553408
0.604789
0.700622
0.708647
0.728506
0.80639
0.883857
0.889446
0.848019
0.71055
0.523386
0.358344
0.229819
0.142314
0.086704
0.0514298
0.029384
0.0161341
0.00854593
0.00441543
0.00225559
0.00115312
0.000597098
0.000317121
0.000174858
0.000101135
6.17841e-05
3.99713e-05
2.73528e-05
1.97241e-05
1.49101e-05
1.17525e-05
9.61017e-06
8.11311e-06
7.04116e-06
6.25682e-06
5.67311e-06
5.23212e-06
4.89492e-06
4.63393e-06
4.4293e-06
4.26755e-06
4.13831e-06
4.03447e-06
3.95178e-06
3.88868e-06
3.84117e-06
3.80603e-06
3.7805e-06
3.76186e-06
3.74798e-06
3.73737e-06
3.72878e-06
3.7214e-06
3.71501e-06
3.70904e-06
3.70241e-06
3.69512e-06
3.68683e-06
3.67719e-06
3.66597e-06
3.65306e-06
3.63762e-06
3.62024e-06
3.59816e-06
3.57684e-06
3.54312e-06
3.52229e-06
3.46922e-06
3.45777e-06
3.41158e-06
3.47709e-06
3.69076e-06
4.54549e-06
6.52075e-06
7.41035e-06
5.84567e-05
7.17393e-05
0.00211358
0.00152677
0.0154134
0.00618269
0.0205335
0.0139086
0.0286681
0.0124174
0.042774
0.0277077
0.0347972
0.0214136
0.0318049
0.0377976
0.0386976
0.0431931
0.0394222
0.0416685
1.5256
1.38515
1.30015
1.1779
1.11188
1.10565
1.12842
1.15356
1.1496
1.17553
1.18405
1.13527
1.02674
0.810809
0.57812
0.393831
0.262563
0.173125
0.113963
0.0749205
0.049086
0.0319256
0.0206724
0.0134344
0.00885803
0.00598876
0.00418265
0.00302916
0.00227499
0.00176985
0.00142348
0.00118036
0.00100599
0.00087849
0.000783635
0.000712066
0.000657442
0.000615318
0.000582583
0.000556926
0.000536732
0.00052074
0.000508034
0.000497889
0.000489751
0.000483221
0.000478028
0.000473861
0.000470485
0.000467806
0.000465668
0.000463967
0.000462643
0.000461595
0.000460741
0.000460018
0.000459368
0.000458759
0.00045819
0.000457615
0.000456948
0.000456186
0.000455306
0.000454278
0.000453076
0.000451678
0.000450001
0.000448088
0.00044567
0.000443264
0.000439517
0.000437096
0.000430895
0.000428941
0.000419751
0.00042027
0.000411337
0.000416398
0.000433376
0.000421754
0.0011546
0.000692083
0.00797278
0.00538094
0.0382521
0.0146955
0.0506318
0.0334162
0.058123
0.0303592
0.0826037
0.0514639
0.0616307
0.0370638
0.05844
0.0608263
0.0590294
0.0424556
0.0355327
0.0392302
2.53108
2.19055
1.88485
1.69492
1.63199
1.52958
1.40669
1.39554
1.41763
1.40496
1.33155
1.17182
0.990005
0.790225
0.591002
0.430702
0.315026
0.235223
0.18099
0.143683
0.116275
0.0949728
0.0782161
0.065148
0.0550441
0.0472535
0.0412446
0.0366011
0.0330017
0.0301974
0.0280005
0.02627
0.0249005
0.0238126
0.022945
0.022251
0.0216949
0.0212481
0.020889
0.0205992
0.0203658
0.0201769
0.0200245
0.0199012
0.0198012
0.0197197
0.0196534
0.0196
0.0195557
0.0195191
0.0194885
0.0194624
0.0194409
0.0194226
0.0194065
0.0193914
0.0193767
0.0193619
0.019347
0.019331
0.0193121
0.0192898
0.0192638
0.0192334
0.0191977
0.0191559
0.019106
0.0190484
0.0189774
0.0189026
0.0187964
0.0187159
0.0185428
0.0184715
0.0182194
0.0181764
0.0179046
0.017816
0.0180661
0.0172924
0.0224671
0.0167124
0.0425218
0.0264377
0.106625
0.0444145
0.13318
0.088258
0.130973
0.0805741
0.167834
0.103548
0.118659
0.0787206
0.119469
0.112999
0.102464
0.0543538
0.0464259
0.0502852
3.32858
2.69566
2.24897
1.95431
1.80201
1.7029
1.58964
1.5244
1.49601
1.4292
1.25946
1.08689
0.925114
0.773611
0.637921
0.530435
0.459699
0.417592
0.389376
0.366467
0.345779
0.326307
0.308161
0.291706
0.277095
0.264312
0.253291
0.243924
0.236056
0.229507
0.224092
0.219636
0.215981
0.21299
0.210548
0.208555
0.206932
0.20561
0.204535
0.203659
0.202948
0.202369
0.201898
0.201515
0.201202
0.200947
0.200738
0.200567
0.200425
0.200304
0.200202
0.200115
0.20004
0.199974
0.199913
0.199853
0.19979
0.199725
0.199656
0.199578
0.199485
0.199376
0.199248
0.199098
0.198923
0.198717
0.198472
0.198191
0.197845
0.197485
0.19697
0.196601
0.195764
0.195491
0.194228
0.194327
0.192601
0.19378
0.19293
0.194593
0.201363
0.190322
0.23369
0.164776
0.335456
0.184345
0.366642
0.231586
0.317178
0.208541
0.357297
0.225236
0.281598
0.202923
0.293725
0.26038
0.223751
0.139038
0.151389
0.175564
3.55928
2.7055
2.2582
2.0137
1.85693
1.72461
1.60441
1.45019
1.25675
1.07114
0.948865
0.886212
0.841822
0.804696
0.781537
0.771113
0.772478
0.77698
0.779712
0.77868
0.773658
0.765902
0.756598
0.74682
0.737293
0.728397
0.720342
0.713228
0.707067
0.70181
0.697374
0.693667
0.690592
0.688054
0.68597
0.684266
0.682877
0.681747
0.680831
0.680088
0.679489
0.679005
0.678616
0.678303
0.678051
0.677851
0.677691
0.677564
0.677463
0.677383
0.677323
0.67728
0.67725
0.677222
0.67722
0.677223
0.677231
0.677247
0.67727
0.677304
0.677348
0.677406
0.677478
0.677568
0.677681
0.677823
0.67799
0.678218
0.678444
0.678857
0.679113
0.679963
0.680072
0.682122
0.68091
0.687215
0.679586
0.701642
0.671801
0.742477
0.663522
0.822582
0.68701
0.819717
0.798517
0.60612
0.85498
0.630928
0.789259
0.652946
0.864256
0.628652
0.824316
0.719744
0.969091
0.869172
0.82519
0.80849
1.04452
1.37924
2.42481
1.95249
1.7195
1.53888
1.32624
1.05784
0.774185
0.52593
0.369526
0.309726
0.317096
0.356327
0.398665
0.438462
0.482862
0.541705
0.612917
0.684458
0.746348
0.795085
0.831243
0.857467
0.876548
0.890575
0.900923
0.90857
0.914257
0.918539
0.921811
0.924347
0.926344
0.927939
0.92923
0.930286
0.931159
0.931886
0.932496
0.93301
0.933446
0.933818
0.934138
0.934413
0.934653
0.934863
0.935052
0.935223
0.935381
0.935533
0.935683
0.935836
0.935995
0.936165
0.936351
0.936562
0.936806
0.93709
0.937424
0.937819
0.938289
0.938849
0.939516
0.940314
0.941267
0.942407
0.94377
0.945401
0.947341
0.949675
0.952406
0.955772
0.959464
0.964542
0.968784
0.977723
0.979902
0.999044
0.987282
1.04123
0.968848
1.14871
0.900387
1.38443
0.823507
1.76845
0.861926
2.20346
1.29038
2.15586
1.61825
2.33048
1.88352
2.16778
2.24474
2.95099
3.07318
3.24717
3.29584
4.54377
5.56041
6.89153
0.0731942
0.272754
0.610055
1.129
1.66949
1.942
1.92146
1.54293
1.03379
0.632721
0.368251
0.242591
0.193464
0.209649
0.274459
0.373505
0.488884
0.601176
0.698113
0.775146
0.832317
0.872559
0.89972
0.9174
0.928431
0.93504
0.938804
0.940757
0.941593
0.941752
0.941529
0.941114
0.940586
0.940033
0.93949
0.93898
0.938514
0.938093
0.937721
0.93739
0.937101
0.936843
0.936616
0.936414
0.936231
0.936065
0.935908
0.935757
0.935608
0.935456
0.935296
0.935121
0.934929
0.934714
0.934467
0.934174
0.933827
0.933419
0.93294
0.93237
0.931687
0.930867
0.929881
0.928696
0.92727
0.925552
0.923482
0.920988
0.91798
0.914355
0.909988
0.904729
0.898404
0.890812
0.881731
0.870908
0.858087
0.842999
0.825393
0.805036
0.781728
0.755311
0.725633
0.692584
0.656018
0.615838
0.57184
0.524022
0.472589
0.418223
0.362112
0.306101
0.252762
0.204582
0.163749
0.130511
0.102889
0.0773822
0.0455998
0.0133817
0.110209
0.330807
0.56407
0.681152
0.636045
0.440935
0.246521
0.139736
0.096912
0.0856672
0.0781971
0.0711955
0.067069
0.0712239
0.0871663
0.117976
0.162558
0.219614
0.284284
0.349227
0.409536
0.462381
0.506721
0.542829
0.571752
0.594603
0.612487
0.626371
0.637165
0.64558
0.652161
0.657323
0.661385
0.664591
0.667128
0.669139
0.670737
0.672007
0.67302
0.673826
0.674471
0.674985
0.675394
0.675722
0.675982
0.67619
0.676354
0.676484
0.676588
0.676667
0.676725
0.676772
0.676806
0.676821
0.676827
0.67683
0.676825
0.676812
0.676785
0.676747
0.676699
0.676638
0.676561
0.676468
0.676355
0.676217
0.67605
0.675849
0.675606
0.675311
0.674952
0.674515
0.673976
0.673304
0.672453
0.671366
0.66996
0.668134
0.66575
0.662661
0.658676
0.653609
0.647227
0.639332
0.629586
0.61778
0.603669
0.587711
0.568787
0.547455
0.521327
0.492077
0.454758
0.413375
0.35988
0.300889
0.229584
0.156444
0.0833391
0.0266209
0.109984
0.229264
0.269528
0.233486
0.160721
0.12106
0.107247
0.112215
0.116596
0.109923
0.103297
0.0779473
0.0575301
0.0402671
0.0288751
0.0225015
0.0203168
0.0220015
0.0293134
0.0413221
0.0555277
0.0713375
0.0877881
0.103876
0.118861
0.13232
0.144068
0.154127
0.162573
0.169571
0.175318
0.180008
0.18382
0.186911
0.189409
0.191429
0.19306
0.19438
0.195442
0.196304
0.196999
0.197561
0.198018
0.198386
0.198685
0.19893
0.199129
0.19929
0.199426
0.199541
0.199633
0.199714
0.199793
0.199857
0.199912
0.199976
0.200048
0.200123
0.200201
0.200286
0.200383
0.200496
0.200626
0.20078
0.200965
0.201188
0.201456
0.201781
0.202175
0.202652
0.203227
0.203922
0.204762
0.20578
0.207005
0.208481
0.21024
0.212332
0.214792
0.217662
0.221
0.224817
0.229253
0.234261
0.24018
0.246775
0.2546
0.262086
0.271185
0.27807
0.286935
0.290051
0.291018
0.283075
0.270238
0.234413
0.196328
0.133798
0.0851256
0.0319379
0.0987813
0.137558
0.142994
0.132911
0.131109
0.148017
0.175426
0.187636
0.18992
0.176875
0.173149
0.146043
0.115856
0.0778149
0.0444407
0.02419
0.0131413
0.00731042
0.00452127
0.00333732
0.00313248
0.00331274
0.00405058
0.0053445
0.00673628
0.00817773
0.00960536
0.0109644
0.0122159
0.0133382
0.0143233
0.0151739
0.0158984
0.0165101
0.0170228
0.0174502
0.017803
0.0180944
0.0183327
0.0185282
0.0186881
0.0188179
0.0189253
0.0190119
0.0190829
0.0191422
0.0191903
0.01923
0.019265
0.0192952
0.0193199
0.0193432
0.0193677
0.0193888
0.0194082
0.019432
0.0194605
0.0194919
0.019526
0.0195642
0.019609
0.0196621
0.0197246
0.0197992
0.0198889
0.0199973
0.0201279
0.0202864
0.020479
0.0207127
0.0209958
0.0213396
0.0217556
0.0222611
0.0228703
0.0236069
0.0244873
0.0255409
0.0267866
0.0282558
0.029978
0.031991
0.0343325
0.037108
0.040292
0.044261
0.0486264
0.0546065
0.0603484
0.0697503
0.0762585
0.090351
0.0962728
0.111585
0.112365
0.116829
0.106611
0.0953812
0.0703142
0.0324966
0.0834162
0.109919
0.121979
0.1329
0.164757
0.202452
0.216556
0.221232
0.217861
0.202041
0.198162
0.16953
0.145667
0.11866
0.0870455
0.0527179
0.0282562
0.0140287
0.00655579
0.00304018
0.00146054
0.000740808
0.000410947
0.000254196
0.000189326
0.00017842
0.000182459
0.000197037
0.000224809
0.000253513
0.000281194
0.000306882
0.000330029
0.000350477
0.000368186
0.000383394
0.000396245
0.000407091
0.000416119
0.00042363
0.000429866
0.000434968
0.00043922
0.000442701
0.000445527
0.000447976
0.000450044
0.000451832
0.00045354
0.000455114
0.000456581
0.000458195
0.000459997
0.000461708
0.000463505
0.000465757
0.000468445
0.000471466
0.000474847
0.000478743
0.000483396
0.000488977
0.000495654
0.000503694
0.000513435
0.000525258
0.000539608
0.000557141
0.000578602
0.000604936
0.000637244
0.000677139
0.000726269
0.000787405
0.000862845
0.000957059
0.0010734
0.00121847
0.00139789
0.00161958
0.00189588
0.00223444
0.00266215
0.00318891
0.00387105
0.00471809
0.00587934
0.00727967
0.00939342
0.0117629
0.0156865
0.0196196
0.0266727
0.0322501
0.0427873
0.047685
0.0572691
0.0584396
0.0538395
0.0395925
0.0833427
0.0958724
0.127081
0.162454
0.212587
0.233973
0.245762
0.251623
0.245304
0.22308
0.217166
0.180914
0.154375
0.128268
0.10319
0.0769694
0.048787
0.0265174
0.013255
0.00618376
0.00275793
0.00120687
0.000531138
0.000241149
0.000114221
5.61229e-05
2.84539e-05
1.49432e-05
8.32286e-06
5.1446e-06
3.69123e-06
3.06675e-06
2.87419e-06
2.87402e-06
2.91092e-06
3.00365e-06
3.10511e-06
3.19903e-06
3.28175e-06
3.35304e-06
3.4138e-06
3.46436e-06
3.50691e-06
3.54247e-06
3.57095e-06
3.5959e-06
3.61553e-06
3.63239e-06
3.6507e-06
3.67183e-06
3.69672e-06
3.72814e-06
3.76534e-06
3.80419e-06
3.84783e-06
3.9017e-06
3.96526e-06
4.03779e-06
4.12092e-06
4.21831e-06
4.33569e-06
4.47802e-06
4.6508e-06
4.86226e-06
5.12268e-06
5.44499e-06
5.84544e-06
6.34798e-06
6.98238e-06
7.79062e-06
8.82481e-06
1.01689e-05
1.19158e-05
1.42399e-05
1.73076e-05
2.14696e-05
2.705e-05
3.46935e-05
4.51324e-05
5.93626e-05
7.91202e-05
0.000106327
0.000143274
0.000198889
0.000266965
0.000389705
0.000524292
0.000797743
0.00111125
0.0017196
0.00254001
0.00382193
0.00610318
0.00861056
0.0141218
0.0187078
0.0285145
0.035786
0.0452931
0.039751
0.119785
0.0928372
0.14795
0.2112
0.246006
0.267982
0.284881
0.296268
0.291967
0.26239
0.251132
0.198645
0.160632
0.131782
0.106959