/*--------------------------------*- C++ -*----------------------------------*\
| =========                 |                                                 |
| \\      /  F ield         | OpenFOAM: The Open Source CFD Toolbox           |
|  \\    /   O peration     | Version:  2.4.0                                 |
|   \\  /    A nd           | Web:      www.OpenFOAM.org                      |
|    \\/     M anipulation  |                                                 |
\*---------------------------------------------------------------------------*/
FoamFile
{
    version     2.0;
    format      ascii;
    class       surfaceScalarField;
    location    "0.02";
    object      phi;
}
// * * * * * * * * * * * * * * * * * * * * * * * * * * * * * * * * * * * * * //

dimensions      [0 3 -1 0 0 0 0];

internalField   nonuniform List<scalar> 
8640
(
1.14665e-05
1.35335e-05
7.16899e-06
4.29752e-06
5.92487e-06
1.24412e-06
5.36717e-06
5.57703e-07
5.11446e-06
2.52702e-07
4.83389e-06
2.80576e-07
4.8314e-06
2.48917e-09
4.74712e-06
8.42839e-08
4.71876e-06
2.83617e-08
7.82263e-07
3.93649e-06
2.10523e-05
1.74811e-05
1.74313e-05
7.91853e-06
1.55525e-05
3.12296e-06
1.42763e-05
1.83385e-06
1.34552e-05
1.0738e-06
1.28589e-05
8.76931e-07
1.28001e-05
6.12934e-08
1.25715e-05
3.12823e-07
1.2644e-05
-4.41337e-08
1.78064e-06
1.16457e-05
2.57088e-05
1.67723e-05
2.40616e-05
9.56577e-06
2.26677e-05
4.51682e-06
2.12982e-05
3.20332e-06
2.0138e-05
2.23401e-06
1.94208e-05
1.59417e-06
1.91786e-05
3.0345e-07
1.88947e-05
5.96798e-07
1.90843e-05
-2.33814e-07
2.4753e-06
1.83897e-05
2.7471e-05
1.43014e-05
2.76658e-05
9.37091e-06
2.74074e-05
4.77524e-06
2.66503e-05
3.96044e-06
2.55246e-05
3.35968e-06
2.49195e-05
2.19926e-06
2.45294e-05
6.93554e-07
2.40813e-05
1.04493e-06
2.44612e-05
-6.13712e-07
2.76335e-06
2.41732e-05
2.767e-05
1.16313e-05
2.88116e-05
8.22937e-06
2.95797e-05
4.00716e-06
2.98646e-05
3.67553e-06
2.92695e-05
3.95476e-06
2.89773e-05
2.49141e-06
2.87549e-05
9.16023e-07
2.80856e-05
1.71422e-06
2.84299e-05
-9.58072e-07
2.81306e-06
2.83802e-05
2.75069e-05
9.12436e-06
2.88835e-05
6.85277e-06
2.99411e-05
2.9496e-06
3.07973e-05
2.81937e-06
3.10775e-05
3.67448e-06
3.12107e-05
2.35826e-06
3.1361e-05
7.65716e-07
3.08735e-05
2.20171e-06
3.10375e-05
-1.12207e-06
2.96573e-06
3.08848e-05
2.74094e-05
6.71496e-06
2.89345e-05
5.32764e-06
2.98093e-05
2.07479e-06
3.06589e-05
1.96979e-06
3.14429e-05
2.89049e-06
3.18837e-05
1.91753e-06
3.22684e-05
3.80989e-07
3.22621e-05
2.20794e-06
3.2231e-05
-1.09088e-06
2.7023e-06
3.24944e-05
2.73148e-05
4.40019e-06
2.89653e-05
3.67708e-06
2.9787e-05
1.25314e-06
3.04353e-05
1.32147e-06
3.1349e-05
1.97675e-06
3.19967e-05
1.26985e-06
3.23161e-05
6.15531e-08
3.24786e-05
2.04543e-06
3.2443e-05
-1.0552e-06
2.22743e-06
3.29178e-05
2.72492e-05
2.15104e-06
2.90013e-05
1.92495e-06
2.97141e-05
5.40347e-07
3.03355e-05
7.00082e-07
3.13085e-05
1.00374e-06
3.19304e-05
6.47961e-07
3.22009e-05
-2.0902e-07
3.25321e-05
1.71427e-06
3.2372e-05
-8.95072e-07
2.12522e-06
3.24742e-05
2.72315e-05
-8.04801e-08
2.89841e-05
1.72322e-07
2.96805e-05
-1.5599e-07
3.03385e-05
4.20713e-08
3.12531e-05
8.91456e-08
3.18972e-05
3.89688e-09
3.22448e-05
-5.56628e-07
3.24765e-05
1.48256e-06
3.23183e-05
-7.36867e-07
6.62484e-07
3.3781e-05
2.72246e-05
-2.30509e-06
2.89911e-05
-1.59417e-06
2.96824e-05
-8.47257e-07
3.033e-05
-6.05594e-07
3.1239e-05
-8.19805e-07
3.19409e-05
-6.98073e-07
3.22024e-05
-8.1809e-07
3.24843e-05
1.20069e-06
3.28983e-05
-1.15084e-06
-3.31752e-07
3.38925e-05
2.72543e-05
-4.55941e-06
2.89987e-05
-3.33854e-06
2.97012e-05
-1.54976e-06
3.03709e-05
-1.2753e-06
3.12748e-05
-1.72372e-06
3.19694e-05
-1.39267e-06
3.22565e-05
-1.10523e-06
3.26273e-05
8.29931e-07
3.27206e-05
-1.24413e-06
2.6472e-07
3.21241e-05
2.73065e-05
-6.8659e-06
2.89989e-05
-5.03096e-06
2.97523e-05
-2.3031e-06
3.04487e-05
-1.97175e-06
3.13379e-05
-2.61287e-06
3.20443e-05
-2.09912e-06
3.23316e-05
-1.39247e-06
3.26113e-05
5.50234e-07
3.26061e-05
-1.23903e-06
-9.10431e-07
3.37813e-05
2.73884e-05
-9.25431e-06
2.8934e-05
-6.57653e-06
2.98343e-05
-3.20338e-06
3.06313e-05
-2.76876e-06
3.14215e-05
-3.40315e-06
3.19961e-05
-2.67363e-06
3.22015e-05
-1.59796e-06
3.24701e-05
2.81687e-07
3.26352e-05
-1.40415e-06
-1.12894e-06
3.28537e-05
2.74975e-05
-1.17518e-05
2.89005e-05
-7.97955e-06
2.99418e-05
-4.24469e-06
3.07627e-05
-3.58964e-06
3.11389e-05
-3.77935e-06
3.12327e-05
-2.76742e-06
3.11733e-05
-1.53854e-06
3.13142e-05
1.40742e-07
3.12675e-05
-1.35745e-06
-1.17551e-06
3.13141e-05
2.76327e-05
-1.43845e-05
2.88345e-05
-9.18132e-06
2.95788e-05
-4.98897e-06
2.9802e-05
-3.8129e-06
2.93856e-05
-3.36289e-06
2.88962e-05
-2.27807e-06
2.85543e-05
-1.19658e-06
2.85598e-05
1.35215e-07
2.83462e-05
-1.14389e-06
-1.1498e-06
2.83205e-05
2.74355e-05
-1.682e-05
2.77039e-05
-9.44973e-06
2.73793e-05
-4.66437e-06
2.66311e-05
-3.06476e-06
2.55993e-05
-2.33104e-06
2.48253e-05
-1.50413e-06
2.43925e-05
-7.63705e-07
2.43848e-05
1.42924e-07
2.40988e-05
-8.57891e-07
-7.83373e-07
2.37323e-05
2.56825e-05
-1.75025e-05
2.40959e-05
-7.86314e-06
2.26315e-05
-3.2e-06
2.13124e-05
-1.74565e-06
2.01491e-05
-1.16773e-06
1.93982e-05
-7.53234e-07
1.90189e-05
-3.84335e-07
1.90492e-05
1.12623e-07
1.87117e-05
-5.20457e-07
-3.69276e-07
1.82976e-05
2.10376e-05
-1.35401e-05
1.74548e-05
-4.28029e-06
1.55233e-05
-1.26853e-06
1.43023e-05
-5.2467e-07
1.34312e-05
-2.96646e-07
1.28924e-05
-2.14415e-07
1.26309e-05
-1.22827e-07
1.269e-05
5.35224e-08
1.23582e-05
-1.8869e-07
-9.26108e-08
1.20816e-05
1.14599e-05
7.17959e-06
5.91107e-06
5.3864e-06
5.08975e-06
4.87534e-06
4.75251e-06
4.80603e-06
4.61734e-06
4.52473e-06
5.36836e-06
2.51481e-06
-3.94668e-06
7.90568e-06
3.08307e-06
-5.62038e-06
1.23742e-05
5.37367e-06
-9.8422e-06
1.85314e-05
5.11186e-06
-1.12691e-05
2.22156e-05
9.68122e-06
-1.33655e-05
2.31465e-05
1.29918e-05
-1.39227e-05
2.42262e-05
1.06643e-06
-2.14613e-06
2.66426e-05
-1.97901e-05
1.73738e-05
2.88093e-05
-3.56728e-05
3.3506e-05
2.96906e-05
-3.74503e-05
3.6569e-05
2.76765e-05
-2.8433e-05
3.04471e-05
2.37549e-05
-2.11494e-05
2.5071e-05
2.07351e-05
-2.00731e-05
2.3093e-05
1.89614e-05
-2.13323e-05
2.3106e-05
1.77398e-05
-2.12049e-05
2.24264e-05
1.67485e-05
-1.89062e-05
1.98976e-05
1.59554e-05
-1.57368e-05
1.65299e-05
1.53874e-05
-1.26527e-05
1.32207e-05
1.49265e-05
-9.89811e-06
1.0359e-05
1.4499e-05
-7.65234e-06
8.07979e-06
1.41416e-05
-5.95799e-06
6.31545e-06
1.38835e-05
-4.69221e-06
4.95026e-06
1.3709e-05
-3.72194e-06
3.89646e-06
1.35891e-05
-2.96387e-06
3.08382e-06
1.35034e-05
-2.36689e-06
2.45255e-06
1.34411e-05
-1.89427e-06
1.95656e-06
1.33959e-05
-1.51805e-06
1.56325e-06
1.33634e-05
-1.21722e-06
1.24973e-06
1.33402e-05
-9.76049e-07
9.99277e-07
1.33236e-05
-7.82482e-07
7.99027e-07
1.33118e-05
-6.27063e-07
6.38847e-07
1.33034e-05
-5.02272e-07
5.10681e-07
1.32974e-05
-4.02084e-07
4.08104e-07
1.32931e-05
-3.21671e-07
3.25999e-07
1.329e-05
-2.57154e-07
2.60279e-07
1.32877e-05
-2.05408e-07
2.07676e-07
1.3286e-05
-1.63914e-07
1.6557e-07
1.32848e-05
-1.30653e-07
1.31869e-07
1.32839e-05
-1.03993e-07
1.04891e-07
1.32833e-05
-8.26246e-08
8.32917e-08
1.32828e-05
-6.54887e-08
6.59859e-08
1.32824e-05
-5.17266e-08
5.20998e-08
1.32821e-05
-4.06535e-08
4.0936e-08
1.32819e-05
-3.17213e-08
3.1935e-08
1.32817e-05
-2.44824e-08
2.4643e-08
1.32816e-05
-1.85696e-08
1.869e-08
1.32815e-05
-1.3687e-08
1.37771e-08
1.32814e-05
-9.59355e-09
9.65978e-09
1.32814e-05
-6.09095e-09
6.13791e-09
1.32814e-05
-3.01051e-09
3.0411e-09
1.32814e-05
-2.12452e-10
2.28733e-10
1.32814e-05
2.45543e-09
-2.45116e-09
1.32814e-05
5.093e-09
-5.10069e-09
1.32814e-05
7.80596e-09
-7.82553e-09
1.32814e-05
1.07035e-08
-1.07351e-08
1.32815e-05
1.38986e-08
-1.39437e-08
1.32815e-05
1.75095e-08
-1.75702e-08
1.32816e-05
2.16645e-08
-2.17434e-08
1.32817e-05
2.65091e-08
-2.66106e-08
1.32818e-05
3.22125e-08
-3.2343e-08
1.3282e-05
3.89673e-08
-3.91351e-08
1.32822e-05
4.70056e-08
-4.72219e-08
1.32825e-05
5.6587e-08
-5.68673e-08
1.32829e-05
6.80654e-08
-6.84308e-08
1.32833e-05
8.17445e-08
-8.22264e-08
1.3284e-05
9.83086e-08
-9.89407e-08
1.32848e-05
1.17739e-07
-1.18606e-07
1.32859e-05
1.42207e-07
-1.43301e-07
1.32876e-05
1.68796e-07
-1.70503e-07
1.32894e-05
2.07753e-07
-2.09465e-07
1.32934e-05
2.38311e-07
-2.42396e-07
1.32947e-05
3.13585e-07
-3.14886e-07
1.33076e-05
3.19526e-07
-3.3242e-07
1.33e-05
5.147e-07
-5.07074e-07
1.33482e-05
3.63783e-07
-4.12003e-07
1.32895e-05
9.81202e-07
-9.22498e-07
1.34612e-05
2.15934e-07
-3.87575e-07
1.31996e-05
2.14499e-06
-1.88343e-06
1.36826e-05
-3.82957e-07
-1.00087e-07
1.29048e-05
4.47759e-06
-3.69979e-06
1.38452e-05
-1.35317e-06
4.12827e-07
1.24603e-05
6.90957e-06
-5.52473e-06
1.37797e-05
-1.95481e-06
6.35423e-07
1.22695e-05
7.3281e-06
-5.81787e-06
1.35873e-05
-1.24543e-06
-7.23808e-08
1.26018e-05
5.84443e-06
-4.85892e-06
1.32619e-05
1.47956e-06
-2.13965e-06
1.26049e-05
5.72597e-06
-5.06892e-06
1.3463e-05
2.78716e-06
-3.64536e-06
1.23841e-05
7.63622e-06
-6.55723e-06
1.33233e-05
4.69171e-06
-5.63097e-06
1.27008e-05
9.1039e-06
-8.4814e-06
1.36739e-05
7.74594e-06
-8.71907e-06
1.29024e-05
1.3147e-05
-1.23754e-05
1.39649e-05
1.10642e-05
-1.21266e-05
1.23566e-05
1.99915e-05
-1.83832e-05
1.38505e-05
1.92718e-05
-2.07657e-05
1.10901e-05
3.27901e-05
-3.00296e-05
1.16935e-05
3.10988e-05
-3.17022e-05
5.99796e-05
-5.91112e-05
1.08251e-05
1.18315e-05
2.32893e-06
1.23266e-05
2.588e-06
1.50453e-05
2.65493e-06
1.88774e-05
1.27979e-06
2.13621e-05
7.19657e-06
2.36753e-05
1.06786e-05
2.6902e-05
-2.16025e-06
2.97856e-05
-2.26737e-05
3.03969e-05
-3.62841e-05
2.96324e-05
-3.66858e-05
2.77847e-05
-2.65853e-05
2.48971e-05
-1.82618e-05
2.24796e-05
-1.76556e-05
2.0751e-05
-1.96036e-05
1.91798e-05
-1.96337e-05
1.77572e-05
-1.74836e-05
1.65875e-05
-1.45671e-05
1.57689e-05
-1.18341e-05
1.52315e-05
-9.36065e-06
1.47975e-05
-7.21838e-06
1.44062e-05
-5.56665e-06
1.40873e-05
-4.37337e-06
1.38566e-05
-3.49119e-06
1.36976e-05
-2.8049e-06
1.35868e-05
-2.25609e-06
1.35073e-05
-1.81471e-06
1.3449e-05
-1.4598e-06
1.34061e-05
-1.17431e-06
1.33745e-05
-9.44433e-07
1.33512e-05
-7.59177e-07
1.3334e-05
-6.09844e-07
1.33212e-05
-4.89498e-07
1.33117e-05
-3.92559e-07
1.33045e-05
-3.14528e-07
1.32991e-05
-2.51768e-07
1.3295e-05
-2.01323e-07
1.32919e-05
-1.60799e-07
1.32895e-05
-1.28269e-07
1.32877e-05
-1.02159e-07
1.32863e-05
-8.12079e-08
1.32852e-05
-6.43917e-08
1.32843e-05
-5.08758e-08
1.32837e-05
-3.99923e-08
1.32832e-05
-3.12082e-08
1.32828e-05
-2.4086e-08
1.32825e-05
-1.82655e-08
1.32822e-05
-1.34561e-08
1.32821e-05
-9.42193e-09
1.32819e-05
-5.9686e-09
1.32819e-05
-2.93016e-09
1.32818e-05
-1.68653e-10
1.32818e-05
2.46714e-09
1.32818e-05
5.07378e-09
1.32819e-05
7.75606e-09
1.3282e-05
1.06224e-08
1.32821e-05
1.37838e-08
1.32822e-05
1.7357e-08
1.32824e-05
2.14687e-08
1.32827e-05
2.62623e-08
1.3283e-05
3.19035e-08
1.32834e-05
3.85821e-08
1.32838e-05
4.65255e-08
1.32844e-05
5.59886e-08
1.32852e-05
6.7315e-08
1.32861e-05
8.08021e-08
1.32873e-05
9.71129e-08
1.32889e-05
1.16213e-07
1.32908e-05
1.40268e-07
1.32934e-05
1.66171e-07
1.32965e-05
2.0469e-07
1.33018e-05
2.33029e-07
1.33055e-05
3.099e-07
1.33199e-05
3.05056e-07
1.33167e-05
5.17952e-07
1.33696e-05
3.10881e-07
1.33165e-05
1.03431e-06
1.35174e-05
1.50377e-08
1.32453e-05
2.41701e-06
1.3852e-05
-9.89583e-07
1.29887e-05
5.34085e-06
1.41502e-05
-2.51463e-06
1.25882e-05
8.4715e-06
1.40676e-05
-3.43415e-06
1.23309e-05
9.06477e-06
1.39037e-05
-2.81829e-06
1.24751e-05
7.27309e-06
1.35033e-05
4.5137e-07
1.23413e-05
6.88792e-06
1.32654e-05
1.86311e-06
1.19447e-05
8.9569e-06
1.32174e-05
3.41897e-06
1.23267e-05
9.99462e-06
1.35684e-05
6.5043e-06
1.23062e-05
1.44092e-05
1.30781e-05
1.02923e-05
1.10538e-05
2.20158e-05
1.33629e-05
1.69626e-05
1.37732e-05
3.23798e-05
1.8622e-05
2.625e-05
6.03201e-05
1.82815e-05
1.82042e-05
2.5144e-06
1.80825e-05
2.70973e-06
1.98999e-05
8.3749e-07
2.20235e-05
-8.43824e-07
2.43069e-05
4.91321e-06
2.77825e-05
7.20299e-06
3.09057e-05
-5.28344e-06
3.16622e-05
-2.34303e-05
2.92889e-05
-3.39108e-05
2.58815e-05
-3.32784e-05
2.43538e-05
-2.50577e-05
2.42056e-05
-1.81136e-05
2.39283e-05
-1.73783e-05
2.28055e-05
-1.84808e-05
2.09022e-05
-1.77304e-05
1.89062e-05
-1.54876e-05
1.72881e-05
-1.29491e-05
1.61428e-05
-1.06888e-05
1.54315e-05
-8.64938e-06
1.49709e-05
-6.7577e-06
1.4595e-05
-5.1908e-06
1.42658e-05
-4.04411e-06
1.40014e-05
-3.22686e-06
1.38071e-05
-2.61061e-06
1.36694e-05
-2.11835e-06
1.35712e-05
-1.71648e-06
1.34997e-05
-1.3883e-06
1.34468e-05
-1.12141e-06
1.34073e-05
-9.04927e-07
1.33776e-05
-7.29527e-07
1.33553e-05
-5.87495e-07
1.33384e-05
-4.72577e-07
1.33255e-05
-3.79684e-07
1.33156e-05
-3.04681e-07
1.33081e-05
-2.44201e-07
1.33022e-05
-1.95481e-07
1.32977e-05
-1.56271e-07
1.32942e-05
-1.24747e-07
1.32914e-05
-9.94123e-08
1.32893e-05
-7.90588e-08
1.32876e-05
-6.27087e-08
1.32863e-05
-4.95578e-08
1.32852e-05
-3.89597e-08
1.32844e-05
-3.04004e-08
1.32838e-05
-2.34576e-08
1.32833e-05
-1.77809e-08
1.3283e-05
-1.30871e-08
1.32827e-05
-9.14704e-09
1.32825e-05
-5.77217e-09
1.32824e-05
-2.8005e-09
1.32823e-05
-9.79153e-11
1.32823e-05
2.48619e-09
1.32823e-05
5.04289e-09
1.32824e-05
7.67601e-09
1.32825e-05
1.04922e-08
1.32827e-05
1.36e-08
1.32829e-05
1.71135e-08
1.32832e-05
2.11573e-08
1.32836e-05
2.58718e-08
1.32841e-05
3.14182e-08
1.32847e-05
3.79825e-08
1.32855e-05
4.57857e-08
1.32864e-05
5.50776e-08
1.32875e-05
6.61866e-08
1.32889e-05
7.94095e-08
1.32906e-05
9.53648e-08
1.32928e-05
1.14051e-07
1.32956e-05
1.37493e-07
1.3299e-05
1.62703e-07
1.33035e-05
2.00224e-07
1.33097e-05
2.26881e-07
1.33162e-05
3.03339e-07
1.33306e-05
2.90669e-07
1.33348e-05
5.13744e-07
1.3384e-05
2.61733e-07
1.33535e-05
1.06476e-06
1.35482e-05
-1.79659e-07
1.33362e-05
2.62907e-06
1.39979e-05
-1.6513e-06
1.31857e-05
6.15304e-06
1.46885e-05
-4.01739e-06
1.30519e-05
1.01081e-05
1.50445e-05
-5.42683e-06
1.3465e-05
1.06443e-05
1.52908e-05
-4.64409e-06
1.39665e-05
8.5973e-06
1.53273e-05
-9.09422e-07
1.36621e-05
8.55316e-06
1.48611e-05
6.64083e-07
1.29395e-05
1.08785e-05
1.42995e-05
2.05894e-06
1.29828e-05
1.13113e-05
1.45731e-05
4.91405e-06
1.3852e-05
1.51303e-05
1.59044e-05
8.23985e-06
1.48807e-05
2.30394e-05
1.6677e-05
1.51663e-05
1.4425e-05
3.46318e-05
2.02381e-05
2.04369e-05
5.89329e-05
2.16253e-05
2.42701e-05
2.41745e-06
2.40132e-05
2.96665e-06
2.47075e-05
1.4319e-07
2.59799e-05
-2.11619e-06
2.8367e-05
2.52605e-06
3.20753e-05
3.4947e-06
3.45455e-05
-7.75362e-06
3.34748e-05
-2.23595e-05
2.88656e-05
-2.93015e-05
2.33853e-05
-2.77981e-05
2.17004e-05
-2.33728e-05
2.35233e-05
-1.99364e-05
2.47897e-05
-1.86448e-05
2.41164e-05
-1.78074e-05
2.21335e-05
-1.57476e-05
1.9817e-05
-1.31711e-05
1.79107e-05
-1.10428e-05
1.65408e-05
-9.31895e-06
1.56273e-05
-7.73588e-06
1.50596e-05
-6.19e-06
1.46784e-05
-4.80951e-06
1.43726e-05
-3.73836e-06
1.41138e-05
-2.96805e-06
1.39058e-05
-2.40266e-06
1.37485e-05
-1.961e-06
1.36329e-05
-1.60092e-06
1.35482e-05
-1.30361e-06
1.34855e-05
-1.05865e-06
1.34384e-05
-8.5786e-07
1.34028e-05
-6.93896e-07
1.33756e-05
-5.60334e-07
1.33548e-05
-4.51756e-07
1.33388e-05
-3.63643e-07
1.33263e-05
-2.92266e-07
1.33167e-05
-2.34553e-07
1.33092e-05
-1.87956e-07
1.33033e-05
-1.50383e-07
1.32987e-05
-1.2013e-07
1.3295e-05
-9.57836e-08
1.32922e-05
-7.62014e-08
1.32899e-05
-6.04576e-08
1.32882e-05
-4.7786e-08
1.32868e-05
-3.75663e-08
1.32857e-05
-2.93068e-08
1.32848e-05
-2.2604e-08
1.32842e-05
-1.71207e-08
1.32836e-05
-1.25833e-08
1.32833e-05
-8.77136e-09
1.3283e-05
-5.50351e-09
1.32828e-05
-2.62302e-09
1.32827e-05
-1.56795e-12
1.32827e-05
2.51209e-09
1.32827e-05
5.00011e-09
1.32829e-05
7.5658e-09
1.3283e-05
1.03133e-08
1.32833e-05
1.3348e-08
1.32836e-05
1.67804e-08
1.3284e-05
2.07324e-08
1.32846e-05
2.53402e-08
1.32852e-05
3.076e-08
1.3286e-05
3.71728e-08
1.3287e-05
4.47918e-08
1.32883e-05
5.3861e-08
1.32898e-05
6.46893e-08
1.32916e-05
7.75794e-08
1.32939e-05
9.30784e-08
1.32966e-05
1.11281e-07
1.33002e-05
1.33895e-07
1.33045e-05
1.5848e-07
1.33104e-05
1.94299e-07
1.3317e-05
2.20222e-07
1.33269e-05
2.93441e-07
1.33397e-05
2.77878e-07
1.33535e-05
4.99937e-07
1.33925e-05
2.22749e-07
1.33958e-05
1.06146e-06
1.35505e-05
-3.34353e-07
1.34691e-05
2.71048e-06
1.40071e-05
-2.18927e-06
1.35602e-05
6.59995e-06
1.48892e-05
-5.34648e-06
1.37998e-05
1.11976e-05
1.58806e-05
-7.50765e-06
1.49371e-05
1.15878e-05
1.72061e-05
-6.91308e-06
1.60447e-05
9.75869e-06
1.82676e-05
-3.13227e-06
1.61521e-05
1.06686e-05
1.81052e-05
-1.28898e-06
1.5487e-05
1.34967e-05
1.71518e-05
3.94211e-07
1.40112e-05
1.44518e-05
1.47379e-05
4.18737e-06
1.18792e-05
1.7989e-05
1.41902e-05
5.92891e-06
1.48926e-05
2.2337e-05
1.9046e-05
1.1013e-05
1.9577e-05
3.41008e-05
2.53099e-05
1.4704e-05
5.78534e-05
2.63894e-05
2.8888e-05
1.90972e-06
2.95537e-05
2.30096e-06
3.07054e-05
-1.00851e-06
3.12204e-05
-2.63126e-06
3.19936e-05
1.75285e-06
3.48241e-05
6.64181e-07
3.71106e-05
-1.00401e-05
3.55193e-05
-2.07682e-05
3.1141e-05
-2.49233e-05
2.63377e-05
-2.29948e-05
2.40351e-05
-2.10702e-05
2.48285e-05
-2.07299e-05
2.53769e-05
-1.91932e-05
2.41612e-05
-1.65916e-05
2.21086e-05
-1.36951e-05
1.99524e-05
-1.10148e-05
1.81594e-05
-9.24984e-06
1.68518e-05
-8.01136e-06
1.58845e-05
-6.76858e-06
1.51869e-05
-5.49237e-06
1.47229e-05
-4.34551e-06
1.44093e-05
-3.42474e-06
1.41704e-05
-2.72919e-06
1.39739e-05
-2.20612e-06
1.38138e-05
-1.80093e-06
1.36886e-05
-1.47572e-06
1.35935e-05
-1.20848e-06
1.35218e-05
-9.87036e-07
1.34677e-05
-8.0375e-07
1.34265e-05
-6.5268e-07
1.33949e-05
-5.28686e-07
1.33704e-05
-4.27292e-07
1.33514e-05
-3.44635e-07
1.33366e-05
-2.77432e-07
1.33249e-05
-2.22938e-07
1.33158e-05
-1.78833e-07
1.33086e-05
-1.43201e-07
1.3303e-05
-1.14465e-07
1.32985e-05
-9.13111e-08
1.3295e-05
-7.26656e-08
1.32922e-05
-5.76617e-08
1.329e-05
-4.5578e-08
1.32882e-05
-3.58256e-08
1.32869e-05
-2.79379e-08
1.32858e-05
-2.15334e-08
1.3285e-05
-1.62914e-08
1.32843e-05
-1.19499e-08
1.32838e-05
-8.29895e-09
1.32835e-05
-5.16561e-09
1.32833e-05
-2.39982e-09
1.32832e-05
1.19248e-10
1.32831e-05
2.54412e-09
1.32832e-05
4.94514e-09
1.32833e-05
7.42571e-09
1.32836e-05
1.00866e-08
1.32839e-05
1.3029e-08
1.32843e-05
1.63596e-08
1.32848e-05
2.01963e-08
1.32855e-05
2.46709e-08
1.32863e-05
2.99331e-08
1.32873e-05
3.61585e-08
1.32886e-05
4.35507e-08
1.32901e-05
5.23477e-08
1.3292e-05
6.28344e-08
1.32942e-05
7.53265e-08
1.3297e-05
9.02719e-08
1.33004e-05
1.07932e-07
1.33048e-05
1.29493e-07
1.33096e-05
1.53597e-07
1.33171e-05
1.86832e-07
1.33238e-05
2.13561e-07
1.33379e-05
2.79333e-07
1.33465e-05
2.69276e-07
1.3374e-05
4.72423e-07
1.33935e-05
2.03264e-07
1.34398e-05
1.01515e-06
1.35385e-05
-4.33018e-07
1.35924e-05
2.65653e-06
1.40183e-05
-2.61512e-06
1.39434e-05
6.67479e-06
1.50632e-05
-6.46627e-06
1.45508e-05
1.171e-05
1.63743e-05
-9.33119e-06
1.58038e-05
1.21584e-05
1.82991e-05
-9.40848e-06
1.7048e-05
1.10098e-05
1.99842e-05
-6.06842e-06
1.84777e-05
1.21751e-05
2.12574e-05
-4.0686e-06
1.96474e-05
1.51066e-05
2.33813e-05
-3.33964e-06
2.07246e-05
1.71085e-05
2.27794e-05
2.13253e-06
1.95141e-05
2.12543e-05
2.00824e-05
5.36053e-06
1.63131e-05
2.61063e-05
1.83443e-05
8.98178e-06
1.69282e-05
3.55169e-05
2.29994e-05
8.63272e-06
5.21767e-05
2.86761e-05
3.12758e-05
1.51879e-06
3.22005e-05
1.37621e-06
3.38358e-05
-2.64381e-06
3.43248e-05
-3.12019e-06
3.48053e-05
1.27233e-06
3.70726e-05
-1.60311e-06
3.80543e-05
-1.10218e-05
3.55712e-05
-1.82852e-05
3.20896e-05
-2.14417e-05
2.94263e-05
-2.03315e-05
2.72708e-05
-1.89147e-05
2.62457e-05
-1.97048e-05
2.55018e-05
-1.84492e-05
2.36239e-05
-1.47138e-05
2.13921e-05
-1.14632e-05
1.95447e-05
-9.16742e-06
1.80851e-05
-7.79032e-06
1.7011e-05
-6.93722e-06
1.61778e-05
-5.93534e-06
1.54488e-05
-4.76336e-06
1.48624e-05
-3.75911e-06
1.44595e-05
-3.02189e-06
1.41962e-05
-2.4659e-06
1.40072e-05
-2.0171e-06
1.38561e-05
-1.64986e-06
1.37322e-05
-1.35174e-06
1.36327e-05
-1.10897e-06
1.35549e-05
-9.09231e-07
1.34948e-05
-7.43722e-07
1.34486e-05
-6.06451e-07
1.34128e-05
-4.92932e-07
1.3385e-05
-3.99479e-07
1.33633e-05
-3.22886e-07
1.33462e-05
-2.60355e-07
1.33328e-05
-2.09485e-07
1.33221e-05
-1.68212e-07
1.33137e-05
-1.34801e-07
1.33071e-05
-1.07814e-07
1.33018e-05
-8.60396e-08
1.32976e-05
-6.8486e-08
1.32943e-05
-5.43483e-08
1.32917e-05
-4.29553e-08
1.32896e-05
-3.37544e-08
1.3288e-05
-2.6307e-08
1.32867e-05
-2.02561e-08
1.32857e-05
-1.53009e-08
1.3285e-05
-1.11931e-08
1.32844e-05
-7.7345e-09
1.3284e-05
-4.762e-09
1.32837e-05
-2.13374e-09
1.32836e-05
2.63478e-10
1.32836e-05
2.58103e-09
1.32836e-05
4.87755e-09
1.32838e-05
7.25599e-09
1.32841e-05
9.81297e-09
1.32844e-05
1.26447e-08
1.3285e-05
1.58533e-08
1.32856e-05
1.95524e-08
1.32864e-05
2.38677e-08
1.32874e-05
2.89426e-08
1.32886e-05
3.4946e-08
1.32901e-05
4.20705e-08
1.32919e-05
5.05479e-08
1.32941e-05
6.06354e-08
1.32967e-05
7.2667e-08
1.33e-05
8.69687e-08
1.33039e-05
1.0403e-07
1.33091e-05
1.24325e-07
1.33146e-05
1.48124e-07
1.33236e-05
1.77801e-07
1.33298e-05
2.07361e-07
1.33492e-05
2.59968e-07
1.33498e-05
2.68706e-07
1.33999e-05
4.22305e-07
1.33749e-05
2.2827e-07
1.35096e-05
8.80464e-07
1.34396e-05
-3.63082e-07
1.37683e-05
2.32786e-06
1.37768e-05
-2.62368e-06
1.42485e-05
6.20313e-06
1.48644e-05
-7.08214e-06
1.45011e-05
1.20733e-05
1.6173e-05
-1.10031e-05
1.45455e-05
1.37858e-05
1.7245e-05
-1.21079e-05
1.5255e-05
1.29998e-05
1.71541e-05
-7.9676e-06
1.6202e-05
1.31272e-05
1.87809e-05
-6.64758e-06
1.79396e-05
1.5948e-05
2.13147e-05
-6.71472e-06
2.10136e-05
1.74096e-05
2.50203e-05
-1.87419e-06
2.42543e-05
2.20203e-05
2.90403e-05
5.74519e-07
2.54596e-05
2.9687e-05
2.88356e-05
5.6058e-06
2.3938e-05
4.04145e-05
2.38147e-05
8.756e-06
4.74215e-05
2.85699e-05
3.27243e-05
1.28884e-06
3.34534e-05
6.47108e-07
3.38311e-05
-3.02151e-06
3.39427e-05
-3.2317e-06
3.53264e-05
-1.11382e-07
3.66813e-05
-2.95807e-06
3.64246e-05
-1.0765e-05
3.45276e-05
-1.63882e-05
3.16198e-05
-1.85338e-05
2.96759e-05
-1.83876e-05
2.79189e-05
-1.71578e-05
2.58494e-05
-1.76353e-05
2.44207e-05
-1.70205e-05
2.27685e-05
-1.30616e-05
2.08209e-05
-9.51557e-06
1.93459e-05
-7.6924e-06
1.81804e-05
-6.62488e-06
1.71952e-05
-5.95206e-06
1.64558e-05
-5.19586e-06
1.58161e-05
-4.12367e-06
1.51927e-05
-3.13579e-06
1.4666e-05
-2.4951e-06
1.4294e-05
-2.09395e-06
1.40508e-05
-1.77385e-06
1.38845e-05
-1.48365e-06
1.376e-05
-1.22723e-06
1.36612e-05
-1.01016e-06
1.35819e-05
-8.29872e-07
1.35186e-05
-6.80494e-07
1.34687e-05
-5.56533e-07
1.34295e-05
-4.537e-07
1.33987e-05
-3.68651e-07
1.33744e-05
-2.98613e-07
1.33552e-05
-2.41196e-07
1.33401e-05
-1.94326e-07
1.33281e-05
-1.56197e-07
1.33185e-05
-1.25265e-07
1.33109e-05
-1.00237e-07
1.33049e-05
-8.00198e-08
1.33001e-05
-6.37033e-08
1.32963e-05
-5.05493e-08
1.32933e-05
-3.99423e-08
1.32909e-05
-3.13716e-08
1.32891e-05
-2.44292e-08
1.32876e-05
-1.87844e-08
1.32865e-05
-1.41589e-08
1.32856e-05
-1.03201e-08
1.32849e-05
-7.08362e-09
1.32845e-05
-4.29683e-09
1.32842e-05
-1.82812e-09
1.3284e-05
4.30102e-10
1.32839e-05
2.6213e-09
1.3284e-05
4.79686e-09
1.32842e-05
7.05699e-09
1.32845e-05
9.49352e-09
1.3285e-05
1.21969e-08
1.32856e-05
1.52642e-08
1.32863e-05
1.8804e-08
1.32873e-05
2.29355e-08
1.32884e-05
2.77944e-08
1.32898e-05
3.35428e-08
1.32915e-05
4.03607e-08
1.32936e-05
4.84732e-08
1.32961e-05
5.81078e-08
1.32992e-05
6.96179e-08
1.3303e-05
8.31973e-08
1.33074e-05
9.95951e-08
1.33132e-05
1.18464e-07
1.33193e-05
1.42036e-07
1.33297e-05
1.67464e-07
1.33357e-05
2.01333e-07
1.33594e-05
2.36272e-07
1.33531e-05
2.75009e-07
1.34231e-05
3.52307e-07
1.33556e-05
2.95719e-07
1.35679e-05
6.68249e-07
1.3331e-05
-1.26264e-07
1.385e-05
1.80887e-06
1.34956e-05
-2.26929e-06
1.41298e-05
5.56897e-06
1.47093e-05
-7.66165e-06
1.37532e-05
1.30295e-05
1.60688e-05
-1.33188e-05
1.35209e-05
1.63338e-05
1.59073e-05
-1.44943e-05
1.4194e-05
1.47131e-05
1.52366e-05
-9.01023e-06
1.40241e-05
1.43397e-05
1.59131e-05
-8.53649e-06
1.40671e-05
1.77939e-05
1.62512e-05
-8.89884e-06
1.55143e-05
1.81466e-05
1.81537e-05
-4.51364e-06
1.74514e-05
2.27226e-05
2.29891e-05
-4.96317e-06
2.22092e-05
3.04669e-05
2.78732e-05
-5.82227e-08
2.82732e-05
4.00145e-05
2.75669e-05
9.4623e-06
4.46507e-05
3.03377e-05
3.31545e-05
1.05214e-06
3.36342e-05
1.6749e-07
3.36368e-05
-3.02412e-06
3.44736e-05
-4.06855e-06
3.63245e-05
-1.9623e-06
3.55543e-05
-2.18783e-06
3.34991e-05
-8.7098e-06
3.30804e-05
-1.59695e-05
3.23135e-05
-1.7767e-05
3.10401e-05
-1.71141e-05
2.93945e-05
-1.55122e-05
2.62259e-05
-1.44667e-05
2.3553e-05
-1.43476e-05
2.21417e-05
-1.16503e-05
2.08466e-05
-8.22049e-06
1.97698e-05
-6.6156e-06
1.87966e-05
-5.65165e-06
1.764e-05
-4.79539e-06
1.66387e-05
-4.19465e-06
1.59844e-05
-3.46932e-06
1.54856e-05
-2.63699e-06
1.50051e-05
-2.01462e-06
1.45681e-05
-1.65697e-06
1.42241e-05
-1.42985e-06
1.39794e-05
-1.23894e-06
1.38111e-05
-1.05888e-06
1.36926e-05
-8.91672e-07
1.36052e-05
-7.4251e-07
1.35382e-05
-6.13465e-07
1.34856e-05
-5.03925e-07
1.34439e-05
-4.12017e-07
1.34108e-05
-3.35526e-07
1.33844e-05
-2.7227e-07
1.33635e-05
-2.2024e-07
1.33468e-05
-1.77647e-07
1.33335e-05
-1.42917e-07
1.33229e-05
-1.14688e-07
1.33145e-05
-9.18121e-08
1.33078e-05
-7.3309e-08
1.33025e-05
-5.83612e-08
1.32982e-05
-4.62991e-08
1.32948e-05
-3.65671e-08
1.32922e-05
-2.87e-08
1.32901e-05
-2.23222e-08
1.32884e-05
-1.71319e-08
1.32871e-05
-1.28757e-08
1.32862e-05
-9.33916e-09
1.32854e-05
-6.3527e-09
1.32849e-05
-3.77505e-09
1.32846e-05
-1.4863e-09
1.32844e-05
6.16517e-10
1.32843e-05
2.66363e-09
1.32844e-05
4.70257e-09
1.32846e-05
6.82917e-09
1.3285e-05
9.12952e-09
1.32855e-05
1.16877e-08
1.32862e-05
1.45954e-08
1.3287e-05
1.79554e-08
1.32881e-05
2.18794e-08
1.32894e-05
2.64954e-08
1.3291e-05
3.19573e-08
1.32929e-05
3.8432e-08
1.32952e-05
4.61363e-08
1.32981e-05
5.52685e-08
1.33015e-05
6.61974e-08
1.33057e-05
7.89903e-08
1.33107e-05
9.4641e-08
1.33171e-05
1.12004e-07
1.33239e-05
1.35253e-07
1.33351e-05
1.56259e-07
1.33418e-05
1.94665e-07
1.33675e-05
2.10603e-07
1.33592e-05
2.83232e-07
1.34379e-05
2.7366e-07
1.33506e-05
3.82952e-07
1.35978e-05
4.21132e-07
1.32681e-05
2.03393e-07
1.38676e-05
1.20941e-06
1.3247e-05
-1.64874e-06
1.40374e-05
4.77862e-06
1.42887e-05
-7.91303e-06
1.35013e-05
1.38169e-05
1.60266e-05
-1.58441e-05
1.36053e-05
1.8755e-05
1.54574e-05
-1.63463e-05
1.47585e-05
1.5412e-05
1.5613e-05
-9.86477e-06
1.44241e-05
1.55287e-05
1.68414e-05
-1.09538e-05
1.48169e-05
1.98184e-05
1.71225e-05
-1.12044e-05
1.52478e-05
2.00213e-05
1.81501e-05
-7.41595e-06
1.52207e-05
2.5652e-05
1.87033e-05
-8.44571e-06
1.77218e-05
3.14484e-05
2.17569e-05
-4.09334e-06
2.47707e-05
3.70007e-05
2.63484e-05
7.88462e-06
4.03691e-05
3.063e-05
3.33098e-05
2.16531e-07
3.48369e-05
-1.35958e-06
3.4759e-05
-2.94625e-06
3.38851e-05
-3.19462e-06
3.46044e-05
-2.68166e-06
3.50865e-05
-2.66988e-06
3.37803e-05
-7.40359e-06
3.23033e-05
-1.44926e-05
3.08131e-05
-1.62768e-05
2.91975e-05
-1.54985e-05
2.86273e-05
-1.4942e-05
2.68909e-05
-1.27303e-05
2.40327e-05
-1.14894e-05
2.26469e-05
-1.02645e-05
2.19263e-05
-7.4999e-06
2.08757e-05
-5.56505e-06
1.97307e-05
-4.5066e-06
1.83095e-05
-3.37419e-06
1.67708e-05
-2.65599e-06
1.56459e-05
-2.34434e-06
1.50621e-05
-2.05325e-06
1.47737e-05
-1.72615e-06
1.45503e-05
-1.4336e-06
1.43175e-05
-1.1971e-06
1.40919e-05
-1.01329e-06
1.39012e-05
-8.68186e-07
1.37544e-05
-7.44895e-07
1.36458e-05
-6.33925e-07
1.35656e-05
-5.33193e-07
1.35051e-05
-4.43505e-07
1.34587e-05
-3.65583e-07
1.34224e-05
-2.99255e-07
1.33938e-05
-2.4364e-07
1.33711e-05
-1.97509e-07
1.3353e-05
-1.59543e-07
1.33385e-05
-1.28476e-07
1.3327e-05
-1.03163e-07
1.33178e-05
-8.26114e-08
1.33105e-05
-6.59671e-08
1.33046e-05
-5.25086e-08
1.32999e-05
-4.16375e-08
1.32962e-05
-3.28608e-08
1.32933e-05
-2.5763e-08
1.3291e-05
-2.00045e-08
1.32892e-05
-1.53138e-08
1.32878e-05
-1.14637e-08
1.32867e-05
-8.25994e-09
1.32859e-05
-5.54889e-09
1.32853e-05
-3.20218e-09
1.32849e-05
-1.11178e-09
1.32847e-05
8.20091e-10
1.32847e-05
2.70643e-09
1.32848e-05
4.59423e-09
1.3285e-05
6.57305e-09
1.32855e-05
8.72233e-09
1.3286e-05
1.11194e-08
1.32868e-05
1.38504e-08
1.32877e-05
1.70113e-08
1.32889e-05
2.07054e-08
1.32903e-05
2.50531e-08
1.32921e-05
3.01989e-08
1.32942e-05
3.62959e-08
1.32968e-05
4.35516e-08
1.32999e-05
5.21362e-08
1.33037e-05
6.24259e-08
1.33083e-05
7.43814e-08
1.33138e-05
8.91864e-08
1.33207e-05
1.05039e-07
1.33283e-05
1.27698e-07
1.33399e-05
1.44629e-07
1.33481e-05
1.86506e-07
1.33732e-05
1.85477e-07
1.33686e-05
2.8787e-07
1.34435e-05
1.9873e-07
1.33628e-05
4.63644e-07
1.36027e-05
1.81195e-07
1.32643e-05
5.41843e-07
1.38588e-05
6.14935e-07
1.31259e-05
-9.15844e-07
1.39614e-05
3.94313e-06
1.38851e-05
-7.83681e-06
1.32107e-05
1.44914e-05
1.57905e-05
-1.84239e-05
1.31284e-05
2.14171e-05
1.42824e-05
-1.75003e-05
1.40703e-05
1.5624e-05
1.44205e-05
-1.02149e-05
1.30392e-05
1.69099e-05
1.57346e-05
-1.36492e-05
1.38519e-05
2.17011e-05
1.5308e-05
-1.26605e-05
1.43435e-05
2.09857e-05
1.73538e-05
-1.04262e-05
1.55547e-05
2.74511e-05
1.81171e-05
-1.10081e-05
1.74568e-05
3.21087e-05
1.94447e-05
-6.08122e-06
2.22972e-05
3.41482e-05
2.36705e-05
6.51135e-06
3.46355e-05
2.94041e-05
3.4923e-05
-9.25472e-07
3.50835e-05
-1.52005e-06
3.29898e-05
-8.52611e-07
3.10175e-05
-1.22227e-06
3.24333e-05
-4.09744e-06
3.62128e-05
-6.44939e-06
3.61382e-05
-7.32898e-06
3.21091e-05
-1.04635e-05
2.94624e-05
-1.36301e-05
2.83535e-05
-1.43896e-05
2.85208e-05
-1.51094e-05
2.89884e-05
-1.31979e-05
2.70881e-05
-9.58913e-06
2.48049e-05
-7.98132e-06
2.35213e-05
-6.21627e-06
2.18047e-05
-3.84844e-06
1.98156e-05
-2.5175e-06
1.82147e-05
-1.77334e-06
1.68369e-05
-1.27815e-06
1.55824e-05
-1.08984e-06
1.46587e-05
-1.12958e-06
1.41647e-05
-1.23216e-06
1.3961e-05
-1.22988e-06
1.3883e-05
-1.11905e-06
1.38314e-05
-9.61688e-07
1.37716e-05
-8.08458e-07
1.37028e-05
-6.76028e-07
1.3633e-05
-5.64202e-07
1.35692e-05
-4.69367e-07
1.35143e-05
-3.88627e-07
1.34688e-05
-3.20045e-07
1.34317e-05
-2.62167e-07
1.34018e-05
-2.13712e-07
1.33777e-05
-1.73464e-07
1.33585e-05
-1.40262e-07
1.3343e-05
-1.1303e-07
1.33306e-05
-9.08008e-08
1.33208e-05
-7.27215e-08
1.33128e-05
-5.80618e-08
1.33065e-05
-4.61975e-08
1.33015e-05
-3.6605e-08
1.32975e-05
-2.88564e-08
1.32943e-05
-2.25878e-08
1.32918e-05
-1.74978e-08
1.32899e-05
-1.33471e-08
1.32883e-05
-9.93576e-09
1.32872e-05
-7.09238e-09
1.32863e-05
-4.67981e-09
1.32857e-05
-2.58412e-09
1.32853e-05
-7.08726e-10
1.3285e-05
1.03775e-09
1.3285e-05
2.74786e-09
1.32851e-05