/*--------------------------------*- C++ -*----------------------------------*\
| =========                 |                                                 |
| \\      /  F ield         | OpenFOAM: The Open Source CFD Toolbox           |
|  \\    /   O peration     | Version:  2.4.0                                 |
|   \\  /    A nd           | Web:      www.OpenFOAM.org                      |
|    \\/     M anipulation  |                                                 |
\*---------------------------------------------------------------------------*/
FoamFile
{
    version     2.0;
    format      ascii;
    class       volScalarField;
    location    "0.049";
    object      k_0;
}
// * * * * * * * * * * * * * * * * * * * * * * * * * * * * * * * * * * * * * //

dimensions      [0 2 -2 0 0 0 0];

internalField   nonuniform List<scalar> 
17600
(
9.28739
7.40944
5.12846
3.92973
3.34332
2.95323
2.68644
2.47857
2.32508
2.19086
2.12302
2.01435
1.97625
1.88386
1.86149
1.77669
1.77412
1.68245
1.78129
1.59466
4.50532
6.20636
5.8444
5.04685
4.42236
3.9322
3.59094
3.31826
3.11582
2.92711
2.83522
2.6796
2.6304
2.5086
2.47629
2.36655
2.34985
2.23224
2.27742
2.17497
1.32191
3.28404
3.99687
3.96017
3.77058
3.46226
3.22373
3.01054
2.85681
2.68548
2.61238
2.47062
2.42934
2.32357
2.29508
2.20258
2.18338
2.09198
2.07778
2.03706
0.207596
1.1956
1.92336
2.32501
2.51692
2.51367
2.47861
2.38884
2.32851
2.21286
2.17424
2.08067
2.05434
1.98098
1.96157
1.89879
1.88245
1.83359
1.77979
1.76054
0.0260193
0.27006
0.638306
0.962594
1.24619
1.42635
1.55239
1.5889
1.63375
1.61421
1.61507
1.58962
1.58564
1.55827
1.55224
1.52559
1.51719
1.50081
1.45971
1.43077
0.00274605
0.0443702
0.139073
0.263829
0.418914
0.56481
0.718005
0.798711
0.917337
0.953349
1.01193
1.03206
1.06801
1.07896
1.09759
1.10395
1.10975
1.11756
1.10735
1.08366
0.000280945
0.00634455
0.0216999
0.0465262
0.0935128
0.141946
0.230259
0.273925
0.364345
0.413111
0.469686
0.520962
0.563182
0.610322
0.638817
0.677151
0.692945
0.726122
0.729596
0.725013
4.89932e-05
0.000864566
0.00296117
0.00631375
0.0141148
0.0237903
0.0476404
0.0625622
0.0943133
0.124756
0.144017
0.184041
0.205831
0.249558
0.27211
0.314487
0.333195
0.369256
0.384716
0.391617
2.74043e-05
0.000143622
0.000457104
0.000835261
0.00171239
0.00305749
0.00676654
0.00965507
0.0156406
0.0248453
0.0300273
0.04213
0.0496008
0.0666072
0.0770929
0.0988557
0.111088
0.130044
0.142734
0.149766
2.42832e-05
4.98421e-05
0.000121855
0.000163044
0.000256978
0.000407993
0.000869625
0.00123087
0.00198382
0.00338802
0.00425533
0.00630549
0.00776339
0.0112509
0.0139402
0.0197968
0.0238834
0.0299546
0.0343255
0.0370215
2.31726e-05
3.56088e-05
7.10235e-05
7.72327e-05
9.06765e-05
0.00010742
0.000171757
0.000215882
0.000317354
0.000455469
0.000545875
0.000762016
0.00092668
0.00133112
0.0017251
0.00263449
0.00334314
0.00458101
0.00511359
0.00576765
2.25193e-05
3.17074e-05
5.61834e-05
6.23475e-05
6.74039e-05
6.93754e-05
7.97197e-05
8.79467e-05
0.000109212
0.000132466
0.000142713
0.00016298
0.000175235
0.000206281
0.000250604
0.000356277
0.000479038
0.00059254
0.000623928
0.000700464
2.19246e-05
2.962e-05
4.73674e-05
5.58905e-05
5.86836e-05
5.95665e-05
6.24912e-05
6.5725e-05
7.51589e-05
8.57959e-05
8.87949e-05
8.99856e-05
9.04026e-05
9.27031e-05
0.000103408
0.000130186
0.000156964
0.000162374
0.00016309
0.000168911
2.15285e-05
2.78858e-05
4.1515e-05
5.13609e-05
5.26896e-05
5.28775e-05
5.393e-05
5.74385e-05
6.47095e-05
6.97205e-05
7.03939e-05
7.03483e-05
6.99142e-05
7.02711e-05
7.41436e-05
8.77585e-05
9.9034e-05
0.000101272
0.00010182
0.000103029
2.11975e-05
2.66427e-05
3.84424e-05
4.65671e-05
4.73336e-05
4.7403e-05
4.8276e-05
5.15926e-05
5.65771e-05
5.94868e-05
5.98347e-05
5.97455e-05
5.92498e-05
5.92634e-05
6.04662e-05
6.67091e-05
7.47356e-05
7.65402e-05
7.8375e-05
8.15459e-05
2.09663e-05
2.57733e-05
3.58754e-05
4.27183e-05
4.35922e-05
4.36347e-05
4.41349e-05
4.61624e-05
5.00252e-05
5.23103e-05
5.2785e-05
5.28115e-05
5.24301e-05
5.21501e-05
5.24068e-05
5.48576e-05
5.9631e-05
6.16185e-05
6.64489e-05
6.74678e-05
2.0786e-05
2.51591e-05
3.39963e-05
3.94429e-05
4.04346e-05
4.07372e-05
4.16035e-05
4.26603e-05
4.49532e-05
4.67047e-05
4.72644e-05
4.73949e-05
4.72104e-05
4.68987e-05
4.6967e-05
4.79173e-05
5.02306e-05
5.38086e-05
5.57555e-05
5.43316e-05
2.06686e-05
2.48219e-05
3.23693e-05
3.75196e-05
3.89257e-05
3.91692e-05
3.93287e-05
3.96451e-05
4.11118e-05
4.29336e-05
4.36677e-05
4.38658e-05
4.37183e-05
4.31686e-05
4.31333e-05
4.33807e-05
4.46348e-05
4.81167e-05
4.77827e-05
4.8418e-05
2.0594e-05
2.45259e-05
3.17178e-05
3.6386e-05
3.7529e-05
3.77311e-05
3.78432e-05
3.80513e-05
3.91709e-05
4.07008e-05
4.1374e-05
4.15242e-05
4.13717e-05
4.07828e-05
4.06858e-05
4.07463e-05
4.17635e-05
4.38166e-05
4.35339e-05
4.741e-05
2.05583e-05
2.45458e-05
3.10568e-05
3.57152e-05
3.71398e-05
3.73987e-05
3.73492e-05
3.73221e-05
3.77868e-05
3.93518e-05
4.02404e-05
4.05071e-05
4.03982e-05
3.97946e-05
3.95276e-05
3.9563e-05
4.04915e-05
4.14268e-05
4.16652e-05
4.83348e-05
2.05613e-05
2.44892e-05
3.11609e-05
3.58042e-05
3.71074e-05
3.73332e-05
3.73004e-05
3.7286e-05
3.77315e-05
3.93211e-05
4.0251e-05
4.0549e-05
4.04605e-05
3.98983e-05
3.96507e-05
3.96602e-05
4.03104e-05
4.12084e-05
4.16939e-05
4.62767e-05
2.06009e-05
2.47464e-05
3.14374e-05
3.61133e-05
3.77375e-05
3.81703e-05
3.81648e-05
3.81228e-05
3.8437e-05
4.01044e-05
4.12941e-05
4.18269e-05
4.17825e-05
4.13734e-05
4.11399e-05
4.10776e-05
4.17578e-05
4.25753e-05
4.41558e-05
4.5733e-05
2.06817e-05
2.50229e-05
3.22358e-05
3.71944e-05
3.89899e-05
3.95524e-05
3.96671e-05
3.97501e-05
4.01721e-05
4.2147e-05
4.35968e-05
4.44248e-05
4.44233e-05
4.42713e-05
4.39913e-05
4.39734e-05
4.51767e-05
4.58081e-05
4.66914e-05
5.36247e-05
2.08075e-05
2.55436e-05
3.34501e-05
3.87996e-05
4.09246e-05
4.18423e-05
4.21475e-05
4.23954e-05
4.29612e-05
4.52994e-05
4.72347e-05
4.85673e-05
4.87883e-05
4.88019e-05
4.85244e-05
4.87499e-05
5.00711e-05
5.059e-05
5.20534e-05
5.77958e-05
2.09911e-05
2.61088e-05
3.51163e-05
4.16612e-05
4.40261e-05
4.50805e-05
4.54999e-05
4.59033e-05
4.67794e-05
5.00112e-05
5.25245e-05
5.46016e-05
5.51242e-05
5.51812e-05
5.50817e-05
5.60247e-05
5.65528e-05
5.80144e-05
6.33579e-05
6.89229e-05
2.1246e-05
2.69255e-05
3.73048e-05
4.59335e-05
4.86417e-05
4.95186e-05
4.97626e-05
5.01343e-05
5.1309e-05
5.66721e-05
6.07346e-05
6.36458e-05
6.40937e-05
6.42052e-05
6.44158e-05
6.5586e-05
6.66164e-05
7.31148e-05
7.52597e-05
7.94121e-05
2.15451e-05
2.81547e-05
3.99944e-05
5.14575e-05
5.45136e-05
5.49092e-05
5.47728e-05
5.48767e-05
5.66769e-05
6.69522e-05
7.45779e-05
7.8044e-05
7.80725e-05
7.81954e-05
7.8746e-05
8.02359e-05
8.55376e-05
9.59668e-05
9.77246e-05
0.000105612
2.18493e-05
2.94262e-05
4.4919e-05
5.70773e-05
6.04856e-05
6.04121e-05
6.06024e-05
6.13618e-05
6.64499e-05
8.74684e-05
9.98249e-05
0.000105166
0.000105291
0.000106332
0.000109193
0.000120107
0.000142758
0.000179199
0.000213443
0.000315439
2.23566e-05
3.10959e-05
5.44546e-05
6.24628e-05
6.66822e-05
6.77494e-05
7.44664e-05
8.2922e-05
0.000104791
0.000150352
0.000171075
0.000201743
0.000213714
0.000246443
0.000290583
0.000428483
0.000572164
0.000917743
0.00124943
0.00216082
2.31797e-05
3.39478e-05
6.8009e-05
7.57672e-05
8.7375e-05
0.000103444
0.000166459
0.000218202
0.000330865
0.000529312
0.000644799
0.000917073
0.00109281
0.00157149
0.00203259
0.00328359
0.00431795
0.00687892
0.00894812
0.0149412
2.38932e-05
4.64998e-05
0.000110934
0.000162927
0.000242406
0.00039934
0.000896637
0.0012855
0.00205167
0.00370615
0.00467441
0.0069581
0.00846101
0.0124004
0.0153971
0.0228134
0.0277686
0.039717
0.0478016
0.0738473
2.74696e-05
0.000138997
0.000430617
0.000873288
0.0015846
0.0030196
0.00703314
0.0099333
0.0155576
0.0259665
0.0314812
0.0442632
0.0517206
0.0699617
0.0809762
0.106455
0.120694
0.154477
0.174358
0.231264
5.05625e-05
0.000854343
0.0030592
0.00658425
0.0128144
0.0237295
0.0485506
0.0629565
0.0934581
0.128176
0.147359
0.188404
0.209795
0.255637
0.278474
0.327064
0.351533
0.408349
0.436929
0.512043
0.000285943
0.0062565
0.0233476
0.0462163
0.0892674
0.145577
0.227638
0.272417
0.365695
0.421125
0.468862
0.530866
0.566899
0.61921
0.645922
0.693615
0.718124
0.770934
0.795864
0.855914
0.00276528
0.0434805
0.14425
0.256129
0.417927
0.566094
0.715927
0.799235
0.920167
0.960383
1.012
1.04242
1.07079
1.08796
1.10544
1.11973
1.13687
1.1588
1.17552
1.19638
0.0261678
0.263735
0.646396
0.952303
1.25024
1.42602
1.55339
1.58863
1.63794
1.618
1.61798
1.59542
1.58945
1.56395
1.55906
1.53829
1.53814
1.52722
1.52459
1.51286
0.208725
1.19111
1.93136
2.31493
2.52324
2.51378
2.47999
2.3866
2.3331
2.21387
2.17673
2.08226
2.05568
1.98367
1.96423
1.90574
1.89112
1.84146
1.82013
1.78043
1.3281
3.27641
4.00088
3.95622
3.78057
3.44937
3.23567
3.00339
2.86478
2.67885
2.61498
2.4658
2.42754
2.31889
2.28944
2.19412
2.1651
2.06953
2.03092
1.94793
4.50992
6.19934
5.84662
5.04034
4.4384
3.91558
3.60746
3.30724
3.12413
2.91459
2.83951
2.66405
2.62318
2.48847
2.45396
2.32445
2.28246
2.13991
2.08493
1.94136
9.29167
7.40397
5.13221
3.92362
3.35496
2.93979
2.69891
2.46834
2.33037
2.17718
2.12407
1.99296
1.9626
1.84631
1.81869
1.69587
1.65257
1.50633
1.44239
1.27182
1.03331
0.807546
0.696282
0.669505
0.630192
0.610427
0.575798
0.568811
0.544589
0.57423
0.600386
0.660807
0.465185
0.293987
0.276176
0.280392
0.260359
0.222026
0.196017
0.164081
0.153799
0.142495
0.121752
0.112455
0.0939835
0.0884302
0.0813098
0.0709488
0.063932
0.0605637
0.0604406
0.0618514
0.0705247
0.0785367
0.0918024
0.1227
0.145397
0.143732
0.128185
0.0795026
0.0353875
0.0142217
0.00572086
0.00251539
0.00135147
0.000980655
0.000931086
0.000969034
0.00112716
0.00158974
0.00270214
0.00499374
0.00692505
0.00781723
0.00992943
0.0104516
0.0100209
0.0089121
0.0085895
0.00890502
0.00905068
0.00884261
0.00789863
0.00688752
0.00638705
0.00602895
0.00562389
0.00521939
0.00490049
0.00471117
0.00460529
0.00445766
0.00404519
0.00357051
0.0032167
0.00299485
0.00287443
0.00280811
0.00277176
0.00275004
0.00273364
0.00272689
0.00273018
0.00274504
0.00275935
0.00276351
0.00276226
0.00275105
0.00270555
0.00251805
0.00219644
0.00186281
0.00153134
0.00121903
0.000940167
0.000703671
0.000512194
0.000363411
0.000252009
0.000171214
0.000114333
7.5196e-05
4.89079e-05
3.15058e-05
2.01769e-05
1.29197e-05
8.20257e-06
5.34448e-06
3.36501e-06
2.29431e-06
1.4594e-06
1.03891e-06
7.35765e-07
5.19315e-07
4.81625e-07
3.89239e-07
4.32826e-07
4.78336e-07
5.54583e-07
7.33406e-07
7.13262e-07
7.50082e-07
7.50192e-07
7.73884e-07
8.60057e-07
1.04751e-06
1.4514e-06
1.64901e-06
2.15968e-06
2.30363e-06
2.64804e-06
2.76327e-06
3.04183e-06
3.17085e-06
3.46217e-06
3.65699e-06
4.15667e-06
4.38568e-06
4.98891e-06
5.31121e-06
6.156e-06
6.59276e-06
7.76631e-06
8.30369e-06
9.79024e-06
1.04599e-05
1.2159e-05
1.29275e-05
1.49499e-05
1.60302e-05
1.88463e-05
2.02626e-05
2.39263e-05
2.58141e-05
3.08561e-05
3.344e-05
4.05288e-05
4.37478e-05
5.28905e-05
5.67596e-05
6.92173e-05
7.35642e-05
8.94667e-05
9.43798e-05
0.000114621
0.000118625
0.000138838
0.000141516
0.000154124
0.000143719
0.000143325
0.000119573
0.000103485
7.43576e-05
6.40325e-05
5.46798e-05
5.72703e-05
6.38703e-05
7.39195e-05
0.000106741
0.000113389
0.000153834
0.000133818
0.000130273
9.89209e-05
9.30861e-05
9.85506e-05
0.000109569
0.000163644
0.000127604
0.000127784
0.000164376
0.000198271
0.000294492
0.000408115
0.000810407
0.00196065
0.00479582
0.0290344
0.508241
1.63139
1.23787
0.998242
0.871321
0.75808
0.702892
0.620842
0.597261
0.556216
0.559779
0.562349
0.623039
0.657646
0.489217
0.294812
0.259556
0.236556
0.217089
0.17883
0.133858
0.130874
0.12691
0.118627
0.109481
0.0945222
0.0855011
0.0753883
0.0672432
0.0634831
0.063598
0.0649514
0.0721953
0.0817879
0.0953792
0.125055
0.151423
0.152669
0.142695
0.101174
0.0458431
0.0180738
0.00723994
0.00318665
0.00159625
0.00104612
0.000909574
0.000918391
0.00104756
0.00150774
0.00254889
0.00547305
0.00876652
0.0127676
0.0146461
0.0157069
0.0154929
0.0147024
0.0121742
0.0100959
0.00965187
0.00970851
0.00959004
0.00901262
0.00763008
0.00668468
0.00602743
0.00553397
0.00520914
0.00500043
0.00487288
0.00476916
0.00456124
0.00407303
0.00359741
0.00325749
0.00304216
0.00289047
0.00276791
0.00268347
0.0026509
0.00265654
0.00274963
0.00286088
0.00292756
0.00297094
0.0029961
0.00300299
0.00298949
0.00287667
0.0025576
0.00221312
0.00186617
0.00152859
0.00121528
0.000937962
0.000703478
0.000513547
0.00036564
0.000254468
0.0001735
0.00011624
7.66728e-05
5.00101e-05
3.2281e-05
2.07394e-05
1.33138e-05
8.489e-06
5.60169e-06
3.52822e-06
2.53396e-06
1.58836e-06
1.282e-06
8.89068e-07
7.77452e-07
6.67286e-07
6.18082e-07
6.19793e-07
5.84898e-07
5.57195e-07
5.29716e-07
4.82613e-07
4.51128e-07
4.51194e-07
4.92363e-07
5.86261e-07
7.37789e-07
1.00277e-06
1.07301e-06
1.23637e-06
1.24985e-06
1.29334e-06
1.32321e-06
1.39271e-06
1.47679e-06
1.50999e-06
1.57399e-06
1.68434e-06
1.74834e-06
1.85393e-06
1.93994e-06
2.04125e-06
2.18807e-06
2.41367e-06
2.53241e-06
2.78018e-06
2.93393e-06
3.29737e-06
3.52123e-06
4.01437e-06
4.30649e-06
4.96328e-06
5.39186e-06
6.41334e-06
7.08438e-06
8.35517e-06
1.00551e-05
1.17467e-05
1.52482e-05
1.81799e-05
2.44348e-05
2.91346e-05
4.00693e-05
4.69476e-05
6.47537e-05
7.41775e-05
9.90301e-05
0.000112418
0.000146723
0.000154822
0.000192993
0.000201556
0.000242325
0.000241406
0.000247558
0.000214534
0.000191207
0.000132333
0.00010367
8.94118e-05
9.43136e-05
0.000113545
0.000130491
0.000194263
0.000170005
0.000181178
0.000136029
0.00012156
0.000127136
0.000144234
0.000211849
0.000164886
0.000174961
0.000226352
0.000295992
0.000458495
0.000853444
0.0019613
0.00431853
0.0342262
0.365349
1.68091
1.33791
1.08938
0.945535
0.799667
0.729571
0.639289
0.595528
0.560577
0.540732
0.546731
0.548754
0.614355
0.617542
0.505871
0.304864
0.236854
0.202259
0.147019
0.11585
0.105561
0.0995882
0.100115
0.0980744
0.0934328
0.0841334
0.0741903
0.0704381
0.0704997
0.0722778
0.0778836
0.0892972
0.10364
0.133885
0.160508
0.161939
0.154445
0.122078
0.0548685
0.0218555
0.00882471
0.00389986
0.00192757
0.00116045
0.000929478
0.000898394
0.000985666
0.00138294
0.00253745
0.00492383
0.0110515
0.0165779
0.023622
0.026194
0.025626
0.0237756
0.0214287
0.017356
0.0130723
0.0108937
0.010399
0.0101849
0.00976454
0.00857786
0.00712153
0.00613201
0.00553242
0.00521413
0.00507038
0.00498444
0.00488084
0.00461586
0.00413651
0.00367266
0.00330388
0.00304859
0.00286776
0.0027128
0.00259516
0.00254326
0.00254671
0.00265273
0.00297451
0.00321706
0.00333144
0.00336318
0.00336309
0.00333351
0.00316291
0.00274072
0.00232424
0.00192876
0.00156208
0.00123244
0.000946774
0.000708427
0.000516833
0.000368159
0.000256566
0.000175259
0.000117683
7.77961e-05
5.08839e-05
3.29022e-05
2.12299e-05
1.36483e-05
8.77383e-06
5.82853e-06
3.71423e-06
2.73931e-06
1.74552e-06
1.47528e-06
1.06117e-06
9.70073e-07
8.69572e-07
8.24793e-07
8.44942e-07
8.11841e-07
7.86036e-07
8.32449e-07
8.86308e-07
1.08209e-06
1.3451e-06
2.15483e-06
2.37045e-06
2.9076e-06
3.01567e-06
2.97712e-06
3.09021e-06
3.25586e-06
3.3265e-06
3.28622e-06
3.45729e-06
3.49047e-06
3.65273e-06
3.69156e-06
3.85322e-06
3.94331e-06
4.19554e-06
4.24783e-06
4.48895e-06
4.57507e-06
4.80161e-06
4.9346e-06
5.23066e-06
5.42083e-06
5.88595e-06
6.18156e-06
6.43709e-06
6.91852e-06
7.15527e-06
7.62754e-06
7.89628e-06
8.49485e-06
8.76394e-06
9.5101e-06
9.80548e-06
1.05551e-05
1.09044e-05
1.18519e-05
1.25423e-05
1.41164e-05
1.55879e-05
1.90455e-05
2.22529e-05
3.04027e-05
3.86131e-05
5.17008e-05
8.52472e-05
0.000107904
0.000159689
0.00018846
0.000258966
0.000271797
0.000334215
0.000332435
0.000350886
0.000298448
0.000254091
0.000163695
0.000139823
0.000143073
0.000159235
0.000225073
0.00021429
0.000249282
0.00018936
0.000162095
0.000181857
0.000196602
0.000277862
0.000222562
0.000238062
0.000319371
0.00045599
0.000768768
0.0027038
0.00430503
0.0331223
0.240654
1.52181
1.28196
1.057
0.935065
0.803269
0.709016
0.643246
0.55973
0.535169
0.492474
0.492032
0.49998
0.529685
0.5827
0.573807
0.498894
0.316782
0.225607
0.157178
0.124892
0.10651
0.0975903
0.096
0.0955421
0.0937101
0.0872123
0.0812616
0.0813795
0.0837186
0.0901393
0.102073
0.122678
0.153729
0.173753
0.172345
0.163871
0.133655
0.0616265
0.0252901
0.0104044
0.00460129
0.00229488
0.00131155
0.000974062
0.00090179
0.000946799
0.00126569
0.00231782
0.0049975
0.0106966
0.0215704
0.0320045
0.0409975
0.042269
0.0409002
0.0370544
0.0311081
0.0247006
0.0178677
0.0131728
0.0114314
0.0108765
0.0103486
0.00933678
0.00766826
0.00635731
0.00559428
0.00524703
0.00511728
0.00504218
0.00492444
0.00459149
0.00419287
0.00379491
0.0034069
0.00306671
0.00279764
0.00262173
0.00251413
0.00245979
0.00245155
0.00250032
0.00279343
0.00314455
0.00336443
0.0034583
0.00347329
0.00346106
0.00339107
0.00307851
0.00255583
0.00207613
0.00165047
0.0012829
0.000974737
0.000723672
0.000525281
0.000373003
0.000259537
0.000177208
0.00011906
7.87826e-05
5.16448e-05
3.34371e-05
2.16893e-05
1.3969e-05
9.08368e-06
6.1016e-06
3.96212e-06
3.02793e-06
2.04745e-06
1.76481e-06
1.52173e-06
1.46141e-06
1.70269e-06
1.77894e-06
2.47624e-06
2.85078e-06
3.27357e-06
4.55904e-06
4.44672e-06
4.75369e-06
5.08197e-06
5.13323e-06
5.53924e-06
5.73423e-06
6.49036e-06
6.78179e-06
7.43465e-06
7.9709e-06
9.33234e-06
9.73337e-06
1.09103e-05
1.10206e-05
1.16377e-05
1.2023e-05
1.28604e-05
1.36081e-05
1.5418e-05
1.5995e-05
1.73642e-05
1.7866e-05
1.90113e-05
1.98904e-05
2.17094e-05
2.25223e-05
2.43778e-05
2.51185e-05
2.6671e-05
2.76769e-05
2.9837e-05
3.05623e-05
3.24052e-05
3.31529e-05
3.50254e-05
3.53418e-05
3.68248e-05
3.61512e-05
3.64243e-05
3.54485e-05
3.50347e-05
3.3032e-05
3.27053e-05
3.14747e-05
3.12806e-05
3.14486e-05
3.28089e-05
3.40933e-05
3.81953e-05
4.34668e-05
5.51795e-05
7.14114e-05
0.000105504
0.000181874
0.000232751
0.0003426
0.000365247
0.000468714
0.000452729
0.000446064
0.00034833
0.000247205
0.000199228
0.000211742
0.000271294
0.000274439
0.000320587
0.000243006
0.000214022
0.000229429
0.000260977
0.000372237
0.000322989
0.000348176
0.000761769
0.000860006
0.00315783
0.0044214
0.0312395
0.160104
1.25831
1.08859
0.925117
0.809527
0.725791
0.62742
0.570884
0.49696
0.454816
0.425623
0.418273
0.422642
0.441498
0.482128
0.528506
0.525055
0.485276
0.367566
0.262005
0.206949
0.164411
0.133783
0.116435
0.112259
0.108653
0.102722
0.103095
0.10674
0.11585
0.135846
0.162708
0.187933
0.190059
0.185734
0.172158
0.137477
0.0623127
0.0272119
0.0114495
0.00505972
0.00263307
0.00150611
0.00102858
0.000915733
0.000930108
0.00112403
0.00201007
0.00456805
0.0107617
0.0239256
0.0404454
0.0580693
0.0651138
0.0645114
0.0613674
0.0544707
0.0440501
0.0346702
0.0250688
0.0169857
0.0129375
0.0115511
0.0108595
0.00993795
0.00825312
0.00669627
0.00575794
0.00533726
0.005179
0.00509013
0.00491893
0.00452301
0.0041537
0.00385224
0.00350181
0.0031176
0.0028022
0.00257361
0.002443
0.00239008
0.00237852
0.00238445
0.00243529
0.00266004
0.00301498
0.00322076
0.00329415
0.00329814
0.00327085
0.00316548
0.00279199
0.00225724
0.00177606
0.00136364
0.00102376
0.000752063
0.000541231
0.000381793
0.000264423
0.000179976
0.000120725
7.98144e-05
5.23932e-05
3.3917e-05
2.21871e-05
1.42714e-05
9.56269e-06
6.44517e-06
4.49598e-06
3.55974e-06
2.72927e-06
2.48785e-06
2.57898e-06
2.62546e-06
3.52555e-06
3.44547e-06
5.15561e-06
4.77787e-06
6.5891e-06
6.1492e-06
8.00389e-06
7.55598e-06
9.80819e-06
9.54025e-06
1.19226e-05
1.31947e-05
1.40799e-05
1.94109e-05
1.81623e-05
2.13222e-05
2.12101e-05
2.16485e-05
2.37722e-05
2.58867e-05
2.58037e-05
3.04737e-05
2.96199e-05
3.37347e-05
3.31253e-05
3.65737e-05
3.62877e-05
4.06472e-05
3.96958e-05
4.40953e-05
4.30914e-05
4.62884e-05
4.58947e-05
4.98104e-05
4.91286e-05
5.31454e-05
5.25587e-05
5.6297e-05
5.65986e-05
6.32518e-05
6.30616e-05
6.89042e-05
7.07238e-05
8.14129e-05
8.32863e-05
9.53845e-05
9.71953e-05
0.000109491
0.000109706
0.000119239
0.000114172
0.000117083
0.000109067
0.00010794
9.11052e-05
8.62809e-05
7.46258e-05
7.53477e-05
7.79167e-05
8.56491e-05
0.000103058
0.000148821
0.00025324
0.000339873
0.000496437
0.000531134
0.000631911
0.000555375
0.000479616
0.000314303
0.000296012
0.000352816
0.000346189
0.000452073
0.000318216
0.000289543
0.00030814
0.000353854
0.000481495
0.000470122
0.000858152
0.000935002
0.00546416
0.0051032
0.025731
0.10736
0.964842
0.837853
0.723342
0.635943
0.565905
0.499729
0.453787
0.395582
0.354659
0.329144
0.325176
0.328937
0.343146
0.376933
0.405746
0.473761
0.474048
0.450097
0.392042
0.343049
0.320912
0.2837
0.241273
0.212754
0.188041
0.174648
0.175506
0.182936
0.203105
0.219921
0.220225
0.211978
0.198688
0.174528
0.127511
0.0583106
0.0264181
0.0120862
0.00521817
0.00273675
0.00171161
0.00111654
0.000921529
0.00090966
0.00101627
0.00160454
0.00381717
0.00962178
0.0245486
0.0486217
0.0739556
0.0939968
0.0963273
0.0936593
0.0861479
0.0752816
0.0601226
0.0463089
0.0338916
0.0226873
0.0158674
0.0128186
0.0115588
0.0103861
0.00873429
0.00721404
0.00613589
0.00554535
0.00531048
0.00516911
0.00480781
0.00436456
0.00407235
0.00380783
0.00351165
0.00318942
0.00286582
0.00261991
0.00246517
0.00236981
0.00230422
0.00226361
0.00225325
0.00226282
0.00231738
0.00252633
0.0027245
0.00283217
0.00286348
0.00285484
0.00277413
0.00241228
0.00188927
0.00144173
0.00107478
0.000783868
0.000560282
0.000392867
0.00027073
0.000183547
0.000122784
8.10185e-05
5.3203e-05
3.43978e-05
2.2705e-05
1.45293e-05
1.0113e-05
6.71335e-06
5.1682e-06
4.02252e-06
3.55132e-06
3.35312e-06
4.04063e-06
3.93227e-06
6.98101e-06
6.10877e-06
1.46808e-05
1.13297e-05
2.63579e-05
2.06701e-05
3.4971e-05
2.99613e-05
5.24088e-05
4.50609e-05
8.79889e-05
7.47304e-05
0.000113639
0.000101192
0.000114456
0.000110099
0.000122106
0.000110667
0.000136602
0.000121084
0.000144558
0.000132407
0.000147154
0.000135739
0.000154059
0.000138679
0.000157591
0.000144029
0.000154278
0.00014367
0.000149462
0.000137426
0.000143481
0.000132368
0.000133546
0.000124655
0.000125562
0.000115569
0.000117321
0.000109421
0.000110205
0.00010352
0.000108721
0.000103573
0.000106954
0.000106588
0.000115597
0.000116679
0.000125105
0.000130461
0.000148286
0.000150836
0.000168881
0.000174728
0.000200138
0.000198196
0.000207448
0.000184247
0.000179078
0.000148384
0.000136779
0.00014173
0.000153255
0.000186382
0.000260653
0.000461678
0.000560128
0.000815379
0.000804575
0.000726646
0.000481502
0.000403469
0.000412042
0.000438101
0.000569182
0.000418042
0.000416763
0.000494343
0.000576606
0.000535572
0.00153643
0.00134372
0.00930378
0.00660441
0.0223449
0.0749244
0.662451
0.587556
0.496127
0.43741
0.3847
0.333621
0.306823
0.265838
0.230956
0.21166
0.212292
0.219402
0.236036
0.265673
0.292903
0.336724
0.4037
0.414506
0.401479
0.371148
0.361821
0.355239
0.346598
0.326453
0.303453
0.297655
0.282865
0.271468
0.257684
0.24693
0.2315
0.201703
0.166058
0.10279
0.0500409
0.0230938
0.0112533
0.00533337
0.00255461
0.0017437
0.00123015
0.000946598
0.00089923
0.000962081
0.00132138
0.00285253
0.00802065
0.0206802
0.0524404
0.0904547
0.122319
0.136687
0.136552
0.130821
0.114843
0.0987029
0.0782261
0.0601405
0.0450919
0.0300606
0.0194526
0.014353
0.0123445
0.0108171
0.00911739
0.0075656
0.00643937
0.00583841
0.00558511
0.00529052
0.00478387
0.00428998
0.00394839
0.00370508
0.0034556
0.00317122
0.00291538
0.00269483
0.00250255
0.00234652
0.00224481
0.00220243
0.00219596
0.00220633
0.00229057
0.00250524
0.00265377
0.0027237
0.00274003
0.00273392
0.00268087
0.00239194
0.00188761
0.00144855
0.00108432
0.000792933
0.00056743
0.000398037
0.000274177
0.000185813
0.000124228
8.19542e-05
5.38972e-05
3.4823e-05
2.32789e-05
1.47738e-05
1.08952e-05
7.01627e-06
6.23881e-06
4.78743e-06
5.22025e-06
5.00478e-06
7.97884e-06
7.53459e-06
2.15336e-05
1.76388e-05
6.31538e-05
4.77241e-05
0.000109985
9.14776e-05
0.000123121
0.000118681
0.000138209
0.00012851
0.000169308
0.00015356
0.000209411
0.000199341
0.000231641
0.000225458
0.000252956
0.000238803
0.00028191
0.000266555
0.000310365
0.000300145
0.000338234
0.000327034
0.000371862
0.000357311
0.000403164
0.000391359
0.000433007
0.000419546
0.000463003
0.000442123
0.000485999
0.000461819
0.000491663
0.000467461
0.000485234
0.000448649
0.000459332
0.000429512
0.000414911
0.000376267
0.000377404
0.000349752
0.000309885
0.000301761
0.00027911
0.000258488
0.000225248
0.000226559
0.000216937
0.000212777
0.000214792
0.000220885
0.000240097
0.000243634
0.000270948
0.000269315
0.000292356
0.000289178
0.000283712
0.000267434
0.000220084
0.000214025
0.000223558
0.000254614
0.00037431
0.000510246
0.000914956
0.000915994
0.00101975
0.000732886
0.000561534
0.000539465
0.000593388
0.000746987
0.000611708
0.000559544
0.00107558
0.00082854
0.00324689
0.00198652
0.0141742
0.00875057
0.0156808
0.052647
0.363288
0.325921
0.267556
0.226325
0.195919
0.164608
0.150306
0.133763
0.106938
0.0970898
0.0979489
0.104627
0.12565
0.149523
0.177552
0.210234
0.260132
0.301494
0.336408
0.336301
0.337968
0.339765
0.337996
0.330189
0.316461
0.306287
0.29146
0.274812
0.246747
0.225285
0.180796
0.132354
0.0698685
0.0367243
0.0186469
0.00920324
0.00493184
0.00248318
0.00150835
0.00129578
0.000991864
0.000893438
0.000930231
0.00114058
0.00207313
0.00569265
0.0171501
0.0451079
0.103668
0.150158
0.175278
0.181096
0.175959
0.167094
0.147736
0.124282
0.0994227
0.0754155
0.0561838
0.0388789
0.0249573
0.0169956
0.0134308
0.0112664
0.00938976
0.00792393
0.00698111
0.00641735
0.00599397
0.00545017
0.0048277
0.0042852
0.00389852
0.00362411
0.00337568
0.00313271
0.00290103
0.00267911
0.00246453
0.00229238
0.00220539
0.00219166
0.00222479
0.00245103
0.00275853
0.0029498
0.00303251
0.00304908
0.00304109
0.00297577
0.0026773
0.00222614
0.00178826
0.00139238
0.00105353
0.000776889
0.000559262
0.000394243
0.000272513
0.000185303
0.000124206
8.21808e-05
5.42496e-05
3.51176e-05
2.38796e-05
1.50505e-05
1.19356e-05
7.63948e-06
7.48623e-06
6.5082e-06
8.73814e-06
8.49783e-06
1.67972e-05
1.73692e-05
4.28392e-05
4.66919e-05
9.0095e-05
9.09898e-05
0.000117434
0.000127934
0.00016044
0.000167551
0.000241049
0.000237106
0.000369618
0.000344927
0.00051709
0.000476357
0.000552281
0.000522696
0.000542356
0.00051504
0.0005671
0.000525033
0.000608448
0.000574278
0.000616138
0.000591202
0.000634644
0.000607594
0.000666179
0.000647333
0.00069215
0.000678147
0.000724179
0.000711324
0.00076817
0.000763437
0.000815004
0.000823331
0.000884513
0.000901505
0.000976474
0.00103444
0.00106787
0.00114405
0.0012375
0.00126457
0.00128364
0.0013856
0.00140328
0.00140697
0.00138805
0.00138012
0.00135714
0.001194
0.00112574
0.000936545
0.000851813
0.000635189
0.00060088
0.000492812
0.00049627
0.000465099
0.000438089
0.000439842
0.000404926
0.00038062
0.000328276
0.000296944
0.000310883
0.00034457
0.000495267
0.000889454
0.00105558
0.00148443
0.0011648
0.000748496
0.000806372
0.000822092
0.00205623
0.00129988
0.00251552
0.00142285
0.00673688
0.00393198
0.0364696
0.015506
0.0164437
0.0359098
0.139273
0.123634
0.0973859
0.0789161
0.0658827
0.0551664
0.051261
0.0460452
0.0366207
0.0335572
0.0338683
0.036473
0.0448642
0.0627269
0.0787341
0.0991613
0.137353
0.1667
0.197011
0.223914
0.241923
0.258937
0.266484
0.264162
0.254824
0.241357
0.224649
0.196567
0.165379
0.125111
0.0787019
0.0466057
0.0252769
0.0141686
0.00720655
0.00396462
0.00234779
0.00136177
0.00112239
0.00105808
0.000882467
0.000884971
0.00101074
0.0014949
0.00372935
0.0118305
0.0371517
0.100354
0.16977
0.202659
0.205692
0.199391
0.185526
0.176114
0.166192
0.147262
0.119345
0.0912839
0.0697355
0.0493519
0.031361
0.0204865
0.0152442
0.012074
0.00973725
0.00820545
0.00736053
0.00683485
0.00629715
0.00563933
0.00492217
0.0043198
0.00388356
0.00355451
0.00328549
0.00303894
0.00277207
0.00249542
0.00227542
0.00216598
0.00214658
0.00218097
0.0024759
0.00307601
0.00347576
0.00365954
0.00369853
0.00368382
0.00358547
0.00319034
0.00265474
0.00215828
0.00171318
0.00132902
0.00100695
0.000746116
0.000540305
0.000383493
0.000266584
0.000182386
0.00012275
8.16405e-05
5.41409e-05
3.52254e-05
2.43874e-05
1.53493e-05
1.30779e-05
8.64885e-06
9.55243e-06
8.85105e-06
1.37101e-05
1.36677e-05
2.35992e-05
2.57323e-05
3.4723e-05
3.71008e-05
4.21707e-05
5.55714e-05
0.000163342
0.000167756
0.000489276
0.00041253
0.000651306
0.000574808
0.000748154
0.000689097
0.000840928
0.000790077
0.000874177
0.000869192
0.00091643
0.000925381
0.0010292
0.00100098
0.0011204
0.00107101
0.00114537
0.00112703
0.00122716
0.00119515
0.00131928
0.00125664
0.00135111
0.00130601
0.0014003
0.00134427
0.00145214
0.00138424
0.00147372
0.00141625
0.00150312
0.00143259
0.00152968
0.00147407
0.00156434
0.00153175
0.00165998
0.00162296
0.00174132
0.00173311
0.00192219
0.00187419
0.00202917
0.00204527
0.0022729
0.00218676
0.0024012
0.00237031
0.00237877
0.00221066
0.00212907
0.00196963
0.00163775
0.00134246
0.000992484
0.000952207
0.000789626
0.000753004
0.000688929
0.00059865
0.000517618
0.000452765
0.000481219
0.000596327
0.00104366
0.0012697
0.00253476
0.00187965
0.00179312
0.00126295
0.00296718
0.00203216
0.00629224
0.00360753
0.0437501
0.0142576
0.0337954
0.0288685
0.0217695
0.0309087
0.0349326
0.0313282
0.0248322
0.0202082
0.0165921
0.0144132
0.0136931
0.0125832
0.00997278
0.00933273
0.00948413
0.0102941
0.0128387
0.0203159
0.0278334
0.0357299
0.0561396
0.073286
0.0902906
0.110734
0.127342
0.140814
0.149669
0.148622
0.144067
0.133228
0.121361
0.099017
0.0732129
0.0483976
0.0306676
0.0174579
0.00975129
0.00558246
0.00284715
0.00195676
0.00128858
0.000953124
0.00097018
0.000929456
0.000835103
0.000902802
0.00116876
0.00228541
0.00728746
0.0253788
0.0831149
0.177672
0.221898
0.225636
0.216793
0.200732
0.1857
0.174752
0.168126
0.159052
0.136114
0.107079
0.0821715
0.0587456
0.0383866
0.0251148
0.0175955
0.0130382
0.0101823
0.0084651
0.00756746
0.00714682
0.00666285
0.00582736
0.00498751
0.00435292
0.0038914
0.00350595
0.00316593
0.00285257
0.00255874
0.00232208
0.00218896
0.00215367
0.0021664
0.00231484
0.00274874
0.00313497
0.00339297
0.0035044
0.00352191
0.00350444
0.00341344
0.00304681
0.00250678
0.00202307
0.00160165
0.00124347
0.000944815
0.000703249
0.000511881
0.000365602
0.000255699
0.000176252
0.000119344
8.00701e-05
5.34265e-05
3.514e-05
2.47203e-05
1.58334e-05
1.42228e-05
1.02422e-05
1.24813e-05
1.21715e-05
1.85515e-05
1.89213e-05
2.4238e-05