/*--------------------------------*- C++ -*----------------------------------*\
| =========                 |                                                 |
| \\      /  F ield         | OpenFOAM: The Open Source CFD Toolbox           |
|  \\    /   O peration     | Version:  2.4.0                                 |
|   \\  /    A nd           | Web:      www.OpenFOAM.org                      |
|    \\/     M anipulation  |                                                 |
\*---------------------------------------------------------------------------*/
FoamFile
{
    version     2.0;
    format      ascii;
    class       volScalarField;
    location    "0.049";
    object      p;
}
// * * * * * * * * * * * * * * * * * * * * * * * * * * * * * * * * * * * * * //

dimensions      [0 2 -2 0 0 0 0];

internalField   nonuniform List<scalar> 
17600
(
85.7729
70.1135
65.6919
64.5396
63.5998
62.6446
61.7568
60.9935
60.244
59.4817
58.7945
58.0677
57.3403
56.6519
55.9494
55.273
54.5675
53.7282
52.9579
51.8714
83.8648
70.1636
65.7329
64.5492
63.6029
62.6454
61.7569
60.9938
60.2445
59.4817
58.7943
58.0681
57.3402
56.6521
55.9497
55.2733
54.569
53.7275
52.9603
51.8233
82.4514
70.4199
65.8767
64.5874
63.617
62.6499
61.7589
60.9958
60.2461
59.4823
58.7947
58.0686
57.3402
56.6527
55.9502
55.2745
54.5726
53.728
52.9815
51.8335
81.4756
70.7617
66.0965
64.6526
63.6465
62.6647
61.7677
61.0024
60.2506
59.4856
58.7964
58.0697
57.3408
56.6539
55.9515
55.2772
54.5792
53.7344
53.0144
51.9199
80.6538
71.0971
66.3601
64.7349
63.6891
62.6924
61.7875
61.0169
60.2609
59.4944
58.8009
58.0724
57.3429
56.656
55.9542
55.2816
54.5893
53.749
53.0694
52.0971
79.8799
71.39
66.6369
64.8182
63.7313
62.7271
61.8173
61.0397
60.2779
59.5103
58.8092
58.0776
57.3476
56.6598
55.9588
55.2885
54.6025
53.7754
53.1291
52.3571
79.1514
71.6378
66.9122
64.8966
63.7632
62.7587
61.8516
61.0671
60.2993
59.5324
58.8209
58.0853
57.3552
56.6653
55.9656
55.2986
54.6186
53.8149
53.1867
52.6493
78.4784
71.8429
67.1799
64.9727
63.7841
62.7816
61.8857
61.0958
60.3227
59.5575
58.8336
58.0941
57.3648
56.6717
55.9741
55.3117
54.6378
53.8659
53.2635
53.0224
77.8666
72.0096
67.432
65.0509
63.7966
62.7963
61.9169
61.1234
60.3464
59.5834
58.8459
58.1032
57.375
56.6782
55.9835
55.3265
54.6601
53.9263
53.3655
53.3986
77.3178
72.1388
67.6654
65.1342
63.8026
62.8027
61.9437
61.1498
60.3701
59.6085
58.8567
58.1124
57.3847
56.6841
55.9935
55.3423
54.6862
53.9938
53.488
53.7586
76.8306
72.2327
67.8794
65.2224
63.8038
62.8026
61.9663
61.1741
60.3932
59.6322
58.8658
58.121
57.3938
56.6897
56.004
55.3585
54.7161
54.0663
53.624
54.0952
76.4023
72.2951
68.0735
65.3154
63.8013
62.7965
61.9849
61.1968
60.4158
59.6541
58.8739
58.1291
57.4019
56.695
56.0153
55.376
54.7494
54.1429
53.7682
54.3982
76.03
72.3318
68.2478
65.4113
63.7962
62.786
61.9998
61.2176
60.4374
59.6744
58.8808
58.1359
57.4097
56.7007
56.0278
55.3944
54.7863
54.2195
53.9183
54.6666
75.7112
72.35
68.4011
65.5053
63.7906
62.773
62.0114
61.2362
60.4575
59.6925
58.8866
58.1421
57.4173
56.7067
56.0415
55.4143
54.8257
54.2968
54.0665
54.9038
75.4425
72.3577
68.5327
65.5896
63.7863
62.7594
62.0204
61.2525
60.4762
59.7084
58.8918
58.1475
57.4247
56.7135
56.0562
55.4359
54.8661
54.3749
54.2082
55.1198
75.2217
72.3598
68.641
65.6618
63.7842
62.7466
62.0266
61.2665
60.4929
59.7217
58.8962
58.1524
57.4323
56.7211
56.0717
55.459
54.9079
54.452
54.3427
55.3199
75.0473
72.3588
68.7264
65.721
63.7837
62.7352
62.031
61.2781
60.5069
59.7326
58.9003
58.1571
57.4397
56.7291
56.0883
55.4832
54.9501
54.5276
54.4696
55.5049
74.918
72.3566
68.7891
65.7663
63.7845
62.7265
62.0334
61.2869
60.5183
59.7409
58.9039
58.1615
57.4471
56.738
56.1051
55.5086
54.9924
54.6014
54.5894
55.6752
74.8327
72.3538
68.8301
65.7974
63.7854
62.7203
62.0344
61.2933
60.5267
59.7466
58.9072
58.1658
57.4544
56.7474
56.1226
55.5349
55.0349
54.673
54.7013
55.8322
74.7906
72.3518
68.8504
65.8133
63.7857
62.718
62.0344
61.2968
60.532
59.7499
58.9099
58.17
57.4616
56.7576
56.1404
55.5618
55.0774
54.7422
54.8042
55.9766
74.7912
72.3509
68.8504
65.8139
63.7852
62.7191
62.0336
61.2979
60.534
59.7505
58.9133
58.1742
57.4685
56.7682
56.1586
55.5899
55.1196
54.809
54.8974
56.1038
74.8345
72.351
68.8302
65.799
63.7835
62.724
62.0323
61.296
60.5326
59.7488
58.9154
58.1784
57.4751
56.7794
56.1773
55.6185
55.1615
54.8733
54.9817
56.2125
74.921
72.3519
68.7892
65.7691
63.7816
62.7321
62.0298
61.2915
60.5281
59.7444
58.917
58.1828
57.4813
56.7911
56.196
55.6479
55.2035
54.9343
55.059
56.3039
75.0514
72.3524
68.7265
65.7247
63.7802
62.7427
62.0265
61.2841
60.5205
59.7376
58.9184
58.187
57.4872
56.8034
56.2151
55.6777
55.2453
54.9924
55.1284
56.3811
75.227
72.3516
68.6411
65.6666
63.7804
62.7551
62.0219
61.2739
60.5098
59.7287
58.919
58.1911
57.4928
56.8158
56.2345
55.7079
55.2869
55.0485
55.1892
56.4467
75.4489
72.3477
68.5325
65.5953
63.7827
62.7683
62.0158
61.2611
60.4962
59.7174
58.9192
58.1947
57.498
56.8288
56.2541
55.7388
55.3284
55.1027
55.243
56.4977
75.7186
72.3386
68.4006
65.5119
63.7874
62.7817
62.0077
61.2458
60.4802
59.7039
58.9188
58.1975
57.503
56.8421
56.2739
55.7701
55.3703
55.1554
55.2896
56.5314
76.0384
72.3192
68.2466
65.4183
63.7941
62.7943
61.9972
61.228
60.4625
59.6883
58.9179
58.1993
57.5076
56.8555
56.2943
55.8017
55.4126
55.2078
55.3299
56.5438
76.4114
72.282
68.0716
65.3219
63.8005
62.8043
61.9837
61.208
60.443
59.6709
58.916
58.1998
57.5121
56.8688
56.3149
55.8336
55.4557
55.2605
55.3674
56.5296
76.8405
72.2193
67.8764
65.2285
63.8044
62.8098
61.9668
61.1862
60.4221
59.6519
58.9131
58.1985
57.5164
56.8814
56.3357
55.8653
55.5
55.313
55.4086
56.4877
77.3282
72.1253
67.6615
65.1399
63.8046
62.8093
61.9457
61.1633
60.3998
59.6311
58.9095
58.1956
57.5203
56.893
56.3567
55.8956
55.5457
55.3658
55.4581
56.4216
77.8773
71.996
67.4275
65.0567
63.7999
62.8022
61.92
61.1391
60.3766
59.6085
58.9047
58.1918
57.5233
56.9033
56.3775
55.9239
55.5923
55.4178
55.5162
56.3365
78.4892
71.8292
67.1754
64.9787
63.7886
62.7872
61.8898
61.1137
60.353
59.5846
58.8983
58.1877
57.5253
56.9122
56.3966
55.9496
55.6373
55.4661
55.5819
56.2412
79.1621
71.6239
66.908
64.9034
63.7684
62.7635
61.8563
61.0875
60.3299
59.5611
58.8909
58.1836
57.5265
56.9196
56.4135
55.972
55.6774
55.508
55.6497
56.1501
79.8905
71.3762
66.633
64.8253
63.7371
62.7313
61.8226
61.062
60.3087
59.5406
58.8838
58.18
57.5279
56.9259
56.4277
55.9906
55.7101
55.5428
55.7043
56.0952
80.6644
71.0831
66.3566
64.7422
63.6955
62.6961
61.7933
61.0407
60.292
59.5261
58.8787
58.1782
57.5301
56.9315
56.4388
56.0054
55.7339
55.5711
55.7335
56.0661
81.4866
70.7476
66.0932
64.6597
63.6533
62.6681
61.774
61.027
60.2819
59.5186
58.8763
58.1779
57.5326
56.9359
56.4467
56.0157
55.7495
55.5908
55.7464
56.0651
82.4628
70.4058
65.8736
64.5943
63.624
62.6532
61.7657
61.0207
60.2774
59.5163
58.8756
58.1784
57.5347
56.9389
56.4514
56.0216
55.7584
55.602
55.7539
56.0783
83.8766
70.1496
65.7299
64.556
63.6101
62.6487
61.7639
61.0188
60.2757
59.5163
58.8755
58.1786
57.5357
56.9403
56.4532
56.0239
55.7616
55.6064
55.7573
56.1027
85.785
70.0997
65.689
64.5463
63.6068
62.648
61.7637
61.0186
60.2749
59.5167
58.8757
58.1784
57.536
56.9404
56.4535
56.0239
55.762
55.6065
55.7577
56.1439
50.712
49.8611
49.0342
48.3768
48.1718
49.0348
51.222
54.8872
59.7064
65.0966
70.42
75.1519
78.6051
79.2175
77.62
73.5832
66.3719
57.9511
51.216
47.6242
44.493
40.0293
35.2313
29.7088
23.9464
19.3431
15.0432
10.9657
8.585
7.97018
8.27334
9.38461
11.6221
14.8573
18.3109
21.5469
24.9107
28.2561
31.4063
34.3939
37.006
39.2075
41.0632
42.3445
43.0957
43.7701
44.3033
44.4901
44.8938
45.8027
47.0257
48.6058
50.8847
53.67
56.6483
59.9228
63.2998
66.443
69.2808
71.8343
74.0289
75.8084
77.244
78.4285
79.3934
80.1624
80.7827
81.2958
81.7236
82.0777
82.3675
82.6026
82.7929
82.9464
83.0688
83.1675
83.2502
83.3195
83.3739
83.4131
83.4408
83.4616
83.4786
83.493
83.505
83.5146
83.5219
83.5268
83.5295
83.53
83.5291
83.5265
83.5235
83.5188
83.5148
83.5083
83.5045
83.4964
83.4944
83.4852
83.4883
83.4801
83.494
83.4923
83.5259
83.5394
83.6
83.635
83.7187
83.7665
83.8529
83.8878
83.9478
83.9462
83.9566
83.9215
83.8799
83.8401
83.7775
83.7622
83.7247
83.7323
83.7307
83.7509
83.757
83.7693
83.7578
83.7592
83.7419
83.7408
83.7383
83.7369
83.7433
83.7366
83.7317
83.7182
83.7083
83.697
83.6933
83.6868
83.679
83.674
83.6598
83.6587
83.6483
83.6449
83.6378
83.6298
83.6172
83.6077
83.5931
83.578
83.56
83.5428
83.5186
83.5014
83.4755
83.4516
83.4225
83.3914
83.3571
83.3212
83.2749
83.2317
83.1792
83.1236
83.0583
82.9874
82.9123
82.8188
82.7243
82.6187
82.4934
82.3626
82.2134
82.0486
81.8757
81.6735
81.4771
81.2419
81
80.7461
80.4595
80.18
79.8531
79.5272
79.1691
78.7748
78.3706
77.8777
77.3229
76.6752
75.8562
74.8309
73.3818
71.4565
68.3973
63.5434
57.4093
30.629
50.6091
49.811
49.0873
48.6133
48.5922
49.6453
51.9738
55.6468
60.4274
65.7596
70.916
75.4417
78.6469
79.1167
77.3144
73.4202
66.7219
58.711
51.9097
47.9879
44.8645
40.6315
36.0002
30.8666
25.595
21.1818
17.0661
13.2833
10.979
10.2781
10.4307
11.3413
13.3488
16.3466
19.5893
22.6231
25.847
29.2407
32.4763
35.3989
37.8265
39.8366
41.5198
42.5769
43.0708
43.4642
43.6449
43.4678
43.5283
44.0824
44.9847
46.352
48.4591
51.1902
54.2331
57.6776
61.3265
64.7463
67.8445
70.6494
73.0748
75.0482
76.6276
77.9156
78.9621
79.801
80.4806
81.0423
81.5089
81.8938
82.2082
82.4635
82.671
82.8391
82.974
83.0828
83.1733
83.2493
83.3104
83.3563
83.3901
83.4159
83.4366
83.4538
83.4685
83.4811
83.4918
83.5
83.5059
83.509
83.5103
83.5093
83.5077
83.5037
83.5006
83.4943
83.491
83.4823
83.4806
83.4696
83.473
83.4614
83.4764
83.4697
83.5069
83.5155
83.5849
83.6173
83.7162
83.7638
83.8684
83.9004
83.9766
83.9651
83.9846
83.9352
83.8911
83.8416
83.7731
83.7497
83.7132
83.7191
83.7256
83.7458
83.7617
83.7718
83.761
83.7556
83.7364
83.7312
83.7328
83.7342
83.7453
83.7372
83.7318
83.7128
83.7006
83.689
83.6854
83.6781
83.6738
83.6601
83.652
83.6427
83.6364
83.6334
83.6231
83.6156
83.6024
83.5877
83.5761
83.5565
83.5363
83.5163
83.4925
83.4676
83.4452
83.4151
83.3842
83.347
83.3156
83.2687
83.2236
83.1738
83.1192
83.0556
82.9873
82.9118
82.8303
82.7305
82.6299
82.5161
82.3812
82.2469
82.0802
81.914
81.7212
81.5142
81.2932
81.0464
80.7958
80.5125
80.2096
79.8989
79.556
79.1882
78.797
78.3672
77.8838
77.3432
76.6998
75.9456
74.9951
73.7951
72.0941
69.848
66.5011
60.1523
53.9323
23.7583
50.5777
49.8554
49.2841
49.0019
49.1564
50.3498
52.7613
56.3873
61.011
66.1593
71.0828
75.2902
78.2007
78.5484
76.6163
72.8954
66.7517
59.2686
52.5798
48.3506
45.1622
41.1847
36.7394
31.9669
27.1682
22.9427
19.0298
15.4891
13.2314
12.4618
12.4984
13.2798
15.1036
17.8619
20.9211
23.896
27.0587
30.4685
33.7138
36.5022
38.7271
40.5315
42.024
42.8683
43.0814
43.1583
42.9618
42.3956
42.0431
42.1685
42.6864
43.7893
45.7226
48.3834
51.5086
55.1563
59.1233
62.8823
66.3028
69.3932
72.0664
74.252
75.996
77.4011
78.5352
79.4465
80.1865
80.7966
81.3015
81.7166
82.0547
82.329
82.5522
82.7341
82.8811
82.9999
83.0978
83.1801
83.2475
83.3003
83.3407
83.3717
83.3961
83.4159
83.433
83.4483
83.4621
83.4736
83.4825
83.4883
83.4917
83.4923
83.492
83.4889
83.4866
83.4804
83.4776
83.4682
83.4668
83.4537
83.4573
83.4417
83.4577
83.4448
83.4858
83.4875
83.5669
83.5946
83.7115
83.757
83.8841
83.9106
84.0072
83.9811
84.0146
83.9454
83.9067
83.8395
83.7683
83.7314
83.7013
83.696
83.7198
83.7379
83.7673
83.7764
83.7636
83.7586
83.7296
83.7282
83.7247
83.733
83.7434
83.7403
83.7285
83.7094
83.6914
83.6792
83.6783
83.6704
83.6666
83.6505
83.6395
83.6286
83.626
83.6179
83.6132
83.601
83.5846
83.5722
83.5572
83.5354
83.514
83.4911
83.4621
83.439
83.4125
83.3805
83.344
83.3079
83.2695
83.2214
83.1711
83.118
83.0557
82.9932
82.916
82.839
82.7465
82.6438
82.5368
82.4143
82.2737
82.1291
81.9547
81.7728
81.5743
81.3455
81.1203
80.8535
80.5872
80.2759
79.9509
79.6281
79.2426
78.8544
78.4153
77.9509
77.4148
76.7917
76.0768
75.2201
74.1104
72.7715
70.836
68.1243
64.9284
56.7964
50.6414
22.1767
50.6478
49.9907
49.6132
49.4983
49.7963
51.1058
53.5195
57.0363
61.4608
66.308
70.9525
74.7507
77.3348
77.6161
75.6569
72.1299
66.4997
59.5815
53.1234
48.6666
45.3821
41.6674
37.4226
32.9113
28.5248
24.5803
20.8658
17.5165
15.3457
14.5357
14.4918
15.2043
16.9049
19.457
22.3723
25.3679
28.5274
31.8826
35.0448
37.646
39.6707
41.2807
42.5795
43.2184
43.1686
42.8769
42.237
41.2567
40.4637
40.0019
40.0625
40.8808
42.5904
45.165
48.4129
52.311
56.6379
60.8134
64.6368
68.0636
71.0089
73.4228
75.3477
76.8824
78.1121
79.1009
79.9036
80.5617
81.1031
81.5466
81.9074
82.2001
82.4382
82.6326
82.7908
82.9188
83.0238
83.1117
83.1854
83.2454
83.293
83.3299
83.3583
83.3809
83.4001
83.4178
83.4342
83.4485
83.4601
83.4681
83.4735
83.4756
83.4765
83.4742
83.4727
83.4666
83.4644
83.4541
83.453
83.4376
83.4415
83.4212
83.438
83.4175
83.4621
83.4545
83.5448
83.5652
83.7029
83.7444
83.8977
83.917
84.0361
83.9934
84.0401
83.9526
83.9159
83.8366
83.761
83.7126
83.6884
83.6705
83.7183
83.7234
83.7772
83.7764
83.7744
83.7499
83.7273
83.7134
83.7216
83.7271
83.7482
83.7427
83.7294
83.7043
83.6813
83.6711
83.6685
83.6666
83.6583
83.6424
83.6252
83.6171
83.6107
83.6085
83.5996
83.5877
83.5686
83.5553
83.5382
83.5176
83.4897
83.4651
83.4347
83.408
83.3808
83.3475
83.305
83.2659
83.2261
83.1757
83.1185
83.0596
82.9994
82.9279
82.8464
82.764
82.6693
82.5543
82.4467
82.3148
82.1688
82.0118
81.8261
81.6379
81.4251
81.1856
80.9439
80.6646
80.3661
80.0533
79.7019
79.344
78.9352
78.5087
78.0437
77.5127
76.9309
76.2545
75.4275
74.5141
73.2813
71.6724
69.8012
66.2988
63.6131
53.7052
47.4929
23.2464
50.8293
50.2379
50.0321
50.0604
50.4325
51.8452
54.2361
57.5529
61.7758
66.2299
70.509
73.9498
76.1714
76.4231
74.5353
71.1646
66.0196
59.6388
53.466
48.8938
45.5666
42.122
38.0477
33.7149
29.6457
26.0471
22.6487
19.4044
17.3064
16.4972
16.4479
17.1199
18.74
21.1705
24.0504
27.0958
30.2093
33.39
36.3841
38.8005
40.6595
42.1104
43.2182
43.6424
43.334
42.6704
41.5138
39.9987
38.7355
37.6073
37.0543
37.6007
39.0666
41.4957
44.8916
49.1343
53.8383
58.5017
62.8217
66.6585
69.9068
72.5616
74.6836
76.3622
77.6955
78.7655
79.6322
80.3378
80.9141
81.3849
81.7676
82.0778
82.3301
82.5361
82.704
82.8402
82.9514
83.0442
83.1235
83.1908
83.2464
83.29
83.3231
83.3488
83.3705
83.3903
83.409
83.4255
83.4391
83.449
83.456
83.4593
83.4614
83.4598
83.4591
83.4531
83.4513
83.4401
83.4393
83.4215
83.4254
83.3999
83.4172
83.3877
83.4353
83.4159
83.517
83.5269
83.6879
83.7224
83.9066
83.9142
84.0602
83.9932
84.0576
83.946
83.9168
83.8242
83.7476
83.6865
83.6687
83.6368
83.7085
83.7024
83.7817
83.7762
83.7821
83.7473
83.7239
83.6972
83.7196
83.7146
83.7581
83.7406
83.7359
83.6917
83.6747
83.6523
83.6678
83.6559
83.66
83.6275
83.616
83.5981
83.6027
83.5937
83.5929
83.5727
83.5532
83.5369
83.524
83.4974
83.4673
83.4402
83.4054
83.3765
83.3535
83.313
83.2652
83.2251
83.1853
83.1283
83.0667
83.0053
82.9405
82.8636
82.779
82.695
82.5877
82.4685
82.3591
82.2203
82.059
81.8997
81.7029
81.5037
81.2773
81.0241
80.766
80.4686
80.1632
79.8145
79.4494
79.0634
78.6246
78.1766
77.6525
77.1081
76.4398
75.706
74.835
73.7297
72.5211
70.4687
68.9466
64.3379
62.545
51.0617
44.2612
24.5069
51.27
50.6922
50.4965
50.6106
51.0354
52.4875
54.8784
57.9394
61.9074
65.9801
69.8091
72.9623
74.7955
75.0022
73.3183
70.1185
65.3902
59.5555
53.7665
49.1913
45.8386
42.6072
38.6748
34.437
30.5951
27.3586
24.166
21.1424
19.1481
18.392
18.3948
19.093
20.7549
23.1479
25.9715
28.9903
31.9683
34.9195
37.726
40.0042
41.7053
43.0167
43.9359
44.1464
43.5625
42.5092
40.7947
38.6377
36.7634
34.9641
33.7225
33.932
35.2027
37.4574
40.9515
45.5126
50.7037
55.9309
60.8308
65.1568
68.7596
71.6798
74.0111
75.8417
77.2848
78.4407
79.3733
80.1257
80.735
81.2314
81.6351
81.9622
82.2279
82.4444
82.6209
82.7643
82.8812
82.9785
83.0624
83.1363
83.1996
83.2504
83.289
83.3185
83.3431
83.3655
83.3863
83.4046
83.4198
83.431
83.4393
83.4436
83.4467
83.4457
83.4457
83.4397
83.4384
83.4264
83.4258
83.4054
83.4094
83.3781
83.3955
83.3554
83.4053
83.3708
83.4823
83.4779
83.6639
83.6892
83.9076
83.903
84.076
83.9855
84.0624
83.9322
83.9028
83.8035
83.7199
83.6491
83.6436
83.5939
83.6919
83.6652
83.7779
83.7565
83.7903
83.7349
83.7179
83.673
83.7109
83.6976
83.7642
83.733
83.7423
83.6708
83.6664
83.6276
83.6631
83.6428
83.6591
83.6086
83.604
83.5745
83.5937
83.5781
83.5876
83.5538
83.5401
83.5168
83.5118
83.4773
83.448
83.4126
83.3765
83.3474
83.3241
83.2812
83.2255
83.1845
83.1426
83.0862
83.0141
82.9477
82.882
82.8039
82.7112
82.6251
82.5094
82.3845
82.2719
82.1236
81.9593
81.7899
81.5832
81.3671
81.1334
80.8663
80.5941
80.2819
79.9477
79.5846
79.1878
78.7865
78.2989
77.83
77.279
76.6656
75.9868
75.1252
74.2776
72.9071
71.8638
69.0831
68.3003
62.2237
61.192
48.857
40.9071
24.955
52.0176
51.4223
51.0339
51.1186
51.5983
53.0267
55.3957
58.2299
61.8616
65.5937
68.9424
71.8155
73.3566
73.4493
72.0181
69.072
64.7196
59.4522
54.1345
49.6214
46.2305
43.1669
39.363
35.1965
31.5575
28.5895
25.7388
22.9871
21.0805
20.369
20.5048
21.346
23.06
25.3264
27.9942
30.9208
33.7066
36.4317
39.0646
41.241
42.8145
43.9839
44.7559
44.751
43.8885
42.3921
40.0253
37.1414
34.5679
32.0635
30.2077
30.0324
31.065
33.1535
36.7125
41.5578
47.2404
53.0761
58.6505
63.5626
67.5699
70.7742
73.3283
75.3246
76.8856
78.1295
79.1272
79.9254
80.5665
81.0868
81.5104
81.8533
82.1311
82.3573
82.5418
82.6922
82.815
82.9167
83.0047
83.0839
83.1538
83.211
83.2547
83.2883
83.3164
83.3416
83.3648
83.385
83.4016
83.414
83.4232
83.4284
83.4323
83.4319
83.4326
83.4267
83.4259
83.4129
83.4127
83.3895
83.3935
83.3562
83.373
83.3212
83.3716
83.3192
83.4393
83.4166
83.6285
83.643
83.8996
83.8854
84.086
83.9778
84.0582
83.9163
83.8735
83.7674
83.674
83.5924
83.6045
83.5461
83.6693
83.6261
83.7582
83.7192
83.7765
83.7013
83.7009
83.6364
83.6985
83.6703
83.7711
83.7162
83.7435
83.6411
83.6491
83.5906
83.6612
83.6177
83.668
83.5762
83.5909
83.5353
83.5899
83.5518
83.5902
83.5227
83.5288
83.4853
83.5079
83.4481
83.4327
83.3772
83.3532
83.3086
83.3063
83.2435
83.1887
83.1391
83.1108
83.0398
82.9651
82.8897
82.8269
82.7407
82.6484
82.5555
82.4319
82.2971
82.1883
82.0332
81.8551
81.6794
81.4607
81.2335
80.9931
80.7086
80.4173
80.0952
79.7489
79.3444
78.94
78.4921
78.0082
77.4577
76.9169
76.1947
75.5638
74.4939
73.7828
71.8655
71.3659
67.5151
67.5383
60.2197
59.4044
47.0122
37.3659
24.6567
52.857
52.2752
51.6611
51.6109
52.1091
53.4869
55.7706
58.4282
61.6876
65.1005
68.006
70.5584
71.9365
71.8898
70.653
68.0512
64.0968
59.3578
54.5244
50.1707
46.7676
43.7986
40.1869
36.1992
32.7388
30.0265
27.4926
25.0317
23.2127
22.6022
22.8844
23.8123
25.4814
27.5764
30.0516
32.8066
35.3689
37.8901
40.4081
42.4847
43.9864
45.0255
45.6981
45.5074
44.3354
42.3294
39.2091
35.5109
32.2165
29.0356
26.6245
26.1384
26.88
28.7237
32.3311
37.4093
43.5285
49.9661
56.2686
61.851
66.3336
69.8607
72.652
74.8178
76.4982
77.831
78.895
79.7395
80.4107
80.9521
81.3929
81.7497
82.0387
82.2741
82.4664
82.6242
82.7537
82.8608
82.953
83.0363
83.111
83.173
83.2211
83.2582
83.2895
83.3177
83.3434
83.3655
83.3837
83.3972
83.4075
83.4135
83.4184
83.4185
83.4199
83.414
83.4137
83.3999
83.3998
83.3742
83.3779
83.3344
83.3501
83.2856
83.3347
83.2615
83.387
83.3423
83.5799
83.5851
83.884
83.8722
84.0984
83.992
84.0561
83.9112
83.8273
83.7008
83.595
83.4968
83.5376
83.48
83.6323
83.5819
83.7359
83.659
83.751
83.6395
83.6726
83.589
83.6681
83.6366
83.762
83.6842
83.7375
83.5885
83.6222
83.5377
83.6419
83.5845
83.662
83.5237
83.5686
83.4767
83.579
83.5133
83.5875
83.4699
83.5155
83.4362
83.5075
83.4043
83.4208
83.3194
83.333
83.2584
83.2956
83.1897
83.1584
83.0795
83.088
82.9877
82.9241
82.8195
82.782
82.6725
82.5925
82.4885
82.3617
82.2078
82.1167
81.9368
81.7593
81.5648
81.3532
81.103
80.8457
80.5337
80.2658
79.895
79.5377
79.0822
78.7144
78.1738
77.7258
77.0516
76.6015
75.623
75.2377
73.6631
73.4741
70.6408
70.786
65.9114
66.5359
58.3493
56.8662
45.539
34.0026
24.0066
53.7148
53.1747
52.3587
52.1131
52.5669
53.8854
56.0108
58.5392
61.4542
64.5296
67.0895
69.2814
70.5584
70.4463
69.3
67.0411
63.5463
59.2849
54.8749
50.7894
47.4419
44.5315
41.1884
37.4499
34.1688
31.6296
29.3485
27.2179
25.5934
25.0559
25.3644
26.3191
27.8872
29.788
32.0707
34.607
36.9708
39.3204
41.7356
43.7459
45.2244
46.1893
46.7409
46.3836
44.8515
42.303
38.3824
33.8891
29.8659
26.0739
23.146
22.329
22.7912
24.3715
27.9788
33.2373
39.6531
46.6359
53.7088
60.0354
65.0531
68.9361
71.9786
74.3227
76.1286
77.5504
78.6763
79.5638
80.2638
80.825
81.2815
81.6513
81.9508
82.1949
82.3951
82.5604
82.6973
82.8104
82.9069
82.9938
83.0721
83.1377
83.1891
83.2291
83.263
83.2936
83.3214
83.3454
83.3653
83.3802
83.3918
83.3989
83.4046
83.4053
83.4075
83.4016
83.4018
83.3873
83.3875
83.3595
83.3628
83.3135
83.3273
83.25
83.2952
83.1997
83.3258
83.2578
83.5178
83.5215
83.8645
83.8782
84.1229
84.0393
84.0568
83.9009
83.7471
83.5822
83.4682
83.3494
83.4337
83.3831
83.567
83.5074
83.7005
83.5803
83.7233
83.5796
83.6335
83.5325
83.6249
83.5801
83.7268
83.6313
83.7132
83.5274
83.5752
83.4668
83.6016
83.5228
83.6426
83.4511
83.5243
83.4005
83.5478
83.4524
83.5731
83.3921
83.4808
83.3651
83.4989
83.3368
83.4022
83.2327
83.3031
83.1851
83.2874
83.1021
83.1232
82.9937
83.0686
82.9016
82.8932
82.7255
82.7364
82.5766
82.5561
82.3945
82.2975
82.0981
82.0642
81.8269
81.6706
81.4501
81.2679
80.9394
80.7322
80.3579
80.123
79.656
79.363
78.7832
78.5051
77.7633
77.4871
76.504
76.3576
74.8733
74.9358
72.6919
72.9179
69.2878
70.0333
64.2473
65.2731
56.8981
52.94
44.064
32.1069
24.0891
54.5112
54.0264
53.0528
52.6262
52.9723
54.2231
56.1687
58.5677
61.2
63.9269
66.2413
68.0894
69.2446
69.1744
68.0678
66.0497
63.0404
59.2437
55.1917
51.4295
48.2224
45.3972
42.3176
38.8694
35.8363
33.3467
31.2754
29.5093
28.0929
27.5595
27.8414
28.7717
30.1806
31.8727
33.9745
36.3151
38.5175
40.7694
43.0858
45.0699
46.5322
47.4448
47.8806
47.3549
45.4049
42.3367
37.6734
32.4039
27.6814
23.2543
19.8809
18.6674
18.7666
20.1416
23.6396
29.2006
35.749
43.1741
51.0054
58.1202
63.7267
68.0024
71.3166
73.8479
75.7784
77.2831
78.4682
79.4
80.1294
80.7086
81.1778
81.5585
81.8679
82.1207
82.3285
82.5013
82.6453
82.7644
82.8652
82.9551
83.036
83.1045
83.1586
83.2012
83.2371
83.2694
83.2988
83.3244
83.346
83.3627
83.3759
83.3842
83.3911
83.3925
83.3954
83.3897
83.3904
83.3752
83.3757
83.3457
83.3486
83.2941
83.3055
83.2161
83.2551
83.1372
83.2582
83.1674
83.4445
83.4559
83.8425
83.8988
84.1497
84.0856
84.0231
83.8249
83.5771
83.3526
83.256
83.1375
83.3066
83.2676
83.51
83.4229
83.6525
83.5157
83.671
83.5273
83.5775
83.466
83.5861
83.5008
83.6657
83.5548
83.6498
83.453
83.5157
83.3753
83.5352
83.4308
83.5772
83.356
83.4611
83.2962
83.4908
83.3655
83.5217
83.2859
83.4242
83.2667
83.4633
83.2457
83.3494
83.1105
83.2609
83.0885
83.2566
82.9761
83.075
82.8685
83.0448
82.781
82.8457
82.5813
82.6989
82.4387
82.5193
82.2504
82.2415
81.9385
82.0243
81.6648
81.6096
81.2646
81.1926
80.7529
80.6301
80.0865
80.0275
79.3849
79.1839
78.3883
78.3364
77.2935
77.2467
75.8537
76.0379
74.0222
74.4454
71.5793
72.1397
67.8162
69.0913
63.009
62.6865
55.6811
49.0144
42.5326
31.6302
25.0799
55.2194
54.7796
53.6859
53.1246
53.3317
54.5025
56.2738
58.5224
60.9482
63.3397
65.4614
67.0484
68.0364
68.0453
67.0217
65.1437
62.5593
59.2264
55.4969
52.042
49.0494
46.354
43.4797
40.3423
37.5619
35.1081
33.255
31.7717
30.5359
30.0117
30.2477
31.0985
32.3165
33.8181
35.7573
37.9719
40.0435
42.1988
44.4422
46.4245
47.9205
48.8007
49.1673
48.493
46.0969
42.4769
37.1884
31.1297
25.6782
20.5201
16.6633
15.0739
14.7682
16.0206
19.7728
25.387
31.9415
39.6895
48.2303
56.1382
62.3693
67.0744
70.6741
73.394
75.4503
77.0384
78.2803
79.2514
80.0054
80.5993
81.0797
81.4712
81.7904
82.0514
82.2662
82.4456
82.596
82.7207
82.8254
82.9178
83.0008
83.0714
83.128
83.1731
83.211
83.2446
83.2752
83.3023
83.3259
83.3446
83.3597
83.3696
83.3777
83.38
83.3836
83.3782
83.3793
83.3638
83.3645
83.333
83.3355
83.277
83.2855
83.1861
83.2166
83.079
83.1877
83.077
83.3603
83.3857
83.8081
83.9103
84.1514
84.0828
83.9116
83.6236
83.2929
83.0119
82.9945
82.915
83.1883
83.1827
83.4911
83.4002
83.6306
83.4739
83.5616
83.4085
83.4731
83.379
83.5267
83.4346
83.5931
83.4409
83.5555
83.3353
83.4237
83.2716
83.4336
83.2915
83.4755
83.2239
83.3677
83.1778
83.3947
83.229
83.4271
83.1465
83.3282
83.1444
83.3882
83.1044
83.2476
82.9514
83.169
82.9565
83.1845
82.792
82.9666
82.7063
82.9898
82.5991
82.7742
82.3718
82.6293
82.2438
82.4656
82.0094
82.1666
81.7143
81.9755
81.4281
81.5132
81.0149
81.1372
80.4648
80.5091
79.7986
79.8992
79.0159
78.9755
77.938
78.0595
76.7194
76.8524
75.0905
75.4984
72.9281
73.7486
70.3847
71.2013
66.9598
67.2862
62.2667
59.1008
53.9341
46.6808
41.9025
32.3306
26.4277
55.8283
55.4312
54.2472
53.5917
53.6581
54.7281
56.3559
58.4254
60.6918
62.804
64.7492
66.2193
66.9737
67.036
66.1382
64.344
62.0832
59.2179
55.8054
52.6026
49.8441
47.3328
44.6163
41.7858
39.2065
36.8663
35.2232
33.9012
32.8502
32.366
32.5035
33.2252
34.2962
35.6865
37.4949
39.5571
41.5116
43.5761
45.7885
47.7909
49.3668
50.278
50.6219
49.8244
47.0301
42.8092
36.9135
30.0445
23.781
17.8595
13.4194
11.4231
10.7278
11.9352
16.0526
21.787
28.3052
36.2885
45.4536
54.1201
60.9964
66.1546
70.0511
72.9679
75.1515
76.8158
78.1056
79.1104
79.8878
80.4972
80.9891
81.3909
81.7187
81.9864
82.207
82.3918
82.5476
82.6773
82.7857
82.8805
82.9651
83.0377
83.097
83.1447
83.1847
83.2197
83.2514
83.2799
83.3054
83.3263
83.3435
83.3551
83.3646
83.3678
83.3722
83.3671
83.3687
83.3531
83.354
83.3217
83.3238
83.2627
83.2685
83.1619
83.1827
83.0294
83.1186
82.9895
83.2638
83.299
83.7445
83.8822
84.0988
84.0015
83.7025
83.318
82.941
82.655
82.7531
82.7412
83.1122
83.152
83.4978
83.433
83.5877
83.3778
83.3528
83.1654
83.2988
83.259
83.4566
83.3789
83.5197
83.3144
83.4111
83.1693
83.2934
83.1311
83.2983
83.1285
83.3383
83.073
83.2486
83.0272
83.2488
83.0479
83.2768
82.9882
83.2172
83.0001
83.2462
82.9068
83.0789
82.7586
83.0492
82.8049
83.0213
82.5336
82.7996
82.5115
82.8672
82.3583
82.5709
82.0823
82.4906
82.0047
82.2775
81.6431
81.9928
81.4141
81.8485
81.0494
81.3671
80.6359
80.975
80.0426
80.3694
79.3339
79.7462
78.5268
78.7238
77.335
77.6709
76.0451
76.3109
74.3103
74.8188
72.1652
72.805
69.7563
69.7329
66.5583
64.5885
60.9246
56.4072
52.164
45.6438
42.1728
33.7892
27.7701
56.3223
55.992
54.7356
54.0149
53.9713
54.9117
56.424
58.3134
60.4358
62.3275
64.0899
65.4521
66.0349
66.0976
65.3601
63.6636
61.6344
59.1896
56.1188
53.1257
50.576
48.2624
45.6962
43.1492
40.7344
38.6173
37.1165
35.8818
35.0282
34.5388
34.5575
35.2067
36.2024
37.4567
39.121
41.059
42.9442
44.9368
47.0989
49.146
50.8526
51.8672
52.2594
51.3836
48.2367
43.3956
36.8289
29.1035
21.9223
15.2597
10.27
7.83291
6.74349
7.90413
12.3847
18.3546
24.8817
33.0467
42.7428
52.1119
59.63
65.2579
69.4589
72.5688
74.8731
76.6083
77.9431
78.9803
79.7807
80.405
80.9071
81.3178
81.6532
81.9276
82.1536
82.3424
82.5016
82.6347
82.7462
82.8431
82.9295
83.0047
83.0675
83.1188
83.1613
83.1977
83.2303
83.2599
83.2868
83.3093
83.3282
83.3413
83.352
83.3561
83.3612
83.3566
83.3586
83.3431
83.3443
83.3117
83.3136
83.2516
83.255
83.1451
83.1556
82.9918
83.0546
82.9071
83.1518
83.1842
83.6317
83.7877
83.9663
83.8246
83.4041
82.9521
82.5886
82.3598
82.573
82.6305
83.0616
83.1297
83.4936
83.4136
83.476
83.1452
83.0517
82.8841
83.1015
83.1425
83.4075
83.3229
83.4195
83.1548
83.1747
82.9624
83.1325
82.9697
83.1632
82.9592
83.1569
82.9002
83.0852
82.8327
83.0543
82.8235
83.0923
82.8315
83.0743
82.8128
83.0173
82.6377
82.8651
82.5764
82.8998
82.5943
82.7467
82.2174
82.5831
82.3051
82.6665
82.0346
82.2583
81.7549
82.2796
81.7343
81.941
81.1387
81.6947
81.0893
81.5302
80.5197
80.9606
80.1306
80.602
79.3276
79.9705
78.8227
79.3184
77.6885
78.2538
76.7191
77.0648
75.2514
75.6629
73.72
74.0177
71.7697
71.5544
69.2714
67.8627
65.3651
62.4133
59.1911
54.7266
51.5603
45.6781
43.0032
35.3648
28.9286
56.7293
56.4757
55.1702
54.3963
54.2714
55.0757
56.4808
58.1881
60.1783
61.9132
63.4703
64.7415
65.2142
65.2439
64.6579
63.1181
61.2581
59.1275
56.4182
53.6076
51.2394
49.1219
46.7409
44.4119
42.1634
40.2998
38.8894
37.7643
37.0075
36.4827
36.511
37.1276
37.9862
39.0965
40.6624
42.5044
44.308
46.2526
48.4036
50.5282
52.3921
53.5592
54.0789
53.2463
49.7833
44.2715
36.928
28.3009
20.1588
12.7294
7.2545
4.45285
2.98104
4.04836
8.8292
15.0867
21.6973
30.0431
40.1848
50.1686
58.3007
64.3978
68.9
72.2007
74.6225
76.4234
77.7984
78.8644
79.6864
80.3253
80.8376
81.256
81.5975
81.8768
82.1066
82.2977
82.4587
82.5943
82.7084
82.8071
82.8948
82.9728
83.0399
83.0957
83.1413
83.1794
83.2129
83.2433
83.2711
83.2948
83.3147
83.3287
83.3403
83.3451
83.3508
83.3467
83.3491
83.3339
83.3352
83.3031
83.3049
83.2438
83.2453
83.1359
83.1367
82.9677
82.9991
82.8313
83.0234
83.0318
83.4512
83.6002
83.7298
83.5423
83.0346
82.5848
82.2933
82.1736
82.465
82.5607
83.0082
83.0744
83.447
83.3158
83.2895
82.8661
82.754
82.6419
82.9397
83.0454
83.331
83.2471
83.2525
82.8933
82.9051
82.7272
82.9632
82.8435
83.0115
82.7553
82.9128
82.6483
82.8737
82.6347
82.8441
82.598
82.8811
82.6278
82.8549
82.5486
82.7194
82.359
82.6574
82.3815
82.6706
82.277
82.3783
81.8961
82.3632
82.0688
82.3305
81.6178
81.9077
81.4655
82.0086
81.3863
81.4725
80.6774
81.3581
80.7871
81.0759
79.9926
80.4834
79.6667
80.1125
78.6585
79.3136
78.3721
78.6603
76.7904
77.3888
76.1002
76.2148
74.2876
74.6444
72.8049
72.7661
70.6441
69.9598
67.7004
65.8416
63.4149
60.6964
57.9181
54.0429
52.0456
46.5529
44.0294
36.7644
29.9748
57.0746
56.8915
55.5593
54.7374
54.5469
55.2091
56.5182
58.0787
59.92
61.5239
62.9051
64.079
64.5155
64.513
64.0292
62.6792
60.9299
59.0269
56.6932
54.0753
51.8663
49.8936
47.7352
45.6013
43.522
41.8787
40.5638
39.5224
38.7912
38.3108
38.3818
38.9313
39.6689
40.6576
42.115
43.8612
45.6139
47.5315
49.682
51.9098
53.993
55.4205
56.1168
55.3705
51.6242
45.3976
37.1893
27.6067
18.5696
10.4447
4.46788
1.34695
-0.434247
0.500064
5.48192
12.0253
18.7922
27.329
37.8247
48.3251
57.0329
63.5878
68.3868
71.8748
74.4067
76.2659
77.6768
78.77
79.6128
80.2645
80.7844
81.2067
81.5504
81.8317
82.0636
82.2564
82.4188
82.5562
82.6725
82.7725
82.8613
82.9416
83.0129
83.073
83.1218
83.1619
83.1968
83.2282
83.257
83.2815
83.3023
83.3171
83.3294
83.3348