/*--------------------------------*- C++ -*----------------------------------*\
| =========                 |                                                 |
| \\      /  F ield         | OpenFOAM: The Open Source CFD Toolbox           |
|  \\    /   O peration     | Version:  2.4.0                                 |
|   \\  /    A nd           | Web:      www.OpenFOAM.org                      |
|    \\/     M anipulation  |                                                 |
\*---------------------------------------------------------------------------*/
FoamFile
{
    version     2.0;
    format      ascii;
    class       volScalarField;
    location    "0.063";
    object      nuSgs;
}
// * * * * * * * * * * * * * * * * * * * * * * * * * * * * * * * * * * * * * //

dimensions      [0 2 -1 0 0 0 0];

internalField   nonuniform List<scalar> 
17600
(
0.00101285
0.000904499
0.000752557
0.000658943
0.000607725
0.00057109
0.000545438
0.000522736
0.000508396
0.0004915
0.000486424
0.000471793
0.000470706
0.000458936
0.000459943
0.000450724
0.000454711
0.000453458
0.000445273
0.000470398
0.000705524
0.000827766
0.000803347
0.000746662
0.000698943
0.000658895
0.000630532
0.000604603
0.000588432
0.000567717
0.000561276
0.000543896
0.000541432
0.000528631
0.000527401
0.000518131
0.000519082
0.000515216
0.000508396
0.000539722
0.00038248
0.000602053
0.000664371
0.000661279
0.000645447
0.000618064
0.000597399
0.000575721
0.000563193
0.000543735
0.00053794
0.000522271
0.000519066
0.000507914
0.000505312
0.000496819
0.000496209
0.000490616
0.000484967
0.000499219
0.000151615
0.000363292
0.000461048
0.000506395
0.000527428
0.000526699
0.000523324
0.000513
0.000507621
0.000494116
0.000490379
0.000479281
0.000476327
0.0004683
0.00046545
0.000457933
0.000457595
0.000451403
0.000446065
0.000447411
5.3688e-05
0.000172151
0.000266054
0.000325162
0.000371756
0.000395912
0.000414566
0.000418211
0.000424875
0.000422004
0.000422386
0.000419032
0.000417649
0.000414691
0.000412822
0.000407412
0.00040831
0.000403573
0.000399222
0.000393873
1.7449e-05
6.9794e-05
0.000125465
0.000168394
0.000216719
0.000248109
0.000281808
0.000296647
0.000317801
0.000324332
0.000333715
0.000338668
0.000340651
0.00034523
0.000345699
0.00034474
0.000346814
0.000345524
0.000343065
0.000336082
5.59405e-06
2.64119e-05
5.06014e-05
7.0872e-05
0.00010372
0.000123948
0.000158363
0.000173729
0.000199437
0.000213921
0.00022633
0.000241723
0.000246798
0.000258759
0.000262746
0.000267364
0.000271279
0.000275664
0.000274637
0.000269678
2.34639e-06
9.75406e-06
1.87344e-05
2.64801e-05
4.06347e-05
5.15067e-05
7.2064e-05
8.29129e-05
0.000100303
0.000117407
0.000125912
0.000143414
0.000149836
0.000164708
0.000170343
0.000180881
0.00018363
0.000194989
0.000194484
0.000190414
1.74554e-06
3.95938e-06
7.32238e-06
9.68254e-06
1.4236e-05
1.85646e-05
2.73643e-05
3.29354e-05
4.01552e-05
5.21339e-05
5.74252e-05
6.90187e-05
7.39021e-05
8.45326e-05
9.09e-05
9.95094e-05
0.000101729
0.000115436
0.000114879
0.000110072
1.6323e-06
2.3082e-06
3.72532e-06
4.28047e-06
5.53431e-06
6.78754e-06
9.80598e-06
1.17218e-05
1.42739e-05
1.90977e-05
2.14941e-05
2.72889e-05
2.9512e-05
3.40417e-05
4.0519e-05
4.2321e-05
4.44415e-05
5.55919e-05
5.45192e-05
5.05629e-05
1.59403e-06
1.95921e-06
2.7702e-06
2.90834e-06
3.25682e-06
3.50825e-06
4.33081e-06
4.79636e-06
5.64744e-06
6.92732e-06
7.6366e-06
9.75722e-06
1.02835e-05
1.24363e-05
1.47974e-05
1.50435e-05
1.63147e-05
2.14001e-05
2.03418e-05
1.84161e-05
1.56921e-06
1.86649e-06
2.44935e-06
2.59853e-06
2.75209e-06
2.81156e-06
2.99416e-06
3.10289e-06
3.4734e-06
3.60516e-06
3.96804e-06
4.26982e-06
4.42643e-06
5.21642e-06
5.53617e-06
6.13315e-06
6.38906e-06
7.58288e-06
7.35007e-06
7.36648e-06
1.5546e-06
1.81066e-06
2.25161e-06
2.51539e-06
2.53874e-06
2.58182e-06
2.62326e-06
2.78813e-06
2.8964e-06
2.95491e-06
3.12481e-06
3.10804e-06
3.50539e-06
3.5211e-06
3.74872e-06
4.21948e-06
4.15168e-06
4.32539e-06
4.70176e-06
4.91274e-06
1.54217e-06
1.76012e-06
2.14753e-06
2.37694e-06
2.39503e-06
2.43569e-06
2.45909e-06
2.59971e-06
2.62762e-06
2.79649e-06
2.77815e-06
2.83589e-06
2.97909e-06
2.98806e-06
3.45998e-06
3.43325e-06
3.43449e-06
3.7878e-06
4.08807e-06
3.96533e-06
1.53045e-06
1.71707e-06
2.05505e-06
2.2284e-06
2.29904e-06
2.3224e-06
2.34186e-06
2.39455e-06
2.42069e-06
2.58075e-06
2.57829e-06
2.8277e-06
2.78409e-06
2.83099e-06
3.08025e-06
3.03917e-06
3.07915e-06
3.49762e-06
3.48979e-06
3.3021e-06
1.52154e-06
1.68755e-06
1.9849e-06
2.1286e-06
2.21136e-06
2.22513e-06
2.25503e-06
2.25669e-06
2.3297e-06
2.35702e-06
2.41833e-06
2.51953e-06
2.51992e-06
2.80728e-06
2.76453e-06
2.76445e-06
2.98972e-06
3.1435e-06
3.02683e-06
3.06286e-06
1.51517e-06
1.67076e-06
1.9306e-06
2.06393e-06
2.12941e-06
2.14565e-06
2.15912e-06
2.16708e-06
2.22732e-06
2.24247e-06
2.38952e-06
2.40396e-06
2.46583e-06
2.55153e-06
2.55478e-06
2.6531e-06
2.79751e-06
2.79387e-06
2.7928e-06
3.08755e-06
1.51066e-06
1.66907e-06
1.88881e-06
2.01338e-06
2.06716e-06
2.08891e-06
2.09506e-06
2.12019e-06
2.13166e-06
2.17219e-06
2.21479e-06
2.25877e-06
2.45105e-06
2.43175e-06
2.46154e-06
2.63132e-06
2.60501e-06
2.60868e-06
2.75344e-06
2.83488e-06
1.50772e-06
1.66084e-06
1.87167e-06
1.98149e-06
2.02934e-06
2.04206e-06
2.05982e-06
2.07766e-06
2.08536e-06
2.14758e-06
2.18566e-06
2.26319e-06
2.28196e-06
2.3135e-06
2.4134e-06
2.42806e-06
2.4332e-06
2.48372e-06
2.60154e-06
2.55031e-06
1.50629e-06
1.6645e-06
1.86186e-06
1.95569e-06
2.0107e-06
2.02645e-06
2.04774e-06
2.06782e-06
2.07051e-06
2.08406e-06
2.12186e-06
2.21405e-06
2.25035e-06
2.28494e-06
2.33793e-06
2.31825e-06
2.32004e-06
2.4161e-06
2.4164e-06
2.39976e-06
1.50652e-06
1.6692e-06
1.85288e-06
1.96274e-06
2.01281e-06
2.02255e-06
2.04902e-06
2.06242e-06
2.07306e-06
2.12618e-06
2.13233e-06
2.15833e-06
2.21949e-06
2.24327e-06
2.233e-06
2.24287e-06
2.26707e-06
2.32453e-06
2.32088e-06
2.3406e-06
1.50805e-06
1.66906e-06
1.86594e-06
1.99049e-06
2.0196e-06
2.03499e-06
2.08638e-06
2.08563e-06
2.09842e-06
2.12463e-06
2.13958e-06
2.22802e-06
2.22723e-06
2.22876e-06
2.26051e-06
2.26454e-06
2.26647e-06
2.28929e-06
2.3033e-06
2.34429e-06
1.51103e-06
1.66487e-06
1.90833e-06
2.02836e-06
2.04008e-06
2.08636e-06
2.1133e-06
2.11564e-06
2.18109e-06
2.17725e-06
2.19405e-06
2.25598e-06
2.25044e-06
2.26579e-06
2.3024e-06
2.29728e-06
2.30011e-06
2.32444e-06
2.35337e-06
2.41299e-06
1.51599e-06
1.6832e-06
1.96729e-06
2.05256e-06
2.08724e-06
2.15458e-06
2.16003e-06
2.20565e-06
2.23157e-06
2.22818e-06
2.30822e-06
2.31172e-06
2.31522e-06
2.37425e-06
2.37545e-06
2.37226e-06
2.39355e-06
2.44523e-06
2.47519e-06
2.53834e-06
1.52315e-06
1.7357e-06
1.99821e-06
2.09094e-06
2.19158e-06
2.21507e-06
2.23636e-06
2.32579e-06
2.31772e-06
2.37008e-06
2.41797e-06
2.4179e-06
2.46939e-06
2.5036e-06
2.49316e-06
2.50443e-06
2.5617e-06
2.62222e-06
2.653e-06
2.71877e-06
1.53214e-06
1.76969e-06
2.00313e-06
2.20229e-06
2.29259e-06
2.30606e-06
2.39016e-06
2.41802e-06
2.4323e-06
2.54534e-06
2.55431e-06
2.59687e-06
2.67104e-06
2.66004e-06
2.66045e-06
2.71281e-06
2.79206e-06
2.8615e-06
2.95221e-06
3.1602e-06
1.54131e-06
1.75456e-06
2.09257e-06
2.3603e-06
2.39363e-06
2.43297e-06
2.53323e-06
2.54365e-06
2.64487e-06
2.70872e-06
2.72806e-06
2.85765e-06
2.88648e-06
2.8898e-06
2.91973e-06
3.03602e-06
3.15948e-06
3.34851e-06
3.72428e-06
4.62456e-06
1.55079e-06
1.7874e-06
2.30925e-06
2.4575e-06
2.52e-06
2.61133e-06
2.65687e-06
2.73212e-06
2.93875e-06
2.97256e-06
3.06156e-06
3.2026e-06
3.24549e-06
3.37547e-06
3.53377e-06
3.89015e-06
4.33523e-06
5.17179e-06
6.72056e-06
9.94935e-06
1.56874e-06
1.83749e-06
2.51496e-06
2.59144e-06
2.78151e-06
2.83583e-06
2.98733e-06
3.20613e-06
3.39727e-06
3.6905e-06
3.93879e-06
4.35877e-06
4.68143e-06
5.45634e-06
6.1445e-06
7.69773e-06
9.36502e-06
1.22472e-05
1.66489e-05
2.48578e-05
1.59256e-06
1.93274e-06
2.78596e-06
2.90543e-06
3.25219e-06
3.53482e-06
4.17496e-06
4.87689e-06
5.65361e-06
7.01641e-06
7.91491e-06
9.77043e-06
1.1142e-05
1.40331e-05
1.62404e-05
2.10322e-05
2.50493e-05
3.26918e-05
4.1081e-05
5.9096e-05
1.62847e-06
2.29316e-06
3.52253e-06
4.19969e-06
5.26086e-06
6.92082e-06
8.87513e-06
1.20013e-05
1.45972e-05
1.91749e-05
2.19652e-05
2.77285e-05
3.13195e-05
3.87253e-05
4.34832e-05
5.37424e-05
6.08166e-05
7.51738e-05
8.74615e-05
0.00011912
1.7487e-06
3.96978e-06
7.07134e-06
9.51212e-06
1.36894e-05
1.86568e-05
2.51509e-05
3.38521e-05
4.07875e-05
5.23582e-05
5.82661e-05
7.03635e-05
7.69643e-05
9.02749e-05
9.77112e-05
0.000113484
0.000122959
0.000142407
0.000156913
0.000196929
2.35983e-06
9.78795e-06
1.86074e-05
2.6442e-05
4.02994e-05
5.13946e-05
7.0698e-05
8.35381e-05
0.000101328
0.000117702
0.00012735
0.000145103
0.00015414
0.000170425
0.000179032
0.000196035
0.000205459
0.000224346
0.000237594
0.000270978
5.61139e-06
2.64187e-05
5.06719e-05
7.08424e-05
0.000103501
0.000124369
0.000157765
0.00017491
0.000199991
0.000214254
0.000229123
0.000242136
0.000252872
0.000263102
0.00027114
0.000281999
0.000288962
0.000301603
0.000311202
0.000333065
1.74756e-05
6.96374e-05
0.000126025
0.00016766
0.000217269
0.000248202
0.000281565
0.000297687
0.000317876
0.000325326
0.00033541
0.000339652
0.000345817
0.000348
0.000352563
0.000355299
0.000359895
0.000364447
0.000370708
0.000380318
5.3771e-05
0.000171516
0.000266732
0.000324649
0.000372389
0.000395752
0.000414723
0.000418693
0.000425027
0.000422846
0.000423199
0.000420224
0.000419862
0.000416575
0.000416535
0.000414361
0.000414955
0.000413987
0.000415332
0.000415005
0.000151869
0.000362988
0.000461592
0.000506007
0.000527873
0.00052666
0.000523405
0.000513012
0.000507576
0.000494705
0.000490476
0.000479767
0.000476711
0.000468028
0.000465781
0.000458368
0.000456265
0.000449379
0.000445831
0.000437585
0.00038308
0.000601649
0.000664675
0.00066114
0.000645928
0.000617245
0.000598007
0.000575066
0.000563009
0.000543734
0.00053704
0.000521582
0.000517106
0.000504661
0.000500725
0.000488512
0.000483612
0.000469576
0.000460587
0.000443256
0.000705845
0.00082748
0.000803567
0.000746265
0.000699603
0.000657907
0.000631172
0.000603395
0.000588079
0.000566725
0.000559109
0.000541429
0.000536402
0.000521209
0.000516011
0.000499338
0.000491717
0.000470698
0.000455612
0.000426872
0.00101311
0.000904291
0.000752877
0.00065839
0.000608161
0.000570113
0.000545816
0.000521261
0.000507656
0.000489497
0.000483162
0.000467409
0.000462817
0.00044747
0.000442049
0.000423505
0.000414035
0.00038887
0.000369255
0.000332982
0.000212162
0.00014504
0.000111772
9.43908e-05
7.81283e-05
6.93846e-05
6.75981e-05
6.86756e-05
7.77819e-05
0.000104151
0.000123658
0.000124978
0.000122303
0.000113856
9.30728e-05
6.81377e-05
5.07629e-05
3.67514e-05
2.63982e-05
2.15689e-05
1.90685e-05
1.92883e-05
2.26432e-05
2.38899e-05
2.49264e-05
2.71849e-05
3.28072e-05
6.45698e-05
8.58871e-05
8.66258e-05
7.99659e-05
6.74107e-05
5.81542e-05
5.1172e-05
4.63336e-05
4.43254e-05
4.2888e-05
4.1614e-05
4.20539e-05
4.71268e-05
4.77039e-05
4.76435e-05
4.8033e-05
4.73752e-05
4.54074e-05
4.50892e-05
4.54884e-05
4.70757e-05
4.74993e-05
4.78645e-05
4.99603e-05
5.06012e-05
4.92037e-05
4.07305e-05
2.83037e-05
1.97436e-05
1.72112e-05
1.83087e-05
2.65355e-05
5.07599e-05
7.30534e-05
7.83879e-05
7.834e-05
7.50788e-05
6.52019e-05
5.61121e-05
4.92539e-05
4.43133e-05
4.10943e-05
3.90553e-05
3.74316e-05
3.62359e-05
3.61401e-05
3.63731e-05
3.70822e-05
3.86403e-05
4.22021e-05
4.9282e-05
5.31807e-05
5.41416e-05
5.38643e-05
5.16249e-05
4.51588e-05
3.85008e-05
3.26708e-05
2.7874e-05
2.39776e-05
2.07282e-05
1.83193e-05
1.65036e-05
1.54393e-05
1.4713e-05
1.41921e-05
1.36824e-05
1.3035e-05
1.23877e-05
1.15767e-05
1.10576e-05
1.03767e-05
9.98197e-06
9.498e-06
9.17612e-06
8.90611e-06
8.70165e-06
8.60847e-06
8.52791e-06
8.52619e-06
8.51945e-06
8.51377e-06
8.48487e-06
8.41902e-06
8.38266e-06
8.3145e-06
8.18172e-06
7.81803e-06
7.37068e-06
6.82518e-06
6.26658e-06
5.66391e-06
5.07835e-06
4.49133e-06
3.94268e-06
3.42259e-06
2.95247e-06
2.52479e-06
2.15242e-06
1.82319e-06
1.54612e-06
1.3102e-06
1.11524e-06
9.54157e-07
8.27028e-07
7.22815e-07
6.43624e-07
5.84375e-07
5.39592e-07
5.08448e-07
4.89081e-07
4.82344e-07
4.81676e-07
4.85003e-07
4.91901e-07
5.10276e-07
5.23647e-07
5.56694e-07
5.78135e-07
6.2732e-07
6.57218e-07
7.19444e-07
7.55692e-07
8.44957e-07
8.8489e-07
9.91973e-07
1.04966e-06
1.17652e-06
1.23222e-06
1.36511e-06
1.41675e-06
1.55522e-06
1.60997e-06
1.77946e-06
1.82349e-06
1.97903e-06
2.00708e-06
2.12677e-06
2.09738e-06
2.0879e-06
1.99264e-06
1.9052e-06
1.67617e-06
1.48448e-06
1.35633e-06
1.31072e-06
1.35161e-06
1.43156e-06
1.6469e-06
1.72392e-06
2.04744e-06
1.96742e-06
2.00549e-06
1.82282e-06
1.66892e-06
1.60815e-06
1.65674e-06
1.90126e-06
1.80912e-06
1.86988e-06
1.67897e-06
1.65325e-06
1.87278e-06
1.79948e-06
2.08941e-06
2.07592e-06
2.28397e-06
2.75482e-06
3.66271e-06
5.72951e-06
1.00719e-05
3.15407e-05
0.000119802
0.000261402
0.000216366
0.000181541
0.000144775
0.000106663
9.66582e-05
9.78267e-05
0.000109413
0.000127348
0.000131964
0.000131206
0.000127182
0.000116465
9.66769e-05
7.37622e-05
4.99371e-05
3.8071e-05
2.88589e-05
2.00002e-05
1.66126e-05
1.59814e-05
1.67452e-05
1.92623e-05
2.15428e-05
2.32441e-05
2.50457e-05
2.97188e-05
5.49623e-05
8.27788e-05
8.552e-05
8.11995e-05
6.91333e-05
6.04976e-05
5.36033e-05
4.76945e-05
4.40179e-05
4.12579e-05
3.89896e-05
3.8816e-05
4.12599e-05
4.17477e-05
4.27649e-05
4.52438e-05
4.51412e-05
4.50128e-05
4.5305e-05
4.67889e-05
4.7901e-05
4.82262e-05
4.93281e-05
5.17879e-05
5.13396e-05
4.76716e-05
3.47369e-05
2.383e-05
1.77463e-05
1.69978e-05
1.99815e-05
3.34723e-05
6.32113e-05
7.93772e-05
8.16756e-05
7.9577e-05
7.18769e-05
6.07593e-05
5.23309e-05
4.6371e-05
4.20105e-05
3.92282e-05
3.76278e-05
3.62294e-05
3.52328e-05
3.51407e-05
3.53155e-05
3.58481e-05
3.71009e-05
3.98283e-05
4.70948e-05
5.20493e-05
5.36758e-05
5.37052e-05
5.22349e-05
4.63599e-05
3.94807e-05
3.34376e-05
2.84246e-05
2.43242e-05
2.09922e-05
1.84005e-05
1.65682e-05
1.53287e-05
1.46092e-05
1.4101e-05
1.35445e-05
1.2977e-05
1.22083e-05
1.15225e-05
1.08638e-05
1.03043e-05
9.81059e-06
9.37618e-06
9.07121e-06
8.84863e-06
8.76999e-06
8.72715e-06
8.76172e-06
8.74209e-06
8.78622e-06
8.72642e-06
8.69903e-06
8.5818e-06
8.50787e-06
8.4045e-06
8.1637e-06
7.76039e-06
7.30819e-06
6.76906e-06
6.2196e-06
5.63011e-06
5.0517e-06
4.47387e-06
3.92836e-06
3.41228e-06
2.94369e-06
2.51707e-06
2.14224e-06
1.8115e-06
1.52807e-06
1.28843e-06
1.08516e-06
9.20448e-07
7.81767e-07
6.72934e-07
5.8188e-07
5.14601e-07
4.56141e-07
4.17327e-07
3.82967e-07
3.61917e-07
3.42978e-07
3.32549e-07
3.23775e-07
3.22003e-07
3.22091e-07
3.23958e-07
3.27567e-07
3.34658e-07
3.51279e-07
3.60051e-07
3.80992e-07
4.11054e-07
4.31273e-07
4.85785e-07
5.26804e-07
5.73019e-07
6.8875e-07
7.57624e-07
9.05854e-07
1.00411e-06
1.20352e-06
1.308e-06
1.54951e-06
1.66644e-06
1.92656e-06
2.01922e-06
2.27001e-06
2.32763e-06
2.54202e-06
2.55717e-06
2.6466e-06
2.54178e-06
2.43972e-06
2.17363e-06
1.90372e-06
1.69816e-06
1.70861e-06
1.79977e-06
1.90604e-06
2.26243e-06
2.25635e-06
2.43839e-06
2.26187e-06
2.06296e-06
1.84341e-06
1.88178e-06
2.16824e-06
2.05221e-06
2.13179e-06
1.89114e-06
1.91106e-06
2.0474e-06
2.10194e-06
2.27211e-06
2.72963e-06
2.92989e-06
3.82795e-06
6.07431e-06
9.42728e-06
3.2509e-05
0.00010172
0.00025433
0.000227262
0.000208835
0.000193313
0.000163553
0.000152043
0.000145199
0.000145376
0.00014443
0.000139605
0.00013166
0.000117806
9.84731e-05
7.63974e-05
5.25754e-05
3.6649e-05
2.9931e-05
2.28236e-05
1.55564e-05
1.37255e-05
1.43036e-05
1.58863e-05
1.81629e-05
1.85011e-05
2.13651e-05
2.33028e-05
2.79621e-05
4.39255e-05
7.79719e-05
8.47504e-05
8.26587e-05
7.22641e-05
6.31439e-05
5.56197e-05
4.89838e-05
4.42358e-05
4.04858e-05
3.72702e-05
3.64472e-05
3.70157e-05
3.69323e-05
3.78345e-05
4.1963e-05
4.38483e-05
4.47851e-05
4.61744e-05
4.75013e-05
4.81687e-05
4.91573e-05
5.20354e-05
5.32217e-05
5.16826e-05
4.29706e-05
2.94999e-05
2.00124e-05
1.66789e-05
1.70999e-05
2.32989e-05
4.38751e-05
7.51514e-05
8.41721e-05
8.40541e-05
7.97164e-05
6.77815e-05
5.7684e-05
5.02461e-05
4.48676e-05
4.09403e-05
3.8226e-05
3.6496e-05
3.50733e-05
3.42975e-05
3.42802e-05
3.44662e-05
3.49507e-05
3.59838e-05
3.81873e-05
4.48964e-05
5.09217e-05
5.32108e-05
5.34518e-05
5.25192e-05
4.74512e-05
4.0343e-05
3.41268e-05
2.89564e-05
2.46336e-05
2.11567e-05
1.84687e-05
1.65462e-05
1.53467e-05
1.44384e-05
1.40287e-05
1.33573e-05
1.28598e-05
1.20868e-05
1.14543e-05
1.08165e-05
1.02504e-05
9.72923e-06
9.35091e-06
9.0104e-06
8.94421e-06
8.84396e-06
8.91516e-06
8.86646e-06
8.9023e-06
8.86006e-06
8.83462e-06
8.71991e-06
8.66949e-06
8.53967e-06
8.46737e-06
8.2118e-06
7.84633e-06
7.3525e-06
6.85071e-06
6.27679e-06
5.72852e-06
5.13709e-06
4.58684e-06
4.04495e-06
3.53911e-06
3.07549e-06
2.66192e-06
2.28592e-06
1.96966e-06
1.69628e-06
1.45334e-06
1.27028e-06
1.10068e-06
9.75616e-07
8.70818e-07
8.00611e-07
7.26919e-07
6.93989e-07
6.52506e-07
6.33742e-07
6.12516e-07
6.09186e-07
5.99027e-07
5.98662e-07
5.96197e-07
5.97404e-07
5.92662e-07
5.95946e-07
5.89952e-07
5.89128e-07
5.87013e-07
5.85472e-07
5.79032e-07
5.79601e-07
5.74068e-07
5.76036e-07
5.79781e-07
5.92215e-07
6.00165e-07
6.17288e-07
6.54484e-07
6.86281e-07
7.70003e-07
8.34357e-07
9.63331e-07
1.10745e-06
1.38789e-06
1.57446e-06
1.99597e-06
2.17628e-06
2.56554e-06
2.6528e-06
2.98881e-06
3.02952e-06
3.19456e-06
3.04558e-06
2.86577e-06
2.47993e-06
2.19615e-06
2.11673e-06
2.18186e-06
2.44718e-06
2.52636e-06
2.88075e-06
2.65194e-06
2.40399e-06
2.07681e-06
2.13736e-06
2.51285e-06
2.34633e-06
2.59189e-06
2.26649e-06
2.18742e-06
2.48376e-06
2.40635e-06
2.65097e-06
3.20653e-06
3.81723e-06
7.05582e-06
9.26492e-06
3.18149e-05
8.229e-05
0.00023343
0.000218532
0.000203022
0.00019569
0.000180424
0.000169157
0.000161083
0.000153191
0.000143564
0.000134327
0.000118288
0.000100634
7.8622e-05
5.40372e-05
3.70919e-05
2.79704e-05
2.28731e-05
1.61992e-05
1.14188e-05
1.10264e-05
1.34655e-05
1.55018e-05
1.66957e-05
1.65568e-05
1.9248e-05
2.12016e-05
2.59229e-05
3.373e-05
6.64355e-05
8.28411e-05
8.26503e-05
7.62299e-05
6.63449e-05
5.78382e-05
5.04427e-05
4.46947e-05
4.02047e-05
3.63439e-05
3.48308e-05
3.45574e-05
3.41432e-05
3.55783e-05
3.96848e-05
4.28861e-05
4.51262e-05
4.64275e-05
4.75825e-05
4.85672e-05
5.14605e-05
5.45226e-05
5.38704e-05
4.97249e-05
3.56883e-05
2.34652e-05
1.73455e-05
1.61924e-05
1.82163e-05
2.89521e-05
5.90321e-05
8.30255e-05
8.74672e-05
8.52203e-05
7.5562e-05
6.33509e-05
5.44178e-05
4.77433e-05
4.2758e-05
3.9268e-05
3.71262e-05
3.56855e-05
3.44917e-05
3.38517e-05
3.38162e-05
3.39449e-05
3.43213e-05
3.51738e-05
3.70484e-05
4.29707e-05
4.97545e-05
5.26347e-05
5.31824e-05
5.25817e-05
4.82598e-05
4.10321e-05
3.46946e-05
2.9377e-05
2.48419e-05
2.12375e-05
1.85244e-05
1.6543e-05
1.53332e-05
1.4414e-05
1.38719e-05
1.3264e-05
1.26363e-05
1.19862e-05
1.13022e-05
1.07564e-05
1.01037e-05
9.73619e-06
9.29053e-06
9.13524e-06
8.96623e-06
8.96606e-06
8.92717e-06
8.92226e-06
8.8701e-06
8.86221e-06
8.77149e-06
8.74763e-06
8.66189e-06
8.62573e-06
8.55391e-06
8.40921e-06
8.05379e-06
7.56373e-06
7.07019e-06
6.49749e-06
5.98158e-06
5.3794e-06
4.86824e-06
4.30404e-06
3.83988e-06
3.35432e-06
2.98868e-06
2.58012e-06
2.31066e-06
1.99623e-06
1.80151e-06
1.58245e-06
1.4677e-06
1.31141e-06
1.25376e-06
1.15581e-06
1.12602e-06
1.08108e-06
1.07709e-06
1.0644e-06
1.06661e-06
1.06532e-06
1.07131e-06
1.07491e-06
1.09272e-06
1.09546e-06
1.10113e-06
1.12335e-06
1.14361e-06
1.15293e-06
1.18218e-06
1.18278e-06
1.18915e-06
1.20486e-06
1.19302e-06
1.21018e-06
1.19865e-06
1.17305e-06
1.17034e-06
1.13392e-06
1.07977e-06
1.06139e-06
1.03108e-06
9.85516e-07
9.87099e-07
9.98666e-07
1.02892e-06
1.10224e-06
1.20436e-06
1.36297e-06
1.63137e-06
2.14895e-06
2.41377e-06
2.96193e-06
3.11475e-06
3.59229e-06
3.61862e-06
3.74796e-06
3.50407e-06
3.16041e-06
2.67617e-06
2.60237e-06
2.73643e-06
2.85863e-06
3.40675e-06
3.17495e-06
2.89911e-06
2.40994e-06
2.48904e-06
2.74437e-06
2.72892e-06
2.8811e-06
2.5229e-06
2.54557e-06
3.0949e-06
2.97459e-06
3.80502e-06
3.98616e-06
8.42112e-06
9.65542e-06
3.02433e-05
6.73729e-05
0.000205214
0.000199039
0.000185745
0.000180746
0.000175594
0.000163527
0.000156487
0.000145745
0.000132638
0.000120016
0.000102422
8.19558e-05
5.68223e-05
3.69349e-05
2.6408e-05
2.16318e-05
1.63636e-05
1.15503e-05
9.14733e-06
9.57682e-06
1.33916e-05
1.52808e-05
1.52491e-05
1.45828e-05
1.6462e-05
1.85118e-05
2.28902e-05
2.7736e-05
5.17265e-05
7.94949e-05
8.1714e-05
7.85673e-05
6.85166e-05
5.95827e-05
5.17688e-05
4.53441e-05
4.03375e-05
3.62469e-05
3.40938e-05
3.3324e-05
3.29502e-05
3.34895e-05
3.75293e-05
4.27582e-05
4.53144e-05
4.63889e-05
4.7672e-05
5.00872e-05
5.55577e-05
5.60624e-05
5.37172e-05
4.32196e-05
2.90679e-05
1.93815e-05
1.59041e-05
1.60627e-05
2.07458e-05
3.7427e-05
7.25736e-05
8.96519e-05
9.02751e-05
8.53887e-05
7.18287e-05
6.07697e-05
5.2581e-05
4.63158e-05
4.17622e-05
3.82983e-05
3.61289e-05
3.48229e-05
3.39048e-05
3.35723e-05
3.35814e-05
3.36916e-05
3.39632e-05
3.46131e-05
3.62161e-05
4.14983e-05
4.8749e-05
5.21535e-05
5.29287e-05
5.25242e-05
4.88896e-05
4.1719e-05
3.51972e-05
2.96214e-05
2.49934e-05
2.1287e-05
1.8593e-05
1.6552e-05
1.53321e-05
1.43793e-05
1.37935e-05
1.30424e-05
1.25439e-05
1.17651e-05
1.12733e-05
1.06539e-05
1.00859e-05
9.74037e-06
9.3115e-06
9.19366e-06
8.95776e-06
8.91288e-06
8.78939e-06
8.76842e-06
8.70883e-06
8.71351e-06
8.71725e-06
8.72676e-06
8.76982e-06
8.74689e-06
8.75846e-06
8.69256e-06
8.50721e-06
7.96454e-06
7.5529e-06
6.78208e-06
6.40141e-06
5.68261e-06
5.19849e-06
4.63683e-06
4.19448e-06
3.65992e-06
3.37862e-06
2.92735e-06
2.69563e-06
2.46854e-06
2.21833e-06
2.09154e-06
1.96e-06
1.8738e-06
1.79628e-06
1.78843e-06
1.7424e-06
1.75003e-06
1.72957e-06
1.74336e-06
1.72115e-06
1.76955e-06
1.73427e-06
1.77368e-06
1.7531e-06
1.80714e-06
1.77132e-06
1.8462e-06
1.80991e-06
1.867e-06
1.84482e-06
1.91236e-06
1.88623e-06
1.95567e-06
1.92747e-06
2.00844e-06
1.96026e-06
1.9921e-06
1.99862e-06
2.01268e-06
1.97901e-06
1.98401e-06
1.93717e-06
1.85944e-06
1.80315e-06
1.72826e-06
1.6283e-06
1.52406e-06
1.45438e-06
1.42917e-06
1.45198e-06
1.52651e-06
1.67229e-06
1.9587e-06
2.46346e-06
2.83978e-06
3.57945e-06
3.76789e-06
4.33535e-06
4.28253e-06
4.13402e-06
3.62565e-06
3.2056e-06
3.1204e-06
3.24918e-06
3.91315e-06
3.73949e-06
3.65679e-06
3.07894e-06
2.91579e-06
3.13158e-06
3.02979e-06
3.07533e-06
2.88394e-06
3.25947e-06
3.25042e-06
4.58453e-06
4.51987e-06
1.39912e-05
1.14258e-05
2.61748e-05
5.45613e-05
0.000171946
0.000168083
0.000161749
0.000157403
0.000156051
0.000148988
0.000141651
0.000131511
0.000116858
0.000103716
8.11101e-05
5.62766e-05
3.66436e-05
2.41071e-05
1.92908e-05
1.65154e-05
1.16493e-05
8.37273e-06
7.77598e-06
8.88589e-06
1.36724e-05
1.46311e-05
1.44969e-05
1.35217e-05
1.42976e-05
1.62909e-05
1.95652e-05
2.2981e-05
3.50308e-05
7.17276e-05
7.98431e-05
7.85922e-05
7.19248e-05
6.17344e-05
5.35601e-05
4.64372e-05
4.07942e-05
3.64362e-05
3.38871e-05
3.32065e-05
3.27973e-05
3.31118e-05
3.81099e-05
4.26973e-05
4.44625e-05
4.59983e-05
4.87634e-05
5.56327e-05
5.79403e-05
5.67676e-05
5.00493e-05
3.44752e-05
2.23661e-05
1.63129e-05
1.52255e-05
1.67322e-05
2.5393e-05
4.9365e-05
8.52559e-05
9.36949e-05
9.16905e-05
8.082e-05
6.71052e-05
5.74972e-05
5.03601e-05
4.47801e-05
4.04607e-05
3.74356e-05
3.55714e-05
3.44379e-05
3.35918e-05
3.33751e-05
3.34126e-05
3.35519e-05
3.3771e-05
3.42883e-05
3.56707e-05
4.034e-05
4.79039e-05
5.16857e-05
5.26949e-05
5.24321e-05
4.92596e-05
4.20644e-05
3.54373e-05
2.97446e-05
2.5083e-05
2.13368e-05
1.85905e-05
1.66004e-05
1.53365e-05
1.43435e-05
1.3824e-05
1.28583e-05
1.25292e-05
1.17648e-05
1.12819e-05
1.06871e-05
1.00682e-05
9.84265e-06
9.44302e-06
9.33667e-06
9.09677e-06
8.95874e-06
8.88944e-06
8.86331e-06
8.90933e-06
8.95785e-06
9.27752e-06
9.33169e-06
9.66924e-06
9.63728e-06
9.74707e-06
9.71423e-06
9.62318e-06
9.175e-06
8.87604e-06
7.98876e-06
7.61709e-06
6.77353e-06
6.44273e-06
5.71909e-06
5.38929e-06
4.73321e-06
4.53757e-06
4.06699e-06
3.93134e-06
3.63191e-06
3.55032e-06
3.36345e-06
3.3628e-06
3.28345e-06
3.31781e-06
3.27862e-06
3.31021e-06
3.28444e-06
3.35505e-06
3.33254e-06
3.40569e-06
3.40989e-06
3.48322e-06
3.46053e-06
3.56301e-06
3.54469e-06
3.60336e-06
3.58085e-06
3.67145e-06
3.59659e-06
3.67891e-06
3.59364e-06
3.69449e-06
3.56325e-06
3.63985e-06
3.52617e-06
3.60928e-06
3.416e-06
3.5642e-06
3.34861e-06
3.41067e-06
3.22631e-06
3.3358e-06
3.12233e-06
3.19249e-06
2.99635e-06
3.00421e-06
2.81676e-06
2.74887e-06
2.51644e-06
2.35413e-06
2.15536e-06
1.97858e-06
1.97802e-06
2.02665e-06
2.17948e-06
2.52487e-06
3.19044e-06
3.64311e-06
4.60386e-06
4.7043e-06
5.11258e-06
4.74647e-06
4.07873e-06
3.58084e-06
3.73014e-06
4.19517e-06
4.22383e-06
4.18586e-06
3.5764e-06
3.43474e-06
3.71121e-06
3.57433e-06
3.35874e-06
4.14485e-06
3.8586e-06
9.08117e-06
6.66954e-06
1.70711e-05
1.34499e-05
2.38256e-05
4.52584e-05
0.000136912
0.000131828
0.000128987
0.000125703
0.000126514
0.000124073
0.000118628
0.000110234
9.63668e-05
7.58106e-05
5.2567e-05
3.49633e-05
2.25939e-05
1.63494e-05
1.49356e-05
1.2118e-05
8.15192e-06
6.53391e-06
7.11917e-06
9.04286e-06
1.40484e-05
1.40484e-05
1.3026e-05
1.23161e-05
1.29925e-05
1.51541e-05
1.72872e-05
1.93652e-05
2.3472e-05
5.43637e-05
7.54734e-05
7.70876e-05
7.51541e-05
6.55901e-05
5.62818e-05
4.81847e-05
4.17892e-05
3.69015e-05
3.40828e-05
3.34527e-05
3.28948e-05
3.32499e-05
3.69203e-05
4.08213e-05
4.3501e-05
4.72802e-05
5.51673e-05
5.95336e-05
5.88894e-05
5.50183e-05
4.04141e-05
2.62037e-05
1.76503e-05
1.47863e-05
1.50348e-05
1.88516e-05
3.23188e-05
6.66136e-05
9.30836e-05
9.67197e-05
9.1999e-05
7.68661e-05
6.4757e-05
5.59103e-05
4.90346e-05
4.3717e-05
3.95116e-05
3.64989e-05
3.47793e-05
3.3983e-05
3.33863e-05
3.31739e-05
3.32015e-05
3.33392e-05
3.35725e-05
3.40611e-05
3.53381e-05
3.96583e-05
4.72539e-05
5.13073e-05
5.25015e-05
5.2328e-05
4.94931e-05
4.23019e-05
3.55979e-05
2.98192e-05
2.50732e-05
2.13644e-05
1.85542e-05
1.66349e-05
1.53931e-05
1.42321e-05
1.38397e-05
1.28819e-05
1.2473e-05
1.19064e-05
1.11786e-05
1.0949e-05
1.03174e-05
1.02838e-05
1.01075e-05
9.79258e-06
9.53133e-06
9.24105e-06
9.2631e-06
9.25015e-06
9.29055e-06
9.40347e-06
9.73337e-06
9.77629e-06
9.94844e-06
9.95071e-06
9.98643e-06
9.94407e-06
9.82869e-06
9.43169e-06
9.17552e-06
8.4608e-06
8.14072e-06
7.31781e-06
6.98363e-06
6.21523e-06
5.92231e-06
5.25538e-06
5.05112e-06
4.55586e-06
4.4323e-06
4.10978e-06
4.03075e-06
3.82619e-06
3.81172e-06
3.70463e-06
3.72782e-06
3.658e-06
3.67841e-06
3.63381e-06
3.68099e-06
3.65001e-06
3.71016e-06
3.69613e-06
3.74358e-06
3.73356e-06
3.80912e-06
3.80589e-06
3.8456e-06
3.84736e-06
3.91411e-06
3.9011e-06
3.94485e-06
3.95404e-06
3.98282e-06
3.97089e-06
3.98664e-06
4.04475e-06
4.008e-06
4.00389e-06
4.01675e-06
4.11295e-06
4.02056e-06
4.15199e-06
4.06343e-06
4.21062e-06
4.05515e-06
4.257e-06
4.08135e-06
4.29996e-06
4.0822e-06
4.2233e-06
3.97361e-06
3.96785e-06
3.65119e-06
3.45914e-06
3.04053e-06
2.69917e-06
2.59781e-06
2.65444e-06
2.83843e-06
3.3434e-06
4.43558e-06
4.87581e-06
6.04122e-06
5.89129e-06
5.48145e-06
4.47599e-06
4.40114e-06
5.00976e-06
4.93348e-06
5.07614e-06
4.40213e-06
3.96689e-06
4.63593e-06
4.42848e-06
6.94121e-06
5.4676e-06
1.09766e-05
8.61733e-06
2.59628e-05
1.75515e-05
2.10538e-05
3.75667e-05
9.47429e-05
8.95659e-05
8.94648e-05
8.84769e-05
9.0189e-05
8.93267e-05
8.66836e-05
7.99074e-05
6.30338e-05
4.61102e-05
3.08846e-05
2.01539e-05
1.4044e-05
1.21611e-05
1.13759e-05
8.65968e-06
5.83147e-06
5.53894e-06
7.14349e-06
9.78731e-06
1.3753e-05
1.36416e-05
1.17206e-05
1.12485e-05
1.16869e-05
1.48023e-05
1.64628e-05
1.74655e-05
1.90531e-05
3.95987e-05
6.91961e-05
7.51019e-05
7.47709e-05
6.94899e-05
5.91276e-05
5.01751e-05
4.32706e-05
3.80839e-05
3.51722e-05
3.35967e-05
3.29257e-05
3.29943e-05
3.58741e-05
4.03353e-05
4.54888e-05
5.52436e-05
6.0557e-05
6.0601e-05
5.80434e-05
4.66238e-05
3.03374e-05
2.0145e-05
1.48788e-05
1.41144e-05
1.56542e-05
2.31448e-05
4.22924e-05
8.15769e-05
9.91557e-05
9.86636e-05
8.80703e-05
7.10141e-05
6.12512e-05
5.37398e-05
4.77395e-05
4.27308e-05
3.88228e-05
3.60498e-05
3.43566e-05
3.36258e-05
3.30912e-05
3.29205e-05
3.29633e-05
3.31357e-05
3.33904e-05
3.39e-05
3.51507e-05
3.92748e-05
4.69002e-05
5.10637e-05
5.23306e-05
5.22109e-05
4.94765e-05
4.22843e-05
3.55769e-05
2.97972e-05
2.50111e-05
2.13455e-05
1.85296e-05
1.66233e-05
1.54741e-05
1.42631e-05
1.37185e-05
1.31343e-05
1.22584e-05
1.22277e-05
1.16092e-05
1.14421e-05
1.10296e-05
1.05512e-05
1.0496e-05
1.00561e-05
1.02031e-05
9.87736e-06
1.01737e-05
1.00488e-05
1.01334e-05
1.01602e-05
1.03316e-05
1.03084e-05
1.04668e-05
1.03922e-05
1.05002e-05
1.03751e-05
1.03532e-05
1.0151e-05
1.00519e-05
9.54659e-06
9.28993e-06
8.44796e-06
8.12735e-06
7.34547e-06
7.08473e-06
6.41794e-06
6.24948e-06
5.72727e-06
5.6551e-06
5.31154e-06
5.2832e-06
5.08362e-06
5.11065e-06
4.93383e-06
5.02367e-06
4.86684e-06
4.94568e-06
4.82646e-06
4.93631e-06
4.81312e-06
4.95296e-06
4.84692e-06
4.93751e-06
4.84189e-06
4.98146e-06
4.86703e-06
4.9666e-06
4.89539e-06
4.9671e-06
4.87607e-06
4.99088e-06
4.92034e-06
4.94924e-06
4.88575e-06
4.96655e-06
4.94302e-06
4.9282e-06
4.86821e-06
4.94912e-06
4.88833e-06
4.87652e-06
4.85626e-06
4.91189e-06
4.82382e-06
4.83648e-06
4.75986e-06
4.86174e-06
4.72319e-06
4.84955e-06
4.68962e-06
4.96297e-06
4.71949e-06
5.0381e-06
4.78465e-06
4.94159e-06
4.55229e-06
4.38515e-06
3.82732e-06
3.33073e-06
3.34227e-06
3.53905e-06
3.90576e-06
5.22472e-06
5.81692e-06
7.07082e-06
6.89673e-06
6.01661e-06
5.38683e-06
5.80081e-06
5.67636e-06
7.71818e-06
6.12948e-06
7.60445e-06
6.17177e-06
8.98593e-06
7.165e-06
2.06095e-05
1.40952e-05
3.23044e-05
2.60242e-05
2.33846e-05
3.1663e-05
5.26469e-05
4.93079e-05
5.03394e-05
5.06007e-05
5.34574e-05
5.34154e-05
5.21459e-05
4.70916e-05
3.57772e-05
2.50846e-05
1.64192e-05
1.14259e-05
9.9649e-06
9.77248e-06
8.73181e-06
6.11431e-06
4.64204e-06
4.90493e-06
8.65027e-06
1.01984e-05
1.23348e-05
1.23828e-05
1.08079e-05
1.04164e-05
1.08881e-05
1.49465e-05
1.6395e-05
1.66633e-05
1.77759e-05
3.01887e-05
6.16383e-05
7.14881e-05
7.28743e-05
7.08339e-05
6.20625e-05
5.30033e-05
4.56562e-05
4.00421e-05
3.59649e-05
3.38751e-05
3.33779e-05
3.41087e-05
3.85281e-05
4.52265e-05
5.54403e-05
6.06607e-05
6.18433e-05
6.01446e-05
5.22136e-05
3.41103e-05
2.24821e-05
1.59072e-05