/*--------------------------------*- C++ -*----------------------------------*\
| =========                 |                                                 |
| \\      /  F ield         | OpenFOAM: The Open Source CFD Toolbox           |
|  \\    /   O peration     | Version:  2.4.0                                 |
|   \\  /    A nd           | Web:      www.OpenFOAM.org                      |
|    \\/     M anipulation  |                                                 |
\*---------------------------------------------------------------------------*/
FoamFile
{
    version     2.0;
    format      ascii;
    class       volScalarField;
    location    "0.228";
    object      p;
}
// * * * * * * * * * * * * * * * * * * * * * * * * * * * * * * * * * * * * * //

dimensions      [0 2 -2 0 0 0 0];

internalField   nonuniform List<scalar> 
17600
(
85.221
69.56
65.0986
64.0352
63.0198
62.0865
61.2366
60.4588
59.66
58.9765
58.2737
57.4754
56.8847
56.1156
55.5812
54.871
54.1502
53.8492
53.2149
51.0493
83.3127
69.6099
65.1394
64.0448
63.0234
62.0867
61.237
60.4595
59.6601
58.9761
58.2747
57.475
56.8846
56.1164
55.5801
54.8735
54.1478
53.8462
53.2209
51.0335
81.8991
69.8656
65.283
64.0832
63.0374
62.0908
61.2395
60.4615
59.661
58.9765
58.2763
57.4741
56.8849
56.1167
55.58
54.8758
54.1443
53.842
53.2385
51.1009
80.9233
70.206
65.5034
64.1483
63.0663
62.106
61.2488
60.4675
59.6658
58.9787
58.2793
57.4735
56.8853
56.1173
55.5795
54.8785
54.1423
53.8368
53.2665
51.2757
80.1017
70.5394
65.7689
64.2296
63.1078
62.1356
61.2684
60.481
59.6779
58.9847
58.2854
57.4743
56.8867
56.1194
55.5777
54.8827
54.1431
53.8324
53.3068
51.523
79.3277
70.8305
66.0482
64.3102
63.149
62.1738
61.2971
60.5024
59.6985
58.9954
58.2962
57.4774
56.8896
56.1245
55.5742
54.8901
54.1472
53.8252
53.365
51.8184
78.5983
71.077
66.3268
64.3846
63.1798
62.21
61.3283
60.5288
59.7254
59.0094
58.3111
57.4832
56.8942
56.133
55.5683
54.902
54.1556
53.8127
53.438
52.1611
77.9231
71.2821
66.5993
64.4559
63.1999
62.239
61.3574
60.5573
59.7552
59.0236
58.3282
57.4899
56.8994
56.145
55.5594
54.9187
54.1668
53.8009
53.4842
52.5654
77.3077
71.4496
66.8579
64.5304
63.2123
62.2591
61.3824
60.5862
59.7855
59.0369
58.3456
57.4971
56.9034
56.1598
55.5469
54.9397
54.1735
53.7936
53.5064
52.9544
76.7547
71.5806
67.0974
64.6103
63.2197
62.2699
61.4036
60.6137
59.8152
59.049
58.3627
57.5041
56.9064
56.1761
55.5327
54.9615
54.1867
53.783
53.5568
53.3419
76.2636
71.6766
67.3163
64.6946
63.2229
62.273
61.4214
60.6388
59.8439
59.0609
58.3783
57.5116
56.907
56.1931
55.5191
54.9814
54.2064
53.776
53.6307
53.6434
75.8318
71.7413
67.5139
64.7829
63.2227
62.2698
61.436
60.6609
59.872
59.0723
58.3914
57.52
56.9055
56.2104
55.5077
54.9981
54.2303
53.7795
53.6981
53.8563
75.4567
71.7801
67.6908
64.8736
63.221
62.261
61.4475
60.6812
59.8983
59.083
58.4017
57.5294
56.9019
56.2283
55.4971
55.0123
54.2586
53.7868
53.7676
54.0129
75.1357
71.8002
67.8467
64.962
63.22
62.2482
61.4568
60.6992
59.9224
59.0933
58.4096
57.5389
56.8979
56.2444
55.4913
55.0223
54.2954
53.7894
53.8283
54.1588
74.865
71.8098
67.9804
65.0412
63.2207
62.2341
61.4638
60.7147
59.9435
59.1037
58.4151
57.5489
56.8936
56.2599
55.4876
55.0321
54.3341
53.8126
53.8776
54.2677
74.6422
71.8135
68.0914
65.1081
63.2239
62.2194
61.4689
60.7285
59.961
59.1139
58.4184
57.5594
56.889
56.275
55.483
55.041
54.3734
53.884
53.9649
54.2797
74.4666
71.8136
68.1791
65.1622
63.2291
62.2052
61.4727
60.7388
59.975
59.1225
58.4203
57.5681
56.8877
56.2849
55.5071
55.0451
54.4171
53.9088
54.1775
54.3831
74.3361
71.812
68.244
65.2035
63.235
62.1932
61.4749
60.7491
59.9842
59.1323
58.4194
57.5783
56.8822
56.2957
55.5099
55.0559
54.4488
53.9406
54.0628
54.5045
74.2503
71.8096
68.2875
65.2299
63.2411
62.1838
61.4762
60.7569
59.9894
59.1395
58.4181
57.5872
56.8829
56.3012
55.5237
55.0604
54.4856
53.9611
54.0932
54.6287
74.208
71.8076
68.31
65.2417
63.2458
62.1783
61.4761
60.7629
59.9905
59.1469
58.4156
57.5956
56.8838
56.3058
55.5362
55.0678
54.5155
53.9911
54.1122
54.6479
74.2089
71.8063
68.3121
65.2385
63.249
62.1769
61.4753
60.7663
59.9879
59.1517
58.4112
57.6031
56.8864
56.3091
55.5506
55.0794
54.5431
54.0262
54.147
54.5938
74.2533
71.8056
68.2939
65.22
63.2508
62.18
61.4737
60.7665
59.983
59.1542
58.4095
57.6082
56.8931
56.3017
55.5689
55.0775
54.5786
54.0514
54.2274
54.6801
74.3406
71.8056
68.2543
65.187
63.2475
62.188
61.4708
60.7637
59.9734
59.1559
58.4032
57.6283
56.8989
56.3114
55.5794
55.0968
54.5912
54.0907
54.1622
54.6362
74.473
71.8047
68.1929
65.1401
63.2479
62.1983
61.4671
60.7571
59.9631
59.1541
58.3982
57.629
56.9072
56.3037
55.5983
55.1043
54.6159
54.1128
54.1535
54.7807
74.6499
71.8028
68.1079
65.081
63.248
62.2113
61.4618
60.747
59.9502
59.15
58.3905
57.6349
56.9144
56.3036
55.6138
55.1188
54.6355
54.1426
54.1644
54.821
74.874
71.7974
67.9991
65.0095
63.2499
62.2254
61.455
60.7326
59.9371
59.1431
58.3823
57.6389
56.9228
56.3016
55.629
55.1343
54.6529
54.1748
54.2019
54.7293
75.146
71.7864
67.8668
64.9268
63.2533
62.2398
61.4463
60.7141
59.9233
59.1338
58.3738
57.6413
56.932
56.2964
55.6484
55.1457
54.6779
54.1987
54.2579
54.7419
75.4677
71.7659
67.7114
64.8368
63.2571
62.2545
61.4352
60.6917
59.9081
59.1235
58.3612
57.6478
56.9377
56.2973
55.6606
55.1672
54.6887
54.2375
54.1954
54.7098
75.8433
71.7267
67.5351
64.7435
63.2616
62.2657
61.4214
60.6649
59.8943
59.1104
58.3488
57.6506
56.945
56.2946
55.6764
55.1851
54.7071
54.2682
54.1691
54.7791
76.274
71.6634
67.3386
64.6541
63.2622
62.2734
61.4041
60.6342
59.8812
59.096
58.3343
57.6533
56.9513
56.2909
55.6941
55.2002
54.7314
54.2954
54.1815
54.7361
76.7636
71.5692
67.1223
64.5697
63.2575
62.2763
61.3839
60.5999
59.8685
59.0805
58.3164
57.6569
56.9556
56.2878
55.7099
55.2173
54.7527
54.3341
54.2056
54.6376
77.3151
71.4398
66.8856
64.4903
63.2476
62.2716
61.3609
60.5625
59.8557
59.0645
58.2957
57.6596
56.9604
56.2818
55.7272
55.2312
54.7793
54.3687
54.2548
54.4935
77.9295
71.2734
66.6284
64.4153
63.2317
62.2586
61.3348
60.5232
59.8417
59.0493
58.2732
57.6608
56.9647
56.2757
55.7424
55.2442
54.8049
54.4011
54.3087
54.3989
78.6046
71.0684
66.3552
64.3423
63.2086
62.2367
61.3057
60.4844
59.8261
59.0347
58.2516
57.6603
56.9679
56.2713
55.7538
55.2571
54.8243
54.4348
54.3252
54.3012
79.3342
70.8214
66.0758
64.2656
63.1757
62.2059
61.2758
60.4492
59.8098
59.0212
58.2344
57.6585
56.9705
56.2689
55.7629
55.2673
54.8409
54.4593
54.3429
54.2731
80.1085
70.5296
65.7968
64.1836
63.1331
62.1712
61.249
60.4216
59.7959
59.0111
58.2237
57.6567
56.9727
56.269
55.7697
55.2752
54.8533
54.4771
54.3536
54.2415
80.9301
70.1959
65.532
64.1017
63.0904
62.1432
61.2311
60.405
59.7868
59.0052
58.2193
57.6556
56.9745
56.2708
55.7743
55.2807
54.8609
54.4903
54.3538
54.2395
81.9051
69.8557
65.3116
64.0369
63.0608
62.1281
61.223
60.3985
59.7822
59.0025
58.2193
57.655
56.9752
56.2732
55.7769
55.2837
54.865
54.4981
54.3538
54.2471
83.3177
69.6001
65.1676
63.9989
63.047
62.1233
61.2208
60.3977
59.7804
59.001
58.2208
57.6547
56.9748
56.275
55.7781
55.2846
54.8661
54.5014
54.3536
54.2646
85.2254
69.5502
65.1266
63.9895
63.0439
62.1225
61.2201
60.3982
59.7802
58.9997
58.2219
57.6548
56.9736
56.2757
55.7786
55.2842
54.866
54.5019
54.3533
54.3081
54.1764
54.8791
56.561
59.2403
60.1097
59.5777
57.5284
54.0606
49.7293
44.1018
37.498
31.5657
26.2141
20.2269
14.8006
10.4088
6.63279
3.24785
0.850039
-1.17024
-3.19183
-4.74648
-4.73582
-1.82841
2.59611
7.36312
12.7119
18.4281
23.5723
27.8933
31.9895
35.8263
39.024
41.2726
43.0678
45.0695
46.0825
45.8015
45.6197
44.9199
43.4697
41.6804
39.4871
37.9262
37.2715
36.7922
36.8827
38.4189
40.939
44.0439
48.12
52.7194
57.088
60.7172
63.4677
65.4817
67.074
68.2324
68.5312
68.2117
67.8284
67.5326
67.3157
67.1509
67.0845
67.1215
66.9669
66.2793
64.7663
62.3672
59.4083
55.9139
51.1061
44.5239
37.1754
30.058
23.688
19.0089
14.9462
9.43297
4.69564
3.81293
6.61642
10.9401
15.8248
23.1039
32.8136
41.8727
48.6621
54.6226
59.5918
62.497
63.7181
64.2445
63.9194
62.9047
61.3119
59.0556
56.0009
52.016
47.1693
41.4845
35.1598
28.2579
20.5615
13.1953
8.08748
4.77158
1.53009
-1.23457
-1.60071
0.425542
3.8146
8.62606
15.0848
22.6717
29.783
35.322
40.4379
44.5271
47.9439
50.8438
54.6175
57.6189
58.6023
59.4254
60.0438
59.4608
56.9135
52.3875
46.9647
41.8001
37.2396
33.2041
29.9612
27.4899
25.7952
24.9017
24.973
26.1087
27.8397
30.406
33.1617
36.037
40.645
46.518
52.7306
58.4335
62.8555
66.3935
68.8229
71.1824
72.4157
73.4918
73.885
74.0154
74.4159
74.5361
74.4393
74.0467
73.449
73.053
72.8218
71.5143
70.8848
69.8685
68.3459
67.081
66.0717
64.5221
62.9909
61.9408
60.4798
58.2135
55.8346
53.2158
50.1973
47.6949
46.9931
47.4947
47.928
48.0554
48.5032
49.6339
51.702
54.4046
56.9114
58.6782
59.4813
59.6202
59.5941
58.4746
56.7789
54.6658
52.3045
49.769
46.1884
41.712
35.4713
13.5053
54.0271
55.2189
56.6836
59.0971
60.1911
59.6994
57.5148
54.0271
49.8383
44.5465
38.1144
32.1871
26.9893
21.2625
16.1097
12.0336
8.47712
5.08164
2.6226
0.766351
-1.09886
-2.53237
-2.47528
0.532894
5.24432
10.0404
14.8801
20.0891
25.0687
29.1361
33.0227
36.656
39.7395
41.9041
43.4481
45.1722
46.0004
45.4746
44.8708
43.5315
41.5871
39.7095
36.9745
34.7575
34.0928
33.5545
33.3806
35.0018
37.739
41.0587
45.4223
50.4671
55.3927
59.5567
62.6763
64.9537
66.7517
68.0546
68.4373
68.1682
67.8604
67.6782
67.5799
67.5095
67.5177
67.6218
67.526
66.9093
65.4722
63.1405
60.2064
56.7373
52.0239
45.6219
38.4544
31.3409
24.9037
20.2757
16.0824
10.3912
5.88759
5.33827
8.32914
12.8888
18.0069
25.223
34.6622
43.4707
50.0486
55.7686
60.5582
63.2958
64.322
64.6499
64.1484
62.8808
61.104
58.6385
55.3542
51.1332
46.0749
40.1412
33.6905
26.7323
19.0464
11.627
6.25987
2.65708
-0.910175
-3.94361
-4.30989
-2.04637
1.55848
6.4662
13.1173
21.0156
28.3834
34.3553
39.682
43.9553
47.3865
50.2597
54.2189
57.1175
58.1754
59.0668
59.5473
58.9545
56.6454
52.3827
47.1006
41.9906
37.5376
33.5751
30.4074
28.0545
26.4258
25.554
25.6329
26.9467
28.7076
31.1243
33.8433
36.4953
40.9268
46.7589
52.8233
58.412
62.7558
66.2709
68.7161
71.087
72.2416
73.4369
73.8476
74.1518
74.5111
74.611
74.5016
74.1725
73.458
73.0468
72.6717
71.294
70.7307
69.569
68.0325
66.6389
65.3324
63.6507
62.0342
60.8097
59.1314
56.5946
53.8935
50.9423
47.9137
45.408
44.6852
45.2275
45.7428
45.76
46.0197
47.0476
49.0468
51.9756
54.6356
56.6186
57.7479
58.1145
58.0375
57.0325
55.5272
53.2302
50.618
47.8121
43.8587
38.2982
31.9902
7.38884
53.9008
55.5898
56.898
58.8082
60.0536
59.5397
57.2595
53.8003
49.8566
44.9588
38.6401
32.7076
27.6194
22.1944
17.1148
13.3079
10.0343
6.7325
4.22108
2.5429
1.03849
-0.0341957
0.203733
3.13655
7.9429
12.7623
17.2121
21.8088
26.5345
30.443
34.1078
37.56
40.5002
42.6235
43.9926
45.3788
45.9665
45.1822
44.1496
42.2724
39.7249
37.6227
34.4736
31.5519
30.6887
30.1088
29.7188
31.4365
34.4746
38.0297
42.6463
48.0757
53.5617
58.3178
61.8591
64.4286
66.4259
67.8555
68.327
68.1277
67.9012
67.8367
67.8469
67.8681
67.9716
68.1474
68.1203
67.5696
66.2005
63.9453
61.0429
57.6202
53.0479
46.8334
39.8369
32.7853
26.3556
21.8094
17.489
11.8443
7.69472
7.47538
10.5339
15.2132
20.502
27.6249
36.7115
45.2015
51.5634
57.0378
61.6291
64.1978
65.0441
65.1722
64.4678
62.9911
60.9792
58.3438
54.8162
50.4269
45.1235
39.0009
32.373
25.4009
17.7286
10.2217
4.54862
0.625963
-3.22367
-6.4641
-6.80658
-4.29443
-0.443705
4.57285
11.4137
19.5718
27.2037
33.5664
39.0624
43.5441
46.8989
49.8798
53.982
56.7027
57.8767
58.8147
59.145
58.5848
56.5508
52.5028
47.3338
42.3126
37.9762
34.0301
30.8888
28.5823
26.9538
26.0731
26.1559
27.6253
29.5156
31.8166
34.4904
37.0553
41.2795
47.1021
52.9662
58.4144
62.7574
66.1131
68.6235
70.9533
72.0584
73.3819
73.8336
74.2218
74.5385
74.648
74.4968
74.2704
73.5093
73.2094
72.6397
71.0947
70.4396
69.0561
67.5886
66.152
64.6056
62.7183
61.0785
59.6403
57.7021
54.9776
51.9552
48.6528
45.2094
42.9413
42.1836
42.745
43.4524
43.6321
43.6822
44.5164
46.4481
49.5297
52.4072
54.6678
56.0836
56.7067
56.6875
55.7691
54.328
51.9664
49.1526
45.8836
41.7611
35.0055
28.94
5.71695
53.8063
55.7626
57.0965
58.4297
59.6672
59.1708
56.8409
53.4604
49.7356
45.2166
39.047
33.1378
28.1555
22.9229
17.7521
14.0161
11.3946
8.36658
5.85353
4.319
3.18563
2.65728
3.34875
6.05657
10.5938
15.324
19.4356
23.5056
27.9239
31.7796
35.2438
38.4863
41.3085
43.3919
44.6737
45.7084
45.9887
44.9863
43.5031
41.1202
37.9966
35.4451
31.9166
28.3493
27.124
26.4341
25.8943
27.7176
31.0854
34.9433
39.8388
45.628
51.668
57.0403
61.0162
63.8639
66.0582
67.638
68.218
68.0962
67.9534
68.0044
68.1093
68.2173
68.4267
68.6757
68.7063
68.2127
66.9245
64.7911
61.9564
58.6136
54.1664
48.1485
41.4265
34.4695
28.072
23.5965
19.2692
13.8504
10.0646
10.1551
13.1865
17.8726
23.2674
30.2631
38.9637
47.0668
53.192
58.4264
62.7979
65.2022
65.8815
65.8305
64.928
63.2098
60.9699
58.1464
54.435
49.8474
44.3652
37.9953
31.2231
24.2242
16.5837
8.94432
2.9859
-1.26872
-5.35819
-8.73818
-8.99318
-6.2395
-2.17751
2.98337
9.98373
18.3576
26.2327
32.9142
38.6113
43.2716
46.5436
49.7282
53.8902
56.4512
57.7525
58.6749
58.8568
58.3663
56.5661
52.6814
47.6301
42.7631
38.5146
34.5462
31.3484
28.9996
27.3459
26.4461
26.5596
28.1851
30.2658
32.4962
35.0858
37.6669
41.7297
47.5166
53.1539
58.4785
62.7503
65.9725
68.543
70.7983
71.9337
73.2911
73.8468
74.2106
74.5368
74.6794
74.4652
74.3943
73.6368
73.3816
72.7174
71.1095
70.2186
68.5188
67.1465
65.5661
63.9006
61.7402
60.073
58.5639
56.2362
53.2904
50.0011
46.4601
43.0419
40.5366
39.5883
40.1468
41.0332
41.474
41.5531
42.251
44.0658
47.1174
50.2608
52.8444
54.4155
55.2324
55.4664
54.6632
53.085
50.7761
47.872
44.2035
39.9549
32.2073
26.4112
6.47484
53.8009
55.8102
57.2039
58.075
58.9904
58.5498
56.3981
53.0815
49.4431
45.3082
39.3762
33.5281
28.7121
23.6798
18.5947
15.0536
12.7829
10.2059
7.79011
6.28867
5.53432
5.6131
6.78774
9.17863
13.1129
17.6638
21.5702
25.2027
29.3067
33.0971
36.4036
39.462
42.1955
44.2377
45.4405
46.1336
46.0822
44.8814
42.9982
40.072
36.3426
33.2004
29.2597
25.1387
23.4498
22.5595
21.9537
23.889
27.5514
31.8056
37.0476
43.1549
49.7138
55.6984
60.1103
63.2545
65.6853
67.4343
68.1221
68.0734
68.0142
68.1748
68.3716
68.5671
68.8903
69.2192
69.2966
68.8597
67.6922
65.718
62.9702
59.7276
55.4294
49.6382
43.2245
36.3665
30.0787
25.7112
21.4804
16.3292
12.917
13.2953
16.2179
20.818
26.2668
33.0906
41.3684
49.0427
54.9061
59.8908
64.0541
66.2707
66.8191
66.5904
65.5322
63.5481
61.084
58.0362
54.1765
49.3676
43.6933
37.0903
30.144
23.1497
15.5791
7.79808
1.56489
-2.97748
-7.24748
-10.6656
-10.8202
-7.844
-3.60627
1.71336
8.87031
17.4189
25.483
32.4215
38.3511
43.138
46.35
49.7668
53.9144
56.4076
57.8243
58.6337
58.6865
58.2478
56.5878
52.8449
47.991
43.3073
39.1176
35.0834
31.7427
29.2963
27.6213
26.7026
26.8993
28.7006
30.9719
33.1773
35.678
38.2952
42.2521
47.9396
53.4189
58.5817
62.7073
65.8435
68.4447
70.6318
71.8687
73.1687
73.8145
74.1642
74.5069
74.7266
74.4493
74.5264
73.9044
73.5312
72.7506
71.2445
70.069
68.0757
66.7713
65.0011
63.192
60.8727
59.1069
57.5322
54.8662
51.4838
47.9768
44.278
40.7871
38.1344
36.9844
37.4302
38.4878
39.2481
39.5163
40.1545
41.8445
44.8909
48.1745
50.9699
52.7903
53.8181
54.2107
53.5035
51.9729
49.6789
46.6747
42.7238
38.6313
29.8933
24.1019
7.88466
53.8664
55.8311
57.1688
57.7312
58.242
57.7095
55.874
52.6867
49.0655
45.2799
39.6622
33.9509
29.3495
24.6504
19.867
16.3458
14.2603
12.2665
10.0829
8.59358
8.1585
8.70336
10.2282
12.3531
15.613
19.8576
23.687
26.946
30.684
34.423
37.5859
40.4992
43.158
45.164
46.2805
46.6689
46.3211
44.8854
42.6392
39.1938
34.7328
30.8578
26.4825
21.9144
19.7294
18.5778
17.961
20.0186
23.9348
28.6274
34.2385
40.6482
47.7167
54.3056
59.1674
62.6356
65.3257
67.241
68.0304
68.0569
68.0843
68.3461
68.6444
68.9339
69.3682
69.7827
69.9174
69.5567
68.5464
66.7232
64.0863
60.9753
56.8075
51.2427
45.2004
38.5702
32.3945
28.1347
24.0015
19.1839
16.2256
16.7795
19.542
24.0119
29.4553
36.0766
43.8897
51.1075
56.6771
61.4216
65.3529
67.3977
67.8028
67.4393
66.2118
64.0166
61.3118
58.0359
53.9491
48.9755
43.0393
36.2514
29.0983
22.1249
14.663
6.80616
0.314773
-4.45535
-8.83833
-12.1839
-12.2136
-9.09565
-4.72421
0.763655
8.09757
16.7677
25.0046
32.1301
38.3074
43.1424
46.3006
50.0077
54.072
56.5325
58.0522
58.7057
58.6291
58.2138
56.6263
53.0191
48.4057
43.9142
39.7563
35.647
32.0893
29.5185
27.851
26.899
27.2172
29.2408
31.6852
33.87
36.3235
38.9691
42.8618
48.3748
53.7523
58.7029
62.6486
65.7365
68.2752
70.4766
71.7589
73.0475
73.7131
74.0819
74.4977
74.732
74.5006
74.6442
74.159
73.7136
72.7645
71.3801
69.8795
67.7106
66.3897
64.4666
62.4705
60.0064
58.3109
56.5098
53.4801
49.6552
45.8922
42.1262
38.3937
35.505
34.336
34.7045
35.7308
36.9125
37.5941
38.1913
39.7678
42.8479
46.1453
49.1347
51.329
52.6341
53.0697
52.4087
51.1642
48.7885
45.8028
41.24
37.6349
27.9594
22.0517
9.11503
54.0197
55.8183
56.9644
57.2962
57.4866
56.7327
55.1893
52.276
48.7203
45.1973
40.0033
34.5234
30.1511
25.8653
21.5051
17.9752
15.9039
14.4449
12.656
11.2802
10.9508
11.691
13.4745
15.4107
18.0203
21.866
25.6032
28.6464
32.0061
35.6855
38.7992
41.5815
44.1517
46.1291
47.2329
47.4044
46.7413
45.05
42.3788
38.4666
33.2779
28.4585
23.6221
18.7139
16.0038
14.5805
14.0332
16.2158
20.2871
25.4189
31.4494
38.1778
45.7328
52.9063
58.2212
62.0141
64.9652
67.0506
67.9448
68.0524
68.1633
68.5214
68.9311
69.323
69.854
70.3461
70.5394
70.2841
69.4522
67.786
65.2789
62.283
58.1905
52.98
47.3964
40.9701
34.8892
30.7668
26.7613
22.3891
19.9865
20.4795
23.0793
27.4145
32.8079
39.1757
46.4964
53.2231
58.5079
62.9989
66.6907
68.5613
68.8224
68.3343
66.9651
64.5701
61.6272
58.1136
53.8035
48.6149
42.4676
35.4369
28.1141
21.1504
13.8276
5.95715
-0.737173
-5.67731
-10.0463
-13.2806
-13.1661
-9.98931
-5.51874
0.16006
7.65548
16.4017
24.7741
32.0448
38.4729
43.2619
46.4273
50.4694
54.3476
56.8114
58.4181
58.8997
58.7079
58.2689
56.7225
53.2636
48.8918
44.5791
40.449
36.2451
32.4444
29.7733
28.0829
27.0835
27.5724
29.8714
32.4369
34.5597
37.0372
39.7323
43.5944
48.8866
54.1142
58.7949
62.6132
65.5949
68.0677
70.2656
71.5992
72.8759
73.6245
73.9759
74.4853
74.7589
74.5986
74.7802
74.3331
73.8707
72.7583
71.4636
69.6577
67.3555
65.9729
64.0073
61.8079
58.9921
57.5636
55.6276
52.0175
47.8077
43.8981
39.9926
36.1169
32.9868
31.6752
31.9649
32.9681
34.4204
35.5925
36.4244
37.9594
40.9106
44.2538
47.4521
49.9266
51.5556
52.1591
51.6666
50.4752
48.0806
45.3753
39.9095
36.6566
26.8214
20.2001
9.79975
54.3814
55.8593
56.61
56.6175
56.6139
55.7409
54.3615
51.8353
48.4386
45.1153
40.4691
35.316
31.1877
27.2976
23.3901
19.9576
17.768
16.667
15.3394
14.1549
13.8356
14.5329
16.4107
18.2492
20.2718
23.7384
27.3946
30.2872
33.3448
36.9195
40.0415
42.7151
45.186
47.1664
48.3278
48.3614
47.3274
45.3772
42.2379
37.7864
31.9878
26.1449
20.7345
15.6056
12.4032
10.6778
10.25
12.5651
16.6981
22.2622
28.7376
35.7759
43.7994
51.5307
57.2713
61.3867
64.605
66.8632
67.8624
68.0571
68.2515
68.7019
69.2215
69.7179
70.3282
70.8872
71.1449
71.0052
70.3351
68.8106
66.4486
63.5386
59.5641
54.8064
49.6659
43.4304
37.5803
33.574
29.742
25.806
23.9623
24.3073
26.7767
30.9847
36.2911
42.3658
49.1548
55.3729
60.3637
64.6026
68.0591
69.7409
69.8873
69.2791
67.7738
65.1939
62.0001
58.235
53.7475
48.3449
41.9684
34.658
27.216
20.2521
13.0613
5.2538
-1.54398
-6.63611
-10.8929
-13.9222
-13.7122
-10.5347
-5.98947
-0.106197
7.54281
16.3683
24.7715
32.2065
38.8143
43.4925
46.7678
51.0643
54.7579
57.3106
58.917
59.2109
58.9009
58.4074
56.8734
53.597
49.4797
45.3366
41.2223
36.9222
32.9179
30.1434
28.3833
27.3439
28.02
30.6185
33.2576
35.2391
37.7702
40.5783
44.4322
49.4938
54.4888
58.851
62.585
65.3746
67.8522
69.9603
71.3858
72.627
73.5092
73.8893
74.437
74.8067
74.742
74.9557
74.505
73.9627
72.7938
71.4348
69.3661
67.0913
65.4891
63.6048
61.2531
57.9704
56.7186
54.802
50.729
45.9441
42.0478
38.1308
34.0118
30.7101
29.215
29.2228
30.132
31.7945
33.5559
34.8333
36.3464
39.1515
42.6407
45.885
48.6137
50.4947
51.3286
51.1484
49.742
47.3862
45.2803
38.984
35.8317
26.6661
18.4087
10.0939
54.9682
56.0921
56.2161
55.749
55.6446
54.8218
53.4857
51.3762
48.228
45.0885
41.034
36.277
32.4242
28.8717
25.4099
22.1868
19.8359
18.8998
17.9599
17.0074
16.6787
17.1962
19.0084
20.8298
22.4367
25.5193
29.1077
31.9081
34.7112
38.1173
41.2653
43.9337
46.3389
48.3124
49.5389
49.5072
48.152
45.8757
42.2637
37.2043
30.7579
23.9945
17.9479
12.6124
9.02933
7.02436
6.72097
8.98962
13.2556
19.2419
26.1388
33.4727
41.9586
50.1996
56.3318
60.7651
64.2337
66.6599
67.7771
68.0699
68.3464
68.8813
69.5047
70.0975
70.7672
71.3873
71.7251
71.6897
71.1457
69.7465
67.5689
64.7096
60.8717
56.626
51.9443
45.9702
40.3897
36.4928
32.8593
29.27
27.7386
28.2255
30.6018
34.6922
39.8627
45.6174
51.817
57.5367
62.2047
66.2134
69.4311
70.9513
70.9745
70.2923
68.6345
65.8661
62.4223
58.418
53.7456
48.1647
41.5446
33.9685
26.3732
19.4573
12.3912
4.70857
-2.13589
-7.29693
-11.4087
-14.1597
-13.8735
-10.758
-6.12642
-0.0522429
7.7323
16.6159
25.0089
32.6428
39.3099
43.8571
47.3145
51.7531
55.3771
58.0057
59.5117
59.6131
59.1682
58.6036
57.0588
54.0194
50.1903
46.225
42.1199
37.7548
33.597
30.7287
28.8339
27.7517
28.6318
31.5051
34.1494
35.9422
38.5122
41.499
45.3229
50.1703
54.8598
58.9242
62.4963
65.0994
67.5694
69.5694
71.107
72.3165
73.3369
73.7826
74.3562
74.8383
74.8795
75.083
74.6965
74.0471
72.8742
71.3762
69.037
66.9006
65.0518
63.2307
60.7459
57.1615
55.8621
53.7091
49.4489
44.1783
40.0821
36.3735
32.2408
28.6609
26.9758
26.7875
27.3351
29.0295
31.5082
33.3491
34.9754
37.7175
41.1797
44.4387
47.5349
49.696
50.5738
50.7098
49.2525
46.8573
45.4343
38.5681
35.2766
26.9792
17.1875
10.6267
55.4412
56.1551
55.8427
55.0431
54.7103
53.9725
52.6675
50.9166
48.0809
45.1622
41.6526
37.3426
33.7729
30.4811
27.4354
24.4685
22.0378
21.0832
20.3977
19.7196
19.3259
19.5771
21.312
23.1593
24.4994
27.1998
30.6635
33.4311
36.0318
39.2416
42.4552
45.194
47.5767
49.5507
50.8737
50.8257
49.2378
46.5869
42.4333
36.7835
29.6467
22.0115
15.3781
9.8457
5.94406
3.70285
3.51553
5.73601
10.0647
16.4288
23.6849
31.2973
40.2369
48.9399
55.4291
60.1592
63.8648
66.4697
67.72
68.1012
68.4446
69.0526
69.7671
70.449
71.1751
71.8581
72.2779
72.3397
71.8746
70.6102
68.6211
65.7594
62.1115
58.4698
54.1726
48.4835
43.2719
39.5785
36.08
32.7713
31.5486
32.225
34.5318
38.497
43.493
48.8828
54.4682
59.6696
64.0306
67.7894
70.7885
72.1772
72.0945
71.3296
69.564
66.5756
62.9064
58.6676
53.8028
48.0546
41.2
33.4334
25.6542
18.7359
11.8412
4.32807
-2.51079
-7.6888
-11.6071
-14.0813
-13.696
-10.6664
-5.93537
0.318971
8.23808
17.0796
25.5046
33.3092
39.9425
44.3724
48.0548
52.5727
56.1892
58.7994
60.1964
60.1071
59.4947
58.8336
57.2934
54.5141
51.0284
47.2691
43.2076
38.7878
34.5584
31.5961
29.5102
28.4178
29.4725
32.5506
35.1232
36.7372
39.3145
42.5191
46.2763
50.8659
55.2256
59.0104
62.3302
64.7865
67.1754
69.0954
70.7171
71.977
73.0885
73.6824
74.2481
74.8248
75.0091
75.1395
74.8393
74.1685
72.9189
71.2918
68.7093
66.6582
64.601
62.9699
60.3859
56.6745
55.155
52.5359
47.87
42.3776
38.1733
34.4375
30.5216
26.8521
24.8523
24.4791
24.7786
26.4223
29.4177
31.9128
33.8408
36.5015
39.7623
43.1833
46.6393
49.2031
49.9588
50.3822
49.2727
46.5983
45.6243
38.6195
34.8274
27.2955
17.1292
12.0559
55.7336
56.142
55.5702
54.5433
53.9069
53.1652
51.9735
50.5041
47.9944
45.3556
42.296
38.4515
35.1185
32.0809
29.3661
26.645
24.2868
23.2114
22.5892
22.1573
21.779
21.8109
23.4236
25.2865
26.4812
28.8387
32.1086
34.8675
37.3895
40.3804
43.6199
46.4925
48.8745
50.8605
52.3381
52.3316
50.543
47.5298
42.7617
36.464
28.7034
20.2667
13.0755
7.41877
3.25222
0.782858
0.660122
2.8373
7.19911
13.893
21.4227
29.2956
38.6617
47.7769
54.5854
59.6127
63.5857
66.368
67.7176
68.1516
68.5425
69.2122
70.0088
70.7815
71.5795
72.3314
72.833
72.9679
72.5412
71.4393
69.6397
66.7516
63.3701
60.2802
56.2955
51.0264
46.3124
42.7724
39.3433
36.3253
35.4016
36.2861
38.5473
42.3567
47.1454
52.1242
57.0917
61.7576
65.8073
69.3182
72.1064
73.3793
73.2366
72.3837
70.515
67.3452
63.4329
59.0046
53.9101
48.0528
40.9712
33.0222
25.1578
18.151
11.4131
4.10068
-2.66125
-7.81615
-11.5188
-13.7109
-13.2576
-10.2767
-5.43607
0.987829
9.01572
17.7671
26.258
34.1859
40.701
45.0541
48.982
53.5527
57.1803
59.7217
61.0237
60.681
59.876
59.1236
57.5788
55.0848
51.9827
48.4931
44.506
40.059
35.8216
32.7945
30.5092
29.4371
30.6017
33.7698
36.2106
37.6619
40.2524
43.6266
47.3322
51.5765
55.5993
59.0797
62.0997
64.4644
66.6235
68.5686
70.1962
71.5923
72.7795
73.5514
74.1708
74.7642
75.1152
75.2349
74.9799
74.286
72.9946
71.2409
68.3849
66.3308
64.1254
62.6865
60.0823
56.5456
54.6963
51.6046
46.3355
40.4182
36.4362
32.6453
28.6513
25.0483
22.829
22.1723
22.344
24.0251
27.327
30.6003
32.8358
35.4775
38.6483
42.1679
45.8406
48.6771
49.5633
50.1699
49.6399
46.3828
45.8097
39.1973
34.5538
27.8055
18.3504
14.2181
55.9367
56.1496
55.3287
54.1756
53.2782
52.4747
51.4662
50.1776
47.9411
45.5988
42.9344
39.5147
36.3974
33.6406
31.1614
28.6818
26.4747
25.2438
24.5936
24.3399
24.0796
23.9946
25.3826
27.2315
28.3883
30.4149
33.4572
36.2108
38.6932
41.5017
44.7443
47.7963
50.2489
52.2886
53.9146
53.9893
52.0351
48.6776
43.2983
36.2155
27.8303
18.7714
11.0771
5.31889
0.97768
-1.71715
-1.86202
0.279259
4.71386
11.6787
19.3781
27.4949
37.2727
46.7288
53.8068
59.1425
63.383
66.2938
67.7098
68.2054
68.6502
69.3689
70.2397
71.106
71.9857
72.8035
73.3873
73.5744
73.1964
72.2835
70.6427
67.7108
64.652
62.0879
58.4081
53.6149
49.3689
45.9752
42.694
39.9815
39.3245
40.3991
42.6184
46.2326
50.7706
55.3197
59.6634
63.7885
67.4975
70.7773
73.352
74.5382
74.3578
73.4467
71.4683
68.1575
63.9985
59.3997
54.116
48.1126
40.9197
32.7537
24.831
17.7936
11.1366
4.08801
-2.59169
-7.68035
-11.1802
-13.0962
-12.5695
-9.57671
-4.62929
1.91808
10.0032
18.6927
27.2477
35.2531
41.5558
45.8944
50.0883
54.7286
58.3679
60.8154
61.9322
61.2754
60.3171
59.4574
57.8981
55.7144
53.0407
49.8791
46.0125
41.5808
37.4176
34.3706
31.8731
30.8152
32.0595
35.1511
37.4515
38.75
41.3693
44.7852
48.4637
52.3247
56.0212
59.0797
61.8555
64.0953
66.0069
67.9163
69.6119
71.1018
72.4601
73.368
74.0611
74.7256
75.1685
75.347
75.1717
74.4256
73.0742
71.204
68.3041
66.0573
63.7618
62.359
59.6469
56.5131
54.4337
50.8978
45.0456
38.5838
34.7326
31.0344
26.9693
23.1489
20.8545
20.0973
20.0507
21.6593
25.3781
29.4017
31.866
34.6854
37.8016
41.2805
45.1642
48.1613
49.6039
50.0396
50.0726
46.3553
46.1079
40.1922
34.4877
28.6485
20.4016
16.4413
56.0392
56.1222
55.0999
53.9227
52.8277
51.9358
51.0888
49.9156
47.919
45.8653
43.5408
40.5025
37.6142
35.0993
32.8415
30.583
28.5245
27.1928
26.4825
26.3806
26.2358
26.0532
27.2436
29.0327
30.1445
31.904
34.6972
37.4304
39.9167
42.5778
45.8268
49.0938
51.6862
53.8221
55.5908
55.7795
53.7009
49.9533
44.0008
36.1033
27.007
17.4669
9.4135
3.54245
-0.950288
-3.83218
-4.06378
-1.94133
2.63961
9.79863
17.5754
25.9544
36.1158
45.8062
53.0933
58.6816
63.1177
66.1413
67.6578
68.2656
68.78
69.5329
70.4708
71.434
72.3962
73.2853
73.9481
74.168
73.8282
73.1025
71.5528
68.6577
66.0189
63.8957
60.4467
56.1903
52.47
49.269
46.1209
43.7047
43.3406
44.5514
46.6937
50.0886
54.3297
58.4302
62.1688
65.7426
69.1016
72.1268
74.5085
75.6306
75.4487
74.4822
72.4396
68.9817
64.6375
59.8197
54.4325
48.2435
40.9971
32.6999
24.6669
17.6642
11.0861
4.26801
-2.27105
-7.28517
-10.5881
-12.2961
-11.6296
-8.59605
-3.54208
3.09675
11.1928
19.8408
28.4727
36.4586
42.4998
46.8816
51.3813
56.092
59.705
62.0238
62.8524
61.9071
60.8197
59.8112
58.2381
56.3706
54.207
51.4157
47.7419
43.3902
39.3626
36.2894
33.6125
32.5484
33.8184
36.6851
38.8469
40.0547
42.6725
46.0335
49.5965
53.1367
56.4847
59.0502
61.6119
63.6233
65.3674
67.1582
68.9493
70.5402
72.0666
73.1904
73.8911
74.6469
75.2097
75.4459
75.3077
74.6116
73.1289
71.0807
68.3718
66.0412
63.4969
62.0478
59.2639
56.2317
54.0755
50.3271
43.7655
37.029
33.2532
29.4919
25.4638
21.3804
18.9014
18.2226
18.0482
19.5181
23.6344
28.0976
30.9507
34.0954
37.0258
40.5973
44.7582
47.9032
49.9127
49.9947
50.5815
46.8699
46.4297
41.0977
34.5534
29.7355
22.8315
18.5211
56.0847
56.0115
54.8768
53.7095
52.5352
51.5095
50.7513
49.7151
47.958
46.1263
44.0723
41.4524
38.7841
36.4674
34.4194
32.305
30.4365
29.1005
28.3068
28.2671
28.2267
27.9935
28.9744
30.6776
31.7931
33.3299
35.8535
38.5653
41.1043
43.6644
46.9013
50.3942
53.1828
55.4726
57.4168
57.7153
55.5177
51.3345
44.7622
36.1736
26.3761
16.3502
8.03063
2.06858
-2.56506
-5.62582
-5.94874
-3.79275
0.98458
8.25938
16.063
24.7259
35.2144
45.0477
52.4695
58.2318
62.848
66.0284
67.6654
68.3654
68.9193
69.7023
70.7074
71.7626
72.8033
73.7682
74.4985
74.7366
74.433
73.8704
72.3786
69.6936
67.4991
65.6299
62.4665
58.8252
55.5697
52.4993
49.5198
47.4863
47.4162
48.6901
50.7109
53.8715
57.7958
61.4335
64.5794
67.6097
70.5913
73.3364
75.5555
76.6356
76.4962
75.4899
73.4064
69.8623
65.3388
60.3193
54.8012
48.5104
41.1722
32.848
24.742
17.7089
11.2741
4.65128
-1.71514
-6.63802
-9.76615
-11.235
-10.4568
-7.33157
-2.21831
4.48044
12.5651
21.226
29.9242
37.7616
43.5465
48.0184
52.8663
57.592
61.1287
63.3005
63.7907
62.6038
61.3607
60.1571
58.6096
57.0805
55.4949
53.1341
49.714
45.5036
41.6028
38.4934
35.6891
34.5994
35.8352
38.3669
40.3558
41.5696
44.1547
47.4261
50.7233
54.0165
56.9291
59.061
61.3178
63.1237
64.6501
66.3447
68.1809
69.9432
71.604
72.93
73.71
74.5162
75.2171
75.5141
75.3627
74.7353
73.1665
70.973
68.3
66.0903
63.4174
61.8062
59.0985
55.819
53.395
49.7789
42.3702
35.4733
32.0861
28.1374
24.0585
19.841
17.1346
16.3639
16.1361
17.7152
22.1348
26.8297
30.1982
33.5838
36.351
40.2152
44.5566
47.738
50.2181
50.2523
51.348
47.7796
46.6107
41.7525
35.1328
31.4474
25.5558
20.6714
56.0823
55.874
54.6834
53.5602
52.3661
51.2181
50.4737
49.5847
48.029
46.3449
44.5729
42.3566
39.8824
37.7459
35.8787
33.9209
32.243
30.9269
30.0598
29.988
30.0459
29.8544
30.6288
32.1917
33.3412
34.6985
36.9202
39.6018
42.2204
44.7124
47.9292
51.6409
54.7138
57.2251
59.3587
59.7755
57.4514
52.8417
45.5894
36.3567
26.0037
15.5234
6.93715
0.86011
-3.88813
-7.08653
-7.49321
-5.24739
-0.255154
7.05097
14.8491
23.8141
34.5597
44.4552
51.9751
57.9414
62.783
66.0979
67.7921
68.5072
69.0501
69.8583
70.9369
72.0918
73.215
74.2409
75.019
75.2762
75.0275
74.5602
73.1492
70.8332
69.0224
67.2979
64.4765
61.3868