/*--------------------------------*- C++ -*----------------------------------*\
| =========                 |                                                 |
| \\      /  F ield         | OpenFOAM: The Open Source CFD Toolbox           |
|  \\    /   O peration     | Version:  2.4.0                                 |
|   \\  /    A nd           | Web:      www.OpenFOAM.org                      |
|    \\/     M anipulation  |                                                 |
\*---------------------------------------------------------------------------*/
FoamFile
{
    version     2.0;
    format      ascii;
    class       volVectorField;
    location    "0.228";
    object      UMean;
}
// * * * * * * * * * * * * * * * * * * * * * * * * * * * * * * * * * * * * * //

dimensions      [0 1 -1 0 0 0 0];

internalField   nonuniform List<vector> 
17600
(
(5.33952 0.308155 0)
(3.02095 0.0607153 0)
(2.24111 -0.00148298 0)
(1.89635 -0.00352663 0)
(1.75919 -0.00131815 0)
(1.66577 -0.000168191 0)
(1.60106 -1.81999e-06 0)
(1.5407 -2.35615e-05 0)
(1.50684 -0.000151038 0)
(1.46902 -3.79397e-05 0)
(1.45307 -8.64991e-05 0)
(1.42412 8.14069e-05 0)
(1.41571 -8.16241e-05 0)
(1.39127 6.18616e-05 0)
(1.3911 -0.000249411 0)
(1.37528 -0.000114735 0)
(1.38818 -0.000580546 0)
(1.39316 -0.000434176 0)
(1.44536 -0.000797363 0)
(1.39357 -0.0319298 0)
(8.59578 0.867203 0)
(6.97672 0.380561 0)
(5.86137 0.120251 0)
(5.11326 0.0500411 0)
(4.72196 0.0273203 0)
(4.45056 0.0195974 0)
(4.27283 0.0152155 0)
(4.10581 0.0116129 0)
(4.01099 0.00855664 0)
(3.9005 0.00680029 0)
(3.85456 0.00533325 0)
(3.77014 0.00498636 0)
(3.74764 0.00377952 0)
(3.67591 0.00362981 0)
(3.67371 0.00155825 0)
(3.62003 0.00134029 0)
(3.64585 -0.00232263 0)
(3.63248 -0.00519311 0)
(3.71486 -0.00454925 0)
(3.77629 -0.0847327 0)
(9.84368 1.0156 0)
(9.35279 0.571723 0)
(8.5123 0.237779 0)
(7.68427 0.127755 0)
(7.15504 0.0793547 0)
(6.7579 0.0553383 0)
(6.50012 0.0420225 0)
(6.25027 0.0321493 0)
(6.10984 0.0245215 0)
(5.93739 0.0193467 0)
(5.86814 0.0154854 0)
(5.73478 0.0136577 0)
(5.70242 0.0110212 0)
(5.58826 0.0098099 0)
(5.58556 0.00587926 0)
(5.49372 0.00407855 0)
(5.53128 -0.00249308 0)
(5.48055 -0.00878996 0)
(5.59778 -0.0186905 0)
(5.64078 -0.108974 0)
(10.1455 0.941474 0)
(10.5576 0.661009 0)
(10.277 0.32487 0)
(9.65898 0.206095 0)
(9.16214 0.143377 0)
(8.723 0.103073 0)
(8.43529 0.0784835 0)
(8.13131 0.0602429 0)
(7.96663 0.0467262 0)
(7.74625 0.036975 0)
(7.66297 0.0298278 0)
(7.48902 0.026067 0)
(7.45124 0.0211924 0)
(7.30105 0.0191306 0)
(7.29905 0.012073 0)
(7.17285 0.00988203 0)
(7.21962 -0.00245101 0)
(7.12859 -0.0090228 0)
(7.27015 -0.0369943 0)
(7.25786 -0.119377 0)
(10.0652 0.800858 0)
(10.9 0.661898 0)
(11.1355 0.350465 0)
(10.8841 0.251094 0)
(10.5996 0.197272 0)
(10.2382 0.151194 0)
(9.99977 0.118337 0)
(9.69146 0.0921191 0)
(9.5375 0.0727009 0)
(9.29457 0.0578456 0)
(9.21391 0.0472682 0)
(9.01475 0.0406361 0)
(8.97965 0.0340602 0)
(8.80474 0.02946 0)
(8.80669 0.0215168 0)
(8.6565 0.0147039 0)
(8.70455 0.00375912 0)
(8.59762 -0.0145512 0)
(8.71192 -0.0378865 0)
(8.71146 -0.156679 0)
(9.98617 0.687524 0)
(10.8319 0.629066 0)
(11.3107 0.327918 0)
(11.3425 0.246953 0)
(11.3373 0.217538 0)
(11.1568 0.181733 0)
(11.0643 0.149676 0)
(10.8275 0.120624 0)
(10.7369 0.0975731 0)
(10.5138 0.0792569 0)
(10.4612 0.0650708 0)
(10.2641 0.056735 0)
(10.2429 0.0467993 0)
(10.065 0.042355 0)
(10.0724 0.0289347 0)
(9.91944 0.0252588 0)
(9.96229 0.00191248 0)
(9.85602 -0.00398743 0)
(9.94166 -0.05865 0)
(9.93867 -0.156653 0)
(9.97773 0.598621 0)
(10.7013 0.596335 0)
(11.2337 0.298876 0)
(11.348 0.216969 0)
(11.5037 0.204214 0)
(11.4684 0.184273 0)
(11.5454 0.159943 0)
(11.4321 0.133911 0)
(11.4585 0.11223 0)
(11.3092 0.0938869 0)
(11.324 0.0792693 0)
(11.1662 0.0696023 0)
(11.1838 0.0595318 0)
(11.0265 0.0522554 0)
(11.0568 0.0399884 0)
(10.913 0.029691 0)
(10.9681 0.0106965 0)
(10.8605 -0.00880661 0)
(10.9436 -0.055923 0)
(10.9162 -0.159352 0)
(9.99645 0.519934 0)
(10.5964 0.560512 0)
(11.1362 0.281069 0)
(11.2552 0.190124 0)
(11.4526 0.181768 0)
(11.4547 0.172339 0)
(11.6106 0.153855 0)
(11.5786 0.131394 0)
(11.699 0.111446 0)
(11.6385 0.0962846 0)
(11.7333 0.0823478 0)
(11.6511 0.0753015 0)
(11.7263 0.0639851 0)
(11.6273 0.0597286 0)
(11.6936 0.0430106 0)
(11.591 0.0380946 0)
(11.6651 0.00732606 0)
(11.5802 0.000710062 0)
(11.6681 -0.0734896 0)
(11.6178 -0.117574 0)
(10.0145 0.449406 0)
(10.5186 0.517099 0)
(11.05 0.267594 0)
(11.1826 0.167576 0)
(11.3794 0.159643 0)
(11.3899 0.158234 0)
(11.5451 0.142811 0)
(11.5443 0.123003 0)
(11.6794 0.102587 0)
(11.6725 0.0898523 0)
(11.7938 0.0763143 0)
(11.7792 0.0717874 0)
(11.8845 0.0606605 0)
(11.8586 0.0583992 0)
(11.9496 0.0410114 0)
(11.9175 0.0379215 0)
(12.0032 0.00353821 0)
(11.9769 0.000170854 0)
(12.0599 -0.086642 0)
(12.0261 -0.113815 0)
(10.0134 0.386563 0)
(10.4693 0.469986 0)
(10.9616 0.255763 0)
(11.1384 0.146296 0)
(11.3073 0.138994 0)
(11.3487 0.14374 0)
(11.4671 0.131659 0)
(11.5009 0.113673 0)
(11.6032 0.0929613 0)
(11.637 0.0809783 0)
(11.7306 0.0681882 0)
(11.7643 0.0641082 0)
(11.8471 0.0542211 0)
(11.8789 0.0512252 0)
(11.9516 0.0360839 0)
(11.9839 0.0292862 0)
(12.0524 0.000712674 0)
(12.0881 -0.0183888 0)
(12.1487 -0.0855189 0)
(12.1432 -0.17922 0)
(9.99686 0.328499 0)
(10.4338 0.424009 0)
(10.8783 0.243194 0)
(11.1014 0.127683 0)
(11.2441 0.118324 0)
(11.3153 0.130726 0)
(11.4026 0.119241 0)
(11.4617 0.105963 0)
(11.5386 0.0825505 0)
(11.5957 0.0739912 0)
(11.6678 0.0587545 0)
(11.7227 0.0584923 0)
(11.7871 0.045435 0)
(11.8388 0.0460272 0)
(11.8978 0.0269176 0)
(11.9482 0.0238592 0)
(12.0084 -0.0103364 0)
(12.058 -0.0279241 0)
(12.1107 -0.104414 0)
(12.0972 -0.214993 0)
(9.98553 0.278156 0)
(10.3947 0.376415 0)
(10.8115 0.231226 0)
(11.056 0.108649 0)
(11.1967 0.100286 0)
(11.2754 0.115576 0)
(11.3548 0.108405 0)
(11.4169 0.0956411 0)
(11.4906 0.0745461 0)
(11.55 0.0646167 0)
(11.6211 0.0525321 0)
(11.6764 0.0500818 0)
(11.7407 0.0407348 0)
(11.7907 0.0369613 0)
(11.8509 0.0227916 0)
(11.898 0.0120705 0)
(11.9599 -0.0150458 0)
(12.0045 -0.0463697 0)
(12.0546 -0.116818 0)
(12.0243 -0.241539 0)
(9.98416 0.232933 0)
(10.3551 0.329909 0)
(10.7572 0.214369 0)
(11.009 0.0929452 0)
(11.1582 0.0824225 0)
(11.2363 0.101344 0)
(11.3144 0.0958484 0)
(11.3743 0.085759 0)
(11.4489 0.0651017 0)
(11.5077 0.0563919 0)
(11.5799 0.0449061 0)
(11.6344 0.0431145 0)
(11.6996 0.0341124 0)
(11.7481 0.0300216 0)
(11.809 0.0160589 0)
(11.8539 0.00386206 0)
(11.9147 -0.0238426 0)
(11.9567 -0.0602542 0)
(12.0001 -0.131154 0)
(11.9612 -0.25966 0)
(9.98346 0.19344 0)
(10.3241 0.283657 0)
(10.7082 0.192418 0)
(10.969 0.0791298 0)
(11.1225 0.0684844 0)
(11.2052 0.0861957 0)
(11.2761 0.0847607 0)
(11.3397 0.074122 0)
(11.4091 0.057449 0)
(11.4736 0.046819 0)
(11.5404 0.0391844 0)
(11.6011 0.0346246 0)
(11.6604 0.0293067 0)
(11.7146 0.0213647 0)
(11.7689 0.0108264 0)
(11.8193 -0.00594162 0)
(11.8722 -0.0318482 0)
(11.9181 -0.0731281 0)
(11.9493 -0.144874 0)
(11.9126 -0.272861 0)
(9.98157 0.15622 0)
(10.2997 0.240471 0)
(10.6667 0.163984 0)
(10.9354 0.0688221 0)
(11.0933 0.0546979 0)
(11.1797 0.0731982 0)
(11.2453 0.0715494 0)
(11.3108 0.0640653 0)
(11.3771 0.0477216 0)
(11.4452 0.039604 0)
(11.5097 0.0312885 0)
(11.5734 0.0285443 0)
(11.6299 0.0217377 0)
(11.6865 0.0154149 0)
(11.7376 0.0027351 0)
(11.7901 -0.0132641 0)
(11.8392 -0.041541 0)
(11.8843 -0.0843563 0)
(11.9094 -0.156628 0)
(11.8704 -0.288993 0)
(9.98309 0.123759 0)
(10.2766 0.195756 0)
(10.6361 0.135378 0)
(10.9048 0.0568077 0)
(11.0732 0.0436553 0)
(11.1563 0.0580224 0)
(11.2246 0.0600452 0)
(11.2847 0.0510302 0)
(11.3554 0.0403187 0)
(11.4195 0.0295494 0)
(11.4891 0.0265039 0)
(11.5478 0.0191047 0)
(11.6095 0.017856 0)
(11.6602 0.00515525 0)
(11.7164 -0.000829738 0)
(11.7626 -0.0261064 0)
(11.8155 -0.0451832 0)
(11.8523 -0.102023 0)
(11.8788 -0.157903 0)
(11.8284 -0.311663 0)
(9.98538 0.0937547 0)
(10.258 0.151634 0)
(10.6121 0.105593 0)
(10.8804 0.0453907 0)
(11.0568 0.0324428 0)
(11.1381 0.0444191 0)
(11.2076 0.0466909 0)
(11.2643 0.0396349 0)
(11.3372 0.0307195 0)
(11.3993 0.0222283 0)
(11.4712 0.0188567 0)
(11.5275 0.0133726 0)
(11.5913 0.00983963 0)
(11.6391 0.000387818 0)
(11.6971 -0.0105708 0)
(11.7401 -0.0300168 0)
(11.7933 -0.059111 0)
(11.826 -0.104717 0)
(11.849 -0.175472 0)
(11.7888 -0.285312 0)
(9.98429 0.0651709 0)
(10.2472 0.108301 0)
(10.5912 0.0753529 0)
(10.8646 0.0337077 0)
(11.0411 0.0219789 0)
(11.1269 0.0314648 0)
(11.191 0.0331481 0)
(11.2508 0.0282405 0)
(11.3192 0.021422 0)
(11.3858 0.0148469 0)
(11.4534 0.0117604 0)
(11.5141 0.00698572 0)
(11.5731 0.00250762 0)
(11.6249 -0.00573857 0)
(11.6779 -0.0189056 0)
(11.7243 -0.0360518 0)
(11.7714 -0.0701642 0)
(11.8063 -0.1096 0)
(11.8218 -0.190331 0)
(11.7637 -0.261356 0)
(9.98268 0.0396367 0)
(10.2407 0.0634593 0)
(10.577 0.0466206 0)
(10.8543 0.0192337 0)
(11.0303 0.0141721 0)
(11.1197 0.0168008 0)
(11.1798 0.0213803 0)
(11.2419 0.0145884 0)
(11.3072 0.0140456 0)
(11.377 0.00528761 0)
(11.4417 0.00705624 0)
(11.5053 -0.00201236 0)
(11.5609 -0.00177315 0)
(11.6154 -0.015504 0)
(11.6647 -0.0227752 0)
(11.7132 -0.0479893 0)
(11.7557 -0.0732933 0)
(11.7915 -0.124342 0)
(11.8009 -0.190426 0)
(11.7433 -0.285057 0)
(9.9836 0.0128707 0)
(10.2358 0.0212957 0)
(10.5718 0.0152619 0)
(10.8476 0.00677557 0)
(11.0269 0.0041027 0)
(11.1148 0.00563371 0)
(11.1768 0.00603734 0)
(11.2363 0.00459558 0)
(11.304 0.00256615 0)
(11.3713 0.000211066 0)
(11.4386 -0.0024338 0)
(11.4995 -0.00558657 0)
(11.5575 -0.011772 0)
(11.609 -0.018713 0)
(11.6603 -0.0334474 0)
(11.7052 -0.0517179 0)
(11.7491 -0.0845035 0)
(11.7796 -0.129831 0)
(11.7899 -0.198147 0)
(11.7264 -0.308631 0)
(9.98472 -0.0113348 0)
(10.2349 -0.0234643 0)
(10.5729 -0.0135461 0)
(10.8468 -0.00904938 0)
(11.0281 -0.00249857 0)
(11.1141 -0.00920884 0)
(11.1782 -0.00536951 0)
(11.2355 -0.00984532 0)
(11.3056 -0.00411813 0)
(11.3706 -0.0102614 0)
(11.4401 -0.00609523 0)
(11.4987 -0.0159091 0)
(11.5584 -0.0146045 0)
(11.6076 -0.0302338 0)
(11.6601 -0.0353292 0)
(11.7023 -0.0654326 0)
(11.7464 -0.0850662 0)
(11.7734 -0.146526 0)
(11.7819 -0.193213 0)
(11.7149 -0.334735 0)
(9.98465 -0.0377524 0)
(10.2389 -0.0660382 0)
(10.5792 -0.0444216 0)
(10.8525 -0.0220537 0)
(11.0327 -0.0119366 0)
(11.1182 -0.0209948 0)
(11.1827 -0.0199393 0)
(11.24 -0.0205333 0)
(11.3106 -0.0147316 0)
(11.3749 -0.0160231 0)
(11.4447 -0.0148481 0)
(11.5026 -0.0199192 0)
(11.5624 -0.0243224 0)
(11.6108 -0.0331114 0)
(11.6631 -0.0469051 0)
(11.7038 -0.0667775 0)
(11.7467 -0.0998323 0)
(11.7723 -0.144277 0)
(11.7763 -0.211257 0)
(11.7063 -0.296982 0)
(9.98332 -0.0640431 0)
(10.2482 -0.109976 0)
(10.5907 -0.0740462 0)
(10.8651 -0.035508 0)
(11.0407 -0.0208745 0)
(11.1273 -0.0344557 0)
(11.1907 -0.033013 0)
(11.2505 -0.0327925 0)
(11.3192 -0.0237154 0)
(11.3846 -0.0237981 0)
(11.4528 -0.0215112 0)
(11.5115 -0.0264162 0)
(11.57 -0.0312776 0)
(11.6192 -0.0390411 0)
(11.6696 -0.0550247 0)
(11.7101 -0.0716502 0)
(11.7512 -0.110718 0)
(11.7753 -0.14544 0)
(11.7785 -0.226116 0)
(11.7086 -0.260603 0)
(9.98225 -0.0917198 0)
(10.2615 -0.154399 0)
(10.609 -0.103191 0)
(10.8832 -0.0484849 0)
(11.0533 -0.0301335 0)
(11.1407 -0.0489384 0)
(11.2037 -0.0449105 0)
(11.2658 -0.0461229 0)
(11.3329 -0.031046 0)
(11.3993 -0.033603 0)
(11.4659 -0.0257868 0)
(11.5254 -0.0361355 0)
(11.5825 -0.0342786 0)
(11.6324 -0.0500491 0)
(11.6807 -0.0564658 0)
(11.7216 -0.0849291 0)
(11.7605 -0.110234 0)
(11.7835 -0.161824 0)
(11.7863 -0.219819 0)
(11.7124 -0.285119 0)
(9.98174 -0.122813 0)
(10.2786 -0.197265 0)
(10.6345 -0.134132 0)
(10.9067 -0.0585124 0)
(11.0712 -0.0426994 0)
(11.158 -0.0609665 0)
(11.2223 -0.05971 0)
(11.2854 -0.055898 0)
(11.3523 -0.0420719 0)
(11.4187 -0.0392908 0)
(11.4845 -0.0348198 0)
(11.5438 -0.0403933 0)
(11.6005 -0.0432661 0)
(11.6499 -0.0538955 0)
(11.6975 -0.0655952 0)
(11.7378 -0.0891046 0)
(11.775 -0.119075 0)
(11.797 -0.167833 0)
(11.7986 -0.224714 0)
(11.7225 -0.306721 0)
(9.98132 -0.154577 0)
(10.3003 -0.24274 0)
(10.6671 -0.162006 0)
(10.936 -0.0712254 0)
(11.0937 -0.0529103 0)
(11.1801 -0.0768915 0)
(11.246 -0.0704205 0)
(11.3102 -0.0696372 0)
(11.3772 -0.0486138 0)
(11.4431 -0.050072 0)
(11.5081 -0.0386418 0)
(11.5673 -0.0505271 0)
(11.6236 -0.0460249 0)
(11.6726 -0.0642022 0)
(11.7197 -0.0678801 0)
(11.7589 -0.0999893 0)
(11.7948 -0.121116 0)
(11.816 -0.180016 0)
(11.8155 -0.225643 0)
(11.7401 -0.322808 0)
(9.98181 -0.192268 0)
(10.327 -0.285456 0)
(10.707 -0.19095 0)
(10.9713 -0.0811054 0)
(11.1213 -0.0673111 0)
(11.2076 -0.0894143 0)
(11.2751 -0.0843299 0)
(11.3408 -0.0790779 0)
(11.4077 -0.0590099 0)
(11.4731 -0.0565687 0)
(11.5374 -0.0470681 0)
(11.5963 -0.0555954 0)
(11.6522 -0.0539807 0)
(11.7009 -0.0684211 0)
(11.7474 -0.0764534 0)
(11.7854 -0.103161 0)
(11.8204 -0.131464 0)
(11.84 -0.181605 0)
(11.8388 -0.240515 0)
(11.7633 -0.305611 0)
(9.98674 -0.231991 0)
(10.357 -0.331302 0)
(10.7561 -0.213411 0)
(11.0116 -0.0945013 0)
(11.1559 -0.0816391 0)
(11.24 -0.104162 0)
(11.3109 -0.0959882 0)
(11.3771 -0.0901818 0)
(11.4442 -0.0673384 0)
(11.509 -0.0654966 0)
(11.5724 -0.0533243 0)
(11.6314 -0.0633428 0)
(11.6862 -0.0590454 0)
(11.7354 -0.0758022 0)
(11.7801 -0.0812798 0)
(11.8183 -0.110019 0)
(11.851 -0.137211 0)
(11.8703 -0.187615 0)
(11.8687 -0.251349 0)
(11.7958 -0.29442 0)
(10.0019 -0.277403 0)
(10.3848 -0.377748 0)
(10.8196 -0.22998 0)
(11.0495 -0.110422 0)
(11.2022 -0.098857 0)
(11.271 -0.118716 0)
(11.3574 -0.107909 0)
(11.4129 -0.100526 0)
(11.4902 -0.0759631 0)
(11.5453 -0.0745676 0)
(11.6164 -0.0596042 0)
(11.6675 -0.0716165 0)
(11.7287 -0.063141 0)
(11.7717 -0.084668 0)
(11.8204 -0.0833689 0)
(11.8539 -0.120315 0)
(11.8881 -0.13675 0)
(11.9043 -0.201554 0)
(11.9032 -0.249514 0)
(11.8307 -0.318492 0)
(10.0231 -0.328863 0)
(10.4099 -0.423919 0)
(10.8995 -0.243292 0)
(11.08 -0.127858 0)
(11.2632 -0.118695 0)
(11.2956 -0.131757 0)
(11.4191 -0.121065 0)
(11.4424 -0.108294 0)
(11.5516 -0.0867449 0)
(11.5762 -0.0810121 0)
(11.676 -0.0688724 0)
(11.6993 -0.0764193 0)
(11.7867 -0.0710776 0)
(11.8042 -0.0888878 0)
(11.8757 -0.0902369 0)
(11.8861 -0.12449 0)
(11.9369 -0.141632 0)
(11.9321 -0.20774 0)
(11.9366 -0.252898 0)
(11.8456 -0.342788 0)
(10.0332 -0.385957 0)
(10.4455 -0.470875 0)
(10.9861 -0.255033 0)
(11.1131 -0.147533 0)
(11.3323 -0.138565 0)
(11.3224 -0.145622 0)
(11.4924 -0.132681 0)
(11.4729 -0.116847 0)
(11.6271 -0.0964482 0)
(11.6073 -0.0888228 0)
(11.7509 -0.0771375 0)
(11.7289 -0.082786 0)
(11.8583 -0.0778766 0)
(11.8286 -0.094483 0)
(11.9376 -0.0954666 0)
(11.8964 -0.129289 0)
(11.9737 -0.143753 0)
(11.9078 -0.212395 0)
(11.9139 -0.251652 0)
(11.7488 -0.362055 0)
(10.0223 -0.449325 0)
(10.5066 -0.517308 0)
(11.0664 -0.267637 0)
(11.1667 -0.167997 0)
(11.3977 -0.160006 0)
(11.3707 -0.159076 0)
(11.5655 -0.144614 0)
(11.5215 -0.125104 0)
(11.7003 -0.106989 0)
(11.6457 -0.0963746 0)
(11.811 -0.0860837 0)
(11.7435 -0.0884731 0)
(11.8889 -0.0847152 0)
(11.8006 -0.09833 0)
(11.9165 -0.0991719 0)
(11.8004 -0.130675 0)
(11.8709 -0.141372 0)
(11.7081 -0.211268 0)
(11.683 -0.23853 0)
(11.3966 -0.368097 0)
(10.0001 -0.519213 0)
(10.5916 -0.561243 0)
(11.1455 -0.280874 0)
(11.2463 -0.190689 0)
(11.4635 -0.181948 0)
(11.4424 -0.173149 0)
(11.6237 -0.155509 0)
(11.5617 -0.133329 0)
(11.7126 -0.115867 0)
(11.6146 -0.102054 0)
(11.7413 -0.0920485 0)
(11.6129 -0.0901703 0)
(11.7141 -0.0874808 0)
(11.5539 -0.095464 0)
(11.6243 -0.098506 0)
(11.4298 -0.121432 0)
(11.452 -0.136323 0)
(11.2046 -0.191193 0)
(11.1178 -0.227679 0)
(10.7486 -0.323294 0)
(9.97978 -0.598269 0)
(10.6995 -0.596862 0)
(11.2384 -0.298746 0)
(11.3433 -0.217484 0)
(11.5093 -0.204354 0)
(11.4608 -0.185099 0)
(11.5526 -0.161308 0)
(11.4192 -0.135921 0)
(11.4651 -0.116005 0)
(11.2859 -0.0993955 0)
(11.3222 -0.0876918 0)
(11.1218 -0.0834828 0)
(11.1542 -0.0797414 0)
(10.9333 -0.0854393 0)
(10.954 -0.0873589 0)
(10.7044 -0.106972 0)
(10.6886 -0.119599 0)
(10.3821 -0.167455 0)
(10.2599 -0.199447 0)
(9.82972 -0.272024 0)
(9.98773 -0.687178 0)
(10.831 -0.629387 0)
(11.3132 -0.327917 0)
(11.3398 -0.247465 0)
(11.3401 -0.217729 0)
(11.1516 -0.182462 0)
(11.0672 -0.150869 0)
(10.8166 -0.122377 0)
(10.7377 -0.100924 0)
(10.49 -0.0838397 0)
(10.4511 -0.0726261 0)
(10.2141 -0.0681431 0)
(10.1996 -0.0650198 0)
(9.9563 -0.0694739 0)
(9.94457 -0.0715122 0)
(9.67517 -0.0876919 0)
(9.63315 -0.0987331 0)
(9.30115 -0.138732 0)
(9.1545 -0.162593 0)
(8.68934 -0.226009 0)
(10.0664 -0.800599 0)
(10.8992 -0.662173 0)
(11.1373 -0.350558 0)
(10.8819 -0.251516 0)
(10.6009 -0.197411 0)
(10.2337 -0.151803 0)
(9.99988 -0.11924 0)
(9.68213 -0.0936568 0)
(9.53319 -0.0752845 0)
(9.27187 -0.0617347 0)
(9.19628 -0.053108 0)
(8.96359 -0.0501643 0)
(8.92463 -0.0481151 0)
(8.68975 -0.0520186 0)
(8.65792 -0.0540162 0)
(8.3957 -0.0667074 0)
(8.33492 -0.0763707 0)
(8.00563 -0.105549 0)
(7.83975 -0.128652 0)
(7.38321 -0.160625 0)
(10.1463 -0.941292 0)
(10.5573 -0.661204 0)
(10.2783 -0.324966 0)
(9.65715 -0.206385 0)
(9.16241 -0.143469 0)
(8.71931 -0.103533 0)
(8.4339 -0.0791497 0)
(8.12295 -0.0614211 0)
(7.95925 -0.0485854 0)
(7.72497 -0.0398554 0)
(7.64087 -0.0341616 0)
(7.43857 -0.0329045 0)
(7.39031 -0.0317288 0)
(7.18472 -0.0351032 0)
(7.14187 -0.0365948 0)
(6.90711 -0.0461323 0)
(6.83566 -0.0530434 0)
(6.52995 -0.0737796 0)
(6.3633 -0.0904413 0)
(5.92155 -0.108719 0)
(9.84425 -1.01549 0)
(9.35271 -0.57186 0)
(8.51305 -0.237853 0)
(7.68267 -0.127936 0)
(7.1548 -0.0793926 0)
(6.75487 -0.0556483 0)
(6.49805 -0.0424548 0)
(6.24268 -0.0329089 0)
(6.10174 -0.0256601 0)
(5.91779 -0.0212226 0)
(5.84515 -0.0181117 0)
(5.68806 -0.0181097 0)
(5.64188 -0.0175071 0)
(5.47923 -0.0201086 0)
(5.43371 -0.0209052 0)
(5.24238 -0.02726 0)
(5.16862 -0.0312301 0)
(4.90889 -0.0442152 0)
(4.75386 -0.0541796 0)
(4.35613 -0.0654772 0)
(8.59616 -0.867156 0)
(6.9768 -0.380638 0)
(5.86164 -0.120286 0)
(5.11204 -0.0501248 0)
(4.72154 -0.0273323 0)
(4.44815 -0.0197586 0)
(4.27071 -0.0154173 0)
(4.09964 -0.0119825 0)
(4.00388 -0.00907852 0)
(3.8846 -0.00771331 0)
(3.83476 -0.00654787 0)
(3.73233 -0.00707234 0)
(3.69644 -0.00681181 0)
(3.58704 -0.0083661 0)
(3.54754 -0.0085701 0)
(3.41414 -0.0118654 0)
(3.34956 -0.0133673 0)
(3.16063 -0.0196883 0)
(3.03185 -0.0237044 0)
(2.73057 -0.0302396 0)
(5.33966 -0.308142 0)
(3.02104 -0.060735 0)
(2.24105 0.00148582 0)
(1.89574 0.00351427 0)
(1.75883 0.00132803 0)
(1.66461 0.000139157 0)
(1.59974 -1.65302e-05 0)
(1.53754 -2.97867e-05 0)
(1.50287 0.000111052 0)
(1.46091 -8.17422e-05 0)
(1.44235 -3.376e-06 0)
(1.40484 -0.000322718 0)
(1.38848 -0.000189374 0)
(1.34575 -0.000581095 0)
(1.32509 -0.000384938 0)
(1.26984 -0.00102922 0)
(1.23491 -0.000863412 0)
(1.15198 -0.00189562 0)
(1.08314 -0.00213155 0)
(0.950237 0.00173975 0)
(2.0884 -0.155593 0)
(2.58761 -0.0555581 0)
(3.22481 -0.0754499 0)
(3.68059 -0.0991697 0)
(4.20321 -0.155443 0)
(4.65684 -0.221277 0)
(5.16011 -0.287377 0)
(5.65662 -0.381073 0)
(6.16538 -0.482529 0)
(6.59258 -0.584692 0)
(7.01687 -0.702219 0)
(7.32059 -0.828114 0)
(7.60979 -0.940588 0)
(7.84398 -1.0347 0)
(8.06501 -1.12589 0)
(8.22919 -1.2143 0)
(8.40163 -1.33494 0)
(8.53632 -1.47079 0)
(8.66469 -1.61756 0)
(8.80805 -1.76331 0)
(8.93279 -1.90216 0)
(9.05377 -2.02858 0)
(9.20165 -2.15561 0)
(9.31781 -2.2673 0)
(9.43882 -2.3805 0)
(9.50223 -2.49167 0)
(9.52731 -2.57027 0)
(9.53529 -2.62333 0)
(9.50524 -2.65042 0)
(9.48001 -2.67552 0)
(9.44552 -2.68806 0)
(9.41932 -2.68632 0)
(9.39422 -2.6755 0)
(9.36274 -2.66501 0)
(9.31624 -2.6537 0)
(9.25013 -2.64663 0)
(9.18278 -2.63866 0)
(9.13606 -2.62205 0)
(9.12675 -2.59751 0)
(9.13042 -2.56134 0)
(9.11973 -2.52139 0)
(9.09628 -2.4785 0)
(9.05644 -2.43317 0)
(9.00487 -2.39125 0)
(8.94523 -2.33307 0)
(8.88604 -2.25918 0)
(8.80888 -2.17344 0)
(8.72563 -2.08127 0)
(8.59106 -1.96109 0)
(8.43667 -1.83751 0)
(8.3164 -1.73564 0)
(8.18701 -1.63093 0)
(8.07707 -1.53182 0)
(7.98868 -1.43523 0)
(7.90119 -1.33454 0)
(7.83282 -1.24491 0)
(7.78461 -1.17015 0)
(7.7248 -1.08473 0)
(7.67096 -0.996734 0)
(7.59482 -0.910909 0)
(7.51821 -0.803101 0)
(7.41967 -0.692697 0)
(7.32316 -0.587852 0)
(7.23709 -0.486185 0)
(7.1455 -0.391023 0)
(7.05679 -0.306597 0)
(6.96804 -0.232353 0)
(6.89158 -0.171833 0)
(6.81388 -0.126006 0)
(6.74338 -0.0815418 0)
(6.69498 -0.0365923 0)
(6.65162 0.00185247 0)
(6.62519 0.0273853 0)
(6.59093 0.0412968 0)
(6.5625 0.0504434 0)
(6.54888 0.07979 0)
(6.5411 0.115441 0)
(6.53825 0.151182 0)
(6.53179 0.193008 0)
(6.54921 0.232366 0)
(6.55022 0.264768 0)
(6.55985 0.292595 0)
(6.57784 0.321338 0)
(6.58407 0.342065 0)
(6.59704 0.358006 0)
(6.60086 0.381948 0)
(6.58559 0.422278 0)
(6.58572 0.467666 0)
(6.57167 0.501752 0)
(6.59023 0.546756 0)
(6.56835 0.578005 0)
(6.60936 0.606676 0)
(6.62201 0.61287 0)
(6.64947 0.631383 0)
(6.68385 0.625007 0)
(6.72163 0.627382 0)
(6.78169 0.62842 0)
(6.81213 0.648534 0)
(6.89488 0.651122 0)
(6.90954 0.670215 0)
(6.97473 0.67675 0)
(6.96771 0.713455 0)
(7.02446 0.712105 0)
(7.01915 0.746515 0)
(7.06627 0.729993 0)
(7.02413 0.75321 0)
(7.06558 0.707994 0)
(6.9987 0.713234 0)
(7.058 0.663205 0)
(6.9545 0.666808 0)
(7.00694 0.593823 0)
(6.88934 0.572402 0)
(6.94564 0.490117 0)
(6.81701 0.474798 0)
(6.89245 0.388375 0)
(6.74977 0.388621 0)
(6.86059 0.320241 0)
(6.68971 0.32635 0)
(6.81609 0.24838 0)
(6.65568 0.260396 0)
(6.76632 0.182876 0)
(6.6387 0.20775 0)
(6.7115 0.122363 0)
(6.61051 0.161987 0)
(6.66647 0.0585687 0)
(6.57134 0.110055 0)
(6.62439 -0.00823913 0)
(6.51347 0.0573591 0)
(6.5602 -0.0734387 0)
(6.45674 -0.00910033 0)
(6.48217 -0.143717 0)
(6.43458 -0.0623294 0)
(6.41576 -0.189874 0)
(6.43389 -0.0993633 0)
(6.36668 -0.21268 0)
(6.44828 -0.122452 0)
(6.32293 -0.241766 0)
(6.46076 -0.158117 0)
(6.27717 -0.25799 0)
(6.46258 -0.166428 0)
(6.28081 -0.243547 0)
(6.43773 -0.126272 0)
(6.31235 -0.204989 0)
(6.44105 -0.0830488 0)
(6.34302 -0.154298 0)
(6.47828 -0.0426314 0)
(6.38599 -0.0893833 0)
(6.5122 0.0144109 0)
(6.45373 -0.0113783 0)
(6.55188 0.0808735 0)
(6.51405 0.0573363 0)
(6.6095 0.143155 0)
(6.56493 0.120428 0)
(6.67114 0.204839 0)
(6.59055 0.185369 0)
(6.71288 0.261527 0)
(6.63298 0.227532 0)
(6.74024 0.318424 0)
(6.64924 0.285265 0)
(6.7724 0.366909 0)
(6.67903 0.326335 0)
(6.79853 0.406801 0)
(6.71181 0.372015 0)
(6.77645 0.450737 0)
(6.72972 0.419986 0)
(6.7466 0.498115 0)
(6.74021 0.466676 0)
(6.69612 0.544187 0)
(6.72956 0.525262 0)
(6.65841 0.624372 0)
(6.71495 0.621949 0)
(6.63737 0.746858 0)
(6.70722 0.742941 0)
(6.64172 0.887103 0)
(6.69619 0.880549 0)
(6.63299 1.04439 0)
(6.68475 1.03084 0)
(6.60742 1.21214 0)
(6.68442 1.18686 0)
(6.55429 1.39741 0)
(6.71534 1.36234 0)
(6.47276 1.60058 0)
(6.7628 1.54501 0)
(6.37216 1.8148 0)
(6.75408 1.72273 0)
(6.30634 2.04528 0)
(6.67494 1.9358 0)
(6.24159 2.29624 0)
(6.56461 2.20621 0)
(6.17851 2.60907 0)
(6.45748 2.56807 0)
(6.09997 3.01031 0)
(6.29493 3.0591 0)
(5.9073 3.54585 0)
(6.09226 3.71152 0)
(5.75036 4.31293 0)
(5.7868 4.68004 0)
(5.23288 5.74865 0)
(5.74223 6.43721 0)
(3.24933 9.53896 0)
(4.06047 -0.191687 0)
(4.20562 -0.190041 0)
(4.58064 -0.252489 0)
(4.91185 -0.287827 0)
(5.30635 -0.345437 0)
(5.6827 -0.404305 0)
(6.04381 -0.471462 0)
(6.39422 -0.560214 0)
(6.75323 -0.660894 0)
(7.06403 -0.754321 0)
(7.41025 -0.858785 0)
(7.68532 -0.961792 0)
(7.93358 -1.06043 0)
(8.16445 -1.14208 0)
(8.3871 -1.22023 0)
(8.58661 -1.29829 0)
(8.77585 -1.398 0)
(8.93272 -1.52145 0)
(9.0694 -1.66184 0)
(9.20064 -1.81041 0)
(9.32175 -1.94883 0)
(9.44375 -2.07544 0)
(9.57226 -2.20108 0)
(9.68013 -2.31153 0)
(9.75874 -2.41011 0)
(9.79638 -2.50521 0)
(9.78306 -2.57626 0)
(9.78098 -2.62263 0)
(9.76024 -2.64513 0)
(9.73365 -2.66179 0)
(9.68815 -2.67248 0)
(9.65229 -2.67392 0)
(9.61918 -2.66314 0)
(9.57797 -2.6476 0)
(9.52345 -2.62547 0)
(9.45577 -2.6135 0)
(9.39449 -2.61361 0)
(9.34441 -2.60991 0)
(9.32244 -2.59174 0)
(9.30909 -2.55537 0)
(9.27718 -2.51269 0)
(9.22919 -2.46293 0)
(9.17055 -2.40932 0)
(9.10263 -2.36411 0)
(9.02939 -2.30533 0)
(8.94743 -2.22881 0)
(8.85355 -2.1341 0)
(8.74494 -2.02849 0)
(8.58454 -1.89774 0)
(8.42719 -1.7789 0)
(8.30371 -1.68138 0)
(8.16669 -1.58278 0)
(8.05384 -1.49171 0)
(7.95489 -1.39721 0)
(7.86013 -1.30006 0)
(7.7896 -1.21811 0)
(7.7369 -1.14635 0)
(7.66813 -1.05854 0)
(7.60655 -0.967623 0)
(7.52193 -0.876364 0)
(7.44029 -0.763485 0)
(7.3375 -0.653938 0)
(7.24698 -0.549311 0)
(7.16466 -0.448407 0)
(7.07872 -0.353155 0)
(6.99289 -0.269726 0)
(6.90372 -0.196128 0)
(6.82549 -0.137448 0)
(6.74553 -0.0934047 0)
(6.67045 -0.053897 0)
(6.61813 -0.0163071 0)
(6.57513 0.0174454 0)
(6.55088 0.0404432 0)
(6.51786 0.0555093 0)
(6.48765 0.0629601 0)
(6.46793 0.0886674 0)
(6.45589 0.123036 0)
(6.45153 0.155301 0)
(6.44041 0.193834 0)
(6.45376 0.231053 0)
(6.45263 0.263624 0)
(6.45395 0.290204 0)
(6.46944 0.3162 0)
(6.47564 0.338914 0)
(6.48322 0.357047 0)
(6.48554 0.385249 0)
(6.46449 0.429129 0)
(6.46349 0.471982 0)
(6.45006 0.502323 0)
(6.47022 0.548371 0)
(6.45541 0.571543 0)
(6.49886 0.595562 0)
(6.51597 0.600087 0)
(6.55275 0.619812 0)
(6.5903 0.607379 0)
(6.62861 0.608697 0)
(6.68997 0.608346 0)
(6.72351 0.6278 0)
(6.80709 0.626837 0)
(6.82975 0.653801 0)
(6.89335 0.663254 0)
(6.89362 0.704021 0)
(6.95765 0.698712 0)
(6.95477 0.737849 0)
(7.0168 0.72811 0)
(6.97798 0.757105 0)
(7.03766 0.711723 0)
(6.96073 0.720569 0)
(7.02764 0.672278 0)
(6.91504 0.681201 0)
(6.97563 0.605017 0)
(6.85113 0.591219 0)
(6.91641 0.50338 0)
(6.77277 0.489097 0)
(6.86843 0.400301 0)
(6.70236 0.399611 0)
(6.83389 0.33142 0)
(6.63998 0.337655 0)
(6.78232 0.258414 0)
(6.60435 0.27015 0)
(6.72795 0.189235 0)
(6.5854 0.215055 0)
(6.67592 0.132792 0)
(6.54933 0.169004 0)
(6.63881 0.0697437 0)
(6.51039 0.115543 0)
(6.60076 0.00425899 0)
(6.45142 0.0685064 0)
(6.53871 -0.0571436 0)
(6.38671 0.00196302 0)
(6.46677 -0.133043 0)
(6.35994 -0.0579904 0)
(6.41382 -0.179058 0)
(6.35854 -0.0996698 0)
(6.38323 -0.205441 0)
(6.37268 -0.12118 0)
(6.3573 -0.234385 0)
(6.38682 -0.152938 0)
(6.30727 -0.253326 0)
(6.39839 -0.166806 0)
(6.28435 -0.238495 0)
(6.38197 -0.133282 0)
(6.30833 -0.207889 0)
(6.37581 -0.0878813 0)
(6.35304 -0.165159 0)
(6.41042 -0.0450586 0)
(6.39577 -0.0997439 0)
(6.45328 0.00415917 0)
(6.45704 -0.023135 0)
(6.4878 0.0715051 0)
(6.51697 0.0441493 0)
(6.54148 0.135988 0)
(6.56862 0.106485 0)
(6.60912 0.201692 0)
(6.59168 0.172623 0)
(6.6878 0.253015 0)
(6.62385 0.219184 0)
(6.72482 0.320944 0)
(6.64001 0.272429 0)
(6.78371 0.367274 0)
(6.67365 0.307073 0)
(6.83266 0.412828 0)
(6.69264 0.360029 0)
(6.83278 0.463454 0)
(6.72075 0.406489 0)
(6.82262 0.51472 0)
(6.73628 0.456233 0)
(6.78578 0.564829 0)
(6.73233 0.516489 0)
(6.74907 0.646865 0)
(6.72534 0.609192 0)
(6.73141 0.758276 0)
(6.74793 0.72744 0)
(6.72835 0.894834 0)
(6.76049 0.874843 0)
(6.69919 1.0533 0)
(6.78704 1.02571 0)
(6.65503 1.22167 0)
(6.83502 1.18384 0)
(6.58729 1.41364 0)
(6.89991 1.35162 0)
(6.51999 1.62368 0)
(6.94564 1.52996 0)
(6.47157 1.85892 0)
(6.90983 1.71108 0)
(6.42601 2.08953 0)
(6.83712 1.9288 0)
(6.35808 2.33324 0)
(6.76414 2.20156 0)
(6.30425 2.64478 0)
(6.6855 2.56509 0)
(6.24937 3.04644 0)
(6.61702 3.04262 0)
(6.18886 3.59383 0)
(6.4015 3.73209 0)
(5.99468 4.43885 0)
(6.205 4.72899 0)
(5.54277 5.98779 0)
(6.95513 6.28438 0)
(4.62875 10.2717 0)
(5.90718 -0.233368 0)
(5.97039 -0.261861 0)
(6.1824 -0.346096 0)
(6.39986 -0.408925 0)
(6.65997 -0.47728 0)
(6.91313 -0.540207 0)
(7.16349 -0.60376 0)
(7.37904 -0.683937 0)
(7.61714 -0.780898 0)
(7.81934 -0.873283 0)
(8.04983 -0.973426 0)
(8.25188 -1.0655 0)
(8.43403 -1.15268 0)
(8.60443 -1.23228 0)
(8.79335 -1.30955 0)
(8.98276 -1.38612 0)
(9.16913 -1.47672 0)
(9.35281 -1.58488 0)
(9.50243 -1.71512 0)
(9.61831 -1.85694 0)
(9.73213 -1.99423 0)
(9.83605 -2.11698 0)
(9.92425 -2.23978 0)
(10.0066 -2.34494 0)
(10.0333 -2.43259 0)
(10.0609 -2.5104 0)
(10.0271 -2.57222 0)
(10.008 -2.61662 0)
(9.98224 -2.63892 0)
(9.95159 -2.64612 0)
(9.8989 -2.65408 0)
(9.85544 -2.65902 0)
(9.8096 -2.64699 0)
(9.75567 -2.628 0)
(9.70044 -2.59807 0)
(9.64292 -2.58459 0)
(9.59977 -2.58995 0)
(9.54967 -2.59365 0)
(9.50846 -2.57796 0)
(9.46764 -2.5399 0)
(9.41561 -2.49377 0)
(9.3425 -2.43771 0)
(9.26403 -2.37845 0)
(9.18225 -2.32971 0)
(9.09501 -2.26976 0)
(8.98866 -2.18649 0)
(8.87151 -2.08168 0)
(8.73466 -1.9654 0)
(8.56027 -1.83148 0)
(8.407 -1.72013 0)
(8.27615 -1.62474 0)
(8.1337 -1.53152 0)
(8.01978 -1.44749 0)
(7.90911 -1.35601 0)
(7.80894 -1.26532 0)
(7.73416 -1.19071 0)
(7.67275 -1.12098 0)
(7.59319 -1.02959 0)
(7.51999 -0.934319 0)
(7.42809 -0.837525 0)
(7.34419 -0.722485 0)
(7.2408 -0.616339 0)
(7.15947 -0.51258 0)
(7.08048 -0.412374 0)
(6.99775 -0.31694 0)
(6.91439 -0.23337 0)
(6.8248 -0.159915 0)
(6.74398 -0.102163 0)
(6.66517 -0.0604223 0)
(6.58959 -0.0251696 0)
(6.53478 0.00523565 0)
(6.49106 0.033647 0)
(6.46611 0.0530226 0)
(6.43577 0.0691246 0)
(6.40484 0.0774753 0)
(6.37991 0.099414 0)
(6.36167 0.130684 0)
(6.35552 0.160978 0)
(6.33967 0.196884 0)
(6.34955 0.231436 0)
(6.34781 0.26352 0)
(6.33962 0.288848 0)
(6.3502 0.311949 0)
(6.35728 0.335859 0)
(6.35903 0.356957 0)
(6.35895 0.389409 0)
(6.3354 0.436101 0)
(6.33394 0.476703 0)
(6.32151 0.502856 0)
(6.34086 0.548241 0)
(6.33518 0.563157 0)
(6.38121 0.583688 0)
(6.39979 0.585662 0)
(6.44573 0.605236 0)
(6.49072 0.587757 0)
(6.52362 0.589522 0)
(6.59198 0.587547 0)
(6.61965 0.606343 0)
(6.7099 0.60182 0)
(6.72912 0.636325 0)
(6.80216 0.647838 0)
(6.79823 0.693154 0)
(6.87679 0.686659 0)
(6.86598 0.727551 0)
(6.94932 0.720202 0)
(6.90786 0.75503 0)
(6.99088 0.710055 0)
(6.90963 0.728167 0)
(6.98432 0.679523 0)
(6.87056 0.696937 0)
(6.93306 0.614049 0)
(6.80699 0.609475 0)
(6.87568 0.514694 0)
(6.72484 0.503603 0)
(6.82356 0.409662 0)
(6.65592 0.413072 0)
(6.78207 0.34103 0)
(6.60055 0.352102 0)
(6.72042 0.266907 0)
(6.57169 0.284149 0)
(6.66149 0.194868 0)
(6.55158 0.22544 0)
(6.61056 0.139684 0)
(6.51985 0.179156 0)
(6.57229 0.0764655 0)
(6.48619 0.126883 0)
(6.52713 0.0115464 0)
(6.43375 0.0840011 0)
(6.46022 -0.0462717 0)
(6.37363 0.0193063 0)
(6.38217 -0.127321 0)
(6.35428 -0.0457914 0)
(6.32478 -0.178701 0)
(6.36773 -0.0910998 0)
(6.29163 -0.211225 0)
(6.39652 -0.11312 0)
(6.26681 -0.23973 0)
(6.42235 -0.137218 0)
(6.21333 -0.260246 0)