/*--------------------------------*- C++ -*----------------------------------*\
| =========                 |                                                 |
| \\      /  F ield         | OpenFOAM: The Open Source CFD Toolbox           |
|  \\    /   O peration     | Version:  2.4.0                                 |
|   \\  /    A nd           | Web:      www.OpenFOAM.org                      |
|    \\/     M anipulation  |                                                 |
\*---------------------------------------------------------------------------*/
FoamFile
{
    version     2.0;
    format      ascii;
    class       surfaceScalarField;
    location    "0.167";
    object      phi;
}
// * * * * * * * * * * * * * * * * * * * * * * * * * * * * * * * * * * * * * //

dimensions      [0 3 -1 0 0 0 0];

internalField   nonuniform List<scalar> 
34880
(
5.48615e-06
7.01385e-06
3.12367e-06
2.36248e-06
2.47716e-06
6.4651e-07
2.21387e-06
2.63292e-07
2.07467e-06
1.39196e-07
1.97597e-06
9.87001e-08
1.8809e-06
9.50685e-08
1.81677e-06
6.41348e-08
1.79141e-06
2.53633e-08
1.73159e-06
5.98147e-08
1.70614e-06
2.54499e-08
1.71126e-06
-5.11731e-09
1.66184e-06
4.94207e-08
1.6579e-06
3.93563e-09
1.67467e-06
-1.67705e-08
1.68314e-06
-8.47246e-09
1.66979e-06
1.33558e-08
1.81726e-06
-1.47468e-07
1.69606e-06
1.212e-07
-1.20546e-06
2.90151e-06
1.01062e-05
9.40768e-06
7.82984e-06
4.63881e-06
6.71447e-06
1.76188e-06
6.05588e-06
9.21879e-07
5.64936e-06
5.45715e-07
5.35661e-06
3.91448e-07
5.1125e-06
3.39178e-07
4.94757e-06
2.29065e-07
4.82786e-06
1.45073e-07
4.69334e-06
1.94342e-07
4.63085e-06
8.79381e-08
4.57372e-06
5.2014e-08
4.49396e-06
1.29175e-07
4.46287e-06
3.50247e-08
4.46625e-06
-2.01413e-08
4.46679e-06
-9.01337e-09
4.45225e-06
2.78872e-08
4.70168e-06
-3.96893e-07
4.70495e-06
1.1793e-07
-1.92248e-06
5.42197e-06
1.24179e-05
9.48977e-06
1.1006e-05
6.05069e-06
9.98312e-06
2.78479e-06
9.19267e-06
1.71234e-06
8.62592e-06
1.11246e-06
8.1956e-06
8.21771e-07
7.84387e-06
6.90908e-07
7.60306e-06
4.69878e-07
7.40207e-06
3.46063e-07
7.21239e-06
3.84022e-07
7.1178e-06
1.82525e-07
6.99592e-06
1.73891e-07
6.90338e-06
2.21715e-07
6.83982e-06
9.85896e-08
6.81897e-06
7.10637e-10
6.81041e-06
-4.53037e-10
6.79146e-06
4.68322e-08
7.0334e-06
-6.38828e-07
7.20991e-06
-5.85793e-08
-2.44314e-06
7.73057e-06
1.34008e-05
8.58898e-06
1.2894e-05
6.55744e-06
1.23293e-05
3.34952e-06
1.17024e-05
2.33922e-06
1.11437e-05
1.67123e-06
1.06639e-05
1.30156e-06
1.02552e-05
1.09958e-06
9.972e-06
7.53074e-07
9.71777e-06
6.00284e-07
9.48086e-06
6.20942e-07
9.37128e-06
2.92104e-07
9.19407e-06
3.511e-07
9.08735e-06
3.2843e-07
9.00588e-06
1.8006e-07
8.95088e-06
5.57103e-08
8.93147e-06
1.89632e-08
8.91386e-06
6.44395e-08
9.09524e-06
-8.20204e-07
9.36178e-06
-3.25129e-07
-2.99071e-06
9.90936e-06
1.35727e-05
7.51628e-06
1.36691e-05
6.46109e-06
1.36317e-05
3.3869e-06
1.33814e-05
2.58948e-06
1.30301e-05
2.02255e-06
1.26323e-05
1.69936e-06
1.22486e-05
1.48325e-06
1.1977e-05
1.02467e-06
1.17189e-05
8.58407e-07
1.14533e-05
8.86593e-07
1.1351e-05
3.94319e-07
1.11441e-05
5.5801e-07
1.10206e-05
4.5195e-07
1.09417e-05
2.58966e-07
1.08559e-05
1.41529e-07
1.08242e-05
5.06724e-08
1.08129e-05
7.56755e-08
1.0938e-05
-9.45274e-07
1.11825e-05
-5.6964e-07
-3.25529e-06
1.14471e-05
1.34524e-05
6.56393e-06
1.37641e-05
6.14937e-06
1.40186e-05
3.13236e-06
1.41194e-05
2.48867e-06
1.40935e-05
2.04843e-06
1.39116e-05
1.88135e-06
1.36647e-05
1.73006e-06
1.34811e-05
1.2083e-06
1.32937e-05
1.04582e-06
1.30399e-05
1.14035e-06
1.29714e-05
4.62854e-07
1.27788e-05
7.50626e-07
1.26447e-05
5.86028e-07
1.25877e-05
3.15929e-07
1.24902e-05
2.39081e-07
1.24492e-05
9.16923e-08
1.24517e-05
7.30945e-08
1.25223e-05
-1.01579e-06
1.27553e-05
-8.02709e-07
-3.97419e-06
1.34742e-05
1.33162e-05
5.74777e-06
1.36988e-05
5.76676e-06
1.39786e-05
2.85258e-06
1.42005e-05
2.26677e-06
1.43926e-05
1.85628e-06
1.44294e-05
1.8446e-06
1.43725e-05
1.78693e-06
1.43278e-05
1.25301e-06
1.42965e-05
1.07712e-06
1.4119e-05
1.31786e-06
1.41154e-05
4.66427e-07
1.39975e-05
8.68529e-07
1.38825e-05
7.01021e-07
1.38651e-05
3.33318e-07
1.3783e-05
3.21203e-07
1.37481e-05
1.26586e-07
1.37778e-05
4.33633e-08
1.37949e-05
-1.03289e-06
1.40079e-05
-1.01571e-06
-3.66126e-06
1.3695e-05
1.32099e-05
5.03784e-06
1.36528e-05
5.32387e-06
1.38745e-05
2.63087e-06
1.40994e-05
2.0419e-06
1.4323e-05
1.63266e-06
1.44714e-05
1.6962e-06
1.45332e-05
1.72511e-06
1.45549e-05
1.2313e-06
1.46804e-05
9.51689e-07
1.46172e-05
1.38107e-06
1.46796e-05
4.04044e-07
1.46804e-05
8.67635e-07
1.46342e-05
7.47289e-07
1.46802e-05
2.87325e-07
1.46375e-05
3.6383e-07
1.46461e-05
1.18016e-07
1.471e-05
-2.05561e-08
1.47158e-05
-1.03869e-06
1.49174e-05
-1.21733e-06
-2.99643e-06
1.42526e-05
1.31479e-05
4.38996e-06
1.35415e-05
4.93025e-06
1.37715e-05
2.40092e-06
1.40306e-05
1.78272e-06
1.4205e-05
1.45825e-06
1.43743e-05
1.52693e-06
1.44959e-05
1.60353e-06
1.44972e-05
1.22999e-06
1.46816e-05
7.67313e-07
1.47165e-05
1.34618e-06
1.47886e-05
3.31939e-07
1.48644e-05
7.91849e-07
1.48981e-05
7.13569e-07
1.50044e-05
1.81052e-07
1.50015e-05
3.66691e-07
1.50733e-05
4.6251e-08
1.5179e-05
-1.26262e-07
1.52251e-05
-1.08487e-06
1.54896e-05
-1.48177e-06
-3.52472e-06
1.60179e-05
1.31278e-05
3.76219e-06
1.34611e-05
4.59693e-06
1.36457e-05
2.21628e-06
1.39572e-05
1.47125e-06
1.41122e-05
1.30329e-06
1.42754e-05
1.36371e-06
1.44417e-05
1.43721e-06
1.44367e-05
1.23496e-06
1.46004e-05
6.03665e-07
1.47034e-05
1.24317e-06
1.4746e-05
2.89352e-07
1.48222e-05
7.1561e-07
1.49019e-05
6.33828e-07
1.50341e-05
4.8934e-08
1.50389e-05
3.61893e-07
1.51429e-05
-5.78214e-08
1.52765e-05
-2.5978e-07
1.53674e-05
-1.17585e-06
1.56463e-05
-1.76064e-06
-3.8512e-06
1.59728e-05
1.30656e-05
3.1966e-06
1.34047e-05
4.25785e-06
1.35605e-05
2.0604e-06
1.38368e-05
1.19501e-06
1.40398e-05
1.10027e-06
1.4257e-05
1.14647e-06
1.44079e-05
1.28637e-06
1.44151e-05
1.22774e-06
1.45546e-05
4.64161e-07
1.46564e-05
1.14135e-06
1.46583e-05
2.87443e-07
1.47406e-05
6.33304e-07
1.48355e-05
5.38998e-07
1.49835e-05
-9.90774e-08
1.4993e-05
3.52371e-07
1.51042e-05
-1.69053e-07
1.52442e-05
-3.99783e-07
1.53266e-05
-1.25821e-06
1.55976e-05
-2.03163e-06
-4.04209e-06
1.57885e-05
1.29635e-05
2.73305e-06
1.34154e-05
3.80602e-06
1.3571e-05
1.90477e-06
1.37369e-05
1.02908e-06
1.39919e-05
8.45269e-07
1.42202e-05
9.18186e-07
1.43073e-05
1.1993e-06
1.43441e-05
1.19097e-06
1.44759e-05
3.32354e-07
1.45779e-05
1.03933e-06
1.45813e-05
2.83999e-07
1.46843e-05
5.30319e-07
1.4761e-05
4.62263e-07
1.49071e-05
-2.45105e-07
1.49435e-05
3.15947e-07
1.506e-05
-2.85547e-07
1.51776e-05
-5.17415e-07
1.52435e-05
-1.32413e-06
1.54805e-05
-2.26863e-06
-4.1262e-06
1.55647e-05
1.29097e-05
2.3234e-06
1.34662e-05
3.24951e-06
1.36088e-05
1.76212e-06
1.3696e-05
9.4189e-07
1.39315e-05
6.09814e-07
1.40807e-05
7.68955e-07
1.41675e-05
1.11245e-06
1.42637e-05
1.09477e-06
1.4385e-05
2.11071e-07
1.45414e-05
8.8301e-07
1.45678e-05
2.57572e-07
1.46432e-05
4.54896e-07
1.46842e-05
4.21294e-07
1.48116e-05
-3.72545e-07
1.48894e-05
2.38171e-07
1.50037e-05
-3.99863e-07
1.50993e-05
-6.1297e-07
1.51738e-05
-1.39864e-06
1.53436e-05
-2.43849e-06
-4.13872e-06
1.53562e-05
1.29082e-05
1.91523e-06
1.34361e-05
2.72157e-06
1.35949e-05
1.60337e-06
1.36846e-05
8.52163e-07
1.38477e-05
4.46719e-07
1.39599e-05
6.56719e-07
1.41189e-05
9.53495e-07
1.42472e-05
9.66431e-07
1.43462e-05
1.12121e-07
1.45234e-05
7.05787e-07
1.45437e-05
2.3723e-07
1.45865e-05
4.12116e-07
1.46081e-05
3.99735e-07
1.47342e-05
-4.98628e-07
1.4848e-05
1.24351e-07
1.49403e-05
-4.92178e-07
1.50324e-05
-7.05048e-07
1.5129e-05
-1.49527e-06
1.52418e-05
-2.55132e-06
-4.18942e-06
1.52925e-05
1.28809e-05
1.53431e-06
1.33305e-05
2.27198e-06
1.35576e-05
1.3763e-06
1.36691e-05
7.40636e-07
1.37877e-05
3.28111e-07
1.39468e-05
4.97621e-07
1.41233e-05
7.7702e-07
1.42369e-05
8.52778e-07
1.43067e-05
4.23548e-08
1.44604e-05
5.52105e-07
1.44832e-05
2.14375e-07
1.45459e-05
3.4948e-07
1.45773e-05
3.68289e-07
1.46959e-05
-6.17222e-07
1.48027e-05
1.75583e-08
1.48864e-05
-5.75887e-07
1.50089e-05
-8.27545e-07
1.50917e-05
-1.57806e-06
1.51751e-05
-2.63473e-06
-4.34433e-06
1.533e-05
1.28116e-05
1.22269e-06
1.32756e-05
1.80803e-06
1.35798e-05
1.07203e-06
1.36519e-05
6.68554e-07
1.37763e-05
2.03743e-07
1.39658e-05
3.08087e-07
1.40804e-05
6.62457e-07
1.41766e-05
7.56574e-07
1.42542e-05
-3.52863e-08
1.43992e-05
4.07174e-07
1.44368e-05
1.76773e-07
1.45303e-05
2.55956e-07
1.45888e-05
3.09791e-07
1.46514e-05
-6.79821e-07
1.47607e-05
-9.1719e-08
1.48488e-05
-6.63987e-07
1.50017e-05
-9.80469e-07
1.50306e-05
-1.60698e-06
1.50965e-05
-2.70057e-06
-4.72467e-06
1.54768e-05
1.27782e-05
9.44449e-07
1.32943e-05
1.29201e-06
1.35669e-05
7.99407e-07
1.36296e-05
6.05809e-07
1.37875e-05
4.58712e-08
1.39315e-05
1.64043e-07
1.40074e-05
5.8663e-07
1.4148e-05
6.15967e-07
1.42422e-05
-1.29502e-07
1.43633e-05
2.86047e-07
1.44127e-05
1.27424e-07
1.45162e-05
1.52396e-07
1.4585e-05
2.40974e-07
1.46056e-05
-7.00358e-07
1.47473e-05
-2.33436e-07
1.48028e-05
-7.19448e-07
1.49493e-05
-1.12701e-06
1.49814e-05
-1.63911e-06
1.49503e-05
-2.66944e-06
-3.64696e-06
1.38726e-05
1.2803e-05
6.41425e-07
1.32704e-05
8.24682e-07
1.34849e-05
5.84897e-07
1.3629e-05
4.61656e-07
1.37782e-05
-1.03335e-07
1.38667e-05
7.55628e-08
1.39884e-05
4.64975e-07
1.41837e-05
4.20626e-07
1.42357e-05
-1.81488e-07
1.43178e-05
2.03968e-07
1.43874e-05
5.78088e-08
1.45108e-05
2.8978e-08
1.45584e-05
1.93403e-07
1.45957e-05
-7.37671e-07
1.47216e-05
-3.59387e-07
1.47594e-05
-7.57241e-07
1.488e-05
-1.24763e-06
1.49789e-05
-1.73794e-06
1.50808e-05
-2.77137e-06
-3.95484e-06
1.53887e-05
1.27971e-05
3.44319e-07
1.31881e-05
4.33665e-07
1.34656e-05
3.07448e-07
1.36769e-05
2.50305e-07
1.37578e-05
-1.84219e-07
1.38388e-05
-5.42315e-09
1.40087e-05
2.95025e-07
1.41911e-05
2.38243e-07
1.41934e-05
-1.8378e-07
1.42769e-05
1.20484e-07
1.43813e-05
-4.65487e-08
1.45004e-05
-9.02064e-08
1.45463e-05
1.47551e-07
1.45844e-05
-7.75806e-07
1.4682e-05
-4.56917e-07
1.4746e-05
-8.21283e-07
1.48546e-05
-1.35623e-06
1.49899e-05
-1.87328e-06
1.50727e-05
-2.85417e-06
-4.0927e-06
1.52106e-05
1.27523e-05
9.20608e-08
1.31674e-05
1.85059e-08
1.3531e-05
-5.61426e-08
1.37008e-05
8.05067e-08
1.37228e-05
-2.06249e-07
1.38391e-05
-1.21724e-07
1.40099e-05
1.24218e-07
1.4155e-05
9.31965e-08
1.41697e-05
-1.98509e-07
1.42886e-05
1.64757e-09
1.43907e-05
-1.48743e-07
1.4486e-05
-1.85498e-07
1.45357e-05
9.79008e-08
1.45684e-05
-8.08538e-07
1.46724e-05
-5.60896e-07
1.4752e-05
-9.00904e-07
1.48426e-05
-1.4468e-06
1.49577e-05
-1.98838e-06
1.5041e-05
-2.93747e-06
-4.23561e-06
1.51839e-05
1.27476e-05
-1.55533e-07
1.32045e-05
-4.38393e-07
1.35523e-05
-4.03959e-07
1.36552e-05
-2.23429e-08
1.36956e-05
-2.46681e-07
1.38539e-05
-2.8008e-07
1.40023e-05
-2.41662e-08
1.41456e-05
-5.00556e-08
1.41968e-05
-2.49705e-07
1.43146e-05
-1.16145e-07
1.43954e-05
-2.2959e-07
1.44659e-05
-2.56e-07
1.4527e-05
3.67846e-08
1.45663e-05
-8.47787e-07
1.46972e-05
-6.91799e-07
1.47417e-05
-9.45467e-07
1.4829e-05
-1.5341e-06
1.49189e-05
-2.07827e-06
1.5007e-05
-3.02554e-06
-4.53846e-06
1.53099e-05
1.27655e-05
-4.2106e-07
1.32194e-05
-8.92225e-07
1.35308e-05
-7.15395e-07
1.36273e-05
-1.18814e-07
1.37257e-05
-3.45146e-07
1.38814e-05
-4.35798e-07
1.3999e-05
-1.41726e-07
1.41634e-05
-2.1449e-07
1.42219e-05
-3.08118e-07
1.4312e-05
-2.06294e-07
1.43862e-05
-3.03743e-07
1.44503e-05
-3.20173e-07
1.4535e-05
-4.79198e-08
1.45934e-05
-9.06145e-07
1.47093e-05
-8.07741e-07
1.47234e-05
-9.59491e-07
1.48251e-05
-1.63582e-06
1.49216e-05
-2.17481e-06
1.48903e-05
-2.99421e-06
-3.42971e-06
1.37815e-05
1.27787e-05
-6.99771e-07
1.32264e-05
-1.33988e-06
1.35252e-05
-1.01426e-06
1.3651e-05
-2.44605e-07
1.37712e-05
-4.6535e-07
1.38858e-05
-5.5033e-07
1.39995e-05
-2.55415e-07
1.41849e-05
-3.99986e-07
1.42221e-05
-3.45258e-07
1.43129e-05
-2.97073e-07
1.43867e-05
-3.7755e-07
1.44635e-05
-3.9702e-07
1.45536e-05
-1.38005e-07
1.46317e-05
-9.84273e-07
1.46946e-05
-8.70597e-07
1.4727e-05
-9.91947e-07
1.48209e-05
-1.72968e-06
1.49356e-05
-2.28946e-06
1.50093e-05
-3.06792e-06
-3.80791e-06
1.53875e-05
1.28002e-05
-9.99979e-07
1.32367e-05
-1.77639e-06
1.35404e-05
-1.31795e-06
1.36772e-05
-3.81411e-07
1.37817e-05
-5.69879e-07
1.38903e-05
-6.58847e-07
1.40193e-05
-3.84505e-07
1.41988e-05
-5.79428e-07
1.42364e-05
-3.82905e-07
1.43389e-05
-3.99515e-07
1.44103e-05
-4.48942e-07
1.44837e-05
-4.70405e-07
1.45793e-05
-2.33646e-07
1.46479e-05
-1.05292e-06
1.4683e-05
-9.05698e-07
1.47474e-05
-1.05633e-06
1.48286e-05
-1.81088e-06
1.49672e-05
-2.42804e-06
1.50113e-05
-3.112e-06
-4.05607e-06
1.52594e-05
1.28188e-05
-1.31876e-06
1.32579e-05
-2.21555e-06
1.35774e-05
-1.63742e-06
1.36921e-05
-4.96081e-07
1.37957e-05
-6.73448e-07
1.39241e-05
-7.87266e-07
1.40458e-05
-5.06188e-07
1.42172e-05
-7.50834e-07
1.42706e-05
-4.36381e-07
1.43678e-05
-4.96653e-07
1.44354e-05
-5.16542e-07
1.44998e-05
-5.34817e-07
1.46023e-05
-3.36113e-07
1.46633e-05
-1.11392e-06
1.46979e-05
-9.4035e-07
1.47829e-05
-1.14129e-06
1.48548e-05
-1.88286e-06
1.49736e-05
-2.54676e-06
1.50138e-05
-3.15225e-06
-4.30354e-06
1.52613e-05
1.28469e-05
-1.66568e-06
1.33036e-05
-2.67221e-06
1.36076e-05
-1.94146e-06
1.37016e-05
-5.90102e-07
1.38281e-05
-7.99961e-07
1.39631e-05
-9.22209e-07
1.40751e-05
-6.18157e-07
1.42532e-05
-9.28938e-07
1.43044e-05
-4.87576e-07
1.439e-05
-5.82289e-07
1.44629e-05
-5.8943e-07
1.45281e-05
-6.00034e-07
1.46334e-05
-4.41381e-07
1.46901e-05
-1.17061e-06
1.47367e-05
-9.87036e-07
1.48153e-05
-1.21987e-06
1.49001e-05
-1.96769e-06
1.49334e-05
-2.58005e-06
1.50502e-05
-3.26901e-06
-4.70382e-06
1.54505e-05
1.28884e-05
-2.05405e-06
1.33476e-05
-3.13143e-06
1.36289e-05
-2.2228e-06
1.37228e-05
-6.83924e-07
1.38682e-05
-9.45386e-07
1.40069e-05
-1.06088e-06
1.41205e-05
-7.31794e-07
1.42903e-05
-1.09874e-06
1.43316e-05
-5.28921e-07
1.44191e-05
-6.69741e-07
1.45072e-05
-6.77521e-07
1.45729e-05
-6.65744e-07
1.46743e-05
-5.42835e-07
1.47306e-05
-1.22688e-06
1.47801e-05
-1.03649e-06
1.48492e-05
-1.28901e-06
1.49254e-05
-2.04386e-06
1.49298e-05
-2.58444e-06
1.5052e-05
-3.39126e-06
-3.65642e-06
1.40046e-05
1.29336e-05
-2.48769e-06
1.33994e-05
-3.59722e-06
1.36321e-05
-2.45546e-06
1.37494e-05
-8.01283e-07
1.39207e-05
-1.11663e-06
1.406e-05
-1.20021e-06
1.41676e-05
-8.39417e-07
1.43244e-05
-1.25546e-06
1.43702e-05
-5.74804e-07
1.44617e-05
-7.61244e-07
1.45688e-05
-7.84534e-07
1.46261e-05
-7.2307e-07
1.47181e-05
-6.34839e-07
1.47873e-05
-1.29612e-06
1.4817e-05
-1.06617e-06
1.48902e-05
-1.36224e-06
1.4921e-05
-2.07459e-06
1.50118e-05
-2.67527e-06
1.51081e-05
-3.48753e-06
-4.08579e-06
1.55375e-05
1.29903e-05
-2.97801e-06
1.34643e-05
-4.07115e-06
1.36282e-05
-2.61942e-06
1.378e-05
-9.53078e-07
1.39842e-05
-1.32082e-06
1.41073e-05
-1.32331e-06
1.42194e-05
-9.51519e-07
1.43672e-05
-1.40323e-06
1.44214e-05
-6.29013e-07
1.45164e-05
-8.56306e-07
1.46408e-05
-9.08867e-07
1.46792e-05
-7.61478e-07
1.47774e-05
-7.33078e-07
1.48412e-05
-1.35993e-06
1.48604e-05
-1.08532e-06
1.49187e-05
-1.42054e-06
1.49513e-05
-2.10724e-06
1.50752e-05
-2.79915e-06
1.51016e-05
-3.51394e-06
-4.42534e-06
1.54412e-05
1.30535e-05
-3.53146e-06
1.35263e-05
-4.54404e-06
1.36437e-05
-2.73681e-06
1.38285e-05
-1.13782e-06
1.40511e-05
-1.54344e-06
1.4159e-05
-1.43118e-06
1.42862e-05
-1.07873e-06
1.44164e-05
-1.5334e-06
1.44868e-05
-6.99431e-07
1.45872e-05
-9.56761e-07
1.47187e-05
-1.04035e-06
1.47397e-05
-7.82478e-07
1.48464e-05
-8.39818e-07
1.48864e-05
-1.39991e-06
1.49039e-05
-1.10274e-06
1.49539e-05
-1.47062e-06
1.50035e-05
-2.15684e-06
1.5079e-05
-2.87466e-06
1.50844e-05
-3.51933e-06
-4.71434e-06
1.53734e-05
1.31182e-05
-4.14968e-06
1.35857e-05
-5.01153e-06
1.3673e-05
-2.82407e-06
1.38963e-05
-1.36111e-06
1.41205e-05
-1.7677e-06
1.42253e-05
-1.53594e-06
1.43706e-05
-1.22407e-06
1.44829e-05
-1.64564e-06
1.45738e-05
-7.90372e-07
1.46779e-05
-1.06083e-06
1.47889e-05
-1.15141e-06
1.48007e-05
-7.94237e-07
1.49022e-05
-9.41359e-07
1.49192e-05
-1.41685e-06
1.49376e-05
-1.12112e-06
1.49807e-05
-1.51373e-06
1.49946e-05
-2.17083e-06
1.49778e-05
-2.85782e-06
1.4907e-05
-3.44852e-06
-4.87482e-06
1.50675e-05
1.31855e-05
-4.83518e-06
1.36398e-05
-5.46584e-06
1.37243e-05
-2.90856e-06
1.39871e-05
-1.62387e-06
1.42033e-05
-1.98394e-06
1.43244e-05
-1.657e-06
1.44832e-05
-1.38289e-06
1.45605e-05
-1.72299e-06
1.46656e-05
-8.95418e-07
1.47492e-05
-1.1445e-06
1.48042e-05
-1.20635e-06
1.4821e-05
-8.11064e-07
1.48873e-05
-1.00766e-06
1.48593e-05
-1.38882e-06
1.4854e-05
-1.11581e-06
1.48341e-05
-1.49385e-06
1.47477e-05
-2.08446e-06
1.45908e-05
-2.70087e-06
1.43682e-05
-3.22592e-06
-4.82611e-06
1.43195e-05
1.32613e-05
-5.59648e-06
1.3692e-05
-5.89657e-06
1.38081e-05
-3.02461e-06
1.41085e-05
-1.92434e-06
1.43134e-05
-2.18882e-06
1.44408e-05
-1.78439e-06
1.45682e-05
-1.51027e-06
1.45749e-05
-1.72973e-06
1.46576e-05
-9.78085e-07
1.46657e-05
-1.15261e-06
1.46321e-05
-1.17275e-06
1.46188e-05
-7.9779e-07
1.45894e-05
-9.78254e-07
1.44743e-05
-1.27373e-06
1.44005e-05
-1.04198e-06
1.42755e-05
-1.36883e-06
1.40713e-05
-1.88026e-06
1.37833e-05
-2.41291e-06
1.34057e-05
-2.84831e-06
-3.80927e-06
1.23889e-05
1.33587e-05
-6.45521e-06
1.36966e-05
-6.23447e-06
1.39269e-05
-3.25487e-06
1.42417e-05
-2.23911e-06
1.43695e-05
-2.31668e-06
1.44174e-05
-1.83223e-06
1.44257e-05
-1.51864e-06
1.43e-05
-1.60399e-06
1.4275e-05
-9.53049e-07
1.41562e-05
-1.0338e-06
1.40106e-05
-1.02717e-06
1.39233e-05
-7.10486e-07
1.37892e-05
-8.44204e-07
1.35973e-05
-1.08175e-06
1.34571e-05
-9.01792e-07
1.32527e-05
-1.16452e-06
1.29661e-05
-1.59365e-06
1.25986e-05
-2.04533e-06
1.21559e-05
-2.40566e-06
-3.40459e-06
1.17512e-05
1.34859e-05
-7.44115e-06
1.37677e-05
-6.5162e-06
1.39884e-05
-3.47559e-06
1.41669e-05
-2.41759e-06
1.40632e-05
-2.21301e-06
1.39021e-05
-1.67108e-06
1.37107e-05
-1.32726e-06
1.34284e-05
-1.32174e-06
1.32731e-05
-7.97767e-07
1.30546e-05
-8.15209e-07
1.28382e-05
-8.10789e-07
1.26964e-05
-5.68734e-07
1.25064e-05
-6.54234e-07
1.22792e-05
-8.54502e-07
1.21014e-05
-7.24038e-07
1.18553e-05
-9.18417e-07
1.15273e-05
-1.26556e-06
1.11192e-05
-1.6373e-06
1.06182e-05
-1.90467e-06
-2.56393e-06
9.77757e-06
1.35981e-05
-8.53927e-06
1.36727e-05
-6.59075e-06
1.36128e-05
-3.41571e-06
1.34197e-05
-2.2245e-06
1.30001e-05
-1.79343e-06
1.26238e-05
-1.29472e-06
1.22822e-05
-9.85656e-07
1.19183e-05
-9.57893e-07
1.16979e-05
-5.77351e-07
1.14463e-05
-5.63661e-07
1.12138e-05
-5.78212e-07
1.1052e-05
-4.06969e-07
1.08491e-05
-4.51338e-07
1.06176e-05
-6.22983e-07
1.04256e-05
-5.32026e-07
1.01665e-05
-6.59302e-07
9.82858e-06
-9.27676e-07
9.40426e-06
-1.21298e-06
8.89357e-06
-1.39398e-06
-1.84036e-06
8.17e-06
1.34207e-05
-9.45999e-06
1.28981e-05
-6.06813e-06
1.23156e-05
-2.83325e-06
1.1729e-05
-1.63785e-06
1.11177e-05
-1.18219e-06
1.06554e-05
-8.32341e-07
1.02776e-05
-6.07914e-07
9.91772e-06
-5.97993e-07
9.69356e-06
-3.53194e-07
9.45944e-06
-3.29535e-07
9.24467e-06
-3.63443e-07
9.08913e-06
-2.51426e-07
8.90376e-06
-2.65975e-07
8.68752e-06
-4.0674e-07
8.50022e-06
-3.44729e-07
8.25428e-06
-4.1336e-07
7.93087e-06
-6.0426e-07
7.52051e-06
-8.02627e-07
7.02795e-06
-9.01423e-07
-1.2042e-06
6.39179e-06
1.24332e-05
-9.39323e-06
1.10102e-05
-4.64507e-06
9.9706e-06
-1.79368e-06
9.21042e-06
-8.77674e-07
8.60676e-06
-5.78516e-07
8.18466e-06
-4.10248e-07
7.85966e-06
-2.82912e-07
7.55869e-06
-2.97019e-07
7.37185e-06
-1.66352e-07
7.18791e-06
-1.45602e-07
7.01072e-06
-1.86248e-07
6.88152e-06
-1.22232e-07
6.7347e-06
-1.19149e-07
6.54711e-06
-2.19154e-07
6.38261e-06
-1.80226e-07
6.1737e-06
-2.04452e-07
5.88868e-06
-3.19237e-07
5.52057e-06
-4.34516e-07
5.08624e-06
-4.67099e-07
-6.57879e-07
4.53993e-06
1.01165e-05
-7.00969e-06
7.83436e-06
-2.36296e-06
6.70125e-06
-6.60568e-07
6.06892e-06
-2.45347e-07
5.63814e-06
-1.47738e-07
5.34156e-06
-1.13664e-07
5.12672e-06
-6.80702e-08
4.91585e-06
-8.61547e-08
4.79319e-06
-4.3688e-08
4.67844e-06
-3.08562e-08
4.55097e-06
-5.87772e-08
4.46355e-06
-3.48078e-08
4.36989e-06
-2.54945e-08
4.22445e-06
-7.37062e-08
4.10216e-06
-5.7941e-08
3.95376e-06
-5.60479e-08
3.73581e-06
-1.01289e-07
3.44639e-06
-1.45095e-07
3.12297e-06
-1.43678e-07
-2.33992e-07
2.69908e-06
5.49031e-06
3.12735e-06
2.46678e-06
2.22143e-06
2.07369e-06
1.96003e-06
1.89196e-06
1.8058e-06
1.76212e-06
1.73126e-06
1.67248e-06
1.63768e-06
1.61218e-06
1.53847e-06
1.48053e-06
1.42449e-06
1.3232e-06
1.1781e-06
1.03442e-06
8.00432e-07
3.61108e-06
-1.25431e-06
5.44747e-07
3.75781e-06
-1.4514e-06
1.30467e-06
3.84202e-06
-1.20906e-06
1.12485e-06
4.33112e-06
-6.2437e-07
1.35274e-07
4.3393e-06
-5.25993e-07
5.17813e-07
4.19735e-06
-1.13612e-06
1.27806e-06
5.41211e-06
-4.22563e-08
-1.1725e-06
7.12245e-06
3.0448e-06
-4.75514e-06
8.23228e-06
4.76826e-06
-5.87809e-06
9.10586e-06
4.12223e-06
-4.99581e-06
1.01351e-05
2.27656e-06
-3.30579e-06
1.12351e-05
4.02998e-07
-1.50299e-06
1.20759e-05
-1.77571e-06
9.34912e-07
1.29694e-05
-3.56404e-06
2.67055e-06
1.39e-05
-4.66605e-06
3.73541e-06
1.44459e-05
-6.40729e-06
5.86142e-06
1.43168e-05
-7.21617e-06
7.34524e-06
1.41515e-05
-7.49537e-06
7.6607e-06
1.46253e-05
-8.60597e-06
8.13211e-06
1.55099e-05
-1.12749e-05
1.03903e-05
1.63933e-05
-1.39883e-05
1.31049e-05
1.67139e-05
-1.6107e-05
1.57864e-05
1.65474e-05
-1.74903e-05
1.76568e-05
1.59985e-05
-1.72616e-05
1.78105e-05
1.52317e-05
-1.77268e-05
1.84936e-05
1.45402e-05
-1.65904e-05
1.72819e-05
1.3834e-05
-1.57491e-05
1.64553e-05
1.31943e-05
-1.54471e-05
1.60868e-05
1.25202e-05
-1.39248e-05
1.45989e-05
1.1907e-05
-1.3007e-05
1.36202e-05
1.14324e-05
-1.18783e-05
1.23529e-05
1.08968e-05
-1.08828e-05
1.14184e-05
1.0361e-05
-1.04104e-05
1.09462e-05
9.9983e-06
-9.05649e-06
9.41921e-06
9.50665e-06
-7.89872e-06
8.39037e-06
8.94841e-06
-8.49973e-06
9.05797e-06
8.82047e-06
-8.06857e-06
8.19651e-06
8.82686e-06
-5.7294e-06
5.72301e-06
8.36052e-06
-5.5301e-06
5.99645e-06
7.71376e-06
-7.51783e-06
8.16459e-06
7.68131e-06
-9.12087e-06
9.15333e-06
8.25532e-06
-7.1974e-06
6.62339e-06
8.69068e-06
-1.79584e-06
1.36047e-06
8.88974e-06
3.60176e-06
-3.80082e-06
9.04752e-06
8.46555e-06
-8.62333e-06
9.44767e-06
1.66499e-05
-1.70501e-05
9.46059e-06
2.71093e-05
-2.71222e-05
9.6178e-06
3.43363e-05
-3.44935e-05
9.45522e-06
3.50578e-05
-3.48952e-05
9.02969e-06
3.56624e-05
-3.52369e-05
8.72799e-06
3.19821e-05
-3.16804e-05
8.44275e-06
2.56096e-05
-2.53244e-05
8.41465e-06
2.09596e-05
-2.09315e-05
8.50999e-06
1.72243e-05
-1.73197e-05
8.45528e-06
1.30603e-05
-1.30056e-05
8.16969e-06
7.74804e-06
-7.46244e-06
7.81061e-06
8.12289e-07
-4.5321e-07
7.62646e-06
-7.02606e-06
7.21022e-06
7.52586e-06
-1.3952e-05
1.40526e-05
7.35854e-06
-1.91019e-05
1.92692e-05
7.25726e-06
-2.21766e-05
2.22778e-05
7.32443e-06
-2.21375e-05
2.20703e-05
7.32581e-06
-2.07949e-05
2.07935e-05
7.17608e-06
-2.04415e-05
2.05913e-05
7.09111e-06
-2.06739e-05
2.07588e-05
7.19334e-06
-1.87933e-05
1.86911e-05
7.19131e-06
-1.49925e-05
1.49945e-05
6.82543e-06
-1.313e-05
1.34958e-05
6.20139e-06
-1.63814e-05
1.70055e-05
5.72445e-06
-2.22465e-05
2.27234e-05
5.602e-06
-2.66175e-05
2.674e-05
5.66319e-06
-2.91272e-05
2.9066e-05
5.70274e-06
-3.0317e-05
3.02775e-05
5.81079e-06
-3.0379e-05
3.0271e-05
5.91218e-06
-2.95288e-05
2.94274e-05
6.00087e-06
-2.82893e-05
2.82006e-05
6.18849e-06
-2.6392e-05
2.62044e-05
6.5075e-06
-2.3376e-05
2.3057e-05
6.90588e-06
-1.97687e-05
1.93703e-05
7.20005e-06
-1.69717e-05
1.66775e-05
7.31972e-06
-1.57248e-05
1.56051e-05
7.48182e-06
-1.44819e-05
1.43198e-05
7.8745e-06
-1.08813e-05
1.04886e-05
8.18179e-06
-5.6139e-06
5.30661e-06
8.11538e-06
-1.2137e-06
1.28011e-06
8.00683e-06
2.8643e-06
-2.75576e-06
8.30886e-06
7.41226e-06
-7.7143e-06
9.02494e-06
1.09627e-05
-1.16788e-05
9.58122e-06
1.37741e-05
-1.43303e-05
1.00214e-05
1.68053e-05
-1.72455e-05
1.01821e-05
2.05568e-05
-2.07175e-05
1.02095e-05
2.28436e-05
-2.2871e-05
1.03564e-05
2.26454e-05
-2.27923e-05
1.05041e-05
2.15691e-05
-2.17168e-05
1.06212e-05
2.05791e-05
-2.06962e-05
1.05914e-05
1.99927e-05
-1.99629e-05
1.08322e-05
1.92902e-05
-1.9531e-05
1.10362e-05
2.09313e-05
-2.11353e-05
1.13795e-05
2.21369e-05
-2.24802e-05
1.17615e-05
2.22732e-05
-2.26552e-05
1.20024e-05
2.18713e-05
-2.21121e-05
1.22474e-05
1.95703e-05
-1.98153e-05
1.2075e-05
1.84684e-05
-1.82959e-05
1.17295e-05
1.63549e-05
-1.60095e-05
1.13613e-05
1.46786e-05
-1.43103e-05
1.08707e-05
1.30987e-05
-1.26081e-05
1.03601e-05
1.1391e-05
-1.08804e-05
9.91268e-06
1.03838e-05
-9.93648e-06
9.46702e-06
8.65864e-06
-8.21298e-06
8.84119e-06
7.39368e-06
-6.76785e-06
8.23307e-06
6.16358e-06
-5.55547e-06
8.01205e-06
4.63141e-06
-4.41039e-06
8.13427e-06
3.80053e-06
-3.92274e-06
8.37677e-06
4.86556e-06
-5.10806e-06
8.76825e-06
4.80874e-06
-5.20022e-06
9.27278e-06
4.14877e-06
-4.6533e-06
9.73138e-06
4.43515e-06
-4.89376e-06
9.97701e-06
4.65658e-06
-4.90221e-06
1.04482e-05
4.39882e-06
-4.87004e-06
1.11524e-05
2.09842e-06
-2.80257e-06
1.14736e-05
5.84197e-07
-9.05386e-07
1.16846e-05
-4.23773e-08
-1.68657e-07
1.19178e-05
-8.64876e-07
6.31727e-07
1.19897e-05
-2.54558e-06
2.47359e-06
1.16124e-05
-4.37972e-06
4.75705e-06
1.09558e-05
-4.93544e-06
5.59208e-06
1.05631e-05
-5.41668e-06
5.80931e-06
1.03951e-05
-6.86793e-06
7.03599e-06
1.01475e-05
-9.13153e-06
9.37911e-06
9.83454e-06
-1.12252e-05
1.15382e-05
9.46066e-06
-1.25179e-05
1.28918e-05
9.06605e-06
-1.26334e-05
1.3028e-05
8.85182e-06
-1.15753e-05
1.17896e-05
8.55287e-06
-1.05112e-05
1.08101e-05
8.22392e-06
-9.33037e-06
9.65931e-06
8.05432e-06
-7.69325e-06
7.86285e-06
7.65038e-06
-6.37551e-06
6.77945e-06
7.23263e-06
-7.07078e-06
7.48853e-06
7.20298e-06
-1.0161e-05
1.01906e-05
7.05489e-06
-1.43349e-05
1.4483e-05
6.783e-06
-1.8146e-05
1.84179e-05
6.83682e-06
-2.20175e-05
2.19637e-05
6.92381e-06
-2.51556e-05
2.50686e-05
6.8788e-06
-2.57547e-05
2.57997e-05
6.90575e-06
-2.57445e-05
2.57175e-05
6.98504e-06
-2.52997e-05
2.52204e-05
7.14012e-06
-2.45006e-05
2.43455e-05
7.2715e-06
-2.3034e-05
2.29026e-05
7.47964e-06
-2.06872e-05
2.0479e-05
7.75512e-06
-1.7101e-05
1.68255e-05
7.92283e-06
-1.346e-05
1.32923e-05
8.01896e-06
-1.13167e-05
1.12206e-05
8.26301e-06
-9.5413e-06
9.29726e-06
8.73282e-06
-6.5257e-06
6.05588e-06
9.13455e-06
-2.23195e-06
1.83022e-06
9.40443e-06
2.50303e-06
-2.7729e-06
9.69311e-06
6.80315e-06
-7.09183e-06
9.92714e-06
1.04494e-05
-1.06835e-05
1.01153e-05
1.43829e-05
-1.45711e-05
1.03751e-05
1.7739e-05
-1.79988e-05
1.075e-05
1.9373e-05
-1.97478e-05
1.09716e-05
2.14631e-05
-2.16847e-05
1.10934e-05
2.3709e-05
-2.38308e-05
1.11454e-05
2.35162e-05
-2.35681e-05
1.09082e-05
2.27049e-05
-2.24677e-05
1.05328e-05
2.25765e-05
-2.22012e-05
1.01867e-05
2.01762e-05
-1.98301e-05
9.786e-06
1.7335e-05
-1.69344e-05
9.26257e-06
1.7137e-05
-1.66135e-05
8.90292e-06
1.70711e-05
-1.67114e-05
8.62609e-06
1.4551e-05
-1.42741e-05
8.27188e-06
1.13461e-05
-1.09919e-05
7.9152e-06
1.11515e-05
-1.07949e-05
7.44369e-06
1.39504e-05
-1.34788e-05
7.11391e-06
1.65793e-05
-1.62495e-05
6.71761e-06
1.77411e-05
-1.73448e-05
6.13904e-06
1.76027e-05
-1.70241e-05
5.4399e-06
1.69839e-05
-1.62847e-05
4.81038e-06
1.68303e-05
-1.62008e-05
4.21219e-06
1.66749e-05
-1.60767e-05
3.95103e-06
1.68877e-05
-1.66265e-05
3.86201e-06
1.8301e-05
-1.82119e-05
4.25048e-06
1.72057e-05
-1.75942e-05
2.51405e-06
2.03236e-05
-1.85872e-05
1.70877e-06
1.48097e-05
-1.40044e-05
2.37976e-06
1.55634e-05
-1.62343e-05
4.55361e-06
8.42731e-06
-1.06012e-05
4.45786e-06
9.88039e-06
-9.78464e-06
5.2983e-06
1.99544e-06
-2.83588e-06
4.85128e-06
6.35451e-06
-5.90748e-06
5.3154e-06
-1.46298e-06
9.98864e-07
5.16123e-06
2.79771e-06
-2.64354e-06
5.80802e-06
-4.40012e-06
3.75332e-06
5.67483e-06
-1.36601e-07
2.69791e-07
6.01128e-06
-6.50657e-06
6.17012e-06
5.94634e-06
-2.52843e-06
2.59337e-06
5.88169e-06
-5.80046e-06
5.8651e-06
4.1358e-06
3.28271e-07
1.41762e-06
5.85723e-06
-4.09722e-06
2.37579e-06
1.07289e-05
-1.15473e-05
6.67567e-06
5.75597e-06
-1.58831e-06
5.88428e-06
-1.57971e-06
5.99189e-06
-1.31668e-06
6.39697e-06
-1.02944e-06
6.53535e-06
-6.64375e-07
6.14943e-06
-7.502e-07
6.37378e-06
-2.66604e-07
7.50277e-06
1.9158e-06
8.87246e-06
3.39856e-06
9.94055e-06
3.05415e-06
1.0694e-05
1.5231e-06
1.15253e-05
-4.28312e-07
1.2295e-05
-2.54544e-06
1.31109e-05
-4.37992e-06
1.38587e-05
-5.41384e-06
1.41566e-05
-6.70517e-06
1.42551e-05
-7.3147e-06
1.47659e-05
-8.00617e-06
1.57416e-05
-9.58167e-06
1.65774e-05
-1.21106e-05
1.71245e-05
-1.45354e-05
1.71408e-05
-1.61232e-05
1.66862e-05
-1.70358e-05
1.59752e-05
-1.65506e-05
1.51293e-05
-1.68809e-05
1.44445e-05
-1.59056e-05
1.38525e-05
-1.51571e-05
1.32916e-05
-1.48862e-05
1.26689e-05
-1.33022e-05
1.20767e-05
-1.24148e-05
1.16087e-05
-1.14103e-05
1.10956e-05
-1.03697e-05
1.0588e-05
-9.90284e-06
1.01814e-05
-8.64989e-06
9.66319e-06
-7.38054e-06
9.00362e-06
-7.84016e-06
8.79e-06
-7.85496e-06
8.82203e-06
-5.76143e-06
8.35951e-06
-5.06758e-06
7.70031e-06
-6.85864e-06
7.72224e-06
-9.1428e-06
8.38344e-06
-7.8586e-06
8.89194e-06
-2.30434e-06
9.11281e-06
3.38089e-06
9.24479e-06
8.33357e-06
9.64318e-06
1.62515e-05
9.63283e-06
2.71196e-05
9.83586e-06
3.41333e-05
9.77301e-06
3.51206e-05
9.39894e-06
3.60365e-05
9.06724e-06
3.23138e-05
8.80027e-06
2.58766e-05
8.82704e-06
2.09328e-05
8.98971e-06
1.70617e-05
9.04166e-06
1.30084e-05
8.83508e-06
7.95462e-06
8.48789e-06
1.15948e-06
8.274e-06
-6.81218e-06
8.1527e-06
-1.38307e-05
7.95904e-06
-1.89082e-05
7.77992e-06
-2.19974e-05
7.78431e-06
-2.21419e-05
7.73396e-06
-2.07446e-05
7.54859e-06
-2.02562e-05
7.38856e-06
-2.05138e-05
7.4098e-06
-1.88146e-05
7.35157e-06
-1.49342e-05
6.95004e-06
-1.27284e-05
6.23906e-06
-1.56704e-05
5.65765e-06
-2.16651e-05
5.47492e-06
-2.64348e-05
5.44256e-06
-2.90948e-05
5.39874e-06
-3.02732e-05
5.44038e-06
-3.04207e-05
5.46468e-06
-2.95531e-05
5.48346e-06
-2.8308e-05
5.62319e-06
-2.65317e-05
5.90235e-06
-2.36551e-05
6.28128e-06
-2.01476e-05
6.53576e-06
-1.72262e-05
6.60703e-06
-1.57961e-05
6.71975e-06
-1.45946e-05
7.03924e-06
-1.12008e-05
7.32729e-06
-5.90195e-06
7.2674e-06
-1.15381e-06
7.10561e-06
3.02609e-06
7.3592e-06
7.15867e-06
8.09298e-06
1.0229e-05
8.72514e-06
1.31419e-05
9.22913e-06
1.63013e-05
9.42721e-06
2.03587e-05
9.48165e-06
2.27892e-05
9.69962e-06
2.24274e-05
9.94139e-06
2.13274e-05
1.01385e-05
2.03819e-05
1.01403e-05
1.99909e-05
1.03505e-05
1.908e-05
1.05346e-05
2.07472e-05
1.08178e-05
2.18537e-05
1.11592e-05
2.19318e-05
1.14474e-05
2.15831e-05
1.17864e-05
1.92312e-05
1.17843e-05
1.84705e-05