/*--------------------------------*- C++ -*----------------------------------*\
| =========                 |                                                 |
| \\      /  F ield         | OpenFOAM: The Open Source CFD Toolbox           |
|  \\    /   O peration     | Version:  2.4.0                                 |
|   \\  /    A nd           | Web:      www.OpenFOAM.org                      |
|    \\/     M anipulation  |                                                 |
\*---------------------------------------------------------------------------*/
FoamFile
{
    version     2.0;
    format      ascii;
    class       volScalarField;
    location    "0.244";
    object      pPrime2Mean;
}
// * * * * * * * * * * * * * * * * * * * * * * * * * * * * * * * * * * * * * //

dimensions      [0 4 -4 0 0 0 0];

internalField   nonuniform List<scalar> 
17600
(
2.64864e+06
2.58185e+06
2.51004e+06
2.43887e+06
2.36871e+06
2.29958e+06
2.23148e+06
2.16439e+06
2.09832e+06
2.03326e+06
1.96922e+06
1.90618e+06
1.84412e+06
1.78301e+06
1.72279e+06
1.66334e+06
1.60444e+06
1.5456e+06
1.48578e+06
1.42141e+06
2.64869e+06
2.58185e+06
2.51003e+06
2.43887e+06
2.36871e+06
2.29958e+06
2.23148e+06
2.16439e+06
2.09832e+06
2.03326e+06
1.96922e+06
1.90618e+06
1.84412e+06
1.78302e+06
1.7228e+06
1.66335e+06
1.60445e+06
1.54563e+06
1.48587e+06
1.42159e+06
2.64874e+06
2.58184e+06
2.51003e+06
2.43887e+06
2.36871e+06
2.29958e+06
2.23148e+06
2.16439e+06
2.09832e+06
2.03326e+06
1.96922e+06
1.90618e+06
1.84412e+06
1.78302e+06
1.72281e+06
1.66337e+06
1.60448e+06
1.5457e+06
1.48602e+06
1.42224e+06
2.64876e+06
2.58183e+06
2.51002e+06
2.43887e+06
2.36871e+06
2.29958e+06
2.23148e+06
2.16439e+06
2.09832e+06
2.03326e+06
1.96922e+06
1.90618e+06
1.84413e+06
1.78303e+06
1.72282e+06
1.66339e+06
1.60453e+06
1.5458e+06
1.48626e+06
1.42317e+06
2.64879e+06
2.58182e+06
2.51002e+06
2.43886e+06
2.36871e+06
2.29958e+06
2.23147e+06
2.16439e+06
2.09832e+06
2.03326e+06
1.96922e+06
1.90618e+06
1.84413e+06
1.78304e+06
1.72284e+06
1.66342e+06
1.60459e+06
1.54593e+06
1.48657e+06
1.42427e+06
2.64881e+06
2.58181e+06
2.51001e+06
2.43886e+06
2.36871e+06
2.29958e+06
2.23147e+06
2.16439e+06
2.09832e+06
2.03326e+06
1.96922e+06
1.90619e+06
1.84414e+06
1.78305e+06
1.72286e+06
1.66346e+06
1.60467e+06
1.54609e+06
1.48694e+06
1.42548e+06
2.64883e+06
2.5818e+06
2.51e+06
2.43886e+06
2.36871e+06
2.29958e+06
2.23147e+06
2.16438e+06
2.09832e+06
2.03326e+06
1.96923e+06
1.90619e+06
1.84415e+06
1.78306e+06
1.72288e+06
1.66351e+06
1.60476e+06
1.54628e+06
1.48737e+06
1.42674e+06
2.64885e+06
2.58179e+06
2.50999e+06
2.43886e+06
2.36871e+06
2.29958e+06
2.23147e+06
2.16438e+06
2.09832e+06
2.03327e+06
1.96923e+06
1.9062e+06
1.84415e+06
1.78307e+06
1.72291e+06
1.66356e+06
1.60486e+06
1.54649e+06
1.48784e+06
1.42803e+06
2.64887e+06
2.58179e+06
2.50998e+06
2.43885e+06
2.36871e+06
2.29958e+06
2.23147e+06
2.16438e+06
2.09832e+06
2.03327e+06
1.96923e+06
1.9062e+06
1.84416e+06
1.78309e+06
1.72294e+06
1.66362e+06
1.60498e+06
1.54672e+06
1.48836e+06
1.42932e+06
2.64889e+06
2.58179e+06
2.50998e+06
2.43885e+06
2.36871e+06
2.29958e+06
2.23147e+06
2.16438e+06
2.09832e+06
2.03327e+06
1.96923e+06
1.9062e+06
1.84417e+06
1.78311e+06
1.72297e+06
1.66368e+06
1.6051e+06
1.54697e+06
1.4889e+06
1.4306e+06
2.6489e+06
2.58178e+06
2.50997e+06
2.43885e+06
2.36871e+06
2.29958e+06
2.23147e+06
2.16438e+06
2.09832e+06
2.03327e+06
1.96924e+06
1.90621e+06
1.84418e+06
1.78313e+06
1.72301e+06
1.66375e+06
1.60523e+06
1.54724e+06
1.48946e+06
1.43186e+06
2.64891e+06
2.58178e+06
2.50996e+06
2.43885e+06
2.36871e+06
2.29958e+06
2.23147e+06
2.16438e+06
2.09832e+06
2.03327e+06
1.96924e+06
1.90622e+06
1.84419e+06
1.78315e+06
1.72305e+06
1.66383e+06
1.60538e+06
1.54752e+06
1.49003e+06
1.43308e+06
2.64892e+06
2.58178e+06
2.50996e+06
2.43884e+06
2.36871e+06
2.29958e+06
2.23147e+06
2.16438e+06
2.09832e+06
2.03327e+06
1.96924e+06
1.90622e+06
1.84421e+06
1.78317e+06
1.72309e+06
1.66391e+06
1.60553e+06
1.54781e+06
1.49062e+06
1.43427e+06
2.64893e+06
2.58178e+06
2.50995e+06
2.43884e+06
2.36871e+06
2.29958e+06
2.23147e+06
2.16438e+06
2.09832e+06
2.03327e+06
1.96925e+06
1.90623e+06
1.84422e+06
1.7832e+06
1.72314e+06
1.66399e+06
1.60568e+06
1.54811e+06
1.49121e+06
1.43542e+06
2.64894e+06
2.58178e+06
2.50995e+06
2.43884e+06
2.36871e+06
2.29958e+06
2.23147e+06
2.16438e+06
2.09832e+06
2.03328e+06
1.96925e+06
1.90624e+06
1.84423e+06
1.78322e+06
1.72318e+06
1.66407e+06
1.60584e+06
1.54841e+06
1.4918e+06
1.43653e+06
2.64895e+06
2.58178e+06
2.50995e+06
2.43884e+06
2.36871e+06
2.29958e+06
2.23147e+06
2.16438e+06
2.09832e+06
2.03328e+06
1.96925e+06
1.90625e+06
1.84425e+06
1.78325e+06
1.72323e+06
1.66416e+06
1.606e+06
1.54872e+06
1.49238e+06
1.43759e+06
2.64895e+06
2.58178e+06
2.50995e+06
2.43884e+06
2.36871e+06
2.29958e+06
2.23147e+06
2.16438e+06
2.09832e+06
2.03328e+06
1.96926e+06
1.90625e+06
1.84426e+06
1.78327e+06
1.72328e+06
1.66425e+06
1.60617e+06
1.54903e+06
1.49295e+06
1.43861e+06
2.64896e+06
2.58178e+06
2.50994e+06
2.43883e+06
2.36871e+06
2.29958e+06
2.23147e+06
2.16438e+06
2.09832e+06
2.03328e+06
1.96926e+06
1.90626e+06
1.84428e+06
1.7833e+06
1.72333e+06
1.66434e+06
1.60634e+06
1.54934e+06
1.49352e+06
1.43958e+06
2.64896e+06
2.58178e+06
2.50994e+06
2.43883e+06
2.36871e+06
2.29958e+06
2.23147e+06
2.16438e+06
2.09832e+06
2.03328e+06
1.96927e+06
1.90627e+06
1.84429e+06
1.78333e+06
1.72338e+06
1.66443e+06
1.60651e+06
1.54965e+06
1.49407e+06
1.44051e+06
2.64896e+06
2.58178e+06
2.50994e+06
2.43883e+06
2.36871e+06
2.29958e+06
2.23147e+06
2.16439e+06
2.09832e+06
2.03329e+06
1.96927e+06
1.90628e+06
1.84431e+06
1.78336e+06
1.72343e+06
1.66453e+06
1.60667e+06
1.54995e+06
1.49461e+06
1.44139e+06
2.64896e+06
2.58178e+06
2.50994e+06
2.43883e+06
2.36871e+06
2.29958e+06
2.23147e+06
2.16439e+06
2.09832e+06
2.03329e+06
1.96928e+06
1.90629e+06
1.84432e+06
1.78338e+06
1.72348e+06
1.66462e+06
1.60684e+06
1.55025e+06
1.49512e+06
1.44222e+06
2.64896e+06
2.58178e+06
2.50994e+06
2.43883e+06
2.36871e+06
2.29958e+06
2.23147e+06
2.16439e+06
2.09833e+06
2.03329e+06
1.96928e+06
1.90629e+06
1.84434e+06
1.78341e+06
1.72353e+06
1.66471e+06
1.607e+06
1.55054e+06
1.49562e+06
1.44301e+06
2.64896e+06
2.58178e+06
2.50994e+06
2.43883e+06
2.36871e+06
2.29958e+06
2.23147e+06
2.16439e+06
2.09833e+06
2.03329e+06
1.96928e+06
1.9063e+06
1.84435e+06
1.78344e+06
1.72358e+06
1.6648e+06
1.60716e+06
1.55082e+06
1.4961e+06
1.44375e+06
2.64895e+06
2.58178e+06
2.50995e+06
2.43884e+06
2.36871e+06
2.29958e+06
2.23147e+06
2.16439e+06
2.09833e+06
2.0333e+06
1.96929e+06
1.90631e+06
1.84437e+06
1.78346e+06
1.72362e+06
1.66488e+06
1.60732e+06
1.55109e+06
1.49656e+06
1.44445e+06
2.64895e+06
2.58178e+06
2.50995e+06
2.43884e+06
2.36871e+06
2.29958e+06
2.23147e+06
2.16439e+06
2.09833e+06
2.0333e+06
1.96929e+06
1.90632e+06
1.84438e+06
1.78349e+06
1.72367e+06
1.66497e+06
1.60747e+06
1.55135e+06
1.49699e+06
1.4451e+06
2.64894e+06
2.58178e+06
2.50995e+06
2.43884e+06
2.36871e+06
2.29958e+06
2.23148e+06
2.16439e+06
2.09833e+06
2.0333e+06
1.9693e+06
1.90633e+06
1.84439e+06
1.78351e+06
1.72372e+06
1.66505e+06
1.60761e+06
1.5516e+06
1.4974e+06
1.44571e+06
2.64893e+06
2.58178e+06
2.50996e+06
2.43884e+06
2.36871e+06
2.29958e+06
2.23148e+06
2.16439e+06
2.09833e+06
2.0333e+06
1.9693e+06
1.90633e+06
1.84441e+06
1.78354e+06
1.72376e+06
1.66513e+06
1.60775e+06
1.55184e+06
1.49778e+06
1.44628e+06
2.64892e+06
2.58178e+06
2.50996e+06
2.43884e+06
2.36871e+06
2.29958e+06
2.23148e+06
2.16439e+06
2.09834e+06
2.03331e+06
1.96931e+06
1.90634e+06
1.84442e+06
1.78356e+06
1.7238e+06
1.6652e+06
1.60788e+06
1.55206e+06
1.49814e+06
1.4468e+06
2.64891e+06
2.58178e+06
2.50997e+06
2.43885e+06
2.36871e+06
2.29958e+06
2.23148e+06
2.16439e+06
2.09834e+06
2.03331e+06
1.96931e+06
1.90635e+06
1.84443e+06
1.78358e+06
1.72384e+06
1.66527e+06
1.608e+06
1.55226e+06
1.49847e+06
1.44728e+06
2.6489e+06
2.58178e+06
2.50997e+06
2.43885e+06
2.36871e+06
2.29958e+06
2.23148e+06
2.1644e+06
2.09834e+06
2.03331e+06
1.96931e+06
1.90635e+06
1.84444e+06
1.7836e+06
1.72388e+06
1.66534e+06
1.60812e+06
1.55246e+06
1.49878e+06
1.44772e+06
2.64889e+06
2.58179e+06
2.50998e+06
2.43885e+06
2.36871e+06
2.29958e+06
2.23148e+06
2.1644e+06
2.09834e+06
2.03331e+06
1.96932e+06
1.90636e+06
1.84445e+06
1.78362e+06
1.72391e+06
1.6654e+06
1.60822e+06
1.55263e+06
1.49906e+06
1.44812e+06
2.64887e+06
2.58179e+06
2.50999e+06
2.43886e+06
2.36871e+06
2.29958e+06
2.23148e+06
2.1644e+06
2.09834e+06
2.03331e+06
1.96932e+06
1.90636e+06
1.84446e+06
1.78364e+06
1.72394e+06
1.66545e+06
1.60832e+06
1.55279e+06
1.49931e+06
1.44848e+06
2.64885e+06
2.5818e+06
2.50999e+06
2.43886e+06
2.36871e+06
2.29959e+06
2.23148e+06
2.1644e+06
2.09834e+06
2.03332e+06
1.96932e+06
1.90637e+06
1.84447e+06
1.78366e+06
1.72397e+06
1.6655e+06
1.6084e+06
1.55294e+06
1.49953e+06
1.4488e+06
2.64883e+06
2.5818e+06
2.51e+06
2.43886e+06
2.36871e+06
2.29959e+06
2.23148e+06
2.1644e+06
2.09835e+06
2.03332e+06
1.96932e+06
1.90637e+06
1.84448e+06
1.78367e+06
1.724e+06
1.66555e+06
1.60848e+06
1.55306e+06
1.49973e+06
1.44908e+06
2.64881e+06
2.58181e+06
2.51001e+06
2.43886e+06
2.36871e+06
2.29959e+06
2.23148e+06
2.1644e+06
2.09835e+06
2.03332e+06
1.96933e+06
1.90638e+06
1.84449e+06
1.78368e+06
1.72402e+06
1.66558e+06
1.60854e+06
1.55317e+06
1.49989e+06
1.44932e+06
2.64879e+06
2.58182e+06
2.51002e+06
2.43886e+06
2.36871e+06
2.29959e+06
2.23148e+06
2.1644e+06
2.09835e+06
2.03332e+06
1.96933e+06
1.90638e+06
1.84449e+06
1.78369e+06
1.72404e+06
1.66562e+06
1.6086e+06
1.55326e+06
1.50004e+06
1.44951e+06
2.64877e+06
2.58183e+06
2.51003e+06
2.43887e+06
2.36871e+06
2.29959e+06
2.23148e+06
2.1644e+06
2.09835e+06
2.03332e+06
1.96933e+06
1.90638e+06
1.8445e+06
1.7837e+06
1.72405e+06
1.66564e+06
1.60864e+06
1.55333e+06
1.50015e+06
1.44967e+06
2.64874e+06
2.58184e+06
2.51003e+06
2.43887e+06
2.36872e+06
2.29959e+06
2.23148e+06
2.1644e+06
2.09835e+06
2.03332e+06
1.96933e+06
1.90638e+06
1.8445e+06
1.78371e+06
1.72406e+06
1.66566e+06
1.60868e+06
1.55339e+06
1.50023e+06
1.44979e+06
2.6487e+06
2.58185e+06
2.51004e+06
2.43887e+06
2.36872e+06
2.29959e+06
2.23148e+06
2.1644e+06
2.09835e+06
2.03332e+06
1.96933e+06
1.90639e+06
1.8445e+06
1.78371e+06
1.72407e+06
1.66567e+06
1.6087e+06
1.55343e+06
1.50029e+06
1.44987e+06
2.64864e+06
2.58185e+06
2.51004e+06
2.43887e+06
2.36872e+06
2.29959e+06
2.23148e+06
2.1644e+06
2.09835e+06
2.03332e+06
1.96933e+06
1.90639e+06
1.8445e+06
1.78371e+06
1.72407e+06
1.66568e+06
1.60871e+06
1.55345e+06
1.50032e+06
1.44991e+06
1.36045e+06
1.34586e+06
1.33456e+06
1.32467e+06
1.31541e+06
1.30656e+06
1.29802e+06
1.2897e+06
1.28156e+06
1.27356e+06
1.26568e+06
1.25788e+06
1.25014e+06
1.24246e+06
1.23481e+06
1.2272e+06
1.21961e+06
1.21205e+06
1.20451e+06
1.197e+06
1.18952e+06
1.18205e+06
1.17459e+06
1.16715e+06
1.15973e+06
1.15232e+06
1.14493e+06
1.13757e+06
1.13023e+06
1.12292e+06
1.11564e+06
1.10839e+06
1.10117e+06
1.09397e+06
1.08681e+06
1.07968e+06
1.07258e+06
1.06551e+06
1.05847e+06
1.05146e+06
1.04448e+06
1.03753e+06
1.03062e+06
1.02373e+06
1.01686e+06
1.01003e+06
1.00322e+06
996441
989691
982968
976273
969602
962956
956335
949740
943170
936622
930098
923597
917118
910661
904225
897809
891414
885037
878680
872341
866023
859726
853451
847200
840973
834771
828596
822448
816326
810228
804152
798098
792064
786049
780051
774072
768111
762170
756249
750347
744462
738597
732749
726922
721116
715332
709572
703836
698125
692438
686776
681140
675528
669942
664381
658844
653331
647840
642372
636926
631504
626104
620727
615373
610042
604735
599452
594193
588961
583755
578577
573423
568295
563192
558115
553062
548034
543029
538046
533085
528147
523229
518332
513455
508598
503762
498946
494152
489379
484628
479902
475199
470519
465863
461231
456623
452039
447480
442946
438436
433952
429491
425056
420645
416259
411897
407560
403245
398955
394687
390443
386220
382019
377841
373683
369547
365431
361336
357260
353204
349168
345151
341155
337180
333227
329294
325386
321496
317635
313788
309973
306165
302397
298626
294904
291169
287486
283788
280134
276469
272836
269190
265564
261921
258280
254606
250908
247148
243318
239370
235260
230818
225939
1.36736e+06
1.35147e+06
1.33898e+06
1.32828e+06
1.31847e+06
1.3092e+06
1.30031e+06
1.29172e+06
1.28334e+06
1.27515e+06
1.26709e+06
1.25913e+06
1.25126e+06
1.24345e+06
1.23569e+06
1.22799e+06
1.22031e+06
1.21268e+06
1.20507e+06
1.1975e+06
1.18995e+06
1.18243e+06
1.17494e+06
1.16746e+06
1.16001e+06
1.15257e+06
1.14516e+06
1.13777e+06
1.13042e+06
1.12309e+06
1.11579e+06
1.10852e+06
1.10129e+06
1.09408e+06
1.08691e+06
1.07976e+06
1.07265e+06
1.06558e+06
1.05853e+06
1.05151e+06
1.04453e+06
1.03758e+06
1.03066e+06
1.02377e+06
1.0169e+06
1.01007e+06
1.00326e+06
996483
989732
983009
976313
969641
962994
956373
949777
943206
936659
930135
923635
917157
910702
904266
897851
891456
885079
878721
872382
866063
859766
853490
847239
841011
834810
828635
822487
816366
810267
804189
798134
792098
786080
780079
774097
768134
762191
756268
750364
744479
738613
732766
726939
721133
715350
709589
703853
698142
692456
686793
681156
675544
669957
664395
658858
653344
647853
642385
636939
631517
626118
620741
615387
610056
604749
599465
594207
588974
583767
578588
573434
568304
563201
558122
553069
548040
543035
538051
533090
528151
523233
518335
513458
508600
503763
498947
494152
489378
484627
479899
475196
470515
465858
461226
456617
452033
447473
442938
438428
433943
429482
425046
420634
416247
411884
407545
403228
398935
394664
390416
386189
381985
377803
373641
369499
365379
361277
357195
353133
349090
345065
341061
337075
333113
329167
325248
321343
317467
313601
309769
305938
302148
298352
294601
290837
287118
283386
279688
275980
272294
268593
264902
261188
257464
253698
249890
246001
242011
237860
233461
228611
222880
1.37283e+06
1.35639e+06
1.34314e+06
1.33176e+06
1.32145e+06
1.31179e+06
1.30258e+06
1.29372e+06
1.28511e+06
1.27672e+06
1.26848e+06
1.26037e+06
1.25236e+06
1.24443e+06
1.23657e+06
1.22877e+06
1.22101e+06
1.2133e+06
1.20563e+06
1.19799e+06
1.19039e+06
1.18282e+06
1.17528e+06
1.16777e+06
1.16028e+06
1.15282e+06
1.14538e+06
1.13797e+06
1.1306e+06
1.12325e+06
1.11594e+06
1.10866e+06
1.1014e+06
1.09419e+06
1.087e+06
1.07985e+06
1.07273e+06
1.06564e+06
1.05859e+06
1.05157e+06
1.04458e+06
1.03763e+06
1.03071e+06
1.02381e+06
1.01695e+06
1.01012e+06
1.00331e+06
996529
989777
983053
976354
969681
963034
956411
949814
943243
936695
930172
923673
917196
910741
904307
897892
891496
885119
878759
872419
866100
859801
853525
847272
841045
834843
828668
822520
816398
810298
804220
798163
792124
786103
780100
774115
768150
762204
756280
750375
744489
738623
732776
726950
721145
715362
709602
703866
698155
692469
686806
681168
675555
669968
664406
658868
653353
647861
642393
636948
631527
626127
620751
615397
610067
604760
599476
594217
588984
583777
578597
573442
568312
563208
558129
553075
548045
543039
538055
533093
528153
523235
518336
513458
508599
503762
498945
494149
489374
484623
479894
475190
470509
465851
461218
456609
452023
447463
442928
438417
433931
429470
425033
420621
416233
411869
407528
403209
398913
394639
390387
386157
381950
377763
373597
369450
365325
361217
357129
353059
349008
344976
340964
336969
332997
329039
325108
321188
317298
313414
309563
305712
301899
298078
294298
290506
286751
282986
279245
275494
271756
268003
264248
260465
256661
252806
248893
244882
240743
236412
231767
226616
220444
1.37731e+06
1.36076e+06
1.34701e+06
1.3351e+06
1.32434e+06
1.31431e+06
1.3048e+06
1.29568e+06
1.28686e+06
1.27827e+06
1.26986e+06
1.2616e+06
1.25346e+06
1.24541e+06
1.23744e+06
1.22954e+06
1.2217e+06
1.21391e+06
1.20617e+06
1.19848e+06
1.19082e+06
1.1832e+06
1.17562e+06
1.16807e+06
1.16055e+06
1.15306e+06
1.1456e+06
1.13817e+06
1.13078e+06
1.12342e+06
1.11609e+06
1.10879e+06
1.10153e+06
1.09429e+06
1.0871e+06
1.07994e+06
1.07281e+06
1.06572e+06
1.05866e+06
1.05163e+06
1.04464e+06
1.03769e+06
1.03076e+06
1.02387e+06
1.017e+06
1.01017e+06
1.00336e+06
996578
989825
983098
976398
969723
963074
956450
949852
943279
936732
930209
923710
917234
910780
904345
897930
891534
885155
878794
872452
866131
859831
853553
847300
841071
834869
828694
822546
816423
810322
804242
798184
792143
786119
780114
774126
768158
762210
756284
750377
744491
738625
732780
726955
721151
715368
709610
703874
698164
692478
686814
681176
675562
669974
664411
658872
653357
647866
642398
636953
631532
626133
620757
615404
610074
604767
599483
594225
588991
583784
578603
573448
568317
563212
558132
553078
548047
543040
538056
533094
528153
523234
518334
513455
508596
503758
498940
494143
489368
484615
479886
475181
470499
465841
461207
456597
452012
447451
442915
438403
433917
429455
425018
420605
416217
411851
407508
403188
398889
394612
390357
386123
381913
377722
373551
369399
365268
361154
357060
352984
348926
344886
340866
336861
332880
328910
324967
321033
317128
313226
309357
305485
301649
297805
293996
290178
286387
282588
278805
275013
271224
267419
263602
259754
255871
251932
247919
243797
239521
235034
230190
224825
218507
1.38113e+06
1.36464e+06
1.35058e+06
1.33826e+06
1.32712e+06
1.31677e+06
1.30697e+06
1.29761e+06
1.28857e+06
1.27979e+06
1.27121e+06
1.26281e+06
1.25453e+06
1.24637e+06
1.2383e+06
1.2303e+06
1.22238e+06
1.21452e+06
1.20671e+06
1.19896e+06
1.19125e+06
1.18358e+06
1.17596e+06
1.16837e+06
1.16082e+06
1.1533e+06
1.14582e+06
1.13837e+06
1.13096e+06
1.12358e+06
1.11623e+06
1.10892e+06
1.10165e+06
1.0944e+06
1.0872e+06
1.08003e+06
1.07289e+06
1.06579e+06
1.05873e+06
1.0517e+06
1.04471e+06
1.03775e+06
1.03082e+06
1.02392e+06
1.01706e+06
1.01022e+06
1.00341e+06
996631
989876
983146
976443
969765
963114
956488
949889
943316
936768
930245
923746
917271
910817
904382
897966
891568
885187
878824
872480
866157
859855
853576
847321
841091
834888
828713
822564
816440
810338
804257
798196
792153
786127
780119
774129
768158
762208
756280
750373
744486
738620
732776
726953
721150
715370
709612
703878
698168
692481
686818
681179
675564
669975
664411
658872
653356
647865
642398
636954
631533
626135
620759
615406
610076
604770
599486
594228
588994
583787
578605
573450
568319
563213
558133
553078
548047
543039
538054
533091
528149
523229
518329
513449
508589
503750
498931
494134
489358
484605
479876
475170
470487
465829
461194
456583
451997
447435
442899
438387
433900
429438
425001
420587
416198
411831
407487
403164
398863
394583
390324
386088
381874
377679
373503
369347
365211
361091
356991
352907
348842
344794
340767
336753
332761
328781
324825
320877
316957
313038
309151
305259
301399
297533
293695
289851
286025
282194
278370
274536
270698
266843
262965
259056
255097
251079
246971
242748
238348
233728
228734
223231
216912
1.38444e+06
1.36811e+06
1.35388e+06
1.34125e+06
1.32979e+06
1.31914e+06
1.30908e+06
1.29948e+06
1.29024e+06
1.28128e+06
1.27254e+06
1.26399e+06
1.25559e+06
1.24731e+06
1.23914e+06
1.23105e+06
1.22305e+06
1.21511e+06
1.20724e+06
1.19943e+06
1.19167e+06
1.18396e+06
1.17629e+06
1.16867e+06
1.16108e+06
1.15354e+06
1.14604e+06
1.13857e+06
1.13114e+06
1.12374e+06
1.11638e+06
1.10906e+06
1.10177e+06
1.09452e+06
1.0873e+06
1.08012e+06
1.07298e+06
1.06587e+06
1.05881e+06
1.05178e+06
1.04478e+06
1.03781e+06
1.03088e+06
1.02399e+06
1.01712e+06
1.01028e+06
1.00347e+06
996686
989928
983195
976488
969808
963154
956526
949925
943351
936802
930279
923780
917305
910851
904416
897999
891599
885215
878850
872504
866178
859873
853592
847336
841105
834901
828724
822575
816449
810346
804264
798202
792156
786127
780117
774124
768151
762199
756270
750361
744474
738609
732766
726944
721144
715365
709609
703876
698167
692480
686815
681175
675560
669970
664406
658866
653350
647860
642393
636950
631530
626132
620756
615404
610074
604768
599485
594227
588993
583786
578604
573448
568317
563211
558130
553074
548042
543034
538048
533085
528142
523222
518320
513440
508579
503739
498919
494122
489346
484593
479862
475156
470473
465814
461178
456567
451980
447418
442881
438368
433881
429418
424980
420566
416176
411808
407462
403138
398834
394551
390290
386050
381833
377633
373453
369292
365152
361026
356921
352829
348758
344702
340666
336643
332642
328650
324682
320721
316785
312850
308944
305034
301150
297263
293396
289526
285666
281802
277938
274065
270178
266275
262339
258371
254340
250249
246051
241737
237227
232496
227393
221815
215557
1.38735e+06
1.37123e+06
1.35691e+06
1.34406e+06
1.33233e+06
1.32142e+06
1.31113e+06
1.30131e+06
1.29187e+06
1.28274e+06
1.27385e+06
1.26516e+06
1.25663e+06
1.24824e+06
1.23997e+06
1.23179e+06
1.22371e+06
1.2157e+06
1.20776e+06
1.19989e+06
1.19208e+06
1.18433e+06
1.17662e+06
1.16896e+06
1.16135e+06
1.15378e+06
1.14625e+06
1.13876e+06
1.13131e+06
1.1239e+06
1.11653e+06
1.10919e+06
1.10189e+06
1.09463e+06
1.08741e+06
1.08022e+06
1.07307e+06
1.06596e+06
1.05889e+06
1.05185e+06
1.04485e+06
1.03789e+06
1.03096e+06
1.02406e+06
1.01719e+06
1.01035e+06
1.00353e+06
996743
989981
983245
976534
969850
963193
956563
949960
943384
936835
930310
923811
917336
910881
904446
898027
891625
885239
878871
872522
866193
859885
853602
847343
841111
834906
828729
822578
816451
810347
804264
798199
792151
786120
780106
774110
768135
762183
756252
750343
744456
738592
732750
726929
721131
715354
709600
703869
698161
692473
686807
681167
675551
669960
664395
658855
653339
647850
642384
636942
631522
626125
620750
615397
610067
604761
599479
594221
588988
583780
578598
573442
568310
563204
558123
553066
548034
543025
538038
533075
528131
523210
518307
513427
508565
503725
498904
494107
489330
484578
479847
475140
470456
465796
461160
456548
451960
447398
442860
438347
433859
429396
424957
420542
416150
411782
407434
403108
398803
394517
390253
386011
381789
377584
373401
369237
365091
360961
356849
352751
348673
344609
340565
336533
332522
328520
324539
320565
316614
312663
308737
304809
300903
296994
293099
289202
285310
281415
277511
273600
269665
265717
261723
257700
253601
249443
245160
240765
236160
231337
226159
220550
214380
1.38996e+06
1.37405e+06
1.35971e+06
1.3467e+06
1.33476e+06
1.32362e+06
1.31311e+06
1.30309e+06
1.29347e+06
1.28417e+06
1.27512e+06
1.2663e+06
1.25765e+06
1.24915e+06
1.24078e+06
1.23252e+06
1.22436e+06
1.21628e+06
1.20828e+06
1.20036e+06
1.1925e+06
1.1847e+06
1.17695e+06
1.16926e+06
1.16161e+06
1.15402e+06
1.14647e+06
1.13896e+06
1.13149e+06
1.12407e+06
1.11668e+06
1.10933e+06
1.10202e+06
1.09475e+06
1.08752e+06
1.08032e+06
1.07317e+06
1.06605e+06
1.05898e+06
1.05194e+06
1.04494e+06
1.03797e+06
1.03103e+06
1.02413e+06
1.01726e+06
1.01041e+06
1.00359e+06
996801
990035
983294
976579
969892
963231
956599
949994
943416
936864
930339
923839
917363
910907
904471
898051
891646
885258
878887
872535
866202
859891
853605
847344
841110
834904
828726
822574
816447
810341
804257
798190
792139
786105
780088
774089
768112
762158
756227
750318
744432
738568
732727
726908
721111
715336
709585
703855
698148
692460
686793
681152
675536
669945
664379
658839
653324
647835
642370
636929
631510
626113
620738
615386
610056
604750
599468
594210
588977
583770
578588
573431
568299
563193
558111
553054
548021
543012
538024
533060
528116
523194
518291
513409
508547
503707
498886
494089
489312
484560
479828
475121
470436
465776
461139
456527
451938
447376
442837
438324
433835
429371
424931
420515
416122
411752
407403
403076
398768
394480
390213
385969
381743
377533
373347
369180
365030
360894
356776
352671
348586
344515
340464
336423
332402
328389
324396
320408
316442
312476
308532
304586
300656
296726
292804
288882
284958
281032
277089
273142
269161
265169
261119
257045
252879
248660
244300
239833
235149
230247
225022
219416
213336
1.39231e+06
1.37662e+06
1.3623e+06
1.34918e+06
1.33706e+06
1.32573e+06
1.31502e+06
1.30482e+06
1.29502e+06
1.28556e+06
1.27638e+06
1.26742e+06
1.25865e+06
1.25005e+06
1.24159e+06
1.23324e+06
1.225e+06
1.21686e+06
1.2088e+06
1.20082e+06
1.19291e+06
1.18506e+06
1.17728e+06
1.16955e+06
1.16188e+06
1.15426e+06
1.14668e+06
1.13916e+06
1.13167e+06
1.12423e+06
1.11683e+06
1.10947e+06
1.10215e+06
1.09487e+06
1.08763e+06
1.08043e+06
1.07327e+06
1.06615e+06
1.05907e+06
1.05203e+06
1.04503e+06
1.03805e+06
1.03111e+06
1.02421e+06
1.01733e+06
1.01048e+06
1.00366e+06
996860
990089
983343
976624
969932
963268
956632
950025
943444
936890
930363
923862
917385
910928
904490
898068
891661
885271
878897
872542
866205
859891
853602
847338
841103
834896
828717
822564
816435
810329
804243
798174
792120
786083
780063
774061
768082
762127
756195
750287
744402
738539
732699
726881
721085
715313
709563
703835
698128
692440
686773
681132
675516
669925
664359
658819
653304
647816
642352
636912
631493
626097
620722
615370
610040
604734
599452
594194
588961
583754
578572
573416
568283
563177
558094
553037
548003
542994
538006
533042
528096
523174
518270
513388
508525
503686
498865
494068
489291
484539
479807
475100
470415
465754
461116
456504
451915
447352
442812
438299
433809
429344
424903
420486
416091
411720
407369
403040
398730
394441
390171
385924
381693
377480
373291
369121
364966
360825
356702
352590
348499
344422
340363
336313
332281
328259
324253
320252
316271
312291
308327
304365
300412
296462
292513
288566
284610
280654
276674
272692
268665
264632
260529
256405
252179
247901
243473
238940
234192
229230
223975
218387
212394
1.39446e+06
1.37898e+06
1.36469e+06
1.35149e+06
1.33923e+06
1.32774e+06
1.31686e+06
1.30649e+06
1.29653e+06
1.28692e+06
1.2776e+06
1.26852e+06
1.25964e+06
1.25094e+06
1.24238e+06
1.23395e+06
1.22564e+06
1.21743e+06
1.20931e+06
1.20127e+06
1.19332e+06
1.18543e+06
1.17761e+06
1.16985e+06
1.16215e+06
1.1545e+06
1.1469e+06
1.13935e+06
1.13185e+06
1.12439e+06
1.11698e+06
1.10961e+06
1.10228e+06
1.095e+06
1.08775e+06
1.08054e+06
1.07338e+06
1.06626e+06
1.05917e+06
1.05213e+06
1.04512e+06
1.03814e+06
1.0312e+06
1.02429e+06
1.01741e+06
1.01055e+06
1.00372e+06
996918
990142
983391
976667
969971
963303
956664
950052
943468
936911
930382
923880
917401
910943
904504
898080
891670
885277
878901
872543
866203
859885
853592
847327
841089
834882
828702
822548
816418
810311
804223
798152
792096
786055
780031
774027
768046
762090
756158
750250
744366
738504
732665
726848
721054
715283
709535
703809
698102
692414
686747
681107
675491
669901
664335
658795
653280
647793
642330
636890
631472
626076
620701
615349
610019
604713
599431
594173
588940
583733
578551
573395
568263
563156
558073
553015
547981
542972
537983
533019
528073
523150
518246
513364
508501
503661
498841
494045
489268
484516
479784
475077
470391
465730
461091
456479
451889
447325
442786
438272
433780
429315
424872
420454
416058
411686
407333
403002
398689
394398
390125
385875
381640
377423
373232
369060
364900
360755
356625
352508
348411
344327
340260
336203
332160
328128
324110
320097
316100
312106
308124
304146
300170
296201
292225
288255
284266
280282
276264
272248
268180
264105
259954
255782
251501
247168
242682
238087
233288
228283
223011
217447
211532
1.39644e+06
1.38115e+06
1.36691e+06
1.35366e+06
1.34129e+06
1.32965e+06
1.31862e+06
1.3081e+06
1.29799e+06
1.28824e+06
1.27879e+06
1.26959e+06
1.26061e+06
1.25181e+06
1.24316e+06
1.23466e+06
1.22627e+06
1.21799e+06
1.20982e+06
1.20173e+06
1.19372e+06
1.18579e+06
1.17794e+06
1.17014e+06
1.16241e+06
1.15474e+06
1.14712e+06
1.13955e+06
1.13203e+06
1.12456e+06
1.11714e+06
1.10975e+06
1.10242e+06
1.09512e+06
1.08787e+06
1.08066e+06
1.07349e+06
1.06636e+06
1.05928e+06
1.05223e+06
1.04521e+06
1.03824e+06
1.03129e+06
1.02437e+06
1.01748e+06
1.01062e+06
1.00378e+06
996976
990194
983438
976709
970008
963336
956692
950076
943488
936928
930397
923892
917412
910952
904511
898084
891673
885277
878898
872537
866193
859872
853577
847309
841070
834861
828681
822526
816396
810288
804199
798125
792066
786022
779995
773988
768005
762047
756115
750209
744325
738465
732626
726811
721018
715247
709501
703776
698070
692382
686716
681077
675462
669873
664308
658768
653253
647766
642303
636865
631447
626051
620676
615324
609993
604688
599405
594148
588915
583708
578526
573370
568237
563130
558047
552989
547955
542945
537956
532992
528046
523123
518218
513336
508474
503634
498814
494018
489242
484490
479759
475051
470365
465704
461065
456451
451861
447297
442757
438242
433750
429284
424840
420421
416023
411649
407293
402961
398645
394352
390077
385823
381584
377365
373172
368997
364831
360683
356546
352423
348321
344232
340156
336092
332039
327997
323967
319943
315930
311922
307922
303928
299931
295943
291941
287947
283928
279916
275863
271813
267706
263591
259396
255176
250849
246461
241928
237277
232438
227402
222119
216580
210736
1.39828e+06
1.38315e+06
1.36897e+06
1.3557e+06
1.34324e+06
1.33148e+06
1.32031e+06
1.30965e+06
1.29941e+06
1.28953e+06
1.27995e+06
1.27064e+06
1.26155e+06
1.25266e+06
1.24393e+06
1.23535e+06
1.22689e+06
1.21855e+06
1.21032e+06
1.20218e+06
1.19413e+06
1.18616e+06
1.17826e+06
1.17044e+06
1.16268e+06
1.15498e+06
1.14734e+06
1.13975e+06
1.13221e+06
1.12473e+06
1.11729e+06
1.1099e+06
1.10256e+06
1.09526e+06
1.088e+06
1.08078e+06
1.07361e+06
1.06648e+06
1.05938e+06
1.05233e+06
1.04531e+06
1.03833e+06
1.03138e+06
1.02445e+06
1.01756e+06
1.01069e+06
1.00385e+06
997032
990244
983481
976747
970042
963364
956716
950096
943504
936940
930405
923898
917416
910954
904510
898081
891667
885270
878889
872524
866178
859854
853555
847285
841045
834835
828654
822499
816368
810259
804169
798093
792031
785984
779954
773944
767959
762001
756069
750163
744281
738421
732584
726770
720977
715208
709463
703739
698034
692346
686681
681044
675431
669842
664277
658737
653223
647736
642274
636835
631417
626022
620647
615294
609963
604658
599375
594118
588886
583679
578497
573341
568208
563101
558017
552959
547924
542914
537926
532961
528015
523092
518188
513306
508444
503605
498785
493990
489214
484463
479731
475024
470337
465676
461036
456422
451831
447267
442726
438211
433718
429251
424806
420385
415986
411610
407252
402918
398599
394304
390026
385769
381526
377305
373110
368932
364762
360608
356466
352338
348230
344135
340051
335980
331917
327866
323823
319788
315760
311740
307721
303712
299694
295687
291660
287644
283597
279557
275472
271388
267246
263090
258858
254589
250222
245782
241210
236512
231641
226581
221292
215778
209998
1.39999e+06
1.38501e+06