/*--------------------------------*- C++ -*----------------------------------*\
| =========                 |                                                 |
| \\      /  F ield         | OpenFOAM: The Open Source CFD Toolbox           |
|  \\    /   O peration     | Version:  2.4.0                                 |
|   \\  /    A nd           | Web:      www.OpenFOAM.org                      |
|    \\/     M anipulation  |                                                 |
\*---------------------------------------------------------------------------*/
FoamFile
{
    version     2.0;
    format      ascii;
    class       surfaceScalarField;
    location    "0.043";
    object      phi;
}
// * * * * * * * * * * * * * * * * * * * * * * * * * * * * * * * * * * * * * //

dimensions      [0 3 -1 0 0 0 0];

internalField   nonuniform List<scalar> 
34880
(
1.2158e-05
3.42009e-07
1.18568e-05
3.01196e-07
1.157e-05
2.86781e-07
1.12862e-05
2.83841e-07
1.10137e-05
2.72441e-07
1.07572e-05
2.56546e-07
1.05181e-05
2.39102e-07
1.02968e-05
2.21319e-07
1.0093e-05
2.03777e-07
9.90623e-06
1.86799e-07
9.73568e-06
1.70555e-07
9.58056e-06
1.55125e-07
9.44002e-06
1.40544e-07
9.31319e-06
1.26834e-07
9.19917e-06
1.14022e-07
9.09703e-06
1.02142e-07
9.00574e-06
9.1307e-08
8.92378e-06
8.19637e-08
8.84691e-06
7.68675e-08
1.90274e-07
8.65664e-06
1.24955e-05
3.4654e-07
1.24494e-05
3.47222e-07
1.23924e-05
3.43783e-07
1.23212e-05
3.55046e-07
1.22379e-05
3.55749e-07
1.21454e-05
3.4905e-07
1.20461e-05
3.38481e-07
1.19419e-05
3.2552e-07
1.18347e-05
3.10974e-07
1.17261e-05
2.95421e-07
1.16173e-05
2.79275e-07
1.15097e-05
2.62819e-07
1.14039e-05
2.46257e-07
1.1301e-05
2.29753e-07
1.12016e-05
2.13464e-07
1.11062e-05
1.97557e-07
1.10151e-05
1.82362e-07
1.09283e-05
1.68834e-07
1.08406e-05
1.64579e-07
2.35665e-07
1.07952e-05
1.25262e-05
3.20311e-07
1.25337e-05
3.39744e-07
1.25359e-05
3.41554e-07
1.25342e-05
3.56796e-07
1.25274e-05
3.62587e-07
1.25156e-05
3.60793e-07
1.24991e-05
3.55009e-07
1.24779e-05
3.4673e-07
1.24521e-05
3.36724e-07
1.2422e-05
3.25561e-07
1.23876e-05
3.13663e-07
1.23491e-05
3.01315e-07
1.23067e-05
2.8871e-07
1.22605e-05
2.75981e-07
1.22107e-05
2.63232e-07
1.21577e-05
2.50564e-07
1.21018e-05
2.38295e-07
1.20431e-05
2.27524e-07
1.19814e-05
2.26242e-07
2.63188e-07
1.19539e-05
1.25308e-05
2.89482e-07
1.25492e-05
3.2139e-07
1.2564e-05
3.26695e-07
1.2578e-05
3.42837e-07
1.25901e-05
3.50499e-07
1.26002e-05
3.50715e-07
1.26082e-05
3.47041e-07
1.26139e-05
3.40979e-07
1.26174e-05
3.33262e-07
1.26185e-05
3.24441e-07
1.26172e-05
3.14932e-07
1.26135e-05
3.05024e-07
1.26073e-05
2.94916e-07
1.25986e-05
2.84748e-07
1.25872e-05
2.74632e-07
1.25731e-05
2.64671e-07
1.25562e-05
2.55204e-07
1.25364e-05
2.47263e-07
1.25151e-05
2.47531e-07
2.64687e-07
1.25136e-05
1.253e-05
2.59472e-07
1.25513e-05
3.00134e-07
1.25701e-05
3.07887e-07
1.25889e-05
3.23987e-07
1.2607e-05
3.32388e-07
1.26242e-05
3.33597e-07
1.26401e-05
3.3106e-07
1.26549e-05
3.26249e-07
1.26683e-05
3.19861e-07
1.26803e-05
3.12424e-07
1.26909e-05
3.04334e-07
1.27001e-05
2.95872e-07
1.27077e-05
2.87231e-07
1.27139e-05
2.78551e-07
1.27186e-05
2.69942e-07
1.27218e-05
2.61508e-07
1.27234e-05
2.53581e-07
1.27237e-05
2.47e-07
1.27244e-05
2.46812e-07
2.52366e-07
1.27367e-05
1.25277e-05
2.31728e-07
1.25498e-05
2.7806e-07
1.25702e-05
2.87535e-07
1.2591e-05
3.03168e-07
1.26116e-05
3.11804e-07
1.26316e-05
3.1357e-07
1.26509e-05
3.11756e-07
1.26694e-05
3.07786e-07
1.26869e-05
3.0232e-07
1.27035e-05
2.95856e-07
1.27191e-05
2.88773e-07
1.27336e-05
2.81335e-07
1.27471e-05
2.73725e-07
1.27596e-05
2.66076e-07
1.2771e-05
2.58489e-07
1.27815e-05
2.51058e-07
1.2791e-05
2.44075e-07
1.27999e-05
2.38144e-07
1.28099e-05
2.36745e-07
2.34912e-07
1.28274e-05
1.25253e-05
2.06452e-07
1.25474e-05
2.55931e-07
1.25683e-05
2.66602e-07
1.259e-05
2.81509e-07
1.26117e-05
2.90077e-07
1.26332e-05
2.92153e-07
1.26541e-05
2.90836e-07
1.26744e-05
2.87491e-07
1.2694e-05
2.82735e-07
1.27128e-05
2.77038e-07
1.27308e-05
2.70756e-07
1.2748e-05
2.64135e-07
1.27644e-05
2.57347e-07
1.27799e-05
2.50515e-07
1.27947e-05
2.43729e-07
1.28087e-05
2.37066e-07
1.2822e-05
2.3076e-07
1.2835e-05
2.25183e-07
1.28493e-05
2.2243e-07
2.1562e-07
1.28686e-05
1.2523e-05
1.83439e-07
1.25449e-05
2.34081e-07
1.25659e-05
2.4552e-07
1.25879e-05
2.59531e-07
1.26102e-05
2.67827e-07
1.26323e-05
2.70045e-07
1.26541e-05
2.69078e-07
1.26753e-05
2.66221e-07
1.2696e-05
2.62047e-07
1.27161e-05
2.56993e-07
1.27354e-05
2.5139e-07
1.27541e-05
2.45468e-07
1.27721e-05
2.39384e-07
1.27893e-05
2.3325e-07
1.28059e-05
2.27144e-07
1.28219e-05
2.21123e-07
1.28373e-05
2.15355e-07
1.28525e-05
2.09998e-07
1.28689e-05
2.05971e-07
1.95706e-07
1.28888e-05
1.2521e-05
1.62405e-07
1.25425e-05
2.1264e-07
1.25635e-05
2.24478e-07
1.25856e-05
2.37488e-07
1.2608e-05
2.45365e-07
1.26305e-05
2.47609e-07
1.26527e-05
2.46889e-07
1.26745e-05
2.44424e-07
1.26958e-05
2.40743e-07
1.27165e-05
2.36248e-07
1.27367e-05
2.31245e-07
1.27562e-05
2.25944e-07
1.27751e-05
2.20488e-07
1.27934e-05
2.14977e-07
1.2811e-05
2.09475e-07
1.28281e-05
2.0402e-07
1.28448e-05
1.98709e-07
1.28613e-05
1.93507e-07
1.28789e-05
1.88363e-07
1.75672e-07
1.28989e-05
1.25193e-05
1.43074e-07
1.25403e-05
1.91647e-07
1.25613e-05
2.03546e-07
1.25833e-05
2.15491e-07
1.26058e-05
2.2285e-07
1.26283e-05
2.25038e-07
1.26507e-05
2.24493e-07
1.26728e-05
2.22353e-07
1.26945e-05
2.19102e-07
1.27156e-05
2.15107e-07
1.27362e-05
2.10646e-07
1.27562e-05
2.05911e-07
1.27757e-05
2.0103e-07
1.27946e-05
1.9609e-07
1.28129e-05
1.91142e-07
1.28308e-05
1.86201e-07
1.28482e-05
1.81296e-07
1.28655e-05
1.76225e-07
1.28837e-05
1.70145e-07
1.55774e-07
1.29036e-05
1.25179e-05
1.25196e-07
1.25384e-05
1.71097e-07
1.25592e-05
1.82745e-07
1.25811e-05
1.93586e-07
1.26036e-05
2.00354e-07
1.26262e-05
2.0243e-07
1.26487e-05
2.02012e-07
1.26709e-05
2.00152e-07
1.26928e-05
1.97286e-07
1.27141e-05
1.93748e-07
1.2735e-05
1.89789e-07
1.27553e-05
1.8558e-07
1.27751e-05
1.81236e-07
1.27944e-05
1.76829e-07
1.28131e-05
1.72398e-07
1.28314e-05
1.67936e-07
1.28493e-05
1.63404e-07
1.28671e-05
1.5846e-07
1.28856e-05
1.5163e-07
1.36133e-07
1.29052e-05
1.25166e-05
1.08548e-07
1.25368e-05
1.50966e-07
1.25575e-05
1.62077e-07
1.25793e-05
1.71783e-07
1.26017e-05
1.77907e-07
1.26243e-05
1.79831e-07
1.26468e-05
1.79508e-07
1.26691e-05
1.77896e-07
1.2691e-05
1.75386e-07
1.27124e-05
1.72276e-07
1.27334e-05
1.6879e-07
1.2754e-05
1.6508e-07
1.27739e-05
1.61244e-07
1.27934e-05
1.57344e-07
1.28124e-05
1.53404e-07
1.2831e-05
1.49395e-07
1.28492e-05
1.45219e-07
1.28672e-05
1.40413e-07
1.28858e-05
1.33013e-07
1.16827e-07
1.29051e-05
1.25156e-05
9.29347e-08
1.25354e-05
1.3122e-07
1.25559e-05
1.41533e-07
1.25776e-05
1.5008e-07
1.26e-05
1.55518e-07
1.26226e-05
1.5726e-07
1.26451e-05
1.5701e-07
1.26673e-05
1.55626e-07
1.26893e-05
1.53453e-07
1.27108e-05
1.50752e-07
1.27319e-05
1.4772e-07
1.27525e-05
1.44489e-07
1.27726e-05
1.41143e-07
1.27922e-05
1.3773e-07
1.28113e-05
1.34261e-07
1.28301e-05
1.3069e-07
1.28484e-05
1.26859e-07
1.28666e-05
1.22215e-07
1.28852e-05
1.14413e-07
9.78869e-08
1.29042e-05
1.25148e-05
7.81827e-08
1.25342e-05
1.11817e-07
1.25546e-05
1.211e-07
1.25762e-05
1.28468e-07
1.25985e-05
1.33187e-07
1.26211e-05
1.34722e-07
1.26436e-05
1.3453e-07
1.26658e-05
1.3336e-07
1.26878e-05
1.31511e-07
1.27093e-05
1.29207e-07
1.27304e-05
1.26616e-07
1.27511e-05
1.23852e-07
1.27712e-05
1.20983e-07
1.27909e-05
1.18045e-07
1.28101e-05
1.15036e-07
1.28289e-05
1.11892e-07
1.28474e-05
1.08406e-07
1.28657e-05
1.03952e-07
1.28842e-05
9.59076e-08
7.93363e-08
1.29027e-05
1.2514e-05
6.41377e-08
1.25332e-05
9.27153e-08
1.25535e-05
1.00764e-07
1.2575e-05
1.06935e-07
1.25973e-05
1.10907e-07
1.26198e-05
1.12216e-07
1.26423e-05
1.12071e-07
1.26645e-05
1.11106e-07
1.26865e-05
1.09573e-07
1.2708e-05
1.07657e-07
1.27291e-05
1.05501e-07
1.27498e-05
1.03195e-07
1.277e-05
1.00794e-07
1.27897e-05
9.83232e-08
1.2809e-05
9.57667e-08
1.28278e-05
9.30443e-08
1.28463e-05
8.9908e-08
1.28646e-05
8.56804e-08
1.2883e-05
7.75405e-08
6.11745e-08
1.29011e-05
1.25135e-05
5.06599e-08
1.25323e-05
7.38657e-08
1.25526e-05
8.05106e-08
1.25741e-05
8.5468e-08
1.25963e-05
8.86718e-08
1.26188e-05
8.97378e-08
1.26412e-05
8.9631e-08
1.26635e-05
8.88654e-08
1.26854e-05
8.76421e-08
1.27069e-05
8.61106e-08
1.27281e-05
8.43831e-08
1.27487e-05
8.25312e-08
1.27689e-05
8.05946e-08
1.27887e-05
7.85856e-08
1.2808e-05
7.64775e-08
1.28268e-05
7.41757e-08
1.28453e-05
7.13977e-08
1.28636e-05
6.74359e-08
1.28818e-05
5.93379e-08
4.34024e-08
1.28996e-05
1.2513e-05
3.76226e-08
1.25317e-05
5.52206e-08
1.25519e-05
6.03243e-08
1.25733e-05
6.40548e-08
1.25955e-05
6.64727e-08
1.26179e-05
6.72832e-08
1.26404e-05
6.7208e-08
1.26626e-05
6.66365e-08
1.26845e-05
6.57195e-08
1.27061e-05
6.4569e-08
1.27272e-05
6.32676e-08
1.27479e-05
6.18667e-08
1.27681e-05
6.03912e-08
1.27878e-05
5.88418e-08
1.28071e-05
5.71806e-08
1.2826e-05
5.53008e-08
1.28445e-05
5.28935e-08
1.28627e-05
4.92388e-08
1.28807e-05
4.1309e-08
2.6008e-08
1.28981e-05
1.25127e-05
2.49074e-08
1.25312e-05
3.67291e-08
1.25513e-05
4.01884e-08
1.25727e-05
4.26814e-08
1.25949e-05
4.43004e-08
1.26173e-05
4.48458e-08
1.26397e-05
4.47976e-08
1.2662e-05
4.44169e-08
1.26839e-05
4.38039e-08
1.27054e-05
4.30323e-08
1.27265e-05
4.21554e-08
1.27472e-05
4.12041e-08
1.27674e-05
4.01886e-08
1.27872e-05
3.90978e-08
1.28065e-05
3.78837e-08
1.28253e-05
3.64295e-08
1.28438e-05
3.44065e-08
1.2862e-05
3.11014e-08
1.28798e-05
2.34575e-08
8.98432e-09
1.28968e-05
1.25125e-05
1.24038e-08
1.25309e-05
1.83408e-08
1.2551e-05
2.00869e-08
1.25723e-05
2.13351e-08
1.25945e-05
2.21468e-08
1.26169e-05
2.24206e-08
1.26393e-05
2.2396e-08
1.26615e-05
2.22039e-08
1.26835e-05
2.18933e-08
1.2705e-05
2.14994e-08
1.27261e-05
2.10461e-08
1.27468e-05
2.05436e-08
1.2767e-05
1.99873e-08
1.27867e-05
1.93552e-08
1.2806e-05
1.85894e-08
1.28249e-05
1.75651e-08
1.28434e-05
1.59421e-08
1.28614e-05
1.30289e-08
1.28791e-05
5.77859e-09
-7.68145e-09
1.28958e-05
1.25124e-05
4.6683e-12
1.25307e-05
3.48805e-12
1.25508e-05
2.59235e-12
1.25722e-05
2.08627e-12
1.25943e-05
1.78266e-12
1.26167e-05
9.17278e-13
1.26391e-05
-1.35097e-12
1.26613e-05
-5.84955e-12
1.26832e-05
-1.47997e-11
1.27048e-05
-3.12781e-11
1.27259e-05
-6.13632e-11
1.27466e-05
-1.15177e-10
1.27668e-05
-2.11822e-10
1.27865e-05
-3.84676e-10
1.28058e-05
-7.00189e-10
1.28246e-05
-1.28898e-09
1.28431e-05
-2.49707e-09
1.28611e-05
-4.97683e-09
1.28786e-05
-1.17337e-08
-2.39959e-08
1.28949e-05
1.25124e-05
-1.23942e-08
1.25307e-05
-1.83335e-08
1.25508e-05
-2.00814e-08
1.25722e-05
-2.13308e-08
1.25943e-05
-2.21427e-08
1.26167e-05
-2.24184e-08
1.26391e-05
-2.23985e-08
1.26613e-05
-2.22155e-08
1.26832e-05
-2.19227e-08
1.27048e-05
-2.15619e-08
1.27259e-05
-2.11685e-08
1.27466e-05
-2.07733e-08
1.27668e-05
-2.04101e-08
1.27865e-05
-2.01225e-08
1.28058e-05
-1.99853e-08
1.28246e-05
-2.01329e-08
1.2843e-05
-2.091e-08
1.2861e-05
-2.29162e-08
1.28783e-05
-2.90887e-08
-3.99672e-08
1.28943e-05
1.25125e-05
-2.48981e-08
1.25309e-05
-3.67222e-08
1.2551e-05
-4.01832e-08
1.25723e-05
-4.26773e-08
1.25945e-05
-4.42969e-08
1.26169e-05
-4.48439e-08
1.26393e-05
-4.48002e-08
1.26615e-05
-4.44284e-08
1.26835e-05
-4.38331e-08
1.2705e-05
-4.30941e-08
1.27261e-05
-4.22767e-08
1.27468e-05
-4.14317e-08
1.2767e-05
-4.06072e-08
1.27867e-05
-3.98576e-08
1.2806e-05
-3.92647e-08
1.28248e-05
-3.89647e-08
1.28432e-05
-3.9296e-08
1.28611e-05
-4.07904e-08
1.28783e-05
-4.62935e-08
-5.55971e-08
1.28939e-05
1.25127e-05
-3.76131e-08
1.25312e-05
-5.52134e-08
1.25513e-05
-6.03188e-08
1.25727e-05
-6.40504e-08
1.25949e-05
-6.64687e-08
1.26173e-05
-6.72809e-08
1.26397e-05
-6.72103e-08
1.2662e-05
-6.66476e-08
1.26839e-05
-6.57481e-08
1.27054e-05
-6.46298e-08
1.27265e-05
-6.3387e-08
1.27472e-05
-6.2091e-08
1.27674e-05
-6.0804e-08
1.27871e-05
-5.959e-08
1.28064e-05
-5.85379e-08
1.28252e-05
-5.77839e-08
1.28436e-05
-5.76536e-08
1.28614e-05
-5.86002e-08
1.28785e-05
-6.33556e-08
-7.08852e-08
1.28938e-05
1.2513e-05
-5.06509e-08
1.25317e-05
-7.38589e-08
1.25519e-05
-8.05055e-08
1.25733e-05
-8.54638e-08
1.25955e-05
-8.86682e-08
1.26179e-05
-8.97358e-08
1.26404e-05
-8.96333e-08
1.26626e-05
-8.88763e-08
1.26845e-05
-8.767e-08
1.27061e-05
-8.617e-08
1.27272e-05
-8.44999e-08
1.27478e-05
-8.27507e-08
1.2768e-05
-8.09983e-08
1.27878e-05
-7.9317e-08
1.2807e-05
-7.78013e-08
1.28258e-05
-7.65856e-08
1.28442e-05
-7.59796e-08
1.28619e-05
-7.63445e-08
1.28788e-05
-8.02783e-08
-8.58228e-08
1.28938e-05
1.25135e-05
-6.41285e-08
1.25323e-05
-9.27082e-08
1.25526e-05
-1.00759e-07
1.25741e-05
-1.0693e-07
1.25963e-05
-1.10903e-07
1.26188e-05
-1.12213e-07
1.26412e-05
-1.12073e-07
1.26635e-05
-1.11117e-07
1.26854e-05
-1.096e-07
1.27069e-05
-1.07715e-07
1.27281e-05
-1.05614e-07
1.27487e-05
-1.03408e-07
1.27689e-05
-1.01187e-07
1.27886e-05
-9.90341e-08
1.28079e-05
-9.70489e-08
1.28266e-05
-9.53635e-08
1.28449e-05
-9.4266e-08
1.28626e-05
-9.40179e-08
1.28794e-05
-9.70607e-08
-1.00394e-07
1.2894e-05
1.2514e-05
-7.81739e-08
1.25332e-05
-1.11811e-07
1.25535e-05
-1.21095e-07
1.2575e-05
-1.28463e-07
1.25973e-05
-1.33183e-07
1.26198e-05
-1.3472e-07
1.26423e-05
-1.34532e-07
1.26645e-05
-1.3337e-07
1.26865e-05
-1.31537e-07
1.2708e-05
-1.29262e-07
1.27291e-05
-1.26726e-07
1.27498e-05
-1.24058e-07
1.277e-05
-1.21362e-07
1.27897e-05
-1.1873e-07
1.28089e-05
-1.16268e-07
1.28276e-05
-1.14102e-07
1.28459e-05
-1.12498e-07
1.28635e-05
-1.11608e-07
1.28801e-05
-1.13693e-07
-1.14572e-07
1.28943e-05
1.25148e-05
-9.29258e-08
1.25342e-05
-1.31213e-07
1.25546e-05
-1.41528e-07
1.25762e-05
-1.50075e-07
1.25985e-05
-1.55514e-07
1.26211e-05
-1.57257e-07
1.26436e-05
-1.57012e-07
1.26658e-05
-1.55635e-07
1.26878e-05
-1.53477e-07
1.27093e-05
-1.50804e-07
1.27304e-05
-1.47824e-07
1.2751e-05
-1.44686e-07
1.27712e-05
-1.41507e-07
1.27909e-05
-1.38387e-07
1.281e-05
-1.35436e-07
1.28287e-05
-1.32777e-07
1.28469e-05
-1.30648e-07
1.28643e-05
-1.29089e-07
1.28808e-05
-1.30153e-07
-1.28315e-07
1.28945e-05
1.25156e-05
-1.0854e-07
1.25354e-05
-1.5096e-07
1.25559e-05
-1.62072e-07
1.25776e-05
-1.71778e-07
1.26e-05
-1.77903e-07
1.26226e-05
-1.79829e-07
1.26451e-05
-1.79509e-07
1.26673e-05
-1.77904e-07
1.26893e-05
-1.75409e-07
1.27108e-05
-1.72326e-07
1.27319e-05
-1.6889e-07
1.27525e-05
-1.65268e-07
1.27725e-05
-1.61591e-07
1.27921e-05
-1.57968e-07
1.28112e-05
-1.54513e-07
1.28298e-05
-1.51345e-07
1.28478e-05
-1.48673e-07
1.28651e-05
-1.46418e-07
1.28814e-05
-1.46399e-07
-1.41558e-07
1.28946e-05
1.25166e-05
-1.25188e-07
1.25368e-05
-1.71091e-07
1.25575e-05
-1.8274e-07
1.25793e-05
-1.93581e-07
1.26017e-05
-2.00349e-07
1.26243e-05
-2.02427e-07
1.26468e-05
-2.02013e-07
1.26691e-05
-2.00159e-07
1.2691e-05
-1.97307e-07
1.27124e-05
-1.93794e-07
1.27334e-05
-1.89882e-07
1.27539e-05
-1.85757e-07
1.27739e-05
-1.81562e-07
1.27934e-05
-1.77417e-07
1.28123e-05
-1.73437e-07
1.28307e-05
-1.69739e-07
1.28485e-05
-1.66499e-07
1.28656e-05
-1.63525e-07
1.28816e-05
-1.62361e-07
-1.54212e-07
1.28942e-05
1.25179e-05
-1.43067e-07
1.25384e-05
-1.91641e-07
1.25592e-05
-2.03541e-07
1.25811e-05
-2.15487e-07
1.26036e-05
-2.22846e-07
1.26262e-05
-2.25035e-07
1.26487e-05
-2.24493e-07
1.26709e-05
-2.2236e-07
1.26928e-05
-2.19121e-07
1.27141e-05
-2.1515e-07
1.2735e-05
-2.10733e-07
1.27553e-05
-2.06077e-07
1.27751e-05
-2.01336e-07
1.27943e-05
-1.96638e-07
1.2813e-05
-1.92106e-07
1.28311e-05
-1.87848e-07
1.28486e-05
-1.84014e-07
1.28654e-05
-1.80298e-07
1.28809e-05
-1.77927e-07
-1.66144e-07
1.28929e-05
1.25193e-05
-1.62398e-07
1.25403e-05
-2.12634e-07
1.25613e-05
-2.24473e-07
1.25833e-05
-2.37484e-07
1.26058e-05
-2.45361e-07
1.26283e-05
-2.47605e-07
1.26507e-05
-2.46888e-07
1.26728e-05
-2.44429e-07
1.26945e-05
-2.4076e-07
1.27156e-05
-2.36288e-07
1.27362e-05
-2.31325e-07
1.27562e-05
-2.26096e-07
1.27757e-05
-2.2077e-07
1.27945e-05
-2.15483e-07
1.28128e-05
-2.1036e-07
1.28304e-05
-2.05506e-07
1.28474e-05
-2.01041e-07
1.28637e-05
-1.96559e-07
1.28787e-05
-1.92919e-07
-1.77165e-07
1.28897e-05
1.2521e-05
-1.83432e-07
1.25425e-05
-2.34075e-07
1.25635e-05
-2.45516e-07
1.25856e-05
-2.59527e-07
1.2608e-05
-2.67823e-07
1.26305e-05
-2.70041e-07
1.26527e-05
-2.69077e-07
1.26745e-05
-2.66225e-07
1.26958e-05
-2.62062e-07
1.27165e-05
-2.57028e-07
1.27366e-05
-2.51462e-07
1.27562e-05
-2.45607e-07
1.2775e-05
-2.39642e-07
1.27933e-05
-2.33712e-07
1.28108e-05
-2.27945e-07
1.28278e-05
-2.22444e-07
1.2844e-05
-2.17301e-07
1.28595e-05
-2.12024e-07
1.28737e-05
-2.07052e-07
-1.86988e-07
1.28835e-05
1.2523e-05
-2.06445e-07
1.25449e-05
-2.55926e-07
1.25659e-05
-2.66597e-07
1.25879e-05
-2.81504e-07
1.26102e-05
-2.90073e-07
1.26323e-05
-2.92149e-07
1.2654e-05
-2.90835e-07
1.26753e-05
-2.87494e-07
1.2696e-05
-2.82748e-07
1.27161e-05
-2.77069e-07
1.27354e-05
-2.7082e-07
1.27541e-05
-2.6426e-07
1.2772e-05
-2.5758e-07
1.27892e-05
-2.50931e-07
1.28057e-05
-2.44445e-07
1.28215e-05
-2.38222e-07
1.28365e-05
-2.32329e-07
1.28507e-05
-2.26211e-07
1.28635e-05
-2.19843e-07
-1.95158e-07
1.28717e-05
1.25253e-05
-2.31722e-07
1.25474e-05
-2.78055e-07
1.25683e-05
-2.87531e-07
1.259e-05
-3.03164e-07
1.26117e-05
-3.118e-07
1.26332e-05
-3.13566e-07
1.26541e-05
-3.11755e-07
1.26744e-05
-3.07788e-07
1.2694e-05
-3.0233e-07
1.27128e-05
-2.95883e-07
1.27308e-05
-2.88829e-07
1.2748e-05
-2.81444e-07
1.27643e-05
-2.7393e-07
1.27798e-05
-2.66442e-07
1.27945e-05
-2.59117e-07
1.28083e-05
-2.5205e-07
1.28213e-05
-2.4529e-07
1.28333e-05
-2.38243e-07
1.28439e-05
-2.30402e-07
-2.00881e-07
1.28496e-05
1.25277e-05
-2.59467e-07
1.25498e-05
-3.00129e-07
1.25702e-05
-3.07882e-07
1.2591e-05
-3.23983e-07
1.26116e-05
-3.32383e-07
1.26316e-05
-3.33593e-07
1.26509e-05
-3.31058e-07
1.26694e-05
-3.2625e-07
1.26869e-05
-3.1987e-07
1.27035e-05
-3.12446e-07
1.2719e-05
-3.04382e-07
1.27336e-05
-2.95966e-07
1.2747e-05
-2.87407e-07
1.27595e-05
-2.78867e-07
1.27708e-05
-2.70479e-07
1.27811e-05
-2.62339e-07
1.27903e-05
-2.54473e-07
1.27984e-05
-2.46292e-07
1.28048e-05
-2.36851e-07
-2.02561e-07
1.28065e-05
1.253e-05
-2.89477e-07
1.25513e-05
-3.21385e-07
1.25701e-05
-3.26691e-07
1.25889e-05
-3.42834e-07
1.2607e-05
-3.50495e-07
1.26242e-05
-3.50711e-07
1.26401e-05
-3.47039e-07
1.26549e-05
-3.40979e-07
1.26683e-05
-3.33268e-07
1.26803e-05
-3.24459e-07
1.26909e-05
-3.14971e-07
1.27e-05
-3.05102e-07
1.27077e-05
-2.95061e-07
1.27138e-05
-2.8501e-07
1.27184e-05
-2.75075e-07
1.27214e-05
-2.65342e-07
1.27228e-05
-2.55824e-07
1.27225e-05
-2.45968e-07
1.27202e-05
-2.34598e-07
-1.9649e-07
1.27141e-05
1.25308e-05
-3.20307e-07
1.25492e-05
-3.3974e-07
1.2564e-05
-3.41551e-07
1.2578e-05
-3.56793e-07
1.25901e-05
-3.62583e-07
1.26002e-05
-3.60789e-07
1.26081e-05
-3.55007e-07
1.26139e-05
-3.4673e-07
1.26174e-05
-3.36728e-07
1.26185e-05
-3.25574e-07
1.26172e-05
-3.13692e-07
1.26135e-05
-3.01374e-07
1.26072e-05
-2.88823e-07
1.25984e-05
-2.76184e-07
1.25869e-05
-2.63575e-07
1.25726e-05
-2.51076e-07
1.25555e-05
-2.38703e-07
1.25356e-05
-2.26038e-07
1.25131e-05
-2.12104e-07
-1.73891e-07
1.24905e-05
1.25262e-05
-3.46536e-07
1.25337e-05
-3.47219e-07
1.25359e-05
-3.4378e-07
1.25342e-05
-3.55044e-07
1.25274e-05
-3.55745e-07
1.25156e-05
-3.49047e-07
1.24991e-05
-3.38478e-07
1.24779e-05
-3.25519e-07
1.24521e-05
-3.10975e-07
1.2422e-05
-2.95429e-07
1.23876e-05
-2.79294e-07
1.23491e-05
-2.62857e-07
1.23066e-05
-2.46333e-07
1.22603e-05
-2.29889e-07
1.22104e-05
-2.13695e-07
1.21572e-05
-1.97901e-07
1.21012e-05
-1.82623e-07
1.20428e-05
-1.67699e-07
1.19834e-05
-1.52683e-07
-1.23502e-07
1.1933e-05
1.24955e-05
-3.42006e-07
1.24494e-05
-3.01193e-07
1.23924e-05
-2.86779e-07
1.23212e-05
-2.8384e-07
1.22379e-05
-2.72437e-07
1.21454e-05
-2.56543e-07
1.20461e-05
-2.39099e-07
1.19419e-05
-2.21317e-07
1.18347e-05
-2.03776e-07
1.1726e-05
-1.868e-07
1.16173e-05
-1.70562e-07
1.15096e-05
-1.5514e-07
1.14038e-05
-1.40579e-07
1.13009e-05
-1.26897e-07
1.12013e-05
-1.14133e-07
1.11057e-05
-1.02313e-07
1.10145e-05
-9.14437e-08
1.09283e-05
-8.14345e-08
1.08476e-05
-7.19613e-08
-5.89185e-08
1.0783e-05
1.2158e-05
1.18568e-05
1.157e-05
1.12862e-05
1.10137e-05
1.07572e-05
1.05181e-05
1.02968e-05
1.0093e-05
9.90621e-06
9.73565e-06
9.58051e-06
9.43993e-06
9.31303e-06
9.1989e-06
9.09659e-06
9.00514e-06
8.92371e-06
8.85175e-06
8.79283e-06
8.43857e-06
9.50084e-10
2.17128e-07
8.21306e-06
-3.26037e-08
2.58124e-07
7.99232e-06
-8.19345e-08
3.0268e-07
7.82177e-06
-1.25557e-07
2.96111e-07
7.70214e-06
-1.60486e-07
2.80128e-07
7.62584e-06
-1.89724e-07
2.66031e-07
7.58282e-06
-2.13214e-07
2.56237e-07
7.56327e-06
-2.31598e-07
2.51155e-07
7.55938e-06
-2.45944e-07
2.49834e-07
7.56557e-06
-2.57513e-07
2.51332e-07
7.57812e-06
-2.67486e-07
2.54939e-07
7.5947e-06
-2.76843e-07
2.60264e-07
7.61388e-06
-2.86266e-07
2.67088e-07
7.63476e-06
-2.96196e-07
2.75319e-07
7.65674e-06
-3.0697e-07
2.84994e-07
7.67943e-06
-3.18784e-07
2.96099e-07
7.70257e-06
-3.31758e-07
3.08631e-07
7.72595e-06
-3.45969e-07
3.22591e-07
7.74944e-06
-3.6149e-07
3.38e-07
7.77293e-06
-3.78442e-07
3.54959e-07
7.79632e-06
-3.96945e-07
3.73564e-07
7.81956e-06
-4.17074e-07
3.93837e-07
7.84263e-06
-4.38916e-07
4.1585e-07
7.86548e-06
-4.62602e-07
4.3975e-07
7.88809e-06
-4.88222e-07
4.65616e-07
7.91042e-06
-5.15864e-07
4.93542e-07
7.9324e-06
-5.45623e-07
5.23646e-07
7.95397e-06
-5.77557e-07
5.55998e-07
7.97502e-06
-6.11696e-07
5.90647e-07
7.99546e-06
-6.48032e-07
6.276e-07
8.01515e-06
-6.86514e-07
6.66829e-07
8.03396e-06
-7.27041e-07
7.08243e-07
8.05172e-06
-7.69462e-07
7.51707e-07
8.06828e-06
-8.13581e-07
7.97034e-07
8.08345e-06
-8.59159e-07
8.43997e-07
8.09705e-06
-9.05921e-07
8.92327e-07
8.10889e-06
-9.5355e-07
9.41717e-07
8.11878e-06
-1.0017e-06
9.9182e-07
8.12652e-06
-1.04998e-06
1.04225e-06
8.13191e-06
-1.09798e-06
1.09259e-06
8.13478e-06
-1.14524e-06
1.14238e-06
8.13495e-06
-1.1913e-06
1.19114e-06
8.13227e-06
-1.23568e-06
1.23836e-06
8.12662e-06
-1.27787e-06
1.28353e-06
8.1179e-06
-1.31739e-06
1.32612e-06
8.10603e-06
-1.35375e-06
1.36563e-06
8.09098e-06
-1.38649e-06
1.40155e-06
8.07276e-06
-1.41518e-06
1.43341e-06
8.05143e-06
-1.43942e-06
1.46076e-06
8.02708e-06
-1.45884e-06
1.4832e-06
7.99988e-06
-1.47316e-06
1.50037e-06
7.97004e-06
-1.4821e-06
1.51195e-06
7.93783e-06
-1.48546e-06
1.51768e-06
7.90356e-06
-1.48308e-06
1.51735e-06
7.86763e-06
-1.47487e-06
1.51081e-06
7.83045e-06
-1.46075e-06
1.49793e-06
7.79251e-06
-1.44073e-06
1.47867e-06
7.75428e-06
-1.41482e-06
1.45304e-06
7.71629e-06
-1.38311e-06
1.4211e-06
7.67903e-06
-1.34572e-06
1.38297e-06
7.643e-06
-1.30282e-06
1.33884e-06
7.60863e-06
-1.25463e-06
1.28899e-06
7.57632e-06
-1.20145e-06
1.23375e-06
7.54638e-06
-1.14362e-06
1.17354e-06
7.51906e-06
-1.08157e-06
1.10887e-06
7.49454e-06
-1.01577e-06
1.04029e-06
7.47289e-06
-9.46794e-07
9.68429e-07
7.45414e-06
-8.75238e-07
8.93977e-07
7.43823e-06
-8.01763e-07
8.1766e-07
7.42506e-06
-7.27067e-07
7.40225e-07
7.41448e-06
-6.51875e-07
6.62444e-07
7.40631e-06
-5.76928e-07
5.85087e-07
7.40036e-06
-5.02971e-07
5.08917e-07
7.39641e-06
-4.30727e-07
4.34663e-07
7.39428e-06
-3.60885e-07
3.63013e-07
7.39375e-06
-2.94078e-07
2.94592e-07
7.39465e-06
-2.30873e-07
2.2996e-07
7.39681e-06
-1.71764e-07
1.69596e-07
7.40006e-06
-1.17161e-07
1.13903e-07
7.40424e-06
-6.74107e-08
6.32197e-08
7.40921e-06
-2.28077e-08
1.7825e-08
7.41487e-06
1.65559e-08
-2.22296e-08
7.42112e-06
5.0728e-08
-5.69877e-08
7.42783e-06
7.96947e-08
-8.64157e-08
7.4349e-06
1.03401e-07
-1.10473e-07
7.44222e-06
1.21813e-07
-1.29143e-07
7.44972e-06
1.34928e-07
-1.42438e-07
7.45733e-06
1.4278e-07
-1.50404e-07
7.465e-06
1.45436e-07
-1.53117e-07
7.47269e-06
1.42992e-07
-1.50684e-07
7.48034e-06
1.35577e-07
-1.43243e-07
7.48794e-06
1.23344e-07
-1.30952e-07
7.49546e-06
1.06474e-07
-1.14e-07
7.50287e-06
8.51713e-08
-9.25942e-08
7.51017e-06
5.96626e-08
-6.69688e-08
7.51733e-06
3.01883e-08
-3.73556e-08
7.5243e-06
-2.93899e-09
-4.04046e-09
7.53106e-06
-3.93958e-08
3.26303e-08
7.53762e-06
-7.89661e-08
7.23939e-08
7.54401e-06
-1.21477e-07
1.1509e-07
7.55021e-06
-1.66751e-07
1.60538e-07
7.55625e-06
-2.14602e-07
2.08557e-07
7.56213e-06
-2.6484e-07
2.58956e-07
7.56786e-06
-3.17273e-07
3.11543e-07
7.57344e-06
-3.71702e-07
3.66115e-07
7.57888e-06
-4.27926e-07
4.22478e-07
7.5842e-06
-4.85746e-07
4.80424e-07
7.5894e-06
-5.44961e-07
5.39757e-07
7.59449e-06
-6.05374e-07
6.00273e-07
7.5995e-06
-6.66788e-07
6.61781e-07
7.60442e-06
-7.29013e-07
7.24084e-07
7.60929e-06
-7.91862e-07
7.86999e-07
7.6141e-06
-8.55154e-07
8.50336e-07
7.61889e-06
-9.18709e-07
9.13926e-07
7.62365e-06
-9.82358e-07
9.7759e-07
7.62842e-06
-1.04593e-06
1.04117e-06
7.63321e-06
-1.10928e-06
1.10449e-06
7.63803e-06
-1.17223e-06
1.16742e-06
7.6429e-06
-1.23465e-06
1.22978e-06
7.64784e-06
-1.29638e-06
1.29145e-06
7.65286e-06
-1.35729e-06
1.35227e-06
7.65798e-06
-1.41723e-06
1.41212e-06
7.66321e-06
-1.47609e-06
1.47085e-06
7.66858e-06
-1.53371e-06
1.52835e-06
7.67408e-06
-1.58999e-06
1.58449e-06
7.67974e-06
-1.64479e-06
1.63913e-06
7.68557e-06
-1.698e-06
1.69217e-06
7.69158e-06
-1.74949e-06
1.74349e-06
7.69777e-06
-1.79914e-06
1.79295e-06
7.70416e-06
-1.84683e-06
1.84045e-06
7.71076e-06
-1.89245e-06
1.88587e-06
7.71756e-06
-1.93588e-06
1.92909e-06
7.72457e-06
-1.977e-06
1.97e-06
7.73179e-06
-2.01568e-06
2.00847e-06
7.73922e-06
-2.05181e-06
2.04439e-06
7.74687e-06
-2.08526e-06
2.07763e-06
7.75472e-06
-2.11591e-06
2.10807e-06
7.76277e-06
-2.14363e-06
2.13559e-06
7.771e-06
-2.16829e-06
2.16006e-06
7.77942e-06
-2.18976e-06
2.18136e-06
7.788e-06
-2.2079e-06
2.19934e-06
7.79673e-06
-2.22259e-06
2.21387e-06
7.80559e-06
-2.23367e-06
2.22483e-06
7.81455e-06
-2.24101e-06
2.23206e-06
7.8236e-06
-2.24447e-06
2.23544e-06
7.83271e-06
-2.2439e-06
2.23481e-06
7.84184e-06
-2.23915e-06
2.23004e-06
7.85096e-06
-2.23008e-06
2.22097e-06
7.86004e-06
-2.21653e-06
2.20746e-06
7.86905e-06
-2.19834e-06
2.18936e-06
7.87793e-06
-2.17538e-06
2.16651e-06
7.88665e-06
-2.14747e-06
2.13877e-06
7.89516e-06
-2.11447e-06
2.10598e-06
7.90341e-06
-2.07621e-06
2.06798e-06
7.91135e-06
-2.03254e-06
2.02462e-06
7.91892e-06
-1.98329e-06
1.97574e-06
7.92608e-06
-1.92831e-06
1.92117e-06
7.93276e-06
-1.86743e-06
1.86077e-06
7.93891e-06
-1.80048e-06
1.79436e-06
7.94445e-06
-1.72729e-06
1.72177e-06
7.94934e-06
-1.6477e-06
1.64284e-06
7.95349e-06
-1.56152e-06
1.5574e-06
7.95684e-06
-1.46858e-06
1.46525e-06
7.95933e-06
-1.36869e-06
1.36623e-06
7.96087e-06
-1.26165e-06
1.26013e-06
7.96141e-06
-1.14727e-06
1.14676e-06
7.96085e-06
-1.02533e-06
1.02591e-06
7.95913e-06
-8.9561e-07
8.97355e-07
7.95617e-06
-7.57879e-07
7.60867e-07
7.95189e-06
-6.11885e-07
6.1619e-07
7.94621e-06
-4.57358e-07
4.63062e-07
7.93904e-06
-2.94003e-07
3.01182e-07
7.93033e-06
-1.21509e-07
1.30246e-07
7.91994e-06
6.07295e-08
-5.03257e-08
7.90776e-06
2.53597e-07
-2.41401e-07
7.89364e-06
4.57928e-07
-4.43811e-07
7.87746e-06
6.74656e-07
-6.58465e-07
7.85904e-06
9.04813e-07
-8.86389e-07
7.8382e-06
1.14957e-06
-1.12872e-06
7.81473e-06
1.41026e-06
-1.38679e-06
7.7884e-06
1.68843e-06
-1.66209e-06
7.75894e-06
1.98589e-06
-1.95643e-06
7.72605e-06
2.30481e-06
-2.27192e-06
7.68937e-06
2.6478e-06
-2.61113e-06
7.64852e-06
3.01806e-06
-2.97719e-06
7.603e-06
3.41957e-06
-3.37404e-06
7.55226e-06
3.85738e-06
-3.80664e-06
7.49564e-06
4.33804e-06
-4.28141e-06
7.43235e-06
4.87015e-06
-4.80684e-06
7.36137e-06
5.46536e-06
-5.39437e-06
7.28144e-06
6.13984e-06
-6.0599e-06
7.19081e-06
6.91662e-06
-6.82597e-06
7.08683e-06
7.82887e-06
-7.72486e-06
6.96514e-06
8.92347e-06
-8.80177e-06
6.81794e-06
1.02618e-05
-1.01146e-05
6.6334e-06
1.19159e-05
-1.17313e-05
6.38834e-06
1.39599e-05
-1.37148e-05
6.0771e-06
1.64811e-05
-1.61698e-05
5.67169e-06
1.96522e-05
-1.92468e-05
2.50684e-05
-2.69375e-05
7.54065e-06
1.07519e-05
4.42265e-08
1.06882e-05
3.106e-08
1.05932e-05
1.31025e-08
1.04766e-05
-8.96155e-09
1.0346e-05
-2.98272e-08
1.02075e-05
-5.12514e-08
1.0068e-05
-7.37754e-08
9.93358e-06
-9.71339e-08
9.80854e-06
-1.20893e-07
9.69562e-06
-1.44598e-07
9.59596e-06
-1.67819e-07
9.50937e-06
-1.90249e-07
9.43484e-06
-2.11734e-07
9.37095e-06
-2.32302e-07
9.31615e-06
-2.52176e-07
9.26904e-06
-2.71666e-07
9.22839e-06
-2.91105e-07
9.19323e-06
-3.10805e-07
9.16278e-06
-3.31042e-07
9.13642e-06
-3.52077e-07
9.11361e-06
-3.74132e-07
9.09391e-06
-3.97371e-07
9.07694e-06
-4.21945e-07
9.06235e-06
-4.48015e-07
9.04985e-06
-4.75713e-07
9.03914e-06
-5.05157e-07
9.02998e-06
-5.36455e-07
9.0221e-06
-5.6968e-07
9.01528e-06
-6.0487e-07
9.00927e-06
-6.42019e-07
9.00384e-06
-6.81076e-07
8.99874e-06
-7.21937e-07
8.99373e-06
-7.6445e-07
8.98858e-06
-8.08416e-07
8.98302e-06
-8.53596e-07
8.97681e-06
-8.99709e-07
8.96971e-06
-9.4644e-07
8.96145e-06
-9.93438e-07
8.9518e-06
-1.04032e-06
8.94051e-06
-1.08668e-06
8.92734e-06
-1.13207e-06
8.91208e-06
-1.17604e-06
8.89453e-06
-1.21812e-06
8.8745e-06
-1.25784e-06
8.85185e-06
-1.29473e-06
8.82645e-06
-1.32834e-06
8.79821e-06
-1.35825e-06
8.76709e-06
-1.38405e-06
8.73308e-06
-1.40539e-06
8.69621e-06
-1.42197e-06
8.6566e-06
-1.43353e-06
8.61438e-06
-1.43987e-06
8.56977e-06
-1.44084e-06
8.52303e-06
-1.43634e-06
8.47451e-06
-1.42634e-06
8.42459e-06
-1.41083e-06
8.37373e-06
-1.38986e-06
8.32241e-06
-1.3635e-06
8.27116e-06
-1.33187e-06
8.22053e-06
-1.29509e-06
8.17105e-06
-1.25334e-06
8.12323e-06
-1.20683e-06
8.07757e-06
-1.15579e-06
8.03447e-06
-1.10053e-06
7.99427e-06
-1.04138e-06
7.95725e-06
-9.78756e-07
7.92357e-06
-9.13121e-07
7.89332e-06
-8.44998e-07
7.86652e-06
-7.74965e-07
7.84309e-06
-7.03648e-07
7.82293e-06
-6.31712e-07
7.80585e-06
-5.59854e-07
7.79166e-06
-4.88786e-07
7.78014e-06
-4.19215e-07
7.77107e-06
-3.51823e-07
7.76423e-06
-2.87243e-07
7.75939e-06
-2.26047e-07
7.75636e-06
-1.68735e-07
7.75492e-06
-1.15728e-07
7.75487e-06
-6.73771e-08
7.75605e-06
-2.39867e-08
7.75826e-06
1.43313e-08
7.76137e-06
4.76141e-08
7.76521e-06
7.58429e-08
7.76966e-06
9.89448e-08
7.7746e-06
1.16869e-07
7.77992e-06
1.29601e-07
7.78554e-06
1.37158e-07
7.79137e-06
1.39598e-07
7.79735e-06
1.37006e-07
7.80342e-06
1.29501e-07
7.80953e-06
1.17228e-07
7.81564e-06
1.0036e-07
7.82171e-06
7.90958e-08
7.82771e-06
5.36541e-08
7.83361e-06
2.42852e-08
7.83935e-06
-8.68322e-09
7.8449e-06
-4.49553e-08
7.85028e-06
-8.43443e-08
7.85547e-06
-1.26674e-07
7.86048e-06
-1.71765e-07
7.86531e-06
-2.19433e-07
7.86996e-06
-2.69489e-07
7.87442e-06
-3.21739e-07
7.8787e-06
-3.75988e-07
7.88281e-06
-4.32035e-07
7.88674e-06
-4.89683e-07
7.89051e-06