/*--------------------------------*- C++ -*----------------------------------*\
| =========                 |                                                 |
| \\      /  F ield         | OpenFOAM: The Open Source CFD Toolbox           |
|  \\    /   O peration     | Version:  2.4.0                                 |
|   \\  /    A nd           | Web:      www.OpenFOAM.org                      |
|    \\/     M anipulation  |                                                 |
\*---------------------------------------------------------------------------*/
FoamFile
{
    version     2.0;
    format      ascii;
    class       volVectorField;
    location    "0.072";
    object      U;
}
// * * * * * * * * * * * * * * * * * * * * * * * * * * * * * * * * * * * * * //

dimensions      [0 1 -1 0 0 0 0];

internalField   nonuniform List<vector> 
4400
(
(5.40453 0.316783 0)
(3.31527 0.0607641 0)
(2.58613 0.00133145 0)
(2.23149 -0.00185991 0)
(2.08535 -0.00161912 0)
(1.99306 -0.000578343 0)
(1.95629 -0.000255761 0)
(1.9071 -0.000225673 0)
(1.87203 0.00559382 0)
(1.62934 -0.0721744 0)
(8.68534 0.857299 0)
(7.54055 0.344388 0)
(6.63472 0.116219 0)
(5.90424 0.0553734 0)
(5.5343 0.0263848 0)
(5.2624 0.0156758 0)
(5.15949 0.0109811 0)
(5.00023 0.00512938 0)
(4.98099 0.0354255 0)
(4.65997 -0.12221 0)
(9.89028 0.937339 0)
(9.99096 0.47662 0)
(9.50254 0.21356 0)
(8.73891 0.129967 0)
(8.29354 0.0742822 0)
(7.89677 0.0456398 0)
(7.76132 0.0317196 0)
(7.50504 0.0153997 0)
(7.4996 0.0587004 0)
(7.23966 -0.117331 0)
(10.1182 0.807347 0)
(11.1129 0.496369 0)
(11.2904 0.26711 0)
(10.8049 0.197072 0)
(10.4791 0.129236 0)
(10.0578 0.0839658 0)
(9.95227 0.0602228 0)
(9.632 0.0327176 0)
(9.60814 0.075912 0)
(9.53005 -0.0922383 0)
(10.0406 0.648014 0)
(11.3144 0.43314 0)
(12.0141 0.24867 0)
(11.9372 0.217724 0)
(11.9105 0.163215 0)
(11.6134 0.11689 0)
(11.6305 0.0870107 0)
(11.3192 0.0586703 0)
(11.2808 0.0790318 0)
(11.3683 -0.0498154 0)
(10.0112 0.518522 0)
(11.2074 0.352515 0)
(12.0886 0.190812 0)
(12.237 0.187702 0)
(12.4776 0.154833 0)
(12.4068 0.120794 0)
(12.6321 0.0966871 0)
(12.4282 0.0785559 0)
(12.4513 0.0830346 0)
(12.5962 -0.0335345 0)
(10.0051 0.403628 0)
(11.1132 0.279447 0)
(12.019 0.135866 0)
(12.2595 0.145181 0)
(12.4636 0.119674 0)
(12.5952 0.0972436 0)
(12.9628 0.0790166 0)
(12.8888 0.0872929 0)
(12.9945 0.0598034 0)
(13.1953 0.0342546 0)
(9.9384 0.291904 0)
(11.1608 0.199166 0)
(11.9609 0.0821077 0)
(12.2439 0.120329 0)
(12.3249 0.0829765 0)
(12.6583 0.0569916 0)
(12.9456 0.0459509 0)
(12.9343 0.0919908 0)
(13.112 0.0340895 0)
(13.345 0.0305994 0)
(9.94156 0.181927 0)
(11.2432 0.10247 0)
(11.8274 0.0533955 0)
(12.1663 0.0882261 0)
(12.4244 0.0424919 0)
(12.6559 0.0158115 0)
(12.7602 0.0382563 0)
(12.9044 0.0685277 0)
(13.2275 0.0107006 0)
(13.3768 -0.0467381 0)
(10.02 0.0613839 0)
(11.1592 0.0258918 0)
(11.7408 0.0253457 0)
(12.221 0.038844 0)
(12.4815 -0.00177776 0)
(12.5519 0.00372299 0)
(12.7044 0.0111092 0)
(12.9722 0.0347968 0)
(13.2284 -0.0251063 0)
(13.2854 -0.0226991 0)
(10.0301 -0.0487928 0)
(11.0774 -0.0526926 0)
(11.8227 -0.0165205 0)
(12.2405 -0.0120479 0)
(12.4203 -0.0259268 0)
(12.6001 -0.0211729 0)
(12.7181 -0.0180341 0)
(12.9519 0.000732958 0)
(13.1888 -0.0408723 0)
(13.295 -0.0311 0)
(9.99653 -0.158762 0)
(11.1323 -0.140187 0)
(11.8951 -0.0569703 0)
(12.1782 -0.0454446 0)
(12.4579 -0.0690631 0)
(12.6328 -0.0473042 0)
(12.6958 -0.0336067 0)
(12.9685 -0.0294901 0)
(13.2284 -0.0735477 0)
(13.369 -0.0729521 0)
(10.0264 -0.272648 0)
(11.1755 -0.227125 0)
(11.9161 -0.0884654 0)
(12.1789 -0.0908206 0)
(12.5092 -0.10702 0)
(12.6079 -0.0635362 0)
(12.7575 -0.0589246 0)
(13.0332 -0.0709446 0)
(13.2348 -0.0968354 0)
(13.312 -0.0943187 0)
(10.0588 -0.393596 0)
(11.177 -0.298672 0)
(11.9692 -0.130153 0)
(12.2218 -0.131785 0)
(12.5467 -0.144275 0)
(12.6013 -0.0909757 0)
(12.8306 -0.0873509 0)
(12.9548 -0.0955098 0)
(13.0921 -0.111132 0)
(13.0444 -0.109589 0)
(10.0464 -0.515027 0)
(11.2347 -0.364911 0)
(12.0279 -0.1833 0)
(12.2681 -0.180582 0)
(12.4674 -0.176222 0)
(12.4219 -0.112451 0)
(12.5544 -0.103188 0)
(12.4574 -0.103507 0)
(12.4877 -0.112314 0)
(12.2939 -0.116889 0)
(10.0678 -0.646542 0)
(11.3175 -0.43914 0)
(11.9695 -0.243637 0)
(11.9822 -0.214401 0)
(11.8708 -0.179348 0)
(11.6267 -0.109372 0)
(11.575 -0.0933739 0)
(11.3159 -0.0868951 0)
(11.263 -0.0965832 0)
(10.9653 -0.0863587 0)
(10.1336 -0.807062 0)
(11.1078 -0.49963 0)
(11.2636 -0.264473 0)
(10.8446 -0.19512 0)
(10.4343 -0.140178 0)
(10.0654 -0.0789231 0)
(9.91324 -0.0648734 0)
(9.60586 -0.0597406 0)
(9.52642 -0.072945 0)
(9.18266 -0.0501843 0)
(9.89746 -0.937075 0)
(9.98533 -0.477903 0)
(9.48759 -0.212545 0)
(8.76705 -0.128595 0)
(8.25543 -0.080981 0)
(7.89825 -0.0425881 0)
(7.7353 -0.0349288 0)
(7.46178 -0.0343217 0)
(7.38584 -0.0459535 0)
(7.03715 -0.0196528 0)
(8.68874 -0.857261 0)
(7.53738 -0.344891 0)
(6.62624 -0.116195 0)
(5.92024 -0.0543144 0)
(5.50931 -0.0295786 0)
(5.2595 -0.0145149 0)
(5.14266 -0.0122091 0)
(4.95342 -0.0144727 0)
(4.88761 -0.0206646 0)
(4.60177 -0.00561007 0)
(5.40502 -0.316748 0)
(3.3149 -0.0607418 0)
(2.58216 -0.00151418 0)
(2.23686 0.00238848 0)
(2.07675 0.000935253 0)
(1.98895 0.000790938 0)
(1.94989 0.000545271 0)
(1.88037 -0.000968645 0)
(1.83713 -0.0018096 0)
(1.71842 0.0123776 0)
(2.84924 -0.0898972 0)
(2.35356 0.399952 0)
(3.27071 0.666685 0)
(4.33205 1.3501 0)
(5.61036 1.2661 0)
(6.84643 0.671651 0)
(7.67628 0.327427 0)
(8.01999 -0.176026 0)
(8.16874 -0.838282 0)
(8.19578 -0.915869 0)
(8.42967 -1.09886 0)
(9.46254 -2.02274 0)
(10.1386 -2.76462 0)
(10.4291 -3.10167 0)
(11.5335 -3.80398 0)
(11.7019 -4.23959 0)
(10.8802 -3.50193 0)
(10.849 -2.56992 0)
(10.3413 -1.85126 0)
(9.89537 -0.354358 0)
(10.6031 0.806915 0)
(10.9316 1.53208 0)
(11.3326 1.3687 0)
(11.7867 0.629713 0)
(11.4919 0.443391 0)
(11.5874 -0.460624 0)
(11.3566 -1.36797 0)
(10.6371 -1.28402 0)
(10.8484 -2.26879 0)
(10.7292 -3.47924 0)
(9.69557 -3.4758 0)
(9.24939 -4.03316 0)
(8.9968 -5.13777 0)
(7.86544 -4.77366 0)
(6.29501 -3.65159 0)
(5.31353 -4.09887 0)
(4.74014 -6.28824 0)
(5.14345 -7.76042 0)
(4.93589 -7.75898 0)
(6.42825 -6.3077 0)
(6.10979 -5.45937 0)
(6.77325 -3.39871 0)
(7.19261 -1.79999 0)
(7.50109 0.065677 0)
(8.15629 2.36126 0)
(8.20207 4.17925 0)
(8.16981 4.88528 0)
(8.22837 5.76821 0)
(9.04334 6.92716 0)
(8.88402 8.15689 0)
(9.2513 8.0406 0)
(7.91764 7.53123 0)
(7.93953 5.75274 0)
(6.61435 5.27457 0)
(7.20481 3.49122 0)
(6.33157 3.80149 0)
(6.95492 1.42738 0)
(6.51469 1.26613 0)
(7.09206 -1.4857 0)
(6.60321 -1.45696 0)
(7.07154 -3.32669 0)
(6.46095 -1.97445 0)
(6.65717 -3.21345 0)
(6.14195 -1.33673 0)
(6.11925 -2.34816 0)
(5.82444 -0.673971 0)
(5.97482 -1.57081 0)
(5.78353 -0.0332141 0)
(5.95481 -1.23821 0)
(5.79943 0.28586 0)
(5.94914 -0.846072 0)
(5.75071 0.366985 0)
(6.02476 -0.701249 0)
(5.74733 0.591808 0)
(5.96759 -0.551085 0)
(5.81068 0.561648 0)
(6.06079 -0.353181 0)
(5.76636 0.715878 0)
(6.01565 -0.240945 0)
(5.85373 0.694677 0)
(6.08749 -0.0440158 0)
(5.79113 0.827342 0)
(6.01778 0.143864 0)
(5.87854 0.784117 0)
(6.03902 0.375896 0)
(5.88696 0.975617 0)
(5.99891 0.61085 0)
(5.94597 1.03957 0)
(6.01983 0.843838 0)
(6.09388 1.3228 0)
(5.93854 1.151 0)
(6.01229 1.60421 0)
(6.00322 1.45753 0)
(5.81345 2.13444 0)
(6.07044 2.00646 0)
(5.92053 2.96973 0)
(6.56321 2.70749 0)
(6.17403 4.43472 0)
(7.17258 4.8233 0)
(4.00777 8.93521 0)
(5.28275 0.0317036 0)
(4.85863 0.482011 0)
(5.12455 0.524663 0)
(5.29555 0.861683 0)
(6.28438 0.712092 0)
(7.34469 0.198458 0)
(8.08361 0.0700677 0)
(8.69975 -0.277319 0)
(9.07197 -0.955818 0)
(9.21776 -1.14663 0)
(9.80402 -1.38237 0)
(11.1553 -2.35916 0)
(11.7119 -3.09417 0)
(11.82 -3.22886 0)
(12.5986 -3.84969 0)
(12.5328 -4.1478 0)
(11.6391 -3.25998 0)
(11.5533 -2.38268 0)
(11.0698 -1.70287 0)
(10.438 -0.458562 0)
(11.0213 0.611073 0)
(11.3102 1.445 0)
(11.7073 1.27894 0)
(12.0652 0.582832 0)
(11.6506 0.511846 0)
(11.7274 -0.359649 0)
(11.4797 -1.21246 0)
(10.6611 -1.23299 0)
(10.7922 -2.22998 0)
(10.6532 -3.20443 0)
(9.68043 -3.19211 0)
(9.30935 -3.83972 0)
(8.95679 -4.79255 0)
(7.65929 -4.18559 0)
(6.05176 -3.0564 0)
(4.96366 -3.7893 0)
(4.30998 -6.21196 0)
(4.5132 -7.8354 0)
(4.33894 -8.00438 0)
(5.80836 -6.53432 0)
(5.21509 -5.63141 0)
(5.88775 -3.54723 0)
(6.39722 -2.01154 0)
(6.6042 0.00519583 0)
(7.2715 2.20827 0)
(7.36069 4.08894 0)
(7.51469 4.80177 0)
(7.5292 5.68705 0)
(8.53401 6.74572 0)
(8.46092 8.10924 0)
(9.14122 8.13455 0)
(8.09912 7.8402 0)
(8.241 6.01177 0)
(6.74062 5.49082 0)
(7.16493 3.43446 0)
(6.50393 3.80301 0)
(7.25257 1.32619 0)
(6.97989 1.24313 0)
(7.51343 -1.53962 0)
(7.08721 -1.41719 0)
(7.30241 -3.36257 0)
(6.71679 -1.85652 0)
(6.80304 -3.26164 0)
(6.41399 -1.17536 0)
(6.33792 -2.34131 0)
(5.90746 -0.478599 0)
(6.0182 -1.65432 0)
(5.67186 0.136664 0)
(5.77158 -1.37511 0)
(5.6395 0.460703 0)
(5.7868 -1.02543 0)
(5.52897 0.540052 0)
(5.86668 -0.892864 0)
(5.60027 0.764094 0)
(5.89082 -0.794329 0)
(5.64994 0.726795 0)
(6.08388 -0.572517 0)
(5.70506 0.8776 0)
(6.11491 -0.518297 0)
(5.8691 0.867711 0)
(6.27437 -0.266143 0)
(5.92906 1.01304 0)
(6.21804 -0.140691 0)
(6.11591 0.997373 0)
(6.23232 0.154478 0)
(6.1347 1.18998 0)
(6.03611 0.327247 0)
(6.1729 1.28147 0)
(6.01931 0.62 0)
(6.08765 1.52763 0)
(6.01075 0.912723 0)
(6.13791 1.82064 0)
(6.22705 1.29734 0)
(6.02752 2.40381 0)
(6.43871 1.79265 0)
(5.94473 3.41879 0)
(6.42775 2.67887 0)
(4.9596 4.81136 0)
(8.6287 4.0836 0)
(6.46926 9.32595 0)
(7.47116 -0.0130424 0)
(7.27203 0.443382 0)
(7.485 0.504774 0)
(7.35818 0.668712 0)
(8.06176 0.463405 0)
(8.87972 -0.010673 0)
(9.29822 -0.134069 0)
(10.0764 -0.499879 0)
(10.6437 -1.09899 0)
(10.9746 -1.36348 0)
(11.5062 -1.71064 0)
(12.6411 -2.62583 0)
(12.9495 -3.3664 0)
(12.7525 -3.40326 0)
(13.4223 -3.79065 0)
(13.0011 -4.01342 0)
(12.0026 -3.08682 0)
(11.7938 -2.21983 0)
(11.2833 -1.56776 0)
(10.8403 -0.483341 0)
(11.2675 0.482689 0)
(11.3716 1.37033 0)
(11.8268 1.18394 0)
(12.1716 0.584127 0)
(11.6336 0.567955 0)
(11.7643 -0.261966 0)
(11.4816 -1.02057 0)
(10.6768 -1.13825 0)
(10.7776 -2.15188 0)
(10.5256 -2.98538 0)
(9.62072 -2.93586 0)
(9.30738 -3.66631 0)
(8.85523 -4.42228 0)
(7.38507 -3.58554 0)
(5.68303 -2.49744 0)
(4.60666 -3.51095 0)
(3.83566 -6.104 0)
(3.84454 -7.90741 0)
(3.76867 -8.08014 0)
(4.91146 -6.6866 0)
(3.97047 -5.71849 0)
(4.90666 -3.70838 0)
(5.3209 -2.24404 0)
(5.73319 -0.0553733 0)
(6.26912 2.0356 0)
(6.45192 4.0094 0)
(6.72804 4.64082 0)
(6.85464 5.56485 0)
(7.94528 6.50256 0)
(7.83366 7.94609 0)
(8.69506 8.08376 0)
(7.88005 8.05576 0)
(8.37369 6.25823 0)
(7.14729 5.84148 0)
(7.59143 3.59497 0)
(6.9615 3.87927 0)
(7.60386 1.28789 0)
(7.47398 1.18687 0)
(7.90113 -1.53823 0)
(7.50217 -1.33235 0)
(7.52644 -3.2667 0)
(6.9438 -1.65734 0)
(6.74645 -3.24949 0)
(6.46719 -1.03259 0)
(6.38114 -2.3619 0)
(6.05387 -0.373291 0)
(6.24002 -1.70511 0)
(5.81126 0.2878 0)
(5.98124 -1.47828 0)
(5.73321 0.570618 0)
(5.92065 -1.10264 0)
(5.5614 0.661215 0)
(5.96076 -1.0477 0)
(5.57367 0.926724 0)
(5.96525 -0.942724 0)
(5.57392 0.859269 0)
(6.15737 -0.762145 0)
(5.59194 1.07785 0)
(6.23701 -0.740094 0)
(5.76903 1.01098 0)
(6.51763 -0.494671 0)
(5.81478 1.22359 0)
(6.66576 -0.381442 0)
(6.14332 1.1549 0)
(6.89746 -0.0804346 0)
(6.23917 1.42243 0)
(6.98698 0.170354 0)
(6.37587 1.4482 0)
(6.9863 0.467466 0)
(6.29292 1.75889 0)
(6.77027 0.769211 0)
(6.0519 1.96178 0)
(6.5629 1.00392 0)
(6.10589 2.42471 0)
(7.19741 1.30571 0)
(6.27924 3.34785 0)
(8.85521 2.43691 0)
(5.66708 5.16584 0)
(9.37124 3.45787 0)
(7.09681 9.54188 0)
(9.43351 -0.0152848 0)
(9.34243 0.374486 0)
(9.65995 0.489633 0)
(9.49953 0.554639 0)
(10.0684 0.21762 0)
(10.7063 -0.237602 0)
(11.014 -0.311443 0)
(11.8526 -0.740888 0)
(12.1929 -1.2806 0)
(12.5533 -1.5867 0)
(13.0976 -2.01512 0)
(13.7397 -2.75445 0)
(13.9917 -3.37256 0)
(13.5159 -3.43341 0)
(13.8919 -3.64894 0)
(13.33 -3.68547 0)
(12.2881 -2.80529 0)
(12.1474 -1.97725 0)
(11.4615 -1.37166 0)
(10.9923 -0.500151 0)
(11.2183 0.417131 0)
(11.1679 1.29352 0)
(11.7246 1.063 0)
(11.9087 0.589135 0)
(11.3984 0.626592 0)
(11.6196 -0.145574 0)
(11.3099 -0.792398 0)
(10.6972 -1.0386 0)
(10.8137 -2.0789 0)
(10.3618 -2.66176 0)
(9.46839 -2.65998 0)
(9.18075 -3.53549 0)
(8.70578 -4.07279 0)
(7.16451 -2.94412 0)
(5.4672 -1.90631 0)
(4.29619 -3.12674 0)
(3.4152 -5.91598 0)
(3.1558 -7.89917 0)
(3.14607 -8.05188 0)
(3.89132 -6.72103 0)
(2.80291 -5.7155 0)
(3.90663 -3.85817 0)
(4.23112 -2.5413 0)
(4.6751 -0.0470391 0)
(5.18108 1.86255 0)
(5.4934 3.8572 0)
(5.98356 4.44363 0)
(6.05441 5.41464 0)
(7.36717 6.30121 0)
(7.35872 7.79909 0)
(8.45326 7.89654 0)
(7.76136 8.08872 0)
(8.4381 6.26817 0)
(7.44754 6.01772 0)
(8.05195 3.54146 0)
(7.6047 3.89645 0)
(7.89461 1.22879 0)
(7.90648 1.12875 0)
(8.20259 -1.58756 0)
(7.87447 -1.24722 0)
(7.76691 -3.21516 0)
(7.23654 -1.43496 0)
(6.84456 -3.13997 0)
(6.48137 -0.821706 0)
(6.25111 -2.33598 0)
(5.86557 -0.205618 0)
(6.10639 -1.78784 0)
(5.68605 0.478298 0)
(5.84822 -1.62198 0)
(5.64238 0.719797 0)
(5.92997 -1.2433 0)
(5.40924 0.815471 0)
(6.00703 -1.24143 0)
(5.50043 1.09183 0)
(6.0188 -1.14492 0)
(5.40455 1.02046 0)
(6.26549 -0.987228 0)
(5.46718 1.26755 0)
(6.31852 -1.02625 0)
(5.54746 1.20443 0)
(6.67923 -0.765103 0)
(5.60424 1.43855 0)
(6.86333 -0.788915 0)
(5.9085 1.38104 0)
(7.32565 -0.430433 0)
(6.10233 1.65491 0)
(7.62003 -0.285478 0)
(6.5832 1.73145 0)
(7.97241 0.146971 0)
(6.78803 2.06613 0)
(7.99444 0.514454 0)
(6.74394 2.46392 0)
(7.52789 0.901364 0)
(6.04399 2.93198 0)
(7.30938 1.13091 0)
(4.91507 3.58865 0)
(8.93777 1.63315 0)
(5.8406 5.20665 0)
(11.4468 2.19528 0)
(8.88198 8.70206 0)
(11.1887 0.00891755 0)
(11.0758 0.290378 0)
(11.3841 0.383356 0)
(11.249 0.432619 0)
(11.8834 0.0405199 0)
(12.3526 -0.394364 0)
(12.5081 -0.482517 0)
(13.4168 -0.967058 0)
(13.5472 -1.37441 0)
(13.7176 -1.73233 0)
(14.2726 -2.2324 0)
(14.3546 -2.81815 0)
(14.4245 -3.41082 0)
(13.9478 -3.44061 0)
(13.9575 -3.49165 0)
(13.4053 -3.40331 0)
(12.3126 -2.61353 0)
(12.2883 -1.83805 0)
(11.7561 -1.2049 0)
(11.3516 -0.424209 0)
(11.2765 0.480351 0)
(10.967 1.24856 0)
(11.399 0.9777 0)
(11.3394 0.656857 0)
(11.0172 0.631641 0)
(11.366 -0.110441 0)
(11.0824 -0.59836 0)
(10.7128 -0.999268 0)
(10.7438 -1.97094 0)
(10.0133 -2.36866 0)
(9.21827 -2.44548 0)
(9.21372 -3.33275 0)
(8.58351 -3.62809 0)
(6.96704 -2.29395 0)
(5.23432 -1.27033 0)
(3.97931 -2.72773 0)
(3.02718 -5.67295 0)
(2.50184 -7.84226 0)
(2.48244 -8.03348 0)
(3.00715 -6.67107 0)
(2.03166 -5.69852 0)
(3.16653 -4.00264 0)
(3.01424 -2.78714 0)
(3.57189 -0.109611 0)
(4.11631 1.67858 0)
(4.28809 3.69732 0)
(5.15106 4.16004 0)
(5.22763 5.20927 0)
(6.69391 5.93841 0)
(6.62735 7.58673 0)
(7.89228 7.66628 0)
(7.47973 8.11468 0)
(8.18247 6.21788 0)
(7.62789 6.09719 0)
(8.00051 3.40127 0)
(8.00612 3.90536 0)
(8.14155 1.2442 0)
(8.28412 1.08006 0)
(8.46242 -1.59147 0)
(8.23685 -1.12563 0)
(7.92101 -3.1144 0)
(7.55056 -1.23466 0)
(7.11114 -3.03702 0)
(6.7443 -0.657787 0)
(6.47388 -2.24952 0)
(6.06344 -0.0970177 0)
(6.08875 -1.81694 0)
(5.80588 0.632057 0)
(5.73219 -1.70457 0)
(5.67818 0.819833 0)
(5.80618 -1.28315 0)
(5.41605 0.928777 0)
(5.7876 -1.38614 0)
(5.50731 1.2454 0)
(5.78513 -1.26283 0)
(5.34287 1.12614 0)
(6.01247 -1.1646 0)
(5.41963 1.45168 0)
(6.0398 -1.22442 0)
(5.40751 1.33122 0)
(6.42432 -0.999628 0)
(5.49214 1.64838 0)
(6.63128 -1.08615 0)
(5.62518 1.53731 0)
(7.28589 -0.791946 0)
(5.84839 1.89001 0)
(7.93649 -0.786617 0)
(6.21927 1.84731 0)
(9.13566 -0.421516 0)
(6.74049 2.26084 0)
(10.3943 -0.029391 0)
(7.05832 2.52375 0)
(11.7162 0.572333 0)
(7.11002 3.10849 0)
(12.1673 1.35728 0)
(5.73454 3.9405 0)
(11.0617 1.611 0)
(5.22317 5.7618 0)
(9.4438 1.24852 0)
(9.01407 8.13884 0)
(12.4751 -0.000212238 0)
(12.5289 0.236223 0)
(12.7906 0.331141 0)
(12.5709 0.302763 0)
(13.1359 -0.173931 0)
(13.486 -0.526011 0)
(13.6494 -0.586802 0)
(14.3577 -1.13417 0)
(14.3697 -1.40712 0)
(14.4013 -1.80372 0)
(14.7786 -2.37148 0)
(14.6067 -2.74523 0)
(14.5154 -3.32647 0)
(14.0907 -3.3316 0)
(13.7899 -3.25055 0)
(13.4411 -3.11239 0)
(12.6332 -2.3761 0)
(12.5744 -1.67801 0)
(12.0612 -1.06205 0)
(11.5629 -0.337799 0)
(11.2635 0.610875 0)
(10.9624 1.32367 0)
(11.3314 1.03312 0)
(11.0957 0.717758 0)
(10.8537 0.53137 0)
(11.0192 -0.06293 0)
(10.7112 -0.457806 0)
(10.5597 -0.989384 0)
(10.4764 -1.79243 0)
(9.59742 -2.02989 0)
(9.07303 -2.33348 0)
(9.23094 -3.23837 0)
(8.54242 -3.18741 0)
(6.70809 -1.58755 0)
(4.91264 -0.679707 0)
(3.6692 -2.32487 0)
(2.70437 -5.37395 0)
(1.8982 -7.74042 0)
(1.8239 -8.07343 0)
(2.27202 -6.6303 0)
(1.54636 -5.65292 0)
(2.45456 -4.11459 0)
(1.83637 -2.94444 0)
(2.47882 -0.101252 0)
(2.78749 1.42049 0)
(3.30353 3.4631 0)
(4.35513 3.83128 0)
(4.34167 5.05365 0)
(5.9877 5.66439 0)
(6.16972 7.34924 0)
(7.39095 7.37496 0)
(7.23751 8.0254 0)
(7.90285 6.1147 0)
(7.8202 6.15601 0)
(7.94118 3.30702 0)
(7.97497 3.87357 0)
(8.25155 1.13186 0)
(8.59714 1.01187 0)
(8.65634 -1.61145 0)
(8.44572 -0.973037 0)
(7.91516 -2.99793 0)
(7.50992 -1.00986 0)
(6.96643 -2.94369 0)
(6.62378 -0.460509 0)
(6.46895 -2.23116 0)
(6.01882 0.0979773 0)
(6.13095 -1.91107 0)
(5.76605 0.814273 0)
(5.89002 -1.80757 0)
(5.57557 0.92849 0)
(5.96867 -1.40084 0)
(5.38466 1.10392 0)
(5.86426 -1.59066 0)
(5.46449 1.39306 0)
(5.92928 -1.39702 0)
(5.24335 1.28282 0)
(6.07266 -1.39512 0)
(5.35891 1.64507 0)
(6.08493 -1.41841 0)
(5.22958 1.50344 0)
(6.40594 -1.25968 0)
(5.30183 1.88781 0)
(6.54114 -1.32011 0)
(5.20221 1.78497 0)
(7.05185 -1.0889 0)
(5.32576 2.17541 0)
(7.58228 -1.02731 0)
(5.07801 2.21012 0)
(8.63775 -0.849623 0)
(5.36887 2.55938 0)
(10.1738 -0.477479 0)
(5.46769 2.81582 0)
(12.1556 -0.172768 0)
(6.53625 3.2453 0)
(14.0175 0.505472 0)
(7.70373 4.19508 0)
(14.1752 0.875852 0)
(8.61025 5.88595 0)
(11.5079 1.44152 0)
(8.96492 7.19143 0)
(13.1408 -0.082354 0)
(13.3384 0.0632493 0)
(13.5897 0.193956 0)
(13.5808 0.201665 0)
(13.986 -0.28217 0)
(14.04 -0.643766 0)
(14.2809 -0.697001 0)
(14.5643 -1.23279 0)
(14.4412 -1.4658 0)
(14.5757 -1.85628 0)
(14.6623 -2.42891 0)
(14.4549 -2.67009 0)
(14.324 -3.26788 0)
(13.9569 -3.23649 0)
(13.6413 -3.04417 0)
(13.4837 -2.96081 0)
(12.8973 -2.28948 0)
(12.766 -1.64325 0)
(12.4564 -0.959263 0)
(11.9162 -0.110572 0)
(11.4356 0.764055 0)
(11.3162 1.26631 0)
(11.4779 1.06911 0)
(11.0192 0.833641 0)
(10.7502 0.552018 0)
(10.7467 0.0300598 0)
(10.4855 -0.387812 0)
(10.3839 -1.00111 0)
(9.96994 -1.63481 0)
(9.26499 -1.80953 0)
(9.17026 -2.27285 0)
(9.37966 -3.08656 0)
(8.48434 -2.66345 0)
(6.50042 -0.853795 0)
(4.66961 -0.0477354 0)
(3.47852 -1.86503 0)
(2.40426 -4.99291 0)
(1.35205 -7.58039 0)
(1.12953 -8.06169 0)
(1.50668 -6.64508 0)
(1.04749 -5.63711 0)
(1.67947 -4.14935 0)
(0.684352 -2.90657 0)
(1.32323 -0.148358 0)
(1.67247 1.22614 0)
(1.96976 3.21079 0)
(3.4611 3.38251 0)
(3.66709 4.81475 0)
(5.16167 5.127 0)
(5.44265 7.11606 0)
(6.7393 7.02174 0)
(6.87896 7.8994 0)
(7.46374 5.97842 0)
(7.69517 6.20096 0)
(7.82327 3.27735 0)
(8.25335 3.8858 0)
(8.27736 1.05981 0)
(8.99435 0.929797 0)
(8.71266 -1.55906 0)
(8.61202 -0.824264 0)
(7.87331 -2.80214 0)
(7.62216 -0.766068 0)
(6.84676 -2.76695 0)
(6.70159 -0.293312 0)
(6.25004 -2.14582 0)
(6.08194 0.220866 0)
(5.88151 -1.90636 0)
(5.83075 0.920533 0)
(5.69062 -1.83417 0)
(5.6081 1.00593 0)
(5.69335 -1.46392 0)
(5.47039 1.20349 0)
(5.5978 -1.70929 0)
(5.47014 1.48868 0)
(5.70917 -1.4884 0)
(5.27252 1.3808 0)
(5.77392 -1.57111 0)
(5.38201 1.77516 0)
(5.86498 -1.5677 0)
(5.21872 1.59831 0)
(6.09986 -1.45685 0)
(5.352 2.00127 0)
(6.23669 -1.524 0)
(5.2155 1.83277 0)
(6.55591 -1.33643 0)
(5.41407 2.22905 0)
(6.77684 -1.23689 0)
(5.0987 2.19171 0)
(7.15796 -1.17396 0)
(5.40124 2.60372 0)
(7.52493 -0.805456 0)
(4.95927 3.04481 0)
(7.98824 -0.822727 0)
(5.69094 3.7151 0)
(9.41674 -0.265665 0)
(7.15541 4.77205 0)
(11.4113 0.230459 0)
(9.04814 6.03615 0)
(13.2156 1.97532 0)
(10.0062 6.4345 0)
(13.3376 -0.17673 0)
(13.4494 -0.00456536 0)
(13.5949 0.0974608 0)
(13.9079 0.0366486 0)
(14.3397 -0.320765 0)
(14.2027 -0.677043 0)
(14.3314 -0.719389 0)
(14.3067 -1.20037 0)
(14.1857 -1.52144 0)
(14.451 -1.89612 0)
(14.2965 -2.46767 0)
(14.2405 -2.65173 0)
(14.2408 -3.13925 0)
(13.8392 -3.09921 0)
(13.5979 -2.91245 0)
(13.5661 -2.9288 0)
(13.1391 -2.16016 0)
(12.7997 -1.48613 0)
(12.5765 -0.886172 0)
(12.1277 0.0351781 0)
(11.6991 0.856342 0)
(11.6127 1.28141 0)
(11.444 1.22761 0)
(11.0906 0.984431 0)
(10.9061 0.593061 0)
(10.6021 0.134246 0)
(10.2972 -0.28684 0)
(10.0461 -0.882895 0)
(9.5965 -1.42213 0)
(9.1669 -1.70451 0)
(9.31546 -2.29369 0)
(9.40937 -2.87298 0)
(8.30051 -2.08453 0)
(6.23302 -0.100859 0)
(4.44355 0.567826 0)
(3.31654 -1.41106 0)
(2.17551 -4.5939 0)
(0.930231 -7.29647 0)
(0.405018 -7.96906 0)
(0.669638 -6.70024 0)
(0.370672 -5.62949 0)
(0.77906 -4.10819 0)
(-0.416519 -2.78239 0)
(0.307246 -0.248411 0)
(0.368692 0.939781 0)
(1.08391 2.89621 0)
(2.58582 2.82476 0)
(2.83254 4.78229 0)
(4.10387 4.53919 0)
(5.02077 6.93012 0)
(6.1654 6.57229 0)
(6.59795 7.75801 0)
(7.30392 5.75846 0)
(7.67924 6.18862 0)
(7.58931 3.05407 0)
(8.50653 3.71912 0)
(8.41852 0.889239 0)
(9.14702 0.843452 0)
(8.78128 -1.50463 0)
(8.60947 -0.61936 0)
(7.94768 -2.63268 0)
(7.70068 -0.54189 0)
(7.04013 -2.61948 0)
(6.79366 -0.131559 0)
(6.46145 -2.07364 0)
(6.1023 0.368002 0)
(6.04525 -1.94599 0)
(5.81058 1.04999 0)
(5.82225 -1.89024 0)
(5.56362 1.11361 0)
(5.78838 -1.5604 0)
(5.45743 1.35135 0)
(5.69856 -1.83685 0)
(5.39572 1.60669 0)
(5.78486 -1.59287 0)
(5.25969 1.52976 0)
(5.78021 -1.77665 0)
(5.29683 1.92628 0)
(5.9255 -1.69705 0)
(5.14015 1.75835 0)
(6.03366 -1.74134 0)
(5.24522 2.20191 0)
(6.23166 -1.70296 0)
(5.07606 2.0441 0)
(6.43528 -1.70639 0)
(5.26619 2.45079 0)
(6.77019 -1.46149 0)
(5.09971 2.40167 0)
(6.99937 -1.6491 0)
(5.44912 2.75761 0)
(7.40012 -1.10175 0)
(5.59503 3.22472 0)
(7.28737 -1.39638 0)
(6.19178 3.75463 0)
(7.76862 -1.0949 0)
(7.04318 4.98356 0)
(9.04529 -0.421105 0)
(8.06227 5.77784 0)
(11.8689 1.67592 0)
(10.7787 5.89014 0)
(13.1543 -0.156387 0)
(13.1481 0.0847226 0)
(13.5804 0.0261734 0)
(13.938 -0.162584 0)
(14.2207 -0.347171 0)
(14.0037 -0.665443 0)
(13.9663 -0.698852 0)
(14.0877 -1.13635 0)
(14.1417 -1.61727 0)
(14.3871 -1.93422 0)
(14.2153 -2.39909 0)
(14.2343 -2.61556 0)
(14.1572 -3.05544 0)
(13.7576 -3.06711 0)
(13.7217 -2.86386 0)
(13.4883 -2.84979 0)
(12.9081 -2.05333 0)
(12.7169 -1.37993 0)
(12.569 -0.795549 0)
(11.843 0.252384 0)
(11.5457 1.02217 0)
(11.6536 1.32373 0)
(11.3045 1.33614 0)
(11.0398 1.06574 0)
(10.7708 0.695909 0)
(10.3936 0.320245 0)
(10.0799 -0.139872 0)
(9.70537 -0.746489 0)
(9.43141 -1.25912 0)
(9.27898 -1.64498 0)
(9.2843 -2.30344 0)
(9.12232 -2.6244 0)
(7.92025 -1.44163 0)
(5.87756 0.655414 0)
(4.21146 1.14265 0)
(3.24603 -0.943275 0)
(2.1005 -4.09312 0)
(0.639315 -6.88242 0)
(-0.277918 -7.79659 0)
(-0.210045 -6.75144 0)
(-0.449891 -5.6472 0)
(-0.248614 -3.97453 0)
(-1.49521 -2.65954 0)
(-0.652733 -0.379489 0)
(-0.681636 0.787878 0)
(0.0130938 2.53036 0)
(1.64331 2.12914 0)
(2.4406 4.61138 0)
(3.26242 3.91221 0)
(4.02645 6.72375 0)
(5.40718 5.89866 0)
(6.17367 7.47671 0)
(6.83962 5.46925 0)
(7.60302 6.04666 0)
(7.49549 2.88039 0)
(8.68316 3.59255 0)
(8.47318 0.779503 0)
(9.31744 0.835736 0)
(8.58324 -1.3506 0)
(8.68866 -0.457972 0)
(7.70338 -2.41564 0)
(7.68068 -0.373282 0)
(6.74978 -2.4174 0)
(6.7413 0.00481608 0)
(6.18507 -1.92744 0)
(6.13534 0.47433 0)
(5.8081 -1.87029 0)
(5.86354 1.09551 0)
(5.66068 -1.8228 0)
(5.61347 1.15025 0)
(5.59771 -1.56649 0)
(5.54724 1.3919 0)
(5.50757 -1.86526 0)
(5.44094 1.64573 0)
(5.58717 -1.67806 0)
(5.33655 1.6023 0)
(5.58106 -1.87465 0)
(5.32387 1.99766 0)
(5.72848 -1.8358 0)
(5.22259 1.85306 0)
(5.78271 -1.88734 0)
(5.2683 2.28227 0)
(5.99902 -1.88465 0)
(5.19486 2.13814 0)
(6.08243 -1.92724 0)
(5.30622 2.55744 0)
(6.32844 -1.73327 0)
(5.23229 2.56724 0)
(6.40241 -1.95153 0)
(5.47003 2.99263 0)
(6.77362 -1.49534 0)
(5.68989 3.46395 0)
(6.80629 -1.84132 0)
(6.19743 3.95501 0)
(7.50599 -1.35103 0)
(7.10029 4.86123 0)
(8.21412 -0.479014 0)
(7.77585 5.33965 0)
(9.44275 1.09942 0)
(10.5876 5.23771 0)
(12.9884 -0.13625 0)
(13.1749 -0.00811154 0)
(13.8242 -0.13869 0)
(13.8435 -0.264729 0)
(13.8759 -0.28717 0)
(13.8011 -0.591587 0)
(13.873 -0.750434 0)
(14.1556 -1.20132 0)
(14.1976 -1.65681 0)
(14.2314 -1.89105 0)
(14.0677 -2.37337 0)
(14.095 -2.63321 0)
(13.9531 -2.92466 0)
(13.5808 -2.99267 0)
(13.4984 -2.81976 0)
(13.0208 -2.64596 0)
(12.4538 -1.8702 0)
(12.3324 -1.26254 0)
(11.9244 -0.591286 0)
(11.253 0.460853 0)
(11.4212 1.00899 0)
(11.3374 1.3507 0)
(10.7961 1.52269 0)
(10.6696 1.23177 0)
(10.3163 0.838709 0)
(9.977 0.43029 0)
(9.70451 0.010256 0)
(9.35299 -0.59339 0)
(9.25092 -1.21242 0)
(9.17223 -1.64977 0)
(9.02207 -2.19631 0)
(8.6332 -2.24076 0)
(7.3806 -0.772992 0)
(5.43462 1.34608 0)
(4.03452 1.65444 0)
(3.28673 -0.475904 0)
(2.14372 -3.56217 0)
(0.514419 -6.34517 0)
(-0.815876 -7.52352 0)
(-1.03838 -6.77824 0)
(-1.36337 -5.56556 0)
(-1.3218 -3.86135 0)
(-2.40287 -2.60499 0)
(-1.35656 -0.496711 0)
(-1.76738 0.590286 0)
(-0.654706 1.97744 0)
(0.590004 1.50406 0)
(1.53035 4.47975 0)
(1.92026 3.03597 0)
(3.69537 6.6922 0)
(4.45584 5.16615 0)
(5.96458 7.357 0)
(6.48535 5.09393 0)
(7.67763 5.89536 0)
(7.47304 2.66556 0)
(8.9069 3.42107 0)
(8.2248 0.615762 0)
(9.31217 0.809056 0)
(8.30667 -1.23293 0)
(8.62288 -0.314136 0)
(7.57288 -2.17934 0)
(7.59237 -0.168868 0)
(6.71123 -2.19896 0)
(6.73407 0.137711 0)
(6.1291 -1.77918 0)
(6.14576 0.556101 0)
(5.80099 -1.80028 0)
(5.8341 1.15842 0)
(5.6812 -1.74875 0)
(5.61746 1.20367 0)
(5.54491 -1.53967 0)
(5.55162 1.48222 0)
(5.53028 -1.83571 0)
(5.39755 1.71555 0)
(5.56316 -1.6457 0)
(5.34538 1.69345 0)
(5.57313 -1.93703 0)
(5.27182 2.06764 0)
(5.69688 -1.88062 0)
(5.19543 1.97293 0)
(5.75999 -2.07379 0)
(5.21734 2.40211 0)
(5.96101 -2.05099 0)
(5.16374 2.33695 0)
(6.02525 -2.21886 0)
(5.23622 2.76271 0)
(6.31581 -1.98351 0)
(5.39169 2.80789 0)
(6.37989 -2.35221 0)
(5.53602 3.18835 0)
(6.68014 -1.87716 0)
(6.0745 3.72084 0)
(6.78088 -2.05691 0)
(6.50081 3.89075 0)
(7.09523 -1.54653 0)
(7.26728 4.64779 0)
(7.63978 -0.427209 0)
(7.96223 4.80607 0)
(8.24641 0.915784 0)
(9.90591 4.411 0)
(13.2109 -0.204413 0)
(13.4308 -0.146718 0)
(13.7228 -0.160843 0)
(13.5098 -0.213949 0)
(13.6216 -0.269976 0)
(13.7858 -0.65348 0)
(13.9447 -0.870671 0)
(14.063 -1.19633 0)
(13.9515 -1.62849 0)
(13.986 -1.87589 0)
(13.9215 -2.29441 0)
(13.8419 -2.57445 0)
(13.52 -2.83609 0)
(13.1165 -2.91156 0)
(12.804 -2.64664 0)
(12.0546 -2.38488 0)
(11.6179 -1.74484 0)
(11.4684 -1.12571 0)
(10.9025 -0.399149 0)
(10.6438 0.472621 0)
(10.8756 1.02898 0)
(10.4801 1.53889 0)
(10.2518 1.61821 0)
(10.1524 1.32979 0)
(9.71844 0.977172 0)
(9.61168 0.537113 0)
(9.38046 0.133569 0)
(9.14085 -0.512617 0)
(9.04246 -1.20332 0)
(8.78866 -1.62339 0)
(8.44686 -2.02032 0)
(7.93878 -1.82734 0)
(6.72621 -0.168078 0)
(4.96605 1.92507 0)
(3.91367 2.05793 0)
(3.43515 -0.0718722 0)
(2.3612 -2.97587 0)
(0.606982 -5.70277 0)
(-1.14027 -7.12583 0)
(-1.73228 -6.60234 0)
(-2.10197 -5.34099 0)
(-2.27745 -3.71571 0)
(-3.01316 -2.49044 0)
(-1.98784 -0.501655 0)
(-2.81709 0.486697 0)
(-0.873553 1.49054 0)
(-0.669563 0.893086 0)
(1.27873 4.55243 0)
(0.885556 2.5815 0)
(2.56915 6.37223 0)
(2.89719 4.00008 0)
(5.56944 7.08699 0)
(5.56592 4.50013 0)
(7.44361 5.55429 0)
(6.95701 2.38968 0)
(8.81677 3.25396 0)
(8.04578 0.549021 0)
(9.20701 0.864077 0)
(8.12515 -1.04354 0)
(8.49695 -0.191483 0)
(7.46353 -1.91184 0)
(7.45121 -0.0553922 0)
(6.68175 -2.01262 0)
(6.69572 0.227211 0)
(6.06692 -1.64986 0)
(6.18797 0.58092 0)
(5.78839 -1.66531 0)
(5.86066 1.12582 0)
(5.61288 -1.66079 0)
(5.71521 1.20666 0)
(5.45951 -1.49511 0)
(5.60722 1.42597 0)
(5.45529 -1.74305 0)
(5.47245 1.69474 0)
(5.40995 -1.63859 0)
(5.4329 1.67794 0)
(5.44859 -1.84222 0)
(5.31044 2.08102 0)
(5.52481 -1.84223 0)
(5.31306 1.9983 0)
(5.57467 -2.02382 0)
(5.25059 2.42484 0)
(5.72453 -2.06887 0)
(5.28748 2.38435 0)
(5.79284 -2.26372 0)
(5.32223 2.79685 0)
(6.00014 -2.17594 0)
(5.50532 2.91625 0)
(6.12258 -2.42627 0)
(5.65221 3.29822 0)
(6.37078 -2.10272 0)
(6.13161 3.73869 0)
(6.70652 -2.05826 0)
(6.60266 3.88964 0)
(7.07385 -1.50443 0)
(7.33074 4.33039 0)
(7.75159 -0.27609 0)
(8.13781 4.23775 0)
(8.57862 1.04151 0)
(9.54352 3.512 0)
(13.3085 -0.224852 0)
(13.2654 -0.10102 0)
(13.3419 -0.0581385 0)
(13.3668 -0.239571 0)
(13.6696 -0.349395 0)
(13.7963 -0.674824 0)
(13.8239 -0.915247 0)
(13.8301 -1.15368 0)
(13.7828 -1.55322 0)
(13.8086 -1.86299 0)
(13.5589 -2.24617 0)
(13.2592 -2.49232 0)
(12.7651 -2.63618 0)
(12.1082 -2.6773 0)
(11.5043 -2.40701 0)
(10.762 -2.11027 0)
(10.4208 -1.58127 0)
(10.0413 -0.95229 0)
(9.51869 -0.258796 0)
(9.63782 0.46947 0)
(9.71782 1.09334 0)
(9.48479 1.54919 0)
(9.61649 1.60846 0)
(9.39072 1.48019 0)
(9.21346 1.07952 0)
(9.15524 0.602986 0)
(8.77883 0.21379 0)
(8.71194 -0.453872 0)
(8.60777 -1.10611 0)
(8.17753 -1.47711 0)
(7.6687 -1.76362 0)
(7.05857 -1.37055 0)
(5.91688 0.38728 0)
(4.46564 2.37431 0)
(3.84762 2.31147 0)
(3.71116 0.283301 0)
(2.75751 -2.37737 0)
(0.909361 -4.96725 0)
(-1.19748 -6.58607 0)
(-2.14748 -6.27202 0)
(-2.56055 -5.05046 0)
(-2.86602 -3.70665 0)
(-3.26866 -2.50275 0)
(-2.57846 -0.561771 0)
(-3.87549 0.201503 0)
(-1.03827 0.738162 0)
(-1.99868 0.580319 0)
(0.367979 4.0365 0)
(-0.995138 1.63137 0)
(2.54845 6.53437 0)
(1.18003 3.11858 0)
(5.01481 7.03157 0)
(4.60577 3.8366 0)
(7.1994 5.2404 0)
(6.62454 2.20481 0)
(8.50235 3.0705 0)
(7.71119 0.415237 0)
(8.95546 0.865309 0)
(7.63394 -0.905624 0)
(8.37956 -0.126758 0)
(7.07748 -1.66865 0)
(7.38685 0.0615315 0)
(6.4208 -1.79777 0)
(6.67304 0.287375 0)
(5.82209 -1.44487 0)
(6.26324 0.531885 0)
(5.55388 -1.5107 0)
(5.90426 1.08133 0)
(5.45813 -1.53212 0)
(5.74768 1.13395 0)
(5.31416 -1.35079 0)
(5.63316 1.37068 0)
(5.32491 -1.64798 0)
(5.49242 1.65959 0)
(5.32145 -1.52874 0)
(5.44147 1.65343 0)
(5.37713 -1.77578 0)
(5.32033 2.05731 0)
(5.46307 -1.8031 0)
(5.32636 1.99552 0)
(5.51722 -1.97642 0)
(5.24332 2.43695 0)
(5.68856 -2.02802 0)
(5.31107 2.44327 0)
(5.76615 -2.24743 0)
(5.33592 2.88262 0)
(5.98516 -2.14327 0)
(5.59314 2.98706 0)
(6.17265 -2.45961 0)
(5.74643 3.3234 0)
(6.37518 -2.08036 0)
(6.24082 3.74054 0)
(6.76802 -1.97619 0)
(6.74887 3.66192 0)