/*--------------------------------*- C++ -*----------------------------------*\
| =========                 |                                                 |
| \\      /  F ield         | OpenFOAM: The Open Source CFD Toolbox           |
|  \\    /   O peration     | Version:  2.4.0                                 |
|   \\  /    A nd           | Web:      www.OpenFOAM.org                      |
|    \\/     M anipulation  |                                                 |
\*---------------------------------------------------------------------------*/
FoamFile
{
    version     2.0;
    format      ascii;
    class       volVectorField;
    location    "0.072";
    object      U_0;
}
// * * * * * * * * * * * * * * * * * * * * * * * * * * * * * * * * * * * * * //

dimensions      [0 1 -1 0 0 0 0];

internalField   nonuniform List<vector> 
4400
(
(5.4045 0.316785 0)
(3.31532 0.0607629 0)
(2.58608 0.00133166 0)
(2.2315 -0.00185545 0)
(2.0854 -0.00162626 0)
(1.99308 -0.000573382 0)
(1.95652 -0.000275735 0)
(1.90632 -0.000108664 0)
(1.87204 0.00553362 0)
(1.6375 -0.0724853 0)
(8.68523 0.857298 0)
(7.54078 0.344386 0)
(6.63446 0.116227 0)
(5.90431 0.0553659 0)
(5.53447 0.0263658 0)
(5.26242 0.015694 0)
(5.15973 0.0109208 0)
(4.99914 0.00538921 0)
(4.98329 0.0351218 0)
(4.66583 -0.122487 0)
(9.89006 0.937333 0)
(9.99142 0.476621 0)
(9.5021 0.213589 0)
(8.73897 0.129929 0)
(8.29381 0.0742501 0)
(7.89685 0.0456914 0)
(7.76145 0.0316191 0)
(7.50345 0.0157199 0)
(7.50422 0.0582497 0)
(7.24351 -0.118553 0)
(10.1178 0.807323 0)
(11.1137 0.496367 0)
(11.2899 0.267186 0)
(10.8049 0.196992 0)
(10.4794 0.129176 0)
(10.0581 0.084065 0)
(9.95237 0.0601431 0)
(9.62922 0.0329414 0)
(9.61536 0.0754571 0)
(9.53128 -0.0942648 0)
(10.0398 0.64798 0)
(11.3156 0.433124 0)
(12.0136 0.248815 0)
(11.9369 0.217593 0)
(11.9106 0.163103 0)
(11.6142 0.117043 0)
(11.6307 0.0870721 0)
(11.3148 0.0586225 0)
(11.2895 0.0785226 0)
(11.3719 -0.0511048 0)
(10.0097 0.518447 0)
(11.2088 0.352443 0)
(12.0887 0.191125 0)
(12.2363 0.187551 0)
(12.4771 0.154591 0)
(12.4087 0.120928 0)
(12.6323 0.0970499 0)
(12.4226 0.0783211 0)
(12.4585 0.0817715 0)
(12.6006 -0.0342262 0)
(10.0023 0.403635 0)
(11.1153 0.279179 0)
(12.021 0.136297 0)
(12.2569 0.145139 0)
(12.4618 0.119258 0)
(12.6005 0.0973629 0)
(12.9629 0.079809 0)
(12.8819 0.086848 0)
(12.9986 0.058291 0)
(13.199 0.0326463 0)
(9.93664 0.291903 0)
(11.1651 0.198429 0)
(11.9609 0.0831185 0)
(12.2384 0.120675 0)
(12.3254 0.08164 0)
(12.6661 0.0568957 0)
(12.9425 0.0478246 0)
(12.9282 0.0917046 0)
(13.116 0.0317677 0)
(13.3492 0.0256973 0)
(9.94371 0.181591 0)
(11.2438 0.102011 0)
(11.8226 0.0549938 0)
(12.1678 0.0880792 0)
(12.4275 0.0405388 0)
(12.6545 0.0164195 0)
(12.7561 0.0405213 0)
(12.9078 0.0675454 0)
(13.2335 0.00775892 0)
(13.3665 -0.0493648 0)
(10.022 0.0610698 0)
(11.1553 0.0259696 0)
(11.7401 0.0263019 0)
(12.2268 0.0382489 0)
(12.4795 -0.00287814 0)
(12.547 0.00446653 0)
(12.7061 0.0124327 0)
(12.9775 0.0336541 0)
(13.2289 -0.0258494 0)
(13.2687 -0.0251043 0)
(10.0298 -0.0488582 0)
(11.0756 -0.0528443 0)
(11.8249 -0.016151 0)
(12.2419 -0.0120577 0)
(12.4192 -0.0265327 0)
(12.5976 -0.0209808 0)
(12.7177 -0.0171635 0)
(12.9554 0.000120356 0)
(13.1907 -0.0409349 0)
(13.2907 -0.0362895 0)
(9.99648 -0.158822 0)
(11.1331 -0.14046 0)
(11.8941 -0.0564322 0)
(12.1788 -0.0455301 0)
(12.4596 -0.0697113 0)
(12.6284 -0.0466915 0)
(12.6949 -0.0330363 0)
(12.9741 -0.0305894 0)
(13.2324 -0.0737387 0)
(13.3661 -0.0778116 0)
(10.0272 -0.272798 0)
(11.1754 -0.227158 0)
(11.9141 -0.0880557 0)
(12.1805 -0.0911427 0)
(12.5099 -0.107072 0)
(12.6041 -0.0629575 0)
(12.7593 -0.0592782 0)
(13.0375 -0.0719608 0)
(13.2357 -0.0961001 0)
(13.3031 -0.0964211 0)
(10.0594 -0.39374 0)
(11.1762 -0.298584 0)
(11.9685 -0.129866 0)
(12.223 -0.132171 0)
(12.5467 -0.144241 0)
(12.5998 -0.0905599 0)
(12.8324 -0.0878476 0)
(12.956 -0.0961912 0)
(13.0917 -0.109967 0)
(13.0383 -0.112157 0)
(10.0468 -0.515141 0)
(11.2338 -0.364793 0)
(12.0283 -0.183165 0)
(12.2686 -0.180921 0)
(12.4669 -0.176073 0)
(12.4219 -0.112144 0)
(12.5553 -0.103724 0)
(12.4569 -0.104014 0)
(12.4881 -0.111299 0)
(12.2891 -0.118897 0)
(10.0679 -0.64661 0)
(11.3168 -0.439053 0)
(11.9701 -0.243571 0)
(11.9821 -0.214627 0)
(11.8704 -0.179225 0)
(11.6272 -0.10919 0)
(11.5751 -0.0937998 0)
(11.3148 -0.0872648 0)
(11.2636 -0.0955459 0)
(10.9611 -0.0881953 0)
(10.1337 -0.807104 0)
(11.1074 -0.499578 0)
(11.2642 -0.264438 0)
(10.8443 -0.195267 0)
(10.434 -0.140099 0)
(10.066 -0.0788021 0)
(9.91293 -0.0651661 0)
(9.60467 -0.0600139 0)
(9.52704 -0.072145 0)
(9.17955 -0.05191 0)
(9.89744 -0.937095 0)
(9.98508 -0.477876 0)
(9.488 -0.212526 0)
(8.76674 -0.128677 0)
(8.25522 -0.0809456 0)
(7.89874 -0.0425045 0)
(7.73486 -0.035101 0)
(7.46068 -0.0345242 0)
(7.38643 -0.0453482 0)
(7.03467 -0.0211766 0)
(8.68872 -0.857269 0)
(7.53724 -0.344881 0)
(6.6265 -0.116184 0)
(5.92002 -0.054351 0)
(5.50915 -0.0295738 0)
(5.25982 -0.0144586 0)
(5.14236 -0.0122869 0)
(4.95251 -0.0145992 0)
(4.88818 -0.0202972 0)
(4.60012 -0.00655469 0)
(5.40501 -0.316749 0)
(3.31484 -0.060742 0)
(2.58226 -0.00150997 0)
(2.2368 0.00238255 0)
(2.07664 0.000929424 0)
(1.98908 0.000814235 0)
(1.94989 0.000535225 0)
(1.87988 -0.00100834 0)
(1.83774 -0.00165971 0)
(1.71854 0.0121586 0)
(2.84198 -0.0747981 0)
(2.35454 0.410212 0)
(3.27841 0.670067 0)
(4.34041 1.34705 0)
(5.64493 1.24471 0)
(6.88955 0.665092 0)
(7.69276 0.320588 0)
(8.00605 -0.213018 0)
(8.14449 -0.841407 0)
(8.17323 -0.881378 0)
(8.45142 -1.1265 0)
(9.49503 -2.09656 0)
(10.1157 -2.78745 0)
(10.4466 -3.11848 0)
(11.5851 -3.85008 0)
(11.6447 -4.22469 0)
(10.8461 -3.42784 0)
(10.8332 -2.53964 0)
(10.2871 -1.80992 0)
(9.90981 -0.276201 0)
(10.6216 0.8574 0)
(10.9019 1.53398 0)
(11.3296 1.30425 0)
(11.7491 0.615449 0)
(11.4491 0.442567 0)
(11.5717 -0.518676 0)
(11.2961 -1.35273 0)
(10.6274 -1.27559 0)
(10.8932 -2.3552 0)
(10.7057 -3.51356 0)
(9.66667 -3.48353 0)
(9.2754 -4.12669 0)
(8.98519 -5.19951 0)
(7.79329 -4.73748 0)
(6.21822 -3.65936 0)
(5.27447 -4.23154 0)
(4.74 -6.4404 0)
(5.16519 -7.80652 0)
(4.98424 -7.67353 0)
(6.40769 -6.21328 0)
(6.11911 -5.35212 0)
(6.80801 -3.27628 0)
(7.21022 -1.68677 0)
(7.54441 0.213299 0)
(8.19429 2.50998 0)
(8.2007 4.25041 0)
(8.18452 4.92032 0)
(8.27275 5.84192 0)
(9.08911 7.00038 0)
(8.89248 8.18893 0)
(9.24159 8.01497 0)
(7.90576 7.46669 0)
(7.91134 5.67112 0)
(6.58854 5.21306 0)
(7.1827 3.43181 0)
(6.33697 3.73111 0)
(6.96544 1.3205 0)
(6.54887 1.14401 0)
(7.10153 -1.59596 0)
(6.62267 -1.52261 0)
(7.07361 -3.32571 0)
(6.45349 -1.9561 0)
(6.63584 -3.17281 0)
(6.11917 -1.29343 0)
(6.10167 -2.3152 0)
(5.8255 -0.638017 0)
(5.97833 -1.53785 0)
(5.78594 -0.0191721 0)
(5.96022 -1.22036 0)
(5.79881 0.300701 0)
(5.94703 -0.843408 0)
(5.75421 0.369427 0)
(6.02266 -0.690382 0)
(5.7429 0.595126 0)
(5.96686 -0.553194 0)
(5.8137 0.564561 0)
(6.05517 -0.347598 0)
(5.76291 0.71597 0)
(6.01608 -0.242853 0)
(5.85594 0.695986 0)
(6.08237 -0.0401067 0)
(5.78726 0.828876 0)
(6.02113 0.140202 0)
(5.87919 0.78472 0)
(6.03869 0.380407 0)
(5.8861 0.976267 0)
(5.99968 0.607435 0)
(5.94685 1.03866 0)
(6.02481 0.847433 0)
(6.09026 1.32455 0)
(5.9346 1.14842 0)
(6.01888 1.60105 0)
(6.00026 1.46056 0)
(5.80496 2.13642 0)
(6.07546 2.00398 0)
(5.91839 2.96953 0)
(6.56575 2.70594 0)
(6.16928 4.43453 0)
(7.16835 4.82713 0)
(4.00259 8.9385 0)
(5.28014 0.0493618 0)
(4.86491 0.49255 0)
(5.12049 0.524581 0)
(5.30313 0.852048 0)
(6.32031 0.681598 0)
(7.37462 0.197184 0)
(8.1059 0.0822943 0)
(8.70799 -0.306411 0)
(9.04684 -0.969658 0)
(9.20517 -1.12502 0)
(9.86963 -1.40781 0)
(11.2087 -2.42711 0)
(11.6912 -3.10037 0)
(11.8367 -3.23499 0)
(12.6215 -3.89892 0)
(12.4803 -4.11901 0)
(11.6049 -3.18081 0)
(11.5473 -2.35614 0)
(11.0018 -1.67176 0)
(10.4311 -0.394202 0)
(11.0366 0.67248 0)
(11.2841 1.45599 0)
(11.7066 1.21163 0)
(12.0196 0.572886 0)
(11.6018 0.513355 0)
(11.7098 -0.417129 0)
(11.4109 -1.20603 0)
(10.6428 -1.24157 0)
(10.8331 -2.30951 0)
(10.6269 -3.22461 0)
(9.65177 -3.21012 0)
(9.32974 -3.94023 0)
(8.93302 -4.84154 0)
(7.58106 -4.13678 0)
(5.97334 -3.06787 0)
(4.91278 -3.93779 0)
(4.29707 -6.37337 0)
(4.51989 -7.88279 0)
(4.35563 -7.92899 0)
(5.83296 -6.43114 0)
(5.26785 -5.53017 0)
(5.93629 -3.42591 0)
(6.42462 -1.88981 0)
(6.63928 0.148476 0)
(7.31261 2.35369 0)
(7.37229 4.1659 0)
(7.53003 4.83409 0)
(7.57209 5.75389 0)
(8.5869 6.82295 0)
(8.47742 8.14898 0)
(9.14494 8.11109 0)
(8.10057 7.78344 0)
(8.23884 5.93596 0)
(6.73148 5.43073 0)
(7.16641 3.37509 0)
(6.53407 3.73118 0)
(7.28027 1.21897 0)
(7.02186 1.12237 0)
(7.52437 -1.64675 0)
(7.09523 -1.4817 0)
(7.30055 -3.36184 0)
(6.7093 -1.8357 0)
(6.80668 -3.21416 0)
(6.39864 -1.12478 0)
(6.31062 -2.30788 0)
(5.8964 -0.445131 0)
(6.00246 -1.62483 0)
(5.66302 0.150056 0)
(5.76886 -1.35873 0)
(5.64012 0.474704 0)
(5.78183 -1.02379 0)
(5.53176 0.543191 0)
(5.86948 -0.881734 0)
(5.59781 0.766125 0)
(5.89117 -0.797272 0)
(5.65523 0.731202 0)
(6.08367 -0.566926 0)
(5.70222 0.875878 0)
(6.1179 -0.51998 0)
(5.87308 0.870926 0)
(6.27242 -0.262867 0)
(5.92486 1.01209 0)
(6.22214 -0.143804 0)
(6.11778 1.00015 0)
(6.23095 0.158527 0)
(6.12923 1.18838 0)
(6.03826 0.324506 0)
(6.17694 1.28223 0)
(6.01745 0.62268 0)
(6.08404 1.52825 0)
(6.01585 0.910469 0)
(6.13698 1.82147 0)
(6.2171 1.30043 0)
(6.03196 2.39999 0)
(6.4407 1.79035 0)
(5.93931 3.42023 0)
(6.42693 2.67803 0)
(4.9531 4.81118 0)
(8.6257 4.08339 0)
(6.46531 9.32836 0)
(7.46911 0.00728532 0)
(7.28372 0.456456 0)
(7.47642 0.501897 0)
(7.36497 0.653376 0)
(8.10381 0.429824 0)
(8.89184 -0.0102937 0)
(9.31926 -0.122258 0)
(10.1081 -0.52108 0)
(10.6395 -1.10554 0)
(10.9653 -1.35623 0)
(11.5533 -1.74393 0)
(12.6817 -2.69378 0)
(12.8961 -3.37899 0)
(12.7699 -3.39436 0)
(13.4302 -3.83184 0)
(12.916 -3.99003 0)
(11.9582 -3.00536 0)
(11.7788 -2.19408 0)
(11.238 -1.53957 0)
(10.8414 -0.424939 0)
(11.2655 0.550726 0)
(11.3445 1.38359 0)
(11.84 1.11748 0)
(12.12 0.580111 0)
(11.584 0.566774 0)
(11.752 -0.315068 0)
(11.4123 -1.01811 0)
(10.6569 -1.16377 0)
(10.8028 -2.23158 0)
(10.4945 -2.99891 0)
(9.60216 -2.96014 0)
(9.33469 -3.75908 0)
(8.82121 -4.44703 0)
(7.29032 -3.52529 0)
(5.5971 -2.51603 0)
(4.54734 -3.67393 0)
(3.80572 -6.27465 0)
(3.85086 -7.9559 0)
(3.76657 -8.02641 0)
(4.95789 -6.59729 0)
(4.05029 -5.6289 0)
(4.96213 -3.58268 0)
(5.36342 -2.11133 0)
(5.76892 0.0849759 0)
(6.30692 2.1798 0)
(6.47239 4.08938 0)
(6.75488 4.67298 0)
(6.89845 5.62541 0)
(7.99549 6.58095 0)
(7.85669 7.99405 0)
(8.7106 8.06378 0)
(7.88271 7.99626 0)
(8.38516 6.18045 0)
(7.17934 5.78083 0)
(7.63201 3.52989 0)
(7.02286 3.8047 0)
(7.63538 1.17858 0)
(7.51847 1.06889 0)
(7.90893 -1.63745 0)
(7.49893 -1.39053 0)
(7.50702 -3.26323 0)
(6.91559 -1.63974 0)
(6.74146 -3.21152 0)
(6.46174 -0.979361 0)
(6.37287 -2.32926 0)
(6.05291 -0.338755 0)
(6.22843 -1.67297 0)
(5.79982 0.299309 0)
(5.97548 -1.46407 0)
(5.73012 0.587194 0)
(5.90939 -1.10155 0)
(5.562 0.662275 0)
(5.95677 -1.03496 0)
(5.56993 0.930123 0)
(5.96025 -0.948181 0)
(5.57797 0.863325 0)
(6.15276 -0.753759 0)
(5.58818 1.07604 0)
(6.23793 -0.744735 0)
(5.77328 1.01452 0)
(6.51163 -0.488396 0)
(5.81089 1.22255 0)
(6.67146 -0.388433 0)
(6.14493 1.15694 0)
(6.894 -0.0733935 0)
(6.23567 1.42314 0)
(6.98944 0.163005 0)
(6.37847 1.44724 0)
(6.98647 0.475545 0)
(6.29165 1.76004 0)
(6.76915 0.762913 0)
(6.04876 1.96344 0)
(6.56721 1.00682 0)
(6.11396 2.42103 0)
(7.19198 1.3073 0)
(6.27373 3.35007 0)
(8.85453 2.43613 0)
(5.65964 5.16696 0)
(9.36777 3.45804 0)
(7.09285 9.54422 0)
(9.42573 -0.00177819 0)
(9.36393 0.39149 0)
(9.65548 0.488746 0)
(9.49913 0.52877 0)
(10.1064 0.17553 0)
(10.7107 -0.229452 0)
(11.0457 -0.297827 0)
(11.8776 -0.762525 0)
(12.1798 -1.28256 0)
(12.5662 -1.5865 0)
(13.1223 -2.04633 0)
(13.7732 -2.80168 0)
(13.9388 -3.38447 0)
(13.4996 -3.42765 0)
(13.8993 -3.67165 0)
(13.2286 -3.65814 0)
(12.2462 -2.72909 0)
(12.1147 -1.95459 0)
(11.3893 -1.35766 0)
(10.9763 -0.451065 0)
(11.1979 0.489637 0)
(11.1517 1.30188 0)
(11.74 1.00047 0)
(11.8499 0.594606 0)
(11.3672 0.624432 0)
(11.6176 -0.191831 0)
(11.2559 -0.794842 0)
(10.6942 -1.08001 0)
(10.8247 -2.14897 0)
(10.3207 -2.66884 0)
(9.45479 -2.70225 0)
(9.20096 -3.63073 0)
(8.6668 -4.07274 0)
(7.05783 -2.86901 0)
(5.36857 -1.93413 0)
(4.22531 -3.30464 0)
(3.36158 -6.10016 0)
(3.15604 -7.9554 0)
(3.13808 -8.00587 0)
(3.91932 -6.64892 0)
(2.83542 -5.63227 0)
(3.93764 -3.73105 0)
(4.27701 -2.39902 0)
(4.70569 0.0924956 0)
(5.22787 2.0016 0)
(5.51212 3.9379 0)
(6.01937 4.47934 0)
(6.09044 5.47028 0)
(7.42966 6.37589 0)
(7.39653 7.85231 0)
(8.48244 7.87868 0)
(7.78129 8.03206 0)
(8.43249 6.18132 0)
(7.48206 5.93697 0)
(8.08276 3.46191 0)
(7.65183 3.82436 0)
(7.91143 1.12068 0)
(7.94816 1.01401 0)
(8.2069 -1.67815 0)
(7.86358 -1.29809 0)
(7.73905 -3.20307 0)
(7.19295 -1.41061 0)
(6.80025 -3.10892 0)
(6.45883 -0.769501 0)
(6.22336 -2.3105 0)
(5.86336 -0.174128 0)
(6.10406 -1.75564 0)
(5.67414 0.488503 0)
(5.85336 -1.61033 0)
(5.64536 0.737053 0)
(5.92166 -1.24303 0)
(5.41023 0.814974 0)
(6.01278 -1.22839 0)
(5.49658 1.09573 0)
(6.01587 -1.1516 0)
(5.41037 1.02441 0)
(6.26761 -0.97776 0)
(5.46115 1.26444 0)
(6.32091 -1.03171 0)
(5.55308 1.21035 0)
(6.67748 -0.75821 0)
(5.59849 1.43325 0)
(6.87021 -0.79506 0)
(5.91202 1.38715 0)
(7.32223 -0.423747 0)
(6.09531 1.65186 0)
(7.62758 -0.291155 0)
(6.58645 1.73285 0)
(7.96953 0.152201 0)
(6.78601 2.06578 0)
(7.99677 0.513185 0)
(6.73903 2.4659 0)
(7.53117 0.899038 0)
(6.04888 2.93045 0)
(7.30639 1.1334 0)
(4.91584 3.5894 0)
(8.93655 1.63136 0)
(5.84029 5.20713 0)
(11.451 2.19582 0)
(8.88045 8.70411 0)
(11.1731 0.0231088 0)
(11.0887 0.304216 0)
(11.376 0.383611 0)
(11.2566 0.405088 0)
(11.9259 -0.00427365 0)
(12.3412 -0.387488 0)
(12.5473 -0.473121 0)
(13.4488 -0.980588 0)
(13.5138 -1.37131 0)
(13.7412 -1.74219 0)
(14.2819 -2.26221 0)
(14.3501 -2.86178 0)
(14.3988 -3.42105 0)
(13.9183 -3.42847 0)
(13.9585 -3.50091 0)
(13.2997 -3.37358 0)
(12.2622 -2.54808 0)
(12.2772 -1.81076 0)
(11.6958 -1.18661 0)
(11.3163 -0.373854 0)
(11.2202 0.549598 0)
(10.9398 1.24743 0)
(11.3963 0.926227 0)
(11.2903 0.664188 0)
(11.0267 0.616174 0)
(11.3819 -0.148386 0)
(11.0536 -0.603099 0)
(10.7251 -1.04952 0)
(10.7338 -2.03054 0)
(9.96341 -2.37378 0)
(9.22555 -2.4941 0)
(9.22733 -3.41768 0)
(8.5197 -3.6093 0)
(6.85376 -2.20706 0)
(5.13157 -1.30418 0)
(3.90232 -2.91426 0)
(2.95408 -5.86673 0)
(2.48645 -7.90617 0)
(2.47037 -7.98013 0)
(2.99658 -6.60329 0)
(1.99318 -5.61717 0)
(3.15581 -3.87764 0)
(3.0515 -2.65069 0)
(3.60326 0.0269645 0)
(4.15915 1.81459 0)
(4.31437 3.77465 0)
(5.19868 4.19798 0)
(5.26092 5.26111 0)
(6.74834 6.012 0)
(6.67661 7.64238 0)
(7.91525 7.66121 0)
(7.50683 8.06844 0)
(8.17103 6.13449 0)
(7.66646 6.00976 0)
(8.00926 3.32722 0)
(8.02563 3.84061 0)
(8.15411 1.13227 0)
(8.32159 0.964501 0)
(8.46474 -1.6729 0)
(8.21799 -1.17021 0)
(7.89749 -3.0989 0)
(7.51764 -1.20614 0)
(7.07205 -3.00641 0)
(6.71765 -0.60353 0)
(6.43443 -2.2274 0)
(6.04701 -0.0711818 0)
(6.0752 -1.78297 0)
(5.78949 0.641805 0)
(5.72419 -1.697 0)
(5.68117 0.840425 0)
(5.79196 -1.28313 0)
(5.4136 0.924988 0)
(5.79181 -1.37115 0)
(5.50385 1.25153 0)
(5.77688 -1.27323 0)
(5.34862 1.1287 0)
(6.01502 -1.15146 0)
(5.41327 1.44911 0)
(6.03843 -1.23439 0)
(5.41449 1.33712 0)
(6.4256 -0.988732 0)
(5.48541 1.64309 0)
(6.63306 -1.09744 0)
(5.63118 1.54446 0)
(7.28714 -0.780542 0)
(5.84274 1.88507 0)
(7.93732 -0.799465 0)
(6.22418 1.85022 0)
(9.13813 -0.409435 0)
(6.7373 2.26167 0)
(10.3869 -0.0367917 0)
(7.06021 2.52406 0)
(11.7262 0.574661 0)
(7.10451 3.10774 0)
(12.1633 1.35998 0)
(5.73371 3.94124 0)
(11.0597 1.61063 0)
(5.21622 5.76235 0)
(9.44786 1.24728 0)
(9.01483 8.1409 0)
(12.4733 0.0172098 0)
(12.5481 0.254838 0)
(12.7662 0.326921 0)
(12.5647 0.259669 0)
(13.1696 -0.220109 0)
(13.4786 -0.511221 0)
(13.6845 -0.58103 0)
(14.3867 -1.13881 0)
(14.3426 -1.39665 0)
(14.4221 -1.82615 0)
(14.7935 -2.3918 0)
(14.5897 -2.77956 0)
(14.5046 -3.34143 0)
(14.0554 -3.3134 0)
(13.7811 -3.25094 0)
(13.3708 -3.07773 0)
(12.5804 -2.31699 0)
(12.5523 -1.65486 0)
(11.9891 -1.04718 0)
(11.5032 -0.284033 0)
(11.2045 0.681251 0)
(10.9625 1.31342 0)
(11.3309 0.980067 0)
(11.0555 0.708811 0)
(10.8638 0.509333 0)
(11.0211 -0.0868848 0)
(10.701 -0.467766 0)
(10.5825 -1.03763 0)
(10.4571 -1.83219 0)
(9.54838 -2.04408 0)
(9.08835 -2.4 0)
(9.23898 -3.30441 0)
(8.4551 -3.13997 0)
(6.57761 -1.49309 0)
(4.80596 -0.724262 0)
(3.58629 -2.51908 0)
(2.61986 -5.5788 0)
(1.86521 -7.81486 0)
(1.81496 -8.01708 0)
(2.25047 -6.55036 0)
(1.47478 -5.57067 0)
(2.42715 -4.00054 0)
(1.86133 -2.82393 0)
(2.50328 0.0339891 0)
(2.83772 1.55207 0)
(3.33681 3.53902 0)
(4.40166 3.87449 0)
(4.38872 5.10185 0)
(6.05015 5.7332 0)
(6.23587 7.40482 0)
(7.42525 7.37676 0)
(7.27276 7.98009 0)
(7.90319 6.03786 0)
(7.84152 6.068 0)
(7.93401 3.2389 0)
(7.99701 3.80871 0)
(8.28327 1.0172 0)
(8.63639 0.90192 0)
(8.65298 -1.68119 0)
(8.41206 -1.00817 0)
(7.88059 -2.98409 0)
(7.46954 -0.979409 0)
(6.94232 -2.91848 0)
(6.60443 -0.407858 0)
(6.45041 -2.20928 0)
(6.00286 0.119465 0)
(6.12605 -1.87902 0)
(5.75354 0.8244 0)
(5.88247 -1.80525 0)
(5.57819 0.949385 0)
(5.96159 -1.39749 0)
(5.378 1.09717 0)
(5.87049 -1.57714 0)
(5.46405 1.4025 0)
(5.91909 -1.40803 0)
(5.24564 1.28251 0)
(6.07888 -1.37982 0)
(5.35289 1.64463 0)
(6.07877 -1.43054 0)
(5.23539 1.50797 0)
(6.40875 -1.24619 0)
(5.29487 1.8836 0)
(6.53639 -1.33258 0)
(5.20672 1.79051 0)
(7.0578 -1.07674 0)
(5.32154 2.17301 0)
(7.57242 -1.0388 0)
(5.07764 2.21092 0)
(8.65032 -0.840829 0)
(5.3755 2.56212 0)
(10.1615 -0.482026 0)
(5.46322 2.8102 0)
(12.1726 -0.173042 0)
(6.5343 3.24778 0)
(14.0158 0.508206 0)
(7.70221 4.19653 0)
(14.1785 0.876324 0)
(8.60901 5.88694 0)
(11.5092 1.43887 0)
(8.96616 7.19352 0)
(13.1514 -0.0690041 0)
(13.3633 0.0884869 0)
(13.5821 0.198346 0)
(13.5826 0.156738 0)
(13.9798 -0.335427 0)
(14.0235 -0.633659 0)
(14.2937 -0.691842 0)
(14.5581 -1.23464 0)
(14.441 -1.45342 0)
(14.6002 -1.88186 0)
(14.6775 -2.44049 0)
(14.4482 -2.69865 0)
(14.3142 -3.2884 0)
(13.9313 -3.20713 0)
(13.6326 -3.03634 0)
(13.4401 -2.92668 0)
(12.8498 -2.23726 0)
(12.7568 -1.61591 0)
(12.4013 -0.924976 0)
(11.8412 -0.0566386 0)
(11.3949 0.806475 0)
(11.3377 1.24328 0)
(11.4537 1.03326 0)
(10.9714 0.822511 0)
(10.7516 0.524669 0)
(10.7425 0.0060607 0)
(10.4825 -0.408667 0)
(10.3836 -1.04586 0)
(9.93817 -1.66102 0)
(9.24579 -1.82912 0)
(9.19876 -2.34524 0)
(9.36806 -3.13433 0)
(8.37725 -2.59143 0)
(6.35531 -0.753573 0)
(4.55916 -0.103496 0)
(3.3899 -2.06641 0)
(2.31211 -5.20364 0)
(1.29626 -7.67157 0)
(1.13288 -8.01535 0)
(1.50335 -6.55106 0)
(0.994432 -5.55179 0)
(1.65887 -4.04616 0)
(0.700746 -2.80486 0)
(1.34654 -0.0127296 0)
(1.7248 1.3534 0)
(2.00292 3.28312 0)
(3.5155 3.4236 0)
(3.71675 4.86742 0)
(5.1964 5.18305 0)
(5.5159 7.17431 0)
(6.7914 7.03444 0)
(6.92256 7.86896 0)
(7.49337 5.91053 0)
(7.71652 6.11962 0)
(7.83629 3.20836 0)
(8.30628 3.81039 0)
(8.31719 0.939719 0)
(9.03005 0.828754 0)
(8.68959 -1.61693 0)
(8.56972 -0.85056 0)
(7.82179 -2.78602 0)
(7.57118 -0.735158 0)
(6.79816 -2.74842 0)
(6.67433 -0.242287 0)
(6.21951 -2.12759 0)
(6.06446 0.242328 0)
(5.87071 -1.87643 0)
(5.8215 0.930403 0)
(5.68169 -1.83402 0)
(5.60825 1.02662 0)
(5.68953 -1.45994 0)
(5.46451 1.19499 0)
(5.59945 -1.69794 0)
(5.47185 1.50017 0)
(5.70154 -1.49999 0)
(5.27251 1.37789 0)
(5.78119 -1.55453 0)
(5.37966 1.77622 0)
(5.85732 -1.58294 0)
(5.22247 1.60188 0)
(6.1071 -1.44085 0)
(5.34834 1.99727 0)
(6.23 -1.54013 0)
(5.21875 1.83754 0)
(6.5666 -1.32103 0)
(5.40904 2.22918 0)
(6.76395 -1.25274 0)
(5.10294 2.18817 0)
(7.1779 -1.16174 0)
(5.39881 2.61192 0)
(7.5041 -0.813917 0)
(4.95318 3.038 0)
(8.00857 -0.819224 0)
(5.69936 3.72228 0)
(9.41404 -0.262805 0)
(7.15079 4.77149 0)
(11.4082 0.226871 0)
(9.04806 6.03642 0)
(13.2199 1.97279 0)
(10.0065 6.43693 0)
(13.3389 -0.159424 0)
(13.4465 0.0279862 0)
(13.6103 0.0961895 0)
(13.9521 -0.00104409 0)
(14.3242 -0.362999 0)
(14.1639 -0.669807 0)
(14.3131 -0.711531 0)
(14.2771 -1.21066 0)
(14.2045 -1.5183 0)
(14.4683 -1.92344 0)
(14.2978 -2.48067 0)
(14.2544 -2.66646 0)
(14.2227 -3.15158 0)
(13.8035 -3.06846 0)
(13.5854 -2.90979 0)
(13.5456 -2.89074 0)
(13.0924 -2.09812 0)
(12.778 -1.46731 0)
(12.5446 -0.852604 0)
(12.0719 0.0903454 0)
(11.6751 0.887133 0)
(11.6162 1.26648 0)
(11.41 1.20319 0)
(11.0691 0.95909 0)
(10.8917 0.5598 0)
(10.5725 0.113809 0)
(10.2789 -0.308608 0)
(10.0296 -0.922641 0)
(9.56852 -1.45239 0)
(9.16835 -1.7405 0)
(9.35204 -2.3591 0)
(9.38954 -2.89029 0)
(8.18016 -1.98813 0)
(6.08223 0.00123812 0)
(4.33546 0.50043 0)
(3.22746 -1.61658 0)
(2.07124 -4.80808 0)
(0.849274 -7.40961 0)
(0.412504 -7.9374 0)
(0.685002 -6.60041 0)
(0.353983 -5.53902 0)
(0.783189 -4.01614 0)
(-0.399954 -2.68968 0)
(0.328808 -0.112342 0)
(0.422048 1.0589 0)
(1.13089 2.9699 0)
(2.63466 2.86225 0)
(2.89558 4.84087 0)
(4.16353 4.60633 0)
(5.07915 6.9769 0)
(6.23029 6.58326 0)
(6.65464 7.71818 0)
(7.35212 5.69434 0)
(7.70799 6.09924 0)
(7.62268 2.97361 0)
(8.57362 3.63855 0)
(8.45129 0.775087 0)
(9.16912 0.759218 0)
(8.74786 -1.54759 0)
(8.56169 -0.638864 0)
(7.90502 -2.61605 0)
(7.65301 -0.510726 0)
(6.9968 -2.60464 0)
(6.76404 -0.0849729 0)
(6.42698 -2.05736 0)
(6.07988 0.385704 0)
(6.03163 -1.91777 0)
(5.79865 1.06043 0)
(5.81084 -1.89277 0)
(5.56131 1.13381 0)
(5.78357 -1.55454 0)
(5.45104 1.34209 0)
(5.69572 -1.82791 0)
(5.39724 1.62042 0)
(5.77946 -1.60211 0)
(5.25637 1.52386 0)
(5.78234 -1.76133 0)
(5.29732 1.93154 0)
(5.91815 -1.71156 0)
(5.1392 1.7572 0)
(6.03953 -1.72439 0)
(5.24367 2.2035 0)
(6.22326 -1.71936 0)
(5.07561 2.04276 0)
(6.44505 -1.69046 0)
(5.26582 2.4577 0)
(6.76005 -1.47642 0)
(5.09786 2.38891 0)
(7.01292 -1.63886 0)
(5.45002 2.77679 0)
(7.39085 -1.10349 0)
(5.5896 3.20761 0)
(7.29372 -1.40371 0)
(6.20299 3.76081 0)
(7.77373 -1.08554 0)
(7.03671 4.98692 0)
(9.0364 -0.425645 0)
(8.05782 5.77681 0)
(11.8758 1.67302 0)
(10.781 5.89219 0)
(13.1327 -0.131633 0)
(13.1657 0.105862 0)
(13.6335 0.00162977 0)
(13.9736 -0.188274 0)
(14.189 -0.366712 0)
(13.9476 -0.657146 0)
(13.9565 -0.689818 0)
(14.0898 -1.16115 0)
(14.167 -1.62678 0)
(14.3995 -1.94832 0)
(14.2094 -2.40934 0)
(14.2398 -2.63041 0)
(14.1278 -3.0681 0)
(13.7364 -3.0349 0)
(13.7073 -2.85483 0)
(13.445 -2.8163 0)
(12.8762 -1.99287 0)
(12.7216 -1.36103 0)
(12.5258 -0.749923 0)
(11.7766 0.317458 0)
(11.5609 1.03499 0)
(11.6594 1.30457 0)
(11.2654 1.31465 0)
(11.0189 1.03919 0)
(10.7402 0.672623 0)
(10.3607 0.30105 0)
(10.0521 -0.170255 0)
(9.68965 -0.786756 0)
(9.42932 -1.29161 0)
(9.28551 -1.69223 0)
(9.29973 -2.36404 0)
(9.09315 -2.61207 0)
(7.79791 -1.32028 0)
(5.72907 0.756235 0)
(4.11377 1.06407 0)
(3.16064 -1.14937 0)
(1.987 -4.30916 0)
(0.535768 -7.01473 0)
(-0.287716 -7.78587 0)
(-0.19108 -6.65106 0)
(-0.435266 -5.55577 0)
(-0.221306 -3.885 0)
(-1.48093 -2.56488 0)
(-0.634575 -0.247902 0)
(-0.627903 0.89806 0)
(0.0508439 2.60232 0)
(1.69043 2.16147 0)
(2.50224 4.66369 0)
(3.29882 3.9657 0)
(4.09093 6.77232 0)
(5.47095 5.91474 0)
(6.24619 7.44727 0)
(6.89298 5.4174 0)
(7.66647 5.95892 0)
(7.55482 2.80664 0)
(8.7529 3.51772 0)
(8.49952 0.675875 0)
(9.31493 0.76831 0)
(8.54471 -1.38624 0)
(8.63343 -0.474429 0)
(7.65707 -2.40255 0)
(7.62946 -0.342347 0)
(6.71215 -2.40736 0)
(6.71162 0.0487575 0)
(6.16442 -1.91339 0)
(6.11444 0.489495 0)
(5.8007 -1.84639 0)
(5.8553 1.1057 0)
(5.65246 -1.8275 0)
(5.61028 1.16807 0)
(5.59836 -1.56068 0)
(5.54136 1.38354 0)
(5.50547 -1.8583 0)
(5.44292 1.6581 0)
(5.58567 -1.68696 0)
(5.33334 1.59728 0)
(5.58186 -1.86099 0)
(5.32603 2.00145 0)
(5.72626 -1.84911 0)
(5.21997 1.85333 0)
(5.78534 -1.87267 0)
(5.27073 2.28211 0)
(5.99607 -1.89936 0)
(5.19185 2.13729 0)
(6.08797 -1.91319 0)
(5.30627 2.56471 0)
(6.32344 -1.74743 0)
(5.22977 2.55512 0)
(6.40899 -1.94089 0)
(5.47243 3.01078 0)
(6.77096 -1.49911 0)
(5.67995 3.44774 0)
(6.80239 -1.85042 0)
(6.20997 3.9633 0)
(7.5184 -1.33681 0)
(7.09741 4.86493 0)
(8.20472 -0.484146 0)
(7.76652 5.335 0)
(9.44781 1.09358 0)
(10.5914 5.2406 0)
(12.986 -0.127073 0)
(13.2393 -0.00524377 0)
(13.8613 -0.156822 0)
(13.8193 -0.262201 0)
(13.8433 -0.289389 0)
(13.7786 -0.598052 0)
(13.8945 -0.759903 0)
(14.1737 -1.22758 0)
(14.2015 -1.6593 0)
(14.2273 -1.90251 0)
(14.0645 -2.3906 0)
(14.1025 -2.63654 0)
(13.9306 -2.9277 0)
(13.5677 -2.97058 0)
(13.4856 -2.80408 0)
(12.9823 -2.60769 0)
(12.4396 -1.81907 0)
(12.3314 -1.23921 0)
(11.8735 -0.535846 0)
(11.2417 0.504037 0)
(11.4644 1.00736 0)
(11.2995 1.35682 0)
(10.7585 1.51177 0)
(10.6525 1.20072 0)
(10.2804 0.813022 0)
(9.95443 0.40975 0)
(9.68315 -0.0201403 0)
(9.3484 -0.640841 0)
(9.26612 -1.25182 0)
(9.18293 -1.69275 0)
(9.02032 -2.24112 0)
(8.5885 -2.20492 0)
(7.2575 -0.635984 0)
(5.29725 1.44153 0)
(3.9562 1.56738 0)
(3.20895 -0.677523 0)
(2.02595 -3.77408 0)
(0.384811 -6.4919 0)
(-0.863357 -7.53583 0)
(-1.03081 -6.69334 0)
(-1.34854 -5.4849 0)
(-1.2918 -3.77152 0)
(-2.41052 -2.511 0)
(-1.34189 -0.375992 0)
(-1.71779 0.69129 0)
(-0.605731 2.05444 0)
(0.61866 1.52811 0)
(1.59523 4.55486 0)
(1.97136 3.10618 0)
(3.75846 6.72812 0)
(4.48569 5.16929 0)
(6.0566 7.31739 0)
(6.53457 5.0414 0)
(7.7417 5.79993 0)
(7.51861 2.58813 0)
(8.94126 3.34863 0)
(8.22836 0.522836 0)
(9.29746 0.757846 0)
(8.25536 -1.2608 0)
(8.57355 -0.325413 0)
(7.51203 -2.16533 0)
(7.54316 -0.139984 0)
(6.66332 -2.19193 0)
(6.70163 0.18036 0)
(6.09967 -1.76625 0)
(6.12636 0.567979 0)
(5.78283 -1.77842 0)
(5.82625 1.16837 0)
(5.67042 -1.75399 0)
(5.6109 1.22065 0)
(5.54216 -1.53171 0)
(5.54807 1.47372 0)
(5.52166 -1.83165 0)
(5.39764 1.72919 0)
(5.5624 -1.65161 0)
(5.34246 1.68646 0)
(5.56882 -1.92543 0)
(5.27284 2.07448 0)
(5.69485 -1.89234 0)
(5.19316 1.96992 0)
(5.76011 -2.06029 0)
(5.21894 2.4052 0)
(5.9594 -2.06404 0)
(5.1587 2.33358 0)
(6.02639 -2.20684 0)
(5.24023 2.77286 0)
(6.31863 -1.99441 0)
(5.38678 2.79139 0)
(6.37473 -2.34838 0)
(5.54022 3.21002 0)
(6.6907 -1.87104 0)
(6.07024 3.70576 0)
(6.77029 -2.07624 0)
(6.50699 3.89471 0)
(7.10641 -1.53118 0)
(7.26495 4.65737 0)
(7.63002 -0.428529 0)
(7.94838 4.80114 0)
(8.24622 0.906716 0)
(9.91118 4.41383 0)
(13.2207 -0.207338 0)
(13.4579 -0.13763 0)
(13.6994 -0.155562 0)
(13.4786 -0.20747 0)
(13.6303 -0.28614 0)
(13.8002 -0.673017 0)
(13.9612 -0.874759 0)
(14.0554 -1.21398 0)
(13.9459 -1.63458 0)
(13.9942 -1.8822 0)
(13.9245 -2.30888 0)
(13.8355 -2.58104 0)
(13.4978 -2.84039 0)
(13.1106 -2.88669 0)
(12.7827 -2.62122 0)
(12.0265 -2.3541 0)
(11.6282 -1.70124 0)
(11.4678 -1.09239 0)
(10.8808 -0.351141 0)
(10.6764 0.50274 0)
(10.885 1.05007 0)
(10.4414 1.55269 0)
(10.2553 1.59288 0)
(10.1296 1.30199 0)
(9.69991 0.952781 0)
(9.61376 0.513647 0)
(9.37172 0.0996926 0)
(9.14426 -0.567886 0)
(9.04689 -1.24718 0)
(8.78167 -1.6606 0)
(8.43101 -2.048 0)
(7.88794 -1.77074 0)
(6.60878 -0.0219216 0)
(4.84818 2.01157 0)
(3.85981 1.96394 0)
(3.36958 -0.265937 0)
(2.23944 -3.17935 0)
(0.454062 -5.85966 0)
(-1.23334 -7.15933 0)
(-1.75848 -6.54618 0)
(-2.12627 -5.27123 0)
(-2.28174 -3.62187 0)
(-3.05767 -2.39796 0)
(-1.97263 -0.392296 0)
(-2.7771 0.57983 0)
(-0.84177 1.57274 0)
(-0.641684 0.90643 0)
(1.35082 4.61042 0)
(0.914826 2.6295 0)
(2.64584 6.42403 0)
(2.92392 4.01515 0)
(5.62296 7.05582 0)
(5.6042 4.45826 0)
(7.48537 5.46038 0)
(6.98928 2.32885 0)
(8.83403 3.19232 0)
(8.04504 0.46857 0)
(9.18179 0.824888 0)
(8.07085 -1.07085 0)
(8.44727 -0.20076 0)
(7.4059 -1.89918 0)
(7.4026 -0.0325655 0)
(6.64653 -2.00578 0)
(6.65987 0.265873 0)
(6.04654 -1.64057 0)
(6.17112 0.592852 0)
(5.77597 -1.64707 0)
(5.85131 1.13384 0)
(5.61055 -1.66442 0)
(5.70795 1.22197 0)
(5.45714 -1.49097 0)
(5.60483 1.41994 0)
(5.45193 -1.73816 0)
(5.47046 1.70449 0)
(5.41157 -1.64477 0)
(5.43123 1.67466 0)
(5.44384 -1.83252 0)
(5.31149 2.08463 0)
(5.5274 -1.8526 0)
(5.31119 1.99742 0)
(5.57206 -2.01266 0)
(5.25131 2.42673 0)
(5.72645 -2.07931 0)
(5.28428 2.38191 0)
(5.79118 -2.25548 0)
(5.32549 2.80365 0)
(6.00419 -2.18372 0)
(5.50058 2.90657 0)
(6.11577 -2.42395 0)
(5.65532 3.31329 0)
(6.37801 -2.09771 0)
(6.12787 3.72603 0)
(6.7019 -2.07572 0)
(6.60354 3.8929 0)
(7.07655 -1.4917 0)
(7.33221 4.34337 0)
(7.74646 -0.274959 0)
(8.12872 4.22899 0)
(8.57889 1.02783 0)
(9.55061 3.51383 0)
(13.2902 -0.221645 0)
(13.2443 -0.0811164 0)
(13.3287 -0.0598732 0)
(13.3857 -0.249747 0)
(13.6972 -0.364607 0)
(13.7968 -0.690762 0)
(13.8231 -0.915471 0)
(13.8275 -1.1645 0)
(13.7884 -1.56567 0)
(13.8088 -1.87552 0)
(13.5477 -2.25837 0)
(13.2476 -2.48985 0)
(12.7363 -2.63524 0)
(12.0893 -2.65945 0)
(11.4879 -2.38038 0)
(10.7574 -2.08411 0)
(10.4362 -1.54425 0)
(10.0367 -0.915882 0)
(9.53354 -0.21994 0)
(9.68202 0.499911 0)
(9.71503 1.12184 0)
(9.49547 1.5538 0)
(9.63275 1.59287 0)
(9.37256 1.46022 0)
(9.22138 1.04661 0)
(9.14732 0.578339 0)
(8.77342 0.178803 0)
(8.72987 -0.508443 0)
(8.60755 -1.14641 0)
(8.15731 -1.50898 0)
(7.63952 -1.77691 0)
(7.00201 -1.29916 0)
(5.81051 0.536581 0)
(4.37574 2.44764 0)
(3.82375 2.2141 0)
(3.66293 0.105311 0)
(2.63662 -2.56521 0)
(0.739537 -5.12568 0)
(-1.33064 -6.63884 0)
(-2.20927 -6.22469 0)
(-2.62901 -4.9761 0)
(-2.90669 -3.60636 0)
(-3.32466 -2.41543 0)
(-2.54808 -0.465452 0)
(-3.85273 0.292269 0)
(-1.04152 0.824086 0)
(-1.98357 0.579678 0)
(0.43013 4.12053 0)
(-0.958081 1.67786 0)
(2.62621 6.57278 0)
(1.19475 3.13408 0)
(5.0824 6.97874 0)
(4.6705 3.80263 0)
(7.21664 5.15148 0)
(6.64395 2.14951 0)
(8.49895 3.00405 0)
(7.70769 0.342248 0)
(8.91161 0.837951 0)
(7.58656 -0.930792 0)
(8.33263 -0.133645 0)
(7.02189 -1.65407 0)
(7.34334 0.0800268 0)
(6.38479 -1.79475 0)
(6.63747 0.323275 0)
(5.80322 -1.4403 0)
(6.24684 0.540758 0)
(5.53737 -1.49276 0)
(5.89799 1.08684 0)
(5.45035 -1.53787 0)
(5.73947 1.15012 0)
(5.30979 -1.3458 0)
(5.63171 1.36309 0)
(5.31885 -1.64323 0)
(5.48962 1.67026 0)
(5.31946 -1.53561 0)
(5.44079 1.64987 0)
(5.37202 -1.7656 0)
(5.32037 2.06024 0)
(5.46393 -1.81323 0)
(5.32395 1.99615 0)
(5.51365 -1.96597 0)
(5.24512 2.43725 0)
(5.69107 -2.03756 0)
(5.30757 2.44143 0)
(5.76319 -2.23987 0)
(5.33824 2.89057 0)
(5.99107 -2.1491 0)
(5.58888 2.97486 0)
(6.1653 -2.46078 0)
(5.74526 3.34026 0)
(6.38118 -2.07341 0)
(6.24247 3.72803 0)
(6.76813 -1.99318 0)
(6.7452 3.66475 0)