/*--------------------------------*- C++ -*----------------------------------*\
| =========                 |                                                 |
| \\      /  F ield         | OpenFOAM: The Open Source CFD Toolbox           |
|  \\    /   O peration     | Version:  2.4.0                                 |
|   \\  /    A nd           | Web:      www.OpenFOAM.org                      |
|    \\/     M anipulation  |                                                 |
\*---------------------------------------------------------------------------*/
FoamFile
{
    version     2.0;
    format      ascii;
    class       volScalarField;
    location    "0.032";
    object      nuSgs;
}
// * * * * * * * * * * * * * * * * * * * * * * * * * * * * * * * * * * * * * //

dimensions      [0 2 -1 0 0 0 0];

internalField   nonuniform List<scalar> 
17600
(
0.00101319
0.000904839
0.000752298
0.00065872
0.000607856
0.000569839
0.000546612
0.000521264
0.00050624
0.000493301
0.000482606
0.000473222
0.000465006
0.000456962
0.000450717
0.000440754
0.000430791
0.000427193
0.000410487
0.000406778
0.000705826
0.000827936
0.000803459
0.000746422
0.000699127
0.000657685
0.000631647
0.000603753
0.000585827
0.00057084
0.000556959
0.000546048
0.000537297
0.000528028
0.000522398
0.000512095
0.000500736
0.000499155
0.000484045
0.000486687
0.000382833
0.000602023
0.000664826
0.000661181
0.00064564
0.000617088
0.0005976
0.000576459
0.000560064
0.000547265
0.000534582
0.000524239
0.00051702
0.00050774
0.000503381
0.000496291
0.000485459
0.000484188
0.000475695
0.000470462
0.000151702
0.000363023
0.000462308
0.000505809
0.000527773
0.000526666
0.000522472
0.000514987
0.000504629
0.000496777
0.000488718
0.000480482
0.000476208
0.000468176
0.000464871
0.000461406
0.000454112
0.000450859
0.000449722
0.000441956
5.36755e-05
0.000170474
0.000268443
0.000324288
0.000372168
0.000397315
0.000410579
0.000421993
0.000423184
0.000422766
0.000422381
0.000419754
0.00041886
0.000415176
0.000413386
0.000412112
0.000411294
0.000406636
0.000409585
0.000404709
1.74337e-05
6.93847e-05
0.000128252
0.000167549
0.000215983
0.000252779
0.000274148
0.000301507
0.000316217
0.000323869
0.000335138
0.000338531
0.000344525
0.000345846
0.000347694
0.00034905
0.000354169
0.000352459
0.000356742
0.000355748
5.60548e-06
2.64262e-05
5.23923e-05
7.17205e-05
9.9028e-05
0.000133677
0.00014963
0.000177326
0.000199692
0.000210104
0.000230045
0.000240149
0.000251868
0.000260204
0.000266275
0.000271328
0.00028211
0.00028484
0.00029078
0.000295392
2.36667e-06
9.77321e-06
1.9529e-05
2.72528e-05
3.80412e-05
5.68966e-05
6.7018e-05
8.35782e-05
0.000103886
0.000112373
0.000129252
0.000142052
0.000153695
0.000167301
0.000174473
0.000184077
0.000196176
0.000204739
0.000211586
0.000222971
1.73428e-06
3.90607e-06
7.31636e-06
1.03298e-05
1.3848e-05
2.06469e-05
2.51692e-05
3.18301e-05
4.37952e-05
4.88189e-05
5.84254e-05
6.86205e-05
7.59894e-05
8.833e-05
9.38618e-05
0.000103567
0.000113175
0.00012324
0.000129554
0.000143685
1.62196e-06
2.24217e-06
3.24608e-06
4.64744e-06
5.65382e-06
7.69867e-06
9.11911e-06
1.11893e-05
1.5424e-05
1.74431e-05
2.1616e-05
2.66928e-05
3.08084e-05
3.80401e-05
4.13272e-05
4.64267e-05
5.35084e-05
6.03463e-05
6.4691e-05
7.52178e-05
1.61555e-06
1.96491e-06
2.39791e-06
2.69479e-06
3.22065e-06
4.07037e-06
4.40457e-06
4.82006e-06
5.75039e-06
6.19266e-06
7.44531e-06
9.13281e-06
1.11964e-05
1.40988e-05
1.54535e-05
1.7272e-05
2.08207e-05
2.39613e-05
2.61362e-05
3.16336e-05
1.57482e-06
2.01059e-06
2.20718e-06
2.32719e-06
2.62738e-06
3.0532e-06
3.25656e-06
3.3594e-06
3.45398e-06
3.48402e-06
3.65356e-06
4.02977e-06
4.78452e-06
5.70079e-06
6.08688e-06
6.58294e-06
7.71871e-06
8.51495e-06
9.25572e-06
1.10479e-05
1.5554e-06
1.95459e-06
2.11572e-06
2.30258e-06
2.44412e-06
2.69917e-06
2.87819e-06
2.92892e-06
2.96707e-06
2.95745e-06
2.96405e-06
3.0095e-06
3.19493e-06
3.54321e-06
3.6752e-06
3.78244e-06
4.0261e-06
4.09952e-06
4.21806e-06
4.43734e-06
1.54285e-06
1.88973e-06
2.11763e-06
2.16822e-06
2.30525e-06
2.4814e-06
2.58641e-06
2.69878e-06
2.73381e-06
2.71056e-06
2.70287e-06
2.71282e-06
2.75761e-06
2.92883e-06
3.05189e-06
3.10807e-06
3.15304e-06
3.15107e-06
3.15545e-06
3.21275e-06
1.53275e-06
1.79934e-06
2.07126e-06
2.13266e-06
2.20456e-06
2.31726e-06
2.4102e-06
2.49574e-06
2.51766e-06
2.50788e-06
2.50076e-06
2.50325e-06
2.53243e-06
2.66351e-06
2.74151e-06
2.77177e-06
2.79997e-06
2.79733e-06
2.79911e-06
2.88005e-06
1.52239e-06
1.76623e-06
2.03016e-06
2.05349e-06
2.11696e-06
2.21607e-06
2.27843e-06
2.346e-06
2.36538e-06
2.35579e-06
2.34699e-06
2.35105e-06
2.38124e-06
2.46603e-06
2.51929e-06
2.54239e-06
2.55812e-06
2.55299e-06
2.55595e-06
2.5805e-06
1.51641e-06
1.72131e-06
1.97741e-06
2.015e-06
2.06056e-06
2.13416e-06
2.18986e-06
2.23459e-06
2.2405e-06
2.2316e-06
2.22655e-06
2.23034e-06
2.2601e-06
2.32657e-06
2.35838e-06
2.36905e-06
2.37846e-06
2.37535e-06
2.3696e-06
2.37835e-06
1.51123e-06
1.70905e-06
1.95672e-06
1.96824e-06
2.00208e-06
2.08111e-06
2.11691e-06
2.15352e-06
2.15732e-06
2.14766e-06
2.14266e-06
2.14773e-06
2.17982e-06
2.2202e-06
2.23935e-06
2.24969e-06
2.2539e-06
2.24632e-06
2.23785e-06
2.26397e-06
1.50843e-06
1.69082e-06
1.91852e-06
1.94097e-06
1.98321e-06
2.04801e-06
2.07942e-06
2.10423e-06
2.10268e-06
2.0892e-06
2.0871e-06
2.0929e-06
2.12386e-06
2.15391e-06
2.16637e-06
2.1713e-06
2.17269e-06
2.16269e-06
2.1544e-06
2.19733e-06
1.50654e-06
1.68132e-06
1.91308e-06
1.93044e-06
1.96388e-06
2.03222e-06
2.05688e-06
2.07814e-06
2.07703e-06
2.06486e-06
2.06315e-06
2.06957e-06
2.09979e-06
2.12222e-06
2.1296e-06
2.13558e-06
2.13619e-06
2.12518e-06
2.11353e-06
2.12065e-06
1.50659e-06
1.67311e-06
1.90094e-06
1.93336e-06
1.96774e-06
2.03544e-06
2.06065e-06
2.08128e-06
2.07983e-06
2.06561e-06
2.06405e-06
2.07047e-06
2.09965e-06
2.12342e-06
2.1303e-06
2.13634e-06
2.13608e-06
2.12341e-06
2.11396e-06
2.12923e-06
1.50762e-06
1.67301e-06
1.91349e-06
1.95326e-06
1.97903e-06
2.05292e-06
2.08152e-06
2.105e-06
2.10592e-06
2.09404e-06
2.09178e-06
2.09755e-06
2.12879e-06
2.15905e-06
2.16607e-06
2.17407e-06
2.17464e-06
2.16489e-06
2.15574e-06
2.16599e-06
1.51039e-06
1.67772e-06
1.92886e-06
1.987e-06
2.01008e-06
2.0903e-06
2.12605e-06
2.15721e-06
2.16279e-06
2.15139e-06
2.14858e-06
2.15353e-06
2.18529e-06
2.23024e-06
2.24239e-06
2.25414e-06
2.2556e-06
2.24807e-06
2.24033e-06
2.25065e-06
1.5147e-06
1.68221e-06
1.96315e-06
2.04285e-06
2.06072e-06
2.14368e-06
2.19285e-06
2.2336e-06
2.24897e-06
2.23809e-06
2.23568e-06
2.24034e-06
2.27304e-06
2.33987e-06
2.35921e-06
2.37821e-06
2.38191e-06
2.37612e-06
2.37315e-06
2.39049e-06
1.52098e-06
1.69698e-06
2.00621e-06
2.11392e-06
2.12978e-06
2.21477e-06
2.28446e-06
2.33947e-06
2.37021e-06
2.35864e-06
2.35575e-06
2.36048e-06
2.39242e-06
2.48974e-06
2.52234e-06
2.55287e-06
2.56129e-06
2.55687e-06
2.55858e-06
2.59842e-06
1.52984e-06
1.72447e-06
2.06073e-06
2.19882e-06
2.21756e-06
2.31341e-06
2.40879e-06
2.47903e-06
2.52892e-06
2.51649e-06
2.51218e-06
2.51744e-06
2.54951e-06
2.68357e-06
2.74315e-06
2.78903e-06
2.80457e-06
2.80432e-06
2.8107e-06
2.83712e-06
1.541e-06
1.78939e-06
2.12001e-06
2.28398e-06
2.31966e-06
2.46409e-06
2.59439e-06
2.66812e-06
2.73092e-06
2.71666e-06
2.71277e-06
2.72281e-06
2.7702e-06
2.9644e-06
3.05035e-06
3.13281e-06
3.16376e-06
3.17747e-06
3.19717e-06
3.25077e-06
1.55493e-06
1.87294e-06
2.1935e-06
2.36221e-06
2.45771e-06
2.73028e-06
2.88867e-06
2.93743e-06
2.99063e-06
2.97119e-06
2.98039e-06
3.03593e-06
3.1976e-06
3.56128e-06
3.67076e-06
3.90314e-06
4.02875e-06
4.23403e-06
4.4184e-06
4.90495e-06
1.57464e-06
1.9032e-06
2.36659e-06
2.47795e-06
2.70943e-06
3.19684e-06
3.37919e-06
3.42652e-06
3.53345e-06
3.53019e-06
3.69022e-06
4.21602e-06
4.78897e-06
5.76297e-06
6.11837e-06
7.11015e-06
7.78713e-06
9.15941e-06
1.01331e-05
1.25978e-05
1.61586e-06
1.96105e-06
2.79069e-06
2.97792e-06
3.28946e-06
4.23646e-06
4.65079e-06
5.01022e-06
5.95747e-06
6.32592e-06
7.45985e-06
9.88133e-06
1.13894e-05
1.42324e-05
1.55215e-05
1.88978e-05
2.10624e-05
2.54399e-05
2.81305e-05
3.49142e-05
1.63638e-06
2.30623e-06
4.09006e-06
4.73575e-06
5.6693e-06
8.19233e-06
9.56023e-06
1.14256e-05
1.58079e-05
1.76682e-05
2.1619e-05
2.80145e-05
3.14982e-05
3.82539e-05
4.14515e-05
4.9339e-05
5.37892e-05
6.29022e-05
6.78629e-05
8.08225e-05
1.74245e-06
3.93634e-06
8.19942e-06
1.06012e-05
1.39023e-05
2.17703e-05
2.61106e-05
3.18667e-05
4.42289e-05
4.91632e-05
5.84022e-05
7.03725e-05
7.647e-05
8.87809e-05
9.42077e-05
0.000107048
0.000113426
0.000126783
0.000133321
0.00014981
2.33829e-06
9.71535e-06
2.03794e-05
2.80869e-05
3.79823e-05
5.84195e-05
6.86021e-05
8.14173e-05
0.000105385
0.000113315
0.000128675
0.000144074
0.000152551
0.000168727
0.000174679
0.000188623
0.00019503
0.000208722
0.00021457
0.000228767
5.56628e-06
2.6243e-05
5.34763e-05
7.30077e-05
9.71689e-05
0.000135341
0.000151247
0.000174483
0.000202207
0.000211105
0.000229169
0.000241392
0.000250907
0.000261921
0.000265857
0.00027563
0.000279817
0.000288968
0.000292247
0.000300135
1.73724e-05
6.91907e-05
0.000129392
0.000167666
0.000215055
0.000253359
0.000275611
0.000299192
0.000318587
0.000323662
0.000335171
0.000338935
0.000344381
0.000346616
0.000347718
0.000351307
0.000352783
0.000355995
0.000356813
0.000358725
5.34519e-05
0.000170493
0.000268288
0.000324332
0.000372128
0.00039739
0.000411591
0.000420589
0.000424451
0.000422362
0.000422921
0.000419563
0.000419071
0.000415163
0.000414145
0.000412132
0.000411352
0.000409199
0.000408078
0.000406338
0.000150935
0.000363121
0.000461894
0.000505816
0.000528086
0.000526648
0.000522826
0.000514195
0.00050615
0.00049549
0.000490325
0.000479057
0.000476476
0.000467522
0.000465704
0.000459125
0.000456627
0.000449927
0.000447698
0.000443642
0.000381011
0.000602777
0.000664661
0.000661122
0.000646273
0.00061646
0.000598334
0.000576035
0.000560769
0.000546234
0.000536254
0.000521919
0.000518121
0.000505881
0.000503832
0.000492721
0.000489241
0.000478567
0.000476044
0.000468928
0.000704893
0.000828479
0.000803506
0.000746204
0.000699807
0.000656885
0.000632225
0.000603802
0.000585782
0.00057023
0.000558283
0.000543322
0.000538988
0.00052485
0.000522837
0.000507509
0.000503955
0.000489724
0.000487313
0.000474826
0.00101245
0.000905073
0.000752435
0.0006586
0.000608357
0.000569366
0.000546728
0.000521655
0.000505834
0.00049284
0.000483479
0.000470808
0.000466632
0.000453207
0.000451608
0.000435415
0.000432814
0.000416755
0.000414113
0.000395139
0.000181299
0.000159907
0.000146633
0.000116883
0.000106549
0.000105596
9.55292e-05
6.81337e-05
4.85693e-05
4.60207e-05
4.8311e-05
4.38282e-05
4.27117e-05
4.7147e-05
4.87274e-05
4.9643e-05
5.02795e-05
5.16479e-05
5.56888e-05
5.74074e-05
5.62247e-05
5.37246e-05
5.14492e-05
5.04805e-05
6.13842e-05
8.31931e-05
9.37573e-05
9.87688e-05
9.79224e-05
9.20677e-05
7.28963e-05
5.0534e-05
3.31379e-05
2.13183e-05
1.476e-05
1.17092e-05
1.07866e-05
1.04646e-05
1.02241e-05
1.02016e-05
1.06338e-05
1.16523e-05
1.20337e-05
1.19963e-05
1.13734e-05
1.09144e-05
1.10203e-05
1.16883e-05
1.1842e-05
1.16226e-05
1.1269e-05
1.12621e-05
1.16041e-05
1.18844e-05
1.19055e-05
1.18409e-05
1.172e-05
1.16355e-05
1.15839e-05
1.15189e-05
1.13728e-05
1.08379e-05
9.50055e-06
8.09392e-06
6.75784e-06
5.54816e-06
4.48949e-06
3.59172e-06
2.85002e-06
2.24895e-06
1.76902e-06
1.39003e-06
1.09305e-06
8.61365e-07
6.80929e-07
5.40308e-07
4.30437e-07
3.44263e-07
2.76367e-07
2.22613e-07
1.79854e-07
1.4569e-07
1.18283e-07
9.62172e-08
7.83969e-08
6.39664e-08
5.22539e-08
4.27289e-08
3.49698e-08
2.86405e-08
2.34712e-08
1.92453e-08
1.57876e-08
1.29564e-08
1.06368e-08
8.7355e-09
7.17628e-09
5.89715e-09
4.84746e-09
3.98581e-09
3.27835e-09
2.69736e-09
2.22015e-09
1.82812e-09
1.50602e-09
1.24136e-09
1.02389e-09
8.45203e-10
6.98403e-10
5.77849e-10
4.78887e-10
3.97706e-10
3.31262e-10
2.76887e-10
2.32633e-10
1.96798e-10
1.67822e-10
1.44953e-10
1.27242e-10
1.13096e-10
1.04927e-10
9.69472e-11
9.68408e-11
9.72907e-11
1.04235e-10
1.08236e-10
1.32727e-10
1.38654e-10
1.96899e-10
2.03243e-10
3.29713e-10
3.49275e-10
5.71494e-10
7.0522e-10
9.18498e-10
1.71664e-09
1.70504e-09
3.76542e-09
3.31825e-09
6.71511e-09
7.08257e-09
9.51726e-09
1.68215e-08
2.60649e-08
5.06179e-08
8.90873e-08
1.48984e-07
2.50224e-07
3.26787e-07
4.84923e-07
5.0509e-07
5.71909e-07
6.00414e-07
6.32482e-07
7.04854e-07
7.70622e-07
9.12176e-07
9.48349e-07
1.05154e-06
1.09991e-06
1.22255e-06
1.25688e-06
1.36319e-06
1.4005e-06
1.52293e-06
1.55298e-06
1.67283e-06
1.69166e-06
1.81093e-06
1.77187e-06
1.79863e-06
1.69e-06
1.68948e-06
1.58867e-06
1.58312e-06
1.52604e-06
1.59227e-06
1.61422e-06
1.69548e-06
1.85761e-06
1.95903e-06
2.32095e-06
2.31341e-06
2.55807e-06
2.25361e-06
2.22949e-06
2.02073e-06
2.13182e-06
2.48029e-06
2.51768e-06
2.82217e-06
2.86438e-06
3.26817e-06
4.12336e-06
5.24738e-06
7.33049e-06
1.09635e-05
1.62114e-05
3.40702e-05
0.000140437
0.000232946
0.000194147
0.00017994
0.000164336
0.000143603
0.00013961
0.000135411
0.000122781
9.83712e-05
8.5749e-05
7.46399e-05
5.60568e-05
4.88936e-05
5.05837e-05
5.03832e-05
4.82278e-05
4.77723e-05
4.97308e-05
5.61671e-05
5.81731e-05
5.61998e-05
5.10762e-05
4.76306e-05
4.70706e-05
5.86038e-05
8.38282e-05
9.7144e-05
0.000100281
9.67842e-05
8.08667e-05
5.52247e-05
3.60384e-05
2.33774e-05
1.5781e-05
1.18694e-05
1.04226e-05
1.00431e-05
9.90837e-06
9.66292e-06
9.64835e-06
1.03771e-05
1.13627e-05
1.16675e-05
1.16421e-05
1.11752e-05
1.06528e-05
1.063e-05
1.13218e-05
1.17478e-05
1.1661e-05
1.11809e-05
1.10542e-05
1.13047e-05
1.21183e-05
1.24614e-05
1.24588e-05
1.22867e-05
1.20618e-05
1.18784e-05
1.16815e-05
1.13283e-05
1.04559e-05
9.2855e-06
8.00954e-06
6.74332e-06
5.56753e-06
4.52552e-06
3.63212e-06
2.88718e-06
2.28038e-06
1.79451e-06
1.41025e-06
1.10891e-06
8.73741e-07
6.90553e-07
5.47771e-07
4.36204e-07
3.48703e-07
2.7977e-07
2.2521e-07
1.81826e-07
1.47181e-07
1.19404e-07
9.70576e-08
7.90241e-08
6.44327e-08
5.25995e-08
4.29842e-08
3.51579e-08
2.87787e-08
2.35726e-08
1.93194e-08
1.58417e-08
1.29958e-08
1.06655e-08
8.75626e-09
7.19129e-09
5.90798e-09
4.85524e-09
3.99137e-09
3.2823e-09
2.70015e-09
2.22209e-09
1.82945e-09
1.50691e-09
1.24194e-09
1.02425e-09
8.45409e-10
6.98502e-10
5.77875e-10
4.78866e-10
3.97656e-10
3.31194e-10
2.76813e-10
2.32564e-10
1.96731e-10
1.67772e-10
1.44886e-10
1.27231e-10
1.13006e-10
1.05001e-10
9.68505e-11
9.6908e-11
9.71976e-11
1.05077e-10
1.08161e-10
1.36149e-10
1.39138e-10
2.10562e-10
2.08855e-10
3.82284e-10
3.83682e-10
7.53895e-10
8.7334e-10
1.35144e-09
2.2252e-09
2.73737e-09
5.78471e-09
5.87447e-09
1.23353e-08
1.24893e-08
2.34571e-08
2.61222e-08
4.27673e-08
5.32088e-08
7.03139e-08
1.0174e-07
1.19931e-07
1.75773e-07
1.87098e-07
2.21493e-07
2.67904e-07
3.16883e-07
4.12805e-07
4.94109e-07
6.44106e-07
6.8551e-07
7.81828e-07
8.4022e-07
9.67831e-07
1.0206e-06
1.12622e-06
1.18364e-06
1.30843e-06
1.37009e-06
1.50236e-06
1.58254e-06
1.80457e-06
1.87724e-06
2.11531e-06
2.17599e-06
2.43253e-06
2.44724e-06
2.57113e-06
2.44182e-06
2.42913e-06
2.18974e-06
2.11081e-06
1.90004e-06
1.93427e-06
1.96647e-06
2.08866e-06
2.40849e-06
2.46565e-06
2.84292e-06
2.56198e-06
2.56982e-06
2.33913e-06
2.44815e-06
3.00374e-06
2.93535e-06
3.01595e-06
3.35975e-06
4.11202e-06
5.69874e-06
7.28428e-06
1.0104e-05
1.51217e-05
3.61106e-05
0.000118846
0.00023506
0.000209797
0.0001903
0.000181418
0.000167558
0.00015709
0.000154038
0.000149019
0.000136288
0.000126751
0.000120354
0.000103217
8.14399e-05
7.18227e-05
6.34698e-05
5.38956e-05
5.06457e-05
5.1968e-05
6.2227e-05
6.70989e-05
6.35046e-05
5.29399e-05
4.8577e-05
5.0228e-05
6.47183e-05
8.38898e-05
9.15495e-05
8.96805e-05
7.78344e-05
5.15847e-05
3.45325e-05
2.31959e-05
1.62146e-05
1.21063e-05
9.90032e-06
9.32638e-06
9.35331e-06
9.36766e-06
9.06185e-06
8.92428e-06
9.60489e-06
1.05196e-05
1.0798e-05
1.0818e-05
1.05981e-05
1.03235e-05
1.03248e-05
1.09416e-05
1.15441e-05
1.1559e-05
1.11243e-05
1.08546e-05
1.09346e-05
1.18716e-05
1.28876e-05
1.3243e-05
1.32374e-05
1.3012e-05
1.26295e-05
1.20661e-05
1.12783e-05
1.0273e-05
9.11109e-06
7.8869e-06
6.67892e-06
5.54575e-06
4.5285e-06
3.64869e-06
2.90948e-06
2.30291e-06
1.81475e-06
1.42737e-06
1.12287e-06
8.84867e-07
6.99286e-07
5.54546e-07
4.41413e-07
3.52677e-07
2.82782e-07
2.27481e-07
1.83531e-07
1.48456e-07
1.20356e-07
9.77666e-08
7.95514e-08
6.48245e-08
5.28903e-08
4.31999e-08
3.53179e-08
2.88972e-08
2.36604e-08
1.93844e-08
1.58898e-08
1.30314e-08
1.06918e-08
8.77565e-09
7.20558e-09
5.91849e-09
4.86294e-09
3.99699e-09
3.28638e-09
2.70308e-09
2.22418e-09
1.83092e-09
1.50793e-09
1.24264e-09
1.02472e-09
8.45721e-10
6.98696e-10
5.77987e-10
4.78925e-10
3.97675e-10
3.31181e-10
2.76775e-10
2.32509e-10
1.96653e-10
1.67687e-10
1.44761e-10
1.27143e-10
1.12824e-10
1.04932e-10
9.66414e-11
9.68399e-11
9.69621e-11
1.05889e-10
1.07946e-10
1.40039e-10
1.39773e-10
2.25348e-10
2.14816e-10
4.45327e-10
4.26242e-10
9.95986e-10
1.12058e-09
1.93448e-09
3.08378e-09
3.92835e-09
8.19796e-09
8.27464e-09
1.56655e-08
1.60134e-08
2.26852e-08
2.54246e-08
2.93034e-08
3.79633e-08
4.19092e-08
4.6496e-08
5.91436e-08
7.84746e-08
1.04911e-07
1.78862e-07
2.50678e-07
3.78992e-07
4.15247e-07
5.17414e-07
5.34286e-07
5.75872e-07
5.92956e-07
6.32646e-07
6.6112e-07
6.83489e-07
7.25481e-07
7.89148e-07
8.36102e-07
9.17116e-07
9.9879e-07
1.18052e-06
1.30004e-06
1.56299e-06
1.69692e-06
2.01004e-06
2.15658e-06
2.5105e-06
2.5945e-06
2.96804e-06
3.00815e-06
3.26061e-06
3.11129e-06
3.0744e-06
2.68637e-06
2.55607e-06
2.27094e-06
2.33483e-06
2.47496e-06
2.63302e-06
3.23362e-06
2.91274e-06
2.9498e-06
2.67271e-06
2.92209e-06
3.58922e-06
3.38997e-06
3.53758e-06
4.09362e-06
5.16493e-06
7.06173e-06
1.06016e-05
1.38571e-05
3.53891e-05
9.66297e-05
0.000223165
0.00020397
0.000188938
0.000179126
0.000170272
0.000161217
0.000158441
0.000156747
0.000151246
0.000141693
0.000137097
0.000134685
0.00012605
0.000116362
0.000107114
8.56858e-05
7.25632e-05
7.28116e-05
8.70379e-05
9.3329e-05
8.42503e-05
6.79583e-05
6.53762e-05
7.33286e-05
8.51999e-05
8.36971e-05
7.82513e-05
6.62562e-05
4.77789e-05
3.343e-05
2.29507e-05
1.57903e-05
1.19355e-05
9.99366e-06
8.77342e-06
8.26271e-06
8.23362e-06
8.36151e-06
8.3896e-06
8.52101e-06
9.3171e-06
9.91607e-06
9.90722e-06
9.73693e-06
9.73296e-06
9.89376e-06
1.0136e-05
1.0664e-05
1.11707e-05
1.12437e-05
1.10039e-05
1.06909e-05
1.06771e-05
1.11457e-05
1.2672e-05
1.35013e-05
1.37136e-05
1.3702e-05
1.35193e-05
1.26928e-05
1.15386e-05
1.03385e-05
9.09537e-06
7.84494e-06
6.63666e-06
5.51646e-06
4.51563e-06
3.64877e-06
2.91801e-06
2.3159e-06
1.829e-06
1.44096e-06
1.13489e-06
8.95016e-07
7.07599e-07
5.6121e-07
4.46667e-07
3.56764e-07
2.85926e-07
2.29876e-07
1.85341e-07
1.49814e-07
1.21369e-07
9.85192e-08
8.01087e-08
6.52362e-08
5.3194e-08
4.34236e-08
3.54825e-08
2.90184e-08
2.37495e-08
1.94499e-08
1.59378e-08
1.30667e-08
1.07177e-08
8.79467e-09
7.21953e-09
5.92871e-09
4.87044e-09
4.00249e-09
3.29041e-09
2.70603e-09
2.22634e-09
1.8325e-09
1.50908e-09
1.24346e-09
1.0253e-09
8.46114e-10
6.98951e-10
5.78138e-10
4.78993e-10
3.97678e-10
3.31135e-10
2.76694e-10
2.32402e-10
1.96522e-10
1.6755e-10
1.44588e-10
1.27007e-10
1.12598e-10
1.04819e-10
9.63837e-11
9.67662e-11
9.66421e-11
1.06711e-10
1.07683e-10
1.44116e-10
1.40471e-10
2.44589e-10
2.22584e-10
5.41139e-10
4.9737e-10
1.41537e-09
1.56072e-09
3.2311e-09
4.96519e-09
7.12168e-09
1.49266e-08
1.65888e-08
3.43555e-08
3.90343e-08
5.87791e-08
8.43547e-08
1.12325e-07
1.79981e-07
2.33733e-07
2.99715e-07
4.49671e-07
4.63822e-07
5.83494e-07
6.10125e-07
6.88257e-07
6.9952e-07
7.37647e-07
7.38373e-07
7.36656e-07
7.64807e-07
7.65953e-07
7.90825e-07
7.82796e-07
7.95767e-07
8.01526e-07
8.44743e-07
8.5004e-07
8.90069e-07
8.98255e-07
9.27231e-07
9.48851e-07
1.0058e-06
1.07622e-06
1.22157e-06
1.36385e-06
1.60939e-06
2.06299e-06
2.30968e-06
2.79979e-06
2.99718e-06
3.52869e-06
3.56914e-06
3.89421e-06
3.67516e-06
3.49605e-06
2.90251e-06
2.74865e-06
2.75111e-06
2.93976e-06
3.59064e-06
3.27658e-06
3.4962e-06
3.15643e-06
3.3789e-06
4.05441e-06
3.91746e-06
4.36549e-06
5.72017e-06
6.83827e-06
1.16503e-05
1.38057e-05
3.36342e-05
7.82577e-05
0.000207516
0.000191914
0.000179582
0.000171043
0.000163939
0.000154449
0.000150783
0.000150738
0.000149648
0.000143295
0.000138445
0.000137791
0.000135336
0.000129765
0.000127617
0.000123626
0.000113221
0.000109182
0.000109079
0.000109801
0.000106723
9.90165e-05
9.80118e-05
9.68899e-05
9.28129e-05
8.43471e-05
6.57811e-05
4.69702e-05
3.26009e-05
2.24529e-05
1.5402e-05
1.10328e-05
9.3366e-06
8.82361e-06
8.13079e-06
7.51258e-06
7.34478e-06
7.61327e-06
8.01514e-06
8.43845e-06
9.44531e-06
9.86944e-06
9.7935e-06
9.4193e-06
9.37262e-06
9.70896e-06
1.01613e-05
1.03679e-05
1.05675e-05
1.06858e-05
1.06714e-05
1.0498e-05
1.04334e-05
1.04865e-05
1.12893e-05
1.29247e-05
1.36589e-05
1.37923e-05
1.37326e-05
1.33677e-05
1.21191e-05
1.06578e-05
9.24043e-06
7.89385e-06
6.64279e-06
5.50854e-06
4.50663e-06
3.64395e-06
2.91841e-06
2.3207e-06
1.83655e-06
1.4496e-06
1.14344e-06
9.02792e-07
7.14301e-07
5.66777e-07
4.51173e-07
3.60341e-07
2.88723e-07
2.32037e-07
1.86994e-07
1.51069e-07
1.22316e-07
9.92288e-08
8.06384e-08
6.56303e-08
5.34863e-08
4.364e-08
3.56425e-08
2.91365e-08
2.38366e-08
1.95141e-08
1.59852e-08
1.31016e-08
1.07434e-08
8.81365e-09
7.23351e-09
5.939e-09
4.878e-09
4.00803e-09
3.29445e-09
2.70896e-09
2.22845e-09
1.83399e-09
1.51011e-09
1.24415e-09
1.02575e-09
8.46377e-10
6.99079e-10
5.78171e-10
4.78961e-10
3.97601e-10
3.31024e-10
2.76561e-10
2.32256e-10
1.96357e-10
1.67378e-10
1.44386e-10
1.26839e-10
1.1234e-10
1.04659e-10
9.60857e-11
9.66484e-11
9.62758e-11
1.07459e-10
1.0742e-10
1.48128e-10
1.41234e-10
2.68108e-10
2.3576e-10
6.66743e-10
6.015e-10
2.02273e-09
2.16724e-09
5.59456e-09
7.77598e-09
1.30606e-08
2.32157e-08
3.1961e-08
6.05269e-08
7.20119e-08
1.2071e-07
1.45975e-07
2.07343e-07
2.41618e-07
2.96587e-07
3.25245e-07
3.60725e-07
4.557e-07
5.04886e-07
6.11342e-07
6.32349e-07
6.6371e-07
6.97011e-07
7.31369e-07
8.10653e-07
8.33675e-07
9.14418e-07
9.36951e-07
9.9093e-07
1.02239e-06
1.12926e-06
1.14698e-06
1.22475e-06
1.22803e-06
1.28543e-06
1.2623e-06
1.2879e-06
1.24388e-06
1.2596e-06
1.25833e-06
1.31772e-06
1.3392e-06
1.42491e-06
1.51894e-06
1.76571e-06
2.10205e-06
2.50873e-06
3.26034e-06
3.54204e-06
4.28072e-06
4.2499e-06
4.48068e-06
3.88363e-06
3.42432e-06
3.10922e-06
3.27447e-06
3.91686e-06
3.76434e-06
4.30068e-06
3.79676e-06
3.95878e-06
4.23209e-06
4.44861e-06
6.15002e-06
6.8394e-06
1.41113e-05
1.44542e-05
3.04607e-05
6.37464e-05
0.000185538
0.000174513
0.000164044
0.000156489
0.000151844
0.000145062
0.000138749
0.000137829
0.000138323
0.000136862
0.000131866
0.00013082
0.000129761
0.000126622
0.0001253
0.000125278
0.00012429
0.000118826
0.000111902
0.000110214
0.000110434
0.000109988
0.000107075
0.000101131
9.00991e-05
6.90487e-05
4.78172e-05
3.19322e-05
2.16502e-05
1.49e-05
1.04642e-05
8.20176e-06
7.84966e-06
8.06406e-06
7.80108e-06
7.24692e-06
7.07598e-06
7.21076e-06
7.86493e-06
8.77901e-06
9.81977e-06
1.0093e-05
9.92972e-06
9.42128e-06
9.34339e-06
9.76618e-06
1.02533e-05
1.0277e-05
1.00894e-05
1.00173e-05
1.01087e-05
1.01573e-05
1.01368e-05
1.01408e-05
1.02898e-05
1.11788e-05
1.25376e-05
1.3232e-05
1.34052e-05
1.33358e-05
1.26698e-05
1.11318e-05
9.55079e-06
8.06592e-06
6.72354e-06
5.53898e-06
4.51428e-06
3.64409e-06
2.91807e-06
2.32233e-06
1.84045e-06
1.45515e-06
1.14975e-06
9.09118e-07
7.20129e-07
5.71847e-07
4.55405e-07
3.63767e-07
2.91435e-07
2.34147e-07
1.88615e-07
1.52302e-07
1.23246e-07
9.99264e-08
8.11593e-08
6.60179e-08
5.3774e-08
4.38532e-08
3.58001e-08
2.9253e-08
2.39226e-08
1.95776e-08
1.6032e-08
1.3136e-08
1.07687e-08
8.83223e-09
7.24713e-09
5.94896e-09
4.88526e-09
4.0133e-09
3.29825e-09
2.71169e-09
2.23039e-09
1.83535e-09
1.51106e-09
1.24479e-09
1.02616e-09
8.46628e-10
6.99209e-10
5.78208e-10
4.78927e-10
3.97511e-10
3.30894e-10
2.76403e-10
2.32073e-10
1.96153e-10
1.67164e-10
1.44146e-10
1.26615e-10
1.12044e-10
1.04436e-10
9.57454e-11
9.64509e-11
9.58668e-11
1.08049e-10
1.07231e-10
1.52399e-10
1.43e-10
2.95573e-10
2.58029e-10
8.17137e-10
7.52507e-10
2.72816e-09
2.94808e-09
8.22522e-09
1.099e-08
1.94953e-08
3.28286e-08
4.60567e-08
8.05524e-08
9.83031e-08
1.44239e-07
1.96883e-07
2.29017e-07
3.55394e-07
3.66401e-07
4.61526e-07
5.03409e-07
5.00819e-07
5.3216e-07
5.76337e-07
6.29293e-07
6.71963e-07
7.8548e-07
8.25276e-07
9.1142e-07
9.38352e-07
1.01718e-06
1.03871e-06
1.10711e-06
1.14373e-06
1.22748e-06
1.30303e-06
1.36988e-06
1.49947e-06
1.59328e-06
1.77504e-06
1.82813e-06
1.9665e-06
1.99005e-06
2.07888e-06
2.00855e-06
1.98315e-06
1.83666e-06
1.82857e-06
1.82567e-06
1.88518e-06
1.95472e-06
2.20428e-06
2.49782e-06
3.08045e-06
4.14867e-06
4.35152e-06
5.29882e-06
4.77385e-06
4.56065e-06
3.74398e-06
3.93537e-06
3.99508e-06
4.22027e-06
4.86831e-06
4.72898e-06
5.10546e-06
4.83516e-06
7.2294e-06
7.4421e-06
1.9345e-05
1.64496e-05
2.84946e-05
5.2567e-05
0.000156155
0.000149008
0.000142138
0.000135743
0.000131016
0.000127573
0.000122551
0.000120728
0.000121085
0.000121068
0.000119273
0.00011544
0.000114053
0.000111729
0.000110687
0.000112548
0.000113487
0.000111982
0.000103012
9.73402e-05
9.70112e-05
9.67228e-05
9.44418e-05
8.76785e-05
6.57421e-05
4.46597e-05
3.00223e-05
2.03355e-05
1.38905e-05
9.8822e-06
7.60331e-06
6.65763e-06
6.67264e-06
7.1835e-06
7.25488e-06
7.03513e-06
6.94553e-06
7.03375e-06
7.85393e-06
8.91115e-06
9.87924e-06
1.03244e-05
1.02792e-05
9.76272e-06
9.58203e-06
9.94265e-06
1.03425e-05
1.03286e-05
1.00132e-05
9.69338e-06
9.63019e-06
9.64142e-06
9.7129e-06
9.89866e-06
1.01518e-05
1.07758e-05
1.15553e-05
1.21202e-05
1.24309e-05
1.25203e-05
1.2427e-05
1.14663e-05
9.78909e-06
8.23382e-06
6.8317e-06
5.60087e-06
4.54526e-06
3.65755e-06
2.92351e-06
2.32524e-06
1.84342e-06
1.45896e-06
1.15427e-06
9.13925e-07
7.24811e-07
5.7611e-07
4.59096e-07
3.66843e-07
2.93924e-07
2.36117e-07
1.90147e-07
1.53478e-07
1.2414e-07
1.006e-07
8.16645e-08
6.63948e-08
5.40542e-08
4.40609e-08
3.59539e-08
2.93666e-08
2.40064e-08
1.96393e-08
1.60775e-08
1.31695e-08
1.07934e-08
8.85031e-09
7.26039e-09
5.95867e-09
4.89235e-09
4.01846e-09
3.30199e-09
2.71439e-09
2.23231e-09
1.8367e-09
1.51198e-09
1.2454e-09
1.02653e-09
8.46821e-10
6.99268e-10
5.78172e-10
4.78824e-10
3.97359e-10
3.30704e-10
2.7619e-10
2.31841e-10
1.95906e-10
1.66901e-10
1.43867e-10
1.26338e-10
1.11724e-10
1.04141e-10
9.53726e-11
9.61648e-11
9.54456e-11
1.08429e-10
1.07131e-10
1.57139e-10
1.46468e-10
3.30506e-10
2.94345e-10
1.03454e-09
1.00505e-09
3.86271e-09
4.32863e-09
1.3363e-08
1.73391e-08
3.67163e-08
5.5421e-08
8.58589e-08
1.29143e-07
1.93774e-07
2.46414e-07
4.25889e-07
4.35942e-07
7.63038e-07
7.00834e-07
9.68554e-07
9.35062e-07
9.45863e-07
9.94717e-07
1.08407e-06
1.08907e-06
1.14974e-06
1.31673e-06
1.26231e-06
1.3274e-06
1.33932e-06
1.35602e-06
1.35061e-06
1.40736e-06
1.38775e-06
1.41605e-06
1.4204e-06
1.46292e-06
1.50197e-06
1.61917e-06
1.69135e-06
1.85289e-06
1.93186e-06
2.1287e-06
2.20266e-06
2.44211e-06
2.4933e-06
2.76867e-06
2.70943e-06
2.82833e-06
2.62358e-06
2.6437e-06
2.48301e-06
2.53721e-06
2.62224e-06
3.0362e-06
3.47237e-06
4.28124e-06
5.58441e-06
5.46212e-06
5.50648e-06
4.70524e-06
4.44332e-06
4.7025e-06
5.30804e-06
5.06115e-06
5.94497e-06
5.60908e-06
1.21406e-05
9.27023e-06
2.22067e-05
1.83464e-05
2.58243e-05
4.48599e-05
0.000119028
0.000114588
0.000110637
0.000107579
0.000103637
0.000100454
9.74756e-05
9.68364e-05
9.74381e-05
9.92518e-05
9.93334e-05
9.79282e-05
9.59129e-05
9.2589e-05
8.9892e-05
9.03459e-05
9.10539e-05
9.0126e-05
8.48997e-05
7.69748e-05
7.36551e-05
7.10493e-05
6.6712e-05
5.40598e-05
3.91313e-05
2.72395e-05
1.87254e-05
1.28231e-05
8.92201e-06
6.90689e-06
6.19552e-06
5.85273e-06
5.67559e-06
5.78431e-06
6.13252e-06
6.51143e-06
6.70608e-06
6.75565e-06
7.43369e-06
8.74149e-06
9.42987e-06
1.01228e-05
1.03253e-05
1.01964e-05
1.00671e-05
1.02064e-05
1.04248e-05
1.03783e-05
1.00287e-05
9.59265e-06
9.43519e-06
9.43179e-06
9.53227e-06
9.98793e-06
1.07172e-05
1.12725e-05
1.16724e-05
1.19121e-05
1.19834e-05
1.19694e-05
1.18423e-05
1.1256e-05
9.76101e-06
8.2473e-06
6.85175e-06
5.61739e-06
4.55642e-06
3.66468e-06
2.9285e-06
2.32939e-06
1.84731e-06
1.46292e-06
1.15844e-06
9.18194e-07
7.28956e-07
5.79925e-07
4.62446e-07
3.69674e-07
2.96244e-07
2.37972e-07
1.91602e-07
1.54602e-07
1.24998e-07
1.0125e-07
8.21532e-08
6.67604e-08
5.43266e-08
4.42632e-08
3.61038e-08
2.94775e-08
2.40884e-08
1.96999e-08
1.61221e-08
1.32024e-08
1.08175e-08
8.86805e-09
7.27339e-09
5.96817e-09
4.89927e-09
4.02346e-09
3.30559e-09
2.71694e-09
2.23409e-09
1.83791e-09
1.51277e-09
1.24589e-09
1.0268e-09
8.46926e-10
6.99257e-10
5.78079e-10
4.78669e-10
3.97158e-10
3.3047e-10
2.75935e-10
2.31562e-10
1.95613e-10
1.6659e-10
1.43556e-10
1.25998e-10
1.1138e-10
1.03766e-10
9.49787e-11
9.57706e-11
9.50501e-11
1.08452e-10
1.07306e-10
1.61401e-10
1.529e-10
3.66358e-10
3.48011e-10
1.26271e-09
1.3479e-09
5.10951e-09
6.06861e-09
2.00588e-08
2.55223e-08
6.47163e-08
8.68803e-08
1.67369e-07
2.12393e-07
3.89071e-07
4.13302e-07
8.45183e-07
7.54019e-07
1.73378e-06
1.36022e-06
2.89665e-06
2.37735e-06
3.49219e-06
3.07921e-06
4.24943e-06
3.65984e-06
4.74059e-06
4.24527e-06
4.44366e-06
4.46879e-06
4.57502e-06
4.13113e-06
4.48937e-06
4.19991e-06
4.09645e-06
3.94113e-06
3.90851e-06
3.48583e-06
3.41109e-06
3.13651e-06
3.06611e-06
2.76659e-06
2.69421e-06
2.52888e-06
2.53132e-06
2.53937e-06
2.57494e-06
2.66506e-06
2.85898e-06
2.91957e-06
3.10867e-06
3.03987e-06
3.34531e-06
3.02645e-06
3.24861e-06
3.15798e-06
3.31929e-06
3.59561e-06
4.61193e-06
5.23289e-06
6.70063e-06
6.48437e-06
5.54615e-06
5.13756e-06
7.65748e-06
6.4835e-06
1.00353e-05
7.71739e-06
1.41068e-05
1.15031e-05
3.43399e-05
2.304e-05
2.49311e-05
3.79331e-05
7.74346e-05
7.53865e-05
7.28679e-05
7.21458e-05
7.06532e-05
6.73837e-05
6.60047e-05
6.59924e-05
6.65019e-05
7.04374e-05
7.29619e-05
7.28449e-05
7.22765e-05
7.04757e-05
6.63521e-05
6.48128e-05
6.38813e-05
6.21582e-05
5.81566e-05
5.25846e-05
4.94564e-05
4.70645e-05
4.1914e-05
3.25851e-05
2.36541e-05
1.65941e-05
1.14921e-05
8.0996e-06
6.14136e-06
5.4323e-06
5.47318e-06
5.45871e-06
5.23467e-06
5.19501e-06
5.32553e-06
6.07542e-06
6.63005e-06
6.71308e-06
6.89087e-06
8.02124e-06
8.50655e-06
8.74052e-06
9.43519e-06
1.00131e-05
1.01509e-05
1.02801e-05
1.0319e-05
1.02432e-05
9.90206e-06
9.48471e-06
9.34333e-06