/*--------------------------------*- C++ -*----------------------------------*\
| =========                 |                                                 |
| \\      /  F ield         | OpenFOAM: The Open Source CFD Toolbox           |
|  \\    /   O peration     | Version:  2.4.0                                 |
|   \\  /    A nd           | Web:      www.OpenFOAM.org                      |
|    \\/     M anipulation  |                                                 |
\*---------------------------------------------------------------------------*/
FoamFile
{
    version     2.0;
    format      ascii;
    class       volScalarField;
    location    "0.128";
    object      pMean;
}
// * * * * * * * * * * * * * * * * * * * * * * * * * * * * * * * * * * * * * //

dimensions      [0 2 -2 0 0 0 0];

internalField   nonuniform List<scalar> 
4400
(
134.289
112.761
104.403
100.395
97.0993
93.8486
90.5912
87.336
83.9258
79.7885
132.375
112.826
104.439
100.406
97.102
93.8492
90.5916
87.3371
83.9412
80.1696
131.172
113.134
104.572
100.444
97.1221
93.8569
90.5951
87.3353
84.0115
80.356
130.441
113.507
104.748
100.502
97.164
93.8846
90.6079
87.3526
84.0881
80.6092
129.848
113.847
104.926
100.561
97.2228
93.9272
90.6381
87.3695
84.1918
80.8542
129.337
114.13
105.08
100.605
97.2776
93.9806
90.6759
87.4045
84.3104
81.1316
128.916
114.354
105.209
100.631
97.3219
94.0262
90.7147
87.4424
84.3989
81.4754
128.593
114.525
105.31
100.645
97.3518
94.064
90.7475
87.4848
84.4525
81.7883
128.375
114.64
105.378
100.652
97.3707
94.0923
90.7709
87.5263
84.5261
82.1048
128.266
114.699
105.412
100.655
97.381
94.1075
90.7944
87.5634
84.6144
82.3395
128.265
114.702
105.412
100.658
97.3814
94.1157
90.8073
87.6028
84.6999
82.5318
128.373
114.646
105.377
100.658
97.3748
94.1114
90.8187
87.6415
84.7832
82.6814
128.588
114.534
105.308
100.655
97.3581
94.0975
90.823
87.6767
84.8668
82.7909
128.909
114.366
105.206
100.646
97.3305
94.0725
90.821
87.7102
84.951
82.8597
129.33
114.143
105.077
100.623
97.2906
94.0373
90.8138
87.7384
85.0332
82.895
129.84
113.862
104.921
100.583
97.2393
93.9961
90.8035
87.763
85.1021
82.9254
130.432
113.523
104.744
100.526
97.1844
93.9601
90.7959
87.7853
85.1487
82.9522
131.164
113.15
104.568
100.47
97.1447
93.9398
90.795
87.8038
85.175
82.9843
132.368
112.842
104.435
100.432
97.1258
93.9341
90.7975
87.8146
85.1852
83.0204
134.282
112.777
104.399
100.421
97.1231
93.9348
90.799
87.8183
85.1866
83.1248
77.5137
77.043
75.7348
74.2661
72.8853
71.6946
70.8587
69.9945
69.7468
69.8712
69.9888
70.1821
70.2749
70.8986
71.7749
72.4035
73.0655
73.9784
74.9538
76.0232
77.0076
77.8777
78.5801
79.117
79.5326
79.858
80.1989
80.5726
80.9977
81.5069
82.0299
82.5884
83.1311
83.6572
84.0684
84.3733
84.5498
84.5667
84.44
84.126
83.8842
83.8031
83.9748
84.414
85.1248
85.8991
86.7525
87.5685
88.3967
89.1944
89.9375
90.6184
91.0676
91.4214
91.6757
91.8027
91.9731
91.9546
92.0997
92.0215
92.17
92.1339
92.4424
92.5116
92.9795
93.1088
93.6399
93.6655
94.1154
93.9685
94.3439
94.0298
94.3882
93.9715
94.3483
93.9419
94.4225
93.9777
94.5122
94.1324
94.7229
94.3465
94.9404
94.5078
95.0936
94.6058
95.1006
94.497
94.8027
94.0345
94.1253
93.1344
93.0568
91.6772
91.4957
89.209
88.9942
83.8688
83.2462
58.4902
77.8562
77.2103
76.1618
74.8697
73.5883
72.4618
71.6723
70.9923
70.7756
70.9511
71.1289
71.3472
71.4423
71.964
72.7923
73.4412
74.0135
74.7903
75.6395
76.5688
77.4233
78.1941
78.8218
79.3107
79.6904
79.9797
80.2719
80.5907
80.934
81.3516
81.7926
82.263
82.7244
83.1842
83.5372
83.823
83.9711
83.9776
83.827
83.4651
83.2551
83.2089
83.4637
84.0114
84.8527
85.7394
86.7026
87.6106
88.5211
89.3999
90.1997
90.8903
91.3529
91.7091
91.9542
92.0722
92.2393
92.2008
92.3526
92.2465
92.3889
92.3016
92.5445
92.558
92.9386
93.0167
93.4541
93.4308
93.8151
93.6336
93.9841
93.6439
93.98
93.5071
93.8653
93.3979
93.9453
93.3778
94.0611
93.5423
94.3209
93.7813
94.6089
93.953
94.8284
94.07
94.8788
93.9619
94.5706
93.4508
93.8039
92.4002
92.5242
90.5887
90.654
87.4165
87.508
80.1041
78.8553
51.4583
78.4027
77.6122
76.5739
75.3949
74.225
73.1963
72.455
71.913
71.724
71.9009
72.1385
72.4039
72.5465
72.9943
73.7678
74.4407
74.9586
75.6242
76.366
77.1773
77.9199
78.596
79.1468
79.5749
79.8997
80.1448
80.3872
80.6477
80.9168
81.2472
81.6075
82.0002
82.395
82.8019
83.118
83.3995
83.5253
83.5331
83.3439
82.9464
82.7729
82.7485
83.1015
83.7677
84.7396
85.7467
86.8213
87.8111
88.8153
89.7616
90.6214
91.3047
91.7831
92.132
92.3662
92.4657
92.618
92.5554
92.7013
92.5734
92.6962
92.5745
92.7338
92.7089
92.9721
93.0128
93.3385
93.2853
93.5957
93.3945
93.6891
93.3332
93.6152
93.1132
93.4604
92.9188
93.4939
92.81
93.6039
92.9442
93.8758
93.1692
94.1737
93.3206
94.4538
93.4173
94.5666
93.2778
94.2791
92.7162
93.4455
91.5456
91.9442
89.3747
89.5962
85.4223
85.82
76.8461
73.8369
49.631
78.8796
78.1057
77.0952
75.9785
74.9018
73.9782
73.3058
72.8737
72.7179
72.8777
73.1533
73.4525
73.6594
74.0579
74.7613
75.4431
75.9314
76.4998
77.1396
77.8479
78.4952
79.076
79.5428
79.8951
80.1531
80.3484
80.5417
80.7469
80.9545
81.2047
81.4876
81.8117
82.1534
82.5203
82.8161
83.1018
83.2129
83.2269
82.977
82.5671
82.4212
82.4171
82.8952
83.6832
84.788
85.9161
87.0944
88.1604
89.2634
90.2647
91.1882
91.8544
92.3484
92.6755
92.9037
92.9764
93.1047
93.0076
93.1376
92.9781
93.0722
92.9237
93.0047
92.9495
93.097
93.1018
93.3241
93.2473
93.4772
93.2604
93.4806
93.1106
93.3245
92.8036
93.1483
92.523
93.0904
92.3088
93.1665
92.3796
93.4126
92.56
93.6668
92.6635
93.9414
92.6824
94.092
92.4269
93.857
91.7123
93.0099
90.4095
91.3502
88.074
88.4117
83.4644
83.4939
73.9175
68.3049
49.5793
79.2648
78.5953
77.7165
76.6329
75.6096
74.7779
74.1986
73.8722
73.7753
73.9263
74.2144
74.5361
74.8014
75.1743
75.7843
76.4421
76.9226
77.4093
77.9528
78.5573
79.1135
79.5989
79.9789
80.2548
80.4489
80.5919
80.7378
80.8951
81.0499
81.2295
81.44
81.704
81.9999
82.3381
82.6305
82.9261
83.0297
83.0373
82.7089
82.3163
82.1822
82.2145
82.8431
83.7425
84.9872
86.2325
87.5032
88.6331
89.8461
90.8917
91.8817
92.5255
93.0344
93.32
93.549
93.5773
93.6913
93.5429
93.6613
93.4458
93.5185
93.328
93.3518
93.2521
93.3174
93.2755
93.4101
93.2972
93.454
93.2127
93.3593
92.9603
93.121
92.5599
92.8975
92.193
92.7406
91.8825
92.7736
91.8651
92.959
91.9862
93.127
92.0595
93.3184
91.9821
93.3687
91.4903
92.9899
90.4473
92.1177
88.8251
90.3787
86.2715
87.3823
81.6841
80.9911
71.6362
62.3762
49.1923
79.606
79.0457
78.2929
77.2688
76.3046
75.5864
75.1283
74.9093
74.8777
75.028
75.3073
75.6383
75.9436
76.3061
76.8279
77.4223
77.8972
78.3225
78.7705
79.2677
79.7327
80.1245
80.4262
80.6415
80.7798
80.8777
80.9841
81.099
81.2033
81.3171
81.4605
81.6743
81.9332
82.2517
82.5498
82.857
82.9645
82.9455
82.5408
82.1908
82.0621
82.1552
82.9347
83.9236
85.3144
86.6768
88.0303
89.2091
90.5466
91.6246
92.6807
93.2993
93.8289
94.055
94.2869
94.2429
94.3674
94.1363
94.2654
93.9527
94.0396
93.7765
93.7824
93.6112
93.6338
93.5119
93.5861
93.4108
93.5154
93.2197
93.3157
92.8631
92.995
92.3695
92.6898
91.9216
92.4416
91.531
92.4315
91.4082
92.535
91.4439
92.6066
91.5148
92.6997
91.4253
92.6476
90.795
92.0948
89.451
90.9001
87.2164
88.7973
83.9086
85.4016
78.7796
77.5658
69.1311
58.4907
49.4653
80.0914
79.4874
78.7148
77.7729
76.9462
76.391
76.0745
75.9463
75.9668
76.1189
76.3819
76.7099
77.0341
77.3911
77.8405
78.3542
78.8037
79.1884
79.5581
79.9512
80.3217
80.6294
80.8737
81.0467
81.141
81.208
81.2822
81.3567
81.4088
81.458
81.5405
81.714
81.9466
82.2566
82.5649
82.8842
83.0052
82.9424
82.4787
82.1931
82.0739
82.2673
83.1561
84.2099
85.7496
87.2233
88.6517
89.8698
91.3504
92.4394
93.5586
94.1467
94.7056
94.8665
95.1127
94.978
95.1263
94.7711
94.9271
94.4783
94.6243
94.2573
94.2919
94.029
94.0353
93.8189
93.8542
93.5984
93.6652
93.294
93.3619
92.8317
92.945
92.2456
92.5302
91.7146
92.1886
91.256
92.1274
91.0253
92.1454
90.9405
92.1131
90.9783
92.0932
90.9225
91.9482
90.2758
91.2345
88.806
89.7017
86.1662
87.0258
81.9793
82.4317
75.354
73.1936
65.6078
56.5941
49.8052
80.8597
80.1202
79.0754
78.1701
77.5237
77.1442
76.9622
76.9164
76.978
77.137
77.3877
77.7035
78.0307
78.3787
78.774
79.2102
79.6188
79.9683
80.279
80.5844
80.8708
81.117
81.3297
81.4742
81.5347
81.5819
81.6277
81.6557
81.6531
81.6445
81.6764
81.814
82.0287
82.3407
82.6659
82.9964
83.1229
83.0276
82.5354
82.3248
82.2255
82.546
83.4969
84.6083
86.2789
87.8442
89.3494
90.5914
92.2269
93.3042
94.475
95.0405
95.6454
95.7402
96.0078
95.7923
95.9517
95.4781
95.6484
95.0489
95.2719
94.7743
94.8719
94.5061
94.5171
94.2029
94.2134
93.8707
93.911
93.4567
93.5002
92.8931
92.9731
92.2205
92.4444
91.6042
91.9992
91.071
91.8537
90.7291
91.7836
90.5329
91.6387
90.4692
91.4827
90.3627
91.2036
89.6297
90.2857
87.9978
88.3727
85.1365
85.0336
80.4976
79.3451
73.229
69.6688
63.5016
55.9327
49.5324
81.4149
80.6189
79.4323
78.5506
78.0462
77.8237
77.7706
77.808
77.9069
78.0721
78.31
78.6071
78.9271
79.261
79.6164
79.9897
80.3421
80.647
80.9105
81.1555
81.3841
81.6018
81.8072
81.93
81.9643
81.9983
82.013
81.9906
81.9353
81.8778
81.8674
81.973
82.1741
82.4938
82.8377
83.1764
83.2929
83.1956
82.7186
82.5791
82.5185
82.967
83.9562
85.1415
86.8882
88.5252
90.0885
91.354
93.1444
94.1934
95.4125
95.9392
96.6046
96.6556
96.9542
96.6692
96.829
96.2657
96.4345
95.7018
95.9829
95.3319
95.5202
95.0323
95.0755
94.662
94.6674
94.2339
94.2549
93.7141
93.7308
93.0573
93.0952
92.3075
92.4611
91.6314
91.9106
91.0126
91.6348
90.5552
91.4567
90.2692
91.1858
90.0531
90.8713
89.8026
90.4154
88.9238
89.2424
87.0609
86.9257
83.9399
82.9484
79.1646
76.5977
72.2648
67.7476
63.316
55.8349
49.3708
81.8284
81.0491
79.8291
78.9759
78.5665
78.4662
78.5192
78.6272
78.7551
78.9218
79.1465
79.4235
79.7325
80.0506
80.3722
80.6909
80.9811
81.2344
81.458
81.6658
81.8708
82.0917
82.3033
82.4081
82.4223
82.4468
82.43
82.3598
82.2527
82.1471
82.1021
82.1856
82.3828
82.7146
83.075
83.4126
83.5128
83.4431
83.0308
82.9626
82.9567
83.5253
84.5297
85.8107
87.5593
89.2482
90.8488
92.1507
94.0704
95.0714
96.3516
96.8246
97.5719
97.5843
97.9142
97.5759
97.7179
97.1146
97.2617
96.4303
96.7333
95.9373
96.218
95.6
95.701
95.1861
95.2098
94.6764
94.7
94.0669
94.0685
93.3372
93.335
92.5443
92.6146
91.8338
91.9753
91.1385
91.5438
90.5703
91.2253
90.1647
90.7974
89.782
90.2956
89.328
89.6286
88.2978
88.1424
86.2165
85.4324
82.9078
81.1419
78.2071
75.0391
72.0972
67.26
64.3128
56.1474
50.0019
82.1452
81.4132
80.2263
79.419
79.0809
79.0654
79.1971
79.3634
79.5214
79.6954
79.9122
80.1738
80.4684
80.7687
81.057
81.3251
81.5578
81.7632
81.9562
82.1421
82.3424
82.5821
82.8034
82.8931
82.8924
82.9108
82.8632
82.7502
82.6008
82.4608
82.3943
82.4634
82.6674
83.0137
83.3804
83.7071
83.7948
83.7836
83.475
83.4899
83.5453
84.2211
85.2087
86.5815
88.2643
90.0264
91.6038
92.9891
94.9933
95.9512
97.2677
97.6966
98.5153
98.509
98.8627
98.4869
98.6102
97.9982
98.0987
97.2238
97.5063
96.6059
96.96
96.2239
96.3957
95.7794
95.8294
95.2066
95.2277
94.5303
94.4982
93.761
93.6853
92.9677
92.9064
92.2467
92.2027
91.498
91.632
90.8568
91.1937
90.3134
90.5977
89.7294
89.9098
89.0648
89.0239
87.9044
87.2308
85.6472
84.268
82.2595
80.0352
77.8695
74.5175
72.6886
67.5951
65.5185
56.9641
51.1892
82.3613
81.6929
80.6005
79.8783
79.6102
79.6555
79.8369
80.0434
80.2278
80.4118
80.6251
80.8722
81.1478
81.4251
81.6778
81.8976
82.0846
82.2565
82.4235
82.5983
82.8083
83.0709
83.2962
83.3653
83.3499
83.3677
83.2967
83.1509
82.9767
82.8211
82.7477
82.8187
83.0378
83.396
83.7613
84.0658
84.1643
84.2357
84.0589
84.1651
84.2821
85.0466
85.9871
87.4325
89.0026
90.8598
92.3398
93.8926
95.8823
96.8436
98.1579
98.5623
99.4474
99.4154
99.778
99.3928
99.4915
98.9115
98.9364
98.0873
98.2944
97.361
97.7239
96.9218
97.1291
96.4554
96.5066
95.8437
95.8249
95.1346
95.015
94.3662
94.1448
93.603
93.3252
92.8923
92.5691
92.1255
91.903
91.4265
91.3982
90.7346
90.6605
89.9338
89.8222
89.1142
88.812
87.8822
86.8053
85.5519
83.7676
82.2785
79.7429
78.3639
74.7999
73.8217
68.3849
66.5057
58.1275
52.2111
82.4885
81.906
80.9669
80.3638
80.1635
80.2405
80.4396
80.6619
80.8632
81.0563
81.2681
81.5038
81.758
82.0049
82.2191
82.3977
82.5456
82.6861
82.8387
83.0136
83.2387
83.5286
83.7661
83.8191
83.7945
83.8143
83.7367
83.5785
83.3958
83.2394
83.1762
83.2638
83.5015
83.871
84.2224
84.5013
84.6432
84.816
84.7949
84.9854
85.1676
85.9885
86.8762
88.3677
89.8001
91.7722
93.0937
94.8815
96.7361
97.7631
98.9774
99.4583
100.322
100.311
100.66
100.307
100.366
99.8627
99.778
99.0455
99.089
98.2432
98.5004
97.724
97.8952
97.2314
97.2272
96.601
96.4768
95.8882
95.6081
95.1433
94.6984
94.4226
93.847
93.7417
93.0524
92.993
92.3337
92.2449
91.7666
91.45
90.9159
90.5175
89.9588
89.5747
88.9688
88.3591
86.8884
86.0904
83.8995
83.0587
80.131
79.5557
75.5957
75.1133
69.3647
67.1756
59.2146
52.93
82.5145
82.0368
81.3094
80.8547
80.721
80.8101
81.001
81.2164
81.4227
81.6206
81.8294
82.0518
82.2789
82.4917
82.6698
82.8139
82.9381
83.0653
83.2101
83.3832
83.6194
83.9338
84.1898
84.2422
84.22
84.2424
84.178
84.0346
83.8666
83.7305
83.6952
83.8113
84.0744
84.445
84.7762
85.0356
85.2478
85.5318
85.6736
85.9331
86.1879
87.0131
87.8513
89.3722
90.6574
92.7455
93.8876
95.9683
97.5292
98.7375
99.761
100.429
101.157
101.226
101.493
101.233
101.209
100.839
100.613
100.079
99.8866
99.2429
99.2565
98.6381
98.6557
98.1035
97.9665
97.4637
97.1643
96.7541
96.2539
96.027
95.317
95.3427
94.4388
94.6994
93.6185
93.9851
92.8693
93.2113
92.2202
92.3975
91.3137
91.4892
90.3291
90.5043
89.3826
89.341
87.3665
87.256
84.5159
84.4358
80.9719
81.0049
76.6136
76.1719
70.2464
67.5201
60.0643
53.5206
82.4668
82.122
81.6469
81.3435
81.2505
81.3226
81.4874
81.6843
81.8845
82.0799
82.2781
82.4798
82.6774
82.8586
83.0114
83.1379
83.2524
83.3748
83.519
83.6944
83.9411
84.2783
84.5579
84.6327
84.6326
84.6645
84.6262
84.5144
84.3812
84.2878
84.3012
84.4623
84.7532
85.1206
85.4338
85.685
85.9785
86.3663
86.6539
86.9675
87.2948
88.0781
88.8922
90.4169
91.546
93.7425
94.6793
97.0901
98.3461
99.7238
100.541
101.488
101.949
102.2
102.26
102.156
101.981
101.808
101.387
101.149
100.66
100.336
100.001
99.6502
99.3952
99.0498
98.6902
98.3921
97.8456
97.6851
96.9092
96.9679
95.9603
96.2989
95.0658
95.6705
94.2336
94.973
93.4529
94.213
92.7333
93.4508
91.8323
92.6873
90.8946
91.8659
89.9773
90.7121
88.1128
88.7782
85.4263
85.9701
81.9995
82.2845
77.5743
76.8468
70.9021
67.6112
60.7022
54.122
82.3821
82.1742
81.948
81.7635
81.6857
81.732
81.8652
82.037
82.2225
82.4095
82.5972
82.7841
82.9625
83.1227
83.258
83.3725
83.4835
83.6092
83.7623
83.9491
84.2156
84.5743
84.8735
84.9847
85.0258
85.081
85.0788
85.0163
84.9391
84.908
84.9843
85.1964
85.5144
85.8785
86.1713
86.4303
86.7995
87.2682
87.6703
88.0302
88.4156
89.1418
89.9776
91.4689
92.4524
94.7244
95.427
98.1358
99.0881
100.692
101.163
102.547
102.651
103.196
102.902
103.061
102.611
102.719
102.028
102.135
101.318
101.393
100.66
100.676
100.06
100.012
99.3393
99.3312
98.4737
98.6226
97.5353
97.8954
96.5884
97.2089
95.6905
96.5746
94.856
95.8974
94.0379
95.1955
93.2622
94.5439
92.3957
93.9719
91.5515
93.3738
90.6663
92.2796
88.9951
90.3517
86.4257
87.3793
82.9871
83.2617
78.3489
77.1705
71.3839
67.581
61.1988
54.7509
82.4126
82.2671
82.1603
82.0498
81.9869
82.0152
82.1217
82.2703
82.4408
82.6199
82.8005
82.9765
83.1401
83.2866
83.4135
83.5259
83.6408
83.7755
83.9456
84.158
84.4526
84.8281
85.1451
85.3038
85.3971
85.4872
85.5326
85.5323
85.5241
85.5676
85.7121
85.9722
86.3078
86.6552
86.9267
87.2021
87.6218
88.1428
88.6224
89.0307
89.4671
90.1454
91.0201
92.4447
93.3099
95.6342
96.1615
99.0748
99.6325
101.724
101.72
103.452
103.226
104.042
103.421
103.909
103.114
103.551
102.537
102.972
101.85
102.281
101.207
101.617
100.628
100.948
99.9177
100.243
99.0417
99.5017
98.0921
98.7402
97.1424
98.0282
96.2489
97.3947
95.4132
96.7637
94.5755
96.1446
93.7712
95.6039
92.9456
95.172
92.1675
94.7471
91.3614
93.7502
89.8569
91.7166
87.3427
88.5174
83.8146
83.9393
78.9309
77.261
71.7699
67.5625
61.5885
55.3845
82.4853
82.3765
82.2991
82.2142
82.1638
82.1828
82.2693
82.4001
82.5592
82.732
82.9062
83.0737
83.2284
83.3688
83.4944
83.611
83.7397
83.8938
84.0864
84.3307
84.6573
85.0471
85.3793
85.5867
85.7347
85.8671
85.9616
86.0238
86.0868
86.2013
86.4044
86.6972
87.0341
87.3519
87.604
87.891
88.318
88.8524
89.3755
89.8462
90.3501
91.0152
91.9134
93.2418
94.0473
96.3795
96.7685
99.8592
99.9621
102.564
102.223
104.099
103.633
104.723
103.815
104.575
103.463
104.173
102.879
103.581
102.221
102.948
101.605
102.358
101.04
101.724
100.334
100.999
99.4472
100.214
98.4884
99.4153
97.5363
98.6869
96.6525
98.0736
95.8283
97.4941
94.9984
96.9453
94.2068
96.4904
93.4413
96.1497
92.7326
95.8242
91.9976
94.8734
90.5674
92.754
88.0691
89.3497
84.4299
84.3751
79.3405
77.2549
72.0708
67.598
61.875
55.9697
82.5697
82.4691
82.3745
82.2905
82.2437
82.2551
82.3271
82.446
82.5983
82.7688
82.9417
83.1081
83.2618
83.4035
83.5352
83.6624
83.8049
83.9786
84.197
84.4726
84.8245
85.2222
85.5675
85.8166
86.0126
86.1815
86.3148
86.4222
86.5351
86.6955
86.9291
87.2303
87.5516
87.8384
88.0773
88.3641
88.783
89.3051
89.839
90.3652
90.9528
91.649
92.577
93.8059
94.5983
96.9128
97.1333
100.417
100.242
102.991
102.495
104.552
103.946
105.166
104.054
104.982
103.695
104.516
103.089
103.906
102.436
103.363
101.858
102.846
101.321
102.246
100.613
101.507
99.7049
100.68
98.7214
99.8485
97.7556
99.1064
96.8723
98.4995
96.06
97.9434
95.2519
97.4351
94.4914
97.0406
93.7818
96.7725
93.131
96.483
92.4326
95.5124
91.0244
93.3612
88.5514
89.8317
84.8507
84.5971
79.6961
77.2004
72.328
67.6429
62.0473
56.3944
82.7229
82.5393
82.4014
82.3101
82.2615
82.2682
82.3345
82.4489
82.5975
82.7656
82.9367
83.1026
83.2594
83.4067
83.5474
83.6876
83.8451
84.0341
84.2687
84.5605
84.9212
85.3195
85.6706
85.9382
86.1527
86.333
86.4773
86.5993
86.7278
86.9016
87.1396
87.4361
87.7466
88.0246
88.2648
88.5616
88.9777
89.484
90.0091
90.568
91.2152
91.9373
92.8771
94.0752
94.8764
97.1725
97.3895
100.685
100.414
103.164
102.648
104.836
104.026
105.321
104.16
105.145
103.792
104.639
103.185
104.04
102.533
103.54
101.963
103.058
101.417
102.463
100.694
101.702
99.7764
100.851
98.7787
100
97.8028
99.2493
96.9196
98.6411
96.1104
98.0947
95.3106
97.6119
94.5568
97.2465
93.8609
97.015
93.22
96.7461
92.5024
95.743
91.1039
93.5793
88.6621
90.002
84.9621
84.6566
79.7731
77.1267
72.3657
67.6166
62.0752
56.3535
79.058
78.6485
77.5535
75.9098
74.5637
73.3986
72.5088
72.1159
71.7916
71.7249
72.0551
72.8382
74.0175
75.2519
76.3765
77.4861
78.6179
79.6896
80.5572
81.3428
82.2754
83.3778
84.6542
86.06
87.5442
89.0926
90.6397
92.0443
93.383
94.6979
96.1634
97.7075
99.5024
101.156
102.835
103.985
105.042
105.562
105.713
105.397
104.789
103.945
103.126
102.229
101.533
100.942
100.661
100.373
100.292
100.091
100.08
99.9722
100.018
99.9899
100.065
100.078
100.099
100.06
100.005
99.8917
99.7947
99.7062
99.7163
99.7818
99.9868
100.212
100.531
100.774
100.963
101.02
100.961
100.801
100.579
100.32
100.066
99.8266
99.621
99.445
99.3038
99.1903
99.104
99.0392
98.9925
98.9607
98.9417
98.9354
98.9425
98.9646
98.9998
99.0467
99.1024
99.1711
99.2439
99.2861
99.2791
99.322
99.4071
99.635
100.458
101.493
79.0028
78.5412
77.3706
75.6943
74.3203
73.1577
72.2963
71.9081
71.5413
71.4579
71.7962
72.5931
73.7863
75.0127
76.1086
77.2182
78.3685
79.4438
80.2932
81.0777
82.0174
83.1316
84.372
85.7089
87.1621
88.7232
90.3081
91.7411
93.0842
94.3748
95.8108
97.337
99.1409
100.836
102.525
103.723
104.774
105.353
105.497
105.24
104.638
103.837
103.018
102.144
101.45
100.87
100.601
100.33
100.262
100.061
100.059
99.9417
99.9918
99.9539
100.027
100.036
100.061
100.02
99.9694
99.8494
99.7493
99.6476
99.6587
99.723
99.9381
100.169
100.498
100.751
100.947
101.01
100.954
100.794
100.572
100.313
100.058
99.8181
99.6132
99.4377
99.2972
99.184
99.0987
99.0345
98.989
98.9573
98.9393
98.9325
98.9402
98.9615
98.9977
99.0434
99.0991
99.1655
99.2403
99.2819
99.2713
99.2826
99.2942
99.4597
100.276
101.292
78.8945
78.3353
77.0189
75.2614
73.8408
72.6424
71.8423
71.4698
71.0563
70.9305
71.2734
72.0834
73.2593
74.4395
75.4805
76.555
77.6958
78.7421
79.5693
80.3712
81.3738
82.5151
83.6957
84.9204
86.3225
87.8884
89.5447
91.0329
92.3786
93.6383
95.0787
96.5862
98.4089
100.178
101.861
103.158
104.182
104.865
105.015
104.811
104.244
103.498
102.694
101.857
101.182
100.63
100.378
100.149
100.104
99.9295
99.9548
99.8363
99.9007
99.8585
99.9259
99.9245
99.9489
99.9032
99.8552
99.7259
99.6203
99.5045
99.5169
99.586
99.8165
100.067
100.409
100.688
100.897
100.975
100.926
100.769
100.549
100.288
100.033
99.7922
99.5881
99.4133
99.2741
99.1624
99.0776
99.0142
98.9676
98.9366
98.9171
98.9112
98.9172
98.9406
98.976
99.0254
99.0771
99.1425
99.219
99.2828
99.2776
99.2492
99.1133
99.1841
99.9556
100.983
78.7245
78.0693
76.5786
74.733
73.2687
71.9947
71.2406
70.8399
70.3563
70.2083
70.567
71.3526
72.4445
73.5553
74.5683
75.6042
76.7063
77.6878
78.4707
79.3032
80.3845
81.5608
82.7271
83.8608
85.2195
86.7815
88.5053
90.0507
91.4093
92.6474
94.1234
95.6481
97.4686
99.3218
100.994
102.376
103.383
104.164
104.339
104.17
103.647
102.953
102.173
101.359
100.719
100.201
99.9706
99.7949
99.7892
99.6552
99.7217
99.6145
99.7017
99.6656
99.7172
99.7112
99.7244
99.681
99.6304
99.4936
99.381
99.255
99.2738
99.3563
99.6043
99.8865
100.242
100.565
100.794
100.9
100.865
100.715
100.5
100.238
99.9843
99.7422
99.5397
99.3641
99.2262
99.1135
99.0302
98.9657
98.9201
98.8868
98.8688
98.8608
98.8695
98.8907
98.9307
98.9793
99.0364
99.0952
99.1832
99.2716
99.2995
99.2249
98.9464
98.8991
99.6231
100.644
78.5102
77.766
76.1146
74.1906
72.6731
71.305
70.5428
70.066
69.4709
69.2586
69.5712
70.304
71.3146
72.3727
73.3999
74.4246
75.481
76.4018
77.1564
78.0368
79.1801
80.3846
81.5719
82.66
83.9908
85.5864
87.3947
89.0032
90.3763
91.5925
93.1126
94.6483
96.4403
98.3417
100.011
101.443
102.439
103.294
103.515
103.37
102.883
102.247
101.487
100.709
100.112
99.6239
99.4274
99.2929
99.3531
99.2495
99.364
99.272
99.3788
99.3557
99.3911
99.3824
99.3856
99.3385
99.2894
99.1407
99.0301
98.898
98.9293
99.0307
99.2981
99.6236
99.9943
100.372
100.63
100.77
100.757
100.619
100.415
100.156
99.9059
99.663
99.4632
99.2877
99.1507
99.0366
98.9524
98.8865
98.8389
98.8048
98.7842
98.7762
98.7826
98.8072
98.8482
98.9038
98.9613
99.0294
99.116
99.2374
99.286
99.209
98.7943
98.6632
99.334
100.375
78.2873
77.4792
75.6914
73.7058
72.129
70.6434
69.7972
69.1658
68.3988
68.062
68.2488
68.8995
69.8875
70.9436
72.04
73.0857
74.1225
75.0284
75.8002
76.722
77.8945
79.141
80.3651
81.4526
82.7721
84.4383
86.3398
88.0109
89.3937
90.5715
92.1274
93.6528
95.3766
97.2805
98.93
100.377
101.368
102.258
102.543
102.408
101.954
101.379
100.669
99.952
99.3893
98.9435
98.783
98.6866
98.8125
98.7345
98.9062
98.8359
98.963
98.9667
98.9939
98.9751
98.9707
98.9037
98.8518
98.6862
98.5827
98.4431
98.489
98.6227
98.9202
99.2938
99.6891
100.117
100.415
100.588
100.602
100.478
100.288
100.034
99.7902
99.5511
99.3569
99.1835
99.0479
98.9339
98.8475
98.7792
98.7274
98.6909
98.666
98.6557
98.6597
98.684
98.7264
98.7858
98.8531
98.9279
99.028
99.155
99.2393
99.1598
98.7135
98.5142
99.2122
100.222
78.0986
77.2446
75.3351
73.2982
71.6507
70.0378
69.0163
68.1225
67.1435
66.6074
66.6397
67.2062
68.2542
69.3811
70.5789
71.6705
72.7328
73.6896
74.5323
75.5035
76.7035
78.0009
79.2593
80.3533
81.6626
83.4076
85.3888
87.0956
88.4902
89.6193
91.1975
92.71
94.3307
96.181
97.7933
99.2197
100.213
101.097
101.438
101.311
100.89
100.373
99.7342
99.0676
98.5456
98.1591
98.0319
97.9856
98.1612
98.1305
98.3493
98.3145
98.4555
98.4912
98.5057
98.4813
98.4551
98.3766
98.3139
98.146
98.0457
97.9166
97.9919
98.1647
98.495
98.9127
99.3349
99.8086
100.152
100.357
100.403
100.293
100.121
99.8733
99.6406
99.4055
99.221
99.0489
98.9195
98.8036
98.72
98.6463
98.5932
98.5492
98.522
98.5042
98.5066
98.5244
98.5673
98.6248
98.7003
98.785
98.8955
99.0338
99.1253
99.0871
98.6647
98.5046
99.1794
100.249
77.9617
77.0708
75.0449
72.9496
71.2194
69.4687
68.1839
66.9731
65.7887
65.0231
64.9036
65.3878
66.5463
67.8177
69.108
70.2731
71.4022
72.4642
73.4295
74.4721
75.7233
77.0805
78.3717
79.4631
80.7489
82.5471
84.5637
86.2538
87.6715
88.763
90.3307
91.8103
93.3106
95.0681
96.6203
98.0147
99.0037
99.8525
100.224
100.11
99.7154
99.2514
98.6819
98.0605
97.5938
97.2599
97.1772
97.1819
97.4103
97.4461
97.7001
97.7088
97.8456
97.9122
97.8899
97.8755
97.8259
97.7568
97.694
97.5352
97.4616
97.3554
97.4644
97.6728
98.0282
98.4907
98.9412
99.4526
99.841
100.075
100.154
100.059
99.907
99.668
99.4501
99.2223
99.0501
98.8827
98.7597
98.6461
98.565
98.4914
98.4352
98.3884
98.3544
98.3333
98.3265
98.3409
98.3734
98.4296
98.5009
98.5973
98.711
98.8576
98.9613
98.9596
98.6583
98.5681
99.3325
100.295
77.8721
76.934
74.8064
72.6389
70.7939
68.8932
67.277
65.7758
64.4549
63.493
63.2166
63.6261
64.8961
66.3645
67.7313
68.9797
70.2026
71.4146
72.5449
73.6921
75.0131
76.4267
77.744
78.8279
80.0736
81.8789
83.8662
85.5021
86.9309
87.9871
89.5067
90.9106
92.2957
93.9645
95.4312
96.7858
97.7546
98.5504
98.9266
98.8217
98.4472
98.0279
97.527
96.9668
96.5646
96.2847
96.256
96.2989
96.5904
96.6808
96.966
97.025
97.1427
97.2404
97.1909
97.2096
97.1625
97.1176
97.0643
96.9199
96.8624
96.7817
96.9087
97.1587
97.5414
98.0444
98.5223
99.0592
99.4877
99.7425
99.854
99.774
99.6422
99.4145
99.2119
98.9972
98.8389
98.6811
98.5665
98.4585
98.3815
98.3102
98.2548
98.2062
98.1685
98.1415
98.1291
98.1337
98.1584
98.2015
98.2689
98.3566
98.4755
98.6151
98.7424
98.7849
98.6278
98.6567
99.4277
100.572
77.7971
76.8011
74.5852
72.3299
70.3316
68.273
66.318
64.5933
63.2182
62.1145
61.7205
62.0628
63.4376
65.1161
66.5349
67.8611
69.2013
70.5816
71.8977
73.1678
74.5776
76.0439
77.3669
78.4452
79.6354
81.3844
83.2801
84.8257
86.2248
87.2599
88.6895
90.0178
91.289
92.8685
94.2404
95.5488
96.4875
97.2154
97.5693
97.4699
97.1132
96.7226
96.2924
95.8078
95.4631
95.2456
95.2701
95.3673
95.7168
95.8489
96.1651
96.2731
96.3693
96.5045
96.4502
96.5141
96.4771
96.4612
96.4061
96.2891
96.2307
96.1947
96.3409
96.6346
97.0406
97.5696
98.0776
98.6258
99.091
99.3586
99.5007
99.4347
99.3248
99.1068
98.9251
98.7248
98.588
98.4407
98.3408
98.2377
98.1706
98.1002
98.051
97.9999
97.9631
97.93
97.9134
97.908
97.9218
97.9519
98.0018
98.0796
98.1788
98.3197
98.4546
98.5622
98.5511
98.7445
99.6485
100.652
77.6979
76.628
74.3514
71.993
69.8237
67.6192
65.3813
63.5164
62.1619
60.974
60.5299
60.8339
62.3108
64.1766
65.6037
66.9875
68.4422
69.9739
71.4695
72.8681
74.3759
75.9015
77.2121
78.2792
79.401
81.0284
82.7681
84.1894
85.5164
86.5432
87.8503
89.1184
90.2825
91.7772
93.0675
94.3181
95.2124
95.8597
96.1704
96.0739
95.7335
95.3686
94.9908
94.5813
94.3088
94.1565
94.2333
94.4011
94.7907
94.9741
95.3186
95.4615
95.5408
95.7142
95.6551
95.7655
95.7318
95.7583
95.7152
95.6374
95.5962
95.6006
95.7674
96.0932
96.5186
97.0718
97.6133
98.1583
98.6521
98.9269
99.0917
99.0373
98.9488
98.7421
98.5864
98.4059
98.2929
98.1614
98.0764
97.9853
97.9268
97.8647
97.8195
97.7726
97.7347
97.7011
97.6769
97.6661
97.6641
97.6811
97.7082
97.7649
97.8442
97.9617
98.1127
98.2628
98.4142
98.7386
99.7052
100.981
77.5184
76.3828
74.0835
71.6481
69.3206
67.0139
64.6116
62.691
61.417
60.2403
59.804
60.0825
61.6118
63.5949
64.9943
66.4047
67.9551
69.6149
71.2571
72.773
74.356
75.9293
77.2234
78.2726
79.3161
80.7835
82.3129
83.5864
84.7977
85.8053
86.9822
88.2143
89.3088
90.7128
91.9343
93.1089
93.945
94.5067
94.7591
94.6553
94.3318
93.9924
93.6613
93.3275
93.1265
93.0388
93.1775
93.4116
93.8397
94.0834
94.4413
94.6038
94.6897
94.8767
94.8417
94.975
94.9855
95.0383
95.0333
94.9831
94.9673
95.004
95.1913
95.5464
95.9968
96.5638
97.1358
97.6656
98.177
98.4527
98.634
98.5836
98.5166
98.3236
98.1986
98.0429
97.9558
97.8422
97.7755
97.6973
97.6529
97.6008
97.565
97.5237
97.489
97.454
97.4259
97.4041
97.3908
97.3857
97.3918
97.4189
97.4702
97.5632
97.7023
97.9008
98.1737
98.7084
99.762
100.796
77.2416
76.0441
73.7686
71.3217
68.9365
66.5843
64.1611
62.2592
61.113
60.0222
59.6227
59.8646
61.38
63.3961
64.7526
66.1415
67.7637
69.5062
71.2374
72.8477
74.4693
76.0676
77.3269
78.3496
79.2998
80.5791
81.8856
83.0164
84.092
85.0704
86.1397
87.3285
88.3947
89.6915
90.8465
91.9322
92.6974
93.1745
93.3631
93.2481
92.938
92.619
92.3224
92.0591
91.9342
91.9249
92.1332
92.4279
92.8917
93.1859
93.5593
93.7457
93.8609
94.051
94.0771
94.2139
94.279
94.3395
94.3685
94.342
94.3545
94.4223
94.6365
95.0124
95.481
96.0455
96.6464
97.1563
97.6756
97.9445
98.136
98.0832
98.0359
97.86
97.7723
97.643
97.5866
97.4905
97.4418
97.3796
97.3501
97.3129
97.2882
97.2568
97.2273
97.1942
97.1613
97.1307
97.0995
97.0754
97.0506
97.0467
97.0607
97.115
97.2342
97.4312
97.7878
98.3729
99.4068
100.724
76.9
75.6655
73.4724
71.0524
68.7436
66.4179
64.1115
62.2862
61.2823
60.3357
59.9721
60.1749
61.6168
63.5898
64.8905
66.2031
67.845
69.6158
71.3856
73.0666
74.6905
76.2772
77.4748
78.4521
79.3027
80.3815
81.4781
82.4855
83.4359
84.3753
85.3601
86.4824
87.5414
88.7228
89.8067
90.791
91.4773
91.8733
91.9963
91.8601
91.5603
91.2685
91.005
90.8088
90.7618
90.8435
91.1228
91.4762
91.9683
92.3056
92.7012
92.9231
93.0859
93.2942
93.389
93.5222
93.6333
93.6927
93.7568
93.7516
93.7894
93.8812
94.1147
94.4955
94.9874
95.5382
96.1593
96.6407
97.1628
97.4115
97.6071
97.5458
97.521
97.3647
97.3197
97.2188
97.1965
97.1184
97.0856
97.0387
97.026
97.0044
96.9951
96.9744
96.9544
96.9239
96.889
96.8462
96.7996
96.7467
96.6963
96.6474
96.6246
96.6234
96.6979
96.8708
97.2296
97.8926
98.9406
99.971
76.6075
75.3344
73.2723
70.9119
68.7625
66.5747
64.4588
62.7597
61.8968
61.1363
60.8172
60.9868
62.2816
64.1461
65.3761
66.5773
68.1786
69.9245
71.6786
73.3819
74.9805
76.5149
77.6482
78.5664
79.32
80.2035
81.1047
81.994
82.8412
83.7332
84.6566
85.6965
86.7412
87.8149
88.8162
89.6894
90.2903
90.6134
90.6772
90.5182
90.2291
89.9613
89.7312
89.6007
89.6381
89.8241
90.1726
90.5776
91.0918
91.4734
91.9007
92.1769
92.3926
92.6291
92.7777
92.9163
93.067
93.1298
93.2188
93.2283
93.2815
93.3908
93.6449
94.0188
94.5332
95.0466
95.6788
96.1228
96.6419
96.8574
97.0623
96.9896
96.9995
96.8637
96.8691
96.7867
96.806
96.7372
96.7235
96.6828
96.69
96.6787
96.6895
96.6781
96.6736
96.6448
96.6126
96.5541
96.4921
96.4076
96.3232
96.2299
96.1502
96.0913