/*--------------------------------*- C++ -*----------------------------------*\
| =========                 |                                                 |
| \\      /  F ield         | OpenFOAM: The Open Source CFD Toolbox           |
|  \\    /   O peration     | Version:  2.4.0                                 |
|   \\  /    A nd           | Web:      www.OpenFOAM.org                      |
|    \\/     M anipulation  |                                                 |
\*---------------------------------------------------------------------------*/
FoamFile
{
    version     2.0;
    format      ascii;
    class       volVectorField;
    location    "0.128";
    object      U_0;
}
// * * * * * * * * * * * * * * * * * * * * * * * * * * * * * * * * * * * * * //

dimensions      [0 1 -1 0 0 0 0];

internalField   nonuniform List<vector> 
4400
(
(5.40454 0.31679 0)
(3.31367 0.0606785 0)
(2.5863 0.00146087 0)
(2.22983 -0.00210123 0)
(2.08451 -0.0014438 0)
(1.99363 -0.000901012 0)
(1.95539 0.000267975 0)
(1.88348 8.24456e-05 0)
(1.94673 0.00145415 0)
(1.44984 -0.0709616 0)
(8.68898 0.857504 0)
(7.53291 0.3443 0)
(6.63903 0.116542 0)
(5.90073 0.0550095 0)
(5.53078 0.0269195 0)
(5.26005 0.0145671 0)
(5.16168 0.0145659 0)
(4.94086 0.00196271 0)
(5.12631 0.033069 0)
(4.29466 -0.129249 0)
(9.89961 0.937653 0)
(9.97501 0.476298 0)
(9.5106 0.213732 0)
(8.73607 0.129702 0)
(8.28829 0.075622 0)
(7.88914 0.0428872 0)
(7.77536 0.0406059 0)
(7.40769 0.00549703 0)
(7.69765 0.0599745 0)
(6.81404 -0.125174 0)
(10.1417 0.808425 0)
(11.0876 0.49649 0)
(11.2987 0.266515 0)
(10.804 0.19694 0)
(10.475 0.131971 0)
(10.0419 0.0783975 0)
(9.983 0.0764849 0)
(9.50582 0.0134047 0)
(9.83062 0.0779888 0)
(9.10153 -0.0975555 0)
(10.0881 0.649002 0)
(11.2789 0.43417 0)
(12.0185 0.246703 0)
(11.9386 0.21757 0)
(11.9127 0.168252 0)
(11.5888 0.107341 0)
(11.67 0.11111 0)
(11.1965 0.0297648 0)
(11.4816 0.0802983 0)
(10.9991 -0.0562897 0)
(10.0909 0.51841 0)
(11.1696 0.357508 0)
(12.0835 0.185512 0)
(12.2395 0.186091 0)
(12.5001 0.163102 0)
(12.3822 0.10761 0)
(12.66 0.127963 0)
(12.3507 0.0426528 0)
(12.5913 0.07475 0)
(12.3362 -0.0224155 0)
(10.1275 0.399756 0)
(11.1116 0.291555 0)
(11.9883 0.129503 0)
(12.23 0.139397 0)
(12.5416 0.130493 0)
(12.5882 0.0833929 0)
(12.9375 0.111016 0)
(12.8782 0.0477572 0)
(13.1097 0.0433582 0)
(13.0711 0.0601723 0)
(10.0768 0.274487 0)
(11.1093 0.228402 0)
(11.9227 0.07871 0)
(12.2249 0.103861 0)
(12.4546 0.0861626 0)
(12.5987 0.0601848 0)
(12.853 0.0775112 0)
(13.0113 0.0412892 0)
(13.2192 -0.00116999 0)
(13.2762 0.105874 0)
(9.99868 0.168312 0)
(11.1236 0.135967 0)
(11.8968 0.0438442 0)
(12.2046 0.0601575 0)
(12.4119 0.0599621 0)
(12.5771 0.0253777 0)
(12.7944 0.0521406 0)
(13.0177 0.00700803 0)
(13.1821 -0.0208118 0)
(13.1824 0.0765923 0)
(10.004 0.0523512 0)
(11.1105 0.0523132 0)
(11.8603 0.0036673 0)
(12.1801 0.0299533 0)
(12.4056 0.0148761 0)
(12.6133 0.00356682 0)
(12.7791 0.0171935 0)
(12.9528 -0.00525857 0)
(13.1232 -0.0527851 0)
(13.1123 0.0374648 0)
(10.0048 -0.0537789 0)
(11.0967 -0.0378813 0)
(11.8613 -0.0259736 0)
(12.1846 -0.0159745 0)
(12.4123 -0.0190854 0)
(12.6316 -0.0306517 0)
(12.7624 0.00131994 0)
(12.95 -0.0337273 0)
(13.1073 -0.0754666 0)
(13.0193 0.0218309 0)
(10.0035 -0.167004 0)
(11.1144 -0.123353 0)
(11.8864 -0.065341 0)
(12.1983 -0.050752 0)
(12.4362 -0.0620521 0)
(12.6205 -0.0542906 0)
(12.7691 -0.0251053 0)
(12.9789 -0.0538336 0)
(13.1087 -0.0902952 0)
(12.9546 0.000890681 0)
(10.0208 -0.27646 0)
(11.1388 -0.211536 0)
(11.9331 -0.101237 0)
(12.2182 -0.0935715 0)
(12.4661 -0.0956239 0)
(12.6103 -0.0823757 0)
(12.801 -0.0504048 0)
(13.0101 -0.0771264 0)
(13.1091 -0.0991593 0)
(12.9988 -0.0557356 0)
(10.0377 -0.395005 0)
(11.1732 -0.289253 0)
(11.9996 -0.144854 0)
(12.2244 -0.130588 0)
(12.5204 -0.131817 0)
(12.5983 -0.107847 0)
(12.8368 -0.0802322 0)
(12.9317 -0.0937445 0)
(12.9919 -0.112036 0)
(12.9003 -0.103243 0)
(10.0289 -0.515579 0)
(11.249 -0.359395 0)
(12.0429 -0.193414 0)
(12.2444 -0.176429 0)
(12.4711 -0.165441 0)
(12.4098 -0.128995 0)
(12.5536 -0.0968683 0)
(12.4511 -0.0995038 0)
(12.4298 -0.10797 0)
(12.2293 -0.141915 0)
(10.0547 -0.647002 0)
(11.3309 -0.435917 0)
(11.9709 -0.250184 0)
(11.9607 -0.210895 0)
(11.8912 -0.172341 0)
(11.6124 -0.12124 0)
(11.5739 -0.0898676 0)
(11.3245 -0.0791653 0)
(11.2359 -0.0999754 0)
(10.9405 -0.114971 0)
(10.1244 -0.807378 0)
(11.1191 -0.497705 0)
(11.2605 -0.268321 0)
(10.8288 -0.192916 0)
(10.4595 -0.135026 0)
(10.0498 -0.0873225 0)
(9.91348 -0.0629706 0)
(9.6203 -0.0532505 0)
(9.51982 -0.0779751 0)
(9.1514 -0.0730564 0)
(9.89152 -0.93739 0)
(9.99324 -0.476828 0)
(9.48336 -0.214543 0)
(8.75619 -0.127578 0)
(8.27797 -0.0775389 0)
(7.88529 -0.047877 0)
(7.73514 -0.0345305 0)
(7.47521 -0.0299281 0)
(7.38739 -0.0493744 0)
(6.97744 -0.0437959 0)
(8.68524 -0.857432 0)
(7.54169 -0.344353 0)
(6.62363 -0.116951 0)
(5.91313 -0.0541881 0)
(5.52504 -0.027597 0)
(5.25201 -0.0171691 0)
(5.13914 -0.0127603 0)
(4.96116 -0.0120042 0)
(4.88764 -0.0231016 0)
(4.52126 -0.0209623 0)
(5.40374 -0.316842 0)
(3.31589 -0.0606221 0)
(2.5821 -0.00159234 0)
(2.23312 0.00217269 0)
(2.08288 0.00154761 0)
(1.98758 0.000192057 0)
(1.9435 3.92643e-05 0)
(1.87886 -0.000279522 0)
(1.83423 -0.00238651 0)
(1.63716 0.00604546 0)
(2.89501 -0.29625 0)
(2.52107 -0.23243 0)
(2.91372 -0.32266 0)
(2.35757 0.115809 0)
(3.01191 0.515804 0)
(3.82887 1.17661 0)
(5.10823 1.48466 0)
(6.16774 1.28596 0)
(7.05979 0.743063 0)
(7.29293 0.639723 0)
(8.15714 -0.219873 0)
(8.25687 -0.927569 0)
(8.384 -1.09016 0)
(9.56374 -1.7728 0)
(8.83945 -2.05116 0)
(9.83903 -2.42328 0)
(11.1685 -3.56414 0)
(10.9926 -3.83345 0)
(11.4627 -4.25564 0)
(11.5188 -4.75295 0)
(9.6841 -4.20504 0)
(9.31764 -3.16398 0)
(7.8153 -1.97576 0)
(7.16775 -0.297711 0)
(6.27555 1.7428 0)
(6.669 3.43368 0)
(7.6995 3.57702 0)
(7.64699 3.78736 0)
(8.41814 3.23984 0)
(9.10878 1.91682 0)
(8.98554 1.06589 0)
(9.67209 0.105647 0)
(9.76185 -1.2603 0)
(10.1417 -3.06333 0)
(9.99821 -3.99244 0)
(9.52867 -4.87506 0)
(9.87902 -6.56683 0)
(8.77812 -7.22162 0)
(7.25733 -5.85595 0)
(6.19427 -5.36177 0)
(4.28097 -8.08464 0)
(5.76097 -9.2376 0)
(5.59036 -8.87948 0)
(5.49029 -7.20748 0)
(6.35083 -4.78368 0)
(6.04491 -2.47257 0)
(6.71709 -0.972661 0)
(7.00215 0.124517 0)
(7.29813 1.56643 0)
(7.45332 3.59817 0)
(8.23655 5.80929 0)
(7.90862 7.48845 0)
(8.20675 7.06382 0)
(7.91225 6.56604 0)
(8.47254 5.68392 0)
(6.92671 4.63862 0)
(8.00474 3.7471 0)
(6.78505 3.18248 0)
(7.21443 2.87561 0)
(7.75908 4.42318 0)
(6.61172 5.27935 0)
(9.62393 6.19511 0)
(7.45728 4.81235 0)
(10.234 4.17784 0)
(8.31979 2.6747 0)
(10.434 0.682273 0)
(8.31342 -1.74442 0)
(10.4514 -2.80333 0)
(7.19787 -4.92864 0)
(9.96411 -6.03275 0)
(5.55495 -6.7949 0)
(8.02304 -6.38847 0)
(4.22958 -5.68046 0)
(4.57621 -1.80667 0)
(1.22596 -1.83039 0)
(4.38664 -1.36508 0)
(3.74205 -5.11711 0)
(5.98594 -3.441 0)
(5.89742 -3.38878 0)
(7.02144 -1.41992 0)
(7.7526 -0.0780863 0)
(7.53532 0.156505 0)
(8.24112 0.695085 0)
(9.61665 2.00063 0)
(9.76549 2.98161 0)
(9.41669 3.39485 0)
(9.57349 4.05849 0)
(10.1293 4.72222 0)
(10.0865 5.06424 0)
(9.5207 4.8892 0)
(8.68578 4.05665 0)
(7.65073 3.21454 0)
(7.40818 2.39665 0)
(6.15857 1.86515 0)
(6.58366 1.72466 0)
(5.50948 1.96929 0)
(6.45112 2.4002 0)
(4.92314 3.60943 0)
(6.13139 4.19033 0)
(3.53484 8.31902 0)
(5.32564 -0.21427 0)
(4.84055 -0.165049 0)
(5.2274 -0.252628 0)
(4.57215 0.143918 0)
(4.97195 0.40469 0)
(5.07193 0.764871 0)
(5.71579 0.968541 0)
(6.61639 0.825492 0)
(7.56561 0.42303 0)
(7.90915 0.434 0)
(9.01214 -0.330105 0)
(8.8922 -1.06174 0)
(8.90908 -1.37905 0)
(10.7089 -2.06944 0)
(10.1778 -2.25113 0)
(11.2917 -2.75425 0)
(12.4848 -3.88653 0)
(12.013 -3.97513 0)
(12.3813 -4.07022 0)
(11.8932 -4.38928 0)
(10.2943 -3.71499 0)
(9.82204 -2.73147 0)
(8.45176 -1.57779 0)
(7.75366 -0.0591727 0)
(7.30347 1.77503 0)
(7.32471 3.26089 0)
(8.65551 3.33507 0)
(8.49199 3.6181 0)
(9.2824 3.0901 0)
(9.791 1.83413 0)
(9.68348 0.958171 0)
(10.2246 -0.0104386 0)
(10.3731 -1.32842 0)
(10.6704 -3.08702 0)
(10.3813 -3.88903 0)
(9.82967 -4.7467 0)
(9.87445 -6.3235 0)
(8.65418 -6.75471 0)
(6.98526 -5.32988 0)
(5.98021 -4.84814 0)
(4.2274 -7.98071 0)
(4.79615 -9.56758 0)
(5.35929 -8.7667 0)
(4.32219 -7.14947 0)
(5.25191 -4.88822 0)
(5.04067 -2.6018 0)
(5.79922 -1.21482 0)
(5.98906 0.0196186 0)
(6.38723 1.48341 0)
(6.59532 3.50666 0)
(7.26027 5.69601 0)
(7.00484 7.40206 0)
(7.56006 6.96014 0)
(7.16267 6.55566 0)
(8.2525 5.80264 0)
(6.76187 4.77643 0)
(7.53705 3.75846 0)
(7.21663 3.29956 0)
(6.7251 2.70129 0)
(8.31166 4.42293 0)
(6.2814 4.99972 0)
(9.71105 5.93267 0)
(7.86249 4.54502 0)
(10.2772 4.14859 0)
(8.94468 2.57617 0)
(10.7839 0.716662 0)
(8.95368 -1.70919 0)
(10.5758 -2.70958 0)
(7.81039 -4.69877 0)
(10.1325 -5.54899 0)
(5.80423 -6.39144 0)
(8.41777 -5.90594 0)
(3.70613 -5.19302 0)
(5.28706 -1.24029 0)
(1.75525 -1.79108 0)
(5.81439 -1.86425 0)
(3.57052 -5.55819 0)
(6.31765 -3.58011 0)
(5.5056 -3.80735 0)
(6.71352 -1.53208 0)
(7.21359 -0.263741 0)
(7.13887 0.0745552 0)
(7.4151 0.313848 0)
(9.18557 1.61684 0)
(9.95337 2.91126 0)
(9.77419 3.48291 0)
(9.41394 3.96341 0)
(9.94251 4.67302 0)
(9.91293 5.16003 0)
(9.48714 5.13126 0)
(9.30931 4.48041 0)
(7.9713 3.54118 0)
(7.9147 2.69645 0)
(6.82545 2.22931 0)
(6.57648 1.7241 0)
(6.21751 2.14499 0)
(6.23202 2.26628 0)
(5.24894 4.01657 0)
(6.99414 3.8295 0)
(5.00315 8.96159 0)
(7.44472 -0.216073 0)
(6.96338 -0.166802 0)
(7.40941 -0.216172 0)
(6.91572 0.151869 0)
(7.15926 0.362639 0)
(7.3092 0.656211 0)
(7.42808 0.810298 0)
(8.04001 0.585618 0)
(8.64895 0.183078 0)
(8.86242 0.082272 0)
(10.2977 -0.569032 0)
(10.5038 -1.09713 0)
(10.4489 -1.52995 0)
(12.216 -2.34827 0)
(11.8083 -2.51441 0)
(12.6366 -2.98379 0)
(13.6807 -3.91095 0)
(12.8382 -3.93487 0)
(12.9691 -3.92786 0)
(12.1892 -4.06689 0)
(10.6736 -3.30408 0)
(10.097 -2.3591 0)
(8.73449 -1.22129 0)
(8.14795 0.102977 0)
(8.07339 1.77024 0)
(7.92048 3.0814 0)
(9.29721 3.05372 0)
(9.26731 3.3986 0)
(9.98457 2.97242 0)
(10.4158 1.75374 0)
(10.4009 0.842689 0)
(10.8013 -0.0983647 0)
(10.9411 -1.40008 0)
(11.1395 -3.01007 0)
(10.5888 -3.68668 0)
(10.0156 -4.61554 0)
(9.78363 -6.0569 0)
(8.64592 -6.12435 0)
(6.72131 -4.66314 0)
(5.63273 -4.41293 0)
(4.44115 -7.75698 0)
(3.55644 -9.82554 0)
(4.75749 -8.69641 0)
(3.28987 -6.987 0)
(4.15643 -4.98414 0)
(4.0803 -2.74978 0)
(4.80442 -1.4667 0)
(4.85513 -0.0428408 0)
(5.40362 1.43233 0)
(5.6113 3.41714 0)
(6.31086 5.53801 0)
(6.0456 7.27726 0)
(7.06929 6.85398 0)
(6.33125 6.45349 0)
(7.87989 5.79707 0)
(6.7009 4.93674 0)
(6.88755 3.7135 0)
(7.58096 3.37884 0)
(6.12826 2.56193 0)
(8.67347 4.34013 0)
(6.33476 4.83215 0)
(9.47586 5.55006 0)
(8.12355 4.37306 0)
(10.1084 3.974 0)
(9.50364 2.49359 0)
(11.037 0.75316 0)
(9.49688 -1.68261 0)
(10.5735 -2.52048 0)
(8.34585 -4.49627 0)
(9.8324 -5.38331 0)
(6.10889 -6.23973 0)
(8.69034 -5.53605 0)
(3.11558 -4.73279 0)
(6.45747 -0.973571 0)
(2.74984 -1.52756 0)
(7.16961 -2.01486 0)
(2.63104 -5.59253 0)
(6.27966 -3.67658 0)
(4.84586 -4.215 0)
(6.45617 -1.56805 0)
(6.38529 -0.491316 0)
(6.57985 0.0693588 0)
(6.48063 -0.103896 0)
(8.40622 1.11468 0)
(9.59344 2.74802 0)
(9.97255 3.57052 0)
(9.42384 3.88825 0)
(9.64371 4.52303 0)
(9.91666 5.15962 0)
(9.26505 5.18039 0)
(9.36931 4.66101 0)
(8.744 3.85865 0)
(7.70313 2.80212 0)
(7.6509 2.60276 0)
(6.38556 1.67661 0)
(6.71002 2.34102 0)
(6.62871 2.33718 0)
(5.41214 4.25377 0)
(7.83322 3.39753 0)
(6.20886 8.80108 0)
(9.44956 -0.123581 0)
(8.96744 -0.143036 0)
(9.22198 -0.254326 0)
(8.98861 0.139796 0)
(9.11976 0.311289 0)
(9.4644 0.537191 0)
(9.43209 0.708843 0)
(10.0198 0.450425 0)
(10.4926 0.109139 0)
(10.5449 -0.130168 0)
(11.7799 -0.907315 0)
(12.0308 -1.34626 0)
(12.079 -1.74511 0)
(13.4362 -2.55832 0)
(13.1872 -2.73342 0)
(13.5473 -3.18875 0)
(14.2026 -3.91194 0)
(13.2315 -3.81969 0)
(13.2114 -3.6655 0)
(12.38 -3.619 0)
(11.1986 -2.80314 0)
(10.7421 -1.85572 0)
(9.05023 -0.805867 0)
(8.47851 0.220375 0)
(8.51037 1.75895 0)
(8.37397 2.91929 0)
(9.71342 2.75955 0)
(9.8246 3.18365 0)
(10.4365 2.82752 0)
(10.9225 1.68086 0)
(11.0075 0.798953 0)
(11.3104 -0.165296 0)
(11.3709 -1.42513 0)
(11.3921 -2.87185 0)
(10.6264 -3.50451 0)
(10.1159 -4.38648 0)
(9.6659 -5.71544 0)
(8.49341 -5.52019 0)
(6.42011 -3.99933 0)
(5.29251 -4.09115 0)
(4.56397 -7.34177 0)
(2.63831 -9.70612 0)
(3.89915 -8.55323 0)
(2.59768 -6.82382 0)
(3.44747 -5.09136 0)
(3.18321 -2.88417 0)
(3.83351 -1.69693 0)
(3.7788 -0.0894765 0)
(4.39918 1.3162 0)
(4.69063 3.34639 0)
(5.25268 5.39509 0)
(4.99548 7.07415 0)
(6.58828 6.74992 0)
(5.53543 6.24556 0)
(7.17487 5.67923 0)
(6.54714 5.05374 0)
(6.0452 3.51377 0)
(7.89949 3.49081 0)
(5.59079 2.33702 0)
(8.79778 4.19871 0)
(6.68618 4.69147 0)
(9.22319 5.25561 0)
(8.48277 4.19184 0)
(10.2037 3.65433 0)
(9.80809 2.33215 0)
(11.1555 0.661298 0)
(9.87433 -1.39005 0)
(10.5355 -2.40975 0)
(8.87037 -4.20045 0)
(9.54161 -4.97175 0)
(6.69419 -5.72467 0)
(8.56505 -4.99147 0)
(2.96086 -4.43659 0)
(7.65283 -1.15945 0)
(3.22816 -1.41334 0)
(7.92462 -1.8603 0)
(1.36932 -5.33031 0)
(6.09542 -3.83905 0)
(4.19448 -4.54675 0)
(6.12568 -1.53099 0)
(5.58976 -0.718191 0)
(6.0393 0.182539 0)
(5.69643 -0.477464 0)
(7.46569 0.513563 0)
(9.0267 2.29736 0)
(9.72368 3.55583 0)
(9.46009 4.05004 0)
(9.16037 4.50506 0)
(9.67865 5.2128 0)
(9.28648 5.37838 0)
(8.84507 4.60189 0)
(9.21991 4.24191 0)
(7.86628 2.98506 0)
(7.54544 2.8611 0)
(7.57885 1.9257 0)
(6.51056 2.53878 0)
(7.59965 2.33743 0)
(5.65234 4.46331 0)
(8.5392 2.80413 0)
(7.20068 8.28272 0)
(11.15 -0.0189639 0)
(10.7731 -0.10571 0)
(10.8523 -0.273852 0)
(10.7736 0.129043 0)
(10.8103 0.242788 0)
(11.1839 0.387204 0)
(11.226 0.612242 0)
(11.78 0.292583 0)
(12.0534 -0.0584828 0)
(12.2565 -0.312444 0)
(13.2406 -1.0733 0)
(13.3218 -1.53615 0)
(13.4327 -1.86085 0)
(14.2302 -2.63438 0)
(14.0344 -2.88798 0)
(14.1661 -3.23761 0)
(14.2895 -3.75142 0)
(13.3083 -3.65194 0)
(13.269 -3.40252 0)
(12.3445 -3.253 0)
(11.1703 -2.58333 0)
(11.0971 -1.49238 0)
(9.52488 -0.372365 0)
(8.90474 0.361795 0)
(8.78041 1.76156 0)
(8.69186 2.73809 0)
(9.92836 2.49871 0)
(10.0293 2.99527 0)
(10.6588 2.64766 0)
(11.2756 1.59244 0)
(11.399 0.742763 0)
(11.6364 -0.193806 0)
(11.5627 -1.41689 0)
(11.4102 -2.69254 0)
(10.5752 -3.22522 0)
(10.0542 -4.17264 0)
(9.55864 -5.37821 0)
(8.28678 -4.84756 0)
(6.17963 -3.31027 0)
(4.8922 -3.77256 0)
(4.3192 -6.8898 0)
(2.33941 -9.38837 0)
(3.08367 -8.36105 0)
(2.2843 -6.69614 0)
(3.06927 -5.11536 0)
(2.41266 -2.97341 0)
(2.89493 -1.88522 0)
(2.96269 -0.179246 0)
(3.52464 1.11932 0)
(3.6958 3.28628 0)
(4.18846 5.22333 0)
(4.00882 6.74606 0)
(5.97434 6.62053 0)
(4.98545 6.0895 0)
(6.23536 5.5578 0)
(6.62125 5.15923 0)
(5.05947 3.26326 0)
(7.94441 3.50581 0)
(5.49117 2.2346 0)
(8.56814 3.94236 0)
(7.04715 4.53949 0)
(9.15472 4.89946 0)
(8.86015 3.89469 0)
(10.4584 3.39479 0)
(9.87635 2.1657 0)
(11.2465 0.694945 0)
(9.94467 -1.29118 0)
(10.5822 -2.38565 0)
(9.11316 -3.83041 0)
(9.24512 -4.70033 0)
(7.11159 -5.35152 0)
(8.06178 -4.40982 0)
(3.20533 -4.17844 0)
(7.76302 -1.39449 0)
(3.06947 -1.31576 0)
(7.54267 -1.58538 0)
(0.566195 -5.02678 0)
(6.15516 -4.27955 0)
(3.8653 -4.75049 0)
(5.62253 -1.45901 0)
(5.2322 -0.980427 0)
(5.61569 0.276496 0)
(5.18106 -0.930464 0)
(6.32868 -0.0431864 0)
(8.39947 1.87755 0)
(9.00523 3.35244 0)
(9.45577 4.02441 0)
(8.69241 4.49082 0)
(9.06058 5.02692 0)
(9.4216 5.58962 0)
(8.65353 4.49304 0)
(8.86765 4.45782 0)
(8.95896 3.3231 0)
(6.86766 3.07741 0)
(8.7776 1.9184 0)
(6.33484 2.73615 0)
(8.50277 2.13743 0)
(6.11135 4.56215 0)
(9.08144 2.24537 0)
(8.082 7.6515 0)
(12.3729 0.0801613 0)
(12.2424 -0.0600573 0)
(12.196 -0.297966 0)
(12.092 0.0814938 0)
(12.2395 0.195554 0)
(12.455 0.286322 0)
(12.5352 0.481753 0)
(13.1998 0.195166 0)
(13.2293 -0.163266 0)
(13.5086 -0.479685 0)
(14.2822 -1.12126 0)
(14.1835 -1.70706 0)
(14.2593 -2.00588 0)
(14.5576 -2.60479 0)
(14.372 -2.99613 0)
(14.3016 -3.26183 0)
(14.0649 -3.47892 0)
(13.296 -3.44212 0)
(13.1789 -3.24345 0)
(12.6571 -2.81261 0)
(11.5216 -2.23549 0)
(11.2269 -1.18496 0)
(9.94014 0.0146769 0)
(9.39416 0.535318 0)
(9.09276 1.74997 0)
(9.03187 2.55269 0)
(10.0586 2.27681 0)
(10.0331 2.78424 0)
(10.7283 2.36492 0)
(11.3846 1.42439 0)
(11.4193 0.695186 0)
(11.6002 -0.223209 0)
(11.4868 -1.35773 0)
(11.2366 -2.45567 0)
(10.4278 -2.98842 0)
(9.94858 -3.95542 0)
(9.42426 -4.96649 0)
(8.00001 -4.1811 0)
(6.01759 -2.63406 0)
(4.64976 -3.34284 0)
(3.90129 -6.46399 0)
(2.35346 -9.04371 0)
(2.38999 -8.26521 0)
(2.05847 -6.66137 0)
(2.60147 -5.00915 0)
(1.628 -2.94561 0)
(2.04339 -2.06424 0)
(2.2502 -0.260594 0)
(2.66747 0.949305 0)
(2.73133 3.25919 0)
(3.15746 5.07538 0)
(2.96651 6.36466 0)
(5.32306 6.42915 0)
(4.56501 5.93791 0)
(5.19439 5.23942 0)
(6.78235 5.26418 0)
(4.32755 3.04422 0)
(7.65788 3.30185 0)
(5.76741 2.19623 0)
(8.08533 3.54891 0)
(7.08189 4.33491 0)
(9.17965 4.45557 0)
(8.98907 3.6951 0)
(10.4168 3.17907 0)
(9.84132 2.09624 0)
(11.2881 0.6405 0)
(9.96773 -1.1198 0)
(10.73 -2.14691 0)
(9.11782 -3.46947 0)
(9.29548 -4.51589 0)
(7.29218 -4.95829 0)
(7.55735 -3.81551 0)
(3.45699 -3.73434 0)
(6.38201 -1.30339 0)
(2.8024 -1.25128 0)
(6.46081 -1.26315 0)
(1.03862 -4.92552 0)
(6.37806 -4.76808 0)
(3.92332 -4.75866 0)
(5.34664 -1.36626 0)
(4.85407 -1.24014 0)
(5.52441 0.577236 0)
(4.80814 -1.2876 0)
(5.24354 -0.585165 0)
(7.78335 1.31149 0)
(8.17586 3.19795 0)
(8.91709 4.03891 0)
(8.44661 4.77802 0)
(8.2921 4.71739 0)
(8.94648 5.75928 0)
(9.14627 4.53316 0)
(8.02847 4.56077 0)
(9.95093 3.56122 0)
(6.62436 3.40853 0)
(9.5017 1.75902 0)
(6.44765 2.93319 0)
(9.15929 1.94808 0)
(6.65238 4.54616 0)
(9.40202 1.85141 0)
(8.75471 7.10092 0)
(12.8954 0.0559777 0)
(12.9212 -0.170702 0)
(13.0499 -0.297758 0)
(12.8891 0.0326138 0)
(13.1504 0.0952372 0)
(13.3144 0.232861 0)
(13.356 0.271996 0)
(14.0058 0.0796039 0)
(13.9797 -0.237401 0)
(14.2309 -0.659638 0)
(14.7443 -1.13471 0)
(14.5612 -1.78065 0)
(14.5736 -2.04391 0)
(14.5331 -2.51249 0)
(14.3779 -3.00563 0)
(14.1006 -3.1873 0)
(13.6224 -3.29848 0)
(13.4324 -3.2483 0)
(13.1018 -3.09369 0)
(12.6557 -2.60423 0)
(11.9601 -1.98062 0)
(11.4383 -0.902258 0)
(10.4765 0.329135 0)
(10.0512 0.73323 0)
(9.45729 1.79669 0)
(9.37708 2.40774 0)
(10.1252 2.16864 0)
(9.89693 2.59101 0)
(10.6321 2.04301 0)
(11.0718 1.31792 0)
(11.0501 0.678999 0)
(11.3714 -0.249979 0)
(11.2265 -1.29069 0)
(10.976 -2.24357 0)
(10.2325 -2.76658 0)
(9.79919 -3.75178 0)
(9.24157 -4.51634 0)
(7.70745 -3.53915 0)
(5.76623 -1.92668 0)
(4.52842 -2.87665 0)
(3.47751 -6.16821 0)
(2.19333 -8.70872 0)
(1.70233 -8.30642 0)
(1.42696 -6.76378 0)
(1.62131 -4.90528 0)
(0.788662 -2.88749 0)
(1.23823 -2.24157 0)
(1.37147 -0.317798 0)
(1.64992 0.951897 0)
(1.58577 3.30351 0)
(2.1607 4.93257 0)
(2.1754 5.822 0)
(4.48042 6.14014 0)
(4.28611 5.81897 0)
(3.73739 4.73674 0)
(6.65423 5.32992 0)
(4.30014 3.05541 0)
(7.10799 2.93306 0)
(5.86573 2.16624 0)
(7.71175 3.24085 0)
(6.93195 4.00426 0)
(9.22791 4.11339 0)
(8.80575 3.46505 0)
(10.2054 3.02636 0)
(9.81913 1.92856 0)
(11.2791 0.633733 0)
(9.9463 -0.969026 0)
(10.6643 -2.10599 0)
(9.05636 -3.21676 0)
(9.50811 -4.01698 0)
(7.20947 -4.27294 0)
(7.50225 -3.09304 0)
(3.83172 -3.01906 0)
(4.88811 -1.06407 0)
(2.92849 -1.34756 0)
(5.34749 -1.1991 0)
(2.65854 -5.14496 0)
(6.31979 -5.18631 0)
(3.77074 -4.75428 0)
(5.44854 -1.27164 0)
(3.99367 -1.5763 0)
(6.02082 0.742469 0)
(4.83845 -1.31682 0)
(4.77103 -0.867303 0)
(6.59639 0.584157 0)
(7.69953 2.99672 0)
(7.84314 3.64213 0)
(8.2222 4.96613 0)
(7.67999 4.436 0)
(7.92323 5.6915 0)
(9.81477 4.48984 0)
(7.1064 4.62857 0)
(10.1634 3.47098 0)
(6.63592 3.54233 0)
(9.85087 1.66709 0)
(6.64276 3.12065 0)
(9.38444 1.78256 0)
(7.31382 4.50403 0)
(9.60789 1.55837 0)
(9.31242 6.53048 0)
(13.1031 0.104365 0)
(12.979 -0.249852 0)
(13.09 -0.281624 0)
(13.2068 -0.0249598 0)
(13.3733 -0.0335207 0)
(13.6091 0.211571 0)
(13.8387 0.116883 0)
(14.1714 -0.0228375 0)
(14.24 -0.327533 0)
(14.4705 -0.762741 0)
(14.6764 -1.10138 0)
(14.5285 -1.84975 0)
(14.3965 -2.06651 0)
(14.2333 -2.43427 0)
(14.158 -3.00001 0)
(13.9567 -3.0105 0)
(13.461 -3.12955 0)
(13.559 -3.15976 0)
(13.2641 -2.89977 0)
(12.6987 -2.41843 0)
(12.1857 -1.75895 0)
(11.4846 -0.634216 0)
(10.9149 0.491096 0)
(10.6729 0.937062 0)
(9.72876 1.97339 0)
(9.59353 2.36752 0)
(9.91048 2.17506 0)
(9.55791 2.43504 0)
(10.3692 1.79661 0)
(10.4969 1.29064 0)
(10.6195 0.623257 0)
(11.1566 -0.301854 0)
(10.8834 -1.22169 0)
(10.6455 -2.05434 0)
(10.0523 -2.57545 0)
(9.6399 -3.55243 0)
(8.99596 -4.05969 0)
(7.41842 -2.85477 0)
(5.44488 -1.26337 0)
(4.45646 -2.47638 0)
(3.16338 -5.78631 0)
(1.69323 -8.27068 0)
(0.990721 -8.18139 0)
(0.286876 -6.77579 0)
(0.201145 -4.85174 0)
(-0.0997813 -2.91056 0)
(0.45888 -2.39983 0)
(0.42661 -0.33846 0)
(0.619096 0.992006 0)
(0.20146 3.23495 0)
(1.47474 4.7221 0)
(1.32844 5.22395 0)
(3.51341 5.8127 0)
(4.20832 5.86863 0)
(2.24955 4.32635 0)
(6.29901 5.04731 0)
(4.35233 3.02539 0)
(6.47703 2.56535 0)
(5.7284 2.01481 0)
(7.57645 2.91242 0)
(6.76104 3.65424 0)
(9.11256 3.76708 0)
(8.5249 3.28212 0)
(9.87123 2.80976 0)
(9.86116 1.6274 0)
(11.0835 0.667854 0)
(9.98963 -0.870369 0)
(10.4995 -1.89528 0)
(9.14703 -2.96921 0)
(9.478 -3.7447 0)
(6.78128 -4.00648 0)
(7.25149 -2.76445 0)
(3.81886 -2.41426 0)
(4.43657 -0.944128 0)
(2.72782 -1.42489 0)
(4.80399 -1.29678 0)
(3.73679 -5.22611 0)
(5.59531 -5.4999 0)
(2.45054 -4.81023 0)
(5.55592 -1.11779 0)
(2.97083 -2.09214 0)
(6.2519 0.731356 0)
(5.2984 -1.20136 0)
(5.07302 -0.749389 0)
(5.1254 -0.250948 0)
(7.00087 3.05522 0)
(6.71917 3.34872 0)
(7.45464 5.25764 0)
(7.70268 4.40442 0)
(6.40866 5.46703 0)
(10.0944 4.36725 0)
(6.31812 4.82239 0)
(9.91981 3.31614 0)
(6.59811 3.60464 0)
(9.786 1.6569 0)
(7.03492 3.25062 0)
(9.35255 1.63803 0)
(8.03485 4.40743 0)
(9.75042 1.35812 0)
(9.74698 5.93728 0)
(13.3048 0.204522 0)
(13.055 -0.177775 0)
(12.9158 -0.227818 0)
(13.345 -0.112132 0)
(13.2913 -0.167869 0)
(13.5135 0.0906226 0)
(13.9887 0.00263643 0)
(14.1045 -0.0571734 0)
(14.3056 -0.414103 0)
(14.4036 -0.807613 0)
(14.4774 -1.05345 0)
(14.4503 -1.81343 0)
(14.15 -2.03123 0)
(14.0905 -2.36221 0)
(14.0771 -2.93837 0)
(13.822 -2.92205 0)
(13.5625 -3.08481 0)
(13.5612 -3.1096 0)
(13.1425 -2.73885 0)
(12.6382 -2.27576 0)
(12.2907 -1.52489 0)
(11.6054 -0.370571 0)
(11.1687 0.585845 0)
(10.799 1.19232 0)
(9.72053 2.22211 0)
(9.64205 2.37109 0)
(9.55402 2.22377 0)
(9.27133 2.27153 0)
(10.126 1.60763 0)
(10.0369 1.27046 0)
(10.378 0.480763 0)
(10.8903 -0.378723 0)
(10.5014 -1.10814 0)
(10.3415 -1.89408 0)
(9.89739 -2.45012 0)
(9.45188 -3.30504 0)
(8.69755 -3.56054 0)
(7.13911 -2.1593 0)
(5.19286 -0.666346 0)
(4.39785 -1.9885 0)
(2.97953 -5.19363 0)
(0.980219 -7.74989 0)
(0.287233 -7.68481 0)
(-0.759804 -6.38503 0)
(-0.970689 -4.71885 0)
(-0.789522 -3.01881 0)
(-0.309982 -2.51997 0)
(-0.529645 -0.364421 0)
(-0.384521 0.999975 0)
(-0.937165 3.04176 0)
(0.887559 4.51455 0)
(0.526726 4.70484 0)
(2.6812 5.29869 0)
(4.13055 5.98825 0)
(1.61162 4.14459 0)
(5.51331 4.43083 0)
(3.85168 2.88506 0)
(6.16542 2.20274 0)
(5.6317 1.70376 0)
(7.30563 2.72323 0)
(6.4831 3.2965 0)
(8.74946 3.48736 0)
(8.27543 3.08997 0)
(9.60249 2.48726 0)
(9.99371 1.4143 0)
(10.6059 0.617655 0)
(9.99853 -0.721346 0)
(10.2994 -1.73533 0)
(9.21465 -2.82175 0)
(9.28431 -3.25691 0)
(7.08159 -3.35761 0)
(7.3799 -2.17881 0)
(3.92526 -1.72189 0)
(4.86672 -0.751564 0)
(2.43018 -1.38203 0)
(5.1177 -1.61259 0)
(3.13297 -4.80884 0)
(3.85375 -5.34893 0)
(-0.0704142 -4.70815 0)
(5.35381 -1.13783 0)
(2.27512 -2.67173 0)
(5.98483 0.370218 0)
(5.48065 -1.1876 0)
(5.90088 -0.335375 0)
(3.99374 -0.770142 0)
(6.21898 2.99028 0)
(5.57473 2.74526 0)
(6.41394 5.19434 0)
(8.03748 4.41452 0)
(5.18977 5.26837 0)
(10.151 4.03403 0)
(6.07805 4.98682 0)
(9.65495 3.25645 0)
(6.7832 3.65984 0)
(9.46977 1.57984 0)
(7.5771 3.30201 0)
(9.17993 1.56901 0)
(8.47175 4.24432 0)
(9.81115 1.1748 0)
(10.1335 5.26111 0)
(13.3274 0.240163 0)
(13.164 -0.0640791 0)
(13.0359 -0.163688 0)
(13.4999 -0.148047 0)
(13.3699 -0.229871 0)
(13.5376 -0.0327216 0)
(13.8816 -0.143807 0)
(13.9893 -0.183945 0)
(14.2121 -0.467679 0)
(14.1171 -0.803475 0)
(14.3051 -1.07253 0)
(14.2585 -1.73446 0)
(13.9965 -1.97298 0)
(14.145 -2.33886 0)
(14.1133 -2.83717 0)
(13.7385 -2.85123 0)
(13.5252 -3.04454 0)
(13.3377 -2.9515 0)
(12.7609 -2.5168 0)
(12.3853 -2.15983 0)
(12.0574 -1.34648 0)
(11.3375 -0.14826 0)
(10.9405 0.723351 0)
(10.5158 1.48992 0)
(9.58108 2.42935 0)
(9.63757 2.41761 0)
(9.32669 2.34532 0)
(9.23637 2.13792 0)
(9.93572 1.48261 0)
(9.64861 1.20467 0)
(10.2522 0.318501 0)
(10.5284 -0.355139 0)
(10.0317 -1.00965 0)
(10.1191 -1.80109 0)
(9.77265 -2.30948 0)
(9.19136 -3.02403 0)
(8.33157 -3.04605 0)
(6.75823 -1.46813 0)
(4.96447 -0.0982562 0)
(4.31076 -1.49177 0)
(2.83411 -4.50564 0)
(0.423674 -7.16349 0)
(-0.322538 -7.2092 0)
(-0.940774 -5.8668 0)
(-1.38661 -4.53319 0)
(-1.25057 -3.13514 0)
(-0.952953 -2.46937 0)
(-1.82039 -0.230352 0)
(-1.37949 1.16281 0)
(-2.08001 2.65519 0)
(0.410309 4.16768 0)
(0.038059 4.23951 0)
(1.52429 4.53224 0)
(3.88129 6.06476 0)
(1.5858 4.0939 0)
(4.62081 3.88336 0)
(3.4022 2.58401 0)
(6.1448 1.85074 0)
(5.33084 1.58616 0)
(6.62122 2.63021 0)
(6.28789 2.92966 0)
(8.34158 3.12717 0)
(8.10684 2.79678 0)
(9.38865 2.13109 0)
(9.97961 1.20088 0)
(10.0982 0.667527 0)
(9.74503 -0.664517 0)
(10.0706 -1.66166 0)
(9.43526 -2.5229 0)
(8.8173 -2.92012 0)
(7.05656 -3.07606 0)
(7.15501 -1.7753 0)
(4.48253 -1.17566 0)
(5.20388 -0.446589 0)
(2.58532 -1.32804 0)
(5.3202 -1.93486 0)
(2.02214 -4.06916 0)
(2.0386 -4.4587 0)
(-1.75579 -4.82981 0)
(5.27149 -1.63953 0)
(2.0388 -2.81575 0)
(5.1358 -0.0838734 0)
(5.14236 -1.79573 0)
(5.88033 0.151915 0)
(3.45235 -0.886323 0)
(5.30457 3.24291 0)
(4.95904 2.65848 0)
(4.77681 5.18236 0)
(7.91208 4.25422 0)
(4.16777 5.03651 0)
(9.34818 3.53342 0)
(5.80502 5.03766 0)
(9.14527 3.14812 0)
(7.14918 3.62977 0)
(9.05222 1.52617 0)
(8.02045 3.27041 0)
(9.06916 1.56744 0)
(8.90956 3.8358 0)
(9.99851 0.963892 0)
(10.5673 4.54399 0)
(13.2103 0.25464 0)
(13.3153 -0.0649407 0)
(13.2977 -0.151028 0)
(13.6917 -0.174293 0)
(13.5223 -0.339723 0)
(13.5731 -0.0915612 0)
(13.7452 -0.179709 0)
(13.8075 -0.297598 0)
(13.8878 -0.443711 0)
(13.8403 -0.782872 0)
(14.1216 -1.10171 0)
(13.9919 -1.61917 0)
(14.0163 -1.98537 0)
(14.1329 -2.35626 0)
(13.8246 -2.69951 0)
(13.4668 -2.77162 0)
(13.1243 -2.92834 0)
(12.6989 -2.74165 0)
(12.1698 -2.36217 0)
(11.9028 -2.01943 0)
(11.2929 -1.04459 0)
(10.4713 0.113927 0)
(10.3606 0.829056 0)
(9.96871 1.72486 0)
(9.34348 2.55972 0)
(9.63511 2.45895 0)
(9.13993 2.44009 0)
(9.28045 2.02087 0)
(9.68037 1.44884 0)
(9.3394 1.15515 0)
(10.08 0.196789 0)
(10.0346 -0.29808 0)
(9.66882 -0.946077 0)
(10.0155 -1.76186 0)
(9.6395 -2.16696 0)
(8.82446 -2.68087 0)
(7.8645 -2.48993 0)
(6.38468 -0.807677 0)
(4.75325 0.393684 0)
(4.28528 -1.01378 0)
(2.79293 -3.74605 0)
(0.20558 -6.45561 0)
(-0.927651 -7.08817 0)
(-0.622532 -5.75208 0)
(-1.4337 -4.57803 0)
(-1.4184 -3.28547 0)
(-1.62651 -2.23801 0)
(-3.20934 -0.0537788 0)
(-1.81861 1.25247 0)
(-2.91426 2.19686 0)
(-0.0268493 3.85248 0)
(-0.341921 4.10229 0)
(-0.0959426 3.80239 0)
(3.44173 6.06974 0)
(1.78666 3.91578 0)
(4.23357 3.50147 0)
(3.32615 2.27601 0)
(5.88563 1.64442 0)
(4.81737 1.58613 0)
(6.02261 2.37395 0)
(6.40132 2.42599 0)
(7.89367 2.76345 0)
(7.89157 2.56205 0)
(9.08537 1.76232 0)
(9.65025 1.11068 0)
(9.65352 0.710871 0)
(9.62199 -0.691164 0)
(9.74376 -1.67277 0)
(9.47551 -2.25727 0)
(8.67168 -2.40715 0)
(7.12003 -2.54793 0)
(6.37213 -1.32621 0)
(4.79088 -0.776886 0)
(5.08953 -0.137192 0)
(3.5512 -1.14414 0)
(4.76987 -1.80934 0)
(1.78249 -3.4257 0)
(1.73085 -3.90885 0)
(-0.560476 -5.76009 0)
(4.89154 -2.75025 0)
(1.4334 -2.55867 0)
(4.48084 -0.510932 0)
(3.72471 -2.22112 0)
(5.18231 0.653341 0)
(3.94 -0.863423 0)
(4.09682 3.2727 0)
(4.96805 2.21907 0)
(3.46206 4.77038 0)
(7.7713 3.98092 0)
(3.72413 5.02032 0)
(8.35019 3.20425 0)
(5.49534 5.00822 0)
(8.47162 2.95187 0)
(7.3258 3.52321 0)
(8.62696 1.49356 0)
(8.4039 3.0452 0)
(9.09803 1.51923 0)
(9.31208 3.36498 0)
(10.1326 0.827589 0)
(10.8311 3.9305 0)
(13.3011 0.194243 0)
(13.4874 -0.128264 0)
(13.4197 -0.155666 0)
(13.8123 -0.128737 0)
(13.5596 -0.327735 0)
(13.5307 -0.10915 0)
(13.6403 -0.19067 0)
(13.589 -0.352116 0)
(13.5911 -0.442086 0)
(13.6679 -0.812818 0)
(13.8692 -1.1181 0)
(13.8319 -1.57692 0)
(13.959 -2.02469 0)
(13.7002 -2.2472 0)
(13.1746 -2.49469 0)
(12.821 -2.65758 0)
(12.2731 -2.71997 0)
(11.7112 -2.49356 0)
(11.1759 -2.20153 0)
(10.6475 -1.74026 0)
(9.74438 -0.656829 0)
(9.3392 0.240299 0)
(9.56017 0.856953 0)
(9.0168 1.92698 0)
(8.95571 2.55762 0)
(9.25273 2.48663 0)
(8.69781 2.53232 0)
(9.20803 1.94027 0)
(9.21465 1.47421 0)
(9.09166 1.03156 0)
(9.8888 0.0836946 0)
(9.54848 -0.2116 0)
(9.52635 -0.963944 0)
(9.99958 -1.73596 0)
(9.35955 -1.94347 0)
(8.30204 -2.25559 0)
(7.30653 -1.92226 0)
(5.95439 -0.242105 0)
(4.5688 0.79333 0)
(4.37012 -0.536073 0)
(2.90209 -2.9465 0)
(0.15522 -5.61363 0)
(-1.69236 -6.94041 0)
(-1.08624 -5.77229 0)
(-1.96131 -4.51938 0)
(-2.05035 -3.25324 0)
(-2.66723 -1.8565 0)
(-3.95981 -0.00657578 0)
(-1.60552 1.14676 0)
(-3.56677 1.69731 0)
(-0.177673 3.17604 0)
(-0.436651 4.07765 0)
(-1.72809 3.18741 0)
(3.02579 5.40518 0)
(1.81358 3.49068 0)
(3.95053 3.2737 0)
(3.38426 1.96912 0)
(5.47556 1.40133 0)
(4.57804 1.46015 0)
(5.80515 1.94928 0)
(6.42403 2.05887 0)
(7.23634 2.58655 0)
(7.54289 2.26381 0)
(8.73053 1.44331 0)
(9.09382 0.991389 0)
(9.28037 0.649792 0)
(9.61104 -0.632788 0)
(9.76876 -1.5844 0)
(9.15675 -2.11093 0)
(8.35729 -2.0476 0)
(7.22849 -1.98331 0)
(6.01886 -0.861643 0)
(5.09694 -0.486196 0)
(4.96151 0.0280861 0)
(4.77251 -0.899565 0)
(4.29571 -1.37556 0)
(2.63788 -2.99459 0)
(2.80544 -3.83525 0)
(1.67462 -6.03268 0)
(2.53103 -3.28302 0)
(-0.281254 -2.38353 0)
(3.5761 -1.16568 0)
(1.78674 -2.23294 0)
(3.4899 0.331679 0)
(4.58001 -0.833028 0)
(2.95192 3.47805 0)
(4.85734 2.22675 0)
(1.59935 4.69645 0)
(6.97596 3.41867 0)
(3.42724 4.96789 0)
(7.33691 2.96346 0)
(5.13061 4.85854 0)
(7.73056 2.69757 0)
(7.43498 3.28385 0)
(8.48548 1.38235 0)
(8.63984 2.69576 0)
(9.06624 1.50281 0)
(9.63573 2.9781 0)
(10.3338 0.685207 0)
(11.0549 3.29352 0)