/*--------------------------------*- C++ -*----------------------------------*\
| =========                 |                                                 |
| \\      /  F ield         | OpenFOAM: The Open Source CFD Toolbox           |
|  \\    /   O peration     | Version:  2.4.0                                 |
|   \\  /    A nd           | Web:      www.OpenFOAM.org                      |
|    \\/     M anipulation  |                                                 |
\*---------------------------------------------------------------------------*/
FoamFile
{
    version     2.0;
    format      ascii;
    class       volScalarField;
    location    "0.035";
    object      nuSgs;
}
// * * * * * * * * * * * * * * * * * * * * * * * * * * * * * * * * * * * * * //

dimensions      [0 2 -1 0 0 0 0];

internalField   nonuniform List<scalar> 
4400
(
0.00205466
0.00193339
0.00170151
0.00152531
0.00143404
0.00136965
0.00131854
0.00130355
0.00130167
0.00118818
0.00139994
0.0017226
0.00172954
0.00166636
0.00159012
0.00152355
0.00146944
0.00144617
0.00142635
0.00141218
0.000731931
0.00117177
0.00136898
0.00141494
0.00140671
0.00137927
0.0013456
0.00132333
0.0012966
0.00130558
0.000274497
0.000637362
0.000869354
0.00101307
0.00108587
0.00111581
0.00112515
0.00112209
0.00110846
0.00111093
8.9261e-05
0.000260809
0.000412543
0.000579632
0.000690912
0.00076719
0.000831293
0.000847612
0.000869402
0.000873253
2.61341e-05
8.70117e-05
0.000147474
0.000249096
0.000327689
0.000407565
0.000503769
0.000528187
0.000579754
0.00059978
7.96954e-06
2.68665e-05
4.23654e-05
7.82066e-05
0.000111174
0.000155016
0.000231529
0.000250913
0.000290986
0.000330558
4.34963e-06
1.16256e-05
1.3735e-05
2.03826e-05
2.88392e-05
4.38272e-05
7.59309e-05
8.37761e-05
9.99712e-05
0.000127177
3.82091e-06
8.94008e-06
9.55857e-06
9.80983e-06
1.02954e-05
1.2611e-05
2.02871e-05
2.16364e-05
2.51938e-05
3.12101e-05
3.75893e-06
8.54714e-06
9.30982e-06
9.07661e-06
8.91401e-06
9.15393e-06
1.02881e-05
1.05753e-05
1.09255e-05
1.11596e-05
3.75581e-06
8.43515e-06
9.37298e-06
9.1123e-06
8.94479e-06
9.3133e-06
1.00064e-05
1.07745e-05
1.10427e-05
1.24802e-05
3.79646e-06
8.5548e-06
1.01378e-05
9.98449e-06
1.06729e-05
1.49357e-05
1.77302e-05
2.35592e-05
2.74093e-05
4.24099e-05
4.16999e-06
1.04589e-05
1.70612e-05
1.96639e-05
2.82678e-05
5.30588e-05
6.68307e-05
9.13584e-05
0.000106647
0.00015583
7.6485e-06
2.63769e-05
5.20154e-05
7.13746e-05
0.000107028
0.000179097
0.000211622
0.000267092
0.000295878
0.000379218
2.50697e-05
8.70778e-05
0.000172483
0.000229855
0.000319149
0.000438671
0.000482155
0.000547047
0.000579126
0.000657883
8.61735e-05
0.000259047
0.000447556
0.000551022
0.00069347
0.000781547
0.000821002
0.000857703
0.000876757
0.000921373
0.000265943
0.000648698
0.000872917
0.00100184
0.00109225
0.00111611
0.00112577
0.00112239
0.00112415
0.00113338
0.000712175
0.00118814
0.00136362
0.00141414
0.00140876
0.00137288
0.00135374
0.00131582
0.00130951
0.00129327
0.00139279
0.00173396
0.0017231
0.00166876
0.00159063
0.00151026
0.00148349
0.0014292
0.00141917
0.00137384
0.00205073
0.00194175
0.00169064
0.00153251
0.00143352
0.00135552
0.00133002
0.00127791
0.00126449
0.0011862
0.000511543
0.000467797
0.000433304
0.000369583
0.000301754
0.000212794
0.000188668
0.000198102
0.000195657
0.000184741
0.000184716
0.000211741
0.000258498
0.000263582
0.000252118
0.000246544
0.00023986
0.000225638
0.000181378
0.000131309
0.000111308
0.000100783
9.89189e-05
0.000104492
0.000104321
9.73357e-05
9.51026e-05
9.4029e-05
8.95759e-05
7.75861e-05
7.13939e-05
6.87633e-05
6.42824e-05
5.43747e-05
4.33015e-05
3.32475e-05
2.48998e-05
1.82805e-05
1.31785e-05
9.33497e-06
6.50117e-06
4.45587e-06
3.00972e-06
2.00663e-06
1.32298e-06
8.6429e-07
5.60681e-07
3.61986e-07
2.3311e-07
1.50065e-07
9.67633e-08
6.26069e-08
4.06922e-08
2.65978e-08
1.7487e-08
1.15631e-08
7.77173e-09
5.23487e-09
4.11872e-09
4.28511e-09
7.54075e-09
1.54566e-08
4.59584e-08
8.97146e-08
2.68234e-07
4.01147e-07
1.33109e-06
1.38929e-06
3.99107e-06
3.4969e-06
7.59834e-06
6.32626e-06
1.20871e-05
1.02677e-05
1.64965e-05
1.48417e-05
2.13456e-05
1.93936e-05
2.68254e-05
2.49477e-05
3.0865e-05
2.89716e-05
3.36498e-05
2.82821e-05
2.99986e-05
2.36862e-05
2.25776e-05
1.69024e-05
1.37268e-05
8.80407e-06
7.01207e-06
4.3725e-06
5.00755e-06
6.07189e-06
8.03512e-06
9.60122e-06
1.70387e-05
2.46987e-05
6.79963e-05
0.000212962
0.000668068
0.0005641
0.000490709
0.000469981
0.000443301
0.000352432
0.000284152
0.000275943
0.000235341
0.000204171
0.000209069
0.000265434
0.000282229
0.000275134
0.000260835
0.00025423
0.000240309
0.000202399
0.000138713
0.000102831
9.53569e-05
9.8613e-05
0.000100673
0.000108624
0.000110715
0.000104544
9.80477e-05
9.60303e-05
9.2426e-05
8.111e-05
7.32247e-05
6.8032e-05
6.06775e-05
5.10665e-05
4.10614e-05
3.19268e-05
2.41701e-05
1.78836e-05
1.29597e-05
9.21198e-06
6.43123e-06
4.41544e-06
2.98554e-06
1.99155e-06
1.31321e-06
8.57792e-07
5.5633e-07
3.59114e-07
2.31277e-07
1.48949e-07
9.61221e-08
6.2264e-08
4.0523e-08
2.65266e-08
1.74588e-08
1.15711e-08
7.77144e-09
5.34414e-09
4.24113e-09
5.00157e-09
9.22594e-09
2.14345e-08
5.74239e-08
1.25482e-07
3.22159e-07
5.3715e-07
1.51157e-06
1.69958e-06
4.32861e-06
4.4121e-06
7.15782e-06
7.57093e-06
9.92029e-06
1.02545e-05
1.26556e-05
1.3577e-05
1.58956e-05
1.69692e-05
2.05399e-05
2.20894e-05
2.59362e-05
2.75881e-05
3.45424e-05
3.63199e-05
4.73818e-05
4.80485e-05
5.68288e-05
5.36157e-05
5.13641e-05
3.78023e-05
3.10647e-05
1.70403e-05
1.51289e-05
9.52519e-06
1.31193e-05
1.1796e-05
2.15294e-05
2.57021e-05
7.14285e-05
0.000182609
0.000656731
0.00059453
0.000517458
0.000487575
0.000460772
0.000420728
0.000390928
0.000377784
0.000336663
0.00029741
0.000304312
0.000306735
0.000293469
0.000269804
0.00025302
0.00023611
0.000196719
0.000131514
9.6511e-05
8.81434e-05
9.00393e-05
9.75923e-05
0.000106005
0.000119278
0.000121031
0.000115532
0.00010439
0.000100289
9.60533e-05
8.4989e-05
7.46316e-05
6.64062e-05
5.76692e-05
4.82015e-05
3.88629e-05
3.03776e-05
2.31152e-05
1.71751e-05
1.24903e-05
8.90547e-06
6.23443e-06
4.29178e-06
2.90977e-06
1.94627e-06
1.28676e-06
8.42644e-07
5.47816e-07
3.54406e-07
2.28713e-07
1.47577e-07
9.54047e-08
6.19018e-08
4.03476e-08
2.64514e-08
1.74248e-08
1.15799e-08
7.76265e-09
5.46737e-09
4.44565e-09
5.83764e-09
1.1295e-08
2.97052e-08
7.27781e-08
1.81684e-07
4.05111e-07
7.85094e-07
1.57785e-06
2.2047e-06
3.81751e-06
4.49462e-06
4.70394e-06
5.76135e-06
9.18687e-06
8.9449e-06
1.63313e-05
1.48208e-05
2.02915e-05
1.88158e-05
2.39795e-05
2.32105e-05
2.63542e-05
2.71936e-05
2.8008e-05
3.10372e-05
3.30252e-05
3.77704e-05
4.97748e-05
5.27761e-05
7.77504e-05
7.63645e-05
9.53252e-05
6.85528e-05
6.3116e-05
3.50221e-05
3.28146e-05
2.02314e-05
4.70077e-05
3.31178e-05
8.31145e-05
0.000155751
0.00057282
0.00053947
0.00048967
0.000466956
0.000446653
0.000427042
0.00040415
0.000369351
0.00035018
0.000345774
0.000338759
0.000321333
0.000267706
0.000225278
0.000192953
0.000149789
0.000107134
8.29713e-05
7.72477e-05
8.42874e-05
9.45108e-05
0.000112183
0.000125125
0.00013202
0.000132427
0.000128243
0.000114012
0.000106704
0.000100389
8.75046e-05
7.49299e-05
6.46807e-05
5.53209e-05
4.61473e-05
3.73453e-05
2.93137e-05
2.23574e-05
1.66117e-05
1.20581e-05
8.57447e-06
5.98797e-06
4.11576e-06
2.78977e-06
1.86821e-06
1.23821e-06
8.13732e-07
5.31285e-07
3.45323e-07
2.23915e-07
1.45143e-07
9.422e-08
6.13525e-08
4.01055e-08
2.6357e-08
1.73856e-08
1.15923e-08
7.74941e-09
5.59855e-09
4.6702e-09
6.72384e-09
1.32312e-08
3.77072e-08
8.50942e-08
2.30606e-07
4.47976e-07
9.70294e-07
1.52783e-06
2.71281e-06
2.9065e-06
3.93569e-06
5.00457e-06
5.58065e-06
1.25581e-05
1.1627e-05
1.77434e-05
1.71279e-05
1.91933e-05
1.9906e-05
2.1124e-05
2.28867e-05
2.39988e-05
2.6915e-05
2.76754e-05
3.08894e-05
3.36843e-05
3.73819e-05
3.95697e-05
4.47095e-05
5.67229e-05
6.60942e-05
0.000106408
0.000105417
0.000156653
0.000111642
0.000119209
6.62971e-05
7.22417e-05
4.83869e-05
8.21973e-05
0.000131417
0.000457454
0.000441661
0.000403804
0.000377513
0.000376504
0.000385074
0.00038069
0.000340819
0.000318228
0.000315735
0.000306139
0.000274322
0.000211225
0.00015051
0.000111365
8.33018e-05
6.64947e-05
6.61891e-05
7.21388e-05
0.000101038
0.000126529
0.000152424
0.000159205
0.000156323
0.000149423
0.000139602
0.000124054
0.000115331
0.000104871
8.93506e-05
7.50918e-05
6.39238e-05
5.44327e-05
4.54847e-05
3.69298e-05
2.90533e-05
2.21663e-05
1.64418e-05
1.18934e-05
8.41695e-06
5.84561e-06
3.99573e-06
2.69522e-06
1.79824e-06
1.18935e-06
7.81413e-07
5.10991e-07
3.332e-07
2.17019e-07
1.41405e-07
9.22912e-08
6.04074e-08
3.9666e-08
2.61702e-08
1.73046e-08
1.1589e-08
7.73102e-09
5.726e-09
4.97401e-09
7.76505e-09
1.58115e-08
4.64815e-08
1.01396e-07
2.75339e-07
4.91182e-07
1.13807e-06
1.42953e-06
2.68004e-06
2.68624e-06
3.2955e-06
5.5323e-06
6.34925e-06
9.81759e-06
1.11104e-05
1.02896e-05
1.38994e-05
1.36419e-05
1.7412e-05
1.70996e-05
2.07164e-05
2.0507e-05
2.3787e-05
2.4205e-05
2.88498e-05
2.98042e-05
3.45976e-05
3.55624e-05
4.04539e-05
4.5873e-05
5.22733e-05
7.35223e-05
8.83044e-05
0.000174159
0.000160503
0.000296129
0.000212607
0.000229573
0.000116939
0.000110523
0.000123303
0.000318718
0.000313884
0.000297642
0.000262252
0.000261463
0.000288673
0.000295165
0.00027454
0.000249445
0.000242204
0.000224888
0.000177766
0.000127565
9.0349e-05
6.77546e-05
5.65384e-05
5.73226e-05
6.3607e-05
8.56855e-05
0.000143098
0.00018881
0.000198762
0.000195999
0.00018811
0.000170955
0.00015172
0.0001342
0.000123066
0.000109035
9.10807e-05
7.5617e-05
6.43337e-05
5.50623e-05
4.62619e-05
3.76829e-05
2.96695e-05
2.26117e-05
1.67315e-05
1.20617e-05
8.50046e-06
5.87511e-06
3.99385e-06
2.67813e-06
1.77667e-06
1.16919e-06
7.65154e-07
4.99088e-07
3.25116e-07
2.11868e-07
1.38309e-07
9.05299e-08
5.94589e-08
3.9181e-08
2.59414e-08
1.71937e-08
1.15733e-08
7.70271e-09
5.87389e-09
5.41825e-09
9.21308e-09
1.9774e-08
5.79626e-08
1.26522e-07
3.25927e-07
5.53702e-07
1.30932e-06
1.40316e-06
2.603e-06
2.51511e-06
3.16379e-06
4.79701e-06
6.88273e-06
6.94448e-06
9.44838e-06
8.73937e-06
1.11306e-05
1.05717e-05
1.40143e-05
1.3479e-05
1.67521e-05
1.68708e-05
2.01664e-05
1.96694e-05
2.39951e-05
2.50725e-05
3.01196e-05
3.00314e-05
3.70069e-05
4.07542e-05
5.09179e-05
5.62249e-05
7.19303e-05
9.47877e-05
0.00012338
0.000187371
0.000199833
0.000236408
0.000207377
0.000199457
0.000142069
0.00017641
0.000177878
0.000174673
0.000148426
0.000146069
0.000174664
0.000187402
0.000177829
0.000153174
0.000141895
0.00012034
9.54052e-05
7.01668e-05
5.33185e-05
4.92372e-05
5.11491e-05
5.85042e-05
8.253e-05
0.000129618
0.000207909
0.000247031
0.000246875
0.000238319
0.000216601
0.000192406
0.000165683
0.000145629
0.000131624
0.000113102
9.2638e-05
7.71221e-05
6.67476e-05
5.8184e-05
4.94168e-05
4.03593e-05
3.16658e-05
2.39614e-05
1.75758e-05
1.25563e-05
8.77269e-06
6.01566e-06
4.06191e-06
2.70851e-06
1.78823e-06
1.17199e-06
7.64352e-07
4.97191e-07
3.23226e-07
2.10375e-07
1.37266e-07
8.9862e-08
5.9061e-08
3.89583e-08
2.58284e-08
1.71321e-08
1.1571e-08
7.67385e-09
5.98635e-09
5.64833e-09
9.8562e-09
2.13701e-08
5.87337e-08
1.29188e-07
2.93421e-07
4.97385e-07
1.07348e-06
1.06778e-06
2.1126e-06
1.83833e-06
2.72977e-06
3.90616e-06
6.53141e-06
5.83477e-06
7.69288e-06
7.49483e-06
9.1262e-06
8.51286e-06
1.1251e-05
1.11706e-05
1.37158e-05
1.31123e-05
1.63766e-05
1.61269e-05
1.98299e-05
2.01724e-05
2.50515e-05
2.51452e-05
3.02572e-05
3.77917e-05
4.38516e-05
6.52253e-05
7.03487e-05
0.000143121
0.000133055
0.000224059
0.000208471
0.000237495
0.000222083
0.000223959
0.000185822
6.96491e-05
7.25613e-05
7.21511e-05
6.3185e-05
6.30145e-05
8.59743e-05
9.72571e-05
9.38175e-05
7.7159e-05
6.32108e-05
5.54248e-05
4.68606e-05
3.89253e-05
4.06833e-05
4.65826e-05
5.92763e-05
8.47675e-05
0.000133932
0.000212417
0.00027857
0.000295467
0.000291434
0.000278358
0.000245838
0.000209142
0.000176328
0.000152201
0.000134317
0.000114266
9.45512e-05
8.08432e-05
7.19673e-05
6.34412e-05
5.3857e-05
4.37736e-05
3.41028e-05
2.55616e-05
1.8532e-05
1.30713e-05
9.02034e-06
6.12015e-06
4.09805e-06
2.71622e-06
1.78647e-06
1.16839e-06
7.61369e-07
4.95268e-07
3.22147e-07
2.09826e-07
1.3701e-07
8.97542e-08
5.90215e-08
3.89487e-08
2.58312e-08
1.71354e-08
1.15872e-08
7.66778e-09
6.0397e-09
5.75356e-09
1.00693e-08
2.21152e-08
5.76272e-08
1.30835e-07
2.65279e-07
4.79616e-07
8.08893e-07
9.41201e-07
1.58017e-06
1.43755e-06
2.38019e-06
3.07556e-06
5.66619e-06
4.7429e-06
6.2515e-06
6.38133e-06
7.69176e-06
7.42857e-06
9.48752e-06
9.52199e-06
1.17669e-05
1.18881e-05
1.37328e-05
1.42305e-05
1.73313e-05
1.78214e-05
2.11529e-05
2.17928e-05
2.59771e-05
2.85408e-05
3.6216e-05
3.74471e-05
5.93843e-05
6.36526e-05
0.000112313
0.000122022
0.000180081
0.000230642
0.000225565
0.00022847
0.000204367
1.83137e-05
2.03007e-05
2.092e-05
2.05697e-05
2.22183e-05
3.47052e-05
3.76356e-05
3.66392e-05
3.02781e-05
2.64986e-05
2.59907e-05
2.69886e-05
3.09341e-05
4.24961e-05
6.24834e-05
9.10758e-05
0.000137477
0.000221364
0.000307723
0.000332713
0.000328928
0.000312837
0.000296835
0.000262451
0.000224898
0.000192582
0.000165015
0.00014222
0.000118589
9.83535e-05
8.65164e-05
7.76807e-05
6.80902e-05
5.74949e-05
4.64661e-05
3.58111e-05
2.64482e-05
1.88613e-05
1.30839e-05
8.87998e-06
5.9237e-06
3.90241e-06
2.55112e-06
1.66169e-06
1.08177e-06
7.05339e-07
4.61164e-07
3.02492e-07
1.99054e-07
1.3138e-07
8.69427e-08
5.76783e-08
3.83373e-08
2.55642e-08
1.70287e-08
1.15422e-08
7.65704e-09
6.01334e-09
5.75378e-09
1.0003e-08
2.21947e-08
5.72927e-08
1.31143e-07
2.57795e-07
4.86468e-07
6.8469e-07
1.01233e-06
1.17267e-06
1.31736e-06
1.79016e-06
2.62115e-06
4.64786e-06
4.34167e-06
5.17514e-06
5.93032e-06
6.96134e-06
6.9447e-06
8.2988e-06
8.96387e-06
1.02276e-05
1.19392e-05
1.23362e-05
1.345e-05
1.57816e-05
1.75633e-05
1.954e-05
2.14145e-05
2.45272e-05
2.70813e-05
3.37254e-05
3.47108e-05
4.9764e-05
4.73999e-05
8.60616e-05
7.85399e-05
0.000143408
0.000139071
0.000198782
0.000249048
0.00022935
6.33089e-06
6.59002e-06
7.31006e-06
1.06391e-05
1.22037e-05
1.1567e-05
1.34255e-05
1.90552e-05
2.11157e-05
2.23815e-05
2.4693e-05
3.07024e-05
4.39509e-05
7.1308e-05
0.000100829
0.000142682
0.000213866
0.000323228
0.000351466
0.000350452
0.000337915
0.000315341
0.00030018
0.000270815
0.000233448
0.000199398
0.000172596
0.000145909
0.000117918
9.82756e-05
8.94431e-05
8.49768e-05
7.57669e-05
6.18663e-05
4.75448e-05
3.49905e-05
2.49813e-05
1.74176e-05
1.19114e-05
8.02593e-06
5.35231e-06
3.54509e-06
2.33763e-06
1.53784e-06
1.01126e-06
6.6568e-07
4.39059e-07
2.90282e-07
1.92384e-07
1.27787e-07
8.50423e-08
5.66933e-08
3.78422e-08
2.53174e-08
1.69197e-08
1.14721e-08
7.65173e-09
5.91275e-09
5.65978e-09
9.65434e-09
2.17277e-08
5.76114e-08
1.31684e-07
2.76843e-07
5.06381e-07
7.67439e-07
1.26318e-06
1.2517e-06
1.87007e-06
1.82516e-06
2.82535e-06
3.40299e-06
4.60393e-06
4.73173e-06
5.92638e-06
6.27149e-06
7.04494e-06
7.55947e-06
9.68567e-06
9.68566e-06
1.19725e-05
1.21347e-05
1.43901e-05
1.4674e-05
1.89136e-05
1.91684e-05
2.21466e-05
2.30633e-05
2.66325e-05
3.0843e-05
3.30007e-05
4.35228e-05
4.09082e-05
6.92213e-05
6.27265e-05
0.000117366
0.000109833
0.000155624
0.000197892
0.000218642
7.63173e-06
8.37138e-06
1.29211e-05
1.88823e-05
1.87131e-05
1.67788e-05
1.66785e-05
2.11945e-05
3.65013e-05
4.53214e-05
5.19802e-05
6.32494e-05
8.28638e-05
0.000119026
0.000154959
0.000213176
0.000323459
0.000362088
0.000361649
0.000352972
0.000328332
0.000306862
0.000292712
0.000267677
0.000231333
0.000198613
0.000172799
0.000143019
0.000115197
9.92973e-05
9.37558e-05
9.18491e-05
8.712e-05
7.04791e-05
5.29985e-05
3.89452e-05
2.80284e-05
1.97461e-05
1.3626e-05
9.22983e-06
6.15622e-06
4.05702e-06
2.65051e-06
1.72214e-06
1.11609e-06
7.23335e-07
4.6975e-07
3.06113e-07
2.00309e-07
1.31643e-07
8.68714e-08
5.754e-08
3.82309e-08
2.54885e-08
1.70123e-08
1.14881e-08
7.70953e-09
5.79375e-09
5.52397e-09
9.01217e-09
2.07512e-08
5.60299e-08
1.32046e-07
2.99521e-07
5.60085e-07
9.67172e-07
1.52948e-06
1.70532e-06
2.6602e-06
2.21388e-06
4.03164e-06
3.53807e-06
6.11032e-06
5.30109e-06
7.10439e-06
7.17723e-06
9.196e-06
8.14809e-06
1.27363e-05
1.06673e-05
1.56629e-05
1.34487e-05
1.84844e-05
1.57386e-05
2.34325e-05
2.05354e-05
2.6264e-05
2.39338e-05
3.17862e-05
3.12287e-05
3.36843e-05
3.87124e-05
3.90177e-05
5.73492e-05
5.51228e-05
9.74255e-05
9.15862e-05
0.000132905
0.000138249
0.000179702
2.59154e-05
2.63511e-05
3.21238e-05
4.78304e-05
4.79303e-05
4.18816e-05
4.20826e-05
4.94216e-05
7.48155e-05
9.22756e-05
0.000101562
0.000115124
0.000142848
0.000182623
0.000227179
0.000313798
0.000372019
0.000372326
0.000362019
0.000329167
0.000300482
0.000288941
0.000278132
0.000263179
0.000233002
0.000203325
0.000173863
0.000140824
0.000115596
0.000105846
0.00010635
0.000104001
8.85353e-05
6.8071e-05
5.05296e-05
3.65221e-05
2.58303e-05
1.79186e-05
1.22224e-05
8.21883e-06
5.4638e-06
3.603e-06
2.36464e-06
1.54915e-06
1.01549e-06
6.67117e-07
4.39575e-07
2.90578e-07
1.92675e-07
1.2812e-07
8.54298e-08
5.71458e-08
3.83977e-08
2.60073e-08
1.78425e-08
1.26405e-08
9.28463e-09
7.78933e-09
8.01991e-09
1.15401e-08
2.19216e-08
5.25028e-08
1.23713e-07
2.77365e-07
5.49919e-07
9.99695e-07
1.57651e-06
2.11689e-06
3.24909e-06
3.01408e-06
5.89499e-06
4.23429e-06
9.05721e-06
7.08305e-06
9.56588e-06
9.34871e-06
1.25001e-05
9.94584e-06
1.79523e-05
1.3475e-05
2.07762e-05
1.67742e-05
2.47701e-05
1.87544e-05
3.02618e-05
2.41168e-05
3.28587e-05
2.67008e-05
3.87551e-05
3.34381e-05
4.12094e-05
3.90309e-05
4.22047e-05
5.15688e-05
5.27923e-05
8.19019e-05
7.84879e-05
0.000113042
0.000114446
0.000141167
8.80583e-05
8.74642e-05
9.08322e-05
0.000113203
0.00011713
0.000109996
0.000110149
0.00011875
0.000144652
0.000158261
0.000168406
0.000186727
0.000226122
0.000259958
0.000316444
0.000376103
0.000385834
0.000371901
0.000327907
0.000287958
0.000272891
0.000274043
0.000270692
0.000260248
0.000242984
0.000215479
0.000176787
0.00014242
0.000127086
0.000125593
0.000117983
0.000100479
7.8833e-05
5.95331e-05
4.44005e-05
3.28468e-05
2.40264e-05
1.73057e-05
1.22489e-05
8.52827e-06
5.85236e-06
3.96464e-06
2.65649e-06
1.76464e-06
1.16532e-06
7.67495e-07
5.06152e-07
3.36049e-07
2.26438e-07
1.56819e-07
1.13611e-07
8.77543e-08
7.28407e-08
6.46861e-08
5.99009e-08
5.77041e-08
5.55912e-08
5.69307e-08
5.6091e-08
6.92244e-08
7.32177e-08
1.19259e-07
1.70374e-07
3.14605e-07
5.52193e-07
9.1741e-07
1.50301e-06
2.18824e-06
3.72775e-06
3.89503e-06
9.37075e-06
6.13369e-06
1.45261e-05
1.09288e-05
1.45936e-05
1.36781e-05
1.84212e-05
1.41317e-05
2.63207e-05
1.88108e-05
2.93003e-05
2.34729e-05
3.44348e-05
2.47113e-05
4.0506e-05
3.08855e-05
4.28926e-05
3.24447e-05
4.91035e-05
3.87767e-05
4.95074e-05
4.19175e-05
5.21512e-05
5.26281e-05
5.49878e-05
7.20895e-05
7.06785e-05
9.57442e-05
9.67932e-05
0.000117207
0.000206777
0.000200656
0.000201313
0.000213549
0.000214158
0.000205628
0.000206797
0.000219023
0.000231049
0.00023916
0.000248957
0.000271486
0.000295732
0.000331265
0.000379991
0.000395941
0.000385968
0.00032841
0.000281345
0.000264771
0.000259144
0.000260858
0.00025722
0.000251312
0.000239985
0.000213566
0.000179425
0.000156571
0.000147708
0.000134055
0.000114832
9.16492e-05
7.14275e-05
5.52956e-05
4.26177e-05
3.25182e-05
2.44594e-05
1.81367e-05
1.32577e-05
9.55407e-06
6.79747e-06
4.79166e-06
3.36583e-06
2.37668e-06
1.70875e-06
1.27185e-06
9.96329e-07
8.28618e-07
7.28653e-07
6.68922e-07
6.31948e-07
6.08396e-07
5.91659e-07
5.81115e-07
5.7076e-07
5.66969e-07
5.58106e-07
5.65471e-07
5.54402e-07
6.19164e-07
5.86322e-07
7.92315e-07
7.44017e-07
1.18314e-06
1.23853e-06
1.59316e-06
2.32659e-06
2.67308e-06
5.67904e-06
5.74639e-06
1.56819e-05
1.02643e-05
2.4108e-05
1.78308e-05
2.41446e-05
2.18815e-05
2.76445e-05
2.20933e-05
3.95202e-05
2.76825e-05
4.23991e-05
3.48605e-05
4.80888e-05
3.44899e-05
5.51479e-05
4.18221e-05
5.69121e-05
4.25583e-05
6.38587e-05
4.86302e-05
6.32211e-05
4.98556e-05
6.43074e-05
5.86552e-05
6.14875e-05
7.04209e-05
6.94718e-05
8.30909e-05
8.48221e-05
0.000100385
0.00035128
0.000334261
0.000331462
0.00033305
0.00032233
0.00030144
0.000303026
0.000310328
0.000311476
0.00031385
0.000321386
0.000333084
0.000349567
0.000380819
0.000400367
0.000394055
0.000339807
0.000276212
0.000259413
0.000253491
0.000248416
0.000243128
0.000227209
0.000219901
0.00021645
0.000199012
0.000177992
0.000164695
0.000150139
0.000129734
0.00010456
8.33793e-05
6.68855e-05
5.38005e-05
4.31175e-05
3.44864e-05
2.75632e-05
2.20109e-05
1.76019e-05
1.41634e-05
1.15471e-05
9.61332e-06
8.2267e-06
7.25809e-06
6.59239e-06
6.13618e-06
5.82025e-06
5.59726e-06
5.4358e-06
5.31678e-06
5.22572e-06
5.15807e-06
5.10032e-06
5.06375e-06
5.01867e-06
5.00389e-06
4.96361e-06
4.97325e-06
4.92645e-06
5.09327e-06
4.95578e-06
5.4952e-06
5.1929e-06
6.27806e-06
5.89451e-06
6.92393e-06
7.38646e-06
7.04451e-06
1.31202e-05
1.17903e-05
2.84318e-05
1.94511e-05
4.20362e-05
3.05321e-05
4.22599e-05
3.79948e-05
4.47815e-05
3.68535e-05
5.9858e-05
4.1574e-05
6.12836e-05
5.1402e-05
6.60342e-05
4.92399e-05
7.44271e-05
5.83821e-05
7.47656e-05
5.7912e-05
8.31262e-05
6.41902e-05
8.09494e-05
6.49138e-05
8.17175e-05
7.0404e-05
7.55696e-05
7.41524e-05
7.30787e-05
7.95881e-05
8.04932e-05
8.79113e-05
0.000483293
0.000455077
0.000440788
0.000421193
0.000390051
0.000375276
0.000374052
0.000373429
0.000366326
0.000362489
0.00036481
0.00037578
0.000389727
0.000399077
0.000392229
0.000346386
0.000275363
0.000250081
0.000238847
0.000234507
0.000232862
0.000222967
0.000204423
0.00019372
0.000190698
0.0001852
0.000175043
0.00016195
0.000140453
0.000115319
9.55186e-05
8.00798e-05
6.77428e-05
5.84699e-05
5.19052e-05
4.71834e-05
4.36613e-05
4.09452e-05
3.87937e-05
3.70582e-05
3.56461e-05
3.44956e-05
3.35616e-05
3.28065e-05
3.21982e-05
3.17097e-05
3.13179e-05
3.1004e-05
3.07512e-05
3.05494e-05
3.03822e-05
3.02546e-05
3.01328e-05
3.00626e-05
2.99538e-05
2.99223e-05
2.98211e-05
2.98186e-05
2.96962e-05
2.9843e-05
2.95684e-05
3.01283e-05
2.95453e-05
3.07461e-05
2.99528e-05
3.11539e-05
3.164e-05
3.01025e-05
3.80213e-05
3.31271e-05
5.67141e-05
4.40672e-05
7.62104e-05
5.54119e-05
7.66768e-05
6.80094e-05
7.56583e-05
6.41194e-05
9.13998e-05
6.53822e-05
9.23687e-05
7.69271e-05
9.18435e-05
7.36968e-05
0.000103009
8.06819e-05
9.98033e-05
8.0738e-05
0.000110311
8.74782e-05
0.00010556
8.59056e-05
0.0001067
9.00464e-05
9.55094e-05
8.62237e-05
8.40631e-05
8.38246e-05
8.3419e-05
8.53345e-05
0.000582276
0.000536723
0.000503061
0.000467807
0.000438388
0.000425561
0.000416858
0.000403646
0.000395227
0.000395953
0.000400428
0.000400451
0.000400921
0.000391368
0.000340372
0.000262865
0.000242477
0.000238166
0.000225652
0.000212734
0.000208863
0.000206764
0.000192442
0.000182621
0.000177086
0.000171538
0.000162742
0.000145689
0.000127229
0.000111181
9.87777e-05
9.26917e-05
9.18114e-05
9.26603e-05
9.52398e-05
9.74243e-05
9.89079e-05
9.98296e-05
0.000100328
0.000100525
0.000100534
0.000100406
0.000100222
0.000100025
9.98327e-05
9.96558e-05
9.94996e-05
9.93658e-05
9.92509e-05
9.91556e-05
9.9069e-05
9.90048e-05
9.89254e-05
9.88912e-05
9.88012e-05
9.87847e-05
9.8677e-05
9.87062e-05
9.85176e-05
9.86966e-05
9.82432e-05
9.88569e-05
9.78173e-05
9.93345e-05
9.7642e-05
0.0001002
9.91133e-05
9.9359e-05
0.000103926
9.50334e-05
0.000116259
9.85867e-05
0.000140877
0.000110289
0.000139251
0.000120319
0.00013109
0.000113158
0.000139126
0.000109032
0.000137727
0.000114728
0.000130084
0.000111381
0.0001414
0.000111407
0.000134887
0.000115982
0.000147816
0.000117355
0.000139705
0.000117652
0.000144051
0.000121466
0.000126892
0.000110383
0.000108175
0.000100679
0.000100227
9.85337e-05
0.000641686
0.000572557
0.000523524
0.000483199
0.000459336
0.000446483
0.000434376
0.000425457
0.000421419
0.000418404
0.000414062
0.000404129
0.000380814
0.000314815
0.000237168
0.000218049
0.00023226
0.000238708
0.000232065
0.000210337
0.000194758
0.000188718
0.000181266
0.000175021
0.000170132
0.000164893
0.000156865
0.000146131
0.000138399
0.000137578
0.000143769
0.00015719
0.000168854
0.000177434
0.00018333
0.000187249
0.000189851
0.00019159
0.000192754
0.000193533
0.000194055
0.000194409
0.000194655
0.000194832
0.000194963
0.000195064
0.000195144
0.000195208
0.000195259
0.0001953
0.00019533
0.000195355
0.000195366
0.00019538
0.000195372
0.000195385
0.000195342
0.0001954
0.000195254
0.000195509
0.000195018
0.000195925
0.00019446
0.00019713
0.000193437
0.000199982
0.000192917
0.00020488
0.000195729
0.000206252
0.000204325
0.000188479
0.000216634
0.000185247
0.00022581
0.000192568
0.00020937
0.000187451
0.000201214
0.00017406
0.000202926
0.000172377
0.000191965
0.000168473
0.000199174
0.000164896
0.000197302
0.000170655
0.000208715
0.000167905
0.000202432
0.000174001
0.000209692
0.000175404
0.000187899
0.000164758
0.000165833
0.000159036
0.000164298
0.000163209
0.000645562
0.000563846
0.000513746
0.000482836
0.000467874
0.000457343
0.000447423
0.000439919
0.00043107
0.000415786
0.000388983
0.000338464
0.000262967
0.000197144
0.000178632
0.00020102
0.000248823
0.000293867
0.000314026
0.000294634
0.000239084
0.000200294
0.000186996
0.000183026
0.00018159
0.000183682
0.000187422
0.000195186
0.000207565
0.000221932
0.000235314
0.000245485
0.000252528
0.000257583
0.000261271
0.000264018
0.00026611
0.000267732
0.000269006
0.000270016
0.000270826
0.000271479
0.000272011
0.000272447
0.000272805
0.0002731
0.000273346
0.000273549
0.00027372
0.000273862
0.000273983
0.000274085
0.000274173
0.000274254
0.000274318
0.000274398
0.000274432
0.000274553
0.000274527
0.000274781
0.000274474
0.00027534
0.000273903
0.000276866
0.000272004
0.000280916
0.000268153
0.00029019
0.000264294
0.000305993
0.000265569
0.000320552
0.000277928
0.000307052
0.000293821
0.000293749
0.000287578
0.000304585
0.0002874
0.000298237
0.000304633
0.000288313
0.000301735
0.000296631
0.000310418
0.000283567
0.000319208
0.000296116
0.000326861
0.000285904
0.000333834
0.000303088
0.000346925
0.000307237
0.00033979
0.00032576
0.000344185
0.000361298
0.000400464
0.000417762
0.000524792
0.000474042
0.000449135
0.000433846
0.000423559
0.00040999
0.000389018
0.000362078
0.000328015
0.000283924
0.000233147
0.000184243
0.000150722
0.000143533
0.000155103
0.000186236
0.000241256
0.000323883
0.000420054
0.000477465
0.000491482
0.000437791
0.000366722
0.000298769
0.000240503
0.000201281
0.000182103
0.000181778
0.00019538
0.000212944
0.00022911
0.000241951
0.000251579
0.000258776
0.000264281
0.000268623
0.000272128
0.000274993
0.000277347
0.000279286
0.000280883
0.0002822
0.000283285
0.000284182
0.000284922
0.000285535
0.000286045
0.000286471
0.000286831
0.000287138
0.000287404
0.000287639
0.000287854
0.000288052
0.000288242
0.000288431
0.000288605
0.000288828
0.000288935
0.000289319
0.000289134
0.000290061
0.000288706
0.000291822
0.000286456
0.000296569
0.00028046
0.000307521
0.000270243
0.00032668
0.000260017
0.000358225
0.000260006
0.000408316
0.000283491
0.000452544
0.000318342
0.000482323
0.000342448
0.00050694
0.000367937
0.000521342
0.000399389
0.000537052
0.000414491
0.000547427
0.000454441
0.000556187
0.000468285
0.000553499
0.000519711
0.000582227
0.000556858
0.000591576
0.000613982
0.000688431
0.000721105
0.000823576
0.000835855
0.000896555
9.76747e-05
0.000135712
0.000196738
0.000279288
0.00036588
0.000395893
0.000380189
0.000303446
0.000291969
0.00054395
0.000695388
0.000759747
0.000783438
0.000788287
0.000742412
0.000640296
0.000589926
0.00046083
0.00035097
0.00025756
0.000196428
0.000162146
0.000155181
0.000176727
0.000212819
0.000252195
0.000286337
0.000311185
0.000326419
0.000333158
0.000333829
0.000331471
0.000326329
0.000320836
0.000315498
0.000310662
0.000306491
0.000302982
0.000300084
0.000297717
0.000295797
0.000294243
0.000292986
0.000291969
0.000291144
0.000290471
0.00028992
0.000289464
0.000289081
0.000288755
0.000288471
0.000288215
0.000287978
0.000287747
0.000287514
0.000287267
0.000286999
0.000286692
0.000286341
0.000285921
0.000285428
0.000284826
0.000284117
0.000283254
0.000282249
0.000281058
0.000279693
0.000278144
0.000276401
0.000274509
0.000272414
0.000270197
0.000267766
0.000265162
0.000262315
0.000259148
0.000255643
0.000251629
0.000247063
0.000241813
0.000235683
0.000228635
0.000220347
0.00021078
0.000199579
0.000186764
0.000171883
0.000155482
0.000137178
0.000119002
0.000101692
9.43724e-05
9.64001e-05
0.000108713
0.000122535
0.000127666
0.000123122
0.00010137
7.16212e-05
4.43284e-05
0.000109602
0.000122527
0.000145797
0.000170819
0.000187312
0.000222552
0.000307323
0.000501255
0.000598868
0.0005838
0.000539697
0.000449816
0.000387995
0.000350568
0.000245768
0.000195441
0.000184716
0.000149292
0.000139242
0.000132714
0.000125596
0.000122584
0.000118905
0.000119904
0.000127872
0.000145484
0.000170187
0.000197713
0.000223712
0.000245306
0.000260881
0.000270884
0.000276749
0.000279718
0.000280827
0.000280788
0.000280474
0.000279809
0.00027908
0.000278391
0.000277769
0.000277224
0.000276756
0.000276359
0.000276025
0.000275745
0.000275511
0.000275315
0.000275151
0.000275014
0.000274897
0.000274798
0.000274712
0.000274637
0.000274569
0.000274506
0.000274447
0.000274387
0.000274328
0.00027426
0.00027419
0.000274101
0.000274004
0.000273874
0.000273721
0.000273523
0.000273273
0.000272974
0.000272584
0.000272154
0.000271598
0.000271005
0.000270286
0.000269515
0.000268627
0.000267662
0.000266542
0.000265381
0.000263919
0.00026252
0.000260611
0.000258854
0.000256317
0.000254123
0.000250516
0.000247889
0.000242532
0.000239124
0.000231414
0.000226334
0.0002148
0.00020617
0.000187937
0.000172995
0.000149929
0.000133297
0.000114113
9.62722e-05
8.21514e-05
6.05589e-05
0.000108714
0.000128231
0.000165286
0.000206223
0.000245447
0.000318875
0.000461727
0.000551956
0.000553828
0.000399213
0.000264385
0.000197594
0.000164552
0.000151541
0.000141082
0.000141416
0.0001433
0.000142005
0.000140814
0.000145427
0.00013071
0.000124765
0.000113915
0.000103811
9.49121e-05
8.7768e-05
8.40981e-05
8.46842e-05
8.98266e-05
0.000103986
0.000125533
0.000144878
0.000159898
0.000171184
0.000179501
0.000185321
0.000189285
0.000191896
0.000193576
0.000194636
0.000195289
0.000195679
0.000195902
0.000196022
0.000196077
0.000196095
0.000196091
0.000196079
0.000196061
0.000196044
0.000196032
0.000196026
0.000196025
0.000196034
0.000196055
0.000196088