/*--------------------------------*- C++ -*----------------------------------*\
| =========                 |                                                 |
| \\      /  F ield         | OpenFOAM: The Open Source CFD Toolbox           |
|  \\    /   O peration     | Version:  2.4.0                                 |
|   \\  /    A nd           | Web:      www.OpenFOAM.org                      |
|    \\/     M anipulation  |                                                 |
\*---------------------------------------------------------------------------*/
FoamFile
{
    version     2.0;
    format      ascii;
    class       volVectorField;
    location    "0.035";
    object      U;
}
// * * * * * * * * * * * * * * * * * * * * * * * * * * * * * * * * * * * * * //

dimensions      [0 1 -1 0 0 0 0];

internalField   nonuniform List<vector> 
4400
(
(5.40674 0.316649 0)
(3.31163 0.0607467 0)
(2.58862 0.00146821 0)
(2.22643 -0.0021253 0)
(2.08313 -0.00138875 0)
(2.00995 -0.00187388 0)
(1.93297 0.00178918 0)
(1.91475 -0.000903094 0)
(1.93908 0.003901 0)
(1.4403 -0.0903609 0)
(8.69833 0.857259 0)
(7.52228 0.344958 0)
(6.6501 0.116137 0)
(5.89367 0.0557288 0)
(5.52757 0.0253337 0)
(5.29927 0.0142553 0)
(5.09055 0.017547 0)
(5.037 -0.00633781 0)
(5.07481 0.0439716 0)
(4.50385 -0.141966 0)
(9.91785 0.937077 0)
(9.95372 0.477524 0)
(9.5279 0.211997 0)
(8.72949 0.132014 0)
(8.27959 0.0709299 0)
(7.95208 0.045509 0)
(7.65518 0.0433771 0)
(7.58184 -0.00777145 0)
(7.54778 0.0630613 0)
(7.11445 -0.134603 0)
(10.1749 0.807791 0)
(11.0534 0.499421 0)
(11.3151 0.263079 0)
(10.8004 0.201871 0)
(10.4578 0.122561 0)
(10.1316 0.0864942 0)
(9.81308 0.0755906 0)
(9.7583 -0.00151173 0)
(9.61564 0.0829682 0)
(9.29789 -0.155274 0)
(10.1461 0.648283 0)
(11.2302 0.438507 0)
(12.0179 0.237935 0)
(11.9311 0.22505 0)
(11.8832 0.153211 0)
(11.7025 0.12375 0)
(11.4672 0.104431 0)
(11.481 0.0112977 0)
(11.2813 0.101749 0)
(11.0825 -0.147827 0)
(10.1898 0.515887 0)
(11.1492 0.37206 0)
(12.0456 0.174408 0)
(12.2047 0.19486 0)
(12.4581 0.136158 0)
(12.5014 0.131777 0)
(12.4628 0.117196 0)
(12.5935 0.0148067 0)
(12.4575 0.118813 0)
(12.3359 -0.122741 0)
(10.171 0.388513 0)
(11.1405 0.316075 0)
(11.9979 0.114078 0)
(12.1761 0.152543 0)
(12.4931 0.0989462 0)
(12.6502 0.115138 0)
(12.8063 0.0986644 0)
(13.0129 0.00960602 0)
(13.017 0.1016 0)
(13.0151 -0.0652026 0)
(10.0785 0.262466 0)
(11.1098 0.251423 0)
(11.9455 0.0798366 0)
(12.2131 0.116016 0)
(12.4372 0.0416223 0)
(12.5933 0.0904611 0)
(12.8342 0.0710618 0)
(13.0286 -0.00400595 0)
(13.1249 0.0713339 0)
(13.2839 -0.063401 0)
(10.0017 0.155405 0)
(11.0638 0.163827 0)
(11.931 0.0228877 0)
(12.2503 0.0804788 0)
(12.3878 0.030181 0)
(12.5631 0.0499285 0)
(12.8253 0.0508974 0)
(12.9888 -0.0298116 0)
(13.1329 0.0509813 0)
(13.3092 -0.0862073 0)
(9.98932 0.0462866 0)
(11.0573 0.0750919 0)
(11.9084 -0.00805356 0)
(12.2308 0.046414 0)
(12.3824 -0.0230585 0)
(12.5676 0.0213654 0)
(12.8008 0.0245191 0)
(12.9769 -0.0441425 0)
(13.115 0.00669613 0)
(13.2744 -0.0672971 0)
(10.0028 -0.0575226 0)
(11.0442 -0.0174284 0)
(11.9036 -0.0598201 0)
(12.2416 0.0101225 0)
(12.3816 -0.0359361 0)
(12.5586 -0.0182014 0)
(12.8027 0.000298312 0)
(12.9903 -0.0667639 0)
(13.087 -0.0179598 0)
(13.263 -0.114562 0)
(10.0028 -0.166914 0)
(11.0574 -0.105136 0)
(11.9284 -0.0913058 0)
(12.2428 -0.0271565 0)
(12.3863 -0.0809199 0)
(12.5782 -0.0507152 0)
(12.8244 -0.0266011 0)
(12.9935 -0.0814076 0)
(13.0769 -0.0559743 0)
(13.1594 -0.106498 0)
(9.99288 -0.272256 0)
(11.1086 -0.196973 0)
(11.9669 -0.142777 0)
(12.232 -0.06239 0)
(12.4229 -0.101157 0)
(12.6118 -0.0869948 0)
(12.8671 -0.0559666 0)
(12.9837 -0.0933611 0)
(13.107 -0.0699216 0)
(13.2062 -0.17804 0)
(9.97359 -0.387814 0)
(11.2102 -0.279769 0)
(12.011 -0.176092 0)
(12.2036 -0.0998326 0)
(12.5059 -0.141394 0)
(12.6334 -0.123651 0)
(12.8874 -0.07904 0)
(12.8754 -0.105775 0)
(13.0433 -0.103176 0)
(12.9933 -0.196271 0)
(9.96338 -0.507303 0)
(11.3307 -0.357349 0)
(12.0245 -0.221009 0)
(12.2266 -0.148802 0)
(12.4939 -0.174091 0)
(12.4238 -0.143026 0)
(12.576 -0.0944304 0)
(12.3887 -0.106398 0)
(12.4855 -0.107919 0)
(12.1892 -0.169715 0)
(10.0062 -0.641214 0)
(11.4112 -0.436462 0)
(11.9293 -0.265739 0)
(11.966 -0.190387 0)
(11.9222 -0.180337 0)
(11.5944 -0.133943 0)
(11.5837 -0.0854495 0)
(11.2605 -0.0873085 0)
(11.2839 -0.0967264 0)
(10.8614 -0.142966 0)
(10.0966 -0.803395 0)
(11.1801 -0.498372 0)
(11.2162 -0.278331 0)
(10.842 -0.179994 0)
(10.4854 -0.140459 0)
(10.0187 -0.0960794 0)
(9.91737 -0.0593691 0)
(9.56023 -0.0604325 0)
(9.55867 -0.0741042 0)
(9.06747 -0.0970036 0)
(9.87831 -0.935654 0)
(10.0352 -0.477426 0)
(9.44428 -0.220033 0)
(8.77033 -0.120269 0)
(8.29682 -0.0802243 0)
(7.85456 -0.0534729 0)
(7.73521 -0.0320378 0)
(7.42438 -0.0354156 0)
(7.41318 -0.0475615 0)
(6.91251 -0.0562132 0)
(8.67953 -0.856819 0)
(7.56631 -0.344411 0)
(6.59763 -0.119424 0)
(5.92173 -0.0512106 0)
(5.53668 -0.0280907 0)
(5.23031 -0.0200519 0)
(5.13686 -0.0115074 0)
(4.92307 -0.0157318 0)
(4.89715 -0.0215782 0)
(4.48647 -0.0242451 0)
(5.40264 -0.316864 0)
(3.32413 -0.0605418 0)
(2.57329 -0.00204375 0)
(2.23304 0.00250929 0)
(2.08819 0.00195072 0)
(1.98028 -0.000489884 0)
(1.94131 0.000450253 0)
(1.85969 -0.00160494 0)
(1.82972 -0.00132458 0)
(1.64473 0.00884786 0)
(3.05245 -0.18939 0)
(2.89054 -0.0272051 0)
(3.44414 -0.1148 0)
(2.67399 0.123521 0)
(3.93551 0.0946999 0)
(4.67159 0.785588 0)
(5.15283 1.58915 0)
(6.58809 1.01204 0)
(8.45007 0.404255 0)
(9.29219 0.660156 0)
(9.3749 0.409593 0)
(9.68855 -1.2925 0)
(9.97047 -3.27843 0)
(10.0494 -3.94635 0)
(10.3233 -3.41305 0)
(10.8816 -3.03395 0)
(11.9099 -3.46548 0)
(12.5801 -4.70049 0)
(12.5895 -5.67473 0)
(13.2062 -5.25318 0)
(12.7095 -4.59939 0)
(11.6671 -4.05352 0)
(11.3608 -3.08709 0)
(10.491 -2.23366 0)
(9.44921 -1.41004 0)
(8.8087 -0.583407 0)
(8.11248 -0.23611 0)
(7.34399 -0.222615 0)
(6.78166 -0.0967266 0)
(6.44821 0.171048 0)
(6.21542 0.376055 0)
(6.01854 0.437731 0)
(5.85141 0.402957 0)
(5.71724 0.335519 0)
(5.61592 0.269742 0)
(5.54364 0.216064 0)
(5.49449 0.174638 0)
(5.46218 0.142759 0)
(5.44136 0.11779 0)
(5.4281 0.0978086 0)
(5.4197 0.0815546 0)
(5.41439 0.0681718 0)
(5.41106 0.0570718 0)
(5.409 0.0478548 0)
(5.40775 0.0401966 0)
(5.40701 0.0338419 0)
(5.40661 0.0285823 0)
(5.40639 0.0242706 0)
(5.40637 0.0207361 0)
(5.40629 0.0179472 0)
(5.40657 0.0156395 0)
(5.40631 0.0141217 0)
(5.40728 0.0125154 0)
(5.40601 0.0125157 0)
(5.40924 0.0104855 0)
(5.40428 0.0137703 0)
(5.41484 0.00763939 0)
(5.39799 0.0209906 0)
(5.43042 -0.00154769 0)
(5.37943 0.0439986 0)
(5.47047 -0.0321598 0)
(5.33388 0.108563 0)
(5.56053 -0.117335 0)
(5.24602 0.266639 0)
(5.72064 -0.30202 0)
(5.13847 0.567751 0)
(5.90184 -0.574791 0)
(5.11677 0.914113 0)
(5.98821 -0.785115 0)
(5.23292 1.01416 0)
(6.05446 -0.7883 0)
(5.35227 0.800044 0)
(6.26854 -0.575909 0)
(5.40997 0.55048 0)
(6.4669 -0.338468 0)
(5.43494 0.583833 0)
(6.49937 -0.319182 0)
(5.53705 0.74024 0)
(6.28082 -0.274376 0)
(5.74531 0.701759 0)
(6.04913 -0.0862266 0)
(5.68112 0.701726 0)
(5.88105 0.0768098 0)
(5.54564 0.761627 0)
(5.533 0.192315 0)
(5.39505 0.798368 0)
(5.32495 0.419885 0)
(5.25048 0.832069 0)
(5.24986 0.688734 0)
(5.19493 1.02203 0)
(5.53116 0.997858 0)
(5.33238 1.46707 0)
(5.59506 1.55605 0)
(5.46584 2.14204 0)
(5.21434 1.87162 0)
(5.15532 3.04574 0)
(6.11991 3.10909 0)
(4.88375 5.13708 0)
(5.71203 5.56607 0)
(3.42902 9.78053 0)
(5.20983 -0.176138 0)
(4.96667 -0.100627 0)
(5.4885 -0.0751832 0)
(5.06111 0.124298 0)
(5.87822 -0.0482731 0)
(5.63156 0.593259 0)
(5.80325 1.18597 0)
(7.45676 0.294642 0)
(8.57201 -0.129959 0)
(8.7914 0.490152 0)
(9.39631 0.223193 0)
(10.5056 -1.51766 0)
(11.1375 -3.36864 0)
(10.9263 -3.99092 0)
(10.9218 -3.61624 0)
(11.775 -3.49173 0)
(13.0314 -3.90512 0)
(13.9519 -4.74498 0)
(13.5023 -5.66341 0)
(13.5201 -5.34714 0)
(13.5397 -4.36192 0)
(12.4619 -3.72359 0)
(11.7913 -2.79963 0)
(10.9415 -1.81666 0)
(9.7392 -1.01826 0)
(8.89403 -0.28216 0)
(8.16657 0.072092 0)
(7.3711 0.0726138 0)
(6.70878 0.119187 0)
(6.27815 0.30741 0)
(6.01001 0.466948 0)
(5.83436 0.505994 0)
(5.71409 0.4569 0)
(5.62689 0.377579 0)
(5.56075 0.301323 0)
(5.51069 0.238779 0)
(5.47414 0.19026 0)
(5.44857 0.153048 0)
(5.43143 0.124368 0)
(5.42035 0.101944 0)
(5.41342 0.0841116 0)
(5.40921 0.0697343 0)
(5.40677 0.058014 0)
(5.40544 0.0484044 0)
(5.4048 0.0404955 0)
(5.40456 0.0339836 0)
(5.4046 0.0286274 0)
(5.40475 0.0242554 0)
(5.40505 0.0206868 0)
(5.40523 0.017875 0)
(5.40577 0.0155544 0)
(5.40565 0.0140173 0)
(5.40694 0.0123951 0)
(5.40557 0.0123717 0)
(5.40952 0.0102761 0)
(5.4036 0.0135986 0)
(5.4165 0.00711503 0)
(5.39565 0.0209896 0)
(5.43598 -0.00326394 0)
(5.37126 0.0451221 0)
(5.48733 -0.0380885 0)
(5.30901 0.113898 0)
(5.60811 -0.136138 0)
(5.18065 0.284515 0)
(5.84391 -0.35326 0)
(4.99026 0.618231 0)
(6.18319 -0.685851 0)
(4.83328 1.02904 0)
(6.51595 -0.964539 0)
(4.80507 1.19336 0)
(6.83566 -1.01118 0)
(4.89955 1.00081 0)
(7.12769 -0.807298 0)
(5.18909 0.749648 0)
(7.16104 -0.548629 0)
(5.45124 0.777519 0)
(7.20089 -0.535754 0)
(5.50921 0.970324 0)
(7.14117 -0.541505 0)
(5.83745 0.925654 0)
(6.95292 -0.290452 0)
(5.99477 0.898714 0)
(6.9495 -0.0704267 0)
(5.89685 1.03592 0)
(6.66435 0.0875839 0)
(5.82095 1.07812 0)
(6.1942 0.333551 0)
(5.46079 1.179 0)
(5.42714 0.535359 0)
(5.10039 1.27733 0)
(4.93989 0.64895 0)
(5.02814 1.69389 0)
(5.2945 0.999557 0)
(5.86809 2.32563 0)
(6.15684 1.91982 0)
(5.22026 3.38628 0)
(5.36796 2.7332 0)
(4.91433 5.14663 0)
(8.08928 4.69407 0)
(5.56324 10.3262 0)
(7.64752 -0.139977 0)
(7.3251 -0.0674413 0)
(7.34097 -0.199912 0)
(7.18768 -0.0791536 0)
(8.00915 -0.0696624 0)
(7.49784 0.573736 0)
(7.56924 0.891071 0)
(9.05287 -0.0941179 0)
(9.46562 -0.280641 0)
(9.50654 0.36541 0)
(10.704 -0.144874 0)
(12.1312 -1.79257 0)
(12.7559 -3.34684 0)
(12.5358 -3.86235 0)
(12.3455 -3.741 0)
(13.0639 -3.89296 0)
(13.7639 -4.40126 0)
(14.3521 -4.89641 0)
(14.0591 -5.40655 0)
(13.6088 -5.24238 0)
(13.7284 -4.25314 0)
(13.0338 -3.44667 0)
(12.2994 -2.47835 0)
(11.4218 -1.37452 0)
(10.0799 -0.559922 0)
(9.01004 0.0722655 0)
(8.19715 0.393994 0)
(7.36725 0.388331 0)
(6.62454 0.373979 0)
(6.10254 0.47314 0)
(5.79139 0.563415 0)
(5.62866 0.561145 0)
(5.55241 0.490453 0)
(5.51448 0.400515 0)
(5.48866 0.318743 0)
(5.4664 0.252584 0)
(5.44695 0.200982 0)
(5.43123 0.161036 0)
(5.41959 0.129979 0)
(5.41165 0.105664 0)
(5.40666 0.0864497 0)
(5.40378 0.0711142 0)
(5.40233 0.0587753 0)
(5.40178 0.0487686 0)
(5.40178 0.0406137 0)
(5.40208 0.0339595 0)
(5.40257 0.0285247 0)
(5.40309 0.0241111 0)
(5.40371 0.0205259 0)
(5.40416 0.0177013 0)
(5.40497 0.0153831 0)
(5.40499 0.0138246 0)
(5.4066 0.0122174 0)
(5.40511 0.0121291 0)
(5.4098 0.0100661 0)
(5.40284 0.0132487 0)
(5.41821 0.00674642 0)
(5.39302 0.0205498 0)
(5.4419 -0.00440972 0)
(5.36188 0.0451551 0)
(5.50557 -0.0425861 0)
(5.28034 0.116825 0)
(5.65853 -0.152415 0)
(5.10822 0.29705 0)
(5.96528 -0.401328 0)
(4.84636 0.654781 0)
(6.42634 -0.790458 0)
(4.62141 1.1005 0)
(6.88442 -1.10148 0)
(4.55313 1.25782 0)
(7.19365 -1.11051 0)
(4.66388 1.04911 0)
(7.16716 -0.941305 0)
(5.18311 0.890324 0)
(6.72183 -0.767778 0)
(5.62882 0.943385 0)
(6.58892 -0.754366 0)
(5.64985 1.16198 0)
(6.56223 -0.863462 0)
(5.93325 1.15077 0)
(6.61923 -0.619466 0)
(6.05045 1.05164 0)
(7.03711 -0.351009 0)
(6.27458 1.22088 0)
(7.21119 -0.241998 0)
(6.52117 1.31631 0)
(7.38171 0.164247 0)
(6.51155 1.46317 0)
(6.99789 0.477801 0)
(6.27641 1.61054 0)
(6.19317 0.74834 0)
(5.31149 1.86167 0)
(5.49769 0.874251 0)
(4.74501 2.21798 0)
(6.41244 1.53582 0)
(5.59406 3.66364 0)
(7.60086 2.75991 0)
(4.25917 5.68833 0)
(8.31763 3.94937 0)
(6.56163 10.2551 0)
(9.68403 -0.13705 0)
(9.69239 0.0760956 0)
(9.58188 -0.0765323 0)
(9.32236 -0.249501 0)
(9.88449 -0.141003 0)
(9.56417 0.641972 0)
(9.66191 0.706193 0)
(10.5783 -0.453506 0)
(10.6198 -0.476828 0)
(10.9343 0.0973149 0)
(12.3397 -0.603307 0)
(13.6271 -2.11515 0)
(13.8499 -3.37842 0)
(13.6721 -3.76631 0)
(13.4705 -3.83773 0)
(13.9812 -4.09128 0)
(14.1668 -4.52346 0)
(14.028 -4.9329 0)
(13.8782 -5.21192 0)
(13.525 -5.0624 0)
(13.6068 -4.10523 0)
(13.1017 -3.18944 0)
(12.4173 -2.17697 0)
(11.6629 -0.950097 0)
(10.3457 -0.0563806 0)
(9.11984 0.497517 0)
(8.2016 0.753019 0)
(7.32833 0.728339 0)
(6.5247 0.659881 0)
(5.93263 0.66526 0)
(5.58668 0.666157 0)
(5.43485 0.604951 0)
(5.39588 0.505707 0)
(5.40041 0.406173 0)
(5.41094 0.322857 0)
(5.41567 0.256859 0)
(5.4145 0.204994 0)
(5.41027 0.16422 0)
(5.40551 0.132159 0)
(5.40167 0.106969 0)
(5.39917 0.0871147 0)
(5.39793 0.0713577 0)
(5.39764 0.0587574 0)
(5.39798 0.0485936 0)
(5.39869 0.0403533 0)
(5.39956 0.0336606 0)
(5.40051 0.0282158 0)
(5.40142 0.0238044 0)
(5.40238 0.020233 0)
(5.40309 0.0174146 0)
(5.40416 0.0151224 0)
(5.40433 0.0135419 0)
(5.40625 0.0119895 0)
(5.40464 0.0117784 0)
(5.41005 0.00988871 0)
(5.40206 0.0126528 0)
(5.4199 0.00671034 0)
(5.39017 0.0192997 0)
(5.44809 -0.00410925 0)
(5.3512 0.042365 0)
(5.52585 -0.0419101 0)
(5.2448 0.110705 0)
(5.71907 -0.153133 0)
(5.00561 0.285391 0)
(6.12219 -0.412511 0)
(4.60223 0.647187 0)
(6.74189 -0.838603 0)
(4.21248 1.14968 0)
(7.24942 -1.21996 0)
(4.21982 1.41217 0)
(7.1472 -1.32987 0)
(4.73218 1.31523 0)
(6.37891 -1.2852 0)
(5.45501 1.20145 0)
(5.6477 -1.05467 0)
(5.67027 1.14354 0)
(5.61316 -0.925266 0)
(5.499 1.37484 0)
(5.72994 -1.10941 0)
(5.6594 1.38209 0)
(5.98726 -0.81986 0)
(5.48434 1.26209 0)
(6.68063 -0.662649 0)
(5.58477 1.51294 0)
(6.98204 -0.60186 0)
(6.02582 1.51053 0)
(7.70968 -0.220341 0)
(6.23769 1.74007 0)
(8.17231 0.128437 0)
(6.68634 1.92134 0)
(8.24822 0.618644 0)
(6.39388 2.33636 0)
(7.39499 0.892326 0)
(5.15494 2.79317 0)
(6.1652 0.744468 0)
(4.73205 3.68021 0)
(8.69776 1.94877 0)
(5.80832 5.54449 0)
(11.1764 2.88453 0)
(7.79061 9.71333 0)
(11.2638 -0.178378 0)
(11.2917 0.03729 0)
(11.2637 -0.0267828 0)
(11.3057 -0.335562 0)
(11.6079 -0.174579 0)
(11.3625 0.67223 0)
(11.7411 0.596544 0)
(12.1399 -0.583866 0)
(11.8017 -0.614045 0)
(12.3878 -0.219964 0)
(13.6618 -1.08781 0)
(14.5988 -2.42081 0)
(14.2779 -3.4089 0)
(14.1066 -3.7091 0)
(14.0071 -3.87225 0)
(14.1832 -4.18438 0)
(14.1309 -4.51395 0)
(13.6462 -4.89181 0)
(13.549 -5.13259 0)
(13.2921 -5.10042 0)
(13.445 -4.14631 0)
(13.1663 -2.96372 0)
(12.3933 -1.84766 0)
(11.5944 -0.541763 0)
(10.3783 0.431187 0)
(9.12961 0.93959 0)
(8.14795 1.13051 0)
(7.24054 1.07951 0)
(6.40305 0.961 0)
(5.77832 0.870649 0)
(5.42526 0.76969 0)
(5.29379 0.636915 0)
(5.28539 0.502855 0)
(5.31729 0.393865 0)
(5.34885 0.312882 0)
(5.36977 0.252288 0)
(5.38139 0.204898 0)
(5.38706 0.166544 0)
(5.38947 0.135159 0)
(5.39046 0.109562 0)
(5.3911 0.0888914 0)
(5.39187 0.0723412 0)
(5.39292 0.0591235 0)
(5.3942 0.0485555 0)
(5.39562 0.0400838 0)
(5.39706 0.0332758 0)
(5.39848 0.0277924 0)
(5.39977 0.0233797 0)
(5.40106 0.0198312 0)
(5.40203 0.0170281 0)
(5.40336 0.0147797 0)
(5.40368 0.0131735 0)
(5.40588 0.0117135 0)
(5.4042 0.0113238 0)
(5.41025 0.00974153 0)
(5.40133 0.0118347 0)
(5.4214 0.00696107 0)
(5.38755 0.0173923 0)
(5.45351 -0.00267394 0)
(5.34177 0.0375502 0)
(5.54238 -0.0374762 0)
(5.21592 0.0985322 0)
(5.76193 -0.142754 0)
(4.93259 0.256938 0)
(6.21192 -0.39764 0)
(4.45766 0.601917 0)
(6.86759 -0.851993 0)
(4.0409 1.14884 0)
(7.24751 -1.33827 0)
(4.28915 1.52779 0)
(6.70248 -1.57711 0)
(5.16907 1.4968 0)
(5.67873 -1.54983 0)
(5.74628 1.36433 0)
(5.40483 -1.22315 0)
(5.65816 1.25673 0)
(5.76535 -1.06644 0)
(5.43021 1.47836 0)
(6.17993 -1.32514 0)
(5.49354 1.56566 0)
(6.44576 -1.0689 0)
(5.51379 1.37363 0)
(6.90386 -0.908464 0)
(5.44595 1.76115 0)
(7.10894 -1.0883 0)
(5.87627 1.76908 0)
(7.71044 -0.639897 0)
(5.95715 1.97993 0)
(8.52001 -0.552751 0)
(6.70722 2.19737 0)
(9.55317 0.100527 0)
(7.07948 2.66201 0)
(10.4401 0.756071 0)
(6.74922 3.21468 0)
(10.2924 1.42583 0)
(4.50523 3.98004 0)
(9.48391 1.7014 0)
(4.15487 6.0779 0)
(10.6599 1.51146 0)
(8.89732 8.8566 0)
(12.5188 -0.204141 0)
(12.5677 0.0552355 0)
(12.3307 -0.0467112 0)
(12.5076 -0.526402 0)
(12.7743 -0.234516 0)
(12.5787 0.65713 0)
(13.3229 0.511638 0)
(13.4873 -0.545796 0)
(12.858 -0.71321 0)
(13.5589 -0.541431 0)
(14.5819 -1.39366 0)
(15.2445 -2.41287 0)
(14.5979 -3.15868 0)
(14.3786 -3.59381 0)
(14.3792 -3.91138 0)
(14.1735 -4.20801 0)
(14.0715 -4.50369 0)
(13.6614 -4.87768 0)
(13.8071 -4.99608 0)
(13.437 -4.97591 0)
(13.2095 -4.20102 0)
(13.0141 -2.853 0)
(12.3567 -1.51355 0)
(11.4375 -0.11892 0)
(10.2142 0.923452 0)
(9.00407 1.40804 0)
(8.00785 1.52758 0)
(7.10276 1.43984 0)
(6.27901 1.27201 0)
(5.66329 1.08363 0)
(5.33182 0.872956 0)
(5.2329 0.664985 0)
(5.25145 0.498455 0)
(5.29645 0.382186 0)
(5.33055 0.301767 0)
(5.35044 0.242377 0)
(5.36187 0.195947 0)
(5.36916 0.158735 0)
(5.37437 0.128821 0)
(5.37843 0.104794 0)
(5.38181 0.0854833 0)
(5.38478 0.0699468 0)
(5.38749 0.0574105 0)
(5.39 0.047275 0)
(5.39233 0.0390732 0)
(5.39446 0.0324368 0)
(5.39641 0.0270741 0)
(5.39811 0.0227512 0)
(5.39974 0.0192826 0)
(5.40098 0.0165259 0)
(5.40256 0.0143482 0)
(5.40305 0.0127149 0)
(5.4055 0.0113928 0)
(5.40377 0.0107561 0)
(5.41041 0.00965507 0)
(5.40057 0.0107352 0)
(5.42298 0.0076458 0)
(5.38446 0.0145542 0)
(5.45997 0.000463473 0)
(5.32943 0.0298242 0)
(5.5642 -0.0276753 0)
(5.17526 0.0788018 0)
(5.82093 -0.118684 0)
(4.82762 0.21392 0)
(6.32876 -0.357138 0)
(4.2598 0.541522 0)
(7.01571 -0.845458 0)
(3.80342 1.17564 0)
(7.31303 -1.51015 0)
(4.21289 1.7937 0)
(6.538 -1.94032 0)
(5.29918 1.85022 0)
(5.51808 -1.82467 0)
(5.6795 1.55706 0)
(5.70364 -1.33077 0)
(5.23512 1.39002 0)
(6.28807 -1.22282 0)
(5.11288 1.68455 0)
(6.39418 -1.58036 0)
(5.29198 1.73789 0)
(6.50065 -1.26445 0)
(5.14565 1.50913 0)
(7.03388 -1.18944 0)
(5.16819 1.98973 0)
(7.15958 -1.37694 0)
(5.39547 1.91608 0)
(8.00818 -0.956468 0)
(5.22286 2.24778 0)
(8.94795 -1.0261 0)
(5.51358 2.41677 0)
(10.7568 -0.529651 0)
(5.79168 2.82231 0)
(12.8635 -0.102314 0)
(6.65669 3.31223 0)
(14.9299 0.7678 0)
(6.82394 4.41067 0)
(14.2109 1.24739 0)
(6.89384 6.28392 0)
(10.3751 1.23399 0)
(8.57297 8.21253 0)
(13.1842 -0.26546 0)
(13.3103 0.0264883 0)
(13.1284 -0.042927 0)
(13.1803 -0.666894 0)
(13.2206 -0.29413 0)
(13.1002 0.516857 0)
(14.0578 0.32672 0)
(14.1777 -0.460924 0)
(13.5321 -0.776695 0)
(14.2831 -0.863953 0)
(14.9391 -1.62781 0)
(15.1878 -2.37608 0)
(14.4747 -2.98826 0)
(14.2613 -3.62664 0)
(14.3326 -4.00062 0)
(13.9613 -4.16145 0)
(14.1523 -4.42977 0)
(13.8882 -4.8751 0)
(14.0999 -4.92767 0)
(13.6693 -4.74838 0)
(12.9936 -3.98217 0)
(12.4028 -2.67991 0)
(11.8011 -1.21873 0)
(11.0448 0.282632 0)
(9.86595 1.34015 0)
(8.70543 1.81007 0)
(7.80474 1.89802 0)
(6.92172 1.7853 0)
(6.08345 1.56703 0)
(5.51266 1.27273 0)
(5.26074 0.945797 0)
(5.23032 0.663556 0)
(5.28804 0.472595 0)
(5.34161 0.360856 0)
(5.3645 0.292839 0)
(5.36764 0.243221 0)
(5.36563 0.201728 0)
(5.3652 0.165781 0)
(5.36734 0.135037 0)
(5.371 0.109339 0)
(5.37515 0.088284 0)
(5.37921 0.0713076 0)
(5.38294 0.0577698 0)
(5.38631 0.0470239 0)
(5.38934 0.0385042 0)
(5.39203 0.0317387 0)
(5.39444 0.0263546 0)
(5.39653 0.0220592 0)
(5.39847 0.018649 0)
(5.39998 0.0159342 0)
(5.40177 0.0138398 0)
(5.40244 0.0121748 0)
(5.40509 0.011033 0)
(5.40342 0.0100775 0)
(5.41039 0.0096468 0)
(5.40012 0.00931677 0)
(5.42385 0.00888582 0)
(5.3826 0.0105148 0)
(5.46393 0.00590956 0)
(5.32158 0.0180436 0)
(5.57733 -0.0105363 0)
(5.15005 0.0485771 0)
(5.85079 -0.0771867 0)
(4.7712 0.151851 0)
(6.36057 -0.288523 0)
(4.18571 0.455673 0)
(6.98366 -0.806381 0)
(3.77668 1.15303 0)
(7.14546 -1.62572 0)
(4.33278 1.94772 0)
(6.19247 -2.142 0)
(5.5253 2.01256 0)
(5.17824 -1.87843 0)
(5.7428 1.56028 0)
(5.5145 -1.31342 0)
(5.13764 1.39205 0)
(5.97337 -1.35505 0)
(5.19347 1.79331 0)
(5.65587 -1.82325 0)
(5.42469 1.91126 0)
(5.8125 -1.45853 0)
(5.12014 1.61014 0)
(6.16267 -1.3462 0)
(5.17625 2.2013 0)
(6.09005 -1.68164 0)
(5.14399 2.09839 0)
(6.73967 -1.10575 0)
(4.87704 2.45758 0)
(7.05104 -1.33786 0)
(4.86607 2.66964 0)
(8.14123 -0.819433 0)
(4.58218 3.27095 0)
(9.21271 -0.757329 0)
(5.22696 3.74063 0)
(11.6728 -0.135618 0)
(7.07005 4.80288 0)
(13.229 0.470605 0)
(9.00065 6.34333 0)
(13.2655 1.77815 0)
(9.35756 7.19465 0)
(13.1431 -0.291641 0)
(13.2006 -0.0116344 0)
(13.6301 -0.0190069 0)
(13.5639 -0.578167 0)
(13.1006 -0.246683 0)
(13.0464 0.304721 0)
(13.9319 0.110447 0)
(14.217 -0.360408 0)
(13.9844 -0.802572 0)
(14.5352 -1.10806 0)
(14.6175 -1.717 0)
(14.5019 -2.27168 0)
(14.1615 -2.88206 0)
(14.0031 -3.64161 0)
(13.9268 -3.92923 0)
(13.5525 -4.12467 0)
(14.0682 -4.54412 0)
(13.9096 -4.9632 0)
(13.8435 -4.85128 0)
(13.1259 -4.52367 0)
(12.3331 -3.66687 0)
(11.5278 -2.30911 0)
(10.7716 -0.91587 0)
(10.1737 0.63385 0)
(9.16917 1.81154 0)
(8.17706 2.24474 0)
(7.34345 2.25953 0)
(6.57395 2.13133 0)
(5.95363 1.85852 0)
(5.51307 1.45304 0)
(5.29336 1.01662 0)
(5.276 0.670048 0)
(5.35045 0.462674 0)
(5.41709 0.355116 0)
(5.43989 0.289926 0)
(5.4295 0.23741 0)
(5.40759 0.191267 0)
(5.38822 0.152575 0)
(5.37628 0.121847 0)
(5.37142 0.0980949 0)
(5.37147 0.079696 0)
(5.37422 0.0651879 0)
(5.37809 0.053551 0)
(5.38216 0.0441194 0)
(5.38598 0.0364483 0)
(5.38938 0.0302115 0)
(5.39236 0.0251639 0)
(5.3949 0.021087 0)
(5.39718 0.017836 0)
(5.39898 0.0152167 0)
(5.40099 0.0132383 0)
(5.40188 0.0115556 0)
(5.40463 0.0106199 0)
(5.40318 0.00932173 0)
(5.41011 0.0096505 0)
(5.40019 0.00773407 0)
(5.42363 0.0103705 0)
(5.38285 0.00592205 0)
(5.46379 0.0123837 0)
(5.32125 0.00461149 0)
(5.57768 0.009545 0)
(5.14675 0.0153271 0)
(5.85004 -0.0304803 0)
(4.76153 0.089509 0)
(6.34585 -0.215522 0)
(4.16786 0.379905 0)
(6.93326 -0.762075 0)
(3.73816 1.14712 0)
(7.06395 -1.73407 0)
(4.28415 2.15893 0)
(6.08766 -2.38526 0)
(5.53075 2.25575 0)
(5.18768 -1.95253 0)
(5.63814 1.59849 0)
(5.68829 -1.29608 0)
(4.96686 1.46964 0)
(6.16229 -1.54869 0)
(5.12012 2.03254 0)
(5.88022 -2.02602 0)
(5.29574 1.9515 0)
(6.31028 -1.51845 0)
(4.90774 1.76145 0)
(6.50927 -1.68216 0)
(5.23171 2.35466 0)
(6.45173 -1.89779 0)
(5.04608 2.11859 0)
(7.12767 -1.43323 0)
(4.98967 2.60313 0)
(6.96959 -1.71201 0)
(5.18684 2.60646 0)
(7.49962 -1.17646 0)
(5.06014 3.28823 0)
(7.15589 -1.33344 0)
(5.64557 3.86251 0)
(7.77693 -0.968674 0)
(6.48433 5.41157 0)
(9.43875 -0.315268 0)
(8.04637 6.4903 0)
(12.947 1.9739 0)
(10.4339 6.65734 0)
(12.8944 -0.196231 0)
(13.0298 -0.0929437 0)
(13.7763 -0.172859 0)
(13.3772 -0.399393 0)
(12.925 -0.0994679 0)
(13.1969 0.12363 0)
(13.7321 -0.108232 0)
(14.3095 -0.478477 0)
(14.3893 -0.94877 0)
(14.2767 -1.15107 0)
(14.0229 -1.545 0)
(13.9646 -2.17923 0)
(14.0185 -2.84454 0)
(13.7489 -3.53679 0)
(13.3905 -3.78718 0)
(13.1633 -4.12169 0)
(13.5317 -4.67939 0)
(13.1718 -4.93566 0)
(12.907 -4.60501 0)
(11.9518 -4.1215 0)
(11.054 -3.27562 0)
(10.4165 -1.945 0)
(9.47655 -0.576683 0)
(9.02368 0.928315 0)
(8.40086 2.06457 0)
(7.57704 2.50043 0)
(6.93892 2.5361 0)
(6.42646 2.37929 0)
(5.79836 2.05399 0)
(5.30041 1.56766 0)
(5.16908 1.02937 0)
(5.23709 0.620432 0)
(5.32375 0.407296 0)
(5.37091 0.328586 0)
(5.38221 0.298419 0)
(5.37857 0.269017 0)
(5.37402 0.230468 0)
(5.37194 0.18841 0)
(5.3715 0.149378 0)
(5.3719 0.116624 0)
(5.37304 0.090712 0)
(5.37503 0.0708635 0)
(5.37777 0.0558701 0)
(5.381 0.0445574 0)
(5.38441 0.0359537 0)
(5.38772 0.0293319 0)
(5.39081 0.0241868 0)
(5.39355 0.0201395 0)
(5.39605 0.0169744 0)
(5.39807 0.0144307 0)
(5.40025 0.012565 0)
(5.40137 0.010875 0)
(5.40413 0.0101448 0)
(5.40308 0.00852469 0)
(5.40956 0.00960178 0)
(5.40083 0.00612524 0)
(5.42217 0.0118444 0)
(5.38553 0.00123647 0)
(5.45891 0.0191201 0)
(5.32991 -0.009413 0)
(5.56273 0.0311633 0)
(5.17095 -0.0204232 0)
(5.81057 0.0219245 0)
(4.81862 0.020211 0)
(6.25575 -0.125768 0)
(4.27811 0.285986 0)
(6.75694 -0.673418 0)
(3.89641 1.07524 0)
(6.79983 -1.74315 0)
(4.37768 2.21109 0)
(5.90544 -2.4779 0)
(5.55004 2.31227 0)
(5.14228 -1.87701 0)
(5.62803 1.50373 0)
(5.60057 -1.19729 0)
(4.94987 1.47708 0)
(5.98154 -1.68795 0)
(5.17722 2.1908 0)
(5.55098 -2.24375 0)
(5.35642 2.08646 0)
(5.73404 -1.6693 0)
(4.98632 1.89448 0)
(5.84442 -1.92933 0)
(5.22803 2.60206 0)
(5.85821 -2.10774 0)
(4.97449 2.26457 0)
(6.43076 -1.67717 0)
(4.95417 2.9363 0)
(6.35692 -2.15778 0)
(5.18414 2.79979 0)
(7.08872 -1.53099 0)
(5.14941 3.68274 0)
(7.11575 -1.92956 0)
(5.91513 3.95736 0)
(7.74413 -1.56306 0)
(6.83123 5.31426 0)
(8.49234 -0.792094 0)
(7.49818 5.95839 0)
(10.5642 1.22707 0)
(10.7787 6.01081 0)
(13.1586 -0.199255 0)
(13.0366 -0.247099 0)
(12.9144 -0.0944566 0)
(13.0712 -0.1708 0)
(13.8702 -0.225439 0)
(14.0422 -0.171565 0)
(13.5982 -0.308463 0)
(13.7901 -0.558664 0)
(13.9144 -0.869498 0)
(13.9354 -1.02705 0)
(14.0854 -1.45626 0)
(14.058 -2.15667 0)
(13.8535 -2.79137 0)
(13.3625 -3.35524 0)
(12.9246 -3.69256 0)
(12.8283 -4.13638 0)
(12.6916 -4.61478 0)
(11.7893 -4.71653 0)
(11.1711 -4.27527 0)
(10.157 -3.73289 0)
(9.21762 -2.87294 0)
(8.81962 -1.56787 0)
(8.01948 -0.368521 0)
(7.7048 1.05401 0)
(7.28269 2.33873 0)
(6.59684 2.83797 0)
(6.14988 2.75838 0)
(5.68144 2.58249 0)
(5.24483 2.28065 0)
(5.29591 1.69185 0)
(5.56865 1.04684 0)
(5.62666 0.615146 0)
(5.46209 0.411113 0)
(5.26911 0.325549 0)
(5.16091 0.273616 0)
(5.14046 0.225527 0)
(5.1705 0.180544 0)
(5.21765 0.142983 0)
(5.26327 0.113956 0)
(5.30028 0.0918587 0)
(5.32785 0.0746416 0)
(5.34755 0.0608552 0)
(5.36144 0.049671 0)
(5.37134 0.0405932 0)
(5.37858 0.0332625 0)
(5.38406 0.0273716 0)
(5.38837 0.0226662 0)
(5.39184 0.0189009 0)
(5.39479 0.0159388 0)
(5.39714 0.0135301 0)
(5.3995 0.0118001 0)
(5.40089 0.0101355 0)
(5.4036 0.00959224 0)
(5.40309 0.00772682 0)
(5.40878 0.00942359 0)
(5.40195 0.00466999 0)
(5.41967 0.0129496 0)
(5.39029 -0.00281927 0)
(5.44991 0.0247212 0)
(5.34637 -0.021544 0)
(5.53436 0.049683 0)
(5.21931 -0.051659 0)
(5.73717 0.0676311 0)
(4.93353 -0.0401306 0)
(6.10566 -0.0461634 0)
(4.48435 0.209021 0)
(6.51905 -0.591168 0)
(4.12946 1.01841 0)
(6.56574 -1.73572 0)
(4.384 2.26556 0)
(5.94617 -2.57026 0)
(5.33773 2.40903 0)
(5.24281 -1.84997 0)
(5.55767 1.40685 0)
(5.45843 -1.11715 0)
(4.97231 1.48526 0)
(5.83827 -1.83317 0)
(5.17577 2.36564 0)
(5.51245 -2.23506 0)
(5.35196 2.04444 0)
(5.70966 -1.61709 0)
(4.99181 1.97282 0)
(5.87158 -2.1282 0)
(5.21932 2.69863 0)
(5.96625 -2.22997 0)
(4.9919 2.34994 0)
(6.26936 -1.99507 0)
(5.10688 3.10338 0)
(6.25024 -2.40389 0)
(5.21585 2.98744 0)
(6.50315 -1.93499 0)
(5.54876 3.93276 0)
(6.53511 -2.27912 0)
(6.03919 4.10436 0)
(6.96648 -1.7647 0)
(6.83705 5.26894 0)
(7.5592 -0.583129 0)
(7.47256 5.53607 0)
(8.37731 0.789818 0)
(10.2579 5.24868 0)
(13.1631 -0.0620424 0)
(12.752 0.11703 0)
(12.9396 -0.19999 0)
(13.8465 -0.755462 0)
(14.0729 -0.435054 0)
(13.4852 0.136549 0)
(13.0677 -0.081675 0)
(13.1993 -0.592252 0)
(13.546 -1.02009 0)
(13.9457 -1.27826 0)
(14.0927 -1.5367 0)
(13.8088 -1.94973 0)
(13.4773 -2.55084 0)
(13.1251 -3.16509 0)
(12.7959 -3.57762 0)
(12.3896 -4.03873 0)
(11.54 -4.32704 0)
(10.1453 -4.28834 0)
(9.24802 -3.84121 0)
(8.16305 -3.24772 0)
(7.33107 -2.49015 0)
(7.05508 -1.27252 0)
(6.28108 -0.0950798 0)
(6.00193 1.26299 0)
(5.9469 2.48506 0)
(5.75714 2.91519 0)
(5.44081 2.88678 0)
(5.00159 2.77042 0)
(5.01695 2.3038 0)
(5.44538 1.5544 0)
(5.71177 0.970703 0)
(5.70292 0.687392 0)
(5.60645 0.557525 0)
(5.54381 0.45844 0)
(5.52 0.362348 0)
(5.50331 0.277522 0)
(5.47661 0.210289 0)
(5.44276 0.160089 0)
(5.41149 0.123181 0)
(5.38913 0.0958201 0)
(5.37669 0.0752662 0)
(5.37208 0.0596507 0)
(5.37242 0.0476801 0)
(5.37536 0.0384289 0)
(5.37933 0.0312261 0)
(5.38346 0.0255716 0)
(5.38733 0.0211169 0)
(5.39076 0.0175765 0)
(5.39382 0.0148089 0)
(5.39636 0.0125485 0)
(5.39883 0.0109565 0)
(5.40047 0.00935029 0)
(5.40306 0.00895655 0)
(5.40318 0.0069568 0)
(5.40784 0.00906597 0)
(5.4034 0.00348399 0)
(5.41641 0.0134637 0)
(5.39656 -0.00581436 0)
(5.43776 0.0284204 0)
(5.36898 -0.0305808 0)
(5.49442 0.0632872 0)
(5.28888 -0.0766196 0)
(5.62924 0.104953 0)
(5.10753 -0.0944341 0)
(5.87902 0.0298758 0)
(4.81143 0.124159 0)
(6.16293 -0.477009 0)
(4.53289 0.907246 0)
(6.20085 -1.61638 0)
(4.55653 2.16306 0)
(5.85763 -2.50637 0)
(5.20155 2.37633 0)
(5.26816 -1.75705 0)
(5.60617 1.26717 0)
(5.28824 -0.904682 0)
(5.10519 1.30013 0)
(5.82281 -1.71095 0)
(5.11147 2.44073 0)
(5.47634 -2.25049 0)
(5.42875 2.14463 0)
(5.48457 -1.61711 0)
(5.07516 2.09449 0)
(5.71003 -2.26898 0)
(5.19253 2.84273 0)
(5.73848 -2.36253 0)
(5.06672 2.46321 0)
(5.99227 -2.22291 0)
(5.1762 3.34605 0)
(6.23132 -2.71306 0)
(5.33836 3.16888 0)
(6.40582 -2.29457 0)
(5.78965 4.06866 0)
(6.80831 -2.48462 0)
(6.20863 4.11483 0)
(6.97905 -1.90395 0)
(7.05042 5.00971 0)
(7.59551 -0.633733 0)
(7.90924 4.86341 0)
(8.29567 0.750444 0)
(9.77193 4.26407 0)
(13.23 0.0141331 0)
(13.7098 -0.0247266 0)
(13.7218 -0.488651 0)
(12.8601 -0.518436 0)
(12.8347 -0.00565182 0)
(13.5144 0.102354 0)
(13.4281 -0.238098 0)
(13.4794 -0.609801 0)
(13.7711 -1.07618 0)
(13.7021 -1.32071 0)
(13.4891 -1.42247 0)
(13.4343 -1.83341 0)
(13.3891 -2.41742 0)
(12.9185 -2.96077 0)
(12.2609 -3.33598 0)
(11.2696 -3.6451 0)
(9.83548 -3.7891 0)
(8.22914 -3.71294 0)
(7.31072 -3.40931 0)
(6.37709 -2.88322 0)
(5.61246 -2.15002 0)
(5.35593 -1.04757 0)
(4.64211 0.0401508 0)
(4.45056 1.24741 0)
(4.83817 2.36818 0)
(5.01166 2.93024 0)
(4.71496 3.08341 0)
(4.58224 2.84556 0)
(5.02007 2.15383 0)
(5.4344 1.40622 0)
(5.48103 0.921593 0)
(5.34188 0.663245 0)
(5.21744 0.504691 0)
(5.15927 0.389446 0)
(5.1491 0.306928 0)
(5.16551 0.248708 0)
(5.19575 0.20368 0)
(5.23131 0.16487 0)
(5.26611 0.130568 0)
(5.29653 0.101469 0)
(5.32121 0.0781265 0)
(5.34027 0.0602159 0)
(5.35465 0.0468206 0)
(5.36545 0.0368793 0)
(5.37367 0.0294584 0)
(5.38005 0.0238423 0)
(5.38513 0.0195411 0)
(5.38925 0.0161873 0)
(5.39271 0.0136017 0)
(5.39555 0.0114982 0)
(5.39817 0.0100407 0)
(5.40008 0.00852744 0)
(5.40254 0.00823432 0)
(5.40332 0.00623463 0)
(5.40686 0.00849393 0)
(5.40498 0.00265774 0)
(5.41287 0.013197 0)
(5.40339 -0.00732179 0)
(5.42429 0.0293254 0)
(5.39408 -0.0346819 0)
(5.44886 0.0684773 0)
(5.36823 -0.0888601 0)
(5.50074 0.123067 0)
(5.31224 -0.126212 0)
(5.59837 0.0787214 0)
(5.2064 0.0588454 0)
(5.73426 -0.374325 0)
(5.01008 0.801123 0)
(5.84939 -1.46818 0)
(4.72221 2.04798 0)
(5.9156 -2.40329 0)
(4.87891 2.36864 0)
(5.53754 -1.69889 0)
(5.42492 1.16772 0)