/*--------------------------------*- C++ -*----------------------------------*\
| =========                 |                                                 |
| \\      /  F ield         | OpenFOAM: The Open Source CFD Toolbox           |
|  \\    /   O peration     | Version:  2.4.0                                 |
|   \\  /    A nd           | Web:      www.OpenFOAM.org                      |
|    \\/     M anipulation  |                                                 |
\*---------------------------------------------------------------------------*/
FoamFile
{
    version     2.0;
    format      ascii;
    class       volVectorField;
    location    "0.035";
    object      U_0;
}
// * * * * * * * * * * * * * * * * * * * * * * * * * * * * * * * * * * * * * //

dimensions      [0 1 -1 0 0 0 0];

internalField   nonuniform List<vector> 
4400
(
(5.40679 0.316646 0)
(3.31159 0.0607504 0)
(2.58873 0.00146619 0)
(2.2263 -0.00212135 0)
(2.08353 -0.00141442 0)
(2.0095 -0.00183872 0)
(1.93265 0.00180432 0)
(1.91506 -0.000945861 0)
(1.94023 0.00391286 0)
(1.43521 -0.0907472 0)
(8.69844 0.857253 0)
(7.5221 0.344964 0)
(6.65055 0.11613 0)
(5.89329 0.0557346 0)
(5.52851 0.0252921 0)
(5.29792 0.0144166 0)
(5.09037 0.0174512 0)
(5.03785 -0.00650676 0)
(5.07651 0.0444995 0)
(4.49943 -0.142508 0)
(9.91804 0.937071 0)
(9.95326 0.477514 0)
(9.52874 0.21198 0)
(8.72887 0.132022 0)
(8.281 0.0708877 0)
(7.95004 0.045837 0)
(7.65547 0.0431168 0)
(7.58243 -0.00810864 0)
(7.54817 0.0635881 0)
(7.1187 -0.132838 0)
(10.1752 0.807807 0)
(11.0525 0.499406 0)
(11.3164 0.263041 0)
(10.7997 0.201871 0)
(10.4597 0.122523 0)
(10.129 0.086991 0)
(9.81418 0.0751623 0)
(9.75841 -0.00182112 0)
(9.61368 0.0829282 0)
(9.3022 -0.154231 0)
(10.1467 0.648318 0)
(11.2282 0.438401 0)
(12.0194 0.237846 0)
(11.9304 0.225095 0)
(11.8857 0.153226 0)
(11.6996 0.124391 0)
(11.4692 0.10379 0)
(11.4807 0.0112483 0)
(11.2782 0.101523 0)
(11.0844 -0.148668 0)
(10.1915 0.516076 0)
(11.1451 0.372035 0)
(12.0462 0.174101 0)
(12.2046 0.194712 0)
(12.4615 0.136199 0)
(12.4985 0.132677 0)
(12.4652 0.11635 0)
(12.5931 0.0150034 0)
(12.4533 0.118429 0)
(12.3398 -0.124237 0)
(10.1725 0.388816 0)
(11.1376 0.316054 0)
(11.997 0.113505 0)
(12.1752 0.152567 0)
(12.4959 0.0990595 0)
(12.6488 0.116056 0)
(12.8085 0.0975904 0)
(13.0121 0.0103931 0)
(13.0131 0.100813 0)
(13.0199 -0.06871 0)
(10.078 0.262876 0)
(11.1089 0.251858 0)
(11.9464 0.0790919 0)
(12.212 0.115186 0)
(12.4367 0.0416851 0)
(12.5934 0.0918627 0)
(12.836 0.0699808 0)
(13.0277 -0.00307267 0)
(13.1254 0.0702456 0)
(13.2772 -0.0688924 0)
(9.99945 0.155869 0)
(11.0654 0.163595 0)
(11.9341 0.0223244 0)
(12.248 0.0809122 0)
(12.3855 0.0299293 0)
(12.5647 0.0505979 0)
(12.8267 0.0500054 0)
(12.9883 -0.0289596 0)
(13.1353 0.0507106 0)
(13.2893 -0.0885348 0)
(9.98743 0.0467137 0)
(11.0592 0.0750084 0)
(11.911 -0.0083926 0)
(12.2288 0.0461708 0)
(12.3808 -0.0234435 0)
(12.5687 0.0224814 0)
(12.8018 0.0237006 0)
(12.9767 -0.0436147 0)
(13.1171 0.00772782 0)
(13.2687 -0.0717233 0)
(10.001 -0.057074 0)
(11.0456 -0.0181603 0)
(11.9069 -0.0599285 0)
(12.2397 0.0110303 0)
(12.3793 -0.0366059 0)
(12.5598 -0.0178346 0)
(12.8044 -0.000310152 0)
(12.9891 -0.0661152 0)
(13.0885 -0.0176302 0)
(13.2586 -0.111304 0)
(10.001 -0.166455 0)
(11.059 -0.105779 0)
(11.9313 -0.0913009 0)
(12.2405 -0.0266938 0)
(12.3844 -0.0816849 0)
(12.58 -0.0501637 0)
(12.8257 -0.0269931 0)
(12.9913 -0.0810139 0)
(13.075 -0.0548264 0)
(13.1631 -0.100306 0)
(9.99164 -0.271801 0)
(11.1104 -0.198162 0)
(11.9682 -0.142487 0)
(12.23 -0.0611082 0)
(12.4221 -0.102158 0)
(12.6137 -0.0870091 0)
(12.8672 -0.056013 0)
(12.9818 -0.0924852 0)
(13.1074 -0.0705652 0)
(13.2151 -0.18288 0)
(9.97367 -0.387452 0)
(11.2118 -0.280682 0)
(12.009 -0.175615 0)
(12.203 -0.0990175 0)
(12.5068 -0.142606 0)
(12.6351 -0.123478 0)
(12.8859 -0.0787406 0)
(12.8746 -0.105414 0)
(13.0446 -0.103783 0)
(12.9853 -0.194147 0)
(9.96448 -0.507077 0)
(11.3314 -0.358094 0)
(12.0214 -0.220509 0)
(12.2282 -0.148167 0)
(12.4943 -0.17512 0)
(12.4244 -0.142834 0)
(12.5746 -0.0940704 0)
(12.3888 -0.10606 0)
(12.4855 -0.107894 0)
(12.1841 -0.170681 0)
(10.0072 -0.641097 0)
(11.4112 -0.436834 0)
(11.9272 -0.265377 0)
(11.9683 -0.190075 0)
(11.9214 -0.181132 0)
(11.5943 -0.133738 0)
(11.583 -0.0850989 0)
(11.2612 -0.0870915 0)
(11.2843 -0.0968662 0)
(10.859 -0.143608 0)
(10.0973 -0.80333 0)
(11.1799 -0.498593 0)
(11.2149 -0.27813 0)
(10.8442 -0.179787 0)
(10.4842 -0.140974 0)
(10.0184 -0.0959439 0)
(9.91711 -0.0591173 0)
(9.5612 -0.0602792 0)
(9.55921 -0.0741072 0)
(9.06574 -0.0979874 0)
(9.87876 -0.935616 0)
(10.035 -0.477529 0)
(9.44355 -0.219936 0)
(8.77202 -0.120139 0)
(8.29577 -0.0805226 0)
(7.85425 -0.0534104 0)
(7.73518 -0.0318838 0)
(7.42534 -0.0353128 0)
(7.41374 -0.0475783 0)
(6.91099 -0.056958 0)
(8.67978 -0.856804 0)
(7.5662 -0.344451 0)
(6.59721 -0.119403 0)
(5.9228 -0.0511302 0)
(5.53604 -0.0282187 0)
(5.23004 -0.0200517 0)
(5.13682 -0.0114379 0)
(4.92381 -0.0156699 0)
(4.89764 -0.021575 0)
(4.4851 -0.0247521 0)
(5.40272 -0.316859 0)
(3.32414 -0.0605445 0)
(2.57308 -0.00205136 0)
(2.23342 0.00253759 0)
(2.08808 0.00193122 0)
(1.98012 -0.000505285 0)
(1.94119 0.000458056 0)
(1.86 -0.00158473 0)
(1.83013 -0.00131114 0)
(1.64361 0.00870799 0)
(3.05373 -0.186814 0)
(2.89771 -0.0310826 0)
(3.43484 -0.125678 0)
(2.6815 0.11588 0)
(3.96043 0.110061 0)
(4.64512 0.837653 0)
(5.13015 1.57498 0)
(6.67405 0.950645 0)
(8.516 0.456537 0)
(9.22409 0.759328 0)
(9.30555 0.361326 0)
(9.68421 -1.48031 0)
(9.96275 -3.37602 0)
(10.1099 -3.84064 0)
(10.4381 -3.23767 0)
(10.9811 -2.96495 0)
(11.9267 -3.55909 0)
(12.4471 -4.86776 0)
(12.5943 -5.68135 0)
(13.2341 -5.16306 0)
(12.535 -4.59399 0)
(11.589 -4.02718 0)
(11.3131 -3.0393 0)
(10.3704 -2.21073 0)
(9.37287 -1.36978 0)
(8.76172 -0.560819 0)
(8.05086 -0.257749 0)
(7.28698 -0.245408 0)
(6.74692 -0.0947641 0)
(6.42745 0.180888 0)
(6.19873 0.376627 0)
(6.00371 0.428301 0)
(5.83891 0.38955 0)
(5.70744 0.322607 0)
(5.6087 0.259004 0)
(5.53858 0.207617 0)
(5.49103 0.168079 0)
(5.45982 0.137635 0)
(5.43971 0.113742 0)
(5.4269 0.0945739 0)
(5.41877 0.0789481 0)
(5.41363 0.0660581 0)
(5.4104 0.055351 0)
(5.4084 0.0464504 0)
(5.40719 0.0390481 0)
(5.40647 0.0329011 0)
(5.40609 0.027811 0)
(5.40587 0.0236365 0)
(5.40585 0.0202154 0)
(5.40578 0.0175144 0)
(5.40604 0.0152869 0)
(5.40581 0.0138143 0)
(5.40671 0.0122837 0)
(5.40554 0.0122628 0)
(5.40857 0.0103766 0)
(5.40394 0.0134577 0)
(5.41389 0.00776848 0)
(5.39802 0.0203351 0)
(5.42872 -0.00077161 0)
(5.38039 0.0422513 0)
(5.46706 -0.0296666 0)
(5.33664 0.10399 0)
(5.55403 -0.111108 0)
(5.25098 0.256441 0)
(5.71091 -0.290383 0)
(5.14289 0.551617 0)
(5.89312 -0.561193 0)
(5.11529 0.902189 0)
(5.98288 -0.778185 0)
(5.22849 1.01821 0)
(6.04196 -0.791416 0)
(5.35221 0.813397 0)
(6.24783 -0.58592 0)
(5.41227 0.556994 0)
(6.45036 -0.341094 0)
(5.43492 0.576943 0)
(6.49159 -0.314477 0)
(5.52765 0.738378 0)
(6.27919 -0.275454 0)
(5.73768 0.704614 0)
(6.03925 -0.0889889 0)
(5.68116 0.69991 0)
(5.87598 0.0768614 0)
(5.54008 0.760098 0)
(5.52969 0.193266 0)
(5.39301 0.79849 0)
(5.32499 0.415618 0)
(5.24996 0.833162 0)
(5.24877 0.690683 0)
(5.19735 1.01936 0)
(5.52933 1.00073 0)
(5.32329 1.47131 0)
(5.59946 1.55181 0)
(5.47701 2.12986 0)
(5.21039 1.86906 0)
(5.14038 3.0541 0)
(6.08969 3.11715 0)
(4.85436 5.13975 0)
(5.69012 5.56672 0)
(3.42351 9.78436 0)
(5.19543 -0.175965 0)
(4.96899 -0.104194 0)
(5.49102 -0.0834902 0)
(5.08154 0.113414 0)
(5.87031 -0.0257895 0)
(5.57546 0.648644 0)
(5.83604 1.13734 0)
(7.53147 0.222242 0)
(8.55503 -0.0390414 0)
(8.72844 0.603871 0)
(9.42441 0.139883 0)
(10.5305 -1.70705 0)
(11.04 -3.46682 0)
(10.8171 -3.91181 0)
(10.9459 -3.46979 0)
(11.8912 -3.41672 0)
(13.1529 -3.93066 0)
(13.8656 -4.88041 0)
(13.3652 -5.72998 0)
(13.5633 -5.23589 0)
(13.4239 -4.30283 0)
(12.2921 -3.71434 0)
(11.6977 -2.75818 0)
(10.8151 -1.78917 0)
(9.63712 -0.99159 0)
(8.83613 -0.266086 0)
(8.10749 0.0518997 0)
(7.31129 0.0462207 0)
(6.66552 0.113841 0)
(6.25157 0.312059 0)
(5.99326 0.465073 0)
(5.82333 0.495278 0)
(5.70649 0.442485 0)
(5.62134 0.363763 0)
(5.55656 0.289806 0)
(5.50756 0.229706 0)
(5.47184 0.183231 0)
(5.44691 0.147598 0)
(5.43023 0.120107 0)
(5.41946 0.0985778 0)
(5.41272 0.0814268 0)
(5.40863 0.0675753 0)
(5.40626 0.0562674 0)
(5.40496 0.0469854 0)
(5.40433 0.0393392 0)
(5.40411 0.0330393 0)
(5.40414 0.0278551 0)
(5.40428 0.0236219 0)
(5.40457 0.0201676 0)
(5.40475 0.0174443 0)
(5.40527 0.015204 0)
(5.40518 0.0137127 0)
(5.40639 0.0121666 0)
(5.40512 0.012122 0)
(5.40884 0.0101744 0)
(5.40331 0.0132865 0)
(5.41547 0.00726822 0)
(5.39585 0.0203166 0)
(5.434 -0.00239811 0)
(5.37269 0.0432881 0)
(5.4831 -0.0353024 0)
(5.313 0.109046 0)
(5.59947 -0.129088 0)
(5.18837 0.27357 0)
(5.82922 -0.33981 0)
(4.99995 0.600295 0)
(6.16523 -0.669613 0)
(4.83941 1.01436 0)
(6.49907 -0.955719 0)
(4.80645 1.19618 0)
(6.81684 -1.01458 0)
(4.89625 1.0147 0)
(7.11752 -0.81895 0)
(5.17824 0.756746 0)
(7.16276 -0.552663 0)
(5.45021 0.770111 0)
(7.20065 -0.528955 0)
(5.50475 0.966791 0)
(7.15253 -0.541143 0)
(5.82348 0.931265 0)
(6.95507 -0.295287 0)
(5.99632 0.8966 0)
(6.94227 -0.0684183 0)
(5.8933 1.03436 0)
(6.65894 0.0883471 0)
(5.81357 1.07795 0)
(6.18551 0.329986 0)
(5.45179 1.17996 0)
(5.42273 0.533876 0)
(5.1004 1.27343 0)
(4.93425 0.653011 0)
(5.03345 1.69282 0)
(5.31309 0.995501 0)
(5.8596 2.32487 0)
(6.13933 1.92331 0)
(5.18313 3.39601 0)
(5.35223 2.73923 0)
(4.89692 5.1474 0)
(8.07246 4.68877 0)
(5.55117 10.326 0)
(7.63603 -0.136098 0)
(7.29972 -0.0806673 0)
(7.32362 -0.224773 0)
(7.22527 -0.0848875 0)
(7.99935 -0.0264485 0)
(7.43385 0.623411 0)
(7.62383 0.818875 0)
(9.09439 -0.153122 0)
(9.41112 -0.16694 0)
(9.51167 0.45858 0)
(10.819 -0.246271 0)
(12.1775 -1.94853 0)
(12.6583 -3.41074 0)
(12.3708 -3.80178 0)
(12.2959 -3.64556 0)
(13.1105 -3.86123 0)
(13.8642 -4.41382 0)
(14.407 -4.95532 0)
(13.9668 -5.47678 0)
(13.6343 -5.17335 0)
(13.7327 -4.16605 0)
(12.9301 -3.41822 0)
(12.2071 -2.43536 0)
(11.2933 -1.34389 0)
(9.95747 -0.546025 0)
(8.93723 0.0766572 0)
(8.13669 0.372669 0)
(7.30555 0.360211 0)
(6.57472 0.36218 0)
(6.07058 0.471128 0)
(5.77421 0.557068 0)
(5.62119 0.547951 0)
(5.54986 0.474814 0)
(5.51359 0.386145 0)
(5.48801 0.306965 0)
(5.46565 0.243343 0)
(5.44615 0.193809 0)
(5.43049 0.155453 0)
(5.41896 0.125604 0)
(5.41114 0.102211 0)
(5.40623 0.0837047 0)
(5.4034 0.0689179 0)
(5.40197 0.0570082 0)
(5.40142 0.0473401 0)
(5.40142 0.0394549 0)
(5.40171 0.0330167 0)
(5.40217 0.027756 0)
(5.40268 0.0234822 0)
(5.40328 0.0200114 0)
(5.40372 0.0172756 0)
(5.40449 0.0150371 0)
(5.40454 0.0135252 0)
(5.40606 0.0119927 0)
(5.40469 0.0118861 0)
(5.40911 0.00996865 0)
(5.40262 0.0129452 0)
(5.41708 0.00691215 0)
(5.3934 0.0198797 0)
(5.43961 -0.00348575 0)
(5.36385 0.0432799 0)
(5.50047 -0.0395633 0)
(5.28568 0.111788 0)
(5.64779 -0.144623 0)
(5.11861 0.285605 0)
(5.94648 -0.386219 0)
(4.85963 0.635838 0)
(6.4028 -0.772412 0)
(4.63012 1.08544 0)
(6.86593 -1.09413 0)
(4.55538 1.26282 0)
(7.18827 -1.11648 0)
(4.65094 1.06131 0)
(7.19301 -0.948731 0)
(5.15272 0.892635 0)
(6.75958 -0.771161 0)
(5.62161 0.936718 0)
(6.61168 -0.74733 0)
(5.6472 1.15571 0)
(6.59537 -0.860417 0)
(5.92643 1.15762 0)
(6.6327 -0.628806 0)
(6.05856 1.05262 0)
(7.04895 -0.348471 0)
(6.27326 1.2171 0)
(7.21966 -0.239856 0)
(6.52609 1.3187 0)
(7.38191 0.160763 0)
(6.50494 1.46359 0)
(7.00139 0.478845 0)
(6.26969 1.6097 0)
(6.17836 0.747981 0)
(5.3159 1.85663 0)
(5.48352 0.873185 0)
(4.72992 2.21875 0)
(6.411 1.53964 0)
(5.58571 3.6721 0)
(7.61096 2.76056 0)
(4.26143 5.68501 0)
(8.33187 3.94894 0)
(6.55671 10.2501 0)
(9.69438 -0.12095 0)
(9.68814 0.0755958 0)
(9.5522 -0.120607 0)
(9.33692 -0.26832 0)
(9.8747 -0.0732585 0)
(9.51427 0.69427 0)
(9.68935 0.60694 0)
(10.5655 -0.509007 0)
(10.5768 -0.352586 0)
(11.0092 0.167861 0)
(12.4821 -0.693875 0)
(13.6614 -2.22928 0)
(13.7939 -3.39727 0)
(13.5782 -3.70616 0)
(13.4445 -3.77554 0)
(14.019 -4.07994 0)
(14.1893 -4.55807 0)
(14.1006 -4.97629 0)
(13.8924 -5.24935 0)
(13.5653 -4.99496 0)
(13.6451 -4.007 0)
(13.0492 -3.14952 0)
(12.3641 -2.12688 0)
(11.5674 -0.907496 0)
(10.2256 -0.0471176 0)
(9.03705 0.489144 0)
(8.13829 0.727404 0)
(7.2654 0.698666 0)
(6.47093 0.642483 0)
(5.89745 0.655501 0)
(5.57014 0.653533 0)
(5.43122 0.588179 0)
(5.39823 0.488657 0)
(5.40397 0.39155 0)
(5.41372 0.311219 0)
(5.41734 0.247788 0)
(5.41531 0.197923 0)
(5.41057 0.158683 0)
(5.40555 0.127805 0)
(5.40158 0.10353 0)
(5.39903 0.0843847 0)
(5.39776 0.0691775 0)
(5.39744 0.0570066 0)
(5.39775 0.0471807 0)
(5.39842 0.039209 0)
(5.39926 0.032731 0)
(5.40018 0.0274588 0)
(5.40106 0.023186 0)
(5.40199 0.0197276 0)
(5.40268 0.0169976 0)
(5.40371 0.0147832 0)
(5.4039 0.0132508 0)
(5.40572 0.0117688 0)
(5.40426 0.0115467 0)
(5.40934 0.00979007 0)
(5.4019 0.012372 0)
(5.41868 0.00686317 0)
(5.39075 0.0186814 0)
(5.44546 -0.0032198 0)
(5.35381 0.0406099 0)
(5.51971 -0.0389374 0)
(5.25198 0.105933 0)
(5.70558 -0.145306 0)
(5.02044 0.274336 0)
(6.0978 -0.39687 0)
(4.62303 0.627664 0)
(6.71274 -0.818739 0)
(4.22416 1.13103 0)
(7.24017 -1.20934 0)
(4.20649 1.41238 0)
(7.1766 -1.32934 0)
(4.69479 1.32218 0)
(6.43497 -1.28914 0)
(5.42395 1.20677 0)
(5.67982 -1.06581 0)
(5.67132 1.14222 0)
(5.62035 -0.919828 0)
(5.50092 1.3664 0)
(5.73896 -1.10682 0)
(5.65642 1.39408 0)
(5.97524 -0.834148 0)
(5.50372 1.2589 0)
(6.67919 -0.655697 0)
(5.57357 1.51268 0)
(6.9917 -0.604909 0)
(6.03697 1.51052 0)
(7.70847 -0.21971 0)
(6.23917 1.7396 0)
(8.18626 0.128138 0)
(6.68629 1.92041 0)
(8.25038 0.618736 0)
(6.3962 2.33663 0)
(7.3814 0.896961 0)
(5.15609 2.79161 0)
(6.16091 0.742784 0)
(4.74492 3.68548 0)
(8.70252 1.94937 0)
(5.81979 5.54556 0)
(11.1878 2.88719 0)
(7.79388 9.71211 0)
(11.2685 -0.162186 0)
(11.2922 0.0470514 0)
(11.2657 -0.0698809 0)
(11.3289 -0.358762 0)
(11.5884 -0.0924935 0)
(11.3394 0.728411 0)
(11.7552 0.489279 0)
(12.0599 -0.643434 0)
(11.765 -0.50758 0)
(12.4956 -0.179576 0)
(13.7801 -1.17767 0)
(14.5758 -2.50619 0)
(14.2079 -3.4102 0)
(14.0753 -3.64938 0)
(13.9952 -3.8257 0)
(14.217 -4.17427 0)
(14.1121 -4.54533 0)
(13.644 -4.94003 0)
(13.5288 -5.17877 0)
(13.3155 -5.04087 0)
(13.5109 -4.01257 0)
(13.1307 -2.8927 0)
(12.3322 -1.79385 0)
(11.5193 -0.491357 0)
(10.2776 0.441559 0)
(9.04993 0.923304 0)
(8.08504 1.10104 0)
(7.17852 1.04858 0)
(6.34937 0.938472 0)
(5.74411 0.852584 0)
(5.4121 0.749738 0)
(5.29493 0.615964 0)
(5.29222 0.484436 0)
(5.32429 0.379428 0)
(5.35412 0.301956 0)
(5.37326 0.243915 0)
(5.38356 0.198316 0)
(5.38835 0.161278 0)
(5.3902 0.130917 0)
(5.39086 0.106146 0)
(5.39129 0.08615 0)
(5.39193 0.0701455 0)
(5.39288 0.0573643 0)
(5.39409 0.0471435 0)
(5.39545 0.0389471 0)
(5.39685 0.0323576 0)
(5.39822 0.0270481 0)
(5.39946 0.022774 0)
(5.40071 0.0193374 0)
(5.40166 0.0166224 0)
(5.40293 0.0144491 0)
(5.40328 0.0128933 0)
(5.40536 0.0114969 0)
(5.40384 0.0111077 0)
(5.40953 0.00963679 0)
(5.40122 0.011588 0)
(5.42011 0.00708075 0)
(5.38831 0.0168617 0)
(5.45061 -0.00188485 0)
(5.34491 0.0360202 0)
(5.5355 -0.0347525 0)
(5.22442 0.0943152 0)
(5.74691 -0.135383 0)
(4.94994 0.246941 0)
(6.1856 -0.382157 0)
(4.48114 0.582631 0)
(6.83989 -0.829693 0)
(4.04842 1.12594 0)
(7.25221 -1.32183 0)
(4.25723 1.52285 0)
(6.75177 -1.57208 0)
(5.12557 1.50218 0)
(5.7201 -1.55794 0)
(5.73502 1.37204 0)
(5.39856 -1.23878 0)
(5.66796 1.25782 0)
(5.74348 -1.06138 0)
(5.43852 1.46834 0)
(6.159 -1.31867 0)
(5.48894 1.57679 0)
(6.42971 -1.08649 0)
(5.52411 1.37469 0)
(6.88665 -0.895383 0)
(5.43504 1.75314 0)
(7.10965 -1.09154 0)
(5.87601 1.77814 0)
(7.69464 -0.642297 0)
(5.95587 1.97291 0)
(8.52413 -0.548514 0)
(6.69999 2.20196 0)
(9.54803 0.0974165 0)
(7.08038 2.66186 0)
(10.4384 0.758139 0)
(6.75976 3.20481 0)
(10.2898 1.42508 0)
(4.50097 3.98967 0)
(9.47872 1.70145 0)
(4.15408 6.07958 0)
(10.6627 1.5103 0)
(8.90219 8.85915 0)
(12.5265 -0.181069 0)
(12.5477 0.0657831 0)
(12.322 -0.108679 0)
(12.5422 -0.550412 0)
(12.7595 -0.134789 0)
(12.5952 0.718375 0)
(13.3546 0.416166 0)
(13.3672 -0.608945 0)
(12.8186 -0.644363 0)
(13.6758 -0.51958 0)
(14.6809 -1.45345 0)
(15.2009 -2.46039 0)
(14.5104 -3.16673 0)
(14.3827 -3.55576 0)
(14.3649 -3.87156 0)
(14.1786 -4.19947 0)
(14.0286 -4.53349 0)
(13.6161 -4.91294 0)
(13.7173 -5.03839 0)
(13.3424 -4.96406 0)
(13.2363 -4.08691 0)
(13.0261 -2.74757 0)
(12.3083 -1.44001 0)
(11.3612 -0.0631191 0)
(10.1267 0.935366 0)
(8.93384 1.38507 0)
(7.95098 1.49338 0)
(7.04635 1.40727 0)
(6.22891 1.24443 0)
(5.63286 1.0566 0)
(5.32394 0.844895 0)
(5.23939 0.639766 0)
(5.26218 0.479008 0)
(5.30563 0.368133 0)
(5.33687 0.291452 0)
(5.35451 0.234498 0)
(5.3645 0.189755 0)
(5.37091 0.153803 0)
(5.37554 0.124873 0)
(5.37921 0.101626 0)
(5.38232 0.0829335 0)
(5.38509 0.0678905 0)
(5.38765 0.0557491 0)
(5.39005 0.0459309 0)
(5.39228 0.0379845 0)
(5.39433 0.0315538 0)
(5.39621 0.0263568 0)
(5.39786 0.0221673 0)
(5.39943 0.0188062 0)
(5.40065 0.0161355 0)
(5.40216 0.0140286 0)
(5.40267 0.0124484 0)
(5.40499 0.01118 0)
(5.40343 0.0105607 0)
(5.40967 0.00953708 0)
(5.40053 0.0105389 0)
(5.42158 0.00770244 0)
(5.38544 0.0141631 0)
(5.4567 0.00105538 0)
(5.33329 0.0286585 0)
(5.55626 -0.0254499 0)
(5.18568 0.0754046 0)
(5.80381 -0.11223 0)
(4.84843 0.205208 0)
(6.30044 -0.342123 0)
(4.28625 0.521835 0)
(6.98952 -0.819196 0)
(3.80794 1.14476 0)
(7.32584 -1.48374 0)
(4.169 1.77923 0)
(6.59585 -1.93292 0)
(5.25475 1.85942 0)
(5.54631 -1.84382 0)
(5.68581 1.57325 0)
(5.68148 -1.35019 0)
(5.25256 1.39061 0)
(6.27961 -1.21438 0)
(5.10747 1.67312 0)
(6.40973 -1.57358 0)
(5.28613 1.75361 0)
(6.50444 -1.28474 0)
(5.15705 1.50602 0)
(7.04326 -1.17243 0)
(5.15302 1.98296 0)
(7.18168 -1.38566 0)
(5.40227 1.92503 0)
(8.00363 -0.954968 0)
(5.21763 2.24082 0)
(8.95845 -1.02451 0)
(5.52001 2.42244 0)
(10.7476 -0.532403 0)
(5.78093 2.82075 0)
(12.8673 -0.0983743 0)
(6.66166 3.31217 0)
(14.9153 0.772018 0)
(6.80291 4.41437 0)
(14.2116 1.24369 0)
(6.89688 6.27854 0)
(10.377 1.23194 0)
(8.57947 8.21512 0)
(13.2003 -0.235025 0)
(13.2985 0.0472359 0)
(13.1067 -0.119972 0)
(13.1756 -0.697179 0)
(13.1947 -0.190499 0)
(13.1521 0.571497 0)
(14.112 0.260249 0)
(14.0634 -0.515202 0)
(13.5061 -0.754611 0)
(14.389 -0.860883 0)
(14.9967 -1.65708 0)
(15.1508 -2.39138 0)
(14.4122 -3.00477 0)
(14.3045 -3.60723 0)
(14.3555 -3.95336 0)
(13.9997 -4.13388 0)
(14.1427 -4.4494 0)
(13.8469 -4.90191 0)
(14.0398 -4.94492 0)
(13.5521 -4.73888 0)
(12.9392 -3.9071 0)
(12.4064 -2.58416 0)
(11.7973 -1.12724 0)
(10.9939 0.345082 0)
(9.7901 1.35254 0)
(8.64841 1.78654 0)
(7.75591 1.86383 0)
(6.86671 1.75266 0)
(6.03986 1.53429 0)
(5.49352 1.23645 0)
(5.26311 0.910027 0)
(5.24387 0.635061 0)
(5.30251 0.453439 0)
(5.35188 0.348539 0)
(5.37049 0.284216 0)
(5.37104 0.236467 0)
(5.36779 0.196119 0)
(5.36678 0.161073 0)
(5.36856 0.131119 0)
(5.37194 0.10612 0)
(5.37584 0.0856703 0)
(5.37968 0.0692036 0)
(5.38324 0.0560847 0)
(5.38646 0.0456764 0)
(5.38938 0.0374258 0)
(5.39197 0.0308733 0)
(5.3943 0.0256573 0)
(5.39632 0.0214952 0)
(5.3982 0.0181905 0)
(5.39967 0.0155609 0)
(5.4014 0.0135327 0)
(5.40209 0.0119247 0)
(5.4046 0.0108233 0)
(5.4031 0.0099083 0)
(5.40965 0.00950663 0)
(5.40012 0.00919117 0)
(5.42241 0.0088395 0)
(5.38373 0.0103358 0)
(5.46044 0.00616957 0)
(5.32591 0.0174408 0)
(5.56882 -0.00911801 0)
(5.16152 0.0463454 0)
(5.8331 -0.0721272 0)
(4.79313 0.144666 0)
(6.3337 -0.274164 0)
(4.21103 0.435828 0)
(6.96268 -0.776318 0)
(3.77621 1.11613 0)
(7.16561 -1.59208 0)
(4.28068 1.92748 0)
(6.2557 -2.13819 0)
(5.48331 2.02771 0)
(5.19858 -1.90648 0)
(5.7576 1.58262 0)
(5.48891 -1.33112 0)
(5.15389 1.38843 0)
(5.97787 -1.34051 0)
(5.17495 1.77978 0)
(5.67391 -1.81552 0)
(5.42615 1.92642 0)
(5.79853 -1.48509 0)
(5.12655 1.61079 0)
(6.16781 -1.32466 0)
(5.16525 2.18707 0)
(6.09319 -1.69299 0)
(5.15409 2.11492 0)
(6.73191 -1.1044 0)
(4.86804 2.4438 0)
(7.06509 -1.33977 0)
(4.88274 2.6788 0)
(8.13435 -0.81573 0)
(4.56561 3.26485 0)
(9.22879 -0.765196 0)
(5.25928 3.73729 0)
(11.676 -0.126744 0)
(7.05351 4.812 0)
(13.2216 0.465128 0)
(9.0009 6.3425 0)
(13.2692 1.77751 0)
(9.36218 7.19681 0)
(13.1395 -0.259568 0)
(13.2453 0.0184938 0)
(13.6537 -0.0836893 0)
(13.4901 -0.605808 0)
(13.0331 -0.166904 0)
(13.109 0.339865 0)
(14.0068 0.0827661 0)
(14.1751 -0.397223 0)
(13.983 -0.819678 0)
(14.5756 -1.11604 0)
(14.6054 -1.72419 0)
(14.4919 -2.27611 0)
(14.1466 -2.9146 0)
(14.0407 -3.63838 0)
(13.9672 -3.88767 0)
(13.6391 -4.10197 0)
(14.15 -4.54703 0)
(13.9189 -4.96916 0)
(13.8188 -4.85414 0)
(13.0661 -4.50953 0)
(12.2923 -3.59811 0)
(11.5045 -2.22722 0)
(10.7808 -0.82593 0)
(10.1526 0.712547 0)
(9.1245 1.82957 0)
(8.14169 2.21408 0)
(7.31059 2.22272 0)
(6.54677 2.0975 0)
(5.93283 1.81942 0)
(5.50215 1.40781 0)
(5.29867 0.973714 0)
(5.29178 0.638795 0)
(5.36657 0.444012 0)
(5.42789 0.344049 0)
(5.44512 0.282085 0)
(5.43135 0.23096 0)
(5.40809 0.185824 0)
(5.38845 0.148105 0)
(5.37664 0.118266 0)
(5.37192 0.095251 0)
(5.37202 0.0774263 0)
(5.37472 0.06336 0)
(5.37849 0.0520684 0)
(5.38242 0.0429129 0)
(5.38612 0.0354658 0)
(5.3894 0.0294119 0)
(5.39228 0.0245131 0)
(5.39474 0.0205577 0)
(5.39695 0.0174036 0)
(5.3987 0.0148655 0)
(5.40064 0.0129467 0)
(5.40154 0.0113242 0)
(5.40416 0.0104141 0)
(5.40288 0.00918188 0)
(5.40939 0.00948445 0)
(5.40019 0.00768867 0)
(5.4222 0.0102032 0)
(5.38399 0.00598558 0)
(5.46031 0.012258 0)
(5.32564 0.00463344 0)
(5.56919 0.0100445 0)
(5.15836 0.0142613 0)
(5.83267 -0.0268354 0)
(4.78359 0.0834976 0)
(6.32034 -0.201635 0)
(4.19312 0.359381 0)
(6.9143 -0.728393 0)
(3.73824 1.10398 0)
(7.08546 -1.69256 0)
(4.22996 2.13033 0)
(6.14873 -2.38274 0)
(5.49109 2.27903 0)
(5.19703 -1.9907 0)
(5.65932 1.62717 0)
(5.65634 -1.31065 0)
(4.98261 1.45896 0)
(6.16503 -1.52564 0)
(5.09985 2.01921 0)
(5.88559 -2.02768 0)
(5.30855 1.97289 0)
(6.28994 -1.54017 0)
(4.90712 1.75245 0)
(6.52443 -1.65462 0)
(5.218 2.34833 0)
(6.43957 -1.91709 0)
(5.06455 2.13077 0)
(7.11995 -1.42133 0)
(4.96447 2.59267 0)
(6.97595 -1.71952 0)
(5.20571 2.61603 0)
(7.48095 -1.16548 0)
(5.03552 3.28282 0)
(7.16586 -1.34702 0)
(5.66906 3.8662 0)
(7.77068 -0.946059 0)
(6.46758 5.42302 0)
(9.42916 -0.327994 0)
(8.05198 6.48124 0)
(12.9592 1.97137 0)
(10.4419 6.65817 0)
(12.8853 -0.181679 0)
(13.117 -0.0885731 0)
(13.7969 -0.203404 0)
(13.2719 -0.390686 0)
(12.896 -0.0530233 0)
(13.2677 0.122365 0)
(13.8191 -0.129755 0)
(14.3456 -0.507747 0)
(14.3564 -0.958734 0)
(14.2219 -1.13634 0)
(13.9793 -1.55305 0)
(13.9764 -2.20079 0)
(14.0245 -2.87796 0)
(13.7472 -3.53958 0)
(13.4206 -3.75717 0)
(13.2435 -4.11665 0)
(13.64 -4.67949 0)
(13.256 -4.91714 0)
(12.95 -4.58554 0)
(11.941 -4.1035 0)
(11.0724 -3.21617 0)
(10.4085 -1.86475 0)
(9.48638 -0.487289 0)
(9.04093 1.00165 0)
(8.39126 2.08146 0)
(7.55709 2.47716 0)
(6.92685 2.50189 0)
(6.4008 2.3437 0)
(5.7628 2.01251 0)
(5.29438 1.51619 0)
(5.18975 0.980699 0)
(5.26087 0.588113 0)
(5.34011 0.391291 0)
(5.37937 0.321424 0)
(5.38587 0.293717 0)
(5.38037 0.264182 0)
(5.37532 0.225356 0)
(5.37305 0.183545 0)
(5.37241 0.14515 0)
(5.37262 0.113157 0)
(5.3736 0.0879659 0)
(5.37547 0.0687264 0)
(5.37811 0.0542164 0)
(5.38125 0.0432744 0)
(5.38455 0.034951 0)
(5.38777 0.0285413 0)
(5.39077 0.0235574 0)
(5.39342 0.019635 0)
(5.39585 0.0165655 0)
(5.39782 0.0141016 0)
(5.39993 0.0122901 0)
(5.40104 0.0106635 0)
(5.40368 0.00994422 0)
(5.40278 0.00841471 0)
(5.40888 0.00941059 0)
(5.40079 0.00616096 0)
(5.42084 0.0115526 0)
(5.38652 0.00155137 0)
(5.45571 0.0185844 0)
(5.33386 -0.00872322 0)
(5.55499 0.0306311 0)
(5.18149 -0.0201923 0)
(5.79485 0.0238796 0)
(4.83863 0.0156329 0)
(6.23331 -0.113012 0)
(4.30052 0.265653 0)
(6.74248 -0.637849 0)
(3.89562 1.02932 0)
(6.82251 -1.69605 0)
(4.32872 2.1772 0)
(5.95752 -2.47825 0)
(5.51257 2.34257 0)
(5.15101 -1.92311 0)
(5.64952 1.5351 0)
(5.5746 -1.20626 0)
(4.96249 1.45838 0)
(5.99472 -1.65627 0)
(5.15321 2.1761 0)
(5.56946 -2.25043 0)
(5.36463 2.11246 0)
(5.73012 -1.69099 0)
(4.98703 1.8819 0)
(5.86561 -1.90181 0)
(5.21862 2.5982 0)
(5.85473 -2.13434 0)
(4.99094 2.2791 0)
(6.4383 -1.65814 0)
(4.93738 2.91573 0)
(6.37105 -2.17705 0)
(5.20187 2.81919 0)
(7.0793 -1.51175 0)
(5.13884 3.66807 0)
(7.12642 -1.95436 0)
(5.92134 3.96207 0)
(7.7473 -1.53555 0)
(6.82872 5.32125 0)
(8.47794 -0.807161 0)
(7.49289 5.94717 0)
(10.5795 1.22516 0)
(10.7879 6.01441 0)
(13.1289 -0.203985 0)
(12.9993 -0.230859 0)
(12.9165 -0.0816506 0)
(13.1605 -0.178807 0)
(13.952 -0.228406 0)
(13.9899 -0.173741 0)
(13.5503 -0.310703 0)
(13.8071 -0.558671 0)
(13.9215 -0.857431 0)
(13.9454 -1.01689 0)
(14.0784 -1.484 0)
(14.0302 -2.19406 0)
(13.8165 -2.81814 0)
(13.3229 -3.36021 0)
(12.9279 -3.68031 0)
(12.8684 -4.13847 0)
(12.7394 -4.61958 0)
(11.8534 -4.69587 0)
(11.2429 -4.24544 0)
(10.1851 -3.70759 0)
(9.26987 -2.81029 0)
(8.8532 -1.49138 0)
(8.05049 -0.288193 0)
(7.73451 1.13603 0)
(7.28008 2.37536 0)
(6.59848 2.81714 0)
(6.14592 2.72273 0)
(5.6502 2.55404 0)
(5.24709 2.23431 0)
(5.34629 1.62709 0)
(5.61384 0.993761 0)
(5.6413 0.586246 0)
(5.45831 0.39873 0)
(5.2639 0.319261 0)
(5.16076 0.268236 0)
(5.1446 0.220132 0)
(5.1764 0.175625 0)
(5.22342 0.138923 0)
(5.26804 0.110757 0)
(5.30389 0.0893412 0)
(5.33042 0.0726263 0)
(5.3493 0.0592204 0)
(5.3626 0.0483398 0)
(5.37207 0.0395115 0)
(5.37901 0.0323864 0)
(5.38427 0.0266639 0)
(5.38843 0.0220942 0)
(5.39178 0.0184389 0)
(5.39463 0.0155624 0)
(5.39692 0.0132279 0)
(5.39921 0.0115451 0)
(5.40058 0.00994507 0)
(5.40317 0.00939983 0)
(5.40278 0.00764437 0)
(5.40815 0.00921409 0)
(5.40184 0.00477525 0)
(5.41851 0.0125545 0)
(5.39099 -0.00228926 0)
(5.44725 0.0238344 0)
(5.34943 -0.0202729 0)
(5.52801 0.0482668 0)
(5.22768 -0.0502872 0)
(5.72421 0.068098 0)
(4.9498 -0.0435323 0)
(6.08706 -0.034675 0)
(4.50319 0.188534 0)
(6.50747 -0.554319 0)
(4.13195 0.970411 0)
(6.58215 -1.68363 0)
(4.35003 2.22559 0)
(5.98472 -2.57088 0)
(5.30007 2.44546 0)
(5.25918 -1.90343 0)
(5.5711 1.44362 0)
(5.43705 -1.12175 0)
(4.98514 1.4568 0)
(5.84217 -1.79825 0)
(5.15215 2.35555 0)
(5.52094 -2.25481 0)
(5.36221 2.07345 0)
(5.69425 -1.63252 0)
(4.9914 1.95432 0)
(5.87516 -2.09797 0)
(5.21274 2.69848 0)
(5.95102 -2.25752 0)
(4.99977 2.3602 0)
(6.26951 -1.97017 0)
(5.09674 3.08855 0)
(6.23906 -2.42686 0)
(5.21733 3.00904 0)
(6.50454 -1.91093 0)
(5.5515 3.91229 0)
(6.52787 -2.30618 0)
(6.03466 4.113 0)
(6.97409 -1.73612 0)
(6.82641 5.28551 0)
(7.54797 -0.598028 0)
(7.47358 5.51644 0)
(8.39657 0.783279 0)
(10.2729 5.25471 0)
(13.1049 -0.037972 0)
(12.7229 0.102258 0)
(13.0515 -0.286422 0)
(13.9547 -0.762406 0)
(14.0083 -0.328981 0)
(13.3691 0.18141 0)
(13.0271 -0.130043 0)
(13.2309 -0.639854 0)
(13.6141 -1.02692 0)
(14.004 -1.25422 0)
(14.0818 -1.52266 0)
(13.7585 -1.96676 0)
(13.4359 -2.58746 0)
(13.0961 -3.1848 0)
(12.7785 -3.58296 0)
(12.3831 -4.05099 0)
(11.5336 -4.3347 0)
(10.1664 -4.27553 0)
(9.29168 -3.80781 0)
(8.18253 -3.21928 0)
(7.37945 -2.43367 0)
(7.09494 -1.19126 0)
(6.31451 -0.0103878 0)
(6.04663 1.33965 0)
(5.99722 2.50721 0)
(5.81273 2.89192 0)
(5.45498 2.86771 0)
(5.0152 2.74033 0)
(5.0835 2.23604 0)
(5.51358 1.48489 0)
(5.74275 0.931441 0)
(5.70888 0.671713 0)
(5.60717 0.549135 0)
(5.54653 0.450255 0)
(5.52353 0.354122 0)
(5.50538 0.270274 0)
(5.47674 0.204455 0)
(5.44183 0.155573 0)
(5.41047 0.119699 0)
(5.38851 0.0931175 0)
(5.37654 0.0731553 0)
(5.37224 0.0579953 0)
(5.37273 0.0463772 0)
(5.37568 0.0373995 0)
(5.37959 0.0304087 0)
(5.38362 0.0249195 0)
(5.38739 0.0205933 0)
(5.39072 0.0171555 0)
(5.39369 0.0144661 0)
(5.39616 0.0122746 0)
(5.39855 0.0107237 0)
(5.40017 0.00918106 0)
(5.40266 0.00877587 0)
(5.40285 0.00689749 0)
(5.40728 0.00884879 0)
(5.4032 0.0036395 0)
(5.41547 0.0130005 0)
(5.39687 -0.00512914 0)
(5.43583 0.0272785 0)
(5.37078 -0.0288569 0)
(5.49011 0.0611597 0)
(5.294 -0.0742239 0)
(5.62052 0.103984 0)
(5.11767 -0.0963718 0)
(5.86629 0.0395544 0)
(4.82411 0.104792 0)
(6.15531 -0.441382 0)
(4.5379 0.860285 0)
(6.21078 -1.56312 0)
(4.54021 2.12044 0)
(5.88143 -2.50527 0)
(5.16624 2.4129 0)
(5.28897 -1.81521 0)
(5.60992 1.3101 0)
(5.2687 -0.911784 0)
(5.12529 1.26752 0)
(5.81874 -1.66889 0)
(5.08707 2.42259 0)
(5.50006 -2.26818 0)
(5.43374 2.17793 0)
(5.47853 -1.62937 0)
(5.07914 2.07271 0)
(5.72268 -2.23733 0)
(5.18664 2.84762 0)
(5.74175 -2.3948 0)
(5.07144 2.47399 0)
(5.99889 -2.19628 0)
(5.17742 3.32715 0)
(6.23422 -2.73822 0)
(5.33568 3.18827 0)
(6.41276 -2.27194 0)
(5.79258 4.05248 0)
(6.79706 -2.51028 0)
(6.19655 4.12767 0)
(6.98545 -1.87838 0)
(7.06253 5.01522 0)
(7.59259 -0.646915 0)
(7.91278 4.84226 0)
(8.30652 0.742499 0)
(9.7842 4.27476 0)
(13.2807 0.0138493 0)
(13.7452 -0.0774499 0)
(13.6098 -0.531635 0)
(12.7675 -0.456232 0)
(12.8973 0.0691711 0)
(13.5742 0.0899967 0)
(13.4112 -0.284911 0)
(13.4867 -0.652871 0)
(13.7814 -1.08819 0)
(13.6946 -1.28742 0)
(13.4921 -1.4041 0)
(13.4542 -1.85308 0)
(13.3828 -2.44724 0)
(12.8938 -2.97642 0)
(12.2353 -3.34043 0)
(11.2399 -3.6623 0)
(9.81118 -3.80555 0)
(8.23433 -3.71047 0)
(7.34682 -3.38227 0)
(6.38906 -2.84757 0)
(5.64519 -2.09444 0)
(5.39542 -0.970811 0)
(4.68271 0.119507 0)
(4.51689 1.31403 0)
(4.91681 2.39421 0)
(5.05998 2.93375 0)
(4.7357 3.07417 0)
(4.64824 2.79539 0)
(5.10557 2.07928 0)
(5.47737 1.3508 0)
(5.4849 0.893443 0)
(5.33419 0.648797 0)
(5.21236 0.494376 0)
(5.15849 0.38119 0)
(5.15102 0.300613 0)
(5.1689 0.243758 0)
(5.19983 0.199439 0)
(5.23546 0.161057 0)
(5.26986 0.127209 0)
(5.29966 0.098656 0)
(5.32364 0.0758779 0)
(5.34207 0.0584739 0)
(5.35593 0.0454902 0)
(5.36632 0.0358639 0)
(5.37423 0.028677 0)
(5.38037 0.0232341 0)
(5.38528 0.0190614 0)
(5.38926 0.0158062 0)
(5.39262 0.0132935 0)
(5.39537 0.0112536 0)
(5.39791 0.00983207 0)
(5.39979 0.00837913 0)
(5.40216 0.00806938 0)
(5.40297 0.00619255 0)
(5.40636 0.00828278 0)
(5.40466 0.00283715 0)
(5.41218 0.0127159 0)
(5.40327 -0.006573 0)
(5.42319 0.0280868 0)
(5.39445 -0.0327529 0)
(5.44694 0.0660179 0)
(5.36953 -0.0858923 0)
(5.49736 0.1212 0)
(5.31496 -0.126962 0)
(5.59322 0.0867194 0)
(5.21134 0.0412016 0)
(5.72945 -0.341188 0)
(5.01935 0.75585 0)
(5.84687 -1.41568 0)
(4.72919 2.00306 0)
(5.92017 -2.39804 0)
(4.8528 2.40284 0)
(5.56355 -1.75945 0)
(5.41302 1.21867 0)