/*--------------------------------*- C++ -*----------------------------------*\
| =========                 |                                                 |
| \\      /  F ield         | OpenFOAM: The Open Source CFD Toolbox           |
|  \\    /   O peration     | Version:  2.4.0                                 |
|   \\  /    A nd           | Web:      www.OpenFOAM.org                      |
|    \\/     M anipulation  |                                                 |
\*---------------------------------------------------------------------------*/
FoamFile
{
    version     2.0;
    format      ascii;
    class       surfaceScalarField;
    location    "0.243";
    object      phi;
}
// * * * * * * * * * * * * * * * * * * * * * * * * * * * * * * * * * * * * * //

dimensions      [0 3 -1 0 0 0 0];

internalField   nonuniform List<scalar> 
34880
(
5.4888e-06
7.0112e-06
3.12633e-06
2.36247e-06
2.46996e-06
6.56368e-07
2.2224e-06
2.47563e-07
2.07216e-06
1.5024e-07
1.97197e-06
1.00189e-07
1.89046e-06
8.1511e-08
1.82035e-06
7.01118e-08
1.78083e-06
3.95181e-08
1.75523e-06
2.56013e-08
1.71198e-06
4.32523e-08
1.72401e-06
-1.20349e-08
1.69037e-06
3.36476e-08
1.70428e-06
-1.3913e-08
1.74646e-06
-4.21845e-08
1.78491e-06
-3.84447e-08
1.8513e-06
-6.6392e-08
2.0903e-06
-2.39002e-07
2.08636e-06
3.93938e-09
-1.54059e-06
3.62695e-06
1.01134e-05
9.3978e-06
7.83174e-06
4.64413e-06
6.70699e-06
1.78111e-06
6.06738e-06
8.8718e-07
5.64212e-06
5.75499e-07
5.3568e-06
3.85506e-07
5.12789e-06
3.10416e-07
4.94396e-06
2.54049e-07
4.82456e-06
1.58915e-07
4.72593e-06
1.24232e-07
4.63272e-06
1.36464e-07
4.60906e-06
1.16205e-08
4.53355e-06
1.09159e-07
4.55869e-06
-3.90505e-08
4.57579e-06
-5.92844e-08
4.67987e-06
-1.42532e-07
4.75954e-06
-1.46059e-07
5.2471e-06
-7.26562e-07
5.54056e-06
-2.89516e-07
-2.26153e-06
6.2615e-06
1.24295e-05
9.46827e-06
1.10058e-05
6.06789e-06
9.97819e-06
2.8087e-06
9.20548e-06
1.65989e-06
8.61508e-06
1.1659e-06
8.19866e-06
8.01928e-07
7.86309e-06
6.45984e-07
7.59215e-06
5.2499e-07
7.40757e-06
3.43497e-07
7.24507e-06
2.8673e-07
7.1127e-06
2.68832e-07
7.0474e-06
7.69255e-08
6.93813e-06
2.18432e-07
6.96128e-06
-6.22043e-08
6.93163e-06
-2.96381e-08
7.07242e-06
-2.8332e-07
7.13814e-06
-2.11781e-07
7.66641e-06
-1.25483e-06
8.31498e-06
-9.38088e-07
-2.63477e-06
8.68823e-06
1.34172e-05
8.55109e-06
1.28915e-05
6.59356e-06
1.23259e-05
3.3743e-06
1.1719e-05
2.26681e-06
1.11288e-05
1.75609e-06
1.06681e-05
1.26263e-06
1.0278e-05
1.03604e-06
9.95461e-06
8.48416e-07
9.72793e-06
5.70185e-07
9.51696e-06
4.97698e-07
9.35578e-06
4.30006e-07
9.25721e-06
1.75497e-07
9.11329e-06
3.62352e-07
9.13391e-06
-8.28212e-08
9.06267e-06
4.15954e-08
9.19047e-06
-4.11116e-07
9.28553e-06
-3.06844e-07
9.6987e-06
-1.668e-06
1.05411e-05
-1.78048e-06
-3.51199e-06
1.14183e-05
1.35951e-05
7.45601e-06
1.36632e-05
6.52548e-06
1.36267e-05
3.41076e-06
1.34037e-05
2.48984e-06
1.30118e-05
2.14798e-06
1.2636e-05
1.63843e-06
1.22754e-05
1.39665e-06
1.19563e-05
1.16753e-06
1.17275e-05
7.98926e-07
1.14957e-05
7.29463e-07
1.13264e-05
5.99328e-07
1.12133e-05
2.88638e-07
1.10401e-05
5.35582e-07
1.10608e-05
-1.03613e-07
1.09753e-05
1.27181e-07
1.10422e-05
-4.78066e-07
1.12034e-05
-4.67995e-07
1.14702e-05
-1.93486e-06
1.22541e-05
-2.56439e-06
-5.09032e-06
1.38325e-05
1.3484e-05
6.47197e-06
1.37552e-05
6.25434e-06
1.40073e-05
3.15865e-06
1.41471e-05
2.35003e-06
1.40728e-05
2.22227e-06
1.39141e-05
1.79711e-06
1.36922e-05
1.61854e-06
1.3464e-05
1.39581e-06
1.32951e-05
9.67813e-07
1.30879e-05
9.3667e-07
1.29422e-05
7.45008e-07
1.28487e-05
3.8214e-07
1.26602e-05
7.24038e-07
1.26853e-05
-1.28689e-07
1.26263e-05
1.86136e-07
1.26123e-05
-4.64039e-07
1.28227e-05
-6.7843e-07
1.30129e-05
-2.12503e-06
1.36062e-05
-3.15769e-06
-6.85672e-06
1.53726e-05
1.33564e-05
5.61561e-06
1.36895e-05
5.92123e-06
1.3954e-05
2.89409e-06
1.42259e-05
2.07818e-06
1.43759e-05
2.07226e-06
1.4433e-05
1.73997e-06
1.43915e-05
1.66012e-06
1.43264e-05
1.4609e-06
1.42872e-05
1.007e-06
1.41665e-05
1.05731e-06
1.40883e-05
8.23276e-07
1.40685e-05
4.01924e-07
1.38934e-05
8.99146e-07
1.3929e-05
-1.64351e-07
1.39365e-05
1.78644e-07
1.38742e-05
-4.01722e-07
1.40718e-05
-8.75974e-07
1.42621e-05
-2.31538e-06
1.47175e-05
-3.61304e-06
-8.29999e-06
1.61607e-05
1.32597e-05
4.85591e-06
1.36557e-05
5.52526e-06
1.38298e-05
2.71993e-06
1.41e-05
1.80802e-06
1.43145e-05
1.85776e-06
1.44826e-05
1.57182e-06
1.45263e-05
1.6165e-06
1.45776e-05
1.40959e-06
1.46695e-05
9.15126e-07
1.46496e-05
1.07719e-06
1.46563e-05
8.1652e-07
1.47625e-05
2.9571e-07
1.46425e-05
1.0192e-06
1.46986e-05
-2.20489e-07
1.47985e-05
7.87232e-08
1.4766e-05
-3.69212e-07
1.49107e-05
-1.02067e-06
1.51133e-05
-2.51795e-06
1.55239e-05
-4.02362e-06
-7.45631e-06
1.46802e-05
1.32001e-05
4.15578e-06
1.35806e-05
5.14476e-06
1.37187e-05
2.5819e-06
1.39724e-05
1.55424e-06
1.41654e-05
1.66484e-06
1.43959e-05
1.34128e-06
1.4459e-05
1.55338e-06
1.45304e-05
1.33823e-06
1.46999e-05
7.45562e-07
1.47177e-05
1.05939e-06
1.47511e-05
7.83185e-07
1.49606e-05
8.61802e-08
1.49038e-05
1.07597e-06
1.49732e-05
-2.89839e-07
1.51504e-05
-9.85112e-08
1.52077e-05
-4.26527e-07
1.53302e-05
-1.14311e-06
1.54964e-05
-2.68414e-06
1.59517e-05
-4.47899e-06
-7.91579e-06
1.64112e-05
1.31613e-05
3.49446e-06
1.35449e-05
4.76115e-06
1.36515e-05
2.47536e-06
1.3876e-05
1.32973e-06
1.40283e-05
1.51254e-06
1.42936e-05
1.07599e-06
1.43548e-05
1.4921e-06
1.44335e-05
1.25952e-06
1.46356e-05
5.43554e-07
1.46598e-05
1.03512e-06
1.46953e-05
7.4776e-07
1.49165e-05
-1.35079e-07
1.48944e-05
1.09811e-06
1.49556e-05
-3.51061e-07
1.51469e-05
-2.89829e-07
1.52699e-05
-5.495e-07
1.54193e-05
-1.29253e-06
1.55534e-05
-2.81826e-06
1.59156e-05
-4.84114e-06
-8.41984e-06
1.64196e-05
1.30887e-05
2.90575e-06
1.3509e-05
4.34087e-06
1.36523e-05
2.33207e-06
1.38072e-05
1.17481e-06
1.39506e-05
1.36919e-06
1.42192e-05
8.07327e-07
1.42458e-05
1.46551e-06
1.43889e-05
1.11642e-06
1.45263e-05
4.06169e-07
1.45846e-05
9.76823e-07
1.46851e-05
6.47256e-07
1.47927e-05
-2.42661e-07
1.48318e-05
1.05898e-06
1.49092e-05
-4.28459e-07
1.50167e-05
-3.97287e-07
1.51757e-05
-7.0856e-07
1.53791e-05
-1.4959e-06
1.5512e-05
-2.95117e-06
1.57176e-05
-5.04677e-06
-8.89507e-06
1.61928e-05
1.29782e-05
2.42756e-06
1.34493e-05
3.86973e-06
1.36558e-05
2.12559e-06
1.37593e-05
1.07136e-06
1.39253e-05
1.20315e-06
1.41378e-05
5.9486e-07
1.42118e-05
1.39148e-06
1.43513e-05
9.76964e-07
1.43932e-05
3.64264e-07
1.45599e-05
8.10112e-07
1.46575e-05
5.49641e-07
1.46415e-05
-2.26705e-07
1.47985e-05
9.01979e-07
1.48829e-05
-5.12845e-07
1.48868e-05
-4.01143e-07
1.50656e-05
-8.87346e-07
1.53094e-05
-1.73972e-06
1.54552e-05
-3.09702e-06
1.55358e-05
-5.12734e-06
-9.24403e-06
1.58848e-05
1.29067e-05
2.02086e-06
1.33995e-05
3.37689e-06
1.36216e-05
1.90352e-06
1.37385e-05
9.54524e-07
1.38991e-05
1.04248e-06
1.40578e-05
4.36229e-07
1.42364e-05
1.21286e-06
1.42656e-05
9.47748e-07
1.43162e-05
3.13687e-07
1.45645e-05
5.61812e-07
1.45638e-05
5.50297e-07
1.45795e-05
-2.4244e-07
1.47791e-05
7.02461e-07
1.48058e-05
-5.39614e-07
1.48233e-05
-4.18582e-07
1.50156e-05
-1.07963e-06
1.52077e-05
-1.93187e-06
1.53755e-05
-3.26481e-06
1.54647e-05
-5.21653e-06
-9.3561e-06
1.55768e-05
1.28897e-05
1.63114e-06
1.33542e-05
2.91242e-06
1.35983e-05
1.65938e-06
1.37321e-05
8.20766e-07
1.38436e-05
9.30938e-07
1.40216e-05
2.58203e-07
1.42101e-05
1.02443e-06
1.42044e-05
9.53458e-07
1.43148e-05
2.03233e-07
1.45055e-05
3.71176e-07
1.44953e-05
5.60504e-07
1.45909e-05
-3.381e-07
1.47366e-05
5.56786e-07
1.47127e-05
-5.15743e-07
1.48211e-05
-5.26975e-07
1.49919e-05
-1.25044e-06
1.51309e-05
-2.07085e-06
1.52922e-05
-3.42615e-06
1.53972e-05
-5.32147e-06
-9.39517e-06
1.54362e-05
1.28682e-05
1.2629e-06
1.33004e-05
2.48029e-06
1.35822e-05
1.37751e-06
1.37044e-05
6.98588e-07
1.37966e-05
8.38763e-07
1.40029e-05
5.19111e-08
1.41245e-05
9.02768e-07
1.42168e-05
8.61165e-07
1.43203e-05
9.97691e-08
1.43977e-05
2.93794e-07
1.44918e-05
4.66434e-07
1.4581e-05
-4.27368e-07
1.46551e-05
4.82718e-07
1.46954e-05
-5.56052e-07
1.48116e-05
-6.43125e-07
1.49406e-05
-1.37946e-06
1.50744e-05
-2.20473e-06
1.52145e-05
-3.56618e-06
1.52938e-05
-5.40084e-06
-9.49426e-06
1.53929e-05
1.28261e-05
9.36789e-07
1.32665e-05
2.03988e-06
1.357e-05
1.07405e-06
1.36566e-05
6.11984e-07
1.37886e-05
7.068e-07
1.39478e-05
-1.07368e-07
1.40642e-05
7.86451e-07
1.42346e-05
6.9074e-07
1.42729e-05
6.14507e-08
1.43369e-05
2.29775e-07
1.45028e-05
3.00517e-07
1.45213e-05
-4.4581e-07
1.45984e-05
4.05613e-07
1.46979e-05
-6.55606e-07
1.47713e-05
-7.16518e-07
1.48677e-05
-1.47581e-06
1.50223e-05
-2.35937e-06
1.51503e-05
-3.69419e-06
1.51822e-05
-5.43272e-06
-9.60358e-06
1.52915e-05
1.27943e-05
6.42465e-07
1.32591e-05
1.5751e-06
1.35364e-05
7.9673e-07
1.36335e-05
5.14875e-07
1.37916e-05
5.48697e-07
1.38776e-05
-1.93357e-07
1.40472e-05
6.16868e-07
1.42104e-05
5.27552e-07
1.4223e-05
4.88028e-08
1.43409e-05
1.1186e-07
1.44809e-05
1.60586e-07
1.44577e-05
-4.22614e-07
1.45962e-05
2.67079e-07
1.46546e-05
-7.13984e-07
1.47384e-05
-8.00361e-07
1.48283e-05
-1.56564e-06
1.49655e-05
-2.49656e-06
1.5071e-05
-3.79975e-06
1.50598e-05
-5.4215e-06
-8.21828e-06
1.36745e-05
1.27878e-05
3.54617e-07
1.32489e-05
1.11401e-06
1.3509e-05
5.36678e-07
1.36439e-05
3.79962e-07
1.3766e-05
4.26594e-07
1.38501e-05
-2.77401e-07
1.4025e-05
4.41912e-07
1.41862e-05
3.66332e-07
1.42176e-05
1.74569e-08
1.4343e-05
-1.35187e-08
1.44253e-05
7.82328e-08
1.44543e-05
-4.51611e-07
1.45811e-05
1.40245e-07
1.4628e-05
-7.6086e-07
1.47311e-05
-9.03439e-07
1.48173e-05
-1.65186e-06
1.4894e-05
-2.57325e-06
1.5011e-05
-3.91676e-06
1.50851e-05
-5.49556e-06
-8.48078e-06
1.53476e-05
1.27867e-05
6.79022e-08
1.3224e-05
6.76727e-07
1.35011e-05
2.59571e-07
1.36468e-05
2.34243e-07
1.37407e-05
3.32729e-07
1.38561e-05
-3.92773e-07
1.40015e-05
2.96517e-07
1.41701e-05
1.97693e-07
1.42421e-05
-5.455e-08
1.43011e-05
-7.25585e-08
1.4414e-05
-3.46672e-08
1.44595e-05
-4.97061e-07
1.45604e-05
3.93209e-08
1.46283e-05
-8.28766e-07
1.47216e-05
-9.96745e-07
1.47825e-05
-1.71269e-06
1.48612e-05
-2.65198e-06
1.49767e-05
-4.03227e-06
1.50718e-05
-5.59063e-06
-8.71777e-06
1.53087e-05
1.2772e-05
-2.04075e-07
1.32018e-05
2.46907e-07
1.34967e-05
-3.52889e-08
1.36406e-05
9.03467e-08
1.37486e-05
2.24694e-07
1.38564e-05
-5.00607e-07
1.39819e-05
1.71015e-07
1.41687e-05
1.09018e-08
1.42424e-05
-1.28196e-07
1.42862e-05
-1.16444e-07
1.44231e-05
-1.71528e-07
1.44446e-05
-5.18526e-07
1.4528e-05
-4.40629e-08
1.4638e-05
-9.3885e-07
1.47038e-05
-1.06253e-06
1.47601e-05
-1.76894e-06
1.48389e-05
-2.73083e-06
1.49409e-05
-4.13426e-06
1.50278e-05
-5.67755e-06
-8.80641e-06
1.51165e-05
1.27601e-05
-4.6418e-07
1.31893e-05
-1.82286e-07
1.34918e-05
-3.37799e-07
1.36562e-05
-7.40485e-08
1.37605e-05
1.20417e-07
1.38475e-05
-5.87651e-07
1.39811e-05
3.74795e-08
1.41766e-05
-1.84687e-07
1.42284e-05
-1.79983e-07
1.43024e-05
-1.90401e-07
1.44194e-05
-2.88519e-07
1.44049e-05
-5.04043e-07
1.45366e-05
-1.7573e-07
1.46414e-05
-1.04369e-06
1.46872e-05
-1.10835e-06
1.4744e-05
-1.82566e-06
1.48316e-05
-2.81845e-06
1.48991e-05
-4.20175e-06
1.49424e-05
-5.72092e-06
-8.93135e-06
1.50674e-05
1.2761e-05
-7.25227e-07
1.31847e-05
-6.05954e-07
1.35096e-05
-6.62675e-07
1.36797e-05
-2.44189e-07
1.37512e-05
4.89833e-08
1.38566e-05
-6.93111e-07
1.40043e-05
-1.10187e-07
1.41692e-05
-3.49547e-07
1.42336e-05
-2.44446e-07
1.43124e-05
-2.69155e-07
1.44106e-05
-3.86772e-07
1.44005e-05
-4.93967e-07
1.45707e-05
-3.45923e-07
1.46307e-05
-1.10363e-06
1.46798e-05
-1.1575e-06
1.47325e-05
-1.8783e-06
1.48302e-05
-2.91619e-06
1.48712e-05
-4.24276e-06
1.48479e-05
-5.69766e-06
-7.66308e-06
1.35797e-05
1.27656e-05
-9.90833e-07
1.32016e-05
-1.04192e-06
1.35416e-05
-1.00267e-06
1.36785e-05
-3.81131e-07
1.3746e-05
-1.85097e-08
1.38912e-05
-8.38324e-07
1.40152e-05
-2.34187e-07
1.41675e-05
-5.01867e-07
1.42557e-05
-3.32606e-07
1.43215e-05
-3.34971e-07
1.44063e-05
-4.71583e-07
1.44509e-05
-5.38582e-07
1.45645e-05
-4.59527e-07
1.46364e-05
-1.17543e-06
1.46689e-05
-1.19008e-06
1.4764e-05
-1.97332e-06
1.48101e-05
-2.96229e-06
1.48606e-05
-4.29332e-06
1.49142e-05
-5.7512e-06
-7.84786e-06
1.50989e-05
1.27822e-05
-1.27304e-06
1.32382e-05
-1.49797e-06
1.35559e-05
-1.32035e-06
1.36605e-05
-4.85709e-07
1.37688e-05
-1.26755e-07
1.39273e-05
-9.96893e-07
1.40239e-05
-3.30773e-07
1.41829e-05
-6.609e-07
1.42886e-05
-4.38243e-07
1.43257e-05
-3.72051e-07
1.44384e-05
-5.8434e-07
1.44692e-05
-5.69413e-07
1.45697e-05
-5.5999e-07
1.46389e-05
-1.24461e-06
1.46896e-05
-1.24078e-06
1.47746e-05
-2.05831e-06
1.47964e-05
-2.98415e-06
1.48748e-05
-4.37165e-06
1.49011e-05
-5.77753e-06
-7.96217e-06
1.50154e-05
1.28146e-05
-1.58766e-06
1.32726e-05
-1.9559e-06
1.3551e-05
-1.59875e-06
1.36687e-05
-6.03455e-07
1.38103e-05
-2.6838e-07
1.39534e-05
-1.14001e-06
1.40457e-05
-4.23029e-07
1.42184e-05
-8.33561e-07
1.4302e-05
-5.21893e-07
1.4351e-05
-4.2107e-07
1.44647e-05
-6.97962e-07
1.44899e-05
-5.9466e-07
1.45808e-05
-6.50849e-07
1.46676e-05
-1.33146e-06
1.47144e-05
-1.28762e-06
1.47697e-05
-2.11354e-06
1.48163e-05
-3.03081e-06
1.4884e-05
-4.43934e-06
1.48489e-05
-5.74237e-06
-8.14717e-06
1.50339e-05
1.28481e-05
-1.93579e-06
1.32935e-05
-2.40129e-06
1.35652e-05
-1.87039e-06
1.37058e-05
-7.44135e-07
1.38479e-05
-4.10481e-07
1.398e-05
-1.27212e-06
1.40878e-05
-5.30757e-07
1.42395e-05
-9.85253e-07
1.43265e-05
-6.08928e-07
1.43844e-05
-4.78963e-07
1.4495e-05
-8.08571e-07
1.45187e-05
-6.18359e-07
1.46124e-05
-7.44572e-07
1.47005e-05
-1.41955e-06
1.47337e-05
-1.32084e-06
1.47804e-05
-2.16026e-06
1.48649e-05
-3.11527e-06
1.48618e-05
-4.43627e-06
1.48068e-05
-5.68729e-06
-8.56666e-06
1.52262e-05
1.28776e-05
-2.31342e-06
1.33288e-05
-2.85244e-06
1.36047e-05
-2.14632e-06
1.37387e-05
-8.78116e-07
1.38762e-05
-5.4798e-07
1.40219e-05
-1.4178e-06
1.41332e-05
-6.42075e-07
1.42627e-05
-1.11476e-06
1.43705e-05
-7.16747e-07
1.4418e-05
-5.26427e-07
1.45372e-05
-9.27805e-07
1.45569e-05
-6.38026e-07
1.46534e-05
-8.41123e-07
1.47289e-05
-1.49498e-06
1.47663e-05
-1.35827e-06
1.48129e-05
-2.2069e-06
1.4888e-05
-3.19035e-06
1.48451e-05
-4.39341e-06
1.47796e-05
-5.62179e-06
-7.5361e-06
1.37491e-05
1.29176e-05
-2.73105e-06
1.33892e-05
-3.32399e-06
1.36069e-05
-2.36404e-06
1.37577e-05
-1.02888e-06
1.39189e-05
-7.09217e-07
1.40777e-05
-1.57659e-06
1.41819e-05
-7.46286e-07
1.4309e-05
-1.24188e-06
1.44139e-05
-8.21623e-07
1.44672e-05
-5.79746e-07
1.45741e-05
-1.03465e-06
1.46161e-05
-6.80061e-07
1.46875e-05
-9.12538e-07
1.47826e-05
-1.59003e-06
1.47959e-05
-1.37163e-06
1.48579e-05
-2.2689e-06
1.4878e-05
-3.21039e-06
1.48651e-05
-4.38054e-06
1.49175e-05
-5.67418e-06
-7.8608e-06
1.52422e-05
1.29755e-05
-3.20652e-06
1.34486e-05
-3.79708e-06
1.3603e-05
-2.51853e-06
1.3788e-05
-1.21386e-06
1.39858e-05
-9.06992e-07
1.41379e-05
-1.72865e-06
1.42469e-05
-8.55264e-07
1.43555e-05
-1.35053e-06
1.44609e-05
-9.27035e-07
1.45129e-05
-6.31701e-07
1.46297e-05
-1.1515e-06
1.46695e-05
-7.19866e-07
1.47446e-05
-9.87576e-07
1.48311e-05
-1.67655e-06
1.48325e-05
-1.37301e-06
1.48813e-05
-2.31775e-06
1.48767e-05
-3.20577e-06
1.49111e-05
-4.41499e-06
1.49519e-05
-5.71494e-06
-8.03193e-06
1.5123e-05
1.30354e-05
-3.74193e-06
1.34974e-05
-4.25909e-06
1.36356e-05
-2.65672e-06
1.3844e-05
-1.42224e-06
1.40658e-05
-1.12875e-06
1.42021e-05
-1.86503e-06
1.4313e-05
-9.66094e-07
1.44014e-05
-1.43897e-06
1.4507e-05
-1.03263e-06
1.45741e-05
-6.9882e-07
1.46898e-05
-1.2672e-06
1.47295e-05
-7.59574e-07
1.48112e-05
-1.0693e-06
1.4865e-05
-1.73028e-06
1.48741e-05
-1.38208e-06
1.48997e-05
-2.34337e-06
1.49056e-05
-3.21173e-06
1.49271e-05
-4.43646e-06
1.48761e-05
-5.66395e-06
-8.04252e-06
1.48867e-05
1.30871e-05
-4.32903e-06
1.35546e-05
-4.72663e-06
1.36971e-05
-2.79914e-06
1.39156e-05
-1.64083e-06
1.41514e-05
-1.36454e-06
1.42644e-05
-1.97802e-06
1.43811e-05
-1.08282e-06
1.44587e-05
-1.51654e-06
1.45639e-05
-1.13778e-06
1.46593e-05
-7.94229e-07
1.47455e-05
-1.35339e-06
1.47938e-05
-8.07921e-07
1.48663e-05
-1.14173e-06
1.4887e-05
-1.75108e-06
1.4905e-05
-1.40004e-06
1.49032e-05
-2.34152e-06
1.48774e-05
-3.18601e-06
1.4776e-05
-4.33501e-06
1.45671e-05
-5.45504e-06
-7.85565e-06
1.43802e-05
1.31447e-05
-4.97372e-06
1.36368e-05
-5.21872e-06
1.37744e-05
-2.93676e-06
1.39935e-05
-1.85992e-06
1.42418e-05
-1.61279e-06
1.43296e-05
-2.06583e-06
1.44683e-05
-1.22153e-06
1.45336e-05
-1.5819e-06
1.46331e-05
-1.23723e-06
1.47386e-05
-8.99744e-07
1.47668e-05
-1.38162e-06
1.48162e-05
-8.57259e-07
1.48569e-05
-1.18249e-06
1.48149e-05
-1.70911e-06
1.48108e-05
-1.39591e-06
1.47215e-05
-2.25219e-06
1.45688e-05
-3.03335e-06
1.42806e-05
-4.04673e-06
1.38706e-05
-5.04511e-06
-7.43857e-06
1.34535e-05
1.32279e-05
-5.70159e-06
1.3721e-05
-5.7118e-06
1.38504e-05
-3.06618e-06
1.40871e-05
-2.09664e-06
1.43462e-05
-1.87194e-06
1.44058e-05
-2.12537e-06
1.45493e-05
-1.36507e-06
1.45695e-05
-1.60211e-06
1.46174e-05
-1.28514e-06
1.46744e-05
-9.56729e-07
1.46055e-05
-1.31273e-06
1.46094e-05
-8.61187e-07
1.45589e-05
-1.13194e-06
1.44133e-05
-1.56356e-06
1.43296e-05
-1.31221e-06
1.41139e-05
-2.03648e-06
1.38113e-05
-2.73074e-06
1.33646e-05
-3.60003e-06
1.27624e-05
-4.44289e-06
-6.13872e-06
1.14625e-05
1.3336e-05
-6.53759e-06
1.37325e-05
-6.1083e-06
1.39414e-05
-3.2751e-06
1.42055e-05
-2.3607e-06
1.44058e-05
-2.07221e-06
1.43732e-05
-2.09283e-06
1.44214e-05
-1.41321e-06
1.43158e-05
-1.49656e-06
1.42345e-05
-1.2038e-06
1.41723e-05
-8.94583e-07
1.39877e-05
-1.12813e-06
1.39054e-05
-7.78885e-07
1.37507e-05
-9.77253e-07
1.3518e-05
-1.33078e-06
1.33535e-05
-1.1477e-06
1.30463e-05
-1.72928e-06
1.26414e-05
-2.32593e-06
1.2094e-05
-3.05258e-06
1.13982e-05
-3.74707e-06
-5.37364e-06
1.06331e-05
1.34651e-05
-7.50273e-06
1.37845e-05
-6.42762e-06
1.39905e-05
-3.48113e-06
1.41375e-05
-2.50771e-06
1.41026e-05
-2.0373e-06
1.38659e-05
-1.85615e-06
1.37139e-05
-1.26119e-06
1.34491e-05
-1.23177e-06
1.32364e-05
-9.91099e-07
1.3067e-05
-7.25133e-07
1.28146e-05
-8.75773e-07
1.26713e-05
-6.35595e-07
1.24582e-05
-7.64177e-07
1.21851e-05
-1.05768e-06
1.19707e-05
-9.33255e-07
1.16158e-05
-1.3744e-06
1.11553e-05
-1.86542e-06
1.05524e-05
-2.44969e-06
9.78197e-06
-2.97663e-06
-4.21502e-06
8.62335e-06
1.35793e-05
-8.58198e-06
1.3683e-05
-6.53141e-06
1.36142e-05
-3.41231e-06
1.33991e-05
-2.29257e-06
1.30338e-05
-1.67201e-06
1.25951e-05
-1.41742e-06
1.22867e-05
-9.52798e-07
1.19374e-05
-8.82501e-07
1.16662e-05
-7.19904e-07
1.14517e-05
-5.10667e-07
1.11893e-05
-6.13385e-07
1.10217e-05
-4.67959e-07
1.07925e-05
-5.3495e-07
1.05132e-05
-7.78427e-07
1.02753e-05
-6.95334e-07
9.90501e-06
-1.00412e-06
9.42521e-06
-1.38563e-06
8.79986e-06
-1.82434e-06
8.01253e-06
-2.1893e-06
-3.15884e-06
6.95634e-06
1.34049e-05
-9.48686e-06
1.29052e-05
-6.03174e-06
1.23182e-05
-2.82534e-06
1.17147e-05
-1.68906e-06
1.11444e-05
-1.10166e-06
1.06334e-05
-9.06427e-07
1.02804e-05
-5.99782e-07
9.93403e-06
-5.36163e-07
9.66632e-06
-4.52189e-07
9.45755e-06
-3.01896e-07
9.22082e-06
-3.76654e-07
9.05476e-06
-3.01905e-07
8.8416e-06
-3.21791e-07
8.57779e-06
-5.14617e-07
8.33926e-06
-4.56801e-07
7.98351e-06
-6.48369e-07
7.51569e-06
-9.17809e-07
6.9057e-06
-1.21435e-06
6.1438e-06
-1.42739e-06
-2.19689e-06
5.18185e-06
1.24205e-05
-9.40738e-06
1.10153e-05
-4.62647e-06
9.97516e-06
-1.78524e-06
9.19902e-06
-9.12927e-07
8.6275e-06
-5.30142e-07
8.16907e-06
-4.47991e-07
7.8583e-06
-2.8902e-07
7.57345e-06
-2.51305e-07
7.34813e-06
-2.26868e-07
7.17999e-06
-1.33757e-07
6.98965e-06
-1.86315e-07
6.84501e-06
-1.57271e-07
6.67184e-06
-1.48621e-07
6.43883e-06
-2.81603e-07
6.22343e-06
-2.414e-07
5.91154e-06
-3.36481e-07
5.48919e-06
-4.95458e-07
4.93582e-06
-6.60986e-07
4.25936e-06
-7.50935e-07
-1.31373e-06
3.3762e-06
1.01072e-05
-7.01453e-06
7.83768e-06
-2.35699e-06
6.70779e-06
-6.55352e-07
6.05709e-06
-2.62229e-07
5.65475e-06
-1.27806e-07
5.33169e-06
-1.24929e-07
5.11974e-06
-7.70753e-08
4.93113e-06
-6.26876e-08
4.77242e-06
-6.81625e-08
4.66765e-06
-2.8984e-08
4.53567e-06
-5.43339e-08
4.42912e-06
-5.0728e-08
4.31522e-06
-3.47198e-08
4.13013e-06
-9.65153e-08
3.96632e-06
-7.75849e-08
3.73177e-06
-1.0193e-07
3.39953e-06
-1.63225e-07
2.9603e-06
-2.21747e-07
2.44675e-06
-2.37388e-07
-5.36865e-07
1.66988e-06
5.48547e-06
3.12848e-06
2.47312e-06
2.2109e-06
2.08309e-06
1.95816e-06
1.88109e-06
1.8184e-06
1.75024e-06
1.72125e-06
1.66692e-06
1.61619e-06
1.58147e-06
1.48495e-06
1.40737e-06
1.30544e-06
1.14221e-06
9.20467e-07
6.8308e-07
1.46214e-07
4.68359e-06
-8.16173e-07
-2.40468e-07
6.67236e-06
1.24283e-06
-3.2316e-06
8.37056e-06
-3.5995e-07
-1.33825e-06
1.00469e-05
-3.0707e-06
1.39437e-06
1.14785e-05
-5.48802e-06
4.05646e-06
1.23376e-05
-1.06891e-05
9.83e-06
1.30259e-05
-1.33129e-05
1.26245e-05
1.25989e-05
-1.56254e-05
1.60525e-05
1.18496e-05
-1.87143e-05
1.94636e-05
1.07038e-05
-1.77522e-05
1.88981e-05
9.27914e-06
-1.78105e-05
1.92352e-05
8.28107e-06
-1.38803e-05
1.48784e-05
7.40191e-06
-1.08871e-05
1.17662e-05
7.05586e-06
-1.05931e-05
1.09391e-05
7.07176e-06
-7.40654e-06
7.39064e-06
7.00147e-06
-4.355e-06
4.42529e-06
7.09111e-06
-1.10355e-06
1.01391e-06
7.04143e-06
6.91343e-07
-6.41666e-07
6.44249e-06
1.26201e-06
-6.63063e-07
6.53692e-06
4.04453e-06
-4.13896e-06
8.17132e-06
8.48855e-06
-1.01229e-05
1.02993e-05
1.09836e-05
-1.31116e-05
1.15175e-05
1.2216e-05
-1.34342e-05
1.22158e-05
1.30771e-05
-1.37754e-05
1.27751e-05
1.10877e-05
-1.1647e-05
1.27865e-05
9.01695e-06
-9.02836e-06
1.24854e-05
9.16828e-06
-8.86715e-06
1.27274e-05
8.8157e-06
-9.05766e-06
1.34205e-05
7.41962e-06
-8.11276e-06
1.37436e-05
7.93066e-06
-8.25374e-06
1.37302e-05
8.39245e-06
-8.37902e-06
1.38984e-05
6.14443e-06
-6.31264e-06
1.46162e-05
2.27036e-06
-2.98815e-06
1.5103e-05
8.59537e-07
-1.34633e-06
1.55679e-05
-3.71421e-07
-9.34956e-08
1.62367e-05
-6.42912e-06
5.76029e-06
1.6314e-05
-1.30906e-05
1.30133e-05
1.58805e-05
-1.64643e-05
1.68978e-05
1.56986e-05
-1.90417e-05
1.92236e-05
1.57174e-05
-2.26406e-05
2.26217e-05
1.55363e-05
-2.59745e-05
2.61555e-05
1.53818e-05
-2.86739e-05
2.88285e-05
1.5351e-05
-3.1529e-05
3.15599e-05
1.51066e-05
-3.37812e-05
3.40256e-05
1.44734e-05
-3.41559e-05
3.47892e-05
1.36088e-05
-3.29379e-05
3.38025e-05
1.26315e-05
-3.07595e-05
3.17367e-05
1.14465e-05
-2.7971e-05
2.9156e-05
1.00738e-05
-2.46803e-05
2.6053e-05
8.62673e-06
-2.12518e-05
2.26989e-05
7.33843e-06
-1.83896e-05
1.96779e-05
6.52578e-06
-1.61624e-05
1.6975e-05
6.28384e-06
-1.47467e-05
1.49886e-05
6.61574e-06
-1.39003e-05
1.35684e-05
7.30248e-06
-1.33106e-05
1.26239e-05
8.16061e-06
-1.24775e-05
1.16193e-05
9.09622e-06
-1.16378e-05
1.07022e-05
1.00507e-05
-1.02605e-05
9.30601e-06
1.08774e-05
-8.45998e-06
7.63327e-06
1.16542e-05
-6.53547e-06
5.75868e-06
1.23016e-05
-4.41853e-06
3.77111e-06
1.28559e-05
-1.91171e-06
1.35744e-06
1.32947e-05
7.81373e-07
-1.22012e-06
1.34822e-05
3.15625e-06
-3.34382e-06
1.35961e-05
6.17454e-06
-6.28846e-06
1.36503e-05
8.69403e-06
-8.74821e-06
1.34277e-05
1.01443e-05
-9.92164e-06
1.31013e-05
1.2456e-05
-1.21296e-05
1.28171e-05
1.4155e-05
-1.38707e-05
1.25061e-05
1.42957e-05
-1.39847e-05
1.21409e-05
1.56453e-05
-1.52801e-05
1.18964e-05
1.70034e-05
-1.6759e-05
1.17102e-05
1.66e-05
-1.64138e-05
1.1476e-05
1.647e-05
-1.62359e-05
1.12818e-05
1.74644e-05
-1.72702e-05
1.1066e-05
1.75505e-05
-1.73347e-05
1.07808e-05
1.60937e-05
-1.58085e-05
1.04012e-05
1.50078e-05
-1.46282e-05
9.9623e-06
1.48675e-05
-1.44286e-05
9.75941e-06
1.39342e-05
-1.37313e-05
9.83311e-06
1.19247e-05
-1.19984e-05
9.89555e-06
1.11637e-05
-1.12261e-05
9.81222e-06
1.16843e-05
-1.1601e-05
9.70416e-06
1.21575e-05
-1.20494e-05
9.66617e-06
1.20409e-05
-1.20029e-05
9.7239e-06
1.05636e-05
-1.06213e-05
9.91703e-06
8.77171e-06
-8.96483e-06
1.03847e-05
8.41276e-06
-8.8804e-06
1.09965e-05
9.54129e-06
-1.01532e-05
1.14763e-05
1.1263e-05
-1.17428e-05
1.18099e-05
1.26597e-05
-1.29932e-05
1.20674e-05
1.34234e-05
-1.36809e-05
1.22499e-05
1.37835e-05
-1.3966e-05
1.24482e-05
1.36233e-05
-1.38216e-05
1.28426e-05
1.28064e-05
-1.32008e-05
1.33595e-05
1.22061e-05
-1.2723e-05
1.3898e-05
1.1847e-05
-1.23854e-05
1.43122e-05
1.12822e-05
-1.16964e-05
1.45776e-05
1.00675e-05
-1.03329e-05
1.48106e-05
8.85625e-06
-9.08928e-06
1.51305e-05
8.01822e-06
-8.33814e-06
1.54088e-05
7.2752e-06
-7.55342e-06
1.54517e-05
6.578e-06
-6.62095e-06
1.52014e-05
5.58958e-06
-5.33923e-06
1.47428e-05
4.29039e-06
-3.83183e-06
1.41868e-05
2.38728e-06
-1.83131e-06
1.36107e-05
2.73548e-07
3.02623e-07
1.29646e-05
-2.22151e-06
2.86754e-06
1.23235e-05
-5.38879e-06
6.02993e-06
1.17012e-05
-8.42117e-06
9.04341e-06
1.1072e-05
-1.1789e-05
1.24182e-05
1.05451e-05
-1.43376e-05
1.48645e-05
9.79774e-06
-1.69626e-05
1.77099e-05
9.34087e-06
-2.0483e-05
2.09398e-05
9.36522e-06
-2.10902e-05
2.10659e-05
9.48702e-06
-2.00433e-05
1.99215e-05
9.85346e-06
-1.74656e-05
1.70991e-05
9.84274e-06
-1.50036e-05
1.50144e-05
9.36594e-06
-1.65222e-05
1.6999e-05
8.89528e-06
-2.11425e-05
2.16131e-05
8.52741e-06
-2.75199e-05
2.78878e-05
8.42017e-06
-3.14076e-05
3.15149e-05
8.24465e-06
-3.22055e-05
3.2381e-05
8.25426e-06
-3.18869e-05
3.18773e-05
8.31835e-06
-3.02342e-05
3.01701e-05
8.35921e-06
-2.82348e-05
2.81939e-05
8.33204e-06
-2.52291e-05
2.52563e-05
8.05756e-06
-2.10511e-05
2.13256e-05
8.05656e-06
-1.57019e-05
1.57029e-05
8.35136e-06
-1.03501e-05
1.00553e-05
8.55343e-06
-5.23685e-06
5.03478e-06
8.59077e-06
1.22615e-07
-1.59955e-07
8.59927e-06
5.3381e-06
-5.3466e-06
8.55096e-06
1.03282e-05
-1.02799e-05
8.36254e-06
1.55352e-05
-1.53467e-05
8.21835e-06
1.8729e-05
-1.85848e-05
8.15384e-06
1.91181e-05
-1.90536e-05
7.89219e-06
1.98203e-05
-1.95587e-05
7.72399e-06
2.16418e-05
-2.14736e-05
7.69519e-06
2.19292e-05
-2.19004e-05
7.81459e-06
2.04751e-05
-2.05945e-05
7.79901e-06
2.05846e-05
-2.0569e-05
7.66905e-06
2.05609e-05
-2.0431e-05
7.75773e-06
1.92829e-05
-1.93716e-05
7.51054e-06
1.82562e-05
-1.8009e-05
7.42039e-06
1.59027e-05
-1.58126e-05
7.06173e-06
1.58017e-05
-1.54431e-05
7.11157e-06
1.43028e-05
-1.43527e-05
7.2878e-06
1.51192e-05
-1.52954e-05
6.77064e-06
1.59736e-05
-1.54564e-05
6.8862e-06
1.5045e-05
-1.51605e-05
7.00366e-06
1.68518e-05
-1.69692e-05
7.60626e-06
1.60749e-05
-1.66775e-05
8.14337e-06
1.80512e-05
-1.85883e-05
8.3637e-06
1.82446e-05
-1.8465e-05
8.66582e-06
1.88042e-05
-1.91063e-05
9.04342e-06
1.73325e-05
-1.77101e-05
9.32428e-06
1.51766e-05
-1.54574e-05
9.43249e-06
1.2126e-05
-1.22342e-05
9.90307e-06
9.02056e-06
-9.49115e-06
1.0329e-05
4.99821e-06
-5.42417e-06
1.05198e-05
1.67097e-06
-1.86174e-06
1.03806e-05
-5.70212e-07
7.09384e-07
1.01285e-05
-1.22333e-06
1.47547e-06
9.97697e-06
-1.7564e-06
1.90792e-06
9.96065e-06
-3.01484e-06
3.03116e-06
1.02398e-05
-7.22377e-06
6.94461e-06
1.06075e-05
-1.13771e-05
1.10094e-05
1.06641e-05
-1.57986e-05
1.5742e-05
1.0614e-05
-1.81879e-05
1.8238e-05
1.02526e-05
-1.93894e-05
1.97507e-05
9.61633e-06
-1.87563e-05
1.93926e-05
9.12095e-06
-1.99367e-05
2.04321e-05
8.25875e-06
-1.96771e-05
2.05393e-05
7.44611e-06
-2.04437e-05
2.12564e-05
6.73756e-06
-1.78048e-05
1.85133e-05
5.88607e-06
-1.45169e-05
1.53684e-05
5.31828e-06
-1.17967e-05
1.23645e-05
4.93308e-06
-8.14734e-06
8.53254e-06
4.81912e-06
-4.19728e-06
4.31124e-06
4.82349e-06
-9.0411e-07
8.9974e-07
4.98929e-06
1.98887e-06
-2.15467e-06
5.10254e-06
4.43728e-06
-4.55052e-06
5.08882e-06
6.08065e-06
-6.06694e-06
5.20923e-06
7.08786e-06
-7.20827e-06
5.64829e-06
6.82278e-06
-7.26184e-06
6.04837e-06
6.50106e-06
-6.90113e-06
6.32709e-06
6.47216e-06
-6.75089e-06
6.8664e-06
5.61061e-06
-6.14991e-06
7.32072e-06
5.99404e-06
-6.44837e-06
7.59473e-06
6.85037e-06
-7.12438e-06
7.87181e-06
7.19492e-06
-7.472e-06
7.94668e-06
8.63043e-06
-8.7053e-06
8.03042e-06
9.97407e-06
-1.00578e-05
8.0002e-06
1.27226e-05
-1.26924e-05
7.86321e-06
1.57222e-05
-1.55852e-05
7.64627e-06
1.95491e-05
-1.93322e-05
6.96767e-06
2.47143e-05
-2.40357e-05
6.75041e-06
2.91639e-05
-2.89467e-05
4.17693e-05
-4.15243e-05
6.50538e-06
7.34903e-06
-1.9037e-06
9.3216e-06
-7.29748e-07
1.04746e-05
-1.51295e-06
1.18799e-05
-4.47603e-06
1.31132e-05
-6.72127e-06
1.34054e-05
-1.09813e-05
1.36109e-05
-1.35184e-05
1.30557e-05
-1.50702e-05
1.21586e-05
-1.78173e-05
1.0908e-05
-1.65015e-05
9.51821e-06
-1.64208e-05
8.6501e-06
-1.30122e-05
7.7528e-06
-9.98975e-06
7.46549e-06
-1.03058e-05
7.44318e-06
-7.38423e-06
7.11398e-06
-4.0258e-06
7.14627e-06
-1.13583e-06
7.40461e-06
4.32995e-07
6.8919e-06
1.77472e-06
6.85998e-06
4.07645e-06
8.4404e-06
6.90813e-06
1.04425e-05
8.98154e-06
1.16621e-05
1.09964e-05
1.2558e-05
1.21812e-05
1.31425e-05
1.05031e-05
1.30291e-05
9.13037e-06
1.27305e-05
9.46685e-06
1.30933e-05
8.45289e-06
1.37591e-05
6.75383e-06
1.40902e-05
7.59958e-06
1.41211e-05
8.36155e-06
1.44005e-05
5.86504e-06
1.50786e-05
1.59225e-06
1.54278e-05
5.10314e-07
1.59952e-05
-9.38766e-07
1.66632e-05
-7.09719e-06
1.6577e-05
-1.30043e-05
1.60911e-05
-1.59785e-05
1.59627e-05
-1.89133e-05
1.59319e-05
-2.26097e-05
1.56876e-05
-2.57302e-05
1.55484e-05
-2.85347e-05
1.54584e-05
-3.1439e-05
1.50275e-05
-3.33504e-05
1.42312e-05
-3.33597e-05
1.32427e-05
-3.19494e-05
1.20828e-05
-2.95996e-05
1.06595e-05
-2.65476e-05
9.05072e-06
-2.30716e-05
7.50211e-06
-1.97031e-05
6.31521e-06
-1.72027e-05
5.77981e-06
-1.5627e-05
5.86248e-06
-1.48293e-05
6.35762e-06
-1.43954e-05
7.03773e-06
-1.39907e-05
7.85076e-06
-1.32905e-05
8.72454e-06
-1.25115e-05
9.6035e-06
-1.11395e-05
1.03518e-05
-9.20832e-06
1.11096e-05
-7.29321e-06
1.17833e-05
-5.09227e-06
1.23481e-05
-2.4765e-06
1.28206e-05
3.08945e-07
1.30863e-05
2.89047e-06
1.32926e-05
5.96831e-06
1.34173e-05
8.56925e-06
1.32399e-05
1.03217e-05
1.29298e-05
1.27661e-05
1.26363e-05
1.44484e-05
1.22872e-05
1.46448e-05
1.18522e-05
1.60803e-05
1.1571e-05
1.72846e-05
1.13651e-05
1.68059e-05
1.1131e-05
1.67041e-05
1.09994e-05
1.7596e-05
1.08569e-05
1.7693e-05
1.06229e-05
1.63277e-05
1.02789e-05
1.53518e-05
9.87327e-06
1.52732e-05
9.66969e-06
1.41378e-05
9.72999e-06
1.18644e-05
9.81704e-06
1.10767e-05
9.70953e-06
1.17918e-05
9.56944e-06
1.22976e-05
9.61772e-06
1.19926e-05
9.80416e-06
1.03771e-05
1.00007e-05
8.57521e-06
1.04142e-05
7.99918e-06
1.10147e-05
8.94085e-06
1.14949e-05
1.07828e-05
1.18239e-05
1.23307e-05
1.20981e-05
1.31492e-05
1.23067e-05
1.35749e-05
1.24941e-05
1.34359e-05
1.28442e-05
1.24563e-05
1.33371e-05
1.17132e-05
1.39135e-05
1.12705e-05
1.44063e-05
1.07894e-05
1.47289e-05
9.74499e-06
1.49589e-05
8.62616e-06
1.52784e-05
7.69871e-06
1.56141e-05
6.93955e-06