/*--------------------------------*- C++ -*----------------------------------*\
| =========                 |                                                 |
| \\      /  F ield         | OpenFOAM: The Open Source CFD Toolbox           |
|  \\    /   O peration     | Version:  2.4.0                                 |
|   \\  /    A nd           | Web:      www.OpenFOAM.org                      |
|    \\/     M anipulation  |                                                 |
\*---------------------------------------------------------------------------*/
FoamFile
{
    version     2.0;
    format      ascii;
    class       volScalarField;
    location    "0.243";
    object      pMean;
}
// * * * * * * * * * * * * * * * * * * * * * * * * * * * * * * * * * * * * * //

dimensions      [0 2 -2 0 0 0 0];

internalField   nonuniform List<scalar> 
17600
(
99.3695
83.4151
78.7551
77.4257
76.2748
75.1187
74.0387
73.0241
72.0539
71.0845
70.1266
69.1616
68.2148
67.2597
66.317
65.3256
64.3091
63.1499
61.7806
59.6406
97.4683
83.4645
78.7958
77.4352
76.2781
75.1193
74.039
73.0244
72.0541
71.0845
70.1266
69.1617
68.2148
67.2601
66.3172
65.3266
64.3099
63.1521
61.788
59.7989
96.0601
83.7188
78.9386
77.4731
76.2919
75.1237
74.0411
73.0261
72.0554
71.0853
70.1271
69.1618
68.2152
67.2604
66.3183
65.3271
64.3136
63.1532
61.8294
59.915
95.0873
84.0577
79.1566
77.5375
76.3211
75.1389
74.0499
73.0324
72.06
71.0883
70.1287
69.1634
68.2163
67.2632
66.3207
65.3336
64.3193
63.1704
61.8772
60.0862
94.2676
84.3897
79.418
77.6184
76.363
75.1678
74.0693
73.0469
72.0706
71.0959
70.1335
69.1664
68.2195
67.2663
66.3267
65.3388
64.3348
63.1902
61.9549
60.3009
93.4961
84.6795
79.6924
77.6996
76.4045
75.2044
74.0983
73.0702
72.0883
71.1094
70.1421
69.1737
68.2247
67.2748
66.3345
65.3534
64.3521
63.2254
62.0545
60.555
92.77
84.9244
79.9657
77.7755
76.4361
75.2384
74.131
73.0989
72.1114
71.1275
70.1547
69.1832
68.2334
67.2846
66.3471
65.3703
64.3758
63.2719
62.1684
60.866
92.0992
85.1273
80.2315
77.8484
76.4572
75.2646
74.163
73.1296
72.1363
71.1477
70.1689
69.1949
68.2435
67.2977
66.3632
65.3924
64.4077
63.3262
62.281
61.2457
91.4892
85.2918
80.4818
77.9237
76.47
75.2823
74.1917
73.1601
72.1617
71.1681
70.183
69.2072
68.2535
67.3126
66.378
65.4209
64.4358
63.398
62.3645
61.6166
90.942
85.4193
80.7136
78.0036
76.4766
75.2922
74.2164
73.1894
72.1865
71.1873
70.1964
69.2184
68.2642
67.3268
66.3963
65.4487
64.473
63.47
62.4804
62.0232
90.4561
85.512
80.9261
78.0883
76.4781
75.2954
74.2368
73.2172
72.2104
71.2057
70.2086
69.2292
68.2738
67.3415
66.4135
65.4779
64.5147
63.5446
62.6288
62.3761
90.0287
85.5741
81.1191
78.1776
76.4757
75.2929
74.2533
73.2431
72.2334
71.2228
70.2197
69.2388
68.2839
67.3557
66.4328
65.5078
64.5597
63.6259
62.7852
62.6871
89.6571
85.6114
81.2922
78.2696
76.4709
75.2859
74.2664
73.2669
72.2552
71.2387
70.2299
69.2477
68.2937
67.3699
66.4531
65.5383
64.6102
63.7104
62.9455
62.966
89.3386
85.6308
81.4447
78.3593
76.4658
75.2758
74.2767
73.2882
72.2758
71.2531
70.2393
69.2556
68.304
67.3839
66.4745
65.5704
64.6633
63.799
63.1047
63.218
89.0702
85.6395
81.5756
78.4399
76.4621
75.2646
74.2846
73.3072
72.2943
71.2661
70.2477
69.2632
68.3139
67.3987
66.4962
65.6047
64.7176
63.8908
63.2624
63.4467
88.8495
85.6426
81.6837
78.509
76.4603
75.2535
74.2906
73.3233
72.3107
71.2775
70.2555
69.2703
68.3242
67.413
66.5197
65.6385
64.7764
63.9801
63.4283
63.6498
88.6753
85.6425
81.769
78.5655
76.4605
75.2429
74.2951
73.3365
72.3248
71.2867
70.2629
69.2765
68.3352
67.4274
66.5449
65.6734
64.8365
64.0687
63.5895
63.8753
88.5458
85.6409
81.8316
78.6091
76.4616
75.2344
74.2979
73.3471
72.3355
71.2951
70.2685
69.284
68.3444
67.4441
66.5671
65.7133
64.8925
64.1636
63.7055
64.0482
88.4605
85.639
81.8728
78.6386
76.4636
75.228
74.3001
73.3543
72.3438
71.3011
70.2746
69.2904
68.3552
67.4597
66.5921
65.7518
64.9511
64.2554
63.8243
64.2496
88.4182
85.6376
81.8932
78.6538
76.4648
75.225
74.3012
73.3587
72.3486
71.3057
70.2793
69.2972
68.3654
67.476
66.6171
65.7909
65.0106
64.3448
63.9551
64.4232
88.4185
85.6374
81.8932
78.654
76.465
75.2255
74.3016
73.3599
72.3502
71.3085
70.2834
69.3039
68.376
67.492
66.6432
65.8293
65.0722
64.4293
64.1017
64.5726
88.4617
85.6382
81.8731
78.639
76.4646
75.2292
74.3017
73.3575
72.3491
71.3089
70.2877
69.3098
68.3874
67.5074
66.6705
65.8678
65.1341
64.5126
64.2409
64.7521
88.5477
85.6397
81.8321
78.6099
76.4632
75.2365
74.3005
73.3526
72.3437
71.3088
70.2894
69.3176
68.3966
67.5259
66.6944
65.9109
65.1898
64.6026
64.3293
64.8718
88.6779
85.6406
81.7697
78.5666
76.4629
75.2456
74.2988
73.3441
72.3364
71.3057
70.292
69.3238
68.4074
67.5427
66.7207
65.9522
65.2478
64.6883
64.4171
65.032
88.8528
85.6403
81.6846
78.5104
76.4634
75.2565
74.2957
73.3328
72.3258
71.3014
70.2933
69.3301
68.4179
67.5595
66.7475
65.9929
65.3078
64.769
64.52
65.1683
89.0742
85.6367
81.5766
78.4417
76.4659
75.2681
74.2911
73.3184
72.3128
71.2951
70.294
69.3358
68.4284
67.5761
66.7746
66.0334
65.3688
64.848
64.6322
65.279
89.3434
85.6274
81.4459
78.3614
76.4704
75.2796
74.2846
73.3011
72.2976
71.287
70.2941
69.3409
68.4389
67.5926
66.8018
66.0745
65.4297
64.9289
64.737
65.3946
89.6623
85.6079
81.2932
78.2722
76.4763
75.2902
74.2756
73.2814
72.2803
71.2778
70.2926
69.3459
68.4482
67.61
66.8276
66.1178
65.4882
65.0152
64.8158
65.4744
90.0345
85.5705
81.12
78.1799
76.4823
75.2976
74.264
73.259
72.2618
71.2666
70.2909
69.3491
68.4582
67.6259
66.8547
66.1594
65.5494
65.1009
64.8976
65.5548
90.4622
85.5083
80.9269
78.0907
76.4854
75.3007
74.2487
73.2346
72.2421
71.2542
70.2879
69.3512
68.4681
67.6408
66.8823
66.1996
65.6132
65.1855
64.9944
65.6038
90.9484
85.4152
80.7145
78.006
76.4845
75.2985
74.2295
73.2086
72.2212
71.2407
70.2834
69.3524
68.4772
67.6551
66.9094
66.2386
65.6777
65.2705
65.1058
65.623
91.496
85.2875
80.4827
77.9262
76.4784
75.2894
74.2062
73.1809
72.1995
71.2259
70.2776
69.3521
68.4856
67.6679
66.9361
66.2753
65.7425
65.3529
65.2294
65.621
92.1062
85.123
80.2322
77.8512
76.4659
75.2725
74.1787
73.1522
72.1771
71.2101
70.2707
69.3511
68.4929
67.6797
66.9605
66.3093
65.8027
65.4304
65.3444
65.6277
92.7771
84.9204
79.9664
77.7786
76.445
75.2472
74.1481
73.1234
72.1548
71.1943
70.2632
69.3496
68.4988
67.6901
66.9813
66.3398
65.8538
65.4997
65.4333
65.6161
93.5031
84.6758
79.6934
77.7027
76.4137
75.2139
74.1167
73.0963
72.1342
71.1798
70.2566
69.3483
68.5038
67.699
66.9986
66.3648
65.8951
65.5543
65.5017
65.6374
94.2746
84.3863
79.4192
77.6216
76.3725
75.1778
74.0888
73.0743
72.1184
71.1693
70.2523
69.3481
68.5084
67.7064
67.012
66.384
65.9254
65.5941
65.548
65.6531
95.0943
84.0545
79.1581
77.5407
76.3307
75.1493
74.0701
73.0607
72.1091
71.1636
70.2507
69.349
68.5121
67.7119
67.0211
66.397
65.9448
65.6203
65.574
65.6717
96.067
83.7159
78.9402
77.4763
76.3017
75.1344
74.0619
73.0548
72.1053
71.1617
70.2506
69.3502
68.5145
67.7154
67.0263
66.4042
65.9552
65.6344
65.5868
65.6926
97.4751
83.4617
78.7974
77.4384
76.2879
75.1301
74.0598
73.0533
72.1042
71.1613
70.2508
69.3509
68.5155
67.7167
67.0281
66.4069
65.9587
65.6392
65.5905
65.7164
99.3764
83.4123
78.7568
77.4289
76.2846
75.1296
74.0596
73.053
72.1041
71.1613
70.2508
69.351
68.5155
67.7167
67.0282
66.4068
65.9587
65.6389
65.5893
65.752
58.1782
57.4473
56.3587
55.3606
54.4673
53.7793
53.1527
52.5633
51.9738
51.2973
50.5313
49.6599
48.7158
47.6671
46.6178
45.5887
44.5759
43.73
43.065
42.6053
42.3736
42.3744
42.6469
43.1696
43.8505
44.6994
45.6811
46.7505
47.8516
48.919
49.9475
50.9331
51.8614
52.7298
53.5533
54.3638
55.1685
55.9434
56.6722
57.3433
57.9257
58.4005
58.7806
59.0943
59.3456
59.5213
59.6326
59.6854
59.6656
59.5827
59.475
59.3539
59.1971
58.9932
58.7549
58.503
58.2524
58.0076
57.7829
57.5875
57.429
57.3105
57.2169
57.1582
57.1467
57.1798
57.2445
57.3304
57.4262
57.5194
57.6037
57.6737
57.7238
57.7491
57.7548
57.7622
57.8006
57.8822
58.0027
58.1666
58.3759
58.6233
58.897
59.1766
59.4551
59.7249
59.9779
60.2223
60.4598
60.6932
60.9195
61.1305
61.3286
61.5059
61.6696
61.8109
61.9376
62.0519
62.1591
62.2472
62.3193
62.3776
62.4251
62.4686
62.5113
62.5575
62.6071
62.654
62.7027
62.7456
62.7855
62.8114
62.8329
62.8359
62.8261
62.7899
62.7502
62.7073
62.6904
62.7075
62.7473
62.8138
62.9011
63.019
63.1763
63.3582
63.5819
63.7992
64.0438
64.2891
64.5291
64.7751
64.9924
65.2109
65.4104
65.6134
65.8029
65.9926
66.1807
66.3576
66.5242
66.6645
66.7971
66.8959
66.9821
67.0403
67.0964
67.1282
67.1643
67.1855
67.2127
67.2383
67.2623
67.2893
67.3121
67.3484
67.3852
67.4338
67.5002
67.5727
67.6525
67.708
67.7808
67.8266
67.8986
67.9533
68.0369
68.1094
68.2202
68.3106
68.4288
68.5077
68.6162
68.6793
68.7884
68.8261
68.9484
68.9642
69.1394
69.1217
69.3618
69.3324
69.6175
69.5881
69.8429
69.8238
69.9904
69.9166
69.9772
69.7785
69.6436
69.2224
68.7758
67.9652
66.9404
65.3218
62.9459
58.8068
53.345
29.4942
58.4392
57.751
56.8329
55.9916
55.2337
54.646
54.126
53.6252
53.1038
52.4946
51.7732
50.9345
50.0083
48.9572
47.8927
46.8659
45.8568
45.0027
44.3466
43.899
43.676
43.6842
43.9535
44.47
45.1521
45.9808
46.9293
47.9508
49.0082
50.0405
51.0352
51.982
52.8676
53.6866
54.4481
55.1806
55.9004
56.5905
57.2297
57.8116
58.3133
58.7083
59.0008
59.221
59.3804
59.4687
59.507
59.5105
59.4559
59.3382
59.194
59.0356
58.8414
58.6033
58.3315
58.0452
57.7602
57.483
57.2283
57.0079
56.8335
56.7041
56.6026
56.546
56.5466
56.5963
56.6793
56.7851
56.9013
57.0133
57.1154
57.203
57.2705
57.3147
57.3435
57.3819
57.4564
57.5759
57.7376
57.9468
58.2047
58.5015
58.8241
59.1519
59.4735
59.7809
60.0676
60.3401
60.6005
60.8527
61.0941
61.3158
61.5197
61.6983
61.8588
61.9935
62.1158
62.2292
62.3372
62.4288
62.5052
62.5649
62.6117
62.6515
62.688
62.724
62.7627
62.7965
62.8325
62.8609
62.8864
62.8962
62.9038
62.8928
62.8708
62.8231
62.7737
62.721
62.6891
62.6936
62.7232
62.7804
62.8568
62.9614
63.1073
63.282
63.5014
63.7238
63.9683
64.2254
64.4703
64.7264
64.9542
65.1807
65.3911
65.599
65.7916
65.9825
66.1712
66.3506
66.5165
66.659
66.7903
66.8886
66.9722
67.0226
67.0722
67.0959
67.1269
67.1364
67.1576
67.1728
67.1918
67.2127
67.2307
67.2632
67.2968
67.3447
67.4068
67.4723
67.5404
67.5864
67.6457
67.673
67.7274
67.7584
67.8204
67.8634
67.9452
68.0016
68.0967
68.1392
68.2295
68.2563
68.3512
68.3489
68.4661
68.4376
68.6154
68.5552
68.7878
68.7284
68.9855
68.9464
69.155
69.127
69.2604
69.1633
69.1829
68.9478
68.7562
68.2586
67.7028
66.7362
65.4897
63.4888
60.7892
55.2683
49.3143
22.4077
58.7447
58.1226
57.2993
56.5432
55.8798
55.36
54.9197
54.4951
54.031
53.4826
52.8064
52.0159
51.1362
50.1182
49.0672
48.0586
47.0799
46.2458
45.6156
45.1822
44.9789
45.0035
45.2705
45.7737
46.4448
47.2494
48.1649
49.1465
50.1636
51.1643
52.1272
53.0364
53.8798
54.6531
55.3584
56.0167
56.6502
57.254
57.8062
58.2991
58.7188
59.0348
59.2435
59.3737
59.445
59.4504
59.4187
59.3734
59.2844
59.1366
58.9611
58.767
58.5365
58.2663
57.9645
57.6476
57.3318
57.0252
56.7442
56.5023
56.3151
56.1755
56.0696
56.019
56.0337
56.1007
56.2038
56.331
56.4691
56.6022
56.7248
56.8327
56.9201
56.9867
57.0425
57.115
57.227
57.3845
57.5865
57.8395
58.1441
58.4879
58.8561
59.2295
59.5929
59.9366
60.2558
60.5551
60.8356
61.1024
61.3537
61.5821
61.7891
61.9669
62.1243
62.2532
62.373
62.4875
62.5978
62.6943
62.7775
62.841
62.8897
62.9261
62.9569
62.9815
63.0083
63.027
63.0489
63.0601
63.069
63.0606
63.0523
63.0246
62.988
62.9273
62.8651
62.7999
62.7524
62.7417
62.7595
62.8038
62.8692
62.9599
63.0948
63.2608
63.4739
63.7011
63.9459
64.2142
64.4653
64.7323
64.9723
65.21
65.4311
65.6462
65.8423
66.0346
66.2223
66.402
66.5646
66.7082
66.8354
66.9331
67.0136
67.0578
67.0992
67.1153
67.1382
67.1371
67.1499
67.1542
67.1658
67.1811
67.1946
67.2229
67.2542
67.305
67.3614
67.4181
67.4727
67.511
67.5568
67.567
67.6044
67.6091
67.652
67.6646
67.7173
67.7351
67.8065
67.8099
67.8828
67.8678
67.9488
67.9045
68.014
67.9426
68.1156
68.0203
68.2312
68.1498
68.3608
68.3167
68.4795
68.4387
68.5327
68.4159
68.3797
68.1124
67.8507
67.2843
66.6038
65.4658
64.0342
61.5741
58.7889
51.7457
45.5133
20.4123
59.0424
58.5084
57.7936
57.0723
56.4478
55.9657
55.5881
55.2338
54.8263
54.3359
53.7111
52.9683
52.1449
51.1876
50.1776
49.2082
48.2785
47.482
46.8866
46.4791
46.3007
46.3412
46.5986
47.0795
47.7279
48.5042
49.3859
50.3316
51.3078
52.2735
53.2043
54.0795
54.8819
55.6125
56.269
56.8601
57.4114
57.9292
58.3955
58.8017
59.1387
59.3765
59.5059
59.5533
59.542
59.4715
59.3738
59.2777
59.1525
58.9784
58.7775
58.5502
58.2859
57.9864
57.657
57.3128
56.9699
56.6385
56.3356
56.0758
55.8782
55.7299
55.6233
55.5831
55.6132
55.6986
55.8223
55.9723
56.1338
56.2904
56.4371
56.5683
56.6779
56.77
56.8563
56.9656
57.1158
57.3115
57.5531
57.8481
58.1958
58.5829
58.9932
59.4088
59.8106
60.1874
60.5377
60.8616
61.16
61.4382
61.695
61.9263
62.134
62.3092
62.4638
62.5884
62.709
62.8265
62.9405
63.0419
63.1327
63.2007
63.2533
63.2868
63.3127
63.326
63.3394
63.3413
63.3482
63.3408
63.3319
63.3042
63.2781
63.2319
63.1793
63.104
63.027
62.9468
62.8837
62.8546
62.8589
62.8873
62.9423
63.0193
63.1442
63.2999
63.5054
63.7352
63.9815
64.2576
64.5176
64.7951
65.0477
65.2985
65.5297
65.7523
65.952
66.1461
66.3322
66.5107
66.6684
66.8115
66.9338
67.0302
67.1064
67.1453
67.178
67.1859
67.1999
67.1888
67.1921
67.1849
67.19
67.1977
67.2079
67.2306
67.2614
67.3137
67.3643
67.4102
67.4536
67.4849
67.5168
67.5097
67.5287
67.5058
67.5291
67.5114
67.5375
67.5153
67.5582
67.5197
67.5741
67.517
67.5804
67.4966
67.5952
67.4822
67.6418
67.5162
67.6945
67.5968
67.7493
67.7027
67.8178
67.7647
67.8155
67.6764
67.578
67.2745
66.9308
66.2906
65.504
64.1632
62.652
59.582
56.9655
48.5206
42.0311
20.8652
59.3598
58.9101
58.3021
57.6008
56.9784
56.5176
56.1883
55.8999
55.5569
55.1202
54.5491
53.8517
53.0848
52.2043
51.2538
50.3402
49.4803
48.736
48.1828
47.8095
47.6525
47.6987
47.9372
48.3858
49.0016
49.7431
50.5872
51.4948
52.4287
53.3548
54.2508
55.0949
55.8611
56.5519
57.1645
57.6967
58.1741
58.6091
58.9917
59.3145
59.5701
59.732
59.7871
59.7597
59.6733
59.535
59.3747
59.2256
59.0622
58.8653
58.6434
58.3877
58.0939
57.7678
57.4131
57.0441
56.6773
56.3262
56.0064
55.7323
55.5266
55.3723
55.2695
55.243
55.2891
55.3934
55.5382
55.7119
55.8987
56.0819
56.2556
56.4131
56.5473
56.6674
56.7873
56.9347
57.1236
57.3572
57.6382
57.9726
58.36
58.7863
59.2348
59.6881
60.1232
60.5296
60.9077
61.2537
61.5679
61.8548
62.1147
62.346
62.5522
62.7235
62.8752
62.9976
63.1221
63.2451
63.364
63.4696
63.5674
63.6399
63.6966
63.7272
63.7481
63.7506
63.7507
63.7351
63.7263
63.6996
63.6731
63.6255
63.5808
63.5141
63.445
63.3534
63.2611
63.1636
63.0848
63.0342
63.0228
63.0332
63.0787
63.1427
63.2589
63.4032
63.6011
63.8302
64.0794
64.359
64.6303
64.9155
65.1813
65.4437
65.6847
65.9136
66.1175
66.314
66.4989
66.6739
66.827
66.9669
67.0835
67.1769
67.2487
67.2826
67.3065
67.3057
67.312
67.2912
67.2852
67.2669
67.2671
67.2653
67.2728
67.2896
67.3204
67.3713
67.4149
67.4501
67.4853
67.5087
67.5245
67.4995
67.4974
67.4482
67.4517
67.4017
67.4042
67.3403
67.3542
67.2713
67.3041
67.2019
67.2474
67.1195
67.2084
67.0543
67.1908
67.0429
67.1766
67.0702
67.1625
67.1093
67.1764
67.1109
67.118
66.9476
66.7933
66.4405
66.0281
65.2725
64.4388
62.7899
61.3792
57.5343
55.2775
45.772
38.813
21.5823
59.7454
59.3541
58.8007
58.1018
57.4651
57.0176
56.7352
56.5142
56.2418
55.8607
55.3488
54.706
53.9954
53.1978
52.3221
51.4734
50.6901
50.0104
49.5021
49.164
49.0215
49.0668
49.2835
49.692
50.2658
50.9641
51.7646
52.6297
53.5205
54.4025
55.2593
56.0717
56.8074
57.4628
58.0319
58.51
58.9228
59.2822
59.5859
59.8313
60.0096
60.1003
60.088
59.9932
59.8415
59.6426
59.4221
59.2195
59.0186
58.8011
58.5612
58.2818
57.9633
57.6141
57.2356
56.845
56.4577
56.0919
55.7598
55.475
55.2638
55.1074
55.0129
55.0021
55.0645
55.187
55.3532
55.5521
55.7661
55.9785
56.1824
56.3685
56.53
56.6803
56.8357
57.0216
57.2486
57.5192
57.8388
58.2114
58.6354
59.0966
59.5796
60.0644
60.5272
60.9588
61.3606
61.7257
62.0537
62.3477
62.6093
62.8387
63.0422
63.2079
63.3571
63.479
63.6102
63.7399
63.8645
63.9734
64.0767
64.1524
64.2137
64.2421
64.2569
64.2477
64.2355
64.2029
64.1788
64.133
64.0897
64.0225
63.9585
63.8707
63.7849
63.6769
63.5687
63.4524
63.3578
63.2835
63.2547
63.2458
63.2825
63.3335
63.4421
63.5742
63.7648
63.9896
64.242
64.5212
64.8044
65.0948
65.3728
65.6435
65.8953
66.1275
66.3366
66.5354
66.7198
66.8894
67.0396
67.1738
67.2848
67.3708
67.4371
67.4653
67.4833
67.4747
67.4747
67.4448
67.4317
67.4019
67.3983
67.3845
67.3916
67.4002
67.433
67.4773
67.5135
67.5385
67.571
67.5807
67.58
67.5347
67.5111
67.4348
67.4206
67.3368
67.3168
67.2095
67.193
67.0679
67.076
66.9244
66.9539
66.776
66.8546
66.6627
66.7646
66.601
66.6814
66.5647
66.6075
66.5376
66.5639
66.4742
66.4459
66.2203
66.0409
65.5949
65.1709
64.2136
63.4655
61.3433
60.2143
55.5057
53.55
43.5297
35.7693
21.7717
60.2065
59.8475
59.2702
58.5341
57.8794
57.4539
57.2289
57.0798
56.8828
56.5649
56.1177
55.5421
54.8921
54.176
53.3865
52.6104
51.9011
51.2895
50.8243
50.517
50.3865
50.4301
50.6283
50.9941
51.5185
52.1677
52.9195
53.7371
54.5807
55.4172
56.2311
57.007
57.7121
58.3346
58.8627
59.2883
59.6427
59.9362
60.1697
60.3449
60.4528
60.4794
60.4083
60.253
60.0468
59.7942
59.5161
59.2617
59.0259
58.7888
58.5321
58.2325
57.8942
57.5249
57.1263
56.7189
56.3163
55.9394
55.5979
55.3057
55.0932
54.9397
54.8573
54.8626
54.9405
55.0804
55.2679
55.494
55.737
55.9807
56.2174
56.4347
56.6253
56.8069
56.9989
57.2228
57.4865
57.793
58.1508
58.561
59.0184
59.511
60.0243
60.5344
61.0194
61.4709
61.8915
62.2722
62.6121
62.9118
63.1749
63.4021
63.6022
63.761
63.908
64.0315
64.1713
64.3071
64.4366
64.5478
64.6545
64.7318
64.7973
64.8241
64.8331
64.8121
64.7882
64.7399
64.7004
64.6368
64.5782
64.492
64.409
64.3006
64.1987
64.0741
63.9513
63.8157
63.7056
63.6067
63.5599
63.5301
63.5576
63.5947
63.6957
63.8145
63.9986
64.2155
64.4702
64.745
65.039
65.3307
65.6197
65.8944
66.1583
66.3906
66.6084
66.8054
66.992
67.154
67.3036
67.4275
67.536
67.6091
67.6715
67.6889
67.7068
67.6872
67.6866
67.6446
67.6323
67.5874
67.5836
67.5533
67.5654
67.5605
67.6001
67.6295
67.662
67.6743
67.7116
67.6979
67.6826
67.6114
67.5709
67.4679
67.4342
67.3138
67.2735
67.1239
67.0767
66.9065
66.8898
66.6838
66.7026
66.4669
66.5327
66.3041
66.3672
66.1854
66.2148
66.0762
66.087
65.9855
65.9894
65.8471
65.8126
65.4786
65.3457
64.7061
64.3834
63.0623
62.5572
59.8418
59.0837
53.5902
51.6502
41.7356
32.8709
21.5343
60.8592
60.4414
59.6764
58.8343
58.1774
57.8075
57.6588
57.5882
57.4694
57.2257
56.8509
56.3494
55.7654
55.1291
54.4322
53.7343
53.0942
52.5455
52.1231
51.8446
51.726
51.7684
51.9529
52.2813
52.7551
53.3528
54.0502
54.8135
55.6063
56.3965
57.1658
57.9005
58.5698
59.1561
59.6446
60.0227
60.3241
60.5618
60.7339
60.8473
60.8946
60.8651
60.7423
60.5362
60.2848
59.9862
59.6548
59.3527
59.0852
58.8279
58.5535
58.2364
57.8828
57.4986
57.0862
56.668
56.2559
55.8715
55.5222
55.2264
55.0174
54.8717
54.8043
54.8248
54.9166
55.0731
55.2822
55.537
55.8107
56.0876
56.3589
56.6085
56.8288
57.0427
57.2712
57.532
57.8312
58.1728
58.5678
59.0153
59.503
60.0241
60.5634
61.0939
61.5955
62.0623
62.4964
62.8888
63.2383
63.5428
63.8082
64.0329
64.2299
64.3817
64.5264
64.6525
64.8012
64.9417
65.0741
65.1855
65.2937
65.3718
65.4396
65.4653
65.4701
65.4379
65.4034
65.3404
65.2866
65.2062
65.1336
65.0298
64.9291
64.8018
64.6851
64.5442
64.4091
64.2539
64.1282
64.0057
63.9411
63.8893
63.9058
63.9277
64.0195
64.1241
64.3024
64.5081
64.764
65.0309
65.332
65.6204
65.9196
66.1936
66.4686
66.7011
66.9297
67.1203
67.3114
67.4635
67.615
67.7235
67.8327
67.8877
67.9494
67.9512
67.9733
67.9373
67.9422
67.8852
67.8808
67.8176
67.8191
67.7686
67.7918
67.768
67.8197
67.8244
67.8623
67.8561
67.9061
67.8555
67.832
67.7272
67.6771
67.5416
67.4976
67.332
67.2726
67.0709
67.0057
66.7824
66.75
66.479
66.4964
66.1949
66.2462
65.976
66.0026
65.7897
65.7831
65.6007
65.6087
65.4345
65.4623
65.199
65.2251
64.6951
64.7081
63.7521
63.6513
61.8527
61.6707
58.331
57.8889
51.8647
49.3173
40.2347
30.4817
21.3012
61.8089
61.2562
60.0531
59.0322
58.3853
58.0961
58.036
58.0469
58.006
57.8415
57.5423
57.1171
56.6025
56.0413
55.4346
54.818
54.2442
53.7507
53.3727
53.1251
53.02
53.0621
53.2367
53.5372
53.9669
54.5136
55.1529
55.8568
56.596
57.339
58.062
58.7504
59.3776
59.9224
60.3696
60.7041
60.9589
61.1485
61.2708
61.3312
61.3283
61.2516
61.0838
60.8353
60.5471
60.2107
59.8328
59.4896
59.1935
58.9149
58.6214
58.2892
57.9264
57.5351
57.1176
56.6961
56.2791
55.8886
55.5327
55.2385
55.0378
54.9037
54.8529
54.8882
54.9926
55.1644
55.3955
55.6802
55.9857
56.2965
56.6029
56.8848
57.1356
57.3821
57.6456
57.9414
58.2747
58.6508
59.0818
59.565
60.0815
60.6286
61.1909
61.7371
62.2505
62.7281
63.1706
63.5711
63.9275
64.2361
64.5049
64.7268
64.921
65.0672
65.2101
65.3389
65.4951
65.6379
65.7698
65.8785
65.9854
66.0629
66.1327
66.1577
66.1605
66.1189
66.0746
65.9985
65.9323
65.8361
65.7507
65.6314
65.5155
65.3709
65.2408
65.0846
64.9391
64.7656
64.6244
64.4799
64.3982
64.3237
64.3268
64.3316
64.4127
64.5018
64.6734
64.8657
65.1206
65.3769
65.6816
65.9629
66.2711
66.5395
66.8252
67.0573
67.2966
67.4777
67.675
67.8147
67.9691
68.0595
68.1715
68.205
68.2668
68.2495
68.2767
68.2209
68.2346
68.1609
68.1697
68.087
68.1003
68.0274
68.066
68.0171
68.0871
68.0563
68.1128
68.078
68.1483
68.0467
68.0266
67.8767
67.833
67.6504
67.6099
67.3841
67.3185
67.0483
66.983
66.6883
66.6606
66.3083
66.3379
65.9579
66.0063
65.6684
65.6791
65.4
65.3963
65.1281
65.1778
64.8732
64.9796
64.5173
64.6635
63.8685
64.0502
62.7288
62.8695
60.59
60.7453
56.884
56.397
50.3982
46.4938
38.8755
29.0394
21.5089
62.5745
61.9499
60.4459
59.2679
58.596
58.3599
58.3771
58.4662
58.5017
58.414
58.1874
57.8347
57.3897
56.897
56.3717
55.8353
55.3258
54.8845
54.551
54.3361
54.2483
54.2939
54.4629
54.7449
55.1389
55.6371
56.2194
56.864
57.5471
58.24
58.9149
59.5528
60.1305
60.6308
61.0363
61.33
61.5407
61.6886
61.7715
61.79
61.7477
61.6347
61.4294
61.1457
60.8258
60.4599
60.0442
59.6671
59.3469
59.0458
58.7321
58.3889
58.0238
57.6339
57.2213
56.8037
56.3855
55.9893
55.629
55.3422
55.154
55.0342
55.0005
55.0497
55.1673
55.3539
55.6067
55.9218
56.2591
56.6039
56.9442
57.2579
57.5402
57.8185
58.1145
58.4426
58.8084
59.2173
59.683
60.1998
60.7443
61.3156
61.8976
62.4558
62.9785
63.4628
63.9088
64.3142
64.6753
64.9865
65.2586
65.4787
65.6707
65.8124
65.9542
66.0851
66.246
66.3881
66.5155
66.6175
66.7211
66.796
66.868
66.893
66.8963
66.8474
66.7946
66.7078
66.631
66.5214
66.424
66.2913
66.163
66.003
65.8601
65.6898
65.5353
65.3452
65.1895
65.0251
64.9267
64.8296
64.817
64.8037
64.8727
64.9448
65.1088
65.2863
65.5365
65.7794
66.0836
66.3556
66.6714
66.9326
67.2283
67.458
67.7066
67.8767
68.08
68.2053
68.3617
68.4324
68.5472
68.5602
68.6226
68.5831
68.6129
68.536
68.5584
68.4666
68.4895
68.3879
68.4182
68.3224
68.3793
68.3019
68.3919
68.3197
68.4056
68.3313
68.4263
68.263
68.2575
68.0493
68.0301
67.785
67.7624
67.4579
67.4055
67.0511
67.011
66.6171
66.6178
66.1627
66.2233
65.7459
65.8057
65.3734
65.3936
65.0139
65.0462
64.652
64.7701
64.2903
64.4976
63.8026
64.079
62.9998
63.338
61.6749
62.0236
59.3874
59.6066
55.5906
54.3568
48.9928
43.9254
37.7888
28.5635
22.176
63.1901
62.5423
60.8652
59.5613
58.8377
58.6196
58.6933
58.8509
58.9564
58.9397
58.7828
58.499
58.1207
57.6904
57.2332
56.7695
56.3237
55.9347
55.6448
55.4643
55.3964
55.449
55.6171
55.8871
56.2526
56.7075
57.2384
57.8264
58.4519
59.0916
59.7164
60.3015
60.8263
61.2778
61.6416
61.8996
62.0709
62.181
62.2315
62.2177
62.1465
62.0087
61.7764
61.4655
61.1189
60.7295
60.2841
59.8812
59.5408
59.2177
58.8839
58.5349
58.1744
57.7936
57.3946
56.989
56.5725
56.171
55.8093
55.5367
55.3651
55.2612
55.2443
55.3067
55.437
55.6391
55.9151
56.2602
56.628
57.0056
57.3781
57.7228
58.0369
58.3455
58.6714
59.0285
59.4243
59.864
60.3611
60.9092
61.4805
62.0742
62.6727
63.2409
63.7708
64.2587
64.7055
65.1123
65.4754
65.7869
66.0622
66.2813
66.4725
66.6107
66.7513
66.8835
67.0452
67.1827
67.3026
67.3933
67.4922
67.5643
67.6384
67.6636
67.6686
67.6153
67.5559
67.461
67.3758
67.2551
67.147
67.0032
66.8645
66.6916
66.5368
66.3534
66.1902
65.9861
65.8179
65.6359
65.5215
65.4013
65.372
65.3396
65.3963
65.4501
65.6042
65.7651
66.0084
66.2348
66.5337
66.7942
67.1155
67.3702
67.6743
67.8994
68.1561
68.3149
68.522
68.634
68.7918
68.8424
68.9565
68.9501
69.012
68.95
68.9798
68.8831
68.9101
68.8008
68.8334
68.7158
68.7618
68.6474
68.72
68.6183
68.7218
68.6118
68.7257
68.6108
68.7251
68.4967
68.5138
68.2412
68.2516
67.9333
67.9459
67.5501
67.5224
67.062
67.0677
66.5528
66.6047
66.027
66.1357
65.5475
65.6313
65.0871
65.1388
64.6295
64.7121
64.1649
64.3484
63.6733
63.9632
63.0509
63.4112
62.1204
62.5481
60.7014
61.0206
58.4015
58.073
54.3452
52.0721
47.4688
42.1354
37.2535
28.9246
23.1226
63.6744
63.0457
61.2888
59.9016
59.1236
58.8934
58.9942
59.2015
59.3679
59.4185
59.3305
59.1136
58.7979
58.4254
58.0251
57.6227
57.2395
56.9025
56.6539
56.5079
56.4627
56.5239
56.6919
56.9525
57.2945
57.7129
58.1995
58.7372
59.3078
59.8923
60.4625
60.9928
61.4641
61.8657
62.1871
62.4135
62.5525
62.6313
62.6542
62.6161
62.524
62.371
62.124
61.7934
61.4263
61.0156
60.5488
60.1277
59.7715
59.4273
59.0759
58.7259
58.3776
58.0135
57.6337
57.2456
56.8348
56.43
56.0718
55.82
55.6689
55.5816
55.5802
55.6552
55.7987
56.0171
56.3177
56.6925
57.0892
57.4973
57.9001
58.2747
58.6197
58.9577
59.3104
59.6927
60.1159
60.583
61.1072
61.6827
62.2795
62.8936
63.5053
64.0823
64.6176
65.1068
65.5536
65.9587
66.3217
66.6302
66.9071
67.1263
67.3174
67.453
67.5927
67.7228
67.8818
68.0113
68.1216
68.1994
68.2922
68.3605
68.4372
68.4628
68.4698
68.4141
68.3509
68.2495
68.1594
68.0294
67.9127
67.7595
67.6127
67.4294
67.2637
67.0684
66.8965
66.6817
66.5027
66.3043
66.175
66.0328
65.9851
65.9337
65.9781
66.0142
66.1553
66.2981
66.5314
66.739
67.0276
67.2742
67.5983
67.8475
68.1573
68.3772
68.64
68.7893
68.9966
69.0962
69.2531
69.2871
69.3969
69.373
69.4296
69.3466
69.3739
69.2611
69.2863
69.1613
69.1967
69.0665
69.1226
68.9961
69.08
68.9616
69.0687
68.9309
69.0618
68.9132
69.0324
68.7472
68.7759
68.4477
68.4792
68.0946
68.1294
67.6459
67.6426
67.0782
67.1288
66.4834
66.5949
65.8858
66.0446
65.3322
65.457
64.7748
64.8962
64.2277
64.3812
63.6669
63.9044
63.0865
63.3942
62.3683
62.6846
61.361
61.653
59.8853
59.7852
57.4338
56.2862
52.9518
50.1193
46.1895
41.1101
37.2656
29.8074
24.1798
64.0651
63.4731
61.7021
60.2722
59.4463
59.1815
59.281
59.5205
59.7407
59.856
59.8362
59.6843
59.4274
59.108
58.7579
58.408
58.0819
57.7963
57.5865
57.4721
57.4499
57.521
57.6882
57.9392
58.2618
58.6498
59.0962
59.5877
60.1072
60.6363
61.1496
61.6241
62.0429
62.3967
62.6791
62.8768
62.989
63.0414
63.0427
62.9877
62.8828
62.7209
62.4705
62.1285
61.7441
61.3142
60.8338
60.4024
60.0367
59.6729
59.308
58.9614
58.631
58.2902
57.9353
57.5674
57.1658
56.7617
56.4138
56.1882
56.0619
55.992
56.0041
56.0909
56.2486
56.4854
56.8111
57.2141
57.6376
58.0744
58.5057
58.909
59.2833
59.6494
60.0259
60.4298
60.8769
61.3673
61.9132
62.5111
63.1304
63.7624
64.3846
64.9686
65.5077
65.9977
66.4448
66.8459
67.2072
67.5089
67.7849
68.0041
68.1946
68.3282
68.4664
68.5912
68.7452
68.8637
68.9644
69.0288
69.1162
69.1797
69.2592
69.2836
69.2934
69.2356
69.1714
69.0646
68.9736
68.8358
68.7155
68.5531
68.4007
68.2093
68.0338
67.8281
67.6483
67.4255
67.2375
67.0218
66.8779
66.716
66.6505
66.5792
66.6114
66.6302
66.7575
66.8812
67.101
67.2876
67.5622
67.7918
68.1147
68.3587
68.6724
68.8864
69.1537
69.2958
69.5018
69.5904
69.7441
69.7636
69.8649
69.8244
69.8722
69.7716
69.7935
69.6667
69.6857
69.5463
69.5769
69.4355
69.4949
69.3612
69.4518
69.3229
69.4272
69.2711
69.4061
69.2344
69.3435
69.0141
69.0404
68.6713
68.7028
68.2747
68.3138
67.7604
67.7514
67.1165
67.1733
66.4361
66.5493
65.7624
65.8929
65.1207
65.2207
64.4644
64.5963
63.8394
63.9973
63.1857
63.4126
62.524
62.7677
61.6778
61.8704
60.5605
60.6086
58.9644
58.4254
56.2134
54.6524
51.6228
48.7179
45.5161
40.8051
37.6675
30.8891
25.2459
64.3788
63.8343
62.0977
60.6571
59.7935
59.484
59.5654
59.8232
60.0873
60.2608
60.3041
60.2146
60.014
59.7442
59.4405
59.1353
58.8578
58.6207
58.4477
58.361
58.3606
58.4426
58.6089
58.851
59.1565
59.5176
59.9268
60.3729
60.8423
61.316
61.7721
62.1924
62.5624
62.8724
63.1197
63.2919
63.3835
63.415
63.4
63.3333
63.2212
63.0565
62.8113
62.4691
62.069
61.6219
61.134
60.7029
60.3321
59.9525
59.5786
59.2402
58.9314
58.6166
58.2917
57.9489
57.5598
57.1618
56.8306
56.6361
56.5367
56.4847
56.511
56.6111
56.7838
57.0394
57.3897
57.819
58.2681
58.7316
59.1891
59.6196
60.0218
60.4138
60.8117
61.2347
61.7012
62.2103
62.7726
63.387
64.0241
64.6697
65.2996
65.8887
66.4305
66.9205
67.3695
67.765
68.1238
68.4151
68.6881
68.906
69.0925
69.2235
69.36
69.4755
69.625
69.7305
69.8224
69.8738
69.9578
70.0144
70.0997
70.1204
70.1342
70.0714
70.0093
69.8975
69.8101
69.665
69.5471
69.376
69.2221
69.0238
68.841
68.6259
68.4395
68.2102
68.0139
67.7804
67.6226
67.4425
67.3611
67.2691
67.289
67.2907
67.4035
67.508
67.7128
67.8769
68.1352
68.3455
68.6624
68.8995
69.2162
69.4251
69.695
69.8305
70.0357
70.1126
70.2624
70.2703
70.3603
70.3009
70.3373
70.2217
70.2363
70.0959
70.1067
69.9532
69.9743
69.8222
69.8788
69.7391
69.8316
69.6952
69.7941
69.6251
69.7557
69.5684
69.6596
69.291
69.3033
68.9053
68.9259
68.4686
68.4963
67.9023
67.8705
67.1943
67.2243
66.4418
66.5129
65.7017
65.7502
64.9654
64.9936
64.2217
64.2939
63.5086
63.5907
62.7366
62.8712
61.9248
62.0453
60.8697
60.9359
59.5511
59.4232
57.7377
57.0375
54.8615
53.2747
50.6138
47.8847
45.398
41.0371
38.2236
31.9659
26.3032
64.6274
64.1367
62.4783
61.0534
60.1623
59.8029
59.8538
60.1167
60.4138
60.6367
60.7377
60.7075
60.5619
60.3399
60.0798
59.8145
59.5764
59.3806
59.2417
59.1802
59.199
59.2915
59.4574
59.6913
59.981
60.3163
60.6899
61.0924
61.5106
61.9288
62.3293
62.6981
63.0228
63.2943
63.5097
63.6582
63.7346
63.7528
63.7266
63.6539
63.5375
63.3751
63.1421
62.8096
62.3996
61.9357
61.4463
61.0243
60.6518
60.263
59.8844
59.5574
59.273
58.9851
58.6928
58.3803
58.0108
57.6257
57.3176
57.1583
57.0873
57.0524
57.0947
57.2115
57.4004
57.6741
58.0463
58.4993
58.9739
59.4622
59.9436
60.3996
60.8278
61.2428
61.6606
62.1007
62.5821
63.1055
63.678
64.3035
64.9527
65.6063
66.2402
66.8321
67.3755
67.8646
68.3161
68.7048
69.0627