/*--------------------------------*- C++ -*----------------------------------*\
| =========                 |                                                 |
| \\      /  F ield         | OpenFOAM: The Open Source CFD Toolbox           |
|  \\    /   O peration     | Version:  2.4.0                                 |
|   \\  /    A nd           | Web:      www.OpenFOAM.org                      |
|    \\/     M anipulation  |                                                 |
\*---------------------------------------------------------------------------*/
FoamFile
{
    version     2.0;
    format      ascii;
    class       surfaceScalarField;
    location    "0.15";
    object      phi;
}
// * * * * * * * * * * * * * * * * * * * * * * * * * * * * * * * * * * * * * //

dimensions      [0 3 -1 0 0 0 0];

internalField   nonuniform List<scalar> 
8640
(
1.14622e-05
1.35378e-05
7.17659e-06
4.28557e-06
5.9186e-06
1.25799e-06
5.3742e-06
5.44401e-07
5.10136e-06
2.72836e-07
4.92711e-06
1.74253e-07
4.8464e-06
8.07054e-08
4.80032e-06
4.60786e-08
4.4701e-06
3.30223e-07
-1.63056e-06
6.10066e-06
2.10461e-05
1.74918e-05
1.74512e-05
7.88046e-06
1.55121e-05
3.19711e-06
1.4273e-05
1.78349e-06
1.34815e-05
1.06428e-06
1.30268e-05
6.29032e-07
1.27383e-05
3.69171e-07
1.25339e-05
2.50443e-07
1.21774e-05
6.86726e-07
-2.08739e-06
1.26343e-05
2.56988e-05
1.67929e-05
2.4101e-05
9.47824e-06
2.26065e-05
4.69167e-06
2.12645e-05
3.12544e-06
2.02029e-05
2.12592e-06
1.95831e-05
1.2488e-06
1.91236e-05
8.28697e-07
1.88045e-05
5.6953e-07
1.85583e-05
9.32952e-07
-1.66158e-06
1.81325e-05
2.74627e-05
1.43302e-05
2.77343e-05
9.20662e-06
2.7361e-05
5.06499e-06
2.65675e-05
3.91899e-06
2.56178e-05
3.07561e-06
2.50239e-05
1.84269e-06
2.45132e-05
1.33939e-06
2.4099e-05
9.83682e-07
2.40624e-05
9.69586e-07
-7.68033e-07
2.31689e-05
2.76664e-05
1.16638e-05
2.89053e-05
7.9677e-06
2.95872e-05
4.38312e-06
2.97403e-05
3.76594e-06
2.93412e-05
3.47465e-06
2.90527e-05
2.13119e-06
2.87125e-05
1.67962e-06
2.82934e-05
1.40274e-06
2.84274e-05
8.35606e-07
-2.09639e-07
2.7869e-05
2.75344e-05
9.12944e-06
2.89559e-05
6.54618e-06
2.99599e-05
3.37914e-06
3.07698e-05
2.95605e-06
3.1045e-05
3.19944e-06
3.12625e-05
1.91372e-06
3.13544e-05
1.5877e-06
3.11313e-05
1.62582e-06
3.13777e-05
5.89192e-07
3.84872e-07
3.07832e-05
2.74185e-05
6.71094e-06
2.89601e-05
5.00459e-06
2.98655e-05
2.47373e-06
3.07497e-05
2.07184e-06
3.13449e-05
2.60426e-06
3.18402e-05
1.41837e-06
3.23256e-05
1.10235e-06
3.24234e-05
1.52797e-06
3.2786e-05
2.26628e-07
1.02787e-06
3.2143e-05
2.72978e-05
4.41311e-06
2.90324e-05
3.27003e-06
2.97996e-05
1.70656e-06
3.05994e-05
1.27199e-06
3.12824e-05
1.92128e-06
3.1808e-05
8.92733e-07
3.23819e-05
5.28432e-07
3.27154e-05
1.19454e-06
3.31932e-05
-2.5124e-07
-7.38015e-09
3.42285e-05
2.7247e-05
2.16613e-06
2.89609e-05
1.55613e-06
2.96994e-05
9.68082e-07
3.05029e-05
4.68447e-07
3.12192e-05
1.20498e-06
3.17596e-05
3.52317e-07
3.23271e-05
-3.90883e-08
3.27562e-05
7.65455e-07
3.32424e-05
-7.3738e-07
-8.7323e-07
3.41082e-05
2.72392e-05
-7.30538e-08
2.89162e-05
-1.20915e-07
2.96491e-05
2.35179e-07
3.04304e-05
-3.12823e-07
3.11673e-05
4.68103e-07
3.17802e-05
-2.606e-07
3.22941e-05
-5.52961e-07
3.27508e-05
3.08716e-07
3.32511e-05
-1.23763e-06
-1.3159e-06
3.36937e-05
2.72228e-05
-2.29584e-06
2.89231e-05
-1.82128e-06
2.96538e-05
-4.9546e-07
3.03808e-05
-1.0398e-06
3.11896e-05
-3.40746e-07
3.1827e-05
-8.98031e-07
3.22536e-05
-9.79471e-07
3.27777e-05
-2.15471e-07
3.31532e-05
-1.61308e-06
-1.7309e-06
3.35682e-05
2.72629e-05
-4.55876e-06
2.89498e-05
-3.50817e-06
2.96552e-05
-1.20084e-06
3.04326e-05
-1.81719e-06
3.12899e-05
-1.19804e-06
3.18163e-05
-1.42446e-06
3.22491e-05
-1.41231e-06
3.28005e-05
-7.66797e-07
3.3159e-05
-1.97166e-06
-2.55802e-06
3.39862e-05
2.73376e-05
-6.89635e-06
2.89222e-05
-5.0928e-06
2.97202e-05
-1.99878e-06
3.05576e-05
-2.65467e-06
3.13594e-05
-1.99979e-06
3.18291e-05
-1.89418e-06
3.23057e-05
-1.8889e-06
3.27968e-05
-1.25795e-06
3.32546e-05
-2.42945e-06
-3.34206e-06
3.40387e-05
2.73824e-05
-9.27875e-06
2.88064e-05
-6.51679e-06
2.98842e-05
-3.07663e-06
3.06915e-05
-3.46195e-06
3.14318e-05
-2.74009e-06
3.18533e-05
-2.31569e-06
3.21982e-05
-2.23375e-06
3.2526e-05
-1.58575e-06
3.28317e-05
-2.73514e-06
-3.45374e-06
3.29433e-05
2.74746e-05
-1.17533e-05
2.88861e-05
-7.92835e-06
3.00325e-05
-4.22302e-06
3.06927e-05
-4.12211e-06
3.11307e-05
-3.17808e-06
3.12377e-05
-2.42267e-06
3.1197e-05
-2.19303e-06
3.11802e-05
-1.56897e-06
3.10357e-05
-2.59066e-06
-2.96523e-06
3.05472e-05
2.76309e-05
-1.43842e-05
2.88788e-05
-9.17621e-06
2.96367e-05
-4.98098e-06
2.9662e-05
-4.14735e-06
2.93966e-05
-2.91272e-06
2.89907e-05
-2.01681e-06
2.85516e-05
-1.75394e-06
2.82266e-05
-1.24396e-06
2.77229e-05
-2.08694e-06
-1.68861e-06
2.64463e-05
2.74372e-05
-1.68215e-05
2.77238e-05
-9.4628e-06
2.739e-05
-4.64711e-06
2.65016e-05
-3.259e-06
2.56463e-05
-2.05743e-06
2.49502e-05
-1.32065e-06
2.43451e-05
-1.14889e-06
2.39112e-05
-8.1007e-07
2.32784e-05
-1.45412e-06
-9.58757e-07
2.25485e-05
2.56806e-05
-1.75021e-05
2.40972e-05
-7.87937e-06
2.26236e-05
-3.17352e-06
2.12133e-05
-1.84863e-06
2.02059e-05
-1.05002e-06
1.95197e-05
-6.34465e-07
1.89483e-05
-5.77542e-07
1.85476e-05
-4.09353e-07
1.79041e-05
-8.10609e-07
-3.74521e-07
1.73199e-05
2.10372e-05
-1.35393e-05
1.74471e-05
-4.28926e-06
1.5522e-05
-1.2484e-06
1.42366e-05
-5.63277e-07
1.3466e-05
-2.79427e-07
1.29895e-05
-1.5795e-07
1.2577e-05
-1.65067e-07
1.22853e-05
-1.17665e-07
1.17522e-05
-2.77506e-07
-3.07266e-08
1.14084e-05
1.14607e-05
7.17142e-06
5.92303e-06
5.35975e-06
5.08032e-06
4.92237e-06
4.7573e-06
4.63964e-06
4.36213e-06
4.33141e-06
7.02263e-06
2.74219e-07
-1.1962e-06
8.0686e-06
2.06002e-06
-3.10598e-06
9.0967e-06
1.42145e-06
-2.44955e-06
9.87122e-06
4.36449e-07
-1.21098e-06
1.06943e-05
3.06751e-07
-1.12986e-06
1.24349e-05
-5.52977e-08
-1.68528e-06
1.41165e-05
8.90707e-07
-2.57234e-06
1.49181e-05
2.47534e-06
-3.27693e-06
1.63862e-05
3.56991e-07
-1.82508e-06
1.74768e-05
-8.44794e-07
-2.45752e-07
1.84637e-05
-3.22617e-06
2.23921e-06
1.99845e-05
-9.02066e-06
7.49994e-06
2.08537e-05
-1.09593e-05
1.00901e-05
2.24882e-05
-8.91597e-06
7.28146e-06
2.40566e-05
-1.17405e-05
1.01721e-05
2.4429e-05
-1.06087e-05
1.02363e-05
2.49186e-05
-6.95538e-06
6.46581e-06
2.58339e-05
-5.81367e-06
4.89837e-06
2.63043e-05
-5.21036e-06
4.73991e-06
2.66141e-05
-4.52589e-06
4.21614e-06
2.7259e-05
-7.14572e-06
6.50083e-06
2.76169e-05
-1.11214e-05
1.07634e-05
2.67929e-05
-1.21512e-05
1.29753e-05
2.75372e-05
-1.42797e-05
1.35355e-05
2.8439e-05
-1.93908e-05
1.8489e-05
2.77032e-05
-2.28653e-05
2.36011e-05
2.77175e-05
-2.50825e-05
2.50681e-05
2.89813e-05
-2.98102e-05
2.85464e-05
3.0318e-05
-3.64359e-05
3.50992e-05
3.12726e-05
-3.89122e-05
3.79577e-05
3.12083e-05
-4.02787e-05
4.0343e-05
3.10607e-05
-4.06063e-05
4.07539e-05
3.11996e-05
-3.43427e-05
3.42038e-05
3.01042e-05
-2.66672e-05
2.77625e-05
2.85424e-05
-1.47547e-05
1.63165e-05
2.73034e-05
-1.46743e-06
2.70641e-06
2.63879e-05
5.34627e-06
-4.43074e-06
2.5308e-05
1.94152e-05
-1.83353e-05
2.3707e-05
3.37049e-05
-3.21039e-05
2.17047e-05
3.55821e-05
-3.35797e-05
2.04499e-05
2.96217e-05
-2.83669e-05
2.03079e-05
3.54021e-05
-3.52601e-05
2.04806e-05
4.32782e-05
-4.34509e-05
2.05635e-05
4.56207e-05
-4.57036e-05
2.00823e-05
4.12543e-05
-4.07731e-05
1.95356e-05
3.52564e-05
-3.47096e-05
1.90943e-05
3.05533e-05
-3.01121e-05
1.88857e-05
1.93998e-05
-1.91912e-05
1.94335e-05
6.02219e-06
-6.57006e-06
1.94506e-05
-4.89694e-06
4.87987e-06
1.90529e-05
-1.36078e-05
1.40056e-05
1.79363e-05
-2.93293e-05
3.04458e-05
1.80166e-05
-4.03765e-05
4.02962e-05
1.67189e-05
-4.22483e-05
4.3546e-05
1.58459e-05
-3.05645e-05
3.14375e-05
1.62291e-05
-2.55403e-05
2.51571e-05
1.53134e-05
-2.08428e-05
2.17585e-05
1.65088e-05
-3.2695e-05
3.14996e-05
1.72605e-05
-4.48069e-05
4.40552e-05
1.79877e-05
-4.9185e-05
4.84578e-05
1.90506e-05
-4.03931e-05
3.93302e-05
1.97619e-05
-2.35071e-05
2.27958e-05
1.99546e-05
-1.66322e-05
1.64395e-05
1.98562e-05
-7.00208e-06
7.10048e-06
2.00379e-05
9.13748e-06
-9.31915e-06
2.01372e-05
2.09348e-05
-2.10341e-05
2.04689e-05
3.0687e-05
-3.10188e-05
2.04526e-05
4.62571e-05
-4.62407e-05
1.99859e-05
5.47143e-05
-5.42476e-05
1.82405e-05
5.06644e-05
-4.8919e-05
1.63935e-05
4.01343e-05
-3.82873e-05
1.62088e-05
3.76858e-05
-3.75011e-05
1.74908e-05
3.54179e-05
-3.66999e-05
1.82023e-05
3.67991e-05
-3.75105e-05
1.89808e-05
3.10359e-05
-3.18144e-05
1.92425e-05
3.02238e-05
-3.04854e-05
1.93162e-05
1.43011e-05
-1.43749e-05
2.04641e-05
1.22435e-05
-1.33913e-05
2.1646e-05
9.56447e-07
-2.13837e-06
2.16423e-05
-6.96422e-06
6.96795e-06
2.10747e-05
-1.74226e-05
1.79902e-05
1.88721e-05
-1.54163e-05
1.7619e-05
1.84826e-05
-2.59737e-05
2.63631e-05
1.86943e-05
-2.0538e-05
2.03263e-05
1.92995e-05
-2.56861e-05
2.50809e-05
1.856e-05
-2.14447e-05
2.21843e-05
1.92701e-05
-1.70919e-05
1.63818e-05
1.80005e-05
-3.21876e-06
4.4883e-06
1.84796e-05
-8.74005e-06
8.26096e-06
1.75736e-05
-5.10835e-06
6.01436e-06
1.8363e-05
4.76253e-07
-1.26564e-06
1.67397e-05
1.46696e-05
-1.30464e-05
1.73012e-05
8.16411e-06
-8.72556e-06
1.60451e-05
1.08914e-05
-9.63536e-06
1.69022e-05
3.63154e-06
-4.48862e-06
1.4526e-05
8.38628e-06
-6.01005e-06
1.6999e-05
8.22566e-06
-1.06987e-05
1.56844e-05
2.98471e-05
-2.85325e-05
1.64128e-05
3.83887e-05
-3.91172e-05
7.13596e-05
-6.95566e-05
1.46098e-05
1.31108e-05
-2.02286e-07
1.35851e-05
1.58572e-06
1.38095e-05
1.19698e-06
1.42788e-05
-3.28277e-08
1.466e-05
-7.44e-08
1.55159e-05
-9.11252e-07
1.70415e-05
-6.34921e-07
1.85999e-05
9.16991e-07
2.04294e-05
-1.47257e-06
2.1522e-05
-1.93735e-06
2.30153e-05
-4.71943e-06
2.4665e-05
-1.06704e-05
2.49493e-05
-1.12436e-05
2.61174e-05
-1.0084e-05
2.71332e-05
-1.27563e-05
2.76436e-05
-1.11192e-05
2.8116e-05
-7.42775e-06
2.8119e-05
-5.81669e-06
2.82894e-05
-5.38076e-06
2.89062e-05
-5.14267e-06
2.96716e-05
-7.91115e-06
3.00214e-05
-1.14712e-05
2.96282e-05
-1.1758e-05
2.99753e-05
-1.46268e-05
2.98854e-05
-1.9301e-05
2.90472e-05
-2.20271e-05
2.90823e-05
-2.51176e-05
2.95267e-05
-3.02545e-05
2.9545e-05
-3.64543e-05
2.97146e-05
-3.90818e-05
2.96796e-05
-4.02437e-05
2.94263e-05
-4.0353e-05
2.93228e-05
-3.42392e-05
2.81317e-05
-2.5476e-05
2.65158e-05
-1.31389e-05
2.54447e-05
-3.96274e-07
2.46795e-05
6.11142e-06
2.37416e-05
2.03532e-05
2.24327e-05
3.50138e-05
2.09731e-05
3.70416e-05
2.02266e-05
3.03682e-05
2.04628e-05
3.51659e-05
2.08006e-05
4.29404e-05
2.10552e-05
4.53661e-05
2.10574e-05
4.12521e-05
2.09491e-05
3.53647e-05
2.08391e-05
3.06634e-05
2.08015e-05
1.94374e-05
2.12986e-05
5.52514e-06
2.11737e-05
-4.77212e-06
2.05963e-05
-1.30304e-05
1.94967e-05
-2.82296e-05
1.91835e-05
-4.00633e-05
1.73196e-05
-4.03845e-05
1.64148e-05
-2.96597e-05
1.57684e-05
-2.48939e-05
1.49622e-05
-2.00366e-05
1.58128e-05
-3.35456e-05
1.5121e-05
-4.41151e-05
1.59189e-05
-4.99829e-05
1.74896e-05
-4.19638e-05
1.84171e-05
-2.44346e-05
1.85326e-05
-1.67478e-05
1.8212e-05
-6.68153e-06
1.85529e-05
8.79661e-06
1.86041e-05
2.08836e-05
1.91656e-05
3.01256e-05
1.93126e-05
4.611e-05
1.89e-05
5.51269e-05
1.76843e-05
5.18801e-05
1.68033e-05
4.10154e-05
1.66987e-05
3.77904e-05
1.74789e-05
3.46376e-05
1.84932e-05
3.57847e-05
2.01397e-05
2.93894e-05
2.13638e-05
2.89996e-05
2.10324e-05
1.46326e-05
2.19848e-05
1.12911e-05
2.30897e-05
-1.48482e-07
2.26148e-05
-6.48924e-06
2.16442e-05
-1.64521e-05
1.96974e-05
-1.34695e-05
1.94838e-05
-2.57601e-05
1.99143e-05
-2.09684e-05
2.04454e-05
-2.62173e-05
1.94167e-05
-2.04161e-05
1.99846e-05
-1.76598e-05
1.83937e-05
-1.62778e-06
1.91366e-05
-9.48295e-06
1.82402e-05
-4.212e-06
1.9104e-05
-3.87574e-07
1.71133e-05
1.66604e-05
1.83623e-05
6.91508e-06
1.68888e-05
1.2365e-05
1.8851e-05
1.66933e-06
1.55447e-05
1.16925e-05
1.84693e-05
5.30102e-06
1.77155e-05
3.0601e-05
2.22028e-05
3.39013e-05
7.23869e-05
2.11756e-05
1.86085e-05
-6.78288e-07
1.93606e-05
8.3363e-07
1.95297e-05
1.02779e-06
1.97108e-05
-2.13925e-07
2.015e-05
-5.13541e-07
2.09063e-05
-1.66762e-06
2.17177e-05
-1.4463e-06
2.28321e-05
-1.97396e-07
2.47483e-05
-3.38878e-06
2.62329e-05
-3.4219e-06
2.74216e-05
-5.90812e-06
2.82342e-05
-1.1483e-05
2.87396e-05
-1.1749e-05
2.99152e-05
-1.12596e-05
2.94953e-05
-1.23364e-05
2.93908e-05
-1.10146e-05
3.02618e-05
-8.29874e-06
3.02277e-05
-5.78263e-06
3.0148e-05
-5.301e-06
3.02162e-05
-5.21087e-06
3.00997e-05
-7.79467e-06
2.99051e-05
-1.12766e-05
2.99433e-05
-1.17962e-05
3.02069e-05
-1.48905e-05
2.98081e-05
-1.89021e-05
2.90578e-05
-2.12768e-05
2.87306e-05
-2.47903e-05
2.84729e-05
-2.99969e-05
2.79562e-05
-3.59375e-05
2.78545e-05
-3.89802e-05
2.78604e-05
-4.02496e-05
2.74307e-05
-3.99233e-05
2.69394e-05
-3.3748e-05
2.56075e-05
-2.41441e-05
2.40017e-05
-1.15331e-05
2.32446e-05
3.60847e-07
2.26762e-05
6.67981e-06
2.19474e-05
2.1082e-05
2.09749e-05
3.59863e-05
2.00413e-05
3.79752e-05
1.9776e-05
3.06335e-05
2.04576e-05
3.44844e-05
2.11402e-05
4.22577e-05
2.15817e-05
4.49246e-05
2.18829e-05
4.09509e-05
2.2159e-05
3.50886e-05
2.23861e-05
3.04363e-05
2.25846e-05
1.92389e-05
2.29911e-05
5.11865e-06
2.26591e-05
-4.44015e-06
2.19972e-05
-1.23685e-05
2.0893e-05
-2.71254e-05
2.00373e-05
-3.92077e-05
1.79226e-05
-3.82697e-05
1.68114e-05
-2.85485e-05
1.52435e-05
-2.3326e-05
1.46569e-05
-1.94499e-05
1.43678e-05
-3.32566e-05
1.2706e-05
-4.24533e-05
1.38765e-05
-5.11533e-05
1.58154e-05
-4.39027e-05
1.67886e-05
-2.54077e-05
1.6893e-05
-1.68522e-05
1.64006e-05
-6.18918e-06
1.67726e-05
8.42465e-06
1.68901e-05
2.07661e-05
1.75722e-05
2.94435e-05
1.80418e-05
4.56405e-05
1.79383e-05
5.52304e-05
1.70707e-05
5.27476e-05
1.68279e-05
4.12582e-05
1.70462e-05
3.75721e-05
1.77173e-05
3.39666e-05
1.89112e-05
3.45908e-05
2.11992e-05
2.71015e-05
2.30949e-05
2.71038e-05
2.25997e-05
1.51278e-05
2.37528e-05
1.0138e-05
2.44198e-05
-8.1552e-07
2.31971e-05
-5.26653e-06
2.15915e-05
-1.48465e-05
2.04427e-05
-1.23207e-05
2.06759e-05
-2.59933e-05
2.11487e-05
-2.14412e-05
2.13889e-05
-2.64574e-05
2.01473e-05
-1.91745e-05
2.05837e-05
-1.80962e-05
1.89797e-05
-2.38076e-08
1.96385e-05
-1.01417e-05
1.8398e-05
-2.97154e-06
1.93739e-05
-1.36351e-06
1.7329e-05
1.87053e-05
1.92931e-05
4.95098e-06
1.80011e-05
1.3657e-05
2.10734e-05
-1.40291e-06
1.70826e-05
1.56833e-05
2.0296e-05
2.08761e-06
1.94627e-05
3.14343e-05
2.64374e-05
2.69266e-05
7.2584e-05
2.62402e-05
2.3323e-05
-8.32399e-07
2.41073e-05
4.92839e-08
2.45588e-05
5.76298e-07
2.46763e-05
-3.31435e-07
2.52307e-05
-1.06795e-06
2.58653e-05
-2.30223e-06
2.64413e-05
-2.02231e-06
2.78207e-05
-1.57674e-06
2.88478e-05
-4.4159e-06
2.99726e-05
-4.54668e-06
3.15722e-05
-7.50776e-06
3.15773e-05
-1.14881e-05
3.14486e-05
-1.16203e-05
3.22708e-05
-1.20817e-05
3.14996e-05
-1.15653e-05
3.09529e-05
-1.04679e-05
3.11209e-05
-8.46666e-06
3.12095e-05
-5.87131e-06
3.14438e-05
-5.53526e-06
3.12733e-05
-5.04034e-06
3.07029e-05
-7.22429e-06
2.97557e-05
-1.03295e-05
2.92745e-05
-1.13149e-05
2.92894e-05
-1.49054e-05
2.86316e-05
-1.82443e-05
2.75435e-05
-2.01887e-05
2.70343e-05
-2.42811e-05
2.68333e-05
-2.97959e-05
2.62398e-05
-3.53439e-05
2.58017e-05
-3.85421e-05
2.55578e-05
-4.00058e-05
2.49357e-05
-3.93011e-05
2.41674e-05
-3.29796e-05
2.27755e-05
-2.27522e-05
2.12809e-05
-1.00385e-05
2.08828e-05
7.58875e-07
2.04394e-05
7.12325e-06
1.97891e-05
2.17323e-05
1.91344e-05
3.6641e-05
1.87684e-05
3.83412e-05
1.90767e-05
3.03252e-05
2.02432e-05
3.3318e-05
2.13046e-05
4.11963e-05
2.19951e-05
4.42341e-05
2.26462e-05
4.02999e-05
2.33443e-05
3.43904e-05
2.37956e-05
2.99851e-05
2.40673e-05
1.89672e-05
2.43539e-05
4.83206e-06
2.38798e-05
-3.96608e-06
2.31515e-05
-1.16402e-05
2.21564e-05
-2.61303e-05
2.08734e-05
-3.79247e-05
1.86122e-05
-3.60085e-05
1.69077e-05
-2.6844e-05
1.47992e-05
-2.12176e-05
1.43669e-05
-1.90176e-05
1.26376e-05
-3.15273e-05
1.09002e-05
-4.0716e-05
1.24185e-05
-5.26716e-05
1.40649e-05
-4.55491e-05
1.50174e-05
-2.63602e-05
1.50944e-05
-1.69292e-05
1.44833e-05
-5.57805e-06
1.4967e-05
7.94094e-06
1.54646e-05
2.02685e-05
1.62308e-05
2.86773e-05
1.70842e-05
4.47871e-05
1.72135e-05
5.51011e-05
1.64648e-05
5.34963e-05
1.65136e-05
4.12094e-05
1.69362e-05
3.71495e-05
1.7841e-05
3.30618e-05
1.94486e-05
3.29832e-05
2.18604e-05
2.46897e-05
2.40601e-05
2.49041e-05
2.36042e-05
1.55837e-05
2.46573e-05
9.0849e-06
2.47267e-05
-8.84885e-07
2.37039e-05
-4.24374e-06
2.23319e-05
-1.34745e-05
2.19912e-05
-1.19799e-05
2.20575e-05
-2.60597e-05
2.22877e-05
-2.16714e-05
2.2052e-05
-2.62217e-05
2.07547e-05
-1.78771e-05
2.10562e-05
-1.83977e-05
1.96074e-05
1.42496e-06
2.00226e-05
-1.05569e-05
1.84605e-05
-1.4095e-06
1.92757e-05
-2.17867e-06
1.72254e-05
2.07556e-05
1.91863e-05
2.9901e-06
1.85468e-05
1.42964e-05
2.30789e-05
-5.93503e-06
1.89265e-05
1.98358e-05
2.27126e-05
-1.69854e-06
2.08736e-05
3.32733e-05
2.93204e-05
1.84799e-05
7.15158e-05
3.03887e-05
2.76483e-05
-6.11704e-07
2.8135e-05
-4.37408e-07
2.88195e-05
-1.08211e-07
2.87428e-05
-2.54768e-07
2.91948e-05
-1.51994e-06
2.98417e-05
-2.94911e-06
3.0134e-05
-2.31462e-06
3.15419e-05
-2.98463e-06
3.22376e-05
-5.11155e-06
3.30926e-05
-5.40169e-06
3.39876e-05
-8.40279e-06
3.35446e-05
-1.1045e-05
3.36163e-05
-1.16921e-05
3.35154e-05
-1.19808e-05
3.25984e-05
-1.06483e-05
3.208e-05
-9.94948e-06
3.13322e-05
-7.7189e-06
3.12046e-05
-5.74367e-06
3.13475e-05
-5.67821e-06
3.11361e-05
-4.82889e-06
3.08043e-05
-6.89256e-06
2.9565e-05
-9.09016e-06
2.87912e-05
-1.05411e-05
2.84708e-05
-1.4585e-05
2.70806e-05
-1.68541e-05
2.58177e-05
-1.89257e-05
2.56767e-05
-2.41402e-05
2.54445e-05
-2.95638e-05
2.44217e-05
-3.43211e-05
2.35262e-05
-3.76466e-05
2.29527e-05
-3.94323e-05
2.2105e-05
-3.84534e-05
2.11016e-05
-3.19762e-05
1.9693e-05
-2.13437e-05
1.84216e-05
-8.76705e-06
1.83589e-05
8.21526e-07
1.79411e-05
7.54108e-06
1.73116e-05
2.23618e-05
1.70933e-05
3.68593e-05
1.73868e-05
3.80478e-05
1.82239e-05
2.94881e-05
1.97229e-05
3.18189e-05
2.12534e-05
3.96658e-05
2.24431e-05
4.30444e-05
2.35453e-05
3.91977e-05
2.44227e-05
3.3513e-05
2.48747e-05
2.95331e-05
2.51672e-05
1.86746e-05
2.54038e-05
4.59547e-06
2.48166e-05
-3.37884e-06
2.40153e-05
-1.08389e-05
2.30711e-05
-2.51861e-05
2.14987e-05
-3.63522e-05
1.91712e-05
-3.3681e-05
1.68442e-05
-2.4517e-05
1.45811e-05
-1.89545e-05
1.42108e-05
-1.86473e-05
1.17054e-05
-2.90219e-05
1.05275e-05
-3.95381e-05
1.16565e-05
-5.38005e-05
1.23887e-05
-4.62814e-05
1.30742e-05
-2.70457e-05
1.31564e-05
-1.70114e-05
1.25764e-05
-4.9981e-06
1.28924e-05
7.62492e-06
1.33694e-05
1.97915e-05
1.41689e-05
2.78778e-05
1.55186e-05
4.34374e-05
1.60406e-05
5.4579e-05
1.58384e-05
5.36985e-05
1.61466e-05
4.09012e-05
1.66138e-05
3.66823e-05
1.78869e-05
3.17886e-05
2.00073e-05
3.08628e-05
2.20305e-05
2.26665e-05
2.40961e-05
2.28386e-05
2.41029e-05
1.55769e-05
2.51986e-05
7.98915e-06
2.46017e-05
-2.87916e-07
2.36385e-05
-3.28061e-06
2.23766e-05
-1.22127e-05
2.29147e-05
-1.2518e-05
2.30027e-05
-2.61476e-05
2.30233e-05
-2.1692e-05
2.2379e-05
-2.55774e-05
2.11558e-05
-1.6654e-05
2.11276e-05
-1.83695e-05
1.97678e-05
2.78474e-06
1.98752e-05
-1.06643e-05
1.82855e-05
1.80236e-07
1.92881e-05
-3.18127e-06
1.73171e-05
2.27266e-05
1.81462e-05
2.16098e-06
1.79295e-05
1.45131e-05
2.32032e-05
-1.12087e-05
2.03711e-05
2.26679e-05
2.56431e-05
-6.97055e-06
2.18873e-05
3.70291e-05
3.08116e-05
9.55563e-06
6.89939e-05
3.33334e-05
3.086e-05
-6.88536e-07
3.12226e-05
-7.99997e-07
3.19387e-05
-8.24306e-07
3.20977e-05
-4.13785e-07
3.24624e-05
-1.88458e-06
3.25684e-05
-3.05511e-06
3.27831e-05
-2.52938e-06
3.39604e-05
-4.16189e-06
3.41601e-05
-5.31121e-06
3.50226e-05
-6.26419e-06
3.52485e-05
-8.62872e-06
3.45058e-05
-1.03024e-05
3.45653e-05
-1.17515e-05
3.36282e-05
-1.10438e-05
3.28438e-05
-9.86383e-06
3.2353e-05
-9.45873e-06
3.12484e-05
-6.61431e-06
3.10601e-05
-5.55535e-06
3.07594e-05
-5.37746e-06
3.05462e-05
-4.61569e-06
3.02673e-05
-6.61372e-06
2.89727e-05
-7.7956e-06
2.84593e-05
-1.00277e-05
2.77063e-05
-1.3832e-05
2.58102e-05
-1.49579e-05
2.49671e-05
-1.80826e-05
2.48673e-05
-2.40404e-05
2.39067e-05
-2.86031e-05
2.2247e-05
-3.26615e-05
2.0891e-05
-3.62906e-05
1.99756e-05
-3.85169e-05
1.89665e-05
-3.74443e-05
1.78596e-05
-3.08693e-05
1.66012e-05
-2.00852e-05
1.57109e-05
-7.87678e-06
1.58564e-05
6.76074e-07
1.53659e-05
8.03153e-06
1.46983e-05
2.30294e-05
1.48383e-05
3.67193e-05
1.58237e-05
3.70623e-05
1.71949e-05
2.81169e-05
1.90071e-05
3.00067e-05
2.10288e-05
3.76441e-05
2.27131e-05
4.13602e-05
2.4098e-05
3.78127e-05
2.50061e-05
3.26048e-05
2.54751e-05
2.90641e-05
2.59291e-05
1.82206e-05
2.61714e-05
4.35318e-06
2.55101e-05
-2.71751e-06
2.47748e-05
-1.01036e-05
2.39039e-05
-2.43152e-05
2.20432e-05
-3.44916e-05
1.94719e-05
-3.11097e-05
1.67157e-05
-2.17608e-05
1.43918e-05
-1.66306e-05
1.39284e-05
-1.8184e-05
1.15121e-05
-2.66055e-05
1.07851e-05
-3.88111e-05
1.05268e-05
-5.35423e-05
1.02037e-05
-4.59583e-05
1.08561e-05
-2.7698e-05
1.09887e-05
-1.7144e-05
1.0355e-05
-4.36431e-06
1.07705e-05
7.20934e-06
1.19305e-05
1.86315e-05
1.27329e-05
2.70755e-05
1.43046e-05
4.18657e-05
1.52443e-05
5.36394e-05
1.53111e-05
5.36317e-05
1.54633e-05
4.0749e-05
1.67321e-05
3.54134e-05
1.80899e-05
3.04308e-05
2.02976e-05
2.86551e-05
2.21004e-05
2.08637e-05
2.38758e-05
2.10632e-05
2.44232e-05
1.50295e-05
2.55201e-05
6.89227e-06
2.46755e-05
5.56686e-07
2.42291e-05
-2.83417e-06
2.31177e-05
-1.11013e-05
2.40558e-05
-1.34561e-05
2.40279e-05
-2.61197e-05
2.35516e-05
-2.12157e-05
2.27064e-05
-2.47321e-05
2.15451e-05
-1.54927e-05
2.07877e-05
-1.76121e-05
1.95705e-05
4.00202e-06
1.94031e-05
-1.0497e-05
1.78289e-05
1.75446e-06
1.88935e-05
-4.24585e-06
1.77188e-05
2.39013e-05
1.74339e-05
2.4458e-06
1.55537e-05
1.63933e-05
1.97607e-05
-1.54157e-05
1.89674e-05
2.34612e-05
2.59553e-05
-1.39585e-05
2.24306e-05
4.05538e-05
3.10226e-05
9.63629e-07
6.51081e-05
3.49083e-05
3.26674e-05
-1.21292e-06
3.33329e-05
-1.46549e-06
3.37288e-05
-1.22022e-06
3.38674e-05
-5.5239e-07
3.41401e-05
-2.15729e-06
3.39996e-05
-2.91461e-06
3.42807e-05
-2.81051e-06
3.47606e-05
-4.64172e-06
3.48373e-05
-5.38796e-06
3.56664e-05
-7.09329e-06
3.53173e-05
-8.27957e-06
3.47873e-05
-9.77243e-06
3.45499e-05
-1.15141e-05
3.33296e-05
-9.82345e-06
3.2876e-05
-9.41026e-06
3.20945e-05
-8.67721e-06
3.10972e-05
-5.61697e-06
3.08799e-05
-5.33811e-06
3.02065e-05
-4.70399e-06
3.02937e-05
-4.70289e-06
2.99279e-05
-6.2479e-06
2.87411e-05
-6.60887e-06
2.83788e-05
-9.66542e-06
2.68719e-05
-1.23252e-05
2.49694e-05
-1.30553e-05
2.45929e-05
-1.77062e-05
2.38092e-05
-2.32567e-05
2.18049e-05
-2.65988e-05
1.96678e-05
-3.05243e-05
1.80865e-05
-3.47094e-05
1.68939e-05
-3.73243e-05
1.57049e-05
-3.62552e-05
1.45862e-05
-2.97507e-05
1.35808e-05
-1.90798e-05
1.31482e-05
-7.44418e-06
1.33142e-05
5.10068e-07
1.25675e-05
8.77818e-06
1.19034e-05
2.36936e-05
1.24889e-05
3.61338e-05
1.4134e-05
3.54172e-05
1.59639e-05
2.62871e-05
1.80398e-05
2.79307e-05
2.04393e-05
3.52446e-05
2.2511e-05
3.92885e-05
2.41394e-05
3.61844e-05
2.5083e-05
3.16612e-05
2.56824e-05
2.84647e-05
2.63867e-05
1.75164e-05
2.66369e-05
4.10289e-06
2.595e-05
-2.0306e-06
2.52989e-05
-9.45247e-06
2.44066e-05
-2.34229e-05
2.23584e-05
-3.24435e-05
1.94701e-05
-2.82214e-05
1.6497e-05
-1.87877e-05
1.41515e-05
-1.4285e-05
1.34038e-05
-1.74363e-05
1.15034e-05
-2.4705e-05
1.06607e-05
-3.79685e-05
8.46931e-06
-5.13508e-05
7.49425e-06
-4.49832e-05
8.78153e-06
-2.89853e-05
9.20278e-06
-1.75653e-05
8.38211e-06
-3.54363e-06
8.7104e-06
6.88105e-06
1.01192e-05
1.72227e-05
1.09651e-05
2.62296e-05
1.26586e-05
4.01721e-05
1.4181e-05
5.2117e-05
1.45093e-05
5.33034e-05
1.47166e-05
4.05417e-05
1.6927e-05
3.3203e-05
1.81095e-05
2.92483e-05
2.04085e-05
2.63561e-05
2.22512e-05
1.90209e-05
2.38264e-05
1.9488e-05
2.50177e-05
1.38382e-05
2.60789e-05
5.83102e-06
2.5167e-05
1.46866e-06
2.48744e-05
-2.54158e-06
2.39965e-05
-1.02234e-05
2.5199e-05
-1.46587e-05
2.49107e-05
-2.58314e-05
2.40492e-05
-2.03542e-05
2.32486e-05
-2.39315e-05
2.17785e-05
-1.40226e-05
2.00965e-05
-1.59302e-05
1.95137e-05
4.58485e-06
1.9209e-05
-1.01923e-05
1.7223e-05
3.74052e-06
1.80144e-05
-5.03725e-06
1.76619e-05
2.42538e-05
1.76355e-05
2.47219e-06
1.35558e-05
2.0473e-05
1.53679e-05
-1.72278e-05
1.41203e-05
2.47088e-05
2.02443e-05
-2.00825e-05
2.09605e-05
3.98376e-05
2.93536e-05
-7.42948e-06
5.94015e-05
3.50602e-05
3.44147e-05
-1.39917e-06
3.43123e-05
-1.363e-06
3.40824e-05
-9.90336e-07
3.42994e-05
-7.69369e-07
3.41112e-05
-1.96914e-06
3.39122e-05
-2.71562e-06
3.45554e-05
-3.45372e-06
3.45402e-05
-4.62655e-06
3.47265e-05
-5.57419e-06
3.51509e-05
-7.51775e-06
3.47611e-05
-7.88975e-06
3.47031e-05
-9.71437e-06
3.40899e-05
-1.0901e-05
3.32573e-05
-8.99078e-06
3.2987e-05
-9.13999e-06
3.19964e-05
-7.68662e-06
3.15243e-05
-5.14489e-06
3.10826e-05
-4.89636e-06
3.02788e-05
-3.90023e-06
3.04031e-05
-4.82722e-06
2.97259e-05
-5.57066e-06
2.88955e-05
-5.77849e-06
2.82874e-05
-9.05727e-06
2.6153e-05
-1.01908e-05
2.46491e-05
-1.15514e-05
2.41621e-05
-1.72192e-05
2.21979e-05
-2.12924e-05
1.93299e-05
-2.37308e-05
1.70027e-05
-2.81972e-05
1.52006e-05
-3.29072e-05
1.3604e-05
-3.57278e-05
1.22389e-05
-3.48901e-05
1.12114e-05
-2.87232e-05
1.05549e-05
-1.84233e-05
1.05933e-05
-7.48252e-06
1.06043e-05
4.98985e-07
9.46141e-06
9.92111e-06
8.83197e-06
2.4323e-05
9.95137e-06
3.50144e-05
1.23002e-05
3.30683e-05
1.45522e-05
2.4035e-05
1.67915e-05
2.56915e-05
1.93937e-05
3.26423e-05
2.1747e-05
3.69352e-05
2.35999e-05
3.43315e-05
2.45829e-05
3.06782e-05
2.54934e-05
2.75541e-05
2.66021e-05
1.64077e-05
2.68286e-05
3.87642e-06
2.61452e-05
-1.34718e-06
2.56629e-05
-8.97015e-06
2.47814e-05
-2.25415e-05
2.24946e-05
-3.01567e-05
1.92727e-05
-2.49995e-05
1.62578e-05
-1.57728e-05
1.39768e-05
-1.2004e-05
1.27768e-05
-1.62363e-05
1.13432e-05
-2.32714e-05
9.86787e-06
-3.64932e-05
6.20114e-06
-4.76841e-05
5.24935e-06
-4.40314e-05
7.3035e-06
-3.10395e-05
7.34245e-06
-1.76042e-05
6.40913e-06
-2.61031e-06
7.54552e-06
5.74466e-06
8.72047e-06
1.60477e-05
9.40328e-06
2.55468e-05
1.06299e-05
3.89454e-05
1.29094e-05
4.98376e-05
1.39055e-05
5.23073e-05
1.43292e-05
4.0118e-05
1.63726e-05
3.11596e-05
1.79249e-05
2.76961e-05
2.05172e-05
2.37638e-05
2.19784e-05
1.75598e-05
2.38526e-05
1.76138e-05
2.57936e-05
1.18972e-05
2.6687e-05
4.93759e-06
2.58635e-05
2.2922e-06
2.54341e-05
-2.11225e-06
2.50355e-05
-9.82477e-06
2.62379e-05
-1.58611e-05
2.54446e-05
-2.50381e-05
2.44862e-05
-1.93958e-05
2.36429e-05
-2.30882e-05
2.15035e-05
-1.18832e-05
1.94923e-05
-1.3919e-05
1.96609e-05
4.41627e-06
1.92065e-05
-9.73794e-06
1.67035e-05
6.24351e-06
1.71526e-05
-5.48631e-06
1.76859e-05
2.37204e-05
1.91691e-05
9.89057e-07
1.53901e-05
2.4252e-05
1.59934e-05
-1.78312e-05
1.23878e-05
2.83145e-05
1.54115e-05
-2.31062e-05
1.82926e-05
3.69565e-05
2.52679e-05
-1.44048e-05
5.09974e-05
3.36721e-05
3.43723e-05
-1.66324e-06
3.41086e-05
-1.09936e-06
3.37113e-05
-5.93023e-07
3.41628e-05
-1.2208e-06
3.37347e-05
-1.54109e-06
3.379e-05
-2.77095e-06
3.45112e-05
-4.17489e-06
3.43548e-05
-4.47017e-06
3.46239e-05
-5.84323e-06
3.45675e-05
-7.4614e-06
3.44888e-05
-7.81105e-06
3.45085e-05
-9.73404e-06
3.36879e-05
-1.00804e-05
3.34081e-05
-8.71097e-06
3.30514e-05
-8.78334e-06
3.21846e-05
-6.81979e-06
3.20561e-05
-5.01644e-06
3.14276e-05
-4.26779e-06
3.07918e-05
-3.26442e-06
3.04369e-05
-4.47241e-06
2.9253e-05
-4.38673e-06
2.85744e-05
-5.09987e-06
2.75263e-05
-8.00923e-06
2.54626e-05
-8.12706e-06
2.45263e-05
-1.06151e-05
2.3412e-05
-1.61049e-05
2.02944e-05
-1.81749e-05
1.67981e-05
-2.02344e-05
1.42677e-05
-2.56668e-05
1.21671e-05
-3.08066e-05
1.01923e-05
-3.37529e-05
8.64136e-06
-3.33392e-05
7.6993e-06
-2.77812e-05
7.3104e-06
-1.80344e-05
7.62208e-06
-7.79421e-06
7.58362e-06
5.37444e-07
6.3221e-06
1.11826e-05
5.91458e-06
2.47306e-05
7.69283e-06
3.32362e-05
1.06648e-05
3.00963e-05
1.31643e-05
2.15356e-05
1.53631e-05
2.34928e-05
1.79036e-05
3.01018e-05
2.04177e-05
3.44211e-05
2.25086e-05
3.22405e-05
2.36984e-05
2.94884e-05
2.51583e-05
2.60942e-05
2.66319e-05
1.49341e-05
2.67497e-05
3.7586e-06
2.61077e-05
-7.05163e-07
2.58004e-05
-8.66291e-06
2.48825e-05
-2.16235e-05
2.234e-05
-2.76142e-05
1.89182e-05
-2.15776e-05
1.58858e-05
-1.27404e-05
1.37658e-05
-9.88406e-06
1.22194e-05
-1.46898e-05
1.09884e-05
-2.20405e-05
8.73137e-06
-3.42361e-05
4.42875e-06
-4.33815e-05
3.57802e-06
-4.31807e-05
5.92211e-06
-3.33835e-05
5.47137e-06
-1.71535e-05
4.57137e-06
-1.71031e-06
5.87117e-06
4.44486e-06
6.28293e-06
1.5636e-05
7.27082e-06
2.45589e-05
8.81641e-06
3.73998e-05
1.18577e-05
4.67963e-05
1.33516e-05
5.08134e-05
1.38934e-05
3.95761e-05
1.55431e-05
2.951e-05
1.79088e-05
2.53303e-05
2.03012e-05
2.13714e-05
2.1401e-05
1.646e-05
2.41944e-05
1.48204e-05
2.63867e-05
9.70487e-06
2.65145e-05
4.80974e-06
2.57157e-05
3.09108e-06
2.5575e-05
-1.97161e-06
2.6202e-05
-1.04517e-05
2.73307e-05
-1.69899e-05
2.62652e-05
-2.39726e-05
2.52657e-05
-1.83963e-05
2.37584e-05
-2.15809e-05
2.10698e-05
-9.19458e-06
1.9173e-05
-1.20222e-05
1.97656e-05
3.82372e-06
1.92531e-05
-9.22548e-06
1.6978e-05
8.51861e-06
1.68847e-05
-5.39298e-06
1.72391e-05
2.3366e-05
2.04852e-05
-2.25706e-06
1.88303e-05
2.59069e-05
2.01114e-05
-1.91122e-05
1.70315e-05
3.13944e-05
1.72422e-05
-2.33169e-05
1.73447e-05
3.6854e-05
2.03354e-05
-1.73954e-05
4.01775e-05
3.11552e-05
3.37973e-05
-1.76683e-06
3.35987e-05
-9.00771e-07
3.35675e-05
-5.61782e-07
3.4193e-05
-1.84634e-06
3.40562e-05
-1.40421e-06
3.43167e-05
-3.03146e-06
3.4464e-05
-4.32224e-06
3.4219e-05
-4.22519e-06
3.45276e-05
-6.15182e-06
3.426e-05
-7.19381e-06
3.43035e-05
-7.85448e-06
3.42396e-05
-9.67015e-06
3.36185e-05
-9.45927e-06
3.3552e-05
-8.64449e-06
3.29958e-05
-8.22709e-06
3.23457e-05
-6.16972e-06
3.21219e-05
-4.79265e-06
3.13129e-05
-3.45881e-06
3.07299e-05
-2.68145e-06
2.98264e-05
-3.56885e-06
2.84279e-05
-2.98824e-06
2.77197e-05
-4.39167e-06
2.63829e-05
-6.67245e-06
2.48188e-05
-6.56293e-06
2.41339e-05
-9.93021e-06
2.20333e-05
-1.40043e-05
1.79428e-05
-1.40844e-05
1.41179e-05
-1.64096e-05
1.14579e-05
-2.30069e-05
9.10203e-06
-2.84507e-05
6.76317e-06
-3.14141e-05
4.95811e-06
-3.15341e-05
3.95992e-06
-2.6783e-05
3.76857e-06
-1.7843e-05
4.24021e-06
-8.26585e-06
4.10952e-06
6.68133e-07
2.99068e-06
1.23015e-05
3.21632e-06
2.45049e-05
5.6163e-06
3.08362e-05
8.8213e-06
2.68913e-05
1.13851e-05
1.89718e-05
1.3603e-05
2.12748e-05
1.61722e-05
2.75327e-05
1.88682e-05
3.17251e-05
2.11821e-05
2.99266e-05
2.27108e-05
2.79598e-05
2.47764e-05
2.40285e-05
2.64563e-05
1.32542e-05