/*--------------------------------*- C++ -*----------------------------------*\
| =========                 |                                                 |
| \\      /  F ield         | OpenFOAM: The Open Source CFD Toolbox           |
|  \\    /   O peration     | Version:  2.4.0                                 |
|   \\  /    A nd           | Web:      www.OpenFOAM.org                      |
|    \\/     M anipulation  |                                                 |
\*---------------------------------------------------------------------------*/
FoamFile
{
    version     2.0;
    format      ascii;
    class       surfaceScalarField;
    location    "0.15";
    object      phi_0;
}
// * * * * * * * * * * * * * * * * * * * * * * * * * * * * * * * * * * * * * //

dimensions      [0 3 -1 0 0 0 0];

internalField   nonuniform List<scalar> 
8640
(
1.14621e-05
1.35379e-05
7.17665e-06
4.28546e-06
5.91846e-06
1.25818e-06
5.37443e-06
5.44035e-07
5.10121e-06
2.73225e-07
4.92688e-06
1.74327e-07
4.84791e-06
7.89683e-08
4.79764e-06
5.02718e-08
4.46868e-06
3.28961e-07
-1.6499e-06
6.11858e-06
2.1046e-05
1.74919e-05
1.74512e-05
7.88023e-06
1.5512e-05
3.19739e-06
1.42732e-05
1.78289e-06
1.34813e-05
1.06507e-06
1.30271e-05
6.28512e-07
1.27393e-05
3.66801e-07
1.25311e-05
2.58467e-07
1.21761e-05
6.83924e-07
-2.13649e-06
1.26627e-05
2.56987e-05
1.67932e-05
2.4101e-05
9.47798e-06
2.26066e-05
4.69174e-06
2.12645e-05
3.12502e-06
2.02028e-05
2.12681e-06
1.95839e-05
1.24738e-06
1.91235e-05
8.27186e-07
1.88047e-05
5.77297e-07
1.8552e-05
9.36622e-07
-1.74101e-06
1.81565e-05
2.74627e-05
1.43305e-05
2.77341e-05
9.20659e-06
2.73614e-05
5.0644e-06
2.65673e-05
3.91917e-06
2.56177e-05
3.07637e-06
2.50252e-05
1.83989e-06
2.45114e-05
1.34096e-06
2.41026e-05
9.86125e-07
2.40569e-05
9.82322e-07
-8.48022e-07
2.31639e-05
2.76666e-05
1.16639e-05
2.89046e-05
7.96851e-06
2.95878e-05
4.38124e-06
2.97399e-05
3.76709e-06
2.9341e-05
3.47528e-06
2.90548e-05
2.12604e-06
2.87092e-05
1.68654e-06
2.82976e-05
1.39775e-06
2.84282e-05
8.51701e-07
-2.68992e-07
2.78492e-05
2.75352e-05
9.12876e-06
2.89543e-05
6.54934e-06
2.99603e-05
3.37527e-06
3.07692e-05
2.95822e-06
3.10442e-05
3.20022e-06
3.12653e-05
1.90493e-06
3.13513e-05
1.60053e-06
3.11332e-05
1.61588e-06
3.13835e-05
6.01451e-07
3.45743e-07
3.07687e-05
2.74205e-05
6.7083e-06
2.89594e-05
5.01043e-06
2.98652e-05
2.46945e-06
3.07483e-05
2.07515e-06
3.13433e-05
2.60516e-06
3.18428e-05
1.4055e-06
3.23248e-05
1.11848e-06
3.24221e-05
1.5186e-06
3.279e-05
2.3351e-07
9.83939e-07
3.21518e-05
2.72995e-05
4.40884e-06
2.9034e-05
3.27589e-06
2.97992e-05
1.70428e-06
3.05974e-05
1.27693e-06
3.12803e-05
1.92221e-06
3.18092e-05
8.76647e-07
3.23823e-05
5.45335e-07
3.27127e-05
1.18826e-06
3.31974e-05
-2.51267e-07
-8.46707e-08
3.42661e-05
2.72473e-05
2.16156e-06
2.89613e-05
1.56189e-06
2.96999e-05
9.6571e-07
3.05023e-05
4.74484e-07
3.12175e-05
1.20697e-06
3.17605e-05
3.3373e-07
3.23275e-05
-2.16992e-08
3.27561e-05
7.59627e-07
3.32481e-05
-7.43266e-07
-9.67612e-07
3.41311e-05
2.72385e-05
-7.69928e-08
2.89155e-05
-1.1507e-07
2.96495e-05
2.31724e-07
3.04298e-05
-3.05849e-07
3.11681e-05
4.68656e-07
3.17816e-05
-2.79696e-07
3.22933e-05
-5.33417e-07
3.2751e-05
3.0192e-07
3.32461e-05
-1.23833e-06
-1.40422e-06
3.36827e-05
2.72224e-05
-2.29934e-06
2.8923e-05
-1.81572e-06
2.96525e-05
-4.97797e-07
3.03809e-05
-1.03423e-06
3.11932e-05
-3.43603e-07
3.18267e-05
-9.13209e-07
3.22524e-05
-9.5916e-07
3.27756e-05
-2.21289e-07
3.3145e-05
-1.6077e-06
-1.83801e-06
3.35788e-05
2.72628e-05
-4.56219e-06
2.89487e-05
-3.50155e-06
2.96541e-05
-1.20317e-06
3.04353e-05
-1.81552e-06
3.12916e-05
-1.19983e-06
3.18133e-05
-1.4349e-06
3.22495e-05
-1.39539e-06
3.27991e-05
-7.70913e-07
3.31638e-05
-1.97243e-06
-2.67641e-06
3.40023e-05
2.73365e-05
-6.89864e-06
2.8921e-05
-5.08614e-06
2.97214e-05
-2.00352e-06
3.056e-05
-2.65409e-06
3.13584e-05
-1.99829e-06
3.18268e-05
-1.90332e-06
3.23071e-05
-1.87569e-06
3.2799e-05
-1.26276e-06
3.3264e-05
-2.43747e-06
-3.42086e-06
3.40085e-05
2.73812e-05
-9.27982e-06
2.88073e-05
-6.51228e-06
2.98855e-05
-3.08168e-06
3.06919e-05
-3.4605e-06
3.14316e-05
-2.73796e-06
3.18517e-05
-2.32345e-06
3.21993e-05
-2.22326e-06
3.25297e-05
-1.59319e-06
3.28322e-05
-2.74003e-06
-3.48569e-06
3.28971e-05
2.7474e-05
-1.17538e-05
2.88874e-05
-7.9257e-06
3.00326e-05
-4.2268e-06
3.06925e-05
-4.12047e-06
3.11312e-05
-3.17658e-06
3.12361e-05
-2.42842e-06
3.11982e-05
-2.18537e-06
3.11825e-05
-1.57747e-06
3.10297e-05
-2.58719e-06
-2.97721e-06
3.05212e-05
2.76306e-05
-1.43845e-05
2.88796e-05
-9.1747e-06
2.96363e-05
-4.98349e-06
2.9662e-05
-4.14609e-06
2.93971e-05
-2.91171e-06
2.89895e-05
-2.02081e-06
2.85528e-05
-1.7487e-06
2.82266e-05
-1.2513e-06
2.77175e-05
-2.07803e-06
-1.70212e-06
2.64424e-05
2.74371e-05
-1.68216e-05
2.77244e-05
-9.46199e-06
2.73895e-05
-4.64855e-06
2.65017e-05
-3.25827e-06
2.56467e-05
-2.05672e-06
2.49491e-05
-1.32323e-06
2.43459e-05
-1.14549e-06
2.39099e-05
-8.15334e-07
2.32763e-05
-1.44441e-06
-9.76218e-07
2.25504e-05
2.56806e-05
-1.75022e-05
2.40976e-05
-7.87898e-06
2.26232e-05
-3.1742e-06
2.12133e-05
-1.84835e-06
2.02061e-05
-1.04951e-06
1.95188e-05
-6.35918e-07
1.89488e-05
-5.75503e-07
1.85461e-05
-4.12601e-07
1.79047e-05
-8.03087e-07
-3.88253e-07
1.73168e-05
2.10372e-05
-1.35394e-05
1.74473e-05
-4.28912e-06
1.55217e-05
-1.2486e-06
1.42366e-05
-5.63242e-07
1.34662e-05
-2.79154e-07
1.29888e-05
-1.58518e-07
1.25774e-05
-1.6412e-07
1.2284e-05
-1.19149e-07
1.17542e-05
-2.733e-07
-3.68026e-08
1.14027e-05
1.14606e-05
7.17151e-06
5.92291e-06
5.35967e-06
5.08052e-06
4.922e-06
4.75788e-06
4.63873e-06
4.36543e-06
4.32863e-06
7.01614e-06
3.19793e-07
-1.21736e-06
8.05247e-06
2.11312e-06
-3.14945e-06
9.09129e-06
1.42084e-06
-2.45966e-06
9.88971e-06
4.41348e-07
-1.23977e-06
1.07735e-05
2.9641e-07
-1.18021e-06
1.2557e-05
-3.45095e-08
-1.74895e-06
1.4182e-05
1.05059e-06
-2.67562e-06
1.49585e-05
2.44822e-06
-3.22467e-06
1.6436e-05
1.7144e-07
-1.64896e-06
1.74956e-05
-9.87532e-07
-7.21316e-08
1.85045e-05
-3.67541e-06
2.66654e-06
2.00215e-05
-9.46069e-06
7.94373e-06
2.08782e-05
-1.09628e-05
1.0106e-05
2.2542e-05
-8.98187e-06
7.31813e-06
2.40303e-05
-1.18074e-05
1.03191e-05
2.43267e-05
-1.02362e-05
9.93978e-06
2.48714e-05
-6.51972e-06
5.97503e-06
2.57906e-05
-5.54436e-06
4.62513e-06
2.62173e-05
-4.96163e-06
4.53495e-06
2.65469e-05
-4.46929e-06
4.13971e-06
2.71471e-05
-7.36238e-06
6.76216e-06
2.73624e-05
-1.11887e-05
1.09733e-05
2.65784e-05
-1.20661e-05
1.28501e-05
2.74657e-05
-1.43827e-05
1.34954e-05
2.8299e-05
-1.95919e-05
1.87586e-05
2.7506e-05
-2.29283e-05
2.37213e-05
2.76253e-05
-2.50972e-05
2.49779e-05
2.90017e-05
-3.01053e-05
2.87289e-05
3.04699e-05
-3.67605e-05
3.52922e-05
3.14669e-05
-3.90881e-05
3.80911e-05
3.13354e-05
-4.0541e-05
4.06726e-05
3.11993e-05
-4.04738e-05
4.06098e-05
3.12559e-05
-3.39426e-05
3.38861e-05
3.00406e-05
-2.61647e-05
2.738e-05
2.84807e-05
-1.37723e-05
1.53322e-05
2.72713e-05
-9.49038e-07
2.1584e-06
2.6381e-05
5.84214e-06
-4.95185e-06
2.52615e-05
2.06195e-05
-1.95e-05
2.35731e-05
3.43374e-05
-3.26491e-05
2.15819e-05
3.50193e-05
-3.30281e-05
2.04373e-05
2.92955e-05
-2.81509e-05
2.03662e-05
3.59351e-05
-3.5864e-05
2.04904e-05
4.36823e-05
-4.38065e-05
2.05151e-05
4.54509e-05
-4.54755e-05
2.00468e-05
4.08428e-05
-4.03745e-05
1.95199e-05
3.49602e-05
-3.44334e-05
1.91093e-05
2.99677e-05
-2.95571e-05
1.89524e-05
1.82969e-05
-1.814e-05
1.9484e-05
5.02034e-06
-5.55189e-06
1.94209e-05
-5.53367e-06
5.59671e-06
1.8967e-05
-1.46495e-05
1.51034e-05
1.7866e-05
-3.07324e-05
3.18334e-05
1.79562e-05
-4.08212e-05
4.07311e-05
1.66649e-05
-4.18756e-05
4.31669e-05
1.57811e-05
-2.96966e-05
3.05805e-05
1.62404e-05
-2.50294e-05
2.457e-05
1.53025e-05
-2.12997e-05
2.22376e-05
1.65307e-05
-3.37215e-05
3.24933e-05
1.74501e-05
-4.56881e-05
4.47687e-05
1.81035e-05
-4.88364e-05
4.8183e-05
1.90909e-05
-3.89546e-05
3.79672e-05
1.9741e-05
-2.26118e-05
2.19617e-05
1.98901e-05
-1.62699e-05
1.61208e-05
1.98305e-05
-6.04925e-06
6.10885e-06
2.00389e-05
1.02569e-05
-1.04653e-05
2.01499e-05
2.17038e-05
-2.18148e-05
2.05275e-05
3.16698e-05
-3.20474e-05
2.0493e-05
4.72836e-05
-4.7249e-05
1.98963e-05
5.48033e-05
-5.42066e-05
1.8101e-05
5.00313e-05
-4.82361e-05
1.63955e-05
3.96288e-05
-3.79233e-05
1.62655e-05
3.74867e-05
-3.73567e-05
1.74383e-05
3.52515e-05
-3.64243e-05
1.81559e-05
3.66139e-05
-3.73315e-05
1.89779e-05
3.08158e-05
-3.16378e-05
1.9302e-05
2.95235e-05
-2.98475e-05
1.93859e-05
1.36485e-05
-1.37324e-05
2.05812e-05
1.18313e-05
-1.30267e-05
2.17415e-05
1.60569e-07
-1.32083e-06
2.16368e-05
-7.67931e-06
7.78404e-06
2.10141e-05
-1.76802e-05
1.83029e-05
1.88297e-05
-1.59207e-05
1.81051e-05
1.85662e-05
-2.62661e-05
2.65296e-05
1.87793e-05
-2.04504e-05
2.02373e-05
1.93154e-05
-2.56909e-05
2.51548e-05
1.8595e-05
-2.11488e-05
2.18692e-05
1.927e-05
-1.60922e-05
1.54171e-05
1.79912e-05
-2.98292e-06
4.26179e-06
1.84911e-05
-9.10237e-06
8.60249e-06
1.76034e-05
-4.95028e-06
5.83789e-06
1.83487e-05
1.26072e-06
-2.00597e-06
1.66958e-05
1.48482e-05
-1.31952e-05
1.73115e-05
7.58348e-06
-8.1992e-06
1.61282e-05
1.01435e-05
-8.96021e-06
1.691e-05
3.16897e-06
-3.95075e-06
1.46329e-05
7.97144e-06
-5.69439e-06
1.71238e-05
8.71578e-06
-1.12067e-05
1.58004e-05
3.03625e-05
-2.90391e-05
1.64348e-05
3.91185e-05
-3.97529e-05
7.18752e-05
-7.00594e-05
1.4619e-05
1.31224e-05
-1.39894e-07
1.35669e-05
1.66865e-06
1.37956e-05
1.19212e-06
1.42802e-05
-4.32299e-08
1.46848e-05
-1.08166e-07
1.55913e-05
-9.41064e-07
1.71395e-05
-4.97618e-07
1.87104e-05
8.7735e-07
2.04961e-05
-1.61426e-06
2.15661e-05
-2.05751e-06
2.31083e-05
-5.21763e-06
2.46854e-05
-1.10378e-05
2.49065e-05
-1.11839e-05
2.61163e-05
-1.01916e-05
2.71322e-05
-1.28233e-05
2.7601e-05
-1.0705e-05
2.80293e-05
-6.94806e-06
2.80164e-05
-5.5314e-06
2.82457e-05
-5.19094e-06
2.89576e-05
-5.18119e-06
2.97257e-05
-8.13047e-06
2.99543e-05
-1.14173e-05
2.95308e-05
-1.16426e-05
2.99189e-05
-1.47708e-05
2.97568e-05
-1.94298e-05
2.89106e-05
-2.20822e-05
2.90779e-05
-2.52645e-05
2.96208e-05
-3.06482e-05
2.97253e-05
-3.6865e-05
2.9925e-05
-3.92878e-05
2.98135e-05
-4.04295e-05
2.9548e-05
-4.02083e-05
2.93762e-05
-3.37708e-05
2.80727e-05
-2.48613e-05
2.64775e-05
-1.21771e-05
2.54417e-05
8.67542e-08
2.46859e-05
6.59802e-06
2.37178e-05
2.15876e-05
2.23505e-05
3.57047e-05
2.09029e-05
3.64669e-05
2.02429e-05
2.99554e-05
2.05431e-05
3.5635e-05
2.08634e-05
4.3362e-05
2.10749e-05
4.52394e-05
2.10855e-05
4.08322e-05
2.09916e-05
3.50541e-05
2.08985e-05
3.00608e-05
2.08872e-05
1.83082e-05
2.13444e-05
4.56313e-06
2.11323e-05
-5.32156e-06
2.05023e-05
-1.40195e-05
1.94184e-05
-2.96485e-05
1.91268e-05
-4.05296e-05
1.72237e-05
-3.99726e-05
1.63142e-05
-2.87872e-05
1.57584e-05
-2.44735e-05
1.49291e-05
-2.04704e-05
1.58857e-05
-3.46781e-05
1.54102e-05
-4.52126e-05
1.61464e-05
-4.95726e-05
1.75952e-05
-4.04034e-05
1.84218e-05
-2.34384e-05
1.84647e-05
-1.63128e-05
1.81806e-05
-5.76508e-06
1.85523e-05
9.88516e-06
1.8606e-05
2.16501e-05
1.91921e-05
3.10837e-05
1.93207e-05
4.7155e-05
1.87904e-05
5.53337e-05
1.75462e-05
5.12755e-05
1.68275e-05
4.03475e-05
1.67569e-05
3.75573e-05
1.74547e-05
3.45537e-05
1.85285e-05
3.55401e-05
2.02688e-05
2.90755e-05
2.14809e-05
2.83114e-05
2.10918e-05
1.40375e-05
2.21313e-05
1.07918e-05
2.31422e-05
-8.50299e-07
2.25746e-05
-7.11173e-06
2.15801e-05
-1.66858e-05
1.9641e-05
-1.39817e-05
1.95466e-05
-2.61717e-05
1.99939e-05
-2.08977e-05
2.04477e-05
-2.61447e-05
1.94168e-05
-2.01179e-05
1.99501e-05
-1.66256e-05
1.8367e-05
-1.39976e-06
1.91673e-05
-9.90266e-06
1.82633e-05
-4.04632e-06
1.90547e-05
4.69321e-07
1.7063e-05
1.68399e-05
1.84024e-05
6.24405e-06
1.69908e-05
1.15551e-05
1.88374e-05
1.32242e-06
1.55887e-05
1.12201e-05
1.85741e-05
5.73041e-06
1.78419e-05
3.10948e-05
2.22214e-05
3.4739e-05
7.29345e-05
2.11621e-05
1.86418e-05
-6.25175e-07
1.93714e-05
9.39019e-07
1.9522e-05
1.04148e-06
1.97114e-05
-2.32589e-07
2.0188e-05
-5.84791e-07
2.09571e-05
-1.71018e-06
2.17671e-05
-1.30762e-06
2.29403e-05
-2.95808e-07
2.4868e-05
-3.54197e-06
2.62977e-05
-3.48722e-06
2.74362e-05
-6.35614e-06
2.8229e-05
-1.18306e-05
2.87564e-05
-1.17113e-05
2.98339e-05
-1.12691e-05
2.93479e-05
-1.23374e-05
2.93771e-05
-1.07342e-05
3.02681e-05
-7.83906e-06
3.01467e-05
-5.40999e-06
3.00587e-05
-5.10295e-06
3.01575e-05
-5.27999e-06
3.00916e-05
-8.06459e-06
2.99551e-05
-1.12808e-05
3.00486e-05
-1.17361e-05
3.03061e-05
-1.50283e-05
2.98441e-05
-1.89677e-05
2.91156e-05
-2.13538e-05
2.88831e-05
-2.5032e-05
2.86499e-05
-3.0415e-05
2.81456e-05
-3.63606e-05
2.80568e-05
-3.91991e-05
2.80025e-05
-4.03752e-05
2.75425e-05
-3.97483e-05
2.69891e-05
-3.32174e-05
2.55625e-05
-2.34346e-05
2.39947e-05
-1.06093e-05
2.3284e-05
7.97469e-07
2.26967e-05
7.18526e-06
2.19406e-05
2.23438e-05
2.09367e-05
3.67086e-05
2.00178e-05
3.73858e-05
1.9828e-05
3.01452e-05
2.05786e-05
3.48845e-05
2.12582e-05
4.26824e-05
2.1658e-05
4.48395e-05
2.1963e-05
4.05273e-05
2.22565e-05
3.47606e-05
2.24791e-05
2.98382e-05
2.26787e-05
1.81086e-05
2.30215e-05
4.22033e-06
2.2606e-05
-4.90603e-06
2.19026e-05
-1.33161e-05
2.07892e-05
-2.85352e-05
1.99537e-05
-3.96941e-05
1.77737e-05
-3.77925e-05
1.66855e-05
-2.7699e-05
1.51899e-05
-2.29779e-05
1.46024e-05
-1.98829e-05
1.44666e-05
-3.45423e-05
1.29158e-05
-4.36619e-05
1.40384e-05
-5.06952e-05
1.59304e-05
-4.22954e-05
1.68106e-05
-2.43186e-05
1.68267e-05
-1.63289e-05
1.6353e-05
-5.29134e-06
1.67785e-05
9.45962e-06
1.69237e-05
2.15049e-05
1.76289e-05
3.03786e-05
1.81366e-05
4.66473e-05
1.79598e-05
5.55104e-05
1.7013e-05
5.22224e-05
1.68352e-05
4.05253e-05
1.70717e-05
3.73208e-05
1.77405e-05
3.38849e-05
1.90533e-05
3.42273e-05
2.14026e-05
2.67262e-05
2.31791e-05
2.65349e-05
2.26304e-05
1.45863e-05
2.38853e-05
9.53689e-06
2.43841e-05
-1.34907e-06
2.30417e-05
-5.76932e-06
2.14906e-05
-1.51347e-05
2.04048e-05
-1.28958e-05
2.07266e-05
-2.64935e-05
2.12045e-05
-2.13757e-05
2.13802e-05
-2.63203e-05
2.01258e-05
-1.88634e-05
2.05404e-05
-1.70402e-05
1.89298e-05
2.10818e-07
1.9634e-05
-1.06068e-05
1.83806e-05
-2.79291e-06
1.93012e-05
-4.51292e-07
1.72718e-05
1.88693e-05
1.93588e-05
4.1571e-06
1.80819e-05
1.28321e-05
2.10106e-05
-1.60627e-06
1.7032e-05
1.51986e-05
2.0328e-05
2.43436e-06
1.95838e-05
3.1839e-05
2.64445e-05
2.78783e-05
7.31623e-05
2.62167e-05
2.33394e-05
-8.00638e-07
2.41329e-05
1.45467e-07
2.45643e-05
6.10073e-07
2.46918e-05
-3.60047e-07
2.52803e-05
-1.17327e-06
2.59062e-05
-2.33611e-06
2.65192e-05
-1.92059e-06
2.79138e-05
-1.69042e-06
2.88966e-05
-4.52477e-06
3.00827e-05
-4.6733e-06
3.16069e-05
-7.88038e-06
3.14683e-05
-1.1692e-05
3.14136e-05
-1.16566e-05
3.22037e-05
-1.20592e-05
3.13069e-05
-1.14406e-05
3.08447e-05
-1.0272e-05
3.11172e-05
-8.11154e-06
3.12311e-05
-5.52388e-06
3.14223e-05
-5.29413e-06
3.11767e-05
-5.0344e-06
3.05828e-05
-7.47066e-06
2.97068e-05
-1.04048e-05
2.93634e-05
-1.13927e-05
2.94162e-05
-1.50811e-05
2.87314e-05
-1.82829e-05
2.76953e-05
-2.03177e-05
2.72473e-05
-2.45841e-05
2.70173e-05
-3.01849e-05
2.63926e-05
-3.57359e-05
2.5968e-05
-3.87745e-05
2.56965e-05
-4.01036e-05
2.50445e-05
-3.90964e-05
2.42203e-05
-3.23932e-05
2.27498e-05
-2.19641e-05
2.13079e-05
-9.16746e-06
2.09501e-05
1.15536e-06
2.04532e-05
7.68214e-06
1.97752e-05
2.30217e-05
1.91327e-05
3.73511e-05
1.88019e-05
3.77166e-05
1.91708e-05
2.97763e-05
2.03867e-05
3.36686e-05
2.14521e-05
4.16169e-05
2.21397e-05
4.41519e-05
2.28206e-05
3.98463e-05
2.35032e-05
3.4078e-05
2.38956e-05
2.94458e-05
2.41443e-05
1.786e-05
2.43647e-05
3.99989e-06
2.38197e-05
-4.36108e-06
2.30797e-05
-1.25761e-05
2.20537e-05
-2.75092e-05
2.07476e-05
-3.8388e-05
1.84019e-05
-3.54468e-05
1.6747e-05
-2.6044e-05
1.46914e-05
-2.09223e-05
1.42478e-05
-1.94393e-05
1.25959e-05
-3.28904e-05
1.0793e-05
-4.18589e-05
1.23502e-05
-5.22525e-05
1.41362e-05
-4.40814e-05
1.50484e-05
-2.52308e-05
1.50303e-05
-1.63108e-05
1.4446e-05
-4.70695e-06
1.49871e-05
8.91848e-06
1.54942e-05
2.09978e-05
1.62718e-05
2.96009e-05
1.71726e-05
4.57466e-05
1.72378e-05
5.54452e-05
1.6453e-05
5.30072e-05
1.65176e-05
4.04606e-05
1.69319e-05
3.69066e-05
1.7905e-05
3.29118e-05
1.96516e-05
3.24807e-05
2.20451e-05
2.43327e-05
2.40542e-05
2.45258e-05
2.35782e-05
1.50623e-05
2.47145e-05
8.40055e-06
2.46589e-05
-1.29351e-06
2.35722e-05
-4.68262e-06
2.22681e-05
-1.38305e-05
2.19857e-05
-1.26134e-05
2.2086e-05
-2.65938e-05
2.23111e-05
-2.16009e-05
2.20343e-05
-2.60435e-05
2.0723e-05
-1.75521e-05
2.10243e-05
-1.73415e-05
1.956e-05
1.67512e-06
1.99847e-05
-1.10316e-05
1.8398e-05
-1.20627e-06
1.91735e-05
-1.22677e-06
1.71551e-05
2.08877e-05
1.92435e-05
2.06874e-06
1.8613e-05
1.34626e-05
2.29844e-05
-5.97771e-06
1.87558e-05
1.94272e-05
2.26255e-05
-1.43534e-06
2.09854e-05
3.34792e-05
2.93242e-05
1.95394e-05
7.21182e-05
3.03683e-05
2.76385e-05
-5.89925e-07
2.81608e-05
-3.76841e-07
2.88204e-05
-4.95693e-08
2.87349e-05
-2.74479e-07
2.92438e-05
-1.68219e-06
2.98745e-05
-2.96681e-06
3.02157e-05
-2.26184e-06
3.16436e-05
-3.11826e-06
3.22738e-05
-5.155e-06
3.31472e-05
-5.54666e-06
3.39788e-05
-8.71197e-06
3.34697e-05
-1.11829e-05
3.35511e-05
-1.1738e-05
3.34067e-05
-1.19148e-05
3.24476e-05
-1.04814e-05
3.19214e-05
-9.74577e-06
3.12394e-05
-7.42961e-06
3.12293e-05
-5.51377e-06
3.13725e-05
-5.43731e-06
3.11114e-05
-4.7733e-06
3.07104e-05
-7.06969e-06
2.9475e-05
-9.16932e-06
2.88113e-05
-1.0729e-05
2.85023e-05
-1.47722e-05
2.71149e-05
-1.68954e-05
2.59428e-05
-1.91456e-05
2.58356e-05
-2.44768e-05
2.55634e-05
-2.99128e-05
2.45288e-05
-3.47012e-05
2.36678e-05
-3.79135e-05
2.30823e-05
-3.95182e-05
2.21997e-05
-3.82138e-05
2.11516e-05
-3.13451e-05
1.96894e-05
-2.05018e-05
1.8478e-05
-7.95613e-06
1.84387e-05
1.19469e-06
1.79496e-05
8.17125e-06
1.73107e-05
2.36606e-05
1.71494e-05
3.75124e-05
1.74837e-05
3.73822e-05
1.83485e-05
2.89116e-05
1.98859e-05
3.21311e-05
2.14529e-05
4.00499e-05
2.26663e-05
4.29386e-05
2.37655e-05
3.87471e-05
2.45603e-05
3.32832e-05
2.49343e-05
2.90717e-05
2.5219e-05
1.75753e-05
2.53985e-05
3.82042e-06
2.47471e-05
-3.70967e-06
2.39483e-05
-1.17773e-05
2.29681e-05
-2.6529e-05
2.13495e-05
-3.67694e-05
1.89342e-05
-3.30316e-05
1.66438e-05
-2.37535e-05
1.44345e-05
-1.8713e-05
1.40312e-05
-1.90361e-05
1.14337e-05
-3.02929e-05
1.00802e-05
-4.05054e-05
1.14273e-05
-5.35995e-05
1.24405e-05
-4.50946e-05
1.31157e-05
-2.5906e-05
1.31051e-05
-1.63002e-05
1.2545e-05
-4.14692e-06
1.28965e-05
8.56697e-06
1.33934e-05
2.05009e-05
1.42301e-05
2.87642e-05
1.56156e-05
4.43611e-05
1.61334e-05
5.49274e-05
1.59111e-05
5.32294e-05
1.6138e-05
4.02337e-05
1.66771e-05
3.63675e-05
1.80312e-05
3.15576e-05
2.01943e-05
3.03176e-05
2.21496e-05
2.23774e-05
2.40421e-05
2.26334e-05
2.40752e-05
1.50292e-05
2.51772e-05
7.29849e-06
2.4466e-05
-5.8231e-07
2.35017e-05
-3.71833e-06
2.23705e-05
-1.26993e-05
2.29909e-05
-1.32338e-05
2.30358e-05
-2.66387e-05
2.3029e-05
-2.15941e-05
2.2343e-05
-2.53574e-05
2.11052e-05
-1.63143e-05
2.11031e-05
-1.73394e-05
1.97306e-05
3.04763e-06
1.98343e-05
-1.11353e-05
1.82224e-05
4.05618e-07
1.92045e-05
-2.20889e-06
1.72414e-05
2.28508e-05
1.81469e-05
1.16322e-06
1.80282e-05
1.35813e-05
2.3246e-05
-1.11954e-05
2.01926e-05
2.24806e-05
2.54691e-05
-6.71182e-06
2.19425e-05
3.70057e-05
3.082e-05
1.0662e-05
6.96133e-05
3.33249e-05
3.08358e-05
-6.56996e-07
3.12244e-05
-7.65488e-07
3.19516e-05
-7.76694e-07
3.21169e-05
-4.39796e-07
3.24724e-05
-2.03768e-06
3.25577e-05
-3.05216e-06
3.28622e-05
-2.56633e-06
3.40321e-05
-4.28812e-06
3.41975e-05
-5.32045e-06
3.50567e-05
-6.40583e-06
3.51795e-05
-8.83479e-06
3.44358e-05
-1.04392e-05
3.44718e-05
-1.1774e-05
3.3488e-05
-1.0931e-05
3.27429e-05
-9.73638e-06
3.22058e-05
-9.20864e-06
3.11301e-05
-6.35388e-06
3.10447e-05
-5.42838e-06
3.07661e-05
-5.15872e-06
3.05542e-05
-4.56143e-06
3.01954e-05
-6.71086e-06
2.89053e-05
-7.87924e-06
2.84548e-05
-1.02785e-05
2.76573e-05
-1.39746e-05
2.57921e-05
-1.50303e-05
2.50415e-05
-1.8395e-05
2.4952e-05
-2.43874e-05
2.39761e-05
-2.89369e-05
2.23285e-05
-3.30536e-05
2.1005e-05
-3.659e-05
2.00873e-05
-3.86004e-05
1.90481e-05
-3.71746e-05
1.79073e-05
-3.02043e-05
1.66233e-05
-1.92178e-05
1.57908e-05
-7.12363e-06
1.59328e-05
1.05268e-06
1.53648e-05
8.73923e-06
1.47114e-05
2.43141e-05
1.49464e-05
3.72774e-05
1.59693e-05
3.63594e-05
1.73388e-05
2.75421e-05
1.91912e-05
3.02787e-05
2.12499e-05
3.79912e-05
2.29304e-05
4.12581e-05
2.42649e-05
3.74126e-05
2.50743e-05
3.24739e-05
2.55013e-05
2.86447e-05
2.59726e-05
1.7104e-05
2.61549e-05
3.6381e-06
2.54412e-05
-2.9959e-06
2.47193e-05
-1.10555e-05
2.37949e-05
-2.56046e-05
2.18571e-05
-3.48315e-05
1.92206e-05
-3.03951e-05
1.64874e-05
-2.10203e-05
1.42307e-05
-1.64563e-05
1.37451e-05
-1.85505e-05
1.11184e-05
-2.76662e-05
1.02537e-05
-3.96406e-05
1.03824e-05
-5.37283e-05
1.03281e-05
-4.50403e-05
1.08983e-05
-2.64761e-05
1.09348e-05
-1.63368e-05
1.03398e-05
-3.55184e-06
1.08093e-05
8.09748e-06
1.20209e-05
1.92892e-05
1.28508e-05
2.79343e-05
1.44269e-05
4.2785e-05
1.54104e-05
5.39439e-05
1.5386e-05
5.32539e-05
1.5462e-05
4.01577e-05
1.69091e-05
3.49205e-05
1.82535e-05
3.02132e-05
2.04455e-05
2.81257e-05
2.21905e-05
2.06324e-05
2.38483e-05
2.09756e-05
2.44273e-05
1.44502e-05
2.5458e-05
6.26778e-06
2.45314e-05
3.44318e-07
2.41054e-05
-3.29234e-06
2.30995e-05
-1.16934e-05
2.41272e-05
-1.42616e-05
2.40142e-05
-2.65256e-05
2.35107e-05
-2.10906e-05
2.26276e-05
-2.44743e-05
2.14434e-05
-1.51302e-05
2.07505e-05
-1.66465e-05
1.95404e-05
4.25773e-06
1.93419e-05
-1.09367e-05
1.77759e-05
1.97153e-06
1.88602e-05
-3.29311e-06
1.76719e-05
2.4039e-05
1.72801e-05
1.55507e-06
1.56447e-05
1.52166e-05
2.00489e-05
-1.55996e-05
1.91123e-05
2.34171e-05
2.60833e-05
-1.36828e-05
2.24847e-05
4.06044e-05
3.10723e-05
2.0743e-06
6.57538e-05
3.49318e-05
3.26783e-05
-1.18351e-06
3.33254e-05
-1.41256e-06
3.37083e-05
-1.15953e-06
3.38856e-05
-6.17161e-07
3.41435e-05
-2.29552e-06
3.39877e-05
-2.89636e-06
3.43174e-05
-2.89611e-06
3.47857e-05
-4.75642e-06
3.48987e-05
-5.4334e-06
3.56869e-05
-7.19406e-06
3.52388e-05
-8.38664e-06
3.47279e-05
-9.92831e-06
3.44296e-05
-1.14757e-05
3.31905e-05
-9.69197e-06
3.27809e-05
-9.32674e-06
3.19489e-05
-8.37663e-06
3.09896e-05
-5.3946e-06
3.08225e-05
-5.26122e-06
3.02113e-05
-4.54753e-06
3.03341e-05
-4.68422e-06
2.98582e-05
-6.235e-06
2.86785e-05
-6.69959e-06
2.83223e-05
-9.92228e-06
2.67548e-05
-1.24072e-05
2.4943e-05
-1.32184e-05
2.46426e-05
-1.80946e-05
2.38392e-05
-2.3584e-05
2.18373e-05
-2.6935e-05
1.97247e-05
-3.0941e-05
1.81679e-05
-3.50332e-05
1.69821e-05
-3.74145e-05
1.57742e-05
-3.59667e-05
1.46366e-05
-2.90667e-05
1.36292e-05
-1.82104e-05
1.32397e-05
-6.73409e-06
1.33669e-05
9.25512e-07
1.25396e-05
9.56648e-06
1.19204e-05
2.49333e-05
1.264e-05
3.65577e-05
1.4312e-05
3.46874e-05
1.6112e-05
2.57421e-05
1.82175e-05
2.81733e-05
2.06271e-05
3.55816e-05
2.26704e-05
3.92148e-05
2.42309e-05
3.58521e-05
2.50863e-05
3.16185e-05
2.57e-05
2.8031e-05
2.64322e-05
1.63717e-05
2.66106e-05
3.45969e-06
2.5886e-05
-2.27125e-06
2.52532e-05
-1.04227e-05
2.42944e-05
-2.46458e-05
2.2144e-05
-3.26811e-05
1.92057e-05
-2.74569e-05
1.62511e-05
-1.80657e-05
1.39785e-05
-1.41838e-05
1.32432e-05
-1.78152e-05
1.11204e-05
-2.55434e-05
1.02421e-05
-3.87623e-05
8.44131e-06
-5.19275e-05
7.62195e-06
-4.4221e-05
8.76667e-06
-2.76208e-05
9.14349e-06
-1.67136e-05
8.39053e-06
-2.79889e-06
8.77121e-06
7.71681e-06
1.02494e-05
1.7811e-05
1.10534e-05
2.71304e-05
1.27161e-05
4.11223e-05
1.43217e-05
5.23383e-05
1.45925e-05
5.29831e-05
1.48133e-05
3.9937e-05
1.7074e-05
3.26598e-05
1.82335e-05
2.90536e-05
2.05677e-05
2.57915e-05
2.23156e-05
1.88845e-05
2.38658e-05
1.94253e-05
2.50815e-05
1.32346e-05
2.59938e-05
5.35542e-06
2.50105e-05
1.32763e-06
2.47632e-05
-3.04505e-06
2.39839e-05
-1.0914e-05
2.52598e-05
-1.55375e-05
2.48695e-05
-2.61354e-05
2.39744e-05
-2.01955e-05
2.31298e-05
-2.36296e-05
2.16127e-05
-1.36131e-05
2.00422e-05
-1.50759e-05
1.95171e-05
4.78286e-06
1.91029e-05
-1.05225e-05
1.71387e-05
3.93573e-06
1.80306e-05
-4.18502e-06
1.7684e-05
2.43856e-05
1.73778e-05
1.86127e-06
1.34295e-05
1.91649e-05
1.54269e-05
-1.7597e-05
1.43896e-05
2.44545e-05
2.07567e-05
-2.005e-05
2.11877e-05
4.01735e-05
2.96028e-05
-6.34084e-06
6.02085e-05
3.51482e-05
3.44574e-05
-1.37482e-06
3.4284e-05
-1.23916e-06
3.40406e-05
-9.16145e-07
3.42768e-05
-8.53415e-07
3.40697e-05
-2.08838e-06
3.39452e-05
-2.77184e-06
3.45922e-05
-3.54316e-06
3.45376e-05
-4.70183e-06
3.47739e-05
-5.66969e-06
3.51521e-05
-7.57226e-06
3.47273e-05
-7.96186e-06
3.4659e-05
-9.85999e-06
3.39786e-05
-1.07952e-05
3.31572e-05
-8.87062e-06
3.28816e-05
-9.05113e-06
3.18812e-05
-7.37625e-06
3.14469e-05
-4.96028e-06
3.09861e-05
-4.80046e-06
3.02685e-05
-3.82987e-06
3.04308e-05
-4.84658e-06
2.96744e-05
-5.47855e-06
2.88535e-05
-5.8787e-06
2.81782e-05
-9.24695e-06
2.60067e-05
-1.02357e-05
2.46268e-05
-1.18384e-05
2.41629e-05
-1.76307e-05
2.21547e-05
-2.15758e-05
1.93157e-05
-2.40959e-05
1.70287e-05
-2.8654e-05
1.52521e-05
-3.32567e-05
1.36778e-05
-3.58403e-05
1.23103e-05
-3.45992e-05
1.12773e-05
-2.80337e-05
1.06342e-05
-1.75674e-05
1.06886e-05
-6.78841e-06
1.06317e-05
9.82371e-07
9.42615e-06
1.0772e-05
8.88468e-06
2.54748e-05
1.01678e-05
3.52746e-05
1.25224e-05
3.23328e-05
1.47109e-05
2.35535e-05
1.695e-05
2.59342e-05
1.95265e-05
3.30051e-05
2.18386e-05
3.69027e-05
2.36173e-05
3.40734e-05
2.45509e-05
3.06849e-05
2.55452e-05
2.70367e-05
2.66635e-05
1.52535e-05
2.67913e-05
3.33187e-06
2.60947e-05
-1.57473e-06
2.56345e-05
-9.96254e-06
2.46585e-05
-2.36697e-05
2.22482e-05
-3.02708e-05
1.8991e-05
-2.41997e-05
1.60101e-05
-1.50848e-05
1.37934e-05
-1.19671e-05
1.26231e-05
-1.66449e-05
1.10314e-05
-2.39517e-05
9.56399e-06
-3.72949e-05
6.11815e-06
-4.84816e-05
5.22639e-06
-4.33292e-05
7.19109e-06
-2.95855e-05
7.29968e-06
-1.68222e-05
6.4292e-06
-1.92841e-06
7.64215e-06
6.50385e-06
8.8245e-06
1.66287e-05
9.43083e-06
2.6524e-05
1.07435e-05
3.98096e-05
1.31088e-05
4.9973e-05
1.40535e-05
5.20384e-05
1.44608e-05
3.95296e-05
1.64315e-05
3.06892e-05
1.80732e-05
2.74119e-05
2.06473e-05
2.32174e-05
2.20093e-05
1.75225e-05
2.40032e-05
1.74314e-05
2.59159e-05
1.13218e-05
2.65771e-05
4.69425e-06
2.56926e-05
2.21216e-06
2.53367e-05
-2.68919e-06
2.50255e-05
-1.06028e-05
2.6236e-05
-1.6748e-05
2.53357e-05
-2.52351e-05
2.43668e-05
-1.92266e-05
2.34829e-05
-2.27458e-05
2.12893e-05
-1.14195e-05
1.94348e-05
-1.32214e-05
1.96773e-05
4.54034e-06
1.90473e-05
-9.8925e-06
1.65611e-05
6.42202e-06
1.71764e-05
-4.80039e-06
1.77493e-05
2.38127e-05
1.8924e-05
6.86592e-07
1.49868e-05
2.31021e-05
1.55584e-05
-1.81686e-05
1.21265e-05
2.78864e-05
1.5414e-05
-2.33376e-05
1.85229e-05
3.70646e-05
2.5761e-05
-1.35789e-05
5.21161e-05
3.38533e-05
3.4379e-05
-1.62276e-06
3.40602e-05
-9.20307e-07
3.37091e-05
-5.65069e-07
3.4144e-05
-1.28831e-06
3.36886e-05
-1.63303e-06
3.38513e-05
-2.93456e-06
3.45428e-05
-4.23466e-06
3.43419e-05
-4.50092e-06
3.46275e-05
-5.95525e-06
3.45502e-05
-7.49496e-06
3.44805e-05
-7.89212e-06
3.44449e-05
-9.82447e-06
3.36003e-05
-9.95057e-06
3.33472e-05
-8.61753e-06
3.29489e-05
-8.65287e-06
3.21164e-05
-6.5437e-06
3.201e-05
-4.85393e-06
3.13413e-05
-4.13177e-06
3.07586e-05
-3.24712e-06
3.03875e-05
-4.47547e-06
2.91916e-05
-4.28267e-06
2.85448e-05
-5.23188e-06
2.74176e-05
-8.11976e-06
2.5372e-05
-8.19019e-06
2.45282e-05
-1.09946e-05
2.33579e-05
-1.64604e-05
2.0182e-05
-1.83999e-05
1.67393e-05
-2.06533e-05
1.42699e-05
-2.61846e-05
1.21964e-05
-3.11832e-05
1.0247e-05
-3.38908e-05
8.71232e-06
-3.30645e-05
7.78123e-06
-2.71027e-05
7.41141e-06
-1.71975e-05
7.7164e-06
-7.0934e-06
7.60496e-06
1.09381e-06
6.31209e-06
1.20649e-05
6.05263e-06
2.57342e-05
7.98728e-06
3.334e-05
1.09044e-05
2.94157e-05
1.33031e-05
2.11547e-05
1.54801e-05
2.37573e-05
1.79927e-05
3.04924e-05
2.04806e-05
3.44149e-05
2.25067e-05
3.20473e-05
2.37058e-05
2.94858e-05
2.52813e-05
2.54612e-05
2.67015e-05
1.38333e-05
2.66964e-05
3.33697e-06
2.60729e-05
-9.51282e-07
2.57824e-05
-9.67203e-06
2.47444e-05
-2.26317e-05
2.20676e-05
-2.7594e-05
1.86234e-05
-2.07554e-05
1.56483e-05
-1.21097e-05
1.35822e-05
-9.901e-06
1.20565e-05
-1.51192e-05
1.07446e-05
-2.26398e-05
8.47852e-06
-3.50289e-05
4.18126e-06
-4.41844e-05
3.3941e-06
-4.25421e-05
5.80817e-06
-3.19996e-05
5.46616e-06
-1.64802e-05
4.59279e-06
-1.05504e-06
5.96034e-06
5.13631e-06
6.32034e-06
1.62687e-05
7.35371e-06
2.54907e-05
9.01951e-06
3.81438e-05
1.1981e-05
4.70115e-05
1.34525e-05
5.05669e-05
1.39895e-05
3.89926e-05
1.56532e-05
2.90254e-05
1.80894e-05
2.49758e-05
2.03458e-05
2.0961e-05
2.14967e-05
1.63715e-05
2.44378e-05
1.44904e-05
2.64384e-05
9.32122e-06
2.63227e-05
4.80991e-06
2.55612e-05
2.97369e-06
2.55696e-05
-2.69764e-06
2.62544e-05
-1.12875e-05
2.72863e-05
-1.77799e-05
2.60946e-05
-2.40434e-05
2.50654e-05
-1.81974e-05
2.35212e-05
-2.12016e-05
2.08038e-05
-8.70212e-06
1.91086e-05
-1.15262e-05
1.9752e-05
3.89694e-06
1.9047e-05
-9.18748e-06
1.67795e-05
8.68951e-06
1.68294e-05
-4.85035e-06
1.72781e-05
2.3364e-05
2.03824e-05
-2.41769e-06
1.85681e-05
2.49165e-05
1.96426e-05
-1.92431e-05
1.63678e-05
3.11611e-05
1.67547e-05
-2.37244e-05
1.72495e-05
3.65698e-05
2.08317e-05
-1.71611e-05
4.15639e-05
3.13839e-05
3.37854e-05
-1.72548e-06
3.36037e-05
-7.38602e-07
3.36407e-05
-6.02072e-07
3.42318e-05
-1.87945e-06
3.40553e-05
-1.45652e-06
3.43321e-05
-3.21134e-06
3.44281e-05
-4.33064e-06
3.42031e-05
-4.276e-06
3.45145e-05
-6.26665e-06
3.42232e-05
-7.20357e-06
3.42879e-05
-7.95689e-06
3.41815e-05
-9.71804e-06
3.35601e-05
-9.32914e-06
3.34945e-05
-8.55193e-06
3.29044e-05
-8.0628e-06
3.22999e-05
-5.93917e-06
3.2069e-05
-4.62308e-06
3.12392e-05
-3.30199e-06
3.06732e-05
-2.68106e-06
2.9723e-05
-3.52525e-06
2.83587e-05
-2.91845e-06
2.76816e-05
-4.55476e-06
2.63003e-05
-6.73846e-06
2.4799e-05
-6.68886e-06
2.41356e-05
-1.03312e-05
2.19231e-05
-1.42479e-05
1.77893e-05
-1.42661e-05
1.40409e-05
-1.69049e-05
1.14434e-05
-2.35871e-05
9.10147e-06
-2.88412e-05
6.78509e-06
-3.15745e-05
5.01921e-06
-3.12986e-05
4.05582e-06
-2.61393e-05
3.88517e-06
-1.70269e-05
4.32881e-06
-7.53705e-06
4.13044e-06
1.29219e-06
3.02201e-06
1.31733e-05
3.4417e-06
2.53145e-05
5.9399e-06
3.08418e-05
9.04009e-06
2.63155e-05
1.15022e-05
1.86926e-05
1.36957e-05
2.15639e-05
1.62581e-05
2.793e-05
1.89491e-05
3.17239e-05
2.12106e-05
2.97858e-05
2.28059e-05
2.78905e-05
2.4972e-05
2.32951e-05
2.65162e-05
1.22891e-05
2.63489e-05