/*--------------------------------*- C++ -*----------------------------------*\
| =========                 |                                                 |
| \\      /  F ield         | OpenFOAM: The Open Source CFD Toolbox           |
|  \\    /   O peration     | Version:  2.4.0                                 |
|   \\  /    A nd           | Web:      www.OpenFOAM.org                      |
|    \\/     M anipulation  |                                                 |
\*---------------------------------------------------------------------------*/
FoamFile
{
    version     2.0;
    format      ascii;
    class       surfaceScalarField;
    location    "0.12";
    object      phi;
}
// * * * * * * * * * * * * * * * * * * * * * * * * * * * * * * * * * * * * * //

dimensions      [0 3 -1 0 0 0 0];

internalField   nonuniform List<scalar> 
34680
(
2.4071e-05
9.29007e-07
2.16896e-05
2.38142e-06
1.88221e-05
2.86748e-06
1.60439e-05
2.77818e-06
1.36221e-05
2.42178e-06
1.1657e-05
1.96516e-06
1.01524e-05
1.50454e-06
9.0545e-06
1.09792e-06
8.27759e-06
7.76911e-07
7.7342e-06
5.43392e-07
7.36664e-06
3.67564e-07
7.10139e-06
2.65249e-07
6.91164e-06
1.89746e-07
6.76958e-06
1.4206e-07
6.64893e-06
1.20651e-07
6.54647e-06
1.0246e-07
6.46398e-06
8.24923e-08
6.37919e-06
8.47894e-08
6.3076e-06
7.15892e-08
6.24166e-06
6.59404e-08
6.17714e-06
6.45201e-08
6.1154e-06
6.17356e-08
6.06209e-06
5.33135e-08
6.00618e-06
5.59082e-08
5.95458e-06
5.16048e-08
5.90426e-06
5.03211e-08
5.86011e-06
4.41481e-08
5.81017e-06
4.9941e-08
5.76841e-06
4.17597e-08
5.72465e-06
4.376e-08
5.68386e-06
4.07824e-08
5.63244e-06
5.14244e-08
5.59607e-06
3.63656e-08
5.53325e-06
6.28284e-08
5.47701e-06
5.62364e-08
5.39356e-06
8.34457e-08
5.2963e-06
9.72689e-08
5.15421e-06
1.42083e-07
4.88328e-06
2.70935e-07
1.3682e-07
4.74646e-06
2.52129e-05
7.16138e-07
2.55487e-05
2.04564e-06
2.55709e-05
2.84521e-06
2.52338e-05
3.11532e-06
2.46324e-05
3.02316e-06
2.3876e-05
2.72156e-06
2.30661e-05
2.31448e-06
2.22798e-05
1.88422e-06
2.15436e-05
1.51306e-06
2.0872e-05
1.21506e-06
2.02729e-05
9.6667e-07
1.97272e-05
8.10933e-07
1.9244e-05
6.72887e-07
1.88094e-05
5.76718e-07
1.84138e-05
5.16211e-07
1.80613e-05
4.54964e-07
1.77445e-05
3.99343e-07
1.74509e-05
3.78314e-07
1.71929e-05
3.29653e-07
1.69564e-05
3.02414e-07
1.67387e-05
2.82227e-07
1.65406e-05
2.59808e-07
1.63634e-05
2.30574e-07
1.61906e-05
2.28624e-07
1.604e-05
2.02292e-07
1.58904e-05
1.99886e-07
1.57616e-05
1.72967e-07
1.56248e-05
1.86754e-07
1.5515e-05
1.51502e-07
1.53895e-05
1.69288e-07
1.52921e-05
1.38138e-07
1.51676e-05
1.7598e-07
1.50819e-05
1.22049e-07
1.49487e-05
1.96011e-07
1.48592e-05
1.45787e-07
1.46781e-05
2.64527e-07
1.4556e-05
2.19392e-07
1.43172e-05
3.80826e-07
1.43327e-05
2.55422e-07
3.71951e-07
1.40976e-05
2.51598e-05
5.56379e-07
2.5621e-05
1.58435e-06
2.61408e-05
2.32546e-06
2.65676e-05
2.68852e-06
2.68813e-05
2.70944e-06
2.7062e-05
2.5409e-06
2.71199e-05
2.25657e-06
2.71009e-05
1.90317e-06
2.70047e-05
1.60932e-06
2.68707e-05
1.34905e-06
2.67059e-05
1.13149e-06
2.65165e-05
1.00031e-06
2.63168e-05
8.72591e-07
2.61136e-05
7.79857e-07
2.58943e-05
7.35567e-07
2.56875e-05
6.61768e-07
2.54767e-05
6.10173e-07
2.52669e-05
5.88104e-07
2.50664e-05
5.30102e-07
2.48748e-05
4.94075e-07
2.46783e-05
4.78698e-07
2.44998e-05
4.38301e-07
2.43194e-05
4.10944e-07
2.41521e-05
3.95922e-07
2.39754e-05
3.78987e-07
2.38292e-05
3.46162e-07
2.36589e-05
3.43199e-07
2.35215e-05
3.24199e-07
2.33598e-05
3.13203e-07
2.32434e-05
2.85696e-07
2.3074e-05
3.07459e-07
2.29741e-05
2.7588e-07
2.28038e-05
2.92395e-07
2.27057e-05
2.94094e-07
2.25259e-05
3.25634e-07
2.24691e-05
3.21302e-07
2.22623e-05
4.2619e-07
2.2171e-05
4.72168e-07
2.19591e-05
4.67253e-07
1.2522e-07
2.22059e-05
2.51187e-05
4.37719e-07
2.55057e-05
1.19729e-06
2.59777e-05
1.85352e-06
2.64325e-05
2.23364e-06
2.68791e-05
2.26287e-06
2.72542e-05
2.16577e-06
2.75586e-05
1.95218e-06
2.78087e-05
1.65308e-06
2.80074e-05
1.41062e-06
2.81526e-05
1.20385e-06
2.82829e-05
1.00118e-06
2.83535e-05
9.29744e-07
2.84193e-05
8.06784e-07
2.8453e-05
7.46172e-07
2.84836e-05
7.04937e-07
2.84887e-05
6.56685e-07
2.85036e-05
5.95272e-07
2.84887e-05
6.03002e-07
2.84897e-05
5.29124e-07
2.8466e-05
5.17788e-07
2.84556e-05
4.89059e-07
2.84228e-05
4.71113e-07
2.84048e-05
4.28908e-07
2.83632e-05
4.37568e-07
2.83365e-05
4.05631e-07
2.8289e-05
3.93702e-07
2.82563e-05
3.75895e-07
2.82055e-05
3.7504e-07
2.81597e-05
3.59003e-07
2.81188e-05
3.26605e-07
2.80577e-05
3.68526e-07
2.80186e-05
3.14939e-07
2.79518e-05
3.59185e-07
2.79016e-05
3.44303e-07
2.77882e-05
4.3905e-07
2.7742e-05
3.6752e-07
2.77522e-05
4.15998e-07
2.80157e-05
2.08694e-07
2.83422e-05
1.40714e-07
-1.99724e-07
2.86671e-05
2.51254e-05
3.1228e-07
2.53307e-05
9.92076e-07
2.58013e-05
1.38285e-06
2.62245e-05
1.81046e-06
2.66856e-05
1.80175e-06
2.70245e-05
1.82693e-06
2.74167e-05
1.55997e-06
2.76038e-05
1.46593e-06
2.79017e-05
1.1127e-06
2.80452e-05
1.06044e-06
2.82703e-05
7.76016e-07
2.83625e-05
8.37522e-07
2.85673e-05
6.02023e-07
2.86185e-05
6.94921e-07
2.88088e-05
5.14693e-07
2.88298e-05
6.35713e-07
2.89982e-05
4.26874e-07
2.8993e-05
6.0815e-07
2.91527e-05
3.69458e-07
2.91367e-05
5.33759e-07
2.92859e-05
3.3986e-07
2.92604e-05
4.96594e-07
2.94148e-05
2.74532e-07
2.93715e-05
4.80849e-07
2.95313e-05
2.45888e-07
2.94754e-05
4.49584e-07
2.96411e-05
2.10143e-07
2.95703e-05
4.45842e-07
2.97368e-05
1.92507e-07
2.96536e-05
4.09804e-07
2.9832e-05
1.90152e-07
2.97269e-05
4.20012e-07
2.99252e-05
1.6087e-07
2.98253e-05
4.44218e-07
3.00722e-05
1.92143e-07
2.99244e-05
5.1538e-07
2.99894e-05
3.51012e-07
2.9277e-05
9.21032e-07
2.86301e-05
7.87612e-07
7.88411e-07
2.7642e-05
2.50818e-05
2.30431e-07
2.52875e-05
7.8643e-07
2.56851e-05
9.85272e-07
2.6075e-05
1.42054e-06
2.64871e-05
1.38969e-06
2.68533e-05
1.46069e-06
2.7169e-05
1.24425e-06
2.74331e-05
1.20182e-06
2.7673e-05
8.72829e-07
2.78595e-05
8.73932e-07
2.80438e-05
5.91712e-07
2.82182e-05
6.6316e-07
2.83413e-05
4.78889e-07
2.84758e-05
5.60364e-07
2.85911e-05
3.99489e-07
2.8701e-05
5.25799e-07
2.87785e-05
3.49376e-07
2.88982e-05
4.88449e-07
2.8967e-05
3.00666e-07
2.90735e-05
4.27188e-07
2.91439e-05
2.69516e-07
2.92526e-05
3.87854e-07
2.93015e-05
2.25606e-07
2.9413e-05
3.69359e-07
2.94637e-05
1.95264e-07
2.95596e-05
3.53642e-07
2.96083e-05
1.61406e-07
2.97111e-05
3.43107e-07
2.97483e-05
1.5523e-07
2.98429e-05
3.15241e-07
2.98918e-05
1.41226e-07
2.99922e-05
3.19604e-07
3.00437e-05
1.094e-07
3.01391e-05
3.48802e-07
3.01841e-05
1.47126e-07
3.02964e-05
4.03101e-07
3.04295e-05
2.17916e-07
3.08996e-05
4.50941e-07
3.14178e-05
2.69389e-07
3.18419e-07
3.18878e-05
2.50667e-05
1.6376e-07
2.53053e-05
5.47791e-07
2.55336e-05
7.56934e-07
2.59498e-05
1.00442e-06
2.63152e-05
1.02428e-06
2.66961e-05
1.07976e-06
2.69999e-05
9.40456e-07
2.7321e-05
8.80757e-07
2.74912e-05
7.02636e-07
2.77384e-05
6.26719e-07
2.78693e-05
4.6076e-07
2.80438e-05
4.88669e-07
2.81324e-05
3.90341e-07
2.83103e-05
3.82403e-07
2.83821e-05
3.27686e-07
2.85548e-05
3.53159e-07
2.86142e-05
2.89942e-07
2.87713e-05
3.31366e-07
2.88007e-05
2.71275e-07
2.89701e-05
2.57829e-07
2.89876e-05
2.51947e-07
2.91317e-05
2.43736e-07
2.91465e-05
2.10846e-07
2.93004e-05
2.15432e-07
2.92816e-05
2.14095e-07
2.9439e-05
1.96194e-07
2.9436e-05
1.64423e-07
2.95906e-05
1.88546e-07
2.95671e-05
1.78693e-07
2.97378e-05
1.44532e-07
2.97147e-05
1.64374e-07
2.98813e-05
1.53005e-07
2.98585e-05
1.32209e-07
3.00686e-05
1.38639e-07
3.0081e-05
1.34789e-07
3.03591e-05
1.24954e-07
3.04399e-05
1.37101e-07
3.07213e-05
1.69551e-07
3.07999e-05
1.90792e-07
-5.57447e-08
3.11741e-05
2.50361e-05
1.2769e-07
2.52182e-05
3.65628e-07
2.55107e-05
4.64432e-07
2.58851e-05
6.30055e-07
2.62154e-05
6.93981e-07
2.65994e-05
6.95716e-07
2.68915e-05
6.48421e-07
2.71713e-05
6.00959e-07
2.74077e-05
4.66205e-07
2.76045e-05
4.29954e-07
2.7764e-05
3.01266e-07
2.79389e-05
3.13731e-07
2.80587e-05
2.70501e-07
2.81898e-05
2.51391e-07
2.83161e-05
2.01324e-07
2.84401e-05
2.29186e-07
2.8533e-05
1.9707e-07
2.86231e-05
2.41205e-07
2.87404e-05
1.54024e-07
2.8813e-05
1.85168e-07
2.89085e-05
1.56527e-07
2.89885e-05
1.63699e-07
2.90815e-05
1.17797e-07
2.91245e-05
1.7247e-07
2.92198e-05
1.18756e-07
2.92769e-05
1.39151e-07
2.93576e-05
8.37232e-08
2.94123e-05
1.33806e-07
2.9513e-05
7.80307e-08
2.95646e-05
9.29568e-08
2.9648e-05
8.0961e-08
2.97196e-05
8.13713e-08
2.98375e-05
1.42973e-08
2.9923e-05
5.31374e-08
3.00575e-05
3.1984e-10
3.01934e-05
-1.09329e-08
3.03671e-05
-3.66244e-08
3.05674e-05
-3.07501e-08
3.08453e-05
-8.70655e-08
-1.22854e-07
3.09124e-05
2.50219e-05
1.05785e-07
2.52687e-05
1.18838e-07
2.5466e-05
2.6711e-07
2.58154e-05
2.80676e-07
2.61266e-05
3.82819e-07
2.65186e-05
3.03693e-07
2.67927e-05
3.74302e-07
2.71297e-05
2.63963e-07
2.73186e-05
2.77266e-07
2.75879e-05
1.60661e-07
2.77047e-05
1.84475e-07
2.78915e-05
1.26931e-07
2.79514e-05
2.10654e-07
2.81261e-05
7.6658e-08
2.81974e-05
1.3007e-07
2.83743e-05
5.22443e-08
2.8415e-05
1.56342e-07
2.85802e-05
7.60276e-08
2.86179e-05
1.16371e-07
2.87622e-05
4.08266e-08
2.8803e-05
1.15697e-07
2.8952e-05
1.47083e-08
2.89709e-05
9.89162e-08
2.90957e-05
4.76284e-08
2.91283e-05
8.61769e-08
2.92402e-05
2.73005e-08
2.92514e-05
7.24831e-08
2.93885e-05
-3.31188e-09
2.9416e-05
5.05324e-08
2.95152e-05
-6.22602e-09
2.95442e-05
5.1933e-08
2.9682e-05
-5.6348e-08
2.97196e-05
-2.33067e-08
2.98603e-05
-8.75571e-08
2.99497e-05
-8.91003e-08
3.01411e-05
-2.02337e-07
3.02879e-05
-1.83416e-07
3.05157e-05
-2.5862e-07
3.06974e-05
-2.68689e-07
-1.5896e-07
3.07335e-05
2.50236e-05
8.21615e-08
2.52296e-05
-8.71638e-08
2.5453e-05
4.3729e-08
2.57974e-05
-6.36698e-08
2.61094e-05
7.07501e-08
2.6489e-05
-7.59227e-08
2.6783e-05
8.03094e-08
2.70782e-05
-3.1164e-08
2.73084e-05
4.70105e-08
2.752e-05
-5.0971e-08
2.76667e-05
3.77873e-08
2.78105e-05
-1.68123e-08
2.79419e-05
7.92745e-08
2.80668e-05
-4.83109e-08
2.81972e-05
-2.85471e-10
2.83229e-05
-7.35007e-08
2.84223e-05
5.69497e-08
2.8527e-05
-2.86627e-08
2.86381e-05
5.2446e-09
2.87252e-05
-4.6281e-08
2.88142e-05
2.67288e-08
2.8898e-05
-6.90511e-08
2.8971e-05
2.59215e-08
2.90341e-05
-1.55066e-08
2.91148e-05
5.46979e-09
2.91737e-05
-3.16113e-08
2.92462e-05
-2.53528e-11
2.93203e-05
-7.73959e-08
2.94025e-05
-3.16919e-08
2.94445e-05
-4.82406e-08
2.95393e-05
-4.2848e-08
2.96044e-05
-1.21381e-07
2.97035e-05
-1.22436e-07
2.97851e-05
-1.69213e-07
2.9942e-05
-2.45924e-07
3.00733e-05
-3.33637e-07
3.02577e-05
-3.67884e-07
3.04493e-05
-4.50151e-07
3.07221e-05
-5.41518e-07
-3.10859e-07
3.0874e-05
2.49996e-05
8.25552e-08
2.5286e-05
-3.73575e-07
2.5433e-05
-1.03297e-07
2.58187e-05
-4.49346e-07
2.60673e-05
-1.77816e-07
2.65093e-05
-5.17978e-07
2.67028e-05
-1.13182e-07
2.71161e-05
-4.44423e-07
2.72551e-05
-9.1952e-08
2.75759e-05
-3.71859e-07
2.7631e-05
-1.72953e-08
2.7904e-05
-2.89797e-07
2.7929e-05
5.43323e-08
2.81724e-05
-2.9173e-07
2.81727e-05
-5.79101e-10
2.83816e-05
-2.82398e-07
2.8367e-05
7.14724e-08
2.85975e-05
-2.59095e-07
2.85637e-05
3.8975e-08
2.8768e-05
-2.50502e-07
2.87382e-05
5.64496e-08
2.89392e-05
-2.6999e-07
2.88819e-05
8.31933e-08
2.91042e-05
-2.37838e-07
2.9055e-05
5.47376e-08
2.92542e-05
-2.3082e-07
2.91938e-05
6.03998e-08
2.94072e-05
-2.90859e-07
2.93286e-05
4.69115e-08
2.95318e-05
-2.51434e-07
2.94743e-05
1.46687e-08
2.96838e-05
-3.3085e-07
2.95913e-05
-3.00161e-08
2.98252e-05
-4.03099e-07
2.97764e-05
-1.97102e-07
3.00709e-05
-6.28174e-07
3.01623e-05
-4.59209e-07
3.0556e-05
-8.43864e-07
3.06634e-05
-6.48911e-07
-7.05366e-07
3.10579e-05
2.50546e-05
2.80014e-08
2.52718e-05
-5.90778e-07
2.54545e-05
-2.86026e-07
2.58296e-05
-8.24412e-07
2.61496e-05
-4.97827e-07
2.65192e-05
-8.87618e-07
2.68124e-05
-4.06363e-07
2.71806e-05
-8.12612e-07
2.73282e-05
-2.39567e-07
2.75896e-05
-6.33263e-07
2.76675e-05
-9.51864e-08
2.79127e-05
-5.35056e-07
2.79779e-05
-1.0822e-08
2.82004e-05
-5.14274e-07
2.81899e-05
9.97786e-09
2.84025e-05
-4.94993e-07
2.84264e-05
4.75254e-08
2.86413e-05
-4.73938e-07
2.86197e-05
6.04911e-08
2.88239e-05
-4.54683e-07
2.87931e-05
8.7328e-08
2.89693e-05
-4.46281e-07
2.89456e-05
1.06937e-07
2.91505e-05
-4.42704e-07
2.91015e-05
1.0368e-07
2.93051e-05
-4.34418e-07
2.92482e-05
1.17298e-07
2.9437e-05
-4.79591e-07
2.93702e-05
1.13658e-07
2.95843e-05
-4.65547e-07
2.95179e-05
8.10895e-08
2.97242e-05
-5.3718e-07
2.96352e-05
5.89701e-08
2.98549e-05
-6.22793e-07
2.97437e-05
-8.58161e-08
2.99707e-05
-8.55218e-07
2.99412e-05
-4.297e-07
3.06028e-05
-1.50547e-06
3.11752e-05
-1.22129e-06
-1.51475e-06
3.19846e-05
2.51369e-05
-1.08924e-07
2.51031e-05
-5.56937e-07
2.55734e-05
-7.56365e-07
2.57998e-05
-1.05075e-06
2.6308e-05
-1.00611e-06
2.65356e-05
-1.11517e-06
2.70018e-05
-8.72546e-07
2.7117e-05
-9.27816e-07
2.75235e-05
-6.46085e-07
2.75701e-05
-6.79867e-07
2.79159e-05
-4.41005e-07
2.79235e-05
-5.42668e-07
2.82352e-05
-3.22534e-07
2.81742e-05
-4.53192e-07
2.84569e-05
-2.7272e-07
2.83915e-05
-4.29647e-07
2.86705e-05
-2.31445e-07
2.859e-05
-3.93405e-07
2.88531e-05
-2.02697e-07
2.87593e-05
-3.60845e-07
2.90155e-05
-1.68852e-07
2.89226e-05
-3.53442e-07
2.91913e-05
-1.6177e-07
2.90782e-05
-3.2958e-07
2.93402e-05
-1.58323e-07
2.92396e-05
-3.33745e-07
2.94846e-05
-1.27726e-07
2.93656e-05
-3.6057e-07
2.96299e-05
-1.50689e-07
2.95089e-05
-3.44584e-07
2.97673e-05
-1.77231e-07
2.96353e-05
-4.05228e-07
2.9891e-05
-1.96701e-07
2.97574e-05
-4.8923e-07
3.00157e-05
-3.44109e-07
2.98445e-05
-6.83989e-07
3.00168e-05
-6.02005e-07
2.94183e-05
-9.07012e-07
2.89135e-05
-7.16435e-07
-8.69347e-07
2.82681e-05
2.51166e-05
-2.25544e-07
2.52239e-05
-6.64207e-07
2.56001e-05
-1.13253e-06
2.59054e-05
-1.3561e-06
2.63808e-05
-1.48149e-06
2.66698e-05
-1.40413e-06
2.70773e-05
-1.28013e-06
2.72645e-05
-1.11497e-06
2.75945e-05
-9.76073e-07
2.76921e-05
-7.77444e-07
2.79606e-05
-7.09593e-07
2.80088e-05
-5.90866e-07
2.82372e-05
-5.50862e-07
2.82745e-05
-4.90564e-07
2.85069e-05
-5.05115e-07
2.85026e-05
-4.25349e-07
2.87182e-05
-4.46984e-07
2.8699e-05
-3.74268e-07
2.88977e-05
-4.01381e-07
2.88735e-05
-3.36609e-07
2.90812e-05
-3.76522e-07
2.90495e-05
-3.21789e-07
2.92429e-05
-3.55186e-07
2.91983e-05
-2.84951e-07
2.9396e-05
-3.56049e-07
2.93427e-05
-2.80474e-07
2.95447e-05
-3.29634e-07
2.94934e-05
-3.09287e-07
2.96861e-05
-3.43431e-07
2.96216e-05
-2.80086e-07
2.98304e-05
-3.8606e-07
2.97496e-05
-3.24334e-07
2.99439e-05
-3.91091e-07
2.98635e-05
-4.08818e-07
3.00247e-05
-5.05235e-07
2.98114e-05
-4.70692e-07
2.97956e-05
-5.86281e-07
2.94577e-05
-5.69088e-07
2.9344e-05
-6.02732e-07
-4.58829e-07
2.89335e-05
2.51051e-05
-3.30644e-07
2.53271e-05
-8.86238e-07
2.56722e-05
-1.47756e-06
2.60658e-05
-1.74972e-06
2.64881e-05
-1.90385e-06
2.68459e-05
-1.7619e-06
2.71933e-05
-1.62748e-06
2.74586e-05
-1.38029e-06
2.76753e-05
-1.19281e-06
2.78649e-05
-9.67031e-07
2.80471e-05
-8.91839e-07
2.81774e-05
-7.21153e-07
2.83454e-05
-7.18875e-07
2.84633e-05
-6.08405e-07
2.85835e-05
-6.25336e-07
2.86898e-05
-5.31647e-07
2.87966e-05
-5.53808e-07
2.88891e-05
-4.66785e-07
2.89948e-05
-5.07056e-07
2.9082e-05
-4.23814e-07
2.91635e-05
-4.58016e-07
2.92432e-05
-4.015e-07
2.93193e-05
-4.31207e-07
2.93913e-05
-3.57014e-07
2.94717e-05
-4.36419e-07
2.9541e-05
-3.49808e-07
2.96153e-05
-4.03932e-07
2.96856e-05
-3.79584e-07
2.97509e-05
-4.08703e-07
2.98215e-05
-3.50666e-07
2.98929e-05
-4.57493e-07
2.99465e-05
-3.77905e-07
3.0002e-05
-4.46644e-07
3.00236e-05
-4.304e-07
2.9984e-05
-4.65654e-07
2.9933e-05
-4.19619e-07
2.98349e-05
-4.88222e-07
2.96407e-05
-3.74927e-07
2.93823e-05
-3.443e-07
-2.16226e-07
2.91397e-05
2.5111e-05
-4.41688e-07
2.53939e-05
-1.16908e-06
2.58083e-05
-1.89195e-06
2.62363e-05
-2.17779e-06
2.66624e-05
-2.32995e-06
2.70366e-05
-2.13604e-06
2.73821e-05
-1.973e-06
2.76349e-05
-1.63306e-06
2.78781e-05
-1.43604e-06
2.80674e-05
-1.15632e-06
2.82483e-05
-1.07277e-06
2.83875e-05
-8.60338e-07
2.85412e-05
-8.72577e-07
2.86362e-05
-7.03378e-07
2.876e-05
-7.49133e-07
2.88351e-05
-6.06702e-07
2.8947e-05
-6.65731e-07
2.90036e-05
-5.23371e-07
2.91139e-05
-6.17407e-07
2.91499e-05
-4.59755e-07
2.92484e-05
-5.56592e-07
2.92802e-05
-4.33285e-07
2.93726e-05
-5.23551e-07
2.93922e-05
-3.76703e-07
2.94897e-05
-5.33829e-07
2.94952e-05
-3.55312e-07
2.95833e-05
-4.92031e-07
2.95786e-05
-3.74969e-07
2.96668e-05
-4.96836e-07
2.96488e-05
-3.32737e-07
2.97332e-05
-5.41867e-07
2.96993e-05
-3.43938e-07
2.97772e-05
-5.24633e-07
2.97004e-05
-3.53559e-07
2.97513e-05
-5.16581e-07
2.95938e-05
-2.62064e-07
2.95275e-05
-4.21997e-07
2.9244e-05
-9.13819e-08
2.90923e-05
-1.92582e-07
1.07046e-07
2.8769e-05
2.51222e-05
-5.63914e-07
2.55135e-05
-1.56041e-06
2.59678e-05
-2.34619e-06
2.64489e-05
-2.65887e-06
2.6868e-05
-2.74903e-06
2.72596e-05
-2.52773e-06
2.75522e-05
-2.26552e-06
2.7818e-05
-1.89888e-06
2.79984e-05
-1.61649e-06
2.81664e-05
-1.32428e-06
2.82659e-05
-1.17228e-06
2.83637e-05
-9.58182e-07
2.84061e-05
-9.14973e-07
2.84618e-05
-7.59062e-07
2.847e-05
-7.57352e-07
2.85004e-05
-6.37054e-07
2.84886e-05
-6.53929e-07
2.85003e-05
-5.3512e-07
2.84728e-05
-5.89845e-07
2.847e-05
-4.56941e-07
2.84371e-05
-5.23765e-07
2.8419e-05
-4.1512e-07
2.83786e-05
-4.83159e-07
2.83543e-05
-3.52472e-07
2.82992e-05
-4.78703e-07
2.82627e-05
-3.18771e-07
2.82102e-05
-4.39521e-07
2.81521e-05
-3.16923e-07
2.80937e-05
-4.38432e-07
2.80317e-05
-2.70724e-07
2.79563e-05
-4.66419e-07
2.78734e-05
-2.61093e-07
2.77981e-05
-4.49366e-07
2.76892e-05
-2.4461e-07
2.76159e-05
-4.43306e-07
2.74728e-05
-1.18984e-07
2.73401e-05
-2.89208e-07
2.70215e-05
2.27205e-07
2.67346e-05
9.43214e-08
4.64725e-07
2.63769e-05
2.51566e-05
-7.20562e-07
2.56299e-05
-2.03367e-06
2.61428e-05
-2.85912e-06
2.65794e-05
-3.09545e-06
2.68692e-05
-3.03877e-06
2.7061e-05
-2.71953e-06
2.71127e-05
-2.31727e-06
2.70993e-05
-1.88549e-06
2.70034e-05
-1.52058e-06
2.68788e-05
-1.19969e-06
2.66965e-05
-9.89919e-07
2.65271e-05
-7.88786e-07
2.63038e-05
-6.91741e-07
2.61147e-05
-5.69958e-07
2.58826e-05
-5.25244e-07
2.56865e-05
-4.40893e-07
2.54591e-05
-4.26557e-07
2.5272e-05
-3.48017e-07
2.50444e-05
-3.62273e-07
2.48729e-05
-2.85467e-07
2.46567e-05
-3.07564e-07
2.44884e-05
-2.46777e-07
2.4283e-05
-2.77719e-07
2.41324e-05
-2.01865e-07
2.39201e-05
-2.66444e-07
2.37834e-05
-1.82034e-07
2.35831e-05
-2.39259e-07
2.3441e-05
-1.7481e-07
2.32444e-05
-2.41848e-07
2.31196e-05
-1.45953e-07
2.29058e-05
-2.52635e-07
2.2789e-05
-1.44254e-07
2.25757e-05
-2.3604e-07
2.24567e-05
-1.25659e-07
2.22273e-05
-2.13845e-07
2.21674e-05
-5.90956e-08
2.20401e-05
-1.61945e-07
2.22507e-05
1.65864e-08
2.24739e-05
-1.28839e-07
-4.75096e-08
2.29861e-05
2.52117e-05
-9.32219e-07
2.55524e-05
-2.37445e-06
2.55678e-05
-2.87447e-06
2.5242e-05
-2.76965e-06
2.46302e-05
-2.42696e-06
2.38774e-05
-1.96672e-06
2.3065e-05
-1.50496e-06
2.22778e-05
-1.09821e-06
2.15389e-05
-7.81675e-07
2.08736e-05
-5.34428e-07
2.02632e-05
-3.79535e-07
1.97293e-05
-2.5487e-07
1.92339e-05
-1.96377e-07
1.88052e-05
-1.41255e-07
1.84027e-05
-1.22726e-07
1.80577e-05
-9.59109e-08
1.7727e-05
-9.58217e-08
1.74496e-05
-7.06583e-08
1.71721e-05
-8.47579e-08
1.69478e-05
-6.11834e-08
1.67136e-05
-7.32982e-08
1.6524e-05
-5.72394e-08
1.63197e-05
-7.33498e-08
1.61633e-05
-4.54598e-08
1.59728e-05
-7.60002e-08
1.58375e-05
-4.66858e-08
1.56654e-05
-6.71537e-08
1.55392e-05
-4.86455e-08
1.53712e-05
-7.38507e-08
1.52641e-05
-3.88068e-08
1.50896e-05
-7.81684e-08
1.49895e-05
-4.41833e-08
1.48207e-05
-6.72162e-08
1.47345e-05
-3.95016e-08
1.45768e-05
-5.61204e-08
1.45308e-05
-1.30528e-08
1.43843e-05
-1.5494e-08
1.44115e-05
-1.06175e-08
1.43677e-05
-8.49849e-08
-2.45404e-07
1.45656e-05
2.40678e-05
2.16933e-05
1.88189e-05
1.60492e-05
1.36223e-05
1.16555e-05
1.01506e-05
9.05236e-06
8.27068e-06
7.73626e-06
7.35672e-06
7.10185e-06
6.90547e-06
6.76422e-06
6.64149e-06
6.54558e-06
6.44976e-06
6.3791e-06
6.29434e-06
6.23316e-06
6.15986e-06
6.10262e-06
6.02927e-06
5.98381e-06
5.90781e-06
5.86113e-06
5.79397e-06
5.74533e-06
5.67148e-06
5.63267e-06
5.5545e-06
5.51032e-06
5.4431e-06
5.4036e-06
5.34748e-06
5.33443e-06
5.31893e-06
5.30832e-06
5.22333e-06
4.97793e-06
5.11008e-06
-1.3756e-07
-2.2606e-07
5.54945e-06
-1.8755e-07
-2.51819e-07
5.89288e-06
-2.2306e-07
-1.20374e-07
6.19098e-06
-2.54044e-07
-4.40572e-08
6.3777e-06
-2.43535e-07
5.68206e-08
6.44642e-06
-2.23202e-07
1.54482e-07
6.50246e-06
-1.97582e-07
1.41539e-07
6.56983e-06
-1.66862e-07
9.94931e-08
6.64477e-06
-1.4368e-07
6.8735e-08
6.72739e-06
-1.3508e-07
5.24587e-08
6.7896e-06
-1.33242e-07
7.10328e-08
6.82634e-06
-1.36436e-07
9.97036e-08
6.83997e-06
-1.33567e-07
1.19935e-07
6.83138e-06
-1.26183e-07
1.34769e-07
6.80666e-06
-1.12611e-07
1.37333e-07
6.7691e-06
-8.63851e-08
1.23939e-07
6.71991e-06
-3.80128e-08
8.72026e-08
6.67611e-06
1.5471e-08
2.83342e-08
6.66273e-06
6.37466e-08
-5.0369e-08
6.67764e-06
1.14969e-07
-1.2988e-07
6.71365e-06
1.65685e-07
-2.0169e-07
6.7806e-06
2.16133e-07
-2.83085e-07
6.873e-06
2.68517e-07
-3.60921e-07
6.9883e-06
3.21308e-07
-4.36602e-07
7.11367e-06
3.7602e-07
-5.01395e-07
7.26208e-06
4.24482e-07
-5.72885e-07
7.4164e-06
4.75802e-07
-6.30125e-07
7.60141e-06
5.24793e-07
-7.09806e-07
7.804e-06
5.772e-07
-7.79788e-07
8.01618e-06
6.21568e-07
-8.33747e-07
8.24176e-06
6.72723e-07
-8.98307e-07
8.48419e-06
7.0862e-07
-9.51044e-07
8.74039e-06
7.59939e-07
-1.01615e-06
9.02449e-06
7.93695e-07
-1.07779e-06
9.32685e-06
8.33944e-07
-1.1363e-06
9.65538e-06
8.59739e-07
-1.18826e-06
9.99669e-06
8.82478e-07
-1.22379e-06
1.03604e-05
8.94578e-07
-1.25824e-06
1.07384e-05
8.99309e-07
-1.27733e-06
1.11359e-05
8.91018e-07
-1.28856e-06
1.15394e-05
8.78894e-07
-1.28241e-06
1.19563e-05
8.38412e-07
-1.25531e-06
1.23678e-05
7.88263e-07
-1.19972e-06
1.27854e-05
7.25821e-07
-1.14342e-06
1.31955e-05
6.49498e-07
-1.05959e-06
1.36019e-05
5.56336e-07
-9.62755e-07
1.39945e-05
4.58985e-07
-8.51601e-07
1.43763e-05
3.34245e-07
-7.16068e-07
1.47412e-05
2.07598e-07
-5.72438e-07
1.51009e-05
5.38096e-08
-4.13525e-07
1.54252e-05
-7.42221e-08
-2.50151e-07
1.57158e-05
-2.21902e-07
-6.86594e-08
1.59962e-05
-3.71327e-07
9.0886e-08
1.6268e-05
-5.28943e-07
2.5717e-07
1.65259e-05
-6.73412e-07
4.1554e-07
1.67745e-05
-8.27604e-07
5.78957e-07
1.70187e-05
-9.70144e-07
7.25993e-07
1.72632e-05
-1.11635e-06
8.7182e-07
1.75074e-05
-1.24947e-06
1.00534e-06
1.77567e-05
-1.38325e-06
1.13391e-06
1.80147e-05
-1.49726e-06
1.23922e-06
1.82895e-05
-1.6184e-06
1.34362e-06
1.8571e-05
-1.71176e-06
1.4303e-06
1.88692e-05
-1.80751e-06
1.50929e-06
1.91836e-05
-1.88509e-06
1.57067e-06
1.9528e-05
-1.96665e-06
1.62227e-06
1.98917e-05
-2.0314e-06
1.66767e-06
2.02894e-05
-2.10026e-06
1.70258e-06
2.07137e-05
-2.16082e-06
1.73652e-06
2.11668e-05
-2.23109e-06
1.778e-06
2.16383e-05
-2.2946e-06
1.82309e-06
2.21444e-05
-2.38496e-06
1.87884e-06
2.26569e-05
-2.4702e-06
1.95772e-06
2.3189e-05
-2.59057e-06
2.05851e-06
2.37224e-05
-2.7134e-06
2.17999e-06
2.42575e-05
-2.86806e-06
2.3329e-06
2.47766e-05
-3.02957e-06
2.51048e-06
2.52885e-05
-3.21139e-06
2.69949e-06
2.57752e-05
-3.39996e-06
2.91332e-06
2.62631e-05
-3.61477e-06
3.12685e-06
2.67283e-05
-3.8141e-06
3.34891e-06
2.7202e-05
-4.04424e-06
3.57049e-06
2.76628e-05
-4.24691e-06
3.78616e-06
2.81315e-05
-4.46233e-06
3.99359e-06
2.85806e-05
-4.66213e-06
4.213e-06
2.90324e-05
-4.85252e-06
4.40072e-06
2.94437e-05
-5.02898e-06
4.61774e-06
2.98435e-05
-5.19166e-06
4.79183e-06
3.01923e-05
-5.33193e-06
4.98316e-06
3.05075e-05
-5.45636e-06
5.14116e-06
3.07745e-05
-5.55756e-06
5.29058e-06
3.0997e-05
-5.63656e-06
5.41404e-06
3.11662e-05
-5.70815e-06
5.53895e-06
3.12808e-05
-5.72585e-06
5.61122e-06
3.13442e-05
-5.76567e-06
5.70232e-06
3.13459e-05
-5.75104e-06
5.74932e-06
3.1312e-05
-5.7409e-06
5.77475e-06
3.12236e-05
-5.70393e-06
5.79235e-06
3.11094e-05
-5.66157e-06
5.77577e-06
3.09594e-05
-5.59845e-06
5.74845e-06
3.08043e-05
-5.53339e-06
5.6885e-06
3.06295e-05
-5.43725e-06
5.61206e-06
3.04799e-05
-5.36313e-06
5.5127e-06
3.03268e-05
-5.24025e-06
5.39337e-06
3.02085e-05
-5.13224e-06
5.25053e-06
3.01179e-05
-5.0227e-06
5.11325e-06
3.00865e-05
-4.91102e-06
4.94241e-06
3.00881e-05
-4.78689e-06
4.7853e-06
3.01486e-05
-4.67638e-06
4.61588e-06
3.02434e-05
-4.54758e-06
4.45282e-06
3.03928e-05
-4.43044e-06
4.28107e-06
3.05536e-05
-4.27159e-06
4.11081e-06
3.0748e-05
-4.12536e-06
3.93089e-06
3.09491e-05
-3.96047e-06
3.75935e-06
3.11625e-05
-3.77281e-06
3.55948e-06
3.13672e-05
-3.57395e-06
3.36918e-06
3.15816e-05
-3.36374e-06
3.14938e-06
3.17771e-05
-3.13915e-06
2.94363e-06
3.19713e-05
-2.90318e-06
2.709e-06
3.21405e-05
-2.66099e-06
2.49179e-06
3.22918e-05
-2.40482e-06
2.25356e-06
3.2408e-05
-2.16083e-06
2.04454e-06
3.24914e-05
-1.89876e-06
1.81546e-06
3.25423e-05
-1.67669e-06
1.62572e-06
3.2555e-05
-1.42731e-06
1.41463e-06
3.25255e-05
-1.22491e-06
1.25436e-06
3.24554e-05
-1.01354e-06
1.08372e-06
3.23503e-05
-8.50602e-07
9.55665e-07
3.22084e-05
-6.86087e-07
8.28008e-07
3.20557e-05
-5.89402e-07
7.42111e-07
3.18781e-05
-4.7704e-07
6.5465e-07
3.16846e-05
-4.20518e-07
6.13991e-07
3.14748e-05
-3.70898e-07
5.80655e-07
3.12705e-05
-3.86542e-07
5.90836e-07
3.10438e-05
-3.82453e-07
6.0917e-07
3.08116e-05
-4.37006e-07
6.69258e-07
3.0564e-05
-4.99976e-07
7.47508e-07
3.0327e-05
-6.23272e-07
8.60283e-07
3.00783e-05
-7.43377e-07
9.92121e-07
2.98367e-05
-9.27508e-07
1.1691e-06
2.95787e-05
-1.10619e-06
1.36419e-06
2.93394e-05
-1.33201e-06
1.57133e-06
2.91002e-05
-1.5581e-06
1.79728e-06
2.89005e-05
-1.84371e-06
2.04335e-06
2.87136e-05
-2.10989e-06
2.29679e-06
2.85826e-05
-2.41931e-06
2.55032e-06
2.84719e-05
-2.68392e-06
2.79462e-06
2.84257e-05
-2.96153e-06
3.00778e-06
2.84229e-05
-3.21626e-06
3.21904e-06
2.85118e-05
-3.4863e-06
3.39741e-06
2.86551e-05
-3.73033e-06
3.58702e-06
2.88978e-05
-3.99805e-06
3.75537e-06
2.91871e-05
-4.22959e-06
3.9402e-06
2.95577e-05
-4.45494e-06
4.08438e-06
2.99644e-05
-4.64415e-06
4.23743e-06
3.04365e-05
-4.80223e-06
4.33012e-06
3.09224e-05
-4.91604e-06
4.43015e-06
3.14534e-05
-4.98856e-06
4.45758e-06
3.19881e-05
-5.01464e-06
4.47992e-06
3.25362e-05
-4.98439e-06
4.43635e-06
3.30696e-05
-4.91505e-06
4.38163e-06
3.35958e-05
-4.77961e-06
4.25336e-06
3.40942e-05
-4.60765e-06
4.1093e-06
3.45646e-05
-4.36716e-06
3.89674e-06
3.50044e-05
-4.10379e-06
3.66404e-06
3.53932e-05
-3.7603e-06
3.37145e-06
3.57373e-05
-3.40905e-06
3.06491e-06
3.6027e-05
-2.99631e-06
2.70663e-06
3.6264e-05
-2.57029e-06
2.33331e-06
3.64362e-05
-2.10007e-06
1.92792e-06
3.65578e-05
-1.63552e-06
1.51389e-06
3.66028e-05
-1.12385e-06
1.07885e-06
3.65972e-05
-6.46824e-07
6.52451e-07
3.6521e-05
-1.49721e-07
2.25848e-07
3.63798e-05
3.521e-07
-2.10893e-07
3.61557e-05
8.52455e-07
-6.28291e-07
3.58889e-05
1.30199e-06
-1.03523e-06
3.5555e-05
1.75804e-06
-1.42409e-06
3.51652e-05
2.1569e-06
-1.7671e-06
3.47123e-05
2.5514e-06
-2.09856e-06
3.42267e-05
2.87553e-06
-2.38987e-06
3.36821e-05
3.19445e-06
-2.6499e-06
3.30907e-05
3.43886e-06
-2.84747e-06
3.24864e-05
3.65563e-06
-3.05134e-06
3.18814e-05
3.79607e-06
-3.19102e-06
3.1217e-05
3.94718e-06
-3.28284e-06
3.05094e-05
4.03246e-06
-3.32479e-06
2.98358e-05
4.06659e-06
-3.39308e-06
2.91659e-05
4.04531e-06
-3.37533e-06
2.84853e-05
4.03149e-06
-3.35089e-06
2.77839e-05
3.97533e-06
-3.27398e-06
2.71062e-05
3.88424e-06
-3.20656e-06
2.64248e-05
3.75467e-06
-3.07324e-06
2.57949e-05
3.6086e-06
-2.97864e-06
2.51556e-05
3.45612e-06
-2.81686e-06
2.45378e-05
3.28815e-06
-2.67038e-06
2.39148e-05
3.09605e-06
-2.47299e-06
2.33628e-05
2.88488e-06
-2.33294e-06
2.27603e-05
2.71358e-06
-2.11105e-06
2.21557e-05
2.50492e-06
-1.90032e-06
2.15565e-05
2.2692e-06
-1.67003e-06
2.10353e-05
2.01865e-06
-1.49745e-06
2.04823e-05
1.79928e-06
-1.24622e-06
2.00008e-05
1.52234e-06
-1.04089e-06
1.95463e-05
1.27668e-06
-8.22102e-07
1.91138e-05
1.04693e-06
-6.14514e-07
1.85888e-05
8.80581e-07
-3.55522e-07
1.81286e-05
6.64207e-07
-2.04075e-07
1.77509e-05
4.69264e-07
-9.14763e-08
1.74864e-05
3.25092e-07
-6.06082e-08
1.71521e-05
3.99649e-07
-6.53885e-08
1.67586e-05
5.76181e-07
-1.82682e-07
1.6251e-05
8.1176e-07
-3.04158e-07
1.56798e-05
9.71818e-07
-4.00653e-07
1.49532e-05
1.05102e-06
-3.24415e-07
1.41908e-05
8.75804e-07
-1.13393e-07
1.34677e-05
5.51797e-07
1.71342e-07
1.29474e-05
2.02742e-07
3.17595e-07
1.2577e-05
8.32335e-08
2.87161e-07
1.23839e-05
6.7061e-08
1.26021e-07
1.22762e-05
1.27845e-07
-2.01397e-08
1.2227e-05
1.10769e-07
-6.16401e-08
1.21605e-05
7.89699e-08
-1.23797e-08
1.21612e-05
-1.1819e-07
1.17421e-07
1.22304e-05
-3.40173e-07
2.71e-07
1.23891e-05
-5.30891e-07
3.72181e-07
1.24817e-05
-4.31043e-07
3.38418e-07
1.25463e-05
-2.55016e-07
1.90501e-07
1.26543e-05
-1.58441e-07
5.03626e-08
1.29846e-05
-4.28916e-07
9.86584e-08
1.34046e-05
-8.31053e-07
4.10993e-07
1.36936e-05
-1.11533e-06
8.26361e-07
1.35737e-05
-9.45501e-07
1.06546e-06
1.3117e-05
-4.87454e-07
9.44093e-07
1.25558e-05
4.77513e-09
5.56462e-07
1.22376e-05
9.58516e-08
2.22308e-07
1.22724e-05
-2.66598e-07
2.31846e-07
1.27243e-05
-1.1798e-06
7.27903e-07
1.34949e-05
-2.38082e-06
1.6102e-06
1.45133e-05
-3.76789e-06
2.74944e-06
1.56379e-05
-5.04541e-06
3.92082e-06
1.68597e-05
-6.22253e-06
5.00074e-06
1.80225e-05
-7.05916e-06
5.89634e-06
1.91863e-05
-7.73614e-06
6.57239e-06
2.01947e-05
-8.05609e-06
7.04768e-06
2.12298e-05
-8.28982e-06
7.25467e-06
2.21305e-05
-8.25689e-06
7.35618e-06
2.30701e-05
-8.20213e-06
7.26254e-06
2.38653e-05
-7.94875e-06
7.15361e-06
2.47241e-05
-7.67935e-06
6.82057e-06
2.55033e-05
-7.31475e-06
6.53548e-06
2.63364e-05
-6.92695e-06
6.0939e-06
2.7097e-05
-6.45907e-06
5.6984e-06
2.78878e-05
-5.94129e-06
5.15055e-06
2.86396e-05
-5.41698e-06
4.66521e-06
2.94161e-05
-4.8242e-06
4.04767e-06
3.0135e-05
-4.24466e-06
3.52574e-06
3.08435e-05
-3.56671e-06
2.85828e-06
3.14966e-05
-2.93279e-06
2.27969e-06
3.21184e-05
-2.22615e-06
1.60426e-06
3.26715e-05
-1.5569e-06
1.0038e-06
3.32185e-05
-8.22992e-07
2.76004e-07
3.37172e-05
-1.73138e-07
-3.25526e-07
3.41396e-05
6.51979e-07
-1.07439e-06
3.44766e-05
1.34905e-06
-1.68604e-06
3.47713e-05
2.07811e-06
-2.37279e-06
3.49444e-05
2.76207e-06
-2.93522e-06
3.5076e-05
3.47554e-06
-3.60715e-06
3.50732e-05
4.12475e-06
-4.12193e-06
3.50685e-05
4.74612e-06
-4.7414e-06
3.4892e-05
5.39061e-06
-5.21408e-06
3.47195e-05
5.9532e-06
-5.78079e-06
3.43932e-05
6.52927e-06
-6.20292e-06
3.41337e-05
6.98958e-06
-6.73009e-06
3.37007e-05
7.56161e-06
-7.1286e-06
3.33041e-05
7.94427e-06
-7.54763e-06
3.27533e-05
8.43859e-06
-7.88779e-06
3.22153e-05
8.75991e-06
-8.22194e-06
3.15076e-05
9.18224e-06
-8.47454e-06