/*--------------------------------*- C++ -*----------------------------------*\
| =========                 |                                                 |
| \\      /  F ield         | OpenFOAM: The Open Source CFD Toolbox           |
|  \\    /   O peration     | Version:  2.4.0                                 |
|   \\  /    A nd           | Web:      www.OpenFOAM.org                      |
|    \\/     M anipulation  |                                                 |
\*---------------------------------------------------------------------------*/
FoamFile
{
    version     2.0;
    format      ascii;
    class       volVectorField;
    location    "0.12";
    object      U_0;
}
// * * * * * * * * * * * * * * * * * * * * * * * * * * * * * * * * * * * * * //

dimensions      [0 1 -1 0 0 0 0];

internalField   nonuniform List<vector> 
17600
(
(9.95646 0.110758 0)
(9.19588 0.38497 0)
(8.063 0.44127 0)
(6.91155 0.365422 0)
(5.87532 0.251442 0)
(5.00021 0.144691 0)
(4.32274 0.0621756 0)
(3.81517 0.00969272 0)
(3.45082 -0.0187284 0)
(3.19203 -0.0314208 0)
(3.01609 -0.0352551 0)
(2.88782 -0.032003 0)
(2.80312 -0.0279221 0)
(2.73187 -0.0226415 0)
(2.68506 -0.017656 0)
(2.63529 -0.0138986 0)
(2.60456 -0.0113775 0)
(2.56381 -0.00740346 0)
(2.54142 -0.0065438 0)
(2.50439 -0.00425075 0)
(2.48846 -0.00318797 0)
(2.45242 -0.00188635 0)
(2.44176 -0.00218917 0)
(2.40584 -0.00025726 0)
(2.40031 -0.00108551 0)
(2.36232 0.000242707 0)
(2.36302 -0.000643721 0)
(2.3223 0.00106544 0)
(2.32849 -0.000393227 0)
(2.28458 0.00114593 0)
(2.29661 0.000139332 0)
(2.24736 0.00225185 0)
(2.26278 -2.53901e-05 0)
(2.20851 0.00436125 0)
(2.22034 0.00162121 0)
(2.15711 0.00723176 0)
(2.15783 0.00663221 0)
(2.0709 0.00479228 0)
(2.05262 0.0335254 0)
(1.82689 -0.00699134 0)
(10.0023 0.171226 0)
(10.115 0.443105 0)
(10.1794 0.605912 0)
(10.1208 0.670277 0)
(9.95625 0.653439 0)
(9.69494 0.586285 0)
(9.39652 0.494362 0)
(9.08044 0.395585 0)
(8.78002 0.306866 0)
(8.48887 0.234466 0)
(8.24123 0.175114 0)
(7.99347 0.134725 0)
(7.80413 0.102713 0)
(7.59949 0.080346 0)
(7.45126 0.065659 0)
(7.28221 0.0534555 0)
(7.1708 0.0434943 0)
(7.02021 0.0392807 0)
(6.94459 0.0328382 0)
(6.80812 0.0288732 0)
(6.75749 0.0270723 0)
(6.63133 0.0241487 0)
(6.60536 0.0220201 0)
(6.48007 0.0206139 0)
(6.47701 0.0199709 0)
(6.35065 0.0179168 0)
(6.36722 0.0170315 0)
(6.23517 0.0170495 0)
(6.27189 0.0157798 0)
(6.13415 0.0148079 0)
(6.18328 0.0156101 0)
(6.04246 0.0163774 0)
(6.10208 0.0155047 0)
(5.94998 0.0191573 0)
(6.02021 0.0222249 0)
(5.84834 0.0253925 0)
(5.91476 0.0383455 0)
(5.7125 0.0532183 0)
(5.77055 0.0582988 0)
(5.52459 0.0324762 0)
(10.0019 0.127974 0)
(10.0919 0.357895 0)
(10.2619 0.524382 0)
(10.4572 0.609635 0)
(10.6488 0.613573 0)
(10.7677 0.571667 0)
(10.8519 0.498725 0)
(10.8581 0.415994 0)
(10.856 0.344819 0)
(10.787 0.285348 0)
(10.7505 0.235714 0)
(10.6403 0.206712 0)
(10.5968 0.176806 0)
(10.4722 0.157264 0)
(10.426 0.144297 0)
(10.2957 0.129363 0)
(10.2593 0.116089 0)
(10.1188 0.112108 0)
(10.098 0.0974706 0)
(9.95499 0.0930644 0)
(9.94349 0.0851249 0)
(9.79968 0.0812489 0)
(9.80068 0.069992 0)
(9.65459 0.0736853 0)
(9.66545 0.0602861 0)
(9.51801 0.0648831 0)
(9.54243 0.0515315 0)
(9.38812 0.0605618 0)
(9.42397 0.0429505 0)
(9.27309 0.0562426 0)
(9.30985 0.0375031 0)
(9.16064 0.05664 0)
(9.20805 0.031434 0)
(9.04669 0.0635183 0)
(9.10493 0.0326615 0)
(8.93196 0.0764188 0)
(8.99029 0.0375029 0)
(8.79005 0.111063 0)
(8.81119 0.0725798 0)
(8.54488 0.174129 0)
(10.0019 0.098111 0)
(10.0675 0.282489 0)
(10.2221 0.411853 0)
(10.3813 0.494489 0)
(10.5985 0.501523 0)
(10.7719 0.473268 0)
(10.961 0.423989 0)
(11.0685 0.360138 0)
(11.2039 0.30677 0)
(11.2476 0.259844 0)
(11.3333 0.222337 0)
(11.3333 0.200398 0)
(11.3931 0.178782 0)
(11.3676 0.163585 0)
(11.4154 0.157717 0)
(11.3814 0.142504 0)
(11.4201 0.135293 0)
(11.3805 0.129907 0)
(11.4163 0.119156 0)
(11.3728 0.110563 0)
(11.4026 0.110155 0)
(11.3586 0.0975157 0)
(11.3835 0.0974836 0)
(11.3363 0.0880494 0)
(11.3572 0.0929233 0)
(11.3095 0.0760136 0)
(11.3245 0.0876861 0)
(11.2794 0.0709193 0)
(11.2854 0.0835134 0)
(11.2458 0.0593659 0)
(11.2459 0.0874978 0)
(11.2031 0.0524831 0)
(11.2075 0.0869927 0)
(11.1549 0.0542918 0)
(11.159 0.1007 0)
(11.0999 0.0573673 0)
(11.0991 0.116494 0)
(11.0361 0.0311203 0)
(11.0316 0.0404641 0)
(10.8509 -0.148701 0)
(10.0067 0.0875171 0)
(10.0603 0.204846 0)
(10.1666 0.337993 0)
(10.3229 0.386342 0)
(10.51 0.408829 0)
(10.6734 0.378948 0)
(10.8645 0.352677 0)
(10.9947 0.290542 0)
(11.1202 0.259062 0)
(11.2187 0.214094 0)
(11.2993 0.184755 0)
(11.3529 0.169206 0)
(11.4167 0.150078 0)
(11.4535 0.135284 0)
(11.4986 0.132113 0)
(11.5349 0.120961 0)
(11.571 0.109534 0)
(11.5986 0.113694 0)
(11.63 0.0981696 0)
(11.6587 0.0970757 0)
(11.6847 0.0919511 0)
(11.7071 0.0895027 0)
(11.7366 0.0798194 0)
(11.7575 0.0845463 0)
(11.7785 0.0753025 0)
(11.8044 0.0774534 0)
(11.8212 0.0682838 0)
(11.8473 0.0753078 0)
(11.8563 0.0648483 0)
(11.8861 0.0670172 0)
(11.8911 0.0650212 0)
(11.9183 0.0678263 0)
(11.9222 0.0602204 0)
(11.9486 0.075112 0)
(11.9491 0.0694004 0)
(11.9683 0.0852748 0)
(11.9469 0.0852456 0)
(11.9331 0.0989981 0)
(11.8578 0.0726823 0)
(11.8727 0.0465456 0)
(9.99519 0.0395687 0)
(10.0503 0.20262 0)
(10.1434 0.218368 0)
(10.2901 0.330224 0)
(10.4246 0.295574 0)
(10.6093 0.339411 0)
(10.7557 0.257125 0)
(10.9027 0.286772 0)
(11.018 0.179818 0)
(11.1416 0.214493 0)
(11.2073 0.119202 0)
(11.2994 0.169316 0)
(11.3435 0.0836524 0)
(11.3947 0.147817 0)
(11.4312 0.0689207 0)
(11.4823 0.136957 0)
(11.4972 0.0581096 0)
(11.5462 0.134266 0)
(11.5702 0.0445003 0)
(11.6117 0.122563 0)
(11.6377 0.0402042 0)
(11.6832 0.112609 0)
(11.7046 0.0268132 0)
(11.7478 0.112214 0)
(11.7722 0.018896 0)
(11.8093 0.106266 0)
(11.8341 0.0124645 0)
(11.8697 0.108065 0)
(11.8923 0.00713368 0)
(11.9254 0.101913 0)
(11.945 0.0076078 0)
(11.9786 0.103414 0)
(12.0014 -0.00021723 0)
(12.0309 0.110239 0)
(12.0524 0.00558038 0)
(12.0828 0.119952 0)
(12.0977 0.0244806 0)
(12.1177 0.175695 0)
(12.1029 0.109666 0)
(11.9684 0.251079 0)
(9.99661 0.050417 0)
(10.0576 0.120348 0)
(10.1164 0.18269 0)
(10.2253 0.232316 0)
(10.3911 0.245894 0)
(10.5278 0.237575 0)
(10.6929 0.231314 0)
(10.8409 0.188327 0)
(10.9579 0.168793 0)
(11.0573 0.138213 0)
(11.1587 0.118866 0)
(11.214 0.0998089 0)
(11.2727 0.105513 0)
(11.3188 0.0772322 0)
(11.3658 0.0901613 0)
(11.4003 0.0730871 0)
(11.4489 0.0829452 0)
(11.4828 0.0609815 0)
(11.5114 0.0771188 0)
(11.5581 0.0498498 0)
(11.5921 0.0688586 0)
(11.6202 0.0438325 0)
(11.6517 0.0647021 0)
(11.6971 0.036847 0)
(11.7091 0.0600047 0)
(11.7454 0.0367081 0)
(11.7797 0.0522834 0)
(11.8085 0.0321173 0)
(11.829 0.0549021 0)
(11.8693 0.0262838 0)
(11.8905 0.0503623 0)
(11.9199 0.0259808 0)
(11.9475 0.0460026 0)
(11.9811 0.0263198 0)
(12.0049 0.0486097 0)
(12.0375 0.0304073 0)
(12.0634 0.063142 0)
(12.0646 0.0448912 0)
(12.0198 0.0554823 0)
(11.8088 -0.0599991 0)
(9.99433 0.0215784 0)
(10.0364 0.100345 0)
(10.0973 0.122782 0)
(10.2328 0.161423 0)
(10.3423 0.160918 0)
(10.4995 0.183991 0)
(10.6491 0.145323 0)
(10.7787 0.157157 0)
(10.8956 0.113419 0)
(11.0148 0.114456 0)
(11.096 0.0715185 0)
(11.1756 0.0932525 0)
(11.2416 0.0531363 0)
(11.2815 0.0699965 0)
(11.3317 0.0444554 0)
(11.3736 0.0641527 0)
(11.4147 0.0367439 0)
(11.4326 0.067738 0)
(11.4783 0.032132 0)
(11.5076 0.0504721 0)
(11.5424 0.0351181 0)
(11.5667 0.0501987 0)
(11.6209 0.0223751 0)
(11.6336 0.0475373 0)
(11.6724 0.0275925 0)
(11.6977 0.0380842 0)
(11.7445 0.0155044 0)
(11.748 0.0424603 0)
(11.8003 0.0166318 0)
(11.8228 0.0294715 0)
(11.8509 0.0162454 0)
(11.8653 0.0316864 0)
(11.92 0.00388983 0)
(11.9299 0.0264114 0)
(11.9659 0.00540165 0)
(11.9891 0.0207856 0)
(12.0266 0.00219417 0)
(12.0116 0.016867 0)
(11.9827 -0.0038811 0)
(11.7665 0.00910149 0)
(9.99673 0.0255648 0)
(10.0393 0.0486593 0)
(10.1041 0.0629887 0)
(10.197 0.0937597 0)
(10.3191 0.108229 0)
(10.4716 0.0969877 0)
(10.6046 0.109389 0)
(10.7564 0.0877462 0)
(10.8683 0.0714896 0)
(10.9887 0.0596098 0)
(11.0687 0.0494503 0)
(11.1589 0.0388094 0)
(11.1933 0.0507079 0)
(11.2579 0.0326504 0)
(11.2853 0.0329348 0)
(11.3434 0.0316535 0)
(11.3647 0.040916 0)
(11.411 0.0308963 0)
(11.4332 0.0278986 0)
(11.4836 0.0271892 0)
(11.5034 0.0263293 0)
(11.5555 0.016704 0)
(11.5761 0.0247287 0)
(11.6212 0.0228863 0)
(11.6344 0.0187657 0)
(11.6853 0.0172124 0)
(11.6942 0.0181418 0)
(11.7372 0.0127669 0)
(11.7595 0.0146012 0)
(11.8038 0.00948283 0)
(11.8023 0.017577 0)
(11.8539 -0.000407081 0)
(11.8765 0.00210005 0)
(11.9068 -0.00432544 0)
(11.9226 -0.00657354 0)
(11.9728 -0.0239926 0)
(11.9818 -0.0184707 0)
(11.9934 -0.0294936 0)
(11.9355 -0.0263473 0)
(11.7325 -0.0342575 0)
(10.0073 0.022321 0)
(10.0261 -0.00345154 0)
(10.0994 0.0454689 0)
(10.1842 0.0144379 0)
(10.3284 0.0460627 0)
(10.4466 0.0185774 0)
(10.6153 0.0442867 0)
(10.7232 0.0124941 0)
(10.8625 0.0410395 0)
(10.9575 0.00368308 0)
(11.0658 0.0278695 0)
(11.1128 0.0111531 0)
(11.1976 0.0351571 0)
(11.2305 -0.00637656 0)
(11.2913 0.0208238 0)
(11.3236 -0.0101731 0)
(11.3729 0.02411 0)
(11.3908 -0.00336155 0)
(11.4391 0.016133 0)
(11.4647 -0.0109419 0)
(11.5092 0.0184544 0)
(11.528 -0.0115968 0)
(11.5771 0.0171098 0)
(11.5964 -0.00474561 0)
(11.6321 0.0156674 0)
(11.6572 -0.00696081 0)
(11.6961 0.010185 0)
(11.7131 -0.0145086 0)
(11.7546 0.00732421 0)
(11.7777 -0.0112037 0)
(11.8018 0.00308242 0)
(11.8288 -0.0243448 0)
(11.8697 -0.0100062 0)
(11.8829 -0.0329465 0)
(11.918 -0.0321248 0)
(11.9481 -0.0632783 0)
(11.9717 -0.0524737 0)
(11.9713 -0.0791667 0)
(11.9338 -0.0676004 0)
(11.7322 -0.0518619 0)
(9.98552 0.00580865 0)
(10.0401 -0.0278527 0)
(10.0914 -0.0253604 0)
(10.2014 -0.0364119 0)
(10.3115 -0.0210275 0)
(10.4675 -0.0446958 0)
(10.5826 -0.0128123 0)
(10.7365 -0.0239592 0)
(10.856 -0.0243177 0)
(10.9758 -0.0244796 0)
(11.0454 -0.0126091 0)
(11.1369 -0.015336 0)
(11.1901 -0.00517147 0)
(11.2514 -0.0136203 0)
(11.2901 -0.0213522 0)
(11.3252 -0.0145832 0)
(11.3498 0.00121316 0)
(11.4046 -0.0085327 0)
(11.4266 -0.0142611 0)
(11.4663 -0.00521273 0)
(11.5018 -0.00949149 0)
(11.5349 -0.0146003 0)
(11.5589 -0.00523841 0)
(11.6022 -0.00126992 0)
(11.6323 -0.014215 0)
(11.6589 -0.00371899 0)
(11.6948 -0.0117466 0)
(11.7211 -0.0143798 0)
(11.7436 -0.0177029 0)
(11.7776 -0.00495702 0)
(11.8004 -0.0211924 0)
(11.8312 -0.0209986 0)
(11.8594 -0.0346243 0)
(11.8821 -0.0300327 0)
(11.9125 -0.0645273 0)
(11.9376 -0.0678724 0)
(11.9593 -0.107869 0)
(11.9727 -0.112952 0)
(11.9486 -0.142052 0)
(11.7516 -0.0236797 0)
(9.99962 0.0247077 0)
(10.0438 -0.130578 0)
(10.1026 -0.0194329 0)
(10.2021 -0.150197 0)
(10.3437 -0.051616 0)
(10.4633 -0.160024 0)
(10.6119 -0.0324754 0)
(10.7672 -0.157947 0)
(10.8837 -0.0147713 0)
(10.9865 -0.12339 0)
(11.0693 0.0057451 0)
(11.1438 -0.101019 0)
(11.212 0.024012 0)
(11.269 -0.107512 0)
(11.3009 0.0208346 0)
(11.327 -0.0982576 0)
(11.3735 0.0263041 0)
(11.4267 -0.100354 0)
(11.4434 0.0283643 0)
(11.4894 -0.0978893 0)
(11.5276 0.0289007 0)
(11.5467 -0.0950501 0)
(11.5772 0.0377731 0)
(11.6313 -0.097997 0)
(11.6442 0.0346929 0)
(11.6801 -0.0908867 0)
(11.7179 0.0319612 0)
(11.7357 -0.104806 0)
(11.7534 0.0372284 0)
(11.7994 -0.099986 0)
(11.8199 0.0244722 0)
(11.8446 -0.114155 0)
(11.872 0.0218197 0)
(11.9004 -0.132547 0)
(11.9152 -0.0117988 0)
(11.9426 -0.16994 0)
(11.9593 -0.0703455 0)
(11.9865 -0.264766 0)
(11.9942 -0.185978 0)
(11.8877 -0.328989 0)
(9.99414 -0.00769717 0)
(10.0582 -0.115704 0)
(10.1215 -0.102951 0)
(10.2511 -0.194363 0)
(10.3594 -0.137706 0)
(10.5089 -0.203951 0)
(10.6609 -0.122255 0)
(10.8018 -0.177334 0)
(10.9172 -0.0775337 0)
(11.0304 -0.137899 0)
(11.1073 -0.0415761 0)
(11.1936 -0.118967 0)
(11.2534 -0.0272618 0)
(11.2995 -0.103118 0)
(11.3382 -0.0148761 0)
(11.3763 -0.103009 0)
(11.4161 -0.00529872 0)
(11.4594 -0.0949365 0)
(11.4827 -0.00221497 0)
(11.5233 -0.0889158 0)
(11.5571 0.00856682 0)
(11.5823 -0.0887605 0)
(11.6239 0.00800972 0)
(11.6596 -0.0848911 0)
(11.6777 0.0102807 0)
(11.7168 -0.0877588 0)
(11.7507 0.0168024 0)
(11.7655 -0.0924956 0)
(11.796 0.0132441 0)
(11.8329 -0.0918246 0)
(11.8548 0.00973298 0)
(11.8735 -0.104377 0)
(11.9066 0.00519001 0)
(11.9266 -0.121827 0)
(11.9399 -0.0185637 0)
(11.9634 -0.162263 0)
(11.9728 -0.0781816 0)
(11.9744 -0.257105 0)
(11.9674 -0.183051 0)
(12.047 -0.350784 0)
(9.99403 -0.0451785 0)
(10.0597 -0.103372 0)
(10.1369 -0.192782 0)
(10.2563 -0.211075 0)
(10.3826 -0.258245 0)
(10.5521 -0.227357 0)
(10.6953 -0.232455 0)
(10.8426 -0.184407 0)
(10.9611 -0.179468 0)
(11.0727 -0.12682 0)
(11.1568 -0.138297 0)
(11.2366 -0.0944566 0)
(11.2718 -0.10499 0)
(11.3316 -0.074386 0)
(11.3754 -0.0986305 0)
(11.4116 -0.0639017 0)
(11.4471 -0.0898079 0)
(11.4925 -0.0575138 0)
(11.5122 -0.080442 0)
(11.5559 -0.0497868 0)
(11.5917 -0.0777861 0)
(11.6264 -0.0478034 0)
(11.6545 -0.0735021 0)
(11.6944 -0.0420777 0)
(11.7139 -0.0752771 0)
(11.7489 -0.0401268 0)
(11.7776 -0.0701641 0)
(11.8113 -0.0476635 0)
(11.8291 -0.0737547 0)
(11.8643 -0.0414805 0)
(11.888 -0.0833621 0)
(11.9095 -0.0513307 0)
(11.931 -0.0844022 0)
(11.9578 -0.0661779 0)
(11.9679 -0.110529 0)
(11.9865 -0.093137 0)
(11.9892 -0.150747 0)
(12.0005 -0.140462 0)
(12.0221 -0.168229 0)
(12.1915 -0.0651131 0)
(9.97775 -0.0479989 0)
(10.077 -0.164614 0)
(10.1298 -0.246402 0)
(10.298 -0.315115 0)
(10.4209 -0.324038 0)
(10.6148 -0.321505 0)
(10.75 -0.280462 0)
(10.9156 -0.253437 0)
(11.0213 -0.206902 0)
(11.1419 -0.187433 0)
(11.2122 -0.152328 0)
(11.2907 -0.139325 0)
(11.3304 -0.12092 0)
(11.4004 -0.120349 0)
(11.427 -0.106828 0)
(11.4712 -0.106136 0)
(11.5049 -0.0927005 0)
(11.5464 -0.0930149 0)
(11.5702 -0.0835065 0)
(11.6205 -0.0858954 0)
(11.6445 -0.0762842 0)
(11.68 -0.0809588 0)
(11.7088 -0.0709834 0)
(11.7453 -0.0728943 0)
(11.7694 -0.0707925 0)
(11.8039 -0.0718753 0)
(11.831 -0.0669857 0)
(11.8616 -0.0772085 0)
(11.8799 -0.0662838 0)
(11.9123 -0.072888 0)
(11.9362 -0.0763614 0)
(11.9537 -0.076853 0)
(11.9774 -0.0768707 0)
(11.9984 -0.0931192 0)
(12.0055 -0.0889119 0)
(12.0175 -0.0987881 0)
(12.0258 -0.10166 0)
(12.0338 -0.102271 0)
(12.0735 -0.0853502 0)
(12.2327 -0.0650459 0)
(9.93313 -0.085374 0)
(10.1287 -0.202006 0)
(10.1136 -0.343081 0)
(10.384 -0.37722 0)
(10.4461 -0.423179 0)
(10.7349 -0.374043 0)
(10.7975 -0.356522 0)
(11.0445 -0.29066 0)
(11.0742 -0.263961 0)
(11.2652 -0.204764 0)
(11.2541 -0.198689 0)
(11.4045 -0.152896 0)
(11.3723 -0.16266 0)
(11.4993 -0.126949 0)
(11.4543 -0.140086 0)
(11.5651 -0.110251 0)
(11.5251 -0.124833 0)
(11.6285 -0.0972076 0)
(11.5881 -0.116555 0)
(11.6884 -0.0863643 0)
(11.6453 -0.104739 0)
(11.7373 -0.083388 0)
(11.6995 -0.0976402 0)
(11.7829 -0.0736563 0)
(11.7478 -0.10128 0)
(11.8251 -0.0698215 0)
(11.7896 -0.0919328 0)
(11.8567 -0.077666 0)
(11.8245 -0.0917619 0)
(11.884 -0.0706277 0)
(11.8545 -0.102459 0)
(11.8999 -0.0758694 0)
(11.8768 -0.0985643 0)
(11.9073 -0.0861193 0)
(11.8808 -0.101871 0)
(11.8984 -0.0774398 0)
(11.8754 -0.0862413 0)
(11.8857 -0.0529091 0)
(11.9035 -0.0510339 0)
(12.0606 -0.0543118 0)
(9.93032 -0.0994142 0)
(10.1466 -0.277054 0)
(10.1391 -0.423729 0)
(10.4587 -0.487679 0)
(10.5232 -0.512581 0)
(10.8526 -0.468016 0)
(10.8793 -0.425967 0)
(11.1568 -0.355594 0)
(11.1151 -0.309041 0)
(11.3362 -0.253346 0)
(11.2413 -0.232881 0)
(11.4264 -0.189375 0)
(11.2965 -0.191723 0)
(11.4638 -0.155989 0)
(11.3183 -0.164661 0)
(11.4751 -0.135457 0)
(11.3239 -0.145867 0)
(11.4775 -0.115559 0)
(11.3158 -0.135427 0)
(11.468 -0.0996551 0)
(11.3033 -0.122225 0)
(11.4487 -0.0925008 0)
(11.2822 -0.114216 0)
(11.4248 -0.0787111 0)
(11.2532 -0.115697 0)
(11.3886 -0.0710958 0)
(11.2212 -0.107596 0)
(11.3439 -0.0722701 0)
(11.1785 -0.107562 0)
(11.2939 -0.0617671 0)
(11.1295 -0.116108 0)
(11.2287 -0.0600963 0)
(11.0751 -0.113866 0)
(11.152 -0.0602374 0)
(11.01 -0.114211 0)
(11.0664 -0.0374475 0)
(10.9452 -0.0896689 0)
(10.9863 0.0268317 0)
(10.9219 0.00182059 0)
(11.0544 0.122069 0)
(9.97431 -0.129081 0)
(10.122 -0.35654 0)
(10.2312 -0.526356 0)
(10.4942 -0.604035 0)
(10.6084 -0.618346 0)
(10.81 -0.569608 0)
(10.8042 -0.500001 0)
(10.9068 -0.417297 0)
(10.8004 -0.345906 0)
(10.8498 -0.282009 0)
(10.6809 -0.241516 0)
(10.7163 -0.200356 0)
(10.5165 -0.182369 0)
(10.5507 -0.155122 0)
(10.3415 -0.146675 0)
(10.3778 -0.126522 0)
(10.1647 -0.122866 0)
(10.2141 -0.104588 0)
(9.99194 -0.106787 0)
(10.0546 -0.0873144 0)
(9.83416 -0.0928021 0)
(9.899 -0.0766667 0)
(9.68176 -0.0829264 0)
(9.757 -0.0647518 0)
(9.53353 -0.0793988 0)
(9.61589 -0.0563643 0)
(9.40008 -0.0723853 0)
(9.47435 -0.0536222 0)
(9.26738 -0.0703801 0)
(9.34206 -0.0456527 0)
(9.13573 -0.0740065 0)
(9.20376 -0.0421492 0)
(9.01395 -0.0718359 0)
(9.06112 -0.0374287 0)
(8.89479 -0.0688744 0)
(8.92869 -0.0151363 0)
(8.80481 -0.0473862 0)
(8.83939 0.0331585 0)
(8.797 0.00811498 0)
(8.76766 0.093768 0)
(9.9966 -0.171873 0)
(10.1229 -0.440513 0)
(10.1694 -0.608837 0)
(10.1326 -0.668246 0)
(9.94345 -0.654838 0)
(9.71145 -0.586541 0)
(9.37948 -0.49465 0)
(9.09889 -0.395398 0)
(8.75672 -0.308412 0)
(8.51421 -0.23226 0)
(8.20789 -0.178505 0)
(8.02941 -0.131834 0)
(7.76111 -0.105032 0)
(7.63952 -0.0796053 0)
(7.40481 -0.0665459 0)
(7.32409 -0.0517199 0)
(7.11748 -0.0468784 0)
(7.07127 -0.0354708 0)
(6.8804 -0.036682 0)
(6.86492 -0.0274491 0)
(6.68674 -0.0297552 0)
(6.68882 -0.0234896 0)
(6.5241 -0.0275471 0)
(6.53974 -0.0186448 0)
(6.38013 -0.0272877 0)
(6.40721 -0.0178163 0)
(6.25578 -0.0244593 0)
(6.28122 -0.0182459 0)
(6.14299 -0.0259017 0)
(6.16363 -0.0155993 0)
(6.03545 -0.0274821 0)
(6.04625 -0.017186 0)
(5.93821 -0.0245044 0)
(5.92652 -0.016177 0)
(5.85383 -0.0190854 0)
(5.8182 -0.00749085 0)
(5.79601 -0.00408228 0)
(5.72969 -0.017747 0)
(5.77496 -0.0317636 0)
(5.63369 -0.123662 0)
(9.9563 -0.111159 0)
(9.19602 -0.384985 0)
(8.06207 -0.441251 0)
(6.91312 -0.364336 0)
(5.87415 -0.252245 0)
(5.00298 -0.144703 0)
(4.31915 -0.0622364 0)
(3.81821 -0.00990161 0)
(3.44368 0.0188343 0)
(3.19789 0.0321174 0)
(3.00582 0.0343669 0)
(2.8964 0.0331005 0)
(2.79013 0.0271343 0)
(2.74206 0.0229778 0)
(2.66963 0.0174347 0)
(2.64696 0.0143675 0)
(2.58695 0.0103674 0)
(2.57717 0.00880883 0)
(2.52113 0.00497009 0)
(2.51866 0.00505877 0)
(2.46416 0.00226621 0)
(2.46628 0.00241424 0)
(2.41173 0.000456936 0)
(2.4172 0.00175607 0)
(2.36272 -0.00121421 0)
(2.3692 0.000986887 0)
(2.31566 -0.00122245 0)
(2.32225 -5.79908e-07 0)
(2.2694 -0.00185389 0)
(2.27408 0.000608072 0)
(2.22486 -0.00262331 0)
(2.22378 0.000575436 0)
(2.18204 -0.00142833 0)
(2.17436 0.00143713 0)
(2.14808 -0.000475214 0)
(2.13174 0.00367168 0)
(2.14043 -0.00253657 0)
(2.10354 0.0106466 0)
(2.14915 -0.0126991 0)
(1.9824 0.0193091 0)
(1.99415 -0.099287 0)
(2.1063 -0.0807817 0)
(2.2587 -0.0766862 0)
(2.42056 -0.0758968 0)
(2.52897 -0.0895083 0)
(2.60054 -0.113471 0)
(2.61579 -0.130672 0)
(2.61384 -0.131759 0)
(2.62142 -0.129153 0)
(2.65488 -0.129701 0)
(2.68734 -0.126749 0)
(2.72706 -0.123231 0)
(2.74611 -0.113782 0)
(2.75558 -0.101964 0)
(2.74325 -0.0855374 0)
(2.72466 -0.0644651 0)
(2.71086 -0.0302926 0)
(2.67869 0.0131776 0)
(2.67691 0.051474 0)
(2.66616 0.0881667 0)
(2.68435 0.121521 0)
(2.7001 0.155727 0)
(2.73499 0.190623 0)
(2.7736 0.225633 0)
(2.82019 0.26375 0)
(2.88161 0.298541 0)
(2.9417 0.333256 0)
(3.01007 0.369838 0)
(3.08475 0.408018 0)
(3.17431 0.441422 0)
(3.25151 0.480207 0)
(3.36418 0.506699 0)
(3.43937 0.546487 0)
(3.57027 0.569165 0)
(3.6685 0.599827 0)
(3.808 0.618999 0)
(3.93394 0.636108 0)
(4.07962 0.646294 0)
(4.216 0.653418 0)
(4.38179 0.649002 0)
(4.52724 0.641027 0)
(4.70148 0.611544 0)
(4.85703 0.579245 0)
(5.02801 0.540115 0)
(5.18698 0.489812 0)
(5.36092 0.424933 0)
(5.50809 0.363845 0)
(5.67843 0.280618 0)
(5.81259 0.201265 0)
(5.96983 0.106371 0)
(6.09476 0.00895595 0)
(6.23684 -0.10459 0)
(6.3408 -0.21055 0)
(6.46227 -0.325433 0)
(6.55694 -0.423819 0)
(6.67414 -0.534514 0)
(6.75857 -0.628235 0)
(6.87262 -0.726699 0)
(6.96259 -0.812064 0)
(7.07148 -0.901168 0)
(7.16106 -0.96925 0)
(7.28051 -1.04548 0)
(7.38097 -1.09848 0)
(7.50468 -1.15677 0)
(7.61549 -1.19972 0)
(7.7602 -1.24496 0)
(7.89723 -1.27588 0)
(8.05843 -1.31465 0)
(8.21711 -1.34387 0)
(8.40333 -1.38559 0)
(8.58559 -1.42508 0)
(8.79546 -1.48251 0)
(8.99353 -1.5426 0)
(9.21117 -1.62599 0)
(9.41878 -1.71404 0)
(9.64343 -1.82863 0)
(9.85143 -1.94369 0)
(10.06 -2.07057 0)
(10.2508 -2.20753 0)
(10.4516 -2.34827 0)
(10.6258 -2.48061 0)
(10.8166 -2.62302 0)
(11.0019 -2.75223 0)
(11.1781 -2.88097 0)
(11.3641 -3.01307 0)
(11.5431 -3.12973 0)
(11.7141 -3.25705 0)
(11.8708 -3.36072 0)
(12.0202 -3.48145 0)
(12.1415 -3.58132 0)
(12.26 -3.68642 0)
(12.3297 -3.7761 0)
(12.437 -3.87043 0)
(12.4767 -3.91439 0)
(12.5201 -3.98025 0)
(12.508 -3.98693 0)
(12.5153 -3.99641 0)
(12.4725 -3.97679 0)
(12.458 -3.94996 0)
(12.3723 -3.8995 0)
(12.3365 -3.83161 0)
(12.2706 -3.74633 0)
(12.2034 -3.65906 0)
(12.1299 -3.5446 0)
(12.1005 -3.43709 0)
(12.0658 -3.32886 0)
(12.0286 -3.20547 0)
(12.0465 -3.10124 0)
(12.0546 -2.98913 0)
(12.1044 -2.88076 0)
(12.1333 -2.77399 0)
(12.2218 -2.66408 0)
(12.2772 -2.54158 0)
(12.3884 -2.427 0)
(12.4375 -2.2867 0)
(12.5403 -2.15549 0)
(12.611 -1.99988 0)
(12.7202 -1.85881 0)
(12.7758 -1.69442 0)
(12.859 -1.55456 0)
(12.9075 -1.38894 0)
(12.9846 -1.25362 0)
(13.0007 -1.09592 0)
(13.036 -0.973906 0)
(13.0279 -0.83349 0)
(13.0381 -0.743355 0)
(13.002 -0.622709 0)
(12.9703 -0.554117 0)
(12.9041 -0.468932 0)
(12.86 -0.434345 0)
(12.7701 -0.380717 0)
(12.7234 -0.375808 0)
(12.6228 -0.358135 0)
(12.5456 -0.382785 0)
(12.4384 -0.391539 0)
(12.3762 -0.456903 0)
(12.2536 -0.507653 0)
(12.1782 -0.602153 0)
(12.0464 -0.688627 0)
(11.9615 -0.825176 0)
(11.844 -0.94838 0)
(11.7711 -1.10103 0)
(11.6316 -1.24741 0)
(11.5766 -1.43045 0)
(11.4761 -1.58886 0)
(11.4297 -1.7681 0)
(11.36 -1.90874 0)
(11.3544 -2.04576 0)
(11.3252 -2.17142 0)
(11.3731 -2.3023 0)
(11.4046 -2.42908 0)
(11.5063 -2.56536 0)
(11.6095 -2.6995 0)
(11.7574 -2.81832 0)
(11.9099 -2.9375 0)
(12.0917 -3.02125 0)
(12.2926 -3.10337 0)
(12.5043 -3.13654 0)
(12.7207 -3.16457 0)
(12.9369 -3.14135 0)
(13.1661 -3.10897 0)
(13.3692 -3.0139 0)
(13.583 -2.91477 0)
(13.7716 -2.75746 0)
(13.9654 -2.60012 0)
(14.1083 -2.3809 0)
(14.2726 -2.17251 0)
(14.3814 -1.90828 0)
(14.5033 -1.64698 0)
(14.5658 -1.35003 0)
(14.6246 -1.05785 0)
(14.6492 -0.730326 0)
(14.6695 -0.428461 0)
(14.6164 -0.0844922 0)
(14.5912 0.219558 0)
(14.5093 0.528175 0)
(14.4158 0.800721 0)
(14.263 1.0793 0)
(14.1267 1.30981 0)
(13.9382 1.55792 0)
(13.7708 1.75037 0)
(13.5444 1.94474 0)
(13.3249 2.08576 0)
(13.0511 2.23869 0)
(12.8399 2.31737 0)
(12.5715 2.40752 0)
(12.2949 2.45167 0)
(11.9924 2.49836 0)
(11.7575 2.4696 0)
(11.4703 2.4612 0)
(11.1988 2.39259 0)
(10.9083 2.35098 0)
(10.6577 2.25412 0)
(10.3835 2.16885 0)
(10.1412 2.04735 0)
(9.88369 1.94553 0)
(9.6386 1.79079 0)
(9.40705 1.67284 0)
(9.17915 1.53012 0)
(8.93113 1.39182 0)
(8.6833 1.24256 0)
(8.47408 1.12017 0)
(8.24671 0.962401 0)
(8.05226 0.796438 0)
(7.8617 0.637541 0)
(7.70537 0.488754 0)
(7.48269 0.333625 0)
(7.29775 0.188818 0)
(7.12534 0.102679 0)
(7.04132 0.112061 0)
(6.89504 0.243985 0)
(6.75569 0.414614 0)
(6.52993 0.556512 0)
(6.32763 0.577875 0)
(6.02065 0.483782 0)
(5.73818 0.245914 0)
(5.40691 0.0168416 0)
(5.21427 -0.143133 0)
(5.02657 -0.112488 0)
(4.97464 -0.0455665 0)
(4.89348 0.0496814 0)
(4.91657 0.0210363 0)
(4.85096 -0.0141452 0)
(4.88871 -0.162959 0)
(4.85844 -0.248155 0)
(4.97243 -0.342003 0)
(4.96243 -0.252534 0)
(5.04997 -0.158365 0)
(5.00462 -0.0580218 0)
(5.19114 -0.238312 0)
(5.28597 -0.508441 0)
(5.52214 -0.788602 0)
(5.42155 -0.716795 0)
(5.3399 -0.462404 0)
(4.99015 -0.0974542 0)
(4.92817 -0.0478558 0)
(4.80301 -0.261746 0)
(5.07045 -0.888272 0)
(5.24697 -1.6185 0)
(5.75645 -2.53255 0)
(6.0936 -3.29663 0)
(6.67706 -4.04909 0)
(7.06333 -4.54947 0)
(7.60329 -4.97017 0)
(7.97061 -5.16612 0)
(8.40157 -5.27606 0)
(8.78019 -5.27894 0)
(9.12905 -5.20039 0)
(9.50944 -5.06831 0)
(9.77536 -4.82227 0)
(10.184 -4.62727 0)
(10.4249 -4.31134 0)
(10.845 -4.04482 0)
(11.0342 -3.63597 0)
(11.4786 -3.32772 0)
(11.6697 -2.89144 0)
(12.0892 -2.54356 0)
(12.2431 -2.05202 0)
(12.64 -1.68134 0)
(12.7732 -1.17877 0)
(13.1419 -0.779915 0)
(13.2058 -0.26648 0)
(13.533 0.129908 0)
(13.5934 0.660192 0)
(13.8928 1.06053 0)
(13.8712 1.55167 0)
(14.063 1.93998 0)
(13.9819 2.43018 0)
(14.1319 2.79422 0)
(14.012 3.23388 0)
(14.0417 3.58749 0)
(13.8715 3.99599 0)
(13.8314 4.33377 0)
(13.6795 4.67595 0)
(13.5244 4.985 0)
(13.3953 5.23285 0)
(13.1216 5.51751 0)
(13.0062 5.69154 0)
(12.6001 5.92425 0)
(12.4755 5.97678 0)
(11.9514 6.17555 0)
(11.7859 6.16347 0)
(11.188 6.24574 0)
(10.864 6.11181 0)
(10.2525 6.09268 0)
(9.81066 6.00543 0)
(9.3921 5.99631 0)
(8.90301 6.10153 0)
(8.7536 6.18456 0)
(8.249 6.4638 0)
(8.28694 6.5115 0)
(7.79311 6.81355 0)
(7.84234 6.79523 0)
(7.45511 6.96219 0)
(7.35419 6.79759 0)
(7.16534 6.66679 0)
(6.88732 6.39986 0)
(6.92761 6.07954 0)
(6.49982 5.98631 0)
(6.65399 5.72069 0)
(6.17609 5.81656 0)
(6.33227 5.51758 0)
(5.95576 5.61926 0)
(6.02594 5.25609 0)
(5.86141 5.22948 0)
(5.76842 4.78067 0)
(5.81252 4.52377 0)
(5.57087 4.05238 0)
(5.811 3.65272 0)
(5.50045 3.29347 0)
(5.86754 2.83287 0)
(5.5217 2.60512 0)
(5.94059 2.13435 0)
(5.58546 2.05425 0)
(6.0076 1.57591 0)
(5.65478 1.53583 0)
(6.03521 0.963751 0)
(5.68553 0.904854 0)
(6.02135 0.293797 0)
(5.70043 0.26237 0)
(6.02686 -0.353736 0)
(5.75732 -0.403659 0)
(6.10553 -1.07397 0)
(5.87047 -1.18004 0)
(6.25704 -1.87616 0)
(6.02166 -1.99905 0)
(6.46113 -2.65676 0)
(6.19495 -2.76472 0)
(6.67111 -3.33095 0)
(6.35018 -3.44027 0)
(6.81977 -3.88924 0)
(6.47419 -4.02824 0)
(6.90233 -4.2962 0)
(6.60294 -4.46767 0)
(6.93683 -4.53431 0)
(6.73467 -4.75483 0)
(6.9297 -4.5721 0)
(6.86166 -4.75431 0)
(6.88718 -4.33955 0)
(6.94013 -4.55881 0)
(6.80098 -4.03844 0)
(6.98343 -4.24765 0)
(6.72804 -3.59332 0)
(6.99085 -3.76326 0)
(6.63077 -3.09994 0)
(6.92678 -3.29019 0)
(6.51633 -2.66003 0)
(6.83917 -2.83116 0)
(6.42636 -2.22677 0)
(6.77544 -2.37126 0)
(6.38571 -1.80357 0)
(6.74697 -1.93598 0)
(6.35737 -1.42092 0)
(6.6932 -1.57688 0)
(6.27656 -1.12251 0)
(6.594 -1.30354 0)
(6.17763 -0.848827 0)
(6.51695 -1.01862 0)
(6.10983 -0.54715 0)
(6.45229 -0.767423 0)
(6.02458 -0.334788 0)
(6.37354 -0.622147 0)
(5.96882 -0.147953 0)
(6.37441 -0.412836 0)
(5.98961 0.164146 0)
(6.40917 -0.14403 0)
(5.95924 0.429097 0)
(6.33822 -0.0310355 0)
(5.83 0.561022 0)
(6.2359 0.0415548 0)
(5.76565 0.779863 0)
(6.20888 0.262581 0)
(5.76495 1.0961 0)
(6.12458 0.494412 0)
(5.67583 1.28924 0)
(5.90001 0.606852 0)
(5.54431 1.35618 0)
(5.68246 0.749369 0)
(5.54562 1.47535 0)
(5.6038 1.08421 0)
(5.75555 1.72197 0)
(5.67753 1.6229 0)
(6.13385 2.0565 0)
(5.87404 2.32332 0)
(6.60819 2.46256 0)
(6.1994 3.17132 0)
(7.08403 2.97725 0)
(6.66351 4.11108 0)
(7.42508 3.65881 0)
(7.25759 5.02395 0)
(7.54322 4.61226 0)
(7.88032 5.77149 0)
(7.42147 5.84244 0)
(8.18396 6.14286 0)
(7.09921 7.00716 0)
(7.66318 6.17401 0)
(6.94884 7.74262 0)
(6.16624 7.13039 0)
(7.67109 8.32222 0)
(5.74183 11.2027 0)
(5.55568 -0.149933 0)
(5.61035 -0.232941 0)
(5.70259 -0.262661 0)
(5.79228 -0.244269 0)
(5.86057 -0.199402 0)
(5.89624 -0.147738 0)
(5.9093 -0.101296 0)
(5.90629 -0.0634568 0)
(5.90113 -0.0378452 0)
(5.90024 -0.024007 0)
(5.90178 -0.0204711 0)
(5.90214 -0.0244318 0)
(5.90096 -0.0277167 0)
(5.88916 -0.03053 0)
(5.87532 -0.0299985 0)
(5.84621 -0.0159789 0)
(5.8237 0.00616591 0)
(5.81428 0.0302025 0)
(5.80539 0.0574259 0)
(5.79486 0.0851762 0)
(5.78441 0.116514 0)
(5.78082 0.148372 0)
(5.77171 0.181514 0)
(5.77448 0.212422 0)
(5.77064 0.245531 0)
(5.78329 0.273375 0)
(5.78288 0.303218 0)
(5.80508 0.328648 0)
(5.80899 0.354565 0)
(5.84711 0.375573 0)
(5.86144 0.401306 0)
(5.91364 0.416211 0)
(5.9426 0.43878 0)
(6.00882 0.453366 0)
(6.06247 0.468938 0)
(6.14236 0.478601 0)
(6.21425 0.486268 0)
(6.31234 0.485024 0)
(6.39887 0.479129 0)
(6.51057 0.466078 0)
(6.62185 0.448882 0)
(6.74844 0.418146 0)
(6.86729 0.381296 0)
(7.00571 0.336002 0)
(7.1351 0.285875 0)
(7.28027 0.227572 0)
(7.42324 0.159766 0)
(7.57122 0.0848513 0)
(7.71025 0.00794317 0)
(7.86248 -0.0757262 0)
(7.99442 -0.163817 0)
(8.13147 -0.259194 0)
(8.26246 -0.35817 0)
(8.40019 -0.458717 0)
(8.5271 -0.555772 0)
(8.66379 -0.653652 0)
(8.78363 -0.747729 0)
(8.911 -0.841297 0)
(9.03082 -0.930215 0)
(9.15402 -1.0149 0)
(9.26827 -1.09328 0)
(9.39321 -1.17091 0)
(9.50338 -1.23724 0)
(9.63073 -1.306 0)
(9.74914 -1.36139 0)
(9.88175 -1.42025 0)
(10.0097 -1.47062 0)
(10.1523 -1.52473 0)
(10.2921 -1.57819 0)
(10.4507 -1.63291 0)
(10.6036 -1.68681 0)
(10.7809 -1.75691 0)
(10.947 -1.81744 0)
(11.1263 -1.90276 0)
(11.2995 -1.98372 0)
(11.4865 -2.08496 0)
(11.6615 -2.18858 0)
(11.8438 -2.30592 0)
(11.9966 -2.41929 0)
(12.1748 -2.54828 0)
(12.3056 -2.65889 0)
(12.4558 -2.79282 0)
(12.5714 -2.89929 0)
(12.6789 -3.03098 0)
(12.7582 -3.14111 0)
(12.8466 -3.26591 0)
(12.8801 -3.36996 0)
(12.9298 -3.48382 0)
(12.9189 -3.56423 0)
(12.9242 -3.6446 0)
(12.8709 -3.69327 0)
(12.8054 -3.73799 0)
(12.7506 -3.75956 0)
(12.6619 -3.76112 0)
(12.5471 -3.76194 0)
(12.451 -3.7256 0)
(12.324 -3.69151 0)
(12.186 -3.64225 0)
(12.0935 -3.60156 0)
(11.9721 -3.5439 0)
(11.9109 -3.48972 0)
(11.8318 -3.4239 0)
(11.8033 -3.37936 0)
(11.764 -3.29818 0)
(11.8037 -3.25545 0)
(11.8389 -3.20194 0)
(11.9202 -3.15625 0)
(11.9871 -3.09315 0)
(12.1099 -3.05927 0)
(12.2281 -2.99719 0)
(12.3494 -2.94322 0)
(12.4756 -2.84971 0)
(12.6167 -2.78911 0)
(12.7496 -2.68064 0)
(12.8721 -2.57214 0)
(12.9858 -2.43719 0)
(13.1018 -2.30253 0)
(13.2114 -2.13694 0)
(13.297 -1.97987 0)
(13.3689 -1.79374 0)
(13.4383 -1.62248 0)
(13.4975 -1.43654 0)
(13.5355 -1.25772 0)
(13.5514 -1.08561 0)
(13.5383 -0.904122 0)
(13.5187 -0.749844 0)
(13.4901 -0.606893 0)
(13.417 -0.472646 0)
(13.3241 -0.358317 0)
(13.2181 -0.274484 0)
(13.0888 -0.190012 0)
(12.9531 -0.143016 0)
(12.7975 -0.118183 0)
(12.6449 -0.125014 0)
(12.468 -0.126068 0)
(12.3046 -0.173225 0)
(12.14 -0.240965 0)
(11.9923 -0.338691 0)
(11.8088 -0.445491 0)
(11.676 -0.594916 0)
(11.5472 -0.741088 0)
(11.4549 -0.926517 0)
(11.3354 -1.11279 0)
(11.2896 -1.32028 0)
(11.2196 -1.5114 0)
(11.2234 -1.71937 0)
(11.208 -1.88425 0)
(11.2698 -2.08043 0)
(11.3075 -2.25756 0)