/*--------------------------------*- C++ -*----------------------------------*\
| =========                 |                                                 |
| \\      /  F ield         | OpenFOAM: The Open Source CFD Toolbox           |
|  \\    /   O peration     | Version:  2.4.0                                 |
|   \\  /    A nd           | Web:      www.OpenFOAM.org                      |
|    \\/     M anipulation  |                                                 |
\*---------------------------------------------------------------------------*/
FoamFile
{
    version     2.0;
    format      ascii;
    class       volScalarField;
    location    "0.215";
    object      pPrime2Mean;
}
// * * * * * * * * * * * * * * * * * * * * * * * * * * * * * * * * * * * * * //

dimensions      [0 4 -4 0 0 0 0];

internalField   nonuniform List<scalar> 
17600
(
3.00579e+06
2.92999e+06
2.84849e+06
2.76773e+06
2.68811e+06
2.60966e+06
2.53237e+06
2.45623e+06
2.38125e+06
2.30742e+06
2.23474e+06
2.1632e+06
2.09277e+06
2.02342e+06
1.95508e+06
1.88761e+06
1.82076e+06
1.75399e+06
1.68611e+06
1.61305e+06
3.00585e+06
2.92999e+06
2.84849e+06
2.76773e+06
2.68811e+06
2.60966e+06
2.53237e+06
2.45623e+06
2.38125e+06
2.30742e+06
2.23474e+06
2.1632e+06
2.09277e+06
2.02343e+06
1.95509e+06
1.88762e+06
1.82078e+06
1.75403e+06
1.68621e+06
1.61325e+06
3.0059e+06
2.92998e+06
2.84849e+06
2.76773e+06
2.68811e+06
2.60966e+06
2.53237e+06
2.45623e+06
2.38125e+06
2.30742e+06
2.23474e+06
2.1632e+06
2.09278e+06
2.02343e+06
1.9551e+06
1.88764e+06
1.82082e+06
1.75411e+06
1.68638e+06
1.614e+06
3.00593e+06
2.92997e+06
2.84848e+06
2.76773e+06
2.68811e+06
2.60966e+06
2.53237e+06
2.45623e+06
2.38125e+06
2.30742e+06
2.23474e+06
2.1632e+06
2.09278e+06
2.02344e+06
1.95511e+06
1.88767e+06
1.82087e+06
1.75422e+06
1.68665e+06
1.61505e+06
3.00596e+06
2.92996e+06
2.84847e+06
2.76772e+06
2.68811e+06
2.60966e+06
2.53236e+06
2.45623e+06
2.38125e+06
2.30742e+06
2.23474e+06
2.1632e+06
2.09278e+06
2.02345e+06
1.95513e+06
1.8877e+06
1.82094e+06
1.75437e+06
1.687e+06
1.6163e+06
3.00598e+06
2.92995e+06
2.84846e+06
2.76772e+06
2.68811e+06
2.60966e+06
2.53236e+06
2.45623e+06
2.38125e+06
2.30742e+06
2.23475e+06
2.16321e+06
2.09279e+06
2.02346e+06
1.95515e+06
1.88775e+06
1.82103e+06
1.75455e+06
1.68742e+06
1.61767e+06
3.00601e+06
2.92994e+06
2.84845e+06
2.76772e+06
2.68811e+06
2.60966e+06
2.53236e+06
2.45623e+06
2.38125e+06
2.30742e+06
2.23475e+06
2.16321e+06
2.0928e+06
2.02348e+06
1.95518e+06
1.8878e+06
1.82113e+06
1.75476e+06
1.68791e+06
1.61911e+06
3.00603e+06
2.92993e+06
2.84844e+06
2.76772e+06
2.68811e+06
2.60966e+06
2.53236e+06
2.45623e+06
2.38125e+06
2.30742e+06
2.23475e+06
2.16322e+06
2.09281e+06
2.02349e+06
1.95521e+06
1.88786e+06
1.82124e+06
1.755e+06
1.68845e+06
1.62057e+06
3.00605e+06
2.92992e+06
2.84844e+06
2.76771e+06
2.68811e+06
2.60966e+06
2.53236e+06
2.45623e+06
2.38125e+06
2.30743e+06
2.23475e+06
2.16322e+06
2.09282e+06
2.02351e+06
1.95525e+06
1.88793e+06
1.82137e+06
1.75526e+06
1.68903e+06
1.62203e+06
3.00607e+06
2.92992e+06
2.84843e+06
2.76771e+06
2.68811e+06
2.60966e+06
2.53236e+06
2.45623e+06
2.38125e+06
2.30743e+06
2.23476e+06
2.16323e+06
2.09283e+06
2.02353e+06
1.95528e+06
1.888e+06
1.82152e+06
1.75555e+06
1.68964e+06
1.62348e+06
3.00609e+06
2.92992e+06
2.84842e+06
2.76771e+06
2.68811e+06
2.60966e+06
2.53236e+06
2.45623e+06
2.38125e+06
2.30743e+06
2.23476e+06
2.16323e+06
2.09284e+06
2.02355e+06
1.95533e+06
1.88808e+06
1.82167e+06
1.75585e+06
1.69028e+06
1.62491e+06
3.0061e+06
2.92991e+06
2.84841e+06
2.7677e+06
2.68811e+06
2.60966e+06
2.53236e+06
2.45623e+06
2.38125e+06
2.30743e+06
2.23476e+06
2.16324e+06
2.09285e+06
2.02358e+06
1.95537e+06
1.88816e+06
1.82183e+06
1.75617e+06
1.69093e+06
1.6263e+06
3.00611e+06
2.92991e+06
2.84841e+06
2.7677e+06
2.68811e+06
2.60966e+06
2.53236e+06
2.45622e+06
2.38125e+06
2.30743e+06
2.23477e+06
2.16325e+06
2.09287e+06
2.0236e+06
1.95542e+06
1.88825e+06
1.822e+06
1.7565e+06
1.6916e+06
1.62765e+06
3.00612e+06
2.92991e+06
2.8484e+06
2.7677e+06
2.68811e+06
2.60966e+06
2.53236e+06
2.45622e+06
2.38125e+06
2.30743e+06
2.23477e+06
2.16326e+06
2.09288e+06
2.02363e+06
1.95547e+06
1.88835e+06
1.82217e+06
1.75684e+06
1.69226e+06
1.62896e+06
3.00613e+06
2.92991e+06
2.8484e+06
2.7677e+06
2.68811e+06
2.60966e+06
2.53236e+06
2.45623e+06
2.38125e+06
2.30744e+06
2.23478e+06
2.16327e+06
2.0929e+06
2.02366e+06
1.95552e+06
1.88844e+06
1.82236e+06
1.75718e+06
1.69293e+06
1.63021e+06
3.00614e+06
2.92991e+06
2.84839e+06
2.76769e+06
2.68811e+06
2.60966e+06
2.53236e+06
2.45623e+06
2.38125e+06
2.30744e+06
2.23478e+06
2.16327e+06
2.09291e+06
2.02369e+06
1.95558e+06
1.88854e+06
1.82254e+06
1.75753e+06
1.69359e+06
1.63142e+06
3.00615e+06
2.92991e+06
2.84839e+06
2.76769e+06
2.68811e+06
2.60966e+06
2.53236e+06
2.45623e+06
2.38125e+06
2.30744e+06
2.23478e+06
2.16328e+06
2.09293e+06
2.02372e+06
1.95563e+06
1.88864e+06
1.82273e+06
1.75788e+06
1.69425e+06
1.63257e+06
3.00615e+06
2.92991e+06
2.84839e+06
2.76769e+06
2.68811e+06
2.60966e+06
2.53236e+06
2.45623e+06
2.38125e+06
2.30744e+06
2.23479e+06
2.16329e+06
2.09295e+06
2.02375e+06
1.95569e+06
1.88875e+06
1.82292e+06
1.75823e+06
1.69489e+06
1.63368e+06
3.00615e+06
2.92991e+06
2.84839e+06
2.76769e+06
2.68811e+06
2.60966e+06
2.53236e+06
2.45623e+06
2.38126e+06
2.30745e+06
2.23479e+06
2.1633e+06
2.09296e+06
2.02378e+06
1.95574e+06
1.88885e+06
1.82311e+06
1.75858e+06
1.69551e+06
1.63473e+06
3.00615e+06
2.92991e+06
2.84839e+06
2.76769e+06
2.68811e+06
2.60966e+06
2.53236e+06
2.45623e+06
2.38126e+06
2.30745e+06
2.2348e+06
2.16331e+06
2.09298e+06
2.02381e+06
1.9558e+06
1.88896e+06
1.8233e+06
1.75893e+06
1.69612e+06
1.63572e+06
3.00615e+06
2.92991e+06
2.84839e+06
2.76769e+06
2.68811e+06
2.60966e+06
2.53236e+06
2.45623e+06
2.38126e+06
2.30745e+06
2.2348e+06
2.16332e+06
2.093e+06
2.02384e+06
1.95586e+06
1.88906e+06
1.82349e+06
1.75926e+06
1.69671e+06
1.63667e+06
3.00615e+06
2.92991e+06
2.84839e+06
2.76769e+06
2.68811e+06
2.60966e+06
2.53236e+06
2.45623e+06
2.38126e+06
2.30745e+06
2.23481e+06
2.16333e+06
2.09301e+06
2.02387e+06
1.95591e+06
1.88916e+06
1.82367e+06
1.75959e+06
1.69727e+06
1.63756e+06
3.00615e+06
2.92991e+06
2.84839e+06
2.76769e+06
2.68811e+06
2.60966e+06
2.53236e+06
2.45623e+06
2.38126e+06
2.30746e+06
2.23481e+06
2.16334e+06
2.09303e+06
2.0239e+06
1.95597e+06
1.88926e+06
1.82386e+06
1.75991e+06
1.69781e+06
1.6384e+06
3.00615e+06
2.92991e+06
2.84839e+06
2.76769e+06
2.68811e+06
2.60966e+06
2.53236e+06
2.45623e+06
2.38126e+06
2.30746e+06
2.23482e+06
2.16335e+06
2.09305e+06
2.02393e+06
1.95602e+06
1.88936e+06
1.82403e+06
1.76022e+06
1.69833e+06
1.6392e+06
3.00614e+06
2.92991e+06
2.8484e+06
2.76769e+06
2.68811e+06
2.60966e+06
2.53236e+06
2.45623e+06
2.38126e+06
2.30746e+06
2.23482e+06
2.16336e+06
2.09306e+06
2.02396e+06
1.95608e+06
1.88946e+06
1.8242e+06
1.76052e+06
1.69882e+06
1.63994e+06
3.00613e+06
2.92991e+06
2.8484e+06
2.7677e+06
2.68811e+06
2.60966e+06
2.53237e+06
2.45623e+06
2.38127e+06
2.30746e+06
2.23483e+06
2.16337e+06
2.09308e+06
2.02399e+06
1.95613e+06
1.88955e+06
1.82437e+06
1.7608e+06
1.69929e+06
1.64063e+06
3.00612e+06
2.92991e+06
2.8484e+06
2.7677e+06
2.68811e+06
2.60966e+06
2.53237e+06
2.45624e+06
2.38127e+06
2.30747e+06
2.23483e+06
2.16337e+06
2.0931e+06
2.02402e+06
1.95618e+06
1.88964e+06
1.82452e+06
1.76107e+06
1.69972e+06
1.64127e+06
3.00611e+06
2.92991e+06
2.84841e+06
2.7677e+06
2.68811e+06
2.60966e+06
2.53237e+06
2.45624e+06
2.38127e+06
2.30747e+06
2.23484e+06
2.16338e+06
2.09311e+06
2.02404e+06
1.95623e+06
1.88972e+06
1.82467e+06
1.76132e+06
1.70013e+06
1.64187e+06
3.0061e+06
2.92991e+06
2.84841e+06
2.76771e+06
2.68811e+06
2.60966e+06
2.53237e+06
2.45624e+06
2.38127e+06
2.30747e+06
2.23484e+06
2.16339e+06
2.09312e+06
2.02407e+06
1.95627e+06
1.8898e+06
1.82481e+06
1.76155e+06
1.70051e+06
1.64241e+06
3.00609e+06
2.92992e+06
2.84842e+06
2.76771e+06
2.68811e+06
2.60966e+06
2.53237e+06
2.45624e+06
2.38127e+06
2.30748e+06
2.23485e+06
2.1634e+06
2.09314e+06
2.02409e+06
1.95631e+06
1.88988e+06
1.82494e+06
1.76177e+06
1.70085e+06
1.64291e+06
3.00607e+06
2.92992e+06
2.84843e+06
2.76771e+06
2.68811e+06
2.60966e+06
2.53237e+06
2.45624e+06
2.38128e+06
2.30748e+06
2.23485e+06
2.1634e+06
2.09315e+06
2.02411e+06
1.95635e+06
1.88994e+06
1.82506e+06
1.76197e+06
1.70117e+06
1.64337e+06
3.00605e+06
2.92993e+06
2.84844e+06
2.76771e+06
2.68811e+06
2.60966e+06
2.53237e+06
2.45624e+06
2.38128e+06
2.30748e+06
2.23485e+06
2.16341e+06
2.09316e+06
2.02413e+06
1.95638e+06
1.89001e+06
1.82516e+06
1.76215e+06
1.70145e+06
1.64377e+06
3.00603e+06
2.92993e+06
2.84845e+06
2.76772e+06
2.68811e+06
2.60966e+06
2.53237e+06
2.45624e+06
2.38128e+06
2.30748e+06
2.23486e+06
2.16341e+06
2.09317e+06
2.02415e+06
1.95642e+06
1.89006e+06
1.82526e+06
1.76231e+06
1.70171e+06
1.64413e+06
3.00601e+06
2.92994e+06
2.84845e+06
2.76772e+06
2.68811e+06
2.60966e+06
2.53237e+06
2.45625e+06
2.38128e+06
2.30748e+06
2.23486e+06
2.16342e+06
2.09318e+06
2.02417e+06
1.95644e+06
1.89011e+06
1.82535e+06
1.76246e+06
1.70193e+06
1.64445e+06
3.00599e+06
2.92995e+06
2.84846e+06
2.76772e+06
2.68811e+06
2.60966e+06
2.53237e+06
2.45625e+06
2.38128e+06
2.30749e+06
2.23486e+06
2.16342e+06
2.09319e+06
2.02418e+06
1.95647e+06
1.89016e+06
1.82542e+06
1.76258e+06
1.70212e+06
1.64472e+06
3.00596e+06
2.92996e+06
2.84847e+06
2.76772e+06
2.68811e+06
2.60966e+06
2.53238e+06
2.45625e+06
2.38128e+06
2.30749e+06
2.23487e+06
2.16343e+06
2.09319e+06
2.02419e+06
1.95649e+06
1.89019e+06
1.82549e+06
1.76268e+06
1.70228e+06
1.64494e+06
3.00593e+06
2.92997e+06
2.84848e+06
2.76773e+06
2.68811e+06
2.60967e+06
2.53238e+06
2.45625e+06
2.38128e+06
2.30749e+06
2.23487e+06
2.16343e+06
2.0932e+06
2.0242e+06
1.95651e+06
1.89022e+06
1.82554e+06
1.76277e+06
1.70241e+06
1.64512e+06
3.0059e+06
2.92998e+06
2.84849e+06
2.76773e+06
2.68811e+06
2.60967e+06
2.53238e+06
2.45625e+06
2.38128e+06
2.30749e+06
2.23487e+06
2.16343e+06
2.0932e+06
2.02421e+06
1.95652e+06
1.89024e+06
1.82557e+06
1.76283e+06
1.7025e+06
1.64526e+06
3.00585e+06
2.92999e+06
2.8485e+06
2.76773e+06
2.68812e+06
2.60967e+06
2.53238e+06
2.45625e+06
2.38129e+06
2.30749e+06
2.23487e+06
2.16343e+06
2.0932e+06
2.02421e+06
1.95653e+06
1.89026e+06
1.8256e+06
1.76287e+06
1.70257e+06
1.64534e+06
3.00579e+06
2.92999e+06
2.8485e+06
2.76773e+06
2.68812e+06
2.60967e+06
2.53238e+06
2.45625e+06
2.38129e+06
2.30749e+06
2.23487e+06
2.16343e+06
2.0932e+06
2.02422e+06
1.95653e+06
1.89027e+06
1.82561e+06
1.76289e+06
1.7026e+06
1.64539e+06
1.54387e+06
1.5273e+06
1.51449e+06
1.50327e+06
1.49277e+06
1.48273e+06
1.47303e+06
1.46357e+06
1.45431e+06
1.4452e+06
1.43622e+06
1.42734e+06
1.41853e+06
1.40978e+06
1.40108e+06
1.39241e+06
1.38379e+06
1.3752e+06
1.36663e+06
1.3581e+06
1.3496e+06
1.34113e+06
1.33268e+06
1.32425e+06
1.31584e+06
1.30746e+06
1.29909e+06
1.29076e+06
1.28245e+06
1.27418e+06
1.26593e+06
1.25772e+06
1.24955e+06
1.24141e+06
1.2333e+06
1.22522e+06
1.21718e+06
1.20917e+06
1.20119e+06
1.19325e+06
1.18533e+06
1.17745e+06
1.16961e+06
1.16179e+06
1.154e+06
1.14624e+06
1.13851e+06
1.13081e+06
1.12315e+06
1.1155e+06
1.10789e+06
1.1003e+06
1.09274e+06
1.08521e+06
1.0777e+06
1.07022e+06
1.06277e+06
1.05535e+06
1.04795e+06
1.04057e+06
1.03323e+06
1.02592e+06
1.01863e+06
1.01138e+06
1.00414e+06
996940
989759
982603
975472
968366
961286
954233
947209
940213
933247
926310
919398
912510
905646
898802
891978
885171
878382
871613
864863
858132
851418
844722
838044
831386
824751
818139
811554
804999
798474
791980
785517
779088
772691
766326
759993
753691
747419
741173
734955
728761
722593
716451
710333
704239
698170
692125
686105
680111
674145
668206
662296
656415
650564
644742
638949
633185
627450
621743
616063
610410
604783
599184
593610
588060
582536
577034
571557
566104
560675
555269
549889
544532
539201
533895
528614
523360
518132
512932
507759
502614
497496
492408
487346
482313
477306
472327
467373
462445
457541
452661
447805
442975
438168
433387
428630
423899
419193
414514
409860
405232
400630
396054
391502
386976
382474
377999
373547
369124
364720
360349
355993
351673
347360
343092
338819
334598
330362
326181
321982
317828
313662
309526
305376
301245
297092
292941
288754
284546
280276
275937
271471
266834
261816
256344
1.55171e+06
1.53367e+06
1.51951e+06
1.50737e+06
1.49624e+06
1.48572e+06
1.47563e+06
1.46586e+06
1.45633e+06
1.447e+06
1.43782e+06
1.42876e+06
1.4198e+06
1.41091e+06
1.40209e+06
1.39332e+06
1.3846e+06
1.37592e+06
1.36728e+06
1.35868e+06
1.35012e+06
1.34159e+06
1.33309e+06
1.32462e+06
1.31617e+06
1.30775e+06
1.29936e+06
1.291e+06
1.28267e+06
1.27437e+06
1.26611e+06
1.25788e+06
1.24969e+06
1.24153e+06
1.2334e+06
1.22532e+06
1.21726e+06
1.20924e+06
1.20126e+06
1.1933e+06
1.18539e+06
1.1775e+06
1.16965e+06
1.16183e+06
1.15404e+06
1.14628e+06
1.13856e+06
1.13086e+06
1.12319e+06
1.11555e+06
1.10793e+06
1.10034e+06
1.09278e+06
1.08525e+06
1.07774e+06
1.07026e+06
1.06281e+06
1.05539e+06
1.04799e+06
1.04062e+06
1.03328e+06
1.02597e+06
1.01869e+06
1.01143e+06
1.0042e+06
996993
989812
982656
975524
968417
961337
954284
947258
940263
933297
926360
919447
912558
905692
898846
892018
885208
878416
871643
864891
858157
851441
844744
838064
831405
824768
818154
811567
805010
798485
791989
785526
779095
772698
766332
759998
753696
747422
741175
734955
728762
722594
716451
710333
704240
698171
692127
686108
680115
674148
668210
662300
656420
650569
644747
638955
633191
627455
621749
616069
610416
604789
599189
593615
588065
582540
577038
571561
566107
560677
555271
549890
544533
539200
533893
528612
523356
518127
512926
507752
502606
497488
492399
487336
482302
477294
472314
467358
462428
457521
452637
447778
442943
438133
433347
428584
423847
419135
414449
409788
405152
400542
395957
391396
386860
382347
377861
373395
368959
364539
360152
355775
351437
347098
342806
338504
334253
329983
325763
321526
317323
313108
308914
304702
300499
296266
292024
287733
283402
278985
274466
269768
264807
259326
252876
1.55792e+06
1.53926e+06
1.52422e+06
1.51132e+06
1.49962e+06
1.48866e+06
1.4782e+06
1.46812e+06
1.45833e+06
1.44878e+06
1.4394e+06
1.43017e+06
1.42106e+06
1.41204e+06
1.40309e+06
1.39422e+06
1.3854e+06
1.37664e+06
1.36792e+06
1.35925e+06
1.35062e+06
1.34204e+06
1.33349e+06
1.32498e+06
1.31649e+06
1.30804e+06
1.29962e+06
1.29124e+06
1.28288e+06
1.27457e+06
1.26628e+06
1.25804e+06
1.24982e+06
1.24165e+06
1.23351e+06
1.22541e+06
1.21735e+06
1.20932e+06
1.20132e+06
1.19337e+06
1.18544e+06
1.17756e+06
1.1697e+06
1.16188e+06
1.15409e+06
1.14633e+06
1.1386e+06
1.1309e+06
1.12323e+06
1.11559e+06
1.10797e+06
1.10038e+06
1.09282e+06
1.08529e+06
1.07778e+06
1.0703e+06
1.06285e+06
1.05543e+06
1.04804e+06
1.04067e+06
1.03333e+06
1.02602e+06
1.01874e+06
1.01148e+06
1.00425e+06
997043
989861
982704
975571
968463
961382
954328
947302
940306
933341
926403
919489
912598
905731
898882
892051
885238
878442
871666
864911
858174
851456
844756
838076
831415
824778
818163
811574
805016
798490
791994
785529
779097
772700
766334
759999
753696
747421
741173
734952
728758
722590
716447
710330
704237
698169
692125
686107
680115
674149
668212
662303
656423
650572
644750
638958
633194
627459
621753
616073
610420
604793
599193
593619
588068
582542
577040
571562
566107
560677
555270
549887
544529
539196
533888
528605
523349
518119
512917
507742
502595
497477
492387
487324
482289
477280
472299
467342
462409
457499
452612
447749
442911
438096
433304
428536
423794
419075
414382
409713
405071
400452
395858
391288
386743
382218
377721
373242
368793
364356
359953
355557
351199
346837
342520
338190
333907
329607
325347
321072
316822
312560
308307
304036
299761
295453
291120
286731
282281
277727
273039
268136
262900
257075
250112
1.563e+06
1.54423e+06
1.52862e+06
1.51511e+06
1.5029e+06
1.49152e+06
1.48072e+06
1.47035e+06
1.46031e+06
1.45053e+06
1.44097e+06
1.43157e+06
1.4223e+06
1.41315e+06
1.40409e+06
1.39511e+06
1.38619e+06
1.37734e+06
1.36855e+06
1.35981e+06
1.35113e+06
1.34249e+06
1.33389e+06
1.32533e+06
1.31681e+06
1.30833e+06
1.29988e+06
1.29147e+06
1.2831e+06
1.27476e+06
1.26645e+06
1.25819e+06
1.24996e+06
1.24177e+06
1.23362e+06
1.22551e+06
1.21743e+06
1.2094e+06
1.2014e+06
1.19343e+06
1.1855e+06
1.17761e+06
1.16976e+06
1.16193e+06
1.15414e+06
1.14638e+06
1.13865e+06
1.13095e+06
1.12328e+06
1.11564e+06
1.10802e+06
1.10043e+06
1.09286e+06
1.08533e+06
1.07782e+06
1.07034e+06
1.06289e+06
1.05547e+06
1.04808e+06
1.04071e+06
1.03338e+06
1.02607e+06
1.01878e+06
1.01153e+06
1.0043e+06
997089
989906
982747
975612
968503
961421
954366
947339
940343
933377
926438
919523
912631
905761
898910
892075
885259
878460
871681
864922
858183
851462
844760
838079
831418
824781
818165
811576
805017
798489
791993
785527
779095
772697
766331
759996
753691
747415
741167
734945
728750
722582
716440
710322
704230
698163
692120
686102
680111
674147
668210
662302
656423
650573
644751
638960
633196
627461
621754
616075
610422
604795
599194
593620
588068
582542
577038
571559
566104
560673
555265
549881
544522
539188
533879
528596
523339
518108
512905
507729
502582
497463
492372
487309
482273
477264
472281
467323
462388
457475
452585
447719
442876
438057
433260
428487
423738
419013
414313
409638
404987
400360
395758
391178
386624
382088
377580
373087
368625
364172
359753
355338
350959
346575
342232
337878
333562
329234
324932
320622
316324
312015
307707
303378
299033
294653
290233
285750
281188
276507
271665
266582
261124
255054
247916
1.56734e+06
1.54863e+06
1.53268e+06
1.5187e+06
1.50606e+06
1.49431e+06
1.48318e+06
1.47254e+06
1.46225e+06
1.45226e+06
1.44251e+06
1.43294e+06
1.42353e+06
1.41425e+06
1.40507e+06
1.39598e+06
1.38697e+06
1.37804e+06
1.36918e+06
1.36037e+06
1.35162e+06
1.34293e+06
1.33429e+06
1.32569e+06
1.31713e+06
1.30862e+06
1.30014e+06
1.2917e+06
1.28331e+06
1.27495e+06
1.26663e+06
1.25834e+06
1.2501e+06
1.2419e+06
1.23373e+06
1.22561e+06
1.21752e+06
1.20948e+06
1.20147e+06
1.1935e+06
1.18557e+06
1.17768e+06
1.16981e+06
1.16199e+06
1.1542e+06
1.14644e+06
1.13871e+06
1.131e+06
1.12333e+06
1.11568e+06
1.10806e+06
1.10047e+06
1.0929e+06
1.08537e+06
1.07786e+06
1.07038e+06
1.06293e+06
1.05551e+06
1.04812e+06
1.04076e+06
1.03342e+06
1.02611e+06
1.01883e+06
1.01157e+06
1.00434e+06
997130
989945
982784
975648
968537
961453
954396
947369
940372
933405
926465
919548
912655
905783
898929
892091
885271
878469
871686
864924
858182
851460
844757
838074
831414
824776
818161
811571
805012
798484
791987
785521
779088
772689
766323
759987
753682
747405
741156
734934
728739
722570
716428
710311
704219
698153
692111
686094
680104
674141
668205
662298
656420
650570
644750
638958
633195
627461
621754
616074
610421
604795
599193
593617
588065
582538
577033
571554
566097
560665
555257
549873
544512
539177
533867
528583
523325
518094
512890
507714
502566
497446
492355
487291
482255
477245
472261
467301
462365
457449
452556
447686
442840
438016
433214
428435
423681
418949
414243
409560
404903
400267
395656
391067
386503
381956
377438
372931
368455
363988
359552
355118
350719
346314
341945
337567
333218
328862
324521
320175
315832
311476
307113
302728
298317
293867
289364
284793
280124
275328
270348
265110
259482
253259
246110
1.57109e+06
1.55256e+06
1.53642e+06
1.52209e+06
1.50908e+06
1.497e+06
1.48558e+06
1.47467e+06
1.46415e+06
1.45396e+06
1.44402e+06
1.43429e+06
1.42474e+06
1.41532e+06
1.40603e+06
1.39684e+06
1.38774e+06
1.37873e+06
1.36979e+06
1.36092e+06
1.35212e+06
1.34337e+06
1.33468e+06
1.32604e+06
1.31745e+06
1.3089e+06
1.3004e+06
1.29193e+06
1.28351e+06
1.27513e+06
1.2668e+06
1.2585e+06
1.25024e+06
1.24202e+06
1.23385e+06
1.22571e+06
1.21762e+06
1.20957e+06
1.20155e+06
1.19358e+06
1.18564e+06
1.17774e+06
1.16988e+06
1.16205e+06
1.15426e+06
1.14649e+06
1.13876e+06
1.13106e+06
1.12338e+06
1.11573e+06
1.10811e+06
1.10051e+06
1.09294e+06
1.08541e+06
1.0779e+06
1.07042e+06
1.06297e+06
1.05555e+06
1.04816e+06
1.0408e+06
1.03346e+06
1.02615e+06
1.01887e+06
1.01161e+06
1.00438e+06
997166
989979
982816
975676
968563
961477
954419
947391
940394
933425
926484
919566
912670
905796
898938
892097
885274
878468
871682
864917
858174
851449
844745
838062
831402
824764
818149
811560
805001
798473
791976
785509
779076
772677
766310
759975
753669
747391
741141
734919
728723
722555
716414
710297
704205
698139
692098
686082
680093
674131
668197
662291
656413
650564
644745
638954
633191
627457
621750
616070
610417
604790
599188
593612
588058
582530
577025
571544
566087
560654
555245
549860
544499
539163
533852
528567
523308
518077
512872
507695
502547
497427
492335
487270
482234
477223
472238
467277
462338
457421
452525
447652
442801
437973
433166
428382
423622
418884
414172
409482
404817
400173
395554
390955
386382
381824
377294
372776
368285
363803
359351
354898
350479
346053
341659
337257
332877
328491
324114
319731
315343
310944
306527
302088
297612
293096
288514
283860
279093
274192
269090
263723
257970
251663
244577
1.5744e+06
1.55611e+06
1.53986e+06
1.52528e+06
1.51197e+06
1.49959e+06
1.4879e+06
1.47674e+06
1.46601e+06
1.45562e+06
1.4455e+06
1.43562e+06
1.42592e+06
1.41639e+06
1.40698e+06
1.39769e+06
1.3885e+06
1.37941e+06
1.3704e+06
1.36147e+06
1.3526e+06
1.34381e+06
1.33507e+06
1.32639e+06
1.31776e+06
1.30918e+06
1.30065e+06
1.29216e+06
1.28372e+06
1.27532e+06
1.26697e+06
1.25865e+06
1.25038e+06
1.24215e+06
1.23396e+06
1.22582e+06
1.21772e+06
1.20966e+06
1.20164e+06
1.19366e+06
1.18572e+06
1.17782e+06
1.16995e+06
1.16212e+06
1.15432e+06
1.14656e+06
1.13882e+06
1.13111e+06
1.12343e+06
1.11578e+06
1.10815e+06
1.10055e+06
1.09298e+06
1.08544e+06
1.07794e+06
1.07046e+06
1.06301e+06
1.05559e+06
1.0482e+06
1.04083e+06
1.0335e+06
1.02619e+06
1.01891e+06
1.01165e+06
1.00441e+06
997197
990007
982841
975699
968583
961494
954435
947406
940407
933437
926494
919574
912677
905800
898939
892095
885267
878458
871669
864902
858157
851431
844726
838043
831383
824745
818131
811542
804984
798456
791959
785492
779059
772660
766294
759958
753651
747372
741122
734900
728705
722537
716396
710279
704188
698122
692081
686067
680079
674118
668184
662279
656402
650555
644735
638945
633183
627449
621742
616063
610409
604782
599179
593602
588048
582519
577012
571531
566073
560640
555230
549845
544482
539146
533834
528549
523289
518056
512851
507674
502525
497404
492312
487247
482209
477198
472212
467249
462309
457390
452492
447615
442760
437927
433116
428326
423561
418817
414099
409402
404730
400079
395451
390842
386260
381692
377150
372619
368116
363618
359149
354679
350239
345794
341373
336948
332537
328123
323710
319292
314861
310419
305950
301459
296920
292342
287684
282953
278095
273099
267893
262420
256578
250239
243246
1.57736e+06
1.55931e+06
1.54304e+06
1.52827e+06
1.51472e+06
1.50208e+06
1.49014e+06
1.47876e+06
1.46782e+06
1.45724e+06
1.44696e+06
1.43692e+06
1.42709e+06
1.41743e+06
1.40792e+06
1.39853e+06
1.38926e+06
1.38008e+06
1.371e+06
1.36201e+06
1.35309e+06
1.34424e+06
1.33546e+06
1.32674e+06
1.31807e+06
1.30946e+06
1.3009e+06
1.29239e+06
1.28393e+06
1.27551e+06
1.26714e+06
1.25881e+06
1.25052e+06
1.24228e+06
1.23408e+06
1.22593e+06
1.21782e+06
1.20975e+06
1.20173e+06
1.19375e+06
1.1858e+06
1.17789e+06
1.17002e+06
1.16219e+06
1.15439e+06
1.14662e+06
1.13888e+06
1.13117e+06
1.12348e+06
1.11583e+06
1.1082e+06
1.10059e+06
1.09302e+06
1.08548e+06
1.07797e+06
1.07049e+06
1.06304e+06
1.05562e+06
1.04823e+06
1.04087e+06
1.03353e+06
1.02622e+06
1.01894e+06
1.01168e+06
1.00444e+06
997222
990029
982859
975714
968595
961504
954443
947412
940413
933441
926496
919575
912676
905795
898931
892083
885252
878438
871647
864878
858131
851405
844700
838017
831357
824720
818106
811518
804961
798434
791938
785471
779038
772639
766273
759937
753630
747351
741100
734878
728684
722516
716375
710258
704167
698101
692061
686048
680060
674101
668168
662264
656387
650541
644722
638932
633170
627437
621730
616051
610397
604770
599166
593588
588033
582503
576996
571515
566056
560623
555212
549826
544463
539126
533813
528527
523266
518034
512827
507650
502500
497380
492286
487221
482182
477170
472182
467219
462277
457355
452455
447575
442717
437879
433063
428269
423498
418749
414025
409322
404643
399984
395348
390730
386138
381559
377006
372463
367946
363433
358948
354461
350000
345536
341089
336642
332201
327759
323311
318857
314384
309901
305383
300842
296243
291605
286876
282074
277131
272053
266757
261200
255296
248960
242064
1.58003e+06
1.56223e+06
1.54598e+06
1.53108e+06
1.51733e+06
1.50447e+06
1.49231e+06
1.48072e+06
1.46959e+06
1.45883e+06
1.44838e+06
1.4382e+06
1.42824e+06
1.41846e+06
1.40884e+06
1.39936e+06
1.39e+06
1.38075e+06
1.3716e+06
1.36255e+06
1.35357e+06
1.34467e+06
1.33585e+06
1.32708e+06
1.31838e+06
1.30974e+06
1.30116e+06
1.29262e+06
1.28414e+06
1.2757e+06
1.26731e+06
1.25897e+06
1.25067e+06
1.24241e+06
1.23421e+06
1.22604e+06
1.21793e+06
1.20985e+06
1.20182e+06
1.19384e+06
1.18589e+06
1.17798e+06
1.1701e+06
1.16226e+06
1.15446e+06
1.14668e+06
1.13894e+06
1.13122e+06
1.12353e+06
1.11587e+06
1.10824e+06
1.10063e+06
1.09306e+06
1.08552e+06
1.078e+06
1.07052e+06
1.06307e+06
1.05565e+06
1.04826e+06
1.0409e+06
1.03356e+06
1.02625e+06
1.01897e+06
1.0117e+06
1.00446e+06
997241
990045
982871
975722
968600
961507
954443
947412
940411
933437
926490
919568
912666
905783
898915
892063
885228
878411
871616
864846
858098
851373
844668
837985
831325
824688
818075
811488
804932
798407
791911
785445
779012
772614
766249
759913
753605
747326
741075
734853
728659
722492
716351
710234
704143
698078
692038
686025
680039
674080
668148
662244
656369
650522
644704
638915
633153
627420
621714
616035
610380
604753
599148
593570
588014
582484
576976
571494
566035
560602
555190
549804
544440
539103
533789
528503
523241
518008
512801
507624
502474
497353
492258
487192
482152
477139
472149
467185
462240
457318
452415
447532
442670
437829
433007
428208
423433
418680
413950
409242
404555
399888
395244
390618
386015
381427
376862
372308
367777
363250
358748
354245
349762
345280
340808
336339
331868
327399
322916
318429
313915
309393
304825
300237
295581
290886
286091
281222
276205
271053
265682
260062
254116
247797
240996
1.58247e+06
1.5649e+06
1.54869e+06
1.53371e+06
1.5198e+06
1.50675e+06
1.49439e+06
1.48261e+06
1.4713e+06
1.46038e+06
1.44978e+06
1.43946e+06
1.42937e+06
1.41947e+06
1.40975e+06
1.40018e+06
1.39073e+06
1.38141e+06
1.3722e+06
1.36308e+06
1.35405e+06
1.3451e+06
1.33623e+06
1.32743e+06
1.3187e+06
1.31002e+06
1.30141e+06
1.29285e+06
1.28434e+06
1.27589e+06
1.26748e+06
1.25912e+06
1.25081e+06
1.24255e+06
1.23433e+06
1.22616e+06
1.21804e+06
1.20996e+06
1.20192e+06
1.19393e+06
1.18598e+06
1.17806e+06
1.17018e+06
1.16234e+06
1.15453e+06
1.14675e+06
1.139e+06
1.13127e+06
1.12358e+06
1.11592e+06
1.10828e+06
1.10067e+06
1.0931e+06
1.08555e+06
1.07804e+06
1.07055e+06
1.0631e+06
1.05567e+06
1.04828e+06
1.04092e+06
1.03358e+06
1.02627e+06
1.01899e+06
1.01172e+06
1.00448e+06
997254
990055
982877
975724
968598
961502
954437
947404
940401
933426
926478
919553
912650
905763
898891
892035
885196
878375
871578
864806
858058
851334
844630
837947
831288
824651
818039
811454
804899
798374
791880
785415
778983
772586
766221
759886
753579
747299
741048
734826
728632
722465
716324
710207
704116
698051
692011
685999
680014
674055
668124
662221
656346
650500
644682
638893
633132
627399
621693
616014
610359
604732
599126
593548
587991
582460
576952
571471
566011
560578
555166
549780
544416
539078
533763
528476
523214
517980
512773
507595
502445
497323
492228
487161
482119
477105
472114
467147
462201
457276
452371
447486
442620
437775
432949
428145
423366
418609
413874
409160
404466
399793
395140
390506
385893
381296
376718
372153
367608
363067
358549
354030
349526
345027
340530
336039
331540
327043
322526
318007
313454
308893
304280
299646
294936
290187
285331
280401
275319
270099
264667
259002
253029
246730
240016
1.58472e+06
1.56736e+06
1.55121e+06
1.53617e+06
1.52213e+06
1.50892e+06
1.49639e+06
1.48444e+06
1.47296e+06
1.46188e+06
1.45114e+06
1.44068e+06
1.43047e+06
1.42047e+06
1.41065e+06
1.40098e+06
1.39146e+06
1.38206e+06
1.37278e+06
1.36361e+06
1.35452e+06
1.34553e+06
1.33661e+06
1.32777e+06
1.31901e+06
1.3103e+06
1.30166e+06
1.29308e+06
1.28455e+06
1.27608e+06
1.26766e+06
1.25928e+06
1.25096e+06
1.24269e+06
1.23446e+06
1.22628e+06
1.21815e+06
1.21007e+06
1.20202e+06
1.19403e+06
1.18607e+06
1.17815e+06
1.17027e+06
1.16242e+06
1.1546e+06
1.14681e+06
1.13906e+06
1.13133e+06
1.12363e+06
1.11596e+06
1.10832e+06
1.10071e+06
1.09313e+06
1.08558e+06
1.07806e+06
1.07057e+06
1.06312e+06
1.05569e+06
1.0483e+06
1.04094e+06
1.0336e+06
1.02629e+06
1.019e+06
1.01173e+06
1.00448e+06
997259
990057
982875
975718
968589
961490
954423
947388
940385
933408
926458
919532
912626
905736
898861
892001
885157
878333
871534
864761
858012
851289
844586
837905
831246
824610
817999
811414
804861
798338
791844
785380
778950
772554
766191
759857
753550
747270
741018
734796
728602
722436
716294
710178
704086
698021
691982
685971
679985
674027
668097
662194
656320
650474
644656
638867
633106
627373
621667
615989
610334
604706
599101
593522
587965
582434
576926
571444
565984
560550
555138
549753
544388
539050
533734
528447
523185
517951
512743
507565
502414
497292
492196
487128
482085
477069
472076
467108
462159
457232
452324
447436
442567
437718
432887
428080
423297
418537
413797
409077
404377
399696
395036
390394
385771
381165
376576
371999
367441
362887
358351
353817
349293
344776
340255
335743
331215
326692
322143
317593
313003
308404
303748
299068
294311
289509
284600
279610
274473
269195
263713
258012
252021
245745
239113
1.5868e+06
1.56964e+06
1.55355e+06
1.53848e+06
1.52434e+06
1.51099e+06
1.49831e+06
1.4862e+06
1.47457e+06
1.46334e+06
1.45246e+06
1.44188e+06
1.43155e+06
1.42144e+06
1.41153e+06
1.40178e+06
1.39218e+06
1.38271e+06
1.37336e+06
1.36413e+06
1.35499e+06
1.34595e+06
1.33699e+06
1.32812e+06
1.31932e+06
1.31058e+06
1.30192e+06
1.29331e+06
1.28476e+06
1.27627e+06
1.26783e+06
1.25945e+06
1.25111e+06
1.24283e+06
1.23459e+06
1.22641e+06
1.21827e+06
1.21018e+06
1.20213e+06
1.19413e+06
1.18617e+06
1.17824e+06
1.17035e+06
1.1625e+06
1.15467e+06
1.14688e+06
1.13911e+06
1.13138e+06
1.12368e+06
1.116e+06
1.10835e+06
1.10074e+06
1.09316e+06
1.0856e+06
1.07808e+06
1.07059e+06
1.06314e+06
1.05571e+06
1.04831e+06
1.04095e+06