/*--------------------------------*- C++ -*----------------------------------*\
| =========                 |                                                 |
| \\      /  F ield         | OpenFOAM: The Open Source CFD Toolbox           |
|  \\    /   O peration     | Version:  2.4.0                                 |
|   \\  /    A nd           | Web:      www.OpenFOAM.org                      |
|    \\/     M anipulation  |                                                 |
\*---------------------------------------------------------------------------*/
FoamFile
{
    version     2.0;
    format      ascii;
    class       volScalarField;
    location    "0.002";
    object      kPrime2Mean;
}
// * * * * * * * * * * * * * * * * * * * * * * * * * * * * * * * * * * * * * //

dimensions      [0 4 -4 0 0 0 0];

internalField   nonuniform List<scalar> 
17600
(
0.238248
0.78718
1.38716
1.04245
0.838406
0.83837
0.85625
0.880497
0.900289
0.921632
0.942655
0.953204
0.967191
0.982586
0.995246
1.00787
1.01811
1.27472
2.06267
4.61274
1.3391
8.5586
14.2274
13.6647
14.254
15.2079
15.815
16.1589
16.3532
16.4598
16.5043
16.5055
16.4048
16.3483
16.2089
15.9671
16.0251
17.657
27.531
43.3422
1.12941
5.80814
12.4087
15.7982
16.6662
17.5652
18.093
18.4668
18.71
18.8861
19.0212
19.0781
18.973
18.8653
18.6796
18.3584
18.178
18.5657
29.9308
48.1341
0.822306
3.2602
7.23144
11.7706
13.3786
14.4509
15.0918
15.5382
15.8385
16.0681
16.2502
16.3532
16.2925
16.1789
15.9662
15.5662
15.1252
14.4112
20.4196
28.5622
0.590578
1.86781
3.90948
7.24711
8.86986
9.97779
10.7103
11.2197
11.5755
11.8438
12.0507
12.1892
12.1929
12.1188
11.9443
11.5766
11.085
10.0521
12.0055
14.5442
0.455466
1.15966
2.17644
4.20884
5.42355
6.38098
7.08066
7.59097
7.96386
8.24714
8.46302
8.61619
8.67047
8.64334
8.52751
8.24153
7.80918
6.86421
6.97509
7.4013
0.382375
0.798779
1.2971
2.42751
3.22267
3.95121
4.5324
4.98365
5.33072
5.60152
5.81028
5.96322
6.04413
6.0546
5.9907
5.78955
5.45069
4.71763
4.23676
4.04401
0.343977
0.609797
0.848224
1.45319
1.94304
2.45242
2.8886
3.25059
3.54395
3.78119
3.96873
4.10975
4.19852
4.23132
4.20428
4.0722
3.82274
3.29674
2.74561
2.44017
0.3242
0.507716
0.61581
0.939721
1.23541
1.57211
1.87771
2.14791
2.37778
2.57085
2.72817
2.84982
2.93386
2.9758
2.97122
2.88896
2.71277
2.35031
1.89505
1.62073
0.314161
0.451147
0.492043
0.670536
0.84964
1.06536
1.27033
1.46164
1.63148
1.7793
1.90353
2.00244
2.07491
2.11696
2.12403
2.07514
1.95469
1.71067
1.37719
1.16343
0.309033
0.419146
0.423584
0.52556
0.635863
0.772624
0.906911
1.03747
1.15744
1.26516
1.35834
1.43472
1.4931
1.53026
1.54196
1.51432
1.43436
1.27271
1.04263
0.886312
0.306239
0.400688
0.384173
0.443482
0.512546
0.599746
0.68712
0.774277
0.856418
0.932033
0.999139
1.05567
1.10036
1.13069
1.14308
1.12844
1.0769
0.971345
0.81822
0.70826
0.304455
0.389793
0.360697
0.39426
0.437606
0.494033
0.551321
0.609174
0.664584
0.716517
0.76357
0.804197
0.837236
0.860801
0.872074
0.865176
0.833061
0.765196
0.665805
0.590394
0.303064
0.383145
0.346356
0.363177
0.389604
0.426719
0.465092
0.504063
0.541718
0.577392
0.6102
0.639115
0.66321
0.681127
0.690806
0.688501
0.669391
0.626557
0.563105
0.512051
0.30183
0.3789
0.337452
0.342767
0.357474
0.382194
0.408814
0.436121
0.462665
0.487932
0.511369
0.532338
0.550175
0.56395
0.572258
0.572746
0.562223
0.53578
0.495502
0.460945
0.300711
0.376049
0.331884
0.329041
0.335332
0.351917
0.37131
0.391704
0.41171
0.430789
0.448539
0.464564
0.478418
0.489498
0.496915
0.499209
0.49431
0.478433
0.452657
0.429091
0.299749
0.374064
0.328416
0.319754
0.319941
0.331134
0.34614
0.362612
0.37902
0.394709
0.409305
0.422534
0.434106
0.443656
0.450659
0.454223
0.453016
0.44391
0.427134
0.4111
0.299004
0.372687
0.326303
0.313596
0.309462
0.317134
0.329542
0.343893
0.358463
0.372459
0.385478
0.397295
0.407722
0.416556
0.423511
0.428055
0.429346
0.424703
0.413795
0.403427
0.298524
0.371806
0.3251
0.309794
0.302839
0.308353
0.319307
0.332583
0.346292
0.35953
0.371858
0.383066
0.393029
0.401653
0.408806
0.414199
0.417329
0.415928
0.409429
0.404002
0.298326
0.371382
0.324555
0.307909
0.299485
0.30392
0.31419
0.327
0.340364
0.353321
0.365411
0.376437
0.386321
0.395038
0.402569
0.408807
0.413529
0.414921
0.412486
0.412032
0.298386
0.371403
0.324549
0.307738
0.299136
0.303435
0.313616
0.326361
0.33968
0.352616
0.364719
0.375815
0.385866
0.394904
0.403009
0.410235
0.416633
0.420919
0.422928
0.42795
0.298698
0.371861
0.325074
0.309273
0.301778
0.306872
0.31754
0.330604
0.344159
0.357317
0.369673
0.381091
0.391578
0.401226
0.410213
0.41877
0.427244
0.434954
0.442268
0.453527
0.29929
0.372763
0.32623
0.312693
0.307644
0.314568
0.326437
0.340362
0.354606
0.36841
0.381443
0.393622
0.405005
0.415753
0.426162
0.436669
0.447962
0.459998
0.473808
0.492147
0.300138
0.374137
0.328259
0.318418
0.317283
0.32732
0.341423
0.357133
0.372923
0.388211
0.402751
0.416516
0.429624
0.442319
0.455046
0.468493
0.483729
0.501331
0.523028
0.549178
0.30119
0.37608
0.331592
0.327197
0.3317
0.346582
0.364534
0.383629
0.402531
0.420846
0.43839
0.455176
0.471393
0.487384
0.5038
0.52162
0.54233
0.567005
0.598027
0.632375
0.302381
0.378832
0.336953
0.340301
0.352643
0.37489
0.399259
0.424433
0.449111
0.473039
0.496027
0.518091
0.539511
0.560765
0.582792
0.606884
0.634982
0.668375
0.709981
0.752258
0.303663
0.382893
0.345552
0.359906
0.383194
0.416694
0.451588
0.487173
0.521834
0.555345
0.58739
0.61796
0.647478
0.676609
0.706733
0.739427
0.777121
0.820796
0.873732
0.922525
0.305059
0.389232
0.359452
0.389871
0.428943
0.479984
0.531929
0.584577
0.635415
0.684113
0.730114
0.773406
0.814675
0.854884
0.896085
0.940032
0.989691
1.04481
1.1088
1.16078
0.306773
0.399644
0.382296
0.437398
0.500394
0.579392
0.658587
0.73798
0.813473
0.884624
0.950627
1.01167
1.06892
1.12382
1.17943
1.23746
1.30143
1.36833
1.44132
1.49007
0.309372
0.417382
0.420828
0.516657
0.617921
0.741991
0.863846
0.983186
1.09396
1.19607
1.28877
1.37303
1.45069
1.52404
1.59762
1.67264
1.75309
1.83077
1.90786
1.94224
0.314086
0.448363
0.488191
0.656754
0.821805
1.01786
1.20425
1.37989
1.5377
1.67941
1.80522
1.91789
2.02025
2.11581
2.21112
2.30619
2.40513
2.49092
2.56314
2.56538
0.323326
0.503581
0.611216
0.918076
1.19168
1.49838
1.77702
2.02621
2.2414
2.42947
2.59318
2.73856
2.86937
2.991
3.11243
3.23128
3.35116
3.44096
3.49511
3.43977
0.341589
0.604054
0.845895
1.42244
1.87889
2.34405
2.74266
3.0777
3.35492
3.59146
3.79486
3.97554
4.13848
4.29069
4.44414
4.59228
4.73756
4.82831
4.85109
4.70566
0.377089
0.791296
1.30828
2.39712
3.14948
3.81507
4.34649
4.76463
5.09633
5.37612
5.61707
5.8331
6.03238
6.22144
6.4155
6.602
6.78191
6.87915
6.86767
6.60201
0.444598
1.14997
2.23392
4.21805
5.401
6.26983
6.90618
7.37646
7.73878
8.04728
8.31953
8.56537
8.80755
9.04122
9.28668
9.52513
9.75742
9.89128
9.87114
9.48404
0.569303
1.85332
4.08275
7.37167
9.05204
10.0251
10.6736
11.1338
11.4864
11.8007
12.0906
12.3454
12.6421
12.9236
13.2272
13.5336
13.8389
14.0781
14.1043
13.6653
0.784178
3.22852
7.61021
12.0403
13.9604
14.7969
15.3349
15.7135
16.014
16.3017
16.5761
16.7859
17.1526
17.4624
17.8066
18.1768
18.5276
18.9165
19.041
18.6597
1.07486
5.6815
12.9355
16.1549
17.5678
18.1356
18.5791
18.8625
19.0749
19.2904
19.4705
19.5488
19.9953
20.2389
20.5335
20.8591
20.9998
21.3541
21.588
21.1202
1.29757
8.32286
14.5374
14.2405
15.0389
15.875
16.4185
16.7067
16.7984
16.8894
16.8878
16.8105
17.1648
17.206
17.2607
17.235
16.6449
16.343
16.5862
16.2471
0.232694
0.758854
1.37068
1.04602
0.872384
0.856545
0.868047
0.889689
0.907197
0.925467
0.943865
0.955745
0.979218
0.995535
1.01146
1.02871
1.03603
1.07249
1.14921
1.24894
35.4528
39.5457
17.3382
9.91659
7.21238
6.09918
5.54298
5.21814
4.99162
4.80768
4.64226
4.48551
4.334
4.18757
4.04764
3.91621
3.79488
3.68416
3.58288
3.48827
3.39645
3.30349
3.20637
3.10383
2.99663
2.88732
2.77967
2.67788
2.5857
2.50576
2.43903
2.38474
2.34049
2.30268
2.26683
2.22799
2.18124
2.12215
2.04739
1.95539
1.84669
1.72394
1.59148
1.45444
1.31785
1.18589
1.06156
0.946647
0.841957
0.747554
0.663036
0.587732
0.52085
0.461561
0.40906
0.362592
0.321468
0.285067
0.252833
0.224278
0.198968
0.176521
0.156605
0.138924
0.123221
0.109268
0.0968674
0.0858421
0.076038
0.0673187
0.0595639
0.052667
0.0465339
0.0410813
0.036235
0.0319294
0.028106
0.0247128
0.0217033
0.0190361
0.0166743
0.0145848
0.0127381
0.0111079
0.00967044
0.00840468
0.00729164
0.00631439
0.00545773
0.00470806
0.00405318
0.00348219
0.00298533
0.00255387
0.00218002
0.00185681
0.00157802
0.00133813
0.00113219
0.00095583
0.000805166
0.000676769
0.000567619
0.000475063
0.000396776
0.000330726
0.000275142
0.000228483
0.000189414
0.000156782
0.000129593
0.000106995
8.82567e-05
7.27574e-05
5.9968e-05
4.94403e-05
4.07957e-05
3.37151e-05
2.79303e-05
2.32167e-05
1.93862e-05
1.62823e-05
1.37748e-05
1.17557e-05
1.01356e-05
8.84073e-06
7.81036e-06
6.99442e-06
6.35181e-06
5.84894e-06
5.4585e-06
5.15825e-06
4.93002e-06
4.75901e-06
4.63311e-06
4.54233e-06
4.47838e-06
4.43456e-06
4.40546e-06
4.38663e-06
4.37428e-06
4.36525e-06
4.35682e-06
4.34648e-06
4.33188e-06
4.3108e-06
4.28108e-06
4.24055e-06
4.18698e-06
4.11818e-06
4.03203e-06
3.92648e-06
3.79977e-06
3.65081e-06
3.47968e-06
3.2884e-06
3.08238e-06
2.87271e-06
2.67952e-06
2.53731e-06
2.50315e-06
2.66928e-06
3.18205e-06
4.27109e-06
6.29376e-06
9.80275e-06
1.56502e-05
2.51501e-05
4.03342e-05
6.43576e-05
0.000102164
0.000161609
0.000255424
0.000404849
0.000646776
0.00104879
0.00174257
0.00300005
0.00540471
0.0102089
0.0199791
0.0395197
0.0767948
0.143315
0.253521
0.423058
0.666218
0.993082
1.40708
1.9038
2.47175
3.09512
3.75772
4.44564
5.14604
5.83779
6.47738
7.15663
10.8331
8.22011
45.2698
35.7182
17.5718
10.6276
7.78778
6.5564
5.94058
5.57986
5.32538
5.11597
4.92697
4.74923
4.58006
4.41944
4.26819
4.12688
3.99527
3.87189
3.75419
3.63898
3.52311
3.40433
3.28178
3.1563
3.03018
2.90674
2.78974
2.68267
2.58817
2.50765
2.44102
2.3868
2.34239
2.30427
2.26835
2.23023
2.18546
2.12996
2.06052
1.97534
1.8744
1.75962
1.63451
1.50355
1.37135
1.242
1.11862
1.00328
0.897104
0.800462
0.713217
0.634908
0.564897
0.502468
0.446891
0.397463
0.353525
0.314471
0.279757
0.248892
0.221441
0.197017
0.175277
0.155919
0.138676
0.123311
0.109615
0.0974057
0.0865184
0.0768094
0.0681509
0.0604294
0.0535445
0.0474066
0.0419364
0.037063
0.0327233
0.0288608
0.0254252
0.0223714
0.0196591
0.0172522
0.0151183
0.0132284
0.0115566
0.0100794
0.00877599
0.00762753
0.00661712
0.00572961
0.00495136
0.00427017
0.00367506
0.00315619
0.00270475
0.00231282
0.00197332
0.00167992
0.00142695
0.00120935
0.00102262
0.000862775
0.00072628
0.000610015
0.000511234
0.000427523
0.000356765
0.000297109
0.000246945
0.000204869
0.000169667
0.00014029
0.000115837
9.55345e-05
7.87199e-05
6.48296e-05
5.33849e-05
4.39799e-05
3.62718e-05
2.99717e-05
2.48373e-05
2.06654e-05
1.72863e-05
1.45588e-05
1.23655e-05
1.06092e-05
9.20924e-06
8.0992e-06
7.22407e-06
6.53878e-06
6.00653e-06
5.5971e-06
5.28568e-06
5.05215e-06
4.88015e-06
4.75615e-06
4.66898e-06
4.60971e-06
4.5712e-06
4.54748e-06
4.53349e-06
4.52507e-06
4.51878e-06
4.51144e-06
4.5001e-06
4.48217e-06
4.45529e-06
4.41701e-06
4.36487e-06
4.29657e-06
4.21e-06
4.10298e-06
3.97357e-06
3.82057e-06
3.64394e-06
3.44536e-06
3.22968e-06
3.00734e-06
2.79764e-06
2.63378e-06
2.57107e-06
2.69972e-06
3.16369e-06
4.18981e-06
6.13266e-06
9.54297e-06
1.5273e-05
2.46417e-05
3.96947e-05
6.36191e-05
0.000101423
0.000161084
0.000255565
0.000406542
0.000651794
0.00106092
0.00177081
0.00306799
0.00557671
0.0106545
0.0211026
0.0421604
0.0824391
0.154201
0.272509
0.453204
0.710058
1.05172
1.47926
1.98506
2.5539
3.16614
3.80227
4.44673
5.08932
5.72144
6.33182
7.07459
10.4839
13.2722
36.4138
25.8792
15.3362
10.6631
8.39904
7.24376
6.5803
6.15261
5.83924
5.58191
5.35334
5.14161
4.94202
4.75296
4.57385
4.40403
4.24224
4.0866
3.93488
3.78494
3.63532
3.48557
3.33642
3.18974
3.04812
2.91455
2.79188
2.68239
2.58745
2.5073
2.44108
2.3869
2.34211
2.30347
2.26731
2.22975
2.18684
2.13489
2.07079
1.99257
1.89972
1.79342
1.67637
1.55234
1.42546
1.29963
1.17804
1.06297
0.955841
0.857347
0.767623
0.68644
0.613336
0.547729
0.488985
0.436464
0.38955
0.347667
0.310283
0.276914
0.247128
0.220533
0.196781
0.175563
0.156603
0.139657
0.124507
0.110961
0.0988472
0.088013
0.0783232
0.0696574
0.0619083
0.0549802
0.0487877
0.0432546
0.0383128
0.0339013
0.0299652
0.0264557
0.0233287
0.0205447
0.0180683
0.0158676
0.013914
0.0121818
0.0106476
0.00929077
0.00809239
0.00703559
0.00610513
0.00528731
0.00456979
0.00394147
0.00339235
0.00291346
0.00249671
0.00213484
0.00182134
0.00155035
0.00131667
0.00111565
0.000943124
0.000795437
0.000669332
0.000561931
0.000470699
0.000393403
0.000328087
0.000273039
0.000226766
0.000187972
0.000155533
0.000128479
0.000105976
8.73084e-05
7.1864e-05
5.91213e-05
4.86369e-05
4.00353e-05
3.29993e-05
2.72619e-05
2.25987e-05
1.88223e-05
1.57761e-05
1.33298e-05
1.13749e-05
9.82151e-06
8.59482e-06
7.6331e-06
6.88542e-06
6.30977e-06
5.87152e-06
5.54243e-06
5.29949e-06
5.12389e-06
5.0002e-06
4.91605e-06
4.8615e-06
4.82831e-06
4.8096e-06
4.79971e-06
4.79399e-06
4.78836e-06
4.77918e-06
4.76338e-06
4.73827e-06
4.70126e-06
4.64985e-06
4.58185e-06
4.49537e-06
4.38858e-06
4.26e-06
4.10903e-06
3.93643e-06
3.74481e-06
3.54021e-06
3.33459e-06
3.14914e-06
3.01951e-06
3.00426e-06
3.19796e-06
3.75063e-06
4.89753e-06
7.00528e-06
1.06421e-05
1.66863e-05
2.64957e-05
4.21756e-05
6.70057e-05
0.00010614
0.000167789
0.000265291
0.000420936
0.000673571
0.00109489
0.00182667
0.00316868
0.00578257
0.0111247
0.0222217
0.0447362
0.0879136
0.164756
0.290941
0.482503
0.752696
1.10876
1.5494
2.06382
2.63305
3.23355
3.84236
4.44216
5.02488
5.59297
6.15949
6.88039
9.37715
13.0444
22.1905
16.7767
11.8982
9.50187
8.226
7.52375
7.06731
6.71775
6.41493
6.13418
5.86639
5.60885
5.36122
5.12378
4.89668
4.67956
4.47157
4.27148
4.07804
3.89031
3.70795
3.53135
3.3616
3.20037
3.0496
2.91122
2.78688
2.6776
2.58366
2.50452
2.43883
2.38456
2.33919
2.29979
2.26315
2.22589
2.18454
2.13576
2.07663
2.00505
1.92011
1.82235
1.7137
1.59721
1.47647
1.35511
1.23626
1.12236
1.01509
0.915416
0.823749
0.740097
0.664195
0.595609
0.533816
0.47826
0.42838
0.383638
0.343526
0.307576
0.27536
0.246489
0.220615
0.197423
0.176632
0.157989
0.141272
0.126278
0.112829
0.100765
0.0899443
0.0802382
0.0715334
0.0637279
0.0567305
0.0504595
0.0448418
0.0398113
0.0353091
0.031282
0.0276822
0.0244667
0.0215968
0.0190376
0.0167577
0.0147287
0.0129251
0.0113238
0.00990401
0.00864687
0.00753544
0.0065544
0.00568992
0.00492953
0.00426196
0.00367703
0.00316557
0.00271929
0.00233074
0.00199318
0.0017006
0.0014476
0.00122934
0.00104152
0.000880295
0.000742262
0.000624391
0.000524002
0.000438729
0.00036649
0.000305457
0.00025403
0.000210815
0.0001746
0.000144334
0.000119109
9.81452e-05
8.07724e-05
6.64169e-05
5.459e-05
4.48765e-05
3.69243e-05
3.04363e-05
2.51628e-05
2.08944e-05
1.74555e-05
1.46996e-05
1.25041e-05
1.07669e-05
9.40273e-06
8.34061e-06
7.5217e-06
6.89744e-06
6.42788e-06
6.08041e-06
5.82856e-06
5.65084e-06
5.52979e-06
5.45128e-06
5.40372e-06
5.37756e-06
5.36487e-06
5.35913e-06
5.3549e-06
5.3476e-06
5.33339e-06
5.30902e-06
5.27167e-06
5.21885e-06
5.14848e-06
5.05889e-06
4.94878e-06
4.81741e-06
4.6651e-06
4.49368e-06
4.30733e-06
4.11415e-06
3.92855e-06
3.77498e-06
3.69344e-06
3.74844e-06
4.04247e-06
4.73634e-06
6.08048e-06
8.46265e-06
1.24807e-05
1.90554e-05
2.96059e-05
4.6328e-05
7.26363e-05
0.00011389
0.000178615
0.000280638
0.000443015
0.000705836
0.00114298
0.00190081
0.00329094
0.00600871
0.011602
0.0233128
0.0472172
0.093195
0.175007
0.308997
0.511468
0.795273
1.16638
1.62132
2.14628
2.71871
3.31127
3.8976
4.45846
4.98709
5.49382
6.00524
6.63714
8.12497
10.1276
12.4637
10.631
8.86074
7.94736
7.44321
7.17534
6.99081
6.81709
6.62357
6.4027
6.15843
5.89881
5.63218
5.36538
5.10331
4.84909
4.60437
4.36983
4.14567
3.93198
3.72896
3.53711
3.35719
3.19017
3.03709
2.89885
2.77604
2.6688
2.57673
2.49884
2.4336
2.37904
2.33285
2.29246
2.2551
2.21786
2.17772
2.13169
2.07707
2.0117
1.93438
1.84507
1.74503
1.63657
1.52273
1.40675
1.29165
1.17992
1.07342
0.973369
0.880434
0.794863
0.71659
0.645347
0.58074
0.522306
0.469557
0.422004
0.379174
0.340622
0.305933
0.274728
0.246658
0.221409
0.198698
0.178267
0.159887
0.143351
0.128473
0.115087
0.103044
0.0922098
0.082464
0.0736991
0.065818
0.0587339
0.0523682
0.0466504
0.041517
0.0369107
0.0327797
0.0290775
0.025762
0.0227953
0.0201429
0.0177739
0.0156603
0.0137765
0.0120996
0.0106089
0.0092855
0.00811237
0.00707411
0.00615675
0.00534765
0.00463537
0.00400953
0.00346075
0.00298053
0.0025612
0.00219583
0.00187821
0.00160274
0.00136439
0.00115869
0.000981614
0.000829569
0.000699363
0.000588158
0.000493437
0.000412975
0.000344815
0.000287236
0.000238732
0.000197987
0.00016386
0.000135358
0.000111625
9.1923e-05
7.56172e-05
6.21658e-05
5.11063e-05
4.20457e-05
3.46519e-05
2.86446e-05
2.37877e-05
1.98823e-05
1.67616e-05
1.42855e-05
1.23362e-05
1.08147e-05
9.63872e-06
8.74003e-06
8.06236e-06
7.5596e-06
7.19436e-06
6.93637e-06
6.76086e-06
6.64757e-06
6.57997e-06
6.54448e-06
6.52984e-06
6.52679e-06
6.52786e-06
6.52699e-06
6.51923e-06
6.50051e-06
6.46762e-06
6.41807e-06
6.3499e-06
6.26179e-06
6.15316e-06
6.02438e-06
5.87703e-06
5.7146e-06
5.54354e-06
5.3749e-06
5.22681e-06
5.12846e-06
5.12643e-06
5.29403e-06
5.74546e-06
6.6576e-06
8.30304e-06
1.11001e-05
1.56891e-05
2.30498e-05
3.46859e-05
5.29142e-05
8.13258e-05
0.000125543
0.00019449
0.000302593
0.000473832
0.000749713
0.0012064
0.00199451
0.00343577
0.00625425
0.012079
0.0243508
0.0495427
0.0981636
0.184756
0.326388
0.539742
0.83742
1.22432
1.69501
2.23297
2.81227
3.40201
3.97251
4.50232
4.98477
5.43413
5.88079
6.39439
7.12998
7.44557
7.06796
6.87427
6.57898
6.50292
6.50195
6.5429
6.5661
6.54226
6.45999
6.32046
6.13247
5.90811
5.65983
5.39865
5.13343
4.87071
4.61496
4.36905
4.13474
3.91306
3.70471
3.51021
3.33005
3.16469
3.01453
2.87979
2.76048
2.65625
2.56636
2.48967
2.42469
2.3696
2.32236
2.28076
2.24244
2.20491
2.1656
2.12187
2.07122
2.01155
1.94142
1.86034
1.76894
1.66888
1.56257
1.45284
1.34248
1.23395
1.12922
1.02971
0.936314
0.849506
0.769427
0.695979
0.62891
0.567868
0.512446
0.462219
0.41676
0.375656
0.338513
0.304965
0.274673
0.247327
0.222643
0.200362
0.180253
0.162103
0.145722
0.130938
0.117598
0.105559
0.0946986
0.0849014
0.0760659
0.0680997
0.0609196
0.0544505
0.0486244
0.0433799
0.0386615
0.034419
0.030607
0.0271843
0.0241135
0.0213611
0.0188962
0.0166911
0.0147207
0.012962
0.0113943
0.0099988
0.00875838
0.00765753
0.00668217
0.00581949
0.00505786
0.00438672
0.00379646
0.00327838
0.00282462
0.00242804
0.00208224
0.00178141
0.00152035
0.00129435
0.00109922
0.000931179
0.000786847
0.000663217
0.000557609
0.000467649
0.000391233
0.00032651
0.000271849
0.000225824
0.000187186
0.00015485
0.000127873
0.000105439
8.68469e-05
7.14922e-05
5.88587e-05
4.85067e-05
4.00629e-05
3.32106e-05
2.76813e-05
2.32484e-05
1.97199e-05
1.69336e-05
1.47525e-05
1.3062e-05
1.17668e-05
1.07881e-05
1.00612e-05
9.53333e-06
9.1616e-06
8.91077e-06
8.75184e-06
8.66105e-06
8.61885e-06
8.60913e-06
8.6187e-06
8.63709e-06
8.65598e-06
8.66874e-06
8.67014e-06
8.65632e-06
8.62452e-06
8.5729e-06
8.50053e-06
8.40767e-06
8.29586e-06
8.16822e-06
8.03018e-06
7.89078e-06
7.76433e-06
7.67309e-06
7.65163e-06
7.75374e-06
8.06235e-06
8.70466e-06
9.87523e-06
1.18711e-05
1.51439e-05
2.03798e-05
2.86225e-05
4.14655e-05
6.13527e-05
9.20594e-05
0.000139479
0.00021294
0.000327478
0.000507984
0.000797308
0.0012736
0.00209067
0.00357728
0.00647831
0.0124874
0.0252172
0.0515063
0.102473
0.193454
0.342304
0.566201
0.877668
1.28076
1.7684
2.32163
2.91154
3.5039
4.06588
4.57367
5.01958
5.41847
5.79885
6.1971
6.49071
5.96109
4.23511
4.61933
4.94314
5.29378
5.59525
5.84377
6.01679
6.10655
6.11347
6.04504
5.91348
5.7331
5.51819
5.28162
5.03409
4.78395
4.53732
4.29843
4.0701
3.85409
3.65151
3.46302
3.28904
3.12982
2.98549
2.85597
2.741
2.64005
2.55229
2.4766
2.41162
2.35574
2.30722
2.26418
2.22465
2.18653
2.14763
2.10568
2.05843
2.00383
1.94033
1.8671
1.78422
1.69273
1.59445
1.49171
1.38702
1.28272
1.1808
1.08283
0.989884
0.902644
0.821447
0.746374
0.677318
0.614048
0.556256
0.503589
0.455677
0.412148
0.372638
0.336804
0.304319
0.274882
0.248215
0.224062
0.202189
0.182384
0.164452
0.148218
0.133524
0.120225
0.10819
0.0973008
0.0874514
0.0785445
0.0704922
0.0632152
0.0566414
0.0507053
0.0453479
0.0405152
0.0361587
0.0322339
0.0287008
0.0255228
0.0226666
0.0201021
0.0178018
0.0157407
0.0138962
0.0122475
0.0107758
0.00946407
0.00829668
0.00725943
0.00633937
0.00552468
0.00480463
0.00416944
0.00361021
0.00311889
0.00268817
0.00231144
0.00198269
0.00169652
0.00144803
0.00123282
0.00104691
0.00088676
0.000749168
0.00063129
0.00053059
0.000444816
0.000371972
0.000310297
0.000258241
0.000214443
0.000177714
0.000147017
0.000121452
0.000100238
8.27059e-05
6.82774e-05
5.64599e-05
4.6832e-05
3.90339e-05
3.27592e-05
2.77473e-05
2.37761e-05
2.06575e-05
1.82333e-05
1.63714e-05
1.49622e-05
1.39152e-05
1.31563e-05
1.26247e-05
1.22704e-05
1.20518e-05
1.19348e-05
1.18913e-05
1.18981e-05
1.19364e-05
1.19914e-05
1.20514e-05
1.21073e-05
1.2152e-05
1.21806e-05
1.21899e-05
1.21778e-05
1.21439e-05
1.20893e-05
1.20166e-05
1.19308e-05
1.18394e-05
1.17542e-05
1.16928e-05
1.16819e-05
1.17614e-05
1.19924e-05
1.24674e-05
1.33265e-05
1.4782e-05
1.7155e-05
2.093e-05
2.68379e-05
3.59842e-05
5.00476e-05
7.15917e-05
0.000104562
0.000155101
0.000232904
0.00035355
0.000542722
0.000844377
0.00133807
0.00217929
0.00369967
0.00665461
0.0127803
0.0258241
0.0529432
0.105829
0.200614
0.355999
0.589777
0.914582
1.33389
1.83929
2.40979
3.01387
3.61437
4.17549
4.67099
5.0914
5.44999
5.7713
6.07558
6.16088
5.45082
2.72184
3.23793
3.77659
4.31623
4.78272
5.16317
5.44258
5.61944
5.69886
5.69149
5.61164
5.47507
5.29718
5.09179
4.87051
4.64252
4.41474
4.1921
3.97801
3.77468
3.58349
3.40528
3.24054
3.08949
2.95216
2.82842
2.71793
2.62014
2.53425
2.45928
2.39402
2.33712
2.2871
2.2424
2.2014
2.16237
2.12346
2.08273
2.03821
1.98798
1.93044
1.86451
1.78984
1.70689
1.61694
1.52179
1.4236
1.32449
1.22643
1.13103
1.03952
0.952752
0.871238
0.795233
0.724782
0.659782
0.60003
0.545258
0.495162
0.449421
0.40771
0.369714
0.335128
0.303666
0.275057
0.249054
0.225424
0.203958
0.184459
0.166752
0.150674
0.136078
0.12283
0.110808
0.0999019
0.0900096
0.08104
0.0729095
0.0655425
0.0588699
0.052829
0.0473629
0.0424194
0.0379515
0.0339161
0.0302739
0.0269892
0.0240294
0.0213649
0.0189685
0.0168156
0.0148836
0.0131521
0.0116023
0.0102171
0.0089809
0.00787933
0.00689936
0.00602905
0.00525751
0.00457483
0.00397196
0.00344066
0.00297347
0.00256356
0.00220477
0.00189148
0.00161859
0.00138152
0.00117611
0.00099861
0.000845657
0.000714234
0.000601641
0.000505471
0.000423582
0.000354074
0.000295268
0.000245686
0.000204026
0.000169151
0.000140068
0.000115916
9.5949e-05
7.95227e-05
6.6083e-05
5.51531e-05
4.63238e-05
3.9244e-05
3.36135e-05
2.91764e-05
2.57167e-05
2.30527e-05
2.10331e-05
1.95324e-05
1.84469e-05
1.76911e-05
1.71937e-05
1.68958e-05
1.67486e-05
1.67116e-05
1.67518e-05
1.68423e-05
1.69619e-05
1.70941e-05
1.72259e-05
1.73477e-05
1.74528e-05
1.75369e-05
1.75975e-05
1.76345e-05
1.76497e-05
1.76471e-05
1.76333e-05
1.76182e-05
1.76164e-05
1.76492e-05
1.77473e-05
1.79563e-05
1.83441e-05
1.90126e-05
2.01143e-05
2.18784e-05
2.46489e-05
2.89411e-05
3.55275e-05
4.55699e-05
6.08235e-05
8.39563e-05
0.00011906
0.000172486
0.000254229
0.000380307
0.000577015
0.000889072
0.00139671
0.0022553
0.00379462
0.00676863
0.0129297
0.0261131
0.0537328
0.108
0.205831
0.366823
0.609511
0.946842
1.382
1.90558
2.49501
3.11659
3.73062
4.29868
4.79208
5.19921
5.53077
5.80772
6.04781
6.06886
5.48576
1.87047
2.36011
2.93546
3.53473
4.07733
4.53407
4.88545
5.12795
5.26643
5.31201
5.27947
5.18507
5.04464
4.87242
4.68041
4.47821
4.27312
4.07046
3.87396
3.68612
3.50856
3.34227
3.18783
3.04553
2.91544
2.79744
2.69121
2.59628
2.51197
2.43742
2.37163
2.31348
2.26177
2.21522
2.1725
2.13222
2.09285
2.05279
2.0103
1.96367
1.9113
1.85198
1.785
1.71038
1.62884
1.54168
1.45065
1.35761
1.26439
1.17259
1.08354
0.998204
0.917262
0.841121
0.769974
0.703849
0.642654
0.586213
0.534299
0.486648
0.442985
0.403029
0.366504
0.333143
0.302692
0.274913
0.249581
0.22649
0.205448
0.186278
0.168818
0.152919
0.138445
0.125271
0.113285
0.102381
0.0924651
0.0834505
0.0752581
0.0678159
0.0610579
0.0549242
0.0493599
0.044315
0.0397439
0.0356047
0.0318593
0.0284728
0.0254134
0.022652
0.0201621
0.0179192
0.0159012
0.0140878
0.0124602
0.0110015
0.009696
0.00852938
0.00748853
0.00656143
0.00573711
0.00500554
0.00435754
0.00378476
0.00327955
0.00283494
0.00244457
0.00210266
0.00180393
0.0015436
0.00131735
0.00112125
0.000951768
0.000805717
0.000680237
0.000572767
0.000481017
0.000402949
0.000336751
0.000280823
0.000233749
0.000194287
0.000161348
0.000133982
0.000111362
9.277e-05
7.75822e-05
6.526e-05
5.53375e-05
4.74141e-05
4.11464e-05
3.62426e-05
3.24561e-05
2.95803e-05
2.74423e-05
2.58984e-05
2.48286e-05
2.41331e-05
2.37283e-05
2.3545e-05
2.35255e-05
2.36227e-05
2.37985e-05
2.40225e-05
2.42709e-05
2.45255e-05
2.47726e-05
2.50027e-05
2.52094e-05
2.53897e-05
2.55431e-05
2.5672e-05
2.57819e-05
2.5881e-05
2.59818e-05
2.61019e-05
2.62661e-05
2.65095e-05
2.68832e-05
2.7462e-05
2.83568e-05
2.97322e-05
3.18335e-05
3.50263e-05
3.98548e-05
4.71294e-05
5.8062e-05
7.44736e-05
9.91194e-05
0.000136208
0.00019225
0.000277464
0.000408176
0.000611072
0.000931248
0.00144881
0.00231715
0.00385928
0.00681491
0.0129232
0.0260521
0.0537961
0.108814
0.208777
0.374223
0.624554
0.973243
1.42347
1.96526
2.57486
3.21692
3.84964
4.43229
4.93392
5.34066
5.6606
5.91261
6.12008
6.15701
5.79458
1.36053
1.77937
2.31869
2.91096
3.47482
3.96827
4.36432
4.65406
4.8395
4.93025
4.94034
4.88559
4.78163
4.64261
4.48059
4.30527
4.12411
3.94265
3.76483
3.59337
3.43005
3.27605
3.13206
2.99846
2.87541
2.76285
2.66056
2.56816
2.48512
2.41074
2.34421
2.28465
2.23109
2.18251
2.13785
2.09601
2.05575
2.01577
1.97461
1.93075
1.8827
1.82915
1.7692
1.70246
1.62918
1.5502
1.46679
1.38053
1.29303
1.20582
1.12023
1.03733
0.957904
0.882499
0.811445
0.744897
0.682875
0.625302
0.572029
0.522863
0.477582
0.435948
0.39772
0.362657
0.330526
0.301103
0.274176
0.249546
0.227027
0.206445
0.18764
0.170465
0.154781
0.140465
0.127401
0.115482
0.104611
0.0947004
0.0856674
0.0774376
0.0699427
0.0631199
0.0569121
0.0512667
0.0461356
0.0414748
0.0372439
0.033406
0.0299271
0.0267764
0.0239253
0.0213479
0.0190203
0.0169207
0.0150289
0.0133266
0.0117967
0.0104237
0.0091933
0.00809245
0.0071091
0.00623223
0.00545176
0.00475843
0.00414377
0.00360001
0.00312004
0.00269736
0.00232602
0.0020006
0.00171616
0.00146821
0.00125266
0.00106582
0.000904362
0.000765257
0.000645801
0.000543563
0.000456367
0.000382275
0.000319562
0.000266699
0.000222338
0.000185289
0.00015451
0.000129086
0.000108216
9.12041e-05
7.74418e-05
6.64032e-05
5.7635e-05
5.0749e-05
4.54154e-05
4.1355e-05
3.83331e-05
3.61523e-05
3.4647e-05
3.3678e-05
3.31284e-05
3.29008e-05
3.2914e-05
3.31012e-05
3.34084e-05
3.37925e-05
3.42193e-05
3.46627e-05
3.5103e-05
3.55262e-05
3.59231e-05
3.62888e-05
3.66221e-05
3.69258e-05
3.72062e-05
3.74736e-05
3.7743e-05
3.80352e-05
3.83788e-05
3.88137e-05
3.93962e-05
4.02086e-05
4.13708e-05
4.30595e-05
4.55359e-05
4.91868e-05
5.45838e-05
6.25727e-05
7.441e-05
9.19729e-05
0.000118086
0.000157046
0.000215473
0.000303725
0.000438297
0.00064604
0.000972014
0.00149543
0.00236588
0.00389491
0.00679523
0.0127615
0.0256332
0.0530944
0.108159
0.209206
0.377744
0.63417
0.9927
1.45683
2.01639
2.64695
3.31199
3.96809
4.5726
5.09249
5.51176
5.83621
6.08435
6.2885
6.38229
6.24106
1.03693
1.38099
1.85887
2.41216
2.96479
3.46765
3.88716
4.20854
4.42983
4.5581
4.60569
4.58731
4.51782
4.41091
4.27834
4.1297
3.97247
3.81228
3.6532
3.4981
3.34896
3.20707
3.07327
2.94806
2.83169
2.72423
2.62555
2.5354
2.45338
2.37898
2.31158
2.25049
2.19497
2.14422
2.09745
2.05376
2.01223
1.97179
1.93125
1.88933
1.84466
1.79597
1.74221
1.68271
1.61733
1.54645
1.47092
1.39194
1.31089
1.22914
1.14797
1.06848
0.991536
0.917787
0.84768
0.781488
0.719341
0.661258
0.607178
0.556978
0.510497
0.467548
0.427929
0.391431
0.357848
0.326976
0.298618
0.272587
0.248706
0.226808
0.206738
0.18835
0.171509
0.15609
0.141978
0.129067
0.117259
0.106461
0.0965929
0.0875764
0.0793416
0.071824
0.0649642
0.0587076
0.0530043
0.0478081
0.0430767
0.0387714
0.0348565
0.0312993
0.0280697
0.0251402
0.0224854
0.0200819
0.0179084
0.015945
0.0141736
0.0125775
0.0111412
0.0098507
0.00869286
0.00765575
0.00672839
0.00590066
0.00516329
0.00450772
0.0039261
0.00341122
0.00295648
0.0025558
0.00220364
0.00189493
0.00162503
0.00138974
0.00118522
0.00100799
0.000854895
0.000723094
0.000610027
0.000513389
0.000431122
0.000361382
0.000302531
0.000253112
0.000211835
0.00017756
0.000149279
0.000126108
0.000107271
9.20897e-05
7.99764e-05
7.04245e-05
6.29997e-05
5.73316e-05
5.31058e-05
5.00556e-05
4.79552e-05
4.66138e-05
4.58699e-05
4.55882e-05
4.56557e-05
4.59789e-05
4.64819e-05
4.71035e-05
4.77954e-05
4.85197e-05
4.92482e-05
4.996e-05
5.06414e-05
5.12842e-05
5.18857e-05
5.24481e-05
5.29787e-05
5.34894e-05
5.39977e-05
5.45279e-05
5.5113e-05
5.57975e-05
5.66441e-05
5.77426e-05
5.92227e-05
6.12739e-05
6.41743e-05
6.83325e-05
7.43478e-05
8.31e-05
9.58872e-05
0.000114635
0.000142224
0.00018301
0.000243676
0.00033464
0.000472428
0.000683824
0.00101347
0.00153893
0.00240444
0.00390589
0.00671706
0.012457
0.0248711
0.0516288
0.105986
0.206956
0.377037
0.637742
1.00425
1.48069
2.05711
2.70887
3.3988
4.08235
4.71532
5.26279
5.70679
6.05128
6.31554
6.54087
6.70948
6.75658
0.822425
1.10004
1.51155
2.0124
2.53543
3.02932
3.45619
3.79622
4.04342
4.20182
4.28157
4.29573
4.25804
4.18134
4.0769
3.95401
3.82001
3.68053
3.53972
3.40057
3.26518
3.13499
3.01098
2.89377
2.78373
2.68103
2.58568
2.49755
2.4164
2.34187
2.27353
2.21087
2.15335
2.10038
2.05135
2.00561
1.96245
1.92106
1.88049
1.8397
1.79748
1.75266
1.70414
1.65106
1.59298
1.52988
1.46222
1.39082
1.31674
1.24117
1.16527
1.09011
1.01659
0.945422
0.877151
0.812148
0.750641
0.692747
0.638486
0.587814
0.540631
0.496806
0.456181
0.418588
0.383848
0.351784
0.322218
0.29498
0.269904
0.246834
0.225621
0.206125
0.188216
0.17177
0.156675
0.142825