/*--------------------------------*- C++ -*----------------------------------*\
| =========                 |                                                 |
| \\      /  F ield         | OpenFOAM: The Open Source CFD Toolbox           |
|  \\    /   O peration     | Version:  2.4.0                                 |
|   \\  /    A nd           | Web:      www.OpenFOAM.org                      |
|    \\/     M anipulation  |                                                 |
\*---------------------------------------------------------------------------*/
FoamFile
{
    version     2.0;
    format      ascii;
    class       volVectorField;
    location    "0.002";
    object      U;
}
// * * * * * * * * * * * * * * * * * * * * * * * * * * * * * * * * * * * * * //

dimensions      [0 1 -1 0 0 0 0];

internalField   nonuniform List<vector> 
17600
(
(9.82437 -0.584285 0)
(9.64586 -0.320581 0)
(9.41705 -0.184767 0)
(9.18343 -0.106787 0)
(8.95886 -0.0607447 0)
(8.74609 -0.0332237 0)
(8.54663 -0.0167245 0)
(8.36137 -0.0069102 0)
(8.19041 -0.00119318 0)
(8.0334 0.00200588 0)
(7.88975 0.00366429 0)
(7.75873 0.00439353 0)
(7.63953 0.00458003 0)
(7.53118 0.00447479 0)
(7.43243 0.0042514 0)
(7.34155 0.00405088 0)
(7.25586 0.00403245 0)
(7.17041 0.00447682 0)
(7.07624 0.00608409 0)
(6.93429 0.000338589 0)
(10.0013 0.202544 0)
(9.98595 0.174892 0)
(9.94596 0.132632 0)
(9.8934 0.101753 0)
(9.83287 0.0794411 0)
(9.76465 0.0634243 0)
(9.68999 0.0519474 0)
(9.61067 0.0436157 0)
(9.52828 0.0374236 0)
(9.4441 0.0326858 0)
(9.35921 0.0289454 0)
(9.27446 0.0259026 0)
(9.1905 0.023368 0)
(9.10771 0.0212381 0)
(9.02606 0.019489 0)
(8.94497 0.0181932 0)
(8.86272 0.0175977 0)
(8.77506 0.0183395 0)
(8.67453 0.0226992 0)
(8.51081 0.0522973 0)
(10.006 0.0379943 0)
(10.0191 0.0201956 0)
(10.0245 0.0152919 0)
(10.0242 0.0187932 0)
(10.0213 0.0228781 0)
(10.0147 0.0259778 0)
(10.0041 0.0280332 0)
(9.98975 0.0291729 0)
(9.9718 0.029568 0)
(9.95037 0.029398 0)
(9.92555 0.0288277 0)
(9.89737 0.0279982 0)
(9.86582 0.0270342 0)
(9.83074 0.0260634 0)
(9.79175 0.0252501 0)
(9.74805 0.0248548 0)
(9.69792 0.0253919 0)
(9.63751 0.027995 0)
(9.56015 0.0366217 0)
(9.43064 0.0636022 0)
(10.0087 0.0257311 0)
(10.0266 0.0298098 0)
(10.0406 0.0325833 0)
(10.0512 0.0357378 0)
(10.0613 0.0370894 0)
(10.0702 0.037112 0)
(10.0773 0.0364839 0)
(10.0826 0.0355358 0)
(10.0862 0.034424 0)
(10.0878 0.0332418 0)
(10.0876 0.0320562 0)
(10.0852 0.0309223 0)
(10.0807 0.029899 0)
(10.0737 0.0290731 0)
(10.0637 0.028601 0)
(10.0498 0.0287852 0)
(10.0304 0.0302859 0)
(10.0021 0.0345831 0)
(9.95976 0.0465248 0)
(9.88034 0.0752926 0)
(10.009 0.0230534 0)
(10.0278 0.0299223 0)
(10.0442 0.0315037 0)
(10.0581 0.0332579 0)
(10.0723 0.034059 0)
(10.0861 0.0340702 0)
(10.0989 0.0337008 0)
(10.1108 0.0331267 0)
(10.1216 0.0324194 0)
(10.1313 0.0316309 0)
(10.1398 0.0308137 0)
(10.1469 0.0300249 0)
(10.1526 0.0293358 0)
(10.1566 0.0288576 0)
(10.1586 0.0287873 0)
(10.1578 0.0294992 0)
(10.1528 0.031797 0)
(10.1409 0.0374059 0)
(10.1189 0.0516486 0)
(10.072 0.0819205 0)
(10.0085 0.0219359 0)
(10.027 0.0285028 0)
(10.0443 0.0296892 0)
(10.0596 0.0312411 0)
(10.0756 0.0321052 0)
(10.0914 0.0322514 0)
(10.1067 0.032017 0)
(10.1213 0.0315665 0)
(10.1351 0.0309751 0)
(10.1482 0.0303005 0)
(10.1603 0.0296011 0)
(10.1715 0.0289409 0)
(10.1816 0.0284008 0)
(10.1904 0.0281083 0)
(10.1975 0.0282893 0)
(10.2024 0.0293706 0)
(10.2039 0.032262 0)
(10.1997 0.0388331 0)
(10.1877 0.054652 0)
(10.1586 0.0859417 0)
(10.0078 0.0198379 0)
(10.0255 0.0261383 0)
(10.0432 0.0274913 0)
(10.0594 0.0290711 0)
(10.0761 0.02999 0)
(10.093 0.0302065 0)
(10.1094 0.0300456 0)
(10.1254 0.0296728 0)
(10.1408 0.029166 0)
(10.1555 0.0285843 0)
(10.1695 0.0279871 0)
(10.1828 0.0274415 0)
(10.1951 0.0270351 0)
(10.2063 0.0269087 0)
(10.2161 0.0273131 0)
(10.2239 0.0287194 0)
(10.2287 0.0321235 0)
(10.2288 0.0394832 0)
(10.2223 0.0564891 0)
(10.2041 0.0884293 0)
(10.007 0.017715 0)
(10.0239 0.0238928 0)
(10.0417 0.0254165 0)
(10.0583 0.0269578 0)
(10.0755 0.0278576 0)
(10.093 0.0280948 0)
(10.1101 0.0279754 0)
(10.1268 0.0276577 0)
(10.1431 0.0272173 0)
(10.1588 0.0267122 0)
(10.1739 0.0262013 0)
(10.1882 0.0257542 0)
(10.2018 0.025464 0)
(10.2144 0.0254841 0)
(10.2257 0.0260871 0)
(10.2353 0.0277831 0)
(10.2422 0.0316376 0)
(10.2449 0.0396614 0)
(10.2421 0.0575814 0)
(10.2317 0.0898886 0)
(10.0064 0.0157712 0)
(10.0224 0.0217508 0)
(10.0401 0.0233446 0)
(10.0569 0.0248045 0)
(10.0744 0.0256633 0)
(10.0922 0.0259099 0)
(10.1097 0.0258252 0)
(10.1269 0.0255563 0)
(10.1437 0.0251757 0)
(10.16 0.0247395 0)
(10.1758 0.0243067 0)
(10.1909 0.0239486 0)
(10.2052 0.0237638 0)
(10.2187 0.023917 0)
(10.231 0.0247008 0)
(10.2417 0.0266585 0)
(10.25 0.0309119 0)
(10.2548 0.0394998 0)
(10.2547 0.0581127 0)
(10.2504 0.0905572 0)
(10.0058 0.013988 0)
(10.0211 0.0196666 0)
(10.0386 0.021265 0)
(10.0555 0.0226297 0)
(10.0731 0.0234396 0)
(10.0911 0.0236887 0)
(10.1089 0.0236323 0)
(10.1264 0.0234061 0)
(10.1435 0.0230792 0)
(10.1602 0.0227058 0)
(10.1764 0.0223443 0)
(10.1919 0.022068 0)
(10.2068 0.0219803 0)
(10.2209 0.0222561 0)
(10.2339 0.0232054 0)
(10.2455 0.0254001 0)
(10.2548 0.0300057 0)
(10.2612 0.03907 0)
(10.2634 0.0581876 0)
(10.2642 0.0905799 0)
(10.0054 0.01233 0)
(10.0199 0.0176288 0)
(10.0371 0.0191884 0)
(10.0541 0.0204496 0)
(10.0718 0.021203 0)
(10.0898 0.0214472 0)
(10.1078 0.0214128 0)
(10.1255 0.0212241 0)
(10.1428 0.0209459 0)
(10.1598 0.0206306 0)
(10.1763 0.0203356 0)
(10.1922 0.0201357 0)
(10.2074 0.0201385 0)
(10.222 0.0205279 0)
(10.2355 0.0216292 0)
(10.2477 0.0240381 0)
(10.2579 0.0289523 0)
(10.2656 0.0384139 0)
(10.2698 0.0578714 0)
(10.275 0.0900539 0)
(10.005 0.0107775 0)
(10.0188 0.0156379 0)
(10.0359 0.0171231 0)
(10.0528 0.0182722 0)
(10.0705 0.0189618 0)
(10.0886 0.0191947 0)
(10.1066 0.019177 0)
(10.1244 0.0190214 0)
(10.142 0.0187881 0)
(10.1591 0.018527 0)
(10.1758 0.0182947 0)
(10.1919 0.0181666 0)
(10.2074 0.0182543 0)
(10.2223 0.0187492 0)
(10.2362 0.0199898 0)
(10.2489 0.022591 0)
(10.2599 0.0277719 0)
(10.2688 0.0375576 0)
(10.2748 0.0572104 0)
(10.2838 0.0890497 0)
(10.0046 0.00931542 0)
(10.0179 0.0136916 0)
(10.0348 0.015071 0)
(10.0517 0.0161008 0)
(10.0693 0.0167207 0)
(10.0874 0.016937 0)
(10.1055 0.0169317 0)
(10.1234 0.0168056 0)
(10.141 0.0166138 0)
(10.1583 0.0164039 0)
(10.1751 0.0162308 0)
(10.1914 0.0161706 0)
(10.2071 0.016338 0)
(10.2222 0.0169308 0)
(10.2365 0.0182983 0)
(10.2496 0.0210704 0)
(10.2613 0.026478 0)
(10.2713 0.0365193 0)
(10.2789 0.0562391 0)
(10.2914 0.0876224 0)
(10.0043 0.00793003 0)
(10.0172 0.0117851 0)
(10.0338 0.0130321 0)
(10.0507 0.0139363 0)
(10.0683 0.0144821 0)
(10.0864 0.0146777 0)
(10.1045 0.0146814 0)
(10.1224 0.0145818 0)
(10.1401 0.0144289 0)
(10.1574 0.0142674 0)
(10.1743 0.0141506 0)
(10.1908 0.0141547 0)
(10.2067 0.0143969 0)
(10.222 0.0150803 0)
(10.2365 0.0165626 0)
(10.25 0.0194845 0)
(10.2623 0.0250799 0)
(10.2734 0.0353122 0)
(10.2824 0.0549856 0)
(10.2981 0.0858166 0)
(10.0041 0.00660849 0)
(10.0166 0.00991343 0)
(10.033 0.0110054 0)
(10.0498 0.0117792 0)
(10.0674 0.0122471 0)
(10.0855 0.012419 0)
(10.1036 0.0124289 0)
(10.1215 0.0123534 0)
(10.1392 0.0122372 0)
(10.1566 0.0121218 0)
(10.1736 0.0120586 0)
(10.1901 0.0121237 0)
(10.2062 0.0124361 0)
(10.2216 0.0132028 0)
(10.2364 0.0147878 0)
(10.2503 0.0178389 0)
(10.2631 0.0235843 0)
(10.2751 0.0339472 0)
(10.2856 0.0534735 0)
(10.3042 0.0836709 0)
(10.0039 0.0053391 0)
(10.0161 0.00807111 0)
(10.0323 0.00898953 0)
(10.0491 0.00962868 0)
(10.0667 0.0100161 0)
(10.0847 0.0101617 0)
(10.1028 0.0101758 0)
(10.1208 0.0101226 0)
(10.1385 0.0100413 0)
(10.1559 0.00996997 0)
(10.173 0.00995805 0)
(10.1896 0.0100811 0)
(10.2057 0.0104592 0)
(10.2213 0.0113021 0)
(10.2362 0.012978 0)
(10.2505 0.0161378 0)
(10.2638 0.0219971 0)
(10.2768 0.0324334 0)
(10.2886 0.0517232 0)
(10.3097 0.0812182 0)
(10.0038 0.00411111 0)
(10.0157 0.00625285 0)
(10.0318 0.00698274 0)
(10.0486 0.00748399 0)
(10.0661 0.00778875 0)
(10.0841 0.00790615 0)
(10.1022 0.00792288 0)
(10.1202 0.00789067 0)
(10.1379 0.00784272 0)
(10.1553 0.00781392 0)
(10.1724 0.00785124 0)
(10.1891 0.00802932 0)
(10.2053 0.00846881 0)
(10.221 0.00938097 0)
(10.2361 0.011136 0)
(10.2507 0.0143845 0)
(10.2645 0.0203229 0)
(10.2784 0.030779 0)
(10.2915 0.0497535 0)
(10.3149 0.0784884 0)
(10.0037 0.00291457 0)
(10.0154 0.00445327 0)
(10.0314 0.00498315 0)
(10.0482 0.00534393 0)
(10.0656 0.00556439 0)
(10.0836 0.00565226 0)
(10.1017 0.00567049 0)
(10.1197 0.00565819 0)
(10.1374 0.00564254 0)
(10.1549 0.00565488 0)
(10.172 0.00573963 0)
(10.1887 0.00597011 0)
(10.205 0.00646686 0)
(10.2208 0.00744149 0)
(10.2361 0.00926418 0)
(10.251 0.0125818 0)
(10.2653 0.0185658 0)
(10.28 0.0289915 0)
(10.2942 0.0475803 0)
(10.3198 0.0755078 0)
(10.0036 0.0017401 0)
(10.0152 0.00266702 0)
(10.0312 0.00298879 0)
(10.0479 0.00320727 0)
(10.0654 0.00334229 0)
(10.0833 0.00339967 0)
(10.1014 0.00341861 0)
(10.1194 0.00342545 0)
(10.1371 0.00344125 0)
(10.1546 0.00349359 0)
(10.1717 0.00362421 0)
(10.1885 0.00390458 0)
(10.2048 0.00445471 0)
(10.2207 0.00548515 0)
(10.2362 0.00736429 0)
(10.2514 0.0107321 0)
(10.2661 0.0167298 0)
(10.2816 0.0270782 0)
(10.2969 0.0452193 0)
(10.3245 0.0723013 0)
(10.0036 0.000578759 0)
(10.0151 0.000888868 0)
(10.0311 0.000997746 0)
(10.0478 0.00107282 0)
(10.0652 0.00112173 0)
(10.0832 0.00114805 0)
(10.1013 0.00116718 0)
(10.1192 0.00119265 0)
(10.137 0.00123924 0)
(10.1545 0.00133069 0)
(10.1716 0.00150573 0)
(10.1884 0.00183374 0)
(10.2048 0.00243342 0)
(10.2208 0.00351322 0)
(10.2364 0.00543789 0)
(10.2518 0.00883749 0)
(10.267 0.0148186 0)
(10.2833 0.0250461 0)
(10.2997 0.0426842 0)
(10.329 0.0688909 0)
(10.0036 -0.000578394 0)
(10.0151 -0.00088704 0)
(10.0311 -0.000992802 0)
(10.0478 -0.00106162 0)
(10.0652 -0.00109913 0)
(10.0832 -0.00110413 0)
(10.1013 -0.00108506 0)
(10.1192 -0.00104123 0)
(10.137 -0.00096425 0)
(10.1545 -0.000834381 0)
(10.1716 -0.000615995 0)
(10.1884 -0.000242302 0)
(10.2049 0.000403646 0)
(10.221 0.00152684 0)
(10.2368 0.00348646 0)
(10.2524 0.00690019 0)
(10.268 0.012836 0)
(10.285 0.0229021 0)
(10.3023 0.0399887 0)
(10.3333 0.0652979 0)
(10.0036 -0.00173974 0)
(10.0152 -0.00266521 0)
(10.0312 -0.0029839 0)
(10.0479 -0.00319615 0)
(10.0654 -0.00331985 0)
(10.0834 -0.00335602 0)
(10.1014 -0.00333701 0)
(10.1194 -0.00327495 0)
(10.1372 -0.00316792 0)
(10.1547 -0.00300022 0)
(10.1718 -0.00273969 0)
(10.1886 -0.00232237 0)
(10.2051 -0.00163389 0)
(10.2213 -0.000473336 0)
(10.2372 0.00151151 0)
(10.2531 0.00492245 0)
(10.2691 0.0107861 0)
(10.2867 0.0206532 0)
(10.305 0.0371449 0)
(10.3374 0.0615416 0)
(10.0037 -0.00291423 0)
(10.0154 -0.0044515 0)
(10.0314 -0.00497834 0)
(10.0482 -0.00533298 0)
(10.0657 -0.00554226 0)
(10.0837 -0.00560916 0)
(10.1017 -0.00558991 0)
(10.1197 -0.00550949 0)
(10.1375 -0.00537244 0)
(10.155 -0.00516725 0)
(10.1722 -0.00486527 0)
(10.189 -0.00440593 0)
(10.2055 -0.00367771 0)
(10.2217 -0.00248545 0)
(10.2378 -0.00048551 0)
(10.2539 0.00290685 0)
(10.2703 0.00867278 0)
(10.2885 0.0183066 0)
(10.3076 0.0341653 0)
(10.3413 0.0576408 0)
(10.0038 -0.0041108 0)
(10.0157 -0.00625114 0)
(10.0318 -0.00697806 0)
(10.0486 -0.00747327 0)
(10.0661 -0.00776708 0)
(10.0841 -0.00786385 0)
(10.1022 -0.00784382 0)
(10.1202 -0.00774467 0)
(10.138 -0.00757748 0)
(10.1555 -0.00733491 0)
(10.1726 -0.00699213 0)
(10.1895 -0.00649217 0)
(10.206 -0.00572714 0)
(10.2223 -0.00450824 0)
(10.2384 -0.00250209 0)
(10.2547 0.000856434 0)
(10.2715 0.00650105 0)
(10.2902 0.0158697 0)
(10.3102 0.0310613 0)
(10.3451 0.0536133 0)
(10.0039 -0.00533882 0)
(10.0161 -0.00806948 0)
(10.0323 -0.00898502 0)
(10.0491 -0.00961827 0)
(10.0667 -0.00999507 0)
(10.0847 -0.0101205 0)
(10.1028 -0.0100987 0)
(10.1208 -0.0099802 0)
(10.1386 -0.00978243 0)
(10.1561 -0.00950237 0)
(10.1733 -0.00911912 0)
(10.1901 -0.00857974 0)
(10.2066 -0.00778038 0)
(10.2229 -0.00653974 0)
(10.2392 -0.00453584 0)
(10.2556 -0.00122589 0)
(10.2727 0.00427576 0)
(10.2919 0.0133502 0)
(10.3126 0.0278455 0)
(10.3485 0.0494764 0)
(10.0041 -0.00660826 0)
(10.0166 -0.00991189 0)
(10.033 -0.0110011 0)
(10.0498 -0.0117691 0)
(10.0674 -0.0122268 0)
(10.0855 -0.0123791 0)
(10.1036 -0.0123543 0)
(10.1216 -0.0122154 0)
(10.1393 -0.0119863 0)
(10.1568 -0.0116683 0)
(10.174 -0.0112447 0)
(10.1908 -0.0106667 0)
(10.2073 -0.00983522 0)
(10.2236 -0.0085772 0)
(10.2399 -0.00658357 0)
(10.2565 -0.00333486 0)
(10.2738 0.00200338 0)
(10.2935 0.0107566 0)
(10.3149 0.0245295 0)
(10.3516 0.0452471 0)
(10.0043 -0.00792986 0)
(10.0172 -0.0117837 0)
(10.0338 -0.0130281 0)
(10.0507 -0.0139268 0)
(10.0683 -0.0144627 0)
(10.0864 -0.0146395 0)
(10.1045 -0.0146098 0)
(10.1225 -0.014449 0)
(10.1402 -0.0141875 0)
(10.1576 -0.0138307 0)
(10.1747 -0.0133663 0)
(10.1915 -0.0127502 0)
(10.208 -0.0118885 0)
(10.2243 -0.010617 0)
(10.2406 -0.0086409 0)
(10.2573 -0.00546586 0)
(10.2748 -0.000309968 0)
(10.2949 0.00809809 0)
(10.3168 0.0211271 0)
(10.3543 0.040942 0)
(10.0046 -0.00931532 0)
(10.0179 -0.0136903 0)
(10.0348 -0.0150673 0)
(10.0517 -0.0160918 0)
(10.0693 -0.0167024 0)
(10.0874 -0.0169006 0)
(10.1055 -0.0168636 0)
(10.1235 -0.0166789 0)
(10.1412 -0.0163833 0)
(10.1585 -0.0159865 0)
(10.1756 -0.0154807 0)
(10.1922 -0.0148266 0)
(10.2087 -0.013936 0)
(10.2249 -0.0126544 0)
(10.2412 -0.0107024 0)
(10.2579 -0.00761228 0)
(10.2755 -0.00265526 0)
(10.2959 0.00538505 0)
(10.3184 0.0176516 0)
(10.3564 0.0365784 0)
(10.005 -0.0107775 0)
(10.0188 -0.0156368 0)
(10.0359 -0.0171197 0)
(10.0528 -0.0182638 0)
(10.0705 -0.0189447 0)
(10.0886 -0.0191604 0)
(10.1067 -0.0191127 0)
(10.1245 -0.0189016 0)
(10.1421 -0.0185697 0)
(10.1594 -0.0181313 0)
(10.1763 -0.0175829 0)
(10.1929 -0.0168905 0)
(10.2091 -0.0159719 0)
(10.2253 -0.0146831 0)
(10.2415 -0.0127609 0)
(10.2581 -0.00976577 0)
(10.2758 -0.00502261 0)
(10.2964 0.00262942 0)
(10.3193 0.0141186 0)
(10.3576 0.0321737 0)
(10.0054 -0.0123301 0)
(10.0199 -0.0176278 0)
(10.0371 -0.0191854 0)
(10.0541 -0.0204419 0)
(10.0718 -0.0211871 0)
(10.0899 -0.0214152 0)
(10.1078 -0.0213527 0)
(10.1256 -0.0211118 0)
(10.143 -0.020741 0)
(10.1601 -0.0202587 0)
(10.1768 -0.0196663 0)
(10.1932 -0.0189347 0)
(10.2093 -0.0179884 0)
(10.2252 -0.0166944 0)
(10.2412 -0.0148068 0)
(10.2578 -0.0119155 0)
(10.2755 -0.00739945 0)
(10.2961 -0.000154961 0)
(10.3192 0.0105472 0)
(10.3578 0.0277459 0)
(10.0058 -0.0139881 0)
(10.0211 -0.0196658 0)
(10.0386 -0.0212623 0)
(10.0555 -0.0226227 0)
(10.0731 -0.0234251 0)
(10.0911 -0.0236592 0)
(10.1089 -0.0235768 0)
(10.1265 -0.023302 0)
(10.1437 -0.0228889 0)
(10.1605 -0.0223599 0)
(10.177 -0.021721 0)
(10.1931 -0.0209486 0)
(10.2088 -0.0199742 0)
(10.2245 -0.018676 0)
(10.2402 -0.0168266 0)
(10.2565 -0.0140464 0)
(10.2739 -0.00976895 0)
(10.2944 -0.00294953 0)
(10.3177 0.00695885 0)
(10.3562 0.0233158 0)
(10.0064 -0.0157714 0)
(10.0224 -0.0217502 0)
(10.0401 -0.0233424 0)
(10.057 -0.0247982 0)
(10.0745 -0.0256503 0)
(10.0922 -0.0258831 0)
(10.1098 -0.0257746 0)
(10.127 -0.0254609 0)
(10.1439 -0.0250011 0)
(10.1604 -0.0244216 0)
(10.1764 -0.023733 0)
(10.1921 -0.0229171 0)
(10.2074 -0.0219127 0)
(10.2225 -0.0206102 0)
(10.2377 -0.018801 0)
(10.2535 -0.0161376 0)
(10.2706 -0.0121076 0)
(10.2908 -0.00572913 0)
(10.3138 0.00338393 0)
(10.352 0.0189076 0)
(10.007 -0.0177153 0)
(10.0239 -0.0238924 0)
(10.0417 -0.0254146 0)
(10.0583 -0.0269524 0)
(10.0756 -0.0278461 0)
(10.093 -0.0280707 0)
(10.1102 -0.02793 0)
(10.1269 -0.0275716 0)
(10.1433 -0.0270594 0)
(10.1592 -0.0264239 0)
(10.1746 -0.0256804 0)
(10.1895 -0.0248163 0)
(10.2041 -0.0237781 0)
(10.2184 -0.0224687 0)
(10.2329 -0.0206996 0)
(10.2479 -0.0181562 0)
(10.2642 -0.0143805 0)
(10.2836 -0.00845825 0)
(10.3062 -0.000139047 0)
(10.3436 0.0145526 0)
(10.0078 -0.0198382 0)
(10.0255 -0.026138 0)
(10.0432 -0.0274898 0)
(10.0594 -0.0290665 0)
(10.0762 -0.02998 0)
(10.093 -0.0301855 0)
(10.1095 -0.0300056 0)
(10.1255 -0.0295965 0)
(10.141 -0.0290256 0)
(10.1559 -0.0283275 0)
(10.1703 -0.0275219 0)
(10.1841 -0.0266028 0)
(10.1975 -0.0255242 0)
(10.2105 -0.0242029 0)
(10.2236 -0.0224705 0)
(10.2372 -0.0200474 0)
(10.2521 -0.0165292 0)
(10.2702 -0.0110768 0)
(10.2916 -0.00354492 0)
(10.3277 0.0102971 0)
(10.0085 -0.0219363 0)
(10.027 -0.0285028 0)
(10.0443 -0.0296881 0)
(10.0597 -0.0312374 0)
(10.0756 -0.0320969 0)
(10.0914 -0.0322335 0)
(10.1067 -0.0319826 0)
(10.1214 -0.0315005 0)
(10.1354 -0.0308531 0)
(10.1486 -0.0300766 0)
(10.1611 -0.0291945 0)
(10.1729 -0.0282064 0)
(10.1841 -0.0270745 0)
(10.1949 -0.0257296 0)
(10.2055 -0.0240244 0)
(10.2166 -0.0217161 0)
(10.2289 -0.0184535 0)
(10.2444 -0.0134831 0)
(10.2634 -0.00672884 0)
(10.2968 0.00621216 0)
(10.009 -0.0230539 0)
(10.0278 -0.0299224 0)
(10.0442 -0.031503 0)
(10.0581 -0.0332551 0)
(10.0723 -0.0340523 0)
(10.0861 -0.0340553 0)
(10.099 -0.0336723 0)
(10.111 -0.0330713 0)
(10.1219 -0.0323164 0)
(10.1318 -0.0314414 0)
(10.1406 -0.0304686 0)
(10.1484 -0.0294003 0)
(10.1553 -0.0282046 0)
(10.1614 -0.0268259 0)
(10.1672 -0.0251381 0)
(10.1731 -0.0229371 0)
(10.18 -0.0199252 0)
(10.1899 -0.0154491 0)
(10.2035 -0.00947225 0)
(10.2315 0.00244154 0)
(10.0087 -0.0257315 0)
(10.0266 -0.02981 0)
(10.0406 -0.0325829 0)
(10.0512 -0.0357358 0)
(10.0613 -0.0370843 0)
(10.0702 -0.0371004 0)
(10.0774 -0.0364614 0)
(10.0828 -0.0354916 0)
(10.0865 -0.0343412 0)
(10.0883 -0.033089 0)
(10.0885 -0.0317766 0)
(10.0868 -0.0304158 0)
(10.0836 -0.0289791 0)
(10.0789 -0.0274202 0)
(10.0731 -0.0256302 0)
(10.0669 -0.0234408 0)
(10.0611 -0.0206083 0)
(10.0579 -0.0165955 0)
(10.0586 -0.0113949 0)
(10.0741 -0.000813692 0)
(10.006 -0.0379947 0)
(10.0191 -0.020196 0)
(10.0245 -0.0152918 0)
(10.0243 -0.018792 0)
(10.0213 -0.0228743 0)
(10.0147 -0.0259694 0)
(10.0042 -0.0280165 0)
(9.98991 -0.0291406 0)
(9.97209 -0.0295063 0)
(9.95091 -0.0292857 0)
(9.92655 -0.0286208 0)
(9.89919 -0.0276254 0)
(9.86914 -0.0263556 0)
(9.83677 -0.0248476 0)
(9.80267 -0.0230682 0)
(9.7678 -0.0209375 0)
(9.73358 -0.0183134 0)
(9.70267 -0.014818 0)
(9.67707 -0.0105219 0)
(9.66855 -0.00198629 0)
(10.0013 -0.202544 0)
(9.98595 -0.174893 0)
(9.94597 -0.132632 0)
(9.89341 -0.101753 0)
(9.83289 -0.079439 0)
(9.7647 -0.0634199 0)
(9.69008 -0.0519382 0)
(9.61084 -0.0435981 0)
(9.5286 -0.0373885 0)
(9.4447 -0.0326228 0)
(9.36031 -0.0288272 0)
(9.27647 -0.0256906 0)
(9.19416 -0.0229781 0)
(9.11432 -0.0205392 0)
(9.03798 -0.018231 0)
(8.96641 -0.0159312 0)
(8.90122 -0.0135102 0)
(8.84514 -0.0106949 0)
(8.80003 -0.00758743 0)
(8.77763 -0.00190093 0)
(9.82437 0.584284 0)
(9.64586 0.320581 0)
(9.41705 0.184767 0)
(9.18344 0.106787 0)
(8.95888 0.0607453 0)
(8.74614 0.0332251 0)
(8.54672 0.0167274 0)
(8.36153 0.00691567 0)
(8.19072 0.001205 0)
(8.03396 -0.00198525 0)
(7.89076 -0.00362423 0)
(7.76058 -0.00432218 0)
(7.64289 -0.00444517 0)
(7.53725 -0.00423141 0)
(7.44336 -0.00380896 0)
(7.36122 -0.00324877 0)
(7.29119 -0.00257797 0)
(7.23474 -0.00171465 0)
(7.19269 -0.000803587 0)
(7.17476 0.00110975 0)
(6.67334 -0.0715506 0)
(6.39965 -0.0616499 0)
(6.14662 -0.029613 0)
(5.92076 0.00735306 0)
(5.7231 0.0418298 0)
(5.5674 0.0742352 0)
(5.45315 0.105394 0)
(5.37368 0.13527 0)
(5.32109 0.163362 0)
(5.28854 0.18911 0)
(5.27099 0.212092 0)
(5.26511 0.232089 0)
(5.26871 0.249073 0)
(5.28039 0.263135 0)
(5.29914 0.274397 0)
(5.32412 0.282976 0)
(5.35457 0.288971 0)
(5.38979 0.292446 0)
(5.42906 0.293449 0)
(5.47172 0.292007 0)
(5.51711 0.288143 0)
(5.56465 0.28187 0)
(5.61382 0.273204 0)
(5.66417 0.262158 0)
(5.71537 0.248745 0)
(5.76717 0.232978 0)
(5.81941 0.214867 0)
(5.87207 0.194419 0)
(5.92518 0.171642 0)
(5.97891 0.146538 0)
(6.03354 0.119113 0)
(6.08942 0.0894054 0)
(6.14686 0.0571378 0)
(6.2069 0.0212923 0)
(6.27142 -0.0188716 0)
(6.33864 -0.0632695 0)
(6.40906 -0.112126 0)
(6.48307 -0.165861 0)
(6.56106 -0.22494 0)
(6.64342 -0.289877 0)
(6.73051 -0.361224 0)
(6.82262 -0.439558 0)
(6.91995 -0.525456 0)
(7.02257 -0.619461 0)
(7.13035 -0.722034 0)
(7.24293 -0.83349 0)
(7.35965 -0.953935 0)
(7.47951 -1.08318 0)
(7.60108 -1.22067 0)
(7.7225 -1.36539 0)
(7.84139 -1.5158 0)
(7.9549 -1.66983 0)
(8.05975 -1.8248 0)
(8.15235 -1.97757 0)
(8.22893 -2.12458 0)
(8.28587 -2.2621 0)
(8.31994 -2.3864 0)
(8.32869 -2.49411 0)
(8.3107 -2.5824 0)
(8.26582 -2.64926 0)
(8.19522 -2.69357 0)
(8.10134 -2.71518 0)
(7.98766 -2.71479 0)
(7.85839 -2.69388 0)
(7.7181 -2.65446 0)
(7.57138 -2.59892 0)
(7.42245 -2.52982 0)
(7.27495 -2.44966 0)
(7.13183 -2.36082 0)
(6.99525 -2.26544 0)
(6.86673 -2.1654 0)
(6.74722 -2.06231 0)
(6.63719 -1.95756 0)
(6.53676 -1.85229 0)
(6.4458 -1.74743 0)
(6.36397 -1.64376 0)
(6.29082 -1.54186 0)
(6.2258 -1.44221 0)
(6.16831 -1.34515 0)
(6.11774 -1.25094 0)
(6.07349 -1.15978 0)
(6.03496 -1.0718 0)
(6.00158 -0.987083 0)
(5.97283 -0.905697 0)
(5.94821 -0.827684 0)
(5.92725 -0.753072 0)
(5.90952 -0.681879 0)
(5.89462 -0.61412 0)
(5.88216 -0.549807 0)
(5.8718 -0.488948 0)
(5.86317 -0.431551 0)
(5.85595 -0.377623 0)
(5.84979 -0.327163 0)
(5.84438 -0.28016 0)
(5.83941 -0.236583 0)
(5.8346 -0.196379 0)
(5.82973 -0.159471 0)
(5.82459 -0.125752 0)
(5.81905 -0.0950952 0)
(5.81302 -0.0673508 0)
(5.80643 -0.0423577 0)
(5.79926 -0.0199478 0)
(5.79153 6.64273e-05 0)
(5.78324 0.0178699 0)
(5.77445 0.0336183 0)
(5.76522 0.0474636 0)
(5.75561 0.059554 0)
(5.74571 0.0700337 0)
(5.73557 0.0790407 0)
(5.72526 0.0867068 0)
(5.71485 0.0931561 0)
(5.70439 0.098506 0)
(5.69395 0.102866 0)
(5.68355 0.106338 0)
(5.67325 0.109018 0)
(5.66307 0.110994 0)
(5.65304 0.112348 0)
(5.6432 0.113156 0)
(5.63354 0.113488 0)
(5.6241 0.113409 0)
(5.61487 0.112977 0)
(5.60586 0.112248 0)
(5.59708 0.11127 0)
(5.58853 0.110091 0)
(5.58021 0.108752 0)
(5.5721 0.107292 0)
(5.56421 0.105747 0)
(5.55653 0.104149 0)
(5.54905 0.102528 0)
(5.54177 0.100913 0)
(5.53467 0.0993286 0)
(5.52775 0.0978005 0)
(5.521 0.096351 0)
(5.51441 0.0950023 0)
(5.50796 0.0937751 0)
(5.50166 0.09269 0)
(5.49548 0.0917668 0)
(5.48943 0.0910256 0)
(5.4835 0.0904861 0)
(5.47767 0.0901691 0)
(5.47195 0.0900949 0)
(5.46631 0.0902857 0)
(5.46077 0.0907639 0)
(5.45531 0.0915537 0)
(5.44992 0.0926803 0)
(5.44461 0.0941712 0)
(5.43936 0.0960555 0)
(5.43417 0.0983649 0)
(5.42905 0.101133 0)
(5.42399 0.104398 0)
(5.41898 0.108199 0)
(5.41402 0.11258 0)
(5.40912 0.117589 0)
(5.40427 0.123277 0)
(5.39948 0.129701 0)
(5.39474 0.136924 0)
(5.39006 0.145011 0)
(5.38544 0.154037 0)
(5.38088 0.164083 0)
(5.3764 0.175235 0)
(5.37199 0.18759 0)
(5.36767 0.201253 0)
(5.36344 0.216337 0)
(5.35931 0.232968 0)
(5.3553 0.251283 0)
(5.35141 0.27143 0)
(5.34767 0.293573 0)
(5.34409 0.317892 0)
(5.34068 0.344581 0)
(5.33747 0.373856 0)
(5.33447 0.405952 0)
(5.3317 0.441128 0)
(5.32918 0.479671 0)
(5.32692 0.521894 0)
(5.32495 0.568146 0)
(5.32327 0.618815 0)
(5.32188 0.674332 0)
(5.32079 0.735182 0)
(5.31997 0.80191 0)
(5.31941 0.875135 0)
(5.31904 0.955566 0)
(5.31881 1.04403 0)
(5.3186 1.14147 0)
(5.3183 1.24906 0)
(5.31773 1.36817 0)
(5.31667 1.50054 0)
(5.31488 1.64836 0)
(5.31203 1.81449 0)
(5.30766 2.00266 0)
(5.3011 2.21767 0)
(5.29119 2.46545 0)
(5.27596 2.75304 0)
(5.25256 3.08859 0)
(5.21634 3.48234 0)
(5.16282 3.94838 0)
(5.07865 4.50909 0)
(4.9694 5.19392 0)
(4.75305 6.06044 0)
(4.69708 7.13552 0)
(3.94799 9.43511 0)
(8.42818 0.0764931 0)
(8.33001 0.110969 0)
(8.21089 0.136246 0)
(8.05958 0.156578 0)
(7.88125 0.174207 0)
(7.68678 0.189491 0)
(7.48711 0.202987 0)
(7.29262 0.215301 0)
(7.11173 0.226943 0)
(6.94967 0.238202 0)
(6.80857 0.249085 0)
(6.68832 0.259338 0)
(6.58749 0.268555 0)
(6.5042 0.27638 0)
(6.43656 0.282488 0)
(6.38286 0.286672 0)
(6.34163 0.288828 0)
(6.31162 0.288922 0)
(6.29176 0.286953 0)
(6.28104 0.282928 0)
(6.27855 0.27685 0)
(6.28341 0.268711 0)
(6.29479 0.258492 0)
(6.3119 0.246165 0)
(6.33404 0.231696 0)
(6.36057 0.215049 0)
(6.39096 0.196184 0)
(6.42479 0.175056 0)
(6.46176 0.15162 0)
(6.50172 0.125825 0)
(6.54469 0.0976194 0)
(6.5908 0.0669662 0)
(6.64025 0.0333479 0)
(6.69523 -0.00416911 0)
(6.75433 -0.0458256 0)
(6.81748 -0.0916875 0)
(6.88489 -0.142133 0)
(6.95679 -0.197594 0)
(7.03342 -0.258539 0)
(7.115 -0.32547 0)
(7.20173 -0.398919 0)
(7.29373 -0.479425 0)
(7.391 -0.567514 0)
(7.49339 -0.663655 0)
(7.60052 -0.768213 0)
(7.71176 -0.881384 0)
(7.82614 -1.00313 0)
(7.94228 -1.13309 0)
(8.0584 -1.27052 0)
(8.17221 -1.4142 0)
(8.28093 -1.5624 0)
(8.38134 -1.71284 0)
(8.46987 -1.86272 0)
(8.54273 -2.00882 0)
(8.5962 -2.14762 0)
(8.6269 -2.27555 0)
(8.63217 -2.38921 0)
(8.61037 -2.48565 0)
(8.56112 -2.56259 0)
(8.48542 -2.61857 0)
(8.38558 -2.65301 0)
(8.26502 -2.66619 0)
(8.12797 -2.65914 0)
(7.97908 -2.63346 0)
(7.82303 -2.59121 0)
(7.66418 -2.53465 0)
(7.50631 -2.46606 0)
(7.35246 -2.38768 0)
(7.20496 -2.30156 0)
(7.06546 -2.20955 0)
(6.93501 -2.11328 0)
(6.8142 -2.01419 0)
(6.70328 -1.91351 0)
(6.60219 -1.81226 0)
(6.51067 -1.71131 0)
(6.42831 -1.61135 0)
(6.3546 -1.51295 0)
(6.28896 -1.41655 0)
(6.2308 -1.32249 0)
(6.17949 -1.23103 0)
(6.13442 -1.14237 0)
(6.09501 -1.05664 0)
(6.06068 -0.973948 0)
(6.03092 -0.894373 0)
(6.00522 -0.81797 0)
(5.98313 -0.744782 0)
(5.96422 -0.674843 0)
(5.94809 -0.608178 0)
(5.93438 -0.54481 0)
(5.92273 -0.484754 0)
(5.91284 -0.428023 0)
(5.90437 -0.374626 0)
(5.89702 -0.324566 0)
(5.89051 -0.277834 0)
(5.88455 -0.23441 0)
(5.87887 -0.194253 0)
(5.87326 -0.1573 0)
(5.86751 -0.123465 0)
(5.86148 -0.092638 0)
(5.85505 -0.0646888 0)
(5.84815 -0.0394719 0)
(5.84075 -0.0168327 0)
(5.83285 0.00341112 0)
(5.82442 0.0214301 0)
(5.81553 0.0373729 0)
(5.80623 0.0513863 0)
(5.79657 0.0636169 0)
(5.78662 0.0742082 0)
(5.77645 0.0832988 0)
(5.76612 0.0910212 0)
(5.7557 0.097502 0)
(5.74523 0.10286 0)
(5.73478 0.107208 0)
(5.72438 0.110651 0)
(5.71408 0.113285 0)
(5.70391 0.115203 0)
(5.69389 0.116489 0)
(5.68405 0.11722 0)
(5.67441 0.117468 0)
(5.66498 0.117299 0)
(5.65577 0.116776 0)
(5.64678 0.115952 0)
(5.63802 0.11488 0)
(5.62949 0.113607 0)
(5.62118 0.112175 0)
(5.61309 0.110625 0)
(5.60522 0.108991 0)
(5.59756 0.107307 0)
(5.59009 0.105604 0)
(5.58282 0.10391 0)
(5.57574 0.102251 0)
(5.56882 0.100651 0)
(5.56208 0.0991339 0)
(5.55549 0.0977212 0)
(5.54904 0.0964338 0)
(5.54274 0.095292 0)
(5.53656 0.0943158 0)
(5.53051 0.0935247 0)
(5.52457 0.0929387 0)
(5.51875 0.092578 0)
(5.51302 0.0924632 0)
(5.50739 0.0926156 0)
(5.50184 0.0930579 0)
(5.49639 0.0938138 0)
(5.49101 0.0949086 0)
(5.48571 0.0963692 0)
(5.48048 0.0982246 0)
(5.47533 0.100506 0)
(5.47025 0.103248 0)
(5.46523 0.106487 0)
(5.46028 0.110262 0)
(5.4554 0.114617 0)
(5.45059 0.1196 0)
(5.44585 0.125262 0)
(5.44119 0.131659 0)
(5.4366 0.138852 0)
(5.4321 0.14691 0)
(5.42769 0.155904 0)
(5.42337 0.165914 0)
(5.41915 0.177028 0)
(5.41506 0.189341 0)
(5.41108 0.202958 0)
(5.40725 0.217991 0)
(5.40357 0.234566 0)
(5.40006 0.252817 0)
(5.39674 0.272895 0)
(5.39362 0.294961 0)
(5.39074 0.319193 0)
(5.38812 0.345788 0)
(5.38577 0.374959 0)
(5.38374 0.406941 0)
(5.38204 0.441994 0)
(5.38071 0.480403 0)
(5.37978 0.522483 0)
(5.37927 0.568584 0)
(5.37922 0.619094 0)
(5.37965 0.674449 0)
(5.38057 0.735134 0)
(5.382 0.8017 0)
(5.38394 0.874772 0)
(5.38639 0.955068 0)
(5.38931 1.04341 0)
(5.39268 1.14079 0)
(5.39642 1.24834 0)
(5.40047 1.36748 0)
(5.40472 1.49995 0)
(5.40908 1.64795 0)
(5.41344 1.81437 0)
(5.41765 2.00298 0)
(5.42148 2.21869 0)
(5.42442 2.46766 0)
(5.42548 2.75722 0)
(5.42317 3.09592 0)
(5.415 3.49439 0)
(5.40006 3.96726 0)
(5.37128 4.53701 0)
(5.34718 5.23513 0)
(5.27414 6.10577 0)
(5.44475 7.1861 0)
(5.25829 8.91405 0)
(9.37678 0.0880524 0)
(9.32368 0.118444 0)
(9.26976 0.148747 0)
(9.20376 0.180862 0)
(9.12152 0.21328 0)
(9.02114 0.242989 0)
(8.90121 0.268261 0)
(8.7626 0.288478 0)
(8.60898 0.303694 0)
(8.44598 0.314406 0)
(8.28001 0.321357 0)
(8.11709 0.325334 0)
(7.96211 0.327025 0)
(7.81842 0.326967 0)
(7.68795 0.325453 0)
(7.57145 0.322597 0)
(7.4689 0.318391 0)
(7.37986 0.312766 0)
(7.30367 0.305637 0)
(7.2396 0.29693 0)
(7.18693 0.286591 0)
(7.14495 0.274579 0)
(7.11294 0.260854 0)
(7.0902 0.245375 0)
(7.07605 0.228086 0)
(7.0698 0.208923 0)
(7.07082 0.187806 0)
(7.0785 0.164645 0)
(7.09236 0.139337 0)
(7.11199 0.111766 0)
(7.13721 0.0817926 0)
(7.1679 0.0492034 0)
(7.20435 0.0133227 0)
(7.24843 -0.0264146 0)
(7.29785 -0.070061 0)
(7.35284 -0.11793 0)
(7.41342 -0.170435 0)
(7.47963 -0.228017 0)
(7.55149 -0.291142 0)
(7.62903 -0.360304 0)
(7.7122 -0.436007 0)
(7.80091 -0.51875 0)
(7.89489 -0.608995 0)
(7.99372 -0.707126 0)
(8.09673 -0.813399 0)
(8.20294 -0.927876 0)
(8.311 -1.05036 0)
(8.41915 -1.18031 0)
(8.52517 -1.31677 0)
(8.62636 -1.45834 0)
(8.71954 -1.60308 0)
(8.80119 -1.74856 0)
(8.86754 -1.8919 0)
(8.91483 -2.02989 0)
(8.93963 -2.15917 0)
(8.93916 -2.27645 0)
(8.91163 -2.37876 0)
(8.85654 -2.4637 0)
(8.77475 -2.52955 0)
(8.66845 -2.5754 0)
(8.54101 -2.60113 0)
(8.3966 -2.60735 0)
(8.23986 -2.59525 0)
(8.07547 -2.5665 0)
(7.90781 -2.523 0)
(7.74068 -2.46678 0)
(7.57719 -2.39983 0)
(7.41973 -2.32406 0)
(7.27004 -2.24125 0)
(7.12929 -2.15299 0)
(6.99821 -2.06076 0)
(6.87712 -1.96581 0)
(6.76609 -1.86927 0)
(6.66494 -1.77207 0)
(6.57334 -1.67502 0)
(6.49083 -1.57876 0)
(6.41689 -1.48383 0)
(6.35091 -1.39065 0)
(6.29229 -1.29955 0)
(6.24043 -1.2108 0)
(6.19471 -1.1246 0)
(6.15455 -1.04109 0)
(6.1194 -0.960395 0)
(6.08873 -0.882602 0)
(6.06206 -0.807784 0)
(6.03892 -0.735998 0)
(6.01891 -0.66729 0)
(6.00163 -0.601701 0)
(5.98672 -0.539263 0)
(5.97385 -0.480003 0)
(5.96272 -0.42394 0)
(5.95302 -0.371088 0)
(5.94448 -0.321452 0)
(5.93683 -0.27503 0)
(5.92981 -0.231805 0)
(5.92319 -0.191747 0)
(5.91675 -0.154805 0)
(5.91029 -0.120906 0)
(5.90367 -0.0899593 0)
(5.89676 -0.0618493 0)
(5.88949 -0.0364467 0)
(5.88178 -0.0136088 0)
(5.87365 0.00683981 0)
(5.86505 0.0250545 0)
(5.85602 0.0411753 0)
(5.84662 0.0553444 0)
(5.83688 0.0677055 0)
(5.82688 0.0784007 0)
(5.81668 0.0875686 0)
(5.80632 0.0953426 0)
(5.79588 0.101851 0)
(5.78541 0.107214 0)
(5.77496 0.111547 0)
(5.76457 0.114958 0)
(5.75427 0.117545 0)
(5.74411 0.119403 0)
(5.73412 0.120618 0)
(5.7243 0.12127 0)
(5.71469 0.121433 0)
(5.70528 0.121176 0)
(5.6961 0.120559 0)
(5.68714 0.119642 0)
(5.67841 0.118475 0)
(5.66991 0.117108 0)
(5.66163 0.115584 0)
(5.65358 0.113943 0)
(5.64573 0.112221 0)