/*--------------------------------*- C++ -*----------------------------------*\
| =========                 |                                                 |
| \\      /  F ield         | OpenFOAM: The Open Source CFD Toolbox           |
|  \\    /   O peration     | Version:  2.4.0                                 |
|   \\  /    A nd           | Web:      www.OpenFOAM.org                      |
|    \\/     M anipulation  |                                                 |
\*---------------------------------------------------------------------------*/
FoamFile
{
    version     2.0;
    format      ascii;
    class       volScalarField;
    location    "0.152";
    object      nuSgs;
}
// * * * * * * * * * * * * * * * * * * * * * * * * * * * * * * * * * * * * * //

dimensions      [0 2 -1 0 0 0 0];

internalField   nonuniform List<scalar> 
4400
(
0.00205095
0.00193799
0.00169421
0.00153096
0.0014335
0.00135988
0.00133976
0.00129407
0.00128564
0.00124039
0.0013937
0.00173031
0.00172381
0.00166776
0.00159031
0.00151132
0.0014902
0.00143579
0.00142212
0.00142443
0.000714802
0.00118496
0.0013625
0.0014146
0.00140807
0.00136859
0.00135643
0.00131721
0.0013011
0.0013135
0.000267245
0.000649106
0.000866417
0.00100757
0.00109174
0.00110569
0.00112645
0.00112063
0.00111261
0.00112244
8.67967e-05
0.000269339
0.000424325
0.000567806
0.000696972
0.000764715
0.000816783
0.000854853
0.000869484
0.000882862
2.53024e-05
8.96974e-05
0.000155734
0.000229692
0.000329786
0.000424473
0.000467343
0.000543058
0.000576385
0.00060978
7.72805e-06
2.66113e-05
4.53126e-05
6.99119e-05
0.000107876
0.000169169
0.000198256
0.000260455
0.000286068
0.000340518
4.22612e-06
1.11084e-05
1.46174e-05
1.913e-05
2.8295e-05
4.6641e-05
5.73663e-05
8.63383e-05
9.80508e-05
0.000136332
3.88804e-06
7.86396e-06
9.87681e-06
1.03225e-05
1.12677e-05
1.36082e-05
1.46058e-05
2.11235e-05
2.35034e-05
3.32633e-05
3.87084e-06
7.29352e-06
8.60232e-06
9.11518e-06
9.64147e-06
9.94235e-06
9.99261e-06
1.02415e-05
1.03734e-05
1.07029e-05
3.83484e-06
7.43943e-06
8.61043e-06
8.85566e-06
9.44858e-06
1.01402e-05
1.03911e-05
1.04131e-05
1.0908e-05
1.23358e-05
3.87319e-06
7.95374e-06
8.45506e-06
9.48522e-06
1.09336e-05
1.26907e-05
1.65677e-05
1.96089e-05
2.69067e-05
3.91352e-05
4.24698e-06
1.03862e-05
1.32427e-05
1.93852e-05
2.85673e-05
4.2575e-05
6.07923e-05
8.1574e-05
0.00010651
0.000147611
7.86419e-06
2.58098e-05
4.34717e-05
7.33261e-05
0.000110738
0.000161645
0.000204037
0.000260981
0.000299555
0.000383865
2.57856e-05
8.66403e-05
0.000151092
0.000239328
0.000335806
0.000411817
0.000484505
0.00054656
0.00058455
0.00066918
8.80588e-05
0.000257857
0.000426046
0.000573567
0.000695823
0.000765259
0.000825396
0.000858549
0.000881044
0.0009297
0.000270763
0.000642893
0.00087
0.00101015
0.0010887
0.00111143
0.00112737
0.00112426
0.00112614
0.00113619
0.000722856
0.00117855
0.00136583
0.00141427
0.00140638
0.00137468
0.00135209
0.00131812
0.00130758
0.00129196
0.00139658
0.00172619
0.00172557
0.00166689
0.00158808
0.00151779
0.00147898
0.00143206
0.00141373
0.0013713
0.00205251
0.00193469
0.00169773
0.00152807
0.00143066
0.00136326
0.00132601
0.00128157
0.00125794
0.00118781
0.000547842
0.000421378
0.000336574
0.000303503
0.000280428
0.000242537
0.000227959
0.000213128
0.000211579
0.00022741
0.000236249
0.000263716
0.000294513
0.000306466
0.000306833
0.000298934
0.000267462
0.000238382
0.000213751
0.000202991
0.000203017
0.000204817
0.000198709
0.000178043
0.000149998
0.000110951
8.12156e-05
6.56646e-05
6.5153e-05
7.60341e-05
0.000120467
0.000193177
0.000209704
0.000207631
0.000197423
0.000185678
0.000184746
0.000185022
0.000182395
0.000177273
0.000178675
0.000179826
0.000183635
0.0001932
0.000187769
0.000156119
0.000125677
0.000110624
9.95825e-05
9.29932e-05
9.20027e-05
9.2542e-05
9.66054e-05
0.000109025
0.000145943
0.000171111
0.000170967
0.000168752
0.000185197
0.000201099
0.000203528
0.00018783
0.000152899
0.000124915
0.00010491
9.72356e-05
9.73818e-05
0.000100461
0.000110006
0.000132832
0.000190899
0.000208524
0.00021004
0.000200173
0.000161569
0.000133197
0.000112744
0.000104928
9.63447e-05
8.99356e-05
8.93855e-05
9.43442e-05
0.000112758
0.000119102
0.000118887
0.000111046
0.000106793
0.000108884
0.000109173
9.88528e-05
9.67959e-05
0.000107278
0.00011554
0.000111923
0.000105619
0.000107327
0.000120628
0.000135653
0.000196835
0.000286988
0.000678614
0.000574624
0.000496385
0.000449506
0.000418775
0.000386186
0.000377089
0.000347745
0.000301265
0.000304762
0.00030232
0.000312063
0.000314024
0.000311284
0.000302152
0.000277538
0.000240367
0.000203891
0.000169188
0.00014766
0.000147432
0.000147047
0.000137938
0.000116363
9.21913e-05
6.94644e-05
5.74382e-05
5.52814e-05
6.09045e-05
8.83703e-05
0.000167555
0.000211632
0.000215705
0.000208775
0.00018779
0.000177121
0.000177595
0.000179543
0.000179129
0.000175858
0.000177061
0.000177314
0.000178541
0.000187384
0.000185535
0.000164241
0.000133227
0.000114568
0.000101223
9.43253e-05
9.38502e-05
9.49099e-05
0.000100192
0.000112954
0.000146568
0.00017526
0.000174949
0.000172222
0.000181797
0.000203692
0.000214032
0.000197279
0.000152861
0.000120494
0.000100192
9.29514e-05
9.28789e-05
9.57167e-05
0.000105555
0.000128
0.000184397
0.000203308
0.000203997
0.000198947
0.000175622
0.000142238
0.000118814
0.000104518
9.47906e-05
9.06234e-05
9.15462e-05
0.000102068
0.000116458
0.000119778
0.000118632
0.000110694
0.000107226
0.000107952
0.000108598
9.97291e-05
9.5937e-05
0.000100413
0.000114458
0.000111318
0.000112398
0.000109926
0.000143
0.000140933
0.000202285
0.00027587
0.000656028
0.000584418
0.000523725
0.000485211
0.000452427
0.000424656
0.000417091
0.000399876
0.000381054
0.000367356
0.000348137
0.000341831
0.000321263
0.000305172
0.000278808
0.000234616
0.000195282
0.000162121
0.000126609
9.86812e-05
9.28066e-05
9.06009e-05
8.50375e-05
7.66914e-05
6.0842e-05
4.97395e-05
4.81618e-05
4.96853e-05
6.04395e-05
0.000111037
0.0001973
0.000222314
0.000218592
0.000199522
0.00017627
0.000169153
0.000170003
0.000172522
0.000173185
0.000173299
0.000175172
0.000174382
0.000174046
0.00018125
0.000181639
0.00016997
0.0001404
0.000119014
0.000103404
9.69897e-05
9.70682e-05
9.90469e-05
0.000105547
0.000118257
0.000149916
0.000177176
0.000176176
0.000173574
0.000176475
0.000210376
0.000223301
0.000200103
0.000153302
0.000117019
9.59096e-05
8.8909e-05
8.89674e-05
9.18294e-05
0.000100792
0.000121297
0.000176188
0.000197252
0.000198581
0.000196129
0.00018421
0.000151487
0.000125337
0.000105954
9.57285e-05
9.37064e-05
9.65459e-05
0.000112184
0.000120333
0.000120864
0.000118482
0.000111366
0.000110093
0.000109599
0.000108688
9.89607e-05
9.47212e-05
9.64248e-05
0.000111107
0.000110292
0.000124742
0.000116683
0.000179091
0.000161329
0.000216405
0.000258944
0.00057812
0.000535629
0.000489786
0.000463597
0.000433264
0.000415971
0.000394387
0.00037165
0.000364614
0.000345502
0.000332931
0.000322717
0.00028918
0.000259648
0.00021889
0.000167254
0.000122801
9.77295e-05
8.00452e-05
6.46646e-05
5.9621e-05
5.68242e-05
5.43798e-05
5.23331e-05
4.4413e-05
4.33634e-05
4.50256e-05
4.8369e-05
7.1705e-05
0.000155553
0.000222874
0.000228931
0.000217359
0.000189851
0.000172389
0.000164469
0.000164143
0.00016532
0.000167821
0.000170277
0.000173297
0.000171536
0.000169696
0.000175413
0.000177122
0.000170597
0.00014572
0.000122232
0.000105554
0.000101464
0.000102359
0.000105318
0.000112146
0.000124029
0.000155737
0.000180238
0.000177507
0.000173963
0.000176381
0.000222319
0.000225796
0.000197984
0.000153499
0.000114846
9.27217e-05
8.60192e-05
8.59866e-05
8.88893e-05
9.81093e-05
0.000117132
0.000167944
0.000191847
0.000192898
0.000192224
0.000184796
0.000157863
0.000132129
0.00010911
0.000100403
9.99677e-05
0.000106834
0.000119843
0.000121755
0.000121359
0.000118182
0.000113569
0.000114465
0.000114719
0.000110232
9.64195e-05
9.19841e-05
9.30229e-05
0.00010515
0.000108413
0.000127081
0.000123102
0.000160751
0.000166431
0.000205689
0.000247956
0.000463725
0.000439672
0.000412595
0.000396895
0.000373056
0.000365142
0.000345136
0.000324564
0.000315182
0.000282443
0.000266427
0.000250557
0.000213122
0.000166547
0.000128422
9.73707e-05
7.20219e-05
5.91065e-05
5.13399e-05
4.6014e-05
4.37721e-05
4.10875e-05
4.16217e-05
4.11196e-05
3.93373e-05
4.1803e-05
4.45727e-05
5.27968e-05
9.66447e-05
0.000199733
0.000235316
0.000231307
0.000206176
0.000185077
0.000170858
0.000160261
0.000158398
0.000159414
0.000162102
0.000167882
0.000171841
0.000170085
0.000166168
0.000170076
0.000172783
0.000169332
0.000150307
0.000125186
0.000109095
0.000107832
0.000110414
0.000113385
0.000119375
0.000130485
0.000162041
0.000182924
0.000179476
0.000173681
0.000176445
0.000225264
0.000226688
0.000192449
0.000154611
0.00011442
9.0611e-05
8.39141e-05
8.38554e-05
8.67207e-05
9.59278e-05
0.000114839
0.000161386
0.000188083
0.000189299
0.000188651
0.000183289
0.000160551
0.000143472
0.00011754
0.000113612
0.000114137
0.000117861
0.00012324
0.000122836
0.000121663
0.00011886
0.000117938
0.000119722
0.000120472
0.000112148
9.68437e-05
9.14053e-05
9.1374e-05
9.70818e-05
0.000103657
0.000142431
0.000139828
0.000210404
0.000183127
0.000195965
0.000224965
0.000324601
0.000309972
0.000297269
0.000285123
0.000275957
0.000273685
0.000258686
0.000246519
0.000233629
0.00020019
0.000176129
0.000149706
0.00011967
8.95654e-05
6.88581e-05
5.3843e-05
4.40883e-05
4.07778e-05
3.97621e-05
4.01925e-05
3.9653e-05
3.81375e-05
3.91049e-05
3.82954e-05
3.88547e-05
4.3062e-05
4.82414e-05
6.56395e-05
0.000133985
0.000231653
0.000242085
0.000227629
0.000196652
0.000182323
0.000169995
0.000156063
0.000152582
0.00015356
0.000157204
0.000165719
0.000171757
0.000170039
0.000164241
0.000166259
0.000168844
0.000167131
0.000156976
0.000129378
0.000117012
0.000118215
0.00012083
0.000122447
0.000127058
0.000137206
0.000167595
0.000184868
0.000181587
0.000172097
0.000175602
0.000226598
0.000228384
0.000189818
0.000155772
0.00011456
8.95491e-05
8.3106e-05
8.30527e-05
8.52411e-05
9.28366e-05
0.000110725
0.000160003
0.000182028
0.000187104
0.000185305
0.000179331
0.000165013
0.000159234
0.000139841
0.000131847
0.000124071
0.000123473
0.000123882
0.000123321
0.000121258
0.000121775
0.000121986
0.000124916
0.000125461
0.000115356
9.78401e-05
9.39597e-05
9.24533e-05
9.35122e-05
9.98402e-05
0.000126455
0.000142419
0.000234924
0.000212046
0.000246875
0.00023391
0.00018218
0.000175288
0.00016759
0.00015803
0.00015818
0.000157801
0.000149586
0.000142502
0.000128369
0.000108962
8.82103e-05
7.25328e-05
5.68329e-05
4.35917e-05
3.70319e-05
3.47962e-05
3.54865e-05
3.70517e-05
3.92907e-05
4.18411e-05
4.17723e-05
4.21426e-05
4.24004e-05
4.26778e-05
4.61253e-05
5.27626e-05
6.07556e-05
8.69721e-05
0.000182639
0.000246492
0.000244068
0.000217096
0.000191697
0.000180797
0.000169373
0.000154603
0.000149048
0.000149533
0.000152969
0.000164031
0.000172276
0.000170626
0.000163014
0.000163007
0.000165177
0.000164456
0.000159789
0.000140104
0.000131484
0.000131758
0.000130748
0.000131103
0.000134875
0.000144529
0.000174098
0.000187069
0.000182706
0.000170201
0.000174492
0.00022888
0.000233904
0.00019071
0.000154224
0.000113536
8.86506e-05
8.27982e-05
8.26157e-05
8.50723e-05
9.26823e-05
0.000109162
0.000159811
0.00017672
0.000182235
0.000181107
0.000177188
0.000169552
0.000167028
0.000153356
0.000141827
0.000128769
0.000126279
0.000125332
0.000125231
0.000123452
0.000125463
0.000126279
0.00013193
0.000132052
0.000118924
9.92661e-05
9.86955e-05
9.51614e-05
9.72263e-05
9.88895e-05
0.000109254
0.000139686
0.000178329
0.000202424
0.000223573
0.000251798
7.34732e-05
7.19299e-05
6.81455e-05
6.37153e-05
6.44112e-05
6.42454e-05
6.30483e-05
5.94522e-05
5.37267e-05
4.47035e-05
3.50153e-05
2.82854e-05
2.58649e-05
2.72556e-05
2.95666e-05
3.32644e-05
4.00883e-05
4.86185e-05
5.53984e-05
5.66314e-05
5.74415e-05
5.93436e-05
5.9276e-05
6.0246e-05
6.61619e-05
7.05745e-05
7.8999e-05
0.000114783
0.000223213
0.000256901
0.000237081
0.000201858
0.000184652
0.000178081
0.000168769
0.000154595
0.000148263
0.000148317
0.0001524
0.0001645
0.000173982
0.000172141
0.000163623
0.000161206
0.000162618
0.000162618
0.000161254
0.000151039
0.000146281
0.000143874
0.000139801
0.000139671
0.000142811
0.000151655
0.000179545
0.000189197
0.000183203
0.000167302
0.000173031
0.000229512
0.000237564
0.000196457
0.000150785
0.000108328
8.76509e-05
8.34415e-05
8.3656e-05
8.7199e-05
9.41561e-05
0.000109424
0.000158613
0.000176812
0.000178888
0.000176103
0.000176403
0.000174146
0.000170389
0.000156695
0.000145191
0.000132162
0.000131548
0.000130693
0.000130219
0.000126858
0.000130407
0.000132011
0.000141539
0.000140052
0.000124426
0.000100754
0.000100993
9.87857e-05
0.000104788
0.000100955
0.000108354
0.000131599
0.000162186
0.000199899
0.000204777
0.000261822
1.83947e-05
1.81192e-05
1.70466e-05
1.66671e-05
1.67451e-05
1.78562e-05
1.79786e-05
1.73524e-05
1.53882e-05
1.5041e-05
1.55159e-05
1.71907e-05
2.19204e-05
3.37e-05
4.24088e-05
5.54282e-05
6.94205e-05
8.18851e-05
8.64523e-05
8.52845e-05
8.45712e-05
8.52404e-05
8.45163e-05
8.56708e-05
9.01731e-05
9.11426e-05
9.92784e-05
0.000149795
0.000254661
0.000260281
0.000217808
0.000187171
0.000178408
0.000173049
0.000165816
0.000154414
0.000150193
0.000149256
0.000153559
0.000166499
0.000177921
0.000174623
0.000164904
0.000160331
0.000161242
0.000162641
0.000162511
0.000157482
0.000155468
0.000152187
0.000147489
0.000147356
0.000150197
0.000158675
0.000185608
0.000191351
0.000181417
0.000162757
0.000170611
0.000228851
0.000237356
0.000210417
0.000148139
0.000104861
8.87327e-05
8.49953e-05
8.49614e-05
8.7915e-05
9.44108e-05
0.000109953
0.000157788
0.000177977
0.000179376
0.00017447
0.000176354
0.000174855
0.00016964
0.00015964
0.000150676
0.000140786
0.000141819
0.000140102
0.000134662
0.000130896
0.000135757
0.000139962
0.000152014
0.000147835
0.000129336
0.000103535
0.000100134
0.000101475
0.000107591
0.000102782
0.000121398
0.000132713
0.000152727
0.000190927
0.000204553
0.00025801
6.19322e-06
6.38877e-06
7.19192e-06
7.60878e-06
8.18874e-06
8.32853e-06
8.59926e-06
9.36196e-06
1.07543e-05
1.39347e-05
2.09922e-05
3.01777e-05
4.57244e-05
6.63118e-05
7.86055e-05
9.93365e-05
0.000115656
0.000124619
0.000125332
0.000121889
0.000118952
0.000118057
0.00011391
0.000113292
0.000111399
0.000110895
0.000122063
0.00019674
0.000269679
0.000257339
0.000195441
0.000174612
0.000172622
0.000170843
0.000161225
0.000151375
0.000154634
0.000152666
0.000157393
0.000170496
0.000184668
0.000178809
0.000167667
0.000160752
0.000161439
0.000163837
0.000163928
0.000160597
0.000161047
0.000159665
0.000155055
0.000154761
0.00015677
0.000165451
0.000191293
0.000193797
0.000177951
0.000158033
0.000168356
0.000223833
0.000236088
0.000233155
0.000150517
0.000108977
9.21856e-05
8.54747e-05
8.62043e-05
8.87199e-05
9.48963e-05
0.000109818
0.000157398
0.00017705
0.000182983
0.000175481
0.000176211
0.00017466
0.000167326
0.000165173
0.000160061
0.000152837
0.000150666
0.000142594
0.000135392
0.000135188
0.000144721
0.000156826
0.000165522
0.000157029
0.000132423
0.000105901
0.000100349
0.000101271
0.000108778
0.000105879
0.000111651
0.000132029
0.000148524
0.000189103
0.000197389
0.000234299
7.61073e-06
1.02877e-05
1.29214e-05
1.5884e-05
1.91548e-05
1.91064e-05
1.98897e-05
2.25328e-05
2.71359e-05
3.59847e-05
5.13962e-05
6.6203e-05
9.38276e-05
0.000112516
0.000133614
0.000157732
0.000169674
0.000173496
0.000172499
0.000165238
0.000161153
0.000156094
0.000143974
0.000138617
0.000133031
0.000134287
0.000151938
0.000237392
0.000276313
0.000244949
0.000185079
0.000166167
0.000170465
0.000171835
0.00016038
0.000149608
0.00015388
0.000153807
0.000161239
0.00017753
0.000197392
0.000182699
0.000168796
0.000160797
0.000162225
0.00016644
0.000166063
0.000164724
0.000166092
0.000165884
0.000162099
0.000160824
0.00016209
0.000173674
0.000197484
0.000196388
0.000172171
0.000152534
0.00016454
0.000217603
0.000243506
0.00025426
0.000161515
0.000134216
0.000103322
8.78688e-05
8.72751e-05
8.90939e-05
9.68321e-05
0.00011058
0.000158551
0.000170267
0.000182907
0.000180082
0.00017546
0.000172101
0.000168084
0.000166661
0.000161054
0.000155735
0.000145342
0.000139563
0.000138392
0.000141185
0.000163397
0.000179763
0.000184488
0.000167134
0.000144933
0.000110773
0.000106509
0.000102486
0.000106346
0.000106169
0.000110565
0.000129562
0.000148636
0.000189997
0.000192332
0.000204566
2.68448e-05
3.55004e-05
4.39682e-05
4.88722e-05
5.43102e-05
5.44115e-05
5.5866e-05
6.10174e-05
6.881e-05
8.67363e-05
0.000103245
0.000129928
0.000157393
0.000177167
0.000204862
0.000222687
0.000227756
0.000228308
0.000224737
0.00021218
0.000205581
0.000187818
0.000173095
0.000168622
0.000164964
0.000167742
0.000189652
0.000267265
0.000278251
0.000232656
0.000181659
0.000164334
0.000170194
0.00017905
0.0001651
0.00015142
0.000149131
0.00015479
0.000169027
0.000192021
0.000202591
0.000181865
0.000167938
0.000161179
0.000165183
0.000171413
0.000170299
0.000168918
0.000170365
0.00017027
0.000167285
0.000165
0.000166293
0.000183962
0.000203172
0.000197885
0.000163624
0.000146416
0.000160544
0.000215475
0.000273712
0.000264346
0.000179966
0.00017438
0.000117634
8.94674e-05
9.16746e-05
8.973e-05
0.000103347
0.000112703
0.000159493
0.00016612
0.000177508
0.000180257
0.000173474
0.000167793
0.000167106
0.000164346
0.000156496
0.000145024
0.000137164
0.000138112
0.000140919
0.000154126
0.000197831
0.000209274
0.000208928
0.000178912
0.000160653
0.000118369
0.000117643
0.000106189
0.000110569
0.000107552
0.000116108
0.000131762
0.000147772
0.000188846
0.00018872
0.000193117
9.2141e-05
0.000108939
0.000117961
0.000120678
0.000125191
0.00012515
0.000126927
0.000132828
0.000142508
0.000165571
0.000184484
0.000211682
0.000231945
0.000254138
0.000276031
0.000282286
0.000282532
0.000280023
0.000266501
0.000252612
0.000239923
0.000218017
0.000211699
0.000207647
0.000202216
0.000204162
0.000228181
0.00028198
0.000274238
0.000225761
0.000184172
0.000166211
0.000170971
0.00018459
0.000179984
0.00015655
0.000150922
0.000158689
0.000177401
0.000195846
0.000200031
0.000175946
0.00016509
0.000161775
0.000169453
0.000174637
0.000172964
0.000172756
0.000175516
0.000175245
0.000171404
0.000168434
0.000171685
0.000197972
0.000209155
0.000195849
0.000152277
0.000142317
0.00015974
0.000223506
0.000294456
0.000264949
0.000189766
0.000191771
0.000136782
9.35122e-05
0.000100973
9.22631e-05
0.000117055
0.00011731
0.000161352
0.000166777
0.000171526
0.000176721
0.000172181
0.00016642
0.000164033
0.000153913
0.000140457
0.000134183
0.000134007
0.000139241
0.000152806
0.000192934
0.000245242
0.000249472
0.000240948
0.000190268
0.000180597
0.000139943
0.000142037
0.000114879
0.000122635
0.000111447
0.000129372
0.000139492
0.000152428
0.000185525
0.000183323
0.000184623
0.000213919
0.0002224
0.000224824
0.000223938
0.000222948
0.000220682
0.000221743
0.000226259
0.000238303
0.000255642
0.000272222
0.000289959
0.000304747
0.000320985
0.000327379
0.000326268
0.000322148
0.000311419
0.000292667
0.000284561
0.000268358
0.000255115
0.00025123
0.000240479
0.000231392
0.000232663
0.000259365
0.000281482
0.000262589
0.000233721
0.000205505
0.000180199
0.000174528
0.000185463
0.000190237
0.000170934
0.000159873
0.00016784
0.000183495
0.000196865
0.00018064
0.000158266
0.000157575
0.000161739
0.000173861
0.000175585
0.00017498
0.000178418
0.000179545
0.000178988
0.000173888
0.000172529
0.00018252
0.000214308
0.000214785
0.000185923
0.00014277
0.000140412
0.000164991
0.000251574
0.000297229
0.000244633
0.000192246
0.000182998
0.000154922
0.000113537
0.000127147
9.82814e-05
0.000135299
0.000127459
0.00017127
0.000171838
0.000171979
0.000173924
0.000172014
0.000166835
0.000159154
0.00014485
0.000134805
0.000133281
0.000136927
0.000149315
0.000187281
0.000258173
0.000304501
0.000296508
0.00026979
0.000209597
0.000208314
0.00016591
0.000164151
0.000130102
0.000140453
0.000121055
0.000143507
0.000148574
0.00015817
0.000181683
0.00018131
0.000177838
0.000358887
0.000353465
0.000343994
0.000331499
0.000321092
0.000313172
0.00031272
0.000315846
0.000324408
0.000329723
0.000337818
0.000346275
0.000352399
0.000354309
0.000351871
0.000345115
0.00033607
0.000322547
0.000312969
0.000303009
0.000286916
0.000278943
0.00027008
0.000260203
0.000256842
0.000258408
0.000272737
0.000271975
0.000250197
0.000255258
0.000241798
0.000208948
0.000190441
0.000185029
0.000191763
0.000193642
0.000191588
0.00019156
0.000197256
0.000199069
0.000163688
0.000149556
0.000151664
0.000160794
0.000171167
0.000173692
0.000179564
0.000182729
0.000183516
0.000181826
0.00017682
0.000179034
0.00020754
0.000228805
0.000218206
0.000166605
0.000135078
0.00014015
0.000181597
0.000264212
0.000282801
0.000240189
0.000192939
0.000164088
0.000157888
0.000165252
0.000174426
0.000117884
0.000175827
0.000145456
0.000185156
0.000182581
0.000175897
0.000174077
0.000171279
0.000165272
0.000154891
0.000141942
0.000136643
0.000138426
0.000149235
0.000182968
0.000266074
0.000347364
0.000356766
0.000315876
0.000285316
0.000244348
0.000215607
0.000168615
0.000167624
0.000144887
0.000155884
0.000139512
0.000167689
0.000165893
0.000168016
0.00017762
0.000179732
0.000175374
0.000488206
0.000464219
0.000437408
0.000414548
0.000397358
0.000386521
0.000379977
0.000377852
0.000373853
0.000370829
0.000371641
0.000371474
0.00037011
0.000366596
0.000358103
0.000348798
0.00033937
0.000329494
0.00032013
0.000308452
0.000298842
0.000291595
0.000286431
0.000285167
0.000282847
0.000274861
0.000269396
0.000248954
0.000244065
0.000275691
0.000279599
0.000246963
0.000218802
0.000194302
0.000186771
0.000193475
0.000197697
0.000203092
0.000207813
0.00020214
0.000168571
0.000153896
0.000153432
0.000159826
0.000172465
0.000177495
0.000189334
0.000189009
0.000189214
0.000184768
0.000184419
0.000198992
0.000244291
0.000244436
0.000205338
0.00014692
0.000129667
0.000143051
0.000203831
0.00026445
0.000279056
0.000260931
0.000238585
0.000196191
0.00015668
0.000165737
0.000167063
0.000136984
0.000187796
0.000176035
0.00019249
0.000191274
0.00018239
0.000174912
0.00017202
0.000166517
0.000154459
0.000145108
0.000145179
0.000154616
0.000189123
0.000278333
0.000390039
0.000395834
0.000377155
0.000300616
0.000286341
0.000254401
0.000194371
0.000171503
0.000160534
0.000149569
0.000169142
0.000182532
0.000197641
0.000185397
0.000181772
0.000180309
0.00018149
0.00017677
0.000583589
0.000537461
0.000496688
0.000465755
0.000442767
0.000425941
0.000412454
0.000403243
0.000393951
0.000387658
0.000384723
0.000379235
0.000373128
0.000364899
0.000352416
0.000343901
0.000337925
0.000329107
0.000321215
0.000314869
0.000310296
0.000307523
0.000305763
0.000301744
0.000285633
0.000266056
0.000245692
0.000228229
0.000234657
0.00028568
0.000318443
0.000300253
0.000270799
0.000229056
0.000200708
0.000192832
0.000200573
0.000210996
0.000215893
0.000218658
0.000192334
0.000178534
0.000169046
0.000170705
0.000190892
0.000198626
0.00019979
0.000198192
0.000193493
0.00019479
0.000208209
0.000264495
0.000279709
0.000255457
0.000179635
0.000133766
0.00012756
0.00014991
0.000213945
0.000262217
0.000300712
0.00029879
0.000272811
0.000236266
0.000179886
0.000178346
0.000173495
0.000156132
0.000191407
0.00023393
0.000207011
0.000205524
0.000193774
0.000185473
0.000183504
0.000173838
0.000162293
0.00016058
0.000170034
0.000216364
0.000318273
0.000441855
0.000444882
0.000411645
0.000332999
0.000272947
0.000250992
0.000238873
0.000181366
0.000162465
0.000163406
0.000176924
0.000202319
0.000208664
0.000214013
0.000196941
0.000194589
0.000188232
0.000188063
0.000182759
0.000640582
0.000568187
0.000517634
0.000481976
0.000456485
0.000437226
0.00042271
0.000411079
0.000399999
0.000392578
0.000379848
0.000364411
0.000350224
0.000336496
0.000329778
0.000326801
0.000323421
0.00032099
0.000319328
0.00031639
0.000310935
0.000303184
0.000285667
0.000254942
0.000230586
0.000217979
0.000214517
0.000216513
0.00022405
0.000283469
0.000332914
0.000353291
0.000361407
0.000319706
0.000254563
0.000215768
0.00020613
0.000214838
0.000217653
0.000211578
0.00019863
0.000194304
0.000196543
0.000198069
0.00020873
0.000211526
0.000209691
0.00021113
0.000214699
0.000241234
0.000312966
0.000338984
0.000321161
0.000248415
0.000181961
0.000155634
0.000152957
0.000171427
0.000219956
0.000264117
0.000321612
0.000344595
0.000332291
0.000307446
0.000224485
0.000203642
0.000220107
0.000183439
0.000206258
0.000275684
0.000224423
0.000229664
0.000221805
0.000217319
0.00021385
0.000215026
0.00022305
0.000249638
0.000300356
0.000448178
0.000508411
0.000506487
0.000436931
0.000333327
0.000263167
0.000243506
0.00019037
0.000204229
0.000184522
0.000170486
0.00016813
0.000184392
0.000227776
0.000224592
0.000253789
0.000226899
0.00022506
0.000213694
0.000210188
0.000201967
0.00064571
0.00055989
0.000508968
0.000476671
0.000455069
0.000438963
0.000423717
0.000406371
0.000386206
0.000362123
0.000335102
0.000311326
0.000293643
0.000285071
0.000283369
0.000283284
0.000283809
0.000283726
0.000280651
0.000273043
0.000257566
0.000234071
0.000204944
0.000187733
0.000186922
0.000202397
0.000223883
0.000238755
0.000253874
0.000292129
0.000331579
0.000365214
0.000420892
0.000468107
0.000447443
0.000353512
0.000279676
0.000237469
0.000223633
0.000214226
0.000209912
0.000209281
0.000218821
0.00022718
0.000231311
0.000243875
0.000254375
0.000281503
0.000342673
0.000428088
0.000440896
0.000413059
0.000340898
0.00029937
0.000282597
0.000277714
0.000270808
0.000246985
0.000235689
0.000257186
0.000325035
0.000378542
0.000424425
0.000442708
0.000384059
0.00030947
0.000379506
0.00025759
0.000249765
0.00030612
0.000265179
0.000281649
0.000298137
0.000343864
0.000398884
0.000463908
0.000504702
0.000592785
0.000633046
0.000641274
0.000582976
0.000485192
0.000309711
0.000287987
0.000226861
0.000253263
0.000201921
0.00026472
0.000237656
0.000269891
0.000256604
0.000258618
0.000326881
0.000325398
0.000352145
0.000312677
0.000332435
0.00033222
0.000327987
0.000339387
0.000530138
0.000473378
0.000444608
0.000426643
0.000410737
0.000391347
0.000366398
0.000334846
0.000297629
0.000256931
0.000216034
0.000180734
0.000157053
0.000147192
0.000147831
0.000153843
0.000160051
0.000163542
0.000163289
0.000159255
0.000155503
0.000153443
0.000158165
0.000171673
0.000194827
0.000234044
0.000307234
0.000430335
0.000508308
0.000505218
0.000424676
0.000329842
0.000350417
0.000493844
0.000627541
0.00067813
0.000665226
0.000600439
0.000511359
0.000433339
0.000351564
0.000292883
0.000259823
0.000241906
0.000265256
0.000332477
0.000406901
0.000521921
0.000572679
0.000571555
0.000510764
0.00043871
0.000399367
0.000371564
0.000374813
0.000378914
0.000387797
0.000374548
0.000339135
0.000301152
0.000289262
0.000340917
0.00044353
0.000568764
0.000624104
0.00050744
0.000610707
0.000322225
0.0003674
0.00030858
0.000339831
0.00047724
0.00063246
0.000758504
0.000807708
0.000840987
0.000836303
0.000829607
0.000755671
0.000667386
0.000475607
0.000429704
0.000272349
0.000295519
0.000192241
0.000281478
0.000205185
0.000446026
0.000291945
0.000477092
0.000378283
0.00058926
0.000502084
0.000576819
0.000513094
0.000532473
0.00064415
0.000699
0.000709919
0.000815431
8.23897e-05
0.00010918
0.000162706
0.000220047
0.000320896
0.000327179
0.000183678
0.000158036
0.000166037
0.000159478
0.000150904
0.000183157
0.000243412
0.000360644
0.000400072
0.0003607
0.00032541
0.000308426
0.000279656
0.000238333
0.000316985
0.000507607
0.000644234
0.000741942
0.000803102
0.000832732
0.00084215
0.000776218
0.000635345
0.000532025
0.000394695
0.000351479
0.00023706
0.000209698
0.000199957
0.000227963
0.000290222
0.000325045
0.000378148
0.0004121
0.000474947
0.000483024
0.000501329
0.000474841
0.000389966
0.000277244
0.000180005
0.000141573
0.000141451
0.000149655
0.000161379
0.000164498
0.000168973
0.000182379
0.00020308
0.000227826
0.000252044
0.000276828
0.000306087
0.000350415
0.000410644
0.000481361
0.000528936
0.00053306
0.000488279
0.000418826
0.000363902
0.00034048
0.000337357
0.000354288
0.000409718
0.000480869
0.000523246
0.000510651
0.000453766
0.000337363
0.000251526
0.000268654
0.000338647
0.000408363
0.000416669
0.000361855
0.000330589
0.000246356
0.000203867
0.000177569
0.000162083
0.00015449
0.000149483
0.000145784
0.000140973
0.000136339
0.000134488
0.000135893
0.000136869
0.000138828
0.000139335
0.000138399
0.000113727
6.63674e-05
0.000109318
0.000111634
0.000117795
0.000121891
0.000156884
0.000265816
0.000272213
0.000198385
0.00013936
0.00013729
0.000153755
0.000161763
0.000178032
0.00018749
0.000237743
0.00024886
0.000245439
0.000302985
0.000473007
0.000555678
0.000562843
0.000567876
0.000571386
0.000528711
0.00048384
0.000441768
0.000390796
0.000293924
0.000259291
0.000245158
0.000227677
0.000224889
0.000236446
0.000219329
0.000211073
0.000203628
0.000206691
0.000220166
0.00023326
0.000248136
0.000293879
0.000307957
0.00031146
0.000299084
0.000246231
0.000187191
0.000144843
0.00013225
0.0001303
0.00013145
0.000135692
0.000139752
0.000153092
0.000164941
0.000179625
0.000195309
0.000209887
0.000222697
0.000229315
0.000235363
0.000248968
0.000277446
0.000341573
0.000419811
0.000435767
0.000408508
0.000314964
0.000235494
0.000194361
0.000184197
0.000193679
0.000221544
0.000273924
0.000284727
0.000278304
0.000259338
0.000248268
0.000268629
0.000267532
0.000257981
0.000197942
0.000187058
0.000164471
0.000164251
0.000168528
0.000170114
0.000182273
0.000197199
0.000212673
0.000226843
0.000233451
0.000222029
0.000188877
0.000156394
0.000131543
0.000116866
0.000114321
0.000119277
0.000120836
8.95293e-05
0.000116952
0.00011498
0.000120878
0.000121888
0.000121213
0.000165582
0.000253387
0.000228907
0.000171564
0.000135245
0.000143968
0.000166278
0.000201035
0.000202573
0.000209833
0.000234825
0.000344565
0.000504644
0.000523882
0.000511482
0.000453718
0.000390187
0.000315313
0.000277069
0.000251896
0.000241663
0.000237337
0.000235184
0.000241132
0.000240802
0.000230185
0.0002338
0.000240353
0.00022638
0.000214491
0.000203145
0.000190828
0.000175721
0.000157871
0.00015303
0.000154833
0.000159178
0.000180827
0.00021564
0.000209528
0.00017099
0.000138584
0.000124998
0.000117723
0.00011574
0.000117853
0.000127578
0.000138138
0.000146877
0.000151827
0.000157609