/*--------------------------------*- C++ -*----------------------------------*\
| =========                 |                                                 |
| \\      /  F ield         | OpenFOAM: The Open Source CFD Toolbox           |
|  \\    /   O peration     | Version:  2.4.0                                 |
|   \\  /    A nd           | Web:      www.OpenFOAM.org                      |
|    \\/     M anipulation  |                                                 |
\*---------------------------------------------------------------------------*/
FoamFile
{
    version     2.0;
    format      ascii;
    class       surfaceScalarField;
    location    "0.152";
    object      phi_0;
}
// * * * * * * * * * * * * * * * * * * * * * * * * * * * * * * * * * * * * * //

dimensions      [0 3 -1 0 0 0 0];

internalField   nonuniform List<scalar> 
8640
(
1.14635e-05
1.35365e-05
7.17567e-06
4.28784e-06
5.92062e-06
1.25504e-06
5.37118e-06
5.49447e-07
5.10105e-06
2.70129e-07
4.9344e-06
1.66644e-07
4.82466e-06
1.09745e-07
4.79291e-06
3.17439e-08
4.53551e-06
2.57404e-07
-1.2992e-06
5.83471e-06
2.10477e-05
1.74888e-05
1.74512e-05
7.8844e-06
1.55127e-05
3.19353e-06
1.42698e-05
1.79238e-06
1.34844e-05
1.05549e-06
1.30228e-05
6.28238e-07
1.27209e-05
4.11696e-07
1.25355e-05
2.17074e-07
1.22702e-05
5.2272e-07
-1.23831e-06
1.22093e-05
2.57003e-05
1.67884e-05
2.41034e-05
9.48134e-06
2.26035e-05
4.69337e-06
2.12638e-05
3.13207e-06
2.0208e-05
2.11138e-06
1.95663e-05
1.26992e-06
1.91304e-05
8.47587e-07
1.87694e-05
5.78037e-07
1.86667e-05
6.2542e-07
-5.67416e-07
1.79958e-05
2.7462e-05
1.43264e-05
2.77411e-05
9.20231e-06
2.73544e-05
5.08008e-06
2.65684e-05
3.91798e-06
2.56274e-05
3.05244e-06
2.49907e-05
1.90664e-06
2.45519e-05
1.28635e-06
2.40399e-05
1.09001e-06
2.40713e-05
5.94031e-07
8.29476e-08
2.34209e-05
2.76608e-05
1.16656e-05
2.89196e-05
7.94351e-06
2.95785e-05
4.42125e-06
2.97412e-05
3.75527e-06
2.93599e-05
3.43368e-06
2.90015e-05
2.26507e-06
2.87684e-05
1.51947e-06
2.82619e-05
1.59654e-06
2.83272e-05
5.28725e-07
5.01115e-07
2.7909e-05
2.7513e-05
9.15254e-06
2.89824e-05
6.4741e-06
2.99565e-05
3.4472e-06
3.07725e-05
2.93927e-06
3.10791e-05
3.12703e-06
3.12019e-05
2.14231e-06
3.13926e-05
1.32879e-06
3.11528e-05
1.83629e-06
3.12782e-05
4.03333e-07
1.18475e-06
3.05946e-05
2.73793e-05
6.77324e-06
2.89646e-05
4.88875e-06
2.98652e-05
2.54666e-06
3.07658e-05
2.03863e-06
3.13941e-05
2.49873e-06
3.18025e-05
1.73397e-06
3.2317e-05
8.14273e-07
3.24802e-05
1.67308e-06
3.2732e-05
1.51523e-07
1.72346e-06
3.21933e-05
2.72748e-05
4.49842e-06
2.89969e-05
3.1667e-06
2.97874e-05
1.75612e-06
3.06231e-05
1.20295e-06
3.13337e-05
1.78808e-06
3.18052e-05
1.26249e-06
3.23531e-05
2.6635e-07
3.27829e-05
1.24333e-06
3.31644e-05
-2.2998e-07
4.31535e-07
3.44563e-05
2.72419e-05
2.25649e-06
2.89546e-05
1.45406e-06
2.96866e-05
1.02405e-06
3.05015e-05
3.8812e-07
3.12546e-05
1.03499e-06
3.17585e-05
7.58559e-07
3.23103e-05
-2.85488e-07
3.2779e-05
7.74688e-07
3.32359e-05
-6.86907e-07
-4.96034e-07
3.41635e-05
2.72456e-05
1.08998e-08
2.8934e-05
-2.34356e-07
2.96432e-05
3.14814e-07
3.04426e-05
-4.11215e-07
3.11647e-05
3.12904e-07
3.17494e-05
1.73812e-07
3.22992e-05
-8.35306e-07
3.27415e-05
3.32423e-07
3.33282e-05
-1.27363e-06
-9.67303e-07
3.37995e-05
2.72307e-05
-2.21981e-06
2.89214e-05
-1.92509e-06
2.96734e-05
-4.37174e-07
3.04045e-05
-1.14224e-06
3.113e-05
-4.12625e-07
3.18107e-05
-5.06948e-07
3.22638e-05
-1.2884e-06
3.278e-05
-1.83772e-07
3.33253e-05
-1.8189e-06
-1.22164e-06
3.35796e-05
2.726e-05
-4.47979e-06
2.8961e-05
-3.62614e-06
2.96925e-05
-1.16861e-06
3.04041e-05
-1.85388e-06
3.12311e-05
-1.23958e-06
3.18612e-05
-1.13705e-06
3.22426e-05
-1.66982e-06
3.2837e-05
-7.78151e-07
3.31824e-05
-2.16432e-06
-1.69763e-06
3.36584e-05
2.7352e-05
-6.83184e-06
2.89506e-05
-5.22473e-06
2.97191e-05
-1.9371e-06
3.05106e-05
-2.64539e-06
3.13485e-05
-2.07744e-06
3.18789e-05
-1.66749e-06
3.22909e-05
-2.08174e-06
3.2822e-05
-1.30932e-06
3.3058e-05
-2.40029e-06
-2.54502e-06
3.39054e-05
2.74087e-05
-9.24058e-06
2.87996e-05
-6.61559e-06
2.98634e-05
-3.00093e-06
3.06789e-05
-3.46086e-06
3.14228e-05
-2.8214e-06
3.18866e-05
-2.13126e-06
3.22006e-05
-2.39569e-06
3.25023e-05
-1.61101e-06
3.26437e-05
-2.54177e-06
-3.23758e-06
3.33363e-05
2.74912e-05
-1.17318e-05
2.88656e-05
-7.99001e-06
3.00264e-05
-4.16174e-06
3.06964e-05
-4.13084e-06
3.11139e-05
-3.23887e-06
3.12672e-05
-2.28453e-06
3.11965e-05
-2.325e-06
3.11351e-05
-1.5496e-06
3.09847e-05
-2.39145e-06
-3.33182e-06
3.1079e-05
2.76402e-05
-1.4372e-05
2.88631e-05
-9.21293e-06
2.96405e-05
-4.93908e-06
2.96654e-05
-4.15574e-06
2.93819e-05
-2.95538e-06
2.90165e-05
-1.91918e-06
2.85441e-05
-1.85261e-06
2.81986e-05
-1.20405e-06
2.77711e-05
-1.96395e-06
-2.29768e-06
2.67369e-05
2.74424e-05
-1.68144e-05
2.77124e-05
-9.48296e-06
2.73964e-05
-4.62309e-06
2.65036e-05
-3.26289e-06
2.5635e-05
-2.0868e-06
2.49722e-05
-1.25635e-06
2.43363e-05
-1.21674e-06
2.39057e-05
-7.73397e-07
2.33452e-05
-1.40349e-06
-1.4766e-06
2.25241e-05
2.56838e-05
-1.74981e-05
2.409e-05
-7.88919e-06
2.26296e-05
-3.16267e-06
2.1215e-05
-1.84832e-06
2.01973e-05
-1.06912e-06
1.95378e-05
-5.9682e-07
1.89405e-05
-6.19408e-07
1.85531e-05
-3.8609e-07
1.7942e-05
-7.92306e-07
-7.23562e-07
1.71889e-05
2.10395e-05
-1.35377e-05
1.74429e-05
-4.29256e-06
1.55258e-05
-1.24558e-06
1.42391e-05
-5.61593e-07
1.34585e-05
-2.88562e-07
1.30041e-05
-1.42337e-07
1.25683e-05
-1.83656e-07
1.22913e-05
-1.09085e-07
1.17656e-05
-2.66638e-07
-2.24114e-07
1.12662e-05
1.14623e-05
7.16975e-06
5.92418e-06
5.36258e-06
5.07402e-06
4.93168e-06
4.74803e-06
4.63894e-06
4.37231e-06
4.14819e-06
6.87836e-06
3.26025e-07
-1.36967e-06
8.06593e-06
1.07716e-06
-2.26473e-06
9.07139e-06
4.96826e-07
-1.50228e-06
9.63234e-06
-2.61452e-07
-2.99499e-07
9.98229e-06
-4.59907e-07
1.09951e-07
1.05587e-05
8.69031e-07
-1.44544e-06
1.21801e-05
2.81256e-07
-1.90264e-06
1.37732e-05
6.20135e-07
-2.21323e-06
1.51376e-05
2.70062e-06
-4.06505e-06
1.66493e-05
9.41369e-07
-2.45309e-06
1.76937e-05
5.52272e-08
-1.09958e-06
1.89924e-05
-2.93697e-07
-1.00499e-06
2.03766e-05
-5.78807e-06
4.40384e-06
2.18651e-05
-7.3258e-06
5.83728e-06
2.3548e-05
-8.71334e-06
7.03043e-06
2.51347e-05
-1.16423e-05
1.00556e-05
2.61587e-05
-1.30025e-05
1.19786e-05
2.66237e-05
-1.19832e-05
1.15182e-05
2.72767e-05
-1.09914e-05
1.03384e-05
2.81154e-05
-1.07507e-05
9.91191e-06
2.77868e-05
-8.04576e-06
8.3744e-06
2.83727e-05
-7.65781e-06
7.07192e-06
2.92686e-05
-1.17453e-05
1.08494e-05
2.91525e-05
-1.3968e-05
1.40841e-05
2.92972e-05
-1.63845e-05
1.62398e-05
2.94704e-05
-2.04106e-05
2.02374e-05
2.88345e-05
-2.39935e-05
2.46293e-05
2.80853e-05
-2.63584e-05
2.71076e-05
2.74754e-05
-2.96138e-05
3.02237e-05
2.68833e-05
-3.4234e-05
3.48261e-05
2.72947e-05
-3.64419e-05
3.60305e-05
2.8126e-05
-3.78871e-05
3.70557e-05
2.83943e-05
-3.97355e-05
3.94672e-05
2.91986e-05
-3.45535e-05
3.37493e-05
2.93087e-05
-2.77056e-05
2.75956e-05
2.82875e-05
-1.7431e-05
1.84521e-05
2.72431e-05
-4.20952e-06
5.25397e-06
2.59789e-05
5.91624e-06
-4.65207e-06
2.50042e-05
1.45948e-05
-1.36202e-05
2.39317e-05
3.00657e-05
-2.89932e-05
2.23221e-05
3.73033e-05
-3.56938e-05
2.05205e-05
3.47393e-05
-3.29377e-05
1.95381e-05
3.47253e-05
-3.37429e-05
1.94893e-05
4.33498e-05
-4.3301e-05
1.94644e-05
4.79131e-05
-4.78881e-05
1.96143e-05
4.3014e-05
-4.3164e-05
1.98142e-05
3.70886e-05
-3.72885e-05
1.92725e-05
3.04698e-05
-2.99282e-05
1.87422e-05
2.56121e-05
-2.50819e-05
1.84578e-05
1.24842e-05
-1.21998e-05
1.94275e-05
-5.29184e-07
-4.40457e-07
1.93877e-05
-8.80536e-06
8.84514e-06
1.88943e-05
-1.9881e-05
2.03744e-05
1.779e-05
-3.41242e-05
3.52285e-05
1.76833e-05
-4.01564e-05
4.02631e-05
1.64477e-05
-3.94774e-05
4.0713e-05
1.57613e-05
-2.69255e-05
2.76118e-05
1.63143e-05
-2.34389e-05
2.28859e-05
1.58753e-05
-2.18028e-05
2.22418e-05
1.75537e-05
-3.42986e-05
3.26202e-05
1.81214e-05
-5.14614e-05
5.08937e-05
1.8645e-05
-4.94965e-05
4.89729e-05
1.98471e-05
-3.39369e-05
3.27348e-05
2.03673e-05
-2.00743e-05
1.95541e-05
2.04095e-05
-1.03021e-05
1.02599e-05
2.03001e-05
4.42704e-06
-4.3176e-06
2.00936e-05
1.58149e-05
-1.56085e-05
1.99552e-05
2.45803e-05
-2.44419e-05
2.02142e-05
4.04698e-05
-4.07287e-05
1.90759e-05
5.37639e-05
-5.26256e-05
1.73755e-05
5.00063e-05
-4.83059e-05
1.61815e-05
4.28374e-05
-4.16433e-05
1.56832e-05
3.98892e-05
-3.93909e-05
1.52174e-05
4.23768e-05
-4.19111e-05
1.72794e-05
3.62662e-05
-3.83282e-05
1.79689e-05
3.80884e-05
-3.87779e-05
1.83324e-05
2.66996e-05
-2.70631e-05
1.9473e-05
2.14537e-05
-2.25943e-05
2.02959e-05
1.05789e-05
-1.14018e-05
2.04613e-05
9.04463e-06
-9.21e-06
2.13037e-05
-8.41413e-06
7.57168e-06
2.05572e-05
-1.03646e-05
1.11111e-05
1.90407e-05
-1.75425e-05
1.90589e-05
1.75194e-05
-1.5019e-05
1.65403e-05
1.84728e-05
-2.55651e-05
2.46117e-05
1.78304e-05
-1.8375e-05
1.90174e-05
1.87988e-05
-2.94624e-05
2.8494e-05
1.81485e-05
-1.77635e-05
1.84139e-05
1.86938e-05
-1.13521e-05
1.08068e-05
1.71426e-05
-1.13942e-06
2.69062e-06
1.79802e-05
-8.64415e-06
7.80654e-06
1.70675e-05
3.77245e-06
-2.85975e-06
1.78341e-05
7.93204e-06
-8.69865e-06
1.56101e-05
1.89109e-05
-1.66869e-05
1.71026e-05
1.17949e-05
-1.32874e-05
1.35405e-05
1.99438e-05
-1.63817e-05
1.47424e-05
7.6522e-06
-8.85413e-06
1.32472e-05
2.43204e-05
-2.28252e-05
1.55128e-05
2.59154e-05
-2.8181e-05
6.07574e-05
-5.90792e-05
1.38346e-05
1.2671e-05
-1.35648e-07
1.35064e-05
2.41767e-07
1.38988e-05
1.04417e-07
1.42054e-05
-5.6806e-07
1.45755e-05
-8.29973e-07
1.47045e-05
7.39962e-07
1.55934e-05
-6.07656e-07
1.66309e-05
-4.17301e-07
1.83777e-05
9.53828e-07
2.04004e-05
-1.0814e-06
2.13997e-05
-9.44021e-07
2.3249e-05
-2.14305e-06
2.47524e-05
-7.2914e-06
2.61117e-05
-8.68512e-06
2.76927e-05
-1.02943e-05
2.85531e-05
-1.25027e-05
2.90461e-05
-1.34955e-05
2.93836e-05
-1.23207e-05
2.96128e-05
-1.12205e-05
2.99743e-05
-1.11122e-05
2.9807e-05
-7.87846e-06
2.98905e-05
-7.7413e-06
2.97497e-05
-1.16045e-05
2.91229e-05
-1.33411e-05
2.87265e-05
-1.59882e-05
2.83146e-05
-1.99986e-05
2.72584e-05
-2.29373e-05
2.61666e-05
-2.52666e-05
2.56729e-05
-2.91202e-05
2.54466e-05
-3.40077e-05
2.595e-05
-3.69452e-05
2.67407e-05
-3.86778e-05
2.68077e-05
-3.98025e-05
2.72887e-05
-3.50346e-05
2.70958e-05
-2.75127e-05
2.59158e-05
-1.6251e-05
2.48883e-05
-3.18197e-06
2.39474e-05
6.8571e-06
2.31769e-05
1.53654e-05
2.23847e-05
3.08579e-05
2.12659e-05
3.84221e-05
1.99879e-05
3.60173e-05
1.93895e-05
3.53237e-05
1.9939e-05
4.28003e-05
2.03663e-05
4.74858e-05
2.06349e-05
4.27454e-05
2.08702e-05
3.68533e-05
2.04527e-05
3.08873e-05
2.01588e-05
2.5906e-05
2.01423e-05
1.25008e-05
2.09474e-05
-1.3343e-06
2.10342e-05
-8.89218e-06
2.03457e-05
-1.91925e-05
1.93325e-05
-3.3111e-05
1.88778e-05
-3.97017e-05
1.69115e-05
-3.7511e-05
1.62678e-05
-2.62818e-05
1.58209e-05
-2.2992e-05
1.58333e-05
-2.18153e-05
1.75484e-05
-3.60137e-05
1.70965e-05
-5.10096e-05
1.74021e-05
-4.98021e-05
1.8445e-05
-3.49798e-05
1.87364e-05
-2.03657e-05
1.87822e-05
-1.03479e-05
1.876e-05
4.44924e-06
1.8874e-05
1.57009e-05
1.88277e-05
2.46265e-05
1.91804e-05
4.01172e-05
1.82863e-05
5.4658e-05
1.6898e-05
5.13946e-05
1.58699e-05
4.38654e-05
1.64179e-05
3.93413e-05
1.64874e-05
4.23073e-05
1.88617e-05
3.3892e-05
2.01578e-05
3.67923e-05
2.02987e-05
2.65587e-05
2.05818e-05
2.11707e-05
2.11811e-05
9.97959e-06
2.1963e-05
8.26277e-06
2.24738e-05
-8.92497e-06
2.13291e-05
-9.2199e-06
1.99454e-05
-1.61588e-05
1.89108e-05
-1.39844e-05
1.96129e-05
-2.62672e-05
1.89133e-05
-1.76754e-05
1.96147e-05
-3.01638e-05
1.88687e-05
-1.70176e-05
1.95021e-05
-1.19855e-05
1.78159e-05
5.46809e-07
1.90278e-05
-9.85608e-06
1.78211e-05
4.97915e-06
1.89965e-05
6.75673e-06
1.61573e-05
2.17501e-05
1.85789e-05
9.37328e-06
1.52442e-05
2.32785e-05
1.67826e-05
6.11379e-06
1.52298e-05
2.58732e-05
2.11377e-05
2.00075e-05
6.1331e-05
2.05642e-05
1.81312e-05
-2.71069e-07
1.88756e-05
-5.02585e-07
1.92762e-05
-2.96231e-07
1.95694e-05
-8.61242e-07
1.9888e-05
-1.14858e-06
2.00605e-05
5.67519e-07
2.09388e-05
-1.48596e-06
2.14766e-05
-9.55089e-07
2.26695e-05
-2.39104e-07
2.44339e-05
-2.84578e-06
2.55717e-05
-2.08188e-06
2.76116e-05
-4.18294e-06
2.88027e-05
-8.48243e-06
2.98073e-05
-9.68973e-06
3.1052e-05
-1.15391e-05
3.16046e-05
-1.30553e-05
3.17466e-05
-1.36375e-05
3.13761e-05
-1.19502e-05
3.08442e-05
-1.06886e-05
3.08951e-05
-1.11632e-05
3.11314e-05
-8.11473e-06
3.12814e-05
-7.89128e-06
3.06406e-05
-1.09637e-05
2.92558e-05
-1.19563e-05
2.8305e-05
-1.50373e-05
2.74112e-05
-1.91049e-05
2.58122e-05
-2.13383e-05
2.48065e-05
-2.42609e-05
2.47757e-05
-2.90894e-05
2.46078e-05
-3.38398e-05
2.45268e-05
-3.68642e-05
2.47589e-05
-3.89099e-05
2.46132e-05
-3.96567e-05
2.4813e-05
-3.52344e-05
2.43094e-05
-2.70091e-05
2.29761e-05
-1.49177e-05
2.21061e-05
-2.31201e-06
2.15935e-05
7.36973e-06
2.10895e-05
1.58694e-05
2.05411e-05
3.14063e-05
1.99256e-05
3.90376e-05
1.92834e-05
3.66595e-05
1.91054e-05
3.55017e-05
2.01293e-05
4.17764e-05
2.09517e-05
4.66635e-05
2.14232e-05
4.22739e-05
2.18298e-05
3.64466e-05
2.15854e-05
3.11318e-05
2.15507e-05
2.59408e-05
2.18447e-05
1.22067e-05
2.23794e-05
-1.86901e-06
2.23505e-05
-8.86323e-06
2.15523e-05
-1.83942e-05
2.05713e-05
-3.21301e-05
1.96928e-05
-3.88233e-05
1.73164e-05
-3.51346e-05
1.66753e-05
-2.56407e-05
1.555e-05
-2.18666e-05
1.6066e-05
-2.23313e-05
1.68488e-05
-3.67964e-05
1.55308e-05
-4.96916e-05
1.58707e-05
-5.0142e-05
1.68709e-05
-3.59799e-05
1.70834e-05
-2.05782e-05
1.71264e-05
-1.03909e-05
1.69112e-05
4.66444e-06
1.7177e-05
1.54351e-05
1.71992e-05
2.46043e-05
1.79494e-05
3.9367e-05
1.77371e-05
5.48703e-05
1.67285e-05
5.24032e-05
1.56548e-05
4.49391e-05
1.65144e-05
3.84817e-05
1.73937e-05
4.1428e-05
1.99045e-05
3.13812e-05
2.15756e-05
3.51212e-05
2.20314e-05
2.61029e-05
2.19556e-05
2.12465e-05
2.25165e-05
9.41871e-06
2.37466e-05
7.03271e-06
2.39455e-05
-9.12389e-06
2.23335e-05
-7.60788e-06
2.09105e-05
-1.47358e-05
2.03489e-05
-1.34228e-05
2.07647e-05
-2.6683e-05
2.01775e-05
-1.70882e-05
2.03262e-05
-3.03125e-05
1.93971e-05
-1.60885e-05
2.0305e-05
-1.28934e-05
1.86221e-05
2.22973e-06
1.99414e-05
-1.11754e-05
1.84722e-05
6.44836e-06
1.98962e-05
5.33273e-06
1.74712e-05
2.41751e-05
2.09407e-05
5.90378e-06
1.81666e-05
2.60527e-05
2.04149e-05
3.86546e-06
1.7484e-05
2.88041e-05
2.54623e-05
1.20292e-05
6.10848e-05
2.57085e-05
2.34029e-05
-2.52989e-07
2.37967e-05
-8.96416e-07
2.41352e-05
-6.34764e-07
2.44546e-05
-1.18065e-06
2.46177e-05
-1.31161e-06
2.50653e-05
1.19869e-07
2.57662e-05
-2.18688e-06
2.60629e-05
-1.2518e-06
2.7317e-05
-1.49318e-06
2.86791e-05
-4.20783e-06
2.9704e-05
-3.10677e-06
3.11654e-05
-5.64434e-06
3.20501e-05
-9.36715e-06
3.32469e-05
-1.08865e-05
3.36088e-05
-1.19011e-05
3.31902e-05
-1.26366e-05
3.3317e-05
-1.37644e-05
3.28843e-05
-1.15175e-05
3.18836e-05
-9.68784e-06
3.12313e-05
-1.05109e-05
3.11014e-05
-7.98488e-06
3.13726e-05
-8.16241e-06
3.07203e-05
-1.03114e-05
2.94118e-05
-1.06478e-05
2.85942e-05
-1.42198e-05
2.70731e-05
-1.75838e-05
2.5158e-05
-1.94232e-05
2.45377e-05
-2.36405e-05
2.42749e-05
-2.88266e-05
2.33419e-05
-3.29069e-05
2.25565e-05
-3.60788e-05
2.23717e-05
-3.87251e-05
2.21775e-05
-3.94625e-05
2.21482e-05
-3.52051e-05
2.13358e-05
-2.61968e-05
1.99277e-05
-1.35096e-05
1.92882e-05
-1.67247e-06
1.91936e-05
7.46429e-06
1.88707e-05
1.61923e-05
1.84264e-05
3.18506e-05
1.82876e-05
3.91764e-05
1.83714e-05
3.65757e-05
1.86713e-05
3.52018e-05
1.99658e-05
4.04819e-05
2.11788e-05
4.54505e-05
2.1968e-05
4.14847e-05
2.26129e-05
3.58018e-05
2.25491e-05
3.11955e-05
2.27658e-05
2.57241e-05
2.33566e-05
1.16159e-05
2.37066e-05
-2.2191e-06
2.34568e-05
-8.61336e-06
2.26721e-05
-1.76096e-05
2.16177e-05
-3.10756e-05
2.02867e-05
-3.74923e-05
1.77405e-05
-3.25884e-05
1.67876e-05
-2.46878e-05
1.54637e-05
-2.05427e-05
1.61635e-05
-2.30312e-05
1.55081e-05
-3.6141e-05
1.39318e-05
-4.81153e-05
1.45895e-05
-5.07996e-05
1.5464e-05
-3.68545e-05
1.51905e-05
-2.03047e-05
1.50722e-05
-1.02725e-05
1.49432e-05
4.79343e-06
1.56456e-05
1.47326e-05
1.57672e-05
2.44827e-05
1.63813e-05
3.87529e-05
1.66053e-05
5.46463e-05
1.63249e-05
5.26836e-05
1.56457e-05
4.56184e-05
1.64612e-05
3.76661e-05
1.79225e-05
3.99667e-05
1.99816e-05
2.93221e-05
2.19551e-05
3.31477e-05
2.32565e-05
2.48014e-05
2.35804e-05
2.09226e-05
2.4134e-05
8.8652e-06
2.49796e-05
6.18702e-06
2.45488e-05
-8.69303e-06
2.29476e-05
-6.00671e-06
2.18515e-05
-1.36396e-05
2.16035e-05
-1.31748e-05
2.1537e-05
-2.66165e-05
2.11947e-05
-1.67459e-05
2.09261e-05
-3.0044e-05
1.98777e-05
-1.50402e-05
2.07158e-05
-1.37315e-05
1.92408e-05
3.70471e-06
2.05061e-05
-1.24407e-05
1.89349e-05
8.0196e-06
2.02927e-05
3.97491e-06
1.86195e-05
2.58483e-05
2.28112e-05
1.71201e-06
2.15784e-05
2.72855e-05
2.58489e-05
-4.04971e-07
2.02613e-05
3.43916e-05
2.83476e-05
3.94285e-06
5.98496e-05
2.95828e-05
2.80027e-05
-3.46678e-07
2.81991e-05
-1.09283e-06
2.84483e-05
-8.83964e-07
2.8829e-05
-1.56131e-06
2.86884e-05
-1.17104e-06
2.92178e-05
-4.09531e-07
2.96559e-05
-2.62503e-06
3.0013e-05
-1.60882e-06
3.09723e-05
-2.45251e-06
3.15402e-05
-4.77577e-06
3.30752e-05
-4.64176e-06
3.41558e-05
-6.72487e-06
3.41102e-05
-9.32161e-06
3.49642e-05
-1.17405e-05
3.49824e-05
-1.19193e-05
3.42539e-05
-1.19081e-05
3.38624e-05
-1.33729e-05
3.31573e-05
-1.08124e-05
3.23864e-05
-8.91691e-06
3.12207e-05
-9.34517e-06
3.06061e-05
-7.37034e-06
3.0658e-05
-8.21428e-06
2.95716e-05
-9.22503e-06
2.86926e-05
-9.76881e-06
2.80754e-05
-1.36026e-05
2.61211e-05
-1.56295e-05
2.46578e-05
-1.79598e-05
2.42058e-05
-2.31886e-05
2.3131e-05
-2.77518e-05
2.14936e-05
-3.12694e-05
2.02883e-05
-3.48735e-05
1.97126e-05
-3.81493e-05
1.93736e-05
-3.91236e-05
1.91381e-05
-3.49695e-05
1.80899e-05
-2.51486e-05
1.68502e-05
-1.22699e-05
1.65419e-05
-1.36414e-06
1.67205e-05
7.28572e-06
1.65404e-05
1.63723e-05
1.62551e-05
3.21359e-05
1.65469e-05
3.88846e-05
1.73209e-05
3.58017e-05
1.81379e-05
3.43847e-05
1.96353e-05
3.89845e-05
2.11178e-05
4.3968e-05
2.21484e-05
4.04541e-05
2.3037e-05
3.49133e-05
2.33213e-05
3.09111e-05
2.387e-05
2.51754e-05
2.46298e-05
1.08561e-05
2.48116e-05
-2.4009e-06
2.4361e-05
-8.16282e-06
2.36474e-05
-1.68959e-05
2.24949e-05
-2.99231e-05
2.07627e-05
-3.57601e-05
1.81628e-05
-2.99885e-05
1.66007e-05
-2.31257e-05
1.52836e-05
-1.92256e-05
1.58243e-05
-2.35719e-05
1.42575e-05
-3.45742e-05
1.28294e-05
-4.66873e-05
1.37366e-05
-5.17068e-05
1.40148e-05
-3.71327e-05
1.32809e-05
-1.95708e-05
1.30323e-05
-1.0024e-05
1.29388e-05
4.887e-06
1.36569e-05
1.40144e-05
1.40994e-05
2.40403e-05
1.46764e-05
3.81758e-05
1.55369e-05
5.37858e-05
1.57822e-05
5.24382e-05
1.54906e-05
4.591e-05
1.66808e-05
3.64759e-05
1.82704e-05
3.83771e-05
1.92767e-05
2.83159e-05
2.1819e-05
3.06053e-05
2.39257e-05
2.26947e-05
2.49447e-05
1.99036e-05
2.53801e-05
8.42981e-06
2.60526e-05
5.51455e-06
2.52644e-05
-7.90483e-06
2.34536e-05
-4.196e-06
2.26319e-05
-1.28179e-05
2.26906e-05
-1.32334e-05
2.23517e-05
-2.62776e-05
2.24008e-05
-1.6795e-05
2.17547e-05
-2.93979e-05
2.0292e-05
-1.35774e-05
2.07113e-05
-1.41508e-05
1.92267e-05
5.18932e-06
2.00452e-05
-1.32591e-05
1.89387e-05
9.12602e-06
2.02014e-05
2.71226e-06
1.77776e-05
2.82721e-05
2.11091e-05
-1.61954e-06
2.03082e-05
2.80864e-05
2.72333e-05
-7.3301e-06
2.27567e-05
3.88682e-05
2.96584e-05
-2.95886e-06
5.72013e-05
3.23067e-05
3.10445e-05
-7.9654e-07
3.13505e-05
-1.39891e-06
3.18148e-05
-1.34819e-06
3.21155e-05
-1.86205e-06
3.17697e-05
-8.25189e-07
3.24557e-05
-1.09561e-06
3.25177e-05
-2.68697e-06
3.29719e-05
-2.06308e-06
3.36846e-05
-3.1652e-06
3.36149e-05
-4.70606e-06
3.49496e-05
-5.97641e-06
3.5483e-05
-7.25833e-06
3.53668e-05
-9.20534e-06
3.57778e-05
-1.21515e-05
3.52272e-05
-1.13687e-05
3.45792e-05
-1.12601e-05
3.36957e-05
-1.24894e-05
3.27916e-05
-9.90833e-06
3.23186e-05
-8.44388e-06
3.08717e-05
-7.89826e-06
3.02359e-05
-6.73454e-06
3.00036e-05
-7.982e-06
2.87596e-05
-7.98104e-06
2.8389e-05
-9.39818e-06
2.74494e-05
-1.26631e-05
2.54247e-05
-1.36047e-05
2.4401e-05
-1.69362e-05
2.34176e-05
-2.22052e-05
2.14385e-05
-2.57726e-05
1.93922e-05
-2.92232e-05
1.78367e-05
-3.3318e-05
1.68318e-05
-3.71444e-05
1.63213e-05
-3.86131e-05
1.59144e-05
-3.45626e-05
1.49082e-05
-2.41424e-05
1.40772e-05
-1.14389e-05
1.40584e-05
-1.34532e-06
1.42568e-05
7.08728e-06
1.39904e-05
1.66388e-05
1.37987e-05
3.23276e-05
1.4518e-05
3.81653e-05
1.5944e-05
3.43757e-05
1.73748e-05
3.2954e-05
1.9195e-05
3.71643e-05
2.08897e-05
4.22733e-05
2.20872e-05
3.92566e-05
2.32658e-05
3.37347e-05
2.39718e-05
3.02051e-05
2.48277e-05
2.43196e-05
2.56617e-05
1.00221e-05
2.56833e-05
-2.42253e-06
2.50218e-05
-7.50126e-06
2.4359e-05
-1.62332e-05
2.31448e-05
-2.87089e-05
2.1086e-05
-3.37012e-05
1.83998e-05
-2.73023e-05
1.62459e-05
-2.09718e-05
1.48562e-05
-1.78358e-05
1.50242e-05
-2.37399e-05
1.34586e-05
-3.30087e-05
1.21214e-05
-4.53501e-05
1.27324e-05
-5.23178e-05
1.25432e-05
-3.69434e-05
1.12103e-05
-1.82379e-05
1.06649e-05
-9.47856e-06
1.09492e-05
4.60266e-06
1.21414e-05
1.28222e-05
1.2713e-05
2.34687e-05
1.3075e-05
3.78139e-05
1.4236e-05
5.26249e-05
1.47451e-05
5.19291e-05
1.49736e-05
4.56815e-05
1.64764e-05
3.49732e-05
1.82567e-05
3.65967e-05
1.86841e-05
2.78885e-05
2.17425e-05
2.75469e-05
2.40699e-05
2.03674e-05
2.56798e-05
1.82936e-05
2.60623e-05
8.0474e-06
2.65131e-05
5.06371e-06
2.58475e-05
-7.23921e-06
2.45333e-05
-2.88188e-06
2.426e-05
-1.25446e-05
2.4321e-05
-1.32944e-05
2.36561e-05
-2.56127e-05
2.39202e-05
-1.7059e-05
2.2805e-05
-2.82828e-05
2.05973e-05
-1.13697e-05
2.05465e-05
-1.40999e-05
1.91091e-05
6.62674e-06
1.92606e-05
-1.34106e-05
1.8147e-05
1.02396e-05
2.05836e-05
2.75689e-07
1.63366e-05
3.2519e-05
1.8294e-05
-3.5769e-06
1.54342e-05
3.09462e-05
2.07729e-05
-1.26688e-05
2.04967e-05
3.91444e-05
2.6579e-05
-9.04115e-06
5.07773e-05
3.3003e-05
3.27011e-05
-1.30438e-06
3.29775e-05
-1.67531e-06
3.35178e-05
-1.8885e-06
3.38441e-05
-2.1883e-06
3.38005e-05
-7.81615e-07
3.42209e-05
-1.516e-06
3.39227e-05
-2.38873e-06
3.4559e-05
-2.69939e-06
3.48271e-05
-3.43334e-06
3.46323e-05
-4.51121e-06
3.55577e-05
-6.90185e-06
3.55643e-05
-7.26496e-06
3.55406e-05
-9.18159e-06
3.54002e-05
-1.20112e-05
3.47727e-05
-1.07411e-05
3.45373e-05
-1.10248e-05
3.33944e-05
-1.13465e-05
3.26235e-05
-9.13741e-06
3.22305e-05
-8.05089e-06
3.06753e-05
-6.34306e-06
3.00867e-05
-6.14591e-06
2.94687e-05
-7.36404e-06
2.85158e-05
-7.02808e-06
2.84694e-05
-9.35182e-06
2.70915e-05
-1.12852e-05
2.51189e-05
-1.16321e-05
2.40336e-05
-1.58508e-05
2.22602e-05
-2.04319e-05
1.96039e-05
-2.31162e-05
1.71853e-05
-2.68046e-05
1.52202e-05
-3.13528e-05
1.38058e-05
-3.57301e-05
1.30827e-05
-3.78901e-05
1.25393e-05
-3.40192e-05
1.18592e-05
-2.34623e-05
1.15541e-05
-1.11338e-05
1.17294e-05
-1.52067e-06
1.17667e-05
7.05002e-06
1.12341e-05
1.71714e-05
1.11745e-05
3.23871e-05
1.25266e-05
3.68132e-05
1.46292e-05
3.22731e-05
1.65893e-05
3.09938e-05
1.86185e-05
3.51352e-05
2.04351e-05
4.04567e-05
2.17806e-05
3.7911e-05
2.33516e-05
3.21637e-05
2.45092e-05
2.90475e-05
2.5622e-05
2.32067e-05
2.64357e-05
9.20842e-06
2.62814e-05
-2.26818e-06
2.55073e-05
-6.72718e-06
2.48695e-05
-1.55954e-05
2.3535e-05
-2.73744e-05
2.11786e-05
-3.13448e-05
1.8406e-05
-2.45297e-05
1.59344e-05
-1.85003e-05
1.45396e-05
-1.6441e-05
1.40966e-05
-2.32968e-05
1.26148e-05
-3.1527e-05
1.09074e-05
-4.36427e-05
1.06944e-05
-5.21048e-05
1.03769e-05
-3.66259e-05
8.91462e-06
-1.67756e-05
8.51959e-06
-9.08353e-06
8.83495e-06
4.2873e-06
9.74995e-06
1.19072e-05
1.03602e-05
2.28584e-05
1.11735e-05
3.70005e-05
1.24929e-05
5.13054e-05
1.38261e-05
5.05959e-05
1.46535e-05
4.4854e-05
1.58576e-05
3.3769e-05
1.79972e-05
3.44572e-05
1.87183e-05
2.71673e-05
2.19008e-05
2.43644e-05
2.40277e-05
1.82406e-05
2.59266e-05
1.63947e-05
2.65184e-05
7.4556e-06
2.72349e-05
4.34721e-06
2.64983e-05
-6.50268e-06
2.55061e-05
-1.88967e-06
2.54166e-05
-1.2455e-05
2.54452e-05
-1.33231e-05
2.48491e-05
-2.50165e-05
2.51492e-05
-1.73592e-05
2.35326e-05
-2.66661e-05
2.06064e-05
-8.4436e-06
2.04465e-05
-1.394e-05
1.93339e-05
7.73938e-06
1.9044e-05
-1.31207e-05
1.70944e-05
1.21891e-05
2.08933e-05
-3.52316e-06
1.76597e-05
3.57526e-05
1.93896e-05
-5.30678e-06
1.55285e-05
3.48074e-05
1.85502e-05
-1.56906e-05
1.81217e-05
3.95729e-05
2.08212e-05
-1.17407e-05
4.01807e-05
3.14179e-05
3.40269e-05
-8.7498e-07
3.36149e-05
-1.2633e-06
3.38967e-05
-2.17033e-06
3.39853e-05
-2.27687e-06
3.45332e-05
-1.32947e-06
3.46945e-05
-1.67729e-06
3.42438e-05
-1.93806e-06
3.45911e-05
-3.04669e-06
3.45194e-05
-3.36168e-06
3.4762e-05
-4.75376e-06
3.51671e-05
-7.30697e-06
3.50934e-05
-7.19125e-06
3.52898e-05
-9.37796e-06
3.47481e-05
-1.14695e-05
3.44379e-05
-1.0431e-05
3.436e-05
-1.09469e-05
3.32163e-05
-1.02029e-05
3.2706e-05
-8.62709e-06
3.21933e-05
-7.53811e-06
3.10063e-05
-5.15607e-06
3.04844e-05
-5.62406e-06
2.94215e-05
-6.30111e-06
2.8651e-05
-6.25757e-06
2.82607e-05
-8.96151e-06
2.63833e-05
-9.40779e-06
2.46367e-05
-9.88557e-06
2.33779e-05
-1.45919e-05
2.0837e-05
-1.7891e-05
1.75518e-05
-1.98311e-05
1.47598e-05
-2.40126e-05
1.2508e-05
-2.9101e-05
1.07433e-05
-3.39654e-05
9.6761e-06
-3.68228e-05
9.07983e-06
-3.34229e-05
8.87685e-06
-2.32594e-05
9.06162e-06
-1.13186e-05
9.18774e-06
-1.64679e-06
9.00984e-06
7.22792e-06
8.31842e-06
1.78628e-05
8.46913e-06
3.22364e-05
1.04654e-05
3.48169e-05
1.31128e-05
2.96257e-05
1.55736e-05
2.8533e-05
1.79158e-05
3.27931e-05
1.99894e-05
3.8383e-05
2.16602e-05
3.62403e-05
2.35903e-05
3.02336e-05
2.50081e-05
2.76297e-05
2.61905e-05
2.20243e-05
2.69385e-05
8.46041e-06
2.65562e-05
-1.88592e-06
2.57589e-05
-5.92989e-06
2.52277e-05
-1.50642e-05
2.38683e-05
-2.6015e-05
2.12063e-05
-2.86828e-05
1.82814e-05
-2.16047e-05
1.56155e-05
-1.58344e-05
1.42919e-05
-1.51175e-05
1.31444e-05
-2.21493e-05
1.15325e-05
-2.99151e-05
9.10214e-06
-4.12123e-05
7.60861e-06
-5.06113e-05
7.05071e-06
-3.6068e-05
6.47786e-06
-1.62028e-05
6.63985e-06
-9.24552e-06
6.60411e-06
4.32305e-06
7.61548e-06
1.08959e-05
8.61251e-06
2.18614e-05
9.86708e-06
3.5746e-05
1.11444e-05
5.00281e-05
1.2794e-05
4.89463e-05
1.41924e-05
4.34557e-05
1.55119e-05
3.24494e-05
1.75378e-05
3.24313e-05
1.89809e-05
2.57243e-05
2.2333e-05
2.10123e-05
2.40042e-05
1.65694e-05
2.58026e-05
1.45963e-05
2.68708e-05
6.38743e-06
2.8016e-05
3.20197e-06
2.70249e-05
-5.51156e-06
2.63784e-05
-1.24316e-06
2.64453e-05
-1.25219e-05
2.68453e-05
-1.37232e-05
2.63705e-05
-2.45417e-05
2.62359e-05
-1.72246e-05
2.40819e-05
-2.45121e-05
2.08433e-05
-5.205e-06
2.06976e-05
-1.37943e-05
2.00641e-05
8.37286e-06
1.93957e-05
-1.24523e-05
1.69112e-05
1.46736e-05
2.07876e-05
-7.3995e-06
1.94285e-05
3.71116e-05
2.26023e-05
-8.48051e-06
2.04278e-05
3.69818e-05
2.2272e-05
-1.75347e-05
2.0651e-05
4.11939e-05
1.79213e-05
-9.01093e-06
2.90979e-05
2.90041e-05
3.37144e-05
-4.25931e-07
3.38596e-05
-1.40847e-06
3.38829e-05
-2.19368e-06
3.36515e-05
-2.04543e-06
3.42765e-05
-1.95448e-06
3.41664e-05
-1.56723e-06
3.40461e-05
-1.81772e-06
3.42203e-05
-3.22089e-06
3.43176e-05
-3.45897e-06
3.48454e-05
-5.28158e-06
3.48433e-05
-7.30482e-06
3.50395e-05
-7.38752e-06
3.51972e-05
-9.5356e-06
3.45459e-05
-1.08182e-05
3.44989e-05
-1.0384e-05
3.42206e-05
-1.06686e-05
3.32787e-05
-9.26091e-06
3.28514e-05
-8.19984e-06
3.20407e-05
-6.72734e-06
3.12482e-05
-4.36359e-06
3.07115e-05
-5.08741e-06
2.94374e-05
-5.02696e-06
2.85997e-05
-5.41987e-06
2.74247e-05
-7.78653e-06
2.52439e-05
-7.22695e-06
2.38557e-05
-8.49742e-06
2.22552e-05
-1.29914e-05
1.89712e-05
-1.4607e-05
1.52147e-05
-1.60745e-05
1.2243e-05
-2.1041e-05
9.94306e-06
-2.6801e-05
7.94778e-06
-3.19701e-05
6.39133e-06
-3.52664e-05
5.71672e-06
-3.27483e-05
5.78184e-06
-2.33245e-05
6.18985e-06
-1.17266e-05
6.18764e-06
-1.64457e-06
5.7964e-06
7.61916e-06
5.04188e-06
1.86173e-05
5.72349e-06
3.15548e-05
8.61625e-06
3.19242e-05
1.17059e-05
2.6536e-05
1.44367e-05
2.58023e-05
1.69608e-05
3.0269e-05
1.9306e-05
3.60378e-05
2.14469e-05
3.40994e-05
2.3643e-05
2.80374e-05
2.5111e-05
2.61617e-05
2.63636e-05
2.07718e-05
2.70831e-05
7.74091e-06
2.65624e-05
-1.36521e-06
2.58407e-05
-5.20823e-06
2.53754e-05
-1.45988e-05
2.3907e-05
-2.45466e-05
2.09224e-05
-2.56982e-05
1.7892e-05
-1.85744e-05
1.52181e-05
-1.31605e-05
1.40079e-05
-1.39073e-05
1.2387e-05
-2.05285e-05
1.03896e-05
-2.79176e-05
7.68197e-06
-3.85047e-05
4.82152e-06
-4.77508e-05
4.10787e-06
-3.53544e-05
4.52867e-06
-1.66236e-05
4.68693e-06
-9.40379e-06
5.05564e-06
3.95434e-06
6.88388e-06
9.06762e-06
7.20448e-06
2.15408e-05
8.24616e-06
3.47043e-05
9.59189e-06
4.86824e-05
1.10086e-05
4.75296e-05
1.34258e-05
4.10385e-05
1.54061e-05
3.04691e-05
1.70387e-05
3.07987e-05
1.93082e-05
2.34548e-05
2.24383e-05
1.78822e-05
2.36291e-05
1.53785e-05
2.55353e-05
1.26902e-05
2.73207e-05
4.602e-06
2.83877e-05
2.13497e-06
2.68345e-05
-3.95831e-06
2.67484e-05
-1.15706e-06
2.70388e-05
-1.28123e-05
2.80395e-05
-1.47238e-05
2.74345e-05
-2.39367e-05
2.68652e-05
-1.66553e-05
2.43069e-05
-2.19538e-05
2.13265e-05
-2.22454e-06
2.11647e-05
-1.36326e-05
2.06182e-05
8.91935e-06
2.01627e-05
-1.19968e-05
1.70091e-05
1.78272e-05
2.03954e-05
-1.07857e-05
1.80644e-05
3.94426e-05
2.13387e-05
-1.17548e-05
2.04336e-05
3.78869e-05
2.13555e-05
-1.84566e-05
2.3937e-05
3.86124e-05
1.84138e-05
-3.48774e-06
2.10085e-05
2.65032e-05
3.35784e-05
-2.04876e-07
3.3893e-05
-1.72303e-06
3.35143e-05
-1.81501e-06
3.32221e-05
-1.75321e-06
3.36232e-05
-2.3556e-06
3.35125e-05
-1.45646e-06
3.39805e-05
-2.28575e-06
3.43942e-05
-3.63463e-06
3.46891e-05
-3.7538e-06
3.49227e-05
-5.51517e-06
3.46766e-05
-7.05879e-06
3.50148e-05
-7.72565e-06
3.49397e-05
-9.46051e-06
3.44286e-05
-1.03071e-05
3.44852e-05
-1.04406e-05
3.39652e-05
-1.01486e-05
3.32386e-05
-8.53437e-06
3.27349e-05
-7.69609e-06
3.17318e-05
-5.72431e-06
3.10687e-05
-3.70045e-06
3.02148e-05
-4.23353e-06
2.87993e-05
-3.61147e-06
2.78265e-05
-4.44704e-06
2.61572e-05
-6.11723e-06
2.42229e-05
-5.29262e-06
2.31315e-05
-7.40602e-06
2.08881e-05
-1.07481e-05
1.68138e-05
-1.05327e-05
1.28247e-05
-1.20854e-05
9.97907e-06
-1.81953e-05
7.72007e-06
-2.4542e-05
5.4918e-06
-2.97419e-05
3.44117e-06
-3.32157e-05
2.48816e-06
-3.17953e-05
2.57694e-06
-2.34133e-05
2.91674e-06
-1.20664e-05
2.69662e-06
-1.42445e-06
2.3624e-06
7.95337e-06
1.77462e-06
1.92051e-05
3.09936e-06
3.02301e-05
6.83118e-06
2.81924e-05
1.01584e-05
2.32088e-05
1.31248e-05
2.28359e-05
1.58977e-05
2.74961e-05
1.8604e-05
3.33315e-05
2.12693e-05
3.14341e-05
2.3507e-05
2.57997e-05
2.4805e-05
2.48636e-05