/*--------------------------------*- C++ -*----------------------------------*\
| =========                 |                                                 |
| \\      /  F ield         | OpenFOAM: The Open Source CFD Toolbox           |
|  \\    /   O peration     | Version:  2.4.0                                 |
|   \\  /    A nd           | Web:      www.OpenFOAM.org                      |
|    \\/     M anipulation  |                                                 |
\*---------------------------------------------------------------------------*/
FoamFile
{
    version     2.0;
    format      ascii;
    class       surfaceScalarField;
    location    "0.189";
    object      phi_0;
}
// * * * * * * * * * * * * * * * * * * * * * * * * * * * * * * * * * * * * * //

dimensions      [0 3 -1 0 0 0 0];

internalField   nonuniform List<scalar> 
8640
(
1.14653e-05
1.35347e-05
7.17428e-06
4.29098e-06
5.92149e-06
1.25278e-06
5.37187e-06
5.49617e-07
5.09435e-06
2.77524e-07
4.95045e-06
1.43899e-07
4.8433e-06
1.0715e-07
4.80859e-06
3.47159e-08
4.61294e-06
1.95647e-07
-1.27659e-06
5.88953e-06
2.10467e-05
1.74881e-05
1.74515e-05
7.8862e-06
1.55244e-05
3.17985e-06
1.42552e-05
1.81881e-06
1.34882e-05
1.04448e-06
1.3047e-05
5.85194e-07
1.27251e-05
4.28975e-07
1.26046e-05
1.5529e-07
1.2272e-05
5.28251e-07
-1.83657e-06
1.28319e-05
2.56935e-05
1.67946e-05
2.41003e-05
9.4794e-06
2.26302e-05
4.64991e-06
2.12339e-05
3.21516e-06
2.0225e-05
2.05334e-06
1.95908e-05
1.21942e-06
1.91141e-05
9.05647e-07
1.89181e-05
3.51335e-07
1.84551e-05
9.91225e-07
-2.36475e-06
1.89833e-05
2.74538e-05
1.43408e-05
2.77225e-05
9.2107e-06
2.73978e-05
4.97459e-06
2.6525e-05
4.088e-06
2.56519e-05
2.9264e-06
2.50217e-05
1.84967e-06
2.45128e-05
1.41457e-06
2.42578e-05
6.06316e-07
2.37753e-05
1.47367e-06
-2.79748e-06
2.42081e-05
2.76535e-05
1.16873e-05
2.88696e-05
7.9946e-06
2.96393e-05
4.20491e-06
2.96879e-05
4.03938e-06
2.93815e-05
3.23283e-06
2.90426e-05
2.18853e-06
2.87265e-05
1.73063e-06
2.84566e-05
8.76218e-07
2.81473e-05
1.78299e-06
-3.26654e-06
2.86164e-05
2.75198e-05
9.16742e-06
2.88785e-05
6.63598e-06
3.00251e-05
3.05825e-06
3.07126e-05
3.35192e-06
3.10797e-05
2.86571e-06
3.12484e-05
2.01982e-06
3.13815e-05
1.59755e-06
3.12059e-05
1.05181e-06
3.13164e-05
1.67254e-06
-3.2629e-06
3.13127e-05
2.74213e-05
6.74609e-06
2.88027e-05
5.25458e-06
2.99117e-05
1.94925e-06
3.07279e-05
2.53574e-06
3.13449e-05
2.24873e-06
3.18492e-05
1.51556e-06
3.23189e-05
1.12777e-06
3.23351e-05
1.03565e-06
3.30532e-05
9.54434e-07
-2.70998e-06
3.25003e-05
2.73061e-05
4.43994e-06
2.89122e-05
3.64856e-06
2.98254e-05
1.03605e-06
3.06171e-05
1.74397e-06
3.12789e-05
1.58692e-06
3.18423e-05
9.52205e-07
3.22461e-05
7.23948e-07
3.26588e-05
6.23e-07
3.36254e-05
-1.21738e-08
-3.22866e-06
3.41441e-05
2.72414e-05
2.19855e-06
2.89826e-05
1.90738e-06
2.96926e-05
3.25984e-07
3.04429e-05
9.93654e-07
3.12311e-05
7.98758e-07
3.17955e-05
3.87784e-07
3.22556e-05
2.63882e-07
3.2847e-05
3.16213e-08
3.34277e-05
-5.92909e-07
-3.53183e-06
3.37309e-05
2.72574e-05
-5.8825e-08
2.89656e-05
1.99161e-07
2.95744e-05
-2.82825e-07
3.03949e-05
1.732e-07
3.12266e-05
-3.30152e-08
3.18157e-05
-2.01249e-07
3.22746e-05
-1.95015e-07
3.27531e-05
-4.46886e-07
3.33233e-05
-1.1631e-06
-3.95347e-06
3.37449e-05
2.72241e-05
-2.28291e-06
2.89408e-05
-1.5176e-06
2.96267e-05
-9.6865e-07
3.0443e-05
-6.43164e-07
3.11946e-05
-7.84604e-07
3.17749e-05
-7.81522e-07
3.22203e-05
-6.4042e-07
3.2773e-05
-9.99576e-07
3.33464e-05
-1.73651e-06
-4.18281e-06
3.35757e-05
2.72402e-05
-4.52308e-06
2.89948e-05
-3.27218e-06
2.96895e-05
-1.66342e-06
3.04357e-05
-1.3893e-06
3.11904e-05
-1.53934e-06
3.18155e-05
-1.40665e-06
3.2309e-05
-1.13386e-06
3.28179e-05
-1.50852e-06
3.33199e-05
-2.23851e-06
-4.5715e-06
3.37086e-05
2.73152e-05
-6.83832e-06
2.89921e-05
-4.94905e-06
2.97095e-05
-2.38079e-06
3.05277e-05
-2.20755e-06
3.13288e-05
-2.34045e-06
3.19055e-05
-1.98328e-06
3.23546e-05
-1.58298e-06
3.27929e-05
-1.94688e-06
3.32921e-05
-2.73772e-06
-4.87518e-06
3.35958e-05
2.73767e-05
-9.215e-06
2.8863e-05
-6.43533e-06
2.9835e-05
-3.35287e-06
3.0728e-05
-3.10048e-06
3.14345e-05
-3.04693e-06
3.18671e-05
-2.41595e-06
3.2242e-05
-1.95783e-06
3.25076e-05
-2.21249e-06
3.27453e-05
-2.97542e-06
-4.71629e-06
3.25864e-05
2.74767e-05
-1.16917e-05
2.89301e-05
-7.88869e-06
2.99929e-05
-4.41568e-06
3.07606e-05
-3.86822e-06
3.112e-05
-3.40634e-06
3.12131e-05
-2.50906e-06
3.12483e-05
-1.99299e-06
3.11121e-05
-2.07633e-06
3.09054e-05
-2.76869e-06
-4.11498e-06
3.03041e-05
2.76426e-05
-1.43343e-05
2.89174e-05
-9.16355e-06
2.96095e-05
-5.10778e-06
2.97225e-05
-3.98119e-06
2.93782e-05
-3.06201e-06
2.89597e-05
-2.0906e-06
2.85865e-05
-1.61979e-06
2.81317e-05
-1.62155e-06
2.75924e-05
-2.22934e-06
-2.66573e-06
2.61431e-05
2.74549e-05
-1.67891e-05
2.77508e-05
-9.45952e-06
2.73684e-05
-4.72531e-06
2.6546e-05
-3.15884e-06
2.56252e-05
-2.14122e-06
2.49205e-05
-1.38587e-06
2.43623e-05
-1.0616e-06
2.38082e-05
-1.06749e-06
2.31385e-05
-1.55955e-06
-1.6991e-06
2.21718e-05
2.56978e-05
-1.74869e-05
2.41147e-05
-7.87645e-06
2.26056e-05
-3.21624e-06
2.12436e-05
-1.79688e-06
2.01889e-05
-1.08647e-06
1.94896e-05
-6.86581e-07
1.8952e-05
-5.23982e-07
1.84441e-05
-5.59625e-07
1.77542e-05
-8.69671e-07
-8.68885e-07
1.6924e-05
2.10485e-05
-1.35354e-05
1.74588e-05
-4.28673e-06
1.55071e-05
-1.26448e-06
1.42561e-05
-5.459e-07
1.34567e-05
-2.87075e-07
1.29563e-05
-1.8621e-07
1.25741e-05
-1.41712e-07
1.21899e-05
-1.75516e-07
1.16128e-05
-2.92482e-07
-2.82034e-07
1.10259e-05
1.14646e-05
7.17784e-06
5.91336e-06
5.36746e-06
5.08038e-06
4.89417e-06
4.75246e-06
4.57694e-06
4.28446e-06
4.00243e-06
6.90292e-06
7.18865e-08
-1.08528e-06
7.93797e-06
-1.15006e-06
1.15018e-07
8.80475e-06
-1.7729e-06
9.06122e-07
8.80594e-06
-2.335e-06
2.33381e-06
8.64415e-06
-1.96575e-06
2.12754e-06
8.86435e-06
1.02849e-06
-1.24868e-06
9.47609e-06
3.39935e-07
-9.51677e-07
1.02449e-05
1.76622e-06
-2.53504e-06
1.11667e-05
1.84953e-07
-1.10679e-06
1.2775e-05
1.45633e-06
-3.06457e-06
1.44073e-05
2.18805e-06
-3.82038e-06
1.58765e-05
-4.64207e-07
-1.00496e-06
1.78172e-05
-5.85937e-07
-1.35477e-06
1.95112e-05
-2.03182e-06
3.37829e-07
2.04658e-05
-4.76084e-06
3.80626e-06
2.12422e-05
-5.7331e-06
4.95671e-06
2.28807e-05
-8.54933e-06
6.91082e-06
2.46412e-05
-1.1485e-05
9.72454e-06
2.63392e-05
-1.30112e-05
1.13132e-05
2.79996e-05
-1.67575e-05
1.5097e-05
2.93134e-05
-2.11884e-05
1.98746e-05
3.01044e-05
-2.02207e-05
1.94298e-05
2.95893e-05
-2.07571e-05
2.12722e-05
2.89164e-05
-2.44033e-05
2.50762e-05
2.73121e-05
-1.91063e-05
2.07106e-05
2.50543e-05
-1.16437e-05
1.39015e-05
2.38013e-05
-5.07206e-06
6.32506e-06
2.31429e-05
4.59159e-06
-3.93321e-06
2.43815e-05
1.38627e-05
-1.51012e-05
2.60584e-05
1.73673e-05
-1.90442e-05
2.72142e-05
1.73795e-05
-1.85354e-05
2.82269e-05
1.26569e-05
-1.36695e-05
2.86331e-05
5.83528e-06
-6.24149e-06
2.84656e-05
-1.27336e-06
1.44085e-06
2.77257e-05
-1.04854e-05
1.12253e-05
2.62138e-05
-1.69394e-05
1.84513e-05
2.41399e-05
-1.91685e-05
2.12425e-05
2.19449e-05
-2.19532e-05
2.41482e-05
1.92152e-05
-2.49542e-05
2.76839e-05
1.55735e-05
-2.25534e-05
2.61951e-05
1.13892e-05
-1.46677e-05
1.8852e-05
7.5184e-06
-1.21392e-05
1.601e-05
5.09061e-06
-2.24153e-05
2.48431e-05
2.96582e-06
-4.19931e-05
4.41179e-05
3.86131e-06
-6.07403e-05
5.98448e-05
6.54821e-06
-5.56731e-05
5.29862e-05
7.43668e-06
-3.85539e-05
3.76654e-05
9.00074e-06
-2.70009e-05
2.54368e-05
1.15218e-05
-1.78431e-05
1.5322e-05
1.47951e-05
-1.02633e-05
6.99003e-06
1.80262e-05
-3.61769e-06
3.8655e-07
2.0101e-05
3.52156e-06
-5.59627e-06
2.12398e-05
9.9497e-06
-1.10886e-05
2.23185e-05
1.50389e-05
-1.61176e-05
2.42483e-05
2.3543e-05
-2.54728e-05
2.68441e-05
3.63901e-05
-3.89859e-05
2.8586e-05
4.83569e-05
-5.00988e-05
2.87628e-05
5.42252e-05
-5.4402e-05
2.77926e-05
5.23077e-05
-5.13374e-05
2.62228e-05
4.49673e-05
-4.33975e-05
2.4987e-05
3.51385e-05
-3.39028e-05
2.2911e-05
2.8121e-05
-2.6045e-05
2.13541e-05
1.62965e-05
-1.47396e-05
1.91605e-05
1.14857e-05
-9.29207e-06
1.91599e-05
1.04635e-06
-1.04572e-06
1.85616e-05
7.07397e-06
-6.47574e-06
1.83528e-05
3.46312e-06
-3.25434e-06
1.77006e-05
1.0703e-05
-1.00508e-05
1.82314e-05
7.54441e-06
-8.07521e-06
2.01229e-05
1.62478e-05
-1.81393e-05
2.01146e-05
1.57989e-05
-1.57906e-05
2.20869e-05
1.31536e-05
-1.51259e-05
2.33742e-05
6.30345e-06
-7.59078e-06
2.44128e-05
7.49579e-06
-8.53439e-06
2.43451e-05
-5.7315e-06
5.79929e-06
2.42214e-05
-9.65467e-06
9.77831e-06
2.30921e-05
-1.36598e-05
1.47891e-05
2.09202e-05
-1.20391e-05
1.42111e-05
2.04804e-05
-1.71514e-05
1.75911e-05
1.97851e-05
-1.64457e-05
1.7141e-05
1.87863e-05
-2.5293e-05
2.62918e-05
2.04057e-05
-2.29075e-05
2.12881e-05
1.99329e-05
-2.15894e-05
2.20622e-05
1.86098e-05
-2.89602e-05
3.02833e-05
1.78306e-05
-1.91195e-05
1.98986e-05
1.80429e-05
-7.25015e-06
7.0378e-06
1.96554e-05
-1.98077e-05
1.81952e-05
2.05623e-05
-2.66056e-05
2.56987e-05
2.178e-05
-2.34212e-05
2.22035e-05
2.22089e-05
-1.72452e-05
1.68163e-05
2.22761e-05
-1.13405e-05
1.12734e-05
2.25521e-05
3.37041e-06
-3.64648e-06
2.19375e-05
1.43648e-05
-1.37502e-05
2.14341e-05
1.93472e-05
-1.88438e-05
2.09797e-05
3.03117e-05
-2.98573e-05
2.02585e-05
4.32611e-05
-4.254e-05
1.92494e-05
5.24567e-05
-5.14476e-05
1.57339e-05
5.80175e-05
-5.45021e-05
1.4153e-05
5.82782e-05
-5.66973e-05
8.08184e-05
-7.88787e-05
1.22133e-05
1.34363e-05
-5.32521e-07
1.38074e-05
-1.52109e-06
1.4356e-05
-2.32158e-06
1.4269e-05
-2.24795e-06
1.42703e-05
-1.96703e-06
1.47834e-05
5.15354e-07
1.48509e-05
2.72436e-07
1.55806e-05
1.0365e-06
1.60755e-05
-3.09874e-07
1.71365e-05
3.95309e-07
1.87532e-05
5.71323e-07
1.98331e-05
-1.54406e-06
2.09522e-05
-1.70503e-06
2.25444e-05
-3.62411e-06
2.39978e-05
-6.21418e-06
2.51951e-05
-6.93043e-06
2.66352e-05
-9.9894e-06
2.81778e-05
-1.30277e-05
2.98419e-05
-1.46753e-05
3.11405e-05
-1.8056e-05
3.15147e-05
-2.15627e-05
3.19569e-05
-2.06629e-05
3.14506e-05
-2.02507e-05
3.01528e-05
-2.31055e-05
2.82843e-05
-1.72378e-05
2.61095e-05
-9.46896e-06
2.51836e-05
-4.14613e-06
2.49226e-05
4.85261e-06
2.59026e-05
1.28826e-05
2.73103e-05
1.59596e-05
2.84315e-05
1.62584e-05
2.93313e-05
1.17571e-05
2.96236e-05
5.54294e-06
2.92748e-05
-9.2452e-07
2.83688e-05
-9.57944e-06
2.66668e-05
-1.52375e-05
2.43244e-05
-1.68261e-05
2.1924e-05
-1.95528e-05
1.91539e-05
-2.21841e-05
1.5511e-05
-1.89105e-05
1.12747e-05
-1.04315e-05
7.23981e-06
-8.10434e-06
4.38548e-06
-1.9561e-05
2.13211e-06
-3.97398e-05
1.71282e-06
-6.0321e-05
3.95725e-06
-5.79175e-05
5.51772e-06
-4.01143e-05
7.15344e-06
-2.86366e-05
9.38326e-06
-2.00729e-05
1.26542e-05
-1.35342e-05
1.61328e-05
-7.09635e-06
1.85042e-05
1.15013e-06
1.98197e-05
8.63424e-06
2.08332e-05
1.40254e-05
2.23885e-05
2.19877e-05
2.46376e-05
3.41411e-05
2.6705e-05
4.62894e-05
2.77723e-05
5.31579e-05
2.74255e-05
5.26544e-05
2.60933e-05
4.62996e-05
2.54559e-05
3.57759e-05
2.40012e-05
2.95757e-05
2.26464e-05
1.76513e-05
2.04758e-05
1.36562e-05
2.00239e-05
1.49832e-06
1.97427e-05
7.35516e-06
1.94948e-05
3.71101e-06
1.94181e-05
1.07797e-05
1.92182e-05
7.74431e-06
2.15152e-05
1.39508e-05
2.17684e-05
1.55458e-05
2.28432e-05
1.20788e-05
2.41737e-05
4.97296e-06
2.53263e-05
6.34322e-06
2.48561e-05
-5.26135e-06
2.47456e-05
-9.54418e-06
2.36434e-05
-1.25575e-05
2.16866e-05
-1.00824e-05
2.10243e-05
-1.6489e-05
2.09129e-05
-1.63344e-05
2.01054e-05
-2.44855e-05
2.1375e-05
-2.41771e-05
2.07617e-05
-2.0976e-05
1.91504e-05
-2.73489e-05
1.78505e-05
-1.78196e-05
1.77475e-05
-7.14714e-06
1.94909e-05
-2.1551e-05
2.02141e-05
-2.73288e-05
2.1253e-05
-2.44601e-05
2.15993e-05
-1.75915e-05
2.15877e-05
-1.1329e-05
2.17129e-05
3.2453e-06
2.15482e-05
1.45295e-05
2.13644e-05
1.9531e-05
2.11676e-05
3.05085e-05
2.0477e-05
4.39517e-05
2.01623e-05
5.27714e-05
1.77725e-05
6.04073e-05
1.90682e-05
5.69825e-05
8.23744e-05
1.75123e-05
1.97282e-05
-1.27747e-06
1.97976e-05
-1.5905e-06
1.99585e-05
-2.48241e-06
1.9866e-05
-2.15549e-06
1.96597e-05
-1.76074e-06
2.04317e-05
-2.56605e-07
2.02178e-05
4.86317e-07
2.07632e-05
4.91119e-07
2.14759e-05
-1.02261e-06
2.20045e-05
-1.33287e-07
2.33802e-05
-8.04386e-07
2.45977e-05
-2.76157e-06
2.55258e-05
-2.63307e-06
2.67961e-05
-4.89444e-06
2.79243e-05
-7.3424e-06
2.91236e-05
-8.12971e-06
3.04964e-05
-1.13622e-05
3.1653e-05
-1.41843e-05
3.29228e-05
-1.59451e-05
3.35978e-05
-1.8731e-05
3.30358e-05
-2.10006e-05
3.28894e-05
-2.05165e-05
3.24597e-05
-1.98211e-05
3.09721e-05
-2.16179e-05
2.91598e-05
-1.54255e-05
2.70848e-05
-7.39397e-06
2.60265e-05
-3.08779e-06
2.6015e-05
4.86412e-06
2.70277e-05
1.18699e-05
2.82088e-05
1.47784e-05
2.9232e-05
1.52352e-05
3.01089e-05
1.08801e-05
3.01834e-05
5.46849e-06
2.96943e-05
-4.35506e-07
2.86479e-05
-8.533e-06
2.65547e-05
-1.31443e-05
2.40821e-05
-1.43535e-05
2.17498e-05
-1.72205e-05
1.90011e-05
-1.94354e-05
1.54006e-05
-1.53099e-05
1.12461e-05
-6.27695e-06
7.15417e-06
-4.01242e-06
3.95198e-06
-1.63588e-05
1.4227e-06
-3.72105e-05
-5.21471e-07
-5.83769e-05
1.32433e-06
-5.97633e-05
3.50925e-06
-4.22993e-05
5.27332e-06
-3.04007e-05
7.77885e-06
-2.25784e-05
1.1009e-05
-1.67643e-05
1.41639e-05
-1.02512e-05
1.66419e-05
-1.32786e-06
1.82039e-05
7.07223e-06
1.90516e-05
1.31776e-05
2.03145e-05
2.07248e-05
2.25699e-05
3.18856e-05
2.48428e-05
4.40165e-05
2.6223e-05
5.17777e-05
2.65398e-05
5.23377e-05
2.57588e-05
4.70805e-05
2.5513e-05
3.60218e-05
2.46683e-05
3.04204e-05
2.36227e-05
1.86969e-05
2.15898e-05
1.56891e-05
2.06074e-05
2.48076e-06
2.06648e-05
7.2978e-06
2.02714e-05
4.1044e-06
2.09616e-05
1.00895e-05
2.02609e-05
8.44506e-06
2.20559e-05
1.21558e-05
2.29764e-05
1.46253e-05
2.33532e-05
1.1702e-05
2.43718e-05
3.95432e-06
2.58757e-05
4.8393e-06
2.49568e-05
-4.34243e-06
2.48284e-05
-9.41572e-06
2.38266e-05
-1.15558e-05
2.25369e-05
-8.79263e-06
2.17867e-05
-1.57388e-05
2.18578e-05
-1.64055e-05
2.10261e-05
-2.36537e-05
2.17847e-05
-2.49358e-05
2.12952e-05
-2.04865e-05
1.95345e-05
-2.55882e-05
1.78327e-05
-1.61177e-05
1.7414e-05
-6.72851e-06
1.90483e-05
-2.31853e-05
1.96613e-05
-2.79419e-05
2.0417e-05
-2.52159e-05
2.02947e-05
-1.74692e-05
2.02267e-05
-1.1261e-05
2.0807e-05
2.66499e-06
2.11812e-05
1.41553e-05
2.0769e-05
1.99432e-05
2.09142e-05
3.03632e-05
2.05927e-05
4.42732e-05
2.08756e-05
5.24886e-05
1.906e-05
6.22229e-05
2.2459e-05
5.35835e-05
8.30175e-05
2.18158e-05
2.49804e-05
-2.04979e-06
2.50182e-05
-1.62828e-06
2.50062e-05
-2.47038e-06
2.50129e-05
-2.16224e-06
2.45487e-05
-1.29659e-06
2.52382e-05
-9.46073e-07
2.50513e-05
6.73196e-07
2.52099e-05
3.32527e-07
2.59918e-05
-1.80444e-06
2.63714e-05
-5.12927e-07
2.74648e-05
-1.89776e-06
2.86862e-05
-3.98299e-06
2.95239e-05
-3.4708e-06
3.05273e-05
-5.89785e-06
3.15697e-05
-8.38482e-06
3.25833e-05
-9.14322e-06
3.33491e-05
-1.2128e-05
3.39061e-05
-1.47414e-05
3.46354e-05
-1.66744e-05
3.47775e-05
-1.88732e-05
3.37821e-05
-2.00052e-05
3.34124e-05
-2.01467e-05
3.30442e-05
-1.94529e-05
3.10687e-05
-1.96424e-05
2.93116e-05
-1.36684e-05
2.80894e-05
-6.17172e-06
2.72622e-05
-2.26064e-06
2.70739e-05
5.05244e-06
2.78653e-05
1.10785e-05
2.86893e-05
1.39545e-05
2.95655e-05
1.4359e-05
3.04293e-05
1.00163e-05
3.02731e-05
5.62473e-06
2.96389e-05
1.98644e-07
2.83406e-05
-7.23465e-06
2.59581e-05
-1.07617e-05
2.35981e-05
-1.19935e-05
2.15755e-05
-1.51979e-05
1.9061e-05
-1.69209e-05
1.54929e-05
-1.17418e-05
1.13384e-05
-2.12252e-06
7.38913e-06
-6.31057e-08
3.96649e-06
-1.29361e-05
8.52836e-07
-3.40968e-05
-1.99046e-06
-5.55336e-05
-6.44797e-07
-6.11089e-05
1.96805e-06
-4.49121e-05
3.67699e-06
-3.21096e-05
6.67297e-06
-2.55744e-05
9.69806e-06
-1.97894e-05
1.22409e-05
-1.27941e-05
1.44501e-05
-3.53709e-06
1.61779e-05
5.34442e-06
1.72926e-05
1.20629e-05
1.83781e-05
1.96393e-05
2.01295e-05
3.01343e-05
2.2457e-05
4.16889e-05
2.44335e-05
4.98012e-05
2.54729e-05
5.12983e-05
2.5056e-05
4.74974e-05
2.50346e-05
3.60431e-05
2.4802e-05
3.0653e-05
2.41836e-05
1.93154e-05
2.24683e-05
1.74043e-05
2.10671e-05
3.88198e-06
2.13997e-05
6.96522e-06
2.07361e-05
4.76802e-06
2.21349e-05
8.69065e-06
2.16669e-05
8.91302e-06
2.24206e-05
1.14021e-05
2.35098e-05
1.35361e-05
2.36144e-05
1.15974e-05
2.40735e-05
3.4952e-06
2.56718e-05
3.24101e-06
2.49488e-05
-3.61938e-06
2.48631e-05
-9.33002e-06
2.39065e-05
-1.05993e-05
2.30382e-05
-7.92435e-06
2.21783e-05
-1.48788e-05
2.26228e-05
-1.68501e-05
2.1808e-05
-2.28389e-05
2.16926e-05
-2.48204e-05
2.13984e-05
-2.01923e-05
1.92794e-05
-2.34692e-05
1.7386e-05
-1.42243e-05
1.71928e-05
-6.53533e-06
1.8609e-05
-2.46015e-05
1.91204e-05
-2.84532e-05
1.93776e-05
-2.54731e-05
1.87919e-05
-1.68835e-05
1.92338e-05
-1.17029e-05
2.03659e-05
1.53291e-06
2.08233e-05
1.3698e-05
2.01656e-05
2.06009e-05
2.07857e-05
2.97431e-05
2.03392e-05
4.47197e-05
2.15079e-05
5.13199e-05
1.99665e-05
6.37643e-05
2.43105e-05
4.92395e-05
8.23032e-05
2.50249e-05
2.89484e-05
-2.38186e-06
2.90285e-05
-1.70833e-06
2.89453e-05
-2.38721e-06
2.89993e-05
-2.21618e-06
2.85785e-05
-8.75842e-07
2.89731e-05
-1.34067e-06
2.89932e-05
6.53092e-07
2.90391e-05
2.86621e-07
2.95918e-05
-2.35709e-06
3.00371e-05
-9.58297e-07
3.0776e-05
-2.63659e-06
3.1623e-05
-4.83002e-06
3.2544e-05
-4.3918e-06
3.32134e-05
-6.56729e-06
3.38255e-05
-8.99684e-06
3.47109e-05
-1.00287e-05
3.5046e-05
-1.24631e-05
3.5165e-05
-1.48603e-05
3.52594e-05
-1.67688e-05
3.47739e-05
-1.83877e-05
3.37926e-05
-1.90239e-05
3.34269e-05
-1.97811e-05
3.31315e-05
-1.91574e-05
3.12449e-05
-1.77558e-05
2.97108e-05
-1.21343e-05
2.91292e-05
-5.59015e-06
2.82929e-05
-1.42429e-06
2.79825e-05
5.36279e-06
2.8462e-05
1.0599e-05
2.87616e-05
1.36549e-05
2.95379e-05
1.35827e-05
3.00822e-05
9.47198e-06
2.95725e-05
6.13451e-06
2.89447e-05
8.26418e-07
2.74578e-05
-5.74776e-06
2.51257e-05
-8.42967e-06
2.32848e-05
-1.01526e-05
2.15623e-05
-1.34754e-05
1.9062e-05
-1.44207e-05
1.56264e-05
-8.30617e-06
1.16562e-05
1.84767e-06
7.99437e-06
3.59869e-06
4.48987e-06
-9.43163e-06
1.00756e-06
-3.06145e-05
-2.41781e-06
-5.21082e-05
-1.28465e-06
-6.22421e-05
1.24072e-06
-4.74375e-05
2.44741e-06
-3.33163e-05
5.2511e-06
-2.83781e-05
7.90047e-06
-2.24388e-05
1.00608e-05
-1.49544e-05
1.20903e-05
-5.56661e-06
1.39027e-05
3.53206e-06
1.49436e-05
1.1022e-05
1.58642e-05
1.87187e-05
1.77613e-05
2.82372e-05
2.01168e-05
3.93334e-05
2.20473e-05
4.78707e-05
2.37333e-05
4.96124e-05
2.40261e-05
4.72046e-05
2.43715e-05
3.56978e-05
2.46565e-05
3.03681e-05
2.44347e-05
1.95371e-05
2.29221e-05
1.89169e-05
2.1272e-05
5.53212e-06
2.17797e-05
6.45744e-06
2.09542e-05
5.59351e-06
2.26394e-05
7.00545e-06
2.29956e-05
8.55686e-06
2.30707e-05
1.13269e-05
2.39225e-05
1.26844e-05
2.40022e-05
1.15176e-05
2.38279e-05
3.66953e-06
2.5324e-05
1.74486e-06
2.49852e-05
-3.28055e-06
2.47336e-05
-9.07838e-06
2.3883e-05
-9.74873e-06
2.34873e-05
-7.5286e-06
2.27733e-05
-1.41648e-05
2.31189e-05
-1.71957e-05
2.20708e-05
-2.17908e-05
2.14198e-05
-2.41694e-05
2.12642e-05
-2.00366e-05
1.87587e-05
-2.09637e-05
1.6831e-05
-1.22967e-05
1.68962e-05
-6.60054e-06
1.78885e-05
-2.55937e-05
1.82937e-05
-2.88585e-05
1.84663e-05
-2.56457e-05
1.79529e-05
-1.63701e-05
1.87784e-05
-1.25284e-05
1.89258e-05
1.3855e-06
1.95461e-05
1.30777e-05
1.93817e-05
2.07652e-05
2.0778e-05
2.83468e-05
2.03719e-05
4.51257e-05
2.24941e-05
4.91977e-05
2.1141e-05
6.51174e-05
2.5905e-05
4.44755e-05
8.06494e-05
2.75587e-05
3.14859e-05
-2.55507e-06
3.17449e-05
-1.96729e-06
3.16296e-05
-2.27195e-06
3.15164e-05
-2.10296e-06
3.13307e-05
-6.90176e-07
3.14079e-05
-1.41778e-06
3.16236e-05
4.37397e-07
3.18927e-05
1.74402e-08
3.2132e-05
-2.59631e-06
3.27121e-05
-1.53847e-06
3.32955e-05
-3.22e-06
3.36941e-05
-5.22854e-06
3.44727e-05
-5.17044e-06
3.48182e-05
-6.91281e-06
3.49514e-05
-9.13001e-06
3.54958e-05
-1.05731e-05
3.54048e-05
-1.23721e-05
3.5113e-05
-1.45685e-05
3.48418e-05
-1.64976e-05
3.42027e-05
-1.77485e-05
3.3726e-05
-1.85472e-05
3.3647e-05
-1.9702e-05
3.3119e-05
-1.86295e-05
3.14693e-05
-1.61061e-05
3.07278e-05
-1.13928e-05
3.05259e-05
-5.38825e-06
2.94154e-05
-3.13849e-07
2.88906e-05
5.88767e-06
2.87599e-05
1.07297e-05
2.85309e-05
1.38839e-05
2.90749e-05
1.30387e-05
2.89923e-05
9.55456e-06
2.83132e-05
6.8136e-06
2.79001e-05
1.23948e-06
2.6504e-05
-4.35164e-06
2.45289e-05
-6.45457e-06
2.3149e-05
-8.77266e-06
2.16315e-05
-1.19579e-05
1.9086e-05
-1.18752e-05
1.57868e-05
-5.00696e-06
1.20904e-05
5.54408e-06
8.76979e-06
6.91931e-06
5.48637e-06
-6.14821e-06
2.04083e-06
-2.7169e-05
-1.68276e-06
-4.83846e-05
-1.83995e-06
-6.20849e-05
3.5992e-07
-4.96373e-05
1.24834e-06
-3.42047e-05
3.20595e-06
-3.03357e-05
5.34715e-06
-2.458e-05
7.54231e-06
-1.71495e-05
9.5538e-06
-7.5781e-06
1.11965e-05
1.88938e-06
1.2366e-05
9.85245e-06
1.34784e-05
1.76064e-05
1.50873e-05
2.66282e-05
1.73849e-05
3.70358e-05
1.97116e-05
4.5544e-05
2.19818e-05
4.73421e-05
2.27609e-05
4.64256e-05
2.31914e-05
3.52672e-05
2.38664e-05
2.96931e-05
2.43548e-05
1.90487e-05
2.31408e-05
2.01309e-05
2.12035e-05
7.4694e-06
2.19807e-05
5.68025e-06
2.11595e-05
6.41467e-06
2.25047e-05
5.66029e-06
2.39816e-05
7.07997e-06
2.39019e-05
1.14066e-05
2.42733e-05
1.2313e-05
2.46659e-05
1.1125e-05
2.38839e-05
4.45154e-06
2.49954e-05
6.33351e-07
2.52648e-05
-3.54995e-06
2.49284e-05
-8.74201e-06
2.40616e-05
-8.88195e-06
2.36975e-05
-7.16443e-06
2.32259e-05
-1.36932e-05
2.35525e-05
-1.75224e-05
2.26671e-05
-2.09053e-05
2.17064e-05
-2.32087e-05
2.08886e-05
-1.92188e-05
1.78382e-05
-1.79133e-05
1.60129e-05
-1.04714e-05
1.63211e-05
-6.90874e-06
1.67711e-05
-2.60437e-05
1.71913e-05
-2.92786e-05
1.7408e-05
-2.58625e-05
1.67058e-05
-1.56678e-05
1.75554e-05
-1.3378e-05
1.71002e-05
1.84075e-06
1.86437e-05
1.15341e-05
1.82813e-05
2.11276e-05
2.00122e-05
2.6616e-05
1.92669e-05
4.5871e-05
2.26827e-05
4.57819e-05
2.15122e-05
6.62878e-05
2.62784e-05
3.97093e-05
7.7887e-05
2.90409e-05
3.25514e-05
-2.6062e-06
3.29554e-05
-2.37134e-06
3.28505e-05
-2.167e-06
3.25825e-05
-1.83499e-06
3.26273e-05
-7.34998e-07
3.24897e-05
-1.28017e-06
3.28841e-05
4.30794e-08
3.34375e-05
-5.35972e-07
3.35245e-05
-2.6833e-06
3.42475e-05
-2.26155e-06
3.46088e-05
-3.58131e-06
3.46135e-05
-5.23324e-06
3.51958e-05
-5.75269e-06
3.51776e-05
-6.89464e-06
3.49027e-05
-8.85512e-06
3.50904e-05
-1.07607e-05
3.47868e-05
-1.20686e-05
3.43651e-05
-1.41468e-05
3.41348e-05
-1.62673e-05
3.38965e-05
-1.75102e-05
3.38196e-05
-1.84703e-05
3.36556e-05
-1.9538e-05
3.31761e-05
-1.815e-05
3.2071e-05
-1.5001e-05
3.15903e-05
-1.09121e-05
3.12424e-05
-5.04034e-06
3.01907e-05
7.37803e-07
2.95941e-05
6.48434e-06
2.87276e-05
1.15961e-05
2.81681e-05
1.44434e-05
2.82581e-05
1.29488e-05
2.76178e-05
1.01948e-05
2.71847e-05
7.24673e-06
2.70049e-05
1.41926e-06
2.57461e-05
-3.09287e-06
2.41716e-05
-4.88002e-06
2.31118e-05
-7.71288e-06
2.1592e-05
-1.04382e-05
1.90419e-05
-9.32507e-06
1.59186e-05
-1.88358e-06
1.2675e-05
8.78764e-06
9.79283e-06
9.80148e-06
6.91791e-06
-3.27328e-06
3.44394e-06
-2.3695e-05
-6.6769e-07
-4.4273e-05
-3.14035e-06
-5.96123e-05
-1.33887e-06
-5.14388e-05
2.37802e-07
-3.57814e-05
1.15212e-06
-3.125e-05
2.86613e-06
-2.6294e-05
4.94031e-06
-1.92237e-05
6.82231e-06
-9.4601e-06
8.31294e-06
3.98749e-07
9.60978e-06
8.55561e-06
1.05792e-05
1.66369e-05
1.23793e-05
2.48281e-05
1.49462e-05
3.44689e-05
1.69165e-05
4.35737e-05
1.95438e-05
4.47149e-05
2.12243e-05
4.47451e-05
2.2024e-05
3.44676e-05
2.28035e-05
2.89135e-05
2.39121e-05
1.79402e-05
2.33207e-05
2.07222e-05
2.10196e-05
9.77057e-06
2.17832e-05
4.91664e-06
2.14213e-05
6.77654e-06
2.18393e-05
5.24231e-06
2.41818e-05
4.73748e-06
2.47232e-05
1.08652e-05
2.46875e-05
1.23486e-05
2.53866e-05
1.04259e-05
2.45037e-05
5.33439e-06
2.50789e-05
5.81713e-08
2.56664e-05
-4.13742e-06
2.50472e-05
-8.12287e-06
2.43404e-05
-8.17508e-06
2.42976e-05
-7.12162e-06
2.40157e-05
-1.34114e-05
2.38062e-05
-1.73128e-05
2.27707e-05
-1.98699e-05
2.17576e-05
-2.21956e-05
2.06925e-05
-1.81538e-05
1.72883e-05
-1.4509e-05
1.5488e-05
-8.67109e-06
1.58469e-05
-7.26764e-06
1.55718e-05
-2.57687e-05
1.58135e-05
-2.95203e-05
1.58868e-05
-2.59357e-05
1.52528e-05
-1.50339e-05
1.64194e-05
-1.45446e-05
1.62073e-05
2.05283e-06
1.85193e-05
9.22211e-06
1.73849e-05
2.2262e-05
1.97504e-05
2.42505e-05
1.86198e-05
4.70016e-05
2.27214e-05
4.16803e-05
2.18003e-05
6.7209e-05
2.57936e-05
3.5716e-05
7.4129e-05
2.95515e-05
3.35142e-05
-1.97634e-06
3.31743e-05
-2.03141e-06
3.2868e-05
-1.86076e-06
3.26623e-05
-1.62927e-06
3.28619e-05
-9.34603e-07
3.26677e-05
-1.08597e-06
3.32609e-05
-5.50134e-07
3.39534e-05
-1.22842e-06
3.40428e-05
-2.77273e-06
3.47168e-05
-2.93552e-06
3.48029e-05
-3.66741e-06
3.44881e-05
-4.91843e-06
3.47152e-05
-5.97984e-06
3.4493e-05
-6.67246e-06
3.40988e-05
-8.46091e-06
3.41306e-05
-1.07925e-05
3.40233e-05
-1.19613e-05
3.38415e-05
-1.3965e-05
3.37861e-05
-1.62119e-05
3.38259e-05
-1.755e-05
3.39822e-05
-1.86266e-05
3.35719e-05
-1.91277e-05
3.2856e-05
-1.74341e-05
3.21644e-05
-1.43094e-05
3.17486e-05
-1.04964e-05
3.11315e-05
-4.4232e-06
3.0024e-05
1.84532e-06
2.91216e-05
7.38671e-06
2.8152e-05
1.25657e-05
2.76867e-05
1.49087e-05
2.73173e-05
1.33181e-05
2.67063e-05
1.08058e-05
2.67783e-05
7.17474e-06
2.65406e-05
1.65691e-06
2.52287e-05
-1.78094e-06
2.39704e-05
-3.6217e-06
2.30942e-05
-6.83669e-06
2.14517e-05
-8.79568e-06
1.88171e-05
-6.6905e-06
1.5834e-05
1.09957e-06
1.31032e-05
1.15184e-05
1.08344e-05
1.20703e-05
8.37837e-06
-8.17261e-07
4.82384e-06
-2.01405e-05
1.02007e-07
-3.95512e-05
-4.31487e-06
-5.51954e-05
-2.87173e-06
-5.2882e-05
-8.38359e-07
-3.78148e-05
-6.31453e-07
-3.1457e-05
4.92502e-07
-2.7418e-05
2.10515e-06
-2.08363e-05
3.75924e-06
-1.11142e-05
5.15745e-06
-9.99461e-07
6.47978e-06
7.23328e-06
7.69608e-06
1.54206e-05
9.50746e-06
2.30168e-05
1.1779e-05
3.21973e-05
1.41806e-05
4.11721e-05
1.73016e-05
4.15939e-05
1.93332e-05
4.27135e-05
2.07577e-05
3.30431e-05
2.15293e-05
2.81419e-05
2.26528e-05
1.68168e-05
2.29658e-05
2.04092e-05
2.09676e-05
1.17687e-05
2.13001e-05
4.58416e-06
2.15457e-05
6.53095e-06
2.15364e-05
5.25158e-06
2.38382e-05
2.43569e-06
2.51107e-05
9.59274e-06
2.53797e-05
1.20797e-05
2.6181e-05
9.6246e-06
2.5562e-05
5.9534e-06
2.5554e-05
6.61588e-08
2.59961e-05
-4.57952e-06
2.51699e-05
-7.29673e-06
2.44279e-05
-7.43305e-06
2.45801e-05
-7.27383e-06
2.44194e-05
-1.32507e-05
2.40846e-05
-1.6978e-05
2.33306e-05
-1.91158e-05
2.18805e-05
-2.07455e-05
1.98353e-05
-1.61086e-05
1.63171e-05
-1.09908e-05
1.48503e-05
-7.20427e-06
1.51384e-05
-7.55575e-06
1.41804e-05
-2.48107e-05
1.40194e-05
-2.93593e-05
1.37985e-05
-2.57148e-05
1.36906e-05
-1.4926e-05
1.49625e-05
-1.58165e-05
1.46591e-05
2.35627e-06
1.69276e-05
6.95356e-06
1.56119e-05
2.35778e-05
1.90953e-05
2.07671e-05
1.83099e-05
4.77869e-05
2.31583e-05
3.68319e-05
2.24309e-05
6.79364e-05
2.57871e-05
3.23598e-05
7.00991e-05
2.9817e-05
3.34616e-05
-1.70705e-06
3.3138e-05
-1.70783e-06
3.2845e-05
-1.56775e-06
3.27218e-05
-1.50605e-06
3.27371e-05
-9.49943e-07
3.27928e-05
-1.14167e-06
3.35991e-05
-1.35647e-06
3.41721e-05
-1.80138e-06
3.42131e-05
-2.81375e-06
3.4487e-05
-3.20937e-06
3.43473e-05
-3.52772e-06
3.39511e-05
-4.52228e-06
3.38649e-05
-5.89361e-06
3.38412e-05
-6.64878e-06
3.37929e-05
-8.4126e-06
3.38464e-05
-1.0846e-05
3.38589e-05
-1.19737e-05
3.36963e-05
-1.38025e-05
3.36293e-05
-1.61448e-05
3.35879e-05
-1.75086e-05
3.33781e-05
-1.84168e-05
3.27449e-05
-1.84945e-05
3.19593e-05
-1.66485e-05
3.12133e-05
-1.35634e-05
3.03654e-05
-9.64851e-06
2.94901e-05
-3.54788e-06
2.86449e-05
2.69049e-06
2.79152e-05
8.11645e-06
2.72747e-05
1.32062e-05
2.70281e-05
1.51553e-05
2.67365e-05
1.36098e-05
2.6493e-05
1.10493e-05
2.66116e-05
7.05614e-06
2.60252e-05
2.24337e-06
2.46477e-05
-4.03438e-07
2.36416e-05
-2.61565e-06
2.28186e-05
-6.01367e-06
2.10645e-05
-7.04158e-06
1.84145e-05
-4.0405e-06
1.56252e-05
3.88882e-06
1.33782e-05
1.37654e-05
1.17492e-05
1.36993e-05
9.82654e-06
1.10544e-06
6.39551e-06
-1.67095e-05
1.19054e-06
-3.43462e-05
-4.05943e-06
-4.99454e-05
-3.43677e-06
-5.35046e-05
-1.74477e-06
-3.95068e-05
-2.09195e-06
-3.11098e-05
-1.76468e-06
-2.77452e-05
-1.02645e-06
-2.15746e-05
3.75186e-07
-1.25158e-05
1.82963e-06
-2.45391e-06
3.23857e-06
5.82434e-06
4.47885e-06
1.41803e-05
6.42396e-06
2.10717e-05
9.1568e-06
2.94645e-05
1.16581e-05
3.86708e-05
1.45632e-05
3.86888e-05
1.73123e-05
3.99644e-05
1.92383e-05
3.1117e-05
2.01039e-05
2.72763e-05
2.12981e-05
1.56225e-05
2.25439e-05
1.91634e-05
2.12755e-05
1.30371e-05
2.07007e-05
5.15897e-06
2.09406e-05
6.29105e-06
2.15149e-05
4.67721e-06
2.34027e-05
5.47943e-07
2.4783e-05
8.21242e-06
2.55311e-05
1.13316e-05
2.64558e-05
8.69994e-06
2.63021e-05
6.10704e-06
2.6189e-05
1.79329e-07
2.61783e-05
-4.56887e-06
2.51946e-05
-6.31298e-06
2.44312e-05
-6.66966e-06
2.49363e-05
-7.779e-06
2.48248e-05
-1.31391e-05
2.40806e-05
-1.62338e-05
2.3175e-05
-1.82102e-05
2.15049e-05
-1.90754e-05
1.90235e-05
-1.36272e-05
1.57609e-05
-7.7282e-06
1.39999e-05
-5.44332e-06
1.37649e-05
-7.32066e-06
1.24241e-05
-2.34699e-05
1.18705e-05
-2.88057e-05
1.13881e-05
-2.52325e-05
1.1971e-05
-1.55089e-05
1.30753e-05
-1.69207e-05
1.26622e-05
2.76937e-06
1.50235e-05
4.59217e-06
1.38935e-05
2.47079e-05
1.78585e-05
1.6802e-05
1.70565e-05
4.8589e-05
2.30222e-05
3.08662e-05
2.28422e-05
6.81163e-05
2.51074e-05
3.00946e-05
6.54637e-05
2.97428e-05
3.35717e-05
-1.53382e-06
3.31651e-05
-1.30127e-06
3.28692e-05
-1.2718e-06
3.27673e-05
-1.40423e-06
3.28755e-05
-1.05809e-06
3.32054e-05
-1.47157e-06
3.37335e-05
-1.88459e-06
3.39383e-05
-2.00621e-06
3.36981e-05
-2.57355e-06
3.36217e-05
-3.13292e-06
3.37334e-05
-3.63942e-06
3.3677e-05
-4.4659e-06
3.37289e-05
-5.94553e-06
3.40988e-05
-7.01862e-06
3.40418e-05
-8.35565e-06
3.37138e-05
-1.0518e-05
3.36024e-05
-1.18623e-05
3.32199e-05
-1.342e-05
3.28555e-05
-1.57804e-05
3.26803e-05
-1.73334e-05
3.20982e-05
-1.78348e-05
3.10015e-05
-1.73978e-05
2.99704e-05
-1.56175e-05
2.89994e-05
-1.25923e-05
2.7723e-05
-8.37217e-06
2.67921e-05
-2.61696e-06
2.64838e-05
2.99886e-06
2.62556e-05
8.34459e-06
2.60634e-05
1.33985e-05
2.61714e-05
1.50473e-05
2.62044e-05
1.35767e-05
2.61357e-05
1.1118e-05
2.58534e-05
7.33849e-06
2.4815e-05
3.28173e-06
2.36734e-05
7.3816e-07
2.30691e-05
-2.01129e-06
2.21857e-05
-5.13031e-06
2.0293e-05
-5.14893e-06
1.77675e-05
-1.51499e-06
1.53236e-05
6.33273e-06
1.36149e-05
1.54742e-05
1.2629e-05
1.46851e-05
1.12946e-05
2.43988e-06
8.32913e-06
-1.3744e-05
3.04819e-06
-2.90653e-05
-2.48412e-06
-4.44131e-05
-3.69323e-06
-5.22955e-05
-2.69444e-06
-4.05056e-05
-3.30982e-06
-3.04944e-05