/*--------------------------------*- C++ -*----------------------------------*\
| =========                 |                                                 |
| \\      /  F ield         | OpenFOAM: The Open Source CFD Toolbox           |
|  \\    /   O peration     | Version:  2.4.0                                 |
|   \\  /    A nd           | Web:      www.OpenFOAM.org                      |
|    \\/     M anipulation  |                                                 |
\*---------------------------------------------------------------------------*/
FoamFile
{
    version     2.0;
    format      ascii;
    class       volVectorField;
    location    "0.189";
    object      U;
}
// * * * * * * * * * * * * * * * * * * * * * * * * * * * * * * * * * * * * * //

dimensions      [0 1 -1 0 0 0 0];

internalField   nonuniform List<vector> 
4400
(
(5.40489 0.316763 0)
(3.314 0.0607095 0)
(2.58516 0.00145082 0)
(2.23433 -0.00222834 0)
(2.08246 -0.00129135 0)
(1.99953 -0.000895419 0)
(1.95879 -0.000297767 0)
(1.91794 -0.000276877 0)
(1.94298 0.000451961 0)
(1.62482 -0.0577137 0)
(8.68952 0.857386 0)
(7.53403 0.344569 0)
(6.63476 0.116095 0)
(5.91236 0.0547706 0)
(5.52154 0.0271767 0)
(5.27828 0.0141913 0)
(5.15631 0.0104418 0)
(5.02671 0.00334154 0)
(5.07892 0.017975 0)
(4.55406 -0.0869671 0)
(9.89996 0.937389 0)
(9.97829 0.477083 0)
(9.50125 0.21246 0)
(8.75504 0.129636 0)
(8.26952 0.0757705 0)
(7.92029 0.0424495 0)
(7.74951 0.0307995 0)
(7.54256 0.0107865 0)
(7.62298 0.0369081 0)
(6.92395 -0.105526 0)
(10.1401 0.807751 0)
(11.0955 0.498135 0)
(11.2814 0.264254 0)
(10.8307 0.197203 0)
(10.4453 0.131728 0)
(10.0872 0.078952 0)
(9.92677 0.0586636 0)
(9.68119 0.0222908 0)
(9.76139 0.0613697 0)
(9.02194 -0.125356 0)
(10.081 0.647816 0)
(11.2976 0.437075 0)
(11.9894 0.24296 0)
(11.9714 0.218291 0)
(11.8713 0.167583 0)
(11.6462 0.110094 0)
(11.583 0.0846958 0)
(11.3903 0.0377692 0)
(11.4147 0.0866086 0)
(10.8543 -0.146025 0)
(10.0669 0.516215 0)
(11.2153 0.362701 0)
(12.0449 0.1809 0)
(12.2751 0.186745 0)
(12.4429 0.160858 0)
(12.4348 0.113727 0)
(12.5579 0.0932118 0)
(12.5253 0.047852 0)
(12.4848 0.103594 0)
(12.3159 -0.156495 0)
(10.0782 0.395662 0)
(11.1479 0.29697 0)
(11.9712 0.126283 0)
(12.2839 0.142821 0)
(12.4993 0.12881 0)
(12.5949 0.0904784 0)
(12.8783 0.0693256 0)
(12.933 0.0538808 0)
(12.9674 0.0779683 0)
(13.2182 -0.13439 0)
(10.0604 0.273775 0)
(11.0969 0.229562 0)
(11.9232 0.0728409 0)
(12.2685 0.105711 0)
(12.4556 0.0938508 0)
(12.604 0.0640771 0)
(12.8495 0.0404782 0)
(12.8903 0.0508483 0)
(13.172 0.0185446 0)
(13.4217 -0.135581 0)
(10.0013 0.167624 0)
(11.1193 0.139581 0)
(11.9034 0.0328916 0)
(12.1842 0.0642399 0)
(12.4101 0.0634628 0)
(12.6223 0.0318006 0)
(12.7718 0.0299017 0)
(12.9556 0.00889421 0)
(13.1998 -0.0113984 0)
(13.248 -0.165769 0)
(9.99108 0.0519799 0)
(11.1513 0.0532544 0)
(11.8387 -0.000197068 0)
(12.1527 0.0318124 0)
(12.4034 0.0174697 0)
(12.6297 0.00613001 0)
(12.7722 -0.00318769 0)
(12.9626 -0.00745705 0)
(13.105 -0.0379504 0)
(13.2553 -0.200787 0)
(9.99945 -0.0583226 0)
(11.1179 -0.0324786 0)
(11.8478 -0.0284864 0)
(12.1853 -0.0146032 0)
(12.4092 -0.0205456 0)
(12.6061 -0.0252706 0)
(12.7583 -0.0181176 0)
(12.9326 -0.0358709 0)
(13.1416 -0.0761685 0)
(13.2507 -0.201162 0)
(9.99763 -0.169563 0)
(11.1231 -0.120825 0)
(11.9021 -0.0673431 0)
(12.1868 -0.050075 0)
(12.3979 -0.0554571 0)
(12.6113 -0.0539591 0)
(12.7877 -0.0443795 0)
(12.9751 -0.0653414 0)
(13.1464 -0.0947132 0)
(13.242 -0.222148 0)
(10.0247 -0.281199 0)
(11.1397 -0.209181 0)
(11.9314 -0.100343 0)
(12.1764 -0.0867021 0)
(12.4654 -0.0959601 0)
(12.6456 -0.0864087 0)
(12.841 -0.0688538 0)
(12.9714 -0.0849965 0)
(13.1611 -0.125074 0)
(13.2449 -0.244506 0)
(10.0422 -0.398476 0)
(11.1501 -0.284722 0)
(11.9893 -0.14267 0)
(12.2125 -0.12952 0)
(12.5576 -0.135294 0)
(12.6215 -0.112811 0)
(12.8573 -0.0913162 0)
(12.883 -0.107246 0)
(13.0681 -0.145414 0)
(12.9673 -0.251741 0)
(10.0211 -0.517439 0)
(11.2293 -0.355344 0)
(12.0541 -0.194223 0)
(12.2476 -0.177012 0)
(12.498 -0.169134 0)
(12.4114 -0.132167 0)
(12.5598 -0.106066 0)
(12.4003 -0.114316 0)
(12.473 -0.142972 0)
(12.146 -0.237687 0)
(10.0453 -0.647345 0)
(11.327 -0.433786 0)
(11.9844 -0.2513 0)
(11.9599 -0.211531 0)
(11.9037 -0.17517 0)
(11.6025 -0.123888 0)
(11.5711 -0.0964625 0)
(11.2703 -0.0945309 0)
(11.2327 -0.128348 0)
(10.7805 -0.171234 0)
(10.1187 -0.80739 0)
(11.1203 -0.496699 0)
(11.269 -0.269148 0)
(10.8255 -0.193419 0)
(10.4642 -0.137232 0)
(10.0366 -0.0891847 0)
(9.90589 -0.0677467 0)
(9.5635 -0.0663657 0)
(9.48331 -0.0974591 0)
(8.97173 -0.103377 0)
(9.88888 -0.937372 0)
(9.99531 -0.476432 0)
(9.4882 -0.215039 0)
(8.75292 -0.127906 0)
(8.27829 -0.0789936 0)
(7.87232 -0.0490771 0)
(7.72493 -0.0373896 0)
(7.42024 -0.0392882 0)
(7.33376 -0.060175 0)
(6.82052 -0.0640341 0)
(8.68417 -0.857394 0)
(7.5432 -0.344244 0)
(6.62599 -0.117135 0)
(5.91086 -0.0543318 0)
(5.52321 -0.0283469 0)
(5.24127 -0.0177426 0)
(5.12898 -0.013969 0)
(4.91529 -0.0170247 0)
(4.83291 -0.0279568 0)
(4.41352 -0.0288941 0)
(5.40373 -0.316837 0)
(3.3163 -0.0606561 0)
(2.58266 -0.00159083 0)
(2.23232 0.00219174 0)
(2.08129 0.00140765 0)
(1.98166 0.000135241 0)
(1.9375 9.38306e-05 0)
(1.85476 -0.00125074 0)
(1.79965 -0.00264841 0)
(1.60275 0.00755903 0)
(2.71055 0.0200488 0)
(2.59088 -0.173192 0)
(3.77183 -0.242901 0)
(3.15349 -0.403435 0)
(4.12679 -0.348139 0)
(3.06043 0.196037 0)
(3.71647 0.0551816 0)
(3.89186 0.348505 0)
(4.51278 0.0868201 0)
(4.48506 0.337922 0)
(5.45093 0.485138 0)
(6.10205 -0.0163062 0)
(6.35377 -0.0087361 0)
(7.62033 -0.187091 0)
(8.2936 -0.693872 0)
(8.01444 -0.925279 0)
(8.78679 -1.31938 0)
(9.73293 -1.75809 0)
(9.9031 -1.9657 0)
(10.8044 -2.54035 0)
(11.8735 -3.44072 0)
(11.7937 -3.37551 0)
(11.9245 -3.44776 0)
(12.3427 -4.15677 0)
(11.3309 -3.43304 0)
(10.4092 -2.23876 0)
(10.2254 -1.0319 0)
(8.96928 0.578083 0)
(8.87752 2.3109 0)
(10.1446 3.03182 0)
(10.5987 3.0776 0)
(11.1657 2.32605 0)
(11.5506 1.11542 0)
(11.4868 -0.0879538 0)
(11.5033 -1.66233 0)
(11.0271 -2.86363 0)
(10.2211 -3.32337 0)
(9.3868 -3.7526 0)
(8.47634 -4.28768 0)
(7.18402 -4.04021 0)
(5.57271 -2.76641 0)
(3.79734 -2.21513 0)
(2.60744 -3.71461 0)
(1.73838 -6.91634 0)
(0.500206 -10.1004 0)
(2.11378 -9.23438 0)
(2.80844 -6.45841 0)
(3.31541 -4.52295 0)
(4.05174 -2.94542 0)
(4.8838 -1.57288 0)
(6.374 -0.393508 0)
(7.63479 0.721271 0)
(8.32429 1.73955 0)
(8.75127 2.5301 0)
(9.13942 3.93724 0)
(10.4239 6.11188 0)
(11.3743 8.0758 0)
(11.6488 9.04831 0)
(11.3835 8.77843 0)
(10.6298 7.53762 0)
(10.2015 5.91751 0)
(9.60135 4.64839 0)
(8.8547 2.70144 0)
(8.18989 1.8215 0)
(7.38516 0.155391 0)
(7.72459 1.06734 0)
(7.1492 0.509611 0)
(7.61648 1.70392 0)
(6.30518 1.21751 0)
(8.2623 2.84218 0)
(7.26017 2.67182 0)
(8.83469 2.43051 0)
(8.78495 1.17283 0)
(9.72191 1.42162 0)
(9.77075 -0.802231 0)
(10.1505 -1.58267 0)
(9.26359 -2.401 0)
(9.4054 -2.17572 0)
(7.43326 -2.89381 0)
(9.03394 -2.69188 0)
(7.045 -4.23534 0)
(8.15722 -3.78787 0)
(8.1599 -3.60295 0)
(7.68951 -4.89437 0)
(7.49204 -3.44342 0)
(7.06169 -1.21857 0)
(7.05176 -3.00209 0)
(8.1775 -4.34766 0)
(8.40737 -3.88511 0)
(8.79393 -2.87427 0)
(8.8076 -1.96491 0)
(9.18974 0.419195 0)
(9.09297 2.25877 0)
(8.67314 3.16199 0)
(8.66141 4.89327 0)
(8.51426 7.02475 0)
(8.02978 8.59607 0)
(7.0854 9.29268 0)
(6.84047 9.55694 0)
(3.74905 13.1018 0)
(5.47208 0.00450904 0)
(5.08006 -0.217905 0)
(5.87786 -0.345204 0)
(5.59193 -0.382792 0)
(5.96845 -0.354745 0)
(5.79086 0.137866 0)
(5.72912 0.0384455 0)
(6.00595 0.247111 0)
(6.69819 0.0107895 0)
(6.2323 0.103493 0)
(7.16741 0.248062 0)
(7.92498 -0.13 0)
(7.7477 -0.236799 0)
(8.75417 -0.521253 0)
(9.5716 -0.925633 0)
(9.5468 -1.042 0)
(10.3872 -1.5378 0)
(11.1594 -2.07268 0)
(11.3821 -2.31072 0)
(12.2069 -2.86163 0)
(12.9106 -3.59088 0)
(12.6813 -3.47799 0)
(12.6693 -3.36798 0)
(12.9399 -4.00057 0)
(11.7827 -3.18482 0)
(10.7174 -1.86254 0)
(10.6134 -0.841204 0)
(9.66587 0.684226 0)
(9.61344 2.16847 0)
(10.657 2.77468 0)
(11.1349 2.85721 0)
(11.6199 2.13911 0)
(11.9666 1.03865 0)
(11.8838 -0.056009 0)
(11.7635 -1.53356 0)
(11.2556 -2.62548 0)
(10.3472 -2.93645 0)
(9.42342 -3.34953 0)
(8.43882 -3.84188 0)
(7.20933 -3.43373 0)
(5.54623 -2.0664 0)
(3.74946 -1.54887 0)
(2.43302 -3.24648 0)
(1.44715 -6.5708 0)
(0.308978 -10.0688 0)
(0.683376 -9.65281 0)
(1.97969 -6.68999 0)
(2.61713 -4.78559 0)
(3.21735 -3.31984 0)
(4.03973 -2.1225 0)
(5.53729 -0.977229 0)
(6.96168 0.325548 0)
(7.75649 1.52674 0)
(8.20714 2.35788 0)
(8.48685 3.6034 0)
(9.60412 5.66133 0)
(10.4738 7.79806 0)
(11.0575 8.9978 0)
(11.1979 8.8463 0)
(10.5528 7.73473 0)
(10.1203 6.07515 0)
(10.0318 4.96927 0)
(9.22902 2.9588 0)
(8.89319 2.18102 0)
(7.67812 0.19491 0)
(8.2498 1.15203 0)
(7.43811 0.535527 0)
(8.37298 1.75537 0)
(6.901 1.19182 0)
(8.52327 2.47617 0)
(8.20715 2.66728 0)
(9.12487 2.166 0)
(9.05808 0.953087 0)
(10.25 1.2549 0)
(9.9187 -0.822006 0)
(10.315 -1.58232 0)
(9.54401 -2.21158 0)
(9.56783 -1.79506 0)
(7.86522 -2.78002 0)
(9.08246 -2.65243 0)
(7.79068 -4.05767 0)
(8.52445 -3.99595 0)
(8.56165 -3.44885 0)
(7.96738 -4.67055 0)
(7.61942 -3.23838 0)
(7.11395 -1.18444 0)
(6.77291 -3.25751 0)
(8.20341 -4.44627 0)
(8.26517 -4.06338 0)
(8.52636 -2.97113 0)
(8.5574 -2.03388 0)
(8.88884 0.384529 0)
(8.7644 2.38716 0)
(8.64541 3.14032 0)
(8.64428 4.84359 0)
(8.70225 7.09801 0)
(8.21328 8.70847 0)
(7.38668 9.76421 0)
(8.44977 9.66654 0)
(5.37687 14.0403 0)
(7.97095 -0.145962 0)
(7.65978 -0.257594 0)
(8.0173 -0.423832 0)
(8.07277 -0.38108 0)
(7.83687 -0.350854 0)
(8.24821 0.0221876 0)
(7.90418 0.0551097 0)
(7.96347 0.121814 0)
(8.88017 -0.0772221 0)
(8.35232 0.00806775 0)
(8.95796 -0.0247902 0)
(9.86986 -0.34221 0)
(9.60957 -0.36916 0)
(10.5075 -0.716868 0)
(11.2314 -1.14414 0)
(11.0916 -1.26448 0)
(11.9401 -1.7663 0)
(12.6586 -2.24949 0)
(12.7606 -2.4975 0)
(13.4034 -3.00055 0)
(13.6394 -3.54677 0)
(13.2387 -3.49927 0)
(13.0555 -3.32291 0)
(13.2055 -3.75949 0)
(12.1318 -2.84433 0)
(11.0676 -1.43813 0)
(10.9054 -0.637894 0)
(10.0564 0.725552 0)
(10.1188 2.02293 0)
(11.0644 2.55455 0)
(11.4845 2.6811 0)
(11.9386 2.00616 0)
(12.2392 1.00766 0)
(12.0681 -0.000166343 0)
(11.9291 -1.38079 0)
(11.2966 -2.30863 0)
(10.2113 -2.54518 0)
(9.35779 -2.96191 0)
(8.38207 -3.40293 0)
(7.19512 -2.87795 0)
(5.49029 -1.40652 0)
(3.78313 -0.865394 0)
(2.30538 -2.74651 0)
(1.29517 -6.19402 0)
(-0.00337892 -9.73304 0)
(-0.621375 -9.97482 0)
(1.25297 -7.06015 0)
(1.73783 -5.04997 0)
(2.53554 -3.64914 0)
(3.50163 -2.61587 0)
(4.82561 -1.56297 0)
(6.1407 -0.101448 0)
(7.13708 1.24496 0)
(7.57065 2.19746 0)
(7.69719 3.43074 0)
(8.70564 5.32336 0)
(9.71132 7.38072 0)
(10.3851 8.72795 0)
(10.6699 8.87291 0)
(10.3781 7.94949 0)
(9.95195 6.12838 0)
(10.2552 5.1582 0)
(9.48042 3.16457 0)
(9.4768 2.56873 0)
(7.90707 0.354466 0)
(8.62754 1.18224 0)
(7.71241 0.589169 0)
(8.76265 1.7492 0)
(7.74781 1.29904 0)
(8.52107 2.05361 0)
(8.73344 2.52427 0)
(9.62283 2.08481 0)
(8.88704 0.721228 0)
(10.6919 0.983348 0)
(9.90502 -0.66324 0)
(10.3124 -1.57526 0)
(9.63602 -2.08306 0)
(9.601 -1.5416 0)
(8.47724 -2.58874 0)
(9.10124 -2.61987 0)
(8.45309 -3.88829 0)
(8.58833 -4.19396 0)
(8.82456 -3.44202 0)
(8.12096 -4.35753 0)
(7.67584 -2.99179 0)
(7.19492 -1.08961 0)
(6.43652 -3.54452 0)
(8.11927 -4.58607 0)
(8.03128 -4.21914 0)
(8.09114 -3.01112 0)
(7.96213 -1.99658 0)
(8.35771 0.361416 0)
(8.56737 2.40055 0)
(8.47515 3.27321 0)
(8.40777 4.94176 0)
(8.67233 7.23365 0)
(8.57017 8.74862 0)
(7.36983 10.1675 0)
(9.66301 9.32825 0)
(6.89011 14.2863 0)
(10.0401 -0.278077 0)
(9.86874 -0.258943 0)
(9.94407 -0.419512 0)
(10.2358 -0.373872 0)
(9.71793 -0.264106 0)
(10.2347 -0.122881 0)
(9.94579 0.094205 0)
(9.73215 0.0800822 0)
(10.6411 -0.228168 0)
(10.1972 -0.0542481 0)
(10.5971 -0.223914 0)
(11.5055 -0.571155 0)
(11.2775 -0.495198 0)
(11.9769 -0.899589 0)
(12.6757 -1.32269 0)
(12.6272 -1.39489 0)
(13.1864 -1.90324 0)
(13.665 -2.40064 0)
(13.6485 -2.73041 0)
(13.996 -3.12907 0)
(13.9231 -3.4112 0)
(13.4721 -3.42247 0)
(13.3629 -3.23538 0)
(13.3 -3.43365 0)
(12.0913 -2.5328 0)
(11.2166 -1.12849 0)
(11.3451 -0.44206 0)
(10.575 0.743056 0)
(10.5253 1.85956 0)
(11.3685 2.36968 0)
(11.6247 2.52722 0)
(12.0886 1.84237 0)
(12.3188 0.989038 0)
(12.0767 0.0932065 0)
(11.8902 -1.20602 0)
(11.0689 -1.95757 0)
(9.94393 -2.14969 0)
(9.23527 -2.62085 0)
(8.37216 -2.9849 0)
(7.28508 -2.27995 0)
(5.48091 -0.720363 0)
(3.83356 -0.219877 0)
(2.39673 -2.21687 0)
(1.25808 -5.68082 0)
(-0.262908 -9.28073 0)
(-1.42578 -10.1961 0)
(0.851778 -7.46389 0)
(0.923473 -5.34254 0)
(2.07908 -4.14847 0)
(3.10379 -3.17218 0)
(4.2141 -2.06033 0)
(5.29422 -0.497144 0)
(6.28143 0.975272 0)
(6.79428 2.01189 0)
(7.05102 3.18615 0)
(7.82978 4.97135 0)
(8.65687 7.05452 0)
(9.56068 8.47551 0)
(10.0821 8.69718 0)
(10.1723 8.0153 0)
(9.57068 6.1736 0)
(10.2684 5.24374 0)
(9.51627 3.26172 0)
(9.93121 2.86368 0)
(8.05767 0.576935 0)
(8.95662 1.15218 0)
(7.95262 0.666265 0)
(8.90016 1.52638 0)
(8.5439 1.43577 0)
(8.79319 1.8334 0)
(8.85665 2.26931 0)
(10.0436 2.00294 0)
(8.65351 0.650478 0)
(10.7143 0.690418 0)
(9.78819 -0.590899 0)
(10.2963 -1.51841 0)
(9.70864 -1.86056 0)
(9.56508 -1.38316 0)
(8.91665 -2.47598 0)
(8.9635 -2.6878 0)
(9.13829 -3.74975 0)
(8.48744 -4.17694 0)
(8.93274 -3.38333 0)
(8.09248 -4.12472 0)
(7.38989 -2.69768 0)
(7.22369 -1.10669 0)
(6.1876 -3.87442 0)
(8.02768 -4.66732 0)
(7.75237 -4.2656 0)
(7.56256 -2.8623 0)
(7.37918 -1.92365 0)
(8.06481 0.225794 0)
(8.52813 2.16567 0)
(8.21673 3.29359 0)
(8.30471 4.87695 0)
(8.34135 7.29031 0)
(8.85068 8.69665 0)
(7.31619 10.4681 0)
(10.3361 8.74573 0)
(7.9165 14.218 0)
(11.7112 -0.397388 0)
(11.5554 -0.285739 0)
(11.5085 -0.389856 0)
(11.808 -0.378875 0)
(11.3098 -0.167548 0)
(11.7827 -0.211931 0)
(11.5737 0.0973734 0)
(11.2866 0.0909871 0)
(12.0673 -0.353747 0)
(11.6814 -0.111235 0)
(12.0233 -0.341731 0)
(12.6914 -0.781359 0)
(12.5186 -0.663771 0)
(13.1205 -0.999104 0)
(13.5983 -1.45201 0)
(13.5921 -1.58668 0)
(13.9487 -2.01206 0)
(14.196 -2.42785 0)
(14.1693 -2.76706 0)
(14.0976 -3.1223 0)
(13.7911 -3.24084 0)
(13.4999 -3.32627 0)
(13.3963 -3.24263 0)
(13.2746 -3.11446 0)
(12.1837 -2.16457 0)
(11.5229 -0.958653 0)
(11.7176 -0.341736 0)
(10.991 0.794648 0)
(10.9479 1.7751 0)
(11.5039 2.26945 0)
(11.5943 2.37456 0)
(12.111 1.68577 0)
(12.0524 1.01965 0)
(11.8021 0.182821 0)
(11.5982 -1.01751 0)
(10.6192 -1.60497 0)
(9.69288 -1.80114 0)
(9.23108 -2.296 0)
(8.37798 -2.60236 0)
(7.29821 -1.75595 0)
(5.55231 -0.0732159 0)
(3.93504 0.402114 0)
(2.72015 -1.6473 0)
(1.37989 -5.14046 0)
(-0.10227 -8.77742 0)
(-1.68984 -10.4062 0)
(0.675618 -7.92529 0)
(0.447795 -5.60159 0)
(1.61054 -4.73262 0)
(2.39667 -3.71965 0)
(3.49355 -2.45711 0)
(4.33784 -0.857042 0)
(5.355 0.659402 0)
(5.89446 1.83469 0)
(6.09163 3.09963 0)
(6.78145 4.74414 0)
(7.77783 6.61951 0)
(8.60807 8.08978 0)
(9.15954 8.52036 0)
(9.74238 8.06153 0)
(9.11781 6.12518 0)
(10.2096 5.23807 0)
(9.43118 3.34867 0)
(10.2514 3.13254 0)
(8.04893 0.853493 0)
(9.19141 1.07641 0)
(8.05355 0.811092 0)
(8.94245 1.24649 0)
(8.92742 1.43749 0)
(9.33584 1.76828 0)
(8.94293 2.11693 0)
(10.3626 1.96698 0)
(8.6823 0.582991 0)
(10.4774 0.419936 0)
(9.81907 -0.452874 0)
(10.1973 -1.54573 0)
(9.73882 -1.79731 0)
(9.49983 -1.23297 0)
(9.31813 -2.28562 0)
(9.03857 -2.74501 0)
(9.49444 -3.58336 0)
(8.29763 -4.14976 0)
(9.05971 -3.3596 0)
(7.883 -3.70524 0)
(7.0663 -2.312 0)
(7.19053 -0.91918 0)
(5.91207 -4.03188 0)
(7.77729 -4.79982 0)
(7.33321 -4.32096 0)
(7.22198 -2.82348 0)
(7.20535 -2.10659 0)
(7.7713 0.0614553 0)
(7.7757 2.15916 0)
(7.85425 3.40125 0)
(8.18375 4.71447 0)
(8.05239 7.23591 0)
(9.42126 8.42311 0)
(7.33494 10.7894 0)
(11.1293 7.96318 0)
(8.73694 13.7907 0)
(12.8993 -0.467416 0)
(12.6911 -0.338141 0)
(12.6401 -0.383569 0)
(12.7678 -0.387058 0)
(12.3786 -0.117363 0)
(12.8236 -0.231725 0)
(12.6035 0.0783877 0)
(12.4348 0.0848765 0)
(13.0695 -0.404805 0)
(12.7513 -0.195175 0)
(13.0728 -0.438648 0)
(13.5484 -0.85244 0)
(13.4291 -0.79494 0)
(13.7932 -1.0945 0)
(14.1077 -1.51061 0)
(14.0748 -1.70791 0)
(14.1798 -2.04376 0)
(14.2066 -2.44979 0)
(14.1132 -2.78169 0)
(13.864 -3.03314 0)
(13.5343 -3.14706 0)
(13.5764 -3.28772 0)
(13.5138 -3.13049 0)
(13.1276 -2.81932 0)
(12.3803 -2.0015 0)
(12.1634 -0.943166 0)
(12.1557 -0.165956 0)
(11.4488 0.911097 0)
(11.3746 1.71345 0)
(11.4416 2.25792 0)
(11.4959 2.24822 0)
(11.8604 1.57276 0)
(11.4891 1.11202 0)
(11.3497 0.280501 0)
(11.1621 -0.807494 0)
(10.2446 -1.21511 0)
(9.56428 -1.50741 0)
(9.24502 -2.06007 0)
(8.41839 -2.21229 0)
(7.28846 -1.20294 0)
(5.65098 0.543222 0)
(4.11016 0.974448 0)
(3.09046 -1.11166 0)
(1.79935 -4.60575 0)
(0.447052 -8.17481 0)
(-1.52369 -10.4927 0)
(-0.00300321 -8.34711 0)
(0.176724 -5.76134 0)
(0.970819 -5.09381 0)
(1.37081 -4.07764 0)
(2.54765 -2.79955 0)
(3.32211 -1.18226 0)
(4.29855 0.347769 0)
(4.78762 1.65534 0)
(5.11342 2.93464 0)
(5.88297 4.44996 0)
(6.50953 6.30222 0)
(7.66079 7.76273 0)
(8.26678 8.12116 0)
(9.2863 7.93383 0)
(8.5379 6.05957 0)
(9.89654 5.15653 0)
(9.07961 3.30799 0)
(10.5214 3.35267 0)
(7.95211 1.16114 0)
(9.23717 0.977269 0)
(8.23449 0.953174 0)
(8.84172 0.950134 0)
(8.98284 1.27112 0)
(9.94581 1.80277 0)
(9.05491 1.97306 0)
(10.5713 1.95553 0)
(9.05185 0.744032 0)
(10.1483 0.208324 0)
(9.92159 -0.498276 0)
(10.2295 -1.44104 0)
(9.87365 -1.5944 0)
(9.52794 -1.23719 0)
(9.48194 -2.23014 0)
(9.20535 -2.87003 0)
(9.72711 -3.44456 0)
(8.49707 -3.86428 0)
(9.19668 -3.31706 0)
(7.5876 -3.30289 0)
(6.52362 -2.01165 0)
(7.12584 -0.983386 0)
(5.50245 -4.11526 0)
(7.37049 -4.82251 0)
(6.80733 -4.3434 0)
(6.87346 -2.73636 0)
(6.73123 -2.20949 0)
(6.98937 0.190281 0)
(7.18524 2.08769 0)
(7.38826 3.56329 0)
(7.9526 4.5339 0)
(7.33189 7.43936 0)
(9.4999 7.94296 0)
(7.32346 11.0902 0)
(11.3389 7.15833 0)
(9.3412 13.2953 0)
(13.3966 -0.444591 0)
(13.1436 -0.381595 0)
(13.1882 -0.391835 0)
(13.1268 -0.36526 0)
(12.9021 -0.113481 0)
(13.2864 -0.238915 0)
(13.0308 0.0321785 0)
(13.0859 0.0121036 0)
(13.5216 -0.435199 0)
(13.4182 -0.313515 0)
(13.6702 -0.52765 0)
(13.8847 -0.880781 0)
(13.9103 -0.933883 0)
(13.9927 -1.14193 0)
(14.1154 -1.49733 0)
(14.0754 -1.79657 0)
(13.9637 -2.03516 0)
(13.8833 -2.4075 0)
(13.7915 -2.77404 0)
(13.6233 -2.95568 0)
(13.5 -3.06016 0)
(13.5989 -3.29962 0)
(13.4683 -3.12357 0)
(13.1323 -2.60479 0)
(12.7109 -1.92135 0)
(12.5775 -0.954189 0)
(12.3314 -0.013367 0)
(11.9108 0.969442 0)
(11.6522 1.7919 0)
(11.2808 2.34906 0)
(11.3627 2.1759 0)
(11.3604 1.65222 0)
(10.8821 1.22309 0)
(10.9834 0.306718 0)
(10.7841 -0.581912 0)
(9.97122 -0.904699 0)
(9.52489 -1.3096 0)
(9.25127 -1.83155 0)
(8.3817 -1.81789 0)
(7.26932 -0.687385 0)
(5.74635 1.10934 0)
(4.42404 1.49238 0)
(3.53956 -0.579061 0)
(2.45049 -4.02977 0)
(0.984755 -7.5282 0)
(-1.24022 -10.1907 0)
(-1.36455 -8.61166 0)
(0.0353 -5.99155 0)
(0.281091 -5.25087 0)
(0.464465 -4.37536 0)
(1.61302 -3.15804 0)
(2.17562 -1.52777 0)
(3.15355 0.0853064 0)
(3.63691 1.469 0)
(4.06881 2.79725 0)
(4.63701 4.21327 0)
(5.47467 5.84436 0)
(6.78297 7.32554 0)
(6.99367 7.7561 0)
(8.61617 7.76297 0)
(7.95237 5.96294 0)
(9.58244 5.03617 0)
(8.50512 3.14528 0)
(10.6701 3.44675 0)
(8.029 1.53124 0)
(8.96475 0.859101 0)
(8.43005 1.10491 0)
(8.69824 0.843698 0)
(8.70986 0.916945 0)
(10.3257 1.79239 0)
(9.3352 2.00049 0)
(10.6068 1.80219 0)
(9.63287 0.871773 0)
(10.0262 0.08051 0)
(10.1399 -0.594835 0)
(10.3198 -1.42532 0)
(9.87833 -1.49782 0)
(9.69715 -1.15372 0)
(9.79468 -2.09911 0)
(9.51931 -2.80126 0)
(9.70194 -3.32164 0)
(8.61134 -3.83722 0)
(9.12773 -3.19815 0)
(7.62449 -2.6812 0)
(6.0035 -1.64052 0)
(7.22259 -1.04113 0)
(5.07926 -4.13129 0)
(6.9277 -4.88476 0)
(6.03276 -4.40518 0)
(6.44793 -2.57284 0)
(6.07086 -2.39328 0)
(6.49652 0.17714 0)
(7.09037 1.60246 0)
(7.07774 3.43199 0)
(7.76242 4.07961 0)
(6.9917 7.5816 0)
(9.3646 7.37251 0)
(7.35728 11.304 0)
(11.3089 6.22961 0)
(9.67268 12.7624 0)
(13.2728 -0.365651 0)
(13.0915 -0.377941 0)
(13.2357 -0.355052 0)
(13.0706 -0.308988 0)
(13.08 -0.156388 0)
(13.3052 -0.192255 0)
(13.1144 -0.0299568 0)
(13.3402 -0.113575 0)
(13.6037 -0.420919 0)
(13.7326 -0.425044 0)
(13.8094 -0.592048 0)
(13.8386 -0.841689 0)
(13.912 -1.00273 0)
(13.7376 -1.14024 0)
(13.7692 -1.43989 0)
(13.7651 -1.82442 0)
(13.601 -2.03744 0)
(13.5868 -2.3583 0)
(13.6142 -2.71121 0)
(13.5258 -2.94929 0)
(13.5036 -3.11925 0)
(13.632 -3.23 0)
(13.3192 -3.02053 0)
(12.9491 -2.51968 0)
(12.8098 -1.88609 0)
(12.6465 -0.876293 0)
(12.2563 0.154984 0)
(11.9159 1.08022 0)
(11.4415 1.97126 0)
(11.1054 2.45969 0)
(11.1138 2.21021 0)
(10.8186 1.78613 0)
(10.5958 1.28906 0)
(10.8708 0.3443 0)
(10.5198 -0.377216 0)
(9.79551 -0.674948 0)
(9.51918 -1.16039 0)
(9.24006 -1.59864 0)
(8.28032 -1.40154 0)
(7.18047 -0.199983 0)
(5.74569 1.60098 0)
(4.71113 1.92495 0)
(4.02808 -0.135816 0)
(3.09803 -3.44361 0)
(1.45689 -6.80131 0)
(-0.997037 -9.46472 0)
(-2.34581 -8.83349 0)
(-0.0539398 -6.3316 0)
(-0.36157 -5.34277 0)
(-0.229098 -4.62699 0)
(0.554767 -3.48167 0)
(0.939119 -1.86196 0)
(1.96211 -0.142067 0)
(2.30375 1.27112 0)
(2.87611 2.60976 0)
(3.52068 3.88894 0)
(4.20078 5.49038 0)
(5.5384 7.08917 0)
(5.99521 7.23964 0)
(7.8327 7.42606 0)
(7.20244 5.80141 0)
(9.35487 4.88794 0)
(7.75648 2.93057 0)
(10.2945 3.47248 0)
(8.20147 1.93791 0)
(8.64886 0.765586 0)
(8.45778 1.09616 0)
(8.65548 0.902661 0)
(8.59039 0.495214 0)
(10.2175 1.60199 0)
(9.73471 2.04522 0)
(10.6822 1.73898 0)
(10.2387 1.04055 0)
(10.2443 0.0754375 0)
(10.3283 -0.702398 0)
(10.443 -1.27632 0)
(9.86294 -1.34181 0)
(9.77978 -1.14318 0)
(9.89887 -2.14157 0)
(9.72976 -2.81765 0)
(9.70652 -3.15391 0)
(9.05172 -3.51025 0)
(8.86601 -2.90553 0)
(7.34972 -2.16837 0)
(5.48929 -1.43422 0)
(7.15753 -1.12997 0)
(4.64456 -3.9967 0)
(6.33101 -4.88611 0)
(5.02184 -4.44328 0)
(5.89284 -2.55398 0)
(5.35247 -2.59517 0)
(5.94479 0.265977 0)
(6.57911 1.3443 0)
(6.16807 3.71543 0)
(7.45215 3.82033 0)
(6.51644 7.68913 0)
(9.73018 6.56817 0)
(7.26656 11.3501 0)
(11.3825 5.51724 0)
(9.96795 12.0477 0)
(13.1346 -0.328011 0)
(13.0756 -0.347783 0)
(13.1768 -0.301125 0)
(13.0828 -0.272003 0)
(13.1342 -0.171769 0)
(13.1796 -0.164343 0)
(13.2659 -0.135196 0)
(13.4739 -0.224543 0)
(13.6423 -0.451897 0)
(13.829 -0.540404 0)
(13.6299 -0.598417 0)
(13.6396 -0.775217 0)
(13.6888 -1.01362 0)
(13.3825 -1.1163 0)
(13.5457 -1.40179 0)
(13.6741 -1.82949 0)
(13.5442 -2.01079 0)
(13.5159 -2.32297 0)
(13.5255 -2.72052 0)
(13.4815 -2.92507 0)
(13.3448 -3.11021 0)
(13.2507 -3.20739 0)
(12.9257 -2.93157 0)
(12.5591 -2.40763 0)
(12.3822 -1.78679 0)
(12.0352 -0.765311 0)
(11.6326 0.324088 0)
(11.4451 1.25668 0)
(11.0308 2.11454 0)
(10.8429 2.51777 0)
(10.7862 2.31502 0)
(10.5722 1.90846 0)
(10.5831 1.264 0)
(10.7528 0.371409 0)
(10.2277 -0.15363 0)
(9.60975 -0.479746 0)
(9.42375 -1.04643 0)
(9.1007 -1.33894 0)
(8.10928 -0.961611 0)
(7.02277 0.26926 0)
(5.70625 2.02345 0)
(4.91212 2.26238 0)
(4.48928 0.240143 0)
(3.77097 -2.83739 0)
(2.07847 -5.93592 0)
(-0.543811 -8.55516 0)
(-2.4019 -9.06797 0)
(-0.228582 -6.61816 0)
(-0.904748 -5.29525 0)
(-0.859286 -4.69358 0)
(-0.642915 -3.62616 0)
(-0.322166 -2.0615 0)
(0.606169 -0.359509 0)
(0.946366 1.04992 0)
(1.60011 2.39887 0)
(2.19603 3.60372 0)
(2.84696 5.07241 0)
(4.78612 6.59405 0)
(4.71083 6.73502 0)
(6.90713 7.0363 0)
(6.49586 5.46365 0)
(8.90244 4.75329 0)
(7.081 2.73279 0)
(9.74443 3.32107 0)
(8.48582 2.23097 0)
(8.55044 0.821162 0)
(8.17102 1.02856 0)
(8.41529 0.912819 0)
(8.77074 0.198902 0)
(9.84087 1.38216 0)
(9.83238 1.96919 0)
(10.6472 1.60251 0)
(10.4688 1.10342 0)
(10.6331 0.122568 0)
(10.435 -0.747132 0)
(10.5429 -1.15802 0)
(9.7971 -1.21936 0)
(9.84201 -1.2005 0)
(10.056 -2.06634 0)
(9.92364 -2.67714 0)
(9.51995 -3.10527 0)
(9.13665 -3.38163 0)
(8.4598 -2.59475 0)
(7.17244 -1.61442 0)
(5.32015 -1.06424 0)
(6.58128 -1.1464 0)
(4.20073 -3.83953 0)
(5.46887 -4.80302 0)
(4.02491 -4.29688 0)
(5.2039 -2.56895 0)
(4.55004 -2.85862 0)
(5.2729 0.340147 0)
(5.68805 0.880492 0)
(5.40459 4.06221 0)
(6.94196 3.04368 0)
(5.89636 8.0103 0)
(9.55623 5.67603 0)
(7.35318 11.4658 0)
(10.8716 5.12803 0)
(10.2126 11.3226 0)
(13.1687 -0.290729 0)
(13.1026 -0.254744 0)
(13.1715 -0.216822 0)
(13.0982 -0.230292 0)
(13.1189 -0.147121 0)
(13.3008 -0.189389 0)
(13.4404 -0.279269 0)
(13.4572 -0.326293 0)
(13.5432 -0.445067 0)
(13.5338 -0.534278 0)
(13.2841 -0.58291 0)
(13.4639 -0.725582 0)
(13.562 -0.985359 0)
(13.4272 -1.1365 0)
(13.6974 -1.38698 0)
(13.6758 -1.8031 0)
(13.4875 -2.00897 0)
(13.3906 -2.24452 0)
(13.241 -2.64364 0)
(13.1216 -2.93452 0)
(12.934 -3.07723 0)
(12.6022 -3.05615 0)
(12.1128 -2.777 0)
(11.7348 -2.27774 0)
(11.4235 -1.58766 0)
(10.9022 -0.559497 0)
(10.628 0.441185 0)
(10.6801 1.31706 0)
(10.4854 2.18615 0)
(10.4365 2.56656 0)
(10.4434 2.33794 0)
(10.4179 1.90521 0)
(10.4595 1.26588 0)
(10.3193 0.496286 0)
(9.69641 0.0570075 0)
(9.32913 -0.34183 0)
(9.21703 -0.906009 0)
(8.78922 -1.03916 0)
(7.80303 -0.538037 0)
(6.78914 0.70227 0)
(5.65883 2.35732 0)
(5.09198 2.48034 0)
(4.91559 0.50082 0)
(4.50225 -2.30602 0)
(2.90745 -5.03527 0)
(0.307548 -7.67703 0)
(-2.03791 -9.02407 0)
(-0.76351 -6.86035 0)
(-1.26856 -5.18226 0)
(-1.43234 -4.64365 0)
(-1.72038 -3.66217 0)
(-1.47974 -2.2338 0)
(-0.773228 -0.617072 0)
(-0.34362 0.786734 0)
(0.358796 2.12937 0)
(1.02213 3.2907 0)
(1.51688 4.66238 0)
(3.63652 6.28366 0)
(3.55709 6.22144 0)
(6.17937 6.48436 0)
(5.38383 5.12947 0)
(8.46719 4.58215 0)
(6.78886 2.55394 0)
(8.80615 3.07966 0)
(8.52641 2.35245 0)
(8.45564 0.995857 0)
(7.73703 1.02637 0)
(8.15247 0.764457 0)
(8.91691 -0.111613 0)
(9.45919 1.12522 0)
(9.61563 1.79234 0)
(10.5257 1.39127 0)
(10.1889 1.07099 0)
(10.8863 0.114751 0)
(10.3196 -0.694828 0)
(10.5624 -0.984145 0)
(9.78515 -1.02694 0)
(9.84957 -1.28664 0)
(9.99852 -2.12815 0)
(9.91717 -2.61981 0)
(9.61104 -2.86581 0)
(9.09236 -2.98632 0)
(7.93294 -2.1416 0)
(6.71976 -1.11116 0)
(5.41499 -0.707907 0)
(5.62632 -1.01115 0)
(3.79037 -3.6015 0)
(4.68841 -4.73197 0)
(3.47609 -4.1168 0)
(4.76227 -2.63858 0)
(3.6134 -2.9929 0)
(4.56576 0.349586 0)
(4.77313 0.542809 0)
(4.80554 3.97927 0)
(6.11114 2.46026 0)
(5.15658 8.13598 0)
(8.73064 4.66712 0)
(7.41363 11.4852 0)
(9.68309 4.85373 0)
(10.1542 10.6022 0)
(13.1021 -0.248125 0)
(13.0764 -0.195014 0)
(13.2548 -0.196396 0)
(13.1919 -0.230153 0)
(13.23 -0.199337 0)
(13.4021 -0.274942 0)
(13.3193 -0.324819 0)
(13.2046 -0.325196 0)
(13.2728 -0.396925 0)
(13.3334 -0.510377 0)
(13.3177 -0.629769 0)
(13.5393 -0.74409 0)
(13.6694 -0.994728 0)
(13.5867 -1.21284 0)
(13.5797 -1.36461 0)
(13.342 -1.67924 0)
(13.0827 -1.95037 0)
(12.9519 -2.18365 0)
(12.8555 -2.56386 0)
(12.5835 -2.85535 0)
(12.0786 -2.92601 0)
(11.5323 -2.83205 0)
(10.8955 -2.54473 0)
(10.3307 -2.05247 0)
(9.87211 -1.34547 0)
(9.43927 -0.419589 0)
(9.45806 0.432478 0)
(9.66175 1.31512 0)
(9.6282 2.20903 0)
(9.75688 2.519 0)
(9.85652 2.29669 0)
(9.84153 1.91945 0)
(9.84068 1.31066 0)
(9.60689 0.668499 0)
(9.17755 0.239973 0)
(9.05407 -0.256709 0)
(8.88813 -0.763167 0)
(8.35473 -0.734069 0)
(7.34143 -0.141915 0)
(6.4423 1.0787 0)
(5.58844 2.61457 0)
(5.29157 2.6038 0)
(5.35858 0.669245 0)
(5.20823 -1.85375 0)
(3.86031 -4.17328 0)
(1.3122 -6.67348 0)
(-1.81103 -8.44516 0)
(-1.85868 -6.96301 0)
(-1.59063 -5.15333 0)
(-1.98347 -4.51805 0)
(-2.5725 -3.64119 0)
(-2.45507 -2.35984 0)
(-1.93256 -0.80698 0)
(-1.65083 0.523781 0)
(-0.868637 1.93306 0)
(-0.188018 3.02594 0)
(0.163011 4.18979 0)
(2.55618 5.70646 0)
(2.58152 5.62636 0)
(5.02646 6.09701 0)
(4.67421 4.64103 0)
(7.7765 4.16773 0)
(6.52643 2.51574 0)
(7.77558 2.79541 0)
(8.29172 2.21385 0)
(8.26228 1.2084 0)
(7.15335 1.03364 0)
(8.10511 0.462916 0)
(8.84782 -0.291125 0)
(8.96811 0.934465 0)
(9.19303 1.54643 0)
(10.309 1.28411 0)
(9.68748 0.997204 0)
(10.7968 0.0636044 0)
(10.0838 -0.64282 0)
(10.3715 -0.860487 0)
(9.61214 -0.9589 0)
(9.88414 -1.34348 0)
(10.0279 -2.06236 0)
(9.76092 -2.53066 0)
(9.42698 -2.7836 0)
(8.79965 -2.61515 0)
(7.56529 -1.61068 0)
(6.07139 -0.624374 0)
(5.25598 -0.345072 0)
(4.69286 -0.849354 0)
(3.61549 -3.58128 0)
(3.91018 -4.68016 0)
(3.11337 -4.08885 0)
(4.20337 -2.81682 0)
(2.48848 -2.92601 0)
(3.58082 0.414768 0)
(3.92352 0.0755774 0)
(3.8422 4.22356 0)
(5.52276 1.80701 0)
(4.45572 8.29041 0)
(7.94552 3.35457 0)
(7.53412 11.2803 0)
(9.04969 4.78684 0)
(9.9508 9.75947 0)
(13.1729 -0.253378 0)
(13.1828 -0.172366 0)
(13.2757 -0.172717 0)
(13.1953 -0.228464 0)
(13.1834 -0.171092 0)
(13.2152 -0.217849 0)
(13.1263 -0.314634 0)
(13.1176 -0.337856 0)
(13.2353 -0.415704 0)
(13.4265 -0.593075 0)
(13.4694 -0.716419 0)
(13.5088 -0.762052 0)
(13.5247 -0.966953 0)
(13.2837 -1.14125 0)
(13.0304 -1.22362 0)
(12.8404 -1.53642 0)
(12.6866 -1.8738 0)
(12.477 -2.12718 0)
(12.135 -2.44311 0)
(11.506 -2.64097 0)
(10.6873 -2.64553 0)
(9.90968 -2.52782 0)
(9.17443 -2.23988 0)
(8.54301 -1.7493 0)
(8.09161 -1.10439 0)
(7.89616 -0.391176 0)
(8.05191 0.377762 0)
(8.12204 1.3337 0)
(8.30672 2.15386 0)
(8.71002 2.38974 0)
(8.82867 2.26673 0)
(8.89968 1.92479 0)
(8.99209 1.36858 0)
(8.80295 0.804977 0)
(8.65873 0.291147 0)
(8.60928 -0.213332 0)
(8.31462 -0.564742 0)
(7.66351 -0.378809 0)
(6.69821 0.235516 0)
(5.9999 1.3739 0)
(5.45431 2.75858 0)
(5.4457 2.62777 0)
(5.74607 0.737106 0)
(5.77911 -1.52251 0)
(4.78076 -3.36325 0)
(2.16563 -5.47751 0)
(-1.52728 -7.48966 0)
(-2.96393 -6.89809 0)
(-1.89962 -5.19811 0)
(-2.56222 -4.30078 0)
(-3.25618 -3.49255 0)
(-3.40747 -2.37702 0)
(-2.92196 -0.938154 0)
(-2.94737 0.273447 0)
(-2.08378 1.69878 0)
(-1.2507 2.74918 0)
(-1.10469 3.68186 0)
(1.57614 5.17644 0)
(1.16868 5.0892 0)
(4.38226 5.46626 0)
(4.02057 4.11626 0)
(6.78178 3.74445 0)
(6.18831 2.4519 0)
(6.76391 2.48023 0)
(7.68762 2.00222 0)
(7.94672 1.40058 0)
(6.84449 1.0268 0)
(8.29621 0.0713633 0)
(8.55952 -0.375304 0)
(8.44307 0.849386 0)
(8.73143 1.22119 0)
(9.85441 1.18533 0)
(9.27154 0.878759 0)
(10.5159 -0.0338624 0)
(9.83717 -0.607714 0)
(9.99841 -0.699578 0)
(9.44096 -0.896729 0)
(9.68054 -1.46925 0)
(9.9315 -2.09368 0)
(9.62196 -2.37167 0)
(9.20876 -2.51204 0)
(8.39459 -2.11512 0)
(7.06357 -1.0048 0)
(5.35694 -0.172319 0)
(4.75377 -0.0196082 0)
(4.25596 -0.601584 0)
(3.4223 -3.39852 0)
(2.95718 -4.61527 0)
(2.06159 -3.92631 0)
(3.0831 -2.93403 0)