/*--------------------------------*- C++ -*----------------------------------*\
| =========                 |                                                 |
| \\      /  F ield         | OpenFOAM: The Open Source CFD Toolbox           |
|  \\    /   O peration     | Version:  2.4.0                                 |
|   \\  /    A nd           | Web:      www.OpenFOAM.org                      |
|    \\/     M anipulation  |                                                 |
\*---------------------------------------------------------------------------*/
FoamFile
{
    version     2.0;
    format      ascii;
    class       surfaceScalarField;
    location    "0.092";
    object      phi;
}
// * * * * * * * * * * * * * * * * * * * * * * * * * * * * * * * * * * * * * //

dimensions      [0 3 -1 0 0 0 0];

internalField   nonuniform List<scalar> 
34880
(
5.48669e-06
7.01331e-06
3.12579e-06
2.3609e-06
2.47174e-06
6.54051e-07
2.21934e-06
2.52398e-07
2.07522e-06
1.44119e-07
1.96483e-06
1.10388e-07
1.88924e-06
7.5591e-08
1.81802e-06
7.12194e-08
1.77161e-06
4.64084e-08
1.73346e-06
3.81524e-08
1.70438e-06
2.90798e-08
1.66872e-06
3.56558e-08
1.64594e-06
2.27839e-08
1.62458e-06
2.1362e-08
1.59914e-06
2.54413e-08
1.56433e-06
3.48103e-08
1.56667e-06
-2.33868e-09
1.54377e-06
2.28986e-08
1.5418e-06
1.97399e-09
1.5147e-07
1.39033e-06
1.01097e-05
9.40359e-06
7.8292e-06
4.64142e-06
6.70971e-06
1.77354e-06
6.06349e-06
8.98618e-07
5.6458e-06
5.61804e-07
5.34585e-06
4.10345e-07
5.12566e-06
2.95775e-07
4.94016e-06
2.56719e-07
4.80359e-06
1.82983e-07
4.69759e-06
1.4415e-07
4.60218e-06
1.24491e-07
4.52057e-06
1.17271e-07
4.452e-06
9.13534e-08
4.38763e-06
8.5727e-08
4.32483e-06
8.8245e-08
4.25399e-06
1.05654e-07
4.2367e-06
1.49425e-08
4.15434e-06
1.05263e-07
4.17555e-06
-1.92366e-08
6.23429e-07
3.70359e-06
1.24258e-05
9.47774e-06
1.10001e-05
6.06716e-06
9.98124e-06
2.7924e-06
9.20216e-06
1.6777e-06
8.61786e-06
1.14611e-06
8.18755e-06
8.40656e-07
7.85905e-06
6.24267e-07
7.59034e-06
5.25431e-07
7.37886e-06
3.94464e-07
7.22e-06
3.03008e-07
7.06612e-06
2.78374e-07
6.95116e-06
2.32232e-07
6.84268e-06
1.99829e-07
6.74263e-06
1.85781e-07
6.65351e-06
1.77364e-07
6.5545e-06
2.04669e-07
6.51517e-06
5.42657e-08
6.3955e-06
2.2494e-07
6.386e-06
-9.74382e-09
8.55071e-07
6.15436e-06
1.34156e-05
8.56213e-06
1.28824e-05
6.60033e-06
1.23277e-05
3.34714e-06
1.17162e-05
2.28925e-06
1.11303e-05
1.73193e-06
1.06594e-05
1.31161e-06
1.02719e-05
1.01172e-06
9.95677e-06
8.40576e-07
9.69365e-06
6.57585e-07
9.49938e-06
4.97277e-07
9.3007e-06
4.77053e-07
9.1593e-06
3.73631e-07
9.02459e-06
3.34539e-07
8.89153e-06
3.18845e-07
8.78546e-06
2.83439e-07
8.66159e-06
3.28532e-07
8.61132e-06
1.0454e-07
8.45643e-06
3.79833e-07
8.40804e-06
3.86468e-08
7.35737e-07
8.52737e-06
1.35982e-05
7.4639e-06
1.36512e-05
6.54738e-06
1.36243e-05
3.37404e-06
1.34019e-05
2.51159e-06
1.30103e-05
2.12356e-06
1.26318e-05
1.69011e-06
1.22671e-05
1.37639e-06
1.19651e-05
1.14267e-06
1.16886e-05
9.34006e-07
1.14878e-05
6.98097e-07
1.12712e-05
6.93674e-07
1.11123e-05
5.32556e-07
1.09725e-05
4.74263e-07
1.08153e-05
4.76107e-07
1.07039e-05
3.94827e-07
1.05572e-05
4.75192e-07
1.05195e-05
1.42261e-07
1.03274e-05
5.71915e-07
1.02249e-05
1.41195e-07
2.04013e-07
1.07566e-05
1.34982e-05
6.46571e-06
1.3743e-05
6.30254e-06
1.39934e-05
3.1237e-06
1.4148e-05
2.35696e-06
1.40644e-05
2.20719e-06
1.39145e-05
1.84001e-06
1.36825e-05
1.60832e-06
1.3481e-05
1.34422e-06
1.3254e-05
1.16095e-06
1.30885e-05
8.63605e-07
1.2899e-05
8.83254e-07
1.27393e-05
6.92164e-07
1.26217e-05
5.91865e-07
1.24601e-05
6.37776e-07
1.2359e-05
4.95901e-07
1.21989e-05
6.35264e-07
1.21825e-05
1.58657e-07
1.19993e-05
7.5516e-07
1.17887e-05
3.51777e-07
-2.9436e-07
1.22871e-05
1.33904e-05
5.57534e-06
1.36889e-05
6.00403e-06
1.39194e-05
2.89322e-06
1.42287e-05
2.04761e-06
1.43565e-05
2.07943e-06
1.44354e-05
1.76107e-06
1.43804e-05
1.66334e-06
1.43508e-05
1.37386e-06
1.42485e-05
1.26319e-06
1.41712e-05
9.40969e-07
1.40721e-05
9.82338e-07
1.39474e-05
8.16871e-07
1.38849e-05
6.54297e-07
1.37518e-05
7.70891e-07
1.36777e-05
5.70017e-07
1.35377e-05
7.75276e-07
1.3525e-05
1.71364e-07
1.34105e-05
8.69639e-07
1.31599e-05
6.02406e-07
-2.25085e-07
1.30906e-05
1.32961e-05
4.77927e-06
1.37144e-05
5.58574e-06
1.37954e-05
2.81214e-06
1.41117e-05
1.73135e-06
1.42988e-05
1.89234e-06
1.44775e-05
1.58235e-06
1.45121e-05
1.62875e-06
1.46074e-05
1.27858e-06
1.46334e-05
1.23721e-06
1.46504e-05
9.23929e-07
1.46805e-05
9.52232e-07
1.46292e-05
8.68132e-07
1.46533e-05
6.30225e-07
1.45951e-05
8.29071e-07
1.45666e-05
5.98519e-07
1.44984e-05
8.43517e-07
1.4479e-05
1.90721e-07
1.44713e-05
8.77335e-07
1.43024e-05
7.71356e-07
4.79922e-07
1.35974e-05
1.319e-05
4.08931e-06
1.36982e-05
5.0775e-06
1.37253e-05
2.78507e-06
1.39886e-05
1.46805e-06
1.419e-05
1.69087e-06
1.43984e-05
1.37396e-06
1.44565e-05
1.57067e-06
1.45743e-05
1.16083e-06
1.46663e-05
1.1452e-06
1.47129e-05
8.77253e-07
1.4814e-05
8.51199e-07
1.48227e-05
8.594e-07
1.49127e-05
5.40232e-07
1.49439e-05
7.97823e-07
1.49634e-05
5.79079e-07
1.50016e-05
8.05283e-07
1.49772e-05
2.15107e-07
1.51011e-05
7.53505e-07
1.518e-05
6.92402e-07
4.23278e-07
1.52367e-05
1.30823e-05
3.507e-06
1.36362e-05
4.52362e-06
1.36977e-05
2.72356e-06
1.38909e-05
1.27482e-06
1.4087e-05
1.49479e-06
1.43064e-05
1.15459e-06
1.44025e-05
1.47455e-06
1.4491e-05
1.07235e-06
1.46081e-05
1.02813e-06
1.46657e-05
8.19578e-07
1.47642e-05
7.52684e-07
1.47903e-05
8.33363e-07
1.4897e-05
4.33513e-07
1.4977e-05
7.1785e-07
1.50053e-05
5.50737e-07
1.51269e-05
6.8373e-07
1.51013e-05
2.40685e-07
1.52977e-05
5.57082e-07
1.54729e-05
5.17258e-07
4.59918e-07
1.54362e-05
1.29947e-05
3.01234e-06
1.35491e-05
3.96915e-06
1.36857e-05
2.58694e-06
1.38357e-05
1.12487e-06
1.39944e-05
1.33606e-06
1.42034e-05
9.45647e-07
1.43343e-05
1.34365e-06
1.44026e-05
1.004e-06
1.45348e-05
8.95977e-07
1.46277e-05
7.26598e-07
1.47156e-05
6.6478e-07
1.47358e-05
8.13236e-07
1.48345e-05
3.34761e-07
1.49208e-05
6.31547e-07
1.49212e-05
5.50371e-07
1.5105e-05
4.99922e-07
1.50628e-05
2.82853e-07
1.52402e-05
3.79723e-07
1.54675e-05
2.90003e-07
2.30844e-07
1.56965e-05
1.29371e-05
2.57521e-06
1.34812e-05
3.42511e-06
1.36609e-05
2.40719e-06
1.37889e-05
9.96859e-07
1.39322e-05
1.19278e-06
1.41127e-05
7.65173e-07
1.42391e-05
1.2172e-06
1.43369e-05
9.06189e-07
1.4492e-05
7.40927e-07
1.45751e-05
6.4351e-07
1.46572e-05
5.82624e-07
1.46972e-05
7.73266e-07
1.47679e-05
2.64026e-07
1.48248e-05
5.74686e-07
1.48515e-05
5.23675e-07
1.50595e-05
2.91922e-07
1.49969e-05
3.45421e-07
1.51878e-05
1.88883e-07
1.54284e-05
4.94206e-08
-2.15368e-07
1.58746e-05
1.2909e-05
2.16624e-06
1.34201e-05
2.91394e-06
1.36138e-05
2.21356e-06
1.37419e-05
8.68741e-07
1.39039e-05
1.03076e-06
1.40419e-05
6.27198e-07
1.41741e-05
1.08502e-06
1.4307e-05
7.73279e-07
1.44441e-05
6.03741e-07
1.44862e-05
6.01503e-07
1.45819e-05
4.86914e-07
1.46495e-05
7.05657e-07
1.46955e-05
2.17954e-07
1.47544e-05
5.15848e-07
1.48369e-05
4.41207e-07
1.49957e-05
1.33042e-07
1.4981e-05
3.60137e-07
1.5164e-05
5.91307e-09
1.53505e-05
-1.37107e-07
-5.39187e-07
1.56743e-05
1.28857e-05
1.78049e-06
1.33456e-05
2.45407e-06
1.35855e-05
1.97364e-06
1.37195e-05
7.34751e-07
1.3873e-05
8.77255e-07
1.39873e-05
5.12902e-07
1.41473e-05
9.25057e-07
1.42656e-05
6.55001e-07
1.43645e-05
5.04829e-07
1.44109e-05
5.55106e-07
1.45311e-05
3.66702e-07
1.45966e-05
6.40149e-07
1.46516e-05
1.6301e-07
1.47422e-05
4.25236e-07
1.48118e-05
3.7158e-07
1.49245e-05
2.03468e-08
1.49889e-05
2.95757e-07
1.50725e-05
-7.77506e-08
1.52292e-05
-2.93732e-07
-7.04392e-07
1.53944e-05
1.28427e-05
1.43774e-06
1.32733e-05
2.02346e-06
1.35727e-05
1.67427e-06
1.37132e-05
5.94285e-07
1.38242e-05
7.66262e-07
1.39529e-05
3.8415e-07
1.41236e-05
7.54407e-07
1.41998e-05
5.78758e-07
1.43071e-05
3.97541e-07
1.4388e-05
4.74251e-07
1.45012e-05
2.53464e-07
1.45575e-05
5.8381e-07
1.46217e-05
9.88607e-08
1.472e-05
3.26902e-07
1.47591e-05
3.32459e-07
1.48697e-05
-9.02532e-08
1.49604e-05
2.05141e-07
1.49632e-05
-8.05777e-08
1.51854e-05
-5.15898e-07
-8.81175e-07
1.53621e-05
1.27981e-05
1.13963e-06
1.32488e-05
1.57278e-06
1.35775e-05
1.34554e-06
1.36792e-05
4.92563e-07
1.3784e-05
6.61469e-07
1.3935e-05
2.33218e-07
1.40859e-05
6.03448e-07
1.4155e-05
5.09657e-07
1.43001e-05
2.52479e-07
1.43776e-05
3.96768e-07
1.44539e-05
1.77096e-07
1.45263e-05
5.11417e-07
1.4585e-05
4.02e-08
1.46693e-05
2.4258e-07
1.47214e-05
2.80395e-07
1.48513e-05
-2.20159e-07
1.48938e-05
1.62579e-07
1.49395e-05
-1.26275e-07
1.52483e-05
-8.24619e-07
-9.79524e-07
1.53466e-05
1.27859e-05
8.53745e-07
1.32507e-05
1.10799e-06
1.35395e-05
1.05669e-06
1.36365e-05
3.95541e-07
1.37785e-05
5.1954e-07
1.39112e-05
1.0047e-07
1.4049e-05
4.65697e-07
1.4145e-05
4.13668e-07
1.42924e-05
1.0509e-07
1.4338e-05
3.51099e-07
1.44064e-05
1.08689e-07
1.45066e-05
4.11293e-07
1.45535e-05
-6.71124e-09
1.46377e-05
1.58385e-07
1.47225e-05
1.95597e-07
1.48264e-05
-3.24059e-07
1.48338e-05
1.55099e-07
1.50117e-05
-3.04155e-07
1.52317e-05
-1.04459e-06
-8.01519e-07
1.50537e-05
1.27846e-05
5.69134e-07
1.32127e-05
6.79927e-07
1.34894e-05
7.79926e-07
1.36464e-05
2.38588e-07
1.37846e-05
3.81343e-07
1.38762e-05
8.88457e-09
1.40312e-05
3.10672e-07
1.41348e-05
3.10103e-07
1.42568e-05
-1.69836e-08
1.43025e-05
3.05417e-07
1.43897e-05
2.15474e-08
1.45071e-05
2.93878e-07
1.45244e-05
-2.4053e-08
1.46328e-05
5.00228e-08
1.47242e-05
1.04199e-07
1.47571e-05
-3.57002e-07
1.4827e-05
8.52531e-08
1.50747e-05
-5.51887e-07
1.50467e-05
-1.01659e-06
-5.97925e-07
1.48431e-05
1.27622e-05
3.06894e-07
1.31719e-05
2.70243e-07
1.34976e-05
4.5424e-07
1.36747e-05
6.14758e-08
1.37619e-05
2.94137e-07
1.38475e-05
-7.6674e-08
1.40253e-05
1.32817e-07
1.41161e-05
2.19357e-07
1.42388e-05
-1.39658e-07
1.42983e-05
2.45907e-07
1.43966e-05
-7.67478e-08
1.4494e-05
1.96421e-07
1.45019e-05
-3.1891e-08
1.46202e-05
-6.82854e-08
1.47085e-05
1.58482e-08
1.46994e-05
-3.47884e-07
1.48794e-05
-9.47755e-08
1.50354e-05
-7.07808e-07
1.48514e-05
-8.32597e-07
-7.541e-07
1.50075e-05
1.27462e-05
6.06657e-08
1.31846e-05
-1.68115e-07
1.3523e-05
1.15786e-07
1.36557e-05
-7.11543e-08
1.37289e-05
2.20868e-07
1.3845e-05
-1.92734e-07
1.40241e-05
-4.63318e-08
1.41165e-05
1.26955e-07
1.42421e-05
-2.65242e-07
1.43031e-05
1.84895e-07
1.4392e-05
-1.65575e-07
1.4469e-05
1.19407e-07
1.44832e-05
-4.60702e-08
1.46344e-05
-2.19491e-07
1.46757e-05
-2.54488e-08
1.47147e-05
-3.86878e-07
1.49103e-05
-2.90413e-07
1.4937e-05
-7.34532e-07
1.48423e-05
-7.37877e-07
-1.31528e-06
1.54035e-05
1.27558e-05
-1.95104e-07
1.32035e-05
-6.15875e-07
1.35086e-05
-1.89299e-07
1.3625e-05
-1.8751e-07
1.37362e-05
1.09667e-07
1.38657e-05
-3.22248e-07
1.40245e-05
-2.05103e-07
1.41271e-05
2.42791e-08
1.42318e-05
-3.69865e-07
1.43026e-05
1.14051e-07
1.43809e-05
-2.43844e-07
1.4452e-05
4.82633e-08
1.44998e-05
-9.38138e-08
1.46507e-05
-3.70442e-07
1.46624e-05
-3.71247e-08
1.47358e-05
-4.6032e-07
1.49124e-05
-4.67009e-07
1.48452e-05
-6.67298e-07
1.49892e-05
-8.81914e-07
-2.01831e-06
1.56923e-05
1.27667e-05
-4.61758e-07
1.31979e-05
-1.04714e-06
1.34984e-05
-4.89806e-07
1.36325e-05
-3.21549e-07
1.37683e-05
-2.61262e-08
1.38745e-05
-4.28529e-07
1.40189e-05
-3.49439e-07
1.4131e-05
-8.78024e-08
1.42195e-05
-4.58408e-07
1.43175e-05
1.60159e-08
1.4387e-05
-3.13349e-07
1.44451e-05
-9.77636e-09
1.45519e-05
-2.00641e-07
1.46256e-05
-4.44154e-07
1.46619e-05
-7.33568e-08
1.47417e-05
-5.40192e-07
1.4898e-05
-6.23315e-07
1.48337e-05
-6.0292e-07
1.49887e-05
-1.03698e-06
-9.281e-07
1.38985e-05
1.27755e-05
-7.37305e-07
1.32029e-05
-1.47448e-06
1.35171e-05
-8.03983e-07
1.36522e-05
-4.56658e-07
1.37778e-05
-1.51736e-07
1.3869e-05
-5.19755e-07
1.40264e-05
-5.06881e-07
1.41499e-05
-2.11237e-07
1.42261e-05
-5.34631e-07
1.43559e-05
-1.13825e-07
1.43783e-05
-3.35731e-07
1.4473e-05
-1.04435e-07
1.45664e-05
-2.94083e-07
1.46139e-05
-4.91638e-07
1.4655e-05
-1.14397e-07
1.47977e-05
-6.82944e-07
1.48573e-05
-6.82899e-07
1.49169e-05
-6.62563e-07
1.50884e-05
-1.20845e-06
-1.09135e-06
1.52516e-05
1.27946e-05
-1.03195e-06
1.32261e-05
-1.90592e-06
1.35382e-05
-1.11606e-06
1.36568e-05
-5.75287e-07
1.3778e-05
-2.72949e-07
1.38863e-05
-6.28049e-07
1.40668e-05
-6.87398e-07
1.41691e-05
-3.13508e-07
1.42501e-05
-6.15622e-07
1.43784e-05
-2.42129e-07
1.43761e-05
-3.33437e-07
1.4502e-05
-2.30302e-07
1.45896e-05
-3.8169e-07
1.45973e-05
-4.99367e-07
1.47157e-05
-2.32782e-07
1.48213e-05
-7.88601e-07
1.48425e-05
-7.04043e-07
1.49842e-05
-8.04235e-07
1.50467e-05
-1.27095e-06
-1.17189e-06
1.51272e-05
1.28211e-05
-1.35302e-06
1.32568e-05
-2.34165e-06
1.35553e-05
-1.41454e-06
1.3663e-05
-6.83053e-07
1.37981e-05
-4.0806e-07
1.39353e-05
-7.65178e-07
1.40965e-05
-8.4859e-07
1.41795e-05
-3.96547e-07
1.42807e-05
-7.16859e-07
1.43893e-05
-3.50663e-07
1.4392e-05
-3.36207e-07
1.4557e-05
-3.95232e-07
1.45978e-05
-4.22532e-07
1.46259e-05
-5.27437e-07
1.47737e-05
-3.80605e-07
1.48084e-05
-8.23278e-07
1.48732e-05
-7.68817e-07
1.50142e-05
-9.45267e-07
1.50419e-05
-1.29863e-06
-1.29276e-06
1.51627e-05
1.28539e-05
-1.70689e-06
1.3293e-05
-2.78078e-06
1.35744e-05
-1.69599e-06
1.36821e-05
-7.90677e-07
1.38389e-05
-5.64876e-07
1.39813e-05
-9.07612e-07
1.41035e-05
-9.70752e-07
1.42108e-05
-5.03855e-07
1.43195e-05
-8.25594e-07
1.44037e-05
-4.34817e-07
1.4442e-05
-3.74564e-07
1.46016e-05
-5.54803e-07
1.46044e-05
-4.2531e-07
1.46833e-05
-6.06386e-07
1.47852e-05
-4.8252e-07
1.48264e-05
-8.64446e-07
1.49222e-05
-8.64641e-07
1.50287e-05
-1.05171e-06
1.50758e-05
-1.34577e-06
-1.46621e-06
1.52493e-05
1.28919e-05
-2.0988e-06
1.33335e-05
-3.22234e-06
1.35984e-05
-1.96096e-06
1.37145e-05
-9.06748e-07
1.38841e-05
-7.34475e-07
1.40143e-05
-1.03778e-06
1.41298e-05
-1.08632e-06
1.42694e-05
-6.4344e-07
1.4351e-05
-9.07181e-07
1.44345e-05
-5.18247e-07
1.45049e-05
-4.44973e-07
1.46188e-05
-6.68722e-07
1.46412e-05
-4.47753e-07
1.47315e-05
-6.96686e-07
1.48037e-05
-5.54674e-07
1.4881e-05
-9.41798e-07
1.49572e-05
-9.40858e-07
1.50534e-05
-1.14785e-06
1.51422e-05
-1.43455e-06
-1.6326e-06
1.53085e-05
1.29356e-05
-2.53442e-06
1.33824e-05
-3.66917e-06
1.35962e-05
-2.17468e-06
1.37528e-05
-1.06335e-06
1.39289e-05
-9.10637e-07
1.40591e-05
-1.16792e-06
1.41888e-05
-1.21605e-06
1.43213e-05
-7.75888e-07
1.43776e-05
-9.6351e-07
1.44897e-05
-6.30382e-07
1.45556e-05
-5.10889e-07
1.46475e-05
-7.6062e-07
1.47026e-05
-5.02819e-07
1.47772e-05
-7.71279e-07
1.48503e-05
-6.27769e-07
1.49362e-05
-1.02775e-06
1.49802e-05
-9.84829e-07
1.51062e-05
-1.2738e-06
1.52044e-05
-1.53282e-06
-1.80028e-06
1.53721e-05
1.2989e-05
-3.02337e-06
1.34368e-05
-4.117e-06
1.36079e-05
-2.34575e-06
1.37962e-05
-1.25174e-06
1.39849e-05
-1.09934e-06
1.41235e-05
-1.30643e-06
1.42535e-05
-1.34607e-06
1.4355e-05
-8.7739e-07
1.44249e-05
-1.03342e-06
1.45474e-05
-7.52889e-07
1.46058e-05
-5.6931e-07
1.46985e-05
-8.53268e-07
1.47681e-05
-5.72471e-07
1.48277e-05
-8.30815e-07
1.49084e-05
-7.08468e-07
1.49781e-05
-1.09746e-06
1.50228e-05
-1.02957e-06
1.51661e-05
-1.4171e-06
1.52457e-05
-1.61235e-06
-2.00056e-06
1.54459e-05
1.3047e-05
-3.57037e-06
1.34926e-05
-4.5626e-06
1.36504e-05
-2.50355e-06
1.38535e-05
-1.45486e-06
1.40508e-05
-1.29661e-06
1.4193e-05
-1.44867e-06
1.43075e-05
-1.46053e-06
1.43972e-05
-9.67105e-07
1.44894e-05
-1.12566e-06
1.45979e-05
-8.61349e-07
1.46677e-05
-6.39094e-07
1.47557e-05
-9.41317e-07
1.48354e-05
-6.52153e-07
1.48845e-05
-8.79894e-07
1.49675e-05
-7.9144e-07
1.50288e-05
-1.15882e-06
1.50768e-05
-1.07758e-06
1.51998e-05
-1.54007e-06
1.52598e-05
-1.67231e-06
-2.22775e-06
1.54869e-05
1.31062e-05
-4.17661e-06
1.35607e-05
-5.01707e-06
1.37101e-05
-2.65297e-06
1.39146e-05
-1.65933e-06
1.41198e-05
-1.50183e-06
1.42669e-05
-1.59572e-06
1.43638e-05
-1.55747e-06
1.44615e-05
-1.06482e-06
1.45626e-05
-1.2267e-06
1.46544e-05
-9.53172e-07
1.47414e-05
-7.26134e-07
1.48176e-05
-1.01752e-06
1.49043e-05
-7.38797e-07
1.49406e-05
-9.16229e-07
1.50187e-05
-8.69547e-07
1.50581e-05
-1.19816e-06
1.50874e-05
-1.10687e-06
1.51535e-05
-1.60622e-06
1.51766e-05
-1.69536e-06
-2.44047e-06
1.53893e-05
1.31759e-05
-4.85251e-06
1.36383e-05
-5.47951e-06
1.37713e-05
-2.78593e-06
1.39815e-05
-1.86957e-06
1.42082e-05
-1.72855e-06
1.4356e-05
-1.74346e-06
1.44361e-05
-1.63754e-06
1.45499e-05
-1.17866e-06
1.46377e-05
-1.31446e-06
1.47128e-05
-1.02829e-06
1.47997e-05
-8.13041e-07
1.48437e-05
-1.06149e-06
1.49051e-05
-8.0021e-07
1.491e-05
-9.21196e-07
1.49454e-05
-9.04873e-07
1.49223e-05
-1.17513e-06
1.4903e-05
-1.08753e-06
1.48531e-05
-1.55635e-06
1.48131e-05
-1.65531e-06
-2.58793e-06
1.49605e-05
1.32625e-05
-5.61499e-06
1.36998e-05
-5.91681e-06
1.38404e-05
-2.92655e-06
1.40829e-05
-2.11204e-06
1.43229e-05
-1.96854e-06
1.44467e-05
-1.86733e-06
1.45038e-05
-1.69456e-06
1.45988e-05
-1.27372e-06
1.46237e-05
-1.33938e-06
1.4645e-05
-1.04957e-06
1.46732e-05
-8.41197e-07
1.46326e-05
-1.02088e-06
1.46196e-05
-7.87208e-07
1.45556e-05
-8.57285e-07
1.45058e-05
-8.55035e-07
1.43966e-05
-1.06594e-06
1.43095e-05
-1.00037e-06
1.41396e-05
-1.3865e-06
1.39879e-05
-1.50358e-06
-1.84555e-06
1.32455e-05
1.33632e-05
-6.47818e-06
1.36967e-05
-6.25037e-06
1.39441e-05
-3.1739e-06
1.42077e-05
-2.3757e-06
1.43838e-05
-2.14463e-06
1.44142e-05
-1.89769e-06
1.43738e-05
-1.65414e-06
1.43495e-05
-1.24948e-06
1.42425e-05
-1.23237e-06
1.41527e-05
-9.59695e-07
1.40707e-05
-7.5929e-07
1.39308e-05
-8.8089e-07
1.38332e-05
-6.89671e-07
1.37032e-05
-7.27279e-07
1.35788e-05
-7.30664e-07
1.34136e-05
-9.00719e-07
1.32678e-05
-8.54573e-07
1.30396e-05
-1.15829e-06
1.2838e-05
-1.30201e-06
-1.72592e-06
1.27184e-05
1.34856e-05
-7.46376e-06
1.37582e-05
-6.52297e-06
1.39993e-05
-3.41498e-06
1.41366e-05
-2.51299e-06
1.40823e-05
-2.09033e-06
1.38995e-05
-1.71492e-06
1.36741e-05
-1.42871e-06
1.34827e-05
-1.05815e-06
1.32469e-05
-9.96562e-07
1.30618e-05
-7.74559e-07
1.29008e-05
-5.98337e-07
1.27063e-05
-6.86306e-07
1.25617e-05
-5.45161e-07
1.2399e-05
-5.64553e-07
1.22393e-05
-5.70937e-07
1.20484e-05
-7.09858e-07
1.18715e-05
-6.77655e-07
1.16196e-05
-9.06394e-07
1.13504e-05
-1.03285e-06
-1.18495e-06
1.08095e-05
1.35938e-05
-8.55757e-06
1.36632e-05
-6.5924e-06
1.36211e-05
-3.37289e-06
1.33962e-05
-2.28803e-06
1.30191e-05
-1.71321e-06
1.26216e-05
-1.31746e-06
1.22576e-05
-1.06468e-06
1.19686e-05
-7.69151e-07
1.16791e-05
-7.07134e-07
1.14592e-05
-5.54622e-07
1.12722e-05
-4.11367e-07
1.10681e-05
-4.8217e-07
1.09111e-05
-3.88131e-07
1.07429e-05
-3.96389e-07
1.05758e-05
-4.03841e-07
1.03805e-05
-5.14581e-07
1.01948e-05
-4.91903e-07
9.93814e-06
-6.49761e-07
9.67142e-06
-7.66128e-07
-7.86647e-07
9.27312e-06
1.34147e-05
-9.47225e-06
1.28904e-05
-6.0681e-06
1.23223e-05
-2.8048e-06
1.17127e-05
-1.67844e-06
1.11343e-05
-1.13481e-06
1.06544e-05
-8.37587e-07
1.02604e-05
-6.70658e-07
9.96099e-06
-4.69724e-07
9.68295e-06
-4.29099e-07
9.47201e-06
-3.43677e-07
9.29767e-06
-2.37031e-07
9.11253e-06
-2.9703e-07
8.96546e-06
-2.41064e-07
8.81173e-06
-2.42656e-07
8.65676e-06
-2.4887e-07
8.47405e-06
-3.31864e-07
8.29571e-06
-3.13569e-07
8.05883e-06
-4.12877e-07
7.79847e-06
-5.05773e-07
-4.87791e-07
7.49962e-06
1.24272e-05
-9.39947e-06
1.10045e-05
-4.6454e-06
9.97654e-06
-1.77682e-06
9.19931e-06
-9.01216e-07
8.61956e-06
-5.55062e-07
8.18674e-06
-4.04764e-07
7.84524e-06
-3.29158e-07
7.5951e-06
-2.19582e-07
7.36889e-06
-2.02894e-07
7.19484e-06
-1.69625e-07
7.0592e-06
-1.0139e-07
6.90953e-06
-1.47364e-07
6.78796e-06
-1.19491e-07
6.66326e-06
-1.17958e-07
6.53527e-06
-1.20875e-07
6.37826e-06
-1.74855e-07
6.2242e-06
-1.59512e-07
6.02395e-06
-2.12628e-07
5.78639e-06
-2.68209e-07
-2.41846e-07
5.54045e-06
1.01121e-05
-7.01155e-06
7.83021e-06
-2.36353e-06
6.70704e-06
-6.53651e-07
6.06063e-06
-2.54804e-07
5.64647e-06
-1.40903e-07
5.34788e-06
-1.06175e-07
5.11086e-06
-9.21386e-08
4.94596e-06
-5.46768e-08
4.79585e-06
-5.27794e-08
4.67616e-06
-4.9945e-08
4.59467e-06
-1.98986e-08
4.49025e-06
-4.29431e-08
4.40612e-06
-3.53577e-08
4.32101e-06
-3.28428e-08
4.23283e-06
-3.26942e-08
4.11445e-06
-5.64819e-08
4.00284e-06
-4.78991e-08
3.85519e-06
-6.49744e-08
3.67131e-06
-8.43274e-08
-7.6588e-08
3.50605e-06
5.48845e-06
3.12492e-06
2.47127e-06
2.21646e-06
2.07556e-06
1.96939e-06
1.87725e-06
1.82257e-06
1.76979e-06
1.71985e-06
1.69995e-06
1.657e-06
1.62165e-06
1.5888e-06
1.55611e-06
1.49963e-06
1.45173e-06
1.38675e-06
1.30243e-06
1.22584e-06
2.18342e-06
1.34459e-06
-2.13768e-06
2.8112e-06
5.30165e-07
-1.15794e-06
3.04488e-06
-7.98555e-07
5.64867e-07
2.997e-06
-1.46646e-06
1.51434e-06
2.89667e-06
-1.86652e-06
1.96685e-06
2.6884e-06
-2.00955e-06
2.21782e-06
2.5799e-06
-5.75374e-07
6.83869e-07
2.81961e-06
7.59354e-08
-3.15641e-07
3.67525e-06
8.35157e-07
-1.69079e-06
4.61591e-06
1.44965e-06
-2.39032e-06
5.46216e-06
2.64677e-06
-3.49302e-06
6.09324e-06
2.47555e-06
-3.10663e-06
6.85623e-06
3.27032e-06
-4.03331e-06
7.71719e-06
3.27496e-06
-4.13592e-06
8.55484e-06
2.56295e-06
-3.40061e-06
9.37986e-06
3.23394e-06
-4.05895e-06
1.01417e-05
3.50333e-06
-4.26516e-06
1.09382e-05
2.46894e-06
-3.26544e-06
1.17974e-05
9.17043e-07
-1.7763e-06
1.25633e-05
-1.33357e-07
-6.32453e-07
1.31883e-05
-2.36448e-06
1.73939e-06
1.35098e-05
-4.19053e-06
3.86909e-06
1.37576e-05
-5.44398e-06
5.19618e-06
1.3826e-05
-7.43485e-06
7.3664e-06
1.36662e-05
-8.47951e-06
8.63936e-06
1.40376e-05
-1.0667e-05
1.02955e-05
1.46627e-05
-1.30094e-05
1.23843e-05
1.55086e-05
-1.48466e-05
1.40007e-05
1.622e-05
-1.74107e-05
1.66993e-05
1.61684e-05
-1.85566e-05
1.86083e-05
1.57808e-05
-1.87025e-05
1.90902e-05
1.55093e-05
-1.9576e-05
1.98476e-05
1.50243e-05
-1.98719e-05
2.03569e-05
1.46082e-05
-1.99991e-05
2.04152e-05
1.45109e-05
-2.05499e-05
2.06473e-05
1.43464e-05
-2.15144e-05
2.16788e-05
1.40943e-05
-2.13292e-05
2.15813e-05
1.41756e-05
-2.14055e-05
2.13242e-05
1.46354e-05
-2.28751e-05
2.24153e-05
1.52225e-05
-2.32243e-05
2.26373e-05
1.57733e-05
-2.31292e-05
2.25784e-05
1.61726e-05
-2.326e-05
2.28607e-05
1.62755e-05
-2.181e-05
2.1707e-05
1.62998e-05
-1.95407e-05
1.95164e-05
1.64842e-05
-1.73593e-05
1.71749e-05
1.64972e-05
-1.49661e-05
1.49531e-05
1.63372e-05
-1.1935e-05
1.2095e-05
1.62503e-05
-8.19985e-06
8.28675e-06
1.606e-05
-5.35717e-06
5.54751e-06
1.57423e-05
-2.68628e-06
3.00396e-06
1.54945e-05
1.0118e-06
-7.63978e-07
1.52781e-05
3.50655e-06
-3.2902e-06
1.45807e-05
5.54834e-06
-4.85091e-06
1.35841e-05
7.78586e-06
-6.7893e-06
1.28977e-05
7.98808e-06
-7.3016e-06
1.22636e-05
7.60351e-06
-6.96941e-06
1.15073e-05
7.17278e-06
-6.4165e-06
1.10453e-05
6.60446e-06
-6.14243e-06
1.09063e-05
7.0202e-06
-6.88123e-06
1.08309e-05
5.92568e-06
-5.85033e-06
1.08206e-05
4.51999e-06
-4.50967e-06
1.08488e-05
4.42157e-06
-4.44972e-06
1.07293e-05
4.82337e-06
-4.70388e-06
1.04787e-05
5.97337e-06
-5.72281e-06
1.03858e-05
6.57634e-06
-6.48345e-06
1.05062e-05
7.06354e-06
-7.18392e-06
1.08179e-05
7.67254e-06
-7.98427e-06
1.13112e-05
8.84676e-06
-9.34005e-06
1.17462e-05
1.03999e-05
-1.08349e-05
1.20462e-05
1.07148e-05
-1.10148e-05
1.23412e-05
1.02225e-05
-1.05175e-05
1.26905e-05
1.03806e-05
-1.07298e-05
1.27715e-05
1.15761e-05
-1.16572e-05
1.24578e-05
1.19784e-05
-1.16647e-05
1.21259e-05
1.21395e-05
-1.18076e-05
1.20073e-05
1.35235e-05
-1.34049e-05
1.20335e-05
1.59512e-05
-1.59775e-05
1.20392e-05
1.81666e-05
-1.81723e-05
1.19187e-05
1.95024e-05
-1.93818e-05
1.16927e-05
1.97151e-05
-1.94892e-05
1.14142e-05
1.88995e-05
-1.86209e-05
1.10774e-05
1.73373e-05
-1.70005e-05
1.06898e-05
1.44696e-05
-1.4082e-05
1.02809e-05
1.11667e-05
-1.07578e-05
9.79077e-06
6.57891e-06
-6.08877e-06
9.34047e-06
2.10471e-06
-1.65442e-06
8.77309e-06
-2.5928e-06
3.16018e-06
8.28403e-06
-9.86014e-06
1.03492e-05
7.93802e-06
-1.78626e-05
1.82086e-05
7.59744e-06
-2.49658e-05
2.53064e-05
7.31561e-06
-2.62382e-05
2.652e-05
6.93978e-06
-2.31173e-05
2.34932e-05
6.64032e-06
-1.97287e-05
2.00281e-05
6.18433e-06
-1.57518e-05
1.62078e-05
5.92584e-06
-1.28477e-05
1.31062e-05
5.88042e-06
-1.21552e-05
1.22006e-05
5.76603e-06
-1.19276e-05
1.2042e-05
5.90638e-06
-1.20545e-05
1.19141e-05
6.19475e-06
-1.32344e-05
1.2946e-05
6.45594e-06
-1.43344e-05
1.40732e-05
6.5269e-06
-1.47972e-05
1.47262e-05
6.54354e-06
-1.43603e-05
1.43436e-05
6.6777e-06
-1.67089e-05
1.65748e-05
6.82164e-06
-1.84451e-05
1.83012e-05
7.0706e-06
-1.84081e-05
1.81591e-05
7.19556e-06
-1.86068e-05
1.84818e-05
7.41737e-06
-1.96088e-05
1.9387e-05
7.74089e-06
-1.93986e-05
1.90751e-05
8.09963e-06
-1.84444e-05
1.80856e-05
8.52764e-06
-1.75843e-05
1.71563e-05
8.98499e-06
-1.61416e-05
1.56842e-05
9.36369e-06
-1.34669e-05
1.30882e-05
9.71087e-06
-9.63508e-06
9.2879e-06
1.00979e-05
-5.67888e-06
5.29184e-06
1.05664e-05
-2.43431e-06
1.96586e-06
1.1077e-05
9.29981e-07
-1.44066e-06
1.14256e-05
4.75214e-06
-5.10067e-06
1.16874e-05
8.78281e-06
-9.04469e-06
1.19662e-05
1.23604e-05
-1.26391e-05
1.21911e-05
1.48074e-05
-1.50323e-05
1.23428e-05
1.66888e-05
-1.68405e-05
1.25456e-05
1.87316e-05
-1.89343e-05
1.27333e-05
2.02833e-05
-2.0471e-05
1.27872e-05
2.05375e-05
-2.05914e-05
1.27269e-05
1.97251e-05
-1.96648e-05
1.26644e-05
1.86078e-05
-1.85452e-05
1.27426e-05
1.7522e-05
-1.76003e-05
1.31064e-05
1.63422e-05
-1.6706e-05
1.34744e-05
1.51241e-05
-1.5492e-05
1.37178e-05
1.38024e-05
-1.40459e-05
1.39951e-05
1.20511e-05
-1.23283e-05
1.39838e-05
1.00592e-05
-1.00479e-05
1.37953e-05
8.00426e-06
-7.81574e-06
1.34425e-05
6.12302e-06
-5.77027e-06
1.30087e-05
4.11453e-06
-3.68074e-06
1.24629e-05
2.44534e-06
-1.89952e-06
1.17064e-05
1.67709e-06
-9.20566e-07
1.09052e-05
1.82533e-06
-1.02416e-06
1.00839e-05
2.4632e-06
-1.64184e-06
9.47591e-06
2.91473e-06
-2.30679e-06
8.94177e-06
3.01834e-06
-2.4842e-06
8.62624e-06
2.60591e-06
-2.29038e-06
8.31222e-06
2.07338e-06
-1.75936e-06
8.12882e-06
1.40797e-06
-1.22457e-06
7.8981e-06
9.35899e-07
-7.0518e-07
7.75022e-06
5.5332e-07
-4.05436e-07
7.55519e-06
4.04967e-07
-2.09942e-07
7.42144e-06
3.44443e-07
-2.10685e-07
7.24422e-06
4.37354e-07
-2.60142e-07
7.13462e-06
5.2408e-07
-4.14481e-07
7.00841e-06
6.75738e-07
-5.49522e-07
6.93521e-06
7.70213e-07
-6.97016e-07
6.86501e-06
8.92022e-07
-8.21821e-07
6.8291e-06
9.33709e-07
-8.97803e-07
6.82399e-06
9.90207e-07
-9.85094e-07
6.80247e-06
9.82763e-07
-9.61241e-07
6.83296e-06
1.01418e-06
-1.04468e-06
6.80457e-06
9.93998e-07
-9.65604e-07
6.86532e-06
1.00986e-06
-1.07062e-06
6.82784e-06
9.95956e-07
-9.58476e-07
6.88693e-06
1.02714e-06
-1.08623e-06
6.8318e-06
1.07183e-06
-1.0167e-06
6.90108e-06
1.08883e-06
-1.1581e-06
6.85266e-06
1.16993e-06
-1.12151e-06
6.91776e-06
1.15825e-06
-1.22335e-06
6.85056e-06
1.34788e-06
-1.28068e-06
6.92221e-06
1.32738e-06
-1.39903e-06
6.87884e-06
1.49426e-06
-1.45089e-06
6.9643e-06
1.47864e-06
-1.5641e-06
6.90274e-06
1.72928e-06
-1.66772e-06
6.96098e-06
1.71429e-06
-1.77253e-06
6.94735e-06
1.97554e-06
-1.96192e-06
7.01576e-06
1.96629e-06
-2.0347e-06
7.02366e-06
2.22681e-06
-2.23472e-06
7.03484e-06
2.30646e-06
-2.31763e-06
7.07876e-06
2.51849e-06
-2.56242e-06
7.07429e-06
2.73012e-06
-2.72564e-06
7.17206e-06
2.8695e-06
-2.96728e-06
7.15528e-06
3.13231e-06
-3.11552e-06
7.24749e-06
3.33444e-06
-3.42665e-06
7.19777e-06
3.59847e-06
-3.54876e-06
7.32704e-06
3.84983e-06
-3.9791e-06
7.26924e-06
4.1892e-06
-4.1314e-06
7.35697e-06
4.50843e-06
-4.59616e-06
7.34659e-06
4.82241e-06
-4.81203e-06
7.35279e-06
5.24494e-06
-5.25114e-06
7.43244e-06
5.64978e-06
-5.72943e-06
7.32281e-06
6.09998e-06
-5.99036e-06
7.43816e-06
6.57366e-06
-6.68901e-06
7.33698e-06
7.23631e-06
-7.13513e-06
7.37187e-06
7.75876e-06
-7.79365e-06
7.32627e-06
8.69482e-06
-8.64923e-06
7.00864e-06
9.52667e-06
-9.20903e-06
7.14896e-06
1.03034e-05
-1.04437e-05
6.98607e-06
1.19792e-05
-1.18163e-05
6.76634e-06
1.31641e-05
-1.29443e-05
7.08867e-06
1.49895e-05
-1.53119e-05
6.28116e-06
1.89576e-05
-1.81501e-05
6.12305e-06
2.09453e-05
-2.07872e-05
3.11538e-05
-3.07219e-05
5.69111e-06
4.3385e-06
7.09678e-07
4.75474e-06
1.1393e-07
4.91358e-06
-9.57404e-07
5.03836e-06
-1.59123e-06
4.97014e-06
-1.7983e-06
4.84599e-06
-1.88539e-06
4.86822e-06
-5.97607e-07
4.82142e-06
1.22738e-07
5.0338e-06
6.22769e-07
5.29432e-06
1.18914e-06
5.91481e-06
2.02628e-06
6.51265e-06
1.87771e-06
7.22748e-06
2.55548e-06
8.23352e-06
2.26892e-06
9.21091e-06
1.58557e-06
1.0188e-05
2.25685e-06
1.11628e-05
2.52856e-06
1.19696e-05
1.66206e-06
1.27273e-05
1.59429e-07
1.35065e-05
-9.12571e-07
1.40134e-05
-2.87141e-06
1.40965e-05
-4.27362e-06
1.41939e-05
-5.54142e-06
1.41086e-05
-7.3495e-06
1.43563e-05
-8.72724e-06
1.51068e-05
-1.14174e-05
1.56767e-05
-1.35792e-05
1.63837e-05
-1.55537e-05
1.66265e-05
-1.76535e-05
1.61362e-05
-1.80663e-05
1.57665e-05
-1.83328e-05
1.54588e-05
-1.92684e-05
1.48951e-05
-1.93083e-05
1.45777e-05
-1.96817e-05
1.44974e-05
-2.04696e-05
1.42006e-05
-2.12176e-05
1.40008e-05
-2.11293e-05
1.42521e-05
-2.16568e-05
1.47359e-05
-2.33589e-05
1.52662e-05
-2.37546e-05
1.56763e-05
-2.35393e-05
1.58846e-05
-2.34683e-05
1.59125e-05
-2.18379e-05
1.59868e-05
-1.9615e-05
1.62082e-05
-1.75807e-05
1.61843e-05
-1.49423e-05
1.59877e-05
-1.17383e-05
1.58794e-05
-8.09161e-06
1.56354e-05
-5.11319e-06
1.52263e-05
-2.27714e-06
1.5012e-05
1.2261e-06
1.48987e-05
3.61982e-06
1.43322e-05
6.11491e-06
1.34882e-05
8.62985e-06
1.28129e-05
8.66337e-06
1.21304e-05
8.28596e-06
1.14132e-05
7.88998e-06
1.09662e-05
7.0515e-06
1.08462e-05
7.14021e-06
1.08442e-05
5.92761e-06
1.08088e-05
4.55544e-06
1.07755e-05
4.45487e-06
1.07093e-05
4.8896e-06
1.05776e-05
6.10502e-06
1.05591e-05
6.59488e-06
1.07696e-05
6.85299e-06
1.12411e-05
7.20107e-06
1.18571e-05
8.2307e-06
1.22727e-05
9.98439e-06
1.24493e-05
1.05382e-05
1.26269e-05
1.00448e-05
1.29371e-05
1.00704e-05
1.30672e-05
1.1446e-05
1.28007e-05
1.22449e-05
1.24266e-05
1.25137e-05
1.22247e-05
1.37253e-05
1.21643e-05
1.60116e-05
1.21186e-05
1.82123e-05
1.19985e-05
1.96224e-05
1.17717e-05
1.9942e-05
1.15193e-05
1.91518e-05
1.12211e-05
1.76355e-05
1.08743e-05
1.48164e-05
1.05179e-05
1.15232e-05
1.00504e-05
7.04638e-06
9.61022e-06
2.54492e-06
9.05252e-06
-2.0351e-06
8.58269e-06
-9.39031e-06
8.26267e-06
-1.75426e-05
7.88437e-06
-2.45875e-05
7.53684e-06
-2.58906e-05
7.14865e-06
-2.27292e-05
6.73506e-06
-1.93151e-05
6.19767e-06
-1.52145e-05
5.91201e-06
-1.25621e-05
5.79044e-06
-1.20336e-05
5.6773e-06
-1.18144e-05
5.83577e-06
-1.2213e-05
6.13269e-06
-1.35313e-05
6.33509e-06
-1.45368e-05
6.27789e-06
-1.474e-05
6.36494e-06
-1.44473e-05
6.53607e-06
-1.68801e-05
6.5919e-06
-1.8501e-05
6.76614e-06
-1.85823e-05
6.78468e-06
-1.86253e-05