/*--------------------------------*- C++ -*----------------------------------*\
| =========                 |                                                 |
| \\      /  F ield         | OpenFOAM: The Open Source CFD Toolbox           |
|  \\    /   O peration     | Version:  2.4.0                                 |
|   \\  /    A nd           | Web:      www.OpenFOAM.org                      |
|    \\/     M anipulation  |                                                 |
\*---------------------------------------------------------------------------*/
FoamFile
{
    version     2.0;
    format      ascii;
    class       volVectorField;
    location    "0.092";
    object      U;
}
// * * * * * * * * * * * * * * * * * * * * * * * * * * * * * * * * * * * * * //

dimensions      [0 1 -1 0 0 0 0];

internalField   nonuniform List<vector> 
17600
(
(5.32748 0.309478 0)
(2.98567 0.0605712 0)
(2.19365 -0.00147362 0)
(1.85259 -0.00370305 0)
(1.70119 -0.00120407 0)
(1.61559 3.06839e-05 0)
(1.53345 -0.000386519 0)
(1.48429 0.000348634 0)
(1.43016 -0.000291631 0)
(1.40249 7.66312e-05 0)
(1.37495 -0.000382953 0)
(1.3441 0.000621071 0)
(1.33281 -0.000270236 0)
(1.299 -4.233e-06 0)
(1.29849 0.000200043 0)
(1.25514 0.000707758 0)
(1.26057 -0.000681298 0)
(1.24334 -0.000446781 0)
(1.19822 0.00277647 0)
(1.37018 -0.0157567 0)
(8.59773 0.872047 0)
(6.95096 0.383429 0)
(5.80213 0.1218 0)
(5.07096 0.0505973 0)
(4.63546 0.0284837 0)
(4.39409 0.0211732 0)
(4.16529 0.0149925 0)
(4.02954 0.0137077 0)
(3.88287 0.00917964 0)
(3.79962 0.00748306 0)
(3.72183 0.00606663 0)
(3.63097 0.00667146 0)
(3.6124 0.00462685 0)
(3.50625 0.00441553 0)
(3.51297 0.00505986 0)
(3.40137 0.00614681 0)
(3.4204 7.26944e-05 0)
(3.35282 0.00556503 0)
(3.26831 -0.00169258 0)
(3.55525 0.0383906 0)
(9.85513 1.02227 0)
(9.34935 0.577632 0)
(8.45617 0.240896 0)
(7.6692 0.129843 0)
(7.06335 0.0822041 0)
(6.72181 0.0586047 0)
(6.38481 0.042615 0)
(6.18342 0.0365256 0)
(5.96942 0.0265772 0)
(5.83356 0.020781 0)
(5.72371 0.018465 0)
(5.57127 0.0163826 0)
(5.56121 0.0136281 0)
(5.38249 0.0125034 0)
(5.40472 0.0126574 0)
(5.23528 0.0146833 0)
(5.26779 0.00294524 0)
(5.15071 0.0155225 0)
(5.06642 -0.00207099 0)
(5.27813 0.0728825 0)
(10.1564 0.9478 0)
(10.5801 0.669736 0)
(10.2265 0.329322 0)
(9.68638 0.209957 0)
(9.07769 0.148127 0)
(8.7285 0.108095 0)
(8.33353 0.0806347 0)
(8.09507 0.0669507 0)
(7.84512 0.05099 0)
(7.66104 0.0389349 0)
(7.54364 0.0364621 0)
(7.32587 0.0292817 0)
(7.34065 0.0261749 0)
(7.09344 0.0242319 0)
(7.13219 0.0225578 0)
(6.91872 0.0259334 0)
(6.95671 0.00798656 0)
(6.8147 0.0289234 0)
(6.70656 -0.000162939 0)
(6.84949 0.0889221 0)
(10.0658 0.805124 0)
(10.9455 0.67241 0)
(11.0782 0.354968 0)
(10.9554 0.255866 0)
(10.525 0.204323 0)
(10.292 0.157165 0)
(9.92581 0.122498 0)
(9.69521 0.100742 0)
(9.46016 0.0799197 0)
(9.23689 0.0598511 0)
(9.1502 0.0582487 0)
(8.87083 0.0447001 0)
(8.92184 0.0404771 0)
(8.62801 0.0390669 0)
(8.6758 0.0337556 0)
(8.44458 0.0393915 0)
(8.465 0.0131958 0)
(8.3577 0.0466535 0)
(8.16036 0.00545576 0)
(8.28151 0.0599285 0)
(9.96893 0.689522 0)
(10.9078 0.641872 0)
(11.2235 0.330879 0)
(11.4475 0.250645 0)
(11.2644 0.226734 0)
(11.2463 0.186841 0)
(11.0218 0.156299 0)
(10.8651 0.129865 0)
(10.7185 0.108378 0)
(10.4813 0.0805118 0)
(10.4686 0.080742 0)
(10.1547 0.0617697 0)
(10.2433 0.0543056 0)
(9.94394 0.0558906 0)
(9.99185 0.0448333 0)
(9.77693 0.0553412 0)
(9.76028 0.0153825 0)
(9.7187 0.0679658 0)
(9.47878 0.0220065 0)
(9.45164 -0.0162378 0)
(9.92799 0.597049 0)
(10.8285 0.612685 0)
(11.1046 0.301101 0)
(11.4729 0.217552 0)
(11.4243 0.215465 0)
(11.5711 0.185886 0)
(11.5275 0.169022 0)
(11.4804 0.14181 0)
(11.4976 0.126267 0)
(11.2913 0.0942872 0)
(11.3933 0.0975218 0)
(11.1036 0.0777719 0)
(11.2302 0.0648479 0)
(10.9758 0.0722445 0)
(11.0276 0.0547382 0)
(10.8514 0.0712572 0)
(10.8283 0.0174267 0)
(10.7893 0.0813052 0)
(10.6781 0.0561941 0)
(10.4218 -0.0546052 0)
(9.89152 0.514186 0)
(10.7776 0.578802 0)
(10.9989 0.287147 0)
(11.3725 0.185296 0)
(11.3882 0.196773 0)
(11.5476 0.167804 0)
(11.6194 0.166579 0)
(11.6073 0.135341 0)
(11.7831 0.128411 0)
(11.6213 0.0953447 0)
(11.8322 0.100985 0)
(11.6337 0.0867174 0)
(11.7948 0.0672093 0)
(11.6374 0.0827569 0)
(11.717 0.0604625 0)
(11.5853 0.0837856 0)
(11.6298 0.0181447 0)
(11.5065 0.0909709 0)
(11.6436 0.0685297 0)
(11.259 0.022764 0)
(9.87026 0.440022 0)
(10.6953 0.532794 0)
(10.9778 0.282191 0)
(11.2505 0.157411 0)
(11.3408 0.177291 0)
(11.4595 0.147796 0)
(11.5952 0.160228 0)
(11.5524 0.122813 0)
(11.7872 0.120107 0)
(11.6717 0.0906925 0)
(11.8812 0.0908489 0)
(11.7949 0.0884303 0)
(11.9449 0.058757 0)
(11.9011 0.0847417 0)
(12.012 0.0580325 0)
(11.9296 0.0879608 0)
(12.081 0.0168635 0)
(11.86 0.0883792 0)
(12.2282 0.0700996 0)
(11.8966 0.0605394 0)
(9.90233 0.378474 0)
(10.5548 0.47567 0)
(10.9762 0.278866 0)
(11.1652 0.135304 0)
(11.2781 0.158185 0)
(11.3849 0.124426 0)
(11.5445 0.154283 0)
(11.5239 0.110114 0)
(11.686 0.109894 0)
(11.6792 0.0846371 0)
(11.7962 0.0810726 0)
(11.7965 0.083358 0)
(11.8905 0.0499975 0)
(11.9325 0.0753088 0)
(12.0321 0.0572066 0)
(11.9838 0.0741738 0)
(12.2133 0.0253045 0)
(11.927 0.0601519 0)
(12.397 0.0714217 0)
(12.1089 0.0416286 0)
(9.94409 0.324865 0)
(10.4312 0.420371 0)
(10.9356 0.267107 0)
(11.1374 0.120881 0)
(11.214 0.138578 0)
(11.3194 0.104075 0)
(11.4647 0.139596 0)
(11.4972 0.105114 0)
(11.5711 0.0966339 0)
(11.6718 0.0788448 0)
(11.7395 0.0699565 0)
(11.7723 0.0831636 0)
(11.8241 0.0366337 0)
(11.9056 0.0683306 0)
(11.9652 0.0523277 0)
(11.9254 0.0618568 0)
(12.2207 0.0238025 0)
(11.842 0.0483258 0)
(12.3512 0.0414329 0)
(12.0588 0.047214 0)
(9.96819 0.279276 0)
(10.367 0.364032 0)
(10.8777 0.250996 0)
(11.0997 0.107468 0)
(11.1653 0.125698 0)
(11.2829 0.0827004 0)
(11.3732 0.127496 0)
(11.4363 0.0967505 0)
(11.5228 0.083436 0)
(11.6438 0.0668971 0)
(11.6806 0.0624125 0)
(11.7378 0.0799026 0)
(11.7922 0.0292623 0)
(11.8407 0.058708 0)
(11.8687 0.0563565 0)
(11.9201 0.038167 0)
(12.1371 0.0320719 0)
(11.8049 0.0299591 0)
(12.2857 0.0169256 0)
(12.0234 -1.86938e-05 0)
(9.98987 0.237798 0)
(10.3454 0.309681 0)
(10.7966 0.232762 0)
(11.0207 0.0963068 0)
(11.1512 0.109954 0)
(11.2634 0.0671665 0)
(11.2965 0.114826 0)
(11.4069 0.0846233 0)
(11.5001 0.0663631 0)
(11.5797 0.0617132 0)
(11.6012 0.0539835 0)
(11.6979 0.07473 0)
(11.7518 0.0231207 0)
(11.7735 0.0559596 0)
(11.8164 0.0489109 0)
(11.9519 0.0192673 0)
(11.9977 0.0386113 0)
(11.9007 0.00704412 0)
(12.151 -0.0053292 0)
(12.0211 -0.0476224 0)
(10.0111 0.197566 0)
(10.3257 0.261954 0)
(10.6972 0.212476 0)
(10.9634 0.0831679 0)
(11.1499 0.093175 0)
(11.2244 0.0560049 0)
(11.2646 0.100341 0)
(11.3937 0.070437 0)
(11.4448 0.0553801 0)
(11.4974 0.0591991 0)
(11.5619 0.0431782 0)
(11.6582 0.0662274 0)
(11.7032 0.019985 0)
(11.7591 0.0477659 0)
(11.8055 0.039387 0)
(11.922 0.00664007 0)
(11.9137 0.0351515 0)
(11.9813 -0.00614265 0)
(11.9293 -0.021901 0)
(12.0459 -0.0676418 0)
(10.0244 0.160139 0)
(10.2764 0.220558 0)
(10.6337 0.185729 0)
(10.9631 0.0664929 0)
(11.117 0.0815866 0)
(11.1846 0.0441799 0)
(11.2649 0.0841619 0)
(11.3526 0.0599291 0)
(11.38 0.0475647 0)
(11.4616 0.0517343 0)
(11.5591 0.0301249 0)
(11.6161 0.0618891 0)
(11.6789 0.0120651 0)
(11.7424 0.0380933 0)
(11.782 0.0353332 0)
(11.8585 -0.00274516 0)
(11.8918 0.0246726 0)
(11.9445 -0.00767189 0)
(11.7965 -0.0366717 0)
(12.1098 -0.0802789 0)
(10.0163 0.128397 0)
(10.241 0.179197 0)
(10.6335 0.149676 0)
(10.943 0.0541711 0)
(11.0605 0.0721252 0)
(11.1796 0.0316942 0)
(11.2548 0.0651179 0)
(11.3004 0.057156 0)
(11.36 0.0313027 0)
(11.4651 0.0445278 0)
(11.5351 0.0195458 0)
(11.5687 0.0553063 0)
(11.6718 0.00736989 0)
(11.6969 0.0264863 0)
(11.7432 0.0318889 0)
(11.8322 -0.015442 0)
(11.8917 0.0167844 0)
(11.8282 -0.00854618 0)
(11.8801 -0.0640493 0)
(12.1324 -0.0995509 0)
(10.0015 0.100575 0)
(10.2587 0.131511 0)
(10.6226 0.117927 0)
(10.8737 0.0451295 0)
(11.0407 0.0619004 0)
(11.1906 0.0133567 0)
(11.2177 0.0556213 0)
(11.2762 0.0436573 0)
(11.368 0.0207854 0)
(11.4415 0.0333916 0)
(11.4919 0.017223 0)
(11.5394 0.0462017 0)
(11.6666 0.00101737 0)
(11.6544 0.0214505 0)
(11.735 0.0231907 0)
(11.8356 -0.0278757 0)
(11.8521 0.0153586 0)
(11.7647 -0.0170903 0)
(12.0619 -0.0987511 0)
(11.9311 -0.100167 0)
(10.0098 0.0706204 0)
(10.2656 0.0876872 0)
(10.5584 0.0910403 0)
(10.8449 0.0351035 0)
(11.0665 0.0429521 0)
(11.1736 0.00689222 0)
(11.1876 0.0362933 0)
(11.2771 0.0400562 0)
(11.3486 -0.00101167 0)
(11.4047 0.0384721 0)
(11.4648 0.00289656 0)
(11.5467 0.0379244 0)
(11.6523 -0.00333716 0)
(11.6293 0.0113484 0)
(11.7496 0.0159613 0)
(11.8191 -0.0383626 0)
(11.7622 0.015728 0)
(11.8381 -0.0452025 0)
(12.0891 -0.11089 0)
(11.6144 -0.0663475 0)
(10.0197 0.0438758 0)
(10.2311 0.0463214 0)
(10.5303 0.063613 0)
(10.8773 0.0129742 0)
(11.065 0.034545 0)
(11.1367 -0.00526508 0)
(11.1853 0.0259899 0)
(11.2693 0.0219388 0)
(11.3245 -0.00215298 0)
(11.401 0.0216537 0)
(11.4577 0.00217394 0)
(11.5665 0.0185786 0)
(11.6124 0.000160057 0)
(11.6278 -0.00231597 0)
(11.7426 0.00662074 0)
(11.779 -0.0341351 0)
(11.7241 0.00268886 0)
(11.9544 -0.065205 0)
(11.9045 -0.0963695 0)
(11.5003 -0.0414153 0)
(10.0081 0.0178829 0)
(10.2221 0.00668328 0)
(10.5615 0.0263354 0)
(10.8823 -0.000387396 0)
(11.0218 0.0248319 0)
(11.1257 -0.0102144 0)
(11.1957 0.00141844 0)
(11.2577 0.021192 0)
(11.3327 -0.025447 0)
(11.4024 0.0268368 0)
(11.4563 -0.018256 0)
(11.5673 0.0207225 0)
(11.5646 -0.00830037 0)
(11.651 -0.0107468 0)
(11.7357 -0.0041853 0)
(11.7414 -0.0317954 0)
(11.7739 -0.024653 0)
(11.9694 -0.0683027 0)
(11.7259 -0.0823519 0)
(11.6686 -0.095954 0)
(9.99998 -0.00583882 0)
(10.2446 -0.040128 0)
(10.5706 -0.00377622 0)
(10.8486 -0.0136022 0)
(11.0089 0.0188834 0)
(11.1496 -0.027734 0)
(11.2043 -0.011002 0)
(11.2527 0.00595499 0)
(11.3477 -0.0297642 0)
(11.3789 0.0126838 0)
(11.4687 -0.0163685 0)
(11.5459 0.00535832 0)
(11.5515 3.35557e-05 0)
(11.692 -0.0343108 0)
(11.7254 0.000135078 0)
(11.716 -0.0490024 0)
(11.8484 -0.0297787 0)
(11.8762 -0.0839982 0)
(11.7156 -0.0532745 0)
(11.9028 -0.207758 0)
(10.0049 -0.0331009 0)
(10.2499 -0.0825133 0)
(10.5571 -0.0330294 0)
(10.847 -0.0251064 0)
(11.0358 0.00370647 0)
(11.1733 -0.0373424 0)
(11.1922 -0.0286352 0)
(11.2562 -0.00170652 0)
(11.3477 -0.0416625 0)
(11.3631 0.00696183 0)
(11.5075 -0.0299231 0)
(11.512 0.00193345 0)
(11.5841 -0.0163012 0)
(11.724 -0.0413387 0)
(11.6803 -0.00636313 0)
(11.7243 -0.0473807 0)
(11.8853 -0.0574878 0)
(11.789 -0.0592851 0)
(11.8309 -0.100006 0)
(11.9498 -0.146952 0)
(10.0079 -0.0601314 0)
(10.2482 -0.124424 0)
(10.5665 -0.0640271 0)
(10.8729 -0.0393538 0)
(11.0592 -0.0100567 0)
(11.1657 -0.0459049 0)
(11.1841 -0.0429612 0)
(11.2809 -0.0133237 0)
(11.3446 -0.0524062 0)
(11.3893 -0.00224291 0)
(11.53 -0.0359351 0)
(11.4913 -0.00331155 0)
(11.6303 -0.0277715 0)
(11.7172 -0.0453645 0)
(11.6458 -0.0109333 0)
(11.7798 -0.0549596 0)
(11.876 -0.0751989 0)
(11.7779 -0.0505517 0)
(11.9118 -0.135177 0)
(11.8763 -0.0677221 0)
(10.0078 -0.0877215 0)
(10.2601 -0.168403 0)
(10.5908 -0.0941839 0)
(10.892 -0.0540458 0)
(11.0692 -0.0196089 0)
(11.1547 -0.0583564 0)
(11.2151 -0.0562813 0)
(11.3165 -0.0312083 0)
(11.3362 -0.0524909 0)
(11.4421 -0.0232386 0)
(11.5146 -0.027662 0)
(11.4971 -0.0201993 0)
(11.6781 -0.0278764 0)
(11.6934 -0.0543459 0)
(11.655 -0.00987109 0)
(11.8597 -0.0813605 0)
(11.8308 -0.0617968 0)
(11.8188 -0.0809124 0)
(11.9385 -0.113378 0)
(11.7838 -0.120224 0)
(10.0065 -0.119735 0)
(10.2799 -0.209 0)
(10.6183 -0.12785 0)
(10.908 -0.0618239 0)
(11.0854 -0.0363893 0)
(11.1685 -0.065124 0)
(11.2692 -0.082108 0)
(11.3134 -0.0299978 0)
(11.3506 -0.0728766 0)
(11.488 -0.0228017 0)
(11.482 -0.0414517 0)
(11.558 -0.0236887 0)
(11.7033 -0.0471713 0)
(11.6756 -0.0472322 0)
(11.725 -0.0332564 0)
(11.8754 -0.0810988 0)
(11.8026 -0.0736501 0)
(11.8887 -0.0885766 0)
(11.9204 -0.124682 0)
(11.7827 -0.13271 0)
(10.0037 -0.151818 0)
(10.3065 -0.254041 0)
(10.6473 -0.155799 0)
(10.9342 -0.0760561 0)
(11.1125 -0.0461413 0)
(11.2018 -0.0857393 0)
(11.2979 -0.0875476 0)
(11.2989 -0.0488868 0)
(11.4121 -0.0716563 0)
(11.4992 -0.0468671 0)
(11.4922 -0.0278374 0)
(11.6297 -0.0528763 0)
(11.698 -0.0408848 0)
(11.694 -0.0549023 0)
(11.7906 -0.0467087 0)
(11.8419 -0.0804997 0)
(11.8537 -0.0838191 0)
(11.9255 -0.098685 0)
(11.9067 -0.132742 0)
(11.8384 -0.13784 0)
(10.0032 -0.190885 0)
(10.3343 -0.294441 0)
(10.6826 -0.185895 0)
(10.9755 -0.0857104 0)
(11.1467 -0.0650222 0)
(11.2315 -0.0942599 0)
(11.3085 -0.104518 0)
(11.3318 -0.0534701 0)
(11.4748 -0.0922075 0)
(11.4944 -0.042877 0)
(11.5505 -0.043802 0)
(11.6653 -0.0610341 0)
(11.694 -0.0414989 0)
(11.7503 -0.0681968 0)
(11.8128 -0.0493704 0)
(11.854 -0.0908632 0)
(11.9232 -0.0922127 0)
(11.9245 -0.10844 0)
(11.9434 -0.141478 0)
(11.9023 -0.151539 0)
(10.0072 -0.231231 0)
(10.3616 -0.338658 0)
(10.7342 -0.209872 0)
(11.0252 -0.101019 0)
(11.1804 -0.0798689 0)
(11.258 -0.109532 0)
(11.3399 -0.112387 0)
(11.3966 -0.0738648 0)
(11.4973 -0.0922049 0)
(11.5224 -0.0581222 0)
(11.6149 -0.0477016 0)
(11.6768 -0.0704119 0)
(11.7311 -0.049144 0)
(11.8069 -0.0710724 0)
(11.8286 -0.0599121 0)
(11.9173 -0.0994519 0)
(11.9453 -0.0947471 0)
(11.9534 -0.121733 0)
(11.9968 -0.152125 0)
(11.9532 -0.162765 0)
(10.0215 -0.277255 0)
(10.3877 -0.383958 0)
(10.8007 -0.227901 0)
(11.0695 -0.117212 0)
(11.2239 -0.09879 0)
(11.2891 -0.121731 0)
(11.3981 -0.128339 0)
(11.4417 -0.0832925 0)
(11.5147 -0.0996102 0)
(11.5834 -0.0702801 0)
(11.6557 -0.0526054 0)
(11.7059 -0.0823851 0)
(11.7915 -0.0520154 0)
(11.842 -0.0807154 0)
(11.8767 -0.0674882 0)
(11.9622 -0.104551 0)
(11.9694 -0.100926 0)
(12.014 -0.13574 0)
(12.0399 -0.160084 0)
(11.9954 -0.18298 0)
(10.0461 -0.329504 0)
(10.4047 -0.428529 0)
(10.8865 -0.242992 0)
(11.1119 -0.136383 0)
(11.2848 -0.11825 0)
(11.3167 -0.136661 0)
(11.4665 -0.140255 0)
(11.4595 -0.092631 0)
(11.5704 -0.107825 0)
(11.6314 -0.0810896 0)
(11.7013 -0.0602373 0)
(11.7497 -0.0898214 0)
(11.8524 -0.0604167 0)
(11.8764 -0.0863482 0)
(11.941 -0.0736376 0)
(11.9887 -0.112376 0)
(12.0343 -0.105852 0)
(12.0543 -0.146461 0)
(12.0795 -0.170139 0)
(12.0212 -0.20223 0)
(10.0584 -0.386585 0)
(10.4296 -0.474681 0)
(10.9961 -0.258727 0)
(11.15 -0.156111 0)
(11.348 -0.138457 0)
(11.3438 -0.150197 0)
(11.5387 -0.151216 0)
(11.4761 -0.101916 0)
(11.6584 -0.117375 0)
(11.6598 -0.0912036 0)
(11.7775 -0.068113 0)
(11.787 -0.0981919 0)
(11.9268 -0.0700949 0)
(11.9064 -0.0889423 0)
(12.0068 -0.0840124 0)
(12.0037 -0.116918 0)
(12.0811 -0.111448 0)
(12.0381 -0.154277 0)
(12.0721 -0.176089 0)
(11.9608 -0.230939 0)
(10.0413 -0.449488 0)
(10.4954 -0.522659 0)
(11.0996 -0.274626 0)
(11.1891 -0.174807 0)
(11.4073 -0.159296 0)
(11.3979 -0.165707 0)
(11.6033 -0.160561 0)
(11.5239 -0.112515 0)
(11.7486 -0.128089 0)
(11.6866 -0.100552 0)
(11.8547 -0.0772645 0)
(11.8012 -0.106586 0)
(11.9616 -0.0775237 0)
(11.8731 -0.0940316 0)
(11.992 -0.0880372 0)
(11.9013 -0.123761 0)
(11.9799 -0.104484 0)
(11.8438 -0.170271 0)
(11.8593 -0.146901 0)
(11.6532 -0.295807 0)
(10.0125 -0.519468 0)
(10.5969 -0.568641 0)
(11.1785 -0.289059 0)
(11.2533 -0.194635 0)
(11.4771 -0.183027 0)
(11.4753 -0.181226 0)
(11.6497 -0.168787 0)
(11.5823 -0.125088 0)
(11.7652 -0.136156 0)
(11.6422 -0.106867 0)
(11.7984 -0.0860461 0)
(11.6544 -0.107104 0)
(11.7719 -0.0826396 0)
(11.6098 -0.0901927 0)
(11.6858 -0.0912606 0)
(11.5061 -0.112163 0)
(11.5392 -0.108512 0)
(11.335 -0.143116 0)
(11.2765 -0.167559 0)
(11.0318 -0.215341 0)
(9.99195 -0.599504 0)
(10.7146 -0.605417 0)
(11.2586 -0.306548 0)
(11.3483 -0.220669 0)
(11.5301 -0.207375 0)
(11.4927 -0.193593 0)
(11.5701 -0.173119 0)
(11.4499 -0.131937 0)
(11.499 -0.13364 0)
(11.2928 -0.10485 0)
(11.3648 -0.0837325 0)
(11.1253 -0.0978963 0)
(11.1758 -0.0760307 0)
(10.9523 -0.0808569 0)
(10.9765 -0.0805427 0)
(10.735 -0.0993231 0)
(10.7369 -0.0936424 0)
(10.4776 -0.126566 0)
(10.3878 -0.147364 0)
(10.0893 -0.161732 0)
(10.0019 -0.689742 0)
(10.8478 -0.638275 0)
(11.3242 -0.335612 0)
(11.3471 -0.251473 0)
(11.3592 -0.222257 0)
(11.1704 -0.190575 0)
(11.0664 -0.161379 0)
(10.8302 -0.120811 0)
(10.7337 -0.115067 0)
(10.4608 -0.0891809 0)
(10.4534 -0.0696552 0)
(10.167 -0.0791702 0)
(10.1721 -0.0624275 0)
(9.9246 -0.0650201 0)
(9.91614 -0.0653113 0)
(9.6535 -0.0809202 0)
(9.63369 -0.0762623 0)
(9.35004 -0.105957 0)
(9.24643 -0.110651 0)
(8.90651 -0.160254 0)
(10.0835 -0.804734 0)
(10.9144 -0.671265 0)
(11.1402 -0.358049 0)
(10.8803 -0.255864 0)
(10.601 -0.201927 0)
(10.2246 -0.158387 0)
(9.96706 -0.127897 0)
(9.66012 -0.0929309 0)
(9.48296 -0.0855753 0)
(9.20079 -0.0664332 0)
(9.14961 -0.0503762 0)
(8.86724 -0.0579302 0)
(8.84864 -0.0464077 0)
(8.60853 -0.0477894 0)
(8.58187 -0.0485801 0)
(8.32711 -0.060932 0)
(8.29099 -0.0590856 0)
(8.01194 -0.0768924 0)
(7.89664 -0.0936278 0)
(7.56394 -0.0912166 0)
(10.1658 -0.947198 0)
(10.5642 -0.669579 0)
(10.2637 -0.331086 0)
(9.63364 -0.209847 0)
(9.13297 -0.146833 0)
(8.67672 -0.108047 0)
(8.36716 -0.0856165 0)
(8.06245 -0.0606638 0)
(7.8698 -0.0552632 0)
(7.61896 -0.0436469 0)
(7.55145 -0.0314165 0)
(7.30791 -0.0378908 0)
(7.27765 -0.0307638 0)
(7.06734 -0.0313751 0)
(7.03296 -0.0321586 0)
(6.80631 -0.0419223 0)
(6.76071 -0.0402035 0)
(6.50573 -0.0529272 0)
(6.39424 -0.0639799 0)
(6.06907 -0.0607722 0)
(9.86023 -1.02176 0)
(9.34258 -0.577967 0)
(8.47656 -0.241636 0)
(7.63553 -0.129992 0)
(7.09925 -0.0812899 0)
(6.6869 -0.0581364 0)
(6.4084 -0.046654 0)
(6.15554 -0.0318913 0)
(5.99206 -0.0293469 0)
(5.79386 -0.0239305 0)
(5.73236 -0.0155358 0)
(5.54682 -0.0209312 0)
(5.51308 -0.0171007 0)
(5.34821 -0.0172175 0)
(5.31445 -0.0177969 0)
(5.13103 -0.0246653 0)
(5.08221 -0.0231361 0)
(4.8708 -0.0306698 0)
(4.77166 -0.0378791 0)
(4.47338 -0.0355334 0)
(8.60068 -0.871805 0)
(6.94868 -0.383809 0)
(5.8111 -0.121847 0)
(5.05273 -0.0508947 0)
(4.65554 -0.0279838 0)
(4.37348 -0.0206608 0)
(4.17944 -0.0175157 0)
(4.00898 -0.0109848 0)
(3.90017 -0.0105543 0)
(3.76903 -0.00923293 0)
(3.72686 -0.00462442 0)
(3.60956 -0.00833215 0)
(3.57938 -0.00676683 0)
(3.47089 -0.00661133 0)
(3.44412 -0.00685939 0)
(3.31765 -0.0107518 0)
(3.27344 -0.00952795 0)
(3.12542 -0.0129337 0)
(3.04543 -0.0162881 0)
(2.81732 -0.0155711 0)
(5.3285 -0.309388 0)
(2.9854 -0.0607021 0)
(2.19561 0.00160373 0)
(1.84655 0.00352159 0)
(1.70709 0.00138091 0)
(1.61015 0.000198095 0)
(1.53726 -0.00043106 0)
(1.47506 0.000504172 0)
(1.4381 -2.51351e-05 0)
(1.38909 -0.000480109 0)
(1.37425 0.000735953 0)
(1.33483 -0.00059224 0)
(1.31842 -0.000271367 0)
(1.27759 -0.000182303 0)
(1.26591 -4.72606e-05 0)
(1.2152 -0.00104225 0)
(1.18989 -0.000426957 0)
(1.1297 -0.000839948 0)
(1.08815 -0.00126748 0)
(0.990275 0.00477923 0)
(1.17186 0.515781 0)
(1.9891 0.237887 0)
(2.39944 -0.238098 0)
(2.70927 -0.48676 0)
(2.17944 -0.6503 0)
(2.7384 -0.692368 0)
(1.79815 -0.192917 0)
(2.05296 -0.0123634 0)
(2.46836 0.299013 0)
(3.4012 0.546975 0)
(3.80002 1.04505 0)
(4.79396 0.988529 0)
(5.15641 1.26992 0)
(5.82544 1.3018 0)
(6.58423 1.02898 0)
(7.02154 1.22992 0)
(7.57368 1.31531 0)
(8.61363 0.933146 0)
(9.15487 0.399043 0)
(9.63711 0.0698135 0)
(10.2283 -0.673459 0)
(10.9315 -1.3482 0)
(10.7953 -1.79385 0)
(11.2626 -2.53704 0)
(10.866 -2.89285 0)
(10.9629 -3.48371 0)
(11.6381 -4.22018 0)
(11.9839 -4.75753 0)
(12.9391 -5.6438 0)
(13.2297 -6.19921 0)
(12.766 -6.29814 0)
(12.4879 -6.57134 0)
(12.3827 -6.71196 0)
(11.685 -6.72922 0)
(11.6257 -6.86339 0)
(11.6312 -7.19905 0)
(11.3362 -7.13539 0)
(11.1257 -7.08691 0)
(11.5096 -7.52429 0)
(11.9483 -7.61552 0)
(12.3036 -7.60833 0)
(12.8832 -7.71333 0)
(13.0255 -7.28421 0)
(12.8783 -6.53412 0)
(13.1786 -5.7713 0)
(13.2869 -5.00212 0)
(13.1327 -4.035 0)
(13.0269 -2.77888 0)
(13.0688 -1.84267 0)
(12.8138 -0.960117 0)
(12.4115 0.283732 0)
(12.4683 1.1264 0)
(12.0931 1.72572 0)
(11.1782 2.42716 0)
(10.52 2.53568 0)
(10.0321 2.41535 0)
(9.43826 2.26293 0)
(8.90942 2.11807 0)
(8.67391 2.31622 0)
(8.69745 1.97321 0)
(8.58208 1.50167 0)
(8.70059 1.46657 0)
(8.73803 1.58554 0)
(8.44023 1.95467 0)
(8.35411 2.17703 0)
(8.29215 2.38718 0)
(8.54424 2.62613 0)
(8.83908 3.03992 0)
(9.19297 3.52459 0)
(9.63175 3.59398 0)
(9.75207 3.42605 0)
(10.0162 3.49394 0)
(10.2987 3.86107 0)
(10.1149 3.92955 0)
(9.82409 3.98038 0)
(9.53121 4.47494 0)
(9.59712 5.30968 0)
(9.6184 6.05318 0)
(9.55618 6.48028 0)
(9.47683 6.53981 0)
(9.17505 6.26541 0)
(9.0001 5.73395 0)
(8.63455 4.77402 0)
(8.48059 3.66871 0)
(7.99272 2.12221 0)
(7.68479 0.63579 0)
(7.33441 -0.9474 0)
(6.79717 -3.35746 0)
(6.70953 -6.0013 0)
(6.19933 -8.37805 0)
(6.04533 -8.79779 0)
(5.56167 -7.76932 0)
(5.4045 -6.63645 0)
(5.10873 -5.33569 0)
(4.85737 -4.32463 0)
(4.5848 -4.06853 0)
(4.7531 -3.99817 0)
(4.51675 -3.98941 0)
(4.9476 -4.36396 0)
(4.94782 -4.73417 0)
(5.35036 -4.93789 0)
(5.07749 -4.78883 0)
(5.34395 -5.55085 0)
(5.27284 -6.14677 0)
(5.6535 -6.11516 0)
(5.58448 -6.20287 0)
(5.73563 -6.51673 0)
(6.03944 -6.42809 0)
(6.25531 -6.10249 0)
(6.56034 -5.79902 0)
(6.93736 -5.32273 0)
(7.39316 -4.43757 0)
(7.69533 -3.17236 0)
(7.96738 -1.83092 0)
(8.23765 -0.7404 0)
(8.75581 0.369376 0)
(9.14524 1.62227 0)
(9.34787 2.95412 0)
(9.53033 4.15498 0)
(9.73449 4.96555 0)
(9.85009 5.58515 0)
(9.98801 6.27125 0)
(10.1397 6.77789 0)
(10.2113 6.84942 0)
(10.1727 6.56914 0)
(10.1186 6.19128 0)
(10.0903 5.83427 0)
(10.245 5.48884 0)
(10.6818 5.08248 0)
(10.848 4.62011 0)
(11.0627 4.04429 0)
(11.3026 3.34112 0)
(11.0439 2.6163 0)
(11.0179 1.98867 0)
(10.474 1.28759 0)
(10.3333 0.732899 0)
(9.60195 0.424839 0)
(9.13212 0.482116 0)
(8.30406 0.684161 0)
(7.82385 0.877637 0)
(7.31676 0.923057 0)
(6.98346 0.816116 0)
(6.80086 0.651302 0)
(6.49907 0.429546 0)
(6.49859 0.288722 0)
(6.14154 0.146587 0)
(6.2534 0.119722 0)
(5.83911 0.074491 0)
(6.03246 0.13601 0)
(5.56034 0.136515 0)
(5.85422 0.226698 0)
(5.3602 0.223712 0)
(5.73873 0.309725 0)
(5.24237 0.285223 0)
(5.69071 0.352068 0)
(5.22122 0.304002 0)
(5.673 0.362136 0)
(5.24915 0.311711 0)
(5.6535 0.35925 0)
(5.31433 0.316576 0)
(5.63261 0.357138 0)
(5.36284 0.348911 0)
(5.59644 0.370108 0)
(5.41749 0.392818 0)
(5.57754 0.380166 0)
(5.46237 0.460844 0)
(5.5288 0.427366 0)
(5.52149 0.528104 0)
(5.50821 0.461673 0)
(5.62169 0.611583 0)
(5.42942 0.53442 0)
(5.71608 0.712403 0)
(5.38687 0.610269 0)
(5.86461 0.787093 0)
(5.34069 0.726279 0)
(5.95825 0.894038 0)
(5.32563 0.885255 0)
(6.02984 0.979465 0)
(5.42343 1.0344 0)
(6.0335 1.10895 0)
(5.56835 1.24366 0)
(5.93802 1.24562 0)
(5.80582 1.44274 0)
(5.80353 1.44553 0)
(6.00157 1.66687 0)
(5.73652 1.71839 0)
(6.04095 1.88511 0)
(5.87849 2.0559 0)
(5.85038 2.16701 0)
(6.08491 2.45236 0)
(5.68319 2.59946 0)
(6.16817 2.8582 0)
(5.63241 3.23754 0)
(5.70297 3.46126 0)
(5.7997 3.95116 0)
(5.608 4.48319 0)
(5.51501 4.93291 0)
(5.55558 6.03533 0)
(5.8989 7.03146 0)
(3.30099 10.0464 0)
(2.97668 0.314395 0)
(3.54866 0.0967823 0)
(3.90282 -0.305889 0)
(4.20288 -0.514017 0)
(4.02167 -0.580908 0)
(4.25445 -0.654126 0)
(3.78458 -0.189334 0)
(3.67854 0.038974 0)
(3.93055 0.212149 0)
(4.11773 0.370417 0)
(4.23872 0.692277 0)
(5.06069 0.659595 0)
(5.43449 0.937183 0)
(6.16628 0.917231 0)
(7.08766 0.711758 0)
(7.59585 0.976529 0)
(8.35596 1.09744 0)
(9.36155 0.758862 0)
(9.98691 0.20136 0)
(10.4374 -0.139314 0)
(10.9893 -0.830268 0)
(11.3957 -1.39677 0)
(11.2363 -1.85898 0)
(11.4819 -2.52324 0)
(11.1622 -2.85229 0)
(11.8093 -3.6356 0)
(12.4916 -4.39687 0)
(12.8166 -5.0239 0)
(13.5203 -5.83434 0)
(13.2492 -6.11771 0)
(12.6728 -6.17033 0)
(12.5684 -6.47869 0)
(12.2297 -6.54097 0)
(11.6147 -6.61364 0)
(11.6655 -6.82433 0)
(11.5544 -7.11593 0)
(11.1951 -7.04687 0)
(11.1374 -7.13687 0)
(11.5824 -7.69206 0)
(12.0565 -7.82426 0)
(12.2733 -7.77919 0)
(12.6762 -7.8158 0)
(12.7535 -7.30382 0)
(12.6102 -6.53706 0)
(12.958 -5.83515 0)
(13.0566 -5.00696 0)
(12.8478 -3.96772 0)
(12.7719 -2.7434 0)
(12.7762 -1.76761 0)
(12.4104 -0.843172 0)
(12.0039 0.352149 0)
(12.131 1.17357 0)
(11.8411 1.93595 0)
(11.0738 2.74217 0)
(10.4679 2.76864 0)
(9.92838 2.64151 0)
(9.3353 2.50876 0)
(8.8282 2.27508 0)
(8.61092 2.36088 0)
(8.66628 1.98046 0)
(8.60333 1.50448 0)
(8.64972 1.47331 0)
(8.66831 1.62764 0)
(8.48136 2.02318 0)
(8.45644 2.19329 0)
(8.45922 2.3155 0)
(8.82095 2.48912 0)
(9.25237 2.85724 0)
(9.64357 3.39867 0)
(10.016 3.523 0)
(10.0254 3.35252 0)
(10.2051 3.38501 0)
(10.5081 3.82336 0)
(10.388 4.03194 0)
(10.1042 4.09772 0)
(9.73933 4.53198 0)
(9.7341 5.31626 0)
(9.69773 6.05661 0)
(9.6149 6.52525 0)
(9.53982 6.61305 0)
(9.24272 6.35098 0)
(9.10847 5.84257 0)
(8.75093 4.89407 0)
(8.65685 3.79762 0)
(8.18933 2.28157 0)
(7.90539 0.787316 0)
(7.54466 -0.756138 0)
(7.0257 -3.18925 0)
(6.95826 -5.88995 0)
(6.47128 -8.25127 0)
(6.22244 -8.67968 0)
(5.74414 -7.63433 0)
(5.54857 -6.51459 0)
(5.13123 -5.15829 0)
(4.86211 -4.23577 0)
(4.53764 -4.03648 0)
(4.67517 -3.95361 0)
(4.46368 -4.04636 0)
(4.87481 -4.45638 0)
(4.91813 -4.82028 0)
(5.19205 -4.92954 0)
(4.85432 -4.79256 0)
(5.28172 -5.60423 0)
(5.09136 -6.17907 0)
(5.4686 -6.18351 0)
(5.29525 -6.22411 0)
(5.37077 -6.57705 0)
(5.6294 -6.52443 0)
(5.81791 -6.20733 0)
(6.05182 -5.92922 0)
(6.37936 -5.45279 0)
(6.77737 -4.5514 0)
(7.06057 -3.2711 0)
(7.34402 -1.97003 0)
(7.626 -0.88794 0)
(8.10206 0.203818 0)
(8.50526 1.50076 0)
(8.7062 2.86345 0)
(8.92624 4.05406 0)
(9.16574 4.88183 0)
(9.28643 5.52323 0)
(9.45069 6.20402 0)
(9.6211 6.72434 0)
(9.7427 6.82508 0)
(9.73263 6.57192 0)
(9.72959 6.20364 0)
(9.71357 5.82284 0)
(9.85493 5.39071 0)
(10.0638 4.97182 0)
(10.3824 4.54521 0)
(10.4619 3.9695 0)
(10.674 3.3249 0)
(10.6234 2.70261 0)
(10.31 2.07109 0)
(10.2497 1.44301 0)
(9.69985 0.885063 0)
(9.44465 0.688445 0)
(8.5442 0.72859 0)
(8.19276 0.955116 0)
(7.3972 1.06438 0)
(7.23825 1.0869 0)
(6.77237 0.920876 0)
(6.70106 0.72988 0)
(6.45433 0.508743 0)
(6.3619 0.334873 0)
(6.21181 0.221762 0)
(6.05911 0.150288 0)
(5.99223 0.156335 0)
(5.77208 0.15325 0)
(5.78419 0.216096 0)
(5.53665 0.219341 0)
(5.67335 0.29512 0)
(5.36955 0.278324 0)
(5.63507 0.344507 0)
(5.28638 0.299801 0)
(5.6726 0.359809 0)
(5.24004 0.304122 0)
(5.72908 0.361183 0)
(5.21503 0.302822 0)
(5.80025 0.358933 0)
(5.20741 0.315742 0)
(5.81996 0.377847 0)
(5.21572 0.343745 0)
(5.82534 0.399362 0)
(5.26715 0.380269 0)
(5.77383 0.449163 0)
(5.32904 0.446602 0)
(5.72924 0.478399 0)
(5.4374 0.515497 0)
(5.66336 0.547058 0)
(5.53673 0.606923 0)
(5.61594 0.598736 0)
(5.65652 0.711522 0)
(5.56926 0.68321 0)
(5.7808 0.82972 0)
(5.54369 0.765181 0)
(5.88229 0.957676 0)
(5.5265 0.913002 0)
(5.98158 1.07998 0)
(5.58328 1.09231 0)
(6.01581 1.17374 0)
(5.71162 1.31898 0)
(5.93555 1.3392 0)
(5.89636 1.58391 0)
(5.8255 1.51025 0)
(6.13425 1.81422 0)
(5.7599 1.84449 0)
(6.22342 2.01027 0)
(5.89031 2.23612 0)
(6.07095 2.31739 0)
(6.10688 2.60717 0)
(5.98087 2.85096 0)
(6.30574 3.04647 0)
(6.11326 3.51482 0)
(5.96236 3.89628 0)
(6.14281 4.39578 0)
(5.843 5.08729 0)
(5.55141 6.31368 0)
(7.18627 6.73799 0)
(4.71199 10.8603 0)
(4.99464 0.137005 0)
(5.29777 -0.00493235 0)
(5.65949 -0.313921 0)
(5.73335 -0.544138 0)
(5.73784 -0.597491 0)
(5.72078 -0.638829 0)
(5.62966 -0.222536 0)
(5.44785 0.0654444 0)
(5.56647 0.181053 0)
(5.65648 0.367828 0)
(5.56901 0.595567 0)
(6.08254 0.554552 0)
(6.16404 0.734067 0)
(6.77462 0.552773 0)
(7.30747 0.348264 0)
(7.65176 0.564046 0)
(8.63584 0.663619 0)
(9.55217 0.434868 0)
(10.317 -0.0792346 0)
(10.7778 -0.435813 0)
(11.2935 -1.04102 0)
(11.3792 -1.45932 0)
(11.4045 -1.92515 0)
(11.6686 -2.50087 0)
(11.885 -2.99099 0)
(12.7779 -3.88894 0)
(13.1699 -4.53232 0)
(13.4627 -5.23077 0)
(13.7566 -5.85183 0)
(13.0967 -5.89958 0)
(12.6563 -6.05517 0)
(12.567 -6.37224 0)
(12.0038 -6.34429 0)
(11.5923 -6.51313 0)
(11.686 -6.7934 0)
(11.4137 -7.00474 0)
(11.0622 -7.00786 0)
(11.1689 -7.25399 0)
(11.6063 -7.84649 0)
(12.0717 -7.98979 0)
(12.1304 -7.9061 0)
(12.3792 -7.86475 0)
(12.4515 -7.30359 0)
(12.3882 -6.57082 0)
(12.7465 -5.91421 0)
(12.8086 -4.99683 0)
(12.5489 -3.89822 0)
(12.5075 -2.69206 0)
(12.4635 -1.65406 0)
(11.9824 -0.674222 0)
(11.5454 0.424668 0)
(11.6913 1.19155 0)
(11.4649 2.10209 0)
(10.8678 2.99164 0)
(10.3374 2.99411 0)
(9.76598 2.88046 0)
(9.21087 2.73824 0)
(8.77641 2.42654 0)
(8.54386 2.41256 0)
(8.60045 1.97212 0)
(8.60828 1.51501 0)
(8.62889 1.49553 0)
(8.57835 1.63922 0)
(8.49949 2.03399 0)
(8.62294 2.18309 0)
(8.71508 2.23707 0)
(9.08825 2.30886 0)
(9.56947 2.632 0)
(10.0224 3.26475 0)
(10.3293 3.50253 0)
(10.2028 3.32924 0)
(10.2403 3.30029 0)
(10.5658 3.77427 0)
(10.5277 4.10913 0)
(10.2996 4.22773 0)
(9.92287 4.60864 0)
(9.83647 5.35235 0)
(9.7769 6.08201 0)
(9.64316 6.56489 0)
(9.57 6.69274 0)
(9.28482 6.43138 0)
(9.16225 5.93476 0)
(8.82978 5.00466 0)
(8.77746 3.90737 0)
(8.34472 2.43272 0)
(8.08882 0.92964 0)
(7.71859 -0.569223 0)
(7.23201 -3.04675 0)
(7.19595 -5.78121 0)
(6.69416 -8.11458 0)
(6.4012 -8.56877 0)
(5.98911 -7.50344 0)
(5.61941 -6.34695 0)
(5.18597 -4.97301 0)
(4.85717 -4.12811 0)
(4.48 -3.98335 0)
(4.64688 -3.91429 0)
(4.34555 -4.09245 0)
(4.83485 -4.56302 0)
(4.82564 -4.868 0)
(4.98452 -4.89267 0)
(4.66429 -4.83088 0)
(5.21009 -5.65849 0)
(4.89155 -6.17282 0)
(5.25406 -6.22589 0)
(4.99481 -6.21226 0)
(4.99892 -6.61823 0)
(5.20545 -6.60426 0)
(5.36476 -6.2978 0)
(5.5318 -6.04215 0)
(5.79956 -5.55836 0)
(6.15711 -4.65507 0)
(6.42762 -3.38082 0)
(6.70034 -2.10067 0)
(6.98533 -1.04181 0)
(7.39644 0.0601732 0)
(7.78778 1.39206 0)
(8.02555 2.76663 0)
(8.25875 3.94603 0)
(8.54438 4.8044 0)
(8.68615 5.46182 0)
(8.86484 6.11323 0)
(9.05134 6.6376 0)
(9.22602 6.78421 0)
(9.28768 6.56545 0)
(9.25597 6.20654 0)
(9.2839 5.79818 0)
(9.45115 5.33626 0)
(9.60067 4.88371 0)
(9.75641 4.46502 0)
(10.0433 3.91254 0)
(10.0528 3.31136 0)
(10.0887 2.75817 0)
(9.87615 2.16187 0)
(9.69444 1.53931 0)
(9.46914 1.0798 0)
(8.84028 0.902643 0)
(8.43086 1.00694 0)
(7.59748 1.1588 0)
(7.4212 1.27561 0)
(6.77744 1.18332 0)
(6.87193 1.04443 0)
(6.37627 0.781295 0)
(6.56437 0.58043 0)
(6.15308 0.38054 0)
(6.27268 0.286023 0)
(5.94209 0.198533 0)
(5.99833 0.205869 0)
(5.72831 0.212613 0)
(5.72811 0.243344 0)
(5.60258 0.266989 0)
(5.54118 0.297066 0)
(5.54339 0.325014 0)
(5.4263 0.318158 0)
(5.57476 0.342392 0)
(5.38204 0.31419 0)
(5.6296 0.353686 0)