/*--------------------------------*- C++ -*----------------------------------*\
| =========                 |                                                 |
| \\      /  F ield         | OpenFOAM: The Open Source CFD Toolbox           |
|  \\    /   O peration     | Version:  2.4.0                                 |
|   \\  /    A nd           | Web:      www.OpenFOAM.org                      |
|    \\/     M anipulation  |                                                 |
\*---------------------------------------------------------------------------*/
FoamFile
{
    version     2.0;
    format      ascii;
    class       volVectorField;
    location    "0.152";
    object      U;
}
// * * * * * * * * * * * * * * * * * * * * * * * * * * * * * * * * * * * * * //

dimensions      [0 1 -1 0 0 0 0];

internalField   nonuniform List<vector> 
17600
(
(5.32935 0.309296 0)
(2.98668 0.0607499 0)
(2.19717 -0.00152734 0)
(1.84481 -0.00370466 0)
(1.71118 -0.00127336 0)
(1.60385 -5.46885e-05 0)
(1.55239 -0.000298397 0)
(1.46781 0.000329476 0)
(1.45011 -0.000293219 0)
(1.40078 -0.000739377 0)
(1.38684 0.00121207 0)
(1.36627 -0.00162983 0)
(1.3593 0.000342218 0)
(1.33098 0.00151717 0)
(1.36702 -0.00352627 0)
(1.34624 0.00114717 0)
(1.40877 0.000370937 0)
(1.40277 -0.00199103 0)
(1.56274 0.00231027 0)
(1.67563 -0.0157986 0)
(8.60332 0.871498 0)
(6.94908 0.383861 0)
(5.81884 0.12229 0)
(5.04674 0.050335 0)
(4.66651 0.0286134 0)
(4.35633 0.020136 0)
(4.21738 0.0156131 0)
(3.98073 0.0135806 0)
(3.938 0.00801473 0)
(3.78262 0.00590119 0)
(3.74684 0.00812207 0)
(3.6872 -0.00032077 0)
(3.63819 0.00502142 0)
(3.58412 0.00411518 0)
(3.66183 -0.00953958 0)
(3.53559 -0.000138061 0)
(3.76035 -0.00526054 0)
(3.65681 -0.025929 0)
(4.07138 -0.0153917 0)
(4.23109 0.0346955 0)
(9.86491 1.02109 0)
(9.33895 0.577764 0)
(8.49321 0.242649 0)
(7.62237 0.128941 0)
(7.11973 0.0827889 0)
(6.65778 0.0563284 0)
(6.46589 0.0439936 0)
(6.10672 0.036348 0)
(6.05028 0.0233414 0)
(5.80687 0.019799 0)
(5.74597 0.0188444 0)
(5.66135 0.00527722 0)
(5.56408 0.0142304 0)
(5.48846 0.00620858 0)
(5.60529 -0.0108799 0)
(5.35082 -0.00214532 0)
(5.71777 -0.013418 0)
(5.53108 -0.0497357 0)
(6.01334 -0.0494752 0)
(6.27925 0.0486343 0)
(10.1749 0.946323 0)
(10.5517 0.668861 0)
(10.2924 0.332679 0)
(9.60948 0.208183 0)
(9.1686 0.149761 0)
(8.63092 0.104305 0)
(8.44566 0.0824826 0)
(7.9948 0.0675137 0)
(7.93963 0.0442528 0)
(7.63635 0.0404965 0)
(7.54527 0.0327381 0)
(7.45478 0.0149077 0)
(7.31022 0.0282887 0)
(7.21063 0.0072809 0)
(7.36907 -0.00693647 0)
(7.00199 -0.00330267 0)
(7.43165 -0.026633 0)
(7.26394 -0.0646443 0)
(7.62808 -0.0982373 0)
(7.98633 0.0416517 0)
(10.1005 0.803888 0)
(10.887 0.66973 0)
(11.1848 0.360081 0)
(10.8413 0.253389 0)
(10.6562 0.206551 0)
(10.1593 0.152624 0)
(10.0637 0.123998 0)
(9.58143 0.103332 0)
(9.55096 0.0677981 0)
(9.2325 0.0662555 0)
(9.11192 0.0487425 0)
(9.04242 0.0268045 0)
(8.85933 0.0472411 0)
(8.7399 0.00734227 0)
(8.93013 -0.000438119 0)
(8.51419 0.00246025 0)
(8.89463 -0.0464394 0)
(8.83152 -0.0724228 0)
(9.08074 -0.131658 0)
(9.25371 -0.0443421 0)
(10.0359 0.689594 0)
(10.7908 0.635376 0)
(11.3947 0.33845 0)
(11.2853 0.248102 0)
(11.4366 0.228506 0)
(11.087 0.183039 0)
(11.174 0.155532 0)
(10.7522 0.136644 0)
(10.786 0.0886872 0)
(10.5159 0.0937291 0)
(10.3778 0.0652385 0)
(10.3624 0.0382846 0)
(10.162 0.0699837 0)
(10.0366 0.00716795 0)
(10.2383 0.00433732 0)
(9.85415 0.0155681 0)
(10.1208 -0.0657357 0)
(10.1406 -0.0892144 0)
(10.3911 -0.12825 0)
(10.3955 -0.179463 0)
(10.0602 0.600798 0)
(10.6093 0.600794 0)
(11.3566 0.308788 0)
(11.2568 0.216963 0)
(11.6318 0.215545 0)
(11.3939 0.18542 0)
(11.6836 0.163936 0)
(11.3857 0.155542 0)
(11.5213 0.0966267 0)
(11.3789 0.11545 0)
(11.25 0.0777372 0)
(11.3258 0.0449672 0)
(11.1505 0.0938045 0)
(11.0387 0.0067624 0)
(11.2429 0.00477878 0)
(10.9388 0.0328917 0)
(11.1264 -0.0815723 0)
(11.1322 -0.107212 0)
(11.4105 -0.138186 0)
(11.5732 -0.199856 0)
(10.1387 0.52373 0)
(10.4434 0.564172 0)
(11.2797 0.288721 0)
(11.1275 0.189897 0)
(11.5865 0.191269 0)
(11.3542 0.173571 0)
(11.7644 0.153833 0)
(11.5475 0.160043 0)
(11.744 0.0864416 0)
(11.7659 0.124688 0)
(11.6567 0.0805117 0)
(11.8381 0.0397998 0)
(11.7398 0.112898 0)
(11.6698 0.00410285 0)
(11.8777 -0.00263894 0)
(11.6811 0.05117 0)
(11.8519 -0.0989926 0)
(11.8228 -0.114064 0)
(12.0373 -0.189753 0)
(12.4272 -0.108296 0)
(10.2176 0.453574 0)
(10.3512 0.524052 0)
(11.1787 0.269455 0)
(11.0396 0.169713 0)
(11.5068 0.166154 0)
(11.2327 0.159321 0)
(11.6985 0.135943 0)
(11.5029 0.160719 0)
(11.6948 0.0648443 0)
(11.8186 0.124202 0)
(11.7223 0.0758848 0)
(11.9647 0.0226171 0)
(11.9014 0.12146 0)
(11.9442 -0.00258614 0)
(12.0847 -0.0182467 0)
(12.0498 0.0574436 0)
(12.184 -0.106001 0)
(12.2377 -0.13083 0)
(12.2778 -0.223734 0)
(12.7117 -0.146077 0)
(10.2009 0.386751 0)
(10.372 0.483614 0)
(11.0416 0.257365 0)
(11.0372 0.14587 0)
(11.3949 0.148623 0)
(11.2038 0.144211 0)
(11.5757 0.114725 0)
(11.4417 0.162376 0)
(11.628 0.0413619 0)
(11.6847 0.118817 0)
(11.7148 0.0685744 0)
(11.9462 0.00590488 0)
(11.7944 0.123711 0)
(12.0224 -0.0153902 0)
(12.0214 -0.0335143 0)
(12.1023 0.0530069 0)
(12.1934 -0.119321 0)
(12.3622 -0.147967 0)
(12.3265 -0.237965 0)
(12.5837 -0.270652 0)
(10.0994 0.321957 0)
(10.4216 0.442721 0)
(10.9126 0.245904 0)
(11.1013 0.130376 0)
(11.213 0.128284 0)
(11.3495 0.132853 0)
(11.3576 0.0987124 0)
(11.4817 0.154771 0)
(11.5953 0.0323356 0)
(11.4445 0.110006 0)
(11.801 0.050936 0)
(11.8307 0.00292465 0)
(11.7032 0.120986 0)
(12.0307 -0.029018 0)
(11.9225 -0.0421835 0)
(11.9691 0.0495545 0)
(12.1735 -0.143135 0)
(12.2486 -0.166661 0)
(12.299 -0.261686 0)
(12.4892 -0.371614 0)
(10.0383 0.267382 0)
(10.3709 0.397893 0)
(10.8898 0.231844 0)
(11.0532 0.119041 0)
(11.1592 0.105107 0)
(11.3967 0.120556 0)
(11.1948 0.0905146 0)
(11.5949 0.132506 0)
(11.4926 0.0446015 0)
(11.3639 0.0894854 0)
(11.8458 0.0312263 0)
(11.6604 0.00590081 0)
(11.7484 0.110396 0)
(11.9932 -0.041268 0)
(11.8216 -0.0378224 0)
(11.9119 0.034378 0)
(12.1351 -0.155355 0)
(12.1132 -0.199049 0)
(12.2084 -0.27266 0)
(12.4428 -0.449078 0)
(10.012 0.222239 0)
(10.3125 0.347327 0)
(10.8786 0.211847 0)
(10.932 0.11316 0)
(11.2407 0.0766436 0)
(11.2211 0.120573 0)
(11.2656 0.0664233 0)
(11.5735 0.114051 0)
(11.3901 0.0614664 0)
(11.4828 0.0577854 0)
(11.6882 0.0256126 0)
(11.6011 0.00227569 0)
(11.8045 0.0891616 0)
(11.9194 -0.0374434 0)
(11.7636 -0.04082 0)
(11.9189 0.0137402 0)
(12.0606 -0.15594 0)
(12.0282 -0.222361 0)
(12.1362 -0.305273 0)
(12.3491 -0.490432 0)
(9.97713 0.185538 0)
(10.343 0.292571 0)
(10.7499 0.19382 0)
(10.9373 0.0969522 0)
(11.2071 0.0665234 0)
(11.1286 0.108194 0)
(11.3582 0.0411361 0)
(11.4282 0.108762 0)
(11.3901 0.0601167 0)
(11.5332 0.0420092 0)
(11.5105 0.0290085 0)
(11.6328 -0.0212511 0)
(11.7861 0.0811583 0)
(11.8317 -0.039454 0)
(11.7549 -0.0437801 0)
(11.8976 -0.00289695 0)
(11.971 -0.162736 0)
(12.0272 -0.241792 0)
(12.1034 -0.332943 0)
(12.1809 -0.537987 0)
(9.97401 0.144019 0)
(10.3562 0.251923 0)
(10.614 0.16408 0)
(11.0068 0.0861066 0)
(11.0898 0.0551813 0)
(11.1939 0.0928365 0)
(11.2962 0.0230243 0)
(11.316 0.102276 0)
(11.4644 0.0518056 0)
(11.4429 0.0376314 0)
(11.5006 0.024112 0)
(11.6416 -0.0411295 0)
(11.6917 0.0730155 0)
(11.7776 -0.0339673 0)
(11.7843 -0.0594734 0)
(11.8223 -0.00901182 0)
(11.9697 -0.177376 0)
(12.004 -0.260314 0)
(12.0611 -0.348766 0)
(12.0719 -0.574749 0)
(10.0182 0.109748 0)
(10.2786 0.210729 0)
(10.6096 0.131612 0)
(10.9716 0.0713713 0)
(11.0608 0.0491858 0)
(11.199 0.0730761 0)
(11.2082 0.0198945 0)
(11.3076 0.0749544 0)
(11.4973 0.0511506 0)
(11.3467 0.0295964 0)
(11.575 0.0158991 0)
(11.5882 -0.0532656 0)
(11.5807 0.0715235 0)
(11.803 -0.0485314 0)
(11.7806 -0.0605374 0)
(11.7712 -0.0257488 0)
(11.9652 -0.183811 0)
(11.9678 -0.283413 0)
(11.994 -0.35348 0)
(12.0303 -0.590945 0)
(10.0482 0.0785099 0)
(10.2123 0.170031 0)
(10.6358 0.0954913 0)
(10.875 0.0610482 0)
(11.0917 0.0401558 0)
(11.1367 0.0612606 0)
(11.2029 0.00578019 0)
(11.3641 0.0506884 0)
(11.3744 0.0530724 0)
(11.3694 0.0207956 0)
(11.5956 0.00348999 0)
(11.5038 -0.0480278 0)
(11.5614 0.0521183 0)
(11.8316 -0.0578674 0)
(11.7102 -0.0616294 0)
(11.7748 -0.0364815 0)
(11.9295 -0.194101 0)
(11.9357 -0.300111 0)
(11.9367 -0.361124 0)
(11.9904 -0.595462 0)
(10.0292 0.0483438 0)
(10.2243 0.128893 0)
(10.5859 0.0636451 0)
(10.8559 0.0491831 0)
(11.0865 0.0287872 0)
(11.1205 0.0501742 0)
(11.2419 -0.0154427 0)
(11.3298 0.0404465 0)
(11.2386 0.054295 0)
(11.488 -0.00116226 0)
(11.5306 0.00434024 0)
(11.4539 -0.0485123 0)
(11.6234 0.0259326 0)
(11.7582 -0.0553622 0)
(11.6649 -0.072175 0)
(11.8012 -0.0426785 0)
(11.909 -0.215434 0)
(11.8926 -0.294729 0)
(11.8946 -0.393861 0)
(11.9774 -0.570972 0)
(10.0058 0.0233506 0)
(10.2415 0.0855409 0)
(10.5403 0.034952 0)
(10.896 0.0272745 0)
(11.0404 0.0267316 0)
(11.1401 0.0274238 0)
(11.2709 -0.0229745 0)
(11.181 0.0321967 0)
(11.3111 0.0407891 0)
(11.5164 -0.0205249 0)
(11.4589 0.0141877 0)
(11.4713 -0.0598555 0)
(11.6334 0.0113665 0)
(11.6812 -0.0567764 0)
(11.6892 -0.0814746 0)
(11.7957 -0.0631316 0)
(11.8852 -0.21516 0)
(11.8661 -0.303425 0)
(11.8701 -0.415576 0)
(11.9477 -0.574668 0)
(10.0126 -0.00647744 0)
(10.2146 0.0486172 0)
(10.5701 -0.00301812 0)
(10.8821 0.016278 0)
(11.0098 0.018421 0)
(11.1811 0.00989631 0)
(11.2134 -0.0265922 0)
(11.1483 0.0197315 0)
(11.4312 0.0151027 0)
(11.4282 -0.0176824 0)
(11.4438 0.0102886 0)
(11.5173 -0.066311 0)
(11.5919 -0.000209409 0)
(11.6788 -0.0642621 0)
(11.711 -0.0840586 0)
(11.7706 -0.086199 0)
(11.8458 -0.20327 0)
(11.8579 -0.331708 0)
(11.8771 -0.404221 0)
(11.9104 -0.632837 0)
(10.0145 -0.0274181 0)
(10.2071 0.000642927 0)
(10.6064 -0.0321457 0)
(10.8301 -0.000447619 0)
(11.0389 0.0120011 0)
(11.1888 -0.0110507 0)
(11.1344 -0.0222184 0)
(11.2659 -0.0123774 0)
(11.3905 0.00843782 0)
(11.3873 -0.0205155 0)
(11.4618 0.00259146 0)
(11.5377 -0.0720854 0)
(11.5892 -0.0143622 0)
(11.679 -0.067728 0)
(11.7057 -0.0997195 0)
(11.7414 -0.0870234 0)
(11.8383 -0.219343 0)
(11.8711 -0.340369 0)
(11.8528 -0.408686 0)
(11.8575 -0.670873 0)
(9.99935 -0.0551123 0)
(10.2468 -0.0434993 0)
(10.594 -0.0618409 0)
(10.8264 -0.0134864 0)
(11.0738 -0.00152327 0)
(11.143 -0.0170295 0)
(11.1722 -0.0375553 0)
(11.3065 -0.0318841 0)
(11.3275 0.00415013 0)
(11.393 -0.0260311 0)
(11.4954 -0.00902284 0)
(11.549 -0.0754804 0)
(11.5935 -0.0260815 0)
(11.6653 -0.0682179 0)
(11.7074 -0.108605 0)
(11.7202 -0.0961915 0)
(11.8697 -0.232639 0)
(11.8605 -0.338183 0)
(11.8246 -0.427318 0)
(11.8374 -0.65662 0)
(10.0022 -0.0820063 0)
(10.2691 -0.0883741 0)
(10.5734 -0.0876284 0)
(10.8674 -0.0333961 0)
(11.0647 -0.00579925 0)
(11.1341 -0.0351097 0)
(11.2433 -0.048246 0)
(11.2669 -0.0458137 0)
(11.3292 -0.00466997 0)
(11.4115 -0.0311752 0)
(11.5324 -0.0257919 0)
(11.5509 -0.0720476 0)
(11.5867 -0.0355272 0)
(11.6831 -0.0780388 0)
(11.6851 -0.109593 0)
(11.7583 -0.113379 0)
(11.8781 -0.241672 0)
(11.8287 -0.335954 0)
(11.8317 -0.451089 0)
(11.8421 -0.622248 0)
(10.0145 -0.110985 0)
(10.2592 -0.13268 0)
(10.5932 -0.114643 0)
(10.9016 -0.0513967 0)
(11.0541 -0.0108451 0)
(11.1733 -0.0571511 0)
(11.2467 -0.0526139 0)
(11.2754 -0.0619086 0)
(11.3318 -0.0125184 0)
(11.4595 -0.0474773 0)
(11.5384 -0.030385 0)
(11.5536 -0.0741982 0)
(11.6052 -0.0464709 0)
(11.6803 -0.0834835 0)
(11.6988 -0.116292 0)
(11.8055 -0.132325 0)
(11.8415 -0.239929 0)
(11.8329 -0.345398 0)
(11.8609 -0.463949 0)
(11.8155 -0.609682 0)
(10.0103 -0.142491 0)
(10.2651 -0.174298 0)
(10.6402 -0.14707 0)
(10.9229 -0.0633343 0)
(11.0657 -0.0224571 0)
(11.1947 -0.0728659 0)
(11.2551 -0.0638956 0)
(11.2947 -0.0697677 0)
(11.3625 -0.0311514 0)
(11.4864 -0.0503173 0)
(11.5342 -0.041221 0)
(11.5865 -0.0756218 0)
(11.6156 -0.052463 0)
(11.6828 -0.0937156 0)
(11.7525 -0.120522 0)
(11.7997 -0.148403 0)
(11.8319 -0.233626 0)
(11.8648 -0.367852 0)
(11.8724 -0.457138 0)
(11.7634 -0.631171 0)
(9.99837 -0.172653 0)
(10.3014 -0.223945 0)
(10.6804 -0.173461 0)
(10.944 -0.0783022 0)
(11.0838 -0.0286313 0)
(11.2112 -0.0957704 0)
(11.2816 -0.0679052 0)
(11.3209 -0.0860154 0)
(11.4062 -0.0434902 0)
(11.4933 -0.0557752 0)
(11.5659 -0.0551049 0)
(11.6094 -0.0719539 0)
(11.6236 -0.0633167 0)
(11.7281 -0.101951 0)
(11.7762 -0.129524 0)
(11.7981 -0.151161 0)
(11.8584 -0.246703 0)
(11.8904 -0.371755 0)
(11.8617 -0.461565 0)
(11.7509 -0.651487 0)
(9.99745 -0.210947 0)
(10.3418 -0.268899 0)
(10.7067 -0.199218 0)
(10.9735 -0.0895508 0)
(11.1103 -0.0417099 0)
(11.2446 -0.113559 0)
(11.3091 -0.0780964 0)
(11.3651 -0.0974247 0)
(11.4368 -0.0563191 0)
(11.5257 -0.0628426 0)
(11.5903 -0.0626205 0)
(11.6253 -0.0743741 0)
(11.6669 -0.07032 0)
(11.7642 -0.114749 0)
(11.7978 -0.128104 0)
(11.8258 -0.164954 0)
(11.8814 -0.250976 0)
(11.9049 -0.378052 0)
(11.8571 -0.463539 0)
(11.7925 -0.691201 0)
(10.0082 -0.250828 0)
(10.3694 -0.316574 0)
(10.7393 -0.21794 0)
(11.0191 -0.10536 0)
(11.1533 -0.0564213 0)
(11.2789 -0.132707 0)
(11.3519 -0.0869749 0)
(11.4029 -0.107341 0)
(11.4808 -0.071991 0)
(11.5522 -0.0655283 0)
(11.6113 -0.072717 0)
(11.6704 -0.0790822 0)
(11.7118 -0.0767675 0)
(11.7993 -0.126392 0)
(11.8397 -0.13062 0)
(11.8464 -0.17149 0)
(11.9018 -0.257991 0)
(11.9202 -0.381956 0)
(11.8778 -0.470936 0)
(11.8797 -0.727411 0)
(10.027 -0.296994 0)
(10.392 -0.363741 0)
(10.7944 -0.230756 0)
(11.0673 -0.12556 0)
(11.2036 -0.0726666 0)
(11.3152 -0.152221 0)
(11.4003 -0.0960755 0)
(11.4388 -0.117612 0)
(11.5288 -0.0849538 0)
(11.5673 -0.0685165 0)
(11.6691 -0.0869318 0)
(11.7096 -0.0799073 0)
(11.7677 -0.0868631 0)
(11.8338 -0.135944 0)
(11.8775 -0.129028 0)
(11.8621 -0.181121 0)
(11.9386 -0.261948 0)
(11.9351 -0.384899 0)
(11.9385 -0.484828 0)
(11.9304 -0.741676 0)
(10.057 -0.34828 0)
(10.409 -0.409994 0)
(10.8647 -0.242427 0)
(11.1065 -0.145748 0)
(11.2725 -0.0938413 0)
(11.3448 -0.16845 0)
(11.4575 -0.107632 0)
(11.4625 -0.123113 0)
(11.5852 -0.0988281 0)
(11.5903 -0.073677 0)
(11.7486 -0.0987 0)
(11.7352 -0.0851852 0)
(11.8396 -0.0928503 0)
(11.8466 -0.144672 0)
(11.9328 -0.127708 0)
(11.8782 -0.191582 0)
(11.9999 -0.259487 0)
(11.9496 -0.396796 0)
(11.9854 -0.486478 0)
(11.8445 -0.746498 0)
(10.0826 -0.406328 0)
(10.4155 -0.455492 0)
(10.955 -0.253427 0)
(11.1577 -0.169892 0)
(11.3482 -0.114374 0)
(11.3648 -0.183426 0)
(11.5195 -0.117713 0)
(11.4862 -0.128412 0)
(11.6613 -0.113815 0)
(11.6235 -0.0796109 0)
(11.8414 -0.110913 0)
(11.7497 -0.089631 0)
(11.9187 -0.0980401 0)
(11.8563 -0.151666 0)
(11.9981 -0.13154 0)
(11.8832 -0.192281 0)
(12.0417 -0.267493 0)
(11.8818 -0.39344 0)
(11.8934 -0.478357 0)
(11.5539 -0.735341 0)
(10.0751 -0.468153 0)
(10.4464 -0.500707 0)
(11.0747 -0.270501 0)
(11.2162 -0.192502 0)
(11.3981 -0.135183 0)
(11.4081 -0.196007 0)
(11.5775 -0.130916 0)
(11.5468 -0.134565 0)
(11.7326 -0.127731 0)
(11.6785 -0.0899106 0)
(11.8992 -0.119605 0)
(11.7511 -0.0932571 0)
(11.9572 -0.105748 0)
(11.8168 -0.154761 0)
(11.9589 -0.132371 0)
(11.779 -0.194081 0)
(11.8814 -0.26213 0)
(11.5794 -0.377395 0)
(11.5073 -0.453388 0)
(10.9668 -0.70961 0)
(10.0453 -0.535466 0)
(10.5273 -0.547908 0)
(11.196 -0.288724 0)
(11.2576 -0.211111 0)
(11.4625 -0.158774 0)
(11.4819 -0.207678 0)
(11.6263 -0.145464 0)
(11.6131 -0.141635 0)
(11.7339 -0.138215 0)
(11.662 -0.0992017 0)
(11.8028 -0.121753 0)
(11.6096 -0.0955597 0)
(11.772 -0.108538 0)
(11.5331 -0.147538 0)
(11.6162 -0.13011 0)
(11.3612 -0.181971 0)
(11.3506 -0.245624 0)
(10.9436 -0.34364 0)
(10.7568 -0.418553 0)
(10.0885 -0.635116 0)
(10.0154 -0.611829 0)
(10.6463 -0.588624 0)
(11.3007 -0.307272 0)
(11.3148 -0.232783 0)
(11.5419 -0.188075 0)
(11.4894 -0.21526 0)
(11.5566 -0.155333 0)
(11.4805 -0.144594 0)
(11.4621 -0.136688 0)
(11.3239 -0.0996783 0)
(11.3374 -0.112559 0)
(11.0894 -0.0893066 0)
(11.168 -0.0995874 0)
(10.8498 -0.13088 0)
(10.8738 -0.116358 0)
(10.5591 -0.16095 0)
(10.4666 -0.215793 0)
(9.99281 -0.299321 0)
(9.72626 -0.366636 0)
(8.97864 -0.532574 0)
(10.0128 -0.698528 0)
(10.7944 -0.626021 0)
(11.3695 -0.335713 0)
(11.3007 -0.260078 0)
(11.3947 -0.208807 0)
(11.1538 -0.206548 0)
(11.064 -0.14861 0)
(10.8551 -0.130452 0)
(10.6953 -0.118066 0)
(10.4921 -0.0859002 0)
(10.4067 -0.0919198 0)
(10.1374 -0.0738168 0)
(10.1517 -0.082227 0)
(9.80457 -0.106841 0)
(9.78868 -0.0969128 0)
(9.44891 -0.133274 0)
(9.30516 -0.178334 0)
(8.80137 -0.248687 0)
(8.48221 -0.300079 0)
(7.68427 -0.438601 0)
(10.0855 -0.81069 0)
(10.8786 -0.663008 0)
(11.1797 -0.357684 0)
(10.8373 -0.262232 0)
(10.6437 -0.192885 0)
(10.1998 -0.169441 0)
(9.97184 -0.119204 0)
(9.67649 -0.0998551 0)
(9.44704 -0.0882293 0)
(9.22699 -0.0642671 0)
(9.09345 -0.0668485 0)
(8.84289 -0.0553362 0)
(8.81524 -0.061597 0)
(8.47981 -0.0808954 0)
(8.43772 -0.0749244 0)
(8.1017 -0.102218 0)
(7.92669 -0.137882 0)
(7.4274 -0.192699 0)
(7.07 -0.231037 0)
(6.28622 -0.337107 0)
(10.1636 -0.950898 0)
(10.541 -0.664385 0)
(10.2958 -0.330456 0)
(9.59828 -0.214474 0)
(9.17322 -0.141021 0)
(8.64959 -0.115143 0)
(8.37601 -0.0802182 0)
(8.07076 -0.0651033 0)
(7.83928 -0.0575599 0)
(7.63694 -0.0419826 0)
(7.4955 -0.0430044 0)
(7.28511 -0.0371982 0)
(7.23362 -0.0408806 0)
(6.93983 -0.0556811 0)
(6.88008 -0.0522305 0)
(6.57216 -0.0707801 0)
(6.38594 -0.0965703 0)
(5.9184 -0.136267 0)
(5.55242 -0.160734 0)
(4.81388 -0.240313 0)
(9.8565 -1.02366 0)
(9.32788 -0.575033 0)
(8.50091 -0.240962 0)
(7.61048 -0.133234 0)
(7.13034 -0.0777193 0)
(6.66288 -0.0621881 0)
(6.41779 -0.0438173 0)
(6.15772 -0.0342368 0)
(5.96792 -0.0311506 0)
(5.80343 -0.0224661 0)
(5.68394 -0.0230012 0)
(5.52268 -0.0211888 0)
(5.46533 -0.0224177 0)
(5.23234 -0.0329914 0)
(5.16344 -0.0308558 0)
(4.90623 -0.0413918 0)
(4.72983 -0.0575782 0)
(4.32325 -0.0828024 0)
(3.97946 -0.0945109 0)
(3.34829 -0.152878 0)
(8.59749 -0.872564 0)
(6.93975 -0.382579 0)
(5.82726 -0.12127 0)
(5.03835 -0.0528576 0)
(4.67432 -0.026123 0)
(4.35692 -0.0224609 0)
(4.18593 -0.0164582 0)
(4.00791 -0.0117933 0)
(3.88338 -0.0117105 0)
(3.77205 -0.00811318 0)
(3.69128 -0.0085636 0)
(3.58527 -0.00873058 0)
(3.53811 -0.00841147 0)
(3.37971 -0.0146044 0)
(3.31439 -0.0132753 0)
(3.13186 -0.017328 0)
(2.99078 -0.0251006 0)
(2.68315 -0.0372602 0)
(2.40698 -0.0399579 0)
(1.95699 -0.0770151 0)
(5.32707 -0.309546 0)
(2.98156 -0.0605247 0)
(2.20259 0.00176708 0)
(1.84194 0.00294931 0)
(1.71257 0.00194189 0)
(1.60441 -0.000181813 0)
(1.53892 -0.000313956 0)
(1.47374 0.00053956 0)
(1.43048 -0.000416996 0)
(1.3885 0.000126231 0)
(1.35887 -0.00022848 0)
(1.31795 -0.000594219 0)
(1.29707 0.000173977 0)
(1.23406 -0.00155443 0)
(1.19562 -0.000837179 0)
(1.12016 -0.000841314 0)
(1.05417 -0.00188154 0)
(0.911807 -0.0038624 0)
(0.778223 -0.00327775 0)
(0.594878 -0.0120672 0)
(1.58071 0.522651 0)
(3.10594 1.62047 0)
(4.98449 1.20017 0)
(6.23058 0.632939 0)
(8.24274 -0.0959639 0)
(8.14496 -1.13729 0)
(9.27107 -2.16408 0)
(10.3161 -3.22469 0)
(10.503 -4.31457 0)
(11.703 -5.49 0)
(10.7835 -6.29682 0)
(10.8769 -6.52593 0)
(8.87431 -6.46332 0)
(8.1954 -5.6678 0)
(7.64544 -5.44361 0)
(5.84116 -4.56762 0)
(6.81001 -3.33773 0)
(5.91557 -3.88474 0)
(4.85364 -3.14166 0)
(5.6826 -1.03148 0)
(5.5274 -0.596545 0)
(4.96913 -1.3523 0)
(5.55181 -1.00232 0)
(6.00351 1.37571 0)
(7.8535 4.40729 0)
(9.3758 6.45898 0)
(10.1225 7.25647 0)
(10.6715 6.44836 0)
(10.4527 5.66723 0)
(10.6691 4.73496 0)
(10.1724 3.46877 0)
(10.3411 2.88876 0)
(10.4425 3.1326 0)
(11.0915 2.24262 0)
(11.2496 0.889568 0)
(11.2814 -0.0227023 0)
(11.8067 -0.994955 0)
(12.3955 -2.42907 0)
(12.3769 -3.91277 0)
(12.2376 -4.98516 0)
(12.371 -6.66911 0)
(12.858 -8.18399 0)
(12.3925 -9.02975 0)
(11.9453 -9.46792 0)
(11.7334 -9.79015 0)
(11.4539 -10.326 0)
(11.4052 -10.6533 0)
(10.8754 -10.489 0)
(9.87768 -9.87834 0)
(8.9305 -8.80752 0)
(7.62874 -7.78638 0)
(6.74782 -6.84543 0)
(5.97259 -6.18877 0)
(5.81576 -5.92528 0)
(5.94526 -5.80403 0)
(6.34893 -5.67914 0)
(6.95424 -5.62185 0)
(7.58218 -5.25042 0)
(8.31511 -4.4449 0)
(8.95975 -3.70032 0)
(9.3847 -2.78551 0)
(9.87544 -1.54481 0)
(10.0838 -0.608442 0)
(10.4748 0.287835 0)
(10.4665 1.34104 0)
(10.6736 2.30091 0)
(10.4257 3.09631 0)
(10.4131 3.67133 0)
(10.205 4.25176 0)
(10.1062 4.85303 0)
(9.62667 5.46229 0)
(9.2641 5.33097 0)
(8.89848 5.27937 0)
(8.77042 5.54705 0)
(8.11382 5.30425 0)
(7.93254 5.13085 0)
(7.68513 5.2056 0)
(7.481 5.13731 0)
(7.42078 4.84717 0)
(7.45033 4.82403 0)
(7.34562 4.8622 0)
(7.22753 4.51571 0)
(7.19229 4.30024 0)
(7.22085 4.19174 0)
(7.04312 4.1752 0)
(7.30566 4.12375 0)
(7.19215 4.03563 0)
(7.36894 3.65303 0)
(7.05461 3.30687 0)
(7.6061 3.38429 0)
(7.68743 3.35615 0)
(7.87722 3.57151 0)
(8.14109 3.12234 0)
(7.56875 2.88909 0)
(7.92374 2.56138 0)
(8.15762 2.69781 0)
(8.51629 2.47463 0)
(9.10844 2.18259 0)
(9.54793 1.83355 0)
(10.0412 1.47611 0)
(10.6325 1.20447 0)
(10.8419 0.684081 0)
(11.3973 0.554564 0)
(11.5787 0.670482 0)
(11.2558 -0.367019 0)
(11.3012 -0.836157 0)
(11.493 -0.319558 0)
(11.7519 -0.782975 0)
(11.4451 -1.71462 0)
(11.625 -1.81913 0)
(11.3922 -2.56382 0)
(11.5178 -3.77475 0)
(10.8867 -4.88403 0)
(10.7593 -5.76769 0)
(10.143 -6.61399 0)
(9.98592 -7.44147 0)
(9.53924 -8.04022 0)
(9.12846 -8.45356 0)
(8.73173 -8.38486 0)
(8.47099 -8.67537 0)
(8.63131 -9.6307 0)
(9.07371 -10.102 0)
(9.32288 -9.60287 0)
(9.04401 -8.4462 0)
(8.49619 -7.12259 0)
(7.9897 -5.98546 0)
(7.94149 -5.04034 0)
(8.09821 -4.15635 0)
(8.46301 -3.22269 0)
(8.60129 -2.20628 0)
(8.54666 -1.09041 0)
(8.36158 0.114938 0)
(8.07977 1.199 0)
(7.88638 2.10945 0)
(7.78425 2.86849 0)
(7.88184 3.50321 0)
(7.9833 4.16909 0)
(7.7978 5.0106 0)
(7.47158 5.9204 0)
(7.11558 6.71098 0)
(6.84645 7.14325 0)
(6.63614 7.22329 0)
(6.47978 7.26777 0)
(6.32226 7.3499 0)
(6.19266 7.19834 0)
(6.06681 6.86757 0)
(6.07687 6.35782 0)
(5.94888 5.99489 0)
(5.77612 5.7663 0)
(5.60648 5.93721 0)
(5.65381 6.00765 0)
(5.57192 5.97844 0)
(5.77809 5.7796 0)
(5.84895 5.79742 0)
(6.48967 5.60868 0)
(6.53992 5.59666 0)
(7.12241 5.05183 0)
(7.35693 5.19909 0)
(7.89707 4.56928 0)
(8.35217 4.3728 0)
(8.17703 3.55076 0)
(9.10887 3.18559 0)
(8.47837 2.21284 0)
(9.14307 2.48046 0)
(8.34561 0.479826 0)
(8.90844 0.541258 0)
(7.54155 -0.351695 0)
(7.33532 0.562229 0)
(6.3276 -0.489006 0)
(6.08439 0.0620168 0)
(5.57438 -1.40024 0)
(5.28597 -1.52307 0)
(5.27641 -3.6083 0)
(5.10136 -3.50257 0)
(5.10645 -4.89117 0)
(5.40231 -5.29928 0)
(6.09261 -5.6859 0)
(6.44151 -5.2328 0)
(6.95354 -4.41727 0)
(7.21267 -3.42779 0)
(7.40053 -2.58383 0)
(7.57452 -2.19259 0)
(7.6509 -2.09321 0)
(8.03649 -1.83647 0)
(8.11723 -1.47519 0)
(8.25736 -1.03194 0)
(8.23595 -0.584923 0)
(8.09894 -0.16763 0)
(8.41708 0.666182 0)
(8.2042 1.28805 0)
(8.04274 1.95527 0)
(7.76539 2.55093 0)
(7.52993 3.23942 0)
(7.57721 4.01442 0)
(7.39448 4.73553 0)
(7.41941 5.65061 0)
(7.19316 6.54859 0)
(6.75242 7.66767 0)
(6.91744 9.06527 0)
(3.75916 12.5686 0)
(4.00212 0.385044 0)
(4.82131 1.00032 0)
(6.20588 0.72888 0)
(6.88531 0.0960006 0)
(8.79265 -0.507189 0)
(9.42589 -1.30154 0)
(10.3899 -2.45817 0)
(11.6228 -3.50195 0)
(11.2491 -4.5223 0)
(12.3378 -5.51026 0)
(11.075 -6.08587 0)
(10.8462 -6.10236 0)
(8.97848 -6.00065 0)
(8.21989 -5.37886 0)
(7.90882 -5.06282 0)
(6.11866 -4.41614 0)
(7.04166 -3.23159 0)
(6.11756 -3.50335 0)
(5.07302 -3.10877 0)
(5.99242 -1.10224 0)
(5.73901 -0.474767 0)
(5.31992 -1.1639 0)
(5.48167 -1.16659 0)
(5.96619 0.780553 0)
(7.72966 3.66433 0)
(9.26143 5.9639 0)
(10.2376 6.99205 0)
(10.9314 6.33257 0)
(10.8322 5.66567 0)
(11.0457 4.80102 0)
(10.6162 3.44341 0)
(10.6407 2.86021 0)
(10.6304 3.0718 0)
(11.4792 2.03304 0)
(11.4899 0.828798 0)
(11.6112 -0.116487 0)
(12.1077 -1.16281 0)
(12.6763 -2.58324 0)
(12.5946 -3.87179 0)
(12.4667 -5.0021 0)
(12.7157 -6.77423 0)
(13.0345 -8.13618 0)
(12.3657 -8.88939 0)
(11.9998 -9.29083 0)
(11.7868 -9.67537 0)
(11.4881 -10.2534 0)
(11.2996 -10.4806 0)
(10.5409 -10.1768 0)
(9.41508 -9.46445 0)
(8.38854 -8.33181 0)
(7.05199 -7.32192 0)
(6.23772 -6.506 0)
(5.62213 -6.03964 0)
(5.58901 -5.94995 0)
(5.76145 -5.93614 0)
(6.1593 -5.93339 0)
(6.72243 -5.89771 0)
(7.32615 -5.53138 0)
(8.00283 -4.72939 0)
(8.70083 -3.8905 0)
(9.02578 -2.94836 0)
(9.50103 -1.70828 0)
(9.8046 -0.705703 0)
(10.1237 0.213307 0)
(10.1765 1.29712 0)
(10.425 2.32625 0)
(10.1751 3.13216 0)
(10.1012 3.70969 0)
(9.91649 4.32679 0)
(9.84271 4.9632 0)
(9.36611 5.5896 0)
(9.00966 5.47156 0)
(8.65889 5.40659 0)
(8.48303 5.68551 0)
(7.88328 5.46424 0)
(7.63642 5.25292 0)
(7.40044 5.28519 0)
(7.24708 5.1854 0)
(7.15768 4.86029 0)
(7.24744 4.82209 0)
(7.21063 4.8961 0)
(7.05639 4.55138 0)
(7.07144 4.31663 0)
(7.18845 4.20191 0)
(6.92689 4.16806 0)
(7.21158 4.08076 0)
(7.13961 4.00559 0)
(7.34942 3.65416 0)
(7.02728 3.26324 0)
(7.49355 3.30598 0)
(7.65597 3.22492 0)
(7.84281 3.4957 0)
(8.35187 3.18389 0)
(7.81505 2.95259 0)
(7.82059 2.49394 0)
(7.9666 2.51727 0)
(8.23928 2.35129 0)
(8.67562 1.94451 0)
(9.23126 1.57223 0)
(9.67994 1.28104 0)
(10.4074 0.99176 0)
(10.7351 0.492838 0)
(11.4218 0.431393 0)
(11.6887 0.677803 0)
(11.5009 -0.333218 0)
(11.4574 -0.889493 0)
(11.6579 -0.346567 0)
(11.9278 -0.809641 0)
(11.7402 -1.72326 0)
(11.8518 -1.76373 0)
(11.5819 -2.48663 0)
(11.653 -3.6946 0)
(10.9848 -4.73495 0)
(10.7772 -5.59081 0)
(10.118 -6.44589 0)
(9.93567 -7.2931 0)
(9.44485 -7.88351 0)
(8.93774 -8.25289 0)
(8.54099 -8.25516 0)
(8.37288 -8.71519 0)
(8.45122 -9.75753 0)
(8.75851 -10.1725 0)
(8.90977 -9.55046 0)
(8.57883 -8.26934 0)
(8.03233 -6.94043 0)
(7.60531 -5.89729 0)
(7.61484 -5.08852 0)
(7.83661 -4.26481 0)
(8.18458 -3.29798 0)
(8.25684 -2.21705 0)
(8.16714 -1.01911 0)
(7.85898 0.210612 0)
(7.56271 1.30429 0)
(7.3488 2.15944 0)
(7.29446 2.84458 0)
(7.40448 3.47791 0)
(7.42832 4.24664 0)
(7.31733 5.1219 0)
(6.97119 6.0291 0)
(6.64093 6.84464 0)
(6.43606 7.23944 0)
(6.28065 7.2923 0)
(6.19789 7.3275 0)
(6.03001 7.40122 0)
(5.94261 7.24678 0)
(5.92628 6.88468 0)
(5.93927 6.37644 0)
(5.87042 6.05012 0)
(5.71783 5.83035 0)
(5.60128 5.95963 0)
(5.60659 6.03806 0)
(5.63898 5.93478 0)
(5.79808 5.6808 0)
(5.90327 5.65059 0)
(6.51341 5.43977 0)
(6.74756 5.48021 0)
(7.12003 4.82137 0)
(7.55525 5.04522 0)
(7.99657 4.36172 0)
(8.58366 4.34126 0)
(8.18926 3.39245 0)
(9.34241 3.1492 0)
(8.38228 2.19239 0)
(9.44692 2.52536 0)
(8.45998 0.483226 0)
(9.17771 0.744673 0)
(7.70983 -0.104831 0)
(7.56783 0.906284 0)
(6.6208 -0.362984 0)
(6.39854 0.29888 0)
(5.94083 -1.34642 0)
(5.73213 -1.35529 0)
(5.66249 -3.66011 0)
(5.37217 -3.34501 0)
(5.52287 -5.05759 0)
(5.89254 -5.40794 0)
(6.44403 -6.00095 0)
(6.84399 -5.35339 0)
(7.22139 -4.59718 0)
(7.37585 -3.53412 0)
(7.77473 -2.62995 0)
(7.75019 -2.28363 0)
(8.02095 -2.16568 0)
(8.31565 -1.94391 0)
(8.36181 -1.48721 0)
(8.40189 -1.06435 0)
(8.58556 -0.585512 0)
(8.33566 -0.159839 0)
(8.46145 0.651442 0)
(8.49009 1.35517 0)
(8.23318 2.05587 0)
(8.06343 2.67222 0)
(7.79848 3.25864 0)
(7.81668 4.05103 0)
(7.76634 4.7736 0)
(7.75049 5.69531 0)
(7.7289 6.69589 0)
(7.29093 7.94507 0)
(8.38569 8.94576 0)
(5.38106 13.5166 0)
(6.38106 0.201653 0)
(6.78184 0.5329 0)
(8.22132 0.422828 0)
(8.64803 -0.230439 0)
(9.81499 -0.932967 0)
(10.9934 -1.69182 0)
(11.3979 -2.78108 0)
(12.5146 -3.72432 0)
(11.8963 -4.56222 0)
(12.7229 -5.42085 0)
(11.1629 -5.71743 0)
(10.7247 -5.69455 0)
(9.15847 -5.5466 0)
(8.33727 -5.13584 0)
(8.22776 -4.73427 0)
(6.41483 -4.18439 0)
(7.15271 -3.14815 0)
(6.46811 -3.233 0)
(5.5292 -3.03386 0)
(6.05533 -1.21692 0)
(6.03052 -0.425346 0)
(5.78602 -1.03976 0)
(5.34107 -1.2165 0)
(5.84732 0.315653 0)
(7.55866 2.90985 0)
(9.12684 5.44005 0)
(10.2672 6.68603 0)
(11.0104 6.18007 0)
(11.1238 5.66721 0)
(11.1673 4.89479 0)
(11.0859 3.45921 0)
(10.8962 2.9133 0)
(10.9232 2.95137 0)
(11.8567 1.84463 0)
(11.7364 0.754496 0)
(11.9567 -0.253453 0)
(12.4101 -1.31452 0)
(12.9243 -2.69538 0)
(12.7214 -3.82502 0)
(12.7148 -5.05305 0)
(13.0008 -6.86057 0)
(13.0929 -8.05651 0)
(12.3481 -8.70523 0)
(12.051 -9.11349 0)
(11.7698 -9.60701 0)
(11.4726 -10.1829 0)
(11.1448 -10.2321 0)
(10.175 -9.75595 0)
(8.9539 -8.94847 0)
(7.86611 -7.79186 0)
(6.5112 -6.84839 0)
(5.78883 -6.21553 0)
(5.34876 -5.95563 0)
(5.36393 -6.01298 0)
(5.53183 -6.07197 0)
(5.92261 -6.15915 0)
(6.39396 -6.15527 0)
(7.00021 -5.78738 0)
(7.64017 -5.00166 0)
(8.32255 -4.06461 0)
(8.6037 -3.09444 0)
(9.02233 -1.88979 0)
(9.43237 -0.822863 0)
(9.6947 0.141781 0)
(9.77806 1.23104 0)
(10.0625 2.33463 0)
(9.84742 3.17924 0)
(9.74825 3.76005 0)
(9.58288 4.38963 0)
(9.52766 5.07567 0)
(9.07209 5.73326 0)
(8.74465 5.61759 0)
(8.41496 5.54291 0)
(8.19328 5.82012 0)
(7.66968 5.61925 0)
(7.34954 5.38336 0)
(7.1186 5.36401 0)
(7.00472 5.22263 0)
(6.8926 4.86374 0)
(7.048 4.81161 0)
(7.06713 4.92332 0)
(6.88881 4.55585 0)
(6.94222 4.30151 0)
(7.11367 4.19929 0)
(6.79097 4.17742 0)
(7.10645 4.06357 0)
(7.07227 3.95662 0)
(7.31867 3.66135 0)
(7.01403 3.24402 0)
(7.3526 3.2225 0)
(7.59182 3.07423 0)
(7.77075 3.36301 0)
(8.46334 3.17646 0)
(8.13296 3.03505 0)
(7.89056 2.54344 0)
(7.79773 2.39502 0)
(7.99975 2.26178 0)
(8.21263 1.76182 0)
(8.82124 1.29784 0)
(9.20442 1.05927 0)
(9.9712 0.738266 0)
(10.4406 0.228947 0)
(11.2997 0.251658 0)
(11.6294 0.623573 0)
(11.6457 -0.316823 0)
(11.5497 -0.928906 0)
(11.7535 -0.387099 0)
(11.9766 -0.852123 0)
(11.9271 -1.72871 0)
(11.9409 -1.69224 0)
(11.6701 -2.40076 0)
(11.6771 -3.5987 0)
(11.0168 -4.57099 0)
(10.7257 -5.40027 0)
(10.0466 -6.27932 0)
(9.84516 -7.14276 0)
(9.30694 -7.69303 0)
(8.73248 -8.05082 0)
(8.33609 -8.13926 0)
(8.23023 -8.74244 0)
(8.21155 -9.82944 0)
(8.38577 -10.1961 0)
(8.41554 -9.46201 0)
(8.05156 -8.09723 0)
(7.53271 -6.78349 0)
(7.20254 -5.85027 0)
(7.27269 -5.14511 0)
(7.5389 -4.37068 0)
(7.84829 -3.36099 0)
(7.8507 -2.20063 0)
(7.68414 -0.919053 0)
(7.30724 0.349123 0)
(7.03148 1.38894 0)
(6.79663 2.18905 0)
(6.79541 2.8503 0)
(6.91252 3.46199 0)
(6.94684 4.2293 0)
(6.75858 5.18895 0)
(6.36187 6.18893 0)
(6.16448 6.9349 0)
(5.98437 7.27174 0)
(5.92901 7.32392 0)
(5.89033 7.37449 0)
(5.71443 7.44407 0)
(5.74335 7.25142 0)
(5.75064 6.86256 0)
(5.80365 6.40136 0)
(5.75203 6.07535 0)
(5.71636 5.89625 0)
(5.54465 5.96823 0)
(5.61997 6.032 0)
(5.72135 5.89415 0)
(5.78866 5.58067 0)
(5.98701 5.53103 0)
(6.48331 5.22841 0)
(6.9202 5.39235 0)
(7.11197 4.57661 0)
(7.79234 4.86492 0)
(8.04266 4.16161 0)
(8.85529 4.32266 0)