/*--------------------------------*- C++ -*----------------------------------*\
| =========                 |                                                 |
| \\      /  F ield         | OpenFOAM: The Open Source CFD Toolbox           |
|  \\    /   O peration     | Version:  2.4.0                                 |
|   \\  /    A nd           | Web:      www.OpenFOAM.org                      |
|    \\/     M anipulation  |                                                 |
\*---------------------------------------------------------------------------*/
FoamFile
{
    version     2.0;
    format      ascii;
    class       volScalarField;
    location    "0.125";
    object      pPrime2Mean;
}
// * * * * * * * * * * * * * * * * * * * * * * * * * * * * * * * * * * * * * //

dimensions      [0 4 -4 0 0 0 0];

internalField   nonuniform List<scalar> 
4400
(
5.09618e+06
4.83404e+06
4.56091e+06
4.29493e+06
4.03689e+06
3.78675e+06
3.54435e+06
3.30912e+06
3.07912e+06
2.84547e+06
5.0963e+06
4.83403e+06
4.56091e+06
4.29493e+06
4.03689e+06
3.78676e+06
3.54437e+06
3.30917e+06
3.07929e+06
2.84634e+06
5.09637e+06
4.83401e+06
4.5609e+06
4.29493e+06
4.03689e+06
3.78677e+06
3.5444e+06
3.30926e+06
3.07962e+06
2.84828e+06
5.09641e+06
4.83399e+06
4.56089e+06
4.29493e+06
4.03689e+06
3.78678e+06
3.54444e+06
3.3094e+06
3.08011e+06
2.85082e+06
5.09644e+06
4.83397e+06
4.56088e+06
4.29493e+06
4.0369e+06
3.78679e+06
3.54449e+06
3.30957e+06
3.08072e+06
2.85368e+06
5.09647e+06
4.83395e+06
4.56088e+06
4.29493e+06
4.0369e+06
3.78681e+06
3.54455e+06
3.30978e+06
3.08143e+06
2.85667e+06
5.0965e+06
4.83394e+06
4.56087e+06
4.29493e+06
4.0369e+06
3.78683e+06
3.54462e+06
3.31001e+06
3.08222e+06
2.85968e+06
5.09651e+06
4.83393e+06
4.56086e+06
4.29493e+06
4.03691e+06
3.78685e+06
3.5447e+06
3.31027e+06
3.08306e+06
2.86261e+06
5.09653e+06
4.83392e+06
4.56086e+06
4.29493e+06
4.03692e+06
3.78688e+06
3.54478e+06
3.31053e+06
3.08391e+06
2.86541e+06
5.09653e+06
4.83392e+06
4.56086e+06
4.29494e+06
4.03693e+06
3.78691e+06
3.54487e+06
3.3108e+06
3.08477e+06
2.86805e+06
5.09653e+06
4.83392e+06
4.56086e+06
4.29494e+06
4.03694e+06
3.78693e+06
3.54496e+06
3.31107e+06
3.0856e+06
2.8705e+06
5.09653e+06
4.83392e+06
4.56086e+06
4.29494e+06
4.03694e+06
3.78696e+06
3.54504e+06
3.31133e+06
3.0864e+06
2.87273e+06
5.09652e+06
4.83393e+06
4.56087e+06
4.29494e+06
4.03695e+06
3.78699e+06
3.54512e+06
3.31158e+06
3.08714e+06
2.87473e+06
5.0965e+06
4.83394e+06
4.56088e+06
4.29495e+06
4.03696e+06
3.78702e+06
3.5452e+06
3.31181e+06
3.08781e+06
2.87649e+06
5.09647e+06
4.83395e+06
4.56088e+06
4.29495e+06
4.03697e+06
3.78704e+06
3.54527e+06
3.31202e+06
3.08841e+06
2.87801e+06
5.09644e+06
4.83397e+06
4.56089e+06
4.29495e+06
4.03698e+06
3.78706e+06
3.54533e+06
3.3122e+06
3.08892e+06
2.87928e+06
5.09641e+06
4.83399e+06
4.5609e+06
4.29496e+06
4.03699e+06
3.78708e+06
3.54538e+06
3.31234e+06
3.08933e+06
2.8803e+06
5.09637e+06
4.83402e+06
4.56092e+06
4.29496e+06
4.037e+06
3.78709e+06
3.54542e+06
3.31246e+06
3.08965e+06
2.88106e+06
5.0963e+06
4.83403e+06
4.56092e+06
4.29497e+06
4.037e+06
3.7871e+06
3.54544e+06
3.31253e+06
3.08986e+06
2.88157e+06
5.09619e+06
4.83404e+06
4.56093e+06
4.29497e+06
4.037e+06
3.78711e+06
3.54546e+06
3.31257e+06
3.08997e+06
2.88182e+06
2.64543e+06
2.59909e+06
2.56204e+06
2.52807e+06
2.49563e+06
2.46419e+06
2.43343e+06
2.40318e+06
2.37332e+06
2.34377e+06
2.31449e+06
2.28546e+06
2.25666e+06
2.22807e+06
2.19967e+06
2.1715e+06
2.14354e+06
2.11577e+06
2.0882e+06
2.06082e+06
2.03361e+06
2.00659e+06
1.97974e+06
1.95307e+06
1.9266e+06
1.90031e+06
1.87421e+06
1.84829e+06
1.82255e+06
1.79699e+06
1.77161e+06
1.74641e+06
1.7214e+06
1.69658e+06
1.67195e+06
1.64752e+06
1.62328e+06
1.59923e+06
1.57537e+06
1.55171e+06
1.52821e+06
1.50486e+06
1.48166e+06
1.45861e+06
1.43571e+06
1.41299e+06
1.39044e+06
1.36808e+06
1.34591e+06
1.32394e+06
1.30217e+06
1.28059e+06
1.25919e+06
1.23798e+06
1.21695e+06
1.1961e+06
1.17542e+06
1.15493e+06
1.13462e+06
1.11449e+06
1.09452e+06
1.07474e+06
1.05512e+06
1.03568e+06
1.01641e+06
997345
978456
959771
941262
922956
904814
886868
869082
851493
834062
816828
799750
782862
766133
749594
733215
717029
701000
685167
669487
654009
638674
623538
608534
593716
579013
564474
550018
535682
521357
507056
492584
477856
462290
444689
2.66684e+06
2.61457e+06
2.57329e+06
2.53666e+06
2.5024e+06
2.4696e+06
2.43779e+06
2.40671e+06
2.37618e+06
2.34609e+06
2.31638e+06
2.28699e+06
2.2579e+06
2.22907e+06
2.20048e+06
2.17214e+06
2.14405e+06
2.11618e+06
2.08852e+06
2.06107e+06
2.03381e+06
2.00674e+06
1.97986e+06
1.95317e+06
1.92667e+06
1.90037e+06
1.87426e+06
1.84833e+06
1.82259e+06
1.79703e+06
1.77166e+06
1.74647e+06
1.72147e+06
1.69665e+06
1.67203e+06
1.64759e+06
1.62335e+06
1.5993e+06
1.57544e+06
1.55179e+06
1.52828e+06
1.50493e+06
1.48172e+06
1.45867e+06
1.43576e+06
1.41302e+06
1.39046e+06
1.36809e+06
1.34591e+06
1.32394e+06
1.30216e+06
1.28057e+06
1.25917e+06
1.23796e+06
1.21693e+06
1.19608e+06
1.1754e+06
1.15491e+06
1.13459e+06
1.11446e+06
1.0945e+06
1.07472e+06
1.0551e+06
1.03567e+06
1.01641e+06
997341
978456
959772
941263
922954
904808
886858
869066
851469
834027
816782
799683
782778
766020
749454
733037
716811
700728
684840
669087
653532
638098
622854
607712
592738
577838
563072
548331
533657
518898
504063
488869
473160
456086
435718
2.68314e+06
2.62819e+06
2.58385e+06
2.54493e+06
2.50897e+06
2.47488e+06
2.44206e+06
2.41017e+06
2.37899e+06
2.34838e+06
2.31824e+06
2.2885e+06
2.25912e+06
2.23006e+06
2.20128e+06
2.17278e+06
2.14456e+06
2.11658e+06
2.08884e+06
2.06131e+06
2.034e+06
2.00689e+06
1.97998e+06
1.95326e+06
1.92675e+06
1.90043e+06
1.87431e+06
1.84838e+06
1.82264e+06
1.79709e+06
1.77172e+06
1.74653e+06
1.72154e+06
1.69672e+06
1.6721e+06
1.64766e+06
1.62342e+06
1.59936e+06
1.57551e+06
1.55186e+06
1.52835e+06
1.505e+06
1.48178e+06
1.45871e+06
1.43579e+06
1.41304e+06
1.39047e+06
1.36809e+06
1.3459e+06
1.32392e+06
1.30214e+06
1.28055e+06
1.25915e+06
1.23793e+06
1.2169e+06
1.19605e+06
1.17537e+06
1.15489e+06
1.13456e+06
1.11444e+06
1.09447e+06
1.07469e+06
1.05508e+06
1.03565e+06
1.0164e+06
997333
978452
959769
941260
922948
904798
886844
869046
851442
833988
816734
799614
782693
765906
749316
732859
716595
700460
684515
668691
653061
637530
622179
606900
591774
576682
561695
546678
531679
516512
501175
485332
468776
450582
428956
2.69608e+06
2.64005e+06
2.59358e+06
2.55275e+06
2.51528e+06
2.47998e+06
2.44621e+06
2.41354e+06
2.38174e+06
2.35061e+06
2.32005e+06
2.28997e+06
2.26031e+06
2.23102e+06
2.20206e+06
2.1734e+06
2.14505e+06
2.11698e+06
2.08915e+06
2.06155e+06
2.03419e+06
2.00703e+06
1.98009e+06
1.95336e+06
1.92683e+06
1.9005e+06
1.87438e+06
1.84844e+06
1.8227e+06
1.79715e+06
1.77178e+06
1.7466e+06
1.72161e+06
1.69679e+06
1.67217e+06
1.64772e+06
1.62348e+06
1.59942e+06
1.57557e+06
1.55192e+06
1.52841e+06
1.50506e+06
1.48183e+06
1.45875e+06
1.43581e+06
1.41305e+06
1.39046e+06
1.36807e+06
1.34588e+06
1.32389e+06
1.3021e+06
1.28051e+06
1.25911e+06
1.2379e+06
1.21686e+06
1.19601e+06
1.17533e+06
1.15485e+06
1.13453e+06
1.11441e+06
1.09444e+06
1.07467e+06
1.05505e+06
1.03563e+06
1.01638e+06
997320
978443
959760
941251
922937
904782
886825
869019
851411
833944
816683
799540
782607
765788
749179
732681
716383
700196
684196
668303
652597
636973
621517
606107
590833
575554
560355
545071
529762
514215
498417
482011
464755
445795
423725
2.70664e+06
2.65036e+06
2.60244e+06
2.56007e+06
2.52127e+06
2.48488e+06
2.4502e+06
2.4168e+06
2.38439e+06
2.35277e+06
2.32181e+06
2.2914e+06
2.26147e+06
2.23196e+06
2.20281e+06
2.17401e+06
2.14554e+06
2.11736e+06
2.08945e+06
2.06179e+06
2.03437e+06
2.00718e+06
1.98021e+06
1.95346e+06
1.92691e+06
1.90058e+06
1.87445e+06
1.84851e+06
1.82277e+06
1.79722e+06
1.77185e+06
1.74667e+06
1.72167e+06
1.69685e+06
1.67222e+06
1.64777e+06
1.62352e+06
1.59946e+06
1.57561e+06
1.55197e+06
1.52846e+06
1.50511e+06
1.48187e+06
1.45877e+06
1.43581e+06
1.41304e+06
1.39044e+06
1.36805e+06
1.34584e+06
1.32385e+06
1.30206e+06
1.28047e+06
1.25906e+06
1.23785e+06
1.21681e+06
1.19597e+06
1.17529e+06
1.15482e+06
1.13449e+06
1.11437e+06
1.0944e+06
1.07464e+06
1.05502e+06
1.03561e+06
1.01636e+06
997304
978428
959747
941236
922920
904761
886801
868985
851376
833894
816628
799461
782520
765668
749045
732503
716177
699935
683883
667924
652144
636431
620874
605339
589922
574464
559062
543526
527926
512022
495808
478920
461101
441669
419539
2.71546e+06
2.65931e+06
2.61043e+06
2.56684e+06
2.52691e+06
2.48953e+06
2.45402e+06
2.41993e+06
2.38695e+06
2.35486e+06
2.32351e+06
2.29278e+06
2.26259e+06
2.23286e+06
2.20355e+06
2.17461e+06
2.14601e+06
2.11773e+06
2.08975e+06
2.06203e+06
2.03456e+06
2.00733e+06
1.98033e+06
1.95356e+06
1.927e+06
1.90066e+06
1.87452e+06
1.84858e+06
1.82283e+06
1.79728e+06
1.77191e+06
1.74673e+06
1.72173e+06
1.69691e+06
1.67227e+06
1.64781e+06
1.62355e+06
1.59949e+06
1.57565e+06
1.552e+06
1.5285e+06
1.50515e+06
1.48189e+06
1.45879e+06
1.43581e+06
1.41302e+06
1.39041e+06
1.36802e+06
1.3458e+06
1.32381e+06
1.302e+06
1.28042e+06
1.25901e+06
1.2378e+06
1.21676e+06
1.19593e+06
1.17524e+06
1.15478e+06
1.13444e+06
1.11434e+06
1.09436e+06
1.07461e+06
1.05499e+06
1.03558e+06
1.01633e+06
997285
978408
959731
941216
922901
904735
886775
868946
851338
833841
816569
799379
782431
765545
748913
732325
715979
699679
683579
667555
651702
635905
620248
604596
589039
573418
557821
542052
526185
509956
493377
476077
457819
438085
416074
2.72292e+06
2.6671e+06
2.61761e+06
2.57307e+06
2.53216e+06
2.49391e+06
2.45764e+06
2.42291e+06
2.38939e+06
2.35686e+06
2.32515e+06
2.29412e+06
2.26367e+06
2.23374e+06
2.20426e+06
2.17518e+06
2.14647e+06
2.1181e+06
2.09004e+06
2.06226e+06
2.03475e+06
2.00748e+06
1.98046e+06
1.95366e+06
1.92709e+06
1.90074e+06
1.87459e+06
1.84864e+06
1.82289e+06
1.79734e+06
1.77197e+06
1.74678e+06
1.72178e+06
1.69695e+06
1.6723e+06
1.64783e+06
1.62357e+06
1.5995e+06
1.57568e+06
1.55202e+06
1.52852e+06
1.50517e+06
1.4819e+06
1.45879e+06
1.43579e+06
1.41298e+06
1.39037e+06
1.36797e+06
1.34575e+06
1.32376e+06
1.30194e+06
1.28036e+06
1.25895e+06
1.23775e+06
1.2167e+06
1.19588e+06
1.17519e+06
1.15473e+06
1.13439e+06
1.11431e+06
1.09432e+06
1.07458e+06
1.05496e+06
1.03556e+06
1.01631e+06
997264
978383
959711
941190
922879
904704
886746
868906
851298
833785
816509
799295
782342
765422
748781
732150
715788
699427
683289
667199
651277
635400
619644
603884
588188
572417
556631
540654
524534
508025
491126
473485
454899
434961
413157
2.7293e+06
2.67389e+06
2.62403e+06
2.57875e+06
2.53703e+06
2.498e+06
2.46105e+06
2.42573e+06
2.39172e+06
2.35877e+06
2.32671e+06
2.2954e+06
2.26472e+06
2.23459e+06
2.20495e+06
2.17575e+06
2.14693e+06
2.11847e+06
2.09033e+06
2.0625e+06
2.03494e+06
2.00764e+06
1.98059e+06
1.95377e+06
1.92718e+06
1.90081e+06
1.87465e+06
1.8487e+06
1.82294e+06
1.79739e+06
1.77201e+06
1.74682e+06
1.72181e+06
1.69697e+06
1.67232e+06
1.64784e+06
1.62357e+06
1.59951e+06
1.57568e+06
1.55202e+06
1.52853e+06
1.50516e+06
1.48189e+06
1.45877e+06
1.43575e+06
1.41294e+06
1.39033e+06
1.36792e+06
1.34569e+06
1.3237e+06
1.30188e+06
1.2803e+06
1.25888e+06
1.23769e+06
1.21664e+06
1.19582e+06
1.17513e+06
1.15469e+06
1.13435e+06
1.11427e+06
1.09428e+06
1.07455e+06
1.05492e+06
1.03553e+06
1.01627e+06
997239
978354
959687
941160
922853
904669
886714
868863
851255
833728
816445
799214
782252
765303
748648
731981
715597
699186
683012
666858
650871
634920
619070
603207
587382
571469
555504
539337
522978
506228
489034
471124
452286
432237
410674
2.73482e+06
2.67982e+06
2.62974e+06
2.5839e+06
2.54149e+06
2.50179e+06
2.46423e+06
2.42838e+06
2.39391e+06
2.36058e+06
2.3282e+06
2.29661e+06
2.26571e+06
2.23541e+06
2.20562e+06
2.17629e+06
2.14737e+06
2.11882e+06
2.09062e+06
2.06273e+06
2.03513e+06
2.00779e+06
1.98071e+06
1.95387e+06
1.92727e+06
1.90088e+06
1.87471e+06
1.84875e+06
1.82299e+06
1.79742e+06
1.77205e+06
1.74685e+06
1.72183e+06
1.69698e+06
1.67232e+06
1.64784e+06
1.62356e+06
1.5995e+06
1.57568e+06
1.55201e+06
1.52852e+06
1.50514e+06
1.48187e+06
1.45874e+06
1.43571e+06
1.4129e+06
1.39028e+06
1.36787e+06
1.34564e+06
1.32364e+06
1.30182e+06
1.28025e+06
1.25883e+06
1.23763e+06
1.21659e+06
1.19577e+06
1.17508e+06
1.15464e+06
1.1343e+06
1.11424e+06
1.09424e+06
1.07452e+06
1.05488e+06
1.0355e+06
1.01624e+06
997212
978321
959658
941126
922822
904632
886677
868819
851207
833669
816379
799134
782161
765189
748516
731819
715405
698957
682745
666535
650487
634466
618528
602571
586623
570579
554449
538109
521528
504567
487106
468978
449945
429861
408532
2.73962e+06
2.685e+06
2.63479e+06
2.58851e+06
2.54555e+06
2.50527e+06
2.46717e+06
2.43084e+06
2.39595e+06
2.36227e+06
2.32959e+06
2.29776e+06
2.26665e+06
2.23618e+06
2.20625e+06
2.1768e+06
2.14779e+06
2.11916e+06
2.0909e+06
2.06295e+06
2.03531e+06
2.00794e+06
1.98083e+06
1.95397e+06
1.92735e+06
1.90094e+06
1.87476e+06
1.84879e+06
1.82302e+06
1.79745e+06
1.77207e+06
1.74686e+06
1.72184e+06
1.69698e+06
1.67231e+06
1.64782e+06
1.62355e+06
1.59948e+06
1.57565e+06
1.55198e+06
1.52849e+06
1.5051e+06
1.48183e+06
1.45869e+06
1.43566e+06
1.41285e+06
1.39023e+06
1.36782e+06
1.34558e+06
1.32359e+06
1.30177e+06
1.28019e+06
1.25877e+06
1.23758e+06
1.21653e+06
1.19572e+06
1.17503e+06
1.15459e+06
1.13425e+06
1.1142e+06
1.0942e+06
1.07449e+06
1.05484e+06
1.03547e+06
1.0162e+06
997182
978286
959626
941089
922786
904592
886635
868772
851153
833608
816307
799056
782064
765080
748384
731666
715217
698741
682487
666232
650126
634043
618020
601977
585915
569752
553466
536969
520188
503033
485346
467037
447860
427788
406661
2.7438e+06
2.68952e+06
2.63923e+06
2.59263e+06
2.5492e+06
2.50843e+06
2.46986e+06
2.4331e+06
2.39784e+06
2.36383e+06
2.33088e+06
2.29882e+06
2.26753e+06
2.23689e+06
2.20683e+06
2.17728e+06
2.14818e+06
2.11949e+06
2.09116e+06
2.06317e+06
2.03548e+06
2.00807e+06
1.98093e+06
1.95405e+06
1.92741e+06
1.901e+06
1.8748e+06
1.84882e+06
1.82304e+06
1.79746e+06
1.77207e+06
1.74686e+06
1.72183e+06
1.69697e+06
1.67229e+06
1.6478e+06
1.62352e+06
1.59945e+06
1.57561e+06
1.55193e+06
1.52844e+06
1.50504e+06
1.48178e+06
1.45863e+06
1.43561e+06
1.41279e+06
1.39018e+06
1.36776e+06
1.34553e+06
1.32353e+06
1.30172e+06
1.28013e+06
1.25872e+06
1.23752e+06
1.21648e+06
1.19566e+06
1.17498e+06
1.15454e+06
1.13421e+06
1.11415e+06
1.09416e+06
1.07445e+06
1.0548e+06
1.03544e+06
1.01616e+06
997148
978248
959590
941049
922746
904548
886586
868722
851090
833546
816227
798977
781961
764974
748248
731520
715032
698537
682239
665948
649788
633649
617547
601426
585257
568986
552557
535916
518958
501630
483754
465299
446024
425978
405026
2.74742e+06
2.69344e+06
2.64312e+06
2.59626e+06
2.55246e+06
2.51127e+06
2.47229e+06
2.43515e+06
2.39956e+06
2.36526e+06
2.33207e+06
2.2998e+06
2.26833e+06
2.23756e+06
2.20738e+06
2.17773e+06
2.14855e+06
2.11979e+06
2.09141e+06
2.06337e+06
2.03564e+06
2.0082e+06
1.98103e+06
1.95412e+06
1.92747e+06
1.90104e+06
1.87483e+06
1.84883e+06
1.82305e+06
1.79746e+06
1.77206e+06
1.74685e+06
1.7218e+06
1.69694e+06
1.67226e+06
1.64777e+06
1.62349e+06
1.59941e+06
1.57556e+06
1.55187e+06
1.52838e+06
1.50497e+06
1.48171e+06
1.45856e+06
1.43555e+06
1.41273e+06
1.39013e+06
1.3677e+06
1.34547e+06
1.32347e+06
1.30167e+06
1.28008e+06
1.25867e+06
1.23747e+06
1.21643e+06
1.19561e+06
1.17493e+06
1.15448e+06
1.13417e+06
1.1141e+06
1.09411e+06
1.07441e+06
1.05476e+06
1.0354e+06
1.01613e+06
997109
978209
959548
941006
922697
904501
886528
868668
851018
833480
816139
798898
781851
764869
748108
731376
714855
698344
682006
665685
649473
633282
617108
600916
584648
568279
551721
534951
517835
500359
482328
463759
444423
424403
403611
2.75054e+06
2.69681e+06
2.64649e+06
2.59943e+06
2.55532e+06
2.51379e+06
2.47445e+06
2.43698e+06
2.4011e+06
2.36655e+06
2.33313e+06
2.30068e+06
2.26906e+06
2.23816e+06
2.20787e+06
2.17814e+06
2.14889e+06
2.12007e+06
2.09163e+06
2.06355e+06
2.03578e+06
2.0083e+06
1.98111e+06
1.95419e+06
1.92751e+06
1.90106e+06
1.87484e+06
1.84884e+06
1.82304e+06
1.79745e+06
1.77204e+06
1.74682e+06
1.72177e+06
1.6969e+06
1.67222e+06
1.64773e+06
1.62345e+06
1.59936e+06
1.57549e+06
1.5518e+06
1.52829e+06
1.50488e+06
1.48163e+06
1.45848e+06
1.43549e+06
1.41266e+06
1.39007e+06
1.36764e+06
1.34542e+06
1.32341e+06
1.30162e+06
1.28002e+06
1.25863e+06
1.23741e+06
1.21639e+06
1.19555e+06
1.17489e+06
1.15442e+06
1.13412e+06
1.11404e+06
1.09407e+06
1.07435e+06
1.05473e+06
1.03535e+06
1.01609e+06
997063
978168
959498
940961
922639
904450
886460
868610
850936
833413
816042
798817
781735
764766
747967
731239
714683
698168
681790
665446
649182
632944
616702
600447
584089
567633
550959
534078
516824
499226
481071
462412
443039
423048
402396
2.75321e+06
2.69969e+06
2.64938e+06
2.60216e+06
2.55781e+06
2.51598e+06
2.47635e+06
2.4386e+06
2.40246e+06
2.36769e+06
2.33408e+06
2.30147e+06
2.26971e+06
2.23869e+06
2.20832e+06
2.17851e+06
2.14919e+06
2.12031e+06
2.09183e+06
2.0637e+06
2.0359e+06
2.0084e+06
1.98118e+06
1.95424e+06
1.92755e+06
1.90108e+06
1.87485e+06
1.84883e+06
1.82303e+06
1.79742e+06
1.77201e+06
1.74678e+06
1.72172e+06
1.69685e+06
1.67217e+06
1.64769e+06
1.6234e+06
1.5993e+06
1.57542e+06
1.55171e+06
1.5282e+06
1.50478e+06
1.48155e+06
1.45839e+06
1.43542e+06
1.41259e+06
1.39001e+06
1.36756e+06
1.34537e+06
1.32335e+06
1.30157e+06
1.27996e+06
1.25858e+06
1.23736e+06
1.21634e+06
1.1955e+06
1.17484e+06
1.15437e+06
1.13408e+06
1.11397e+06
1.09403e+06
1.07429e+06
1.05469e+06
1.0353e+06
1.01605e+06
997012
978126
959443
940914
922577
904397
886388
868549
850853
833343
815943
798737
781621
764670
747833
731117
714522
698012
681590
665230
648914
632638
616331
600024
583582
567054
550276
533302
515935
498235
479986
461253
441860
421897
401361
2.75545e+06
2.70211e+06
2.6518e+06
2.60447e+06
2.55991e+06
2.51785e+06
2.47797e+06
2.43999e+06
2.40364e+06
2.36867e+06
2.3349e+06
2.30215e+06
2.27028e+06
2.23916e+06
2.20871e+06
2.17883e+06
2.14945e+06
2.12053e+06
2.092e+06
2.06384e+06
2.03601e+06
2.00848e+06
1.98123e+06
1.95427e+06
1.92757e+06
1.90109e+06
1.87484e+06
1.84882e+06
1.823e+06
1.79739e+06
1.77197e+06
1.74673e+06
1.72167e+06
1.6968e+06
1.67212e+06
1.64764e+06
1.62335e+06
1.59924e+06
1.57533e+06
1.55162e+06
1.52809e+06
1.50469e+06
1.48145e+06
1.4583e+06
1.43535e+06
1.41252e+06
1.38996e+06
1.36749e+06
1.34531e+06
1.3233e+06
1.30152e+06
1.27991e+06
1.25853e+06
1.2373e+06
1.2163e+06
1.19545e+06
1.1748e+06
1.15431e+06
1.13403e+06
1.11391e+06
1.09399e+06
1.07422e+06
1.05465e+06
1.03524e+06
1.01601e+06
996960
978086
959389
940869
922516
904345
886319
868488
850773
833274
815853
798659
781520
764583
747716
731011
714378
697872
681403
665037
648666
632369
616000
599652
583137
566549
549685
532632
515176
497389
479068
460276
440871
420935
400493
2.75729e+06
2.70409e+06
2.65379e+06
2.60637e+06
2.56166e+06
2.51941e+06
2.47933e+06
2.44116e+06
2.40463e+06
2.36951e+06
2.3356e+06
2.30273e+06
2.27076e+06
2.23956e+06
2.20903e+06
2.1791e+06
2.14967e+06
2.1207e+06
2.09214e+06
2.06395e+06
2.03609e+06
2.00854e+06
1.98128e+06
1.9543e+06
1.92758e+06
1.90109e+06
1.87483e+06
1.8488e+06
1.82297e+06
1.79735e+06
1.77192e+06
1.74667e+06
1.72161e+06
1.69674e+06
1.67206e+06
1.64758e+06
1.62328e+06
1.59917e+06
1.57525e+06
1.55153e+06
1.52799e+06
1.50459e+06
1.48136e+06
1.45821e+06
1.43528e+06
1.41245e+06
1.3899e+06
1.36743e+06
1.34526e+06
1.32325e+06
1.30148e+06
1.27986e+06
1.25849e+06
1.23725e+06
1.21626e+06
1.1954e+06
1.17477e+06
1.15427e+06
1.134e+06
1.11386e+06
1.09395e+06
1.07417e+06
1.05461e+06
1.03519e+06
1.01598e+06
996913
978052
959340
940830
922461
904298
886257
868432
850704
833208
815776
798586
781433
764505
747614
730918
714250
697751
681235
664871
648444
632138
615716
599335
582761
566121
549191
532071
514546
496688
478314
459474
440063
420149
399780
2.75874e+06
2.70564e+06
2.65536e+06
2.60787e+06
2.56305e+06
2.52065e+06
2.48042e+06
2.4421e+06
2.40542e+06
2.37018e+06
2.33616e+06
2.3032e+06
2.27115e+06
2.23988e+06
2.2093e+06
2.17931e+06
2.14985e+06
2.12085e+06
2.09226e+06
2.06404e+06
2.03616e+06
2.00859e+06
1.98131e+06
1.95432e+06
1.92759e+06
1.90109e+06
1.87482e+06
1.84877e+06
1.82294e+06
1.7973e+06
1.77186e+06
1.74661e+06
1.72155e+06
1.69668e+06
1.67201e+06
1.64753e+06
1.62322e+06
1.5991e+06
1.57517e+06
1.55144e+06
1.52789e+06
1.5045e+06
1.48126e+06
1.45814e+06
1.43522e+06
1.41239e+06
1.38985e+06
1.36737e+06
1.34523e+06
1.32319e+06
1.30145e+06
1.27982e+06
1.25846e+06
1.23722e+06
1.21624e+06
1.19536e+06
1.17474e+06
1.15423e+06
1.13397e+06
1.11382e+06
1.09392e+06
1.07413e+06
1.05458e+06
1.03515e+06
1.01595e+06
996875
978024
959300
940797
922417
904258
886207
868385
850647
833153
815711
798523
781358
764439
747525
730841
714137
697650
681090
664733
648262
631949
615486
599077
582457
565776
548794
531622
514044
496131
477715
458839
439425
419531
399217
2.75981e+06
2.70679e+06
2.65653e+06
2.609e+06
2.56409e+06
2.52158e+06
2.48124e+06
2.4428e+06
2.40602e+06
2.37069e+06
2.33659e+06
2.30355e+06
2.27144e+06
2.24013e+06
2.2095e+06
2.17948e+06
2.14998e+06
2.12095e+06
2.09234e+06
2.06411e+06
2.03621e+06
2.00862e+06
1.98134e+06
1.95434e+06
1.92759e+06
1.90108e+06
1.8748e+06
1.84874e+06
1.8229e+06
1.79726e+06
1.77181e+06
1.74655e+06
1.72149e+06
1.69662e+06
1.67195e+06
1.64747e+06
1.62317e+06
1.59904e+06
1.5751e+06
1.55136e+06
1.52781e+06
1.50442e+06
1.48118e+06
1.45807e+06
1.43516e+06
1.41234e+06
1.38981e+06
1.36733e+06
1.34521e+06
1.32315e+06
1.30142e+06
1.27979e+06
1.25843e+06
1.23719e+06
1.21621e+06
1.19534e+06
1.17472e+06
1.15421e+06
1.13395e+06
1.1138e+06
1.0939e+06
1.07411e+06
1.05456e+06
1.03513e+06
1.01593e+06
996852
978003
959274
940774
922388
904231
886173
868353
850606
833114
815662
798479
781298
764390
747453
730781
714046
697568
680978
664624
648127
631806
615312
598883
582229
565515
548496
531284
513668
495713
477269
458366
438950
419072
398797
2.76051e+06
2.70756e+06
2.6573e+06
2.60974e+06
2.56478e+06
2.52221e+06
2.48179e+06
2.44328e+06
2.40643e+06
2.37103e+06
2.33687e+06
2.30379e+06
2.27164e+06
2.24029e+06
2.20964e+06
2.17959e+06
2.15007e+06
2.12103e+06
2.0924e+06
2.06415e+06
2.03624e+06
2.00865e+06
1.98135e+06
1.95434e+06
1.92758e+06
1.90107e+06
1.87478e+06
1.84872e+06
1.82287e+06
1.79722e+06
1.77177e+06
1.74651e+06
1.72145e+06
1.69658e+06
1.67192e+06
1.64743e+06
1.62313e+06
1.599e+06
1.57506e+06
1.55131e+06
1.52775e+06
1.50436e+06
1.48112e+06
1.45802e+06
1.43512e+06
1.4123e+06
1.38979e+06
1.36731e+06
1.34519e+06
1.32313e+06
1.30141e+06
1.27977e+06
1.25842e+06
1.23717e+06
1.2162e+06
1.19532e+06
1.17471e+06
1.15419e+06
1.13394e+06
1.11379e+06
1.09389e+06
1.0741e+06
1.05455e+06
1.03512e+06
1.01592e+06
996840
977992
959261
940762
922372
904217
886153
868335
850582
833092
815630
798451
781260
764356
747406
730737
713986
697509
680902
664549
648040
631710
615198
598753
582077
565342
548298
531059
513419
495434
476973
458051
438635
418768
398519
2.76086e+06
2.70793e+06
2.65768e+06
2.61012e+06
2.56513e+06
2.52252e+06
2.48206e+06
2.44351e+06
2.40663e+06
2.3712e+06
2.33702e+06
2.30391e+06
2.27174e+06
2.24037e+06
2.2097e+06
2.17964e+06
2.15012e+06
2.12106e+06
2.09242e+06
2.06417e+06
2.03625e+06
2.00866e+06
1.98136e+06
1.95434e+06
1.92758e+06
1.90106e+06
1.87478e+06
1.84871e+06
1.82286e+06
1.79721e+06
1.77175e+06
1.74649e+06
1.72143e+06
1.69657e+06
1.6719e+06
1.64742e+06
1.62311e+06
1.59899e+06
1.57505e+06
1.55129e+06
1.52772e+06
1.50433e+06
1.48109e+06
1.45799e+06
1.43509e+06
1.41228e+06
1.38977e+06
1.36729e+06
1.34518e+06
1.32312e+06
1.3014e+06
1.27976e+06
1.25841e+06
1.23717e+06
1.2162e+06
1.19532e+06
1.17471e+06
1.15419e+06
1.13394e+06
1.11378e+06
1.09389e+06
1.07409e+06
1.05455e+06
1.03511e+06
1.01592e+06
996836
977988
959257
940757
922366
904211
886146
868328
850572
833083
815618
798439
781243
764340
747385
730717
713958
697481
680866
664515
647998
631666
615143
598691
582003
565257
548200
530948
513294
495297
476826
457896
438479
418619
398385
2.44264e+06
2.43901e+06
2.4319e+06
2.42158e+06
2.40834e+06
2.39255e+06
2.3746e+06
2.35482e+06
2.33355e+06
2.31105e+06
2.28755e+06
2.26326e+06
2.23833e+06
2.21293e+06
2.18717e+06
2.16113e+06
2.13492e+06
2.10859e+06
2.08221e+06
2.05582e+06
2.02943e+06
2.00307e+06
1.97676e+06
1.95053e+06
1.9244e+06
1.8984e+06
1.87253e+06
1.84682e+06
1.82126e+06
1.79582e+06
1.77052e+06
1.74535e+06
1.72031e+06
1.69544e+06
1.67072e+06
1.64623e+06
1.62194e+06
1.59786e+06
1.57398e+06
1.5503e+06
1.52678e+06
1.50346e+06
1.48032e+06
1.45736e+06
1.43457e+06
1.41196e+06
1.38951e+06
1.36725e+06
1.34516e+06
1.32326e+06
1.30152e+06
1.27998e+06
1.2586e+06
1.23741e+06
1.2164e+06
1.19557e+06
1.17492e+06
1.15446e+06
1.13417e+06
1.11407e+06
1.09415e+06
1.0744e+06
1.05482e+06
1.03542e+06
1.0162e+06
997169
978329
959687
941240
922988
904930
887067
869401
851935
834672
817617
800775
784152
767756
751597
735686
720036
704664
689588
674831
660421
646389
632776
619627
607000
594959
583585
572969
563222
554468
546841
540491
535560
532162
530417
2.44328e+06
2.43963e+06
2.43248e+06
2.4221e+06
2.4088e+06
2.39295e+06
2.37494e+06
2.3551e+06
2.33379e+06
2.31126e+06
2.28773e+06
2.2634e+06
2.23845e+06
2.21303e+06
2.18726e+06
2.16121e+06
2.13498e+06
2.10865e+06
2.08227e+06
2.05587e+06
2.02947e+06
2.00311e+06
1.9768e+06
1.95057e+06
1.92444e+06
1.89843e+06
1.87256e+06
1.84685e+06
1.82129e+06
1.79586e+06
1.77055e+06
1.74538e+06
1.72034e+06
1.69546e+06
1.67074e+06
1.64624e+06
1.62195e+06
1.59787e+06
1.57399e+06
1.5503e+06
1.52679e+06
1.50347e+06
1.48032e+06
1.45736e+06
1.43457e+06
1.41197e+06
1.38952e+06
1.36726e+06
1.34516e+06
1.32326e+06
1.30152e+06
1.27998e+06
1.2586e+06
1.23742e+06
1.2164e+06
1.19558e+06
1.17493e+06
1.15446e+06
1.13418e+06
1.11408e+06
1.09415e+06
1.07441e+06
1.05483e+06
1.03543e+06
1.0162e+06
997169
978329
959686
941239
922986
904928
887064
869398
851931
834667
817611
800767
784143
767745
751584
735670
720017
704641
689561
674798
660382
646343
632720
619561
606920
594864
583472
572835
563065
554284
546630
540255
535300
531883
530129
2.44457e+06
2.44087e+06
2.43364e+06
2.42315e+06
2.40972e+06
2.39375e+06
2.37561e+06
2.35568e+06
2.33428e+06
2.31167e+06
2.28808e+06
2.2637e+06
2.2387e+06
2.21324e+06
2.18744e+06
2.16137e+06
2.13512e+06
2.10877e+06
2.08238e+06
2.05597e+06
2.02957e+06
2.0032e+06
1.97688e+06
1.95066e+06
1.92452e+06
1.89851e+06
1.87263e+06
1.84692e+06
1.82135e+06
1.79592e+06
1.77061e+06
1.74544e+06
1.72039e+06
1.6955e+06
1.67078e+06
1.64627e+06
1.62198e+06
1.59789e+06
1.57401e+06
1.55033e+06
1.52681e+06
1.50349e+06
1.48034e+06
1.45738e+06
1.43459e+06
1.41198e+06
1.38953e+06
1.36727e+06
1.34517e+06
1.32327e+06
1.30153e+06
1.27999e+06
1.25861e+06
1.23742e+06
1.21641e+06
1.19559e+06
1.17494e+06
1.15447e+06
1.13419e+06
1.11409e+06
1.09416e+06
1.07442e+06
1.05484e+06
1.03543e+06
1.01621e+06
997172
978329
959684
941236
922983
904923
887059
869391
851923
834657
817599
800753
784125
767724
751558
735639
719980
704596
689507
674734
660304
646250
632609
619428
606761
594674
583246
572568
562749
553915
546206
539779
534777
531322
529546
2.44651e+06
2.44274e+06
2.43538e+06
2.42471e+06
2.4111e+06
2.39494e+06
2.37663e+06
2.35653e+06
2.33501e+06
2.31229e+06
2.2886e+06
2.26414e+06
2.23908e+06
2.21357e+06
2.18772e+06
2.16161e+06
2.13533e+06
2.10896e+06
2.08256e+06
2.05613e+06
2.02971e+06
2.00333e+06
1.977e+06
1.95077e+06
1.92464e+06
1.89861e+06
1.87273e+06
1.84701e+06
1.82144e+06
1.796e+06
1.77068e+06
1.74551e+06
1.72045e+06
1.69555e+06
1.67082e+06
1.64631e+06
1.62201e+06
1.59792e+06
1.57404e+06
1.55036e+06
1.52684e+06
1.50351e+06
1.48037e+06
1.45741e+06
1.43462e+06
1.412e+06
1.38956e+06
1.36729e+06
1.34519e+06
1.32329e+06
1.30155e+06
1.28001e+06
1.25862e+06
1.23744e+06
1.21643e+06
1.1956e+06
1.17495e+06
1.15449e+06
1.13421e+06
1.11411e+06
1.09418e+06
1.07443e+06
1.05485e+06
1.03545e+06
1.01622e+06
997176
978331
959683
941233
922978
904917
887051
869382
851911
834643
817581
800731
784099
767692
751520
735593
719925
704530
689427
674638
660189
646112
632443
619229
606523
594391
582909
572168
562277
553363
545569
539062
533986
530474
528663
2.44912e+06
2.44525e+06
2.4377e+06
2.4268e+06
2.41292e+06
2.39651e+06
2.37797e+06
2.35767e+06
2.33597e+06
2.31311e+06
2.2893e+06
2.26473e+06
2.23958e+06
2.214e+06
2.18808e+06
2.16192e+06
2.13561e+06
2.10921e+06
2.08278e+06
2.05634e+06
2.0299e+06
2.00349e+06
1.97715e+06
1.95092e+06
1.92478e+06
1.89874e+06
1.87284e+06
1.84711e+06
1.82153e+06
1.79609e+06
1.77075e+06
1.74558e+06
1.72052e+06
1.6956e+06
1.67087e+06
1.64635e+06
1.62205e+06
1.59796e+06
1.57408e+06
1.55039e+06
1.52688e+06
1.50355e+06
1.4804e+06
1.45744e+06
1.43465e+06
1.41204e+06
1.38959e+06
1.36732e+06
1.34522e+06
1.32331e+06
1.30157e+06
1.28003e+06
1.25865e+06
1.23746e+06
1.21645e+06
1.19563e+06
1.17498e+06
1.15452e+06
1.13423e+06
1.11414e+06
1.09421e+06
1.07446e+06
1.05487e+06
1.03546e+06
1.01623e+06
997184
978335
959683
941230
922973
904910
887042
869370
851896
834624
817559
800703
784065
767651
751470
735533
719852
704442
689321
674511
660037
645929
632224
618967
606209
594016
582462
571638
561651
552629
544721
538102
532924
529330
527473
2.45242e+06
2.44841e+06
2.44062e+06
2.42941e+06
2.4152e+06
2.39847e+06
2.37963e+06
2.35909e+06
2.33717e+06
2.31412e+06
2.29017e+06
2.26547e+06
2.2402e+06
2.21453e+06
2.18853e+06
2.16231e+06
2.13594e+06
2.1095e+06
2.08304e+06
2.05657e+06
2.0301e+06
2.00368e+06
1.97732e+06
1.95108e+06
1.92493e+06
1.89888e+06
1.87297e+06
1.84722e+06
1.82162e+06
1.79618e+06
1.77083e+06
1.74565e+06
1.72059e+06
1.69567e+06
1.67093e+06
1.6464e+06
1.62211e+06
1.59802e+06
1.57413e+06
1.55044e+06
1.52693e+06
1.50359e+06
1.48044e+06
1.45748e+06
1.43469e+06
1.41207e+06
1.38962e+06
1.36735e+06
1.34525e+06
1.32334e+06
1.3016e+06
1.28006e+06
1.25868e+06
1.23749e+06
1.21648e+06
1.19566e+06
1.17501e+06
1.15455e+06
1.13427e+06
1.11417e+06
1.09424e+06
1.07449e+06
1.0549e+06
1.03549e+06
1.01625e+06
997194
978340
959683
941227
922968
904902
887032
869356
851879
834602
817531
800669
784023
767600
751409
735458
719762
704334
689191
674355
659849
645704
631954
618642
605821
593552
581908
570980
560872
551715
543663
536898
531585
527883
525966
2.45643e+06
2.45224e+06
2.44414e+06
2.43254e+06
2.41791e+06
2.4008e+06
2.38161e+06
2.36077e+06
2.3386e+06
2.31534e+06
2.2912e+06
2.26634e+06
2.24094e+06
2.21515e+06
2.18905e+06
2.16275e+06
2.13631e+06
2.10982e+06
2.08332e+06
2.05682e+06
2.03033e+06
2.00387e+06
1.9775e+06
1.95124e+06
1.92509e+06