/*--------------------------------*- C++ -*----------------------------------*\
| =========                 |                                                 |
| \\      /  F ield         | OpenFOAM: The Open Source CFD Toolbox           |
|  \\    /   O peration     | Version:  2.4.0                                 |
|   \\  /    A nd           | Web:      www.OpenFOAM.org                      |
|    \\/     M anipulation  |                                                 |
\*---------------------------------------------------------------------------*/
FoamFile
{
    version     2.0;
    format      ascii;
    class       volScalarField;
    location    "0.283772";
    object      epsilon;
}
// * * * * * * * * * * * * * * * * * * * * * * * * * * * * * * * * * * * * * //

dimensions      [0 2 -3 0 0 0 0];

internalField   nonuniform List<scalar> 
17600
(
265.09
385.335
484.46
552.05
589.265
603.029
601.303
590.783
576.259
560.771
546.041
532.896
521.605
512.112
504.189
497.545
491.851
486.867
481.986
478.764
36.8624
56.7081
73.2577
86.8986
97.8675
106.64
113.963
120.515
126.752
132.906
139.031
145.059
150.852
156.254
161.126
165.372
168.952
171.91
174.557
177.917
17.5472
21.1623
24.3657
26.9491
28.8834
30.2485
31.228
32.0349
32.8574
33.8376
35.0699
36.6057
38.4604
40.6215
43.0547
45.7122
48.5379
51.4926
54.5712
57.9977
14.6112
14.9345
15.4063
15.8349
16.1332
16.2718
16.2676
16.1629
16.0083
15.8527
15.7385
15.7003
15.7646
15.9507
16.2718
16.7362
17.3477
18.1186
19.0485
20.3076
14.0152
13.4591
13.0881
12.8118
12.5674
12.3168
12.0437
11.7471
11.4348
11.1185
10.8107
10.5236
10.2678
10.0522
9.88397
9.76907
9.71222
9.72117
9.80002
10.0033
13.8829
13.0684
12.396
11.8322
11.3443
10.9054
10.4968
10.1079
9.73367
9.3729
9.02671
8.69732
8.38743
8.0997
7.83655
7.60015
7.39231
7.21581
7.07245
6.97787
13.853
12.9632
12.1838
11.5007
10.898
10.3594
9.87108
9.4224
9.00568
8.61576
8.24937
7.90461
7.58045
7.2764
6.99232
6.72822
6.4842
6.26085
6.05847
5.882
13.8461
12.9351
12.1197
11.3899
10.7358
10.147
9.61379
9.12753
8.68111
8.26879
7.88609
7.52957
7.19663
6.88528
6.59401
6.32165
6.0673
5.83042
5.61048
5.40904
13.8445
12.9277
12.1008
11.3539
10.6786
10.0666
9.51022
9.00256
8.53748
8.10966
7.71458
7.34848
7.00824
6.69125
6.3954
6.11892
5.86033
5.6185
5.39242
5.18237
13.8441
12.9257
12.0952
11.3425
10.659
10.0371
9.46989
8.95127
8.47573
8.03844
7.63516
7.26218
6.91633
6.59485
6.29539
6.01593
5.75474
5.51035
5.28152
5.06797
13.844
12.9251
12.0935
11.3388
10.6524
10.0265
9.45466
8.9309
8.45007
8.00762
7.59952
7.22221
6.87259
6.54791
6.24578
5.96409
5.70102
5.45497
5.22456
5.00928
13.844
12.9249
12.0929
11.3376
10.6501
10.0227
9.44897
8.92298
8.43969
7.99468
7.58403
7.20429
6.85242
6.52572
6.22182
5.93862
5.67424
5.42706
5.19564
4.97936
13.844
12.9248
12.0927
11.3371
10.6492
10.0213
9.44678
8.91987
8.43552
7.98933
7.57744
7.19646
6.84337
6.51554
6.21059
5.92645
5.66125
5.41335
5.1813
4.96442
13.8439
12.9247
12.0925
11.3368
10.6487
10.0206
9.44584
8.91857
8.43377
7.98708
7.57463
7.19306
6.83938
6.51095
6.20545
5.92079
5.65512
5.40681
5.17438
4.95717
13.8439
12.9247
12.0924
11.3366
10.6485
10.0203
9.44536
8.91793
8.43296
7.98605
7.57337
7.19153
6.83758
6.50888
6.2031
5.91818
5.65228
5.40375
5.17113
4.95374
13.8439
12.9246
12.0923
11.3365
10.6483
10.02
9.44506
8.91757
8.43252
7.98552
7.57273
7.19079
6.83672
6.5079
6.202
5.91696
5.65095
5.40232
5.16962
4.95214
13.8439
12.9246
12.0922
11.3364
10.6481
10.0199
9.44485
8.91733
8.43224
7.9852
7.57237
7.19038
6.83627
6.50739
6.20145
5.91637
5.65031
5.40164
5.1689
4.9514
13.8439
12.9246
12.0922
11.3363
10.648
10.0197
9.44471
8.91716
8.43205
7.985
7.57215
7.19014
6.836
6.50711
6.20115
5.91605
5.64998
5.4013
5.16856
4.95104
13.8439
12.9246
12.0921
11.3362
10.648
10.0197
9.44461
8.91705
8.43194
7.98487
7.57202
7.19
6.83585
6.50695
6.20098
5.91588
5.64981
5.40113
5.16838
4.95087
13.8439
12.9246
12.0921
11.3362
10.6479
10.0196
9.44457
8.917
8.43188
7.98481
7.57195
7.18993
6.83578
6.50688
6.20091
5.91581
5.64973
5.40105
5.16831
4.9508
13.8439
12.9246
12.0921
11.3362
10.6479
10.0196
9.44457
8.917
8.43188
7.98481
7.57195
7.18993
6.83578
6.50688
6.20091
5.91581
5.64974
5.40106
5.16832
4.9508
13.8439
12.9246
12.0921
11.3362
10.648
10.0197
9.44461
8.91705
8.43194
7.98487
7.57202
7.19
6.83585
6.50696
6.20099
5.91589
5.64982
5.40114
5.1684
4.95087
13.8439
12.9246
12.0922
11.3363
10.648
10.0197
9.44471
8.91716
8.43205
7.985
7.57215
7.19014
6.83601
6.50712
6.20116
5.91606
5.64999
5.40132
5.16857
4.95104
13.8439
12.9246
12.0922
11.3364
10.6481
10.0199
9.44485
8.91733
8.43224
7.9852
7.57238
7.19039
6.83627
6.5074
6.20146
5.91638
5.65033
5.40167
5.16893
4.95139
13.8439
12.9246
12.0923
11.3365
10.6483
10.02
9.44506
8.91757
8.43252
7.98552
7.57274
7.19079
6.83672
6.5079
6.20201
5.91698
5.65098
5.40235
5.16965
4.95213
13.8439
12.9247
12.0924
11.3366
10.6485
10.0203
9.44536
8.91793
8.43296
7.98605
7.57337
7.19153
6.83758
6.50889
6.20312
5.9182
5.65231
5.40379
5.17117
4.95372
13.8439
12.9247
12.0925
11.3368
10.6487
10.0206
9.44584
8.91857
8.43377
7.98708
7.57463
7.19306
6.83938
6.51096
6.20546
5.92081
5.65516
5.40685
5.17442
4.95712
13.844
12.9248
12.0927
11.3371
10.6492
10.0213
9.44678
8.91987
8.43552
7.98933
7.57745
7.19646
6.84338
6.51555
6.21061
5.92647
5.66128
5.41339
5.18131
4.96432
13.844
12.9249
12.0929
11.3376
10.6501
10.0227
9.44897
8.92298
8.4397
7.99468
7.58403
7.20429
6.85242
6.52573
6.22183
5.93863
5.67426
5.42707
5.19561
4.97914
13.844
12.9251
12.0935
11.3388
10.6524
10.0265
9.45466
8.9309
8.45007
8.00762
7.59952
7.22221
6.87259
6.54791
6.24578
5.9641
5.70101
5.45493
5.22442
5.00881
13.8441
12.9257
12.0952
11.3425
10.659
10.0371
9.46989
8.95127
8.47573
8.03844
7.63516
7.26218
6.91633
6.59485
6.29538
6.0159
5.75467
5.51019
5.28115
5.06698
13.8445
12.9277
12.1008
11.3539
10.6786
10.0666
9.51022
9.00256
8.53748
8.10965
7.71458
7.34848
7.00823
6.69123
6.39536
6.11883
5.86016
5.6181
5.39158
5.18023
13.8461
12.9351
12.1197
11.3899
10.7358
10.147
9.61379
9.12753
8.6811
8.26878
7.88608
7.52956
7.1966
6.88522
6.5939
6.32145
6.06691
5.82952
5.60864
5.4042
13.853
12.9632
12.1838
11.5007
10.898
10.3594
9.87108
9.4224
9.00568
8.61575
8.24935
7.90457
7.58038
7.27628
6.99209
6.72778
6.48335
6.25884
6.05428
5.87013
13.8829
13.0684
12.396
11.8322
11.3443
10.9054
10.4968
10.1079
9.73366
9.37288
9.02667
8.69725
8.38729
8.09943
7.83605
7.59915
7.39036
7.21099
7.06217
6.94534
14.0152
13.4591
13.0881
12.8118
12.5674
12.3168
12.0437
11.7471
11.4348
11.1184
10.8106
10.5235
10.2675
10.0516
9.88272
9.76652
9.70722
9.70815
9.77197
9.90193
14.6112
14.9345
15.4063
15.8349
16.1332
16.2718
16.2676
16.1628
16.0082
15.8526
15.7383
15.6998
15.7637
15.9489
16.2682
16.7289
17.3336
18.0811
18.967
19.9871
17.5472
21.1623
24.3657
26.9491
28.8834
30.2484
31.2279
32.0348
32.8572
33.8372
35.0691
36.6041
38.4574
40.6159
43.0443
45.6923
48.5
51.4043
54.3444
57.264
36.8624
56.7081
73.2577
86.8986
97.8674
106.64
113.963
120.514
126.751
132.904
139.028
145.053
150.842
156.236
161.095
165.316
168.845
171.681
173.868
175.476
265.09
385.335
484.46
552.05
589.266
603.029
601.303
590.784
576.261
560.774
546.047
532.906
521.623
512.143
504.245
497.639
492.034
487.165
482.815
478.818
699.171
863.009
976.922
1046.49
1078.09
1079.77
1060.17
1027.25
987.469
945.419
903.977
864.684
828.194
794.631
763.852
735.606
709.628
685.682
663.569
643.114
624.163
606.576
590.225
574.995
560.783
547.501
535.07
523.423
512.498
502.241
492.602
483.533
474.992
466.939
459.337
452.151
445.351
438.905
432.786
426.968
421.426
416.136
411.075
406.223
401.56
397.068
392.728
388.526
384.445
380.472
376.594
372.799
369.075
365.412
361.801
358.235
354.704
351.203
347.725
344.266
340.82
337.383
333.953
330.526
327.1
323.673
320.244
316.812
313.377
309.937
306.494
303.047
299.597
296.145
292.692
289.239
285.787
282.338
278.893
275.453
272.02
268.596
265.183
261.781
258.392
255.019
251.662
248.323
245.004
241.705
238.428
235.175
231.947
228.744
225.568
222.42
219.301
216.211
213.152
210.124
207.128
204.164
201.234
198.337
195.474
192.645
189.851
187.092
184.368
181.679
179.026
176.409
173.828
171.282
168.772
166.298
163.86
161.457
159.09
156.758
154.462
152.201
149.974
147.783
145.626
143.504
141.415
139.361
137.341
135.354
133.401
131.481
129.595
127.741
125.919
124.13
122.374
120.65
118.958
117.298
115.669
114.073
112.508
110.975
109.474
108.005
106.568
105.163
103.79
102.449
101.141
99.8667
98.6256
97.4184
96.2457
95.1082
94.0066
92.9418
91.9147
90.9266
89.9787
89.0724
88.2096
87.392
86.6219
85.9016
85.2338
84.6206
84.0635
83.5679
83.1392
82.7834
82.5078
82.3208
82.2328
82.256
82.4057
82.7006
83.1645
83.8275
84.7295
85.9232
87.4809
89.5033
92.1337
95.5785
100.137
106.243
114.518
125.844
141.451
163.063
193.14
235.352
295.631
384.735
525.89
783.764
1425.7
3165.29
189.368
208.875
237.41
274.468
318.615
367.024
416.318
463.21
504.892
539.404
565.795
584.048
594.886
599.48
599.168
595.237
588.78
580.655
571.487
561.71
551.615
541.396
531.19
521.097
511.19
501.529
492.153
483.093
474.363
465.97
457.914
450.189
442.787
435.698
428.912
422.416
416.198
410.245
404.542
399.074
393.827
388.787
383.938
379.267
374.759
370.401
366.182
362.088
358.108
354.23
350.445
346.743
343.114
339.549
336.043
332.586
329.173
325.797
322.455
319.14
315.848
312.576
309.322
306.081
302.852
299.632
296.421
293.218
290.021
286.83
283.644
280.464
277.289
274.121
270.959
267.805
264.658
261.52
258.392
255.274
252.168
249.074
245.995
242.93
239.881
236.849
233.834
230.839
227.864
224.909
221.976
219.066
216.179
213.317
210.479
207.667
204.88
202.121
199.389
196.684
194.008
191.361
188.742
186.152
183.592
181.062
178.562
176.092
173.652
171.242
168.864
166.515
164.197
161.91
159.653
157.427
155.231
153.065
150.93
148.825
146.75
144.705
142.69
140.705
138.749
136.823
134.926
133.058
131.22
129.41
127.629
125.877
124.154
122.459
120.792
119.154
117.544
115.963
114.409
112.884
111.387
109.918
108.477
107.065
105.681
104.326
102.999
101.702
100.434
99.1952
97.9867
96.8088
95.6617
94.5462
93.4629
92.4125
91.3958
90.4139
89.4679
88.5589
87.6883
86.8578
86.0691
85.3243
84.6255
83.9753
83.3762
82.8303
82.3387
81.9082
81.5439
81.2519
81.0395
80.9153
80.8896
80.9747
81.1859
81.5417
82.0659
82.7884
83.7484
84.9983
86.6092
88.6806
91.354
94.8342
99.4199
105.547
113.847
125.221
140.945
162.814
193.403
236.568
298.526
390.607
536.705
804.446
1402.66
2658.9
59.3818
61.3546
64.2736
68.5468
74.6094
83.1304
94.6339
109.411
127.555
148.899
172.91
198.826
225.694
252.458
278.083
301.68
322.583
340.398
355.007
366.519
375.205
381.431
385.588
388.051
389.15
389.159
388.298
386.742
384.632
382.082
379.188
376.03
372.677
369.187
365.607
361.977
358.325
354.674
351.043
347.445
343.888
340.381
336.927
333.529
330.189
326.906
323.679
320.506
317.384
314.31
311.281
308.292
305.34
302.422
299.533
296.672
293.833
291.016
288.216
285.431
282.66
279.9
277.149
274.406
271.67
268.939
266.214
263.494
260.778
258.066
255.358
252.655
249.956
247.262
244.574
241.892
239.217
236.549
233.89
231.239
228.599
225.969
223.35
220.744
218.151
215.572
213.007
210.458
207.925
205.409
202.91
200.43
197.968
195.525
193.102
190.699
188.317
185.956
183.616
181.299
179.003
176.73
174.479
172.251
170.046
167.865
165.707
163.572
161.461
159.374
157.311
155.272
153.257
151.265
149.298
147.354
145.435
143.54
141.668
139.821
137.997
136.197
134.421
132.669
130.941
129.236
127.555
125.897
124.264
122.653
121.066
119.503
117.963
116.447
114.955
113.485
112.04
110.618
109.22
107.846
106.496
105.17
103.868
102.591
101.338
100.11
98.9078
97.731
96.5801
95.4557
94.3582
93.288
92.246
91.2327
90.2488
89.2953
88.3731
87.4833
86.627
85.8056
85.0206
84.2737
83.5667
82.9019
82.2814
81.7079
81.1837
80.7102
80.2902
79.9301
79.6353
79.4118
79.2671
79.2097
79.2499
79.4001
79.6754
80.0943
80.6803
81.4629
82.4809
83.7856
85.4468
87.562
90.2701
93.7724
98.3643
104.48
112.751
124.091
139.798
161.714
192.478
236.035
298.684
391.783
538.325
800.95
1329.04
2261.77
20.7182
21.1432
21.6129
22.1669
22.8673
23.8
25.0729
26.8136
29.1704
32.3086
36.486
41.9232
48.814
57.3129
67.5062
79.3559
92.7357
107.404
123.014
139.147
155.344
171.156
186.184
200.109
212.709
223.869
233.561
241.834
248.787
254.545
259.246
263.025
266.003
268.291
269.982
271.157
271.888
272.236
272.254
271.991
271.488
270.782
269.903
268.878
267.729
266.475
265.131
263.711
262.225
260.682
259.089
257.453
255.778
254.07
252.331
250.564
248.772
246.957
245.12
243.262
241.386
239.493
237.582
235.656
233.715
231.761
229.793
227.815
225.825
223.826
221.818
219.802
217.779
215.751
213.718
211.682
209.643
207.603
205.562
203.521
201.482
199.446
197.412
195.383
193.359
191.341
189.329
187.325
185.328
183.341
181.362
179.394
177.436
175.488
173.553
171.629
169.717
167.819
165.933
164.061
162.202
160.357
158.527
156.711
154.91
153.124
151.353
149.598
147.858
146.133
144.425
142.732
141.056
139.396
137.751
136.124
134.513
132.918
131.34
129.778
128.234
126.706
125.195
123.702
122.225
120.765
119.323
117.898
116.49
115.1
113.728
112.373
111.036
109.717
108.417
107.134
105.87
104.625
103.398
102.191
101.003
99.834
98.6852
97.5567
96.4486
95.3615
94.2957
93.2516
92.2298
91.2309
90.2554
89.3039
88.3772
87.4762
86.6016
85.7544
84.9358
84.1468
83.3888
82.6632
81.9717
81.3159
80.698
80.12
79.5845
79.0939
78.6505
78.2547
77.9119
77.6275
77.407
77.2566
77.1836
77.1968
77.3063
77.5246
77.8665
78.3504
78.9995
79.8428
80.9183
82.2762
83.9846
86.1385
88.8729
92.3844
96.962
103.033
111.224
122.446
138.004
159.752
190.348
233.728
296.082
388.314
531.453
778.704
1236.6
1922.95
10.0744
10.1464
10.2196
10.2968
10.3841
10.4907
10.628
10.811
11.0583
11.3933
11.8483
12.4626
13.2843
14.3706
15.789
17.65
20.0506
23.089
26.8634
31.4615
36.9469
43.3478
50.6477
58.7796
67.6262
77.0265
86.7871
96.6978
106.549
116.147
125.327
133.962
141.963
149.283
155.906
161.843
167.124
171.791
175.892
179.476
182.591
185.281
187.59
189.553
191.206
192.578
193.699
194.593
195.283
195.79
196.131
196.323
196.381
196.315
196.138
195.86
195.489
195.032
194.497
193.89
193.217
192.481
191.69
190.845
189.951
189.012
188.031
187.011
185.955
184.865
183.744
182.594
181.417
180.216
178.993
177.749
176.486
175.206
173.91
172.601
171.278
169.945
168.601
167.249
165.889
164.522
163.15
161.773
160.392
159.008
157.623
156.235
154.847
153.459
152.072
150.685
149.3
147.917
146.537
145.159
143.785
142.415
141.049
139.688
138.331
136.98
135.634
134.294
132.961
131.633
130.312
128.998
127.692
126.392
125.1
123.816
122.541
121.273
120.014
118.764
117.522
116.29
115.067
113.854
112.65
111.457
110.273
109.101
107.938
106.787
105.647
104.519
103.402
102.297
101.205
100.125
99.0575
98.0036
96.9631
95.9365
94.9242
93.9265
92.9439
91.9768
91.0257
90.0911
89.1735
88.2735
87.3918
86.529
85.6858
84.863
84.0615
83.2822
82.526
81.794
81.0874
80.4075
79.7558
79.1337
78.5429
77.9854
77.4633
76.9788
76.5344
76.1327
75.7756
75.4629
75.2022
74.9982
74.8564
74.7833
74.786
74.8732
75.0552
75.3441
75.7547
76.3053
77.0184
77.9227
79.0551
80.4645
82.2169
84.4042
87.157
90.6653
95.2092
101.204
109.266
120.291
135.571
156.947
187.041
229.7
290.84
380.555
517.345
743.614
1135.32
1643.69
6.95303
6.92978
6.90753
6.88635
6.86688
6.85016
6.83752
6.83074
6.83214
6.84468
6.87231
6.92
6.99401
7.10209
7.25369
7.46178
7.74179
8.11703
8.6128
9.25857
10.0892
11.1449
12.4706
14.1149
16.1271
18.5537
21.4341
24.7957
28.6492
32.9854
37.7738
42.9623
48.4805
54.2439
60.1594
66.1322
72.0712
77.8941
83.5313
88.9278
94.0432
98.8515
103.339
107.503
111.347
114.881
118.12
121.078
123.772
126.219
128.436
130.439
132.241
133.858
135.302
136.585
137.72
138.716
139.584
140.332
140.969
141.503
141.94
142.287
142.55
142.735
142.846
142.889
142.867
142.785
142.647
142.456
142.216
141.929
141.599
141.228
140.819
140.375
139.897
139.387
138.849
138.282
137.69
137.074
136.434
135.774
135.093
134.394
133.678
132.945
132.196
131.433
130.656
129.867
129.066
128.254
127.431
126.598
125.757
124.907
124.048
123.183
122.311
121.432
120.548
119.658
118.763
117.864
116.961
116.055
115.145
114.232
113.317
112.401
111.482
110.563
109.642
108.722
107.801
106.88
105.96
105.042
104.124
103.209
102.295
101.384
100.476
99.5713
98.6701
97.7731
96.8804
95.9926
95.1101
94.2332
93.3624
92.4981
91.6408
90.7909
89.9489
89.1154
88.2907
87.4755
86.6703
85.8757
85.0923
84.3207
83.5615
82.8156
82.0837
81.3664
80.6648
79.9797
79.312
78.6627
78.0331
77.4242
76.8374
76.2741
75.7357
75.224
74.7407
74.2879
73.8677
73.4825
73.1349
72.8273
72.5611
72.3365
72.1623
72.0431
71.9842
71.9919
72.0737
72.2381
72.4951
72.8569
73.3381
73.9566
74.7344
75.6996
76.888
78.3469
80.14
82.3557
85.1191
88.6125
93.1047
98.9965
106.883
117.637
132.522
153.333
182.619
224.059
283.182
369.044
497.402
700.408
1030.79
1414.55
5.83065
5.78105
5.73259
5.68521
5.63899
5.59406
5.55061
5.50889
5.46923
5.43206
5.39795
5.36764
5.34206
5.32239
5.31007
5.30699
5.31541
5.33862
5.38106
5.44749
5.54367
5.67654
5.85443
6.0873
6.38688
6.76692
7.2433
7.83395
8.55879
9.4392
10.4973
11.7551
13.2324
14.946
16.9073
19.1213
21.5851
24.2875
27.2091
30.3231
33.5967
36.9929
40.4725
43.9962
47.5264
51.0285
54.4722
57.8323
61.0883
64.2246
67.2303
70.0984
72.825
75.409
77.8513
80.1545
82.322
84.3581
86.2676
88.0555
89.727
91.287
92.7408
94.0934
95.3495
96.5138
97.591
98.5852
99.5007
100.341
101.111
101.813
102.451
103.027
103.546
104.01
104.421
104.783
105.096
105.365
105.591
105.775
105.92
106.028
106.1
106.137
106.142
106.116
106.06
105.975
105.862
105.723
105.558
105.369
105.156
104.921
104.664
104.386
104.087
103.769
103.433
103.078
102.706
102.317
101.911
101.491
101.055
100.605
100.141
99.6637
99.1738
98.6717
98.1579
97.6331
97.0977
96.5522
95.9971
95.433
94.8603
94.2797
93.6915
93.0962
92.4945
91.8868
91.2736
90.6554
90.0327
89.4061
88.7761
88.1432
87.5079
86.8708
86.2324
85.5932
84.9539
84.315
83.6771
83.0407
82.4066
81.7752
81.1474
80.5236
79.9046
79.2912
78.6839
78.0837
77.4913
76.9075
76.3332
75.7693
75.2168
74.6767
74.15
73.6379
73.1417
72.6626
72.202
71.7615
71.3426
70.9471
70.577
70.2343
69.9213
69.6404
69.3943
69.1851
69.013
68.8814
68.7978
68.7669
68.7943
68.8861
69.0498
69.2937
69.6279
70.0644
70.6174
71.3045
72.1472
73.1728
74.4159
75.9221
77.7525
79.9914
82.7582
86.2258
90.6502
96.4132
104.084
114.503
128.886
148.962
177.167
216.962
273.402
354.408
473.02
652.628
928.078
1223.03
5.34955
5.29183
5.23524
5.17975
5.12534
5.07205
5.01988
4.96887
4.91906
4.87053
4.82334
4.77761
4.73348
4.69115
4.65086
4.61293
4.57773
4.54593
4.51833
4.49584
4.47953
4.47073
4.47099
4.48217
4.50647
4.54646
4.60516
4.68606
4.79323
4.93135
5.10579
5.32265
5.58877
5.91174
6.29983
6.76186
7.30699
7.94447
8.68325
9.53154
10.4963
11.5828
12.794
14.1305
15.59
17.1674
18.8549
20.6424
22.5175
24.4667
26.4754
28.5287
30.6119
32.7108
34.8124
36.9046
38.9771
41.0207
43.0278
44.9921
46.9087
48.7736
50.584
52.3378
54.0337
55.6709
57.2491
58.7684
60.2292
61.6321
62.9781
64.268
65.503
66.6842
67.8129
68.8903
69.9177
70.8964
71.8277
72.7128
73.5531
74.3497
75.1039
75.8167
76.4894
77.123
77.7185
78.2769
78.7993
79.2865
79.7394
80.1589
80.5459
80.901
81.2252
81.519
81.7834
82.0188
82.2261
82.406
82.5589
82.6857
82.7868
82.863
82.9148
82.9429
82.9478
82.9302
82.8905
82.8295
82.7476
82.6455
82.5238
82.383
82.2237
82.0465
81.852
81.6407
81.4133
81.1703
80.9123
80.64
80.3539
80.0545
79.7426
79.4188
79.0835
78.7376
78.3815
78.0159
77.6415
77.2589
76.8687
76.4716
76.0684
75.6596
75.246
74.8282
74.407
73.9832
73.5574
73.1305
72.7033
72.2765
71.851
71.4277
71.0076
70.5914
70.1803
69.7751
69.3771
68.9873
68.607
68.2372
67.8795
67.5351
67.2057
66.8927
66.5979
66.3231
66.0705
65.8421
65.6403
65.4676
65.3265
65.2189
65.1434
65.1083
65.1185
65.1789
65.2951
65.4734
65.7209
66.0461
66.459
66.9711
67.5965
68.3524
69.2597
70.3446
71.6407
73.1916
75.0556
77.3127
80.0757
83.5078
87.85
93.4626
100.884
110.911
124.702
143.897
170.793
208.592
261.836
337.302
445.503
602.842
830.855
1061.03
5.12004
5.05951
5.00011
4.94182
4.8846
4.82844
4.77335
4.7193
4.6663
4.61435
4.56343
4.51357
4.46476
4.41703
4.37041
4.32493
4.28066
4.23777
4.19638
4.15668
4.11889
4.08328
4.0502
4.02004
3.99329
3.97052
3.9524
3.93971
3.93332
3.93427
3.94372
3.96298
3.99356
4.03712
4.09554
4.17091
4.26557
4.38207
4.52323
4.69211
4.89198
5.12634
5.39881
5.71316
6.07313
6.48241
6.94451
7.46263
8.03956
8.67752
9.37807
10.142
10.9694
11.8593
12.8101
13.8192
14.8835
15.999
17.1613
18.3657
19.6069
20.8799
22.1794
23.5001
24.8369
26.1852
27.5402
28.8978
30.2541
31.6055
32.9487
34.2808
35.5993
36.9017
38.1861
39.4506
40.6937
41.914
43.1101
44.2812
45.4263
46.5446
47.6354
48.6982
49.7325
50.738
51.7142
52.661
53.5781
54.4654
55.3228
56.1502
56.9476
57.7151
58.4527
59.1604
59.8385
60.4869
61.1059
61.6957
62.2564
62.7883
63.2917
63.7669
64.2141
64.6336
65.0259
65.3912
65.7299
66.0425
66.3293
66.5908
66.8275
67.0397
67.228
67.3929
67.5348
67.6543
67.7519
67.8282
67.8838
67.9191
67.9349
67.9316
67.9099
67.8705
67.8139
67.7408
67.6519
67.5478
67.4292
67.2969
67.1514
66.9935
66.824
66.6436
66.4531
66.2532
66.0448
65.8286
65.6054
65.3762
65.1418
64.9031
64.661
64.4165
64.1706
63.9243
63.6787
63.4348
63.1939
62.9571
62.7257
62.5011
62.2846
62.0778
61.8822
61.6995
61.5316
61.3803
61.2477
61.1362
61.048
60.9858
60.9519
60.9476
60.9716
61.0344
61.1401
61.2935
61.5001
61.766
62.0985
62.5059
62.9978
63.5857
64.2834
65.1074
66.0781
67.2207
68.5675
70.16
72.0536
74.3238
77.0764
80.464
84.7116
90.1554
97.2991
106.89
120.015
138.213
163.619
199.154
248.838
318.361
416.004
552.862
741.048
923.166
5.00448
4.94283
4.88233
4.82295
4.76464
4.7074
4.65121
4.59605
4.54189
4.48873
4.43655
4.38533
4.33506
4.28572
4.23731
4.1898
4.14322
4.09759
4.05292
4.00923
3.96657
3.92497
3.88452
3.84528
3.80738
3.77093
3.7361
3.70307
3.67207
3.64333
3.61717
3.5939
3.5739
3.5576
3.54547
3.53802
3.53585
3.53957
3.54989
3.56757
3.59344
3.6284
3.67343
3.72958
3.79799
3.87988
3.97656
4.08941
4.21992
4.36963
4.54015
4.73313
4.95029
5.19335
5.464
5.76395
6.0948
6.45807
6.85518
7.28736
7.75565
8.26089
8.80367
9.38429
10.0028
10.6589
11.3521
12.0816
12.8462
13.6445
14.4751
15.3359
16.2251
17.1404
18.0797
19.0404
20.0202
21.0167
22.0272
23.0495
24.0809
25.1191
26.1619
27.2069
28.2519
29.295
30.334
31.3671
32.3924
33.4084
34.4133
35.4056
36.3839
37.3469
38.2934
39.2222
40.1323
41.0227
41.8925
42.741
43.5673
44.371
45.1513
45.9078
46.6401
47.3478
48.0306
48.6883
49.3206
49.9276
50.509
51.065
51.5954
52.1004
52.5802
53.0348
53.4645
53.8695
54.2502
54.6068
54.9396
55.2491
55.5357
55.7997
56.0418
56.2623
56.4618
56.6409
56.8001
56.94
57.0613
57.1646
57.2505
57.3197
57.373
57.4111
57.4347
57.4447
57.4417
57.4267
57.4005
57.3639
57.318
57.2635
57.2015
57.133
57.0589
56.9805
56.8987
56.8148
56.7299
56.6454
56.5625
56.4827
56.4074
56.3381
56.2766
56.2245
56.1837
56.1563
56.1443
56.1501
56.1761
56.2248
56.2983
56.3964
56.5215
56.6828
56.8845
57.1311
57.4282
57.7819
58.1992
58.6883
59.2587
59.9216
60.6903
61.5809
62.613
63.8109
65.2053
66.8358
68.7545
71.0324
73.768
77.103
81.2455
86.5059
93.3501
102.47
114.874
131.989
155.771
188.857
234.755
298.17
385.491
503.928
659.29
805.25
4.94522
4.88304
4.82203
4.76214
4.70336
4.64565
4.58899
4.53336
4.47874
4.4251
4.37243
4.32071
4.26991
4.22002
4.17101
4.12287
4.07559
4.02917
3.98359
3.93884
3.89491
3.8518
3.80953
3.76808
3.72749
3.68776
3.64893
3.61104
3.57414
3.53827
3.50353
3.46998
3.43772
3.40687
3.37756
3.34992
3.32411
3.30032
3.27874
3.25957
3.24306
3.22945
3.21901
3.21204
3.20886
3.2098
3.21522
3.22551
3.24109
3.26242
3.28997
3.32426
3.36586
3.41536
3.47342
3.54073
3.61805
3.70618
3.80599
3.91841
4.04441
4.18504
4.3414
4.51463
4.70593
4.91651
5.14764
5.40058
5.67657
5.97686
6.30262
6.65497
7.03495
7.44348
7.88131
8.34909
8.84725
9.37602
9.93546
10.5254
11.1453
11.7947
12.4727
13.1782
13.9099
14.6664
15.446
16.2471
17.0677
17.9058
18.7594
19.6264
20.5047
21.392
22.2863
23.1854
24.0872
24.9897
25.891
26.7891
27.6822
28.5686
29.4465
30.3146
31.1712
32.015
32.8447
33.6592
34.4574
35.2383
36.001
36.7447
37.4687
38.1724
38.8552
39.5166
40.1564
40.7741
41.3695
41.9425
42.4929
43.0208
43.526
44.0088
44.4692
44.9074
45.3236
45.7182
46.0914
46.4436
46.7753
47.0869
47.3788
47.6517
47.9061
48.1425
48.3617
48.5643
48.7511
48.9227
49.08
49.2238
49.355
49.4744
49.583
49.6817
49.7716
49.8538
49.9293
49.9993
50.0651
50.1278
50.1889
50.2498
50.3119
50.3769
50.4463
50.522
50.6059
50.6999
50.8063
50.9274
51.0656
51.2233
51.4022
51.5995
51.8253
52.0842
52.3806
52.7192
53.1054
53.5453
54.0458
54.6148
55.2616
55.9972
56.8345
57.7889
58.8794
60.1291
61.5672
63.2312
65.1701
67.4499
70.1621
73.4371
77.4655
82.5313
89.0605
97.6866
109.333
125.305
147.38
177.907
219.915
277.25
354.746
456.863
585.438
703.825
4.91498
4.85251
4.79121
4.73106
4.67203
4.61408
4.5572
4.50135
4.44651
4.39266
4.33979
4.28785
4.23684
4.18673
4.1375
4.08914
4.04163
3.99495
3.94908
3.90401
3.85972
3.81619
3.77342
3.7314
3.69011
3.64955
3.60972
3.57061
3.53223
3.49458
3.45767
3.42152
3.38614
3.35157
3.31782
3.28494
3.25296
3.22193
3.19191
3.16295
3.13512
3.10849
3.08315
3.05917
3.03666
3.01571
2.99644
2.97896
2.96339
2.94987
2.93855
2.92958
2.92312
2.91936
2.91848
2.9207
2.92624
2.93536
2.94833
2.96544
2.98701
3.01342
3.04506
3.08236
3.1258
3.1759
3.23326
3.29849
3.37229
3.45542
3.54868
3.65296
3.76921
3.89842
4.04168
4.2001
4.37485
4.56714
4.7782
5.00928
5.26162
5.53641
5.83482
6.15794
6.50674
6.88209
7.28469
7.71509
8.17364
8.66048
9.17552
9.71847
10.2888
10.8857
11.5082
12.1552
12.8252
13.5168
14.2281
14.9575
15.703
16.4625
17.2342
18.0159
18.8055
19.6011
20.4005
21.2018
22.0031
22.8025
23.5983
24.3888
25.1723
25.9474
26.7127
27.4669
28.2088
28.9372
29.6512
30.3499
31.0325
31.6982
32.3465
32.9769
33.5888
34.182
34.7561
35.311
35.8466
36.3627
36.8595
37.337
37.7954
38.2349
38.6558
39.0584
39.4431
39.8104
40.1607
40.4947
40.8129
41.116
41.4046
41.6797
41.9419
42.1922
42.4314
42.6606
42.8807
43.093
43.2985
43.4984
43.6942
43.887
44.0785
44.27
44.4634
44.6603
44.8627
45.0724
45.2918
45.523
45.7685
46.0305
46.3095
46.604
46.9259
47.2785
47.6661
48.0932
48.5651
49.0877
49.6678
50.3132
51.0329
51.8375
52.7394
53.7535
54.8978
56.1946
57.6714
59.3635
61.3168
63.5923
66.2745
69.4824
73.3892
78.2523
84.4566
92.5754
103.445
118.245
138.571
166.498
204.618
256.044
324.373
412.183
518.976
616.062
4.89985
4.8372
4.77575
4.71544
4.65627
4.59819
4.54118
4.48522
4.43027
4.37632
4.32334
4.27131
4.2202
4.17
4.12069
4.07224
4.02464
3.97787
3.9319
3.88673
3.84232
3.79867
3.75577
3.71358
3.67211
3.63133
3.59124
3.55182
3.51307
3.47497
3.43751
3.4007
3.36453
3.329
3.2941
3.25984
3.22623
3.19327
3.16097
3.12934
3.0984
3.06817
3.03866
3.00989
2.9819
2.95471
2.92835
2.90286
2.87827
2.85462
2.83196
2.81033
2.78978
2.77037
2.75216
2.7352
2.71957
2.70535
2.69261
2.68145
2.67196
2.66426
2.65847
2.65473
2.65317
2.65398
2.65734
2.66344
2.67254
2.68489
2.70077
2.72051
2.74446
2.77304
2.80668
2.84587
2.89117
2.94316
3.0025
3.06992
3.14621
3.2322
3.32882
3.43704
3.55791
3.69253
3.84204
4.00763
4.19051
4.39191
4.61303
4.85506
5.11913
5.40627
5.71745
6.05346
6.41496
6.80242
7.21612
7.65611
8.12225
8.61412
9.13113
9.67242
10.237
10.8235
11.4306
12.0568
12.7002
13.3593
14.0321
14.7166
15.411
16.1133
16.8216
17.5341
18.2487
18.9639
19.6778
20.3889
21.0955
21.7963
22.4899
23.1751
23.8506
24.5155
25.1688
25.8097
26.4374
27.0512
27.6508
28.2355
28.805
29.3591
29.8977
30.4205
30.9276
31.419
31.895
32.3556
32.8013
33.2324
33.6493
34.0526
34.4427
34.8205
35.1865
35.5417
35.8868
36.2228
36.5508
36.8718
37.1869
37.4975
37.805
38.1107
38.4162
38.7233
39.0337
39.3493
39.6723
40.0049
40.3493
40.7073
41.0763
41.4634
41.8752
42.3154
42.788
43.2976
43.8494
44.449
45.1031
45.8193
46.6062
47.474
48.4347
49.5026
50.6949
52.0326
53.5417
55.2553
57.216
59.4804
62.1254
65.2593
69.0383
73.6929
79.5676
87.1751
97.2635
110.887
129.464
154.809
189.127
234.919
294.828
370.181
459.245
539.665
4.89249
4.82974
4.76818
4.70779
4.64854
4.59038
4.53331
4.47728
4.42228
4.36827
4.31525
4.26317
4.21202
4.16179
4.11244
4.06395
4.01632
3.96951
3.92351
3.8783
3.83386
3.79018
3.74723
3.70501
3.66349
3.62265
3.5825
3.54301
3.50416
3.46595
3.42837
3.3914
3.35503
3.31926
3.28407
3.24946
3.21543
3.18196
3.14906
3.11671
3.08493
3.0537
3.02303
2.99291
2.96337
2.93438
2.90597
2.87813
2.85088
2.82422
2.79816
2.77271
2.74789
2.72371
2.70018
2.67733
2.65517
2.63371
2.61299
2.59303
2.57386
2.55551
2.53801
2.52141
2.50575
2.49108
2.47745
2.46494
2.4536
2.44353
2.43481
2.42755
2.42185
2.41787
2.41573
2.41561
2.4177
2.4222
2.42936
2.43944
2.45274
2.46959
2.49038
2.5155
2.54543
2.58069
2.62183
2.66948
2.72433
2.78713
2.85869
2.93988
3.03165
3.13501
3.25099
3.38072
3.52532
3.68595
3.86379
4.05999
4.27565
4.51184
4.76953
5.04958
5.35269
5.67944
6.0302
6.40513
6.80421
7.22719
7.6736
8.14274
8.63373
9.14549
9.67678
10.2262
10.7923
11.3733
11.9677
12.5737
13.1895
13.8133
14.4435
15.0783
15.716
16.355
16.9938
17.631
18.2652
18.8951
19.5195
20.1374
20.7478
21.3499
21.9429
22.5261
23.099
23.6612
24.2123
24.7521
25.2803
25.797
26.3023
26.7961
27.2788
27.7507
28.2122
28.6638
29.1061
29.5397
29.9655
30.3843
30.7971
31.2049
31.609
32.0105
32.411
32.8119
33.2149
33.6219
34.0347
34.4555
34.8862
35.3276
35.7769
36.2458
36.7376
37.2557
37.8043
38.3875
39.0105
39.6787
40.3986
41.1773
42.0234
42.9465
43.9582
45.0721
46.3043
47.6749
49.2083
50.9353
52.8953
55.1404
57.7406
60.7935
64.4387
68.8811
74.4256
81.5254
90.8419
103.307
120.167
142.999
173.666
214.172
266.436
330.993
405.568
472.781
4.889
4.82619
4.76459
4.70415
4.64485
4.58666
4.52955
4.47349
4.41846
4.36443
4.31138
4.25928
4.20812
4.15787
4.1085
4.06001
4.01236
3.96554
3.91954
3.87432
3.82987
3.78618
3.74322
3.70099
3.65946
3.61862
3.57846
3.53895
3.50009
3.46186
3.42425
3.38724
3.35084
3.31501
3.27976
3.24507
3.21093
3.17734
3.14428
3.11175
3.07975
3.04825
3.01727
2.98679
2.9568
2.92731
2.8983
2.86979
2.84175
2.8142
2.78712
2.76053
2.73441
2.70876
2.68359
2.6589
2.63469
2.61096
2.58772
2.56497
2.5427
2.52094
2.49968
2.47894
2.45873
2.43905
2.41992
2.40136
2.38339
2.36602
2.34929
2.33322
2.31785
2.30322
2.28937
2.27636
2.26424
2.25308
2.24295
2.23396
2.22619
2.21976
2.21479
2.21145
2.20988
2.21028
2.21286
2.21785
2.22553
2.2362
2.25019