/*--------------------------------*- C++ -*----------------------------------*\
| =========                 |                                                 |
| \\      /  F ield         | OpenFOAM: The Open Source CFD Toolbox           |
|  \\    /   O peration     | Version:  2.4.0                                 |
|   \\  /    A nd           | Web:      www.OpenFOAM.org                      |
|    \\/     M anipulation  |                                                 |
\*---------------------------------------------------------------------------*/
FoamFile
{
    version     2.0;
    format      ascii;
    class       volScalarField;
    location    "0.012";
    object      nuSgs;
}
// * * * * * * * * * * * * * * * * * * * * * * * * * * * * * * * * * * * * * //

dimensions      [0 2 -1 0 0 0 0];

internalField   nonuniform List<scalar> 
17600
(
0.00101328
0.000905692
0.000748463
0.000660609
0.000613054
0.000569154
0.000541494
0.000538241
0.000546034
0.000548887
0.000545539
0.000545864
0.000542152
0.000547948
0.000546106
0.000542552
0.000558331
0.000534592
0.000565571
0.00056615
0.000705842
0.000829135
0.000800594
0.00074654
0.000703158
0.000658579
0.000628487
0.000618682
0.0006204
0.000621924
0.000619966
0.000620692
0.000616514
0.000621229
0.000620333
0.00061475
0.000632821
0.000610049
0.000637081
0.000639645
0.000381874
0.000604844
0.000662468
0.000659068
0.00064621
0.000619863
0.000595723
0.00057974
0.000574374
0.000573969
0.00057264
0.000572939
0.000569345
0.000571137
0.000572064
0.000565685
0.000579159
0.000566112
0.000578431
0.000581096
0.00015125
0.000366807
0.000462176
0.000501136
0.000524789
0.000528697
0.000522818
0.000507899
0.000496307
0.000493571
0.000492122
0.000491224
0.000488358
0.000486907
0.000488565
0.000484371
0.000487885
0.000488605
0.000487141
0.000487873
5.35546e-05
0.000175616
0.000273866
0.000319271
0.000362701
0.000401563
0.000411627
0.000407242
0.000395344
0.00039051
0.000389435
0.000385079
0.000383887
0.000379063
0.000379559
0.000379629
0.000373626
0.000382693
0.000373202
0.000377206
1.73706e-05
7.23659e-05
0.000137208
0.000169474
0.000200377
0.000256704
0.000282468
0.000281894
0.000275729
0.000269264
0.000268325
0.000260678
0.00025879
0.000250531
0.00025035
0.000250426
0.000242626
0.000250327
0.000237001
0.000252096
5.53598e-06
2.80782e-05
6.0129e-05
7.59447e-05
9.35365e-05
0.000133874
0.000161853
0.000161653
0.000157825
0.000150331
0.000147659
0.000136975
0.000132125
0.00012204
0.000119873
0.000118868
0.000113582
0.000115389
0.000108338
0.000129172
2.30885e-06
1.07864e-05
2.48467e-05
3.03956e-05
3.78209e-05
5.91159e-05
7.63766e-05
7.54789e-05
7.13811e-05
6.4623e-05
5.95797e-05
4.96507e-05
4.45699e-05
3.62992e-05
3.52922e-05
3.38798e-05
3.06209e-05
3.16469e-05
2.957e-05
4.29486e-05
1.7379e-06
4.59552e-06
1.05702e-05
1.20299e-05
1.41026e-05
2.29369e-05
3.0203e-05
2.92494e-05
2.6031e-05
2.14631e-05
1.80468e-05
1.33167e-05
1.03749e-05
6.99149e-06
6.56052e-06
5.6825e-06
4.65081e-06
5.33865e-06
4.67828e-06
7.87299e-06
1.6463e-06
2.64177e-06
5.03416e-06
5.28755e-06
5.62595e-06
8.62641e-06
1.10234e-05
1.05825e-05
9.0041e-06
7.25742e-06
5.87291e-06
4.37615e-06
3.34756e-06
2.36506e-06
1.83424e-06
1.33835e-06
9.1714e-07
8.60558e-07
6.48871e-07
1.27654e-06
1.60558e-06
2.09129e-06
3.11611e-06
3.1712e-06
3.2275e-06
4.07442e-06
4.87244e-06
4.75922e-06
4.406e-06
3.94013e-06
3.58057e-06
3.1011e-06
2.56213e-06
2.03793e-06
1.54615e-06
1.1249e-06
7.9565e-07
5.39328e-07
3.75141e-07
6.03643e-07
1.57766e-06
1.93537e-06
2.57041e-06
2.64986e-06
2.67852e-06
2.91096e-06
3.34042e-06
3.38036e-06
3.3468e-06
3.22735e-06
3.13627e-06
2.89056e-06
2.48337e-06
2.00157e-06
1.51778e-06
1.12361e-06
8.0211e-07
5.3766e-07
3.65457e-07
6.76957e-07
1.55647e-06
1.86381e-06
2.36495e-06
2.47553e-06
2.4856e-06
2.56458e-06
2.86729e-06
2.98182e-06
2.98193e-06
2.9473e-06
2.8886e-06
2.7735e-06
2.45833e-06
1.98486e-06
1.51233e-06
1.10768e-06
7.69035e-07
4.98831e-07
3.82136e-07
7.19306e-07
1.54041e-06
1.80886e-06
2.22816e-06
2.33697e-06
2.34382e-06
2.3888e-06
2.59564e-06
2.74091e-06
2.75966e-06
2.74506e-06
2.72076e-06
2.65344e-06
2.44636e-06
1.99134e-06
1.51408e-06
1.09451e-06
7.75643e-07
5.2201e-07
3.4203e-07
8.12538e-07
1.52834e-06
1.76804e-06
2.12564e-06
2.22392e-06
2.22889e-06
2.25955e-06
2.39283e-06
2.54508e-06
2.59922e-06
2.59931e-06
2.59373e-06
2.55787e-06
2.42785e-06
1.99543e-06
1.51019e-06
1.10037e-06
7.652e-07
4.97469e-07
3.484e-07
5.49213e-07
1.51945e-06
1.73755e-06
2.05425e-06
2.1371e-06
2.13962e-06
2.15844e-06
2.23675e-06
2.38093e-06
2.47728e-06
2.49958e-06
2.50536e-06
2.48767e-06
2.3919e-06
2.00123e-06
1.51262e-06
1.0942e-06
7.55406e-07
5.09889e-07
3.25655e-07
5.80883e-07
1.51302e-06
1.71596e-06
2.00521e-06
2.07233e-06
2.07145e-06
2.0817e-06
2.12472e-06
2.25068e-06
2.37936e-06
2.43399e-06
2.44933e-06
2.43715e-06
2.36103e-06
2.00361e-06
1.51025e-06
1.0914e-06
7.56416e-07
5.02156e-07
3.12741e-07
5.84222e-07
1.50857e-06
1.70135e-06
1.9721e-06
2.02585e-06
2.0225e-06
2.02608e-06
2.05154e-06
2.15219e-06
2.3077e-06
2.38749e-06
2.412e-06
2.4047e-06
2.33823e-06
2.00189e-06
1.51024e-06
1.09057e-06
7.53825e-07
5.03035e-07
3.15254e-07
3.36391e-07
1.50578e-06
1.68905e-06
1.95094e-06
1.99754e-06
1.99259e-06
1.99206e-06
2.00623e-06
2.08694e-06
2.25963e-06
2.35792e-06
2.38976e-06
2.38437e-06
2.32392e-06
2.0005e-06
1.50909e-06
1.08892e-06
7.52158e-07
5.05971e-07
3.04906e-07
3.0684e-07
1.50444e-06
1.68237e-06
1.94015e-06
1.98382e-06
1.97843e-06
1.97565e-06
1.98486e-06
2.05588e-06
2.23493e-06
2.34362e-06
2.37876e-06
2.37478e-06
2.31692e-06
1.99967e-06
1.50899e-06
1.08788e-06
7.52466e-07
5.03707e-07
3.03652e-07
3.31328e-07
1.50444e-06
1.68238e-06
1.94012e-06
1.98383e-06
1.97842e-06
1.97572e-06
1.98469e-06
2.0563e-06
2.23437e-06
2.34381e-06
2.37852e-06
2.37466e-06
2.31677e-06
1.99943e-06
1.50875e-06
1.08725e-06
7.52156e-07
5.02604e-07
3.13861e-07
2.6355e-07
1.50579e-06
1.68905e-06
1.95088e-06
1.9976e-06
1.99261e-06
1.9922e-06
2.00567e-06
2.08872e-06
2.25752e-06
2.35874e-06
2.38885e-06
2.38403e-06
2.32359e-06
1.99983e-06
1.50906e-06
1.08697e-06
7.52023e-07
5.04495e-07
3.03826e-07
2.61794e-07
1.50858e-06
1.70132e-06
1.97197e-06
2.02598e-06
2.02254e-06
2.02642e-06
2.05032e-06
2.15503e-06
2.30425e-06
2.38881e-06
2.41092e-06
2.40394e-06
2.33749e-06
2.00076e-06
1.50967e-06
1.08683e-06
7.52786e-07
5.02131e-07
3.12105e-07
2.72033e-07
1.51303e-06
1.71588e-06
2.00508e-06
2.0725e-06
2.07156e-06
2.08201e-06
2.12239e-06
2.25487e-06
2.37519e-06
2.43554e-06
2.44715e-06
2.4365e-06
2.3596e-06
2.00085e-06
1.51007e-06
1.0871e-06
7.53192e-07
5.03315e-07
3.09495e-07
2.38848e-07
1.51946e-06
1.73751e-06
2.05399e-06
2.13737e-06
2.13965e-06
2.15922e-06
2.23038e-06
2.38894e-06
2.47153e-06
2.50203e-06
2.50358e-06
2.48585e-06
2.38979e-06
1.99827e-06
1.50993e-06
1.0873e-06
7.53832e-07
5.02723e-07
3.10569e-07
2.64254e-07
1.52836e-06
1.76787e-06
2.12548e-06
2.22414e-06
2.22913e-06
2.26004e-06
2.38559e-06
2.55376e-06
2.5944e-06
2.59852e-06
2.59155e-06
2.55671e-06
2.42323e-06
1.98877e-06
1.50815e-06
1.08708e-06
7.54305e-07
5.03532e-07
3.13508e-07
2.34536e-07
1.54042e-06
1.80883e-06
2.22782e-06
2.33735e-06
2.34379e-06
2.39018e-06
2.58937e-06
2.74679e-06
2.75577e-06
2.74708e-06
2.71776e-06
2.64925e-06
2.44293e-06
1.97972e-06
1.50559e-06
1.08659e-06
7.54768e-07
5.03778e-07
3.10802e-07
2.50814e-07
1.55651e-06
1.86371e-06
2.36477e-06
2.47584e-06
2.48596e-06
2.56626e-06
2.85891e-06
2.98845e-06
2.98107e-06
2.94497e-06
2.88478e-06
2.7693e-06
2.45054e-06
1.97705e-06
1.5046e-06
1.08679e-06
7.55469e-07
5.03937e-07
3.15129e-07
2.42305e-07
1.57765e-06
1.93571e-06
2.57149e-06
2.6501e-06
2.67819e-06
2.91569e-06
3.33485e-06
3.38379e-06
3.33946e-06
3.23922e-06
3.13115e-06
2.88546e-06
2.47004e-06
1.98404e-06
1.50735e-06
1.08815e-06
7.57082e-07
5.04452e-07
3.13506e-07
2.88309e-07
1.60557e-06
2.09298e-06
3.11985e-06
3.17416e-06
3.22813e-06
4.08952e-06
4.85665e-06
4.7672e-06
4.38634e-06
3.9766e-06
3.56847e-06
3.09114e-06
2.56143e-06
2.01869e-06
1.52752e-06
1.09544e-06
7.73927e-07
5.23824e-07
4.98044e-07
7.13454e-07
1.64609e-06
2.64459e-06
5.0461e-06
5.29605e-06
5.63056e-06
8.64274e-06
1.10249e-05
1.05907e-05
9.00129e-06
7.33683e-06
5.85339e-06
4.47439e-06
3.35963e-06
2.38075e-06
1.9362e-06
1.32957e-06
1.33713e-06
1.50351e-06
1.97011e-06
3.39811e-06
1.73739e-06
4.59962e-06
1.05865e-05
1.2048e-05
1.41098e-05
2.29991e-05
3.01799e-05
2.92884e-05
2.59469e-05
2.18498e-05
1.79099e-05
1.38615e-05
1.0569e-05
7.42489e-06
7.27262e-06
6.58172e-06
7.26278e-06
8.49617e-06
1.05431e-05
1.59242e-05
2.30725e-06
1.07909e-05
2.4874e-05
3.04104e-05
3.7835e-05
5.91667e-05
7.63914e-05
7.55499e-05
7.12398e-05
6.53654e-05
5.90228e-05
5.13808e-05
4.46024e-05
3.77855e-05
3.7828e-05
3.66392e-05
3.82168e-05
4.13259e-05
4.60187e-05
5.86554e-05
5.53276e-06
2.80836e-05
6.01705e-05
7.59401e-05
9.35477e-05
0.000133983
0.00016179
0.000161826
0.000157228
0.000152027
0.000147043
0.000139096
0.000132041
0.000124378
0.0001248
0.000123854
0.000125559
0.000130437
0.000136515
0.00015465
1.73681e-05
7.23697e-05
0.000137244
0.000169463
0.000200396
0.00025676
0.000282454
0.000282057
0.000275432
0.00027049
0.000268197
0.000262991
0.000258694
0.000253993
0.000255005
0.000254841
0.00025636
0.000261693
0.000266742
0.000282887
5.35573e-05
0.000175618
0.000273888
0.000319257
0.000362753
0.000401524
0.000411716
0.000407284
0.000395495
0.00039075
0.000389451
0.000386765
0.000383797
0.000381694
0.000382614
0.000382472
0.000383957
0.000387877
0.000390811
0.000401725
0.000151253
0.000366818
0.000462168
0.000501161
0.000524771
0.000528731
0.000522817
0.000507916
0.000496414
0.000493443
0.000492663
0.000491394
0.000488706
0.000488116
0.000488389
0.000487629
0.000489534
0.00048918
0.00049036
0.000494639
0.000381874
0.000604851
0.000662459
0.00065908
0.000646188
0.000619929
0.000595575
0.000579848
0.000574306
0.000573764
0.000573159
0.000572167
0.000569607
0.000569874
0.000569211
0.000567435
0.000568698
0.000563226
0.000564219
0.000559219
0.000705838
0.000829141
0.000800575
0.000746566
0.000703085
0.000658665
0.000628282
0.000618745
0.000620196
0.000621536
0.000620216
0.000618808
0.000616347
0.000617248
0.000614921
0.000612727
0.000612254
0.000601132
0.000601621
0.000583974
0.00101327
0.000905697
0.000748441
0.000660627
0.000612975
0.000569211
0.000541288
0.000538211
0.000545747
0.00054827
0.000545405
0.000543248
0.000541212
0.000542479
0.000538924
0.000536404
0.000533996
0.000519895
0.000518466
0.000485762
0.000261152
0.000174763
0.000140982
0.00012965
0.000124605
0.000138256
0.000145304
0.000129144
0.000120997
0.000133042
0.000137061
0.000123272
8.60206e-05
5.57485e-05
3.52612e-05
2.29773e-05
1.83304e-05
1.84076e-05
1.86445e-05
1.85208e-05
1.85694e-05
1.94149e-05
1.96859e-05
1.85711e-05
1.53872e-05
1.22163e-05
9.42665e-06
7.12672e-06
5.33098e-06
3.99189e-06
3.01897e-06
2.31657e-06
1.80319e-06
1.41992e-06
1.12828e-06
9.02471e-07
7.2531e-07
5.8511e-07
4.73482e-07
3.84178e-07
3.12444e-07
2.5462e-07
2.07861e-07
1.69942e-07
1.39117e-07
1.14005e-07
9.35103e-08
7.67585e-08
6.30474e-08
5.18133e-08
4.26008e-08
3.50399e-08
2.88302e-08
2.37278e-08
1.95337e-08
1.60846e-08
1.3247e-08
1.09121e-08
8.99058e-09
7.40869e-09
6.10602e-09
5.03324e-09
4.14977e-09
3.42197e-09
2.82224e-09
2.32807e-09
1.92091e-09
1.58534e-09
1.30867e-09
1.08058e-09
8.92577e-10
7.37553e-10
6.09665e-10
5.04191e-10
4.17226e-10
3.45482e-10
2.86258e-10
2.37388e-10
1.97079e-10
1.63808e-10
1.36322e-10
1.13629e-10
9.49084e-11
7.94512e-11
6.66756e-11
5.61266e-11
4.7427e-11
4.02452e-11
3.43072e-11
2.94044e-11
2.53642e-11
2.20301e-11
1.92724e-11
1.69959e-11
1.51237e-11
1.35811e-11
1.23057e-11
1.12556e-11
1.03958e-11
9.69009e-12
9.11016e-12
8.63349e-12
8.24452e-12
7.93671e-12
7.6862e-12
7.47588e-12
7.32676e-12
7.22221e-12
7.1283e-12
7.07685e-12
7.07379e-12
7.08335e-12
7.11134e-12
7.1731e-12
7.27493e-12
7.4152e-12
7.59324e-12
7.81115e-12
8.09672e-12
8.44471e-12
8.87652e-12
9.37569e-12
1.0026e-11
1.07764e-11
1.17359e-11
1.28029e-11
1.42259e-11
1.58071e-11
1.79068e-11
2.01191e-11
2.33047e-11
2.64156e-11
3.13912e-11
3.54121e-11
4.31334e-11
4.90707e-11
5.99806e-11
6.88366e-11
8.48242e-11
9.77442e-11
1.21207e-10
1.40121e-10
1.74275e-10
2.02115e-10
2.52092e-10
2.92787e-10
3.65838e-10
4.25847e-10
5.27161e-10
6.3657e-10
7.40287e-10
9.39031e-10
1.11413e-09
1.31649e-09
1.6396e-09
1.96807e-09
2.36835e-09
2.88615e-09
3.48515e-09
4.23895e-09
5.1451e-09
6.19989e-09
7.69925e-09
9.0519e-09
1.1535e-08
1.35112e-08
1.71604e-08
2.02599e-08
2.54883e-08
3.12116e-08
3.67625e-08
4.79613e-08
5.53626e-08
7.00583e-08
8.03278e-08
9.64909e-08
1.20202e-07
1.28497e-07
2.10705e-07
2.23099e-07
5.82791e-07
6.92622e-07
1.68858e-06
1.65372e-06
2.31444e-06
2.22146e-06
2.89496e-06
2.85385e-06
3.20463e-06
3.31234e-06
3.68705e-06
4.135e-06
4.26568e-06
5.3364e-06
6.07076e-06
7.56124e-06
9.88896e-06
1.42071e-05
3.06983e-05
0.000140993
0.000310225
0.000241886
0.000182311
0.000149635
0.000152372
0.00018021
0.00017105
0.000139862
0.000137595
0.000147497
0.000142199
0.000109007
6.84654e-05
3.88342e-05
2.50062e-05
2.01296e-05
1.73116e-05
1.68922e-05
1.80503e-05
1.84434e-05
1.84336e-05
1.8582e-05
1.88082e-05
1.84539e-05
1.57157e-05
1.23284e-05
9.4376e-06
7.11781e-06
5.32794e-06
3.99282e-06
3.02081e-06
2.31859e-06
1.80596e-06
1.42419e-06
1.13301e-06
9.06986e-07
7.29307e-07
5.88467e-07
4.76199e-07
3.8632e-07
3.14102e-07
2.55886e-07
2.08819e-07
1.70661e-07
1.39654e-07
1.14404e-07
9.38061e-08
7.69767e-08
6.32082e-08
5.19317e-08
4.26879e-08
3.51037e-08
2.8877e-08
2.37622e-08
1.95589e-08
1.6103e-08
1.32604e-08
1.09219e-08
8.99772e-09
7.41386e-09
6.10978e-09
5.03603e-09
4.15186e-09
3.42354e-09
2.82344e-09
2.32903e-09
1.92168e-09
1.58594e-09
1.30915e-09
1.08098e-09
8.92905e-10
7.37804e-10
6.09849e-10
5.04321e-10
4.17309e-10
3.45519e-10
2.86258e-10
2.37368e-10
1.97049e-10
1.63774e-10
1.36294e-10
1.13616e-10
9.49131e-11
7.9472e-11
6.67102e-11
5.61713e-11
4.74764e-11
4.02936e-11
3.43511e-11
2.94409e-11
2.53926e-11
2.20518e-11
1.92889e-11
1.7007e-11
1.51298e-11
1.35873e-11
1.23116e-11
1.12569e-11
1.03951e-11
9.69004e-12
9.10865e-12
8.63023e-12
8.2429e-12
7.93805e-12
7.68848e-12
7.47961e-12
7.33133e-12
7.22577e-12
7.13127e-12
7.07811e-12
7.07418e-12
7.08329e-12
7.11234e-12
7.17064e-12
7.26348e-12
7.41034e-12
7.60273e-12
7.81322e-12
8.07833e-12
8.43841e-12
8.89324e-12
9.39097e-12
9.98548e-12
1.07661e-11
1.17682e-11
1.28664e-11
1.41236e-11
1.57773e-11
1.79847e-11
2.03112e-11
2.3009e-11
2.63619e-11
3.15522e-11
3.56696e-11
4.26902e-11
4.86715e-11
6.0433e-11
6.92214e-11
8.47325e-11
9.75209e-11
1.21276e-10
1.40217e-10
1.74399e-10
2.01925e-10
2.52104e-10
2.92791e-10
3.66338e-10
4.25954e-10
5.25553e-10
6.39494e-10
7.4057e-10
9.34975e-10
1.12311e-09
1.30611e-09
1.65748e-09
1.94009e-09
2.39304e-09
2.84561e-09
3.53493e-09
4.16766e-09
5.20601e-09
6.13342e-09
7.74451e-09
9.05941e-09
1.1518e-08
1.35307e-08
1.72055e-08
2.02816e-08
2.58868e-08
3.08217e-08
3.75367e-08
4.84901e-08
5.59208e-08
7.23255e-08
7.92346e-08
1.09453e-07
1.08355e-07
1.87263e-07
2.09705e-07
5.47372e-07
6.93513e-07
1.73338e-06
1.83676e-06
3.11109e-06
2.92113e-06
3.642e-06
3.20317e-06
3.41669e-06
3.28383e-06
3.76832e-06
3.81613e-06
4.09188e-06
4.4595e-06
4.99528e-06
6.02815e-06
7.62394e-06
9.8131e-06
1.3344e-05
3.27485e-05
0.000119037
0.000293166
0.000270938
0.000232584
0.000197805
0.000209325
0.00020702
0.000176979
0.000159257
0.000160154
0.000156069
0.000132053
8.2033e-05
4.7054e-05
2.8456e-05
2.07175e-05
1.91504e-05
1.72923e-05
1.62861e-05
1.74084e-05
1.85108e-05
1.85883e-05
1.8534e-05
1.83773e-05
1.79331e-05
1.57332e-05
1.237e-05
9.4363e-06
7.07217e-06
5.27757e-06
3.95837e-06
3.00278e-06
2.31091e-06
1.80435e-06
1.42523e-06
1.13543e-06
9.09786e-07
7.32094e-07
5.90989e-07
4.7834e-07
3.88063e-07
3.15483e-07
2.56959e-07
2.09641e-07
1.71287e-07
1.40126e-07
1.14759e-07
9.40714e-08
7.71745e-08
6.33552e-08
5.20407e-08
4.27683e-08
3.5163e-08
2.89208e-08
2.37946e-08
1.95828e-08
1.61207e-08
1.32738e-08
1.0932e-08
9.00534e-09
7.41958e-09
6.11414e-09
5.03934e-09
4.15429e-09
3.42529e-09
2.82472e-09
2.32994e-09
1.92227e-09
1.58627e-09
1.30932e-09
1.08104e-09
8.92867e-10
7.37706e-10
6.09745e-10
5.04234e-10
4.17229e-10
3.45449e-10
2.86222e-10
2.37366e-10
1.97063e-10
1.63794e-10
1.36324e-10
1.13651e-10
9.49356e-11
7.94756e-11
6.67022e-11
5.61565e-11
4.74513e-11
4.02597e-11
3.43173e-11
2.94136e-11
2.53684e-11
2.20275e-11
1.92685e-11
1.69925e-11
1.51184e-11
1.35735e-11
1.22964e-11
1.12475e-11
1.03894e-11
9.68099e-12
9.10091e-12
8.62827e-12
8.23998e-12
7.9298e-12
7.67891e-12
7.47121e-12
7.32045e-12
7.21253e-12
7.11998e-12
7.0684e-12
7.06451e-12
7.07373e-12
7.10163e-12
7.16321e-12
7.26506e-12
7.40547e-12
7.58341e-12
7.80519e-12
8.08399e-12
8.43891e-12
8.86155e-12
9.38113e-12
9.99497e-12
1.07881e-11
1.17035e-11
1.2851e-11
1.41313e-11
1.58718e-11
1.78216e-11
2.03095e-11
2.29533e-11
2.67606e-11
3.09579e-11
3.61446e-11
4.20735e-11
4.94268e-11
6.00599e-11
6.85483e-11
8.46748e-11
9.75097e-11
1.21166e-10
1.40183e-10
1.74091e-10
2.01584e-10
2.52117e-10
2.92641e-10
3.65586e-10
4.25298e-10
5.23546e-10
6.4094e-10
7.40783e-10
9.34708e-10
1.10386e-09
1.32552e-09
1.63107e-09
1.95189e-09
2.38954e-09
2.8389e-09
3.54988e-09
4.14191e-09
5.24728e-09
6.13632e-09
7.73958e-09
9.081e-09
1.15199e-08
1.35298e-08
1.72758e-08
2.03208e-08
2.61379e-08
3.08316e-08
3.89721e-08
4.82196e-08
5.78884e-08
6.78165e-08
9.25675e-08
9.72645e-08
1.43574e-07
1.64643e-07
3.06494e-07
4.07685e-07
7.87471e-07
1.14307e-06
1.90217e-06
2.52658e-06
3.9058e-06
3.81363e-06
4.21751e-06
3.78452e-06
4.1411e-06
3.9251e-06
4.22643e-06
4.23165e-06
4.49338e-06
5.43809e-06
6.00063e-06
7.15466e-06
1.00141e-05
1.32533e-05
3.31348e-05
9.6173e-05
0.000249216
0.000246375
0.000232791
0.000220143
0.000219732
0.000193606
0.000178426
0.000174863
0.000168973
0.000148598
9.24591e-05
5.3679e-05
3.20133e-05
2.28844e-05
1.88156e-05
1.84833e-05
1.76901e-05
1.59053e-05
1.59934e-05
1.81489e-05
1.88028e-05
1.8789e-05
1.84411e-05
1.73954e-05
1.51092e-05
1.22171e-05
9.40497e-06
7.04308e-06
5.23251e-06
3.9145e-06
2.97227e-06
2.2945e-06
1.79722e-06
1.42369e-06
1.1364e-06
9.11884e-07
7.34419e-07
5.93186e-07
4.80256e-07
3.89652e-07
3.16755e-07
2.57956e-07
2.1041e-07
1.71873e-07
1.40569e-07
1.15092e-07
9.43217e-08
7.73621e-08
6.34955e-08
5.21455e-08
4.28467e-08
3.52217e-08
2.89646e-08
2.38272e-08
1.9607e-08
1.61387e-08
1.3287e-08
1.09416e-08
9.01227e-09
7.42464e-09
6.11777e-09
5.04188e-09
4.15609e-09
3.4266e-09
2.82564e-09
2.33056e-09
1.92271e-09
1.58664e-09
1.30961e-09
1.08126e-09
8.93066e-10
7.37906e-10
6.0993e-10
5.04385e-10
4.17358e-10
3.4557e-10
2.86318e-10
2.37422e-10
1.9709e-10
1.63805e-10
1.36314e-10
1.13617e-10
9.48932e-11
7.94399e-11
6.66714e-11
5.61253e-11
4.74249e-11
4.02438e-11
3.43067e-11
2.94005e-11
2.53543e-11
2.20182e-11
1.9261e-11
1.69812e-11
1.51054e-11
1.35639e-11
1.22904e-11
1.12395e-11
1.03762e-11
9.67005e-12
9.09262e-12
8.61302e-12
8.22134e-12
7.9166e-12
7.66769e-12
7.45773e-12
7.30819e-12
7.20335e-12
7.11108e-12
7.05827e-12
7.05421e-12
7.06376e-12
7.09346e-12
7.15497e-12
7.247e-12
7.3902e-12
7.58227e-12
7.79902e-12
8.06453e-12
8.41806e-12
8.86828e-12
9.37585e-12
9.97628e-12
1.07451e-11
1.17315e-11
1.2843e-11
1.41351e-11
1.57614e-11
1.7916e-11
2.02819e-11
2.30373e-11
2.6484e-11
3.11508e-11
3.61343e-11
4.20094e-11
4.94509e-11
5.93592e-11
6.99197e-11
8.27962e-11
9.82473e-11
1.20333e-10
1.40574e-10
1.72386e-10
2.00439e-10
2.52389e-10
2.92104e-10
3.60997e-10
4.26546e-10
5.20153e-10
6.35205e-10
7.44304e-10
9.26995e-10
1.09726e-09
1.35051e-09
1.60004e-09
1.97518e-09
2.36052e-09
2.87201e-09
3.51068e-09
4.138e-09
5.25568e-09
6.12035e-09
7.73495e-09
9.08134e-09
1.15211e-08
1.35188e-08
1.73496e-08
2.03336e-08
2.64136e-08
3.10245e-08
3.97965e-08
4.93636e-08
5.70464e-08
7.75775e-08
8.63437e-08
1.0393e-07
1.3251e-07
1.45884e-07
2.39783e-07
2.89553e-07
5.93785e-07
6.77597e-07
1.25131e-06
1.49624e-06
2.60974e-06
3.55618e-06
4.05226e-06
4.65417e-06
4.4528e-06
4.44503e-06
4.37852e-06
4.78557e-06
4.75941e-06
5.4439e-06
7.82144e-06
7.67368e-06
1.29606e-05
1.4106e-05
3.45224e-05
7.85225e-05
0.000196158
0.000194489
0.00020031
0.000204271
0.000189462
0.000147554
0.000140409
0.000137836
0.000128075
8.74577e-05
5.44524e-05
3.31751e-05
2.30744e-05
2.02211e-05
1.80578e-05
1.68386e-05
1.67561e-05
1.56366e-05
1.52147e-05
1.6392e-05
1.84962e-05
1.88281e-05
1.86382e-05
1.72415e-05
1.45731e-05
1.18677e-05
9.26395e-06
6.99449e-06
5.20205e-06
3.8817e-06
2.94231e-06
2.27368e-06
1.7859e-06
1.41896e-06
1.13565e-06
9.12933e-07
7.36133e-07
5.95001e-07
4.81921e-07
3.91074e-07
3.1792e-07
2.58884e-07
2.11136e-07
1.72432e-07
1.40997e-07
1.15417e-07
9.45662e-08
7.75453e-08
6.36324e-08
5.22477e-08
4.29226e-08
3.52778e-08
2.9006e-08
2.38578e-08
1.96297e-08
1.61553e-08
1.32991e-08
1.09507e-08
9.01904e-09
7.42959e-09
6.12139e-09
5.04463e-09
4.15818e-09
3.42812e-09
2.82676e-09
2.33145e-09
1.92343e-09
1.58716e-09
1.30999e-09
1.08158e-09
8.93313e-10
7.38062e-10
6.10017e-10
5.04448e-10
4.17398e-10
3.45564e-10
2.86282e-10
2.37388e-10
1.9706e-10
1.63768e-10
1.36279e-10
1.136e-10
9.48903e-11
7.94336e-11
6.66611e-11
5.61203e-11
4.74227e-11
4.02338e-11
3.42901e-11
2.93865e-11
2.53442e-11
2.20045e-11
1.92432e-11
1.69674e-11
1.50952e-11
1.35506e-11
1.22727e-11
1.12213e-11
1.03617e-11
9.65494e-12
9.07274e-12
8.5965e-12
8.21169e-12
7.90435e-12
7.6519e-12
7.44545e-12
7.29717e-12
7.18878e-12
7.09547e-12
7.04424e-12
7.04059e-12
7.04992e-12
7.07782e-12
7.13823e-12
7.2394e-12
7.38219e-12
7.56206e-12
7.77937e-12
8.0574e-12
8.41381e-12
8.84453e-12
9.35219e-12
9.97068e-12
1.07526e-11
1.17035e-11
1.28122e-11
1.4127e-11
1.57971e-11
1.78744e-11
2.02313e-11
2.30055e-11
2.65598e-11
3.1095e-11
3.60477e-11
4.1981e-11
4.96215e-11
5.92017e-11
7.0038e-11
8.21906e-11
9.94712e-11
1.18524e-10
1.43021e-10
1.68431e-10
2.05216e-10
2.46902e-10
2.96685e-10
3.55703e-10
4.30086e-10
5.21035e-10
6.28269e-10
7.5321e-10
9.17385e-10
1.10319e-09
1.34562e-09
1.60239e-09
1.96914e-09
2.36244e-09
2.86727e-09
3.50767e-09
4.13045e-09
5.25444e-09
6.11693e-09
7.72593e-09
9.06982e-09
1.15326e-08
1.35006e-08
1.74406e-08
2.0313e-08
2.6887e-08
3.10308e-08
4.20254e-08
4.89419e-08
6.02138e-08
8.4559e-08
8.5701e-08
1.44251e-07
1.38129e-07
2.81314e-07
3.41488e-07
8.06101e-07
8.91948e-07
1.72136e-06
1.61551e-06
2.09012e-06
2.11988e-06
3.24065e-06
3.43034e-06
4.52655e-06
4.51449e-06
4.85983e-06
4.93852e-06
4.92913e-06
5.12867e-06
5.53785e-06
7.36198e-06
7.76272e-06
1.58578e-05
1.58245e-05
3.33979e-05
6.53718e-05
0.000134864
0.000134474
0.000143866
0.000147924
0.000128279
9.28428e-05
7.91673e-05
7.19748e-05
5.91177e-05
4.21493e-05
2.92006e-05
2.15261e-05
1.92289e-05
1.88404e-05
1.71307e-05
1.3528e-05
1.31241e-05
1.43907e-05
1.50626e-05
1.53055e-05
1.70293e-05
1.84492e-05
1.85328e-05
1.7472e-05
1.45247e-05
1.15671e-05
9.00475e-06
6.85563e-06
5.13934e-06
3.84965e-06
2.91985e-06
2.2567e-06
1.77494e-06
1.41324e-06
1.13374e-06
9.13156e-07
7.37303e-07
5.96449e-07
4.83337e-07
3.92326e-07
3.18967e-07
2.59728e-07
2.11801e-07
1.7295e-07
1.41394e-07
1.15719e-07
9.47949e-08
7.77181e-08
6.37625e-08
5.23449e-08
4.29951e-08
3.53321e-08
2.90466e-08
2.38879e-08
1.9652e-08
1.6172e-08
1.33117e-08
1.09599e-08
9.02576e-09
7.43462e-09
6.12522e-09
5.04743e-09
4.16018e-09
3.42964e-09
2.82795e-09
2.3323e-09
1.92399e-09
1.58759e-09
1.31034e-09
1.0818e-09
8.93433e-10
7.38157e-10
6.10101e-10
5.04485e-10
4.17394e-10
3.45566e-10
2.86301e-10
2.37398e-10
1.97057e-10
1.63773e-10
1.36294e-10
1.13604e-10
9.48765e-11
7.94196e-11
6.6653e-11
5.61055e-11
4.7398e-11
4.02122e-11
3.42763e-11
2.93712e-11
2.53231e-11
2.1985e-11
1.92295e-11
1.69519e-11
1.50733e-11
1.35289e-11
1.22558e-11
1.1205e-11
1.03429e-11
9.63624e-12
9.05815e-12
8.58381e-12
8.19313e-12
7.88393e-12
7.63718e-12
7.42909e-12
7.27578e-12
7.17079e-12
7.08074e-12
7.0275e-12
7.0231e-12
7.03266e-12
7.06174e-12
7.1261e-12
7.21974e-12
7.35889e-12
7.54724e-12
7.77033e-12
8.03787e-12
8.38818e-12
8.8299e-12
9.34852e-12
9.95277e-12
1.07217e-11
1.16863e-11
1.28158e-11
1.41146e-11
1.57506e-11
1.78446e-11
2.02468e-11
2.30136e-11
2.64982e-11
3.10499e-11
3.60844e-11
4.20215e-11
4.95086e-11
5.912e-11
7.00823e-11
8.22825e-11
9.92812e-11
1.18406e-10
1.43074e-10
1.68554e-10
2.04984e-10
2.46604e-10
2.96745e-10
3.55974e-10
4.29145e-10
5.21626e-10
6.26301e-10
7.55583e-10
9.13259e-10
1.10629e-09
1.33861e-09
1.61101e-09
1.95159e-09
2.38346e-09
2.82783e-09
3.54234e-09
4.12657e-09
5.23189e-09
6.12093e-09
7.7202e-09
9.04517e-09
1.15488e-08
1.3479e-08
1.75396e-08
2.0267e-08
2.74486e-08
3.1018e-08
4.46103e-08
4.90921e-08
7.34721e-08
8.16868e-08
1.17445e-07
1.43307e-07
2.04411e-07
2.73869e-07
4.61424e-07
6.04904e-07
1.19257e-06
1.64856e-06
3.5257e-06
3.26855e-06
4.14649e-06
3.64663e-06
4.22148e-06
4.15978e-06
5.34843e-06
5.10545e-06
5.78497e-06
6.03496e-06
6.64162e-06
6.17587e-06
9.66162e-06
8.88254e-06
2.00939e-05
1.75135e-05
3.00148e-05
5.40239e-05
7.12297e-05
7.17139e-05
7.89601e-05
7.79184e-05
6.18596e-05
4.2612e-05
3.27616e-05
2.88865e-05
2.24617e-05
1.9501e-05
1.7028e-05
1.74491e-05
1.7896e-05
1.76364e-05
1.50958e-05
1.25691e-05
1.17607e-05
1.31322e-05
1.53376e-05
1.56317e-05
1.59827e-05
1.7353e-05
1.80142e-05
1.7557e-05
1.48014e-05
1.15412e-05
8.77912e-06
6.62163e-06
4.99146e-06
3.77387e-06
2.88379e-06
2.23837e-06
1.7647e-06
1.40773e-06
1.13128e-06
9.12742e-07
7.37953e-07
5.97537e-07
4.84515e-07
3.93418e-07
3.19905e-07
2.605e-07
2.12419e-07
1.73434e-07
1.41769e-07
1.16006e-07
9.50138e-08
7.78837e-08
6.38867e-08
5.24381e-08
4.30652e-08
3.53845e-08
2.90855e-08
2.39168e-08
1.96737e-08
1.61882e-08
1.33235e-08
1.09686e-08
9.03236e-09
7.43958e-09
6.12878e-09
5.05001e-09
4.16219e-09
3.43117e-09
2.829e-09
2.33303e-09
1.9246e-09
1.58806e-09
1.31063e-09
1.08199e-09
8.93611e-10
7.38304e-10
6.10176e-10
5.04524e-10
4.1745e-10
3.45624e-10
2.86322e-10
2.37398e-10
1.97068e-10
1.63784e-10
1.36279e-10
1.13577e-10
9.48624e-11
7.94118e-11
6.66326e-11
5.60795e-11
4.73829e-11
4.02021e-11
3.42571e-11
2.93468e-11
2.53051e-11
2.19704e-11
1.92078e-11
1.69258e-11
1.50532e-11
1.35131e-11
1.22361e-11
1.11827e-11
1.03233e-11
9.61897e-12
9.03808e-12
8.55955e-12
8.17123e-12
7.86634e-12
7.61622e-12
7.40532e-12
7.25745e-12
7.15348e-12
7.05883e-12
7.0062e-12
7.00294e-12
7.01271e-12
7.04139e-12
7.10168e-12
7.19976e-12
7.34544e-12
7.5283e-12
7.74387e-12
8.01717e-12
8.37736e-12
8.81176e-12
9.31931e-12
9.93021e-12
1.07163e-11
1.16676e-11
1.27819e-11
1.40857e-11
1.57573e-11
1.78278e-11
2.02058e-11
2.29891e-11
2.65054e-11
3.10407e-11
3.60043e-11
4.20159e-11
4.95114e-11
5.91098e-11
6.99765e-11
8.22948e-11
9.92553e-11
1.18437e-10
1.42795e-10
1.68768e-10
2.04656e-10
2.46833e-10
2.9616e-10
3.5618e-10
4.28856e-10
5.21188e-10
6.26109e-10
7.54917e-10
9.12658e-10
1.10621e-09
1.33464e-09
1.61608e-09
1.93645e-09
2.40267e-09
2.80417e-09
3.55119e-09
4.13731e-09
5.21254e-09
6.10733e-09
7.72225e-09
9.02765e-09
1.15586e-08
1.34453e-08
1.76769e-08
2.01902e-08
2.81908e-08
3.10988e-08
4.72175e-08
5.11782e-08
7.8314e-08
9.03992e-08
1.15432e-07
1.57192e-07
1.92972e-07
2.53656e-07
3.26405e-07
4.30369e-07
7.52362e-07
1.34927e-06
2.35799e-06
4.03141e-06
4.46919e-06
5.34724e-06
5.15273e-06
4.87435e-06
5.502e-06
5.57391e-06
5.82727e-06
6.00647e-06
7.19907e-06
7.07338e-06
1.21417e-05
1.01731e-05
2.3079e-05
1.91523e-05
2.6053e-05
4.5527e-05
2.34163e-05
2.29162e-05
2.42475e-05
2.28754e-05
1.75958e-05
1.30962e-05
1.01497e-05
8.68264e-06
9.49135e-06
1.30069e-05
1.41273e-05
1.65327e-05
1.74513e-05
1.63278e-05
1.38073e-05
1.2606e-05
1.1806e-05
1.22792e-05
1.52652e-05
1.64704e-05
1.64427e-05
1.66817e-05
1.70324e-05
1.69839e-05
1.4979e-05
1.16006e-05
8.72564e-06
6.47275e-06
4.81618e-06
3.64547e-06
2.81294e-06
2.20465e-06
1.74966e-06
1.40118e-06
1.12851e-06
9.12e-07
7.3831e-07
5.98341e-07
4.85456e-07
3.94339e-07
3.20726e-07
2.61193e-07
2.12982e-07
1.73881e-07
1.42118e-07
1.16276e-07
9.522e-08
7.80399e-08
6.40051e-08
5.25276e-08
4.31322e-08
3.54343e-08
2.91227e-08
2.39448e-08
1.96944e-08
1.62033e-08
1.33348e-08
1.09771e-08
9.03863e-09
7.44407e-09
6.1321e-09
5.05256e-09
4.16405e-09
3.43243e-09
2.82993e-09
2.33379e-09
1.92514e-09
1.58839e-09
1.31087e-09
1.08221e-09
8.93761e-10
7.38363e-10
6.10214e-10
5.04581e-10
4.17484e-10
3.45611e-10
2.86303e-10
2.37396e-10
1.97056e-10
1.63749e-10
1.36247e-10
1.13563e-10
9.4847e-11
7.93815e-11
6.66038e-11
5.60626e-11
4.7364e-11
4.01723e-11
3.42278e-11
2.93259e-11
2.52836e-11
2.19415e-11
1.91796e-11
1.69051e-11
1.5033e-11
1.34869e-11
1.22097e-11
1.11606e-11
1.03007e-11
9.59292e-12
9.01172e-12
8.53653e-12
8.14989e-12
7.84155e-12
7.59074e-12
7.38421e-12
7.23534e-12
7.12746e-12
7.03457e-12
6.98385e-12
6.98023e-12
6.98948e-12
7.01749e-12
7.08007e-12
7.18016e-12
7.31958e-12
7.50081e-12
7.72381e-12
8.00029e-12
8.35099e-12
8.78314e-12
9.29927e-12
9.91829e-12
1.06872e-11
1.16371e-11
1.27579e-11
1.40878e-11
1.57233e-11
1.77947e-11
2.01704e-11
2.30115e-11
2.64646e-11
3.0989e-11
3.5966e-11
4.20638e-11
4.94707e-11
5.90176e-11
6.99295e-11
8.23757e-11
9.91992e-11
1.18285e-10
1.42689e-10
1.68962e-10
2.04395e-10
2.468e-10
2.95676e-10
3.56656e-10
4.2821e-10
5.20999e-10
6.2539e-10
7.55059e-10
9.11557e-10
1.10567e-09
1.33182e-09
1.61827e-09
1.92792e-09
2.40719e-09
2.80099e-09
3.54435e-09
4.13536e-09
5.20221e-09
6.09283e-09
7.71528e-09
9.00731e-09
1.15637e-08
1.33946e-08
1.78543e-08
2.00486e-08
2.94609e-08
3.09761e-08
5.41385e-08
5.47619e-08
1.01118e-07
1.22918e-07
1.5794e-07
2.98573e-07
3.41634e-07
5.62999e-07
8.72832e-07
1.14051e-06
1.58233e-06
1.58366e-06
1.73335e-06
2.63538e-06
4.37921e-06
4.94081e-06
7.64432e-06
6.77959e-06
9.87228e-06
7.78611e-06
1.23251e-05
8.9712e-06
1.18343e-05
8.93687e-06
1.53005e-05
1.26892e-05
3.64946e-05
2.39077e-05
2.55429e-05
3.80436e-05
4.20768e-06
4.32244e-06
4.30878e-06
4.64746e-06
4.78214e-06
4.35905e-06
5.81699e-06
6.89823e-06
1.01935e-05
1.2609e-05
1.40238e-05
1.63849e-05
1.65369e-05
1.46506e-05
1.25156e-05
1.26734e-05
1.23084e-05
1.19983e-05
1.33787e-05
1.64815e-05
1.72758e-05
1.7139e-05
1.6739e-05
1.5844e-05
1.42074e-05
1.14006e-05
8.65548e-06
6.4136e-06
4.74233e-06
3.55984e-06
2.7385e-06
2.15763e-06
1.72549e-06
1.3903e-06
1.12415e-06
9.10557e-07
7.38265e-07
5.98928e-07
4.86226e-07
3.95122e-07
3.21443e-07
2.61809e-07
2.13491e-07
1.74291e-07
1.42442e-07
1.16528e-07
9.5414e-08
7.81887e-08
6.41186e-08
5.26131e-08
4.31964e-08