/*--------------------------------*- C++ -*----------------------------------*\
| =========                 |                                                 |
| \\      /  F ield         | OpenFOAM: The Open Source CFD Toolbox           |
|  \\    /   O peration     | Version:  2.4.0                                 |
|   \\  /    A nd           | Web:      www.OpenFOAM.org                      |
|    \\/     M anipulation  |                                                 |
\*---------------------------------------------------------------------------*/
FoamFile
{
    version     2.0;
    format      ascii;
    class       surfaceScalarField;
    location    "0.210629";
    object      phi;
}
// * * * * * * * * * * * * * * * * * * * * * * * * * * * * * * * * * * * * * //

dimensions      [0 3 -1 0 0 0 0];

internalField   nonuniform List<scalar> 
34880
(
1.21382e-05
3.61816e-07
1.17094e-05
4.28783e-07
1.13221e-05
3.87334e-07
1.09672e-05
3.54914e-07
1.06483e-05
3.18866e-07
1.03728e-05
2.75504e-07
1.01401e-05
2.32713e-07
9.94566e-06
1.94408e-07
9.78401e-06
1.61654e-07
9.64954e-06
1.34468e-07
9.53703e-06
1.12513e-07
9.44183e-06
9.51996e-08
9.35999e-06
8.18344e-08
9.28829e-06
7.17011e-08
9.22415e-06
6.41438e-08
9.16547e-06
5.8681e-08
9.11041e-06
5.50513e-08
9.05485e-06
5.55604e-08
8.99519e-06
5.96667e-08
2.11366e-07
8.78382e-06
1.26413e-05
2.20546e-07
1.27047e-05
3.65309e-07
1.27223e-05
3.69807e-07
1.26942e-05
3.82986e-07
1.26301e-05
3.82957e-07
1.25383e-05
3.67355e-07
1.24265e-05
3.44423e-07
1.23019e-05
3.19102e-07
1.21699e-05
2.93599e-07
1.20353e-05
2.69052e-07
1.19017e-05
2.46163e-07
1.17716e-05
2.25241e-07
1.16471e-05
2.06356e-07
1.15293e-05
1.89465e-07
1.1419e-05
1.74449e-07
1.13162e-05
1.61529e-07
1.12213e-05
1.49975e-07
1.11302e-05
1.46587e-07
1.10544e-05
1.35484e-07
2.54564e-07
1.10112e-05
1.25407e-05
1.79812e-07
1.25884e-05
3.17662e-07
1.2628e-05
3.30163e-07
1.26609e-05
3.50084e-07
1.26833e-05
3.60584e-07
1.26942e-05
3.5648e-07
1.2694e-05
3.44601e-07
1.26833e-05
3.29814e-07
1.26627e-05
3.14141e-07
1.26332e-05
2.9857e-07
1.25956e-05
2.83751e-07
1.25509e-05
2.69989e-07
1.24999e-05
2.57327e-07
1.24437e-05
2.45691e-07
1.23832e-05
2.34936e-07
1.23194e-05
2.25352e-07
1.22531e-05
2.16268e-07
1.21848e-05
2.14927e-07
1.21117e-05
2.08563e-07
2.99297e-07
1.20669e-05
1.25233e-05
1.56497e-07
1.25543e-05
2.86646e-07
1.25822e-05
3.02305e-07
1.26114e-05
3.2092e-07
1.26384e-05
3.33547e-07
1.2662e-05
3.3288e-07
1.26818e-05
3.24769e-07
1.26976e-05
3.14048e-07
1.27092e-05
3.02554e-07
1.27166e-05
2.91117e-07
1.27201e-05
2.80327e-07
1.27196e-05
2.70487e-07
1.27152e-05
2.61653e-07
1.27071e-05
2.53775e-07
1.26953e-05
2.46729e-07
1.26799e-05
2.40848e-07
1.26605e-05
2.35611e-07
1.26376e-05
2.37813e-07
1.26082e-05
2.3803e-07
3.11249e-07
1.25962e-05
1.25186e-05
1.37854e-07
1.25435e-05
2.61786e-07
1.25662e-05
2.79611e-07
1.25911e-05
2.96047e-07
1.26159e-05
3.08709e-07
1.26396e-05
3.0919e-07
1.26617e-05
3.02632e-07
1.2682e-05
2.93797e-07
1.27002e-05
2.84353e-07
1.27163e-05
2.74993e-07
1.27304e-05
2.66251e-07
1.27425e-05
2.58414e-07
1.27526e-05
2.51537e-07
1.27608e-05
2.45586e-07
1.2767e-05
2.40464e-07
1.27713e-05
2.36553e-07
1.27735e-05
2.33465e-07
1.27738e-05
2.37517e-07
1.27705e-05
2.41312e-07
3.00795e-07
1.27809e-05
1.25161e-05
1.21712e-07
1.25385e-05
2.39404e-07
1.25592e-05
2.58943e-07
1.25817e-05
2.73578e-07
1.26046e-05
2.85722e-07
1.26272e-05
2.8662e-07
1.2649e-05
2.80837e-07
1.26697e-05
2.73057e-07
1.26893e-05
2.64812e-07
1.27076e-05
2.56688e-07
1.27247e-05
2.49174e-07
1.27406e-05
2.42538e-07
1.27553e-05
2.36827e-07
1.27688e-05
2.3202e-07
1.27813e-05
2.28034e-07
1.27925e-05
2.25286e-07
1.28025e-05
2.23478e-07
1.28116e-05
2.28437e-07
1.28189e-05
2.34008e-07
2.82452e-07
1.28372e-05
1.25142e-05
1.07479e-07
1.25354e-05
2.18283e-07
1.25552e-05
2.39117e-07
1.25764e-05
2.52359e-07
1.25983e-05
2.63861e-07
1.26199e-05
2.6497e-07
1.26411e-05
2.59697e-07
1.26615e-05
2.52631e-07
1.26811e-05
2.45206e-07
1.26998e-05
2.37924e-07
1.27178e-05
2.31243e-07
1.27349e-05
2.25416e-07
1.27512e-05
2.20484e-07
1.27668e-05
2.16435e-07
1.27817e-05
2.13201e-07
1.27957e-05
2.11224e-07
1.28089e-05
2.10268e-07
1.28217e-05
2.15666e-07
1.28336e-05
2.22088e-07
2.61654e-07
1.28544e-05
1.25127e-05
9.47924e-08
1.25329e-05
1.98081e-07
1.25523e-05
2.19713e-07
1.25729e-05
2.31798e-07
1.25941e-05
2.42619e-07
1.26152e-05
2.43895e-07
1.26358e-05
2.3907e-07
1.26558e-05
2.32596e-07
1.26752e-05
2.2583e-07
1.26939e-05
2.1921e-07
1.2712e-05
2.13164e-07
1.27295e-05
2.0794e-07
1.27464e-05
2.03577e-07
1.27627e-05
2.00073e-07
1.27786e-05
1.97377e-07
1.27938e-05
1.95944e-07
1.28085e-05
1.9559e-07
1.2823e-05
2.0115e-07
1.28372e-05
2.07895e-07
2.40245e-07
1.28586e-05
1.25114e-05
8.33826e-08
1.25308e-05
1.78692e-07
1.25499e-05
2.00582e-07
1.25701e-05
2.11625e-07
1.2591e-05
2.21721e-07
1.26118e-05
2.23144e-07
1.26321e-05
2.18766e-07
1.26518e-05
2.12855e-07
1.26709e-05
2.06692e-07
1.26895e-05
2.00657e-07
1.27075e-05
1.95157e-07
1.2725e-05
1.90433e-07
1.27421e-05
1.86527e-07
1.27587e-05
1.83449e-07
1.27749e-05
1.81164e-07
1.27907e-05
1.80135e-07
1.28061e-05
1.80221e-07
1.28215e-05
1.85765e-07
1.28368e-05
1.92516e-07
2.18938e-07
1.28581e-05
1.25103e-05
7.30411e-08
1.2529e-05
1.60052e-07
1.25479e-05
1.81664e-07
1.25678e-05
1.91719e-07
1.25885e-05
2.01039e-07
1.26091e-05
2.0257e-07
1.26292e-05
1.98648e-07
1.26487e-05
1.93297e-07
1.26677e-05
1.87722e-07
1.26861e-05
1.82249e-07
1.2704e-05
1.77261e-07
1.27215e-05
1.72992e-07
1.27385e-05
1.69489e-07
1.27552e-05
1.66772e-07
1.27715e-05
1.64827e-07
1.27875e-05
1.64115e-07
1.28032e-05
1.64532e-07
1.2819e-05
1.69946e-07
1.2835e-05
1.76508e-07
1.98025e-07
1.2856e-05
1.25094e-05
6.35961e-08
1.25274e-05
1.42097e-07
1.25461e-05
1.62934e-07
1.25658e-05
1.72024e-07
1.25863e-05
1.80517e-07
1.26068e-05
1.82103e-07
1.26268e-05
1.78634e-07
1.26463e-05
1.73845e-07
1.26651e-05
1.68854e-07
1.26835e-05
1.63939e-07
1.27013e-05
1.59455e-07
1.27186e-05
1.55626e-07
1.27356e-05
1.52502e-07
1.27523e-05
1.50117e-07
1.27686e-05
1.48472e-07
1.27847e-05
1.48024e-07
1.28005e-05
1.48701e-07
1.28166e-05
1.53917e-07
1.28329e-05
1.60172e-07
1.77611e-07
1.28533e-05
1.25087e-05
5.49011e-08
1.2526e-05
1.24759e-07
1.25446e-05
1.44375e-07
1.25641e-05
1.52506e-07
1.25845e-05
1.60128e-07
1.26049e-05
1.6171e-07
1.26248e-05
1.58684e-07
1.26442e-05
1.54452e-07
1.2663e-05
1.50042e-07
1.26813e-05
1.45687e-07
1.2699e-05
1.41708e-07
1.27164e-05
1.38316e-07
1.27333e-05
1.35565e-07
1.27499e-05
1.33499e-07
1.27663e-05
1.32135e-07
1.27824e-05
1.31921e-07
1.27982e-05
1.32809e-07
1.28144e-05
1.37789e-07
1.28309e-05
1.43671e-07
1.57715e-07
1.28508e-05
1.25081e-05
4.68299e-08
1.25249e-05
1.07971e-07
1.25433e-05
1.2597e-07
1.25626e-05
1.33137e-07
1.25829e-05
1.39855e-07
1.26032e-05
1.41375e-07
1.26231e-05
1.38776e-07
1.26425e-05
1.35095e-07
1.26613e-05
1.31261e-07
1.26795e-05
1.27465e-07
1.26972e-05
1.23993e-07
1.27145e-05
1.21041e-07
1.27314e-05
1.18662e-07
1.2748e-05
1.16911e-07
1.27643e-05
1.15819e-07
1.27804e-05
1.15819e-07
1.27963e-05
1.16886e-07
1.28125e-05
1.21615e-07
1.28291e-05
1.27094e-07
1.38309e-07
1.28485e-05
1.25076e-05
3.92729e-08
1.25239e-05
9.16617e-08
1.25421e-05
1.07704e-07
1.25614e-05
1.13895e-07
1.25815e-05
1.19684e-07
1.26018e-05
1.2109e-07
1.26217e-05
1.189e-07
1.2641e-05
1.15763e-07
1.26598e-05
1.12498e-07
1.2678e-05
1.09258e-07
1.26957e-05
1.06295e-07
1.2713e-05
1.03784e-07
1.27298e-05
1.0178e-07
1.27464e-05
1.00343e-07
1.27627e-05
9.95172e-08
1.27788e-05
9.97205e-08
1.27948e-05
1.00944e-07
1.2811e-05
1.0542e-07
1.28276e-05
1.10488e-07
1.19348e-07
1.28465e-05
1.25071e-05
3.2134e-08
1.2523e-05
7.57628e-08
1.25412e-05
8.95609e-08
1.25603e-05
9.47578e-08
1.25804e-05
9.96014e-08
1.26006e-05
1.00845e-07
1.26205e-05
9.90495e-08
1.26398e-05
9.64489e-08
1.26586e-05
9.37449e-08
1.26768e-05
9.10597e-08
1.26945e-05
8.86049e-08
1.27117e-05
8.65362e-08
1.27286e-05
8.49064e-08
1.27451e-05
8.37832e-08
1.27614e-05
8.32217e-08
1.27775e-05
8.36199e-08
1.27935e-05
8.49821e-08
1.28097e-05
8.92135e-08
1.28263e-05
9.3879e-08
1.00782e-07
1.28449e-05
1.25068e-05
2.53284e-08
1.25224e-05
6.02044e-08
1.25404e-05
7.15212e-08
1.25595e-05
7.57065e-08
1.25795e-05
7.95926e-08
1.25997e-05
8.06361e-08
1.26195e-05
7.92194e-08
1.26388e-05
7.71491e-08
1.26575e-05
7.49996e-08
1.26757e-05
7.2865e-08
1.26934e-05
7.09182e-08
1.27107e-05
6.92918e-08
1.27275e-05
6.8037e-08
1.27441e-05
6.72266e-08
1.27604e-05
6.69262e-08
1.27765e-05
6.75126e-08
1.27925e-05
6.90005e-08
1.28087e-05
7.30005e-08
1.28253e-05
7.72805e-08
8.25629e-08
1.28435e-05
1.25065e-05
1.87797e-08
1.25218e-05
4.49174e-08
1.25398e-05
5.35659e-08
1.25588e-05
5.67226e-08
1.25787e-05
5.96435e-08
1.25989e-05
6.04549e-08
1.26187e-05
5.94052e-08
1.2638e-05
5.78603e-08
1.26567e-05
5.62595e-08
1.26749e-05
5.46725e-08
1.26926e-05
5.32328e-08
1.27099e-05
5.20482e-08
1.27267e-05
5.11678e-08
1.27433e-05
5.06692e-08
1.27596e-05
5.06265e-08
1.27757e-05
5.13957e-08
1.27917e-05
5.29985e-08
1.28079e-05
5.67836e-08
1.28245e-05
6.0702e-08
6.46481e-08
1.28424e-05
1.25064e-05
1.24182e-08
1.25214e-05
2.98331e-08
1.25393e-05
3.5675e-08
1.25583e-05
3.77885e-08
1.25782e-05
3.97392e-08
1.25983e-05
4.02947e-08
1.26181e-05
3.96028e-08
1.26374e-05
3.85796e-08
1.26562e-05
3.7523e-08
1.26743e-05
3.64811e-08
1.2692e-05
3.55476e-08
1.27093e-05
3.48042e-08
1.27261e-05
3.42973e-08
1.27427e-05
3.41087e-08
1.2759e-05
3.43204e-08
1.27751e-05
3.52674e-08
1.27912e-05
3.69764e-08
1.28074e-05
4.05651e-08
1.28239e-05
4.41497e-08
4.70002e-08
1.28416e-05
1.25062e-05
6.17895e-09
1.25212e-05
1.48835e-08
1.2539e-05
1.78273e-08
1.25579e-05
1.88874e-08
1.25778e-05
1.98648e-08
1.2598e-05
2.01487e-08
1.26178e-05
1.98082e-08
1.2637e-05
1.93041e-08
1.26558e-05
1.87889e-08
1.2674e-05
1.82902e-08
1.26916e-05
1.7862e-08
1.27089e-05
1.75589e-08
1.27258e-05
1.74245e-08
1.27423e-05
1.75441e-08
1.27586e-05
1.80068e-08
1.27748e-05
1.91271e-08
1.27908e-05
2.09353e-08
1.2807e-05
2.4347e-08
1.28236e-05
2.76282e-08
2.95875e-08
1.2841e-05
1.25062e-05
2.39464e-13
1.25211e-05
7.72531e-13
1.25389e-05
1.58459e-12
1.25578e-05
2.9672e-12
1.25776e-05
5.40594e-12
1.25978e-05
9.74197e-12
1.26176e-05
1.74682e-11
1.26368e-05
3.12336e-11
1.26556e-05
5.56654e-11
1.26738e-05
9.91313e-11
1.26914e-05
1.75709e-10
1.27087e-05
3.12192e-10
1.27256e-05
5.49077e-10
1.27421e-05
9.74884e-10
1.27585e-05
1.68504e-09
1.27746e-05
2.9748e-09
1.27907e-05
4.87673e-09
1.28069e-05
8.13125e-09
1.28234e-05
1.11405e-08
1.23829e-08
1.28406e-05
1.25062e-05
-6.17847e-09
1.25211e-05
-1.4882e-08
1.25389e-05
-1.78242e-08
1.25578e-05
-1.88815e-08
1.25776e-05
-1.9854e-08
1.25978e-05
-2.01293e-08
1.26176e-05
-1.97734e-08
1.26368e-05
-1.92418e-08
1.26556e-05
-1.86778e-08
1.26738e-05
-1.80924e-08
1.26914e-05
-1.75116e-08
1.27087e-05
-1.69362e-08
1.27256e-05
-1.63294e-08
1.27421e-05
-1.55994e-08
1.27585e-05
-1.46452e-08
1.27746e-05
-1.31894e-08
1.27907e-05
-1.11978e-08
1.28069e-05
-8.08057e-09
1.28234e-05
-5.31137e-09
-4.63699e-09
1.28404e-05
1.25062e-05
-1.24177e-08
1.25212e-05
-2.98316e-08
1.2539e-05
-3.56718e-08
1.25579e-05
-3.77826e-08
1.25778e-05
-3.97285e-08
1.2598e-05
-4.02755e-08
1.26178e-05
-3.95683e-08
1.2637e-05
-3.85178e-08
1.26558e-05
-3.74129e-08
1.2674e-05
-3.6285e-08
1.26916e-05
-3.52001e-08
1.27089e-05
-3.41866e-08
1.27258e-05
-3.3211e-08
1.27424e-05
-3.21791e-08
1.27587e-05
-3.09843e-08
1.27749e-05
-2.93654e-08
1.2791e-05
-2.72871e-08
1.28072e-05
-2.42876e-08
1.28236e-05
-2.17267e-08
-2.14927e-08
1.28404e-05
1.25064e-05
-1.87792e-08
1.25214e-05
-4.49158e-08
1.25393e-05
-5.35629e-08
1.25583e-05
-5.67168e-08
1.25782e-05
-5.96329e-08
1.25983e-05
-6.04359e-08
1.26181e-05
-5.93711e-08
1.26374e-05
-5.77994e-08
1.26562e-05
-5.61509e-08
1.26744e-05
-5.44792e-08
1.2692e-05
-5.28901e-08
1.27093e-05
-5.14392e-08
1.27262e-05
-5.00964e-08
1.27428e-05
-4.87648e-08
1.27591e-05
-4.73326e-08
1.27753e-05
-4.55534e-08
1.27914e-05
-4.33905e-08
1.28076e-05
-4.04897e-08
1.2824e-05
-3.81061e-08
-3.82027e-08
1.28407e-05
1.25065e-05
-2.53279e-08
1.25218e-05
-6.02029e-08
1.25398e-05
-7.15182e-08
1.25588e-05
-7.57009e-08
1.25787e-05
-7.95823e-08
1.25989e-05
-8.06175e-08
1.26187e-05
-7.9186e-08
1.2638e-05
-7.70894e-08
1.26568e-05
-7.48932e-08
1.26749e-05
-7.26756e-08
1.26926e-05
-7.05823e-08
1.27099e-05
-6.86946e-08
1.27268e-05
-6.69861e-08
1.27434e-05
-6.53574e-08
1.27597e-05
-6.36914e-08
1.27759e-05
-6.17545e-08
1.27921e-05
-5.95081e-08
1.28083e-05
-5.66878e-08
1.28246e-05
-5.44514e-08
-5.47839e-08
1.28412e-05
1.25068e-05
-3.21336e-08
1.25224e-05
-7.57613e-08
1.25404e-05
-8.9558e-08
1.25595e-05
-9.47523e-08
1.25795e-05
-9.95913e-08
1.25997e-05
-1.00827e-07
1.26195e-05
-9.9017e-08
1.26388e-05
-9.63908e-08
1.26576e-05
-9.36413e-08
1.26758e-05
-9.08751e-08
1.26934e-05
-8.82775e-08
1.27107e-05
-8.59541e-08
1.27276e-05
-8.38819e-08
1.27442e-05
-8.19589e-08
1.27606e-05
-8.00628e-08
1.27768e-05
-7.79706e-08
1.27929e-05
-7.56414e-08
1.28091e-05
-7.28841e-08
1.28254e-05
-7.07657e-08
-7.12521e-08
1.28419e-05
1.25071e-05
-3.92724e-08
1.2523e-05
-9.16603e-08
1.25412e-05
-1.07702e-07
1.25603e-05
-1.1389e-07
1.25804e-05
-1.19674e-07
1.26006e-05
-1.21072e-07
1.26205e-05
-1.18869e-07
1.26398e-05
-1.15707e-07
1.26586e-05
-1.12397e-07
1.26768e-05
-1.0908e-07
1.26945e-05
-1.05978e-07
1.27117e-05
-1.0322e-07
1.27286e-05
-1.00787e-07
1.27453e-05
-9.8573e-08
1.27616e-05
-9.64506e-08
1.27779e-05
-9.42055e-08
1.2794e-05
-9.17932e-08
1.28102e-05
-8.90817e-08
1.28265e-05
-8.70526e-08
-8.76207e-08
1.28429e-05
1.25076e-05
-4.68295e-08
1.25239e-05
-1.07969e-07
1.25421e-05
-1.25967e-07
1.25614e-05
-1.33132e-07
1.25815e-05
-1.39846e-07
1.26018e-05
-1.41359e-07
1.26217e-05
-1.38746e-07
1.2641e-05
-1.35041e-07
1.26598e-05
-1.31165e-07
1.2678e-05
-1.27293e-07
1.26957e-05
-1.23688e-07
1.2713e-05
-1.20498e-07
1.27299e-05
-1.17707e-07
1.27466e-05
-1.15206e-07
1.2763e-05
-1.12861e-07
1.27792e-05
-1.10464e-07
1.27954e-05
-1.07967e-07
1.28116e-05
-1.05283e-07
1.28279e-05
-1.03314e-07
-1.03899e-07
1.28442e-05
1.25081e-05
-5.49007e-08
1.25249e-05
-1.24758e-07
1.25433e-05
-1.44372e-07
1.25626e-05
-1.52501e-07
1.25829e-05
-1.60119e-07
1.26032e-05
-1.61694e-07
1.26232e-05
-1.58655e-07
1.26425e-05
-1.544e-07
1.26613e-05
-1.4995e-07
1.26795e-05
-1.45523e-07
1.26973e-05
-1.41417e-07
1.27146e-05
-1.37798e-07
1.27315e-05
-1.34653e-07
1.27482e-05
-1.31867e-07
1.27646e-05
-1.29301e-07
1.27809e-05
-1.26752e-07
1.27971e-05
-1.24164e-07
1.28133e-05
-1.21488e-07
1.28295e-05
-1.19547e-07
-1.20088e-07
1.28457e-05
1.25087e-05
-6.35957e-08
1.2526e-05
-1.42096e-07
1.25446e-05
-1.62932e-07
1.25641e-05
-1.7202e-07
1.25845e-05
-1.80509e-07
1.26049e-05
-1.82088e-07
1.26248e-05
-1.78607e-07
1.26442e-05
-1.73796e-07
1.26631e-05
-1.68767e-07
1.26813e-05
-1.63784e-07
1.26991e-05
-1.5918e-07
1.27164e-05
-1.55136e-07
1.27334e-05
-1.51637e-07
1.27501e-05
-1.48568e-07
1.27666e-05
-1.45779e-07
1.27829e-05
-1.4307e-07
1.27991e-05
-1.40379e-07
1.28153e-05
-1.37683e-07
1.28315e-05
-1.3573e-07
-1.36167e-07
1.28476e-05
1.25094e-05
-7.30408e-08
1.25274e-05
-1.60051e-07
1.25461e-05
-1.81662e-07
1.25658e-05
-1.91715e-07
1.25863e-05
-2.01031e-07
1.26068e-05
-2.02556e-07
1.26268e-05
-1.98623e-07
1.26463e-05
-1.93252e-07
1.26652e-05
-1.8764e-07
1.26835e-05
-1.82103e-07
1.27013e-05
-1.77003e-07
1.27187e-05
-1.72532e-07
1.27357e-05
-1.68676e-07
1.27525e-05
-1.65313e-07
1.2769e-05
-1.62289e-07
1.27853e-05
-1.59402e-07
1.28015e-05
-1.56583e-07
1.28177e-05
-1.53828e-07
1.28338e-05
-1.51813e-07
-1.5208e-07
1.28497e-05
1.25103e-05
-8.33823e-08
1.2529e-05
-1.78691e-07
1.25479e-05
-2.0058e-07
1.25678e-05
-2.11621e-07
1.25885e-05
-2.21714e-07
1.26091e-05
-2.2313e-07
1.26292e-05
-2.18743e-07
1.26487e-05
-2.12813e-07
1.26677e-05
-2.06616e-07
1.26861e-05
-2.00522e-07
1.27041e-05
-1.94917e-07
1.27215e-05
-1.90005e-07
1.27386e-05
-1.85771e-07
1.27554e-05
-1.82089e-07
1.27719e-05
-1.78796e-07
1.27882e-05
-1.75692e-07
1.28043e-05
-1.72699e-07
1.28203e-05
-1.69828e-07
1.28362e-05
-1.6768e-07
-1.67701e-07
1.28518e-05
1.25114e-05
-9.47921e-08
1.25308e-05
-1.9808e-07
1.25499e-05
-2.19711e-07
1.25701e-05
-2.31795e-07
1.2591e-05
-2.42613e-07
1.26118e-05
-2.43884e-07
1.26321e-05
-2.39048e-07
1.26518e-05
-2.32557e-07
1.2671e-05
-2.25761e-07
1.26895e-05
-2.19086e-07
1.27075e-05
-2.12944e-07
1.27251e-05
-2.07546e-07
1.27422e-05
-2.02882e-07
1.27589e-05
-1.9882e-07
1.27753e-05
-1.95191e-07
1.27914e-05
-1.91799e-07
1.28073e-05
-1.88554e-07
1.28229e-05
-1.85477e-07
1.28383e-05
-1.83097e-07
-1.82776e-07
1.28534e-05
1.25127e-05
-1.07479e-07
1.25329e-05
-2.18282e-07
1.25523e-05
-2.39116e-07
1.25729e-05
-2.52356e-07
1.25941e-05
-2.63856e-07
1.26152e-05
-2.64959e-07
1.26358e-05
-2.59678e-07
1.26558e-05
-2.52596e-07
1.26752e-05
-2.45143e-07
1.26939e-05
-2.37813e-07
1.2712e-05
-2.31044e-07
1.27296e-05
-2.25059e-07
1.27465e-05
-2.19853e-07
1.2763e-05
-2.15294e-07
1.2779e-05
-2.11211e-07
1.27946e-05
-2.07405e-07
1.28099e-05
-2.0378e-07
1.28247e-05
-2.00362e-07
1.28392e-05
-1.97604e-07
-1.9681e-07
1.28533e-05
1.25142e-05
-1.21712e-07
1.25354e-05
-2.39403e-07
1.25552e-05
-2.58942e-07
1.25764e-05
-2.73576e-07
1.25983e-05
-2.85717e-07
1.26199e-05
-2.8661e-07
1.26411e-05
-2.8082e-07
1.26615e-05
-2.73026e-07
1.26811e-05
-2.64757e-07
1.26999e-05
-2.56588e-07
1.27178e-05
-2.48996e-07
1.2735e-05
-2.4222e-07
1.27514e-05
-2.36263e-07
1.27671e-05
-2.30999e-07
1.27821e-05
-2.2625e-07
1.27966e-05
-2.21821e-07
1.28104e-05
-2.17603e-07
1.28237e-05
-2.13629e-07
1.28363e-05
-2.10264e-07
-2.088e-07
1.28483e-05
1.25161e-05
-1.37853e-07
1.25385e-05
-2.61785e-07
1.25592e-05
-2.79609e-07
1.25817e-05
-2.96045e-07
1.26046e-05
-3.08704e-07
1.26272e-05
-3.09181e-07
1.2649e-05
-3.02617e-07
1.26698e-05
-2.9377e-07
1.26893e-05
-2.84305e-07
1.27076e-05
-2.74906e-07
1.27247e-05
-2.66096e-07
1.27406e-05
-2.58136e-07
1.27554e-05
-2.51043e-07
1.27691e-05
-2.4469e-07
1.27818e-05
-2.38898e-07
1.27934e-05
-2.33468e-07
1.28041e-05
-2.28278e-07
1.28138e-05
-2.23364e-07
1.28225e-05
-2.18979e-07
-2.16494e-07
1.28302e-05
1.25186e-05
-1.56497e-07
1.25435e-05
-2.86646e-07
1.25662e-05
-3.02304e-07
1.25911e-05
-3.20918e-07
1.26159e-05
-3.33543e-07
1.26396e-05
-3.32873e-07
1.26617e-05
-3.24756e-07
1.2682e-05
-3.14025e-07
1.27002e-05
-3.02514e-07
1.27163e-05
-2.91043e-07
1.27304e-05
-2.80195e-07
1.27426e-05
-2.7025e-07
1.27527e-05
-2.61232e-07
1.27611e-05
-2.5301e-07
1.27676e-05
-2.45391e-07
1.27723e-05
-2.38171e-07
1.27752e-05
-2.31202e-07
1.27763e-05
-2.24526e-07
1.27756e-05
-2.18236e-07
-2.14041e-07
1.27732e-05
1.25233e-05
-1.79812e-07
1.25543e-05
-3.17662e-07
1.25822e-05
-3.30162e-07
1.26114e-05
-3.50082e-07
1.26384e-05
-3.60581e-07
1.2662e-05
-3.56475e-07
1.26818e-05
-3.44591e-07
1.26976e-05
-3.29796e-07
1.27092e-05
-3.14108e-07
1.27167e-05
-2.9851e-07
1.27201e-05
-2.83644e-07
1.27197e-05
-2.69795e-07
1.27154e-05
-2.56982e-07
1.27075e-05
-2.45064e-07
1.26959e-05
-2.33845e-07
1.26809e-05
-2.23132e-07
1.26624e-05
-2.12781e-07
1.26408e-05
-2.02889e-07
1.26159e-05
-1.9335e-07
-1.86732e-07
1.25886e-05
1.25407e-05
-2.20546e-07
1.25884e-05
-3.65309e-07
1.2628e-05
-3.69806e-07
1.26609e-05
-3.82985e-07
1.26833e-05
-3.82955e-07
1.26942e-05
-3.67351e-07
1.2694e-05
-3.44415e-07
1.26833e-05
-3.19088e-07
1.26628e-05
-2.93574e-07
1.26333e-05
-2.69006e-07
1.25957e-05
-2.46081e-07
1.2551e-05
-2.25095e-07
1.25001e-05
-2.06097e-07
1.2444e-05
-1.88997e-07
1.23838e-05
-1.7364e-07
1.23206e-05
-1.59864e-07
1.22553e-05
-1.47506e-07
1.2189e-05
-1.36593e-07
1.21225e-05
-1.2683e-07
-1.20591e-07
1.20563e-05
1.26413e-05
-3.61816e-07
1.27047e-05
-4.28783e-07
1.27223e-05
-3.87334e-07
1.26942e-05
-3.54913e-07
1.26301e-05
-3.18864e-07
1.25383e-05
-2.75501e-07
1.24266e-05
-2.32708e-07
1.23019e-05
-1.94398e-07
1.21699e-05
-1.61636e-07
1.20354e-05
-1.34436e-07
1.19017e-05
-1.12456e-07
1.17717e-05
-9.50992e-08
1.16473e-05
-8.16566e-08
1.15297e-05
-7.13848e-08
1.14196e-05
-6.35746e-08
1.13174e-05
-5.75991e-08
1.12228e-05
-5.29522e-08
1.11355e-05
-4.9324e-08
1.10552e-05
-4.65063e-08
-4.51593e-08
1.09798e-05
1.21382e-05
1.17094e-05
1.13221e-05
1.09672e-05
1.06483e-05
1.03728e-05
1.01401e-05
9.94568e-06
9.78405e-06
9.64961e-06
9.53715e-06
9.44206e-06
9.3604e-06
9.28901e-06
9.22544e-06
9.16784e-06
9.11489e-06
9.06556e-06
9.01906e-06
8.9739e-06
8.60142e-06
3.0099e-08
1.52307e-07
8.38936e-06
-9.89353e-09
2.21945e-07
8.15699e-06
-5.94976e-08
2.91875e-07
7.96053e-06
-1.00726e-07
2.97182e-07
7.81386e-06
-1.39918e-07
2.8659e-07
7.71431e-06
-1.70976e-07
2.70529e-07
7.65393e-06
-1.93723e-07
2.54096e-07
7.62217e-06
-2.09273e-07
2.41032e-07
7.60927e-06
-2.19052e-07
2.31961e-07
7.60802e-06
-2.2484e-07
2.26088e-07
7.61384e-06
-2.28378e-07
2.22555e-07
7.62398e-06
-2.30845e-07
2.20704e-07
7.63703e-06
-2.33445e-07
2.20398e-07
7.65216e-06
-2.36715e-07
2.21583e-07
7.66883e-06
-2.4086e-07
2.24189e-07
7.68661e-06
-2.45942e-07
2.28168e-07
7.7051e-06
-2.5196e-07
2.33465e-07
7.72401e-06
-2.58958e-07
2.4005e-07
7.74309e-06
-2.66974e-07
2.47893e-07
7.76217e-06
-2.76046e-07
2.56964e-07
7.78113e-06
-2.86221e-07
2.6726e-07
7.79989e-06
-2.97545e-07
2.7879e-07
7.81837e-06
-3.10048e-07
2.91566e-07
7.83652e-06
-3.23751e-07
3.05596e-07
7.85431e-06
-3.38673e-07
3.20892e-07
7.87168e-06
-3.54828e-07
3.37458e-07
7.8886e-06
-3.72224e-07
3.55296e-07
7.90507e-06
-3.90863e-07
3.74399e-07
7.92105e-06
-4.10741e-07
3.94758e-07
7.93654e-06
-4.31843e-07
4.16356e-07
7.95152e-06
-4.54148e-07
4.39167e-07
7.96598e-06
-4.77624e-07
4.63161e-07
7.97992e-06
-5.02235e-07
4.883e-07
7.99331e-06
-5.27936e-07
5.1454e-07
8.00616e-06
-5.54676e-07
5.41831e-07
8.01844e-06
-5.82401e-07
5.70115e-07
8.03016e-06
-6.11048e-07
5.99331e-07
8.0413e-06
-6.40551e-07
6.29412e-07
8.05185e-06
-6.7084e-07
6.60287e-07
8.06181e-06
-7.0184e-07
6.9188e-07
8.07117e-06
-7.33474e-07
7.24115e-07
8.07992e-06
-7.6566e-07
7.56909e-07
8.08806e-06
-7.98317e-07
7.90181e-07
8.09557e-06
-8.31363e-07
8.23848e-07
8.10246e-06
-8.64715e-07
8.57825e-07
8.10873e-06
-8.9829e-07
8.92029e-07
8.11435e-06
-9.32004e-07
9.26376e-07
8.11934e-06
-9.65774e-07
9.60782e-07
8.1237e-06
-9.99519e-07
9.95165e-07
8.12741e-06
-1.03316e-06
1.02944e-06
8.13049e-06
-1.06661e-06
1.06353e-06
8.13293e-06
-1.09979e-06
1.09735e-06
8.13474e-06
-1.13263e-06
1.13082e-06
8.13591e-06
-1.16505e-06
1.16388e-06
8.13646e-06
-1.19698e-06
1.19643e-06
8.13639e-06
-1.22836e-06
1.22843e-06
8.13571e-06
-1.25911e-06
1.25979e-06
8.13443e-06
-1.28917e-06
1.29045e-06
8.13255e-06
-1.31849e-06
1.32036e-06
8.1301e-06
-1.347e-06
1.34946e-06
8.12707e-06
-1.37467e-06
1.37769e-06
8.1235e-06
-1.40144e-06
1.40502e-06
8.11938e-06
-1.42728e-06
1.43139e-06
8.11475e-06
-1.45214e-06
1.45677e-06
8.10962e-06
-1.476e-06
1.48114e-06
8.104e-06
-1.49883e-06
1.50445e-06
8.09792e-06
-1.52061e-06
1.52669e-06
8.09141e-06
-1.54133e-06
1.54784e-06
8.08449e-06
-1.56096e-06
1.56789e-06
8.07717e-06
-1.57951e-06
1.58683e-06
8.0695e-06
-1.59699e-06
1.60466e-06
8.06149e-06
-1.61338e-06
1.62139e-06
8.05318e-06
-1.62871e-06
1.63701e-06
8.0446e-06
-1.64298e-06
1.65156e-06
8.03578e-06
-1.65622e-06
1.66504e-06
8.02675e-06
-1.66845e-06
1.67748e-06
8.01755e-06
-1.67971e-06
1.68891e-06
8.00821e-06
-1.69002e-06
1.69936e-06
7.99876e-06
-1.69943e-06
1.70888e-06
7.98926e-06
-1.70798e-06
1.71749e-06
7.97972e-06
-1.71572e-06
1.72526e-06
7.9702e-06
-1.7227e-06
1.73222e-06
7.96073e-06
-1.72897e-06
1.73844e-06
7.95135e-06
-1.73459e-06
1.74398e-06
7.9421e-06
-1.73963e-06
1.74889e-06
7.93302e-06
-1.74416e-06
1.75324e-06
7.92415e-06
-1.74823e-06
1.7571e-06
7.91553e-06
-1.75192e-06
1.76053e-06
7.90721e-06
-1.7553e-06
1.76362e-06
7.89923e-06
-1.75846e-06
1.76644e-06
7.89162e-06
-1.76145e-06
1.76906e-06
7.88442e-06
-1.76436e-06
1.77156e-06
7.87768e-06
-1.76728e-06
1.77401e-06
7.87144e-06
-1.77026e-06
1.7765e-06
7.86573e-06
-1.7734e-06
1.77911e-06
7.8606e-06
-1.77677e-06
1.7819e-06
7.85607e-06
-1.78043e-06
1.78496e-06
7.8522e-06
-1.78448e-06
1.78835e-06
7.849e-06
-1.78897e-06
1.79216e-06
7.84652e-06
-1.79397e-06
1.79644e-06
7.8448e-06
-1.79955e-06
1.80127e-06
7.84385e-06
-1.80576e-06
1.80671e-06
7.84371e-06
-1.81267e-06
1.8128e-06
7.84442e-06
-1.82031e-06
1.81961e-06
7.84598e-06
-1.82874e-06
1.82717e-06
7.84844e-06
-1.83799e-06
1.83554e-06
7.85181e-06
-1.84809e-06
1.84472e-06
7.85611e-06
-1.85906e-06
1.85476e-06
7.86137e-06
-1.87092e-06
1.86567e-06
7.86758e-06
-1.88366e-06
1.87745e-06
7.87478e-06
-1.89729e-06
1.89009e-06
7.88295e-06
-1.91178e-06
1.9036e-06
7.89212e-06
-1.92711e-06
1.91794e-06
7.90229e-06
-1.94324e-06
1.93307e-06
7.91344e-06
-1.96012e-06
1.94896e-06
7.92558e-06
-1.97768e-06
1.96554e-06
7.93871e-06
-1.99587e-06
1.98275e-06
7.9528e-06
-2.01458e-06
2.00049e-06
7.96784e-06
-2.03372e-06
2.01868e-06
7.98381e-06
-2.05318e-06
2.03721e-06
8.00069e-06
-2.07283e-06
2.05596e-06
8.01844e-06
-2.09254e-06
2.07479e-06
8.03704e-06
-2.11215e-06
2.09356e-06
8.05643e-06
-2.13152e-06
2.11212e-06
8.07659e-06
-2.15045e-06
2.1303e-06
8.09745e-06
-2.16878e-06
2.14792e-06
8.11897e-06
-2.18631e-06
2.16479e-06
8.14109e-06
-2.20284e-06
2.18072e-06
8.16374e-06
-2.21816e-06
2.1955e-06
8.18686e-06
-2.23204e-06
2.20892e-06
8.21037e-06
-2.24427e-06
2.22076e-06
8.2342e-06
-2.25461e-06
2.23078e-06
8.25827e-06
-2.26283e-06
2.23877e-06
8.28249e-06
-2.2687e-06
2.24448e-06
8.30677e-06
-2.27197e-06
2.24768e-06
8.33102e-06
-2.2724e-06
2.24814e-06
8.35515e-06
-2.26975e-06
2.24562e-06
8.37907e-06
-2.26379e-06
2.23988e-06
8.40266e-06
-2.25428e-06
2.23069e-06
8.42584e-06
-2.241e-06
2.21783e-06
8.4485e-06
-2.22373e-06
2.20107e-06
8.47054e-06
-2.20225e-06
2.18021e-06
8.49185e-06
-2.17636e-06
2.15504e-06
8.51235e-06
-2.14586e-06
2.12536e-06
8.53192e-06
-2.11057e-06
2.091e-06
8.55048e-06
-2.07032e-06
2.05177e-06
8.56791e-06
-2.02495e-06
2.00752e-06
8.58412e-06
-1.97431e-06
1.9581e-06
8.59902e-06
-1.91828e-06
1.90338e-06
8.61251e-06
-1.85673e-06
1.84324e-06
8.6245e-06
-1.78956e-06
1.77757e-06
8.63489e-06
-1.71667e-06
1.70628e-06
8.64359e-06
-1.63798e-06
1.62928e-06
8.65052e-06
-1.55344e-06
1.54652e-06
8.65557e-06
-1.46298e-06
1.45793e-06
8.65866e-06
-1.36657e-06
1.36348e-06
8.65969e-06
-1.26415e-06
1.26312e-06
8.65857e-06
-1.15571e-06
1.15683e-06
8.65522e-06
-1.04123e-06
1.04458e-06
8.64954e-06
-9.20684e-07
9.26363e-07
8.64145e-06
-7.94058e-07
8.02153e-07
8.63085e-06
-6.61334e-07
6.71932e-07
8.61767e-06
-5.22488e-07
5.35672e-07
8.60182e-06
-3.77487e-07
3.93337e-07
8.58323e-06
-2.26288e-07
2.44877e-07
8.56183e-06
-6.88396e-08
9.02354e-08
8.53757e-06
9.49446e-08
-7.0681e-08
8.51038e-06
2.65188e-07
-2.38005e-07
8.48024e-06
4.42044e-07
-4.11902e-07
8.44711e-06
6.25713e-07
-5.92585e-07
8.41099e-06
8.16453e-07
-7.80325e-07
8.37186e-06
1.01459e-06
-9.75462e-07
8.32976e-06
1.22052e-06
-1.17842e-06
8.28472e-06
1.43475e-06
-1.38971e-06
8.23679e-06
1.65789e-06
-1.60996e-06
8.18606e-06
1.89068e-06
-1.83994e-06
8.13261e-06
2.13402e-06
-2.08057e-06
8.07657e-06
2.38898e-06
-2.33295e-06
8.01808e-06
2.6569e-06
-2.5984e-06
7.95729e-06
2.93933e-06
-2.87853e-06
7.89437e-06
3.2382e-06
-3.17527e-06
7.8295e-06
3.55583e-06
-3.49096e-06
7.76288e-06
3.89507e-06
-3.82845e-06
7.6947e-06
4.25943e-06
-4.19125e-06
7.62514e-06
4.65329e-06
-4.58372e-06
7.55434e-06
5.08214e-06
-5.01135e-06
7.48242e-06
5.55303e-06
-5.48111e-06
7.40938e-06
6.07507e-06
-6.00203e-06
7.3351e-06
6.66024e-06
-6.58596e-06
7.25916e-06
7.32443e-06
-7.24849e-06
7.1807e-06
8.08848e-06
-8.01002e-06
7.09803e-06
8.97908e-06
-8.8964e-06
7.00808e-06
1.00286e-05
-9.93861e-06
6.90579e-06
1.12738e-05
-1.11715e-05
6.78222e-06
1.2755e-05
-1.26314e-05
6.62558e-06
1.4515e-05
-1.43584e-05
6.40553e-06
1.66078e-05
-1.63877e-05
6.12371e-06
1.9117e-05
-1.88351e-05
5.55594e-06
2.22956e-05
-2.17278e-05
2.9396e-05
-2.97155e-05
5.87538e-06
1.09737e-05
6.75793e-08
1.09077e-05
5.61405e-08
1.08089e-05
3.93366e-08
1.06878e-05
2.03895e-08
1.05463e-05
1.57474e-09
1.03916e-05
-1.63056e-08
1.02319e-05
-3.40253e-08
1.00749e-05
-5.23078e-08
9.92703e-06
-7.114e-08
9.79254e-06
-9.035e-08
9.67366e-06
-1.095e-07
9.5704e-06
-1.27586e-07
9.48174e-06
-1.4479e-07
9.40581e-06
-1.60787e-07
9.3406e-06
-1.7565e-07
9.28428e-06
-1.89616e-07
9.23532e-06
-2.03003e-07
9.19259e-06
-2.16223e-07
9.15517e-06
-2.29561e-07
9.12236e-06
-2.43232e-07
9.09353e-06
-2.57395e-07
9.06816e-06
-2.72168e-07
9.04575e-06
-2.87639e-07
9.02589e-06
-3.0389e-07
9.00821e-06
-3.20998e-07
8.99242e-06
-3.39035e-07
8.97825e-06
-3.58059e-07
8.9655e-06
-3.78109e-07
8.95397e-06
-3.99209e-07
8.94349e-06
-4.21367e-07
8.93392e-06
-4.44578e-07
8.92512e-06
-4.68826e-07
8.91698e-06
-4.94087e-07
8.90937e-06
-5.20329e-07
8.90221e-06
-5.47515e-07
8.89541e-06
-5.75598e-07
8.88888e-06
-6.04526e-07
8.88257e-06
-6.3424e-07
8.87641e-06
-6.64674e-07
8.87032e-06
-6.9576e-07
8.86428e-06
-7.27424e-07
8.85821e-06
-7.59592e-07
8.85208e-06
-7.92185e-07
8.84584e-06
-8.25126e-07
8.83946e-06
-8.58334e-07
8.8329e-06
-8.91731e-07
8.82613e-06
-9.25236e-07
8.81912e-06
-9.58768e-07
8.81186e-06
-9.9225e-07
8.8043e-06
-1.0256e-06
8.79644e-06
-1.05874e-06
8.78825e-06
-1.0916e-06
8.77972e-06
-1.1241e-06
8.77084e-06
-1.15617e-06
8.76159e-06
-1.18774e-06
8.75197e-06
-1.21874e-06
8.74198e-06
-1.24911e-06
8.7316e-06
-1.27879e-06
8.72084e-06
-1.30772e-06
8.70969e-06
-1.33586e-06
8.69817e-06
-1.36315e-06
8.68628e-06
-1.38955e-06
8.67401e-06
-1.41501e-06
8.66139e-06
-1.43952e-06
8.64842e-06
-1.46303e-06
8.63512e-06
-1.48553e-06
8.6215e-06
-1.50699e-06
8.60757e-06
-1.5274e-06
8.59337e-06
-1.54676e-06
8.5789e-06
-1.56505e-06
8.56419e-06
-1.58228e-06
8.54927e-06
-1.59846e-06
8.53416e-06
-1.61359e-06
8.51888e-06
-1.6277e-06
8.50348e-06
-1.64081e-06
8.48796e-06
-1.65294e-06
8.47238e-06
-1.66413e-06
8.45676e-06
-1.6744e-06
8.44113e-06
-1.68381e-06
8.42554e-06
-1.69239e-06
8.41001e-06
-1.70019e-06
8.39458e-06
-1.70727e-06
8.37929e-06
-1.71368e-06
8.36419e-06
-1.71949e-06
8.3493e-06
-1.72475e-06
8.33467e-06
-1.72953e-06
8.32034e-06
-1.7339e-06
8.30635e-06
-1.73793e-06
8.29274e-06
-1.74169e-06
8.27955e-06
-1.74526e-06
8.26681e-06
-1.74871e-06
8.25457e-06
-1.75213e-06
8.24287e-06
-1.75558e-06
8.23175e-06
-1.75914e-06
8.22124e-06
-1.76289e-06
8.21139e-06
-1.76691e-06
8.20222e-06
-1.77127e-06
8.19378e-06
-1.77604e-06
8.1861e-06
-1.78128e-06
8.17921e-06
-1.78708e-06
8.17315e-06
-1.79348e-06
8.16794e-06
-1.80055e-06
8.16362e-06
-1.80834e-06
8.1602e-06
-1.8169e-06
8.15773e-06
-1.82627e-06
8.15621e-06