/*--------------------------------*- C++ -*----------------------------------*\
| =========                 |                                                 |
| \\      /  F ield         | OpenFOAM: The Open Source CFD Toolbox           |
|  \\    /   O peration     | Version:  2.4.0                                 |
|   \\  /    A nd           | Web:      www.OpenFOAM.org                      |
|    \\/     M anipulation  |                                                 |
\*---------------------------------------------------------------------------*/
FoamFile
{
    version     2.0;
    format      ascii;
    class       volScalarField;
    location    "0.117";
    object      k_0;
}
// * * * * * * * * * * * * * * * * * * * * * * * * * * * * * * * * * * * * * //

dimensions      [0 2 -2 0 0 0 0];

internalField   nonuniform List<scalar> 
17600
(
9.29733
7.40018
5.13919
3.91808
3.35757
2.93339
2.72076
2.43848
2.37477
2.15904
2.16329
1.99126
2.04531
1.86548
1.93251
1.85193
1.81029
1.88022
1.80812
1.73049
4.5158
6.1922
5.85278
5.03774
4.44246
3.9076
3.62945
3.26783
3.17322
2.88399
2.87097
2.66301
2.68941
2.49852
2.54098
2.45528
2.36404
2.44085
2.33783
2.34307
1.33686
3.26565
4.00969
3.95753
3.78243
3.43841
3.25418
2.96906
2.89344
2.65481
2.63252
2.45838
2.46168
2.32303
2.32297
2.27495
2.17495
2.20169
2.15995
2.11194
0.210322
1.18407
1.94256
2.31494
2.52648
2.50624
2.48497
2.3685
2.33866
2.20057
2.18605
2.0698
2.06691
1.98575
1.96201
1.93658
1.87583
1.84103
1.84178
1.81213
0.026358
0.253701
0.653659
0.95331
1.26046
1.40812
1.5675
1.58142
1.63048
1.60666
1.62109
1.57852
1.58541
1.56467
1.53122
1.52619
1.5175
1.46099
1.46374
1.45398
0.00279181
0.041981
0.14396
0.256265
0.430609
0.544074
0.729925
0.79979
0.899245
0.956221
1.01547
1.02534
1.05323
1.08904
1.07317
1.08013
1.10427
1.07243
1.06678
1.05475
0.000295258
0.00610474
0.0211404
0.0467192
0.0999905
0.136108
0.225794
0.289439
0.335432
0.423243
0.470456
0.518301
0.544182
0.623633
0.623523
0.639819
0.684571
0.681332
0.678787
0.668799
5.36295e-05
0.000832358
0.0027374
0.00649233
0.0158971
0.0235508
0.0443567
0.0728178
0.0865886
0.124648
0.146828
0.185652
0.199971
0.257505
0.26382
0.28636
0.321567
0.337429
0.34219
0.347383
2.76804e-05
0.000133437
0.000420046
0.000928282
0.00215567
0.00321173
0.00617204
0.0125027
0.0156891
0.0247895
0.0308885
0.0446801
0.0497768
0.0728853
0.0761812
0.0898689
0.103704
0.115764
0.120801
0.130346
2.57378e-05
4.46141e-05
9.36511e-05
0.000149765
0.000361345
0.000494732
0.000855297
0.00176576
0.00225217
0.00354788
0.004646
0.00728738
0.00821504
0.0137902
0.0147113
0.0188114
0.022742
0.0260007
0.0278604
0.0308939
2.43871e-05
5.21885e-05
6.41535e-05
6.57058e-05
0.00012871
0.000169783
0.000264054
0.000441316
0.000485993
0.000609898
0.000846905
0.00114536
0.00117565
0.00199741
0.00214379
0.00277313
0.0035736
0.00399102
0.00432637
0.00461167
2.28352e-05
6.60114e-05
6.26672e-05
6.34512e-05
9.22711e-05
0.000114992
0.000152636
0.000191653
0.000194128
0.000245215
0.000321567
0.000333841
0.000331141
0.000427611
0.000430524
0.000464655
0.000587906
0.000666214
0.000688057
0.000679439
2.11547e-05
3.88538e-05
4.5127e-05
9.50605e-05
0.00010527
0.000112228
0.00014427
0.000146229
0.000143982
0.000184344
0.000198456
0.000202852
0.000222006
0.000239871
0.000226946
0.000227732
0.000251369
0.000278997
0.000277197
0.000271433
2.10019e-05
3.22861e-05
5.90806e-05
9.78994e-05
9.97981e-05
0.000108876
0.000125199
0.000117348
0.000119043
0.000123547
0.000125817
0.000143102
0.000172415
0.000179517
0.000177292
0.000178948
0.000179354
0.000184149
0.00018922
0.000200705
2.12184e-05
3.23238e-05
8.55415e-05
8.57713e-05
8.82472e-05
9.92148e-05
9.24798e-05
9.16144e-05
9.6044e-05
9.97689e-05
0.000105816
0.000130628
0.000135116
0.00014102
0.000149425
0.000147497
0.000145109
0.000146139
0.000151699
0.000160503
2.26244e-05
3.52197e-05
5.41751e-05
5.23158e-05
6.46761e-05
6.47654e-05
6.57828e-05
7.54612e-05
7.68515e-05
7.89079e-05
8.45398e-05
9.14882e-05
9.23124e-05
9.8082e-05
0.000108047
0.000106315
0.000106066
0.000108983
0.000115496
0.000114944
2.09785e-05
3.27203e-05
3.62855e-05
4.61324e-05
5.38593e-05
5.7689e-05
6.05329e-05
7.59275e-05
7.40588e-05
7.33288e-05
7.8938e-05
7.96041e-05
8.03234e-05
9.02911e-05
9.38304e-05
9.13397e-05
9.23108e-05
9.32345e-05
9.76083e-05
9.86267e-05
2.05677e-05
2.99237e-05
3.33769e-05
4.05836e-05
4.83905e-05
5.04202e-05
5.78139e-05
6.14586e-05
6.06606e-05
6.30445e-05
6.37804e-05
6.41216e-05
6.56969e-05
7.07044e-05
7.0362e-05
7.01103e-05
7.12563e-05
7.18033e-05
7.20709e-05
7.86757e-05
2.05167e-05
2.8119e-05
3.83358e-05
4.08956e-05
4.58753e-05
4.90308e-05
5.06212e-05
5.32297e-05
5.48249e-05
5.84123e-05
5.83355e-05
5.81734e-05
5.82547e-05
5.92101e-05
6.15581e-05
6.31645e-05
6.45226e-05
6.41672e-05
6.33036e-05
7.7327e-05
2.10818e-05
2.83326e-05
3.22226e-05
4.1687e-05
4.67073e-05
4.81202e-05
4.82419e-05
5.02915e-05
5.14803e-05
5.18989e-05
5.42866e-05
5.50055e-05
5.50134e-05
5.60192e-05
5.63262e-05
5.65061e-05
5.71153e-05
5.70716e-05
5.7367e-05
6.67637e-05
2.07026e-05
2.56724e-05
3.3496e-05
4.8832e-05
4.85522e-05
4.52802e-05
4.5517e-05
4.59838e-05
4.69174e-05
5.13124e-05
5.51792e-05
5.50589e-05
5.29668e-05
5.26921e-05
5.24181e-05
5.23974e-05
5.33619e-05
5.40285e-05
5.71863e-05
5.8302e-05
2.06472e-05
2.52736e-05
4.20758e-05
4.60646e-05
4.32715e-05
4.02639e-05
4.1149e-05
4.38087e-05
4.99433e-05
5.56931e-05
5.60046e-05
5.31858e-05
4.99371e-05
4.97378e-05
5.04628e-05
5.10597e-05
5.34462e-05
5.42856e-05
5.63114e-05
6.45158e-05
2.06737e-05
2.96518e-05
4.07256e-05
3.75544e-05
3.60419e-05
3.85053e-05
4.67468e-05
5.2496e-05
5.62188e-05
5.67486e-05
5.35588e-05
4.8993e-05
4.83385e-05
5.03166e-05
5.2717e-05
5.54965e-05
5.65772e-05
5.69514e-05
5.76843e-05
6.42456e-05
2.0716e-05
3.14015e-05
3.44287e-05
3.3246e-05
3.61193e-05
5.21133e-05
5.74045e-05
5.76952e-05
5.66708e-05
5.16814e-05
4.89402e-05
4.91449e-05
5.18919e-05
5.90337e-05
6.16774e-05
6.20124e-05
6.12302e-05
6.12333e-05
6.21941e-05
6.62764e-05
2.08853e-05
2.92535e-05
3.12947e-05
3.62206e-05
5.53089e-05
5.96817e-05
5.74589e-05
5.20225e-05
5.10473e-05
5.04187e-05
5.16973e-05
5.97903e-05
6.51221e-05
6.76154e-05
6.76553e-05
6.52943e-05
6.37565e-05
6.34727e-05
6.34161e-05
7.27102e-05
2.10999e-05
2.70667e-05
3.38202e-05
5.32043e-05
5.6297e-05
5.30347e-05
4.90182e-05
4.94651e-05
5.50523e-05
6.32245e-05
6.66608e-05
7.09575e-05
7.1244e-05
7.14885e-05
7.04059e-05
6.85868e-05
6.90593e-05
6.98218e-05
7.25588e-05
8.45569e-05
2.14505e-05
2.78284e-05
4.33832e-05
5.13201e-05
5.01578e-05
4.90292e-05
5.11736e-05
6.32424e-05
7.51298e-05
7.55679e-05
7.39129e-05
7.56439e-05
7.58269e-05
7.80666e-05
8.03747e-05
8.24892e-05
8.58905e-05
9.22569e-05
0.000109379
0.000167188
2.16474e-05
2.88134e-05
4.6284e-05
4.82634e-05
5.23595e-05
6.18308e-05
7.91338e-05
8.13192e-05
8.38452e-05
8.07062e-05
8.19338e-05
9.30146e-05
9.80513e-05
0.000114248
0.00012167
0.000130775
0.000150866
0.000204297
0.000344148
0.000737344
2.23908e-05
3.01595e-05
5.4049e-05
5.91998e-05
7.8687e-05
8.53863e-05
9.58995e-05
9.72062e-05
0.000112458
0.000116636
0.000151502
0.000201655
0.000219356
0.000308796
0.000357993
0.000454773
0.000664265
0.00119013
0.00222096
0.00469957
2.30208e-05
3.31122e-05
7.29959e-05
8.74767e-05
0.000112653
0.000137447
0.000165344
0.000206699
0.000372922
0.00043262
0.000662843
0.000973567
0.0011365
0.00191817
0.00240646
0.00344911
0.00505018
0.00900956
0.0140697
0.0262234
2.42453e-05
4.83417e-05
0.000143799
0.000211198
0.000279812
0.000523021
0.000758979
0.00119012
0.00255142
0.00311518
0.00467657
0.007379
0.00874585
0.0139524
0.0170398
0.02381
0.0310982
0.0488005
0.0655781
0.117142
2.8444e-05
0.000147176
0.000566894
0.00100457
0.00162476
0.00393009
0.00599716
0.00946475
0.0187487
0.0227003
0.0321756
0.0460536
0.0526188
0.0740596
0.0858279
0.109344
0.130742
0.178939
0.216098
0.336745
5.0977e-05
0.000876444
0.00358445
0.00709459
0.012509
0.0293841
0.0424292
0.0619581
0.102294
0.117657
0.155205
0.191252
0.209473
0.262414
0.290312
0.331669
0.375507
0.450128
0.501201
0.640591
0.000284764
0.00628966
0.0255104
0.0484816
0.083232
0.160741
0.211809
0.278897
0.371395
0.405515
0.48645
0.532012
0.561182
0.634249
0.663244
0.701418
0.752588
0.817385
0.862851
0.97673
0.00275982
0.0434073
0.152429
0.25247
0.415591
0.575663
0.699902
0.81165
0.917941
0.950131
1.02804
1.044
1.06744
1.10471
1.11746
1.13188
1.16708
1.19669
1.22673
1.289
0.026097
0.262379
0.655212
0.946649
1.2522
1.42812
1.54375
1.59914
1.63144
1.61825
1.62463
1.59371
1.59072
1.57436
1.56637
1.54813
1.55178
1.54458
1.54929
1.54511
0.207927
1.1927
1.9354
2.30895
2.52618
2.51186
2.47775
2.3912
2.32194
2.22434
2.17778
2.07659
2.05573
1.98361
1.95938
1.90512
1.88118
1.82627
1.79542
1.73526
1.32328
3.28212
4.00084
3.95277
3.78425
3.43812
3.24432
2.99949
2.85307
2.69781
2.59896
2.46322
2.42558
2.30208
2.26669
2.17577
2.12073
2.00897
1.93126
1.80399
4.50608
6.20438
5.84562
5.03463
4.44489
3.90015
3.6202
3.29605
3.11571
2.93381
2.81054
2.66131
2.61497
2.45533
2.41139
2.28588
2.20238
2.03758
1.91223
1.70699
9.28752
7.40704
5.12915
3.92078
3.35906
2.92882
2.70705
2.45895
2.32419
2.188
2.10067
1.98401
1.94936
1.81733
1.77155
1.65349
1.57445
1.40819
1.2724
1.06821
1.52529
0.99914
0.664177
0.447135
0.338073
0.326079
0.31681
0.290037
0.220288
0.168999
0.151198
0.151291
0.156753
0.175302
0.2428
0.306185
0.319105
0.30506
0.237519
0.111699
0.0472984
0.0212017
0.0125658
0.00841545
0.00847737
0.00857684
0.00813829
0.00886208
0.0107599
0.0276809
0.0634513
0.320389
0.437664
0.342392
0.228157
0.154691
0.119801
0.111137
0.0949639
0.0847203
0.0679442
0.0567203
0.052623
0.0546722
0.0770795
0.0880677
0.0937638
0.0955656
0.0878757
0.0510033
0.0312218
0.0284253
0.0321461
0.0307441
0.0284456
0.0239899
0.0282244
0.044148
0.100646
0.191424
0.227034
0.213819
0.119567
0.0626138
0.0462927
0.0462382
0.0451114
0.0461906
0.0516324
0.0558206
0.0562999
0.0549115
0.0516859
0.0483384
0.0472672
0.0486915
0.0506718
0.0550503
0.0692234
0.0830457
0.087219
0.085115
0.0710424
0.0551546
0.0423255
0.0323048
0.0261931
0.0234707
0.0220432
0.0198173
0.0183975
0.0180956
0.0180713
0.0192181
0.021784
0.0235885
0.0240578
0.0242841
0.0240969
0.0225819
0.0215257
0.0218265
0.0273217
0.0488219
0.064224
0.0695098
0.0708764
0.0590054
0.044846
0.044579
0.0416636
0.0398782
0.0358054
0.0320898
0.0304937
0.0305528
0.0311561
0.0340235
0.0348789
0.0346688
0.0333325
0.0310311
0.0303385
0.0306006
0.0337873
0.042022
0.0452966
0.0468868
0.0448859
0.0410336
0.0335191
0.0256048
0.0231268
0.0207376
0.0209477
0.0205055
0.0200447
0.0179284
0.0157766
0.0149003
0.0142918
0.0146153
0.0152821
0.0170721
0.0221099
0.0280456
0.04597
0.0544916
0.0715416
0.0847945
0.11706
0.145072
0.156925
0.157351
0.15252
0.129967
0.103608
0.0887463
0.0839366
0.0838787
0.0855857
0.0858696
0.0822586
0.0778592
0.0750236
0.0746443
0.0828492
0.0895867
0.0847236
0.0595646
0.041589
0.0350773
0.0330742
0.0274913
0.0215946
0.0189414
0.0190646
0.0198612
0.0242325
0.0253718
0.0340953
0.0387396
0.0561762
0.0609062
0.0655214
0.0656187
0.0660979
0.0670376
0.0704919
0.0706194
0.0693877
0.0645442
0.0481589
0.032639
0.0207529
0.0149972
0.0125562
0.0127209
0.044921
0.437475
1.86601
1.51595
1.17678
0.752353
0.468837
0.434172
0.462589
0.470237
0.393375
0.296284
0.247306
0.233589
0.236712
0.260248
0.327786
0.346515
0.331347
0.275173
0.13848
0.0562476
0.0261223
0.0131383
0.00854164
0.00701668
0.00694766
0.00758353
0.00696413
0.00854918
0.00975677
0.0210156
0.0486919
0.26031
0.440683
0.356073
0.234088
0.162795
0.123463
0.112794
0.101858
0.0888908
0.0690998
0.0573199
0.0549155
0.0628845
0.0773613
0.0849486
0.0947598
0.0994259
0.0893275
0.047104
0.0262581
0.0188115
0.0128244
0.0112713
0.0118089
0.0159939
0.025792
0.0579755
0.141988
0.213693
0.228439
0.194231
0.0954277
0.0549838
0.0441909
0.0460376
0.0467389
0.0494557
0.0595602
0.0614356
0.0599923
0.0562555
0.0522593
0.0490856
0.0473693
0.0475227
0.0494027
0.0526276
0.0619913
0.0775298
0.0851596
0.0848882
0.0745122
0.0556633
0.0412776
0.0314791
0.026036
0.0240563
0.023392
0.0215575
0.0196082
0.0189106
0.0187281
0.0194686
0.0221017
0.02428
0.0249272
0.0252779
0.0251826
0.0238294
0.0224619
0.022351
0.0256398
0.0427145
0.0596799
0.0651477
0.0673721
0.0628718
0.046453
0.0455186
0.0440271
0.0417602
0.0358231
0.0319448
0.0306261
0.030558
0.0307963
0.0329089
0.0340488
0.0337372
0.0322666
0.0307354
0.0302441
0.0306469
0.0352154
0.042627
0.0452375
0.0460949
0.0437686
0.0392844
0.0313176
0.025109
0.021971
0.0202335
0.020502
0.0200572
0.0199806
0.0182787
0.0162898
0.0148681
0.0141938
0.0144749
0.0146689
0.0160519
0.022057
0.0289714
0.0501968
0.0612378
0.0774961
0.0890405
0.126876
0.158367
0.166876
0.165267
0.1555
0.125219
0.0986513
0.0839931
0.0794309
0.0795016
0.0815845
0.0827821
0.0808773
0.0773521
0.074782
0.074267
0.0809174
0.0884037
0.0842699
0.0593518
0.0408734
0.0349096
0.0326398
0.0261474
0.0215214
0.0191959
0.0199718
0.0206224
0.0236751
0.0242387
0.0331672
0.0374172
0.0562783
0.0611455
0.0658459
0.0660066
0.0674473
0.0691335
0.0719707
0.0747255
0.0729027
0.0691132
0.0528586
0.0378243
0.0258533
0.0159216
0.0151645
0.0134867
0.044484
0.304946
1.72876
1.54562
1.22485
1.0963
0.888438
0.737857
0.679696
0.59925
0.482179
0.372755
0.311435
0.294456
0.299912
0.358025
0.381194
0.365878
0.304983
0.155642
0.0651964
0.0282633
0.0142015
0.00833637
0.00608608
0.0061638
0.00594979
0.00688795
0.00647571
0.00878321
0.00976948
0.0149095
0.0349377
0.167842
0.429372
0.392127
0.24963
0.169532
0.126933
0.115561
0.106161
0.0898762
0.0700654
0.0604994
0.0609533
0.0732064
0.0788509
0.0841434
0.0996407
0.105016
0.0873856
0.0454483
0.0228188
0.0105759
0.00599692
0.00589818
0.00777425
0.0139541
0.0298281
0.0855766
0.17443
0.224613
0.222195
0.163973
0.0791903
0.050215
0.0443074
0.0477511
0.0495492
0.053055
0.0629779
0.0622112
0.060084
0.0555896
0.052027
0.0497783
0.0478991
0.0470726
0.0477675
0.0505066
0.058244
0.0704046
0.0820191
0.0841044
0.0796159
0.0585381
0.0411053
0.0310894
0.027
0.0264612
0.0261342
0.0236719
0.0210428
0.0197357
0.0192441
0.0196963
0.022244
0.0247829
0.0256377
0.026134
0.0261075
0.0249795
0.0234253
0.022989
0.0248886
0.037237
0.0556257
0.0617325
0.0635658
0.0621715
0.0495486
0.0462448
0.044923
0.0433031
0.0364446
0.0322738
0.0309945
0.0303489
0.0302228
0.0315022
0.0329761
0.0327406
0.0310748
0.0300528
0.0298302
0.0308695
0.0374992
0.043212
0.0451283
0.0452279
0.041602
0.0371662
0.0287344
0.0242548
0.0203802
0.0197083
0.0200888
0.0197231
0.01979
0.0185685
0.0164971
0.0148578
0.014207
0.0141312
0.0141347
0.0150314
0.021323
0.0296621
0.0558502
0.0697629
0.0827349
0.0959032
0.139449
0.162277
0.168049
0.166378
0.153005
0.119302
0.092436
0.0785658
0.0750848
0.075347
0.0777333
0.0795805
0.0788413
0.0760439
0.0741192
0.0736967
0.0799408
0.0866748
0.0836911
0.059758
0.04114
0.0349982
0.0317636
0.0253443
0.0217882
0.0202574
0.0215058
0.021774
0.022643
0.0233924
0.0304125
0.0357496
0.0579558
0.0609027
0.0674531
0.0659958
0.069477
0.0698045
0.0770936
0.0786482
0.0785698
0.0742089
0.0611875
0.0414828
0.0292951
0.0175097
0.0179865
0.0148438
0.0434402
0.199526
1.50689
1.36573
1.17136
1.08967
1.01978
0.891316
0.830235
0.760979
0.613058
0.480211
0.418311
0.408553
0.42717
0.428872
0.407761
0.340045
0.171022
0.0727469
0.0312977
0.0145751
0.00775731
0.00493556
0.00433376
0.00498787
0.0051175
0.00626677
0.00614287
0.00877498
0.0104066
0.011984
0.0233994
0.0789728
0.386779
0.402599
0.282224
0.180906
0.132903
0.120513
0.107972
0.0897107
0.0728297
0.0673517
0.0702783
0.0804332
0.0821707
0.0880694
0.107336
0.111192
0.0860138
0.0446195
0.0216319
0.0103367
0.006043
0.00557675
0.00730102
0.0145066
0.041121
0.125378
0.201455
0.22865
0.21466
0.136108
0.0646507
0.0488001
0.0478826
0.0494517
0.0507248
0.0536115
0.0632775
0.0612966
0.0577707
0.0528997
0.0497923
0.0493448
0.0485536
0.0472911
0.0469973
0.0483056
0.0545091
0.0656374
0.0763921
0.0821527
0.0811599
0.0688886
0.0479175
0.0374172
0.0337474
0.0319639
0.0297613
0.0260162
0.0225722
0.0205214
0.0195581
0.01984
0.0224048
0.0252611
0.0262633
0.0268115
0.0268243
0.0259851
0.0243039
0.0235741
0.0246805
0.0332067
0.0509494
0.0586706
0.0603838
0.0605948
0.0542591
0.0475608
0.0453699
0.0438572
0.0369115
0.0325858
0.0310283
0.0299738
0.0296605
0.0307194
0.0317945
0.0313955
0.0296003
0.0290511
0.029349
0.0317077
0.0394183
0.0437094
0.0451617
0.0443468
0.0393592
0.0338861
0.0262654
0.0228038
0.0187792
0.0186766
0.019127
0.0191616
0.0191956
0.0185268
0.0164048
0.0146022
0.0143111
0.0138084
0.0139546
0.0148209
0.0200139
0.0301361
0.0637916
0.0753376
0.0863126
0.103037
0.142861
0.162191
0.168021
0.166878
0.148866
0.11249
0.0861107
0.0733209
0.0707366
0.0710344
0.0738675
0.0766535
0.0766293
0.0750806
0.0732914
0.0726699
0.0782221
0.0851907
0.0828539
0.0601243
0.0416353
0.0352227
0.031947
0.0253787
0.0230087
0.0211787
0.0214365
0.0215323
0.0217976
0.0229234
0.0277587
0.0341972
0.0576888
0.0597702
0.0682534
0.0665528
0.0698545
0.0712617
0.0784993
0.0850228
0.085697
0.081575
0.0684007
0.0456521
0.037016
0.0193582
0.0230922
0.0170607
0.0381399
0.129665
1.28862
1.1269
1.00202
0.976248
0.952545
0.858512
0.752827
0.701889
0.652769
0.589146
0.529682
0.500173
0.481034
0.446153
0.361894
0.180542
0.0788658
0.0335273
0.0147554
0.0073878
0.00441514
0.00325224
0.00298138
0.00351323
0.00411271
0.00517806
0.00569531
0.00801975
0.011604
0.0113438
0.0161982
0.0406945
0.304867
0.394359
0.331299
0.196863
0.148438
0.130566
0.110831
0.0933823
0.0806472
0.0771651
0.0807373
0.0857827
0.0858146
0.0973352
0.117548
0.117554
0.082797
0.0425614
0.0213947
0.010401
0.00634057
0.00594814
0.00798572
0.0190712
0.0613727
0.160948
0.215692
0.229405
0.199472
0.107727
0.0554977
0.0486277
0.0497624
0.0491061
0.0510395
0.0542306
0.0631316
0.0583303
0.0551035
0.0503981
0.0468075
0.046897
0.048124
0.0478237
0.0469543
0.0472848
0.0503887
0.061248
0.0710874
0.0788874
0.0801902
0.0758962
0.062536
0.0518716
0.0444983
0.0384978
0.0333707
0.0279447
0.0235636
0.0209598
0.0198602
0.0200759
0.0228056
0.0257463
0.0267839
0.0273479
0.0273858
0.0267968
0.0251464
0.0241977
0.0247109
0.0303587
0.046435
0.0559234
0.0582892
0.058572
0.0562255
0.0501113
0.0463343
0.0437401
0.0366506
0.0324537
0.0306367
0.029601
0.0294905
0.0302247
0.0305197
0.0297498
0.0283981
0.0283787
0.0291194
0.0334814
0.0408395
0.0442957
0.0451187
0.0430674
0.0368765
0.0302339
0.0244687
0.0205605
0.0174822
0.0173585
0.0177461
0.0184693
0.0184273
0.0181685
0.0163187
0.0142665
0.0140675
0.0137182
0.0139408
0.0147704
0.0177749
0.0311293
0.0699895
0.0776785
0.092467
0.105383
0.141612
0.161611
0.17051
0.169621
0.147171
0.106007
0.0795791
0.0680129
0.0663061
0.0669916
0.0697672
0.0735435
0.0740088
0.0734391
0.0723844
0.0720142
0.0767192
0.0827316
0.0811022
0.0609541
0.0426845
0.0356462
0.0323865
0.0257923
0.023338
0.0221814
0.0214619
0.0217456
0.0221898
0.0234573
0.0268919
0.0339659
0.0560583
0.0579004
0.0687875
0.0642592
0.0720979
0.0713619
0.081484
0.0849919
0.0981022
0.0903634
0.0848058
0.0526907
0.0464259
0.0256645
0.0317523
0.0217424
0.0369306
0.0907675
0.965748
0.888169
0.801118
0.759337
0.759887
0.737844
0.625794
0.558347
0.53963
0.525095
0.498587
0.474448
0.436799
0.348325
0.180897
0.0817792
0.0349414
0.0148084
0.00681131
0.0037034
0.00246188
0.00207046
0.00234961
0.00271352
0.00360605
0.00381101
0.00474012
0.00626673
0.0123302
0.0115396
0.0131919
0.0242123
0.206512
0.370069
0.349175
0.227836
0.172204
0.140059
0.120234
0.107423
0.0907707
0.087285
0.0898002
0.0914526
0.0924228
0.113453
0.129672
0.122442
0.0755735
0.0390075
0.0196383
0.00968884
0.0063332
0.00643559
0.0106498
0.0275632
0.0968782
0.187881
0.22321
0.224389
0.170275
0.0826482
0.052436
0.0489833
0.0485262
0.0461456
0.0521144
0.0560696
0.0623144
0.0564894
0.0533925
0.0492778
0.0453044
0.0446831
0.0464819
0.0477154
0.0470952
0.0469735
0.0483538
0.055974
0.06626
0.0734127
0.0770946
0.0755779
0.0696596
0.0627572
0.0533937
0.0436828
0.0358047
0.0289033
0.0240045
0.0212162
0.0201761
0.0205556
0.0233734
0.0261765
0.0271649
0.0276993
0.0277514
0.027325
0.0258892
0.0248123
0.0248659
0.0285715
0.04301
0.0532463
0.0564081
0.0569922
0.0559016
0.0527591
0.048192
0.0432327
0.0362738
0.031741
0.0301899
0.0294294
0.0294792
0.0301233
0.0300428
0.0287921
0.0279919
0.0281502
0.0296255
0.0356994
0.0424694
0.0447268
0.044841
0.0406925
0.0337931
0.0268746
0.0224472
0.0186481
0.0163416
0.0159903
0.0164326
0.0176876
0.0176498
0.0175295
0.0161058
0.0139655
0.013536
0.0134192
0.0136959
0.0147017
0.0172607
0.0392408
0.0722185
0.0800653
0.0985927
0.106142
0.134205
0.162924
0.178954
0.178068
0.14995
0.100877
0.0732108
0.0627782
0.0618682
0.0627502
0.0660093
0.0708264
0.0715262
0.0713205
0.0708155
0.07071
0.0752395
0.0803793
0.0793178
0.0616394
0.0455688
0.0364998
0.033447
0.0271469
0.0233509
0.0221678
0.0217326
0.022126
0.0223904
0.0230862
0.0267649
0.0374313
0.0558494
0.0578772
0.0633265
0.060643
0.0721696
0.0700299
0.081983
0.0841134
0.11256
0.101542
0.100688
0.0679003
0.0605512
0.0319062
0.0422816
0.0267825
0.0332295
0.0669838
0.621301
0.597465
0.572702
0.526253
0.523774
0.520934
0.466774
0.403967
0.387192
0.371016
0.348998
0.323521
0.278204
0.160581
0.0767699
0.0334839
0.0141182
0.00608437
0.00307914
0.00191519
0.0015739
0.00158019
0.00206921
0.00235212
0.00260563
0.00269074
0.00339256
0.00472724
0.0114451
0.0114463
0.0118215
0.0182976
0.0924396
0.324932
0.340271
0.285882
0.211946
0.15644
0.137564
0.121004
0.101525
0.097495
0.0990846
0.10036
0.107479
0.135664
0.141566
0.119679
0.065857
0.0335618
0.0164706
0.00806153
0.00626962
0.00752778
0.0153974
0.0412593
0.131364
0.206876
0.226465
0.217056
0.133644
0.070851
0.051939
0.0472773
0.0442329
0.0455995
0.0554471
0.0564389
0.0588978
0.0549484
0.049675
0.0464655
0.0426919
0.042803
0.0447983
0.0476003
0.0473137
0.0470493
0.0475654
0.0509705
0.0615935
0.0691913
0.0724957
0.0731258
0.0701953
0.0657544
0.057381
0.0462724
0.0368648
0.0290865
0.0240225
0.0213344
0.0205792
0.0211238
0.0239064
0.0264976
0.0274617
0.0280669
0.0281397
0.0276966
0.0265019
0.0253014
0.0250643
0.0274494
0.0400325
0.0508285
0.0548592
0.0559098
0.0552323
0.0535533
0.0500652
0.0433064
0.0362785
0.0315106
0.0300196
0.0294047
0.0297202
0.0303639
0.0301588
0.0286445
0.028097
0.0284099
0.0312879
0.0384046
0.043786
0.0449146
0.0442189
0.0373043
0.0309958
0.0240282
0.0206465
0.0169242
0.0152691
0.0147367
0.015313
0.0165431
0.0166754
0.0166252
0.0155382
0.0136713
0.0129791
0.0129921
0.0133164
0.0145443
0.0174875
0.0472052
0.0722905
0.0810601
0.101446
0.104323
0.131475
0.172829
0.195235
0.191142
0.151523
0.096289
0.0665658
0.0575821
0.0574991
0.0588073
0.0620802
0.0675168
0.0692852
0.0695621
0.0693301
0.0691651
0.0732868
0.0782502
0.0776342
0.0617946
0.0476234
0.0375034
0.0360589
0.0287449
0.0236004
0.0219887
0.0220286
0.0218834
0.022137
0.0229536
0.0300402
0.0423607
0.0564243
0.0586792
0.0595806
0.0598971
0.062959
0.0632222
0.0780789
0.0801737
0.135925
0.122631
0.135493
0.0866307
0.0916014
0.047996
0.0662403
0.0420424
0.0349004
0.0506834
0.326998
0.315261
0.309964
0.282578
0.283727
0.284195
0.259917
0.226721
0.216276
0.204074
0.187859
0.167365
0.114313
0.0601808
0.0278426
0.0119285
0.00518609
0.00240969
0.00147335
0.00115007
0.00116204
0.00132709
0.00192094
0.00214446
0.00198807
0.00214347
0.00271107
0.00359591
0.0083521
0.0107172
0.0106764
0.0161277
0.0463269
0.242104
0.31438
0.303379
0.267558
0.192127
0.168675
0.143147
0.121684
0.115991
0.117237
0.119502
0.138841
0.155689
0.151358
0.105812
0.0548407
0.0272918
0.01291
0.0072572
0.0066324
0.0096401
0.0228099
0.0602126
0.164816
0.222919
0.228158
0.19878
0.0987224
0.0659772
0.0526651
0.0457362
0.0436859
0.0458649
0.055737
0.0552967
0.053398
0.0528691
0.0455637
0.043413
0.0389367
0.0401078
0.0433898
0.0476565
0.0479986
0.0475848
0.0477282
0.0489256
0.0548498
0.0645846
0.0686029
0.0689241
0.0665943
0.0644484
0.0574157
0.0466027
0.0369724
0.0289675
0.0238546
0.0215669
0.0210732
0.021676
0.0242877
0.0267462
0.0277422
0.0285687
0.028629
0.0280245
0.0267625
0.0255869
0.0253062
0.0267166
0.0369076
0.0480858
0.0531417
0.0551529
0.054885
0.0536853
0.0507068
0.0435736
0.0363899
0.0315457
0.0300339
0.0294725
0.0302889
0.0310707
0.0306306
0.0290172
0.0287789
0.0293579
0.0340531
0.0410976
0.0448611
0.0450583
0.0423088
0.0334459
0.0276821
0.0215472
0.0184799
0.0152497
0.0140719
0.0135639
0.0144055
0.0156131
0.0160276
0.0159529
0.0149793
0.0133001
0.0125782
0.0126658
0.0131844
0.0147108
0.0176806
0.049823
0.0704542
0.0835368
0.101402
0.105014
0.13813
0.193838
0.208086
0.195746
0.145578
0.0910757
0.0618027
0.0530725
0.0529649
0.0546265
0.0588834
0.064404
0.0670369
0.0678835
0.0681304
0.0678195
0.0712661
0.0758857
0.0755513
0.0621272
0.0501026
0.0404507
0.0367851
0.0296732
0.0242396
0.0220409
0.0221695
0.0217385
0.0226587
0.0266158
0.0335631
0.0470719
0.0561993
0.0605049
0.0590787
0.0598111
0.0568117
0.0583037
0.0669645
0.0732985
0.160726
0.158451
0.251217
0.151498
0.148924
0.0791235
0.0707809
0.0550418
0.0416966
0.0482491
0.124254
0.12054
0.114028
0.101889
0.105023
0.105686
0.0958389
0.0823166
0.0767686
0.0717139
0.0645904
0.0537811
0.0341851
0.0181759
0.0084107
0.00378123
0.00190603
0.00107737
0.000850904
0.000839138
0.000861596
0.00120427
0.00156134
0.00172425
0.0016549
0.00195709
0.00270634
0.00336026
0.00496984
0.00861515
0.00932132
0.0138684
0.0310101
0.185918
0.295947
0.307252
0.295279
0.258481
0.226366
0.193212
0.163119
0.148366
0.147662
0.153645
0.170095
0.169562
0.147415
0.0852038
0.0428477
0.0210796
0.0105433
0.00691572
0.00709693
0.0133525
0.0333123
0.0858071
0.191507
0.231148
0.227992
0.164787
0.0846087
0.0652086
0.0564615
0.0465368
0.0442225
0.0470709
0.0543212
0.053804
0.0495643
0.0512731
0.0448523
0.0425332
0.0370159
0.0387555
0.0420897
0.0473355
0.0491356
0.0486752
0.0483262
0.0484971
0.0508016
0.0595767
0.0647371
0.0652375
0.0633908
0.0585982
0.0526683
0.0441812
0.0360218
0.028308
0.0236356
0.0218416
0.021374
0.0218914
0.0243691
0.0270394
0.0281251
0.029234
0.0292573
0.0283748
0.0267794
0.0258004
0.0254588
0.0261958
0.0336891
0.0452088
0.0512026
0.0544152
0.0545502
0.053808
0.0507674
0.0436087
0.0367171
0.0318398
0.0301966
0.0296968
0.031102
0.0323462
0.031747
0.0302543
0.0302144
0.0311709
0.0376211
0.043755
0.0458375
0.0448864
0.0377284
0.030066
0.0248056
0.0204663
0.0174687
0.0141167
0.0126912
0.0122045
0.0132077
0.0146766
0.0153503
0.0153238
0.0144522
0.0128289
0.0121688
0.0122709
0.0134669
0.015344
0.0183771
0.0492293
0.0658959
0.0915999
0.098367
0.105425
0.16739
0.207298
0.208944
0.19439
0.13427
0.0836731
0.057045
0.0490288
0.0489531
0.0507621
0.0552923
0.0612761
0.0646274
0.0660684
0.0666386
0.0661953
0.0692194
0.0738263
0.074786
0.0636167
0.0532966
0.042024
0.0371276
0.0306239
0.0253309
0.0223033
0.0234557
0.0231084
0.0244914
0.0333841
0.035222
0.0514739
0.0542724
0.0650211
0.0595398
0.0581869
0.0545358
0.0576849
0.0555571
0.0633688
0.156094
0.185115
0.252296
0.215402
0.207545
0.144155
0.0985985
0.0639654
0.048086
0.0495349
0.0300291
0.0294141
0.0274847
0.024924
0.0256084
0.025538
0.0233116
0.019269
0.0181695
0.0174141
0.0158888
0.0129293
0.0083506
0.00461108
0.00223917
0.00131271
0.000887793
0.000638277
0.000600059
0.000602813
0.000665858
0.00103364
0.00110902
0.00130855
0.0014307
0.00178071
0.00301991
0.00348444
0.00393959
0.00567795
0.00741221
0.0112174
0.0242087
0.0904543
0.25306
0.300145
0.304929
0.29756
0.279925
0.244649
0.210386
0.1883
0.185414
0.188828
0.187386
0.176741
0.12096
0.0646052
0.0309895
0.0158014
0.00856989
0.00672225
0.00807521
0.0195831
0.046903
0.112536
0.213801
0.239476
0.222242
0.123632
0.080628
0.0691289
0.0636568
0.0491616
0.045586
0.0472964
0.0516271
0.0531631
0.0477712
0.0503606
0.0449619
0.0415841
0.0365576
0.038603
0.041276
0.0464406
0.0505768
0.0505227
0.0493573
0.0483944
0.0489858
0.0532153
0.0615114
0.0628236
0.0615144
0.0564874
0.0479595
0.0394596
0.0322339
0.0267515
0.0233214
0.0218088
0.0211904
0.0216636
0.0243301
0.0276554
0.0290021
0.0302408
0.0301519
0.0287194
0.0268318
0.0259865
0.0254977
0.0258429
0.0307719
0.042472
0.0493244
0.053534
0.0542818
0.0537631
0.0502993
0.0432753
0.0372521
0.0326684
0.0307856
0.0303529
0.0324588
0.0339429
0.0333788
0.0319549
0.0320233
0.0337158
0.0416444
0.046275
0.0465434
0.0432397
0.0322327
0.0264645
0.0224397
0.019754
0.0172094
0.013975
0.0123162
0.0117918
0.0124841
0.0138642
0.0146137
0.0146453
0.0136153
0.0121573
0.011649
0.0118136
0.0139742
0.0159695
0.0194184
0.0404405
0.0647274
0.0942987
0.0988633
0.1116
0.18157
0.206439
0.205882
0.191055
0.130611
0.0779375
0.0518593
0.0450051
0.0452225
0.0473078
0.0524977
0.0583957
0.0624536
0.0644793
0.0652387
0.0647359
0.0674478
0.0722225
0.0744314
0.0660224
0.0563837
0.0466571
0.0380395
0.0306989
0.0287641
0.0241617
0.0241367
0.0242779
0.0255837
0.0281915
0.033456
0.0477897
0.0537728
0.0649322
0.0585691
0.0606895
0.0533473
0.0560984
0.0546641
0.063647
0.102056
0.21062
0.45781
0.321238
0.272554
0.164138
0.13447
0.0812934
0.0571786
0.0531575
0.004508
0.00447497
0.00433805
0.00399202
0.00400399
0.00396666
0.00362159
0.00307608
0.00301326
0.00294306
0.00277126
0.0024243
0.00175003
0.00113583
0.000770531
0.000702807
0.000570068
0.000477775
0.000475452
0.000493561
0.000599496
0.000729563
0.000762148
0.000837015
0.0011185
0.001416
0.00297424
0.00365939
0.00396924
0.00433694
0.00543521
0.00812999
0.0164134
0.0424461
0.133293
0.25857
0.298838
0.298773
0.290534
0.264825
0.239862
0.220209
0.213733
0.207127
0.194345
0.150368
0.0900618
0.0440054
0.0214959
0.0119761
0.00734619
0.0066634
0.00975188
0.0299709
0.061642
0.138926
0.233243
0.246339
0.208623
0.0990229
0.0856164
0.0802648
0.066001
0.0515701
0.0468959
0.0468704
0.0487727
0.0516632
0.0474826
0.0502413
0.0460047
0.0408579
0.0365553
0.0385818
0.0409749
0.0449811
0.0513989
0.0520543
0.0506983
0.0480753
0.0478371
0.0495248
0.0573253
0.0603925
0.0599985
0.0564111
0.0471641
0.0368881
0.0290752
0.0237668
0.0214148
0.0206056
0.0200275
0.0211352
0.0247399
0.0292739
0.0306849
0.0316026
0.0311862
0.0291981
0.0271133
0.0261239
0.0254827
0.0255997
0.0284779
0.0392038
0.0473702
0.0524269
0.0538507
0.0536042
0.0497695
0.0431237
0.0378071
0.0332271
0.0315033
0.0312903
0.0337511
0.0350569
0.0344931
0.0336737
0.033952
0.0376156
0.0457433
0.0483253
0.0472572
0.038495
0.0275222
0.0235565
0.0204395
0.0191613
0.0170961
0.0141115