/*--------------------------------*- C++ -*----------------------------------*\
| =========                 |                                                 |
| \\      /  F ield         | OpenFOAM: The Open Source CFD Toolbox           |
|  \\    /   O peration     | Version:  2.4.0                                 |
|   \\  /    A nd           | Web:      www.OpenFOAM.org                      |
|    \\/     M anipulation  |                                                 |
\*---------------------------------------------------------------------------*/
FoamFile
{
    version     2.0;
    format      ascii;
    class       volVectorField;
    location    "0.117";
    object      U;
}
// * * * * * * * * * * * * * * * * * * * * * * * * * * * * * * * * * * * * * //

dimensions      [0 1 -1 0 0 0 0];

internalField   nonuniform List<vector> 
17600
(
(5.32894 0.309355 0)
(2.98409 0.06067 0)
(2.1981 -0.00151439 0)
(1.8454 -0.00382332 0)
(1.71008 -0.000991458 0)
(1.60377 -0.000179558 0)
(1.55136 -0.000606121 0)
(1.46489 0.001239 0)
(1.45067 -0.0013361 0)
(1.38836 0.000506293 0)
(1.3952 -2.18197e-06 0)
(1.32849 0.000253718 0)
(1.36749 -0.00124073 0)
(1.29446 0.00142379 0)
(1.31823 7.27676e-05 0)
(1.30278 -0.00214929 0)
(1.29719 0.00125991 0)
(1.31849 -0.000210596 0)
(1.33446 1.66925e-05 0)
(1.03089 -0.0578823 0)
(8.60334 0.871884 0)
(6.942 0.383588 0)
(5.82218 0.122006 0)
(5.04679 0.050274 0)
(4.66234 0.0292672 0)
(4.36122 0.0199903 0)
(4.21014 0.0147766 0)
(3.97674 0.0160388 0)
(3.94526 0.00561207 0)
(3.74656 0.00907445 0)
(3.78378 0.00645815 0)
(3.58631 0.00509156 0)
(3.69307 0.000953421 0)
(3.47763 0.00938993 0)
(3.57 -0.00053903 0)
(3.4987 -0.00120298 0)
(3.44842 0.00226052 0)
(3.54062 -0.00253592 0)
(3.49616 0.00609059 0)
(3.2215 -0.164484 0)
(9.86634 1.02199 0)
(9.32742 0.577134 0)
(8.49794 0.241866 0)
(7.62371 0.129266 0)
(7.10939 0.083454 0)
(6.67084 0.0562492 0)
(6.45223 0.0429824 0)
(6.10092 0.0396537 0)
(6.06972 0.0205839 0)
(5.74182 0.0237633 0)
(5.82422 0.0180343 0)
(5.49929 0.0139376 0)
(5.67508 0.00670268 0)
(5.33217 0.0220014 0)
(5.48305 -0.00233759 0)
(5.36957 0.00607118 0)
(5.26075 0.00270787 0)
(5.41591 -0.00520006 0)
(5.3283 0.00769766 0)
(5.04257 -0.230046 0)
(10.1803 0.948184 0)
(10.5357 0.66807 0)
(10.295 0.3309 0)
(9.61671 0.209383 0)
(9.14679 0.150022 0)
(8.65534 0.104176 0)
(8.42626 0.0820898 0)
(7.98265 0.0702875 0)
(7.98073 0.0428747 0)
(7.53401 0.0436305 0)
(7.67479 0.0343771 0)
(7.23205 0.0264382 0)
(7.47649 0.0154385 0)
(7.02787 0.0394764 0)
(7.21671 -0.0052652 0)
(7.08079 0.019021 0)
(6.92479 0.00433742 0)
(7.08977 -0.0109336 0)
(7.01948 0.0172875 0)
(6.77147 -0.259845 0)
(10.1121 0.806564 0)
(10.8678 0.669122 0)
(11.1804 0.356793 0)
(10.8611 0.256108 0)
(10.619 0.206408 0)
(10.1941 0.151583 0)
(10.0447 0.125656 0)
(9.55385 0.103914 0)
(9.62234 0.0693635 0)
(9.08744 0.0671 0)
(9.29687 0.0536434 0)
(8.76319 0.0418761 0)
(9.0701 0.0255418 0)
(8.55327 0.0613842 0)
(8.75848 -0.00926752 0)
(8.61058 0.0346508 0)
(8.45213 0.0102817 0)
(8.5615 -0.0180885 0)
(8.52648 0.0187473 0)
(8.40658 -0.237393 0)
(10.0544 0.692862 0)
(10.7751 0.635734 0)
(11.3675 0.331999 0)
(11.3291 0.252572 0)
(11.3838 0.228893 0)
(11.1262 0.179767 0)
(11.1648 0.161097 0)
(10.7034 0.133512 0)
(10.888 0.0942319 0)
(10.3298 0.0914849 0)
(10.615 0.0731234 0)
(10.0389 0.058934 0)
(10.397 0.0349906 0)
(9.86509 0.0864281 0)
(10.0721 -0.0130896 0)
(9.91069 0.048846 0)
(9.80462 0.020055 0)
(9.83382 -0.0203085 0)
(9.81145 0.0081534 0)
(9.7883 -0.20346 0)
(10.08 0.603669 0)
(10.6192 0.604917 0)
(11.2808 0.298157 0)
(11.3388 0.222094 0)
(11.5679 0.217628 0)
(11.4271 0.177439 0)
(11.6923 0.175164 0)
(11.3183 0.147767 0)
(11.6451 0.10652 0)
(11.1591 0.109859 0)
(11.5305 0.0875221 0)
(10.9793 0.074292 0)
(11.3792 0.0408557 0)
(10.9029 0.111457 0)
(11.1015 -0.015109 0)
(10.9315 0.0589716 0)
(10.9098 0.0302285 0)
(10.8898 -0.0182117 0)
(10.8591 0.00207569 0)
(10.8604 -0.16506 0)
(10.136 0.523607 0)
(10.5236 0.57529 0)
(11.1334 0.273879 0)
(11.2421 0.19269 0)
(11.5283 0.199061 0)
(11.3743 0.158799 0)
(11.778 0.171295 0)
(11.496 0.14776 0)
(11.8591 0.101431 0)
(11.5296 0.114413 0)
(11.9597 0.090774 0)
(11.5023 0.0824768 0)
(11.9139 0.0371321 0)
(11.5911 0.130669 0)
(11.77 -0.0173062 0)
(11.6181 0.0640801 0)
(11.6812 0.0361405 0)
(11.6774 -0.0119729 0)
(11.6328 -0.0101807 0)
(11.633 -0.0627232 0)
(10.1466 0.447134 0)
(10.5286 0.544288 0)
(10.9887 0.256948 0)
(11.151 0.162311 0)
(11.4718 0.182531 0)
(11.2731 0.139736 0)
(11.6681 0.155563 0)
(11.5428 0.146731 0)
(11.7463 0.0871449 0)
(11.6187 0.10929 0)
(12.0002 0.0820541 0)
(11.6831 0.0871501 0)
(12.0022 0.0196985 0)
(11.901 0.139868 0)
(12.0347 -0.0225244 0)
(11.9378 0.0641666 0)
(12.0489 0.0305148 0)
(12.1245 -0.00755777 0)
(12.0769 -0.0157379 0)
(12.0983 -0.0405836 0)
(10.0704 0.373242 0)
(10.5967 0.507286 0)
(10.9024 0.254197 0)
(11.1258 0.128211 0)
(11.4078 0.167954 0)
(11.2334 0.126473 0)
(11.505 0.13174 0)
(11.586 0.145815 0)
(11.5506 0.0757173 0)
(11.6427 0.0943375 0)
(11.8897 0.0730451 0)
(11.7373 0.0883355 0)
(11.9011 0.00303434 0)
(11.9704 0.132846 0)
(12.0385 -0.0213763 0)
(12.0009 0.0503395 0)
(12.1066 0.0281825 0)
(12.2474 -0.0274639 0)
(12.209 -0.00995775 0)
(12.2278 -0.116777 0)
(10.0289 0.303541 0)
(10.5698 0.463514 0)
(10.8344 0.251469 0)
(11.1628 0.102893 0)
(11.2905 0.15501 0)
(11.2397 0.120152 0)
(11.4124 0.102683 0)
(11.5736 0.150812 0)
(11.447 0.0613004 0)
(11.651 0.0802409 0)
(11.7658 0.0590801 0)
(11.739 0.0917551 0)
(11.8479 -0.0131789 0)
(11.9409 0.124936 0)
(11.9976 -0.0218235 0)
(11.9619 0.0407203 0)
(12.0701 0.0157458 0)
(12.2291 -0.0397909 0)
(12.1794 -0.0264548 0)
(12.2117 -0.135369 0)
(10.0655 0.244365 0)
(10.413 0.42237 0)
(10.7311 0.238831 0)
(11.1822 0.0798977 0)
(11.1501 0.14962 0)
(11.2781 0.101177 0)
(11.3984 0.0830281 0)
(11.507 0.148058 0)
(11.4738 0.0512206 0)
(11.6174 0.065494 0)
(11.6435 0.055143 0)
(11.7123 0.0813438 0)
(11.8061 -0.0222545 0)
(11.8832 0.114099 0)
(11.9447 -0.0171516 0)
(11.9234 0.0237836 0)
(12.0164 0.0110708 0)
(12.1556 -0.0581638 0)
(12.1332 -0.0461911 0)
(12.1993 -0.149208 0)
(10.0721 0.19831 0)
(10.2276 0.387958 0)
(10.7446 0.208363 0)
(11.0837 0.0637819 0)
(11.0933 0.139245 0)
(11.3417 0.0769032 0)
(11.3505 0.0680691 0)
(11.4441 0.142972 0)
(11.5219 0.037397 0)
(11.5172 0.066142 0)
(11.5515 0.0455595 0)
(11.6894 0.0685065 0)
(11.7375 -0.0258151 0)
(11.7944 0.0975698 0)
(11.9161 -0.01236 0)
(11.8963 0.0122379 0)
(11.9537 -5.93057e-05 0)
(12.0588 -0.0707504 0)
(12.0806 -0.0711415 0)
(12.1414 -0.142841 0)
(10.0001 0.166165 0)
(10.1891 0.341378 0)
(10.8229 0.172849 0)
(10.919 0.0574638 0)
(11.1541 0.117735 0)
(11.3506 0.057477 0)
(11.2282 0.064534 0)
(11.4285 0.126938 0)
(11.4843 0.0330928 0)
(11.4108 0.0694753 0)
(11.5374 0.0322924 0)
(11.6737 0.0545473 0)
(11.6573 -0.0244696 0)
(11.7312 0.0797525 0)
(11.9031 -0.0146846 0)
(11.8448 0.00180514 0)
(11.9092 -0.00226417 0)
(11.9935 -0.0847084 0)
(12.0368 -0.100276 0)
(12.0584 -0.138686 0)
(9.93911 0.136834 0)
(10.3111 0.283159 0)
(10.7378 0.147458 0)
(10.8642 0.0485039 0)
(11.191 0.0933237 0)
(11.2663 0.0526361 0)
(11.1437 0.0558736 0)
(11.4272 0.106705 0)
(11.4054 0.0338103 0)
(11.3866 0.0628551 0)
(11.5726 0.0169198 0)
(11.6368 0.0456131 0)
(11.6031 -0.0203836 0)
(11.7301 0.0559687 0)
(11.8674 -0.0157589 0)
(11.799 -0.0012908 0)
(11.8974 -0.0181408 0)
(11.9705 -0.0957607 0)
(12.0097 -0.115743 0)
(12.0154 -0.178461 0)
(9.96717 0.102142 0)
(10.3621 0.234968 0)
(10.5866 0.125765 0)
(10.9122 0.0301907 0)
(11.1231 0.0785559 0)
(11.1621 0.0489605 0)
(11.1726 0.0385245 0)
(11.4023 0.0877882 0)
(11.3573 0.0316042 0)
(11.4274 0.0510042 0)
(11.5814 0.00561084 0)
(11.5696 0.0416365 0)
(11.6072 -0.0213141 0)
(11.7441 0.0320792 0)
(11.8059 -0.011265 0)
(11.7895 -0.0139723 0)
(11.9005 -0.0259355 0)
(11.9445 -0.112228 0)
(11.9723 -0.123996 0)
(11.9813 -0.230473 0)
(10.0232 0.0674229 0)
(10.2502 0.196866 0)
(10.5912 0.0979517 0)
(10.9103 0.0116611 0)
(11.0354 0.0770168 0)
(11.1468 0.0315345 0)
(11.2399 0.0205464 0)
(11.3284 0.0739645 0)
(11.3402 0.025882 0)
(11.4606 0.0372658 0)
(11.5223 0.00457472 0)
(11.5371 0.0335913 0)
(11.6388 -0.0275634 0)
(11.7155 0.0177864 0)
(11.7426 -0.0102417 0)
(11.795 -0.0243409 0)
(11.885 -0.0416225 0)
(11.9105 -0.109873 0)
(11.9289 -0.15851 0)
(11.9486 -0.200321 0)
(10.01 0.0423117 0)
(10.1734 0.152054 0)
(10.6738 0.0627539 0)
(10.8491 0.0040624 0)
(10.9981 0.0677828 0)
(11.2186 0.00927253 0)
(11.2132 0.0111641 0)
(11.2364 0.0665575 0)
(11.3664 0.0106155 0)
(11.4404 0.0321064 0)
(11.4627 0.00152436 0)
(11.5563 0.0190547 0)
(11.6306 -0.0297232 0)
(11.6575 0.00804372 0)
(11.7131 -0.0141815 0)
(11.794 -0.0345881 0)
(11.8556 -0.0572239 0)
(11.8822 -0.106859 0)
(11.9063 -0.18871 0)
(11.9227 -0.183152 0)
(9.96253 0.0212201 0)
(10.2393 0.0977926 0)
(10.6639 0.0329785 0)
(10.805 -0.00148929 0)
(11.0087 0.0520355 0)
(11.2424 -0.0092008 0)
(11.1229 0.0129629 0)
(11.2281 0.0454953 0)
(11.3976 -0.00403486 0)
(11.3908 0.0290457 0)
(11.4578 -0.00410731 0)
(11.5627 0.00405469 0)
(11.5917 -0.0251864 0)
(11.6386 -0.00623406 0)
(11.7137 -0.0185187 0)
(11.7876 -0.0497327 0)
(11.8309 -0.0597956 0)
(11.8612 -0.123588 0)
(11.9096 -0.188822 0)
(11.89 -0.247566 0)
(9.97436 -0.0054236 0)
(10.292 0.0471036 0)
(10.5947 0.0101609 0)
(10.7854 -0.013354 0)
(11.0467 0.0362496 0)
(11.1904 -0.0179321 0)
(11.0998 0.00573762 0)
(11.2836 0.0221364 0)
(11.381 -0.0151141 0)
(11.3558 0.0291746 0)
(11.4716 -0.0156495 0)
(11.5525 -0.00362259 0)
(11.5841 -0.0287327 0)
(11.6482 -0.016475 0)
(11.7129 -0.0296805 0)
(11.785 -0.0527571 0)
(11.8063 -0.074916 0)
(11.8566 -0.128229 0)
(11.9317 -0.198618 0)
(11.8211 -0.276559 0)
(10.0195 -0.033045 0)
(10.2448 0.00288763 0)
(10.5574 -0.0112914 0)
(10.8082 -0.0327577 0)
(11.0782 0.0248506 0)
(11.1529 -0.0277622 0)
(11.1424 -0.0069442 0)
(11.3008 0.000869444 0)
(11.3458 -0.0191955 0)
(11.3451 0.0232688 0)
(11.4839 -0.0244892 0)
(11.5672 -0.0169501 0)
(11.589 -0.0236899 0)
(11.6421 -0.0350456 0)
(11.7179 -0.0284204 0)
(11.7825 -0.0674773 0)
(11.7863 -0.0758917 0)
(11.8786 -0.152042 0)
(11.9211 -0.190311 0)
(11.7296 -0.292223 0)
(10.0224 -0.0589271 0)
(10.2003 -0.0381256 0)
(10.5641 -0.0417537 0)
(10.8807 -0.0541351 0)
(11.0707 0.0178167 0)
(11.1429 -0.038353 0)
(11.1793 -0.0201648 0)
(11.2774 -0.0132248 0)
(11.3291 -0.0255556 0)
(11.3637 0.014996 0)
(11.5104 -0.0378891 0)
(11.5754 -0.0233978 0)
(11.584 -0.025475 0)
(11.6444 -0.0428998 0)
(11.7248 -0.0427429 0)
(11.7748 -0.0645626 0)
(11.7996 -0.0989317 0)
(11.8862 -0.14797 0)
(11.8497 -0.199152 0)
(11.7386 -0.250525 0)
(10.0025 -0.0831912 0)
(10.2042 -0.0816278 0)
(10.6168 -0.078774 0)
(10.9247 -0.0687376 0)
(11.027 0.0127759 0)
(11.1486 -0.050623 0)
(11.1885 -0.0338105 0)
(11.2689 -0.0240964 0)
(11.3388 -0.0386036 0)
(11.4034 0.00776777 0)
(11.5281 -0.0510867 0)
(11.5629 -0.026175 0)
(11.5866 -0.0295607 0)
(11.6628 -0.0526578 0)
(11.7227 -0.0537066 0)
(11.779 -0.0646537 0)
(11.8174 -0.11935 0)
(11.8747 -0.142006 0)
(11.8234 -0.21078 0)
(11.8642 -0.22816 0)
(9.99334 -0.106804 0)
(10.2338 -0.132566 0)
(10.6772 -0.111867 0)
(10.902 -0.0776753 0)
(11.0012 0.0100421 0)
(11.1733 -0.070437 0)
(11.2095 -0.0434728 0)
(11.2808 -0.0409004 0)
(11.3672 -0.0473766 0)
(11.4325 -0.00539398 0)
(11.5227 -0.0526614 0)
(11.5619 -0.0370511 0)
(11.605 -0.026134 0)
(11.672 -0.0711749 0)
(11.7363 -0.0516676 0)
(11.7953 -0.0825804 0)
(11.8279 -0.117092 0)
(11.8635 -0.160725 0)
(11.8692 -0.207311 0)
(12.0048 -0.285854 0)
(9.98925 -0.137238 0)
(10.2829 -0.181152 0)
(10.68 -0.142458 0)
(10.8839 -0.0791751 0)
(11.0267 -0.00510614 0)
(11.2195 -0.0874237 0)
(11.243 -0.0564244 0)
(11.2964 -0.0510695 0)
(11.3931 -0.0618916 0)
(11.4423 -0.0099621 0)
(11.5245 -0.0606068 0)
(11.5831 -0.0438948 0)
(11.6285 -0.0299246 0)
(11.6917 -0.0814089 0)
(11.7627 -0.0611181 0)
(11.8119 -0.0863178 0)
(11.8401 -0.127856 0)
(11.886 -0.170442 0)
(11.9234 -0.221339 0)
(11.9765 -0.311733 0)
(9.9983 -0.16902 0)
(10.3036 -0.229145 0)
(10.6777 -0.16743 0)
(10.9237 -0.0888912 0)
(11.0809 -0.0220949 0)
(11.2538 -0.105125 0)
(11.2586 -0.0646345 0)
(11.309 -0.0630934 0)
(11.4128 -0.073296 0)
(11.4644 -0.0181431 0)
(11.5507 -0.0677353 0)
(11.6133 -0.0527536 0)
(11.6583 -0.0326347 0)
(11.7231 -0.0930388 0)
(11.79 -0.0668092 0)
(11.8254 -0.0921512 0)
(11.8653 -0.13767 0)
(11.9226 -0.180773 0)
(11.9239 -0.238434 0)
(11.9025 -0.303872 0)
(10.0018 -0.20586 0)
(10.3195 -0.273948 0)
(10.7174 -0.195859 0)
(10.9855 -0.100264 0)
(11.1141 -0.0374333 0)
(11.2624 -0.119929 0)
(11.2722 -0.0708823 0)
(11.3372 -0.0768343 0)
(11.4529 -0.0840056 0)
(11.5068 -0.0288698 0)
(11.5775 -0.0732462 0)
(11.6483 -0.0633185 0)
(11.6917 -0.0348806 0)
(11.7534 -0.104556 0)
(11.8186 -0.0710258 0)
(11.8467 -0.100791 0)
(11.9049 -0.144876 0)
(11.9411 -0.191459 0)
(11.912 -0.247657 0)
(11.927 -0.313543 0)
(10.0064 -0.245671 0)
(10.3508 -0.321396 0)
(10.7722 -0.219415 0)
(11.0248 -0.110219 0)
(11.1362 -0.0536128 0)
(11.2793 -0.133369 0)
(11.3198 -0.0831668 0)
(11.3828 -0.0886245 0)
(11.507 -0.0977358 0)
(11.5422 -0.0361161 0)
(11.5999 -0.0793508 0)
(11.6932 -0.0721788 0)
(11.7259 -0.0388115 0)
(11.7898 -0.113084 0)
(11.8559 -0.0769375 0)
(11.8845 -0.107877 0)
(11.9378 -0.151863 0)
(11.9519 -0.199583 0)
(11.9497 -0.258161 0)
(12.0065 -0.3404 0)
(10.0312 -0.290201 0)
(10.3736 -0.370017 0)
(10.8336 -0.235116 0)
(11.0477 -0.124073 0)
(11.1852 -0.073591 0)
(11.3152 -0.149672 0)
(11.3823 -0.0951855 0)
(11.4164 -0.100176 0)
(11.5631 -0.107659 0)
(11.5586 -0.0434087 0)
(11.6457 -0.0866766 0)
(11.747 -0.0833079 0)
(11.7665 -0.0422683 0)
(11.8343 -0.122525 0)
(11.9059 -0.0836676 0)
(11.922 -0.113206 0)
(11.9577 -0.158343 0)
(11.9832 -0.207052 0)
(12.0174 -0.275366 0)
(12.034 -0.365109 0)
(10.0651 -0.342106 0)
(10.3869 -0.417345 0)
(10.9116 -0.247309 0)
(11.0674 -0.139724 0)
(11.2666 -0.096658 0)
(11.3342 -0.163989 0)
(11.4481 -0.105882 0)
(11.438 -0.11153 0)
(11.6327 -0.11632 0)
(11.5743 -0.0521187 0)
(11.7362 -0.097061 0)
(11.7855 -0.0920957 0)
(11.828 -0.0444109 0)
(11.8748 -0.133751 0)
(11.9613 -0.0849855 0)
(11.9407 -0.120699 0)
(11.9968 -0.15893 0)
(12.0262 -0.223183 0)
(12.0579 -0.280067 0)
(12.007 -0.387294 0)
(10.0859 -0.399161 0)
(10.4049 -0.463452 0)
(10.9984 -0.259574 0)
(11.1012 -0.158626 0)
(11.3487 -0.121207 0)
(11.3544 -0.176489 0)
(11.5192 -0.117859 0)
(11.477 -0.121707 0)
(11.7162 -0.126964 0)
(11.6054 -0.0594754 0)
(11.8452 -0.11171 0)
(11.7998 -0.0945969 0)
(11.9079 -0.0538829 0)
(11.8927 -0.137393 0)
(12.0134 -0.0924697 0)
(11.9424 -0.121768 0)
(12.0433 -0.165333 0)
(12.0026 -0.230927 0)
(12.0211 -0.27853 0)
(11.8857 -0.409767 0)
(10.0714 -0.461563 0)
(10.4501 -0.510139 0)
(11.0932 -0.274387 0)
(11.1606 -0.178157 0)
(11.4199 -0.146208 0)
(11.4065 -0.188422 0)
(11.5845 -0.130425 0)
(11.5572 -0.134136 0)
(11.7741 -0.134936 0)
(11.6616 -0.0721744 0)
(11.9137 -0.120459 0)
(11.7828 -0.0985484 0)
(11.9474 -0.0614931 0)
(11.8529 -0.139558 0)
(11.9743 -0.0965016 0)
(11.8512 -0.123652 0)
(11.9351 -0.164477 0)
(11.777 -0.230966 0)
(11.7565 -0.265553 0)
(11.4822 -0.419422 0)
(10.033 -0.529255 0)
(10.5394 -0.555741 0)
(11.1965 -0.290544 0)
(11.2307 -0.199142 0)
(11.4991 -0.172575 0)
(11.4739 -0.199268 0)
(11.6432 -0.145282 0)
(11.6226 -0.143974 0)
(11.7521 -0.140496 0)
(11.6516 -0.0834468 0)
(11.8206 -0.123332 0)
(11.6169 -0.0981715 0)
(11.7777 -0.0684536 0)
(11.5782 -0.132578 0)
(11.6473 -0.0968818 0)
(11.4706 -0.116386 0)
(11.4719 -0.158409 0)
(11.2261 -0.210132 0)
(11.1235 -0.254993 0)
(10.7541 -0.36195 0)
(9.99771 -0.605978 0)
(10.67 -0.59571 0)
(11.293 -0.309402 0)
(11.317 -0.223554 0)
(11.5637 -0.199661 0)
(11.4752 -0.207131 0)
(11.577 -0.155408 0)
(11.4772 -0.147032 0)
(11.4661 -0.136562 0)
(11.3241 -0.0868293 0)
(11.3544 -0.113771 0)
(11.087 -0.0899413 0)
(11.1964 -0.0655192 0)
(10.9055 -0.115975 0)
(10.9273 -0.0869444 0)
(10.7044 -0.103373 0)
(10.644 -0.138637 0)
(10.3387 -0.184192 0)
(10.186 -0.224806 0)
(9.74872 -0.295011 0)
(9.99983 -0.693895 0)
(10.8219 -0.631775 0)
(11.3543 -0.337306 0)
(11.3146 -0.253316 0)
(11.3958 -0.21732 0)
(11.1423 -0.200087 0)
(11.0831 -0.148878 0)
(10.8436 -0.13205 0)
(10.6967 -0.117287 0)
(10.5011 -0.0757938 0)
(10.4233 -0.0922297 0)
(10.1355 -0.0737369 0)
(10.1958 -0.0543226 0)
(9.86838 -0.0927561 0)
(9.86275 -0.072286 0)
(9.61947 -0.0850789 0)
(9.52184 -0.113088 0)
(9.19318 -0.154112 0)
(9.00654 -0.181231 0)
(8.52622 -0.246631 0)
(10.0795 -0.807285 0)
(10.9008 -0.667304 0)
(11.1612 -0.358885 0)
(10.8533 -0.257358 0)
(10.6354 -0.198691 0)
(10.1929 -0.164845 0)
(9.98895 -0.119438 0)
(9.66298 -0.100533 0)
(9.44996 -0.0878271 0)
(9.24005 -0.0564679 0)
(9.11018 -0.0663378 0)
(8.84462 -0.0553342 0)
(8.86784 -0.0398063 0)
(8.54935 -0.0684792 0)
(8.52824 -0.0559541 0)
(8.28624 -0.0640992 0)
(8.16911 -0.0864656 0)
(7.84692 -0.118397 0)
(7.63018 -0.141747 0)
(7.16696 -0.177516 0)
(10.1622 -0.948763 0)
(10.5567 -0.667251 0)
(10.278 -0.331272 0)
(9.61369 -0.21112 0)
(9.16119 -0.144673 0)
(8.64766 -0.112334 0)
(8.38922 -0.0802075 0)
(8.05881 -0.0651816 0)
(7.84405 -0.0577739 0)
(7.65065 -0.0361519 0)
(7.51315 -0.0420298 0)
(7.29122 -0.0376532 0)
(7.28839 -0.0250021 0)
(7.01269 -0.0457769 0)
(6.98109 -0.039243 0)
(6.75841 -0.0431867 0)
(6.63992 -0.059525 0)
(6.34091 -0.0833816 0)
(6.12039 -0.0990325 0)
(5.67983 -0.120103 0)
(9.85738 -1.02259 0)
(9.33812 -0.576718 0)
(8.48598 -0.241496 0)
(7.62265 -0.131093 0)
(7.11938 -0.079769 0)
(6.66402 -0.0608504 0)
(6.42645 -0.0435069 0)
(6.14984 -0.0340498 0)
(5.97326 -0.0318498 0)
(5.81548 -0.0184607 0)
(5.70265 -0.0219681 0)
(5.53218 -0.0220631 0)
(5.51606 -0.012172 0)
(5.30477 -0.0262472 0)
(5.26472 -0.0235591 0)
(5.07981 -0.0241943 0)
(4.97496 -0.0348149 0)
(4.71726 -0.0504582 0)
(4.51205 -0.0586615 0)
(4.12614 -0.0721355 0)
(8.59872 -0.872133 0)
(6.94577 -0.383285 0)
(5.81701 -0.12161 0)
(5.04586 -0.0516903 0)
(4.66754 -0.0270473 0)
(4.35833 -0.0221042 0)
(4.19102 -0.0160154 0)
(4.00485 -0.0116278 0)
(3.88744 -0.0124837 0)
(3.7808 -0.00586612 0)
(3.70915 -0.00779801 0)
(3.5955 -0.00969187 0)
(3.57781 -0.00325287 0)
(3.44296 -0.0111173 0)
(3.40038 -0.0105351 0)
(3.27118 -0.00938873 0)
(3.19271 -0.0147941 0)
(3.00003 -0.0227546 0)
(2.83277 -0.0254024 0)
(2.55157 -0.031875 0)
(5.32779 -0.309465 0)
(2.98389 -0.0606314 0)
(2.19832 0.00168907 0)
(1.84435 0.00323262 0)
(1.71101 0.0017528 0)
(1.60467 -0.000243152 0)
(1.54058 -7.40668e-05 0)
(1.47478 0.000578661 0)
(1.43192 -0.000832806 0)
(1.39187 0.000692342 0)
(1.3704 -5.87639e-06 0)
(1.32461 -0.00121909 0)
(1.31522 0.0010881 0)
(1.26905 -0.00107616 0)
(1.24061 -0.00104315 0)
(1.18741 -6.17676e-05 0)
(1.15322 -0.000982945 0)
(1.06534 -0.00233089 0)
(0.978973 -0.00232154 0)
(0.86035 0.00191451 0)
(2.6972 -0.753767 0)
(0.904597 0.00947523 0)
(2.01632 0.050258 0)
(2.98211 0.386604 0)
(4.21331 2.19495 0)
(5.82654 2.75903 0)
(7.47111 2.13721 0)
(8.39839 1.68278 0)
(10.0502 1.24641 0)
(10.6935 0.78356 0)
(11.317 -0.0570702 0)
(11.4348 -0.797215 0)
(11.6402 -1.3506 0)
(11.4735 -2.04801 0)
(11.2312 -2.90326 0)
(10.6423 -3.63796 0)
(10.8361 -4.3547 0)
(11.4718 -5.16264 0)
(12.0629 -6.0158 0)
(11.6991 -6.51503 0)
(11.2867 -6.69196 0)
(9.97135 -6.45048 0)
(9.51329 -6.09397 0)
(8.14568 -5.70684 0)
(8.12002 -5.20373 0)
(6.71436 -4.81169 0)
(6.54435 -4.04439 0)
(5.56636 -4.03686 0)
(5.34521 -3.39918 0)
(4.63449 -2.46432 0)
(3.10138 -2.2323 0)
(2.69816 -1.22948 0)
(2.17849 1.18913 0)
(1.72001 4.37066 0)
(1.5841 6.92161 0)
(2.46716 7.53488 0)
(3.49859 7.36007 0)
(4.27629 6.3569 0)
(5.1099 5.40502 0)
(5.75522 4.48318 0)
(6.5844 2.98868 0)
(6.93613 1.73611 0)
(6.82151 1.31541 0)
(7.11501 1.2673 0)
(7.76086 0.488652 0)
(9.01175 -1.11691 0)
(9.60443 -2.63629 0)
(10.1939 -4.14579 0)
(9.99876 -5.18602 0)
(9.72268 -6.02171 0)
(9.41762 -6.74741 0)
(8.85423 -7.05768 0)
(8.23886 -6.94385 0)
(7.59107 -6.62288 0)
(7.40526 -6.31487 0)
(7.51482 -6.40456 0)
(8.24474 -6.836 0)
(8.10886 -6.76445 0)
(7.80036 -6.4364 0)
(7.07486 -6.00071 0)
(6.11033 -4.96583 0)
(4.73461 -4.35359 0)
(4.02474 -5.01025 0)
(4.34306 -5.0797 0)
(4.1903 -5.07652 0)
(3.86214 -5.74862 0)
(4.44972 -5.83816 0)
(4.46929 -5.8376 0)
(4.80613 -5.9371 0)
(5.21699 -5.88857 0)
(5.65707 -5.79717 0)
(6.23669 -5.50238 0)
(6.73772 -5.04861 0)
(7.21401 -4.28836 0)
(7.72069 -3.15166 0)
(8.06337 -2.00213 0)
(8.29 -0.842862 0)
(8.46576 0.328372 0)
(8.01932 1.18595 0)
(7.89974 2.21285 0)
(8.24109 3.44125 0)
(8.50746 4.55359 0)
(8.90913 5.67369 0)
(9.20512 6.58073 0)
(9.35701 7.03055 0)
(9.42413 7.08616 0)
(9.50519 6.73615 0)
(9.4295 6.27799 0)
(9.17923 5.81563 0)
(8.90709 5.57702 0)
(8.60417 5.53184 0)
(8.25213 5.44759 0)
(7.84768 5.37993 0)
(7.64075 5.31428 0)
(7.27661 5.2501 0)
(7.20316 4.79159 0)
(6.89454 4.43678 0)
(6.94958 4.2022 0)
(6.999 3.95912 0)
(6.90265 3.66965 0)
(7.3267 3.83149 0)
(7.27236 4.50627 0)
(7.51649 4.34441 0)
(6.64254 4.01969 0)
(6.76182 3.10579 0)
(5.78685 3.44966 0)
(6.62217 3.35785 0)
(5.09928 3.78497 0)
(6.88766 3.9979 0)
(5.32095 4.29464 0)
(6.64617 4.51515 0)
(5.26174 5.62917 0)
(6.46756 5.41112 0)
(5.51071 5.57464 0)
(6.2974 5.30213 0)
(5.92954 5.02425 0)
(6.73526 4.40146 0)
(6.51723 3.62578 0)
(7.40975 2.20401 0)
(7.36767 1.00011 0)
(8.0516 -0.41701 0)
(7.83486 -1.30534 0)
(8.281 -2.76663 0)
(7.9701 -3.99502 0)
(8.10324 -5.14299 0)
(7.92329 -5.32253 0)
(8.03993 -5.47568 0)
(7.67265 -5.02248 0)
(7.59645 -5.33312 0)
(7.15249 -4.08319 0)
(7.56656 -3.97084 0)
(7.058 -3.0504 0)
(6.88511 -3.65227 0)
(7.31377 -2.46072 0)
(6.91283 -2.8871 0)
(7.78485 -1.76155 0)
(6.47055 -2.34073 0)
(7.80087 -1.52823 0)
(6.30421 -2.19321 0)
(7.77448 -1.57403 0)
(6.22225 -2.46947 0)
(7.66767 -1.69675 0)
(6.76544 -2.27928 0)
(7.47293 -1.35725 0)
(6.7736 -2.53373 0)
(7.0956 -2.7503 0)
(6.47517 -4.08541 0)
(7.14437 -3.51962 0)
(6.83855 -3.95961 0)
(7.01385 -4.59714 0)
(7.19516 -5.40578 0)
(7.80587 -5.72412 0)
(8.28323 -6.13322 0)
(8.79411 -6.40904 0)
(9.21084 -5.71575 0)
(9.58248 -4.15253 0)
(9.7441 -2.54696 0)
(9.75438 -0.88982 0)
(9.75155 1.0099 0)
(9.64115 2.9817 0)
(9.45952 4.72558 0)
(9.17717 6.34548 0)
(8.77978 7.65963 0)
(8.25842 8.21965 0)
(7.64079 8.11829 0)
(7.08649 7.88829 0)
(6.62744 7.92471 0)
(6.00127 8.31782 0)
(5.58676 8.87626 0)
(5.34781 9.20752 0)
(5.16469 9.04363 0)
(4.77956 8.4758 0)
(4.49858 7.88597 0)
(4.1563 7.29316 0)
(4.50387 5.99838 0)
(3.3676 5.2984 0)
(4.98379 2.87006 0)
(3.09072 1.9943 0)
(5.49412 -0.928265 0)
(3.47561 -1.07933 0)
(5.25076 -3.2682 0)
(4.00342 -3.04485 0)
(5.14676 -4.19978 0)
(4.70908 -3.77198 0)
(5.1493 -3.99413 0)
(5.01193 -3.50748 0)
(5.37063 -3.35846 0)
(5.31057 -2.89672 0)
(5.62938 -2.41793 0)
(5.60791 -1.74634 0)
(5.93626 -0.996148 0)
(5.93996 -0.1838 0)
(6.21863 0.66332 0)
(6.10327 1.60342 0)
(6.04164 2.19665 0)
(6.36687 3.04305 0)
(5.99985 3.80222 0)
(5.86579 5.04906 0)
(6.47505 6.26773 0)
(3.59049 9.59301 0)
(4.43891 -0.528066 0)
(3.11555 0.0977168 0)
(3.8315 0.116834 0)
(3.51507 0.208103 0)
(3.68402 1.45126 0)
(5.38517 1.88056 0)
(6.63786 1.37436 0)
(8.02939 0.880346 0)
(9.53868 0.798386 0)
(10.58 0.511921 0)
(11.4095 -0.27095 0)
(11.3483 -0.828512 0)
(11.4612 -1.33266 0)
(11.1425 -2.01389 0)
(11.0372 -2.82463 0)
(11.1869 -3.70626 0)
(11.7206 -4.56873 0)
(12.5119 -5.42581 0)
(12.4894 -5.96423 0)
(11.9746 -6.33581 0)
(11.2557 -6.32525 0)
(10.1186 -6.15167 0)
(9.55213 -5.72818 0)
(8.3441 -5.42787 0)
(8.16107 -4.84363 0)
(6.91006 -4.5181 0)
(6.56699 -3.80911 0)
(5.91379 -3.75068 0)
(5.31171 -3.24612 0)
(4.96922 -2.03781 0)
(3.38927 -1.81448 0)
(3.0304 -1.08331 0)
(2.6218 1.32978 0)
(2.12283 4.42587 0)
(2.32784 6.79452 0)
(3.27931 7.14972 0)
(4.15166 7.03959 0)
(5.03728 6.05712 0)
(5.60996 5.10015 0)
(6.52026 4.16458 0)
(7.20416 2.80985 0)
(7.49423 1.71014 0)
(7.18716 1.35263 0)
(7.59509 1.0868 0)
(8.54941 0.0311928 0)
(9.55985 -1.46071 0)
(10.1349 -2.86405 0)
(10.5035 -4.1653 0)
(10.201 -5.08002 0)
(9.95851 -5.91344 0)
(9.54623 -6.55904 0)
(8.92945 -6.7749 0)
(8.27668 -6.67753 0)
(7.71911 -6.48297 0)
(7.67941 -6.33937 0)
(7.84798 -6.59458 0)
(8.35999 -6.88311 0)
(7.88495 -6.63078 0)
(7.4846 -6.21169 0)
(6.56563 -5.5605 0)
(5.42065 -4.43595 0)
(4.25756 -4.07105 0)
(3.66127 -4.91406 0)
(3.7661 -5.02514 0)
(3.89871 -5.06021 0)
(3.56355 -5.83464 0)
(4.20019 -5.93336 0)
(4.12679 -5.93574 0)
(4.41939 -6.13089 0)
(4.79302 -6.068 0)
(5.27948 -6.03162 0)
(5.85944 -5.74659 0)
(6.42592 -5.2408 0)
(6.94585 -4.4489 0)
(7.29119 -3.36694 0)
(7.77579 -2.12952 0)
(7.98577 -0.907027 0)
(8.18134 0.337594 0)
(7.951 1.29242 0)
(7.59301 2.20205 0)
(7.77222 3.32903 0)
(8.0934 4.42671 0)
(8.50463 5.54605 0)
(8.80964 6.47436 0)
(8.99906 6.95925 0)
(9.11415 7.03725 0)
(9.26042 6.71327 0)
(9.24617 6.32024 0)
(9.03885 5.92344 0)
(8.75008 5.70939 0)
(8.43854 5.67251 0)
(8.08122 5.60218 0)
(7.70591 5.51322 0)
(7.51812 5.43178 0)
(7.19198 5.34323 0)
(7.13158 4.86569 0)
(6.83846 4.49596 0)
(6.85783 4.2062 0)
(6.92759 3.93541 0)
(6.80008 3.64543 0)
(7.20283 3.7062 0)
(7.18417 4.49266 0)
(7.54499 4.42003 0)
(6.65942 4.20944 0)
(6.97985 3.27796 0)
(5.76189 3.4754 0)
(6.94336 3.48485 0)
(5.33957 3.75384 0)
(6.99935 3.93912 0)
(5.84557 4.32717 0)
(6.78158 4.55033 0)
(5.57854 5.61764 0)
(6.74721 5.41539 0)
(5.79742 5.54897 0)
(6.64913 5.24091 0)
(6.37491 4.87238 0)
(7.11334 4.29859 0)
(7.05034 3.47373 0)
(7.80354 2.03824 0)
(7.92263 0.853557 0)
(8.4444 -0.493546 0)
(8.23588 -1.34903 0)
(8.60855 -2.79549 0)
(8.49435 -3.99822 0)
(8.50627 -5.11475 0)
(8.41 -5.34199 0)
(8.33196 -5.38024 0)
(8.08899 -4.95064 0)
(7.843 -5.18627 0)
(7.41173 -4.11222 0)
(7.76363 -3.88288 0)
(7.33118 -2.96597 0)
(7.14382 -3.60474 0)
(7.35535 -2.51402 0)
(7.21031 -2.93409 0)
(7.82865 -1.7071 0)
(6.8035 -2.33148 0)
(7.87856 -1.50018 0)
(6.39418 -2.21378 0)
(8.05281 -1.53317 0)
(6.10464 -2.47779 0)
(7.94895 -1.78213 0)
(6.63472 -2.26142 0)
(7.75282 -1.3125 0)
(6.77893 -2.46505 0)
(7.27074 -2.60167 0)
(6.44881 -4.19415 0)
(7.03365 -3.48143 0)
(6.66557 -4.03034 0)
(6.8951 -4.58532 0)
(7.10328 -5.63328 0)
(7.61314 -5.92535 0)
(8.08513 -6.33718 0)
(8.57242 -6.57369 0)
(8.98682 -5.86198 0)
(9.36779 -4.26927 0)
(9.54616 -2.57384 0)
(9.56862 -0.889972 0)
(9.51929 1.05465 0)
(9.41478 3.02276 0)
(9.26066 4.81344 0)
(9.00744 6.44528 0)
(8.66362 7.81092 0)
(8.1644 8.5043 0)
(7.64061 8.36943 0)
(7.06255 8.05312 0)
(6.6699 8.14635 0)
(6.21249 8.59706 0)
(5.82286 9.00933 0)
(5.42883 9.19553 0)
(5.31583 9.01791 0)
(5.27326 8.60856 0)
(5.20144 8.01853 0)
(4.48127 7.45448 0)
(5.28363 5.88636 0)
(3.8403 5.46036 0)
(6.00318 2.71436 0)
(3.58342 2.0695 0)
(6.5653 -1.11982 0)
(3.95262 -0.92392 0)
(6.24821 -3.41196 0)
(4.39687 -2.85657 0)
(5.76836 -4.29081 0)
(5.26141 -3.61429 0)
(5.61061 -4.19858 0)
(5.59133 -3.49488 0)
(5.65239 -3.52365 0)
(5.86544 -2.83753 0)
(5.85901 -2.53231 0)
(6.10469 -1.76334 0)
(6.11255 -1.07842 0)
(6.34983 -0.161569 0)
(6.2655 0.619527 0)
(6.59427 1.43009 0)
(6.37736 2.42114 0)
(6.26606 3.43419 0)
(6.27449 3.99135 0)
(5.55122 5.54146 0)
(7.52953 6.04928 0)
(5.09861 10.2749 0)
(6.08017 -0.357781 0)
(5.24601 0.124301 0)
(5.47169 0.140641 0)
(5.24775 0.233227 0)
(4.98623 1.11303 0)
(6.09587 1.47962 0)
(6.93643 0.83373 0)
(7.83616 0.211427 0)
(8.96164 0.232441 0)
(10.2951 0.0633826 0)
(11.0174 -0.502153 0)
(10.8582 -0.903861 0)
(11.0086 -1.38724 0)
(11.0659 -2.03294 0)
(11.5086 -2.87795 0)
(12.245 -3.86798 0)
(12.6903 -4.70045 0)
(13.1938 -5.46936 0)
(12.6206 -5.81231 0)
(12.0744 -6.08476 0)
(11.1658 -5.96907 0)
(10.2807 -5.83671 0)
(9.49105 -5.38058 0)
(8.60009 -5.17673 0)
(8.08783 -4.49871 0)
(7.22065 -4.22736 0)
(6.56521 -3.58094 0)
(6.33178 -3.46995 0)
(5.27588 -3.06669 0)
(5.20599 -1.69124 0)
(3.86929 -1.3833 0)
(3.43659 -0.97618 0)
(3.12755 1.38487 0)
(2.7124 4.44237 0)
(3.14044 6.58951 0)
(4.19482 6.83566 0)
(4.83164 6.79473 0)
(5.75731 5.83471 0)
(6.24487 4.78142 0)
(7.12522 3.83182 0)
(7.74209 2.57501 0)
(7.92089 1.67043 0)
(7.63662 1.32314 0)
(8.23384 0.802051 0)
(9.26276 -0.390246 0)
(10.1086 -1.75144 0)
(10.619 -3.02202 0)
(10.7503 -4.14325 0)
(10.426 -4.98496 0)
(10.1909 -5.76767 0)
(9.66755 -6.33739 0)
(9.0237 -6.49455 0)
(8.39486 -6.4572 0)
(7.99045 -6.38023 0)
(7.97742 -6.36133 0)
(8.0757 -6.71608 0)
(8.3383 -6.83628 0)
(7.61606 -6.4302 0)
(7.12014 -5.88499 0)
(5.99897 -5.04255 0)
(4.80113 -3.93775 0)
(3.87163 -3.85133 0)
(3.18823 -4.766 0)
(3.28105 -5.00751 0)
(3.8327 -5.14201 0)
(3.30978 -5.89705 0)
(3.80487 -5.97593 0)
(3.63411 -5.99039 0)
(3.80951 -6.27839 0)
(4.2252 -6.24728 0)
(4.74743 -6.27363 0)
(5.30584 -6.01431 0)
(5.8983 -5.50544 0)
(6.56373 -4.61208 0)
(6.95211 -3.51376 0)
(7.36671 -2.28861 0)
(7.68222 -0.993653 0)
(7.80558 0.317078 0)
(7.77009 1.39734 0)
(7.3964 2.25404 0)
(7.34476 3.22283 0)
(7.61781 4.2679 0)
(8.09024 5.39694 0)
(8.47731 6.35649 0)
(8.74114 6.88288 0)
(8.90152 6.97834 0)
(9.0557 6.67855 0)
(9.06556 6.34555 0)
(8.88876 6.01414 0)
(8.57597 5.83933 0)
(8.26466 5.80965 0)
(7.89396 5.74226 0)
(7.55869 5.62681 0)
(7.38028 5.5345 0)
(7.10839 5.42426 0)
(7.06131 4.92816 0)
(6.84108 4.53881 0)
(6.81209 4.2135 0)
(6.91409 3.90032 0)
(6.73631 3.63794 0)
(7.1029 3.5876 0)
(7.0987 4.45938 0)
(7.57063 4.48739 0)
(6.65313 4.32561 0)
(7.23105 3.47193 0)
(5.70234 3.48508 0)
(7.13717 3.5255 0)
(5.70296 3.77763 0)
(7.03226 3.82369 0)
(6.23224 4.33365 0)
(6.99104 4.63505 0)
(5.94132 5.58305 0)
(6.9771 5.43324 0)
(6.13187 5.49401 0)
(6.97617 5.12716 0)
(6.82102 4.74941 0)
(7.53624 4.18403 0)
(7.53613 3.34671 0)
(8.20876 1.87664 0)
(8.3802 0.712042 0)
(8.82852 -0.538349 0)
(8.5737 -1.3804 0)
(8.97182 -2.84933 0)
(8.92724 -4.00922 0)
(8.94618 -5.11168 0)
(8.83101 -5.32261 0)
(8.57981 -5.29318 0)
(8.508 -4.8826 0)
(8.06696 -4.98884 0)
(7.71379 -4.1451 0)
(7.91331 -3.78742 0)
(7.63897 -2.91289 0)
(7.41002 -3.50963 0)
(7.42541 -2.58239 0)
(7.50964 -2.96148 0)
(7.8177 -1.64573 0)
(7.18763 -2.30455 0)
(7.86766 -1.4042 0)
(6.57781 -2.27785 0)
(8.18304 -1.44445 0)
(6.20323 -2.50259 0)
(8.16219 -1.87667 0)
(6.48313 -2.27024 0)
(8.16272 -1.28749 0)
(6.65281 -2.39884 0)
(7.60167 -2.43105 0)
(6.34997 -4.22011 0)
(6.93181 -3.41061 0)
(6.48292 -4.14904 0)
(6.9085 -4.59226 0)
(6.8548 -5.80437 0)
(7.41265 -6.11868 0)
(7.84193 -6.53421 0)
(8.32904 -6.7405 0)
(8.73402 -6.0092 0)
(9.12556 -4.38793 0)
(9.32364 -2.6105 0)
(9.34094 -0.869578 0)
(9.26601 1.07896 0)
(9.18004 3.07588 0)