/*--------------------------------*- C++ -*----------------------------------*\
| =========                 |                                                 |
| \\      /  F ield         | OpenFOAM: The Open Source CFD Toolbox           |
|  \\    /   O peration     | Version:  2.4.0                                 |
|   \\  /    A nd           | Web:      www.OpenFOAM.org                      |
|    \\/     M anipulation  |                                                 |
\*---------------------------------------------------------------------------*/
FoamFile
{
    version     2.0;
    format      ascii;
    class       volSymmTensorField;
    location    "0.117";
    object      UPrime2Mean;
}
// * * * * * * * * * * * * * * * * * * * * * * * * * * * * * * * * * * * * * //

dimensions      [0 2 -2 0 0 0 0];

internalField   nonuniform List<symmTensor> 
17600
(
(0.0335146 -0.00363275 0 0.000548272 0 0)
(0.34505 -0.00140017 0 3.17315e-05 0 0)
(0.447961 -1.15679e-05 0 2.23875e-06 0 0)
(0.496969 -0.000360845 0 1.37926e-06 0 0)
(0.531154 -0.000272806 0 6.7151e-07 0 0)
(0.556597 -0.000115469 0 4.03306e-07 0 0)
(0.57352 -2.72124e-05 0 2.82361e-07 0 0)
(0.588132 -9.78475e-07 0 2.11724e-07 0 0)
(0.596426 2.2216e-05 0 2.55386e-07 0 0)
(0.606046 -7.79049e-06 0 2.66372e-07 0 0)
(0.610205 7.76774e-06 0 2.91158e-07 0 0)
(0.61934 -5.49839e-05 0 3.86266e-07 0 0)
(0.62292 -2.68941e-05 0 5.03468e-07 0 0)
(0.634595 -0.000133828 0 7.16877e-07 0 0)
(0.640516 -0.000107869 0 9.63412e-07 0 0)
(0.661285 -0.000387841 0 2.58792e-06 0 0)
(0.679252 -0.00056042 0 2.84923e-06 0 0)
(0.759458 0.000401012 0 1.94407e-05 0 0)
(0.890543 -0.0252851 0 0.00105286 0 0)
(1.61081 0.126251 0 0.0158211 0 0)
(0.016223 0.00726907 0 0.00571365 0 0)
(0.140812 -0.0134756 0 0.00136206 0 0)
(0.284224 -0.00759284 0 0.00020635 0 0)
(0.381516 -0.00536573 0 8.26863e-05 0 0)
(0.464049 -0.00437459 0 6.41001e-05 0 0)
(0.545045 -0.00362048 0 5.82707e-05 0 0)
(0.608237 -0.00283247 0 4.54107e-05 0 0)
(0.668598 -0.00218836 0 2.90738e-05 0 0)
(0.704946 -0.00162064 0 1.56472e-05 0 0)
(0.749075 -0.00142951 0 1.03439e-05 0 0)
(0.766901 -0.00119208 0 5.69577e-06 0 0)
(0.808645 -0.0013543 0 6.14419e-06 0 0)
(0.819241 -0.00134346 0 8.99155e-06 0 0)
(0.869011 -0.00155227 0 9.40813e-06 0 0)
(0.87786 -0.00218894 0 1.88289e-05 0 0)
(0.957023 -0.00209409 0 1.90051e-05 0 0)
(0.955421 -0.00626344 0 8.49303e-05 0 0)
(1.25748 -0.00913668 0 0.000128491 0 0)
(1.12076 -0.0284548 0 0.00131516 0 0)
(3.39579 -0.391452 0 0.0686835 0 0)
(0.0574141 0.0217869 0 0.00900908 0 0)
(0.0232908 -0.00859678 0 0.0038894 0 0)
(0.0991415 -0.00960529 0 0.00101114 0 0)
(0.171896 -0.00914907 0 0.000496808 0 0)
(0.249967 -0.00897026 0 0.000375328 0 0)
(0.345638 -0.00855881 0 0.000334819 0 0)
(0.429556 -0.00742267 0 0.000273978 0 0)
(0.518806 -0.00617103 0 0.000184731 0 0)
(0.574652 -0.00486647 0 0.000108468 0 0)
(0.647567 -0.0042844 0 6.68259e-05 0 0)
(0.675335 -0.00362581 0 3.40561e-05 0 0)
(0.747494 -0.00401078 0 3.77583e-05 0 0)
(0.760311 -0.00378294 0 3.85622e-05 0 0)
(0.846047 -0.00470601 0 5.47549e-05 0 0)
(0.85149 -0.00540624 0 7.63596e-05 0 0)
(0.974012 -0.00664964 0 9.25045e-05 0 0)
(0.972362 -0.0142754 0 0.000339318 0 0)
(1.28999 -0.0182885 0 0.00061834 0 0)
(1.30643 -0.07351 0 0.00690925 0 0)
(2.84577 -0.492852 0 0.147622 0 0)
(0.0761555 0.024174 0 0.00813235 0 0)
(0.00190219 0.00160453 0 0.00607184 0 0)
(0.013075 -0.00357482 0 0.00222164 0 0)
(0.0315309 -0.00577562 0 0.00131894 0 0)
(0.0604801 -0.00780875 0 0.00106289 0 0)
(0.116759 -0.00955458 0 0.00095631 0 0)
(0.177194 -0.00959322 0 0.000819195 0 0)
(0.256433 -0.00892513 0 0.00057567 0 0)
(0.30808 -0.00744838 0 0.000365324 0 0)
(0.385167 -0.00679017 0 0.000219284 0 0)
(0.411724 -0.00607487 0 0.000126003 0 0)
(0.494607 -0.0060618 0 0.000105821 0 0)
(0.503794 -0.00679409 0 0.000130215 0 0)
(0.603362 -0.00587478 0 0.000135179 0 0)
(0.604558 -0.0105096 0 0.000294575 0 0)
(0.727563 -0.00494724 0 0.00022748 0 0)
(0.756758 -0.0265629 0 0.00142317 0 0)
(0.913155 -0.0107142 0 0.000916121 0 0)
(1.23781 -0.132946 0 0.0234948 0 0)
(1.52623 -0.212996 0 0.0929946 0 0)
(0.0710434 0.0195112 0 0.00569073 0 0)
(0.00692819 0.00618624 0 0.00633543 0 0)
(0.00955726 0.0033799 0 0.00276534 0 0)
(0.0100455 0.00206366 0 0.00202371 0 0)
(0.00635091 0.000119167 0 0.00190671 0 0)
(0.0108707 -0.0033999 0 0.00182167 0 0)
(0.0257529 -0.00536293 0 0.00164059 0 0)
(0.060991 -0.00695066 0 0.00122338 0 0)
(0.08691 -0.00635895 0 0.00081281 0 0)
(0.137625 -0.00675719 0 0.000517078 0 0)
(0.152658 -0.005857 0 0.000280155 0 0)
(0.215214 -0.00705537 0 0.000296342 0 0)
(0.22265 -0.00631811 0 0.000221068 0 0)
(0.294088 -0.008892 0 0.000388702 0 0)
(0.310513 -0.0070002 0 0.000380033 0 0)
(0.37808 -0.0147673 0 0.000779933 0 0)
(0.43446 -0.00839974 0 0.00113741 0 0)
(0.516721 -0.0454623 0 0.00698177 0 0)
(0.688315 -0.0468967 0 0.0114826 0 0)
(0.97098 -0.29883 0 0.254795 0 0)
(0.0664472 0.015905 0 0.00406591 0 0)
(0.00647207 0.0054227 0 0.00563808 0 0)
(0.0148595 0.00491776 0 0.00236805 0 0)
(0.025847 0.00599103 0 0.00193387 0 0)
(0.032488 0.00731554 0 0.00223943 0 0)
(0.0232624 0.00534227 0 0.00244303 0 0)
(0.0184161 0.00358804 0 0.0024035 0 0)
(0.0123396 3.57625e-06 0 0.0018979 0 0)
(0.0139745 -0.000743033 0 0.0014228 0 0)
(0.0240828 -0.00268106 0 0.000893989 0 0)
(0.0252528 -0.00258162 0 0.000581965 0 0)
(0.0498295 -0.00372673 0 0.000488367 0 0)
(0.0488961 -0.00461354 0 0.000566319 0 0)
(0.0843455 -0.00465998 0 0.000562143 0 0)
(0.0886023 -0.00796875 0 0.00118432 0 0)
(0.127672 -0.00543162 0 0.000913095 0 0)
(0.145495 -0.017122 0 0.0042093 0 0)
(0.205076 -0.0110986 0 0.00284837 0 0)
(0.268174 -0.0702513 0 0.0389337 0 0)
(0.454639 -0.135653 0 0.126973 0 0)
(0.0667766 0.0137401 0 0.00303364 0 0)
(0.00557388 0.00399846 0 0.00501231 0 0)
(0.0140242 0.00406672 0 0.00189195 0 0)
(0.0278094 0.00537175 0 0.00141456 0 0)
(0.0470345 0.00852703 0 0.0018928 0 0)
(0.0478842 0.00898329 0 0.00237435 0 0)
(0.0572071 0.00965552 0 0.00260888 0 0)
(0.0445554 0.0065694 0 0.00227854 0 0)
(0.0494238 0.00585091 0 0.00172163 0 0)
(0.035155 0.00305803 0 0.00129899 0 0)
(0.0391464 0.00313802 0 0.000754573 0 0)
(0.0273617 0.00124617 0 0.000898491 0 0)
(0.0308009 0.00109232 0 0.000592583 0 0)
(0.0227054 -0.000427885 0 0.00112933 0 0)
(0.0282323 -0.00104427 0 0.00107579 0 0)
(0.0241711 -0.00216787 0 0.00221461 0 0)
(0.0302519 -0.00341252 0 0.00265333 0 0)
(0.0400189 -0.00799939 0 0.0117164 0 0)
(0.0647358 -0.0202862 0 0.0197134 0 0)
(0.154461 -0.0625595 0 0.174567 0 0)
(0.0696898 0.0120326 0 0.00226058 0 0)
(0.00619165 0.00294827 0 0.00441109 0 0)
(0.0128187 0.00332415 0 0.00167242 0 0)
(0.0250586 0.00416195 0 0.00104837 0 0)
(0.0446372 0.00718842 0 0.00144575 0 0)
(0.048053 0.00830672 0 0.00198458 0 0)
(0.0665877 0.010246 0 0.00233306 0 0)
(0.0609807 0.00828546 0 0.00204343 0 0)
(0.0796285 0.0083747 0 0.00183934 0 0)
(0.0701525 0.00609198 0 0.00133135 0 0)
(0.087134 0.007001 0 0.000967717 0 0)
(0.0737581 0.00523456 0 0.000927167 0 0)
(0.0865174 0.00620084 0 0.00107282 0 0)
(0.0677086 0.00450161 0 0.00116527 0 0)
(0.0768554 0.00520775 0 0.00201772 0 0)
(0.0544269 0.00381585 0 0.00198591 0 0)
(0.0568196 0.00553992 0 0.00474684 0 0)
(0.0365371 0.00686016 0 0.0074859 0 0)
(0.0399029 0.00513275 0 0.0325261 0 0)
(0.0742435 0.0178476 0 0.191827 0 0)
(0.0728828 0.0105219 0 0.00167419 0 0)
(0.00652556 0.00223352 0 0.00370621 0 0)
(0.0110496 0.00274817 0 0.00154914 0 0)
(0.0220141 0.00331746 0 0.000796637 0 0)
(0.0389429 0.00583629 0 0.00109024 0 0)
(0.0423159 0.00703351 0 0.00159648 0 0)
(0.0587556 0.00887014 0 0.00199136 0 0)
(0.0565798 0.0074642 0 0.00193989 0 0)
(0.0763255 0.00766152 0 0.00143451 0 0)
(0.0739976 0.0064875 0 0.0013048 0 0)
(0.0970525 0.00667762 0 0.000815086 0 0)
(0.091986 0.00712612 0 0.00112793 0 0)
(0.115759 0.00635403 0 0.000900789 0 0)
(0.104754 0.00884965 0 0.00154386 0 0)
(0.12508 0.00622279 0 0.00187857 0 0)
(0.106706 0.0114431 0 0.00281854 0 0)
(0.118118 0.00944621 0 0.00423342 0 0)
(0.0936737 0.0195313 0 0.0111812 0 0)
(0.0976837 0.029097 0 0.0336097 0 0)
(0.11334 0.0598987 0 0.144471 0 0)
(0.0727971 0.00900035 0 0.00124105 0 0)
(0.0045685 0.00181206 0 0.00306454 0 0)
(0.00792468 0.00216927 0 0.00146759 0 0)
(0.0184178 0.00268096 0 0.000624105 0 0)
(0.0328087 0.00460157 0 0.00084377 0 0)
(0.0375567 0.00600302 0 0.00131017 0 0)
(0.0487648 0.0073567 0 0.00166409 0 0)
(0.0508375 0.00661845 0 0.00151303 0 0)
(0.0641059 0.00629958 0 0.00138617 0 0)
(0.0693785 0.00546662 0 0.00119774 0 0)
(0.0835351 0.0058182 0 0.000843593 0 0)
(0.0909073 0.00600043 0 0.000969544 0 0)
(0.105619 0.00592129 0 0.00106533 0 0)
(0.112133 0.00780599 0 0.00145677 0 0)
(0.123408 0.00676779 0 0.00208218 0 0)
(0.127678 0.0115078 0 0.00277431 0 0)
(0.131936 0.0109574 0 0.00455712 0 0)
(0.13102 0.0274751 0 0.0128726 0 0)
(0.129187 0.0343121 0 0.0314058 0 0)
(0.159515 0.0918175 0 0.163717 0 0)
(0.0699725 0.00745311 0 0.000904732 0 0)
(0.00262491 0.00142337 0 0.00250599 0 0)
(0.00603805 0.00154624 0 0.00139642 0 0)
(0.0161469 0.00209468 0 0.000516705 0 0)
(0.0279071 0.00342759 0 0.000672061 0 0)
(0.0347854 0.00500301 0 0.00108908 0 0)
(0.0423009 0.00587325 0 0.00142423 0 0)
(0.0476448 0.00568771 0 0.00152988 0 0)
(0.0561969 0.00465319 0 0.00110534 0 0)
(0.064627 0.00480711 0 0.00110716 0 0)
(0.0736811 0.00399049 0 0.000735568 0 0)
(0.0859078 0.00540452 0 0.00102425 0 0)
(0.0947964 0.00405125 0 0.000991356 0 0)
(0.10615 0.00729907 0 0.00141985 0 0)
(0.11315 0.00535584 0 0.00193978 0 0)
(0.123627 0.0105363 0 0.00247804 0 0)
(0.125648 0.0118537 0 0.00452051 0 0)
(0.130844 0.0247444 0 0.0110876 0 0)
(0.131417 0.040265 0 0.0347323 0 0)
(0.164622 0.092706 0 0.137792 0 0)
(0.069015 0.00612799 0 0.000661324 0 0)
(0.00286275 0.000893635 0 0.00200965 0 0)
(0.00587358 0.000976274 0 0.00132296 0 0)
(0.0150595 0.00152151 0 0.000420918 0 0)
(0.026068 0.00243677 0 0.000551108 0 0)
(0.0331029 0.00388956 0 0.000922771 0 0)
(0.0388816 0.00473654 0 0.00121694 0 0)
(0.0440718 0.00463855 0 0.00123291 0 0)
(0.050668 0.00374691 0 0.00105326 0 0)
(0.0589497 0.00356394 0 0.001065 0 0)
(0.0679884 0.00318448 0 0.000699432 0 0)
(0.0790944 0.00411298 0 0.000882867 0 0)
(0.0871132 0.00332282 0 0.000977248 0 0)
(0.0971518 0.0061788 0 0.00132966 0 0)
(0.105319 0.00446555 0 0.00172185 0 0)
(0.113636 0.0106359 0 0.00262125 0 0)
(0.116879 0.0107411 0 0.00404867 0 0)
(0.122243 0.0267821 0 0.0124339 0 0)
(0.12779 0.0409911 0 0.0332178 0 0)
(0.161698 0.0903909 0 0.128585 0 0)
(0.0692775 0.00509816 0 0.000476412 0 0)
(0.00316022 0.000557048 0 0.0015692 0 0)
(0.00504041 0.000598856 0 0.00122872 0 0)
(0.0131548 0.00118949 0 0.000364244 0 0)
(0.0239411 0.00184232 0 0.000446818 0 0)
(0.0301358 0.00305907 0 0.000765067 0 0)
(0.0348519 0.00394156 0 0.00103804 0 0)
(0.039335 0.00398189 0 0.00113862 0 0)
(0.0459261 0.00304405 0 0.000843695 0 0)
(0.0539219 0.00305738 0 0.000824303 0 0)
(0.0624819 0.00248798 0 0.000567613 0 0)
(0.0718692 0.00369481 0 0.000789353 0 0)
(0.079701 0.00297331 0 0.000857615 0 0)
(0.0897283 0.00551068 0 0.00102109 0 0)
(0.0970128 0.00454597 0 0.00144214 0 0)
(0.104837 0.00916961 0 0.00202368 0 0)
(0.108598 0.0117437 0 0.0038589 0 0)
(0.11548 0.0260188 0 0.0116694 0 0)
(0.123541 0.0413804 0 0.0321937 0 0)
(0.162254 0.0924907 0 0.119685 0 0)
(0.0688681 0.00419916 0 0.000331288 0 0)
(0.00222555 0.000479542 0 0.0011683 0 0)
(0.00410617 0.000357356 0 0.000998955 0 0)
(0.011544 0.00101123 0 0.000277194 0 0)
(0.0214397 0.00155789 0 0.000318601 0 0)
(0.0272526 0.00265897 0 0.000581482 0 0)
(0.0313445 0.00343381 0 0.000796393 0 0)
(0.0362671 0.0035944 0 0.000814606 0 0)
(0.0418517 0.00282264 0 0.000597442 0 0)
(0.0498891 0.00275401 0 0.000642876 0 0)
(0.0568481 0.00227666 0 0.000430745 0 0)
(0.0664927 0.00343164 0 0.000579707 0 0)
(0.0735924 0.00277516 0 0.000650073 0 0)
(0.0839105 0.00536896 0 0.000808321 0 0)
(0.0893592 0.00428348 0 0.00111229 0 0)
(0.0984137 0.00942734 0 0.0018952 0 0)
(0.102052 0.0116867 0 0.00351677 0 0)
(0.111384 0.0255478 0 0.0113788 0 0)
(0.121255 0.041973 0 0.031542 0 0)
(0.163128 0.092317 0 0.109747 0 0)
(0.0683339 0.00336918 0 0.000229763 0 0)
(0.00144529 0.000450171 0 0.00084999 0 0)
(0.0035372 0.000324109 0 0.000743016 0 0)
(0.0104062 0.000931258 0 0.000223759 0 0)
(0.0192335 0.00135293 0 0.000234586 0 0)
(0.0252941 0.00239827 0 0.000411287 0 0)
(0.0288706 0.00300583 0 0.000591713 0 0)
(0.0337928 0.00315093 0 0.000640989 0 0)
(0.0381932 0.00239949 0 0.000446046 0 0)
(0.0463542 0.002379 0 0.000449501 0 0)
(0.0525525 0.00194167 0 0.000326565 0 0)
(0.0626818 0.00300223 0 0.000447087 0 0)
(0.068726 0.00243926 0 0.000536385 0 0)
(0.0793072 0.00440238 0 0.000626464 0 0)
(0.0834809 0.00393943 0 0.000936541 0 0)
(0.0941467 0.00844965 0 0.00170929 0 0)
(0.0973095 0.0111688 0 0.00341346 0 0)
(0.109908 0.0245741 0 0.0112871 0 0)
(0.120602 0.0418891 0 0.0306063 0 0)
(0.166728 0.0902612 0 0.100329 0 0)
(0.0684507 0.00262163 0 0.000155692 0 0)
(0.00133716 0.000308716 0 0.00059498 0 0)
(0.00347279 0.000222831 0 0.000519434 0 0)
(0.00962952 0.000709493 0 0.00018758 0 0)
(0.0179772 0.000969354 0 0.000194957 0 0)
(0.0238713 0.00185784 0 0.000315342 0 0)
(0.0271993 0.00232787 0 0.000455939 0 0)
(0.0314527 0.00238001 0 0.000487512 0 0)
(0.0357976 0.00172985 0 0.000355283 0 0)
(0.0433684 0.00169501 0 0.000391965 0 0)
(0.0497835 0.00133071 0 0.000296746 0 0)
(0.0590434 0.0022919 0 0.000380766 0 0)
(0.0655442 0.00167965 0 0.00048178 0 0)
(0.0750947 0.00343159 0 0.000568606 0 0)
(0.0801871 0.00312301 0 0.00084532 0 0)
(0.0901778 0.00730461 0 0.00163325 0 0)
(0.0951736 0.0102626 0 0.00338532 0 0)
(0.108267 0.0234929 0 0.0110024 0 0)
(0.122129 0.0412696 0 0.0294793 0 0)
(0.170131 0.0884313 0 0.0916081 0 0)
(0.0686604 0.0019629 0 0.000110309 0 0)
(0.00120507 0.000110403 0 0.000414772 0 0)
(0.0032902 3.18851e-06 0 0.000380795 0 0)
(0.00893336 0.000402306 0 0.000188658 0 0)
(0.0172507 0.000545699 0 0.000203216 0 0)
(0.0225753 0.0011428 0 0.000292811 0 0)
(0.0261049 0.00153819 0 0.000401933 0 0)
(0.0294096 0.00153347 0 0.000422303 0 0)
(0.0344368 0.00108129 0 0.000323882 0 0)
(0.0408868 0.00103891 0 0.000337732 0 0)
(0.0480041 0.000812366 0 0.000290114 0 0)
(0.0559013 0.00151572 0 0.000363852 0 0)
(0.0636052 0.00100427 0 0.000474046 0 0)
(0.0714612 0.00255584 0 0.000547071 0 0)
(0.0783215 0.00248078 0 0.000778803 0 0)
(0.0866777 0.00640738 0 0.00160435 0 0)
(0.0944281 0.00957914 0 0.00331628 0 0)
(0.106457 0.0226559 0 0.010639 0 0)
(0.124716 0.0402364 0 0.0281826 0 0)
(0.171603 0.0866632 0 0.0840268 0 0)
(0.0687202 0.00136324 0 6.96565e-05 0 0)
(0.00129363 5.43125e-05 0 0.000254534 0 0)
(0.00352519 -8.1883e-05 0 0.00023924 0 0)
(0.00880494 0.000254055 0 0.000143046 0 0)
(0.0168951 0.000339026 0 0.000159231 0 0)
(0.0221282 0.000703619 0 0.000224448 0 0)
(0.0255478 0.000977181 0 0.000297022 0 0)
(0.0287727 0.00101445 0 0.000305065 0 0)
(0.0335978 0.000682991 0 0.000233208 0 0)
(0.0396654 0.00072596 0 0.000256176 0 0)
(0.0467845 0.000457641 0 0.000239979 0 0)
(0.0545936 0.0010676 0 0.000299851 0 0)
(0.062203 0.000656492 0 0.000386295 0 0)
(0.0699111 0.00197501 0 0.000466748 0 0)
(0.0767332 0.00217689 0 0.000668038 0 0)
(0.085275 0.00577321 0 0.00147622 0 0)
(0.0937149 0.00943248 0 0.00313978 0 0)
(0.106829 0.0218551 0 0.0100645 0 0)
(0.12748 0.0397009 0 0.0267117 0 0)
(0.175551 0.0842406 0 0.0764105 0 0)
(0.0686453 0.000830047 0 4.58948e-05 0 0)
(0.00127413 8.11911e-05 0 0.000135213 0 0)
(0.00347533 1.5642e-05 0 0.000127756 0 0)
(0.00855048 0.000219994 0 9.37862e-05 0 0)
(0.0162495 0.000273189 0 0.000112263 0 0)
(0.0216707 0.000461572 0 0.000142669 0 0)
(0.0247958 0.000691099 0 0.000183521 0 0)
(0.0284155 0.000664048 0 0.000173362 0 0)
(0.032578 0.000479817 0 0.000148185 0 0)
(0.0389643 0.000417362 0 0.000164719 0 0)
(0.0454546 0.000269735 0 0.000176065 0 0)
(0.0537548 0.000688734 0 0.000196839 0 0)
(0.0605576 0.000490634 0 0.000273922 0 0)
(0.0691053 0.00144732 0 0.000335318 0 0)
(0.0750119 0.00195076 0 0.000542876 0 0)
(0.0848263 0.00516933 0 0.00129132 0 0)
(0.0926739 0.00931236 0 0.00291929 0 0)
(0.108604 0.0209298 0 0.00954098 0 0)
(0.130147 0.0393274 0 0.0247959 0 0)
(0.181379 0.0807089 0 0.0702652 0 0)
(0.0686608 0.000268301 0 3.44591e-05 0 0)
(0.00117947 3.21732e-05 0 8.60723e-05 0 0)
(0.00331297 3.2806e-05 0 7.59027e-05 0 0)
(0.0082773 9.81546e-05 0 7.54313e-05 0 0)
(0.0159147 0.000100099 0 9.66231e-05 0 0)
(0.0212052 0.000199255 0 0.000109844 0 0)
(0.0242507 0.000280654 0 0.000130547 0 0)
(0.0277262 0.000317534 0 0.000123568 0 0)
(0.0319332 0.000131971 0 0.00012086 0 0)
(0.0383433 0.000162915 0 0.000143745 0 0)
(0.0448927 -0.000106315 0 0.000167213 0 0)
(0.0528026 0.000455242 0 0.00017517 0 0)
(0.0597209 3.89561e-05 0 0.000242614 0 0)
(0.0681096 0.0011752 0 0.000308172 0 0)
(0.07453 0.00131472 0 0.000489273 0 0)
(0.0844059 0.00489784 0 0.00124589 0 0)
(0.0933234 0.00842449 0 0.00270945 0 0)
(0.1107 0.0203673 0 0.00915527 0 0)
(0.134483 0.0379287 0 0.0228542 0 0)
(0.188123 0.0763821 0 0.063907 0 0)
(0.068705 -0.000261691 0 3.66126e-05 0 0)
(0.00110497 -8.88953e-05 0 9.72126e-05 0 0)
(0.00325653 -7.69762e-05 0 8.91333e-05 0 0)
(0.00820244 -0.000133077 0 8.82156e-05 0 0)
(0.0159354 -0.000106277 0 0.000101219 0 0)
(0.0209834 -0.000248979 0 0.000112461 0 0)
(0.0241516 -0.00022262 0 0.000131104 0 0)
(0.0271682 -0.000275769 0 0.000130627 0 0)
(0.0318477 -0.000240518 0 0.000127809 0 0)
(0.0379622 -0.000302218 0 0.000136045 0 0)
(0.0450503 -0.00037217 0 0.000151819 0 0)
(0.0522838 -8.79675e-05 0 0.000155748 0 0)
(0.0598887 -0.000209582 0 0.000192184 0 0)
(0.0676289 0.000409442 0 0.000290289 0 0)
(0.0752361 0.00112837 0 0.000424145 0 0)
(0.08457 0.00388362 0 0.00115184 0 0)
(0.0956623 0.00822883 0 0.00263191 0 0)
(0.113372 0.0186529 0 0.00837313 0 0)
(0.140239 0.0375861 0 0.0217789 0 0)
(0.195838 0.0707396 0 0.0563742 0 0)
(0.0686467 -0.000800687 0 4.42527e-05 0 0)
(0.00116353 -0.0001509 0 0.000143789 0 0)
(0.00337327 -0.00013356 0 0.000130939 0 0)
(0.00841172 -0.000318698 0 0.000104256 0 0)
(0.016092 -0.00031749 0 0.000115121 0 0)
(0.0212309 -0.00064406 0 0.000133198 0 0)
(0.024317 -0.000773102 0 0.000169397 0 0)
(0.027403 -0.000833385 0 0.000179749 0 0)
(0.0320736 -0.000700774 0 0.000173393 0 0)
(0.0383243 -0.000658298 0 0.000152832 0 0)
(0.04538 -0.00075599 0 0.0001735 0 0)
(0.0527635 -0.000488275 0 0.000159159 0 0)
(0.0604056 -0.000720273 0 0.00021029 0 0)
(0.0684535 -7.43396e-05 0 0.000285041 0 0)
(0.0762599 0.000437153 0 0.000438201 0 0)
(0.0862078 0.00338513 0 0.00108126 0 0)
(0.0982719 0.00711454 0 0.00245721 0 0)
(0.117298 0.0180852 0 0.00785863 0 0)
(0.146337 0.0348977 0 0.0193942 0 0)
(0.203462 0.0715827 0 0.0510414 0 0)
(0.0685711 -0.00135026 0 6.11972e-05 0 0)
(0.00115556 -0.000172144 0 0.00023018 0 0)
(0.00341409 -0.000125096 0 0.000199455 0 0)
(0.00868632 -0.000445492 0 0.000115926 0 0)
(0.0164616 -0.000531175 0 0.000129617 0 0)
(0.0217238 -0.00103645 0 0.000166494 0 0)
(0.0248285 -0.0012655 0 0.000219023 0 0)
(0.0282111 -0.00135866 0 0.000242174 0 0)
(0.0328279 -0.00112117 0 0.000224728 0 0)
(0.0392648 -0.00100026 0 0.000179203 0 0)
(0.0462286 -0.00111592 0 0.000198497 0 0)
(0.0539783 -0.000911692 0 0.0001746 0 0)
(0.0615647 -0.00121186 0 0.000239485 0 0)
(0.0700608 -0.000581042 0 0.000278339 0 0)
(0.0780395 -0.000239596 0 0.000504097 0 0)
(0.0888869 0.00275535 0 0.000996488 0 0)
(0.101501 0.00602998 0 0.00247887 0 0)
(0.12227 0.0172239 0 0.00718469 0 0)
(0.1537 0.0321101 0 0.0179821 0 0)
(0.213146 0.0712341 0 0.0467076 0 0)
(0.0685006 -0.00193728 0 9.0597e-05 0 0)
(0.00112594 -0.000218697 0 0.000367007 0 0)
(0.00339787 -0.000136041 0 0.000298529 0 0)
(0.00903367 -0.000565997 0 0.000126302 0 0)
(0.0170844 -0.000740287 0 0.000142288 0 0)
(0.0224509 -0.001493 0 0.000221274 0 0)
(0.0258161 -0.00172336 0 0.000278705 0 0)
(0.0293455 -0.00190912 0 0.000329751 0 0)
(0.0342029 -0.00145591 0 0.000263002 0 0)
(0.0405665 -0.00145022 0 0.000226317 0 0)
(0.0478697 -0.00135943 0 0.000195761 0 0)
(0.0557659 -0.00151896 0 0.000216666 0 0)
(0.0637484 -0.00147878 0 0.000212408 0 0)
(0.0722349 -0.00143579 0 0.000348133 0 0)
(0.0809646 -0.000474715 0 0.000462699 0 0)
(0.0921089 0.00148894 0 0.00105121 0 0)
(0.106032 0.00575124 0 0.0023074 0 0)
(0.128023 0.0148691 0 0.00652452 0 0)
(0.162392 0.0312544 0 0.0166936 0 0)
(0.222239 0.0636036 0 0.038527 0 0)
(0.0683486 -0.00260573 0 0.000140808 0 0)
(0.00104849 -0.00028514 0 0.000559966 0 0)
(0.00329194 -0.000180001 0 0.00046441 0 0)
(0.00944874 -0.0006891 0 0.000147431 0 0)
(0.017802 -0.000985694 0 0.000170842 0 0)
(0.0235211 -0.00191236 0 0.000292609 0 0)
(0.0270164 -0.00230029 0 0.000396495 0 0)
(0.030869 -0.00238333 0 0.000439527 0 0)
(0.035789 -0.00193195 0 0.000363724 0 0)
(0.0424757 -0.00179685 0 0.000287613 0 0)
(0.049929 -0.0018624 0 0.000263046 0 0)
(0.0582778 -0.00189161 0 0.000253563 0 0)
(0.0663758 -0.0021158 0 0.000270783 0 0)
(0.0753568 -0.00189714 0 0.000381413 0 0)
(0.0843688 -0.00130848 0 0.000511291 0 0)
(0.0963148 0.000902385 0 0.00107573 0 0)
(0.111217 0.00446009 0 0.00209776 0 0)
(0.135071 0.0135382 0 0.00625025 0 0)
(0.171814 0.0282667 0 0.0145926 0 0)
(0.233423 0.0580115 0 0.0350363 0 0)
(0.0682181 -0.00331479 0 0.000206336 0 0)
(0.000998725 -0.000409425 0 0.000809379 0 0)
(0.00328177 -0.000310894 0 0.000654476 0 0)
(0.0100265 -0.000879975 0 0.000172713 0 0)
(0.0187777 -0.00125073 0 0.000190469 0 0)
(0.0247948 -0.00244663 0 0.000376204 0 0)
(0.0285706 -0.0028425 0 0.000493839 0 0)
(0.0327156 -0.00305686 0 0.000582894 0 0)
(0.0378866 -0.00234574 0 0.000426903 0 0)
(0.0449337 -0.00237926 0 0.000370556 0 0)
(0.0526332 -0.00221677 0 0.000279002 0 0)
(0.0612774 -0.00256219 0 0.000304574 0 0)
(0.0697104 -0.00247125 0 0.000270693 0 0)
(0.0791756 -0.00278948 0 0.000439711 0 0)
(0.0887487 -0.00175345 0 0.000539456 0 0)
(0.10145 -0.000297347 0 0.0010776 0 0)
(0.117669 0.00356829 0 0.00205517 0 0)
(0.143211 0.011347 0 0.00572805 0 0)
(0.182713 0.0252558 0 0.013169 0 0)
(0.246775 0.0525128 0 0.0320746 0 0)
(0.0680947 -0.00417425 0 0.000309231 0 0)
(0.00103685 -0.000581774 0 0.00111177 0 0)
(0.00343083 -0.000517639 0 0.000904818 0 0)
(0.0108903 -0.001097 0 0.000212639 0 0)
(0.0200885 -0.00165597 0 0.000255558 0 0)
(0.0263982 -0.00299288 0 0.000499523 0 0)
(0.0305999 -0.0035062 0 0.000667523 0 0)
(0.0351057 -0.00369764 0 0.00076476 0 0)
(0.040753 -0.0029396 0 0.000567637 0 0)
(0.0480945 -0.00291303 0 0.00048397 0 0)
(0.0562123 -0.00272797 0 0.000337255 0 0)
(0.0651389 -0.0031624 0 0.000387365 0 0)
(0.0741532 -0.00301595 0 0.000301959 0 0)
(0.0840322 -0.00361066 0 0.000546953 0 0)
(0.0945409 -0.00239473 0 0.000561601 0 0)
(0.107886 -0.00151882 0 0.00117079 0 0)
(0.125785 0.00244905 0 0.0019863 0 0)
(0.152612 0.00888475 0 0.00531713 0 0)
(0.195563 0.0219009 0 0.0120587 0 0)
(0.261646 0.0461593 0 0.0291118 0 0)
(0.0680713 -0.00509649 0 0.00044085 0 0)
(0.00110873 -0.000797191 0 0.0014826 0 0)
(0.00370603 -0.000771442 0 0.00110593 0 0)
(0.0120355 -0.00136668 0 0.000260421 0 0)
(0.0217577 -0.00212962 0 0.000326237 0 0)
(0.0285191 -0.00366056 0 0.000644986 0 0)
(0.0331596 -0.00419477 0 0.000837571 0 0)
(0.0382295 -0.00441485 0 0.000949461 0 0)
(0.0442943 -0.00355176 0 0.000694958 0 0)
(0.0521691 -0.00355307 0 0.000596673 0 0)
(0.0606334 -0.00327885 0 0.00038975 0 0)
(0.070272 -0.00388616 0 0.00047452 0 0)
(0.0796035 -0.00360105 0 0.000339731 0 0)
(0.090412 -0.00457055 0 0.000658447 0 0)
(0.101446 -0.003097 0 0.000608674 0 0)
(0.116086 -0.00291272 0 0.0012669 0 0)
(0.135009 0.00121977 0 0.00197996 0 0)
(0.164021 0.0061347 0 0.00493588 0 0)
(0.20965 0.0181782 0 0.0112405 0 0)
(0.278633 0.0389146 0 0.0262236 0 0)
(0.0686139 -0.00618346 0 0.000626829 0 0)
(0.00119851 -0.00104125 0 0.00193779 0 0)
(0.00419196 -0.00111994 0 0.00124335 0 0)
(0.0133298 -0.00170398 0 0.000344609 0 0)
(0.024074 -0.0027412 0 0.000443475 0 0)
(0.0308091 -0.00438738 0 0.000838559 0 0)
(0.0366893 -0.00502168 0 0.00106425 0 0)
(0.0416799 -0.00515351 0 0.00116959 0 0)
(0.0489201 -0.0042715 0 0.000858879 0 0)
(0.0567121 -0.00424588 0 0.000743899 0 0)
(0.0663936 -0.00397391 0 0.000468369 0 0)
(0.076045 -0.0046793 0 0.000588351 0 0)
(0.0865308 -0.00429071 0 0.000388384 0 0)
(0.0976437 -0.00563772 0 0.000809376 0 0)
(0.109982 -0.00387512 0 0.000646573 0 0)
(0.125372 -0.00448245 0 0.00144072 0 0)
(0.145922 -3.47358e-05 0 0.00190845 0 0)
(0.176909 0.00301907 0 0.00481366 0 0)
(0.225152 0.014381 0 0.0102651 0 0)
(0.297398 0.0305029 0 0.0242122 0 0)
(0.069982 -0.00748845 0 0.000882787 0 0)
(0.00150667 -0.00130035 0 0.00245971 0 0)
(0.00521679 -0.00160535 0 0.00133965 0 0)
(0.0147006 -0.00208934 0 0.000455627 0 0)
(0.0275175 -0.00355409 0 0.000604575 0 0)
(0.0329122 -0.00510059 0 0.0010548 0 0)
(0.0418834 -0.00604698 0 0.00132584 0 0)
(0.0449069 -0.00581052 0 0.00138494 0 0)
(0.0555832 -0.00523927 0 0.00106439 0 0)
(0.0610552 -0.00484135 0 0.000882427 0 0)
(0.0746197 -0.00492533 0 0.000576354 0 0)
(0.081615 -0.00537177 0 0.000696167 0 0)
(0.0963445 -0.00526974 0 0.000472834 0 0)
(0.104729 -0.00655919 0 0.000957747 0 0)
(0.121755 -0.0049498 0 0.000719638 0 0)
(0.134595 -0.00592791 0 0.00163933 0 0)
(0.159929 -0.00155174 0 0.00184301 0 0)
(0.188998 4.96077e-06 0 0.00482421 0 0)
(0.241079 0.0106928 0 0.00911868 0 0)
(0.312097 0.0220136 0 0.0230041 0 0)
(0.0711756 -0.00897033 0 0.00122894 0 0)
(0.00221907 -0.00162279 0 0.00306201 0 0)
(0.00696631 -0.00222356 0 0.00144156 0 0)
(0.0163738 -0.00254746 0 0.0006076 0 0)
(0.0322838 -0.00460878 0 0.000820777 0 0)
(0.0351991 -0.00588001 0 0.00131438 0 0)
(0.0491628 -0.00731454 0 0.00162364 0 0)
(0.0481709 -0.00644997 0 0.00162122 0 0)
(0.0650666 -0.00651836 0 0.00130376 0 0)
(0.0652736 -0.00541043 0 0.00103492 0 0)
(0.0863173 -0.006152 0 0.000713897 0 0)
(0.0866907 -0.00603061 0 0.000814204 0 0)
(0.110048 -0.00655667 0 0.000589539 0 0)
(0.110086 -0.00731492 0 0.00110557 0 0)
(0.136225 -0.00626188 0 0.000817647 0 0)
(0.138808 -0.00696992 0 0.00180028 0 0)
(0.17184 -0.00302414 0 0.00185023 0 0)
(0.187796 -0.00188054 0 0.00463424 0 0)
(0.241689 0.00842035 0 0.00826218 0 0)
(0.295637 0.0175887 0 0.0208927 0 0)
(0.0705169 -0.0104908 0 0.00167833 0 0)
(0.0030007 -0.0021429 0 0.00374367 0 0)
(0.00888176 -0.00285785 0 0.00156282 0 0)
(0.0186181 -0.00318001 0 0.00080682 0 0)
(0.0374522 -0.00587008 0 0.00110982 0 0)
(0.0388887 -0.00689002 0 0.00163887 0 0)
(0.0574688 -0.00879473 0 0.00197672 0 0)
(0.0530172 -0.00727793 0 0.00189816 0 0)
(0.0755914 -0.00797867 0 0.00158486 0 0)
(0.0698943 -0.00607467 0 0.00120093 0 0)
(0.0969575 -0.00739654 0 0.000865675 0 0)
(0.0882998 -0.00652538 0 0.000934503 0 0)
(0.116941 -0.00759783 0 0.000711521 0 0)
(0.103837 -0.00734138 0 0.00123281 0 0)
(0.132492 -0.00671284 0 0.000888343 0 0)
(0.118229 -0.00641542 0 0.00189211 0 0)
(0.148718 -0.00258636 0 0.00175767 0 0)
(0.144207 -0.000735246 0 0.00431593 0 0)
(0.187976 0.0105186 0 0.00717829 0 0)
(0.221621 0.0203407 0 0.0180124 0 0)
(0.0684564 -0.0120353 0 0.00226013 0 0)
(0.00364002 -0.00291221 0 0.00444255 0 0)
(0.0106183 -0.00343212 0 0.00169522 0 0)
(0.0217439 -0.00409079 0 0.00106869 0 0)
(0.0425535 -0.00725708 0 0.00147274 0 0)
(0.0445194 -0.00819835 0 0.00202548 0 0)
(0.0642091 -0.0101628 0 0.00235764 0 0)
(0.0568843 -0.00804602 0 0.00218452 0 0)
(0.077267 -0.00870998 0 0.00183673 0 0)
(0.0647819 -0.00600167 0 0.00131975 0 0)
(0.0848192 -0.00724895 0 0.000980016 0 0)
(0.0671315 -0.00534492 0 0.000964608 0 0)
(0.0843157 -0.00640841 0 0.000783943 0 0)
(0.0628671 -0.00444376 0 0.0011861 0 0)
(0.0772128 -0.00440808 0 0.000880365 0 0)
(0.0588447 -0.0019761 0 0.00169417 0 0)
(0.0737571 0.000405363 0 0.00157141 0 0)
(0.0704392 0.00501668 0 0.0035194 0 0)
(0.101289 0.0143455 0 0.00596556 0 0)
(0.145666 0.0282788 0 0.0129486 0 0)
(0.0665235 -0.0137615 0 0.00303523 0 0)
(0.00449094 -0.00395758 0 0.00503612 0 0)
(0.0126482 -0.00413362 0 0.00191378 0 0)
(0.0257886 -0.0053307 0 0.00144235 0 0)
(0.0456131 -0.00855774 0 0.00192033 0 0)
(0.045255 -0.00887778 0 0.00241459 0 0)
(0.0551467 -0.00959295 0 0.00262459 0 0)
(0.0411167 -0.00639003 0 0.00231755 0 0)
(0.0459463 -0.00601301 0 0.00184958 0 0)
(0.0310543 -0.00282836 0 0.00125193 0 0)
(0.0335805 -0.00338001 0 0.000890517 0 0)
(0.0233416 -0.000945503 0 0.000826708 0 0)
(0.0236305 -0.00155024 0 0.000662773 0 0)
(0.0213951 0.00129751 0 0.000961965 0 0)
(0.0216989 0.000530106 0 0.000684521 0 0)
(0.0309672 0.00428574 0 0.00134539 0 0)
(0.0358072 0.00422856 0 0.00117954 0 0)
(0.063568 0.0110997 0 0.00270026 0 0)
(0.0925355 0.016377 0 0.00448225 0 0)
(0.168512 0.0325651 0 0.00853179 0 0)
(0.0665052 -0.0159297 0 0.00406487 0 0)
(0.00613625 -0.00538674 0 0.00564492 0 0)
(0.0143166 -0.00494484 0 0.00238011 0 0)
(0.0248854 -0.00594349 0 0.00194774 0 0)
(0.0317701 -0.00734025 0 0.00225496 0 0)
(0.0217562 -0.00522796 0 0.00246339 0 0)
(0.0168762 -0.00354413 0 0.00241646 0 0)
(0.01013 0.000174161 0 0.0019686 0 0)
(0.0109917 0.00076994 0 0.00144787 0 0)
(0.0206977 0.00295683 0 0.000912382 0 0)
(0.0211477 0.0024714 0 0.000615412 0 0)
(0.0465304 0.00432172 0 0.00055007 0 0)
(0.0430335 0.00378763 0 0.000443381 0 0)
(0.0849437 0.00628232 0 0.000636599 0 0)
(0.0798673 0.00465624 0 0.000448936 0 0)
(0.134275 0.00853587 0 0.000911227 0 0)
(0.136108 0.00582877 0 0.000790719 0 0)
(0.200207 0.0141595 0 0.00187116 0 0)
(0.234877 0.0134704 0 0.00293312 0 0)
(0.33155 0.0332061 0 0.00569975 0 0)
(0.0711401 -0.0195264 0 0.00568805 0 0)
(0.00684723 -0.00616007 0 0.00633893 0 0)
(0.00935569 -0.00339984 0 0.00277173 0 0)
(0.00968098 -0.00202208 0 0.00203265 0 0)
(0.00587529 -0.000125739 0 0.00191561 0 0)
(0.0104119 0.00349498 0 0.00183331 0 0)
(0.0245879 0.00539087 0 0.00164871 0 0)
(0.0604221 0.00714308 0 0.00124741 0 0)
(0.0849355 0.0064853 0 0.000854589 0 0)
(0.136509 0.00687202 0 0.000513426 0 0)
(0.150661 0.00609159 0 0.000329821 0 0)
(0.215503 0.00700438 0 0.000295929 0 0)
(0.217826 0.00641036 0 0.000241565 0 0)
(0.299939 0.00805055 0 0.000353029 0 0)
(0.294028 0.00611708 0 0.000249771 0 0)
(0.385224 0.00904735 0 0.000525092 0 0)
(0.383998 0.0050659 0 0.000469062 0 0)
(0.467399 0.0128545 0 0.00111769 0 0)
(0.509763 0.00812697 0 0.00174026 0 0)
(0.583024 0.0273881 0 0.00373799 0 0)
(0.0762177 -0.0241822 0 0.00812936 0 0)