/*--------------------------------*- C++ -*----------------------------------*\
| =========                 |                                                 |
| \\      /  F ield         | OpenFOAM: The Open Source CFD Toolbox           |
|  \\    /   O peration     | Version:  2.4.0                                 |
|   \\  /    A nd           | Web:      www.OpenFOAM.org                      |
|    \\/     M anipulation  |                                                 |
\*---------------------------------------------------------------------------*/
FoamFile
{
    version     2.0;
    format      ascii;
    class       volVectorField;
    location    "0.2";
    object      U_0;
}
// * * * * * * * * * * * * * * * * * * * * * * * * * * * * * * * * * * * * * //

dimensions      [0 1 -1 0 0 0 0];

internalField   nonuniform List<vector> 
4400
(
(5.4042 0.3168 0)
(3.31662 0.0606717 0)
(2.58179 0.00156871 0)
(2.23645 -0.00237713 0)
(2.083 -0.00121232 0)
(1.99341 -0.000742278 0)
(1.96408 -0.000247033 0)
(1.90988 -0.00123198 0)
(1.91873 0.0042033 0)
(1.65297 -0.0684495 0)
(8.68586 0.857253 0)
(7.54347 0.344541 0)
(6.62329 0.11674 0)
(5.91892 0.0535679 0)
(5.52388 0.0286102 0)
(5.25942 0.0134202 0)
(5.18197 0.0119884 0)
(4.98967 0.0007955 0)
(5.05207 0.027 0)
(4.68687 -0.0940397 0)
(9.8919 0.936991 0)
(9.99592 0.477242 0)
(9.48379 0.214135 0)
(8.76206 0.126511 0)
(8.27843 0.0797462 0)
(7.88695 0.0395779 0)
(7.79406 0.0346025 0)
(7.48767 0.00783592 0)
(7.57565 0.043503 0)
(7.23949 -0.0805624 0)
(10.1234 0.806638 0)
(11.1223 0.498162 0)
(11.2632 0.267694 0)
(10.8333 0.19122 0)
(10.4646 0.139173 0)
(10.0421 0.0736101 0)
(9.97933 0.0640944 0)
(9.62747 0.0228771 0)
(9.67705 0.0501239 0)
(9.46289 -0.051828 0)
(10.0516 0.646183 0)
(11.3343 0.436562 0)
(11.9784 0.249435 0)
(11.9658 0.208632 0)
(11.9022 0.17857 0)
(11.5988 0.102948 0)
(11.632 0.0902166 0)
(11.3407 0.0450834 0)
(11.3384 0.0546952 0)
(11.2494 -0.065424 0)
(10.0172 0.514428 0)
(11.2536 0.359389 0)
(12.0489 0.192348 0)
(12.2653 0.17347 0)
(12.4856 0.175726 0)
(12.4015 0.105593 0)
(12.5975 0.0989498 0)
(12.4726 0.0579321 0)
(12.4913 0.0634889 0)
(12.5223 -0.0814495 0)
(10.0241 0.395398 0)
(11.1731 0.287924 0)
(11.97 0.141893 0)
(12.2876 0.12525 0)
(12.5203 0.144968 0)
(12.5951 0.0835971 0)
(12.8913 0.0776114 0)
(12.9307 0.0611011 0)
(13.0552 0.0338245 0)
(13.182 -0.02166 0)
(10.0309 0.276368 0)
(11.0925 0.217273 0)
(11.9433 0.0878244 0)
(12.2702 0.0890014 0)
(12.433 0.111382 0)
(12.6222 0.0561534 0)
(12.8421 0.0438876 0)
(12.9758 0.0500769 0)
(13.1791 -0.000574816 0)
(13.3488 -0.0173506 0)
(10.0036 0.171091 0)
(11.118 0.12408 0)
(11.9072 0.0488637 0)
(12.1736 0.0514387 0)
(12.4287 0.0776098 0)
(12.6146 0.0247067 0)
(12.7805 0.02733 0)
(12.9698 0.0153236 0)
(13.1719 -0.0241828 0)
(13.2741 -0.0763405 0)
(9.99655 0.0552215 0)
(11.1364 0.0398191 0)
(11.8317 0.0164904 0)
(12.1714 0.0131453 0)
(12.4133 0.0340741 0)
(12.6172 0.00163388 0)
(12.7947 -0.00542122 0)
(12.9365 -0.00435323 0)
(13.129 -0.0519275 0)
(13.1794 -0.0809185 0)
(10.0023 -0.0538929 0)
(11.1169 -0.0461465 0)
(11.8529 -0.0170398 0)
(12.18 -0.0287296 0)
(12.404 -0.00528444 0)
(12.614 -0.0308605 0)
(12.7697 -0.0208035 0)
(12.9362 -0.0301457 0)
(13.1265 -0.0782704 0)
(13.1656 -0.103669 0)
(10.0049 -0.166736 0)
(11.1417 -0.133874 0)
(11.878 -0.0517486 0)
(12.1863 -0.0656063 0)
(12.4022 -0.0428129 0)
(12.6154 -0.0576017 0)
(12.7957 -0.0498366 0)
(12.9645 -0.0571236 0)
(13.1256 -0.0965468 0)
(13.1938 -0.131568 0)
(10.0453 -0.280327 0)
(11.1382 -0.217585 0)
(11.9157 -0.0880612 0)
(12.1906 -0.102523 0)
(12.4617 -0.0845508 0)
(12.6336 -0.0877621 0)
(12.8293 -0.0718393 0)
(12.9583 -0.0776245 0)
(13.1387 -0.12006 0)
(13.1928 -0.157893 0)
(10.0737 -0.398341 0)
(11.1327 -0.291929 0)
(11.9957 -0.131414 0)
(12.2137 -0.143388 0)
(12.5378 -0.124278 0)
(12.6069 -0.110711 0)
(12.8462 -0.0969788 0)
(12.8804 -0.0991116 0)
(13.0417 -0.137125 0)
(12.9625 -0.183409 0)
(10.0576 -0.518552 0)
(11.1994 -0.359147 0)
(12.0689 -0.186211 0)
(12.2304 -0.186649 0)
(12.4835 -0.160101 0)
(12.4116 -0.130845 0)
(12.5528 -0.111073 0)
(12.4045 -0.106632 0)
(12.4562 -0.135529 0)
(12.1958 -0.187231 0)
(10.0735 -0.648525 0)
(11.2943 -0.435734 0)
(12.0026 -0.245697 0)
(11.9408 -0.218077 0)
(11.8999 -0.169223 0)
(11.6103 -0.122546 0)
(11.5653 -0.100453 0)
(11.2764 -0.0876467 0)
(11.2286 -0.121889 0)
(10.8551 -0.141594 0)
(10.1361 -0.808246 0)
(11.0944 -0.497675 0)
(11.2874 -0.265648 0)
(10.8084 -0.197743 0)
(10.4659 -0.133496 0)
(10.0455 -0.0879872 0)
(9.90121 -0.0704457 0)
(9.57014 -0.0609514 0)
(9.49064 -0.0937583 0)
(9.04911 -0.0871145 0)
(9.89807 -0.937636 0)
(9.97757 -0.476953 0)
(9.50327 -0.21306 0)
(8.73991 -0.130328 0)
(8.28127 -0.0770301 0)
(7.87962 -0.0480351 0)
(7.72245 -0.0390186 0)
(7.42697 -0.0357864 0)
(7.34788 -0.0588465 0)
(6.88232 -0.0511624 0)
(8.6886 -0.857469 0)
(7.5332 -0.344559 0)
(6.6352 -0.116234 0)
(5.90329 -0.0554185 0)
(5.52516 -0.0276558 0)
(5.24649 -0.0169429 0)
(5.12906 -0.0147857 0)
(4.9215 -0.0153317 0)
(4.84659 -0.027546 0)
(4.45875 -0.0207856 0)
(5.40477 -0.316777 0)
(3.31339 -0.060724 0)
(2.5853 -0.00142222 0)
(2.23053 0.00200139 0)
(2.08138 0.00143042 0)
(1.98428 0.000433094 0)
(1.93907 -0.000152802 0)
(1.85893 -0.000939329 0)
(1.80631 -0.00289503 0)
(1.62867 0.00940904 0)
(2.71656 0.0500822 0)
(2.91443 -0.0392458 0)
(3.45908 0.10484 0)
(3.47641 -0.0500638 0)
(3.79812 -0.0997459 0)
(4.09223 -0.27272 0)
(4.20286 -0.524349 0)
(4.6109 -0.603486 0)
(4.46161 -0.553774 0)
(4.29212 -0.598776 0)
(4.19258 -0.393454 0)
(3.79821 0.0369474 0)
(4.19821 0.316767 0)
(4.73292 0.70507 0)
(5.56512 1.18429 0)
(6.99807 1.28437 0)
(8.01802 0.920403 0)
(9.06051 0.279912 0)
(9.87995 -0.7192 0)
(10.0544 -1.53117 0)
(10.1314 -2.0239 0)
(10.8131 -2.68341 0)
(11.4127 -3.18909 0)
(12.1628 -3.68147 0)
(13.1045 -4.21703 0)
(13.3295 -4.47504 0)
(13.3775 -4.41582 0)
(13.1513 -4.05608 0)
(13.3635 -3.49439 0)
(12.9683 -2.97249 0)
(12.8668 -1.85562 0)
(12.2649 -0.786895 0)
(11.6985 0.235501 0)
(11.3964 1.88821 0)
(11.2816 3.04171 0)
(11.0384 3.46439 0)
(11.2488 3.62336 0)
(11.7841 3.60233 0)
(11.8911 3.53218 0)
(12.0504 2.66674 0)
(11.5127 0.868729 0)
(11.2682 -0.198364 0)
(10.9808 -0.651866 0)
(10.4896 -1.88375 0)
(10.0664 -2.73086 0)
(9.38685 -2.90173 0)
(9.12623 -2.9495 0)
(8.45487 -3.28515 0)
(7.91564 -3.24083 0)
(7.77759 -2.11309 0)
(8.04559 -0.980739 0)
(7.57966 -1.37583 0)
(7.17528 -3.32907 0)
(6.68881 -6.46198 0)
(6.42311 -9.06843 0)
(6.62166 -8.86372 0)
(6.70981 -7.50277 0)
(6.72935 -4.83631 0)
(7.01302 -1.33389 0)
(6.19584 0.619186 0)
(6.51835 2.20213 0)
(7.97237 5.76437 0)
(9.5136 9.07694 0)
(9.20256 10.5375 0)
(9.47067 9.97312 0)
(7.11059 8.71683 0)
(8.20925 6.94875 0)
(5.12268 5.37914 0)
(6.09065 3.49818 0)
(4.18463 3.05743 0)
(4.30225 1.76505 0)
(3.94739 2.27277 0)
(4.12919 1.30483 0)
(4.37353 0.970675 0)
(3.26163 -0.142924 0)
(4.94685 0.610935 0)
(5.47257 -0.0627706 0)
(6.78551 -0.25029 0)
(7.17361 -0.809575 0)
(8.05943 -0.653712 0)
(9.06917 -1.65981 0)
(8.62234 -0.562104 0)
(10.038 -1.9676 0)
(9.32233 -1.79807 0)
(9.89902 -2.33873 0)
(8.76468 -1.18551 0)
(9.8433 -2.35052 0)
(7.74706 -1.66131 0)
(8.37203 -1.58016 0)
(7.6765 0.0434943 0)
(8.16357 -1.57116 0)
(7.26382 -0.412419 0)
(7.14793 -1.14425 0)
(6.34021 1.01014 0)
(6.4024 0.692009 0)
(6.32273 2.97083 0)
(6.83854 2.54096 0)
(5.62553 4.45813 0)
(7.38151 4.82156 0)
(4.29422 9.52688 0)
(5.2227 -0.0404038 0)
(5.3315 -0.0849555 0)
(5.64599 0.0222779 0)
(5.74353 -0.041675 0)
(5.88464 -0.233467 0)
(6.16282 -0.397285 0)
(6.24775 -0.557604 0)
(6.58855 -0.644216 0)
(6.57206 -0.591028 0)
(6.42987 -0.500562 0)
(6.36627 -0.297182 0)
(6.1162 -0.0066545 0)
(6.19129 0.28129 0)
(6.4859 0.506231 0)
(6.93167 0.698414 0)
(7.81845 0.766418 0)
(8.80756 0.419053 0)
(9.82776 -0.13541 0)
(10.6607 -0.927043 0)
(10.946 -1.65483 0)
(11.3787 -2.19072 0)
(12.2327 -3.00555 0)
(12.756 -3.53282 0)
(13.181 -3.93313 0)
(13.7703 -4.41022 0)
(13.7292 -4.51437 0)
(13.5202 -4.32364 0)
(13.3564 -4.0215 0)
(13.5196 -3.403 0)
(13.293 -2.79499 0)
(13.0431 -1.74283 0)
(12.7022 -0.559762 0)
(11.9514 0.457941 0)
(11.4671 1.8987 0)
(11.6252 3.07908 0)
(11.4263 3.58991 0)
(11.2591 3.56349 0)
(11.8074 3.37869 0)
(12.0525 3.41659 0)
(12.2513 2.70835 0)
(11.9414 1.01013 0)
(11.633 -0.0564778 0)
(11.3273 -0.476044 0)
(10.8664 -1.69499 0)
(10.3863 -2.57033 0)
(9.70745 -2.69214 0)
(9.36855 -2.77405 0)
(8.74745 -3.03658 0)
(8.18066 -3.04193 0)
(7.86141 -2.08542 0)
(8.00632 -0.918299 0)
(7.41131 -1.19148 0)
(7.02333 -3.20582 0)
(6.49137 -6.36278 0)
(5.99465 -8.97328 0)
(6.03058 -8.9458 0)
(6.23295 -7.46535 0)
(6.00122 -4.66508 0)
(6.16022 -1.29372 0)
(5.40659 0.625654 0)
(5.73003 1.88125 0)
(7.11361 5.23681 0)
(8.96463 8.6844 0)
(8.84289 10.5897 0)
(9.64285 10.3826 0)
(7.27413 9.13421 0)
(8.42745 7.25774 0)
(5.80549 5.81407 0)
(6.48714 3.73911 0)
(5.17629 3.28767 0)
(4.97862 2.04199 0)
(4.69078 2.142 0)
(4.23589 1.27826 0)
(5.5007 1.02747 0)
(4.25995 -0.130595 0)
(5.5692 0.147175 0)
(5.5664 -0.35631 0)
(7.27743 -0.706606 0)
(7.37452 -1.15211 0)
(8.49863 -0.86142 0)
(9.23173 -1.91363 0)
(8.93378 -0.717489 0)
(10.4039 -2.12035 0)
(9.76313 -1.7354 0)
(10.4043 -2.32298 0)
(8.91956 -1.05209 0)
(10.3074 -2.4309 0)
(8.07488 -1.39483 0)
(9.12015 -1.76724 0)
(7.90412 0.325053 0)
(9.15998 -1.75276 0)
(7.47344 0.0265534 0)
(8.24537 -1.20002 0)
(6.54769 1.42943 0)
(7.33205 0.346056 0)
(6.30311 3.15707 0)
(8.00376 2.27082 0)
(5.8807 4.95547 0)
(9.31192 4.26051 0)
(6.10889 10.2316 0)
(7.50792 -0.223851 0)
(7.55161 -0.200241 0)
(7.88341 -0.0152146 0)
(8.00091 -0.0714602 0)
(8.00886 -0.293545 0)
(8.32947 -0.487552 0)
(8.26681 -0.655422 0)
(8.44694 -0.678617 0)
(8.66573 -0.582892 0)
(8.42147 -0.445841 0)
(8.33 -0.223026 0)
(8.31903 -0.0392029 0)
(8.16953 0.224994 0)
(8.4782 0.38821 0)
(8.83071 0.437926 0)
(9.40398 0.492186 0)
(10.2328 0.132785 0)
(11.0024 -0.424132 0)
(11.8556 -1.10519 0)
(12.2512 -1.84673 0)
(12.7577 -2.38816 0)
(13.5048 -3.24403 0)
(13.7617 -3.74563 0)
(13.8704 -3.99848 0)
(14.0613 -4.40356 0)
(13.8162 -4.44232 0)
(13.4637 -4.19801 0)
(13.4529 -3.9382 0)
(13.5549 -3.38367 0)
(13.4861 -2.65211 0)
(13.0702 -1.60519 0)
(12.8726 -0.413838 0)
(12.4272 0.694558 0)
(11.7026 1.97287 0)
(11.7028 3.09064 0)
(11.6271 3.72518 0)
(11.2928 3.55627 0)
(11.7221 3.16266 0)
(11.9568 3.31339 0)
(12.1276 2.7199 0)
(12.0385 1.11491 0)
(11.7424 0.105619 0)
(11.4501 -0.318883 0)
(11.0961 -1.50669 0)
(10.5891 -2.38002 0)
(9.89815 -2.44872 0)
(9.51592 -2.55466 0)
(8.98544 -2.80604 0)
(8.40611 -2.81579 0)
(7.96284 -1.97778 0)
(7.91952 -0.817794 0)
(7.30481 -0.98924 0)
(6.83349 -3.01441 0)
(6.17732 -6.18173 0)
(5.61036 -8.8103 0)
(5.45036 -8.95216 0)
(5.76508 -7.38012 0)
(5.28706 -4.48915 0)
(5.35533 -1.25877 0)
(4.57207 0.68182 0)
(4.90622 1.60689 0)
(6.20609 4.68174 0)
(8.47144 8.1042 0)
(8.47672 10.3371 0)
(9.83489 10.4811 0)
(7.56217 9.386 0)
(8.62267 7.47562 0)
(6.48779 6.14824 0)
(6.83974 3.93249 0)
(5.79082 3.40023 0)
(5.6012 2.27575 0)
(5.56837 2.15391 0)
(4.4548 1.26923 0)
(6.07899 0.847915 0)
(5.23394 -0.166917 0)
(6.60247 -0.132849 0)
(6.14432 -0.570378 0)
(8.04054 -1.07254 0)
(7.68813 -1.50001 0)
(8.97737 -1.16139 0)
(9.21799 -2.03452 0)
(9.38378 -0.926611 0)
(10.5923 -2.27433 0)
(10.0048 -1.76 0)
(10.8377 -2.34138 0)
(9.27341 -0.810142 0)
(10.9866 -2.30833 0)
(8.55098 -1.00432 0)
(9.9603 -1.82414 0)
(8.01088 0.569589 0)
(10.1107 -1.98726 0)
(7.54617 0.40731 0)
(9.61641 -1.46957 0)
(6.61603 1.98911 0)
(9.55743 -0.125828 0)
(6.48813 3.77674 0)
(10.12 1.78768 0)
(5.88634 5.34684 0)
(11.2197 3.25088 0)
(7.98208 10.2022 0)
(9.70107 -0.27558 0)
(9.55909 -0.304668 0)
(9.70097 -0.0989748 0)
(9.9809 -0.0727003 0)
(9.87 -0.328509 0)
(10.1176 -0.556283 0)
(10.2092 -0.671583 0)
(10.1678 -0.693797 0)
(10.4381 -0.597967 0)
(10.2777 -0.383786 0)
(10.1152 -0.162876 0)
(10.2189 -0.0701395 0)
(9.94322 0.1854 0)
(10.238 0.267751 0)
(10.5703 0.207014 0)
(11.0203 0.271012 0)
(11.7733 -0.119443 0)
(12.3734 -0.666065 0)
(13.141 -1.24996 0)
(13.4837 -2.04432 0)
(13.8364 -2.57945 0)
(14.3354 -3.35403 0)
(14.2054 -3.86493 0)
(13.9758 -4.00263 0)
(13.8774 -4.35598 0)
(13.6392 -4.37002 0)
(13.3427 -4.16149 0)
(13.5731 -3.95599 0)
(13.7164 -3.4052 0)
(13.6258 -2.59411 0)
(13.3127 -1.52658 0)
(13.0106 -0.31509 0)
(12.7013 0.915384 0)
(12.0005 2.10172 0)
(11.7261 3.13328 0)
(11.7215 3.89516 0)
(11.2706 3.61093 0)
(11.5179 3.01247 0)
(11.7235 3.20423 0)
(11.8975 2.65153 0)
(11.9556 1.14429 0)
(11.6839 0.246576 0)
(11.4078 -0.208437 0)
(11.1698 -1.35211 0)
(10.6659 -2.18037 0)
(9.95563 -2.23633 0)
(9.59153 -2.36056 0)
(9.15325 -2.59095 0)
(8.54876 -2.58798 0)
(8.07358 -1.83563 0)
(7.7871 -0.658307 0)
(7.23263 -0.763632 0)
(6.60388 -2.78067 0)
(5.83314 -5.96601 0)
(5.28105 -8.60692 0)
(4.89363 -8.94787 0)
(5.25657 -7.21754 0)
(4.52616 -4.22235 0)
(4.55314 -1.15901 0)
(3.79979 0.698033 0)
(4.22642 1.24133 0)
(5.29733 4.0739 0)
(7.86198 7.54173 0)
(7.93304 10.075 0)
(9.82807 10.5758 0)
(7.82558 9.753 0)
(8.75416 7.72062 0)
(7.02894 6.45196 0)
(7.3135 4.25827 0)
(6.27007 3.48282 0)
(5.96174 2.34834 0)
(6.43378 2.21637 0)
(5.31424 1.31605 0)
(6.66577 0.596031 0)
(6.10802 -0.341154 0)
(7.71965 -0.469828 0)
(7.05022 -0.750906 0)
(9.11603 -1.33229 0)
(8.22518 -1.75829 0)
(9.65049 -1.31922 0)
(9.05504 -2.11074 0)
(9.81014 -1.25457 0)
(10.5818 -2.41524 0)
(10.317 -1.749 0)
(11.1646 -2.33116 0)
(9.33144 -0.633733 0)
(11.3743 -2.39078 0)
(8.76533 -0.794483 0)
(10.7449 -1.89727 0)
(7.99047 0.834271 0)
(11.1247 -2.11653 0)
(7.00372 0.745004 0)
(11.1384 -1.67336 0)
(5.91175 2.26375 0)
(12.4946 -0.768456 0)
(6.33306 3.86888 0)
(14.2874 1.16995 0)
(7.52067 6.34942 0)
(12.4665 2.24687 0)
(9.02932 9.70288 0)
(11.4838 -0.261348 0)
(11.357 -0.278769 0)
(11.3249 -0.116664 0)
(11.5386 -0.10745 0)
(11.4229 -0.35017 0)
(11.5081 -0.605586 0)
(11.596 -0.724767 0)
(11.5139 -0.730861 0)
(11.8041 -0.610075 0)
(11.7258 -0.337444 0)
(11.6123 -0.131513 0)
(11.7844 -0.0704665 0)
(11.4752 0.17542 0)
(11.7483 0.15701 0)
(11.994 0.00588724 0)
(12.3081 0.0623332 0)
(13.0126 -0.356924 0)
(13.464 -0.909465 0)
(14.0082 -1.37873 0)
(14.2985 -2.1781 0)
(14.4137 -2.73636 0)
(14.6011 -3.35983 0)
(14.1437 -3.82787 0)
(13.7573 -3.9029 0)
(13.6459 -4.25256 0)
(13.5537 -4.36476 0)
(13.4292 -4.1936 0)
(13.6116 -4.02248 0)
(13.7769 -3.4506 0)
(13.5249 -2.57822 0)
(13.299 -1.46371 0)
(13.1369 -0.257794 0)
(12.9439 1.06397 0)
(12.3566 2.29212 0)
(11.8049 3.2262 0)
(11.7557 4.02416 0)
(11.1951 3.6975 0)
(11.2891 2.94583 0)
(11.4133 3.12929 0)
(11.53 2.59347 0)
(11.7009 1.18759 0)
(11.4847 0.39578 0)
(11.2965 -0.120149 0)
(11.1386 -1.21874 0)
(10.6277 -1.97786 0)
(9.91181 -2.0212 0)
(9.63971 -2.178 0)
(9.33329 -2.39148 0)
(8.69406 -2.33221 0)
(8.14895 -1.61507 0)
(7.6539 -0.447841 0)
(7.12699 -0.50289 0)
(6.34584 -2.48896 0)
(5.49791 -5.7379 0)
(4.92311 -8.44964 0)
(4.30992 -8.89991 0)
(4.61698 -7.04844 0)
(3.72729 -3.99121 0)
(3.86011 -1.08897 0)
(3.09263 0.736836 0)
(3.59447 0.932163 0)
(4.26022 3.48183 0)
(7.31956 6.85911 0)
(7.41259 9.5449 0)
(9.74194 10.4309 0)
(8.16329 9.94852 0)
(9.01617 7.94523 0)
(7.52395 6.68534 0)
(7.8394 4.59498 0)
(7.07993 3.68509 0)
(6.56186 2.42035 0)
(7.20918 2.21828 0)
(6.74396 1.40628 0)
(7.84472 0.398526 0)
(7.14279 -0.522607 0)
(8.77082 -0.732529 0)
(8.01701 -1.00623 0)
(10.1761 -1.48371 0)
(8.89123 -1.85935 0)
(10.3562 -1.43803 0)
(8.96591 -2.03382 0)
(10.383 -1.61717 0)
(10.3672 -2.48409 0)
(10.4935 -1.84036 0)
(11.1579 -2.29599 0)
(9.57674 -0.520021 0)
(11.5855 -2.32628 0)
(8.92682 -0.55035 0)
(10.9686 -1.85913 0)
(8.05502 1.02196 0)
(11.2666 -2.06885 0)
(6.57854 1.16292 0)
(11.2737 -1.69601 0)
(5.1245 2.77825 0)
(11.4164 -1.68549 0)
(6.17511 4.63979 0)
(11.9145 -0.869243 0)
(8.84125 6.49343 0)
(14.3896 1.56909 0)
(10.4921 9.25592 0)
(12.6919 -0.289587 0)
(12.5641 -0.301545 0)
(12.5341 -0.123721 0)
(12.7163 -0.0892922 0)
(12.6315 -0.30957 0)
(12.6518 -0.596734 0)
(12.6295 -0.732436 0)
(12.4429 -0.76133 0)
(12.6706 -0.663232 0)
(12.5982 -0.332296 0)
(12.5817 -0.134777 0)
(12.7937 -0.0726853 0)
(12.5447 0.162964 0)
(12.8495 0.0710454 0)
(13.0138 -0.128178 0)
(13.2166 -0.106844 0)
(13.8226 -0.546356 0)
(14.1589 -1.04974 0)
(14.4618 -1.46124 0)
(14.6211 -2.25738 0)
(14.4609 -2.76101 0)
(14.3667 -3.25414 0)
(13.8652 -3.75699 0)
(13.475 -3.82434 0)
(13.4954 -4.15497 0)
(13.5393 -4.42392 0)
(13.4683 -4.27541 0)
(13.4617 -4.02811 0)
(13.4284 -3.3913 0)
(13.0468 -2.48745 0)
(12.8774 -1.38274 0)
(12.7848 -0.185865 0)
(12.6722 1.12025 0)
(12.5065 2.40666 0)
(11.9154 3.38211 0)
(11.7468 4.19906 0)
(11.1326 3.78808 0)
(11.0544 2.90704 0)
(11.0304 3.07303 0)
(11.1478 2.51595 0)
(11.4479 1.19233 0)
(11.2646 0.482563 0)
(11.1266 -0.0768563 0)
(10.9815 -1.08399 0)
(10.4475 -1.75419 0)
(9.82789 -1.8187 0)
(9.65473 -2.0347 0)
(9.40944 -2.21921 0)
(8.76585 -2.09741 0)
(8.11345 -1.3536 0)
(7.53085 -0.222483 0)
(6.9582 -0.22557 0)
(6.13189 -2.18876 0)
(5.16021 -5.47368 0)
(4.42692 -8.25694 0)
(3.7271 -8.84558 0)
(3.81638 -6.81935 0)
(2.84545 -3.76016 0)
(3.2821 -1.01605 0)
(2.39334 0.69956 0)
(3.29425 0.646527 0)
(3.36431 2.80194 0)
(6.71055 6.18465 0)
(6.73938 8.99724 0)
(9.45146 10.1147 0)
(8.29924 10.022 0)
(9.28298 8.17112 0)
(8.07768 6.85283 0)
(8.25423 4.8252 0)
(8.01456 3.8713 0)
(7.57818 2.52756 0)
(7.9705 2.1633 0)
(8.14399 1.34728 0)
(9.15248 0.320749 0)
(8.32601 -0.596198 0)
(9.63249 -0.939612 0)
(8.86269 -1.23934 0)
(10.9329 -1.6067 0)
(9.59225 -1.89134 0)
(10.9219 -1.41095 0)
(9.15428 -1.91262 0)
(11.0221 -1.9631 0)
(10.1259 -2.49279 0)
(10.7035 -1.92486 0)
(10.908 -2.26966 0)
(9.71676 -0.490382 0)
(11.4435 -2.30412 0)
(9.21868 -0.436845 0)
(10.8831 -1.75353 0)
(8.19051 1.15456 0)
(10.8594 -1.88111 0)
(7.08075 1.29112 0)
(9.53445 -1.5682 0)
(6.33649 3.35286 0)
(5.78985 -2.55839 0)
(7.11775 5.31338 0)
(5.3307 -1.72278 0)
(7.74438 7.00102 0)
(11.3931 0.303794 0)
(11.106 8.54576 0)
(13.2717 -0.300521 0)
(13.1148 -0.356658 0)
(13.1293 -0.200333 0)
(13.3304 -0.15707 0)
(13.2943 -0.324002 0)
(13.3485 -0.57145 0)
(13.2857 -0.687026 0)
(13.0112 -0.72701 0)
(13.0834 -0.667569 0)
(12.9517 -0.345197 0)
(12.9464 -0.168689 0)
(13.1147 -0.0992433 0)
(13.0406 0.108351 0)
(13.3174 -0.0272718 0)
(13.4389 -0.228767 0)
(13.7282 -0.240097 0)
(14.1478 -0.67897 0)
(14.2688 -1.15679 0)
(14.5045 -1.51863 0)
(14.5142 -2.2526 0)
(14.1124 -2.73107 0)
(13.9305 -3.14028 0)
(13.622 -3.64294 0)
(13.3868 -3.77422 0)
(13.4145 -4.1235 0)
(13.3955 -4.46042 0)
(13.0963 -4.29592 0)
(12.7939 -3.9324 0)
(12.5509 -3.26435 0)
(12.0809 -2.36072 0)
(11.9616 -1.2993 0)
(12.0308 -0.149401 0)
(11.8601 1.129 0)
(12.11 2.45122 0)
(11.785 3.53478 0)
(11.5641 4.40246 0)
(10.9614 3.94332 0)
(10.7927 3.007 0)
(10.7493 3.06245 0)
(10.8494 2.41926 0)
(11.157 1.19021 0)
(10.9166 0.553179 0)
(10.8365 -0.0308641 0)
(10.7084 -0.942108 0)
(10.1638 -1.54461 0)
(9.6378 -1.67746 0)
(9.64628 -1.93306 0)
(9.43963 -2.05153 0)
(8.78575 -1.81576 0)
(8.01224 -1.03304 0)
(7.41026 0.0399942 0)
(6.73245 0.0797544 0)
(5.93065 -1.86417 0)
(4.82388 -5.13425 0)
(3.83506 -7.9895 0)
(3.11614 -8.6869 0)
(2.9963 -6.56371 0)
(2.0228 -3.61003 0)
(2.82869 -1.01397 0)
(1.80993 0.643706 0)
(3.09162 0.459485 0)
(2.3146 2.34066 0)
(6.06773 5.45267 0)
(6.18632 8.4388 0)
(9.02639 9.67964 0)
(8.31031 9.93256 0)
(9.49939 8.29101 0)
(8.6802 6.9323 0)
(8.64304 4.92683 0)
(8.74675 3.92417 0)
(8.68969 2.52968 0)
(8.80095 2.02732 0)
(9.1561 1.19516 0)
(9.9878 0.200283 0)
(9.28779 -0.674825 0)
(10.2279 -1.05674 0)
(9.72068 -1.50069 0)
(11.4116 -1.72209 0)
(10.191 -1.89255 0)
(11.3198 -1.38728 0)
(9.63529 -1.81188 0)
(11.6357 -2.15724 0)
(9.93318 -2.37545 0)
(10.999 -2.01922 0)
(10.4749 -2.1571 0)
(9.88837 -0.555754 0)
(11.2136 -2.22237 0)
(9.45997 -0.250825 0)
(10.3099 -1.66 0)
(8.76248 1.45237 0)
(10.0726 -1.98639 0)
(8.30505 1.95156 0)
(7.86079 -1.66507 0)
(7.30833 4.21645 0)
(4.2266 -2.62203 0)
(7.55464 5.61372 0)
(4.69019 -1.92284 0)
(7.44749 7.16492 0)
(6.55543 -0.937888 0)
(9.85671 7.67868 0)
(13.3393 -0.298881 0)
(13.153 -0.341404 0)
(13.2244 -0.221229 0)
(13.4587 -0.211253 0)
(13.4156 -0.331623 0)
(13.5261 -0.54587 0)
(13.5021 -0.638822 0)
(13.1478 -0.644932 0)
(13.0991 -0.5877 0)
(12.9384 -0.32232 0)
(12.8124 -0.158094 0)
(13.002 -0.121193 0)
(13.1428 0.00595302 0)
(13.2934 -0.0769988 0)
(13.5199 -0.328783 0)
(13.8555 -0.413625 0)
(14.0188 -0.720242 0)
(14.0522 -1.18676 0)
(14.2408 -1.58123 0)
(14.1109 -2.18966 0)
(13.7446 -2.61708 0)
(13.7612 -3.00715 0)
(13.5253 -3.54848 0)
(13.2824 -3.74653 0)
(13.2242 -4.06031 0)
(12.9128 -4.34675 0)
(12.273 -4.11933 0)
(11.6764 -3.68114 0)
(11.2423 -3.01954 0)
(10.8353 -2.20733 0)
(10.7062 -1.24396 0)
(10.8608 -0.123975 0)
(10.6028 1.1088 0)
(11.124 2.42714 0)
(11.3066 3.60165 0)
(11.33 4.49091 0)
(10.907 4.01107 0)
(10.673 3.09055 0)
(10.4845 3.01989 0)
(10.4498 2.32175 0)
(10.7602 1.18973 0)
(10.4847 0.615442 0)
(10.4166 0.00354894 0)
(10.3376 -0.829748 0)
(9.83025 -1.38299 0)
(9.47488 -1.58632 0)
(9.61281 -1.86008 0)
(9.38855 -1.89024 0)
(8.67794 -1.53279 0)
(7.84182 -0.712494 0)
(7.24389 0.315085 0)
(6.51882 0.38219 0)
(5.73833 -1.50031 0)
(4.50237 -4.68834 0)
(3.25096 -7.65204 0)
(2.49764 -8.39801 0)
(2.25183 -6.2209 0)
(1.38797 -3.49992 0)
(2.52329 -1.04829 0)
(1.33112 0.57792 0)
(3.1894 0.17738 0)
(1.87274 1.81929 0)
(5.5034 4.51184 0)
(5.54909 7.73095 0)
(8.51414 9.04732 0)
(8.15516 9.60221 0)
(9.47168 8.26106 0)
(9.19505 6.91037 0)
(9.05662 4.95949 0)
(9.22951 3.8229 0)
(9.46295 2.37613 0)
(9.45275 1.83197 0)
(9.76907 1.02308 0)
(10.4203 0.117673 0)
(10.0942 -0.727911 0)
(10.8512 -1.18342 0)
(10.6554 -1.69098 0)
(11.8574 -1.80004 0)
(10.7542 -1.86774 0)
(11.6276 -1.34773 0)
(10.1998 -1.72719 0)
(11.9485 -2.19897 0)
(9.84437 -2.2004 0)
(11.2482 -2.1129 0)
(10.0317 -1.92047 0)
(10.1381 -0.772677 0)
(10.8958 -2.03134 0)
(9.30428 -0.114347 0)
(9.97914 -1.51966 0)
(9.15876 1.5016 0)
(9.64961 -1.89635 0)
(9.0065 2.41338 0)
(7.06582 -1.72085 0)
(8.1937 5.16525 0)
(4.91126 -3.43223 0)
(7.6082 6.0018 0)
(7.36127 -2.73902 0)
(8.51475 6.66031 0)
(6.62359 -0.935636 0)
(8.06332 6.09426 0)
(13.1897 -0.283824 0)
(13.0336 -0.259209 0)
(13.2036 -0.175058 0)
(13.4962 -0.238727 0)
(13.436 -0.337049 0)
(13.5321 -0.530565 0)
(13.4945 -0.608947 0)
(13.0506 -0.544662 0)
(12.9812 -0.505409 0)
(12.8721 -0.316158 0)
(12.6921 -0.153551 0)
(13.0472 -0.193048 0)
(13.1818 -0.114665 0)
(13.2396 -0.156404 0)
(13.6833 -0.435312 0)
(13.7734 -0.512962 0)
(13.7087 -0.739432 0)
(13.8699 -1.1935 0)
(14.0221 -1.57972 0)
(13.8822 -2.07959 0)
(13.6485 -2.51241 0)
(13.6459 -2.90185 0)
(13.3315 -3.42857 0)
(12.9518 -3.70902 0)
(12.6355 -3.91546 0)
(11.9066 -4.0563 0)
(10.8882 -3.79895 0)
(10.1597 -3.37272 0)
(9.68692 -2.78678 0)
(9.37873 -2.07016 0)
(9.28055 -1.18374 0)
(9.41892 -0.0749755 0)
(9.21525 1.0152 0)
(10.0445 2.18848 0)
(10.5601 3.49374 0)
(10.6755 4.49257 0)
(10.4838 4.08262 0)
(10.2508 3.24224 0)
(9.97372 3.05344 0)
(10.0347 2.2573 0)
(10.3509 1.21104 0)
(9.96428 0.667476 0)
(9.92816 0.0469612 0)
(9.98931 -0.729975 0)
(9.54124 -1.2505 0)
(9.32287 -1.54538 0)
(9.56229 -1.80793 0)
(9.28256 -1.70067 0)
(8.46804 -1.20062 0)
(7.59801 -0.369801 0)
(7.01328 0.61182 0)
(6.31536 0.683099 0)
(5.54625 -1.11093 0)
(4.23364 -4.1828 0)
(2.77406 -7.21509 0)
(1.83054 -8.05342 0)
(1.60158 -5.9567 0)
(1.2164 -3.49857 0)
(2.27551 -1.16189 0)
(1.19793 0.446987 0)
(3.21252 -0.00574632 0)
(1.31853 1.78387 0)
(4.61813 3.78908 0)
(4.89825 7.3317 0)
(7.88008 8.5414 0)
(7.76454 9.20266 0)
(9.22355 8.13708 0)
(9.51242 6.85204 0)
(9.45414 4.99411 0)
(9.58924 3.74423 0)
(9.93255 2.25068 0)
(9.947 1.70921 0)
(10.229 0.932882 0)
(10.8647 -0.0262862 0)
(10.8202 -0.85645 0)
(11.4669 -1.34721 0)
(11.4736 -1.87874 0)
(12.2887 -1.7565 0)
(11.2403 -1.73082 0)
(11.8386 -1.30172 0)
(10.5036 -1.68474 0)
(12.0318 -2.13258 0)
(9.77592 -2.02382 0)
(11.3302 -2.07335 0)
(9.5455 -1.73206 0)
(10.4557 -1.04578 0)
(10.1364 -1.72569 0)
(9.24023 0.0353608 0)
(9.63379 -1.61509 0)
(9.69624 1.77429 0)
(9.18605 -2.14231 0)
(9.56404 3.23889 0)
(6.79985 -1.99424 0)
(8.25419 6.02843 0)
(4.93709 -3.58718 0)
(7.81696 6.3857 0)
(5.57696 -3.35359 0)
(8.51019 6.1282 0)
(9.42426 0.0380951 0)
(6.58535 4.17272 0)
(13.1229 -0.230544 0)
(13.069 -0.245236 0)
(13.3241 -0.192512 0)
(13.5898 -0.288456 0)
(13.4703 -0.345558 0)
(13.477 -0.471946 0)
(13.3156 -0.541114 0)
(12.9522 -0.438572 0)
(13.0146 -0.429866 0)
(12.9396 -0.325433 0)
(12.8418 -0.198389 0)
(13.178 -0.245756 0)
(13.1568 -0.208157 0)
(13.2527 -0.271656 0)
(13.5419 -0.464654 0)
(13.5269 -0.532668 0)
(13.6349 -0.775542 0)
(13.7699 -1.18064 0)
(13.8417 -1.54227 0)
(13.7308 -1.99995 0)
(13.4986 -2.43078 0)
(13.3007 -2.7979 0)
(12.8583 -3.25813 0)
(12.3126 -3.54413 0)
(11.5715 -3.62795 0)
(10.3971 -3.59958 0)
(9.17823 -3.3686 0)
(8.50407 -3.05784 0)
(8.17199 -2.57963 0)
(7.94183 -1.94108 0)
(7.83535 -1.13046 0)
(7.9809 -0.108427 0)
(7.8954 0.860546 0)
(8.64947 2.04106 0)
(9.20253 3.4595 0)
(9.61417 4.408 0)
(9.71666 4.08044 0)
(9.4843 3.40771 0)
(9.30451 3.07306 0)
(9.56381 2.17441 0)
(9.76171 1.26656 0)
(9.33655 0.733428 0)
(9.46156 0.046987 0)
(9.64923 -0.696047 0)
(9.24541 -1.16619 0)
(9.13673 -1.52083 0)
(9.34954 -1.75565 0)
(8.99016 -1.48768 0)
(8.09048 -0.867067 0)
(7.27949 -0.0562537 0)
(6.74817 0.883245 0)
(6.13978 0.975671 0)
(5.38662 -0.69837 0)
(4.02406 -3.65102 0)
(2.44853 -6.71719 0)
(1.14998 -7.75634 0)
(0.975752 -5.91844 0)
(1.31284 -3.62156 0)
(1.69054 -1.27834 0)
(1.24064 0.348907 0)
(2.91671 -0.258452 0)
(1.55873 1.56788 0)
(3.93377 2.74466 0)
(4.4638 6.50316 0)
(7.1617 7.81625 0)
(7.46318 8.60748 0)
(8.80156 7.85895 0)
(9.53062 6.68121 0)
(9.75938 5.02539 0)
(9.95075 3.75991 0)
(10.277 2.23146 0)
(10.4253 1.63498 0)
(10.7603 0.825548 0)
(11.5325 -0.171739 0)
(11.4774 -0.974072 0)
(12.0499 -1.52368 0)
(11.9869 -1.99544 0)
(12.346 -1.7073 0)
(11.4065 -1.60708 0)
(11.8858 -1.20433 0)
(10.671 -1.59396 0)
(11.8721 -2.01986 0)
(9.67331 -1.91643 0)
(11.3014 -2.04718 0)
(9.10423 -1.49741 0)
(10.5302 -1.24464 0)
(9.16826 -1.30183 0)
(9.40387 -0.187456 0)
(9.49509 -1.52449 0)
(9.86504 1.77567 0)
(8.86756 -2.18369 0)
(10.3861 3.9141 0)
(6.36439 -2.28094 0)
(9.11554 6.62924 0)
(5.71483 -3.92333 0)
(8.44118 6.18895 0)
(6.56735 -2.70936 0)
(7.70705 5.22017 0)
(10.9392 0.813728 0)
(6.08025 2.98262 0)
(13.213 -0.237311 0)
(13.2261 -0.270547 0)
(13.3769 -0.174945 0)
(13.5199 -0.279636 0)
(13.3541 -0.32619 0)
(13.3145 -0.3657 0)
(13.2247 -0.49603 0)
(13.0252 -0.462681 0)
(13.0774 -0.403212 0)
(13.0243 -0.368348 0)
(12.9507 -0.259623 0)
(13.0872 -0.215539 0)
(13.1743 -0.287492 0)
(13.2798 -0.332347 0)
(13.3129 -0.418325 0)
(13.5282 -0.641739 0)
(13.6745 -0.849626 0)
(13.5649 -1.09906 0)
(13.5555 -1.49768 0)
(13.3812 -1.93525 0)
(13.0808 -2.30437 0)
(12.7358 -2.63834 0)
(12.1734 -3.02325 0)
(11.3381 -3.20865 0)
(10.0489 -3.12763 0)
(8.50534 -3.04136 0)
(7.37018 -2.99669 0)
(6.92478 -2.87787 0)
(6.74681 -2.49989 0)
(6.63011 -1.89483 0)
(6.54351 -1.10375 0)
(6.59496 -0.137403 0)
(6.50729 0.729511 0)
(7.25331 1.78262 0)
(7.96469 3.13202 0)
(8.51477 4.13015 0)
(8.72602 4.03159 0)
(8.6539 3.5033 0)
(8.7464 2.9828 0)
(9.04137 2.11046 0)
(9.10049 1.34908 0)
(8.81214 0.764025 0)
(9.14137 0.0029096 0)
(9.32384 -0.695583 0)
(8.88741 -1.10792 0)
(8.83893 -1.49475 0)
(8.98497 -1.66787 0)
(8.50101 -1.22899 0)
(7.52491 -0.516648 0)
(6.81596 0.235753 0)
(6.40824 1.11324 0)
(5.96399 1.23995 0)
(5.27969 -0.278235 0)
(3.90799 -3.07659 0)
(2.20835 -6.10309 0)
(0.486311 -7.49738 0)
(0.190763 -6.16891 0)
(1.0433 -3.79565 0)
(0.773678 -1.34788 0)
(1.39194 0.102662 0)
(2.46984 -0.507031 0)
(1.64972 1.66921 0)
(2.8661 2.30226 0)
(3.50995 6.24107 0)
(6.28225 7.22198 0)
(6.97854 8.05615 0)
(8.25307 7.54759 0)
(9.32689 6.36773 0)
(9.76106 4.9404 0)
(10.2618 3.72499 0)
(10.5789 2.18477 0)
(11.0047 1.50046 0)
(11.3815 0.629094 0)
(12.1519 -0.336442 0)
(11.8646 -1.05011 0)
(12.3885 -1.6343 0)
(12.1185 -1.95806 0)
(12.1331 -1.55471 0)
(11.2791 -1.44463 0)
(11.6922 -1.12509 0)
(10.7406 -1.55942 0)
(11.6298 -1.81562 0)
(9.64153 -1.75272 0)
(11.0449 -1.88449 0)
(8.67207 -1.34307 0)
(10.3432 -1.28635 0)
(8.15577 -0.928061 0)
(10.1047 -0.528592 0)
(8.76186 -1.52932 0)
(10.2186 1.92396 0)
(8.45037 -2.39138 0)
(10.7375 4.51061 0)
(6.19061 -2.36647 0)
(8.38505 7.39655 0)
(6.05281 -4.39296 0)
(8.58655 5.75241 0)
(9.07441 -1.82098 0)
(6.9957 3.8506 0)
(11.559 1.53108 0)
(6.34971 2.68175 0)
(13.2314 -0.245149 0)
(13.2085 -0.268914 0)
(13.3106 -0.104709 0)
(13.4128 -0.236895 0)
(13.296 -0.342404 0)
(13.297 -0.324252 0)
(13.3106 -0.499882 0)
(13.138 -0.458374 0)
(13.0623 -0.318741 0)
(13.0549 -0.371025 0)
(12.9365 -0.257448 0)
(13.0248 -0.199846 0)
(13.2024 -0.388627 0)
(13.1362 -0.372154 0)
(13.2806 -0.425125 0)
(13.4707 -0.718735 0)
(13.2215 -0.833086 0)
(13.2342 -1.00643 0)
(13.2389 -1.41399 0)
(12.8309 -1.82746 0)
(12.4428 -2.14765 0)
(11.8818 -2.40605 0)
(11.0268 -2.65658 0)
(9.78266 -2.68855 0)
(8.0662 -2.50639 0)
(6.56426 -2.51942 0)
(5.78093 -2.73717 0)
(5.51334 -2.7853 0)
(5.35401 -2.4676 0)
(5.24982 -1.88067 0)
(5.2105 -1.1047 0)
(5.23917 -0.180276 0)
(5.16973 0.617773 0)
(5.83442 1.60849 0)
(6.57343 2.91649 0)
(7.23298 3.90656 0)
(7.58133 3.94441 0)
(7.72772 3.50056 0)
(7.9963 2.8904 0)
(8.28039 2.10782 0)
(8.42142 1.37416 0)
(8.3658 0.704467 0)
(8.81669 -0.0459724 0)
(8.88913 -0.667499 0)
(8.39726 -1.05758 0)
(8.36151 -1.44702 0)
(8.4055 -1.50877 0)
(7.79586 -0.936727 0)
(6.78389 -0.206233 0)
(6.24355 0.45896 0)
(6.02238 1.26928 0)
(5.80563 1.43901 0)
(5.21933 0.119042 0)
(3.90976 -2.46704 0)
(2.05157 -5.36719 0)
(-0.107699 -7.03328 0)
(-0.785915 -6.29131 0)
(0.0196435 -3.93075 0)
(-0.493796 -1.47555 0)
(1.67598 -0.280677 0)
(1.32545 -0.585262 0)
(1.38738 1.77461 0)
(2.1639 1.63934 0)
(3.06049 5.53038 0)
(5.37601 6.33078 0)
(6.32033 7.38045 0)
(7.81103 7.04945 0)
(9.00266 5.94385 0)
(9.53254 4.74362 0)
(10.5357 3.54315 0)
(10.8533 2.04846 0)
(11.5064 1.29938 0)
(11.8609 0.430394 0)
(12.3286 -0.398185 0)
(11.9424 -1.09322 0)
(12.4653 -1.69181 0)
(11.8904 -1.81207 0)
(11.6859 -1.39085 0)
(11.0319 -1.31553 0)
(11.3351 -1.11731 0)
(10.6926 -1.46814 0)
(11.1826 -1.6228 0)
(9.58102 -1.62805 0)
(10.5197 -1.69415 0)
(8.25092 -1.08425 0)
(9.9609 -1.28679 0)
(7.59038 -0.816058 0)
(10.6007 -0.989838 0)
(7.62682 -1.13864 0)