/*--------------------------------*- C++ -*----------------------------------*\
| =========                 |                                                 |
| \\      /  F ield         | OpenFOAM: The Open Source CFD Toolbox           |
|  \\    /   O peration     | Version:  2.4.0                                 |
|   \\  /    A nd           | Web:      www.OpenFOAM.org                      |
|    \\/     M anipulation  |                                                 |
\*---------------------------------------------------------------------------*/
FoamFile
{
    version     2.0;
    format      ascii;
    class       surfaceScalarField;
    location    "0.058";
    object      phi_0;
}
// * * * * * * * * * * * * * * * * * * * * * * * * * * * * * * * * * * * * * //

dimensions      [0 3 -1 0 0 0 0];

internalField   nonuniform List<scalar> 
34880
(
5.48773e-06
7.01227e-06
3.12594e-06
2.36178e-06
2.47147e-06
6.54474e-07
2.21854e-06
2.5293e-07
2.07575e-06
1.42791e-07
1.96874e-06
1.07008e-07
1.88485e-06
8.38911e-08
1.82218e-06
6.2667e-08
1.77282e-06
4.93667e-08
1.73882e-06
3.39942e-08
1.70886e-06
2.99614e-08
1.68186e-06
2.69997e-08
1.66958e-06
1.22806e-08
1.64619e-06
2.33871e-08
1.64913e-06
-2.93426e-09
1.64899e-06
1.38425e-10
1.67068e-06
-2.1686e-08
1.75522e-06
-8.4548e-08
1.71897e-06
3.62558e-08
-9.19275e-07
2.63824e-06
1.0111e-05
9.40126e-06
7.83177e-06
4.64103e-06
6.70746e-06
1.77878e-06
6.06415e-06
8.96242e-07
5.6465e-06
5.6044e-07
5.34942e-06
4.04091e-07
5.12192e-06
3.11386e-07
4.94518e-06
2.39409e-07
4.80679e-06
1.87755e-07
4.70441e-06
1.36375e-07
4.61255e-06
1.21828e-07
4.5431e-06
9.64449e-08
4.48652e-06
6.88641e-08
4.43308e-06
7.68292e-08
4.40921e-06
2.09341e-08
4.39387e-06
1.5471e-08
4.42542e-06
-5.32325e-08
4.53218e-06
-1.91309e-07
4.63224e-06
-6.37988e-08
-1.35662e-06
5.06959e-06
1.2426e-05
9.47527e-06
1.10065e-05
6.06047e-06
9.97672e-06
2.8086e-06
9.20355e-06
1.66942e-06
8.61941e-06
1.14458e-06
8.18959e-06
8.3391e-07
7.85756e-06
6.43416e-07
7.59358e-06
5.03394e-07
7.38435e-06
3.96983e-07
7.22546e-06
2.95266e-07
7.08033e-06
2.66954e-07
6.97628e-06
2.00498e-07
6.87816e-06
1.6698e-07
6.80115e-06
1.53846e-07
6.74697e-06
7.5107e-08
6.71148e-06
5.09653e-08
6.74177e-06
-8.35267e-08
6.81109e-06
-2.60622e-07
7.01287e-06
-2.65579e-07
-1.67163e-06
7.32787e-06
1.34127e-05
8.56256e-06
1.28934e-05
6.57977e-06
1.2322e-05
3.38002e-06
1.17176e-05
2.27383e-06
1.11337e-05
1.72846e-06
1.06575e-05
1.31011e-06
1.0274e-05
1.02695e-06
9.9574e-06
8.19956e-07
9.70061e-06
6.53774e-07
9.50307e-06
4.92801e-07
9.31622e-06
4.53813e-07
9.18606e-06
3.30656e-07
9.05508e-06
2.97955e-07
8.95652e-06
2.52407e-07
8.87916e-06
1.52464e-07
8.81778e-06
1.1235e-07
8.84845e-06
-1.14193e-07
8.86264e-06
-2.74817e-07
9.08425e-06
-4.87189e-07
-2.00645e-06
9.41907e-06
1.35901e-05
7.47242e-06
1.36675e-05
6.50238e-06
1.36203e-05
3.42727e-06
1.34018e-05
2.49236e-06
1.30178e-05
2.11245e-06
1.26238e-05
1.70405e-06
1.22727e-05
1.37813e-06
1.19619e-05
1.13073e-06
1.16966e-05
9.1904e-07
1.14902e-05
6.99224e-07
1.12844e-05
6.59563e-07
1.11422e-05
4.72851e-07
1.09947e-05
4.45506e-07
1.08819e-05
3.65211e-07
1.07929e-05
2.41466e-07
1.07083e-05
1.96984e-07
1.07412e-05
-1.47181e-07
1.07147e-05
-2.4823e-07
1.08922e-05
-6.64761e-07
-2.237e-06
1.11228e-05
1.34788e-05
6.49359e-06
1.37642e-05
6.21703e-06
1.3999e-05
3.19244e-06
1.41436e-05
2.34778e-06
1.40803e-05
2.17575e-06
1.39003e-05
1.88407e-06
1.36911e-05
1.58727e-06
1.34726e-05
1.34925e-06
1.32616e-05
1.13e-06
1.30917e-05
8.69128e-07
1.29047e-05
8.46576e-07
1.27745e-05
6.0305e-07
1.26349e-05
5.85089e-07
1.25235e-05
4.7668e-07
1.24389e-05
3.26012e-07
1.23423e-05
2.93653e-07
1.23819e-05
-1.86836e-07
1.2336e-05
-2.02308e-07
1.24522e-05
-7.81003e-07
-2.27674e-06
1.2492e-05
1.33516e-05
5.64199e-06
1.37036e-05
5.865e-06
1.39453e-05
2.9508e-06
1.4219e-05
2.07409e-06
1.43829e-05
2.01178e-06
1.44148e-05
1.85223e-06
1.43936e-05
1.60846e-06
1.43371e-05
1.40569e-06
1.42521e-05
1.21506e-06
1.41788e-05
9.42456e-07
1.40656e-05
9.59757e-07
1.39861e-05
6.82503e-07
1.38904e-05
6.80809e-07
1.38057e-05
5.61384e-07
1.375e-05
3.81755e-07
1.36579e-05
3.85669e-07
1.37171e-05
-2.45995e-07
1.36715e-05
-1.56715e-07
1.37601e-05
-8.69584e-07
-2.97074e-06
1.44541e-05
1.32496e-05
4.89239e-06
1.36901e-05
5.42447e-06
1.38343e-05
2.80663e-06
1.40963e-05
1.81206e-06
1.43252e-05
1.78293e-06
1.44499e-05
1.72753e-06
1.45292e-05
1.52909e-06
1.45923e-05
1.34261e-06
1.46282e-05
1.17916e-06
1.46651e-05
9.05621e-07
1.46628e-05
9.61986e-07
1.46659e-05
6.79415e-07
1.46548e-05
6.91961e-07
1.46307e-05
5.8549e-07
1.4634e-05
3.78441e-07
1.45784e-05
4.41242e-07
1.46736e-05
-3.4118e-07
1.46426e-05
-1.25718e-07
1.47914e-05
-1.01838e-06
-3.59787e-06
1.54185e-05
1.31734e-05
4.21903e-06
1.36223e-05
4.97551e-06
1.37478e-05
2.68114e-06
1.39828e-05
1.57709e-06
1.42092e-05
1.55654e-06
1.43576e-05
1.57916e-06
1.44597e-05
1.42699e-06
1.45574e-05
1.24485e-06
1.46443e-05
1.09229e-06
1.47289e-05
8.21016e-07
1.47994e-05
8.91513e-07
1.48543e-05
6.24501e-07
1.49151e-05
6.31136e-07
1.49584e-05
5.42216e-07
1.502e-05
3.16809e-07
1.50372e-05
4.24024e-07
1.5175e-05
-4.78939e-07
1.5184e-05
-1.34748e-07
1.54274e-05
-1.26177e-06
-4.15149e-06
1.5981e-05
1.31138e-05
3.60524e-06
1.35576e-05
4.53167e-06
1.36805e-05
2.55831e-06
1.39004e-05
1.35713e-06
1.41137e-05
1.3433e-06
1.42626e-05
1.43022e-06
1.43707e-05
1.31887e-06
1.4473e-05
1.14253e-06
1.4575e-05
9.90364e-07
1.46673e-05
7.28688e-07
1.47607e-05
7.98138e-07
1.48224e-05
5.62775e-07
1.49032e-05
5.50357e-07
1.49743e-05
4.71052e-07
1.50399e-05
2.51254e-07
1.51407e-05
3.23171e-07
1.52607e-05
-5.98853e-07
1.53324e-05
-2.0648e-07
1.57107e-05
-1.64005e-06
-4.39373e-06
1.59529e-05
1.30522e-05
3.05301e-06
1.35043e-05
4.07961e-06
1.36335e-05
2.42906e-06
1.38378e-05
1.15283e-06
1.40353e-05
1.14583e-06
1.41875e-05
1.27808e-06
1.43e-05
1.20636e-06
1.44017e-05
1.04076e-06
1.45032e-05
8.88866e-07
1.45967e-05
6.35273e-07
1.46966e-05
6.98223e-07
1.47604e-05
4.98974e-07
1.48429e-05
4.678e-07
1.49124e-05
4.01602e-07
1.49628e-05
2.00782e-07
1.51198e-05
1.66226e-07
1.51473e-05
-6.26386e-07
1.53399e-05
-3.99017e-07
1.57547e-05
-2.05492e-06
-4.21514e-06
1.55761e-05
1.29883e-05
2.56467e-06
1.34523e-05
3.61564e-06
1.36018e-05
2.27957e-06
1.37882e-05
9.66444e-07
1.39698e-05
9.64202e-07
1.41245e-05
1.12344e-06
1.42418e-05
1.08904e-06
1.43479e-05
9.34679e-07
1.44425e-05
7.94229e-07
1.45323e-05
5.45449e-07
1.46336e-05
5.9694e-07
1.46995e-05
4.33062e-07
1.47883e-05
3.79049e-07
1.48433e-05
3.4659e-07
1.49144e-05
1.29699e-07
1.50626e-05
1.80051e-08
1.50331e-05
-5.96922e-07
1.5374e-05
-7.39858e-07
1.56191e-05
-2.30002e-06
-3.75045e-06
1.51544e-05
1.29317e-05
2.13296e-06
1.34001e-05
3.14729e-06
1.35971e-05
2.08251e-06
1.37456e-05
8.1797e-07
1.39116e-05
7.98237e-07
1.40697e-05
9.65338e-07
1.41919e-05
9.66781e-07
1.43009e-05
8.25686e-07
1.43903e-05
7.04834e-07
1.44809e-05
4.54883e-07
1.45773e-05
5.00521e-07
1.46447e-05
3.65663e-07
1.47299e-05
2.93868e-07
1.47823e-05
2.94168e-07
1.48886e-05
2.33566e-08
1.4971e-05
-6.43458e-08
1.50047e-05
-6.30595e-07
1.53802e-05
-1.11544e-06
1.53549e-05
-2.27472e-06
-3.41971e-06
1.50242e-05
1.28864e-05
1.74657e-06
1.33508e-05
2.68288e-06
1.36081e-05
1.82517e-06
1.3711e-05
7.15083e-07
1.38622e-05
6.47011e-07
1.4021e-05
8.06631e-07
1.41457e-05
8.42033e-07
1.42585e-05
7.12931e-07
1.43478e-05
6.15442e-07
1.44382e-05
3.64509e-07
1.45265e-05
4.12195e-07
1.45994e-05
2.92836e-07
1.46694e-05
2.23882e-07
1.47447e-05
2.18787e-07
1.4847e-05
-7.88851e-08
1.48853e-05
-1.02654e-07
1.50388e-05
-7.84126e-07
1.52799e-05
-1.35648e-06
1.51176e-05
-2.11246e-06
-3.47679e-06
1.51747e-05
1.28495e-05
1.3971e-06
1.33066e-05
2.2258e-06
1.35853e-05
1.54641e-06
1.36858e-05
6.14576e-07
1.38225e-05
5.10375e-07
1.39784e-05
6.50655e-07
1.41059e-05
7.14515e-07
1.42227e-05
5.96145e-07
1.43134e-05
5.24808e-07
1.44016e-05
2.76303e-07
1.44872e-05
3.26528e-07
1.45584e-05
2.21641e-07
1.46192e-05
1.63081e-07
1.47267e-05
1.11306e-07
1.47759e-05
-1.28049e-07
1.48559e-05
-1.82658e-07
1.50577e-05
-9.85901e-07
1.51016e-05
-1.4004e-06
1.50346e-05
-2.04552e-06
-3.85821e-06
1.54161e-05
1.28187e-05
1.07844e-06
1.3269e-05
1.7755e-06
1.35624e-05
1.25298e-06
1.36688e-05
5.0816e-07
1.37908e-05
3.88425e-07
1.39414e-05
4.9999e-07
1.40724e-05
5.83573e-07
1.41935e-05
4.75057e-07
1.42869e-05
4.31413e-07
1.43714e-05
1.91746e-07
1.44559e-05
2.42083e-07
1.45174e-05
1.60093e-07
1.45943e-05
8.61871e-08
1.46973e-05
8.31667e-09
1.47096e-05
-1.40356e-07
1.48817e-05
-3.54741e-07
1.49982e-05
-1.10246e-06
1.49538e-05
-1.35597e-06
1.50955e-05
-2.18718e-06
-4.268e-06
1.55053e-05
1.27937e-05
7.84712e-07
1.32395e-05
1.32975e-06
1.35426e-05
9.49849e-07
1.36574e-05
3.93345e-07
1.37657e-05
2.80148e-07
1.39123e-05
3.53435e-07
1.4046e-05
4.4979e-07
1.41698e-05
3.51333e-07
1.42656e-05
3.35602e-07
1.43491e-05
1.08267e-07
1.44276e-05
1.63564e-07
1.44862e-05
1.01481e-07
1.4585e-05
-1.26112e-08
1.46437e-05
-5.04387e-08
1.46945e-05
-1.91142e-07
1.48982e-05
-5.58449e-07
1.48823e-05
-1.08652e-06
1.49183e-05
-1.39196e-06
1.51747e-05
-2.44359e-06
-4.49758e-06
1.54042e-05
1.2775e-05
5.09747e-07
1.32174e-05
8.87284e-07
1.35267e-05
6.40533e-07
1.36515e-05
2.68634e-07
1.37476e-05
1.8404e-07
1.38905e-05
2.10536e-07
1.40253e-05
3.14923e-07
1.41519e-05
2.24763e-07
1.42517e-05
2.35809e-07
1.43318e-05
2.81233e-08
1.4401e-05
9.44185e-08
1.44759e-05
2.65757e-08
1.45644e-05
-1.01168e-07
1.45971e-05
-8.31267e-08
1.4726e-05
-3.20046e-07
1.48486e-05
-6.80964e-07
1.48035e-05
-1.04149e-06
1.49676e-05
-1.55607e-06
1.51744e-05
-2.65037e-06
-4.54434e-06
1.52212e-05
1.27623e-05
2.47436e-07
1.32029e-05
4.46662e-07
1.35161e-05
3.27375e-07
1.36489e-05
1.3583e-07
1.37353e-05
9.76179e-08
1.38767e-05
6.91353e-08
1.40109e-05
1.80722e-07
1.41402e-05
9.54443e-08
1.4244e-05
1.32063e-07
1.43158e-05
-4.36996e-08
1.4387e-05
2.32546e-08
1.44761e-05
-6.25288e-08
1.45252e-05
-1.50253e-07
1.45973e-05
-1.55298e-07
1.47417e-05
-4.64364e-07
1.47646e-05
-7.03949e-07
1.48129e-05
-1.08974e-06
1.50031e-05
-1.74627e-06
1.5098e-05
-2.74526e-06
-4.46163e-06
1.50153e-05
1.2756e-05
-8.60903e-09
1.31956e-05
7.0574e-09
1.35106e-05
1.2445e-08
1.36485e-05
-2.0995e-09
1.37297e-05
1.64477e-08
1.38699e-05
-7.10785e-08
1.4002e-05
4.86162e-08
1.41362e-05
-3.87287e-08
1.42404e-05
2.78414e-08
1.43033e-05
-1.06645e-07
1.43903e-05
-6.37327e-08
1.44654e-05
-1.37557e-07
1.44989e-05
-1.83776e-07
1.463e-05
-2.86379e-07
1.47043e-05
-5.3866e-07
1.4728e-05
-7.27668e-07
1.48617e-05
-1.22344e-06
1.49737e-05
-1.8583e-06
1.50043e-05
-2.7758e-06
-4.33572e-06
1.48784e-05
1.27561e-05
-2.64744e-07
1.31957e-05
-4.32464e-07
1.35106e-05
-3.02456e-07
1.36486e-05
-1.401e-07
1.37301e-05
-6.50914e-08
1.38693e-05
-2.1031e-07
1.40007e-05
-8.27592e-08
1.41391e-05
-1.77092e-07
1.42371e-05
-7.01696e-08
1.43033e-05
-1.72851e-07
1.43997e-05
-1.60156e-07
1.4445e-05
-1.82841e-07
1.45116e-05
-2.50371e-07
1.46433e-05
-4.18141e-07
1.46563e-05
-5.51628e-07
1.47571e-05
-8.28431e-07
1.48743e-05
-1.34068e-06
1.49192e-05
-1.9032e-06
1.49564e-05
-2.81302e-06
-4.23038e-06
1.48511e-05
1.27626e-05
-5.27336e-07
1.32028e-05
-8.72646e-07
1.35157e-05
-6.15418e-07
1.365e-05
-2.74334e-07
1.37364e-05
-1.51538e-07
1.38749e-05
-3.48744e-07
1.40077e-05
-2.156e-07
1.41457e-05
-3.1507e-07
1.42378e-05
-1.62305e-07
1.43183e-05
-2.53303e-07
1.43998e-05
-2.41739e-07
1.44415e-05
-2.24488e-07
1.45434e-05
-3.5226e-07
1.46215e-05
-4.96269e-07
1.46547e-05
-5.84774e-07
1.47959e-05
-9.69707e-07
1.48468e-05
-1.39153e-06
1.48942e-05
-1.95067e-06
1.49524e-05
-2.87118e-06
-4.12557e-06
1.48476e-05
1.27752e-05
-8.02527e-07
1.32172e-05
-1.31463e-06
1.35264e-05
-9.24596e-07
1.36541e-05
-4.0207e-07
1.37478e-05
-2.45257e-07
1.38879e-05
-4.88815e-07
1.40226e-05
-3.503e-07
1.41543e-05
-4.46822e-07
1.42492e-05
-2.57188e-07
1.43371e-05
-3.41157e-07
1.43965e-05
-3.01179e-07
1.44684e-05
-2.964e-07
1.45565e-05
-4.4033e-07
1.46052e-05
-5.44963e-07
1.4694e-05
-6.73618e-07
1.4801e-05
-1.07664e-06
1.48247e-05
-1.41521e-06
1.49013e-05
-2.02736e-06
1.49523e-05
-2.92216e-06
-4.07557e-06
1.49023e-05
1.27939e-05
-1.09638e-06
1.32387e-05
-1.75946e-06
1.3542e-05
-1.22791e-06
1.36619e-05
-5.21916e-07
1.37656e-05
-3.48987e-07
1.39093e-05
-6.32498e-07
1.40424e-05
-4.8346e-07
1.41685e-05
-5.72943e-07
1.42715e-05
-3.60105e-07
1.43507e-05
-4.20359e-07
1.44107e-05
-3.61182e-07
1.45041e-05
-3.89875e-07
1.45518e-05
-4.87955e-07
1.46284e-05
-6.21637e-07
1.47281e-05
-7.73247e-07
1.47889e-05
-1.13744e-06
1.4833e-05
-1.45935e-06
1.49205e-05
-2.11488e-06
1.49607e-05
-2.96236e-06
-4.09813e-06
1.49833e-05
1.28184e-05
-1.41481e-06
1.32674e-05
-2.20843e-06
1.35624e-05
-1.52289e-06
1.36738e-05
-6.33333e-07
1.37907e-05
-4.65924e-07
1.39379e-05
-7.79642e-07
1.40671e-05
-6.12718e-07
1.41933e-05
-6.99121e-07
1.42955e-05
-4.62327e-07
1.43671e-05
-4.91962e-07
1.44459e-05
-4.39915e-07
1.45262e-05
-4.70239e-07
1.45638e-05
-5.25551e-07
1.46745e-05
-7.32315e-07
1.47381e-05
-8.36845e-07
1.47947e-05
-1.19403e-06
1.48624e-05
-1.52708e-06
1.49411e-05
-2.19359e-06
1.49796e-05
-3.00087e-06
-4.13263e-06
1.50141e-05
1.2849e-05
-1.7638e-06
1.33036e-05
-2.66303e-06
1.35859e-05
-1.80519e-06
1.36908e-05
-7.38235e-07
1.3824e-05
-5.99158e-07
1.39723e-05
-9.27933e-07
1.40999e-05
-7.40259e-07
1.42262e-05
-8.25482e-07
1.43185e-05
-5.54611e-07
1.43993e-05
-5.72742e-07
1.44836e-05
-5.24181e-07
1.45456e-05
-5.32245e-07
1.4607e-05
-5.8702e-07
1.4711e-05
-8.36292e-07
1.47462e-05
-8.72049e-07
1.48274e-05
-1.27527e-06
1.48915e-05
-1.5911e-06
1.49593e-05
-2.26137e-06
1.50014e-05
-3.04306e-06
-4.15172e-06
1.50205e-05
1.28858e-05
-2.14965e-06
1.33474e-05
-3.12455e-06
1.3609e-05
-2.06678e-06
1.37148e-05
-8.44116e-07
1.38655e-05
-7.49799e-07
1.40127e-05
-1.07516e-06
1.41432e-05
-8.70703e-07
1.42615e-05
-9.43853e-07
1.43501e-05
-6.43187e-07
1.4443e-05
-6.65633e-07
1.45156e-05
-5.96767e-07
1.45856e-05
-6.02252e-07
1.46628e-05
-6.64258e-07
1.47362e-05
-9.09695e-07
1.47764e-05
-9.12186e-07
1.48686e-05
-1.36748e-06
1.49088e-05
-1.6313e-06
1.4986e-05
-2.33861e-06
1.50339e-05
-3.09096e-06
-4.16419e-06
1.50464e-05
1.2931e-05
-2.58064e-06
1.33975e-05
-3.5911e-06
1.36005e-05
-2.26978e-06
1.3748e-05
-9.91543e-07
1.39164e-05
-9.18272e-07
1.40616e-05
-1.22028e-06
1.41948e-05
-1.00396e-06
1.42998e-05
-1.04889e-06
1.4398e-05
-7.41388e-07
1.44873e-05
-7.54871e-07
1.45572e-05
-6.66702e-07
1.46464e-05
-6.91438e-07
1.47133e-05
-7.3111e-07
1.47723e-05
-9.68709e-07
1.48249e-05
-9.64778e-07
1.48977e-05
-1.44034e-06
1.49258e-05
-1.65934e-06
1.50287e-05
-2.44149e-06
1.50743e-05
-3.13662e-06
-4.19502e-06
1.51052e-05
1.29868e-05
-3.06749e-06
1.34511e-05
-4.05536e-06
1.36029e-05
-2.42157e-06
1.37906e-05
-1.17926e-06
1.39765e-05
-1.10421e-06
1.4119e-05
-1.36268e-06
1.42503e-05
-1.13534e-06
1.43463e-05
-1.14482e-06
1.4456e-05
-8.51088e-07
1.45347e-05
-8.33554e-07
1.46192e-05
-7.51277e-07
1.47066e-05
-7.78839e-07
1.47625e-05
-7.86936e-07
1.48235e-05
-1.02973e-06
1.4869e-05
-1.01032e-06
1.49204e-05
-1.49176e-06
1.49592e-05
-1.69813e-06
1.50708e-05
-2.55309e-06
1.5112e-05
-3.17782e-06
-4.28583e-06
1.52028e-05
1.30501e-05
-3.61762e-06
1.35044e-05
-4.50962e-06
1.36361e-05
-2.55333e-06
1.38425e-05
-1.3856e-06
1.40452e-05
-1.30688e-06
1.41844e-05
-1.50192e-06
1.43122e-05
-1.26311e-06
1.44023e-05
-1.23496e-06
1.45171e-05
-9.6591e-07
1.45956e-05
-9.12025e-07
1.46903e-05
-8.45948e-07
1.47567e-05
-8.45302e-07
1.4819e-05
-8.49196e-07
1.48694e-05
-1.08014e-06
1.49105e-05
-1.05136e-06
1.49576e-05
-1.53891e-06
1.50058e-05
-1.74629e-06
1.50923e-05
-2.63966e-06
1.51186e-05
-3.20404e-06
-4.39288e-06
1.52256e-05
1.31115e-05
-4.22913e-06
1.356e-05
-4.95811e-06
1.36861e-05
-2.67941e-06
1.39061e-05
-1.60561e-06
1.41228e-05
-1.52356e-06
1.42603e-05
-1.63945e-06
1.43854e-05
-1.38817e-06
1.44691e-05
-1.31872e-06
1.45849e-05
-1.08165e-06
1.4665e-05
-9.92162e-07
1.47538e-05
-9.34742e-07
1.48061e-05
-8.97569e-07
1.48721e-05
-9.15274e-07
1.49063e-05
-1.11433e-06
1.49568e-05
-1.1018e-06
1.49856e-05
-1.56775e-06
1.5011e-05
-1.77172e-06
1.50244e-05
-2.65298e-06
1.49782e-05
-3.15787e-06
-4.40674e-06
1.4992e-05
1.31725e-05
-4.90159e-06
1.36259e-05
-5.41156e-06
1.37535e-05
-2.80705e-06
1.39865e-05
-1.83858e-06
1.42155e-05
-1.75255e-06
1.43509e-05
-1.77483e-06
1.44697e-05
-1.50695e-06
1.45488e-05
-1.39788e-06
1.46526e-05
-1.18538e-06
1.47205e-05
-1.06005e-06
1.47873e-05
-1.0016e-06
1.48238e-05
-9.34084e-07
1.48672e-05
-9.5862e-07
1.48711e-05
-1.11823e-06
1.48882e-05
-1.11888e-06
1.48487e-05
-1.52827e-06
1.47965e-05
-1.71955e-06
1.46772e-05
-2.53372e-06
1.44955e-05
-2.9761e-06
-4.23369e-06
1.43224e-05
1.32494e-05
-5.65101e-06
1.36942e-05
-5.85637e-06
1.38371e-05
-2.94993e-06
1.40933e-05
-2.09475e-06
1.43276e-05
-1.98691e-06
1.44424e-05
-1.88956e-06
1.45351e-05
-1.59973e-06
1.45837e-05
-1.44639e-06
1.46324e-05
-1.23408e-06
1.46468e-05
-1.07447e-06
1.46445e-05
-9.993e-07
1.46207e-05
-9.10315e-07
1.45872e-05
-9.25071e-07
1.45143e-05
-1.04538e-06
1.4444e-05
-1.04858e-06
1.43077e-05
-1.39194e-06
1.4154e-05
-1.56589e-06
1.38997e-05
-2.2794e-06
1.35905e-05
-2.66691e-06
-3.86757e-06
1.32244e-05
1.33508e-05
-6.50183e-06
1.37039e-05
-6.20944e-06
1.39446e-05
-3.19062e-06
1.42142e-05
-2.3644e-06
1.43856e-05
-2.15831e-06
1.4409e-05
-1.91297e-06
1.43958e-05
-1.58651e-06
1.43291e-05
-1.3797e-06
1.42492e-05
-1.15416e-06
1.41515e-05
-9.76761e-07
1.40391e-05
-8.86899e-07
1.39254e-05
-7.96576e-07
1.38019e-05
-8.01592e-07
1.36533e-05
-8.96832e-07
1.35069e-05
-9.02138e-07
1.33007e-05
-1.18571e-06
1.3074e-05
-1.33919e-06
1.27333e-05
-1.93869e-06
1.23363e-05
-2.26993e-06
-3.38996e-06
1.18587e-05
1.34771e-05
-7.47895e-06
1.37638e-05
-6.49614e-06
1.3998e-05
-3.42482e-06
1.41402e-05
-2.50657e-06
1.40824e-05
-2.10055e-06
1.38957e-05
-1.72628e-06
1.36893e-05
-1.38002e-06
1.34636e-05
-1.15404e-06
1.3252e-05
-9.42592e-07
1.30583e-05
-7.83013e-07
1.28701e-05
-6.98761e-07
1.27009e-05
-6.27379e-07
1.25289e-05
-6.29565e-07
1.23417e-05
-7.09573e-07
1.21564e-05
-7.1686e-07
1.19145e-05
-9.43878e-07
1.16494e-05
-1.074e-06
1.12618e-05
-1.55112e-06
1.08108e-05
-1.81891e-06
-2.53589e-06
9.95669e-06
1.3588e-05
-8.56695e-06
1.36673e-05
-6.57542e-06
1.36202e-05
-3.37772e-06
1.33993e-05
-2.28574e-06
1.30184e-05
-1.71955e-06
1.26192e-05
-1.32716e-06
1.22681e-05
-1.02887e-06
1.19519e-05
-8.37834e-07
1.16822e-05
-6.72902e-07
1.14536e-05
-5.54398e-07
1.12437e-05
-4.88935e-07
1.10605e-05
-4.44175e-07
1.08764e-05
-4.45473e-07
1.06804e-05
-5.13518e-07
1.04835e-05
-5.19948e-07
1.02319e-05
-6.92347e-07
9.9528e-06
-7.94858e-07
9.54989e-06
-1.14821e-06
9.08871e-06
-1.35772e-06
-1.82928e-06
8.3821e-06
1.34107e-05
-9.47769e-06
1.28934e-05
-6.05813e-06
1.23223e-05
-2.80656e-06
1.17152e-05
-1.6787e-06
1.11334e-05
-1.13768e-06
1.06527e-05
-8.46439e-07
1.0268e-05
-6.44217e-07
9.94663e-06
-5.16456e-07
9.68343e-06
-4.09702e-07
9.4659e-06
-3.36868e-07
9.27152e-06
-2.94552e-07
9.1017e-06
-2.74349e-07
8.93045e-06
-2.74226e-07
8.74633e-06
-3.29396e-07
8.55812e-06
-3.31743e-07
8.31793e-06
-4.5216e-07
8.04514e-06
-5.22063e-07
7.65753e-06
-7.60596e-07
7.20418e-06
-9.04375e-07
-1.23052e-06
6.60541e-06
1.24245e-05
-9.40221e-06
1.10068e-05
-4.64037e-06
9.97732e-06
-1.77711e-06
9.20106e-06
-9.0245e-07
8.61884e-06
-5.55458e-07
8.18456e-06
-4.12158e-07
7.85136e-06
-3.11016e-07
7.58266e-06
-2.4776e-07
7.3669e-06
-1.93937e-07
7.19025e-06
-1.60224e-07
7.03494e-06
-1.39242e-07
6.89594e-06
-1.35341e-07
6.75528e-06
-1.33575e-07
6.59811e-06
-1.7222e-07
6.43597e-06
-1.69605e-07
6.22501e-06
-2.41195e-07
5.98056e-06
-2.77621e-07
5.63379e-06
-4.13825e-07
5.21832e-06
-4.88904e-07
-7.09952e-07
4.69776e-06
1.01103e-05
-7.01247e-06
7.83176e-06
-2.36187e-06
6.70819e-06
-6.53537e-07
6.06149e-06
-2.55755e-07
5.64627e-06
-1.40239e-07
5.34457e-06
-1.10456e-07
5.11693e-06
-8.33693e-08
4.93526e-06
-6.60976e-08
4.79223e-06
-5.09045e-08
4.67474e-06
-4.273e-08
4.57258e-06
-3.7081e-08
4.47629e-06
-3.90571e-08
4.37991e-06
-3.71893e-08
4.26271e-06
-5.50237e-08
4.14447e-06
-5.13617e-08
3.982e-06
-7.87264e-08
3.79378e-06
-8.94062e-08
3.51918e-06
-1.3922e-07
3.19153e-06
-1.61257e-07
-2.82577e-07
2.76416e-06
5.48753e-06
3.12566e-06
2.47212e-06
2.21637e-06
2.07613e-06
1.96567e-06
1.8823e-06
1.8162e-06
1.7653e-06
1.72257e-06
1.68549e-06
1.64643e-06
1.60924e-06
1.55422e-06
1.50286e-06
1.42413e-06
1.33473e-06
1.1955e-06
1.03425e-06
7.51671e-07
3.27911e-06
-1.79101e-07
-4.61767e-07
3.8102e-06
5.85635e-08
-5.89656e-07
4.59368e-06
2.84208e-07
-1.06768e-06
5.40655e-06
1.14131e-07
-9.27006e-07
6.08488e-06
-5.93797e-07
-8.45336e-08
6.94679e-06
-1.26655e-06
4.04649e-07
7.68538e-06
-1.87432e-06
1.13573e-06
8.32926e-06
-3.54081e-06
2.89693e-06
9.10379e-06
-4.91695e-06
4.14242e-06
9.95789e-06
-6.88823e-06
6.03413e-06
1.06609e-05
-9.14255e-06
8.43959e-06
1.08848e-05
-1.16946e-05
1.14707e-05
1.07407e-05
-1.43076e-05
1.44517e-05
1.00751e-05
-1.52309e-05
1.58965e-05
9.23659e-06
-1.54445e-05
1.6283e-05
8.38968e-06
-1.39155e-05
1.47624e-05
7.36285e-06
-1.14966e-05
1.25235e-05
6.82855e-06
-9.05398e-06
9.58828e-06
6.0985e-06
-5.81047e-06
6.54051e-06
4.76104e-06
-3.10225e-06
4.43971e-06
4.49131e-06
-1.88868e-06
2.15841e-06
5.3006e-06
4.20265e-07
-1.22955e-06
5.65342e-06
8.77136e-06
-9.12418e-06
5.55757e-06
1.69108e-05
-1.68149e-05
5.7225e-06
1.60953e-05
-1.62602e-05
5.8763e-06
1.22416e-05
-1.23954e-05
6.28406e-06
1.13124e-05
-1.17201e-05
6.92956e-06
9.95348e-06
-1.0599e-05
7.38984e-06
1.04604e-05
-1.09207e-05
7.98766e-06
1.08332e-05
-1.1431e-05
8.87202e-06
1.13194e-05
-1.22038e-05
9.71374e-06
1.26363e-05
-1.3478e-05
1.08225e-05
1.10796e-05
-1.21883e-05
1.19188e-05
1.02203e-05
-1.13167e-05
1.26803e-05
7.99561e-06
-8.75711e-06
1.33044e-05
3.81941e-06
-4.44355e-06
1.38094e-05
9.1161e-07
-1.41653e-06
1.41049e-05
-3.44693e-06
3.1514e-06
1.40746e-05
-6.76123e-06
6.79153e-06
1.38734e-05
-8.46749e-06
8.66864e-06
1.35856e-05
-1.12618e-05
1.15497e-05
1.36163e-05
-1.26586e-05
1.26279e-05
1.43449e-05
-1.51926e-05
1.44641e-05
1.49836e-05
-1.95144e-05
1.88757e-05
1.51347e-05
-2.14526e-05
2.13015e-05
1.51094e-05
-2.24811e-05
2.25064e-05
1.46946e-05
-2.3485e-05
2.38998e-05
1.4012e-05
-2.258e-05
2.32627e-05
1.36571e-05
-2.17251e-05
2.208e-05
1.34109e-05
-2.23179e-05
2.25641e-05
1.29042e-05
-2.19516e-05
2.24583e-05
1.25624e-05
-2.07563e-05
2.10981e-05
1.26561e-05
-2.10745e-05
2.09809e-05
1.28448e-05
-2.23857e-05
2.21969e-05
1.28709e-05
-2.26839e-05
2.26577e-05
1.26961e-05
-2.21608e-05
2.23356e-05
1.27027e-05
-2.16069e-05
2.16003e-05
1.32152e-05
-2.12824e-05
2.07699e-05
1.38955e-05
-2.20778e-05
2.13975e-05
1.44562e-05
-2.21889e-05
2.16281e-05
1.4847e-05
-1.98564e-05
1.94656e-05
1.50568e-05
-1.73584e-05
1.71486e-05
1.52052e-05
-1.49019e-05
1.47536e-05
1.52192e-05
-1.08479e-05
1.08339e-05
1.49961e-05
-6.65063e-06
6.87369e-06
1.47034e-05
-3.06755e-06
3.36026e-06
1.44102e-05
1.19161e-06
-8.98362e-07
1.38927e-05
5.54012e-06
-5.02263e-06
1.31512e-05
8.63681e-06
-7.89538e-06
1.24019e-05
1.07492e-05
-9.99984e-06
1.17148e-05
1.27751e-05
-1.2088e-05
1.10104e-05
1.44543e-05
-1.37499e-05
1.02689e-05
1.49576e-05
-1.4216e-05
9.55168e-06
1.42747e-05
-1.35575e-05
8.92268e-06
1.31023e-05
-1.24733e-05
8.41294e-06
1.19202e-05
-1.14105e-05
8.02231e-06
1.07766e-05
-1.0386e-05
7.72717e-06
9.66996e-06
-9.37482e-06
7.49615e-06
8.67688e-06
-8.44586e-06
7.30333e-06
7.86792e-06
-7.6751e-06
7.14273e-06
7.17995e-06
-7.01935e-06
7.01149e-06
6.5743e-06
-6.44305e-06
6.91477e-06
5.97965e-06
-5.88293e-06
6.83795e-06
5.5015e-06
-5.42467e-06
6.79046e-06
5.0566e-06
-5.00911e-06
6.75035e-06
4.79005e-06
-4.74994e-06
6.74915e-06
4.42992e-06
-4.42873e-06
6.74243e-06
4.22398e-06
-4.21726e-06
6.77647e-06
3.74197e-06
-3.77601e-06
6.7652e-06
3.50057e-06
-3.4893e-06
6.78706e-06
2.89509e-06
-2.91695e-06
6.72879e-06
2.73189e-06
-2.67362e-06
6.72757e-06
2.14834e-06
-2.14712e-06
6.64001e-06
2.18049e-06
-2.09293e-06
6.65172e-06
1.69119e-06
-1.7029e-06
6.56851e-06
1.89525e-06
-1.81204e-06
6.61108e-06
1.4484e-06
-1.49097e-06
6.53577e-06
1.71299e-06
-1.63768e-06
6.59987e-06
1.24988e-06
-1.31398e-06
6.53081e-06
1.46409e-06
-1.39503e-06
6.59869e-06
1.04988e-06
-1.11776e-06
6.55058e-06
1.10517e-06
-1.05706e-06
6.60063e-06
9.01769e-07
-9.51813e-07
6.58189e-06
7.36585e-07
-7.17853e-07
6.61072e-06
7.83038e-07
-8.11866e-07
6.59528e-06
5.19733e-07
-5.04288e-07
6.63217e-06
6.05012e-07
-6.41907e-07
6.5822e-06
4.87531e-07
-4.3756e-07
6.65088e-06
3.98203e-07
-4.66884e-07
6.56929e-06
4.81435e-07
-3.99848e-07
6.64834e-06
2.93537e-07
-3.72587e-07
6.58078e-06
3.69538e-07
-3.01972e-07
6.62382e-06
3.19303e-07
-3.62341e-07
6.60582e-06
2.2101e-07
-2.03019e-07
6.59876e-06
3.41129e-07
-3.34063e-07
6.61492e-06
1.8131e-07
-1.97472e-07
6.59275e-06
2.58652e-07
-2.36476e-07
6.60186e-06
2.32096e-07
-2.4121e-07
6.5991e-06
1.59727e-07
-1.56962e-07
6.59052e-06
2.28801e-07
-2.20223e-07
6.59988e-06
1.48252e-07
-1.57616e-07
6.5952e-06
1.60951e-07
-1.56269e-07
6.59152e-06
1.71419e-07
-1.67743e-07
6.60154e-06
1.35143e-07
-1.45157e-07
6.58591e-06
1.49308e-07
-1.33678e-07
6.59783e-06
1.53265e-07
-1.65185e-07
6.58828e-06
1.23403e-07
-1.13852e-07
6.59236e-06
1.43082e-07
-1.47169e-07
6.59005e-06
1.35465e-07
-1.33146e-07
6.5922e-06
1.2372e-07
-1.25872e-07
6.58679e-06
1.42554e-07
-1.37151e-07
6.59207e-06
1.35345e-07
-1.4062e-07
6.58413e-06
1.33608e-07
-1.25674e-07
6.59203e-06
1.41052e-07
-1.48948e-07
6.58205e-06
1.48757e-07
-1.38773e-07
6.594e-06
1.31858e-07
-1.43811e-07
6.58182e-06
1.67393e-07
-1.55214e-07
6.59215e-06
1.51102e-07
-1.6143e-07
6.58307e-06
1.6844e-07
-1.59364e-07
6.59404e-06
1.74671e-07
-1.8564e-07
6.57986e-06
1.91238e-07
-1.7705e-07
6.59706e-06
1.89908e-07
-2.07117e-07
6.58149e-06
2.13883e-07
-1.98309e-07
6.59533e-06
2.26338e-07
-2.4018e-07
6.58204e-06
2.39698e-07
-2.26409e-07
6.60136e-06
2.45816e-07
-2.65134e-07
6.57896e-06
2.93341e-07
-2.70944e-07
6.60516e-06
2.82386e-07
-3.08586e-07
6.58146e-06
3.17595e-07
-2.93892e-07
6.60735e-06
3.51772e-07
-3.77659e-07
6.5859e-06
3.67175e-07
-3.45725e-07
6.61083e-06
3.77959e-07
-4.02895e-07
6.58491e-06
4.68301e-07
-4.4238e-07
6.62821e-06
4.23808e-07
-4.67103e-07
6.57787e-06
5.12921e-07
-4.62578e-07
6.63322e-06
5.71397e-07
-6.26751e-07
6.60542e-06
5.22336e-07
-4.94532e-07
6.6241e-06
6.64015e-07
-6.82697e-07
6.61152e-06
7.36396e-07
-7.23814e-07
6.66146e-06
5.88805e-07
-6.38749e-07
6.5905e-06
9.52816e-07
-8.81853e-07
6.67919e-06
7.95275e-07
-8.83965e-07
6.62442e-06
8.84559e-07
-8.29787e-07
6.68111e-06
1.0728e-06
-1.12949e-06
6.64014e-06
1.05902e-06
-1.01805e-06
6.71069e-06
1.15709e-06
-1.22763e-06
6.67136e-06
1.27389e-06
-1.23456e-06
6.7252e-06
1.33269e-06
-1.38652e-06
6.69662e-06
1.52347e-06
-1.4949e-06
6.75832e-06
1.53695e-06
-1.59864e-06
6.75029e-06
1.71071e-06
-1.70269e-06
6.77274e-06
1.82312e-06
-1.84556e-06
6.81371e-06
2.01975e-06
-2.06072e-06
6.81051e-06
2.12723e-06
-2.12404e-06
6.89898e-06
2.23651e-06
-2.32498e-06
6.82894e-06
2.53506e-06
-2.46503e-06
6.96313e-06
2.6658e-06
-2.79999e-06
6.89913e-06
2.92474e-06
-2.86074e-06
7.05274e-06
3.02325e-06
-3.17686e-06
6.95562e-06
3.40651e-06
-3.30939e-06
7.07341e-06
3.57629e-06
-3.69408e-06
7.05182e-06
3.97223e-06
-3.95064e-06
7.07559e-06
4.1838e-06
-4.20757e-06
7.18993e-06
4.50594e-06
-4.62029e-06
7.10692e-06
4.92891e-06
-4.8459e-06
7.29295e-06
5.19201e-06
-5.37804e-06
7.17608e-06
5.80914e-06
-5.69228e-06
7.26989e-06
6.12086e-06
-6.21467e-06
7.27616e-06
6.71933e-06
-6.72559e-06
7.11811e-06
7.3361e-06
-7.17805e-06
7.17881e-06
7.86638e-06
-7.92709e-06
6.97712e-06
8.74727e-06
-8.54557e-06
6.88782e-06
9.55926e-06
-9.46996e-06
6.93863e-06
1.04261e-05
-1.04769e-05
6.67603e-06
1.20844e-05
-1.18218e-05
6.6404e-06
1.33039e-05
-1.32683e-05
6.82035e-06
1.54909e-05
-1.56708e-05
5.79563e-06
1.92068e-05
-1.81821e-05
5.80091e-06
2.12185e-05
-2.12238e-05
3.25748e-05
-3.2247e-05
5.47315e-06
5.50144e-06
-6.10955e-07
5.95002e-06
-3.90019e-07
6.58452e-06
-3.50288e-07
7.2925e-06
-5.93851e-07
7.89478e-06
-1.19608e-06
8.64476e-06
-2.01653e-06
9.40746e-06
-2.63702e-06
1.00531e-05
-4.18647e-06
1.07197e-05
-5.5835e-06
1.14475e-05
-7.61609e-06
1.1903e-05
-9.59802e-06
1.18763e-05
-1.1668e-05
1.15784e-05
-1.40097e-05
1.07994e-05
-1.44519e-05
9.82051e-06
-1.44656e-05
8.95246e-06
-1.30474e-05
7.85772e-06
-1.04019e-05
7.25952e-06
-8.45578e-06
6.81594e-06
-5.36689e-06
5.63359e-06
-1.9199e-06
5.30154e-06
-1.55663e-06
5.87744e-06
-1.5564e-07
6.09084e-06
8.55797e-06
5.88902e-06
1.71126e-05
6.02353e-06
1.59607e-05
6.14035e-06
1.21248e-05
6.55063e-06
1.09021e-05
7.30709e-06
9.19702e-06
7.80497e-06
9.9625e-06
8.36658e-06
1.02716e-05
9.17895e-06
1.0507e-05
1.00272e-05
1.1788e-05
1.11563e-05
9.95056e-06
1.22283e-05
9.14829e-06
1.30897e-05
7.13425e-06
1.37905e-05
3.1186e-06
1.42358e-05
4.6622e-07
1.44338e-05
-3.6449e-06
1.43499e-05
-6.6773e-06
1.41134e-05
-8.23097e-06
1.39285e-05
-1.10769e-05
1.42097e-05
-1.29399e-05
1.50557e-05
-1.60386e-05
1.55678e-05
-2.00264e-05
1.54966e-05
-2.13814e-05
1.52876e-05
-2.22721e-05
1.47689e-05
-2.29664e-05
1.40567e-05
-2.18677e-05
1.37353e-05
-2.14038e-05
1.34565e-05
-2.20391e-05
1.28915e-05
-2.13866e-05
1.25949e-05
-2.04597e-05
1.27404e-05
-2.12201e-05
1.28483e-05
-2.24936e-05
1.27225e-05
-2.2558e-05
1.2504e-05
-2.19423e-05
1.2572e-05
-2.16749e-05
1.31363e-05
-2.18467e-05
1.37877e-05
-2.27292e-05
1.42405e-05
-2.26417e-05
1.45464e-05
-2.01622e-05
1.47125e-05
-1.75244e-05
1.47862e-05
-1.49757e-05
1.47474e-05
-1.08091e-05
1.44929e-05
-6.39611e-06
1.41956e-05
-2.77022e-06
1.39016e-05
1.48557e-06
1.34386e-05
6.0031e-06
1.27594e-05
9.31606e-06
1.20324e-05
1.14761e-05
1.13496e-05
1.34579e-05
1.06686e-05
1.51352e-05
9.96655e-06
1.56596e-05
9.28619e-06
1.49551e-05
8.687e-06
1.37015e-05
8.20375e-06
1.24035e-05
7.83659e-06
1.11438e-05
7.55989e-06
9.94666e-06
7.34408e-06
8.89269e-06
7.16659e-06
8.04541e-06
7.02138e-06
7.32516e-06
6.90031e-06
6.69537e-06
6.80697e-06
6.07298e-06
6.72843e-06
5.58004e-06
6.68526e-06
5.09977e-06
6.65673e-06
4.81858e-06
6.68285e-06
4.4038e-06
6.70167e-06
4.20516e-06
6.76814e-06
3.6755e-06
6.76588e-06
3.50284e-06
6.80121e-06
2.85976e-06
6.72058e-06
2.81252e-06
6.71662e-06
2.1523e-06
6.58521e-06
2.31189e-06
6.59798e-06
1.67843e-06
6.46559e-06
2.02763e-06
6.531e-06
1.38299e-06
6.4082e-06
1.83579e-06
6.52119e-06
1.1369e-06
6.40686e-06
1.57841e-06
6.53884e-06
9.17899e-07
6.45146e-06
1.19255e-06
6.56071e-06
7.92525e-07
6.51727e-06
7.80019e-07