/*--------------------------------*- C++ -*----------------------------------*\
| =========                 |                                                 |
| \\      /  F ield         | OpenFOAM: The Open Source CFD Toolbox           |
|  \\    /   O peration     | Version:  2.4.0                                 |
|   \\  /    A nd           | Web:      www.OpenFOAM.org                      |
|    \\/     M anipulation  |                                                 |
\*---------------------------------------------------------------------------*/
FoamFile
{
    version     2.0;
    format      ascii;
    class       volSymmTensorField;
    location    "0.058";
    object      UPrime2Mean;
}
// * * * * * * * * * * * * * * * * * * * * * * * * * * * * * * * * * * * * * //

dimensions      [0 2 -2 0 0 0 0];

internalField   nonuniform List<symmTensor> 
17600
(
(0.0666097 -0.00721654 0 0.00109351 0 0)
(0.685701 -0.00284214 0 6.39775e-05 0 0)
(0.888511 -6.74357e-05 0 4.38322e-06 0 0)
(0.983872 -0.000729483 0 2.77095e-06 0 0)
(1.05067 -0.000549248 0 1.33024e-06 0 0)
(1.0979 -0.000217982 0 7.63269e-07 0 0)
(1.1295 -5.38494e-05 0 5.01107e-07 0 0)
(1.15378 1.26124e-05 0 2.98585e-07 0 0)
(1.1688 2.37293e-05 0 2.93962e-07 0 0)
(1.18329 6.79877e-07 0 2.48484e-07 0 0)
(1.19183 -2.25521e-05 0 1.61372e-07 0 0)
(1.20603 -8.29449e-05 0 2.75692e-07 0 0)
(1.21474 -9.40278e-05 0 2.59001e-07 0 0)
(1.23419 -0.000214588 0 5.07202e-07 0 0)
(1.24787 -0.000256167 0 6.09958e-07 0 0)
(1.28636 -0.000701558 0 3.49198e-06 0 0)
(1.3229 -0.00113746 0 3.58401e-06 0 0)
(1.48058 0.000820984 0 3.5904e-05 0 0)
(1.72468 -0.0496172 0 0.00209068 0 0)
(3.14405 0.250446 0 0.0313769 0 0)
(0.0325805 0.0145045 0 0.0113479 0 0)
(0.276842 -0.0264855 0 0.00267994 0 0)
(0.556238 -0.0148071 0 0.000401016 0 0)
(0.742045 -0.0103687 0 0.0001592 0 0)
(0.902431 -0.00837978 0 0.000123287 0 0)
(1.05207 -0.00670234 0 0.000109631 0 0)
(1.17154 -0.00509528 0 8.42999e-05 0 0)
(1.27331 -0.0036838 0 5.08416e-05 0 0)
(1.34016 -0.00274334 0 2.68528e-05 0 0)
(1.40669 -0.00224531 0 1.50993e-05 0 0)
(1.44295 -0.00213247 0 7.94203e-06 0 0)
(1.50516 -0.00225292 0 7.21794e-06 0 0)
(1.53309 -0.00258804 0 1.21573e-05 0 0)
(1.61186 -0.00268183 0 1.09287e-05 0 0)
(1.63815 -0.0043141 0 2.35364e-05 0 0)
(1.77986 -0.00389303 0 2.15951e-05 0 0)
(1.78068 -0.0122304 0 0.000127044 0 0)
(2.37172 -0.0172991 0 0.000183583 0 0)
(2.0725 -0.0564869 0 0.00221063 0 0)
(6.48873 -0.765269 0 0.12743 0 0)
(0.113827 0.0431286 0 0.0178329 0 0)
(0.0453652 -0.0167256 0 0.00760458 0 0)
(0.192412 -0.0185559 0 0.00194894 0 0)
(0.32879 -0.0174985 0 0.000950422 0 0)
(0.480617 -0.0171277 0 0.00071683 0 0)
(0.656602 -0.0158949 0 0.000627959 0 0)
(0.816993 -0.0134709 0 0.000505637 0 0)
(0.968628 -0.0105725 0 0.000325616 0 0)
(1.07326 -0.00825773 0 0.000187934 0 0)
(1.18371 -0.00682151 0 0.000103866 0 0)
(1.24111 -0.00627224 0 5.39913e-05 0 0)
(1.34733 -0.00655487 0 5.44866e-05 0 0)
(1.38473 -0.00700753 0 6.13673e-05 0 0)
(1.51829 -0.00789014 0 8.17839e-05 0 0)
(1.54347 -0.010469 0 0.000106034 0 0)
(1.76071 -0.0115759 0 0.000124523 0 0)
(1.75705 -0.027952 0 0.000498475 0 0)
(2.38991 -0.0337894 0 0.000934907 0 0)
(2.3614 -0.142043 0 0.0125054 0 0)
(5.38038 -0.953918 0 0.279042 0 0)
(0.150369 0.047716 0 0.0160622 0 0)
(0.0036903 0.00321339 0 0.011815 0 0)
(0.0255399 -0.00687849 0 0.0042537 0 0)
(0.0585626 -0.0108285 0 0.00251129 0 0)
(0.115236 -0.0148973 0 0.0020229 0 0)
(0.217081 -0.0177455 0 0.00179241 0 0)
(0.334487 -0.0176049 0 0.00150814 0 0)
(0.469249 -0.0154525 0 0.00101782 0 0)
(0.568469 -0.0127483 0 0.000632892 0 0)
(0.685391 -0.0108859 0 0.000348312 0 0)
(0.742416 -0.0103517 0 0.000205574 0 0)
(0.863775 -0.00981163 0 0.000159021 0 0)
(0.896125 -0.01223 0 0.00022388 0 0)
(1.04988 -0.00954578 0 0.00021582 0 0)
(1.06793 -0.0196209 0 0.000480698 0 0)
(1.28392 -0.00780242 0 0.000332598 0 0)
(1.33142 -0.0503122 0 0.00242004 0 0)
(1.6627 -0.0187375 0 0.00119806 0 0)
(2.21095 -0.249265 0 0.044259 0 0)
(2.8139 -0.401713 0 0.170862 0 0)
(0.140271 0.0385578 0 0.0112583 0 0)
(0.0133552 0.0121543 0 0.0123122 0 0)
(0.0178695 0.00636102 0 0.00527034 0 0)
(0.019252 0.0042307 0 0.0038318 0 0)
(0.0114054 0.000121477 0 0.00361943 0 0)
(0.0182038 -0.00617979 0 0.00341128 0 0)
(0.0476996 -0.0101325 0 0.00301709 0 0)
(0.106912 -0.0120797 0 0.00216617 0 0)
(0.158467 -0.0111044 0 0.00140563 0 0)
(0.234654 -0.0108217 0 0.000826111 0 0)
(0.269386 -0.00994388 0 0.000454953 0 0)
(0.359581 -0.0113076 0 0.000456938 0 0)
(0.385703 -0.0111592 0 0.000373048 0 0)
(0.491731 -0.0144769 0 0.000622229 0 0)
(0.535328 -0.0127695 0 0.000540884 0 0)
(0.647809 -0.0248476 0 0.00119809 0 0)
(0.748918 -0.0160558 0 0.00136403 0 0)
(0.92131 -0.0816766 0 0.0125416 0 0)
(1.20591 -0.0853305 0 0.0191191 0 0)
(1.7445 -0.561091 0 0.487218 0 0)
(0.130709 0.0314152 0 0.00804934 0 0)
(0.0118303 0.010759 0 0.0109732 0 0)
(0.0265371 0.00921724 0 0.00450939 0 0)
(0.0496206 0.0117034 0 0.00365141 0 0)
(0.0587492 0.0136581 0 0.00424545 0 0)
(0.043217 0.0102247 0 0.00457145 0 0)
(0.0302485 0.00605331 0 0.00441458 0 0)
(0.0200834 0.000179459 0 0.00335759 0 0)
(0.0219306 -0.00170786 0 0.00245761 0 0)
(0.0364157 -0.00406522 0 0.00142822 0 0)
(0.0402087 -0.00443582 0 0.000939845 0 0)
(0.0748318 -0.00563539 0 0.000740894 0 0)
(0.0784834 -0.00790723 0 0.000961136 0 0)
(0.130265 -0.00701097 0 0.000882039 0 0)
(0.145895 -0.0135314 0 0.00194021 0 0)
(0.209744 -0.00803996 0 0.00133707 0 0)
(0.242227 -0.0292954 0 0.00706758 0 0)
(0.358079 -0.0181528 0 0.00403817 0 0)
(0.449606 -0.12351 0 0.0722514 0 0)
(0.779407 -0.254794 0 0.237417 0 0)
(0.129715 0.0270417 0 0.00600545 0 0)
(0.00806654 0.00801425 0 0.00974504 0 0)
(0.0226635 0.00750915 0 0.00360777 0 0)
(0.0517425 0.0104953 0 0.00266146 0 0)
(0.0834728 0.0159273 0 0.00359925 0 0)
(0.0890514 0.0170351 0 0.00442707 0 0)
(0.0981388 0.0171062 0 0.00479636 0 0)
(0.0805283 0.0118276 0 0.00401005 0 0)
(0.0813113 0.00953938 0 0.00295139 0 0)
(0.0617459 0.00540629 0 0.00204694 0 0)
(0.0621977 0.00531906 0 0.0011844 0 0)
(0.045304 0.00254109 0 0.00134591 0 0)
(0.0462779 0.002509 0 0.000914067 0 0)
(0.0342235 3.30408e-05 0 0.00169241 0 0)
(0.0414319 -2.54985e-05 0 0.00141855 0 0)
(0.0364454 -0.00236975 0 0.0033065 0 0)
(0.0433951 -0.00256719 0 0.00316228 0 0)
(0.0617966 -0.0113556 0 0.0205241 0 0)
(0.0892308 -0.0293027 0 0.0326798 0 0)
(0.211469 -0.110864 0 0.328553 0 0)
(0.132168 0.0234823 0 0.0044584 0 0)
(0.00580114 0.00592584 0 0.00856507 0 0)
(0.0182756 0.00596171 0 0.0031628 0 0)
(0.044183 0.00811945 0 0.0019502 0 0)
(0.0771264 0.0133385 0 0.0027331 0 0)
(0.0883856 0.0157406 0 0.00367811 0 0)
(0.11348 0.0180683 0 0.00424315 0 0)
(0.111213 0.0148805 0 0.00353776 0 0)
(0.133409 0.0137024 0 0.00311657 0 0)
(0.127407 0.010314 0 0.00203826 0 0)
(0.143875 0.0117375 0 0.00146467 0 0)
(0.133183 0.00892972 0 0.00128666 0 0)
(0.139543 0.0114595 0 0.00164334 0 0)
(0.120081 0.00799954 0 0.00158225 0 0)
(0.120504 0.0116027 0 0.00287017 0 0)
(0.0923753 0.00748563 0 0.00256715 0 0)
(0.0820282 0.0152066 0 0.00661651 0 0)
(0.0492656 0.0160621 0 0.011187 0 0)
(0.0338477 0.0187966 0 0.0563675 0 0)
(0.0569045 0.0336033 0 0.348345 0 0)
(0.13417 0.0202942 0 0.00328251 0 0)
(0.0047113 0.00445917 0 0.00713449 0 0)
(0.0148488 0.00473202 0 0.00289811 0 0)
(0.0379378 0.00637944 0 0.00141685 0 0)
(0.0667547 0.0107858 0 0.00203157 0 0)
(0.077963 0.0131985 0 0.00286601 0 0)
(0.100349 0.0156089 0 0.00359032 0 0)
(0.104248 0.0131657 0 0.00326364 0 0)
(0.129835 0.0126469 0 0.00233701 0 0)
(0.13556 0.0106393 0 0.0018399 0 0)
(0.163843 0.0112842 0 0.00110196 0 0)
(0.166594 0.011786 0 0.00145972 0 0)
(0.192153 0.0121365 0 0.00111578 0 0)
(0.184784 0.0150963 0 0.0019109 0 0)
(0.203154 0.0141487 0 0.00211707 0 0)
(0.179902 0.0206676 0 0.00356711 0 0)
(0.181759 0.0238995 0 0.00488845 0 0)
(0.139346 0.039214 0 0.0175356 0 0)
(0.120129 0.0626944 0 0.0575576 0 0)
(0.117717 0.104567 0 0.250873 0 0)
(0.134886 0.0173151 0 0.00240014 0 0)
(0.00346325 0.0033586 0 0.0058279 0 0)
(0.0117523 0.00368961 0 0.00268396 0 0)
(0.0331791 0.00506144 0 0.00104338 0 0)
(0.0584834 0.00854132 0 0.00148631 0 0)
(0.0698613 0.011123 0 0.00226784 0 0)
(0.0869621 0.0131898 0 0.0029 0 0)
(0.0933643 0.0115347 0 0.00238404 0 0)
(0.112902 0.0106325 0 0.00217738 0 0)
(0.125297 0.00869732 0 0.00157945 0 0)
(0.146191 0.0101407 0 0.00101492 0 0)
(0.162109 0.00981263 0 0.00106777 0 0)
(0.180412 0.011779 0 0.00119232 0 0)
(0.193663 0.0133023 0 0.00157693 0 0)
(0.205428 0.0152957 0 0.0021932 0 0)
(0.210574 0.0211613 0 0.00340604 0 0)
(0.208127 0.0265542 0 0.00542548 0 0)
(0.19565 0.0539227 0 0.0208223 0 0)
(0.17809 0.0706331 0 0.0530709 0 0)
(0.196272 0.16748 0 0.295292 0 0)
(0.134816 0.0146343 0 0.00171893 0 0)
(0.0027543 0.00260662 0 0.00465359 0 0)
(0.00970577 0.00285018 0 0.00251841 0 0)
(0.0295589 0.00410481 0 0.000760875 0 0)
(0.0514854 0.00682884 0 0.00107069 0 0)
(0.0638316 0.00945348 0 0.00174467 0 0)
(0.0762032 0.01121 0 0.00241143 0 0)
(0.0848589 0.0100405 0 0.00228136 0 0)
(0.0992994 0.00851735 0 0.00155571 0 0)
(0.1144 0.00789473 0 0.00122297 0 0)
(0.129901 0.00781056 0 0.000722729 0 0)
(0.149207 0.00931826 0 0.00103714 0 0)
(0.161792 0.00932608 0 0.000870628 0 0)
(0.180159 0.0129468 0 0.00132042 0 0)
(0.186805 0.0134944 0 0.00182158 0 0)
(0.20061 0.02004 0 0.00285619 0 0)
(0.196582 0.0282997 0 0.00557496 0 0)
(0.19562 0.0493134 0 0.0175301 0 0)
(0.187759 0.0807064 0 0.05991 0 0)
(0.208616 0.175504 0 0.246017 0 0)
(0.13469 0.0122333 0 0.00122283 0 0)
(0.0023302 0.00193528 0 0.00363766 0 0)
(0.00827161 0.0020496 0 0.00232488 0 0)
(0.026417 0.00318521 0 0.000522729 0 0)
(0.0462238 0.00534946 0 0.000754835 0 0)
(0.0585015 0.00786725 0 0.00133429 0 0)
(0.0682183 0.00949799 0 0.00190968 0 0)
(0.0771721 0.00851719 0 0.00159423 0 0)
(0.0890338 0.00739643 0 0.00134267 0 0)
(0.104264 0.00625968 0 0.00112256 0 0)
(0.117839 0.00690926 0 0.000629097 0 0)
(0.136482 0.00761279 0 0.000772687 0 0)
(0.147996 0.00822835 0 0.000770795 0 0)
(0.16537 0.0114151 0 0.00121297 0 0)
(0.171423 0.0118446 0 0.00154092 0 0)
(0.185792 0.0207467 0 0.0033613 0 0)
(0.181525 0.0254872 0 0.0051126 0 0)
(0.187537 0.0530617 0 0.0206633 0 0)
(0.183874 0.081405 0 0.0575721 0 0)
(0.209057 0.176196 0 0.229792 0 0)
(0.134973 0.0101786 0 0.000859549 0 0)
(0.00208574 0.00141444 0 0.00277478 0 0)
(0.00739794 0.00149186 0 0.00209675 0 0)
(0.0236971 0.00253818 0 0.000394316 0 0)
(0.0422621 0.00421889 0 0.000536019 0 0)
(0.0536468 0.00648703 0 0.000985014 0 0)
(0.0621885 0.00802501 0 0.0015128 0 0)
(0.0701937 0.00721389 0 0.00142296 0 0)
(0.0812184 0.00601436 0 0.000988904 0 0)
(0.0953469 0.00534619 0 0.000788319 0 0)
(0.108597 0.00554194 0 0.000457464 0 0)
(0.125759 0.00675831 0 0.000689684 0 0)
(0.137113 0.00702943 0 0.000641111 0 0)
(0.153254 0.00987056 0 0.000907333 0 0)
(0.159438 0.0111354 0 0.00135937 0 0)
(0.173821 0.0178736 0 0.00262194 0 0)
(0.170661 0.0260978 0 0.00529116 0 0)
(0.182887 0.050924 0 0.0198293 0 0)
(0.177181 0.0829689 0 0.0559981 0 0)
(0.219909 0.179714 0 0.214981 0 0)
(0.135303 0.00834866 0 0.000588862 0 0)
(0.00194725 0.00100228 0 0.00204256 0 0)
(0.00681722 0.0009674 0 0.00168624 0 0)
(0.0214653 0.00199405 0 0.000275428 0 0)
(0.0390051 0.00329712 0 0.000365499 0 0)
(0.0497213 0.00526965 0 0.000712895 0 0)
(0.0571824 0.00667459 0 0.00113172 0 0)
(0.0645585 0.00595116 0 0.000972363 0 0)
(0.0747231 0.00505929 0 0.000735707 0 0)
(0.0881529 0.00425482 0 0.000701631 0 0)
(0.100924 0.00462673 0 0.000374527 0 0)
(0.116884 0.00567577 0 0.000521541 0 0)
(0.128508 0.00586066 0 0.000504688 0 0)
(0.142945 0.00902335 0 0.00085108 0 0)
(0.150672 0.00966386 0 0.00112711 0 0)
(0.162773 0.0178294 0 0.00273858 0 0)
(0.164654 0.0249074 0 0.00513792 0 0)
(0.177214 0.0501312 0 0.0195917 0 0)
(0.17654 0.084917 0 0.0551127 0 0)
(0.229745 0.178468 0 0.197614 0 0)
(0.135591 0.00670643 0 0.000395575 0 0)
(0.00187708 0.000700145 0 0.00147379 0 0)
(0.00645801 0.000599512 0 0.00126516 0 0)
(0.0197151 0.00159655 0 0.000230197 0 0)
(0.0364427 0.00256684 0 0.000271806 0 0)
(0.0465793 0.004209 0 0.000506399 0 0)
(0.0532744 0.00547856 0 0.000841733 0 0)
(0.0600178 0.00485097 0 0.000777895 0 0)
(0.0696158 0.0040508 0 0.000546193 0 0)
(0.0823761 0.00342302 0 0.000482855 0 0)
(0.0948128 0.00376477 0 0.000278148 0 0)
(0.109881 0.00474375 0 0.000433987 0 0)
(0.121387 0.00502312 0 0.000437105 0 0)
(0.135114 0.00758545 0 0.000653659 0 0)
(0.143395 0.00891445 0 0.000976971 0 0)
(0.154661 0.0165042 0 0.00246029 0 0)
(0.161046 0.0238903 0 0.00512226 0 0)
(0.171417 0.0498373 0 0.0192673 0 0)
(0.181621 0.0851318 0 0.053493 0 0)
(0.23987 0.176231 0 0.180535 0 0)
(0.135815 0.00526047 0 0.00025228 0 0)
(0.00184066 0.000476747 0 0.000981946 0 0)
(0.00625059 0.000329146 0 0.000850007 0 0)
(0.0183642 0.00124309 0 0.000158594 0 0)
(0.0344083 0.00196143 0 0.000176114 0 0)
(0.0441095 0.00326279 0 0.000331261 0 0)
(0.0502247 0.00436719 0 0.000572043 0 0)
(0.0564541 0.00383212 0 0.000499162 0 0)
(0.065594 0.00324656 0 0.000348326 0 0)
(0.0778084 0.00267777 0 0.000378885 0 0)
(0.0900273 0.00295201 0 0.000215286 0 0)
(0.104397 0.00395048 0 0.000321135 0 0)
(0.115767 0.00413953 0 0.000318908 0 0)
(0.129265 0.00665162 0 0.000540206 0 0)
(0.137195 0.00804872 0 0.000804445 0 0)
(0.149727 0.0153983 0 0.00225876 0 0)
(0.157929 0.0231912 0 0.00493282 0 0)
(0.169068 0.0493624 0 0.0185788 0 0)
(0.189433 0.0845418 0 0.0510801 0 0)
(0.249148 0.175464 0 0.16441 0 0)
(0.135965 0.00395494 0 0.000156996 0 0)
(0.00183469 0.000308764 0 0.000615414 0 0)
(0.006149 0.0001608 0 0.000545462 0 0)
(0.0173628 0.00093544 0 0.000127655 0 0)
(0.0328307 0.00143241 0 0.000134937 0 0)
(0.042253 0.00240441 0 0.000217578 0 0)
(0.0478951 0.00332998 0 0.000376148 0 0)
(0.0537525 0.00289136 0 0.000341568 0 0)
(0.0625281 0.00243309 0 0.000238787 0 0)
(0.0743713 0.00198509 0 0.000262093 0 0)
(0.0863705 0.00225821 0 0.000156909 0 0)
(0.100204 0.00315256 0 0.000250287 0 0)
(0.111628 0.00330014 0 0.00027159 0 0)
(0.124746 0.00566922 0 0.000451233 0 0)
(0.13274 0.00718089 0 0.000674653 0 0)
(0.147107 0.0143333 0 0.00209755 0 0)
(0.154235 0.0228194 0 0.00469296 0 0)
(0.171312 0.0482181 0 0.0177787 0 0)
(0.195989 0.084065 0 0.048413 0 0)
(0.25826 0.173595 0 0.149447 0 0)
(0.136069 0.00276489 0 8.77469e-05 0 0)
(0.00183878 0.000184445 0 0.000329409 0 0)
(0.00610492 5.54882e-05 0 0.000297587 0 0)
(0.0166531 0.000643041 0 8.17092e-05 0 0)
(0.0316843 0.000984856 0 8.77465e-05 0 0)
(0.040912 0.00162614 0 0.000123528 0 0)
(0.0462283 0.0023691 0 0.000216118 0 0)
(0.0517841 0.00200532 0 0.000190705 0 0)
(0.0603389 0.00173288 0 0.000131703 0 0)
(0.0718457 0.00137693 0 0.000172049 0 0)
(0.0837584 0.00159548 0 0.00011591 0 0)
(0.0971796 0.00242011 0 0.000176338 0 0)
(0.108776 0.00259501 0 0.000193965 0 0)
(0.121204 0.00473973 0 0.000345392 0 0)
(0.130507 0.00636096 0 0.000577536 0 0)
(0.144935 0.0133317 0 0.00187732 0 0)
(0.152947 0.0223555 0 0.00443984 0 0)
(0.175573 0.0466202 0 0.016833 0 0)
(0.201043 0.0839989 0 0.0453877 0 0)
(0.270599 0.170119 0 0.134066 0 0)
(0.136129 0.00165202 0 4.83324e-05 0 0)
(0.00184469 9.14025e-05 0 0.000154411 0 0)
(0.0060893 7.28685e-06 0 0.000143579 0 0)
(0.0161987 0.000370526 0 6.19809e-05 0 0)
(0.0309261 0.000586237 0 7.42678e-05 0 0)
(0.0400513 0.000903964 0 7.89455e-05 0 0)
(0.0451424 0.00145339 0 0.000119725 0 0)
(0.0505008 0.00115956 0 0.000109938 0 0)
(0.0589261 0.00104611 0 8.59207e-05 0 0)
(0.0701921 0.000778886 0 0.000118087 0 0)
(0.0820985 0.000981018 0 9.10824e-05 0 0)
(0.0952837 0.00170831 0 0.000131832 0 0)
(0.106875 0.00186764 0 0.000153451 0 0)
(0.119121 0.0038599 0 0.00027835 0 0)
(0.129869 0.00547179 0 0.000489302 0 0)
(0.142672 0.0125528 0 0.00166021 0 0)
(0.155072 0.0213812 0 0.00417784 0 0)
(0.179137 0.045388 0 0.0157371 0 0)
(0.208492 0.0832941 0 0.0419784 0 0)
(0.283988 0.166541 0 0.120273 0 0)
(0.136147 0.000586965 0 2.68817e-05 0 0)
(0.00184801 1.52044e-05 0 6.36779e-05 0 0)
(0.00608387 -1.47476e-05 0 5.53768e-05 0 0)
(0.0159785 0.000101324 0 4.50255e-05 0 0)
(0.0305452 0.000222302 0 5.92588e-05 0 0)
(0.0396422 0.000218474 0 5.44999e-05 0 0)
(0.0445969 0.000558964 0 6.35323e-05 0 0)
(0.0498802 0.000338178 0 6.49884e-05 0 0)
(0.0582349 0.000390551 0 6.21088e-05 0 0)
(0.0693692 0.000231888 0 7.85352e-05 0 0)
(0.0813391 0.000383653 0 7.49637e-05 0 0)
(0.0944256 0.00101173 0 9.71574e-05 0 0)
(0.105856 0.00119456 0 0.000112077 0 0)
(0.118747 0.00296517 0 0.000222592 0 0)
(0.129577 0.00469985 0 0.000411776 0 0)
(0.142615 0.0116773 0 0.00145483 0 0)
(0.158754 0.0202388 0 0.00392009 0 0)
(0.182413 0.0444061 0 0.0144788 0 0)
(0.219184 0.0815608 0 0.0385696 0 0)
(0.296718 0.1623 0 0.107119 0 0)
(0.136128 -0.000460731 0 2.72821e-05 0 0)
(0.00184522 -5.42809e-05 0 7.10957e-05 0 0)
(0.00607955 -2.22585e-05 0 5.12376e-05 0 0)
(0.0159789 -0.000163159 0 5.21971e-05 0 0)
(0.0305329 -0.000128444 0 6.54725e-05 0 0)
(0.0396589 -0.000461658 0 6.4984e-05 0 0)
(0.0445817 -0.000319428 0 6.3483e-05 0 0)
(0.0498928 -0.00049034 0 7.52719e-05 0 0)
(0.0582302 -0.000255095 0 7.97432e-05 0 0)
(0.069362 -0.000337328 0 7.09752e-05 0 0)
(0.0814754 -0.000202329 0 7.76783e-05 0 0)
(0.0944306 0.000315447 0 8.29281e-05 0 0)
(0.10608 0.000505612 0 9.6229e-05 0 0)
(0.119581 0.00204886 0 0.000188064 0 0)
(0.129692 0.00401108 0 0.000353774 0 0)
(0.145226 0.0105128 0 0.00129584 0 0)
(0.162139 0.019306 0 0.00360713 0 0)
(0.1884 0.0429509 0 0.0131685 0 0)
(0.230741 0.0793714 0 0.0349947 0 0)
(0.311424 0.157213 0 0.0945896 0 0)
(0.136068 -0.00152844 0 4.614e-05 0 0)
(0.00183639 -0.000130795 0 0.000167644 0 0)
(0.00607565 -4.11809e-05 0 0.000122507 0 0)
(0.0162014 -0.00043271 0 7.44735e-05 0 0)
(0.0308874 -0.0004962 0 8.06285e-05 0 0)
(0.0401048 -0.00114717 0 0.00010199 0 0)
(0.0450995 -0.00121118 0 0.000110631 0 0)
(0.0505326 -0.00132078 0 0.000133181 0 0)
(0.0589149 -0.000906431 0 0.00012807 0 0)
(0.0702005 -0.00091123 0 8.9168e-05 0 0)
(0.0824455 -0.000780379 0 9.01751e-05 0 0)
(0.0953584 -0.000390369 0 8.511e-05 0 0)
(0.107634 -0.000218737 0 9.36947e-05 0 0)
(0.120883 0.00117997 0 0.000164123 0 0)
(0.13178 0.00320916 0 0.000323399 0 0)
(0.149093 0.00925525 0 0.00116203 0 0)
(0.166021 0.0184932 0 0.00323612 0 0)
(0.197001 0.0408914 0 0.0119128 0 0)
(0.242319 0.0771138 0 0.0313129 0 0)
(0.328478 0.150917 0 0.0834603 0 0)
(0.135966 -0.00264372 0 8.65884e-05 0 0)
(0.00182549 -0.000225062 0 0.000358014 0 0)
(0.00608275 -8.63193e-05 0 0.000270931 0 0)
(0.016659 -0.000708494 0 0.000109784 0 0)
(0.0316165 -0.000896739 0 0.000108797 0 0)
(0.040997 -0.00186898 0 0.000169878 0 0)
(0.0461756 -0.00212528 0 0.000207978 0 0)
(0.0518034 -0.00217532 0 0.000240511 0 0)
(0.0603465 -0.00158118 0 0.000210021 0 0)
(0.0718855 -0.00151511 0 0.000136803 0 0)
(0.0842196 -0.0013707 0 0.0001166 0 0)
(0.0974595 -0.00114089 0 0.000109953 0 0)
(0.110196 -0.000951431 0 0.000104128 0 0)
(0.123069 0.000296607 0 0.000160326 0 0)
(0.135974 0.00226815 0 0.000327549 0 0)
(0.153105 0.0081189 0 0.00102294 0 0)
(0.172456 0.0173447 0 0.0029086 0 0)
(0.20634 0.0386953 0 0.0106 0 0)
(0.25581 0.0742365 0 0.0277628 0 0)
(0.346492 0.144104 0 0.072758 0 0)
(0.135818 -0.00384073 0 0.000152636 0 0)
(0.00181741 -0.000351776 0 0.000645903 0 0)
(0.00611775 -0.000181401 0 0.000499851 0 0)
(0.0173743 -0.000999956 0 0.000153809 0 0)
(0.032738 -0.00135203 0 0.000151454 0 0)
(0.0423713 -0.0026488 0 0.000272435 0 0)
(0.0478379 -0.00308665 0 0.00035744 0 0)
(0.0537537 -0.00307691 0 0.000397788 0 0)
(0.0625916 -0.00229657 0 0.000324667 0 0)
(0.0744004 -0.0021614 0 0.000212861 0 0)
(0.0869438 -0.00198646 0 0.000156332 0 0)
(0.100766 -0.00195613 0 0.000158157 0 0)
(0.113479 -0.00165905 0 0.000122113 0 0)
(0.127145 -0.000727883 0 0.000188834 0 0)
(0.14123 0.00134039 0 0.000347439 0 0)
(0.158343 0.00691429 0 0.000904125 0 0)
(0.181001 0.0159183 0 0.00262029 0 0)
(0.216581 0.0364029 0 0.00924596 0 0)
(0.27176 0.0706152 0 0.0244167 0 0)
(0.365534 0.13733 0 0.0624551 0 0)
(0.135615 -0.00514958 0 0.000250059 0 0)
(0.00182193 -0.000523129 0 0.00103211 0 0)
(0.00621053 -0.000345074 0 0.000810398 0 0)
(0.0183848 -0.00131488 0 0.000204249 0 0)
(0.0342773 -0.00187857 0 0.000211393 0 0)
(0.0442846 -0.00350651 0 0.000411196 0 0)
(0.0501261 -0.0041163 0 0.000558166 0 0)
(0.0564875 -0.00403802 0 0.000601253 0 0)
(0.0656864 -0.00307403 0 0.00047001 0 0)
(0.0778091 -0.00285826 0 0.000314942 0 0)
(0.0908229 -0.00266808 0 0.000210798 0 0)
(0.1051 -0.00280975 0 0.000224326 0 0)
(0.118013 -0.00242084 0 0.000153315 0 0)
(0.132958 -0.00187839 0 0.000247561 0 0)
(0.147098 0.000469553 0 0.000369102 0 0)
(0.16598 0.00543341 0 0.000840569 0 0)
(0.190589 0.0144688 0 0.00232253 0 0)
(0.2291 0.0336493 0 0.00800082 0 0)
(0.289053 0.0666567 0 0.0210947 0 0)
(0.386948 0.129732 0 0.0531095 0 0)
(0.135345 -0.00660653 0 0.000389314 0 0)
(0.00185306 -0.000755209 0 0.00151931 0 0)
(0.00640164 -0.000600421 0 0.00120265 0 0)
(0.0197412 -0.00166754 0 0.000262044 0 0)
(0.0362733 -0.002497 0 0.000294487 0 0)
(0.0468087 -0.0044547 0 0.000591143 0 0)
(0.053116 -0.00523402 0 0.000813873 0 0)
(0.060128 -0.00507431 0 0.00085115 0 0)
(0.069673 -0.00393217 0 0.000652673 0 0)
(0.0823451 -0.00363313 0 0.000448396 0 0)
(0.0958899 -0.00343465 0 0.000283339 0 0)
(0.110537 -0.00371262 0 0.000311572 0 0)
(0.124319 -0.00330619 0 0.000202814 0 0)
(0.139915 -0.00310148 0 0.000335041 0 0)
(0.15466 -0.000480037 0 0.000402958 0 0)
(0.175582 0.0037257 0 0.000827608 0 0)
(0.201737 0.0129262 0 0.00204853 0 0)
(0.243783 0.0304324 0 0.00682464 0 0)
(0.308135 0.0621871 0 0.0179409 0 0)
(0.411148 0.12112 0 0.0446497 0 0)
(0.135009 -0.00825399 0 0.000585307 0 0)
(0.00193067 -0.00106671 0 0.00211033 0 0)
(0.0067439 -0.000966986 0 0.00165003 0 0)
(0.0215076 -0.00207755 0 0.000332261 0 0)
(0.0387966 -0.00323404 0 0.000406935 0 0)
(0.0500329 -0.0055088 0 0.000814616 0 0)
(0.0569528 -0.0064501 0 0.0011224 0 0)
(0.0647908 -0.00619423 0 0.00114121 0 0)
(0.0747154 -0.00488497 0 0.0008706 0 0)
(0.088241 -0.00451546 0 0.000609224 0 0)
(0.102135 -0.00427202 0 0.000366031 0 0)
(0.117634 -0.00472248 0 0.000422457 0 0)
(0.13224 -0.00426767 0 0.000264267 0 0)
(0.148301 -0.00440899 0 0.00045019 0 0)
(0.164547 -0.00154754 0 0.00045392 0 0)
(0.186897 0.00186035 0 0.000849501 0 0)
(0.215183 0.0112179 0 0.00182168 0 0)
(0.260503 0.0267667 0 0.00571392 0 0)
(0.330037 0.0569983 0 0.0151261 0 0)
(0.437787 0.111664 0 0.036852 0 0)
(0.134696 -0.0100999 0 0.000853909 0 0)
(0.00207565 -0.00148945 0 0.00283507 0 0)
(0.00730532 -0.00145663 0 0.00205092 0 0)
(0.0237576 -0.00259745 0 0.000432608 0 0)
(0.0420023 -0.0041533 0 0.000566141 0 0)
(0.0540732 -0.00671509 0 0.00109374 0 0)
(0.0618797 -0.00779681 0 0.00148655 0 0)
(0.0705837 -0.00742378 0 0.00147265 0 0)
(0.0811507 -0.00597608 0 0.00112473 0 0)
(0.0955551 -0.00550947 0 0.000790499 0 0)
(0.109888 -0.00522832 0 0.000465396 0 0)
(0.126666 -0.00585445 0 0.000554514 0 0)
(0.141678 -0.00530122 0 0.000335483 0 0)
(0.158963 -0.00587414 0 0.000598376 0 0)
(0.176535 -0.00271176 0 0.000515447 0 0)
(0.200428 -0.000211891 0 0.000920248 0 0)
(0.231126 0.00934732 0 0.00163495 0 0)
(0.279999 0.0225156 0 0.00476063 0 0)
(0.354845 0.0512526 0 0.0125457 0 0)
(0.46791 0.100903 0 0.0298949 0 0)
(0.134694 -0.0121979 0 0.00121931 0 0)
(0.00230154 -0.00203797 0 0.00371513 0 0)
(0.00819673 -0.00207828 0 0.00232102 0 0)
(0.0264341 -0.00327672 0 0.000584206 0 0)
(0.046073 -0.00534003 0 0.00079709 0 0)
(0.0588107 -0.00808982 0 0.00143925 0 0)
(0.0681117 -0.00933805 0 0.00191935 0 0)
(0.0773686 -0.00873967 0 0.00183385 0 0)
(0.089243 -0.0072922 0 0.00143268 0 0)
(0.104065 -0.0065753 0 0.000987446 0 0)
(0.119657 -0.00642911 0 0.000603003 0 0)
(0.137208 -0.0070225 0 0.000693967 0 0)
(0.153192 -0.00656319 0 0.000433756 0 0)
(0.171819 -0.00742216 0 0.000775142 0 0)
(0.190838 -0.00409203 0 0.000594676 0 0)
(0.216543 -0.002448 0 0.00105981 0 0)
(0.250102 0.00718597 0 0.0014627 0 0)
(0.302441 0.0177982 0 0.0040387 0 0)
(0.382827 0.0449214 0 0.0101175 0 0)
(0.502162 0.0882747 0 0.0239678 0 0)
(0.135422 -0.0146557 0 0.00172363 0 0)
(0.00269974 -0.00268621 0 0.0047388 0 0)
(0.00968077 -0.0028808 0 0.00251258 0 0)
(0.0293757 -0.00410386 0 0.000800896 0 0)
(0.0515288 -0.00682957 0 0.00111477 0 0)
(0.0638631 -0.00959842 0 0.00185682 0 0)
(0.07641 -0.0111033 0 0.00240883 0 0)
(0.0846697 -0.0100862 0 0.00222658 0 0)
(0.0998876 -0.00886342 0 0.00178664 0 0)
(0.113349 -0.00769506 0 0.00120965 0 0)
(0.132616 -0.00787205 0 0.000769309 0 0)
(0.148625 -0.0082237 0 0.000845142 0 0)
(0.168673 -0.00809502 0 0.000561822 0 0)
(0.186062 -0.00903529 0 0.000982137 0 0)
(0.209541 -0.00569136 0 0.000684379 0 0)
(0.234632 -0.00491829 0 0.00127603 0 0)
(0.273248 0.00490957 0 0.00131465 0 0)
(0.325919 0.0125755 0 0.00348466 0 0)
(0.412451 0.0383919 0 0.00806639 0 0)
(0.535154 0.0730433 0 0.0183877 0 0)
(0.136441 -0.0174686 0 0.00240543 0 0)
(0.0036249 -0.00345976 0 0.0059111 0 0)
(0.0122108 -0.00392194 0 0.0027111 0 0)
(0.0327416 -0.00507384 0 0.00108977 0 0)
(0.059142 -0.00870538 0 0.00153394 0 0)
(0.0692131 -0.0112259 0 0.00235696 0 0)
(0.0881302 -0.0132521 0 0.00296403 0 0)
(0.0921915 -0.0114067 0 0.00266289 0 0)
(0.115031 -0.0108853 0 0.00220045 0 0)
(0.122804 -0.00881479 0 0.00145472 0 0)
(0.151028 -0.009729 0 0.000978953 0 0)
(0.1598 -0.00943651 0 0.00101495 0 0)
(0.190231 -0.0100655 0 0.000736395 0 0)
(0.198302 -0.0105237 0 0.0012104 0 0)
(0.232611 -0.00763056 0 0.000813055 0 0)
(0.246023 -0.00715542 0 0.00151524 0 0)
(0.29368 0.00264743 0 0.00122493 0 0)
(0.331854 0.00752375 0 0.00302412 0 0)
(0.422381 0.0321977 0 0.00645889 0 0)
(0.529001 0.0558951 0 0.0131575 0 0)
(0.135746 -0.0204621 0 0.00329558 0 0)
(0.00506731 -0.00452657 0 0.00723975 0 0)
(0.0156128 -0.00509288 0 0.00293833 0 0)
(0.037223 -0.00632829 0 0.00147122 0 0)
(0.0685131 -0.0109844 0 0.0020788 0 0)
(0.076561 -0.0131758 0 0.00297419 0 0)
(0.103032 -0.015847 0 0.00361533 0 0)
(0.101626 -0.0129332 0 0.0031775 0 0)
(0.133689 -0.0133243 0 0.00268324 0 0)
(0.131696 -0.00995107 0 0.0017259 0 0)
(0.169919 -0.0118332 0 0.00124254 0 0)
(0.16365 -0.010307 0 0.00119797 0 0)
(0.203272 -0.0119085 0 0.000953052 0 0)
(0.189585 -0.0107619 0 0.0014121 0 0)
(0.229815 -0.00882133 0 0.00095452 0 0)
(0.215432 -0.00719958 0 0.00166258 0 0)
(0.263164 0.0014303 0 0.00113818 0 0)
(0.267904 0.004977 0 0.00262596 0 0)
(0.348107 0.0269003 0 0.00509624 0 0)
(0.41719 0.0392951 0 0.00905489 0 0)
(0.132917 -0.0235852 0 0.00445727 0 0)
(0.00657488 -0.00603921 0 0.00861554 0 0)
(0.0191595 -0.00625193 0 0.00320149 0 0)
(0.043493 -0.00809825 0 0.0019846 0 0)
(0.0784676 -0.0135742 0 0.00277243 0 0)
(0.0871997 -0.0156482 0 0.00372758 0 0)
(0.115922 -0.0182999 0 0.00432095 0 0)
(0.10859 -0.0143425 0 0.0037403 0 0)
(0.137883 -0.0145867 0 0.00311812 0 0)
(0.122253 -0.00988847 0 0.00195244 0 0)
(0.151527 -0.0117626 0 0.00144239 0 0)
(0.126512 -0.00861447 0 0.00128909 0 0)
(0.151906 -0.0102775 0 0.00107917 0 0)
(0.119322 -0.0067284 0 0.00142478 0 0)
(0.142714 -0.00619534 0 0.000954315 0 0)
(0.114214 -0.00236876 0 0.00158103 0 0)
(0.142775 0.00229764 0 0.000944919 0 0)
(0.135687 0.00687792 0 0.00221448 0 0)
(0.191449 0.0207045 0 0.00379183 0 0)
(0.243208 0.027436 0 0.00631426 0 0)
(0.130215 -0.0270743 0 0.00599666 0 0)
(0.0086042 -0.0080528 0 0.009792 0 0)
(0.0233871 -0.00768768 0 0.00363387 0 0)
(0.0514284 -0.010487 0 0.00271006 0 0)
(0.084709 -0.0160303 0 0.00362508 0 0)
(0.0883103 -0.0169245 0 0.0044769 0 0)
(0.100064 -0.0172114 0 0.00481666 0 0)
(0.0791354 -0.0114535 0 0.00401557 0 0)
(0.0834651 -0.0100015 0 0.00314981 0 0)
(0.0607781 -0.00481053 0 0.00187982 0 0)
(0.0634877 -0.00562593 0 0.00133267 0 0)
(0.0467509 -0.00183676 0 0.00111839 0 0)
(0.0469359 -0.00278609 0 0.000932814 0 0)
(0.0414357 0.00152768 0 0.00116122 0 0)
(0.042214 0.000135914 0 0.000750729 0 0)
(0.0522103 0.00482962 0 0.00124721 0 0)
(0.0563557 0.00349194 0 0.000702711 0 0)
(0.0849031 0.00979822 0 0.00169656 0 0)
(0.109532 0.0115093 0 0.00276666 0 0)
(0.172773 0.0205848 0 0.00431377 0 0)
(0.130985 -0.0314351 0 0.00803957 0 0)
(0.0120957 -0.0107581 0 0.0109867 0 0)
(0.0270042 -0.00930415 0 0.00452476 0 0)
(0.0495188 -0.0116532 0 0.00367161 0 0)
(0.0595765 -0.0137401 0 0.00425446 0 0)
(0.0429923 -0.0100843 0 0.00458164 0 0)
(0.0311217 -0.00613812 0 0.00443083 0 0)
(0.0200438 0.00010072 0 0.00343024 0 0)
(0.0218833 0.00152522 0 0.0024621 0 0)
(0.0368896 0.00449414 0 0.00137647 0 0)
(0.0383374 0.0038391 0 0.000919401 0 0)
(0.0773555 0.00633548 0 0.000742856 0 0)
(0.0703791 0.00563327 0 0.000624413 0 0)
(0.135751 0.00854045 0 0.000761945 0 0)
(0.119896 0.00551968 0 0.000483694 0 0)
(0.201518 0.00921386 0 0.000825114 0 0)
(0.17933 0.00251269 0 0.000488183 0 0)
(0.257966 0.00995928 0 0.00111836 0 0)
(0.24807 0.000264009 0 0.00200214 0 0)
(0.30886 0.0134902 0 0.0026813 0 0)
(0.140419 -0.0385512 0 0.0112422 0 0)
(0.0135121 -0.0121546 0 0.0123238 0 0)
(0.0180947 -0.00641638 0 0.00527773 0 0)
(0.0193507 -0.00418181 0 0.00384635 0 0)
(0.0115918 -0.000168139 0 0.00362186 0 0)
(0.0187062 0.00627176 0 0.00341729 0 0)
(0.0473397 0.0100716 0 0.00302147 0 0)
(0.108443 0.0122993 0 0.00217652 0 0)
(0.156162 0.0110729 0 0.00144901 0 0)
(0.237448 0.0107584 0 0.000772581 0 0)
(0.26314 0.00968723 0 0.000487418 0 0)
(0.364562 0.0105162 0 0.000396062 0 0)
(0.364876 0.00979573 0 0.00033786 0 0)
(0.495713 0.0108722 0 0.000415941 0 0)
(0.468231 0.00732485 0 0.000259237 0 0)
(0.610516 0.0089702 0 0.000465891 0 0)
(0.558566 -2.71916e-05 0 0.000295091 0 0)
(0.666898 0.0068721 0 0.00066985 0 0)
(0.622427 -0.00972311 0 0.00131154 0 0)
(0.635604 0.00638448 0 0.00193 0 0)
(0.150452 -0.0477099 0 0.0160483 0 0)
(0.00378378 -0.00322297 0 0.0118244 0 0)
(0.0254743 0.0068515 0 0.0042574 0 0)
(0.0588531 0.0108719 0 0.00251876 0 0)
(0.114966 0.0148813 0 0.00202352 0 0)
(0.217949 0.0177909 0 0.00179301 0 0)
(0.333471 0.0175667 0 0.00150615 0 0)
(0.471377 0.0155978 0 0.00102907 0 0)
(0.565619 0.0126741 0 0.000644601 0 0)
(0.688203 0.0108261 0 0.000332805 0 0)
(0.735583 0.00969484 0 0.000196404 0 0)
(0.864294 0.009689 0 0.000167185 0 0)
(0.87538 0.00896443 0 0.000143439 0 0)
(1.02843 0.00897143 0 0.000181888 0 0)
(0.997771 0.00577031 0 0.000111134 0 0)
(1.15624 0.00577036 0 0.000212735 0 0)