/*--------------------------------*- C++ -*----------------------------------*\
| =========                 |                                                 |
| \\      /  F ield         | OpenFOAM: The Open Source CFD Toolbox           |
|  \\    /   O peration     | Version:  2.4.0                                 |
|   \\  /    A nd           | Web:      www.OpenFOAM.org                      |
|    \\/     M anipulation  |                                                 |
\*---------------------------------------------------------------------------*/
FoamFile
{
    version     2.0;
    format      ascii;
    class       volScalarField;
    location    "0.029";
    object      nuSgs;
}
// * * * * * * * * * * * * * * * * * * * * * * * * * * * * * * * * * * * * * //

dimensions      [0 2 -1 0 0 0 0];

internalField   nonuniform List<scalar> 
4400
(
0.00205325
0.00193489
0.00170349
0.00151945
0.00143868
0.00135656
0.00132986
0.00131214
0.00125253
0.00118749
0.00139653
0.00172538
0.00173287
0.00165757
0.0015967
0.00151364
0.00147408
0.001456
0.00140006
0.00136977
0.000720922
0.0011741
0.00137872
0.00140617
0.00140715
0.00137697
0.00134212
0.00132899
0.00130966
0.00127176
0.000269408
0.000627817
0.000890146
0.00100333
0.00108787
0.00111505
0.00111764
0.00111864
0.00113429
0.00111722
8.74587e-05
0.000252135
0.000443586
0.000577775
0.000684268
0.00077405
0.000812704
0.000840505
0.000896892
0.000898227
2.55789e-05
8.46676e-05
0.000155751
0.000262622
0.00032295
0.000427995
0.00046553
0.000530417
0.00059387
0.000626942
7.7364e-06
2.50149e-05
4.53144e-05
9.10106e-05
0.000116281
0.000175529
0.000198385
0.000255072
0.000300204
0.000352285
4.25592e-06
8.96441e-06
1.34796e-05
2.7619e-05
3.36811e-05
5.41078e-05
6.08793e-05
8.7188e-05
0.000110464
0.00014317
4.05184e-06
6.72332e-06
7.73736e-06
1.18086e-05
1.26685e-05
1.65311e-05
1.70523e-05
2.30867e-05
3.0107e-05
3.98349e-05
3.89462e-06
7.10455e-06
8.04994e-06
9.70728e-06
9.91907e-06
1.00848e-05
9.94903e-06
1.02732e-05
1.10821e-05
1.21756e-05
3.88999e-06
7.13628e-06
7.97337e-06
9.48313e-06
1.00958e-05
9.92589e-06
9.82021e-06
9.95607e-06
1.05442e-05
1.35793e-05
3.91321e-06
7.45314e-06
8.65537e-06
9.68775e-06
1.37112e-05
1.34123e-05
1.46868e-05
1.89081e-05
2.61657e-05
4.69679e-05
4.25757e-06
1.03655e-05
1.32139e-05
1.90636e-05
4.0833e-05
4.44768e-05
5.39663e-05
8.0022e-05
0.000104208
0.000159914
7.6926e-06
2.63625e-05
4.38809e-05
7.11117e-05
0.000137514
0.000158075
0.000188905
0.000254647
0.000294636
0.000376223
2.52688e-05
8.89194e-05
0.000151403
0.000230801
0.000363575
0.000404685
0.000458156
0.000545373
0.000584783
0.000653038
8.67544e-05
0.000266769
0.000421322
0.000570765
0.000711747
0.00075198
0.000809901
0.000861579
0.000882624
0.000915213
0.000267612
0.00064753
0.000866323
0.00101239
0.00109224
0.001103
0.00112287
0.0011251
0.00112547
0.00112937
0.000716314
0.00118332
0.00136323
0.00141731
0.00140491
0.00137102
0.00135352
0.0013182
0.00130888
0.00129546
0.0013949
0.0017294
0.00172441
0.00167144
0.00157882
0.00152078
0.00148582
0.00143137
0.0014211
0.00138489
0.00205222
0.00193755
0.00169471
0.00153443
0.00142101
0.00136673
0.00133587
0.00128394
0.00126953
0.00120094
0.000590343
0.000483183
0.000303633
0.00026791
0.000232348
0.000197427
0.000187291
0.000190406
0.000210612
0.000246661
0.000252749
0.000243533
0.000243236
0.000255483
0.000246889
0.000214841
0.000160348
0.000121462
9.08613e-05
7.96692e-05
8.24629e-05
8.25013e-05
7.49513e-05
7.12219e-05
7.32189e-05
7.59227e-05
7.48572e-05
6.50605e-05
4.99326e-05
3.77818e-05
2.81169e-05
2.04993e-05
1.46152e-05
1.01916e-05
6.96164e-06
4.66919e-06
3.08352e-06
2.01108e-06
1.29931e-06
8.34072e-07
5.3356e-07
3.41088e-07
2.18457e-07
1.40481e-07
9.08498e-08
5.91411e-08
3.87641e-08
2.55748e-08
1.69723e-08
1.13199e-08
7.58141e-09
5.09525e-09
3.4348e-09
2.32225e-09
1.57546e-09
1.07368e-09
7.3813e-10
5.11315e-10
3.71633e-10
2.64383e-10
2.37883e-10
1.99427e-10
3.48564e-10
3.73483e-10
1.42845e-09
2.21709e-09
9.36091e-09
1.76548e-08
6.96777e-08
1.15555e-07
4.82989e-07
5.63482e-07
2.06538e-06
1.97987e-06
5.26748e-06
4.30581e-06
1.03101e-05
7.52459e-06
1.49418e-05
1.16319e-05
1.71671e-05
1.32887e-05
1.88958e-05
1.43575e-05
1.46125e-05
1.18604e-05
1.12438e-05
8.31532e-06
7.0162e-06
4.92954e-06
4.67842e-06
3.73693e-06
4.18082e-06
4.87217e-06
6.55392e-06
8.85628e-06
1.67006e-05
2.61065e-05
7.06491e-05
0.000205782
0.000668192
0.000611516
0.000490342
0.000444446
0.000391689
0.000269359
0.000204665
0.000198329
0.000235987
0.000292896
0.00029668
0.000286583
0.000281234
0.000270632
0.000242975
0.000173564
0.000129823
0.000110252
8.84265e-05
7.75575e-05
8.1258e-05
8.81582e-05
8.38295e-05
7.41763e-05
7.20824e-05
7.16526e-05
7.01864e-05
6.17853e-05
4.80733e-05
3.66465e-05
2.74267e-05
2.00998e-05
1.43989e-05
1.00815e-05
6.90742e-06
4.64136e-06
3.06713e-06
1.99967e-06
1.29065e-06
8.27559e-07
5.28943e-07
3.38071e-07
2.16656e-07
1.39507e-07
9.03795e-08
5.8946e-08
3.87022e-08
2.55682e-08
1.69834e-08
1.13331e-08
7.59182e-09
5.10218e-09
3.43895e-09
2.32455e-09
1.5766e-09
1.07419e-09
7.38128e-10
5.11377e-10
3.70762e-10
2.65207e-10
2.35301e-10
2.05854e-10
3.44703e-10
4.45501e-10
1.48659e-09
3.10507e-09
1.17766e-08
2.63484e-08
9.16059e-08
1.69432e-07
6.11108e-07
7.37713e-07
2.87514e-06
2.52137e-06
7.60749e-06
6.16119e-06
1.43272e-05
1.18995e-05
2.27483e-05
1.9882e-05
2.95677e-05
2.69042e-05
3.83062e-05
3.35823e-05
4.4198e-05
3.76057e-05
4.07268e-05
3.07524e-05
2.99326e-05
2.28814e-05
2.02233e-05
1.16196e-05
1.0479e-05
7.30286e-06
1.46653e-05
1.18038e-05
2.25053e-05
2.81176e-05
7.92697e-05
0.000180697
0.000616498
0.000593095
0.000534212
0.000484977
0.000469886
0.000412153
0.000286884
0.000266165
0.000309105
0.000324017
0.000313179
0.000300417
0.000290112
0.000263363
0.000183478
0.000115529
8.10716e-05
7.95802e-05
8.22877e-05
7.73598e-05
7.89743e-05
9.33186e-05
9.35538e-05
8.15874e-05
7.3145e-05
7.04428e-05
6.72128e-05
5.81048e-05
4.61575e-05
3.54223e-05
2.64896e-05
1.93757e-05
1.38761e-05
9.73299e-06
6.69126e-06
4.5153e-06
2.99714e-06
1.96213e-06
1.27086e-06
8.1713e-07
5.2339e-07
3.35087e-07
2.15059e-07
1.38675e-07
8.99689e-08
5.87606e-08
3.86301e-08
2.5548e-08
1.69837e-08
1.13394e-08
7.59826e-09
5.10701e-09
3.44205e-09
2.32632e-09
1.57742e-09
1.07451e-09
7.37863e-10
5.11467e-10
3.6912e-10
2.6731e-10
2.29453e-10
2.16794e-10
3.25404e-10
5.40832e-10
1.70189e-09
4.37306e-09
1.48325e-08
3.98302e-08
1.1996e-07
2.67911e-07
7.35547e-07
1.17077e-06
3.48853e-06
3.5815e-06
8.1731e-06
8.15259e-06
1.15718e-05
1.23753e-05
1.71396e-05
1.79515e-05
2.23356e-05
2.41432e-05
3.06004e-05
3.28058e-05
4.42936e-05
4.69136e-05
6.85973e-05
6.52534e-05
9.30029e-05
8.27318e-05
9.02126e-05
5.81949e-05
5.30391e-05
3.09177e-05
2.92255e-05
1.79734e-05
4.74502e-05
3.50865e-05
8.56903e-05
0.000155458
0.000551755
0.000523681
0.000508053
0.00046182
0.000444101
0.000438925
0.00040365
0.000380703
0.000369572
0.000339671
0.000311851
0.000290588
0.000258956
0.000178667
0.00011611
7.90294e-05
6.44472e-05
6.43859e-05
7.74012e-05
7.99196e-05
8.00864e-05
9.33279e-05
9.90528e-05
9.05208e-05
7.60862e-05
7.07506e-05
6.57629e-05
5.6387e-05
4.5379e-05
3.49612e-05
2.60656e-05
1.89169e-05
1.34189e-05
9.3354e-06
6.38625e-06
4.30428e-06
2.86301e-06
1.88273e-06
1.22667e-06
7.93855e-07
5.11737e-07
3.29526e-07
2.12529e-07
1.37582e-07
8.95256e-08
5.85976e-08
3.85811e-08
2.55412e-08
1.69898e-08
1.13474e-08
7.60475e-09
5.11138e-09
3.44464e-09
2.32767e-09
1.5779e-09
1.0746e-09
7.37301e-10
5.11588e-10
3.66778e-10
2.70405e-10
2.2229e-10
2.29451e-10
3.31203e-10
6.61504e-10
1.92815e-09
5.90208e-09
1.75711e-08
5.43364e-08
1.39503e-07
3.66457e-07
8.14887e-07
1.57801e-06
2.9735e-06
4.26235e-06
5.27827e-06
7.40131e-06
8.67045e-06
9.4548e-06
1.93686e-05
1.78355e-05
2.47795e-05
2.44661e-05
2.78563e-05
2.97673e-05
3.33202e-05
4.09193e-05
4.27468e-05
4.97001e-05
6.62272e-05
7.57476e-05
0.000125498
0.000116207
0.000175554
0.000121696
0.000112221
5.65386e-05
6.82326e-05
4.81262e-05
8.26132e-05
0.000130974
0.000462145
0.000430339
0.00043065
0.000416078
0.000381966
0.000390065
0.000392227
0.000386687
0.000366248
0.000312162
0.000271715
0.00021319
0.000150082
0.00010226
7.41665e-05
6.22419e-05
6.04196e-05
6.24438e-05
8.03613e-05
9.03182e-05
8.93226e-05
9.42532e-05
0.000101601
9.6919e-05
8.06488e-05
7.25425e-05
6.58176e-05
5.65997e-05
4.58523e-05
3.53622e-05
2.62576e-05
1.89255e-05
1.33116e-05
9.17227e-06
6.2122e-06
4.14905e-06
2.74116e-06
1.79647e-06
1.17074e-06
7.60299e-07
4.92979e-07
3.19715e-07
2.0772e-07
1.35375e-07
8.85836e-08
5.82289e-08
3.84536e-08
2.55067e-08
1.69866e-08
1.13523e-08
7.60991e-09
5.11498e-09
3.44665e-09
2.32854e-09
1.57798e-09
1.07439e-09
7.36383e-10
5.11657e-10
3.63835e-10
2.7348e-10
2.17653e-10
2.38995e-10
3.42926e-10
8.25009e-10
2.27971e-09
7.88986e-09
2.20575e-08
7.33601e-08
1.72636e-07
4.88809e-07
9.25738e-07
1.94925e-06
2.71694e-06
4.38425e-06
4.71768e-06
5.73545e-06
1.15547e-05
1.11926e-05
2.0878e-05
1.95928e-05
2.22597e-05
2.40546e-05
2.64865e-05
2.89026e-05
3.06668e-05
3.91955e-05
4.00759e-05
4.74631e-05
5.01432e-05
5.84222e-05
7.96669e-05
9.57605e-05
0.000181739
0.000168686
0.000300379
0.000212006
0.000237293
0.000120426
0.000111572
0.000123179
0.0003273
0.000312011
0.000324188
0.0003258
0.000303492
0.000302738
0.000329726
0.000328229
0.000297626
0.000245046
0.000189401
0.000131076
8.72056e-05
6.31486e-05
5.55817e-05
5.78605e-05
6.41483e-05
7.47858e-05
9.6856e-05
0.00010918
0.000107372
0.000103999
0.000104028
0.000100811
8.69718e-05
7.70924e-05
6.90707e-05
5.93368e-05
4.81677e-05
3.70972e-05
2.73838e-05
1.95626e-05
1.36221e-05
9.29247e-06
6.23414e-06
4.12706e-06
2.70475e-06
1.76036e-06
1.14121e-06
7.389e-07
4.78865e-07
3.11137e-07
2.02883e-07
1.32836e-07
8.73421e-08
5.7665e-08
3.82179e-08
2.54181e-08
1.69584e-08
1.13462e-08
7.61048e-09
5.11666e-09
3.44783e-09
2.32902e-09
1.57782e-09
1.07403e-09
7.35268e-10
5.11821e-10
3.60172e-10
2.77784e-10
2.11281e-10
2.52489e-10
3.5456e-10
1.05615e-09
2.75535e-09
1.06467e-08
2.88158e-08
9.84141e-08
2.21344e-07
6.29462e-07
1.04163e-06
2.62852e-06
2.64801e-06
4.33161e-06
4.98582e-06
5.97521e-06
1.07949e-05
1.17341e-05
1.16179e-05
1.6525e-05
1.52633e-05
2.07904e-05
1.97425e-05
2.55028e-05
2.4375e-05
3.26376e-05
3.10285e-05
4.12509e-05
4.30061e-05
5.52575e-05
5.84991e-05
8.30011e-05
0.00010036
0.000129147
0.000198992
0.000206264
0.000243024
0.000216044
0.000208153
0.000143419
0.000185186
0.00018033
0.000202792
0.000218237
0.00019883
0.000194429
0.000217476
0.000216201
0.000187156
0.000139702
0.000104178
7.29344e-05
5.30142e-05
5.01331e-05
5.2167e-05
5.9846e-05
8.29897e-05
0.000110112
0.000127945
0.000133888
0.000131644
0.00011946
0.000110532
0.000101506
9.24947e-05
8.49741e-05
7.58732e-05
6.4359e-05
5.17252e-05
3.95183e-05
2.89069e-05
2.04357e-05
1.40821e-05
9.51756e-06
6.33586e-06
4.1679e-06
2.71728e-06
1.76085e-06
1.13747e-06
7.34443e-07
4.75076e-07
3.08379e-07
2.01074e-07
1.31746e-07
8.67329e-08
5.7349e-08
3.80662e-08
2.53514e-08
1.69322e-08
1.13375e-08
7.6084e-09
5.11656e-09
3.44797e-09
2.32891e-09
1.57732e-09
1.07346e-09
7.33987e-10
5.11911e-10
3.56153e-10
2.82433e-10
2.03274e-10
2.83504e-10
3.56385e-10
1.25297e-09
2.98293e-09
1.21571e-08
3.15136e-08
1.01859e-07
2.25416e-07
5.71088e-07
8.99956e-07
2.26333e-06
1.94611e-06
3.86927e-06
4.21315e-06
5.54408e-06
7.4066e-06
1.0935e-05
9.88966e-06
1.29419e-05
1.21706e-05
1.66312e-05
1.6143e-05
2.05475e-05
2.08625e-05
2.60541e-05
2.5894e-05
3.22254e-05
3.63816e-05
4.36272e-05
5.57975e-05
6.86197e-05
0.000131337
0.000129623
0.00021811
0.000209668
0.000241974
0.00022932
0.000229041
0.000187546
7.93112e-05
8.0486e-05
0.000105672
0.000118915
0.00010276
9.3033e-05
0.000109865
0.000111675
9.7527e-05
6.83729e-05
5.18449e-05
4.25412e-05
4.30662e-05
4.90332e-05
6.75771e-05
8.31472e-05
0.000120837
0.000153321
0.000159766
0.000158487
0.00015468
0.000139751
0.000117422
0.000103234
9.70964e-05
9.35309e-05
8.53759e-05
7.08759e-05
5.56017e-05
4.1664e-05
3.00225e-05
2.09624e-05
1.42928e-05
9.57673e-06
6.3354e-06
4.15212e-06
2.70307e-06
1.75201e-06
1.13303e-06
7.32587e-07
4.74454e-07
3.0824e-07
2.01084e-07
1.31784e-07
8.67655e-08
5.73723e-08
3.80824e-08
2.53626e-08
1.694e-08
1.13426e-08
7.61151e-09
5.11819e-09
3.44855e-09
2.32881e-09
1.57674e-09
1.07275e-09
7.32697e-10
5.1169e-10
3.52602e-10
2.85672e-10
1.95813e-10
3.08293e-10
3.40415e-10
1.38481e-09
3.06838e-09
1.27141e-08
3.24648e-08
9.84921e-08
2.26347e-07
4.93182e-07
8.42046e-07
1.69932e-06
1.55892e-06
3.02463e-06
3.26377e-06
5.26625e-06
5.94373e-06
9.72724e-06
8.71065e-06
1.06818e-05
1.01016e-05
1.34851e-05
1.37493e-05
1.73428e-05
1.6962e-05
2.12251e-05
2.15256e-05
2.67504e-05
2.79906e-05
3.64032e-05
3.75104e-05
5.25063e-05
5.91133e-05
0.000109468
0.000119307
0.000178214
0.0002333
0.000229559
0.000232099
0.00020583
2.44689e-05
2.6141e-05
4.05631e-05
4.51749e-05
3.71281e-05
3.03451e-05
4.11667e-05
4.65515e-05
4.09893e-05
3.29661e-05
3.26494e-05
3.53027e-05
4.43386e-05
6.93246e-05
0.000111485
0.00013266
0.00017174
0.000196699
0.000195569
0.000186812
0.000173812
0.000151871
0.000126414
0.000109014
0.000102485
9.96542e-05
9.35226e-05
7.68662e-05
5.85996e-05
4.26689e-05
2.99895e-05
2.04702e-05
1.36437e-05
8.94223e-06
5.80366e-06
3.75276e-06
2.42875e-06
1.57763e-06
1.02965e-06
6.75117e-07
4.44376e-07
2.93377e-07
1.94135e-07
1.28709e-07
8.54795e-08
5.68668e-08
3.78981e-08
2.53023e-08
1.69237e-08
1.13401e-08
7.61238e-09
5.11917e-09
3.44893e-09
2.32862e-09
1.57613e-09
1.07196e-09
7.31543e-10
5.11025e-10
3.50141e-10
2.86442e-10
1.90365e-10
3.12238e-10
3.16548e-10
1.41599e-09
3.00795e-09
1.2591e-08
3.20778e-08
9.567e-08
2.23936e-07
4.5431e-07
8.18128e-07
1.28484e-06
1.39655e-06
2.07078e-06
2.59569e-06
4.90603e-06
4.79518e-06
7.80912e-06
7.74749e-06
9.23321e-06
9.00694e-06
1.17403e-05
1.25964e-05
1.53324e-05
1.58299e-05
1.84021e-05
1.99691e-05
2.41957e-05
2.50187e-05
3.13309e-05
3.30947e-05
4.44108e-05
4.43161e-05
8.51206e-05
7.64938e-05
0.000141038
0.000136422
0.000200973
0.00024619
0.00022698
7.86276e-06
8.06174e-06
1.02427e-05
1.36183e-05
1.19452e-05
1.14417e-05
1.51598e-05
2.09161e-05
2.40917e-05
3.07176e-05
3.68574e-05
4.74075e-05
6.86755e-05
0.000108599
0.000164707
0.000202668
0.000232537
0.000243737
0.000239299
0.000223526
0.000198932
0.00016613
0.000134353
0.00011407
0.000106656
0.000104784
0.00010165
8.71245e-05
6.25698e-05
4.3028e-05
2.89772e-05
1.92462e-05
1.26604e-05
8.27473e-06
5.38995e-06
3.50852e-06
2.28754e-06
1.49637e-06
9.82896e-07
6.48335e-07
4.29224e-07
2.84984e-07
1.89614e-07
1.26351e-07
8.42928e-08
5.62914e-08
3.76298e-08
2.51822e-08
1.68721e-08
1.13188e-08
7.60379e-09
5.11559e-09
3.44717e-09
2.32744e-09
1.57509e-09
1.07092e-09
7.30516e-10
5.09897e-10
3.49119e-10
2.84602e-10
1.87923e-10
3.00104e-10
2.96935e-10
1.31363e-09
2.80197e-09
1.17584e-08
3.03752e-08
9.32857e-08
2.17693e-07
4.6547e-07
8.50606e-07
1.20895e-06
1.89706e-06
1.85518e-06
2.34831e-06
3.68184e-06
4.52486e-06
6.26805e-06
7.65742e-06
7.95347e-06
8.45429e-06
1.01518e-05
1.24626e-05
1.31431e-05
1.65987e-05
1.70833e-05
1.97683e-05
2.15424e-05
2.44305e-05
2.88427e-05
3.17014e-05
4.0967e-05
3.9127e-05
6.78585e-05
6.05015e-05
0.000114646
0.000106733
0.00015935
0.000192423
0.00021535
7.84559e-06
8.60137e-06
8.34164e-06
1.08711e-05
1.20425e-05
1.4599e-05
1.73603e-05
2.31031e-05
3.72011e-05
5.948e-05
7.08993e-05
8.71043e-05
0.000115362
0.00016482
0.000230228
0.000279141
0.000294202
0.000293886
0.000283757
0.000258991
0.000228738
0.000186931
0.000146614
0.000127132
0.000126379
0.000125813
0.000112394
8.51953e-05
6.19612e-05
4.43527e-05
3.13196e-05
2.16902e-05
1.46677e-05
9.69625e-06
6.29927e-06
4.04881e-06
2.59085e-06
1.65894e-06
1.06661e-06
6.89924e-07
4.4921e-07
2.94292e-07
1.93822e-07
1.282e-07
8.50847e-08
5.66229e-08
3.77665e-08
2.52384e-08
1.68959e-08
1.13298e-08
7.60978e-09
5.11996e-09
3.45149e-09
2.33268e-09
1.58218e-09
1.08084e-09
7.44661e-10
5.29722e-10
3.7797e-10
3.18709e-10
2.41312e-10
3.36169e-10
3.48283e-10
1.1426e-09
2.53751e-09
1.01876e-08
2.75447e-08
8.62913e-08
2.07444e-07
4.83371e-07
8.90655e-07
1.44447e-06
2.27223e-06
2.21297e-06
3.3326e-06
3.3539e-06
6.10882e-06
5.79457e-06
8.42283e-06
8.50631e-06
1.02584e-05
1.03302e-05
1.47596e-05
1.34434e-05
1.91293e-05
1.77446e-05
2.29033e-05
2.18003e-05
2.89553e-05
2.90675e-05
3.15765e-05
3.6619e-05
3.73213e-05
5.63316e-05
5.27686e-05
9.32595e-05
8.90045e-05
0.000134125
0.000140995
0.00018008
2.63856e-05
2.52828e-05
2.51731e-05
2.57835e-05
3.85711e-05
4.27838e-05
4.11619e-05
4.44258e-05
6.20712e-05
0.000108648
0.000130881
0.00015108
0.000184333
0.000244955
0.000308957
0.000337657
0.000342979
0.000336085
0.000314436
0.000270704
0.000224227
0.00018115
0.00015881
0.000153457
0.000144975
0.000126898
0.00010131
7.56355e-05
5.52828e-05
3.95669e-05
2.7649e-05
1.88449e-05
1.25672e-05
8.25165e-06
5.3729e-06
3.49108e-06
2.27356e-06
1.4875e-06
9.78268e-07
6.46359e-07
4.28606e-07
2.84944e-07
1.89773e-07
1.26553e-07
8.44901e-08
5.64779e-08
3.78141e-08
2.53773e-08
1.70938e-08
1.15864e-08
7.94133e-09
5.55325e-09
4.0198e-09
3.0687e-09
2.50625e-09
2.19213e-09
2.01971e-09
1.93704e-09
1.87917e-09
1.87487e-09
1.85421e-09
1.92424e-09
1.96107e-09
2.47281e-09
3.70079e-09
9.35197e-09
2.43889e-08
7.06722e-08
1.78577e-07
4.1309e-07
8.1704e-07
1.42742e-06
2.19129e-06
2.65805e-06
4.27616e-06
3.54473e-06
8.74246e-06
6.54673e-06
1.11229e-05
1.03022e-05
1.34927e-05
1.15124e-05
2.01325e-05
1.54245e-05
2.56063e-05
2.06242e-05
2.94352e-05
2.37732e-05
3.60278e-05
3.1065e-05
3.88184e-05
3.69047e-05
4.04045e-05
4.98827e-05
5.0115e-05
7.9357e-05
7.73263e-05
0.000114375
0.000119467
0.000153121
9.06692e-05
8.92485e-05
8.24816e-05
8.32659e-05
0.000102607
0.0001078
0.000100318
0.000102909
0.000125267
0.000179658
0.000207614
0.000230261
0.000269984
0.00034168
0.00037488
0.000373461
0.000365279
0.000348079
0.000318546
0.000271983
0.000222712
0.000185981
0.000172889
0.000161179
0.00014297
0.0001181
9.3165e-05
7.17769e-05
5.42795e-05
4.01935e-05
2.91141e-05
2.05975e-05
1.42418e-05
9.64573e-06
6.42017e-06
4.21618e-06
2.74393e-06
1.77725e-06
1.14986e-06
7.45516e-07
4.85674e-07
3.18645e-07
2.11071e-07
1.41679e-07
9.69692e-08
6.83614e-08
5.03432e-08
3.92758e-08
3.2668e-08
2.87953e-08
2.65173e-08
2.51385e-08
2.42639e-08
2.36792e-08
2.32654e-08
2.2965e-08
2.27307e-08
2.25677e-08
2.24066e-08
2.23468e-08
2.2205e-08
2.22174e-08
2.21789e-08
2.28358e-08
2.35873e-08
3.09514e-08
4.168e-08
8.25859e-08
1.66205e-07
3.38408e-07
6.75792e-07
1.1515e-06
1.87979e-06
2.77386e-06
5.52294e-06
4.58028e-06
1.36982e-05
9.03094e-06
1.70032e-05
1.45521e-05
1.92283e-05
1.56107e-05
2.89964e-05
1.99769e-05
3.44056e-05
2.68286e-05
3.94195e-05
2.86509e-05
4.61532e-05
3.63167e-05
4.74621e-05
3.96091e-05
5.10247e-05
5.0799e-05
5.23315e-05
7.08368e-05
6.96668e-05
9.87609e-05
0.00010177
0.000125492
0.000205601
0.000203567
0.000188117
0.000185316
0.000200282
0.000204752
0.000196677
0.000199285
0.000225074
0.000260341
0.000278946
0.000307356
0.00036755
0.000398691
0.000398435
0.000385309
0.00036913
0.000340507
0.000315637
0.000284183
0.000245899
0.000216073
0.000187916
0.000161543
0.000136395
0.000112537
9.07627e-05
7.15829e-05
5.52298e-05
4.17128e-05
3.07957e-05
2.22542e-05
1.57759e-05
1.10015e-05
7.57206e-06
5.16307e-06
3.50337e-06
2.37965e-06
1.63104e-06
1.13998e-06
8.23019e-07
6.21824e-07
4.95909e-07
4.17518e-07
3.68232e-07
3.3644e-07
3.15205e-07
3.00487e-07
2.89932e-07
2.82148e-07
2.76278e-07
2.71779e-07
2.68281e-07
2.65532e-07
2.63328e-07
2.61572e-07
2.60095e-07
2.58979e-07
2.57831e-07
2.57261e-07
2.56121e-07
2.55863e-07
2.54644e-07
2.57127e-07
2.54546e-07
2.9312e-07
2.80739e-07
4.27551e-07
4.38686e-07
7.25652e-07
9.28769e-07
1.20092e-06
2.14632e-06
2.98198e-06
8.31429e-06
7.17025e-06
2.21023e-05
1.39078e-05
2.69459e-05
2.23098e-05
2.76588e-05
2.36411e-05
4.19946e-05
2.80805e-05
4.82692e-05
3.78814e-05
5.33598e-05
3.78219e-05
6.13272e-05
4.65514e-05
6.14084e-05
4.76548e-05
6.28801e-05
5.63775e-05
5.94257e-05
6.97786e-05
6.84371e-05
8.34455e-05
8.52857e-05
0.000102548
0.000348771
0.000337753
0.000311808
0.00030539
0.000306241
0.000299486
0.000295328
0.000301166
0.000322413
0.000334302
0.000347041
0.000380154
0.000408252
0.000411042
0.00040238
0.00037368
0.000350338
0.000326591
0.000306335
0.000287198
0.00025994
0.000225587
0.000190218
0.000159722
0.000133509
0.000110523
9.01698e-05
7.24604e-05
5.75459e-05
4.5228e-05
3.5236e-05
2.72375e-05
2.09164e-05
1.60035e-05
1.22661e-05
9.49326e-06
7.48931e-06
6.07549e-06
5.09575e-06
4.42216e-06
3.95729e-06
3.63203e-06
3.39986e-06
3.23065e-06
3.10488e-06
3.00977e-06
2.93696e-06
2.88061e-06
2.83659e-06
2.80192e-06
2.77441e-06
2.75243e-06
2.73471e-06
2.72032e-06
2.70837e-06
2.69852e-06
2.68978e-06
2.68294e-06
2.67518e-06
2.67125e-06
2.66251e-06
2.66004e-06
2.64929e-06
2.65258e-06
2.63347e-06
2.75871e-06
2.6615e-06
3.13326e-06
2.91326e-06
3.82436e-06
3.64499e-06
3.79724e-06
5.92505e-06
5.52695e-06
1.5975e-05
1.33032e-05
3.67719e-05
2.31872e-05
4.45993e-05
3.65387e-05
4.42876e-05
3.79191e-05
6.23285e-05
4.10844e-05
6.84877e-05
5.51314e-05
7.29744e-05
5.2541e-05
8.20929e-05
6.37494e-05
8.02288e-05
6.22168e-05
8.12233e-05
6.8822e-05
7.54805e-05
7.4356e-05
7.14585e-05
7.6891e-05
7.90213e-05
8.99712e-05
0.00047895
0.00044985
0.000419012
0.000406798
0.0003939
0.000376007
0.000369935
0.000372022
0.000384296
0.00039422
0.000398173
0.000408221
0.000416523
0.00040869
0.000376939
0.000343234
0.000320217
0.000302848
0.000290511
0.000279392
0.000255674
0.000222395
0.000188077
0.000157845
0.00013254
0.000110858
9.25968e-05
7.7935e-05
6.64507e-05
5.74538e-05
5.02543e-05
4.43757e-05
3.95432e-05
3.55907e-05
3.23926e-05
2.98346e-05
2.78079e-05
2.62116e-05
2.49574e-05
2.39714e-05
2.31946e-05
2.2581e-05
2.20946e-05
2.17081e-05
2.14003e-05
2.11542e-05
2.09572e-05
2.07991e-05
2.06717e-05
2.05687e-05
2.04847e-05
2.04159e-05
2.03588e-05
2.03109e-05
2.02696e-05
2.02339e-05
2.02001e-05
2.01723e-05
2.01377e-05
2.01186e-05
2.0075e-05
2.006e-05
2.00028e-05
2.00018e-05
1.99067e-05
2.00209e-05
1.97913e-05
2.0368e-05
1.98535e-05
2.1062e-05
2.05259e-05
2.06432e-05
2.38142e-05
2.09804e-05
3.68532e-05
3.04633e-05
6.43845e-05
4.25248e-05
7.69336e-05
6.17423e-05
7.41306e-05
6.35449e-05
9.15716e-05
6.32492e-05
9.86897e-05
7.96713e-05
9.80927e-05
7.55628e-05
0.000110519
8.82732e-05
0.000104844
8.29061e-05
0.000106885
9.20271e-05
9.73343e-05
8.6742e-05
8.14611e-05
8.046e-05
8.17474e-05
8.95493e-05
0.000579826
0.000532065
0.000492372
0.000471152
0.000446085
0.000421435
0.000416414
0.000419117
0.000419918
0.000419445
0.000417686
0.000415475
0.000404708
0.000364731
0.000314309
0.000294664
0.000284253
0.000273194
0.000264102
0.000256157
0.000237586
0.00020942
0.000181024
0.000156128
0.000135037
0.000119395
0.000109892
0.000105187
0.000102964
0.000101451
9.98999e-05
9.81857e-05
9.63875e-05
9.46015e-05
9.29022e-05
9.13361e-05
8.99308e-05
8.86995e-05
8.76417e-05
8.67469e-05
8.59989e-05
8.53797e-05
8.48702e-05
8.44528e-05
8.41123e-05
8.38347e-05
8.36087e-05
8.3424e-05
8.32728e-05
8.31481e-05
8.30442e-05
8.29564e-05
8.28807e-05
8.28139e-05
8.27524e-05
8.26958e-05
8.26372e-05
8.25849e-05
8.25154e-05
8.24721e-05
8.23731e-05
8.2335e-05
8.21959e-05
8.21881e-05
8.1954e-05
8.20641e-05
8.16071e-05
8.207e-05
8.11568e-05
8.2316e-05
8.13461e-05
8.21832e-05
8.46372e-05
8.0176e-05
9.38592e-05
7.96106e-05
0.000121027
9.33044e-05
0.000136929
0.000107353
0.00013043
0.000111757
0.00013837
0.000106528
0.000144185
0.00011594
0.00013591
0.00011414
0.000151798
0.000120256
0.000139816
0.000115817
0.000146047
0.000124088
0.00012928
0.000110356
0.00010411
9.76446e-05
0.000103431
0.000104463
0.000644529
0.000573977
0.000527413
0.00049627
0.000470603
0.000452442
0.000445933
0.000443514
0.00043632
0.000428059
0.000416297
0.000385226
0.000323358
0.000277124
0.000258147
0.000250975
0.000243972
0.000236995
0.000231237
0.000226404
0.000216279
0.000200515
0.000182573
0.00016924
0.000165131
0.000166802
0.000174298
0.000182537
0.00018798
0.000191112
0.000192686
0.000193295
0.000193364
0.000193062
0.000192551
0.00019201
0.000191473
0.000190973
0.000190529
0.000190146
0.000189822
0.000189553
0.000189331
0.00018915
0.000189003
0.000188884
0.000188787
0.000188708
0.000188643
0.000188588
0.000188541
0.0001885
0.000188463
0.000188427
0.000188391
0.000188355
0.000188315
0.000188277
0.000188223
0.000188188
0.000188103
0.000188076
0.000187946
0.000187964
0.000187725
0.000187964
0.000187326
0.000188344
0.000186605
0.000189674
0.00018574
0.000192806
0.000186767
0.000195637
0.000193875
0.000184285
0.00020717
0.000175532
0.000232231
0.000185572
0.00021644
0.00018809
0.00020402
0.000172877
0.000209269
0.000171193
0.00019762
0.000170948
0.000212357
0.000170291
0.000200572
0.000172864
0.000211258
0.000177421
0.000189224
0.000162177
0.000160673
0.000158825
0.000171506
0.000171499
0.00065721
0.000575592
0.000530212
0.00050214
0.000484452
0.000472429
0.000463188
0.000451404
0.000429296
0.000393408
0.000337095
0.000265597
0.000221365
0.000223072
0.000233845
0.000236481
0.000231205
0.000224326
0.000220832
0.000222154
0.000221946
0.00022109
0.000224848
0.000234195
0.000245784
0.000256688
0.000265363
0.00027131
0.000275359
0.000278114
0.000280008
0.000281325
0.000282243
0.000282888
0.000283344
0.000283671
0.000283912
0.000284093
0.000284233
0.000284345
0.000284436
0.000284512
0.000284577
0.000284632
0.000284679
0.000284721
0.000284758
0.00028479
0.000284819
0.000284844
0.000284868
0.00028489
0.00028491
0.000284931
0.000284951
0.000284972
0.000284993
0.000285019
0.000285043
0.000285081
0.000285104
0.000285173
0.000285184
0.000285336
0.000285247
0.000285698
0.000285097
0.000286695
0.000284114
0.000289518
0.000281213
0.000296903
0.000276784
0.000312021
0.000275919
0.000329247
0.000285559
0.000316009
0.000310853
0.000287818
0.000303644
0.000300328
0.000296373
0.000295459
0.000313247
0.000283597
0.00031239
0.000294852
0.000326583
0.000283626
0.000328617
0.000300809
0.000346716
0.000306281
0.000336441
0.000319654
0.000333521
0.000363018
0.000415493
0.000428143
0.000539457
0.000491102
0.000472128
0.000460409
0.00044619
0.000425229
0.000396069
0.000351974
0.000291134
0.000221257
0.000160057
0.000133564
0.000153592
0.00020162
0.000256973
0.000303509
0.000325195
0.000323959
0.000293193
0.000250231
0.000216958
0.000199599
0.00019829
0.00021084
0.000227937
0.000244414
0.000258048
0.000268522
0.000276431
0.000282474
0.000287193
0.000290944
0.000293953
0.000296381
0.00029835
0.000299951
0.000301259
0.00030233
0.00030321
0.000303933
0.000304529
0.000305021
0.000305428
0.000305766
0.000306047
0.000306284
0.000306483
0.000306654
0.000306803
0.000306934
0.000307054
0.000307167
0.000307276
0.000307385
0.000307498
0.000307618
0.000307749
0.000307894
0.000308057
0.000308245
0.000308449
0.000308709
0.000308938
0.000309347
0.000309488
0.000310288
0.000309885
0.000311893
0.000309182
0.000315714
0.000305231
0.000325459
0.000295608
0.000345658
0.000282559
0.000378597
0.000276175
0.000435286
0.00029783
0.00049095
0.000350701
0.000509817
0.000380797
0.000533061
0.000405652
0.000536606
0.000446029
0.000554882
0.000463467
0.000543136
0.000512862
0.000581385
0.00055555
0.000585119
0.000604159
0.000676553
0.000720037
0.000840415
0.000842623
0.000890453
8.37057e-05
0.000125346
0.000160797
0.000182805
0.000196703
0.000222905
0.000348548
0.00058824
0.000772047
0.000864159
0.000880688
0.000768918
0.000658109
0.000511848
0.000353849
0.000257562
0.000188557
0.00015369
0.000147235
0.000167542
0.000200236
0.000235801
0.000267572
0.000292355
0.000309827
0.000320748
0.000326438
0.000328215
0.000327983
0.000326502
0.000324266
0.000321957
0.000319742
0.000317731
0.000315968
0.000314456
0.000313179
0.00031211
0.00031122
0.000310484
0.000309875
0.000309371
0.000308955
0.00030861
0.000308324
0.000308084
0.000307881
0.000307708
0.000307557
0.000307424
0.000307301
0.000307186
0.000307073
0.000306959
0.000306838
0.000306708
0.000306561
0.000306395
0.000306201
0.000305973
0.000305702
0.000305376
0.000304986
0.000304512
0.000303941
0.000303246
0.000302408
0.000301394
0.000300182
0.000298736
0.000297036
0.000295054
0.000292772
0.000290186
0.00028727
0.000284034
0.000280434
0.000276457
0.000272029
0.000267075
0.000261496
0.000255156
0.00024789
0.000239564
0.000229903
0.000218837
0.000206014
0.000191514
0.000175083
0.000157355
0.000138742
0.000121592
0.000107724
0.000101636
0.00010101
0.00010243
9.9275e-05
8.79395e-05
6.57944e-05
3.94248e-05
0.00010798
0.000150038
0.00019705
0.000258609
0.000342508
0.000461745
0.00056456
0.000596448
0.000597839
0.000503239
0.00034058
0.000239064
0.000200146
0.000176489
0.000150765
0.000131526
0.000124674
0.000115421
0.00011051
0.000110999
0.000119041
0.000136668
0.000160138
0.000185816
0.000210225
0.000231218
0.000247938
0.000260354
0.000269012
0.000274899
0.00027883
0.000281362
0.000282958
0.00028395
0.000284558
0.000284919
0.000285126
0.000285234
0.000285282
0.000285292
0.000285281
0.00028526
0.000285231
0.000285199
0.000285168
0.000285138
0.000285109
0.000285082
0.000285058
0.000285035
0.000285013
0.000284993
0.000284973
0.000284954
0.000284934
0.000284914
0.000284892
0.000284869
0.000284843
0.000284813
0.00028478
0.000284739
0.000284693
0.000284636
0.00028457
0.000284487
0.000284386
0.000284257
0.000284096
0.000283888
0.000283622
0.000283287
0.000282857
0.000282333
0.000281677
0.000280906
0.000279968
0.000278901
0.000277654
0.000276292
0.000274669
0.000272961
0.000270816
0.000268685
0.000265796
0.000263097
0.000259101
0.000255638
0.000249894
0.000245297
0.000236761
0.000230017
0.000217182
0.0002058
0.000185994
0.000167067
0.000142143
0.000115996
9.15385e-05
5.6871e-05
0.0001177
0.000163861
0.000222475
0.000290935
0.000375338
0.000461158
0.000500076
0.00042114
0.000306088
0.000234382
0.000191177
0.00018247
0.000177316
0.000176158
0.000164424
0.00014496
0.000131488
0.000116964
0.000104963
9.39852e-05
8.46737e-05
7.73251e-05
7.31557e-05
7.35584e-05
7.86362e-05
9.24865e-05
0.000109057
0.000124574
0.000138812
0.000150639
0.000159767
0.000166788
0.000172145
0.000176185
0.000179214
0.000181481
0.000183178
0.000184452
0.000185412
0.000186139
0.000186691
0.000187113
0.000187437
0.000187686
0.00018788
0.000188031
0.000188149
0.000188243
0.000188319
0.000188381
0.000188433
0.000188478
0.00018852
0.000188558
0.000188597
0.000188638
0.000188683