/*--------------------------------*- C++ -*----------------------------------*\
| =========                 |                                                 |
| \\      /  F ield         | OpenFOAM: The Open Source CFD Toolbox           |
|  \\    /   O peration     | Version:  2.4.0                                 |
|   \\  /    A nd           | Web:      www.OpenFOAM.org                      |
|    \\/     M anipulation  |                                                 |
\*---------------------------------------------------------------------------*/
FoamFile
{
    version     2.0;
    format      ascii;
    class       volScalarField;
    location    "0.063";
    object      k_0;
}
// * * * * * * * * * * * * * * * * * * * * * * * * * * * * * * * * * * * * * //

dimensions      [0 2 -2 0 0 0 0];

internalField   nonuniform List<scalar> 
4400
(
9.52157
8.51399
6.48909
5.33108
4.61708
4.24899
4.07256
3.85633
3.81338
3.88939
4.3941
6.78823
6.72403
6.32599
5.67651
5.23864
5.02554
4.70127
4.59836
4.75095
1.14947
3.1869
4.19357
4.55236
4.47436
4.26297
4.16544
3.93709
3.81241
3.78591
0.160232
0.957682
1.68462
2.32481
2.67266
2.7757
2.87232
2.84907
2.77808
2.69918
0.0168236
0.166387
0.395446
0.749569
1.08814
1.3004
1.52199
1.66743
1.66783
1.64143
0.00142526
0.018379
0.052603
0.121838
0.260301
0.363239
0.511304
0.685691
0.729039
0.724568
0.00013592
0.00169521
0.00454605
0.0112066
0.0327832
0.0515815
0.082311
0.166512
0.192386
0.195176
3.96198e-05
0.000292679
0.000454472
0.000836886
0.00253748
0.00363892
0.00623024
0.0207726
0.02518
0.0253142
3.28564e-05
0.000156605
0.000198693
0.000223486
0.000336327
0.000332441
0.000441343
0.0015963
0.00167005
0.00177575
3.36244e-05
0.000127777
0.000172698
0.000212459
0.000221377
0.00022012
0.000221209
0.000275175
0.000308343
0.000369335
3.38269e-05
0.000110276
0.000174763
0.000223028
0.000224775
0.000220197
0.000226181
0.000238094
0.00032275
0.000745487
3.40311e-05
0.000112162
0.000228478
0.000264255
0.00029869
0.000413306
0.000583633
0.00092156
0.00244011
0.00825942
3.99202e-05
0.000243284
0.000461669
0.000897305
0.00186553
0.00484666
0.00848897
0.0155699
0.0318561
0.0844183
0.000137396
0.00153259
0.00474056
0.0117817
0.0270601
0.064833
0.0946778
0.157071
0.227845
0.421607
0.00148071
0.017033
0.0582006
0.123085
0.24918
0.411188
0.516872
0.692329
0.828385
1.13737
0.0173619
0.150285
0.430285
0.728369
1.10106
1.34824
1.52968
1.69831
1.8236
2.06205
0.164585
0.937073
1.7298
2.2964
2.69701
2.79942
2.88054
2.88525
2.91461
2.97468
1.17503
3.15648
4.231
4.52224
4.48377
4.26618
4.14804
3.93677
3.86999
3.7413
4.41028
6.76342
6.74118
6.28318
5.71929
5.17826
4.95847
4.60469
4.44615
4.08618
9.53414
8.49336
6.51205
5.2812
4.6376
4.16735
3.9688
3.64811
3.44772
2.93457
2.46744
1.47266
1.02555
0.68013
0.478185
0.472312
0.523877
0.674863
0.815625
0.774607
0.603062
0.432633
0.235165
0.243307
0.470403
0.596949
0.54523
0.342097
0.238286
0.18647
0.17065
0.152309
0.148142
0.154742
0.192829
0.194475
0.172073
0.18252
0.350938
0.555935
0.539519
0.395432
0.242089
0.179686
0.151629
0.139172
0.134526
0.133044
0.127934
0.128108
0.134512
0.148524
0.147609
0.135805
0.131286
0.135874
0.154508
0.178505
0.178157
0.172638
0.153417
0.133495
0.108146
0.0946556
0.0726386
0.0578285
0.0434773
0.0339285
0.02587
0.0197489
0.0147411
0.01109
0.00813845
0.00614647
0.00458719
0.00361603
0.00298501
0.00252308
0.0023548
0.00215065
0.00215169
0.00211311
0.00217457
0.00217655
0.00235622
0.00240092
0.00267988
0.00271217
0.00301092
0.00295073
0.00326047
0.00317488
0.00343291
0.00347091
0.00369602
0.00392102
0.00464532
0.00481872
0.00487657
0.00475656
0.00417938
0.00260612
0.00147629
0.000531862
0.000593379
0.000610559
0.00176351
0.00357669
0.042516
0.394927
3.73328
2.69928
2.09212
1.72541
1.37933
1.14968
1.10139
1.04905
0.942433
0.799763
0.480431
0.314755
0.163902
0.1475
0.258105
0.510575
0.523147
0.465173
0.299093
0.214638
0.182573
0.163952
0.163001
0.179429
0.212908
0.199598
0.171439
0.205356
0.455318
0.611488
0.551617
0.355606
0.221994
0.169807
0.147458
0.137631
0.134404
0.133185
0.128347
0.12558
0.127915
0.139951
0.144286
0.138061
0.130376
0.132196
0.139392
0.157646
0.161997
0.157686
0.142111
0.128402
0.106666
0.0929294
0.0720731
0.056407
0.042136
0.0333023
0.0242139
0.0194413
0.0134409
0.0108059
0.00727452
0.00595362
0.00411418
0.00346707
0.00267086
0.00245215
0.00208557
0.00206859
0.00202354
0.00203614
0.00204
0.00210317
0.00230433
0.00238746
0.00267219
0.00276649
0.00321262
0.00329544
0.00396058
0.0039843
0.00470011
0.0044742
0.00537181
0.00504486
0.00589179
0.00577024
0.00661403
0.00617824
0.00692009
0.00522019
0.00457912
0.00195517
0.00188912
0.00112431
0.00419105
0.00422818
0.0364976
0.273046
3.26266
2.75053
2.21448
1.9263
1.70828
1.40657
1.22464
1.10679
0.914029
0.662533
0.371644
0.194658
0.095881
0.0737999
0.108078
0.286422
0.454117
0.461395
0.41478
0.288241
0.216828
0.191602
0.192858
0.2223
0.228145
0.190598
0.176214
0.251413
0.574935
0.653336
0.531138
0.310978
0.201242
0.16036
0.14555
0.136621
0.135021
0.133867
0.129294
0.12532
0.126442
0.134571
0.141229
0.139264
0.131043
0.131527
0.135976
0.143492
0.149099
0.145808
0.134466
0.124129
0.106219
0.0925019
0.068207
0.0560399
0.0377628
0.031936
0.0221473
0.0180733
0.0122412
0.0101095
0.00624841
0.00539321
0.00345702
0.00307366
0.00218259
0.00215016
0.00182012
0.00189726
0.00176587
0.00186018
0.0018069
0.00199335
0.00202589
0.00226639
0.00233843
0.00266011
0.00284481
0.00310934
0.00374399
0.00394948
0.00506332
0.00512176
0.00736706
0.00716824
0.0115538
0.010079
0.0158777
0.0123469
0.0174132
0.0118175
0.0125997
0.00663865
0.00671567
0.00330366
0.0112286
0.00661718
0.0370752
0.180161
2.35639
2.09484
1.83121
1.56387
1.40796
1.22191
1.00806
0.859373
0.654472
0.385364
0.176291
0.0859652
0.0533198
0.04095
0.0499264
0.086255
0.261377
0.409464
0.405043
0.37248
0.284573
0.247804
0.252652
0.258066
0.240009
0.175148
0.178639
0.336951
0.686431
0.680453
0.491274
0.290248
0.191667
0.154356
0.145002
0.136064
0.135074
0.134871
0.131944
0.126237
0.12733
0.132283
0.13989
0.13944
0.132974
0.132159
0.137457
0.138163
0.142338
0.139747
0.133566
0.124121
0.107361
0.0918253
0.0654427
0.0537139
0.0357877
0.0301266
0.0199114
0.0167376
0.0104848
0.00870124
0.00520118
0.00443099
0.00269842
0.0023415
0.00147599
0.00150292
0.00122222
0.00143476
0.00122363
0.00141633
0.00127542
0.00159844
0.00154997
0.0019154
0.00190201
0.00232466
0.0024134
0.00288276
0.00302038
0.00367862
0.00402863
0.00463232
0.00624081
0.00685496
0.0108916
0.0108897
0.021508
0.0201628
0.0533863
0.0412692
0.108038
0.0490717
0.0896546
0.0300728
0.0334739
0.0150119
0.0319458
0.1025
1.46376
1.32016
1.19444
1.01765
0.928939
0.774265
0.596466
0.469639
0.285335
0.144644
0.065021
0.0370142
0.0290128
0.0273455
0.0280444
0.0354158
0.0849147
0.26737
0.356542
0.359801
0.339518
0.303905
0.288977
0.272066
0.205017
0.163103
0.19627
0.476815
0.751048
0.694483
0.440067
0.270642
0.182397
0.149208
0.144932
0.136253
0.134376
0.136706
0.135778
0.129095
0.129954
0.132822
0.140258
0.140126
0.135919
0.133324
0.141337
0.138501
0.143113
0.139376
0.135444
0.126109
0.105354
0.0891353
0.0618382
0.0514991
0.0340393
0.0287871
0.0189449
0.0155465
0.00983954
0.00787712
0.00471433
0.00394134
0.00237774
0.00199631
0.00118856
0.001104
0.000853176
0.0010207
0.000861497
0.00101664
0.000886635
0.00114266
0.0010865
0.00140356
0.00130613
0.00171838
0.00172126
0.0022916
0.00228557
0.00298261
0.00315097
0.00418673
0.00441003
0.00622439
0.00701208
0.0093339
0.012083
0.0163991
0.0388107
0.0401676
0.133008
0.10793
0.353951
0.225906
0.332924
0.124456
0.0787969
0.0949753
0.643832
0.580901
0.533878
0.440417
0.399141
0.310713
0.217977
0.155458
0.0897314
0.0443292
0.0222316
0.0176909
0.018827
0.0227314
0.0217154
0.0218167
0.0334387
0.0884187
0.244946
0.313524
0.315087
0.30474
0.289849
0.252366
0.160283
0.158705
0.245691
0.634745
0.789889
0.661433
0.410823
0.263471
0.177465
0.146635
0.144477
0.137371
0.131665
0.140115
0.141395
0.134398
0.1349
0.134876
0.141269
0.141301
0.140975
0.136044
0.147482
0.140538
0.14637
0.140835
0.136543
0.126027
0.10347
0.0884709
0.0594488
0.0499026
0.0318982
0.0265685
0.0175785
0.0138625
0.0089058
0.00701669
0.0042149
0.00348108
0.00206823
0.00171449
0.00106363
0.00092743
0.000654894
0.000735347
0.000615092
0.000727133
0.000663768
0.000848378
0.000798884
0.00103637
0.000999875
0.00130256
0.00133647
0.00173282
0.00177785
0.00233073
0.00250833
0.00330935
0.00361321
0.00505886
0.00601426
0.00769724
0.0118958
0.0163156
0.0323084
0.0385915
0.0747985
0.0892655
0.167844
0.192503
0.258195
0.226159
0.247756
0.140158
0.172771
0.146494
0.134056
0.112206
0.101186
0.0756593
0.0556018
0.0385654
0.02156
0.0118549
0.00996054
0.0117634
0.0169367
0.022084
0.0221931
0.019505
0.0206506
0.0339932
0.0947276
0.200482
0.249421
0.251364
0.241918
0.173873
0.133776
0.166812
0.372483
0.758
0.804192
0.595165
0.40139
0.261901
0.175922
0.146116
0.144469
0.137913
0.129578
0.142491
0.149171
0.142409
0.14241
0.138875
0.143888
0.142934
0.147907
0.139867
0.154903
0.143761
0.150108
0.143193
0.138893
0.126755
0.101863
0.0851336
0.0543871
0.0455807
0.0289079
0.0241981
0.0160472
0.0127317
0.00814261
0.0063596
0.00388616
0.00309675
0.0019967
0.00154412
0.001044
0.000849967
0.000609603
0.000605951
0.000545742
0.000576969
0.000571109
0.000656906
0.000680787
0.000843195
0.000884499
0.00103088
0.00117915
0.00151779
0.00160124
0.00189302
0.00230309
0.00283686
0.00306574
0.00371884
0.00501832
0.00601169
0.00727951
0.0113063
0.0277473
0.0331168
0.112879
0.100989
0.348892
0.2593
0.358242
0.296768
0.277378
0.196783
0.0227608
0.0190134
0.0176137
0.0161327
0.0136824
0.0110339
0.00925862
0.00588288
0.00515472
0.00578017
0.00778741
0.0127073
0.0254723
0.0308127
0.030354
0.0254655
0.0193192
0.0205615
0.0325306
0.0774211
0.153606
0.169981
0.15416
0.104848
0.118686
0.227559
0.567696
0.803196
0.787057
0.531186
0.401398
0.273535
0.176628
0.146635
0.144179
0.142081
0.12942
0.142751
0.153993
0.152531
0.151227
0.143117
0.147532
0.14456
0.15514
0.145389
0.165656
0.150316
0.15853
0.147946
0.141395
0.125373
0.0962809
0.0775453
0.0497421
0.0422628
0.0272099
0.0227411
0.0150151
0.0112823
0.00754048
0.00570651
0.00375061
0.00275323
0.00201762
0.00139209
0.0010424
0.000777747
0.00060661
0.000511538
0.000533109
0.000512691
0.000545394
0.000566749
0.000679335
0.000713853
0.000872581
0.000932014
0.00118298
0.00128086
0.00158546
0.00170892
0.00228277
0.00246
0.0029596
0.00325338
0.00454095
0.00517384
0.00567921
0.00788349
0.00921264
0.0210372
0.0221471
0.0747131
0.0750259
0.200145
0.221161
0.273547
0.336177
0.264701
0.00168258
0.00155042
0.00151486
0.00137313
0.00131179
0.00141575
0.00159244
0.00211339
0.00407284
0.00840959
0.0160086
0.0346355
0.0530165
0.0560368
0.0530099
0.0413641
0.024874
0.0199632
0.0208321
0.0334117
0.0820512
0.0898042
0.0761828
0.082154
0.153572
0.426154
0.686759
0.816228
0.725849
0.479398
0.429732
0.309168
0.185697
0.148506
0.143931
0.147987
0.134073
0.14133
0.153089
0.160467
0.15768
0.147881
0.153874
0.147754
0.166045
0.152285
0.173793
0.154888
0.163933
0.152373
0.139896
0.119343
0.0907218
0.0728302
0.0464288
0.0395014
0.0247768
0.0201919
0.0134566
0.00992112
0.00706928
0.00519242
0.00369808
0.00260284
0.0019869
0.00128967
0.00104995
0.000694973
0.000697717
0.000546016
0.000681702
0.000562418
0.000722685
0.00061881
0.000922678
0.000783418
0.00111876
0.0010077
0.00148607
0.00134908
0.00194247
0.00181445
0.00259307
0.00251298
0.00340813
0.00336889
0.00474394
0.00500998
0.00587462
0.00695549
0.00797044
0.0157064
0.0152292
0.0466971
0.0371035
0.124406
0.113785
0.185382
0.332083
0.303908
0.000434347
0.000498884
0.0005824
0.000755776
0.00101046
0.00152262
0.00297275
0.00678491
0.0184143
0.0309007
0.0515984
0.0962652
0.108752
0.106479
0.0962954
0.0696699
0.0406023
0.0248948
0.0209857
0.023704
0.0387604
0.0438226
0.051216
0.0928692
0.326828
0.600842
0.730649
0.784647
0.633648
0.451657
0.465314
0.365052
0.209273
0.152477
0.144246
0.150014
0.144197
0.141841
0.152318
0.162043
0.157628
0.154
0.159477
0.153177
0.175895
0.156586
0.174898
0.157664
0.16342
0.153057
0.135929
0.113536
0.0865281
0.0670299
0.0421814
0.0352899
0.0216401
0.017172
0.0121798
0.00887878
0.00690728
0.00474927
0.00386709
0.00248184
0.0021374
0.00131847
0.00124821
0.000833175
0.00106312
0.000707981
0.00113383
0.000785957
0.00120504
0.000842679
0.00154217
0.00106289
0.00179023
0.00131989
0.00227203
0.00166617
0.00276169
0.00218661
0.00346481
0.00282112
0.00430043
0.00374886
0.00546095
0.00519255
0.00676615
0.00689231
0.00764586
0.0123729
0.0122681
0.030865
0.0249716
0.0808928
0.0718055
0.127693
0.167875
0.256218
0.00139986
0.00225868
0.00341971
0.00485435
0.00650713
0.00981674
0.0181037
0.0371818
0.0651958
0.0928426
0.151177
0.20571
0.206785
0.195982
0.165746
0.116629
0.0729048
0.0429328
0.0282107
0.0258916
0.0270263
0.0327926
0.0578448
0.191996
0.579462
0.684593
0.727733
0.723731
0.526154
0.433145
0.520828
0.453348
0.250256
0.161852
0.145838
0.150938
0.153522
0.149628
0.154019
0.162581
0.157555
0.15874
0.165196
0.157323
0.184764
0.164312
0.175845
0.159262
0.161423
0.15072
0.129256
0.105121
0.0797782
0.0590237
0.0377742
0.0295994
0.0197086
0.0146986
0.0116788
0.00825986
0.00714632
0.00481716
0.00424298
0.00261598
0.00253584
0.00168648
0.00189107
0.00125707
0.00188568
0.00115074
0.00198394
0.00132344
0.00217632
0.00140172
0.00274748
0.00173569
0.00307596
0.00205289
0.0038566
0.00244758
0.00444086
0.00305952
0.00539399
0.00366084
0.00621495
0.00462834
0.00748664
0.00587958
0.00843478
0.00729796
0.0091792
0.0111186
0.011549
0.0217902
0.0195684
0.0534727
0.0494039
0.0948748
0.101564
0.152071
0.0145147
0.0216754
0.0280561
0.0334297
0.0406463
0.053777
0.0911258
0.131905
0.176587
0.258297
0.346717
0.377084
0.366078
0.330272
0.262919
0.188594
0.12523
0.0805842
0.0513269
0.0430453
0.0454339
0.0609167
0.137237
0.486496
0.7073
0.708518
0.687097
0.630288
0.420938
0.418535
0.576392
0.586656
0.331921
0.183513
0.15056
0.150963
0.158785
0.160011
0.160682
0.166585
0.160095
0.168593
0.176101
0.165986
0.192106
0.176909
0.179717
0.163699
0.157182
0.145556
0.122203
0.0977642
0.0745988
0.0511386
0.0337725
0.024344
0.0186964
0.0132958
0.0115422
0.00832625
0.00750882
0.00520268
0.00508212
0.00327279
0.00385558
0.00262727
0.00328115
0.00224078
0.00358702
0.00219362
0.0039034
0.00258091
0.00422809
0.0026875
0.00516374
0.00319305
0.00558394
0.0036247
0.00674292
0.00407314
0.00741994
0.0048257
0.00876031
0.00542854
0.00966413
0.00645283
0.0113334
0.00756729
0.0119089
0.00866668
0.0135376
0.0118145
0.0132254
0.0179225
0.0178726
0.0378648
0.03683
0.0699907
0.0735398
0.104274
0.110068
0.132848
0.147059
0.158641
0.177118
0.209807
0.291146
0.34296
0.431321
0.549134
0.597321
0.596968
0.567591
0.489305
0.385886
0.282597
0.212924
0.156006
0.10931
0.101137
0.108306
0.15105
0.383459
0.726258
0.748873
0.66013
0.592858
0.491881
0.352537
0.38974
0.591043
0.757193
0.48524
0.23252
0.161066
0.150604
0.160616
0.166833
0.168592
0.173191
0.168742
0.181145
0.183736
0.180472
0.19544
0.196483
0.19173
0.173344
0.154403
0.142998
0.117431
0.0907868
0.0653005
0.0414722
0.0298656
0.0212308
0.0185448
0.0132105
0.0125631
0.00971714
0.00934967
0.00677295
0.00778183
0.00506449
0.0070449
0.00482942
0.00649755
0.00459435
0.00724507
0.00453147
0.0076708
0.00522575
0.00810397
0.00540516
0.00955378
0.00611861
0.0100182
0.00684679
0.0118326
0.00728669
0.0126626
0.0083631
0.014557
0.00875544
0.0156671
0.0099311
0.0178359
0.0109979
0.0182901
0.0118872
0.0196462
0.0144668
0.0191982
0.0187895
0.0194112
0.0302567
0.0309242
0.0524444
0.0552794
0.0762309
0.443971
0.465119
0.472151
0.481408
0.502852
0.554924
0.627705
0.693112
0.800232
0.845381
0.839917
0.809142
0.731018
0.613975
0.504101
0.410377
0.334965
0.252447
0.208512
0.207788
0.230864
0.350465
0.71663
0.806653
0.71195
0.502907
0.457903
0.366775
0.302588
0.350826
0.573545
0.86189
0.735978
0.3377
0.184833
0.156221
0.159211
0.171246
0.177973
0.182267
0.183554
0.198018
0.198574
0.199911
0.192571
0.256379
0.207893
0.195401
0.15693
0.14242
0.11136
0.0758265
0.0541206
0.0342924
0.0284873
0.0208914
0.0209187
0.0157966
0.0174826
0.0135501
0.0140176
0.0109662
0.0137905
0.00931828
0.013747
0.00956316
0.0126013
0.00962093
0.0140101
0.00935203
0.0148942
0.0105416
0.0152289
0.0107219
0.0173668
0.0115002
0.0178442
0.0125297
0.0199792
0.0129657
0.0212631
0.014507
0.0235581
0.0148695
0.0255096
0.0167115
0.0283409
0.017294
0.0289453
0.0187507
0.0307599
0.0210097
0.0278739
0.0227801
0.0244769
0.0311201
0.0318147
0.0428121
0.0443918
0.0560353
1.09553
1.06172
0.995882
0.95945
0.965164
0.990259
1.02649
1.04238
1.03954
1.01735
0.967297
0.89191
0.78395
0.674642
0.595464
0.520021
0.430582
0.364504
0.35588
0.370404
0.438405
0.693991
0.845703
0.78868
0.470193
0.334997
0.324005
0.279724
0.263542
0.304604
0.51339
0.883372
1.05598
0.561919
0.252113
0.1708
0.158871
0.171639
0.183029
0.192114
0.198027
0.220155
0.226592
0.240747
0.188994
0.294549
0.211043
0.221342
0.154028
0.145044
0.0982908
0.0654117
0.0494992
0.0339427
0.031554
0.0251264
0.0300311
0.023679
0.0296198
0.0226771
0.0260935
0.0212172
0.0267623
0.0200254
0.0287317
0.0203022
0.0267484
0.0210444
0.0285355
0.0203765
0.0306089
0.0216587
0.0301595
0.0223461
0.0330249
0.0221517
0.0327571
0.0240395
0.0350508
0.0234221
0.0366447
0.0258108
0.0391234
0.0256954
0.042166
0.0286648
0.0461133
0.0294819
0.04724
0.0319453
0.0496859
0.0344445
0.0440191
0.0328904
0.0383586
0.0370206
0.037213
0.0419019
0.0422784
0.0456047
1.89884
1.72692
1.54784
1.43021
1.35727
1.29386
1.23055
1.18283
1.13046
1.07068
1.00141
0.909904
0.814622
0.739472
0.686027
0.613159
0.54952
0.533599
0.542078
0.581614
0.728616
0.855743
0.820009
0.500539
0.240674
0.211816
0.229628
0.229053
0.231882
0.258936
0.401012
0.838979
1.19759
0.99614
0.432172
0.21873
0.170179
0.167584
0.183664
0.194755
0.203803
0.223651
0.243967
0.28121
0.189573
0.267077
0.217461
0.214572
0.14315
0.119258
0.0965033
0.0587035
0.0564275
0.0464586
0.0485904
0.0427819
0.0514226
0.0453499
0.0586509
0.0465878
0.057478
0.0478311
0.0569064
0.0462222
0.0619229
0.0457155
0.0596444
0.0471306
0.0578932
0.0452873
0.0621796
0.0445544
0.0580616
0.0454187
0.0598608
0.0425731
0.059808
0.0449428
0.059996
0.0426694
0.0641424
0.0459512
0.0653177
0.0447561
0.0716774
0.0499347
0.0758768
0.049946
0.0785605
0.05512
0.0822625
0.0571596
0.0707659
0.0525262
0.060162
0.0530626
0.0524049
0.0489963
0.0460317
0.0465633
2.6178
2.2243
1.89211
1.66601
1.50285
1.38233
1.28886
1.2147
1.14234
1.07316
0.991056
0.909237
0.847414
0.806815
0.766864
0.723589
0.709421
0.714433
0.741568
0.818834
0.849132
0.799919
0.505498
0.215326
0.142999
0.146746
0.178377
0.207893
0.221127
0.23293
0.29247
0.624287
1.21794
1.41132
0.899039
0.412776
0.22154
0.1786
0.177995
0.191183
0.201028
0.215503
0.235757
0.281999
0.214961
0.171715
0.159226
0.195514
0.111829
0.124626
0.0998344
0.0836617
0.0896596
0.0822197
0.0945339
0.0891335
0.105792
0.0961519
0.124543
0.107168
0.134876
0.112564
0.130087
0.108369
0.133201
0.106847
0.134088
0.106212
0.123564
0.100304
0.126284
0.0960507
0.12032
0.0949341
0.117438
0.0896761
0.120517
0.0901489
0.116843
0.0871339
0.125858
0.0890401
0.124441
0.0880241
0.136099
0.0942234
0.139804
0.0936708
0.145551
0.103585
0.150281
0.103471
0.127969
0.0947357
0.110237
0.093681
0.0909547
0.07632
0.0693264
0.0613966
3.02719
2.35966
1.9413
1.67635
1.49129
1.35526
1.24086
1.14501
1.05537
0.969858
0.900751
0.858871
0.836249
0.823747
0.813104
0.812339
0.820478
0.826352
0.822084
0.791207
0.665985
0.382825
0.176703
0.112216
0.11055
0.135543
0.179803
0.219978
0.23629
0.238434
0.253667
0.412454
1.02598
1.5251
1.60628
1.11516
0.535434
0.299442
0.201675
0.175502
0.176125
0.177571
0.175827
0.234922
0.259971
0.130276
0.10709
0.156863
0.110877
0.111632
0.11322
0.117943
0.158781
0.174633
0.212631
0.237125
0.258191
0.264377
0.291368
0.2699
0.308808
0.271814
0.304681
0.270578
0.30088
0.254997
0.306446
0.250535
0.291133
0.244188
0.284022
0.228483
0.283772
0.226747
0.269792
0.215075
0.278066
0.213844
0.268682
0.208948
0.280928
0.207725
0.277038
0.206969
0.295385
0.21033
0.297435
0.211425
0.31368
0.22486
0.319333
0.222921
0.288205
0.219087
0.265361
0.222057
0.22089
0.191024
0.188824
0.183762
2.90635
2.14876
1.74267
1.49509
1.31869
1.16968
1.02765
0.898077
0.788271
0.715619
0.68052
0.675536
0.691029
0.71122
0.726032
0.737523
0.734312
0.701011
0.600559
0.430556
0.26102
0.151508
0.107089
0.102441
0.112544
0.147589
0.206924
0.266822
0.358074
0.62741
0.684398
0.641841
0.731267
1.31488
1.814
1.97966
1.92541
1.388
0.880224
0.479326
0.265004
0.193539
0.171745
0.182652
0.240245
0.188338
0.141875
0.256927
0.215593
0.347337
0.321108
0.488537
0.440449
0.610262
0.515119
0.68933
0.546607
0.744796
0.568856
0.775771
0.598888
0.773084
0.619214
0.77667
0.626558
0.775711
0.648624
0.749442
0.657546
0.755954
0.661243
0.734867
0.690293
0.720112
0.682254
0.717111
0.714754
0.687654
0.704191
0.695859
0.734835
0.666681
0.740364
0.674621
0.780287
0.658193
0.791501
0.662068
0.843912
0.688119
0.867267
0.696021
0.885096
0.775853
0.947592
0.898116
0.953415
1.00669
1.13689
1.27312
1.752
1.32298
1.09365
0.914813
0.734703
0.550768
0.384607
0.264153
0.198872
0.181846
0.191846
0.218156
0.245131
0.26508
0.277191
0.283275
0.281601
0.267863
0.253097
0.249645
0.262847
0.301125
0.32339
0.31519
0.309918
0.364401
0.565447
1.10661
1.86117
2.15948
2.16009
2.04182
1.65101
1.01721
0.892025
1.74558
3.00699
3.85838
4.19033
3.84497
2.87252
1.60673
0.933308
0.623205
0.563571
0.201058
0.182059
0.351404
0.322501
0.715249
0.532249
1.00165
0.664702
1.09911
0.67407
1.11608
0.638473
1.12991
0.613331
1.17925
0.616087
1.2436
0.639629
1.29867
0.667711
1.37577
0.708078
1.46058
0.762957
1.5353
0.809337
1.64304
0.87582
1.7324
0.94544
1.84375
1.0166
1.94791
1.11255
2.06652
1.20039
2.16617
1.33529
2.27039
1.45782
2.30966
1.6261
2.38444
1.84281
2.42052
2.06419
2.53023
2.4869
2.9922
3.09257
3.58781
3.75581
4.70195
4.93106
5.92511
0.0316098
0.0441776
0.0624061
0.0896779
0.173503
0.373657
0.823034
1.37891
1.46424
0.626482
0.198275
0.276957
0.360146
0.470145
0.782688
1.35259
1.63191
1.53479
0.959745
0.832836
2.1376
4.51767
6.5673
7.31652
6.44473
3.92095
2.18502
1.1509
0.651635
0.439108
0.398711
0.527136
0.849151
1.42931
2.15163
2.77307
2.9101
2.77443
2.37118
1.77801
1.20403
0.734483
0.420778
0.25039
0.175184
0.14639
0.139485
0.141965
0.149222
0.159486
0.170772
0.185124
0.199154
0.21721
0.235155
0.254318
0.27391
0.290163
0.307032
0.319139
0.330312
0.339226
0.344533
0.350164
0.352096
0.353106
0.353712
0.350344
0.349275
0.342769
0.338745
0.330383
0.321879
0.311941
0.298723
0.285923
0.268681
0.25148
0.230179
0.20832
0.182898
0.157127
0.129111
0.102186
0.0758726
0.0535266
0.0407506
0.0394068
0.0456323
0.0564264
0.0652632
0.069835
0.0726117
0.0892335
0.168618
0.365499
0.481171
0.406564
0.214009
0.129859
0.0464387
0.0565789
0.0829463
0.113479
0.171644
0.268019
0.294886
0.407837
0.821687
1.12385
1.04651
0.662872
0.533482
0.431147
0.41072
0.434597
0.478411
0.809399
2.02323
2.73431
3.09685
3.42969
2.87563
1.85292
1.03851
0.722796
0.672148
0.648371
0.613402
0.576047
0.567628
0.555399
0.546404
0.564419
0.61533
0.712322
0.864825
1.0048
1.00884
0.954398
0.818374
0.622563
0.468041
0.390263
0.354138
0.335635
0.327029
0.323994
0.323372
0.326923
0.329278
0.337719
0.344586
0.35495
0.3638
0.371184
0.379642
0.383959
0.389782
0.393427
0.395448
0.399169
0.399532
0.401084
0.401811
0.400959
0.402205
0.39933
0.399828
0.397231
0.395484
0.393667
0.388813
0.387102
0.381465
0.37784
0.37114
0.365399
0.356751
0.348822
0.336837
0.32603
0.309621
0.294085
0.270498
0.246248
0.21321
0.178205
0.134216
0.0925936
0.068236
0.063537
0.0761906
0.118455
0.182342
0.224625
0.164505
0.115726
0.13869
0.164116
0.0500009
0.0603679
0.100189
0.223572
0.280811
0.309428
0.285368
0.277522
0.342899
0.708419
0.887634
0.777697
0.518032
0.3297
0.308623
0.326696
0.579218
1.64223
2.27001
2.32695
1.90191
1.21304
0.834409
0.592118
0.519756
0.565226
0.58674
0.577196
0.527891
0.502674
0.493589
0.473162
0.458869
0.449746
0.449559
0.454951
0.476306
0.516042
0.520896
0.482526
0.400949
0.362286
0.351241
0.33573
0.314706
0.291568
0.267508
0.245074
0.224997
0.210675
0.204027
0.202937
0.209861
0.220859
0.233512
0.247779
0.256775
0.267294
0.27144
0.277951
0.280206
0.283138
0.285741
0.286206
0.288893
0.288543
0.290956
0.290873
0.292567
0.293285
0.29435
0.295851
0.296904
0.298171
0.300563
0.301352
0.304623
0.305318
0.30883
0.308839
0.311204
0.30995
0.309827
0.307009
0.305582
0.300737
0.293909
0.279939
0.258539
0.22062
0.169217
0.110354
0.0809339
0.0830776
0.108118
0.103266
0.0817982
0.0800505
0.115371
0.141533
0.0512269
0.0686935
0.12782
0.260608
0.395205
0.330497
0.383348
0.303664
0.348626
0.403412
0.535304
0.507334
0.361637
0.277628
0.295115
0.446497
1.10705
1.81435
1.91443
1.22955
0.854606
0.579699
0.468541
0.42984
0.431205
0.475306
0.473905
0.455896
0.410364
0.379206
0.367946
0.360264
0.351341
0.343857
0.344291
0.349404
0.365751
0.42028
0.456004
0.450055
0.391612
0.288282
0.228152
0.205906
0.187187
0.159715
0.127537
0.0997962
0.078766
0.0645348
0.0589451
0.0561747
0.0575555
0.0620676
0.0681423
0.0812165
0.0880988
0.104515
0.111455
0.123916
0.12917
0.134558
0.139523
0.141188
0.144997
0.146575
0.148633
0.151141
0.151912
0.15502
0.155636
0.159666
0.160264
0.165311
0.166233
0.172975
0.174373
0.183247
0.186165
0.198099
0.203688
0.219952
0.228703
0.249373
0.25883
0.27501
0.280758
0.287421
0.28772
0.286237
0.272454
0.238792
0.154425
0.0928538
0.0813359
0.0747834
0.0671294
0.0768911
0.0982038
0.136433
0.0545076
0.0888558
0.188327
0.324217
0.412165
0.360203
0.434608
0.312022
0.438888
0.383287
0.385799
0.357565
0.28217
0.264556
0.338492
0.673865
1.29888
1.6533
1.08575
0.674181
0.512575
0.433094
0.387134
0.370649
0.3922
0.425285
0.401799
0.400419
0.34229
0.308237
0.303918
0.301385
0.29833
0.2911
0.288112
0.289546
0.293986
0.307905
0.371068
0.427037
0.418455
0.333395
0.233256
0.166343
0.122518
0.091246
0.0646588
0.0450516
0.0334201
0.0277082
0.0258893
0.0244349
0.0228921
0.0211524
0.0199892
0.0196719
0.0199334
0.0223788
0.0250477
0.0284161
0.0322597
0.033897
0.0372855
0.0384257
0.0403687
0.0417017
0.04251
0.043606
0.0456886
0.0459262
0.0488388
0.0489255
0.0526266
0.0529371
0.0571442
0.0581415
0.0637772
0.0656503
0.0731382
0.0765681
0.0874193
0.0933132
0.109031
0.119618
0.143905
0.162076
0.200352
0.228246
0.259581
0.271287
0.289462
0.28953
0.281384
0.16281
0.0902865
0.0755277
0.0691224
0.082134
0.0969087
0.157733
0.0610587
0.121682
0.270229
0.384105
0.409158
0.359712
0.369814
0.349556
0.439855
0.416854
0.375872
0.335538
0.263125
0.263202
0.42089
0.845672
1.26098
1.16255
0.652862
0.466076
0.410547
0.389515
0.350895
0.327274
0.357575
0.370729
0.365824
0.339175
0.310577
0.268654
0.253806
0.24867
0.238651
0.235217
0.23707
0.24386
0.253787
0.263162
0.284728
0.369479
0.415731
0.400841
0.29261
0.18269
0.12086
0.0806782
0.0554061
0.0408498
0.0333794
0.0297591
0.0272556
0.0254673
0.0225427
0.0197208
0.0162365
0.0134019
0.0107069
0.00865955
0.00719881
0.00620032
0.0059533
0.00565901
0.00573185
0.00577662
0.0058512
0.00611096
0.00611581
0.00659052
0.00659958
0.00727918
0.00745621
0.00816207
0.0085722
0.00948013
0.0100773
0.0115867
0.0124393
0.0146192
0.0160729
0.0195138
0.0219529
0.0277376
0.0319761
0.0419868
0.049775
0.0672065
0.0823722
0.112303
0.148473
0.198284
0.245685
0.277981
0.302065
0.287617
0.151026
0.0882166
0.0804294
0.0984693
0.111253
0.197482
0.0704894
0.162207
0.333514
0.394292
0.386002
0.340061
0.351357
0.375328
0.385481
0.460623
0.402879
0.349932
0.246584
0.265637
0.507071
0.880053
1.10667
0.720386
0.450843
0.372862
0.356722
0.343735
0.316866
0.286899
0.33658
0.34818
0.351827
0.309804
0.290129
0.247542
0.231516
0.22353
0.212239
0.191259
0.186478
0.188701
0.200181
0.219655
0.236974
0.281895
0.385946
0.40972
0.380597
0.245772
0.140141
0.086789
0.0588521
0.0455764
0.0404387
0.0383614
0.0366149
0.0351386
0.0314506
0.0270009
0.021313
0.01634
0.0118268
0.00859337
0.00620475
0.00436024
0.00321015
0.00219191
0.00164231
0.0011429
0.00090992
0.000702456
0.000606884
0.000567838
0.000571705
0.000591481
0.000633512
0.000745104
0.000812503
0.000963838
0.00109642
0.00135412
0.00154996
0.00199163
0.00244075
0.00296625
0.0041584
0.00519986
0.00731326
0.00949143
0.0141252
0.0189208
0.0289786
0.0395026
0.0620833
0.0872212
0.13536
0.201276
0.270759
0.30393
0.269619
0.153746
0.112185
0.120299
0.127261
0.210569
0.0841974
0.208026
0.357812
0.388466
0.369768
0.354895
0.366046
0.381904
0.371432
0.445007
0.384228
0.319634
0.221928
0.269747
0.567913
0.857326
0.844015
0.482532
0.344415
0.30504
0.291808
0.273214
0.265693
0.248715
0.331862
0.341432
0.324138
0.265155
0.243535
0.214613
0.203555
0.188714
0.179518
0.16368
0.15602
0.154321
0.156654
0.168469
0.190725
0.221266
0.314581
0.395299
0.400313
0.349087
0.193453
0.108549
0.0729085
0.0577466
0.0501688
0.0464651
0.0444701
0.0428553
0.0392635
0.0338762
0.0277882
0.0213497
0.0156957
0.0113462
0.00774134
0.00531826
0.00351785
0.0022922
0.00147487
0.000932763
0.000567429
0.000355169
0.000208484
0.000133933
9.3489e-05
8.35535e-05
9.0342e-05
8.72939e-05
9.59296e-05
0.000109369
0.000133291
0.000153386
0.000201704
0.000242255
0.000328361
0.000411715
0.000625083
0.000834585
0.00119775
0.00192248
0.00285204
0.00473041
0.00723476
0.0123678
0.0195982
0.0345455
0.0546157
0.0955442
0.16166
0.26941
0.280401
0.246095
0.182945
0.153441
0.144202
0.211843
0.101296
0.242966
0.368165
0.39434
0.395024
0.405235
0.416025
0.420011
0.398877
0.425023
0.406245
0.314336
0.21991
0.290635
0.602208
0.771404
0.625262
0.354986
0.272925
0.25323
0.237872
0.224681
0.206417
0.214905
0.330341
0.331018
0.269239
0.224375
0.202421
0.200257
0.179289
0.171412
0.15958
0.151192
0.146141
0.140776
0.135779
0.137888
0.14945
0.174324
0.226371
0.353725
0.396691
0.385959
0.294981
0.162328
0.100779
0.0722129
0.0597492
0.0545607
0.0530809
0.0518801
0.0480517
0.0417067
0.0340649
0.0258695
0.0193983
0.0136821
0.00957703
0.00654079
0.00436176
0.00283517
0.00182772
0.00112843
0.000679534
0.000425146
0.000245373
0.000184618
0.000119785
8.67327e-05
5.80183e-05
4.54316e-05
3.70975e-05
3.90699e-05
4.09981e-05
4.91819e-05
5.15364e-05
6.36378e-05
7.45091e-05
0.000106798
0.000124557
0.000169492
0.000224827
0.000373582
0.000558702
0.000944187
0.00161986
0.00299619
0.00568782