/*--------------------------------*- C++ -*----------------------------------*\
| =========                 |                                                 |
| \\      /  F ield         | OpenFOAM: The Open Source CFD Toolbox           |
|  \\    /   O peration     | Version:  2.4.0                                 |
|   \\  /    A nd           | Web:      www.OpenFOAM.org                      |
|    \\/     M anipulation  |                                                 |
\*---------------------------------------------------------------------------*/
FoamFile
{
    version     2.0;
    format      ascii;
    class       volScalarField;
    location    "0.063";
    object      pPrime2Mean;
}
// * * * * * * * * * * * * * * * * * * * * * * * * * * * * * * * * * * * * * //

dimensions      [0 4 -4 0 0 0 0];

internalField   nonuniform List<scalar> 
4400
(
1.01087e+07
9.58879e+06
9.04699e+06
8.51935e+06
8.00747e+06
7.51128e+06
7.03045e+06
6.56384e+06
6.10764e+06
5.64428e+06
1.0109e+07
9.58879e+06
9.04699e+06
8.51935e+06
8.00747e+06
7.51129e+06
7.03048e+06
6.56393e+06
6.10798e+06
5.64596e+06
1.01091e+07
9.58875e+06
9.04697e+06
8.51935e+06
8.00747e+06
7.51131e+06
7.03053e+06
6.56412e+06
6.10862e+06
5.64979e+06
1.01092e+07
9.58871e+06
9.04695e+06
8.51934e+06
8.00748e+06
7.51133e+06
7.03062e+06
6.56439e+06
6.10958e+06
5.6548e+06
1.01092e+07
9.58867e+06
9.04694e+06
8.51934e+06
8.00748e+06
7.51136e+06
7.03072e+06
6.56474e+06
6.11079e+06
5.66045e+06
1.01093e+07
9.58864e+06
9.04692e+06
8.51934e+06
8.00749e+06
7.5114e+06
7.03084e+06
6.56515e+06
6.1122e+06
5.66636e+06
1.01093e+07
9.58861e+06
9.04691e+06
8.51934e+06
8.0075e+06
7.51144e+06
7.03098e+06
6.56561e+06
6.11376e+06
5.6723e+06
1.01094e+07
9.58859e+06
9.0469e+06
8.51934e+06
8.00751e+06
7.51148e+06
7.03114e+06
6.56611e+06
6.11541e+06
5.67811e+06
1.01094e+07
9.58858e+06
9.04689e+06
8.51935e+06
8.00753e+06
7.51153e+06
7.0313e+06
6.56663e+06
6.1171e+06
5.68366e+06
1.01094e+07
9.58857e+06
9.04689e+06
8.51935e+06
8.00754e+06
7.51159e+06
7.03147e+06
6.56716e+06
6.11879e+06
5.68889e+06
1.01094e+07
9.58857e+06
9.04689e+06
8.51936e+06
8.00756e+06
7.51164e+06
7.03164e+06
6.5677e+06
6.12044e+06
5.69373e+06
1.01094e+07
9.58858e+06
9.0469e+06
8.51936e+06
8.00758e+06
7.5117e+06
7.03181e+06
6.56821e+06
6.12201e+06
5.69814e+06
1.01094e+07
9.58859e+06
9.04691e+06
8.51937e+06
8.0076e+06
7.51175e+06
7.03197e+06
6.5687e+06
6.12347e+06
5.7021e+06
1.01093e+07
9.58861e+06
9.04692e+06
8.51938e+06
8.00761e+06
7.5118e+06
7.03212e+06
6.56916e+06
6.12481e+06
5.70559e+06
1.01093e+07
9.58864e+06
9.04694e+06
8.51938e+06
8.00763e+06
7.51185e+06
7.03226e+06
6.56956e+06
6.12599e+06
5.7086e+06
1.01092e+07
9.58867e+06
9.04695e+06
8.51939e+06
8.00765e+06
7.51189e+06
7.03238e+06
6.56992e+06
6.12699e+06
5.71111e+06
1.01092e+07
9.58871e+06
9.04698e+06
8.5194e+06
8.00767e+06
7.51193e+06
7.03248e+06
6.57021e+06
6.12782e+06
5.71312e+06
1.01091e+07
9.58875e+06
9.047e+06
8.51941e+06
8.00768e+06
7.51196e+06
7.03255e+06
6.57043e+06
6.12844e+06
5.71464e+06
1.0109e+07
9.58879e+06
9.04701e+06
8.51942e+06
8.00769e+06
7.51197e+06
7.0326e+06
6.57058e+06
6.12887e+06
5.71565e+06
1.01087e+07
9.5888e+06
9.04702e+06
8.51942e+06
8.00769e+06
7.51198e+06
7.03263e+06
6.57066e+06
6.12908e+06
5.71614e+06
5.24757e+06
5.1556e+06
5.08209e+06
5.01467e+06
4.95023e+06
4.88767e+06
4.82648e+06
4.76634e+06
4.70703e+06
4.64835e+06
4.59025e+06
4.53269e+06
4.47559e+06
4.4189e+06
4.36257e+06
4.30663e+06
4.25106e+06
4.19583e+06
4.14097e+06
4.08647e+06
4.03234e+06
3.97859e+06
3.92522e+06
3.87225e+06
3.81969e+06
3.76754e+06
3.7158e+06
3.66446e+06
3.61352e+06
3.56297e+06
3.51279e+06
3.46296e+06
3.41347e+06
3.36432e+06
3.31547e+06
3.26692e+06
3.21866e+06
3.17073e+06
3.12311e+06
3.07584e+06
3.02895e+06
2.98244e+06
2.93633e+06
2.8906e+06
2.84527e+06
2.80033e+06
2.75576e+06
2.71156e+06
2.66773e+06
2.62426e+06
2.58115e+06
2.53839e+06
2.49599e+06
2.45396e+06
2.41228e+06
2.37096e+06
2.32999e+06
2.28938e+06
2.24913e+06
2.20924e+06
2.1697e+06
2.13052e+06
2.09169e+06
2.05323e+06
2.01512e+06
1.97737e+06
1.93996e+06
1.90293e+06
1.86624e+06
1.82992e+06
1.79393e+06
1.75833e+06
1.72305e+06
1.68817e+06
1.6536e+06
1.61942e+06
1.58555e+06
1.55209e+06
1.51893e+06
1.48617e+06
1.45371e+06
1.42165e+06
1.38989e+06
1.35852e+06
1.32745e+06
1.29676e+06
1.26636e+06
1.23633e+06
1.20658e+06
1.17717e+06
1.14802e+06
1.11917e+06
1.0905e+06
1.06206e+06
1.03366e+06
1.00532e+06
976634
947516
916681
882086
5.28999e+06
5.18629e+06
5.10436e+06
5.03167e+06
4.96361e+06
4.89837e+06
4.8351e+06
4.77332e+06
4.71268e+06
4.65295e+06
4.594e+06
4.53573e+06
4.47806e+06
4.4209e+06
4.36419e+06
4.30794e+06
4.25211e+06
4.19668e+06
4.14166e+06
4.08703e+06
4.03281e+06
3.97898e+06
3.92556e+06
3.87256e+06
3.81997e+06
3.76781e+06
3.71606e+06
3.66471e+06
3.61376e+06
3.5632e+06
3.51302e+06
3.46318e+06
3.41369e+06
3.36453e+06
3.31566e+06
3.26709e+06
3.21881e+06
3.17085e+06
3.1232e+06
3.07591e+06
3.02899e+06
2.98247e+06
2.93634e+06
2.8906e+06
2.84526e+06
2.80032e+06
2.75575e+06
2.71155e+06
2.66772e+06
2.62425e+06
2.58114e+06
2.53839e+06
2.49599e+06
2.45396e+06
2.41227e+06
2.37095e+06
2.32998e+06
2.28938e+06
2.24912e+06
2.20923e+06
2.16969e+06
2.13051e+06
2.09168e+06
2.05322e+06
2.0151e+06
1.97735e+06
1.93994e+06
1.9029e+06
1.8662e+06
1.82987e+06
1.79387e+06
1.75826e+06
1.72297e+06
1.68806e+06
1.65347e+06
1.61927e+06
1.58537e+06
1.55187e+06
1.51866e+06
1.48585e+06
1.45332e+06
1.42119e+06
1.38933e+06
1.35786e+06
1.32664e+06
1.29582e+06
1.26522e+06
1.23498e+06
1.20495e+06
1.17524e+06
1.14569e+06
1.11639e+06
1.08716e+06
1.05805e+06
1.02879e+06
999397
969273
938240
904379
864313
5.32226e+06
5.21325e+06
5.12528e+06
5.04801e+06
4.9766e+06
4.90881e+06
4.84356e+06
4.78018e+06
4.71826e+06
4.6575e+06
4.5977e+06
4.53874e+06
4.4805e+06
4.42287e+06
4.36578e+06
4.30922e+06
4.25313e+06
4.19751e+06
4.14233e+06
4.08758e+06
4.03326e+06
3.97937e+06
3.9259e+06
3.87286e+06
3.82026e+06
3.76807e+06
3.71631e+06
3.66495e+06
3.614e+06
3.56343e+06
3.51324e+06
3.4634e+06
3.4139e+06
3.36472e+06
3.31584e+06
3.26724e+06
3.21895e+06
3.17096e+06
3.12328e+06
3.07596e+06
3.02903e+06
2.9825e+06
2.93635e+06
2.89061e+06
2.84526e+06
2.80031e+06
2.75574e+06
2.71154e+06
2.66771e+06
2.62424e+06
2.58113e+06
2.53838e+06
2.49598e+06
2.45395e+06
2.41227e+06
2.37095e+06
2.32998e+06
2.28938e+06
2.24912e+06
2.20923e+06
2.16968e+06
2.13051e+06
2.09167e+06
2.05321e+06
2.01508e+06
1.97733e+06
1.93991e+06
1.90287e+06
1.86616e+06
1.82982e+06
1.79382e+06
1.75819e+06
1.72288e+06
1.68796e+06
1.65334e+06
1.61912e+06
1.58519e+06
1.55165e+06
1.51839e+06
1.48554e+06
1.45294e+06
1.42075e+06
1.38878e+06
1.35722e+06
1.32586e+06
1.29489e+06
1.26409e+06
1.23366e+06
1.20334e+06
1.17334e+06
1.1434e+06
1.11367e+06
1.08388e+06
1.05414e+06
1.02406e+06
993689
962248
929568
893469
850892
5.34787e+06
5.23674e+06
5.14454e+06
5.06349e+06
4.98907e+06
4.91892e+06
4.85177e+06
4.78687e+06
4.72371e+06
4.66194e+06
4.60132e+06
4.54167e+06
4.48287e+06
4.42479e+06
4.36733e+06
4.31046e+06
4.25413e+06
4.19832e+06
4.14299e+06
4.08812e+06
4.03372e+06
3.97976e+06
3.92624e+06
3.87317e+06
3.82054e+06
3.76834e+06
3.71656e+06
3.66519e+06
3.61422e+06
3.56364e+06
3.51344e+06
3.4636e+06
3.41409e+06
3.36489e+06
3.31599e+06
3.26738e+06
3.21906e+06
3.17105e+06
3.12335e+06
3.07601e+06
3.02906e+06
2.98251e+06
2.93636e+06
2.89061e+06
2.84525e+06
2.8003e+06
2.75573e+06
2.71153e+06
2.6677e+06
2.62423e+06
2.58112e+06
2.53837e+06
2.49598e+06
2.45395e+06
2.41227e+06
2.37095e+06
2.32998e+06
2.28937e+06
2.24912e+06
2.20922e+06
2.16968e+06
2.1305e+06
2.09166e+06
2.05319e+06
2.01506e+06
1.97731e+06
1.93989e+06
1.90284e+06
1.86612e+06
1.82978e+06
1.79376e+06
1.75812e+06
1.7228e+06
1.68786e+06
1.65322e+06
1.61897e+06
1.58501e+06
1.55144e+06
1.51814e+06
1.48524e+06
1.45257e+06
1.42031e+06
1.38825e+06
1.35659e+06
1.32509e+06
1.294e+06
1.26299e+06
1.23237e+06
1.20177e+06
1.1715e+06
1.14116e+06
1.11104e+06
1.08069e+06
1.05036e+06
1.0195e+06
988238
955661
921606
884007
840486
5.36879e+06
5.25713e+06
5.16206e+06
5.07796e+06
5.00092e+06
4.92861e+06
4.8597e+06
4.79335e+06
4.729e+06
4.66625e+06
4.60483e+06
4.54452e+06
4.48518e+06
4.42665e+06
4.36884e+06
4.31167e+06
4.25511e+06
4.19911e+06
4.14363e+06
4.08866e+06
4.03416e+06
3.98014e+06
3.92658e+06
3.87348e+06
3.82082e+06
3.7686e+06
3.7168e+06
3.66541e+06
3.61443e+06
3.56384e+06
3.51363e+06
3.46377e+06
3.41424e+06
3.36503e+06
3.31612e+06
3.26748e+06
3.21915e+06
3.17111e+06
3.1234e+06
3.07605e+06
3.02909e+06
2.98253e+06
2.93636e+06
2.8906e+06
2.84525e+06
2.80029e+06
2.75572e+06
2.71152e+06
2.66769e+06
2.62422e+06
2.58112e+06
2.53837e+06
2.49598e+06
2.45394e+06
2.41226e+06
2.37094e+06
2.32998e+06
2.28937e+06
2.24911e+06
2.20922e+06
2.16967e+06
2.13049e+06
2.09165e+06
2.05318e+06
2.01505e+06
1.97729e+06
1.93986e+06
1.90281e+06
1.86608e+06
1.82973e+06
1.79371e+06
1.75806e+06
1.72272e+06
1.68776e+06
1.65311e+06
1.61883e+06
1.58484e+06
1.55124e+06
1.51789e+06
1.48494e+06
1.45221e+06
1.41988e+06
1.38774e+06
1.35598e+06
1.32436e+06
1.29312e+06
1.26194e+06
1.23113e+06
1.20027e+06
1.16973e+06
1.13901e+06
1.10851e+06
1.07763e+06
1.04675e+06
1.01514e+06
983076
949535
914373
875897
832169
5.38624e+06
5.27486e+06
5.17789e+06
5.09137e+06
5.01207e+06
4.93782e+06
4.86727e+06
4.79956e+06
4.73409e+06
4.67041e+06
4.60822e+06
4.54728e+06
4.48741e+06
4.42845e+06
4.3703e+06
4.31285e+06
4.25606e+06
4.19988e+06
4.14426e+06
4.08918e+06
4.03461e+06
3.98052e+06
3.92692e+06
3.87378e+06
3.82109e+06
3.76885e+06
3.71702e+06
3.66562e+06
3.61462e+06
3.56402e+06
3.51379e+06
3.46391e+06
3.41437e+06
3.36514e+06
3.3162e+06
3.26756e+06
3.21921e+06
3.17116e+06
3.12343e+06
3.07607e+06
3.0291e+06
2.98253e+06
2.93636e+06
2.8906e+06
2.84524e+06
2.80028e+06
2.75571e+06
2.71151e+06
2.66768e+06
2.62422e+06
2.58111e+06
2.53837e+06
2.49597e+06
2.45394e+06
2.41226e+06
2.37094e+06
2.32997e+06
2.28936e+06
2.24911e+06
2.20921e+06
2.16967e+06
2.13048e+06
2.09164e+06
2.05317e+06
2.01504e+06
1.97727e+06
1.93984e+06
1.90278e+06
1.86605e+06
1.82969e+06
1.79366e+06
1.75799e+06
1.72265e+06
1.68767e+06
1.653e+06
1.61869e+06
1.58468e+06
1.55104e+06
1.51766e+06
1.48465e+06
1.45187e+06
1.41946e+06
1.38724e+06
1.35538e+06
1.32365e+06
1.29227e+06
1.26093e+06
1.22992e+06
1.19883e+06
1.16802e+06
1.13696e+06
1.1061e+06
1.07473e+06
1.04335e+06
1.01106e+06
978301
943936
907883
868852
825294
5.40101e+06
5.29028e+06
5.19209e+06
5.10369e+06
5.02247e+06
4.94649e+06
4.87446e+06
4.80549e+06
4.73895e+06
4.6744e+06
4.61148e+06
4.54994e+06
4.48956e+06
4.4302e+06
4.37171e+06
4.31399e+06
4.25699e+06
4.20063e+06
4.14488e+06
4.08969e+06
4.03504e+06
3.9809e+06
3.92725e+06
3.87407e+06
3.82135e+06
3.76908e+06
3.71724e+06
3.66581e+06
3.61479e+06
3.56417e+06
3.51392e+06
3.46402e+06
3.41445e+06
3.36521e+06
3.31626e+06
3.26759e+06
3.21923e+06
3.17117e+06
3.12345e+06
3.07608e+06
3.0291e+06
2.98253e+06
2.93635e+06
2.8906e+06
2.84523e+06
2.80028e+06
2.7557e+06
2.71151e+06
2.66768e+06
2.62421e+06
2.58111e+06
2.53836e+06
2.49597e+06
2.45394e+06
2.41226e+06
2.37094e+06
2.32997e+06
2.28936e+06
2.2491e+06
2.2092e+06
2.16966e+06
2.13047e+06
2.09163e+06
2.05315e+06
2.01502e+06
1.97725e+06
1.93982e+06
1.90275e+06
1.86602e+06
1.82965e+06
1.79361e+06
1.75793e+06
1.72257e+06
1.68758e+06
1.65289e+06
1.61856e+06
1.58453e+06
1.55084e+06
1.51743e+06
1.48437e+06
1.45155e+06
1.41907e+06
1.38677e+06
1.35481e+06
1.32298e+06
1.29145e+06
1.25996e+06
1.22874e+06
1.19745e+06
1.16635e+06
1.13501e+06
1.10377e+06
1.07199e+06
1.04012e+06
1.00729e+06
973918
938885
902164
862699
819498
5.41365e+06
5.30372e+06
5.20479e+06
5.11493e+06
5.0321e+06
4.9546e+06
4.88122e+06
4.8111e+06
4.74358e+06
4.6782e+06
4.6146e+06
4.55248e+06
4.49163e+06
4.43187e+06
4.37306e+06
4.3151e+06
4.25788e+06
4.20136e+06
4.14548e+06
4.09019e+06
4.03547e+06
3.98126e+06
3.92756e+06
3.87435e+06
3.8216e+06
3.7693e+06
3.71743e+06
3.66598e+06
3.61494e+06
3.56429e+06
3.51401e+06
3.46409e+06
3.4145e+06
3.36524e+06
3.31627e+06
3.2676e+06
3.21923e+06
3.17117e+06
3.12344e+06
3.07607e+06
3.0291e+06
2.98253e+06
2.93635e+06
2.89059e+06
2.84523e+06
2.80027e+06
2.7557e+06
2.7115e+06
2.66767e+06
2.62421e+06
2.5811e+06
2.53836e+06
2.49597e+06
2.45393e+06
2.41226e+06
2.37093e+06
2.32997e+06
2.28935e+06
2.2491e+06
2.2092e+06
2.16965e+06
2.13046e+06
2.09162e+06
2.05314e+06
2.01501e+06
1.97723e+06
1.9398e+06
1.90272e+06
1.86599e+06
1.8296e+06
1.79356e+06
1.75787e+06
1.7225e+06
1.68749e+06
1.65279e+06
1.61843e+06
1.58438e+06
1.55066e+06
1.51722e+06
1.48411e+06
1.45124e+06
1.41868e+06
1.38633e+06
1.35427e+06
1.32233e+06
1.29067e+06
1.25904e+06
1.22763e+06
1.19614e+06
1.16478e+06
1.13317e+06
1.10156e+06
1.06943e+06
1.03708e+06
1.0038e+06
969832
934296
897040
857315
814570
5.42459e+06
5.31547e+06
5.21608e+06
5.12511e+06
5.04093e+06
4.96211e+06
4.88753e+06
4.81636e+06
4.74794e+06
4.6818e+06
4.61755e+06
4.55489e+06
4.4936e+06
4.43347e+06
4.37436e+06
4.31615e+06
4.25874e+06
4.20206e+06
4.14606e+06
4.09068e+06
4.03588e+06
3.98162e+06
3.92786e+06
3.87461e+06
3.82184e+06
3.76951e+06
3.7176e+06
3.66613e+06
3.61506e+06
3.56438e+06
3.51408e+06
3.46413e+06
3.41452e+06
3.36524e+06
3.31626e+06
3.26758e+06
3.2192e+06
3.17114e+06
3.12342e+06
3.07605e+06
3.02909e+06
2.98251e+06
2.93634e+06
2.89058e+06
2.84522e+06
2.80026e+06
2.75569e+06
2.7115e+06
2.66767e+06
2.62421e+06
2.5811e+06
2.53835e+06
2.49596e+06
2.45393e+06
2.41225e+06
2.37093e+06
2.32996e+06
2.28935e+06
2.24909e+06
2.20919e+06
2.16964e+06
2.13045e+06
2.09161e+06
2.05312e+06
2.01499e+06
1.9772e+06
1.93977e+06
1.90269e+06
1.86595e+06
1.82956e+06
1.79351e+06
1.75781e+06
1.72243e+06
1.6874e+06
1.65269e+06
1.61831e+06
1.58423e+06
1.55048e+06
1.51701e+06
1.48385e+06
1.45094e+06
1.41832e+06
1.3859e+06
1.35375e+06
1.32173e+06
1.28994e+06
1.25818e+06
1.22659e+06
1.19491e+06
1.16332e+06
1.13145e+06
1.09951e+06
1.06706e+06
1.03425e+06
1.00059e+06
966048
930103
892414
852607
810320
5.4341e+06
5.32573e+06
5.22608e+06
5.13425e+06
5.04897e+06
4.96901e+06
4.89337e+06
4.82124e+06
4.75201e+06
4.68516e+06
4.62032e+06
4.55716e+06
4.49545e+06
4.43498e+06
4.37559e+06
4.31715e+06
4.25956e+06
4.20274e+06
4.14662e+06
4.09114e+06
4.03627e+06
3.98194e+06
3.92814e+06
3.87485e+06
3.82205e+06
3.76968e+06
3.71775e+06
3.66624e+06
3.61514e+06
3.56444e+06
3.51411e+06
3.46413e+06
3.4145e+06
3.3652e+06
3.31622e+06
3.26753e+06
3.21916e+06
3.1711e+06
3.12338e+06
3.07602e+06
3.02907e+06
2.98249e+06
2.93632e+06
2.89057e+06
2.84522e+06
2.80026e+06
2.75569e+06
2.7115e+06
2.66767e+06
2.6242e+06
2.5811e+06
2.53835e+06
2.49596e+06
2.45392e+06
2.41225e+06
2.37092e+06
2.32996e+06
2.28934e+06
2.24909e+06
2.20918e+06
2.16963e+06
2.13043e+06
2.0916e+06
2.0531e+06
2.01497e+06
1.97718e+06
1.93975e+06
1.90266e+06
1.86592e+06
1.82952e+06
1.79346e+06
1.75774e+06
1.72236e+06
1.68731e+06
1.65259e+06
1.61819e+06
1.5841e+06
1.55031e+06
1.51682e+06
1.48361e+06
1.45066e+06
1.41798e+06
1.38551e+06
1.35326e+06
1.32116e+06
1.28925e+06
1.25738e+06
1.22562e+06
1.19378e+06
1.16195e+06
1.12986e+06
1.09761e+06
1.06486e+06
1.03164e+06
997611
962582
926280
888262
848492
806602
5.44236e+06
5.33466e+06
5.23489e+06
5.14239e+06
5.05621e+06
4.97528e+06
4.89871e+06
4.82574e+06
4.75576e+06
4.68827e+06
4.62288e+06
4.55927e+06
4.49718e+06
4.43639e+06
4.37673e+06
4.31808e+06
4.26033e+06
4.20337e+06
4.14714e+06
4.09158e+06
4.03664e+06
3.98225e+06
3.92839e+06
3.87507e+06
3.82223e+06
3.76983e+06
3.71786e+06
3.66632e+06
3.61519e+06
3.56446e+06
3.5141e+06
3.4641e+06
3.41445e+06
3.36514e+06
3.31614e+06
3.26746e+06
3.21909e+06
3.17104e+06
3.12334e+06
3.07599e+06
3.02904e+06
2.98247e+06
2.93631e+06
2.89056e+06
2.84521e+06
2.80025e+06
2.75569e+06
2.71149e+06
2.66766e+06
2.6242e+06
2.58109e+06
2.53834e+06
2.49596e+06
2.45392e+06
2.41224e+06
2.37091e+06
2.32995e+06
2.28933e+06
2.24908e+06
2.20917e+06
2.16962e+06
2.13042e+06
2.09158e+06
2.05309e+06
2.01495e+06
1.97716e+06
1.93972e+06
1.90262e+06
1.86588e+06
1.82947e+06
1.79341e+06
1.75768e+06
1.7223e+06
1.68722e+06
1.65249e+06
1.61806e+06
1.58396e+06
1.55014e+06
1.51662e+06
1.48337e+06
1.45039e+06
1.41765e+06
1.38513e+06
1.3528e+06
1.32063e+06
1.2886e+06
1.25663e+06
1.22472e+06
1.19273e+06
1.16068e+06
1.12839e+06
1.09584e+06
1.06283e+06
1.02923e+06
994860
959424
922836
884589
844891
803344
5.44953e+06
5.34242e+06
5.24259e+06
5.14959e+06
5.06266e+06
4.98091e+06
4.90353e+06
4.82981e+06
4.75917e+06
4.69111e+06
4.62523e+06
4.56121e+06
4.49876e+06
4.43768e+06
4.37779e+06
4.31895e+06
4.26103e+06
4.20395e+06
4.14763e+06
4.09199e+06
4.03697e+06
3.98253e+06
3.92862e+06
3.87526e+06
3.82239e+06
3.76995e+06
3.71795e+06
3.66638e+06
3.61521e+06
3.56445e+06
3.51406e+06
3.46403e+06
3.41436e+06
3.36504e+06
3.31604e+06
3.26737e+06
3.21901e+06
3.17097e+06
3.12328e+06
3.07594e+06
3.029e+06
2.98244e+06
2.93629e+06
2.89054e+06
2.84521e+06
2.80024e+06
2.75569e+06
2.71149e+06
2.66766e+06
2.6242e+06
2.58109e+06
2.53834e+06
2.49595e+06
2.45391e+06
2.41224e+06
2.3709e+06
2.32994e+06
2.28932e+06
2.24907e+06
2.20916e+06
2.16961e+06
2.13041e+06
2.09157e+06
2.05307e+06
2.01493e+06
1.97713e+06
1.9397e+06
1.90259e+06
1.86585e+06
1.82942e+06
1.79336e+06
1.75762e+06
1.72223e+06
1.68714e+06
1.6524e+06
1.61794e+06
1.58382e+06
1.54998e+06
1.51644e+06
1.48315e+06
1.45013e+06
1.41733e+06
1.38476e+06
1.35236e+06
1.32012e+06
1.28799e+06
1.25592e+06
1.22386e+06
1.19175e+06
1.1595e+06
1.12703e+06
1.09421e+06
1.06094e+06
1.02701e+06
992349
956574
919770
881382
841752
800524
5.45571e+06
5.34911e+06
5.24926e+06
5.15587e+06
5.06833e+06
4.98589e+06
4.90782e+06
4.83346e+06
4.76224e+06
4.69367e+06
4.62735e+06
4.56295e+06
4.50019e+06
4.43885e+06
4.37875e+06
4.31973e+06
4.26168e+06
4.20449e+06
4.14807e+06
4.09236e+06
4.03728e+06
3.98277e+06
3.92882e+06
3.87542e+06
3.82252e+06
3.77004e+06
3.718e+06
3.6664e+06
3.61521e+06
3.56441e+06
3.51399e+06
3.46395e+06
3.41426e+06
3.36492e+06
3.31593e+06
3.26725e+06
3.21891e+06
3.17089e+06
3.12321e+06
3.07589e+06
3.02897e+06
2.98241e+06
2.93627e+06
2.89053e+06
2.8452e+06
2.80023e+06
2.75569e+06
2.71148e+06
2.66766e+06
2.62419e+06
2.58109e+06
2.53833e+06
2.49595e+06
2.4539e+06
2.41223e+06
2.3709e+06
2.32994e+06
2.28931e+06
2.24906e+06
2.20914e+06
2.1696e+06
2.13039e+06
2.09155e+06
2.05305e+06
2.01491e+06
1.9771e+06
1.93967e+06
1.90255e+06
1.86581e+06
1.82938e+06
1.79332e+06
1.75755e+06
1.72216e+06
1.68705e+06
1.65231e+06
1.61783e+06
1.5837e+06
1.54982e+06
1.51626e+06
1.48293e+06
1.44989e+06
1.41703e+06
1.38442e+06
1.35194e+06
1.31965e+06
1.28741e+06
1.25527e+06
1.22307e+06
1.19084e+06
1.1584e+06
1.12576e+06
1.09269e+06
1.05922e+06
1.02498e+06
990093
954045
917079
878616
839046
798107
5.46099e+06
5.35481e+06
5.25497e+06
5.16128e+06
5.07325e+06
4.99024e+06
4.91158e+06
4.83667e+06
4.76494e+06
4.69593e+06
4.62923e+06
4.56451e+06
4.50147e+06
4.43991e+06
4.37961e+06
4.32045e+06
4.26227e+06
4.20497e+06
4.14847e+06
4.09269e+06
4.03755e+06
3.98299e+06
3.92899e+06
3.87556e+06
3.82262e+06
3.7701e+06
3.71803e+06
3.6664e+06
3.61517e+06
3.56435e+06
3.51391e+06
3.46384e+06
3.41414e+06
3.36479e+06
3.3158e+06
3.26713e+06
3.2188e+06
3.1708e+06
3.12314e+06
3.07584e+06
3.02892e+06
2.98238e+06
2.93625e+06
2.89052e+06
2.8452e+06
2.80022e+06
2.75569e+06
2.71148e+06
2.66766e+06
2.62419e+06
2.58108e+06
2.53833e+06
2.49594e+06
2.4539e+06
2.41222e+06
2.37089e+06
2.32993e+06
2.2893e+06
2.24905e+06
2.20913e+06
2.16959e+06
2.13038e+06
2.09154e+06
2.05303e+06
2.0149e+06
1.97708e+06
1.93965e+06
1.90252e+06
1.86578e+06
1.82933e+06
1.79327e+06
1.7575e+06
1.7221e+06
1.68697e+06
1.65222e+06
1.61772e+06
1.58358e+06
1.54967e+06
1.5161e+06
1.48272e+06
1.44966e+06
1.41675e+06
1.38411e+06
1.35155e+06
1.31922e+06
1.28687e+06
1.25466e+06
1.22232e+06
1.19e+06
1.15738e+06
1.12462e+06
1.09132e+06
1.05767e+06
1.02318e+06
988106
951854
914759
876262
836749
796053
5.46543e+06
5.35959e+06
5.25977e+06
5.16585e+06
5.07743e+06
4.99395e+06
4.91481e+06
4.83943e+06
4.76728e+06
4.69789e+06
4.63087e+06
4.56586e+06
4.50259e+06
4.44083e+06
4.38037e+06
4.32107e+06
4.26278e+06
4.2054e+06
4.14882e+06
4.09298e+06
4.03778e+06
3.98317e+06
3.92913e+06
3.87566e+06
3.82269e+06
3.77014e+06
3.71804e+06
3.66638e+06
3.61513e+06
3.56428e+06
3.51382e+06
3.46373e+06
3.41401e+06
3.36466e+06
3.31567e+06
3.26702e+06
3.2187e+06
3.17071e+06
3.12307e+06
3.07579e+06
3.02888e+06
2.98236e+06
2.93624e+06
2.8905e+06
2.84519e+06
2.80022e+06
2.75569e+06
2.71147e+06
2.66766e+06
2.62418e+06
2.58108e+06
2.53832e+06
2.49594e+06
2.45389e+06
2.41222e+06
2.37088e+06
2.32992e+06
2.28929e+06
2.24904e+06
2.20912e+06
2.16958e+06
2.13036e+06
2.09153e+06
2.05301e+06
2.01488e+06
1.97706e+06
1.93962e+06
1.90249e+06
1.86575e+06
1.8293e+06
1.79323e+06
1.75744e+06
1.72204e+06
1.6869e+06
1.65215e+06
1.61762e+06
1.58348e+06
1.54954e+06
1.51596e+06
1.48254e+06
1.44946e+06
1.41649e+06
1.38383e+06
1.3512e+06
1.31883e+06
1.28638e+06
1.25412e+06
1.22165e+06
1.18926e+06
1.15647e+06
1.1236e+06
1.0901e+06
1.05632e+06
1.02163e+06
986402
950003
912802
874295
834829
794327
5.46907e+06
5.36351e+06
5.26371e+06
5.16961e+06
5.08089e+06
4.99704e+06
4.91751e+06
4.84175e+06
4.76924e+06
4.69954e+06
4.63224e+06
4.56701e+06
4.50354e+06
4.44161e+06
4.38102e+06
4.3216e+06
4.26322e+06
4.20576e+06
4.14912e+06
4.09322e+06
4.03797e+06
3.98332e+06
3.92924e+06
3.87574e+06
3.82273e+06
3.77016e+06
3.71804e+06
3.66635e+06
3.61508e+06
3.56421e+06
3.51372e+06
3.46362e+06
3.4139e+06
3.36455e+06
3.31555e+06
3.26691e+06
3.2186e+06
3.17063e+06
3.12301e+06
3.07574e+06
3.02885e+06
2.98233e+06
2.93622e+06
2.8905e+06
2.84519e+06
2.80022e+06
2.75569e+06
2.71147e+06
2.66765e+06
2.62418e+06
2.58108e+06
2.53832e+06
2.49593e+06
2.45389e+06
2.41222e+06
2.37088e+06
2.32992e+06
2.28929e+06
2.24904e+06
2.20911e+06
2.16957e+06
2.13035e+06
2.09152e+06
2.053e+06
2.01486e+06
1.97704e+06
1.9396e+06
1.90247e+06
1.86572e+06
1.82926e+06
1.7932e+06
1.7574e+06
1.722e+06
1.68684e+06
1.65208e+06
1.61754e+06
1.58339e+06
1.54942e+06
1.51583e+06
1.48238e+06
1.44929e+06
1.41627e+06
1.38359e+06
1.3509e+06
1.31849e+06
1.28596e+06
1.25366e+06
1.22107e+06
1.18862e+06
1.15568e+06
1.12273e+06
1.08907e+06
1.05518e+06
1.02034e+06
984987
948485
911194
872689
833260
792910
5.47193e+06
5.36659e+06
5.26682e+06
5.17259e+06
5.08364e+06
4.9995e+06
4.91967e+06
4.84361e+06
4.77083e+06
4.70088e+06
4.63336e+06
4.56794e+06
4.50431e+06
4.44225e+06
4.38155e+06
4.32204e+06
4.26358e+06
4.20605e+06
4.14935e+06
4.0934e+06
4.03812e+06
3.98343e+06
3.92932e+06
3.87579e+06
3.82275e+06
3.77016e+06
3.71802e+06
3.66631e+06
3.61503e+06
3.56414e+06
3.51364e+06
3.46353e+06
3.4138e+06
3.36445e+06
3.31546e+06
3.26682e+06
3.21852e+06
3.17057e+06
3.12296e+06
3.0757e+06
3.02882e+06
2.98232e+06
2.93621e+06
2.89049e+06
2.84518e+06
2.80022e+06
2.75569e+06
2.71146e+06
2.66765e+06
2.62417e+06
2.58107e+06
2.53831e+06
2.49593e+06
2.45388e+06
2.41221e+06
2.37087e+06
2.32991e+06
2.28928e+06
2.24903e+06
2.20911e+06
2.16957e+06
2.13035e+06
2.09151e+06
2.05299e+06
2.01485e+06
1.97703e+06
1.93959e+06
1.90245e+06
1.8657e+06
1.82924e+06
1.79317e+06
1.75737e+06
1.72196e+06
1.6868e+06
1.65203e+06
1.61748e+06
1.58332e+06
1.54933e+06
1.51573e+06
1.48225e+06
1.44915e+06
1.4161e+06
1.3834e+06
1.35065e+06
1.31822e+06
1.28562e+06
1.25328e+06
1.2206e+06
1.1881e+06
1.15505e+06
1.12203e+06
1.08825e+06
1.05427e+06
1.01932e+06
983861
947288
909920
871424
832025
791786
5.47406e+06
5.36888e+06
5.26913e+06
5.17482e+06
5.0857e+06
5.00135e+06
4.92129e+06
4.84501e+06
4.77202e+06
4.70189e+06
4.63421e+06
4.56864e+06
4.5049e+06
4.44274e+06
4.38195e+06
4.32237e+06
4.26385e+06
4.20627e+06
4.14952e+06
4.09353e+06
4.03821e+06
3.9835e+06
3.92938e+06
3.87582e+06
3.82276e+06
3.77015e+06
3.718e+06
3.66628e+06
3.61498e+06
3.56408e+06
3.51358e+06
3.46346e+06
3.41373e+06
3.36437e+06
3.31538e+06
3.26675e+06
3.21846e+06
3.17052e+06
3.12292e+06
3.07567e+06
3.0288e+06
2.9823e+06
2.9362e+06
2.89049e+06
2.84518e+06
2.80022e+06
2.75569e+06
2.71146e+06
2.66765e+06
2.62417e+06
2.58107e+06
2.53831e+06
2.49593e+06
2.45388e+06
2.41221e+06
2.37087e+06
2.32991e+06
2.28928e+06
2.24903e+06
2.20911e+06
2.16956e+06
2.13034e+06
2.0915e+06
2.05298e+06
2.01485e+06
1.97702e+06
1.93958e+06
1.90244e+06
1.86569e+06
1.82922e+06
1.79315e+06
1.75734e+06
1.72193e+06
1.68676e+06
1.65199e+06
1.61743e+06
1.58326e+06
1.54926e+06
1.51565e+06
1.48216e+06
1.44904e+06
1.41596e+06
1.38325e+06
1.35046e+06
1.31801e+06
1.28536e+06
1.25299e+06
1.22024e+06
1.1877e+06
1.15457e+06
1.1215e+06
1.08763e+06
1.05358e+06
1.01855e+06
983020
946400
908971
870484
831111
790948
5.47546e+06
5.37038e+06
5.27066e+06
5.1763e+06
5.08707e+06
5.00259e+06
4.92238e+06
4.84595e+06
4.77282e+06
4.70256e+06
4.63477e+06
4.56912e+06
4.5053e+06
4.44307e+06
4.38223e+06
4.32259e+06
4.26403e+06
4.20641e+06
4.14964e+06
4.09362e+06
4.03828e+06
3.98355e+06
3.92942e+06
3.87583e+06
3.82276e+06
3.77014e+06
3.71798e+06
3.66625e+06
3.61495e+06
3.56405e+06
3.51354e+06
3.46342e+06
3.41368e+06
3.36432e+06
3.31533e+06
3.2667e+06
3.21842e+06
3.17048e+06
3.12289e+06
3.07565e+06
3.02878e+06
2.98229e+06
2.9362e+06
2.89049e+06
2.84518e+06
2.80022e+06
2.75569e+06
2.71146e+06
2.66765e+06
2.62417e+06
2.58107e+06
2.53831e+06
2.49593e+06
2.45388e+06
2.41221e+06
2.37087e+06
2.32991e+06
2.28928e+06
2.24903e+06
2.2091e+06
2.16956e+06
2.13034e+06
2.0915e+06
2.05298e+06
2.01484e+06
1.97701e+06
1.93957e+06
1.90243e+06
1.86568e+06
1.82921e+06
1.79314e+06
1.75732e+06
1.72191e+06
1.68674e+06
1.65197e+06
1.6174e+06
1.58323e+06
1.54922e+06
1.51561e+06
1.4821e+06
1.44897e+06
1.41588e+06
1.38315e+06
1.35034e+06
1.31787e+06
1.28519e+06
1.25279e+06
1.22001e+06
1.18743e+06
1.15426e+06
1.12114e+06
1.08723e+06
1.05312e+06
1.01805e+06
982457
945813
908338
869861
830507
790392
5.47615e+06
5.37113e+06
5.27143e+06
5.17704e+06
5.08776e+06
5.00321e+06
4.92292e+06
4.84642e+06
4.77323e+06
4.7029e+06
4.63506e+06
4.56936e+06
4.5055e+06
4.44323e+06
4.38236e+06
4.32271e+06
4.26412e+06
4.20648e+06
4.14969e+06
4.09366e+06
4.03831e+06
3.98357e+06
3.92943e+06
3.87584e+06
3.82275e+06
3.77014e+06
3.71797e+06
3.66624e+06
3.61493e+06
3.56403e+06
3.51352e+06
3.4634e+06
3.41366e+06
3.3643e+06
3.31531e+06
3.26668e+06
3.2184e+06
3.17047e+06
3.12288e+06
3.07564e+06
3.02878e+06
2.98229e+06
2.93619e+06
2.89049e+06
2.84518e+06
2.80022e+06
2.75568e+06
2.71146e+06
2.66765e+06
2.62417e+06
2.58107e+06
2.53831e+06
2.49593e+06
2.45388e+06
2.41221e+06
2.37087e+06
2.32991e+06
2.28928e+06
2.24903e+06
2.2091e+06
2.16956e+06
2.13034e+06
2.0915e+06
2.05297e+06
2.01484e+06
1.97701e+06
1.93957e+06
1.90242e+06
1.86567e+06
1.8292e+06
1.79313e+06
1.75732e+06
1.72191e+06
1.68673e+06
1.65195e+06
1.61738e+06
1.58321e+06
1.5492e+06
1.51558e+06
1.48207e+06
1.44894e+06
1.41583e+06
1.3831e+06
1.35028e+06
1.31781e+06
1.2851e+06
1.2527e+06
1.2199e+06
1.1873e+06
1.15411e+06
1.12097e+06
1.08703e+06
1.0529e+06
1.0178e+06
982180
945522
908028
869552
830209
790125
4.84488e+06
4.83768e+06
4.82358e+06
4.80309e+06
4.77687e+06
4.74563e+06
4.71005e+06
4.67078e+06
4.62849e+06
4.58375e+06
4.53703e+06
4.48874e+06
4.43921e+06
4.38877e+06
4.33763e+06
4.28594e+06
4.23387e+06
4.18153e+06
4.12907e+06
4.07658e+06
4.02414e+06
3.97178e+06
3.91955e+06
3.86744e+06
3.81548e+06
3.76372e+06
3.71225e+06
3.66113e+06
3.61037e+06
3.55997e+06
3.50992e+06
3.46022e+06
3.41086e+06
3.36185e+06
3.31318e+06
3.26484e+06
3.21685e+06
3.16919e+06
3.12187e+06
3.0749e+06
3.02826e+06
2.98198e+06
2.93604e+06
2.89045e+06
2.84522e+06
2.80033e+06
2.7558e+06
2.71162e+06
2.66779e+06
2.62432e+06
2.58121e+06
2.53845e+06
2.49606e+06
2.45402e+06
2.41234e+06
2.37102e+06
2.33007e+06
2.28947e+06
2.24923e+06
2.20936e+06
2.16984e+06
2.13069e+06
2.0919e+06
2.05347e+06
2.01541e+06
1.97771e+06
1.94039e+06
1.90343e+06
1.86685e+06
1.83064e+06
1.79481e+06
1.75936e+06
1.72431e+06
1.68965e+06
1.65539e+06
1.62155e+06
1.58813e+06
1.55514e+06
1.52261e+06
1.49054e+06
1.45897e+06
1.42791e+06
1.3974e+06
1.36748e+06
1.33819e+06
1.30959e+06
1.28173e+06
1.25471e+06
1.2286e+06
1.20353e+06
1.17962e+06
1.15704e+06
1.13596e+06
1.1166e+06
1.09921e+06
1.08406e+06
1.07143e+06
1.06162e+06
1.05487e+06
1.05144e+06
4.84616e+06
4.83891e+06
4.82472e+06
4.80412e+06
4.77779e+06
4.74643e+06
4.71074e+06
4.67136e+06
4.62898e+06
4.58417e+06
4.53738e+06
4.48903e+06
4.43946e+06
4.38898e+06
4.33782e+06
4.2861e+06
4.234e+06
4.18164e+06
4.12916e+06
4.07666e+06
4.0242e+06
3.97184e+06
3.9196e+06
3.86748e+06
3.81552e+06
3.76375e+06
3.71228e+06
3.66115e+06
3.61038e+06
3.55998e+06
3.50993e+06
3.46023e+06
3.41087e+06
3.36186e+06
3.31318e+06
3.26485e+06
3.21685e+06
3.16919e+06
3.12188e+06
3.0749e+06
3.02827e+06
2.98198e+06
2.93604e+06
2.89045e+06
2.84522e+06
2.80033e+06
2.7558e+06
2.71162e+06
2.66779e+06
2.62432e+06
2.58121e+06
2.53845e+06
2.49606e+06
2.45402e+06
2.41234e+06
2.37102e+06
2.33006e+06
2.28947e+06
2.24923e+06
2.20935e+06
2.16984e+06
2.13069e+06
2.0919e+06
2.05347e+06
2.01541e+06
1.97771e+06
1.94038e+06
1.90343e+06
1.86684e+06
1.83063e+06
1.7948e+06
1.75936e+06
1.7243e+06
1.68964e+06
1.65538e+06
1.62154e+06
1.58811e+06
1.55512e+06
1.52258e+06
1.49051e+06
1.45893e+06
1.42787e+06
1.39736e+06
1.36743e+06
1.33813e+06
1.30951e+06
1.28164e+06
1.2546e+06
1.22847e+06
1.20337e+06
1.17943e+06
1.15681e+06
1.13569e+06
1.11629e+06
1.09885e+06
1.08364e+06
1.07096e+06
1.06109e+06
1.05431e+06
1.05085e+06
4.84872e+06
4.84137e+06
4.827e+06
4.80619e+06
4.77963e+06
4.74804e+06
4.71212e+06
4.67253e+06
4.62996e+06
4.585e+06
4.53808e+06
4.48962e+06
4.43998e+06
4.38944e+06
4.33821e+06
4.28644e+06
4.23428e+06
4.18187e+06
4.12935e+06
4.07682e+06
4.02433e+06
3.97195e+06
3.9197e+06
3.86758e+06
3.8156e+06
3.76382e+06
3.71232e+06
3.66118e+06
3.61041e+06
3.56e+06
3.50995e+06
3.46024e+06
3.41088e+06
3.36187e+06
3.31319e+06
3.26486e+06
3.21686e+06
3.1692e+06
3.12188e+06
3.0749e+06
3.02827e+06
2.98198e+06
2.93605e+06
2.89046e+06
2.84522e+06
2.80033e+06
2.7558e+06
2.71162e+06
2.66779e+06
2.62432e+06
2.58121e+06
2.53845e+06
2.49605e+06
2.45402e+06
2.41234e+06
2.37102e+06
2.33006e+06
2.28947e+06
2.24923e+06
2.20935e+06
2.16984e+06
2.13068e+06
2.09189e+06
2.05347e+06
2.0154e+06
1.97771e+06
1.94038e+06
1.90342e+06
1.86683e+06
1.83062e+06
1.79479e+06
1.75935e+06
1.72429e+06
1.68962e+06
1.65536e+06
1.62151e+06
1.58808e+06
1.55509e+06
1.52254e+06
1.49046e+06
1.45887e+06
1.4278e+06
1.39727e+06
1.36732e+06
1.338e+06
1.30936e+06
1.28146e+06
1.25438e+06
1.22821e+06
1.20306e+06
1.17906e+06
1.15636e+06
1.13516e+06
1.11566e+06
1.09812e+06