/*--------------------------------*- C++ -*----------------------------------*\
| =========                 |                                                 |
| \\      /  F ield         | OpenFOAM: The Open Source CFD Toolbox           |
|  \\    /   O peration     | Version:  2.4.0                                 |
|   \\  /    A nd           | Web:      www.OpenFOAM.org                      |
|    \\/     M anipulation  |                                                 |
\*---------------------------------------------------------------------------*/
FoamFile
{
    version     2.0;
    format      ascii;
    class       surfaceScalarField;
    location    "0.014";
    object      phi;
}
// * * * * * * * * * * * * * * * * * * * * * * * * * * * * * * * * * * * * * //

dimensions      [0 3 -1 0 0 0 0];

internalField   nonuniform List<scalar> 
34880
(
5.48932e-06
7.01068e-06
3.12931e-06
2.36001e-06
2.46604e-06
6.63273e-07
2.20328e-06
2.62752e-07
2.08302e-06
1.2026e-07
1.98105e-06
1.01977e-07
1.85839e-06
1.22652e-07
1.80102e-06
5.7378e-08
1.81567e-06
-1.465e-08
1.85301e-06
-3.734e-08
1.82889e-06
2.41118e-08
1.81917e-06
9.72121e-09
1.82545e-06
-6.27431e-09
1.81677e-06
8.67595e-09
1.84391e-06
-2.71327e-08
1.82349e-06
2.04174e-08
1.84231e-06
-1.88244e-08
1.85311e-06
-1.08025e-08
1.72733e-06
1.25785e-07
-8.2418e-07
2.55151e-06
1.01162e-05
9.3945e-06
7.8407e-06
4.63548e-06
6.69011e-06
1.81387e-06
6.04068e-06
9.12181e-07
5.6752e-06
4.85738e-07
5.35871e-06
4.18466e-07
5.05949e-06
4.21876e-07
4.93288e-06
1.83989e-07
4.96364e-06
-4.54097e-08
5.01146e-06
-8.5159e-08
4.97279e-06
6.27759e-08
4.9582e-06
2.43163e-08
4.946e-06
5.92192e-09
4.96564e-06
-1.09569e-08
4.97209e-06
-3.35828e-08
4.96644e-06
2.60658e-08
4.99786e-06
-5.02473e-08
4.99662e-06
-9.56318e-09
4.86942e-06
2.52985e-07
-1.23045e-06
5.27569e-06
1.24333e-05
9.46123e-06
1.10235e-05
6.04528e-06
9.95349e-06
2.88386e-06
9.1724e-06
1.69327e-06
8.6606e-06
9.97538e-07
8.19887e-06
8.80193e-07
7.7766e-06
8.4415e-07
7.58346e-06
3.77133e-07
7.60295e-06
-6.49074e-08
7.6419e-06
-1.24105e-07
7.59719e-06
1.07485e-07
7.58337e-06
3.81376e-08
7.54386e-06
4.54331e-08
7.59531e-06
-6.24129e-08
7.57028e-06
-8.55101e-09
7.57872e-06
1.76324e-08
7.62517e-06
-9.67008e-08
7.59583e-06
1.97791e-08
7.56869e-06
2.80125e-07
-1.12079e-06
7.45903e-06
1.34191e-05
8.54211e-06
1.29216e-05
6.54283e-06
1.23028e-05
3.50262e-06
1.16758e-05
2.32029e-06
1.11786e-05
1.49473e-06
1.0673e-05
1.38579e-06
1.01849e-05
1.33226e-06
9.93727e-06
6.24757e-07
9.92884e-06
-5.6483e-08
9.949e-06
-1.4426e-07
9.89204e-06
1.6444e-07
9.88677e-06
4.34081e-08
9.81707e-06
1.15134e-07
9.88637e-06
-1.31714e-07
9.84837e-06
2.94472e-08
9.84556e-06
2.04499e-08
9.91894e-06
-1.70083e-07
9.83923e-06
9.94884e-08
9.9028e-06
2.16553e-07
-1.04554e-06
9.82756e-06
1.35915e-05
7.45057e-06
1.37087e-05
6.42567e-06
1.36185e-05
3.59279e-06
1.33524e-05
2.58636e-06
1.3055e-05
1.79216e-06
1.26458e-05
1.79497e-06
1.21879e-05
1.79019e-06
1.19259e-05
8.86791e-07
1.18858e-05
-1.63982e-08
1.18855e-05
-1.43943e-07
1.18129e-05
2.37065e-07
1.18142e-05
4.21076e-08
1.17291e-05
2.00161e-07
1.17829e-05
-1.85443e-07
1.17606e-05
5.17208e-08
1.17306e-05
5.04827e-08
1.18154e-05
-2.54916e-07
1.1687e-05
2.27831e-07
1.17973e-05
1.06262e-07
-1.21704e-06
1.19688e-05
1.347e-05
6.48062e-06
1.38094e-05
6.08619e-06
1.40266e-05
3.37565e-06
1.40987e-05
2.51422e-06
1.40993e-05
1.79157e-06
1.39246e-05
1.96971e-06
1.36206e-05
2.09412e-06
1.3427e-05
1.08041e-06
1.33734e-05
3.72118e-08
1.33674e-05
-1.37935e-07
1.32872e-05
3.17281e-07
1.32852e-05
4.40362e-08
1.3207e-05
2.78423e-07
1.3219e-05
-1.9746e-07
1.32143e-05
5.6414e-08
1.31735e-05
9.129e-08
1.323e-05
-3.1139e-07
1.30801e-05
3.77745e-07
1.32929e-05
-1.06536e-07
-1.75975e-06
1.38356e-05
1.33442e-05
5.6364e-06
1.37324e-05
5.69799e-06
1.39829e-05
3.12515e-06
1.4203e-05
2.29417e-06
1.43779e-05
1.61663e-06
1.44303e-05
1.91735e-06
1.43475e-05
2.17691e-06
1.42965e-05
1.13138e-06
1.42783e-05
5.54084e-08
1.42807e-05
-1.40275e-07
1.42259e-05
3.72074e-07
1.42078e-05
6.21168e-08
1.41538e-05
3.32458e-07
1.41132e-05
-1.56893e-07
1.41219e-05
4.7692e-08
1.40716e-05
1.41583e-07
1.40695e-05
-3.09253e-07
1.39985e-05
4.48758e-07
1.42957e-05
-4.03794e-07
-2.09172e-06
1.46277e-05
1.32549e-05
4.88151e-06
1.36855e-05
5.26736e-06
1.38528e-05
2.95789e-06
1.41204e-05
2.02656e-06
1.43049e-05
1.43212e-06
1.44441e-05
1.7781e-06
1.45139e-05
2.10712e-06
1.45775e-05
1.06776e-06
1.46092e-05
2.3745e-08
1.45945e-05
-1.25621e-07
1.45966e-05
3.70001e-07
1.45641e-05
9.46147e-08
1.44853e-05
4.1129e-07
1.44731e-05
-1.44721e-07
1.44478e-05
7.30442e-08
1.43296e-05
2.5972e-07
1.44107e-05
-3.90292e-07
1.44451e-05
4.14321e-07
1.46212e-05
-5.79893e-07
-1.78319e-06
1.43127e-05
1.31797e-05
4.20176e-06
1.36174e-05
4.82973e-06
1.37574e-05
2.81785e-06
1.4022e-05
1.76195e-06
1.41972e-05
1.25691e-06
1.43346e-05
1.64078e-06
1.44697e-05
1.97198e-06
1.45786e-05
9.58898e-07
1.45817e-05
2.05773e-08
1.46136e-05
-1.57509e-07
1.45737e-05
4.09892e-07
1.45705e-05
9.77969e-08
1.45296e-05
4.52209e-07
1.44809e-05
-9.60347e-08
1.44344e-05
1.19585e-07
1.44326e-05
2.61531e-07
1.44338e-05
-3.91519e-07
1.45157e-05
3.3239e-07
1.45133e-05
-5.77435e-07
-1.56005e-06
1.42902e-05
1.31062e-05
3.59557e-06
1.35552e-05
4.38076e-06
1.36884e-05
2.68457e-06
1.39437e-05
1.50673e-06
1.40999e-05
1.10064e-06
1.4248e-05
1.49271e-06
1.43989e-05
1.82108e-06
1.44996e-05
8.58227e-07
1.4516e-05
4.18831e-09
1.45171e-05
-1.58618e-07
1.45012e-05
4.25786e-07
1.45204e-05
7.86232e-08
1.4468e-05
5.04583e-07
1.44285e-05
-5.65167e-08
1.44702e-05
7.78561e-08
1.43755e-05
3.5622e-07
1.44324e-05
-4.48445e-07
1.45468e-05
2.1801e-07
1.44961e-05
-5.26708e-07
-1.5221e-06
1.44581e-05
1.30396e-05
3.05599e-06
1.34937e-05
3.9266e-06
1.36425e-05
2.5358e-06
1.38748e-05
1.27441e-06
1.40222e-05
9.53264e-07
1.41781e-05
1.33685e-06
1.43295e-05
1.66962e-06
1.44401e-05
7.47647e-07
1.44319e-05
1.23727e-08
1.44416e-05
-1.68283e-07
1.44389e-05
4.28483e-07
1.44502e-05
6.73267e-08
1.44282e-05
5.26535e-07
1.44255e-05
-5.37527e-08
1.44092e-05
9.4079e-08
1.44011e-05
3.64394e-07
1.44464e-05
-4.93755e-07
1.44976e-05
1.66808e-07
1.45137e-05
-5.42835e-07
-1.57736e-06
1.4569e-05
1.29803e-05
2.57564e-06
1.34357e-05
3.47126e-06
1.36117e-05
2.3598e-06
1.38184e-05
1.06774e-06
1.3957e-05
8.14583e-07
1.41129e-05
1.18096e-06
1.42772e-05
1.50534e-06
1.43749e-05
6.49954e-07
1.43693e-05
1.79851e-08
1.43784e-05
-1.77401e-07
1.4376e-05
4.3089e-07
1.4396e-05
4.73161e-08
1.44075e-05
5.15049e-07
1.43768e-05
-2.30012e-08
1.44024e-05
6.84236e-08
1.44173e-05
3.49452e-07
1.44114e-05
-4.87852e-07
1.45004e-05
7.78661e-08
1.45954e-05
-6.37874e-07
-1.64286e-06
1.46609e-05
1.29292e-05
2.14644e-06
1.33815e-05
3.01894e-06
1.35984e-05
2.14293e-06
1.37724e-05
8.93692e-07
1.38992e-05
6.87798e-07
1.40595e-05
1.02072e-06
1.42235e-05
1.34133e-06
1.43254e-05
5.48009e-07
1.43129e-05
3.04913e-08
1.43174e-05
-1.81935e-07
1.43295e-05
4.18838e-07
1.43563e-05
2.04819e-08
1.43665e-05
5.04835e-07
1.43613e-05
-1.77291e-08
1.43995e-05
3.01764e-08
1.43898e-05
3.59194e-07
1.4418e-05
-5.16101e-07
1.45351e-05
-3.92059e-08
1.45805e-05
-6.83309e-07
-1.33296e-06
1.42706e-05
1.28854e-05
1.76102e-06
1.33327e-05
2.57165e-06
1.35896e-05
1.88602e-06
1.37348e-05
7.48525e-07
1.38511e-05
5.71454e-07
1.40098e-05
8.62032e-07
1.41822e-05
1.16891e-06
1.42774e-05
4.52871e-07
1.42659e-05
4.19488e-08
1.42692e-05
-1.85161e-07
1.4285e-05
4.02955e-07
1.43141e-05
-8.59257e-09
1.43492e-05
4.69743e-07
1.43423e-05
-1.0845e-08
1.43771e-05
-4.64536e-09
1.44043e-05
3.32037e-07
1.44192e-05
-5.31005e-07
1.45084e-05
-1.28383e-07
1.45033e-05
-6.78224e-07
-1.22982e-06
1.44001e-05
1.28485e-05
1.41249e-06
1.32899e-05
2.13028e-06
1.35726e-05
1.60328e-06
1.37051e-05
6.16104e-07
1.38105e-05
4.65971e-07
1.39694e-05
7.03131e-07
1.41431e-05
9.95248e-07
1.42401e-05
3.55841e-07
1.42253e-05
5.67387e-08
1.42249e-05
-1.84746e-07
1.42556e-05
3.7227e-07
1.42785e-05
-3.1489e-08
1.43294e-05
4.18835e-07
1.43241e-05
-5.55136e-09
1.43686e-05
-4.91616e-08
1.44084e-05
2.92274e-07
1.44085e-05
-5.31104e-07
1.44799e-05
-1.99775e-07
1.44982e-05
-6.96536e-07
-1.46367e-06
1.47321e-05
1.28181e-05
1.09443e-06
1.32537e-05
1.69463e-06
1.3554e-05
1.30302e-06
1.36816e-05
4.88454e-07
1.37782e-05
3.69441e-07
1.39346e-05
5.4671e-07
1.41136e-05
8.1625e-07
1.42066e-05
2.62786e-07
1.41934e-05
6.99538e-08
1.4191e-05
-1.823e-07
1.42236e-05
3.39653e-07
1.42542e-05
-6.21054e-08
1.43131e-05
3.59968e-07
1.43113e-05
-3.74392e-09
1.43624e-05
-1.00271e-07
1.44058e-05
2.4885e-07
1.44001e-05
-5.25408e-07
1.44783e-05
-2.77953e-07
1.45704e-05
-7.88643e-07
-1.60844e-06
1.47152e-05
1.27938e-05
8.00608e-07
1.32245e-05
1.26397e-06
1.35368e-05
9.90647e-07
1.3664e-05
3.61293e-07
1.37527e-05
2.80722e-07
1.39076e-05
3.91883e-07
1.40886e-05
6.35245e-07
1.41811e-05
1.70244e-07
1.41685e-05
8.25854e-08
1.41614e-05
-1.75206e-07
1.42053e-05
2.95705e-07
1.42309e-05
-8.76841e-08
1.42998e-05
2.9108e-07
1.43037e-05
-7.69517e-09
1.43524e-05
-1.48928e-07
1.44054e-05
1.95877e-07
1.4399e-05
-5.19055e-07
1.44961e-05
-3.74988e-07
1.45233e-05
-8.15899e-07
-1.26164e-06
1.41765e-05
1.27757e-05
5.24913e-07
1.32024e-05
8.37279e-07
1.35231e-05
6.69956e-07
1.36513e-05
2.33068e-07
1.37343e-05
1.97747e-07
1.38869e-05
2.39271e-07
1.40708e-05
4.51338e-07
1.41617e-05
7.93421e-08
1.41497e-05
9.45931e-08
1.41409e-05
-1.66396e-07
1.41889e-05
2.4765e-07
1.4215e-05
-1.13763e-07
1.42908e-05
2.15265e-07
1.42969e-05
-1.37458e-08
1.43458e-05
-1.97846e-07
1.44062e-05
1.35483e-07
1.43996e-05
-5.12418e-07
1.44682e-05
-4.4361e-07
1.44313e-05
-7.79063e-07
-1.38363e-06
1.45533e-05
1.27636e-05
2.61285e-07
1.31876e-05
4.13327e-07
1.35135e-05
3.44008e-07
1.36431e-05
1.03481e-07
1.37222e-05
1.18647e-07
1.38732e-05
8.83284e-08
1.4059e-05
2.65493e-07
1.41484e-05
-1.00788e-08
1.41382e-05
1.04821e-07
1.41264e-05
-1.54552e-07
1.41792e-05
1.94804e-07
1.42049e-05
-1.39475e-07
1.42838e-05
1.36336e-07
1.42937e-05
-2.36428e-08
1.4341e-05
-2.45142e-07
1.44054e-05
7.1159e-08
1.43923e-05
-4.99383e-07
1.44546e-05
-5.05927e-07
1.45484e-05
-8.72822e-07
-1.53809e-06
1.47029e-05
1.27576e-05
3.66837e-09
1.31801e-05
-9.17744e-09
1.35087e-05
1.54159e-08
1.3639e-05
-2.68187e-08
1.37164e-05
4.12546e-08
1.38661e-05
-6.13519e-08
1.40534e-05
7.81726e-08
1.41415e-05
-9.82218e-08
1.41329e-05
1.13474e-07
1.41187e-05
-1.40389e-07
1.4175e-05
1.38507e-07
1.41997e-05
-1.64108e-07
1.42803e-05
5.56858e-08
1.42929e-05
-3.62524e-08
1.43379e-05
-2.9008e-07
1.44032e-05
5.86639e-09
1.43931e-05
-4.89367e-07
1.44682e-05
-5.80942e-07
1.44823e-05
-8.86969e-07
-1.25723e-06
1.42014e-05
1.27577e-05
-2.53993e-07
1.31801e-05
-4.31569e-07
1.35088e-05
-3.13359e-07
1.36388e-05
-1.56816e-07
1.37167e-05
-3.66187e-08
1.38657e-05
-2.10324e-07
1.4054e-05
-1.10137e-07
1.41409e-05
-1.85103e-07
1.41339e-05
1.20422e-07
1.4118e-05
-1.24435e-07
1.41761e-05
8.03837e-08
1.41998e-05
-1.87819e-07
1.42799e-05
-2.44014e-08
1.42945e-05
-5.08903e-08
1.43366e-05
-3.32149e-07
1.44023e-05
-5.98813e-08
1.43937e-05
-4.80764e-07
1.44459e-05
-6.33128e-07
1.44469e-05
-8.87982e-07
-1.41216e-06
1.46019e-05
1.27638e-05
-5.1776e-07
1.31874e-05
-8.55178e-07
1.35139e-05
-6.39858e-07
1.36425e-05
-2.85491e-07
1.37231e-05
-1.17172e-07
1.38719e-05
-3.59144e-07
1.40607e-05
-2.989e-07
1.41464e-05
-2.70828e-07
1.41412e-05
1.25588e-07
1.41239e-05
-1.07123e-07
1.41825e-05
2.18089e-08
1.42051e-05
-2.10384e-07
1.42828e-05
-1.02115e-07
1.42985e-05
-6.65878e-08
1.43374e-05
-3.71092e-07
1.44008e-05
-1.23298e-07
1.43913e-05
-4.7127e-07
1.4442e-05
-6.83741e-07
1.44865e-05
-9.3251e-07
-1.41038e-06
1.44847e-05
1.27759e-05
-7.93688e-07
1.3202e-05
-1.2813e-06
1.35236e-05
-9.61458e-07
1.36504e-05
-4.12214e-07
1.37357e-05
-2.0254e-07
1.38849e-05
-5.08277e-07
1.40735e-05
-4.87575e-07
1.41583e-05
-3.55541e-07
1.41549e-05
1.28925e-07
1.41367e-05
-8.89502e-08
1.41943e-05
-3.57832e-08
1.42156e-05
-2.31593e-07
1.42892e-05
-1.75764e-07
1.43046e-05
-8.19789e-08
1.43404e-05
-4.06914e-07
1.43992e-05
-1.82086e-07
1.43926e-05
-4.64674e-07
1.44405e-05
-7.31655e-07
1.445e-05
-9.42009e-07
-1.30882e-06
1.43485e-05
1.27942e-05
-1.08784e-06
1.3224e-05
-1.71114e-06
1.35377e-05
-1.27513e-06
1.36627e-05
-5.37199e-07
1.37548e-05
-2.9473e-07
1.39046e-05
-6.58021e-07
1.40926e-05
-6.75598e-07
1.41765e-05
-4.39434e-07
1.41751e-05
1.30356e-07
1.41565e-05
-7.03964e-08
1.42117e-05
-9.10065e-08
1.42313e-05
-2.51166e-07
1.42991e-05
-2.43579e-07
1.43131e-05
-9.59599e-08
1.43455e-05
-4.39299e-07
1.43981e-05
-2.34664e-07
1.43935e-05
-4.60068e-07
1.44282e-05
-7.66348e-07
1.44395e-05
-9.53303e-07
-1.39785e-06
1.45285e-05
1.28185e-05
-1.40634e-06
1.32531e-05
-2.14573e-06
1.3555e-05
-1.57705e-06
1.36799e-05
-6.62117e-07
1.37808e-05
-3.95566e-07
1.39312e-05
-8.0842e-07
1.41179e-05
-8.62382e-07
1.42013e-05
-5.22761e-07
1.42019e-05
1.29738e-07
1.41834e-05
-5.19208e-08
1.42349e-05
-1.42527e-07
1.42524e-05
-2.68684e-07
1.43128e-05
-3.0395e-07
1.43241e-05
-1.07211e-07
1.43526e-05
-4.67839e-07
1.4397e-05
-2.79057e-07
1.43942e-05
-4.57277e-07
1.44266e-05
-7.98741e-07
1.44482e-05
-9.74942e-07
-1.31491e-06
1.43653e-05
1.28491e-05
-1.7554e-06
1.32891e-05
-2.5858e-06
1.35739e-05
-1.86184e-06
1.37028e-05
-7.91049e-07
1.38139e-05
-5.06633e-07
1.39647e-05
-9.59183e-07
1.41496e-05
-1.0473e-06
1.42327e-05
-6.05856e-07
1.42356e-05
1.26845e-07
1.42176e-05
-3.39643e-08
1.42642e-05
-1.89058e-07
1.42792e-05
-2.83686e-07
1.43304e-05
-3.55177e-07
1.43376e-05
-1.1443e-07
1.43618e-05
-4.91989e-07
1.43965e-05
-3.13832e-07
1.43966e-05
-4.57337e-07
1.44187e-05
-8.20866e-07
1.44192e-05
-9.75395e-07
-1.34178e-06
1.4446e-05
1.28861e-05
-2.14147e-06
1.33318e-05
-3.0315e-06
1.35911e-05
-2.12115e-06
1.37323e-05
-9.32254e-07
1.38548e-05
-6.29158e-07
1.40052e-05
-1.10961e-06
1.41876e-05
-1.22969e-06
1.42709e-05
-6.89152e-07
1.42764e-05
1.21335e-07
1.42594e-05
-1.69401e-08
1.42998e-05
-2.294e-07
1.43117e-05
-2.95624e-07
1.4352e-05
-3.95475e-07
1.4354e-05
-1.16426e-07
1.43729e-05
-5.10879e-07
1.43965e-05
-3.37499e-07
1.43984e-05
-4.5918e-07
1.44136e-05
-8.36084e-07
1.44292e-05
-9.90972e-07
-1.31952e-06
1.44069e-05
1.29299e-05
-2.57141e-06
1.33805e-05
-3.48204e-06
1.36001e-05
-2.34077e-06
1.37693e-05
-1.1015e-06
1.39039e-05
-7.63745e-07
1.40529e-05
-1.25862e-06
1.42321e-05
-1.40882e-06
1.43161e-05
-7.73185e-07
1.43247e-05
1.12707e-07
1.4309e-05
-1.24966e-09
1.43421e-05
-2.62451e-07
1.43503e-05
-3.03874e-07
1.43778e-05
-4.22962e-07
1.43735e-05
-1.12042e-07
1.43858e-05
-5.23249e-07
1.43973e-05
-3.49005e-07
1.44016e-05
-4.63456e-07
1.44081e-05
-8.42572e-07
1.44095e-05
-9.92402e-07
-1.31275e-06
1.44028e-05
1.29812e-05
-3.05264e-06
1.34344e-05
-3.93525e-06
1.36137e-05
-2.52002e-06
1.38152e-05
-1.30296e-06
1.39615e-05
-9.10108e-07
1.41077e-05
-1.40485e-06
1.42829e-05
-1.58396e-06
1.43684e-05
-8.58657e-07
1.43808e-05
1.00241e-07
1.43669e-05
1.27142e-08
1.43916e-05
-2.87209e-07
1.43955e-05
-3.07733e-07
1.44081e-05
-4.35581e-07
1.43963e-05
-1.00247e-07
1.44005e-05
-5.27476e-07
1.43991e-05
-3.47535e-07
1.44048e-05
-4.69172e-07
1.44013e-05
-8.39081e-07
1.44102e-05
-1.00135e-06
-1.33218e-06
1.44297e-05
1.30404e-05
-3.59308e-06
1.34925e-05
-4.38735e-06
1.36447e-05
-2.67222e-06
1.38711e-05
-1.5293e-06
1.40281e-05
-1.06716e-06
1.41699e-05
-1.54661e-06
1.43402e-05
-1.75431e-06
1.44282e-05
-9.46659e-07
1.44455e-05
8.2971e-08
1.44337e-05
2.44805e-08
1.44492e-05
-3.02667e-07
1.44477e-05
-3.06276e-07
1.44432e-05
-4.31018e-07
1.4423e-05
-8.00485e-08
1.44169e-05
-5.21371e-07
1.4402e-05
-3.32655e-07
1.44086e-05
-4.75801e-07
1.43952e-05
-8.25609e-07
1.44018e-05
-1.00798e-06
-1.34328e-06
1.44129e-05
1.31073e-05
-4.20042e-06
1.35534e-05
-4.8334e-06
1.36916e-05
-2.81041e-06
1.39391e-05
-1.7768e-06
1.4106e-05
-1.23405e-06
1.42414e-05
-1.68201e-06
1.44049e-05
-1.91788e-06
1.44965e-05
-1.03823e-06
1.45203e-05
5.91274e-08
1.45116e-05
3.32096e-08
1.45167e-05
-3.07734e-07
1.45084e-05
-2.97961e-07
1.44839e-05
-4.06511e-07
1.44541e-05
-5.02937e-08
1.44346e-05
-5.01891e-07
1.44065e-05
-3.045e-07
1.44121e-05
-4.81417e-07
1.43849e-05
-7.98395e-07
1.43966e-05
-1.01974e-06
-1.3946e-06
1.4448e-05
1.31801e-05
-4.88056e-06
1.36169e-05
-5.27018e-06
1.37584e-05
-2.95189e-06
1.40204e-05
-2.03883e-06
1.42001e-05
-1.41371e-06
1.433e-05
-1.81191e-06
1.4477e-05
-2.06484e-06
1.45668e-05
-1.12809e-06
1.45994e-05
2.64864e-08
1.45959e-05
3.67758e-08
1.45898e-05
-3.01618e-07
1.45728e-05
-2.80993e-07
1.45264e-05
-3.60103e-07
1.44871e-05
-1.09674e-08
1.44499e-05
-4.64699e-07
1.44097e-05
-2.64318e-07
1.44098e-05
-4.81507e-07
1.43665e-05
-7.55115e-07
1.43812e-05
-1.03449e-06
-1.42398e-06
1.44106e-05
1.32562e-05
-5.63676e-06
1.36835e-05
-5.69743e-06
1.38567e-05
-3.12513e-06
1.41144e-05
-2.29652e-06
1.4313e-05
-1.6123e-06
1.44348e-05
-1.93372e-06
1.45227e-05
-2.15274e-06
1.45732e-05
-1.17865e-06
1.46056e-05
-5.9138e-09
1.46045e-05
3.78869e-08
1.4586e-05
-2.83109e-07
1.45611e-05
-2.56037e-07
1.44996e-05
-2.98585e-07
1.44619e-05
2.66628e-08
1.44055e-05
-4.08323e-07
1.43595e-05
-2.1831e-07
1.43457e-05
-4.67712e-07
1.4281e-05
-6.90398e-07
1.42745e-05
-1.02799e-06
-1.35166e-06
1.42022e-05
1.33442e-05
-6.48099e-06
1.37322e-05
-6.08539e-06
1.39838e-05
-3.37676e-06
1.42013e-05
-2.51402e-06
1.43806e-05
-1.79161e-06
1.44246e-05
-1.97771e-06
1.43546e-05
-2.08271e-06
1.42877e-05
-1.11175e-06
1.42851e-05
-3.31162e-09
1.42681e-05
5.4844e-08
1.42293e-05
-2.44252e-07
1.41959e-05
-2.22676e-07
1.41299e-05
-2.32563e-07
1.41132e-05
4.33313e-08
1.40439e-05
-3.39044e-07
1.40017e-05
-1.76106e-07
1.3967e-05
-4.32989e-07
1.38779e-05
-6.01272e-07
1.38185e-05
-9.68631e-07
-1.31671e-06
1.37836e-05
1.34699e-05
-7.45086e-06
1.38097e-05
-6.42519e-06
1.40265e-05
-3.59361e-06
1.40987e-05
-2.5862e-06
1.40997e-05
-1.79257e-06
1.39221e-05
-1.80015e-06
1.36235e-05
-1.78414e-06
1.34196e-05
-9.07769e-07
1.33789e-05
3.73452e-08
1.33496e-05
8.41333e-08
1.32945e-05
-1.89192e-07
1.32522e-05
-1.80309e-07
1.3187e-05
-1.6743e-07
1.31875e-05
4.28842e-08
1.31106e-05
-2.62113e-07
1.30742e-05
-1.39752e-07
1.30155e-05
-3.74303e-07
1.29059e-05
-4.91685e-07
1.27837e-05
-8.46435e-07
-1.21278e-06
1.26798e-05
1.35915e-05
-8.54238e-06
1.37088e-05
-6.54247e-06
1.36184e-05
-3.50318e-06
1.33525e-05
-2.32037e-06
1.30546e-05
-1.49467e-06
1.26449e-05
-1.39042e-06
1.21874e-05
-1.32664e-06
1.1922e-05
-6.42319e-07
1.18858e-05
7.34807e-08
1.18705e-05
9.94229e-08
1.18172e-05
-1.35809e-07
1.17709e-05
-1.34024e-07
1.17146e-05
-1.11188e-07
1.17238e-05
3.37109e-08
1.16466e-05
-1.84918e-07
1.1616e-05
-1.09183e-07
1.15365e-05
-2.94758e-07
1.14154e-05
-3.70589e-07
1.12474e-05
-6.78427e-07
-9.81196e-07
1.10158e-05
1.34191e-05
-9.46147e-06
1.29216e-05
-6.04497e-06
1.23027e-05
-2.8843e-06
1.16757e-05
-1.69336e-06
1.11782e-05
-9.97194e-07
1.0672e-05
-8.84174e-07
1.0184e-05
-8.38637e-07
9.93378e-06
-3.92121e-07
9.92703e-06
8.02323e-08
9.93595e-06
9.05016e-08
9.89059e-06
-9.04547e-08
9.84458e-06
-8.80144e-08
9.80061e-06
-6.72151e-08
9.81188e-06
2.24435e-08
9.74144e-06
-1.14478e-07
9.71402e-06
-8.17602e-08
9.62086e-06
-2.01598e-07
9.50082e-06
-2.50549e-07
9.30567e-06
-4.83278e-07
-6.72216e-07
8.99669e-06
1.24332e-05
-9.39467e-06
1.10235e-05
-4.63525e-06
9.95336e-06
-1.81418e-06
9.17222e-06
-9.12227e-07
8.66036e-06
-4.8533e-07
8.19759e-06
-4.21402e-07
7.77617e-06
-4.17219e-07
7.57935e-06
-1.95305e-07
7.60146e-06
5.81221e-08
7.62978e-06
6.21906e-08
7.59133e-06
-5.20044e-08
7.54974e-06
-4.64296e-08
7.51757e-06
-3.50447e-08
7.52701e-06
1.30079e-08
7.46949e-06
-5.69637e-08
7.44098e-06
-5.32486e-08
7.3477e-06
-1.08318e-07
7.23907e-06
-1.41914e-07
7.03326e-06
-2.77476e-07
-3.65056e-07
6.7261e-06
1.01161e-05
-7.01076e-06
7.84072e-06
-2.3599e-06
6.68996e-06
-6.63413e-07
6.04051e-06
-2.62778e-07
5.67514e-06
-1.1996e-07
5.35722e-06
-1.0348e-07
5.05998e-06
-1.19984e-07
4.92785e-06
-6.31691e-08
4.96428e-06
2.16875e-08
4.99973e-06
2.67448e-08
4.96694e-06
-1.92122e-08
4.9354e-06
-1.48891e-08
4.91263e-06
-1.22819e-08
4.92043e-06
5.20856e-09
4.8801e-06
-1.66308e-08
4.84966e-06
-2.28065e-08
4.77547e-06
-3.41301e-08
4.68514e-06
-5.158e-08
4.50331e-06
-9.56516e-08
-1.34658e-07
4.27291e-06
5.48924e-06
3.12935e-06
2.46594e-06
2.20316e-06
2.0832e-06
1.97972e-06
1.85973e-06
1.79656e-06
1.81825e-06
1.845e-06
1.82578e-06
1.8109e-06
1.79861e-06
1.80382e-06
1.78719e-06
1.76438e-06
1.73025e-06
1.67867e-06
1.58302e-06
1.44837e-06
2.66334e-06
-1.43066e-07
3.12336e-08
3.47251e-06
-6.40935e-07
-1.68238e-07
4.91255e-06
-1.47748e-06
3.74394e-08
5.75177e-06
2.89564e-06
-3.73486e-06
7.13113e-06
4.95016e-06
-6.32951e-06
9.07602e-06
2.83515e-06
-4.78004e-06
1.14571e-05
3.89609e-06
-6.27719e-06
1.26372e-05
7.0328e-06
-8.21284e-06
1.31336e-05
7.21312e-06
-7.70956e-06
1.34533e-05
4.96494e-07
-8.16161e-07
1.27111e-05
-5.96043e-06
6.70262e-06
1.26779e-05
-1.0235e-05
1.02682e-05
1.33932e-05
-1.42256e-05
1.35102e-05
1.34515e-05
-1.71467e-05
1.70884e-05
1.28477e-05
-1.84792e-05
1.9083e-05
1.18442e-05
-1.83259e-05
1.93294e-05
1.07221e-05
-1.76394e-05
1.87615e-05
9.8679e-06
-1.64342e-05
1.72884e-05
9.20637e-06
-1.50734e-05
1.57349e-05
8.72167e-06
-1.39512e-05
1.44359e-05
8.41975e-06
-1.26668e-05
1.29687e-05
8.14624e-06
-1.13446e-05
1.16182e-05
7.85166e-06
-1.0217e-05
1.05115e-05
7.58985e-06
-9.26325e-06
9.52506e-06
7.38881e-06
-8.44956e-06
8.65061e-06
7.23527e-06
-7.73241e-06
7.88594e-06
7.11181e-06
-7.06591e-06
7.18937e-06
7.01253e-06
-6.43234e-06
6.53162e-06
6.93358e-06
-5.83028e-06
5.90923e-06
6.86824e-06
-5.26682e-06
5.33215e-06
6.81125e-06
-4.75139e-06
4.80838e-06
6.76082e-06
-4.28746e-06
4.33789e-06
6.71687e-06
-3.8717e-06
3.91565e-06
6.67925e-06
-3.49823e-06
3.53584e-06
6.64743e-06
-3.16166e-06
3.19349e-06
6.62062e-06
-2.85771e-06
2.88452e-06
6.59805e-06
-2.58298e-06
2.60555e-06
6.57905e-06
-2.33461e-06
2.35362e-06
6.56302e-06
-2.11006e-06
2.12609e-06
6.5495e-06
-1.90706e-06
1.92058e-06
6.53807e-06
-1.72355e-06
1.73498e-06
6.52841e-06
-1.55768e-06
1.56735e-06
6.52022e-06
-1.40775e-06
1.41593e-06
6.51329e-06
-1.27223e-06
1.27916e-06
6.5074e-06
-1.14973e-06
1.15561e-06
6.50241e-06
-1.03901e-06
1.04401e-06
6.49816e-06
-9.38936e-07
9.43182e-07
6.49455e-06
-8.48478e-07
8.52089e-07
6.49148e-06
-7.66716e-07
7.69789e-07
6.48886e-06
-6.92819e-07
6.95438e-07
6.48662e-06
-6.2603e-07
6.28263e-07
6.48472e-06
-5.6566e-07
5.67565e-07
6.48309e-06
-5.11096e-07
5.12723e-07
6.4817e-06
-4.61787e-07
4.63179e-07
6.48051e-06
-4.17225e-07
4.18417e-07
6.47949e-06
-3.76949e-07
3.7797e-07
6.47861e-06
-3.40549e-07
3.41425e-07
6.47786e-06
-3.07661e-07
3.08414e-07
6.47721e-06
-2.77942e-07
2.7859e-07
6.47665e-06
-2.51083e-07
2.51641e-07
6.47617e-06
-2.26812e-07
2.27292e-07
6.47576e-06
-2.04885e-07
2.053e-07
6.4754e-06
-1.85073e-07
1.85433e-07
6.47509e-06
-1.67168e-07
1.67479e-07
6.47482e-06
-1.50988e-07
1.51258e-07
6.47458e-06
-1.36373e-07
1.36608e-07
6.47438e-06
-1.2317e-07
1.23374e-07
6.4742e-06
-1.11235e-07
1.11413e-07
6.47405e-06
-1.00451e-07
1.00605e-07
6.47391e-06
-9.071e-08
9.08455e-08
6.47379e-06
-8.19103e-08
8.20291e-08
6.47369e-06
-7.39551e-08
7.40588e-08
6.4736e-06
-6.6765e-08
6.6856e-08
6.47352e-06
-6.02716e-08
6.03521e-08
6.47345e-06
-5.4405e-08
5.4476e-08
6.47338e-06
-4.9099e-08
4.91611e-08
6.47333e-06
-4.43016e-08
4.43563e-08
6.47328e-06
-3.99691e-08
4.00179e-08
6.47324e-06
-3.60535e-08
3.60967e-08
6.4732e-06
-3.25086e-08
3.25464e-08
6.47317e-06
-2.93007e-08
2.93341e-08
6.47314e-06
-2.64021e-08
2.64322e-08
6.47311e-06
-2.37802e-08
2.38071e-08
6.47309e-06
-2.14023e-08
2.14257e-08
6.47306e-06
-1.92462e-08
1.92669e-08
6.47305e-06
-1.72953e-08
1.73141e-08
6.47303e-06
-1.55266e-08
1.55434e-08
6.47301e-06
-1.39166e-08
1.39311e-08
6.473e-06
-1.24512e-08
1.24639e-08
6.47299e-06
-1.11207e-08
1.11324e-08
6.47298e-06
-9.90876e-09
9.91921e-09
6.47297e-06
-8.79756e-09
8.80637e-09
6.47296e-06
-7.77803e-09
7.7857e-09
6.47296e-06
-6.84522e-09
6.85246e-09
6.47295e-06
-5.9869e-09
5.99336e-09
6.47294e-06
-5.18906e-09
5.19424e-09
6.47294e-06
-4.44614e-09
4.45045e-09
6.47294e-06
-3.75594e-09
3.76009e-09
6.47293e-06
-3.10883e-09
3.11245e-09
6.47293e-06
-2.49291e-09
2.49541e-09
6.47293e-06
-1.90487e-09
1.90693e-09
6.47293e-06
-1.34375e-09
1.34554e-09
6.47292e-06
-8.01706e-10
8.0314e-10
6.47292e-06
-2.69334e-10
2.69781e-10
6.47292e-06
2.60336e-10
-2.60224e-10
6.47292e-06
7.82741e-10
-7.82751e-10
6.47292e-06
1.30678e-09
-1.30721e-09
6.47293e-06
1.84242e-09
-1.84368e-09
6.47293e-06
2.39241e-09
-2.39423e-09
6.47293e-06
2.9567e-09
-2.95853e-09
6.47293e-06
3.54319e-09
-3.54551e-09
6.47294e-06
4.16224e-09
-4.16549e-09
6.47294e-06
4.8171e-09
-4.82101e-09
6.47294e-06
5.50857e-09
-5.51255e-09
6.47295e-06
6.24549e-09
-6.25006e-09
6.47295e-06
7.03968e-09
-7.04533e-09
6.47296e-06
7.89572e-09
-7.90216e-09
6.47297e-06
8.81611e-09
-8.82285e-09
6.47297e-06
9.81173e-09
-9.8193e-09
6.47298e-06
1.08964e-08
-1.09053e-08
6.47299e-06
1.20773e-08
-1.20873e-08
6.473e-06
1.33597e-08
-1.33704e-08
6.47302e-06
1.47577e-08
-1.47695e-08
6.47303e-06
1.62885e-08
-1.6302e-08
6.47304e-06
1.79634e-08
-1.79785e-08
6.47306e-06
1.97921e-08
-1.98083e-08
6.47308e-06
2.17933e-08
-2.18113e-08
6.4731e-06
2.39896e-08
-2.401e-08
6.47312e-06
2.63978e-08
-2.64207e-08
6.47315e-06
2.90344e-08
-2.90592e-08
6.47317e-06
3.1925e-08
-3.19528e-08
6.47321e-06
3.51005e-08
-3.51317e-08
6.47324e-06
3.8586e-08
-3.86209e-08
6.47328e-06
4.24076e-08
-4.2446e-08
6.47332e-06
4.66015e-08
-4.66444e-08
6.47337e-06
5.12098e-08
-5.1258e-08
6.47342e-06
5.62707e-08
-5.63248e-08
6.47348e-06
6.18247e-08
-6.18846e-08
6.47355e-06
6.79231e-08
-6.79903e-08
6.47363e-06
7.46254e-08
-7.4701e-08
6.47371e-06
8.19885e-08
-8.20736e-08
6.47381e-06
9.00741e-08
-9.01692e-08
6.47391e-06
9.89568e-08
-9.9064e-08
6.47404e-06
1.08722e-07
-1.08843e-07
6.47417e-06
1.19455e-07
-1.19591e-07
6.47433e-06
1.31249e-07
-1.31403e-07
6.4745e-06
1.44215e-07
-1.44389e-07
6.4747e-06
1.58478e-07
-1.58675e-07
6.47492e-06
1.74168e-07
-1.7439e-07
6.47517e-06
1.9143e-07
-1.9168e-07
6.47545e-06
2.10431e-07
-2.10712e-07
6.47576e-06
2.31361e-07
-2.31678e-07
6.47612e-06
2.54423e-07
-2.54779e-07
6.47651e-06
2.79856e-07
-2.80249e-07
6.47695e-06
3.07907e-07
-3.08344e-07
6.47742e-06
3.38925e-07
-3.39396e-07
6.47794e-06
3.73162e-07
-3.73678e-07
6.47845e-06
4.11195e-07
-4.11706e-07
6.479e-06
4.53109e-07
-4.53665e-07
6.47941e-06
5.00173e-07
-5.00577e-07
6.47988e-06
5.51609e-07
-5.52085e-07
6.47975e-06
6.1066e-07
-6.10526e-07
6.47982e-06
6.73699e-07
-6.73765e-07
6.47804e-06
7.49054e-07
-7.47274e-07
6.4768e-06
8.25765e-07
-8.24527e-07
6.4711e-06
9.22313e-07
-9.16617e-07
6.4663e-06
1.01422e-06
-1.00941e-06
6.45387e-06
1.13231e-06
-1.11988e-06
6.4411e-06
1.23967e-06
-1.2269e-06
6.4228e-06
1.36505e-06
-1.34676e-06
6.39775e-06
1.48518e-06
-1.46013e-06
6.38163e-06
1.59354e-06
-1.57743e-06
6.3533e-06
1.7117e-06
-1.68337e-06
6.33469e-06
1.82013e-06
-1.80152e-06
6.35316e-06
1.89152e-06
-1.91e-06
6.27607e-06
2.09862e-06
-2.02153e-06
6.41298e-06
2.09166e-06
-2.22857e-06
6.24451e-06
2.44979e-06
-2.28132e-06
6.41462e-06
2.46814e-06
-2.63824e-06
6.34476e-06
2.83521e-06
-2.76536e-06
6.31366e-06
3.06738e-06
-3.03628e-06
6.41667e-06
3.32868e-06
-3.43169e-06
6.33135e-06
3.77141e-06
-3.68608e-06
6.39867e-06
4.00062e-06
-4.06795e-06
6.33119e-06
4.59101e-06
-4.52353e-06
6.3899e-06
4.97326e-06
-5.03197e-06
6.33038e-06
5.55021e-06
-5.4907e-06
6.46567e-06
6.06633e-06
-6.20161e-06
6.28404e-06
6.90092e-06
-6.71928e-06
6.36098e-06
7.53234e-06
-7.60928e-06
6.2778e-06
8.52331e-06
-8.44012e-06
6.25644e-06
9.41648e-06
-9.39511e-06
6.32343e-06
1.05116e-05
-1.05786e-05
6.14652e-06
1.19073e-05
-1.17304e-05
6.15791e-06
1.35402e-05
-1.35515e-05
6.30369e-06
1.50296e-05
-1.51754e-05
6.23876e-06
1.78318e-05
-1.77668e-05
5.38e-06
2.11771e-05
-2.03184e-05
5.51161e-06
2.37265e-05
-2.38581e-05
3.47696e-05
-3.44914e-05
5.23343e-06
5.70565e-06
-5.73028e-07
6.04824e-06
-9.83521e-07
5.27168e-06
-7.00922e-07
5.33934e-06
2.82798e-06
7.34553e-06
2.94397e-06
9.92766e-06
2.53018e-07
1.21016e-05
1.72216e-06
1.24379e-05
6.69647e-06
1.30199e-05
6.63115e-06
1.35006e-05
1.58202e-08
1.33982e-05
-5.85807e-06
1.40826e-05
-1.09194e-05
1.46556e-05
-1.47986e-05
1.41813e-05
-1.66723e-05
1.31314e-05
-1.74293e-05
1.19657e-05
-1.71602e-05
1.07093e-05
-1.6383e-05
9.73899e-06
-1.54639e-05
9.12682e-06
-1.44612e-05
8.69617e-06
-1.35205e-05
8.41743e-06
-1.2388e-05
8.2162e-06
-1.11434e-05
7.9942e-06
-9.99497e-06
7.74699e-06
-9.01604e-06
7.529e-06
-8.23157e-06
7.36423e-06
-7.56764e-06
7.23483e-06
-6.93651e-06
7.12478e-06
-6.32229e-06
7.03194e-06
-5.73744e-06
6.95497e-06
-5.18984e-06
6.88959e-06
-4.68602e-06
6.83241e-06
-4.23028e-06
6.78215e-06
-3.82144e-06
6.73846e-06
-3.45454e-06
6.70092e-06
-3.12412e-06
6.66888e-06
-2.82568e-06
6.6416e-06
-2.5557e-06
6.61835e-06
-2.31137e-06
6.59851e-06
-2.09022e-06
6.58155e-06
-1.8901e-06
6.56703e-06
-1.70903e-06
6.55457e-06
-1.54522e-06
6.54386e-06
-1.39704e-06
6.53465e-06
-1.26301e-06
6.52671e-06
-1.14179e-06
6.51985e-06
-1.03216e-06
6.51393e-06
-9.33011e-07
6.5088e-06
-8.43351e-07
6.50435e-06
-7.62272e-07
6.5005e-06
-6.88962e-07
6.49714e-06
-6.22677e-07
6.49423e-06
-5.62742e-07
6.49168e-06
-5.08554e-07
6.48946e-06
-4.59567e-07
6.48752e-06
-4.15285e-07
6.48583e-06
-3.75251e-07
6.48434e-06
-3.39063e-07
6.48304e-06
-3.06356e-07
6.48189e-06
-2.76795e-07
6.48088e-06
-2.50075e-07
6.47999e-06
-2.25924e-07
6.47921e-06
-2.04101e-07
6.47852e-06
-1.84381e-07
6.4779e-06
-1.66557e-07
6.47736e-06
-1.50447e-07
6.47688e-06
-1.35894e-07
6.47646e-06
-1.22744e-07
6.47608e-06
-1.10857e-07
6.47574e-06
-1.00115e-07
6.47544e-06
-9.0411e-08
6.47518e-06
-8.16436e-08
6.47494e-06
-7.37177e-08
6.47473e-06
-6.65536e-08
6.47454e-06
-6.00824e-08
6.47437e-06
-5.42355e-08
6.47422e-06
-4.89479e-08
6.47408e-06
-4.41669e-08
6.47396e-06
-3.98481e-08
6.47385e-06
-3.59448e-08
6.47376e-06
-3.24116e-08
6.47367e-06
-2.92141e-08
6.47359e-06
-2.63242e-08
6.47352e-06
-2.37101e-08
6.47346e-06
-2.13398e-08
6.47341e-06
-1.91906e-08
6.47335e-06
-1.72452e-08
6.47331e-06
-1.54814e-08
6.47327e-06
-1.38766e-08
6.47323e-06
-1.24159e-08
6.4732e-06
-1.10889e-08
6.47317e-06
-9.88e-09
6.47315e-06
-8.77229e-09
6.47313e-06
-7.75597e-09
6.47311e-06
-6.82536e-09
6.47309e-06
-5.96909e-09
6.47307e-06
-5.17382e-09
6.47306e-06
-4.43337e-09
6.47305e-06
-3.74471e-09
6.47304e-06
-3.099e-09
6.47303e-06
-2.48507e-09
6.47303e-06
-1.8989e-09
6.47302e-06
-1.33896e-09
6.47302e-06