/*--------------------------------*- C++ -*----------------------------------*\
| =========                 |                                                 |
| \\      /  F ield         | OpenFOAM: The Open Source CFD Toolbox           |
|  \\    /   O peration     | Version:  2.4.0                                 |
|   \\  /    A nd           | Web:      www.OpenFOAM.org                      |
|    \\/     M anipulation  |                                                 |
\*---------------------------------------------------------------------------*/
FoamFile
{
    version     2.0;
    format      ascii;
    class       volScalarField;
    location    "0.014";
    object      pPrime2Mean;
}
// * * * * * * * * * * * * * * * * * * * * * * * * * * * * * * * * * * * * * //

dimensions      [0 4 -4 0 0 0 0];

internalField   nonuniform List<scalar> 
17600
(
4.60867e+07
4.49252e+07
4.36758e+07
4.24371e+07
4.12161e+07
4.0013e+07
3.88278e+07
3.76603e+07
3.65106e+07
3.53787e+07
3.42643e+07
3.31674e+07
3.20876e+07
3.10243e+07
2.99765e+07
2.89422e+07
2.79173e+07
2.68939e+07
2.58538e+07
2.47366e+07
4.60876e+07
4.49252e+07
4.36757e+07
4.24371e+07
4.12161e+07
4.0013e+07
3.88278e+07
3.76603e+07
3.65106e+07
3.53787e+07
3.42643e+07
3.31674e+07
3.20876e+07
3.10244e+07
2.99766e+07
2.89423e+07
2.79176e+07
2.68945e+07
2.58553e+07
2.47385e+07
4.60883e+07
4.49251e+07
4.36757e+07
4.24371e+07
4.12161e+07
4.0013e+07
3.88278e+07
3.76603e+07
3.65106e+07
3.53787e+07
3.42643e+07
3.31674e+07
3.20876e+07
3.10244e+07
2.99767e+07
2.89426e+07
2.79181e+07
2.68957e+07
2.58578e+07
2.47494e+07
4.60888e+07
4.49249e+07
4.36756e+07
4.24371e+07
4.12161e+07
4.0013e+07
3.88278e+07
3.76603e+07
3.65107e+07
3.53787e+07
3.42644e+07
3.31674e+07
3.20877e+07
3.10245e+07
2.9977e+07
2.8943e+07
2.7919e+07
2.68973e+07
2.58619e+07
2.47649e+07
4.60892e+07
4.49248e+07
4.36755e+07
4.24371e+07
4.1216e+07
4.0013e+07
3.88277e+07
3.76603e+07
3.65107e+07
3.53787e+07
3.42644e+07
3.31675e+07
3.20878e+07
3.10247e+07
2.99772e+07
2.89436e+07
2.792e+07
2.68996e+07
2.58671e+07
2.47837e+07
4.60895e+07
4.49246e+07
4.36753e+07
4.2437e+07
4.1216e+07
4.0013e+07
3.88277e+07
3.76603e+07
3.65107e+07
3.53787e+07
3.42644e+07
3.31675e+07
3.20879e+07
3.10249e+07
2.99776e+07
2.89442e+07
2.79213e+07
2.69024e+07
2.58735e+07
2.48044e+07
4.60899e+07
4.49245e+07
4.36752e+07
4.2437e+07
4.1216e+07
4.00129e+07
3.88277e+07
3.76603e+07
3.65107e+07
3.53788e+07
3.42645e+07
3.31676e+07
3.2088e+07
3.10251e+07
2.9978e+07
2.8945e+07
2.79229e+07
2.69055e+07
2.58809e+07
2.48261e+07
4.60902e+07
4.49244e+07
4.36751e+07
4.2437e+07
4.1216e+07
4.00129e+07
3.88277e+07
3.76603e+07
3.65107e+07
3.53788e+07
3.42645e+07
3.31677e+07
3.20881e+07
3.10254e+07
2.99785e+07
2.89459e+07
2.79247e+07
2.69092e+07
2.5889e+07
2.48484e+07
4.60905e+07
4.49243e+07
4.3675e+07
4.24369e+07
4.1216e+07
4.00129e+07
3.88277e+07
3.76603e+07
3.65107e+07
3.53788e+07
3.42645e+07
3.31678e+07
3.20883e+07
3.10257e+07
2.9979e+07
2.89469e+07
2.79266e+07
2.69132e+07
2.58978e+07
2.48707e+07
4.60908e+07
4.49243e+07
4.36749e+07
4.24369e+07
4.1216e+07
4.00129e+07
3.88277e+07
3.76603e+07
3.65107e+07
3.53789e+07
3.42646e+07
3.31679e+07
3.20885e+07
3.1026e+07
2.99796e+07
2.89481e+07
2.79288e+07
2.69175e+07
2.59071e+07
2.48929e+07
4.6091e+07
4.49243e+07
4.36748e+07
4.24369e+07
4.1216e+07
4.00129e+07
3.88277e+07
3.76603e+07
3.65108e+07
3.53789e+07
3.42647e+07
3.3168e+07
3.20887e+07
3.10263e+07
2.99803e+07
2.89493e+07
2.79311e+07
2.69221e+07
2.59168e+07
2.49146e+07
4.60912e+07
4.49242e+07
4.36747e+07
4.24369e+07
4.1216e+07
4.00129e+07
3.88277e+07
3.76603e+07
3.65108e+07
3.53789e+07
3.42647e+07
3.31681e+07
3.20889e+07
3.10267e+07
2.9981e+07
2.89506e+07
2.79336e+07
2.69269e+07
2.59268e+07
2.49359e+07
4.60914e+07
4.49242e+07
4.36747e+07
4.24368e+07
4.1216e+07
4.00129e+07
3.88276e+07
3.76603e+07
3.65108e+07
3.5379e+07
3.42648e+07
3.31682e+07
3.20891e+07
3.10271e+07
2.99817e+07
2.89519e+07
2.79361e+07
2.69319e+07
2.59369e+07
2.49565e+07
4.60915e+07
4.49242e+07
4.36746e+07
4.24368e+07
4.1216e+07
4.00129e+07
3.88276e+07
3.76603e+07
3.65108e+07
3.5379e+07
3.42648e+07
3.31683e+07
3.20893e+07
3.10275e+07
2.99825e+07
2.89533e+07
2.79388e+07
2.69371e+07
2.5947e+07
2.49764e+07
4.60917e+07
4.49242e+07
4.36746e+07
4.24368e+07
4.1216e+07
4.00129e+07
3.88276e+07
3.76603e+07
3.65108e+07
3.5379e+07
3.42649e+07
3.31684e+07
3.20895e+07
3.1028e+07
2.99833e+07
2.89548e+07
2.79416e+07
2.69423e+07
2.59572e+07
2.49956e+07
4.60918e+07
4.49242e+07
4.36745e+07
4.24368e+07
4.1216e+07
4.00129e+07
3.88276e+07
3.76603e+07
3.65109e+07
3.53791e+07
3.4265e+07
3.31686e+07
3.20898e+07
3.10284e+07
2.99841e+07
2.89563e+07
2.79444e+07
2.69477e+07
2.59673e+07
2.5014e+07
4.60918e+07
4.49242e+07
4.36745e+07
4.24368e+07
4.1216e+07
4.00129e+07
3.88276e+07
3.76603e+07
3.65109e+07
3.53791e+07
3.42651e+07
3.31687e+07
3.209e+07
3.10289e+07
2.99849e+07
2.89579e+07
2.79473e+07
2.6953e+07
2.59773e+07
2.50316e+07
4.60919e+07
4.49242e+07
4.36745e+07
4.24367e+07
4.1216e+07
4.00129e+07
3.88276e+07
3.76604e+07
3.65109e+07
3.53792e+07
3.42651e+07
3.31689e+07
3.20903e+07
3.10293e+07
2.99858e+07
2.89595e+07
2.79502e+07
2.69584e+07
2.59871e+07
2.50484e+07
4.60919e+07
4.49242e+07
4.36744e+07
4.24367e+07
4.1216e+07
4.00129e+07
3.88276e+07
3.76604e+07
3.65109e+07
3.53792e+07
3.42652e+07
3.3169e+07
3.20905e+07
3.10298e+07
2.99867e+07
2.89611e+07
2.79531e+07
2.69637e+07
2.59966e+07
2.50645e+07
4.6092e+07
4.49242e+07
4.36744e+07
4.24367e+07
4.1216e+07
4.00129e+07
3.88276e+07
3.76604e+07
3.65109e+07
3.53793e+07
3.42653e+07
3.31691e+07
3.20908e+07
3.10303e+07
2.99875e+07
2.89627e+07
2.7956e+07
2.69689e+07
2.60059e+07
2.50797e+07
4.6092e+07
4.49242e+07
4.36744e+07
4.24367e+07
4.1216e+07
4.00129e+07
3.88277e+07
3.76604e+07
3.6511e+07
3.53793e+07
3.42654e+07
3.31693e+07
3.20911e+07
3.10308e+07
2.99884e+07
2.89642e+07
2.79589e+07
2.69741e+07
2.60149e+07
2.50942e+07
4.60919e+07
4.49242e+07
4.36744e+07
4.24367e+07
4.1216e+07
4.00129e+07
3.88277e+07
3.76604e+07
3.6511e+07
3.53793e+07
3.42655e+07
3.31694e+07
3.20913e+07
3.10312e+07
2.99893e+07
2.89658e+07
2.79617e+07
2.69791e+07
2.60235e+07
2.51078e+07
4.60919e+07
4.49242e+07
4.36745e+07
4.24368e+07
4.1216e+07
4.00129e+07
3.88277e+07
3.76604e+07
3.6511e+07
3.53794e+07
3.42655e+07
3.31696e+07
3.20916e+07
3.10317e+07
2.99901e+07
2.89673e+07
2.79645e+07
2.6984e+07
2.60318e+07
2.51207e+07
4.60918e+07
4.49242e+07
4.36745e+07
4.24368e+07
4.1216e+07
4.00129e+07
3.88277e+07
3.76604e+07
3.6511e+07
3.53794e+07
3.42656e+07
3.31697e+07
3.20918e+07
3.10322e+07
2.9991e+07
2.89689e+07
2.79672e+07
2.69887e+07
2.60397e+07
2.51328e+07
4.60918e+07
4.49242e+07
4.36745e+07
4.24368e+07
4.1216e+07
4.00129e+07
3.88277e+07
3.76604e+07
3.65111e+07
3.53795e+07
3.42657e+07
3.31698e+07
3.20921e+07
3.10326e+07
2.99918e+07
2.89703e+07
2.79698e+07
2.69932e+07
2.60472e+07
2.51441e+07
4.60917e+07
4.49242e+07
4.36746e+07
4.24368e+07
4.1216e+07
4.00129e+07
3.88277e+07
3.76605e+07
3.65111e+07
3.53795e+07
3.42658e+07
3.317e+07
3.20923e+07
3.10331e+07
2.99926e+07
2.89717e+07
2.79723e+07
2.69975e+07
2.60543e+07
2.51547e+07
4.60915e+07
4.49242e+07
4.36746e+07
4.24368e+07
4.1216e+07
4.00129e+07
3.88277e+07
3.76605e+07
3.65111e+07
3.53795e+07
3.42658e+07
3.31701e+07
3.20926e+07
3.10335e+07
2.99933e+07
2.89731e+07
2.79747e+07
2.70016e+07
2.60609e+07
2.51646e+07
4.60914e+07
4.49242e+07
4.36747e+07
4.24369e+07
4.1216e+07
4.00129e+07
3.88277e+07
3.76605e+07
3.65111e+07
3.53796e+07
3.42659e+07
3.31702e+07
3.20928e+07
3.10339e+07
2.9994e+07
2.89744e+07
2.79769e+07
2.70055e+07
2.60671e+07
2.51737e+07
4.60912e+07
4.49242e+07
4.36748e+07
4.24369e+07
4.1216e+07
4.00129e+07
3.88278e+07
3.76605e+07
3.65111e+07
3.53796e+07
3.4266e+07
3.31704e+07
3.2093e+07
3.10342e+07
2.99947e+07
2.89756e+07
2.7979e+07
2.70091e+07
2.60729e+07
2.5182e+07
4.6091e+07
4.49243e+07
4.36748e+07
4.24369e+07
4.1216e+07
4.0013e+07
3.88278e+07
3.76605e+07
3.65112e+07
3.53796e+07
3.4266e+07
3.31705e+07
3.20932e+07
3.10346e+07
2.99954e+07
2.89767e+07
2.7981e+07
2.70124e+07
2.60782e+07
2.51897e+07
4.60908e+07
4.49243e+07
4.36749e+07
4.24369e+07
4.1216e+07
4.0013e+07
3.88278e+07
3.76606e+07
3.65112e+07
3.53797e+07
3.42661e+07
3.31706e+07
3.20934e+07
3.10349e+07
2.99959e+07
2.89778e+07
2.79829e+07
2.70155e+07
2.60831e+07
2.51966e+07
4.60905e+07
4.49244e+07
4.3675e+07
4.2437e+07
4.1216e+07
4.0013e+07
3.88278e+07
3.76606e+07
3.65112e+07
3.53797e+07
3.42661e+07
3.31707e+07
3.20935e+07
3.10352e+07
2.99965e+07
2.89787e+07
2.79845e+07
2.70183e+07
2.60874e+07
2.52028e+07
4.60902e+07
4.49244e+07
4.36751e+07
4.2437e+07
4.1216e+07
4.0013e+07
3.88279e+07
3.76606e+07
3.65112e+07
3.53797e+07
3.42662e+07
3.31707e+07
3.20937e+07
3.10355e+07
2.9997e+07
2.89796e+07
2.7986e+07
2.70208e+07
2.60913e+07
2.52084e+07
4.60899e+07
4.49245e+07
4.36752e+07
4.2437e+07
4.12161e+07
4.0013e+07
3.88279e+07
3.76606e+07
3.65112e+07
3.53797e+07
3.42662e+07
3.31708e+07
3.20938e+07
3.10357e+07
2.99974e+07
2.89804e+07
2.79873e+07
2.7023e+07
2.60948e+07
2.52132e+07
4.60896e+07
4.49246e+07
4.36754e+07
4.24371e+07
4.12161e+07
4.0013e+07
3.88279e+07
3.76606e+07
3.65112e+07
3.53797e+07
3.42662e+07
3.31709e+07
3.2094e+07
3.1036e+07
2.99978e+07
2.8981e+07
2.79885e+07
2.70249e+07
2.60977e+07
2.52173e+07
4.60892e+07
4.49248e+07
4.36755e+07
4.24371e+07
4.12161e+07
4.00131e+07
3.88279e+07
3.76606e+07
3.65112e+07
3.53798e+07
3.42663e+07
3.31709e+07
3.20941e+07
3.10361e+07
2.99981e+07
2.89816e+07
2.79894e+07
2.70265e+07
2.61002e+07
2.52208e+07
4.60888e+07
4.49249e+07
4.36756e+07
4.24371e+07
4.12161e+07
4.00131e+07
3.88279e+07
3.76606e+07
3.65112e+07
3.53798e+07
3.42663e+07
3.3171e+07
3.20941e+07
3.10363e+07
2.99984e+07
2.8982e+07
2.79902e+07
2.70277e+07
2.61021e+07
2.52235e+07
4.60883e+07
4.49251e+07
4.36757e+07
4.24371e+07
4.12161e+07
4.00131e+07
3.88279e+07
3.76606e+07
3.65112e+07
3.53798e+07
3.42663e+07
3.3171e+07
3.20942e+07
3.10364e+07
2.99986e+07
2.89824e+07
2.79908e+07
2.70287e+07
2.61036e+07
2.52256e+07
4.60877e+07
4.49252e+07
4.36758e+07
4.24372e+07
4.12161e+07
4.00131e+07
3.88279e+07
3.76606e+07
3.65112e+07
3.53798e+07
3.42663e+07
3.3171e+07
3.20942e+07
3.10365e+07
2.99987e+07
2.89826e+07
2.79912e+07
2.70293e+07
2.61046e+07
2.5227e+07
4.60867e+07
4.49252e+07
4.36758e+07
4.24372e+07
4.12161e+07
4.00131e+07
3.88279e+07
3.76606e+07
3.65112e+07
3.53798e+07
3.42663e+07
3.3171e+07
3.20943e+07
3.10365e+07
2.99988e+07
2.89827e+07
2.79914e+07
2.70297e+07
2.61051e+07
2.52276e+07
2.36785e+07
2.34232e+07
2.32261e+07
2.30536e+07
2.28915e+07
2.2736e+07
2.25851e+07
2.24376e+07
2.22927e+07
2.21497e+07
2.20083e+07
2.18685e+07
2.17301e+07
2.1593e+07
2.14573e+07
2.13227e+07
2.11892e+07
2.10566e+07
2.09248e+07
2.07937e+07
2.06633e+07
2.05336e+07
2.04044e+07
2.02758e+07
2.01477e+07
2.00201e+07
1.98931e+07
1.97665e+07
1.96403e+07
1.95147e+07
1.93894e+07
1.92646e+07
1.91403e+07
1.90164e+07
1.88929e+07
1.87698e+07
1.86471e+07
1.85249e+07
1.84031e+07
1.82817e+07
1.81607e+07
1.80401e+07
1.79199e+07
1.78001e+07
1.76808e+07
1.75618e+07
1.74433e+07
1.73251e+07
1.72074e+07
1.709e+07
1.69731e+07
1.68566e+07
1.67405e+07
1.66248e+07
1.65094e+07
1.63945e+07
1.628e+07
1.61659e+07
1.60522e+07
1.59389e+07
1.5826e+07
1.57135e+07
1.56014e+07
1.54897e+07
1.53784e+07
1.52675e+07
1.5157e+07
1.50469e+07
1.49372e+07
1.4828e+07
1.47191e+07
1.46106e+07
1.45025e+07
1.43948e+07
1.42876e+07
1.41807e+07
1.40742e+07
1.39681e+07
1.38625e+07
1.37572e+07
1.36523e+07
1.35479e+07
1.34438e+07
1.33401e+07
1.32369e+07
1.3134e+07
1.30316e+07
1.29295e+07
1.28278e+07
1.27266e+07
1.26257e+07
1.25253e+07
1.24252e+07
1.23256e+07
1.22263e+07
1.21275e+07
1.2029e+07
1.1931e+07
1.18333e+07
1.17361e+07
1.16393e+07
1.15428e+07
1.14468e+07
1.13511e+07
1.12559e+07
1.11611e+07
1.10666e+07
1.09726e+07
1.0879e+07
1.07857e+07
1.06929e+07
1.06005e+07
1.05084e+07
1.04168e+07
1.03256e+07
1.02348e+07
1.01443e+07
1.00543e+07
9.9647e+06
9.87548e+06
9.78666e+06
9.69824e+06
9.61022e+06
9.52261e+06
9.4354e+06
9.34858e+06
9.26217e+06
9.17616e+06
9.09055e+06
9.00534e+06
8.92053e+06
8.83612e+06
8.75212e+06
8.66851e+06
8.58531e+06
8.5025e+06
8.4201e+06
8.3381e+06
8.2565e+06
8.1753e+06
8.0945e+06
8.0141e+06
7.9341e+06
7.85451e+06
7.77531e+06
7.69651e+06
7.61811e+06
7.54012e+06
7.46252e+06
7.38533e+06
7.30853e+06
7.23213e+06
7.15614e+06
7.08054e+06
7.00534e+06
6.93054e+06
6.85614e+06
6.78213e+06
6.70853e+06
6.63532e+06
6.56251e+06
6.4901e+06
6.41808e+06
6.34645e+06
6.27522e+06
6.20439e+06
6.13394e+06
6.06389e+06
5.99423e+06
5.92495e+06
5.85606e+06
5.78755e+06
5.71942e+06
5.65166e+06
5.58428e+06
5.51727e+06
5.45063e+06
5.38434e+06
5.31841e+06
5.25281e+06
5.18756e+06
5.12262e+06
5.058e+06
4.99366e+06
4.92959e+06
4.86576e+06
4.80214e+06
4.73869e+06
4.67536e+06
4.61209e+06
4.5488e+06
4.48538e+06
4.4217e+06
4.35756e+06
4.29273e+06
4.22678e+06
4.15916e+06
4.08898e+06
4.01283e+06
3.9303e+06
2.37972e+07
2.35202e+07
2.33024e+07
2.31157e+07
2.29441e+07
2.27814e+07
2.26247e+07
2.24725e+07
2.23237e+07
2.21774e+07
2.20333e+07
2.18909e+07
2.17503e+07
2.16114e+07
2.14739e+07
2.13378e+07
2.12028e+07
2.10689e+07
2.0936e+07
2.08039e+07
2.06725e+07
2.05419e+07
2.0412e+07
2.02826e+07
2.01539e+07
2.00258e+07
1.98982e+07
1.97711e+07
1.96445e+07
1.95185e+07
1.93929e+07
1.92678e+07
1.91431e+07
1.90189e+07
1.88952e+07
1.87719e+07
1.86491e+07
1.85266e+07
1.84047e+07
1.82831e+07
1.8162e+07
1.80413e+07
1.7921e+07
1.78011e+07
1.76816e+07
1.75626e+07
1.7444e+07
1.73258e+07
1.7208e+07
1.70906e+07
1.69736e+07
1.6857e+07
1.67409e+07
1.66251e+07
1.65098e+07
1.63948e+07
1.62803e+07
1.61662e+07
1.60524e+07
1.59391e+07
1.58262e+07
1.57137e+07
1.56015e+07
1.54898e+07
1.53785e+07
1.52676e+07
1.51571e+07
1.5047e+07
1.49373e+07
1.4828e+07
1.47192e+07
1.46107e+07
1.45026e+07
1.43949e+07
1.42876e+07
1.41807e+07
1.40743e+07
1.39682e+07
1.38625e+07
1.37572e+07
1.36524e+07
1.35479e+07
1.34438e+07
1.33402e+07
1.32369e+07
1.3134e+07
1.30316e+07
1.29295e+07
1.28279e+07
1.27266e+07
1.26257e+07
1.25253e+07
1.24252e+07
1.23256e+07
1.22263e+07
1.21275e+07
1.2029e+07
1.1931e+07
1.18333e+07
1.17361e+07
1.16393e+07
1.15428e+07
1.14468e+07
1.13511e+07
1.12559e+07
1.11611e+07
1.10666e+07
1.09726e+07
1.0879e+07
1.07857e+07
1.06929e+07
1.06005e+07
1.05084e+07
1.04168e+07
1.03256e+07
1.02348e+07
1.01443e+07
1.00543e+07
9.96468e+06
9.87546e+06
9.78664e+06
9.69822e+06
9.6102e+06
9.52258e+06
9.43536e+06
9.34855e+06
9.26213e+06
9.17611e+06
9.0905e+06
9.00529e+06
8.92047e+06
8.83606e+06
8.75205e+06
8.66844e+06
8.58523e+06
8.50241e+06
8.42e+06
8.33799e+06
8.25638e+06
8.17517e+06
8.09436e+06
8.01395e+06
7.93393e+06
7.85432e+06
7.77511e+06
7.69629e+06
7.61787e+06
7.53986e+06
7.46223e+06
7.38501e+06
7.30819e+06
7.23176e+06
7.15572e+06
7.08009e+06
7.00485e+06
6.93e+06
6.85555e+06
6.78149e+06
6.70783e+06
6.63456e+06
6.56167e+06
6.48918e+06
6.41708e+06
6.34536e+06
6.27403e+06
6.20309e+06
6.13252e+06
6.06234e+06
5.99253e+06
5.9231e+06
5.85403e+06
5.78533e+06
5.717e+06
5.64902e+06
5.58139e+06
5.51411e+06
5.44717e+06
5.38056e+06
5.31428e+06
5.2483e+06
5.18262e+06
5.11722e+06
5.05209e+06
4.98719e+06
4.9225e+06
4.85799e+06
4.79361e+06
4.72932e+06
4.66505e+06
4.60072e+06
4.53622e+06
4.47144e+06
4.40617e+06
4.34018e+06
4.27312e+06
4.20442e+06
4.13321e+06
4.05819e+06
3.97474e+06
3.87692e+06
2.38909e+07
2.36049e+07
2.33741e+07
2.31758e+07
2.29955e+07
2.2826e+07
2.26638e+07
2.25071e+07
2.23545e+07
2.22049e+07
2.2058e+07
2.19132e+07
2.17704e+07
2.16296e+07
2.14904e+07
2.13528e+07
2.12164e+07
2.10812e+07
2.09471e+07
2.0814e+07
2.06817e+07
2.05502e+07
2.04195e+07
2.02895e+07
2.01601e+07
2.00314e+07
1.99033e+07
1.97757e+07
1.96487e+07
1.95223e+07
1.93963e+07
1.92709e+07
1.9146e+07
1.90215e+07
1.88975e+07
1.8774e+07
1.8651e+07
1.85284e+07
1.84062e+07
1.82845e+07
1.81633e+07
1.80424e+07
1.7922e+07
1.78021e+07
1.76825e+07
1.75634e+07
1.74447e+07
1.73264e+07
1.72086e+07
1.70911e+07
1.69741e+07
1.68575e+07
1.67413e+07
1.66255e+07
1.65101e+07
1.63951e+07
1.62806e+07
1.61664e+07
1.60526e+07
1.59393e+07
1.58264e+07
1.57138e+07
1.56017e+07
1.549e+07
1.53787e+07
1.52677e+07
1.51572e+07
1.50471e+07
1.49374e+07
1.48281e+07
1.47192e+07
1.46107e+07
1.45026e+07
1.43949e+07
1.42877e+07
1.41808e+07
1.40743e+07
1.39682e+07
1.38625e+07
1.37573e+07
1.36524e+07
1.35479e+07
1.34438e+07
1.33402e+07
1.32369e+07
1.3134e+07
1.30316e+07
1.29295e+07
1.28279e+07
1.27266e+07
1.26257e+07
1.25253e+07
1.24252e+07
1.23256e+07
1.22263e+07
1.21275e+07
1.2029e+07
1.1931e+07
1.18333e+07
1.17361e+07
1.16393e+07
1.15428e+07
1.14468e+07
1.13511e+07
1.12559e+07
1.11611e+07
1.10666e+07
1.09726e+07
1.08789e+07
1.07857e+07
1.06929e+07
1.06005e+07
1.05084e+07
1.04168e+07
1.03256e+07
1.02347e+07
1.01443e+07
1.00543e+07
9.96466e+06
9.87544e+06
9.78661e+06
9.69819e+06
9.61017e+06
9.52255e+06
9.43533e+06
9.34851e+06
9.26209e+06
9.17607e+06
9.09045e+06
9.00523e+06
8.92042e+06
8.836e+06
8.75198e+06
8.66836e+06
8.58514e+06
8.50232e+06
8.4199e+06
8.33788e+06
8.25626e+06
8.17504e+06
8.09422e+06
8.01379e+06
7.93377e+06
7.85414e+06
7.77491e+06
7.69607e+06
7.61763e+06
7.53959e+06
7.46195e+06
7.3847e+06
7.30784e+06
7.23138e+06
7.15531e+06
7.07964e+06
7.00436e+06
6.92947e+06
6.85497e+06
6.78085e+06
6.70713e+06
6.63379e+06
6.56084e+06
6.48827e+06
6.41608e+06
6.34428e+06
6.27285e+06
6.20179e+06
6.13111e+06
6.06079e+06
5.99084e+06
5.92125e+06
5.85201e+06
5.78313e+06
5.71459e+06
5.64638e+06
5.57851e+06
5.51096e+06
5.44373e+06
5.3768e+06
5.31017e+06
5.24381e+06
5.17771e+06
5.11185e+06
5.04621e+06
4.98076e+06
4.91546e+06
4.85027e+06
4.78515e+06
4.72003e+06
4.65483e+06
4.58947e+06
4.52381e+06
4.45769e+06
4.39091e+06
4.32314e+06
4.25397e+06
4.18275e+06
4.10826e+06
4.02923e+06
3.94037e+06
3.8344e+06
2.39677e+07
2.36801e+07
2.34408e+07
2.32333e+07
2.30453e+07
2.28695e+07
2.27022e+07
2.25411e+07
2.23848e+07
2.22321e+07
2.20823e+07
2.19352e+07
2.17904e+07
2.16476e+07
2.15068e+07
2.13676e+07
2.12299e+07
2.10934e+07
2.09582e+07
2.0824e+07
2.06908e+07
2.05584e+07
2.0427e+07
2.02963e+07
2.01663e+07
2.0037e+07
1.99083e+07
1.97803e+07
1.96529e+07
1.9526e+07
1.93998e+07
1.9274e+07
1.91488e+07
1.90241e+07
1.88999e+07
1.87761e+07
1.86529e+07
1.85301e+07
1.84078e+07
1.8286e+07
1.81646e+07
1.80436e+07
1.79231e+07
1.7803e+07
1.76834e+07
1.75642e+07
1.74454e+07
1.73271e+07
1.72092e+07
1.70917e+07
1.69746e+07
1.68579e+07
1.67417e+07
1.66258e+07
1.65104e+07
1.63954e+07
1.62808e+07
1.61666e+07
1.60529e+07
1.59395e+07
1.58265e+07
1.5714e+07
1.56018e+07
1.54901e+07
1.53788e+07
1.52679e+07
1.51573e+07
1.50472e+07
1.49375e+07
1.48282e+07
1.47193e+07
1.46108e+07
1.45027e+07
1.4395e+07
1.42877e+07
1.41808e+07
1.40743e+07
1.39682e+07
1.38626e+07
1.37573e+07
1.36524e+07
1.35479e+07
1.34439e+07
1.33402e+07
1.32369e+07
1.31341e+07
1.30316e+07
1.29295e+07
1.28279e+07
1.27266e+07
1.26258e+07
1.25253e+07
1.24252e+07
1.23256e+07
1.22263e+07
1.21275e+07
1.2029e+07
1.1931e+07
1.18333e+07
1.17361e+07
1.16393e+07
1.15428e+07
1.14468e+07
1.13511e+07
1.12559e+07
1.11611e+07
1.10666e+07
1.09726e+07
1.08789e+07
1.07857e+07
1.06929e+07
1.06004e+07
1.05084e+07
1.04168e+07
1.03256e+07
1.02347e+07
1.01443e+07
1.00543e+07
9.96464e+06
9.87541e+06
9.78659e+06
9.69817e+06
9.61014e+06
9.52252e+06
9.4353e+06
9.34847e+06
9.26205e+06
9.17603e+06
9.0904e+06
9.00518e+06
8.92036e+06
8.83594e+06
8.75191e+06
8.66829e+06
8.58506e+06
8.50223e+06
8.41981e+06
8.33778e+06
8.25615e+06
8.17491e+06
8.09408e+06
8.01364e+06
7.9336e+06
7.85395e+06
7.77471e+06
7.69585e+06
7.61739e+06
7.53933e+06
7.46166e+06
7.38438e+06
7.3075e+06
7.23101e+06
7.15491e+06
7.07919e+06
7.00387e+06
6.92893e+06
6.85438e+06
6.78022e+06
6.70643e+06
6.63303e+06
6.56001e+06
6.48736e+06
6.41509e+06
6.34319e+06
6.27166e+06
6.2005e+06
6.12969e+06
6.05925e+06
5.98915e+06
5.91941e+06
5.85e+06
5.78093e+06
5.71219e+06
5.64376e+06
5.57565e+06
5.50784e+06
5.44031e+06
5.37307e+06
5.30609e+06
5.23935e+06
5.17284e+06
5.10652e+06
5.04038e+06
4.97438e+06
4.90848e+06
4.84263e+06
4.77677e+06
4.71084e+06
4.64474e+06
4.57837e+06
4.51158e+06
4.44419e+06
4.37594e+06
4.30651e+06
4.23533e+06
4.1619e+06
4.08445e+06
4.00224e+06
3.90957e+06
3.80073e+06
2.40334e+07
2.37468e+07
2.35024e+07
2.32878e+07
2.30932e+07
2.29118e+07
2.27396e+07
2.25744e+07
2.24145e+07
2.22588e+07
2.21064e+07
2.19569e+07
2.18101e+07
2.16655e+07
2.1523e+07
2.13823e+07
2.12432e+07
2.11055e+07
2.09691e+07
2.08339e+07
2.06998e+07
2.05666e+07
2.04344e+07
2.0303e+07
2.01724e+07
2.00425e+07
1.99134e+07
1.97849e+07
1.9657e+07
1.95298e+07
1.94032e+07
1.92771e+07
1.91516e+07
1.90266e+07
1.89022e+07
1.87782e+07
1.86548e+07
1.85318e+07
1.84094e+07
1.82874e+07
1.81658e+07
1.80448e+07
1.79242e+07
1.7804e+07
1.76843e+07
1.7565e+07
1.74461e+07
1.73277e+07
1.72098e+07
1.70922e+07
1.69751e+07
1.68584e+07
1.67421e+07
1.66262e+07
1.65108e+07
1.63957e+07
1.62811e+07
1.61669e+07
1.60531e+07
1.59397e+07
1.58267e+07
1.57142e+07
1.5602e+07
1.54902e+07
1.53789e+07
1.5268e+07
1.51574e+07
1.50473e+07
1.49376e+07
1.48283e+07
1.47194e+07
1.46108e+07
1.45027e+07
1.4395e+07
1.42878e+07
1.41809e+07
1.40744e+07
1.39683e+07
1.38626e+07
1.37573e+07
1.36524e+07
1.3548e+07
1.34439e+07
1.33402e+07
1.32369e+07
1.31341e+07
1.30316e+07
1.29295e+07
1.28279e+07
1.27266e+07
1.26258e+07
1.25253e+07
1.24253e+07
1.23256e+07
1.22263e+07
1.21275e+07
1.2029e+07
1.1931e+07
1.18333e+07
1.17361e+07
1.16393e+07
1.15428e+07
1.14468e+07
1.13511e+07
1.12559e+07
1.1161e+07
1.10666e+07
1.09726e+07
1.08789e+07
1.07857e+07
1.06929e+07
1.06004e+07
1.05084e+07
1.04168e+07
1.03255e+07
1.02347e+07
1.01443e+07
1.00543e+07
9.96462e+06
9.87539e+06
9.78657e+06
9.69814e+06
9.61011e+06
9.52249e+06
9.43526e+06
9.34844e+06
9.26201e+06
9.17598e+06
9.09036e+06
9.00513e+06
8.9203e+06
8.83587e+06
8.75184e+06
8.66821e+06
8.58498e+06
8.50215e+06
8.41971e+06
8.33767e+06
8.25603e+06
8.17479e+06
8.09394e+06
8.01349e+06
7.93343e+06
7.85377e+06
7.77451e+06
7.69563e+06
7.61716e+06
7.53907e+06
7.46138e+06
7.38407e+06
7.30716e+06
7.23064e+06
7.1545e+06
7.07875e+06
7.00339e+06
6.9284e+06
6.8538e+06
6.77959e+06
6.70574e+06
6.63228e+06
6.55918e+06
6.48646e+06
6.41411e+06
6.34212e+06
6.27049e+06
6.19921e+06
6.12829e+06
6.05772e+06
5.98748e+06
5.91758e+06
5.84801e+06
5.77875e+06
5.70981e+06
5.64116e+06
5.57281e+06
5.50473e+06
5.43692e+06
5.36936e+06
5.30204e+06
5.23492e+06
5.168e+06
5.10124e+06
5.03461e+06
4.96807e+06
4.90158e+06
4.83507e+06
4.7685e+06
4.70178e+06
4.6348e+06
4.56746e+06
4.49957e+06
4.43097e+06
4.36131e+06
4.29036e+06
4.21728e+06
4.14194e+06
4.0619e+06
3.97727e+06
3.88227e+06
3.77311e+06
2.40904e+07
2.38065e+07
2.35592e+07
2.33393e+07
2.31392e+07
2.29526e+07
2.27761e+07
2.2607e+07
2.24437e+07
2.2285e+07
2.21301e+07
2.19784e+07
2.18296e+07
2.16832e+07
2.1539e+07
2.13969e+07
2.12564e+07
2.11175e+07
2.098e+07
2.08438e+07
2.07087e+07
2.05747e+07
2.04417e+07
2.03097e+07
2.01784e+07
2.0048e+07
1.99183e+07
1.97894e+07
1.96611e+07
1.95335e+07
1.94065e+07
1.92802e+07
1.91544e+07
1.90291e+07
1.89045e+07
1.87803e+07
1.86567e+07
1.85335e+07
1.84109e+07
1.82888e+07
1.81671e+07
1.80459e+07
1.79252e+07
1.78049e+07
1.76851e+07
1.75658e+07
1.74469e+07
1.73284e+07
1.72103e+07
1.70927e+07
1.69756e+07
1.68588e+07
1.67425e+07
1.66266e+07
1.65111e+07
1.6396e+07
1.62814e+07
1.61671e+07
1.60533e+07
1.59399e+07
1.58269e+07
1.57143e+07
1.56021e+07
1.54904e+07
1.5379e+07
1.52681e+07
1.51575e+07
1.50474e+07
1.49377e+07
1.48283e+07
1.47194e+07
1.46109e+07
1.45028e+07
1.43951e+07
1.42878e+07
1.41809e+07
1.40744e+07
1.39683e+07
1.38626e+07
1.37573e+07
1.36525e+07
1.3548e+07
1.34439e+07
1.33402e+07
1.3237e+07
1.31341e+07
1.30316e+07
1.29296e+07
1.28279e+07
1.27266e+07
1.26258e+07
1.25253e+07
1.24253e+07
1.23256e+07
1.22264e+07
1.21275e+07
1.2029e+07
1.1931e+07
1.18333e+07
1.17361e+07
1.16393e+07
1.15428e+07
1.14468e+07
1.13511e+07
1.12559e+07
1.1161e+07
1.10666e+07
1.09726e+07
1.08789e+07
1.07857e+07
1.06929e+07
1.06004e+07
1.05084e+07
1.04168e+07
1.03255e+07
1.02347e+07
1.01443e+07
1.00542e+07
9.9646e+06
9.87537e+06
9.78654e+06
9.69812e+06
9.61009e+06
9.52246e+06
9.43523e+06
9.3484e+06
9.26197e+06
9.17594e+06
9.09031e+06
9.00508e+06
8.92025e+06
8.83581e+06
8.75178e+06
8.66814e+06
8.5849e+06
8.50206e+06
8.41961e+06
8.33757e+06
8.25591e+06
8.17466e+06
8.0938e+06
8.01334e+06
7.93327e+06
7.85359e+06
7.77431e+06
7.69542e+06
7.61692e+06
7.53881e+06
7.46109e+06
7.38377e+06
7.30682e+06
7.23027e+06
7.1541e+06
7.07831e+06
7.0029e+06
6.92788e+06
6.85323e+06
6.77896e+06
6.70506e+06
6.63153e+06
6.55837e+06
6.48557e+06
6.41313e+06
6.34105e+06
6.26932e+06
6.19794e+06
6.1269e+06
6.0562e+06
5.98582e+06
5.91577e+06
5.84603e+06
5.77659e+06
5.70745e+06
5.63858e+06
5.56999e+06
5.50165e+06
5.43356e+06
5.36569e+06
5.29803e+06
5.23055e+06
5.16322e+06
5.09602e+06
5.0289e+06
4.96183e+06
4.89476e+06
4.82762e+06
4.76035e+06
4.69286e+06
4.62502e+06
4.55675e+06
4.48779e+06
4.41807e+06
4.34704e+06
4.27474e+06
4.19987e+06
4.12292e+06
4.04072e+06
3.95423e+06
3.8581e+06
3.74972e+06
2.41407e+07
2.38604e+07
2.36116e+07
2.33877e+07
2.3183e+07
2.29921e+07
2.28115e+07
2.26388e+07
2.24723e+07
2.23108e+07
2.21535e+07
2.19996e+07
2.18487e+07
2.17006e+07
2.15548e+07
2.14112e+07
2.12694e+07
2.11293e+07
2.09907e+07
2.08535e+07
2.07176e+07
2.05828e+07
2.0449e+07
2.03163e+07
2.01844e+07
2.00535e+07
1.99233e+07
1.97939e+07
1.96652e+07
1.95372e+07
1.94099e+07
1.92832e+07
1.91571e+07
1.90316e+07
1.89067e+07
1.87824e+07
1.86585e+07
1.85352e+07
1.84125e+07
1.82902e+07
1.81684e+07
1.80471e+07
1.79262e+07
1.78059e+07
1.7686e+07
1.75665e+07
1.74476e+07
1.7329e+07
1.72109e+07
1.70933e+07
1.6976e+07
1.68592e+07
1.67429e+07
1.66269e+07
1.65114e+07
1.63963e+07
1.62816e+07
1.61674e+07
1.60535e+07
1.59401e+07
1.58271e+07
1.57145e+07
1.56023e+07
1.54905e+07
1.53791e+07
1.52682e+07
1.51576e+07
1.50475e+07
1.49377e+07
1.48284e+07
1.47195e+07
1.4611e+07
1.45029e+07
1.43951e+07
1.42878e+07
1.41809e+07
1.40744e+07
1.39684e+07
1.38627e+07
1.37574e+07
1.36525e+07
1.3548e+07
1.34439e+07
1.33403e+07
1.3237e+07
1.31341e+07
1.30316e+07
1.29296e+07
1.28279e+07
1.27266e+07
1.26258e+07
1.25253e+07
1.24253e+07
1.23256e+07
1.22264e+07
1.21275e+07
1.2029e+07
1.1931e+07
1.18334e+07
1.17361e+07
1.16393e+07
1.15428e+07
1.14468e+07
1.13511e+07
1.12559e+07
1.1161e+07
1.10666e+07
1.09726e+07
1.08789e+07
1.07857e+07
1.06929e+07
1.06004e+07
1.05084e+07
1.04167e+07
1.03255e+07
1.02347e+07
1.01442e+07
1.00542e+07
9.96458e+06
9.87535e+06
9.78652e+06
9.69809e+06
9.61006e+06
9.52243e+06
9.4352e+06
9.34836e+06
9.26193e+06
9.1759e+06
9.09026e+06
9.00503e+06
8.92019e+06
8.83575e+06
8.75171e+06
8.66806e+06
8.58482e+06
8.50197e+06
8.41952e+06
8.33746e+06
8.2558e+06
8.17453e+06
8.09366e+06
8.01319e+06
7.9331e+06
7.85341e+06
7.77411e+06
7.6952e+06
7.61669e+06
7.53856e+06
7.46081e+06
7.38346e+06
7.30649e+06
7.2299e+06
7.1537e+06
7.07787e+06
7.00243e+06
6.92736e+06
6.85266e+06
6.77833e+06
6.70438e+06
6.63078e+06
6.55755e+06
6.48468e+06
6.41216e+06
6.33999e+06
6.26817e+06
6.19668e+06
6.12552e+06
6.05469e+06
5.98418e+06
5.91398e+06
5.84407e+06
5.77446e+06
5.70511e+06
5.63604e+06
5.5672e+06
5.49861e+06
5.43023e+06
5.36206e+06
5.29406e+06
5.22622e+06
5.15849e+06
5.09086e+06
5.02327e+06
4.95569e+06
4.88804e+06
4.82029e+06
4.75232e+06
4.68411e+06
4.61542e+06
4.54629e+06
4.47627e+06
4.40553e+06
4.33317e+06
4.25969e+06
4.18317e+06
4.10482e+06
4.02095e+06
3.933e+06
3.83658e+06
3.7294e+06
2.41858e+07
2.39092e+07
2.36599e+07
2.34332e+07
2.32247e+07
2.30299e+07
2.28457e+07
2.26696e+07
2.25002e+07
2.23361e+07
2.21763e+07
2.20203e+07
2.18676e+07
2.17177e+07
2.15704e+07
2.14253e+07
2.12823e+07
2.1141e+07
2.10013e+07
2.08631e+07
2.07263e+07
2.05907e+07
2.04562e+07
2.03228e+07
2.01904e+07
2.00588e+07
1.99282e+07
1.97983e+07
1.96692e+07
1.95409e+07
1.94132e+07
1.92862e+07
1.91599e+07
1.90341e+07
1.8909e+07
1.87844e+07
1.86604e+07
1.85369e+07
1.8414e+07
1.82916e+07
1.81696e+07
1.80482e+07
1.79273e+07
1.78068e+07
1.76868e+07
1.75673e+07
1.74483e+07
1.73297e+07
1.72115e+07
1.70938e+07
1.69765e+07
1.68597e+07
1.67433e+07
1.66273e+07
1.65117e+07
1.63966e+07
1.62819e+07
1.61676e+07
1.60537e+07
1.59403e+07
1.58273e+07
1.57146e+07
1.56024e+07
1.54906e+07
1.53793e+07
1.52683e+07
1.51577e+07
1.50476e+07
1.49378e+07
1.48285e+07
1.47196e+07
1.4611e+07
1.45029e+07
1.43952e+07
1.42879e+07
1.4181e+07
1.40745e+07
1.39684e+07
1.38627e+07
1.37574e+07
1.36525e+07
1.3548e+07
1.34439e+07
1.33403e+07
1.3237e+07
1.31341e+07
1.30317e+07
1.29296e+07
1.28279e+07
1.27267e+07
1.26258e+07
1.25253e+07
1.24253e+07
1.23256e+07
1.22264e+07
1.21275e+07
1.20291e+07
1.1931e+07
1.18334e+07
1.17361e+07
1.16393e+07
1.15428e+07
1.14468e+07
1.13511e+07
1.12559e+07
1.1161e+07
1.10666e+07
1.09726e+07
1.08789e+07
1.07857e+07
1.06928e+07
1.06004e+07
1.05084e+07
1.04167e+07
1.03255e+07
1.02347e+07
1.01442e+07
1.00542e+07
9.96457e+06
9.87533e+06
9.7865e+06
9.69807e+06
9.61003e+06
9.5224e+06
9.43516e+06
9.34833e+06
9.26189e+06
9.17586e+06
9.09022e+06
9.00498e+06
8.92013e+06
8.83569e+06
8.75164e+06
8.66799e+06
8.58474e+06
8.50188e+06
8.41942e+06
8.33736e+06
8.25569e+06
8.17441e+06
8.09353e+06
8.01304e+06
7.93294e+06
7.85323e+06
7.77392e+06
7.69499e+06
7.61645e+06
7.5383e+06
7.46054e+06
7.38316e+06
7.30616e+06
7.22954e+06
7.1533e+06
7.07744e+06
7.00196e+06
6.92684e+06
6.8521e+06
6.77772e+06
6.7037e+06
6.63005e+06
6.55675e+06
6.4838e+06
6.4112e+06
6.33895e+06
6.26702e+06
6.19543e+06
6.12416e+06
6.05321e+06
5.98256e+06
5.91221e+06
5.84213e+06
5.77234e+06
5.7028e+06
5.63352e+06
5.56444e+06
5.49561e+06
5.42694e+06
5.35849e+06
5.29014e+06
5.22196e+06
5.15383e+06
5.08579e+06
5.01771e+06
4.94965e+06
4.88142e+06
4.8131e+06
4.74443e+06
4.67554e+06
4.60601e+06
4.53609e+06
4.46503e+06
4.39338e+06
4.31976e+06
4.24521e+06
4.16725e+06
4.08764e+06
4.00263e+06
3.91348e+06
3.81715e+06
3.7113e+06
2.42266e+07
2.39537e+07
2.37045e+07
2.34758e+07
2.32643e+07
2.30662e+07
2.28787e+07
2.26996e+07
2.25274e+07
2.23607e+07
2.21987e+07
2.20407e+07
2.18861e+07
2.17345e+07
2.15857e+07
2.14392e+07
2.12949e+07
2.11524e+07
2.10117e+07
2.08726e+07
2.07349e+07
2.05985e+07
2.04633e+07
2.03292e+07
2.01962e+07
2.00641e+07
1.9933e+07
1.98027e+07
1.96732e+07
1.95445e+07
1.94165e+07
1.92892e+07
1.91625e+07
1.90366e+07
1.89112e+07
1.87864e+07
1.86622e+07
1.85386e+07
1.84155e+07
1.82929e+07
1.81709e+07
1.80493e+07
1.79283e+07
1.78077e+07
1.76877e+07
1.75681e+07
1.74489e+07
1.73303e+07
1.72121e+07
1.70943e+07
1.6977e+07