/*--------------------------------*- C++ -*----------------------------------*\
| =========                 |                                                 |
| \\      /  F ield         | OpenFOAM: The Open Source CFD Toolbox           |
|  \\    /   O peration     | Version:  2.4.0                                 |
|   \\  /    A nd           | Web:      www.OpenFOAM.org                      |
|    \\/     M anipulation  |                                                 |
\*---------------------------------------------------------------------------*/
FoamFile
{
    version     2.0;
    format      ascii;
    class       volVectorField;
    location    "0.014";
    object      U;
}
// * * * * * * * * * * * * * * * * * * * * * * * * * * * * * * * * * * * * * //

dimensions      [0 1 -1 0 0 0 0];

internalField   nonuniform List<vector> 
17600
(
(5.32743 0.309446 0)
(2.98996 0.0606583 0)
(2.19593 -0.00159714 0)
(1.83415 -0.00289847 0)
(1.7081 -0.00175613 0)
(1.62462 -0.00101607 0)
(1.52489 0.0013125 0)
(1.45208 0.0010953 0)
(1.44306 -3.4491e-05 0)
(1.47524 -0.0013126 0)
(1.46813 0.00101911 0)
(1.46432 0.000105845 0)
(1.45344 -0.000606786 0)
(1.45172 0.00115014 0)
(1.4827 -0.00198678 0)
(1.43471 0.0018843 0)
(1.50813 -0.00122837 0)
(1.43288 -0.000373347 0)
(1.51666 0.00294537 0)
(1.1465 -0.0530486 0)
(8.59537 0.871581 0)
(6.96352 0.383267 0)
(5.80845 0.12383 0)
(5.0241 0.051672 0)
(4.66585 0.0241837 0)
(4.40989 0.0210788 0)
(4.13847 0.0229226 0)
(3.96604 0.00971766 0)
(3.94495 -0.00339244 0)
(4.01058 -0.00588287 0)
(3.9782 0.00440477 0)
(3.98924 0.00163303 0)
(3.95083 -0.000606201 0)
(3.94429 0.000574011 0)
(4.03735 -0.00372147 0)
(3.87048 0.00273153 0)
(4.11574 -0.00304553 0)
(3.86378 -0.00153952 0)
(4.11883 0.0201714 0)
(3.53227 -0.121761 0)
(9.84897 1.0212 0)
(9.36682 0.576571 0)
(8.47601 0.247059 0)
(7.59514 0.130755 0)
(7.11086 0.0717651 0)
(6.74127 0.0613375 0)
(6.351 0.0588515 0)
(6.10175 0.024889 0)
(6.05056 -0.00661974 0)
(6.12797 -0.0104639 0)
(6.06803 0.00844157 0)
(6.09948 0.0032518 0)
(6.04082 0.0016721 0)
(6.01022 -0.00294129 0)
(6.18079 -0.00256 0)
(5.88076 0.00185298 0)
(6.28872 -0.0064029 0)
(5.89184 -0.000472692 0)
(6.249 0.0288089 0)
(5.72347 -0.122648 0)
(10.1447 0.945808 0)
(10.5957 0.666326 0)
(10.2728 0.341094 0)
(9.59003 0.211611 0)
(9.13284 0.129521 0)
(8.74584 0.11423 0)
(8.30469 0.106902 0)
(8.00448 0.0475533 0)
(7.91436 -0.00772765 0)
(7.98502 -0.0139715 0)
(7.89915 0.0133993 0)
(7.94368 0.00392018 0)
(7.88089 0.00701399 0)
(7.80665 -0.00938895 0)
(8.05337 0.000889148 0)
(7.6469 0.00171225 0)
(8.15657 -0.0120516 0)
(7.68768 0.00424769 0)
(8.04483 0.0281989 0)
(7.67939 -0.101186 0)
(10.048 0.802923 0)
(10.9492 0.664598 0)
(11.1657 0.373807 0)
(10.8483 0.260153 0)
(10.5783 0.175938 0)
(10.299 0.166028 0)
(9.91007 0.159664 0)
(9.60915 0.0759214 0)
(9.49017 -0.00460743 0)
(9.53826 -0.0149402 0)
(9.44147 0.0185511 0)
(9.47993 0.00603254 0)
(9.42709 0.01582 0)
(9.31839 -0.0176722 0)
(9.58163 0.00607578 0)
(9.16882 0.00238125 0)
(9.66254 -0.0222664 0)
(9.20718 0.0152696 0)
(9.48511 0.0186434 0)
(9.30672 -0.0959851 0)
(9.95563 0.688455 0)
(10.8722 0.625685 0)
(11.3654 0.356156 0)
(11.3483 0.262639 0)
(11.3102 0.187188 0)
(11.2386 0.198625 0)
(11.0224 0.201743 0)
(10.7954 0.104576 0)
(10.6986 0.000891448 0)
(10.7079 -0.0144483 0)
(10.6396 0.0298775 0)
(10.652 0.000250541 0)
(10.6016 0.0251631 0)
(10.5145 -0.018679 0)
(10.682 0.00210144 0)
(10.3938 0.00790548 0)
(10.7557 -0.0285541 0)
(10.3729 0.0319526 0)
(10.5492 0.000935335 0)
(10.6543 -0.143798 0)
(9.94836 0.600874 0)
(10.7309 0.584631 0)
(11.2687 0.328735 0)
(11.4003 0.237939 0)
(11.4767 0.172077 0)
(11.5344 0.196338 0)
(11.5474 0.224754 0)
(11.4309 0.114703 0)
(11.4426 0.00740322 0)
(11.4063 -0.0118747 0)
(11.4081 0.0303009 0)
(11.3964 0.0114863 0)
(11.3286 0.0285551 0)
(11.3092 -0.0226864 0)
(11.3196 0.0124381 0)
(11.2158 0.0102093 0)
(11.3734 -0.0364143 0)
(11.1128 0.0453759 0)
(11.2563 -0.0207373 0)
(11.5602 -0.207636 0)
(9.97317 0.522372 0)
(10.6265 0.546556 0)
(11.1267 0.30511 0)
(11.3279 0.216198 0)
(11.4581 0.145072 0)
(11.472 0.191481 0)
(11.6424 0.213621 0)
(11.5933 0.118426 0)
(11.7057 0.00330852 0)
(11.6771 -0.0191678 0)
(11.6441 0.0484132 0)
(11.7676 -0.003152 0)
(11.5201 0.0411515 0)
(11.6512 -0.00578582 0)
(11.5667 -0.0065532 0)
(11.4849 0.0190908 0)
(11.5506 -0.0253204 0)
(11.4603 0.043307 0)
(11.599 -0.0637003 0)
(11.6137 -0.208788 0)
(9.99074 0.452931 0)
(10.5533 0.500504 0)
(11.0073 0.292518 0)
(11.2642 0.184031 0)
(11.385 0.139264 0)
(11.4086 0.162221 0)
(11.5447 0.214537 0)
(11.6018 0.0944287 0)
(11.6812 0.00196729 0)
(11.6584 -0.00295556 0)
(11.7015 0.01981 0)
(11.6903 0.0272915 0)
(11.5868 0.0386461 0)
(11.6796 -0.0275508 0)
(11.5105 0.0254222 0)
(11.5615 0.031695 0)
(11.5794 -0.0546089 0)
(11.5149 0.0394135 0)
(11.5862 -0.0447264 0)
(11.3658 -0.14737 0)
(10.0002 0.388655 0)
(10.4877 0.456956 0)
(10.9282 0.273874 0)
(11.188 0.168305 0)
(11.3386 0.109242 0)
(11.329 0.16532 0)
(11.5 0.178649 0)
(11.5198 0.0984895 0)
(11.6205 0.00210989 0)
(11.615 -0.0314898 0)
(11.6065 0.0674167 0)
(11.6588 -0.0115276 0)
(11.5579 0.0526282 0)
(11.5803 0.0127751 0)
(11.5679 -0.00543861 0)
(11.5362 0.0214021 0)
(11.5277 -0.023425 0)
(11.5527 0.025854 0)
(11.5515 -0.0701023 0)
(11.3552 -0.166482 0)
(10.004 0.332276 0)
(10.4335 0.409199 0)
(10.859 0.264379 0)
(11.1287 0.136038 0)
(11.2799 0.107575 0)
(11.2872 0.13139 0)
(11.4442 0.184144 0)
(11.4558 0.0742936 0)
(11.5738 -0.00245232 0)
(11.532 0.000665145 0)
(11.5743 0.016454 0)
(11.6006 0.0249094 0)
(11.4873 0.0525213 0)
(11.6014 -0.0270217 0)
(11.511 0.0226491 0)
(11.5166 0.0506976 0)
(11.5645 -0.0673661 0)
(11.5175 0.0167287 0)
(11.4987 -0.0344373 0)
(11.4115 -0.141611 0)
(10.0063 0.280871 0)
(10.3866 0.365489 0)
(10.8002 0.244576 0)
(11.072 0.121393 0)
(11.2323 0.0817298 0)
(11.2497 0.13198 0)
(11.3932 0.15145 0)
(11.4133 0.0739344 0)
(11.5045 0.00564933 0)
(11.4973 -0.0331803 0)
(11.5226 0.0654128 0)
(11.5404 -0.00714101 0)
(11.4771 0.0487956 0)
(11.5587 0.0173619 0)
(11.4898 -0.00165492 0)
(11.5261 0.0216632 0)
(11.548 -0.0324879 0)
(11.496 0.0198468 0)
(11.512 -0.0718285 0)
(11.513 -0.174596 0)
(10.0075 0.235966 0)
(10.3479 0.3191 0)
(10.7471 0.227874 0)
(11.0229 0.0970845 0)
(11.1894 0.0774734 0)
(11.2174 0.103832 0)
(11.3532 0.147727 0)
(11.3634 0.0573946 0)
(11.4624 -0.00216673 0)
(11.4517 -0.00492323 0)
(11.4797 0.0259222 0)
(11.5067 0.0122513 0)
(11.4462 0.0571553 0)
(11.5189 -0.0192977 0)
(11.5048 0.0116482 0)
(11.5009 0.047622 0)
(11.5246 -0.0618509 0)
(11.5211 -0.00592369 0)
(11.5366 -0.0597539 0)
(11.4594 -0.146875 0)
(10.0081 0.195033 0)
(10.3157 0.275691 0)
(10.7013 0.202025 0)
(10.979 0.0847873 0)
(11.1533 0.0592547 0)
(11.1905 0.0967607 0)
(11.3149 0.121832 0)
(11.3281 0.0513149 0)
(11.4159 0.00781995 0)
(11.4185 -0.0286036 0)
(11.4454 0.0530733 0)
(11.4671 -0.00520024 0)
(11.4207 0.0421328 0)
(11.5106 0.0118782 0)
(11.4783 -0.00220137 0)
(11.4942 0.025796 0)
(11.5376 -0.043939 0)
(11.5101 -0.00246756 0)
(11.501 -0.072876 0)
(11.3667 -0.122809 0)
(10.0082 0.158561 0)
(10.2897 0.231555 0)
(10.6618 0.175675 0)
(10.9421 0.0682165 0)
(11.1222 0.052717 0)
(11.1684 0.0751789 0)
(11.2838 0.11051 0)
(11.294 0.0399304 0)
(11.3812 0.00123458 0)
(11.3881 -0.011138 0)
(11.4158 0.0311997 0)
(11.4389 0.0023615 0)
(11.4018 0.0523908 0)
(11.4872 -0.0100831 0)
(11.4715 0.000168649 0)
(11.4909 0.0385851 0)
(11.527 -0.0593485 0)
(11.5018 -0.0230716 0)
(11.4673 -0.0638141 0)
(11.3867 -0.130302 0)
(10.008 0.125194 0)
(10.2688 0.188688 0)
(10.6294 0.145382 0)
(10.9113 0.0565537 0)
(11.097 0.0404147 0)
(11.1507 0.063073 0)
(11.257 0.0893044 0)
(11.2686 0.0309193 0)
(11.3491 0.00910687 0)
(11.3655 -0.0235115 0)
(11.3908 0.0407994 0)
(11.4125 -0.00707311 0)
(11.3874 0.0318766 0)
(11.4702 0.00556319 0)
(11.4679 -0.00911453 0)
(11.4811 0.0226584 0)
(11.5219 -0.0497622 0)
(11.4946 -0.0184068 0)
(11.4713 -0.0729185 0)
(11.4954 -0.154976 0)
(10.0077 0.09469 0)
(10.2527 0.145832 0)
(10.6035 0.114886 0)
(10.8871 0.0428914 0)
(11.0767 0.0326534 0)
(11.1371 0.0457383 0)
(11.236 0.0730868 0)
(11.2474 0.0218979 0)
(11.3247 0.00584141 0)
(11.3472 -0.0150519 0)
(11.3706 0.0292551 0)
(11.3947 -0.00672249 0)
(11.374 0.038211 0)
(11.4576 -0.00356492 0)
(11.4618 -0.0115723 0)
(11.4756 0.0246073 0)
(11.5159 -0.052443 0)
(11.4965 -0.0344318 0)
(11.4987 -0.0869772 0)
(11.3922 -0.167215 0)
(10.0074 0.0662186 0)
(10.241 0.103635 0)
(10.5843 0.0829702 0)
(10.869 0.0302984 0)
(11.0615 0.0236069 0)
(11.1274 0.0313539 0)
(11.2198 0.0541666 0)
(11.2326 0.012115 0)
(11.3057 0.0101287 0)
(11.3338 -0.0182892 0)
(11.3563 0.0281835 0)
(11.3793 -0.00986399 0)
(11.3658 0.0226439 0)
(11.4468 -3.41661e-06 0)
(11.4582 -0.0179075 0)
(11.4708 0.0161246 0)
(11.5133 -0.0518449 0)
(11.4962 -0.0432719 0)
(11.4566 -0.0761251 0)
(11.2865 -0.0820431 0)
(10.0071 0.0392848 0)
(10.2334 0.061657 0)
(10.5714 0.0506824 0)
(10.8571 0.0170831 0)
(11.0512 0.0157882 0)
(11.1214 0.016073 0)
(11.2087 0.0358344 0)
(11.2231 0.00350609 0)
(11.2926 0.0095917 0)
(11.3257 -0.0160185 0)
(11.3463 0.0223504 0)
(11.3695 -0.013327 0)
(11.3608 0.0184267 0)
(11.4385 -0.00176777 0)
(11.4566 -0.0220498 0)
(11.4673 0.0108062 0)
(11.509 -0.0509913 0)
(11.4852 -0.044641 0)
(11.4489 -0.0762663 0)
(11.4828 -0.192598 0)
(10.0069 0.0132386 0)
(10.2297 0.0199208 0)
(10.5648 0.0179542 0)
(10.8514 0.00392853 0)
(11.0456 0.0079818 0)
(11.1189 0.00124705 0)
(11.2024 0.0172189 0)
(11.2192 -0.00553005 0)
(11.2853 0.0110237 0)
(11.322 -0.0147226 0)
(11.3412 0.0165641 0)
(11.3641 -0.014953 0)
(11.3587 0.00949159 0)
(11.4335 -0.00274828 0)
(11.4555 -0.0266075 0)
(11.4647 0.00311613 0)
(11.5042 -0.0476985 0)
(11.4869 -0.0548116 0)
(11.4718 -0.0994727 0)
(11.3534 -0.123414 0)
(10.0068 -0.0125057 0)
(10.2299 -0.0217521 0)
(10.5645 -0.0148753 0)
(10.8519 -0.00929495 0)
(11.0448 0.000265439 0)
(11.1201 -0.0135083 0)
(11.2009 -0.00156777 0)
(11.2209 -0.0142292 0)
(11.2837 0.0117608 0)
(11.323 -0.0133256 0)
(11.3409 0.0110166 0)
(11.363 -0.0176098 0)
(11.3603 0.0015199 0)
(11.4309 -0.00407321 0)
(11.4557 -0.031576 0)
(11.4635 -0.0020692 0)
(11.5018 -0.0487365 0)
(11.4852 -0.0615726 0)
(11.4408 -0.0780548 0)
(11.3313 -0.11636 0)
(10.0069 -0.0385577 0)
(10.2339 -0.063475 0)
(10.5705 -0.0476175 0)
(10.8586 -0.0224334 0)
(11.0488 -0.00759407 0)
(11.1248 -0.0282326 0)
(11.2042 -0.0203887 0)
(11.2281 -0.0228867 0)
(11.2878 0.0123114 0)
(11.3287 -0.0115854 0)
(11.3455 0.00508414 0)
(11.3664 -0.0198713 0)
(11.3652 -0.00638631 0)
(11.4311 -0.00594277 0)
(11.4573 -0.0347546 0)
(11.4634 -0.00944115 0)
(11.4989 -0.047215 0)
(11.4795 -0.0639155 0)
(11.4441 -0.0979564 0)
(11.3943 -0.177732 0)
(10.007 -0.0655198 0)
(10.2418 -0.105377 0)
(10.5828 -0.0800444 0)
(10.8714 -0.035395 0)
(11.0575 -0.0158048 0)
(11.1332 -0.0429629 0)
(11.2123 -0.0392389 0)
(11.2408 -0.0314441 0)
(11.2977 0.0127266 0)
(11.3391 -0.0097917 0)
(11.3549 -0.000736892 0)
(11.3742 -0.0220707 0)
(11.3734 -0.014102 0)
(11.4341 -0.00722695 0)
(11.4599 -0.0388678 0)
(11.4645 -0.0154502 0)
(11.4964 -0.0460044 0)
(11.4787 -0.0718604 0)
(11.4456 -0.0903782 0)
(11.3382 -0.0962466 0)
(10.0072 -0.0939957 0)
(10.2538 -0.147578 0)
(10.6015 -0.111905 0)
(10.8906 -0.0481598 0)
(11.0711 -0.0245518 0)
(11.1453 -0.0577466 0)
(11.2254 -0.0580677 0)
(11.2593 -0.0398913 0)
(11.3134 0.0129452 0)
(11.3543 -0.00792092 0)
(11.3692 -0.00642422 0)
(11.3866 -0.0241445 0)
(11.3852 -0.0211211 0)
(11.4398 -0.00887439 0)
(11.4638 -0.0422592 0)
(11.4669 -0.0207311 0)
(11.4948 -0.0459185 0)
(11.476 -0.0738736 0)
(11.4325 -0.0963797 0)
(11.3398 -0.171895 0)
(10.0074 -0.124588 0)
(10.2703 -0.190183 0)
(10.6267 -0.142911 0)
(10.9159 -0.0608056 0)
(11.0896 -0.0340127 0)
(11.1614 -0.0726111 0)
(11.2434 -0.076816 0)
(11.2834 -0.0482589 0)
(11.335 0.0129735 0)
(11.3744 -0.00604808 0)
(11.3887 -0.0118076 0)
(11.4036 -0.026001 0)
(11.4006 -0.0275879 0)
(11.4483 -0.0102001 0)
(11.4691 -0.0451333 0)
(11.4704 -0.0258618 0)
(11.4934 -0.0455292 0)
(11.4731 -0.0787075 0)
(11.4365 -0.0961042 0)
(11.3534 -0.105364 0)
(10.0075 -0.157906 0)
(10.2914 -0.233235 0)
(10.6586 -0.172691 0)
(10.9477 -0.0736299 0)
(11.1133 -0.0443109 0)
(11.1816 -0.0875393 0)
(11.2665 -0.0954234 0)
(11.3135 -0.0565934 0)
(11.3625 0.0127838 0)
(11.3998 -0.00420115 0)
(11.4135 -0.0167403 0)
(11.4254 -0.0276475 0)
(11.4198 -0.0332027 0)
(11.4598 -0.0111219 0)
(11.4759 -0.0478362 0)
(11.4751 -0.0299062 0)
(11.4929 -0.0452409 0)
(11.4718 -0.0801801 0)
(11.4295 -0.0973086 0)
(11.3205 -0.157583 0)
(10.0072 -0.194609 0)
(10.3179 -0.276695 0)
(10.6973 -0.200473 0)
(10.9859 -0.0873432 0)
(11.1423 -0.055586 0)
(11.2064 -0.102434 0)
(11.2949 -0.113804 0)
(11.3494 -0.0648934 0)
(11.3962 0.0123584 0)
(11.4306 -0.00244443 0)
(11.4439 -0.0211274 0)
(11.4524 -0.0290196 0)
(11.4429 -0.0378031 0)
(11.4742 -0.0116562 0)
(11.4843 -0.0499829 0)
(11.4809 -0.0327767 0)
(11.4928 -0.0454521 0)
(11.4692 -0.0832613 0)
(11.4285 -0.0996889 0)
(11.3407 -0.117018 0)
(10.0065 -0.235334 0)
(10.3503 -0.320789 0)
(10.7427 -0.224679 0)
(11.0305 -0.103026 0)
(11.177 -0.0681759 0)
(11.2359 -0.11728 0)
(11.3286 -0.131899 0)
(11.3912 -0.0731869 0)
(11.436 0.011694 0)
(11.467 -0.000788703 0)
(11.48 -0.0248295 0)
(11.4848 -0.0300415 0)
(11.4703 -0.0412188 0)
(11.4918 -0.0115749 0)
(11.4944 -0.0515592 0)
(11.488 -0.0346361 0)
(11.4933 -0.0458168 0)
(11.4681 -0.0837999 0)
(11.4261 -0.0978017 0)
(11.3185 -0.142742 0)
(10.0052 -0.280734 0)
(10.3895 -0.365719 0)
(10.7949 -0.244441 0)
(11.0813 -0.121434 0)
(11.2177 -0.082136 0)
(11.2704 -0.132118 0)
(11.3677 -0.149789 0)
(11.4391 -0.0816514 0)
(11.4821 0.0107229 0)
(11.5093 0.000698561 0)
(11.5222 -0.0277514 0)
(11.5228 -0.0306768 0)
(11.5022 -0.0433007 0)
(11.5126 -0.0107546 0)
(11.5064 -0.05246 0)
(11.4962 -0.0352102 0)
(11.4945 -0.0461234 0)
(11.4664 -0.0847563 0)
(11.4234 -0.101663 0)
(11.3266 -0.125913 0)
(10.0028 -0.331655 0)
(10.4362 -0.410954 0)
(10.8539 -0.26087 0)
(11.1378 -0.14259 0)
(11.2648 -0.097196 0)
(11.3103 -0.146319 0)
(11.4125 -0.167039 0)
(11.4935 -0.0904408 0)
(11.5351 0.0091449 0)
(11.5583 0.00199153 0)
(11.5713 -0.0297795 0)
(11.5672 -0.030778 0)
(11.539 -0.0438204 0)
(11.5369 -0.00921174 0)
(11.5204 -0.0523718 0)
(11.5057 -0.0344671 0)
(11.4963 -0.0469363 0)
(11.4655 -0.0838532 0)
(11.4226 -0.0999014 0)
(11.3189 -0.130061 0)
(9.99875 -0.388859 0)
(10.4912 -0.456291 0)
(10.9213 -0.27529 0)
(11.2005 -0.165698 0)
(11.3186 -0.113647 0)
(11.3577 -0.160224 0)
(11.4645 -0.183319 0)
(11.555 -0.0989947 0)
(11.5961 0.00723168 0)
(11.6155 0.00290457 0)
(11.6285 -0.0309396 0)
(11.6192 -0.0304108 0)
(11.5818 -0.0423609 0)
(11.5653 -0.00687245 0)
(11.537 -0.0511874 0)
(11.5164 -0.03234 0)
(11.4988 -0.0473673 0)
(11.4646 -0.082333 0)
(11.4198 -0.102378 0)
(11.3187 -0.138386 0)
(9.98991 -0.452411 0)
(10.555 -0.501996 0)
(11.0042 -0.289597 0)
(11.2694 -0.189462 0)
(11.3769 -0.130678 0)
(11.4204 -0.174894 0)
(11.529 -0.200612 0)
(11.6197 -0.108687 0)
(11.6599 0.00484883 0)
(11.6772 0.00384923 0)
(11.6896 -0.0310386 0)
(11.6757 -0.0293462 0)
(11.627 -0.039132 0)
(11.5959 -0.00312854 0)
(11.5546 -0.0488646 0)
(11.5255 -0.0287391 0)
(11.5011 -0.0475387 0)
(11.4602 -0.0794751 0)
(11.4152 -0.102003 0)
(11.3138 -0.139853 0)
(9.97158 -0.522689 0)
(10.6304 -0.54573 0)
(11.1188 -0.306423 0)
(11.3425 -0.214106 0)
(11.434 -0.1482 0)
(11.5076 -0.188489 0)
(11.5961 -0.216262 0)
(11.6429 -0.119458 0)
(11.6663 0.000253108 0)
(11.6818 0.00386103 0)
(11.685 -0.0294431 0)
(11.6735 -0.0273375 0)
(11.6114 -0.0336648 0)
(11.5788 0.00110477 0)
(11.531 -0.043958 0)
(11.4869 -0.0239834 0)
(11.4685 -0.0472303 0)
(11.4053 -0.0719215 0)
(11.3645 -0.104194 0)
(11.2394 -0.142993 0)
(9.94796 -0.600704 0)
(10.7316 -0.585077 0)
(11.2665 -0.328007 0)
(11.4045 -0.239384 0)
(11.4694 -0.169874 0)
(11.5457 -0.199964 0)
(11.5297 -0.220437 0)
(11.4533 -0.121461 0)
(11.4179 -0.00268268 0)
(11.4217 0.00396335 0)
(11.3942 -0.0264461 0)
(11.3909 -0.0242035 0)
(11.3135 -0.0268703 0)
(11.2958 0.00436746 0)
(11.2624 -0.0372922 0)
(11.1899 -0.019015 0)
(11.2056 -0.0448964 0)
(11.0898 -0.0632173 0)
(11.0712 -0.101585 0)
(10.8746 -0.135331 0)
(9.95508 -0.688609 0)
(10.8728 -0.625368 0)
(11.3645 -0.356598 0)
(11.3495 -0.262131 0)
(11.3089 -0.187864 0)
(11.2395 -0.198316 0)
(11.0211 -0.202139 0)
(10.7939 -0.106206 0)
(10.7007 0.000523468 0)
(10.6959 0.00694644 0)
(10.6432 -0.0214027 0)
(10.6425 -0.0203116 0)
(10.5557 -0.0198623 0)
(10.5514 0.00477735 0)
(10.5334 -0.0299058 0)
(10.4344 -0.0152904 0)
(10.487 -0.0403222 0)
(10.3091 -0.0544151 0)
(10.3244 -0.0893788 0)
(10.0344 -0.133025 0)
(10.0474 -0.802897 0)
(10.95 -0.664647 0)
(11.1645 -0.373778 0)
(10.8496 -0.260271 0)
(10.577 -0.175779 0)
(10.2987 -0.166769 0)
(9.91176 -0.158867 0)
(9.60056 -0.0779807 0)
(9.50258 0.00641011 0)
(9.51123 0.00999393 0)
(9.45947 -0.0158008 0)
(9.45846 -0.0157223 0)
(9.3716 -0.0135596 0)
(9.3812 0.00393871 0)
(9.36625 -0.0222566 0)
(9.26166 -0.0121411 0)
(9.32988 -0.0338757 0)
(9.10992 -0.0430841 0)
(9.15341 -0.0753345 0)
(8.78779 -0.11633 0)
(10.1444 -0.945857 0)
(10.5961 -0.666267 0)
(10.2719 -0.341162 0)
(9.591 -0.2116 0)
(9.13175 -0.129526 0)
(8.74535 -0.114652 0)
(8.30624 -0.106331 0)
(7.99584 -0.0491785 0)
(7.9265 0.00937525 0)
(7.95711 0.0100952 0)
(7.91886 -0.0111658 0)
(7.91377 -0.0110198 0)
(7.83505 -0.00847422 0)
(7.85505 0.00270421 0)
(7.83559 -0.0148107 0)
(7.74446 -0.00953741 0)
(7.80385 -0.0253763 0)
(7.57495 -0.0309402 0)
(7.63086 -0.0588623 0)
(7.21963 -0.0841295 0)
(9.84874 -1.02121 0)
(9.36712 -0.576547 0)
(8.4754 -0.247095 0)
(7.59574 -0.130764 0)
(7.11005 -0.0717298 0)
(6.74075 -0.0616859 0)
(6.35194 -0.0583237 0)
(6.09497 -0.0262266 0)
(6.059 0.00807874 0)
(6.10563 0.00765654 0)
(6.0818 -0.00720509 0)
(6.07036 -0.00650265 0)
(6.00712 -0.00468925 0)
(6.02952 0.00160975 0)
(6.00655 -0.0083212 0)
(5.93866 -0.00696363 0)
(5.97211 -0.0156507 0)
(5.77184 -0.0195983 0)
(5.81617 -0.0388495 0)
(5.40407 -0.0519448 0)
(8.59523 -0.871592 0)
(6.96366 -0.383249 0)
(5.8081 -0.123853 0)
(5.02436 -0.0516746 0)
(4.66538 -0.0241506 0)
(4.40934 -0.0212973 0)
(4.13899 -0.0225581 0)
(3.96137 -0.0105664 0)
(3.94938 0.00443142 0)
(3.99619 0.00421422 0)
(3.98393 -0.00363237 0)
(3.9687 -0.00278317 0)
(3.92595 -0.0020586 0)
(3.94255 0.00079029 0)
(3.92333 -0.00340092 0)
(3.87911 -0.00404418 0)
(3.88503 -0.00687313 0)
(3.7443 -0.00974318 0)
(3.7558 -0.0186341 0)
(3.42056 -0.0244424 0)
(5.32738 -0.30945 0)
(2.98998 -0.060653 0)
(2.19583 0.00159063 0)
(1.83417 0.00289842 0)
(1.708 0.00177457 0)
(1.62416 0.000941299 0)
(1.52518 -0.0011588 0)
(1.44986 -0.00139781 0)
(1.44419 0.000472763 0)
(1.46984 0.000789002 0)
(1.46767 -0.000674617 0)
(1.45683 -0.000113938 0)
(1.43919 -0.000351927 0)
(1.44471 0.00028647 0)
(1.43706 -0.000259235 0)
(1.41745 -0.000784623 0)
(1.4092 -0.000403709 0)
(1.35131 -0.00136921 0)
(1.33427 -0.00203401 0)
(1.18228 0.00493095 0)
(2.32762 -0.0937385 0)
(2.24477 -0.201907 0)
(3.28307 -0.472225 0)
(4.4204 1.07919 0)
(4.58593 2.0059 0)
(6.69002 1.41358 0)
(7.86731 1.77921 0)
(9.90282 2.50116 0)
(9.76781 2.53096 0)
(11.0433 0.202643 0)
(10.7709 -2.16709 0)
(10.0154 -3.48811 0)
(10.7285 -4.70296 0)
(11.0688 -5.76953 0)
(10.5085 -6.26734 0)
(9.87999 -6.28532 0)
(9.06561 -6.1198 0)
(8.08382 -5.62353 0)
(7.47579 -5.10531 0)
(7.12794 -4.73392 0)
(6.81472 -4.27603 0)
(6.5859 -3.81009 0)
(6.38063 -3.43889 0)
(6.15278 -3.12765 0)
(5.96499 -2.85234 0)
(5.83228 -2.60559 0)
(5.72644 -2.37767 0)
(5.63851 -2.16223 0)
(5.56948 -1.95791 0)
(5.51435 -1.76745 0)
(5.46695 -1.59401 0)
(5.42472 -1.4382 0)
(5.3875 -1.29852 0)
(5.3554 -1.17295 0)
(5.32813 -1.05974 0)
(5.30512 -0.957537 0)
(5.28574 -0.865204 0)
(5.26942 -0.781775 0)
(5.25566 -0.706388 0)
(5.24405 -0.638268 0)
(5.23423 -0.576716 0)
(5.22594 -0.521103 0)
(5.21891 -0.470853 0)
(5.21295 -0.425447 0)
(5.2079 -0.384418 0)
(5.20361 -0.347346 0)
(5.19997 -0.313846 0)
(5.19687 -0.283572 0)
(5.19423 -0.256214 0)
(5.19198 -0.231494 0)
(5.19007 -0.209155 0)
(5.18843 -0.188967 0)
(5.18703 -0.170723 0)
(5.18584 -0.15424 0)
(5.18482 -0.139345 0)
(5.18394 -0.125884 0)
(5.18319 -0.113721 0)
(5.18255 -0.102732 0)
(5.182 -0.0928034 0)
(5.18152 -0.0838308 0)
(5.18111 -0.0757234 0)
(5.18076 -0.0684 0)
(5.18045 -0.0617836 0)
(5.18018 -0.055804 0)
(5.17995 -0.0504011 0)
(5.17975 -0.0455212 0)
(5.17958 -0.0411126 0)
(5.17942 -0.0371279 0)
(5.17929 -0.0335274 0)
(5.17918 -0.0302757 0)
(5.17908 -0.0273383 0)
(5.17899 -0.0246825 0)
(5.17891 -0.0222824 0)
(5.17884 -0.0201152 0)
(5.17878 -0.0181571 0)
(5.17873 -0.0163859 0)
(5.17868 -0.0147845 0)
(5.17864 -0.0133387 0)
(5.17861 -0.0120318 0)
(5.17857 -0.0108485 0)
(5.17854 -0.00977777 0)
(5.17852 -0.00881058 0)
(5.1785 -0.00793565 0)
(5.17848 -0.00714187 0)
(5.17846 -0.0064223 0)
(5.17845 -0.00577145 0)
(5.17843 -0.00518131 0)
(5.17842 -0.00464391 0)
(5.1784 -0.00415484 0)
(5.1784 -0.00371108 0)
(5.17839 -0.00330672 0)
(5.17838 -0.00293579 0)
(5.17837 -0.00259555 0)
(5.17837 -0.0022845 0)
(5.17836 -0.00199823 0)
(5.17836 -0.00173185 0)
(5.17835 -0.0014839 0)
(5.17835 -0.00125386 0)
(5.17835 -0.00103798 0)
(5.17834 -0.000832318 0)
(5.17834 -0.000635989 0)
(5.17834 -0.000448915 0)
(5.17834 -0.00026811 0)
(5.17834 -8.99878e-05 0)
(5.17834 8.61368e-05 0)
(5.17834 0.000260126 0)
(5.17834 0.000434788 0)
(5.17834 0.000613498 0)
(5.17834 0.000796914 0)
(5.17834 0.000984839 0)
(5.17835 0.0011803 0)
(5.17835 0.00138682 0)
(5.17835 0.00160519 0)
(5.17835 0.00183551 0)
(5.17836 0.0020811 0)
(5.17836 0.00234601 0)
(5.17836 0.00263144 0)
(5.17837 0.00293807 0)
(5.17838 0.0032699 0)
(5.17838 0.00363164 0)
(5.17839 0.00402536 0)
(5.1784 0.00445268 0)
(5.17841 0.0049186 0)
(5.17842 0.00542904 0)
(5.17843 0.0059874 0)
(5.17844 0.00659676 0)
(5.17846 0.00726373 0)
(5.17847 0.00799599 0)
(5.17849 0.0087988 0)
(5.17851 0.00967748 0)
(5.17853 0.010641 0)
(5.17855 0.0116997 0)
(5.17858 0.0128616 0)
(5.17861 0.0141354 0)
(5.17864 0.0155334 0)
(5.17868 0.0170697 0)
(5.17872 0.0187569 0)
(5.17877 0.0206082 0)
(5.17882 0.0226411 0)
(5.17887 0.0248756 0)
(5.17894 0.0273304 0)
(5.17901 0.0300259 0)
(5.1791 0.0329872 0)
(5.17918 0.036243 0)
(5.17929 0.0398215 0)
(5.17941 0.0437538 0)
(5.17954 0.0480769 0)
(5.17969 0.0528327 0)
(5.17986 0.0580644 0)
(5.18005 0.0638199 0)
(5.18027 0.0701554 0)
(5.18051 0.0771343 0)
(5.18078 0.0848242 0)
(5.18109 0.0933033 0)
(5.18143 0.102656 0)
(5.18179 0.112995 0)
(5.1822 0.124408 0)
(5.1826 0.137077 0)
(5.18306 0.151048 0)
(5.1834 0.166698 0)
(5.18381 0.18385 0)
(5.18386 0.203409 0)
(5.18393 0.224461 0)
(5.18308 0.249222 0)
(5.18192 0.274932 0)
(5.179 0.306268 0)
(5.17478 0.337181 0)
(5.1676 0.375186 0)
(5.15856 0.410836 0)
(5.14309 0.452611 0)
(5.13386 0.488787 0)
(5.10259 0.533391 0)
(5.10912 0.555822 0)
(5.06555 0.621323 0)
(5.06861 0.605449 0)
(5.11734 0.724293 0)
(4.91117 0.676346 0)
(5.38345 0.829037 0)
(4.57908 0.821333 0)
(5.72363 0.950337 0)
(4.40426 1.01011 0)
(5.72302 1.12666 0)
(4.54992 1.26001 0)
(5.57864 1.31553 0)
(4.69376 1.54161 0)
(5.43179 1.68114 0)
(4.82542 1.81862 0)
(5.31691 2.04678 0)
(5.08244 2.30002 0)
(4.98089 2.50013 0)
(5.27191 2.84761 0)
(4.84193 3.18127 0)
(5.22994 3.42131 0)
(5.03645 4.00252 0)
(4.85733 4.56007 0)
(5.24739 4.92455 0)
(5.07683 5.77977 0)
(4.79602 6.78368 0)
(5.16415 7.8294 0)
(2.88646 11.1423 0)
(4.43549 -0.0445692 0)
(5.13528 -0.197562 0)
(4.67377 -0.416643 0)
(3.51882 0.925139 0)
(4.81335 1.26971 0)
(6.82533 0.437497 0)
(9.01527 0.717749 0)
(9.85501 2.10776 0)
(9.61443 2.32465 0)
(11.0194 -0.00195713 0)
(10.7416 -2.08183 0)
(11.1263 -3.55126 0)
(11.9544 -4.77792 0)
(11.8013 -5.60738 0)
(10.8725 -6.01119 0)
(9.98862 -5.91021 0)
(9.12932 -5.701 0)
(8.04101 -5.38618 0)
(7.3603 -4.94022 0)
(7.09792 -4.57574 0)
(6.81359 -4.19553 0)
(6.60085 -3.76496 0)
(6.47408 -3.36722 0)
(6.28806 -3.03892 0)
(6.08442 -2.7763 0)
(5.93652 -2.54938 0)
(5.82829 -2.33405 0)
(5.73435 -2.12664 0)
(5.65363 -1.92924 0)
(5.58758 -1.74399 0)
(5.53249 -1.5738 0)
(5.48457 -1.42029 0)
(5.44222 -1.28277 0)
(5.40514 -1.15935 0)
(5.37312 -1.04815 0)
(5.34572 -0.94771 0)
(5.32236 -0.856881 0)
(5.30247 -0.77472 0)
(5.2855 -0.700399 0)
(5.27099 -0.633177 0)
(5.25857 -0.572383 0)
(5.24792 -0.517409 0)
(5.23878 -0.4677 0)
(5.2309 -0.422752 0)
(5.22412 -0.382111 0)
(5.21827 -0.345368 0)
(5.21322 -0.312148 0)
(5.20884 -0.282114 0)
(5.20505 -0.25496 0)
(5.20176 -0.230413 0)
(5.19891 -0.208223 0)
(5.19642 -0.188163 0)
(5.19425 -0.170028 0)
(5.19237 -0.153638 0)
(5.19072 -0.138823 0)
(5.18927 -0.125431 0)
(5.18801 -0.113327 0)
(5.1869 -0.102389 0)
(5.18593 -0.0925043 0)
(5.18507 -0.08357 0)
(5.18432 -0.0754955 0)
(5.18366 -0.0682002 0)
(5.18307 -0.0616082 0)
(5.18255 -0.0556502 0)
(5.18209 -0.0502659 0)
(5.18169 -0.0454018 0)
(5.18133 -0.0410071 0)
(5.181 -0.0370349 0)
(5.18072 -0.033445 0)
(5.18047 -0.0302024 0)
(5.18024 -0.0272728 0)
(5.18004 -0.0246245 0)
(5.17986 -0.0222309 0)
(5.1797 -0.0200689 0)
(5.17956 -0.0181156 0)
(5.17943 -0.0163491 0)
(5.17932 -0.014752 0)
(5.17922 -0.0133094 0)
(5.17913 -0.0120057 0)
(5.17904 -0.0108256 0)
(5.17897 -0.0097577 0)
(5.17891 -0.00879262 0)
(5.17885 -0.00791965 0)
(5.17879 -0.007128 0)
(5.17874 -0.0064102 0)
(5.1787 -0.00576047 0)
(5.17867 -0.00517139 0)
(5.17863 -0.00463524 0)
(5.1786 -0.00414732 0)
(5.17857 -0.00370406 0)
(5.17855 -0.00330034 0)
(5.17853 -0.00293032 0)
(5.17851 -0.00259085 0)
(5.17849 -0.00228017 0)
(5.17848 -0.00199422 0)
(5.17846 -0.00172865 0)
(5.17845 -0.00148136 0)
(5.17845 -0.00125142 0)
(5.17844 -0.00103591 0)
(5.17843 -0.00083082 0)
(5.17842 -0.000635024 0)
(5.17842 -0.000448103 0)
(5.17842 -0.000267515 0)
(5.17841 -8.98638e-05 0)
(5.17841 8.58577e-05 0)
(5.17841 0.000259778 0)
(5.17842 0.00043428 0)
(5.17841 0.000612573 0)
(5.17842 0.000795612 0)
(5.17842 0.000983586 0)
(5.17843 0.00117891 0)
(5.17843 0.00138495 0)
(5.17844 0.00160285 0)
(5.17845 0.0018331 0)
(5.17847 0.00207844 0)
(5.17847 0.0023427 0)
(5.17849 0.0026275 0)
(5.17851 0.00293389 0)
(5.17852 0.00326529 0)
(5.17854 0.0036262 0)
(5.17856 0.00401908 0)
(5.17859 0.00444597 0)
(5.17861 0.00491123 0)
(5.17864 0.00542061 0)
(5.17867 0.00597788 0)
(5.17871 0.00658654 0)
(5.17875 0.00725251 0)
(5.17879 0.00798333 0)
(5.17884 0.00878461 0)
(5.17889 0.00966205 0)
(5.17895 0.010624 0)
(5.17901 0.0116806 0)
(5.17908 0.0128403 0)
(5.17917 0.014112 0)
(5.17926 0.0155074 0)
(5.17935 0.0170407 0)
(5.17945 0.0187245 0)
(5.17958 0.0205726 0)
(5.17971 0.0226017 0)
(5.17985 0.0248316 0)
(5.18001 0.0272812 0)
(5.18019 0.0299714 0)
(5.18039 0.0329266 0)
(5.18061 0.0361752 0)
(5.18085 0.0397455 0)
(5.18113 0.0436692 0)
(5.18143 0.0479822 0)
(5.18177 0.0527266 0)
(5.18214 0.0579452 0)
(5.18257 0.0636869 0)
(5.18304 0.0700062 0)
(5.18356 0.0769678 0)
(5.18415 0.0846376 0)
(5.1848 0.0930967 0)
(5.18553 0.102426 0)
(5.18632 0.112744 0)
(5.18721 0.12413 0)
(5.18815 0.136789 0)
(5.18923 0.150727 0)
(5.19024 0.166415 0)
(5.19148 0.18351 0)
(5.19233 0.203272 0)
(5.19354 0.224183 0)
(5.19363 0.249617 0)
(5.19395 0.274968 0)
(5.19215 0.308026 0)
(5.18915 0.338298 0)
(5.18393 0.37928 0)
(5.17318 0.415132 0)
(5.16328 0.457469 0)
(5.14504 0.501437 0)
(5.12192 0.52882 0)
(5.13273 0.586921 0)
(5.0328 0.588051 0)
(5.22204 0.663016 0)
(4.82709 0.657357 0)
(5.50807 0.743643 0)
(4.48669 0.761343 0)
(5.87059 0.875458 0)
(4.26465 0.879978 0)
(5.97971 1.08353 0)
(4.34306 1.06678 0)
(5.83689 1.23538 0)
(4.61895 1.40677 0)
(5.55419 1.45692 0)
(4.81071 1.66324 0)
(5.5298 1.87803 0)
(4.91576 2.00752 0)
(5.28508 2.2445 0)
(5.18748 2.59621 0)
(5.00179 2.796 0)
(5.40333 3.0987 0)
(4.8626 3.62921 0)
(5.18951 3.92409 0)
(5.04999 4.5719 0)
(4.93485 5.22818 0)
(5.15521 5.86837 0)
(5.20305 7.06251 0)
(6.43801 7.88104 0)
(4.19594 11.9995 0)
(6.10151 -0.295194 0)
(7.24647 -0.406375 0)
(6.55499 -0.0195788 0)
(5.14367 0.876511 0)
(6.55369 0.552155 0)
(7.71728 -0.347436 0)
(9.09716 0.255449 0)
(8.63217 2.15197 0)
(9.5942 1.99747 0)
(10.9792 -0.142795 0)
(11.5017 -1.98064 0)
(12.6985 -3.63425 0)
(12.8357 -4.83468 0)
(12.0036 -5.3778 0)
(10.9495 -5.6522 0)
(9.97061 -5.55863 0)
(9.22529 -5.23596 0)
(8.29995 -5.00145 0)
(7.58876 -4.7625 0)
(7.33218 -4.44444 0)
(6.99255 -4.0665 0)
(6.64641 -3.68652 0)
(6.50804 -3.31846 0)
(6.38523 -2.97921 0)
(6.19534 -2.70893 0)
(6.02894 -2.49264 0)
(5.91448 -2.28928 0)
(5.82256 -2.08822 0)
(5.73822 -1.89593 0)
(5.66303 -1.71613 0)
(5.59859 -1.55041 0)
(5.5434 -1.40006 0)
(5.49548 -1.265 0)
(5.45359 -1.14381 0)
(5.41711 -1.03471 0)
(5.38555 -0.936177 0)
(5.35838 -0.847013 0)
(5.33501 -0.766273 0)
(5.31491 -0.693158 0)
(5.29757 -0.626957 0)
(5.2826 -0.56703 0)
(5.26965 -0.512793 0)
(5.25842 -0.463712 0)
(5.24866 -0.419302 0)
(5.24018 -0.379122 0)
(5.23279 -0.342774 0)
(5.22634 -0.309894 0)
(5.22071 -0.280152 0)
(5.21578 -0.253251 0)
(5.21146 -0.228922 0)
(5.20768 -0.20692 0)
(5.20435 -0.187022 0)
(5.20142 -0.169029 0)
(5.19885 -0.152761 0)
(5.19658 -0.138053 0)
(5.19457 -0.124754 0)
(5.19279 -0.112731 0)
(5.19123 -0.101863 0)
(5.18984 -0.0920393 0)
(5.18861 -0.0831588 0)
(5.18751 -0.0751316 0)
(5.18654 -0.0678772 0)
(5.18568 -0.0613213 0)
(5.18491 -0.0553954 0)
(5.18422 -0.0500394 0)
(5.18361 -0.0452 0)
(5.18307 -0.0408272 0)
(5.18257 -0.0368747 0)
(5.18214 -0.0333026 0)
(5.18175 -0.0300753 0)
(5.1814 -0.0271595 0)
(5.18109 -0.0245238 0)
(5.18081 -0.0221413 0)
(5.18056 -0.019989 0)
(5.18033 -0.0180443 0)
(5.18013 -0.0162857 0)
(5.17995 -0.0146955 0)
(5.17979 -0.0132588 0)
(5.17964 -0.0119602 0)
(5.17951 -0.0107848 0)
(5.17939 -0.00972099 0)
(5.17929 -0.00875922 0)
(5.17919 -0.00788919 0)
(5.1791 -0.00710051 0)
(5.17903 -0.00638539 0)
(5.17896 -0.0057379 0)
(5.1789 -0.0051509 0)
(5.17884 -0.0046171 0)
(5.17879 -0.00413125 0)
(5.17875 -0.00368971 0)
(5.17871 -0.00328749 0)
(5.17867 -0.00291914 0)
(5.17864 -0.00258118 0)
(5.17862 -0.00227144 0)
(5.17859 -0.00198648 0)
(5.17857 -0.001722 0)
(5.17855 -0.00147574 0)
(5.17854 -0.00124645 0)
(5.17853 -0.00103155 0)
(5.17851 -0.000827345 0)
(5.1785 -0.000632215 0)
(5.1785 -0.000445744 0)
(5.17849 -0.000265553 0)
(5.17849 -8.84808e-05 0)
(5.17848 8.66059e-05 0)
(5.17849 0.000259998 0)
(5.17849 0.000433973 0)
(5.17849 0.000611444 0)
(5.17849 0.000793686 0)
(5.1785 0.00098109 0)
(5.17851 0.00117577 0)
(5.17852 0.00138092 0)
(5.17853 0.00159793 0)