/*--------------------------------*- C++ -*----------------------------------*\
| =========                 |                                                 |
| \\      /  F ield         | OpenFOAM: The Open Source CFD Toolbox           |
|  \\    /   O peration     | Version:  2.4.0                                 |
|   \\  /    A nd           | Web:      www.OpenFOAM.org                      |
|    \\/     M anipulation  |                                                 |
\*---------------------------------------------------------------------------*/
FoamFile
{
    version     2.0;
    format      ascii;
    class       surfaceScalarField;
    location    "0.193";
    object      phi_0;
}
// * * * * * * * * * * * * * * * * * * * * * * * * * * * * * * * * * * * * * //

dimensions      [0 3 -1 0 0 0 0];

internalField   nonuniform List<scalar> 
8640
(
1.14657e-05
1.35343e-05
7.17384e-06
4.29184e-06
5.91915e-06
1.25468e-06
5.3738e-06
5.45354e-07
5.09331e-06
2.80491e-07
4.95277e-06
1.40539e-07
4.82034e-06
1.32428e-07
4.81137e-06
8.97194e-09
4.49518e-06
3.16195e-07
-1.95178e-06
6.44696e-06
2.10492e-05
1.74851e-05
1.74484e-05
7.89268e-06
1.55192e-05
3.18388e-06
1.42625e-05
1.8021e-06
1.34832e-05
1.05972e-06
1.30553e-05
5.6851e-07
1.26691e-05
5.18627e-07
1.26266e-05
5.14308e-08
1.22131e-05
7.29705e-07
-2.64841e-06
1.29097e-05
2.56993e-05
1.67858e-05
2.40959e-05
9.49611e-06
2.26208e-05
4.65898e-06
2.12464e-05
3.17643e-06
2.02166e-05
2.08961e-06
1.96061e-05
1.17899e-06
1.9026e-05
1.09867e-06
1.89469e-05
1.30607e-07
1.86395e-05
1.03711e-06
-2.38183e-06
1.83729e-05
2.74638e-05
1.4322e-05
2.77205e-05
9.23932e-06
2.7381e-05
4.99847e-06
2.65424e-05
4.01509e-06
2.56445e-05
2.98751e-06
2.50404e-05
1.78305e-06
2.4401e-05
1.73811e-06
2.42551e-05
2.76489e-07
2.42065e-05
1.08573e-06
-1.7012e-06
2.35259e-05
2.76711e-05
1.16509e-05
2.88787e-05
8.03176e-06
2.96124e-05
4.26478e-06
2.97066e-05
3.92086e-06
2.93861e-05
3.30803e-06
2.90588e-05
2.11034e-06
2.85973e-05
2.19957e-06
2.84463e-05
4.27509e-07
2.86309e-05
9.01179e-07
-1.23274e-06
2.81624e-05
2.75371e-05
9.11377e-06
2.89084e-05
6.66053e-06
2.99902e-05
3.18292e-06
3.07294e-05
3.18164e-06
3.11266e-05
2.91082e-06
3.12509e-05
1.98613e-06
3.12421e-05
2.20838e-06
3.12745e-05
3.95087e-07
3.16158e-05
5.5985e-07
-3.79463e-07
3.07625e-05
2.74466e-05
6.66721e-06
2.88685e-05
5.23854e-06
2.98284e-05
2.22305e-06
3.07189e-05
2.29117e-06
3.14668e-05
2.16286e-06
3.18094e-05
1.64362e-06
3.22671e-05
1.7506e-06
3.25485e-05
1.13769e-07
3.29317e-05
1.76626e-07
8.55605e-07
3.16966e-05
2.73776e-05
4.28958e-06
2.8958e-05
3.6582e-06
2.96783e-05
1.50272e-06
3.06004e-05
1.36909e-06
3.13562e-05
1.40705e-06
3.18502e-05
1.14958e-06
3.24514e-05
1.14939e-06
3.27487e-05
-1.83537e-07
3.30918e-05
-1.66456e-07
3.25191e-07
3.36222e-05
2.72454e-05
2.04414e-06
2.89215e-05
1.98215e-06
2.97107e-05
7.1346e-07
3.04996e-05
5.80203e-07
3.11919e-05
7.14824e-07
3.183e-05
5.11442e-07
3.2343e-05
6.36403e-07
3.27089e-05
-5.49425e-07
3.3113e-05
-5.70592e-07
-5.55744e-07
3.39939e-05
2.71888e-05
-1.44709e-07
2.89716e-05
1.99408e-07
2.97204e-05
-3.53613e-08
3.04099e-05
-1.09319e-07
3.11109e-05
1.38344e-08
3.17617e-05
-1.39292e-07
3.23324e-05
6.56315e-08
3.27548e-05
-9.71819e-07
3.31677e-05
-9.83463e-07
-1.32066e-06
3.39326e-05
2.72074e-05
-2.35212e-06
2.89484e-05
-1.54155e-06
2.96687e-05
-7.55645e-07
3.04238e-05
-8.64468e-07
3.1146e-05
-7.08355e-07
3.18004e-05
-7.93684e-07
3.23256e-05
-4.59564e-07
3.26883e-05
-1.33456e-06
3.31548e-05
-1.44997e-06
-1.9576e-06
3.37918e-05
2.72288e-05
-4.58091e-06
2.89251e-05
-3.23787e-06
2.97187e-05
-1.54923e-06
3.0502e-05
-1.64777e-06
3.11926e-05
-1.39901e-06
3.17873e-05
-1.38835e-06
3.23135e-05
-9.85711e-07
3.27246e-05
-1.74574e-06
3.3217e-05
-1.94237e-06
-2.59634e-06
3.38558e-05
2.72922e-05
-6.87307e-06
2.89711e-05
-4.91682e-06
2.97843e-05
-2.36243e-06
3.05363e-05
-2.39977e-06
3.12475e-05
-2.11018e-06
3.18503e-05
-1.99117e-06
3.24075e-05
-1.54289e-06
3.27604e-05
-2.09862e-06
3.31853e-05
-2.36728e-06
-3.1744e-06
3.37633e-05
2.73728e-05
-9.24583e-06
2.88794e-05
-6.42351e-06
2.98555e-05
-3.3385e-06
3.06596e-05
-3.20388e-06
3.13913e-05
-2.8419e-06
3.18731e-05
-2.4729e-06
3.22947e-05
-1.96447e-06
3.24599e-05
-2.26382e-06
3.26739e-05
-2.58129e-06
-3.44321e-06
3.29427e-05
2.74721e-05
-1.1718e-05
2.8927e-05
-7.87843e-06
2.99862e-05
-4.3976e-06
3.07111e-05
-3.92883e-06
3.11308e-05
-3.26163e-06
3.12271e-05
-2.56921e-06
3.12669e-05
-2.00422e-06
3.10778e-05
-2.07476e-06
3.09041e-05
-2.40758e-06
-3.26396e-06
3.07249e-05
2.76346e-05
-1.43525e-05
2.89108e-05
-9.15468e-06
2.96057e-05
-5.09245e-06
2.9696e-05
-4.01914e-06
2.94027e-05
-2.96836e-06
2.89699e-05
-2.13638e-06
2.85894e-05
-1.6237e-06
2.81154e-05
-1.60083e-06
2.76457e-05
-1.93781e-06
-2.19357e-06
2.65753e-05
2.74477e-05
-1.68003e-05
2.77471e-05
-9.45403e-06
2.73675e-05
-4.71292e-06
2.65321e-05
-3.18369e-06
2.56488e-05
-2.0851e-06
2.4925e-05
-1.41259e-06
2.4361e-05
-1.05966e-06
2.38082e-05
-1.04803e-06
2.32277e-05
-1.35732e-06
-1.46676e-06
2.25009e-05
2.56919e-05
-1.74921e-05
2.41121e-05
-7.87426e-06
2.26068e-05
-3.20757e-06
2.12358e-05
-1.81271e-06
2.02074e-05
-1.05669e-06
1.9492e-05
-6.9722e-07
1.89525e-05
-5.2017e-07
1.84553e-05
-5.50755e-07
1.78492e-05
-7.51231e-07
-7.20139e-07
1.71025e-05
2.10447e-05
-1.35368e-05
1.74569e-05
-4.2865e-06
1.55098e-05
-1.26045e-06
1.42502e-05
-5.53082e-07
1.34698e-05
-2.76349e-07
1.296e-05
-1.8736e-07
1.25785e-05
-1.38748e-07
1.22031e-05
-1.75285e-07
1.16958e-05
-2.43954e-07
-2.02149e-07
1.11778e-05
1.14632e-05
7.17666e-06
5.91621e-06
5.36313e-06
5.08678e-06
4.89942e-06
4.76067e-06
4.58538e-06
4.34143e-06
4.13928e-06
7.18109e-06
5.55053e-07
-1.28919e-06
7.60661e-06
7.1125e-07
-1.13676e-06
8.53741e-06
-4.9355e-07
-4.37259e-07
8.56807e-06
-2.07621e-06
2.04555e-06
8.94918e-06
-2.83893e-06
2.45782e-06
9.48713e-06
-1.71273e-06
1.17478e-06
9.36609e-06
-2.23106e-06
2.35211e-06
9.81666e-06
-1.22971e-06
7.79138e-07
1.07562e-05
2.1079e-07
-1.15036e-06
1.13472e-05
1.91245e-06
-2.50339e-06
1.27407e-05
2.80994e-06
-4.20344e-06
1.48396e-05
3.19257e-06
-5.29149e-06
1.65504e-05
3.35293e-06
-5.06376e-06
1.78239e-05
1.63971e-06
-2.91322e-06
1.91847e-05
-6.32696e-07
-7.28092e-07
2.10195e-05
-3.8377e-06
2.00292e-06
2.26199e-05
-7.44027e-06
5.83991e-06
2.39286e-05
-1.06694e-05
9.36068e-06
2.53867e-05
-1.34122e-05
1.19542e-05
2.70614e-05
-1.70697e-05
1.53949e-05
2.87799e-05
-1.87085e-05
1.699e-05
3.00143e-05
-1.78071e-05
1.65727e-05
3.15724e-05
-2.09504e-05
1.93923e-05
3.24761e-05
-2.31122e-05
2.22085e-05
3.15451e-05
-2.13213e-05
2.22523e-05
3.04582e-05
-1.92442e-05
2.03311e-05
2.91614e-05
-1.62523e-05
1.75492e-05
2.75736e-05
-1.14513e-05
1.30391e-05
2.65243e-05
-5.49842e-06
6.54772e-06
2.54121e-05
2.39977e-06
-1.28757e-06
2.51323e-05
1.17427e-05
-1.14629e-05
2.62625e-05
1.84993e-05
-1.96295e-05
2.7282e-05
2.08989e-05
-2.19184e-05
2.73683e-05
1.97993e-05
-1.98856e-05
2.72901e-05
1.53981e-05
-1.532e-05
2.73288e-05
1.01887e-05
-1.02273e-05
2.71996e-05
3.58957e-06
-3.4604e-06
2.67244e-05
-8.03425e-06
8.50948e-06
2.54499e-05
-1.76947e-05
1.89692e-05
2.32683e-05
-1.8711e-05
2.08925e-05
2.06915e-05
-1.89085e-05
2.14854e-05
1.87087e-05
-2.08652e-05
2.2848e-05
1.70419e-05
-1.46912e-05
1.63579e-05
1.52614e-05
-3.32218e-06
5.10267e-06
1.35907e-05
-1.93e-06
3.60071e-06
1.18421e-05
-1.47556e-05
1.65043e-05
8.47353e-06
-3.7518e-05
4.08865e-05
6.54153e-06
-5.6123e-05
5.8055e-05
7.88416e-06
-5.60293e-05
5.46867e-05
9.26795e-06
-4.89501e-05
4.75663e-05
1.15853e-05
-4.28789e-05
4.05616e-05
1.35807e-05
-3.09209e-05
2.89255e-05
1.46711e-05
-1.77969e-05
1.67065e-05
1.67233e-05
-1.90472e-06
-1.47507e-07
1.91305e-05
1.44151e-05
-1.68223e-05
2.02957e-05
2.22739e-05
-2.34391e-05
2.13821e-05
2.25417e-05
-2.3628e-05
2.37816e-05
2.78353e-05
-3.02348e-05
2.67563e-05
4.03576e-05
-4.33323e-05
2.81517e-05
5.22459e-05
-5.36414e-05
2.74154e-05
5.54363e-05
-5.47e-05
2.54997e-05
5.13761e-05
-4.94604e-05
2.33176e-05
4.23369e-05
-4.01549e-05
2.05099e-05
3.40124e-05
-3.12046e-05
1.85268e-05
2.28584e-05
-2.08753e-05
1.60455e-05
1.73044e-05
-1.48232e-05
1.46341e-05
5.488e-06
-4.07657e-06
1.48137e-05
3.44464e-06
-3.6243e-06
1.48572e-05
-4.3861e-06
4.34259e-06
1.51578e-05
3.75642e-06
-4.05701e-06
1.54714e-05
-4.89435e-06
4.58076e-06
1.772e-05
8.13629e-06
-1.03849e-05
1.91933e-05
6.02005e-06
-7.4933e-06
2.12648e-05
1.17967e-05
-1.38681e-05
2.1724e-05
7.81379e-06
-8.273e-06
2.38076e-05
5.98053e-06
-8.06416e-06
2.48108e-05
3.46011e-06
-4.46326e-06
2.43422e-05
-6.43691e-06
6.90542e-06
2.36967e-05
-1.26573e-05
1.33029e-05
2.2099e-05
-1.90761e-05
2.06737e-05
2.14888e-05
-1.97925e-05
2.04028e-05
2.09207e-05
-1.30933e-05
1.36614e-05
1.99909e-05
-1.89305e-05
1.98604e-05
2.00799e-05
-1.37508e-05
1.36618e-05
2.00946e-05
-1.57562e-05
1.57415e-05
1.97311e-05
-2.37937e-05
2.41572e-05
1.92112e-05
-2.49778e-05
2.54977e-05
1.77607e-05
-8.99965e-06
1.04501e-05
1.82134e-05
-6.49609e-06
6.04341e-06
1.9094e-05
-1.07561e-05
9.87556e-06
2.147e-05
-1.14585e-05
9.08251e-06
2.22265e-05
-6.80807e-06
6.05154e-06
2.21281e-05
-6.58404e-06
6.6824e-06
2.23665e-05
2.27693e-06
-2.51531e-06
2.18249e-05
1.53115e-05
-1.47699e-05
2.04944e-05
2.45601e-05
-2.32295e-05
2.06521e-05
3.49043e-05
-3.50621e-05
1.84884e-05
5.11924e-05
-4.90287e-05
1.71607e-05
5.96244e-05
-5.82966e-05
8.55877e-05
-8.32976e-05
1.48706e-05
1.35493e-05
-8.44954e-08
1.35181e-05
7.42422e-07
1.4036e-05
-1.01147e-06
1.42038e-05
-2.24403e-06
1.43782e-05
-3.01328e-06
1.51432e-05
-2.47771e-06
1.50825e-05
-2.17042e-06
1.50856e-05
-1.23279e-06
1.56582e-05
-3.61774e-07
1.62634e-05
1.3072e-06
1.68956e-05
2.17779e-06
1.8019e-05
2.06908e-06
1.98456e-05
1.52633e-06
2.15311e-05
-4.57244e-08
2.28581e-05
-1.95971e-06
2.46484e-05
-5.62804e-06
2.64e-05
-9.19185e-06
2.77775e-05
-1.20469e-05
2.92201e-05
-1.48549e-05
3.04536e-05
-1.83032e-05
3.17849e-05
-2.00398e-05
3.27691e-05
-1.87913e-05
3.34948e-05
-2.1676e-05
3.36985e-05
-2.3316e-05
3.24773e-05
-2.01e-05
3.12687e-05
-1.80356e-05
3.01737e-05
-1.51573e-05
2.88002e-05
-1.00778e-05
2.76534e-05
-4.35165e-06
2.66623e-05
3.39089e-06
2.6347e-05
1.2058e-05
2.72058e-05
1.76406e-05
2.80667e-05
2.0038e-05
2.82306e-05
1.96354e-05
2.8358e-05
1.52707e-05
2.84484e-05
1.00984e-05
2.8337e-05
3.70093e-06
2.77704e-05
-7.4676e-06
2.61669e-05
-1.60912e-05
2.3774e-05
-1.63181e-05
2.11972e-05
-1.63318e-05
1.93074e-05
-1.89755e-05
1.77412e-05
-1.31249e-05
1.59923e-05
-1.57331e-06
1.41137e-05
-5.14457e-08
1.21266e-05
-1.27684e-05
8.41148e-06
-3.38029e-05
6.17534e-06
-5.38869e-05
7.40608e-06
-5.72601e-05
8.52693e-06
-5.0071e-05
1.01772e-05
-4.45292e-05
1.22912e-05
-3.30349e-05
1.37001e-05
-1.92058e-05
1.55995e-05
-3.80414e-06
1.78603e-05
1.21544e-05
1.9109e-05
2.10252e-05
2.01924e-05
2.14583e-05
2.24662e-05
2.55615e-05
2.54942e-05
3.73296e-05
2.72615e-05
5.04786e-05
2.71158e-05
5.5582e-05
2.57229e-05
5.2769e-05
2.41557e-05
4.39041e-05
2.1746e-05
3.64221e-05
2.0143e-05
2.44614e-05
1.84822e-05
1.89652e-05
1.62654e-05
7.7048e-06
1.66057e-05
3.10438e-06
1.66724e-05
-4.45279e-06
1.69638e-05
3.46497e-06
1.70911e-05
-5.02159e-06
1.93734e-05
5.85396e-06
2.04665e-05
4.92696e-06
2.26179e-05
9.64523e-06
2.31471e-05
7.28458e-06
2.48289e-05
4.29876e-06
2.59138e-05
2.37518e-06
2.51069e-05
-5.62994e-06
2.44114e-05
-1.19619e-05
2.26833e-05
-1.7348e-05
2.18338e-05
-1.8943e-05
2.16222e-05
-1.28817e-05
2.04961e-05
-1.78045e-05
2.06807e-05
-1.39353e-05
2.10882e-05
-1.61637e-05
2.059e-05
-2.32956e-05
1.9353e-05
-2.37409e-05
1.76103e-05
-7.25691e-06
1.86391e-05
-7.52488e-06
1.92254e-05
-1.13423e-05
2.14664e-05
-1.36996e-05
2.22452e-05
-7.58683e-06
2.22456e-05
-6.58447e-06
2.23343e-05
2.1882e-06
2.22586e-05
1.53871e-05
2.06276e-05
2.61911e-05
2.17966e-05
3.37353e-05
2.04198e-05
5.25692e-05
2.25278e-05
5.75164e-05
8.76194e-05
2.04961e-05
1.89032e-05
-6.1485e-07
1.91449e-05
5.00749e-07
1.93242e-05
-1.19078e-06
1.96233e-05
-2.54316e-06
1.99993e-05
-3.38922e-06
2.05051e-05
-2.98354e-06
2.06411e-05
-2.30641e-06
2.08222e-05
-1.41385e-06
2.0792e-05
-3.31604e-07
2.14099e-05
6.89263e-07
2.22773e-05
1.31043e-06
2.27735e-05
1.5729e-06
2.404e-05
2.59844e-07
2.57648e-05
-1.77058e-06
2.70439e-05
-3.2388e-06
2.84629e-05
-7.04705e-06
3.0021e-05
-1.07499e-05
3.12255e-05
-1.32514e-05
3.23287e-05
-1.59581e-05
3.28368e-05
-1.88112e-05
3.35249e-05
-2.07279e-05
3.42124e-05
-1.94788e-05
3.41312e-05
-2.15948e-05
3.35893e-05
-2.27741e-05
3.23152e-05
-1.88259e-05
3.1523e-05
-1.72434e-05
3.08422e-05
-1.44766e-05
2.96606e-05
-8.89625e-06
2.85471e-05
-3.23806e-06
2.75531e-05
4.3848e-06
2.7147e-05
1.24641e-05
2.7822e-05
1.69655e-05
2.8453e-05
1.94071e-05
2.87351e-05
1.93533e-05
2.9066e-05
1.49397e-05
2.91026e-05
1.00618e-05
2.90094e-05
3.79409e-06
2.83896e-05
-6.84772e-06
2.65054e-05
-1.42071e-05
2.39947e-05
-1.38074e-05
2.16293e-05
-1.39663e-05
1.98738e-05
-1.722e-05
1.83138e-05
-1.15649e-05
1.65863e-05
1.54115e-07
1.46355e-05
1.89942e-06
1.24292e-05
-1.05622e-05
8.7294e-06
-3.01031e-05
6.3567e-06
-5.15142e-05
7.00892e-06
-5.79123e-05
7.80642e-06
-5.08685e-05
8.75475e-06
-4.54775e-05
1.0613e-05
-3.48932e-05
1.23295e-05
-2.09222e-05
1.42745e-05
-5.74921e-06
1.65752e-05
9.85374e-06
1.81628e-05
1.94376e-05
1.92899e-05
2.03311e-05
2.10209e-05
2.38305e-05
2.38102e-05
3.45403e-05
2.61108e-05
4.8178e-05
2.66921e-05
5.50008e-05
2.5653e-05
5.38081e-05
2.47307e-05
4.48264e-05
2.28677e-05
3.82851e-05
2.13166e-05
2.60126e-05
2.06853e-05
1.95965e-05
1.85818e-05
9.80835e-06
1.80667e-05
3.61944e-06
1.818e-05
-4.5661e-06
1.8802e-05
2.84295e-06
1.8326e-05
-4.54558e-06
2.0764e-05
3.41599e-06
2.17898e-05
3.90114e-06
2.36598e-05
7.77529e-06
2.42664e-05
6.67792e-06
2.5512e-05
3.05323e-06
2.64426e-05
1.44453e-06
2.55597e-05
-4.74698e-06
2.48542e-05
-1.12565e-05
2.31072e-05
-1.56009e-05
2.22915e-05
-1.81273e-05
2.23038e-05
-1.28941e-05
2.11384e-05
-1.6639e-05
2.1366e-05
-1.4163e-05
2.18673e-05
-1.6665e-05
2.11978e-05
-2.2626e-05
1.92534e-05
-2.17965e-05
1.75123e-05
-5.51581e-06
1.90088e-05
-9.02137e-06
1.91122e-05
-1.14457e-05
2.12401e-05
-1.58275e-05
2.18557e-05
-8.20242e-06
2.22019e-05
-6.93066e-06
2.19029e-05
2.48719e-06
2.26492e-05
1.46408e-05
2.10685e-05
2.77718e-05
2.31047e-05
3.1699e-05
2.23946e-05
5.32793e-05
2.65963e-05
5.33147e-05
8.91439e-05
2.50717e-05
2.33852e-05
-4.74151e-07
2.3703e-05
1.82941e-07
2.40603e-05
-1.54815e-06
2.41656e-05
-2.64841e-06
2.47367e-05
-3.96032e-06
2.52214e-05
-3.46823e-06
2.52573e-05
-2.34239e-06
2.57903e-05
-1.94681e-06
2.57185e-05
-2.59774e-07
2.60248e-05
3.82927e-07
2.70505e-05
2.84723e-07
2.75727e-05
1.05075e-06
2.83242e-05
-4.91701e-07
2.96633e-05
-3.10967e-06
3.08435e-05
-4.41902e-06
3.18286e-05
-8.03213e-06
3.28248e-05
-1.17461e-05
3.35797e-05
-1.40063e-05
3.42446e-05
-1.6623e-05
3.42625e-05
-1.88291e-05
3.43683e-05
-2.08337e-05
3.47445e-05
-1.98551e-05
3.40026e-05
-2.08529e-05
3.31698e-05
-2.19413e-05
3.24508e-05
-1.81069e-05
3.19903e-05
-1.67829e-05
3.149e-05
-1.39762e-05
3.02831e-05
-7.68939e-06
2.90476e-05
-2.00251e-06
2.795e-05
5.48239e-06
2.74604e-05
1.29536e-05
2.79244e-05
1.65016e-05
2.83569e-05
1.89745e-05
2.8825e-05
1.88852e-05
2.91842e-05
1.45805e-05
2.92858e-05
9.96022e-06
2.93839e-05
3.69598e-06
2.85284e-05
-5.99218e-06
2.64249e-05
-1.21036e-05
2.40206e-05
-1.14031e-05
2.19721e-05
-1.19178e-05
2.03956e-05
-1.56436e-05
1.89328e-05
-1.0102e-05
1.72327e-05
1.8542e-06
1.53281e-05
3.80407e-06
1.30924e-05
-8.32648e-06
9.60324e-06
-2.6614e-05
6.61443e-06
-4.85254e-05
6.01348e-06
-5.73113e-05
6.50862e-06
-5.13636e-05
7.20514e-06
-4.61741e-05
8.82472e-06
-3.65127e-05
1.07184e-05
-2.2816e-05
1.28814e-05
-7.91215e-06
1.52681e-05
7.46705e-06
1.69769e-05
1.77288e-05
1.81377e-05
1.91703e-05
1.97964e-05
2.21718e-05
2.24322e-05
3.19045e-05
2.46682e-05
4.59421e-05
2.58481e-05
5.38209e-05
2.52751e-05
5.4381e-05
2.48528e-05
4.52487e-05
2.388e-05
3.92579e-05
2.25341e-05
2.73584e-05
2.2251e-05
1.98796e-05
2.09877e-05
1.10716e-05
1.97947e-05
4.81241e-06
1.93162e-05
-4.08752e-06
2.05752e-05
1.58394e-06
1.95905e-05
-3.56086e-06
2.18697e-05
1.13672e-06
2.308e-05
2.69083e-06
2.45511e-05
6.30427e-06
2.52751e-05
5.95386e-06
2.61171e-05
2.2112e-06
2.66446e-05
9.1707e-07
2.55893e-05
-3.69167e-06
2.5001e-05
-1.06682e-05
2.36443e-05
-1.42442e-05
2.28954e-05
-1.73784e-05
2.29644e-05
-1.2963e-05
2.18887e-05
-1.55634e-05
2.21077e-05
-1.4382e-05
2.25265e-05
-1.70838e-05
2.15241e-05
-2.16235e-05
1.89866e-05
-1.9259e-05
1.75532e-05
-4.08239e-06
1.90422e-05
-1.05105e-05
1.89134e-05
-1.13169e-05
2.07914e-05
-1.77055e-05
2.11255e-05
-8.53647e-06
2.22784e-05
-8.0836e-06
2.08849e-05
3.88072e-06
2.23066e-05
1.32191e-05
2.0658e-05
2.94204e-05
2.39698e-05
2.83872e-05
2.3843e-05
5.34062e-05
2.9253e-05
4.79047e-05
8.94639e-05
2.8933e-05
2.74116e-05
2.76638e-07
2.75014e-05
9.3171e-08
2.8125e-05
-2.17175e-06
2.80961e-05
-2.6195e-06
2.85279e-05
-4.39214e-06
2.90106e-05
-3.95097e-06
2.89223e-05
-2.25409e-06
2.94601e-05
-2.48455e-06
2.95975e-05
-3.97168e-07
2.97567e-05
2.23726e-07
3.07072e-05
-6.65782e-07
3.13338e-05
4.2411e-07
3.18407e-05
-9.98586e-07
3.27916e-05
-4.06061e-06
3.37084e-05
-5.33581e-06
3.41827e-05
-8.50643e-06
3.47714e-05
-1.23348e-05
3.52384e-05
-1.44733e-05
3.53373e-05
-1.67219e-05
3.48678e-05
-1.83597e-05
3.43814e-05
-2.03473e-05
3.44749e-05
-1.99486e-05
3.35868e-05
-1.99647e-05
3.27633e-05
-2.11178e-05
3.28526e-05
-1.81962e-05
3.28546e-05
-1.67849e-05
3.22076e-05
-1.33292e-05
3.09992e-05
-6.48097e-06
2.98409e-05
-8.44197e-07
2.84364e-05
6.88687e-06
2.75552e-05
1.38348e-05
2.75611e-05
1.64957e-05
2.7912e-05
1.86236e-05
2.8607e-05
1.81903e-05
2.88927e-05
1.42949e-05
2.91113e-05
9.74164e-06
2.93373e-05
3.46998e-06
2.82671e-05
-4.92202e-06
2.6066e-05
-9.90253e-06
2.39291e-05
-9.26614e-06
2.23283e-05
-1.0317e-05
2.08473e-05
-1.41626e-05
1.94017e-05
-8.65644e-06
1.77277e-05
3.52821e-06
1.59641e-05
5.5677e-06
1.38507e-05
-6.2131e-06
1.05776e-05
-2.33409e-05
6.62018e-06
-4.45679e-05
4.77052e-06
-5.54617e-05
5.01772e-06
-5.16108e-05
5.52472e-06
-4.66811e-05
7.03984e-06
-3.80279e-05
8.91308e-06
-2.46892e-05
1.11042e-05
-1.01033e-05
1.3577e-05
4.9943e-06
1.57363e-05
1.55694e-05
1.71498e-05
1.77568e-05
1.83437e-05
2.0978e-05
2.06243e-05
2.96238e-05
2.28752e-05
4.36912e-05
2.4811e-05
5.18851e-05
2.47409e-05
5.44511e-05
2.45455e-05
4.54441e-05
2.4462e-05
3.93414e-05
2.35337e-05
2.82868e-05
2.32163e-05
2.0197e-05
2.28147e-05
1.14732e-05
2.17805e-05
5.84662e-06
2.051e-05
-2.81705e-06
2.18586e-05
2.35296e-07
2.08219e-05
-2.52418e-06
2.26641e-05
-7.05414e-07
2.42088e-05
1.14613e-06
2.54503e-05
5.06279e-06
2.62751e-05
5.12906e-06
2.66465e-05
1.83971e-06
2.66599e-05
9.0376e-07
2.58179e-05
-2.84974e-06
2.53361e-05
-1.01864e-05
2.42581e-05
-1.31662e-05
2.3457e-05
-1.65772e-05
2.36503e-05
-1.31563e-05
2.27743e-05
-1.46873e-05
2.29082e-05
-1.45159e-05
2.29746e-05
-1.71502e-05
2.15477e-05
-2.01966e-05
1.85658e-05
-1.62771e-05
1.76754e-05
-3.19205e-06
1.87905e-05
-1.16255e-05
1.86585e-05
-1.11848e-05
2.04831e-05
-1.95301e-05
2.04991e-05
-8.5525e-06
2.18383e-05
-9.42276e-06
2.01077e-05
5.61131e-06
2.21723e-05
1.11545e-05
1.99839e-05
3.16088e-05
2.47906e-05
2.35805e-05
2.50091e-05
5.31877e-05
3.11121e-05
4.18017e-05
8.84631e-05
3.21128e-05
3.04131e-05
6.2604e-07
3.06414e-05
-1.35118e-07
3.13179e-05
-2.84824e-06
3.12998e-05
-2.60136e-06
3.13799e-05
-4.47228e-06
3.17021e-05
-4.27315e-06
3.15758e-05
-2.12782e-06
3.18554e-05
-2.76415e-06
3.21544e-05
-6.96146e-07
3.2271e-05
1.07066e-07
3.29252e-05
-1.31998e-06
3.37108e-05
-3.61466e-07
3.40701e-05
-1.35789e-06
3.45637e-05
-4.55414e-06
3.52951e-05
-6.06726e-06
3.55022e-05
-8.7135e-06
3.56387e-05
-1.24714e-05
3.5727e-05
-1.45616e-05
3.53544e-05
-1.63492e-05
3.46411e-05
-1.76464e-05
3.3918e-05
-1.96242e-05
3.38574e-05
-1.9888e-05
3.34197e-05
-1.9527e-05
3.31184e-05
-2.08165e-05
3.34587e-05
-1.85365e-05
3.32449e-05
-1.65711e-05
3.24283e-05
-1.25127e-05
3.13797e-05
-5.43237e-06
3.04414e-05
9.41288e-08
2.90752e-05
8.25308e-06
2.78311e-05
1.50788e-05
2.73e-05
1.70268e-05
2.74491e-05
1.84746e-05
2.80175e-05
1.76218e-05
2.8313e-05
1.39994e-05
2.87539e-05
9.30079e-06
2.88219e-05
3.40199e-06
2.75593e-05
-3.65942e-06
2.55719e-05
-7.91512e-06
2.3844e-05
-7.53831e-06
2.26666e-05
-9.13964e-06
2.13116e-05
-1.28075e-05
1.97881e-05
-7.13302e-06
1.80805e-05
5.23582e-06
1.63638e-05
7.28449e-06
1.43663e-05
-4.21568e-06
1.12952e-05
-2.02697e-05
6.65273e-06
-3.99255e-05
4.03293e-06
-5.28419e-05
4.08196e-06
-5.16598e-05
4.15681e-06
-4.67559e-05
5.24118e-06
-3.91122e-05
6.96344e-06
-2.64115e-05
9.1442e-06
-1.22841e-05
1.16432e-05
2.49532e-06
1.42144e-05
1.29982e-05
1.56789e-05
1.62923e-05
1.67357e-05
1.99212e-05
1.90023e-05
2.73572e-05
2.09337e-05
4.17598e-05
2.33318e-05
4.9487e-05
2.39906e-05
5.37922e-05
2.39232e-05
4.55116e-05
2.45392e-05
3.87254e-05
2.44112e-05
2.84148e-05
2.39569e-05
2.06513e-05
2.3732e-05
1.16981e-05
2.34867e-05
6.09197e-06
2.18038e-05
-1.13419e-06
2.2549e-05
-5.09902e-07
2.18594e-05
-1.83461e-06
2.31227e-05
-1.96866e-06
2.48548e-05
-5.85957e-07
2.61758e-05
3.74178e-06
2.71857e-05
4.11916e-06
2.72443e-05
1.78106e-06
2.68499e-05
1.29816e-06
2.61764e-05
-2.17624e-06
2.57675e-05
-9.77744e-06
2.5129e-05
-1.25278e-05
2.41704e-05
-1.56186e-05
2.4048e-05
-1.30339e-05
2.33683e-05
-1.40077e-05
2.35007e-05
-1.46483e-05
2.3167e-05
-1.68165e-05
2.1297e-05
-1.83267e-05
1.80727e-05
-1.30528e-05
1.75132e-05
-2.63258e-06
1.78198e-05
-1.19321e-05
1.82712e-05
-1.16362e-05
2.01589e-05
-2.14178e-05
1.95769e-05
-7.97051e-06
2.11466e-05
-1.09925e-05
1.94126e-05
7.34533e-06
2.19181e-05
8.64902e-06
1.96351e-05
3.38918e-05
2.56236e-05
1.7592e-05
2.53184e-05
5.34928e-05
3.17233e-05
3.53969e-05
8.60113e-05
3.41752e-05
3.21048e-05
2.1784e-07
3.27788e-05
-8.09097e-07
3.32937e-05
-3.36319e-06
3.33767e-05
-2.68433e-06
3.30262e-05
-4.12178e-06
3.29711e-05
-4.21804e-06
3.28881e-05
-2.04483e-06
3.27704e-05
-2.64644e-06
3.31395e-05
-1.06523e-06
3.34279e-05
-1.81319e-07
3.37245e-05
-1.61656e-06
3.44569e-05
-1.09387e-06
3.48623e-05
-1.76337e-06
3.50242e-05
-4.716e-06
3.55921e-05
-6.63519e-06
3.58414e-05
-8.96277e-06
3.56184e-05
-1.22483e-05
3.53129e-05
-1.42561e-05
3.47823e-05
-1.58186e-05
3.40821e-05
-1.69463e-05
3.34164e-05
-1.89585e-05
3.34983e-05
-1.99699e-05
3.35366e-05
-1.95654e-05
3.34529e-05
-2.07327e-05
3.37686e-05
-1.88522e-05
3.313e-05
-1.59325e-05
3.20712e-05
-1.14539e-05
3.1362e-05
-4.72318e-06
3.05519e-05
9.042e-07
2.92898e-05
9.51525e-06
2.80612e-05
1.63074e-05
2.72106e-05
1.78774e-05
2.69463e-05
1.87389e-05
2.72743e-05
1.72938e-05
2.77144e-05
1.35593e-05
2.82478e-05
8.76738e-06
2.80734e-05
3.57633e-06
2.67506e-05
-2.3366e-06
2.5094e-05
-6.25851e-06
2.38699e-05
-6.31418e-06
2.30029e-05
-8.27263e-06
2.1634e-05
-1.14386e-05
1.99749e-05
-5.47391e-06
1.8311e-05
6.89976e-06
1.66883e-05
8.90712e-06
1.47394e-05
-2.26675e-06
1.17662e-05
-1.72965e-05
6.84708e-06
-3.50064e-05
3.63515e-06
-4.963e-05
3.21983e-06
-5.12445e-05
2.82612e-06
-4.63622e-05
3.41041e-06
-3.96965e-05
4.84256e-06
-2.78436e-05
6.92155e-06
-1.4363e-05
9.29681e-06
1.20058e-07
1.22255e-05
1.00694e-05
1.39992e-05
1.45187e-05
1.49865e-05
1.89339e-05
1.6963e-05
2.53807e-05
1.87377e-05
3.99851e-05
2.15222e-05
4.67025e-05
2.28502e-05
5.24642e-05
2.30167e-05
4.53451e-05
2.4146e-05
3.75961e-05
2.50873e-05
2.74735e-05
2.4792e-05
2.09466e-05
2.42007e-05
1.22894e-05
2.46101e-05
5.68257e-06
2.32111e-05
2.6483e-07
2.30199e-05
-3.18708e-07
2.25505e-05
-1.36517e-06
2.31931e-05
-2.61125e-06
2.48359e-05
-2.22881e-06
2.65052e-05
2.07254e-06
2.76961e-05
2.92822e-06
2.74766e-05
2.00057e-06
2.7017e-05
1.7577e-06
2.69353e-05
-2.09448e-06
2.65288e-05
-9.37097e-06
2.58896e-05
-1.18885e-05
2.4685e-05
-1.44141e-05
2.42831e-05
-1.26321e-05
2.38944e-05
-1.36189e-05
2.38493e-05
-1.46032e-05
2.3094e-05
-1.60612e-05
2.09034e-05
-1.61361e-05
1.77925e-05
-9.94187e-06
1.69476e-05
-1.78771e-06
1.64897e-05
-1.14742e-05
1.7725e-05
-1.28715e-05
1.87922e-05
-2.2485e-05
1.84796e-05
-7.65788e-06
2.0507e-05
-1.30199e-05
1.83935e-05
9.45882e-06
2.10207e-05
6.02182e-06
1.89613e-05
3.59513e-05
2.64231e-05
1.01302e-05
2.53978e-05
5.4518e-05
3.13089e-05
2.94859e-05
8.19757e-05
3.53444e-05
3.39619e-05
-1.21807e-07
3.39756e-05
-8.22829e-07
3.38663e-05
-3.25387e-06
3.39472e-05
-2.7652e-06
3.33302e-05
-3.50485e-06
3.2959e-05
-3.84676e-06
3.29269e-05
-2.01276e-06
3.25745e-05
-2.29402e-06
3.29788e-05
-1.46955e-06
3.34374e-05
-6.39984e-07
3.34997e-05
-1.67884e-06
3.41384e-05
-1.73252e-06
3.465e-05
-2.27495e-06
3.47672e-05
-4.83325e-06
3.53027e-05
-7.1707e-06
3.56107e-05
-9.27074e-06
3.51749e-05
-1.18126e-05
3.45854e-05
-1.36666e-05
3.40982e-05
-1.53314e-05
3.38182e-05
-1.66662e-05
3.34821e-05
-1.86224e-05
3.34981e-05
-1.99859e-05
3.36074e-05
-1.96748e-05
3.3102e-05
-2.02273e-05
3.26466e-05
-1.83967e-05
3.17234e-05
-1.50093e-05
3.08014e-05
-1.05319e-05
3.03612e-05
-4.28295e-06
2.95531e-05
1.71229e-06
2.86339e-05
1.04344e-05
2.80357e-05
1.69056e-05
2.71891e-05
1.8724e-05
2.65933e-05
1.93348e-05
2.6869e-05
1.70181e-05
2.73407e-05
1.30876e-05
2.75044e-05
8.60364e-06
2.71112e-05
3.96952e-06
2.60596e-05
-1.28501e-06
2.47893e-05
-4.98822e-06
2.39207e-05
-5.4456e-06
2.3229e-05
-7.58087e-06
2.18027e-05
-1.00124e-05
1.99909e-05
-3.66209e-06
1.83529e-05
8.53777e-06
1.69177e-05
1.03423e-05
1.50754e-05
-4.24506e-07
1.20761e-05
-1.42972e-05
7.05698e-06
-2.99873e-05
3.19275e-06
-4.57657e-05
1.87299e-06
-4.99248e-05
1.04374e-06
-4.5533e-05
1.33742e-06
-3.99902e-05
2.50316e-06
-2.90093e-05
4.36018e-06
-1.62201e-05
6.75606e-06
-2.27583e-06
1.00795e-05
6.74597e-06
1.1756e-05
1.28423e-05
1.2832e-05
1.78579e-05
1.49525e-05
2.32602e-05
1.64419e-05
3.84957e-05
1.94991e-05
4.36453e-05
2.14223e-05
5.0541e-05
2.18468e-05
4.49205e-05
2.32411e-05
3.62018e-05
2.52091e-05
2.55055e-05
2.57439e-05
2.04118e-05
2.4874e-05
1.31593e-05
2.50487e-05
5.50784e-06
2.41183e-05
1.19527e-06
2.33707e-05
4.28866e-07
2.3101e-05
-1.0955e-06
2.33341e-05
-2.84438e-06
2.45275e-05
-3.42214e-06
2.63418e-05
2.58212e-07
2.76464e-05
1.62363e-06
2.7649e-05
1.99792e-06
2.74038e-05
2.00297e-06
2.75624e-05
-2.25312e-06
2.71429e-05
-8.95142e-06
2.65591e-05
-1.13048e-05
2.50746e-05
-1.29295e-05
2.43731e-05
-1.19305e-05
2.42556e-05
-1.35014e-05
2.39007e-05
-1.42483e-05
2.28995e-05
-1.506e-05
2.04011e-05
-1.36377e-05
1.72493e-05
-6.78999e-06
1.58466e-05
-3.85066e-07
1.50086e-05
-1.06362e-05
1.66748e-05
-1.45377e-05
1.66797e-05
-2.24899e-05
1.73829e-05
-8.36107e-06
1.89363e-05
-1.45733e-05
1.7098e-05
1.12971e-05
1.9886e-05
3.23382e-06
1.82129e-05
3.76245e-05
2.73659e-05
9.77178e-07
2.52194e-05
5.66646e-05
3.06706e-05
2.40346e-05
7.7125e-05
3.55214e-05
3.4438e-05
-5.65888e-07
3.42882e-05
-6.72997e-07
3.3694e-05
-2.65966e-06
3.36442e-05
-2.71545e-06
3.30064e-05
-2.86699e-06
3.26583e-05
-3.49868e-06
3.27688e-05
-2.12333e-06
3.25153e-05
-2.04048e-06
3.29518e-05
-1.90601e-06
3.33091e-05
-9.97324e-07
3.31653e-05
-1.53507e-06
3.3732e-05
-2.2992e-06
3.44291e-05
-2.97202e-06
3.46662e-05
-5.07034e-06
3.5093e-05
-7.59749e-06
3.51406e-05
-9.31837e-06
3.44038e-05
-1.10757e-05
3.39609e-05
-1.32237e-05
3.38824e-05
-1.52529e-05
3.37084e-05
-1.64922e-05
3.31875e-05
-1.81015e-05
3.27128e-05
-1.95112e-05
3.23381e-05
-1.93e-05
3.14346e-05
-1.93238e-05
3.05009e-05
-1.7463e-05
2.93843e-05
-1.38927e-05
2.85046e-05
-9.65219e-06
2.81348e-05
-3.91313e-06
2.74214e-05
2.42564e-06
2.72248e-05
1.0631e-05
2.75197e-05
1.66108e-05
2.68877e-05
1.9356e-05
2.65149e-05
1.97075e-05
2.68771e-05
1.66559e-05
2.68262e-05
1.31386e-05
2.64592e-05
8.97071e-06
2.6085e-05
4.34371e-06
2.54149e-05
-6.1497e-07
2.4442e-05
-4.01524e-06
2.37635e-05
-4.76718e-06
2.30872e-05
-6.9045e-06
2.16159e-05
-8.54109e-06
1.97199e-05
-1.76607e-06
1.81362e-05
1.01214e-05
1.70109e-05
1.14676e-05
1.54348e-05
1.15163e-06
1.2417e-05
-1.12793e-05
7.46934e-06
-2.50396e-05
2.86296e-06
-4.11593e-05
6.27759e-07
-4.76896e-05
-5.85191e-07
-4.432e-05
-7.03715e-07
-3.98717e-05
1.55323e-07
-2.98684e-05
1.78918e-06
-1.78539e-05
4.211e-06
-4.69764e-06
7.44827e-06
3.5087e-06
9.16913e-06
1.11214e-05
1.05375e-05
1.64895e-05
1.24519e-05
2.13458e-05
1.39258e-05
3.70218e-05
1.75322e-05
4.0039e-05
1.95434e-05
4.85298e-05
2.04277e-05
4.40362e-05
2.19564e-05
3.46731e-05
2.43597e-05
2.31022e-05
2.59357e-05
1.88358e-05
2.55846e-05
1.35104e-05
2.55765e-05
5.51601e-06
2.47799e-05
1.99183e-06
2.3777e-05
1.4318e-06
2.35009e-05
-8.19458e-07
2.36579e-05
-3.00132e-06
2.43115e-05
-4.07579e-06
2.59785e-05
-1.4088e-06
2.71288e-05
4.73347e-07
2.74102e-05
1.71658e-06
2.75943e-05
1.81887e-06
2.78486e-05
-2.50748e-06
2.72184e-05
-8.3212e-06
2.63995e-05
-1.04859e-05
2.49626e-05
-1.14927e-05
2.43726e-05
-1.13405e-05
2.45315e-05
-1.36603e-05
2.3883e-05
-1.35998e-05
2.24571e-05
-1.36341e-05
1.96177e-05
-1.07983e-05
1.64588e-05
-3.63112e-06
1.47924e-05
1.28136e-06
1.37353e-05
-9.57906e-06
1.50269e-05
-1.58293e-05
1.38557e-05
-2.13187e-05
1.58172e-05
-1.03226e-05
1.6455e-05
-1.52111e-05
1.55882e-05
1.21638e-05
1.82633e-05
5.58754e-07
1.71562e-05
3.87315e-05
2.73973e-05
-9.26388e-06
2.4181e-05
5.98809e-05
2.97898e-05
1.84258e-05
7.18049e-05
3.511e-05
3.40816e-05
-7.14899e-07
3.39551e-05
-5.46438e-07
3.35632e-05
-2.26778e-06
3.34613e-05
-2.61357e-06
3.30976e-05
-2.50332e-06
3.29289e-05
-3.32994e-06
3.3007e-05
-2.20145e-06
3.27962e-05
-1.82971e-06
3.29514e-05
-2.06116e-06
3.31295e-05
-1.17539e-06
3.31095e-05
-1.51515e-06
3.36851e-05
-2.8748e-06
3.4456e-05
-3.74289e-06
3.45902e-05
-5.20457e-06
3.44859e-05
-7.49316e-06
3.42762e-05
-9.10861e-06
3.38003e-05
-1.05999e-05
3.3633e-05
-1.30565e-05
3.35432e-05
-1.5163e-05
3.29647e-05
-1.59137e-05
3.18878e-05
-1.70246e-05
3.09234e-05
-1.85468e-05
3.00817e-05
-1.84584e-05
2.86018e-05
-1.78439e-05
2.71625e-05
-1.60237e-05
2.60326e-05
-1.27628e-05
2.522e-05
-8.83965e-06
2.48354e-05
-3.52853e-06
2.4559e-05
2.70212e-06
2.51647e-05
1.00252e-05
2.58597e-05
1.59158e-05
2.56227e-05
1.9593e-05
2.58339e-05
1.94964e-05
2.59688e-05
1.65209e-05
2.55086e-05
1.35988e-05
2.53221e-05
9.15713e-06
2.52428e-05
4.42302e-06
2.47104e-05
-8.25693e-08
2.38852e-05
-3.19004e-06
2.33136e-05
-4.19556e-06
2.2636e-05
-6.22693e-06
2.11279e-05
-7.03299e-06
1.91876e-05
1.74219e-07
1.76245e-05
1.16845e-05
1.68187e-05
1.22734e-05
1.57665e-05
2.2038e-06
1.29504e-05
-8.46325e-06
8.0686e-06
-2.01578e-05
2.76733e-06
-3.58581e-05
-2.76179e-07
-4.46461e-05
-1.68808e-06