/*--------------------------------*- C++ -*----------------------------------*\
| =========                 |                                                 |
| \\      /  F ield         | OpenFOAM: The Open Source CFD Toolbox           |
|  \\    /   O peration     | Version:  2.4.0                                 |
|   \\  /    A nd           | Web:      www.OpenFOAM.org                      |
|    \\/     M anipulation  |                                                 |
\*---------------------------------------------------------------------------*/
FoamFile
{
    version     2.0;
    format      ascii;
    class       volScalarField;
    location    "0.093";
    object      k;
}
// * * * * * * * * * * * * * * * * * * * * * * * * * * * * * * * * * * * * * //

dimensions      [0 2 -2 0 0 0 0];

internalField   nonuniform List<scalar> 
17600
(
9.28446
7.41605
5.10944
3.95069
3.31833
2.97415
2.67159
2.49319
2.31523
2.20597
2.11965
2.01099
1.98435
1.87851
1.87143
1.77388
1.77085
1.71841
1.64886
1.91169
4.50251
6.2154
5.82795
5.06655
4.38677
3.96118
3.57269
3.33368
3.10636
2.94215
2.83505
2.6722
2.64161
2.50858
2.48533
2.37827
2.36288
2.29218
2.22678
2.2958
1.31695
3.29917
3.97833
3.96407
3.74999
3.48649
3.21039
3.0213
2.85197
2.69164
2.61878
2.46097
2.43518
2.32813
2.29936
2.2169
2.19076
2.13841
2.09405
2.03479
0.206719
1.21164
1.89843
2.33876
2.49799
2.51917
2.47725
2.39216
2.32872
2.2109
2.18017
2.0767
2.05553
1.98698
1.96162
1.91265
1.87138
1.86025
1.82509
1.72701
0.0259115
0.291866
0.616223
0.971361
1.23491
1.42776
1.54638
1.58988
1.63611
1.61102
1.62151
1.58925
1.58289
1.56354
1.54606
1.53803
1.49896
1.50799
1.50342
1.42009
0.00273162
0.0545542
0.130271
0.267056
0.41848
0.562907
0.712502
0.796467
0.920588
0.950047
1.01607
1.03862
1.05715
1.08511
1.08991
1.11043
1.10049
1.10568
1.14174
1.10197
0.000274924
0.00843287
0.022222
0.0451146
0.0980532
0.140603
0.226289
0.270731
0.366732
0.407694
0.471086
0.531502
0.556707
0.610234
0.632192
0.677894
0.695541
0.700283
0.75676
0.766536
4.6324e-05
0.00122705
0.00332409
0.00620091
0.0150829
0.0242554
0.0466532
0.0615352
0.0960405
0.120296
0.144204
0.189987
0.207978
0.247668
0.268043
0.309882
0.339012
0.348742
0.392527
0.447124
2.71798e-05
0.000256365
0.000539191
0.000825561
0.0018033
0.00309737
0.00662578
0.00948636
0.0163698
0.0237632
0.0293483
0.0440073
0.0514597
0.067994
0.0766548
0.0975424
0.111259
0.120158
0.144922
0.183858
2.64414e-05
0.000126232
0.000165708
0.00017789
0.000256323
0.000403752
0.000866683
0.00121553
0.00214075
0.00326345
0.00412944
0.00671307
0.00831984
0.0121275
0.0142809
0.020398
0.0235636
0.0268947
0.0359394
0.0476058
2.47101e-05
7.48439e-05
0.000100149
9.20269e-05
9.56439e-05
0.000112507
0.000199563
0.000246286
0.000362602
0.000449196
0.000527459
0.000813037
0.00100097
0.00146108
0.00182946
0.00293922
0.00340374
0.00401558
0.00541469
0.00900461
2.28161e-05
3.88273e-05
7.94211e-05
8.65609e-05
8.36822e-05
7.95122e-05
9.09243e-05
0.000116256
0.000129156
0.000137736
0.000153351
0.000196666
0.000208004
0.000230618
0.000316876
0.000392709
0.000492068
0.00053752
0.000654246
0.00128461
2.19856e-05
3.14974e-05
6.52148e-05
8.62691e-05
7.97588e-05
6.42919e-05
6.5418e-05
7.03995e-05
7.97643e-05
0.000111002
0.000133685
0.000136072
0.00012904
0.000116169
0.000118006
0.000117772
0.00015205
0.000167941
0.000275244
0.000339712
2.18714e-05
2.87632e-05
5.72399e-05
6.31005e-05
5.73422e-05
5.29702e-05
5.3048e-05
5.67494e-05
7.52058e-05
9.79667e-05
9.73865e-05
9.31243e-05
8.77707e-05
8.17798e-05
8.0268e-05
8.24375e-05
0.00011042
0.000118923
0.00020491
0.00020675
2.14495e-05
2.70348e-05
4.17132e-05
4.21173e-05
4.72395e-05
5.35826e-05
5.45883e-05
5.67292e-05
6.43778e-05
6.52799e-05
6.3813e-05
6.60645e-05
6.90528e-05
7.37219e-05
7.68973e-05
8.73257e-05
8.76524e-05
9.25119e-05
0.000102107
0.000105765
2.08435e-05
2.57546e-05
3.17234e-05
4.3446e-05
5.20425e-05
5.19822e-05
5.00932e-05
5.05962e-05
5.02299e-05
5.02939e-05
5.25017e-05
6.46896e-05
6.67655e-05
6.89418e-05
7.01451e-05
6.93366e-05
6.7033e-05
8.46115e-05
8.86134e-05
0.000104131
2.06836e-05
2.52476e-05
3.36013e-05
4.60266e-05
4.69828e-05
4.52991e-05
4.47126e-05
4.47485e-05
4.54451e-05
4.8621e-05
5.57764e-05
5.79004e-05
5.66193e-05
5.63919e-05
5.56029e-05
5.55586e-05
5.83547e-05
6.7635e-05
8.79686e-05
0.000177083
2.07446e-05
2.49021e-05
3.44233e-05
3.96953e-05
4.09437e-05
4.10696e-05
4.28321e-05
4.35627e-05
4.53125e-05
4.76181e-05
4.89947e-05
4.94268e-05
4.93953e-05
5.04552e-05
5.16234e-05
5.26848e-05
6.38427e-05
6.83241e-05
7.1271e-05
0.000165191
2.06837e-05
2.42435e-05
3.09424e-05
3.91313e-05
4.14175e-05
4.19912e-05
4.16129e-05
4.11731e-05
4.16541e-05
4.2613e-05
4.49219e-05
4.64058e-05
4.94752e-05
4.96669e-05
5.01642e-05
5.08689e-05
5.32418e-05
6.12837e-05
7.61005e-05
0.000113575
2.05651e-05
2.41243e-05
3.40003e-05
3.79987e-05
3.86772e-05
3.83758e-05
3.98778e-05
4.1487e-05
4.32458e-05
4.32996e-05
4.33699e-05
4.35891e-05
4.46451e-05
4.68138e-05
4.77394e-05
4.9691e-05
5.24538e-05
5.42129e-05
6.96229e-05
8.90972e-05
2.05588e-05
2.60605e-05
3.15943e-05
3.26189e-05
3.59034e-05
4.08099e-05
4.19762e-05
4.18878e-05
4.07571e-05
4.04806e-05
4.06934e-05
4.15621e-05
4.31116e-05
4.85478e-05
4.84052e-05
4.91728e-05
5.21799e-05
5.67639e-05
5.81807e-05
8.02366e-05
2.06227e-05
2.50038e-05
2.94961e-05
3.55448e-05
4.14308e-05
4.20917e-05
4.10407e-05
3.94066e-05
3.89445e-05
3.91827e-05
4.35894e-05
4.49583e-05
4.71001e-05
4.86796e-05
4.84285e-05
4.78439e-05
4.99904e-05
5.42533e-05
5.7158e-05
8.07726e-05
2.06798e-05
2.45462e-05
3.19936e-05
3.95494e-05
4.1579e-05
4.04193e-05
3.93471e-05
4.14458e-05
4.2264e-05
4.64496e-05
4.74054e-05
4.69668e-05
4.86997e-05
4.86032e-05
4.90056e-05
5.44574e-05
5.58009e-05
5.67913e-05
6.16563e-05
6.38038e-05
2.08541e-05
2.50159e-05
3.47778e-05
3.90949e-05
4.01112e-05
4.01426e-05
4.49075e-05
4.81862e-05
4.7464e-05
5.04022e-05
4.8904e-05
4.86483e-05
5.36978e-05
5.41095e-05
5.48941e-05
6.38627e-05
6.30172e-05
6.40124e-05
6.52744e-05
7.30501e-05
2.10465e-05
2.61197e-05
3.47698e-05
3.96724e-05
4.46559e-05
4.68287e-05
5.21582e-05
4.95904e-05
4.87968e-05
5.15477e-05
5.10112e-05
5.71319e-05
6.28791e-05
6.23356e-05
6.7765e-05
6.71639e-05
6.52982e-05
6.86791e-05
6.93042e-05
7.2177e-05
2.13021e-05
2.75238e-05
3.46398e-05
4.54173e-05
5.13285e-05
5.33345e-05
5.30344e-05
5.00479e-05
5.51738e-05
5.7442e-05
5.9307e-05
7.04339e-05
6.87565e-05
6.76758e-05
7.18069e-05
7.07968e-05
7.36691e-05
7.89972e-05
8.04338e-05
8.65331e-05
2.17843e-05
2.77394e-05
3.79031e-05
5.26356e-05
5.70134e-05
5.68227e-05
5.50329e-05
5.63585e-05
6.67823e-05
6.78874e-05
7.28259e-05
7.59898e-05
7.43184e-05
7.84291e-05
8.04291e-05
8.39876e-05
9.5799e-05
9.96316e-05
0.000105608
0.000126132
2.20474e-05
2.86672e-05
4.3984e-05
5.86331e-05
6.28123e-05
6.24294e-05
6.35448e-05
7.50493e-05
7.71924e-05
7.88886e-05
8.6653e-05
8.9714e-05
9.33846e-05
0.000108736
0.000116352
0.000138683
0.000153998
0.000185518
0.000238209
0.000361006
2.2879e-05
3.00777e-05
5.50348e-05
6.54784e-05
7.78346e-05
7.87501e-05
8.90168e-05
9.25262e-05
9.61559e-05
0.000114292
0.000129851
0.000168421
0.000197484
0.000266522
0.000318793
0.00046717
0.000611987
0.000954325
0.00137924
0.00244147
2.33142e-05
3.32958e-05
7.72107e-05
9.44887e-05
0.000111928
0.000118941
0.000165678
0.000191034
0.000247015
0.000424268
0.000540466
0.000852257
0.00108591
0.00167616
0.00214871
0.00344818
0.00454495
0.00715102
0.00963628
0.0170256
2.4406e-05
4.95522e-05
0.000151247
0.00020283
0.000267888
0.000382645
0.0008393
0.0011654
0.00173238
0.00333056
0.00431493
0.00685933
0.00860015
0.0128347
0.0157899
0.0234651
0.0287243
0.041077
0.0505627
0.0814407
2.82574e-05
0.000151271
0.000555968
0.000914881
0.00165247
0.00285818
0.00686385
0.00987613
0.0141783
0.0250554
0.0306013
0.0438946
0.0523524
0.0711379
0.0819935
0.108169
0.123884
0.15842
0.181772
0.252263
4.99851e-05
0.000894446
0.00350575
0.0066413
0.0139656
0.0230133
0.0482641
0.0631152
0.088375
0.127944
0.145948
0.185969
0.213625
0.256973
0.280264
0.331754
0.359327
0.414787
0.448644
0.534781
0.000281435
0.00642425
0.0251164
0.0466892
0.0944095
0.138304
0.231606
0.272909
0.353893
0.42373
0.4635
0.528953
0.576627
0.619151
0.649423
0.702467
0.727779
0.777435
0.805459
0.875341
0.00274605
0.0444398
0.149753
0.2549
0.422087
0.556974
0.721917
0.795128
0.909664
0.964038
1.00747
1.04454
1.07801
1.08926
1.10907
1.12871
1.14205
1.16355
1.17839
1.21041
0.0260425
0.268704
0.648479
0.953888
1.2508
1.41866
1.55725
1.5833
1.63274
1.61924
1.61721
1.59841
1.59234
1.56639
1.56085
1.54208
1.53847
1.52631
1.51988
1.51136
0.207835
1.19718
1.92975
2.31765
2.51925
2.51084
2.47869
2.38344
2.33046
2.21549
2.17692
2.0857
2.05529
1.98491
1.96197
1.90225
1.88281
1.83395
1.79989
1.76243
1.3236
3.28605
3.99819
3.95682
3.77298
3.45365
3.22996
3.00115
2.86517
2.67957
2.61476
2.46841
2.42275
2.3183
2.28102
2.18307
2.14785
2.05569
1.9978
1.91159
4.50794
6.20807
5.84348
5.04193
4.42492
3.92545
3.59624
3.30698
3.12815
2.91301
2.83803
2.66547
2.61356
2.48619
2.44043
2.3111
2.26122
2.12763
2.05086
1.90104
9.29145
7.41174
5.12432
3.92651
3.34365
2.95036
2.68868
2.46774
2.33568
2.17562
2.12123
1.99402
1.95331
1.84526
1.80998
1.69498
1.64426
1.51568
1.43912
1.27291
0.714568
0.446061
0.496761
0.571976
0.661066
0.67693
0.785194
0.667729
0.480328
0.310763
0.224545
0.162547
0.140452
0.137456
0.135334
0.143486
0.148334
0.143961
0.143719
0.139695
0.136631
0.13198
0.118411
0.109944
0.111165
0.120922
0.164625
0.193146
0.188749
0.160307
0.0790357
0.0306521
0.0122488
0.00545469
0.00263225
0.00183878
0.00177131
0.00181128
0.00223858
0.0045311
0.0138021
0.0451652
0.114202
0.146153
0.151864
0.148641
0.140278
0.129235
0.123904
0.120517
0.118337
0.11701
0.115045
0.10353
0.0913286
0.0819009
0.0620986
0.046003
0.0327053
0.0216071
0.0146642
0.0106962
0.00840811
0.00689223
0.00582751
0.00528407
0.00521721
0.00526088
0.00581134
0.00699413
0.00717035
0.0073105
0.00973211
0.0115765
0.0136187
0.0168853
0.0229132
0.040559
0.0644834
0.0754176
0.0775623
0.0761658
0.0681526
0.0596185
0.0567069
0.0545034
0.0534744
0.055669
0.0838961
0.120441
0.121222
0.112563
0.120645
0.132793
0.127579
0.0889665
0.0539106
0.0398677
0.0376907
0.0367
0.0365403
0.0366138
0.0387448
0.043274
0.044843
0.0457469
0.0488373
0.0509743
0.0492569
0.0423892
0.0355963
0.0285238
0.0231139
0.0193981
0.0176367
0.0174998
0.0182293
0.0186649
0.0188716
0.0194419
0.0210823
0.0240602
0.028135
0.0311709
0.033956
0.0358103
0.0363746
0.037281
0.0398802
0.0467204
0.0528479
0.0579942
0.0661579
0.0707832
0.0802044
0.0887525
0.0892069
0.0885078
0.0846123
0.0792568
0.0706023
0.0647853
0.0556484
0.0452343
0.0330869
0.0233191
0.0160022
0.0113364
0.0084696
0.00663107
0.00534564
0.00437106
0.00357008
0.00298044
0.002482
0.00217111
0.00191301
0.00178259
0.00167815
0.00166791
0.00165888
0.00169441
0.00169976
0.00174955
0.00174364
0.00177976
0.00174752
0.00174076
0.00165273
0.00158589
0.00138679
0.00125439
0.000968699
0.000813166
0.00063081
0.000550572
0.000463395
0.000397485
0.000377875
0.000337181
0.000342085
0.000307563
0.000284183
0.000186795
0.000151507
0.000107296
0.000107003
0.000123991
0.000106878
0.000118948
0.000107606
0.000124869
0.00024481
0.000238698
0.000310936
0.000531856
0.00119179
0.00440984
0.0415898
0.470126
1.66591
1.10909
0.983983
0.841816
0.824259
0.742721
0.769449
0.764848
0.735814
0.626057
0.411247
0.279052
0.205192
0.16257
0.154116
0.154992
0.155045
0.151124
0.149805
0.140358
0.137364
0.129637
0.129789
0.134562
0.149002
0.188131
0.211629
0.205353
0.179519
0.102695
0.0431376
0.0164849
0.00699092
0.00336072
0.00191612
0.00166455
0.00171449
0.00186576
0.00279393
0.00729196
0.0255881
0.0884086
0.143605
0.158546
0.156754
0.148598
0.130671
0.115277
0.108708
0.108665
0.110841
0.113496
0.113408
0.107201
0.0983788
0.0893693
0.0699796
0.0542541
0.0392609
0.0253045
0.0166625
0.0121778
0.00977831
0.00805373
0.00683921
0.00589411
0.00538749
0.00533678
0.00646411
0.0104437
0.0107643
0.0124367
0.0171247
0.0194581
0.0212824
0.0242094
0.0279252
0.0370135
0.0587492
0.0717644
0.0754722
0.0751716
0.069433
0.0598186
0.0561387
0.0537287
0.0525392
0.0541934
0.0809604
0.121282
0.1225
0.113915
0.121804
0.134364
0.128713
0.0887507
0.0534477
0.0400339
0.0381246
0.0376399
0.0370197
0.0367933
0.0376707
0.0420869
0.0450023
0.0466237
0.0495531
0.0513973
0.0493145
0.0416476
0.0351672
0.0274884
0.022224
0.0188732
0.0173924
0.0173312
0.0180424
0.0182717
0.0182536
0.0185597
0.0200987
0.0225388
0.0255913
0.0296863
0.0331155
0.0354117
0.0361253
0.0369244
0.0389822
0.0444593
0.0523369
0.0598565
0.0648293
0.0733235
0.080788
0.0869189
0.0871052
0.0851742
0.0826245
0.0754351
0.06856
0.0608985
0.0538197
0.0420536
0.0314629
0.0216761
0.0152454
0.0108831
0.00825938
0.00663088
0.00532125
0.00447283
0.00362552
0.00310532
0.00257128
0.00226553
0.00199046
0.00181987
0.00170378
0.00162625
0.00160764
0.00157533
0.00158512
0.00159384
0.00163617
0.00163746
0.0016753
0.00166155
0.00166734
0.0015925
0.00155889
0.00142781
0.00136664
0.00118211
0.00105296
0.000771408
0.000608122
0.000451656
0.000395035
0.000345817
0.000317034
0.000319049
0.000292758
0.000285843
0.000225186
0.000165391
0.000122105
0.000123866
0.000147081
0.000131443
0.000141294
0.000134061
0.000185059
0.000340335
0.000350574
0.000534214
0.00134938
0.00359184
0.0392102
0.333189
1.74001
1.39774
1.18482
0.987368
0.894532
0.784172
0.743249
0.732641
0.724125
0.707757
0.643773
0.562019
0.43278
0.307341
0.274809
0.239726
0.218427
0.195095
0.190506
0.174138
0.174024
0.179629
0.192654
0.20832
0.227977
0.233745
0.225448
0.198951
0.12298
0.0519452
0.0208136
0.0080452
0.00388787
0.00216884
0.00158415
0.00158905
0.00168892
0.00200163
0.00382737
0.0126267
0.0484875
0.12951
0.164142
0.165933
0.15841
0.135294
0.112362
0.0960162
0.0915819
0.0927718
0.0979033
0.107301
0.109929
0.108401
0.103403
0.094096
0.0768049
0.0618034
0.045103
0.0291253
0.0193798
0.0142362
0.0115078
0.00952348
0.00791787
0.00691514
0.00601751
0.00570285
0.0067382
0.0144243
0.0175722
0.0189021
0.022019
0.0241875
0.0258115
0.0286922
0.0315913
0.0369197
0.0538352
0.067801
0.0731371
0.0737852
0.0706446
0.0601306
0.0558116
0.0530971
0.0518538
0.0530994
0.0789516
0.122226
0.12396
0.115559
0.123875
0.136058
0.129565
0.088002
0.0529905
0.0405275
0.0390351
0.0387696
0.0371372
0.0365449
0.0368098
0.0410147
0.0456602
0.0476357
0.0497562
0.0519461
0.0497183
0.0414338
0.0349844
0.0269826
0.0213899
0.0185049
0.0171737
0.0171062
0.0177241
0.0178779
0.0177581
0.0179129
0.0189517
0.0217327
0.0239017
0.0276579
0.0323499
0.0354725
0.0362455
0.0369282
0.0385331
0.0433648
0.0498747
0.0594769
0.0657116
0.0711905
0.0815504
0.083614
0.0841435
0.0825354
0.0799755
0.0725502
0.0644053
0.0581952
0.0495302
0.0395199
0.0283035
0.0201966
0.0138521
0.0101545
0.00771266
0.00618166
0.00511042
0.00424039
0.00366735
0.0030638
0.0027747
0.00241662
0.00229612
0.00206558
0.00200607
0.00187843
0.00184847
0.00176347
0.00173115
0.00167114
0.00164739
0.00163443
0.00159426
0.00157211
0.00150333
0.0014802
0.00140723
0.00139943
0.00134572
0.00133766
0.00126557
0.0012321
0.00106118
0.00090941
0.000611287
0.000461411
0.000356861
0.00031892
0.000319132
0.000303238
0.000353725
0.000291235
0.000225245
0.000148757
0.000154773
0.000189773
0.00016971
0.00021067
0.000206022
0.000273093
0.000453253
0.000555787
0.00152565
0.00303216
0.0335285
0.214167
1.52858
1.33158
1.15388
1.00132
0.882876
0.798323
0.736487
0.688617
0.667544
0.65434
0.640381
0.623351
0.573161
0.501683
0.448792
0.421511
0.399524
0.359091
0.335046
0.303937
0.301569
0.290991
0.278152
0.264224
0.255372
0.241647
0.208654
0.133472
0.055272
0.0239966
0.0098969
0.00420972
0.00247459
0.0016325
0.00144548
0.00151326
0.00167338
0.00231269
0.00579925
0.022942
0.0935936
0.158894
0.174423
0.16903
0.148772
0.113607
0.0928398
0.082722
0.078465
0.078721
0.0836497
0.0982946
0.105207
0.105957
0.104641
0.0984852
0.0833143
0.0689961
0.050657
0.0331399
0.0223583
0.0164239
0.0131323
0.0108277
0.00890827
0.0075238
0.00659828
0.0059669
0.00753395
0.0168771
0.0213929
0.0223359
0.023831
0.0254985
0.0270791
0.029943
0.0327079
0.0368072
0.0499908
0.0642039
0.0706899
0.0721343
0.0707323
0.061037
0.0557501
0.0528782
0.0514003
0.0524524
0.0776591
0.123195
0.125163
0.117079
0.125832
0.137189
0.130046
0.0868747
0.0527411
0.0415448
0.0404561
0.0398426
0.0368737
0.0351979
0.0355517
0.0408274
0.0471275
0.0489509
0.0498101
0.0528107
0.0506396
0.0414171
0.0349903
0.0269198
0.0208797
0.0183042
0.0170537
0.0169332
0.0173769
0.0175628
0.0174804
0.0175819
0.0183275
0.020868
0.0226119
0.0256339
0.0311638
0.035401
0.0368144
0.0373255
0.0386195
0.0421189
0.049501
0.0570878
0.0649956
0.0712737
0.0784977
0.0821908
0.0812
0.0803833
0.0769687
0.0696032
0.0607306
0.0552673
0.0464179
0.0360985
0.0261026
0.0180857
0.0128288
0.00920587
0.00708152
0.00551117
0.00444062
0.00369049
0.00314418
0.00282875
0.00252334
0.00239382
0.00220989
0.00218007
0.00211235
0.00213429
0.00210021
0.00212986
0.00210425
0.00211104
0.00206391
0.0020337
0.00193175
0.00183055
0.00165311
0.00151549
0.00139396
0.00126387
0.00120335
0.00113105
0.00115257
0.0011567
0.00122626
0.00120257
0.00122397
0.00106323
0.000922703
0.000568266
0.000435811
0.000345646
0.000347496
0.000422179
0.00036986
0.000327726
0.000206661
0.000200692
0.000200522
0.000205551
0.000310568
0.000336561
0.000535112
0.000597609
0.00224915
0.00318048
0.0274537
0.139735
1.24753
1.12168
0.981974
0.876886
0.778411
0.705335
0.665178
0.627971
0.606853
0.584082
0.5703
0.57066
0.553597
0.534079
0.483022
0.451845
0.431705
0.425952
0.411163
0.388923
0.362825
0.324086
0.293391
0.266115
0.241993
0.200653
0.117859
0.0533352
0.0235329
0.0110783
0.00471774
0.0024058
0.00176638
0.00136512
0.00135309
0.00147327
0.00172614
0.00294378
0.00961374
0.0430508
0.134565
0.180936
0.181702
0.166775
0.126213
0.0960868
0.0829107
0.0773693
0.0744992
0.0739374
0.0749837
0.0873209
0.0990676
0.103357
0.103563
0.100776
0.089
0.0754553
0.0563979
0.0375867
0.0258793
0.0196142
0.0158786
0.012717
0.0100839
0.008268
0.0069323
0.00645028
0.0119189
0.021838
0.024318
0.0243337
0.0247532
0.0256601
0.027144
0.0299189
0.0326992
0.0361366
0.0464289
0.0606179
0.0682418
0.0705018
0.0700061
0.0621841
0.0559748
0.0529158
0.0513923
0.0522488
0.0772362
0.124305
0.126043
0.11825
0.127252
0.138255
0.130276
0.085561
0.0526254
0.0429595
0.0420458
0.0407302
0.0355773
0.0338581
0.0348355
0.0416007
0.0494047
0.0504203
0.049938
0.0535516
0.051872
0.0415946
0.0356112
0.0271963
0.0207525
0.0182489
0.0170438
0.0167422
0.0169733
0.0174154
0.0174496
0.0176211
0.0183923
0.0203313
0.0217017
0.024161
0.0297036
0.0350823
0.0377251
0.038558
0.0392573
0.0418319
0.0495435
0.0563098
0.061508
0.0706726
0.0767795
0.0796372
0.0795861
0.0785083
0.0749504
0.064718
0.0586149
0.0512974
0.0444228
0.0332611
0.024352
0.0168475
0.0120645
0.00883326
0.00677739
0.00528671
0.00415423
0.00335238
0.00280047
0.002403
0.00214635
0.00196855
0.00187527
0.00182046
0.0018367
0.0018428
0.00191225
0.00194835
0.00207454
0.00212647
0.00230021
0.00233255
0.00243787
0.00241893
0.00239503
0.00220699
0.00207383
0.00173256
0.00154348
0.0012488
0.00117322
0.00101355
0.000999038
0.00102371
0.00105668
0.00118794
0.00115114
0.00116788
0.000992581
0.000687704
0.000434406
0.000431976
0.000465045
0.000422941
0.000519686
0.000328068
0.000269348
0.000254276
0.000308676
0.000344325
0.000795998
0.000771627
0.00533599
0.0039884
0.0193605
0.087885
0.975277
0.871781
0.7623
0.66954
0.603701
0.543205
0.500377
0.482774
0.482977
0.485213
0.487551
0.485983
0.469942
0.466297
0.442579
0.405594
0.372659
0.359999
0.334996
0.321053
0.291703
0.262605
0.230815
0.18483
0.143942
0.0779063
0.0411484
0.0201445
0.0100868
0.00514484
0.00238996
0.00162169
0.00141933
0.00123357
0.00127001
0.0014506
0.00186782
0.00413467
0.0167967
0.0820964
0.173528
0.192673
0.184761
0.145981
0.103782
0.0862712
0.078448
0.0750273
0.0732377
0.0727761
0.0729615
0.0788451
0.0929787
0.099881
0.101905
0.100955
0.0939863
0.0806517
0.0617055
0.0419055
0.0296715
0.0233024
0.0188644
0.0146589
0.0114419
0.0093178
0.00812039
0.00958341
0.0207862
0.0298194
0.0304399
0.0280726
0.0263013
0.026401
0.0273094
0.0296375
0.0320703
0.0350443
0.0431883
0.056978
0.0656834
0.0689445
0.0692104
0.0631359
0.0564421
0.0530295
0.0515056
0.0522273
0.077649
0.125032
0.126865
0.119485
0.128817
0.138728
0.129937
0.084148
0.0530613
0.0446347
0.043835
0.0411636
0.035239
0.033781
0.0348661
0.0433206
0.05234
0.0512467
0.0495801
0.0538979
0.0529439
0.0422644
0.0366621
0.028189
0.0207803
0.0183452
0.0171653
0.0166028
0.0166878
0.017238
0.0175896
0.017845
0.0187753
0.0203578
0.0214835
0.0235084
0.0289667
0.0346616
0.038213
0.0400212
0.0409131
0.0424833
0.0495302
0.0554956
0.0599323
0.068599
0.0761186
0.0777951
0.0781459
0.0768095
0.0698464
0.0610214
0.0538067
0.0491298
0.0401549
0.0312576
0.0217758
0.0158688
0.0111632
0.00852676
0.00651441
0.00517391
0.00410006
0.0033405
0.00280819
0.00240534
0.00214106
0.001928
0.00178744
0.00168306
0.00161311
0.0015828
0.00157849
0.00158792
0.00164562
0.00170758
0.00183551
0.00196286
0.00208943
0.00219622
0.00226404
0.00226777
0.00223445
0.00220396
0.00212675
0.00200569
0.00173482
0.00143228
0.00114829
0.00106113
0.000957169
0.000969001
0.00105089
0.00109107
0.00135199
0.00127104
0.00110441
0.00068094
0.000569255
0.000482227
0.000541931
0.000601687
0.000446945
0.000320084
0.000563322
0.000467549
0.00230758
0.00131182
0.00782559
0.00524577
0.0156852
0.0584466
0.697128
0.615157
0.537168
0.458463
0.414698
0.373396
0.324378
0.303985
0.305937
0.311325
0.342368
0.35848
0.364397
0.365834
0.356913
0.320008
0.289364
0.253727
0.224799
0.206023
0.164171
0.129395
0.0905515
0.0626856
0.0416611
0.0253476
0.0151783
0.00794505
0.00456211
0.00250011
0.00140881
0.00127646
0.00119243
0.00110945
0.00119778
0.00142981
0.00213303
0.0064857
0.0300648
0.12916
0.196079
0.201331
0.179174
0.120512
0.0927494
0.0815447
0.0766859
0.0743323
0.0730874
0.0727435
0.0728611
0.0756604
0.088038
0.0960645
0.0999487
0.100372
0.097165
0.0853671
0.065892
0.0461742
0.0344403
0.0279197
0.0230907
0.0176671
0.0138299
0.0121141
0.0117035
0.0157893
0.0276777
0.0355419
0.0361258
0.0331431
0.0303306
0.0293589
0.0289385
0.0299036
0.0319597
0.0343804
0.0403312
0.0536167
0.0631195
0.067438
0.0683918
0.0641238
0.0570706
0.0534106
0.0517038
0.0523981
0.0784389
0.126399
0.127366
0.120516
0.129764
0.138827
0.129304
0.0831231
0.0537808
0.0466383
0.0455882
0.0413197
0.0354163
0.0342409
0.0357313
0.045773
0.0540274
0.0512889
0.0484079
0.0543506
0.05428
0.0436795
0.0370587
0.0294018
0.0210915
0.0186498
0.0175302
0.0166133
0.0165832
0.017193
0.0178285
0.0186565
0.0196921
0.0205843
0.0215536
0.0235195
0.0289854
0.0346411
0.03871
0.0411211
0.042024
0.0437229
0.0501693
0.0546853
0.0597988
0.0684332
0.0750161
0.0768329
0.0765157
0.0724415
0.0633088
0.0556289
0.0497305
0.0453782
0.0372909
0.0278326
0.0200108
0.0142628
0.0105267
0.00785135
0.00613667
0.00485036
0.00398075
0.00328709
0.00284115
0.00248148
0.00227455
0.00210605
0.00198496
0.00189144
0.00184463
0.0017953
0.00176441
0.00171224
0.00170826
0.00171398
0.00172704
0.00172785
0.00171678
0.00167027
0.00167566
0.00170431
0.00181213
0.00186157
0.00200924
0.00200641
0.00212772
0.00207615
0.00202664
0.00181116
0.00151424
0.00115586
0.00107358
0.00103791
0.00111282
0.00145483
0.00146604
0.00169053
0.00117433
0.000727491
0.00067057
0.000683162
0.000884618
0.000627415
0.00125123
0.000788085
0.0034117
0.00226932
0.0203946
0.0090767
0.0127913
0.0391468
0.405193
0.356303
0.316918
0.263178
0.237305
0.213192
0.172847
0.150939
0.14846
0.150424
0.16913
0.190928
0.22379
0.237787
0.237235
0.229371
0.209312
0.167623
0.137611
0.104134
0.0686884
0.0463298
0.0296074
0.0208492
0.0135238
0.00901698
0.00576619
0.00326026
0.0022472
0.00138076
0.0010291
0.00106177
0.00100662
0.000990391
0.00113209
0.00143569
0.00273733
0.0108881
0.0548367
0.177492
0.214276
0.205268
0.152483
0.103875
0.0843931
0.0790787
0.0761713
0.07425
0.0735677
0.0734014
0.0734834
0.0752566
0.0850247
0.0931532
0.0984189
0.10005
0.0984426
0.0892689
0.0697784
0.0517799
0.0410628
0.0333785
0.0269712
0.0213737
0.0179671
0.0172277
0.020407
0.0271847
0.0346342
0.0396319
0.0397109
0.035753
0.0332707
0.0325404
0.0318927
0.0316019
0.032358
0.0341994
0.0380904
0.0503286
0.0606216
0.0658547
0.0673854
0.0647581
0.0578967
0.0540375
0.0521811
0.0527822
0.0802796
0.127423
0.128219
0.121368
0.130846
0.138805
0.128385
0.0823895
0.0554367
0.0486975
0.0471601
0.0416119
0.0363286
0.0355001
0.0371118
0.0478511
0.0541153
0.049938
0.0478611
0.055624
0.0564595
0.0458867
0.036964
0.0305663
0.021741
0.0188684
0.0180392
0.0169022
0.0165599
0.0172959
0.0187699
0.0201177
0.0208645
0.021172
0.0218507
0.0236924
0.0291631
0.0348764
0.0397383
0.0418499
0.0428088
0.0472976
0.0518053
0.0548335
0.0605881
0.0695455
0.07461
0.0757188
0.0735785
0.0666587
0.0581068
0.0510497
0.0466787
0.0420046
0.0340848
0.0253019
0.0180158
0.013309
0.00953023
0.00726622
0.00547863
0.00446405
0.00362846
0.00308765
0.00270621
0.00240298
0.00225868
0.00210111
0.00204568
0.00200772
0.00200164
0.0020208
0.0020312
0.00207256
0.00205837
0.00204894
0.0020128
0.00192924
0.00187845
0.00176795
0.00171405
0.00163734
0.00160029
0.00150697
0.00151463
0.00156814
0.0016269
0.00183398
0.00192124
0.00222869
0.0023054
0.00235112
0.00211133
0.00159172
0.00131763
0.00133835
0.00140241
0.00162455
0.00244976
0.00183286
0.00196736
0.00129394
0.00191336
0.00124451
0.00252303
0.00159214
0.0144583
0.00628406
0.0272559
0.0199043
0.0157547
0.0279501
0.166852
0.144591
0.130754
0.105368
0.0948019
0.0825526
0.0631964
0.0538423
0.0501967
0.0512534
0.0565045
0.0675147
0.0953147
0.112798
0.116776
0.11468
0.108529
0.0837468
0.0585233
0.0375383
0.022664
0.0136995
0.0086593
0.00635147
0.00408615
0.00308369
0.00223141
0.00155692
0.00132044
0.000931122
0.000866574
0.000911179
0.000865473
0.000902203
0.00111457
0.00162933
0.00408338
0.0188728
0.103926
0.206625
0.224992
0.200183
0.128554
0.090554
0.0799891
0.0779753
0.0760768
0.0748667
0.0747844
0.0746479
0.074626
0.0762354
0.0845501
0.0912225
0.0975246
0.0998456
0.0990222
0.0929032
0.0735734
0.0571789
0.0468748
0.0373645
0.0304438
0.0270015
0.0269189
0.0335823
0.0408046
0.0446147
0.0467708
0.0476193
0.0464709
0.040034
0.0365602
0.0354408
0.0345433
0.0340037
0.0339426
0.034646
0.0370089
0.0470234
0.058137
0.0644402
0.0666336
0.065116
0.0589818
0.0547588
0.0527123
0.0533892
0.0829496
0.12866
0.128646
0.121567
0.131442
0.13856
0.126966
0.0819325
0.0574306
0.0507219
0.0486552
0.0420895
0.0381388
0.0373894
0.0381609
0.0480332
0.0530942
0.0484103
0.0479198
0.0570373
0.0590804
0.0482004
0.0366694
0.0320857
0.0227826
0.019105
0.0183643
0.0174481
0.0169334
0.0174322
0.0198179
0.0214638
0.022364
0.022309
0.022521
0.0240814
0.02918
0.0363665
0.0413442
0.0429117
0.0466333
0.0512536
0.0537064
0.055991
0.0644303
0.0723697
0.0747155
0.0747271
0.0699214
0.0617758
0.0537725
0.0479285
0.0442546
0.0394582
0.0308248
0.0232721
0.0162133
0.0122797
0.00874473
0.00673765
0.00527617
0.00429461
0.00369631
0.00308372
0.00284361
0.00245322
0.00238354
0.00223545
0.00222811
0.00217998
0.00219767
0.00219949
0.00223956
0.00226781
0.00232443
0.00238604
0.00244729
0.00244019
0.00239682
0.002355
0.00233401
0.00226367
0.00215077
0.00192405
0.00189465
0.00180124
0.0017374
0.0016873
0.00169878
0.00175806
0.00216317
0.00221378
0.00335722
0.00290575
0.00395171
0.00266397
0.00263285
0.00210256
0.00276066
0.00249035
0.00350853
0.00236107
0.0043569
0.00296583
0.0249949
0.0100744
0.0371743
0.0159357
0.023559
0.0229354
0.0215954
0.0274199
0.0449551
0.040449
0.0377137
0.0304584
0.0270366
0.0222638
0.0167545
0.0138343
0.012577
0.0128903
0.0143977
0.0180143
0.0304741
0.041168
0.0443378
0.0430858
0.0388879
0.0267645
0.0174712
0.0104776
0.00599325
0.00357906
0.00244222
0.00175408
0.00127401
0.00122215
0.00112026
0.00098034
0.000930787
0.000733958
0.000727346
0.000775708
0.00076213
0.000868674
0.00120155
0.00208566
0.00664945
0.0336357
0.154862
0.234771
0.230018
0.173063
0.108644
0.0837342
0.0778781
0.0773304
0.0761136
0.075801
0.0765149
0.0765683
0.076448
0.0777973
0.0846265
0.0914893
0.0978845
0.100009
0.0997467
0.0957663
0.0767457
0.0625858
0.0524166
0.0417593
0.0360926
0.0368574
0.0480802
0.05672
0.0596728
0.0605417
0.0608459
0.060675
0.0581228
0.0480822
0.0419073
0.0391563
0.0373167
0.0362422
0.035887
0.0359651
0.0372036
0.0441253
0.0557858
0.0629513
0.0660072
0.0654588
0.0598071
0.0556683
0.0533422
0.0542541
0.0866023
0.130334
0.128865
0.121524
0.131572
0.138373
0.125658
0.0827157
0.0596953
0.0527214
0.0502563
0.0435377
0.0410118
0.0381087
0.0383956
0.0476843
0.0507134
0.0475125
0.0489419
0.057392
0.0608526
0.0509585
0.0367779
0.0342257
0.0248101
0.0194697
0.0186737
0.0182482
0.0174498
0.0179634
0.020162
0.0223072
0.0232854
0.0234575
0.0236895
0.0249868
0.0294893
0.0378968
0.0423622
0.047181
0.0520702
0.0539199
0.0554231
0.0615827
0.0690804
0.0735542
0.074712
0.0721989
0.0639864
0.0563309
0.0487002
0.0447021
0.0405572
0.0368247
0.0277603
0.0211565
0.0147019
0.0112382
0.00834244
0.00649075
0.00548791
0.00435419
0.00400824
0.00333538
0.00335395
0.00307167
0.00329059
0.00308398
0.00336733
0.00315032
0.00363366
0.00345743
0.00419501
0.00385945
0.00497101
0.00467914
0.00621146
0.00537878
0.00674388
0.00566967
0.00732812
0.00574344
0.0064403
0.00484492
0.00571399
0.00440199
0.00456952
0.00343728
0.00330468
0.002814
0.0029251
0.00269039
0.00352406
0.00338252
0.00540765
0.00464705
0.00601844
0.00456414
0.0065711
0.00447031
0.019815
0.010161
0.091011
0.0402978
0.0924843
0.0469978
0.0532384
0.0371964
0.0341132
0.025973
0.0244949
0.0279158
0.00852527
0.00758734
0.0070183
0.00571247
0.00475173
0.00390118
0.00313898
0.00260155
0.00247752
0.00251793
0.00274128
0.00362216
0.00718095
0.0102351
0.0107711
0.0102484
0.00841129
0.00564415
0.00403148
0.00246602
0.00151262
0.00106086
0.000722892
0.000622144
0.000674102
0.000816
0.000791158
0.000752319
0.000729537
0.00059855
0.00061184
0.000660431
0.00070956
0.000917488
0.00144627
0.00296169
0.0112487
0.0595982
0.209636
0.24972
0.229866
0.149304
0.0965258
0.0788167
0.0762363
0.076115
0.0756337
0.0761468
0.0785139
0.0789488
0.0786309
0.0795702
0.0860588
0.0929643
0.0988121
0.1006
0.101311
0.0977973
0.0805994
0.0688333
0.0571942
0.0467266
0.0439903
0.0520599
0.0662808
0.0710682
0.0717848