/*--------------------------------*- C++ -*----------------------------------*\
| =========                 |                                                 |
| \\      /  F ield         | OpenFOAM: The Open Source CFD Toolbox           |
|  \\    /   O peration     | Version:  2.4.0                                 |
|   \\  /    A nd           | Web:      www.OpenFOAM.org                      |
|    \\/     M anipulation  |                                                 |
\*---------------------------------------------------------------------------*/
FoamFile
{
    version     2.0;
    format      ascii;
    class       surfaceScalarField;
    location    "0.04";
    object      phi_0;
}
// * * * * * * * * * * * * * * * * * * * * * * * * * * * * * * * * * * * * * //

dimensions      [0 3 -1 0 0 0 0];

internalField   nonuniform List<scalar> 
34680
(
2.40632e-05
9.36835e-07
2.17007e-05
2.36249e-06
1.88289e-05
2.87176e-06
1.60309e-05
2.79805e-06
1.36375e-05
2.39338e-06
1.16569e-05
1.98057e-06
1.01301e-05
1.5268e-06
9.0835e-06
1.04662e-06
8.27935e-06
8.04145e-07
7.70455e-06
5.74803e-07
7.39269e-06
3.11856e-07
7.0973e-06
2.95396e-07
6.87838e-06
2.18911e-07
6.79302e-06
8.53609e-08
6.6349e-06
1.58128e-07
6.51554e-06
1.19351e-07
6.47984e-06
3.5708e-08
6.36755e-06
1.12282e-07
6.28698e-06
8.05692e-08
6.26187e-06
2.51111e-08
6.17588e-06
8.59919e-08
6.1125e-06
6.33799e-08
6.08127e-06
3.12322e-08
6.00877e-06
7.24978e-08
5.94953e-06
5.92435e-08
5.901e-06
4.85273e-08
5.8488e-06
5.21965e-08
5.79257e-06
5.62292e-08
5.75285e-06
3.97226e-08
5.71385e-06
3.89995e-08
5.67537e-06
3.84783e-08
5.61554e-06
5.98352e-08
5.57767e-06
3.78738e-08
5.51397e-06
6.36934e-08
5.44003e-06
7.39371e-08
5.34725e-06
9.27818e-08
5.25394e-06
9.33127e-08
5.08314e-06
1.70797e-07
4.7666e-06
3.16544e-07
1.63744e-07
4.60286e-06
2.52045e-05
7.32324e-07
2.55761e-05
1.99087e-06
2.55738e-05
2.87409e-06
2.52159e-05
3.15596e-06
2.46567e-05
2.95254e-06
2.38645e-05
2.7728e-06
2.30448e-05
2.34646e-06
2.23218e-05
1.76968e-06
2.15345e-05
1.59144e-06
2.08531e-05
1.25617e-06
2.03034e-05
8.61612e-07
1.97077e-05
8.91053e-07
1.92234e-05
7.03249e-07
1.88307e-05
4.78051e-07
1.83895e-05
5.99314e-07
1.80408e-05
4.68052e-07
1.7749e-05
3.27493e-07
1.74305e-05
4.30826e-07
1.71755e-05
3.35503e-07
1.69591e-05
2.41583e-07
1.67331e-05
3.11977e-07
1.65391e-05
2.57385e-07
1.63704e-05
1.99881e-07
1.6196e-05
2.46903e-07
1.60366e-05
2.18705e-07
1.58811e-05
2.03963e-07
1.57482e-05
1.85093e-07
1.56038e-05
2.00619e-07
1.5488e-05
1.55523e-07
1.53747e-05
1.52342e-07
1.52702e-05
1.42996e-07
1.51413e-05
1.88713e-07
1.50579e-05
1.21263e-07
1.49118e-05
2.0978e-07
1.48059e-05
1.79854e-07
1.46192e-05
2.79473e-07
1.44907e-05
2.21786e-07
1.42289e-05
4.32653e-07
1.42262e-05
3.19249e-07
4.42609e-07
1.39473e-05
2.51429e-05
5.89469e-07
2.56693e-05
1.46445e-06
2.61616e-05
2.3818e-06
2.65281e-05
2.78944e-06
2.68941e-05
2.58655e-06
2.70428e-05
2.62411e-06
2.7085e-05
2.30424e-06
2.71411e-05
1.7136e-06
2.70052e-05
1.72729e-06
2.68638e-05
1.39757e-06
2.67498e-05
9.75641e-07
2.64896e-05
1.15119e-06
2.63e-05
8.92921e-07
2.613e-05
6.48051e-07
2.58563e-05
8.72946e-07
2.5685e-05
6.39348e-07
2.54803e-05
5.32244e-07
2.52419e-05
6.6918e-07
2.50678e-05
5.09618e-07
2.48694e-05
4.40029e-07
2.46569e-05
5.24434e-07
2.45131e-05
4.01187e-07
2.43068e-05
4.06153e-07
2.41516e-05
4.02153e-07
2.3981e-05
3.89309e-07
2.38119e-05
3.73095e-07
2.36445e-05
3.52406e-07
2.35092e-05
3.35922e-07
2.33295e-05
3.35222e-07
2.32258e-05
2.5612e-07
2.30588e-05
3.09921e-07
2.29364e-05
3.11164e-07
2.27839e-05
2.7374e-07
2.26688e-05
3.24919e-07
2.24688e-05
3.79805e-07
2.24174e-05
3.30846e-07
2.22038e-05
4.35394e-07
2.21016e-05
5.34914e-07
2.1858e-05
5.62828e-07
2.28813e-07
2.20718e-05
2.50998e-05
4.89659e-07
2.55214e-05
1.04287e-06
2.60251e-05
1.87805e-06
2.64119e-05
2.40268e-06
2.68598e-05
2.13862e-06
2.72459e-05
2.23809e-06
2.75305e-05
2.01956e-06
2.77991e-05
1.44504e-06
2.80213e-05
1.5051e-06
2.81576e-05
1.26123e-06
2.82924e-05
8.40899e-07
2.83421e-05
1.10148e-06
2.84008e-05
8.34259e-07
2.84403e-05
6.08467e-07
2.84555e-05
8.57787e-07
2.84931e-05
6.01789e-07
2.85044e-05
5.20936e-07
2.8488e-05
6.8554e-07
2.85024e-05
4.95178e-07
2.84678e-05
4.74642e-07
2.84296e-05
5.62663e-07
2.84241e-05
4.06718e-07
2.83813e-05
4.48957e-07
2.83491e-05
4.34295e-07
2.83368e-05
4.01674e-07
2.82808e-05
4.29071e-07
2.8244e-05
3.89169e-07
2.81986e-05
3.81376e-07
2.81488e-05
3.84958e-07
2.81035e-05
3.01418e-07
2.80487e-05
3.64794e-07
2.79878e-05
3.71986e-07
2.79262e-05
3.35423e-07
2.78714e-05
3.79718e-07
2.77466e-05
5.04582e-07
2.77031e-05
3.74336e-07
2.77083e-05
4.30201e-07
2.79442e-05
2.99003e-07
2.82814e-05
2.25608e-07
-6.27344e-08
2.8573e-05
2.51064e-05
3.83284e-07
2.53195e-05
8.29709e-07
2.58593e-05
1.33827e-06
2.62677e-05
1.99431e-06
2.6655e-05
1.75133e-06
2.70015e-05
1.89157e-06
2.7397e-05
1.62407e-06
2.75653e-05
1.27672e-06
2.79063e-05
1.16413e-06
2.80883e-05
1.07915e-06
2.82671e-05
6.62174e-07
2.83719e-05
9.96659e-07
2.85709e-05
6.35258e-07
2.8574e-05
6.05333e-07
2.87879e-05
6.43891e-07
2.88174e-05
5.72278e-07
2.89752e-05
3.63175e-07
2.90018e-05
6.58874e-07
2.91678e-05
3.29198e-07
2.91305e-05
5.11918e-07
2.92868e-05
4.06425e-07
2.9236e-05
4.57502e-07
2.93824e-05
3.02527e-07
2.93532e-05
4.63481e-07
2.95277e-05
2.27188e-07
2.94762e-05
4.80597e-07
2.96437e-05
2.21712e-07
2.95687e-05
4.56324e-07
2.97347e-05
2.18965e-07
2.96515e-05
3.84624e-07
2.98206e-05
1.95648e-07
2.97285e-05
4.64146e-07
2.98967e-05
1.67174e-07
2.9795e-05
4.81497e-07
3.00302e-05
2.69319e-07
2.99027e-05
5.01901e-07
2.99774e-05
3.55437e-07
2.92594e-05
1.01698e-06
2.86016e-05
8.8349e-07
8.63114e-07
2.76757e-05
2.50909e-05
2.92401e-07
2.5271e-05
6.49609e-07
2.56593e-05
9.49978e-07
2.61254e-05
1.52823e-06
2.64689e-05
1.40783e-06
2.68349e-05
1.5255e-06
2.7182e-05
1.27703e-06
2.74258e-05
1.03286e-06
2.76612e-05
9.28745e-07
2.79057e-05
8.34702e-07
2.80123e-05
5.55546e-07
2.82066e-05
8.02335e-07
2.8348e-05
4.93883e-07
2.84383e-05
5.14981e-07
2.85916e-05
4.90676e-07
2.87099e-05
4.53892e-07
2.87774e-05
2.95677e-07
2.89267e-05
5.09652e-07
2.89942e-05
2.61632e-07
2.9081e-05
4.252e-07
2.91634e-05
3.23996e-07
2.92336e-05
3.87234e-07
2.92962e-05
2.39934e-07
2.93946e-05
3.65144e-07
2.94534e-05
1.68343e-07
2.95603e-05
3.73754e-07
2.96142e-05
1.67809e-07
2.96931e-05
3.77401e-07
2.9749e-05
1.63081e-07
2.98308e-05
3.02821e-07
2.98752e-05
1.51252e-07
2.9996e-05
3.43313e-07
3.00301e-05
1.33115e-07
3.01397e-05
3.71873e-07
3.01855e-05
2.23524e-07
3.02849e-05
4.0251e-07
3.03997e-05
2.40576e-07
3.08976e-05
5.19099e-07
3.14329e-05
3.4819e-07
4.31536e-07
3.18645e-05
2.50695e-05
2.22928e-07
2.5272e-05
4.47128e-07
2.55125e-05
7.09399e-07
2.59892e-05
1.0516e-06
2.63272e-05
1.0698e-06
2.67021e-05
1.15059e-06
2.70137e-05
9.65412e-07
2.7293e-05
7.53601e-07
2.74895e-05
7.32205e-07
2.77471e-05
5.77092e-07
2.78402e-05
4.62493e-07
2.80725e-05
5.69975e-07
2.81762e-05
3.90278e-07
2.8311e-05
3.80098e-07
2.84241e-05
3.77657e-07
2.85676e-05
3.10302e-07
2.85956e-05
2.67745e-07
2.87897e-05
3.15497e-07
2.88039e-05
2.47507e-07
2.8954e-05
2.75098e-07
2.89962e-05
2.81783e-07
2.91218e-05
2.61557e-07
2.91409e-05
2.20877e-07
2.92847e-05
2.2135e-07
2.92737e-05
1.79387e-07
2.94429e-05
2.04546e-07
2.94343e-05
1.76356e-07
2.95867e-05
2.25027e-07
2.95925e-05
1.57241e-07
2.97356e-05
1.59767e-07
2.97163e-05
1.70568e-07
2.98958e-05
1.63755e-07
2.9869e-05
1.59913e-07
3.00668e-05
1.74065e-07
3.00953e-05
1.95059e-07
3.03533e-05
1.44469e-07
3.04445e-05
1.49445e-07
3.07469e-05
2.16683e-07
3.08183e-05
2.76807e-07
4.28037e-08
3.1207e-05
2.5061e-05
1.61937e-07
2.52331e-05
2.75044e-07
2.54815e-05
4.61017e-07
2.58769e-05
6.56163e-07
2.62352e-05
7.11471e-07
2.65869e-05
7.98942e-07
2.69298e-05
6.22512e-07
2.71638e-05
5.19537e-07
2.74227e-05
4.73303e-07
2.76094e-05
3.90442e-07
2.77586e-05
3.13282e-07
2.79423e-05
3.86251e-07
2.80863e-05
2.4632e-07
2.81858e-05
2.80564e-07
2.83455e-05
2.17979e-07
2.84287e-05
2.27115e-07
2.85347e-05
1.61737e-07
2.86481e-05
2.02092e-07
2.87239e-05
1.7166e-07
2.88149e-05
1.84124e-07
2.89254e-05
1.71317e-07
2.89823e-05
2.04621e-07
2.90843e-05
1.18917e-07
2.91479e-05
1.5771e-07
2.9212e-05
1.15271e-07
2.92962e-05
1.20376e-07
2.93708e-05
1.01744e-07
2.94354e-05
1.60461e-07
2.95234e-05
6.91864e-08
2.95691e-05
1.14113e-07
2.96556e-05
8.40458e-08
2.97297e-05
8.96723e-08
2.98322e-05
5.74344e-08
2.99313e-05
7.49722e-08
3.00897e-05
3.65779e-08
3.02052e-05
2.90389e-08
3.03801e-05
-2.54431e-08
3.05849e-05
1.18229e-08
3.0895e-05
-3.33103e-08
-3.48907e-08
3.09727e-05
2.5025e-05
1.36899e-07
2.52629e-05
3.72272e-08
2.54245e-05
2.99382e-07
2.58268e-05
2.53837e-07
2.61289e-05
4.09356e-07
2.65226e-05
4.05251e-07
2.68232e-05
3.21949e-07
2.71079e-05
2.34809e-07
2.73186e-05
2.62574e-07
2.75674e-05
1.41635e-07
2.76715e-05
2.09183e-07
2.79044e-05
1.53386e-07
2.79807e-05
1.70023e-07
2.81489e-05
1.12409e-07
2.82369e-05
1.29917e-07
2.83885e-05
7.55563e-08
2.84367e-05
1.13536e-07
2.86096e-05
2.91392e-08
2.86296e-05
1.51748e-07
2.87816e-05
3.20935e-08
2.88242e-05
1.28724e-07
2.89437e-05
8.50831e-08
2.89836e-05
7.89955e-08
2.9103e-05
3.83463e-08
2.91156e-05
1.02706e-07
2.92561e-05
-2.01671e-08
2.92695e-05
8.83247e-08
2.94015e-05
2.85243e-08
2.94273e-05
4.33081e-08
2.95339e-05
7.57973e-09
2.95589e-05
5.90105e-08
2.96906e-05
-4.20614e-08
2.97309e-05
1.71969e-08
2.98862e-05
-8.03378e-08
2.99769e-05
-5.40961e-08
3.01619e-05
-1.56039e-07
3.03025e-05
-1.6603e-07
3.05494e-05
-2.35016e-07
3.07285e-05
-2.12419e-07
-1.07082e-07
3.08007e-05
2.50283e-05
1.0855e-07
2.52396e-05
-1.74046e-07
2.54357e-05
1.03328e-07
2.57984e-05
-1.0892e-07
2.60945e-05
1.1326e-07
2.64933e-05
6.5128e-09
2.67904e-05
2.48026e-08
2.70777e-05
-5.24325e-08
2.73071e-05
3.31429e-08
2.75207e-05
-7.19582e-08
2.76586e-05
7.13069e-08
2.78592e-05
-4.72668e-08
2.79546e-05
7.46336e-08
2.81059e-05
-3.88457e-08
2.82205e-05
1.52311e-08
2.83367e-05
-4.05683e-08
2.84431e-05
7.13656e-09
2.85531e-05
-8.08608e-08
2.863e-05
7.48522e-08
2.87276e-05
-6.55732e-08
2.88164e-05
3.99325e-08
2.8886e-05
1.5487e-08
2.89813e-05
-1.62433e-08
2.90494e-05
-2.98459e-08
2.91243e-05
2.78175e-08
2.91982e-05
-9.40517e-08
2.92735e-05
1.30874e-08
2.93384e-05
-3.64433e-08
2.94171e-05
-3.53261e-08
2.94636e-05
-3.89538e-08
2.95548e-05
-3.2198e-08
2.961e-05
-9.72605e-08
2.97192e-05
-9.20205e-08
2.98059e-05
-1.66988e-07
2.99651e-05
-2.13371e-07
3.0098e-05
-2.88938e-07
3.02796e-05
-3.4762e-07
3.04819e-05
-4.37243e-07
3.07717e-05
-5.02292e-07
-2.75684e-07
3.09403e-05
2.5032e-05
7.65212e-08
2.52446e-05
-3.8661e-07
2.54322e-05
-8.42528e-08
2.58082e-05
-4.84927e-07
2.60791e-05
-1.57649e-07
2.65199e-05
-4.3432e-07
2.67546e-05
-2.09867e-07
2.71139e-05
-4.11767e-07
2.7268e-05
-1.20949e-07
2.75711e-05
-3.7502e-07
2.76371e-05
5.25359e-09
2.79122e-05
-3.22314e-07
2.79207e-05
6.61275e-08
2.81689e-05
-2.87045e-07
2.81739e-05
1.02409e-08
2.83903e-05
-2.57036e-07
2.83931e-05
4.37421e-09
2.8599e-05
-2.8677e-07
2.85772e-05
9.6624e-08
2.87882e-05
-2.76494e-07
2.87562e-05
7.18744e-08
2.89597e-05
-1.87978e-07
2.89156e-05
2.78017e-08
2.9113e-05
-2.27216e-07
2.90543e-05
8.65421e-08
2.92562e-05
-2.95936e-07
2.92007e-05
6.8546e-08
2.94128e-05
-2.48509e-07
2.93476e-05
2.98362e-08
2.95469e-05
-2.38206e-07
2.94823e-05
3.23732e-08
2.9683e-05
-2.97918e-07
2.96141e-05
-2.31611e-08
2.98384e-05
-3.91336e-07
2.98045e-05
-1.79436e-07
3.01055e-05
-5.89932e-07
3.01914e-05
-4.33495e-07
3.058e-05
-8.25872e-07
3.07003e-05
-6.22612e-07
-6.89886e-07
3.11145e-05
2.50571e-05
1.93985e-08
2.52351e-05
-5.64601e-07
2.54764e-05
-3.25586e-07
2.58085e-05
-8.17e-07
2.61457e-05
-4.94838e-07
2.65393e-05
-8.27953e-07
2.68194e-05
-4.89955e-07
2.71404e-05
-7.32774e-07
2.73342e-05
-3.14699e-07
2.75862e-05
-6.27023e-07
2.76938e-05
-1.02354e-07
2.7927e-05
-5.55559e-07
2.7969e-05
2.41307e-08
2.81935e-05
-5.11525e-07
2.82152e-05
-1.14052e-08
2.84205e-05
-4.62321e-07
2.84414e-05
-1.6603e-08
2.86248e-05
-4.70155e-07
2.86182e-05
1.03236e-07
2.88159e-05
-4.74238e-07
2.87894e-05
9.84089e-08
2.89938e-05
-3.92372e-07
2.89542e-05
6.73696e-08
2.91504e-05
-4.2334e-07
2.90972e-05
1.39706e-07
2.92912e-05
-4.89977e-07
2.92398e-05
1.2002e-07
2.94486e-05
-4.57391e-07
2.93766e-05
1.01879e-07
2.95841e-05
-4.45685e-07
2.95056e-05
1.10809e-07
2.97208e-05
-5.13037e-07
2.96329e-05
6.47397e-08
2.98562e-05
-6.14671e-07
2.97597e-05
-8.29815e-08
2.99948e-05
-8.25003e-07
2.99505e-05
-3.89147e-07
3.0614e-05
-1.48945e-06
3.11951e-05
-1.20363e-06
-1.51107e-06
3.20162e-05
2.51143e-05
-9.49015e-08
2.51765e-05
-6.26842e-07
2.55699e-05
-7.18949e-07
2.58109e-05
-1.05796e-06
2.6288e-05
-9.71987e-07
2.65515e-05
-1.09145e-06
2.69677e-05
-9.06104e-07
2.71341e-05
-8.99215e-07
2.75062e-05
-6.86762e-07
2.75666e-05
-6.87505e-07
2.7891e-05
-4.26706e-07
2.78986e-05
-5.63132e-07
2.81792e-05
-2.56491e-07
2.81556e-05
-4.87959e-07
2.84221e-05
-2.77863e-07
2.83632e-05
-4.03441e-07
2.8635e-05
-2.88375e-07
2.85575e-05
-3.92715e-07
2.88143e-05
-1.5349e-07
2.87476e-05
-4.07582e-07
2.8995e-05
-1.48966e-07
2.89233e-05
-3.2072e-07
2.91644e-05
-1.73669e-07
2.90667e-05
-3.25698e-07
2.93083e-05
-1.01863e-07
2.92014e-05
-3.83103e-07
2.94544e-05
-1.32965e-07
2.93614e-05
-3.64341e-07
2.95996e-05
-1.3634e-07
2.94913e-05
-3.37402e-07
2.97348e-05
-1.32691e-07
2.96136e-05
-3.91887e-07
2.98633e-05
-1.84876e-07
2.97397e-05
-4.91141e-07
3.00074e-05
-3.50653e-07
2.98366e-05
-6.54196e-07
2.99994e-05
-5.51993e-07
2.9404e-05
-8.94035e-07
2.8912e-05
-7.11593e-07
-8.8692e-07
2.82878e-05
2.51042e-05
-1.99139e-07
2.52392e-05
-7.61813e-07
2.56113e-05
-1.09109e-06
2.59021e-05
-1.34867e-06
2.63653e-05
-1.43519e-06
2.66702e-05
-1.39643e-06
2.70489e-05
-1.28479e-06
2.7276e-05
-1.1263e-06
2.75767e-05
-9.87488e-07
2.76912e-05
-8.01948e-07
2.79582e-05
-6.93746e-07
2.80072e-05
-6.12094e-07
2.82542e-05
-5.03462e-07
2.82823e-05
-5.16144e-07
2.84905e-05
-4.86071e-07
2.84995e-05
-4.12353e-07
2.87081e-05
-4.97021e-07
2.86894e-05
-3.74056e-07
2.8895e-05
-3.59026e-07
2.88731e-05
-3.85694e-07
2.90715e-05
-3.47348e-07
2.90429e-05
-2.92169e-07
2.92419e-05
-3.72682e-07
2.91936e-05
-2.77365e-07
2.93944e-05
-3.02666e-07
2.93367e-05
-3.25368e-07
2.95427e-05
-3.39038e-07
2.94907e-05
-3.12346e-07
2.96801e-05
-3.25721e-07
2.96183e-05
-2.75556e-07
2.98207e-05
-3.35072e-07
2.97456e-05
-3.16799e-07
2.9949e-05
-3.88332e-07
2.98571e-05
-3.99251e-07
3.00283e-05
-5.21857e-07
2.98149e-05
-4.40747e-07
2.97978e-05
-5.34855e-07
2.94675e-05
-5.63801e-07
2.93647e-05
-6.08723e-07
-4.78488e-07
2.89562e-05
2.51193e-05
-3.18411e-07
2.53034e-05
-9.45896e-07
2.56822e-05
-1.46995e-06
2.60351e-05
-1.70152e-06
2.64799e-05
-1.88007e-06
2.68458e-05
-1.76225e-06
2.71712e-05
-1.61019e-06
2.74661e-05
-1.42119e-06
2.76885e-05
-1.20991e-06
2.78672e-05
-9.80701e-07
2.80782e-05
-9.04734e-07
2.81844e-05
-7.18276e-07
2.83642e-05
-6.83223e-07
2.84748e-05
-6.26751e-07
2.85931e-05
-6.04443e-07
2.86959e-05
-5.15103e-07
2.88052e-05
-6.06324e-07
2.88882e-05
-4.57013e-07
2.90005e-05
-4.71354e-07
2.90745e-05
-4.59753e-07
2.91678e-05
-4.40631e-07
2.92303e-05
-3.54602e-07
2.93222e-05
-4.64665e-07
2.93849e-05
-3.39992e-07
2.94816e-05
-3.99376e-07
2.95403e-05
-3.84067e-07
2.9625e-05
-4.23758e-07
2.96794e-05
-3.66802e-07
2.97487e-05
-3.94986e-07
2.98125e-05
-3.3932e-07
2.98946e-05
-4.17235e-07
2.99508e-05
-3.72968e-07
3.00094e-05
-4.46962e-07
3.00233e-05
-4.13125e-07
2.99961e-05
-4.946e-07
2.99385e-05
-3.83181e-07
2.98393e-05
-4.35672e-07
2.96569e-05
-3.8139e-07
2.94037e-05
-3.55549e-07
-2.39575e-07
2.91648e-05
2.51388e-05
-4.57223e-07
2.53683e-05
-1.17538e-06
2.57978e-05
-1.89948e-06
2.62161e-05
-2.11976e-06
2.66531e-05
-2.31712e-06
2.70475e-05
-2.15667e-06
2.73855e-05
-1.94819e-06
2.76564e-05
-1.69207e-06
2.7884e-05
-1.43752e-06
2.80609e-05
-1.15754e-06
2.82617e-05
-1.10554e-06
2.83689e-05
-8.25526e-07
2.85395e-05
-8.53843e-07
2.8642e-05
-7.29239e-07
2.87627e-05
-7.25131e-07
2.88464e-05
-5.98783e-07
2.89544e-05
-7.1432e-07
2.90057e-05
-5.08324e-07
2.91207e-05
-5.86361e-07
2.91545e-05
-4.93492e-07
2.92501e-05
-5.36258e-07
2.92732e-05
-3.77715e-07
2.93683e-05
-5.59816e-07
2.93912e-05
-3.62834e-07
2.94967e-05
-5.04868e-07
2.95014e-05
-3.88782e-07
2.95929e-05
-5.15213e-07
2.95779e-05
-3.51817e-07
2.96666e-05
-4.83736e-07
2.96539e-05
-3.26631e-07
2.97499e-05
-5.13163e-07
2.97138e-05
-3.36905e-07
2.97865e-05
-5.19677e-07
2.97068e-05
-3.33401e-07
2.9752e-05
-5.39807e-07
2.9599e-05
-2.3017e-07
2.95448e-05
-3.8153e-07
2.92657e-05
-1.02215e-07
2.91209e-05
-2.10784e-07
8.68515e-08
2.87945e-05
2.5123e-05
-5.80196e-07
2.54786e-05
-1.53104e-06
2.59608e-05
-2.38161e-06
2.64524e-05
-2.61143e-06
2.68777e-05
-2.74239e-06
2.72827e-05
-2.56167e-06
2.75719e-05
-2.23742e-06
2.7823e-05
-1.94312e-06
2.79917e-05
-1.60628e-06
2.81477e-05
-1.31353e-06
2.82516e-05
-1.20941e-06
2.83443e-05
-9.18203e-07
2.84062e-05
-9.15708e-07
2.84623e-05
-7.85395e-07
2.84734e-05
-7.3627e-07
2.85127e-05
-6.38e-07
2.84903e-05
-6.92003e-07
2.84992e-05
-5.17163e-07
2.8482e-05
-5.69156e-07
2.84638e-05
-4.75315e-07
2.84321e-05
-5.04536e-07
2.84239e-05
-3.69482e-07
2.83752e-05
-5.11165e-07
2.83571e-05
-3.44764e-07
2.83108e-05
-4.58497e-07
2.82656e-05
-3.43597e-07
2.8211e-05
-4.60623e-07
2.8155e-05
-2.95788e-07
2.81029e-05
-4.3168e-07
2.80406e-05
-2.64327e-07
2.79733e-05
-4.45901e-07
2.78867e-05
-2.50254e-07
2.7812e-05
-4.44973e-07
2.77091e-05
-2.3055e-07
2.76298e-05
-4.60472e-07
2.74974e-05
-9.78109e-08
2.73763e-05
-2.60368e-07
2.70536e-05
2.20442e-07
2.67642e-05
7.86188e-08
4.49389e-07
2.64017e-05
2.51398e-05
-7.1998e-07
2.56308e-05
-2.02208e-06
2.61411e-05
-2.89189e-06
2.65963e-05
-3.06661e-06
2.68866e-05
-3.03274e-06
2.70661e-05
-2.74114e-06
2.7128e-05
-2.29937e-06
2.7091e-05
-1.90607e-06
2.69915e-05
-1.50684e-06
2.68741e-05
-1.1961e-06
2.6679e-05
-1.01426e-06
2.65248e-05
-7.64085e-07
2.63096e-05
-7.00517e-07
2.61098e-05
-5.85522e-07
2.5887e-05
-5.13532e-07
2.56935e-05
-4.44464e-07
2.54454e-05
-4.4392e-07
2.52666e-05
-3.38304e-07
2.50448e-05
-3.47415e-07
2.48595e-05
-2.90022e-07
2.46536e-05
-2.98631e-07
2.45019e-05
-2.17718e-07
2.42822e-05
-2.91557e-07
2.41404e-05
-2.02918e-07
2.39341e-05
-2.52222e-07
2.37893e-05
-1.98813e-07
2.35833e-05
-2.54557e-07
2.34486e-05
-1.61062e-07
2.32549e-05
-2.38071e-07
2.31313e-05
-1.40687e-07
2.29251e-05
-2.39654e-07
2.28097e-05
-1.3494e-07
2.26016e-05
-2.36799e-07
2.24888e-05
-1.17791e-07
2.22503e-05
-2.21999e-07
2.22055e-05
-5.29628e-08
2.20887e-05
-1.4362e-07
2.22987e-05
1.04738e-08
2.25254e-05
-1.48112e-07
-6.81674e-08
2.3043e-05
2.52107e-05
-9.3065e-07
2.55643e-05
-2.37572e-06
2.55571e-05
-2.88464e-06
2.52512e-05
-2.7607e-06
2.46377e-05
-2.41934e-06
2.38716e-05
-1.97498e-06
2.30743e-05
-1.50204e-06
2.22685e-05
-1.10033e-06
2.15404e-05
-7.78749e-07
2.08778e-05
-5.3343e-07
2.02529e-05
-3.89437e-07
1.97372e-05
-2.48371e-07
1.92331e-05
-1.96338e-07
1.87973e-05
-1.49789e-07
1.84025e-05
-1.18703e-07
1.80516e-05
-9.35988e-08
1.7712e-05
-1.04303e-07
1.74411e-05
-6.73784e-08
1.71686e-05
-7.48991e-08
1.69413e-05
-6.27131e-08
1.67145e-05
-7.18436e-08
1.65396e-05
-4.28745e-08
1.63269e-05
-7.88308e-08
1.61736e-05
-4.96471e-08
1.59909e-05
-6.95207e-08
1.58462e-05
-5.41019e-08
1.56661e-05
-7.44028e-08
1.55487e-05
-4.36494e-08
1.53819e-05
-7.13209e-08
1.52771e-05
-3.59137e-08
1.51101e-05
-7.25898e-08
1.50168e-05
-4.16807e-08
1.48493e-05
-6.93064e-08
1.47661e-05
-3.45473e-08
1.46052e-05
-6.11359e-08
1.45667e-05
-1.44744e-08
1.44303e-05
-7.17877e-09
1.4457e-05
-1.62084e-08
1.44076e-05
-9.87826e-08
-2.6127e-07
1.46007e-05
2.40694e-05
2.16936e-05
1.8809e-05
1.60483e-05
1.36289e-05
1.1654e-05
1.01519e-05
9.0516e-06
8.27285e-06
7.73942e-06
7.34999e-06
7.10162e-06
6.90528e-06
6.75549e-06
6.63678e-06
6.54319e-06
6.43888e-06
6.37151e-06
6.29661e-06
6.23389e-06
6.16205e-06
6.11917e-06
6.04034e-06
5.9907e-06
5.92118e-06
5.86707e-06
5.79267e-06
5.74902e-06
5.6777e-06
5.64179e-06
5.5692e-06
5.52752e-06
5.45821e-06
5.42366e-06
5.36253e-06
5.34805e-06
5.34087e-06
5.32467e-06
5.22588e-06
4.96461e-06
4.99329e-06
-9.2329e-08
-2.9811e-07
5.37271e-06
-1.4457e-07
-2.34851e-07
5.6845e-06
-2.15516e-07
-9.62688e-08
5.95475e-06
-2.1018e-07
-6.00681e-08
6.1774e-06
-1.5386e-07
-6.87898e-08
6.32817e-06
-8.32557e-08
-6.75208e-08
6.40094e-06
-1.83989e-08
-5.43676e-08
6.42161e-06
1.36407e-08
-3.43101e-08
6.42547e-06
2.80759e-08
-3.19394e-08
6.41302e-06
3.85302e-08
-2.60787e-08
6.38195e-06
5.00562e-08
-1.89794e-08
6.34866e-06
7.09181e-08
-3.76352e-08
6.31127e-06
1.03839e-07
-6.64468e-08
6.27697e-06
1.49085e-07
-1.14786e-07
6.27295e-06
2.02255e-07
-1.98233e-07
6.31807e-06
2.62607e-07
-3.07728e-07
6.429e-06
3.261e-07
-4.37033e-07
6.63104e-06
3.94125e-07
-5.96161e-07
6.94933e-06
4.65726e-07
-7.84019e-07
7.37256e-06
5.34825e-07
-9.58046e-07
7.89482e-06
6.00682e-07
-1.12295e-06
8.51573e-06
6.70434e-07
-1.29134e-06
9.22943e-06
7.36415e-07
-1.45011e-06
1.00201e-05
7.99021e-07
-1.58965e-06
1.08688e-05
8.66781e-07
-1.71555e-06
1.17541e-05
9.25487e-07
-1.81076e-06
1.26605e-05
9.89714e-07
-1.89612e-06
1.35759e-05
1.05826e-06
-1.97366e-06
1.44911e-05
1.10203e-06
-2.01719e-06
1.5399e-05
1.13602e-06
-2.04391e-06
1.63008e-05
1.17495e-06
-2.07681e-06
1.71935e-05
1.19876e-06
-2.09139e-06
1.80665e-05
1.20222e-06
-2.07531e-06
1.89207e-05
1.19677e-06
-2.05096e-06
1.97587e-05
1.17016e-06
-2.00809e-06
2.05746e-05
1.11444e-06
-1.9304e-06
2.1363e-05
1.0538e-06
-1.84221e-06
2.21273e-05
9.59702e-07
-1.72402e-06
2.28731e-05
8.22248e-07
-1.56801e-06
2.35986e-05
6.71685e-07
-1.39722e-06
2.4286e-05
5.04883e-07
-1.19223e-06
2.49264e-05
3.08901e-07
-9.4928e-07
2.55262e-05
6.98412e-08
-6.69712e-07
2.607e-05
-1.77731e-07
-3.66082e-07
2.65751e-05
-4.43825e-07
-6.12617e-08
2.69685e-05
-7.62916e-07
3.69569e-07
2.73109e-05
-1.11519e-06
7.72755e-07
2.75872e-05
-1.46554e-06
1.18928e-06
2.77771e-05
-1.81805e-06
1.62811e-06
2.78777e-05
-2.16685e-06
2.06627e-06
2.78874e-05
-2.51422e-06
2.50448e-06
2.78138e-05
-2.8546e-06
2.92818e-06
2.76725e-05
-3.17102e-06
3.31237e-06
2.74773e-05
-3.47532e-06
3.67054e-06
2.72404e-05
-3.75662e-06
3.99354e-06
2.69841e-05
-4.00994e-06
4.2662e-06
2.67388e-05
-4.25645e-06
4.50174e-06
2.65117e-05
-4.47175e-06
4.69889e-06
2.63266e-05
-4.65609e-06
4.84114e-06
2.62309e-05
-4.84149e-06
4.93719e-06
2.62253e-05
-5.01415e-06
5.0198e-06
2.63092e-05
-5.16614e-06
5.08223e-06
2.65083e-05
-5.31624e-06
5.11712e-06
2.68103e-05
-5.46172e-06
5.15969e-06
2.71812e-05
-5.58167e-06
5.21086e-06
2.76222e-05
-5.69517e-06
5.2541e-06
2.81332e-05
-5.82099e-06
5.31004e-06
2.86547e-05
-5.92231e-06
5.40083e-06
2.91616e-05
-6.01239e-06
5.50542e-06
2.96567e-05
-6.09633e-06
5.60129e-06
3.0076e-05
-6.14617e-06
5.72685e-06
3.04245e-05
-6.20495e-06
5.8564e-06
3.07236e-05
-6.24874e-06
5.94971e-06
3.08978e-05
-6.25693e-06
6.08271e-06
3.09567e-05
-6.27434e-06
6.21545e-06
3.09391e-05
-6.27611e-06
6.29368e-06
3.07799e-05
-6.25167e-06
6.41089e-06
3.0451e-05
-6.20065e-06
6.52956e-06
3.00039e-05
-6.12757e-06
6.57462e-06
2.94219e-05
-6.04694e-06
6.62898e-06
2.86179e-05
-5.89143e-06
6.69544e-06
2.76825e-05
-5.72478e-06
6.66018e-06
2.67795e-05
-5.62372e-06
6.52674e-06
2.57705e-05
-5.39278e-06
6.40171e-06
2.45563e-05
-5.06912e-06
6.28338e-06
2.34216e-05
-4.87762e-06
6.01231e-06
2.24912e-05
-4.65926e-06
5.58961e-06
2.15935e-05
-4.33311e-06
5.23085e-06
2.07474e-05
-4.06582e-06
4.9119e-06
2.00654e-05
-3.80983e-06
4.49187e-06
1.94925e-05
-3.55864e-06
4.13147e-06
1.8997e-05
-3.44284e-06
3.93841e-06
1.8615e-05
-3.33897e-06
3.72095e-06
1.83323e-05
-3.12828e-06
3.411e-06
1.81378e-05
-2.9977e-06
3.19218e-06
1.80081e-05
-3.00259e-06
3.13228e-06
1.78338e-05
-2.92365e-06
3.09791e-06
1.75707e-05
-2.73103e-06
2.99414e-06
1.73309e-05
-2.58897e-06
2.82876e-06
1.71803e-05
-2.49785e-06
2.64847e-06
1.70496e-05
-2.40524e-06
2.53599e-06
1.68933e-05
-2.37772e-06
2.53404e-06
1.66998e-05
-2.35732e-06
2.55076e-06
1.63738e-05
-2.14521e-06
2.47127e-06
1.587e-05
-1.79447e-06
2.29821e-06
1.53689e-05
-1.59763e-06
2.09877e-06
1.50867e-05
-1.64149e-06
1.9237e-06
1.49898e-05
-1.71022e-06
1.80705e-06
1.48765e-05
-1.64053e-06
1.75389e-06
1.46743e-05
-1.50688e-06
1.70907e-06
1.44842e-05
-1.40526e-06
1.59537e-06
1.43687e-05
-1.28389e-06
1.39943e-06
1.42519e-05
-1.0596e-06
1.17631e-06
1.40498e-05
-7.76756e-07
9.78899e-07
1.3807e-05
-5.77752e-07
8.2053e-07
1.36518e-05
-5.48886e-07
7.04124e-07
1.36465e-05
-6.32677e-07
6.38002e-07
1.37203e-05
-6.9939e-07
6.25533e-07
1.37583e-05
-6.95137e-07
6.57188e-07
1.37435e-05
-6.8316e-07
6.97928e-07
1.37935e-05
-7.39055e-07
6.89008e-07
1.40415e-05
-8.31804e-07
5.83804e-07
1.448e-05
-8.35821e-07
3.97352e-07
1.49354e-05
-6.70595e-07
2.15165e-07
1.51982e-05
-4.12088e-07
1.49362e-07
1.51862e-05
-2.36203e-07
2.48165e-07
1.49956e-05
-2.4626e-07
4.36839e-07
1.48015e-05
-3.80817e-07
5.74922e-07
1.4703e-05
-4.80327e-07
5.78885e-07
1.46515e-05
-4.40796e-07
4.92251e-07
1.45126e-05
-2.98609e-07
4.37545e-07
1.42028e-05
-1.80793e-07
4.90528e-07
1.37665e-05
-1.78909e-07
6.15197e-07
1.33436e-05
-2.74071e-07
6.96995e-07
1.30759e-05
-3.69677e-07
6.37415e-07
1.30223e-05
-3.80173e-07
4.33726e-07
1.31597e-05
-2.8915e-07
1.5178e-07
1.34101e-05
-1.48899e-07
-1.01546e-07
1.369e-05
-3.18301e-08
-2.47995e-07
1.39293e-05
1.44321e-08
-2.53758e-07
1.40977e-05
-3.2723e-08
-1.35637e-07
1.41667e-05
-1.27867e-07
5.88344e-08
1.41174e-05
-2.23366e-07
2.72657e-07
1.39543e-05
-2.98081e-07
4.61208e-07
1.37152e-05
-3.50454e-07
5.89546e-07
1.34601e-05
-3.85463e-07
6.40509e-07
1.32518e-05
-4.04688e-07
6.13002e-07
1.31361e-05
-3.9996e-07
5.15648e-07
1.31246e-05
-3.58432e-07
3.69989e-07
1.3201e-05
-2.76188e-07
1.99781e-07
1.33318e-05
-1.61182e-07
3.03548e-08
1.3479e-05
-3.27103e-08
-1.14452e-07
1.36141e-05
8.5344e-08
-2.20494e-07
1.37113e-05
1.84471e-07
-2.81622e-07
1.376e-05
2.50651e-07
-2.99418e-07
1.3762e-05
2.81971e-07
-2.83893e-07
1.37252e-05
2.82906e-07
-2.46185e-07
1.36608e-05
2.61986e-07
-1.97538e-07
1.35808e-05
2.2799e-07
-1.47948e-07
1.34957e-05
1.88498e-07
-1.03416e-07
1.34128e-05
1.48901e-07
-6.60658e-08
1.3337e-05
1.12762e-07
-3.6929e-08
1.32713e-05
8.13125e-08
-1.5604e-08
1.32172e-05
5.50072e-08
-8.90919e-10
1.31741e-05
3.41899e-08
8.85602e-09
1.31407e-05
1.76288e-08
1.5829e-08
1.31157e-05
4.23802e-09
2.07119e-08
1.30997e-05
-8.40339e-09
2.44539e-08
1.30894e-05
-1.68414e-08
2.70947e-08
1.30833e-05
-2.29489e-08
2.90353e-08
1.30802e-05
-2.73763e-08
3.05103e-08
1.30791e-05
-3.05307e-08
3.16165e-08
1.30794e-05
-3.27307e-08
3.24038e-08
1.30807e-05
-3.42e-08
3.29104e-08
1.30827e-05
-3.50953e-08
3.31599e-08
1.3085e-05
-3.55301e-08
3.31791e-08
1.30876e-05
-3.55895e-08
3.29861e-08
1.30904e-05
-3.53384e-08
3.26063e-08
1.30931e-05
-3.48301e-08
3.20581e-08
1.30959e-05
-3.41082e-08
3.13653e-08
1.30985e-05
-3.3213e-08
3.0547e-08
1.31011e-05
-3.21766e-08
2.96251e-08
1.31035e-05
-3.10322e-08
2.86181e-08
1.31058e-05
-2.98047e-08
2.75445e-08
1.31079e-05
-2.85209e-08
2.64221e-08
1.31098e-05
-2.71987e-08
2.52645e-08
1.31116e-05
-2.58595e-08
2.4088e-08
1.31132e-05
-2.4515e-08
2.29014e-08
1.31146e-05
-2.31816e-08
2.1719e-08
1.3116e-05
-2.18657e-08
2.05449e-08
1.31171e-05
-2.05794e-08
1.93917e-08
1.31182e-05
-1.9325e-08
1.82592e-08
1.31192e-05
-1.81117e-08
1.71579e-08
1.312e-05
-1.69375e-08
1.60855e-08
1.31208e-05
-1.58097e-08
1.50504e-08
1.31215e-05
-1.47242e-08
1.40474e-08
1.31221e-05
-1.36864e-08
1.30844e-08
1.31226e-05
-1.26899e-08
1.21548e-08
1.31231e-05
-1.17407e-08
1.1265e-08
1.31235e-05
-1.08306e-08
1.04075e-08
1.31239e-05
-9.96461e-09
9.58858e-09
1.31242e-05
-9.13387e-09
8.79996e-09
1.31245e-05
-8.34425e-09
8.04629e-09
1.31248e-05
-7.58584e-09
7.32062e-09
1.3125e-05
-6.86394e-09
6.62661e-09
1.31252e-05
-6.16897e-09
5.9582e-09
1.31254e-05
-5.50654e-09
5.31663e-09
1.31256e-05
-4.86689e-09
4.69863e-09
1.31257e-05
-4.2558e-09
4.10253e-09
1.31259e-05
-3.66382e-09
3.5279e-09
1.3126e-05
-3.09644e-09
2.97079e-09
1.31261e-05
-2.54397e-09
2.43369e-09
1.31262e-05
-2.01289e-09
1.90882e-09
1.31263e-05
-1.49354e-09
1.40087e-09
1.31264e-05
-9.91075e-10
9.01811e-10
1.31265e-05
-4.93827e-10
4.18447e-10
1.31265e-05
-7.40527e-12
-7.11221e-11
1.31266e-05
4.75226e-10
-5.43021e-10
1.31267e-05
9.44615e-10
-1.0129e-09
1.31267e-05
1.41198e-09
-1.47123e-09
1.31268e-05
1.87197e-09
-1.93328e-09
1.31268e-05
2.3335e-09
-2.38669e-09
1.31269e-05
2.79083e-09
-2.84708e-09
1.31269e-05
3.2538e-09
-3.30194e-09
1.3127e-05
3.71425e-09
-3.76633e-09
1.3127e-05
4.18618e-09
-4.22983e-09
1.31271e-05
4.65544e-09
-4.70315e-09
1.31271e-05
5.14542e-09
-5.18263e-09
1.31272e-05
5.62839e-09
-5.66898e-09
1.31272e-05
6.14538e-09
-6.1745e-09
1.31272e-05
6.6469e-09
-6.67596e-09
1.31272e-05
7.20182e-09
-7.22001e-09
1.31273e-05
7.72893e-09
-7.73404e-09
1.31273e-05
8.32773e-09
-8.33712e-09
1.31272e-05
8.89517e-09
-8.84975e-09
1.31272e-05
9.53159e-09
-9.54555e-09
1.31271e-05
1.01766e-08
-1.00182e-08
1.31271e-05
1.08044e-08
-1.08763e-08
1.31267e-05
1.16172e-08
-1.12151e-08
1.3127e-05
1.21087e-08
-1.23777e-08
1.31261e-05
1.32849e-08
-1.2369e-08
1.31269e-05
1.33565e-08
-1.41407e-08
1.31249e-05
1.52667e-08
-1.33274e-08
1.31269e-05
1.44059e-08
-1.63302e-08
1.3123e-05
1.76445e-08
-1.37991e-08
1.31272e-05
1.50965e-08
-1.92389e-08
1.31201e-05
2.0401e-08
-1.33186e-08
1.3128e-05
1.53944e-08
-2.33133e-08
1.3116e-05
2.323e-08
-1.12643e-08
1.31294e-05
1.56962e-08
-2.90813e-08
1.31113e-05
2.52295e-08
-7.0798e-09
1.31308e-05
1.72904e-08
-3.67908e-08
1.31072e-05
2.44888e-08
-9.10852e-10
1.31303e-05
2.24548e-08
-4.55876e-08
1.31072e-05
1.80384e-08
5.12493e-09
1.31253e-05
3.44865e-08
-5.26373e-08
1.31158e-05
2.57668e-09
6.91857e-09
1.31112e-05
5.5993e-08
-5.13831e-08
1.31385e-05
-2.26736e-08
-4.67055e-09
1.30848e-05
8.62511e-08
-3.2521e-08
1.31773e-05
-5.38797e-08
-3.86255e-08
1.30457e-05
1.16967e-07
1.46338e-08
1.32234e-05
-7.80248e-08
-9.96495e-08
1.30057e-05
1.31775e-07
8.58724e-08
1.32565e-05
-7.29754e-08
-1.77737e-07
1.29805e-05
1.13035e-07
1.62946e-07
1.32504e-05
-2.55914e-08
-2.44327e-07
1.29899e-05
5.42465e-08
2.06219e-07
1.31981e-05
5.1294e-08
-2.59417e-07
1.3046e-05
-2.27221e-08
1.74798e-07
1.31191e-05
1.247e-07
-1.97825e-07
1.312e-05
-6.85813e-08
6.77342e-08
1.30621e-05
1.41561e-07
-8.37078e-08
1.31556e-05
-4.22451e-08
-5.12882e-08
1.30623e-05
9.02256e-08
3.14999e-09
1.31302e-05
3.68813e-08
-1.04859e-07
1.3108e-05
2.68684e-08
-4.62326e-09
1.30767e-05
8.12646e-08
-4.99822e-08
1.3138e-05