/*--------------------------------*- C++ -*----------------------------------*\
| =========                 |                                                 |
| \\      /  F ield         | OpenFOAM: The Open Source CFD Toolbox           |
|  \\    /   O peration     | Version:  2.4.0                                 |
|   \\  /    A nd           | Web:      www.OpenFOAM.org                      |
|    \\/     M anipulation  |                                                 |
\*---------------------------------------------------------------------------*/
FoamFile
{
    version     2.0;
    format      ascii;
    class       volSymmTensorField;
    location    "0.04";
    object      UPrime2Mean;
}
// * * * * * * * * * * * * * * * * * * * * * * * * * * * * * * * * * * * * * //

dimensions      [0 2 -2 0 0 0 0];

internalField   nonuniform List<symmTensor> 
17600
(
(0.0952856 -0.0103188 0 0.00156937 0 0)
(0.980936 -0.0041449 0 9.27247e-05 0 0)
(1.26853 -0.000152463 0 6.20386e-06 0 0)
(1.40285 -0.0010649 0 4.01287e-06 0 0)
(1.49615 -0.000788576 0 1.92186e-06 0 0)
(1.5602 -0.000299274 0 1.09239e-06 0 0)
(1.60148 -7.37068e-05 0 7.20365e-07 0 0)
(1.63139 2.63404e-05 0 4.2481e-07 0 0)
(1.64894 2.62407e-05 0 4.16659e-07 0 0)
(1.66573 -1.28323e-05 0 3.43378e-07 0 0)
(1.67535 -4.9262e-05 0 2.1406e-07 0 0)
(1.69315 -0.000128022 0 3.76979e-07 0 0)
(1.7043 -0.000158794 0 3.43322e-07 0 0)
(1.72901 -0.000274149 0 6.77748e-07 0 0)
(1.74779 -0.000412336 0 8.08406e-07 0 0)
(1.79739 -0.000938832 0 4.936e-06 0 0)
(1.8528 -0.00175339 0 4.86601e-06 0 0)
(2.06599 0.00116974 0 5.1797e-05 0 0)
(2.41991 -0.0707504 0 0.00301241 0 0)
(4.43955 0.354064 0 0.0446183 0 0)
(0.0470694 0.0208325 0 0.0162242 0 0)
(0.392312 -0.0375089 0 0.00379792 0 0)
(0.783563 -0.020797 0 0.000561708 0 0)
(1.04165 -0.0144773 0 0.000221737 0 0)
(1.2634 -0.0115333 0 0.000170253 0 0)
(1.46622 -0.00895028 0 0.000148946 0 0)
(1.62421 -0.00655022 0 0.000112757 0 0)
(1.7518 -0.00443089 0 6.48826e-05 0 0)
(1.83187 -0.00318212 0 3.31902e-05 0 0)
(1.90932 -0.00255741 0 1.80306e-05 0 0)
(1.9481 -0.00251427 0 9.08071e-06 0 0)
(2.02377 -0.00282499 0 8.94281e-06 0 0)
(2.05588 -0.00326903 0 1.59689e-05 0 0)
(2.15217 -0.0033464 0 1.33407e-05 0 0)
(2.18647 -0.0055879 0 3.05571e-05 0 0)
(2.35816 -0.00525213 0 2.78821e-05 0 0)
(2.3755 -0.016694 0 0.000173603 0 0)
(3.14323 -0.024395 0 0.000244125 0 0)
(2.79111 -0.0795084 0 0.00316769 0 0)
(8.80961 -1.06637 0 0.181353 0 0)
(0.162581 0.0614948 0 0.0254178 0 0)
(0.0639565 -0.0234926 0 0.0107088 0 0)
(0.268214 -0.0257898 0 0.0027101 0 0)
(0.455546 -0.0242107 0 0.00131417 0 0)
(0.664278 -0.0234843 0 0.000983215 0 0)
(0.902841 -0.0213169 0 0.000849411 0 0)
(1.11689 -0.017486 0 0.000671081 0 0)
(1.30933 -0.0129566 0 0.000412675 0 0)
(1.43716 -0.00972623 0 0.00022983 0 0)
(1.56752 -0.0077361 0 0.000118957 0 0)
(1.62821 -0.00725995 0 5.83032e-05 0 0)
(1.75655 -0.00787245 0 6.44828e-05 0 0)
(1.79678 -0.00856088 0 7.62035e-05 0 0)
(1.95765 -0.00946738 0 9.88611e-05 0 0)
(1.99019 -0.0131082 0 0.0001324 0 0)
(2.24557 -0.0145425 0 0.000151623 0 0)
(2.26296 -0.0373585 0 0.00066565 0 0)
(3.0555 -0.0466403 0 0.0012629 0 0)
(3.09297 -0.196159 0 0.0177783 0 0)
(7.12501 -1.32042 0 0.398394 0 0)
(0.214154 0.0678859 0 0.0228527 0 0)
(0.00529755 0.00450979 0 0.0165532 0 0)
(0.0358415 -0.00939218 0 0.0058784 0 0)
(0.0803064 -0.0147789 0 0.00345586 0 0)
(0.157281 -0.020324 0 0.00276624 0 0)
(0.294769 -0.0238564 0 0.0024222 0 0)
(0.452887 -0.023065 0 0.00199702 0 0)
(0.625607 -0.0192052 0 0.00128786 0 0)
(0.749103 -0.0152115 0 0.000774196 0 0)
(0.889042 -0.0124156 0 0.000395384 0 0)
(0.94943 -0.0118616 0 0.000219293 0 0)
(1.09534 -0.0116292 0 0.000185298 0 0)
(1.12884 -0.0146639 0 0.000268423 0 0)
(1.31072 -0.0111611 0 0.00026967 0 0)
(1.33631 -0.0241139 0 0.000601009 0 0)
(1.58039 -0.00909633 0 0.000432033 0 0)
(1.66479 -0.0653231 0 0.00324257 0 0)
(2.04639 -0.0263198 0 0.00155428 0 0)
(2.8355 -0.336082 0 0.0622966 0 0)
(3.59242 -0.552371 0 0.24497 0 0)
(0.200199 0.0549718 0 0.0160488 0 0)
(0.01869 0.0169779 0 0.0172128 0 0)
(0.0256222 0.00890444 0 0.00725278 0 0)
(0.0278571 0.00601783 0 0.00524896 0 0)
(0.0164861 0.000270947 0 0.00493474 0 0)
(0.0249381 -0.00827047 0 0.00460831 0 0)
(0.0651464 -0.0134705 0 0.00399503 0 0)
(0.141575 -0.0152109 0 0.00274132 0 0)
(0.207323 -0.0134544 0 0.0017219 0 0)
(0.298999 -0.0124367 0 0.000937064 0 0)
(0.33671 -0.0113223 0 0.000479974 0 0)
(0.443132 -0.0132894 0 0.000535044 0 0)
(0.473728 -0.013104 0 0.000429167 0 0)
(0.591931 -0.0170964 0 0.000760659 0 0)
(0.656663 -0.0148942 0 0.000661623 0 0)
(0.762373 -0.0302276 0 0.00149586 0 0)
(0.921364 -0.019846 0 0.00177823 0 0)
(1.08454 -0.105455 0 0.0173344 0 0)
(1.51481 -0.116704 0 0.0268002 0 0)
(2.17418 -0.751275 0 0.695214 0 0)
(0.186871 0.0448678 0 0.0114941 0 0)
(0.0165856 0.0150492 0 0.0153385 0 0)
(0.0375754 0.0128247 0 0.00620241 0 0)
(0.0702295 0.0162658 0 0.00500154 0 0)
(0.0817688 0.018678 0 0.00577694 0 0)
(0.0606299 0.0138825 0 0.00618245 0 0)
(0.0417898 0.00771875 0 0.00584637 0 0)
(0.0290296 0.000134561 0 0.00425091 0 0)
(0.0315491 -0.00225763 0 0.00302098 0 0)
(0.0489584 -0.00463781 0 0.00163381 0 0)
(0.052667 -0.00502284 0 0.000999538 0 0)
(0.0918779 -0.00638724 0 0.000876731 0 0)
(0.0980916 -0.00936156 0 0.0011115 0 0)
(0.151605 -0.00786617 0 0.00111482 0 0)
(0.181603 -0.0161282 0 0.0023992 0 0)
(0.234898 -0.00899755 0 0.00176206 0 0)
(0.29823 -0.0358598 0 0.00933413 0 0)
(0.404225 -0.0232137 0 0.00542667 0 0)
(0.556825 -0.161738 0 0.101236 0 0)
(0.959167 -0.337669 0 0.33782 0 0)
(0.185514 0.0386584 0 0.00858837 0 0)
(0.0112975 0.0111985 0 0.0136037 0 0)
(0.0319831 0.0104203 0 0.00496658 0 0)
(0.0733465 0.0146479 0 0.00365825 0 0)
(0.115024 0.0217552 0 0.00491252 0 0)
(0.12322 0.0231267 0 0.00599541 0 0)
(0.131493 0.0223235 0 0.00638194 0 0)
(0.109907 0.0149158 0 0.00507951 0 0)
(0.108508 0.0113782 0 0.00362371 0 0)
(0.0859011 0.00637225 0 0.00234955 0 0)
(0.0853469 0.00625121 0 0.00124517 0 0)
(0.0651001 0.0033174 0 0.00160482 0 0)
(0.0653309 0.00297328 0 0.0010214 0 0)
(0.0490909 0.000480774 0 0.00206659 0 0)
(0.0594762 -9.64336e-07 0 0.00176858 0 0)
(0.0473457 -0.00155596 0 0.00413163 0 0)
(0.0591066 -0.00233617 0 0.00406885 0 0)
(0.0708153 -0.0109065 0 0.0280419 0 0)
(0.110257 -0.0359489 0 0.0448627 0 0)
(0.256569 -0.138577 0 0.465531 0 0)
(0.188965 0.0335729 0 0.0063784 0 0)
(0.00818304 0.00836739 0 0.0119687 0 0)
(0.0254639 0.00815701 0 0.00432714 0 0)
(0.0630762 0.0114387 0 0.00269492 0 0)
(0.105492 0.0181518 0 0.00373283 0 0)
(0.122765 0.0215166 0 0.00501199 0 0)
(0.15044 0.0235076 0 0.00563562 0 0)
(0.15112 0.019018 0 0.00447848 0 0)
(0.173122 0.0161645 0 0.00383382 0 0)
(0.171716 0.0122366 0 0.0023758 0 0)
(0.184535 0.0133428 0 0.00154394 0 0)
(0.179688 0.0109952 0 0.00155487 0 0)
(0.175801 0.0131123 0 0.00190204 0 0)
(0.161879 0.00980753 0 0.00197127 0 0)
(0.149216 0.0132415 0 0.00355934 0 0)
(0.125269 0.00936636 0 0.00322954 0 0)
(0.0990305 0.0196508 0 0.00854235 0 0)
(0.0641941 0.0226116 0 0.0147367 0 0)
(0.0345318 0.0282499 0 0.0782301 0 0)
(0.0544224 0.0532681 0 0.491563 0 0)
(0.190663 0.0289246 0 0.00469292 0 0)
(0.00662555 0.0065469 0 0.0100029 0 0)
(0.0202544 0.00634994 0 0.00396637 0 0)
(0.0545586 0.00908303 0 0.0019512 0 0)
(0.0904474 0.014666 0 0.00278817 0 0)
(0.10911 0.0181592 0 0.0039021 0 0)
(0.131683 0.0202898 0 0.00480486 0 0)
(0.142308 0.0168238 0 0.00414685 0 0)
(0.1666 0.0149244 0 0.00284004 0 0)
(0.181781 0.0126106 0 0.00211805 0 0)
(0.207137 0.0127259 0 0.00114564 0 0)
(0.21955 0.0145048 0 0.00178593 0 0)
(0.237327 0.0140137 0 0.00128861 0 0)
(0.236299 0.0184743 0 0.00234072 0 0)
(0.24326 0.0164176 0 0.00265905 0 0)
(0.222495 0.0253795 0 0.00440114 0 0)
(0.208427 0.0308991 0 0.00614836 0 0)
(0.160107 0.0512394 0 0.0235912 0 0)
(0.122072 0.0857228 0 0.0790646 0 0)
(0.107213 0.146555 0 0.352637 0 0)
(0.190789 0.0245976 0 0.00342451 0 0)
(0.00482576 0.0049981 0 0.00820168 0 0)
(0.0163128 0.00497567 0 0.00366618 0 0)
(0.0477551 0.00720363 0 0.00144365 0 0)
(0.0800564 0.0117066 0 0.00205191 0 0)
(0.0974606 0.0153071 0 0.00310569 0 0)
(0.11539 0.0172658 0 0.00387893 0 0)
(0.126292 0.0146721 0 0.00298682 0 0)
(0.146454 0.0126199 0 0.00269 0 0)
(0.165867 0.0100487 0 0.0018591 0 0)
(0.186897 0.0117141 0 0.0010985 0 0)
(0.210328 0.0118963 0 0.00129976 0 0)
(0.225502 0.0141572 0 0.00147121 0 0)
(0.242012 0.0160066 0 0.00194532 0 0)
(0.247509 0.0185717 0 0.00284183 0 0)
(0.252126 0.0254713 0 0.00418401 0 0)
(0.237561 0.0349039 0 0.006971 0 0)
(0.21981 0.069033 0 0.0277991 0 0)
(0.183047 0.0975518 0 0.0727575 0 0)
(0.197674 0.228906 0 0.415427 0 0)
(0.191267 0.0208179 0 0.00245299 0 0)
(0.00395177 0.003795 0 0.00655565 0 0)
(0.0138633 0.00394268 0 0.0034447 0 0)
(0.0423334 0.00578561 0 0.00104721 0 0)
(0.0714714 0.00947359 0 0.00148821 0 0)
(0.0882888 0.0129457 0 0.00238547 0 0)
(0.102439 0.0148712 0 0.00325555 0 0)
(0.113787 0.0126648 0 0.00291336 0 0)
(0.130631 0.010222 0 0.00189826 0 0)
(0.150134 0.00913444 0 0.00141552 0 0)
(0.168056 0.00897627 0 0.000760651 0 0)
(0.192006 0.0114372 0 0.00130062 0 0)
(0.20447 0.0112335 0 0.00106224 0 0)
(0.223605 0.0159189 0 0.00163831 0 0)
(0.227564 0.0165812 0 0.00234639 0 0)
(0.238572 0.0247941 0 0.0035425 0 0)
(0.226457 0.0372133 0 0.00711166 0 0)
(0.22014 0.0645216 0 0.0236117 0 0)
(0.193578 0.111604 0 0.0820237 0 0)
(0.22392 0.240028 0 0.345695 0 0)
(0.19193 0.0174592 0 0.00174891 0 0)
(0.0033362 0.00273501 0 0.00511982 0 0)
(0.0119453 0.00288589 0 0.00316694 0 0)
(0.0377005 0.00447117 0 0.000720314 0 0)
(0.0646055 0.00748885 0 0.0010608 0 0)
(0.0804288 0.0107307 0 0.00182526 0 0)
(0.0921999 0.0126856 0 0.00258995 0 0)
(0.103142 0.0106868 0 0.00198858 0 0)
(0.117958 0.00901882 0 0.00166818 0 0)
(0.136792 0.00713375 0 0.00134755 0 0)
(0.153409 0.00819742 0 0.000707188 0 0)
(0.175553 0.009292 0 0.000961127 0 0)
(0.18772 0.0102086 0 0.000978568 0 0)
(0.205441 0.0139607 0 0.00150627 0 0)
(0.210006 0.0150599 0 0.00202278 0 0)
(0.221045 0.0258496 0 0.00422039 0 0)
(0.212122 0.0339608 0 0.00658344 0 0)
(0.211213 0.0701649 0 0.0279658 0 0)
(0.194092 0.11299 0 0.0787176 0 0)
(0.235042 0.242432 0 0.323192 0 0)
(0.192791 0.0145357 0 0.0012281 0 0)
(0.00294577 0.00196183 0 0.00391565 0 0)
(0.0107096 0.00213055 0 0.00284423 0 0)
(0.0337993 0.00355389 0 0.000539915 0 0)
(0.0592381 0.00593409 0 0.000754011 0 0)
(0.0735552 0.00885477 0 0.00134838 0 0)
(0.0841227 0.010763 0 0.00206402 0 0)
(0.0937099 0.00903795 0 0.00180605 0 0)
(0.10808 0.00737437 0 0.00123131 0 0)
(0.12539 0.00618444 0 0.000933222 0 0)
(0.141968 0.00658435 0 0.000511233 0 0)
(0.162227 0.00837402 0 0.000874432 0 0)
(0.174316 0.00873351 0 0.000809035 0 0)
(0.191119 0.0122956 0 0.00112309 0 0)
(0.195653 0.0143573 0 0.00177355 0 0)
(0.207798 0.0228592 0 0.00328995 0 0)
(0.201497 0.0348971 0 0.00687824 0 0)
(0.205665 0.0688269 0 0.0268335 0 0)
(0.196056 0.114373 0 0.0768626 0 0)
(0.251129 0.250369 0 0.301507 0 0)
(0.193379 0.0119384 0 0.000842649 0 0)
(0.00274543 0.00137647 0 0.00287779 0 0)
(0.00987231 0.00140055 0 0.0022919 0 0)
(0.030699 0.00279192 0 0.000374098 0 0)
(0.0547098 0.00467051 0 0.000519163 0 0)
(0.0681789 0.00718709 0 0.000975538 0 0)
(0.0772661 0.00898576 0 0.00155308 0 0)
(0.0863302 0.00742772 0 0.00120563 0 0)
(0.0995626 0.00626464 0 0.000922128 0 0)
(0.116385 0.00489457 0 0.000856699 0 0)
(0.132276 0.00559643 0 0.000441595 0 0)
(0.151431 0.00707986 0 0.000662179 0 0)
(0.163474 0.00737914 0 0.000643879 0 0)
(0.179267 0.0113359 0 0.00107202 0 0)
(0.18462 0.0127616 0 0.00146216 0 0)
(0.196854 0.0230653 0 0.00350954 0 0)
(0.194268 0.0338509 0 0.00662472 0 0)
(0.201801 0.0686003 0 0.0265984 0 0)
(0.201874 0.117022 0 0.0757006 0 0)
(0.263553 0.251591 0 0.275823 0 0)
(0.193804 0.0095927 0 0.000565761 0 0)
(0.00265284 0.000951905 0 0.00207356 0 0)
(0.00935375 0.000882328 0 0.00173016 0 0)
(0.0282655 0.00222845 0 0.000304518 0 0)
(0.0511442 0.00363829 0 0.000381173 0 0)
(0.0638749 0.00575217 0 0.000690831 0 0)
(0.0719384 0.00738817 0 0.00115867 0 0)
(0.0802703 0.00603754 0 0.000976501 0 0)
(0.0928983 0.00503507 0 0.000694796 0 0)
(0.108981 0.00398081 0 0.000592196 0 0)
(0.124613 0.00458466 0 0.000332501 0 0)
(0.142669 0.00599202 0 0.000560364 0 0)
(0.154785 0.00637381 0 0.00056284 0 0)
(0.169841 0.00971838 0 0.000827364 0 0)
(0.175877 0.0119909 0 0.0012634 0 0)
(0.188568 0.0217301 0 0.00316697 0 0)
(0.189101 0.0332769 0 0.0065866 0 0)
(0.200802 0.0683623 0 0.026289 0 0)
(0.208986 0.118436 0 0.0732473 0 0)
(0.279269 0.250202 0 0.250897 0 0)
(0.194118 0.00752973 0 0.000360824 0 0)
(0.00260752 0.000639939 0 0.00137789 0 0)
(0.0090503 0.000497712 0 0.00116966 0 0)
(0.0263834 0.00173333 0 0.000208004 0 0)
(0.0483258 0.00279825 0 0.000249177 0 0)
(0.0604989 0.00445487 0 0.000453081 0 0)
(0.0677741 0.00591789 0 0.000793533 0 0)
(0.0755161 0.00474505 0 0.000616311 0 0)
(0.0876329 0.0040909 0 0.000445859 0 0)
(0.103079 0.00310382 0 0.000471602 0 0)
(0.118642 0.00365751 0 0.000271043 0 0)
(0.135756 0.00504747 0 0.000416073 0 0)
(0.148024 0.00530736 0 0.000410338 0 0)
(0.162511 0.0087029 0 0.000690001 0 0)
(0.169353 0.0109537 0 0.00103956 0 0)
(0.182472 0.0207892 0 0.00291062 0 0)
(0.186271 0.032693 0 0.00634614 0 0)
(0.201742 0.0679096 0 0.0253816 0 0)
(0.218093 0.119128 0 0.0696086 0 0)
(0.297308 0.249272 0 0.227635 0 0)
(0.194316 0.00566317 0 0.000223829 0 0)
(0.00260569 0.000408461 0 0.000860369 0 0)
(0.00889685 0.000251242 0 0.000754917 0 0)
(0.0249837 0.00129896 0 0.000162007 0 0)
(0.0461359 0.00205254 0 0.000186852 0 0)
(0.0579826 0.0032861 0 0.000294501 0 0)
(0.0645729 0.00454463 0 0.000524914 0 0)
(0.0719386 0.00355238 0 0.00042284 0 0)
(0.0836005 0.00311435 0 0.000316198 0 0)
(0.0986717 0.00231266 0 0.00033224 0 0)
(0.114032 0.002844 0 0.000204405 0 0)
(0.130546 0.00407685 0 0.000325946 0 0)
(0.142928 0.00435536 0 0.000356059 0 0)
(0.157089 0.00758604 0 0.000580037 0 0)
(0.164673 0.0099773 0 0.000858258 0 0)
(0.178418 0.0199142 0 0.00268045 0 0)
(0.185305 0.0320576 0 0.00609749 0 0)
(0.204452 0.0672069 0 0.0242307 0 0)
(0.228596 0.119209 0 0.0657966 0 0)
(0.314342 0.246053 0 0.206232 0 0)
(0.194453 0.00395821 0 0.000124357 0 0)
(0.0026165 0.000240554 0 0.000459445 0 0)
(0.00882756 9.55621e-05 0 0.000413057 0 0)
(0.0239904 0.000891489 0 0.000104114 0 0)
(0.0445501 0.00141951 0 0.000121823 0 0)
(0.0561578 0.0022282 0 0.000169112 0 0)
(0.0622822 0.00325175 0 0.000304125 0 0)
(0.0693386 0.00245438 0 0.000237117 0 0)
(0.0807069 0.0022648 0 0.00017774 0 0)
(0.0954378 0.00161231 0 0.00022072 0 0)
(0.110756 0.00205366 0 0.000157259 0 0)
(0.126795 0.00322079 0 0.000232281 0 0)
(0.139307 0.0035203 0 0.000252374 0 0)
(0.153323 0.00651926 0 0.000443385 0 0)
(0.161686 0.00913712 0 0.000709379 0 0)
(0.176168 0.0189291 0 0.00239585 0 0)
(0.185941 0.0314285 0 0.00579796 0 0)
(0.208866 0.0660891 0 0.0227892 0 0)
(0.24029 0.11878 0 0.0615959 0 0)
(0.333181 0.241077 0 0.184275 0 0)
(0.194524 0.00236665 0 6.73637e-05 0 0)
(0.00262886 0.000115421 0 0.000212644 0 0)
(0.0088008 1.77504e-05 0 0.000198991 0 0)
(0.0233532 0.000510037 0 7.8961e-05 0 0)
(0.0435003 0.000848816 0 0.000101248 0 0)
(0.0549919 0.0012365 0 0.000106734 0 0)
(0.0607876 0.0020328 0 0.000167862 0 0)
(0.0676469 0.00139653 0 0.000139461 0 0)
(0.0788288 0.00143458 0 0.000120664 0 0)
(0.0933456 0.000914586 0 0.000155941 0 0)
(0.108671 0.00132493 0 0.00012787 0 0)
(0.124382 0.00234002 0 0.000170874 0 0)
(0.13709 0.00265929 0 0.000200485 0 0)
(0.151077 0.00552165 0 0.000350808 0 0)
(0.160259 0.00820598 0 0.00057329 0 0)
(0.17556 0.0179607 0 0.0021238 0 0)
(0.188191 0.0306087 0 0.00540808 0 0)
(0.214792 0.0649252 0 0.0212181 0 0)
(0.253303 0.117576 0 0.0568649 0 0)
(0.353022 0.235987 0 0.164761 0 0)
(0.194535 0.000839994 0 3.64489e-05 0 0)
(0.00263611 1.46954e-05 0 8.61705e-05 0 0)
(0.00879134 -2.09809e-05 0 7.63347e-05 0 0)
(0.0230453 0.000135932 0 5.97799e-05 0 0)
(0.0429732 0.000322873 0 8.06515e-05 0 0)
(0.0544374 0.00030192 0 7.50454e-05 0 0)
(0.0600376 0.000822548 0 8.80724e-05 0 0)
(0.0668206 0.000387818 0 8.63763e-05 0 0)
(0.077908 0.000628765 0 8.75069e-05 0 0)
(0.0923207 0.000286573 0 0.000104883 0 0)
(0.107706 0.000611201 0 0.000104911 0 0)
(0.12326 0.00150327 0 0.000123511 0 0)
(0.136192 0.00186753 0 0.000145848 0 0)
(0.150266 0.00452502 0 0.000264568 0 0)
(0.160331 0.00732123 0 0.000466181 0 0)
(0.176536 0.016973 0 0.0018502 0 0)
(0.191954 0.029751 0 0.00498142 0 0)
(0.222192 0.0634968 0 0.0194958 0 0)
(0.26758 0.115725 0 0.0519759 0 0)
(0.372912 0.229365 0 0.146311 0 0)
(0.194492 -0.000659485 0 3.65574e-05 0 0)
(0.00263312 -7.77189e-05 0 9.70991e-05 0 0)
(0.00878556 -4.03702e-05 0 6.92117e-05 0 0)
(0.0230475 -0.000232706 0 7.0497e-05 0 0)
(0.0429544 -0.000188084 0 8.93745e-05 0 0)
(0.0544622 -0.000628838 0 8.95097e-05 0 0)
(0.0600152 -0.000365986 0 8.39628e-05 0 0)
(0.0668152 -0.000628314 0 9.96577e-05 0 0)
(0.0779197 -0.000176229 0 0.000107503 0 0)
(0.0923133 -0.000356881 0 9.21347e-05 0 0)
(0.107847 -9.73685e-05 0 0.000104205 0 0)
(0.123363 0.000642049 0 0.000102125 0 0)
(0.136586 0.00106198 0 0.000116385 0 0)
(0.150845 0.00349762 0 0.000203101 0 0)
(0.161856 0.00641207 0 0.000392757 0 0)
(0.179044 0.0158533 0 0.00158998 0 0)
(0.197211 0.0287671 0 0.004528 0 0)
(0.231082 0.0616918 0 0.0176439 0 0)
(0.283014 0.113271 0 0.0469205 0 0)
(0.393909 0.221849 0 0.128607 0 0)
(0.194392 -0.00218896 0 6.33913e-05 0 0)
(0.00261994 -0.000179839 0 0.00023429 0 0)
(0.00878281 -7.46715e-05 0 0.000167361 0 0)
(0.0233622 -0.000608552 0 0.000100166 0 0)
(0.0434421 -0.000720435 0 0.00011072 0 0)
(0.0550746 -0.00155978 0 0.000140774 0 0)
(0.0607089 -0.00157499 0 0.000146747 0 0)
(0.0676422 -0.00163643 0 0.000169356 0 0)
(0.0788493 -0.000996262 0 0.000167329 0 0)
(0.0933414 -0.000998972 0 0.00010748 0 0)
(0.109083 -0.000795933 0 0.000113386 0 0)
(0.124707 -0.000225816 0 9.94986e-05 0 0)
(0.138266 0.000269897 0 9.65144e-05 0 0)
(0.152833 0.00245038 0 0.00015796 0 0)
(0.164834 0.00549584 0 0.000337774 0 0)
(0.183111 0.0146752 0 0.00134042 0 0)
(0.203995 0.0276766 0 0.00405496 0 0)
(0.241476 0.0596158 0 0.0157229 0 0)
(0.299757 0.110206 0 0.0418855 0 0)
(0.416377 0.213632 0 0.112349 0 0)
(0.194235 -0.00378309 0 0.000120862 0 0)
(0.00260182 -0.000307846 0 0.000503597 0 0)
(0.00879739 -0.000146634 0 0.000370844 0 0)
(0.0240061 -0.000994721 0 0.000146458 0 0)
(0.04445 -0.00129739 0 0.000150591 0 0)
(0.056295 -0.00253745 0 0.000232907 0 0)
(0.0621518 -0.00281918 0 0.000278559 0 0)
(0.069328 -0.00266828 0 0.000294961 0 0)
(0.0807381 -0.00185339 0 0.000271253 0 0)
(0.0954331 -0.00165968 0 0.000154505 0 0)
(0.111455 -0.00152727 0 0.000140434 0 0)
(0.127316 -0.0011195 0 0.000122778 0 0)
(0.141294 -0.000560027 0 9.37547e-05 0 0)
(0.156249 0.00136055 0 0.000139199 0 0)
(0.169336 0.00453959 0 0.00030929 0 0)
(0.188775 0.0133959 0 0.00111975 0 0)
(0.212393 0.0264162 0 0.00356562 0 0)
(0.253457 0.0572262 0 0.0137904 0 0)
(0.318035 0.106474 0 0.0368626 0 0)
(0.439845 0.20449 0 0.0971243 0 0)
(0.194018 -0.00549391 0 0.000215102 0 0)
(0.00258611 -0.000481695 0 0.000910781 0 0)
(0.00885406 -0.000288149 0 0.000683995 0 0)
(0.0250106 -0.00140401 0 0.000204886 0 0)
(0.0460047 -0.00194747 0 0.000210366 0 0)
(0.0581679 -0.00358519 0 0.000370703 0 0)
(0.0643925 -0.00413033 0 0.000484141 0 0)
(0.0719357 -0.00375101 0 0.000476979 0 0)
(0.0836457 -0.00276801 0 0.000419647 0 0)
(0.0986537 -0.00236425 0 0.000231764 0 0)
(0.115033 -0.00230317 0 0.000185147 0 0)
(0.131275 -0.00206184 0 0.000171549 0 0)
(0.145741 -0.00142907 0 0.000107716 0 0)
(0.161198 0.000181509 0 0.000150974 0 0)
(0.175455 0.00355471 0 0.000305511 0 0)
(0.196152 0.0119654 0 0.000928935 0 0)
(0.222517 0.0250162 0 0.00308656 0 0)
(0.267174 0.0544143 0 0.0118561 0 0)
(0.337918 0.102155 0 0.0319744 0 0)
(0.464952 0.194652 0 0.0829916 0 0)
(0.193732 -0.00736296 0 0.000353869 0 0)
(0.00258647 -0.000719039 0 0.0014569 0 0)
(0.00899506 -0.000525464 0 0.0011047 0 0)
(0.0264258 -0.00184721 0 0.000272872 0 0)
(0.0481467 -0.00269423 0 0.00029427 0 0)
(0.0607597 -0.00473162 0 0.000555052 0 0)
(0.0675124 -0.00553386 0 0.000761172 0 0)
(0.0755588 -0.00489958 0 0.000709993 0 0)
(0.0876651 -0.0037652 0 0.00060943 0 0)
(0.103116 -0.00311869 0 0.000333917 0 0)
(0.119919 -0.00314054 0 0.000245932 0 0)
(0.136705 -0.00305851 0 0.000241928 0 0)
(0.151725 -0.00236548 0 0.000135406 0 0)
(0.167829 -0.00108627 0 0.000190639 0 0)
(0.183324 0.00252409 0 0.000316941 0 0)
(0.205412 0.0103804 0 0.000771808 0 0)
(0.23452 0.0234565 0 0.00262494 0 0)
(0.282802 0.0511984 0 0.00997145 0 0)
(0.359743 0.0972128 0 0.0272797 0 0)
(0.49222 0.184031 0 0.0699267 0 0)
(0.193362 -0.00944054 0 0.000552203 0 0)
(0.00262138 -0.00104252 0 0.00214792 0 0)
(0.00927759 -0.000890247 0 0.00163034 0 0)
(0.028316 -0.00234442 0 0.000352598 0 0)
(0.0509382 -0.00356519 0 0.000410365 0 0)
(0.0641591 -0.00599864 0 0.000794173 0 0)
(0.0716259 -0.00705127 0 0.00111286 0 0)
(0.08032 -0.00613357 0 0.000994503 0 0)
(0.0929342 -0.00487107 0 0.000848804 0 0)
(0.108961 -0.0039463 0 0.000465162 0 0)
(0.126263 -0.00407162 0 0.000326771 0 0)
(0.143779 -0.00411929 0 0.000334734 0 0)
(0.159416 -0.00341415 0 0.000181057 0 0)
(0.176357 -0.00245866 0 0.000264352 0 0)
(0.19313 0.00139602 0 0.000343622 0 0)
(0.216793 0.00863008 0 0.000658905 0 0)
(0.24861 0.0217143 0 0.00219022 0 0)
(0.300636 0.0475267 0 0.00816811 0 0)
(0.383792 0.0915666 0 0.0228091 0 0)
(0.521626 0.172663 0 0.0580156 0 0)
(0.192882 -0.011784 0 0.000830584 0 0)
(0.00271917 -0.00147893 0 0.00298792 0 0)
(0.00977643 -0.00140825 0 0.00222303 0 0)
(0.0307637 -0.00292312 0 0.000450995 0 0)
(0.0544668 -0.00459919 0 0.000567183 0 0)
(0.0684944 -0.00740896 0 0.00109164 0 0)
(0.0768908 -0.00870254 0 0.00153785 0 0)
(0.0863966 -0.00746801 0 0.00132736 0 0)
(0.0996304 -0.00610814 0 0.00113803 0 0)
(0.116393 -0.00486339 0 0.000617989 0 0)
(0.134271 -0.00510853 0 0.000423993 0 0)
(0.152752 -0.00524802 0 0.000445466 0 0)
(0.169052 -0.00459183 0 0.00024816 0 0)
(0.187086 -0.00396171 0 0.000376093 0 0)
(0.205144 0.000176692 0 0.000383986 0 0)
(0.230624 0.0066494 0 0.000590713 0 0)
(0.265051 0.0198479 0 0.0017952 0 0)
(0.321082 0.0432694 0 0.00646932 0 0)
(0.410372 0.0853345 0 0.0186741 0 0)
(0.554032 0.160163 0 0.047006 0 0)
(0.19227 -0.0144079 0 0.00121261 0 0)
(0.00292055 -0.00207669 0 0.00401361 0 0)
(0.010584 -0.00208799 0 0.00275709 0 0)
(0.0338716 -0.00365224 0 0.000590405 0 0)
(0.0588835 -0.0058767 0 0.000788001 0 0)
(0.0739447 -0.0090174 0 0.00146159 0 0)
(0.0835411 -0.0105174 0 0.00203816 0 0)
(0.0940044 -0.00894882 0 0.00171429 0 0)
(0.107997 -0.00749776 0 0.00147202 0 0)
(0.125651 -0.00590447 0 0.000787608 0 0)
(0.144234 -0.00628271 0 0.000539264 0 0)
(0.163934 -0.00647643 0 0.000573602 0 0)
(0.180975 -0.00591715 0 0.000335547 0 0)
(0.200388 -0.00562157 0 0.000525262 0 0)
(0.219719 -0.00114455 0 0.000435023 0 0)
(0.247284 0.00439509 0 0.000579045 0 0)
(0.284252 0.0178461 0 0.00144471 0 0)
(0.344608 0.0383984 0 0.0049309 0 0)
(0.439962 0.0784435 0 0.0148883 0 0)
(0.590099 0.146423 0 0.0369439 0 0)
(0.191569 -0.0173575 0 0.00173122 0 0)
(0.00327581 -0.00288337 0 0.00525515 0 0)
(0.0118258 -0.00291734 0 0.00312736 0 0)
(0.0376455 -0.00460721 0 0.000801535 0 0)
(0.0643141 -0.00748439 0 0.00110529 0 0)
(0.0805061 -0.0108776 0 0.00192517 0 0)
(0.0917716 -0.0125392 0 0.00262326 0 0)
(0.10314 -0.0105921 0 0.00215692 0 0)
(0.118269 -0.00910389 0 0.00186367 0 0)
(0.136785 -0.00709211 0 0.000984404 0 0)
(0.156503 -0.00767576 0 0.000690964 0 0)
(0.177495 -0.00779667 0 0.000714209 0 0)
(0.195647 -0.00750774 0 0.000456158 0 0)
(0.216516 -0.0073421 0 0.000701746 0 0)
(0.237343 -0.00275564 0 0.000513791 0 0)
(0.267107 0.00201599 0 0.000629942 0 0)
(0.306836 0.0154797 0 0.00112998 0 0)
(0.37162 0.0330892 0 0.00362229 0 0)
(0.473277 0.0706647 0 0.0114436 0 0)
(0.630877 0.131181 0 0.0278661 0 0)
(0.190934 -0.0207402 0 0.00244284 0 0)
(0.00384097 -0.00391965 0 0.00669946 0 0)
(0.0136957 -0.00390969 0 0.00339622 0 0)
(0.042055 -0.00580102 0 0.00110082 0 0)
(0.0711313 -0.00946027 0 0.00153962 0 0)
(0.0880762 -0.0129831 0 0.00248815 0 0)
(0.102244 -0.0148197 0 0.00328334 0 0)
(0.113649 -0.0123429 0 0.00263867 0 0)
(0.131385 -0.0110082 0 0.00231643 0 0)
(0.149718 -0.00840046 0 0.0012033 0 0)
(0.172383 -0.00936444 0 0.000880445 0 0)
(0.193363 -0.00918599 0 0.000857507 0 0)
(0.214636 -0.00941988 0 0.000616616 0 0)
(0.235329 -0.00910919 0 0.000898027 0 0)
(0.259596 -0.0046603 0 0.00061577 0 0)
(0.289784 -0.000535615 0 0.000744176 0 0)
(0.334005 0.0128842 0 0.000862427 0 0)
(0.400965 0.0271021 0 0.00255151 0 0)
(0.5097 0.0623827 0 0.00847886 0 0)
(0.673085 0.112451 0 0.0194399 0 0)
(0.190383 -0.0245811 0 0.00340494 0 0)
(0.00479087 -0.00522584 0 0.00835778 0 0)
(0.0163996 -0.00510673 0 0.00365987 0 0)
(0.0472624 -0.00726436 0 0.00150424 0 0)
(0.0800101 -0.0118692 0 0.00210655 0 0)
(0.0968158 -0.0153683 0 0.00317072 0 0)
(0.116279 -0.0175033 0 0.00402346 0 0)
(0.125516 -0.0142346 0 0.00319609 0 0)
(0.149467 -0.0133552 0 0.00282832 0 0)
(0.164152 -0.00989916 0 0.00147356 0 0)
(0.194327 -0.0114518 0 0.00110868 0 0)
(0.210087 -0.010711 0 0.00103297 0 0)
(0.239752 -0.0116728 0 0.000813314 0 0)
(0.252953 -0.010843 0 0.0011303 0 0)
(0.285752 -0.00676079 0 0.000738362 0 0)
(0.30664 -0.00316409 0 0.000920314 0 0)
(0.358717 0.0102946 0 0.000657256 0 0)
(0.414344 0.0201897 0 0.00172938 0 0)
(0.528206 0.0537314 0 0.00613231 0 0)
(0.679182 0.0878485 0 0.0119822 0 0)
(0.189262 -0.0288046 0 0.00467328 0 0)
(0.00647016 -0.00689746 0 0.0102236 0 0)
(0.0199942 -0.00648587 0 0.00395122 0 0)
(0.0538902 -0.00913891 0 0.00203724 0 0)
(0.0910974 -0.0147697 0 0.00283558 0 0)
(0.108219 -0.0182064 0 0.0040145 0 0)
(0.134264 -0.0206953 0 0.00487968 0 0)
(0.139958 -0.0164588 0 0.00387949 0 0)
(0.171988 -0.0161448 0 0.00340887 0 0)
(0.177984 -0.0114814 0 0.00179494 0 0)
(0.216703 -0.0137675 0 0.00138894 0 0)
(0.217397 -0.01188 0 0.00123406 0 0)
(0.254695 -0.0136536 0 0.00103803 0 0)
(0.245753 -0.0112688 0 0.00134341 0 0)
(0.283626 -0.00814033 0 0.00086985 0 0)
(0.276515 -0.00415174 0 0.0010569 0 0)
(0.329551 0.00784228 0 0.00051943 0 0)
(0.350282 0.013784 0 0.00117901 0 0)
(0.455506 0.0432553 0 0.00441076 0 0)
(0.562923 0.058269 0 0.00641773 0 0)
(0.186885 -0.0333733 0 0.00634164 0 0)
(0.008825 -0.00901132 0 0.0121355 0 0)
(0.0247472 -0.00807047 0 0.00431215 0 0)
(0.0629756 -0.0116673 0 0.00275202 0 0)
(0.103925 -0.0181606 0 0.00376974 0 0)
(0.123497 -0.021658 0 0.0050395 0 0)
(0.150353 -0.0237016 0 0.00579878 0 0)
(0.150178 -0.0184373 0 0.00463273 0 0)
(0.177017 -0.0175183 0 0.00392593 0 0)
(0.166899 -0.011579 0 0.00206611 0 0)
(0.194498 -0.0136269 0 0.00160207 0 0)
(0.171965 -0.0100859 0 0.00133327 0 0)
(0.194603 -0.0117999 0 0.00117215 0 0)
(0.162116 -0.00712412 0 0.00136144 0 0)
(0.185024 -0.00592487 0 0.000873753 0 0)
(0.158082 -0.000894885 0 0.00102756 0 0)
(0.193751 0.0056477 0 0.000383735 0 0)
(0.191628 0.0101264 0 0.000861971 0 0)
(0.268613 0.0283697 0 0.00309153 0 0)
(0.334891 0.0311683 0 0.00324717 0 0)
(0.184586 -0.0384752 0 0.00854523 0 0)
(0.0120481 -0.0116939 0 0.0137749 0 0)
(0.0312534 -0.0102177 0 0.00492755 0 0)
(0.0741804 -0.0149653 0 0.00375283 0 0)
(0.112851 -0.0214544 0 0.00492112 0 0)
(0.124944 -0.0233858 0 0.00605342 0 0)
(0.129776 -0.0220546 0 0.00642381 0 0)
(0.110717 -0.0148501 0 0.00501693 0 0)
(0.10857 -0.0117371 0 0.00393339 0 0)
(0.0862968 -0.00586302 0 0.00200955 0 0)
(0.085925 -0.00651781 0 0.00147029 0 0)
(0.0676645 -0.00251851 0 0.00115518 0 0)
(0.0663265 -0.00330676 0 0.00101222 0 0)
(0.0589008 0.00140099 0 0.00110734 0 0)
(0.060935 -1.16029e-05 0 0.00068198 0 0)
(0.0678671 0.00419889 0 0.000803492 0 0)
(0.0750353 0.00288184 0 0.000286143 0 0)
(0.094994 0.00709875 0 0.00060426 0 0)
(0.124848 0.00990683 0 0.00227405 0 0)
(0.170432 0.0111717 0 0.00161886 0 0)
(0.186538 -0.0447814 0 0.0114645 0 0)
(0.0171433 -0.0153292 0 0.0154315 0 0)
(0.0370135 -0.0126064 0 0.0061638 0 0)
(0.0711117 -0.0164989 0 0.00505399 0 0)
(0.0803866 -0.0184045 0 0.00577012 0 0)
(0.0616454 -0.0140881 0 0.00618763 0 0)
(0.0409629 -0.00741472 0 0.00588082 0 0)
(0.0287192 -0.000256474 0 0.00430133 0 0)
(0.0316118 0.00235728 0 0.00305416 0 0)
(0.0472249 0.0047207 0 0.00147405 0 0)
(0.0515536 0.00442497 0 0.00100474 0 0)
(0.0916142 0.00666871 0 0.000761436 0 0)
(0.0864221 0.00629951 0 0.000677141 0 0)
(0.155325 0.0084297 0 0.00071965 0 0)
(0.137118 0.0049525 0 0.000429702 0 0)
(0.218641 0.00651444 0 0.000522661 0 0)
(0.18273 -0.00174221 0 0.000215894 0 0)
(0.246589 0.00297377 0 0.000394241 0 0)
(0.208868 -0.00936489 0 0.00172003 0 0)
(0.228055 -0.00094311 0 0.00109687 0 0)
(0.200101 -0.0549001 0 0.0160138 0 0)
(0.0190755 -0.0171395 0 0.0172757 0 0)
(0.0254597 -0.00877053 0 0.00721833 0 0)
(0.027968 -0.00615821 0 0.00528929 0 0)
(0.0166563 -8.47051e-05 0 0.00492617 0 0)
(0.0240831 0.00808813 0 0.00461597 0 0)
(0.0664928 0.0137093 0 0.00400054 0 0)
(0.138956 0.0150628 0 0.00273246 0 0)
(0.208677 0.0137186 0 0.00178907 0 0)
(0.294841 0.011808 0 0.000825528 0 0)
(0.333631 0.0111321 0 0.000526346 0 0)
(0.439854 0.011413 0 0.000403385 0 0)
(0.445836 0.0110586 0 0.000367009 0 0)
(0.586425 0.0105139 0 0.000387231 0 0)
(0.549375 0.00642322 0 0.000224234 0 0)
(0.697686 0.00480759 0 0.000284267 0 0)
(0.606853 -0.00624529 0 0.000148026 0 0)
(0.701787 -0.00224749 0 0.000244908 0 0)
(0.586466 -0.0236969 0 0.00121123 0 0)
(0.548474 -0.00556501 0 0.00125274 0 0)
(0.214181 -0.0678532 0 0.0228263 0 0)
(0.00541391 -0.00458932 0 0.0165922 0 0)
(0.0360634 0.0094294 0 0.00586015 0 0)
(0.0795233 0.0147548 0 0.00347631 0 0)
(0.158769 0.0204142 0 0.00276282 0 0)
(0.292211 0.0237393 0 0.00242159 0 0)
(0.456114 0.0231941 0 0.00199419 0 0)
(0.620821 0.0190804 0 0.00129163 0 0)
(0.752476 0.0153156 0 0.000794329 0 0)
(0.881413 0.0118698 0 0.000354747 0 0)
(0.947952 0.0111045 0 0.000209664 0 0)
(1.08189 0.0106165 0 0.000170775 0 0)
(1.1017 0.0101308 0 0.00015652 0 0)
(1.26552 0.00843555 0 0.000166648 0 0)
(1.22065 0.0047001 0 9.24255e-05 0 0)
(1.38606 0.00144289 0 0.00012323 0 0)
(1.25173 -0.0084255 0 8.96513e-05 0 0)
(1.34458 -0.00613507 0 0.000131748 0 0)
(1.16277 -0.0290378 0 0.000786437 0 0)
(1.05197 0.00103317 0 0.00128998 0 0)
(0.162643 -0.0614895 0 0.0254019 0 0)