/*--------------------------------*- C++ -*----------------------------------*\
| =========                 |                                                 |
| \\      /  F ield         | OpenFOAM: The Open Source CFD Toolbox           |
|  \\    /   O peration     | Version:  2.4.0                                 |
|   \\  /    A nd           | Web:      www.OpenFOAM.org                      |
|    \\/     M anipulation  |                                                 |
\*---------------------------------------------------------------------------*/
FoamFile
{
    version     2.0;
    format      ascii;
    class       volScalarField;
    location    "0.282";
    object      pPrime2Mean;
}
// * * * * * * * * * * * * * * * * * * * * * * * * * * * * * * * * * * * * * //

dimensions      [0 4 -4 0 0 0 0];

internalField   nonuniform List<scalar> 
17600
(
2.29181e+06
2.23402e+06
2.17189e+06
2.11031e+06
2.04961e+06
1.98979e+06
1.93086e+06
1.87281e+06
1.81564e+06
1.75935e+06
1.70394e+06
1.64939e+06
1.5957e+06
1.54282e+06
1.49072e+06
1.43928e+06
1.38831e+06
1.3374e+06
1.28564e+06
1.22994e+06
2.29186e+06
2.23402e+06
2.17189e+06
2.11031e+06
2.04961e+06
1.98979e+06
1.93086e+06
1.87281e+06
1.81564e+06
1.75935e+06
1.70394e+06
1.64939e+06
1.5957e+06
1.54283e+06
1.49072e+06
1.43929e+06
1.38832e+06
1.33743e+06
1.28572e+06
1.23009e+06
2.2919e+06
2.23401e+06
2.17188e+06
2.11031e+06
2.04961e+06
1.98979e+06
1.93086e+06
1.87281e+06
1.81564e+06
1.75935e+06
1.70394e+06
1.6494e+06
1.5957e+06
1.54283e+06
1.49073e+06
1.4393e+06
1.38835e+06
1.33749e+06
1.28585e+06
1.23066e+06
2.29192e+06
2.23401e+06
2.17188e+06
2.11031e+06
2.0496e+06
1.98979e+06
1.93086e+06
1.87281e+06
1.81564e+06
1.75935e+06
1.70394e+06
1.6494e+06
1.5957e+06
1.54284e+06
1.49074e+06
1.43932e+06
1.38839e+06
1.33758e+06
1.28605e+06
1.23146e+06
2.29194e+06
2.234e+06
2.17187e+06
2.1103e+06
2.0496e+06
1.98979e+06
1.93086e+06
1.87281e+06
1.81564e+06
1.75935e+06
1.70394e+06
1.6494e+06
1.59571e+06
1.54284e+06
1.49076e+06
1.43935e+06
1.38844e+06
1.33769e+06
1.28632e+06
1.23242e+06
2.29196e+06
2.23399e+06
2.17186e+06
2.1103e+06
2.0496e+06
1.98979e+06
1.93086e+06
1.87281e+06
1.81564e+06
1.75936e+06
1.70394e+06
1.6494e+06
1.59571e+06
1.54285e+06
1.49077e+06
1.43938e+06
1.38851e+06
1.33783e+06
1.28664e+06
1.23346e+06
2.29198e+06
2.23398e+06
2.17186e+06
2.1103e+06
2.0496e+06
1.98979e+06
1.93086e+06
1.87281e+06
1.81564e+06
1.75936e+06
1.70395e+06
1.6494e+06
1.59572e+06
1.54286e+06
1.49079e+06
1.43942e+06
1.38859e+06
1.33799e+06
1.28702e+06
1.23456e+06
2.292e+06
2.23398e+06
2.17185e+06
2.1103e+06
2.0496e+06
1.98979e+06
1.93086e+06
1.87281e+06
1.81564e+06
1.75936e+06
1.70395e+06
1.64941e+06
1.59573e+06
1.54288e+06
1.49082e+06
1.43947e+06
1.38868e+06
1.33817e+06
1.28743e+06
1.23567e+06
2.29201e+06
2.23397e+06
2.17184e+06
2.1103e+06
2.0496e+06
1.98979e+06
1.93086e+06
1.87281e+06
1.81564e+06
1.75936e+06
1.70395e+06
1.64941e+06
1.59573e+06
1.54289e+06
1.49084e+06
1.43952e+06
1.38878e+06
1.33837e+06
1.28787e+06
1.23679e+06
2.29203e+06
2.23397e+06
2.17184e+06
2.11029e+06
2.0496e+06
1.98979e+06
1.93086e+06
1.87281e+06
1.81564e+06
1.75936e+06
1.70395e+06
1.64942e+06
1.59574e+06
1.54291e+06
1.49087e+06
1.43957e+06
1.38888e+06
1.33859e+06
1.28834e+06
1.2379e+06
2.29204e+06
2.23397e+06
2.17183e+06
2.11029e+06
2.0496e+06
1.98979e+06
1.93086e+06
1.87281e+06
1.81564e+06
1.75936e+06
1.70395e+06
1.64942e+06
1.59575e+06
1.54292e+06
1.49091e+06
1.43963e+06
1.389e+06
1.33882e+06
1.28882e+06
1.23898e+06
2.29205e+06
2.23396e+06
2.17182e+06
2.11029e+06
2.0496e+06
1.98979e+06
1.93086e+06
1.87281e+06
1.81564e+06
1.75936e+06
1.70396e+06
1.64943e+06
1.59576e+06
1.54294e+06
1.49094e+06
1.4397e+06
1.38912e+06
1.33906e+06
1.28932e+06
1.24004e+06
2.29206e+06
2.23396e+06
2.17182e+06
2.11029e+06
2.0496e+06
1.98979e+06
1.93086e+06
1.87281e+06
1.81564e+06
1.75936e+06
1.70396e+06
1.64943e+06
1.59577e+06
1.54296e+06
1.49098e+06
1.43977e+06
1.38925e+06
1.33931e+06
1.28983e+06
1.24107e+06
2.29207e+06
2.23396e+06
2.17182e+06
2.11028e+06
2.0496e+06
1.98979e+06
1.93086e+06
1.87281e+06
1.81564e+06
1.75936e+06
1.70396e+06
1.64944e+06
1.59578e+06
1.54298e+06
1.49101e+06
1.43984e+06
1.38939e+06
1.33957e+06
1.29034e+06
1.24207e+06
2.29208e+06
2.23396e+06
2.17181e+06
2.11028e+06
2.0496e+06
1.98979e+06
1.93086e+06
1.87281e+06
1.81564e+06
1.75937e+06
1.70397e+06
1.64945e+06
1.59579e+06
1.543e+06
1.49105e+06
1.43991e+06
1.38952e+06
1.33983e+06
1.29085e+06
1.24303e+06
2.29208e+06
2.23396e+06
2.17181e+06
2.11028e+06
2.0496e+06
1.98979e+06
1.93086e+06
1.87281e+06
1.81565e+06
1.75937e+06
1.70397e+06
1.64945e+06
1.59581e+06
1.54303e+06
1.4911e+06
1.43999e+06
1.38967e+06
1.3401e+06
1.29135e+06
1.24395e+06
2.29209e+06
2.23396e+06
2.17181e+06
2.11028e+06
2.0496e+06
1.98979e+06
1.93086e+06
1.87281e+06
1.81565e+06
1.75937e+06
1.70397e+06
1.64946e+06
1.59582e+06
1.54305e+06
1.49114e+06
1.44006e+06
1.38981e+06
1.34037e+06
1.29185e+06
1.24483e+06
2.29209e+06
2.23396e+06
2.17181e+06
2.11028e+06
2.0496e+06
1.98979e+06
1.93086e+06
1.87281e+06
1.81565e+06
1.75937e+06
1.70398e+06
1.64947e+06
1.59583e+06
1.54307e+06
1.49118e+06
1.44014e+06
1.38995e+06
1.34064e+06
1.29234e+06
1.24567e+06
2.29209e+06
2.23396e+06
2.17181e+06
2.11028e+06
2.0496e+06
1.98979e+06
1.93086e+06
1.87281e+06
1.81565e+06
1.75937e+06
1.70398e+06
1.64947e+06
1.59585e+06
1.5431e+06
1.49122e+06
1.44022e+06
1.3901e+06
1.3409e+06
1.29282e+06
1.24647e+06
2.29209e+06
2.23396e+06
2.1718e+06
2.11028e+06
2.0496e+06
1.98979e+06
1.93086e+06
1.87281e+06
1.81565e+06
1.75937e+06
1.70399e+06
1.64948e+06
1.59586e+06
1.54312e+06
1.49127e+06
1.4403e+06
1.39025e+06
1.34116e+06
1.29328e+06
1.24723e+06
2.29209e+06
2.23396e+06
2.1718e+06
2.11028e+06
2.0496e+06
1.98979e+06
1.93086e+06
1.87281e+06
1.81565e+06
1.75938e+06
1.70399e+06
1.64949e+06
1.59587e+06
1.54314e+06
1.49131e+06
1.44038e+06
1.39039e+06
1.34142e+06
1.29373e+06
1.24795e+06
2.29209e+06
2.23396e+06
2.17181e+06
2.11028e+06
2.0496e+06
1.98979e+06
1.93086e+06
1.87281e+06
1.81565e+06
1.75938e+06
1.70399e+06
1.64949e+06
1.59588e+06
1.54317e+06
1.49135e+06
1.44046e+06
1.39053e+06
1.34167e+06
1.29416e+06
1.24863e+06
2.29209e+06
2.23396e+06
2.17181e+06
2.11028e+06
2.0496e+06
1.98979e+06
1.93086e+06
1.87281e+06
1.81565e+06
1.75938e+06
1.704e+06
1.6495e+06
1.5959e+06
1.54319e+06
1.4914e+06
1.44054e+06
1.39067e+06
1.34192e+06
1.29457e+06
1.24928e+06
2.29209e+06
2.23396e+06
2.17181e+06
2.11028e+06
2.0496e+06
1.98979e+06
1.93086e+06
1.87281e+06
1.81565e+06
1.75938e+06
1.704e+06
1.64951e+06
1.59591e+06
1.54321e+06
1.49144e+06
1.44061e+06
1.3908e+06
1.34215e+06
1.29497e+06
1.24988e+06
2.29208e+06
2.23396e+06
2.17181e+06
2.11028e+06
2.0496e+06
1.98979e+06
1.93086e+06
1.87281e+06
1.81566e+06
1.75939e+06
1.704e+06
1.64951e+06
1.59592e+06
1.54324e+06
1.49148e+06
1.44068e+06
1.39093e+06
1.34238e+06
1.29534e+06
1.25045e+06
2.29208e+06
2.23396e+06
2.17181e+06
2.11028e+06
2.0496e+06
1.98979e+06
1.93086e+06
1.87281e+06
1.81566e+06
1.75939e+06
1.70401e+06
1.64952e+06
1.59593e+06
1.54326e+06
1.49152e+06
1.44076e+06
1.39106e+06
1.34259e+06
1.29569e+06
1.25097e+06
2.29207e+06
2.23396e+06
2.17182e+06
2.11029e+06
2.0496e+06
1.98979e+06
1.93086e+06
1.87282e+06
1.81566e+06
1.75939e+06
1.70401e+06
1.64953e+06
1.59595e+06
1.54328e+06
1.49155e+06
1.44082e+06
1.39118e+06
1.3428e+06
1.29603e+06
1.25146e+06
2.29206e+06
2.23396e+06
2.17182e+06
2.11029e+06
2.0496e+06
1.98979e+06
1.93086e+06
1.87282e+06
1.81566e+06
1.75939e+06
1.70402e+06
1.64953e+06
1.59596e+06
1.5433e+06
1.49159e+06
1.44089e+06
1.39129e+06
1.34299e+06
1.29634e+06
1.25192e+06
2.29205e+06
2.23396e+06
2.17183e+06
2.11029e+06
2.0496e+06
1.98979e+06
1.93086e+06
1.87282e+06
1.81566e+06
1.75939e+06
1.70402e+06
1.64954e+06
1.59597e+06
1.54332e+06
1.49162e+06
1.44095e+06
1.39139e+06
1.34317e+06
1.29662e+06
1.25233e+06
2.29204e+06
2.23397e+06
2.17183e+06
2.11029e+06
2.0496e+06
1.98979e+06
1.93086e+06
1.87282e+06
1.81566e+06
1.7594e+06
1.70402e+06
1.64954e+06
1.59598e+06
1.54334e+06
1.49166e+06
1.441e+06
1.39149e+06
1.34333e+06
1.29689e+06
1.25272e+06
2.29203e+06
2.23397e+06
2.17184e+06
2.1103e+06
2.0496e+06
1.98979e+06
1.93086e+06
1.87282e+06
1.81566e+06
1.7594e+06
1.70402e+06
1.64955e+06
1.59599e+06
1.54335e+06
1.49169e+06
1.44106e+06
1.39158e+06
1.34349e+06
1.29713e+06
1.25306e+06
2.29202e+06
2.23397e+06
2.17184e+06
2.1103e+06
2.0496e+06
1.98979e+06
1.93086e+06
1.87282e+06
1.81567e+06
1.7594e+06
1.70403e+06
1.64955e+06
1.59599e+06
1.54337e+06
1.49171e+06
1.4411e+06
1.39167e+06
1.34362e+06
1.29735e+06
1.25337e+06
2.292e+06
2.23398e+06
2.17185e+06
2.1103e+06
2.0496e+06
1.98979e+06
1.93086e+06
1.87282e+06
1.81567e+06
1.7594e+06
1.70403e+06
1.64956e+06
1.596e+06
1.54338e+06
1.49174e+06
1.44115e+06
1.39174e+06
1.34375e+06
1.29754e+06
1.25365e+06
2.29198e+06
2.23398e+06
2.17186e+06
2.1103e+06
2.0496e+06
1.98979e+06
1.93087e+06
1.87282e+06
1.81567e+06
1.7594e+06
1.70403e+06
1.64956e+06
1.59601e+06
1.54339e+06
1.49176e+06
1.44118e+06
1.39181e+06
1.34386e+06
1.29771e+06
1.25389e+06
2.29196e+06
2.23399e+06
2.17186e+06
2.1103e+06
2.04961e+06
1.98979e+06
1.93087e+06
1.87282e+06
1.81567e+06
1.7594e+06
1.70403e+06
1.64957e+06
1.59601e+06
1.5434e+06
1.49178e+06
1.44122e+06
1.39186e+06
1.34395e+06
1.29785e+06
1.25409e+06
2.29194e+06
2.234e+06
2.17187e+06
2.11031e+06
2.04961e+06
1.98979e+06
1.93087e+06
1.87282e+06
1.81567e+06
1.75941e+06
1.70404e+06
1.64957e+06
1.59602e+06
1.54341e+06
1.49179e+06
1.44125e+06
1.39191e+06
1.34403e+06
1.29798e+06
1.25426e+06
2.29192e+06
2.23401e+06
2.17188e+06
2.11031e+06
2.04961e+06
1.9898e+06
1.93087e+06
1.87283e+06
1.81567e+06
1.75941e+06
1.70404e+06
1.64957e+06
1.59602e+06
1.54342e+06
1.49181e+06
1.44127e+06
1.39195e+06
1.34409e+06
1.29807e+06
1.2544e+06
2.2919e+06
2.23402e+06
2.17188e+06
2.11031e+06
2.04961e+06
1.9898e+06
1.93087e+06
1.87283e+06
1.81567e+06
1.75941e+06
1.70404e+06
1.64957e+06
1.59603e+06
1.54342e+06
1.49182e+06
1.44129e+06
1.39198e+06
1.34414e+06
1.29815e+06
1.2545e+06
2.29186e+06
2.23402e+06
2.17189e+06
2.11031e+06
2.04961e+06
1.9898e+06
1.93087e+06
1.87283e+06
1.81567e+06
1.75941e+06
1.70404e+06
1.64957e+06
1.59603e+06
1.54343e+06
1.49182e+06
1.4413e+06
1.392e+06
1.34417e+06
1.2982e+06
1.25457e+06
2.29181e+06
2.23402e+06
2.17189e+06
2.11031e+06
2.04961e+06
1.9898e+06
1.93087e+06
1.87283e+06
1.81567e+06
1.75941e+06
1.70404e+06
1.64957e+06
1.59603e+06
1.54343e+06
1.49182e+06
1.4413e+06
1.39201e+06
1.34419e+06
1.29822e+06
1.2546e+06
1.17718e+06
1.16456e+06
1.15479e+06
1.14623e+06
1.13823e+06
1.13059e+06
1.12322e+06
1.11604e+06
1.10901e+06
1.10211e+06
1.09531e+06
1.08858e+06
1.0819e+06
1.07527e+06
1.06866e+06
1.06209e+06
1.05553e+06
1.049e+06
1.04248e+06
1.03598e+06
1.0295e+06
1.02302e+06
1.01656e+06
1.01011e+06
1.00366e+06
997224
990806
984413
978047
971709
965398
959116
952862
946635
940437
934266
928123
922006
915916
909851
903811
897795
891805
885837
879893
873973
868078
862211
856370
850554
844765
838998
833256
827538
821843
816172
810524
804897
799292
793707
788141
782592
777061
771545
766045
760558
755085
749626
744181
738753
733341
727947
722572
717219
711887
706576
701286
696015
690764
685533
680321
675126
669949
664792
659656
654540
649442
644361
639295
634246
629212
624195
619195
614212
609248
604303
599378
594473
589588
584724
579881
575060
570259
565477
560714
555971
551247
546543
541859
537195
532552
527930
523329
518750
514195
509662
505156
500675
496219
491787
487379
482996
478636
474298
469979
465680
461399
457137
452892
448662
444448
440249
436066
431898
427747
423613
419497
415400
411323
407266
403230
399214
395220
391247
387296
383367
379459
375572
371707
367864
364043
360243
356465
352710
348976
345265
341573
337906
334256
330629
327021
323433
319862
316310
312773
309253
305747
302257
298782
295324
291881
288458
285050
281665
278296
274952
271621
268321
265028
261774
258517
255307
252081
248908
245715
242570
239408
236280
233135
230008
226862
223713
220534
217327
214066
210735
207303
203721
199859
195582
1.18317e+06
1.16942e+06
1.15861e+06
1.14936e+06
1.14088e+06
1.13287e+06
1.1252e+06
1.11778e+06
1.11056e+06
1.10348e+06
1.09652e+06
1.08965e+06
1.08286e+06
1.07612e+06
1.06942e+06
1.06276e+06
1.05613e+06
1.04953e+06
1.04295e+06
1.0364e+06
1.02987e+06
1.02335e+06
1.01685e+06
1.01037e+06
1.0039e+06
997439
991003
984593
978211
971857
965532
959235
952967
946729
940519
934338
928186
922062
915965
909895
903851
897832
891840
885872
879928
874008
868114
862247
856405
850589
844799
839032
833289
827569
821873
816201
810552
804925
799320
793736
788171
782624
777094
771580
766080
760594
755121
749661
744217
738788
733375
727981
722606
717252
711920
706609
701318
696047
690795
685563
680348
675151
669972
664814
659676
654559
649461
644379
639313
634264
629232
624215
619215
614233
609269
604323
599397
594491
589605
584740
579896
575074
570272
565489
560725
555980
551256
546551
541867
537204
532561
527939
523339
518760
514204
509672
505164
500682
496225
491791
487382
482997
478635
474295
469976
465675
461393
457130
452884
448655
444442
440243
436060
431893
427742
423608
419493
415396
411319
407262
403226
399211
395216
391243
387291
383361
379453
375567
371702
367858
364037
360236
356458
352701
348965
345252
341558
337887
334235
330604
326992
323400
319825
316267
312725
309198
305685
302188
298706
295240
291788
288356
284937
281541
278159
274802
271455
268140
264826
261553
258273
255039
251788
248583
245361
242177
238978
235803
232612
229427
226220
222999
219741
216439
213066
209596
205988
202151
197936
192926
1.1879e+06
1.17368e+06
1.16221e+06
1.15237e+06
1.14346e+06
1.13511e+06
1.12716e+06
1.11951e+06
1.11208e+06
1.10483e+06
1.09772e+06
1.09072e+06
1.08381e+06
1.07696e+06
1.07017e+06
1.06343e+06
1.05673e+06
1.05006e+06
1.04342e+06
1.03682e+06
1.03023e+06
1.02368e+06
1.01714e+06
1.01062e+06
1.00413e+06
997651
991198
984770
978372
972004
965664
959354
953074
946824
940603
934413
928253
922122
916019
909944
903896
897875
891880
885912
879968
874049
868155
862287
856445
850628
844836
839067
833323
827601
821904
816230
810580
804953
799348
793764
788200
782654
777125
771611
766112
760625
755152
749692
744247
738817
733403
728008
722633
717278
711946
706635
701343
696071
690819
685584
680368
675169
669989
664829
659690
654571
649472
644389
639324
634276
629245
624229
619230
614248
609284
604338
599412
594504
589618
584751
579907
575083
570280
565496
560731
555986
551261
546557
541872
537209
532567
527946
523345
518767
514211
509679
505171
500688
496229
491795
487384
482997
478633
474292
469971
465669
461386
457122
452876
448646
444433
440234
436051
431884
427734
423600
419485
415389
411313
407256
403220
399204
395210
391236
387284
383354
379446
375559
371694
367850
364029
360228
356449
352691
348953
345238
341541
337868
334211
330578
326962
323366
319786
316223
312675
309142
305622
302118
298628
295155
291694
288252
284823
281417
278020
274652
271288
267957
264625
261332
258030
254771
251496
248260
245008
241787
238551
235330
232093
228852
225586
222296
218961
215568
212090
208490
204727
200673
196195
190813
1.19178e+06
1.17746e+06
1.16556e+06
1.15526e+06
1.14596e+06
1.1373e+06
1.12909e+06
1.12121e+06
1.11359e+06
1.10617e+06
1.09891e+06
1.09178e+06
1.08475e+06
1.0778e+06
1.07092e+06
1.06409e+06
1.05732e+06
1.05058e+06
1.04389e+06
1.03723e+06
1.0306e+06
1.024e+06
1.01742e+06
1.01088e+06
1.00436e+06
997860
991389
984945
978532
972149
965796
959474
953182
946921
940691
934492
928324
922186
916079
909999
903948
897924
891928
885958
880014
874094
868200
862332
856488
850669
844875
839104
833358
827634
821935
816259
810608
804980
799375
793792
788228
782682
777154
771640
766140
760652
755178
749718
744271
738840
733425
728029
722653
717298
711965
706653
701361
696088
690835
685599
680380
675179
669997
664836
659695
654576
649475
644393
639328
634282
629251
624237
619239
614258
609294
604348
599421
594513
589626
584758
579913
575088
570284
565499
560733
555988
551263
546558
541874
537211
532569
527948
523349
518771
514216
509684
505176
500692
496232
491796
487384
482995
478630
474287
469964
465662
461378
457112
452865
448635
444421
440223
436040
431873
427723
423590
419475
415380
411303
407247
403210
399195
395200
391226
387274
383344
379436
375549
371684
367840
364019
360217
356438
352678
348940
345222
341523
337846
334187
330551
326931
323330
319745
316178
312624
309085
305559
302048
298550
295069
291599
288149
284708
281292
277882
274500
271121
267774
264424
261110
257788
254503
251206
247938
244658
241399
238128
234862
231580
228284
224962
221604
218197
214716
211142
207422
203526
199296
194630
189132
1.19508e+06
1.18082e+06
1.16866e+06
1.158e+06
1.14837e+06
1.13942e+06
1.13096e+06
1.12287e+06
1.11506e+06
1.10748e+06
1.10008e+06
1.09282e+06
1.08568e+06
1.07862e+06
1.07165e+06
1.06474e+06
1.05789e+06
1.05109e+06
1.04434e+06
1.03763e+06
1.03095e+06
1.02431e+06
1.0177e+06
1.01113e+06
1.00458e+06
998066
991577
985118
978690
972293
965928
959595
953293
947022
940783
934575
928400
922257
916144
910061
904007
897980
891981
886011
880066
874145
868250
862380
856534
850713
844915
839142
833393
827668
821966
816289
810636
805007
799401
793818
788254
782709
777179
771665
766164
760675
755200
749738
744290
738857
733441
728043
722666
717310
711976
706664
701371
696097
690843
685605
680385
675182
669999
664835
659694
654573
649472
644389
639326
634280
629252
624239
619242
614262
609298
604353
599426
594517
589628
584760
579913
575088
570282
565496
560731
555986
551261
546557
541872
537209
532568
527948
523349
518771
514217
509685
505177
500693
496233
491796
487382
482992
478625
474280
469956
465652
461367
457101
452853
448622
444408
440209
436027
431860
427710
423577
419463
415367
411291
407235
403198
399183
395188
391214
387262
383331
379423
375537
371672
367828
364006
360204
356425
352664
348925
345204
341503
337823
334160
330521
326898
323293
319704
316131
312572
309027
305495
301977
298472
294983
291505
288045
284594
281166
277744
274348
270954
267590
264223
260889
257548
254236
250917
247619
244311
241014
237708
234398
231074
227725
224350
220925
217450
213887
210227
206397
202387
198024
193239
187746
1.19795e+06
1.18382e+06
1.17151e+06
1.16059e+06
1.15068e+06
1.14147e+06
1.13279e+06
1.12449e+06
1.11651e+06
1.10877e+06
1.10122e+06
1.09384e+06
1.08658e+06
1.07943e+06
1.07237e+06
1.06538e+06
1.05846e+06
1.0516e+06
1.04479e+06
1.03802e+06
1.0313e+06
1.02463e+06
1.01798e+06
1.01138e+06
1.00481e+06
998270
991764
985290
978848
972438
966061
959717
953405
947125
940878
934664
928482
922333
916216
910130
904073
898043
892042
886070
880123
874202
868304
862432
856584
850759
844958
839181
833429
827701
821997
816317
810662
805032
799425
793841
788278
782732
777202
771686
766183
760693
755217
749753
744303
738868
733449
728050
722672
717315
711981
706667
701374
696099
690843
685604
680382
675178
669992
664827
659685
654563
649461
644379
639317
634273
629246
624235
619239
614260
609297
604353
599425
594515
589626
584756
579908
575081
570275
565489
560724
555979
551255
546551
541867
537204
532563
527943
523345
518768
514214
509683
505176
500691
496231
491793
487378
482986
478617
474271
469945
465640
461354
457087
452838
448606
444392
440192
436010
431843
427694
423562
419448
415353
411277
407220
403184
399168
395173
391199
387247
383317
379408
375522
371657
367813
363991
360189
356409
352647
348907
345185
341481
337798
334132
330490
326862
323254
319660
316084
312520
308970
305430
301906
298394
294898
291410
287941
284480
281040
277605
274195
270787
267407
264024
260668
257308
253972
250629
247301
243966
240633
237293
233940
230574
227173
223749
220260
216723
213081
209344
205417
201312
196855
192003
186569
1.20047e+06
1.18652e+06
1.17414e+06
1.16302e+06
1.15288e+06
1.14345e+06
1.13455e+06
1.12607e+06
1.11792e+06
1.11002e+06
1.10234e+06
1.09484e+06
1.08747e+06
1.08023e+06
1.07308e+06
1.06601e+06
1.05902e+06
1.05209e+06
1.04523e+06
1.03842e+06
1.03165e+06
1.02494e+06
1.01826e+06
1.01163e+06
1.00503e+06
998473
991950
985461
979005
972583
966195
959841
953520
947232
940978
934757
928571
922417
916296
910206
904146
898114
892110
886135
880186
874262
868362
862486
856635
850806
845001
839221
833465
827733
822027
816345
810688
805055
799447
793863
788298
782752
777221
771704
766199
760707
755228
749762
744309
738872
733451
728050
722670
717313
711978
706664
701369
696094
690837
685596
680372
675166
669979
664812
659668
654546
649444
644363
639302
634259
629234
624224
619229
614252
609290
604346
599418
594508
589617
584747
579898
575070
570264
565478
560713
555969
551245
546542
541858
537196
532554
527934
523337
518760
514207
509677
505170
500685
496225
491786
487371
482978
478607
474259
469932
465625
461339
457070
452820
448587
444373
440173
435991
431825
427676
423544
419431
415336
411260
407203
403167
399151
395156
391181
387229
383299
379391
375504
371639
367795
363973
360170
356390
352628
348887
345162
341456
337770
334102
330457
326824
323214
319616
316037
312467
308912
305366
301836
298316
294812
291316
287838
284366
280914
277468
274043
270621
267224
263825
260449
257070
253708
250344
246986
243624
240256
236884
233487
230082
226631
223160
219611
216017
212299
208495
204484
200300
195780
190901
185547
1.20273e+06
1.18897e+06
1.17656e+06
1.1653e+06
1.15498e+06
1.14535e+06
1.13627e+06
1.12761e+06
1.11929e+06
1.11125e+06
1.10344e+06
1.09582e+06
1.08835e+06
1.08101e+06
1.07377e+06
1.06663e+06
1.05957e+06
1.05259e+06
1.04567e+06
1.0388e+06
1.032e+06
1.02525e+06
1.01854e+06
1.01188e+06
1.00526e+06
998677
992136
985632
979163
972729
966330
959966
953637
947343
941083
934857
928666
922508
916382
910289
904226
898192
892185
886206
880254
874326
868422
862543
856687
850854
845045
839260
833500
827765
822055
816370
810711
805076
799467
793881
788315
782768
777235
771716
766209
760715
755235
749765
744310
738870
733447
728044
722663
717304
711968
706653
701358
696082
690824
685581
680355
675147
669958
664790
659645
654522
649421
644340
639280
634239
629215
624206
619213
614238
609278
604334
599406
594494
589603
584732
579882
575054
570247
565462
560698
555955
551232
546529
541845
537183
532542
527922
523324
518749
514196
509666
505159
500675
496215
491776
487360
482966
478594
474244
469916
465607
461320
457050
452800
448566
444351
440151
435970
431803
427656
423525
419412
415317
411242
407184
403147
399131
395136
391161
387210
383279
379371
375484
371619
367775
363952
360149
356369
352605
348863
345136
341429
337740
334069
330420
326784
323171
319572
315989
312414
308854
305302
301766
298240
294728
291223
287734
284253
280789
277330
273892
270457
267042
263628
260231
256834
253447
250061
246674
243285
239883
236480
233042
229601
226099
222584
218977
215331
211545
207679
203599
199347
194791
189914
184642
1.20476e+06
1.19119e+06
1.1788e+06
1.16745e+06
1.15697e+06
1.14717e+06
1.13792e+06
1.1291e+06
1.12063e+06
1.11246e+06
1.10452e+06
1.09678e+06
1.08921e+06
1.08177e+06
1.07446e+06
1.06724e+06
1.06012e+06
1.05307e+06
1.0461e+06
1.03919e+06
1.03235e+06
1.02556e+06
1.01882e+06
1.01213e+06
1.00548e+06
998881
992321
985802
979321
972876
966467
960094
953758
947458
941193
934962
928767
922605
916476
910379
904314
898276
892265
886282
880326
874394
868485
862600
856740
850902
845088
839299
833534
827795
822082
816393
810731
805094
799482
793894
788327
782778
777244
771723
766215
760718
755235
749763
744304
738861
733436
728031
722648
717289
711952
706636
701341
696064
690804
685559
680331
675121
669930
664761
659615
654492
649391
644311
639253
634213
629190
624182
619191
614217
609259
604316
599387
594475
589584
584712
579862
575034
570227
565442
560679
555937
551215
546511
541829
537166
532525
527905
523308
518732
514180
509650
505144
500661
496200
491761
487345
482950
478577
474225
469896
465586
461299
457028
452777
448542
444326
440127
435946
431780
427633
423502
419391
415295
411220
407162
403126
399108
395114
391139
387188
383257
379349
375462
371597
367752
363929
360125
356344
352580
348837
345107
341398
337706
334032
330380
326741
323127
319526
315939
312361
308795
305238
301697
298164
294644
291131
287632
284141
280664
277194
273741
270293
266861
263432
260015
256600
253189
249781
246365
242952
239515
236082
232604
229127
225579
222022
218360
214665
210820
206897
202762
198455
193881
189022
183826
1.20662e+06
1.19323e+06
1.18087e+06
1.16945e+06
1.15885e+06
1.14891e+06
1.1395e+06
1.13054e+06
1.12193e+06
1.11363e+06
1.10557e+06
1.09773e+06
1.09005e+06
1.08253e+06
1.07514e+06
1.06785e+06
1.06066e+06
1.05356e+06
1.04653e+06
1.03958e+06
1.03269e+06
1.02587e+06
1.01909e+06
1.01238e+06
1.00571e+06
999085
992508
985973
979479
973024
966606
960226
953883
947578
941309
935074
928874
922708
916576
910476
904407
898365
892350
886362
880401
874463
868548
862658
856793
850950
845130
839336
833567
827824
822106
816413
810747
805107
799493
793904
788334
782784
777248
771725
766214
760716
755230
749754
744293
738847
733419
728013
722628
717267
711930
706614
701318
696040
690778
685532
680302
675089
669896
664726
659579
654456
649356
644277
639220
634181
629159
624153
619163
614191
609234
604292
599363
594451
589559
584688
579838
575010
570204
565419
560657
555915
551193
546490
541808
537145
532504
527884
523287
518712
514160
509631
505125
500642
496181
491742
487326
482930
478556
474204
469874
465563
461274
457002
452751
448515
444300
440100
435919
431754
427608
423478
419367
415272
411196
407138
403101
399084
395089
391114
387163
383233
379325
375437
371572
367727
363904
360099
356317
352551
348807
345075
341365
337669
333992
330337
326696
323081
319479
315889
312306
308735
305173
301626
298088
294559
291039
287530
284030
280541
277060
273592
270131
266682
263239
259801
256369
252933
249505
246060
242623
239153
235690
232174
228662
225072
221473
217764
214021
210126
206148
201973
197626
193042
188206
183079
1.20834e+06
1.19511e+06
1.18279e+06
1.17133e+06
1.16063e+06
1.15057e+06
1.14103e+06
1.13193e+06
1.1232e+06
1.11477e+06
1.1066e+06
1.09865e+06
1.09088e+06
1.08328e+06
1.0758e+06
1.06845e+06
1.0612e+06
1.05404e+06
1.04696e+06
1.03996e+06
1.03304e+06
1.02617e+06
1.01937e+06
1.01263e+06
1.00593e+06
999290
992695
986145
979639
973173
966747
960361
954012
947702
941429
935190
928987
922817
916681
910577
904504
898458
892439
886445
880477
874533
868612
862716
856845
850996
845171
839372
833598
827850
822127
816430
810760
805117
799500
793908
788336
782784
777245
771719
766207
760707
755218
749740
744275
738827
733397
727988
722602
717240
711902
706586
701290
696011
690748
685500
680267
675052
669857
664686
659539
654415
649316
644238
639181
634144
629123
624117
619129
614158
609203
604262
599333
594421
589530
584659
579810
574983
570177
565393
560631
555890
551168
546465
541783
537120
532479
527859
523262
518687
514136
509607
505102
500619
496159
491719
487302
482906
478532
474179
469848
465537
461247
456975
452723
448487
444271
440071
435891
431727
427581
423451
419341
415246
411170
407111
403075
399057
395062
391087
387137
383206
379299
375411
371546
367699
363876
360071
356288
352520
348774
345039
341328
337629
333948
330291
326649
323033
319430
315836
312249
308674
305107
301555
298011
294474
290948
287428
283920
280418
276926
273444
269970
266504
263047
259589
256141
252681
249232
245760
242299
238797
235305
231755
228208
224580
220939
217190
213397
209464
205435
201229
196857
192268
187456
182391
1.20993e+06
1.19684e+06
1.18458e+06
1.17309e+06
1.16231e+06
1.15214e+06
1.14249e+06
1.13327e+06
1.12442e+06
1.11588e+06
1.1076e+06
1.09955e+06
1.0917e+06
1.08401e+06
1.07646e+06
1.06904e+06
1.06173e+06
1.05451e+06
1.04739e+06
1.04035e+06
1.03338e+06
1.02648e+06
1.01965e+06
1.01287e+06
1.00616e+06
999495
992882
986318
979799
973324
966891
960498
954145
947831
941554
935312
929104
922931
916791
910683
904604
898554
892528
886528
880553
874603
868675
862773
856895
851040
845210
839405
833626
827873
822145
816443
810768
805121
799501
793906
788332
782777
777236
771708
766193
760691
755200
749719
744252
738801
733369
727959
722571
717208
711870
706554
701257
695977
690713
685463
680228
675011
669814
664642
659494
654371
649272
644194
639139
634102
629082
624077
619090
614121
609166
604226
599298
594387
589497
584628
579780
574953
570147
565364
560602
555861
551140
546437
541754
537092
532451
527830
523234
518659
514108
509580
505075
500592
496132
491692
487275
482879
478505
474151
469820
465508
461218
456945
452692
448456
444240
440041
435861
431697
427552
423422
419312
415218
411142
407083
403047
399029
395034
391059
387108
383178
379270
375382
371517
367670
363846
360040
356256
352486
348738
345000
341288
337585
333902
330243
326600
322984
319380
315782
312190
308611
305040
301483
297932
294388
290856
287326
283809
280296
276793
273296
269811
266327
262857
259379
255915
252432
248964
245466
241980
238450
234929
231348
227765
224106
220420
216639
212799
208833
204765
200532
196140
191549
186762
181752
1.21141e+06
1.19845e+06
1.18624e+06
1.17474e+06
1.1639e+06
1.15364e+06
1.14388e+06
1.13455e+06
1.12559e+06
1.11695e+06
1.10857e+06
1.10043e+06
1.09249e+06
1.08472e+06
1.0771e+06
1.06962e+06
1.06225e+06
1.05498e+06
1.04781e+06
1.04072e+06
1.03372e+06
1.02679e+06
1.01992e+06
1.01312e+06
1.00638e+06
999699
993070
986491
979961
973477
967037
960639
954281
947963
941682
935436
929225
923048
916904
910790
904706
898649
892618
886610
880629
874671
868736
862827
856943
851081
845246
839435
833651
827892
822159
816452
810773
805121
799498
793900
788322
782764
777219
771689
766173
760669
755175
749691
744223
738770
733336
727924
722534
717171
711833
706517
701220
695940
690674
685422
680186
674967
669768
664594
659446
654323
649224
644147
639093
634056
629037
624033
619046
614078
609125
604186
599260
594350
589462
584593
579746
574920
570115
565331
560570
555829
551108
546405
541722
537060
532418
527798
523202
518628
514077
509549
505045
500563
496103
491663
487246
482849
478475
474121
469789
465477
461186
456913
452661
448425
444209
440010
435830
431666
427522
423392
419282
415188
411113
407054
403017
398999
395004
391028
387078
383147
379240
375352
371486
367639
363814
360008
356222
352451
348700
344960
341245
337539
333854
330192
326550
322934
319327
315726
312130
308547
304971
301409
297853
294302
290763
287225
283698
280174
276659
273149
269651
266152
262667