/*--------------------------------*- C++ -*----------------------------------*\
| =========                 |                                                 |
| \\      /  F ield         | OpenFOAM: The Open Source CFD Toolbox           |
|  \\    /   O peration     | Version:  2.4.0                                 |
|   \\  /    A nd           | Web:      www.OpenFOAM.org                      |
|    \\/     M anipulation  |                                                 |
\*---------------------------------------------------------------------------*/
FoamFile
{
    version     2.0;
    format      ascii;
    class       volVectorField;
    location    "0.282";
    object      U;
}
// * * * * * * * * * * * * * * * * * * * * * * * * * * * * * * * * * * * * * //

dimensions      [0 1 -1 0 0 0 0];

internalField   nonuniform List<vector> 
17600
(
(5.32706 0.309506 0)
(2.98675 0.060564 0)
(2.19476 -0.00151719 0)
(1.84921 -0.00344608 0)
(1.70495 -0.00160131 0)
(1.61288 0.000195381 0)
(1.53335 4.22628e-05 0)
(1.48432 -0.000487014 0)
(1.42969 0.000373608 0)
(1.39973 2.62444e-05 0)
(1.37334 -0.000772612 0)
(1.34437 0.000919108 0)
(1.32813 -0.000468258 0)
(1.29639 0.000112983 0)
(1.29001 1.39814e-05 0)
(1.26505 -0.000943572 0)
(1.25515 0.000133782 0)
(1.28308 -0.00439471 0)
(1.26432 0.000973472 0)
(1.2555 -0.0587244 0)
(8.59571 0.872026 0)
(6.95501 0.383154 0)
(5.80381 0.122175 0)
(5.06243 0.0509979 0)
(4.648 0.0273857 0)
(4.3819 0.0219432 0)
(4.16936 0.015844 0)
(4.03136 0.0115346 0)
(3.87604 0.0113738 0)
(3.79879 0.00727968 0)
(3.71672 0.00487873 0)
(3.62975 0.00817563 0)
(3.59842 0.00436574 0)
(3.49849 0.00537337 0)
(3.48844 0.0049334 0)
(3.405 0.00296125 0)
(3.36465 0.00369846 0)
(3.39398 -0.00787338 0)
(3.24206 0.00414266 0)
(3.55715 -0.19062 0)
(9.85099 1.02223 0)
(9.35584 0.576901 0)
(8.46032 0.242221 0)
(7.65388 0.12998 0)
(7.08566 0.0804728 0)
(6.7006 0.0603995 0)
(6.39214 0.0431843 0)
(6.18901 0.0335248 0)
(5.95449 0.0304336 0)
(5.83789 0.0200467 0)
(5.71495 0.0167462 0)
(5.57022 0.0193899 0)
(5.54076 0.0132937 0)
(5.37299 0.0146067 0)
(5.37055 0.0128205 0)
(5.23961 0.0117804 0)
(5.164 0.00918228 0)
(5.21567 -0.00330537 0)
(4.89888 -0.00677253 0)
(5.47416 -0.224113 0)
(10.1489 0.947642 0)
(10.5872 0.668033 0)
(10.2372 0.332192 0)
(9.66211 0.209552 0)
(9.11063 0.145764 0)
(8.69921 0.111496 0)
(8.34181 0.0800496 0)
(8.10656 0.0637091 0)
(7.82125 0.0565478 0)
(7.67219 0.0373377 0)
(7.53094 0.0344595 0)
(7.32671 0.0339299 0)
(7.3173 0.0258893 0)
(7.08251 0.0275665 0)
(7.09277 0.022567 0)
(6.93469 0.0255726 0)
(6.81164 0.0146116 0)
(6.90511 0.00951905 0)
(6.46374 -0.0188106 0)
(7.08977 -0.273913 0)
(10.0548 0.805123 0)
(10.9497 0.669044 0)
(11.1013 0.359959 0)
(10.9202 0.254857 0)
(10.5674 0.200808 0)
(10.2586 0.16313 0)
(9.93083 0.119886 0)
(9.71437 0.0976288 0)
(9.42745 0.0873937 0)
(9.25546 0.0568791 0)
(9.13367 0.0563323 0)
(8.87312 0.0508007 0)
(8.90163 0.0404448 0)
(8.61417 0.0438712 0)
(8.63123 0.032273 0)
(8.48076 0.0435273 0)
(8.30526 0.0208335 0)
(8.40899 0.021778 0)
(7.99178 -0.0156257 0)
(8.50856 -0.311664 0)
(9.95741 0.690226 0)
(10.9003 0.63541 0)
(11.2702 0.339017 0)
(11.4007 0.249456 0)
(11.3119 0.221266 0)
(11.2167 0.196507 0)
(11.0183 0.150846 0)
(10.8918 0.126813 0)
(10.6795 0.11823 0)
(10.5061 0.0755405 0)
(10.4498 0.0793686 0)
(10.1554 0.0687892 0)
(10.233 0.0546536 0)
(9.92745 0.0631001 0)
(9.93774 0.0399129 0)
(9.83318 0.0634472 0)
(9.6303 0.0301432 0)
(9.66904 0.0310613 0)
(9.38897 -0.0200077 0)
(9.86351 -0.280926 0)
(9.925 0.599437 0)
(10.789 0.601292 0)
(11.1854 0.312049 0)
(11.4218 0.217699 0)
(11.4662 0.20693 0)
(11.554 0.200656 0)
(11.5121 0.160316 0)
(11.5113 0.138462 0)
(11.4585 0.13891 0)
(11.3202 0.0867086 0)
(11.3751 0.0973649 0)
(11.0985 0.0848344 0)
(11.2362 0.0653537 0)
(10.9604 0.0835266 0)
(10.9568 0.0450146 0)
(10.9274 0.0789436 0)
(10.7449 0.0484838 0)
(10.6795 0.0329368 0)
(10.513 -0.0310896 0)
(11.0453 -0.278835 0)
(9.91746 0.520408 0)
(10.6944 0.561175 0)
(11.0889 0.297982 0)
(11.3478 0.189403 0)
(11.3972 0.184447 0)
(11.543 0.187762 0)
(11.5955 0.155376 0)
(11.6349 0.130934 0)
(11.7505 0.144451 0)
(11.6555 0.0842138 0)
(11.8236 0.103758 0)
(11.6138 0.0920442 0)
(11.8299 0.0673884 0)
(11.6265 0.100466 0)
(11.6189 0.0458505 0)
(11.6923 0.0841925 0)
(11.5683 0.0728649 0)
(11.4193 0.0330766 0)
(11.3683 -0.0554154 0)
(11.7993 -0.224553 0)
(9.93144 0.449787 0)
(10.5964 0.513314 0)
(11.0076 0.284789 0)
(11.2854 0.168985 0)
(11.3377 0.163531 0)
(11.4483 0.170314 0)
(11.5583 0.146576 0)
(11.5583 0.117572 0)
(11.7484 0.137021 0)
(11.7073 0.0764952 0)
(11.8972 0.0984018 0)
(11.7512 0.0910157 0)
(12.038 0.0563862 0)
(11.8871 0.114615 0)
(11.8884 0.0338401 0)
(12.0732 0.0839573 0)
(12.0035 0.0839623 0)
(11.8572 0.0452205 0)
(11.8919 -0.0900127 0)
(12.1439 -0.200234 0)
(9.96519 0.389989 0)
(10.5024 0.46074 0)
(10.9393 0.273268 0)
(11.2127 0.143532 0)
(11.3023 0.150313 0)
(11.3648 0.149986 0)
(11.5075 0.140324 0)
(11.5025 0.103474 0)
(11.6229 0.127061 0)
(11.7129 0.0616349 0)
(11.7819 0.0963922 0)
(11.7522 0.0795603 0)
(12.0621 0.0438164 0)
(11.8813 0.123882 0)
(11.9441 0.0216804 0)
(12.1681 0.0619299 0)
(12.0154 0.109003 0)
(12.0605 0.0216208 0)
(12.0961 -0.0878014 0)
(12.1383 -0.29117 0)
(9.99714 0.333143 0)
(10.4322 0.412635 0)
(10.8724 0.257563 0)
(11.1354 0.125656 0)
(11.2721 0.130623 0)
(11.2993 0.136258 0)
(11.4473 0.126319 0)
(11.468 0.100383 0)
(11.5325 0.109984 0)
(11.7094 0.0554972 0)
(11.5971 0.0904877 0)
(11.7992 0.0594802 0)
(11.9428 0.0384837 0)
(11.8256 0.129187 0)
(12.0468 -0.000171725 0)
(12.0214 0.0668241 0)
(11.9179 0.108006 0)
(12.1685 -0.00123616 0)
(12.0764 -0.102876 0)
(11.9392 -0.296959 0)
(10.0155 0.28419 0)
(10.3769 0.363388 0)
(10.795 0.246595 0)
(11.0858 0.100701 0)
(11.2494 0.118755 0)
(11.2429 0.119969 0)
(11.3698 0.114507 0)
(11.4249 0.0899204 0)
(11.5366 0.0965588 0)
(11.6254 0.0529267 0)
(11.5619 0.0816447 0)
(11.7832 0.0427829 0)
(11.7106 0.0359898 0)
(11.9015 0.115026 0)
(12.0288 -0.00198272 0)
(11.8226 0.0725693 0)
(12.0109 0.0949599 0)
(12.1384 -0.0251634 0)
(11.9611 -0.0901059 0)
(11.7868 -0.270967 0)
(10.0148 0.238442 0)
(10.3418 0.31952 0)
(10.7351 0.225818 0)
(11.0424 0.0819009 0)
(11.1875 0.103434 0)
(11.2357 0.112356 0)
(11.3096 0.0966523 0)
(11.3753 0.0777102 0)
(11.5401 0.0805354 0)
(11.5177 0.0554344 0)
(11.6449 0.0639622 0)
(11.644 0.0502841 0)
(11.6223 0.0169254 0)
(11.9304 0.0939006 0)
(11.9043 0.0109205 0)
(11.832 0.0580919 0)
(12.0495 0.0752372 0)
(12.0111 -0.0240455 0)
(11.8769 -0.0870758 0)
(11.8324 -0.270551 0)
(10.0074 0.199815 0)
(10.3277 0.272388 0)
(10.6919 0.204272 0)
(10.9715 0.0647193 0)
(11.1316 0.0919689 0)
(11.2563 0.0961807 0)
(11.2624 0.0891317 0)
(11.3461 0.0575678 0)
(11.4707 0.0759743 0)
(11.4873 0.0403351 0)
(11.6665 0.0654161 0)
(11.5457 0.0469911 0)
(11.663 0.00410289 0)
(11.7973 0.0729521 0)
(11.857 0.0157725 0)
(11.898 0.0406705 0)
(11.9471 0.0752349 0)
(11.9301 -0.035407 0)
(11.8629 -0.088749 0)
(11.8825 -0.255104 0)
(10.0113 0.160494 0)
(10.2968 0.231499 0)
(10.6486 0.176142 0)
(10.9148 0.0548228 0)
(11.1265 0.0703971 0)
(11.2477 0.0891696 0)
(11.2127 0.0751766 0)
(11.3456 0.0496232 0)
(11.3719 0.0565252 0)
(11.5203 0.0357431 0)
(11.5966 0.053659 0)
(11.5649 0.0559283 0)
(11.6504 -0.0159856 0)
(11.6696 0.0721456 0)
(11.8483 0.00020526 0)
(11.8857 0.0404387 0)
(11.8643 0.0655762 0)
(11.9145 -0.0247131 0)
(11.8869 -0.126321 0)
(11.8372 -0.214705 0)
(10.0104 0.128753 0)
(10.259 0.187545 0)
(10.6302 0.148542 0)
(10.8902 0.0379196 0)
(11.111 0.0557102 0)
(11.2082 0.0797903 0)
(11.2035 0.0638097 0)
(11.3303 0.0369037 0)
(11.3344 0.04452 0)
(11.5023 0.0213638 0)
(11.5239 0.0524485 0)
(11.6253 0.0481889 0)
(11.5666 -0.00893707 0)
(11.6555 0.0462218 0)
(11.8451 -0.00657237 0)
(11.7955 0.0265464 0)
(11.8433 0.0745004 0)
(11.9321 -0.0593831 0)
(11.8811 -0.103312 0)
(11.779 -0.27501 0)
(9.99826 0.099791 0)
(10.2563 0.142242 0)
(10.6163 0.11785 0)
(10.8654 0.0258488 0)
(11.0887 0.0424423 0)
(11.1579 0.068107 0)
(11.2297 0.050579 0)
(11.3014 0.0264812 0)
(11.3347 0.031886 0)
(11.4271 0.0133446 0)
(11.5313 0.0411042 0)
(11.6052 0.0487155 0)
(11.5417 -0.0117717 0)
(11.6935 0.024842 0)
(11.7958 -0.00950929 0)
(11.6973 0.0243279 0)
(11.8802 0.052527 0)
(11.93 -0.0541233 0)
(11.8285 -0.112033 0)
(11.6753 -0.132337 0)
(9.99198 0.0702154 0)
(10.2601 0.0986355 0)
(10.5861 0.0881206 0)
(10.8566 0.0145471 0)
(11.0796 0.0285629 0)
(11.1145 0.0591822 0)
(11.2457 0.0289829 0)
(11.2903 0.0239974 0)
(11.3131 0.0164583 0)
(11.3901 0.0090998 0)
(11.5497 0.022062 0)
(11.5293 0.056924 0)
(11.5963 -0.0258746 0)
(11.6993 0.019696 0)
(11.6901 -0.0130108 0)
(11.7083 0.0232189 0)
(11.9021 0.0224826 0)
(11.8757 -0.0369975 0)
(11.8264 -0.120215 0)
(11.6035 -0.0308695 0)
(9.9929 0.0458292 0)
(10.2567 0.0518509 0)
(10.5631 0.0610165 0)
(10.8762 -0.00494207 0)
(11.0441 0.0261733 0)
(11.1015 0.0393263 0)
(11.2512 0.0170503 0)
(11.2781 0.0106952 0)
(11.2878 0.0146529 0)
(11.4126 -0.0121287 0)
(11.4826 0.0260504 0)
(11.5241 0.0394403 0)
(11.6379 -0.0208923 0)
(11.6622 0.00154831 0)
(11.6389 -0.00156108 0)
(11.7805 -0.0146158 0)
(11.832 0.0342644 0)
(11.8572 -0.0680518 0)
(11.8074 -0.0782657 0)
(11.6113 -0.117568 0)
(10.0019 0.0165754 0)
(10.2517 0.0118081 0)
(10.5637 0.0256568 0)
(10.8771 -0.0132254 0)
(11 0.0156409 0)
(11.1228 0.0281002 0)
(11.2518 -0.00735117 0)
(11.2415 0.0144434 0)
(11.3089 -0.00818515 0)
(11.4119 -0.00845751 0)
(11.4163 0.00762911 0)
(11.5779 0.0378371 0)
(11.63 -0.037365 0)
(11.6192 0.00985395 0)
(11.6846 -0.0246609 0)
(11.7662 -0.00950598 0)
(11.7746 0.00550775 0)
(11.8659 -0.0409498 0)
(11.7879 -0.125531 0)
(11.6725 -0.0612447 0)
(10.0171 -0.00736166 0)
(10.2416 -0.0345675 0)
(10.5747 -0.00238679 0)
(10.8483 -0.0281844 0)
(11.0032 0.012051 0)
(11.1581 0.00241689 0)
(11.2212 -0.011914 0)
(11.2227 -0.00175641 0)
(11.3497 -0.0141693 0)
(11.3721 -0.0190349 0)
(11.4417 0.0035743 0)
(11.588 0.0153102 0)
(11.6076 -0.0233141 0)
(11.6168 -0.00868722 0)
(11.7206 -0.0203841 0)
(11.7097 -0.0260787 0)
(11.8078 0.00733299 0)
(11.8416 -0.0729039 0)
(11.809 -0.0816313 0)
(11.6653 -0.162641 0)
(10.023 -0.0365801 0)
(10.2314 -0.0748594 0)
(10.5932 -0.0345691 0)
(10.8365 -0.0371872 0)
(11.0393 -0.00368432 0)
(11.1616 -0.006827 0)
(11.1791 -0.0260076 0)
(11.2583 -0.0111243 0)
(11.3601 -0.0296226 0)
(11.3651 -0.0177564 0)
(11.4803 -0.014523 0)
(11.5694 0.010931 0)
(11.5948 -0.0282315 0)
(11.6572 -0.0162755 0)
(11.6985 -0.0261752 0)
(11.7293 -0.0333507 0)
(11.814 -0.0107749 0)
(11.8444 -0.0635818 0)
(11.8065 -0.0986182 0)
(11.6708 -0.0683527 0)
(10.009 -0.0626088 0)
(10.248 -0.119949 0)
(10.6145 -0.064613 0)
(10.8473 -0.0498576 0)
(11.063 -0.014196 0)
(11.1326 -0.0189562 0)
(11.1889 -0.0388466 0)
(11.3008 -0.0291949 0)
(11.354 -0.0359673 0)
(11.396 -0.0257277 0)
(11.4786 -0.0242226 0)
(11.5643 0.00566886 0)
(11.6153 -0.0369257 0)
(11.6755 -0.0172193 0)
(11.693 -0.0428738 0)
(11.7718 -0.0282443 0)
(11.7881 -0.0325474 0)
(11.8639 -0.052448 0)
(11.8071 -0.111532 0)
(11.7373 0.00780994 0)
(9.99457 -0.0907276 0)
(10.2865 -0.166877 0)
(10.6206 -0.0919484 0)
(10.8644 -0.0620197 0)
(11.0665 -0.0226547 0)
(11.1334 -0.0343736 0)
(11.2369 -0.0536326 0)
(11.3095 -0.045226 0)
(11.3602 -0.0403728 0)
(11.4214 -0.0362929 0)
(11.4798 -0.0258081 0)
(11.5775 -0.0144613 0)
(11.6457 -0.0266428 0)
(11.675 -0.0406882 0)
(11.7239 -0.0270576 0)
(11.7739 -0.0579962 0)
(11.8028 -0.0180164 0)
(11.8639 -0.0873021 0)
(11.8427 -0.0756206 0)
(11.7477 -0.0965236 0)
(9.99676 -0.125436 0)
(10.3069 -0.207782 0)
(10.6224 -0.122978 0)
(10.9009 -0.0676994 0)
(11.0747 -0.0393084 0)
(11.1734 -0.0450942 0)
(11.2599 -0.0733029 0)
(11.3126 -0.0500264 0)
(11.3787 -0.0561233 0)
(11.4431 -0.0349226 0)
(11.5015 -0.0444707 0)
(11.6094 -0.0143103 0)
(11.653 -0.0464035 0)
(11.695 -0.0276346 0)
(11.756 -0.0586331 0)
(11.7777 -0.036119 0)
(11.82 -0.0579235 0)
(11.8871 -0.0608619 0)
(11.8798 -0.132088 0)
(11.7423 -0.0505473 0)
(10.0049 -0.156063 0)
(10.308 -0.255649 0)
(10.6519 -0.147264 0)
(10.9492 -0.0854972 0)
(11.1054 -0.0458694 0)
(11.2003 -0.0686604 0)
(11.2623 -0.0765959 0)
(11.3409 -0.0719485 0)
(11.4042 -0.0554621 0)
(11.4703 -0.0535473 0)
(11.5447 -0.0407197 0)
(11.6305 -0.0393717 0)
(11.6668 -0.0293602 0)
(11.7267 -0.0598245 0)
(11.7776 -0.037349 0)
(11.7984 -0.0683945 0)
(11.8432 -0.0401115 0)
(11.9263 -0.104335 0)
(11.8896 -0.0808139 0)
(11.7928 -0.153313 0)
(10.0025 -0.197288 0)
(10.3261 -0.293546 0)
(10.7066 -0.182758 0)
(10.9929 -0.0909512 0)
(11.136 -0.0643192 0)
(11.2097 -0.075988 0)
(11.2893 -0.0960426 0)
(11.3837 -0.0789941 0)
(11.4327 -0.0709275 0)
(11.513 -0.0555474 0)
(11.5833 -0.0571774 0)
(11.6474 -0.0373294 0)
(11.6969 -0.045847 0)
(11.7555 -0.0532145 0)
(11.8039 -0.0574903 0)
(11.8303 -0.058558 0)
(11.8884 -0.0682444 0)
(11.96 -0.0919372 0)
(11.9159 -0.104331 0)
(11.8312 -0.0567768 0)
(10.0001 -0.234712 0)
(10.3689 -0.342673 0)
(10.759 -0.205585 0)
(11.0325 -0.10523 0)
(11.159 -0.0747049 0)
(11.2374 -0.0941162 0)
(11.3364 -0.10836 0)
(11.4242 -0.0930802 0)
(11.4751 -0.0781545 0)
(11.5609 -0.0664041 0)
(11.6098 -0.0625986 0)
(11.6804 -0.0470202 0)
(11.7304 -0.0486896 0)
(11.7846 -0.0627523 0)
(11.8446 -0.0624752 0)
(11.8867 -0.063698 0)
(11.9315 -0.0861439 0)
(11.9925 -0.0865513 0)
(11.9669 -0.122418 0)
(11.885 0.0239586 0)
(10.014 -0.28243 0)
(10.4108 -0.389198 0)
(10.8147 -0.222351 0)
(11.0661 -0.119768 0)
(11.1919 -0.0889583 0)
(11.2785 -0.112682 0)
(11.3858 -0.118913 0)
(11.4679 -0.1086 0)
(11.5314 -0.0823755 0)
(11.5957 -0.0801713 0)
(11.6443 -0.0630132 0)
(11.7201 -0.0628078 0)
(11.7653 -0.0442612 0)
(11.8277 -0.0817893 0)
(11.9 -0.056245 0)
(11.9418 -0.08828 0)
(11.972 -0.0703187 0)
(12.0327 -0.127219 0)
(12.0019 -0.0796996 0)
(11.9228 -0.0887613 0)
(10.0439 -0.335791 0)
(10.4393 -0.434278 0)
(10.8829 -0.236168 0)
(11.0792 -0.133693 0)
(11.2502 -0.111702 0)
(11.3173 -0.125639 0)
(11.4507 -0.13703 0)
(11.5164 -0.115754 0)
(11.5895 -0.0964488 0)
(11.6214 -0.0804031 0)
(11.6943 -0.0784632 0)
(11.7564 -0.0623548 0)
(11.8219 -0.0593127 0)
(11.8801 -0.0807641 0)
(11.9632 -0.075036 0)
(11.9878 -0.0783383 0)
(12.0184 -0.0964681 0)
(12.067 -0.109563 0)
(12.0344 -0.120689 0)
(11.9743 -0.0733039 0)
(10.0688 -0.394935 0)
(10.4625 -0.481034 0)
(10.9456 -0.243372 0)
(11.1017 -0.154987 0)
(11.3392 -0.132193 0)
(11.36 -0.146094 0)
(11.5395 -0.147232 0)
(11.5496 -0.127732 0)
(11.6552 -0.100672 0)
(11.6437 -0.0898903 0)
(11.7688 -0.0846623 0)
(11.7973 -0.0744119 0)
(11.9007 -0.0630754 0)
(11.925 -0.0939277 0)
(12.0231 -0.0759378 0)
(12.0095 -0.0893435 0)
(12.0585 -0.0932893 0)
(12.0586 -0.126264 0)
(12.052 -0.117509 0)
(11.9734 -0.110597 0)
(10.0692 -0.461302 0)
(10.4898 -0.521092 0)
(11.0141 -0.256313 0)
(11.1829 -0.178505 0)
(11.4288 -0.158088 0)
(11.4207 -0.161433 0)
(11.6135 -0.160063 0)
(11.5849 -0.134637 0)
(11.721 -0.109262 0)
(11.679 -0.0971954 0)
(11.8478 -0.0962262 0)
(11.8132 -0.0826858 0)
(11.9441 -0.0707268 0)
(11.8998 -0.101024 0)
(11.9959 -0.07846 0)
(11.9186 -0.0951477 0)
(11.9733 -0.0887212 0)
(11.883 -0.140078 0)
(11.889 -0.0942321 0)
(11.7227 -0.181952 0)
(10.0418 -0.530092 0)
(10.5447 -0.561664 0)
(11.1288 -0.27455 0)
(11.2905 -0.206119 0)
(11.4939 -0.180504 0)
(11.4932 -0.176254 0)
(11.6581 -0.170116 0)
(11.6144 -0.142091 0)
(11.7315 -0.117687 0)
(11.6576 -0.104078 0)
(11.7823 -0.104256 0)
(11.67 -0.0846852 0)
(11.7672 -0.0772859 0)
(11.6355 -0.0960384 0)
(11.6854 -0.0825677 0)
(11.5406 -0.0834855 0)
(11.5631 -0.0951822 0)
(11.3885 -0.115157 0)
(11.3674 -0.111647 0)
(11.1493 -0.111758 0)
(10.0045 -0.607548 0)
(10.6569 -0.596771 0)
(11.2652 -0.298947 0)
(11.3761 -0.232396 0)
(11.5325 -0.203388 0)
(11.5065 -0.188959 0)
(11.5744 -0.174562 0)
(11.4606 -0.144876 0)
(11.4765 -0.117776 0)
(11.3204 -0.102872 0)
(11.3402 -0.0987365 0)
(11.1478 -0.0794389 0)
(11.1815 -0.0705176 0)
(10.9754 -0.0864513 0)
(10.9796 -0.0712752 0)
(10.7883 -0.0753434 0)
(10.7807 -0.0803506 0)
(10.5515 -0.102419 0)
(10.5232 -0.0933508 0)
(10.2661 -0.0802491 0)
(10.0026 -0.69453 0)
(10.809 -0.631628 0)
(11.3513 -0.331754 0)
(11.3505 -0.260134 0)
(11.3582 -0.218886 0)
(11.1817 -0.186734 0)
(11.0698 -0.162609 0)
(10.8308 -0.130789 0)
(10.7219 -0.102461 0)
(10.4911 -0.0871986 0)
(10.4259 -0.0818682 0)
(10.1937 -0.0645336 0)
(10.1838 -0.0573086 0)
(9.94709 -0.069252 0)
(9.92536 -0.0577755 0)
(9.71855 -0.0611237 0)
(9.69012 -0.0641601 0)
(9.44544 -0.0860732 0)
(9.40376 -0.0671238 0)
(9.14077 -0.0870446 0)
(10.0802 -0.807523 0)
(10.8921 -0.667024 0)
(11.1673 -0.355865 0)
(10.8725 -0.261803 0)
(10.602 -0.199694 0)
(10.2338 -0.155299 0)
(9.97057 -0.12857 0)
(9.65517 -0.100591 0)
(9.47825 -0.0761019 0)
(9.22956 -0.0643019 0)
(9.12302 -0.0599998 0)
(8.89517 -0.0471135 0)
(8.86354 -0.0416866 0)
(8.6309 -0.0509243 0)
(8.59723 -0.043373 0)
(8.3971 -0.0450838 0)
(8.3564 -0.0495931 0)
(8.12044 -0.0612638 0)
(8.06779 -0.061538 0)
(7.83065 -0.0294294 0)
(10.1629 -0.948731 0)
(10.5515 -0.667081 0)
(10.2863 -0.329766 0)
(9.62264 -0.213602 0)
(9.13563 -0.145702 0)
(8.68296 -0.105608 0)
(8.37204 -0.085794 0)
(8.05549 -0.066428 0)
(7.86883 -0.0487048 0)
(7.64405 -0.0413879 0)
(7.52955 -0.0387565 0)
(7.33334 -0.0305769 0)
(7.29382 -0.02661 0)
(7.08991 -0.0337565 0)
(7.05236 -0.0291847 0)
(6.87455 -0.0304902 0)
(6.8299 -0.0331893 0)
(6.61701 -0.043154 0)
(6.56608 -0.0414366 0)
(6.33853 -0.0171701 0)
(9.85806 -1.02252 0)
(9.33539 -0.576706 0)
(8.49316 -0.240802 0)
(7.62635 -0.132115 0)
(7.1018 -0.0809639 0)
(6.69002 -0.056326 0)
(6.41477 -0.0465173 0)
(6.14874 -0.0359484 0)
(5.99143 -0.025317 0)
(5.81484 -0.0217799 0)
(5.71737 -0.0207545 0)
(5.56598 -0.0166406 0)
(5.52924 -0.0138394 0)
(5.37037 -0.0190303 0)
(5.33327 -0.0167835 0)
(5.18983 -0.0174622 0)
(5.14789 -0.0190809 0)
(4.97035 -0.025875 0)
(4.92614 -0.0261266 0)
(4.70618 -0.00635269 0)
(8.59932 -0.872056 0)
(6.94455 -0.38336 0)
(5.82144 -0.121312 0)
(5.04785 -0.0518774 0)
(4.65649 -0.0281194 0)
(4.3744 -0.0195338 0)
(4.18623 -0.0172865 0)
(4.00366 -0.0133439 0)
(3.89831 -0.00859198 0)
(3.78523 -0.00763835 0)
(3.71885 -0.00772652 0)
(3.62005 -0.00640463 0)
(3.5934 -0.00472111 0)
(3.4896 -0.00788918 0)
(3.45685 -0.0071446 0)
(3.35791 -0.00736117 0)
(3.32324 -0.00798486 0)
(3.19532 -0.0122812 0)
(3.15318 -0.012105 0)
(2.97212 -0.00358204 0)
(5.32821 -0.309429 0)
(2.98356 -0.060702 0)
(2.19952 0.00175238 0)
(1.84593 0.00336159 0)
(1.70638 0.00121937 0)
(1.60973 0.000518231 0)
(1.54212 -0.00029071 0)
(1.47282 -0.000169115 0)
(1.435 0.000340443 0)
(1.39736 0.000123464 0)
(1.373 -0.000222984 0)
(1.33563 -0.000310009 0)
(1.32509 0.000276213 0)
(1.28705 -0.000691974 0)
(1.26761 -0.000624513 0)
(1.22568 -0.000644056 0)
(1.20631 -0.000581753 0)
(1.14817 -0.0019227 0)
(1.11253 -0.00156341 0)
(1.02766 0.00486768 0)
(2.54197 -1.07732 0)
(2.98113 -1.26339 0)
(2.35891 -1.55965 0)
(1.90613 -1.81731 0)
(0.475439 -2.01558 0)
(-0.0376959 -1.79376 0)
(-0.798697 -0.699804 0)
(-0.60068 0.20829 0)
(-0.647811 2.14766 0)
(0.22396 3.86006 0)
(0.480192 5.70986 0)
(2.0542 5.93281 0)
(4.79116 4.26594 0)
(5.77942 2.64134 0)
(5.88075 1.24566 0)
(5.05363 0.549206 0)
(5.49539 1.36674 0)
(6.99727 1.97064 0)
(8.6593 1.39633 0)
(9.00603 0.770597 0)
(9.39852 -0.219811 0)
(10.1202 -1.49307 0)
(10.6174 -2.44426 0)
(10.899 -3.38728 0)
(11.0082 -4.04148 0)
(11.6062 -4.7677 0)
(12.6035 -5.94049 0)
(13.0843 -6.71344 0)
(13.1598 -7.1038 0)
(12.9974 -7.30494 0)
(12.5421 -7.1277 0)
(12.1957 -7.03912 0)
(11.7773 -6.98085 0)
(11.3765 -6.63081 0)
(11.2218 -6.63222 0)
(11.0174 -6.66264 0)
(10.5099 -6.31499 0)
(10.2762 -6.29461 0)
(10.2788 -6.50899 0)
(9.96436 -6.35231 0)
(9.68591 -6.15809 0)
(9.7054 -6.37842 0)
(9.9712 -6.73203 0)
(10.0521 -6.84778 0)
(9.92732 -6.6723 0)
(9.75091 -6.38813 0)
(9.72701 -6.17373 0)
(9.9644 -6.0551 0)
(10.4703 -5.93024 0)
(11.0122 -5.68614 0)
(11.374 -5.15059 0)
(11.4257 -4.10652 0)
(11.461 -3.01168 0)
(11.5016 -2.11326 0)
(11.6174 -0.858964 0)
(11.3263 0.322403 0)
(11.2583 1.36348 0)
(11.086 2.4932 0)
(10.8546 3.66731 0)
(10.1303 4.21323 0)
(9.5763 4.36315 0)
(9.09961 4.8171 0)
(8.69292 5.10072 0)
(8.42785 5.16599 0)
(7.87671 5.09918 0)
(7.56296 4.79282 0)
(7.16449 4.54076 0)
(6.91585 3.93827 0)
(6.66327 3.66949 0)
(6.61527 3.65619 0)
(6.32085 3.38074 0)
(6.36583 3.52492 0)
(6.34666 3.31362 0)
(6.3834 2.6636 0)
(6.58349 2.07255 0)
(6.77864 2.20549 0)
(6.73528 3.00284 0)
(6.91652 3.92237 0)
(7.01345 4.89478 0)
(7.00467 5.95345 0)
(6.9606 6.62243 0)
(6.76108 7.1143 0)
(6.62339 7.69167 0)
(6.70958 7.96421 0)
(6.88862 7.78863 0)
(7.0191 7.32993 0)
(7.26739 6.40339 0)
(7.43051 5.20093 0)
(7.62441 4.56577 0)
(8.20582 4.40183 0)
(8.96512 3.78022 0)
(9.34331 2.76047 0)
(9.48271 1.64231 0)
(9.59587 0.398521 0)
(9.66847 -0.968813 0)
(9.54104 -2.39787 0)
(9.34201 -3.65543 0)
(9.22683 -4.67619 0)
(9.38615 -5.75032 0)
(9.04876 -6.83244 0)
(8.92095 -7.47173 0)
(8.47354 -7.83146 0)
(8.24793 -8.60858 0)
(7.73047 -8.81203 0)
(7.38442 -8.42488 0)
(7.20204 -7.45106 0)
(6.79891 -7.13872 0)
(6.92781 -6.62918 0)
(6.78851 -6.34845 0)
(6.65392 -5.98436 0)
(6.7213 -6.06683 0)
(7.31638 -6.41556 0)
(7.38736 -6.81324 0)
(7.0627 -7.48423 0)
(6.92598 -7.95846 0)
(6.99535 -7.62647 0)
(7.10577 -6.85229 0)
(6.95865 -6.23584 0)
(6.79094 -5.26364 0)
(7.00563 -3.6577 0)
(7.24403 -2.09049 0)
(7.39201 -0.380368 0)
(7.41508 1.62992 0)
(7.3567 3.23134 0)
(7.44813 4.56313 0)
(7.30676 6.13079 0)
(7.14543 7.47494 0)
(6.86179 8.32422 0)
(6.61364 8.78907 0)
(6.40795 9.2593 0)
(6.13025 9.75264 0)
(5.61869 9.31816 0)
(5.32329 7.32012 0)
(4.75412 4.83924 0)
(4.94925 3.36522 0)
(4.63135 4.04404 0)
(5.29959 5.22393 0)
(5.46369 6.682 0)
(6.18498 7.19076 0)
(6.55358 7.62262 0)
(6.62235 6.7155 0)
(6.66521 6.13 0)
(7.05556 5.84142 0)
(7.74576 5.72464 0)
(7.78251 5.43059 0)
(8.24448 5.049 0)
(8.69353 4.50839 0)
(8.32835 4.00112 0)
(8.37767 3.40137 0)
(8.16463 2.43845 0)
(8.16151 1.65454 0)
(8.36004 0.83466 0)
(7.86711 -0.371649 0)
(7.6828 -1.49289 0)
(7.26449 -2.42154 0)
(7.48997 -3.13597 0)
(7.16116 -3.7109 0)
(7.64492 -4.96879 0)
(7.63726 -5.57806 0)
(7.68977 -6.1418 0)
(8.00366 -7.10237 0)
(8.5242 -8.01495 0)
(8.28474 -8.73358 0)
(9.30097 -8.79187 0)
(8.73201 -8.66672 0)
(9.04512 -7.65546 0)
(8.57521 -6.9308 0)
(9.14498 -6.12383 0)
(9.23216 -5.32335 0)
(8.78765 -4.56458 0)
(8.66599 -3.1937 0)
(7.94189 -2.62599 0)
(7.85774 -2.51548 0)
(8.15142 -1.4201 0)
(7.9179 -0.701368 0)
(7.88037 -1.34574 0)
(8.20223 -2.14726 0)
(8.65206 -1.90874 0)
(9.23588 -1.24324 0)
(10.0296 -0.918515 0)
(10.8976 -0.929053 0)
(10.8605 -0.841783 0)
(10.5541 -0.132816 0)
(10.3662 1.09581 0)
(9.99299 2.38958 0)
(9.52153 3.18617 0)
(9.19995 3.84501 0)
(8.9638 4.85223 0)
(8.62537 5.28659 0)
(8.06458 5.42894 0)
(7.75248 5.93992 0)
(7.38811 6.27996 0)
(7.34465 6.68288 0)
(7.23099 7.80123 0)
(7.09655 8.44514 0)
(6.88773 8.91184 0)
(6.47853 10.1382 0)
(6.28687 10.6591 0)
(5.99337 11.6649 0)
(2.9988 15.1501 0)
(3.82786 -1.06442 0)
(4.31084 -1.1595 0)
(3.59873 -1.39353 0)
(3.1981 -1.53682 0)
(2.46717 -1.51267 0)
(1.20679 -1.47428 0)
(0.307955 -0.593272 0)
(0.946766 0.222334 0)
(0.27759 1.98618 0)
(1.15529 3.52896 0)
(1.64088 5.19612 0)
(3.69396 5.16299 0)
(5.97972 3.58985 0)
(6.32878 2.43283 0)
(6.83231 1.4859 0)
(6.1315 0.651255 0)
(5.37282 0.94217 0)
(6.67981 1.39388 0)
(8.34855 0.971097 0)
(8.89739 0.503485 0)
(9.8478 -0.526572 0)
(10.8304 -1.83679 0)
(11.0436 -2.60056 0)
(11.2764 -3.40223 0)
(11.8345 -4.21946 0)
(12.5839 -5.10907 0)
(13.3331 -6.1873 0)
(13.5754 -6.80446 0)
(13.4618 -7.08409 0)
(13.0674 -7.13254 0)
(12.51 -6.92017 0)
(12.1975 -6.89599 0)
(11.7812 -6.83882 0)
(11.4148 -6.50333 0)
(11.2251 -6.54257 0)
(10.9503 -6.54187 0)
(10.4829 -6.2018 0)
(10.3412 -6.27275 0)
(10.3244 -6.45323 0)
(9.9554 -6.23382 0)
(9.69166 -6.12511 0)
(9.76896 -6.45704 0)
(9.97155 -6.78541 0)
(9.89862 -6.81606 0)
(9.6739 -6.58955 0)
(9.47314 -6.35043 0)
(9.48591 -6.25466 0)
(9.8014 -6.24254 0)
(10.3506 -6.1458 0)
(10.815 -5.8435 0)
(11.072 -5.20778 0)
(11.033 -4.11366 0)
(11.0479 -3.02255 0)
(11.0958 -2.1208 0)
(11.2148 -0.833068 0)
(10.8995 0.378243 0)
(10.8362 1.42122 0)
(10.6851 2.57665 0)
(10.4853 3.83054 0)
(9.8524 4.44636 0)
(9.31314 4.59598 0)
(8.81944 5.00546 0)
(8.45934 5.24235 0)
(8.18006 5.32242 0)
(7.68148 5.27075 0)
(7.40666 4.94144 0)
(6.96735 4.68769 0)
(6.81117 4.02315 0)
(6.5221 3.75456 0)
(6.5331 3.70616 0)
(6.2108 3.42699 0)
(6.29093 3.54336 0)
(6.27408 3.27275 0)
(6.37319 2.59951 0)
(6.63289 2.02802 0)
(6.79062 2.13001 0)
(6.84177 2.96337 0)
(6.99551 3.89565 0)
(7.11499 4.82554 0)
(7.17062 5.89036 0)
(7.21864 6.63703 0)
(7.15144 7.15973 0)
(7.06198 7.69943 0)
(7.1972 7.92181 0)
(7.39428 7.7248 0)
(7.57279 7.27997 0)
(7.82593 6.35594 0)
(7.90697 5.10559 0)
(8.03965 4.36134 0)
(8.60695 4.137 0)
(9.34635 3.55678 0)
(9.82953 2.6474 0)
(10.0523 1.58923 0)
(10.1347 0.375246 0)
(10.162 -0.932525 0)
(10.0541 -2.34296 0)
(9.86474 -3.61947 0)
(9.71485 -4.65346 0)
(9.84603 -5.69635 0)
(9.48471 -6.75795 0)
(9.27329 -7.35031 0)
(8.76188 -7.6563 0)
(8.49929 -8.45107 0)
(7.96967 -8.65883 0)
(7.54015 -8.28558 0)
(7.33227 -7.33102 0)
(6.91528 -7.04678 0)
(6.9249 -6.63174 0)
(6.81059 -6.29551 0)
(6.65495 -5.95568 0)
(6.74222 -6.22972 0)
(7.30119 -6.54594 0)
(7.37398 -6.77825 0)
(7.06115 -7.40164 0)
(6.90296 -7.93606 0)
(6.93769 -7.66545 0)
(7.00848 -6.8359 0)
(6.86957 -6.15218 0)
(6.64261 -5.25572 0)
(6.79323 -3.75601 0)
(7.10561 -2.15406 0)
(7.23009 -0.392183 0)
(7.14446 1.61897 0)
(7.05782 3.22433 0)
(7.15349 4.61875 0)
(6.99941 6.18381 0)
(6.84407 7.53981 0)
(6.59162 8.41028 0)
(6.38102 8.86889 0)
(6.1957 9.3373 0)
(5.93809 9.85791 0)
(5.4447 9.45303 0)
(5.20055 7.45518 0)
(4.61005 4.98053 0)
(4.92049 3.36086 0)
(4.5419 4.0136 0)
(5.42801 4.96574 0)
(5.51953 6.49703 0)
(6.27176 6.96992 0)
(6.68655 7.45218 0)
(6.80027 6.7683 0)
(6.9534 6.00217 0)
(7.12785 5.58387 0)
(7.89985 5.55801 0)
(8.28923 5.26229 0)
(8.68291 4.88966 0)
(9.12476 4.51699 0)
(8.75179 4.0485 0)
(8.79983 3.4226 0)
(8.83374 2.44446 0)
(8.73411 1.6159 0)
(8.98608 0.89584 0)
(8.50766 -0.19515 0)
(8.27559 -1.38535 0)
(7.88604 -2.32224 0)
(7.95645 -3.15412 0)
(7.70551 -3.73773 0)
(8.07321 -4.99197 0)
(8.11901 -5.65656 0)
(8.13628 -6.24006 0)
(8.40851 -7.16401 0)
(8.9198 -8.18294 0)
(8.65381 -8.86687 0)
(9.46305 -8.79449 0)
(8.74466 -8.62929 0)
(9.20911 -7.65573 0)
(8.71497 -6.94568 0)
(9.16365 -6.18043 0)
(9.00426 -5.25132 0)
(8.34613 -4.37127 0)
(8.1224 -3.03152 0)
(7.55964 -2.52718 0)
(7.44025 -2.48088 0)
(7.70576 -1.47458 0)
(7.56563 -0.721852 0)
(7.8945 -1.41144 0)
(8.30251 -2.2666 0)
(8.74251 -2.09111 0)
(9.27303 -1.5144 0)
(10.011 -1.2588 0)
(10.9233 -1.14529 0)
(10.9245 -0.767185 0)
(10.5453 0.0123647 0)
(10.2037 1.19714 0)
(9.82843 2.59029 0)
(9.31518 3.33727 0)
(9.06288 3.97103 0)
(8.79295 4.91268 0)
(8.59049 5.49795 0)
(8.1664 5.64786 0)
(7.7757 6.11679 0)
(7.58695 6.37271 0)
(7.35682 6.75383 0)
(7.33798 7.76648 0)
(7.30648 8.51802 0)
(7.13101 9.0306 0)
(6.81921 10.2786 0)
(6.63152 10.9723 0)
(7.22466 11.6524 0)
(4.34412 16.008 0)
(5.29907 -1.07212 0)
(5.52045 -1.17019 0)
(5.24279 -1.1497 0)
(4.40254 -1.31513 0)
(4.02275 -1.19255 0)
(3.09337 -1.01738 0)
(1.7141 -0.48529 0)
(2.38657 0.169266 0)
(1.42552 1.86687 0)
(2.70754 3.19546 0)
(2.97514 4.51772 0)
(5.15882 4.43964 0)
(7.07409 3.08665 0)
(6.83549 2.2613 0)
(7.41206 1.60869 0)
(7.64085 0.856606 0)
(6.46037 0.851141 0)
(7.14969 1.04494 0)
(8.64909 0.60425 0)
(9.62182 0.0617751 0)
(10.7377 -1.0068 0)
(11.4749 -2.12835 0)
(11.4598 -2.63148 0)
(11.9263 -3.45594 0)
(12.7372 -4.47231 0)
(13.4557 -5.45757 0)
(13.9561 -6.35726 0)
(13.8947 -6.74172 0)
(13.5664 -6.93855 0)
(13.0408 -6.93828 0)
(12.4829 -6.74627 0)
(12.2385 -6.7834 0)
(11.8139 -6.67658 0)
(11.4497 -6.36552 0)
(11.2629 -6.42385 0)
(10.9598 -6.38323 0)
(10.5661 -6.09069 0)
(10.4854 -6.23745 0)
(10.3634 -6.33142 0)
(9.90174 -6.08561 0)
(9.71398 -6.10773 0)
(9.84243 -6.51374 0)
(9.90575 -6.78072 0)
(9.66433 -6.71996 0)
(9.3677 -6.49992 0)
(9.1896 -6.34636 0)
(9.24732 -6.36038 0)
(9.62318 -6.43827 0)
(10.1663 -6.32549 0)
(10.5123 -5.94331 0)
(10.6345 -5.20253 0)
(10.5442 -4.09176 0)
(10.5953 -3.03059 0)
(10.6585 -2.12143 0)
(10.7705 -0.789428 0)
(10.4012 0.456113 0)
(10.348 1.48785 0)
(10.2341 2.63642 0)
(10.0627 3.95707 0)
(9.53166 4.65604 0)
(9.00401 4.80324 0)
(8.53814 5.1657 0)
(8.18719 5.38247 0)
(7.90708 5.48295 0)
(7.45384 5.41182 0)
(7.2242 5.08599 0)
(6.75943 4.81843 0)
(6.70152 4.0999 0)
(6.36523 3.84836 0)
(6.37369 3.73533 0)
(6.1198 3.47407 0)
(6.17073 3.54522 0)
(6.18107 3.22236 0)
(6.33861 2.52197 0)
(6.70079 1.97355 0)
(6.78897 2.04046 0)
(6.89345 2.89441 0)
(7.09394 3.88813 0)
(7.18258 4.78399 0)
(7.26245 5.81943 0)
(7.41425 6.61646 0)
(7.49684 7.17036 0)
(7.48186 7.67645 0)
(7.6694 7.85044 0)
(7.89488 7.63941 0)
(8.1258 7.21271 0)
(8.39177 6.31939 0)
(8.4079 5.02506 0)
(8.46686 4.18695 0)
(8.95494 3.88359 0)
(9.64253 3.307 0)
(10.2068 2.49074 0)
(10.5073 1.51739 0)
(10.5951 0.35491 0)
(10.6187 -0.886591 0)
(10.5453 -2.28325 0)
(10.3778 -3.5804 0)
(10.1977 -4.61893 0)
(10.2687 -5.62286 0)
(9.88693 -6.65825 0)
(9.59658 -7.20596 0)
(9.03479 -7.4628 0)
(8.72035 -8.27432 0)
(8.18311 -8.48825 0)
(7.68532 -8.12766 0)
(7.44469 -7.20658 0)
(7.01919 -6.92422 0)
(6.91698 -6.61066 0)
(6.80013 -6.2446 0)
(6.6594 -5.92556 0)
(6.77818 -6.39066 0)
(7.2627 -6.66606 0)
(7.32701 -6.74286 0)
(7.06092 -7.32461 0)
(6.87772 -7.91112 0)
(6.88142 -7.67485 0)
(6.93296 -6.81785 0)
(6.74946 -6.04684 0)
(6.47479 -5.22256 0)
(6.57789 -3.852 0)
(6.92165 -2.21156 0)
(7.04418 -0.370478 0)
(6.87499 1.62984 0)
(6.77412 3.20949 0)
(6.84471 4.65933 0)
(6.68413 6.25039 0)
(6.52766 7.6037 0)
(6.28458 8.49882 0)
(6.10657 8.9732 0)
(5.95115 9.47103 0)
(5.71466 10.0143 0)
(5.26384 9.60578 0)
(5.07223 7.55904 0)
(4.4743 5.09919 0)
(4.85388 3.30807 0)
(4.50808 3.97714 0)
(5.45916 4.69503 0)
(5.58379 6.30797 0)
(6.29338 6.79501 0)
(6.74112 7.24097 0)
(6.92801 6.75819 0)
(7.30215 5.9842 0)
(7.32039 5.38022 0)
(7.94648 5.292 0)
(8.68796 5.05839 0)
(9.13241 4.69875 0)
(9.53557 4.50908 0)
(9.31669 4.11231 0)
(9.28645 3.40154 0)
(9.42349 2.42404 0)
(9.24058 1.6102 0)
(9.45007 0.950149 0)
(9.13324 -0.0459254 0)
(8.80839 -1.26792 0)
(8.49885 -2.24817 0)
(8.43224 -3.08925 0)
(8.29612 -3.81405 0)
(8.44028 -4.99166 0)
(8.62386 -5.73945 0)