/*--------------------------------*- C++ -*----------------------------------*\
| =========                 |                                                 |
| \\      /  F ield         | OpenFOAM: The Open Source CFD Toolbox           |
|  \\    /   O peration     | Version:  2.4.0                                 |
|   \\  /    A nd           | Web:      www.OpenFOAM.org                      |
|    \\/     M anipulation  |                                                 |
\*---------------------------------------------------------------------------*/
FoamFile
{
    version     2.0;
    format      ascii;
    class       volScalarField;
    location    "0.213";
    object      p;
}
// * * * * * * * * * * * * * * * * * * * * * * * * * * * * * * * * * * * * * //

dimensions      [0 2 -2 0 0 0 0];

internalField   nonuniform List<scalar> 
17600
(
68.0779
52.4124
48.0453
46.8145
45.9302
44.9534
44.0396
43.3156
42.5567
41.7467
41.1011
40.3658
39.4944
38.9438
38.1222
37.3327
36.4189
35.5992
34.0819
31.9783
66.1697
52.4624
48.0862
46.8243
45.9329
44.9549
44.0393
43.3155
42.5581
41.7458
41.1013
40.3673
39.4936
38.9433
38.1245
37.3318
36.4219
35.596
34.0891
32.2798
64.756
52.7189
48.2303
46.862
45.9468
44.9601
44.0406
43.3175
42.5607
41.7452
41.1023
40.3692
39.4924
38.9444
38.1283
37.3316
36.4296
35.5956
34.1525
32.6458
63.7796
53.0615
48.4501
46.9267
45.9765
44.9751
44.0488
43.3252
42.5655
41.748
41.1048
40.3713
39.4929
38.9462
38.1349
37.332
36.4463
35.6046
34.2552
33.0693
62.9571
53.3986
48.713
47.009
46.0193
45.0024
44.0685
43.3418
42.5749
41.7575
41.1098
40.3742
39.4973
38.9489
38.1455
37.3346
36.4725
35.626
34.4065
33.489
62.1826
53.6939
48.989
47.0926
46.0613
45.0358
44.0991
43.3672
42.59
41.7757
41.1179
40.379
39.5079
38.9522
38.1606
37.3417
36.5077
35.6612
34.6009
33.9106
61.4536
53.9442
49.264
47.1717
46.0938
45.0652
44.1349
43.3976
42.609
41.8017
41.1283
40.3851
39.5253
38.9564
38.18
37.355
36.5508
35.7098
34.8179
34.3631
60.7811
54.1518
49.5305
47.2483
46.1158
45.086
44.1712
43.429
42.6291
41.8322
41.1388
40.3915
39.5485
38.9608
38.2021
37.3761
36.5984
35.7727
34.9956
34.8488
60.1711
54.3194
49.7797
47.3284
46.1288
45.0987
44.2042
43.4597
42.6495
41.8638
41.1482
40.3981
39.5741
38.9652
38.2244
37.4045
36.6463
35.8493
35.1229
35.288
59.6255
54.4469
50.0101
47.4131
46.1346
45.1048
44.232
43.489
42.6694
41.8945
41.1568
40.4042
39.601
38.9683
38.2479
37.4359
36.6954
35.9298
35.2843
35.6825
59.1427
54.537
50.2208
47.5029
46.1345
45.1057
44.2544
43.5172
42.6881
41.9229
41.1655
40.4092
39.6276
38.9713
38.2712
37.4702
36.745
36.0176
35.4733
35.9881
58.7188
54.5958
50.4128
47.5977
46.1286
45.1022
44.272
43.544
42.7062
41.9492
41.174
40.4122
39.6542
38.9751
38.294
37.509
36.7941
36.115
35.6598
36.2401
58.3501
54.6292
50.5864
47.6945
46.1192
45.0949
44.2851
43.5689
42.7242
41.9733
41.1824
40.4131
39.6812
38.9793
38.316
37.5494
36.8494
36.2135
35.8385
36.4656
58.0337
54.6445
50.7394
47.7899
46.1079
45.086
44.2946
43.5908
42.7425
41.9943
41.1914
40.4123
39.7079
38.9841
38.3367
37.5938
36.9034
36.3223
36.0008
36.6518
57.7673
54.6493
50.8704
47.8763
46.0982
45.0775
44.3006
43.6099
42.7603
42.0122
41.2004
40.4111
39.7329
38.9919
38.3556
37.6429
36.956
36.4371
36.1581
36.8057
57.5484
54.6493
50.9786
47.9514
46.0902
45.0696
44.3048
43.6256
42.7777
42.0267
41.2091
40.4099
39.7568
39.0006
38.3752
37.6901
37.0188
36.5379
36.3457
36.938
57.3757
54.6466
51.0634
48.0139
46.0836
45.0629
44.3074
43.6375
42.7946
42.0373
41.2181
40.4085
39.7791
39.011
38.3952
37.7387
37.0821
36.6355
36.5294
37.1314
57.2476
54.6429
51.1254
48.063
46.0782
45.0589
44.3082
43.6459
42.8094
42.0456
41.2246
40.4099
39.7969
39.0279
38.4081
37.7954
37.1381
36.7367
36.6269
37.2883
57.1633
54.6392
51.1654
48.0977
46.074
45.0574
44.3089
43.65
42.823
42.0497
41.2312
40.4117
39.815
39.0433
38.4249
37.8465
37.2013
36.8319
36.732
37.5032
57.1222
54.6366
51.1837
48.1176
46.0694
45.059
44.3096
43.6498
42.8344
42.052
41.2359
40.4164
39.8274
39.0627
38.4405
37.8967
37.2682
36.9198
36.8685
37.6656
57.1236
54.6353
51.1814
48.1221
46.0648
45.0636
44.3106
43.6451
42.8442
42.0521
41.2398
40.4216
39.8394
39.0824
38.4574
37.9445
37.3384
37.0021
37.0339
37.7778
57.1677
54.6355
51.1584
48.1115
46.0599
45.071
44.312
43.6354
42.8509
42.0497
41.2447
40.4284
39.8511
39.1014
38.4767
37.989
37.41
37.0835
37.1823
37.9665
57.2548
54.6367
51.1144
48.0855
46.0551
45.0842
44.3131
43.6224
42.8531
42.0459
41.243
40.4397
39.8576
39.1254
38.4933
38.039
37.475
37.1701
37.2591
38.0576
57.3857
54.6377
51.0485
48.0447
46.0515
45.0961
44.3148
43.6051
42.8534
42.0403
41.2413
40.4509
39.8639
39.1473
38.5133
38.0842
37.5437
37.253
37.3367
38.2172
57.5618
54.6371
50.9596
47.9905
46.0493
45.1093
44.3162
43.5842
42.8508
42.0338
41.2369
40.4632
39.8694
39.168
38.5359
38.1264
37.6141
37.3324
37.4425
38.3514
57.7842
54.6337
50.8477
47.9225
46.0497
45.1225
44.3171
43.5599
42.8452
42.0261
41.2311
40.4752
39.8755
39.1867
38.5611
38.165
37.6867
37.4092
37.578
38.4396
58.0543
54.6252
50.7123
47.8423
46.0527
45.1353
44.3166
43.5329
42.8366
42.0179
41.2229
40.4879
39.8814
39.2036
38.5886
38.2025
37.758
37.4876
37.7007
38.5766
58.3743
54.6065
50.555
47.7514
46.0577
45.1472
44.3139
43.5032
42.8248
42.0098
41.211
40.5028
39.8852
39.2219
38.6144
38.2446
37.8216
37.5755
37.7523
38.6381
58.7474
54.5699
50.3774
47.6567
46.0632
45.1554
44.3095
43.4706
42.8113
42.0012
41.1978
40.5151
39.8911
39.2364
38.6431
38.2831
37.8885
37.6614
37.8039
38.7581
59.1765
54.5076
50.1802
47.5654
46.0662
45.1588
44.3023
43.436
42.7954
41.9927
41.183
40.5255
39.8979
39.2476
38.6741
38.3188
37.9575
37.7459
37.8843
38.8287
59.6641
54.4145
49.9637
47.4793
46.0656
45.1558
44.291
43.4006
42.7773
41.9836
41.1664
40.5347
39.9051
39.2558
38.7055
38.3532
38.0257
37.832
37.9914
38.8566
60.2129
54.2871
49.7285
47.3986
46.0597
45.1462
44.2751
43.3642
42.7578
41.9741
41.1474
40.5418
39.9137
39.2611
38.7364
38.3854
38.0941
37.9162
38.1213
38.8456
60.8243
54.123
49.4753
47.3221
46.0473
45.1289
44.2547
43.3275
42.7367
41.9646
41.1273
40.5465
39.9226
39.2653
38.7638
38.4164
38.1559
37.9973
38.2355
38.8578
61.4965
53.9204
49.2071
47.2481
46.026
45.1025
44.2309
43.2919
42.714
41.9545
41.1092
40.5486
39.9304
39.2697
38.7868
38.4448
38.2073
38.071
38.3161
38.8441
62.2241
53.6748
48.9316
47.1709
45.9943
45.0675
44.205
43.2603
42.6915
41.9442
41.0954
40.5489
39.9368
39.2744
38.8057
38.4681
38.2488
38.1288
38.3774
38.8839
62.9973
53.3833
48.6546
47.0885
45.9528
45.0295
44.1807
43.2363
42.6731
41.9358
41.0878
40.549
39.9418
39.2795
38.8203
38.4859
38.2793
38.1704
38.4206
38.9121
63.8188
53.0489
48.3908
47.0062
45.9113
44.9997
44.1634
43.2226
42.6614
41.9304
41.0859
40.5496
39.945
39.2844
38.8308
38.4981
38.2987
38.1983
38.446
38.9417
64.7944
52.7078
48.171
46.9404
45.8829
44.9841
44.1545
43.2181
42.656
41.9272
41.0873
40.5505
39.9463
39.2882
38.8375
38.505
38.309
38.2139
38.4601
38.9722
66.2076
52.452
48.0274
46.9014
45.8699
44.9799
44.1509
43.2181
42.6546
41.9247
41.0895
40.5514
39.9457
39.2902
38.8408
38.5077
38.3124
38.2201
38.466
39.0032
68.1158
52.4022
47.9866
46.8913
45.8668
44.9802
44.1492
43.2186
42.6555
41.9225
41.0906
40.5522
39.9442
39.2907
38.8419
38.5077
38.3125
38.2205
38.4666
39.0396
33.9395
36.8858
38.6601
40.2911
41.0951
39.6204
36.0853
30.9196
22.3949
11.2728
0.89343
-7.06801
-14.6619
-20.749
-22.8576
-24.5263
-25.8757
-24.1863
-21.0471
-16.1365
-9.99535
-3.90994
3.16554
11.3528
19.2552
25.8756
32.132
38.4285
43.8651
48.0453
52.1329
55.5566
58.2176
60.7091
63.1091
64.5405
65.0004
66.5463
67.6273
66.505
65.9752
65.4924
62.0789
54.3409
44.2552
33.8171
24.2048
15.8868
9.79946
4.64545
-1.01302
-6.6348
-11.1076
-13.8994
-14.3
-11.2083
-4.44332
4.51481
14.5614
24.9893
33.6981
40.5907
46.941
51.7042
54.6823
57.0264
59.3681
61.0648
61.77
61.8133
61.1337
59.3246
56.3624
52.2281
47.609
42.4141
36.2074
28.7803
20.1404
12.0177
5.54361
-0.704995
-8.23173
-15.9116
-21.1835
-23.9304
-25.6366
-26.1592
-25.3919
-22.478
-17.2458
-11.721
-6.14954
1.45732
10.8761
19.7614
25.7896
29.9227
33.4549
35.5943
36.2762
36.3629
35.6577
34.073
32.3624
31.0423
30.4424
30.9566
32.0766
33.573
35.6305
37.3215
38.3389
39.2841
39.8016
39.8105
39.5161
38.8681
38.0316
37.1392
36.3696
35.8819
35.5082
35.3432
35.8916
36.6812
37.4079
38.3969
39.7352
41.288
43.0009
44.674
46.1979
47.3397
48.1537
49.004
50.2221
51.4564
52.5368
53.3524
53.7848
54.2296
54.3935
53.8291
52.9751
51.5497
48.718
45.0322
40.9872
35.9839
29.7521
23.0207
17.2285
12.9063
8.7385
4.89029
2.76318
1.60391
1.27462
3.11369
6.17816
8.85401
11.9942
16.974
23.0159
28.7643
33.8719
38.5643
42.5449
45.456
47.3362
48.3457
48.7374
48.7036
48.2877
47.2903
45.845
43.9326
40.0468
35.0628
30.1803
22.5552
19.2791
10.6146
9.65771
3.67458
-0.846803
-2.35495
-4.00535
-3.10161
-1.79539
1.67163
5.85769
10.6634
16.2184
22.1008
28.232
33.4655
38.9478
39.0995
34.1855
36.9206
38.8331
40.4449
41.9584
40.1358
36.4812
31.7692
23.9358
13.4688
3.51259
-4.03927
-11.16
-17.3822
-19.6484
-20.849
-22.2394
-21.2094
-18.6369
-13.8987
-7.54049
-1.41045
5.16474
12.4065
19.8648
26.3062
32.1581
38.1615
43.4249
47.5221
51.4756
54.9001
57.5442
60.0082
62.3473
63.814
64.0645
65.4714
66.8071
65.9237
65.2532
64.7799
61.881
54.7423
44.8569
34.5975
25.2269
16.9674
10.7841
5.47618
-0.26026
-5.92081
-10.2504
-12.75
-12.9861
-9.98917
-3.41517
5.32264
15.0496
25.304
34.088
40.8909
47.1514
51.9905
55.0166
57.3697
59.7227
61.4423
62.1569
62.2155
61.5205
59.6169
56.5252
52.2775
47.5982
42.3111
35.9994
28.461
19.7554
11.5737
5.04063
-1.38763
-9.24603
-17.2365
-22.7157
-25.4536
-27.0956
-27.8047
-27.2085
-24.3093
-18.9091
-13.0336
-7.17108
0.533536
10.2435
19.5712
25.9574
30.448
34.0782
36.1832
37.1782
37.6871
37.1714
35.772
34.3175
33.141
32.5199
32.9341
33.8948
35.2025
37.0426
38.6029
39.5068
40.2707
40.6473
40.5951
40.3106
39.74
38.9933
38.1273
37.4231
37.0298
36.6774
36.4879
36.9334
37.6389
38.4022
39.3547
40.588
42.1044
43.8306
45.5008
46.9506
48.0428
48.8412
49.5892
50.6614
51.7304
52.6726
53.3964
53.7818
54.1854
54.3331
53.7083
52.7494
51.2572
48.2537
44.3761
40.153
34.8882
28.3517
21.3774
15.467
11.1153
7.03252
3.23978
0.928771
-0.444197
-0.652614
1.36238
4.47212
7.22307
10.4079
15.4991
21.6221
27.4633
32.6719
37.5843
41.7298
44.7691
46.7697
47.8835
48.4308
48.5537
48.1509
47.3318
45.7737
43.9361
40.4132
35.1062
30.9304
22.5801
19.587
11.6524
8.78849
4.41406
-0.0288176
-1.36539
-2.8488
-1.7778
-0.270349
2.88231
7.09984
11.5527
16.4567
22.5192
27.6403
32.7513
36.1912
37.107
34.5267
36.8844
38.958
40.5551
42.1278
40.288
36.3076
32.0822
25.0909
15.3205
5.86
-1.19547
-7.82813
-14.0225
-16.5787
-17.5887
-18.9388
-18.2275
-15.8733
-11.3598
-5.03324
0.942512
7.00559
13.4907
20.3082
26.552
32.1753
37.8302
42.9492
47.0262
50.8305
54.215
56.8135
59.2526
61.5508
62.9767
63.1534
64.4131
65.7511
65.1278
64.3973
63.9124
61.4978
54.9489
45.2748
35.2965
26.1775
18.0618
11.8109
6.40623
0.606253
-5.06583
-9.2102
-11.3706
-11.3694
-8.43811
-2.06768
6.43618
15.8139
25.7947
34.5747
41.2771
47.39
52.2947
55.3667
57.7317
60.1005
61.8669
62.5944
62.6744
61.964
59.954
56.7628
52.4042
47.6458
42.3014
35.878
28.2757
19.5547
11.3207
4.7169
-1.86472
-9.9622
-18.18
-23.8174
-26.5596
-28.1578
-29.0157
-28.5617
-25.713
-20.2432
-14.0569
-7.85287
-0.0671859
9.87696
19.511
26.2638
31.1013
34.7583
36.8698
38.2257
39.1046
38.7967
37.6696
36.5632
35.5886
34.9626
35.2555
36.039
37.1188
38.6822
40.0255
40.7737
41.3467
41.5857
41.4527
41.158
40.6273
39.9334
39.1203
38.4582
38.0959
37.7779
37.5964
37.9511
38.6076
39.4079
40.3077
41.4544
42.9551
44.682
46.3035
47.671
48.7325
49.5304
50.1979
51.1005
52.0111
52.8432
53.4871
53.8353
54.2063
54.3295
53.658
52.586
51.015
47.8578
43.7555
39.3938
33.9161
27.1042
19.909
13.8691
9.47885
5.47865
1.70941
-0.822193
-2.37464
-2.46304
-0.264314
2.95205
5.73191
9.02827
14.1804
20.425
26.3
31.6241
36.7523
41.0488
44.191
46.3541
47.584
48.2323
48.536
48.0367
47.3589
45.8475
43.871
41.1208
34.9134
32.027
22.9052
20.6808
13.4648
8.17912
4.97128
0.915953
-0.245997
-1.58117
-0.407893
1.39929
4.35567
8.38789
12.8216
17.1012
22.809
27.2762
31.4915
34.1868
36.2415
34.9429
36.8789
38.8973
40.4372
41.7164
39.7934
35.711
32.1707
26.1196
16.8626
7.83403
1.16692
-4.93555
-10.8759
-13.8344
-14.8255
-15.8632
-15.0801
-12.6487
-8.50374
-2.63226
3.14976
8.67043
14.5338
20.7509
26.6296
32.0791
37.449
42.3579
46.4199
50.1514
53.5015
56.0833
58.4517
60.7004
62.0648
62.2411
63.3441
64.5309
64.143
63.4669
62.9337
60.9053
54.9179
45.5145
35.8583
27.0271
19.179
12.9085
7.47489
1.66751
-3.97657
-7.89617
-9.67005
-9.4278
-6.57303
-0.420646
7.85714
16.8507
26.4496
35.1639
41.7628
47.6779
52.6301
55.7354
58.1124
60.503
62.3188
63.0829
63.1784
62.4449
60.3335
57.0028
52.5926
47.7421
42.3879
35.8861
28.2563
19.5686
11.2972
4.56833
-2.11103
-10.3441
-18.6848
-24.4443
-27.2286
-28.835
-29.7873
-29.4094
-26.6452
-21.1998
-14.7367
-8.19968
-0.345743
9.77969
19.5966
26.7108
31.8595
35.5024
37.6738
39.3752
40.5356
40.4648
39.6989
38.9963
38.2723
37.6644
37.8329
38.4205
39.2594
40.5124
41.5761
42.1236
42.5501
42.5927
42.3668
42.0572
41.5267
40.844
40.0976
39.4616
39.0905
38.822
38.6803
38.9689
39.5853
40.3956
41.2615
42.3558
43.8173
45.5074
47.0796
48.347
49.3527
50.1537
50.7775
51.5255
52.2988
53.0447
53.623
53.9307
54.2938
54.4009
53.6903
52.5302
50.8782
47.6182
43.2842
38.7409
33.0959
26.0328
18.6191
12.4638
8.04065
4.09536
0.302447
-2.48631
-4.32229
-4.19942
-1.70866
1.59726
4.41968
7.84494
13.0701
19.4092
25.2973
30.7522
36.0377
40.3619
43.6031
46.0393
47.3648
48.092
48.5406
47.8889
47.3556
46.2323
43.705
42.0656
35.0236
32.9255
24.114
22.1529
15.4592
9.01738
6.09998
2.39074
1.09453
0.00282585
1.17309
3.09641
5.95619
9.61202
14.0606
18.0301
22.9249
26.8498
30.6822
32.7744
34.6271
35.3138
36.9547
38.7447
40.0786
41.0652
39.0736
35.2141
32.2315
26.8032
17.9169
9.31985
3.0309
-2.54196
-7.99194
-11.1921
-12.146
-12.6068
-11.5959
-9.19449
-5.4844
-0.354184
5.06965
10.2347
15.4434
21.132
26.7132
31.826
36.9446
41.6515
45.735
49.4083
52.6953
55.3184
57.6357
59.8014
61.0951
61.3262
62.2457
63.1816
63.0179
62.5365
61.8358
59.9985
54.5622
45.5396
36.2126
27.8233
20.3409
14.1481
8.76714
3.00829
-2.54184
-6.19763
-7.61589
-7.14363
-4.38391
1.50457
9.53394
18.1309
27.2333
35.7882
42.2996
48.0189
52.9691
56.1148
58.5065
60.9323
62.7953
63.5965
63.7177
62.9637
60.7214
57.2456
52.7778
47.8946
42.5519
36.0484
28.414
19.7996
11.5066
4.63014
-2.10288
-10.3518
-18.7351
-24.6157
-27.5017
-29.1396
-30.1113
-29.7494
-27.1021
-21.7398
-15.0422
-8.22398
-0.301409
9.95419
19.8569
27.3006
32.709
36.3222
38.5666
40.557
41.9203
42.1419
41.7856
41.5313
41.0801
40.5304
40.5748
40.9622
41.5478
42.4783
43.231
43.5572
43.7613
43.6412
43.3298
42.9917
42.4251
41.7305
41.0467
40.4147
40.0251
39.841
39.7411
39.9551
40.5529
41.3792
42.2112
43.2568
44.6704
46.291
47.7812
48.9511
49.8984
50.6921
51.2946
51.9219
52.5966
53.2694
53.8006
54.0683
54.432
54.5447
53.8079
52.5658
50.8738
47.5532
43.0302
38.2429
32.419
25.1221
17.5171
11.2511
6.79789
2.89836
-0.945719
-4.04278
-6.05462
-5.75062
-3.00458
0.406373
3.35087
6.8572
12.1557
18.5485
24.4696
30.017
35.3911
39.7932
43.176
45.7551
47.2079
47.8617
48.4983
47.9977
47.2991
46.8805
43.6033
42.9115
35.6942
33.6261
26.1523
22.0077
16.1778
10.2587
7.3374
4.08081
2.68617
1.92806
2.82201
4.59119
7.38589
10.751
14.8436
18.764
23.0219
26.6482
30.3924
31.801
33.0272
35.5953
37.067
38.5531
39.5242
40.2348
38.3981
34.8601
32.0359
26.9659
18.7365
10.7527
4.88124
-0.12925
-5.11166
-8.25353
-9.09366
-9.15239
-8.00928
-5.74454
-2.52676
1.86405
6.68543
11.6158
16.2881
21.3194
26.6471
31.5774
36.3839
40.7963
44.9049
48.5833
51.8089
54.4842
56.7751
58.8747
60.0898
60.3886
61.1068
61.7535
61.7905
61.5705
60.5895
58.7137
53.7982
45.2345
36.3309
28.5919
21.606
15.5902
10.3039
4.70511
-0.656401
-4.05998
-5.14331
-4.51115
-1.90361
3.66993
11.4105
19.6053
28.1622
36.4334
42.858
48.3874
53.2705
56.4572
58.8738
61.3432
63.2806
64.122
64.2534
63.5046
61.1152
57.4855
52.9506
48.0575
42.7733
36.319
28.7578
20.2367
11.9342
4.93491
-1.79422
-9.98516
-18.3428
-24.356
-27.4337
-29.1179
-30.0398
-29.6389
-27.1112
-21.8404
-14.9492
-7.94048
0.0719437
10.4071
20.3165
28.0357
33.6459
37.1855
39.5205
41.7224
43.2313
43.7866
43.8756
44.0892
43.9217
43.4691
43.4051
43.5857
43.9057
44.5095
44.96
45.0585
45.0298
44.7207
44.3193
43.9414
43.3121
42.5966
41.9676
41.3236
40.9323
40.8254
40.7388
40.9161
41.5082
42.3182
43.1345
44.1616
45.4885
46.9913
48.3965
49.4842
50.3794
51.1444
51.738
52.2791
52.893
53.5085
54.0016
54.2332
54.6108
54.7421
53.976
52.6815
50.9453
47.5927
42.9023
37.8905
31.8714
24.362
16.5846
10.2268
5.73732
1.88157
-2.04628
-5.43947
-7.65246
-7.12659
-4.08555
-0.518883
2.44648
6.09104
11.4652
17.8631
23.8098
29.4647
34.9222
39.5015
42.9607
45.6163
47.145
47.7649
48.4729
48.4478
47.1675
47.686
43.407
43.7198
36.3387
34.9693
28.7283
21.7265
16.8443
11.6831
8.75101
5.78339
4.58133
3.79982
4.37323
5.94404
8.55397
11.8075
15.4289
19.2412
23.2101
26.8274
30.222
31.0714
31.7307
35.8786
37.1504
38.3147
38.8467
39.2884
37.7497
34.4891
31.659
26.9629
19.6378
12.4202
6.92811
2.32073
-2.05749
-4.90104
-5.73139
-5.66328
-4.51794
-2.3997
0.265268
3.95485
8.14682
12.6942
17.0347
21.5081
26.3875
31.21
35.8084
39.9342
43.9699
47.6445
50.827
53.5945
55.8559
57.9107
59.0731
59.4086
60.0463
60.3606
60.5023
60.4747
59.1831
57.1254
52.6252
44.5614
36.2274
29.3506
22.9913
17.2121
12.1215
6.82188
1.68863
-1.43701
-2.26506
-1.57504
0.845381
6.06633
13.4636
21.2453
29.2314
37.0918
43.4033
48.749
53.533
56.7506
59.1935
61.7139
63.725
64.6374
64.7715
64.0075
61.5281
57.7307
53.1224
48.2194
43.0159
36.6505
29.228
20.876
12.5716
5.47945
-1.21581
-9.25331
-17.5674
-23.715
-27.0382
-28.8069
-29.6443
-29.1685
-26.7399
-21.5107
-14.4802
-7.36918
0.76348
11.1359
20.9924
28.9031
34.6502
38.0821
40.5255
42.8241
44.4857
45.3751
45.9211
46.5961
46.7285
46.3976
46.242
46.2156
46.2638
46.5568
46.7305
46.5877
46.3315
45.8081
45.3168
44.8887
44.188
43.4543
42.8562
42.2024
41.8297
41.7606
41.6705
41.857
42.45
43.207
43.9872
45.0132
46.2756
47.6468
48.9488
49.9566
50.81
51.5518
52.1348
52.6227
53.1941
53.7617
54.2124
54.4186
54.8124
54.9866
54.168
52.849
51.0908
47.6473
42.8482
37.6503
31.4681
23.7502
15.8216
9.39487
4.84922
1.02646
-2.97324
-6.64639
-9.04324
-8.22876
-4.89423
-1.24264
1.798
5.55656
10.967
17.3919
23.4001
29.1329
34.5893
39.2453
42.7447
45.4768
47.3323
47.9093
48.3953
49.1517
46.9493
48.4928
43.4963
44.43
37.389
36.2215
30.3571
22.5694
18.4607
13.5707
10.6324
7.68761
6.49697
5.63041
5.94505
7.32726
9.64639
12.7987
16.0011
19.6229
23.364
27.0293
29.94
30.519
30.7584
36.3521
37.2868
38.0103
38.0439
38.2231
37.0645
34.1165
31.2719
27.0235
20.703
14.3128
9.12415
4.8627
1.16016
-1.35454
-2.28191
-2.19862
-1.19007
0.649631
2.84744
5.86999
9.52354
13.6224
17.6383
21.6849
26.0898
30.689
35.1399
39.0222
43.009
46.64
49.7657
52.619
54.8799
56.8875
58.0503
58.4055
58.9297
59.02
59.1636
59.2218
57.6767
55.3644
51.1356
43.5544
35.9397
30.1041
24.4717
19.026
14.2594
9.33985
4.50365
1.65858
1.01162
1.65714
3.84126
8.66743
15.6553
23.0044
30.4348
37.8218
43.9294
49.0646
53.721
56.9734
59.45
62.028
64.1035
65.0972
65.2514
64.4625
61.9148
57.9959
53.3062
48.4033
43.26
37.0257
29.7599
21.6616
13.4076
6.25239
-0.439996
-8.21654
-16.4149
-22.7276
-26.3238
-28.2046
-28.9741
-28.417
-26.0086
-20.7497
-13.672
-6.53343
1.77213
12.1454
21.8604
29.898
35.7111
39.0095
41.5592
43.8753
45.6847
46.8655
47.873
49.001
49.429
49.2324
49.01
48.7823
48.5613
48.5772
48.4929
48.1235
47.6338
46.8944
46.3066
45.8192
45.0653
44.3074
43.7135
43.0617
42.7157
42.6584
42.5429
42.7612
43.3524
44.0206
44.7686
45.8072
46.9915
48.2353
49.4732
50.4274
51.2207
51.9318
52.4937
52.9546
53.501
54.0399
54.4473
54.6409
55.0327
55.256
54.4067
53.0373
51.2928
47.7904
42.8933
37.5613
31.2342
23.3258
15.2416
8.7486
4.15725
0.335786
-3.70067
-7.60591
-10.0497
-8.96683
-5.40099
-1.68174
1.39768
5.21804
10.7058
17.0615
23.2143
28.99
34.373
39.0939
42.6588
45.3414
47.5418
48.3121
48.1295
50.0629
46.6073
49.0593
43.9614
45.2048
39.5761
35.9773
30.162
23.711
20.2683
15.7471
12.6551
9.57108
8.31356
7.51664
7.6127
8.73946
10.7592
13.7546
16.5377
19.8904
23.4509
27.0152
29.6459
30.1236
30.0796
37.0936
37.6489
37.7106
37.235
37.0704
36.311
33.7824
30.9832
27.2239
21.8805
16.294
11.3783
7.45393
4.29141
2.12696
1.12214
1.07671
1.81248
3.30883
5.22147
7.71532
10.7742
14.424
18.0922
21.7785
25.7554
30.0806
34.3648
37.9771
41.9165
45.553
48.6434
51.5826
53.8277
55.7918
57.0112
57.4005
57.7968
57.7445
57.7483
57.7814
56.0942
53.5157
49.3627
42.2515
35.5267
30.8428
26.0369
21.0322
16.7363
12.2529
7.75124
5.16761
4.62013
5.12407
7.04002
11.4528
17.9895
24.8539
31.705
38.6239
44.4802
49.3651
53.8281
57.0794
59.5999
62.2266
64.3865
65.4721
65.6491
64.8457
62.2451
58.2334
53.5225
48.6074
43.5351
37.4164
30.3405
22.511
14.4102
7.20528
0.571252
-6.93135
-14.9202
-21.3472
-25.2565
-27.2981
-28.0432
-27.4083
-24.9445
-19.616
-12.5906
-5.45068
3.11728
13.3852
22.8855
31.0495
36.7766
39.9804
42.6102
44.8744
46.8221
48.2539
49.6986
51.2358
51.9482
51.8932
51.6365
51.2232
50.7569
50.5264
50.2084
49.6235
48.9152
47.9751
47.2742
46.7414
45.9484
45.1674
44.5432
43.905
43.5992
43.5092
43.3605
43.6196
44.1793
44.7563
45.4903
46.529
47.6225
48.7559
49.9635
50.8899
51.6285
52.3137
52.8431
53.2687
53.7869
54.3049
54.6788
54.8963
55.288
55.5292
54.6464
53.252
51.5048
48.0779
43.0759
37.593
31.147
23.0859
14.8804
8.31856
3.66733
-0.157281
-4.21544
-8.22735
-10.7091
-9.30408
-5.5517
-1.82692
1.24588
5.14544
10.6963
16.9776
23.2478
29.0217
34.2871
39.2872
43.0143
45.2934
47.624
48.9816
47.5282
50.9698
46.548
49.4858
44.5403
45.8503
41.6384
35.2175
30.2994
25.3401
22.0098
17.7616
14.52
11.4846
10.2184
9.38554
9.25131
10.1734
11.9616
14.7144
17.0593
20.1077
23.5764
26.9138
29.384
29.7654
29.7483
37.7223
37.9674
37.4405
36.5991
36.114
35.5568
33.5263
30.8319
27.5622
23.0748
18.0547
13.5944
10.0123
7.21904
5.37787
4.29955
3.98512
4.46932
5.71059
7.38665
9.45931
11.9034
15.0614
18.4686
21.7558
25.2863
29.3313
33.4843
36.914
40.6848
44.3506
47.3983
50.4817
52.7272
54.6437
55.9742
56.3798
56.6913
56.6208
56.3162
56.1121
54.3699
51.5196
47.2886
40.6895
34.9976
31.5342
27.6309
23.2494
19.5381
15.5029
11.3633
9.02481
8.47761
8.79036
10.425
14.3843
20.4136
26.7889
33.023
39.4049
44.9823
49.6196
53.8532
57.0631
59.6197
62.2775
64.5198
65.7196
65.9394
65.114
62.4895
58.4189
53.74
48.833
43.8542
37.8684
30.9672
23.3864
15.5285
8.32904
1.79521
-5.38613
-13.1161
-19.5776
-23.7864
-26.0457
-26.8421
-26.1405
-23.5552
-18.167
-11.292
-4.08029
4.77456
14.772
24.0763
32.3273
37.8073
41.013
43.6457
45.8413
47.9274
49.5392
51.3722
53.2622
54.2369
54.3292
54.0761
53.4955
52.8103
52.3676
51.8341
51.0585
50.1483
49.0447
48.2423
47.659
46.8484
46.034
45.3494
44.7482
44.4581
44.2943
44.1383
44.4203
44.9225
45.4255
46.15
47.1861
48.1954
49.2132
50.4016
51.333
52.0323
52.6986
53.2008
53.5952
54.0844
54.5675
54.9037
55.1609
55.5767
55.8242
54.8953
53.4686
51.7445
48.3983
43.3499
37.6606
31.1422
23.001
14.7229
8.11731
3.38316
-0.429794
-4.49757
-8.48925
-10.914
-9.1869
-5.3132
-1.68657
1.37273
5.2692
10.8619
17.1039
23.4721
29.2952
34.368
39.4196
43.5498
45.4868
47.3776
49.8271
46.8542
51.5694
46.7318
50.309
46.1215
45.585
41.6121
35.0188
31.6048
27.3365
23.8965
19.7075
16.5457
13.4727
11.9872
11.0756
10.9369
11.742
13.1101
15.5842
17.6492
20.4166
23.6999
26.7991
29.16
29.3765
29.1429
38.1671
38.2395
37.2515
36.2025
35.4376
34.8953
33.3271
30.8105
27.9929
24.1897
19.7272
15.7491
12.462
9.98466
8.30047
7.11677
6.6544
6.95667
7.93985
9.36244
11.0715
13.0648
15.5868
18.6951
21.6707
24.7479
28.4454
32.3965
35.7389
39.3911
43.0679
46.105
49.2713
51.5925
53.4726
54.9341
55.3904
55.682
55.6488
54.9324
54.2803
52.4728
49.3293
44.9134
38.8632
34.3172
32.1145
29.2576
25.67
22.5861
19.0356
15.2725
13.1417
12.5313
12.6224
13.9506
17.4411
22.903
28.7652
34.409
40.1811
45.4034
49.7857
53.7593
56.9121
59.4934
62.1618
64.4727
65.7965
66.0808
65.2414
62.6201
58.5656
53.9082
49.0834
44.2101
38.4341
31.6818
24.3227
16.6674
9.6182
3.18329
-3.62096
-11.009
-17.4335
-21.898
-24.4096
-25.3142
-24.5502
-21.824
-16.468
-9.76386
-2.3619
6.65463
16.2505
25.4723
33.6307
38.8112
42.0793
44.6382
46.8067
49.0106
50.7382
52.8969
55.0975
56.2892
56.5411
56.2842
55.5613
54.7078
54.0656
53.3413
52.4184
51.3363
50.0937
49.2179
48.5926
47.7544
46.8824
46.1442
45.573
45.2675
45.0277
44.8721
45.1551
45.585
46.0355
46.7591
47.7635
48.6956
49.6341
50.7916
51.7301
52.4169
53.0847
53.5643
53.9335
54.4046
54.8566
55.147
55.4283
55.8802
56.1203
55.1967
53.6963
51.9909
48.674
43.6097
37.8134
31.2547
23.0832
14.7692
8.11033
3.30141
-0.511955
-4.49608
-8.35591
-10.3968
-8.5943
-4.72132
-1.19108
1.79212
5.65945
11.2781
17.4867
23.8926
29.7178
34.7268
39.4726
43.902
46.0222
46.9456
50.9858
46.1926
51.8631
47.2388
50.8995
47.8674
44.6102
40.5679
35.4871
33.3342
29.35
25.9343
21.7065
18.4889
15.2474
13.6031
12.7546
12.6253
13.2044
14.0914
16.3582
18.297
20.8038
23.8543
26.586
28.8381
29.0064
28.6194
38.5018
38.4516
37.1365
35.991
35.0501
34.4142
33.1552
30.8979
28.4349
25.1592
21.346
17.8186
14.7412
12.501
10.8545
9.70046
9.26057
9.32923
9.98201
11.2415
12.5999
14.1124
16.1034
18.7693
21.4928
24.1289
27.4329
31.1892
34.3512
37.9595
41.6514
44.7677
48.0093
50.4227
52.3163
53.9059
54.4572
54.806
54.8134
53.7172
52.4304
50.4242
46.9144
42.2781
36.8253
33.4915
32.6365
30.944
28.254
25.8545
22.7992
19.4103
17.4509
16.7057
16.5806
17.6214
20.6046
25.4382
30.7425
35.8493
41.0165
45.7893
49.8679
53.556
56.618
59.2128
61.876
64.2334
65.6762
66.0329
65.184
62.6179
58.6438
54.0566
49.3377
44.6082
39.1057
32.5438
25.37
17.864
10.9795
4.72231
-1.67759
-8.65213
-14.9408
-19.5793
-22.3448
-23.4022
-22.5911
-19.7915
-14.5495
-7.93359
-0.314529
8.64725
17.8444
27.0497
34.8781
39.8122
43.1487
45.5835
47.8002
50.0495
51.8653
54.3236
56.7695
58.1263
58.5179
58.2334
57.4275
56.4278
55.6041
54.7302
53.6936
52.5146
51.2825
50.2118
49.4965
48.6171
47.7
46.9214
46.3624
46.0193
45.715
45.5793
45.8318
46.1752
46.5947
47.2939
48.2414
49.1379
50.038
51.1363
52.0795
52.7904
53.4734
53.9264
54.2679
54.7095
55.1373
55.4087
55.7179
56.2017
56.3925
55.5123
53.9741
52.2287
48.9449
43.8869
38.1238
31.5685
23.3589
15.0393
8.29749
3.42164
-0.380373
-4.23003
-7.81951
-9.66617
-7.61143
-3.79158
-0.277267
2.43672
6.17895
11.8091
18.1591
24.442
30.3192
35.3205
39.7617
44.2709
46.7381
46.7786
51.9726
45.4733
52.5219
49.2183
50.4282
47.968
43.561
40.3758
36.8265
35.1997
31.2554
27.6721
23.4095
20.1411
17.0492
15.3841
14.4449
14.1166
14.5045
15.0471
17.0944
18.9663
21.1326
23.9841
26.2955
28.4234
28.6472
28.1576
38.7674
38.6331
37.0885
35.8724
34.8464
34.0891
33.0371
31.0335
28.852
26.1001
22.8697
19.6756
16.8148
14.756
13.1916
12.1527
11.6893
11.5751
11.9148
12.8961
14.0298
15.0708
16.5474
18.7473
21.1639
23.4231
26.2929
29.8446
32.827
36.3379
40.0718
43.3004
46.6873
49.2247
51.219
52.9392
53.5758
54.0471
54.127
52.6888
50.685
48.2895
44.3023
39.4437
34.6383
32.6
33.171
32.6921
30.9697
29.3079
26.7425
23.7439
21.8982
20.9403
20.6125
21.3833
23.85
28.0263
32.7349
37.2734
41.8545
46.1498
49.8511
53.2207
56.1743
58.7713
61.4054
63.8005
65.3562
65.7733
64.9045
62.4405
58.6076
54.1922
49.6165
45.0252
39.8385
33.573
26.55
19.2289
12.4416
6.3462
0.365114
-6.16062
-12.1523
-16.8373
-19.8043
-21.035
-20.2306
-17.4582
-12.3757
-5.77987
1.96545
10.6753
19.6064
28.7112
36.0511
40.7992
44.1864
46.5123
48.7981
51.0277
52.9915
55.6674
58.2583
59.7841
60.2392
59.9468
59.0835
57.9679
57.0076
56.0145
54.8908
53.6339
52.3012
51.1653
50.3304
49.4244
48.4898
47.6798
47.1089
46.7173
46.3838
46.2536
46.44
46.7179
47.1054
47.7329
48.6388
49.547
50.4249
51.4602
52.4143
53.176
53.8691
54.2846
54.5975
55.0014
55.3925
55.664
56.0065
56.5288
56.674
55.8108
54.2585
52.5002
49.2792
44.2716
38.5394
32.0156
23.8146
15.4968
8.70907
3.74003
-0.0220865
-3.69167
-6.93725
-8.13635
-6.29736
-2.5927
1.10934
3.28326
6.8902
12.521
19.0492
25.1809
31.111
36.1343
40.3014
44.7593
47.8267
46.41
52.0174
45.7662
53.4424
51.3847
49.3613
46.6503
43.05
41.3987
38.5668
36.8459
32.8745
29.1701
25.0616
21.9643
18.9808
17.0454
15.9774
15.5867
15.7443
16.0555
17.8558
19.6235
21.4379
24.103
26.0043
27.9192
28.3447
27.7789
38.9467
38.7732
37.1313
35.8913
34.7643
33.8818
32.9522
31.1812
29.2563
26.9791
24.2458
21.3501
18.7534
16.8936
15.3756
14.4382
13.9377
13.6273
13.7668
14.4549
15.3313
15.9996
16.9248
18.6317
20.7094
22.5371
25.0124
28.322
31.1857
34.5788
38.3108
41.6747
45.2691
47.9817
50.1323
52.0394
52.7881
53.3945
53.5248
51.8388
49.064
45.6948
41.5821
36.5182
32.368
31.7067
33.7252
34.4811
33.7736
32.9398
30.8411
28.2243
26.4043
25.1966
24.6761
25.1805
27.1472
30.6408
34.7468
38.6837
42.6304
46.4412
49.7597
52.7733
55.5763
58.1665
60.7529
63.165
64.814
65.2939
64.41
62.0607
58.4572
54.2717
49.9327
45.4975
40.5993
34.7052
27.9083
20.7425
14.036
8.04461
2.34958
-3.6003
-9.19277
-13.778
-16.8113
-17.8821
-17.4348
-14.7893
-9.88608
-3.30519
4.37458
12.7584
21.5594
30.3407
37.1263
41.7719
45.1889
47.442
49.7661
52.0111
54.1108
56.8894
59.6244
61.2561
61.7064
61.4516
60.5152
59.3356
58.2939
57.2281
56.0119
54.6695
53.2657
52.0506
51.109
50.1949
49.2624
48.4149
47.7999
47.3964
47.0537
46.8741
46.9802
47.2087
47.5741
48.1147
48.9751
49.919
50.791
51.775
52.7521
53.5888
54.2877
54.6479
54.9165
55.286
55.6281
55.9054
56.2894
56.8413
56.9439
56.0942
54.5221
52.7944
49.7064
44.7465
38.9918
32.4751
24.4338
16.1638
9.30734
4.28308
0.529561
-2.90803
-5.80542
-6.81816
-4.75894
-1.16563
3.0499
4.07173
7.67227
13.4743
20.231
26.2168
31.8863
37.1601
41.0154
45.036
49.2419
45.6724
51.8828
48.4381
53.0718
51.3748
48.1353
45.6212
43.5304
42.9908
40.1561
38.2427
34.4229
30.9474
27.0408
23.7131
20.503
18.4507
17.4262
17.0601
16.9122
17.1261
18.7603
20.2503
21.7798
24.2107
25.7361
27.4205
28.0906
27.5169
39.0666
38.8597
37.2331
35.982
34.8071
33.8242
32.9115
31.3863
29.681
27.7592
25.488
22.9104
20.5834
18.9079
17.4444
16.5347
16.0529
15.6073
15.5392
15.9581
16.5463
16.8395
17.2917
18.4099
20.1172
21.5252
23.499
26.5457
29.3195
32.6256
36.3729
39.9022
43.7209
46.6914
49.0713
51.1598
52.0854
52.8164
52.9877
51.1796
47.7528
43.6415
38.8979
33.6728
30.1883