/*--------------------------------*- C++ -*----------------------------------*\
| =========                 |                                                 |
| \\      /  F ield         | OpenFOAM: The Open Source CFD Toolbox           |
|  \\    /   O peration     | Version:  2.4.0                                 |
|   \\  /    A nd           | Web:      www.OpenFOAM.org                      |
|    \\/     M anipulation  |                                                 |
\*---------------------------------------------------------------------------*/
FoamFile
{
    version     2.0;
    format      ascii;
    class       volVectorField;
    location    "0.213";
    object      U;
}
// * * * * * * * * * * * * * * * * * * * * * * * * * * * * * * * * * * * * * //

dimensions      [0 1 -1 0 0 0 0];

internalField   nonuniform List<vector> 
17600
(
(5.32798 0.30946 0)
(2.98276 0.0607006 0)
(2.19949 -0.00188669 0)
(1.84502 -0.00299517 0)
(1.71188 -0.00185668 0)
(1.60527 0.000114956 0)
(1.54581 0.00026654 0)
(1.46669 -0.000512614 0)
(1.45348 9.61547e-06 0)
(1.37992 0.000377658 0)
(1.39821 -0.000715223 0)
(1.33855 -3.37155e-05 0)
(1.34468 0.00113719 0)
(1.3103 -0.0017064 0)
(1.3157 0.000857608 0)
(1.29579 -0.000789726 0)
(1.3038 6.93385e-05 0)
(1.3048 -0.00246425 0)
(1.41845 0.00378685 0)
(0.839205 -0.0784186 0)
(8.59838 0.872164 0)
(6.94406 0.383444 0)
(5.81878 0.120821 0)
(5.04511 0.0524066 0)
(4.6722 0.0267173 0)
(4.35546 0.0213649 0)
(4.20624 0.0173486 0)
(3.97991 0.0103159 0)
(3.94485 0.0106804 0)
(3.73401 0.00804456 0)
(3.79096 0.00371346 0)
(3.6021 0.00628918 0)
(3.6377 0.00674639 0)
(3.53669 -0.000707153 0)
(3.53135 0.00562501 0)
(3.47895 -0.00100135 0)
(3.49201 0.00363247 0)
(3.44673 -0.0185575 0)
(3.64592 0.031542 0)
(3.19678 -0.214972 0)
(9.85623 1.02278 0)
(9.33683 0.577008 0)
(8.48816 0.240139 0)
(7.61803 0.132134 0)
(7.13108 0.079325 0)
(6.65196 0.059158 0)
(6.45601 0.0467819 0)
(6.10223 0.030027 0)
(6.06652 0.0299275 0)
(5.73119 0.0213683 0)
(5.82703 0.0128832 0)
(5.52806 0.0182574 0)
(5.5838 0.0143695 0)
(5.43874 0.00436345 0)
(5.40524 0.0136725 0)
(5.34343 -0.000197933 0)
(5.33071 0.0103131 0)
(5.30088 -0.0311522 0)
(5.39611 0.0241707 0)
(5.27503 -0.248594 0)
(10.1586 0.949029 0)
(10.5566 0.667532 0)
(10.2823 0.329654 0)
(9.60119 0.212116 0)
(9.18622 0.144578 0)
(8.61704 0.109009 0)
(8.44321 0.0864044 0)
(7.98067 0.0574099 0)
(7.97211 0.0562554 0)
(7.5325 0.0400957 0)
(7.66143 0.0257448 0)
(7.2874 0.0359109 0)
(7.34007 0.0234161 0)
(7.18411 0.0134475 0)
(7.10251 0.0240891 0)
(7.06478 0.00350965 0)
(6.97495 0.0157497 0)
(7.04738 -0.0353685 0)
(6.92187 0.00988104 0)
(7.08554 -0.300068 0)
(10.0713 0.807822 0)
(10.9012 0.667218 0)
(11.1707 0.357417 0)
(10.8273 0.257676 0)
(10.6812 0.199472 0)
(10.1345 0.159356 0)
(10.0741 0.129242 0)
(9.55194 0.0887495 0)
(9.60279 0.0861633 0)
(9.10454 0.0631102 0)
(9.25461 0.0402591 0)
(8.85925 0.0582143 0)
(8.8844 0.0330777 0)
(8.75412 0.0254845 0)
(8.61209 0.0357309 0)
(8.62802 0.0110839 0)
(8.43775 0.018099 0)
(8.61977 -0.0322854 0)
(8.34788 5.67514e-05 0)
(8.55926 -0.364768 0)
(9.9853 0.695009 0)
(10.8186 0.630605 0)
(11.3781 0.337717 0)
(11.2625 0.252129 0)
(11.4713 0.219127 0)
(11.0506 0.192086 0)
(11.1974 0.16197 0)
(10.7078 0.117239 0)
(10.8549 0.113981 0)
(10.3719 0.0877756 0)
(10.5348 0.0536917 0)
(10.1819 0.0830381 0)
(10.1714 0.0428827 0)
(10.0904 0.0385928 0)
(9.90614 0.0474296 0)
(9.96945 0.0213187 0)
(9.73343 0.0196884 0)
(9.92394 -0.0286099 0)
(9.68271 -0.00345796 0)
(9.8114 -0.377168 0)
(9.97904 0.608281 0)
(10.6538 0.590929 0)
(11.3497 0.313431 0)
(11.2207 0.220414 0)
(11.6745 0.203541 0)
(11.3521 0.197378 0)
(11.7114 0.170828 0)
(11.3319 0.131296 0)
(11.604 0.128899 0)
(11.229 0.107263 0)
(11.4079 0.061205 0)
(11.1624 0.10546 0)
(11.1443 0.0515494 0)
(11.1131 0.0498345 0)
(10.9439 0.0593297 0)
(11.0143 0.0292536 0)
(10.8363 0.0249552 0)
(10.9263 -0.0280771 0)
(10.82 -0.00589758 0)
(10.8754 -0.326192 0)
(10.0138 0.535417 0)
(10.4864 0.543085 0)
(11.3022 0.301597 0)
(11.1025 0.192725 0)
(11.6219 0.176404 0)
(11.3521 0.189577 0)
(11.7664 0.160847 0)
(11.5009 0.130304 0)
(11.8336 0.125615 0)
(11.6226 0.114825 0)
(11.8041 0.0576175 0)
(11.6984 0.117302 0)
(11.7295 0.0552427 0)
(11.7368 0.0542865 0)
(11.651 0.068322 0)
(11.7027 0.0328222 0)
(11.6546 0.0279205 0)
(11.6335 -0.0231093 0)
(11.659 -0.0247739 0)
(11.6566 -0.216625 0)
(10.0622 0.472815 0)
(10.3561 0.488722 0)
(11.2041 0.285837 0)
(11.088 0.176686 0)
(11.4845 0.145712 0)
(11.3393 0.181806 0)
(11.6429 0.143859 0)
(11.495 0.126138 0)
(11.767 0.109974 0)
(11.7179 0.113755 0)
(11.8536 0.0459157 0)
(11.8318 0.117953 0)
(11.9396 0.0492806 0)
(11.9527 0.0526351 0)
(11.9623 0.0678276 0)
(12.0159 0.0304337 0)
(12.0832 0.0239827 0)
(12.0346 -0.0192125 0)
(12.121 -0.0453738 0)
(12.11 -0.175764 0)
(10.0778 0.418694 0)
(10.3255 0.434566 0)
(11.0009 0.26787 0)
(11.136 0.158741 0)
(11.3446 0.123012 0)
(11.3677 0.168994 0)
(11.5441 0.130959 0)
(11.4781 0.118519 0)
(11.6214 0.0925755 0)
(11.7069 0.106128 0)
(11.7764 0.0381849 0)
(11.7781 0.109741 0)
(11.9535 0.042688 0)
(11.9451 0.0440658 0)
(11.9929 0.0677754 0)
(12.0784 0.0142627 0)
(12.1702 0.0211916 0)
(12.1566 -0.0295298 0)
(12.2447 -0.0507105 0)
(12.2023 -0.224708 0)
(10.0208 0.364339 0)
(10.355 0.394343 0)
(10.8568 0.243734 0)
(11.1258 0.142803 0)
(11.2523 0.0951326 0)
(11.4066 0.157639 0)
(11.4918 0.116028 0)
(11.4318 0.123134 0)
(11.5296 0.0726847 0)
(11.6349 0.0983321 0)
(11.6759 0.0321061 0)
(11.7196 0.09853 0)
(11.9081 0.0303088 0)
(11.8772 0.0423199 0)
(11.9561 0.05582 0)
(12.0536 0.00763332 0)
(12.1261 0.00664146 0)
(12.1231 -0.0312483 0)
(12.2133 -0.0796902 0)
(12.0736 -0.224984 0)
(9.96036 0.318975 0)
(10.4234 0.343952 0)
(10.7981 0.229697 0)
(11.0523 0.122446 0)
(11.1861 0.0695084 0)
(11.3764 0.139694 0)
(11.3936 0.113881 0)
(11.4066 0.119361 0)
(11.5181 0.0612124 0)
(11.5644 0.0898559 0)
(11.6172 0.0259188 0)
(11.7089 0.0813377 0)
(11.8401 0.0276228 0)
(11.7889 0.0325826 0)
(11.9021 0.0494192 0)
(12.0095 -0.00704938 0)
(12.0596 0.00251997 0)
(12.0459 -0.0449105 0)
(12.135 -0.0888356 0)
(11.9824 -0.220176 0)
(9.96943 0.270069 0)
(10.458 0.296118 0)
(10.7226 0.218404 0)
(10.9912 0.110677 0)
(11.128 0.041301 0)
(11.2765 0.128726 0)
(11.3439 0.100031 0)
(11.4188 0.10945 0)
(11.4839 0.0506829 0)
(11.5316 0.0838169 0)
(11.5998 0.0176179 0)
(11.6712 0.06738 0)
(11.7598 0.0280396 0)
(11.7357 0.0263093 0)
(11.8686 0.0339789 0)
(11.9465 -0.014893 0)
(12.0097 -0.00432155 0)
(12.0012 -0.0567774 0)
(12.0592 -0.10135 0)
(12.0124 -0.247485 0)
(10.001 0.224798 0)
(10.4074 0.251437 0)
(10.641 0.204228 0)
(10.9658 0.0984816 0)
(11.0986 0.024154 0)
(11.2152 0.111595 0)
(11.3548 0.080852 0)
(11.4014 0.102142 0)
(11.4155 0.0454184 0)
(11.4909 0.0705742 0)
(11.5848 0.0164384 0)
(11.618 0.0547511 0)
(11.6887 0.0288501 0)
(11.7311 0.0122022 0)
(11.8508 0.0263018 0)
(11.8892 -0.0245696 0)
(11.9759 -0.0153161 0)
(11.9668 -0.0551446 0)
(12.01 -0.139143 0)
(12.0159 -0.252974 0)
(10.0043 0.183186 0)
(10.3198 0.214474 0)
(10.6221 0.17638 0)
(10.9603 0.0867635 0)
(11.0801 0.00809413 0)
(11.2051 0.0947269 0)
(11.3268 0.0621965 0)
(11.3388 0.10091 0)
(11.3778 0.0384728 0)
(11.4597 0.0573681 0)
(11.5619 0.0110355 0)
(11.5971 0.0485954 0)
(11.6689 0.0199438 0)
(11.7188 0.00505081 0)
(11.8135 0.0112884 0)
(11.8391 -0.0249664 0)
(11.9368 -0.0293079 0)
(11.916 -0.0651673 0)
(11.9839 -0.143734 0)
(11.9495 -0.281909 0)
(9.97804 0.150888 0)
(10.3087 0.170814 0)
(10.6429 0.14261 0)
(10.92 0.0778036 0)
(11.0614 -0.00490193 0)
(11.1804 0.0775274 0)
(11.2628 0.0509763 0)
(11.2887 0.0902882 0)
(11.3699 0.0331588 0)
(11.4528 0.0379541 0)
(11.5433 0.0122538 0)
(11.5968 0.0322634 0)
(11.6577 0.0212015 0)
(11.6788 -0.00899424 0)
(11.7719 0.00956202 0)
(11.7968 -0.0421047 0)
(11.901 -0.0272321 0)
(11.8765 -0.0879132 0)
(11.9673 -0.139334 0)
(11.9108 -0.322236 0)
(9.97833 0.118779 0)
(10.3295 0.122721 0)
(10.5984 0.115526 0)
(10.8778 0.0711548 0)
(11.0621 -0.0189671 0)
(11.142 0.0648472 0)
(11.2312 0.0359344 0)
(11.2777 0.0791831 0)
(11.3621 0.023071 0)
(11.443 0.0244249 0)
(11.5206 0.00845793 0)
(11.5772 0.0248349 0)
(11.6135 0.0163531 0)
(11.6523 -0.00842954 0)
(11.7581 -0.0103516 0)
(11.7792 -0.0354132 0)
(11.8682 -0.0521171 0)
(11.8622 -0.079924 0)
(11.9573 -0.166279 0)
(11.8471 -0.238611 0)
(10.0035 0.0856939 0)
(10.2775 0.083015 0)
(10.539 0.0882722 0)
(10.8932 0.0570027 0)
(11.0682 -0.0287796 0)
(11.1165 0.0518462 0)
(11.2255 0.0202458 0)
(11.2713 0.0658462 0)
(11.3538 0.0154585 0)
(11.4251 0.0108796 0)
(11.4863 0.00720979 0)
(11.5467 0.0178776 0)
(11.593 0.00970897 0)
(11.665 -0.0158006 0)
(11.7599 -0.0236658 0)
(11.7472 -0.0364883 0)
(11.8343 -0.0657364 0)
(11.8686 -0.0866655 0)
(11.9506 -0.179218 0)
(11.788 -0.163857 0)
(9.99437 0.0592607 0)
(10.2377 0.0433881 0)
(10.5617 0.0519384 0)
(10.904 0.0405228 0)
(11.0534 -0.0335606 0)
(11.1016 0.0387361 0)
(11.2057 0.00697636 0)
(11.2602 0.0492342 0)
(11.3478 0.0119642 0)
(11.4122 -0.00490317 0)
(11.4641 0.0103766 0)
(11.5426 0.00232963 0)
(11.6031 0.00586286 0)
(11.674 -0.0275777 0)
(11.7425 -0.0262335 0)
(11.7044 -0.0466457 0)
(11.8255 -0.0662302 0)
(11.8759 -0.115558 0)
(11.9152 -0.164943 0)
(11.723 -0.186729 0)
(9.98068 0.0337056 0)
(10.2599 -0.00141426 0)
(10.5838 0.0171872 0)
(10.8629 0.0298537 0)
(11.0457 -0.0389884 0)
(11.1058 0.0266948 0)
(11.1868 -0.00986104 0)
(11.2598 0.0341631 0)
(11.352 0.00332288 0)
(11.4052 -0.0134887 0)
(11.4578 0.00423834 0)
(11.5493 -0.00382022 0)
(11.601 -0.00887411 0)
(11.6555 -0.0219979 0)
(11.7163 -0.0423901 0)
(11.7046 -0.0395381 0)
(11.8377 -0.0927531 0)
(11.8597 -0.115483 0)
(11.8655 -0.162959 0)
(11.7453 -0.229715 0)
(9.993 0.0060192 0)
(10.2696 -0.0452262 0)
(10.5495 -0.0108859 0)
(10.841 0.0157143 0)
(11.0761 -0.0462737 0)
(11.1126 0.0122628 0)
(11.1785 -0.0204434 0)
(11.2743 0.0117313 0)
(11.3543 0.002161 0)
(11.3943 -0.0285399 0)
(11.4588 0.00680511 0)
(11.5532 -0.0213653 0)
(11.5923 -0.00833561 0)
(11.6417 -0.0350243 0)
(11.7217 -0.0414846 0)
(11.7276 -0.0617056 0)
(11.8309 -0.086064 0)
(11.8354 -0.139565 0)
(11.8357 -0.155337 0)
(11.8287 -0.274368 0)
(10.0005 -0.0215756 0)
(10.2522 -0.0846292 0)
(10.55 -0.0418715 0)
(10.8708 -0.00336431 0)
(11.0958 -0.0556365 0)
(11.0984 0.00473493 0)
(11.1815 -0.0372955 0)
(11.2864 -0.00529565 0)
(11.3442 -0.00374542 0)
(11.3945 -0.0363419 0)
(11.4719 -0.00214413 0)
(11.56 -0.023813 0)
(11.5893 -0.0224232 0)
(11.6504 -0.0307255 0)
(11.7413 -0.061398 0)
(11.7264 -0.0565244 0)
(11.8181 -0.106345 0)
(11.83 -0.1323 0)
(11.8381 -0.180738 0)
(11.8764 -0.224785 0)
(9.99301 -0.0491711 0)
(10.2537 -0.126499 0)
(10.588 -0.0755245 0)
(10.8942 -0.0200869 0)
(11.0841 -0.0573034 0)
(11.0968 -0.00840418 0)
(11.2019 -0.0508806 0)
(11.2999 -0.0244178 0)
(11.3426 -0.00602988 0)
(11.4092 -0.0502144 0)
(11.4952 -0.00594886 0)
(11.565 -0.0318416 0)
(11.5842 -0.030613 0)
(11.6657 -0.0349689 0)
(11.7547 -0.0720228 0)
(11.7192 -0.0578682 0)
(11.8259 -0.119843 0)
(11.8349 -0.133643 0)
(11.8513 -0.204802 0)
(11.9015 -0.177754 0)
(9.98771 -0.0778191 0)
(10.2721 -0.170239 0)
(10.6176 -0.108227 0)
(10.8946 -0.0317749 0)
(11.085 -0.0637905 0)
(11.1295 -0.0225717 0)
(11.2243 -0.065173 0)
(11.3132 -0.0417585 0)
(11.3514 -0.0087941 0)
(11.4311 -0.0640784 0)
(11.5129 -0.0100853 0)
(11.5671 -0.0396949 0)
(11.5967 -0.0360196 0)
(11.6864 -0.0472938 0)
(11.7637 -0.0715167 0)
(11.739 -0.074484 0)
(11.8428 -0.113901 0)
(11.8331 -0.157174 0)
(11.8809 -0.201507 0)
(11.892 -0.218896 0)
(9.98551 -0.108334 0)
(10.2928 -0.215406 0)
(10.6449 -0.13849 0)
(10.905 -0.0442756 0)
(11.114 -0.0727029 0)
(11.1607 -0.0379294 0)
(11.2373 -0.0777358 0)
(11.3262 -0.0564829 0)
(11.3656 -0.0155932 0)
(11.4583 -0.0751709 0)
(11.5275 -0.0168641 0)
(11.5787 -0.041452 0)
(11.631 -0.0509322 0)
(11.7079 -0.04822 0)
(11.7753 -0.083534 0)
(11.7672 -0.0763275 0)
(11.8512 -0.124652 0)
(11.85 -0.160233 0)
(11.9162 -0.217976 0)
(11.8584 -0.26245 0)
(9.98667 -0.142735 0)
(10.3166 -0.258957 0)
(10.6745 -0.168956 0)
(10.9377 -0.0565672 0)
(11.1444 -0.082173 0)
(11.1788 -0.0530954 0)
(11.2516 -0.0867629 0)
(11.3497 -0.0745671 0)
(11.3979 -0.0204798 0)
(11.4842 -0.0889051 0)
(11.5446 -0.0183907 0)
(11.6125 -0.0538516 0)
(11.662 -0.0528713 0)
(11.7204 -0.0629865 0)
(11.7952 -0.0780753 0)
(11.7973 -0.0976977 0)
(11.8608 -0.11225 0)
(11.8944 -0.191248 0)
(11.9383 -0.206651 0)
(11.8123 -0.301654 0)
(9.99304 -0.179885 0)
(10.3382 -0.303516 0)
(10.7247 -0.198036 0)
(10.9769 -0.0697439 0)
(11.1629 -0.0932739 0)
(11.2022 -0.0657326 0)
(11.278 -0.100684 0)
(11.387 -0.0882625 0)
(11.435 -0.0307393 0)
(11.5061 -0.0940439 0)
(11.5782 -0.0309693 0)
(11.6486 -0.0523462 0)
(11.6828 -0.0698061 0)
(11.746 -0.0583053 0)
(11.831 -0.0956709 0)
(11.8274 -0.0933536 0)
(11.8925 -0.134274 0)
(11.949 -0.183764 0)
(11.9289 -0.228213 0)
(11.8094 -0.237695 0)
(10.0071 -0.221929 0)
(10.3647 -0.34901 0)
(10.7929 -0.222862 0)
(11.0014 -0.0821147 0)
(11.1903 -0.103593 0)
(11.238 -0.0821223 0)
(11.3124 -0.111152 0)
(11.4343 -0.104276 0)
(11.467 -0.036353 0)
(11.5349 -0.104549 0)
(11.6227 -0.0386059 0)
(11.6804 -0.0585587 0)
(11.7095 -0.0763122 0)
(11.7916 -0.0673925 0)
(11.877 -0.101212 0)
(11.867 -0.100232 0)
(11.9361 -0.143825 0)
(11.9799 -0.185321 0)
(11.9336 -0.242735 0)
(11.8641 -0.194079 0)
(10.0387 -0.268276 0)
(10.389 -0.397799 0)
(10.8714 -0.238047 0)
(11.0048 -0.0968575 0)
(11.2477 -0.121212 0)
(11.2664 -0.0967996 0)
(11.3626 -0.12351 0)
(11.4761 -0.11962 0)
(11.5076 -0.042183 0)
(11.5687 -0.114087 0)
(11.6726 -0.0479315 0)
(11.709 -0.0642074 0)
(11.7594 -0.0814496 0)
(11.8512 -0.0815664 0)
(11.9228 -0.0986395 0)
(11.9147 -0.116937 0)
(11.9766 -0.136815 0)
(11.9951 -0.205636 0)
(11.9597 -0.228341 0)
(11.9222 -0.250235 0)
(10.0664 -0.322457 0)
(10.4185 -0.445642 0)
(10.9493 -0.247412 0)
(11.0048 -0.114825 0)
(11.3333 -0.140637 0)
(11.2781 -0.111538 0)
(11.4355 -0.136414 0)
(11.5058 -0.130487 0)
(11.5664 -0.0514794 0)
(11.5931 -0.120782 0)
(11.7413 -0.0594244 0)
(11.7435 -0.0677926 0)
(11.8422 -0.0941887 0)
(11.9036 -0.0882162 0)
(11.9798 -0.103109 0)
(11.9493 -0.122239 0)
(12.0112 -0.140289 0)
(12.0108 -0.208344 0)
(12.0065 -0.235652 0)
(11.9591 -0.29695 0)
(10.0748 -0.382821 0)
(10.471 -0.492458 0)
(10.9933 -0.253425 0)
(11.0417 -0.135967 0)
(11.4205 -0.164033 0)
(11.2917 -0.124012 0)
(11.5238 -0.150866 0)
(11.5313 -0.138924 0)
(11.6311 -0.0617667 0)
(11.6346 -0.128075 0)
(11.8311 -0.0731386 0)
(11.7911 -0.0729748 0)
(11.9366 -0.10495 0)
(11.9287 -0.0958657 0)
(12.0306 -0.103092 0)
(11.9495 -0.12819 0)
(12.0398 -0.139036 0)
(11.9913 -0.21683 0)
(12.0043 -0.235328 0)
(11.8811 -0.346065 0)
(10.0748 -0.450136 0)
(10.5201 -0.535876 0)
(11.0269 -0.259613 0)
(11.1481 -0.166374 0)
(11.4773 -0.182694 0)
(11.3296 -0.138049 0)
(11.6177 -0.165465 0)
(11.5604 -0.14434 0)
(11.7113 -0.0746975 0)
(11.7058 -0.137591 0)
(11.8898 -0.0861755 0)
(11.8227 -0.0775874 0)
(11.9587 -0.113023 0)
(11.8805 -0.0991558 0)
(11.9873 -0.103733 0)
(11.8463 -0.128909 0)
(11.935 -0.138664 0)
(11.7874 -0.216397 0)
(11.7651 -0.225746 0)
(11.5141 -0.361842 0)
(10.0571 -0.523328 0)
(10.5718 -0.572962 0)
(11.1141 -0.274515 0)
(11.277 -0.196299 0)
(11.502 -0.198698 0)
(11.4185 -0.155267 0)
(11.6961 -0.17751 0)
(11.5742 -0.149937 0)
(11.7618 -0.0909545 0)
(11.679 -0.141842 0)
(11.7882 -0.093325 0)
(11.6919 -0.0808586 0)
(11.7477 -0.112101 0)
(11.603 -0.0974199 0)
(11.6626 -0.10092 0)
(11.4588 -0.120453 0)
(11.4862 -0.135611 0)
(11.2523 -0.193834 0)
(11.1558 -0.221651 0)
(10.8329 -0.304928 0)
(10.0246 -0.602818 0)
(10.6695 -0.604952 0)
(11.2405 -0.297137 0)
(11.3802 -0.225708 0)
(11.5185 -0.216762 0)
(11.4762 -0.174102 0)
(11.6187 -0.182109 0)
(11.4081 -0.150117 0)
(11.5353 -0.0992532 0)
(11.31 -0.13279 0)
(11.3267 -0.089967 0)
(11.1747 -0.0759889 0)
(11.1366 -0.0996753 0)
(10.9378 -0.0881369 0)
(10.9438 -0.0885246 0)
(10.6917 -0.106503 0)
(10.6704 -0.118718 0)
(10.3765 -0.170003 0)
(10.2412 -0.195108 0)
(9.85418 -0.248077 0)
(10.0198 -0.691869 0)
(10.8105 -0.636409 0)
(11.3332 -0.330661 0)
(11.3659 -0.25561 0)
(11.3385 -0.228085 0)
(11.1793 -0.177172 0)
(11.0997 -0.167437 0)
(10.7795 -0.13487 0)
(10.7873 -0.089908 0)
(10.4567 -0.109186 0)
(10.4093 -0.0758986 0)
(10.2188 -0.0620158 0)
(10.1248 -0.0797314 0)
(9.90791 -0.0725503 0)
(9.87777 -0.0717712 0)
(9.61069 -0.0870668 0)
(9.55636 -0.0975429 0)
(9.23926 -0.14172 0)
(9.07631 -0.155503 0)
(8.65144 -0.212202 0)
(10.0923 -0.805744 0)
(10.8907 -0.669674 0)
(11.1568 -0.355653 0)
(10.8898 -0.258374 0)
(10.582 -0.206045 0)
(10.2414 -0.149404 0)
(9.98818 -0.131027 0)
(9.61271 -0.104572 0)
(9.53795 -0.0674038 0)
(9.18311 -0.079254 0)
(9.11065 -0.0572626 0)
(8.91278 -0.0445745 0)
(8.80021 -0.0580408 0)
(8.59241 -0.0552445 0)
(8.53952 -0.0536589 0)
(8.28415 -0.0656498 0)
(8.20756 -0.0753735 0)
(7.8973 -0.107497 0)
(7.70971 -0.123303 0)
(7.30146 -0.147682 0)
(10.1704 -0.947642 0)
(10.5503 -0.668506 0)
(10.2804 -0.330086 0)
(9.63702 -0.210956 0)
(9.11857 -0.150033 0)
(8.6928 -0.102281 0)
(8.38049 -0.0864223 0)
(8.02435 -0.0703911 0)
(7.91525 -0.0423571 0)
(7.59763 -0.0507958 0)
(7.52183 -0.0386726 0)
(7.34029 -0.0276152 0)
(7.23578 -0.03785 0)
(7.05173 -0.0381364 0)
(6.98817 -0.0357945 0)
(6.76436 -0.0448546 0)
(6.67747 -0.0522027 0)
(6.39168 -0.0752061 0)
(6.20338 -0.086271 0)
(5.81305 -0.098923 0)
(9.86241 -1.02184 0)
(9.33537 -0.577398 0)
(8.48955 -0.241345 0)
(7.63661 -0.130137 0)
(7.08962 -0.0838169 0)
(6.69755 -0.0546416 0)
(6.41828 -0.0460584 0)
(6.12768 -0.0395284 0)
(6.02195 -0.0206306 0)
(5.77864 -0.0271313 0)
(5.71008 -0.0221757 0)
(5.56403 -0.013462 0)
(5.48386 -0.0208499 0)
(5.33264 -0.0225256 0)
(5.27046 -0.0199982 0)
(5.09192 -0.0260778 0)
(5.0063 -0.030682 0)
(4.76382 -0.0452436 0)
(4.59017 -0.0514397 0)
(4.24347 -0.0590213 0)
(8.60178 -0.871783 0)
(6.94567 -0.38365 0)
(5.81866 -0.12179 0)
(5.05396 -0.0506253 0)
(4.64957 -0.029688 0)
(4.37795 -0.0188659 0)
(4.1882 -0.0165585 0)
(3.99052 -0.01587 0)
(3.91442 -0.00565086 0)
(3.76395 -0.0101081 0)
(3.71023 -0.00937137 0)
(3.61383 -0.00379925 0)
(3.56447 -0.00818161 0)
(3.45662 -0.00988995 0)
(3.40623 -0.0079258 0)
(3.28419 -0.0110413 0)
(3.21322 -0.0131504 0)
(3.03517 -0.0203961 0)
(2.89281 -0.0225676 0)
(2.63429 -0.0261068 0)
(5.32891 -0.309353 0)
(2.98494 -0.0607177 0)
(2.19757 0.0015621 0)
(1.84803 0.00379545 0)
(1.70467 0.000760592 0)
(1.60937 0.000637447 0)
(1.54376 9.67048e-05 0)
(1.46731 -0.00111321 0)
(1.43872 0.00139615 0)
(1.3928 -0.000402316 0)
(1.36608 -0.000931925 0)
(1.33048 0.000830884 0)
(1.3159 -0.000419707 0)
(1.26976 -0.000980184 0)
(1.24365 -0.000260958 0)
(1.19439 -0.00083422 0)
(1.15867 -0.000880484 0)
(1.07784 -0.00222574 0)
(1.00175 -0.00218918 0)
(0.888382 0.00274027 0)
(2.82882 -0.991689 0)
(2.5029 -0.661464 0)
(1.83286 -0.718545 0)
(1.93651 -0.850786 0)
(2.7633 -0.0474511 0)
(2.95093 1.78822 0)
(4.51498 2.28948 0)
(6.28871 2.37323 0)
(7.19272 3.55562 0)
(8.54108 3.62963 0)
(9.85656 2.13525 0)
(10.5975 1.48588 0)
(11.1 0.887347 0)
(12.2528 -0.379662 0)
(12.0815 -1.00034 0)
(12.2998 -1.91345 0)
(12.8531 -3.22463 0)
(12.0832 -3.7284 0)
(11.8227 -4.0955 0)
(12.2719 -5.1146 0)
(12.8987 -5.91865 0)
(13.183 -6.66737 0)
(12.8248 -7.12058 0)
(12.1137 -6.89259 0)
(11.3029 -6.62858 0)
(10.66 -6.18584 0)
(10.2752 -5.89384 0)
(9.54684 -5.5146 0)
(9.07993 -4.59066 0)
(8.49579 -4.33199 0)
(8.02477 -3.84703 0)
(7.72142 -3.13074 0)
(7.18098 -2.78148 0)
(6.85939 -2.5929 0)
(6.30108 -2.02011 0)
(6.20438 -0.436111 0)
(6.09116 -0.491394 0)
(4.7432 -0.940696 0)
(4.8389 0.586903 0)
(5.92862 1.58051 0)
(6.23437 2.03345 0)
(6.70822 3.51455 0)
(7.68416 5.93073 0)
(8.57997 8.14375 0)
(9.66549 8.88566 0)
(9.76976 9.01035 0)
(9.62448 8.83902 0)
(9.38395 7.71445 0)
(8.6685 6.35388 0)
(7.96344 5.4543 0)
(7.57608 4.85018 0)
(7.30164 3.97856 0)
(7.24546 2.66824 0)
(7.45685 1.00236 0)
(7.60726 -1.00303 0)
(7.51393 -3.24548 0)
(7.23468 -5.25746 0)
(7.11407 -6.62835 0)
(7.00846 -7.56401 0)
(6.81253 -7.88583 0)
(6.84875 -7.55124 0)
(6.85364 -7.19485 0)
(6.66556 -6.77679 0)
(6.61309 -5.88606 0)
(6.70255 -5.03113 0)
(6.60071 -4.96834 0)
(6.35812 -4.98363 0)
(6.07242 -4.37131 0)
(5.94099 -3.49195 0)
(5.79342 -3.72152 0)
(5.54903 -4.99423 0)
(5.62694 -6.22409 0)
(5.48944 -7.087 0)
(5.66538 -7.41193 0)
(5.59737 -7.47574 0)
(5.50984 -7.72953 0)
(5.63675 -7.99898 0)
(5.56214 -8.31761 0)
(5.66003 -8.07738 0)
(5.86954 -7.01925 0)
(5.78265 -6.13192 0)
(5.88076 -5.76038 0)
(6.34618 -5.3729 0)
(6.88639 -4.2635 0)
(7.40202 -2.61748 0)
(7.32814 -1.33531 0)
(7.47372 -0.204007 0)
(7.96346 1.10124 0)
(8.36387 2.36401 0)
(8.78622 3.93829 0)
(8.80299 5.13148 0)
(8.51753 5.71058 0)
(8.71306 6.9055 0)
(9.33324 8.7252 0)
(9.45054 9.70054 0)
(9.09297 9.2684 0)
(8.77762 8.40797 0)
(9.01003 8.10691 0)
(9.72504 8.49842 0)
(10.5697 9.1318 0)
(11.3336 9.51129 0)
(11.5881 9.40251 0)
(11.6064 8.87719 0)
(11.4044 8.10928 0)
(10.9286 7.03916 0)
(10.5018 5.82897 0)
(10.1075 4.49363 0)
(9.74418 3.29518 0)
(9.45373 2.3428 0)
(9.18399 1.35169 0)
(9.08429 0.612378 0)
(9.05227 0.396305 0)
(9.34595 0.00743005 0)
(9.30071 -0.208525 0)
(8.92907 -0.340526 0)
(9.01215 -0.71491 0)
(9.06685 -0.634338 0)
(9.36463 -0.385434 0)
(9.648 -0.43873 0)
(9.68133 -0.528191 0)
(9.73767 -0.792869 0)
(9.89165 -0.9949 0)
(9.72996 -0.959419 0)
(9.72965 -0.961203 0)
(9.35072 -1.10299 0)
(9.25686 -1.43401 0)
(9.01485 -1.87678 0)
(8.98591 -2.30816 0)
(8.60742 -2.67297 0)
(8.39312 -3.19889 0)
(8.06086 -3.78013 0)
(7.73241 -4.23141 0)
(7.18036 -4.30572 0)
(6.92775 -4.34467 0)
(6.44524 -4.08015 0)
(6.18169 -3.3323 0)
(5.8606 -2.75294 0)
(6.10984 -2.52212 0)
(6.16274 -2.59573 0)
(6.54502 -2.80526 0)
(6.39468 -2.61896 0)
(6.52143 -1.9566 0)
(5.83078 -2.30557 0)
(6.25435 -3.00809 0)
(6.24181 -3.59455 0)
(6.61664 -4.67137 0)
(6.87636 -5.98913 0)
(7.33014 -6.40837 0)
(7.50225 -6.51144 0)
(7.73866 -6.73213 0)
(8.18808 -6.77883 0)
(8.46472 -6.27427 0)
(8.61869 -5.05515 0)
(8.53016 -4.00439 0)
(8.39642 -3.41761 0)
(8.46634 -2.34543 0)
(8.47887 -1.05937 0)
(8.73595 -0.119651 0)
(8.81118 1.07293 0)
(8.65109 2.55866 0)
(8.58251 3.53251 0)
(8.62058 4.11045 0)
(8.70431 5.31435 0)
(8.65169 6.94464 0)
(8.47578 7.88976 0)
(8.41634 8.37798 0)
(8.24466 8.78885 0)
(7.94618 8.93493 0)
(7.57454 8.82825 0)
(7.20356 8.36177 0)
(6.79513 7.67098 0)
(6.37908 7.13195 0)
(6.12925 6.50346 0)
(5.9555 5.84101 0)
(5.84376 5.73654 0)
(5.86975 5.73597 0)
(5.81806 5.89879 0)
(5.84207 6.24798 0)
(6.06593 6.78446 0)
(5.71712 7.22363 0)
(6.5186 6.49127 0)
(5.09549 7.22206 0)
(7.57287 4.79894 0)
(1.64598 5.87803 0)
(10.7466 3.37015 0)
(4.17395 5.02306 0)
(9.29758 1.45078 0)
(5.16065 3.26517 0)
(8.80335 -0.196592 0)
(5.90896 1.08893 0)
(8.6006 -1.64036 0)
(6.43826 -0.79326 0)
(7.32269 -3.10803 0)
(6.39007 -1.74975 0)
(6.02139 -3.74969 0)
(5.54031 -1.92255 0)
(5.0544 -3.44836 0)
(3.28732 -0.810046 0)
(4.19102 -2.57432 0)
(3.97987 3.03939 0)
(4.05033 -0.968364 0)
(3.90305 -0.697242 0)
(3.83818 -0.411925 0)
(3.45204 -0.677631 0)
(2.85413 -0.179013 0)
(2.95931 1.37863 0)
(5.18403 1.51215 0)
(6.68237 1.73536 0)
(7.56438 3.10807 0)
(8.95663 3.13612 0)
(10.303 1.80745 0)
(10.812 1.27476 0)
(11.5949 0.631666 0)
(12.4933 -0.524272 0)
(12.4303 -1.13271 0)
(12.507 -1.9843 0)
(12.763 -3.08974 0)
(12.1123 -3.55977 0)
(12.4728 -4.24878 0)
(13.2382 -5.40417 0)
(13.5603 -6.06801 0)
(13.4549 -6.59501 0)
(12.9043 -6.88089 0)
(12.2074 -6.64266 0)
(11.4314 -6.35301 0)
(10.8507 -5.91337 0)
(10.3904 -5.67937 0)
(9.70171 -5.31242 0)
(9.22097 -4.39532 0)
(8.78563 -4.11197 0)
(8.17721 -3.69701 0)
(7.89723 -2.9739 0)
(7.3994 -2.59325 0)
(7.03723 -2.42821 0)
(6.5669 -1.91386 0)
(6.22224 -0.356667 0)
(6.42999 -0.165722 0)
(5.34768 -0.77028 0)
(4.98137 0.360984 0)
(6.0971 1.38002 0)
(6.52505 1.83558 0)
(6.84944 3.13921 0)
(7.85842 5.49251 0)
(8.87633 7.75733 0)
(10.0451 8.68036 0)
(10.1152 9.03002 0)
(9.96137 8.96467 0)
(9.71456 7.93186 0)
(9.0346 6.60709 0)
(8.33883 5.68639 0)
(7.90547 5.0036 0)
(7.60742 4.05794 0)
(7.57623 2.62305 0)
(7.84463 0.917311 0)
(8.08113 -0.996443 0)
(8.04237 -3.15607 0)
(7.78997 -5.17632 0)
(7.64189 -6.57585 0)
(7.53646 -7.52112 0)
(7.29774 -7.87927 0)
(7.23553 -7.52806 0)
(7.22368 -7.14375 0)
(6.99745 -6.73757 0)
(6.89296 -5.87554 0)
(6.96494 -4.99959 0)
(6.84146 -4.87724 0)
(6.57036 -4.87229 0)
(6.22477 -4.27242 0)
(6.01673 -3.41104 0)
(5.7921 -3.62097 0)
(5.43226 -4.93992 0)
(5.43609 -6.20593 0)
(5.27842 -7.07161 0)
(5.37646 -7.37945 0)
(5.31194 -7.43674 0)
(5.19647 -7.75016 0)
(5.2983 -8.00792 0)
(5.18022 -8.31316 0)
(5.23322 -8.09438 0)
(5.44106 -7.06192 0)
(5.35808 -6.19222 0)
(5.40777 -5.88517 0)
(5.79912 -5.53499 0)
(6.29078 -4.41842 0)
(6.74533 -2.71257 0)
(6.7099 -1.36642 0)
(6.77119 -0.31359 0)
(7.24958 0.93288 0)
(7.68477 2.21877 0)
(8.15862 3.81961 0)
(8.28444 5.11175 0)
(8.06265 5.72939 0)
(8.20262 6.77207 0)
(8.80004 8.54731 0)
(9.02161 9.65618 0)
(8.80687 9.35826 0)
(8.52026 8.47138 0)
(8.65074 7.93555 0)
(9.33503 8.13532 0)
(10.2278 8.78043 0)
(11.1182 9.26068 0)
(11.5698 9.27973 0)
(11.742 8.88762 0)
(11.7279 8.21334 0)
(11.3941 7.21007 0)
(11.0285 6.00698 0)
(10.7032 4.64164 0)
(10.356 3.42395 0)
(10.0728 2.47527 0)
(9.77908 1.45635 0)
(9.52745 0.656143 0)
(9.32788 0.350313 0)
(9.63316 -0.0430213 0)
(9.58058 -0.138598 0)
(9.26045 -0.26298 0)
(9.28156 -0.709484 0)
(9.10804 -0.66958 0)
(9.33441 -0.511967 0)
(9.60463 -0.506989 0)
(9.71112 -0.547441 0)
(9.87936 -0.84528 0)
(9.99553 -0.996862 0)
(9.75794 -0.874528 0)
(9.71375 -0.855748 0)
(9.39289 -1.03278 0)
(9.40904 -1.37459 0)
(9.18854 -1.80542 0)
(9.14973 -2.21841 0)
(8.79887 -2.57553 0)
(8.6204 -3.0901 0)
(8.29011 -3.60792 0)
(7.83553 -4.01629 0)
(7.17483 -4.13493 0)
(6.82441 -4.17701 0)
(6.29993 -3.8729 0)
(6.01205 -3.20186 0)
(5.8242 -2.73891 0)
(6.03465 -2.624 0)
(6.20373 -2.7192 0)
(6.45748 -2.89404 0)
(6.36468 -2.62302 0)
(6.3438 -1.88725 0)
(5.82709 -2.2632 0)
(6.20096 -3.08743 0)
(6.18036 -3.71149 0)
(6.59695 -4.79633 0)
(6.73949 -6.12649 0)
(7.21544 -6.53324 0)
(7.3184 -6.61233 0)
(7.48126 -6.8587 0)
(7.88122 -6.91485 0)
(8.12794 -6.33805 0)
(8.25086 -5.06859 0)
(8.14934 -3.99223 0)
(8.00102 -3.37536 0)
(8.02325 -2.35258 0)
(8.1314 -1.15451 0)
(8.46637 -0.152128 0)
(8.51699 1.07598 0)
(8.26912 2.56669 0)
(8.22646 3.57419 0)
(8.26249 4.14272 0)
(8.38991 5.35279 0)
(8.3225 6.93731 0)
(8.19731 7.95711 0)
(8.12256 8.49924 0)
(8.00588 8.95374 0)
(7.80576 9.07248 0)
(7.40939 8.99813 0)
(7.13132 8.54259 0)
(6.74856 7.87327 0)
(6.37806 7.31584 0)
(6.00346 6.56147 0)
(6.11343 5.8756 0)
(5.84979 5.77461 0)
(6.10326 5.74485 0)
(5.79967 5.89549 0)
(6.08062 6.18895 0)
(6.27302 6.67362 0)
(6.03244 7.42326 0)
(7.06303 6.16517 0)
(5.0646 7.31337 0)
(9.81498 5.43635 0)
(1.41449 5.8962 0)
(9.84938 2.74394 0)
(4.47703 5.01884 0)
(9.27993 1.45373 0)
(5.61162 3.07852 0)
(9.10241 -0.134107 0)
(6.32072 0.983772 0)
(8.79196 -1.5109 0)
(6.82325 -0.753505 0)
(7.82896 -2.88544 0)
(6.04135 -1.55779 0)
(7.20807 -3.65243 0)
(5.44162 -1.60276 0)
(6.65309 -3.22374 0)
(4.74729 -0.521664 0)
(5.21585 -2.34908 0)
(4.84396 2.89391 0)
(5.7828 -0.759847 0)
(5.49995 -0.699445 0)
(5.23321 -0.415985 0)
(5.32026 -0.399473 0)
(4.32648 -0.0728417 0)
(3.97728 0.820372 0)
(5.7044 0.665728 0)
(6.77737 1.13898 0)
(7.66409 2.64628 0)
(9.36372 2.60512 0)
(10.4844 1.42363 0)
(10.9036 0.949706 0)
(11.7991 0.351085 0)
(12.4201 -0.657001 0)
(12.4812 -1.27731 0)
(12.4092 -2.06304 0)
(12.7451 -3.02301 0)
(12.6331 -3.54402 0)
(13.4375 -4.46185 0)
(14.0914 -5.59986 0)
(13.9626 -6.0481 0)
(13.5736 -6.40525 0)
(12.9229 -6.61359 0)
(12.2762 -6.35399 0)
(11.5082 -6.1332 0)
(10.9793 -5.71285 0)
(10.5582 -5.40696 0)
(9.9161 -5.05253 0)
(9.38849 -4.16667 0)
(8.94778 -3.83741 0)
(8.30404 -3.5335 0)
(8.03353 -2.81105 0)
(7.67569 -2.41196 0)
(7.19629 -2.2704 0)
(6.7886 -1.75173 0)
(6.29821 -0.301568 0)
(6.66923 0.0468495 0)
(5.86091 -0.52693 0)
(5.16861 0.188493 0)
(6.2557 1.13664 0)
(6.84246 1.68293 0)
(7.01076 2.80299 0)
(7.99659 5.0149 0)
(9.14621 7.32501 0)
(10.3907 8.47623 0)
(10.4668 9.04771 0)
(10.2836 9.08304 0)
(10.0418 8.14425 0)
(9.40641 6.87707 0)
(8.72154 5.92775 0)
(8.2815 5.19713 0)
(7.98001 4.14155 0)
(7.98127 2.57225 0)
(8.28413 0.828299 0)
(8.55055 -1.03346 0)
(8.54323 -3.126 0)
(8.31704 -5.13177 0)
(8.14893 -6.53486 0)
(8.04158 -7.45982 0)
(7.77159 -7.84065 0)
(7.62024 -7.48222 0)
(7.59106 -7.06869 0)
(7.33679 -6.68628 0)
(7.19244 -5.85327 0)
(7.2323 -4.95648 0)
(7.0793 -4.78385 0)
(6.77251 -4.75579 0)
(6.38184 -4.14273 0)
(6.08879 -3.30224 0)
(5.78508 -3.48645 0)
(5.30836 -4.84655 0)
(5.23887 -6.17621 0)
(5.04906 -7.02431 0)
(5.08035 -7.33798 0)
(5.04133 -7.40469 0)
(4.85557 -7.74908 0)
(4.92948 -8.01082 0)
(4.79691 -8.2927 0)
(4.80625 -8.09954 0)
(5.0084 -7.10071 0)
(4.92815 -6.24118 0)
(4.91523 -5.99049 0)
(5.20619 -5.66545 0)
(5.64008 -4.54365 0)
(6.04973 -2.80504 0)
(6.05095 -1.40148 0)
(6.04882 -0.403535 0)
(6.4881 0.788576 0)
(6.94818 2.08192 0)
(7.4585 3.69247 0)
(7.69226 5.07488 0)
(7.54972 5.7609 0)
(7.64029 6.69203 0)
(8.21554 8.38883 0)
(8.54731 9.56738 0)
(8.45831 9.42458 0)
(8.26853 8.53319 0)
(8.30033 7.79751 0)
(8.92987 7.80947 0)
(9.84382 8.40731 0)
(10.8317 8.92721 0)
(11.4436 9.07758 0)
(11.7678 8.83162 0)
(11.9183 8.25991 0)
(11.7333 7.32154 0)
(11.4423 6.15878 0)
(11.1768 4.77712 0)
(10.851 3.54173 0)
(10.57 2.59417 0)
(10.3112 1.58649 0)
(9.92439 0.767756 0)
(9.57444 0.348657 0)
(9.78927 -0.0815144 0)
(9.70644 -0.0855595 0)
(9.50609 -0.201771 0)
(9.51938 -0.649418 0)
(9.18397 -0.635161 0)
(9.28118 -0.604385 0)
(9.46275 -0.580366 0)
(9.65575 -0.620787 0)
(9.93333 -0.925143 0)
(10.0165 -0.960521 0)
(9.74342 -0.780317 0)
(9.73437 -0.792675 0)
(9.51718 -0.984968 0)
(9.56032 -1.32983 0)
(9.32285 -1.77428 0)
(9.32481 -2.14114 0)
(9.03415 -2.44875 0)
(8.83776 -2.98004 0)
(8.47045 -3.4519 0)
(7.94933 -3.77369 0)
(7.25675 -3.88062 0)
(6.79456 -3.94447 0)
(6.19665 -3.69362 0)
(5.92704 -3.15174 0)
(5.89019 -2.76847 0)
(6.09526 -2.70588 0)
(6.32157 -2.75146 0)
(6.46524 -2.90181 0)
(6.36212 -2.53111 0)
(6.21088 -1.7824 0)
(5.8364 -2.23409 0)
(6.15412 -3.14323 0)
(6.15713 -3.83865 0)
(6.57192 -4.90625 0)
(6.61017 -6.25655 0)
(7.0712 -6.64323 0)
(7.12778 -6.69856 0)
(7.25799 -6.96464 0)
(7.57212 -7.00628 0)
(7.75803 -6.36953 0)
(7.85319 -5.09771 0)
(7.77201 -3.96912 0)