/*--------------------------------*- C++ -*----------------------------------*\
| =========                 |                                                 |
| \\      /  F ield         | OpenFOAM: The Open Source CFD Toolbox           |
|  \\    /   O peration     | Version:  2.4.0                                 |
|   \\  /    A nd           | Web:      www.OpenFOAM.org                      |
|    \\/     M anipulation  |                                                 |
\*---------------------------------------------------------------------------*/
FoamFile
{
    version     2.0;
    format      ascii;
    class       volScalarField;
    location    "0.195826";
    object      p;
}
// * * * * * * * * * * * * * * * * * * * * * * * * * * * * * * * * * * * * * //

dimensions      [0 2 -2 0 0 0 0];

internalField   nonuniform List<scalar> 
17600
(
39.8225
39.0785
38.7279
38.5681
38.3994
38.2184
38.0466
37.8865
37.734
37.5867
37.4438
37.3049
37.1692
37.036
36.905
36.7763
36.6502
36.5305
36.4153
36.335
39.1622
38.8042
38.6503
38.5385
38.3891
38.2171
38.0489
37.8904
37.7385
37.5911
37.448
37.3086
37.1725
37.0389
36.9075
36.7785
36.6519
36.532
36.412
36.3229
39.1781
38.9643
38.7313
38.5683
38.4031
38.2252
38.0539
37.8936
37.7408
37.5929
37.4494
37.31
37.1739
37.0403
36.9089
36.78
36.6533
36.5327
36.4105
36.3077
39.1602
38.9498
38.7073
38.5506
38.3947
38.2222
38.0532
37.894
37.7416
37.5938
37.4504
37.3108
37.1745
37.0408
36.9093
36.7802
36.6533
36.5319
36.4075
36.2956
39.1293
38.9345
38.7039
38.5487
38.3943
38.2231
38.0544
37.8952
37.7427
37.5949
37.4513
37.3116
37.1752
37.0414
36.9097
36.7805
36.6532
36.5309
36.4045
36.2859
39.0986
38.9248
38.7058
38.548
38.3934
38.2234
38.0552
37.8961
37.7436
37.5957
37.452
37.3122
37.1756
37.0417
36.9099
36.7805
36.653
36.5298
36.4017
36.2779
39.0718
38.9173
38.7074
38.5467
38.3923
38.2238
38.0561
37.897
37.7444
37.5965
37.4527
37.3127
37.176
37.0419
36.9101
36.7805
36.6526
36.5285
36.3992
36.2714
39.0482
38.9098
38.708
38.5453
38.3912
38.2242
38.057
37.8979
37.7453
37.5973
37.4533
37.3133
37.1764
37.0422
36.9102
36.7805
36.6523
36.5274
36.397
36.2662
39.0272
38.9022
38.7081
38.5441
38.3902
38.2245
38.0579
37.8988
37.7462
37.5981
37.454
37.3138
37.1768
37.0425
36.9104
36.7805
36.652
36.5263
36.3951
36.2621
39.0087
38.8948
38.7079
38.5432
38.3893
38.2249
38.0588
37.8996
37.747
37.5988
37.4547
37.3143
37.1773
37.0428
36.9106
36.7804
36.6517
36.5252
36.3934
36.2588
38.9923
38.8878
38.7076
38.5424
38.3884
38.2251
38.0595
37.9004
37.7477
37.5995
37.4553
37.3149
37.1777
37.0431
36.9108
36.7804
36.6514
36.5243
36.392
36.2563
38.978
38.8813
38.7072
38.5417
38.3877
38.2253
38.0602
37.9011
37.7484
37.6002
37.4559
37.3153
37.178
37.0434
36.9109
36.7804
36.6511
36.5234
36.3908
36.2543
38.9655
38.8754
38.7066
38.5411
38.3869
38.2255
38.0608
37.9017
37.749
37.6007
37.4563
37.3157
37.1784
37.0436
36.911
36.7804
36.6509
36.5226
36.3897
36.2528
38.9548
38.8702
38.7061
38.5405
38.3863
38.2256
38.0613
37.9022
37.7495
37.6012
37.4568
37.3161
37.1786
37.0438
36.9111
36.7803
36.6506
36.5219
36.3888
36.2517
38.9459
38.8656
38.7055
38.5401
38.3858
38.2257
38.0617
37.9027
37.7499
37.6016
37.4572
37.3164
37.1789
37.044
36.9112
36.7802
36.6503
36.5212
36.388
36.2509
38.9385
38.8617
38.705
38.5398
38.3853
38.2258
38.0621
37.903
37.7503
37.602
37.4575
37.3166
37.1791
37.0441
36.9112
36.7801
36.65
36.5205
36.3874
36.2503
38.9327
38.8586
38.7045
38.5395
38.3849
38.2258
38.0624
37.9033
37.7506
37.6023
37.4577
37.3168
37.1792
37.0442
36.9112
36.78
36.6497
36.5199
36.3868
36.2499
38.9283
38.8562
38.7042
38.5393
38.3846
38.2259
38.0626
37.9036
37.7508
37.6025
37.4579
37.317
37.1793
37.0442
36.9112
36.7799
36.6494
36.5194
36.3863
36.2497
38.9255
38.8547
38.7039
38.5391
38.3845
38.2259
38.0628
37.9037
37.7509
37.6026
37.458
37.3171
37.1794
37.0442
36.9112
36.7797
36.6491
36.5189
36.3859
36.2497
38.924
38.8539
38.7038
38.5391
38.3844
38.2259
38.0628
37.9038
37.751
37.6027
37.4581
37.3171
37.1794
37.0442
36.9111
36.7795
36.6488
36.5184
36.3855
36.2497
38.924
38.8539
38.7038
38.5391
38.3844
38.2259
38.0628
37.9038
37.751
37.6027
37.458
37.3171
37.1793
37.0441
36.9109
36.7793
36.6485
36.5179
36.3852
36.2498
38.9255
38.8547
38.7039
38.5391
38.3845
38.2259
38.0628
37.9037
37.7509
37.6026
37.458
37.317
37.1792
37.044
36.9108
36.7791
36.6482
36.5175
36.3849
36.25
38.9283
38.8562
38.7042
38.5393
38.3846
38.2259
38.0626
37.9036
37.7508
37.6024
37.4578
37.3169
37.1791
37.0439
36.9106
36.7788
36.6479
36.5171
36.3847
36.2502
38.9327
38.8586
38.7045
38.5395
38.3849
38.2258
38.0624
37.9033
37.7505
37.6022
37.4576
37.3167
37.1789
37.0437
36.9104
36.7786
36.6475
36.5167
36.3845
36.2505
38.9385
38.8617
38.705
38.5398
38.3853
38.2258
38.0621
37.903
37.7502
37.6019
37.4573
37.3164
37.1787
37.0435
36.9102
36.7783
36.6472
36.5163
36.3843
36.2507
38.9459
38.8656
38.7055
38.5401
38.3858
38.2257
38.0617
37.9026
37.7499
37.6016
37.457
37.3161
37.1785
37.0432
36.9099
36.778
36.6469
36.516
36.3841
36.251
38.9548
38.8702
38.7061
38.5405
38.3863
38.2256
38.0613
37.9022
37.7494
37.6011
37.4566
37.3158
37.1781
37.0429
36.9096
36.7777
36.6466
36.5156
36.3839
36.2513
38.9655
38.8754
38.7066
38.541
38.3869
38.2255
38.0608
37.9016
37.7489
37.6006
37.4562
37.3154
37.1778
37.0426
36.9093
36.7774
36.6462
36.5153
36.3838
36.2516
38.978
38.8813
38.7072
38.5417
38.3876
38.2253
38.0602
37.901
37.7483
37.6
37.4556
37.315
37.1774
37.0423
36.909
36.777
36.6459
36.515
36.3836
36.2518
38.9923
38.8878
38.7076
38.5424
38.3884
38.2251
38.0595
37.9003
37.7476
37.5994
37.4551
37.3145
37.177
37.0419
36.9086
36.7767
36.6455
36.5147
36.3835
36.2521
39.0087
38.8948
38.7079
38.5432
38.3893
38.2248
38.0587
37.8996
37.7469
37.5987
37.4544
37.3139
37.1765
37.0415
36.9083
36.7763
36.6452
36.5144
36.3834
36.2523
39.0272
38.9022
38.708
38.5441
38.3902
38.2245
38.0579
37.8987
37.7461
37.5979
37.4538
37.3133
37.176
37.0411
36.9079
36.776
36.6449
36.5141
36.3833
36.2526
39.0482
38.9098
38.708
38.5453
38.3912
38.2242
38.057
37.8978
37.7452
37.5971
37.4531
37.3128
37.1756
37.0407
36.9076
36.7757
36.6446
36.5139
36.3832
36.2528
39.0718
38.9173
38.7074
38.5467
38.3923
38.2238
38.0561
37.8969
37.7443
37.5963
37.4524
37.3122
37.1751
37.0403
36.9073
36.7754
36.6444
36.5137
36.3832
36.2531
39.0986
38.9248
38.7058
38.548
38.3934
38.2234
38.0552
37.896
37.7435
37.5955
37.4517
37.3116
37.1747
37.04
36.907
36.7752
36.6442
36.5135
36.3832
36.2533
39.1293
38.9345
38.7039
38.5487
38.3943
38.223
38.0544
37.8951
37.7426
37.5947
37.451
37.3111
37.1742
37.0396
36.9067
36.7749
36.6439
36.5133
36.3831
36.2534
39.1602
38.9498
38.7073
38.5506
38.3947
38.2222
38.0532
37.8939
37.7415
37.5936
37.45
37.3103
37.1735
37.039
36.9062
36.7745
36.6435
36.513
36.3829
36.2535
39.1781
38.9643
38.7313
38.5683
38.4031
38.2252
38.0538
37.8936
37.7406
37.5927
37.4491
37.3094
37.1728
37.0385
36.9057
36.774
36.6431
36.5126
36.3825
36.2535
39.1622
38.8042
38.6503
38.5385
38.3891
38.2171
38.0489
37.8904
37.7384
37.5909
37.4476
37.308
37.1714
37.037
36.9042
36.7725
36.6415
36.511
36.381
36.2524
39.8225
39.0785
38.7279
38.568
38.3994
38.2184
38.0466
37.8865
37.7339
37.5865
37.4435
37.3043
37.1681
37.0341
36.9016
36.7702
36.6395
36.5092
36.3794
36.2511
36.1498
36.0924
35.9196
35.8305
35.8063
35.7873
35.7635
35.7356
35.7024
35.6626
35.617
35.5671
35.5147
35.4611
35.4072
35.3541
35.3024
35.2526
35.2052
35.1603
35.1182
35.0792
35.0436
35.0116
34.9837
34.9601
34.9412
34.9275
34.9193
34.9169
34.9208
34.9314
34.949
34.9739
35.0065
35.0471
35.096
35.1534
35.2195
35.2945
35.3785
35.4718
35.5743
35.6861
35.8072
35.9377
36.0774
36.2262
36.3841
36.5509
36.7263
36.9103
37.1025
37.3027
37.5106
37.7259
37.9482
38.1773
38.4127
38.654
38.901
39.1531
39.41
39.6714
39.9366
40.2055
40.4775
40.7523
41.0296
41.3088
41.5896
41.8718
42.1549
42.4387
42.7227
43.0068
43.2907
43.5741
43.8569
44.1387
44.4194
44.6989
44.9771
45.2537
45.5287
45.802
46.0736
46.3433
46.6113
46.8774
47.1416
47.404
47.6645
47.9233
48.1802
48.4354
48.6888
48.9405
49.1905
49.4389
49.6856
49.9306
50.174
50.4157
50.6557
50.894
51.1305
51.3651
51.5977
51.8283
52.0567
52.2828
52.5065
52.7275
52.9457
53.1609
53.3728
53.5814
53.7863
53.9874
54.1844
54.377
54.5651
54.7485
54.9268
55.1
55.2679
55.4303
55.5871
55.7381
55.8834
56.0228
56.1563
56.2839
56.4058
56.5219
56.6324
56.7374
56.8372
56.9318
57.0216
57.1068
57.1876
57.2644
57.3375
57.4071
57.4736
57.5374
57.5988
57.658
57.7154
57.7712
57.8259
57.8795
57.9325
57.9849
58.037
58.0889
58.1408
58.1928
58.2449
58.2971
58.3495
58.402
58.4546
58.507
58.5594
58.6114
58.6629
58.7135
58.763
58.8109
58.8569
58.9001
58.94
58.9754
59.0052
59.0276
59.0407
59.0417
59.0274
58.9934
58.9346
58.8442
58.7141
58.5344
58.2925
57.9729
57.556
57.0165
56.3212
55.4244
54.2644
52.7422
50.738
47.9377
44.2424
37.8292
31.4284
3.41664
36.0498
35.9224
35.8497
35.8552
35.8655
35.8607
35.8437
35.8165
35.7793
35.7333
35.6812
35.625
35.5679
35.5109
35.4548
35.4004
35.3479
35.2979
35.2505
35.2057
35.1638
35.1251
35.0899
35.0585
35.0311
35.0082
34.99
34.977
34.9695
34.968
34.9726
34.984
35.0023
35.0279
35.0611
35.1023
35.1517
35.2095
35.276
35.3513
35.4355
35.5289
35.6315
35.7432
35.8642
35.9944
36.1338
36.2822
36.4396
36.6058
36.7806
36.9638
37.1552
37.3545
37.5614
37.7757
37.997
38.2249
38.4592
38.6993
38.9451
39.1959
39.4516
39.7116
39.9756
40.2431
40.5138
40.7874
41.0633
41.3412
41.6208
41.9017
42.1837
42.4662
42.7492
43.0322
43.315
43.5974
43.8792
44.1601
44.44
44.7186
44.996
45.2719
45.5462
45.8189
46.0899
46.3591
46.6266
46.8922
47.1561
47.4181
47.6783
47.9367
48.1934
48.4483
48.7014
48.9529
49.2027
49.4508
49.6972
49.9419
50.185
50.4264
50.666
50.9038
51.1398
51.3739
51.6059
51.8358
52.0634
52.2886
52.5112
52.7312
52.9481
53.162
53.3726
53.5796
53.7828
53.9821
54.1772
54.3678
54.5537
54.7348
54.9108
55.0815
55.2468
55.4066
55.5607
55.7089
55.8513
55.9879
56.1185
56.2432
56.3621
56.4753
56.5829
56.685
56.7819
56.8737
56.9606
57.043
57.1211
57.1952
57.2656
57.3326
57.3965
57.4576
57.5164
57.5729
57.6277
57.6809
57.7327
57.7835
57.8335
57.8828
57.9316
57.98
58.0281
58.0759
58.1236
58.171
58.2181
58.2648
58.311
58.3565
58.4012
58.4449
58.4872
58.5278
58.5664
58.6025
58.6357
58.6652
58.6903
58.7099
58.7229
58.7275
58.7217
58.7028
58.6672
58.6106
58.5274
58.4106
58.2514
58.0389
57.7595
57.396
56.9263
56.3221
55.5454
54.5439
53.2457
51.5356
49.2665
46.0754
41.7495
34.2467
25.0367
-1.66664
36.0708
35.9858
35.9446
35.9236
35.9014
35.879
35.8564
35.83
35.7975
35.7587
35.7144
35.6646
35.6122
35.5579
35.5028
35.448
35.3944
35.3432
35.2947
35.2492
35.207
35.1684
35.1336
35.1028
35.0762
35.0541
35.0369
35.0248
35.0182
35.0175
35.023
35.0352
35.0543
35.0808
35.1147
35.1566
35.2066
35.2649
35.3318
35.4075
35.492
35.5856
35.6882
35.8
35.9209
36.0509
36.1899
36.338
36.4949
36.6605
36.8346
37.0171
37.2077
37.4061
37.6121
37.8254
38.0456
38.2724
38.5055
38.7444
38.9889
39.2385
39.4929
39.7516
40.0143
40.2805
40.5499
40.8221
41.0967
41.3734
41.6518
41.9315
42.2122
42.4936
42.7755
43.0574
43.3392
43.6207
43.9015
44.1816
44.4606
44.7385
45.0152
45.2904
45.5642
45.8363
46.1068
46.3756
46.6427
46.9079
47.1715
47.4332
47.6932
47.9514
48.2078
48.4625
48.7155
48.9668
49.2164
49.4643
49.7105
49.9551
50.1979
50.4389
50.6782
50.9156
51.1511
51.3846
51.616
51.8452
52.072
52.2963
52.5179
52.7367
52.9524
53.1649
53.3739
53.5793
53.7808
53.9781
54.1711
54.3596
54.5432
54.7219
54.8954
55.0636
55.2262
55.3832
55.5344
55.6798
55.8192
55.9528
56.0804
56.2021
56.318
56.4281
56.5327
56.6318
56.7257
56.8146
56.8986
56.9782
57.0534
57.1247
57.1924
57.2566
57.3179
57.3764
57.4324
57.4863
57.5383
57.5888
57.6378
57.6857
57.7327
57.7788
57.8242
57.8691
57.9133
57.9571
58.0002
58.0428
58.0845
58.1254
58.1651
58.2036
58.2405
58.2756
58.3086
58.339
58.3665
58.3906
58.4107
58.4262
58.4362
58.4398
58.4356
58.422
58.3969
58.3576
58.3004
58.2208
58.113
57.9695
57.7811
57.536
57.2193
56.8124
56.2909
55.6234
54.7677
53.6652
52.2348
50.3474
47.8323
44.297
39.4308
31.3238
20.3995
-1.06091
36.0901
36.0067
35.9514
35.9138
35.8881
35.8689
35.8494
35.8252
35.7946
35.7579
35.716
35.6716
35.624
35.5746
35.5249
35.4757
35.427
35.38
35.3347
35.2914
35.2506
35.2127
35.1781
35.1474
35.1208
35.099
35.0821
35.0706
35.0648
35.065
35.0715
35.0846
35.1046
35.1319
35.1667
35.2093
35.26
35.319
35.3864
35.4625
35.5474
35.6412
35.7439
35.8557
35.9765
36.1064
36.2452
36.3929
36.5493
36.7144
36.8879
37.0697
37.2595
37.457
37.6621
37.8743
38.0935
38.3192
38.5511
38.7888
39.0321
39.2804
39.5335
39.7909
40.0523
40.3172
40.5853
40.8562
41.1296
41.405
41.6822
41.9607
42.2403
42.5206
42.8014
43.0823
43.3632
43.6437
43.9237
44.2029
44.4812
44.7585
45.0345
45.3092
45.5824
45.8541
46.1242
46.3926
46.6594
46.9244
47.1877
47.4493
47.7091
47.9671
48.2235
48.4781
48.731
48.9822
49.2317
49.4795
49.7256
49.97
50.2126
50.4534
50.6924
50.9294
51.1645
51.3974
51.6282
51.8566
52.0826
52.3059
52.5265
52.7441
52.9585
53.1695
53.3769
53.5806
53.7802
53.9755
54.1664
54.3526
54.5339
54.71
54.8809
55.0463
55.2062
55.3603
55.5085
55.6509
55.7873
55.9178
56.0422
56.1608
56.2736
56.3807
56.4821
56.5782
56.6691
56.7549
56.836
56.9126
56.985
57.0535
57.1183
57.1798
57.2383
57.294
57.3473
57.3985
57.4478
57.4954
57.5416
57.5866
57.6305
57.6734
57.7154
57.7567
57.7971
57.8367
57.8753
57.9129
57.9492
57.9842
58.0174
58.0487
58.0778
58.1044
58.1279
58.148
58.1643
58.1762
58.1831
58.1843
58.1791
58.1663
58.1447
58.1126
58.068
58.0079
57.9287
57.8258
57.6931
57.5228
57.3051
57.0275
56.674
56.2244
55.6526
54.924
53.9926
52.7944
51.2404
49.1908
46.4561
42.6352
37.3452
29.0187
17.1563
-1.06491
36.1023
36.0207
35.9648
35.9291
35.9047
35.8832
35.8597
35.8318
35.7989
35.7612
35.7196
35.6756
35.6287
35.5804
35.532
35.4844
35.4386
35.3943
35.352
35.3122
35.2752
35.2413
35.2105
35.1833
35.1599
35.1406
35.1258
35.1159
35.1112
35.1123
35.1196
35.1333
35.154
35.1819
35.2174
35.2606
35.3119
35.3714
35.4394
35.5159
35.6011
35.6952
35.7981
35.91
36.0308
36.1605
36.299
36.4464
36.6024
36.7669
36.9398
37.1209
37.3099
37.5066
37.7107
37.922
38.1401
38.3647
38.5954
38.832
39.074
39.3211
39.5729
39.829
40.0891
40.3528
40.6196
40.8893
41.1614
41.4356
41.7116
41.989
42.2675
42.5468
42.8265
43.1065
43.3865
43.6662
43.9454
44.2239
44.5016
44.7783
45.0537
45.328
45.6008
45.8721
46.1419
46.4101
46.6767
46.9416
47.2048
47.4663
47.726
47.9841
48.2404
48.495
48.748
48.9992
49.2487
49.4965
49.7425
49.9868
50.2292
50.4699
50.7086
50.9453
51.1799
51.4123
51.6425
51.8702
52.0953
52.3177
52.5371
52.7534
52.9665
53.176
53.3817
53.5836
53.7812
53.9745
54.1631
54.3469
54.5257
54.6993
54.8674
55.0301
55.187
55.3381
55.4833
55.6226
55.7559
55.8832
56.0045
56.1199
56.2295
56.3334
56.4317
56.5246
56.6124
56.6952
56.7732
56.8468
56.9163
56.9818
57.0437
57.1024
57.1581
57.211
57.2615
57.3099
57.3564
57.4012
57.4445
57.4865
57.5273
57.567
57.6056
57.6432
57.6798
57.7152
57.7493
57.7819
57.8129
57.8419
57.8687
57.8929
57.9142
57.9321
57.9463
57.9561
57.9611
57.9608
57.9544
57.9413
57.9207
57.8914
57.8522
57.8014
57.7369
57.6557
57.5543
57.4278
57.2699
57.0726
56.8256
56.5156
56.1259
55.6347
55.0142
54.2272
53.2246
51.9375
50.2706
48.077
45.1538
41.1087
35.5071
27.1453
14.8407
-1.70545
36.1108
36.034
35.9797
35.9431
35.9147
35.8883
35.861
35.8313
35.7982
35.7613
35.7211
35.6785
35.6335
35.5874
35.5412
35.4958
35.4516
35.4088
35.3679
35.3295
35.2939
35.2613
35.2321
35.2067
35.1853
35.1684
35.1561
35.1489
35.1471
35.151
35.1608
35.1769
35.1996
35.2292
35.2661
35.3104
35.3626
35.4227
35.4912
35.5681
35.6536
35.7478
35.8508
35.9627
36.0834
36.2129
36.3512
36.4982
36.6538
36.8178
36.9901
37.1704
37.3586
37.5545
37.7577
37.9679
38.185
38.4085
38.6381
38.8735
39.1143
39.3602
39.6107
39.8656
40.1245
40.3869
40.6525
40.921
41.1919
41.465
41.7398
42.0161
42.2936
42.5719
42.8508
43.1299
43.409
43.688
43.9665
44.2445
44.5216
44.7978
45.0728
45.3467
45.6192
45.8903
46.16
46.428
46.6945
46.9594
47.2226
47.4841
47.744
48.0021
48.2586
48.5133
48.7664
49.0177
49.2673
49.5151
49.7612
50.0054
50.2478
50.4883
50.7268
50.9632
51.1974
51.4294
51.6589
51.8859
52.1101
52.3315
52.5498
52.7649
52.9765
53.1844
53.3884
53.5884
53.784
53.9751
54.1614
54.3428
54.519
54.6899
54.8553
55.015
55.169
55.3171
55.4592
55.5953
55.7254
55.8495
55.9676
56.0797
56.1861
56.2867
56.3818
56.4715
56.5561
56.6357
56.7106
56.7812
56.8475
56.9101
56.9691
57.0248
57.0776
57.1277
57.1754
57.2209
57.2645
57.3064
57.3468
57.3858
57.4235
57.46
57.4952
57.5293
57.562
57.5933
57.6229
57.6507
57.6764
57.6996
57.72
57.7373
57.7509
57.7603
57.7651
57.7648
57.7586
57.7461
57.7266
57.6993
57.6632
57.6174
57.5605
57.4909
57.4062
57.3038
57.1797
57.0292
56.8459
56.6214
56.345
56.003
55.5776
55.0461
54.3788
53.5368
52.4678
51.0997
49.3323
47.0149
43.9371
39.726
33.9163
25.6134
13.2966
-1.92526
36.1175
36.0457
35.9925
35.9543
35.9229
35.8938
35.8648
35.8343
35.801
35.7645
35.725
35.6833
35.6399
35.5954
35.5509
35.5071
35.4645
35.4234
35.3843
35.3476
35.3137
35.2829
35.2554
35.2315
35.2117
35.1963
35.1854
35.1796
35.1791
35.1843
35.1955
35.2131
35.2373
35.2686
35.3071
35.3531
35.4068
35.4685
35.5382
35.6163
35.7027
35.7976
35.9011
36.0133
36.1341
36.2636
36.4017
36.5484
36.7035
36.867
37.0386
37.2182
37.4056
37.6006
37.8028
38.0121
38.2281
38.4505
38.679
38.9132
39.1528
39.3975
39.6468
39.9005
40.1581
40.4193
40.6838
40.9511
41.2209
41.4929
41.7667
42.042
42.3185
42.5959
42.8739
43.1523
43.4307
43.709
43.987
44.2644
44.5411
44.8169
45.0917
45.3653
45.6377
45.9087
46.1783
46.4464
46.7129
46.9779
47.2412
47.5029
47.763
48.0213
48.278
48.533
48.7863
49.0378
49.2876
49.5356
49.7818
50.0261
50.2684
50.5088
50.7472
50.9833
51.2172
51.4486
51.6776
51.9038
52.1272
52.3476
52.5647
52.7785
52.9886
53.1949
53.3972
53.5952
53.7888
53.9776
54.1616
54.3405
54.5141
54.6822
54.8447
55.0015
55.1525
55.2975
55.4364
55.5693
55.6962
55.8169
55.9317
56.0405
56.1435
56.2408
56.3326
56.419
56.5003
56.5767
56.6484
56.7158
56.7791
56.8385
56.8945
56.9472
56.9971
57.0442
57.089
57.1317
57.1725
57.2115
57.249
57.285
57.3196
57.3529
57.3849
57.4154
57.4444
57.4717
57.497
57.5201
57.5407
57.5583
57.5725
57.583
57.5891
57.5903
57.586
57.5756
57.5586
57.5342
57.5017
57.4603
57.4091
57.347
57.2725
57.1839
57.0791
56.9551
56.8082
56.6333
56.4242
56.1722
55.8663
55.4924
55.032
54.4614
53.7496
52.856
51.7263
50.2858
48.4314
46.0115
42.8132
38.4902
32.568
24.3978
12.3915
-1.60941
36.123
36.0557
36.0036
35.9642
35.9308
35.8997
35.8691
35.8375
35.8038
35.7673
35.7285
35.6878
35.6457
35.6029
35.56
35.5179
35.4769
35.4376
35.4002
35.3652
35.333
35.3038
35.278
35.2559
35.2378
35.224
35.2149
35.2107
35.2118
35.2186
35.2313
35.2503
35.2758
35.3082
35.3478
35.3947
35.4493
35.5117
35.5821
35.6608
35.7478
35.8433
35.9473
36.0598
36.181
36.3107
36.4489
36.5955
36.7505
36.9136
37.0849
37.2639
37.4507
37.6449
37.8463
38.0546
38.2696
38.4909
38.7183
38.9514
39.1898
39.4333
39.6814
39.9339
40.1903
40.4504
40.7137
40.9798
41.2486
41.5195
41.7923
42.0667
42.3423
42.6189
42.8961
43.1738
43.4516
43.7294
44.0069
44.2839
44.5602
44.8358
45.1104
45.3839
45.6562
45.9272
46.1969
46.4651
46.7319
46.9971
47.2607
47.5227
47.783
48.0418
48.2988
48.5541
48.8077
49.0596
49.3097
49.5579
49.8043
50.0487
50.2912
50.5316
50.7698
51.0057
51.2392
51.4703
51.6986
51.9241
52.1467
52.366
52.582
52.7945
53.0031
53.2078
53.4082
53.6043
53.7957
53.9823
54.1639
54.3402
54.5111
54.6765
54.8361
54.9899
55.1377
55.2795
55.4152
55.5448
55.6683
55.7857
55.8971
56.0025
56.102
56.1959
56.2843
56.3673
56.4452
56.5183
56.5867
56.6508
56.7109
56.7672
56.8201
56.8698
56.9167
56.9609
57.0028
57.0426
57.0805
57.1167
57.1513
57.1844
57.216
57.2463
57.275
57.3022
57.3276
57.3511
57.3723
57.391
57.4066
57.4189
57.4272
57.4311
57.43
57.4232
57.4102
57.3902
57.3627
57.3268
57.2818
57.2267
57.1607
57.0825
56.9907
56.8835
56.7585
56.613
56.443
56.2435
56.0082
55.7284
55.3929
54.9872
54.4924
53.8839
53.1298
52.1883
51.0036
49.4997
47.5723
45.0712
41.7861
37.4
31.4497
23.4733
11.9644
-0.973595
36.1276
36.0643
36.0133
35.9731
35.9382
35.9055
35.8736
35.841
35.8069
35.7706
35.7325
35.6927
35.6519
35.6105
35.5692
35.5286
35.4893
35.4515
35.4157
35.3824
35.3518
35.3242
35.3
35.2796
35.2631
35.2509
35.2434
35.2408
35.2436
35.2519
35.2661
35.2866
35.3136
35.3474
35.3882
35.4363
35.492
35.5554
35.6267
35.7061
35.7937
35.8896
35.9939
36.1066
36.2277
36.3573
36.4953
36.6417
36.7962
36.9589
37.1296
37.3081
37.4941
37.6876
37.8882
38.0956
38.3096
38.53
38.7563
38.9883
39.2257
39.468
39.715
39.9664
40.2216
40.4806
40.7427
41.0078
41.2755
41.5454
41.8173
42.0907
42.3655
42.6413
42.9179
43.1949
43.4722
43.7495
44.0266
44.3033
44.5794
44.8548
45.1293
45.4028
45.6752
45.9463
46.2162
46.4847
46.7517
47.0172
47.2812
47.5437
47.8045
48.0636
48.3211
48.5769
48.831
49.0833
49.3337
49.5823
49.829
50.0736
50.3162
50.5566
50.7948
51.0306
51.2638
51.4945
51.7223
51.9471
52.1688
52.3871
52.6019
52.813
53.0202
53.2232
53.4218
53.6158
53.8051
53.9893
54.1684
54.3421
54.5103
54.6728
54.8294
54.9801
55.1247
55.2633
55.3956
55.5218
55.6419
55.7558
55.8636
55.9655
56.0616
56.1519
56.2368
56.3163
56.3908
56.4605
56.5256
56.5864
56.6432
56.6964
56.7461
56.7928
56.8366
56.878
56.917
56.9539
56.989
57.0224
57.0542
57.0845
57.1133
57.1406
57.1663
57.1903
57.2124
57.2323
57.2496
57.264
57.275
57.2822
57.2849
57.2826
57.2746
57.2603
57.239
57.2098
57.1722
57.1254
57.0683
57.0002
56.9199
56.8262
56.7175
56.592
56.4473
56.2803
56.0873
55.8632
55.6015
55.2935
54.9282
54.4907
53.9619
53.3167
52.5226
51.5369
50.3031
48.7449
46.7582
44.1968
40.8564
36.4503
30.542
22.8058
11.8872
-0.120109
36.1316
36.0717
36.0219
35.9812
35.9451
35.9112
35.8781
35.8448
35.8104
35.7743
35.7367
35.6979
35.6582
35.6181
35.5782
35.5391
35.5013
35.4651
35.4309
35.3991
35.37
35.344
35.3214
35.3025
35.2876
35.277
35.271
35.27
35.2742
35.2841
35.2998
35.3217
35.35
35.3851
35.4272
35.4765
35.5333
35.5977
35.67
35.7502
35.8385
35.9351
36.0399
36.153
36.2744
36.4042
36.5422
36.6884
36.8428
37.0051
37.1753
37.3532
37.5386
37.7312
37.9309
38.1374
38.3504
38.5697
38.7949
39.0257
39.2619
39.5031
39.7489
39.9991
40.2532
40.511
40.772
41.036
41.3027
41.5716
41.8425
42.1151
42.3891
42.6642
42.9401
43.2165
43.4933
43.7701
44.0469
44.3233
44.5993
44.8746
45.1491
45.4226
45.6951
45.9665
46.2366
46.5055
46.7729
47.0389
47.3034
47.5663
47.8277
48.0874
48.3454
48.6018
48.8564
49.1092
49.3601
49.6091
49.8561
50.1011
50.3439
50.5844
50.8226
51.0582
51.2912
51.5214
51.7487
51.9729
52.1937
52.411
52.6246
52.8343
53.0399
53.2412
53.4379
53.6299
53.8169
53.9987
54.1752
54.3462
54.5115
54.671
54.8245
54.972
55.1134
55.2485
55.3775
55.5002
55.6167
55.727
55.8313
55.9296
56.022
56.1088
56.1901
56.2661
56.3371
56.4033
56.465
56.5225
56.5761
56.626
56.6727
56.7163
56.7571
56.7955
56.8317
56.8658
56.8982
56.9289
56.958
56.9857
57.0118
57.0364
57.0593
57.0803
57.0993
57.1158
57.1295
57.14
57.1467
57.1491
57.1465
57.1384
57.1239
57.1025
57.0733
57.0355
56.9884
56.9311
56.8626
56.782
56.6881
56.5794
56.4545
56.3113
56.1473
55.9594
55.7437
55.4952
55.2071
54.871
54.4757
54.0064
53.444
52.7632
51.9311
50.9048
49.6275
48.0237
45.9911
43.3889
40.022
35.6334
29.8223
22.361
12.0735
0.918141
36.1351
36.0782
36.0295
35.9885
35.9516
35.9166
35.8826
35.8488
35.8141
35.7783
35.7412
35.7032
35.6646
35.6257
35.5872
35.5495
35.5131
35.4783
35.4456
35.4153
35.3877
35.3633
35.3422
35.3247
35.3113
35.3022
35.2978
35.2982
35.3039
35.3152
35.3323
35.3555
35.3851
35.4215
35.4648
35.5152
35.573
35.6384
35.7116
35.7926
35.8817
35.9788
36.0841
36.1977
36.3195
36.4494
36.5876
36.7339
36.8882
37.0503
37.2203
37.3978
37.5827
37.7748
37.9739
38.1796
38.3919
38.6103
38.8346
39.0644
39.2996
39.5397
39.7844
40.0335
40.2865
40.5431
40.8031
41.066
41.3316
41.5995
41.8695
42.1412
42.4144
42.6887
42.9639
43.2398
43.516
43.7925
44.0689
44.3451
44.6209
44.8961
45.1706
45.4443
45.717
45.9886
46.2591
46.5283
46.7962
47.0627
47.3277
47.5912
47.8532
48.1135
48.3722
48.6292
48.8844
49.1377
49.3892
49.6387
49.8861
50.1314
50.3744
50.6151
50.8533
51.0888
51.3216
51.5514
51.7781
52.0015
52.2214
52.4376
52.65
52.8582
53.0622
53.2616
53.4563
53.6461
53.8308
54.0101
54.1839
54.3521
54.5144
54.6709
54.8212
54.9654
55.1034
55.2351
55.3605
55.4797
55.5926
55.6993
55.7999
55.8946
55.9834
56.0665
56.1442
56.2167
56.2842
56.3469
56.4052
56.4593
56.5096
56.5564
56.5999
56.6404
56.6783
56.7139
56.7473
56.7788
56.8085
56.8367
56.8634
56.8885
56.9122
56.9343
56.9546
56.973
56.989
57.0025
57.0128
57.0196
57.0223
57.0202
57.0127
56.9991
56.9786
56.9505
56.9139
56.8681
56.812
56.7449
56.6656
56.5731
56.4661
56.3433
56.2028
56.0425
55.8599
55.6518
55.414
55.1415
54.8275
54.4636
54.0385
53.5377
52.9421
52.2267
51.3585
50.2948
48.9794
47.3381
45.2717
42.6464
39.2785
34.9388
29.2674
22.1061
12.4596
2.10119
36.1383
36.0839
36.0363
35.9951
35.9576
35.9219
35.8872
35.8529
35.8181
35.7824
35.7459
35.7086
35.671
35.6333
35.596
35.5597
35.5246
35.4913
35.46
35.4311
35.405
35.3819
35.3623
35.3463
35.3343
35.3267
35.3236
35.3255
35.3326
35.3452
35.3636
35.3882
35.4191
35.4566
35.501
35.5525
35.6113
35.6776
35.7516
35.8334
35.9231
36.0208
36.1267
36.2406
36.3627
36.4929
36.6311
36.7774
36.9317
37.0937
37.2634
37.4406
37.6252
37.8168
38.0154
38.2206
38.4322
38.6499
38.8734
39.1026
39.3369
39.5762
39.82
40.0682
40.3203
40.5761
40.8351
41.0972
41.3619
41.629
41.8982
42.1692
42.4416
42.7153
42.9899
43.2652
43.541
43.8171
44.0932
44.3692
44.6448
44.92
45.1946
45.4684
45.7413
46.0132
46.284
46.5537
46.8221
47.0891
47.3547
47.6188
47.8814
48.1424
48.4018
48.6594
48.9152
49.1692
49.4212
49.6711
49.919
50.1646
50.4078
50.6486
50.8867
51.1221
51.3546
51.5839
51.81
52.0326
52.2515
52.4666
52.6776
52.8843
53.0865
53.284
53.4766
53.6641
53.8463
54.023
54.1941
54.3594
54.5187
54.672
54.8191
54.9599
55.0945
55.2227
55.3446
55.4602
55.5694
55.6725
55.7695
55.8605
55.9456
56.0251
56.0992
56.1681
56.232
56.2913
56.3461
56.3969
56.4439
56.4875
56.5279
56.5655
56.6006
56.6334
56.6642
56.6932
56.7206
56.7464
56.7708
56.7937
56.8152
56.835
56.8529
56.8688
56.8823
56.8929
56.9002
56.9036
56.9025
56.8963
56.8842
56.8655
56.8394
56.805
56.7616
56.7081
56.6436
56.5672
56.4777
56.374
56.2548
56.1184
55.963
55.7865
55.586
55.3584
55.0994
54.8036
54.4645
54.0733
53.619
53.0872
52.4591
51.71
50.8076
49.7095
48.3609
46.6895
44.6003
41.9673
38.6199
34.3549
28.8542
22.0097
12.9933
3.3809
36.1411
36.0889
36.0423
36.0012
35.9632
35.9269
35.8918
35.8571
35.8222
35.7868
35.7507
35.7141
35.6774
35.6408
35.6047
35.5696
35.5358
35.5038
35.4739
35.4464
35.4216
35.4
35.3817
35.3671
35.3566
35.3503
35.3486
35.3519
35.3603
35.3742
35.3939
35.4197
35.4518
35.4905
35.5359
35.5885
35.6482
35.7154
35.7902
35.8727
35.963
36.0613
36.1676
36.2819
36.4043
36.5346
36.673
36.8193
36.9735
37.1354
37.3048
37.4818
37.6659
37.8571
38.0552
38.2598
38.4708
38.6879
38.9108
39.1392
39.3728
39.6113
39.8544
40.1018
40.3531
40.6081
40.8665
41.1278
41.3919
41.6583
41.9269
42.1972
42.4692
42.7423
43.0165
43.2915
43.567
43.8429
44.1188
44.3947
44.6704
44.9457
45.2204
45.4944
45.7676
46.0398
46.3111
46.5812
46.8501
47.1177
47.3839
47.6487
47.9119
48.1736
48.4336
48.6919
48.9483
49.2029
49.4554
49.7058
49.9541
50.1999
50.4434
50.6842
50.9223
51.1574
51.3895
51.6183
51.8437
52.0654
52.2833
52.4971
52.7066
52.9117
53.1121
53.3077
53.4981
53.6833
53.863
54.0371
54.2053
54.3677
54.524
54.6741
54.818
54.9555
55.0866
55.2113
55.3297
55.4416
55.5473
55.6467
55.74
55.8273
55.9088
55.9847
56.0551
56.1204
56.1808
56.2366
56.288
56.3355
56.3793
56.4197
56.4572
56.492
56.5243
56.5546
56.583
56.6097
56.6349
56.6586
56.681
56.7019
56.7213
56.7391
56.7549
56.7685
56.7796
56.7876
56.7921
56.7923
56.7878
56.7777
56.7614
56.738
56.7067
56.6665
56.6166
56.556
56.4836
56.3985
56.2995
56.1852
56.0543
55.905
55.7356
55.5435
55.3261
55.0798
54.8004
54.4824
54.1189
53.7015
53.2189
52.6571
51.9974
51.2158
50.2808
49.1513
47.7737
46.0788
43.9761
41.3484
38.0391
33.8688
28.5604
22.0413
13.6313
4.71433
36.1437
36.0934
36.0478
36.0067
35.9684
35.9318
35.8962
35.8613
35.8264
35.7912
35.7556
35.7197
35.6838
35.6482
35.6132
35.5793
35.5468
35.516
35.4874
35.4612
35.4378
35.4174
35.4005
35.3873
35.378
35.3731
35.3727
35.3773
35.387
35.4022
35.4231
35.4501
35.4833
35.5231
35.5696
35.6231
35.6838
35.7518
35.8274
35.9106
36.0015
36.1003
36.207
36.3217
36.4443
36.5749
36.7133
36.8597
37.0137
37.1755
37.3447
37.5214
37.7052
37.896
38.0935
38.2976
38.5081
38.7245
38.9467
39.1744
39.4073
39.6451
39.8875
40.1342
40.3848
40.6391
40.8967
41.1574
41.4208
41.6867
41.9547
42.2246
42.496
42.7688
43.0427
43.3174
43.5928
43.8685
44.1444
44.4203
44.6961
44.9715
45.2465
45.5208
45.7944
46.0671
46.3388
46.6095
46.879
47.1472
47.4141
47.6796
47.9436
48.2059
48.4666
48.7256
48.9827
49.2378
49.4909
49.7417
49.9903
50.2365
50.4801
50.721
50.9589
51.1938
51.4255
51.6538
51.8784
52.0992
52.316
52.5285
52.7366
52.9401
53.1387
53.3322
53.5205
53.7033
53.8805
54.052
54.2175
54.3769
54.5302
54.6772
54.8178
54.952
55.0797
55.2009
55.3157
55.4241
55.5262
55.6219
55.7116
55.7952
55.873
55.9452
56.0121
56.0738
56.1306
56.1829
56.231
56.2753
56.3159
56.3534
56.3881
56.4202
56.4501
56.478
56.5042
56.5288
56.552
56.5739
56.5944
56.6136
56.6312
56.6471
56.6611
56.6727
56.6816
56.6872
56.689
56.6864
56.6786
56.665
56.6448
56.617
56.5808
56.5352
56.4793
56.412
56.3323
56.239
56.131
56.0067
55.8648
55.7034
55.5206
55.3139
55.0803
54.8163
54.5174
54.1782
53.7916
53.349
52.8394
52.2486
51.5586
50.746
49.7802
48.6217
47.2191
45.5063
43.398
40.7862
37.5284
33.4675
28.3645
22.1727
14.3377
6.06658
36.1461
36.0974
36.0527
36.0118
35.9733
35.9364
35.9006
35.8655
35.8306
35.7956
35.7605
35.7252
35.6902
35.6555
35.6216
35.5887
35.5574
35.5278
35.5004
35.4755
35.4534
35.4343
35.4187
35.4067
35.3987
35.3951
35.396
35.4018
35.4127
35.4291
35.4513
35.4794
35.5137
35.5545
35.602
35.6565
35.718
35.7868
35.8631
35.947
36.0385
36.1378
36.2449
36.3599
36.4828
36.6136
36.7522
36.8985
37.0525
37.2141
37.3832
37.5595
37.743
37.9334
38.1305
38.3341
38.544
38.7598
38.9814
39.2085
39.4407
39.6778
39.9195
40.1655
40.4154
40.6691
40.9261
41.1861
41.4489
41.7142
41.9817
42.2512
42.5222
42.7947
43.0683
43.3428
43.618
43.8936
44.1695
44.4455
44.7214
44.9971
45.2723
45.547
45.821
46.0942
46.3665
46.6378
46.908
47.1769
47.4445