/*--------------------------------*- C++ -*----------------------------------*\
| =========                 |                                                 |
| \\      /  F ield         | OpenFOAM: The Open Source CFD Toolbox           |
|  \\    /   O peration     | Version:  2.4.0                                 |
|   \\  /    A nd           | Web:      www.OpenFOAM.org                      |
|    \\/     M anipulation  |                                                 |
\*---------------------------------------------------------------------------*/
FoamFile
{
    version     2.0;
    format      ascii;
    class       volScalarField;
    location    "0.0211173";
    object      k;
}
// * * * * * * * * * * * * * * * * * * * * * * * * * * * * * * * * * * * * * //

dimensions      [0 2 -2 0 0 0 0];

internalField   nonuniform List<scalar> 
17600
(
0.554935
0.712128
0.829591
0.905113
0.945459
0.96041
0.959179
0.949016
0.934975
0.92019
0.906321
0.894038
0.883449
0.874419
0.866762
0.86032
0.854955
0.850387
0.846096
0.841047
0.373618
0.373045
0.374151
0.377983
0.384416
0.393201
0.404201
0.417062
0.431084
0.445299
0.458672
0.470306
0.479576
0.486177
0.490103
0.491604
0.491139
0.489471
0.487532
0.488451
0.362709
0.350042
0.335568
0.320417
0.305536
0.291705
0.279608
0.269737
0.262339
0.257407
0.254731
0.253955
0.254646
0.256356
0.258666
0.261212
0.263718
0.266033
0.268397
0.271764
0.361231
0.347634
0.33374
0.31957
0.305381
0.29145
0.278062
0.265477
0.253915
0.243538
0.234453
0.226709
0.220305
0.215196
0.211293
0.208468
0.206564
0.205429
0.20505
0.206095
0.361178
0.347823
0.334762
0.321862
0.309133
0.296653
0.28453
0.272874
0.261795
0.251393
0.241755
0.232954
0.225049
0.218083
0.212077
0.207026
0.202895
0.199624
0.197188
0.195785
0.361235
0.348123
0.335584
0.323467
0.311703
0.300279
0.289213
0.278542
0.268315
0.258588
0.249416
0.240859
0.232969
0.225796
0.219381
0.213748
0.208901
0.204819
0.201483
0.198928
0.361267
0.348283
0.336018
0.324338
0.313149
0.302394
0.292046
0.282098
0.272562
0.263464
0.254837
0.246721
0.239159
0.232193
0.225861
0.22019
0.215195
0.210869
0.207198
0.204174
0.36128
0.34835
0.336213
0.324755
0.313883
0.303525
0.29363
0.284167
0.275126
0.26651
0.258335
0.250626
0.243415
0.236734
0.230615
0.225081
0.220146
0.215808
0.212054
0.208873
0.361284
0.348374
0.336291
0.324937
0.314226
0.304086
0.294458
0.285301
0.276588
0.26831
0.26047
0.253082
0.246167
0.23975
0.233854
0.228496
0.223688
0.219426
0.2157
0.212504
0.361284
0.348381
0.336319
0.32501
0.314375
0.304347
0.294866
0.285886
0.277376
0.269318
0.261708
0.254551
0.247861
0.241654
0.235948
0.230755
0.22608
0.221919
0.218261
0.215109
0.361284
0.348382
0.336327
0.325035
0.314435
0.304459
0.295053
0.28617
0.277778
0.269854
0.26239
0.255388
0.248854
0.242801
0.237241
0.232179
0.227619
0.223553
0.21997
0.216878
0.361284
0.348382
0.336328
0.325043
0.314455
0.304504
0.295133
0.2863
0.277971
0.270123
0.262747
0.255841
0.249409
0.24346
0.238002
0.233037
0.228565
0.224576
0.221058
0.218023
0.361284
0.348381
0.336327
0.325043
0.314461
0.304518
0.295164
0.286355
0.278058
0.270251
0.262924
0.256074
0.249704
0.243821
0.238429
0.23353
0.22912
0.225188
0.221721
0.218731
0.361284
0.34838
0.336325
0.325041
0.31446
0.304521
0.295174
0.286375
0.278093
0.270308
0.263007
0.256188
0.249853
0.244009
0.238658
0.233801
0.229432
0.225537
0.222106
0.219148
0.361283
0.348379
0.336324
0.325039
0.314458
0.30452
0.295175
0.286381
0.278106
0.27033
0.263042
0.256239
0.249924
0.244102
0.238775
0.233943
0.229598
0.225729
0.222321
0.219383
0.361283
0.348378
0.336322
0.325037
0.314455
0.304518
0.295173
0.28638
0.278108
0.270337
0.263055
0.25626
0.249955
0.244144
0.238831
0.234013
0.229683
0.225828
0.222435
0.219509
0.361283
0.348378
0.336321
0.325036
0.314453
0.304515
0.295171
0.286378
0.278107
0.270337
0.263058
0.256267
0.249967
0.244163
0.238856
0.234045
0.229724
0.225877
0.222492
0.219573
0.361283
0.348377
0.33632
0.325034
0.314452
0.304513
0.295168
0.286376
0.278105
0.270336
0.263058
0.256269
0.249971
0.244169
0.238866
0.234059
0.229742
0.2259
0.222519
0.219602
0.361283
0.348377
0.33632
0.325033
0.314451
0.304512
0.295167
0.286374
0.278104
0.270335
0.263057
0.256268
0.249972
0.244171
0.238869
0.234065
0.22975
0.22591
0.222531
0.219614
0.361283
0.348377
0.336319
0.325033
0.31445
0.304511
0.295166
0.286373
0.278103
0.270334
0.263056
0.256268
0.249971
0.244171
0.23887
0.234066
0.229752
0.225913
0.222534
0.219615
0.361283
0.348377
0.336319
0.325033
0.31445
0.304511
0.295166
0.286373
0.278103
0.270334
0.263056
0.256268
0.249971
0.244171
0.23887
0.234066
0.229752
0.225913
0.222533
0.219611
0.361283
0.348377
0.33632
0.325033
0.314451
0.304512
0.295167
0.286374
0.278104
0.270335
0.263057
0.256268
0.249971
0.244171
0.238869
0.234064
0.229749
0.225908
0.222527
0.219601
0.361283
0.348377
0.33632
0.325034
0.314452
0.304513
0.295168
0.286376
0.278105
0.270336
0.263058
0.256269
0.249971
0.244169
0.238865
0.234058
0.22974
0.225897
0.222512
0.219581
0.361283
0.348378
0.336321
0.325036
0.314453
0.304515
0.295171
0.286378
0.278107
0.270337
0.263058
0.256267
0.249967
0.244162
0.238855
0.234044
0.229721
0.225873
0.222482
0.219543
0.361283
0.348378
0.336322
0.325037
0.314455
0.304518
0.295173
0.28638
0.278108
0.270337
0.263055
0.25626
0.249955
0.244144
0.238829
0.234011
0.22968
0.225823
0.222422
0.21947
0.361283
0.348379
0.336324
0.325039
0.314458
0.30452
0.295175
0.286381
0.278106
0.27033
0.263041
0.256239
0.249923
0.2441
0.238773
0.23394
0.229594
0.225721
0.222304
0.219336
0.361284
0.34838
0.336325
0.325041
0.31446
0.304521
0.295174
0.286375
0.278093
0.270307
0.263006
0.256187
0.249852
0.244007
0.238656
0.233797
0.229425
0.225527
0.222086
0.219091
0.361284
0.348381
0.336327
0.325043
0.314461
0.304518
0.295164
0.286355
0.278058
0.270251
0.262924
0.256073
0.249703
0.243819
0.238426
0.233525
0.229112
0.225174
0.221695
0.218664
0.361284
0.348382
0.336328
0.325043
0.314455
0.304504
0.295133
0.2863
0.277971
0.270123
0.262747
0.25584
0.249408
0.243457
0.237997
0.23303
0.228553
0.224558
0.221026
0.217946
0.361284
0.348382
0.336327
0.325035
0.314434
0.304459
0.295053
0.28617
0.277777
0.269854
0.26239
0.255386
0.248852
0.242797
0.237234
0.232169
0.227603
0.223528
0.219929
0.216789
0.361284
0.348381
0.336319
0.32501
0.314375
0.304347
0.294865
0.285886
0.277376
0.269318
0.261707
0.254549
0.247858
0.241649
0.23594
0.230741
0.226058
0.221886
0.218207
0.215003
0.361284
0.348374
0.336291
0.324937
0.314226
0.304086
0.294458
0.285301
0.276588
0.268309
0.260468
0.253079
0.246163
0.239743
0.233842
0.228478
0.223659
0.219381
0.215627
0.212371
0.36128
0.34835
0.336213
0.324755
0.313883
0.303525
0.293629
0.284167
0.275126
0.266509
0.258333
0.250623
0.24341
0.236725
0.2306
0.225056
0.220106
0.215746
0.211952
0.208688
0.361267
0.348283
0.336018
0.324338
0.313149
0.302394
0.292045
0.282097
0.272562
0.263463
0.254835
0.246717
0.239152
0.232181
0.22584
0.220157
0.215141
0.210782
0.207046
0.203879
0.361235
0.348123
0.335584
0.323467
0.311703
0.300279
0.289213
0.278541
0.268314
0.258586
0.249414
0.240854
0.23296
0.225781
0.219354
0.213703
0.208825
0.20469
0.201238
0.198392
0.361178
0.347823
0.334762
0.321862
0.309133
0.296653
0.28453
0.272874
0.261794
0.251392
0.241752
0.232948
0.225038
0.218063
0.212041
0.206964
0.202785
0.199423
0.196768
0.194713
0.361231
0.347634
0.33374
0.31957
0.305381
0.29145
0.278062
0.265477
0.253914
0.243537
0.234451
0.226704
0.220296
0.215179
0.211259
0.208402
0.206431
0.205153
0.204383
0.204032
0.362709
0.350042
0.335568
0.320417
0.305536
0.291706
0.279608
0.269739
0.262342
0.257413
0.254743
0.253977
0.254683
0.256415
0.258753
0.26133
0.263854
0.266143
0.268127
0.270043
0.373618
0.373045
0.374151
0.377983
0.384417
0.393204
0.404207
0.417077
0.431114
0.445357
0.45878
0.470501
0.479919
0.48677
0.491112
0.493292
0.493912
0.493843
0.494187
0.496895
0.554935
0.712128
0.829591
0.905112
0.945458
0.960407
0.959173
0.949003
0.934951
0.920146
0.906244
0.893905
0.883224
0.874037
0.866119
0.85925
0.853221
0.847697
0.84223
0.835468
1.18938
1.78485
2.46272
2.99649
3.25862
3.30916
3.26421
3.19767
3.13097
3.05862
2.96876
2.84691
2.66962
2.43943
2.15546
1.82402
1.47061
1.14202
0.879457
0.696459
0.585071
0.528644
0.508966
0.509944
0.519609
0.530491
0.538785
0.543108
0.543403
0.540203
0.534204
0.526057
0.516299
0.505336
0.493463
0.480889
0.467759
0.454181
0.440233
0.425991
0.411527
0.396925
0.382285
0.36772
0.353356
0.339325
0.325763
0.312796
0.300537
0.289076
0.278482
0.268796
0.260034
0.252188
0.245231
0.239118
0.233793
0.229191
0.225243
0.22188
0.219033
0.216636
0.214628
0.212954
0.211564
0.210414
0.209465
0.208684
0.208043
0.207517
0.207087
0.206734
0.206446
0.20621
0.206018
0.20586
0.205731
0.205626
0.205539
0.205468
0.20541
0.205362
0.205323
0.20529
0.205263
0.205241
0.205223
0.205208
0.205196
0.205185
0.205177
0.20517
0.205164
0.205159
0.205155
0.205152
0.205149
0.205147
0.205145
0.205143
0.205142
0.205141
0.20514
0.205139
0.205139
0.205138
0.205138
0.205137
0.205137
0.205137
0.205137
0.205136
0.205136
0.205136
0.205136
0.205136
0.205136
0.205136
0.205136
0.205136
0.205136
0.205136
0.205136
0.205136
0.205136
0.205136
0.205136
0.205136
0.205136
0.205136
0.205137
0.205137
0.205137
0.205137
0.205138
0.205138
0.205139
0.205139
0.20514
0.205141
0.205142
0.205144
0.205145
0.205147
0.20515
0.205153
0.205156
0.20516
0.205165
0.205172
0.205179
0.205188
0.205199
0.205212
0.205227
0.205246
0.205269
0.205296
0.205329
0.205368
0.205416
0.205473
0.205543
0.205626
0.205727
0.205848
0.205995
0.206172
0.206385
0.206642
0.206953
0.207329
0.207783
0.208332
0.208998
0.209805
0.210785
0.211977
0.21343
0.215207
0.217384
0.220063
0.223375
0.227492
0.232643
0.239142
0.247424
0.258109
0.272103
0.290776
0.316275
0.352104
0.40432
0.483667
0.611221
0.822757
1.1914
1.72356
2.64354
1.4584
0.510324
0.595981
0.808665
1.1713
1.63505
2.09267
2.44397
2.65142
2.73502
2.73115
2.6648
2.5238
2.31103
2.03824
1.71868
1.38078
1.06797
0.817703
0.643287
0.537772
0.485386
0.468758
0.472564
0.4853
0.499602
0.511542
0.519541
0.523387
0.523523
0.520607
0.515296
0.508143
0.499577
0.489916
0.479385
0.468144
0.456306
0.443955
0.43116
0.417989
0.404514
0.390818
0.377003
0.363184
0.34949
0.336056
0.323022
0.310516
0.298655
0.287537
0.277233
0.267791
0.259231
0.251552
0.24473
0.238726
0.233488
0.228955
0.225061
0.22174
0.218925
0.216553
0.214564
0.212905
0.211526
0.210384
0.209441
0.208665
0.208028
0.207505
0.207077
0.206726
0.206439
0.206205
0.206013
0.205856
0.205728
0.205623
0.205537
0.205466
0.205408
0.20536
0.205321
0.205289
0.205263
0.205241
0.205223
0.205208
0.205195
0.205185
0.205177
0.20517
0.205164
0.205159
0.205155
0.205152
0.205149
0.205147
0.205145
0.205143
0.205142
0.205141
0.20514
0.205139
0.205139
0.205138
0.205138
0.205137
0.205137
0.205137
0.205136
0.205136
0.205136
0.205136
0.205136
0.205136
0.205136
0.205136
0.205136
0.205136
0.205136
0.205136
0.205136
0.205136
0.205136
0.205136
0.205136
0.205136
0.205136
0.205136
0.205137
0.205137
0.205137
0.205137
0.205138
0.205138
0.205139
0.205139
0.20514
0.205141
0.205142
0.205144
0.205145
0.205147
0.20515
0.205153
0.205156
0.20516
0.205165
0.205172
0.205179
0.205188
0.205199
0.205211
0.205227
0.205246
0.205268
0.205296
0.205328
0.205368
0.205416
0.205473
0.205542
0.205626
0.205726
0.205847
0.205994
0.20617
0.206383
0.20664
0.20695
0.207324
0.207777
0.208325
0.208989
0.209793
0.210769
0.211957
0.213404
0.215173
0.217339
0.220004
0.223298
0.227389
0.232506
0.238959
0.24718
0.25778
0.27166
0.29018
0.315482
0.351075
0.403081
0.482517
0.611356
0.828781
1.21486
1.80537
2.79852
1.72126
0.275539
0.288036
0.325071
0.412159
0.576125
0.823527
1.12589
1.42748
1.67142
1.82266
1.86782
1.78289
1.60592
1.368
1.10778
0.866309
0.674043
0.541831
0.46456
0.429648
0.423113
0.43273
0.449318
0.466858
0.481984
0.493234
0.500338
0.50365
0.503765
0.501308
0.496826
0.490755
0.483424
0.475069
0.46586
0.455914
0.44532
0.434145
0.422451
0.410301
0.397765
0.384931
0.371899
0.358789
0.345732
0.332868
0.320337
0.308273
0.296796
0.286007
0.275985
0.266779
0.258418
0.250902
0.244214
0.238319
0.233168
0.228705
0.224866
0.221588
0.218807
0.216461
0.214493
0.212849
0.211483
0.21035
0.209415
0.208644
0.208011
0.207491
0.207065
0.206717
0.206432
0.206198
0.206008
0.205852
0.205724
0.20562
0.205534
0.205464
0.205406
0.205359
0.20532
0.205288
0.205262
0.20524
0.205222
0.205207
0.205195
0.205185
0.205176
0.205169
0.205164
0.205159
0.205155
0.205152
0.205149
0.205147
0.205145
0.205143
0.205142
0.205141
0.20514
0.205139
0.205138
0.205138
0.205138
0.205137
0.205137
0.205137
0.205136
0.205136
0.205136
0.205136
0.205136
0.205136
0.205136
0.205136
0.205136
0.205136
0.205136
0.205136
0.205136
0.205136
0.205136
0.205136
0.205136
0.205136
0.205136
0.205136
0.205136
0.205137
0.205137
0.205137
0.205138
0.205138
0.205139
0.205139
0.20514
0.205141
0.205142
0.205144
0.205145
0.205147
0.20515
0.205153
0.205156
0.20516
0.205165
0.205171
0.205179
0.205188
0.205198
0.205211
0.205227
0.205246
0.205268
0.205295
0.205328
0.205368
0.205415
0.205473
0.205542
0.205625
0.205725
0.205846
0.205992
0.206168
0.206381
0.206637
0.206946
0.20732
0.207772
0.208318
0.208979
0.209781
0.210754
0.211936
0.213377
0.215137
0.217292
0.219942
0.223214
0.227278
0.232357
0.238758
0.246906
0.257406
0.271146
0.289469
0.314493
0.349705
0.401206
0.480132
0.608766
0.828941
1.22144
1.85371
2.83921
1.97663
0.20744
0.210537
0.217616
0.233671
0.268497
0.33405
0.435862
0.564588
0.695413
0.795593
0.831092
0.809817
0.742092
0.645266
0.544254
0.460124
0.403348
0.374292
0.367539
0.375963
0.392999
0.413441
0.433582
0.451128
0.46497
0.474851
0.481031
0.484007
0.484333
0.482517
0.47898
0.474048
0.46796
0.460889
0.452957
0.444253
0.434843
0.424785
0.414132
0.402946
0.391299
0.379278
0.366987
0.354549
0.342096
0.329772
0.31772
0.306077
0.294967
0.284496
0.274744
0.265769
0.2576
0.250244
0.243688
0.237901
0.232837
0.228444
0.224662
0.221428
0.218682
0.216363
0.214417
0.21279
0.211436
0.210313
0.209385
0.208621
0.207992
0.207476
0.207053
0.206707
0.206423
0.206192
0.206002
0.205847
0.20572
0.205616
0.205531
0.205461
0.205404
0.205357
0.205319
0.205287
0.205261
0.205239
0.205221
0.205206
0.205194
0.205184
0.205176
0.205169
0.205163
0.205159
0.205155
0.205151
0.205149
0.205146
0.205145
0.205143
0.205142
0.205141
0.20514
0.205139
0.205138
0.205138
0.205137
0.205137
0.205137
0.205137
0.205136
0.205136
0.205136
0.205136
0.205136
0.205136
0.205136
0.205136
0.205136
0.205136
0.205136
0.205136
0.205136
0.205136
0.205136
0.205136
0.205136
0.205136
0.205136
0.205136
0.205136
0.205137
0.205137
0.205137
0.205138
0.205138
0.205139
0.205139
0.20514
0.205141
0.205142
0.205143
0.205145
0.205147
0.20515
0.205152
0.205156
0.20516
0.205165
0.205171
0.205179
0.205188
0.205198
0.205211
0.205227
0.205246
0.205268
0.205295
0.205328
0.205367
0.205415
0.205472
0.205541
0.205624
0.205725
0.205845
0.205991
0.206167
0.206379
0.206634
0.206943
0.207316
0.207766
0.20831
0.20897
0.209768
0.210737
0.211915
0.213349
0.215099
0.217243
0.219876
0.223126
0.227159
0.232197
0.238539
0.246606
0.25699
0.270563
0.288645
0.313314
0.347998
0.398699
0.476495
0.60338
0.822738
1.21159
1.86225
2.82248
2.20372
0.195791
0.196382
0.197892
0.200982
0.207386
0.220169
0.24227
0.27319
0.306089
0.328258
0.329594
0.325323
0.315901
0.30499
0.297492
0.296855
0.303933
0.317687
0.336312
0.35779
0.380075
0.401314
0.420107
0.435638
0.447637
0.456232
0.461779
0.464717
0.465482
0.46445
0.461928
0.458148
0.453279
0.447443
0.440727
0.433196
0.424902
0.415892
0.406218
0.395938
0.385126
0.37387
0.362277
0.350471
0.338589
0.326776
0.315179
0.303937
0.293178
0.28301
0.273519
0.264765
0.256783
0.249584
0.243157
0.237476
0.232499
0.228175
0.224449
0.221261
0.21855
0.21626
0.214335
0.212725
0.211385
0.210273
0.209354
0.208595
0.207972
0.20746
0.20704
0.206696
0.206415
0.206184
0.205996
0.205842
0.205716
0.205613
0.205528
0.205459
0.205402
0.205356
0.205317
0.205286
0.20526
0.205238
0.20522
0.205206
0.205194
0.205184
0.205176
0.205169
0.205163
0.205158
0.205154
0.205151
0.205149
0.205146
0.205144
0.205143
0.205142
0.205141
0.20514
0.205139
0.205138
0.205138
0.205137
0.205137
0.205137
0.205137
0.205136
0.205136
0.205136
0.205136
0.205136
0.205136
0.205136
0.205136
0.205136
0.205136
0.205136
0.205136
0.205136
0.205136
0.205136
0.205136
0.205136
0.205136
0.205136
0.205136
0.205136
0.205137
0.205137
0.205137
0.205138
0.205138
0.205139
0.205139
0.20514
0.205141
0.205142
0.205143
0.205145
0.205147
0.205149
0.205152
0.205156
0.20516
0.205165
0.205171
0.205179
0.205188
0.205198
0.205211
0.205227
0.205245
0.205268
0.205295
0.205328
0.205367
0.205415
0.205472
0.205541
0.205624
0.205724
0.205844
0.20599
0.206165
0.206377
0.206632
0.206939
0.207311
0.20776
0.208303
0.20896
0.209755
0.21072
0.211893
0.21332
0.215061
0.217191
0.219807
0.223033
0.227034
0.232025
0.238304
0.246279
0.256533
0.269915
0.287713
0.311951
0.345967
0.395585
0.471647
0.595338
0.81025
1.18788
1.83267
2.76835
2.39478
0.198353
0.198061
0.198139
0.198696
0.200004
0.202619
0.207181
0.213701
0.220738
0.225631
0.228569
0.232568
0.238326
0.246594
0.257844
0.272135
0.289215
0.308579
0.329426
0.350686
0.371192
0.389914
0.406129
0.419481
0.429928
0.437646
0.442927
0.446097
0.447467
0.4473
0.445808
0.443151
0.439446
0.434774
0.429197
0.422762
0.415507
0.407476
0.398714
0.38928
0.379248
0.368709
0.357771
0.346561
0.335217
0.323886
0.312719
0.301858
0.291432
0.281555
0.272314
0.263773
0.255971
0.248924
0.242623
0.237046
0.232155
0.227901
0.224231
0.221088
0.218413
0.216152
0.21425
0.212658
0.211332
0.210231
0.20932
0.208569
0.20795
0.207442
0.207026
0.206685
0.206405
0.206177
0.20599
0.205837
0.205712
0.205609
0.205525
0.205457
0.2054
0.205354
0.205316
0.205284
0.205259
0.205237
0.20522
0.205205
0.205193
0.205183
0.205175
0.205168
0.205163
0.205158
0.205154
0.205151
0.205148
0.205146
0.205144
0.205143
0.205142
0.20514
0.20514
0.205139
0.205138
0.205138
0.205137
0.205137
0.205137
0.205136
0.205136
0.205136
0.205136
0.205136
0.205136
0.205136
0.205136
0.205136
0.205136
0.205136
0.205136
0.205136
0.205136
0.205136
0.205136
0.205136
0.205136
0.205136
0.205136
0.205136
0.205136
0.205137
0.205137
0.205137
0.205137
0.205138
0.205138
0.205139
0.20514
0.205141
0.205142
0.205143
0.205145
0.205147
0.205149
0.205152
0.205156
0.20516
0.205165
0.205171
0.205179
0.205188
0.205198
0.205211
0.205227
0.205245
0.205268
0.205295
0.205328
0.205367
0.205414
0.205471
0.20554
0.205623
0.205723
0.205843
0.205989
0.206164
0.206374
0.206629
0.206936
0.207307
0.207754
0.208295
0.20895
0.209742
0.210703
0.21187
0.21329
0.215021
0.217138
0.219735
0.222936
0.226901
0.231843
0.238052
0.245928
0.256037
0.269205
0.28668
0.310416
0.343634
0.391909
0.465679
0.584937
0.792043
1.15296
1.77145
2.67779
2.54207
0.203374
0.202761
0.202382
0.2023
0.202604
0.203454
0.205046
0.207495
0.210703
0.21449
0.21933
0.225684
0.233898
0.24423
0.256793
0.271525
0.288163
0.30621
0.324955
0.343562
0.361214
0.377238
0.391193
0.402876
0.412283
0.419542
0.424853
0.428435
0.430494
0.431206
0.430711
0.429114
0.426493
0.422899
0.418374
0.41295
0.406656
0.39953
0.391614
0.382968
0.373663
0.363793
0.353469
0.342816
0.331978
0.321103
0.310343
0.299842
0.289734
0.280133
0.271131
0.262796
0.255168
0.248268
0.24209
0.236615
0.231807
0.227622
0.224008
0.22091
0.218272
0.21604
0.214161
0.212587
0.211275
0.210186
0.209284
0.20854
0.207927
0.207424
0.207011
0.206673
0.206396
0.206169
0.205983
0.205832
0.205707
0.205606
0.205522
0.205454
0.205398
0.205352
0.205314
0.205283
0.205258
0.205236
0.205219
0.205205
0.205193
0.205183
0.205175
0.205168
0.205163
0.205158
0.205154
0.205151
0.205148
0.205146
0.205144
0.205143
0.205141
0.20514
0.20514
0.205139
0.205138
0.205138
0.205137
0.205137
0.205137
0.205136
0.205136
0.205136
0.205136
0.205136
0.205136
0.205136
0.205136
0.205136
0.205136
0.205136
0.205136
0.205136
0.205136
0.205136
0.205136
0.205136
0.205136
0.205136
0.205136
0.205136
0.205136
0.205137
0.205137
0.205137
0.205137
0.205138
0.205138
0.205139
0.20514
0.205141
0.205142
0.205143
0.205145
0.205147
0.205149
0.205152
0.205156
0.20516
0.205165
0.205171
0.205179
0.205187
0.205198
0.205211
0.205227
0.205245
0.205268
0.205295
0.205327
0.205367
0.205414
0.205471
0.20554
0.205623
0.205722
0.205842
0.205987
0.206162
0.206372
0.206626
0.206932
0.207302
0.207748
0.208288
0.20894
0.209729
0.210686
0.211847
0.213259
0.21498
0.217082
0.219661
0.222835
0.226762
0.231652
0.237786
0.245554
0.255505
0.268438
0.285553
0.308725
0.341028
0.387735
0.458729
0.572561
0.769041
1.10913
1.687
2.55174
2.63326
0.207996
0.207268
0.206729
0.206442
0.206489
0.206982
0.208062
0.209879
0.212586
0.216375
0.22143
0.227964
0.236162
0.246153
0.257959
0.271459
0.286365
0.302227
0.318473
0.334482
0.349672
0.363575
0.375883
0.386444
0.39524
0.402339
0.40786
0.411935
0.414693
0.416245
0.416677
0.416054
0.414422
0.411812
0.408247
0.403747
0.398335
0.392042
0.384908
0.37699
0.368361
0.359115
0.349363
0.339234
0.328871
0.318425
0.308049
0.29789
0.288083
0.278746
0.269973
0.261835
0.254375
0.247617
0.241559
0.236183
0.231458
0.227341
0.223782
0.220729
0.218128
0.215924
0.214069
0.212514
0.211217
0.21014
0.209247
0.20851
0.207904
0.207405
0.206996
0.20666
0.206385
0.206161
0.205977
0.205826
0.205703
0.205602
0.205519
0.205452
0.205396
0.20535
0.205313
0.205282
0.205257
0.205236
0.205218
0.205204
0.205192
0.205183
0.205174
0.205168
0.205162
0.205158
0.205154
0.205151
0.205148
0.205146
0.205144
0.205143
0.205141
0.20514
0.20514
0.205139
0.205138
0.205138
0.205137
0.205137
0.205137
0.205136
0.205136
0.205136
0.205136
0.205136
0.205136
0.205136
0.205136
0.205136
0.205136
0.205136
0.205136
0.205136
0.205136
0.205136
0.205136
0.205136
0.205136
0.205136
0.205136
0.205136
0.205136
0.205137
0.205137
0.205137
0.205137
0.205138
0.205138
0.205139
0.20514
0.205141
0.205142
0.205143
0.205145
0.205147
0.205149
0.205152
0.205156
0.20516
0.205165
0.205171
0.205179
0.205187
0.205198
0.205211
0.205226
0.205245
0.205268
0.205295
0.205327
0.205366
0.205414
0.205471
0.205539
0.205622
0.205722
0.205841
0.205986
0.20616
0.20637
0.206624
0.206929
0.207298
0.207743
0.20828
0.20893
0.209716
0.210668
0.211824
0.213228
0.214938
0.217026
0.219584
0.22273
0.226618
0.231452
0.237507
0.245159
0.254941
0.267619
0.284343
0.306894
0.338181
0.383137
0.450961
0.558626
0.742379
1.0585
1.58757
2.39598
2.65814
0.211612
0.21085
0.210252
0.209884
0.209829
0.210195
0.211112
0.212738
0.215251
0.218828
0.223606
0.229741
0.23735
0.246493
0.257137
0.269137
0.282231
0.29605
0.310152
0.324075
0.337391
0.349753
0.360919
0.370756
0.379219
0.386325
0.39213
0.396705
0.40012
0.402437
0.403705
0.403956
0.403213
0.401488
0.398791
0.39513
0.390522
0.384991
0.378576
0.37133
0.363328
0.354661
0.345443
0.335804
0.325888
0.315846
0.305834
0.295999
0.286479
0.277394
0.26884
0.26089
0.253593
0.246972
0.24103
0.235752
0.231108
0.227057
0.223554
0.220545
0.21798
0.215806
0.213974
0.212439
0.211157
0.210091
0.209209
0.20848
0.207879
0.207385
0.20698
0.206647
0.206375
0.206152
0.20597
0.20582
0.205698
0.205598
0.205516
0.205449
0.205394
0.205349
0.205311
0.205281
0.205256
0.205235
0.205218
0.205203
0.205192
0.205182
0.205174
0.205168
0.205162
0.205158
0.205154
0.205151
0.205148
0.205146
0.205144
0.205143
0.205141
0.20514
0.205139
0.205139
0.205138
0.205138
0.205137
0.205137
0.205137
0.205136
0.205136
0.205136
0.205136
0.205136
0.205136
0.205136
0.205136
0.205136
0.205136
0.205136
0.205136
0.205136
0.205136
0.205136
0.205136
0.205136
0.205136
0.205136
0.205136
0.205136
0.205136
0.205137
0.205137
0.205137
0.205137
0.205138
0.205138
0.205139
0.20514
0.205141
0.205142
0.205143
0.205145
0.205147
0.205149
0.205152
0.205156
0.20516
0.205165
0.205171
0.205179
0.205187
0.205198
0.205211
0.205226
0.205245
0.205267
0.205294
0.205327
0.205366
0.205413
0.20547
0.205539
0.205621
0.205721
0.205841
0.205985
0.206159
0.206368
0.206621
0.206926
0.207293
0.207737
0.208272
0.208919
0.209702
0.21065
0.2118
0.213196
0.214894
0.216967
0.219504
0.222621
0.226468
0.231244
0.237216
0.244746
0.254347
0.266754
0.283059
0.304944
0.335135
0.378197
0.442558
0.543555
0.713259
1.00321
1.48009
2.21955
2.61465
0.214226
0.213461
0.212841
0.21243
0.212308
0.212575
0.213353
0.214787
0.217043
0.220254
0.22456
0.230083
0.236906
0.245054
0.254477
0.265038
0.276517
0.288618
0.301002
0.313316
0.325231
0.336471
0.346833
0.356187
0.364463
0.371643
0.377736
0.382767
0.386765
0.389756
0.391758
0.39278
0.392825
0.391889
0.389969
0.387065
0.383186
0.378351
0.372594
0.365968
0.358545
0.350417
0.341698
0.332518
0.323021
0.31336
0.303691
0.294164
0.284918
0.276073
0.26773
0.259962
0.252821
0.246334
0.240505
0.235322
0.230757
0.226772
0.223323
0.220359
0.21783
0.215686
0.213878
0.212361
0.211095
0.210042
0.209169
0.208448
0.207853
0.207364
0.206963
0.206634
0.206364
0.206143
0.205962
0.205814
0.205693
0.205594
0.205513
0.205446
0.205392
0.205347
0.20531
0.205279
0.205254
0.205234
0.205217
0.205203
0.205191
0.205182
0.205174
0.205167
0.205162
0.205157
0.205154
0.20515
0.205148
0.205146
0.205144
0.205143
0.205141
0.20514
0.205139
0.205139
0.205138
0.205138
0.205137
0.205137
0.205137
0.205136
0.205136
0.205136
0.205136
0.205136
0.205136
0.205136
0.205136
0.205136
0.205136
0.205136
0.205136
0.205136
0.205136
0.205136
0.205136
0.205136
0.205136
0.205136
0.205136
0.205136
0.205136
0.205137
0.205137
0.205137
0.205137
0.205138
0.205138
0.205139
0.20514
0.205141
0.205142
0.205143
0.205145
0.205147
0.205149
0.205152
0.205156
0.20516
0.205165
0.205171
0.205178
0.205187
0.205198
0.205211
0.205226
0.205245
0.205267
0.205294
0.205327
0.205366
0.205413
0.20547
0.205538
0.205621
0.20572
0.20584
0.205984
0.206157
0.206366
0.206618
0.206922
0.207289
0.207731
0.208264
0.208909
0.209689
0.210632
0.211775
0.213163
0.214851
0.216908
0.219423
0.22251
0.226314
0.23103
0.236914
0.244317
0.253729
0.26585
0.281714
0.302897
0.331928
0.372997
0.433708
0.527752
0.682821
0.945344
1.36987
2.03237
2.50938
0.21601
0.215252
0.214623
0.214181
0.213999
0.214168
0.214795
0.216011
0.217951
0.22074
0.224508
0.229357
0.235355
0.242516
0.250793
0.260072
0.270173
0.280863
0.291876
0.302934
0.313771
0.324159
0.333916
0.342913
0.351064
0.358322
0.364665
0.370084
0.374578
0.378145
0.380779
0.38247
0.383204
0.382965
0.381738
0.379514
0.376293
0.37209
0.366936
0.360879
0.353991
0.346364
0.33811
0.329359
0.320257
0.310957
0.301614
0.29238
0.283395
0.274781
0.266639
0.259048
0.252059
0.245701
0.239982
0.234892
0.230405
0.226486
0.22309
0.22017
0.217678
0.215563
0.213779
0.212282
0.211031
0.209991
0.209128
0.208415
0.207827
0.207343
0.206946
0.20662
0.206353
0.206134
0.205955
0.205808
0.205688
0.20559
0.20551
0.205444
0.205389
0.205345
0.205308
0.205278
0.205253
0.205233
0.205216
0.205202
0.205191
0.205181
0.205173
0.205167
0.205162
0.205157
0.205153
0.20515
0.205148
0.205146
0.205144
0.205142
0.205141
0.20514
0.205139
0.205139
0.205138
0.205138
0.205137
0.205137
0.205137
0.205136
0.205136
0.205136
0.205136
0.205136
0.205136
0.205136
0.205136
0.205136
0.205136
0.205136
0.205136
0.205136
0.205136
0.205136
0.205136
0.205136
0.205136
0.205136
0.205136
0.205136
0.205136
0.205136
0.205137
0.205137
0.205137
0.205138
0.205138
0.205139
0.20514
0.205141
0.205142
0.205143
0.205145
0.205147
0.205149
0.205152
0.205156
0.20516
0.205165
0.205171
0.205178
0.205187
0.205198
0.205211
0.205226
0.205245
0.205267
0.205294
0.205327
0.205366
0.205413
0.20547
0.205538
0.20562
0.205719
0.205839
0.205982
0.206156
0.206364
0.206616
0.206919
0.207284
0.207725
0.208257
0.208899
0.209675
0.210614
0.211751
0.21313
0.214806
0.216847
0.21934
0.222396
0.226157
0.230809
0.236603
0.243874
0.25309
0.264915
0.28032
0.300774
0.328604
0.367618
0.424588
0.511592
0.652053
0.886879
1.26081
1.84355
2.35529
0.21717
0.216418
0.215783
0.215313
0.215074
0.215144
0.21562
0.216612
0.218235
0.220608
0.223847
0.228045
0.233263
0.239518
0.246774
0.254942
0.26388
0.273403
0.283298
0.29334
0.30331
0.313009
0.322272
0.330969
0.339005
0.346314
0.352849
0.358579
0.363479
0.367524
0.370693
0.372958
0.37429
0.374662
0.374048
0.372431
0.369803
0.366174
0.361569
0.356036
0.349643
0.34248
0.33466
0.326313
0.317583
0.308624
0.299592
0.290638
0.281903
0.273511
0.265565
0.258144
0.251303
0.245072
0.239461
0.234462
0.230052
0.226197
0.222855
0.21998
0.217523
0.215438
0.213679
0.212201
0.210966
0.209938
0.209086
0.208381
0.207799
0.207321
0.206928
0.206605
0.206341
0.206125
0.205947
0.205802
0.205683
0.205586
0.205506
0.205441
0.205387
0.205343
0.205307
0.205277
0.205252
0.205232
0.205215
0.205202
0.20519
0.205181
0.205173
0.205167
0.205161
0.205157
0.205153
0.20515
0.205148
0.205146
0.205144
0.205142
0.205141
0.20514
0.205139
0.205139
0.205138
0.205138
0.205137
0.205137
0.205137
0.205136
0.205136
0.205136
0.205136
0.205136
0.205136
0.205136
0.205136
0.205136
0.205136
0.205136
0.205136
0.205136
0.205136
0.205136
0.205136
0.205136
0.205136
0.205136
0.205136
0.205136
0.205136
0.205136
0.205137
0.205137
0.205137
0.205138
0.205138
0.205139
0.20514
0.205141
0.205142
0.205143
0.205145
0.205147
0.205149
0.205152
0.205156
0.20516
0.205165
0.205171
0.205178
0.205187
0.205198
0.205211
0.205226
0.205245
0.205267
0.205294
0.205326
0.205366
0.205413
0.205469
0.205537
0.20562
0.205719
0.205838
0.205981
0.206154
0.206362
0.206613
0.206915
0.207279
0.207719
0.208249
0.208888
0.209661
0.210595
0.211726
0.213097
0.214761
0.216786
0.219256
0.22228
0.225996
0.230584
0.236284
0.24342
0.252434
0.263954
0.278888
0.298596
0.325202
0.362139
0.415363
0.495402
0.621751
0.829539
1.15575
1.66039
2.16874
0.217888
0.217141
0.216498
0.216002
0.215708
0.215686
0.216018
0.2168
0.218132
0.220126
0.222886
0.226497
0.231019
0.236475
0.242844
0.25006
0.258013
0.266556
0.275517
0.284709
0.293947
0.303055
0.311883
0.320301
0.328208
0.335525
0.342191
0.348154
0.353373
0.357809
0.361421
0.364171
0.366017
0.366921
0.366847
0.36577
0.363674
0.360564
0.35646
0.351407
0.34547
0.33874
0.331326
0.323359
0.314981
0.306347
0.297611
0.288927
0.280434
0.272257
0.264501
0.257247
0.250549
0.244443
0.238939
0.234031
0.229697
0.225906
0.222617
0.219786
0.217366
0.215311
0.213576
0.212118
0.210899
0.209885
0.209043
0.208346
0.207771
0.207298
0.20691
0.206591
0.206329
0.206115
0.205939
0.205796
0.205678
0.205582
0.205503
0.205438
0.205385
0.205341