/*--------------------------------*- C++ -*----------------------------------*\
| =========                 |                                                 |
| \\      /  F ield         | OpenFOAM: The Open Source CFD Toolbox           |
|  \\    /   O peration     | Version:  2.4.0                                 |
|   \\  /    A nd           | Web:      www.OpenFOAM.org                      |
|    \\/     M anipulation  |                                                 |
\*---------------------------------------------------------------------------*/
FoamFile
{
    version     2.0;
    format      ascii;
    class       volVectorField;
    location    "0.0211173";
    object      U;
}
// * * * * * * * * * * * * * * * * * * * * * * * * * * * * * * * * * * * * * //

dimensions      [0 1 -1 0 0 0 0];

internalField   nonuniform List<vector> 
17600
(
(9.84307 -0.186863 0)
(9.53035 -0.132881 0)
(9.21446 -0.0666739 0)
(8.91137 -0.026007 0)
(8.63845 -0.00491426 0)
(8.40278 0.00443455 0)
(8.20438 0.0075434 0)
(8.04069 0.00751202 0)
(7.90787 0.0060964 0)
(7.80109 0.00434332 0)
(7.71508 0.0028022 0)
(7.64488 0.00167967 0)
(7.58647 0.000968873 0)
(7.53707 0.000563206 0)
(7.49495 0.000341977 0)
(7.459 0.000260179 0)
(7.42782 0.000228827 0)
(7.39698 0.00126482 0)
(7.35898 -0.00046975 0)
(7.2711 0.0335855 0)
(10.0567 0.104723 0)
(10.1492 0.134273 0)
(10.1835 0.103604 0)
(10.1743 0.0768912 0)
(10.1347 0.0589624 0)
(10.0706 0.0466345 0)
(9.98729 0.0378453 0)
(9.89086 0.0312292 0)
(9.78714 0.0260134 0)
(9.68123 0.0218364 0)
(9.57724 0.0184767 0)
(9.47829 0.0157548 0)
(9.38637 0.0135055 0)
(9.30249 0.0115802 0)
(9.22698 0.00988515 0)
(9.15974 0.00838196 0)
(9.10017 0.00732479 0)
(9.04759 0.00699401 0)
(8.99197 0.0102133 0)
(8.94876 0.0290956 0)
(10.0096 0.0170836 0)
(10.0498 0.00851284 0)
(10.0888 0.0109047 0)
(10.1181 0.0210911 0)
(10.1394 0.0285455 0)
(10.1525 0.0317649 0)
(10.1564 0.0323166 0)
(10.1511 0.0314455 0)
(10.1372 0.0298351 0)
(10.1159 0.027868 0)
(10.0883 0.0257579 0)
(10.0559 0.0236269 0)
(10.02 0.0215353 0)
(9.982 0.019494 0)
(9.94285 0.0175023 0)
(9.90355 0.0156047 0)
(9.86458 0.0140047 0)
(9.82551 0.0138493 0)
(9.78213 0.015852 0)
(9.72126 0.0423433 0)
(10.0045 0.0149415 0)
(10.0285 0.0284183 0)
(10.0553 0.0336544 0)
(10.0784 0.0360856 0)
(10.1001 0.0364105 0)
(10.1205 0.035353 0)
(10.1379 0.0337683 0)
(10.1517 0.0320389 0)
(10.1618 0.0302531 0)
(10.1681 0.0284451 0)
(10.1708 0.0266569 0)
(10.1701 0.0249204 0)
(10.1661 0.0232421 0)
(10.1591 0.0215973 0)
(10.149 0.0199647 0)
(10.1359 0.0183719 0)
(10.1196 0.0171122 0)
(10.0997 0.0173331 0)
(10.0729 0.0210793 0)
(10.0307 0.0508459 0)
(10.0035 0.0139925 0)
(10.0226 0.0276022 0)
(10.0443 0.0298855 0)
(10.0635 0.0310884 0)
(10.0827 0.031967 0)
(10.1022 0.031794 0)
(10.1207 0.0309159 0)
(10.1374 0.0297258 0)
(10.1522 0.0283806 0)
(10.165 0.0269605 0)
(10.1757 0.0255347 0)
(10.1844 0.0241482 0)
(10.191 0.0228179 0)
(10.1953 0.021532 0)
(10.1971 0.0202813 0)
(10.1961 0.0191036 0)
(10.1917 0.0183339 0)
(10.1832 0.0192108 0)
(10.1676 0.0245588 0)
(10.1411 0.0559115 0)
(10.0031 0.0129525 0)
(10.0198 0.025395 0)
(10.0393 0.0271036 0)
(10.0568 0.0283853 0)
(10.0743 0.0295489 0)
(10.0926 0.0295574 0)
(10.1105 0.0288024 0)
(10.1273 0.0277541 0)
(10.143 0.0265775 0)
(10.1574 0.0253417 0)
(10.1705 0.0241081 0)
(10.1822 0.0229208 0)
(10.1924 0.0218037 0)
(10.2011 0.0207586 0)
(10.2079 0.0197919 0)
(10.2123 0.0189573 0)
(10.2138 0.018633 0)
(10.2115 0.0201302 0)
(10.203 0.0267312 0)
(10.188 0.0587297 0)
(10.0027 0.0114977 0)
(10.0178 0.0228968 0)
(10.0363 0.024809 0)
(10.053 0.026175 0)
(10.0697 0.0273515 0)
(10.0871 0.0273831 0)
(10.1043 0.026688 0)
(10.1208 0.0257394 0)
(10.1364 0.0246857 0)
(10.1511 0.0235825 0)
(10.1648 0.0224871 0)
(10.1776 0.0214453 0)
(10.1892 0.0204878 0)
(10.1997 0.0196285 0)
(10.2088 0.0188891 0)
(10.216 0.0183438 0)
(10.2206 0.0184102 0)
(10.2222 0.0204519 0)
(10.2184 0.0280025 0)
(10.2126 0.0598726 0)
(10.0023 0.0101214 0)
(10.0162 0.0207588 0)
(10.034 0.0228833 0)
(10.0504 0.0241592 0)
(10.0666 0.0252388 0)
(10.0835 0.0252711 0)
(10.1003 0.0246274 0)
(10.1164 0.0237583 0)
(10.1317 0.0227992 0)
(10.1464 0.0217977 0)
(10.1602 0.0208087 0)
(10.1733 0.019879 0)
(10.1855 0.0190444 0)
(10.1967 0.0183292 0)
(10.2069 0.01777 0)
(10.2155 0.0174628 0)
(10.2221 0.0178579 0)
(10.2263 0.0203513 0)
(10.226 0.028559 0)
(10.2276 0.0596342 0)
(10.0021 0.00890331 0)
(10.0149 0.0187907 0)
(10.032 0.0209902 0)
(10.0483 0.0221401 0)
(10.0643 0.0231369 0)
(10.0809 0.0231901 0)
(10.0974 0.0226043 0)
(10.1133 0.0218096 0)
(10.1284 0.0209346 0)
(10.1429 0.0200216 0)
(10.1567 0.0191233 0)
(10.1698 0.0182871 0)
(10.1821 0.0175527 0)
(10.1937 0.0169531 0)
(10.2044 0.0165385 0)
(10.2139 0.0164265 0)
(10.2216 0.0170906 0)
(10.2275 0.0199397 0)
(10.23 0.0285307 0)
(10.2378 0.0582662 0)
(10.0018 0.00781531 0)
(10.0138 0.0169033 0)
(10.0304 0.0190946 0)
(10.0465 0.0201352 0)
(10.0624 0.0210608 0)
(10.0788 0.0211363 0)
(10.0952 0.020608 0)
(10.1109 0.0198853 0)
(10.1259 0.0190907 0)
(10.1402 0.018261 0)
(10.1539 0.0174463 0)
(10.167 0.0166941 0)
(10.1793 0.0160466 0)
(10.191 0.0155441 0)
(10.202 0.0152483 0)
(10.2119 0.0152969 0)
(10.2204 0.0161765 0)
(10.2277 0.0192892 0)
(10.2324 0.0280205 0)
(10.2453 0.0559882 0)
(10.0017 0.0068276 0)
(10.0128 0.0150798 0)
(10.0289 0.0172114 0)
(10.045 0.0181554 0)
(10.0608 0.0190067 0)
(10.0771 0.0190978 0)
(10.0933 0.0186261 0)
(10.1089 0.0179752 0)
(10.1238 0.01726 0)
(10.1381 0.0165121 0)
(10.1517 0.0157786 0)
(10.1647 0.0151061 0)
(10.1771 0.0145384 0)
(10.1888 0.0141215 0)
(10.1999 0.0139263 0)
(10.2101 0.0141082 0)
(10.2191 0.015157 0)
(10.2275 0.0184482 0)
(10.234 0.0271122 0)
(10.2509 0.0529884 0)
(10.0015 0.00592165 0)
(10.012 0.0133187 0)
(10.0276 0.0153472 0)
(10.0436 0.0161973 0)
(10.0594 0.0169682 0)
(10.0755 0.0170683 0)
(10.0917 0.0166523 0)
(10.1073 0.016073 0)
(10.1222 0.0154369 0)
(10.1364 0.0147706 0)
(10.15 0.0141176 0)
(10.1629 0.0135233 0)
(10.1753 0.0130315 0)
(10.187 0.0126928 0)
(10.1981 0.0125854 0)
(10.2086 0.012879 0)
(10.218 0.0140573 0)
(10.2272 0.0174508 0)
(10.2352 0.0258753 0)
(10.2554 0.0494294 0)
(10.0014 0.00508398 0)
(10.0113 0.0116157 0)
(10.0266 0.0135005 0)
(10.0425 0.0142562 0)
(10.0581 0.0149421 0)
(10.0742 0.0150455 0)
(10.0904 0.0146838 0)
(10.1059 0.0141757 0)
(10.1207 0.013618 0)
(10.135 0.0130331 0)
(10.1485 0.0124607 0)
(10.1614 0.0119438 0)
(10.1738 0.011526 0)
(10.1855 0.0112607 0)
(10.1967 0.0112315 0)
(10.2073 0.0116193 0)
(10.217 0.0128932 0)
(10.2269 0.0163219 0)
(10.2362 0.0243683 0)
(10.2589 0.0454521 0)
(10.0013 0.00430307 0)
(10.0107 0.00996408 0)
(10.0256 0.011669 0)
(10.0415 0.0123288 0)
(10.0571 0.0129271 0)
(10.0731 0.0130283 0)
(10.0892 0.0127194 0)
(10.1047 0.0122816 0)
(10.1196 0.0118014 0)
(10.1337 0.0112976 0)
(10.1473 0.0108057 0)
(10.1602 0.0103661 0)
(10.1725 0.0100209 0)
(10.1843 0.00982551 0)
(10.1955 0.00986704 0)
(10.2062 0.0103346 0)
(10.2162 0.0116752 0)
(10.2267 0.0150812 0)
(10.2371 0.0226413 0)
(10.2617 0.0411789 0)
(10.0012 0.00356872 0)
(10.0102 0.00835678 0)
(10.0249 0.00985059 0)
(10.0406 0.0104131 0)
(10.0562 0.0109217 0)
(10.0722 0.011016 0)
(10.0882 0.0107582 0)
(10.1037 0.0103897 0)
(10.1186 0.00998619 0)
(10.1327 0.00956301 0)
(10.1463 0.00915159 0)
(10.1592 0.00878882 0)
(10.1715 0.00851517 0)
(10.1833 0.00838693 0)
(10.1946 0.00849316 0)
(10.2054 0.00902797 0)
(10.2156 0.0104106 0)
(10.2265 0.0137449 0)
(10.2379 0.0207384 0)
(10.2638 0.0367152 0)
(10.0011 0.00287189 0)
(10.0098 0.00678682 0)
(10.0242 0.00804362 0)
(10.0399 0.00850713 0)
(10.0555 0.00892474 0)
(10.0714 0.00900781 0)
(10.0874 0.00879944 0)
(10.1029 0.00849956 0)
(10.1177 0.00817187 0)
(10.1319 0.00782888 0)
(10.1455 0.00749766 0)
(10.1584 0.00721139 0)
(10.1707 0.00700827 0)
(10.1825 0.0069447 0)
(10.1938 0.0071104 0)
(10.2047 0.00770161 0)
(10.2152 0.00910524 0)
(10.2265 0.0123272 0)
(10.2386 0.0186983 0)
(10.2654 0.0321518 0)
(10.0011 0.00220454 0)
(10.0095 0.00524731 0)
(10.0238 0.00624617 0)
(10.0394 0.00660891 0)
(10.0549 0.00693457 0)
(10.0708 0.00700296 0)
(10.0868 0.00684269 0)
(10.1023 0.0066108 0)
(10.1171 0.00635818 0)
(10.1313 0.00609491 0)
(10.1448 0.00584359 0)
(10.1577 0.00563339 0)
(10.1701 0.00549981 0)
(10.1819 0.00549869 0)
(10.1932 0.00571924 0)
(10.2043 0.00635729 0)
(10.2149 0.00776424 0)
(10.2266 0.0108413 0)
(10.2393 0.0165559 0)
(10.2664 0.027566 0)
(10.001 0.00155936 0)
(10.0093 0.00373141 0)
(10.0234 0.00445624 0)
(10.039 0.00471664 0)
(10.0545 0.00494974 0)
(10.0704 0.00500073 0)
(10.0863 0.00488748 0)
(10.1018 0.00472308 0)
(10.1166 0.00454492 0)
(10.1308 0.00436094 0)
(10.1443 0.00418924 0)
(10.1573 0.00405464 0)
(10.1696 0.00398965 0)
(10.1814 0.00404892 0)
(10.1928 0.0043202 0)
(10.2039 0.00499668 0)
(10.2148 0.00639229 0)
(10.2267 0.00929942 0)
(10.24 0.0143422 0)
(10.2671 0.0230234 0)
(10.001 0.000929636 0)
(10.0092 0.0022323 0)
(10.0231 0.00267175 0)
(10.0387 0.00282858 0)
(10.0542 0.00296873 0)
(10.0701 0.00300038 0)
(10.086 0.00293334 0)
(10.1015 0.00283607 0)
(10.1163 0.00273191 0)
(10.1305 0.00262689 0)
(10.144 0.00253451 0)
(10.157 0.00247505 0)
(10.1693 0.00247775 0)
(10.1812 0.00259549 0)
(10.1926 0.00291385 0)
(10.2038 0.00362147 0)
(10.2148 0.00499392 0)
(10.2269 0.00771333 0)
(10.2405 0.0120853 0)
(10.2674 0.0185789 0)
(10.001 0.000309048 0)
(10.0091 0.00074323 0)
(10.023 0.000890559 0)
(10.0386 0.000943044 0)
(10.0541 0.000990013 0)
(10.0699 0.00100114 0)
(10.0859 0.000979833 0)
(10.1013 0.000949468 0)
(10.1161 0.000919015 0)
(10.1303 0.000892687 0)
(10.1439 0.000879371 0)
(10.1568 0.000894599 0)
(10.1692 0.000964123 0)
(10.181 0.00113861 0)
(10.1925 0.00150082 0)
(10.2038 0.00223335 0)
(10.2149 0.00357355 0)
(10.2272 0.00609408 0)
(10.2411 0.00981014 0)
(10.2674 0.0142785 0)
(10.001 -0.000308513 0)
(10.0091 -0.000742498 0)
(10.023 -0.000889533 0)
(10.0386 -0.000941651 0)
(10.0541 -0.000987941 0)
(10.0699 -0.000997729 0)
(10.0859 -0.00097349 0)
(10.1013 -0.000937042 0)
(10.1161 -0.00089393 0)
(10.1303 -0.000841721 0)
(10.1439 -0.000776206 0)
(10.1568 -0.000686715 0)
(10.1692 -0.00055117 0)
(10.1811 -0.000321517 0)
(10.1926 8.17759e-05 0)
(10.2039 0.00083408 0)
(10.2151 0.0021355 0)
(10.2275 0.0044521 0)
(10.2416 0.00753889 0)
(10.2671 0.0101594 0)
(10.001 -0.000929103 0)
(10.0092 -0.00223157 0)
(10.0231 -0.00267074 0)
(10.0387 -0.0028272 0)
(10.0542 -0.00296667 0)
(10.0701 -0.00299699 0)
(10.086 -0.00292706 0)
(10.1015 -0.00282376 0)
(10.1163 -0.00270706 0)
(10.1305 -0.00257637 0)
(10.144 -0.00243222 0)
(10.157 -0.00226887 0)
(10.1694 -0.00206804 0)
(10.1813 -0.00178462 0)
(10.1928 -0.00134258 0)
(10.2042 -0.000574587 0)
(10.2155 0.000683968 0)
(10.2279 0.00279718 0)
(10.2421 0.00529126 0)
(10.2665 0.00625142 0)
(10.001 -0.00155883 0)
(10.0093 -0.00373069 0)
(10.0234 -0.00445524 0)
(10.039 -0.00471528 0)
(10.0545 -0.00494772 0)
(10.0704 -0.00499741 0)
(10.0863 -0.00488132 0)
(10.1018 -0.004711 0)
(10.1166 -0.00452052 0)
(10.1308 -0.00431132 0)
(10.1444 -0.00408869 0)
(10.1573 -0.00385185 0)
(10.1697 -0.00358642 0)
(10.1816 -0.00325044 0)
(10.1932 -0.00277153 0)
(10.2046 -0.00199086 0)
(10.216 -0.000776972 0)
(10.2284 0.00113842 0)
(10.2425 0.00308442 0)
(10.2659 0.00257871 0)
(10.0011 -0.00220402 0)
(10.0095 -0.00524661 0)
(10.0238 -0.00624519 0)
(10.0394 -0.00660758 0)
(10.0549 -0.0069326 0)
(10.0708 -0.00699973 0)
(10.0868 -0.00683671 0)
(10.1023 -0.00659907 0)
(10.1171 -0.00633446 0)
(10.1313 -0.00604662 0)
(10.1449 -0.00574565 0)
(10.1578 -0.00543567 0)
(10.1702 -0.00510623 0)
(10.1821 -0.00471871 0)
(10.1937 -0.00420435 0)
(10.2052 -0.00341296 0)
(10.2166 -0.00224336 0)
(10.229 -0.000515693 0)
(10.243 0.00093337 0)
(10.265 -0.000840747 0)
(10.0011 -0.00287139 0)
(10.0098 -0.00678613 0)
(10.0242 -0.00804266 0)
(10.0399 -0.00850584 0)
(10.0555 -0.00892284 0)
(10.0714 -0.00900471 0)
(10.0874 -0.00879369 0)
(10.1029 -0.00848829 0)
(10.1178 -0.00814905 0)
(10.1319 -0.00778236 0)
(10.1455 -0.00740315 0)
(10.1585 -0.00702036 0)
(10.1709 -0.00662746 0)
(10.1828 -0.00618919 0)
(10.1944 -0.00564028 0)
(10.2059 -0.00483906 0)
(10.2173 -0.0037113 0)
(10.2297 -0.00215728 0)
(10.2435 -0.00114872 0)
(10.2642 -0.00399463 0)
(10.0012 -0.00356823 0)
(10.0102 -0.00835612 0)
(10.0249 -0.00984967 0)
(10.0406 -0.0104119 0)
(10.0562 -0.0109199 0)
(10.0722 -0.0110131 0)
(10.0882 -0.0107527 0)
(10.1037 -0.010379 0)
(10.1186 -0.00996448 0)
(10.1328 -0.00951867 0)
(10.1463 -0.00906133 0)
(10.1593 -0.00860606 0)
(10.1717 -0.00815017 0)
(10.1837 -0.00766171 0)
(10.1953 -0.00707862 0)
(10.2068 -0.00626728 0)
(10.2182 -0.00517686 0)
(10.2305 -0.00377881 0)
(10.244 -0.00315027 0)
(10.2632 -0.00687359 0)
(10.0013 -0.0043026 0)
(10.0107 -0.00996345 0)
(10.0256 -0.0116681 0)
(10.0415 -0.0123276 0)
(10.0571 -0.0129254 0)
(10.0731 -0.0130256 0)
(10.0892 -0.0127143 0)
(10.1047 -0.0122715 0)
(10.1196 -0.011781 0)
(10.1338 -0.0112558 0)
(10.1474 -0.0107205 0)
(10.1603 -0.0101931 0)
(10.1728 -0.0096746 0)
(10.1848 -0.00913623 0)
(10.1964 -0.0085186 0)
(10.2079 -0.00769555 0)
(10.2193 -0.00663583 0)
(10.2314 -0.00537275 0)
(10.2445 -0.00506065 0)
(10.2622 -0.00947148 0)
(10.0014 -0.00508353 0)
(10.0113 -0.0116151 0)
(10.0266 -0.0134997 0)
(10.0425 -0.0142551 0)
(10.0581 -0.0149405 0)
(10.0742 -0.0150429 0)
(10.0904 -0.0146791 0)
(10.1059 -0.0141665 0)
(10.1208 -0.0135991 0)
(10.135 -0.0129943 0)
(10.1486 -0.0123812 0)
(10.1616 -0.0117821 0)
(10.174 -0.0112013 0)
(10.186 -0.0106128 0)
(10.1977 -0.00995933 0)
(10.2091 -0.00912133 0)
(10.2205 -0.0080833 0)
(10.2324 -0.00693098 0)
(10.2451 -0.00686937 0)
(10.2612 -0.0117839 0)
(10.0015 -0.00592123 0)
(10.012 -0.0133182 0)
(10.0276 -0.0153465 0)
(10.0436 -0.0161963 0)
(10.0594 -0.0169667 0)
(10.0756 -0.017066 0)
(10.0917 -0.016648 0)
(10.1073 -0.0160646 0)
(10.1222 -0.0154197 0)
(10.1364 -0.0147351 0)
(10.1501 -0.0140446 0)
(10.1631 -0.0133742 0)
(10.1756 -0.012731 0)
(10.1876 -0.0120914 0)
(10.1993 -0.0113994 0)
(10.2106 -0.010541 0)
(10.2219 -0.00951269 0)
(10.2335 -0.00844361 0)
(10.2456 -0.00856485 0)
(10.2601 -0.0138065 0)
(10.0017 -0.00682721 0)
(10.0128 -0.0150793 0)
(10.0289 -0.0172107 0)
(10.045 -0.0181544 0)
(10.0608 -0.0190053 0)
(10.0771 -0.0190957 0)
(10.0933 -0.0186223 0)
(10.1089 -0.0179677 0)
(10.1239 -0.0172447 0)
(10.1382 -0.0164803 0)
(10.1518 -0.0157127 0)
(10.1649 -0.0149709 0)
(10.1774 -0.0142645 0)
(10.1895 -0.0135713 0)
(10.2011 -0.0128358 0)
(10.2124 -0.0119484 0)
(10.2235 -0.0109143 0)
(10.2346 -0.00989736 0)
(10.2461 -0.0101326 0)
(10.2587 -0.0155332 0)
(10.0018 -0.00781495 0)
(10.0138 -0.0169029 0)
(10.0304 -0.0190939 0)
(10.0465 -0.0201344 0)
(10.0624 -0.0210596 0)
(10.0788 -0.0211345 0)
(10.0952 -0.0206048 0)
(10.1109 -0.0198789 0)
(10.1259 -0.0190773 0)
(10.1403 -0.0182331 0)
(10.154 -0.0173881 0)
(10.1671 -0.016574 0)
(10.1797 -0.0158017 0)
(10.1917 -0.0150498 0)
(10.2033 -0.0142621 0)
(10.2144 -0.0133328 0)
(10.2252 -0.0122726 0)
(10.2357 -0.0112729 0)
(10.2462 -0.0115525 0)
(10.257 -0.0169534 0)
(10.0021 -0.00890298 0)
(10.0149 -0.0187903 0)
(10.032 -0.0209896 0)
(10.0483 -0.0221393 0)
(10.0643 -0.0231359 0)
(10.0809 -0.0231886 0)
(10.0974 -0.0226016 0)
(10.1133 -0.0218043 0)
(10.1284 -0.0209234 0)
(10.1429 -0.019998 0)
(10.1568 -0.0190734 0)
(10.1699 -0.0181832 0)
(10.1825 -0.017339 0)
(10.1944 -0.0165189 0)
(10.2058 -0.0156649 0)
(10.2165 -0.0146745 0)
(10.2267 -0.0135624 0)
(10.2363 -0.0125408 0)
(10.2457 -0.0127958 0)
(10.2542 -0.0180489 0)
(10.0023 -0.0101211 0)
(10.0162 -0.0207584 0)
(10.034 -0.0228828 0)
(10.0504 -0.0241586 0)
(10.0666 -0.0252379 0)
(10.0835 -0.0252699 0)
(10.1003 -0.0246253 0)
(10.1164 -0.0237542 0)
(10.1318 -0.0227903 0)
(10.1464 -0.0217786 0)
(10.1603 -0.0207677 0)
(10.1735 -0.0197922 0)
(10.1859 -0.0188638 0)
(10.1975 -0.0179588 0)
(10.2084 -0.0170168 0)
(10.2184 -0.0159384 0)
(10.2276 -0.0147419 0)
(10.2359 -0.0136557 0)
(10.2436 -0.0138193 0)
(10.2495 -0.018789 0)
(10.0027 -0.0114975 0)
(10.0178 -0.0228965 0)
(10.0363 -0.0248085 0)
(10.053 -0.0261744 0)
(10.0697 -0.0273508 0)
(10.0871 -0.0273823 0)
(10.1043 -0.0266865 0)
(10.1208 -0.0257365 0)
(10.1364 -0.0246792 0)
(10.1511 -0.0235681 0)
(10.1649 -0.0224554 0)
(10.1778 -0.0213767 0)
(10.1897 -0.0203422 0)
(10.2006 -0.0193254 0)
(10.2103 -0.0182633 0)
(10.219 -0.0170609 0)
(10.2264 -0.0157412 0)
(10.2326 -0.0145463 0)
(10.238 -0.0145581 0)
(10.2407 -0.0191248 0)
(10.0031 -0.0129523 0)
(10.0198 -0.0253948 0)
(10.0393 -0.0271032 0)
(10.0568 -0.0283849 0)
(10.0743 -0.0295485 0)
(10.0926 -0.0295569 0)
(10.1105 -0.0288016 0)
(10.1273 -0.0277524 0)
(10.143 -0.0265736 0)
(10.1574 -0.0253322 0)
(10.1706 -0.0240861 0)
(10.1824 -0.0228712 0)
(10.1929 -0.0216948 0)
(10.202 -0.0205261 0)
(10.2095 -0.0192997 0)
(10.2155 -0.0179284 0)
(10.2199 -0.0164431 0)
(10.2227 -0.0150988 0)
(10.2245 -0.014913 0)
(10.2231 -0.0189801 0)
(10.0035 -0.0139923 0)
(10.0226 -0.027602 0)
(10.0443 -0.0298852 0)
(10.0635 -0.0310881 0)
(10.0827 -0.0319667 0)
(10.1022 -0.0317939 0)
(10.1207 -0.0309158 0)
(10.1374 -0.0297255 0)
(10.1522 -0.0283793 0)
(10.165 -0.0269563 0)
(10.1758 -0.0255229 0)
(10.1847 -0.0241185 0)
(10.1914 -0.0227472 0)
(10.1962 -0.0213727 0)
(10.1989 -0.0199284 0)
(10.1994 -0.0183389 0)
(10.1981 -0.0166503 0)
(10.1951 -0.0151303 0)
(10.1911 -0.014727 0)
(10.1837 -0.0182289 0)
(10.0045 -0.0149414 0)
(10.0285 -0.0284182 0)
(10.0553 -0.0336542 0)
(10.0785 -0.0360854 0)
(10.1001 -0.0364105 0)
(10.1205 -0.0353532 0)
(10.1379 -0.0337689 0)
(10.1517 -0.03204 0)
(10.1618 -0.0302546 0)
(10.1682 -0.0284464 0)
(10.1709 -0.0266559 0)
(10.1704 -0.0249114 0)
(10.1666 -0.0232109 0)
(10.16 -0.0215136 0)
(10.1507 -0.0197555 0)
(10.1392 -0.0178806 0)
(10.1262 -0.0159578 0)
(10.1121 -0.0142642 0)
(10.0981 -0.0136672 0)
(10.0814 -0.0165585 0)
(10.0096 -0.0170834 0)
(10.0498 -0.00851272 0)
(10.0888 -0.0109046 0)
(10.1181 -0.0210911 0)
(10.1394 -0.0285458 0)
(10.1525 -0.0317657 0)
(10.1565 -0.0323182 0)
(10.1511 -0.0314484 0)
(10.1373 -0.0298398 0)
(10.116 -0.027875 0)
(10.0885 -0.0257671 0)
(10.0562 -0.0236366 0)
(10.0205 -0.0215395 0)
(9.98291 -0.0194769 0)
(9.94457 -0.0174219 0)
(9.90676 -0.0153553 0)
(9.87087 -0.0133636 0)
(9.83771 -0.0117026 0)
(9.80832 -0.0110848 0)
(9.77854 -0.0133839 0)
(10.0567 -0.104723 0)
(10.1492 -0.134273 0)
(10.1835 -0.103604 0)
(10.1743 -0.0768914 0)
(10.1347 -0.0589631 0)
(10.0706 -0.046636 0)
(9.98732 -0.0378481 0)
(9.89089 -0.0312344 0)
(9.7872 -0.0260226 0)
(9.68132 -0.0218517 0)
(9.5774 -0.0185012 0)
(9.47857 -0.0157926 0)
(9.38689 -0.0135615 0)
(9.30349 -0.0116594 0)
(9.22888 -0.00997971 0)
(9.1633 -0.00847784 0)
(9.10719 -0.00722834 0)
(9.06028 -0.00644284 0)
(9.02322 -0.00676532 0)
(8.99108 -0.00926365 0)
(9.84307 0.186863 0)
(9.53035 0.132881 0)
(9.21446 0.0666739 0)
(8.91136 0.0260068 0)
(8.63844 0.00491369 0)
(8.40276 -0.00443576 0)
(8.20434 -0.00754566 0)
(8.04062 -0.00751618 0)
(7.90775 -0.00610396 0)
(7.80087 -0.00435645 0)
(7.7147 -0.00282454 0)
(7.64425 -0.00171666 0)
(7.58545 -0.00102906 0)
(7.53544 -0.000658102 0)
(7.49245 -0.000489296 0)
(7.45529 -0.000451828 0)
(7.42297 -0.000551995 0)
(7.39291 -0.000909927 0)
(7.36207 -0.00185091 0)
(7.315 -0.00390153 0)
(7.00891 -0.128683 0)
(6.60858 -0.102653 0)
(6.15931 0.00987777 0)
(5.82958 0.14577 0)
(5.69698 0.279161 0)
(5.7694 0.411821 0)
(6.01874 0.53394 0)
(6.40364 0.621318 0)
(6.87864 0.645242 0)
(7.39959 0.580184 0)
(7.92587 0.409877 0)
(8.42292 0.130406 0)
(8.8691 -0.25126 0)
(9.26126 -0.7222 0)
(9.62428 -1.27279 0)
(9.99121 -1.89712 0)
(10.329 -2.56404 0)
(10.5186 -3.19745 0)
(10.4553 -3.71073 0)
(10.1424 -4.05727 0)
(9.67089 -4.24158 0)
(9.14392 -4.2955 0)
(8.6297 -4.25372 0)
(8.15899 -4.14397 0)
(7.74034 -3.98699 0)
(7.37304 -3.79877 0)
(7.05334 -3.59192 0)
(6.77664 -3.3762 0)
(6.53814 -3.1589 0)
(6.33316 -2.9452 0)
(6.15726 -2.73865 0)
(6.00637 -2.54151 0)
(5.87687 -2.35511 0)
(5.76558 -2.18004 0)
(5.66978 -2.01633 0)
(5.5872 -1.86358 0)
(5.51596 -1.72108 0)
(5.45451 -1.58789 0)
(5.40163 -1.463 0)
(5.35627 -1.34539 0)
(5.31759 -1.23421 0)
(5.28481 -1.12874 0)
(5.25724 -1.02855 0)
(5.23422 -0.933399 0)
(5.2151 -0.843284 0)
(5.19927 -0.758329 0)
(5.18613 -0.678749 0)
(5.17515 -0.604769 0)
(5.16585 -0.536575 0)
(5.15782 -0.474266 0)
(5.15071 -0.417834 0)
(5.14427 -0.367157 0)
(5.13829 -0.322007 0)
(5.13264 -0.282065 0)
(5.12724 -0.246948 0)
(5.12203 -0.216233 0)
(5.117 -0.189478 0)
(5.11215 -0.166241 0)
(5.10749 -0.1461 0)
(5.10304 -0.128659 0)
(5.0988 -0.113557 0)
(5.0948 -0.10047 0)
(5.09104 -0.0891128 0)
(5.08753 -0.0792369 0)
(5.08427 -0.070628 0)
(5.08126 -0.0631028 0)
(5.07849 -0.0565055 0)
(5.07594 -0.0507038 0)
(5.07362 -0.0455861 0)
(5.0715 -0.0410579 0)
(5.06957 -0.0370396 0)
(5.06782 -0.0334637 0)
(5.06623 -0.0302731 0)
(5.0648 -0.0274191 0)
(5.0635 -0.0248604 0)
(5.06232 -0.0225614 0)
(5.06126 -0.0204916 0)
(5.0603 -0.0186247 0)
(5.05944 -0.016938 0)
(5.05866 -0.0154115 0)
(5.05795 -0.0140281 0)
(5.05731 -0.0127726 0)
(5.05674 -0.0116315 0)
(5.05622 -0.0105931 0)
(5.05575 -0.00964702 0)
(5.05532 -0.00878393 0)
(5.05494 -0.00799557 0)
(5.05459 -0.00727454 0)
(5.05428 -0.0066142 0)
(5.05399 -0.00600858 0)
(5.05374 -0.00545228 0)
(5.0535 -0.00494043 0)
(5.05329 -0.00446858 0)
(5.0531 -0.00403269 0)
(5.05293 -0.00362908 0)
(5.05277 -0.00325434 0)
(5.05263 -0.00290535 0)
(5.0525 -0.00257923 0)
(5.05238 -0.00227327 0)
(5.05228 -0.00198496 0)
(5.05218 -0.00171196 0)
(5.0521 -0.00145202 0)
(5.05202 -0.00120303 0)
(5.05195 -0.000962945 0)
(5.05188 -0.000729814 0)
(5.05182 -0.000501726 0)
(5.05177 -0.000276811 0)
(5.05173 -5.32184e-05 0)
(5.05168 0.000170898 0)
(5.05164 0.000397394 0)
(5.05161 0.000628154 0)
(5.05158 0.000865104 0)
(5.05155 0.00111023 0)
(5.05153 0.0013656 0)
(5.05151 0.00163336 0)
(5.05149 0.00191578 0)
(5.05147 0.00221527 0)
(5.05146 0.00253437 0)
(5.05145 0.00287582 0)
(5.05144 0.00324253 0)
(5.05143 0.00363765 0)
(5.05143 0.00406457 0)
(5.05142 0.00452697 0)
(5.05142 0.00502882 0)
(5.05142 0.00557446 0)
(5.05143 0.00616859 0)
(5.05143 0.00681634 0)
(5.05144 0.00752331 0)
(5.05145 0.00829561 0)
(5.05146 0.00913991 0)
(5.05148 0.0100635 0)
(5.05149 0.0110744 0)
(5.05151 0.0121814 0)
(5.05154 0.013394 0)
(5.05156 0.0147227 0)
(5.05159 0.0161791 0)
(5.05162 0.0177757 0)
(5.05166 0.0195263 0)
(5.0517 0.0214463 0)
(5.05175 0.023552 0)
(5.0518 0.0258619 0)
(5.05186 0.0283959 0)
(5.05192 0.0311759 0)
(5.05199 0.034226 0)
(5.05207 0.0375727 0)
(5.05215 0.0412448 0)
(5.05224 0.0452743 0)
(5.05234 0.0496961 0)
(5.05246 0.0545483 0)
(5.05258 0.059873 0)
(5.05271 0.0657164 0)
(5.05286 0.072129 0)
(5.05302 0.0791664 0)
(5.0532 0.0868896 0)
(5.05339 0.0953653 0)
(5.0536 0.104667 0)
(5.05383 0.114876 0)
(5.05408 0.126079 0)
(5.05435 0.138375 0)
(5.05465 0.15187 0)
(5.05498 0.166681 0)
(5.05533 0.182936 0)
(5.05571 0.200778 0)
(5.05613 0.22036 0)
(5.05657 0.241854 0)
(5.05705 0.265446 0)
(5.05756 0.291344 0)
(5.05811 0.319774 0)
(5.05869 0.350985 0)
(5.0593 0.385253 0)
(5.05993 0.42288 0)
(5.06059 0.464202 0)
(5.06126 0.509589 0)
(5.06193 0.559449 0)
(5.06259 0.614237 0)
(5.06322 0.674458 0)
(5.06378 0.740672 0)
(5.06425 0.81351 0)
(5.06458 0.893674 0)
(5.0647 0.981959 0)
(5.06455 1.07926 0)
(5.06404 1.18661 0)
(5.06303 1.30517 0)
(5.06139 1.43629 0)
(5.05892 1.58157 0)
(5.05537 1.74285 0)
(5.05044 1.92235 0)
(5.04371 2.12276 0)
(5.03466 2.34736 0)
(5.02256 2.60028 0)
(5.0065 2.88677 0)
(4.98496 3.21383 0)
(4.9565 3.59069 0)
(4.91641 4.03128 0)
(4.86539 4.55342 0)
(4.77805 5.1936 0)
(4.69348 5.97749 0)
(4.40344 7.02877 0)
(4.46583 8.18944 0)
(3.14963 10.7908 0)
(8.86276 0.0557701 0)
(8.75377 0.136461 0)
(8.58522 0.245848 0)
(8.36339 0.344128 0)
(8.10802 0.419604 0)
(7.88077 0.472481 0)
(7.76051 0.504628 0)
(7.79633 0.512077 0)
(7.9875 0.479854 0)
(8.29835 0.385274 0)
(8.67949 0.207674 0)
(9.09146 -0.0641366 0)
(9.50897 -0.432404 0)
(9.92192 -0.894058 0)
(10.3281 -1.44079 0)
(10.6897 -2.04605 0)
(10.9112 -2.65147 0)
(10.9002 -3.18477 0)
(10.6457 -3.5959 0)
(10.2179 -3.87227 0)
(9.70977 -4.02663 0)
(9.19045 -4.07983 0)
(8.6968 -4.05217 0)
(8.24403 -3.96184 0)
(7.83681 -3.82516 0)
(7.47525 -3.65644 0)
(7.1573 -3.46768 0)
(6.87972 -3.26838 0)
(6.63862 -3.06571 0)
(6.42991 -2.86487 0)
(6.24957 -2.66948 0)
(6.0938 -2.48196 0)
(5.95919 -2.30379 0)
(5.8427 -2.13575 0)
(5.74173 -1.97804 0)
(5.65405 -1.83044 0)
(5.57785 -1.69238 0)
(5.5116 -1.56305 0)
(5.45409 -1.44155 0)
(5.4043 -1.32695 0)
(5.36137 -1.21843 0)
(5.32456 -1.11533 0)
(5.29318 -1.01722 0)
(5.26657 -0.923884 0)
(5.24411 -0.835319 0)
(5.22519 -0.751667 0)
(5.20922 -0.673154 0)
(5.19568 -0.600029 0)
(5.18407 -0.532502 0)
(5.17397 -0.4707 0)
(5.16503 -0.414647 0)
(5.15697 -0.364249 0)
(5.14957 -0.319303 0)
(5.14267 -0.279516 0)
(5.13618 -0.244522 0)
(5.13002 -0.213912 0)
(5.12415 -0.187254 0)
(5.11857 -0.164114 0)
(5.11326 -0.144072 0)
(5.10823 -0.126734 0)
(5.10349 -0.111739 0)
(5.09903 -0.0987625 0)
(5.09487 -0.0875174 0)
(5.091 -0.0777538 0)
(5.08742 -0.0692557 0)
(5.08411 -0.0618383 0)
(5.08108 -0.0553446 0)
(5.0783 -0.0496415 0)
(5.07576 -0.0446166 0)
(5.07345 -0.0401753 0)
(5.07135 -0.0362376 0)
(5.06944 -0.0327362 0)
(5.06771 -0.0296139 0)
(5.06614 -0.0268225 0)
(5.06472 -0.0243208 0)
(5.06344 -0.0220736 0)
(5.06228 -0.0200508 0)
(5.06123 -0.0182266 0)
(5.06029 -0.0165783 0)
(5.05943 -0.0150867 0)
(5.05866 -0.0137347 0)
(5.05796 -0.0125075 0)
(5.05733 -0.0113919 0)
(5.05676 -0.0103766 0)
(5.05624 -0.00945132 0)
(5.05578 -0.00860698 0)
(5.05536 -0.00783552 0)
(5.05497 -0.00712975 0)
(5.05463 -0.00648318 0)
(5.05432 -0.00589 0)
(5.05403 -0.00534494 0)
(5.05378 -0.00484324 0)
(5.05354 -0.00438058 0)
(5.05333 -0.00395301 0)
(5.05314 -0.00355692 0)
(5.05297 -0.003189 0)
(5.05281 -0.00284619 0)
(5.05267 -0.00252567 0)
(5.05254 -0.00222481 0)
(5.05243 -0.00194113 0)
(5.05232 -0.00167234 0)
(5.05223 -0.00141623 0)
(5.05214 -0.00117073 0)
(5.05207 -0.000933837 0)
(5.052 -0.00070362 0)
(5.05194 -0.0004782 0)
(5.05188 -0.000255732 0)
(5.05183 -3.43886e-05 0)
(5.05179 0.000187654 0)
(5.05175 0.000412234 0)
(5.05172 0.000641216 0)
(5.05169 0.00087651 0)
(5.05167 0.00112009 0)
(5.05165 0.00137399 0)
(5.05163 0.00164038 0)
(5.05162 0.00192149 0)
(5.05161 0.00221971 0)
(5.0516 0.0025376 0)
(5.0516 0.00287785 0)
(5.0516 0.00324339 0)
(5.05161 0.00363734 0)
(5.05162 0.00406309 0)
(5.05163 0.0045243 0)
(5.05164 0.00502494 0)
(5.05166 0.00556932 0)
(5.05169 0.00616214 0)
(5.05172 0.00680852 0)
(5.05175 0.00751403 0)
(5.05179 0.00828477 0)
(5.05183 0.00912742 0)
(5.05188 0.0100492 0)
(5.05194 0.0110582 0)
(5.052 0.0121632 0)
(5.05207 0.0133735 0)
(5.05214 0.0146998 0)
(5.05223 0.0161536 0)
(5.05232 0.0177474 0)
(5.05243 0.019495 0)
(5.05254 0.0214116 0)
(5.05267 0.0235138 0)
(5.05281 0.0258197 0)
(5.05297 0.0283494 0)
(5.05314 0.0311247 0)
(5.05333 0.0341698 0)
(5.05353 0.0375108 0)
(5.05376 0.0411769 0)
(5.05401 0.0451997 0)
(5.05428 0.0496142 0)
(5.05458 0.0544584 0)
(5.05491 0.0597744 0)
(5.05527 0.0656082 0)
(5.05566 0.0720104 0)
(5.0561 0.0790364 0)
(5.05658 0.086747 0)
(5.0571 0.0952092 0)
(5.05767 0.104496 0)
(5.0583 0.114689 0)
(5.05898 0.125875 0)
(5.05974 0.138151 0)
(5.06056 0.151626 0)
(5.06146 0.166414 0)
(5.06245 0.182645 0)
(5.06352 0.20046 0)
(5.0647 0.220015 0)
(5.06598 0.241478 0)
(5.06738 0.265039 0)
(5.0689 0.290903 0)
(5.07056 0.319297 0)
(5.07236 0.350472 0)
(5.0743 0.384701 0)
(5.07641 0.422289 0)
(5.07869 0.463572 0)
(5.08115 0.50892 0)
(5.08379 0.558743 0)
(5.08661 0.613497 0)
(5.08963 0.673689 0)
(5.09283 0.739882 0)
(5.09621 0.812708 0)
(5.09977 0.892874 0)
(5.10348 0.98118 0)
(5.10732 1.07853 0)
(5.11125 1.18595 0)
(5.11523 1.30463 0)
(5.11918 1.43592 0)
(5.12301 1.58144 0)
(5.12663 1.74304 0)
(5.12987 1.92298 0)
(5.13256 2.12396 0)
(5.13447 2.34934 0)
(5.13526 2.60328 0)
(5.1346 2.89115 0)
(5.13173 3.22009 0)
(5.12657 3.59957 0)
(5.11602 4.0439 0)
(5.10523 4.57179 0)
(5.07156 5.22054 0)
(5.07807 6.02244 0)
(4.91627 7.09031 0)
(5.25602 8.30889 0)
(4.59404 10.8543 0)
(9.66372 0.0782339 0)
(9.62082 0.141387 0)
(9.59318 0.248461 0)
(9.59247 0.366647 0)
(9.59079 0.469123 0)
(9.55932 0.537792 0)
(9.50482 0.560433 0)
(9.46883 0.53066 0)
(9.49942 0.445443 0)
(9.6228 0.299515 0)
(9.83673 0.0830987 0)
(10.1273 -0.2123 0)
(10.4643 -0.59261 0)
(10.8127 -1.05523 0)
(11.118 -1.58173 0)
(11.2993 -2.13044 0)
(11.2849 -2.6467 0)
(11.0624 -3.08624 0)
(10.6813 -3.42788 0)
(10.2127 -3.6686 0)
(9.71427 -3.81404 0)
(9.22096 -3.87369 0)
(8.75177 -3.8597 0)
(8.31674 -3.78603 0)
(7.92088 -3.66701 0)
(7.56584 -3.51588 0)
(7.25092 -3.34391 0)
(6.97387 -3.16014 0)
(6.73151 -2.97149 0)
(6.52026 -2.78308 0)
(6.33647 -2.59858 0)
(6.17665 -2.42049 0)
(6.03761 -2.25046 0)
(5.9165 -2.0894 0)
(5.81082 -1.9377 0)
(5.71845 -1.79528 0)
(5.63763 -1.66171 0)
(5.56687 -1.53631 0)
(5.50498 -1.41827 0)
(5.45097 -1.30675 0)
(5.40399 -1.20097 0)
(5.3633 -1.10032 0)
(5.32824 -1.00438 0)
(5.29817 -0.912947 0)
(5.27246 -0.826034 0)
(5.25053 -0.743787 0)
(5.2318 -0.666447 0)
(5.21574 -0.594282 0)
(5.20186 -0.527524 0)
(5.18972 -0.466328 0)
(5.17898 -0.410746 0)
(5.16931 -0.360711 0)
(5.16051 -0.316048 0)
(5.15238 -0.276483 0)
(5.14481 -0.241673 0)
(5.1377 -0.21122 0)
(5.13102 -0.184705 0)
(5.12471 -0.161701 0)
(5.11877 -0.141792 0)
(5.11318 -0.124587 0)
(5.10795 -0.109724 0)
(5.10306 -0.0968801 0)
(5.09851 -0.0857662 0)
(5.09429 -0.0761313 0)
(5.0904 -0.0677582 0)
(5.08682 -0.0604613 0)
(5.08353 -0.0540823 0)
(5.08053 -0.0484877 0)
(5.07779 -0.0435645 0)
(5.07529 -0.0392179 0)
(5.07302 -0.035368 0)
(5.07097 -0.0319473 0)
(5.0691 -0.0288992 0)
(5.06741 -0.0261754 0)
(5.06588 -0.0237354 0)
(5.0645 -0.0215443 0)
(5.06324 -0.0195723 0)
(5.06211 -0.0177941 0)
(5.06109 -0.0161875 0)
(5.06017 -0.0147334 0)
(5.05933 -0.0134154 0)
(5.05858 -0.0122188 0)
(5.05789 -0.0111309 0)
(5.05727 -0.0101406 0)
(5.05672 -0.00923778 0)
(5.05621 -0.00841376 0)
(5.05575 -0.00766066 0)
(5.05534 -0.00697146 0)
(5.05496 -0.00633987 0)
(5.05462 -0.00576023 0)
(5.05431 -0.00522741 0)
(5.05403 -0.0047368 0)
(5.05378 -0.00428418 0)
(5.05355 -0.00386571 0)
(5.05335 -0.00347787 0)
(5.05316 -0.00311744 0)
(5.05299 -0.00278144 0)
(5.05284 -0.00246711 0)
(5.0527 -0.00217188 0)
(5.05257 -0.00189334 0)
(5.05246 -0.00162924 0)
(5.05236 -0.00137741 0)
(5.05227 -0.00113584 0)