/*--------------------------------*- C++ -*----------------------------------*\
| =========                 |                                                 |
| \\      /  F ield         | OpenFOAM: The Open Source CFD Toolbox           |
|  \\    /   O peration     | Version:  2.4.0                                 |
|   \\  /    A nd           | Web:      www.OpenFOAM.org                      |
|    \\/     M anipulation  |                                                 |
\*---------------------------------------------------------------------------*/
FoamFile
{
    version     2.0;
    format      ascii;
    class       surfaceScalarField;
    location    "0.098";
    object      phi;
}
// * * * * * * * * * * * * * * * * * * * * * * * * * * * * * * * * * * * * * //

dimensions      [0 3 -1 0 0 0 0];

internalField   nonuniform List<scalar> 
8640
(
1.1467e-05
1.3533e-05
7.17455e-06
4.29247e-06
5.92048e-06
1.25407e-06
5.36831e-06
5.52171e-07
5.10074e-06
2.67574e-07
4.90121e-06
1.99525e-07
4.83847e-06
6.27424e-08
4.65963e-06
1.78838e-07
4.56116e-06
9.84681e-08
-3.63829e-08
4.59755e-06
2.10583e-05
1.74747e-05
1.7447e-05
7.90375e-06
1.55166e-05
3.18447e-06
1.42635e-05
1.8053e-06
1.34817e-05
1.04937e-06
1.29828e-05
6.98384e-07
1.27275e-05
3.18041e-07
1.22972e-05
6.09216e-07
1.21594e-05
2.36244e-07
3.60903e-07
1.17621e-05
2.57193e-05
1.67554e-05
2.40971e-05
9.52588e-06
2.26137e-05
4.66796e-06
2.12568e-05
3.16219e-06
2.02013e-05
2.10487e-06
1.95363e-05
1.3633e-06
1.91094e-05
7.44971e-07
1.85901e-05
1.12857e-06
1.82923e-05
5.33993e-07
6.86318e-07
1.79669e-05
2.74865e-05
1.42689e-05
2.77369e-05
9.27557e-06
2.73714e-05
5.03338e-06
2.65707e-05
3.96295e-06
2.56109e-05
3.06468e-06
2.49878e-05
1.98639e-06
2.44845e-05
1.24827e-06
2.39605e-05
1.65251e-06
2.36316e-05
8.62975e-07
1.05539e-06
2.32625e-05
2.76859e-05
1.15829e-05
2.89237e-05
8.03782e-06
2.95984e-05
4.35867e-06
2.97701e-05
3.79126e-06
2.93326e-05
3.5022e-06
2.90315e-05
2.28742e-06
2.86784e-05
1.60144e-06
2.82026e-05
2.12829e-06
2.80484e-05
1.01714e-06
8.59111e-07
2.82447e-05
2.75049e-05
9.07805e-06
2.8978e-05
6.56464e-06
2.99713e-05
3.36542e-06
3.08385e-05
2.92401e-06
3.10563e-05
3.28448e-06
3.12488e-05
2.0949e-06
3.13352e-05
1.51499e-06
3.10536e-05
2.40995e-06
3.11726e-05
8.98131e-07
1.26149e-06
3.07702e-05
2.73647e-05
6.71338e-06
2.89089e-05
5.02037e-06
2.98058e-05
2.46853e-06
3.08205e-05
1.90934e-06
3.14071e-05
2.69788e-06
3.18294e-05
1.67262e-06
3.22968e-05
1.04759e-06
3.23799e-05
2.32681e-06
3.28191e-05
4.58977e-07
1.97114e-06
3.21094e-05
2.72857e-05
4.42766e-06
2.88911e-05
3.41503e-06
2.96998e-05
1.6598e-06
3.07222e-05
8.86982e-07
3.13813e-05
2.03877e-06
3.17379e-05
1.31601e-06
3.22502e-05
5.35231e-07
3.2782e-05
1.79509e-06
3.34316e-05
-1.9068e-07
1.53605e-06
3.38667e-05
2.7226e-05
2.20164e-06
2.89062e-05
1.73481e-06
2.97323e-05
8.33747e-07
3.05412e-05
7.80693e-08
3.11833e-05
1.39672e-06
3.1715e-05
7.84276e-07
3.2277e-05
-2.68086e-08
3.29117e-05
1.16041e-06
3.32959e-05
-5.74819e-07
1.48471e-06
3.33472e-05
2.72178e-05
-1.61683e-08
2.89743e-05
-2.1652e-08
2.96698e-05
1.38255e-07
3.03467e-05
-5.9887e-07
3.11653e-05
5.78144e-07
3.18613e-05
8.82002e-08
3.23121e-05
-4.77555e-07
3.27954e-05
6.77114e-07
3.29923e-05
-7.71701e-07
1.08412e-06
3.33929e-05
2.72219e-05
-2.23811e-06
2.89897e-05
-1.78942e-06
2.96898e-05
-5.61789e-07
3.03534e-05
-1.26252e-06
3.1159e-05
-2.27475e-07
3.18383e-05
-5.91128e-07
3.22636e-05
-9.02767e-07
3.27402e-05
2.0048e-07
3.29855e-05
-1.01705e-06
9.44483e-08
3.39752e-05
2.7265e-05
-4.50309e-06
2.90221e-05
-3.54652e-06
2.97118e-05
-1.25153e-06
3.0351e-05
-1.90171e-06
3.11714e-05
-1.04782e-06
3.18587e-05
-1.27849e-06
3.2306e-05
-1.35e-06
3.27814e-05
-2.74961e-07
3.3188e-05
-1.42365e-06
-9.71864e-07
3.42543e-05
2.73513e-05
-6.85436e-06
2.8966e-05
-5.16128e-06
2.97205e-05
-2.00601e-06
3.04657e-05
-2.64687e-06
3.13307e-05
-1.91283e-06
3.19077e-05
-1.8555e-06
3.22998e-05
-1.74213e-06
3.28103e-05
-7.85431e-07
3.32842e-05
-1.89752e-06
-1.69322e-06
3.40055e-05
2.7401e-05
-9.25541e-06
2.88115e-05
-6.57175e-06
2.98639e-05
-3.0584e-06
3.06582e-05
-3.44118e-06
3.14432e-05
-2.69788e-06
3.18614e-05
-2.27361e-06
3.21813e-05
-2.06211e-06
3.25899e-05
-1.19404e-06
3.28233e-05
-2.13085e-06
-1.99396e-06
3.3124e-05
2.7487e-05
-1.17424e-05
2.88757e-05
-7.96049e-06
3.00177e-05
-4.2004e-06
3.06814e-05
-4.1048e-06
3.11371e-05
-3.15359e-06
3.12347e-05
-2.37124e-06
3.12194e-05
-2.04676e-06
3.1265e-05
-1.23964e-06
3.11093e-05
-1.97518e-06
-1.94136e-06
3.10567e-05
2.76353e-05
-1.43777e-05
2.88686e-05
-9.19381e-06
2.96318e-05
-4.96362e-06
2.96616e-05
-4.13455e-06
2.94045e-05
-2.89645e-06
2.90007e-05
-1.96743e-06
2.85962e-05
-1.6423e-06
2.83314e-05
-9.74804e-07
2.7917e-05
-1.56078e-06
-1.12889e-06
2.71045e-05
2.74393e-05
-1.6817e-05
2.77175e-05
-9.47201e-06
2.73902e-05
-4.63632e-06
2.65059e-05
-3.25025e-06
2.56556e-05
-2.04609e-06
2.49698e-05
-1.28164e-06
2.44018e-05
-1.07437e-06
2.40385e-05
-6.11499e-07
2.35573e-05
-1.07953e-06
-5.98486e-07
2.30269e-05
2.5682e-05
-1.7499e-05
2.40941e-05
-7.88415e-06
2.2626e-05
-3.16823e-06
2.1219e-05
-1.84324e-06
2.02161e-05
-1.0432e-06
1.95444e-05
-6.09893e-07
1.90083e-05
-5.38333e-07
1.86867e-05
-2.89838e-07
1.82013e-05
-5.94186e-07
-2.01225e-07
1.78041e-05
2.10388e-05
-1.35378e-05
1.74458e-05
-4.29111e-06
1.55244e-05
-1.24688e-06
1.42421e-05
-5.60856e-07
1.34759e-05
-2.76994e-07
1.3014e-05
-1.48003e-07
1.26291e-05
-1.53498e-07
1.2413e-05
-7.36612e-08
1.20114e-05
-1.9267e-07
1.1716e-08
1.17985e-05
1.14622e-05
7.17106e-06
5.92419e-06
5.36333e-06
5.08634e-06
4.93834e-06
4.78484e-06
4.71118e-06
4.51851e-06
4.53022e-06
5.69726e-06
3.33549e-07
-1.43326e-06
6.69362e-06
1.13367e-06
-2.13003e-06
7.39048e-06
1.80509e-06
-2.50195e-06
8.69585e-06
1.68429e-06
-2.98966e-06
9.29322e-06
3.50393e-06
-4.1013e-06
9.46527e-06
2.39561e-07
-4.1161e-07
1.00316e-05
-2.38342e-07
-3.28033e-07
9.72434e-06
-6.6487e-07
9.72177e-07
9.95544e-06
-3.05576e-06
2.82466e-06
1.05377e-05
-7.56898e-07
1.74664e-07
1.1366e-05
-1.15898e-06
3.30697e-07
1.33491e-05
2.0099e-06
-3.99301e-06
1.53882e-05
3.5778e-06
-5.61699e-06
1.77344e-05
1.1191e-07
-2.45803e-06
1.99688e-05
1.99914e-06
-4.23359e-06
2.24132e-05
2.10062e-06
-4.54498e-06
2.37217e-05
-1.99595e-06
6.87406e-07
2.43309e-05
-1.96911e-06
1.35992e-06
2.50436e-05
-5.99819e-06
5.28548e-06
2.51792e-05
-1.14257e-05
1.12902e-05
2.55855e-05
-1.44614e-05
1.40551e-05
2.63818e-05
-1.81639e-05
1.73676e-05
2.70167e-05
-1.98804e-05
1.92455e-05
2.84254e-05
-2.24501e-05
2.10414e-05
3.02314e-05
-2.72071e-05
2.54011e-05
3.01973e-05
-2.86153e-05
2.86494e-05
2.88324e-05
-3.05172e-05
3.18821e-05
2.8481e-05
-2.77108e-05
2.80623e-05
2.8651e-05
-2.84224e-05
2.82524e-05
2.95791e-05
-2.95178e-05
2.85896e-05
3.011e-05
-2.33223e-05
2.27914e-05
3.10372e-05
-1.84146e-05
1.74873e-05
3.17108e-05
-1.27878e-05
1.21142e-05
3.19474e-05
-1.31051e-06
1.07396e-06
3.23986e-05
7.29784e-06
-7.74906e-06
3.30467e-05
1.56347e-05
-1.62828e-05
3.32878e-05
2.34086e-05
-2.36497e-05
3.35196e-05
2.9566e-05
-2.97978e-05
3.36002e-05
2.95662e-05
-2.96468e-05
3.3366e-05
2.86715e-05
-2.84374e-05
3.26236e-05
2.65097e-05
-2.57673e-05
3.16286e-05
1.8353e-05
-1.7358e-05
3.03522e-05
1.13287e-05
-1.00523e-05
2.92825e-05
1.57379e-06
-5.04025e-07
2.83861e-05
-8.00979e-06
8.90612e-06
2.7281e-05
-1.39402e-05
1.50454e-05
2.57802e-05
-1.90969e-05
2.05977e-05
2.4235e-05
-2.12615e-05
2.28067e-05
2.22479e-05
-2.0474e-05
2.2461e-05
2.10784e-05
-1.74414e-05
1.86109e-05
1.94983e-05
-1.54016e-05
1.69817e-05
1.81623e-05
-1.19525e-05
1.32885e-05
1.65396e-05
-1.11331e-05
1.27558e-05
1.63972e-05
-4.25343e-07
5.6773e-07
1.63294e-05
-7.00327e-07
7.68141e-07
1.84381e-05
5.1047e-07
-2.61919e-06
1.67528e-05
-1.7312e-05
1.89973e-05
1.74155e-05
-3.40718e-05
3.34091e-05
2.04564e-05
-5.22582e-05
4.92173e-05
1.9749e-05
-3.47519e-05
3.54594e-05
2.0018e-05
-3.2193e-05
3.1924e-05
2.03157e-05
-1.72908e-05
1.6993e-05
2.10163e-05
-1.37328e-06
6.72718e-07
2.09736e-05
1.183e-05
-1.17873e-05
2.12938e-05
2.30492e-05
-2.33695e-05
2.11373e-05
3.78742e-05
-3.77176e-05
2.05906e-05
4.49288e-05
-4.43821e-05
1.87531e-05
4.71556e-05
-4.53181e-05
1.72917e-05
3.79832e-05
-3.65219e-05
1.54948e-05
3.54177e-05
-3.36208e-05
1.52154e-05
2.57183e-05
-2.54388e-05
1.42526e-05
3.08571e-05
-2.98944e-05
1.5202e-05
1.9049e-05
-1.99983e-05
1.48935e-05
2.49075e-05
-2.45991e-05
1.5568e-05
8.51009e-06
-9.1846e-06
1.51705e-05
1.47526e-05
-1.43551e-05
1.56556e-05
-2.41045e-06
1.92541e-06
1.52138e-05
5.09143e-06
-4.64963e-06
1.59176e-05
-1.08215e-05
1.01177e-05
1.5304e-05
-1.49462e-06
2.10818e-06
1.65331e-05
-1.43525e-05
1.31234e-05
1.579e-05
-2.8672e-06
3.61027e-06
1.63671e-05
-1.33454e-05
1.27683e-05
1.4859e-05
-4.94432e-06
6.45236e-06
1.57529e-05
-1.56882e-05
1.47944e-05
1.43753e-05
-7.47269e-06
8.85031e-06
1.55278e-05
-1.40415e-05
1.28889e-05
1.47451e-05
-6.28246e-06
7.06511e-06
1.60925e-05
-8.11321e-06
6.76588e-06
1.5143e-05
-2.35025e-07
1.18453e-06
1.6022e-05
-5.1009e-07
-3.68993e-07
1.50524e-05
5.26485e-06
-4.29517e-06
1.62535e-05
4.96912e-06
-6.17023e-06
1.54201e-05
1.12547e-05
-1.04213e-05
1.60616e-05
1.03237e-05
-1.09652e-05
1.47256e-05
1.7958e-05
-1.66221e-05
1.6798e-05
1.52903e-05
-1.73627e-05
1.51592e-05
2.868e-05
-2.70412e-05
1.5092e-05
2.84724e-05
-2.84052e-05
5.32024e-05
-5.09596e-05
1.28492e-05
1.16895e-05
4.0617e-07
1.18479e-05
9.75227e-07
1.20814e-05
1.57163e-06
1.26461e-05
1.11961e-06
1.38438e-05
2.30622e-06
1.42273e-05
-1.44018e-07
1.48524e-05
-8.63427e-07
1.54404e-05
-1.2528e-06
1.55147e-05
-3.13007e-06
1.61058e-05
-1.34807e-06
1.68507e-05
-1.90384e-06
1.81166e-05
7.44053e-07
1.95841e-05
2.11025e-06
2.05405e-05
-8.44437e-07
2.17805e-05
7.59125e-07
2.39794e-05
-9.82735e-08
2.50921e-05
-3.10869e-06
2.62004e-05
-3.07744e-06
2.75189e-05
-7.31667e-06
2.7846e-05
-1.17529e-05
2.86217e-05
-1.5237e-05
2.9496e-05
-1.90382e-05
2.99649e-05
-2.03493e-05
3.1037e-05
-2.35221e-05
3.14274e-05
-2.75975e-05
3.02511e-05
-2.7439e-05
2.87081e-05
-2.89742e-05
2.89236e-05
-2.79264e-05
2.91911e-05
-2.86898e-05
2.95969e-05
-2.99236e-05
3.00995e-05
-2.38248e-05
3.06859e-05
-1.9001e-05
3.11288e-05
-1.32307e-05
3.1531e-05
-1.71272e-06
3.22134e-05
6.61552e-06
3.30304e-05
1.48176e-05
3.36964e-05
2.27426e-05
3.4181e-05
2.90814e-05
3.44168e-05
2.93305e-05
3.42783e-05
2.881e-05
3.37616e-05
2.70263e-05
3.29363e-05
1.91783e-05
3.19085e-05
1.23565e-05
3.08287e-05
2.6536e-06
2.96486e-05
-6.82972e-06
2.82654e-05
-1.2557e-05
2.66169e-05
-1.74485e-05
2.49865e-05
-1.9631e-05
2.28286e-05
-1.8316e-05
2.14802e-05
-1.6093e-05
1.98504e-05
-1.37719e-05
1.84129e-05
-1.0515e-05
1.65157e-05
-9.2359e-06
1.58929e-05
1.97506e-07
1.57239e-05
-5.31383e-07
1.73417e-05
-1.10734e-06
1.70826e-05
-1.70528e-05
1.80025e-05
-3.49917e-05
1.9224e-05
-5.34798e-05
1.84773e-05
-3.40052e-05
1.89235e-05
-3.26392e-05
1.865e-05
-1.70173e-05
1.94071e-05
-2.13034e-06
1.95681e-05
1.1669e-05
2.00912e-05
2.25261e-05
2.02191e-05
3.77463e-05
2.00713e-05
4.50765e-05
1.85138e-05
4.87131e-05
1.74404e-05
3.90567e-05
1.5764e-05
3.70941e-05
1.57895e-05
2.56927e-05
1.49898e-05
3.16569e-05
1.60631e-05
1.79757e-05
1.59202e-05
2.50504e-05
1.66966e-05
7.73368e-06
1.6455e-05
1.49942e-05
1.65664e-05
-2.52184e-06
1.58458e-05
5.81203e-06
1.63924e-05
-1.1368e-05
1.59764e-05
-1.07861e-06
1.70818e-05
-1.5458e-05
1.65957e-05
-2.38101e-06
1.73314e-05
-1.40811e-05
1.58442e-05
-3.45713e-06
1.68435e-05
-1.66874e-05
1.5444e-05
-6.07322e-06
1.68194e-05
-1.54169e-05
1.55713e-05
-5.03439e-06
1.71645e-05
-9.70641e-06
1.591e-05
1.01944e-06
1.71265e-05
-1.72658e-06
1.56204e-05
6.77096e-06
1.65871e-05
4.00243e-06
1.55608e-05
1.22809e-05
1.71796e-05
8.70499e-06
1.49192e-05
2.02184e-05
1.55122e-05
1.46974e-05
1.5336e-05
2.88562e-05
2.04829e-05
2.33255e-05
5.36635e-05
2.00218e-05
1.79709e-05
4.02164e-07
1.80342e-05
9.11968e-07
1.82374e-05
1.36838e-06
1.83106e-05
1.04644e-06
1.92392e-05
1.37755e-06
1.96801e-05
-5.84905e-07
2.0071e-05
-1.25435e-06
2.08754e-05
-2.05714e-06
2.10315e-05
-3.28617e-06
2.14524e-05
-1.769e-06
2.22159e-05
-2.66736e-06
2.30511e-05
-9.11046e-08
2.43719e-05
7.89469e-07
2.5215e-05
-1.68753e-06
2.59202e-05
5.39202e-08
2.73512e-05
-1.52931e-06
2.80182e-05
-3.77564e-06
2.90721e-05
-4.13134e-06
3.03674e-05
-8.61204e-06
3.08264e-05
-1.22119e-05
3.15572e-05
-1.59678e-05
3.20127e-05
-1.94938e-05
3.21463e-05
-2.04829e-05
3.24273e-05
-2.38031e-05
3.15701e-05
-2.67404e-05
2.99451e-05
-2.5814e-05
2.86885e-05
-2.77177e-05
2.89989e-05
-2.82367e-05
2.8993e-05
-2.86839e-05
2.86709e-05
-2.96016e-05
2.91193e-05
-2.42732e-05
2.94854e-05
-1.93671e-05
2.97771e-05
-1.35225e-05
3.04901e-05
-2.4257e-06
3.13214e-05
5.78425e-06
3.22782e-05
1.38609e-05
3.34287e-05
2.15921e-05
3.42344e-05
2.82757e-05
3.46314e-05
2.89334e-05
3.46055e-05
2.88359e-05
3.44194e-05
2.72125e-05
3.38007e-05
1.9797e-05
3.29146e-05
1.32426e-05
3.1815e-05
3.75325e-06
3.04213e-05
-5.43612e-06
2.8844e-05
-1.09797e-05
2.72113e-05
-1.58157e-05
2.55051e-05
-1.79249e-05
2.33469e-05
-1.61579e-05
2.1807e-05
-1.4553e-05
1.99792e-05
-1.19441e-05
1.85958e-05
-9.13149e-06
1.60296e-05
-6.66972e-06
1.50218e-05
1.20524e-06
1.495e-05
-4.59529e-07
1.63823e-05
-2.53962e-06
1.72664e-05
-1.79369e-05
1.68925e-05
-3.46179e-05
1.57822e-05
-5.23694e-05
1.58171e-05
-3.404e-05
1.72111e-05
-3.40332e-05
1.66635e-05
-1.64697e-05
1.77025e-05
-3.16936e-06
1.80486e-05
1.13229e-05
1.87283e-05
2.18464e-05
1.8962e-05
3.75127e-05
1.91316e-05
4.49068e-05
1.80237e-05
4.98211e-05
1.73267e-05
3.97537e-05
1.59051e-05
3.85158e-05
1.62969e-05
2.53009e-05
1.55996e-05
3.23542e-05
1.67427e-05
1.68326e-05
1.66712e-05
2.51219e-05
1.76285e-05
6.7764e-06
1.75313e-05
1.50914e-05
1.75205e-05
-2.51104e-06
1.66852e-05
6.64736e-06
1.69585e-05
-1.16414e-05
1.67117e-05
-8.31737e-07
1.74637e-05
-1.621e-05
1.71208e-05
-2.03808e-06
1.78389e-05
-1.47993e-05
1.66262e-05
-2.24438e-06
1.75017e-05
-1.75629e-05
1.63413e-05
-4.91276e-06
1.7804e-05
-1.68796e-05
1.6303e-05
-3.53338e-06
1.81557e-05
-1.15592e-05
1.66976e-05
2.47754e-06
1.84239e-05
-3.45288e-06
1.63129e-05
8.88199e-06
1.75891e-05
2.72624e-06
1.59888e-05
1.38812e-05
1.82138e-05
6.47997e-06
1.8181e-05
2.02512e-05
1.98217e-05
1.30567e-05
1.74902e-05
3.11877e-05
2.24409e-05
1.83747e-05
5.28641e-05
2.32403e-05
2.33158e-05
3.48887e-07
2.32985e-05
9.29213e-07
2.36988e-05
9.68053e-07
2.37101e-05
1.0352e-06
2.435e-05
7.37621e-07
2.49225e-05
-1.15741e-06
2.49551e-05
-1.28693e-06
2.5748e-05
-2.85e-06
2.59395e-05
-3.47769e-06
2.6119e-05
-1.9485e-06
2.693e-05
-3.47841e-06
2.75996e-05
-7.6064e-07
2.86015e-05
-2.12445e-07
2.91485e-05
-2.23452e-06
2.99464e-05
-7.44004e-07
3.11347e-05
-2.71766e-06
3.14625e-05
-4.10338e-06
3.24793e-05
-5.1481e-06
3.3316e-05
-9.44882e-06
3.33559e-05
-1.22518e-05
3.35245e-05
-1.61364e-05
3.31945e-05
-1.91637e-05
3.28157e-05
-2.01042e-05
3.24437e-05
-2.3431e-05
3.0832e-05
-2.51287e-05
2.93056e-05
-2.42876e-05
2.86643e-05
-2.70763e-05
2.88932e-05
-2.84656e-05
2.85164e-05
-2.83072e-05
2.76783e-05
-2.87635e-05
2.80767e-05
-2.46715e-05
2.83161e-05
-1.96064e-05
2.84761e-05
-1.36825e-05
2.94151e-05
-3.36472e-06
3.00917e-05
5.10762e-06
3.09737e-05
1.29788e-05
3.25625e-05
2.00034e-05
3.37113e-05
2.71269e-05
3.43577e-05
2.82871e-05
3.44604e-05
2.87333e-05
3.44587e-05
2.72141e-05
3.39692e-05
2.02866e-05
3.32637e-05
1.39481e-05
3.21696e-05
4.84737e-06
3.07656e-05
-4.03213e-06
2.91196e-05
-9.33372e-06
2.75222e-05
-1.42183e-05
2.56819e-05
-1.60846e-05
2.36961e-05
-1.41721e-05
2.20229e-05
-1.28798e-05
2.00825e-05
-1.00038e-05
1.86328e-05
-7.68172e-06
1.55092e-05
-3.54619e-06
1.39312e-05
2.78324e-06
1.33703e-05
1.01452e-07
1.54952e-05
-4.66459e-06
1.62983e-05
-1.874e-05
1.40003e-05
-3.23199e-05
1.17185e-05
-5.00876e-05
1.2873e-05
-3.51946e-05
1.50302e-05
-3.61904e-05
1.44831e-05
-1.59226e-05
1.59623e-05
-4.64858e-06
1.62534e-05
1.10318e-05
1.72608e-05
2.0839e-05
1.77752e-05
3.69982e-05
1.83052e-05
4.43769e-05
1.75411e-05
5.05852e-05
1.7305e-05
3.99898e-05
1.59848e-05
3.9836e-05
1.67473e-05
2.45384e-05
1.6204e-05
3.28974e-05
1.73064e-05
1.57302e-05
1.73589e-05
2.50695e-05
1.83636e-05
5.77167e-06
1.83808e-05
1.50743e-05
1.83751e-05
-2.50543e-06
1.75973e-05
7.42521e-06
1.76595e-05
-1.17036e-05
1.75013e-05
-6.7359e-07
1.806e-05
-1.67687e-05
1.78287e-05
-1.80675e-06
1.84453e-05
-1.54159e-05
1.75058e-05
-1.30496e-06
1.81169e-05
-1.8174e-05
1.72741e-05
-4.0699e-06
1.84466e-05
-1.80522e-05
1.70854e-05
-2.17215e-06
1.93389e-05
-1.38127e-05
1.78392e-05
3.97721e-06
2.02618e-05
-5.87543e-06
1.81861e-05
1.09577e-05
1.97054e-05
1.20694e-06
1.68975e-05
1.66891e-05
1.71734e-05
6.20401e-06
1.65739e-05
2.08507e-05
1.99625e-05
9.66809e-06
2.00596e-05
3.10907e-05
2.60248e-05
1.24094e-05
5.10359e-05
2.78531e-05
2.78764e-05
7.17195e-07
2.75478e-05
1.25781e-06
2.8019e-05
4.969e-07
2.81036e-05
9.50504e-07
2.84958e-05
3.45513e-07
2.90233e-05
-1.68491e-06
2.90109e-05
-1.27452e-06
2.95842e-05
-3.42331e-06
2.97558e-05
-3.64936e-06
2.99075e-05
-2.10017e-06
3.03101e-05
-3.88102e-06
3.09265e-05
-1.37706e-06
3.18802e-05
-1.16614e-06
3.20482e-05
-2.40245e-06
3.28126e-05
-1.50849e-06
3.37602e-05
-3.66526e-06
3.39785e-05
-4.32164e-06
3.48312e-05
-6.00078e-06
3.51837e-05
-9.80139e-06
3.49313e-05
-1.19993e-05
3.45608e-05
-1.57659e-05
3.36845e-05
-1.82875e-05
3.30433e-05
-1.94629e-05
3.21381e-05
-2.25258e-05
3.01519e-05
-2.31425e-05
2.89807e-05
-2.31163e-05
2.86045e-05
-2.67002e-05
2.81314e-05
-2.79925e-05
2.7042e-05
-2.72178e-05
2.5907e-05
-2.76285e-05
2.63061e-05
-2.50706e-05
2.66781e-05
-1.99785e-05
2.69813e-05
-1.39857e-05
2.81517e-05
-4.53505e-06
2.87623e-05
4.49702e-06
2.94862e-05
1.22549e-05
3.11827e-05
1.83068e-05
3.25998e-05
2.57098e-05
3.35437e-05
2.73432e-05
3.37671e-05
2.85099e-05
3.40309e-05
2.69503e-05
3.36843e-05
2.06331e-05
3.31121e-05
1.45203e-05
3.20779e-05
5.88157e-06
3.06785e-05
-2.63269e-06
2.89937e-05
-7.6489e-06
2.75019e-05
-1.27265e-05
2.55785e-05
-1.41612e-05
2.38034e-05
-1.2397e-05
2.19596e-05
-1.10359e-05
2.00563e-05
-8.10049e-06
1.84966e-05
-6.12198e-06
1.54414e-05
-4.91032e-07
1.32347e-05
4.98996e-06
1.1697e-05
1.63914e-06
1.42868e-05
-7.2544e-06
1.43635e-05
-1.88167e-05
1.13826e-05
-2.9339e-05
9.53589e-06
-4.82409e-05
1.167e-05
-3.73287e-05
1.33367e-05
-3.78571e-05
1.24576e-05
-1.50435e-05
1.44308e-05
-6.62174e-06
1.45102e-05
1.09524e-05
1.57377e-05
1.96115e-05
1.6305e-05
3.64309e-05
1.71758e-05
4.35061e-05
1.6833e-05
5.09279e-05
1.72075e-05
3.96153e-05
1.5993e-05
4.10505e-05
1.69446e-05
2.35868e-05
1.66423e-05
3.31997e-05
1.77035e-05
1.4669e-05
1.79524e-05
2.48206e-05
1.90006e-05
4.72346e-06
1.91106e-05
1.49642e-05
1.91551e-05
-2.54991e-06
1.85147e-05
8.0656e-06
1.84661e-05
-1.16549e-05
1.83084e-05
-5.15885e-07
1.86767e-05
-1.71371e-05
1.84524e-05
-1.58239e-06
1.88853e-05
-1.58488e-05
1.82663e-05
-6.85931e-07
1.84089e-05
-1.83166e-05
1.79131e-05
-3.57418e-06
1.85302e-05
-1.86693e-05
1.72847e-05
-9.26589e-07
1.92182e-05
-1.57462e-05
1.8592e-05
4.60338e-06
2.14953e-05
-8.7787e-06
2.10101e-05
1.14429e-05
2.45312e-05
-2.31421e-06
2.30511e-05
1.81693e-05
2.46491e-05
4.606e-06
2.05283e-05
2.49716e-05
2.20808e-05
8.11561e-06
1.86362e-05
3.45352e-05
2.26163e-05
8.42935e-06
4.46867e-05
2.89655e-05
3.0687e-05
8.00421e-07
3.08025e-05
1.14233e-06
3.13218e-05
-2.2413e-08
3.14194e-05
8.52849e-07
3.17231e-05
4.18814e-08
3.19696e-05
-1.9314e-06
3.20868e-05
-1.39172e-06
3.23708e-05
-3.70739e-06
3.23884e-05
-3.66688e-06
3.26796e-05
-2.3914e-06
3.2623e-05
-3.82447e-06
3.31571e-05
-1.91115e-06
3.39777e-05
-1.98672e-06
3.39391e-05
-2.36378e-06
3.46336e-05
-2.20303e-06
3.51147e-05
-4.14641e-06
3.52311e-05
-4.43797e-06
3.58865e-05
-6.65625e-06
3.56941e-05
-9.60898e-06
3.52137e-05
-1.15189e-05
3.45599e-05
-1.51121e-05
3.34233e-05
-1.71509e-05
3.26921e-05
-1.87317e-05
3.13661e-05
-2.11998e-05
2.94481e-05
-2.12245e-05
2.89121e-05
-2.25802e-05
2.84562e-05
-2.62443e-05
2.69462e-05
-2.64826e-05
2.51699e-05
-2.54414e-05
2.40645e-05
-2.65231e-05
2.44235e-05
-2.54296e-05
2.4843e-05
-2.0398e-05
2.52457e-05
-1.43884e-05
2.63447e-05
-5.63402e-06
2.69511e-05
3.89061e-06
2.75733e-05
1.16327e-05
2.91719e-05
1.67082e-05
3.09458e-05
2.39359e-05
3.22914e-05
2.59976e-05
3.27138e-05
2.80875e-05
3.31669e-05
2.64972e-05
3.28312e-05
2.09688e-05
3.2328e-05
1.50235e-05
3.14465e-05
6.76309e-06
3.01884e-05
-1.37463e-06
2.84968e-05
-5.95727e-06
2.70641e-05
-1.12938e-05
2.51765e-05
-1.22736e-05
2.36809e-05
-1.09014e-05
2.18135e-05
-9.16855e-06
1.99925e-05
-6.27945e-06
1.82319e-05
-4.36134e-06
1.56463e-05
2.09456e-06
1.32218e-05
7.41447e-06
1.12725e-05
3.58836e-06
1.27264e-05
-8.70829e-06
1.25041e-05
-1.85944e-05
1.14695e-05
-2.83044e-05
1.06199e-05
-4.73912e-05
1.29894e-05
-3.96982e-05
1.27429e-05
-3.76106e-05
1.08674e-05
-1.31681e-05
1.28274e-05
-8.5817e-06
1.25391e-05
1.12407e-05
1.43849e-05
1.77657e-05
1.48796e-05
3.59362e-05
1.60779e-05
4.23077e-05
1.60991e-05
5.09068e-05
1.70757e-05
3.86386e-05
1.60673e-05
4.20589e-05
1.7089e-05
2.25651e-05
1.69989e-05
3.32898e-05
1.79713e-05
1.36966e-05
1.84263e-05
2.43656e-05
1.94429e-05
3.7069e-06
1.96222e-05
1.47848e-05
1.97318e-05
-2.65952e-06
1.93365e-05
8.46088e-06
1.93433e-05
-1.16617e-05
1.92229e-05
-3.95529e-07
1.94651e-05
-1.73793e-05
1.92075e-05
-1.3248e-06
1.9546e-05
-1.61873e-05
1.92566e-05
-3.96475e-07
1.9155e-05
-1.8215e-05
1.85389e-05
-2.95814e-06
1.8392e-05
-1.85224e-05
1.71159e-05
3.49587e-07
1.75821e-05
-1.62124e-05
1.66209e-05
5.56456e-06
1.8226e-05
-1.03838e-05
1.79315e-05
1.17374e-05
2.1911e-05
-6.29372e-06
2.19823e-05
1.8098e-05
2.73256e-05
-7.37379e-07
2.49501e-05
2.73471e-05
2.87593e-05
4.30647e-06
2.57648e-05
3.75297e-05
2.42428e-05
9.95136e-06
4.01498e-05
2.87797e-05
3.22455e-05
6.64373e-07
3.27635e-05
6.24325e-07
3.32516e-05
-5.10567e-07
3.34847e-05
6.19767e-07
3.37477e-05
-2.21139e-07
3.3708e-05
-1.89164e-06
3.40007e-05
-1.68449e-06
3.39315e-05
-3.63821e-06
3.3766e-05
-3.50133e-06
3.41098e-05
-2.73515e-06
3.37639e-05
-3.4786e-06
3.42544e-05
-2.40171e-06
3.47732e-05
-2.50552e-06
3.46594e-05
-2.24997e-06
3.52705e-05
-2.81408e-06
3.53503e-05
-4.2262e-06
3.54825e-05
-4.57024e-06
3.5821e-05
-6.99472e-06
3.52546e-05
-9.04252e-06
3.48159e-05
-1.10802e-05
3.40974e-05
-1.43936e-05
3.29231e-05
-1.59767e-05
3.20958e-05
-1.79043e-05
3.07227e-05
-1.98268e-05
2.93205e-05
-1.98223e-05
2.8831e-05
-2.20907e-05
2.73254e-05
-2.47387e-05
2.45397e-05
-2.36968e-05
2.24556e-05
-2.33573e-05
2.18107e-05
-2.58782e-05
2.22827e-05
-2.59016e-05
2.27969e-05
-2.09122e-05
2.31352e-05
-1.47268e-05
2.38906e-05
-6.38935e-06
2.44678e-05
3.31342e-06
2.51716e-05
1.09288e-05
2.66039e-05
1.5276e-05
2.86028e-05
2.1937e-05
3.02795e-05
2.43209e-05
3.10314e-05
2.73356e-05
3.17141e-05
2.58144e-05
3.15567e-05
2.11262e-05
3.117e-05
1.54102e-05
3.04471e-05
7.48603e-06
2.93281e-05
-2.55668e-07
2.77799e-05
-4.40903e-06
2.64579e-05
-9.97182e-06
2.46936e-05
-1.05093e-05
2.33066e-05
-9.5144e-06
2.13952e-05
-7.25712e-06
1.96466e-05
-4.53085e-06
1.75844e-05
-2.29914e-06
1.56652e-05
4.01371e-06
1.38036e-05
9.27611e-06
1.21583e-05
5.23361e-06
1.12843e-05
-7.83425e-06
1.17531e-05
-1.90631e-05
1.364e-05
-3.01913e-05
1.30111e-05
-4.67623e-05
1.50636e-05
-4.17507e-05
1.22955e-05
-3.48425e-05
9.63009e-06
-1.05026e-05
1.15243e-05
-1.04759e-05
1.07677e-05
1.19972e-05
1.31346e-05
1.53989e-05
1.3137e-05
3.59338e-05
1.4841e-05
4.06038e-05
1.50948e-05
5.0653e-05
1.67321e-05
3.70013e-05
1.60714e-05
4.27196e-05
1.71985e-05
2.1438e-05
1.74088e-05
3.30795e-05
1.8284e-05
1.28214e-05
1.89485e-05
2.37011e-05
1.9864e-05
2.79144e-06
2.01878e-05
1.44611e-05
2.04088e-05
-2.88055e-06
2.02865e-05
8.58321e-06
2.03314e-05
-1.17066e-05
2.03437e-05
-4.07809e-07
2.04998e-05
-1.75354e-05
2.03026e-05
-1.12753e-06
2.06435e-05
-1.65283e-05
2.04534e-05
-2.06321e-07
2.04701e-05
-1.82317e-05
1.97852e-05
-2.27323e-06
1.97769e-05
-1.8514e-05
1.82549e-05
1.8715e-06
1.82074e-05
-1.61649e-05
1.65265e-05
7.24551e-06
1.71405e-05
-1.09979e-05
1.48674e-05
1.40106e-05
1.70706e-05
-8.49696e-06
1.61535e-05
1.90151e-05
2.09603e-05
-5.54415e-06
2.10831e-05
2.72243e-05
2.5716e-05
-3.26454e-07
2.78837e-05
3.53619e-05
2.72896e-05
1.05454e-05
3.7345e-05
3.00944e-05
3.36394e-05
8.91675e-07
3.36987e-05
5.6505e-07
3.36855e-05
-4.97373e-07
3.40839e-05
2.21289e-07
3.44016e-05
-5.38827e-07
3.42862e-05
-1.77622e-06
3.46516e-05
-2.04989e-06
3.43212e-05
-3.30784e-06
3.40965e-05
-3.27656e-06
3.42789e-05
-2.91757e-06
3.39697e-05
-3.16945e-06
3.44795e-05
-2.91144e-06
3.46004e-05
-2.62642e-06
3.45012e-05
-2.15082e-06
3.49411e-05
-3.25401e-06
3.48637e-05
-4.14873e-06
3.50744e-05
-4.78092e-06
3.5063e-05
-6.98332e-06
3.45706e-05
-8.55021e-06
3.44263e-05
-1.09359e-05
3.36865e-05
-1.36537e-05
3.26898e-05
-1.49801e-05
3.18878e-05
-1.71023e-05
3.04461e-05
-1.83851e-05
2.91905e-05
-1.85668e-05
2.81417e-05
-2.10419e-05
2.55259e-05
-2.2123e-05
2.19321e-05
-2.0103e-05
1.98831e-05
-2.13083e-05
1.95649e-05
-2.556e-05
1.98691e-05
-2.62058e-05
2.02675e-05
-2.13106e-05
2.04285e-05
-1.48878e-05
2.08147e-05
-6.77558e-06
2.14275e-05
2.70062e-06
2.23081e-05
1.00482e-05
2.35146e-05
1.40695e-05
2.56468e-05
1.98048e-05
2.75822e-05
2.23855e-05
2.87718e-05
2.61459e-05
2.96646e-05
2.49216e-05
2.97471e-05
2.10438e-05
2.95914e-05
1.55658e-05
2.90681e-05
8.00937e-06
2.80357e-05
7.76687e-07
2.67811e-05
-3.15442e-06
2.56323e-05
-8.82302e-06
2.4076e-05
-8.95302e-06
2.2723e-05
-8.16143e-06
2.0917e-05
-5.45113e-06
1.9346e-05
-2.95984e-06
1.70072e-05
3.97246e-08
1.54062e-05
5.61469e-06
1.44451e-05
1.02372e-05
1.35178e-05
6.16093e-06
1.08895e-05
-5.20594e-06
1.16941e-05
-1.98677e-05
1.44825e-05
-3.29797e-05
1.28605e-05
-4.51404e-05
1.43554e-05
-4.32456e-05
1.05834e-05
-3.10705e-05
8.29922e-06
-8.21851e-06
9.9517e-06
-1.21284e-05
8.90154e-06
1.30473e-05
1.1829e-05
1.24714e-05
1.13858e-05
3.6377e-05
1.38861e-05
3.81035e-05
1.41398e-05
5.03993e-05
1.61867e-05
3.49544e-05
1.5953e-05
4.29533e-05
1.71634e-05
2.02277e-05
1.77401e-05
3.25027e-05
1.85729e-05
1.19886e-05
1.93883e-05
2.28857e-05
2.01456e-05
2.03407e-06
2.06816e-05
1.39251e-05
2.08711e-05
-3.07002e-06
2.11698e-05
8.28452e-06
2.12957e-05
-1.18325e-05
2.14926e-05
-6.04651e-07
2.13072e-05
-1.735e-05
2.11691e-05
-9.89436e-07
2.12776e-05
-1.66368e-05
2.135e-05
-2.78766e-07
2.13714e-05
-1.82531e-05
2.05371e-05
-1.43889e-06
2.02625e-05
-1.82395e-05
1.87148e-05
3.41922e-06
1.85087e-05
-1.59588e-05
1.68936e-05
8.86064e-06
1.80744e-05
-1.21787e-05
1.59675e-05
1.61175e-05
1.77129e-05
-1.02424e-05
1.59395e-05
2.07886e-05
1.90153e-05
-8.61998e-06
1.88512e-05
2.73884e-05
2.13265e-05
-2.80174e-06
2.48918e-05
3.17967e-05
2.67472e-05
8.69002e-06
3.33971e-05
3.06951e-05
3.3548e-05
6.9087e-07
3.38334e-05
2.79641e-07
3.3722e-05
-3.85917e-07
3.42065e-05
-2.63276e-07
3.44755e-05
-8.07853e-07
3.44331e-05
-1.7338e-06
3.46657e-05
-2.28251e-06
3.42121e-05
-2.85418e-06
3.41343e-05
-3.19876e-06
3.42748e-05
-3.05811e-06
3.40616e-05
-2.95621e-06
3.42765e-05
-3.12631e-06
3.42195e-05
-2.56948e-06
3.43983e-05
-2.32957e-06
3.46784e-05
-3.53413e-06
3.45491e-05
-4.01944e-06
3.46606e-05
-4.89245e-06
3.44433e-05
-6.76604e-06
3.43196e-05
-8.42647e-06
3.42496e-05
-1.08658e-05
3.33354e-05
-1.27395e-05
3.24145e-05
-1.40592e-05
3.1503e-05
-1.61907e-05
3.00367e-05
-1.69188e-05
2.87472e-05
-1.72772e-05
2.68639e-05
-1.91586e-05
2.3074e-05
-1.8333e-05
1.88966e-05
-1.59256e-05
1.69164e-05
-1.9328e-05
1.67311e-05
-2.53748e-05
1.68846e-05
-2.63593e-05
1.7194e-05
-2.162e-05
1.72685e-05
-1.49622e-05
1.74808e-05
-6.98788e-06
1.83336e-05
1.84787e-06
1.93616e-05
9.02021e-06
2.02654e-05
1.31656e-05
2.24138e-05
1.76564e-05
2.43765e-05
2.04228e-05
2.59389e-05
2.45835e-05
2.70751e-05
2.37855e-05
2.74286e-05
2.06903e-05
2.75511e-05
1.54433e-05
2.72534e-05
8.30709e-06
2.63166e-05
1.71349e-06
2.54878e-05
-2.32565e-06
2.46078e-05
-7.94299e-06
2.33549e-05
-7.70008e-06
2.19874e-05
-6.79393e-06
2.01602e-05
-3.62395e-06
1.86657e-05
-1.46536e-06
1.63853e-05
2.32013e-06
1.4824e-05
7.176e-06
1.42448e-05
1.08163e-05
1.42162e-05
6.18953e-06
1.20549e-05
-3.04459e-06
1.15606e-05
-1.93735e-05
1.19041e-05
-3.33232e-05
8.63275e-06
-4.1869e-05
8.8628e-06
-4.34756e-05
6.63679e-06
-2.88445e-05
6.59009e-06
-8.17181e-06
8.30725e-06
-1.38455e-05
7.26544e-06
1.40892e-05
1.03526e-05
9.38424e-06
9.43414e-06
3.72955e-05
1.29122e-05
3.46254e-05
1.30611e-05
5.02504e-05
1.54846e-05
3.25309e-05
1.58599e-05
4.2578e-05
1.70769e-05
1.90106e-05
1.79655e-05
3.16141e-05
1.87574e-05
1.11967e-05
1.97987e-05
2.18444e-05
2.04386e-05
1.39417e-06
2.12232e-05
1.31404e-05
2.14127e-05
-3.25949e-06
2.20823e-05
7.61491e-06
2.23211e-05
-1.20714e-05
2.2756e-05
-1.03955e-06
2.24331e-05
-1.70271e-05
2.24632e-05
-1.01953e-06
2.25193e-05
-1.66929e-05
2.28488e-05
-6.08251e-07
2.26213e-05
-1.80256e-05
2.17354e-05
-5.53076e-07
2.10987e-05
-1.76027e-05
1.94452e-05
5.0727e-06
1.88901e-05
-1.54037e-05
1.69878e-05
1.0763e-05
1.77885e-05
-1.29794e-05
1.621e-05
1.76959e-05
1.71904e-05
-1.12228e-05
1.64895e-05
2.14895e-05
1.84191e-05
-1.05496e-05
1.92972e-05
2.65103e-05
1.92697e-05
-2.77426e-06
2.21633e-05
2.89031e-05
2.3955e-05
6.89827e-06
2.79814e-05
2.93707e-05
3.38406e-05
2.43141e-07
3.4105e-05
1.5177e-08
3.40091e-05
-2.89981e-07
3.44062e-05
-6.60332e-07
3.4549e-05
-9.50651e-07
3.45187e-05
-1.70358e-06
3.44018e-05
-2.16559e-06
3.40258e-05
-2.47813e-06
3.41985e-05
-3.37153e-06
3.42136e-05
-3.07313e-06
3.39457e-05
-2.68838e-06
3.40335e-05
-3.21406e-06
3.42281e-05
-2.76413e-06
3.45709e-05
-2.67233e-06
3.45524e-05
-3.51564e-06
3.43858e-05
-3.85286e-06
3.44268e-05
-4.93338e-06
3.42593e-05
-6.59854e-06
3.41969e-05
-8.36411e-06
3.37321e-05
-1.0401e-05
3.27454e-05
-1.17528e-05
3.20245e-05
-1.33383e-05
3.09099e-05
-1.50762e-05
2.92134e-05
-1.52223e-05
2.75972e-05
-1.56611e-05
2.47775e-05
-1.63389e-05
1.99614e-05
-1.35169e-05
1.55627e-05
-1.1527e-05
1.37886e-05
-1.75539e-05
1.36664e-05
-2.52525e-05
1.37033e-05
-2.63962e-05
1.38586e-05
-2.17753e-05
1.39061e-05
-1.50098e-05
1.40432e-05
-7.12491e-06
1.48007e-05
1.09029e-06
1.58394e-05
7.98156e-06
1.69579e-05
1.20471e-05
1.91619e-05
1.54524e-05
2.08853e-05
1.86994e-05
2.27154e-05
2.27534e-05
2.3996e-05
2.25049e-05
2.46558e-05
2.00305e-05
2.50807e-05
1.50184e-05
2.49617e-05
8.42603e-06
2.41878e-05
2.4874e-06
2.38681e-05
-2.00593e-06
2.32576e-05
-7.33248e-06
2.21993e-05
-6.6418e-06
2.08809e-05
-5.47553e-06
1.92135e-05
-1.95654e-06
1.78094e-05
-6.13207e-08