/*--------------------------------*- C++ -*----------------------------------*\
| =========                 |                                                 |
| \\      /  F ield         | OpenFOAM: The Open Source CFD Toolbox           |
|  \\    /   O peration     | Version:  2.4.0                                 |
|   \\  /    A nd           | Web:      www.OpenFOAM.org                      |
|    \\/     M anipulation  |                                                 |
\*---------------------------------------------------------------------------*/
FoamFile
{
    version     2.0;
    format      ascii;
    class       volVectorField;
    location    "0.098";
    object      UMean;
}
// * * * * * * * * * * * * * * * * * * * * * * * * * * * * * * * * * * * * * //

dimensions      [0 1 -1 0 0 0 0];

internalField   nonuniform List<vector> 
4400
(
(5.45126 0.3119 0)
(3.45857 0.0617268 0)
(2.73595 0.00161427 0)
(2.40767 -0.00236948 0)
(2.26819 -0.00143815 0)
(2.21333 -0.000833062 0)
(2.1683 -0.000147957 0)
(2.16922 -0.000496347 0)
(2.16733 -9.66196e-05 0)
(2.02917 -0.0489601 0)
(8.66538 0.83773 0)
(7.66801 0.33635 0)
(6.77639 0.111874 0)
(6.11094 0.0500392 0)
(5.73745 0.0222134 0)
(5.56817 0.01183 0)
(5.42512 0.00656025 0)
(5.42051 0.00137778 0)
(5.31196 0.0109094 0)
(5.46497 -0.150255 0)
(9.81797 0.910764 0)
(10.0592 0.461815 0)
(9.56569 0.203016 0)
(8.89332 0.118782 0)
(8.41473 0.0640574 0)
(8.16824 0.0361388 0)
(7.9612 0.0193624 0)
(7.92392 0.0116808 0)
(7.79344 -0.00253431 0)
(7.91899 -0.14883 0)
(10.0268 0.781499 0)
(11.1328 0.478479 0)
(11.2539 0.251109 0)
(10.8682 0.18063 0)
(10.4675 0.11238 0)
(10.2144 0.0693077 0)
(10.0121 0.0382526 0)
(9.91792 0.0242535 0)
(9.85537 -0.0036418 0)
(9.79813 -0.149608 0)
(9.95389 0.626863 0)
(11.3289 0.418623 0)
(11.9125 0.231889 0)
(11.9196 0.198416 0)
(11.7871 0.144478 0)
(11.6207 0.0953922 0)
(11.5376 0.0623351 0)
(11.3965 0.0309511 0)
(11.4252 0.0101347 0)
(11.2958 -0.171444 0)
(9.92459 0.498587 0)
(11.2513 0.346268 0)
(11.9693 0.176863 0)
(12.1879 0.169665 0)
(12.3093 0.138039 0)
(12.3264 0.100969 0)
(12.3933 0.0678869 0)
(12.3528 0.0410204 0)
(12.4143 0.000745136 0)
(12.3522 -0.142804 0)
(9.92142 0.384058 0)
(11.1884 0.277234 0)
(11.9066 0.129243 0)
(12.173 0.126702 0)
(12.354 0.110891 0)
(12.4901 0.0797336 0)
(12.6413 0.0598276 0)
(12.7401 0.0295137 0)
(12.845 -0.00902421 0)
(12.8868 -0.10266 0)
(9.91699 0.267096 0)
(11.1478 0.208213 0)
(11.8567 0.0840896 0)
(12.1393 0.0939156 0)
(12.313 0.0743171 0)
(12.4708 0.0613552 0)
(12.6367 0.0321779 0)
(12.7823 0.0218963 0)
(12.9098 -0.0391372 0)
(12.9875 -0.10302 0)
(9.91321 0.161576 0)
(11.1212 0.123932 0)
(11.8246 0.0506721 0)
(12.118 0.0533636 0)
(12.2827 0.0476487 0)
(12.4489 0.0309393 0)
(12.6065 0.0191246 0)
(12.7597 -0.00475178 0)
(12.8787 -0.0488281 0)
(12.9469 -0.147552 0)
(9.91557 0.0509607 0)
(11.1045 0.0451085 0)
(11.8117 0.0122624 0)
(12.1038 0.021352 0)
(12.2738 0.0110423 0)
(12.4342 0.0108904 0)
(12.5941 -0.00553508 0)
(12.7389 -0.018264 0)
(12.8597 -0.0720495 0)
(12.9088 -0.167811 0)
(9.91696 -0.0541519 0)
(11.104 -0.0394764 0)
(11.8121 -0.0193834 0)
(12.1038 -0.0174439 0)
(12.2735 -0.0186505 0)
(12.4344 -0.0171325 0)
(12.593 -0.0230992 0)
(12.7371 -0.0388337 0)
(12.8513 -0.0909078 0)
(12.8941 -0.183307 0)
(9.92083 -0.163753 0)
(11.1167 -0.119809 0)
(11.828 -0.0557735 0)
(12.1124 -0.0518122 0)
(12.2874 -0.0526049 0)
(12.4445 -0.040582 0)
(12.6054 -0.0436987 0)
(12.7433 -0.0572674 0)
(12.8556 -0.108417 0)
(12.8893 -0.197244 0)
(9.93729 -0.272096 0)
(11.1308 -0.200833 0)
(11.8696 -0.0920424 0)
(12.1221 -0.0885863 0)
(12.3241 -0.084565 0)
(12.4569 -0.0649056 0)
(12.6367 -0.0638413 0)
(12.7506 -0.0743444 0)
(12.8671 -0.124759 0)
(12.8699 -0.211569 0)
(9.94965 -0.385947 0)
(11.1546 -0.27383 0)
(11.9346 -0.133428 0)
(12.1379 -0.124964 0)
(12.3809 -0.117374 0)
(12.4543 -0.0880856 0)
(12.6538 -0.0837134 0)
(12.6795 -0.0896605 0)
(12.7837 -0.136828 0)
(12.6654 -0.219074 0)
(9.94212 -0.50215 0)
(11.2229 -0.341508 0)
(11.9944 -0.182295 0)
(12.1553 -0.16556 0)
(12.3361 -0.147258 0)
(12.2871 -0.105089 0)
(12.3971 -0.0952384 0)
(12.271 -0.0927906 0)
(12.2972 -0.135078 0)
(12.0132 -0.205491 0)
(9.96563 -0.628487 0)
(11.3077 -0.415738 0)
(11.9338 -0.235617 0)
(11.8894 -0.195633 0)
(11.8133 -0.152526 0)
(11.5722 -0.0994416 0)
(11.5358 -0.0850489 0)
(11.2843 -0.0777857 0)
(11.2462 -0.118284 0)
(10.8419 -0.164827 0)
(10.0318 -0.782834 0)
(11.1182 -0.47677 0)
(11.2706 -0.253762 0)
(10.8385 -0.178589 0)
(10.4984 -0.119372 0)
(10.1455 -0.070926 0)
(10.0315 -0.0598608 0)
(9.74019 -0.0546655 0)
(9.68225 -0.0919362 0)
(9.20303 -0.111779 0)
(9.81891 -0.911254 0)
(10.0512 -0.460899 0)
(9.57591 -0.204447 0)
(8.87163 -0.117958 0)
(8.43682 -0.068121 0)
(8.10251 -0.0382233 0)
(7.97839 -0.0334338 0)
(7.71677 -0.0327085 0)
(7.65561 -0.0604063 0)
(7.14988 -0.0625048 0)
(8.66528 -0.837949 0)
(7.66419 -0.336047 0)
(6.78108 -0.11246 0)
(6.09794 -0.0499007 0)
(5.74785 -0.0239888 0)
(5.51954 -0.0132331 0)
(5.42636 -0.012924 0)
(5.2407 -0.0148747 0)
(5.17593 -0.0287587 0)
(4.74047 -0.0264725 0)
(5.4509 -0.311929 0)
(3.45752 -0.0616808 0)
(2.73674 -0.00168776 0)
(2.40292 0.00236625 0)
(2.26933 0.00135081 0)
(2.19212 0.000432525 0)
(2.15579 -0.000297347 0)
(2.08116 -0.00129172 0)
(2.03039 -0.00281431 0)
(1.81805 0.00989117 0)
(3.2687 -0.38742 0)
(3.75031 -0.221336 0)
(4.35595 -0.262899 0)
(4.91373 -0.335917 0)
(5.36204 -0.465376 0)
(5.78315 -0.636518 0)
(6.09902 -0.679008 0)
(6.41501 -0.77469 0)
(6.89318 -0.879989 0)
(7.18924 -0.911213 0)
(7.59937 -1.02063 0)
(7.93928 -1.11528 0)
(8.30425 -1.30949 0)
(8.58419 -1.51486 0)
(8.81207 -1.70566 0)
(9.06557 -1.9037 0)
(9.31577 -2.09541 0)
(9.527 -2.25291 0)
(9.69843 -2.38158 0)
(9.81915 -2.46397 0)
(9.87108 -2.50186 0)
(9.89005 -2.4908 0)
(9.89146 -2.45567 0)
(9.93293 -2.41305 0)
(9.94226 -2.35512 0)
(9.8597 -2.23385 0)
(9.69608 -2.07343 0)
(9.48992 -1.86748 0)
(9.24155 -1.65337 0)
(8.99676 -1.40495 0)
(8.74295 -1.17711 0)
(8.53095 -0.964394 0)
(8.30845 -0.782366 0)
(8.1206 -0.605339 0)
(7.89923 -0.480176 0)
(7.74612 -0.337548 0)
(7.53055 -0.275026 0)
(7.41816 -0.168603 0)
(7.23257 -0.172665 0)
(7.15533 -0.0812014 0)
(6.98459 -0.102517 0)
(6.95555 -0.0131956 0)
(6.7619 -0.00644184 0)
(6.77569 0.110207 0)
(6.65102 0.0644257 0)
(6.64132 0.24975 0)
(6.5577 0.216691 0)
(6.45683 0.459811 0)
(6.45542 0.339799 0)
(6.3654 0.590953 0)
(6.37309 0.36087 0)
(6.28685 0.681173 0)
(6.32513 0.343827 0)
(6.18836 0.736534 0)
(6.32708 0.279005 0)
(6.14032 0.76269 0)
(6.36892 0.228144 0)
(6.06109 0.839349 0)
(6.39804 0.312361 0)
(6.00044 0.984866 0)
(6.35029 0.388147 0)
(5.86368 1.07863 0)
(6.24833 0.340695 0)
(5.68763 1.04688 0)
(6.14127 0.17826 0)
(5.52759 0.917983 0)
(6.04725 -0.0689016 0)
(5.41317 0.71829 0)
(6.00399 -0.320393 0)
(5.37077 0.554269 0)
(5.99726 -0.488677 0)
(5.39095 0.441822 0)
(5.99891 -0.599151 0)
(5.4441 0.352176 0)
(5.99331 -0.648326 0)
(5.5021 0.305389 0)
(5.98163 -0.619681 0)
(5.56371 0.312959 0)
(5.9618 -0.513825 0)
(5.62354 0.368399 0)
(5.92845 -0.346669 0)
(5.66749 0.45547 0)
(5.87411 -0.140386 0)
(5.67315 0.560418 0)
(5.80032 0.106115 0)
(5.63704 0.702044 0)
(5.71465 0.382633 0)
(5.56833 0.882941 0)
(5.63838 0.682996 0)
(5.51151 1.12551 0)
(5.60897 1.02187 0)
(5.54033 1.49556 0)
(5.64929 1.45059 0)
(5.5977 2.11788 0)
(5.66935 2.02549 0)
(5.4245 3.03678 0)
(6.0892 2.94726 0)
(5.45001 4.83253 0)
(6.37704 5.25499 0)
(3.69619 9.46737 0)
(5.67852 -0.414105 0)
(5.8804 -0.345956 0)
(6.15332 -0.409019 0)
(6.42034 -0.510844 0)
(6.72592 -0.632145 0)
(7.02614 -0.775305 0)
(7.29713 -0.832935 0)
(7.53822 -0.918029 0)
(7.8665 -1.02948 0)
(8.07405 -1.07279 0)
(8.35546 -1.172 0)
(8.63594 -1.27116 0)
(8.99719 -1.4433 0)
(9.29749 -1.63488 0)
(9.54419 -1.81776 0)
(9.77789 -2.00248 0)
(9.96684 -2.17656 0)
(10.0972 -2.31732 0)
(10.1932 -2.42821 0)
(10.2372 -2.4932 0)
(10.2251 -2.50507 0)
(10.2072 -2.48602 0)
(10.1896 -2.45487 0)
(10.1791 -2.40689 0)
(10.0834 -2.31853 0)
(9.90335 -2.16411 0)
(9.67453 -1.98236 0)
(9.42202 -1.76552 0)
(9.14597 -1.54367 0)
(8.87637 -1.29833 0)
(8.61142 -1.07969 0)
(8.37862 -0.873168 0)
(8.14607 -0.690792 0)
(7.93455 -0.517861 0)
(7.7068 -0.396001 0)
(7.54201 -0.261739 0)
(7.33187 -0.207007 0)
(7.22176 -0.112139 0)
(7.04973 -0.123548 0)
(6.96998 -0.0300033 0)
(6.81638 -0.063089 0)
(6.76106 0.0370553 0)
(6.58966 0.0271483 0)
(6.58796 0.140423 0)
(6.48783 0.081154 0)
(6.44134 0.285517 0)
(6.40268 0.243718 0)
(6.2644 0.491788 0)
(6.31652 0.342656 0)
(6.22835 0.622794 0)
(6.25283 0.359486 0)
(6.14548 0.711937 0)
(6.23479 0.342959 0)
(6.08321 0.77845 0)
(6.22622 0.253487 0)
(6.05457 0.804397 0)
(6.28543 0.193747 0)
(5.98869 0.890152 0)
(6.36102 0.263833 0)
(5.95626 1.05009 0)
(6.35305 0.357465 0)
(5.84465 1.162 0)
(6.28354 0.313216 0)
(5.68837 1.14079 0)
(6.19456 0.136928 0)
(5.53792 1.01811 0)
(6.12055 -0.129629 0)
(5.41419 0.819862 0)
(6.08421 -0.405941 0)
(5.3658 0.654727 0)
(6.08524 -0.595851 0)
(5.37696 0.549853 0)
(6.10364 -0.722624 0)
(5.41187 0.472267 0)
(6.12399 -0.787858 0)
(5.44808 0.439223 0)
(6.14585 -0.779934 0)
(5.50118 0.460465 0)
(6.17295 -0.691633 0)
(5.58366 0.528629 0)
(6.18925 -0.534863 0)
(5.6812 0.630397 0)
(6.17294 -0.329408 0)
(5.76867 0.750951 0)
(6.10815 -0.0782436 0)
(5.81736 0.910928 0)
(5.9738 0.205153 0)
(5.78908 1.10999 0)
(5.77133 0.497361 0)
(5.68804 1.35846 0)
(5.59117 0.798668 0)
(5.622 1.71984 0)
(5.66288 1.19473 0)
(5.70523 2.35038 0)
(6.02105 1.90706 0)
(5.55633 3.42311 0)
(5.93446 2.7642 0)
(4.92918 5.03858 0)
(8.30102 4.49266 0)
(5.97327 9.90833 0)
(7.98286 -0.400057 0)
(8.00192 -0.409277 0)
(8.16415 -0.481754 0)
(8.31313 -0.587491 0)
(8.47779 -0.708018 0)
(8.64147 -0.833881 0)
(8.79346 -0.91154 0)
(8.92115 -0.995225 0)
(9.09789 -1.10195 0)
(9.21716 -1.161 0)
(9.38956 -1.2596 0)
(9.58552 -1.38054 0)
(9.86863 -1.55329 0)
(10.1188 -1.7369 0)
(10.3112 -1.90726 0)
(10.4639 -2.06984 0)
(10.5573 -2.21788 0)
(10.5963 -2.33881 0)
(10.6189 -2.4321 0)
(10.5747 -2.47704 0)
(10.508 -2.47992 0)
(10.4495 -2.46641 0)
(10.3801 -2.43586 0)
(10.278 -2.36959 0)
(10.0743 -2.24579 0)
(9.82513 -2.06968 0)
(9.54643 -1.87516 0)
(9.25367 -1.64987 0)
(8.94754 -1.42311 0)
(8.65656 -1.18663 0)
(8.37995 -0.972528 0)
(8.13884 -0.771209 0)
(7.89181 -0.59325 0)
(7.68097 -0.43108 0)
(7.45404 -0.311416 0)
(7.29752 -0.190897 0)
(7.09355 -0.137175 0)
(6.99065 -0.0533161 0)
(6.81826 -0.0684844 0)
(6.74412 0.0208852 0)
(6.59466 -0.0241489 0)
(6.52375 0.0872165 0)
(6.37868 0.0564993 0)
(6.37263 0.170699 0)
(6.27837 0.101966 0)
(6.22 0.317977 0)
(6.1841 0.268941 0)
(6.06669 0.515252 0)
(6.11842 0.339332 0)
(6.07322 0.647609 0)
(6.09065 0.371513 0)
(5.97997 0.729554 0)
(6.07477 0.328431 0)
(5.96268 0.795896 0)
(6.10473 0.223664 0)
(5.96245 0.824387 0)
(6.17404 0.159005 0)
(5.93677 0.921029 0)
(6.28237 0.220224 0)
(5.91934 1.09909 0)
(6.31047 0.331164 0)
(5.84842 1.21721 0)
(6.27762 0.292537 0)
(5.72898 1.20586 0)
(6.20941 0.110816 0)
(5.59023 1.08698 0)
(6.14594 -0.168655 0)
(5.48139 0.889004 0)
(6.10794 -0.46593 0)
(5.43858 0.724434 0)
(6.11221 -0.674871 0)
(5.44908 0.625884 0)
(6.13364 -0.814566 0)
(5.46645 0.559097 0)
(6.16515 -0.897163 0)
(5.48239 0.540031 0)
(6.21139 -0.913454 0)
(5.51285 0.574232 0)
(6.28725 -0.857494 0)
(5.58469 0.654955 0)
(6.3919 -0.730216 0)
(5.70187 0.769832 0)
(6.51266 -0.544455 0)
(5.85727 0.910266 0)
(6.62536 -0.295834 0)
(6.01975 1.09173 0)
(6.68365 0.0201378 0)
(6.1034 1.3155 0)
(6.6086 0.367579 0)
(6.00906 1.56848 0)
(6.35384 0.692782 0)
(5.7185 1.87642 0)
(6.13304 0.993468 0)
(5.56559 2.36464 0)
(6.68235 1.47248 0)
(5.92121 3.50021 0)
(8.08685 2.58883 0)
(5.09299 5.43477 0)
(8.95393 3.82743 0)
(6.86877 9.99016 0)
(9.91354 -0.42696 0)
(9.84932 -0.479555 0)
(9.91983 -0.548214 0)
(10.0226 -0.638499 0)
(10.1157 -0.742972 0)
(10.1931 -0.858149 0)
(10.2489 -0.94995 0)
(10.2928 -1.03573 0)
(10.3503 -1.1315 0)
(10.4133 -1.20856 0)
(10.5213 -1.30941 0)
(10.6465 -1.43995 0)
(10.8063 -1.61564 0)
(10.9348 -1.79626 0)
(11.0156 -1.95657 0)
(11.0542 -2.10016 0)
(11.0438 -2.22158 0)
(10.9959 -2.32204 0)
(10.9275 -2.39642 0)
(10.8018 -2.4301 0)
(10.6948 -2.4414 0)
(10.5886 -2.4339 0)
(10.445 -2.38938 0)
(10.2428 -2.29096 0)
(9.9546 -2.13704 0)
(9.64919 -1.94616 0)
(9.32061 -1.74304 0)
(8.98303 -1.51407 0)
(8.64824 -1.29098 0)
(8.33888 -1.06438 0)
(8.05717 -0.861031 0)
(7.80708 -0.667334 0)
(7.56311 -0.497065 0)
(7.35409 -0.341777 0)
(7.14868 -0.228531 0)
(6.99878 -0.121234 0)
(6.8145 -0.0726797 0)
(6.71649 0.000102542 0)
(6.5462 -0.0198134 0)
(6.48084 0.0694274 0)
(6.33226 0.0136274 0)
(6.25392 0.141479 0)
(6.14491 0.0815702 0)
(6.11709 0.205324 0)
(6.05086 0.122335 0)
(5.95729 0.357294 0)
(5.95063 0.277142 0)
(5.85616 0.543558 0)
(5.90731 0.323975 0)
(5.85431 0.665359 0)
(5.92186 0.366801 0)
(5.80713 0.765594 0)
(5.91157 0.317607 0)
(5.78861 0.823395 0)
(5.9815 0.196524 0)
(5.81205 0.859623 0)
(6.0595 0.108906 0)
(5.82737 0.955789 0)
(6.19483 0.157919 0)
(5.82955 1.15021 0)
(6.26445 0.281766 0)
(5.79678 1.2812 0)
(6.27963 0.252666 0)
(5.7129 1.28439 0)
(6.24588 0.0676857 0)
(5.59475 1.17377 0)
(6.18858 -0.227365 0)
(5.49542 0.980097 0)
(6.15786 -0.544513 0)
(5.44739 0.816757 0)
(6.15571 -0.773425 0)
(5.43945 0.723194 0)
(6.17821 -0.926471 0)
(5.43009 0.671822 0)
(6.21536 -1.02379 0)
(5.41312 0.672167 0)
(6.27109 -1.06003 0)
(5.39848 0.724906 0)
(6.36851 -1.03454 0)
(5.41683 0.825281 0)
(6.52532 -0.946377 0)
(5.48272 0.958461 0)
(6.74905 -0.808501 0)
(5.6191 1.10918 0)
(7.04153 -0.609236 0)
(5.84951 1.29707 0)
(7.37079 -0.316749 0)
(6.14038 1.54585 0)
(7.63198 0.071005 0)
(6.37537 1.88084 0)
(7.62453 0.507452 0)
(6.27791 2.29868 0)
(7.13012 0.885886 0)
(5.59959 2.85633 0)
(6.65777 1.05445 0)
(4.9309 3.64696 0)
(8.61419 1.86252 0)
(5.7268 5.41235 0)
(11.1574 2.62127 0)
(8.38659 9.30014 0)
(11.3911 -0.377974 0)
(11.3563 -0.442457 0)
(11.3458 -0.541872 0)
(11.3733 -0.646741 0)
(11.4095 -0.752689 0)
(11.4266 -0.861289 0)
(11.4237 -0.95886 0)
(11.4114 -1.04538 0)
(11.4059 -1.13658 0)
(11.4311 -1.23301 0)
(11.4811 -1.34368 0)
(11.5266 -1.47126 0)
(11.5696 -1.63332 0)
(11.5754 -1.8007 0)
(11.5448 -1.95239 0)
(11.4773 -2.08431 0)
(11.3705 -2.19122 0)
(11.2448 -2.28219 0)
(11.095 -2.34523 0)
(10.9317 -2.38132 0)
(10.8014 -2.39836 0)
(10.6315 -2.37926 0)
(10.3975 -2.30297 0)
(10.1013 -2.1739 0)
(9.73612 -1.9989 0)
(9.37808 -1.80203 0)
(8.99641 -1.59432 0)
(8.62383 -1.36826 0)
(8.2632 -1.15143 0)
(7.9474 -0.940414 0)
(7.66141 -0.749293 0)
(7.41859 -0.566092 0)
(7.18121 -0.405296 0)
(6.9885 -0.261032 0)
(6.7935 -0.151193 0)
(6.65179 -0.0574487 0)
(6.48446 -0.0112514 0)
(6.39631 0.0492358 0)
(6.23188 0.0329062 0)
(6.1839 0.115564 0)
(6.02736 0.0532916 0)
(5.96445 0.190867 0)
(5.87437 0.101078 0)
(5.83544 0.235588 0)
(5.79947 0.145808 0)
(5.67781 0.392246 0)
(5.68703 0.282997 0)
(5.63124 0.557841 0)
(5.67557 0.313731 0)
(5.6603 0.684742 0)
(5.68521 0.350107 0)
(5.63835 0.778225 0)
(5.7055 0.295116 0)
(5.64337 0.823165 0)
(5.79224 0.156205 0)
(5.69705 0.872186 0)
(5.9126 0.0691062 0)
(5.73863 0.975556 0)
(6.05612 0.108048 0)
(5.76895 1.18183 0)
(6.17537 0.234563 0)
(5.77664 1.31932 0)
(6.23319 0.219325 0)
(5.73289 1.33105 0)
(6.22313 0.0390666 0)
(5.64821 1.23039 0)
(6.18389 -0.262675 0)
(5.56408 1.03811 0)
(6.15492 -0.596747 0)
(5.52791 0.875189 0)
(6.14465 -0.841491 0)
(5.51377 0.785761 0)
(6.15987 -1.00715 0)
(5.49849 0.74516 0)
(6.18582 -1.11792 0)
(5.4664 0.759024 0)
(6.22314 -1.17388 0)
(5.42871 0.824335 0)
(6.29771 -1.17663 0)
(5.40956 0.939563 0)
(6.43489 -1.12464 0)
(5.41778 1.09492 0)
(6.66289 -1.03804 0)
(5.47699 1.27175 0)
(7.03312 -0.920005 0)
(5.63496 1.47831 0)
(7.61559 -0.737501 0)
(5.94329 1.72596 0)
(8.46407 -0.450474 0)
(6.41165 2.03613 0)
(9.53123 -0.0107915 0)
(6.83604 2.46246 0)
(10.5452 0.62168 0)
(6.63514 3.11077 0)
(10.8999 1.36142 0)
(5.15439 3.95401 0)
(10.2756 1.70354 0)
(4.81073 5.92517 0)
(10.0072 1.4738 0)
(8.96682 8.63079 0)
(12.4013 -0.37884 0)
(12.3745 -0.490176 0)
(12.3414 -0.589582 0)
(12.3274 -0.678795 0)
(12.3256 -0.766223 0)
(12.2933 -0.853047 0)
(12.2464 -0.944999 0)
(12.1933 -1.03357 0)
(12.1496 -1.12927 0)
(12.1262 -1.23542 0)
(12.1032 -1.34974 0)
(12.0669 -1.46947 0)
(12.0228 -1.61197 0)
(11.9458 -1.76116 0)
(11.8386 -1.90506 0)
(11.6978 -2.03209 0)
(11.5289 -2.13655 0)
(11.3548 -2.22201 0)
(11.1726 -2.28192 0)
(11.0029 -2.32062 0)
(10.829 -2.33008 0)
(10.5625 -2.28276 0)
(10.2378 -2.17362 0)
(9.84965 -2.02009 0)
(9.42523 -1.83323 0)
(9.01996 -1.63273 0)
(8.59796 -1.42451 0)
(8.19459 -1.20558 0)
(7.82257 -1.00613 0)
(7.50332 -0.814817 0)
(7.22741 -0.63882 0)
(6.98729 -0.464317 0)
(6.7641 -0.316044 0)
(6.58233 -0.181565 0)
(6.40324 -0.0834282 0)
(6.26901 -0.00031209 0)
(6.12758 0.04289 0)
(6.0463 0.0974068 0)
(5.89751 0.0814619 0)
(5.8613 0.157728 0)
(5.70112 0.0915843 0)
(5.65759 0.233742 0)
(5.58002 0.113713 0)
(5.53853 0.266155 0)
(5.5167 0.162448 0)
(5.38157 0.428419 0)
(5.42718 0.263469 0)
(5.39226 0.586236 0)
(5.43553 0.269336 0)
(5.42712 0.707418 0)
(5.49371 0.327693 0)
(5.44242 0.811483 0)
(5.51675 0.273359 0)
(5.48171 0.846412 0)
(5.59798 0.11917 0)
(5.53568 0.878061 0)
(5.76889 0.0140366 0)
(5.60295 0.997316 0)
(5.93463 0.04263 0)
(5.66005 1.21741 0)
(6.10895 0.171757 0)
(5.70264 1.36305 0)
(6.19779 0.173009 0)
(5.69427 1.3865 0)
(6.22139 -0.00331167 0)
(5.63901 1.29558 0)
(6.20869 -0.310832 0)
(5.577 1.1106 0)
(6.18289 -0.660343 0)
(5.54337 0.952671 0)
(6.18124 -0.918094 0)
(5.5181 0.87191 0)
(6.19493 -1.09722 0)
(5.48341 0.844198 0)
(6.21921 -1.22268 0)
(5.43034 0.874271 0)
(6.25485 -1.29636 0)
(5.36931 0.954162 0)
(6.32259 -1.32166 0)
(5.31256 1.08518 0)
(6.44237 -1.29315 0)
(5.25939 1.26057 0)
(6.63783 -1.22888 0)
(5.20743 1.46448 0)
(6.95538 -1.13143 0)
(5.15417 1.71181 0)
(7.48734 -0.989245 0)
(5.11954 1.99844 0)
(8.38609 -0.797966 0)
(5.17051 2.30704 0)
(9.82712 -0.50847 0)
(5.49218 2.68569 0)
(11.7992 -0.0368038 0)
(6.20549 3.2368 0)
(13.6491 0.605821 0)
(7.05881 4.22759 0)
(13.7403 1.02828 0)
(7.76473 6.06106 0)
(10.9574 1.35339 0)
(8.92856 7.81217 0)
(12.8885 -0.393933 0)
(12.8727 -0.529589 0)
(12.8539 -0.599922 0)
(12.8326 -0.657686 0)
(12.7951 -0.728363 0)
(12.7259 -0.809282 0)
(12.6515 -0.906233 0)
(12.5748 -1.00708 0)
(12.4998 -1.11038 0)
(12.4296 -1.21804 0)
(12.3497 -1.32967 0)
(12.2614 -1.44404 0)
(12.167 -1.57341 0)
(12.0486 -1.71066 0)
(11.9084 -1.84957 0)
(11.7422 -1.97385 0)
(11.5649 -2.0761 0)
(11.3839 -2.15668 0)
(11.1935 -2.21476 0)
(10.9922 -2.24686 0)
(10.726 -2.22996 0)
(10.3597 -2.14607 0)
(9.94868 -2.00579 0)
(9.48892 -1.83616 0)
(9.01872 -1.64512 0)
(8.57982 -1.44916 0)
(8.1213 -1.24708 0)
(7.70835 -1.04607 0)
(7.33838 -0.867308 0)
(7.03851 -0.69677 0)
(6.77808 -0.534155 0)
(6.54874 -0.371002 0)
(6.32986 -0.232014 0)
(6.15324 -0.107921 0)
(5.98723 -0.018338 0)
(5.86002 0.0508294 0)
(5.73861 0.0914773 0)
(5.66528 0.136009 0)
(5.53404 0.125453 0)
(5.51508 0.194514 0)
(5.35234 0.129258 0)
(5.34127 0.269071 0)
(5.26789 0.128115 0)
(5.22584 0.292211 0)
(5.22661 0.189669 0)
(5.0795 0.457222 0)
(5.14961 0.241146 0)
(5.15896 0.598794 0)
(5.21168 0.259624 0)
(5.20001 0.715387 0)
(5.24423 0.2834 0)
(5.26266 0.813337 0)
(5.29733 0.230019 0)
(5.35447 0.839186 0)
(5.40913 0.0837076 0)
(5.42136 0.873288 0)
(5.57148 -0.0307588 0)
(5.49998 0.997476 0)
(5.77278 -0.0150417 0)
(5.5935 1.2206 0)
(5.99603 0.111789 0)
(5.67148 1.37789 0)
(6.1163 0.133567 0)
(5.70304 1.41139 0)
(6.16838 -0.0276366 0)
(5.68348 1.32596 0)
(6.17044 -0.334542 0)
(5.65213 1.14652 0)
(6.15467 -0.690372 0)
(5.62431 0.989983 0)
(6.15003 -0.957885 0)
(5.59916 0.913784 0)
(6.15445 -1.1491 0)
(5.55906 0.896626 0)
(6.1651 -1.28906 0)
(5.50412 0.941221 0)
(6.18204 -1.38112 0)
(5.43855 1.03308 0)
(6.21968 -1.42991 0)
(5.37322 1.17278 0)
(6.29277 -1.42714 0)
(5.31182 1.34934 0)
(6.41332 -1.39131 0)
(5.25336 1.54424 0)
(6.59128 -1.3207 0)
(5.18555 1.77301 0)
(6.83923 -1.19875 0)
(5.08907 2.05206 0)
(7.17503 -1.04274 0)
(4.94738 2.42264 0)
(7.65925 -0.849677 0)
(4.85763 2.95294 0)
(8.48102 -0.586758 0)
(5.27862 3.65588 0)
(9.87711 -0.2004 0)
(6.79804 4.71257 0)
(11.6516 0.319692 0)
(8.81353 6.21112 0)
(12.6657 1.78746 0)
(9.78066 6.96071 0)
(12.9461 -0.365081 0)
(12.9446 -0.510875 0)
(12.9447 -0.59359 0)
(12.9192 -0.651044 0)
(12.8631 -0.718478 0)
(12.787 -0.799379 0)
(12.7079 -0.894559 0)
(12.6196 -0.994432 0)
(12.5254 -1.09288 0)
(12.4288 -1.19297 0)
(12.3257 -1.29793 0)
(12.2205 -1.40869 0)
(12.1102 -1.53055 0)
(11.9897 -1.66089 0)
(11.8553 -1.79439 0)
(11.7019 -1.91309 0)
(11.537 -2.01182 0)
(11.3459 -2.08678 0)
(11.1206 -2.13238 0)
(10.8389 -2.13495 0)
(10.4685 -2.07648 0)
(10.0112 -1.95591 0)
(9.5308 -1.79962 0)
(9.00999 -1.62981 0)
(8.51249 -1.44615 0)
(8.04332 -1.25619 0)
(7.57167 -1.0666 0)
(7.16864 -0.887514 0)
(6.82381 -0.732614 0)
(6.54809 -0.579697 0)
(6.30546 -0.428084 0)
(6.08766 -0.278303 0)
(5.88612 -0.154106 0)
(5.71762 -0.0427865 0)
(5.57128 0.0377491 0)
(5.44987 0.0976839 0)
(5.34528 0.131418 0)
(5.27828 0.169433 0)
(5.17025 0.158208 0)
(5.15807 0.222016 0)
(5.00456 0.158187 0)
(5.02279 0.288484 0)
(4.94507 0.13387 0)
(4.92225 0.309011 0)
(4.90255 0.199638 0)
(4.80722 0.471692 0)
(4.87808 0.196081 0)
(4.92125 0.605369 0)
(4.9522 0.185614 0)
(4.97426 0.743763 0)
(5.04368 0.239645 0)
(5.0652 0.840067 0)
(5.1236 0.188513 0)
(5.18221 0.853531 0)
(5.2214 0.0353353 0)
(5.28554 0.869942 0)
(5.38376 -0.0908937 0)
(5.39075 0.992029 0)
(5.6318 -0.0813118 0)
(5.51906 1.22463 0)
(5.90135 0.0468516 0)
(5.61036 1.39788 0)
(6.05267 0.0841635 0)
(5.67411 1.43811 0)
(6.13872 -0.0587379 0)
(5.68757 1.36183 0)
(6.16568 -0.365226 0)
(5.67379 1.1899 0)
(6.16647 -0.726255 0)
(5.65388 1.03971 0)
(6.16686 -1.00219 0)
(5.62375 0.971956 0)
(6.17452 -1.20337 0)
(5.57735 0.968969 0)
(6.18332 -1.35587 0)
(5.51118 1.02915 0)
(6.19738 -1.46649 0)
(5.42908 1.13618 0)
(6.23091 -1.54192 0)
(5.34195 1.29246 0)
(6.29598 -1.56984 0)
(5.25753 1.48816 0)
(6.40801 -1.56919 0)
(5.18171 1.70079 0)
(6.57541 -1.53756 0)
(5.11553 1.93466 0)
(6.80357 -1.46002 0)
(5.08654 2.19382 0)
(7.08116 -1.34927 0)
(5.14588 2.51596 0)
(7.33956 -1.20828 0)
(5.36057 2.98341 0)
(7.45482 -1.08552 0)
(5.81944 3.75849 0)
(7.60296 -1.00227 0)
(6.68306 5.00373 0)
(8.94304 -0.433047 0)
(8.07441 6.11893 0)
(11.7151 1.6741 0)
(10.5039 6.35638 0)
(12.8944 -0.35518 0)
(12.898 -0.466765 0)
(12.9112 -0.542926 0)
(12.8969 -0.602606 0)
(12.8438 -0.670037 0)
(12.7669 -0.750743 0)
(12.6739 -0.843163 0)
(12.5717 -0.941544 0)
(12.4649 -1.04056 0)
(12.3628 -1.14249 0)
(12.2589 -1.24948 0)
(12.1613 -1.36323 0)
(12.0561 -1.48255 0)
(11.9488 -1.60939 0)
(11.8157 -1.73421 0)
(11.6606 -1.8461 0)
(11.468 -1.93637 0)
(11.2265 -1.99631 0)
(10.918 -2.0098 0)
(10.5307 -1.96991 0)
(10.0498 -1.87286 0)
(9.51544 -1.73385 0)
(8.97479 -1.57805 0)
(8.41608 -1.41882 0)
(7.90395 -1.24106 0)
(7.41898 -1.05991 0)
(6.95388 -0.889181 0)
(6.579 -0.737177 0)
(6.26092 -0.605718 0)
(6.00851 -0.470869 0)
(5.77162 -0.331149 0)
(5.5699 -0.192771 0)
(5.39074 -0.0774309 0)
(5.24288 0.0185514 0)
(5.11999 0.0887331 0)
(5.02239 0.139478 0)
(4.9351 0.169605 0)
(4.88391 0.196402 0)
(4.80277 0.187302 0)
(4.80171 0.246119 0)
(4.66747 0.189309 0)
(4.71542 0.306052 0)
(4.62724 0.149616 0)
(4.63437 0.331785 0)
(4.59592 0.221163 0)
(4.55495 0.479068 0)
(4.6066 0.151413 0)
(4.72359 0.621357 0)
(4.72344 0.177188 0)
(4.76523 0.72987 0)
(4.79806 0.177326 0)
(4.89427 0.816853 0)
(4.91639 0.125385 0)
(5.06952 0.841089 0)
(5.04012 0.00213001 0)
(5.18322 0.856143 0)
(5.1791 -0.132286 0)
(5.31637 0.95566 0)
(5.4343 -0.135063 0)
(5.46865 1.18654 0)
(5.74454 -0.00173764 0)
(5.57821 1.38316 0)
(5.93356 0.0529057 0)
(5.673 1.42915 0)
(6.04622 -0.0683393 0)
(5.72425 1.35716 0)
(6.09952 -0.357938 0)
(5.74468 1.18842 0)
(6.11227 -0.714075 0)
(5.74252 1.0395 0)
(6.11749 -0.992065 0)
(5.71921 0.977786 0)
(6.11536 -1.20452 0)
(5.67599 0.987693 0)
(6.10884 -1.37338 0)
(5.60853 1.06438 0)
(6.10412 -1.5031 0)
(5.5254 1.18835 0)
(6.11226 -1.60019 0)
(5.43509 1.36069 0)
(6.13966 -1.65351 0)
(5.34521 1.5684 0)
(6.19942 -1.68762 0)
(5.26238 1.7958 0)
(6.29174 -1.70185 0)
(5.18555 2.05833 0)
(6.41893 -1.68072 0)
(5.14451 2.36841 0)
(6.58562 -1.63625 0)
(5.19403 2.752 0)
(6.79993 -1.58053 0)
(5.4303 3.25693 0)
(7.07295 -1.54168 0)
(5.98701 3.98474 0)
(7.45687 -1.37551 0)
(6.85777 4.93291 0)
(8.16467 -0.684066 0)
(7.81216 5.69377 0)
(9.72488 1.1809 0)
(10.4849 5.65922 0)
(12.8489 -0.327945 0)
(12.8478 -0.411157 0)
(12.8649 -0.486976 0)
(12.8474 -0.560541 0)
(12.7881 -0.638962 0)
(12.6964 -0.723855 0)
(12.5922 -0.815202 0)
(12.4875 -0.912022 0)
(12.3923 -1.01251 0)
(12.3017 -1.11399 0)
(12.2135 -1.22036 0)
(12.121 -1.33028 0)
(12.0161 -1.44307 0)
(11.8899 -1.55826 0)
(11.7253 -1.66852 0)
(11.5196 -1.7636 0)
(11.2581 -1.83398 0)
(10.9236 -1.86223 0)
(10.507 -1.83784 0)
(10.0027 -1.76129 0)
(9.43345 -1.64002 0)
(8.85218 -1.49268 0)
(8.2855 -1.34449 0)
(7.71967 -1.19421 0)
(7.21093 -1.02405 0)
(6.72536 -0.860625 0)
(6.27958 -0.717862 0)
(5.93041 -0.592363 0)
(5.63934 -0.485683 0)
(5.41138 -0.371398 0)
(5.1985 -0.247426 0)
(5.02084 -0.121197 0)
(4.86752 -0.0163691 0)
(4.74154 0.0678066 0)
(4.63973 0.126797 0)
(4.56766 0.169948 0)
(4.5022 0.191201 0)
(4.46398 0.208891 0)
(4.41065 0.202063 0)
(4.41814 0.253151 0)
(4.30574 0.204591 0)
(4.38524 0.302769 0)
(4.28238 0.151082 0)
(4.3363 0.337206 0)
(4.24888 0.216283 0)
(4.33107 0.464292 0)
(4.30283 0.097745 0)
(4.49994 0.604017 0)
(4.39801 0.0878705 0)
(4.58796 0.751097 0)
(4.55489 0.132469 0)
(4.7135 0.830654 0)
(4.71341 0.0788642 0)
(4.89136 0.829395 0)
(4.84293 -0.0555707 0)
(5.0611 0.843196 0)
(4.96793 -0.19302 0)
(5.2278 0.926705 0)
(5.23299 -0.19036 0)
(5.38662 1.14966 0)
(5.57617 -0.0551327 0)
(5.51588 1.37097 0)
(5.82225 0.00601536 0)
(5.65089 1.42414 0)
(5.97805 -0.0850622 0)
(5.74152 1.3532 0)
(6.06591 -0.355968 0)
(5.7898 1.186 0)
(6.10367 -0.698091 0)
(5.79832 1.04191 0)
(6.11644 -0.969964 0)
(5.78039 0.990595 0)
(6.1123 -1.18129 0)
(5.73398 1.01248 0)
(6.10427 -1.35564 0)
(5.66142 1.10168 0)
(6.09842 -1.50085 0)
(5.57195 1.23858 0)
(6.10408 -1.62777 0)
(5.47159 1.42924 0)
(6.12783 -1.72743 0)
(5.37212 1.66299 0)
(6.18035 -1.80929 0)
(5.28723 1.92288 0)
(6.25965 -1.8692 0)
(5.23122 2.21293 0)
(6.36884 -1.90412 0)
(5.25594 2.53883 0)
(6.505 -1.92774 0)
(5.41665 2.92926 0)
(6.64844 -1.9318 0)
(5.75928 3.43171 0)
(6.79495 -1.86867 0)
(6.30981 4.05641 0)
(7.04567 -1.54826 0)
(7.02716 4.79587 0)
(7.59149 -0.647568 0)
(7.93448 5.16626 0)
(8.52618 0.980059 0)
(9.9811 4.8313 0)
(12.8219 -0.304126 0)
(12.8181 -0.368079 0)
(12.8393 -0.443119 0)
(12.8257 -0.523612 0)
(12.7683 -0.607479 0)
(12.6817 -0.694962 0)
(12.5836 -0.784052 0)
(12.4876 -0.877133 0)
(12.3927 -0.971244 0)
(12.2939 -1.06689 0)
(12.1872 -1.16619 0)
(12.0634 -1.26713 0)
(11.9172 -1.36821 0)
(11.7363 -1.46999 0)
(11.5058 -1.56172 0)
(11.2183 -1.63426 0)
(10.8552 -1.67419 0)
(10.4077 -1.66965 0)
(9.87168 -1.6141 0)
(9.2765 -1.51643 0)
(8.65991 -1.38691 0)
(8.06423 -1.24567 0)
(7.49333 -1.1145 0)
(6.93942 -0.97714 0)
(6.45726 -0.817314 0)
(5.99487 -0.671007 0)
(5.57303 -0.556114 0)
(5.25711 -0.461174 0)
(4.99236 -0.378654 0)
(4.79783 -0.275129 0)
(4.61684 -0.158778 0)
(4.47611 -0.0476192 0)
(4.35457 0.0481834 0)
(4.25769 0.119109 0)
(4.18279 0.170077 0)
(4.1387 0.202023 0)
(4.09931 0.21874 0)
(4.08275 0.224607 0)
(4.0499 0.222041 0)
(4.07397 0.261756 0)
(3.98362 0.22246 0)
(4.08942 0.304069 0)
(3.96955 0.167666 0)
(4.07249 0.347228 0)
(3.9337 0.217493 0)
(4.14534 0.446072 0)
(3.99675 0.0550148 0)
(4.3582 0.624389 0)
(4.10186 0.0776824 0)
(4.40863 0.720653 0)
(4.2613 0.0598683 0)
(4.57283 0.783111 0)
(4.46622 0.00204955 0)
(4.80556 0.810453 0)
(4.60545 -0.0855729 0)
(4.98156 0.81769 0)
(4.73041 -0.216934 0)
(5.1436 0.864746 0)
(4.95312 -0.231742 0)
(5.32784 1.07363 0)
(5.31607 -0.0896804 0)
(5.49239 1.31116 0)
(5.64112 -0.0213752 0)
(5.65728 1.37405 0)
(5.84234 -0.0899081 0)
(5.79086 1.3031 0)
(5.96817 -0.329587 0)
(5.87277 1.13554 0)
(6.02863 -0.649113 0)
(5.90413 0.993489 0)
(6.03861 -0.913576 0)
(5.89851 0.947267 0)
(6.02659 -1.12157 0)
(5.85836 0.978112 0)
(6.00547 -1.29235 0)
(5.78917 1.08163 0)
(5.98167 -1.43538 0)
(5.70062 1.23749 0)
(5.96224 -1.56156 0)
(5.59666 1.45031 0)
(5.95535 -1.67442 0)
(5.49253 1.69612 0)
(5.97171 -1.79278 0)
(5.40113 1.97284 0)
(6.01126 -1.91188 0)
(5.34023 2.29244 0)
(6.09105 -2.02255 0)
(5.36451 2.66002 0)
(6.2253 -2.10312 0)
(5.53079 3.07613 0)
(6.42189 -2.11977 0)
(5.88889 3.53854 0)
(6.69086 -1.99451 0)
(6.45788 4.06847 0)
(7.07821 -1.54541 0)
(7.18822 4.51818 0)
(7.67931 -0.571396 0)
(8.11779 4.50835 0)
(8.67998 1.05462 0)
(9.64907 3.92598 0)
(12.8103 -0.285206 0)
(12.8015 -0.328689 0)
(12.8163 -0.392656 0)
(12.7931 -0.470669 0)
(12.7313 -0.559867 0)
(12.6394 -0.652317 0)
(12.5348 -0.744933 0)
(12.4219 -0.836158 0)
(12.3013 -0.926447 0)
(12.1675 -1.01578 0)
(12.0181 -1.10726 0)
(11.8412 -1.19533 0)
(11.6332 -1.28227 0)
(11.3737 -1.36469 0)
(11.0545 -1.43257 0)
(10.6598 -1.47422 0)
(10.1834 -1.4801 0)
(9.62175 -1.44103 0)
(9.0014 -1.36184 0)
(8.36177 -1.25517 0)
(7.72408 -1.12937 0)
(7.12252 -1.00264 0)
(6.54666 -0.891031 0)
(6.01477 -0.770463 0)
(5.58132 -0.624418 0)
(5.15804 -0.49499 0)
(4.77475 -0.414157 0)
(4.50269 -0.351554 0)
(4.27121 -0.296567 0)
(4.10881 -0.21034 0)
(3.96179 -0.108527 0)
(3.86271 -0.00592217 0)
(3.77387 0.0816286 0)
(3.71163 0.144146 0)
(3.66579 0.189031 0)
(3.64824 0.214255 0)
(3.63528 0.228558 0)
(3.64674 0.22986 0)
(3.64254 0.227923 0)
(3.68455 0.256339 0)
(3.6374 0.227929 0)
(3.76319 0.292039 0)
(3.64812 0.171751 0)
(3.80832 0.338966 0)
(3.60315 0.199573 0)
(3.96019 0.407056 0)
(3.66735 0.0274496 0)
(4.16025 0.590133 0)
(3.72832 0.00964345 0)
(4.28324 0.72405 0)
(3.95384 0.0383187 0)
(4.43834 0.76967 0)
(4.19517 -0.0284535 0)
(4.65919 0.770463 0)
(4.32878 -0.137968 0)
(4.87172 0.781321 0)
(4.45584 -0.258342 0)
(5.06032 0.825727 0)
(4.65217 -0.264936 0)
(5.25108 0.998999 0)
(5.04337 -0.125231 0)
(5.44883 1.23853 0)
(5.44981 -0.0655885 0)
(5.64348 1.31985 0)
(5.7175 -0.104619 0)
(5.82389 1.24676 0)
(5.89201 -0.308207 0)
(5.93625 1.07154 0)
(5.98187 -0.597061 0)
(5.99169 0.931848 0)
(6.00121 -0.84635 0)
(5.99745 0.89208 0)
(5.99266 -1.04717 0)
(5.96095 0.9331 0)
(5.97257 -1.21675 0)
(5.88892 1.04739 0)
(5.95012 -1.36571 0)