/*--------------------------------*- C++ -*----------------------------------*\
| =========                 |                                                 |
| \\      /  F ield         | OpenFOAM: The Open Source CFD Toolbox           |
|  \\    /   O peration     | Version:  2.4.0                                 |
|   \\  /    A nd           | Web:      www.OpenFOAM.org                      |
|    \\/     M anipulation  |                                                 |
\*---------------------------------------------------------------------------*/
FoamFile
{
    version     2.0;
    format      ascii;
    class       surfaceScalarField;
    location    "0.115";
    object      phi;
}
// * * * * * * * * * * * * * * * * * * * * * * * * * * * * * * * * * * * * * //

dimensions      [0 3 -1 0 0 0 0];

internalField   nonuniform List<scalar> 
34880
(
5.48843e-06
7.01157e-06
3.12482e-06
2.36361e-06
2.4728e-06
6.52024e-07
2.2177e-06
2.551e-07
2.07225e-06
1.45446e-07
1.97423e-06
9.80183e-08
1.88281e-06
9.14267e-08
1.81648e-06
6.63226e-08
1.7889e-06
2.75818e-08
1.72135e-06
6.75501e-08
1.71608e-06
5.27126e-09
1.68337e-06
3.27149e-08
1.6611e-06
2.22688e-08
1.62582e-06
3.52732e-08
1.65222e-06
-2.63928e-08
1.62021e-06
3.20089e-08
1.6072e-06
1.30061e-08
1.64655e-06
-3.93446e-08
1.67329e-06
-2.6738e-08
-3.64856e-07
2.03814e-06
1.01102e-05
9.40134e-06
7.83221e-06
4.64163e-06
6.70998e-06
1.77426e-06
6.0612e-06
9.03879e-07
5.64351e-06
5.63136e-07
5.3557e-06
3.85831e-07
5.11701e-06
3.30112e-07
4.94503e-06
2.38301e-07
4.82241e-06
1.50208e-07
4.68539e-06
2.04568e-07
4.62788e-06
6.27785e-08
4.54208e-06
1.18516e-07
4.47866e-06
8.56888e-08
4.40803e-06
1.05901e-07
4.42822e-06
-4.65803e-08
4.32943e-06
1.30798e-07
4.35826e-06
-1.58237e-08
4.36712e-06
-4.81979e-08
4.42966e-06
-8.92803e-08
-3.99663e-07
4.46446e-06
1.24221e-05
9.47921e-06
1.10089e-05
6.05485e-06
9.98028e-06
2.80288e-06
9.19847e-06
1.68569e-06
8.61907e-06
1.14253e-06
8.19493e-06
8.0998e-07
7.85064e-06
6.74399e-07
7.59926e-06
4.89684e-07
7.39449e-06
3.54976e-07
7.21211e-06
3.86951e-07
7.09798e-06
1.76909e-07
6.97512e-06
2.4137e-07
6.87484e-06
1.85975e-07
6.77489e-06
2.05848e-07
6.78385e-06
-5.55422e-08
6.62617e-06
2.88487e-07
6.69461e-06
-8.42693e-08
6.65645e-06
-1.00318e-08
6.72049e-06
-1.53322e-07
-3.73719e-07
6.69454e-06
1.34055e-05
8.57366e-06
1.28951e-05
6.56526e-06
1.23278e-05
3.37027e-06
1.17094e-05
2.30403e-06
1.11373e-05
1.71469e-06
1.06626e-05
1.28461e-06
1.02639e-05
1.07309e-06
9.96939e-06
7.84232e-07
9.70525e-06
6.19119e-07
9.49268e-06
5.9952e-07
9.33751e-06
3.3208e-07
9.18301e-06
3.95868e-07
9.05691e-06
3.12072e-07
8.92809e-06
3.34671e-07
8.93436e-06
-6.18175e-08
8.72261e-06
5.00239e-07
8.80691e-06
-1.68569e-07
8.766e-06
3.08812e-08
8.74466e-06
-1.31981e-07
-3.85479e-07
8.75642e-06
1.35794e-05
7.49429e-06
1.36664e-05
6.47826e-06
1.36315e-05
3.40515e-06
1.33889e-05
2.54663e-06
1.30255e-05
2.07806e-06
1.26301e-05
1.67998e-06
1.22574e-05
1.44588e-06
1.19807e-05
1.06087e-06
1.16979e-05
9.01971e-07
1.14775e-05
8.19836e-07
1.13106e-05
4.98995e-07
1.1137e-05
5.69522e-07
1.09997e-05
4.49377e-07
1.08496e-05
4.84778e-07
1.08613e-05
-7.35884e-08
1.06181e-05
7.43446e-07
1.0682e-05
-2.32462e-07
1.06663e-05
4.66348e-08
1.06019e-05
-6.75817e-08
-3.1148e-07
1.05279e-05
1.34617e-05
6.53256e-06
1.37527e-05
6.18728e-06
1.40192e-05
3.13869e-06
1.41239e-05
2.4419e-06
1.40923e-05
2.10964e-06
1.39099e-05
1.86236e-06
1.36681e-05
1.68768e-06
1.34961e-05
1.23286e-06
1.32648e-05
1.13325e-06
1.30716e-05
1.01304e-06
1.29359e-05
6.34711e-07
1.27684e-05
7.37061e-07
1.26415e-05
5.76213e-07
1.24849e-05
6.41453e-07
1.25104e-05
-9.91288e-08
1.22733e-05
9.80573e-07
1.2295e-05
-2.54204e-07
1.22887e-05
5.29142e-08
1.22316e-05
-1.03845e-08
-1.4645e-07
1.20665e-05
1.3333e-05
5.69952e-06
1.36678e-05
5.85254e-06
1.3977e-05
2.82943e-06
1.41949e-05
2.22403e-06
1.43966e-05
1.90801e-06
1.44317e-05
1.82721e-06
1.43617e-05
1.75764e-06
1.43563e-05
1.23835e-06
1.42658e-05
1.22375e-06
1.41477e-05
1.13109e-06
1.40978e-05
6.84656e-07
1.3982e-05
8.52809e-07
1.38994e-05
6.58845e-07
1.37568e-05
7.84046e-07
1.38099e-05
-1.52226e-07
1.36211e-05
1.16932e-06
1.36079e-05
-2.40999e-07
1.35834e-05
7.74886e-08
1.35757e-05
-2.69415e-09
1.70124e-07
1.32591e-05
1.32458e-05
4.95372e-06
1.36229e-05
5.47545e-06
1.38662e-05
2.58609e-06
1.40706e-05
2.01961e-06
1.43231e-05
1.65554e-06
1.44828e-05
1.66754e-06
1.44964e-05
1.74407e-06
1.45852e-05
1.14955e-06
1.46625e-05
1.14637e-06
1.46248e-05
1.1688e-06
1.46791e-05
6.30401e-07
1.4667e-05
8.6488e-07
1.46718e-05
6.54058e-07
1.45664e-05
8.89474e-07
1.46657e-05
-2.51529e-07
1.45744e-05
1.26058e-06
1.45471e-05
-2.13685e-07
1.45193e-05
1.05287e-07
1.45533e-05
-3.67118e-08
6.49991e-07
1.40735e-05
1.32123e-05
4.24143e-06
1.35311e-05
5.15668e-06
1.37658e-05
2.35135e-06
1.39676e-05
1.81782e-06
1.41663e-05
1.45687e-06
1.43983e-05
1.43555e-06
1.44446e-05
1.69771e-06
1.45116e-05
1.08255e-06
1.4704e-05
9.53929e-07
1.46918e-05
1.18107e-06
1.47805e-05
5.41701e-07
1.48572e-05
7.88188e-07
1.49467e-05
5.64506e-07
1.48875e-05
9.48664e-07
1.5014e-05
-3.77958e-07
1.50578e-05
1.21674e-06
1.50315e-05
-1.87414e-07
1.50691e-05
6.77233e-08
1.51446e-05
-1.12235e-07
-4.24481e-08
1.58371e-05
1.32017e-05
3.53971e-06
1.34943e-05
4.86414e-06
1.36916e-05
2.154e-06
1.38828e-05
1.62662e-06
1.40349e-05
1.30476e-06
1.42959e-05
1.17461e-06
1.43654e-05
1.62814e-06
1.44048e-05
1.04323e-06
1.4659e-05
6.99731e-07
1.46505e-05
1.18951e-06
1.47247e-05
4.67554e-07
1.48314e-05
6.81446e-07
1.49386e-05
4.57285e-07
1.49213e-05
9.65957e-07
1.50246e-05
-4.81246e-07
1.51666e-05
1.07472e-06
1.51486e-05
-1.69334e-07
1.52729e-05
-5.65785e-08
1.53345e-05
-1.73868e-07
-6.15911e-07
1.5908e-05
1.31005e-05
2.93918e-06
1.34766e-05
4.48809e-06
1.36661e-05
1.96447e-06
1.37906e-05
1.50214e-06
1.39859e-05
1.1094e-06
1.42292e-05
9.31337e-07
1.42822e-05
1.57517e-06
1.43548e-05
9.70568e-07
1.45821e-05
4.725e-07
1.45945e-05
1.17706e-06
1.46904e-05
3.71638e-07
1.47894e-05
5.82541e-07
1.48491e-05
3.97489e-07
1.48903e-05
9.24758e-07
1.49497e-05
-5.40631e-07
1.51451e-05
8.79348e-07
1.51231e-05
-1.4735e-07
1.52595e-05
-1.92909e-07
1.54671e-05
-3.81507e-07
-1.1125e-06
1.59637e-05
1.29381e-05
2.50108e-06
1.34505e-05
3.9757e-06
1.36696e-05
1.74532e-06
1.37323e-05
1.43952e-06
1.39999e-05
8.41818e-07
1.41885e-05
7.42648e-07
1.42146e-05
1.54912e-06
1.43389e-05
8.46258e-07
1.4455e-05
3.56403e-07
1.45171e-05
1.11498e-06
1.46643e-05
2.24405e-07
1.47282e-05
5.18662e-07
1.47577e-05
3.6799e-07
1.48536e-05
8.28875e-07
1.48696e-05
-5.56633e-07
1.50772e-05
6.71743e-07
1.50712e-05
-1.41388e-07
1.52138e-05
-3.35452e-07
1.5467e-05
-6.34794e-07
-1.51319e-06
1.58677e-05
1.28622e-05
2.13887e-06
1.34599e-05
3.37799e-06
1.36496e-05
1.5556e-06
1.3742e-05
1.3472e-06
1.40023e-05
5.81478e-07
1.40941e-05
6.50794e-07
1.41763e-05
1.46698e-06
1.42966e-05
7.25942e-07
1.43164e-05
3.36565e-07
1.44628e-05
9.68661e-07
1.46115e-05
7.5668e-08
1.4634e-05
4.96176e-07
1.46982e-05
3.03803e-07
1.48279e-05
6.9917e-07
1.47788e-05
-5.07531e-07
1.49757e-05
4.74871e-07
1.50332e-05
-1.98896e-07
1.51852e-05
-4.87534e-07
1.53839e-05
-8.33423e-07
-1.70786e-06
1.55785e-05
1.28822e-05
1.75666e-06
1.3439e-05
2.82117e-06
1.36064e-05
1.3882e-06
1.37787e-05
1.17492e-06
1.39124e-05
4.47802e-07
1.39733e-05
5.89824e-07
1.41603e-05
1.28003e-06
1.4223e-05
6.63233e-07
1.42506e-05
3.09004e-07
1.44588e-05
7.60392e-07
1.45262e-05
8.35378e-09
1.45542e-05
4.6812e-07
1.46677e-05
1.90286e-07
1.47908e-05
5.76113e-07
1.47027e-05
-4.19492e-07
1.49147e-05
2.62917e-07
1.50075e-05
-2.91653e-07
1.51301e-05
-6.10174e-07
1.52663e-05
-9.69634e-07
-1.97125e-06
1.55297e-05
1.2885e-05
1.3717e-06
1.333e-05
2.37618e-06
1.35797e-05
1.13845e-06
1.37605e-05
9.94152e-07
1.37829e-05
4.25332e-07
1.39387e-05
4.34096e-07
1.41391e-05
1.07963e-06
1.41834e-05
6.18936e-07
1.42655e-05
2.26883e-07
1.44475e-05
5.78374e-07
1.4448e-05
7.87768e-09
1.45287e-05
3.87445e-07
1.465e-05
6.89383e-08
1.47389e-05
4.87245e-07
1.46804e-05
-3.61041e-07
1.49023e-05
4.10831e-08
1.49787e-05
-3.68099e-07
1.50666e-05
-6.98105e-07
1.52143e-05
-1.11727e-06
-2.34457e-06
1.55876e-05
1.2829e-05
1.04266e-06
1.32343e-05
1.97094e-06
1.3576e-05
7.96692e-07
1.36829e-05
8.87253e-07
1.37362e-05
3.72029e-07
1.39789e-05
1.91462e-07
1.40925e-05
9.66043e-07
1.41845e-05
5.26884e-07
1.42899e-05
1.21506e-07
1.43954e-05
4.7291e-07
1.44126e-05
-9.39553e-09
1.45442e-05
2.55903e-07
1.46149e-05
-1.7634e-09
1.46935e-05
4.08606e-07
1.46946e-05
-3.62141e-07
1.48779e-05
-1.42202e-07
1.49366e-05
-4.26844e-07
1.5042e-05
-8.03501e-07
1.52134e-05
-1.28861e-06
-2.57732e-06
1.54461e-05
1.27742e-05
7.68453e-07
1.32339e-05
1.51121e-06
1.35427e-05
4.87929e-07
1.36406e-05
7.89352e-07
1.37779e-05
2.34726e-07
1.396e-05
9.40751e-09
1.40236e-05
9.02364e-07
1.41938e-05
3.56769e-07
1.42782e-05
3.70808e-08
1.43345e-05
4.16567e-07
1.44226e-05
-9.74772e-08
1.4533e-05
1.45477e-07
1.45481e-05
-1.68525e-08
1.46699e-05
2.86852e-07
1.47017e-05
-3.93932e-07
1.48309e-05
-2.71397e-07
1.48985e-05
-4.94485e-07
1.50324e-05
-9.37394e-07
1.51878e-05
-1.44398e-06
-2.37508e-06
1.49855e-05
1.27713e-05
4.97146e-07
1.32614e-05
1.02107e-06
1.3492e-05
2.57351e-07
1.36614e-05
6.19952e-07
1.37932e-05
1.02917e-07
1.38624e-05
-5.97892e-08
1.39924e-05
7.72419e-07
1.42128e-05
1.36319e-07
1.42299e-05
2.00158e-08
1.43055e-05
3.40936e-07
1.44291e-05
-2.21017e-07
1.44738e-05
1.00756e-07
1.45017e-05
-4.48083e-08
1.46701e-05
1.18541e-07
1.46842e-05
-4.08076e-07
1.47891e-05
-3.76302e-07
1.48729e-05
-5.78275e-07
1.50064e-05
-1.07094e-06
1.51423e-05
-1.57982e-06
-2.48796e-06
1.52552e-05
1.27929e-05
2.04205e-07
1.32274e-05
5.86575e-07
1.34628e-05
2.19894e-08
1.36852e-05
3.97525e-07
1.37436e-05
4.45632e-08
1.38163e-05
-1.32482e-07
1.40211e-05
5.6756e-07
1.42028e-05
-4.53292e-08
1.41862e-05
3.65849e-08
1.43075e-05
2.19649e-07
1.44121e-05
-3.2563e-07
1.44325e-05
8.03639e-08
1.45101e-05
-1.22398e-07
1.46618e-05
-3.31702e-08
1.46618e-05
-4.08027e-07
1.47659e-05
-4.80448e-07
1.48578e-05
-6.70195e-07
1.49786e-05
-1.19168e-06
1.51208e-05
-1.7221e-06
-2.70507e-06
1.5338e-05
1.2782e-05
-7.77954e-08
1.31672e-05
2.014e-07
1.34739e-05
-2.84733e-07
1.36931e-05
1.78324e-07
1.37041e-05
3.35792e-08
1.38449e-05
-2.73281e-07
1.40409e-05
3.71572e-07
1.41522e-05
-1.56697e-07
1.41821e-05
6.74031e-09
1.43257e-05
7.5981e-08
1.43987e-05
-3.9862e-07
1.44371e-05
4.19557e-08
1.45166e-05
-2.01834e-07
1.46487e-05
-1.6531e-07
1.46484e-05
-4.07697e-07
1.47594e-05
-5.91445e-07
1.48614e-05
-7.72192e-07
1.49554e-05
-1.28571e-06
1.51316e-05
-1.89831e-06
-3.06746e-06
1.5494e-05
1.27446e-05
-3.22366e-07
1.31692e-05
-2.23194e-07
1.35189e-05
-6.34463e-07
1.36882e-05
9.00791e-09
1.37028e-05
1.90276e-08
1.38682e-05
-4.38743e-07
1.40203e-05
2.19457e-07
1.41207e-05
-2.57092e-07
1.42135e-05
-8.60605e-08
1.43447e-05
-5.51878e-08
1.44007e-05
-4.54577e-07
1.44314e-05
1.12421e-08
1.45189e-05
-2.89384e-07
1.46444e-05
-2.90815e-07
1.4653e-05
-4.16262e-07
1.47535e-05
-6.91975e-07
1.48779e-05
-8.96566e-07
1.49265e-05
-1.33428e-06
1.51429e-05
-2.11472e-06
-3.473e-06
1.55484e-05
1.27369e-05
-5.59272e-07
1.32262e-05
-7.12528e-07
1.35501e-05
-9.58285e-07
1.36556e-05
-9.65322e-08
1.37085e-05
-3.39179e-08
1.38771e-05
-6.07289e-07
1.39996e-05
9.69419e-08
1.41356e-05
-3.93043e-07
1.42571e-05
-2.07608e-07
1.43464e-05
-1.44451e-07
1.43997e-05
-5.0787e-07
1.44268e-05
-1.58973e-08
1.45365e-05
-3.99038e-07
1.46396e-05
-3.93939e-07
1.4665e-05
-4.41646e-07
1.47464e-05
-7.73412e-07
1.48781e-05
-1.02822e-06
1.49354e-05
-1.39165e-06
1.50219e-05
-2.2012e-06
-2.24974e-06
1.37986e-05
1.27708e-05
-8.30038e-07
1.32704e-05
-1.21212e-06
1.35291e-05
-1.21701e-06
1.36183e-05
-1.85792e-07
1.37297e-05
-1.45286e-07
1.3891e-05
-7.68547e-07
1.40089e-05
-2.10385e-08
1.41737e-05
-5.57827e-07
1.42752e-05
-3.09124e-07
1.43404e-05
-2.09637e-07
1.4389e-05
-5.56475e-07
1.44592e-05
-8.60425e-08
1.45373e-05
-4.77161e-07
1.46527e-05
-5.09364e-07
1.46665e-05
-4.55425e-07
1.47684e-05
-8.75346e-07
1.48708e-05
-1.13062e-06
1.4964e-05
-1.48478e-06
1.51007e-05
-2.33795e-06
-2.47574e-06
1.53267e-05
1.28107e-05
-1.14074e-06
1.32762e-05
-1.67763e-06
1.34943e-05
-1.43514e-06
1.36239e-05
-3.15382e-07
1.37797e-05
-3.01011e-07
1.39092e-05
-8.98119e-07
1.40361e-05
-1.4795e-07
1.41957e-05
-7.17351e-07
1.42779e-05
-3.9138e-07
1.43365e-05
-2.68215e-07
1.44093e-05
-6.29288e-07
1.44859e-05
-1.62617e-07
1.45504e-05
-5.41684e-07
1.4673e-05
-6.3197e-07
1.46832e-05
-4.65556e-07
1.47913e-05
-9.83522e-07
1.48861e-05
-1.2254e-06
1.49858e-05
-1.5845e-06
1.50472e-05
-2.39935e-06
-2.80264e-06
1.53741e-05
1.28331e-05
-1.47389e-06
1.32673e-05
-2.11178e-06
1.3511e-05
-1.67885e-06
1.36795e-05
-4.83844e-07
1.38247e-05
-4.4629e-07
1.39256e-05
-9.98999e-07
1.40575e-05
-2.79817e-07
1.42085e-05
-8.68329e-07
1.42863e-05
-4.6923e-07
1.43584e-05
-3.4029e-07
1.44457e-05
-7.16597e-07
1.45153e-05
-2.32185e-07
1.45798e-05
-6.06205e-07
1.4696e-05
-7.48208e-07
1.47128e-05
-4.82314e-07
1.48154e-05
-1.08618e-06
1.49025e-05
-1.31246e-06
1.49815e-05
-1.6635e-06
1.50539e-05
-2.47172e-06
-3.1961e-06
1.54473e-05
1.28491e-05
-1.82304e-06
1.32973e-05
-2.55994e-06
1.35699e-05
-1.95147e-06
1.37158e-05
-6.29669e-07
1.38395e-05
-5.70034e-07
1.39414e-05
-1.10086e-06
1.40862e-05
-4.24612e-07
1.4238e-05
-1.02018e-06
1.43177e-05
-5.48891e-07
1.4401e-05
-4.23622e-07
1.44794e-05
-7.94959e-07
1.4558e-05
-3.10802e-07
1.46097e-05
-6.57944e-07
1.47221e-05
-8.60622e-07
1.47423e-05
-5.02468e-07
1.48424e-05
-1.1863e-06
1.49114e-05
-1.38146e-06
1.50003e-05
-1.75242e-06
1.51286e-05
-2.6e-06
-3.45974e-06
1.53922e-05
1.28854e-05
-2.20846e-06
1.33561e-05
-3.03066e-06
1.36022e-05
-2.19752e-06
1.37153e-05
-7.42731e-07
1.38593e-05
-7.14038e-07
1.39841e-05
-1.22571e-06
1.41425e-05
-5.83012e-07
1.42804e-05
-1.15804e-06
1.43551e-05
-6.23616e-07
1.44398e-05
-5.08327e-07
1.45204e-05
-8.75586e-07
1.46e-05
-3.90365e-07
1.46445e-05
-7.02447e-07
1.47549e-05
-9.71067e-07
1.47811e-05
-5.28583e-07
1.48711e-05
-1.27637e-06
1.49326e-05
-1.44288e-06
1.50601e-05
-1.87994e-06
1.51947e-05
-2.73461e-06
-3.57296e-06
1.53079e-05
1.29341e-05
-2.6426e-06
1.34037e-05
-3.50019e-06
1.35757e-05
-2.3695e-06
1.37349e-05
-9.01932e-07
1.39195e-05
-8.98651e-07
1.40523e-05
-1.35858e-06
1.42032e-05
-7.33922e-07
1.43151e-05
-1.26991e-06
1.43887e-05
-6.9725e-07
1.44829e-05
-6.02499e-07
1.45741e-05
-9.66806e-07
1.46453e-05
-4.61527e-07
1.4692e-05
-7.49195e-07
1.47995e-05
-1.0785e-06
1.4824e-05
-5.53136e-07
1.49066e-05
-1.35896e-06
1.49746e-05
-1.51084e-06
1.51212e-05
-2.02653e-06
1.52021e-05
-2.81555e-06
-3.72656e-06
1.53557e-05
1.29841e-05
-3.12667e-06
1.34483e-05
-3.96437e-06
1.35868e-05
-2.50803e-06
1.37871e-05
-1.10225e-06
1.3993e-05
-1.10456e-06
1.41088e-05
-1.47435e-06
1.42545e-05
-8.7969e-07
1.43508e-05
-1.36618e-06
1.4435e-05
-7.81436e-07
1.45454e-05
-7.12909e-07
1.46375e-05
-1.05888e-06
1.46921e-05
-5.1609e-07
1.47551e-05
-8.12267e-07
1.48424e-05
-1.16576e-06
1.48656e-05
-5.76396e-07
1.49502e-05
-1.44349e-06
1.50242e-05
-1.58488e-06
1.5151e-05
-2.15327e-06
1.51973e-05
-2.8619e-06
-3.98337e-06
1.54541e-05
1.30387e-05
-3.66535e-06
1.35017e-05
-4.42742e-06
1.36297e-05
-2.63603e-06
1.38433e-05
-1.3158e-06
1.4054e-05
-1.31528e-06
1.41643e-05
-1.58472e-06
1.43184e-05
-1.03374e-06
1.44061e-05
-1.45389e-06
1.45062e-05
-8.81579e-07
1.4618e-05
-8.24681e-07
1.46961e-05
-1.13698e-06
1.47411e-05
-5.61029e-07
1.4822e-05
-8.93211e-07
1.48741e-05
-1.21787e-06
1.49221e-05
-6.24385e-07
1.50009e-05
-1.52224e-06
1.50684e-05
-1.65245e-06
1.51529e-05
-2.2378e-06
1.52035e-05
-2.91249e-06
-4.29653e-06
1.55167e-05
1.30944e-05
-4.25973e-06
1.35626e-05
-4.89562e-06
1.36835e-05
-2.7569e-06
1.3902e-05
-1.53438e-06
1.41241e-05
-1.53733e-06
1.4242e-05
-1.70263e-06
1.44027e-05
-1.19443e-06
1.44806e-05
-1.53178e-06
1.45852e-05
-9.86241e-07
1.46883e-05
-9.27692e-07
1.4744e-05
-1.19271e-06
1.47955e-05
-6.12562e-07
1.48824e-05
-9.80108e-07
1.49088e-05
-1.24423e-06
1.49835e-05
-6.99077e-07
1.50253e-05
-1.56403e-06
1.5064e-05
-1.6912e-06
1.50767e-05
-2.2505e-06
1.50724e-05
-2.90815e-06
-4.50502e-06
1.52809e-05
1.31577e-05
-4.91742e-06
1.36368e-05
-5.37468e-06
1.3748e-05
-2.86814e-06
1.39788e-05
-1.76519e-06
1.42202e-05
-1.77878e-06
1.434e-05
-1.82235e-06
1.4498e-05
-1.35245e-06
1.45578e-05
-1.59158e-06
1.46559e-05
-1.0843e-06
1.47422e-05
-1.01408e-06
1.47641e-05
-1.21457e-06
1.48278e-05
-6.76214e-07
1.48814e-05
-1.03377e-06
1.48652e-05
-1.22798e-06
1.49192e-05
-7.53145e-07
1.48797e-05
-1.52446e-06
1.48384e-05
-1.64997e-06
1.47336e-05
-2.14572e-06
1.45797e-05
-2.75423e-06
-4.51952e-06
1.45942e-05
1.32423e-05
-5.65974e-06
1.3705e-05
-5.83737e-06
1.38237e-05
-2.98682e-06
1.40913e-05
-2.03284e-06
1.43374e-05
-2.02487e-06
1.44355e-05
-1.92045e-06
1.45652e-05
-1.48214e-06
1.45797e-05
-1.6061e-06
1.46366e-05
-1.1412e-06
1.46636e-05
-1.04106e-06
1.46151e-05
-1.16601e-06
1.46368e-05
-6.97924e-07
1.45952e-05
-9.92208e-07
1.44975e-05
-1.13029e-06
1.44799e-05
-7.35529e-07
1.43339e-05
-1.37847e-06
1.41904e-05
-1.50645e-06
1.39668e-05
-1.92217e-06
1.36548e-05
-2.44222e-06
-3.54037e-06
1.26757e-05
1.3347e-05
-6.50674e-06
1.37096e-05
-6.20001e-06
1.39326e-05
-3.20979e-06
1.42221e-05
-2.32232e-06
1.43914e-05
-2.19413e-06
1.44021e-05
-1.93116e-06
1.44208e-05
-1.50083e-06
1.43146e-05
-1.49996e-06
1.42547e-05
-1.0813e-06
1.41633e-05
-9.49615e-07
1.40099e-05
-1.01265e-06
1.39457e-05
-6.33686e-07
1.38038e-05
-8.5037e-07
1.36344e-05
-9.60859e-07
1.35462e-05
-6.47357e-07
1.33267e-05
-1.15891e-06
1.3108e-05
-1.28782e-06
1.28135e-05
-1.62767e-06
1.24421e-05
-2.07074e-06
-3.21914e-06
1.21208e-05
1.34752e-05
-7.48194e-06
1.3767e-05
-6.49178e-06
1.3991e-05
-3.43381e-06
1.41495e-05
-2.48086e-06
1.40821e-05
-2.12666e-06
1.38892e-05
-1.73826e-06
1.37078e-05
-1.31949e-06
1.34463e-05
-1.23842e-06
1.32582e-05
-8.93262e-07
1.30655e-05
-7.56859e-07
1.2845e-05
-7.92186e-07
1.27211e-05
-5.09797e-07
1.25275e-05
-6.56722e-07
1.23254e-05
-7.588e-07
1.21962e-05
-5.1814e-07
1.19427e-05
-9.05362e-07
1.16855e-05
-1.03061e-06
1.13548e-05
-1.29697e-06
1.09244e-05
-1.64035e-06
-2.41704e-06
1.01223e-05
1.35872e-05
-8.56913e-06
1.36686e-05
-6.57316e-06
1.36161e-05
-3.38137e-06
1.34068e-05
-2.27151e-06
1.30154e-05
-1.7353e-06
1.26147e-05
-1.33752e-06
1.22813e-05
-9.8611e-07
1.19357e-05
-8.92835e-07
1.16881e-05
-6.45597e-07
1.1458e-05
-5.26788e-07
1.12241e-05
-5.58296e-07
1.1078e-05
-3.63705e-07
1.08741e-05
-4.52813e-07
1.06688e-05
-5.53537e-07
1.05228e-05
-3.72084e-07
1.02638e-05
-6.4639e-07
9.9956e-06
-7.6241e-07
9.6497e-06
-9.51071e-07
9.21067e-06
-1.20132e-06
-1.73061e-06
8.52424e-06
1.34103e-05
-9.47945e-06
1.28937e-05
-6.05651e-06
1.23202e-05
-2.80795e-06
1.17204e-05
-1.67169e-06
1.11301e-05
-1.14502e-06
1.06493e-05
-8.56689e-07
1.02771e-05
-6.13956e-07
9.93386e-06
-5.4955e-07
9.68764e-06
-3.99379e-07
9.46985e-06
-3.08993e-07
9.25671e-06
-3.45156e-07
9.11536e-06
-2.22354e-07
8.93046e-06
-2.67912e-07
8.73987e-06
-3.62946e-07
8.59684e-06
-2.2906e-07
8.35668e-06
-4.06232e-07
8.09701e-06
-5.02733e-07
7.76469e-06
-6.1875e-07
7.34084e-06
-7.77472e-07
-1.13783e-06
6.74807e-06
1.2424e-05
-9.40348e-06
1.10065e-05
-4.63898e-06
9.97639e-06
-1.77784e-06
9.20428e-06
-8.9957e-07
8.61654e-06
-5.57285e-07
8.18117e-06
-4.21312e-07
7.85825e-06
-2.91038e-07
7.57382e-06
-2.65123e-07
7.36838e-06
-1.93937e-07
7.1958e-06
-1.3641e-07
7.0235e-06
-1.72859e-07
6.90667e-06
-1.05525e-07
6.76059e-06
-1.21828e-07
6.59576e-06
-1.98121e-07
6.47458e-06
-1.07875e-07
6.27288e-06
-2.04533e-07
6.04109e-06
-2.70944e-07
5.74835e-06
-3.26009e-07
5.373e-06
-4.02118e-07
-6.18578e-07
4.85374e-06
1.01095e-05
-7.01303e-06
7.83168e-06
-2.36111e-06
6.70777e-06
-6.53937e-07
6.06327e-06
-2.55064e-07
5.64561e-06
-1.39631e-07
5.34026e-06
-1.15963e-07
5.12334e-06
-7.41123e-08
4.92997e-06
-7.17581e-08
4.79055e-06
-5.45159e-08
4.6832e-06
-2.90533e-08
4.5628e-06
-5.24657e-08
4.48541e-06
-2.81342e-08
4.39133e-06
-2.77391e-08
4.26237e-06
-6.91635e-08
4.18153e-06
-2.70368e-08
4.03597e-06
-5.89754e-08
3.8556e-06
-9.05745e-08
3.633e-06
-1.03401e-07
3.35245e-06
-1.21572e-07
-2.18325e-07
2.9522e-06
5.48697e-06
3.12586e-06
2.47192e-06
2.21686e-06
2.07723e-06
1.96126e-06
1.88715e-06
1.81539e-06
1.76088e-06
1.73182e-06
1.67936e-06
1.65122e-06
1.62348e-06
1.55432e-06
1.52728e-06
1.46831e-06
1.37773e-06
1.27433e-06
1.15276e-06
9.34436e-07
1.72445e-06
-6.33354e-07
9.47043e-07
2.1086e-06
6.70489e-07
-1.05464e-06
3.25426e-06
7.22218e-07
-1.86788e-06
5.93311e-06
2.52546e-06
-5.20431e-06
8.638e-06
3.90363e-06
-6.60852e-06
1.02318e-05
7.08027e-06
-8.6741e-06
1.14883e-05
7.20277e-06
-8.45928e-06
1.24061e-05
3.76616e-06
-4.68393e-06
1.31343e-05
1.79062e-06
-2.51883e-06
1.36184e-05
5.14561e-07
-9.9866e-07
1.41573e-05
-2.72682e-06
2.18798e-06
1.43259e-05
-6.0216e-06
5.85298e-06
1.36553e-05
-7.28019e-06
7.95074e-06
1.31593e-05
-8.38118e-06
8.87721e-06
1.34927e-05
-1.12151e-05
1.08817e-05
1.40492e-05
-1.49149e-05
1.43584e-05
1.41642e-05
-1.78473e-05
1.77324e-05
1.36451e-05
-1.97337e-05
2.02528e-05
1.26612e-05
-1.96709e-05
2.06548e-05
1.15754e-05
-1.92842e-05
2.03699e-05
1.04282e-05
-1.76253e-05
1.87725e-05
9.47562e-06
-1.65503e-05
1.75029e-05
8.73454e-06
-1.44548e-05
1.51958e-05
8.027e-06
-1.29222e-05
1.36298e-05
7.50622e-06
-1.08979e-05
1.14187e-05
6.54385e-06
-9.76463e-06
1.0727e-05
6.44668e-06
-7.97021e-06
8.06737e-06
5.69135e-06
-4.17836e-06
4.93369e-06
4.35789e-06
-3.86208e-06
5.19554e-06
4.62457e-06
-1.05029e-06
7.83617e-07
5.44113e-06
7.65363e-06
-8.4702e-06
6.19064e-06
1.63574e-05
-1.71069e-05
7.14028e-06
1.99834e-05
-2.09331e-05
7.9439e-06
1.85013e-05
-1.93049e-05
8.35546e-06
1.63776e-05
-1.67892e-05
8.68743e-06
1.29929e-05
-1.33249e-05
8.83977e-06
1.0016e-05
-1.01683e-05
9.07148e-06
8.65319e-06
-8.8849e-06
9.57585e-06
6.05355e-06
-6.55792e-06
9.98433e-06
4.04263e-06
-4.45111e-06
1.09766e-05
1.8326e-06
-2.82489e-06
1.22588e-05
-2.83114e-06
1.54893e-06
1.34382e-05
-7.47886e-06
6.29949e-06
1.44618e-05
-1.14271e-05
1.04035e-05
1.52285e-05
-1.41958e-05
1.34291e-05
1.5771e-05
-1.58442e-05
1.53016e-05
1.60689e-05
-1.63031e-05
1.60053e-05
1.60476e-05
-1.61483e-05
1.61697e-05
1.55931e-05
-1.52505e-05
1.57049e-05
1.5358e-05
-1.47307e-05
1.49658e-05
1.50898e-05
-1.56219e-05
1.58901e-05
1.42915e-05
-1.58982e-05
1.66965e-05
1.35293e-05
-1.62446e-05
1.70067e-05
1.31435e-05
-1.74985e-05
1.78843e-05
1.30656e-05
-1.95414e-05
1.96194e-05
1.29648e-05
-2.16775e-05
2.17783e-05
1.23877e-05
-2.2754e-05
2.33312e-05
1.10275e-05
-2.16972e-05
2.30574e-05
9.48899e-06
-1.94415e-05
2.098e-05
8.34735e-06
-1.77358e-05
1.88775e-05
7.53007e-06
-1.65235e-05
1.73408e-05
6.99124e-06
-1.63759e-05
1.69147e-05
6.38262e-06
-1.54995e-05
1.61081e-05
5.84155e-06
-1.47565e-05
1.52976e-05
5.6696e-06
-1.47892e-05
1.49611e-05
5.72125e-06
-1.46469e-05
1.45952e-05
5.96814e-06
-1.45257e-05
1.42788e-05
6.36241e-06
-1.43364e-05
1.39421e-05
6.86465e-06
-1.39025e-05
1.34003e-05
7.4869e-06
-1.28778e-05
1.22555e-05
8.14551e-06
-1.13263e-05
1.06677e-05
8.8314e-06
-9.28458e-06
8.59869e-06
9.51624e-06
-6.35902e-06
5.67417e-06
1.007e-05
-3.5272e-06
2.97349e-06
1.0443e-05
-5.13557e-07
1.40498e-07
1.0778e-05
2.87073e-06
-3.20568e-06
1.11027e-05
5.52546e-06
-5.85016e-06
1.14452e-05
7.78791e-06
-8.13043e-06
1.18511e-05
1.0072e-05
-1.04778e-05
1.21662e-05
1.20704e-05
-1.23856e-05
1.22432e-05
1.35947e-05
-1.36716e-05
1.21738e-05
1.44455e-05
-1.43762e-05
1.20719e-05
1.5046e-05
-1.49442e-05
1.19036e-05
1.60715e-05
-1.59032e-05
1.16432e-05
1.72956e-05
-1.70351e-05
1.1319e-05
1.82924e-05
-1.79683e-05
1.09765e-05
1.87666e-05
-1.84241e-05
1.06682e-05
1.83772e-05
-1.80689e-05
1.04426e-05
1.76974e-05
-1.74718e-05
1.03004e-05
1.68546e-05
-1.67124e-05
1.022e-05
1.5891e-05
-1.58106e-05
1.01317e-05
1.52397e-05
-1.51513e-05
9.97939e-06
1.4306e-05
-1.41536e-05
9.83465e-06
1.31289e-05
-1.29841e-05
9.6957e-06
1.25271e-05
-1.23882e-05
9.5776e-06
1.23593e-05
-1.22412e-05
9.51087e-06
1.22581e-05
-1.21914e-05
9.456e-06
1.30106e-05
-1.29558e-05
9.40864e-06
1.43161e-05
-1.42687e-05
9.10115e-06
1.49496e-05
-1.46421e-05
8.62033e-06
1.37846e-05
-1.33037e-05
7.92411e-06
1.16955e-05
-1.09993e-05
7.55931e-06
9.99992e-06
-9.63512e-06
7.65503e-06
1.13268e-05
-1.14225e-05
7.58473e-06
1.19937e-05
-1.19234e-05
7.58847e-06
1.38046e-05
-1.38084e-05
7.24328e-06
1.59936e-05
-1.56484e-05
6.81837e-06
1.80072e-05
-1.75823e-05
6.75952e-06
1.81908e-05
-1.8132e-05
7.03535e-06
1.83163e-05
-1.85922e-05
7.15113e-06
1.61746e-05
-1.62904e-05
7.46827e-06
1.51134e-05
-1.54306e-05
7.82402e-06
1.31994e-05
-1.35552e-05
8.23532e-06
1.15158e-05
-1.19271e-05
8.78867e-06
8.21206e-06
-8.76541e-06
9.39402e-06
4.84687e-06
-5.45221e-06
9.86557e-06
1.51054e-06
-1.98208e-06
1.01264e-05
-1.40189e-06
1.14102e-06
1.03155e-05
-5.71436e-06
5.52531e-06
1.04203e-05
-1.00588e-05
9.95405e-06
1.04139e-05
-1.34743e-05
1.34807e-05
1.04421e-05
-1.44634e-05
1.44352e-05
1.00468e-05
-1.51722e-05
1.55675e-05
9.89453e-06
-1.47613e-05
1.49136e-05
9.73633e-06
-1.50097e-05
1.51679e-05
9.64266e-06
-1.15597e-05
1.16534e-05
9.32064e-06
-1.1192e-05
1.1514e-05
9.07287e-06
-9.06894e-06
9.31671e-06
8.98595e-06
-1.00273e-05
1.01142e-05
9.19115e-06
-7.29762e-06
7.09241e-06
9.09349e-06
-7.67451e-06
7.77216e-06
8.7536e-06
-5.25818e-06
5.59807e-06
8.73698e-06
-7.62197e-06
7.63859e-06
8.64482e-06
-5.20533e-06
5.2975e-06
8.70296e-06
-7.15018e-06
7.09203e-06
8.62274e-06
-5.03041e-06
5.11063e-06
8.72799e-06
-7.65979e-06
7.55454e-06
8.58763e-06
-5.38825e-06
5.52862e-06
8.63569e-06
-7.36592e-06
7.31786e-06
8.45333e-06
-5.57894e-06
5.7613e-06
8.42185e-06
-8.69405e-06
8.72553e-06
8.47413e-06
-8.37354e-06
8.32125e-06
8.74785e-06
-1.24575e-05
1.21837e-05
8.71699e-06
-1.17509e-05
1.17818e-05
9.01588e-06
-1.4251e-05
1.39521e-05
8.76292e-06
-1.4585e-05
1.4838e-05
9.0609e-06
-1.80716e-05
1.77737e-05
9.53197e-06
-1.8772e-05
1.83009e-05
1.0104e-05
-1.93927e-05
1.88206e-05
1.05292e-05
-2.03273e-05
1.99021e-05
1.09635e-05
-1.91389e-05
1.87046e-05
1.13016e-05
-1.44054e-05
1.40673e-05
1.14313e-05
-9.06583e-06
8.93615e-06
1.14983e-05
-4.50113e-06
4.4341e-06
1.16433e-05
1.05645e-06
-1.20149e-06
1.17119e-05
7.66411e-06
-7.73263e-06
1.16365e-05
1.35287e-05
-1.34534e-05
1.14133e-05
1.82169e-05
-1.79937e-05
1.11029e-05
2.21873e-05
-2.18769e-05
1.06233e-05
2.51672e-05
-2.46876e-05
1.00236e-05
2.60576e-05
-2.54579e-05
9.39866e-06
2.52762e-05
-2.46513e-05
8.78082e-06
2.45796e-05
-2.39618e-05
8.37571e-06
2.52451e-05
-2.484e-05
8.14162e-06
2.68309e-05
-2.65968e-05
7.76763e-06
2.78731e-05
-2.74991e-05
7.31958e-06
2.74918e-05
-2.70438e-05
7.09807e-06
2.59483e-05
-2.57268e-05
7.00851e-06
2.42438e-05
-2.41542e-05
6.6284e-06
2.26495e-05
-2.22694e-05
6.5814e-06
1.88215e-05
-1.87745e-05
6.32643e-06
1.55756e-05
-1.53206e-05
6.60437e-06
9.32912e-06
-9.60705e-06
6.45154e-06
6.75465e-06
-6.60181e-06
6.90444e-06
-6.74215e-07
2.21307e-07
6.71425e-06
-3.30729e-06
3.49749e-06
7.08077e-06
-9.89978e-06
9.53326e-06
6.87593e-06
-1.06666e-05
1.08714e-05
7.18093e-06
-1.37038e-05
1.33988e-05
6.98634e-06
-1.30384e-05
1.3233e-05
7.19654e-06
-1.39902e-05
1.378e-05
7.18667e-06
-1.27542e-05
1.2764e-05
7.33283e-06
-1.22737e-05
1.21276e-05
7.30604e-06
-1.08446e-05
1.08714e-05
7.42788e-06
-9.57337e-06
9.45153e-06
7.55667e-06
-7.4123e-06
7.28351e-06
7.64714e-06
-5.21179e-06
5.12132e-06
7.79157e-06
-2.81893e-06
2.67451e-06
7.77553e-06
-6.78759e-07
6.94791e-07
7.88951e-06
1.37403e-06
-1.488e-06
7.77629e-06
3.24598e-06
-3.13276e-06
7.75098e-06
4.90786e-06
-4.88255e-06
7.68423e-06
6.64218e-06
-6.57544e-06
7.65991e-06
8.07377e-06
-8.04945e-06
7.62075e-06
9.98336e-06
-9.9442e-06
7.20494e-06
1.18361e-05
-1.14203e-05
7.22138e-06
1.35374e-05
-1.35538e-05
6.43027e-06
1.75474e-05
-1.67563e-05
6.33668e-06
1.97949e-05
-1.97013e-05
2.99895e-05
-2.95011e-05
5.84833e-06
4.29981e-06
-4.68698e-07
4.43055e-06
5.39745e-07
4.45299e-06
6.99782e-07
5.96365e-06
1.0148e-06
8.05541e-06
1.81186e-06
9.7893e-06
5.34638e-06
1.12144e-05
5.7777e-06
1.22109e-05
2.76962e-06
1.29362e-05
1.06534e-06
1.36251e-05
-1.74357e-07
1.42127e-05
-3.31437e-06
1.40585e-05
-5.86746e-06
1.35352e-05
-6.75688e-06
1.37602e-05
-8.60617e-06
1.44842e-05
-1.19391e-05
1.49046e-05
-1.53354e-05
1.47469e-05
-1.76895e-05
1.38823e-05
-1.88691e-05
1.28624e-05
-1.8651e-05
1.16636e-05
-1.80853e-05
1.07358e-05
-1.66976e-05
9.7679e-06
-1.55824e-05
9.11768e-06
-1.38046e-05
8.35237e-06
-1.21569e-05
7.95487e-06
-1.05004e-05
7.0048e-06
-8.81457e-06
6.71154e-06
-7.67695e-06
6.18521e-06
-3.65203e-06
4.67371e-06
-2.35058e-06
4.9055e-06
-1.28209e-06
6.08219e-06
6.47695e-06
7.13756e-06
1.5302e-05
8.22084e-06
1.89002e-05
9.05103e-06
1.76711e-05
9.42504e-06
1.60036e-05
9.61417e-06
1.28038e-05
9.58864e-06
1.00415e-05
9.91028e-06
8.33154e-06
1.04888e-05
5.47504e-06
1.10285e-05
3.50287e-06
1.20592e-05
8.01938e-07
1.30657e-05
-3.83766e-06
1.38458e-05
-8.25895e-06
1.44029e-05
-1.19842e-05
1.48035e-05
-1.45964e-05
1.51025e-05
-1.61432e-05
1.52869e-05
-1.64876e-05
1.51711e-05
-1.60325e-05
1.48122e-05
-1.48915e-05
1.4741e-05
-1.46595e-05
1.43555e-05
-1.52364e-05
1.35453e-05
-1.50879e-05
1.29793e-05
-1.56786e-05
1.27874e-05
-1.73067e-05
1.28041e-05
-1.95581e-05
1.26031e-05
-2.14765e-05
1.17211e-05
-2.18721e-05
1.01681e-05
-2.01442e-05
8.75726e-06
-1.80307e-05
7.71664e-06
-1.66952e-05
6.79024e-06
-1.55971e-05
6.09328e-06
-1.56789e-05
5.43193e-06
-1.48381e-05
5.06122e-06
-1.43858e-05
5.15967e-06
-1.48876e-05
5.4159e-06
-1.49031e-05
5.7691e-06
-1.48789e-05
6.20403e-06
-1.47713e-05
6.70396e-06
-1.44025e-05
7.30924e-06
-1.34831e-05
7.93295e-06
-1.195e-05
8.56748e-06
-9.91911e-06
9.19841e-06
-6.98995e-06
9.73958e-06
-4.06837e-06
1.01804e-05
-9.54408e-07
1.06015e-05
2.44966e-06
1.09865e-05
5.14047e-06
1.12624e-05
7.51203e-06
1.1502e-05
9.83237e-06
1.17144e-05
1.1858e-05
1.17342e-05
1.35748e-05
1.15822e-05
1.45975e-05
1.14472e-05
1.51811e-05
1.13672e-05
1.61514e-05
1.12564e-05
1.74064e-05
1.10634e-05
1.84854e-05
1.08244e-05
1.90056e-05
1.05888e-05
1.86128e-05
1.04092e-05
1.78771e-05
1.02888e-05
1.6975e-05
1.02047e-05
1.59751e-05
1.01183e-05
1.53261e-05
9.97958e-06
1.44447e-05
9.84493e-06
1.32635e-05
9.70981e-06
1.26622e-05
9.5703e-06
1.24988e-05
9.49452e-06
1.23339e-05
9.42318e-06
1.3082e-05
9.38784e-06
1.43514e-05
9.12698e-06
1.52105e-05
8.7032e-06
1.42083e-05
8.0946e-06
1.23041e-05
7.59665e-06
1.04979e-05
7.77785e-06