/*--------------------------------*- C++ -*----------------------------------*\
| =========                 |                                                 |
| \\      /  F ield         | OpenFOAM: The Open Source CFD Toolbox           |
|  \\    /   O peration     | Version:  2.4.0                                 |
|   \\  /    A nd           | Web:      www.OpenFOAM.org                      |
|    \\/     M anipulation  |                                                 |
\*---------------------------------------------------------------------------*/
FoamFile
{
    version     2.0;
    format      ascii;
    class       volVectorField;
    location    "0.115";
    object      U;
}
// * * * * * * * * * * * * * * * * * * * * * * * * * * * * * * * * * * * * * //

dimensions      [0 1 -1 0 0 0 0];

internalField   nonuniform List<vector> 
17600
(
(9.95626 0.110581 0)
(9.19656 0.385348 0)
(8.06306 0.44137 0)
(6.91137 0.365035 0)
(5.87541 0.251706 0)
(5.0006 0.144683 0)
(4.32246 0.0621242 0)
(3.81591 0.00967595 0)
(3.44983 -0.0186015 0)
(3.19347 -0.0318099 0)
(3.01471 -0.0349541 0)
(2.88946 -0.0321008 0)
(2.80162 -0.0280725 0)
(2.73387 -0.0225089 0)
(2.68315 -0.0175449 0)
(2.63755 -0.014271 0)
(2.60293 -0.0109278 0)
(2.56603 -0.00762746 0)
(2.54025 -0.00669823 0)
(2.50714 -0.00405825 0)
(2.48767 -0.00332408 0)
(2.45535 -0.00197486 0)
(2.44175 -0.00217828 0)
(2.40924 -0.00027716 0)
(2.40088 -0.00126954 0)
(2.3667 0.000250856 0)
(2.36486 -0.000879013 0)
(2.32747 0.00136567 0)
(2.3323 -0.00107272 0)
(2.2909 0.001682 0)
(2.30338 -0.000128693 0)
(2.25422 0.00198807 0)
(2.27463 0.000394821 0)
(2.2155 0.00382034 0)
(2.23717 0.0019615 0)
(2.16676 0.00743687 0)
(2.17624 0.00671198 0)
(2.08629 0.00620964 0)
(2.06262 0.0331234 0)
(1.84598 -0.00844489 0)
(10.0027 0.171066 0)
(10.1161 0.442546 0)
(10.1786 0.60658 0)
(10.1205 0.670156 0)
(9.95571 0.653364 0)
(9.69566 0.586168 0)
(9.39549 0.494733 0)
(9.08328 0.394861 0)
(8.77604 0.308198 0)
(8.49436 0.233044 0)
(8.23585 0.176198 0)
(7.99976 0.134759 0)
(7.79896 0.102068 0)
(7.6049 0.0808209 0)
(7.4456 0.0658094 0)
(7.28861 0.0522014 0)
(7.16408 0.0444501 0)
(7.0278 0.0387455 0)
(6.9383 0.0319152 0)
(6.81572 0.0297586 0)
(6.75278 0.026278 0)
(6.63819 0.0240173 0)
(6.60282 0.021861 0)
(6.48665 0.0204935 0)
(6.47612 0.0194234 0)
(6.35774 0.0175239 0)
(6.36976 0.0166773 0)
(6.24041 0.0162204 0)
(6.28195 0.0151947 0)
(6.13623 0.0134579 0)
(6.20141 0.0154228 0)
(6.04472 0.0144064 0)
(6.12588 0.0137994 0)
(5.95833 0.0194865 0)
(6.04505 0.0177659 0)
(5.86971 0.026226 0)
(5.93969 0.0365195 0)
(5.74321 0.0511335 0)
(5.79992 0.0612045 0)
(5.55514 0.0321569 0)
(10.004 0.126657 0)
(10.0898 0.360569 0)
(10.2649 0.524433 0)
(10.4574 0.607326 0)
(10.6466 0.615338 0)
(10.771 0.570747 0)
(10.8461 0.497626 0)
(10.8653 0.417195 0)
(10.847 0.34559 0)
(10.7989 0.282408 0)
(10.7387 0.237799 0)
(10.6541 0.206216 0)
(10.5847 0.175092 0)
(10.483 0.159555 0)
(10.4148 0.144479 0)
(10.3064 0.127257 0)
(10.2472 0.119035 0)
(10.1316 0.110856 0)
(10.0875 0.096315 0)
(9.96415 0.0940243 0)
(9.93979 0.0850167 0)
(9.80327 0.0786692 0)
(9.80166 0.0716225 0)
(9.657 0.0720078 0)
(9.66789 0.0598975 0)
(9.52011 0.0631341 0)
(9.54956 0.0518811 0)
(9.38691 0.0586702 0)
(9.43773 0.0407434 0)
(9.27213 0.0561574 0)
(9.32614 0.0343736 0)
(9.16511 0.0551056 0)
(9.22585 0.0275842 0)
(9.05862 0.0634366 0)
(9.1247 0.0266581 0)
(8.95465 0.0739025 0)
(9.01189 0.0358797 0)
(8.82327 0.107913 0)
(8.83705 0.0737095 0)
(8.58799 0.176917 0)
(10.0025 0.0968303 0)
(10.0761 0.280894 0)
(10.2136 0.413453 0)
(10.3841 0.496615 0)
(10.5941 0.499557 0)
(10.7801 0.475587 0)
(10.9481 0.423301 0)
(11.0868 0.357676 0)
(11.1878 0.31112 0)
(11.2612 0.255275 0)
(11.32 0.225631 0)
(11.3447 0.200351 0)
(11.3822 0.179423 0)
(11.3796 0.162463 0)
(11.407 0.160909 0)
(11.389 0.136478 0)
(11.4149 0.138935 0)
(11.3856 0.126161 0)
(11.4121 0.119996 0)
(11.3742 0.108795 0)
(11.4034 0.112065 0)
(11.3552 0.0956593 0)
(11.3857 0.097798 0)
(11.3357 0.0886473 0)
(11.3589 0.0915648 0)
(11.309 0.0754381 0)
(11.3309 0.0862068 0)
(11.2768 0.0712474 0)
(11.294 0.0776799 0)
(11.2477 0.0613509 0)
(11.253 0.081782 0)
(11.2097 0.0500957 0)
(11.2174 0.0835815 0)
(11.1637 0.0510217 0)
(11.1707 0.0945303 0)
(11.118 0.0536042 0)
(11.1117 0.112423 0)
(11.0629 0.0244465 0)
(11.0463 0.0375284 0)
(10.8911 -0.153779 0)
(10.0035 0.0819272 0)
(10.0521 0.214956 0)
(10.1746 0.335616 0)
(10.3298 0.383414 0)
(10.4979 0.409586 0)
(10.6924 0.379129 0)
(10.8573 0.347626 0)
(10.9978 0.294348 0)
(11.13 0.260119 0)
(11.2201 0.208344 0)
(11.296 0.191105 0)
(11.3667 0.163239 0)
(11.4107 0.149264 0)
(11.4525 0.138645 0)
(11.5008 0.13332 0)
(11.5231 0.116759 0)
(11.566 0.117861 0)
(11.5967 0.109724 0)
(11.6228 0.0979037 0)
(11.6542 0.0997534 0)
(11.6861 0.0898933 0)
(11.7059 0.0880677 0)
(11.7348 0.0790839 0)
(11.7631 0.084148 0)
(11.7801 0.0719846 0)
(11.8068 0.0763878 0)
(11.825 0.0666506 0)
(11.8485 0.0753263 0)
(11.8595 0.0578988 0)
(11.8884 0.0691163 0)
(11.8944 0.0615494 0)
(11.9202 0.0605796 0)
(11.9311 0.0598824 0)
(11.9483 0.0718587 0)
(11.957 0.0598602 0)
(11.974 0.0816918 0)
(11.9566 0.0806663 0)
(11.9395 0.0928094 0)
(11.8698 0.0675221 0)
(11.8944 0.0456461 0)
(9.99267 0.0422828 0)
(10.0584 0.195294 0)
(10.1586 0.214897 0)
(10.2732 0.341456 0)
(10.4394 0.286015 0)
(10.6006 0.343006 0)
(10.7469 0.262582 0)
(10.9099 0.273698 0)
(11.0152 0.190911 0)
(11.129 0.212076 0)
(11.2123 0.118897 0)
(11.2836 0.171158 0)
(11.3365 0.0895703 0)
(11.3992 0.142859 0)
(11.4243 0.0778604 0)
(11.4744 0.131751 0)
(11.5111 0.0576215 0)
(11.5502 0.130916 0)
(11.5705 0.0458916 0)
(11.6271 0.117375 0)
(11.6419 0.0398459 0)
(11.6804 0.112248 0)
(11.7132 0.0252414 0)
(11.7504 0.108476 0)
(11.7661 0.0222525 0)
(11.8164 0.102158 0)
(11.8325 0.0134116 0)
(11.8649 0.10604 0)
(11.8907 0.0041132 0)
(11.9289 0.100277 0)
(11.9387 0.00474186 0)
(11.9822 0.0961188 0)
(12.0014 -0.00143818 0)
(12.035 0.106754 0)
(12.0523 -0.00578965 0)
(12.0869 0.118603 0)
(12.1007 0.015396 0)
(12.1239 0.172122 0)
(12.1134 0.0997809 0)
(11.9745 0.2489 0)
(10.0055 0.0438582 0)
(10.0444 0.123049 0)
(10.1005 0.189109 0)
(10.2427 0.230827 0)
(10.3744 0.246324 0)
(10.5224 0.244788 0)
(10.7056 0.220737 0)
(10.8277 0.190966 0)
(10.9588 0.175288 0)
(11.0795 0.132361 0)
(11.1411 0.124413 0)
(11.2239 0.0998579 0)
(11.292 0.0930405 0)
(11.3177 0.0865009 0)
(11.375 0.0901483 0)
(11.4048 0.0652722 0)
(11.4443 0.0832559 0)
(11.4791 0.064182 0)
(11.5213 0.0688412 0)
(11.5436 0.0555655 0)
(11.5926 0.0695629 0)
(11.6134 0.0417288 0)
(11.654 0.0634198 0)
(11.6792 0.0380919 0)
(11.7234 0.0578608 0)
(11.7432 0.0303036 0)
(11.78 0.0595773 0)
(11.8056 0.0262287 0)
(11.8396 0.05031 0)
(11.8617 0.0247651 0)
(11.8921 0.051512 0)
(11.9247 0.011803 0)
(11.9503 0.0483744 0)
(11.9813 0.0202365 0)
(12.009 0.041929 0)
(12.0407 0.0236102 0)
(12.0618 0.0600579 0)
(12.071 0.0321926 0)
(12.0256 0.0469957 0)
(11.8142 -0.0698244 0)
(9.97272 0.0274298 0)
(10.0481 0.0997664 0)
(10.1087 0.110776 0)
(10.2302 0.169736 0)
(10.3417 0.16354 0)
(10.5233 0.172815 0)
(10.6263 0.154239 0)
(10.8002 0.147522 0)
(10.9043 0.111513 0)
(11.0111 0.118879 0)
(11.0918 0.077599 0)
(11.1834 0.0789074 0)
(11.2199 0.0602122 0)
(11.2985 0.0742751 0)
(11.3212 0.046798 0)
(11.3608 0.0681686 0)
(11.4049 0.0372249 0)
(11.4462 0.0605303 0)
(11.4614 0.034239 0)
(11.5186 0.0561282 0)
(11.5473 0.0242009 0)
(11.5682 0.0553943 0)
(11.6089 0.0225711 0)
(11.6491 0.0404551 0)
(11.6681 0.0211931 0)
(11.6996 0.0454705 0)
(11.7477 0.0116592 0)
(11.7562 0.0393977 0)
(11.789 0.0156021 0)
(11.8244 0.0310451 0)
(11.8555 0.00733185 0)
(11.866 0.025197 0)
(11.9162 0.00563818 0)
(11.9358 0.0186563 0)
(11.9715 -0.00257002 0)
(11.9839 0.0179103 0)
(12.0278 -0.00438456 0)
(12.0183 0.00484845 0)
(11.9894 -0.00911167 0)
(11.7733 0.00242733 0)
(10.0142 0.0246036 0)
(10.0385 0.0363292 0)
(10.0957 0.0729968 0)
(10.1877 0.0986076 0)
(10.3388 0.098519 0)
(10.4395 0.110611 0)
(10.6186 0.101351 0)
(10.7452 0.0754793 0)
(10.8695 0.0878892 0)
(10.9784 0.0627565 0)
(11.0687 0.0509144 0)
(11.1375 0.0445876 0)
(11.2137 0.0370277 0)
(11.261 0.0362202 0)
(11.2933 0.0472706 0)
(11.3399 0.0231125 0)
(11.3713 0.0332449 0)
(11.4136 0.0304724 0)
(11.4359 0.0275417 0)
(11.4902 0.0196778 0)
(11.5092 0.0324662 0)
(11.5484 0.0221489 0)
(11.5727 0.020318 0)
(11.6252 0.0165701 0)
(11.6265 0.0242228 0)
(11.687 0.0107928 0)
(11.7054 0.0169919 0)
(11.7315 0.0186365 0)
(11.7523 0.00948625 0)
(11.8098 0.00464514 0)
(11.8065 0.0114061 0)
(11.8459 -0.00248904 0)
(11.8792 -0.00564768 0)
(11.9177 -0.00976495 0)
(11.9172 -0.0126536 0)
(11.9725 -0.0259834 0)
(11.9848 -0.0317615 0)
(12.0007 -0.0412844 0)
(11.9395 -0.0338404 0)
(11.7468 -0.0455147 0)
(9.99995 0.0212468 0)
(10.021 0.00402553 0)
(10.0927 0.0410458 0)
(10.194 0.0102822 0)
(10.3179 0.0579495 0)
(10.4528 0.0143297 0)
(10.6101 0.0396398 0)
(10.7357 0.0105629 0)
(10.8682 0.0370863 0)
(10.9569 0.0120014 0)
(11.059 0.0333664 0)
(11.1294 -0.0082416 0)
(11.2001 0.025087 0)
(11.2345 0.00669397 0)
(11.2978 0.0235895 0)
(11.3079 -0.00423662 0)
(11.372 0.0214034 0)
(11.3924 -0.0101006 0)
(11.4355 0.0189128 0)
(11.4587 -0.00863907 0)
(11.5198 0.0159996 0)
(11.515 -0.00343021 0)
(11.5791 0.0165342 0)
(11.5967 -0.0156549 0)
(11.6339 0.016671 0)
(11.6562 -0.0123625 0)
(11.706 0.0112963 0)
(11.7076 -0.0106897 0)
(11.7526 0.00493247 0)
(11.7799 -0.0203917 0)
(11.8083 0.00333886 0)
(11.8196 -0.0295122 0)
(11.8773 -0.0182373 0)
(11.886 -0.037959 0)
(11.9156 -0.0325556 0)
(11.9453 -0.0701063 0)
(11.9791 -0.0666099 0)
(11.9727 -0.091123 0)
(11.9423 -0.0784883 0)
(11.7348 -0.065865 0)
(9.98333 0.0115487 0)
(10.0487 -0.0404091 0)
(10.0909 -0.022692 0)
(10.2009 -0.0320006 0)
(10.3156 -0.0252899 0)
(10.4626 -0.0362535 0)
(10.5905 -0.0229262 0)
(10.749 -0.040962 0)
(10.8301 -0.00343648 0)
(10.9748 -0.0147136 0)
(11.054 -0.0186295 0)
(11.1355 -0.0152414 0)
(11.1798 -0.011668 0)
(11.2503 -0.011019 0)
(11.2739 -0.000998639 0)
(11.3346 -0.0149282 0)
(11.3578 -0.0174518 0)
(11.4034 -0.00583849 0)
(11.4206 -0.0134499 0)
(11.4786 -0.0150159 0)
(11.4914 -0.00639701 0)
(11.536 -0.000825102 0)
(11.5716 -0.0174986 0)
(11.6041 -0.00851538 0)
(11.6208 -0.00762208 0)
(11.6702 -0.0126577 0)
(11.6877 -0.0130859 0)
(11.7159 -0.00266511 0)
(11.7472 -0.0229782 0)
(11.7857 -0.017185 0)
(11.7945 -0.0193398 0)
(11.8318 -0.023433 0)
(11.8625 -0.0473919 0)
(11.8801 -0.0325128 0)
(11.9055 -0.0643064 0)
(11.9451 -0.0759179 0)
(11.9659 -0.122039 0)
(11.9697 -0.124437 0)
(11.9565 -0.15541 0)
(11.7631 -0.0428179 0)
(10.0067 0.0210991 0)
(10.0374 -0.124196 0)
(10.0997 -0.0214178 0)
(10.2048 -0.155584 0)
(10.3299 -0.0369854 0)
(10.4709 -0.166372 0)
(10.6297 -0.0453375 0)
(10.7378 -0.144855 0)
(10.8713 -0.00928819 0)
(11.0001 -0.130314 0)
(11.083 0.0101869 0)
(11.1449 -0.112479 0)
(11.2124 0.0164046 0)
(11.2461 -0.0948395 0)
(11.3169 0.0209175 0)
(11.3437 -0.106178 0)
(11.3785 0.0288195 0)
(11.4169 -0.102191 0)
(11.4494 0.0264834 0)
(11.4795 -0.0949245 0)
(11.5198 0.031287 0)
(11.5544 -0.0969233 0)
(11.5926 0.0359728 0)
(11.6141 -0.0978036 0)
(11.6504 0.0316218 0)
(11.6764 -0.0964018 0)
(11.7054 0.0369712 0)
(11.74 -0.102738 0)
(11.7676 0.0276409 0)
(11.7917 -0.104889 0)
(11.8227 0.027397 0)
(11.8451 -0.121887 0)
(11.8692 0.0123755 0)
(11.8939 -0.13346 0)
(11.9176 -0.0148611 0)
(11.9482 -0.184089 0)
(11.9657 -0.0788568 0)
(11.9811 -0.276673 0)
(12.0038 -0.199157 0)
(11.8943 -0.346378 0)
(9.98487 -0.00313559 0)
(10.0655 -0.120071 0)
(10.1245 -0.107595 0)
(10.2448 -0.18383 0)
(10.3593 -0.143595 0)
(10.5302 -0.209579 0)
(10.6458 -0.116596 0)
(10.7983 -0.177282 0)
(10.9202 -0.0826434 0)
(11.039 -0.138307 0)
(11.1107 -0.0444426 0)
(11.1931 -0.11147 0)
(11.2356 -0.0226671 0)
(11.3017 -0.106989 0)
(11.345 -0.0141021 0)
(11.3745 -0.0987978 0)
(11.4166 -0.00898799 0)
(11.4538 -0.0953669 0)
(11.4798 0.00268353 0)
(11.5249 -0.0947267 0)
(11.5572 0.00423241 0)
(11.5864 -0.0874693 0)
(11.6252 0.0102976 0)
(11.6541 -0.0909368 0)
(11.6833 0.0119907 0)
(11.7087 -0.0865337 0)
(11.7477 0.00886087 0)
(11.7757 -0.0918749 0)
(11.7956 0.0132538 0)
(11.8274 -0.100115 0)
(11.8598 0.00779938 0)
(11.8696 -0.102545 0)
(11.9043 -0.00625262 0)
(11.9251 -0.127336 0)
(11.9436 -0.0239704 0)
(11.9635 -0.172222 0)
(11.9786 -0.0882213 0)
(11.9714 -0.267997 0)
(11.9724 -0.19884 0)
(12.0509 -0.364293 0)
(9.99752 -0.0479791 0)
(10.0607 -0.102698 0)
(10.1334 -0.189561 0)
(10.2543 -0.214576 0)
(10.3909 -0.257021 0)
(10.5415 -0.226861 0)
(10.692 -0.232266 0)
(10.8468 -0.182116 0)
(10.9636 -0.180109 0)
(11.0688 -0.129983 0)
(11.1502 -0.131635 0)
(11.2291 -0.0922731 0)
(11.2847 -0.114545 0)
(11.3367 -0.0734449 0)
(11.3686 -0.096019 0)
(11.4153 -0.0670909 0)
(11.4469 -0.0875578 0)
(11.486 -0.0561803 0)
(11.5209 -0.0867175 0)
(11.5633 -0.0479819 0)
(11.5835 -0.0782724 0)
(11.6255 -0.0478887 0)
(11.6543 -0.0729551 0)
(11.689 -0.0427882 0)
(11.716 -0.0783578 0)
(11.7521 -0.0386822 0)
(11.7761 -0.0781298 0)
(11.8087 -0.0438418 0)
(11.8298 -0.0773124 0)
(11.863 -0.0477197 0)
(11.8821 -0.0838361 0)
(11.9123 -0.0514792 0)
(11.9347 -0.0983691 0)
(11.9542 -0.0670711 0)
(11.9654 -0.11607 0)
(11.9897 -0.105104 0)
(11.9865 -0.162135 0)
(11.999 -0.147651 0)
(12.0233 -0.190625 0)
(12.1932 -0.0876658 0)
(9.97671 -0.0472338 0)
(10.077 -0.163189 0)
(10.1306 -0.250023 0)
(10.2986 -0.311151 0)
(10.4179 -0.32347 0)
(10.6168 -0.322646 0)
(10.7483 -0.280673 0)
(10.919 -0.257554 0)
(11.0188 -0.207413 0)
(11.1401 -0.18373 0)
(11.2107 -0.153958 0)
(11.2964 -0.143252 0)
(11.3347 -0.122519 0)
(11.3919 -0.116496 0)
(11.4249 -0.104315 0)
(11.4754 -0.106347 0)
(11.5016 -0.0910764 0)
(11.5488 -0.0974551 0)
(11.5753 -0.0849783 0)
(11.6131 -0.0832227 0)
(11.6438 -0.0776605 0)
(11.6824 -0.0811814 0)
(11.7062 -0.0678798 0)
(11.7471 -0.0799829 0)
(11.7709 -0.0714141 0)
(11.8012 -0.0703334 0)
(11.8301 -0.0712547 0)
(11.8593 -0.0781502 0)
(11.8799 -0.0648461 0)
(11.9117 -0.0806184 0)
(11.9321 -0.0780223 0)
(11.9553 -0.0806635 0)
(11.9768 -0.0839138 0)
(11.992 -0.0968191 0)
(12.0068 -0.0955453 0)
(12.0161 -0.109684 0)
(12.0202 -0.110518 0)
(12.0337 -0.116344 0)
(12.0718 -0.103763 0)
(12.23 -0.0819621 0)
(9.93324 -0.0859171 0)
(10.1303 -0.203167 0)
(10.1122 -0.339868 0)
(10.3836 -0.380928 0)
(10.4456 -0.421186 0)
(10.7372 -0.37492 0)
(10.7961 -0.35688 0)
(11.0468 -0.288792 0)
(11.0683 -0.263509 0)
(11.267 -0.20487 0)
(11.2568 -0.199798 0)
(11.4046 -0.150045 0)
(11.3686 -0.164768 0)
(11.4967 -0.124104 0)
(11.4552 -0.14066 0)
(11.5681 -0.1139 0)
(11.5257 -0.122573 0)
(11.6306 -0.0987727 0)
(11.5858 -0.11772 0)
(11.6856 -0.0829862 0)
(11.6465 -0.109317 0)
(11.7366 -0.0823976 0)
(11.6996 -0.0966962 0)
(11.7848 -0.0782963 0)
(11.745 -0.0993588 0)
(11.8214 -0.0699554 0)
(11.7905 -0.0979776 0)
(11.8538 -0.0764087 0)
(11.8221 -0.093075 0)
(11.8835 -0.0780051 0)
(11.8516 -0.101417 0)
(11.8957 -0.0793233 0)
(11.8723 -0.106494 0)
(11.9034 -0.0905261 0)
(11.875 -0.107348 0)
(11.8917 -0.0886199 0)
(11.8668 -0.0965016 0)
(11.8761 -0.0637901 0)
(11.8912 -0.0666307 0)
(12.0447 -0.0785194 0)
(9.9311 -0.100956 0)
(10.1448 -0.274291 0)
(10.1391 -0.425491 0)
(10.4611 -0.48772 0)
(10.5209 -0.509604 0)
(10.8538 -0.469997 0)
(10.878 -0.424595 0)
(11.1582 -0.357002 0)
(11.1128 -0.309968 0)
(11.3397 -0.252016 0)
(11.238 -0.234266 0)
(11.4259 -0.189333 0)
(11.2964 -0.192563 0)
(11.4633 -0.154991 0)
(11.3192 -0.164884 0)
(11.4762 -0.136109 0)
(11.3225 -0.144409 0)
(11.4767 -0.117488 0)
(11.3156 -0.135139 0)
(11.4679 -0.0983203 0)
(11.3024 -0.125555 0)
(11.4484 -0.0908897 0)
(11.282 -0.114139 0)
(11.4219 -0.0825634 0)
(11.2531 -0.114466 0)
(11.3864 -0.0712196 0)
(11.2182 -0.11219 0)
(11.341 -0.0711631 0)
(11.175 -0.108521 0)
(11.2882 -0.0670673 0)
(11.1241 -0.11717 0)
(11.2222 -0.0625441 0)
(11.0659 -0.120204 0)
(11.1424 -0.0640724 0)
(10.9952 -0.119565 0)
(11.0523 -0.0462627 0)
(10.9241 -0.098078 0)
(10.9643 0.0159876 0)
(10.8906 -0.0114315 0)
(11.02 0.103375 0)
(9.97473 -0.129147 0)
(10.1206 -0.356624 0)
(10.233 -0.525993 0)
(10.4921 -0.604981 0)
(10.609 -0.617711 0)
(10.811 -0.569776 0)
(10.803 -0.500618 0)
(10.9091 -0.417048 0)
(10.7978 -0.345956 0)
(10.8516 -0.28177 0)
(10.6794 -0.24183 0)
(10.7168 -0.199582 0)
(10.5156 -0.183019 0)
(10.5508 -0.154459 0)
(10.3412 -0.146625 0)
(10.3772 -0.128066 0)
(10.1655 -0.121702 0)
(10.2121 -0.105337 0)
(9.9918 -0.107337 0)
(10.0553 -0.0864423 0)
(9.83088 -0.0943667 0)
(9.89923 -0.0766976 0)
(9.68096 -0.0824967 0)
(9.75231 -0.0668969 0)
(9.5334 -0.0790034 0)
(9.61173 -0.0565663 0)
(9.39537 -0.0751563 0)
(9.47025 -0.0536574 0)
(9.26175 -0.0712694 0)
(9.33314 -0.0495386 0)
(9.12858 -0.0745314 0)
(9.19154 -0.0446694 0)
(9.00042 -0.0759397 0)
(9.04574 -0.0411482 0)
(8.87287 -0.0719449 0)
(8.90692 -0.022494 0)
(8.77298 -0.0529747 0)
(8.80763 0.0249936 0)
(8.74905 -0.0011621 0)
(8.71885 0.0803058 0)
(9.99662 -0.172235 0)
(10.1223 -0.44031 0)
(10.1699 -0.60871 0)
(10.1321 -0.668613 0)
(9.94415 -0.65423 0)
(9.71087 -0.586562 0)
(9.37965 -0.494756 0)
(9.09926 -0.395396 0)
(8.75525 -0.308722 0)
(8.51558 -0.232019 0)
(8.20612 -0.178493 0)
(8.03034 -0.131931 0)
(7.76043 -0.105373 0)
(7.63953 -0.0792175 0)
(7.40473 -0.0667036 0)
(7.32349 -0.0523441 0)
(7.1174 -0.0461834 0)
(7.06978 -0.035969 0)
(6.88033 -0.0371174 0)
(6.86397 -0.0266667 0)
(6.6845 -0.0307931 0)
(6.68836 -0.0236727 0)
(6.52174 -0.0268987 0)
(6.53639 -0.0201691 0)
(6.37847 -0.027291 0)
(6.40253 -0.0175934 0)
(6.25118 -0.0262577 0)
(6.27595 -0.0184233 0)
(6.13627 -0.026131 0)
(6.15425 -0.017786 0)
(6.02673 -0.028235 0)
(6.03257 -0.0182598 0)
(5.92406 -0.0270636 0)
(5.90826 -0.018066 0)
(5.8313 -0.0208217 0)
(5.79372 -0.0112803 0)
(5.76201 -0.0067586 0)
(5.6952 -0.0223153 0)
(5.72445 -0.0374298 0)
(5.57942 -0.130757 0)
(9.9563 -0.111103 0)
(9.19574 -0.384889 0)
(8.06216 -0.44128 0)
(6.91288 -0.364511 0)
(5.87399 -0.252142 0)
(5.00296 -0.144702 0)
(4.31932 -0.062409 0)
(3.81811 -0.00976407 0)
(3.44332 0.0187744 0)
(3.19798 0.0322031 0)
(3.00541 0.0343253 0)
(2.89666 0.0331136 0)
(2.78962 0.0271444 0)
(2.7421 0.0229887 0)
(2.66946 0.0174073 0)
(2.64652 0.0142185 0)
(2.5866 0.0105644 0)
(2.5766 0.00866104 0)
(2.52048 0.00489396 0)
(2.51793 0.00526226 0)
(2.46315 0.00195434 0)
(2.46501 0.00247245 0)
(2.4103 0.000612635 0)
(2.41533 0.00134285 0)
(2.36043 -0.0010603 0)
(2.36648 0.00106604 0)
(2.31247 -0.00165269 0)
(2.31788 0.000124473 0)
(2.26478 -0.00181015 0)
(2.26804 8.91796e-05 0)
(2.21774 -0.00252952 0)
(2.21509 0.000462219 0)
(2.17222 -0.00185751 0)
(2.16165 0.00142057 0)
(2.13374 -0.000473156 0)
(2.1146 0.00339662 0)
(2.11826 -0.00281835 0)
(2.07962 0.00960746 0)
(2.11646 -0.0148871 0)
(1.9477 0.0176156 0)
(2.00692 -0.0926182 0)
(2.11196 -0.0643791 0)
(2.2414 -0.045698 0)
(2.39404 -0.035245 0)
(2.48408 -0.0179933 0)
(2.55454 -0.0269008 0)
(2.62187 -0.0444264 0)
(2.70897 -0.0363911 0)
(2.77357 -0.0105881 0)
(2.84551 0.0113403 0)
(2.89512 0.0333657 0)
(2.94588 0.0514128 0)
(2.98178 0.0659747 0)
(3.0223 0.0734614 0)
(3.03668 0.0821252 0)
(3.06085 0.091003 0)
(3.07052 0.107034 0)
(3.09352 0.120305 0)
(3.11014 0.132875 0)
(3.14661 0.13952 0)
(3.15808 0.153885 0)
(3.2004 0.151236 0)
(3.22108 0.147669 0)
(3.25483 0.136609 0)
(3.30093 0.128548 0)
(3.33725 0.126436 0)
(3.39707 0.124923 0)
(3.44841 0.132655 0)
(3.52448 0.136348 0)
(3.59902 0.13949 0)
(3.68195 0.145296 0)
(3.77988 0.144979 0)
(3.86941 0.164121 0)
(3.99824 0.167492 0)
(4.1135 0.187737 0)
(4.25715 0.193945 0)
(4.39627 0.21115 0)
(4.55018 0.231829 0)
(4.70258 0.253474 0)
(4.87466 0.265897 0)
(5.04428 0.299341 0)
(5.24537 0.323261 0)
(5.4274 0.35625 0)
(5.64593 0.368195 0)
(5.83953 0.40375 0)
(6.06674 0.413815 0)
(6.26124 0.430622 0)
(6.4911 0.41994 0)
(6.68513 0.418371 0)
(6.90796 0.391825 0)
(7.09624 0.3623 0)
(7.31347 0.303608 0)
(7.48878 0.253306 0)
(7.70132 0.173027 0)
(7.87466 0.0937247 0)
(8.07228 -0.0155481 0)
(8.23982 -0.132869 0)
(8.43664 -0.269686 0)
(8.58983 -0.400513 0)
(8.75407 -0.556813 0)
(8.87155 -0.722031 0)
(9.00543 -0.905391 0)
(9.11073 -1.08412 0)
(9.22454 -1.26819 0)
(9.30664 -1.44191 0)
(9.40759 -1.61914 0)
(9.49624 -1.77712 0)
(9.6014 -1.9412 0)
(9.69811 -2.09062 0)
(9.81729 -2.23971 0)
(9.94598 -2.38015 0)
(10.0808 -2.51677 0)
(10.2378 -2.65079 0)
(10.4041 -2.77799 0)
(10.5954 -2.89894 0)
(10.7826 -3.01256 0)
(10.9862 -3.11699 0)
(11.1749 -3.2022 0)
(11.3827 -3.28532 0)
(11.5515 -3.34597 0)
(11.743 -3.40818 0)
(11.8974 -3.45118 0)
(12.0479 -3.4935 0)
(12.1397 -3.51706 0)
(12.2523 -3.54747 0)
(12.3422 -3.54421 0)
(12.4373 -3.54136 0)
(12.4915 -3.50611 0)
(12.5795 -3.46856 0)
(12.662 -3.40229 0)
(12.7375 -3.31827 0)
(12.7997 -3.22156 0)
(12.8858 -3.12377 0)
(12.9594 -2.99932 0)
(13.0134 -2.88444 0)
(13.0722 -2.76661 0)
(13.1425 -2.64176 0)
(13.2202 -2.53256 0)
(13.2747 -2.41415 0)
(13.3445 -2.31205 0)
(13.4186 -2.20828 0)
(13.4981 -2.10942 0)
(13.5545 -2.01198 0)
(13.6286 -1.92665 0)
(13.6784 -1.82528 0)
(13.7486 -1.75119 0)
(13.7757 -1.64978 0)
(13.8256 -1.57958 0)
(13.8409 -1.4928 0)
(13.8522 -1.4208 0)
(13.8395 -1.34917 0)
(13.8228 -1.28623 0)
(13.765 -1.22374 0)
(13.7233 -1.18357 0)
(13.6279 -1.12906 0)
(13.5449 -1.10972 0)
(13.427 -1.08326 0)
(13.3143 -1.0707 0)
(13.1769 -1.07816 0)
(13.0548 -1.09615 0)
(12.8922 -1.11441 0)
(12.7399 -1.15404 0)
(12.5625 -1.17088 0)
(12.4144 -1.22803 0)
(12.2332 -1.26667 0)
(12.0742 -1.3264 0)
(11.8819 -1.37415 0)
(11.7226 -1.44967 0)
(11.5496 -1.4962 0)
(11.4107 -1.59157 0)
(11.2621 -1.64171 0)
(11.1707 -1.73942 0)
(11.0392 -1.80571 0)
(10.9989 -1.89958 0)
(10.9417 -1.96443 0)
(10.9346 -2.07036 0)
(10.936 -2.13986 0)
(11.0317 -2.24382 0)
(11.0912 -2.32449 0)
(11.2458 -2.41288 0)
(11.3839 -2.49726 0)
(11.5716 -2.57486 0)
(11.7564 -2.63535 0)
(11.9985 -2.6868 0)
(12.2119 -2.72161 0)
(12.4418 -2.73958 0)
(12.673 -2.7501 0)
(12.9094 -2.71417 0)
(13.1316 -2.68097 0)
(13.3425 -2.61124 0)
(13.5628 -2.52754 0)
(13.7447 -2.41599 0)
(13.9375 -2.29751 0)
(14.0829 -2.14356 0)
(14.263 -1.99489 0)
(14.3718 -1.80845 0)
(14.5046 -1.62652 0)
(14.5807 -1.42475 0)
(14.6835 -1.22495 0)
(14.7149 -0.999071 0)
(14.7697 -0.785856 0)
(14.7672 -0.546065 0)
(14.7886 -0.317939 0)
(14.7114 -0.0598415 0)
(14.667 0.169458 0)
(14.5855 0.408753 0)
(14.5128 0.621404 0)
(14.3469 0.840275 0)
(14.2052 1.02699 0)
(14.0218 1.22622 0)
(13.8297 1.38282 0)
(13.5742 1.54869 0)
(13.3578 1.6503 0)
(13.0776 1.75259 0)
(12.8075 1.80767 0)
(12.5103 1.84822 0)
(12.2199 1.8291 0)
(11.9044 1.81828 0)
(11.61 1.74679 0)
(11.2703 1.68552 0)
(10.9594 1.59017 0)
(10.666 1.4913 0)
(10.3643 1.34628 0)
(10.0497 1.22962 0)
(9.75302 1.10211 0)
(9.50031 0.967327 0)
(9.26487 0.795433 0)
(9.04833 0.675152 0)
(8.78258 0.559335 0)
(8.53257 0.484007 0)
(8.25209 0.42382 0)
(7.97657 0.375796 0)
(7.64496 0.273382 0)
(7.35444 0.237425 0)
(6.99307 0.250244 0)
(6.65124 0.275791 0)
(6.26252 0.179238 0)
(5.97301 0.0703358 0)
(5.68999 -0.0340427 0)
(5.50855 -0.0832244 0)
(5.30718 -0.183408 0)
(5.17612 -0.247469 0)
(5.02386 -0.294888 0)
(4.96094 -0.23112 0)
(4.91584 -0.146349 0)
(4.95876 -0.0246072 0)
(4.97633 0.0248683 0)
(5.02378 0.019207 0)
(5.04473 -0.119446 0)
(5.13625 -0.300156 0)
(5.20284 -0.472752 0)
(5.28742 -0.517568 0)
(5.30602 -0.511213 0)
(5.35796 -0.507039 0)
(5.38851 -0.627337 0)
(5.46375 -0.818322 0)
(5.49383 -1.07557 0)
(5.53036 -1.27607 0)
(5.51575 -1.42763 0)
(5.44839 -1.44152 0)
(5.28554 -1.38964 0)
(5.0789 -1.27359 0)
(4.94718 -1.30191 0)
(4.97503 -1.4999 0)
(5.22088 -1.95277 0)
(5.61917 -2.50049 0)
(6.20689 -3.15363 0)
(6.80979 -3.71932 0)
(7.53084 -4.27754 0)
(8.13293 -4.65532 0)
(8.82958 -5.01197 0)
(9.33283 -5.17604 0)
(9.92546 -5.34517 0)
(10.3083 -5.34412 0)
(10.7958 -5.38578 0)
(11.088 -5.28527 0)
(11.4687 -5.21484 0)
(11.7116 -5.05906 0)
(12.0081 -4.91932 0)
(12.218 -4.70519 0)
(12.4701 -4.51729 0)
(12.6532 -4.27083 0)
(12.8066 -3.97893 0)
(12.9742 -3.67446 0)
(13.0595 -3.29632 0)
(13.1535 -2.89374 0)
(13.1615 -2.44484 0)
(13.2053 -1.94263 0)
(13.1256 -1.38651 0)
(13.101 -0.849267 0)
(12.9634 -0.1876 0)
(12.8399 0.412372 0)
(12.6524 1.05694 0)
(12.5031 1.76358 0)
(12.2719 2.39123 0)
(12.0608 3.03623 0)
(11.8806 3.75965 0)
(11.5685 4.41339 0)
(11.4097 4.9385 0)
(11.0943 5.6699 0)
(10.9519 6.22001 0)
(10.5397 6.74425 0)
(10.4369 7.15854 0)
(10.0566 7.71749 0)
(9.86464 8.03555 0)
(9.56159 8.29435 0)
(9.27187 8.54066 0)
(9.11264 8.762 0)
(8.71567 8.96814 0)
(8.67214 8.8917 0)
(8.21427 8.93564 0)
(8.17101 8.79748 0)
(7.87156 8.83641 0)
(7.70988 8.70663 0)
(7.56059 8.55007 0)
(7.21566 8.42294 0)
(7.30119 8.19627 0)
(6.92757 8.1517 0)
(7.03035 7.85256 0)
(6.68992 7.77394 0)
(6.70643 7.39365 0)
(6.55673 7.16866 0)
(6.40779 6.79426 0)
(6.45448 6.46125 0)
(6.1899 6.2213 0)
(6.36525 5.87112 0)
(6.09417 5.74972 0)
(6.2989 5.30061 0)
(6.13158 5.09286 0)
(6.3075 4.41183 0)
(6.28595 3.95523 0)
(6.30893 3.17229 0)
(6.3394 2.73773 0)
(6.20129 2.20448 0)
(6.28316 1.9847 0)
(6.02995 1.71553 0)
(6.19655 1.55875 0)
(5.9478 1.32836 0)
(6.24628 1.04616 0)
(6.0098 0.754245 0)
(6.37145 0.333935 0)
(6.13253 -0.0246964 0)
(6.5172 -0.506263 0)
(6.25593 -0.812644 0)
(6.59955 -1.18046 0)
(6.31138 -1.3719 0)
(6.64439 -1.64375 0)
(6.41119 -1.83189 0)
(6.77796 -2.07208 0)
(6.62951 -2.29618 0)
(6.99159 -2.49498 0)
(6.90589 -2.76944 0)
(7.22183 -2.90132 0)
(7.20403 -3.20056 0)
(7.43098 -3.23491 0)
(7.46335 -3.5829 0)
(7.56275 -3.54302 0)
(7.66289 -3.91358 0)
(7.63649 -3.75032 0)
(7.7891 -4.09514 0)
(7.61038 -3.82043 0)
(7.79376 -4.10462 0)
(7.50891 -3.73567 0)
(7.73187 -3.96498 0)
(7.38905 -3.59554 0)
(7.61684 -3.78693 0)
(7.2299 -3.43383 0)
(7.42197 -3.51861 0)
(7.03315 -3.14431 0)
(7.19412 -3.10164 0)
(6.84001 -2.78794 0)
(6.95508 -2.72678 0)
(6.65727 -2.54891 0)
(6.72756 -2.46558 0)
(6.50226 -2.37913 0)
(6.51314 -2.21967 0)
(6.36944 -2.17078 0)
(6.33327 -1.90588 0)
(6.27652 -1.89523 0)
(6.18831 -1.5823 0)
(6.1898 -1.65332 0)
(6.05653 -1.32429 0)
(6.10927 -1.45544 0)
(5.96558 -1.09189 0)
(6.06786 -1.24574 0)
(5.93586 -0.838103 0)
(6.06173 -1.00735 0)
(5.92066 -0.5932 0)
(6.01029 -0.832585 0)
(5.81785 -0.473401 0)
(5.85528 -0.792395 0)
(5.6491 -0.439726 0)
(5.69976 -0.735697 0)
(5.54356 -0.311416 0)
(5.63031 -0.535627 0)
(5.5104 -0.0869598 0)
(5.55937 -0.302096 0)
(5.41769 0.0685075 0)
(5.37412 -0.183104 0)
(5.22076 0.0869613 0)
(5.11962 -0.147619 0)
(5.0233 0.0797586 0)
(4.91486 -0.0443899 0)
(4.925 0.181103 0)
(4.80973 0.218818 0)
(4.95046 0.416183 0)
(4.80229 0.628425 0)
(5.08453 0.738556 0)
(4.86919 1.13504 0)
(5.2954 1.09421 0)
(4.99918 1.69594 0)
(5.55923 1.45945 0)
(5.20057 2.28694 0)
(5.84673 1.86061 0)
(5.49342 2.89601 0)
(6.1356 2.33837 0)
(5.91527 3.444 0)
(6.42314 2.84064 0)
(6.44986 3.7673 0)
(6.66383 3.27037 0)
(6.9791 3.81001 0)
(6.80747 3.63465 0)
(7.38093 3.7051 0)
(6.87367 4.00563 0)
(7.59382 3.60515 0)
(6.95197 4.36591 0)
(7.59233 3.58486 0)
(7.10892 4.6113 0)
(7.36218 3.69574 0)
(7.31009 4.65202 0)
(6.94818 4.00816 0)
(7.44583 4.49695 0)
(6.4746 4.58358 0)
(7.33873 4.27576 0)
(6.16917 5.43199 0)
(6.75307 4.41271 0)
(6.34996 6.46545 0)
(5.62672 5.98072 0)
(7.2511 7.29949 0)
(5.60868 10.4059 0)
(5.5794 -0.145509 0)
(5.63153 -0.22466 0)
(5.71699 -0.249881 0)
(5.80429 -0.222029 0)
(5.87206 -0.161302 0)
(5.91139 -0.089956 0)
(5.93821 -0.027983 0)
(5.95923 0.0149133 0)
(5.97469 0.0393132 0)
(6.00043 0.0477518 0)
(6.01838 0.0460909 0)
(6.04282 0.0415129 0)
(6.05975 0.0376528 0)
(6.08387 0.0311595 0)
(6.1069 0.0272208 0)
(6.12845 0.0289419 0)
(6.14963 0.0325194 0)
(6.17322 0.037192 0)
(6.20181 0.0424661 0)
(6.22097 0.0465946 0)
(6.26071 0.0470348 0)
(6.28879 0.0509794 0)
(6.33118 0.0489576 0)
(6.36367 0.0510512 0)
(6.40706 0.055043 0)
(6.44162 0.0617409 0)
(6.47874 0.0713602 0)
(6.51061 0.0831447 0)
(6.55091 0.0938237 0)
(6.59683 0.104761 0)
(6.63582 0.114683 0)
(6.67799 0.123611 0)
(6.71846 0.133498 0)
(6.76007 0.136531 0)
(6.80843 0.140957 0)
(6.85533 0.146749 0)
(6.9058 0.148065 0)
(6.94929 0.15105 0)
(7.00982 0.154525 0)
(7.06673 0.152939 0)
(7.12177 0.156431 0)
(7.19125 0.154228 0)
(7.26953 0.152329 0)
(7.35283 0.147749 0)
(7.44376 0.140859 0)
(7.55653 0.129049 0)
(7.66827 0.119848 0)
(7.80443 0.096933 0)
(7.93695 0.077288 0)
(8.08789 0.0432088 0)
(8.24255 0.0043534 0)
(8.41161 -0.044052 0)
(8.56826 -0.102176 0)
(8.75544 -0.17788 0)
(8.91905 -0.253309 0)
(9.09164 -0.352809 0)
(9.25417 -0.455967 0)
(9.45109 -0.57798 0)
(9.62022 -0.705486 0)
(9.79381 -0.846489 0)
(9.94803 -0.995296 0)
(10.1294 -1.14529 0)
(10.2918 -1.29452 0)
(10.4778 -1.4579 0)
(10.6324 -1.60568 0)
(10.8193 -1.7684 0)
(10.9813 -1.92337 0)
(11.1658 -2.08625 0)
(11.3418 -2.24195 0)
(11.5285 -2.4026 0)
(11.692 -2.5516 0)
(11.874 -2.70961 0)
(12.0239 -2.84411 0)
(12.1885 -2.98605 0)
(12.3227 -3.10374 0)
(12.4596 -3.22004 0)
(12.5662 -3.31611 0)
(12.6652 -3.40727 0)
(12.7379 -3.47324 0)
(12.7863 -3.53707 0)
(12.8173 -3.58341 0)
(12.8179 -3.62119 0)
(12.8123 -3.64304 0)
(12.7783 -3.64871 0)
(12.7489 -3.63456 0)
(12.7226 -3.60651 0)
(12.693 -3.56529 0)
(12.6308 -3.49879 0)
(12.6137 -3.43603 0)
(12.5786 -3.3474 0)
(12.5444 -3.26897 0)
(12.4943 -3.1782 0)
(12.5036 -3.09347 0)
(12.4936 -2.99502 0)
(12.4831 -2.92189 0)
(12.4847 -2.82148 0)
(12.5433 -2.74564 0)
(12.5727 -2.64122 0)
(12.6305 -2.56198 0)
(12.6847 -2.46472 0)
(12.7734 -2.36406 0)
(12.8499 -2.25868 0)
(12.9252 -2.15888 0)
(13.0041 -2.03172 0)
(13.0877 -1.92478 0)
(13.1594 -1.79089 0)
(13.222 -1.66695 0)
(13.2677 -1.54223 0)
(13.3109 -1.41418 0)
(13.3257 -1.29586 0)
(13.3361 -1.18372 0)
(13.3159 -1.0722 0)
(13.2803 -0.987825 0)
(13.2359 -0.895944 0)
(13.1586 -0.842931 0)
(13.0618 -0.789799 0)
(12.9534 -0.75421 0)
(12.7979 -0.732303 0)
(12.6388 -0.727135 0)
(12.4684 -0.740666 0)
(12.3037 -0.8031 0)
(12.1251 -0.840025 0)
(11.9411 -0.902681 0)
(11.7405 -0.944012 0)
(11.555 -0.994967 0)
(11.3579 -1.06333 0)
(11.1707 -1.12381 0)
(10.9849 -1.20971 0)
(10.8263 -1.31269 0)
(10.6842 -1.41632 0)
(10.5895 -1.52665 0)
(10.5178 -1.66082 0)
(10.4823 -1.75974 0)
(10.512 -1.91044 0)
(10.5594 -2.02634 0)
(10.6484 -2.17671 0)
(10.7741 -2.31066 0)
(10.9544 -2.46016 0)
(11.1081 -2.58609 0)
(11.3461 -2.73235 0)
(11.5344 -2.83463 0)
(11.775 -2.95989 0)
(11.994 -3.0328 0)
(12.2606 -3.11051 0)
(12.4511 -3.15823 0)
(12.7159 -3.19598 0)
(12.9208 -3.18449 0)
(13.1661 -3.17772 0)
(13.3629 -3.11535 0)
(13.5864 -3.05049 0)
(13.7757 -2.93822 0)