/*--------------------------------*- C++ -*----------------------------------*\
| =========                 |                                                 |
| \\      /  F ield         | OpenFOAM: The Open Source CFD Toolbox           |
|  \\    /   O peration     | Version:  2.4.0                                 |
|   \\  /    A nd           | Web:      www.OpenFOAM.org                      |
|    \\/     M anipulation  |                                                 |
\*---------------------------------------------------------------------------*/
FoamFile
{
    version     2.0;
    format      ascii;
    class       volScalarField;
    location    "0.219";
    object      k_0;
}
// * * * * * * * * * * * * * * * * * * * * * * * * * * * * * * * * * * * * * //

dimensions      [0 2 -2 0 0 0 0];

internalField   nonuniform List<scalar> 
17600
(
9.30024
7.40641
5.13117
3.92001
3.36133
2.92131
2.7342
2.43839
2.35343
2.19937
2.11627
2.05177
1.96462
1.95627
1.84614
1.90276
1.81042
1.84566
2.00166
1.61983
4.51717
6.19738
5.84901
5.03646
4.44795
3.88814
3.65107
3.26792
3.14321
2.94689
2.8046
2.73813
2.60186
2.58239
2.44774
2.4909
2.37635
2.40307
2.48046
2.39301
1.3365
3.2708
4.00789
3.95328
3.78616
3.42386
3.26627
2.98229
2.85975
2.71928
2.56866
2.52233
2.39623
2.3763
2.25915
2.27843
2.18061
2.19966
2.16048
2.23431
0.210142
1.1875
1.94629
2.30246
2.5336
2.50038
2.47787
2.3967
2.30651
2.25402
2.13656
2.11179
2.02541
2.01225
1.92841
1.92927
1.86237
1.86592
1.78317
1.8661
0.0263283
0.254415
0.665406
0.933275
1.27052
1.41564
1.53378
1.61496
1.61123
1.62823
1.60191
1.59971
1.56795
1.56561
1.53452
1.52239
1.49543
1.48237
1.41095
1.44526
0.00278388
0.0423561
0.154126
0.244034
0.43072
0.57058
0.67741
0.83944
0.882773
0.968042
1.00378
1.03753
1.05525
1.0709
1.09088
1.07739
1.09285
1.07089
1.04481
1.03209
0.00029435
0.00621257
0.0255045
0.0457777
0.0921764
0.1603
0.200006
0.298102
0.342926
0.41065
0.481615
0.510595
0.566286
0.588751
0.646374
0.645254
0.681362
0.665002
0.669129
0.64669
5.39067e-05
0.000857761
0.0034837
0.00658532
0.0132717
0.0302187
0.0408
0.0707368
0.0895932
0.113535
0.160143
0.177064
0.21317
0.231484
0.279559
0.287107
0.328008
0.325151
0.335622
0.325011
2.74717e-05
0.00013548
0.000522338
0.00088668
0.00169127
0.0041424
0.00591642
0.0118011
0.0158696
0.0208764
0.034834
0.0412271
0.0535451
0.0608958
0.0806743
0.0854952
0.107568
0.109501
0.115587
0.1136
2.41428e-05
4.55451e-05
0.000122225
0.000166186
0.000265578
0.000599854
0.000821174
0.00172957
0.00224268
0.00292095
0.00518261
0.00638467
0.00871818
0.0104235
0.0153448
0.0166224
0.0227887
0.0239128
0.0253849
0.0243733
2.43865e-05
3.58719e-05
6.85024e-05
7.65279e-05
8.77576e-05
0.000126138
0.00016149
0.000311944
0.000381157
0.000458925
0.000736243
0.000849879
0.00106628
0.00131563
0.0021171
0.00228259
0.00326132
0.00354629
0.00360299
0.00330732
2.242e-05
3.21212e-05
6.44985e-05
7.18929e-05
6.62714e-05
6.33497e-05
6.44966e-05
7.92138e-05
0.00012776
0.000216388
0.000262464
0.000255694
0.000256371
0.000263199
0.000309581
0.00031177
0.000406567
0.000488338
0.000563143
0.000554319
2.24135e-05
3.22302e-05
6.08968e-05
5.83417e-05
5.37971e-05
5.31178e-05
5.37568e-05
6.05385e-05
0.000101616
0.000144912
0.000151653
0.000149629
0.000139263
0.000122827
0.000121157
0.00012181
0.000146028
0.000169686
0.000199714
0.000196
2.19095e-05
3.46409e-05
4.35854e-05
4.36078e-05
5.29589e-05
6.2355e-05
6.27132e-05
6.38769e-05
7.29847e-05
7.64039e-05
7.8313e-05
8.62405e-05
9.64602e-05
9.83595e-05
0.000103339
0.000104338
0.000109448
0.000106128
0.000108417
0.000112563
2.10718e-05
2.87623e-05
3.41242e-05
4.75895e-05
5.70011e-05
6.02407e-05
5.93545e-05
5.46461e-05
5.09977e-05
5.153e-05
5.84835e-05
7.99668e-05
8.7871e-05
9.14013e-05
9.11087e-05
8.04891e-05
7.59917e-05
7.33657e-05
7.52499e-05
9.14944e-05
2.09661e-05
2.63431e-05
3.76458e-05
4.84042e-05
4.90773e-05
4.85963e-05
4.61017e-05
4.50043e-05
4.48219e-05
4.77119e-05
6.25137e-05
7.15247e-05
7.28206e-05
7.1756e-05
6.63153e-05
6.12361e-05
6.22353e-05
6.36859e-05
6.63771e-05
8.12742e-05
2.09872e-05
2.67286e-05
3.6343e-05
3.74796e-05
4.07438e-05
4.53925e-05
4.64756e-05
4.60626e-05
4.5716e-05
4.58757e-05
4.9579e-05
5.22067e-05
5.46273e-05
5.4702e-05
5.54318e-05
5.81576e-05
6.51072e-05
6.36982e-05
6.28317e-05
7.41773e-05
2.06184e-05
2.66279e-05
3.369e-05
3.51871e-05
3.93592e-05
4.46195e-05
4.52529e-05
4.50059e-05
4.33981e-05
4.31275e-05
4.42129e-05
4.73429e-05
4.92428e-05
4.99004e-05
5.20602e-05
5.5629e-05
5.55955e-05
5.31024e-05
5.28991e-05
5.71434e-05
2.05252e-05
2.54235e-05
3.61165e-05
3.68751e-05
3.62504e-05
3.77075e-05
4.03044e-05
4.20236e-05
4.18082e-05
4.16049e-05
4.22892e-05
4.3487e-05
4.58101e-05
4.64969e-05
4.78731e-05
4.75747e-05
4.75552e-05
4.78239e-05
4.97024e-05
5.62265e-05
2.0559e-05
2.52858e-05
3.29281e-05
3.59164e-05
3.66338e-05
3.94001e-05
4.06431e-05
4.14339e-05
4.08887e-05
4.00942e-05
4.02564e-05
4.14125e-05
4.41122e-05
4.49875e-05
4.50359e-05
4.47195e-05
4.49062e-05
4.73083e-05
4.81738e-05
5.26761e-05
2.05594e-05
2.41242e-05
3.29414e-05
3.94525e-05
3.86393e-05
3.73893e-05
3.72684e-05
3.92409e-05
4.0552e-05
4.09898e-05
4.21896e-05
4.2801e-05
4.30765e-05
4.30331e-05
4.30452e-05
4.31223e-05
4.35606e-05
4.58547e-05
4.57579e-05
4.73281e-05
2.0578e-05
2.43968e-05
3.61283e-05
3.8429e-05
3.63641e-05
3.58435e-05
3.86684e-05
4.30127e-05
4.31821e-05
4.26045e-05
4.28516e-05
4.2304e-05
4.24312e-05
4.30587e-05
4.47153e-05
4.5181e-05
4.63244e-05
4.69185e-05
4.79411e-05
5.73931e-05
2.06647e-05
2.63159e-05
3.5499e-05
3.55137e-05
3.48964e-05
3.9381e-05
4.5084e-05
4.56688e-05
4.38842e-05
4.34735e-05
4.3755e-05
4.3717e-05
4.52269e-05
4.77684e-05
4.7787e-05
4.83344e-05
4.78817e-05
4.79618e-05
4.86446e-05
5.06844e-05
2.07835e-05
2.67623e-05
3.1996e-05
3.68689e-05
4.02896e-05
4.54772e-05
4.60868e-05
4.4916e-05
4.45606e-05
4.63567e-05
4.74951e-05
4.78712e-05
5.06104e-05
5.0458e-05
5.03458e-05
5.06176e-05
5.05402e-05
5.19422e-05
5.38329e-05
6.3527e-05
2.09333e-05
2.59816e-05
3.39337e-05
4.26285e-05
4.36973e-05
4.64028e-05
4.67454e-05
4.72045e-05
4.99521e-05
5.19696e-05
5.13816e-05
5.18636e-05
5.29274e-05
5.30301e-05
5.4637e-05
5.59229e-05
5.79589e-05
6.41654e-05
6.48645e-05
7.18654e-05
2.12151e-05
2.7326e-05
3.78383e-05
4.3753e-05
4.43164e-05
4.78372e-05
5.32888e-05
5.76938e-05
5.81868e-05
5.63936e-05
5.50229e-05
5.67387e-05
5.81199e-05
6.30771e-05
6.80732e-05
6.91125e-05
7.22903e-05
7.3676e-05
7.57965e-05
8.49624e-05
2.14332e-05
3.04327e-05
3.59606e-05
4.28592e-05
4.98845e-05
6.0569e-05
6.6867e-05
6.74022e-05
6.48762e-05
6.21735e-05
6.33088e-05
6.78566e-05
7.19437e-05
8.44987e-05
8.57015e-05
8.69632e-05
9.09314e-05
9.73178e-05
0.000116846
0.000179349
2.17236e-05
2.95156e-05
3.61634e-05
5.29141e-05
6.93256e-05
7.67984e-05
7.95449e-05
7.68223e-05
7.31765e-05
7.37137e-05
8.04411e-05
8.98143e-05
0.000104615
0.000122024
0.000124563
0.000137408
0.000165997
0.000229772
0.000377986
0.000775259
2.31268e-05
2.9171e-05
4.78774e-05
7.79118e-05
9.46809e-05
9.46998e-05
9.67297e-05
9.37287e-05
9.79877e-05
0.000111783
0.000147697
0.000172882
0.00022402
0.000305878
0.000353037
0.000518667
0.000772489
0.00133632
0.00231089
0.00520563
2.37769e-05
3.25746e-05
8.2386e-05
0.000125851
0.000133258
0.000144316
0.000165911
0.000186657
0.000277225
0.000454241
0.00061055
0.000843376
0.00113786
0.00188623
0.00238608
0.00390845
0.00556299
0.00935468
0.0139792
0.0282236
2.47435e-05
4.87908e-05
0.000177744
0.000272252
0.000304341
0.000490284
0.000803009
0.00110336
0.00204778
0.00351332
0.00458716
0.00661847
0.0086944
0.0139581
0.0170061
0.0254912
0.0327158
0.0492472
0.0645777
0.113032
2.86902e-05
0.000146559
0.000583805
0.00116158
0.0016266
0.00353649
0.00679556
0.00930042
0.0162979
0.0249632
0.0312874
0.0426089
0.0525598
0.0750326
0.0856105
0.113171
0.134382
0.179212
0.212864
0.316006
5.0984e-05
0.000861514
0.00322783
0.00811132
0.0126328
0.026896
0.0475732
0.0605909
0.0955633
0.122399
0.151162
0.181486
0.215407
0.264315
0.286803
0.34087
0.381888
0.44777
0.493755
0.611969
0.000286723
0.00614855
0.0233303
0.0541813
0.0828534
0.154374
0.223781
0.266028
0.365659
0.414071
0.476778
0.519816
0.578132
0.631617
0.657632
0.715951
0.758859
0.812019
0.852445
0.947213
0.0027743
0.0424507
0.148184
0.268099
0.39449
0.583686
0.707372
0.794116
0.918812
0.958342
1.01729
1.03749
1.08229
1.10186
1.11708
1.14449
1.17161
1.19048
1.2191
1.26566
0.0261557
0.256999
0.656583
0.956206
1.2366
1.43853
1.54275
1.59186
1.63301
1.62042
1.6203
1.59598
1.59571
1.57632
1.56982
1.55438
1.55474
1.54248
1.54364
1.53706
0.20803
1.18791
1.93969
2.31154
2.52198
2.5147
2.47663
2.39453
2.31967
2.22353
2.17864
2.08265
2.05725
1.98867
1.96481
1.90627
1.88364
1.82904
1.79677
1.74387
1.32272
3.27824
4.00583
3.95243
3.78505
3.44304
3.23189
3.01674
2.84609
2.69618
2.60697
2.46911
2.4225
2.31108
2.27253
2.17118
2.1224
2.01658
1.94251
1.82828
4.50276
6.20277
5.85179
5.0266
4.45635
3.90124
3.60603
3.31962
3.10608
2.9315
2.82132
2.66909
2.60653
2.46426
2.41635
2.27745
2.20136
2.04579
1.9323
1.74143
9.28224
7.40494
5.13954
3.91009
3.36856
2.93021
2.69684
2.47455
2.32061
2.18536
2.1037
1.99592
1.94011
1.81666
1.77554
1.64936
1.56732
1.41496
1.29767
1.09975
0.898815
0.893386
0.877431
0.795055
0.761927
0.784635
0.484026
0.364937
0.368845
0.316121
0.289781
0.314813
0.370014
0.401327
0.396978
0.353887
0.283028
0.224979
0.189238
0.180122
0.180736
0.199495
0.220711
0.224631
0.219392
0.205127
0.16588
0.0836546
0.0335551
0.0143083
0.00649394
0.00337543
0.00244909
0.00242049
0.00259221
0.00305218
0.00495722
0.00642815
0.00713581
0.0100292
0.012837
0.0143568
0.0165917
0.0195752
0.0301432
0.04081
0.0525741
0.0951944
0.217618
0.245397
0.228972
0.147153
0.0856197
0.0605191
0.0517744
0.0493832
0.0493555
0.050637
0.0516037
0.0517509
0.051389
0.0505304
0.046059
0.039359
0.035124
0.0323627
0.0309283
0.0306186
0.0308075
0.0314794
0.0370403
0.0474914
0.0681742
0.0875075
0.0959945
0.114374
0.131542
0.129017
0.112688
0.117774
0.135835
0.132763
0.094733
0.0631961
0.0517928
0.0484628
0.0431126
0.0343363
0.0320514
0.0341775
0.0357934
0.0340615
0.0275052
0.0224072
0.0203251
0.0208642
0.021638
0.0213525
0.0224559
0.0245585
0.0247544
0.0240106
0.0239483
0.0254193
0.0316873
0.0481299
0.110893
0.166605
0.180253
0.167064
0.108548
0.0714421
0.0609204
0.0626337
0.0667381
0.0691462
0.0664624
0.0653758
0.0643125
0.0590163
0.0560988
0.0573501
0.0640221
0.0741385
0.07793
0.0769995
0.0713845
0.0665278
0.0604758
0.0496218
0.0378156
0.0292679
0.0231837
0.0185596
0.0150443
0.0127158
0.0107284
0.00944518
0.00915239
0.00963724
0.0119236
0.012551
0.0123541
0.0113169
0.0115505
0.013213
0.0213453
0.0267952
0.027757
0.0278535
0.0297837
0.033807
0.0424959
0.0552602
0.0691222
0.0756124
0.0983707
0.10131
0.1104
0.108804
0.0813896
0.0505273
0.039204
0.0333601
0.0253087
0.0183839
0.0146408
0.0137553
0.0138641
0.0145392
0.0166266
0.0201476
0.0253521
0.0303743
0.0324327
0.0344423
0.0379587
0.0526496
0.067002
0.0715049
0.0693466
0.0545807
0.0381042
0.0338453
0.0373553
0.0445622
0.0551874
0.0545155
0.0663744
0.0723438
0.0843122
0.0830965
0.0796367
0.0755728
0.0631242
0.0612501
0.0806969
0.0873746
0.0824873
0.108491
1.82828
1.39718
1.13644
1.05334
0.834243
0.919279
0.845254
0.712635
0.617905
0.541599
0.492157
0.471552
0.486317
0.463771
0.407256
0.352491
0.286774
0.233173
0.20469
0.198346
0.200547
0.225887
0.241809
0.236075
0.218419
0.172596
0.0789059
0.0342827
0.0145256
0.00647577
0.00327595
0.0020512
0.00183368
0.00189671
0.00221155
0.00287883
0.00487652
0.00656167
0.00725553
0.00994308
0.0130026
0.0146778
0.017014
0.0181939
0.0224422
0.031446
0.0416789
0.0693242
0.192518
0.243457
0.235907
0.168428
0.0961275
0.0646699
0.0536166
0.0504863
0.0500553
0.0510352
0.0519648
0.0520357
0.0516616
0.0499566
0.0433949
0.037477
0.0336097
0.031395
0.0305404
0.0304813
0.030904
0.031997
0.0379081
0.0484891
0.0690998
0.0904908
0.0994332
0.116516
0.135332
0.133665
0.117689
0.12436
0.14249
0.137253
0.0938103
0.0615201
0.0501001
0.0469719
0.0422323
0.0340613
0.0323439
0.0348366
0.0361291
0.0330667
0.0255076
0.0212976
0.0199328
0.0207732
0.022171
0.0216444
0.0218969
0.0238603
0.02437
0.0239399
0.0238827
0.0250756
0.0305216
0.0450898
0.102331
0.157635
0.173897
0.166218
0.11915
0.0740575
0.0598285
0.0573944
0.0595243
0.0630608
0.0638227
0.06279
0.0576875
0.0528294
0.0515839
0.0549423
0.066962
0.0767434
0.0784737
0.0763012
0.0704973
0.068019
0.0633912
0.051794
0.0383485
0.0289396
0.0224937
0.0176972
0.0145151
0.0125923
0.0107429
0.00947411
0.00915101
0.00970371
0.0111141
0.0110859
0.0103834
0.010108
0.01113
0.0151756
0.0262955
0.0310396
0.0311935
0.0308367
0.0324707
0.0370676
0.0446888
0.0588159
0.069548
0.0805982
0.108813
0.111898
0.125376
0.126318
0.0955494
0.0589344
0.0490382
0.0445722
0.0334119
0.0217389
0.0154383
0.013131
0.0127988
0.0131099
0.0143655
0.0178856
0.022332
0.0278937
0.0314254
0.0335957
0.0366872
0.0501497
0.065903
0.0720016
0.0712791
0.0567101
0.0395772
0.0338617
0.0372075
0.042895
0.0514085
0.0533495
0.0651522
0.0740675
0.0841561
0.0813471
0.0772251
0.0678822
0.0581774
0.0621298
0.0708177
0.0816732
0.0820701
0.103628
1.89298
1.53482
1.17542
1.10057
0.888115
0.883112
0.885255
0.84114
0.704029
0.668203
0.624783
0.540907
0.503763
0.46015
0.416736
0.371379
0.316482
0.264425
0.234841
0.232015
0.249261
0.265158
0.259059
0.231933
0.168516
0.0736939
0.0320532
0.0143778
0.00637249
0.00309719
0.00190492
0.00150185
0.00152193
0.00168392
0.00210797
0.0029059
0.00472591
0.006986
0.00798139
0.0106409
0.0136792
0.0148526
0.0176334
0.0179375
0.0190893
0.0238709
0.0329735
0.0522856
0.156451
0.238484
0.239022
0.188428
0.110014
0.0706412
0.0557217
0.0510345
0.0505367
0.0512322
0.0519544
0.0519235
0.0506324
0.0461452
0.0404308
0.0356126
0.0325376
0.0309578
0.0304681
0.0305276
0.0313995
0.0331369
0.0394485
0.0502964
0.0706246
0.0933453
0.103009
0.119206
0.138925
0.137787
0.12264
0.130875
0.149156
0.141691
0.0927696
0.0596856
0.0481544
0.045272
0.0419486
0.0340278
0.0327082
0.035693
0.0366779
0.0321529
0.02396
0.0203559
0.0192864
0.020206
0.0225652
0.0220524
0.0218605
0.0231829
0.0240498
0.0238599
0.0238494
0.0249339
0.0296818
0.0425496
0.0943011
0.149275
0.16736
0.163611
0.12734
0.0815517
0.06043
0.0556198
0.0554538
0.0572132
0.0573496
0.0553001
0.0510654
0.0481849
0.0478791
0.054818
0.0694306
0.0777502
0.0783651
0.0739563
0.0695988
0.0683674
0.06588
0.0541065
0.0386657
0.0286289
0.0218198
0.0166435
0.0137638
0.0123134
0.0107035
0.00942417
0.00904276
0.00937051
0.00973737
0.00940516
0.00918163
0.00959913
0.0116964
0.0199036
0.0304697
0.0344565
0.0340835
0.0336375
0.0354288
0.0402338
0.0461292
0.0609893
0.0714896
0.0891747
0.117308
0.125041
0.149056
0.153028
0.117779
0.0755166
0.0663284
0.0633787
0.0521698
0.0297049
0.0178675
0.0134505
0.0122338
0.0123392
0.0130368
0.0155803
0.0206103
0.0251856
0.0297759
0.0322802
0.035713
0.0478748
0.0658641
0.0719855
0.0723381
0.0579461
0.0393948
0.0335035
0.0354258
0.0421408
0.048932
0.0496047
0.0538657
0.0712578
0.0770347
0.0776591
0.0700615
0.0611451
0.0568377
0.0660254
0.0678993
0.0733131
0.0779437
0.087613
1.62939
1.40123
1.09148
0.995593
0.85577
0.768502
0.772997
0.758807
0.684351
0.657728
0.624481
0.53633
0.413497
0.356234
0.334172
0.328427
0.322483
0.299601
0.284732
0.281941
0.28162
0.272971
0.241891
0.15258
0.0673744
0.029655
0.0130455
0.00605052
0.00300146
0.0017563
0.00136741
0.00128083
0.00136326
0.00162025
0.00207251
0.00319145
0.00497391
0.00740971
0.00857342
0.0110571
0.0144813
0.0161534
0.0182574
0.0179587
0.0177606
0.0199076
0.0271907
0.0425112
0.121355
0.228297
0.240208
0.210449
0.124569
0.0786105
0.0588102
0.0518234
0.0498394
0.0499804
0.0497366
0.0485222
0.044706
0.040898
0.0371909
0.0338164
0.0317378
0.0307657
0.0306737
0.031079
0.0327404
0.0347194
0.0410503
0.0527469
0.0728675
0.0969357
0.107197
0.12236
0.142591
0.141728
0.127057
0.137607
0.155819
0.145661
0.0910605
0.057458
0.046574
0.0446753
0.0420217
0.0343565
0.0334207
0.0370692
0.0377003
0.0313556
0.0224553
0.0193159
0.0183083
0.0189984
0.0222905
0.0220398
0.021802
0.0227253
0.0236804
0.0237191
0.0238023
0.0248098
0.0290769
0.0405474
0.0874964
0.141125
0.160146
0.158966
0.132331
0.0890968
0.0643993
0.0559128
0.0527581
0.0524915
0.0515532
0.0495746
0.0469835
0.0451143
0.0454482
0.0561938
0.0707944
0.0779615
0.0777746
0.0722667
0.0685919
0.0682267
0.0675058
0.0559803
0.0387611
0.0281971
0.0209693
0.0156133
0.0130056
0.0119922
0.0105497
0.00915071
0.00874837
0.00883854
0.0088003
0.00861956
0.00871904
0.00953511
0.0140409
0.0252501
0.0332442
0.0356694
0.0350441
0.0352911
0.0382415
0.0426033
0.0477417
0.0625066
0.0762411
0.0959901
0.126978
0.145551
0.180857
0.182791
0.143275
0.0981538
0.0927906
0.0931687
0.0823749
0.0450255
0.0231116
0.0148002
0.0121853
0.0118157
0.0121359
0.0139815
0.0182704
0.0232995
0.0277017
0.0309568
0.0345328
0.0465152
0.0650221
0.0716166
0.071102
0.0575194
0.0394622
0.0344188
0.0356817
0.0402598
0.0482174
0.0478514
0.0514726
0.0609866
0.0700846
0.0689282
0.0640208
0.0573423
0.0575658
0.066764
0.0686384
0.0741664
0.075031
0.0766214
1.28691
1.10671
0.940927
0.828924
0.728466
0.641665
0.624277
0.601245
0.540084
0.52571
0.51418
0.477363
0.363949
0.291981
0.248967
0.232143
0.246275
0.268753
0.276155
0.274009
0.258775
0.220704
0.124013
0.0560789
0.025697
0.0117113
0.00542069
0.00282547
0.00173112
0.00127496
0.00117214
0.00119098
0.00131144
0.00168913
0.00226716
0.00384021
0.00592641
0.00880325
0.0103927
0.0122714
0.0141925
0.0171265
0.0189295
0.0184659
0.0172582
0.0182082
0.0238967
0.0371369
0.0954659
0.214632
0.240625
0.22445
0.147181
0.0879269
0.0624744
0.0528073
0.0481246
0.045829
0.0439255
0.0414282
0.0383518
0.0360098
0.0342932
0.032295
0.0311479
0.0310045
0.0314249
0.0327901
0.03501
0.0370267
0.0432767
0.0555972
0.0761738
0.100918
0.111712
0.125901
0.146333
0.145643
0.131254
0.143665
0.16278
0.149046
0.0891408
0.0556128
0.046194
0.0446339
0.0429093
0.035209
0.0344746
0.0387515
0.038921
0.030688
0.0215837
0.0184216
0.0172603
0.0178617
0.0217875
0.0218861
0.0216209
0.0223519
0.0234684
0.0235966
0.0237776
0.0247959
0.0286561
0.0388323
0.0805092
0.133913
0.153774
0.153816
0.134384
0.0947518
0.0695367
0.0581863
0.0520752
0.0491505
0.0479085
0.0466517
0.0447299
0.0431493
0.0446356
0.0580686
0.0716494
0.0777376
0.0772756
0.0720114
0.0686621
0.0686567
0.0682304
0.0565907
0.0388175
0.028073
0.0202226
0.0151069
0.0127956
0.0117976
0.0102111
0.00889509
0.00867211
0.00871006
0.00856358
0.00843197
0.00862309
0.0104107
0.0200031
0.0285707
0.0347292
0.035858
0.0352015
0.0359457
0.0395068
0.0435397
0.0496184
0.0652802
0.082455
0.102195
0.136336
0.180651
0.189843
0.189299
0.163389
0.121162
0.1213
0.128916
0.117677
0.0670147
0.0324634
0.0176326
0.0128035
0.0116767
0.0116904
0.0127887
0.0162985
0.0215776
0.0260525
0.0296783
0.0329742
0.0448423
0.0642528
0.0700309
0.0699462
0.0589199
0.0412838
0.0350606
0.0363968
0.0392395
0.0447263
0.0444617
0.0506625
0.05675
0.0637188
0.0645102
0.0618443
0.0570351
0.057961
0.0634497
0.0653159
0.0715402
0.0753396
0.065712
0.930413
0.797967
0.673054
0.620623
0.553995
0.482582
0.468365
0.451133
0.403332
0.374931
0.363635
0.342821
0.270595
0.205778
0.154623
0.123046
0.124064
0.149492
0.163165
0.15929
0.141543
0.0852292
0.042371
0.0205212
0.0100097
0.00483
0.00260487
0.00168255
0.00127694
0.00111863
0.00110616
0.00116489
0.00134775
0.00200808
0.00295195
0.005011
0.00864913
0.0107721
0.0125253
0.0155899
0.016276
0.0177022
0.0194556
0.0189523
0.0171825
0.0175465
0.0221772
0.0342038
0.0790154
0.200619
0.242858
0.23703
0.182239
0.106676
0.0701771
0.0550864
0.048404
0.0435457
0.0396955
0.0362483
0.0335956
0.0327224
0.0322784
0.0314291
0.0312918
0.0319036
0.0337395
0.0357753
0.0378575
0.039883
0.0462962
0.0593172
0.0801432
0.105462
0.11661
0.129311
0.149578
0.148987
0.135178
0.149782
0.169352
0.151996
0.0867499
0.0548565
0.0461505
0.0452243
0.0442131
0.0362525
0.0350857
0.0401541
0.0399786
0.0299725
0.0210619
0.018096
0.0166315
0.0169354
0.0209418
0.0215711
0.0214992
0.0219766
0.0231374
0.023447
0.0237589
0.0248286
0.0283728
0.0375259
0.0745493
0.126604
0.147469
0.148336
0.134351
0.0988124
0.0736367
0.0606719
0.0522521
0.0476704
0.0466075
0.0454996
0.0434321
0.0420125
0.0447639
0.0594806
0.0721074
0.0776907
0.0769649
0.071966
0.0696248
0.0698048
0.0692118
0.05656
0.0389465
0.0281715
0.0200693
0.0150763
0.0129196
0.0115884
0.00978783
0.00879393
0.008707
0.00871799
0.00850785
0.00841423
0.00883711
0.0125916
0.0240839
0.0302591
0.0353277
0.0353835
0.0350393
0.0363259
0.0400739
0.0437998
0.0515677
0.0693762
0.089759
0.104842
0.149633
0.202101
0.190905
0.183153
0.166618
0.126431
0.133095
0.153904
0.148741
0.0917545
0.0425671
0.0214709
0.0140247
0.011764
0.0114954
0.0121054
0.0148307
0.0194897
0.0247024
0.0282503
0.0321307
0.0433199
0.0636828
0.0695559
0.0699577
0.0612835
0.0416033
0.036284
0.0365946
0.0389251
0.0420131
0.0452671
0.0475216
0.0535586
0.0606644
0.063049
0.0618202
0.0575269
0.0570393
0.0575497
0.0584717
0.0604385
0.0655769
0.0616996
0.58712
0.517432
0.420523
0.392838
0.359735
0.310154
0.294994
0.281382
0.254155
0.226587
0.217519
0.20491
0.156787
0.104366
0.0668215
0.0438249
0.0399193
0.044699
0.0487669
0.0477134
0.042925
0.0262815
0.014675
0.00792873
0.00419179
0.00236876
0.00162443
0.00127842
0.00111451
0.00107696
0.00108999
0.00122465
0.00162728
0.00295962
0.00463283
0.00678435
0.0125537
0.0164816
0.0172654
0.0176358
0.0180006
0.0188319
0.0201966
0.0197444
0.0173238
0.0172071
0.0209962
0.0326398
0.0679409
0.188309
0.244614
0.244685
0.215622
0.132707
0.0818636
0.059826
0.0496573
0.0435727
0.0384036
0.0342328
0.0317986
0.0311833
0.0311425
0.0312631
0.0324887
0.0352717
0.0376124
0.0393056
0.0412126
0.043258
0.0500645
0.0635114
0.0852611
0.110605
0.121894
0.133499
0.153067
0.152244
0.138945
0.156068
0.175632
0.154229
0.0852573
0.0544471
0.0465452
0.0466039
0.0459334
0.0366573
0.0350261
0.0409413
0.0408245
0.029742
0.0208928
0.0179656
0.0163782
0.0166129
0.0202228
0.0211295
0.0212445
0.0217059
0.0227971
0.0232323
0.023751
0.024915
0.0284586
0.0366732
0.0687773
0.12022
0.1414
0.143194
0.133396
0.101656
0.0766042
0.0623209
0.052506
0.0474406
0.0464235
0.0450688
0.0427891
0.0416659
0.0454366
0.0601729
0.0725205
0.0777342
0.0768339
0.0726391
0.0711925
0.0715835
0.0701541
0.0556625
0.0388607
0.0283632
0.0200613
0.0151391
0.0131643
0.011503
0.00962022
0.008785
0.00877455
0.00876481
0.00850894
0.0085008
0.00930987
0.017038
0.0263362
0.0314742
0.0353336
0.034517
0.0345399
0.0366114
0.0401645
0.0441855
0.0539202
0.0744255
0.0926473
0.105973
0.162655
0.210093
0.189577
0.175044
0.158813
0.124356
0.136382
0.163049
0.159257
0.10804
0.0523036
0.0254106
0.0151955
0.0120097
0.0114048
0.0116864
0.0135101
0.0181418
0.0232722
0.0270868
0.0305948
0.0430227
0.0611982
0.0696022
0.0692921
0.0605946
0.0436494
0.0363248
0.0388879
0.0396071
0.0474084
0.0456979
0.0482707
0.0490281
0.0546242
0.0614432
0.0617578
0.0592879
0.0563618
0.0551488
0.0565293
0.0569927
0.0586944
0.0596053
0.292248
0.246245
0.193373
0.182628
0.168864
0.148207
0.131842
0.119738
0.1078
0.090315
0.0843392
0.0784969
0.0579507
0.0359999
0.0222552
0.014156
0.0117731
0.0122638
0.0144571
0.0147231
0.0136877
0.00923992
0.00576025
0.00339775
0.00205055
0.00149224
0.00125872
0.00111826
0.00105998
0.00107018
0.00114426
0.00148531
0.00252685
0.00510111
0.00834543
0.011782
0.018597
0.0236097
0.0255026
0.0239858
0.0220105
0.0209142
0.0207693
0.0204766
0.0178465
0.0169913
0.0195573
0.0304293
0.0578191
0.167559
0.248993
0.256558
0.240787
0.174498
0.107967
0.0696688
0.053267
0.0445823
0.0386131
0.0341992
0.0317607
0.0310268
0.0309112
0.0322023
0.0363334
0.0399362
0.0423551
0.0436848
0.0453334
0.0473847
0.0548906
0.0685024
0.0910033
0.116481
0.127628
0.137092
0.155863
0.154621
0.142685
0.163025
0.181827
0.156102
0.0845972
0.0543031
0.0477066
0.0481881
0.0469628
0.0366243
0.0346562
0.0416023
0.0417252
0.0297339
0.0209056
0.0180852
0.0163298
0.016464
0.0195535
0.0207328
0.0211715
0.021637
0.0224461
0.0230669
0.0237415
0.0250924
0.0286694
0.0361422
0.0630956
0.113895
0.136718
0.138774
0.13144
0.103275
0.0788549
0.0633455
0.0527173
0.0477123
0.0464059
0.0448727
0.042585
0.0416885
0.0459831
0.0609675
0.0737806
0.078111
0.0768397
0.0737021
0.0730218
0.0734288
0.0709733
0.0542597
0.0387106
0.0283887
0.0199378
0.0151618
0.0133097
0.0114164
0.00951498
0.00890125
0.00895831
0.00892004
0.00860599
0.00869173
0.0100185
0.0203076
0.0277126
0.0321448
0.0337669
0.0328793
0.0333681
0.0365899
0.0398826
0.0445656
0.0560241
0.081213
0.0933519
0.110542
0.168896
0.213244
0.191645
0.175192
0.151941
0.127351
0.145773
0.173647
0.166624
0.11032
0.056359
0.0286222
0.0165287
0.0123074
0.0113553
0.0114373
0.0126599
0.0173452
0.0216634
0.0253638
0.0290677
0.0422205
0.0610953
0.0682904
0.0687789
0.0612748
0.0473997
0.0378407
0.0399052
0.0404275
0.0473709
0.0484304
0.048235
0.0488557
0.0503534
0.0556158
0.060346
0.0589896
0.0562676
0.054915
0.0559093
0.0580849
0.0597513
0.0595395
0.101118
0.0809763
0.063558
0.0609556
0.0561277
0.0490171
0.0423565
0.0353441
0.0316615
0.0269762
0.0248045
0.0232751
0.0171784
0.0101982
0.00624995
0.00402428
0.0031781
0.00338922
0.00457896
0.00480621
0.00441821
0.00348708
0.00253422
0.00166831
0.00128231
0.00117259
0.00111276
0.00104767
0.00104878
0.00110618
0.00138694
0.00224734
0.00502552
0.00962388
0.0165574
0.0217539
0.03013
0.0331102
0.0345971
0.0328451
0.0268887
0.0241524
0.0219718
0.0212796
0.0185251
0.016867
0.0180491
0.0255659
0.0452347
0.134954
0.244065
0.270731
0.262509
0.218151
0.141165
0.0922136
0.0626401
0.0482286
0.0401951
0.035231
0.0325487
0.0315802
0.0316155
0.0352882
0.0416883
0.0455866
0.047534
0.048589
0.05007
0.0521227
0.0605792
0.0745036
0.0979053
0.12271
0.133182
0.140595
0.158247
0.156995
0.145915
0.169105
0.188251
0.158165
0.0841828
0.0544485
0.0489683
0.048766
0.0470472
0.0357516
0.0337809
0.0423501
0.0429535
0.0302389
0.0215028
0.0192251
0.0167509
0.016534
0.0190473
0.0206123
0.0212854
0.0217091
0.0221009
0.0228109
0.0237666
0.0253884
0.0292423
0.0358953
0.0583103
0.106973
0.131014
0.134572
0.129239
0.105594
0.0811056
0.0644022
0.0528769
0.048192
0.0463875
0.0447701
0.0425808
0.0419134
0.0464919
0.0624952
0.0752771
0.0786954
0.0770891
0.0751478
0.0751872
0.0756863
0.0711879
0.0524477
0.0384055
0.0281615
0.0196601
0.0150629
0.0133309
0.0112377
0.00946843
0.00906423
0.00919069
0.00913594
0.00890619
0.00908606
0.0111502
0.0228319
0.0286761
0.0321633
0.0316542
0.0305755
0.0319136
0.0364356
0.0392771
0.0453056
0.0585538
0.086823
0.0933925
0.12888
0.182585
0.222421
0.197967
0.18173
0.16486
0.149933
0.177133
0.203454
0.185309
0.1084
0.0545633
0.0281889
0.0167514
0.0125267
0.011318
0.0114128
0.012204
0.016069
0.0205833
0.024235
0.0286825
0.0411738
0.0610946
0.067209
0.0678725
0.0660088
0.0506823
0.0411161
0.0412187
0.0426161
0.0471875
0.050149
0.0505796
0.0508781
0.0506106
0.0531694
0.0565196
0.0568271
0.0553059
0.0536541
0.0537914
0.0577229
0.0591182
0.0580534
0.0214552
0.0177291
0.0156414
0.0152087
0.0134832
0.0113519
0.00936583
0.00737002
0.00697001
0.00667877
0.00624806
0.00583332
0.00391576
0.0024468
0.00174544
0.00125855
0.00115093
0.00143355
0.0016533
0.00165871
0.00160806
0.00162056
0.00138018
0.00108878
0.00104586
0.00105378
0.00104863
0.00101528
0.00105264
0.00127534
0.0021224
0.00432787
0.0116385
0.0182249
0.0323767
0.0413864
0.0470291
0.0464453
0.0462946
0.0446126
0.0353875
0.0295579
0.0245891
0.0222834
0.0193095
0.0170027
0.0172318
0.0211452
0.033252
0.077364
0.217256
0.283212
0.28277
0.259351
0.180769
0.116402
0.0799797
0.0575037
0.0448408
0.0385815
0.0356314
0.0351315
0.0361974
0.0405137
0.0470202
0.0511288
0.0528812
0.0538344
0.0553352
0.057632
0.0673496
0.0813701
0.105551
0.129476
0.138673
0.144034
0.160109
0.158727
0.148678
0.174788
0.194083
0.160271
0.0840346
0.0550438
0.0493137
0.0487565
0.0466352
0.0350567
0.0327267
0.0428221
0.0442233
0.0311528
0.0223874
0.0213455
0.0182341
0.0168613
0.0179899
0.0205465
0.0220286
0.0220296
0.0220996
0.0225214
0.0237592
0.0261366
0.0299367
0.0358554
0.0539101
0.100753
0.125885
0.130432
0.127141
0.107387
0.0837213
0.0655403
0.0531146
0.0487503
0.0464608
0.0447862
0.0426581
0.042267
0.0473045
0.0649041
0.0772658
0.0794894
0.0777827
0.0771478
0.0778544
0.0781263
0.0703778
0.0506306
0.0378542
0.0275848
0.0190659
0.01489
0.0131963
0.0111345
0.00959912
0.00939043
0.00957807
0.00947672
0.00939466
0.00966235
0.0127628
0.0246695
0.0292858
0.0314603
0.0296005
0.0282632
0.0307344
0.0350139
0.0384406
0.0473495
0.061032
0.0884732
0.0930838
0.17628
0.206588
0.2329
0.201809
0.198923
0.239267
0.214269
0.239198
0.257875
0.216421
0.102767
0.0490349
0.0262374
0.0167656
0.0124389
0.0114333
0.0113528
0.0120322
0.0151281
0.0200186
0.0230248
0.0282548
0.0416717
0.0575577
0.0677247
0.067787
0.0650476
0.0487664
0.0469407
0.0461219
0.0440576
0.0491605
0.0503386
0.050739
0.0523488
0.0527809
0.0535332
0.054062
0.05461
0.0540322
0.0516502
0.0512885
0.0535802
0.0554171
0.0548056
0.00317621
0.00319644
0.00279244
0.00269613
0.00228744
0.00185841
0.00163371
0.00164669
0.00173688
0.00171453
0.00160197
0.00126974
0.00090997
0.000823974
0.000758575
0.000632213
0.000652182
0.000688974
0.000668884
0.000757863
0.000953715
0.00102755
0.000914216
0.000892119
0.000945728
0.000983265
0.000952765
0.000951424
0.00111772
0.0018294
0.00410963
0.00977935
0.0254804
0.0372472
0.0594283
0.0719477
0.0718828
0.0671588
0.0623339
0.0579369
0.0449957
0.035277
0.0274289
0.0234229
0.0201781
0.0172946
0.0170243
0.0190943
0.0261643
0.0477222
0.159317
0.271202
0.304076
0.295414
0.254356
0.158246
0.103554
0.0715778
0.0537777
0.0479209
0.0452157
0.0441404
0.0447186
0.0467675
0.0521694
0.0562633
0.058296
0.0595198
0.061526
0.0643408
0.0751473
0.0893203
0.11396
0.136633
0.143813
0.147209
0.16072
0.159188
0.15117
0.180275
0.19925
0.162696
0.0840861
0.0550453
0.0491998
0.048361
0.0461688
0.0351706
0.03223
0.042717
0.0452525
0.0322784
0.0227374
0.0236265
0.0210835
0.017421
0.0177283
0.0207326
0.0226163
0.0222868
0.0221172
0.0224796
0.0238121
0.0265201
0.0307533
0.0361218
0.0506419
0.0937829
0.121022
0.126626
0.124791
0.111224
0.0864787
0.0666242
0.054087
0.0500836
0.0470745
0.04505
0.043005
0.0427367
0.0496115
0.0689285
0.0795263
0.0803528
0.0790442
0.0792022
0.0807728
0.0805642
0.0686298
0.0489915
0.0367974
0.0264724
0.0181917
0.0145229