/*--------------------------------*- C++ -*----------------------------------*\
| =========                 |                                                 |
| \\      /  F ield         | OpenFOAM: The Open Source CFD Toolbox           |
|  \\    /   O peration     | Version:  2.4.0                                 |
|   \\  /    A nd           | Web:      www.OpenFOAM.org                      |
|    \\/     M anipulation  |                                                 |
\*---------------------------------------------------------------------------*/
FoamFile
{
    version     2.0;
    format      ascii;
    class       volScalarField;
    location    "0.219";
    object      nuSgs;
}
// * * * * * * * * * * * * * * * * * * * * * * * * * * * * * * * * * * * * * //

dimensions      [0 2 -1 0 0 0 0];

internalField   nonuniform List<scalar> 
17600
(
0.0010135
0.000904487
0.000752808
0.000657988
0.000609335
0.000568
0.000549513
0.000519065
0.00050972
0.000492986
0.000483376
0.000476098
0.000465698
0.000464913
0.000451433
0.000458383
0.000447026
0.000451017
0.000469929
0.000423678
0.000706321
0.000827379
0.000803755
0.000745833
0.00070093
0.000655292
0.000634995
0.000600912
0.000589054
0.000570677
0.000556461
0.000549953
0.000536009
0.000534138
0.000519877
0.00052455
0.000512318
0.000514951
0.000523649
0.00051369
0.000384175
0.000601079
0.000665337
0.00066079
0.000646674
0.000614964
0.00060057
0.000574064
0.000561854
0.000548183
0.000532578
0.000527789
0.000514436
0.000512367
0.000499492
0.000501677
0.000490822
0.000492825
0.000488756
0.000496433
0.000152335
0.000362168
0.000463656
0.000504298
0.000528979
0.000525572
0.000523105
0.000514582
0.000504606
0.000498991
0.000485805
0.000482942
0.00047295
0.00047146
0.00046152
0.00046163
0.000453587
0.000454032
0.00044394
0.000454345
5.39214e-05
0.000167616
0.000271133
0.000321097
0.000374489
0.000395606
0.000411446
0.000422391
0.00042186
0.000424062
0.000420643
0.000420348
0.000416128
0.000415829
0.00041172
0.000410085
0.000406396
0.000404764
0.000394801
0.000400307
1.75336e-05
6.83872e-05
0.000130521
0.000164204
0.000217862
0.000251383
0.000273358
0.000304472
0.000312302
0.00032692
0.000333005
0.00033856
0.00034139
0.000343864
0.000347163
0.000344992
0.000347432
0.000344185
0.000339647
0.000337918
5.70033e-06
2.61846e-05
5.31187e-05
7.11324e-05
0.000100501
0.000133357
0.000148788
0.000181308
0.000194707
0.000212746
0.000230667
0.000237584
0.000250102
0.000254965
0.000267224
0.000266984
0.000274351
0.000271216
0.000272062
0.000267366
2.43794e-06
9.72711e-06
1.9631e-05
2.6964e-05
3.81805e-05
5.78389e-05
6.72478e-05
8.83119e-05
9.96737e-05
0.000111643
0.000132974
0.00013993
0.000153526
0.000159898
0.00017576
0.000178084
0.000190342
0.000189684
0.000192842
0.000189778
1.74141e-06
3.86747e-06
7.59501e-06
9.88207e-06
1.36146e-05
2.14151e-05
2.56089e-05
3.60692e-05
4.20102e-05
4.79666e-05
6.18538e-05
6.74819e-05
7.70117e-05
8.20564e-05
9.44515e-05
9.71851e-05
0.000108955
0.000110057
0.000113294
0.000112502
1.63193e-06
2.24358e-06
3.68062e-06
4.27363e-06
5.37078e-06
8.11164e-06
9.51356e-06
1.38007e-05
1.58095e-05
1.79616e-05
2.3854e-05
2.65621e-05
3.10959e-05
3.39503e-05
4.11935e-05
4.28488e-05
5.01213e-05
5.14409e-05
5.31873e-05
5.22728e-05
1.63582e-06
1.98993e-06
2.75175e-06
2.90968e-06
3.10734e-06
3.71964e-06
4.19901e-06
5.83809e-06
6.50107e-06
7.11624e-06
9.00585e-06
9.71201e-06
1.08817e-05
1.2043e-05
1.5292e-05
1.58744e-05
1.89376e-05
1.98363e-05
2.007e-05
1.92393e-05
1.56985e-06
1.88336e-06
2.65733e-06
2.83709e-06
2.73123e-06
2.66182e-06
2.67651e-06
2.93372e-06
3.64489e-06
4.82647e-06
5.3979e-06
5.34879e-06
5.35577e-06
5.42039e-06
5.88045e-06
5.88514e-06
6.66085e-06
7.29715e-06
7.89584e-06
7.81949e-06
1.57184e-06
1.87841e-06
2.60434e-06
2.56775e-06
2.45422e-06
2.4322e-06
2.43544e-06
2.55987e-06
3.25757e-06
3.97949e-06
4.10225e-06
4.08453e-06
3.9651e-06
3.70841e-06
3.6729e-06
3.6718e-06
3.97942e-06
4.28889e-06
4.69552e-06
4.69194e-06
1.55716e-06
1.95229e-06
2.22108e-06
2.2052e-06
2.39239e-06
2.61945e-06
2.63161e-06
2.6526e-06
2.83218e-06
2.90829e-06
2.94358e-06
3.07163e-06
3.2597e-06
3.29384e-06
3.37845e-06
3.39451e-06
3.48106e-06
3.42798e-06
3.46166e-06
3.5275e-06
1.52606e-06
1.78974e-06
1.94176e-06
2.26948e-06
2.4986e-06
2.58262e-06
2.57051e-06
2.47789e-06
2.38171e-06
2.3869e-06
2.51174e-06
2.9399e-06
3.10618e-06
3.1793e-06
3.18251e-06
3.00707e-06
2.91167e-06
2.84987e-06
2.87747e-06
3.13787e-06
1.52113e-06
1.70474e-06
2.02659e-06
2.30932e-06
2.33273e-06
2.32581e-06
2.26801e-06
2.23562e-06
2.22628e-06
2.2819e-06
2.59246e-06
2.80321e-06
2.83848e-06
2.82538e-06
2.72769e-06
2.60772e-06
2.62334e-06
2.65082e-06
2.6992e-06
2.95539e-06
1.52255e-06
1.71398e-06
2.01065e-06
2.03952e-06
2.11289e-06
2.23526e-06
2.26781e-06
2.25916e-06
2.24922e-06
2.25131e-06
2.33221e-06
2.3968e-06
2.45646e-06
2.45888e-06
2.47476e-06
2.52372e-06
2.68063e-06
2.65805e-06
2.63662e-06
2.86383e-06
1.5095e-06
1.71124e-06
1.93584e-06
1.97332e-06
2.07246e-06
2.21607e-06
2.23811e-06
2.23424e-06
2.19456e-06
2.1841e-06
2.20547e-06
2.28008e-06
2.32985e-06
2.34602e-06
2.39079e-06
2.47884e-06
2.4819e-06
2.42845e-06
2.41751e-06
2.51738e-06
1.50569e-06
1.66881e-06
1.99893e-06
2.0247e-06
2.00535e-06
2.03618e-06
2.10554e-06
2.15485e-06
2.15059e-06
2.14426e-06
2.1594e-06
2.18751e-06
2.24671e-06
2.26366e-06
2.29988e-06
2.29506e-06
2.29351e-06
2.29881e-06
2.34079e-06
2.49594e-06
1.50675e-06
1.66905e-06
1.90916e-06
1.99483e-06
2.01064e-06
2.08119e-06
2.11688e-06
2.14097e-06
2.12859e-06
2.10598e-06
2.10896e-06
2.13315e-06
2.20297e-06
2.22818e-06
2.23087e-06
2.22349e-06
2.22858e-06
2.28245e-06
2.31221e-06
2.41896e-06
1.50705e-06
1.63215e-06
1.8985e-06
2.08873e-06
2.07238e-06
2.03607e-06
2.03047e-06
2.07777e-06
2.11459e-06
2.12621e-06
2.15642e-06
2.17398e-06
2.18173e-06
2.18075e-06
2.18099e-06
2.1827e-06
2.19409e-06
2.25075e-06
2.25024e-06
2.28776e-06
1.50773e-06
1.63969e-06
1.9911e-06
2.06802e-06
2.01269e-06
1.99256e-06
2.05523e-06
2.17668e-06
2.18453e-06
2.17117e-06
2.17785e-06
2.16359e-06
2.16589e-06
2.17884e-06
2.21981e-06
2.23221e-06
2.263e-06
2.27874e-06
2.3035e-06
2.51706e-06
1.51099e-06
1.69882e-06
1.98643e-06
1.98937e-06
1.96677e-06
2.06914e-06
2.2267e-06
2.24818e-06
2.20749e-06
2.19356e-06
2.20064e-06
2.19799e-06
2.22918e-06
2.2958e-06
2.29754e-06
2.31176e-06
2.30166e-06
2.30394e-06
2.31978e-06
2.36577e-06
1.51535e-06
1.72053e-06
1.88427e-06
2.01521e-06
2.09943e-06
2.23782e-06
2.2591e-06
2.23268e-06
2.22088e-06
2.26093e-06
2.29085e-06
2.29829e-06
2.36307e-06
2.36207e-06
2.35927e-06
2.36653e-06
2.3639e-06
2.3927e-06
2.43514e-06
2.64717e-06
1.52071e-06
1.69606e-06
1.93312e-06
2.16816e-06
2.19553e-06
2.26403e-06
2.27425e-06
2.28509e-06
2.34519e-06
2.39838e-06
2.38487e-06
2.39342e-06
2.42003e-06
2.42147e-06
2.45523e-06
2.48411e-06
2.5241e-06
2.66022e-06
2.67743e-06
2.82136e-06
1.53099e-06
1.73753e-06
2.04518e-06
2.20207e-06
2.21397e-06
2.29024e-06
2.41863e-06
2.52515e-06
2.54115e-06
2.50519e-06
2.46918e-06
2.50373e-06
2.53096e-06
2.62998e-06
2.74013e-06
2.76237e-06
2.82577e-06
2.85626e-06
2.89591e-06
3.0602e-06
1.53897e-06
1.8371e-06
2.00071e-06
2.17069e-06
2.331e-06
2.57457e-06
2.71937e-06
2.73698e-06
2.69182e-06
2.62753e-06
2.64549e-06
2.73269e-06
2.80904e-06
3.04847e-06
3.07919e-06
3.1032e-06
3.17428e-06
3.27946e-06
3.58313e-06
4.42957e-06
1.54885e-06
1.8135e-06
1.99706e-06
2.39025e-06
2.75237e-06
2.91244e-06
2.97559e-06
2.93115e-06
2.8538e-06
2.85915e-06
2.97095e-06
3.13514e-06
3.38142e-06
3.67866e-06
3.71853e-06
3.89935e-06
4.27757e-06
5.02055e-06
6.42157e-06
9.22852e-06
1.60056e-06
1.79711e-06
2.26993e-06
2.90974e-06
3.23965e-06
3.24806e-06
3.28907e-06
3.23558e-06
3.2983e-06
3.50012e-06
4.02489e-06
4.3529e-06
4.94847e-06
5.8313e-06
6.25896e-06
7.55108e-06
9.2122e-06
1.21025e-05
1.58987e-05
2.39589e-05
1.62272e-06
1.89576e-06
2.9664e-06
3.73117e-06
3.8573e-06
4.01399e-06
4.32452e-06
4.56815e-06
5.48068e-06
7.05887e-06
8.22337e-06
9.64635e-06
1.11956e-05
1.44417e-05
1.62318e-05
2.07263e-05
2.4743e-05
3.20921e-05
3.91955e-05
5.57472e-05
1.65172e-06
2.31382e-06
4.37467e-06
5.52991e-06
5.84655e-06
7.32664e-06
9.50272e-06
1.10835e-05
1.48945e-05
1.96923e-05
2.25511e-05
2.70539e-05
3.09622e-05
3.926e-05
4.33272e-05
5.29768e-05
6.00455e-05
7.36932e-05
8.43489e-05
0.000111589
1.77931e-06
4.01514e-06
7.92668e-06
1.14391e-05
1.34919e-05
1.95673e-05
2.75639e-05
3.2152e-05
4.22046e-05
5.25093e-05
5.88939e-05
6.86156e-05
7.61095e-05
9.10339e-05
9.72611e-05
0.00011168
0.000121726
0.000140631
0.000153241
0.000186776
2.37443e-06
9.75465e-06
1.86125e-05
3.01417e-05
3.7504e-05
5.41172e-05
7.27667e-05
8.19757e-05
0.000102473
0.00011627
0.000129357
0.000141555
0.00015407
0.000170949
0.000178025
0.000193847
0.000205311
0.000222362
0.000233472
0.00025997
5.63021e-06
2.60596e-05
5.02886e-05
7.77381e-05
9.58394e-05
0.000130134
0.000157588
0.000171556
0.000200638
0.000213905
0.000229583
0.000239573
0.000252564
0.000264203
0.000269531
0.000281026
0.000289504
0.000299487
0.000306817
0.000323443
1.7509e-05
6.84509e-05
0.000127514
0.000172587
0.00020864
0.000253658
0.00027981
0.000296062
0.000318474
0.000325403
0.000335248
0.000338496
0.000345651
0.000348905
0.000351231
0.000355448
0.000359747
0.000362628
0.000366911
0.000373892
5.37566e-05
0.000168426
0.000269156
0.000325207
0.000369471
0.000398557
0.000412898
0.000419246
0.000424691
0.000423059
0.000423052
0.000419833
0.000419788
0.000417269
0.000416388
0.000414309
0.000414385
0.000412755
0.000412892
0.000412018
0.000151603
0.000362169
0.000462853
0.000505354
0.000527731
0.000527021
0.000523016
0.00051427
0.000506198
0.000495522
0.00049055
0.000479617
0.000476665
0.00046866
0.000465839
0.000458852
0.000456118
0.000449442
0.000445457
0.000438848
0.000382268
0.000601666
0.000665188
0.000660725
0.00064655
0.000616744
0.00059735
0.000577289
0.000560697
0.000545634
0.000536633
0.000522214
0.000517261
0.000505211
0.000500995
0.000489726
0.000484163
0.000471906
0.000463189
0.000449354
0.000705235
0.000827645
0.000803976
0.000745085
0.000701562
0.00065653
0.000630952
0.000605602
0.000585737
0.000568958
0.000558246
0.000542957
0.000536574
0.000521675
0.000516609
0.000501602
0.000493107
0.000475335
0.000462032
0.00043864
0.00101254
0.000904302
0.000753502
0.000657126
0.000609948
0.000568985
0.000545665
0.000522845
0.000506285
0.000491288
0.000482019
0.000469514
0.000462978
0.00044793
0.000442847
0.000426934
0.000416185
0.000395449
0.000378839
0.00034889
0.000170238
0.000170453
0.000170026
0.000162572
0.00015791
0.000161467
0.000127618
0.000106358
0.000107224
0.000101408
9.58168e-05
9.86489e-05
0.000107731
0.000114298
0.000114269
0.000110328
9.97947e-05
8.9253e-05
8.10009e-05
7.78992e-05
7.76627e-05
8.0042e-05
8.47885e-05
8.61749e-05
8.53878e-05
8.2784e-05
7.42264e-05
5.213e-05
3.32226e-05
2.16641e-05
1.46438e-05
1.05432e-05
8.89415e-06
8.80249e-06
9.08698e-06
9.84447e-06
1.23333e-05
1.46008e-05
1.5429e-05
1.77436e-05
2.04272e-05
2.16702e-05
2.3385e-05
2.51824e-05
3.06386e-05
3.61161e-05
4.08449e-05
5.27714e-05
8.25593e-05
8.95322e-05
8.72682e-05
7.15434e-05
5.43234e-05
4.53858e-05
4.16124e-05
4.03796e-05
4.02555e-05
4.06015e-05
4.09964e-05
4.11334e-05
4.10598e-05
4.08193e-05
3.96357e-05
3.66493e-05
3.44132e-05
3.28343e-05
3.19389e-05
3.16982e-05
3.17705e-05
3.20354e-05
3.39187e-05
3.80112e-05
4.55365e-05
5.29625e-05
5.58467e-05
6.04437e-05
6.60203e-05
6.63669e-05
6.2029e-05
6.19461e-05
6.66089e-05
6.67147e-05
5.83946e-05
4.70422e-05
4.17078e-05
4.00841e-05
3.81192e-05
3.41255e-05
3.27025e-05
3.34966e-05
3.44911e-05
3.38484e-05
3.06158e-05
2.75415e-05
2.60107e-05
2.61466e-05
2.68007e-05
2.66004e-05
2.6956e-05
2.83607e-05
2.86528e-05
2.82529e-05
2.80993e-05
2.86771e-05
3.15434e-05
3.81233e-05
5.74434e-05
7.34337e-05
7.74132e-05
7.4974e-05
6.10749e-05
4.93896e-05
4.57187e-05
4.65346e-05
4.83085e-05
4.86398e-05
4.70549e-05
4.63089e-05
4.61697e-05
4.50364e-05
4.34691e-05
4.34356e-05
4.5238e-05
4.89536e-05
5.06296e-05
5.04839e-05
4.88254e-05
4.72937e-05
4.5682e-05
4.19271e-05
3.6649e-05
3.20605e-05
2.83803e-05
2.52773e-05
2.27217e-05
2.09484e-05
1.92451e-05
1.78856e-05
1.74274e-05
1.76711e-05
1.94538e-05
2.00761e-05
1.99868e-05
1.91753e-05
1.93445e-05
2.05725e-05
2.6048e-05
2.9862e-05
3.05727e-05
3.05328e-05
3.12273e-05
3.30924e-05
3.67402e-05
4.20446e-05
4.71982e-05
4.94947e-05
5.72515e-05
5.85593e-05
6.19386e-05
6.2135e-05
5.62543e-05
4.40861e-05
3.81368e-05
3.53435e-05
3.09481e-05
2.5983e-05
2.26231e-05
2.15178e-05
2.15289e-05
2.19358e-05
2.3309e-05
2.55063e-05
2.88567e-05
3.16413e-05
3.28127e-05
3.37769e-05
3.51362e-05
4.02233e-05
4.65851e-05
4.84539e-05
4.80262e-05
4.3606e-05
3.61753e-05
3.35802e-05
3.45667e-05
3.80546e-05
4.24675e-05
4.23076e-05
4.60112e-05
4.83957e-05
5.35233e-05
5.33328e-05
5.15078e-05
5.09674e-05
4.66719e-05
4.5024e-05
5.08867e-05
5.42113e-05
5.29014e-05
6.02802e-05
0.000245361
0.000214693
0.000193266
0.000187073
0.000166444
0.00017411
0.000167417
0.000152967
0.000142433
0.000133152
0.000126019
0.000122668
0.000125768
0.000124365
0.000117392
0.000110147
0.000100281
9.03747e-05
8.3716e-05
8.15507e-05
8.15155e-05
8.54739e-05
8.93119e-05
8.84948e-05
8.53612e-05
7.58394e-05
5.04205e-05
3.34167e-05
2.18628e-05
1.4572e-05
1.03853e-05
8.19201e-06
7.71323e-06
7.83966e-06
8.42176e-06
9.57595e-06
1.21991e-05
1.47608e-05
1.55921e-05
1.76933e-05
2.05442e-05
2.18845e-05
2.37892e-05
2.45248e-05
2.67181e-05
3.16909e-05
3.63393e-05
4.55055e-05
7.65866e-05
8.90378e-05
8.83351e-05
7.64146e-05
5.77164e-05
4.69923e-05
4.23924e-05
4.08888e-05
4.05886e-05
4.08469e-05
4.12773e-05
4.13502e-05
4.12439e-05
4.08863e-05
3.87133e-05
3.58019e-05
3.36761e-05
3.23296e-05
3.1732e-05
3.16429e-05
3.17929e-05
3.23421e-05
3.43637e-05
3.85428e-05
4.58352e-05
5.37274e-05
5.6889e-05
6.1076e-05
6.6933e-05
6.74507e-05
6.33443e-05
6.35133e-05
6.82857e-05
6.80009e-05
5.82754e-05
4.64235e-05
4.09687e-05
3.93685e-05
3.7769e-05
3.4e-05
3.28174e-05
3.38067e-05
3.46718e-05
3.35409e-05
2.94223e-05
2.67669e-05
2.57275e-05
2.5991e-05
2.70983e-05
2.6781e-05
2.6786e-05
2.78861e-05
2.83924e-05
2.81661e-05
2.8051e-05
2.85128e-05
3.10056e-05
3.701e-05
5.51039e-05
7.13441e-05
7.60692e-05
7.47522e-05
6.38657e-05
5.01528e-05
4.4913e-05
4.42514e-05
4.51667e-05
4.64903e-05
4.64571e-05
4.61009e-05
4.48001e-05
4.25856e-05
4.16206e-05
4.21228e-05
4.59327e-05
4.98725e-05
5.0817e-05
5.03227e-05
4.83481e-05
4.75291e-05
4.65857e-05
4.30262e-05
3.70809e-05
3.19957e-05
2.8028e-05
2.46827e-05
2.22374e-05
2.07522e-05
1.9224e-05
1.78996e-05
1.74178e-05
1.76851e-05
1.88662e-05
1.88587e-05
1.83582e-05
1.80933e-05
1.89559e-05
2.18923e-05
2.9022e-05
3.22033e-05
3.23972e-05
3.21099e-05
3.26461e-05
3.46937e-05
3.77153e-05
4.34792e-05
4.7271e-05
5.10805e-05
6.01874e-05
6.16441e-05
6.61456e-05
6.73734e-05
6.13984e-05
4.80282e-05
4.28254e-05
4.09635e-05
3.63485e-05
2.89071e-05
2.36129e-05
2.12322e-05
2.07209e-05
2.08877e-05
2.17294e-05
2.40062e-05
2.68996e-05
3.03542e-05
3.21895e-05
3.32679e-05
3.45452e-05
3.94413e-05
4.57945e-05
4.84772e-05
4.83206e-05
4.45585e-05
3.71606e-05
3.37409e-05
3.47256e-05
3.7183e-05
4.1511e-05
4.2077e-05
4.64032e-05
4.8885e-05
5.35928e-05
5.23649e-05
5.12809e-05
4.87971e-05
4.44313e-05
4.48242e-05
4.81643e-05
5.22054e-05
5.24393e-05
5.87197e-05
0.000250463
0.000225979
0.000197076
0.000190674
0.00017206
0.000170655
0.000171037
0.000167332
0.000153585
0.000148752
0.000144525
0.000134824
0.000129723
0.000123844
0.000117876
0.000111766
0.000104166
9.61375e-05
9.00058e-05
8.86153e-05
9.04577e-05
9.32165e-05
9.23183e-05
8.81268e-05
7.49988e-05
4.95254e-05
3.25353e-05
2.17416e-05
1.44913e-05
1.00699e-05
7.91487e-06
7.02084e-06
7.05036e-06
7.39806e-06
8.22571e-06
9.62142e-06
1.20262e-05
1.51412e-05
1.63179e-05
1.845e-05
2.11767e-05
2.20562e-05
2.42081e-05
2.44703e-05
2.50415e-05
2.75851e-05
3.2229e-05
3.98296e-05
6.80829e-05
8.77693e-05
8.86361e-05
8.05289e-05
6.17662e-05
4.92163e-05
4.33397e-05
4.12309e-05
4.08885e-05
4.10289e-05
4.13525e-05
4.14071e-05
4.12282e-05
3.99524e-05
3.7358e-05
3.48654e-05
3.30899e-05
3.20603e-05
3.16825e-05
3.16802e-05
3.20362e-05
3.29253e-05
3.50898e-05
3.93659e-05
4.63932e-05
5.45213e-05
5.79369e-05
6.18598e-05
6.77817e-05
6.83815e-05
6.45826e-05
6.50347e-05
6.9925e-05
6.92541e-05
5.80763e-05
4.57285e-05
4.01339e-05
3.87304e-05
3.76685e-05
3.40455e-05
3.30496e-05
3.43023e-05
3.50217e-05
3.33051e-05
2.85287e-05
2.61228e-05
2.52812e-05
2.55496e-05
2.72538e-05
2.70661e-05
2.68287e-05
2.74913e-05
2.81832e-05
2.80898e-05
2.80253e-05
2.84524e-05
3.06366e-05
3.60767e-05
5.28169e-05
6.93094e-05
7.46366e-05
7.41635e-05
6.60792e-05
5.21248e-05
4.50176e-05
4.30889e-05
4.33987e-05
4.42394e-05
4.44434e-05
4.39225e-05
4.20443e-05
4.04735e-05
3.99711e-05
4.14656e-05
4.68156e-05
5.02748e-05
5.07935e-05
4.96193e-05
4.78791e-05
4.7442e-05
4.71374e-05
4.41227e-05
3.73457e-05
3.19325e-05
2.76961e-05
2.39808e-05
2.15715e-05
2.04419e-05
1.91506e-05
1.78336e-05
1.72907e-05
1.74393e-05
1.77099e-05
1.7451e-05
1.72995e-05
1.76235e-05
1.9348e-05
2.49707e-05
3.13621e-05
3.37834e-05
3.37019e-05
3.34296e-05
3.40812e-05
3.62116e-05
3.84821e-05
4.41488e-05
4.7874e-05
5.3803e-05
6.243e-05
6.52215e-05
7.25458e-05
7.43449e-05
6.78657e-05
5.41698e-05
4.95907e-05
4.85798e-05
4.54636e-05
3.45641e-05
2.59926e-05
2.17544e-05
2.03065e-05
2.03029e-05
2.07537e-05
2.23581e-05
2.5791e-05
2.87556e-05
3.13593e-05
3.26244e-05
3.40374e-05
3.84505e-05
4.56443e-05
4.84104e-05
4.89252e-05
4.52623e-05
3.71686e-05
3.35661e-05
3.40126e-05
3.68319e-05
4.02774e-05
4.08258e-05
4.31886e-05
4.83899e-05
5.20141e-05
5.19585e-05
4.97748e-05
4.6267e-05
4.35221e-05
4.61934e-05
4.73519e-05
4.91273e-05
5.07144e-05
5.38348e-05
0.000232641
0.00021586
0.000190613
0.000181545
0.000169084
0.000159616
0.000159928
0.000158776
0.000151263
0.000147926
0.000144499
0.000136539
0.000120116
0.000109269
0.000104028
0.000101822
0.000101949
9.9408e-05
9.65493e-05
9.57001e-05
9.56394e-05
9.43235e-05
8.91482e-05
7.21149e-05
4.7578e-05
3.14712e-05
2.07852e-05
1.40979e-05
9.94215e-06
7.61146e-06
6.72357e-06
6.50698e-06
6.68255e-06
7.27053e-06
8.181e-06
1.00479e-05
1.25335e-05
1.56177e-05
1.68913e-05
1.88568e-05
2.17201e-05
2.30101e-05
2.47203e-05
2.46059e-05
2.43158e-05
2.53884e-05
2.91738e-05
3.59705e-05
5.8977e-05
8.53009e-05
8.87192e-05
8.42566e-05
6.61429e-05
5.21552e-05
4.47656e-05
4.1732e-05
4.09236e-05
4.0981e-05
4.10643e-05
4.08901e-05
3.96502e-05
3.77091e-05
3.57509e-05
3.38741e-05
3.25776e-05
3.1913e-05
3.17905e-05
3.19641e-05
3.27688e-05
3.37789e-05
3.58234e-05
4.03495e-05
4.72154e-05
5.55517e-05
5.9164e-05
6.27632e-05
6.8672e-05
6.93121e-05
6.56669e-05
6.65589e-05
7.15255e-05
7.03966e-05
5.76516e-05
4.48819e-05
3.96462e-05
3.86137e-05
3.77463e-05
3.43431e-05
3.34707e-05
3.50245e-05
3.558e-05
3.30657e-05
2.7714e-05
2.54286e-05
2.46267e-05
2.47771e-05
2.69698e-05
2.70297e-05
2.68099e-05
2.72474e-05
2.79385e-05
2.79765e-05
2.79908e-05
2.83979e-05
3.03663e-05
3.53294e-05
5.08844e-05
6.72838e-05
7.29964e-05
7.30272e-05
6.74204e-05
5.47025e-05
4.59528e-05
4.30576e-05
4.20911e-05
4.23381e-05
4.21323e-05
4.13147e-05
4.00252e-05
3.89444e-05
3.87266e-05
4.15796e-05
4.72909e-05
5.04002e-05
5.06324e-05
4.92201e-05
4.76359e-05
4.73445e-05
4.74164e-05
4.48267e-05
3.75425e-05
3.18487e-05
2.72445e-05
2.33177e-05
2.10521e-05
2.0161e-05
1.89828e-05
1.75576e-05
1.70446e-05
1.70861e-05
1.70384e-05
1.68419e-05
1.69073e-05
1.75369e-05
2.10857e-05
2.82618e-05
3.28664e-05
3.43123e-05
3.40183e-05
3.40875e-05
3.52605e-05
3.72383e-05
3.92984e-05
4.45774e-05
4.95394e-05
5.59418e-05
6.46451e-05
7.08384e-05
7.84583e-05
7.87976e-05
7.35274e-05
6.09194e-05
5.7828e-05
5.80639e-05
5.59592e-05
4.32599e-05
3.02372e-05
2.32209e-05
2.04587e-05
1.98827e-05
2.00623e-05
2.11845e-05
2.43183e-05
2.75231e-05
3.0241e-05
3.19234e-05
3.35461e-05
3.78208e-05
4.54371e-05
4.84038e-05
4.86948e-05
4.50726e-05
3.71946e-05
3.39248e-05
3.40477e-05
3.60768e-05
4.00892e-05
4.02515e-05
4.12669e-05
4.58233e-05
4.94197e-05
4.92371e-05
4.72778e-05
4.41119e-05
4.35948e-05
4.66268e-05
4.74727e-05
4.94853e-05
4.99859e-05
5.06333e-05
0.000206986
0.000191892
0.000176502
0.000165906
0.000156057
0.000146302
0.000144137
0.000141747
0.000134543
0.000132006
0.000130892
0.000127383
0.000113656
0.000100457
9.08598e-05
8.48817e-05
8.54401e-05
8.99861e-05
9.25094e-05
9.25761e-05
9.0541e-05
8.41536e-05
6.4879e-05
4.34446e-05
2.92754e-05
1.97488e-05
1.34078e-05
9.6627e-06
7.58119e-06
6.51878e-06
6.2352e-06
6.28811e-06
6.56201e-06
7.42202e-06
8.65407e-06
1.0978e-05
1.38789e-05
1.70335e-05
1.86824e-05
2.02335e-05
2.15365e-05
2.36242e-05
2.5165e-05
2.50115e-05
2.40207e-05
2.44196e-05
2.73889e-05
3.36239e-05
5.14253e-05
8.21178e-05
8.85636e-05
8.62592e-05
7.13269e-05
5.5161e-05
4.61889e-05
4.2298e-05
4.04914e-05
3.97994e-05
3.92074e-05
3.8253e-05
3.67184e-05
3.52423e-05
3.41549e-05
3.29616e-05
3.21605e-05
3.1968e-05
3.21427e-05
3.27985e-05
3.39933e-05
3.49847e-05
3.68987e-05
4.14846e-05
4.83769e-05
5.66924e-05
6.04456e-05
6.37258e-05
6.955e-05
7.02184e-05
6.66823e-05
6.79247e-05
7.31142e-05
7.1434e-05
5.71048e-05
4.42913e-05
3.95452e-05
3.8638e-05
3.81922e-05
3.48893e-05
3.39712e-05
3.57788e-05
3.61517e-05
3.28021e-05
2.72492e-05
2.49403e-05
2.39459e-05
2.40321e-05
2.65571e-05
2.69099e-05
2.67235e-05
2.70398e-05
2.77991e-05
2.78873e-05
2.79711e-05
2.84071e-05
3.02057e-05
3.46975e-05
4.88619e-05
6.54405e-05
7.14209e-05
7.17863e-05
6.7936e-05
5.66353e-05
4.7938e-05
4.36769e-05
4.16974e-05
4.0817e-05
4.03064e-05
3.97097e-05
3.88367e-05
3.79505e-05
3.80438e-05
4.21196e-05
4.76022e-05
5.03493e-05
5.04921e-05
4.91196e-05
4.76924e-05
4.756e-05
4.76296e-05
4.50088e-05
3.76416e-05
3.19099e-05
2.69711e-05
2.31148e-05
2.0991e-05
2.00617e-05
1.86654e-05
1.73167e-05
1.70008e-05
1.70262e-05
1.68853e-05
1.67026e-05
1.68327e-05
1.82034e-05
2.4994e-05
3.0224e-05
3.36788e-05
3.43921e-05
3.40452e-05
3.43049e-05
3.57869e-05
3.75414e-05
4.00104e-05
4.55504e-05
5.1695e-05
5.77102e-05
6.6571e-05
7.93224e-05
7.96287e-05
7.87262e-05
7.58779e-05
6.5431e-05
6.43151e-05
6.6785e-05
6.5451e-05
5.2296e-05
3.62097e-05
2.58515e-05
2.11465e-05
1.98106e-05
1.97275e-05
2.03795e-05
2.28563e-05
2.649e-05
2.91919e-05
3.12723e-05
3.27724e-05
3.70862e-05
4.50937e-05
4.79886e-05
4.81304e-05
4.52679e-05
3.77916e-05
3.4148e-05
3.43739e-05
3.56357e-05
3.89213e-05
3.8669e-05
4.12781e-05
4.38972e-05
4.66624e-05
4.68995e-05
4.58891e-05
4.35751e-05
4.37297e-05
4.58139e-05
4.64905e-05
4.84457e-05
5.02716e-05
4.73141e-05
0.000176093
0.00016392
0.000149212
0.00014303
0.000136148
0.000126903
0.000124846
0.000122805
0.000116742
0.0001117
0.000110033
0.000107124
9.77043e-05
8.49051e-05
7.29533e-05
6.16229e-05
5.92566e-05
6.28011e-05
6.72909e-05
6.69966e-05
6.37611e-05
5.18281e-05
3.7077e-05
2.59836e-05
1.82207e-05
1.27095e-05
9.32741e-06
7.48941e-06
6.53032e-06
6.11335e-06
6.06529e-06
6.22101e-06
6.66579e-06
8.09735e-06
9.96453e-06
1.24183e-05
1.69374e-05
1.91553e-05
2.0454e-05
2.28641e-05
2.33732e-05
2.41824e-05
2.5514e-05
2.53418e-05
2.40273e-05
2.40504e-05
2.64533e-05
3.23189e-05
4.67961e-05
7.84386e-05
8.86484e-05
8.80948e-05
7.84343e-05
6.02411e-05
4.89574e-05
4.32612e-05
4.06515e-05
3.87706e-05
3.72467e-05
3.5687e-05
3.41061e-05
3.32894e-05
3.29263e-05
3.23288e-05
3.21132e-05
3.23046e-05
3.32367e-05
3.43571e-05
3.54219e-05
3.63778e-05
3.8253e-05
4.29178e-05
4.97458e-05
5.80051e-05
6.1835e-05
6.47078e-05
7.03289e-05
7.09868e-05
6.7595e-05
6.92824e-05
7.45898e-05
7.2353e-05
5.64347e-05
4.40048e-05
3.95344e-05
3.90246e-05
3.87916e-05
3.53584e-05
3.40749e-05
3.62893e-05
3.65986e-05
3.25411e-05
2.69601e-05
2.47538e-05
2.35698e-05
2.35136e-05
2.59539e-05
2.66807e-05
2.66449e-05
2.68504e-05
2.7599e-05
2.77973e-05
2.79489e-05
2.84296e-05
3.00869e-05
3.41769e-05
4.70433e-05
6.35582e-05
6.99009e-05
7.04657e-05
6.7736e-05
5.80755e-05
4.95999e-05
4.48533e-05
4.1793e-05
3.9977e-05
3.94337e-05
3.90259e-05
3.81638e-05
3.73441e-05
3.78062e-05
4.26101e-05
4.77604e-05
5.03336e-05
5.04027e-05
4.90614e-05
4.80389e-05
4.8027e-05
4.80583e-05
4.50864e-05
3.77068e-05
3.2049e-05
2.69682e-05
2.31208e-05
2.1159e-05
1.99801e-05
1.83138e-05
1.72128e-05
1.70438e-05
1.7058e-05
1.68518e-05
1.66965e-05
1.69925e-05
1.97536e-05
2.74683e-05
3.1194e-05
3.40137e-05
3.41143e-05
3.39155e-05
3.44042e-05
3.60318e-05
3.76228e-05
4.06546e-05
4.69969e-05
5.39194e-05
5.83187e-05
6.94858e-05
8.28952e-05
8.01453e-05
7.68463e-05
7.52472e-05
6.57617e-05
6.55682e-05
7.10766e-05
7.12345e-05
6.02257e-05
4.14566e-05
2.88635e-05
2.24328e-05
1.99724e-05
1.9556e-05
1.99106e-05
2.17804e-05
2.51395e-05
2.83605e-05
3.04478e-05
3.23069e-05
3.62847e-05
4.49654e-05
4.76311e-05
4.81117e-05
4.60854e-05
3.81661e-05
3.50324e-05
3.45829e-05
3.54887e-05
3.71875e-05
3.86956e-05
3.9739e-05
4.258e-05
4.51785e-05
4.60033e-05
4.54732e-05
4.36349e-05
4.34818e-05
4.36935e-05
4.39424e-05
4.45372e-05
4.67373e-05
4.56067e-05
0.000139696
0.000132081
0.000118346
0.00011359
0.000109587
0.000101915
9.92414e-05
9.74038e-05
9.29163e-05
8.70218e-05
8.49468e-05
8.26205e-05
7.47919e-05
6.12126e-05
4.85362e-05
3.78433e-05
3.36095e-05
3.3714e-05
3.56256e-05
3.54654e-05
3.45484e-05
2.87133e-05
2.17013e-05
1.61416e-05
1.18244e-05
8.90916e-06
7.35948e-06
6.52748e-06
6.0946e-06
5.99097e-06
6.02703e-06
6.36816e-06
7.3485e-06
9.79843e-06
1.27164e-05
1.49565e-05
1.99917e-05
2.3655e-05
2.45284e-05
2.46097e-05
2.46656e-05
2.49844e-05
2.60127e-05
2.58574e-05
2.4225e-05
2.38798e-05
2.58296e-05
3.16651e-05
4.39005e-05
7.53266e-05
8.87305e-05
8.9272e-05
8.4557e-05
6.72227e-05
5.26983e-05
4.50656e-05
4.11912e-05
3.87771e-05
3.64902e-05
3.43972e-05
3.28441e-05
3.22622e-05
3.21439e-05
3.20745e-05
3.2387e-05
3.38005e-05
3.51966e-05
3.61199e-05
3.70391e-05
3.79563e-05
3.98712e-05
4.44715e-05
5.14296e-05
5.94941e-05
6.32981e-05
6.58402e-05
7.1163e-05
7.17574e-05
6.84422e-05
7.06606e-05
7.59931e-05
7.31111e-05
5.60396e-05
4.38263e-05
3.97649e-05
3.96823e-05
3.95052e-05
3.54719e-05
3.3968e-05
3.65306e-05
3.69664e-05
3.24899e-05
2.68758e-05
2.46917e-05
2.34135e-05
2.33218e-05
2.55384e-05
2.63905e-05
2.64783e-05
2.66867e-05
2.73962e-05
2.7661e-05
2.79384e-05
2.84838e-05
3.01331e-05
3.38599e-05
4.53391e-05
6.18298e-05
6.82998e-05
6.9144e-05
6.73738e-05
5.91398e-05
5.08403e-05
4.57328e-05
4.2022e-05
3.97585e-05
3.92396e-05
3.88072e-05
3.7813e-05
3.71136e-05
3.7833e-05
4.28729e-05
4.78789e-05
5.03318e-05
5.03665e-05
4.92043e-05
4.85602e-05
4.86567e-05
4.85252e-05
4.48048e-05
3.76361e-05
3.21473e-05
2.69937e-05
2.31533e-05
2.13816e-05
1.99768e-05
1.81762e-05
1.71984e-05
1.71223e-05
1.71178e-05
1.68582e-05
1.67899e-05
1.73433e-05
2.2702e-05
2.89466e-05
3.19693e-05
3.40591e-05
3.36559e-05
3.36106e-05
3.44408e-05
3.60782e-05
3.77873e-05
4.13636e-05
4.89412e-05
5.46658e-05
5.85504e-05
7.18098e-05
8.43156e-05
8.0173e-05
7.6046e-05
7.28372e-05
6.47567e-05
6.60116e-05
7.2873e-05
7.2923e-05
6.3612e-05
4.53445e-05
3.14965e-05
2.35923e-05
2.03218e-05
1.95113e-05
1.96467e-05
2.08952e-05
2.40244e-05
2.75405e-05
2.98819e-05
3.16631e-05
3.60467e-05
4.4136e-05
4.76609e-05
4.78596e-05
4.59997e-05
3.86369e-05
3.48975e-05
3.53505e-05
3.57974e-05
3.90317e-05
3.88567e-05
4.02035e-05
4.05947e-05
4.27334e-05
4.52542e-05
4.5354e-05
4.43227e-05
4.32434e-05
4.26748e-05
4.30735e-05
4.32817e-05
4.39446e-05
4.45201e-05
9.87699e-05
9.14803e-05
7.9988e-05
7.71387e-05
7.47526e-05
7.06194e-05
6.70274e-05
6.40349e-05
6.1022e-05
5.52845e-05
5.28684e-05
5.10833e-05
4.54741e-05
3.59847e-05
2.79894e-05
2.16431e-05
1.84567e-05
1.7894e-05
1.92679e-05
1.98562e-05
1.95287e-05
1.69134e-05
1.35718e-05
1.05881e-05
8.27013e-06
7.04007e-06
6.46239e-06
6.08128e-06
5.93082e-06
5.96478e-06
6.17791e-06
6.97414e-06
9.17681e-06
1.28685e-05
1.72114e-05
1.9929e-05
2.48008e-05
2.80827e-05
2.96651e-05
2.90451e-05
2.75825e-05
2.66115e-05
2.64453e-05
2.63019e-05
2.46777e-05
2.37774e-05
2.51085e-05
3.07552e-05
4.13174e-05
7.06403e-05
8.90563e-05
9.11979e-05
8.87775e-05
7.65129e-05
6.00088e-05
4.84571e-05
4.25783e-05
3.91632e-05
3.65302e-05
3.42502e-05
3.27034e-05
3.20959e-05
3.19477e-05
3.21474e-05
3.38902e-05
3.59425e-05
3.73905e-05
3.81614e-05
3.89202e-05
3.97808e-05
4.18246e-05
4.63147e-05
5.32673e-05
6.11394e-05
6.48473e-05
6.68217e-05
7.17994e-05
7.23176e-05
6.92341e-05
7.21394e-05
7.73863e-05
7.38018e-05
5.57647e-05
4.37496e-05
4.0298e-05
4.02224e-05
3.97186e-05
3.53307e-05
3.36866e-05
3.67522e-05
3.74234e-05
3.25257e-05
2.68947e-05
2.48641e-05
2.34049e-05
2.32703e-05
2.51517e-05
2.60977e-05
2.64162e-05
2.66455e-05
2.72123e-05
2.75598e-05
2.79259e-05
2.8582e-05
3.02499e-05
3.36945e-05
4.35309e-05
6.02003e-05
6.70679e-05
6.79842e-05
6.66706e-05
5.96444e-05
5.17194e-05
4.62938e-05
4.22025e-05
3.98087e-05
3.92423e-05
3.87248e-05
3.76823e-05
3.70992e-05
3.79442e-05
4.30606e-05
4.82751e-05
5.04655e-05
5.03882e-05
4.94531e-05
4.91521e-05
4.93195e-05
4.8976e-05
4.43327e-05
3.75075e-05
3.21532e-05
2.6901e-05
2.31302e-05
2.1479e-05
1.99153e-05
1.80573e-05
1.72959e-05
1.73112e-05
1.72901e-05
1.69648e-05
1.69741e-05
1.78667e-05
2.47314e-05
2.97562e-05
3.23809e-05
3.33068e-05
3.27798e-05
3.29297e-05
3.43738e-05
3.5912e-05
3.79122e-05
4.20054e-05
5.1386e-05
5.48603e-05
6.02107e-05
7.34136e-05
8.48865e-05
8.07904e-05
7.67787e-05
7.21128e-05
6.58625e-05
6.88321e-05
7.59095e-05
7.51332e-05
6.38086e-05
4.66376e-05
3.3187e-05
2.47208e-05
2.06633e-05
1.94768e-05
1.94368e-05
2.02503e-05
2.34264e-05
2.65978e-05
2.89643e-05
3.06689e-05
3.5842e-05
4.37935e-05
4.74269e-05
4.78123e-05
4.58495e-05
3.99369e-05
3.54496e-05
3.6078e-05
3.62275e-05
3.95265e-05
3.96278e-05
3.99365e-05
4.01957e-05
4.08391e-05
4.32521e-05
4.496e-05
4.43439e-05
4.31953e-05
4.25306e-05
4.28698e-05
4.3582e-05
4.43335e-05
4.45364e-05
5.83668e-05
5.26234e-05
4.56682e-05
4.44268e-05
4.30884e-05
4.06798e-05
3.82892e-05
3.50745e-05
3.30403e-05
3.01686e-05
2.85461e-05
2.76992e-05
2.48482e-05
1.9238e-05
1.48445e-05
1.16053e-05
9.8044e-06
9.58679e-06
1.08771e-05
1.14729e-05
1.12258e-05
1.02507e-05
9.03452e-06
7.44739e-06
6.51322e-06
6.19915e-06
6.05734e-06
5.86946e-06
5.88778e-06
6.04546e-06
6.77963e-06
8.51378e-06
1.30783e-05
1.77406e-05
2.41491e-05
2.74302e-05
3.20238e-05
3.34815e-05
3.44509e-05
3.38967e-05
3.08174e-05
2.8817e-05
2.7262e-05
2.68324e-05
2.52249e-05
2.37465e-05
2.43051e-05
2.85014e-05
3.73362e-05
6.31121e-05
8.79969e-05