/*--------------------------------*- C++ -*----------------------------------*\
| =========                 |                                                 |
| \\      /  F ield         | OpenFOAM: The Open Source CFD Toolbox           |
|  \\    /   O peration     | Version:  2.4.0                                 |
|   \\  /    A nd           | Web:      www.OpenFOAM.org                      |
|    \\/     M anipulation  |                                                 |
\*---------------------------------------------------------------------------*/
FoamFile
{
    version     2.0;
    format      ascii;
    class       volVectorField;
    location    "0.219";
    object      UMean;
}
// * * * * * * * * * * * * * * * * * * * * * * * * * * * * * * * * * * * * * //

dimensions      [0 1 -1 0 0 0 0];

internalField   nonuniform List<vector> 
17600
(
(5.33998 0.308104 0)
(3.02246 0.060719 0)
(2.24288 -0.00147999 0)
(1.89842 -0.00352299 0)
(1.7613 -0.00132321 0)
(1.66808 -0.000160879 0)
(1.60361 -1.5534e-05 0)
(1.54315 -6.72487e-06 0)
(1.50996 -0.000173144 0)
(1.47151 -1.53582e-05 0)
(1.45672 -0.000110195 0)
(1.42661 0.000101466 0)
(1.41989 -0.000107388 0)
(1.39409 6.82809e-05 0)
(1.39567 -0.000259455 0)
(1.3795 -0.000163549 0)
(1.39337 -0.000570496 0)
(1.40035 -0.000516694 0)
(1.45421 -0.000901526 0)
(1.40237 -0.0324946 0)
(8.59557 0.867005 0)
(6.97805 0.380446 0)
(5.86312 0.120184 0)
(5.11586 0.0500048 0)
(4.72463 0.0272762 0)
(4.45371 0.0195723 0)
(4.27663 0.0151564 0)
(4.10916 0.0116002 0)
(4.01638 0.0084809 0)
(3.9038 0.00681404 0)
(3.86145 0.0052555 0)
(3.77332 0.00500152 0)
(3.75587 0.00367221 0)
(3.67964 0.00363255 0)
(3.68255 0.00140235 0)
(3.62693 0.00120933 0)
(3.6546 -0.00254365 0)
(3.64599 -0.00567862 0)
(3.72809 -0.00496014 0)
(3.79954 -0.0878516 0)
(9.84292 1.01533 0)
(9.35359 0.571512 0)
(8.51324 0.237622 0)
(7.68644 0.127647 0)
(7.15731 0.0792576 0)
(6.76064 0.0552467 0)
(6.50408 0.041916 0)
(6.25306 0.0320598 0)
(6.11622 0.0243928 0)
(5.93992 0.0193091 0)
(5.87683 0.0153535 0)
(5.737 0.0136377 0)
(5.71303 0.0108121 0)
(5.59123 0.0098166 0)
(5.59659 0.00549069 0)
(5.50128 0.00391565 0)
(5.54108 -0.00307248 0)
(5.49689 -0.00962636 0)
(5.61143 -0.020036 0)
(5.67096 -0.113196 0)
(10.1444 0.941188 0)
(10.558 0.660732 0)
(10.2769 0.324634 0)
(9.66014 0.205895 0)
(9.16349 0.143232 0)
(8.72433 0.102882 0)
(8.43877 0.0783418 0)
(8.13232 0.0600336 0)
(7.97313 0.0465545 0)
(7.74671 0.036845 0)
(7.67235 0.0296417 0)
(7.48906 0.0259975 0)
(7.46279 0.0208515 0)
(7.30219 0.0191883 0)
(7.31055 0.0113434 0)
(7.17966 0.00980794 0)
(7.22901 -0.00355671 0)
(7.14491 -0.0101076 0)
(7.28321 -0.0394107 0)
(7.28724 -0.124799 0)
(10.0638 0.800617 0)
(10.9004 0.661611 0)
(11.1346 0.350214 0)
(10.8841 0.250803 0)
(10.6001 0.19711 0)
(10.2375 0.150884 0)
(10.0026 0.118189 0)
(9.68987 0.0917615 0)
(9.54362 0.0725001 0)
(9.29214 0.0576049 0)
(9.22301 0.0470282 0)
(9.01198 0.0405059 0)
(8.99074 0.033574 0)
(8.80351 0.0295717 0)
(8.81716 0.0204483 0)
(8.6615 0.0146464 0)
(8.71259 0.00232472 0)
(8.61164 -0.0162192 0)
(8.72408 -0.040643 0)
(8.73556 -0.16367 0)
(9.9844 0.687318 0)
(10.8327 0.628788 0)
(11.3099 0.327741 0)
(11.3417 0.246595 0)
(11.3376 0.217418 0)
(11.1542 0.181308 0)
(11.0668 0.149553 0)
(10.8232 0.120137 0)
(10.7423 0.097338 0)
(10.5085 0.0789342 0)
(10.4691 0.0647407 0)
(10.2587 0.056602 0)
(10.2521 0.0460877 0)
(10.0616 0.0426264 0)
(10.0805 0.0274012 0)
(9.92222 0.0253828 0)
(9.96817 -0.000102497 0)
(9.86635 -0.00578986 0)
(9.95255 -0.0624535 0)
(9.95628 -0.163486 0)
(9.97536 0.598459 0)
(10.702 0.595987 0)
(11.2338 0.298879 0)
(11.3463 0.216552 0)
(11.505 0.204233 0)
(11.4642 0.183753 0)
(11.5483 0.159892 0)
(11.4259 0.133347 0)
(11.4632 0.111965 0)
(11.302 0.0935381 0)
(11.3301 0.078835 0)
(11.1592 0.0694997 0)
(11.1902 0.0586237 0)
(11.0217 0.0526327 0)
(11.0616 0.0381871 0)
(10.9136 0.0297096 0)
(10.9711 0.00865809 0)
(10.8672 -0.011446 0)
(10.9515 -0.0598484 0)
(10.9288 -0.16738 0)
(9.994 0.519879 0)
(10.5958 0.559959 0)
(11.1375 0.281236 0)
(11.2524 0.189627 0)
(11.4554 0.181955 0)
(11.4498 0.17178 0)
(11.6141 0.153865 0)
(11.5722 0.130864 0)
(11.7029 0.111111 0)
(11.6315 0.0960481 0)
(11.7372 0.0817387 0)
(11.6446 0.0753758 0)
(11.7294 0.0627826 0)
(11.6226 0.0603522 0)
(11.6947 0.040831 0)
(11.5904 0.0382152 0)
(11.6649 0.00500555 0)
(11.584 -0.00225217 0)
(11.6718 -0.0779018 0)
(11.6252 -0.127688 0)
(10.0131 0.449596 0)
(10.5164 0.516318 0)
(11.0513 0.267845 0)
(11.1793 0.166975 0)
(11.3817 0.15993 0)
(11.3858 0.157677 0)
(11.5474 0.142825 0)
(11.5398 0.122575 0)
(11.6815 0.102143 0)
(11.6681 0.0898194 0)
(11.7951 0.0755209 0)
(11.775 0.0720842 0)
(11.8848 0.0592657 0)
(11.8554 0.0591644 0)
(11.9484 0.0387451 0)
(11.9161 0.037876 0)
(12.0011 0.0013522 0)
(11.9781 -0.00337107 0)
(12.0603 -0.091143 0)
(12.0286 -0.124844 0)
(10.0129 0.386904 0)
(10.4672 0.469191 0)
(10.9618 0.256011 0)
(11.1359 0.145648 0)
(11.3074 0.139255 0)
(11.3465 0.143227 0)
(11.4671 0.131581 0)
(11.4986 0.113402 0)
(11.6031 0.0923339 0)
(11.6352 0.0812073 0)
(11.7298 0.0671881 0)
(11.7623 0.06464 0)
(11.8461 0.0526788 0)
(11.8767 0.0521179 0)
(11.9501 0.0338262 0)
(11.982 0.0291227 0)
(12.0501 -0.0013801 0)
(12.0876 -0.0222708 0)
(12.1474 -0.0901508 0)
(12.143 -0.189764 0)
(9.99631 0.328948 0)
(10.4331 0.423255 0)
(10.8778 0.243465 0)
(11.1002 0.127036 0)
(11.2428 0.118562 0)
(11.3144 0.13023 0)
(11.4009 0.119126 0)
(11.4605 0.105772 0)
(11.5373 0.0817648 0)
(11.595 0.0743962 0)
(11.6661 0.057637 0)
(11.7212 0.0591263 0)
(11.7859 0.0438828 0)
(11.8363 0.0468772 0)
(11.8967 0.0248251 0)
(11.9459 0.023516 0)
(12.0066 -0.0122908 0)
(12.0568 -0.0319155 0)
(12.109 -0.109186 0)
(12.0967 -0.225365 0)
(9.98469 0.278583 0)
(10.395 0.375744 0)
(10.8108 0.23151 0)
(11.0556 0.108067 0)
(11.1954 0.100482 0)
(11.275 0.115141 0)
(11.3526 0.108279 0)
(11.4161 0.0955024 0)
(11.489 0.0736368 0)
(11.5491 0.0651564 0)
(11.6194 0.0513867 0)
(11.6746 0.050748 0)
(11.7395 0.0392536 0)
(11.7878 0.0377025 0)
(11.85 0.0208513 0)
(11.8957 0.0115015 0)
(11.9585 -0.0167905 0)
(12.0023 -0.0504712 0)
(12.053 -0.121849 0)
(12.0232 -0.251609 0)
(9.98337 0.233362 0)
(10.3556 0.329274 0)
(10.7565 0.214723 0)
(11.0089 0.0923489 0)
(11.1573 0.0825798 0)
(11.2362 0.101029 0)
(11.3124 0.0956667 0)
(11.3734 0.0857274 0)
(11.4472 0.0640762 0)
(11.5063 0.0570785 0)
(11.5784 0.0436791 0)
(11.6324 0.043803 0)
(11.6983 0.032725 0)
(11.7452 0.0305842 0)
(11.8076 0.0143474 0)
(11.8516 0.00296718 0)
(11.9132 -0.0252581 0)
(11.9538 -0.0644907 0)
(11.9993 -0.136323 0)
(11.958 -0.269191 0)
(9.98261 0.193815 0)
(10.3245 0.283133 0)
(10.7076 0.192759 0)
(10.9694 0.0785707 0)
(11.1215 0.0685721 0)
(11.2052 0.0860081 0)
(11.2743 0.0845682 0)
(11.3387 0.0741965 0)
(11.4072 0.0563804 0)
(11.4724 0.0475247 0)
(11.5392 0.0379788 0)
(11.5991 0.0352916 0)
(11.6589 0.0280447 0)
(11.7119 0.0218245 0)
(11.7671 0.00923366 0)
(11.817 -0.0069156 0)
(11.8703 -0.0333425 0)
(11.9155 -0.077126 0)
(11.9483 -0.150383 0)
(11.9075 -0.281936 0)
(9.98045 0.156622 0)
(10.3002 0.239937 0)
(10.6662 0.164358 0)
(10.936 0.0682563 0)
(11.092 0.0548092 0)
(11.1798 0.0730553 0)
(11.2437 0.071389 0)
(11.3099 0.0641998 0)
(11.3754 0.0466313 0)
(11.4441 0.0402711 0)
(11.5085 0.0302042 0)
(11.5712 0.029134 0)
(11.6284 0.0207035 0)
(11.6837 0.0156071 0)
(11.736 0.00147765 0)
(11.7878 -0.0145902 0)
(11.8368 -0.042701 0)
(11.8827 -0.0887811 0)
(11.9064 -0.161446 0)
(11.8657 -0.29844 0)
(9.98192 0.12411 0)
(10.2773 0.195301 0)
(10.6356 0.135701 0)
(10.9053 0.0563627 0)
(11.072 0.0436765 0)
(11.1564 0.0579964 0)
(11.2231 0.059809 0)
(11.2839 0.0512961 0)
(11.354 0.0391531 0)
(11.4182 0.0302653 0)
(11.488 0.0254494 0)
(11.5457 0.0196735 0)
(11.608 0.0168692 0)
(11.6576 0.00524298 0)
(11.7149 -0.00209748 0)
(11.7604 -0.0273353 0)
(11.8132 -0.0466793 0)
(11.8509 -0.105951 0)
(11.8743 -0.1632 0)
(11.825 -0.318663 0)
(9.98438 0.0940766 0)
(10.2586 0.151249 0)
(10.6116 0.10591 0)
(10.8809 0.0449804 0)
(11.0559 0.0324144 0)
(11.1381 0.0444437 0)
(11.2062 0.0464878 0)
(11.2634 0.0399223 0)
(11.3359 0.0296554 0)
(11.3979 0.0228474 0)
(11.4701 0.017997 0)
(11.5256 0.0137751 0)
(11.5897 0.00915465 0)
(11.6369 0.000204513 0)
(11.6955 -0.0115589 0)
(11.7377 -0.0314145 0)
(11.7911 -0.0605055 0)
(11.8236 -0.108586 0)
(11.8453 -0.180832 0)
(11.7859 -0.294471 0)
(9.98322 0.0654847 0)
(10.2477 0.107956 0)
(10.5909 0.075646 0)
(10.8651 0.033334 0)
(11.0401 0.0219316 0)
(11.1266 0.0315358 0)
(11.1897 0.0329616 0)
(11.2499 0.0285506 0)
(11.3181 0.0204257 0)
(11.3844 0.015404 0)
(11.4523 0.0110372 0)
(11.5122 0.00726788 0)
(11.5715 0.00202773 0)
(11.6229 -0.00611857 0)
(11.6759 -0.0196702 0)
(11.7218 -0.037607 0)
(11.7689 -0.071483 0)
(11.8035 -0.11358 0)
(11.8184 -0.195785 0)
(11.7594 -0.271975 0)
(9.98153 0.0398829 0)
(10.2414 0.0632241 0)
(10.5767 0.0468274 0)
(10.8547 0.0190412 0)
(11.0291 0.0140203 0)
(11.1195 0.0169761 0)
(11.1786 0.021119 0)
(11.2412 0.0149665 0)
(11.3061 0.0131002 0)
(11.3755 0.00582156 0)
(11.4404 0.00640325 0)
(11.5034 -0.00179481 0)
(11.5594 -0.00220634 0)
(11.6134 -0.0159045 0)
(11.6625 -0.023577 0)
(11.7108 -0.0493024 0)
(11.7529 -0.0750142 0)
(11.7891 -0.127773 0)
(11.7971 -0.196333 0)
(11.7382 -0.292856 0)
(9.98261 0.0131192 0)
(10.2364 0.0210726 0)
(10.5715 0.0154999 0)
(10.848 0.00661371 0)
(11.0261 0.00395863 0)
(11.1145 0.00574259 0)
(11.1756 0.00587332 0)
(11.2356 0.00488679 0)
(11.3028 0.00185496 0)
(11.3698 0.000557859 0)
(11.4373 -0.00285246 0)
(11.4977 -0.00558026 0)
(11.5561 -0.0119545 0)
(11.6069 -0.0193094 0)
(11.6582 -0.0339699 0)
(11.7027 -0.0532466 0)
(11.7463 -0.0858634 0)
(11.7773 -0.133724 0)
(11.7852 -0.20276 0)
(11.7211 -0.317197 0)
(9.98383 -0.0111773 0)
(10.2352 -0.0235257 0)
(10.5727 -0.013434 0)
(10.8472 -0.00903811 0)
(11.0274 -0.00277222 0)
(11.1135 -0.00896061 0)
(11.1771 -0.00560573 0)
(11.2349 -0.00947313 0)
(11.3044 -0.00477513 0)
(11.3692 -0.00988672 0)
(11.4389 -0.00651783 0)
(11.4969 -0.0158551 0)
(11.557 -0.0148273 0)
(11.6053 -0.0306818 0)
(11.6581 -0.0360692 0)
(11.6995 -0.0665851 0)
(11.744 -0.0870509 0)
(11.7703 -0.149608 0)
(11.7772 -0.198593 0)
(11.709 -0.341139 0)
(9.98376 -0.0375783 0)
(10.2392 -0.0660844 0)
(10.5792 -0.0443234 0)
(10.8529 -0.022003 0)
(11.0319 -0.0121636 0)
(11.1175 -0.0208139 0)
(11.1818 -0.0201035 0)
(11.2395 -0.0202967 0)
(11.3093 -0.0151494 0)
(11.3737 -0.0158478 0)
(11.4433 -0.0150601 0)
(11.5008 -0.0200536 0)
(11.561 -0.0243538 0)
(11.6087 -0.0337113 0)
(11.6609 -0.0473699 0)
(11.7011 -0.0681655 0)
(11.7443 -0.101488 0)
(11.7683 -0.14757 0)
(11.7722 -0.216168 0)
(11.6997 -0.304722 0)
(9.98243 -0.0639415 0)
(10.2485 -0.10991 0)
(10.5907 -0.0740289 0)
(10.8653 -0.0353083 0)
(11.0398 -0.0211569 0)
(11.1268 -0.0342504 0)
(11.1898 -0.0331749 0)
(11.2499 -0.0325451 0)
(11.3176 -0.0239969 0)
(11.3836 -0.0236759 0)
(11.4512 -0.0216441 0)
(11.5099 -0.026563 0)
(11.5683 -0.0313095 0)
(11.6171 -0.0395677 0)
(11.667 -0.0555057 0)
(11.7077 -0.0729735 0)
(11.7479 -0.112327 0)
(11.7714 -0.148655 0)
(11.774 -0.230927 0)
(11.7015 -0.26916 0)
(9.9814 -0.0916444 0)
(10.2618 -0.154252 0)
(10.6088 -0.103226 0)
(10.8835 -0.0481855 0)
(11.0524 -0.0304512 0)
(11.1403 -0.0487177 0)
(11.2026 -0.0450478 0)
(11.2651 -0.0458598 0)
(11.3312 -0.0312374 0)
(11.3986 -0.0334829 0)
(11.4639 -0.0259066 0)
(11.524 -0.0362133 0)
(11.5805 -0.0343752 0)
(11.6302 -0.0504181 0)
(11.6781 -0.0570943 0)
(11.7192 -0.0860145 0)
(11.7566 -0.112057 0)
(11.7799 -0.164623 0)
(11.7812 -0.22493 0)
(11.7052 -0.291476 0)
(9.98097 -0.122762 0)
(10.2788 -0.197077 0)
(10.6344 -0.134153 0)
(10.9069 -0.0582281 0)
(11.0702 -0.0429255 0)
(11.1577 -0.0608824 0)
(11.221 -0.0596288 0)
(11.2848 -0.0558658 0)
(11.3507 -0.041983 0)
(11.4179 -0.0393542 0)
(11.4823 -0.034728 0)
(11.5424 -0.0406261 0)
(11.5983 -0.0431807 0)
(11.6478 -0.0543983 0)
(11.6949 -0.0659726 0)
(11.735 -0.0904068 0)
(11.7712 -0.120472 0)
(11.7933 -0.171096 0)
(11.7931 -0.228765 0)
(11.715 -0.312941 0)
(9.98063 -0.1546 0)
(10.3004 -0.242393 0)
(10.6671 -0.162167 0)
(10.9361 -0.0707471 0)
(11.0928 -0.0532843 0)
(11.1798 -0.0766239 0)
(11.2447 -0.0704661 0)
(11.3097 -0.0694704 0)
(11.3755 -0.048624 0)
(11.4421 -0.0498885 0)
(11.5061 -0.038804 0)
(11.5658 -0.0504101 0)
(11.6213 -0.0462817 0)
(11.6704 -0.064286 0)
(11.717 -0.0686462 0)
(11.7558 -0.100734 0)
(11.7912 -0.123099 0)
(11.8117 -0.1824 0)
(11.8099 -0.230468 0)
(11.7322 -0.327064 0)
(9.98119 -0.192253 0)
(10.327 -0.285151 0)
(10.707 -0.191027 0)
(10.9712 -0.0807295 0)
(11.1206 -0.0674894 0)
(11.207 -0.0893467 0)
(11.2739 -0.0840733 0)
(11.34 -0.0792062 0)
(11.4059 -0.0586549 0)
(11.4719 -0.0566341 0)
(11.5355 -0.0469731 0)
(11.5946 -0.0556862 0)
(11.65 -0.0539596 0)
(11.6985 -0.0687784 0)
(11.7445 -0.07679 0)
(11.7822 -0.104279 0)
(11.8167 -0.132925 0)
(11.8353 -0.184379 0)
(11.8334 -0.244712 0)
(11.7551 -0.311791 0)
(9.98617 -0.232055 0)
(10.3568 -0.330838 0)
(10.756 -0.213594 0)
(11.0114 -0.0940115 0)
(11.1552 -0.0818609 0)
(11.2392 -0.104004 0)
(11.3098 -0.0957254 0)
(11.3761 -0.0902915 0)
(11.4425 -0.0669373 0)
(11.5077 -0.0655024 0)
(11.5706 -0.0532858 0)
(11.6295 -0.0633093 0)
(11.684 -0.0590883 0)
(11.7328 -0.0760707 0)
(11.7771 -0.0815421 0)
(11.815 -0.111194 0)
(11.847 -0.138397 0)
(11.8654 -0.190581 0)
(11.8629 -0.255018 0)
(11.7871 -0.302307 0)
(10.0013 -0.277431 0)
(10.3845 -0.377261 0)
(10.8196 -0.230178 0)
(11.0492 -0.109946 0)
(11.2014 -0.0990227 0)
(11.2701 -0.118565 0)
(11.3563 -0.107602 0)
(11.4116 -0.100649 0)
(11.4886 -0.0755582 0)
(11.5438 -0.0744502 0)
(11.6146 -0.0596896 0)
(11.6654 -0.071344 0)
(11.7264 -0.0633915 0)
(11.7688 -0.0846376 0)
(11.8174 -0.0838544 0)
(11.8504 -0.121119 0)
(11.884 -0.138269 0)
(11.8993 -0.203828 0)
(11.897 -0.253736 0)
(11.8218 -0.324283 0)
(10.0223 -0.328896 0)
(10.4095 -0.423377 0)
(10.8995 -0.243499 0)
(11.0798 -0.127395 0)
(11.2623 -0.118758 0)
(11.2948 -0.131691 0)
(11.4179 -0.120571 0)
(11.4412 -0.108581 0)
(11.5501 -0.0861501 0)
(11.5747 -0.0809603 0)
(11.6741 -0.0688333 0)
(11.697 -0.0761959 0)
(11.7843 -0.0711937 0)
(11.8012 -0.0889767 0)
(11.8727 -0.0904876 0)
(11.8825 -0.125469 0)
(11.9328 -0.142857 0)
(11.9267 -0.210113 0)
(11.9299 -0.256522 0)
(11.836 -0.347941 0)
(10.0326 -0.385956 0)
(10.4449 -0.470295 0)
(10.9862 -0.255277 0)
(11.1127 -0.147033 0)
(11.3313 -0.138609 0)
(11.3218 -0.145541 0)
(11.491 -0.132147 0)
(11.4719 -0.117115 0)
(11.6255 -0.0958771 0)
(11.6056 -0.0886135 0)
(11.7487 -0.0771964 0)
(11.7266 -0.0824003 0)
(11.8557 -0.0780744 0)
(11.8257 -0.0944648 0)
(11.9345 -0.0957379 0)
(11.8927 -0.130149 0)
(11.9694 -0.144952 0)
(11.9019 -0.214497 0)
(11.9065 -0.254942 0)
(11.7381 -0.366498 0)
(10.0217 -0.44929 0)
(10.5058 -0.51673 0)
(11.0669 -0.267865 0)
(11.1658 -0.167493 0)
(11.3971 -0.15999 0)
(11.37 -0.159035 0)
(11.5641 -0.143977 0)
(11.5205 -0.125395 0)
(11.6985 -0.106371 0)
(11.644 -0.0960891 0)
(11.8088 -0.0861233 0)
(11.7413 -0.0880578 0)
(11.8864 -0.0848763 0)
(11.7978 -0.0982924 0)
(11.9135 -0.0993988 0)
(11.7968 -0.13142 0)
(11.8663 -0.142522 0)
(11.7022 -0.213007 0)
(11.6752 -0.241777 0)
(11.3853 -0.371426 0)
(9.99924 -0.519121 0)
(10.591 -0.560673 0)
(11.1461 -0.281081 0)
(11.2451 -0.190182 0)
(11.4634 -0.181923 0)
(11.4412 -0.17306 0)
(11.6226 -0.154879 0)
(11.5605 -0.133547 0)
(11.7107 -0.11526 0)
(11.6131 -0.101715 0)
(11.7393 -0.0920605 0)
(11.6111 -0.0897647 0)
(11.7122 -0.0875859 0)
(11.5516 -0.0954327 0)
(11.6221 -0.0986507 0)
(11.427 -0.122146 0)
(11.4485 -0.137245 0)
(11.1996 -0.192924 0)
(11.111 -0.230248 0)
(10.7378 -0.327153 0)
(9.97861 -0.598108 0)
(10.6993 -0.596362 0)
(11.2388 -0.298887 0)
(11.3421 -0.217023 0)
(11.5095 -0.204272 0)
(11.4591 -0.184943 0)
(11.552 -0.160724 0)
(11.418 -0.13603 0)
(11.4637 -0.115438 0)
(11.2853 -0.09905 0)
(11.321 -0.0876733 0)
(11.1213 -0.0831172 0)
(11.1538 -0.0798252 0)
(10.9325 -0.0853969 0)
(10.9537 -0.087505 0)
(10.7032 -0.107575 0)
(10.687 -0.120449 0)
(10.3789 -0.168947 0)
(10.2548 -0.201722 0)
(9.82038 -0.275718 0)
(9.98649 -0.686967 0)
(10.8311 -0.628949 0)
(11.3131 -0.327946 0)
(11.339 -0.247039 0)
(11.3402 -0.217581 0)
(11.1501 -0.182258 0)
(11.0675 -0.150369 0)
(10.8161 -0.122401 0)
(10.7376 -0.100444 0)
(10.4911 -0.0835411 0)
(10.4516 -0.0725968 0)
(10.2156 -0.0678624 0)
(10.2012 -0.0650902 0)
(9.95759 -0.0694502 0)
(9.94651 -0.0716594 0)
(9.67612 -0.0882035 0)
(9.63381 -0.0994952 0)
(9.29996 -0.139951 0)
(9.15142 -0.164696 0)
(8.68177 -0.228626 0)
(10.0652 -0.800338 0)
(10.8994 -0.661778 0)
(11.1371 -0.350487 0)
(10.8817 -0.25115 0)
(10.6016 -0.197246 0)
(10.2334 -0.151615 0)
(10.0016 -0.118855 0)
(9.68304 -0.0936433 0)
(9.53499 -0.0749284 0)
(9.27478 -0.0615041 0)
(9.19874 -0.0530877 0)
(8.96711 -0.0499756 0)
(8.92821 -0.0481745 0)
(8.69307 -0.0520198 0)
(8.6619 -0.0541549 0)
(8.39859 -0.0671365 0)
(8.33755 -0.0769902 0)
(8.00618 -0.106582 0)
(7.83845 -0.130236 0)
(7.37702 -0.163033 0)
(10.1452 -0.940988 0)
(10.5577 -0.660858 0)
(10.2786 -0.324864 0)
(9.658 -0.206121 0)
(9.1641 -0.143333 0)
(8.72049 -0.103401 0)
(8.43701 -0.078884 0)
(8.12536 -0.0614022 0)
(7.96271 -0.0483584 0)
(7.72936 -0.0396934 0)
(7.64496 -0.0341585 0)
(7.44363 -0.0327967 0)
(7.39531 -0.0317756 0)
(7.18956 -0.0351251 0)
(7.14721 -0.0367168 0)
(6.91133 -0.0464641 0)
(6.83953 -0.0535235 0)
(6.53164 -0.074554 0)
(6.36304 -0.0916249 0)
(5.91646 -0.110489 0)
(9.84346 -1.01521 0)
(9.35366 -0.571614 0)
(8.51425 -0.237781 0)
(7.68456 -0.127785 0)
(7.15737 -0.0793026 0)
(6.75729 -0.0555822 0)
(6.50201 -0.0422967 0)
(6.24615 -0.0328993 0)
(6.10616 -0.0255449 0)
(5.92289 -0.0211224 0)
(5.85009 -0.0181252 0)
(5.69372 -0.018062 0)
(5.6474 -0.0175401 0)
(5.48464 -0.0201418 0)
(5.43936 -0.0209963 0)
(5.24701 -0.0274882 0)
(5.17274 -0.0315545 0)
(4.91089 -0.0447261 0)
(4.75385 -0.0549442 0)
(4.35169 -0.0666416 0)
(8.59592 -0.866953 0)
(6.97829 -0.38051 0)
(5.86349 -0.120258 0)
(5.11443 -0.0500655 0)
(4.72442 -0.02729 0)
(4.45103 -0.0197439 0)
(4.27461 -0.0153454 0)
(4.10327 -0.0119841 0)
(4.00814 -0.00904265 0)
(3.88929 -0.00766553 0)
(3.8394 -0.00656747 0)
(3.73735 -0.00706065 0)
(3.70132 -0.00683101 0)
(3.59182 -0.00839656 0)
(3.55233 -0.00862209 0)
(3.41809 -0.01199 0)
(3.35287 -0.0135385 0)
(3.16215 -0.0199501 0)
(3.03148 -0.0240842 0)
(2.72661 -0.0308629 0)
(5.34012 -0.30809 0)
(3.02263 -0.0607372 0)
(2.24284 0.00147629 0)
(1.8977 0.00351656 0)
(1.76104 0.00133323 0)
(1.66683 0.000129228 0)
(1.60231 -4.73441e-06 0)
(1.54007 -3.67829e-05 0)
(1.50558 0.00010715 0)
(1.46379 -7.2662e-05 0)
(1.44522 -1.50482e-05 0)
(1.40777 -0.000323112 0)
(1.39133 -0.000194018 0)
(1.3485 -0.000591397 0)
(1.32772 -0.000393212 0)
(1.27201 -0.0010533 0)
(1.23655 -0.000891855 0)
(1.1526 -0.00193783 0)
(1.08256 -0.00219331 0)
(0.947702 0.00158805 0)
(2.11657 -0.169299 0)
(2.64696 -0.0574064 0)
(3.25831 -0.0663648 0)
(3.80087 -0.111173 0)
(4.28712 -0.183108 0)
(4.73543 -0.260514 0)
(5.25294 -0.33697 0)
(5.73536 -0.439387 0)
(6.23321 -0.554787 0)
(6.64351 -0.66262 0)
(7.05476 -0.779674 0)
(7.34436 -0.905846 0)
(7.61895 -1.0135 0)
(7.84358 -1.09886 0)
(8.05232 -1.17813 0)
(8.20649 -1.25311 0)
(8.36663 -1.35933 0)
(8.49134 -1.4817 0)
(8.60975 -1.61354 0)
(8.73984 -1.74201 0)
(8.85159 -1.86343 0)
(8.95502 -1.96975 0)
(9.09286 -2.07746 0)
(9.19608 -2.16951 0)
(9.3068 -2.2654 0)
(9.36403 -2.3646 0)
(9.38363 -2.43149 0)
(9.40108 -2.4782 0)
(9.38776 -2.50379 0)
(9.3771 -2.52836 0)
(9.35368 -2.54216 0)
(9.3375 -2.54414 0)
(9.3194 -2.53746 0)
(9.28868 -2.53084 0)
(9.24368 -2.52734 0)
(9.1822 -2.53287 0)
(9.11371 -2.53873 0)
(9.06488 -2.53568 0)
(9.05254 -2.52607 0)
(9.05591 -2.50769 0)
(9.04776 -2.48852 0)
(9.03053 -2.46871 0)
(8.99856 -2.44644 0)
(8.95896 -2.42849 0)
(8.91299 -2.39284 0)
(8.86809 -2.3408 0)
(8.80642 -2.27193 0)
(8.74178 -2.19114 0)
(8.62324 -2.0798 0)
(8.48327 -1.96848 0)
(8.37519 -1.88188 0)
(8.25517 -1.79384 0)
(8.15286 -1.70914 0)
(8.07083 -1.62564 0)
(7.98974 -1.53592 0)
(7.92454 -1.45778 0)
(7.87768 -1.39574 0)
(7.81737 -1.32143 0)
(7.76227 -1.24238 0)
(7.68475 -1.16299 0)
(7.60438 -1.05924 0)
(7.49628 -0.950484 0)
(7.38969 -0.843232 0)
(7.29054 -0.736868 0)
(7.18609 -0.631698 0)
(7.08465 -0.531605 0)
(6.98325 -0.439036 0)
(6.89421 -0.357974 0)
(6.80616 -0.286915 0)
(6.72827 -0.211111 0)
(6.67449 -0.13151 0)
(6.62728 -0.0570236 0)
(6.59711 0.00793632 0)
(6.5594 0.0654996 0)
(6.52674 0.119206 0)
(6.50938 0.192283 0)
(6.49645 0.269325 0)
(6.48975 0.339828 0)
(6.47814 0.408702 0)
(6.49397 0.469687 0)
(6.49367 0.521843 0)
(6.50278 0.568425 0)
(6.52161 0.612507 0)
(6.53289 0.643196 0)
(6.55254 0.664367 0)
(6.56662 0.689092 0)
(6.56135 0.724123 0)
(6.56857 0.765445 0)
(6.55908 0.795879 0)
(6.58233 0.834378 0)
(6.56153 0.859682 0)
(6.60017 0.886337 0)
(6.60586 0.893713 0)
(6.62367 0.913388 0)
(6.64734 0.902744 0)
(6.67588 0.897372 0)
(6.72787 0.884352 0)
(6.75086 0.88134 0)
(6.83137 0.852581 0)
(6.84634 0.837753 0)
(6.91326 0.806537 0)
(6.90426 0.802751 0)
(6.96206 0.75861 0)
(6.95444 0.750957 0)
(7.00095 0.689214 0)
(6.9565 0.667466 0)
(7.00155 0.576796 0)
(6.93677 0.543683 0)
(7.00714 0.459679 0)
(6.91257 0.439659 0)
(6.9825 0.348187 0)
(6.87651 0.318003 0)
(6.95 0.229838 0)
(6.83384 0.214422 0)
(6.92945 0.125956 0)
(6.79372 0.123719 0)
(6.91807 0.0449882 0)
(6.74118 0.0446413 0)
(6.87211 -0.0398311 0)
(6.70139 -0.0306265 0)
(6.81326 -0.114258 0)
(6.67648 -0.0849358 0)
(6.74819 -0.161203 0)
(6.64055 -0.102184 0)
(6.69486 -0.185811 0)
(6.59203 -0.105645 0)
(6.64292 -0.202721 0)
(6.5214 -0.104408 0)
(6.56804 -0.201776 0)
(6.45736 -0.0885506 0)
(6.48554 -0.1828 0)
(6.4358 -0.0571434 0)
(6.41076 -0.153036 0)
(6.42525 -0.0271477 0)
(6.34851 -0.116456 0)
(6.43106 0.00243501 0)
(6.29563 -0.100737 0)
(6.43849 0.00414205 0)
(6.24933 -0.0894528 0)
(6.44133 0.0163237 0)
(6.25515 -0.0620912 0)
(6.42432 0.0589812 0)
(6.2925 -0.0223638 0)
(6.43563 0.0988548 0)
(6.33397 0.0203608 0)
(6.47559 0.127006 0)
(6.38216 0.0736171 0)
(6.51017 0.167259 0)
(6.46201 0.134237 0)
(6.56202 0.209361 0)
(6.53989 0.185325 0)
(6.63363 0.248165 0)
(6.6111 0.237185 0)
(6.69379 0.300471 0)
(6.6531 0.296835 0)
(6.73663 0.360029 0)
(6.68242 0.351049 0)
(6.7675 0.424744 0)
(6.69493 0.411323 0)
(6.79246 0.491058 0)
(6.69521 0.479911 0)
(6.79178 0.554426 0)
(6.69769 0.526855 0)
(6.75425 0.59864 0)
(6.69153 0.564113 0)
(6.69128 0.637098 0)
(6.67103 0.594379 0)
(6.61341 0.660543 0)
(6.63782 0.622185 0)
(6.55263 0.703712 0)
(6.60222 0.677228 0)
(6.51068 0.779523 0)
(6.57495 0.747057 0)
(6.50037 0.869306 0)
(6.55352 0.833836 0)
(6.48664 0.975007 0)
(6.54205 0.933252 0)
(6.46453 1.09497 0)
(6.5485 1.04476 0)
(6.41916 1.24263 0)
(6.59217 1.18895 0)
(6.34864 1.42193 0)
(6.66153 1.35544 0)
(6.26865 1.63234 0)
(6.68029 1.5368 0)
(6.23072 1.87592 0)
(6.62652 1.76851 0)
(6.19954 2.14937 0)
(6.53309 2.06046 0)
(6.15439 2.47582 0)
(6.43395 2.43798 0)
(6.09615 2.8914 0)
(6.28122 2.94096 0)
(5.91343 3.44722 0)
(6.09066 3.63305 0)
(5.77058 4.26593 0)
(5.80654 4.66422 0)
(5.26261 5.783 0)
(5.80017 6.51228 0)
(3.28012 9.70659 0)
(4.08752 -0.207991 0)
(4.26068 -0.196892 0)
(4.61114 -0.251627 0)
(4.99494 -0.308998 0)
(5.39577 -0.369313 0)
(5.75784 -0.44018 0)
(6.12802 -0.52148 0)
(6.4734 -0.617857 0)
(6.82395 -0.728274 0)
(7.12131 -0.827118 0)
(7.45589 -0.932408 0)
(7.71605 -1.03489 0)
(7.94729 -1.12996 0)
(8.16538 -1.20303 0)
(8.37472 -1.26899 0)
(8.56393 -1.33387 0)
(8.73717 -1.41843 0)
(8.88296 -1.52882 0)
(9.00304 -1.65352 0)
(9.11739 -1.78521 0)
(9.22249 -1.90497 0)
(9.32864 -2.01083 0)
(9.44774 -2.1181 0)
(9.54414 -2.21039 0)
(9.61675 -2.29411 0)
(9.65412 -2.37857 0)
(9.64509 -2.44041 0)
(9.66244 -2.48328 0)
(9.65906 -2.50431 0)
(9.64353 -2.51885 0)
(9.60725 -2.53052 0)
(9.57982 -2.53475 0)
(9.55072 -2.52609 0)
(9.50914 -2.51358 0)
(9.45756 -2.49953 0)
(9.39322 -2.50006 0)
(9.32743 -2.51243 0)
(9.2722 -2.52144 0)
(9.24546 -2.519 0)
(9.232 -2.50181 0)
(9.20257 -2.48156 0)
(9.16074 -2.45586 0)
(9.10991 -2.42641 0)
(9.05398 -2.40632 0)
(8.99464 -2.37097 0)
(8.92677 -2.31678 0)
(8.84841 -2.23958 0)
(8.75769 -2.14533 0)
(8.61264 -2.02227 0)
(8.47017 -1.91462 0)
(8.35903 -1.83145 0)
(8.23115 -1.74891 0)
(8.12581 -1.67194 0)
(8.03211 -1.58973 0)
(7.9424 -1.50312 0)
(7.87491 -1.43141 0)
(7.82238 -1.37129 0)
(7.75141 -1.29429 0)
(7.6864 -1.2123 0)
(7.59816 -1.12687 0)
(7.51219 -1.01661 0)
(7.3994 -0.907694 0)
(7.29827 -0.799884 0)
(7.20206 -0.69376 0)
(7.1027 -0.588659 0)
(7.004 -0.489608 0)
(6.90222 -0.397473 0)
(6.81112 -0.318746 0)
(6.71962 -0.250489 0)
(6.63556 -0.18069 0)
(6.57623 -0.109288 0)
(6.52786 -0.0399605 0)
(6.49839 0.022242 0)
(6.46072 0.0809845 0)
(6.42557 0.133004 0)
(6.40162 0.202482 0)
(6.38492 0.278441 0)
(6.37812 0.345181 0)
(6.36356 0.410246 0)
(6.37726 0.468482 0)
(6.37647 0.520602 0)
(6.37939 0.565375 0)
(6.39917 0.605319 0)
(6.41374 0.636831 0)
(6.43036 0.659692 0)
(6.44593 0.688142 0)
(6.43634 0.727043 0)
(6.44392 0.767044 0)
(6.43681 0.794372 0)
(6.46308 0.834779 0)
(6.45046 0.853453 0)
(6.49239 0.877204 0)
(6.50388 0.884116 0)
(6.53257 0.905822 0)
(6.56081 0.889794 0)
(6.59102 0.883105 0)
(6.64561 0.867088 0)
(6.67368 0.861603 0)
(6.75775 0.828169 0)
(6.78259 0.821261 0)
(6.84748 0.793171 0)
(6.84559 0.794345 0)
(6.91016 0.746458 0)
(6.90525 0.743684 0)
(6.96708 0.688077 0)
(6.92545 0.671195 0)
(6.98881 0.578816 0)
(6.91242 0.548002 0)
(6.98939 0.464596 0)
(6.88434 0.448795 0)
(6.96206 0.353326 0)
(6.84806 0.330635 0)
(6.92922 0.236819 0)
(6.79517 0.222827 0)
(6.91 0.133024 0)
(6.74828 0.131782 0)
(6.89286 0.0548851 0)
(6.69124 0.0556694 0)
(6.8377 -0.0289596 0)
(6.64795 -0.0187471 0)
(6.77183 -0.105413 0)
(6.61844 -0.0751017 0)
(6.70721 -0.148801 0)
(6.57116 -0.093529 0)
(6.65931 -0.17244 0)
(6.51962 -0.0977806 0)
(6.60917 -0.187527 0)
(6.44613 -0.0911823 0)
(6.53408 -0.183969 0)
(6.37176 -0.0768712 0)
(6.45712 -0.171553 0)
(6.34494 -0.0516717 0)
(6.39682 -0.140132 0)
(6.33485 -0.0251457 0)
(6.35401 -0.106833 0)
(6.34138 0.00510978 0)
(6.31964 -0.0921769 0)
(6.35215 0.00919894 0)
(6.27034 -0.0847876 0)
(6.3651 0.0152385 0)
(6.25063 -0.0585404 0)
(6.35684 0.0506688 0)
(6.28144 -0.0269982 0)
(6.3605 0.0925191 0)
(6.33521 0.00875373 0)
(6.39932 0.123898 0)
(6.3856 0.061735 0)
(6.44668 0.155109 0)
(6.46485 0.117909 0)
(6.49498 0.197491 0)
(6.54505 0.167324 0)
(6.56689 0.238912 0)
(6.61195 0.22159 0)
(6.63657 0.294343 0)
(6.6559 0.284438 0)
(6.70436 0.354917 0)
(6.68169 0.341783 0)
(6.75515 0.425555 0)
(6.68959 0.40214 0)
(6.8019 0.49647 0)
(6.69353 0.469305 0)
(6.82751 0.563098 0)
(6.68803 0.518558 0)
(6.81677 0.614812 0)
(6.68526 0.557222 0)
(6.77678 0.660444 0)
(6.67543 0.588752 0)
(6.71535 0.687101 0)
(6.64808 0.61767 0)
(6.65361 0.730536 0)
(6.61872 0.667623 0)
(6.61456 0.796679 0)
(6.62224 0.736167 0)
(6.5965 0.880836 0)
(6.62753 0.830748 0)
(6.56391 0.986315 0)
(6.65753 0.928774 0)
(6.52516 1.10529 0)
(6.71637 1.04104 0)
(6.46452 1.25833 0)
(6.79412 1.17586 0)
(6.40472 1.4425 0)
(6.85563 1.33388 0)
(6.37414 1.67134 0)
(6.84359 1.51807 0)
(6.35604 1.91535 0)
(6.79149 1.75451 0)
(6.31949 2.18174 0)
(6.73751 2.05243 0)
(6.28494 2.50989 0)
(6.66473 2.43152 0)
(6.24509 2.92613 0)
(6.60639 2.92129 0)
(6.19432 3.49281 0)
(6.39842 3.64896 0)
(6.00709 4.39179 0)
(6.22397 4.70887 0)
(5.56149 6.02137 0)
(7.02704 6.34493 0)
(4.66315 10.4506 0)
(5.93333 -0.248221 0)
(6.01482 -0.275286 0)
(6.2167 -0.350924 0)
(6.45515 -0.433322 0)
(6.73187 -0.507493 0)
(6.98066 -0.575749 0)
(7.23383 -0.651622 0)
(7.44823 -0.740815 0)
(7.67827 -0.84474 0)
(7.86792 -0.941033 0)
(8.08972 -1.04205 0)
(8.27841 -1.13242 0)
(8.44357 -1.21622 0)
(8.59522 -1.28738 0)
(8.76929 -1.35375 0)
(8.94544 -1.41735 0)
(9.11427 -1.49247 0)
(9.28611 -1.58621 0)
(9.41726 -1.69954 0)
(9.51797 -1.82474 0)
(9.61647 -1.94309 0)
(9.70688 -2.04671 0)
(9.78585 -2.1532 0)
(9.86142 -2.24296 0)
(9.88945 -2.31856 0)
(9.92503 -2.38657 0)
(9.90489 -2.44143 0)
(9.90736 -2.48361 0)
(9.8937 -2.50313 0)
(9.87156 -2.50678 0)
(9.828 -2.51564 0)
(9.79074 -2.52196 0)
(9.74598 -2.51054 0)
(9.69192 -2.49514 0)
(9.64063 -2.47357 0)
(9.58357 -2.47134 0)
(9.53271 -2.48678 0)
(9.47549 -2.50297 0)
(9.42893 -2.50433 0)
(9.38837 -2.48705 0)
(9.33875 -2.46473 0)
(9.2719 -2.43362 0)
(9.2006 -2.39979 0)
(9.13111 -2.3772 0)
(9.05773 -2.34161 0)
(8.96542 -2.28093 0)
(8.86333 -2.19425 0)
(8.74428 -2.08946 0)
(8.58456 -1.96258 0)
(8.44686 -1.86111 0)
(8.32817 -1.77908 0)
(8.19423 -1.70099 0)
(8.08744 -1.63052 0)
(7.98098 -1.5504 0)
(7.88423 -1.46987 0)
(7.81229 -1.40435 0)
(7.75005 -1.34471 0)
(7.66627 -1.26353 0)
(7.58767 -1.17706 0)
(7.49017 -1.08557 0)
(7.40085 -0.97213 0)
(7.28694 -0.86577 0)
(7.19499 -0.75806 0)
(7.1019 -0.65203 0)
(7.00521 -0.546956 0)
(6.90851 -0.447931 0)
(6.80598 -0.355771 0)
(6.71184 -0.278214 0)
(6.62051 -0.213009 0)
(6.53457 -0.148302 0)
(6.47129 -0.0848708 0)
(6.42059 -0.0213786 0)
(6.38882 0.0368003 0)
(6.35271 0.0963096 0)
(6.31618 0.149115 0)
(6.28671 0.214603 0)
(6.26429 0.287114 0)
(6.25714 0.351326 0)
(6.23964 0.413302 0)
(6.25177 0.468337 0)
(6.25227 0.519515 0)
(6.24832 0.562034 0)
(6.26667 0.597562 0)
(6.28535 0.629393 0)
(6.29869 0.654943 0)
(6.31457 0.687239 0)
(6.30366 0.729549 0)
(6.31235 0.768474 0)
(6.30787 0.792039 0)
(6.33449 0.832728 0)
(6.33221 0.844744 0)
(6.37788 0.866781 0)
(6.39213 0.872351 0)
(6.4316 0.895058 0)
(6.4691 0.874615 0)
(6.49485 0.867884 0)
(6.55808 0.848164 0)
(6.58208 0.840228 0)
(6.67551 0.80254 0)
(6.69771 0.803478 0)
(6.77204 0.77769 0)
(6.76606 0.783401 0)
(6.84553 0.733812 0)
(6.83266 0.733312 0)
(6.91583 0.68042 0)
(6.87041 0.669503 0)
(6.95705 0.57689 0)
(6.87512 0.553907 0)
(6.95888 0.468434 0)
(6.85137 0.460212 0)
(6.93003 0.357119 0)
(6.81351 0.343937 0)
(6.897 0.242772 0)
(6.7534 0.23228 0)
(6.86958 0.137987 0)
(6.70438 0.143023 0)
(6.84199 0.0638574 0)
(6.65246 0.0703903 0)
(6.77437 -0.0193129 0)
(6.61417 -0.00202303 0)
(6.70131 -0.0969215 0)
(6.58073 -0.0614622 0)
(6.63522 -0.139357 0)
(6.5346 -0.0809551 0)
(6.58311 -0.163208 0)
(6.48592 -0.0833193 0)
(6.52322 -0.177145 0)
(6.41708 -0.0726956 0)
(6.44039 -0.17136 0)
(6.34516 -0.0588634 0)
(6.35621 -0.165616 0)
(6.32543 -0.0378838 0)
(6.29201 -0.138091 0)
(6.33232 -0.0140284 0)
(6.24746 -0.110879 0)
(6.35593 0.0149527 0)
(6.21484 -0.0969875 0)
(6.38057 0.0251644 0)
(6.16281 -0.0920418 0)