/*--------------------------------*- C++ -*----------------------------------*\
| =========                 |                                                 |
| \\      /  F ield         | OpenFOAM: The Open Source CFD Toolbox           |
|  \\    /   O peration     | Version:  2.4.0                                 |
|   \\  /    A nd           | Web:      www.OpenFOAM.org                      |
|    \\/     M anipulation  |                                                 |
\*---------------------------------------------------------------------------*/
FoamFile
{
    version     2.0;
    format      ascii;
    class       volScalarField;
    location    "0.113";
    object      pMean;
}
// * * * * * * * * * * * * * * * * * * * * * * * * * * * * * * * * * * * * * //

dimensions      [0 2 -2 0 0 0 0];

internalField   nonuniform List<scalar> 
4400
(
140.532
118.831
110.368
106.268
102.863
99.4946
96.1097
92.7183
89.1474
84.7352
138.621
118.896
110.405
106.28
102.866
99.4952
96.1102
92.7199
89.1636
85.1723
137.42
119.203
110.537
106.318
102.886
99.5027
96.1139
92.7183
89.2395
85.3857
136.689
119.573
110.713
106.376
102.927
99.5307
96.1267
92.7382
89.3212
85.6693
136.097
119.912
110.89
106.435
102.986
99.5729
96.1575
92.7567
89.4325
85.9391
135.586
120.192
111.044
106.479
103.041
99.6267
96.1956
92.7953
89.5601
86.2409
135.166
120.415
111.172
106.506
103.086
99.6725
96.235
92.8367
89.6573
86.6082
134.843
120.584
111.272
106.519
103.116
99.7105
96.2691
92.8824
89.7217
86.9416
134.626
120.698
111.34
106.526
103.136
99.7393
96.2934
92.9278
89.8054
87.2769
134.517
120.757
111.374
106.529
103.147
99.7549
96.3186
92.9686
89.9029
87.5317
134.516
120.759
111.374
106.532
103.148
99.7637
96.3329
93.0117
89.9981
87.7408
134.624
120.703
111.34
106.531
103.141
99.7601
96.346
93.0541
90.0899
87.9045
134.84
120.591
111.271
106.528
103.125
99.747
96.3521
93.0927
90.1816
88.0267
135.161
120.425
111.17
106.519
103.097
99.7227
96.3521
93.1296
90.2729
88.1072
135.581
120.203
111.041
106.497
103.058
99.6883
96.3469
93.1608
90.3611
88.1532
136.09
119.924
110.887
106.456
103.006
99.6481
96.3383
93.1883
90.4349
88.1907
136.683
119.586
110.71
106.4
102.952
99.6129
96.3322
93.2127
90.4857
88.2227
137.415
119.215
110.535
106.344
102.912
99.5933
96.3323
93.2325
90.5146
88.256
138.616
118.908
110.403
106.306
102.894
99.5878
96.3351
93.2439
90.5259
88.2928
140.527
118.844
110.366
106.295
102.891
99.5886
96.3367
93.2478
90.5274
88.3964
82.0427
81.5048
80.1101
78.6623
77.5437
76.8864
76.8162
76.6212
76.7863
77.0292
76.9287
76.6311
76.0147
75.8324
75.9193
75.6465
75.4118
75.784
76.6464
77.8592
79.2695
80.7979
82.3257
83.7893
85.0859
86.2092
87.1716
88.0199
88.7035
89.2322
89.6215
89.9276
90.1248
90.2568
90.303
90.3551
90.3914
90.4627
90.6515
90.9612
91.4005
91.9013
92.447
92.9823
93.4711
93.8006
94.0744
94.2622
94.4125
94.5936
94.8139
95.1711
95.5423
95.9654
96.5303
97.0152
97.6435
97.9647
98.487
98.6007
98.8947
98.8044
98.9941
98.797
98.9582
98.6734
98.8403
98.4847
98.6472
98.3126
98.6262
98.4651
98.9924
98.9228
99.5659
99.4325
100.058
99.749
100.285
99.7542
100.219
99.5496
99.9995
99.2911
99.7384
99.0499
99.4793
98.8532
99.189
98.5413
98.6989
97.8385
97.7958
96.4801
96.2793
93.9427
93.6688
88.2099
87.5268
60.8818
82.4622
81.7125
80.613
79.3801
78.3598
77.7215
77.6248
77.5796
77.7702
78.0713
78.0352
77.7669
77.1716
76.8821
76.9262
76.7103
76.4093
76.6729
77.4255
78.5071
79.7882
81.1829
82.5814
83.9229
85.1068
86.1085
86.9466
87.6653
88.2328
88.6565
88.9566
89.1907
89.3472
89.4611
89.4952
89.5674
89.6159
89.7353
89.9948
90.3948
90.9576
91.5661
92.2499
92.9049
93.5148
93.9408
94.2908
94.5344
94.7184
94.9306
95.1616
95.4675
95.7987
96.1661
96.656
97.0846
97.6576
97.9248
98.4061
98.4807
98.7461
98.6158
98.7632
98.5433
98.6607
98.3619
98.4836
98.1139
98.2801
97.9203
98.2777
98.1047
98.6864
98.5947
99.304
99.123
99.8373
99.4407
100.094
99.4173
100.038
99.1611
99.8306
98.8402
99.5548
98.5457
99.2703
98.2973
98.9322
97.8992
98.336
97.0255
97.2158
95.3042
95.3963
92.0327
92.1481
84.2129
83.0144
53.4364
83.1047
82.1953
81.111
80.0194
79.1158
78.5377
78.4118
78.4514
78.6408
78.929
78.9583
78.748
78.233
77.8883
77.8927
77.7581
77.4649
77.6511
78.3059
79.2695
80.42
81.6725
82.9189
84.1115
85.1568
86.0233
86.7282
87.3124
87.7658
88.0985
88.3226
88.5014
88.6322
88.7414
88.7802
88.8766
88.9357
89.1117
89.4359
89.9323
90.6185
91.3327
92.1654
92.9418
93.677
94.209
94.6463
94.9417
95.1764
95.4065
95.6508
95.894
96.1892
96.4914
96.9038
97.2598
97.7657
97.9781
98.4076
98.4457
98.6787
98.5269
98.6188
98.3872
98.425
98.1291
98.1901
97.8093
97.9632
97.59
97.9819
97.8044
98.42
98.3158
99.0575
98.8432
99.6052
99.1397
99.8618
99.0606
99.7804
98.7243
99.5363
98.3051
99.2415
97.906
98.9467
97.5536
98.5965
97.0561
97.9179
96.0504
96.5738
93.9634
94.2824
89.883
90.4525
80.7884
77.8386
51.6356
83.6803
82.7944
81.7407
80.7199
79.9055
79.3935
79.2537
79.3326
79.5145
79.7684
79.847
79.6901
79.2846
78.9331
78.8986
78.8423
78.6013
78.7259
79.2827
80.1317
81.1493
82.2443
83.3161
84.3314
85.2179
85.9437
86.5162
86.9738
87.3237
87.576
87.7385
87.8797
88.0017
88.1189
88.1763
88.2942
88.3639
88.6004
88.9786
89.5797
90.3769
91.2037
92.196
93.0914
93.955
94.5944
95.1221
95.4665
95.7626
95.9995
96.2629
96.4381
96.7015
96.9254
97.274
97.5455
97.9762
98.1187
98.4937
98.482
98.6797
98.5164
98.5576
98.3253
98.2852
97.994
97.9946
97.5951
97.7133
97.3322
97.7467
97.5654
98.2014
98.0872
98.8378
98.6032
99.3744
98.868
99.5998
98.7252
99.4576
98.2946
99.1339
97.7401
98.7572
97.1564
98.4256
96.5908
98.0987
95.8903
97.399
94.7461
95.9111
92.5007
93.0226
87.7438
88.0344
77.6827
71.9808
51.73
84.1473
83.3871
82.4798
81.4877
80.7091
80.2446
80.116
80.2216
80.4184
80.6494
80.7589
80.6563
80.362
80.048
79.9671
79.9639
79.802
79.8798
80.3317
81.0535
81.9275
82.854
83.74
84.5675
85.2862
85.8688
86.3191
86.6668
86.9249
87.1072
87.2237
87.346
87.4706
87.6064
87.6947
87.8303
87.9123
88.2006
88.6274
89.3432
90.2333
91.1847
92.3375
93.3459
94.3384
95.0808
95.6988
96.0791
96.4538
96.686
96.9784
97.0801
97.3203
97.4494
97.7528
97.9235
98.2925
98.341
98.673
98.5821
98.7591
98.5721
98.5821
98.3396
98.2532
97.9515
97.8986
97.472
97.5419
97.1481
97.5784
97.3792
98.0373
97.8948
98.653
98.3946
99.1544
98.6261
99.321
98.4275
99.0868
97.9149
98.6477
97.2283
98.1262
96.4205
97.6054
95.5112
97.0759
94.4181
96.3498
92.9142
94.8088
90.4514
91.9265
85.7902
85.3811
75.2403
65.5179
51.3634
84.5542
83.9271
83.1637
82.2237
81.4777
81.0814
80.999
81.1368
81.352
81.5686
81.6922
81.6434
81.449
81.2013
81.0938
81.1029
81.019
81.0692
81.41
81.9871
82.7038
83.4548
84.1626
84.813
85.3636
85.8092
86.1543
86.4079
86.5848
86.7059
86.7911
86.9133
87.0521
87.2139
87.3367
87.4881
87.5879
87.9203
88.3986
89.2297
90.1947
91.2815
92.5826
93.6964
94.8093
95.6522
96.3536
96.7529
97.2305
97.444
97.7764
97.8004
98.0358
98.0553
98.3262
98.3701
98.7063
98.6265
98.9477
98.7364
98.9356
98.6934
98.7089
98.4286
98.3307
97.9853
97.8955
97.4315
97.4613
97.0443
97.4865
97.2497
97.9374
97.7436
98.5155
98.2166
98.9563
98.4094
99.0368
98.1589
98.6904
97.5723
98.1236
96.778
97.4644
95.8235
96.7671
94.6909
96.0076
93.2299
94.9188
91.0356
93.0002
87.7513
89.7286
82.5375
81.6117
72.4685
61.2339
51.7056
85.0989
84.4467
83.68
82.8151
82.1761
81.8973
81.891
82.0522
82.2736
82.4795
82.6124
82.6142
82.5005
82.328
82.2173
82.2178
82.185
82.2257
82.4679
82.8953
83.4432
84.0226
84.5748
85.0676
85.4618
85.7858
86.0383
86.21
86.3123
86.3781
86.4462
86.5846
86.7501
86.9481
87.107
87.2796
87.4021
87.7709
88.2993
89.2385
90.2644
91.4922
92.9179
94.1279
95.3507
96.2907
97.0565
97.4589
98.0727
98.2458
98.6307
98.5724
98.8206
98.7308
98.9897
98.8898
99.2114
98.9669
99.3027
98.9352
99.2069
98.8714
98.9429
98.6003
98.5137
98.1051
97.995
97.4827
97.4852
97.032
97.4826
97.1861
97.9091
97.6396
98.434
98.0774
98.7912
98.2278
98.7567
97.9201
98.2785
97.2385
97.5715
96.3261
96.78
95.2711
95.9388
94.0542
94.9669
92.4178
93.4972
89.7675
90.9647
85.5237
86.3807
78.6516
76.7004
68.4941
59.108
52.1069
85.9028
85.1404
84.1276
83.2945
82.8012
82.6516
82.72
82.9071
83.1309
83.3348
83.4801
83.5248
83.4754
83.3709
83.2772
83.2639
83.2588
83.294
83.4574
83.75
84.1387
84.5643
84.9865
85.3432
85.5985
85.8175
85.9849
86.0752
86.1079
86.1313
86.1963
86.3574
86.5597
86.8052
87.007
87.2101
87.3564
87.763
88.3387
89.3706
90.4442
91.8071
93.3274
94.6268
95.9388
96.969
97.7883
98.1728
98.9452
99.0592
99.4984
99.3748
99.6532
99.4627
99.7179
99.4938
99.7965
99.4071
99.7487
99.2139
99.5794
99.1157
99.283
98.8591
98.8046
98.3214
98.2113
97.6337
97.6276
97.1242
97.5795
97.21
97.9641
97.6059
98.424
97.9994
98.6774
98.1023
98.5003
97.7226
97.864
96.9131
97.0039
95.8524
96.0634
94.6455
95.0467
93.2545
93.8141
91.3912
91.9142
88.4959
88.6607
83.7779
82.8623
76.204
72.7023
66.109
58.3387
51.7975
86.4981
85.6924
84.5505
83.735
83.3549
83.322
83.4689
83.693
83.925
84.129
84.284
84.3617
84.364
84.3161
84.2516
84.2321
84.2326
84.253
84.3515
84.5398
84.7978
85.1
85.4156
85.6511
85.7856
85.9127
85.9954
86.0067
85.9806
85.9769
86.0486
86.2359
86.4808
86.7794
87.0294
87.2712
87.4471
87.8976
88.5227
89.6177
90.7301
92.2115
93.7995
95.1833
96.5513
97.6703
98.5064
98.8859
99.8188
99.865
100.36
100.169
100.488
100.231
100.489
100.171
100.458
99.9631
100.295
99.6143
100.055
99.4347
99.73
99.1984
99.2103
98.6439
98.5599
97.9033
97.9088
97.3361
97.7919
97.3435
98.1193
97.6741
98.5009
98.0196
98.6375
98.0736
98.2979
97.5979
97.4774
96.6309
96.451
95.4053
95.3308
94.006
94.0871
92.359
92.5356
90.1891
90.1809
87.0176
86.2203
82.175
79.6895
75.0533
70.4871
65.8875
58.1865
51.5882
86.9467
86.1632
84.9931
84.2024
83.895
83.9508
84.1623
84.4189
84.6576
84.8582
85.0192
85.1213
85.1678
85.1699
85.1395
85.1226
85.1155
85.1112
85.1566
85.2693
85.4336
85.6457
85.8708
85.9944
86.021
86.0663
86.0691
86.0111
85.9343
85.9094
85.9953
86.2169
86.5144
86.8706
87.1753
87.4584
87.6774
88.1758
88.848
89.9733
91.1113
92.6931
94.3207
95.783
97.1644
98.3705
99.1882
99.5952
100.658
100.636
101.194
100.94
101.322
101.01
101.271
100.899
101.158
100.613
100.915
100.128
100.607
99.84
100.266
99.6137
99.7218
99.0689
99.0357
98.3051
98.3378
97.6892
98.1338
97.6214
98.3952
97.8848
98.6964
98.1778
98.719
98.1801
98.2074
97.5823
97.1879
96.4476
95.981
95.0549
94.6371
93.4407
93.0993
91.5228
91.1705
89.0736
88.3771
85.7145
84.0705
80.9792
77.8399
74.7989
69.8755
66.9953
58.4828
52.2459
87.2935
86.5621
85.4258
84.6749
84.4196
84.5316
84.7884
85.0724
85.3226
85.5263
85.6958
85.8206
85.905
85.9523
85.955
85.9454
85.9298
85.9018
85.908
85.9624
86.0543
86.2
86.3462
86.3646
86.2929
86.268
86.1988
86.0829
85.9719
85.9425
86.054
86.3147
86.6734
87.0887
87.4508
87.7833
88.0575
88.6023
89.3075
90.4389
91.5856
93.2489
94.8872
96.4144
97.7649
99.0681
99.8128
100.323
101.453
101.395
101.974
101.694
102.126
101.786
102.056
101.655
101.885
101.324
101.573
100.745
101.219
100.351
100.884
100.122
100.339
99.6032
99.6274
98.8526
98.8958
98.2121
98.5927
98.0754
98.7817
98.2728
99.0081
98.513
98.9361
98.462
98.2681
97.7334
97.106
96.4588
95.7366
94.9156
94.1544
93.0951
92.2922
90.9342
90.0035
88.2637
86.9295
84.8305
82.6946
80.4785
77.1518
75.4061
70.1875
68.3331
59.3415
53.5093
87.5353
86.8712
85.826
85.1536
84.9522
85.1009
85.3817
85.6802
85.9392
86.1493
86.329
86.4728
86.5883
86.6727
86.7033
86.7017
86.6837
86.6442
86.6158
86.6207
86.6586
86.7527
86.8228
86.7358
86.5756
86.4978
86.3731
86.216
86.0936
86.0804
86.2287
86.5406
86.9633
87.434
87.8611
88.2539
88.5958
89.1786
89.8988
91.0216
92.1564
93.8771
95.4964
97.0787
98.3591
99.7659
100.389
101.109
102.184
102.168
102.708
102.447
102.914
102.555
102.835
102.43
102.626
102.098
102.267
101.475
101.881
100.992
101.557
100.742
101.024
100.258
100.312
99.5493
99.5602
98.9107
99.1536
98.7192
99.2545
98.8542
99.4067
99.0519
99.2495
98.9378
98.46
98.0919
97.2461
96.7312
95.774
95.0734
94.0189
93.1003
91.9176
90.7706
89.3819
87.9945
86.2151
84.6899
82.2282
80.9243
77.3671
76.6327
71.0136
69.4153
60.5895
54.5731
87.6872
87.1116
86.2119
85.6509
85.5047
85.6626
85.9413
86.2346
86.4932
86.7091
86.8989
87.0619
87.2038
87.3129
87.3631
87.3712
87.3497
87.2957
87.2415
87.2048
87.2011
87.2599
87.2706
87.0929
86.8656
86.7531
86.603
86.4329
86.3177
86.3343
86.531
86.9017
87.3851
87.9099
88.401
88.8619
89.2855
89.8994
90.6294
91.7223
92.8349
94.5699
96.1465
97.7794
98.9694
100.497
100.968
101.971
102.874
102.975
103.358
103.243
103.64
103.343
103.611
103.245
103.394
102.954
103.006
102.351
102.583
101.807
102.271
101.505
101.767
101.045
101.067
100.385
100.295
99.7625
99.785
99.5319
99.7779
99.607
99.8568
99.7651
99.6123
99.5697
98.7511
98.6702
97.5498
97.3004
96.0323
95.6096
94.1931
93.576
91.9789
91.1888
89.3372
88.4483
86.1999
85.4127
82.5247
82.1698
78.1624
78.0397
72.0555
70.1241
61.7463
55.2878
87.735
87.2649
86.5664
86.1458
86.0575
86.208
86.4627
86.7331
86.9806
87.1987
87.3961
87.5737
87.7303
87.8519
87.9157
87.9307
87.9113
87.8548
87.7772
87.6985
87.6576
87.6892
87.659
87.4222
87.1573
87.0263
86.8854
86.7373
86.6543
86.7188
86.9749
87.4069
87.9479
88.5142
89.0625
89.5986
90.1095
90.7464
91.4819
92.5185
93.6158
95.3126
96.8399
98.5158
99.6102
101.257
101.581
102.913
103.505
103.836
103.972
104.118
104.337
104.183
104.362
104.107
104.167
103.882
103.78
103.353
103.324
102.787
102.987
102.416
102.521
101.953
101.853
101.339
101.067
100.728
100.458
100.449
100.323
100.468
100.316
100.565
99.9913
100.283
99.1295
99.4056
97.9706
98.0909
96.4513
96.4652
94.5943
94.4928
92.3676
92.1917
89.7433
89.6096
86.7295
86.8275
83.339
83.7206
79.2193
79.1815
72.9931
70.4571
62.6356
55.8588
87.7066
87.3682
86.9105
86.634
86.5806
86.6979
86.9125
87.1524
87.3824
87.5962
87.792
87.9714
88.1306
88.2557
88.3319
88.3601
88.3466
88.2892
88.1967
88.0865
88.0178
88.0317
87.9814
87.7303
87.4678
87.3398
87.23
87.1256
87.097
87.2273
87.5543
88.0529
88.6393
89.2391
89.8366
90.442
91.0325
91.6822
92.4109
93.3733
94.4632
96.0795
97.5642
99.2718
100.262
102.025
102.194
103.867
104.176
104.694
104.614
105.082
105.001
105.111
105.066
105.004
104.904
104.845
104.528
104.437
104.075
103.906
103.714
103.457
103.267
102.957
102.63
102.37
101.83
101.764
101.131
101.427
100.862
101.378
100.759
101.376
100.376
101.031
99.5507
100.197
98.4435
98.9493
96.9571
97.4541
95.1398
95.6563
92.9763
93.5547
90.4557
91.1569
87.6096
88.4465
84.3869
85.0939
80.231
79.8924
73.6909
70.5136
63.2973
56.455
87.6436
87.4373
87.2158
87.0522
87.0093
87.0893
87.26
87.4654
87.6738
87.8781
88.0704
88.2514
88.4138
88.541
88.6238
88.6586
88.6489
88.5943
88.5001
88.379
88.3036
88.3106
88.2524
88.0224
87.8
87.7002
87.6377
87.6001
87.6469
87.8544
88.2538
88.8097
89.4278
90.0512
90.6795
91.3387
91.9911
92.6497
93.3658
94.2549
95.3284
96.8426
98.307
100.015
100.916
102.789
102.772
104.735
104.789
105.51
105.097
106.045
105.591
106.08
105.66
105.915
105.516
105.781
105.164
105.465
104.732
105.014
104.372
104.535
103.949
103.993
103.332
103.417
102.532
102.806
101.776
102.393
101.38
102.255
101.18
102.147
100.746
101.772
99.9685
100.948
98.921
99.7659
97.4905
98.4234
95.7546
96.8437
93.7034
94.9838
91.3278
92.7483
88.6164
89.9509
85.4109
86.1386
81.0527
80.2158
74.2064
70.4502
63.8171
57.0989
87.6743
87.5345
87.4347
87.3409
87.3061
87.3597
87.4946
87.6703
87.8601
88.0558
88.2454
88.4252
88.5847
88.7105
88.797
88.8384
88.8345
88.7873
88.7054
88.5999
88.5385
88.5466
88.4954
88.3144
88.1547
88.1011
88.1008
88.1438
88.275
88.5639
89.0276
89.6216
90.2499
90.874
91.5153
92.2046
92.8962
93.5679
94.2743
95.1048
96.152
97.5579
99.0037
100.676
101.507
103.492
103.334
105.497
105.212
106.404
105.546
106.85
106.074
106.905
106.147
106.795
106.017
106.662
105.681
106.357
105.277
105.96
104.931
105.544
104.543
105.016
103.963
104.434
103.163
103.784
102.356
103.282
101.854
103.055
101.557
102.871
101.088
102.459
100.364
101.603
99.3617
100.482
97.9966
99.281
96.3524
97.9086
94.4252
96.2593
92.1906
94.1293
89.5624
91.1739
86.2792
86.8574
81.6758
80.2885
74.6213
70.4061
64.224
57.757
87.7501
87.6484
87.5796
87.508
87.4798
87.5193
87.629
87.7831
87.9599
88.1485
88.3336
88.5083
88.6628
88.787
88.876
88.9236
88.9334
88.9055
88.8463
88.7708
88.7384
88.7568
88.7221
88.6007
88.5102
88.5117
88.5754
88.6964
88.9074
89.264
89.7722
90.379
90.9942
91.598
92.2352
92.9266
93.6309
94.3193
95.028
95.8328
96.8588
98.1697
99.583
101.191
101.996
104.048
103.793
106.14
105.437
107.122
105.96
107.391
106.407
107.577
106.522
107.499
106.371
107.33
106.034
107.013
105.663
106.681
105.349
106.354
104.987
105.875
104.418
105.278
103.612
104.579
102.774
104.007
102.208
103.717
101.845
103.486
101.379
103.013
100.681
102.114
99.7292
101.039
98.4333
99.9579
96.8723
98.7561
95.0566
97.2667
92.9246
95.1948
90.3226
92.0765
86.9303
87.3193
82.1157
80.2623
74.944
70.4256
64.5166
58.3652
87.8355
87.7424
87.6567
87.5848
87.5575
87.5878
87.6811
87.8217
87.9912
88.1769
88.3609
88.5349
88.6881
88.8138
88.9084
88.9658
88.9886
88.9794
88.9466
88.9064
88.9036
88.9332
88.918
88.8507
88.8206
88.8687
88.9807
89.1551
89.4189
89.8151
90.3392
90.934
91.5229
92.0989
92.7187
93.4006
94.109
94.8097
95.5342
96.3472
97.3643
98.6084
100
101.529
102.332
104.433
104.025
106.618
105.653
107.427
106.169
107.775
106.68
108.018
106.75
107.934
106.614
107.702
106.257
107.365
105.893
107.136
105.622
106.893
105.292
106.453
104.723
105.844
103.9
105.103
103.032
104.485
102.421
104.149
102.016
103.875
101.542
103.336
100.848
102.395
99.9245
101.342
98.6655
100.342
97.1689
99.2514
95.4484
97.8633
93.4052
95.8281
90.8328
92.6044
87.3831
87.5562
82.5066
80.1911
75.2233
70.4644
64.6911
58.8123
87.99
87.8136
87.6843
87.6051
87.575
87.6006
87.6877
87.823
87.989
88.1719
88.354
88.5274
88.6832
88.8144
88.917
88.9851
89.0208
89.0261
89.01
88.9892
88.9989
89.0324
89.0284
88.9872
88.9814
89.0445
89.1706
89.3619
89.6409
90.0451
90.5681
91.1551
91.7307
92.2953
92.91
93.5876
94.2961
95.0082
95.7562
96.5847
97.6021
98.8061
100.18
101.675
102.482
104.592
104.189
106.835
105.77
107.541
106.298
108.042
106.746
108.171
106.859
108.111
106.72
107.839
106.365
107.514
106.001
107.335
105.74
107.13
105.397
106.696
104.812
106.061
103.984
105.3
103.102
104.659
102.469
104.298
102.049
104.006
101.569
103.431
100.866
102.473
99.9411
101.431
98.6817
100.471
97.1933
99.429
95.4977
98.0831
93.4937
96.0651
90.9585
92.8003
87.5104
87.6262
82.5965
80.1107
75.266
70.4361
64.7189
58.7821
84.356
83.9328
82.7852
81.0574
79.6262
78.409
77.4527
77.0513
76.7828
76.7283
77.0427
77.7865
78.8782
79.9565
80.8571
81.7139
82.5863
83.4146
84.1508
84.9898
86.215
87.7672
89.5376
91.4537
93.4527
95.5188
97.5665
99.4621
101.238
102.878
104.584
106.158
107.615
108.585
109.187
109.193
108.942
108.384
107.773
107.101
106.602
106.05
105.648
105.163
104.84
104.537
104.475
104.297
104.262
104.042
104.025
103.922
104.046
104.156
104.435
104.691
104.949
105.149
105.256
105.272
105.219
105.108
104.969
104.807
104.636
104.458
104.288
104.12
103.975
103.839
103.726
103.617
103.52
103.42
103.327
103.231
103.145
103.065
103.001
102.952
102.921
102.909
102.918
102.949
103.004
103.085
103.19
103.32
103.469
103.633
103.807
103.993
104.177
104.319
104.392
104.504
104.685
104.973
105.787
106.865
84.2889
83.8222
82.5885
80.8198
79.3573
78.1412
77.2087
76.8294
76.5398
76.4854
76.8076
77.5474
78.6266
79.6832
80.5552
81.4205
82.3167
83.1517
83.8721
84.7143
85.9396
87.4956
89.2221
91.0644
93.0396
95.1347
97.2379
99.177
100.976
102.618
104.331
105.909
107.358
108.353
108.945
108.981
108.729
108.206
107.596
106.959
106.462
105.957
105.553
105.096
104.774
104.48
104.425
104.258
104.231
104.003
103.995
103.882
104.017
104.126
104.413
104.672
104.937
105.142
105.253
105.271
105.218
105.106
104.967
104.804
104.632
104.453
104.282
104.114
103.968
103.832
103.72
103.611
103.515
103.415
103.323
103.227
103.141
103.06
102.996
102.946
102.915
102.902
102.911
102.943
102.999
103.079
103.186
103.316
103.466
103.63
103.804
103.988
104.175
104.316
104.385
104.466
104.581
104.805
105.616
106.67
84.1627
83.5958
82.209
80.3401
78.8289
77.5705
76.6919
76.3611
76.0707
76.0001
76.3197
77.0224
78.0343
79.0208
79.8269
80.6623
81.5535
82.3719
83.0954
83.9819
85.2888
86.875
88.5361
90.2603
92.1899
94.3164
96.5246
98.5444
100.394
102.043
103.764
105.359
106.785
107.829
108.392
108.488
108.236
107.77
107.177
106.579
106.105
105.662
105.269
104.846
104.536
104.26
104.214
104.084
104.069
103.857
103.872
103.761
103.919
104.043
104.338
104.61
104.883
105.103
105.222
105.248
105.197
105.086
104.947
104.784
104.612
104.433
104.262
104.094
103.95
103.814
103.705
103.597
103.502
103.401
103.31
103.213
103.126
103.044
102.978
102.927
102.894
102.881
102.888
102.919
102.973
103.054
103.16
103.292
103.442
103.61
103.782
103.966
104.156
104.322
104.395
104.435
104.41
104.537
105.311
106.368
83.9693
83.2996
81.7246
79.7496
78.1925
76.8509
76.0249
75.6948
75.371
75.305
75.6348
76.2591
77.1302
78.0071
78.7614
79.5561
80.409
81.1752
81.8986
82.8647
84.2934
85.9384
87.6059
89.2472
91.1344
93.2808
95.5909
97.6943
99.6023
101.281
103.007
104.633
106.021
107.109
107.659
107.804
107.568
107.156
106.593
106.031
105.585
105.196
104.82
104.41
104.126
103.873
103.835
103.749
103.762
103.581
103.633
103.532
103.721
103.877
104.174
104.475
104.76
105.008
105.143
105.185
105.14
105.032
104.894
104.73
104.558
104.377
104.209
104.042
103.903
103.772
103.668
103.562
103.472
103.372
103.282
103.182
103.095
103.009
102.942
102.887
102.853
102.835
102.841
102.868
102.923
103
103.108
103.238
103.393
103.561
103.74
103.92
104.123
104.313
104.423
104.419
104.258
104.266
104.994
106.044
83.7252
82.961
81.2111
79.1426
77.5256
76.0858
75.267
74.8825
74.4685
74.3611
74.6352
75.1616
75.8981
76.6923
77.4474
78.2106
79.0054
79.7276
80.4671
81.5301
83.0793
84.7938
86.5209
88.1398
90.0038
92.2039
94.6298
96.8229
98.7856
100.496
102.203
103.837
105.175
106.269
106.816
106.984
106.778
106.416
105.897
105.378
104.955
104.618
104.247
103.858
103.602
103.36
103.339
103.279
103.348
103.186
103.286
103.205
103.418
103.619
103.914
104.255
104.558
104.839
105
105.066
105.035
104.936
104.8
104.636
104.464
104.282
104.116
103.951
103.818
103.693
103.599
103.5
103.419
103.32
103.234
103.131
103.043
102.953
102.884
102.824
102.787
102.765
102.766
102.789
102.838
102.914
103.019
103.151
103.306
103.48
103.661
103.854
104.057
104.281
104.415
104.414
104.117
104.047
104.72
105.792
83.4675
82.6357
80.7382
78.5944
76.9131
75.3547
74.4741
73.9537
73.3694
73.1453
73.279
73.6897
74.3724
75.1548
75.9673
76.7236
77.4937
78.2213
79.0065
80.1467
81.7792
83.5872
85.4004
87.0569
88.9209
91.2088
93.7587
96.0386
98.0317
99.7553
101.413
103.013
104.278
105.328
105.871
106.037
105.859
105.548
105.1
104.614
104.219
103.934
103.596
103.247
102.998
102.772
102.762
102.717
102.837
102.689
102.848
102.798
103.037
103.294
103.596
103.974
104.293
104.604
104.793
104.885
104.876
104.788
104.659
104.497
104.33
104.149
103.989
103.826
103.702
103.583
103.5
103.409
103.338
103.245
103.164
103.06
102.971
102.877
102.805
102.741
102.698
102.671
102.664
102.682
102.723
102.795
102.893
103.023
103.177
103.356
103.547
103.748
103.968
104.199
104.372
104.372
104.043
103.906
104.613
105.658
83.237
82.3602
80.3346
78.1299
76.3749
74.6991
73.6802
72.912
72.0988
71.66
71.616
71.9203
72.6682
73.5225
74.4208
75.2042
76.0065
76.7995
77.6613
78.8696
80.5675
82.477
84.3762
86.0847
87.9634
90.3489
93.0089
95.3458
97.3462
99.0667
100.657
102.188
103.361
104.325
104.852
105.001
104.855
104.589
104.216
103.77
103.41
103.171
102.884
102.555
102.31
102.109
102.098
102.076
102.224
102.109
102.313
102.31
102.569
102.883
103.193
103.612
103.944
104.3
104.519
104.646
104.662
104.588
104.469
104.312
104.155
103.978
103.826
103.668
103.557
103.442
103.372
103.287
103.23
103.142
103.073
102.967
102.882
102.781
102.709
102.637
102.591
102.554
102.544
102.55
102.585
102.645
102.738
102.858
103.012
103.186
103.387
103.598
103.83
104.074
104.26
104.305
103.99
103.899
104.585
105.709
83.049
82.1348
79.9886
77.7241
75.8924
74.1085
72.8861
71.8216
70.78
70.0706
69.8382
70.0525
70.935
71.9353
72.908
73.7593
74.6328
75.5284
76.5019
77.7823
79.5468
81.5563
83.5421
85.2962
87.1931
89.6569
92.3837
94.7264
96.7159
98.4157
99.9323
101.357
102.424
103.279
103.774
103.917
103.799
103.574
103.273
102.873
102.546
102.349
102.106
101.783
101.55
101.358
101.353
101.348
101.52
101.458
101.687
101.73
101.996
102.367
102.665
103.143
103.497
103.909
104.171
104.344
104.396
104.34
104.235
104.085
103.94
103.769
103.627
103.475
103.375
103.267
103.212
103.133
103.09
103.009
102.954
102.851
102.77
102.666
102.592
102.515
102.465
102.422
102.402
102.401
102.425
102.476
102.556
102.669
102.81
102.983
103.176
103.4
103.634
103.891
104.093
104.178
103.975
103.955
104.754
105.764
82.8989
81.9322
79.6733
77.3425
75.4172
73.5445
72.0776
70.7617
69.5637
68.5944
68.1575
68.2931
69.3018
70.4982
71.5328
72.4642
73.4263
74.4503
75.5648
76.9367
78.7662
80.8564
82.9221
84.7203
86.6329
89.1356
91.8568
94.1644
96.1177
97.7681
99.21
100.497
101.454
102.207
102.658
102.806
102.71
102.523
102.285
101.934
101.637
101.471
101.266
100.965
100.749
100.563
100.566
100.557
100.764
100.737
100.98
101.07
101.328
101.76
102.057
102.609
103.002
103.465
103.778
103.999
104.092
104.054
103.966
103.822
103.692
103.527
103.397
103.25
103.161
103.057
103.016
102.946
102.917
102.845
102.802
102.707
102.631
102.527
102.453
102.372
102.318
102.269
102.242
102.233
102.247
102.287
102.356
102.456
102.588
102.745
102.934
103.144
103.386
103.635
103.866
103.999
103.937
104.045
104.854
106.066
82.755
81.7173
79.3536
76.9422
74.8972
72.9593
71.2789
69.7954
68.5246
67.34
66.738
66.7954
67.9026
69.2986
70.372
71.3718
72.4396
73.5949
74.8532
76.3227
78.2226
80.3767
82.4968
84.3417
86.2649
88.7492
91.3983
93.631
95.5113
97.0963
98.4516
99.5994
100.446
101.118
101.522
101.682
101.608
101.455
101.265
100.964
100.698
100.546
100.38
100.115
99.906
99.7323
99.7375
99.7373
99.9687
99.9588
100.215
100.348
100.591
101.089
101.411
102.035
102.479
102.987
103.357
103.613
103.746
103.725
103.652
103.516
103.403
103.244
103.129
102.986
102.91
102.808
102.783
102.721
102.71
102.644
102.62
102.533
102.469
102.363
102.294
102.207
102.153
102.094
102.064
102.043
102.051
102.078
102.139
102.225
102.344
102.487
102.656
102.855
103.072
103.325
103.563
103.767
103.851
104.13
105.089
106.134
82.5813
81.4495
79.0048
76.4943
74.3211
72.3518
70.5479
68.9858
67.7125
66.3842
65.6965
65.6994
66.8864
68.442
69.5006
70.5362
71.6967
72.9539
74.3391
75.9005
77.8706
80.0918
82.2373
84.1193
86.0484
88.4564
90.9719
93.0896
94.8701
96.3731
97.6261
98.6512
99.4015
100.012
100.381
100.554
100.5
100.374
100.22
99.9686
99.7369
99.5949
99.4489
99.2194
99.0365
98.8764
98.8787
98.9003
99.1331
99.1475
99.4128
99.5747
99.8003
100.353
100.701
101.397
101.905
102.46
102.888
103.172
103.343
103.338
103.285
103.156
103.066
102.917
102.819
102.681
102.619
102.52
102.51
102.457
102.464
102.408
102.405
102.33
102.279
102.178
102.112
102.024
101.966
101.902
101.865
101.836
101.832
101.852
101.899
101.978
102.079
102.209
102.354
102.529
102.724
102.949
103.203
103.448
103.696
104.105
105.134
106.479
82.322
81.1016
78.6146
76.0297
73.7471
71.7943
69.9921
68.4398
67.2171
65.8665
65.1672
65.1249
66.3273
67.9668
68.9632
69.9783
71.1998
72.5288
74.0094
75.6497
77.662
79.9394
82.0923
84.0075
85.9306
88.2255
90.5453
92.5201
94.184
95.5835
96.7337
97.6644
98.3496
98.9113
99.255
99.4364
99.4015
99.2985
99.1654
98.9574
98.7613
98.6326
98.5063
98.3181
98.164
98.0149
98.02
98.0563
98.2865
98.3345
98.5865
98.7576
98.9858
99.5587
99.9604
100.696
101.292
101.881
102.366
102.677
102.891
102.901
102.874
102.753
102.687
102.549
102.474
102.339
102.293
102.197
102.202
102.154
102.182
102.141
102.16
102.101
102.066
101.972
101.912
101.823
101.763
101.694
101.65
101.612
101.6
101.609
101.647
101.711
101.801
101.908
102.033
102.174
102.337
102.534
102.769
103.064
103.424
104.051
105.178
106.237
81.9601
80.6568
78.1782
75.5875
73.3041
71.4128
69.7385
68.2703
67.155
65.8826
65.2127
65.1061
66.2475
67.8815
68.7875
69.7148
70.9536
72.3071
73.837
75.5377
77.5641
79.87
82.0057
83.9474
85.8401
87.9872
90.0948
91.9204
93.4645
94.7634
95.8272
96.6811
97.3136
97.8311
98.155
98.3391
98.3203
98.2366
98.1194
97.954
97.7913
97.6754
97.5652
97.42
97.3032
97.1785
97.193
97.2382
97.4599
97.5274
97.7628
97.9403
98.1935
98.7699
99.2586
99.9997
100.678
101.284
101.819
102.15
102.402
102.425
102.427
102.316
102.275
102.147
102.094
101.964
101.934
101.844
101.861
101.818
101.868
101.845
101.892
101.85
101.836
101.751
101.699
101.612
101.55
101.478
101.426
101.381
101.358
101.356
101.382
101.435
101.507
101.596
101.689
101.799
101.919
102.072
102.279
102.564
103.003
103.671
104.769
106.138
81.5319
80.1765
77.7744
75.2171
73.0717
71.2943
69.8546
68.524
67.5533
66.442
65.8123
65.6335
66.6457
68.1866
68.9726
69.7489
70.9372
72.2684
73.8077
75.5528
77.5678
79.8568
81.9515
83.8904
85.7376
87.7189
89.6271
91.3138
92.7401
93.9481
94.9339
95.7184
96.3022
96.7782
97.0837
97.2617
97.2597
97.19
97.0845
96.9544
96.8264
96.7403
96.6568
96.5593
96.4834
96.3952
96.4209
96.4747
96.6763
96.7493
96.9696
97.1627
97.453
98.0425
98.6177
99.3454
100.086
100.698
101.268
101.606
101.89
101.923
101.957
101.854
101.842
101.717
101.69
101.563
101.556
101.461
101.491
101.447
101.527
101.523
101.601
101.58
101.592
101.523
101.482
101.398
101.335
101.258
101.201
101.145
101.114
101.099
101.115
101.151
101.208
101.268
101.337
101.4
101.478
101.569
101.72
101.976
102.399
103.147
104.261
105.306
81.166
79.7583
77.492
74.9999
73.0696
71.5013
70.3279
69.1794
68.3801
67.4892
66.9133
66.6644
67.4687
68.8341
69.4832
70.0706
71.1454
72.4177
73.9136
75.6678
77.6452
79.8765
81.9235
83.8387
85.6324
87.4476
89.1716
90.7233
92.0293
93.1503
94.0649
94.7896
95.3266
95.7572
96.0389
96.2014
96.2154
96.1599
96.0706
95.9768
95.8924
95.8469
95.8027
95.7585
95.73
95.6919
95.7295
95.7846
95.9571
96.0305
96.2393
96.4648
96.7904
97.3928
98.0313
98.7453
99.5317
100.141
100.732
101.062
101.371
101.41
101.478
101.374
101.393
101.262
101.268
101.137
101.154
101.041
101.093
101.045
101.166
101.177
101.297
101.296
101.345
101.29
101.268
101.184
101.127
101.04
100.981
100.911
100.873
100.84
100.848
100.862
100.904
100.934
100.967
100.986
100.999