/*--------------------------------*- C++ -*----------------------------------*\
| =========                 |                                                 |
| \\      /  F ield         | OpenFOAM: The Open Source CFD Toolbox           |
|  \\    /   O peration     | Version:  2.4.0                                 |
|   \\  /    A nd           | Web:      www.OpenFOAM.org                      |
|    \\/     M anipulation  |                                                 |
\*---------------------------------------------------------------------------*/
FoamFile
{
    version     2.0;
    format      ascii;
    class       volScalarField;
    location    "0.125";
    object      p;
}
// * * * * * * * * * * * * * * * * * * * * * * * * * * * * * * * * * * * * * //

dimensions      [0 2 -2 0 0 0 0];

internalField   nonuniform List<scalar> 
17600
(
69.0114
67.2397
64.6446
61.669
58.7722
56.2442
54.1902
52.6063
51.4513
50.5956
49.9381
49.4169
48.9575
48.5338
48.142
47.7476
47.3605
46.984
46.6008
46.2235
45.8567
45.486
45.1232
44.7661
44.4128
44.0611
43.7214
43.3828
43.051
42.7243
42.4093
42.0902
41.7868
41.4889
41.2013
40.9256
40.6767
40.4455
40.261
40.1239
67.2711
66.0226
63.9214
61.3005
58.617
56.222
54.2454
52.6967
51.5552
50.6935
50.0189
49.4814
49.0043
48.5656
48.1661
47.7633
47.3701
46.9907
46.6033
46.2236
45.8572
45.4838
45.1213
44.7639
44.4103
44.0579
43.7194
43.3794
43.049
42.7203
42.4079
42.0847
41.7839
41.4818
41.1947
40.9109
40.6714
40.4224
40.2021
39.9287
65.9212
64.958
63.2821
61.0817
58.7428
56.5663
54.684
53.1312
51.9232
50.9723
50.2193
49.6215
49.098
48.631
48.2137
47.7985
47.397
47.0144
46.621
46.2396
45.8701
45.4971
45.1311
44.775
44.4181
44.0676
43.7245
43.3881
43.0519
42.7266
42.4061
42.0874
41.774
41.4794
41.1715
40.8848
40.5846
40.3718
40.2953
40.6975
64.8442
64.0796
62.7402
60.9196
58.8841
56.8862
55.0737
53.5164
52.2509
51.2252
50.4076
49.7566
49.1981
48.708
48.2749
47.8498
47.4431
47.0544
46.6575
46.2715
45.8979
45.5196
45.153
44.7911
44.434
44.0815
43.7375
43.3981
43.0638
42.7329
42.4102
42.0863
41.7665
41.4594
41.149
40.8618
40.5523
40.2085
39.918
40.8062
64.0327
63.3768
62.2831
60.7539
58.9704
57.1133
55.3749
53.8237
52.5247
51.4394
50.5747
49.874
49.2905
48.7771
48.3346
47.897
47.4911
47.0916
46.6998
46.3036
45.93
45.5451
45.1816
44.8061
44.4564
44.0968
43.7529
43.4067
43.0818
42.7356
42.4162
42.0819
41.7595
41.4208
41.1164
40.8216
40.7183
40.8411
41.3382
41.1142
63.37
62.841
61.9146
60.5956
58.9901
57.2719
55.5886
54.064
52.7485
51.6287
50.7105
49.9768
49.359
48.8352
48.3745
47.9399
47.525
47.1274
46.7321
46.3374
45.9527
45.5726
45.2002
44.8245
44.4683
44.1163
43.7597
43.4215
43.0916
42.7467
42.414
42.09
41.7435
41.4082
41.0861
40.7761
40.4918
40.2719
40.2337
42.005
62.8591
62.4378
61.6247
60.4538
58.9804
57.3758
55.7452
54.251
52.9264
51.7831
50.8281
50.0613
49.414
48.8805
48.4061
47.9715
47.5527
47.1563
46.7585
46.3642
45.973
45.5962
45.2175
44.8404
44.4813
44.1328
43.7677
43.4343
43.1058
42.7555
42.4201
42.1012
41.7434
41.3989
41.0613
40.7206
40.3989
40.3553
40.8986
43.5329
62.5117
62.1445
61.415
60.3322
58.9595
57.4352
55.861
54.3843
53.0616
51.9025
50.9261
50.1223
49.461
48.9074
48.4295
47.9936
47.5758
47.1743
46.7809
46.3848
45.9884
45.6131
45.2337
44.8503
44.4924
44.1454
43.7767
43.4436
43.1212
42.7647
42.4311
42.113
41.7499
41.3971
41.0649
40.7151
40.4341
40.3798
40.9309
43.4216
62.2615
61.9585
61.2726
60.2492
58.935
57.4707
55.9311
54.4786
53.15
51.984
50.9917
50.1689
49.4897
48.9303
48.4421
48.0106
47.5906
47.1873
46.7974
46.3978
45.9987
45.6247
45.2453
44.8557
44.5012
44.1567
43.7833
43.4534
43.1367
42.7772
42.4459
42.1365
41.77
41.4214
41.096
40.756
40.461
40.4122
40.9751
43.618
62.1695
61.8676
61.2038
60.197
58.9173
57.4813
55.9689
54.5228
53.1936
52.0243
51.0229
50.1895
49.5066
48.9412
48.4507
48.0223
47.6001
47.1927
46.8051
46.4031
46.0013
45.629
45.251
44.8566
44.5077
44.1641
43.7902
43.4614
43.1518
42.7903
42.4669
42.1668
41.8077
41.4666
41.1554
40.8076
40.5196
40.4497
40.9941
43.467
62.1567
61.8769
61.1985
60.1943
58.9119
57.4903
55.9692
54.5306
53.1889
52.0195
51.0192
50.1926
49.5089
48.9498
48.4516
48.0295
47.6015
47.1969
46.8061
46.4075
45.9954
45.6311
45.2484
44.8587
44.5084
44.1751
43.7947
43.475
43.1641
42.8105
42.4889
42.2076
41.8581
41.5434
41.2469
40.922
40.6103
40.5095
40.8289
43.2937
62.3091
61.9488
61.2369
60.2131
58.9247
57.4716
55.941
54.4844
53.1394
51.9745
50.984
50.1664
49.4962
48.9429
48.4459
48.0213
47.5959
47.1869
46.7986
46.3977
45.9844
45.6216
45.2432
44.8536
44.5055
44.1755
43.7959
43.4792
43.1719
42.8218
42.5079
42.2384
41.9039
41.6193
41.3651
41.0971
40.8345
40.6427
40.478
41.9314
62.6616
62.1174
61.3431
60.2653
58.9611
57.425
55.8869
54.3856
53.0503
51.8873
50.9257
50.1161
49.4824
48.9223
48.4439
48.0061
47.591
47.1684
46.7918
46.3814
45.9821
45.6089
45.2445
44.8449
44.5126
44.17
43.8075
43.4799
43.1879
42.8312
42.5406
42.2647
41.968
41.695
41.4986
41.2866
41.1824
41.1818
41.276
40.4039
62.9567
62.4155
61.565
60.3977
58.9847
57.3693
55.7719
54.2532
52.9183
51.7781
50.8364
50.0524
49.4383
48.8939
48.4198
47.9878
47.5712
47.1518
46.7745
46.37
45.9708
45.6033
45.2371
44.844
44.5113
44.1708
43.811
43.4892
43.1944
42.8493
42.5621
42.2959
42.0157
41.7748
41.6156
41.468
41.4063
41.3317
41.0479
39.182
63.4039
62.8401
61.8869
60.5692
58.9884
57.2711
55.6006
54.0736
52.7434
51.6296
50.7165
49.9701
49.3732
48.8527
48.3822
47.9572
47.541
47.1271
46.7466
46.3513
45.9524
45.5901
45.2229
44.8397
44.503
44.1663
43.8102
43.4935
43.1927
42.8638
42.5754
42.3159
42.0487
41.8307
41.677
41.5488
41.4596
41.3371
40.8865
39.0272
64.0309
63.3896
62.2803
60.7445
58.9573
57.1089
55.3735
53.8333
52.5219
51.4459
50.5781
49.8704
49.2968
48.7946
48.3362
47.914
47.5054
47.096
46.7146
46.3254
45.9343
45.5701
45.2053
44.8317
44.4951
44.1537
43.8129
43.4957
43.1906
42.8747
42.594
42.3247
42.0729
41.8504
41.6837
41.5351
41.4372
41.2759
40.8443
38.9429
64.8447
64.0946
62.7427
60.9161
58.8714
56.8735
55.0672
53.5259
52.2483
51.2297
50.4148
49.7541
49.2039
48.7268
48.2783
47.8644
47.461
47.0605
46.6764
46.2953
45.9101
45.5494
45.1825
44.8228
44.485
44.1418
43.8106
43.4993
43.1839
42.8844
42.6057
42.3303
42.0807
41.8521
41.6465
41.4577
41.3124
41.1609
40.9203
39.7165
65.918
64.9727
63.2857
61.0813
58.7313
56.5528
54.6744
53.1421
51.9203
50.9774
50.2289
49.6217
49.1018
48.65
48.2154
47.8119
47.4156
47.0244
46.6396
46.2677
45.8871
45.5308
45.1631
44.814
44.4733
44.1338
43.804
43.5003
43.178
42.8902
42.6083
42.3348
42.075
41.8467
41.6065
41.3839
41.1063
40.763
40.3331
40.3137
67.2704
66.0349
63.923
61.2999
58.6134
56.2112
54.234
52.7072
51.5527
50.695
50.0282
49.4838
49.0072
48.5836
48.1699
47.7764
47.3879
47.0039
46.6214
46.2528
45.8771
45.5196
45.1551
44.8085
44.4672
44.1298
43.8027
43.4976
43.1781
42.8913
42.6093
42.3347
42.0724
41.8335
41.5834
41.3507
41.118
40.8916
40.6357
40.4143
69.0086
67.2506
64.6468
61.6691
58.7691
56.2344
54.1793
52.615
51.4489
50.5981
49.9464
49.4204
48.9613
48.5498
48.1468
47.7607
47.3775
46.9984
46.6196
46.2518
45.8785
45.5214
45.1577
44.8117
44.4697
44.1336
43.8061
43.4998
43.1826
42.8943
42.6115
42.3368
42.074
41.8308
41.5852
41.3491
41.1232
40.8809
40.6609
40.452
40.1151
40.0395
39.8575
39.6015
39.3666
39.2123
39.1471
39.154
39.2177
39.3203
39.4396
39.5605
39.6856
39.8378
40.0349
40.2805
40.575
40.9079
41.2679
41.6482
42.0416
42.4475
42.8598
43.2639
43.6412
43.9703
44.2386
44.4246
44.4993
44.4846
44.3404
44.0362
43.5737
42.9475
42.1489
41.1953
40.0939
38.8528
37.5018
36.0568
34.5379
32.9764
31.3837
29.7781
28.1868
26.6178
25.0849
23.6076
22.2003
20.8782
19.6566
18.5572
17.5978
16.7829
16.1211
15.604
15.2412
15.049
15.0453
15.1695
15.3802
15.6853
16.0755
16.5522
17.0622
17.5746
18.1221
18.6589
19.1983
19.738
20.24
20.7579
21.2698
21.765
22.2833
22.7793
23.2822
23.7827
24.2677
24.7733
25.2353
25.704
26.1436
26.4846
26.8554
27.1747
27.4402
27.7573
28.0199
28.2841
28.5543
28.781
29.0179
29.1573
29.3132
29.5693
29.7636
30.0601
30.4687
30.7879
31.0626
31.2533
31.4187
31.6989
31.991
32.3404
32.6907
32.7744
32.7014
32.7418
32.8536
32.908
32.8787
32.6917
32.3069
31.9429
31.7364
31.4604
31.0141
30.5832
30.2009
29.7435
29.2511
28.8498
28.4858
27.9616
27.3348
26.8991
26.6084
26.1927
25.7446
25.4945
25.4084
25.345
25.3481
25.5663
25.889
26.1871
26.6104
27.1477
27.6958
28.3429
29.0317
29.6813
30.4075
31.2403
32.0242
32.7241
33.3916
34.0909
34.7553
35.2973
35.7291
36.1263
36.4553
36.5832
36.5567
36.4889
36.3057
35.9244
35.3528
34.6465
33.8609
32.9177
31.7828
30.586
29.3223
27.9402
26.5375
25.112
23.606
22.123
20.6707
19.192
17.7953
16.51
15.2968
14.1804
13.1581
12.3331
11.6753
11.0792
10.7214
10.6163
10.7328
11.1652
11.8363
12.6234
13.6118
14.7274
16.0419
17.5779
19.1775
20.9875
23.0794
25.1231
27.042
29.096
31.3507
33.5851
35.6214
37.5473
39.543
41.5902
43.5205
45.2618
46.9101
48.561
50.206
51.8036
53.3153
54.719
56.022
57.2706
58.4818
59.6423
60.7407
61.7476
62.6448
63.4429
64.1456
64.7552
65.3248
65.8995
66.4233
66.8008
67.0856
67.319
67.6008
67.8614
68.0889
68.2654
68.394
68.4803
68.5264
68.4993
68.4355
68.4055
68.4733
68.6026
68.725
68.7813
68.7796
68.7526
68.7235
68.6994
68.6887
68.6515
68.5651
68.4167
68.2146
67.968
67.6301
67.1904
66.6495
65.9775
65.2114
64.3544
63.4408
62.4447
61.3842
60.2604
59.0331
57.6791
56.2621
54.7706
53.2233
51.7121
50.2191
48.7024
47.3129
46.0373
44.7843
43.6176
42.58
41.6441
40.9127
40.3989
39.9961
39.6125
39.3977
39.4474
39.6991
40.0795
40.477
40.8897
41.4698
42.287
43.0932
43.9024
44.7832
45.8612
46.9636
48.023
49.0257
50.1332
51.2728
52.2539
53.1323
53.8758
54.4956
54.8885
55.1661
55.2418
55.1751
54.8562
54.3517
53.6282
52.7494
51.73
50.535
49.3188
47.9747
46.699
45.3448
44.1119
42.87
41.7147
40.5593
39.4115
38.2638
37.0634
35.8538
34.551
33.2374
31.8232
30.4226
28.942
27.5167
26.0798
24.7558
23.526
22.4502
21.5289
20.784
20.2018
19.7779
19.5156
19.3614
19.3987
19.5444
19.9156
20.4384
21.2444
22.2089
23.468
24.8277
26.4132
28.0114
29.7905
31.5759
33.5617
35.5671
37.7392
39.9135
42.1763
44.4215
46.6506
48.8263
50.8834
52.8543
54.6335
56.3045
57.7278
59.0335
60.0864
61.0333
61.7679
62.4652
63.0061
63.5209
63.8988
64.2704
64.4769
64.6681
64.7185
64.8151
64.7537
64.7228
64.5367
64.399
64.1224
63.9061
63.5539
63.2367
62.819
62.3793
61.8863
61.2916
60.6302
59.7142
58.8495
57.5067
56.2957
54.31
51.7217
47.9251
41.2193
31.7081
11.1683
39.9378
39.834
39.5836
39.3348
39.1551
39.0715
39.081
39.1636
39.2873
39.4279
39.5743
39.717
39.8628
40.0329
40.2408
40.493
40.7945
41.1247
41.472
41.8386
42.2075
42.5652
42.9301
43.2952
43.6251
43.9017
44.1096
44.2436
44.2808
44.2125
44.0295
43.7116
43.2401
42.6211
41.8494
40.925
39.8775
38.7063
37.4227
36.0618
34.6358
33.1557
31.6527
30.1436
28.6408
27.1603
25.7149
24.318
22.9931
21.7412
20.5868
19.5472
18.6138
17.8265
17.1706
16.6826
16.3808
16.1993
16.1465
16.1894
16.298
16.5468
16.8687
17.2703
17.7337
18.1755
18.6768
19.1778
19.6722
20.2124
20.7225
21.2691
21.8063
22.3166
22.8698
23.3527
23.8811
24.4047
24.8514
25.3884
25.8523
26.3049
26.8037
27.1783
27.5801
27.9353
28.2182
28.5446
28.8011
29.0563
29.3348
29.6266
29.9141
30.0782
30.2939
30.5025
30.6269
30.9383
31.3004
31.6236
32.0183
32.2549
32.3649
32.4776
32.5782
32.8506
33.1714
33.2491
33.161
33.044
32.9384
32.8759
32.8037
32.6162
32.2407
31.7328
31.2498
30.8083
30.265
29.6053
28.9115
28.2071
27.5136
26.8386
26.2148
25.6461
24.9542
24.2398
23.8005
23.3964
22.824
22.4099
22.2307
22.0833
22.0238
22.1834
22.5264
23.0176
23.6598
24.3681
25.182
26.2077
27.2464
28.1667
29.1474
30.2702
31.446
32.4997
33.4529
34.4268
35.3768
36.1909
36.8659
37.4313
37.8752
38.1344
38.2022
38.1578
37.9528
37.4973
36.839
36.0428
35.1247
34.0356
32.73
31.2774
29.721
28.0386
26.2821
24.477
22.5781
20.6592
18.7922
16.912
15.0626
13.3427
11.7266
10.2366
8.89856
7.76505
6.87128
6.11234
5.57678
5.33156
5.26015
5.48145
6.20638
7.27751
8.46324
9.72184
11.2071
12.9415
14.8312
16.9402
19.2175
21.5001
23.9049
26.5238
29.1213
31.5905
34.0663
36.5349
38.856
41.0253
43.0973
45.1568
47.2178
49.1571
50.8497
52.3671
53.8502
55.3122
56.6976
57.9793
59.1515
60.2034
61.1659
62.0602
62.9158
63.7229
64.4479
65.0618
65.615
66.1429
66.6229
66.9999
67.2681
67.4758
67.6812
67.9154
68.1337
68.3167
68.4459
68.5389
68.6021
68.6208
68.6115
68.6246
68.6989
68.8237
68.9214
68.9665
68.9649
68.9504
68.9376
68.9244
68.8827
68.8286
68.7484
68.6368
68.488
68.3108
68.0847
67.7627
67.2669
66.5737
65.6908
64.6165
63.3644
61.9364
60.3496
58.6317
56.8271
54.9398
52.9824
50.9842
48.9566
46.9304
44.9287
42.971
41.2032
39.5483
37.8811
36.4057
35.3485
34.407
33.4486
32.6545
32.2648
32.084
32.0322
32.1727
32.5224
33.1412
33.8978
34.6972
35.6519
36.913
38.2156
39.4466
40.7871
42.2698
43.7624
45.1223
46.5543
47.9838
49.3488
50.465
51.5138
52.433
53.1649
53.691
54.033
54.2588
54.2541
54.101
53.6752
53.1539
52.3743
51.4984
50.4211
49.3164
48.1389
46.8843
45.6589
44.3866
43.2494
42.0759
41.0244
39.9097
38.8583
37.7021
36.5308
35.2323
33.8566
32.3928
30.8481
29.3374
27.8016
26.4012
25.0465
23.8706
22.8133
21.9494
21.252
20.6968
20.2952
19.9954
19.8538
19.8287
19.988
20.2811
20.8158
21.503
22.4444
23.5377
24.8517
26.2768
27.856
29.5373
31.3438
33.2907
35.3163
37.4867
39.6501
41.9334
44.1257
46.4014
48.4937
50.5944
52.4179
54.1954
55.667
57.1083
58.2777
59.4255
60.3304
61.2009
61.8224
62.4182
62.7948
63.186
63.3869
63.6394
63.7118
63.7996
63.7268
63.6898
63.5089
63.3595
63.0538
62.8017
62.3796
62.0599
61.4923
61.0849
60.3161
59.7486
58.806
57.9464
56.8047
55.4268
53.7745
51.5105
49.1099
44.7491
40.0345
31.6882
20.9585
7.24862
41.3549
40.9558
39.7834
38.839
38.3441
38.2735
38.4806
38.7935
39.1045
39.3727
39.5967
39.7963
39.9886
40.1846
40.3994
40.6368
40.8953
41.1791
41.4792
41.7922
42.1146
42.4309
42.7511
43.0678
43.3446
43.5494
43.6936
43.7571
43.7379
43.6253
43.4029
43.0619
42.586
41.977
41.2448
40.3763
39.3962
38.3115
37.1245
35.8673
34.5499
33.1884
31.7939
30.3978
29.0098
27.6343
26.3012
25.0043
23.783
22.6357
21.5668
20.6418
19.8079
19.1113
18.5525
18.0929
17.816
17.6411
17.549
17.5579
17.6161
17.8156
18.1067
18.4518
18.8597
19.2742
19.732
20.2052
20.7014
21.23
21.7424
22.3003
22.8261
23.3546
23.9003
24.3668
24.917
25.4058
25.8371
26.365
26.756
27.2108
27.7018
28.0568
28.4941
28.8307
29.1082
29.4505
29.6496
29.8384
30.1113
30.4199
30.7025
30.955
31.2754
31.4688
31.5606
31.7821
31.9845
32.2427
32.6627
32.9892
33.1782
33.2191
33.1843
33.2928
33.4879
33.6481
33.7008
33.5854
33.366
33.1131
32.9006
32.691
32.3271
31.7686
31.0578
30.338
29.6709
28.8189
27.7769
26.7689
25.7443
24.6693
23.6591
22.7676
21.9148
21.0257
20.2862
19.7356
19.1843
18.7512
18.5446
18.4758
18.531
18.6715
18.9852
19.655
20.5065
21.3331
22.4119
23.841
25.2879
26.5944
27.9907
29.4562
30.903
32.3106
33.6233
34.8714
36.066
37.1371
38.0795
38.8753
39.4875
39.9021
40.1334
40.1924
40.0305
39.5611
38.8247
37.924
36.8433
35.5207
33.9709
32.1986
30.2518
28.1727
25.935
23.6115
21.2612
18.843
16.4626
14.1368
11.8044
9.6373
7.61938
5.67607
4.01707
2.56797
1.32327
0.445072
-0.197914
-0.533785
-0.575875
-0.526491
-0.210041
0.780243
2.30189
3.98559
5.73865
7.75567
10.0995
12.6714
15.3257
17.9434
20.6123
23.5034
26.5216
29.4299
32.1548
34.8395
37.5669
40.2466
42.7449
45.0458
47.1717
49.122
50.9709
52.7831
54.4831
55.9507
57.2311
58.4161
59.5621
60.647
61.6668
62.5922
63.4144
64.1392
64.7873
65.3516
65.8561
66.3221
66.7423
67.1171
67.4327
67.7071
67.9297
68.1264
68.3101
68.4823
68.6141
68.7183
68.7932
68.8508
68.8859
68.9302
68.996
69.0875
69.1608
69.2073
69.2322
69.2481
69.2359
69.199
69.1234
69.0152
68.9312
68.8731
68.8538
68.8257
68.7432
68.5138
68.0294
67.2693
66.1886
64.8274
63.1994
61.3386
59.2616
56.9983
54.6112
52.1601
49.6524
47.1186
44.5763
42.1032
39.6693
37.2426
34.9378
32.9114
31.0402
29.3142
27.8635
26.6169
25.4265
24.66
24.3079
24.2079
24.2468
24.5692
25.2402
26.1494
27.1483
28.2365
29.6319
31.2821
32.9744
34.6026
36.4419
38.3404
40.225
42.0358
43.8704
45.6233
47.195
48.6452
49.9081
51.0696
51.9283
52.6559
53.1472
53.5014
53.5838
53.458
53.1901
52.7704
52.2539
51.4811
50.6869
49.664
48.6602
47.4383
46.2746
45.0754
43.9555
42.9019
41.8479
40.8534
39.7687
38.7
37.4548
36.199
34.7122
33.2563
31.6476
30.1304
28.593
27.1659
25.8806
24.6775
23.7318
22.846
22.2186
21.6052
21.2196
20.8209
20.6668
20.513
20.6562
20.867
21.4068
22.0179
22.9443
23.9127
25.1501
26.3633
27.8429
29.3097
31.124
32.9361
35.0569
37.0842
39.3449
41.4699
43.7816
45.9391
48.1763
50.2068
52.1723
53.9028
55.4564
56.7863
57.9045
58.8757
59.6559
60.3772
60.9496
61.4922
61.884
62.2607
62.4525
62.6275
62.6486
62.6981
62.5927
62.4977
62.248
62.0044
61.6514
61.2788
60.8291
60.282
59.7107
58.9883
58.2569
57.2852
56.3953
54.9321
53.7929
51.6233
49.9824
46.9385
44.0776
39.5121
34.1011
27.3402
19.2222
10.7652
43.6444
43.4911
41.5428
39.8578
38.8273
38.4136
38.4049
38.5997
38.8743
39.1682
39.4576
39.7363
40.0012
40.2529
40.4898
40.7203
40.9477
41.175
41.4131
41.6565
41.9012
42.1433
42.3656
42.5658
42.7584
42.9401
43.0388
43.0401
42.9595
42.811
42.5755
42.2335
41.7762
41.1997
40.5265
39.7435
38.863
37.8952
36.8431
35.7286
34.5522
33.3487
32.1102
30.8628
29.6305
28.4016
27.2197
26.0703
24.9836
23.9723
23.0281
22.2393
21.5236
20.8801
20.3574
19.9459
19.6717
19.5036
19.4111
19.3832
19.4604
19.6134
19.858
20.1942
20.5138
20.9238
21.3472
21.7518
22.2766
22.7212
23.1946
23.7422
24.1813
24.7353
25.2316
25.6435
26.2097
26.6147
27.04
27.5234
27.8137
28.2743
28.6779
28.969
29.4315
29.7114
30.012
30.397
30.521
30.719
31.0205
31.2083
31.4431
31.7713
32.1033
32.3355
32.4779
32.5955
32.6632
32.8285
33.1301
33.4956
33.87
34.0433
34.1071
34.1657
34.1726
34.302
34.4328
34.4072
34.2569
33.8193
33.2926
32.9413
32.4925
31.7903
30.8898
29.8759
28.9334
27.8805
26.5788
25.3248
24.0328
22.5359
21.1055
19.8003
18.5765
17.4551
16.3778
15.5
14.8772
14.3692
14.0459
14.0729
14.3965
14.7311
15.184
16.1297
17.2712
18.3265
19.7342
21.5592
23.295
25.0134
26.9343
28.7721
30.4139
32.1471
33.982
35.6412
37.0433
38.3211
39.5388
40.6058
41.4186
41.9944
42.3462
42.4723
42.3107
41.8469
41.0725
40.0035
38.6943
37.1162
35.2641
33.1486
30.793
28.2715
25.5757
22.7278
19.8616
16.9347
13.9651
11.1155
8.32925
5.61982
3.11009
0.756833
-1.36702
-3.26352
-4.91178
-6.13939
-7.10908
-7.77259
-7.93895
-7.82835
-7.49538
-6.45826
-4.81967
-2.86194
-0.688293
1.72187
4.53104
7.68433
10.838
13.9338
17.1596
20.5144
23.8291
27.0044
30.1011
33.2557
36.4073
39.3006
41.8976
44.3946
46.8951
49.2423
51.2986
53.0814
54.6916
56.2151
57.6795
59.0283
60.2169
61.2424
62.139
62.9608
63.7216
64.428
65.1
65.704
66.2228
66.6801
67.0874
67.4427
67.74
67.9739
68.1597
68.3267
68.4924
68.6558
68.7863
68.9004
68.9959
69.0838
69.156
69.2274
69.297
69.3587
69.43
69.4914
69.5488
69.5829
69.6048
69.5866
69.5374
69.4389
69.3812
69.3803
69.4513
69.5187
69.5101
69.2837
68.7462
67.8191
66.5151
64.8217
62.8293
60.563
58.0854
55.381
52.5312
49.5452
46.4923
43.4107
40.3602
37.3556
34.4633
31.6872
28.9712
26.4507
24.219
22.2736
20.5311
19.0282
17.7921
16.9633
16.534
16.4098
16.4899
16.9105
17.8262
19.0444
20.3591
21.775
23.5574
25.6038
27.6894
29.7517
31.9573
34.2894
36.5691
38.8442
40.966
43.0587
44.9505
46.7569
48.3281
49.7328
50.8992
51.7914
52.5124
52.8934
53.1374
53.0985
53.0729
52.8079
52.4716
51.8895
51.2157
50.4197
49.4322
48.4212
47.2437
46.2216
45.094
44.1358
43.0823
42.1341
41.0677
40.0008
38.7982
37.5011
36.1092
34.5655
33.0659
31.3984
29.9532
28.4105
27.1822
25.9255
24.9793
24.0621
23.3662
22.7422
22.3059
21.9326
21.6986
21.5728
21.5841
21.7718
22.1316
22.6967
23.4179
24.3143
25.3469
26.5193
27.8588
29.3363
31.0116
32.8033
34.7693
36.751
38.8816
40.923
43.1231
45.1711
47.3946
49.371
51.4404
53.1389
54.859
56.1622
57.4743
58.3712
59.2853
59.8119
60.4069
60.6579
61.0505
61.1593
61.4129
61.3555
61.4266
61.2149
61.2695
61.0024
60.8236
60.3699
60.0992
59.4577
59.1172
58.2694
57.8766
56.7655
56.2129
54.7883
53.8959
52.1504
50.76
48.6143
46.3576
43.5421
40.0822
36.0923
31.1787
26.2154
20.4802
14.6012
38.9716
38.9106
39.7589
40.1372
40.0076
39.6304
39.2746
39.0696
39.0471
39.1929
39.4584
39.7814
40.0998
40.3912
40.645
40.8574
41.0482
41.2165
41.3745
41.541
41.6991
41.8513
41.9971
42.1134
42.2066
42.2921
42.3321
42.295
42.1808
42.002
41.7524
41.422
40.9963
40.4728
39.8672
39.1769
38.4054
37.5586
36.6561
35.6948
34.6944
33.6697
32.6141
31.5596
30.5079
29.4742
28.4689
27.5046
26.5935
25.7406
24.9898
24.2378
23.5571
22.9751
22.4822
22.1619
21.8948
21.73
21.6633
21.586
21.6847
21.7981
21.9877
22.2934
22.5126
22.9032
23.2511
23.5825
24.0766
24.3995
24.848
25.3011
25.6442
26.2089
26.5815
26.9598
27.5007
27.8133
28.2767
28.6853
28.9094
29.3826
29.6624
29.915
30.3613
30.5649
30.9543
31.3447
31.3917
31.686
31.944
31.9628
32.1755
32.4241
32.6919
33.0095
33.2269
33.4093
33.5199
33.6238
33.7773
34.0613
34.5346
34.9008
35.1645
35.3263
35.2592
35.2329
35.2888
35.3442
35.2368
34.6804
33.9849
33.4306
32.7642
31.8919
30.836
29.5817
28.2464
26.8392
25.3296
23.7999
22.1772
20.3964
18.6049
16.8651
15.2243
13.747
12.3135
11.0493
10.1562
9.40001
8.8182
8.74583
9.09301
9.6287
10.4481
11.706
13.1972
14.776
16.6033
18.7199
20.8058
22.9842
25.4917
27.9772
30.091
32.1099
34.2927
36.3746
38.1287
39.7188
41.2231
42.5137
43.5636
44.3711
44.9131
45.0921
44.8841
44.369
43.5022
42.2126
40.5883
38.6769
36.4501
33.9516
31.2134
28.2358
25.0598
21.7498
18.3467
14.8361
11.2894
7.83693
4.4389
1.12494
-1.92671
-4.77456
-7.46195
-9.77574
-11.7765
-13.4807
-14.7462
-15.7242
-16.2794
-16.1898
-15.4541
-14.2312
-12.5723
-10.5106
-7.99419
-5.11497
-1.86025
1.74251
5.40143
9.10426
12.9936
16.954
20.878
24.6436
28.1998
31.7001
35.1281
38.2929
41.2344
44.0644
46.6806
49.004
51.1305
53.1911
55.1273
56.8406
58.2717
59.512
60.6316
61.6832
62.6606
63.5503
64.3354
65.0262
65.6375
66.1569
66.6098
67.0076
67.3815
67.7149
68.018
68.2613
68.4578
68.6204
68.7745
68.9172
69.0381
69.1436
69.2347
69.3231
69.4068
69.4834
69.551
69.6201
69.6774
69.7292
69.7753
69.8133
69.8491
69.8897
69.9428
70.0197
70.093
70.1663
70.2426
70.3143
70.2951
69.9961
69.3238
68.1801
66.6105
64.6311
62.325
59.7271
56.893
53.8129
50.5789
47.1838
43.6824
40.0647
36.5022
33.0102
29.6589
26.4408
23.3853
20.4744
17.7882
15.374
13.3752
11.8284
10.6002
9.65966
9.0635
8.91918
9.14817
9.7765
10.8285
12.1417
13.6892
15.5735
17.7471
20.0888
22.4674
25.0207
27.6417
30.3635
32.997
35.6315
38.1357
40.5659
42.8764
44.9392
46.8968
48.5278
49.9822
51.0136
51.9139
52.5041
52.9419
53.2056
53.2746
53.2267
52.8917
52.5649
51.9713
51.4136
50.529
49.6981
48.6858
47.7013
46.6868
45.6463
44.6948
43.6461
42.6808
41.5446
40.4588
39.1143
37.8174
36.2414
34.7577
33.0732
31.5658
30.0357
28.7054
27.4954
26.4639
25.6118
24.8808
24.3077
23.7947
23.3184
22.9558
22.82
22.76
22.9175
23.1547
23.6312
24.2195
25.0477
25.9649
27.1126
28.3561
29.8766
31.446
33.2413
34.9991
36.9227
38.7995
40.8006
42.7358
44.7103
46.6146
48.4946
50.2959
51.9668
53.5103
54.8275
56.0319
56.9843
57.9049
58.5545
59.2212
59.5697
59.9547
60.0326
60.2843
60.2757
60.3553
60.1709
60.021
59.5637
59.3329
58.7548
58.3883
57.6886
57.14
56.2785
55.4928
54.4738
53.4089
52.2355
50.8734
49.4193
47.6738
45.7891
43.4029
40.9276
37.7377
34.5214
30.7122
26.8059
22.4404
17.8194
46.3688
46.0772
42.8998
40.1196
38.2862
37.3876
37.2544
37.6055
38.1764
38.7863
39.3497
39.829
40.2156
40.5117
40.7303
40.889
40.9986
41.083
41.1554
41.2292
41.3036
41.3705
41.4482
41.5569
41.6413
41.6647
41.6513
41.5902
41.4747
41.2931
41.0455
40.738
40.3495
39.8929
39.3553
38.7545
38.0902
37.3644
36.606
35.7945
34.9684
34.1114
33.239
32.366
31.4823
30.6361
29.7765
28.9696
28.1956
27.4559
26.798
26.1167
25.5455
25.0548
24.6318
24.376
24.1081
23.9738
23.8842
23.7906
23.8835
23.933
24.1107
24.3232
24.4712
24.8389
25.0713
25.3843
25.7889
26.0244
26.4802
26.7781
27.0849
27.6041
27.8251
28.2396
28.6714
28.9266
29.4808
29.7719
30.0017
30.4759
30.6316
30.9139
31.2717
31.4156
31.9015
32.2053
32.2387
32.6268
32.7749
32.7633
32.9924
33.0572
33.2578
33.6224
33.8492
34.219
34.5189
34.6148
34.7637
34.9734
35.3144
35.7423
36.1518
36.4757
36.5671
36.4368
36.3627
36.5019
36.4144
35.8881
35.2476
34.4872
33.518
32.4654
31.2435
29.7285
27.9797
26.0674
24.1599
22.2596
20.1824
18.049
15.9018
13.7526
11.785
9.91998
8.1177
6.57519
5.35433
4.32382
3.5836
3.34314
3.46886
4.0251
5.17428
6.65462
8.47152
10.7225
13.1881
15.7284
18.3
20.9026
23.7623
26.7678
29.5087
32.0384
34.589
37.0098
39.164
41.1832
43.045
44.5576
45.7579
46.8002
47.5209
47.7522
47.5154
46.9201
45.9658
44.6066
42.8028
40.5777
37.9928
35.0721
31.8158
28.2721
24.4953
20.5585
16.501
12.3297
8.171
4.07653
0.00470564
-3.87419
-7.48686
-10.8926
-13.9635
-16.6045
-18.9191
-20.8675
-22.2914
-23.2475
-23.8225
-23.8101
-23.0655
-21.8016
-20.1239
-17.9141
-15.1923
-11.9834
-8.30297
-4.40769
-0.356858
4.0241
8.57864
13.1051
17.5517
21.8272
25.9841
30.0531
33.8245
37.2809
40.5544
43.6741
46.5343
49.1392
51.4808
53.5908
55.4534
57.1279
58.659
60.0823
61.3481
62.4288
63.3539
64.1567
64.8579
65.4802
66.0603
66.5936
67.0864
67.5069
67.8782
68.1796
68.43
68.6277
68.8044
68.9429
69.065
69.1741
69.2746
69.3678
69.4671
69.5778
69.6673
69.734
69.7895
69.8674
69.9467
70.0446
70.1171
70.1757
70.2044
70.2374
70.2615
70.3418
70.4847
70.7246
70.9778
71.1485
71.08
70.6593
69.7712
68.4217
66.5858
64.3781
61.8088
58.9656
55.8248
52.4417
48.8292
45.0575
41.1931
37.2484
33.2817
29.3187
25.4507
21.7489
18.3328
15.1323
12.1739
9.48258
7.18688
5.28103
3.78884
2.68525
2.17631
2.09431
2.40631
3.13993
4.31814
5.89305
7.73827
9.87622
12.2761
15.0025
17.8338
20.7328
23.6851
26.7538
29.8393
32.7552
35.6762
38.4465
41.1289
43.448
45.678
47.59
49.2077
50.5607
51.637
52.5942
53.1752
53.6806
53.7809
53.8379
53.6196
53.4355
53.0811
52.5993
52.0265
51.2437
50.4719
49.4337
48.502
47.4039
46.4755
45.4211
44.4688
43.3349
42.2328
40.9198
39.6181
38.1273
36.615
35.0488
33.5045
32.0861
30.7301
29.5779
28.4952
27.6041
26.7621
26.0588
25.383
24.9502
24.5116
24.1851
24.0516
24.1438
24.4265
24.8873
25.486
26.2275
27.0973
28.1455
29.3387
30.7645
32.3092
34.0211
35.7252
37.4936
39.1815
40.9891
42.7535
44.6679
46.4642
48.3418
49.9229
51.5182
52.713
53.9265
54.7666
55.6392
56.1752
56.7591
57.0975
57.5283
57.7959
57.9811
57.9901
57.991
57.9231
57.8367
57.5601
57.3346
56.9532
56.5814
56.0787
55.5507
54.9124
54.234
53.4066
52.5116
51.3642
50.2224
48.7591
47.3668
45.545
43.7498
41.4808
39.1913
36.5334
33.7708
30.7298
27.4652
23.9317
20.1858
47.4512
46.7685
42.8116
39.2746
37.0159
36.0452
36.1387
36.8502
37.7694
38.652
39.4027
39.9901
40.4166
40.6948
40.8595
40.9472
40.9785
40.9864
40.993
41.0058
41.0276
41.066
41.1066
41.1468
41.1777
41.1675
41.1257
41.0478
40.9385
40.7642
40.5334
40.246
39.8998
39.5073
39.0399
38.5267
37.9547
37.3519
36.7166
36.0383
35.3486
34.6242
33.9127
33.1666
32.4289
31.7239
30.986
30.3095
29.627
28.9972
28.4238
27.8298
27.3828
26.9656
26.6365
26.3961
26.1307
26.0306
25.9042
25.8364
25.8903
25.8872
26.0649
26.1676
26.2922
26.6004
26.7427
27.0717
27.3494
27.5445
27.997
28.1622
28.4828
28.8971
29.0271
29.511
29.7677
30.0092
30.6214
30.7673
31.0958
31.5285
31.581
31.982
32.1849
32.2844
32.8366
32.9683
33.0975
33.5576
33.5919
33.7126
33.9426
33.8962
34.0896
34.3186
34.4902
34.9466
35.299
35.5334
35.8261
35.9975
36.2233
36.5788
37.0232
37.6115
37.9902
37.9551
38.0181
38.1757
37.9327
37.564
37.0895
36.1278
34.9078
33.6474
32.2345
30.4512
28.2567
25.8768
23.4662
20.9796
18.3505
15.7112
13.0615
10.4603
8.11062
5.83161
3.70528
1.93605
0.343429
-0.893741
-1.56747
-1.86382
-1.80507
-1.18879
0.0240289
1.76312
4.13051
6.8681
9.7428
12.9452
16.2352
19.2499
22.3438
25.6243
28.7836
31.8898
34.9312
37.6114
40.013
42.4214
44.7115
46.5789
48.021
49.177
50.0014
50.3927
50.2586
49.6177
48.5271
47.0029
44.9821
42.4468
39.436
35.9706
32.0987
27.9154
23.4942
18.893
14.2319
9.56584
4.9109
0.33624
-4.09971
-8.3971
-12.4506
-16.1868
-19.598
-22.6041
-25.156
-27.3059
-28.9576
-29.9622
-30.5101
-30.59
-29.9714
-28.6804
-26.8794
-24.4979
-21.4749
-17.9888
-14.1367
-9.8984
-5.30888
-0.513476
4.41909
9.42072
14.3361
19.1372
23.8707
28.3941
32.5778
36.4888
40.1397
43.4584
46.4391
49.1463
51.6462
53.9345
55.9758
57.7692
59.3354
60.7055
61.899
62.9507
63.8946
64.7513
65.5004
66.1469
66.7094
67.2079
67.637
68.0065
68.327
68.5823
68.7851
68.9485
69.0976
69.2088
69.3159
69.429
69.5449
69.6344
69.7198
69.8099
69.9132
70.0093
70.1002
70.2035
70.3017
70.394
70.4779
70.5521
70.5795
70.5687
70.5684
70.6623
70.8808
71.1999
71.5105
71.6819
71.5433
70.9807
69.9312
68.4267
66.4773
64.1394
61.4184
58.4001
55.033
51.4012
47.4746
43.4032
39.2124
34.9606
30.6527
26.365
22.1339
18.016
14.1259
10.5825
7.41156
4.54505
1.98255
-0.179655
-1.80885
-2.91414
-3.51995
-3.68919
-3.37104
-2.50985
-1.18485
0.532748
2.5686
4.97125
7.698
10.6496
13.7643
17.0027
20.4423
23.8402
27.2361
30.4696
33.7638
36.8605
39.722
42.3678
44.7906
47.061
48.8956
50.6238
51.9358
53.0997
53.8257
54.3652
54.6273
54.7034
54.7658
54.6418
54.5387
54.1352
53.7615
53.071
52.3862
51.435
50.533
49.5116
48.553
47.5022
46.455
45.3196
44.1618
42.9328
41.6305
40.2916
38.876
37.4945
36.0533
34.7071
33.3757
32.1637
31.0065
29.9627
29.0167
28.1915
27.5084
26.9588
26.526
26.1829
26.0077
25.994
26.2173
26.6336
27.2355
27.9408
28.7703
29.7239
30.8214
32.0349
33.3634
34.7724
36.2763
37.8631
39.4899
41.1457
42.7798
44.4631
46.0853
47.7802
49.3189
50.8415
52.0605
53.2065
54.0412
54.8333
55.358
55.8764
56.1202
56.3215
56.3311
56.3882
56.4195
56.306
56.0781
55.816
55.4197
55.0359
54.5806
54.3189
53.804
53.3419
52.7271
52.1291
51.3457
50.5461
49.5684
48.5694
47.3246
46.0208
44.4253
42.6751
40.7068
38.5658
36.2268
33.7662
31.1036
28.2389
25.1852
21.9588
47.6079
47.1051
43.2136
39.6159
37.2581
36.1651
36.1552
36.8358
37.7794
38.7112
39.5022
40.1071
40.5362
40.7982
40.9306
40.9701
40.953
40.9112
40.8739
40.8447
40.8286
40.8256
40.814
40.8073
40.8004
40.7788
40.7285
40.6464
40.5409
40.3801
40.1731
39.908
39.6057
39.2643
38.8697
38.4284
37.9395
37.4405
36.8979
36.3337
35.7458
35.1367
34.542
33.8992
33.2912
32.6783
32.0521
31.4865
30.9013
30.3884
29.8854
29.4039
29.0462
28.6851
28.4293
28.1805
27.9353
27.8411
27.7029
27.6723
27.6647
27.6308
27.7935
27.831
27.9601
28.1789
28.2862
28.6278
28.7875
28.9896
29.4021
29.5041
29.8643
30.1436
30.281
30.7883
30.8616
31.1485
31.6835
31.7037
32.1767
32.494
32.5373