/*--------------------------------*- C++ -*----------------------------------*\
| =========                 |                                                 |
| \\      /  F ield         | OpenFOAM: The Open Source CFD Toolbox           |
|  \\    /   O peration     | Version:  2.4.0                                 |
|   \\  /    A nd           | Web:      www.OpenFOAM.org                      |
|    \\/     M anipulation  |                                                 |
\*---------------------------------------------------------------------------*/
FoamFile
{
    version     2.0;
    format      ascii;
    class       volScalarField;
    location    "0.125";
    object      pPrime2Mean;
}
// * * * * * * * * * * * * * * * * * * * * * * * * * * * * * * * * * * * * * //

dimensions      [0 4 -4 0 0 0 0];

internalField   nonuniform List<scalar> 
17600
(
5.16957e+06
5.03921e+06
4.89904e+06
4.76013e+06
4.6232e+06
4.48827e+06
4.35533e+06
4.22438e+06
4.09542e+06
3.96845e+06
3.84345e+06
3.7204e+06
3.59928e+06
3.48001e+06
3.36247e+06
3.24643e+06
3.13144e+06
3.0166e+06
2.89985e+06
2.77421e+06
5.16968e+06
5.0392e+06
4.89904e+06
4.76013e+06
4.6232e+06
4.48827e+06
4.35533e+06
4.22438e+06
4.09542e+06
3.96845e+06
3.84345e+06
3.7204e+06
3.59928e+06
3.48001e+06
3.36247e+06
3.24644e+06
3.13148e+06
3.01667e+06
2.90002e+06
2.77454e+06
5.16976e+06
5.03919e+06
4.89903e+06
4.76013e+06
4.6232e+06
4.48827e+06
4.35533e+06
4.22438e+06
4.09542e+06
3.96845e+06
3.84345e+06
3.72041e+06
3.59928e+06
3.48002e+06
3.36249e+06
3.24647e+06
3.13154e+06
3.0168e+06
2.90032e+06
2.77583e+06
5.16981e+06
5.03917e+06
4.89902e+06
4.76013e+06
4.6232e+06
4.48827e+06
4.35533e+06
4.22438e+06
4.09543e+06
3.96845e+06
3.84345e+06
3.72041e+06
3.59929e+06
3.48003e+06
3.36251e+06
3.24652e+06
3.13163e+06
3.017e+06
2.90078e+06
2.77763e+06
5.16986e+06
5.03915e+06
4.899e+06
4.76012e+06
4.62319e+06
4.48827e+06
4.35533e+06
4.22438e+06
4.09543e+06
3.96845e+06
3.84346e+06
3.72042e+06
3.5993e+06
3.48005e+06
3.36255e+06
3.24658e+06
3.13175e+06
3.01726e+06
2.90138e+06
2.77978e+06
5.1699e+06
5.03913e+06
4.89899e+06
4.76012e+06
4.62319e+06
4.48827e+06
4.35533e+06
4.22438e+06
4.09543e+06
3.96845e+06
3.84346e+06
3.72042e+06
3.59931e+06
3.48007e+06
3.36259e+06
3.24666e+06
3.1319e+06
3.01757e+06
2.90211e+06
2.78214e+06
5.16994e+06
5.03912e+06
4.89897e+06
4.76011e+06
4.62319e+06
4.48826e+06
4.35533e+06
4.22438e+06
4.09543e+06
3.96846e+06
3.84346e+06
3.72043e+06
3.59932e+06
3.4801e+06
3.36263e+06
3.24675e+06
3.13208e+06
3.01793e+06
2.90295e+06
2.78461e+06
5.16998e+06
5.0391e+06
4.89896e+06
4.76011e+06
4.62319e+06
4.48826e+06
4.35533e+06
4.22438e+06
4.09543e+06
3.96846e+06
3.84347e+06
3.72044e+06
3.59934e+06
3.48012e+06
3.36269e+06
3.24685e+06
3.13228e+06
3.01834e+06
2.90388e+06
2.78713e+06
5.17002e+06
5.03909e+06
4.89894e+06
4.76011e+06
4.62319e+06
4.48826e+06
4.35533e+06
4.22438e+06
4.09543e+06
3.96846e+06
3.84347e+06
3.72045e+06
3.59936e+06
3.48016e+06
3.36275e+06
3.24696e+06
3.1325e+06
3.0188e+06
2.90488e+06
2.78965e+06
5.17005e+06
5.03908e+06
4.89893e+06
4.7601e+06
4.62319e+06
4.48826e+06
4.35532e+06
4.22438e+06
4.09543e+06
3.96846e+06
3.84348e+06
3.72046e+06
3.59938e+06
3.48019e+06
3.36281e+06
3.24709e+06
3.13274e+06
3.01928e+06
2.90593e+06
2.79215e+06
5.17008e+06
5.03908e+06
4.89892e+06
4.7601e+06
4.62319e+06
4.48826e+06
4.35532e+06
4.22438e+06
4.09543e+06
3.96846e+06
3.84348e+06
3.72047e+06
3.5994e+06
3.48023e+06
3.36289e+06
3.24723e+06
3.13301e+06
3.0198e+06
2.90703e+06
2.7946e+06
5.1701e+06
5.03907e+06
4.8989e+06
4.76009e+06
4.62319e+06
4.48826e+06
4.35532e+06
4.22438e+06
4.09543e+06
3.96847e+06
3.84349e+06
3.72048e+06
3.59942e+06
3.48027e+06
3.36296e+06
3.24737e+06
3.13328e+06
3.02035e+06
2.90815e+06
2.79699e+06
5.17012e+06
5.03907e+06
4.89889e+06
4.76009e+06
4.62319e+06
4.48826e+06
4.35532e+06
4.22438e+06
4.09543e+06
3.96847e+06
3.8435e+06
3.72049e+06
3.59944e+06
3.48032e+06
3.36305e+06
3.24753e+06
3.13357e+06
3.02092e+06
2.90929e+06
2.79931e+06
5.17014e+06
5.03907e+06
4.89889e+06
4.76008e+06
4.62319e+06
4.48826e+06
4.35532e+06
4.22438e+06
4.09543e+06
3.96847e+06
3.8435e+06
3.72051e+06
3.59947e+06
3.48036e+06
3.36313e+06
3.24769e+06
3.13388e+06
3.0215e+06
2.91044e+06
2.80156e+06
5.17016e+06
5.03907e+06
4.89888e+06
4.76008e+06
4.62319e+06
4.48826e+06
4.35532e+06
4.22438e+06
4.09543e+06
3.96848e+06
3.84351e+06
3.72052e+06
3.5995e+06
3.48041e+06
3.36322e+06
3.24785e+06
3.13419e+06
3.0221e+06
2.91159e+06
2.80372e+06
5.17017e+06
5.03907e+06
4.89887e+06
4.76007e+06
4.62319e+06
4.48827e+06
4.35532e+06
4.22438e+06
4.09543e+06
3.96848e+06
3.84352e+06
3.72054e+06
3.59952e+06
3.48046e+06
3.36332e+06
3.24803e+06
3.13451e+06
3.0227e+06
2.91273e+06
2.8058e+06
5.17018e+06
5.03907e+06
4.89887e+06
4.76007e+06
4.62319e+06
4.48827e+06
4.35532e+06
4.22438e+06
4.09543e+06
3.96849e+06
3.84353e+06
3.72055e+06
3.59955e+06
3.48051e+06
3.36341e+06
3.2482e+06
3.13484e+06
3.0233e+06
2.91385e+06
2.80778e+06
5.17019e+06
5.03907e+06
4.89886e+06
4.76007e+06
4.62319e+06
4.48827e+06
4.35533e+06
4.22438e+06
4.09544e+06
3.96849e+06
3.84353e+06
3.72057e+06
3.59958e+06
3.48057e+06
3.36351e+06
3.24838e+06
3.13516e+06
3.02391e+06
2.91496e+06
2.80968e+06
5.17019e+06
5.03907e+06
4.89886e+06
4.76007e+06
4.62319e+06
4.48827e+06
4.35533e+06
4.22438e+06
4.09544e+06
3.96849e+06
3.84354e+06
3.72058e+06
3.59961e+06
3.48062e+06
3.36361e+06
3.24856e+06
3.13549e+06
3.02451e+06
2.91603e+06
2.81148e+06
5.17019e+06
5.03907e+06
4.89886e+06
4.76006e+06
4.62319e+06
4.48827e+06
4.35533e+06
4.22438e+06
4.09544e+06
3.9685e+06
3.84355e+06
3.7206e+06
3.59964e+06
3.48067e+06
3.3637e+06
3.24874e+06
3.13582e+06
3.0251e+06
2.91708e+06
2.8132e+06
5.17019e+06
5.03907e+06
4.89886e+06
4.76006e+06
4.62319e+06
4.48827e+06
4.35533e+06
4.22438e+06
4.09544e+06
3.9685e+06
3.84356e+06
3.72061e+06
3.59967e+06
3.48073e+06
3.3638e+06
3.24892e+06
3.13614e+06
3.02568e+06
2.91809e+06
2.81482e+06
5.17019e+06
5.03907e+06
4.89886e+06
4.76007e+06
4.62319e+06
4.48827e+06
4.35533e+06
4.22439e+06
4.09545e+06
3.96851e+06
3.84357e+06
3.72063e+06
3.5997e+06
3.48078e+06
3.3639e+06
3.24909e+06
3.13646e+06
3.02625e+06
2.91906e+06
2.81636e+06
5.17019e+06
5.03907e+06
4.89886e+06
4.76007e+06
4.62319e+06
4.48827e+06
4.35533e+06
4.22439e+06
4.09545e+06
3.96851e+06
3.84358e+06
3.72065e+06
3.59973e+06
3.48083e+06
3.364e+06
3.24927e+06
3.13677e+06
3.0268e+06
2.91999e+06
2.81781e+06
5.17018e+06
5.03907e+06
4.89887e+06
4.76007e+06
4.62319e+06
4.48827e+06
4.35533e+06
4.22439e+06
4.09545e+06
3.96852e+06
3.84359e+06
3.72066e+06
3.59976e+06
3.48089e+06
3.36409e+06
3.24944e+06
3.13708e+06
3.02733e+06
2.92088e+06
2.81917e+06
5.17017e+06
5.03907e+06
4.89887e+06
4.76007e+06
4.62319e+06
4.48827e+06
4.35533e+06
4.22439e+06
4.09546e+06
3.96852e+06
3.8436e+06
3.72068e+06
3.59978e+06
3.48094e+06
3.36418e+06
3.2496e+06
3.13737e+06
3.02784e+06
2.92173e+06
2.82045e+06
5.17016e+06
5.03907e+06
4.89888e+06
4.76008e+06
4.62319e+06
4.48827e+06
4.35533e+06
4.22439e+06
4.09546e+06
3.96853e+06
3.8436e+06
3.72069e+06
3.59981e+06
3.48099e+06
3.36427e+06
3.24976e+06
3.13765e+06
3.02832e+06
2.92253e+06
2.82164e+06
5.17014e+06
5.03907e+06
4.89889e+06
4.76008e+06
4.62319e+06
4.48827e+06
4.35533e+06
4.2244e+06
4.09546e+06
3.96853e+06
3.84361e+06
3.72071e+06
3.59984e+06
3.48103e+06
3.36435e+06
3.24991e+06
3.13792e+06
3.02878e+06
2.92328e+06
2.82274e+06
5.17012e+06
5.03907e+06
4.8989e+06
4.76009e+06
4.62319e+06
4.48827e+06
4.35533e+06
4.2244e+06
4.09547e+06
3.96854e+06
3.84362e+06
3.72072e+06
3.59986e+06
3.48108e+06
3.36444e+06
3.25006e+06
3.13818e+06
3.02922e+06
2.92398e+06
2.82377e+06
5.1701e+06
5.03908e+06
4.89891e+06
4.76009e+06
4.62319e+06
4.48827e+06
4.35534e+06
4.2244e+06
4.09547e+06
3.96854e+06
3.84363e+06
3.72073e+06
3.59988e+06
3.48112e+06
3.36451e+06
3.25019e+06
3.13841e+06
3.02962e+06
2.92463e+06
2.82471e+06
5.17008e+06
5.03908e+06
4.89892e+06
4.7601e+06
4.62319e+06
4.48827e+06
4.35534e+06
4.2244e+06
4.09547e+06
3.96855e+06
3.84363e+06
3.72075e+06
3.59991e+06
3.48116e+06
3.36458e+06
3.25032e+06
3.13864e+06
3.03e+06
2.92522e+06
2.82557e+06
5.17005e+06
5.03909e+06
4.89893e+06
4.7601e+06
4.62319e+06
4.48827e+06
4.35534e+06
4.22441e+06
4.09548e+06
3.96855e+06
3.84364e+06
3.72076e+06
3.59993e+06
3.4812e+06
3.36465e+06
3.25044e+06
3.13884e+06
3.03034e+06
2.92577e+06
2.82635e+06
5.17002e+06
5.03909e+06
4.89894e+06
4.76011e+06
4.62319e+06
4.48827e+06
4.35534e+06
4.22441e+06
4.09548e+06
3.96856e+06
3.84365e+06
3.72077e+06
3.59995e+06
3.48123e+06
3.36471e+06
3.25055e+06
3.13903e+06
3.03065e+06
2.92626e+06
2.82705e+06
5.16998e+06
5.0391e+06
4.89896e+06
4.76011e+06
4.62319e+06
4.48827e+06
4.35534e+06
4.22441e+06
4.09548e+06
3.96856e+06
3.84365e+06
3.72078e+06
3.59996e+06
3.48126e+06
3.36477e+06
3.25065e+06
3.1392e+06
3.03093e+06
2.92669e+06
2.82767e+06
5.16995e+06
5.03912e+06
4.89897e+06
4.76012e+06
4.6232e+06
4.48827e+06
4.35534e+06
4.22441e+06
4.09548e+06
3.96856e+06
3.84366e+06
3.72079e+06
3.59998e+06
3.48129e+06
3.36481e+06
3.25073e+06
3.13934e+06
3.03118e+06
2.92708e+06
2.82822e+06
5.1699e+06
5.03913e+06
4.89899e+06
4.76012e+06
4.6232e+06
4.48828e+06
4.35535e+06
4.22442e+06
4.09549e+06
3.96857e+06
3.84366e+06
3.72079e+06
3.59999e+06
3.48131e+06
3.36486e+06
3.25081e+06
3.13947e+06
3.03139e+06
2.92741e+06
2.82868e+06
5.16986e+06
5.03915e+06
4.89901e+06
4.76013e+06
4.6232e+06
4.48828e+06
4.35535e+06
4.22442e+06
4.09549e+06
3.96857e+06
3.84367e+06
3.7208e+06
3.6e+06
3.48133e+06
3.36489e+06
3.25087e+06
3.13958e+06
3.03157e+06
2.92768e+06
2.82907e+06
5.16981e+06
5.03917e+06
4.89902e+06
4.76013e+06
4.6232e+06
4.48828e+06
4.35535e+06
4.22442e+06
4.09549e+06
3.96857e+06
3.84367e+06
3.72081e+06
3.60001e+06
3.48135e+06
3.36492e+06
3.25092e+06
3.13967e+06
3.03171e+06
2.9279e+06
2.82937e+06
5.16976e+06
5.03919e+06
4.89903e+06
4.76013e+06
4.6232e+06
4.48828e+06
4.35535e+06
4.22442e+06
4.09549e+06
3.96857e+06
3.84367e+06
3.72081e+06
3.60002e+06
3.48136e+06
3.36494e+06
3.25096e+06
3.13973e+06
3.03182e+06
2.92807e+06
2.8296e+06
5.16968e+06
5.03921e+06
4.89904e+06
4.76014e+06
4.62321e+06
4.48828e+06
4.35535e+06
4.22442e+06
4.09549e+06
3.96857e+06
3.84367e+06
3.72081e+06
3.60002e+06
3.48137e+06
3.36496e+06
3.25098e+06
3.13978e+06
3.03189e+06
2.92818e+06
2.82976e+06
5.16957e+06
5.03921e+06
4.89905e+06
4.76014e+06
4.62321e+06
4.48828e+06
4.35535e+06
4.22442e+06
4.09549e+06
3.96857e+06
3.84367e+06
3.72081e+06
3.60003e+06
3.48137e+06
3.36497e+06
3.251e+06
3.1398e+06
3.03193e+06
2.92823e+06
2.82983e+06
2.65522e+06
2.62671e+06
2.60466e+06
2.58534e+06
2.56723e+06
2.54991e+06
2.53315e+06
2.51679e+06
2.50075e+06
2.48497e+06
2.46941e+06
2.45402e+06
2.43878e+06
2.42366e+06
2.40864e+06
2.39371e+06
2.37885e+06
2.36405e+06
2.34932e+06
2.33466e+06
2.32006e+06
2.30552e+06
2.29103e+06
2.27658e+06
2.26219e+06
2.24783e+06
2.23353e+06
2.21926e+06
2.20505e+06
2.19089e+06
2.17678e+06
2.16272e+06
2.14872e+06
2.13476e+06
2.12085e+06
2.10698e+06
2.09317e+06
2.0794e+06
2.06568e+06
2.05201e+06
2.0384e+06
2.02483e+06
2.01131e+06
1.99784e+06
1.98442e+06
1.97105e+06
1.95773e+06
1.94445e+06
1.93123e+06
1.91805e+06
1.90493e+06
1.89185e+06
1.87882e+06
1.86584e+06
1.85291e+06
1.84002e+06
1.82719e+06
1.81439e+06
1.80165e+06
1.78894e+06
1.77629e+06
1.76368e+06
1.75112e+06
1.73861e+06
1.72614e+06
1.71372e+06
1.70135e+06
1.68902e+06
1.67674e+06
1.6645e+06
1.65231e+06
1.64017e+06
1.62808e+06
1.61604e+06
1.60405e+06
1.5921e+06
1.58021e+06
1.56834e+06
1.55652e+06
1.54473e+06
1.53298e+06
1.52125e+06
1.50956e+06
1.4979e+06
1.48627e+06
1.47468e+06
1.46312e+06
1.45161e+06
1.44014e+06
1.42871e+06
1.41733e+06
1.406e+06
1.39473e+06
1.3835e+06
1.37233e+06
1.36121e+06
1.35014e+06
1.33911e+06
1.32814e+06
1.31722e+06
1.30634e+06
1.29552e+06
1.28474e+06
1.27401e+06
1.26332e+06
1.25268e+06
1.24208e+06
1.23152e+06
1.22101e+06
1.21055e+06
1.20013e+06
1.18976e+06
1.17943e+06
1.16914e+06
1.1589e+06
1.1487e+06
1.13855e+06
1.12845e+06
1.11839e+06
1.10838e+06
1.09841e+06
1.08849e+06
1.07861e+06
1.06878e+06
1.05899e+06
1.04925e+06
1.03955e+06
1.02989e+06
1.02028e+06
1.0107e+06
1.00117e+06
991677
982228
972820
963457
954139
944868
935643
926468
917339
908258
899226
890241
881304
872413
863569
854771
846020
837314
828654
820039
811471
802948
794471
786038
777652
769311
761015
752764
744559
736398
728282
720211
712184
704199
696258
688359
680502
672687
664913
657180
649489
641840
634235
626669
619150
611667
604232
596827
589472
582141
574862
567598
560388
553183
546030
538872
531760
524631
517534
510407
503286
496116
488909
481606
474188
466564
458656
450075
440712
2.66871e+06
2.63766e+06
2.61329e+06
2.59239e+06
2.57321e+06
2.55507e+06
2.53765e+06
2.52075e+06
2.50426e+06
2.48808e+06
2.47218e+06
2.4565e+06
2.441e+06
2.42565e+06
2.41042e+06
2.39531e+06
2.38028e+06
2.36535e+06
2.35049e+06
2.33571e+06
2.321e+06
2.30636e+06
2.29178e+06
2.27726e+06
2.26279e+06
2.24838e+06
2.23402e+06
2.21971e+06
2.20545e+06
2.19125e+06
2.1771e+06
2.16301e+06
2.14897e+06
2.13498e+06
2.12105e+06
2.10716e+06
2.09333e+06
2.07954e+06
2.06581e+06
2.05213e+06
2.03849e+06
2.02492e+06
2.01139e+06
1.99792e+06
1.98449e+06
1.97111e+06
1.95779e+06
1.94451e+06
1.93128e+06
1.9181e+06
1.90498e+06
1.8919e+06
1.87887e+06
1.86589e+06
1.85296e+06
1.84007e+06
1.82723e+06
1.81444e+06
1.8017e+06
1.789e+06
1.77635e+06
1.76374e+06
1.75118e+06
1.73867e+06
1.72621e+06
1.71379e+06
1.70141e+06
1.68909e+06
1.67681e+06
1.66457e+06
1.65239e+06
1.64025e+06
1.62815e+06
1.61611e+06
1.60413e+06
1.59218e+06
1.58028e+06
1.56842e+06
1.5566e+06
1.5448e+06
1.53304e+06
1.52131e+06
1.50961e+06
1.49794e+06
1.48631e+06
1.47471e+06
1.46315e+06
1.45163e+06
1.44016e+06
1.42873e+06
1.41734e+06
1.40601e+06
1.39473e+06
1.3835e+06
1.37233e+06
1.36121e+06
1.35013e+06
1.33911e+06
1.32814e+06
1.31721e+06
1.30634e+06
1.29551e+06
1.28474e+06
1.274e+06
1.26332e+06
1.25267e+06
1.24208e+06
1.23152e+06
1.22101e+06
1.21055e+06
1.20013e+06
1.18976e+06
1.17943e+06
1.16914e+06
1.1589e+06
1.14871e+06
1.13856e+06
1.12845e+06
1.11839e+06
1.10838e+06
1.09841e+06
1.08849e+06
1.07861e+06
1.06878e+06
1.05899e+06
1.04925e+06
1.03955e+06
1.02989e+06
1.02027e+06
1.0107e+06
1.00116e+06
991673
982223
972816
963453
954135
944863
935638
926461
917332
908250
899215
890228
881289
872395
863549
854747
845993
837283
828620
820001
811429
802901
794419
785982
777590
769243
760941
752684
744471
736303
728180
720100
712063
704068
696116
688205
680334
672503
664712
656960
649249
641576
633946
626352
618803
611287
603817
596373
588977
581598
574268
566946
559673
552398
545168
537925
530717
523482
516264
509003
501726
494378
486962
479408
471682
463654
455199
445804
434722
2.67937e+06
2.64728e+06
2.6214e+06
2.5992e+06
2.57904e+06
2.56014e+06
2.54209e+06
2.52467e+06
2.50773e+06
2.49117e+06
2.47494e+06
2.45896e+06
2.44321e+06
2.42763e+06
2.4122e+06
2.3969e+06
2.38172e+06
2.36664e+06
2.35165e+06
2.33675e+06
2.32193e+06
2.3072e+06
2.29253e+06
2.27793e+06
2.2634e+06
2.24892e+06
2.2345e+06
2.22015e+06
2.20584e+06
2.1916e+06
2.17742e+06
2.16329e+06
2.14922e+06
2.13521e+06
2.12125e+06
2.10734e+06
2.09349e+06
2.07969e+06
2.06594e+06
2.05224e+06
2.0386e+06
2.02501e+06
2.01147e+06
1.99799e+06
1.98456e+06
1.97118e+06
1.95785e+06
1.94457e+06
1.93134e+06
1.91816e+06
1.90503e+06
1.89195e+06
1.87891e+06
1.86593e+06
1.853e+06
1.84011e+06
1.82728e+06
1.81449e+06
1.80175e+06
1.78905e+06
1.7764e+06
1.76379e+06
1.75124e+06
1.73873e+06
1.72627e+06
1.71385e+06
1.70148e+06
1.68915e+06
1.67687e+06
1.66464e+06
1.65246e+06
1.64032e+06
1.62823e+06
1.61619e+06
1.6042e+06
1.59226e+06
1.58036e+06
1.56849e+06
1.55667e+06
1.54487e+06
1.5331e+06
1.52136e+06
1.50965e+06
1.49798e+06
1.48634e+06
1.47474e+06
1.46317e+06
1.45165e+06
1.44017e+06
1.42873e+06
1.41735e+06
1.40601e+06
1.39473e+06
1.3835e+06
1.37232e+06
1.3612e+06
1.35012e+06
1.3391e+06
1.32813e+06
1.3172e+06
1.30633e+06
1.2955e+06
1.28473e+06
1.27399e+06
1.26331e+06
1.25267e+06
1.24207e+06
1.23152e+06
1.22101e+06
1.21055e+06
1.20013e+06
1.18975e+06
1.17942e+06
1.16914e+06
1.1589e+06
1.14871e+06
1.13856e+06
1.12845e+06
1.11839e+06
1.10838e+06
1.09841e+06
1.08849e+06
1.07861e+06
1.06878e+06
1.05899e+06
1.04924e+06
1.03954e+06
1.02988e+06
1.02026e+06
1.01069e+06
1.00116e+06
991666
982217
972810
963447
954129
944857
935631
926454
917323
908240
899204
890214
881273
872377
863528
854724
845966
837253
828586
819964
811387
802855
794368
785926
777528
769176
760868
752604
744384
736209
728077
719988
711942
703937
695974
688049
680165
672318
664511
656739
649008
641311
633656
626034
618456
610907
603402
595919
588481
581056
573675
566297
558961
551619
544311
536986
529682
522347
515007
507619
500190
492672
485055
477263
469253
460861
451947
441952
429964
2.68812e+06
2.65582e+06
2.62897e+06
2.60571e+06
2.5847e+06
2.56508e+06
2.54644e+06
2.52852e+06
2.51115e+06
2.49423e+06
2.47767e+06
2.46141e+06
2.4454e+06
2.42959e+06
2.41396e+06
2.39848e+06
2.38314e+06
2.36792e+06
2.3528e+06
2.33778e+06
2.32286e+06
2.30803e+06
2.29328e+06
2.2786e+06
2.264e+06
2.24946e+06
2.23499e+06
2.22058e+06
2.20623e+06
2.19195e+06
2.17773e+06
2.16357e+06
2.14947e+06
2.13543e+06
2.12145e+06
2.10752e+06
2.09364e+06
2.07983e+06
2.06606e+06
2.05235e+06
2.0387e+06
2.0251e+06
2.01156e+06
1.99807e+06
1.98464e+06
1.97125e+06
1.95792e+06
1.94463e+06
1.9314e+06
1.91821e+06
1.90508e+06
1.89199e+06
1.87896e+06
1.86598e+06
1.85304e+06
1.84016e+06
1.82732e+06
1.81453e+06
1.80179e+06
1.7891e+06
1.77645e+06
1.76385e+06
1.7513e+06
1.73879e+06
1.72633e+06
1.71391e+06
1.70154e+06
1.68922e+06
1.67694e+06
1.66471e+06
1.65252e+06
1.64039e+06
1.6283e+06
1.61626e+06
1.60428e+06
1.59233e+06
1.58043e+06
1.56856e+06
1.55673e+06
1.54492e+06
1.53315e+06
1.5214e+06
1.50969e+06
1.49801e+06
1.48636e+06
1.47475e+06
1.46318e+06
1.45166e+06
1.44017e+06
1.42873e+06
1.41734e+06
1.406e+06
1.39472e+06
1.38349e+06
1.37231e+06
1.36119e+06
1.35011e+06
1.33909e+06
1.32811e+06
1.31719e+06
1.30632e+06
1.29549e+06
1.28471e+06
1.27398e+06
1.2633e+06
1.25266e+06
1.24206e+06
1.23151e+06
1.221e+06
1.21054e+06
1.20012e+06
1.18975e+06
1.17942e+06
1.16913e+06
1.15889e+06
1.1487e+06
1.13855e+06
1.12845e+06
1.11839e+06
1.10837e+06
1.0984e+06
1.08848e+06
1.0786e+06
1.06877e+06
1.05898e+06
1.04923e+06
1.03953e+06
1.02987e+06
1.02026e+06
1.01068e+06
1.00115e+06
991657
982208
972802
963439
954121
944849
935623
926445
917313
908229
899191
890200
881256
872358
863507
854700
845939
837223
828553
819926
811346
802809
794317
785870
777467
769109
760795
752524
744298
736114
727974
719876
711821
703805
695831
687894
679996
672133
664309
656518
648766
641045
633366
625715
618108
610526
602987
595466
587986
580516
573084
565652
558253
550846
543461
536056
528659
521225
513769
506258
498681
491001
483194
475180
466914
458201
448917
438501
426204
2.69557e+06
2.66338e+06
2.63595e+06
2.6119e+06
2.59013e+06
2.56988e+06
2.55069e+06
2.5323e+06
2.51452e+06
2.49724e+06
2.48036e+06
2.46382e+06
2.44756e+06
2.43153e+06
2.4157e+06
2.40005e+06
2.38455e+06
2.36918e+06
2.35394e+06
2.3388e+06
2.32378e+06
2.30885e+06
2.29402e+06
2.27926e+06
2.26459e+06
2.24999e+06
2.23547e+06
2.22101e+06
2.20662e+06
2.1923e+06
2.17804e+06
2.16385e+06
2.14972e+06
2.13565e+06
2.12165e+06
2.10769e+06
2.0938e+06
2.07997e+06
2.06619e+06
2.05247e+06
2.0388e+06
2.0252e+06
2.01165e+06
1.99815e+06
1.98471e+06
1.97132e+06
1.95799e+06
1.9447e+06
1.93146e+06
1.91827e+06
1.90513e+06
1.89204e+06
1.879e+06
1.86602e+06
1.85308e+06
1.8402e+06
1.82736e+06
1.81458e+06
1.80184e+06
1.78915e+06
1.7765e+06
1.7639e+06
1.75135e+06
1.73884e+06
1.72638e+06
1.71396e+06
1.7016e+06
1.68927e+06
1.677e+06
1.66477e+06
1.65258e+06
1.64045e+06
1.62836e+06
1.61633e+06
1.60434e+06
1.5924e+06
1.58049e+06
1.56862e+06
1.55678e+06
1.54497e+06
1.53319e+06
1.52144e+06
1.50972e+06
1.49803e+06
1.48638e+06
1.47476e+06
1.46319e+06
1.45166e+06
1.44017e+06
1.42873e+06
1.41733e+06
1.40599e+06
1.39471e+06
1.38347e+06
1.3723e+06
1.36117e+06
1.35009e+06
1.33907e+06
1.32809e+06
1.31717e+06
1.3063e+06
1.29547e+06
1.2847e+06
1.27397e+06
1.26328e+06
1.25264e+06
1.24205e+06
1.23149e+06
1.22099e+06
1.21052e+06
1.20011e+06
1.18973e+06
1.17941e+06
1.16912e+06
1.15888e+06
1.14869e+06
1.13854e+06
1.12844e+06
1.11838e+06
1.10836e+06
1.0984e+06
1.08847e+06
1.07859e+06
1.06876e+06
1.05897e+06
1.04922e+06
1.03952e+06
1.02986e+06
1.02024e+06
1.01067e+06
1.00114e+06
991645
982197
972791
963429
954111
944839
935613
926434
917302
908216
899177
890184
881239
872338
863485
854675
845912
837193
828519
819889
811305
802763
794267
785814
777406
769042
760722
752445
744212
736021
727872
719765
711700
703674
695688
687738
679826
671948
664107
656296
648523
640779
633075
625397
617760
610146
602572
595014
587492
579978
572495
565011
557551
550079
542620
535137
527648
520119
512551
504920
497204
489369
481386
473165
464674
455682
446113
435438
423120
2.70203e+06
2.67016e+06
2.64238e+06
2.61773e+06
2.59534e+06
2.57452e+06
2.55482e+06
2.53598e+06
2.51782e+06
2.50019e+06
2.48301e+06
2.46619e+06
2.44969e+06
2.43344e+06
2.41742e+06
2.40159e+06
2.38593e+06
2.37043e+06
2.35506e+06
2.33981e+06
2.32469e+06
2.30967e+06
2.29475e+06
2.27992e+06
2.26518e+06
2.25052e+06
2.23594e+06
2.22144e+06
2.20701e+06
2.19264e+06
2.17835e+06
2.16413e+06
2.14997e+06
2.13588e+06
2.12184e+06
2.10787e+06
2.09396e+06
2.08011e+06
2.06632e+06
2.05259e+06
2.03891e+06
2.02529e+06
2.01174e+06
1.99824e+06
1.98479e+06
1.9714e+06
1.95805e+06
1.94476e+06
1.93152e+06
1.91832e+06
1.90518e+06
1.89209e+06
1.87905e+06
1.86606e+06
1.85312e+06
1.84024e+06
1.8274e+06
1.81462e+06
1.80188e+06
1.78919e+06
1.77654e+06
1.76395e+06
1.7514e+06
1.73889e+06
1.72643e+06
1.71402e+06
1.70165e+06
1.68933e+06
1.67705e+06
1.66482e+06
1.65264e+06
1.64051e+06
1.62842e+06
1.61639e+06
1.6044e+06
1.59246e+06
1.58055e+06
1.56868e+06
1.55683e+06
1.54502e+06
1.53323e+06
1.52147e+06
1.50974e+06
1.49804e+06
1.48638e+06
1.47476e+06
1.46319e+06
1.45165e+06
1.44016e+06
1.42871e+06
1.41732e+06
1.40598e+06
1.39469e+06
1.38346e+06
1.37228e+06
1.36115e+06
1.35007e+06
1.33905e+06
1.32807e+06
1.31715e+06
1.30628e+06
1.29545e+06
1.28468e+06
1.27395e+06
1.26326e+06
1.25262e+06
1.24203e+06
1.23148e+06
1.22097e+06
1.21051e+06
1.20009e+06
1.18972e+06
1.17939e+06
1.16911e+06
1.15887e+06
1.14868e+06
1.13853e+06
1.12843e+06
1.11837e+06
1.10835e+06
1.09838e+06
1.08846e+06
1.07858e+06
1.06875e+06
1.05896e+06
1.04921e+06
1.03951e+06
1.02985e+06
1.02023e+06
1.01065e+06
1.00112e+06
991631
982183
972778
963416
954099
944827
935601
926421
917288
908202
899162
890168
881220
872318
863462
854650
845885
837162
828486
819852
811264
802718
794217
785759
777346
768976
760650
752366
744126
735927
727771
719655
711580
703543
695546
687583
679657
671763
663904
656074
648281
640514
632785
625080
617413
609767
602158
594563
587001
579443
571911
564375
556855
549320
541788
534229
526651
519029
511354
503606
495760
487777
479635
471222
462536
453312
443528
432716
420503
2.70772e+06
2.67625e+06
2.64831e+06
2.62322e+06
2.60031e+06
2.57899e+06
2.55883e+06
2.53958e+06
2.52104e+06
2.50308e+06
2.4856e+06
2.46853e+06
2.45178e+06
2.43533e+06
2.41911e+06
2.40311e+06
2.3873e+06
2.37166e+06
2.35617e+06
2.34081e+06
2.32558e+06
2.31047e+06
2.29547e+06
2.28057e+06
2.26577e+06
2.25105e+06
2.23642e+06
2.22186e+06
2.20739e+06
2.19299e+06
2.17866e+06
2.1644e+06
2.15022e+06
2.1361e+06
2.12204e+06
2.10805e+06
2.09412e+06
2.08025e+06
2.06645e+06
2.0527e+06
2.03902e+06
2.02539e+06
2.01183e+06
1.99832e+06
1.98487e+06
1.97147e+06
1.95812e+06
1.94483e+06
1.93158e+06
1.91838e+06
1.90523e+06
1.89213e+06
1.87909e+06
1.8661e+06
1.85316e+06
1.84028e+06
1.82744e+06
1.81466e+06
1.80192e+06
1.78923e+06
1.77658e+06
1.76399e+06
1.75144e+06
1.73893e+06
1.72647e+06
1.71406e+06
1.7017e+06
1.68937e+06
1.6771e+06
1.66487e+06
1.65269e+06
1.64056e+06
1.62847e+06
1.61644e+06
1.60446e+06
1.59251e+06
1.5806e+06
1.56872e+06
1.55687e+06
1.54505e+06
1.53325e+06
1.52148e+06
1.50975e+06
1.49804e+06
1.48638e+06
1.47476e+06
1.46317e+06
1.45164e+06
1.44014e+06
1.42869e+06
1.4173e+06
1.40596e+06
1.39467e+06
1.38343e+06
1.37225e+06
1.36113e+06
1.35005e+06
1.33902e+06
1.32805e+06
1.31713e+06
1.30625e+06
1.29543e+06
1.28465e+06
1.27392e+06
1.26324e+06
1.2526e+06
1.24201e+06
1.23146e+06
1.22095e+06
1.21049e+06
1.20007e+06
1.1897e+06
1.17937e+06
1.16909e+06
1.15885e+06
1.14866e+06
1.13851e+06
1.12841e+06
1.11835e+06
1.10834e+06
1.09837e+06
1.08844e+06
1.07857e+06
1.06873e+06
1.05894e+06
1.04919e+06
1.03949e+06
1.02983e+06
1.02021e+06
1.01064e+06
1.0011e+06
991615
982167
972763
963401
954084
944812
935586
926406
917273
908186
899145
890149
881201
872296
863439
854624
845857
837131
828452
819814
811223
802672
794168
785704
777286
768910
760578
752288
744041
735834
727670
719545
711461
703413
695405
687429
679489
671578
663703
655854
648039
640250
632495
624764
617068
609390
601747
594116
586512
578913
571332
563745
556167
548570
540968
533334
525671
517957
510181
502318
494354
486228
477941
469354
460501
451094
441144
430288
418227
2.7128e+06
2.68176e+06
2.65378e+06
2.62837e+06
2.60504e+06
2.58328e+06
2.5627e+06
2.54307e+06
2.52418e+06
2.50591e+06
2.48815e+06
2.47082e+06
2.45384e+06
2.43718e+06
2.42078e+06
2.40461e+06
2.38865e+06
2.37287e+06
2.35726e+06
2.3418e+06
2.32647e+06
2.31127e+06
2.29619e+06
2.28121e+06
2.26634e+06
2.25157e+06
2.23688e+06
2.22228e+06
2.20776e+06
2.19332e+06
2.17896e+06
2.16468e+06
2.15046e+06
2.13631e+06
2.12224e+06
2.10823e+06
2.09428e+06
2.0804e+06
2.06658e+06
2.05283e+06
2.03913e+06
2.0255e+06
2.01192e+06
1.99841e+06
1.98495e+06
1.97154e+06
1.95819e+06
1.94489e+06
1.93164e+06
1.91843e+06
1.90528e+06
1.89218e+06
1.87913e+06
1.86614e+06
1.8532e+06
1.84031e+06
1.82748e+06
1.81469e+06
1.80195e+06
1.78926e+06
1.77662e+06
1.76403e+06
1.75148e+06
1.73897e+06
1.72651e+06
1.7141e+06
1.70174e+06
1.68942e+06
1.67714e+06
1.66491e+06
1.65273e+06
1.6406e+06
1.62852e+06
1.61648e+06
1.6045e+06
1.59255e+06
1.58064e+06
1.56875e+06
1.5569e+06
1.54507e+06
1.53327e+06
1.52149e+06
1.50975e+06
1.49804e+06
1.48637e+06
1.47474e+06
1.46315e+06
1.45161e+06
1.44012e+06
1.42867e+06
1.41727e+06
1.40593e+06
1.39464e+06
1.38341e+06
1.37223e+06
1.3611e+06
1.35002e+06
1.339e+06
1.32802e+06
1.3171e+06
1.30623e+06
1.2954e+06
1.28463e+06
1.2739e+06
1.26321e+06
1.25257e+06
1.24198e+06
1.23143e+06
1.22092e+06
1.21046e+06
1.20005e+06
1.18968e+06
1.17935e+06
1.16907e+06
1.15883e+06
1.14864e+06
1.13849e+06
1.12839e+06
1.11833e+06
1.10832e+06
1.09835e+06
1.08843e+06
1.07855e+06
1.06871e+06
1.05892e+06
1.04917e+06
1.03947e+06
1.02981e+06
1.02019e+06
1.01062e+06
1.00109e+06
991596
982149
972745
963384
954068
944796
935570
926390
917256
908168
899126
890130
881180
872274
863415
854598
845828
837099
828417
819776
811181
802627
794118
785650
777227
768844
760507
752209
743956
735742
727570
719436
711343
703284
695264
687275
679321
671395
663502
655634
647799
639986
632207
624449
616724
609016
601338
593671
586029
578386
570760
563121
555488
547830
540161
532453
524710
516905
509035
501061
492987
484728
476309
467570
458568
449027
438949
428100
416201
2.71739e+06
2.68678e+06
2.65883e+06
2.63321e+06
2.60953e+06
2.58739e+06
2.56644e+06
2.54645e+06
2.52724e+06
2.50867e+06
2.49064e+06
2.47306e+06
2.45587e+06
2.439e+06
2.42242e+06
2.40609e+06
2.38998e+06
2.37407e+06
2.35834e+06
2.34277e+06
2.32735e+06
2.31206e+06
2.2969e+06
2.28185e+06
2.26692e+06
2.25208e+06
2.23735e+06
2.2227e+06
2.20814e+06
2.19366e+06
2.17926e+06
2.16495e+06
2.1507e+06
2.13653e+06
2.12243e+06
2.1084e+06
2.09444e+06
2.08054e+06
2.06671e+06
2.05295e+06
2.03924e+06
2.0256e+06
2.01202e+06
1.9985e+06
1.98503e+06
1.97162e+06
1.95826e+06
1.94495e+06
1.93169e+06
1.91849e+06
1.90533e+06
1.89222e+06
1.87917e+06
1.86618e+06
1.85324e+06
1.84035e+06
1.82751e+06
1.81472e+06
1.80199e+06
1.7893e+06
1.77665e+06
1.76406e+06
1.75151e+06
1.739e+06
1.72654e+06
1.71413e+06
1.70177e+06
1.68945e+06
1.67717e+06
1.66494e+06
1.65276e+06
1.64063e+06
1.62855e+06
1.61652e+06
1.60453e+06
1.59258e+06
1.58066e+06
1.56878e+06
1.55692e+06
1.54509e+06
1.53327e+06
1.52149e+06
1.50974e+06
1.49802e+06
1.48635e+06
1.47471e+06
1.46313e+06
1.45158e+06
1.44009e+06
1.42864e+06
1.41724e+06
1.4059e+06
1.39461e+06
1.38338e+06
1.3722e+06
1.36107e+06
1.34999e+06
1.33897e+06
1.32799e+06
1.31707e+06
1.3062e+06
1.29537e+06
1.2846e+06
1.27387e+06
1.26318e+06
1.25255e+06
1.24195e+06
1.2314e+06
1.2209e+06
1.21044e+06
1.20002e+06
1.18965e+06
1.17932e+06
1.16904e+06
1.15881e+06
1.14862e+06
1.13847e+06
1.12837e+06
1.11831e+06
1.1083e+06
1.09833e+06
1.0884e+06
1.07853e+06
1.06869e+06
1.0589e+06
1.04915e+06
1.03945e+06
1.02979e+06
1.02017e+06
1.0106e+06
1.00106e+06
991575
982128
972725
963365
954049
944777
935552
926371
917238
908148
899106
890108
881157
872250
863389
854570
845799
837067
828383
819737
811140
802581
794069
785595
777168
768779
760436
752131
743872
735650
727471
719328
711226
703157
695125
687123
679155
671213
663303
655415
647560
639724
631921
624136
616383
608644
600934
593231
585551
577866
570195
562507
554820
547101
539369
531587
523770
515877
507919
499840
491662
483279
474741
465875
456734
447110
436929
426099
414362
2.7216e+06
2.69138e+06
2.6635e+06
2.63773e+06
2.61378e+06
2.59131e+06
2.57003e+06
2.54972e+06
2.53021e+06
2.51136e+06
2.49307e+06
2.47526e+06
2.45785e+06
2.44079e+06
2.42404e+06
2.40755e+06
2.3913e+06
2.37526e+06
2.35941e+06
2.34373e+06
2.32821e+06
2.31284e+06
2.2976e+06
2.28248e+06
2.26749e+06
2.25259e+06
2.23781e+06
2.22311e+06
2.20851e+06
2.194e+06
2.17957e+06
2.16522e+06
2.15095e+06
2.13675e+06
2.12263e+06
2.10858e+06
2.0946e+06
2.08069e+06
2.06685e+06
2.05307e+06
2.03936e+06
2.02571e+06
2.01212e+06
1.99859e+06
1.98511e+06
1.9717e+06
1.95833e+06
1.94502e+06
1.93175e+06
1.91854e+06
1.90538e+06
1.89227e+06
1.87921e+06
1.86621e+06
1.85327e+06
1.84038e+06
1.82754e+06
1.81475e+06
1.80201e+06
1.78933e+06
1.77668e+06
1.76409e+06
1.75154e+06
1.73903e+06
1.72657e+06
1.71416e+06
1.7018e+06
1.68947e+06
1.67719e+06
1.66497e+06
1.65278e+06
1.64065e+06
1.62857e+06
1.61654e+06
1.60455e+06
1.5926e+06
1.58068e+06
1.56879e+06
1.55693e+06
1.54509e+06
1.53327e+06
1.52148e+06
1.50972e+06
1.498e+06
1.48632e+06
1.47468e+06
1.46309e+06
1.45155e+06
1.44005e+06
1.42861e+06
1.41721e+06
1.40587e+06
1.39458e+06
1.38334e+06
1.37216e+06
1.36104e+06
1.34996e+06
1.33893e+06
1.32796e+06
1.31704e+06
1.30617e+06
1.29534e+06
1.28457e+06
1.27384e+06
1.26315e+06
1.25251e+06