/*--------------------------------*- C++ -*----------------------------------*\
| =========                 |                                                 |
| \\      /  F ield         | OpenFOAM: The Open Source CFD Toolbox           |
|  \\    /   O peration     | Version:  2.4.0                                 |
|   \\  /    A nd           | Web:      www.OpenFOAM.org                      |
|    \\/     M anipulation  |                                                 |
\*---------------------------------------------------------------------------*/
FoamFile
{
    version     2.0;
    format      ascii;
    class       volScalarField;
    location    "0.125";
    object      pPrime2Mean;
}
// * * * * * * * * * * * * * * * * * * * * * * * * * * * * * * * * * * * * * //

dimensions      [0 4 -4 0 0 0 0];

internalField   nonuniform List<scalar> 
17600
(
5.20822e+06
5.14452e+06
5.07374e+06
5.003e+06
4.93266e+06
4.86282e+06
4.79346e+06
4.72457e+06
4.65615e+06
4.58821e+06
4.52076e+06
4.45381e+06
4.38735e+06
4.32138e+06
4.25592e+06
4.19095e+06
4.12648e+06
4.0625e+06
3.99902e+06
3.93604e+06
3.87355e+06
3.81155e+06
3.75004e+06
3.68901e+06
3.62846e+06
3.56838e+06
3.50875e+06
3.44958e+06
3.39082e+06
3.33247e+06
3.27447e+06
3.21677e+06
3.1593e+06
3.10195e+06
3.04456e+06
2.98686e+06
2.92846e+06
2.86873e+06
2.80614e+06
2.7369e+06
5.20832e+06
5.14459e+06
5.07378e+06
5.00302e+06
4.93267e+06
4.86283e+06
4.79346e+06
4.72456e+06
4.65614e+06
4.58821e+06
4.52076e+06
4.4538e+06
4.38734e+06
4.32138e+06
4.25591e+06
4.19095e+06
4.12648e+06
4.0625e+06
3.99902e+06
3.93604e+06
3.87355e+06
3.81155e+06
3.75004e+06
3.68902e+06
3.62847e+06
3.56839e+06
3.50877e+06
3.4496e+06
3.39085e+06
3.3325e+06
3.27452e+06
3.21684e+06
3.15941e+06
3.1021e+06
3.04477e+06
2.98718e+06
2.92898e+06
2.86959e+06
2.80793e+06
2.74131e+06
5.2084e+06
5.14465e+06
5.07382e+06
5.00303e+06
4.93267e+06
4.86281e+06
4.79343e+06
4.72454e+06
4.65612e+06
4.58819e+06
4.52075e+06
4.4538e+06
4.38734e+06
4.32138e+06
4.25591e+06
4.19095e+06
4.12648e+06
4.0625e+06
3.99903e+06
3.93604e+06
3.87356e+06
3.81156e+06
3.75005e+06
3.68903e+06
3.62848e+06
3.56841e+06
3.5088e+06
3.44964e+06
3.3909e+06
3.33258e+06
3.27462e+06
3.21699e+06
3.15961e+06
3.10238e+06
3.04518e+06
2.9878e+06
2.92995e+06
2.87119e+06
2.81083e+06
2.74806e+06
5.20846e+06
5.1447e+06
5.07385e+06
5.00304e+06
4.93266e+06
4.86279e+06
4.79341e+06
4.72452e+06
4.6561e+06
4.58818e+06
4.52074e+06
4.45379e+06
4.38733e+06
4.32137e+06
4.25591e+06
4.19094e+06
4.12648e+06
4.0625e+06
3.99903e+06
3.93605e+06
3.87356e+06
3.81157e+06
3.75006e+06
3.68904e+06
3.6285e+06
3.56844e+06
3.50884e+06
3.44969e+06
3.39098e+06
3.33268e+06
3.27477e+06
3.21719e+06
3.15989e+06
3.10279e+06
3.04578e+06
2.98868e+06
2.93129e+06
2.87335e+06
2.81457e+06
2.75503e+06
5.2085e+06
5.14474e+06
5.07387e+06
5.00305e+06
4.93265e+06
4.86278e+06
4.79339e+06
4.7245e+06
4.65609e+06
4.58817e+06
4.52073e+06
4.45378e+06
4.38733e+06
4.32137e+06
4.25591e+06
4.19094e+06
4.12648e+06
4.0625e+06
3.99903e+06
3.93605e+06
3.87357e+06
3.81158e+06
3.75008e+06
3.68906e+06
3.62853e+06
3.56848e+06
3.50889e+06
3.44977e+06
3.39108e+06
3.33282e+06
3.27496e+06
3.21746e+06
3.16026e+06
3.10332e+06
3.04652e+06
2.98977e+06
2.93291e+06
2.87583e+06
2.81855e+06
2.76165e+06
5.20854e+06
5.14477e+06
5.07389e+06
5.00306e+06
4.93265e+06
4.86277e+06
4.79338e+06
4.72449e+06
4.65608e+06
4.58816e+06
4.52072e+06
4.45378e+06
4.38733e+06
4.32137e+06
4.25591e+06
4.19094e+06
4.12648e+06
4.06251e+06
3.99903e+06
3.93606e+06
3.87358e+06
3.81159e+06
3.75009e+06
3.68909e+06
3.62857e+06
3.56852e+06
3.50896e+06
3.44985e+06
3.3912e+06
3.33299e+06
3.27519e+06
3.21777e+06
3.1607e+06
3.10393e+06
3.04739e+06
2.99102e+06
2.93475e+06
2.87858e+06
2.82271e+06
2.76772e+06
5.20857e+06
5.14479e+06
5.07391e+06
5.00307e+06
4.93265e+06
4.86276e+06
4.79337e+06
4.72448e+06
4.65607e+06
4.58815e+06
4.52072e+06
4.45377e+06
4.38732e+06
4.32137e+06
4.25591e+06
4.19094e+06
4.12648e+06
4.06251e+06
3.99904e+06
3.93607e+06
3.87359e+06
3.81161e+06
3.75012e+06
3.68912e+06
3.62861e+06
3.56858e+06
3.50903e+06
3.44995e+06
3.39134e+06
3.33318e+06
3.27545e+06
3.21813e+06
3.16119e+06
3.10461e+06
3.04835e+06
2.99238e+06
2.93668e+06
2.88135e+06
2.82668e+06
2.77321e+06
5.20859e+06
5.14481e+06
5.07392e+06
5.00307e+06
4.93265e+06
4.86276e+06
4.79337e+06
4.72447e+06
4.65606e+06
4.58814e+06
4.52071e+06
4.45377e+06
4.38732e+06
4.32137e+06
4.25591e+06
4.19095e+06
4.12648e+06
4.06251e+06
3.99905e+06
3.93607e+06
3.8736e+06
3.81162e+06
3.75014e+06
3.68915e+06
3.62865e+06
3.56864e+06
3.50911e+06
3.45007e+06
3.39149e+06
3.33338e+06
3.27573e+06
3.21851e+06
3.16173e+06
3.10535e+06
3.04937e+06
2.99379e+06
2.93866e+06
2.88411e+06
2.83047e+06
2.77823e+06
5.2086e+06
5.14482e+06
5.07393e+06
5.00308e+06
4.93265e+06
4.86276e+06
4.79336e+06
4.72446e+06
4.65606e+06
4.58814e+06
4.52071e+06
4.45377e+06
4.38732e+06
4.32137e+06
4.25591e+06
4.19095e+06
4.12648e+06
4.06252e+06
3.99905e+06
3.93608e+06
3.87361e+06
3.81164e+06
3.75016e+06
3.68918e+06
3.6287e+06
3.5687e+06
3.5092e+06
3.45018e+06
3.39165e+06
3.3336e+06
3.27602e+06
3.21892e+06
3.16228e+06
3.10611e+06
3.05041e+06
2.99522e+06
2.94062e+06
2.88677e+06
2.83401e+06
2.78273e+06
5.20861e+06
5.14483e+06
5.07393e+06
5.00308e+06
4.93266e+06
4.86276e+06
4.79336e+06
4.72446e+06
4.65605e+06
4.58814e+06
4.52071e+06
4.45377e+06
4.38732e+06
4.32137e+06
4.25591e+06
4.19095e+06
4.12649e+06
4.06252e+06
3.99906e+06
3.93609e+06
3.87363e+06
3.81166e+06
3.75019e+06
3.68922e+06
3.62874e+06
3.56877e+06
3.50929e+06
3.4503e+06
3.39182e+06
3.33383e+06
3.27633e+06
3.21933e+06
3.16284e+06
3.10687e+06
3.05145e+06
2.99663e+06
2.94251e+06
2.88929e+06
2.83726e+06
2.78677e+06
5.20861e+06
5.14483e+06
5.07393e+06
5.00308e+06
4.93266e+06
4.86275e+06
4.79336e+06
4.72446e+06
4.65605e+06
4.58814e+06
4.52071e+06
4.45377e+06
4.38732e+06
4.32137e+06
4.25591e+06
4.19095e+06
4.12649e+06
4.06253e+06
3.99907e+06
3.93611e+06
3.87364e+06
3.81168e+06
3.75022e+06
3.68926e+06
3.62879e+06
3.56883e+06
3.50938e+06
3.45043e+06
3.39198e+06
3.33405e+06
3.27664e+06
3.21975e+06
3.1634e+06
3.10762e+06
3.05246e+06
2.99798e+06
2.9443e+06
2.89162e+06
2.84023e+06
2.79036e+06
5.2086e+06
5.14482e+06
5.07393e+06
5.00308e+06
4.93266e+06
4.86276e+06
4.79336e+06
4.72446e+06
4.65606e+06
4.58814e+06
4.52071e+06
4.45377e+06
4.38733e+06
4.32137e+06
4.25592e+06
4.19096e+06
4.1265e+06
4.06254e+06
3.99908e+06
3.93612e+06
3.87366e+06
3.8117e+06
3.75024e+06
3.68929e+06
3.62884e+06
3.5689e+06
3.50947e+06
3.45055e+06
3.39215e+06
3.33427e+06
3.27693e+06
3.22015e+06
3.16394e+06
3.10835e+06
3.05342e+06
2.99925e+06
2.94596e+06
2.89375e+06
2.84289e+06
2.79358e+06
5.20858e+06
5.14481e+06
5.07392e+06
5.00308e+06
4.93265e+06
4.86276e+06
4.79337e+06
4.72447e+06
4.65606e+06
4.58815e+06
4.52072e+06
4.45378e+06
4.38733e+06
4.32138e+06
4.25592e+06
4.19096e+06
4.1265e+06
4.06254e+06
3.99908e+06
3.93613e+06
3.87367e+06
3.81172e+06
3.75027e+06
3.68933e+06
3.62889e+06
3.56896e+06
3.50955e+06
3.45066e+06
3.3923e+06
3.33448e+06
3.27722e+06
3.22053e+06
3.16445e+06
3.10903e+06
3.05432e+06
3.00042e+06
2.94747e+06
2.89565e+06
2.84521e+06
2.79641e+06
5.20857e+06
5.14479e+06
5.07391e+06
5.00307e+06
4.93265e+06
4.86276e+06
4.79337e+06
4.72448e+06
4.65607e+06
4.58815e+06
4.52072e+06
4.45378e+06
4.38733e+06
4.32138e+06
4.25592e+06
4.19096e+06
4.12651e+06
4.06255e+06
3.99909e+06
3.93614e+06
3.87369e+06
3.81174e+06
3.75029e+06
3.68936e+06
3.62893e+06
3.56902e+06
3.50963e+06
3.45077e+06
3.39245e+06
3.33468e+06
3.27748e+06
3.22088e+06
3.16492e+06
3.10965e+06
3.05513e+06
3.00148e+06
2.94881e+06
2.89733e+06
2.84726e+06
2.79884e+06
5.20854e+06
5.14477e+06
5.07389e+06
5.00306e+06
4.93265e+06
4.86277e+06
4.79338e+06
4.72449e+06
4.65608e+06
4.58816e+06
4.52073e+06
4.45379e+06
4.38734e+06
4.32138e+06
4.25593e+06
4.19097e+06
4.12651e+06
4.06255e+06
3.9991e+06
3.93615e+06
3.8737e+06
3.81175e+06
3.75032e+06
3.68939e+06
3.62897e+06
3.56908e+06
3.50971e+06
3.45087e+06
3.39258e+06
3.33486e+06
3.27772e+06
3.2212e+06
3.16534e+06
3.1102e+06
3.05585e+06
3.00241e+06
2.94999e+06
2.89879e+06
2.84902e+06
2.80087e+06
5.2085e+06
5.14474e+06
5.07387e+06
5.00305e+06
4.93265e+06
4.86278e+06
4.7934e+06
4.7245e+06
4.65609e+06
4.58817e+06
4.52074e+06
4.45379e+06
4.38734e+06
4.32139e+06
4.25593e+06
4.19097e+06
4.12652e+06
4.06256e+06
3.99911e+06
3.93616e+06
3.87371e+06
3.81177e+06
3.75034e+06
3.68941e+06
3.62901e+06
3.56912e+06
3.50977e+06
3.45095e+06
3.39269e+06
3.33501e+06
3.27792e+06
3.22147e+06
3.1657e+06
3.11067e+06
3.05647e+06
3.0032e+06
2.95099e+06
2.90001e+06
2.85046e+06
2.80253e+06
5.20846e+06
5.1447e+06
5.07385e+06
5.00304e+06
4.93266e+06
4.86279e+06
4.79341e+06
4.72452e+06
4.65611e+06
4.58818e+06
4.52075e+06
4.4538e+06
4.38735e+06
4.32139e+06
4.25594e+06
4.19098e+06
4.12652e+06
4.06257e+06
3.99911e+06
3.93616e+06
3.87372e+06
3.81178e+06
3.75035e+06
3.68944e+06
3.62904e+06
3.56916e+06
3.50982e+06
3.45103e+06
3.39279e+06
3.33514e+06
3.27809e+06
3.2217e+06
3.166e+06
3.11106e+06
3.05698e+06
3.00384e+06
2.95179e+06
2.90099e+06
2.85162e+06
2.80381e+06
5.2084e+06
5.14465e+06
5.07382e+06
5.00303e+06
4.93267e+06
4.86281e+06
4.79343e+06
4.72454e+06
4.65613e+06
4.5882e+06
4.52076e+06
4.45381e+06
4.38735e+06
4.3214e+06
4.25594e+06
4.19098e+06
4.12653e+06
4.06257e+06
3.99912e+06
3.93617e+06
3.87373e+06
3.81179e+06
3.75036e+06
3.68945e+06
3.62906e+06
3.56919e+06
3.50986e+06
3.45108e+06
3.39286e+06
3.33523e+06
3.27822e+06
3.22187e+06
3.16623e+06
3.11136e+06
3.05736e+06
3.00433e+06
2.9524e+06
2.90174e+06
2.8525e+06
2.80477e+06
5.20832e+06
5.14459e+06
5.07378e+06
5.00302e+06
4.93267e+06
4.86283e+06
4.79346e+06
4.72456e+06
4.65615e+06
4.58821e+06
4.52077e+06
4.45381e+06
4.38736e+06
4.3214e+06
4.25594e+06
4.19099e+06
4.12653e+06
4.06257e+06
3.99912e+06
3.93617e+06
3.87373e+06
3.8118e+06
3.75037e+06
3.68946e+06
3.62908e+06
3.56921e+06
3.50989e+06
3.45112e+06
3.39291e+06
3.3353e+06
3.27831e+06
3.22199e+06
3.16638e+06
3.11156e+06
3.05762e+06
3.00466e+06
2.95281e+06
2.90222e+06
2.85307e+06
2.80542e+06
5.20822e+06
5.14452e+06
5.07374e+06
5.003e+06
4.93267e+06
4.86283e+06
4.79346e+06
4.72457e+06
4.65615e+06
4.58822e+06
4.52077e+06
4.45382e+06
4.38736e+06
4.3214e+06
4.25594e+06
4.19099e+06
4.12653e+06
4.06257e+06
3.99912e+06
3.93618e+06
3.87373e+06
3.8118e+06
3.75038e+06
3.68947e+06
3.62908e+06
3.56922e+06
3.5099e+06
3.45114e+06
3.39294e+06
3.33533e+06
3.27836e+06
3.22205e+06
3.16646e+06
3.11167e+06
3.05775e+06
3.00482e+06
2.95301e+06
2.90247e+06
2.85335e+06
2.80574e+06
2.67463e+06
2.65464e+06
2.63872e+06
2.62563e+06
2.61411e+06
2.60342e+06
2.59329e+06
2.58359e+06
2.57421e+06
2.56509e+06
2.55619e+06
2.54746e+06
2.53888e+06
2.53044e+06
2.5221e+06
2.51386e+06
2.50571e+06
2.49763e+06
2.48963e+06
2.48168e+06
2.47379e+06
2.46595e+06
2.45816e+06
2.45041e+06
2.4427e+06
2.43503e+06
2.42739e+06
2.41979e+06
2.41221e+06
2.40467e+06
2.39714e+06
2.38965e+06
2.38218e+06
2.37473e+06
2.3673e+06
2.3599e+06
2.35251e+06
2.34515e+06
2.3378e+06
2.33047e+06
2.32316e+06
2.31587e+06
2.30859e+06
2.30133e+06
2.29409e+06
2.28686e+06
2.27964e+06
2.27243e+06
2.26525e+06
2.25807e+06
2.2509e+06
2.24375e+06
2.23662e+06
2.22949e+06
2.22238e+06
2.21528e+06
2.20819e+06
2.20111e+06
2.19404e+06
2.18699e+06
2.17995e+06
2.17292e+06
2.1659e+06
2.15889e+06
2.15189e+06
2.1449e+06
2.13793e+06
2.13097e+06
2.12401e+06
2.11707e+06
2.11015e+06
2.10323e+06
2.09632e+06
2.08943e+06
2.08255e+06
2.07569e+06
2.06883e+06
2.06199e+06
2.05516e+06
2.04834e+06
2.04154e+06
2.03475e+06
2.02797e+06
2.0212e+06
2.01445e+06
2.00771e+06
2.00098e+06
1.99427e+06
1.98757e+06
1.98088e+06
1.9742e+06
1.96753e+06
1.96088e+06
1.95424e+06
1.94761e+06
1.94099e+06
1.93438e+06
1.92778e+06
1.9212e+06
1.91463e+06
1.90806e+06
1.90151e+06
1.89497e+06
1.88844e+06
1.88193e+06
1.87542e+06
1.86892e+06
1.86244e+06
1.85596e+06
1.8495e+06
1.84305e+06
1.83661e+06
1.83018e+06
1.82377e+06
1.81736e+06
1.81097e+06
1.80458e+06
1.79821e+06
1.79185e+06
1.7855e+06
1.77917e+06
1.77284e+06
1.76653e+06
1.76023e+06
1.75394e+06
1.74766e+06
1.7414e+06
1.73514e+06
1.7289e+06
1.72267e+06
1.71645e+06
1.71024e+06
1.70404e+06
1.69786e+06
1.69169e+06
1.68552e+06
1.67937e+06
1.67324e+06
1.66711e+06
1.66099e+06
1.65489e+06
1.6488e+06
1.64272e+06
1.63665e+06
1.63059e+06
1.62455e+06
1.61852e+06
1.61249e+06
1.60648e+06
1.60048e+06
1.5945e+06
1.58852e+06
1.58255e+06
1.5766e+06
1.57066e+06
1.56472e+06
1.5588e+06
1.55289e+06
1.547e+06
1.54111e+06
1.53523e+06
1.52936e+06
1.52351e+06
1.51766e+06
1.51183e+06
1.506e+06
1.50019e+06
1.49438e+06
1.48858e+06
1.4828e+06
1.47702e+06
1.47126e+06
1.4655e+06
1.45976e+06
1.45402e+06
1.4483e+06
1.44259e+06
1.43688e+06
1.43119e+06
1.4255e+06
1.41983e+06
1.41417e+06
1.40852e+06
1.40287e+06
1.39724e+06
1.39163e+06
1.38602e+06
1.38042e+06
1.37484e+06
1.36926e+06
1.3637e+06
1.35815e+06
1.35261e+06
1.34708e+06
1.34156e+06
1.33606e+06
1.33057e+06
1.32509e+06
1.31962e+06
1.31416e+06
1.30871e+06
1.30328e+06
1.29786e+06
1.29245e+06
1.28705e+06
1.28166e+06
1.27629e+06
1.27092e+06
1.26557e+06
1.26023e+06
1.2549e+06
1.24959e+06
1.24428e+06
1.23899e+06
1.23371e+06
1.22844e+06
1.22318e+06
1.21793e+06
1.21269e+06
1.20747e+06
1.20226e+06
1.19706e+06
1.19187e+06
1.18669e+06
1.18153e+06
1.17637e+06
1.17123e+06
1.1661e+06
1.16098e+06
1.15587e+06
1.15078e+06
1.14569e+06
1.14062e+06
1.13555e+06
1.1305e+06
1.12546e+06
1.12044e+06
1.11542e+06
1.11042e+06
1.10542e+06
1.10044e+06
1.09547e+06
1.09051e+06
1.08556e+06
1.08062e+06
1.0757e+06
1.07078e+06
1.06588e+06
1.06098e+06
1.0561e+06
1.05123e+06
1.04637e+06
1.04153e+06
1.03669e+06
1.03186e+06
1.02705e+06
1.02225e+06
1.01745e+06
1.01267e+06
1.0079e+06
1.00314e+06
998395
993658
988933
984218
979515
974822
970141
965471
960811
956163
951525
946899
942284
937680
933087
928506
923935
919376
914828
910292
905767
901254
896752
892261
887782
883315
878859
874414
869981
865560
861150
856752
852365
847989
843625
839272
834930
830600
826281
821974
817677
813392
809119
804856
800605
796364
792135
787917
783710
779514
775329
771155
766992
762840
758699
754569
750450
746341
742244
738157
734081
730016
725962
721918
717885
713863
709851
705851
701860
697881
693911
689953
686005
682068
678141
674225
670319
666424
662540
658666
654803
650951
647109
643278
639458
635648
631849
628060
624282
620514
616757
613010
609273
605545
601828
598121
594423
590734
587055
583384
579723
576069
572424
568787
565158
561535
557920
554311
550707
547110
543517
539929
536345
532763
529184
525605
522027
518448
514866
511280
507689
504090
500481
496858
493220
489562
485880
482167
478418
474624
470773
466853
462839
458706
454404
449871
444992
439467
433133
2.69421e+06
2.67551e+06
2.65905e+06
2.64429e+06
2.63106e+06
2.61888e+06
2.60748e+06
2.59667e+06
2.58632e+06
2.57635e+06
2.56669e+06
2.55728e+06
2.54809e+06
2.53908e+06
2.53023e+06
2.52152e+06
2.51293e+06
2.50445e+06
2.49607e+06
2.48777e+06
2.47955e+06
2.47141e+06
2.46333e+06
2.45531e+06
2.44734e+06
2.43943e+06
2.43157e+06
2.42375e+06
2.41597e+06
2.40823e+06
2.40053e+06
2.39286e+06
2.38523e+06
2.37763e+06
2.37005e+06
2.36251e+06
2.355e+06
2.34751e+06
2.34004e+06
2.3326e+06
2.32519e+06
2.31779e+06
2.31042e+06
2.30307e+06
2.29574e+06
2.28842e+06
2.28113e+06
2.27385e+06
2.26659e+06
2.25934e+06
2.25212e+06
2.24491e+06
2.23771e+06
2.23053e+06
2.22336e+06
2.21621e+06
2.20907e+06
2.20195e+06
2.19484e+06
2.18775e+06
2.18067e+06
2.1736e+06
2.16654e+06
2.1595e+06
2.15247e+06
2.14546e+06
2.13845e+06
2.13146e+06
2.12449e+06
2.11752e+06
2.11057e+06
2.10363e+06
2.09671e+06
2.0898e+06
2.0829e+06
2.07601e+06
2.06914e+06
2.06229e+06
2.05544e+06
2.04861e+06
2.04179e+06
2.03499e+06
2.0282e+06
2.02142e+06
2.01466e+06
2.00791e+06
2.00117e+06
1.99445e+06
1.98774e+06
1.98104e+06
1.97435e+06
1.96768e+06
1.96102e+06
1.95437e+06
1.94773e+06
1.94111e+06
1.93449e+06
1.92789e+06
1.92131e+06
1.91473e+06
1.90816e+06
1.90161e+06
1.89507e+06
1.88854e+06
1.88202e+06
1.87551e+06
1.86901e+06
1.86253e+06
1.85605e+06
1.84959e+06
1.84314e+06
1.8367e+06
1.83028e+06
1.82386e+06
1.81746e+06
1.81107e+06
1.80469e+06
1.79832e+06
1.79196e+06
1.78561e+06
1.77928e+06
1.77296e+06
1.76664e+06
1.76035e+06
1.75406e+06
1.74778e+06
1.74152e+06
1.73526e+06
1.72902e+06
1.72279e+06
1.71658e+06
1.71037e+06
1.70418e+06
1.69799e+06
1.69182e+06
1.68566e+06
1.67951e+06
1.67338e+06
1.66725e+06
1.66114e+06
1.65504e+06
1.64895e+06
1.64287e+06
1.63681e+06
1.63075e+06
1.62471e+06
1.61868e+06
1.61266e+06
1.60665e+06
1.60065e+06
1.59466e+06
1.58869e+06
1.58273e+06
1.57677e+06
1.57083e+06
1.5649e+06
1.55898e+06
1.55308e+06
1.54718e+06
1.54129e+06
1.53542e+06
1.52955e+06
1.52369e+06
1.51785e+06
1.51201e+06
1.50619e+06
1.50037e+06
1.49457e+06
1.48877e+06
1.48299e+06
1.47721e+06
1.47145e+06
1.46569e+06
1.45994e+06
1.45421e+06
1.44848e+06
1.44276e+06
1.43706e+06
1.43136e+06
1.42567e+06
1.42e+06
1.41433e+06
1.40868e+06
1.40303e+06
1.3974e+06
1.39178e+06
1.38617e+06
1.38057e+06
1.37498e+06
1.3694e+06
1.36384e+06
1.35828e+06
1.35274e+06
1.34721e+06
1.34169e+06
1.33618e+06
1.33069e+06
1.3252e+06
1.31973e+06
1.31427e+06
1.30883e+06
1.30339e+06
1.29797e+06
1.29255e+06
1.28715e+06
1.28176e+06
1.27639e+06
1.27102e+06
1.26567e+06
1.26032e+06
1.25499e+06
1.24968e+06
1.24437e+06
1.23907e+06
1.23379e+06
1.22852e+06
1.22326e+06
1.21801e+06
1.21277e+06
1.20755e+06
1.20233e+06
1.19713e+06
1.19194e+06
1.18676e+06
1.18159e+06
1.17644e+06
1.17129e+06
1.16616e+06
1.16104e+06
1.15593e+06
1.15083e+06
1.14575e+06
1.14067e+06
1.13561e+06
1.13056e+06
1.12552e+06
1.12049e+06
1.11547e+06
1.11047e+06
1.10547e+06
1.10049e+06
1.09552e+06
1.09056e+06
1.08561e+06
1.08067e+06
1.07574e+06
1.07083e+06
1.06592e+06
1.06103e+06
1.05615e+06
1.05128e+06
1.04642e+06
1.04157e+06
1.03673e+06
1.0319e+06
1.02709e+06
1.02228e+06
1.01749e+06
1.01271e+06
1.00794e+06
1.00318e+06
998427
993689
988962
984246
979540
974846
970162
965490
960828
956177
951537
946908
942290
937683
933087
928502
923928
919365
914814
910274
905746
901229
896723
892230
887747
883276
878817
874370
869934
865510
861097
856696
852306
847927
843560
839205
834860
830527
826205
821894
817594
813306
809028
804761
800506
796261
792028
787805
783593
779392
775202
771023
766854
762696
758548
754412
750286
746170
742065
737970
733886
729813
725750
721697
717654
713622
709600
705588
701586
697594
693612
689640
685678
681726
677785
673853
669930
666018
662116
658223
654340
650467
646604
642750
638906
635071
631246
627430
623623
619826
616037
612257
608486
604723
600968
597222
593483
589751
586027
582309
578598
574894
571194
567501
563812
560127
556446
552769
549094
545421
541749
538077
534405
530730
527053
523371
519684
515989
512285
508568
504839
501091
497324
493533
489712
485858
481961
478017
474012
469938
465773
461504
457098
452519
447729
442642
437167
431182
424354
2.70754e+06
2.69019e+06
2.67412e+06
2.65916e+06
2.64532e+06
2.63239e+06
2.6202e+06
2.60862e+06
2.59755e+06
2.58689e+06
2.5766e+06
2.56661e+06
2.55687e+06
2.54736e+06
2.53805e+06
2.5289e+06
2.51991e+06
2.51105e+06
2.50231e+06
2.49369e+06
2.48516e+06
2.47672e+06
2.46837e+06
2.46009e+06
2.45188e+06
2.44374e+06
2.43565e+06
2.42763e+06
2.41965e+06
2.41173e+06
2.40385e+06
2.39602e+06
2.38823e+06
2.38048e+06
2.37277e+06
2.36509e+06
2.35744e+06
2.34983e+06
2.34225e+06
2.3347e+06
2.32718e+06
2.31969e+06
2.31222e+06
2.30478e+06
2.29736e+06
2.28996e+06
2.28259e+06
2.27524e+06
2.26791e+06
2.2606e+06
2.25331e+06
2.24603e+06
2.23878e+06
2.23154e+06
2.22433e+06
2.21713e+06
2.20994e+06
2.20277e+06
2.19562e+06
2.18849e+06
2.18136e+06
2.17426e+06
2.16717e+06
2.16009e+06
2.15303e+06
2.14599e+06
2.13896e+06
2.13194e+06
2.12494e+06
2.11796e+06
2.11098e+06
2.10402e+06
2.09708e+06
2.09015e+06
2.08324e+06
2.07634e+06
2.06945e+06
2.06258e+06
2.05572e+06
2.04888e+06
2.04205e+06
2.03523e+06
2.02843e+06
2.02164e+06
2.01487e+06
2.00811e+06
2.00136e+06
1.99463e+06
1.98791e+06
1.9812e+06
1.97451e+06
1.96783e+06
1.96116e+06
1.95451e+06
1.94787e+06
1.94124e+06
1.93462e+06
1.92802e+06
1.92142e+06
1.91484e+06
1.90828e+06
1.90172e+06
1.89518e+06
1.88865e+06
1.88213e+06
1.87562e+06
1.86912e+06
1.86264e+06
1.85617e+06
1.84971e+06
1.84326e+06
1.83682e+06
1.83039e+06
1.82398e+06
1.81758e+06
1.81119e+06
1.80481e+06
1.79844e+06
1.79208e+06
1.78574e+06
1.77941e+06
1.77309e+06
1.76678e+06
1.76048e+06
1.7542e+06
1.74792e+06
1.74166e+06
1.73541e+06
1.72917e+06
1.72294e+06
1.71673e+06
1.71052e+06
1.70433e+06
1.69815e+06
1.69198e+06
1.68582e+06
1.67967e+06
1.67354e+06
1.66742e+06
1.66131e+06
1.65521e+06
1.64912e+06
1.64304e+06
1.63698e+06
1.63092e+06
1.62488e+06
1.61885e+06
1.61283e+06
1.60683e+06
1.60083e+06
1.59485e+06
1.58887e+06
1.58291e+06
1.57696e+06
1.57102e+06
1.56509e+06
1.55918e+06
1.55327e+06
1.54737e+06
1.54149e+06
1.53561e+06
1.52975e+06
1.52389e+06
1.51805e+06
1.51221e+06
1.50639e+06
1.50057e+06
1.49477e+06
1.48897e+06
1.48319e+06
1.47741e+06
1.47164e+06
1.46588e+06
1.46013e+06
1.45439e+06
1.44867e+06
1.44295e+06
1.43724e+06
1.43154e+06
1.42585e+06
1.42017e+06
1.4145e+06
1.40884e+06
1.40319e+06
1.39756e+06
1.39193e+06
1.38632e+06
1.38071e+06
1.37512e+06
1.36954e+06
1.36397e+06
1.35842e+06
1.35287e+06
1.34734e+06
1.34182e+06
1.33631e+06
1.33081e+06
1.32532e+06
1.31985e+06
1.31439e+06
1.30894e+06
1.3035e+06
1.29807e+06
1.29266e+06
1.28726e+06
1.28187e+06
1.27649e+06
1.27112e+06
1.26576e+06
1.26042e+06
1.25509e+06
1.24977e+06
1.24446e+06
1.23916e+06
1.23387e+06
1.2286e+06
1.22334e+06
1.21809e+06
1.21285e+06
1.20762e+06
1.20241e+06
1.1972e+06
1.19201e+06
1.18683e+06
1.18166e+06
1.1765e+06
1.17136e+06
1.16622e+06
1.1611e+06
1.15599e+06
1.15089e+06
1.14581e+06
1.14073e+06
1.13567e+06
1.13061e+06
1.12557e+06
1.12054e+06
1.11552e+06
1.11052e+06
1.10552e+06
1.10054e+06
1.09557e+06
1.09061e+06
1.08566e+06
1.08072e+06
1.07579e+06
1.07087e+06
1.06597e+06
1.06108e+06
1.05619e+06
1.05132e+06
1.04646e+06
1.04161e+06
1.03677e+06
1.03195e+06
1.02713e+06
1.02232e+06
1.01753e+06
1.01275e+06
1.00797e+06
1.00321e+06
998463
993723
988995
984277
979570
974873
970188
965513
960849
956195
951552
946920
942299
937689
933089
928501
923923
919357
914802
910258
905726
901205
896695
892198
887712
883237
878775
874324
869885
865457
861041
856637
852244
847863
843493
839134
834787
830450
826125
821811
817508
813216
808935
804664
800405
796156
791918
787691
783474
779268
775073
770888
766714
762550
758396
754253
750120
745997
741885
737783
733691
729609
725537
721475
717423
713381
709348
705325
701312
697308
693314
689329
685354
681388
677431
673483
669545
665616
661696
657785
653882
649989
646104
642228
638360
634501
630651
626808
622973
619146
615327
611515
607710
603912
600121
596336
592557
588783
585015
581252
577493
573737
569986
566237
562491
558745
555002
551257
547513
543767
540018
536266
532509
528746
524976
521196
517405
513602
509781
505945
502085
498203
494290
490345
486360
482333
478250
474107
469891
465587
461186
456655
451989
447133
442079
436752
431088
425076
418583
2.71776e+06
2.70143e+06
2.68594e+06
2.67119e+06
2.65724e+06
2.64399e+06
2.63138e+06
2.61931e+06
2.60773e+06
2.59657e+06
2.58578e+06
2.57531e+06
2.56512e+06
2.55518e+06
2.54546e+06
2.53593e+06
2.52657e+06
2.51737e+06
2.50831e+06
2.49938e+06
2.49056e+06
2.48185e+06
2.47324e+06
2.46471e+06
2.45627e+06
2.44791e+06
2.43962e+06
2.4314e+06
2.42324e+06
2.41513e+06
2.40709e+06
2.3991e+06
2.39115e+06
2.38326e+06
2.37541e+06
2.3676e+06
2.35983e+06
2.3521e+06
2.34441e+06
2.33675e+06
2.32913e+06
2.32154e+06
2.31398e+06
2.30644e+06
2.29894e+06
2.29147e+06
2.28402e+06
2.27659e+06
2.26919e+06
2.26181e+06
2.25446e+06
2.24713e+06
2.23982e+06
2.23253e+06
2.22526e+06
2.21801e+06
2.21078e+06
2.20357e+06
2.19637e+06
2.1892e+06
2.18204e+06
2.1749e+06
2.16778e+06
2.16067e+06
2.15358e+06
2.14651e+06
2.13945e+06
2.13241e+06
2.12539e+06
2.11838e+06
2.11139e+06
2.10441e+06
2.09745e+06
2.0905e+06
2.08357e+06
2.07666e+06
2.06976e+06
2.06287e+06
2.056e+06
2.04914e+06
2.0423e+06
2.03548e+06
2.02866e+06
2.02187e+06
2.01508e+06
2.00832e+06
2.00156e+06
1.99482e+06
1.98809e+06
1.98138e+06
1.97468e+06
1.96799e+06
1.96132e+06
1.95466e+06
1.94802e+06
1.94138e+06
1.93476e+06
1.92815e+06
1.92156e+06
1.91498e+06
1.90841e+06
1.90185e+06
1.89531e+06
1.88878e+06
1.88226e+06
1.87575e+06
1.86925e+06
1.86277e+06
1.8563e+06
1.84984e+06
1.84339e+06
1.83695e+06
1.83053e+06
1.82412e+06
1.81772e+06
1.81133e+06
1.80495e+06
1.79858e+06
1.79223e+06
1.78589e+06
1.77956e+06
1.77324e+06
1.76693e+06
1.76064e+06
1.75435e+06
1.74808e+06
1.74182e+06
1.73557e+06
1.72933e+06
1.72311e+06
1.71689e+06
1.71069e+06
1.7045e+06
1.69832e+06
1.69215e+06
1.68599e+06
1.67985e+06
1.67371e+06
1.66759e+06
1.66148e+06
1.65538e+06
1.6493e+06
1.64322e+06
1.63716e+06
1.63111e+06
1.62507e+06
1.61904e+06
1.61302e+06
1.60702e+06
1.60102e+06
1.59504e+06
1.58907e+06
1.58311e+06
1.57716e+06
1.57122e+06
1.5653e+06
1.55938e+06
1.55347e+06
1.54758e+06
1.54169e+06
1.53582e+06
1.52995e+06
1.5241e+06
1.51825e+06
1.51242e+06
1.50659e+06
1.50078e+06
1.49497e+06
1.48917e+06
1.48339e+06
1.47761e+06
1.47184e+06
1.46608e+06
1.46032e+06
1.45458e+06
1.44885e+06
1.44313e+06
1.43741e+06
1.43171e+06
1.42602e+06
1.42034e+06
1.41466e+06
1.409e+06
1.40335e+06
1.39771e+06
1.39208e+06
1.38646e+06
1.38086e+06
1.37526e+06
1.36968e+06
1.3641e+06
1.35854e+06
1.35299e+06
1.34746e+06
1.34193e+06
1.33642e+06
1.33092e+06
1.32543e+06
1.31996e+06
1.3145e+06
1.30904e+06
1.3036e+06
1.29818e+06
1.29276e+06
1.28735e+06
1.28196e+06
1.27658e+06
1.27121e+06
1.26585e+06
1.26051e+06
1.25517e+06
1.24985e+06
1.24454e+06
1.23924e+06
1.23395e+06
1.22868e+06
1.22341e+06
1.21816e+06
1.21292e+06
1.20769e+06
1.20247e+06
1.19727e+06
1.19207e+06
1.18689e+06
1.18172e+06
1.17656e+06
1.17141e+06
1.16628e+06
1.16116e+06
1.15604e+06
1.15094e+06
1.14586e+06
1.14078e+06
1.13571e+06
1.13066e+06
1.12562e+06
1.12059e+06
1.11557e+06
1.11056e+06
1.10557e+06
1.10058e+06
1.09561e+06
1.09065e+06
1.0857e+06
1.08076e+06
1.07583e+06
1.07092e+06
1.06601e+06
1.06112e+06
1.05623e+06
1.05136e+06
1.0465e+06
1.04165e+06
1.03681e+06
1.03198e+06
1.02717e+06
1.02236e+06
1.01757e+06
1.01278e+06
1.00801e+06
1.00325e+06
998497
993757
989027
984308
979600
974902
970214
965537
960871
956215
951569
946934
942310
937696
933093
928500
923919
919349
914789
910242
905705
901180
896667
892165
887675
883197
878731
874276
869833
865403
860983
856576
852180
847795
843422
839061
834710
830371
826043
821726
817419
813124
808839
804565
800302
796049
791807
787575
783354
779143
774943
770753
766573
762403
758244
754094
749955
745825
741706
737596
733497
729407
725326
721255
717194
713142
709099
705066
701042
697026
693020
689022
685034
681054
677083
673120
669166
665220
661283
657353
653432
649519
645613
641715
637825
633942
630066
626197
622335
618479
614631
610787
606950
603117
599291
595468
591650
587836
584025
580217
576412
572608
568806
565004
561202
557399
553594
549787
545975
542161
538338
534511
530673
526827
522968
519097
515209
511305
507378
503430
499454
495448
491408
487325
483202
479020
474787
470476
466098
461616
457043
452337
447501
442497
437309
431910
426251
420372
414239
2.72658e+06
2.71094e+06
2.69578e+06
2.68119e+06
2.66725e+06
2.65389e+06
2.64107e+06
2.62874e+06
2.61684e+06
2.60533e+06
2.59417e+06
2.58333e+06
2.57277e+06
2.56247e+06
2.5524e+06
2.54254e+06
2.53286e+06
2.52336e+06
2.51401e+06
2.5048e+06
2.49572e+06
2.48676e+06
2.47791e+06
2.46916e+06
2.4605e+06
2.45193e+06
2.44345e+06
2.43504e+06
2.4267e+06
2.41843e+06
2.41022e+06
2.40207e+06
2.39398e+06
2.38595e+06
2.37797e+06
2.37003e+06
2.36215e+06
2.3543e+06
2.3465e+06
2.33874e+06
2.33102e+06
2.32333e+06
2.31568e+06
2.30806e+06
2.30048e+06
2.29292e+06
2.2854e+06
2.2779e+06
2.27044e+06
2.263e+06
2.25558e+06
2.24819e+06
2.24083e+06
2.23349e+06
2.22617e+06
2.21887e+06
2.2116e+06
2.20434e+06
2.19711e+06
2.1899e+06
2.18271e+06
2.17553e+06
2.16838e+06
2.16124e+06
2.15412e+06
2.14703e+06
2.13994e+06
2.13288e+06
2.12583e+06
2.11881e+06
2.11179e+06
2.1048e+06
2.09782e+06
2.09086e+06
2.08391e+06
2.07698e+06
2.07006e+06
2.06316e+06
2.05628e+06
2.04941e+06
2.04256e+06
2.03572e+06
2.0289e+06
2.0221e+06
2.0153e+06
2.00853e+06
2.00176e+06
1.99502e+06
1.98828e+06
1.98156e+06
1.97486e+06
1.96817e+06
1.96149e+06
1.95483e+06
1.94818e+06
1.94154e+06
1.93492e+06
1.92831e+06
1.92171e+06
1.91513e+06
1.90856e+06
1.902e+06
1.89545e+06
1.88892e+06
1.8824e+06
1.87589e+06
1.8694e+06
1.86292e+06
1.85645e+06
1.84999e+06
1.84354e+06
1.83711e+06
1.83068e+06
1.82427e+06
1.81787e+06
1.81149e+06
1.80511e+06
1.79875e+06
1.79239e+06
1.78605e+06
1.77973e+06
1.77341e+06
1.7671e+06
1.76081e+06
1.75452e+06
1.74825e+06
1.74199e+06
1.73574e+06
1.72951e+06
1.72328e+06
1.71707e+06
1.71086e+06
1.70467e+06
1.69849e+06
1.69232e+06
1.68617e+06
1.68002e+06
1.67389e+06
1.66777e+06
1.66166e+06
1.65556e+06
1.64948e+06
1.6434e+06
1.63734e+06
1.63129e+06
1.62525e+06
1.61922e+06
1.61321e+06
1.6072e+06
1.60121e+06
1.59523e+06
1.58926e+06
1.5833e+06
1.57735e+06
1.57142e+06
1.56549e+06
1.55957e+06
1.55367e+06
1.54777e+06
1.54189e+06
1.53601e+06
1.53015e+06
1.5243e+06
1.51845e+06
1.51261e+06
1.50679e+06
1.50097e+06
1.49516e+06
1.48936e+06
1.48357e+06
1.47779e+06
1.47202e+06
1.46626e+06
1.46051e+06
1.45476e+06
1.44903e+06
1.4433e+06
1.43758e+06
1.43188e+06
1.42618e+06
1.42049e+06
1.41482e+06
1.40915e+06
1.40349e+06
1.39785e+06
1.39221e+06
1.38659e+06
1.38098e+06
1.37538e+06
1.36979e+06
1.36421e+06
1.35865e+06
1.3531e+06
1.34756e+06
1.34203e+06
1.33652e+06
1.33102e+06
1.32553e+06
1.32005e+06
1.31458e+06
1.30913e+06
1.30369e+06
1.29826e+06
1.29284e+06
1.28743e+06
1.28204e+06
1.27666e+06
1.27129e+06
1.26593e+06
1.26058e+06
1.25524e+06
1.24992e+06
1.24461e+06
1.23931e+06
1.23402e+06
1.22874e+06
1.22347e+06
1.21822e+06
1.21298e+06
1.20774e+06
1.20252e+06
1.19732e+06
1.19212e+06
1.18694e+06
1.18177e+06
1.17661e+06
1.17146e+06
1.16632e+06
1.1612e+06
1.15608e+06
1.15098e+06
1.14589e+06
1.14082e+06
1.13575e+06
1.1307e+06
1.12565e+06
1.12062e+06
1.1156e+06
1.1106e+06
1.1056e+06
1.10062e+06
1.09564e+06
1.09068e+06
1.08573e+06
1.08079e+06
1.07586e+06
1.07095e+06
1.06604e+06
1.06115e+06
1.05626e+06
1.05139e+06
1.04653e+06
1.04168e+06
1.03684e+06
1.03202e+06
1.0272e+06
1.02239e+06
1.0176e+06
1.01281e+06
1.00804e+06
1.00328e+06
998527
993786
989055
984335
979626
974927
970238
965559
960891
956232
951584
946946
942319
937702
933095
928499
923913
919339
914776
910224
905683
901154
896636