/*--------------------------------*- C++ -*----------------------------------*\
| =========                 |                                                 |
| \\      /  F ield         | OpenFOAM: The Open Source CFD Toolbox           |
|  \\    /   O peration     | Version:  2.4.0                                 |
|   \\  /    A nd           | Web:      www.OpenFOAM.org                      |
|    \\/     M anipulation  |                                                 |
\*---------------------------------------------------------------------------*/
FoamFile
{
    version     2.0;
    format      ascii;
    class       volScalarField;
    location    "0.172803";
    object      epsilon;
}
// * * * * * * * * * * * * * * * * * * * * * * * * * * * * * * * * * * * * * //

dimensions      [0 2 -3 0 0 0 0];

internalField   nonuniform List<scalar> 
17600
(
265.083
385.346
484.503
552.102
589.303
603.043
601.295
590.76
576.227
560.735
546.005
532.863
521.575
512.086
504.169
497.529
491.84
486.861
481.989
478.708
36.7924
56.6202
73.1773
86.8315
97.8164
106.597
113.925
120.481
126.723
132.882
139.013
145.045
150.841
156.247
161.121
165.369
168.949
171.912
174.558
178.196
17.5414
21.1444
24.3393
26.9221
28.8597
30.2279
31.2099
32.019
32.8433
33.8252
35.0591
36.5963
38.4525
40.6148
43.0492
45.7077
48.5343
51.4907
54.5762
58.0445
14.61
14.9314
15.4007
15.8276
16.1253
16.2642
16.2604
16.1563
16.0023
15.8473
15.7337
15.696
15.7608
15.9473
16.2688
16.7335
17.3454
18.117
19.049
20.3207
14.0149
13.4584
13.0867
12.8097
12.5648
12.3139
12.0407
11.7442
11.4321
11.1159
10.8084
10.5215
10.2659
10.0505
9.88239
9.76763
9.71091
9.72012
9.79957
10.006
13.8829
13.0682
12.3956
11.8315
11.3434
10.9043
10.4956
10.1066
9.73239
9.37166
9.02551
8.6962
8.38639
8.09873
7.83566
7.59933
7.39155
7.21515
7.07197
6.97819
13.8529
12.9632
12.1837
11.5005
10.8976
10.359
9.87058
9.42185
9.00509
8.61515
8.24877
7.90402
7.57987
7.27586
6.9918
6.72774
6.48374
6.26043
6.05812
5.88186
13.8461
12.9351
12.1197
11.3899
10.7357
10.1469
9.6136
9.1273
8.68085
8.26851
7.88579
7.52927
7.19633
6.88498
6.59371
6.32137
6.06703
5.83016
5.61025
5.40888
13.8445
12.9277
12.1008
11.3539
10.6786
10.0665
9.51015
9.00247
8.53737
8.10953
7.71444
7.34834
7.00808
6.6911
6.39524
6.11876
5.86017
5.61835
5.39227
5.18225
13.8441
12.9257
12.0952
11.3425
10.659
10.0371
9.46987
8.95124
8.47569
8.03839
7.6351
7.26212
6.91626
6.59477
6.29531
6.01585
5.75465
5.51027
5.28144
5.0679
13.844
12.9251
12.0935
11.3388
10.6524
10.0265
9.45466
8.93089
8.45006
8.0076
7.59949
7.22219
6.87256
6.54788
6.24574
5.96405
5.70098
5.45493
5.22452
5.00924
13.844
12.9249
12.0929
11.3376
10.6501
10.0227
9.44897
8.92298
8.43969
7.99468
7.58402
7.20428
6.85241
6.52571
6.22181
5.9386
5.67422
5.42704
5.19562
4.97935
13.844
12.9248
12.0927
11.3371
10.6492
10.0213
9.44678
8.91987
8.43552
7.98933
7.57745
7.19646
6.84337
6.51553
6.21059
5.92644
5.66125
5.41335
5.1813
4.96443
13.8439
12.9247
12.0925
11.3368
10.6487
10.0206
9.44585
8.91857
8.43378
7.98708
7.57463
7.19306
6.83938
6.51095
6.20545
5.92079
5.65512
5.40681
5.17439
4.95718
13.8439
12.9247
12.0924
11.3366
10.6485
10.0203
9.44537
8.91794
8.43296
7.98606
7.57337
7.19154
6.83758
6.50888
6.20311
5.91819
5.65228
5.40375
5.17114
4.95375
13.8439
12.9246
12.0923
11.3365
10.6483
10.02
9.44507
8.91757
8.43252
7.98552
7.57274
7.1908
6.83672
6.5079
6.20201
5.91697
5.65095
5.40233
5.16962
4.95216
13.8439
12.9246
12.0922
11.3364
10.6481
10.0199
9.44486
8.91733
8.43224
7.98521
7.57238
7.19039
6.83627
6.5074
6.20145
5.91637
5.65031
5.40164
5.16891
4.95141
13.8439
12.9246
12.0922
11.3363
10.648
10.0197
9.44471
8.91716
8.43206
7.985
7.57216
7.19015
6.83601
6.50712
6.20115
5.91605
5.64998
5.4013
5.16856
4.95105
13.8439
12.9246
12.0921
11.3362
10.648
10.0197
9.44462
8.91706
8.43194
7.98488
7.57202
7.19
6.83586
6.50696
6.20099
5.91589
5.64981
5.40113
5.16839
4.95088
13.8439
12.9246
12.0921
11.3362
10.6479
10.0196
9.44457
8.91701
8.43188
7.98481
7.57196
7.18994
6.83579
6.50689
6.20092
5.91581
5.64974
5.40106
5.16832
4.9508
13.8439
12.9246
12.0921
11.3362
10.6479
10.0196
9.44457
8.91701
8.43188
7.98481
7.57196
7.18994
6.83579
6.50689
6.20092
5.91581
5.64974
5.40106
5.16832
4.9508
13.8439
12.9246
12.0921
11.3362
10.648
10.0197
9.44462
8.91706
8.43194
7.98488
7.57202
7.19
6.83586
6.50696
6.20099
5.91589
5.64982
5.40114
5.1684
4.95087
13.8439
12.9246
12.0922
11.3363
10.648
10.0197
9.44471
8.91716
8.43206
7.985
7.57216
7.19015
6.83601
6.50712
6.20116
5.91606
5.65
5.40132
5.16858
4.95104
13.8439
12.9246
12.0922
11.3364
10.6481
10.0199
9.44486
8.91733
8.43224
7.98521
7.57238
7.19039
6.83627
6.5074
6.20146
5.91638
5.65033
5.40167
5.16893
4.95139
13.8439
12.9246
12.0923
11.3365
10.6483
10.02
9.44507
8.91757
8.43252
7.98552
7.57274
7.1908
6.83673
6.50791
6.20202
5.91699
5.65098
5.40236
5.16965
4.95213
13.8439
12.9247
12.0924
11.3366
10.6485
10.0203
9.44537
8.91794
8.43296
7.98606
7.57337
7.19154
6.83759
6.50889
6.20312
5.91821
5.65231
5.40379
5.17116
4.95371
13.8439
12.9247
12.0925
11.3368
10.6487
10.0206
9.44585
8.91857
8.43378
7.98708
7.57464
7.19306
6.83938
6.51096
6.20546
5.92081
5.65515
5.40684
5.17441
4.95711
13.844
12.9248
12.0927
11.3371
10.6492
10.0213
9.44679
8.91987
8.43552
7.98933
7.57745
7.19646
6.84338
6.51554
6.2106
5.92647
5.66128
5.41338
5.1813
4.96431
13.844
12.9249
12.0929
11.3376
10.6501
10.0227
9.44897
8.92298
8.43969
7.99468
7.58403
7.20429
6.85241
6.52572
6.22182
5.93861
5.67424
5.42705
5.19558
4.97911
13.844
12.9251
12.0935
11.3388
10.6524
10.0265
9.45466
8.93089
8.45006
8.0076
7.5995
7.22219
6.87256
6.54788
6.24574
5.96405
5.70097
5.45488
5.22437
5.00877
13.8441
12.9257
12.0952
11.3425
10.659
10.0371
9.46987
8.95124
8.47569
8.03839
7.6351
7.26212
6.91625
6.59477
6.2953
6.01582
5.75459
5.51011
5.28107
5.06692
13.8445
12.9277
12.1008
11.3539
10.6786
10.0665
9.51015
9.00247
8.53737
8.10953
7.71444
7.34833
7.00807
6.69108
6.3952
6.11868
5.86001
5.61796
5.39146
5.18014
13.8461
12.9351
12.1197
11.3899
10.7357
10.1469
9.6136
9.1273
8.68084
8.2685
7.88579
7.52926
7.1963
6.88493
6.59362
6.32118
6.06666
5.8293
5.60845
5.40407
13.8529
12.9632
12.1837
11.5005
10.8976
10.359
9.87058
9.42184
9.00508
8.61514
8.24875
7.90399
7.57982
7.27575
6.99159
6.72732
6.48294
6.25849
6.05401
5.86999
13.8829
13.0682
12.3956
11.8315
11.3434
10.9043
10.4956
10.1066
9.73238
9.37164
9.02548
8.69613
8.38626
8.09849
7.83519
7.59839
7.3897
7.21047
7.06183
6.94529
14.0149
13.4584
13.0867
12.8097
12.5648
12.3139
12.0407
11.7442
11.4321
11.1159
10.8083
10.5213
10.2656
10.0499
9.88122
9.76523
9.70617
9.70741
9.77167
9.90234
14.61
14.9314
15.4007
15.8276
16.1253
16.2642
16.2604
16.1563
16.0023
15.8472
15.7335
15.6956
15.7599
15.9456
16.2654
16.7267
17.3319
18.0802
18.9673
19.9893
17.5414
21.1444
24.3393
26.9221
28.8596
30.2279
31.2099
32.0189
32.8431
33.8248
35.0583
36.5948
38.4497
40.6096
43.0395
45.6891
48.4985
51.4049
54.3478
57.2712
36.7924
56.6202
73.1773
86.8314
97.8164
106.597
113.925
120.481
126.722
132.881
139.01
145.04
150.832
156.231
161.093
165.317
168.85
171.689
173.883
175.5
265.083
385.346
484.503
552.102
589.303
603.044
601.296
590.761
576.228
560.738
546.011
532.872
521.592
512.115
504.22
497.616
492.011
487.141
482.785
478.774
699.392
869.681
994.402
1075.3
1116.25
1124.5
1108.72
1077.52
1037.96
995.044
951.96
910.48
871.405
835.001
801.267
770.093
741.334
714.851
690.503
668.148
647.633
628.803
611.508
595.605
580.959
567.451
554.967
543.406
532.674
522.682
513.352
504.609
496.389
488.632
481.284
474.3
467.635
461.251
455.113
449.19
443.453
437.875
432.435
427.109
421.88
416.73
411.642
406.603
401.597
396.615
391.643
386.672
381.692
376.695
371.672
366.616
361.521
356.379
351.186
345.935
340.622
335.243
329.793
324.269
318.667
312.986
307.221
301.372
295.436
289.414
283.303
277.105
270.819
264.447
257.991
251.453
244.837
238.146
231.385
224.56
217.677
210.743
203.766
196.754
189.719
182.669
175.617
168.573
161.552
154.566
147.629
140.756
133.961
127.259
120.666
114.196
107.863
101.684
95.6703
89.8361
84.1932
78.7526
73.5239
68.5152
63.7331
59.1824
54.8663
50.7859
46.9409
43.3289
39.946
36.7869
33.8448
31.1118
28.5789
26.2365
24.0743
22.0817
20.2479
18.5623
17.0141
15.5932
14.2897
13.0944
11.9985
10.9942
10.074
9.23145
8.46081
7.75711
7.11623
6.53491
6.01083
5.54272
5.13047
4.77543
4.48071
4.25171
4.09676
4.02802
4.06236
4.22226
4.5364
5.03936
5.7703
6.76979
8.07444
9.70951
11.6806
13.9673
16.5213
19.2707
22.129
25.006
27.8175
30.4924
32.975
35.2253
37.2167
38.9329
40.3651
41.5093
42.3646
42.9315
43.2112
43.2035
42.9175
42.3658
41.5662
40.543
39.3291
37.968
36.5148
35.0367
33.6116
32.324
31.2591
30.495
30.0957
30.1046
30.5418
31.405
32.673
34.3126
36.2877
38.5698
41.1508
44.0582
47.3765
51.2823
56.1072
62.4644
71.5155
85.5196
109.032
151.008
230.523
382.916
782.169
1567.85
190.004
210.609
241.671
283.102
333.291
389.015
446.307
501.023
549.504
589.117
618.576
637.912
648.143
650.891
647.961
641.025
631.453
620.266
608.183
595.69
583.109
570.662
558.503
546.738
535.441
524.652
514.389
504.648
495.411
486.652
478.34
470.441
462.923
455.752
448.898
442.331
436.02
429.939
424.062
418.365
412.825
407.423
402.139
396.957
391.862
386.837
381.871
376.95
372.063
367.2
362.35
357.505
352.656
347.795
342.915
338.008
333.069
328.09
323.067
317.995
312.867
307.68
302.43
297.111
291.722
286.259
280.719
275.1
269.399
263.617
257.751
251.803
245.771
239.658
233.465
227.194
220.849
214.435
207.955
201.416
194.824
188.187
181.514
174.813
168.096
161.373
154.656
147.957
141.291
134.672
128.113
121.63
115.238
108.953
102.79
96.7646
90.8909
85.1836
79.656
74.3206
69.1886
64.2699
59.5727
55.1036
50.8673
46.8666
43.1025
39.574
36.2782
33.2104
30.3647
27.7332
25.3074
23.0774
21.0326
19.1622
17.4548
15.899
14.4836
13.1975
12.0301
10.9714
10.0118
9.14267
8.35584
7.644
7.0006
6.4199
5.89695
5.42764
5.00873
4.63792
4.31396
4.03679
3.80786
3.63044
3.5102
3.45588
3.4802
3.60088
3.84154
4.23244
4.81045
5.61794
6.69975
8.09762
9.84212
11.9432
14.3829
17.1123
20.0562
23.1224
26.2146
29.2428
32.1318
34.8235
37.2776
39.4683
41.3813
43.0099
44.3521
45.4086
46.181
46.6706
46.8774
46.8001
46.4456
45.8235
44.9471
43.8353
42.5145
41.0203
39.3998
37.7124
36.0301
34.4354
33.0161
31.8592
31.0421
30.6252
30.6468
31.1214
32.0414
33.3835
35.1167
37.2133
39.6621
42.4846
45.7575
49.6485
54.4811
60.8642
69.9652
84.0826
107.882
150.748
232.433
394.533
790.717
1380.17
59.4265
61.414
64.4081
68.9204
75.6691
85.5162
99.0567
116.74
138.736
164.827
194.343
226.06
258.52
290.155
319.518
345.479
367.342
384.866
398.202
407.777
414.163
417.964
419.736
419.953
418.993
417.146
414.632
411.621
408.242
404.599
400.773
396.827
392.81
388.755
384.688
380.623
376.569
372.532
368.511
364.508
360.52
356.544
352.578
348.616
344.656
340.691
336.718
332.731
328.726
324.698
320.642
316.554
312.43
308.265
304.055
299.796
295.484
291.115
286.686
282.192
277.63
272.998
268.291
263.507
258.643
253.698
248.668
243.553
238.35
233.06
227.682
222.216
216.663
211.025
205.304
199.504
193.628
187.681
181.668
175.596
169.473
163.307
157.107
150.883
144.648
138.411
132.188
125.99
119.833
113.732
107.701
101.756
95.9131
90.1883
84.5969
79.1542
73.8746
68.7719
63.8588
59.1464
54.6447
50.3617
46.3038
42.4752
38.8783
35.5132
32.3782
29.4695
26.7816
24.3075
22.0385
19.9649
18.0762
16.361
14.8078
13.4048
12.1401
11.0023
9.98035
9.06363
8.24223
7.50693
6.84924
6.26147
5.73671
5.26888
4.85266
4.4836
4.15802
3.87314
3.62711
3.4191
3.24953
3.12028
3.03513
3.00024
3.02494
3.12258
3.31158
3.61646
4.06873
4.70711
5.57666
6.72594
8.20126
10.0379
12.2501
14.822
17.7045
20.8194
24.0697
27.3527
30.5733
33.6518
36.5281
39.1617
41.5282
43.6154
45.4192
46.9403
48.1812
49.1452
49.8347
50.251
50.3922
50.2557
49.8463
49.1706
48.2385
47.0641
45.668
44.0789
42.3358
40.4896
38.6045
36.7572
35.0338
33.5248
32.3171
31.4857
31.0865
31.152
31.6913
32.6939
34.1377
35.999
38.2661
40.9566
44.14
47.9744
52.7731
59.134
68.2151
82.3164
106.11
149.133
230.806
395.298
762.241
1223.96
20.7298
21.1477
21.6021
22.1397
22.842
23.8296
25.249
27.2804
30.1384
34.0645
39.3125
46.2608
55.1807
66.2575
79.5463
94.8984
111.957
130.234
149.123
167.974
186.166
203.175
218.62
232.275
244.066
254.04
262.328
269.11
274.582
278.933
282.334
284.929
286.841
288.167
288.99
289.377
289.386
289.063
288.449
287.58
286.484
285.183
283.699
282.046
280.239
278.287
276.199
273.984
271.647
269.193
266.627
263.952
261.17
258.284
255.296
252.205
249.013
245.721
242.326
238.831
235.234
231.534
227.731
223.825
219.814
215.698
211.477
207.152
202.721
198.186
193.547
188.807
183.968
179.031
174.002
168.884
163.682
158.401
153.05
147.635
142.166
136.651
131.102
125.529
119.945
114.364
108.799
103.264
97.7757
92.3489
86.9998
81.7445
76.5991
71.5794
66.7009
61.9781
57.4248
53.0536
48.8756
44.9001
41.1348
37.5853
34.2552
31.1458
28.2563
25.5839
23.1238
20.8694
18.8125
16.9436
15.2522
13.7272
12.3569
11.1292
10.0325
9.05515
8.18591
7.41423
6.73017
6.12454
5.58892
5.11572
4.69815
4.33024
4.00681
3.72346
3.4766
3.26341
3.08191
2.93101
2.81063
2.72188
2.66734
2.65141
2.68091
2.76577
2.91992
3.16238
3.51839
4.02042
4.70865
5.63034
6.83705
8.37878
10.2948
12.6026
15.2885
18.3035
21.5669
24.977
28.4261
31.8136
35.0559
38.0912
40.8786
43.3956
45.6324
47.5881
49.2662
50.6718
51.8098
52.6841
53.2967
53.6476
53.7333
53.5489
53.0977
52.3837
51.4137
50.1981
48.7526
47.0999
45.2719
43.3113
41.2735
39.2272
37.2534
35.4413
33.8826
32.6628
31.853
31.5037
31.6419
32.2729
33.3864
34.9663
37.0036
39.5138
42.5608
46.2935
51.0121
57.298
66.2844
80.2348
103.73
146.168
225.966
386.122
718.752
1091.25
10.0768
10.1464
10.2143
10.2839
10.3638
10.4673
10.6106
10.8145
11.1057
11.5178
12.0925
12.8866
13.9679
15.4172
17.3275
19.8375
23.1185
27.2915
32.4691
38.7265
46.0849
54.4993
63.855
73.9726
84.623
95.5482
106.485
117.19
127.452
137.111
146.056
154.226
161.603
168.199
174.05
179.205
183.718
187.643
191.031
193.929
196.379
198.416
200.075
201.383
202.366
203.049
203.451
203.592
203.487
203.152
202.599
201.84
200.884
199.741
198.417
196.92
195.255
193.428
191.442
189.303
187.012
184.573
181.989
179.262
176.393
173.386
170.242
166.964
163.553
160.013
156.346
152.556
148.646
144.623
140.489
136.252
131.918
127.494
122.99
118.413
113.774
109.085
104.357
99.6026
94.8358
90.071
85.323
80.6074
75.9403
71.3379
66.8165
62.3924
58.0813
53.8987
49.859
45.9755
42.2603
38.7238
35.3746
32.2194
29.2628
26.5072
23.9525
21.597
19.4364
17.4648
15.6747
14.0572
12.6022
11.299
10.1363
9.10262
8.1866
7.37712
6.6635
6.03569
5.48431
5.00074
4.57718
4.20663
3.88288
3.60052
3.35491
3.14212
2.95897
2.80295
2.67231
2.56603
2.48391
2.42673
2.39635
2.3961
2.43105
2.50867
2.63945
2.83788
3.1235
3.52214
4.06705
4.79955
5.76855
7.02778
8.62986
10.6168
13.0087
15.7933
18.9217
22.3113
25.8571
29.4465
32.9743
36.3536
39.5207
42.4349
45.0755
47.4359
49.5184
51.3298
52.8781
54.1703
55.2116
56.0048
56.5505
56.847
56.8889
56.6686
56.1883
55.4499
54.4574
53.2182
51.7444
50.0537
48.172
46.1343
43.9878
41.7923
39.621
37.5585
35.6962
34.1254
32.929
32.1734
31.9034
32.1418
32.8929
34.1512
35.9135
38.1962
41.0592
44.6428
49.2327
55.3882
64.2043
77.872
100.795
141.984
218.5
369.39
668.06
979.186
6.95323
6.92931
6.90561
6.88234
6.86058
6.84206
6.82889
6.82365
6.8296
6.85085
6.89255
6.96144
7.06586
7.21609
7.42456
7.70765
8.08807
8.60405
9.29197
10.1949
11.3624
12.8494
14.7138
17.0124
19.7961
23.1033
26.9545
31.3475
36.255
41.6246
47.3816
53.4338
59.6787
66.0102
72.3257
78.5318
84.5487
90.3119
95.7729
100.899
105.669
110.074
114.114
117.794
121.121
124.108
126.767
129.109
131.149
132.897
134.366
135.566
136.509
137.203
137.659
137.884
137.886
137.674
137.253
136.63
135.81
134.798
133.6
132.22
130.663
128.931
127.031
124.965
122.738
120.355
117.82
115.139
112.317
109.361
106.278
103.074
99.7588
96.3409
92.8304
89.2378
85.5749
81.8539
78.0882
74.2916
70.479
66.6654
62.8666
59.0987
55.3779
51.7205
48.1422
44.6587
41.2846
38.0337
34.9184
31.9498
29.137
26.4875
24.0065
21.6971
19.5604
17.5951
15.798
14.1642
12.6869
11.3584
10.1695
9.11046
8.17122
7.34141
6.61079
5.96942
5.40783
4.91715
4.48917
4.11643
3.79223
3.51061
3.26635
3.05496
2.8726
2.7161
2.58289
2.471
2.37907
2.30635
2.25275
2.21894
2.20645
2.21792
2.25731
2.33038
2.44517
2.61275
2.84813
3.1714
3.60893
4.19465
4.97072
5.9871
7.2988
8.95981
11.0136
13.4813
16.3518
19.576
23.0703
26.727
30.43
34.0706
37.5585
40.8288
43.8415
46.5776
49.0339
51.2166
53.136
54.8033
56.228
57.4166
58.3729
59.0977
59.5894
59.844
59.8542
59.6104
59.1134
58.363
57.3614
56.1138
54.629
52.9213
51.0112
48.9277
46.71
44.4093
42.09
39.8293
37.7147
35.8384
34.2905
33.1499
32.4779
32.315
32.6818
33.5861
35.0336
37.0445
39.6768
43.0632
47.4747
53.4437
62.0153
75.2777
97.3909
136.781
208.994
347.648
612.725
882.513
5.83047
5.78066
5.73176
5.68374
5.63679
5.59122
5.5474
5.50575
5.46674
5.43094
5.39907
5.37203
5.35099
5.33739
5.33298
5.33998
5.36111
5.40245
5.46962
5.56946
5.71026
5.90197
6.15647
6.4877
6.91188
7.44754
8.11537
8.93789
9.9388
11.1418
12.5694
14.2408
16.1701
18.3649
20.8244
23.539
26.4899
29.6499
32.9848
36.455
40.0176
43.6286
47.2448
50.8255
54.334
57.7376
61.009
64.1256
67.0693
69.8265
72.3868
74.7433
76.8911
78.8274
80.551
82.0617
83.3602
84.4479
85.3267
85.9989
86.4668
86.7334
86.8017
86.6747
86.356
85.849
85.1577
84.286
83.2386
82.0202
80.6361
79.0921
77.3945
75.5504
73.5674
71.4539
69.219
66.8728
64.426
61.89
59.2774
56.6011
53.875
51.1134
48.3313
45.5439
42.7667
40.0152
37.3047
34.6503
32.0662
29.5659
27.1617
24.8646
22.6839
20.6272
18.7002
16.9066
15.2482
13.7247
12.334
11.0725
9.93477
8.91457
8.00455
7.19677
6.48289
5.85451
5.30327
4.82115
4.40051
4.03427
3.71592
3.43961
3.20009
2.99278
2.81369
2.6594
2.52707
2.41434
2.31936
2.24077
2.17765
2.12961
2.09673
2.07974
2.07999
2.09972
2.14219
2.21201
2.31552
2.46138
2.66126
2.93076
3.29053
3.76756
4.39635
5.21964
6.28786
7.6563
9.37897
11.4991
14.0379
16.9837
20.2876
23.8652
27.6076
31.3965
35.1205
38.6874
42.031
45.1122
47.9143
50.4377
52.6926
54.6933
56.4544
57.9881
59.3028
60.4029
61.2897
61.9611
62.4129
62.6389
62.6299
62.3746
61.8723
61.1215
60.1227
58.8793
57.3983
55.6906
53.7731
51.6695
49.4123
47.0446
44.6218
42.2124
39.8971
37.7652
35.9089
34.4157
33.3604
32.7998
32.7719
33.2993
34.3994
36.0988
38.4565
41.5991
45.7825
51.5098
59.7666
72.5142
93.6206
130.796
197.999
323.096
555.155
794.521
5.34937
5.29157
5.23483
5.1791
5.12444
5.0709
5.01856
4.96752
4.91784
4.86961
4.82292
4.77787
4.73463
4.6934
4.65444
4.61808
4.58483
4.55576
4.53189
4.51443
4.5049
4.50512
4.51724
4.54383
4.58786
4.65281
4.74269
4.86214
5.01644
5.21162
5.45444
5.75245
6.1139
6.54763
7.06295
7.66931
8.37599
9.19161
10.1236
11.1777
12.3572
13.6628
15.0919
16.6386
18.2937
20.0447
21.8764
23.7716
25.7111
27.675
29.6427
31.5942
33.5101
35.3721
37.1632
38.8683
40.4738
41.9676
43.3396
44.5809
45.6842
46.6434
47.4539
48.1119
48.6147
48.9606
49.1488
49.1795
49.0537
48.7732
48.3408
47.76
47.0354
46.1723
45.1772
44.0572
42.8205
41.4761
40.0339
38.5047
36.8999
35.2318
33.513
31.7569
29.9769
28.1867
26.4
24.6301
22.8898
21.1916
19.5465
17.9648
16.4554
15.0255
13.681
12.4261
11.263
10.1927
9.21443
8.32612
7.52449
6.80526
6.16343
5.59346
5.08953
4.64569
4.25607
3.91499
3.61711
3.35745
3.13147
2.93509
2.7647
2.61713
2.48966
2.37999
2.2862
2.20678
2.14054
2.08666
2.04469
2.01455
1.99655
1.99147
2.00063
2.02602
2.07044
2.13772
2.23309
2.36352
2.53831
2.76981
3.07431
3.47317
3.99403
4.67193
5.54991
6.67824
8.11143
9.90206
12.0915
14.6989
17.7116
21.08
24.7198
28.5221
32.368
36.1448
39.7592
43.1448
46.2632
49.1006
51.6609
53.9587
56.0126
57.841
59.4589
60.8767
62.1001
63.1302
63.9646
64.5985
65.0249
65.2354
65.2193
64.9638
64.4669
63.7259
62.7405
61.5127
60.0478
58.3548
56.4474
54.3451
52.0748
49.6726
47.1855
44.6727
42.2065
39.87
37.7538
35.9489
34.5398
33.5974
33.176
33.3144
34.0432
35.3982
37.4418
40.2967
44.2045
49.6372
57.5144
69.6538
89.6
124.275
186.035
297.416
497.936
711.302
5.11992
5.05936
4.9999
4.94151
4.88418
4.82792
4.77274
4.71867
4.6657
4.61383
4.56307
4.51341
4.46484
4.41737
4.37102
4.3258
4.28187
4.2394
4.19859
4.15967
4.12293
4.08877
4.05763
4.03007
4.00674
3.98839
3.97591
3.9703
3.97271
3.98442
4.00688
4.04173
4.09076
4.15601
4.23969
4.34428
4.47246
4.62717
4.81156
5.02898
5.28291
5.57691
5.91451
6.29909
6.73376
7.22111
7.76312
8.3609
9.01455
9.72295
10.4837
11.293
12.1456
13.0349
13.9533
14.8917
15.8404
16.7891
17.7268
18.6426
19.5257
20.3653
21.1515
21.8748
22.5265
23.099
23.5856
23.9805
24.2792
24.4782
24.5755
24.5698
24.4613
24.2512
23.942
23.5374
23.0418
22.4611
21.8019
21.0718
20.2791
19.433
18.5428
17.6187
16.6707
15.7091
14.7438
13.7845
12.8402
11.9195
11.0297
10.1774
9.36781
8.6052
7.89251
7.23153
6.62295
6.06645
5.56081
5.10411
4.69382
4.32703
4.00051
3.71093
3.45494
3.22925
3.03073
2.85645
2.70373
2.57013
2.45352
2.352
2.26397
2.18808
2.12323
2.06858
2.02354
1.98774
1.9611
1.94382
1.9364
1.93972
1.95506
1.98428
2.02985
2.09514
2.18456
2.30394
2.46096
2.66565
2.93118
3.2747
3.71841
4.29068
5.02707
5.97058
7.17064
8.67983
10.5477
12.8117
15.4876
18.5601
21.9787
25.6598
29.4955
33.3681
37.1655
40.7945
44.189
47.3122
50.1528
52.7188
55.029
57.1069
58.9748
60.6508
62.1477
63.4721
64.6254
65.605
66.4048
67.0168
67.4317
67.6392
67.6271
67.3817
66.8998
66.178
65.2153
64.013
62.5752
60.9094
59.0269
56.9442
54.6834
52.2746
49.7571
47.1816
44.6108
42.1201
39.7944
37.7247
36.0003
34.7029
33.9011
33.6495
33.9933
34.9794
36.6759
39.2038
42.7922
47.881
55.321
66.7757
85.4508
117.461
173.584
271.793
443.199
632.132
5.00441
4.94275
4.88223
4.8228
4.76444
4.70715
4.65091
4.59572
4.54157
4.48845
4.43633
4.38519
4.33501
4.28577
4.23745
4.19001
4.14352
4.09797
4.0534
4.00982
3.9673
3.92591
3.88573
3.8469
3.80954
3.77384
3.74
3.70828
3.67896
3.65235
3.62883
3.60879
3.59271
3.58106
3.57442
3.57337
3.57858
3.59076
3.61069
3.63919
3.67717
3.7256
3.7855
3.85795
3.9441
4.04512
4.16222
4.29657
4.44934
4.62159
4.81425
5.02807
5.26352
5.52074
5.79949
6.09903
6.41813
6.75494
7.10704
7.47136
7.84425
8.2215
8.59839
8.96981
9.33036
9.67448
9.99657
10.2912
10.5531
10.7776
10.9603
11.0977
11.1869
11.2258
11.2134
11.1494
11.0344
10.87
10.6587
10.4037
10.109
9.77911
9.41923
9.03477
8.63142
8.21492
7.79097
7.36503
6.94224
6.52725
6.1242
5.73657
5.36722
5.01832
4.69138
4.38731
4.10646
3.84867
3.61341
3.39978
3.20668
3.03281
2.8768
2.73724
2.61271
2.50187
2.40346
2.31629
2.23934
2.17169
2.11258
2.06136
2.01757
1.98087
1.9511
1.92827
1.91258
1.90442
1.90446
1.91365
1.93327
1.96506
2.01133
2.07506
2.16015
2.27162
2.41603
2.60183
2.83998
3.14461
3.53391
4.03111
4.66541
5.47276
6.49574
7.78212
9.38122
11.3378
13.6838
16.4294
19.5556
23.0104
26.7113
30.5532
34.4212
38.2055
41.8144
45.1835
48.2776
51.0884
53.6278
55.9193
57.9909
59.8694
61.5764
63.1268
64.5287
65.7839
66.8892
67.8376
68.6196
69.2244
69.6406
69.8561
69.8582
69.6319
69.1736
68.4795
67.548
66.38
64.9791
63.3516
61.5073
59.4598
57.2279
54.8365
52.3184
49.7161
47.0833
44.486
42.0019
39.7174
37.723
36.1069
34.9489
34.3179
34.2738
34.8761
36.2005
38.3687
41.5989
46.3001
53.2532
63.9641
81.2966
110.577
161.073
247.022
392.357
557.789
4.94519
4.88301
4.82198
4.76207
4.70326
4.64552
4.58884
4.53319
4.47857
4.42495
4.37231
4.32063
4.26988
4.22005
4.17109
4.12301
4.07579
4.02941
3.98388
3.93916
3.89527
3.8522
3.80997
3.76858
3.72805
3.68844
3.64976
3.61209
3.57548
3.54001
3.50578
3.4729
3.44147
3.41165
3.38357
3.35741
3.33335
3.31159
3.29234
3.27583
3.2623
3.25203
3.24528
3.24236
3.24358
3.24925
3.25973
3.27535
3.29648
3.32346
3.35667
3.39643
3.44305
3.49683
3.55799
3.62666
3.70292
3.7867
3.8778
3.97585
4.08029
4.19035
4.30504
4.42314
4.54317
4.66346
4.78214
4.89714
5.00632
5.10742
5.19824
5.27662
5.34054
5.38823
5.41818
5.42923
5.42063
5.39206
5.34361
5.27585
5.18977
5.08672
4.96844
4.8369
4.69431
4.54299
4.38533
4.22366
4.06026
3.89722
3.73643
3.57955
3.42797
3.2828
3.14489
3.01484
2.893
2.77952
2.67439
2.57746
2.48844
2.40701
2.33277
2.26532
2.20426
2.1492
2.09979
2.05575
2.01683
1.98289
1.95385
1.92973
1.91066
1.8969
1.88884
1.88704
1.89226
1.9055
1.92806
1.96162
2.00833
2.07092
2.15291
2.2588
2.39433
2.56687
2.78584
3.06327
3.41452
3.85903
4.42119
5.13112
6.02494
7.14425
8.53413
10.2392
12.2976
14.7337
17.5506
20.7243
24.2012
27.9002
31.7202
35.551
39.287
42.84
46.1478
49.178
51.9251
54.4049
56.6456
58.6802
60.5397
62.2494
63.827
65.2818
66.6163
67.8267
68.905
69.8401
70.6196
71.2302
71.6586
71.8919
71.9167
71.7176
71.2905
70.6314
69.7388
68.6134
67.2583
65.6792
63.8848
61.8867
59.7008
57.348
54.8554
52.2583
49.6019
46.9427
44.3495
41.9018
39.6873
37.7963
36.3162
35.3277
34.9044
35.1186
36.0555
37.8393
40.6794
44.9561
51.3814
61.306
77.2598
103.828
148.868
223.628
346.165
489.322
4.91497
4.8525
4.7912
4.73104
4.67199
4.61402
4.55712
4.50126
4.44642
4.39258
4.33972
4.28782
4.23685
4.18678
4.1376
4.0893
4.04184
3.99521
3.94939
3.90437
3.86012
3.81664
3.77391
3.73191
3.69066
3.65013
3.61034
3.57128
3.53296
3.4954
3.4586
3.4226
3.38742
3.35309
3.31965
3.28714
3.25561
3.22512
3.19572
3.16749
3.14049
3.11479
3.09049
3.06767
3.04641
3.02683
3.009
2.99305
2.97908
2.96718
2.95748
2.95008
2.94507
2.94257
2.94265
2.94539
2.95084
2.95903
2.96997
2.98362
2.99989
3.01866
3.03973
3.06284
3.08768
3.11382
3.14081
3.16807
3.195
3.2209
3.24505
3.26669
3.28507
3.29944
3.3091
3.31344
3.31193
3.30415
3.28986
3.26893
3.24142
3.20752
3.16761
3.12217
3.07182
3.01724
2.95922
2.89854
2.836
2.7724
2.70847
2.64488
2.58224
2.52106
2.46179
2.40475
2.35021
2.29837
2.24934
2.20319
2.15997
2.11968
2.08231
2.04786
2.01633
1.98775
1.96219
1.93974
1.92057
1.9049
1.89305
1.88543
1.88254
1.88506
1.89381
1.90982
1.93441
1.9692
2.01623
2.07808
2.15798
2.26005
2.38948
2.55286
2.75855
3.01714
3.34199
3.7499
4.2618
4.90341
5.70564
6.70444
7.93964
9.45234
11.2807
13.4545
15.9887
18.8779
22.0922
25.576
29.2505
33.0195
36.7794
40.431
43.8909
47.1008
50.0312
52.6801
55.067
57.2248
59.191
61.0014
62.6852
64.2626
65.7449
67.1349
68.4287
69.6169
70.6872
71.625
72.4151
73.0424
73.4924
73.7514
73.8059
73.6409
73.2515
72.6341
71.7873
70.7119
69.411
67.8899
66.1562
64.2205
62.0962
59.801
57.3572
54.7941
52.1488
49.469
46.8137
44.2542
41.8719
39.7555
37.9961
36.6826
35.9002
35.7336
36.2781
37.6622
40.0891
43.9125
49.7791
58.8906
73.46
97.3929
137.265
201.956
304.89
427.509
4.89986
4.83721
4.77575
4.71544
4.65625
4.59816
4.54114
4.48517
4.43022
4.37628
4.32331
4.27131
4.22024
4.17008
4.12081
4.07241
4.02487
3.97815
3.93224
3.88712
3.84278
3.79918
3.75633
3.71419
3.67277
3.63204
3.59199
3.55262
3.51392
3.47587
3.43848
3.40174
3.36566
3.33023
3.29545
3.26134
3.2279
3.19515
3.16308
3.13173
3.10111
3.07122
3.04211
3.01379
2.98628
2.95962
2.93382
2.90893
2.88498
2.86198
2.83999
2.81902
2.79912
2.78031
2.76262
2.74608
2.73071
2.71653
2.70354
2.69175
2.68114
2.67168
2.66334
2.65606
2.64976
2.64433
2.63966
2.63559
2.63195
2.62855
2.62517
2.62157
2.61752
2.61275
2.60702
2.6001
2.59174
2.58176
2.57
2.55633
2.54068
2.52303
2.50341
2.48188
2.45857
2.43366
2.40733
2.37981
2.35135
2.32218
2.29257
2.26274
2.23294
2.20336
2.1742
2.14562
2.1178
2.09084
2.06489
2.04006
2.01645
1.99421
1.97345
1.95434
1.93706
1.92184
1.90895
1.89871
1.89154
1.88791
1.88843
1.89381
1.90492
1.92282
1.94882
1.98451
2.03187
2.09335
2.17199
2.27164
2.3971
2.55441
2.7512
2.99702
3.30389
3.68676
4.16416
4.75868
5.4974
6.41181
7.53704
8.91
10.5662
12.5357
14.8377
17.4765
20.4369
23.6828
27.1568
30.7826
34.4707
38.1254
41.6555
44.9846
48.0592
50.8537
53.3697
55.6303
57.6729
59.5396
61.2709
62.8997
64.4494
65.933
67.354
68.7083
69.9856
71.1718
72.2504
73.204
74.0154
74.668
75.1469
75.438
75.5282
75.4027
75.0567
74.4868
73.6921
72.6737
71.4348
69.9806
68.3182
66.457
64.4089
62.1887
59.8151
57.3118
54.7094
52.047
49.3742
46.7527
44.2559
41.9676
39.9784
38.3818
37.2716
36.7434
36.9024
37.8826
39.8829
43.2339
48.5213
56.8079
70.0125
91.432
126.505
182.23
268.499
372.698
4.8925
4.82975
4.76819
4.7078
4.64853
4.59037
4.53329
4.47726
4.42225
4.36826
4.31524
4.26319
4.21207
4.16187
4.11256
4.06413
4.01654
3.96979
3.92385
3.8787
3.83432
3.79069
3.74781
3.70564
3.66418
3.62341
3.58331
3.54388
3.5051
3.46695
3.42944
3.39254
3.35626
3.32057
3.28549
3.25099
3.21709
3.18376
3.15102
3.11885
3.08727
3.05626
3.02584
2.996
2.96675
2.93809
2.91003
2.88257
2.85572
2.82948
2.80387
2.77889
2.75455
2.73085
2.70781
2.68543
2.66372
2.64268
2.62231
2.60263
2.58361
2.56527
2.54759
2.53055
2.51414
2.49833
2.48308
2.46837
2.45413
2.44031
2.42685
2.41367
2.40071
2.38787
2.37508
2.36224
2.34928
2.3361
2.32265
2.30884
2.29464
2.28
2.2649
2.24932
2.23327
2.21677
2.19987
2.18259
2.16501
2.14717
2.12917
2.11106
2.09294
2.07488
2.05698
2.03931
2.02198
2.0051
1.98879
1.97318
1.95842
1.94471
1.93226
1.92133
1.91223
1.90534
1.90108
1.9
1.90271
1.90996
1.92265
1.94186
1.9689
2.00533
2.0531
2.11457
2.19267
2.29105
2.41423
2.56789
2.75911
2.99677
3.29189
3.6582
4.11255
4.67541
5.37116
6.2281
7.27777
8.55345
10.0876
11.9084
14.0356
16.4765
19.2231
22.2505
25.516
28.9609
32.5126
36.0886
39.6031
42.9745
46.1347
49.0366
51.6592
54.0078
56.1093
58.005
59.7418
61.3642
62.9093
64.4035
65.8619
67.289
68.6803
70.0249
71.3068
72.5077
73.6078
74.5876
75.4283
76.1129
76.626
76.954
77.0842
77.0028
76.7048
76.1876
75.4508
74.496
73.3266
71.948
70.3669
68.5921
66.634
64.5053
62.2216
59.8023
57.2718
54.6619
52.0133
49.3778
46.8195
44.415
42.2508
40.4211
39.0248
38.1659
37.9586
38.5428
40.1148
42.9852
47.6845
55.1487
67.029
86.0868
116.772
164.589
236.791
324.844
4.88901
4.82621
4.7646
4.70416
4.64485
4.58666
4.52954
4.47348
4.41845
4.36442
4.31139
4.25931
4.20817
4.15795
4.10863
4.06017
4.01257
3.96581
3.91985
3.87469
3.8303
3.78666
3.74377
3.70159
3.66013
3.61935
3.57924
3.5398
3.50101
3.46285
3.42532
3.38839
3.35207
3.31634
3.28119
3.24661
3.2126
3.17914
3.14623
3.11387
3.08204
3.05074
3.01998
2.98973
2.96
2.93079
2.90209
2.87389
2.84621
2.81903
2.79235
2.76618
2.74051
2.71534
2.69067
2.66651
2.64284
2.61967
2.597
2.57483
2.55316
2.53198
2.51129
2.49109
2.47137
2.45213
2.43335
2.41503
2.39715
2.37969
2.36264
2.34597
2.32967
2.31369
2.29803
2.28263
2.26748
2.25255
2.23779
2.22318
2.20868
2.19428
2.17995
2.16567
2.15142
2.13719
2.12298
2.10879
2.09461
2.08048
2.06639
2.05239
2.0385
2.02478
2.01128