/*--------------------------------*- C++ -*----------------------------------*\
| =========                 |                                                 |
| \\      /  F ield         | OpenFOAM: The Open Source CFD Toolbox           |
|  \\    /   O peration     | Version:  2.4.0                                 |
|   \\  /    A nd           | Web:      www.OpenFOAM.org                      |
|    \\/     M anipulation  |                                                 |
\*---------------------------------------------------------------------------*/
FoamFile
{
    version     2.0;
    format      ascii;
    class       volVectorField;
    location    "0.172803";
    object      U;
}
// * * * * * * * * * * * * * * * * * * * * * * * * * * * * * * * * * * * * * //

dimensions      [0 1 -1 0 0 0 0];

internalField   nonuniform List<vector> 
17600
(
(9.843 -0.18696 0)
(9.53021 -0.133078 0)
(9.21416 -0.0669225 0)
(8.9107 -0.0262398 0)
(8.63687 -0.00505462 0)
(8.39919 0.00446608 0)
(8.19704 0.00781508 0)
(8.02731 0.00809644 0)
(7.886 0.00698929 0)
(7.76866 0.0054488 0)
(7.67089 0.00396769 0)
(7.58868 0.00276086 0)
(7.51857 0.0018893 0)
(7.45772 0.00133372 0)
(7.40381 0.00103981 0)
(7.35512 0.000949334 0)
(7.30974 0.000978815 0)
(7.26748 0.00152382 0)
(7.21907 0.000250909 0)
(7.18762 0.0193643 0)
(10.0568 0.104712 0)
(10.1493 0.134353 0)
(10.1837 0.103765 0)
(10.1747 0.0771181 0)
(10.1353 0.0592819 0)
(10.0718 0.0471136 0)
(9.98917 0.0385768 0)
(9.89335 0.0323283 0)
(9.78961 0.0275341 0)
(9.68218 0.0237577 0)
(9.57429 0.0207253 0)
(9.46839 0.0182483 0)
(9.36626 0.0161954 0)
(9.26918 0.0144758 0)
(9.17786 0.0130262 0)
(9.09275 0.0118196 0)
(9.01315 0.0108245 0)
(8.94143 0.0103881 0)
(8.86582 0.0101014 0)
(8.83792 0.0208163 0)
(10.0096 0.0171415 0)
(10.0498 0.00854789 0)
(10.0889 0.0109111 0)
(10.1182 0.0211019 0)
(10.1396 0.0286159 0)
(10.153 0.0319681 0)
(10.1575 0.0327427 0)
(10.153 0.0321877 0)
(10.1403 0.0309713 0)
(10.1201 0.0294562 0)
(10.0931 0.0278363 0)
(10.06 0.0262175 0)
(10.0215 0.0246576 0)
(9.9784 0.0231871 0)
(9.9315 0.0218156 0)
(9.88167 0.0205884 0)
(9.82927 0.0194212 0)
(9.77613 0.0191007 0)
(9.71884 0.0179947 0)
(9.67149 0.0287941 0)
(10.0045 0.0149511 0)
(10.0285 0.0283866 0)
(10.0553 0.0336318 0)
(10.0785 0.0361076 0)
(10.1002 0.0365054 0)
(10.1206 0.0355693 0)
(10.1384 0.0341787 0)
(10.1527 0.03273 0)
(10.1636 0.0313198 0)
(10.1711 0.029979 0)
(10.1755 0.0287366 0)
(10.1766 0.0276085 0)
(10.1747 0.026592 0)
(10.1697 0.0256749 0)
(10.1617 0.0248377 0)
(10.1509 0.0241075 0)
(10.1368 0.0234184 0)
(10.1204 0.0234813 0)
(10.0994 0.0232069 0)
(10.0821 0.0316836 0)
(10.0035 0.0139902 0)
(10.0226 0.0275946 0)
(10.0443 0.0298974 0)
(10.0635 0.0311321 0)
(10.0827 0.0320654 0)
(10.1023 0.0319963 0)
(10.1209 0.0312905 0)
(10.138 0.0303514 0)
(10.1533 0.0293413 0)
(10.167 0.0283358 0)
(10.1791 0.0273926 0)
(10.1896 0.0265422 0)
(10.1984 0.0257902 0)
(10.2057 0.0251317 0)
(10.2115 0.024555 0)
(10.2158 0.0240955 0)
(10.2183 0.0237065 0)
(10.2197 0.0240495 0)
(10.2181 0.0243164 0)
(10.2209 0.0310507 0)
(10.0031 0.0129489 0)
(10.0198 0.0253984 0)
(10.0393 0.0271194 0)
(10.0568 0.0284241 0)
(10.0743 0.0296384 0)
(10.0927 0.0297448 0)
(10.1107 0.0291494 0)
(10.1278 0.02833 0)
(10.1439 0.0274564 0)
(10.159 0.0265937 0)
(10.1732 0.0257929 0)
(10.1863 0.0250811 0)
(10.1986 0.0244629 0)
(10.2099 0.0239352 0)
(10.2203 0.0234885 0)
(10.2298 0.023163 0)
(10.2382 0.0229226 0)
(10.2462 0.023383 0)
(10.2523 0.0238752 0)
(10.2626 0.0292881 0)
(10.0027 0.0114966 0)
(10.0178 0.0229033 0)
(10.0363 0.0248229 0)
(10.053 0.0262102 0)
(10.0697 0.027436 0)
(10.0872 0.0275598 0)
(10.1045 0.027012 0)
(10.1212 0.026273 0)
(10.1372 0.0254951 0)
(10.1525 0.0247311 0)
(10.1672 0.0240276 0)
(10.1812 0.0234103 0)
(10.1946 0.0228834 0)
(10.2074 0.0224448 0)
(10.2195 0.0220865 0)
(10.2311 0.0218512 0)
(10.242 0.0217099 0)
(10.2526 0.0222287 0)
(10.2621 0.0228268 0)
(10.2752 0.0272053 0)
(10.0023 0.0101213 0)
(10.0162 0.0207641 0)
(10.034 0.0228953 0)
(10.0504 0.0241927 0)
(10.0667 0.0253193 0)
(10.0836 0.0254373 0)
(10.1005 0.0249292 0)
(10.1168 0.0242522 0)
(10.1326 0.023545 0)
(10.1478 0.0228529 0)
(10.1625 0.0222197 0)
(10.1767 0.0216701 0)
(10.1905 0.021208 0)
(10.2038 0.0208321 0)
(10.2166 0.0205356 0)
(10.2291 0.0203633 0)
(10.241 0.0202914 0)
(10.2529 0.0208349 0)
(10.264 0.0214769 0)
(10.2783 0.0250177 0)
(10.0021 0.00890338 0)
(10.0149 0.0187951 0)
(10.032 0.0210019 0)
(10.0483 0.0221724 0)
(10.0644 0.023213 0)
(10.081 0.0233452 0)
(10.0976 0.0228838 0)
(10.1137 0.0222646 0)
(10.1292 0.0216192 0)
(10.1443 0.0209878 0)
(10.1589 0.0204121 0)
(10.1731 0.019916 0)
(10.1869 0.0195036 0)
(10.2004 0.0191745 0)
(10.2135 0.0189238 0)
(10.2263 0.0187971 0)
(10.2388 0.0187748 0)
(10.2512 0.0193211 0)
(10.2632 0.0199685 0)
(10.278 0.0228249 0)
(10.0018 0.0078154 0)
(10.0138 0.0169074 0)
(10.0304 0.019106 0)
(10.0465 0.0201659 0)
(10.0625 0.0211319 0)
(10.0789 0.0212797 0)
(10.0954 0.0208648 0)
(10.1113 0.0203015 0)
(10.1267 0.0197149 0)
(10.1416 0.0191401 0)
(10.1561 0.0186163 0)
(10.1703 0.0181671 0)
(10.184 0.0177965 0)
(10.1975 0.0175056 0)
(10.2107 0.0172912 0)
(10.2237 0.017199 0)
(10.2363 0.0172132 0)
(10.2491 0.0177481 0)
(10.2615 0.0183773 0)
(10.2764 0.0206718 0)
(10.0017 0.00682772 0)
(10.0128 0.0150837 0)
(10.0289 0.0172223 0)
(10.045 0.0181839 0)
(10.0608 0.0190721 0)
(10.0772 0.019229 0)
(10.0935 0.0188597 0)
(10.1094 0.0183524 0)
(10.1247 0.0178242 0)
(10.1395 0.0173051 0)
(10.154 0.0168317 0)
(10.168 0.0164266 0)
(10.1818 0.0160944 0)
(10.1952 0.0158375 0)
(10.2084 0.0156541 0)
(10.2214 0.0155898 0)
(10.2341 0.0156319 0)
(10.247 0.0161466 0)
(10.2597 0.0167437 0)
(10.2745 0.0185746 0)
(10.0015 0.0059218 0)
(10.012 0.0133223 0)
(10.0277 0.0153574 0)
(10.0436 0.0162235 0)
(10.0594 0.0170277 0)
(10.0757 0.0171868 0)
(10.092 0.0168623 0)
(10.1078 0.016411 0)
(10.123 0.0159411 0)
(10.1378 0.0154778 0)
(10.1522 0.0150546 0)
(10.1662 0.0146931 0)
(10.1799 0.0143981 0)
(10.1933 0.0141732 0)
(10.2065 0.0140183 0)
(10.2195 0.013978 0)
(10.2323 0.0140423 0)
(10.2451 0.0145318 0)
(10.258 0.0150892 0)
(10.2726 0.0165364 0)
(10.0014 0.00508414 0)
(10.0113 0.011619 0)
(10.0266 0.0135098 0)
(10.0425 0.0142797 0)
(10.0582 0.0149954 0)
(10.0744 0.0151509 0)
(10.0906 0.0148699 0)
(10.1064 0.0144741 0)
(10.1216 0.0140621 0)
(10.1364 0.0136547 0)
(10.1508 0.0132819 0)
(10.1648 0.0129641 0)
(10.1784 0.0127063 0)
(10.1918 0.0125128 0)
(10.205 0.012385 0)
(10.2179 0.0123664 0)
(10.2307 0.0124491 0)
(10.2436 0.0129113 0)
(10.2565 0.0134254 0)
(10.271 0.0145548 0)
(10.0013 0.00430322 0)
(10.0107 0.00996693 0)
(10.0256 0.0116771 0)
(10.0415 0.0123496 0)
(10.0572 0.0129737 0)
(10.0733 0.0131203 0)
(10.0895 0.0128812 0)
(10.1052 0.0125402 0)
(10.1205 0.0121853 0)
(10.1352 0.0118337 0)
(10.1496 0.0115117 0)
(10.1635 0.0112378 0)
(10.1772 0.0110171 0)
(10.1906 0.0108549 0)
(10.2037 0.0107538 0)
(10.2167 0.0107554 0)
(10.2295 0.0108539 0)
(10.2423 0.0112884 0)
(10.2553 0.0117583 0)
(10.2696 0.0126249 0)
(10.0012 0.00356883 0)
(10.0102 0.00835919 0)
(10.0249 0.00985762 0)
(10.0406 0.0104309 0)
(10.0563 0.0109616 0)
(10.0723 0.0110942 0)
(10.0885 0.0108953 0)
(10.1043 0.0106083 0)
(10.1195 0.0103099 0)
(10.1342 0.0100137 0)
(10.1486 0.0097425 0)
(10.1625 0.00951273 0)
(10.1762 0.00932938 0)
(10.1895 0.00919839 0)
(10.2027 0.00912361 0)
(10.2156 0.00914468 0)
(10.2284 0.00925718 0)
(10.2413 0.00966462 0)
(10.2543 0.0100912 0)
(10.2684 0.0107407 0)
(10.0011 0.00287196 0)
(10.0098 0.00678878 0)
(10.0243 0.00804942 0)
(10.0399 0.0085218 0)
(10.0556 0.00895749 0)
(10.0716 0.00907199 0)
(10.0877 0.00891163 0)
(10.1035 0.00867799 0)
(10.1187 0.00843533 0)
(10.1334 0.00819431 0)
(10.1478 0.00797387 0)
(10.1617 0.00778825 0)
(10.1754 0.0076423 0)
(10.1887 0.00754252 0)
(10.2018 0.00749381 0)
(10.2148 0.00753364 0)
(10.2276 0.00765872 0)
(10.2405 0.00804057 0)
(10.2535 0.00842594 0)
(10.2675 0.00889678 0)
(10.0011 0.00220455 0)
(10.0095 0.0052488 0)
(10.0238 0.00625067 0)
(10.0394 0.00662034 0)
(10.055 0.00696009 0)
(10.071 0.0070529 0)
(10.0871 0.00692979 0)
(10.1028 0.00674894 0)
(10.118 0.00656138 0)
(10.1328 0.00637519 0)
(10.1471 0.00620544 0)
(10.1611 0.00606396 0)
(10.1747 0.00595541 0)
(10.1881 0.00588675 0)
(10.2012 0.00586383 0)
(10.2142 0.00592188 0)
(10.227 0.00605846 0)
(10.2399 0.00641658 0)
(10.2529 0.00676344 0)
(10.2667 0.00708796 0)
(10.001 0.0015593 0)
(10.0093 0.0037324 0)
(10.0234 0.00445939 0)
(10.039 0.00472475 0)
(10.0546 0.0049679 0)
(10.0705 0.00503628 0)
(10.0866 0.00494933 0)
(10.1024 0.00482082 0)
(10.1176 0.00468786 0)
(10.1323 0.00455623 0)
(10.1466 0.00443708 0)
(10.1606 0.00433968 0)
(10.1742 0.00426846 0)
(10.1876 0.00423081 0)
(10.2007 0.00423338 0)
(10.2137 0.00430917 0)
(10.2265 0.0044564 0)
(10.2394 0.00479285 0)
(10.2524 0.00510439 0)
(10.2661 0.00530985 0)
(10.001 0.000929507 0)
(10.0092 0.00223278 0)
(10.0232 0.00267351 0)
(10.0387 0.0028333 0)
(10.0543 0.00297944 0)
(10.0702 0.00302142 0)
(10.0863 0.00296985 0)
(10.102 0.00289337 0)
(10.1172 0.00281464 0)
(10.132 0.00273735 0)
(10.1463 0.00266871 0)
(10.1603 0.00261532 0)
(10.1739 0.00258134 0)
(10.1873 0.00257453 0)
(10.2004 0.00260228 0)
(10.2134 0.00269542 0)
(10.2262 0.00285262 0)
(10.2391 0.00316962 0)
(10.2521 0.00344923 0)
(10.2657 0.00355866 0)
(10.001 0.000308844 0)
(10.0091 0.000743193 0)
(10.023 0.000890899 0)
(10.0386 0.000944336 0)
(10.0542 0.000993226 0)
(10.0701 0.00100761 0)
(10.0862 0.000990948 0)
(10.1019 0.000966313 0)
(10.1171 0.000941583 0)
(10.1318 0.000918484 0)
(10.1462 0.000900284 0)
(10.1601 0.000890841 0)
(10.1738 0.000893998 0)
(10.1871 0.000917853 0)
(10.2003 0.000970456 0)
(10.2133 0.00108059 0)
(10.2261 0.00124725 0)
(10.239 0.00154706 0)
(10.252 0.00179829 0)
(10.2655 0.00183121 0)
(10.001 -0.000308792 0)
(10.0091 -0.000743052 0)
(10.023 -0.00089061 0)
(10.0386 -0.000943795 0)
(10.0542 -0.000992242 0)
(10.0701 -0.00100584 0)
(10.0862 -0.000987769 0)
(10.1019 -0.000960627 0)
(10.1171 -0.000931442 0)
(10.1318 -0.000900408 0)
(10.1462 -0.000868218 0)
(10.1601 -0.000833789 0)
(10.1738 -0.000793609 0)
(10.1871 -0.000739274 0)
(10.2003 -0.000662125 0)
(10.2133 -0.000535297 0)
(10.2261 -0.000359534 0)
(10.239 -7.46601e-05 0)
(10.252 0.000151752 0)
(10.2654 0.000124767 0)
(10.001 -0.000929456 0)
(10.0092 -0.00223264 0)
(10.0232 -0.00267322 0)
(10.0387 -0.00283276 0)
(10.0543 -0.00297846 0)
(10.0702 -0.00301965 0)
(10.0863 -0.00296669 0)
(10.102 -0.00288772 0)
(10.1172 -0.00280456 0)
(10.132 -0.00271937 0)
(10.1463 -0.00263682 0)
(10.1603 -0.00255858 0)
(10.1739 -0.0024815 0)
(10.1873 -0.00239688 0)
(10.2005 -0.00229549 0)
(10.2134 -0.00215223 0)
(10.2263 -0.0019676 0)
(10.2392 -0.00169543 0)
(10.2522 -0.00149031 0)
(10.2655 -0.00156303 0)
(10.001 -0.00155925 0)
(10.0093 -0.00373226 0)
(10.0234 -0.0044591 0)
(10.039 -0.00472422 0)
(10.0546 -0.00496693 0)
(10.0705 -0.00503453 0)
(10.0866 -0.00494621 0)
(10.1024 -0.00481523 0)
(10.1176 -0.00467789 0)
(10.1323 -0.00453846 0)
(10.1466 -0.00440555 0)
(10.1606 -0.00428357 0)
(10.1743 -0.00416971 0)
(10.1876 -0.004055 0)
(10.2008 -0.00392968 0)
(10.2138 -0.00377021 0)
(10.2267 -0.00357686 0)
(10.2396 -0.00331522 0)
(10.2526 -0.00312794 0)
(10.2658 -0.00323428 0)
(10.0011 -0.0022045 0)
(10.0096 -0.00524866 0)
(10.0238 -0.00625039 0)
(10.0394 -0.00661982 0)
(10.055 -0.00695914 0)
(10.071 -0.00705119 0)
(10.0871 -0.00692672 0)
(10.1028 -0.00674344 0)
(10.118 -0.00655158 0)
(10.1328 -0.00635772 0)
(10.1471 -0.00617444 0)
(10.1611 -0.00600878 0)
(10.1747 -0.00585828 0)
(10.1881 -0.00571371 0)
(10.2013 -0.00556477 0)
(10.2143 -0.00538929 0)
(10.2272 -0.00518727 0)
(10.2401 -0.00493409 0)
(10.2531 -0.00476132 0)
(10.2662 -0.00489088 0)
(10.0011 -0.00287192 0)
(10.0098 -0.00678865 0)
(10.0243 -0.00804914 0)
(10.0399 -0.00852129 0)
(10.0556 -0.00895656 0)
(10.0716 -0.00907032 0)
(10.0877 -0.00890863 0)
(10.1035 -0.00867263 0)
(10.1187 -0.00842576 0)
(10.1334 -0.00817724 0)
(10.1478 -0.00794357 0)
(10.1617 -0.00773431 0)
(10.1754 -0.00754733 0)
(10.1888 -0.00737315 0)
(10.2019 -0.00720091 0)
(10.215 -0.00700962 0)
(10.2279 -0.00679893 0)
(10.2408 -0.00655223 0)
(10.2537 -0.00639076 0)
(10.2668 -0.00653457 0)
(10.0012 -0.00356879 0)
(10.0102 -0.00835907 0)
(10.0249 -0.00985735 0)
(10.0406 -0.0104304 0)
(10.0563 -0.0109607 0)
(10.0723 -0.0110926 0)
(10.0885 -0.0108924 0)
(10.1043 -0.0106031 0)
(10.1195 -0.0103006 0)
(10.1342 -0.00999714 0)
(10.1486 -0.00971308 0)
(10.1626 -0.00946032 0)
(10.1762 -0.00923709 0)
(10.1896 -0.00903358 0)
(10.2028 -0.0088384 0)
(10.2158 -0.00863148 0)
(10.2288 -0.00841205 0)
(10.2417 -0.00816993 0)
(10.2546 -0.00801668 0)
(10.2676 -0.00816693 0)
(10.0013 -0.00430317 0)
(10.0107 -0.0099668 0)
(10.0256 -0.0116769 0)
(10.0415 -0.0123491 0)
(10.0572 -0.0129729 0)
(10.0733 -0.0131187 0)
(10.0895 -0.0128784 0)
(10.1052 -0.0125352 0)
(10.1205 -0.0121764 0)
(10.1352 -0.0118177 0)
(10.1496 -0.0114833 0)
(10.1636 -0.0111872 0)
(10.1772 -0.010928 0)
(10.1906 -0.0106955 0)
(10.2038 -0.0104777 0)
(10.2169 -0.0102554 0)
(10.2298 -0.010027 0)
(10.2428 -0.00978758 0)
(10.2557 -0.00963949 0)
(10.2687 -0.0097893 0)
(10.0014 -0.0050841 0)
(10.0113 -0.0116188 0)
(10.0266 -0.0135095 0)
(10.0425 -0.0142793 0)
(10.0582 -0.0149945 0)
(10.0744 -0.0151494 0)
(10.0906 -0.0148673 0)
(10.1064 -0.0144693 0)
(10.1216 -0.0140535 0)
(10.1364 -0.0136394 0)
(10.1508 -0.0132547 0)
(10.1648 -0.0129157 0)
(10.1785 -0.0126208 0)
(10.1919 -0.0123597 0)
(10.2051 -0.0121197 0)
(10.2182 -0.0118819 0)
(10.2312 -0.0116442 0)
(10.2441 -0.0114054 0)
(10.257 -0.0112593 0)
(10.2699 -0.0114024 0)
(10.0015 -0.00592176 0)
(10.012 -0.0133222 0)
(10.0277 -0.0153571 0)
(10.0436 -0.016223 0)
(10.0594 -0.0170269 0)
(10.0757 -0.0171854 0)
(10.092 -0.0168598 0)
(10.1078 -0.0164064 0)
(10.123 -0.015933 0)
(10.1378 -0.0154633 0)
(10.1522 -0.0150287 0)
(10.1663 -0.014647 0)
(10.18 -0.0143168 0)
(10.1934 -0.0140273 0)
(10.2067 -0.0137651 0)
(10.2198 -0.0135115 0)
(10.2328 -0.0132636 0)
(10.2457 -0.0130231 0)
(10.2586 -0.0128753 0)
(10.2715 -0.0130057 0)
(10.0017 -0.00682768 0)
(10.0128 -0.0150836 0)
(10.0289 -0.0172221 0)
(10.045 -0.0181835 0)
(10.0608 -0.0190714 0)
(10.0772 -0.0192277 0)
(10.0935 -0.0188573 0)
(10.1094 -0.0183481 0)
(10.1247 -0.0178165 0)
(10.1396 -0.0172914 0)
(10.154 -0.0168073 0)
(10.1681 -0.0163831 0)
(10.1818 -0.0160177 0)
(10.1953 -0.0156995 0)
(10.2086 -0.0154144 0)
(10.2217 -0.0151439 0)
(10.2347 -0.0148841 0)
(10.2476 -0.0146385 0)
(10.2605 -0.0144846 0)
(10.2732 -0.0145959 0)
(10.0018 -0.00781536 0)
(10.0138 -0.0169073 0)
(10.0304 -0.0191058 0)
(10.0465 -0.0201655 0)
(10.0625 -0.0211312 0)
(10.0789 -0.0212784 0)
(10.0954 -0.0208626 0)
(10.1113 -0.0202975 0)
(10.1267 -0.0197078 0)
(10.1416 -0.0191273 0)
(10.1562 -0.0185936 0)
(10.1703 -0.0181265 0)
(10.1841 -0.0177247 0)
(10.1977 -0.0173764 0)
(10.211 -0.0170664 0)
(10.2241 -0.0167763 0)
(10.237 -0.0165011 0)
(10.2498 -0.0162457 0)
(10.2625 -0.0160797 0)
(10.275 -0.0161651 0)
(10.0021 -0.00890335 0)
(10.0149 -0.018795 0)
(10.032 -0.0210017 0)
(10.0483 -0.0221721 0)
(10.0644 -0.0232124 0)
(10.081 -0.0233441 0)
(10.0976 -0.0228818 0)
(10.1137 -0.0222609 0)
(10.1292 -0.0216126 0)
(10.1443 -0.020976 0)
(10.1589 -0.0203911 0)
(10.1731 -0.0198785 0)
(10.187 -0.0194373 0)
(10.2005 -0.0190548 0)
(10.2137 -0.0187153 0)
(10.2267 -0.0184002 0)
(10.2395 -0.0181037 0)
(10.2521 -0.0178314 0)
(10.2645 -0.0176449 0)
(10.2766 -0.0176958 0)
(10.0023 -0.0101213 0)
(10.0162 -0.020764 0)
(10.034 -0.0228952 0)
(10.0504 -0.0241924 0)
(10.0667 -0.0253187 0)
(10.0836 -0.0254362 0)
(10.1005 -0.0249273 0)
(10.1168 -0.0242489 0)
(10.1326 -0.023539 0)
(10.1478 -0.0228422 0)
(10.1625 -0.0222006 0)
(10.1768 -0.0216359 0)
(10.1905 -0.0211474 0)
(10.2039 -0.0207225 0)
(10.2169 -0.0203445 0)
(10.2295 -0.0199952 0)
(10.2418 -0.0196673 0)
(10.2538 -0.0193671 0)
(10.2656 -0.0191481 0)
(10.2769 -0.0191531 0)
(10.0027 -0.0114966 0)
(10.0178 -0.0229032 0)
(10.0363 -0.0248227 0)
(10.053 -0.0262099 0)
(10.0697 -0.0274355 0)
(10.0872 -0.0275589 0)
(10.1045 -0.0270103 0)
(10.1212 -0.0262701 0)
(10.1372 -0.0254897 0)
(10.1526 -0.0247215 0)
(10.1672 -0.0240104 0)
(10.1813 -0.0233795 0)
(10.1947 -0.0228289 0)
(10.2075 -0.0223459 0)
(10.2198 -0.0219139 0)
(10.2316 -0.0215143 0)
(10.2429 -0.0211391 0)
(10.2537 -0.0207944 0)
(10.264 -0.0205255 0)
(10.2737 -0.0204689 0)
(10.0031 -0.0129488 0)
(10.0198 -0.0253984 0)
(10.0393 -0.0271193 0)
(10.0568 -0.0284239 0)
(10.0743 -0.029638 0)
(10.0927 -0.029744 0)
(10.1107 -0.029148 0)
(10.1278 -0.0283274 0)
(10.1439 -0.0274517 0)
(10.159 -0.0265853 0)
(10.1732 -0.0257778 0)
(10.1864 -0.025054 0)
(10.1987 -0.0244147 0)
(10.21 -0.0238476 0)
(10.2205 -0.0233354 0)
(10.2302 -0.02286 0)
(10.2392 -0.0224117 0)
(10.2473 -0.0219969 0)
(10.2546 -0.0216515 0)
(10.261 -0.0215137 0)
(10.0035 -0.0139902 0)
(10.0226 -0.0275945 0)
(10.0443 -0.0298973 0)
(10.0635 -0.0311319 0)
(10.0827 -0.032065 0)
(10.1023 -0.0319956 0)
(10.1209 -0.0312893 0)
(10.138 -0.0303491 0)
(10.1533 -0.0293372 0)
(10.167 -0.0283285 0)
(10.1791 -0.0273795 0)
(10.1896 -0.0265188 0)
(10.1985 -0.0257485 0)
(10.2059 -0.0250558 0)
(10.2118 -0.0244222 0)
(10.2163 -0.0238287 0)
(10.2193 -0.0232631 0)
(10.2209 -0.0227314 0)
(10.2211 -0.0222551 0)
(10.2195 -0.022004 0)
(10.0045 -0.0149511 0)
(10.0285 -0.0283866 0)
(10.0553 -0.0336317 0)
(10.0785 -0.0361074 0)
(10.1002 -0.0365051 0)
(10.1206 -0.0355688 0)
(10.1384 -0.0341777 0)
(10.1527 -0.0327282 0)
(10.1636 -0.0313165 0)
(10.1712 -0.029973 0)
(10.1755 -0.0287257 0)
(10.1767 -0.0275889 0)
(10.1748 -0.0265571 0)
(10.1699 -0.0256112 0)
(10.1621 -0.0247268 0)
(10.1514 -0.0238804 0)
(10.138 -0.0230558 0)
(10.1218 -0.022261 0)
(10.1032 -0.0214945 0)
(10.0818 -0.020988 0)
(10.0096 -0.0171415 0)
(10.0498 -0.00854786 0)
(10.0889 -0.010911 0)
(10.1182 -0.0211017 0)
(10.1396 -0.0286156 0)
(10.153 -0.0319677 0)
(10.1575 -0.0327419 0)
(10.153 -0.0321862 0)
(10.1403 -0.0309687 0)
(10.1201 -0.0294515 0)
(10.0931 -0.0278277 0)
(10.06 -0.0262022 0)
(10.0216 -0.0246306 0)
(9.97859 -0.0231377 0)
(9.93186 -0.0217308 0)
(9.88225 -0.0204079 0)
(9.8306 -0.0191632 0)
(9.77774 -0.0180123 0)
(9.72441 -0.016937 0)
(9.67109 -0.0161695 0)
(10.0568 -0.104712 0)
(10.1493 -0.134353 0)
(10.1837 -0.103765 0)
(10.1747 -0.077118 0)
(10.1353 -0.0592817 0)
(10.0718 -0.0471133 0)
(9.98918 -0.0385762 0)
(9.89336 -0.0323272 0)
(9.78962 -0.0275322 0)
(9.6822 -0.0237541 0)
(9.57432 -0.0207189 0)
(9.46844 -0.0182369 0)
(9.36637 -0.0161753 0)
(9.26936 -0.0144396 0)
(9.1782 -0.0129619 0)
(9.09326 -0.0116932 0)
(9.01456 -0.0105984 0)
(8.94191 -0.00966543 0)
(8.8748 -0.00887442 0)
(8.81324 -0.00835965 0)
(9.843 0.18696 0)
(9.53021 0.133078 0)
(9.21416 0.0669225 0)
(8.9107 0.0262398 0)
(8.63687 0.00505471 0)
(8.39919 -0.00446591 0)
(8.19704 -0.00781478 0)
(8.02732 -0.0080959 0)
(7.88602 -0.00698831 0)
(7.7687 -0.00544703 0)
(7.67096 -0.00396449 0)
(7.5888 -0.00275516 0)
(7.51879 -0.00187907 0)
(7.4581 -0.00131556 0)
(7.40451 -0.00100691 0)
(7.35631 -0.000884218 0)
(7.31224 -0.000883207 0)
(7.27141 -0.000956989 0)
(7.23304 -0.00106315 0)
(7.19667 -0.00130742 0)
(6.96958 -0.103697 0)
(6.78559 -0.128348 0)
(6.5922 -0.12535 0)
(6.41367 -0.118394 0)
(6.27073 -0.112565 0)
(6.17078 -0.107941 0)
(6.10827 -0.104229 0)
(6.07335 -0.100834 0)
(6.05699 -0.097393 0)
(6.05242 -0.0939617 0)
(6.0552 -0.0908363 0)
(6.06263 -0.0882733 0)
(6.07323 -0.0865871 0)
(6.08619 -0.0859226 0)
(6.10091 -0.0862703 0)
(6.1169 -0.0875484 0)
(6.1337 -0.0896557 0)
(6.15095 -0.0925113 0)
(6.16836 -0.0960413 0)
(6.18573 -0.100188 0)
(6.20292 -0.104914 0)
(6.21983 -0.110191 0)
(6.23639 -0.115993 0)
(6.25254 -0.122301 0)
(6.26825 -0.129094 0)
(6.28349 -0.136357 0)
(6.29825 -0.144073 0)
(6.31254 -0.152227 0)
(6.32636 -0.160804 0)
(6.33971 -0.169788 0)
(6.35262 -0.179164 0)
(6.36509 -0.188912 0)
(6.37713 -0.199014 0)
(6.38876 -0.20945 0)
(6.39997 -0.220198 0)
(6.41077 -0.231235 0)
(6.42118 -0.24254 0)
(6.43119 -0.254087 0)
(6.44081 -0.265852 0)
(6.45005 -0.277809 0)
(6.4589 -0.289934 0)
(6.46738 -0.302201 0)
(6.47548 -0.314586 0)
(6.48322 -0.327065 0)
(6.4906 -0.339616 0)
(6.49763 -0.352217 0)
(6.50433 -0.364848 0)
(6.51071 -0.377489 0)
(6.51678 -0.390126 0)
(6.52257 -0.402741 0)
(6.52809 -0.415323 0)
(6.53337 -0.427861 0)
(6.53844 -0.440347 0)
(6.54332 -0.452776 0)
(6.54805 -0.465145 0)
(6.55265 -0.477454 0)
(6.55716 -0.489706 0)
(6.56162 -0.501908 0)
(6.56606 -0.514066 0)
(6.57053 -0.526194 0)
(6.57505 -0.538304 0)
(6.57968 -0.550414 0)
(6.58445 -0.562542 0)
(6.58941 -0.57471 0)
(6.59459 -0.58694 0)
(6.60004 -0.599258 0)
(6.60579 -0.61169 0)
(6.61189 -0.624261 0)
(6.61837 -0.637 0)
(6.62528 -0.649932 0)
(6.63264 -0.663085 0)
(6.64049 -0.676483 0)
(6.64887 -0.69015 0)
(6.65779 -0.704106 0)
(6.6673 -0.71837 0)
(6.6774 -0.732957 0)
(6.68813 -0.747876 0)
(6.6995 -0.763133 0)
(6.71152 -0.778729 0)
(6.72421 -0.794658 0)
(6.73756 -0.810909 0)
(6.75159 -0.827464 0)
(6.76627 -0.844296 0)
(6.78161 -0.861374 0)
(6.79759 -0.878657 0)
(6.81419 -0.896097 0)
(6.83137 -0.913637 0)
(6.84911 -0.931216 0)
(6.86736 -0.94876 0)
(6.88608 -0.966193 0)
(6.90522 -0.983431 0)
(6.9247 -1.00038 0)
(6.94446 -1.01695 0)
(6.96444 -1.03304 0)
(6.98453 -1.04854 0)
(7.00467 -1.06336 0)
(7.02475 -1.07739 0)
(7.04469 -1.09053 0)
(7.06439 -1.10269 0)
(7.08374 -1.11376 0)
(7.10265 -1.12368 0)
(7.12103 -1.13236 0)
(7.13878 -1.13975 0)
(7.15583 -1.14579 0)
(7.17209 -1.15045 0)
(7.18751 -1.15371 0)
(7.20203 -1.15557 0)
(7.21561 -1.15604 0)
(7.22822 -1.15516 0)
(7.23987 -1.15297 0)
(7.25054 -1.14954 0)
(7.26026 -1.14494 0)
(7.26906 -1.13926 0)
(7.27698 -1.13261 0)
(7.28407 -1.12509 0)
(7.29038 -1.11682 0)
(7.29598 -1.10792 0)
(7.30094 -1.09852 0)
(7.30531 -1.08874 0)
(7.30917 -1.07871 0)
(7.31256 -1.06854 0)
(7.31554 -1.05837 0)
(7.31816 -1.04829 0)
(7.32046 -1.03843 0)
(7.32246 -1.02889 0)
(7.32419 -1.01977 0)
(7.32568 -1.01116 0)
(7.32693 -1.00315 0)
(7.32796 -0.995803 0)
(7.32878 -0.989202 0)
(7.32942 -0.983404 0)
(7.3299 -0.978459 0)
(7.33026 -0.974405 0)
(7.33055 -0.971269 0)
(7.33086 -0.969063 0)
(7.33129 -0.967789 0)
(7.33199 -0.967436 0)
(7.33318 -0.967982 0)
(7.33509 -0.969393 0)
(7.33795 -0.971595 0)
(7.34186 -0.974435 0)
(7.3466 -0.977592 0)
(7.3514 -0.980483 0)
(7.35474 -0.982187 0)
(7.35439 -0.981465 0)
(7.34774 -0.97691 0)
(7.33234 -0.967205 0)
(7.30656 -0.951394 0)
(7.26996 -0.929069 0)
(7.22342 -0.90039 0)
(7.1689 -0.865957 0)
(7.10899 -0.826608 0)
(7.04648 -0.783199 0)
(6.984 -0.736444 0)
(6.92375 -0.686814 0)
(6.86744 -0.63452 0)
(6.81627 -0.579526 0)
(6.77098 -0.521602 0)
(6.73196 -0.460381 0)
(6.69933 -0.395409 0)
(6.673 -0.326197 0)
(6.65276 -0.252252 0)
(6.63834 -0.1731 0)
(6.62944 -0.0883082 0)
(6.62572 0.00251744 0)
(6.62686 0.0997195 0)
(6.63253 0.20357 0)
(6.64235 0.31427 0)
(6.65594 0.43194 0)
(6.67279 0.556603 0)
(6.6923 0.68815 0)
(6.71368 0.826314 0)
(6.73593 0.970627 0)
(6.7578 1.12039 0)
(6.77782 1.27468 0)
(6.79436 1.43233 0)
(6.80577 1.59207 0)
(6.81055 1.75261 0)
(6.80751 1.91276 0)
(6.79593 2.07165 0)
(6.77563 2.2288 0)
(6.74691 2.38421 0)
(6.71051 2.53843 0)
(6.66744 2.69255 0)
(6.61888 2.84819 0)
(6.56602 3.00747 0)
(6.50985 3.17305 0)
(6.45112 3.34806 0)
(6.39013 3.53629 0)
(6.32659 3.74227 0)
(6.25954 3.97163 0)
(6.18692 4.23154 0)
(6.10578 4.53146 0)
(6.01025 4.88426 0)
(5.89618 5.3065 0)
(5.74245 5.8211 0)
(5.56902 6.45007 0)
(5.21905 7.24879 0)
(5.1754 8.20358 0)
(3.90393 10.7238 0)
(8.80016 0.0306863 0)
(8.75997 0.0409714 0)
(8.69396 0.0352571 0)
(8.60116 0.0174591 0)
(8.4882 -0.00118204 0)
(8.36121 -0.0173424 0)
(8.22672 -0.0307402 0)
(8.09175 -0.0415527 0)
(7.96276 -0.0501695 0)
(7.84453 -0.057115 0)
(7.73986 -0.0628756 0)
(7.64939 -0.0676923 0)
(7.57233 -0.0718538 0)
(7.50711 -0.0755942 0)
(7.45185 -0.079119 0)
(7.40481 -0.0826106 0)
(7.36452 -0.0862366 0)
(7.32986 -0.0901651 0)
(7.29998 -0.0944978 0)
(7.27417 -0.0992836 0)
(7.25184 -0.104538 0)
(7.23246 -0.110255 0)
(7.21557 -0.116418 0)
(7.20076 -0.123012 0)
(7.18771 -0.130027 0)
(7.17613 -0.137457 0)
(7.16581 -0.145297 0)
(7.15656 -0.153541 0)
(7.14824 -0.162183 0)
(7.14071 -0.171211 0)
(7.13386 -0.180613 0)
(7.12759 -0.190372 0)
(7.12182 -0.200472 0)
(7.11647 -0.210895 0)
(7.11149 -0.221621 0)
(7.10682 -0.232628 0)
(7.10241 -0.243894 0)
(7.09822 -0.255396 0)
(7.09422 -0.26711 0)
(7.09036 -0.279011 0)
(7.08662 -0.291074 0)
(7.08296 -0.303276 0)
(7.07938 -0.315593 0)
(7.07584 -0.328002 0)
(7.07233 -0.340481 0)
(7.06884 -0.353011 0)
(7.06537 -0.365572 0)
(7.06189 -0.378147 0)
(7.05842 -0.39072 0)
(7.05494 -0.403276 0)
(7.05148 -0.415806 0)
(7.04804 -0.428299 0)
(7.04462 -0.440748 0)
(7.04125 -0.453151 0)
(7.03794 -0.465503 0)
(7.03472 -0.477808 0)
(7.0316 -0.490069 0)
(7.02862 -0.502292 0)
(7.0258 -0.514486 0)
(7.02317 -0.526664 0)
(7.02077 -0.53884 0)
(7.01862 -0.55103 0)
(7.01676 -0.563255 0)
(7.01523 -0.575536 0)
(7.01406 -0.587895 0)
(7.01328 -0.600358 0)
(7.01294 -0.612949 0)
(7.01305 -0.625695 0)
(7.01367 -0.638624 0)
(7.01482 -0.65176 0)
(7.01652 -0.665131 0)
(7.01881 -0.678759 0)
(7.02172 -0.692668 0)
(7.02527 -0.706877 0)
(7.02948 -0.721403 0)
(7.03436 -0.73626 0)
(7.03994 -0.751456 0)
(7.04623 -0.766995 0)
(7.05322 -0.782877 0)
(7.06093 -0.799094 0)
(7.06935 -0.815632 0)
(7.07848 -0.832471 0)
(7.08829 -0.849584 0)
(7.09878 -0.866936 0)
(7.10993 -0.884482 0)
(7.12169 -0.902174 0)
(7.13403 -0.919952 0)
(7.14691 -0.93775 0)
(7.16028 -0.955494 0)
(7.17408 -0.973103 0)
(7.18823 -0.990489 0)
(7.20268 -1.00756 0)
(7.21734 -1.02422 0)
(7.23212 -1.04036 0)
(7.24693 -1.05588 0)
(7.26167 -1.07068 0)
(7.27625 -1.08464 0)
(7.29056 -1.09768 0)
(7.30448 -1.10968 0)
(7.31793 -1.12057 0)
(7.33079 -1.13026 0)
(7.34298 -1.13867 0)
(7.3544 -1.14575 0)
(7.36496 -1.15146 0)
(7.37462 -1.15575 0)
(7.3833 -1.15862 0)
(7.39098 -1.16008 0)
(7.39763 -1.16014 0)
(7.40325 -1.15884 0)
(7.40784 -1.15623 0)
(7.41144 -1.15239 0)
(7.41408 -1.1474 0)
(7.41583 -1.14135 0)
(7.41675 -1.13434 0)
(7.41692 -1.1265 0)
(7.41642 -1.11794 0)
(7.41532 -1.10877 0)
(7.41372 -1.09913 0)
(7.41168 -1.08915 0)
(7.40929 -1.07893 0)
(7.4066 -1.06861 0)
(7.40368 -1.0583 0)
(7.40056 -1.04811 0)
(7.3973 -1.03814 0)
(7.39391 -1.02851 0)
(7.39043 -1.01931 0)
(7.38686 -1.01062 0)
(7.38322 -1.00254 0)
(7.37952 -0.995132 0)
(7.37576 -0.988476 0)
(7.37198 -0.982633 0)
(7.3682 -0.977658 0)
(7.36447 -0.973597 0)
(7.36085 -0.970485 0)
(7.35743 -0.968349 0)
(7.35436 -0.967205 0)
(7.3518 -0.967064 0)
(7.34996 -0.967917 0)
(7.34901 -0.969722 0)
(7.34899 -0.972353 0)
(7.3496 -0.975517 0)
(7.34995 -0.978659 0)
(7.34846 -0.980884 0)
(7.3428 -0.980972 0)
(7.33032 -0.977524 0)
(7.30854 -0.96921 0)
(7.27582 -0.955052 0)
(7.23175 -0.934613 0)
(7.17728 -0.908037 0)
(7.11446 -0.875942 0)
(7.04604 -0.839206 0)
(6.97497 -0.798753 0)
(6.90404 -0.755368 0)
(6.83561 -0.709592 0)
(6.77152 -0.661682 0)
(6.71304 -0.611628 0)
(6.66099 -0.5592 0)
(6.61575 -0.504009 0)
(6.57744 -0.445566 0)
(6.54594 -0.383336 0)
(6.52104 -0.316777 0)
(6.50243 -0.245365 0)
(6.48978 -0.168615 0)
(6.48276 -0.0860884 0)
(6.48105 0.00260529 0)
(6.48435 0.0978047 0)
(6.4924 0.199783 0)
(6.5049 0.308751 0)
(6.52156 0.42485 0)
(6.54201 0.54814 0)
(6.5658 0.678569 0)
(6.59233 0.815948 0)
(6.62079 0.959905 0)
(6.65013 1.10985 0)
(6.67904 1.26494 0)
(6.70595 1.4241 0)
(6.72916 1.58604 0)
(6.74697 1.74939 0)
(6.75789 1.91284 0)
(6.76082 2.07529 0)
(6.75519 2.23604 0)
(6.74096 2.39489 0)
(6.71865 2.55221 0)
(6.68917 2.70898 0)
(6.65369 2.86676 0)
(6.61351 3.02769 0)
(6.56989 3.19447 0)
(6.52389 3.3704 0)
(6.47629 3.55942 0)
(6.42743 3.76632 0)
(6.37716 3.997 0)
(6.32457 4.25905 0)
(6.26838 4.56242 0)
(6.2052 4.92053 0)
(6.13507 5.35096 0)
(6.04378 5.87662 0)
(5.96552 6.52546 0)
(5.77736 7.33287 0)
(5.97091 8.34625 0)
(5.50375 10.7239 0)
(9.64642 0.027658 0)
(9.63367 0.0202918 0)
(9.61596 0.0085212 0)
(9.59264 5.80026e-05 0)
(9.56293 -0.00353093 0)
(9.52509 -0.0046435 0)
(9.47767 -0.00505827 0)
(9.41951 -0.00570724 0)
(9.35014 -0.00717131 0)
(9.27001 -0.00980607 0)
(9.18073 -0.0137179 0)
(9.08468 -0.0190643 0)
(8.98493 -0.0255429 0)
(8.88479 -0.0327983 0)
(8.78731 -0.0405711 0)
(8.69481 -0.048619 0)
(8.60871 -0.0567202 0)
(8.52961 -0.0647481 0)
(8.45747 -0.0726293 0)
(8.39182 -0.0803547 0)
(8.332 -0.0879701 0)
(8.27734 -0.0955568 0)
(8.22723 -0.10321 0)
(8.18116 -0.11102 0)
(8.13872 -0.119061 0)
(8.09954 -0.127383 0)
(8.06327 -0.136013 0)
(8.0296 -0.144963 0)
(7.99825 -0.154233 0)
(7.96895 -0.16382 0)
(7.94147 -0.173714 0)
(7.91561 -0.183907 0)
(7.89118 -0.19439 0)
(7.86805 -0.205152 0)
(7.84607 -0.216179 0)
(7.82514 -0.227453 0)
(7.80516 -0.238958 0)
(7.78603 -0.250672 0)
(7.76766 -0.262573 0)
(7.74998 -0.27464 0)
(7.73293 -0.28685 0)
(7.71644 -0.299182 0)
(7.70046 -0.311614 0)
(7.68496 -0.324125 0)
(7.66988 -0.336697 0)
(7.6552 -0.349309 0)
(7.64087 -0.361945 0)
(7.62689 -0.374589 0)
(7.61323 -0.387227 0)
(7.59987 -0.399848 0)
(7.58681 -0.412441 0)
(7.57403 -0.424998 0)
(7.56154 -0.437515 0)
(7.54934 -0.449989 0)
(7.53743 -0.462419 0)
(7.52583 -0.474808 0)
(7.51455 -0.487162 0)
(7.5036 -0.499486 0)
(7.493 -0.511793 0)
(7.48278 -0.524094 0)
(7.47295 -0.536404 0)
(7.46355 -0.548743 0)
(7.4546 -0.561128 0)
(7.44612 -0.573581 0)
(7.43815 -0.586127 0)
(7.43071 -0.598789 0)
(7.42383 -0.611593 0)
(7.41754 -0.624566 0)
(7.41187 -0.637732 0)
(7.40685 -0.651119 0)
(7.40249 -0.66475 0)
(7.39882 -0.67865 0)
(7.39586 -0.692839 0)
(7.39363 -0.707337 0)
(7.39214 -0.722159 0)
(7.3914 -0.737317 0)
(7.39143 -0.752818 0)
(7.39223 -0.768665 0)
(7.39379 -0.784855 0)
(7.39611 -0.801379 0)
(7.39918 -0.81822 0)
(7.40298 -0.835357 0)
(7.40749 -0.852759 0)
(7.41269 -0.870388 0)
(7.41854 -0.8882 0)
(7.42499 -0.906141 0)
(7.432 -0.924148 0)
(7.43952 -0.942153 0)
(7.44747 -0.960079 0)
(7.45579 -0.977842 0)
(7.4644 -0.99535 0)
(7.47321 -1.01251 0)
(7.48214 -1.02922 0)
(7.49107 -1.04537 0)
(7.49991 -1.06086 0)
(7.50854 -1.07558 0)
(7.51686 -1.08943 0)
(7.52475 -1.1023 0)
(7.5321 -1.1141 0)
(7.5388 -1.12473 0)
(7.54476 -1.13412 0)
(7.54986 -1.1422 0)
(7.55405 -1.14892 0)
(7.55724 -1.15422 0)
(7.55938 -1.1581 0)
(7.56044 -1.16054 0)
(7.56042 -1.16155 0)
(7.55931 -1.16116 0)
(7.55714 -1.15942 0)
(7.55396 -1.1564 0)
(7.54983 -1.15215 0)
(7.54484 -1.14678 0)