/*--------------------------------*- C++ -*----------------------------------*\
| =========                 |                                                 |
| \\      /  F ield         | OpenFOAM: The Open Source CFD Toolbox           |
|  \\    /   O peration     | Version:  2.4.0                                 |
|   \\  /    A nd           | Web:      www.OpenFOAM.org                      |
|    \\/     M anipulation  |                                                 |
\*---------------------------------------------------------------------------*/
FoamFile
{
    version     2.0;
    format      ascii;
    class       volVectorField;
    location    "0.043";
    object      U_0;
}
// * * * * * * * * * * * * * * * * * * * * * * * * * * * * * * * * * * * * * //

dimensions      [0 1 -1 0 0 0 0];

internalField   nonuniform List<vector> 
4400
(
(5.40416 0.31681 0)
(3.31594 0.0606305 0)
(2.57792 0.00165135 0)
(2.24637 -0.00284227 0)
(2.06857 -0.000511399 0)
(2.00891 -0.00127115 0)
(1.94884 -4.05108e-05 0)
(1.92568 -0.00150496 0)
(1.96318 0.00423897 0)
(1.42279 -0.0927484 0)
(8.68755 0.857328 0)
(7.5418 0.344962 0)
(6.61149 0.115989 0)
(5.94812 0.0532662 0)
(5.47786 0.0302327 0)
(5.30769 0.0115726 0)
(5.13528 0.0137685 0)
(5.02244 -0.00695888 0)
(5.12945 0.0447035 0)
(4.43789 -0.185497 0)
(9.89584 0.936923 0)
(9.99581 0.478739 0)
(9.45888 0.211261 0)
(8.81626 0.127651 0)
(8.19743 0.0821283 0)
(7.96588 0.035475 0)
(7.7202 0.039572 0)
(7.53731 -0.00884246 0)
(7.62233 0.0664883 0)
(7.16631 -0.17498 0)
(10.1306 0.806296 0)
(11.1303 0.501818 0)
(11.2161 0.261581 0)
(10.9174 0.194412 0)
(10.3508 0.142663 0)
(10.1447 0.0665127 0)
(9.88388 0.0731385 0)
(9.69593 -0.00185192 0)
(9.65672 0.0729934 0)
(9.53782 -0.166774 0)
(10.064 0.644742 0)
(11.3652 0.443976 0)
(11.8988 0.237997 0)
(12.0804 0.214195 0)
(11.7676 0.184313 0)
(11.7101 0.0911547 0)
(11.5251 0.103426 0)
(11.417 0.0155509 0)
(11.265 0.069636 0)
(11.3638 -0.179808 0)
(10.0207 0.508963 0)
(11.3204 0.376354 0)
(11.9546 0.17519 0)
(12.4099 0.17926 0)
(12.3659 0.186359 0)
(12.4933 0.0890262 0)
(12.4921 0.116064 0)
(12.5329 0.0273467 0)
(12.3946 0.0660192 0)
(12.5906 -0.195728 0)
(10.0244 0.384743 0)
(11.2397 0.307277 0)
(11.9128 0.121815 0)
(12.3821 0.13201 0)
(12.501 0.16305 0)
(12.6589 0.060848 0)
(12.8085 0.0982425 0)
(12.9569 0.0295125 0)
(12.9468 0.0349324 0)
(13.1866 -0.141815 0)
(10.017 0.262376 0)
(11.1734 0.243043 0)
(11.9016 0.0660997 0)
(12.2697 0.0842818 0)
(12.4662 0.134321 0)
(12.6449 0.0427244 0)
(12.8347 0.0699765 0)
(12.9876 0.0243379 0)
(13.0895 -0.012113 0)
(13.2844 -0.131169 0)
(10.0002 0.151949 0)
(11.1559 0.146654 0)
(11.887 0.0413626 0)
(12.1639 0.0465248 0)
(12.3922 0.0973095 0)
(12.6422 -0.00349122 0)
(12.8084 0.0529393 0)
(12.9607 0.0015907 0)
(13.1369 -0.0268114 0)
(13.2054 -0.195693 0)
(10.0008 0.0364686 0)
(11.1383 0.0690631 0)
(11.8603 0.000539614 0)
(12.1474 0.00758632 0)
(12.3728 0.0559166 0)
(12.6247 -0.0214213 0)
(12.772 0.0227843 0)
(12.9617 -0.0138098 0)
(13.1463 -0.0742031 0)
(13.1184 -0.188504 0)
(9.99934 -0.072933 0)
(11.1369 -0.0284851 0)
(11.8657 -0.0193118 0)
(12.1535 -0.0274095 0)
(12.3542 0.0146499 0)
(12.6284 -0.0651492 0)
(12.7722 -0.00105545 0)
(12.9637 -0.0377478 0)
(13.1289 -0.0864642 0)
(13.0865 -0.17977 0)
(10.0096 -0.187263 0)
(11.1434 -0.109363 0)
(11.8708 -0.0584457 0)
(12.1578 -0.0647568 0)
(12.3771 -0.0260158 0)
(12.6489 -0.0870327 0)
(12.7766 -0.0285031 0)
(12.9699 -0.0582452 0)
(13.1202 -0.113297 0)
(13.1792 -0.229894 0)
(10.0401 -0.30006 0)
(11.1203 -0.199269 0)
(11.8953 -0.0862959 0)
(12.1675 -0.0989405 0)
(12.4585 -0.0705745 0)
(12.658 -0.121511 0)
(12.8035 -0.0556229 0)
(12.9692 -0.0762261 0)
(13.1438 -0.138305 0)
(13.1562 -0.222796 0)
(10.0671 -0.414922 0)
(11.081 -0.271304 0)
(11.9688 -0.13167 0)
(12.2015 -0.145923 0)
(12.5739 -0.113209 0)
(12.6312 -0.135155 0)
(12.8182 -0.0810075 0)
(12.888 -0.0975007 0)
(13.056 -0.153639 0)
(12.8895 -0.232088 0)
(10.0417 -0.529213 0)
(11.1366 -0.343594 0)
(12.0849 -0.187402 0)
(12.2241 -0.190246 0)
(12.5283 -0.15254 0)
(12.4101 -0.147946 0)
(12.5368 -0.100293 0)
(12.4197 -0.104531 0)
(12.4696 -0.153583 0)
(12.1022 -0.220949 0)
(10.0494 -0.654407 0)
(11.2625 -0.425006 0)
(12.0358 -0.248082 0)
(11.9226 -0.221649 0)
(11.9385 -0.163397 0)
(11.5906 -0.134127 0)
(11.5636 -0.0921216 0)
(11.2863 -0.0887099 0)
(11.2368 -0.129873 0)
(10.7631 -0.182277 0)
(10.1169 -0.811472 0)
(11.0835 -0.491621 0)
(11.3149 -0.267168 0)
(10.7879 -0.200146 0)
(10.4979 -0.129531 0)
(10.0207 -0.0954953 0)
(9.90626 -0.0654528 0)
(9.57359 -0.0617618 0)
(9.49825 -0.0993034 0)
(8.96142 -0.129075 0)
(9.88629 -0.939407 0)
(9.97292 -0.473756 0)
(9.52297 -0.21376 0)
(8.72253 -0.132008 0)
(8.30491 -0.0744664 0)
(7.85808 -0.052571 0)
(7.7279 -0.03647 0)
(7.42716 -0.0361435 0)
(7.35125 -0.0636111 0)
(6.80066 -0.0759475 0)
(8.6818 -0.858096 0)
(7.5304 -0.343262 0)
(6.64785 -0.116305 0)
(5.89212 -0.0564016 0)
(5.5396 -0.026307 0)
(5.23204 -0.0191776 0)
(5.13075 -0.0138997 0)
(4.91942 -0.0155934 0)
(4.84589 -0.0296149 0)
(4.3843 -0.0350895 0)
(5.4029 -0.316931 0)
(3.31135 -0.0606378 0)
(2.59052 -0.00133823 0)
(2.22688 0.00172431 0)
(2.08635 0.00180393 0)
(1.97888 -9.95271e-05 0)
(1.93651 -0.000144936 0)
(1.85452 -0.000969982 0)
(1.80353 -0.00292105 0)
(1.57803 0.00600356 0)
(3.29784 -0.385899 0)
(3.11965 -0.295194 0)
(3.31375 -0.3654 0)
(3.24686 -0.330904 0)
(3.18102 -0.270428 0)
(3.2305 0.0302728 0)
(3.81662 0.779054 0)
(4.70091 1.2276 0)
(6.55504 1.06244 0)
(7.64194 1.42935 0)
(7.90902 1.66844 0)
(8.58279 0.359065 0)
(9.33621 -1.57909 0)
(9.85057 -2.66175 0)
(10.268 -3.07049 0)
(10.7647 -3.64244 0)
(11.47 -4.4274 0)
(12.1447 -5.02275 0)
(12.7705 -5.48173 0)
(13.0106 -5.73134 0)
(13.015 -5.73486 0)
(12.652 -5.71954 0)
(13.1246 -5.32499 0)
(13.4678 -5.03167 0)
(13.6318 -4.42772 0)
(14.056 -3.08897 0)
(13.7617 -2.13502 0)
(13.4647 -1.28896 0)
(13.0277 -0.0733919 0)
(11.8302 0.926678 0)
(10.44 1.5022 0)
(9.35625 1.84437 0)
(8.44842 1.89696 0)
(7.63307 1.61578 0)
(7.01564 1.24154 0)
(6.62477 1.0186 0)
(6.38493 0.953701 0)
(6.20853 0.927441 0)
(6.0492 0.863176 0)
(5.89961 0.756955 0)
(5.76858 0.634314 0)
(5.6636 0.517528 0)
(5.58676 0.416849 0)
(5.53331 0.334784 0)
(5.4997 0.268541 0)
(5.47627 0.217151 0)
(5.46621 0.174021 0)
(5.4526 0.144284 0)
(5.45827 0.111932 0)
(5.43827 0.102334 0)
(5.46738 0.065078 0)
(5.41778 0.088602 0)
(5.49994 0.0143952 0)
(5.37478 0.114956 0)
(5.57546 -0.0696642 0)
(5.29107 0.213483 0)
(5.71937 -0.228895 0)
(5.16565 0.427681 0)
(5.93078 -0.484079 0)
(5.05492 0.739926 0)
(6.14334 -0.751682 0)
(5.03891 0.957645 0)
(6.32293 -0.861046 0)
(5.05719 0.88221 0)
(6.58387 -0.763753 0)
(5.04005 0.646926 0)
(6.83839 -0.579789 0)
(5.15421 0.531858 0)
(6.84562 -0.491601 0)
(5.38451 0.622912 0)
(6.72182 -0.530684 0)
(5.58581 0.733333 0)
(6.56226 -0.550424 0)
(5.78288 0.714882 0)
(6.48952 -0.438831 0)
(5.87138 0.654646 0)
(6.534 -0.269333 0)
(5.95506 0.695207 0)
(6.48775 -0.219002 0)
(6.04341 0.759043 0)
(6.408 -0.0426261 0)
(6.06589 0.724306 0)
(6.24522 0.152189 0)
(5.915 0.861183 0)
(5.98101 0.261976 0)
(5.67534 0.855569 0)
(5.63182 0.52076 0)
(5.24459 0.967808 0)
(5.34205 0.675821 0)
(5.0692 1.04015 0)
(5.38979 1.00151 0)
(5.30076 1.39128 0)
(5.8349 1.4164 0)
(5.85002 2.17064 0)
(5.60195 2.0201 0)
(5.05206 3.02447 0)
(6.03408 3.06604 0)
(5.02142 5.00501 0)
(5.65959 5.47091 0)
(3.3873 9.64557 0)
(5.48573 -0.409794 0)
(5.50719 -0.223079 0)
(5.57311 -0.268216 0)
(5.34588 -0.333311 0)
(5.48592 -0.226829 0)
(5.47367 0.0223793 0)
(5.16239 0.565908 0)
(5.84889 0.615602 0)
(7.1493 0.440583 0)
(8.03354 1.10027 0)
(8.64403 1.39906 0)
(9.55611 0.0454179 0)
(10.2619 -1.83989 0)
(10.5993 -2.78378 0)
(11.1497 -3.27285 0)
(11.9599 -3.91943 0)
(12.7726 -4.66365 0)
(13.0145 -5.27178 0)
(13.3798 -5.57086 0)
(13.1623 -5.67139 0)
(12.8147 -5.68727 0)
(12.7535 -5.7761 0)
(13.0789 -5.60783 0)
(13.4883 -5.23778 0)
(13.7138 -4.53307 0)
(14.0548 -3.16242 0)
(13.7809 -2.04787 0)
(13.323 -1.12348 0)
(12.9179 0.243713 0)
(11.8441 1.41742 0)
(10.4872 1.99632 0)
(9.29903 2.26088 0)
(8.25176 2.26165 0)
(7.40557 1.91859 0)
(6.81669 1.4582 0)
(6.43816 1.15653 0)
(6.19619 1.04345 0)
(6.02589 0.996831 0)
(5.888 0.924877 0)
(5.76925 0.81208 0)
(5.66983 0.680235 0)
(5.59162 0.552621 0)
(5.53504 0.441611 0)
(5.49582 0.351095 0)
(5.47216 0.278712 0)
(5.45523 0.223163 0)
(5.45046 0.17744 0)
(5.43934 0.14607 0)
(5.44951 0.11275 0)
(5.42815 0.102637 0)
(5.46502 0.0646379 0)
(5.40592 0.0886599 0)
(5.50784 0.0121149 0)
(5.35207 0.115979 0)
(5.60588 -0.0770583 0)
(5.2383 0.217997 0)
(5.80174 -0.250063 0)
(5.04596 0.443152 0)
(6.12076 -0.535749 0)
(4.8173 0.787394 0)
(6.4964 -0.848999 0)
(4.67285 1.06036 0)
(6.78162 -0.990968 0)
(4.67444 1.02375 0)
(6.89626 -0.908547 0)
(4.858 0.819658 0)
(6.71605 -0.764654 0)
(5.24555 0.742577 0)
(6.33506 -0.688516 0)
(5.47787 0.825491 0)
(6.1117 -0.725995 0)
(5.55761 0.942745 0)
(5.90787 -0.776035 0)
(5.72071 0.892518 0)
(5.93459 -0.635197 0)
(5.6214 0.811585 0)
(6.28967 -0.49813 0)
(5.61976 0.90197 0)
(6.3762 -0.488416 0)
(5.89202 0.923567 0)
(6.54587 -0.290468 0)
(5.9524 0.915772 0)
(6.79171 -0.0857721 0)
(6.09339 1.05278 0)
(6.77671 0.0628302 0)
(6.15954 1.12179 0)
(6.62333 0.413269 0)
(5.9598 1.24036 0)
(6.10896 0.566194 0)
(5.54602 1.44295 0)
(5.29771 0.751914 0)
(5.26483 1.64891 0)
(5.03136 1.0262 0)
(5.33103 2.33449 0)
(6.18981 1.91127 0)
(5.54257 3.38219 0)
(5.6799 2.62545 0)
(5.08839 4.95092 0)
(8.30069 4.54908 0)
(5.65475 10.1165 0)
(7.5621 -0.524167 0)
(7.48693 -0.347315 0)
(7.74034 -0.19315 0)
(7.39623 -0.294342 0)
(7.51754 -0.338444 0)
(7.79678 0.0232455 0)
(7.38549 0.617587 0)
(7.88572 0.374801 0)
(8.26466 0.0570529 0)
(8.87826 0.81486 0)
(9.90255 1.14575 0)
(11.2177 -0.275921 0)
(11.9395 -1.97584 0)
(12.2089 -2.80493 0)
(12.8305 -3.44494 0)
(13.3103 -4.18017 0)
(13.7742 -4.80052 0)
(13.6805 -5.33843 0)
(13.458 -5.59876 0)
(13.1101 -5.57009 0)
(12.9213 -5.6213 0)
(13.1278 -5.84221 0)
(13.4109 -5.73364 0)
(13.3302 -5.40778 0)
(13.2526 -4.68102 0)
(13.4618 -3.2187 0)
(13.2539 -1.93781 0)
(12.8572 -0.880385 0)
(12.5222 0.532864 0)
(11.6374 1.8173 0)
(10.2237 2.49597 0)
(8.9439 2.75234 0)
(8.00897 2.66642 0)
(7.26059 2.2254 0)
(6.66863 1.67728 0)
(6.2534 1.29959 0)
(5.98492 1.13198 0)
(5.81216 1.05492 0)
(5.69459 0.968434 0)
(5.60972 0.847482 0)
(5.54735 0.708792 0)
(5.50213 0.574492 0)
(5.47148 0.457406 0)
(5.45095 0.361872 0)
(5.44035 0.285739 0)
(5.43188 0.227402 0)
(5.43354 0.179923 0)
(5.42552 0.147109 0)
(5.4405 0.113266 0)
(5.41784 0.102187 0)
(5.4627 0.0643632 0)
(5.39367 0.0874774 0)
(5.51593 0.0109563 0)
(5.32845 0.114552 0)
(5.63559 -0.0813344 0)
(5.18558 0.217074 0)
(5.87516 -0.264022 0)
(4.93879 0.445407 0)
(6.26537 -0.572557 0)
(4.6446 0.804522 0)
(6.69607 -0.919913 0)
(4.5011 1.10506 0)
(6.86521 -1.08154 0)
(4.67557 1.08499 0)
(6.56302 -1.02928 0)
(5.17082 0.931977 0)
(5.87366 -0.951803 0)
(5.69318 0.901486 0)
(5.32532 -0.862262 0)
(5.78058 0.962842 0)
(5.25398 -0.870475 0)
(5.64854 1.09584 0)
(5.32464 -0.955347 0)
(5.69983 1.04528 0)
(5.50543 -0.772661 0)
(5.58747 0.921949 0)
(5.85083 -0.64439 0)
(5.52713 1.07629 0)
(5.93994 -0.749821 0)
(5.74694 1.14445 0)
(6.1368 -0.529276 0)
(5.83881 1.07859 0)
(6.42022 -0.374758 0)
(6.0274 1.31024 0)
(6.6859 -0.2382 0)
(6.32102 1.29563 0)
(6.97928 0.151848 0)
(6.46131 1.52407 0)
(7.01431 0.40227 0)
(6.36594 1.66603 0)
(6.81361 0.743483 0)
(5.85099 1.87766 0)
(6.03866 1.07599 0)
(5.11932 2.26373 0)
(6.46017 1.48052 0)
(5.63916 3.66328 0)
(7.99738 2.75868 0)
(4.54147 5.59748 0)
(8.57124 3.93225 0)
(6.64766 10.1062 0)
(9.7191 -0.44798 0)
(9.36472 -0.386164 0)
(9.5714 -0.180449 0)
(9.29108 -0.202565 0)
(9.36994 -0.429521 0)
(9.71454 -0.0694668 0)
(9.42999 0.63402 0)
(10.059 0.301892 0)
(9.99501 -0.112967 0)
(10.2389 0.530777 0)
(11.3248 0.707182 0)
(12.7768 -0.728546 0)
(13.2865 -2.20615 0)
(13.3919 -2.90244 0)
(14.0032 -3.55255 0)
(14.1368 -4.22917 0)
(14.0961 -4.80711 0)
(13.8564 -5.2545 0)
(13.3644 -5.43499 0)
(12.8507 -5.53046 0)
(12.9715 -5.77149 0)
(13.1948 -6.0449 0)
(13.2868 -5.78169 0)
(13.0525 -5.19777 0)
(12.5093 -4.54258 0)
(12.4402 -3.19974 0)
(12.1569 -1.82958 0)
(11.9112 -0.684044 0)
(11.765 0.791382 0)
(10.9837 2.19927 0)
(9.80309 2.97298 0)
(8.71197 3.16886 0)
(7.69858 2.983 0)
(6.87643 2.48442 0)
(6.34194 1.88424 0)
(5.99172 1.45096 0)
(5.74467 1.23609 0)
(5.57915 1.1247 0)
(5.48095 1.01482 0)
(5.43023 0.877942 0)
(5.40787 0.728075 0)
(5.39979 0.585765 0)
(5.39906 0.463096 0)
(5.40036 0.363851 0)
(5.40499 0.285588 0)
(5.40642 0.225971 0)
(5.41534 0.178255 0)
(5.41097 0.144892 0)
(5.43106 0.111916 0)
(5.40718 0.0995777 0)
(5.46044 0.064187 0)
(5.38059 0.083466 0)
(5.52532 0.013026 0)
(5.30095 0.106605 0)
(5.67096 -0.0754003 0)
(5.11801 0.200725 0)
(5.96508 -0.254196 0)
(4.78863 0.419278 0)
(6.43888 -0.571813 0)
(4.38778 0.798225 0)
(6.91119 -0.977411 0)
(4.25254 1.20065 0)
(6.9068 -1.2639 0)
(4.69594 1.3192 0)
(6.20947 -1.33576 0)
(5.4484 1.22478 0)
(5.39286 -1.23874 0)
(5.84744 1.11313 0)
(5.24287 -1.01919 0)
(5.68235 1.08138 0)
(5.64139 -0.975499 0)
(5.36549 1.22329 0)
(6.0646 -1.102 0)
(5.37304 1.19253 0)
(6.25945 -0.924047 0)
(5.35258 1.05496 0)
(6.56167 -0.835191 0)
(5.27476 1.27983 0)
(6.58523 -1.00035 0)
(5.57746 1.31131 0)
(6.71728 -0.794032 0)
(5.52309 1.31816 0)
(6.99779 -0.668601 0)
(5.73166 1.49195 0)
(7.27659 -0.599674 0)
(5.92237 1.57507 0)
(7.65032 -0.190629 0)
(6.22802 1.7313 0)
(7.99128 0.110837 0)
(6.42998 2.02354 0)
(8.13251 0.573225 0)
(6.35444 2.35659 0)
(7.4524 0.953529 0)
(5.56628 2.7924 0)
(6.41882 0.791136 0)
(4.81473 3.57875 0)
(8.83495 1.75685 0)
(6.00611 5.4002 0)
(11.3537 2.80764 0)
(8.02344 9.56396 0)
(11.5449 -0.341485 0)
(11.1029 -0.327069 0)
(11.2334 -0.139226 0)
(10.8511 -0.125481 0)
(10.9256 -0.52931 0)
(11.2643 -0.174607 0)
(11.1205 0.592735 0)
(11.8158 0.202966 0)
(11.658 -0.215844 0)
(11.7356 0.290783 0)
(12.7133 0.283198 0)
(14.005 -1.11738 0)
(14.1936 -2.30982 0)
(14.1674 -2.93581 0)
(14.4575 -3.63471 0)
(14.2914 -4.20516 0)
(14.0076 -4.74305 0)
(13.4607 -5.2065 0)
(13.0099 -5.32428 0)
(12.8825 -5.49886 0)
(13.1226 -5.86824 0)
(13.0091 -6.04464 0)
(12.3704 -5.73883 0)
(11.9942 -5.03755 0)
(11.4855 -4.25907 0)
(11.1422 -3.06037 0)
(10.8507 -1.71625 0)
(10.6605 -0.544611 0)
(10.6293 0.978988 0)
(10.1065 2.51317 0)
(9.14583 3.36028 0)
(8.07079 3.58718 0)
(7.15474 3.38165 0)
(6.52445 2.77659 0)
(6.07241 2.06751 0)
(5.71486 1.56561 0)
(5.45511 1.3046 0)
(5.30076 1.15804 0)
(5.23575 1.02447 0)
(5.23014 0.875257 0)
(5.25435 0.721373 0)
(5.28723 0.579578 0)
(5.31902 0.45907 0)
(5.34435 0.3618 0)
(5.3661 0.28488 0)
(5.37899 0.225536 0)
(5.39615 0.178112 0)
(5.39622 0.143784 0)
(5.42143 0.111677 0)
(5.39707 0.0969326 0)
(5.4575 0.0650553 0)
(5.3692 0.0779515 0)
(5.53141 0.0176389 0)
(5.27971 0.0945344 0)
(5.69327 -0.0626202 0)
(5.07297 0.174835 0)
(6.01132 -0.229516 0)
(4.70653 0.37476 0)
(6.49966 -0.549335 0)
(4.28296 0.763592 0)
(6.92911 -1.01834 0)
(4.22227 1.26085 0)
(6.75761 -1.42544 0)
(4.88334 1.48555 0)
(5.87163 -1.54577 0)
(5.68596 1.38685 0)
(5.23328 -1.36314 0)
(5.82529 1.20989 0)
(5.48528 -1.07422 0)
(5.47042 1.14123 0)
(5.96629 -1.05082 0)
(5.25089 1.3262 0)
(6.06718 -1.29882 0)
(5.39925 1.37361 0)
(5.89631 -1.1507 0)
(5.43065 1.16496 0)
(6.12792 -1.02275 0)
(5.32898 1.4679 0)
(6.11117 -1.33264 0)
(5.59882 1.51223 0)
(6.28421 -1.01176 0)
(5.42593 1.43098 0)
(6.78087 -1.04508 0)
(5.66856 1.73871 0)
(7.18196 -1.00075 0)
(5.75077 1.72361 0)
(7.98828 -0.728145 0)
(6.22503 2.00749 0)
(8.67853 -0.528148 0)
(6.71597 2.17754 0)
(9.92918 -0.0173911 0)
(7.12015 2.65078 0)
(10.6437 0.740267 0)
(6.8932 3.29859 0)
(10.5765 1.54277 0)
(4.66326 4.00343 0)
(9.62482 1.67352 0)
(4.22296 6.02727 0)
(10.3979 1.50303 0)
(9.00091 8.78071 0)
(12.8078 -0.275183 0)
(12.4033 -0.251849 0)
(12.4715 -0.0820717 0)
(12.0644 -0.0507881 0)
(12.1339 -0.617041 0)
(12.2653 -0.282459 0)
(12.3908 0.51422 0)
(13.1208 0.116702 0)
(12.9418 -0.276266 0)
(12.968 0.107325 0)
(13.8081 -0.0523568 0)
(14.775 -1.36328 0)
(14.6896 -2.31344 0)
(14.6835 -2.89108 0)
(14.5319 -3.56786 0)
(14.0081 -4.11662 0)
(13.7437 -4.56717 0)
(13.0984 -4.97142 0)
(12.5717 -5.25387 0)
(12.747 -5.58425 0)
(12.8014 -5.84208 0)
(12.2794 -5.72228 0)
(11.2822 -5.30651 0)
(10.5476 -4.76423 0)
(10.2204 -3.99398 0)
(9.84714 -2.83108 0)
(9.42774 -1.59331 0)
(9.25887 -0.425967 0)
(9.34146 1.11845 0)
(9.04949 2.68986 0)
(8.23749 3.67166 0)
(7.34266 3.95975 0)
(6.65095 3.65275 0)
(6.14948 2.97087 0)
(5.78597 2.24942 0)
(5.47812 1.72909 0)
(5.22291 1.42466 0)
(5.06901 1.22678 0)
(5.02628 1.05038 0)
(5.05952 0.8733 0)
(5.12506 0.705014 0)
(5.19294 0.557741 0)
(5.2511 0.436828 0)
(5.29515 0.341604 0)
(5.33012 0.26801 0)
(5.35214 0.21183 0)
(5.37637 0.168008 0)
(5.38056 0.135319 0)
(5.411 0.106897 0)
(5.38605 0.0904662 0)
(5.45478 0.0650329 0)
(5.35599 0.0692659 0)
(5.54037 0.0247762 0)
(5.25234 0.0773185 0)
(5.72457 -0.0422116 0)
(5.01159 0.140319 0)
(6.07546 -0.190529 0)
(4.59382 0.320795 0)
(6.58465 -0.509522 0)
(4.13362 0.730364 0)
(6.9885 -1.05947 0)
(4.10441 1.36858 0)
(6.71732 -1.63489 0)
(4.90136 1.7589 0)
(5.70328 -1.79284 0)
(5.75281 1.6027 0)
(5.12503 -1.46372 0)
(5.71445 1.25996 0)
(5.51306 -1.11095 0)
(5.24709 1.19309 0)
(5.83174 -1.18288 0)
(5.27318 1.4536 0)
(5.57795 -1.49088 0)
(5.46085 1.49902 0)
(5.5826 -1.26876 0)
(5.25669 1.26355 0)
(5.90725 -1.14662 0)
(5.20809 1.64076 0)
(5.80873 -1.51934 0)
(5.43829 1.66647 0)
(6.12705 -1.15905 0)
(5.0275 1.66636 0)
(6.54126 -1.28209 0)
(5.30903 1.9586 0)
(6.83753 -1.17844 0)
(5.01135 2.01917 0)
(7.69104 -1.06522 0)
(5.33346 2.29786 0)
(8.6384 -0.896863 0)
(5.31373 2.39468 0)
(10.5604 -0.599611 0)
(5.81935 2.85236 0)
(12.7236 -0.077645 0)
(6.76079 3.23532 0)
(14.826 0.697851 0)
(7.41137 4.28238 0)
(14.5251 1.13751 0)
(7.37989 6.15337 0)
(10.501 1.28378 0)
(8.64184 8.09822 0)
(13.3218 -0.27933 0)
(13.176 -0.267141 0)
(13.1277 -0.0229935 0)
(12.8541 -0.0066734 0)
(13.0029 -0.659461 0)
(12.6994 -0.381735 0)
(13.0398 0.298797 0)
(13.712 -0.0163461 0)
(13.6085 -0.298513 0)
(13.7211 -0.00398299 0)
(14.5064 -0.316225 0)
(15.1068 -1.46995 0)
(14.8285 -2.30366 0)
(14.7711 -2.84889 0)
(14.3037 -3.37809 0)
(13.6655 -3.99535 0)
(13.3067 -4.47709 0)
(12.861 -4.76768 0)
(12.5519 -5.14535 0)
(12.4226 -5.56035 0)
(11.7621 -5.68277 0)
(10.7078 -5.3751 0)
(9.81161 -4.95628 0)
(9.13815 -4.54328 0)
(8.87023 -3.83048 0)
(8.65172 -2.641 0)
(8.20888 -1.43232 0)
(7.97179 -0.354783 0)
(8.01093 1.16805 0)
(7.77748 2.85539 0)
(7.18698 3.94651 0)
(6.58726 4.20083 0)
(6.05411 3.8524 0)
(5.66775 3.13467 0)
(5.3619 2.36856 0)
(5.06502 1.81574 0)
(4.84931 1.47402 0)
(4.77008 1.23151 0)
(4.80722 1.02173 0)
(4.90595 0.832199 0)
(5.01846 0.667837 0)
(5.11817 0.531569 0)
(5.19776 0.421799 0)
(5.25648 0.334501 0)
(5.30174 0.265558 0)
(5.33097 0.210887 0)
(5.36056 0.167987 0)
(5.36812 0.13366 0)
(5.40211 0.107068 0)
(5.37744 0.0858793 0)
(5.45112 0.0679827 0)
(5.34684 0.0587311 0)
(5.54349 0.0366265 0)
(5.23637 0.0538048 0)
(5.73697 -0.0117241 0)
(4.9826 0.094355 0)
(6.08855 -0.134716 0)
(4.55993 0.251278 0)
(6.5598 -0.447324 0)
(4.13183 0.668929 0)
(6.87464 -1.05912 0)
(4.16693 1.39457 0)
(6.51306 -1.73954 0)
(5.0265 1.89281 0)
(5.48399 -1.88472 0)
(5.88153 1.67517 0)
(5.01303 -1.43437 0)
(5.73444 1.23664 0)
(5.54238 -1.08548 0)
(5.19444 1.23011 0)
(5.87955 -1.30596 0)
(5.31269 1.61125 0)
(5.64387 -1.67125 0)
(5.48157 1.62709 0)
(5.8512 -1.37789 0)
(5.22066 1.36702 0)
(6.08514 -1.32239 0)
(5.28201 1.81687 0)
(5.94143 -1.80249 0)
(5.39306 1.79584 0)
(6.22831 -1.30265 0)
(5.11859 1.71916 0)
(6.47262 -1.59766 0)
(5.33221 2.13931 0)
(6.49138 -1.44361 0)
(5.06887 2.03897 0)
(7.05288 -1.36655 0)
(5.11153 2.49995 0)
(7.1588 -1.19159 0)
(4.76086 2.62685 0)
(8.00238 -0.989727 0)
(4.72661 3.28257 0)
(8.96022 -0.653752 0)
(5.04645 3.83938 0)
(10.9041 -0.233523 0)
(7.10514 4.82358 0)
(13.0601 0.456441 0)
(9.20023 6.31858 0)
(13.3255 1.91328 0)
(9.4639 7.06755 0)
(13.2766 -0.315935 0)
(13.3118 -0.248864 0)
(13.1188 0.0681805 0)
(13.3431 -0.0418701 0)
(13.4688 -0.585798 0)
(12.8976 -0.315177 0)
(13.3354 0.109137 0)
(13.5046 -0.175595 0)
(13.4568 -0.374688 0)
(13.7758 -0.181015 0)
(14.5454 -0.574828 0)
(14.9765 -1.51345 0)
(14.8581 -2.22062 0)
(14.6186 -2.68811 0)
(14.0149 -3.16336 0)
(13.7187 -3.77542 0)
(13.272 -4.21295 0)
(12.689 -4.58558 0)
(12.3968 -5.07501 0)
(11.799 -5.32259 0)
(10.4841 -5.21601 0)
(9.15186 -4.86647 0)
(8.41042 -4.59367 0)
(7.80496 -4.35905 0)
(7.49905 -3.68253 0)
(7.34058 -2.53728 0)
(6.98679 -1.34675 0)
(6.68799 -0.199379 0)
(6.53287 1.37209 0)
(6.31062 3.03505 0)
(6.02507 4.07212 0)
(5.60691 4.35611 0)
(5.24981 4.00368 0)
(5.07516 3.2497 0)
(4.92501 2.49575 0)
(4.76038 1.93891 0)
(4.64713 1.54743 0)
(4.64025 1.24452 0)
(4.73325 0.991657 0)
(4.87548 0.78055 0)
(5.01705 0.609446 0)
(5.13076 0.474439 0)
(5.21222 0.370125 0)
(5.26598 0.290274 0)
(5.30421 0.229774 0)
(5.3277 0.182731 0)
(5.35357 0.147506 0)
(5.36 0.117458 0)
(5.39363 0.0977698 0)
(5.3705 0.0748404 0)
(5.44433 0.0677526 0)
(5.34253 0.0450654 0)
(5.53807 0.0486198 0)
(5.23426 0.027972 0)
(5.73018 0.0207012 0)
(4.98297 0.0476909 0)
(6.07131 -0.0774487 0)
(4.56587 0.187751 0)
(6.51475 -0.385868 0)
(4.14278 0.620447 0)
(6.79681 -1.05216 0)
(4.15315 1.43487 0)
(6.4555 -1.85615 0)
(4.96253 2.07622 0)
(5.50497 -2.04145 0)
(5.80051 1.7901 0)
(5.09691 -1.4324 0)
(5.60044 1.2077 0)
(5.65884 -1.06454 0)
(5.02968 1.29923 0)
(5.91815 -1.4718 0)
(5.26281 1.79296 0)
(5.51178 -1.82738 0)
(5.44274 1.67858 0)
(5.60234 -1.42905 0)
(5.14823 1.47323 0)
(5.66421 -1.54508 0)
(5.35318 2.00318 0)
(5.51639 -1.92617 0)
(5.21925 1.88947 0)
(5.93786 -1.43727 0)
(5.0606 1.93688 0)
(5.98439 -1.88359 0)
(5.22164 2.30407 0)
(6.32813 -1.57452 0)
(4.9493 2.18059 0)
(6.79497 -1.71971 0)
(5.18648 2.6146 0)
(7.04963 -1.45628 0)
(5.08578 2.59159 0)
(7.41828 -1.42594 0)
(5.42787 3.20066 0)
(7.52726 -1.15599 0)
(5.61271 3.90195 0)
(7.57645 -1.22874 0)
(6.70172 5.13537 0)
(9.62858 -0.430926 0)
(8.24528 6.3298 0)
(12.9312 2.05066 0)
(10.4665 6.55275 0)
(13.1522 -0.330221 0)
(13.0283 -0.117802 0)
(13.0415 0.145564 0)
(13.6795 -0.122995 0)
(13.3885 -0.505668 0)
(13.0386 -0.297939 0)
(13.2552 0.0538901 0)
(13.1722 -0.172126 0)
(13.4219 -0.436018 0)
(13.6117 -0.375228 0)
(14.1342 -0.809 0)
(14.5602 -1.62877 0)
(14.6116 -2.17368 0)
(14.2357 -2.51539 0)
(13.9055 -3.02828 0)
(13.8975 -3.56559 0)
(13.3003 -3.90227 0)
(12.5452 -4.37984 0)
(11.9548 -4.82462 0)
(10.7721 -4.79849 0)
(8.94659 -4.55781 0)
(7.5601 -4.40362 0)
(6.95943 -4.35966 0)
(6.34466 -4.20979 0)
(6.06107 -3.53439 0)
(5.87761 -2.41215 0)
(5.60199 -1.2397 0)
(5.3102 -0.0837557 0)
(5.20986 1.39498 0)
(5.08265 2.9979 0)
(4.7826 4.13048 0)
(4.49359 4.46722 0)
(4.47119 4.06142 0)
(4.53058 3.30418 0)
(4.5195 2.56529 0)
(4.43708 1.99823 0)
(4.40494 1.57482 0)
(4.50775 1.23185 0)
(4.70853 0.952696 0)
(4.92429 0.739552 0)
(5.09756 0.584396 0)
(5.21123 0.470475 0)
(5.27663 0.382432 0)
(5.31103 0.31011 0)
(5.33281 0.250006 0)
(5.34474 0.198644 0)
(5.36224 0.158802 0)
(5.36451 0.122541 0)
(5.39311 0.101789 0)
(5.37155 0.0715957 0)
(5.43815 0.0719531 0)
(5.34702 0.0333234 0)
(5.52371 0.0623878 0)
(5.25127 0.0012038 0)
(5.69782 0.0561302 0)
(5.02712 -0.00332986 0)
(6.00286 -0.011492 0)
(4.65532 0.113523 0)
(6.3858 -0.300951 0)
(4.28568 0.540679 0)
(6.59167 -0.989366 0)
(4.30142 1.38781 0)
(6.24991 -1.87275 0)
(5.00255 2.10392 0)
(5.42883 -2.0556 0)
(5.79257 1.75875 0)
(5.01603 -1.31232 0)
(5.66192 1.07591 0)
(5.45612 -0.961239 0)
(5.12911 1.29483 0)
(5.69631 -1.55542 0)
(5.35776 1.90908 0)
(5.32543 -1.90369 0)
(5.5602 1.73595 0)
(5.40223 -1.46291 0)
(5.25931 1.52427 0)
(5.59666 -1.6292 0)
(5.3261 2.0945 0)
(5.58905 -2.05764 0)
(5.24729 1.97866 0)
(5.88081 -1.60966 0)
(5.09675 2.03868 0)
(5.88568 -2.09664 0)
(5.21611 2.45445 0)
(6.14846 -1.80658 0)
(4.92016 2.32693 0)
(6.32697 -2.02918 0)
(5.13459 2.92728 0)
(6.48236 -1.77499 0)
(4.88807 2.93766 0)
(6.74858 -1.87004 0)
(5.42476 3.55485 0)
(7.21287 -1.54904 0)
(5.7551 4.17342 0)
(7.51497 -1.67888 0)
(6.71162 5.07196 0)
(8.59625 -0.827639 0)
(7.67596 5.89811 0)
(10.5712 1.40011 0)
(10.7586 5.92712 0)
(13.0036 -0.235741 0)
(13.0111 -0.102035 0)
(13.4051 0.00424729 0)
(13.6189 -0.161011 0)
(13.0631 -0.415321 0)
(12.8974 -0.213667 0)
(13.2702 0.0578405 0)
(13.8639 -0.371761 0)
(13.7068 -0.558124 0)
(13.3053 -0.429858 0)
(13.8038 -0.991779 0)
(14.1323 -1.70341 0)
(14.0455 -2.02695 0)
(13.8149 -2.36422 0)
(13.8078 -2.97656 0)
(13.6316 -3.40985 0)
(12.9175 -3.6337 0)
(12.2323 -4.06191 0)
(11.1462 -4.32363 0)
(9.21468 -4.11679 0)
(7.2117 -3.91105 0)
(6.0424 -3.98648 0)
(5.4436 -4.15109 0)
(4.75155 -4.04398 0)
(4.53509 -3.3766 0)
(4.30722 -2.30862 0)
(4.09667 -1.14406 0)
(3.81548 0.0792798 0)
(3.68943 1.58987 0)
(3.55566 3.17176 0)
(3.43549 4.20955 0)
(3.54732 4.42092 0)
(3.75424 3.9931 0)
(3.96957 3.26063 0)
(4.07075 2.54743 0)
(4.0768 1.97618 0)
(4.1616 1.49739 0)
(4.34734 1.09702 0)
(4.54817 0.800069 0)
(4.70936 0.60325 0)
(4.82878 0.475927 0)
(4.92436 0.386479 0)
(5.01087 0.316028 0)
(5.09101 0.256352 0)
(5.16528 0.206799 0)
(5.22575 0.164488 0)
(5.28078 0.133481 0)
(5.31275 0.10301 0)
(5.35738 0.0897484 0)
(5.3543 0.0593828 0)
(5.41788 0.0697604 0)
(5.35103 0.0200496 0)
(5.49726 0.072021 0)
(5.28248 -0.022932 0)
(5.64248 0.0856024 0)
(5.10745 -0.0478597 0)
(5.89355 0.0452775 0)
(4.80794 0.0502793 0)
(6.20837 -0.224865 0)
(4.49335 0.475639 0)
(6.37574 -0.928543 0)
(4.44386 1.35393 0)
(6.14524 -1.88179 0)
(4.90475 2.15555 0)
(5.57002 -2.10309 0)
(5.5914 1.78776 0)
(5.13558 -1.25384 0)
(5.61585 0.955819 0)
(5.43427 -0.850434 0)
(5.11877 1.24756 0)
(5.78394 -1.5968 0)
(5.25095 2.05108 0)
(5.44455 -1.88087 0)
(5.50328 1.743 0)
(5.44184 -1.35628 0)
(5.20507 1.60509 0)
(5.61191 -1.7698 0)
(5.32513 2.24353 0)
(5.49322 -2.12383 0)
(5.19001 2.00953 0)
(5.77295 -1.71989 0)
(5.10939 2.21823 0)
(5.7612 -2.33075 0)
(5.1877 2.53988 0)
(6.0741 -1.93864 0)
(5.02792 2.50651 0)
(6.21384 -2.40387 0)
(5.2656 3.02586 0)
(6.55081 -2.0136 0)
(5.27635 3.06991 0)
(6.53247 -2.40611 0)
(5.80631 3.6493 0)
(6.86647 -1.91646 0)
(6.07856 4.31443 0)
(6.89157 -1.87668 0)
(6.7509 4.90496 0)
(7.66019 -0.787312 0)
(7.73667 5.40828 0)
(8.42932 1.00082 0)
(10.1375 5.20994 0)
(13.1712 -0.297125 0)
(13.2711 -0.245932 0)
(13.0948 0.0834167 0)
(13.1261 0.0681932 0)
(13.2575 -0.35724 0)
(13.2796 -0.395182 0)
(13.7182 -0.356623 0)
(13.7578 -0.450782 0)
(13.1421 -0.189553 0)
(13.4928 -0.383389 0)
(14.0145 -1.20355 0)
(13.7424 -1.71371 0)
(13.5061 -1.92453 0)
(13.4994 -2.34119 0)
(13.4284 -2.88324 0)
(12.9275 -3.13761 0)
(12.2039 -3.33539 0)
(11.4184 -3.65146 0)
(9.82593 -3.59778 0)
(7.48057 -3.27518 0)
(5.63847 -3.29376 0)
(4.67407 -3.60448 0)
(4.01433 -3.88795 0)
(3.318 -3.84564 0)
(3.10231 -3.19066 0)
(2.75549 -2.19256 0)
(2.49054 -1.04804 0)
(2.23367 0.228911 0)
(2.0343 1.71341 0)
(2.09941 3.16805 0)
(2.34 4.0666 0)
(2.59141 4.27444 0)
(2.97691 3.86089 0)
(3.40604 3.15914 0)
(3.60074 2.51514 0)
(3.76171 1.95722 0)
(4.05172 1.45512 0)
(4.38431 1.05737 0)
(4.66643 0.785215 0)
(4.87911 0.607616 0)
(5.03688 0.484169 0)
(5.15339 0.389156 0)
(5.23601 0.311875 0)
(5.28887 0.247954 0)
(5.32136 0.197127 0)
(5.33811 0.154932 0)
(5.35357 0.125182 0)
(5.35836 0.0949753 0)
(5.37907 0.0840402 0)
(5.37136 0.051819 0)
(5.41339 0.0680426 0)
(5.36915 0.00992943 0)
(5.46761 0.0784139 0)
(5.33056 -0.0424562 0)
(5.56498 0.108827 0)
(5.22711 -0.0874979 0)
(5.73136 0.0976326 0)
(5.04346 -0.0172535 0)
(5.94133 -0.13581 0)
(4.83052 0.383452 0)
(6.05215 -0.812262 0)
(4.72967 1.24106 0)
(5.92604 -1.7734 0)
(4.92853 2.0659 0)
(5.58677 -2.02945 0)
(5.46239 1.73475 0)
(5.14429 -1.13712 0)
(5.66759 0.804153 0)
(5.21932 -0.635075 0)
(5.28992 1.04166 0)
(5.54801 -1.46924 0)
(5.29595 2.03389 0)
(5.1643 -1.91709 0)
(5.65293 1.78922 0)
(5.01712 -1.37909 0)
(5.37471 1.58113 0)
(5.23654 -1.74315 0)
(5.34104 2.24786 0)
(5.22885 -2.04404 0)
(5.29067 2.02858 0)
(5.40783 -1.69572 0)
(5.14223 2.26533 0)
(5.48527 -2.33669 0)
(5.19858 2.62017 0)
(5.67712 -2.06552 0)
(5.07847 2.60001 0)
(5.85401 -2.55411 0)
(5.20649 3.23505 0)
(6.07652 -2.30343 0)
(5.23891 3.36799 0)
(6.25675 -2.61587 0)
(5.77653 3.87308 0)
(6.6833 -2.06265 0)
(6.3224 4.35947 0)
(7.01825 -1.88142 0)
(6.91829 4.60284 0)
(7.55741 -0.842905 0)
(8.05229 4.79101 0)
(8.34442 1.05278 0)
(9.59431 4.23999 0)
(13.1486 -0.266004 0)
(12.8502 -0.00747335 0)
(12.8817 0.213266 0)
(13.5959 -0.15183 0)
(13.6887 -0.506776 0)
(13.2447 -0.321872 0)
(13.1054 -0.164915 0)
(12.9761 -0.268471 0)
(13.3785 -0.427623 0)
(13.9097 -0.689387 0)
(13.6112 -1.03218 0)
(13.392 -1.44126 0)
(13.4897 -1.83523 0)
(13.2709 -2.30119 0)
(12.7251 -2.72809 0)
(12.0411 -2.85558 0)
(11.2618 -2.98146 0)
(9.97759 -3.09203 0)
(7.92504 -2.78584 0)
(5.69149 -2.50267 0)
(4.17788 -2.76895 0)
(3.30118 -3.25773 0)
(2.58544 -3.64201 0)
(1.88232 -3.6433 0)
(1.57756 -2.98479 0)
(1.14675 -2.03934 0)
(0.795429 -0.972362 0)
(0.722813 0.304681 0)
(0.597653 1.69077 0)
(0.763138 3.06498 0)
(1.05141 3.93937 0)
(1.54295 4.08991 0)
(2.31741 3.63538 0)
(2.84157 3.03537 0)
(3.15515 2.45508 0)
(3.59295 1.84975 0)
(4.09159 1.29857 0)
(4.48743 0.895695 0)
(4.74373 0.642929 0)
(4.89852 0.491751 0)
(4.99574 0.396467 0)
(5.06341 0.329089 0)
(5.11705 0.275801 0)
(5.16341 0.229438 0)
(5.20719 0.189051 0)
(5.2461 0.151426 0)
(5.28442 0.122864 0)
(5.31254 0.0920064 0)
(5.34515 0.0808107 0)
(5.35728 0.0472826 0)
(5.3907 0.0651303 0)
(5.3804 0.0039428 0)
(5.42953 0.078789 0)
(5.38357 -0.0526397 0)
(5.47273 0.118005 0)
(5.367 -0.109786 0)
(5.53182 0.127512 0)
(5.32648 -0.0648571 0)
(5.61142 -0.0658617 0)
(5.23752 0.301558 0)
(5.69232 -0.694445 0)
(5.04862 1.12856 0)
(5.76826 -1.63643 0)
(4.88752 1.97163 0)
(5.7439 -1.95344 0)
(5.17626 1.71215 0)
(5.33093 -1.08729 0)
(5.59429 0.709465 0)
(5.06576 -0.493755 0)
(5.49909 0.860208 0)
(5.3326 -1.37333 0)
(5.26811 1.97334 0)
(5.29297 -1.84267 0)
(5.60865 1.71354 0)
(5.09281 -1.18214 0)
(5.45571 1.4893 0)
(5.35129 -1.68614 0)
(5.26679 2.26922 0)
(5.46269 -1.96346 0)
(5.28197 1.9806 0)
(5.46836 -1.66073 0)
(5.20188 2.3054 0)
(5.64805 -2.33023 0)
(5.21642 2.63382 0)
(5.746 -1.95067 0)
(5.21933 2.65769 0)
(5.94234 -2.63244 0)
(5.28088 3.26944 0)
(6.12053 -2.24579 0)
(5.58358 3.3119 0)