/*--------------------------------*- C++ -*----------------------------------*\
| =========                 |                                                 |
| \\      /  F ield         | OpenFOAM: The Open Source CFD Toolbox           |
|  \\    /   O peration     | Version:  2.4.0                                 |
|   \\  /    A nd           | Web:      www.OpenFOAM.org                      |
|    \\/     M anipulation  |                                                 |
\*---------------------------------------------------------------------------*/
FoamFile
{
    version     2.0;
    format      ascii;
    class       volScalarField;
    location    "0.225";
    object      nuSgs;
}
// * * * * * * * * * * * * * * * * * * * * * * * * * * * * * * * * * * * * * //

dimensions      [0 2 -1 0 0 0 0];

internalField   nonuniform List<scalar> 
17600
(
0.00101311
0.000903831
0.000753357
0.000658485
0.000607606
0.000571936
0.000543486
0.00052525
0.00050441
0.000496899
0.000477999
0.000478823
0.000460837
0.000463144
0.000449309
0.000444675
0.000445252
0.000424379
0.000425942
0.000438999
0.000705993
0.000826958
0.000803674
0.000746702
0.00069871
0.00066043
0.000627545
0.000608448
0.000583268
0.000574363
0.000552337
0.000551636
0.000532895
0.000533626
0.000521339
0.000514296
0.000515586
0.000495976
0.000502777
0.000497468
0.000383771
0.00060097
0.000664612
0.000661635
0.000644669
0.000620209
0.000593967
0.000580158
0.00055755
0.000550256
0.000530416
0.000528724
0.0005131
0.000511934
0.00050349
0.000495177
0.000496545
0.000481865
0.0004892
0.000477298
0.000152229
0.000362705
0.000460587
0.000507916
0.00052601
0.00052817
0.000521301
0.000516521
0.000502995
0.000499216
0.000485187
0.000483652
0.00047315
0.00047099
0.000465875
0.000458452
0.000459214
0.000450528
0.000453754
0.000446107
5.39001e-05
0.000172384
0.00026301
0.000329141
0.000368187
0.000399784
0.000410759
0.000422485
0.00042174
0.000424583
0.00042007
0.000420421
0.000417427
0.00041552
0.000414546
0.000409983
0.000410106
0.000408493
0.000406302
0.000403861
1.75117e-05
7.04091e-05
0.000115854
0.000177778
0.000210112
0.000253126
0.000277515
0.000301877
0.000312225
0.00032833
0.000332851
0.000336898
0.000344179
0.000344448
0.00034869
0.000347912
0.000348755
0.00035346
0.000350475
0.000351485
5.61855e-06
2.63591e-05
4.51494e-05
7.75083e-05
9.76463e-05
0.00012877
0.000155839
0.000178025
0.000194432
0.000214228
0.000230488
0.000236377
0.000252521
0.000256119
0.000268034
0.000270748
0.000273777
0.00028584
0.000284776
0.000288695
2.32455e-06
9.56754e-06
1.63469e-05
2.85476e-05
3.82828e-05
5.12536e-05
7.29139e-05
8.51996e-05
9.99596e-05
0.000113208
0.000132549
0.000138522
0.000156009
0.000161387
0.000176455
0.000183715
0.000187832
0.000205576
0.000208184
0.000217593
1.72973e-06
3.85542e-06
6.00197e-06
1.01526e-05
1.34651e-05
1.82427e-05
2.77956e-05
3.3658e-05
4.2126e-05
4.86974e-05
6.18712e-05
6.65646e-05
7.93684e-05
8.37041e-05
9.50167e-05
0.000103441
0.000107263
0.000123833
0.000128122
0.000142611
1.6445e-06
2.59408e-06
2.99447e-06
4.29406e-06
5.41117e-06
6.84541e-06
9.83761e-06
1.20645e-05
1.50148e-05
1.75992e-05
2.35998e-05
2.60606e-05
3.33193e-05
3.55186e-05
4.19984e-05
4.71792e-05
4.97969e-05
6.07584e-05
6.42223e-05
7.67138e-05
1.5983e-06
2.33402e-06
2.39178e-06
2.83036e-06
3.50951e-06
3.86337e-06
4.54613e-06
5.22568e-06
5.65149e-06
6.26194e-06
8.29066e-06
9.06289e-06
1.20452e-05
1.28796e-05
1.58291e-05
1.8055e-05
1.90207e-05
2.41935e-05
2.62787e-05
3.24331e-05
1.57478e-06
2.00707e-06
2.31274e-06
2.84678e-06
2.8737e-06
2.90801e-06
3.20348e-06
3.58441e-06
3.64153e-06
3.72237e-06
4.06703e-06
4.05314e-06
4.56005e-06
4.82934e-06
5.71424e-06
7.28632e-06
7.58565e-06
9.309e-06
1.02263e-05
1.19574e-05
1.56944e-06
1.9285e-06
2.41995e-06
2.47004e-06
2.44432e-06
2.55725e-06
2.86817e-06
3.08647e-06
3.39965e-06
3.42949e-06
3.30819e-06
2.95079e-06
2.94538e-06
3.02401e-06
3.31158e-06
4.47381e-06
4.76217e-06
5.09436e-06
5.28268e-06
5.74246e-06
1.54865e-06
1.92827e-06
2.17926e-06
2.1508e-06
2.24693e-06
2.65421e-06
2.77816e-06
2.8168e-06
2.97138e-06
2.94979e-06
2.87015e-06
2.7811e-06
2.81844e-06
2.96847e-06
3.02769e-06
3.27932e-06
3.46105e-06
3.50159e-06
3.62991e-06
3.98518e-06
1.5266e-06
1.81954e-06
1.94557e-06
2.14418e-06
2.35641e-06
2.48213e-06
2.48645e-06
2.46461e-06
2.4717e-06
2.50127e-06
2.74693e-06
2.81646e-06
2.82079e-06
2.8129e-06
2.70406e-06
2.70588e-06
2.74357e-06
2.88311e-06
3.19502e-06
3.79314e-06
1.51707e-06
1.70697e-06
1.97241e-06
2.21206e-06
2.22557e-06
2.2189e-06
2.22341e-06
2.24813e-06
2.32602e-06
2.45622e-06
2.64575e-06
2.64109e-06
2.56228e-06
2.48696e-06
2.42901e-06
2.44823e-06
2.54808e-06
2.89878e-06
3.04121e-06
3.38018e-06
1.51365e-06
1.69855e-06
1.94843e-06
2.02175e-06
2.10434e-06
2.1544e-06
2.24458e-06
2.25294e-06
2.25904e-06
2.27016e-06
2.36328e-06
2.38229e-06
2.3841e-06
2.38209e-06
2.36637e-06
2.3779e-06
2.49169e-06
2.55997e-06
2.59979e-06
2.99943e-06
1.50607e-06
1.7399e-06
1.87908e-06
1.95818e-06
2.06206e-06
2.14081e-06
2.18774e-06
2.18e-06
2.16856e-06
2.16769e-06
2.23576e-06
2.31523e-06
2.33077e-06
2.32474e-06
2.28854e-06
2.30145e-06
2.32659e-06
2.35364e-06
2.48917e-06
3.10874e-06
1.5043e-06
1.7327e-06
1.92868e-06
1.95524e-06
1.96066e-06
2.00802e-06
2.12e-06
2.14264e-06
2.14369e-06
2.13852e-06
2.15951e-06
2.17235e-06
2.19411e-06
2.20532e-06
2.20446e-06
2.2075e-06
2.21731e-06
2.27372e-06
2.3177e-06
3.39673e-06
1.50421e-06
1.71724e-06
1.88489e-06
1.97297e-06
1.98371e-06
2.00768e-06
2.09204e-06
2.12333e-06
2.12486e-06
2.11557e-06
2.12188e-06
2.14736e-06
2.17208e-06
2.18023e-06
2.18613e-06
2.17946e-06
2.18696e-06
2.23102e-06
2.40223e-06
2.75421e-06
1.50373e-06
1.6451e-06
1.94718e-06
2.06206e-06
2.03249e-06
1.98427e-06
1.99765e-06
2.08862e-06
2.14223e-06
2.13928e-06
2.15008e-06
2.14797e-06
2.14805e-06
2.14957e-06
2.15635e-06
2.19175e-06
2.23583e-06
2.26281e-06
2.39842e-06
3.10897e-06
1.50579e-06
1.66395e-06
2.0114e-06
2.03936e-06
1.9911e-06
1.96987e-06
2.06256e-06
2.17483e-06
2.17826e-06
2.15104e-06
2.15492e-06
2.15244e-06
2.19473e-06
2.21374e-06
2.22991e-06
2.29041e-06
2.29602e-06
2.3216e-06
2.36254e-06
3.03274e-06
1.50725e-06
1.72956e-06
1.99125e-06
1.99612e-06
1.9858e-06
2.06003e-06
2.21386e-06
2.21303e-06
2.16965e-06
2.17347e-06
2.18793e-06
2.21488e-06
2.31334e-06
2.31086e-06
2.31438e-06
2.36023e-06
2.33784e-06
2.34397e-06
2.5718e-06
2.63646e-06
1.51336e-06
1.73048e-06
1.9826e-06
2.04565e-06
2.11422e-06
2.1836e-06
2.22104e-06
2.18995e-06
2.19848e-06
2.27395e-06
2.29044e-06
2.34143e-06
2.37922e-06
2.36981e-06
2.41148e-06
2.41569e-06
2.40779e-06
2.50768e-06
2.578e-06
2.79916e-06
1.51895e-06
1.76329e-06
2.03549e-06
2.14191e-06
2.16341e-06
2.23058e-06
2.24827e-06
2.25158e-06
2.34878e-06
2.38329e-06
2.38443e-06
2.45465e-06
2.46987e-06
2.50836e-06
2.56298e-06
2.54499e-06
2.55009e-06
2.65117e-06
2.62865e-06
2.69139e-06
1.52854e-06
1.78571e-06
2.02686e-06
2.18388e-06
2.28269e-06
2.40225e-06
2.42058e-06
2.45871e-06
2.46386e-06
2.43826e-06
2.4555e-06
2.60779e-06
2.67897e-06
2.799e-06
2.77562e-06
2.75124e-06
2.78338e-06
2.78405e-06
2.78054e-06
2.86056e-06
1.53736e-06
1.7543e-06
2.07209e-06
2.40966e-06
2.55813e-06
2.5787e-06
2.56222e-06
2.54746e-06
2.49439e-06
2.52217e-06
2.76008e-06
2.97813e-06
3.11567e-06
3.12641e-06
3.0619e-06
3.06531e-06
3.09564e-06
3.12832e-06
3.27208e-06
3.74347e-06
1.54663e-06
1.78998e-06
2.32244e-06
2.68513e-06
2.72081e-06
2.66547e-06
2.58529e-06
2.55612e-06
2.5871e-06
2.98695e-06
3.36936e-06
3.55956e-06
3.63234e-06
3.58774e-06
3.59418e-06
3.71826e-06
3.90081e-06
4.35068e-06
5.17688e-06
6.09722e-06
1.56576e-06
1.86641e-06
2.75411e-06
2.85827e-06
2.8371e-06
2.68507e-06
2.72087e-06
2.82638e-06
3.35956e-06
4.27704e-06
4.48621e-06
4.91203e-06
5.06552e-06
5.25497e-06
5.74162e-06
7.00601e-06
8.03083e-06
1.01813e-05
1.2258e-05
1.61003e-05
1.59874e-06
2.12862e-06
3.24561e-06
3.11984e-06
3.081e-06
3.14735e-06
3.88287e-06
4.60715e-06
6.30371e-06
7.91688e-06
8.47707e-06
1.02495e-05
1.12413e-05
1.29219e-05
1.51727e-05
1.96537e-05
2.23219e-05
2.79243e-05
3.25004e-05
4.24608e-05
1.65314e-06
3.14276e-06
4.08001e-06
4.13991e-06
4.77487e-06
6.15369e-06
9.54028e-06
1.16236e-05
1.54232e-05
2.03915e-05
2.22943e-05
2.78789e-05
3.10476e-05
3.65943e-05
4.16646e-05
5.14211e-05
5.63074e-05
6.70297e-05
7.45117e-05
9.43607e-05
1.74606e-06
5.27114e-06
7.49927e-06
9.07363e-06
1.33005e-05
1.81285e-05
2.74157e-05
3.27709e-05
4.19078e-05
5.35659e-05
5.81116e-05
6.98728e-05
7.70365e-05
8.62928e-05
9.5347e-05
0.000110324
0.000117037
0.000131761
0.000141277
0.000168379
2.32853e-06
1.10851e-05
1.91373e-05
2.54525e-05
3.9976e-05
5.13887e-05
7.20948e-05
8.26976e-05
0.000101759
0.000119174
0.000126483
0.000143648
0.000155785
0.000164312
0.000177271
0.000192234
0.000199066
0.000213451
0.000222191
0.000244407
5.61182e-06
2.79105e-05
5.16891e-05
6.89958e-05
0.000103569
0.000124091
0.00015783
0.000172916
0.000200376
0.000216573
0.000224914
0.000243
0.000253076
0.000258506
0.000269661
0.000278632
0.000283119
0.000292569
0.000298157
0.000311942
1.75338e-05
7.25454e-05
0.000127357
0.000162761
0.000218688
0.000247906
0.000280968
0.000296457
0.000318395
0.000326256
0.000332479
0.000341016
0.000344881
0.000346038
0.000350719
0.000352778
0.000354791
0.000358059
0.000360633
0.000366036
5.38916e-05
0.000177588
0.000264128
0.000323298
0.000372424
0.000395522
0.000414233
0.00041819
0.000425267
0.0004229
0.000422418
0.000420743
0.00041933
0.000415359
0.000415208
0.00041247
0.000411821
0.000409844
0.000409091
0.000407836
0.00015221
0.000365183
0.000459366
0.000505999
0.000527252
0.000526597
0.000523259
0.000513008
0.00050765
0.000494738
0.000490289
0.000480211
0.00047621
0.000468229
0.000465317
0.000457625
0.000455253
0.000448911
0.000444239
0.00043933
0.000383834
0.00060231
0.000663284
0.000661096
0.000644942
0.00061837
0.000597298
0.000575639
0.000562857
0.000543921
0.000537402
0.000522049
0.000516913
0.000506509
0.000501404
0.000489934
0.000486104
0.000475178
0.000467617
0.000457169
0.000706323
0.000827464
0.000802514
0.000747381
0.000697712
0.000659288
0.000630131
0.000604588
0.000587769
0.000567134
0.000560111
0.000542148
0.00053682
0.000525032
0.000518378
0.000504303
0.000499322
0.000484381
0.000474873
0.000457601
0.00101343
0.00090424
0.000751634
0.000659898
0.000606637
0.000571271
0.000544631
0.000522924
0.000507564
0.000489936
0.000484678
0.000468968
0.000463993
0.000452917
0.00044699
0.000433086
0.000427812
0.000412428
0.000402622
0.000381011
0.000191011
0.000131668
0.000138392
0.00010724
7.30721e-05
7.03344e-05
7.28758e-05
7.93764e-05
8.03468e-05
7.5145e-05
6.43371e-05
6.08669e-05
6.23727e-05
7.28246e-05
8.80217e-05
0.000103722
0.000109463
0.000109476
0.000101203
9.14404e-05
8.97954e-05
9.23189e-05
9.37478e-05
9.14894e-05
8.47332e-05
6.6405e-05
4.33401e-05
2.82771e-05
1.83457e-05
1.23481e-05
9.20929e-06
7.32638e-06
6.26663e-06
5.8436e-06
5.76569e-06
5.98516e-06
7.0711e-06
9.80016e-06
1.42152e-05
2.15575e-05
2.79683e-05
3.38535e-05
3.61057e-05
3.6859e-05
3.64667e-05
3.44699e-05
3.30848e-05
3.12878e-05
2.79738e-05
2.66518e-05
2.59551e-05
2.6099e-05
2.80015e-05
3.13594e-05
3.88904e-05
5.28372e-05
5.85487e-05
5.85047e-05
5.32696e-05
4.48045e-05
4.00017e-05
3.84145e-05
3.81701e-05
3.87956e-05
4.20843e-05
4.46575e-05
4.67468e-05
4.72351e-05
4.41539e-05
3.75609e-05
3.42857e-05
3.35181e-05
3.21608e-05
3.0697e-05
2.98999e-05
2.98071e-05
3.14772e-05
3.19396e-05
3.18522e-05
3.22855e-05
3.32479e-05
3.48131e-05
4.09125e-05
5.68078e-05
6.27735e-05
6.73711e-05
7.26369e-05
7.33331e-05
7.11353e-05
6.50013e-05
5.86476e-05
5.28666e-05
4.87821e-05
4.68728e-05
4.70769e-05
4.87846e-05
4.87566e-05
4.54199e-05
3.54849e-05
2.98804e-05
2.85031e-05
2.8932e-05
2.97056e-05
3.02946e-05
3.02988e-05
2.9293e-05
2.84914e-05
2.73442e-05
2.68238e-05
2.6944e-05
2.88567e-05
3.32789e-05
3.45228e-05
3.38799e-05
3.27311e-05
3.271e-05
3.4186e-05
5.04097e-05
6.12975e-05
6.3029e-05
6.49897e-05
6.8995e-05
8.76073e-05
9.98927e-05
9.55017e-05
7.30411e-05
5.84987e-05
5.41978e-05
5.05257e-05
4.40376e-05
3.93535e-05
3.78876e-05
3.71778e-05
3.65184e-05
3.60852e-05
3.52764e-05
3.50346e-05
3.51985e-05
3.55894e-05
3.83877e-05
4.37183e-05
4.729e-05
4.78859e-05
4.61216e-05
4.05217e-05
3.4704e-05
3.16108e-05
2.93231e-05
2.63067e-05
2.3126e-05
2.00393e-05
1.91762e-05
1.96475e-05
2.17178e-05
2.65628e-05
3.04599e-05
3.05311e-05
3.39483e-05
3.20937e-05
3.22758e-05
3.25571e-05
3.80485e-05
4.35361e-05
4.81616e-05
4.83213e-05
4.62626e-05
4.49835e-05
5.00451e-05
5.33658e-05
5.48906e-05
5.53479e-05
5.28772e-05
5.26518e-05
5.50693e-05
5.45597e-05
5.32673e-05
5.40984e-05
5.55175e-05
5.54334e-05
5.24295e-05
4.82422e-05
4.73942e-05
4.81742e-05
4.90276e-05
4.88391e-05
4.63496e-05
4.26168e-05
4.13846e-05
4.18017e-05
4.39112e-05
4.56803e-05
4.58679e-05
4.33381e-05
3.83924e-05
3.82482e-05
4.64534e-05
5.10743e-05
5.18548e-05
5.81904e-05
0.000107832
0.000238579
0.000199765
0.000171929
0.000171912
0.000131483
9.99562e-05
9.55081e-05
9.666e-05
9.68135e-05
8.80764e-05
7.6216e-05
7.34098e-05
7.61374e-05
9.35052e-05
0.000112625
0.000121539
0.000121547
0.000119864
0.000111759
0.000106294
0.000104243
0.000100195
9.63846e-05
8.82408e-05
6.82595e-05
4.40794e-05
2.93305e-05
1.93806e-05
1.27873e-05
9.38488e-06
7.6116e-06
6.49978e-06
5.95895e-06
5.79128e-06
5.88397e-06
6.54678e-06
8.81859e-06
1.32865e-05
1.98131e-05
2.99398e-05
3.71165e-05
4.22393e-05
4.4072e-05
4.39333e-05
4.34122e-05
4.13581e-05
3.91926e-05
3.63396e-05
3.23137e-05
2.9346e-05
2.72005e-05
2.68727e-05
2.80638e-05
3.11715e-05
3.76603e-05
5.15583e-05
5.81615e-05
5.84749e-05
5.38214e-05
4.49123e-05
3.99511e-05
3.83481e-05
3.82518e-05
3.92991e-05
4.27574e-05
4.55202e-05
4.72912e-05
4.73073e-05
4.33972e-05
3.72536e-05
3.43065e-05
3.31293e-05
3.15948e-05
3.04673e-05
2.97109e-05
2.94771e-05
3.02672e-05
3.09827e-05
3.1339e-05
3.2239e-05
3.36366e-05
3.59131e-05
4.5059e-05
6.0647e-05
6.57408e-05
6.8852e-05
7.30972e-05
7.35568e-05
7.11404e-05
6.50306e-05
5.87696e-05
5.29508e-05
4.87368e-05
4.70254e-05
4.7683e-05
4.94944e-05
4.89276e-05
4.34006e-05
3.30245e-05
2.75001e-05
2.64488e-05
2.69284e-05
2.72655e-05
2.81514e-05
2.86076e-05
2.81702e-05
2.76181e-05
2.67377e-05
2.63067e-05
2.63966e-05
2.78925e-05
3.23754e-05
3.40002e-05
3.37779e-05
3.28944e-05
3.28891e-05
3.44403e-05
5.21416e-05
6.22167e-05
6.36116e-05
6.53957e-05
6.91535e-05
8.90058e-05
9.8714e-05
9.32859e-05
7.17507e-05
5.85458e-05
5.41762e-05
5.10347e-05
4.45854e-05
3.95163e-05
3.80326e-05
3.74228e-05
3.68532e-05
3.59461e-05
3.50347e-05
3.4838e-05
3.51665e-05
3.57173e-05
3.82523e-05
4.3553e-05
4.73459e-05
4.78933e-05
4.6587e-05
4.05533e-05
3.48962e-05
3.13606e-05
2.94202e-05
2.60393e-05
2.30533e-05
2.01004e-05
1.8988e-05
1.96281e-05
2.3015e-05
2.55871e-05
2.85562e-05
2.83161e-05
2.94964e-05
2.87824e-05
2.95138e-05
3.10116e-05
3.69722e-05
4.50338e-05
4.91425e-05
4.81818e-05
4.40276e-05
4.32153e-05
4.61376e-05
5.04082e-05
5.4039e-05
5.55273e-05
5.37848e-05
5.31203e-05
5.69309e-05
5.83845e-05
5.62172e-05
5.38923e-05
5.3939e-05
5.44639e-05
5.29253e-05
4.81605e-05
4.64123e-05
4.67612e-05
4.83956e-05
4.84626e-05
4.71647e-05
4.32287e-05
4.11944e-05
4.11868e-05
4.33172e-05
4.54217e-05
4.5134e-05
4.19929e-05
3.8497e-05
3.86795e-05
4.62005e-05
5.22346e-05
5.2901e-05
6.00449e-05
9.22809e-05
0.000233427
0.000217912
0.00018751
0.00019195
0.000184248
0.000157028
0.000143362
0.000133924
0.000133807
0.000130573
0.000116473
0.000112357
0.000113902
0.000120869
0.000125378
0.000124968
0.000122647
0.000119741
0.000111849
0.000108147
0.000105273
9.89322e-05
8.85879e-05
6.62787e-05
4.34668e-05
2.84747e-05
1.98751e-05
1.32296e-05
9.21021e-06
7.66106e-06
6.70107e-06
6.08484e-06
5.85584e-06
5.87742e-06
6.19671e-06
7.67885e-06
1.15961e-05
1.81279e-05
2.79785e-05
3.96442e-05
4.62796e-05
5.11901e-05
5.17378e-05
5.11501e-05
4.9845e-05
4.71393e-05
4.54141e-05
4.19723e-05
3.60816e-05
3.26659e-05
2.95257e-05
2.81602e-05
2.86713e-05
3.09588e-05
3.59584e-05
4.96963e-05
5.75334e-05
5.845e-05
5.48662e-05
4.53008e-05
4.00391e-05
3.83872e-05
3.83726e-05
3.96687e-05
4.29723e-05
4.59298e-05
4.76127e-05
4.73486e-05
4.29398e-05
3.72326e-05
3.43291e-05
3.28529e-05
3.15328e-05
3.04118e-05
2.96183e-05
2.93908e-05
2.9835e-05
3.05316e-05
3.11604e-05
3.25519e-05
3.42393e-05
3.74261e-05
5.02837e-05
6.42257e-05
6.83087e-05
6.98604e-05
7.33506e-05
7.36277e-05
7.11768e-05
6.51224e-05
5.89204e-05
5.31363e-05
4.86713e-05
4.71735e-05
4.83868e-05
5.01505e-05
4.89887e-05
4.08468e-05
3.06722e-05
2.56592e-05
2.47815e-05
2.55013e-05
2.5721e-05
2.5707e-05
2.65188e-05
2.66779e-05
2.67059e-05
2.62381e-05
2.5819e-05
2.58902e-05
2.71209e-05
3.17279e-05
3.37087e-05
3.3631e-05
3.30029e-05
3.29604e-05
3.49038e-05
5.43452e-05
6.31132e-05
6.41943e-05
6.5717e-05
6.97236e-05
9.00682e-05
9.74852e-05
9.07257e-05
7.0228e-05
5.82342e-05
5.3955e-05
5.13431e-05
4.51237e-05
3.96627e-05
3.79634e-05
3.75531e-05
3.70379e-05
3.58524e-05
3.48229e-05
3.47559e-05
3.53722e-05
3.60335e-05
3.82448e-05
4.3522e-05
4.74425e-05
4.80583e-05
4.70453e-05
4.06658e-05
3.52755e-05
3.13754e-05
2.94644e-05
2.60448e-05
2.29266e-05
2.02883e-05
1.90814e-05
1.97824e-05
2.36439e-05
2.53534e-05
2.67557e-05
2.74433e-05
2.7488e-05
2.7897e-05
2.88488e-05
3.08644e-05
3.60125e-05
4.51559e-05
4.62997e-05
4.4326e-05
4.21955e-05
4.23936e-05
4.53041e-05
4.97722e-05
5.40701e-05
5.65807e-05
5.59027e-05
5.38686e-05
5.71393e-05
6.06668e-05
6.01958e-05
5.57713e-05
5.37271e-05
5.31988e-05
5.23665e-05
4.80742e-05
4.54419e-05
4.53679e-05
4.69511e-05
4.78142e-05
4.7095e-05
4.39544e-05
4.12231e-05
4.07941e-05
4.22897e-05
4.38636e-05
4.35474e-05
4.1537e-05
3.84799e-05
3.80726e-05
4.39489e-05
5.21677e-05
5.29372e-05
5.95933e-05
8.2974e-05
0.00022276
0.000213314
0.00019042
0.000187933
0.000186997
0.00017985
0.000170991
0.000156138
0.000153156
0.000152066
0.00014934
0.000145363
0.000140508
0.000137708
0.000131913
0.000120454
0.000111044
0.00010418
9.92403e-05
9.6564e-05
9.00907e-05
7.90637e-05
5.57084e-05
3.92214e-05
2.65143e-05
1.84617e-05
1.35029e-05
9.09455e-06
7.22627e-06
6.77354e-06
6.23991e-06
5.93301e-06
5.86851e-06
6.02615e-06
6.87825e-06
9.725e-06
1.58034e-05
2.53645e-05
3.93992e-05
5.03835e-05
5.65869e-05
5.99486e-05
5.99687e-05
5.88938e-05
5.60852e-05
5.19134e-05
5.00711e-05
4.75126e-05
4.06812e-05
3.64694e-05
3.19199e-05
2.91632e-05
2.92673e-05
3.08412e-05
3.44513e-05
4.73225e-05
5.66813e-05
5.83563e-05
5.58499e-05
4.63347e-05
4.03893e-05
3.85801e-05
3.85989e-05
3.99282e-05
4.29496e-05
4.60156e-05
4.76005e-05
4.71823e-05
4.28257e-05
3.73119e-05
3.43834e-05
3.28352e-05
3.16192e-05
3.04818e-05
2.9678e-05
2.94069e-05
2.9721e-05
3.0396e-05
3.12364e-05
3.28416e-05
3.49034e-05
3.95529e-05
5.60372e-05
6.77128e-05
7.01537e-05
7.06098e-05
7.33803e-05
7.36636e-05
7.12164e-05
6.52095e-05
5.90842e-05
5.33028e-05
4.85043e-05
4.73121e-05
4.91537e-05
5.06114e-05
4.84636e-05
3.77813e-05
2.88796e-05
2.51449e-05
2.45151e-05
2.52605e-05
2.55206e-05
2.49975e-05
2.51028e-05
2.5431e-05
2.57194e-05
2.57151e-05
2.54532e-05
2.54961e-05
2.65334e-05
3.10365e-05
3.33098e-05
3.34687e-05
3.31269e-05
3.30804e-05
3.59157e-05
5.69046e-05
6.41165e-05
6.49893e-05
6.60178e-05
7.03094e-05
9.13136e-05
9.61287e-05
8.83454e-05
6.88366e-05
5.78236e-05
5.38949e-05
5.16654e-05
4.57554e-05
3.99163e-05
3.78267e-05
3.74442e-05
3.70848e-05
3.57635e-05
3.4739e-05
3.47309e-05
3.57097e-05
3.64299e-05
3.83599e-05
4.37221e-05
4.75488e-05
4.82542e-05
4.74179e-05
4.06407e-05
3.5723e-05
3.16176e-05
2.94675e-05
2.62717e-05
2.28114e-05
2.03776e-05
1.92635e-05
1.982e-05
2.39024e-05
2.5444e-05
2.60842e-05
2.68893e-05
2.71518e-05
2.79096e-05
2.93964e-05
3.14167e-05
3.68548e-05
4.31655e-05
4.30748e-05
4.27224e-05
4.24246e-05
4.32574e-05
4.60213e-05
5.0959e-05
5.48206e-05
5.66753e-05
5.68093e-05
5.49713e-05
5.72559e-05
6.30614e-05
6.34715e-05
5.98119e-05
5.48821e-05
5.33912e-05
5.1984e-05
4.7801e-05
4.4672e-05
4.42432e-05
4.53458e-05
4.6928e-05
4.67812e-05
4.43905e-05
4.13499e-05
4.05487e-05
4.10711e-05
4.23869e-05
4.26678e-05
4.20259e-05
3.91064e-05
3.76052e-05
4.0286e-05
4.96333e-05
5.19663e-05
5.77736e-05
7.64194e-05
0.00020772
0.000200977
0.000187193
0.000178094
0.000177758
0.000175706
0.000171005
0.000162536
0.000156905
0.000152552
0.000151124
0.000147476
0.000142084
0.000136087
0.000127609
0.000115513
0.000103972
9.05347e-05
8.03756e-05
7.20604e-05
5.8435e-05
4.51356e-05
3.31122e-05
2.41969e-05
1.64848e-05
1.23177e-05
9.15393e-06
6.73698e-06
6.42694e-06
6.35034e-06
6.00311e-06
5.87532e-06
5.96584e-06
6.39443e-06
8.197e-06
1.29222e-05
2.20467e-05
3.64475e-05
5.2052e-05
6.15415e-05
6.58872e-05
6.68379e-05
6.63114e-05
6.50575e-05
6.27718e-05
5.66921e-05
5.35812e-05
5.1722e-05
4.63677e-05
4.05562e-05
3.42955e-05
3.00259e-05
2.97607e-05
3.08916e-05
3.34002e-05
4.43132e-05
5.5559e-05
5.8133e-05
5.6515e-05
4.7979e-05
4.12527e-05
3.90647e-05
3.90179e-05
4.00843e-05
4.29844e-05
4.60815e-05
4.74897e-05
4.70869e-05
4.28786e-05
3.76199e-05
3.45207e-05
3.29049e-05
3.19101e-05
3.07079e-05
2.98611e-05
2.95769e-05
2.97901e-05
3.04045e-05
3.16489e-05
3.32617e-05
3.59099e-05
4.29626e-05
6.21505e-05
7.06989e-05
7.11009e-05
7.09403e-05
7.33058e-05
7.36641e-05
7.13018e-05
6.54117e-05
5.93227e-05
5.3355e-05
4.83314e-05
4.7417e-05
4.98104e-05
5.09416e-05
4.74298e-05
3.50582e-05
2.79186e-05
2.50615e-05
2.45812e-05
2.52908e-05
2.55431e-05
2.47153e-05
2.45387e-05
2.47986e-05
2.51507e-05
2.5264e-05
2.51653e-05
2.52245e-05
2.61574e-05
3.04704e-05
3.29506e-05
3.32557e-05
3.31825e-05
3.31014e-05
3.80445e-05
5.95331e-05
6.53432e-05
6.57422e-05
6.6164e-05
7.16384e-05
9.19369e-05
9.49664e-05
8.60353e-05
6.74946e-05
5.75839e-05
5.40049e-05
5.20184e-05
4.6398e-05
4.03602e-05
3.78048e-05
3.72773e-05
3.69475e-05
3.56276e-05
3.47031e-05
3.47986e-05
3.61878e-05
3.69701e-05
3.88218e-05
4.42356e-05
4.77491e-05
4.85378e-05
4.76017e-05
4.06729e-05
3.5955e-05
3.19884e-05
2.94684e-05
2.66994e-05
2.27428e-05
2.07085e-05
1.95053e-05
1.965e-05
2.37119e-05
2.55881e-05
2.62955e-05
2.725e-05
2.78692e-05
2.8665e-05
2.99256e-05
3.19335e-05
3.81222e-05
4.24421e-05
4.25142e-05
4.38872e-05
4.50283e-05
4.73075e-05
5.21942e-05
5.53519e-05
5.65245e-05
5.69428e-05
5.72143e-05
5.63013e-05
5.59539e-05
6.21964e-05
6.40662e-05
6.25247e-05
5.69176e-05
5.4273e-05
5.16885e-05
4.73898e-05
4.38685e-05
4.30985e-05
4.37177e-05
4.60883e-05
4.61751e-05
4.46418e-05
4.15546e-05
4.02935e-05
4.04782e-05
4.22334e-05
4.27173e-05
4.22054e-05
3.92187e-05
3.78986e-05
3.93476e-05
4.85717e-05
5.09487e-05
5.50908e-05
6.9796e-05
0.000184765
0.00017802
0.000172654
0.000165677
0.000162018
0.000161477
0.000159056
0.000156393
0.000152085
0.000146191
0.000143602
0.000136138
0.000127963
0.000117979
0.000107511
9.77775e-05
8.49112e-05
7.34573e-05
6.35786e-05
4.99534e-05
3.79172e-05
2.77633e-05
2.06979e-05
1.4937e-05
1.03647e-05
8.49705e-06
6.60712e-06
5.8565e-06
6.18655e-06
6.12248e-06
5.75126e-06
5.81722e-06
6.07563e-06
7.0013e-06
1.03182e-05
1.76585e-05
3.14162e-05
5.1042e-05
6.36031e-05
6.91182e-05
6.99356e-05
6.92801e-05
6.78003e-05
6.64685e-05
6.55302e-05
6.1764e-05
5.72748e-05
5.52184e-05
4.99003e-05
4.36384e-05
3.71664e-05
3.17102e-05
3.07054e-05
3.13002e-05
3.26358e-05
4.07242e-05
5.39122e-05
5.77184e-05
5.68506e-05
4.98137e-05
4.2463e-05
3.96812e-05
3.94976e-05
4.02826e-05
4.30517e-05
4.61402e-05
4.74249e-05
4.70913e-05
4.30464e-05
3.79429e-05
3.47109e-05
3.30502e-05
3.21394e-05
3.09186e-05
3.0138e-05
2.98751e-05
3.01118e-05
3.0955e-05
3.21814e-05
3.39612e-05
3.74569e-05
4.85524e-05
6.76504e-05
7.25421e-05
7.15402e-05
7.09812e-05
7.32557e-05
7.36559e-05
7.13811e-05
6.57784e-05
5.95314e-05
5.3359e-05
4.80486e-05
4.74039e-05
5.03153e-05
5.12082e-05
4.57843e-05
3.33356e-05
2.75111e-05
2.53732e-05
2.50697e-05
2.55312e-05
2.56797e-05
2.4694e-05
2.41969e-05
2.44891e-05
2.48631e-05
2.4913e-05
2.48731e-05
2.49535e-05
2.59037e-05
3.01549e-05
3.275e-05
3.31543e-05
3.32435e-05
3.30848e-05
4.10672e-05
6.19216e-05
6.64225e-05
6.63023e-05
6.64276e-05
7.40456e-05
9.21193e-05
9.35384e-05
8.37806e-05
6.61736e-05
5.73068e-05
5.43324e-05
5.24836e-05
4.72591e-05
4.10532e-05
3.79331e-05
3.71749e-05
3.67816e-05
3.5387e-05
3.46435e-05
3.49276e-05
3.66869e-05
3.75455e-05
3.93914e-05
4.48985e-05
4.80017e-05
4.87432e-05
4.76549e-05
4.0804e-05
3.59391e-05
3.24282e-05
2.96972e-05
2.71873e-05
2.28488e-05
2.09062e-05
2.00056e-05
1.99006e-05
2.33413e-05
2.5509e-05
2.66128e-05
2.80532e-05
2.84587e-05
2.87728e-05
2.99918e-05
3.13772e-05
3.7466e-05
4.14684e-05
4.26965e-05
4.70781e-05
4.88485e-05
5.4552e-05
5.86675e-05
5.94068e-05
5.88098e-05
5.80844e-05
5.81375e-05
5.79978e-05
5.57095e-05
5.78715e-05
6.26102e-05
6.25805e-05
6.10283e-05
5.63838e-05
5.20912e-05
4.71817e-05
4.31124e-05
4.18629e-05
4.22188e-05
4.47023e-05
4.51308e-05
4.44264e-05
4.15941e-05
4.02214e-05
4.03977e-05
4.22708e-05
4.27458e-05
4.18807e-05
3.8673e-05
3.78549e-05
3.89426e-05
4.85657e-05
5.09532e-05
5.37608e-05
6.42194e-05
0.000153962
0.000148995
0.000147027
0.0001439
0.000140787
0.000140871
0.00013855
0.000137967
0.000135738
0.000132573
0.000128704
0.000120337
0.000111345
9.80274e-05
8.6138e-05
7.35212e-05
5.9989e-05
4.82958e-05
3.80247e-05
2.94634e-05
2.22622e-05
1.62511e-05
1.26489e-05
9.0335e-06
7.06487e-06
6.4946e-06
5.50624e-06
5.61322e-06
6.08292e-06
5.74277e-06
5.49852e-06
5.76647e-06
6.29341e-06
8.16232e-06
1.3665e-05
2.48369e-05
4.55898e-05
6.39977e-05
7.11241e-05
7.23517e-05
7.15172e-05
6.97237e-05
6.78492e-05
6.65024e-05
6.56913e-05
6.40626e-05
6.01834e-05
5.80491e-05
5.25782e-05
4.75132e-05
4.0896e-05
3.3688e-05
3.15365e-05
3.1769e-05
3.21394e-05
3.71812e-05
5.17813e-05
5.71117e-05
5.68196e-05
5.12817e-05
4.38297e-05
4.05144e-05
4.00662e-05
4.05158e-05
4.30733e-05
4.60985e-05
4.73394e-05
4.70874e-05
4.3422e-05
3.85692e-05
3.50731e-05
3.32669e-05
3.22313e-05
3.10473e-05
3.03754e-05
3.01655e-05
3.06225e-05
3.15643e-05
3.27372e-05
3.48888e-05
3.99306e-05
5.64796e-05
7.11605e-05
7.34385e-05
7.15776e-05
7.05625e-05
7.31182e-05
7.36388e-05
7.1523e-05
6.62349e-05
5.97342e-05
5.31596e-05
4.77227e-05
4.72763e-05
5.08171e-05
5.13666e-05
4.41236e-05
3.20411e-05
2.73787e-05
2.62613e-05
2.60107e-05
2.59252e-05
2.57456e-05
2.47149e-05
2.39865e-05
2.42928e-05
2.47563e-05
2.47921e-05
2.4663e-05
2.47397e-05
2.57063e-05
2.97981e-05
3.23646e-05
3.29595e-05
3.3229e-05
3.32379e-05
4.53484e-05
6.42302e-05
6.73992e-05
6.67347e-05
6.68603e-05
7.73433e-05
9.18161e-05
9.21374e-05
8.11219e-05
6.47186e-05
5.69863e-05
5.46442e-05
5.29543e-05
4.81263e-05
4.17208e-05
3.8165e-05
3.72444e-05
3.65467e-05
3.51001e-05
3.454e-05
3.49963e-05
3.71266e-05
3.80765e-05
4.00408e-05
4.56182e-05
4.83916e-05
4.897e-05
4.7523e-05
4.0781e-05
3.57285e-05
3.29441e-05
3.00846e-05
2.75744e-05
2.33819e-05
2.11181e-05
2.05404e-05
2.04088e-05
2.33179e-05
2.54431e-05
2.63193e-05
2.7594e-05
2.81215e-05
2.88216e-05
3.00101e-05
3.09187e-05
3.48015e-05
4.05975e-05
4.30123e-05
4.94726e-05
5.1487e-05
5.72926e-05
5.94496e-05
6.1444e-05
6.10486e-05
6.01962e-05
5.95951e-05
5.9506e-05
5.67869e-05
5.35814e-05
5.74751e-05
6.11799e-05
6.09792e-05
5.94501e-05
5.36807e-05
4.74502e-05
4.26113e-05
4.09524e-05
4.11323e-05
4.32201e-05
4.42482e-05
4.3946e-05
4.14513e-05
4.01907e-05
4.03533e-05
4.14744e-05
4.15459e-05
4.07565e-05
3.80993e-05
3.72069e-05
3.79367e-05
4.77101e-05
5.1126e-05
5.3388e-05
6.02195e-05
0.000117029
0.000113648
0.000112868
0.000111521
0.000110934
0.000111592
0.000111224
0.000111669
0.000110916
0.000109566
0.000106814
0.000100605
8.96463e-05
7.50628e-05
6.02719e-05
4.73717e-05
3.65651e-05
2.8615e-05
2.16118e-05
1.71119e-05
1.2941e-05
9.7473e-06
7.80697e-06
5.98335e-06
5.67508e-06
5.56383e-06
5.06005e-06
5.50858e-06
5.49304e-06
5.17197e-06
5.32051e-06
5.7657e-06
6.71736e-06
1.00825e-05
1.87029e-05
3.54623e-05
6.08935e-05
7.23919e-05
7.45477e-05
7.36728e-05
7.16223e-05
6.88024e-05
6.67771e-05
6.59216e-05
6.53664e-05
6.44274e-05
6.1716e-05
6.00565e-05
5.56892e-05
5.08351e-05
4.34879e-05
3.50235e-05
3.19072e-05
3.19682e-05
3.18753e-05
3.46295e-05
4.85369e-05
5.62395e-05
5.65718e-05
5.26521e-05
4.50931e-05
4.14414e-05
4.06667e-05
4.09261e-05
4.30896e-05
4.59732e-05
4.72278e-05
4.70542e-05
4.38864e-05
3.92335e-05
3.56417e-05
3.35787e-05
3.23084e-05
3.10922e-05
3.05819e-05
3.04904e-05
3.12957e-05
3.21753e-05
3.36051e-05
3.63665e-05
4.4273e-05
6.38426e-05
7.30163e-05
7.36663e-05
7.05243e-05
6.9408e-05
7.26941e-05
7.36071e-05
7.17282e-05
6.67863e-05
5.98901e-05
5.28098e-05
4.72625e-05
4.70563e-05
5.12949e-05
5.14804e-05
4.25383e-05
3.11209e-05
2.75816e-05
2.71272e-05
2.70806e-05
2.61886e-05
2.55879e-05
2.46812e-05
2.3894e-05
2.39926e-05
2.44866e-05
2.45404e-05
2.44603e-05
2.45679e-05
2.56392e-05
2.97401e-05
3.21415e-05
3.2822e-05
3.31777e-05
3.36933e-05
5.00664e-05
6.63793e-05
6.81973e-05
6.71347e-05
6.78264e-05
8.06484e-05
9.12599e-05
9.05692e-05
7.84439e-05
6.32577e-05
5.68285e-05
5.50252e-05
5.35358e-05
4.87353e-05
4.21497e-05
3.842e-05
3.71968e-05
3.62671e-05
3.48159e-05
3.43466e-05
3.51167e-05
3.75839e-05
3.8593e-05
4.08254e-05
4.63475e-05
4.87326e-05
4.91546e-05
4.71359e-05
4.04723e-05
3.5419e-05
3.32082e-05
3.06745e-05
2.79773e-05
2.41356e-05
2.15965e-05
2.12654e-05
2.11642e-05
2.35829e-05
2.50619e-05
2.59954e-05
2.71896e-05
2.80641e-05
2.92335e-05
3.05245e-05
3.17535e-05
3.45549e-05
4.10592e-05
4.4072e-05
5.0772e-05
5.23868e-05
5.74861e-05
5.90242e-05
6.4416e-05
6.4577e-05
6.40305e-05
6.2987e-05
6.21162e-05
5.81821e-05
5.18961e-05
5.16712e-05
5.73003e-05
5.99833e-05
5.95553e-05
5.56528e-05
4.8043e-05
4.22069e-05
3.99059e-05
3.991e-05
4.19244e-05
4.35424e-05
4.33454e-05
4.14128e-05
4.00333e-05
3.97441e-05
4.03001e-05
4.05361e-05
4.01743e-05
3.78388e-05
3.67224e-05
3.71957e-05
4.54821e-05
5.09681e-05
5.28964e-05
5.74309e-05
7.74596e-05
7.58104e-05
7.4696e-05
7.48512e-05
7.53248e-05
7.61966e-05
7.74194e-05
7.92198e-05
7.93007e-05
7.86734e-05
7.6566e-05
7.17853e-05
5.98114e-05
4.65409e-05
3.55817e-05
2.72603e-05
2.07424e-05
1.55532e-05
1.16709e-05
1.00013e-05
7.63758e-06
6.16652e-06
5.2938e-06
4.79801e-06
5.13265e-06
5.09268e-06
4.73432e-06
4.98362e-06
4.96352e-06
4.93165e-06
5.27498e-06
5.82041e-06
7.54071e-06
1.31973e-05
2.62978e-05
5.10936e-05
7.18857e-05
7.6615e-05
7.62555e-05
7.37803e-05
6.98585e-05
6.56661e-05
6.36505e-05
6.38671e-05
6.42223e-05
6.39587e-05
6.23316e-05
6.11557e-05
5.82798e-05
5.32503e-05
4.55482e-05