/*--------------------------------*- C++ -*----------------------------------*\
| =========                 |                                                 |
| \\      /  F ield         | OpenFOAM: The Open Source CFD Toolbox           |
|  \\    /   O peration     | Version:  2.4.0                                 |
|   \\  /    A nd           | Web:      www.OpenFOAM.org                      |
|    \\/     M anipulation  |                                                 |
\*---------------------------------------------------------------------------*/
FoamFile
{
    version     2.0;
    format      ascii;
    class       surfaceScalarField;
    location    "0.174";
    object      phi_0;
}
// * * * * * * * * * * * * * * * * * * * * * * * * * * * * * * * * * * * * * //

dimensions      [0 3 -1 0 0 0 0];

internalField   nonuniform List<scalar> 
34880
(
5.48728e-06
7.01272e-06
3.12663e-06
2.36065e-06
2.47408e-06
6.52555e-07
2.21265e-06
2.61424e-07
2.07702e-06
1.35634e-07
1.97514e-06
1.01882e-07
1.87459e-06
1.00551e-07
1.82827e-06
4.63192e-08
1.78119e-06
4.70781e-08
1.72772e-06
5.347e-08
1.70995e-06
1.77655e-08
1.69794e-06
1.20177e-08
1.64373e-06
5.4205e-08
1.6487e-06
-4.9733e-09
1.64062e-06
8.08796e-09
1.6056e-06
3.50124e-08
1.62906e-06
-2.34531e-08
1.59939e-06
2.96704e-08
1.66912e-06
-6.97344e-08
4.10228e-07
1.25889e-06
1.01095e-05
9.40323e-06
7.83514e-06
4.635e-06
6.71022e-06
1.77747e-06
6.05579e-06
9.15859e-07
5.65163e-06
5.39795e-07
5.35174e-06
4.01764e-07
5.11239e-06
3.39909e-07
4.9559e-06
2.02804e-07
4.81622e-06
1.86762e-07
4.6894e-06
1.80284e-07
4.62728e-06
7.98868e-08
4.55645e-06
8.28499e-08
4.46355e-06
1.47102e-07
4.44921e-06
9.37018e-09
4.39692e-06
6.03761e-08
4.35984e-06
7.20932e-08
4.37307e-06
-3.66858e-08
4.32008e-06
8.26662e-08
4.48715e-06
-2.36806e-07
8.64457e-07
4.03292e-06
1.24226e-05
9.48066e-06
1.10122e-05
6.04532e-06
9.97946e-06
2.81025e-06
9.19379e-06
1.70152e-06
8.6284e-06
1.10519e-06
8.18662e-06
8.43545e-07
7.85196e-06
6.74566e-07
7.60485e-06
4.49908e-07
7.39417e-06
3.97449e-07
7.20881e-06
3.6564e-07
7.106e-06
1.82698e-07
6.98256e-06
2.06292e-07
6.86576e-06
2.63903e-07
6.82653e-06
4.85967e-08
6.73373e-06
1.53177e-07
6.70082e-06
1.05002e-07
6.68837e-06
-2.42302e-08
6.63418e-06
1.36851e-07
6.78054e-06
-3.8317e-07
8.68665e-07
6.77634e-06
1.34072e-05
8.57344e-06
1.29e-05
6.55257e-06
1.23259e-05
3.38433e-06
1.17044e-05
2.32302e-06
1.11486e-05
1.66102e-06
1.06489e-05
1.34327e-06
1.02704e-05
1.05307e-06
9.97029e-06
7.49987e-07
9.71031e-06
6.57431e-07
9.48456e-06
5.91387e-07
9.35052e-06
3.1674e-07
9.18621e-06
3.70598e-07
9.04719e-06
4.02927e-07
8.99272e-06
1.03064e-07
8.85986e-06
2.86038e-07
8.82944e-06
1.3542e-07
8.79261e-06
1.26023e-08
8.7432e-06
1.86264e-07
8.81372e-06
-4.53692e-07
5.10394e-07
9.17199e-06
1.35833e-05
7.49015e-06
1.36741e-05
6.4618e-06
1.36282e-05
3.43016e-06
1.33824e-05
2.56882e-06
1.30399e-05
2.00353e-06
1.26101e-05
1.77309e-06
1.22687e-05
1.39441e-06
1.19769e-05
1.04184e-06
1.17056e-05
9.28765e-07
1.14705e-05
8.26453e-07
1.13239e-05
4.63318e-07
1.11394e-05
5.55131e-07
1.09841e-05
5.58187e-07
1.0928e-05
1.59169e-07
1.07644e-05
4.49633e-07
1.07325e-05
1.67361e-07
1.06841e-05
6.09458e-08
1.06354e-05
2.34951e-07
1.06235e-05
-4.41746e-07
2.72108e-07
1.08618e-05
1.34709e-05
6.51925e-06
1.37684e-05
6.16428e-06
1.40145e-05
3.18407e-06
1.41139e-05
2.46941e-06
1.41093e-05
2.00815e-06
1.38831e-05
1.99931e-06
1.36835e-05
1.59397e-06
1.34909e-05
1.23451e-06
1.32685e-05
1.15115e-06
1.30726e-05
1.02233e-06
1.29452e-05
5.90698e-07
1.27736e-05
7.26715e-07
1.26164e-05
7.15451e-07
1.25761e-05
1.99482e-07
1.24037e-05
6.21968e-07
1.23649e-05
2.06189e-07
1.23263e-05
9.95092e-08
1.22639e-05
2.97398e-07
1.22494e-05
-4.27286e-07
-4.60209e-07
1.29817e-05
1.33457e-05
5.6735e-06
1.3703e-05
5.80701e-06
1.39759e-05
2.91121e-06
1.41743e-05
2.27094e-06
1.44083e-05
1.7742e-06
1.43964e-05
2.01118e-06
1.43756e-05
1.61482e-06
1.43557e-05
1.25441e-06
1.42573e-05
1.24953e-06
1.41652e-05
1.11443e-06
1.41013e-05
6.5453e-07
1.39936e-05
8.34501e-07
1.38623e-05
8.46728e-07
1.38579e-05
2.03893e-07
1.37128e-05
7.67089e-07
1.36677e-05
2.51214e-07
1.36674e-05
9.98138e-08
1.3575e-05
3.89868e-07
1.35617e-05
-4.1406e-07
-3.43679e-07
1.34452e-05
1.32508e-05
4.92269e-06
1.36896e-05
5.36818e-06
1.38936e-05
2.70728e-06
1.40494e-05
2.11508e-06
1.43202e-05
1.5034e-06
1.44285e-05
1.9029e-06
1.44943e-05
1.54902e-06
1.45932e-05
1.15551e-06
1.46286e-05
1.21419e-06
1.46641e-05
1.07886e-06
1.46863e-05
6.32326e-07
1.46889e-05
8.31945e-07
1.46217e-05
9.13957e-07
1.46754e-05
1.50211e-07
1.45992e-05
8.43291e-07
1.45734e-05
2.77015e-07
1.46171e-05
5.6047e-08
1.45533e-05
4.53653e-07
1.45525e-05
-4.13259e-07
2.0857e-07
1.40003e-05
1.31729e-05
4.24983e-06
1.3605e-05
4.93608e-06
1.38399e-05
2.47237e-06
1.39984e-05
1.95651e-06
1.41876e-05
1.3142e-06
1.43308e-05
1.75975e-06
1.44087e-05
1.47107e-06
1.45192e-05
1.04508e-06
1.46201e-05
1.11322e-06
1.47388e-05
9.60221e-07
1.48109e-05
5.60154e-07
1.48906e-05
7.52238e-07
1.48896e-05
9.14962e-07
1.49925e-05
4.73117e-08
1.50032e-05
8.32589e-07
1.50153e-05
2.64996e-07
1.51021e-05
-3.07856e-08
1.51577e-05
3.98054e-07
1.5193e-05
-4.48539e-07
-3.29172e-07
1.57307e-05
1.31156e-05
3.63425e-06
1.35189e-05
4.53281e-06
1.37413e-05
2.24997e-06
1.39802e-05
1.71758e-06
1.41217e-05
1.17271e-06
1.42464e-05
1.63503e-06
1.43352e-05
1.38229e-06
1.44238e-05
9.56487e-07
1.45153e-05
1.02163e-06
1.46715e-05
8.04028e-07
1.47633e-05
4.68423e-07
1.48471e-05
6.68369e-07
1.488e-05
8.82053e-07
1.49997e-05
-7.23601e-08
1.5069e-05
7.63261e-07
1.50963e-05
2.37732e-07
1.52209e-05
-1.55351e-07
1.53613e-05
2.5767e-07
1.53818e-05
-4.6911e-07
-8.72811e-07
1.59255e-05
1.30565e-05
3.07778e-06
1.34366e-05
4.15266e-06
1.36263e-05
2.06033e-06
1.39152e-05
1.42868e-06
1.40733e-05
1.01461e-06
1.42198e-05
1.48845e-06
1.43177e-05
1.28445e-06
1.43645e-05
9.09723e-07
1.44042e-05
9.81911e-07
1.45717e-05
6.36489e-07
1.46735e-05
3.66684e-07
1.47595e-05
5.82326e-07
1.48262e-05
8.1534e-07
1.49607e-05
-2.06822e-07
1.50508e-05
6.73158e-07
1.50764e-05
2.12139e-07
1.51913e-05
-2.70323e-07
1.53303e-05
1.18663e-07
1.54306e-05
-5.69403e-07
-1.29878e-06
1.58566e-05
1.29715e-05
2.60623e-06
1.33805e-05
3.74375e-06
1.35892e-05
1.85163e-06
1.38295e-05
1.1883e-06
1.3995e-05
8.4912e-07
1.41976e-05
1.28585e-06
1.42921e-05
1.18998e-06
1.43136e-05
8.88201e-07
1.43296e-05
9.65977e-07
1.45089e-05
4.57112e-07
1.4609e-05
2.66567e-07
1.47e-05
4.91339e-07
1.4791e-05
7.24409e-07
1.48942e-05
-3.1006e-07
1.49779e-05
5.8945e-07
1.50246e-05
1.65421e-07
1.51243e-05
-3.70023e-07
1.52548e-05
-1.18445e-08
1.54029e-05
-7.17443e-07
-1.47927e-06
1.55834e-05
1.29032e-05
2.20303e-06
1.33911e-05
3.25582e-06
1.36144e-05
1.62837e-06
1.37538e-05
1.04884e-06
1.38997e-05
7.03266e-07
1.41084e-05
1.07717e-06
1.42269e-05
1.0715e-06
1.42958e-05
8.19248e-07
1.43217e-05
9.40124e-07
1.4501e-05
2.77794e-07
1.45792e-05
1.88331e-07
1.46415e-05
4.29084e-07
1.4718e-05
6.47919e-07
1.47556e-05
-3.47656e-07
1.48651e-05
4.79882e-07
1.49652e-05
6.53499e-08
1.50723e-05
-4.77131e-07
1.52173e-05
-1.56874e-07
1.53201e-05
-8.20187e-07
-1.52251e-06
1.53633e-05
1.28893e-05
1.81375e-06
1.33935e-05
2.75162e-06
1.36043e-05
1.41759e-06
1.3694e-05
9.59073e-07
1.38248e-05
5.72487e-07
1.40116e-05
8.90391e-07
1.41693e-05
9.13758e-07
1.42973e-05
6.91266e-07
1.43301e-05
9.07372e-07
1.44688e-05
1.39047e-07
1.45245e-05
1.32621e-07
1.45684e-05
3.85177e-07
1.46364e-05
5.79948e-07
1.46599e-05
-3.71197e-07
1.48097e-05
3.30105e-07
1.49464e-05
-7.13373e-08
1.50304e-05
-5.61166e-07
1.51762e-05
-3.02592e-07
1.52468e-05
-8.90824e-07
-1.68195e-06
1.54062e-05
1.2871e-05
1.44271e-06
1.33294e-05
2.2933e-06
1.35476e-05
1.19934e-06
1.3672e-05
8.34638e-07
1.37931e-05
4.51392e-07
1.39716e-05
7.11974e-07
1.41362e-05
7.49103e-07
1.42769e-05
5.50534e-07
1.42985e-05
8.85785e-07
1.4402e-05
3.56188e-08
1.44676e-05
6.70094e-08
1.45207e-05
3.32022e-07
1.46167e-05
4.84002e-07
1.46506e-05
-4.05165e-07
1.47841e-05
1.96658e-07
1.49073e-05
-1.94514e-07
1.49726e-05
-6.26529e-07
1.51023e-05
-4.32312e-07
1.52268e-05
-1.0153e-06
-2.04654e-06
1.55914e-05
1.28149e-05
1.12779e-06
1.3271e-05
1.8372e-06
1.35541e-05
9.1622e-07
1.36779e-05
7.10925e-07
1.37633e-05
3.65965e-07
1.39454e-05
5.29815e-07
1.4102e-05
5.92539e-07
1.42219e-05
4.30626e-07
1.42566e-05
8.51121e-07
1.43767e-05
-8.44752e-08
1.44586e-05
-1.49006e-08
1.45008e-05
2.89766e-07
1.46315e-05
3.53341e-07
1.46332e-05
-4.06887e-07
1.47384e-05
9.14494e-08
1.4824e-05
-2.80059e-07
1.49288e-05
-7.3139e-07
1.50393e-05
-5.42807e-07
1.52035e-05
-1.17951e-06
-2.50514e-06
1.56621e-05
1.27782e-05
8.49558e-07
1.32788e-05
1.33661e-06
1.35602e-05
6.34809e-07
1.3647e-05
6.24147e-07
1.37286e-05
2.84397e-07
1.39212e-05
3.37232e-07
1.40592e-05
4.54538e-07
1.41718e-05
3.17982e-07
1.42594e-05
7.63551e-07
1.4377e-05
-2.02067e-07
1.4444e-05
-8.18837e-08
1.44769e-05
2.56804e-07
1.46162e-05
2.14083e-07
1.4592e-05
-3.82684e-07
1.47086e-05
-2.5233e-08
1.47728e-05
-3.44223e-07
1.48992e-05
-8.57738e-07
1.5018e-05
-6.61626e-07
1.50164e-05
-1.17798e-06
-1.39533e-06
1.39066e-05
1.27866e-05
5.62985e-07
1.32729e-05
8.5027e-07
1.34933e-05
4.14414e-07
1.36129e-05
5.04592e-07
1.37405e-05
1.56811e-07
1.39157e-05
1.6194e-07
1.40209e-05
3.49425e-07
1.41581e-05
1.8069e-07
1.4275e-05
6.46695e-07
1.43391e-05
-2.66158e-07
1.43858e-05
-1.28571e-07
1.44536e-05
1.88987e-07
1.4588e-05
7.96427e-08
1.45896e-05
-3.84269e-07
1.46916e-05
-1.27187e-07
1.4768e-05
-4.20631e-07
1.48556e-05
-9.4539e-07
1.50011e-05
-8.07116e-07
1.50889e-05
-1.26572e-06
-1.81409e-06
1.55076e-05
1.27827e-05
2.80319e-07
1.32161e-05
4.16837e-07
1.34453e-05
1.85164e-07
1.36501e-05
2.99797e-07
1.37736e-05
3.33275e-08
1.38869e-05
4.86393e-08
1.39872e-05
2.49185e-07
1.41521e-05
1.57863e-08
1.42669e-05
5.31872e-07
1.43018e-05
-3.01056e-07
1.43678e-05
-1.94556e-07
1.44541e-05
1.02654e-07
1.45867e-05
-5.29481e-08
1.46006e-05
-3.98122e-07
1.46585e-05
-1.85087e-07
1.47513e-05
-5.13477e-07
1.4828e-05
-1.02213e-06
1.49729e-05
-9.51962e-07
1.50839e-05
-1.37678e-06
-2.33151e-06
1.56014e-05
1.27561e-05
2.41705e-08
1.31835e-05
-1.04964e-08
1.34788e-05
-1.10111e-07
1.36989e-05
7.96543e-08
1.37481e-05
-1.59075e-08
1.38394e-05
-4.26119e-08
1.39784e-05
1.1021e-07
1.41515e-05
-1.57365e-07
1.42604e-05
4.22946e-07
1.43051e-05
-3.45687e-07
1.43863e-05
-2.75761e-07
1.44574e-05
3.15276e-08
1.45741e-05
-1.6965e-07
1.45845e-05
-4.08569e-07
1.46319e-05
-2.32412e-07
1.47547e-05
-6.36348e-07
1.48305e-05
-1.09792e-06
1.49414e-05
-1.06287e-06
1.51267e-05
-1.56199e-06
-2.73496e-06
1.55301e-05
1.27439e-05
-2.19774e-07
1.32004e-05
-4.66949e-07
1.35149e-05
-4.24603e-07
1.36837e-05
-8.91728e-08
1.37092e-05
-4.13506e-08
1.38433e-05
-1.76757e-07
1.40048e-05
-5.12505e-08
1.41563e-05
-3.08902e-07
1.42625e-05
3.16725e-07
1.43046e-05
-3.87773e-07
1.43889e-05
-3.60099e-07
1.44407e-05
-2.0265e-08
1.45553e-05
-2.84224e-07
1.45704e-05
-4.23618e-07
1.46542e-05
-3.16248e-07
1.47749e-05
-7.57041e-07
1.48365e-05
-1.15948e-06
1.49162e-05
-1.14262e-06
1.51122e-05
-1.75804e-06
-3.02711e-06
1.54044e-05
1.27536e-05
-4.73404e-07
1.32284e-05
-9.41701e-07
1.35143e-05
-7.10493e-07
1.36521e-05
-2.27011e-07
1.37211e-05
-1.10377e-07
1.38785e-05
-3.34136e-07
1.40151e-05
-1.87802e-07
1.41469e-05
-4.40745e-07
1.42624e-05
2.01261e-07
1.43071e-05
-4.32451e-07
1.43977e-05
-4.50722e-07
1.44436e-05
-6.61782e-08
1.45544e-05
-3.95065e-07
1.45912e-05
-4.6037e-07
1.46903e-05
-4.15367e-07
1.47749e-05
-8.41634e-07
1.48208e-05
-1.20534e-06
1.49007e-05
-1.22252e-06
1.49266e-05
-1.78402e-06
-1.99951e-06
1.3899e-05
1.27769e-05
-7.50338e-07
1.32439e-05
-1.40863e-06
1.35008e-05
-9.67442e-07
1.36513e-05
-3.77519e-07
1.37569e-05
-2.15918e-07
1.38928e-05
-4.70037e-07
1.40097e-05
-3.04709e-07
1.41486e-05
-5.79669e-07
1.42714e-05
7.84842e-08
1.43328e-05
-4.93877e-07
1.44131e-05
-5.30997e-07
1.44668e-05
-1.19939e-07
1.45551e-05
-4.8331e-07
1.46261e-05
-5.31351e-07
1.46969e-05
-4.86181e-07
1.47687e-05
-9.13442e-07
1.48057e-05
-1.2424e-06
1.49336e-05
-1.35037e-06
1.50545e-05
-1.90489e-06
-2.53061e-06
1.55856e-05
1.27963e-05
-1.04667e-06
1.3249e-05
-1.86128e-06
1.3514e-05
-1.23242e-06
1.36743e-05
-5.37891e-07
1.37815e-05
-3.23133e-07
1.39028e-05
-5.91318e-07
1.40284e-05
-4.30264e-07
1.4163e-05
-7.14323e-07
1.42881e-05
-4.655e-08
1.43574e-05
-5.6321e-07
1.44322e-05
-6.05749e-07
1.44799e-05
-1.67725e-07
1.45601e-05
-5.63486e-07
1.46522e-05
-6.23443e-07
1.47011e-05
-5.35053e-07
1.47769e-05
-9.8923e-07
1.48158e-05
-1.28135e-06
1.49889e-05
-1.52349e-06
1.51015e-05
-2.01744e-06
-2.86576e-06
1.54366e-05
1.2812e-05
-1.3587e-06
1.32762e-05
-2.32541e-06
1.35535e-05
-1.50979e-06
1.36913e-05
-6.75656e-07
1.37981e-05
-4.29963e-07
1.39258e-05
-7.19024e-07
1.40573e-05
-5.61707e-07
1.41826e-05
-8.39646e-07
1.43109e-05
-1.74862e-07
1.43898e-05
-6.4211e-07
1.44531e-05
-6.69009e-07
1.45067e-05
-2.21345e-07
1.45729e-05
-6.29641e-07
1.46905e-05
-7.4108e-07
1.47165e-05
-5.61044e-07
1.47964e-05
-1.0691e-06
1.48607e-05
-1.34569e-06
1.49981e-05
-1.6609e-06
1.50898e-05
-2.10913e-06
-3.22875e-06
1.54528e-05
1.28405e-05
-1.69919e-06
1.3323e-05
-2.80792e-06
1.35817e-05
-1.76847e-06
1.36989e-05
-7.92873e-07
1.38271e-05
-5.58208e-07
1.39614e-05
-8.53329e-07
1.40946e-05
-6.94833e-07
1.42143e-05
-9.59405e-07
1.43457e-05
-3.06236e-07
1.44193e-05
-7.15706e-07
1.44798e-05
-7.29545e-07
1.45358e-05
-2.77329e-07
1.46131e-05
-7.06886e-07
1.47183e-05
-8.46363e-07
1.47524e-05
-5.95144e-07
1.48116e-05
-1.12828e-06
1.49207e-05
-1.45479e-06
1.49642e-05
-1.7044e-06
1.51179e-05
-2.26278e-06
-3.74945e-06
1.56386e-05
1.28793e-05
-2.07847e-06
1.33715e-05
-3.30016e-06
1.36052e-05
-2.00215e-06
1.3722e-05
-9.09687e-07
1.38699e-05
-7.06132e-07
1.40033e-05
-9.86652e-07
1.41403e-05
-8.31827e-07
1.42552e-05
-1.07435e-06
1.43808e-05
-4.31822e-07
1.44485e-05
-7.83379e-07
1.45172e-05
-7.98286e-07
1.458e-05
-3.40088e-07
1.46601e-05
-7.87043e-07
1.47472e-05
-9.33444e-07
1.4787e-05
-6.35001e-07
1.4841e-05
-1.18222e-06
1.4952e-05
-1.5658e-06
1.49855e-05
-1.73785e-06
1.51078e-05
-2.3851e-06
-2.67764e-06
1.4036e-05
1.29309e-05
-2.50932e-06
1.34318e-05
-3.80108e-06
1.36011e-05
-2.17151e-06
1.37464e-05
-1.05497e-06
1.39168e-05
-8.76526e-07
1.40529e-05
-1.12271e-06
1.4192e-05
-9.70954e-07
1.43047e-05
-1.18709e-06
1.44225e-05
-5.49622e-07
1.44913e-05
-8.52113e-07
1.45661e-05
-8.73071e-07
1.46391e-05
-4.13084e-07
1.46931e-05
-8.41096e-07
1.47942e-05
-1.03456e-06
1.48099e-05
-6.50699e-07
1.49034e-05
-1.27569e-06
1.495e-05
-1.61244e-06
1.50846e-05
-1.87246e-06
1.52127e-05
-2.51318e-06
-3.10523e-06
1.56403e-05
1.3e-05
-3.00932e-06
1.34889e-05
-4.28997e-06
1.35903e-05
-2.27296e-06
1.37756e-05
-1.24023e-06
1.39791e-05
-1.08002e-06
1.41077e-05
-1.25131e-06
1.42561e-05
-1.11934e-06
1.43572e-05
-1.28819e-06
1.44704e-05
-6.62845e-07
1.45373e-05
-9.19027e-07
1.46251e-05
-9.60898e-07
1.46806e-05
-4.68497e-07
1.47451e-05
-9.05687e-07
1.48309e-05
-1.12028e-06
1.48684e-05
-6.88188e-07
1.49431e-05
-1.3504e-06
1.4994e-05
-1.66337e-06
1.51632e-05
-2.04161e-06
1.52342e-05
-2.58426e-06
-3.46852e-06
1.55975e-05
1.30709e-05
-3.58026e-06
1.35325e-05
-4.75154e-06
1.36061e-05
-2.34656e-06
1.3829e-05
-1.46314e-06
1.40495e-05
-1.3005e-06
1.41662e-05
-1.36797e-06
1.43275e-05
-1.28067e-06
1.44078e-05
-1.36844e-06
1.45174e-05
-7.72489e-07
1.45969e-05
-9.9848e-07
1.46814e-05
-1.04548e-06
1.47277e-05
-5.14805e-07
1.48092e-05
-9.87135e-07
1.48794e-05
-1.1905e-06
1.49339e-05
-7.42645e-07
1.49928e-05
-1.40929e-06
1.50706e-05
-1.74122e-06
1.51888e-05
-2.15984e-06
1.52337e-05
-2.6291e-06
-3.7664e-06
1.55316e-05
1.31407e-05
-4.22091e-06
1.35718e-05
-5.18271e-06
1.36436e-05
-2.41831e-06
1.39037e-05
-1.72323e-06
1.41191e-05
-1.51592e-06
1.42363e-05
-1.48524e-06
1.44076e-05
-1.45194e-06
1.44634e-05
-1.42421e-06
1.45781e-05
-8.87225e-07
1.46723e-05
-1.09269e-06
1.47328e-05
-1.10591e-06
1.47934e-05
-5.75462e-07
1.48772e-05
-1.07094e-06
1.49327e-05
-1.24601e-06
1.49916e-05
-8.01511e-07
1.50357e-05
-1.45339e-06
1.50765e-05
-1.78197e-06
1.51031e-05
-2.1865e-06
1.50875e-05
-2.61348e-06
-3.94344e-06
1.52645e-05
1.32109e-05
-4.93186e-06
1.3604e-05
-5.57574e-06
1.3711e-05
-2.52533e-06
1.39916e-05
-2.00378e-06
1.41955e-05
-1.71987e-06
1.43344e-05
-1.62417e-06
1.44936e-05
-1.61106e-06
1.45297e-05
-1.46038e-06
1.46549e-05
-1.01236e-06
1.47363e-05
-1.17412e-06
1.47632e-05
-1.1328e-06
1.48381e-05
-6.50362e-07
1.48863e-05
-1.11919e-06
1.48888e-05
-1.24848e-06
1.49231e-05
-8.35775e-07
1.48918e-05
-1.42215e-06
1.48386e-05
-1.72874e-06
1.47365e-05
-2.08438e-06
1.45879e-05
-2.46494e-06
-3.97527e-06
1.46198e-05
1.32771e-05
-5.70894e-06
1.3638e-05
-5.93669e-06
1.38137e-05
-2.70101e-06
1.40917e-05
-2.28179e-06
1.43035e-05
-1.93164e-06
1.44481e-05
-1.76876e-06
1.45497e-05
-1.71273e-06
1.45643e-05
-1.47498e-06
1.46517e-05
-1.09972e-06
1.46598e-05
-1.18217e-06
1.46222e-05
-1.09524e-06
1.46521e-05
-6.80253e-07
1.45976e-05
-1.0647e-06
1.45085e-05
-1.1594e-06
1.44714e-05
-7.98665e-07
1.43355e-05
-1.28622e-06
1.41763e-05
-1.56952e-06
1.39553e-05
-1.86336e-06
1.3663e-05
-2.17267e-06
-3.04152e-06
1.27292e-05
1.33521e-05
-6.56102e-06
1.36438e-05
-6.22844e-06
1.39505e-05
-3.00766e-06
1.42043e-05
-2.53565e-06
1.43749e-05
-2.10222e-06
1.44312e-05
-1.82499e-06
1.43973e-05
-1.67887e-06
1.43186e-05
-1.39632e-06
1.42749e-05
-1.05598e-06
1.41526e-05
-1.05987e-06
1.40195e-05
-9.62159e-07
1.39569e-05
-6.17645e-07
1.3799e-05
-9.06785e-07
1.36334e-05
-9.93813e-07
1.35273e-05
-6.92569e-07
1.33206e-05
-1.07953e-06
1.30854e-05
-1.33435e-06
1.27949e-05
-1.5728e-06
1.24538e-05
-1.83163e-06
-2.77793e-06
1.21902e-05
1.34633e-05
-7.52431e-06
1.37245e-05
-6.4896e-06
1.40229e-05
-3.30614e-06
1.41235e-05
-2.6362e-06
1.40805e-05
-2.05921e-06
1.39191e-05
-1.66358e-06
1.36831e-05
-1.44291e-06
1.34587e-05
-1.17195e-06
1.32739e-05
-8.71169e-07
1.3051e-05
-8.36974e-07
1.28534e-05
-7.64519e-07
1.27264e-05
-4.90691e-07
1.25182e-05
-6.98575e-07
1.23165e-05
-7.92127e-07
1.21714e-05
-5.47406e-07
1.19319e-05
-8.4006e-07
1.16584e-05
-1.06081e-06
1.13336e-05
-1.24801e-06
1.09406e-05
-1.43868e-06
-2.04737e-06
1.02101e-05
1.35731e-05
-8.5974e-06
1.36465e-05
-6.56298e-06
1.36466e-05
-3.30629e-06
1.33817e-05
-2.37129e-06
1.30198e-05
-1.69726e-06
1.26378e-05
-1.2816e-06
1.22604e-05
-1.06552e-06
1.19492e-05
-8.60733e-07
1.1698e-05
-6.19985e-07
1.1444e-05
-5.8295e-07
1.12294e-05
-5.49899e-07
1.1079e-05
-3.40333e-07
1.08635e-05
-4.83051e-07
1.06545e-05
-5.83191e-07
1.04954e-05
-3.88312e-07
1.02507e-05
-5.95323e-07
9.9676e-06
-7.77701e-07
9.62997e-06
-9.10386e-07
9.23263e-06
-1.04134e-06
-1.44221e-06
8.62747e-06
1.33978e-05
-9.49519e-06
1.28837e-05
-6.04893e-06
1.23435e-05
-2.76602e-06
1.17002e-05
-1.72807e-06
1.1135e-05
-1.13201e-06
1.06657e-05
-8.12362e-07
1.02629e-05
-6.62639e-07
9.94393e-06
-5.41799e-07
9.69402e-06
-3.70072e-07
9.45846e-06
-3.47391e-07
9.25741e-06
-3.48848e-07
9.1147e-06
-1.97619e-07
8.92032e-06
-2.88678e-07
8.72217e-06
-3.85033e-07
8.57032e-06
-2.36464e-07
8.34375e-06
-3.68757e-07
8.072e-06
-5.05951e-07
7.75023e-06
-5.88614e-07
7.37012e-06
-6.61228e-07
-9.22018e-07
6.84992e-06
1.24146e-05
-9.4098e-06
1.10029e-05
-4.63719e-06
9.99309e-06
-1.75624e-06
9.19058e-06
-9.2556e-07
8.61808e-06
-5.59502e-07
8.19381e-06
-3.88094e-07
7.84993e-06
-3.18762e-07
7.57779e-06
-2.69664e-07
7.37444e-06
-1.66714e-07
7.18733e-06
-1.60287e-07
7.01942e-06
-1.80938e-07
6.90675e-06
-8.49411e-08
6.752e-06
-1.3393e-07
6.57782e-06
-2.10859e-07
6.45194e-06
-1.10578e-07
6.26313e-06
-1.79947e-07
6.02397e-06
-2.66789e-07
5.74313e-06
-3.07782e-07
5.41242e-06
-3.30511e-07
-4.8222e-07
4.97262e-06
1.01044e-05
-7.01421e-06
7.82937e-06
-2.36215e-06
6.71925e-06
-6.46115e-07
6.05553e-06
-2.61839e-07
5.642e-06
-1.45971e-07
5.35256e-06
-9.86543e-08
5.11832e-06
-8.45192e-08
4.92744e-06
-7.87923e-08
4.79888e-06
-3.81452e-08
4.67743e-06
-3.8841e-08
4.55559e-06
-5.91e-08
4.48761e-06
-1.69582e-08
4.3854e-06
-3.17261e-08
4.24842e-06
-7.38799e-08
4.16559e-06
-2.77449e-08
4.03309e-06
-4.74436e-08
3.85141e-06
-8.51133e-08
3.64008e-06
-9.64484e-08
3.40188e-06
-9.23139e-08
-1.57342e-07
3.077e-06
5.48579e-06
3.12364e-06
2.47752e-06
2.21568e-06
2.06971e-06
1.97106e-06
1.88654e-06
1.80775e-06
1.7696e-06
1.73076e-06
1.67166e-06
1.6547e-06
1.62298e-06
1.5491e-06
1.52135e-06
1.47391e-06
1.38879e-06
1.29235e-06
1.20003e-06
1.04269e-06
1.80822e-06
9.39722e-07
-1.48905e-06
2.36749e-06
5.5531e-07
-1.11459e-06
2.71558e-06
1.41917e-08
-3.62281e-07
2.87494e-06
-1.8141e-07
2.20581e-08
3.13436e-06
6.48238e-07
-9.07661e-07
3.73674e-06
1.00033e-06
-1.60271e-06
4.58976e-06
1.22778e-06
-2.0808e-06
5.3671e-06
2.19372e-06
-2.97106e-06
6.0246e-06
1.66855e-06
-2.32604e-06
7.07185e-06
-1.38888e-07
-9.0837e-07
8.30645e-06
-1.77908e-08
-1.2168e-06
9.623e-06
1.03143e-06
-2.34799e-06
1.05895e-05
7.59283e-07
-1.7258e-06
1.12211e-05
-1.71884e-07
-4.59641e-07
1.17355e-05
-8.31179e-07
3.16686e-07
1.21893e-05
-2.14207e-06
1.6883e-06
1.2655e-05
-3.75753e-06
3.2919e-06
1.32133e-05
-5.23592e-06
4.67761e-06
1.40798e-05
-7.92871e-06
7.06214e-06
1.50683e-05
-9.72797e-06
8.73952e-06
1.59743e-05
-1.17302e-05
1.08241e-05
1.66762e-05
-1.42321e-05
1.35302e-05
1.68963e-05
-1.55392e-05
1.53191e-05
1.68151e-05
-1.70486e-05
1.71297e-05
1.65481e-05
-1.73564e-05
1.76234e-05
1.61868e-05
-1.7532e-05
1.78932e-05
1.58967e-05
-1.75939e-05
1.7884e-05
1.56786e-05
-1.68577e-05
1.70758e-05
1.56089e-05
-1.73652e-05
1.7435e-05
1.56533e-05
-1.68219e-05
1.67775e-05
1.55483e-05
-1.60498e-05
1.61549e-05
1.53492e-05
-1.57728e-05
1.59719e-05
1.52899e-05
-1.46162e-05
1.46755e-05
1.51859e-05
-1.36522e-05
1.37563e-05
1.49327e-05
-1.24649e-05
1.27181e-05
1.47304e-05
-1.08579e-05
1.10601e-05
1.4306e-05
-9.14591e-06
9.57034e-06
1.38311e-05
-8.03949e-06
8.51435e-06
1.34239e-05
-6.05034e-06
6.45758e-06
1.28205e-05
-4.28391e-06
4.88728e-06
1.23759e-05
-3.90226e-06
4.34694e-06
1.18897e-05
-1.69064e-06
2.17682e-06
1.12811e-05
-1.70971e-09
6.10239e-07
1.09543e-05
-7.03115e-07
1.03e-06
1.04312e-05
9.95417e-07
-4.72328e-07
9.72071e-06
3.25014e-06
-2.53968e-06
9.30735e-06
1.52418e-06
-1.11082e-06
9.286e-06
1.00258e-06
-9.81221e-07
9.02263e-06
2.83467e-06
-2.57131e-06
8.59705e-06
3.8164e-06
-3.39082e-06
8.35186e-06
4.36006e-06
-4.11487e-06
8.18349e-06
5.05837e-06
-4.89e-06
7.7286e-06
5.52391e-06
-5.06902e-06
7.08445e-06
3.63692e-06
-2.99277e-06
6.93997e-06
1.74349e-06
-1.59901e-06
7.81942e-06
4.94838e-06
-5.82783e-06
9.13711e-06
1.25645e-05
-1.38822e-05
1.0114e-05
1.97937e-05
-2.07706e-05
1.04607e-05
2.40152e-05
-2.43618e-05
1.02532e-05
2.56262e-05
-2.54187e-05
9.73901e-06
2.59146e-05
-2.54004e-05
9.17187e-06
2.55745e-05
-2.50073e-05
8.73594e-06
2.48533e-05
-2.44174e-05
8.49189e-06
2.35539e-05
-2.33099e-05
8.36196e-06
2.12557e-05
-2.11257e-05
8.28983e-06
1.76867e-05
-1.76146e-05
8.20439e-06
1.32916e-05
-1.32062e-05
8.01497e-06
8.68943e-06
-8.50001e-06
7.74711e-06
3.67181e-06
-3.40395e-06
7.61876e-06
-2.02216e-06
2.15051e-06
7.78582e-06
-7.2645e-06
7.09743e-06
7.96513e-06
-1.05836e-05
1.04043e-05
7.83695e-06
-1.34256e-05
1.35538e-05
7.63486e-06
-1.73676e-05
1.75697e-05
7.69396e-06
-2.10676e-05
2.10085e-05
7.87268e-06
-2.37477e-05
2.3569e-05
7.93288e-06
-2.6413e-05
2.63528e-05
8.03125e-06
-2.91104e-05
2.9012e-05
8.27555e-06
-2.78858e-05
2.76415e-05
8.44635e-06
-2.27237e-05
2.2553e-05
8.44885e-06
-1.93939e-05
1.93914e-05
8.29855e-06
-1.92409e-05
1.93912e-05
8.1553e-06
-2.03497e-05
2.0493e-05
7.96014e-06
-2.20482e-05
2.22434e-05
7.8075e-06
-2.33464e-05
2.3499e-05
7.70598e-06
-2.42224e-05
2.43239e-05
7.5441e-06
-2.61921e-05
2.6354e-05
7.41413e-06
-2.68318e-05
2.69617e-05
7.50219e-06
-2.46616e-05
2.45736e-05
7.46729e-06
-2.41047e-05
2.41396e-05
7.5232e-06
-2.46664e-05
2.46105e-05
7.86021e-06
-2.0771e-05
2.0434e-05
7.87613e-06
-1.62517e-05
1.62357e-05
8.03766e-06
-1.16636e-05
1.15021e-05
8.46261e-06
-7.72954e-06
7.3046e-06
8.73901e-06
-4.75704e-06
4.48063e-06
9.03015e-06
1.36431e-06
-1.65546e-06
9.31659e-06
9.3819e-06
-9.66833e-06
9.36822e-06
1.28948e-05
-1.29464e-05
9.40706e-06
1.45207e-05
-1.45595e-05
9.54302e-06
1.9756e-05
-1.98919e-05
9.46759e-06
2.46579e-05
-2.45824e-05
9.22921e-06
2.52374e-05
-2.4999e-05
9.176e-06
2.48388e-05
-2.47856e-05
9.43837e-06
2.68924e-05
-2.71548e-05
9.81189e-06
3.00062e-05
-3.03798e-05
9.83649e-06
3.17375e-05
-3.17621e-05
9.51648e-06
3.12464e-05
-3.09264e-05
9.01676e-06
2.95169e-05
-2.90171e-05
8.2651e-06
2.74086e-05
-2.6657e-05
7.35755e-06
2.47965e-05
-2.38889e-05
6.43083e-06
2.18959e-05
-2.09691e-05
5.56409e-06
1.9585e-05
-1.87183e-05
4.96736e-06
1.74789e-05
-1.68822e-05
4.66497e-06
1.5699e-05
-1.53966e-05
4.65503e-06
1.39259e-05
-1.39159e-05
4.89857e-06
1.18138e-05
-1.20573e-05
5.22173e-06
9.98021e-06
-1.03034e-05
5.83857e-06
7.75698e-06
-8.37382e-06
6.37743e-06
5.78582e-06
-6.32468e-06
6.91625e-06
4.14134e-06
-4.68016e-06
7.48969e-06
2.59944e-06
-3.17288e-06
7.94994e-06
6.19032e-07
-1.07927e-06
8.48846e-06
-1.47244e-06
9.33911e-07
8.8731e-06
-3.16975e-06
2.78512e-06
8.96421e-06
-3.50904e-06
3.41793e-06
9.05784e-06
-3.07248e-06
2.97885e-06
9.11947e-06
-5.0832e-06
5.02157e-06
9.03958e-06
-6.89368e-06
6.97357e-06
8.93622e-06
-7.09384e-06
7.1972e-06
9.02397e-06
-7.99922e-06
7.91147e-06
8.98393e-06
-7.99059e-06
8.03063e-06
8.59014e-06
-7.02921e-06
7.423e-06
8.28421e-06
-6.57205e-06
6.87799e-06
8.40272e-06
-6.66112e-06
6.54261e-06
8.61283e-06
-7.82484e-06
7.61472e-06
8.75317e-06
-8.51172e-06
8.37139e-06
8.68673e-06
-8.31436e-06
8.3808e-06
8.62015e-06
-8.73318e-06
8.79976e-06
8.5701e-06
-9.80064e-06
9.85069e-06
8.25501e-06
-1.0154e-05
1.04691e-05
7.7963e-06
-9.95032e-06
1.0409e-05
7.28965e-06
-1.01496e-05
1.06562e-05
6.97684e-06
-1.05395e-05
1.08523e-05
6.75168e-06
-9.92117e-06
1.01463e-05
6.58706e-06
-8.37096e-06
8.53558e-06
6.44487e-06
-5.85619e-06
5.99838e-06
6.45821e-06
-4.24258e-06
4.22925e-06
6.52829e-06
-5.35572e-06
5.28564e-06
6.68478e-06
-7.27929e-06
7.1228e-06
7.22461e-06
-1.04699e-05
9.93006e-06
7.93012e-06
-1.29569e-05
1.22514e-05
8.25149e-06
-1.51239e-05
1.48025e-05
8.22384e-06
-1.77385e-05
1.77661e-05
8.3795e-06
-1.895e-05
1.87944e-05
8.45182e-06
-1.9856e-05
1.97837e-05
8.49203e-06
-2.17538e-05
2.17136e-05
8.45925e-06
-2.29899e-05
2.30227e-05
8.4158e-06
-2.29306e-05
2.2974e-05
8.48946e-06
-2.1667e-05
2.15934e-05
8.58394e-06
-2.00632e-05
1.99688e-05
8.83208e-06
-1.83781e-05
1.81299e-05
9.08111e-06
-1.55279e-05
1.52789e-05
9.32349e-06
-1.16361e-05
1.13937e-05
9.52669e-06
-7.31387e-06
7.11067e-06
9.64935e-06
-2.02047e-06
1.89781e-06
9.61425e-06
3.58897e-06
-3.55387e-06
9.57083e-06
7.23418e-06
-7.19075e-06
9.63703e-06
9.45256e-06
-9.51877e-06
9.80352e-06
1.22773e-05
-1.24438e-05
1.0062e-05
1.56087e-05
-1.58671e-05
1.01536e-05
1.81994e-05
-1.8291e-05
1.01769e-05
1.99623e-05
-1.99856e-05
1.03745e-05
2.19283e-05
-2.21259e-05
1.07426e-05
2.49391e-05
-2.53072e-05
1.12027e-05
2.78588e-05
-2.83188e-05
1.14116e-05
2.89429e-05
-2.91518e-05
1.1415e-05
2.82062e-05
-2.82096e-05
1.13152e-05
2.65062e-05
-2.64064e-05
1.10276e-05
2.46645e-05
-2.43769e-05
1.06123e-05
2.18055e-05
-2.13902e-05
1.0046e-05
1.74096e-05
-1.68432e-05
9.80088e-06
1.2622e-05
-1.23769e-05
9.50774e-06
9.38743e-06
-9.09428e-06
8.80317e-06
7.63069e-06
-6.92612e-06
8.61362e-06
7.03098e-06
-6.84143e-06
8.3278e-06
8.42482e-06
-8.13899e-06
7.9014e-06
9.01103e-06
-8.58463e-06
7.91463e-06
8.86296e-06
-8.87618e-06
7.86552e-06
8.61747e-06
-8.56836e-06
7.49858e-06
9.51574e-06
-9.14881e-06
7.20221e-06
9.71884e-06
-9.42246e-06
6.83798e-06
1.0864e-05
-1.04998e-05
6.44182e-06
1.18583e-05
-1.14621e-05
6.64178e-06
1.21049e-05
-1.23048e-05
6.36358e-06
1.57579e-05
-1.54797e-05
6.46186e-06
1.75113e-05
-1.76095e-05
5.71302e-06
1.77362e-05
-1.69873e-05
4.61003e-06
1.296e-05
-1.1857e-05
1.64885e-05
-1.58997e-05
4.02114e-06
4.34359e-06
6.29049e-07
4.62788e-06
2.71026e-07
4.88026e-06
-2.38193e-07
5.24802e-06
-5.49171e-07
5.60154e-06
2.94715e-07
5.86211e-06
7.39764e-07
6.5622e-06
5.27682e-07
7.36821e-06
1.38771e-06
7.87785e-06
1.15892e-06
8.1986e-06
-4.59644e-07
8.67826e-06
-4.97449e-07
9.7546e-06
-4.49101e-08
1.07178e-05
-2.03912e-07
1.14016e-05
-8.55709e-07
1.22454e-05
-1.67493e-06
1.29509e-05
-2.84761e-06
1.37681e-05
-4.57469e-06
1.46999e-05
-6.16775e-06
1.55135e-05
-8.74231e-06
1.62877e-05
-1.05022e-05
1.68692e-05
-1.23116e-05
1.71588e-05
-1.45217e-05
1.71049e-05
-1.54852e-05
1.68709e-05
-1.68146e-05
1.64945e-05
-1.698e-05
1.61159e-05
-1.71533e-05
1.59211e-05
-1.73991e-05
1.576e-05
-1.66965e-05
1.56273e-05
-1.72326e-05
1.56134e-05
-1.68081e-05
1.55505e-05
-1.59869e-05
1.54478e-05
-1.56702e-05
1.54643e-05
-1.46326e-05
1.54227e-05
-1.36106e-05
1.52528e-05
-1.2295e-05
1.51017e-05
-1.07068e-05
1.47441e-05
-8.78835e-06
1.42847e-05
-7.58014e-06
1.37779e-05
-5.54347e-06
1.30916e-05
-3.59762e-06
1.25725e-05
-3.38314e-06
1.20314e-05
-1.14957e-06
1.13896e-05
6.40058e-07
1.10218e-05
-3.35269e-07
1.05574e-05
1.45978e-06
9.86922e-06
3.93834e-06
9.37959e-06
2.01381e-06
9.33718e-06
1.045e-06
9.13229e-06
3.03956e-06
8.78863e-06
4.16006e-06
8.5844e-06
4.56429e-06
8.48684e-06
5.15593e-06
8.0842e-06
5.92655e-06
7.33795e-06
4.38317e-06
6.98462e-06
2.09683e-06
7.75921e-06
4.17379e-06
9.17621e-06
1.11475e-05
1.03194e-05
1.86505e-05
1.08176e-05
2.35169e-05
1.07395e-05
2.57043e-05
1.03344e-05
2.63196e-05
9.86887e-06
2.60401e-05
9.50929e-06
2.52129e-05
9.30447e-06
2.37588e-05
9.18816e-06
2.1372e-05
9.1349e-06
1.77399e-05
9.06144e-06
1.33651e-05
8.9157e-06
8.83517e-06
8.66179e-06
3.92572e-06
8.46957e-06
-1.82994e-06
8.52301e-06
-7.31793e-06
8.63912e-06
-1.06997e-05
8.48825e-06
-1.32747e-05
8.23652e-06
-1.71159e-05
8.23275e-06
-2.10639e-05
8.38239e-06
-2.38973e-05
8.4237e-06
-2.64543e-05
8.43545e-06
-2.91221e-05
8.54983e-06
-2.80002e-05
8.60509e-06
-2.2779e-05
8.50251e-06
-1.92913e-05
8.26599e-06
-1.90044e-05
8.08375e-06
-2.01675e-05
7.83512e-06
-2.17996e-05
7.60167e-06
-2.3113e-05
7.46954e-06
-2.40902e-05
7.24745e-06
-2.597e-05
7.08193e-06
-2.66663e-05
7.11437e-06
-2.46941e-05
7.01325e-06
-2.40035e-05
6.96095e-06
-2.46141e-05
7.31261e-06
-2.11227e-05
7.43593e-06
-1.6375e-05
7.62792e-06
-1.18556e-05
8.09568e-06
-8.19731e-06
8.37676e-06
-5.03811e-06
8.56109e-06
1.17998e-06
8.80865e-06
9.13434e-06
8.9196e-06
1.27839e-05
8.99952e-06
1.44408e-05
9.15167e-06
1.96038e-05
9.12246e-06
2.46871e-05
8.89595e-06
2.54639e-05
8.85531e-06
2.48794e-05