/*--------------------------------*- C++ -*----------------------------------*\
| =========                 |                                                 |
| \\      /  F ield         | OpenFOAM: The Open Source CFD Toolbox           |
|  \\    /   O peration     | Version:  2.4.0                                 |
|   \\  /    A nd           | Web:      www.OpenFOAM.org                      |
|    \\/     M anipulation  |                                                 |
\*---------------------------------------------------------------------------*/
FoamFile
{
    version     2.0;
    format      ascii;
    class       volScalarField;
    location    "0.056";
    object      epsilon;
}
// * * * * * * * * * * * * * * * * * * * * * * * * * * * * * * * * * * * * * //

dimensions      [0 2 -3 0 0 0 0];

internalField   nonuniform List<scalar> 
17600
(
290.779
447.673
583.297
681.437
740.841
768.08
772.005
760.737
740.585
715.997
689.912
664.174
639.877
617.624
597.703
580.195
565.047
552.117
541.037
533.516
39.5489
60.6407
78.3965
92.3358
102.281
108.918
113.256
116.234
118.59
120.844
123.336
126.262
129.711
133.688
138.132
142.936
147.957
153.045
158.249
164.273
18.0559
21.7883
25.1119
27.7892
29.7361
31.0342
31.8556
32.3923
32.819
33.2793
33.8838
34.7143
35.8288
37.2664
39.0494
41.1852
43.6677
46.4824
49.6711
53.585
14.7345
15.1157
15.6206
16.0697
16.3751
16.5162
16.5138
16.4078
16.2435
16.0646
15.9097
15.8113
15.7963
15.8868
16.1009
16.454
16.9592
17.6305
18.5015
19.6679
14.0476
13.5192
13.1673
12.9029
12.6639
12.4158
12.1455
11.8534
11.5469
11.2367
10.9344
10.6512
10.397
10.1804
10.0091
9.88953
9.82782
9.83047
9.90969
10.085
13.8917
13.0886
12.4266
11.871
11.3882
10.9523
10.546
10.1595
9.78829
9.43134
9.08962
8.76519
8.46052
8.17814
7.92047
7.68969
7.48787
7.31724
7.18153
7.08436
13.8556
12.9703
12.1959
11.5177
10.9188
10.383
9.89683
9.44995
9.03502
8.64707
8.28297
7.94085
7.61967
7.31897
7.03858
6.77851
6.53895
6.32019
6.12309
5.9481
13.8471
12.9381
12.1251
11.3979
10.7463
10.1596
9.62814
9.14338
8.6983
8.28727
7.90588
7.55078
7.2194
6.9098
6.6205
6.35036
6.09849
5.86424
5.64728
5.44728
13.845
12.9294
12.1037
11.3584
10.6846
10.074
9.519
9.01257
8.54858
8.12177
7.72764
7.36246
7.02315
6.70716
6.41237
6.13706
5.87978
5.63935
5.41485
5.20569
13.8445
12.9269
12.0973
11.3456
10.6631
10.0423
9.47608
8.95842
8.4838
8.04736
7.64487
7.27263
6.92748
6.60668
6.30789
6.02913
5.76867
5.52505
5.29706
5.08401
13.8443
12.9262
12.0953
11.3414
10.6557
10.0307
9.45967
8.93672
8.45667
8.01497
7.60758
7.23094
6.88193
6.55782
6.25622
5.97505
5.71247
5.46691
5.237
5.02201
13.8443
12.9259
12.0946
11.3399
10.6531
10.0265
9.45346
8.92818
8.44561
8.00129
7.5913
7.21219
6.8609
6.53475
6.23134
5.94859
5.68463
5.43783
5.20678
4.99072
13.8442
12.9257
12.0942
11.3393
10.6521
10.0249
9.45103
8.92479
8.4411
7.99557
7.58433
7.20396
6.85146
6.52416
6.21971
5.93601
5.67122
5.42367
5.19195
4.97528
13.8442
12.9256
12.094
11.3389
10.6515
10.0241
9.44996
8.92334
8.43919
7.99314
7.58132
7.20036
6.84726
6.51938
6.21438
5.93018
5.66493
5.41697
5.18488
4.96787
13.8441
12.9255
12.0938
11.3387
10.6512
10.0237
9.44941
8.92262
8.43829
7.99201
7.57996
7.19873
6.84536
6.51721
6.21195
5.9275
5.66202
5.41386
5.18158
4.96442
13.8441
12.9254
12.0937
11.3385
10.651
10.0234
9.44905
8.9222
8.43778
7.99142
7.57926
7.19793
6.84444
6.51618
6.2108
5.92624
5.66066
5.41241
5.18006
4.96282
13.8441
12.9254
12.0936
11.3384
10.6508
10.0232
9.44881
8.92192
8.43747
7.99106
7.57886
7.19748
6.84395
6.51564
6.21021
5.92562
5.66
5.41172
5.17933
4.96208
13.8441
12.9253
12.0935
11.3383
10.6507
10.023
9.44864
8.92172
8.43725
7.99083
7.57861
7.19721
6.84366
6.51533
6.20989
5.92528
5.65965
5.41136
5.17897
4.96171
13.8441
12.9253
12.0935
11.3382
10.6506
10.0229
9.44852
8.9216
8.43712
7.99068
7.57845
7.19705
6.84349
6.51515
6.20971
5.92509
5.65946
5.41118
5.17878
4.96151
13.8441
12.9253
12.0934
11.3382
10.6506
10.0229
9.44847
8.92154
8.43705
7.99061
7.57838
7.19697
6.84341
6.51507
6.20962
5.92501
5.65938
5.41109
5.1787
4.96142
13.8441
12.9253
12.0934
11.3382
10.6506
10.0229
9.44847
8.92154
8.43705
7.99061
7.57838
7.19697
6.84341
6.51507
6.20962
5.92501
5.65938
5.41109
5.17869
4.9614
13.8441
12.9253
12.0935
11.3382
10.6506
10.0229
9.44852
8.9216
8.43712
7.99068
7.57845
7.19705
6.84349
6.51515
6.20971
5.92509
5.65946
5.41117
5.17875
4.96145
13.8441
12.9253
12.0935
11.3383
10.6507
10.023
9.44864
8.92172
8.43725
7.99083
7.57861
7.19721
6.84366
6.51533
6.20989
5.92528
5.65964
5.41135
5.17893
4.9616
13.8441
12.9254
12.0936
11.3384
10.6508
10.0232
9.44881
8.92192
8.43747
7.99106
7.57886
7.19748
6.84395
6.51564
6.21021
5.92561
5.65999
5.4117
5.17927
4.96193
13.8441
12.9254
12.0937
11.3385
10.651
10.0234
9.44905
8.9222
8.43778
7.99142
7.57926
7.19793
6.84444
6.51618
6.2108
5.92624
5.66065
5.41239
5.17998
4.96265
13.8441
12.9255
12.0938
11.3387
10.6512
10.0237
9.44941
8.92262
8.43829
7.99201
7.57996
7.19873
6.84536
6.51721
6.21195
5.9275
5.66201
5.41383
5.18149
4.96421
13.8442
12.9256
12.094
11.3389
10.6515
10.0241
9.44996
8.92334
8.43919
7.99314
7.58132
7.20036
6.84726
6.51938
6.21438
5.93018
5.66491
5.41694
5.18478
4.96764
13.8442
12.9257
12.0942
11.3393
10.6521
10.0249
9.45103
8.92479
8.4411
7.99557
7.58433
7.20396
6.85146
6.52416
6.21971
5.93601
5.67121
5.42364
5.19185
4.97503
13.8443
12.9259
12.0946
11.3399
10.6531
10.0265
9.45346
8.92818
8.44561
8.00128
7.5913
7.21219
6.8609
6.53475
6.23134
5.94859
5.68462
5.4378
5.20667
4.99044
13.8443
12.9262
12.0953
11.3414
10.6557
10.0307
9.45967
8.93672
8.45667
8.01497
7.60758
7.23094
6.88193
6.55782
6.25622
5.97505
5.71246
5.46687
5.23687
5.02167
13.8445
12.9269
12.0973
11.3456
10.6631
10.0423
9.47608
8.95842
8.4838
8.04736
7.64487
7.27263
6.92748
6.60668
6.30789
6.02913
5.76866
5.525
5.29686
5.0835
13.845
12.9294
12.1037
11.3584
10.6846
10.074
9.519
9.01257
8.54858
8.12177
7.72764
7.36246
7.02315
6.70716
6.41238
6.13706
5.87977
5.63927
5.41446
5.20466
13.8471
12.9381
12.1251
11.3979
10.7463
10.1596
9.62814
9.14338
8.6983
8.28727
7.90588
7.55078
7.21941
6.90981
6.62051
6.35036
6.09847
5.86406
5.6464
5.44473
13.8556
12.9703
12.1959
11.5177
10.9188
10.383
9.89683
9.44995
9.03502
8.64707
8.28297
7.94085
7.61968
7.31898
7.03859
6.77853
6.53889
6.31974
6.12088
5.94093
13.8917
13.0886
12.4266
11.871
11.3882
10.9523
10.546
10.1595
9.78829
9.43134
9.08963
8.7652
8.46053
8.17816
7.9205
7.68971
7.48772
7.31608
7.17542
7.06194
14.0476
13.5192
13.1673
12.9029
12.6639
12.4158
12.1455
11.8534
11.5469
11.2367
10.9344
10.6512
10.397
10.1805
10.0092
9.88957
9.82738
9.82721
9.89119
10.0069
14.7345
15.1157
15.6206
16.0697
16.3751
16.5162
16.5138
16.4078
16.2435
16.0646
15.9097
15.8114
15.7964
15.8869
16.1011
16.454
16.958
17.6212
18.4441
19.3857
18.0559
21.7883
25.1119
27.7892
29.7361
31.0342
31.8556
32.3923
32.819
33.2793
33.8838
34.7143
35.829
37.2666
39.0497
41.1853
43.6648
46.4616
49.5232
52.7367
39.5489
60.6407
78.3965
92.3358
102.281
108.918
113.256
116.234
118.59
120.844
123.336
126.263
129.711
133.688
138.132
142.935
147.953
153.021
157.963
162.662
290.779
447.673
583.297
681.437
740.841
768.08
772.005
760.737
740.585
715.997
689.912
664.173
639.875
617.622
597.699
580.189
565.042
552.121
541.275
531.987
668.778
777.751
850.016
894.478
915.186
916.251
903.143
880.873
853.531
824.177
794.842
766.686
740.246
715.687
692.991
672.029
652.638
634.661
617.96
602.422
587.945
574.44
561.818
550
538.913
528.495
518.687
509.438
500.7
492.427
484.578
477.114
469.997
463.192
456.664
450.383
444.319
438.444
432.733
427.16
421.702
416.339
411.05
405.814
400.615
395.435
390.259
385.07
379.857
374.607
369.31
363.958
358.545
353.065
347.517
341.9
336.216
330.47
324.669
318.82
312.936
307.028
301.113
295.207
289.329
283.499
277.739
272.071
266.518
261.106
255.857
250.797
245.95
241.338
236.985
232.912
229.137
225.678
222.549
219.761
217.323
215.237
213.502
212.114
211.062
210.333
209.909
209.771
209.894
210.255
210.827
211.584
212.497
213.538
214.678
215.888
217.139
218.403
219.654
220.866
222.016
223.083
224.05
224.901
225.623
226.207
226.647
226.938
227.078
227.067
226.907
226.599
226.147
225.558
224.837
223.989
223.02
221.936
220.743
219.446
218.051
216.565
214.991
213.337
211.606
209.803
207.934
206.001
204.011
201.967
199.872
197.73
195.545
193.321
191.061
188.768
186.445
184.095
181.722
179.327
176.916
174.489
172.05
169.602
167.147
164.688
162.228
159.77
157.316
154.869
152.432
150.008
147.6
145.211
142.845
140.503
138.189
135.906
133.657
131.444
129.27
127.138
125.05
123.01
121.019
119.081
117.199
115.375
113.613
111.917
110.29
108.737
107.262
105.87
104.567
103.36
102.257
101.267
100.401
99.6725
99.0972
98.6955
98.4934
98.5243
98.8328
99.4803
100.554
102.18
104.555
107.987
112.986
120.421
131.792
149.726
178.847
227.502
312.189
473.292
855.724
1801.9
172.963
189.632
213.824
245.052
281.854
322.191
363.622
403.637
439.989
471.003
495.742
514.012
526.231
533.223
535.994
535.55
532.775
528.375
522.879
516.661
509.984
503.031
495.935
488.792
481.675
474.642
467.732
460.975
454.388
447.978
441.747
435.691
429.803
424.073
418.487
413.035
407.701
402.471
397.331
392.264
387.256
382.293
377.361
372.445
367.533
362.611
357.669
352.696
347.681
342.617
337.497
332.314
327.067
321.751
316.369
310.92
305.411
299.845
294.233
288.583
282.908
277.223
271.542
265.884
260.266
254.711
249.238
243.871
238.633
233.546
228.636
223.926
219.441
215.202
211.234
207.557
204.192
201.157
198.468
196.139
194.177
192.59
191.377
190.535
190.052
189.915
190.103
190.59
191.351
192.353
193.567
194.959
196.497
198.149
199.886
201.675
203.488
205.296
207.074
208.796
210.439
211.983
213.41
214.705
215.855
216.85
217.685
218.354
218.855
219.189
219.356
219.36
219.206
218.9
218.447
217.854
217.126
216.269
215.291
214.197
212.994
211.688
210.286
208.792
207.213
205.554
203.82
202.016
200.147
198.217
196.231
194.193
192.107
189.977
187.807
185.599
183.358
181.087
178.789
176.468
174.127
171.768
169.394
167.009
164.616
162.217
159.815
157.413
155.014
152.621
150.237
147.864
145.506
143.166
140.846
138.551
136.283
134.044
131.838
129.668
127.536
125.445
123.397
121.396
119.444
117.544
115.699
113.913
112.187
110.527
108.936
107.417
105.977
104.619
103.351
102.178
101.11
100.154
99.3228
98.629
98.0893
97.7242
97.5597
97.6297
97.9793
98.6701
99.7893
101.464
103.89
107.374
112.425
119.912
131.342
149.373
178.706
227.88
313.468
475.086
818.884
1501.25
54.8459
56.6172
59.183
62.9291
68.4632
76.1668
86.3496
99.2388
114.92
133.271
153.936
176.336
199.719
223.236
246.038
267.371
286.652
303.507
317.778
329.496
338.831
346.045
351.433
355.292
357.887
359.447
360.16
360.177
359.618
358.583
357.151
355.39
353.355
351.09
348.633
346.012
343.249
340.358
337.353
334.24
331.025
327.71
324.298
320.787
317.177
313.467
309.654
305.737
301.713
297.583
293.344
288.998
284.547
279.993
275.341
270.597
265.769
260.866
255.899
250.881
245.826
240.75
235.67
230.606
225.576
220.603
215.707
210.911
206.239
201.713
197.358
193.197
189.253
185.551
182.113
178.962
176.117
173.601
171.43
169.621
168.186
167.136
166.475
166.203
166.312
166.79
167.617
168.767
170.209
171.909
173.827
175.927
178.169
180.516
182.932
185.385
187.841
190.273
192.653
194.956
197.159
199.243
201.189
202.983
204.613
206.069
207.345
208.436
209.34
210.057
210.59
210.942
211.119
211.128
210.975
210.667
210.209
209.609
208.873
208.009
207.023
205.923
204.714
203.405
202
200.506
198.928
197.273
195.545
193.749
191.891
189.975
188.005
185.986
183.922
181.817
179.674
177.497
175.29
173.057
170.8
168.522
166.228
163.921
161.602
159.276
156.944
154.611
152.28
149.952
147.631
145.321
143.023
140.742
138.48
136.241
134.027
131.842
129.689
127.57
125.488
123.446
121.446
119.491
117.585
115.73
113.929
112.185
110.502
108.883
107.332
105.853
104.452
103.133
101.903
100.768
99.7361
98.8171
98.0221
97.3645
96.8608
96.5316
96.4031
96.5092
96.895
97.6217
98.776
100.484
102.936
106.436
111.483
118.925
130.245
148.057
176.982
225.36
308.796
462.086
754.859
1240.12
20
20.3487
20.7355
21.1941
21.7894
22.5939
23.7229
25.2984
27.4425
30.3044
34.047
38.8374
44.8314
52.1536
60.8765
71.0006
82.4408
95.0219
108.486
122.511
136.738
150.805
164.377
177.173
188.986
199.685
209.211
217.57
224.811
231.014
236.271
240.68
244.331
247.307
249.68
251.512
252.856
253.759
254.258
254.389
254.182
253.66
252.848
251.761
250.417
248.829
247.007
244.963
242.705
240.242
237.582
234.735
231.709
228.515
225.162
221.663
218.031
214.278
210.42
206.473
202.454
198.383
194.278
190.159
186.049
181.969
177.942
173.99
170.137
166.406
162.82
159.404
156.18
153.173
150.404
147.897
145.674
143.757
142.166
140.921
140.04
139.537
139.423
139.705
140.382
141.45
142.892
144.686
146.801
149.202
151.844
154.684
157.675
160.773
163.934
167.119
170.291
173.419
176.472
179.424
182.253
184.938
187.463
189.811
191.972
193.936
195.698
197.253
198.599
199.739
200.673
201.405
201.945
202.301
202.478
202.483
202.322
202.004
201.536
200.926
200.18
199.308
198.315
197.211
196
194.691
193.288
191.8
190.231
188.587
186.873
185.095
183.257
181.364
179.421
177.432
175.401
173.332
171.229
169.096
166.937
164.754
162.551
160.332
158.1
155.857
153.608
151.354
149.1
146.848
144.601
142.363
140.135
137.923
135.728
133.553
131.403
129.28
127.187
125.126
123.102
121.116
119.17
117.269
115.415
113.61
111.859
110.164
108.528
106.955
105.449
104.015
102.657
101.38
100.191
99.0963
98.1039
97.2235
96.466
95.8451
95.3771
95.0827
94.9878
95.1262
95.5423
96.2966
97.474
99.1975
101.653
105.132
110.116
117.421
128.467
145.76
173.699
220.108
298.981
438.698
683.23
1022.75
10.1352
10.1854
10.2363
10.2898
10.3522
10.4313
10.5377
10.6858
10.8985
11.1968
11.608
12.1662
12.9129
13.8986
15.1825
16.8328
18.925
21.5388
24.7527
28.6374
33.2473
38.6119
44.7287
51.5584
59.0233
67.0109
75.3802
83.972
92.6206
101.166
109.463
117.391
124.857
131.795
138.168
143.959
149.17
153.815
157.916
161.498
164.588
167.213
169.399
171.167
172.54
173.538
174.179
174.48
174.459
174.131
173.511
172.614
171.457
170.054
168.42
166.573
164.53
162.307
159.924
157.399
154.753
152.007
149.181
146.299
143.381
140.452
137.534
134.65
131.823
129.078
126.436
123.922
121.557
119.366
117.37
115.593
114.057
112.786
111.802
111.128
110.786
110.796
111.177
111.944
113.107
114.671
116.631
118.974
121.674
124.7
128.009
131.551
135.274
139.123
143.048
146.998
150.93
154.804
158.585
162.244
165.755
169.098
172.254
175.208
177.95
180.469
182.761
184.821
186.65
188.248
189.617
190.763
191.699
192.432
192.969
193.315
193.48
193.47
193.295
192.962
192.48
191.858
191.103
190.224
189.228
188.122
186.914
185.611
184.218
182.742
181.189
179.564
177.874
176.123
174.315
172.457
170.552
168.604
166.619
164.599
162.549
160.473
158.373
156.254
154.119
151.972
149.815
147.651
145.485
143.318
141.155
138.998
136.85
134.715
132.596
130.495
128.416
126.363
124.338
122.344
120.384
118.46
116.577
114.735
112.939
111.191
109.495
107.854
106.27
104.749
103.293
101.907
100.595
99.3644
98.2195
97.1678
96.2171
95.3768
94.6581
94.0743
93.6418
93.381
93.3174
93.4842
93.9251
94.699
95.8882
97.6115
100.047
103.472
108.342
115.425
126.054
142.569
169.04
212.554
285.188
408.845
610.305
850.113
7.05559
7.02771
7.00032
6.97338
6.94757
6.92381
6.90324
6.88744
6.87962
6.88313
6.90167
6.93991
7.00374
7.10051
7.23929
7.43125
7.68994
8.03179
8.47643
9.04705
9.77066
10.6781
11.8035
13.1838
14.8567
16.8587
19.2219
21.9709
25.1193
28.6669
32.5977
36.8796
41.4649
46.2925
51.2916
56.3859
61.4973
66.5511
71.4787
76.2203
80.7263
84.9578
88.886
92.4912
95.7612
98.6901
101.277
103.524
105.437
107.023
108.291
109.252
109.916
110.297
110.408
110.265
109.883
109.28
108.473
107.482
106.326
105.025
103.601
102.074
100.468
98.8035
97.1033
95.3895
93.6843
92.0098
90.388
88.8407
87.3896
86.0566
84.8633
83.8319
82.9848
82.3451
81.9365
81.7834
81.911
82.3449
83.1104
84.2317
85.7303
87.6236
89.9217
92.6261
95.7269
99.2014
103.015
107.12
111.462
115.98
120.612
125.296
129.977
134.604
139.134
143.529
147.759
151.799
155.629
159.231
162.595
165.711
168.572
171.177
173.524
175.614
177.453
179.044
180.407
181.547
182.472
183.188
183.703
184.028
184.17
184.139
183.944
183.594
183.098
182.465
181.703
180.82
179.824
178.723
177.524
176.233
174.857
173.402
171.874
170.278
168.621
166.907
165.141
163.328
161.473
159.579
157.65
155.692
153.707
151.7
149.673
147.631
145.577
143.514
141.445
139.374
137.303
135.237
133.178
131.129
129.094
127.075
125.076
123.1
121.151
119.23
117.342
115.488
113.672
111.897
110.165
108.48
106.844
105.262
103.736
102.27
100.868
99.534
98.2735
97.0915
95.994
94.9878
94.0808
93.2824
92.6036
92.0574
91.6602
91.4318
91.3973
91.589
92.0494
92.8354
94.0261
95.7345
98.1289
101.47
106.182
112.973
123.069
138.6
163.234
203.202
268.602
375.606
539.532
712.461
5.89622
5.84571
5.79609
5.74729
5.69939
5.6525
5.60677
5.56239
5.51989
5.4799
5.44298
5.40986
5.38146
5.35898
5.34389
5.33805
5.34369
5.36356
5.40097
5.45987
5.54498
5.66189
5.81722
6.01872
6.27545
6.59785
6.99784
7.48879
8.08541
8.80349
9.65944
10.6696
11.8492
13.2114
14.7658
16.5176
18.466
20.6038
22.917
25.3849
27.9807
30.6729
33.4261
36.2032
38.9667
41.6804
44.3101
46.8252
49.1992
51.4099
53.4395
55.2748
56.9065
58.3293
59.5416
60.5445
61.3423
61.9416
62.3513
62.5823
62.6469
62.5592
62.3343
61.9884
61.5386
61.0025
60.3981
59.7438
59.0582
58.3599
57.6676
57.0001
56.3761
55.8147
55.335
54.9567
54.7003
54.587
54.6396
54.8821
55.3406
56.0427
57.0183
58.2983
59.914
61.8957
64.27
67.0573
70.2679
73.8995
77.9342
82.3378
87.0611
92.0428
97.2136
102.501
107.836
113.151
118.39
123.503
128.45
133.196
137.716
141.99
146.003
149.743
153.205
156.383
159.278
161.891
164.226
166.291
168.109
169.685
171.024
172.135
173.027
173.71
174.193
174.485
174.599
174.542
174.325
173.958
173.449
172.808
172.042
171.161
170.172
169.081
167.898
166.627
165.277
163.852
162.358
160.802
159.189
157.523
155.809
154.053
152.258
150.429
148.57
146.685
144.777
142.851
140.91
138.956
136.995
135.028
133.06
131.093
129.13
127.176
125.233
123.304
121.393
119.502
117.636
115.796
113.985
112.208
110.466
108.762
107.101
105.483
103.914
102.396
100.932
99.5257
98.1819
96.9045
95.6983
94.5685
93.5211
92.563
91.7018
90.9469
90.3089
89.801
89.4387
89.2417
89.2342
89.4477
89.9227
90.7141
91.8968
93.5774
95.9132
99.1457
103.662
110.106
119.58
133.981
156.534
192.571
250.318
341.288
473.318
600.844
5.38783
5.32997
5.27313
5.21728
5.1624
5.10852
5.05564
5.00376
4.95302
4.90353
4.85538
4.80867
4.76356
4.72024
4.67897
4.6401
4.60405
4.57134
4.54262
4.51868
4.50043
4.489
4.48568
4.49199
4.50972
4.5409
4.5879
4.65344
4.74059
4.85288
4.99426
5.16919
5.38258
5.6398
5.94662
6.30907
6.73332
7.22542
7.79104
8.43508
9.1613
9.97189
10.8671
11.8448
12.9004
14.0266
15.2134
16.4488
17.7183
19.0062
20.2959
21.5704
22.8132
24.0087
25.1427
26.203
27.1794
28.0643
28.8523
29.5407
30.1288
30.6185
31.0133
31.3189
31.5423
31.692
31.7776
31.8096
31.7993
31.7586
31.7
31.6362
31.5808
31.5473
31.5503
31.6047
31.7266
31.9332
32.2433
32.6777
33.2597
34.0154
34.9742
36.1693
37.6368
39.4159
41.5468
44.0682
47.0139
50.408
54.26
58.5614
63.2829
68.3753
73.7723
79.3964
85.1646
90.9949
96.811
102.545
108.141
113.55
118.736
123.67
128.331
132.703
136.776
140.544
144.005
147.158
150.008
152.573
154.87
156.903
158.679
160.208
161.499
162.561
163.405
164.043
164.484
164.74
164.821
164.738
164.5
164.117
163.599
162.953
162.19
161.316
160.34
159.268
158.108
156.867
155.551
154.166
152.717
151.21
149.65
148.043
146.393
144.704
142.981
141.229
139.45
137.649
135.83
133.996
132.15
130.297
128.439
126.58
124.723
122.871
121.028
119.196
117.38
115.581
113.804
112.051
110.326
108.631
106.969
105.343
103.757
102.213
100.715
99.2648
97.8674
96.5259
95.2442
94.0267
92.8781
91.8036
90.8091
89.9013
89.0879
88.3779
87.7819
87.3125
86.9851
86.8185
86.8363
87.0684
87.5539
88.3446
89.511
91.1528
93.4149
96.5179
100.811
106.868
115.661
128.844
149.188
181.148
231.271
307.518
413.056
509.057
5.14345
5.08291
5.02345
4.96504
4.90766
4.8513
4.79595
4.74156
4.68822
4.63592
4.58465
4.53442
4.48524
4.43712
4.3901
4.34424
4.2996
4.2563
4.21444
4.17419
4.13574
4.09935
4.06529
4.03391
4.00561
3.98086
3.9602
3.94426
3.93372
3.92939
3.93215
3.943
3.96304
3.99348
4.03567
4.09106
4.16122
4.24784
4.35269
4.47764
4.62455
4.79532
4.99174
5.21543
5.46779
5.74983
6.0621
6.40456
6.77648
7.17637
7.60191
8.04996
8.51658
8.99711
9.48633
9.97862
10.4682
10.9492
11.4162
11.8642
12.2887
12.6864
13.0546
13.3918
13.6976
13.9725
14.2182
14.4373
14.6332
14.8103
14.9737
15.1292
15.2833
15.4431
15.6167
15.8128
16.0412
16.3129
16.6405
17.0385
17.5237
18.1163
18.84
19.7233
20.7999
22.1091
23.6963
25.6112
27.9061
30.6316
33.8306
37.5316
41.742
46.4441
51.5935
57.1224
62.9458
68.9697
75.099
81.2437
87.3241
93.2721
99.0325
104.561
109.825
114.8
119.467
123.816
127.84
131.537
134.909
137.988
140.777
143.283
145.514
147.477
149.182
150.641
151.865
152.864
153.65
154.236
154.631
154.848
154.897
154.788
154.532
154.137
153.614
152.97
152.215
151.356
150.4
149.355
148.228
147.026
145.753
144.417
143.022
141.575
140.079
138.541
136.964
135.353
133.713
132.046
130.358
128.652
126.931
125.199
123.459
121.716
119.972
118.23
116.494
114.767
113.052
111.352
109.671
108.012
106.377
104.77
103.194
101.651
100.146
98.6799
97.2571
95.8806
94.5539
93.2806
92.0648
90.9106
89.8227
88.8063
87.8672
87.0119
86.2481
85.5845
85.0314
84.601
84.3082
84.1712
84.2125
84.4608
84.9529
85.7377
86.8809
88.4745
90.651
93.6089
97.6588
103.304
111.386
123.316
141.424
169.354
212.215
275.371
359.287
432.795
5.02057
4.95893
4.89839
4.83895
4.78057
4.72323
4.66691
4.61159
4.55728
4.50397
4.45163
4.40025
4.34981
4.30029
4.25169
4.20401
4.15723
4.11137
4.06645
4.02247
3.97948
3.93751
3.89663
3.85691
3.81844
3.78132
3.74569
3.71169
3.6795
3.64933
3.62139
3.59594
3.57327
3.55368
3.53753
3.52517
3.51702
3.5135
3.51507
3.5222
3.53538
3.55514
3.58197
3.6164
3.65891
3.70997
3.76998
3.8393
3.91818
4.00676
4.10503
4.21285
4.32987
4.45556
4.58919
4.72983
4.87637
5.02755
5.18199
5.33825
5.49484
5.65037
5.80352
5.95315
6.09838
6.23856
6.37341
6.50296
6.62766
6.74833
6.8662
6.98294
7.10064
7.22189
7.34977
7.48795
7.64079
7.81348
8.01226
8.2447
8.52008
8.84994
9.24877
9.73487
10.3315
11.0682
11.9822
13.1192
14.5346
16.2918
18.4588
21.1021
24.2773
28.0189
32.3317
37.1862
42.5204
48.2464
54.2608
60.4546
66.723
72.971
79.1174
85.095
90.8508
96.3437
101.543
106.427
110.981
115.196
119.087
122.674
125.956
128.939
131.629
134.034
136.165
138.031
139.645
141.018
142.162
143.09
143.813
144.343
144.692
144.87
144.888
144.757
144.487
144.086
143.563
142.928
142.189
141.352
140.425
139.416
138.33
137.174
135.955
134.677
133.346
131.967
130.545
129.085
127.591
126.068
124.519
122.948
121.359
119.756
118.143
116.522
114.897
113.272
111.65
110.034
108.427
106.832
105.253
103.693
102.155
100.641
99.1556
97.7012
96.2808
94.8976
93.5547
92.2556
91.0035
89.8022
88.6555
87.5677
86.5434
85.5877
84.7063
83.9055
83.1929
82.5769
82.0674
81.6764
81.4182
81.31
81.3734
81.6355
82.131
82.9055
84.0197
85.5578
87.6394
90.4414
94.2359
99.4578
106.821
117.51
133.44
157.535
193.708
245.499
311.974
368.974
4.95798
4.89581
4.83477
4.77485
4.71602
4.65824
4.60151
4.54579
4.49108
4.43736
4.3846
4.33278
4.28189
4.23189
4.18277
4.13452
4.08711
4.04054
3.99479
3.94985
3.90572
3.86239
3.81987
3.77815
3.73726
3.69721
3.65801
3.61971
3.58234
3.54594
3.51058
3.4763
3.4432
3.41134
3.38083
3.35176
3.32425
3.29842
3.27439
3.25231
3.23231
3.21455
3.19917
3.18633
3.17617
3.16884
3.16448
3.1632
3.16512
3.17031
3.17884
3.19074
3.20598
3.22454
3.2463
3.27115
3.2989
3.32932
3.36216
3.39713
3.43391
3.47217
3.51159
3.55187
3.59273
3.63395
3.67537
3.71694
3.75866
3.80069
3.8433
3.88691
3.9321
3.97963
4.03048
4.08588
4.14736
4.2168
4.29658
4.38965
4.49979
4.63184
4.79211
4.98893
5.23344
5.54065
5.93095
6.43205
7.08124
7.92792
9.03527
10.4801
12.3486
14.7272
17.6886
21.2763
25.4935
30.299
35.6134
41.3304
47.3306
53.494
59.7093
65.8791
71.9217
77.7711
83.3751
88.6943
93.7004
98.3794
102.755
106.821
110.576
114.021
117.162
120.004
122.558
124.833
126.841
128.592
130.101
131.378
132.437
133.289
133.947
134.422
134.725
134.868
134.86
134.712
134.433
134.032
133.517
132.898
132.181
131.375
130.485
129.519
128.483
127.384
126.226
125.015
123.756
122.455
121.115
119.742
118.339
116.911
115.461
113.994
112.513
111.021
109.522
108.02
106.518
105.018
103.525
102.04
100.569
99.113
97.6759
96.2608
94.8708
93.5089
92.1781
90.8816
89.6226
88.4044
87.2304
86.1043
85.0299
84.0113
83.0531
82.1604
81.3387
80.5942
79.9341
79.3667
78.9017
78.5504
78.3264
78.2464
78.3306
78.6046
79.1007
79.8612
80.9418
82.4188
84.3991
87.0385
90.5724
95.3708
102.03
111.523
125.397
145.95
176.135
218.239
270.745
315.321
4.92637
4.8639
4.8026
4.74243
4.68337
4.62539
4.56845
4.51255
4.45766
4.40376
4.35082
4.29882
4.24773
4.19755
4.14824
4.09979
4.05217
4.00538
3.95938
3.91417
3.86974
3.82605
3.78311
3.7409
3.69942
3.65866
3.6186
3.57926
3.54062
3.5027
3.46551
3.42904
3.39332
3.35836
3.32418
3.29081
3.25827
3.2266
3.19583
3.166
3.13716
3.10934
3.0826
3.05697
3.03251
3.00927
2.98728
2.9666
2.94726
2.92931
2.91276
2.89764
2.88396
2.87172
2.86093
2.85154
2.84355
2.8369
2.83153
2.82739
2.8244
2.82247
2.82154
2.82152
2.82233
2.82391
2.82621
2.82919
2.83284
2.83718
2.84229
2.84825
2.85522
2.86342
2.87312
2.8847
2.89863
2.9155
2.93607
2.96132
2.9925
3.03123
3.07966
3.14069
3.21824
3.31776
3.44696
3.61683
3.84329
4.14946
4.5688
5.14897
5.95551
7.07357
8.60447
10.6543
13.3144
16.64
20.6349
25.2491
30.3893
35.9354
41.7573
47.7285
53.7342
59.6751
65.4681
71.048
76.3648
81.4226
86.1998
90.6813
94.8583
98.7271
102.288
105.546
108.506
111.178
113.572
115.698
117.568
119.195
120.592
121.769
122.74
123.517
124.111
124.534
124.796
124.907
124.878
124.719
124.438
124.043
123.544
122.948
122.262
121.493
120.649
119.734
118.756
117.72
116.632
115.496
114.317
113.1
111.85
110.571
109.266
107.94
106.597
105.24
103.873
102.498
101.121
99.7428
98.3678
96.999
95.6396
94.2926
92.9614
91.649
90.3585
89.093
87.8556
86.6495
85.4778
84.3438
83.2509
82.2028
81.2032
80.2563
79.3665
78.5387
77.7784
77.0916
76.4853
75.9675
75.5474
75.2359
75.046
74.9934
75.0972
75.3814
75.8759
76.6195
77.663
79.0749
80.9499
83.4238
86.6979
91.0821
97.0674
105.438
117.419
134.784
159.727
193.7
235.066
270.097
4.91074
4.84812
4.78667
4.72637
4.66718
4.60909
4.55205
4.49606
4.44108
4.38709
4.33407
4.28199
4.23083
4.18057
4.13119
4.08266
4.03498
3.98811
3.94204
3.89675
3.85223
3.80846
3.76542
3.72309
3.68147
3.64054
3.60029
3.56071
3.52179
3.48352
3.44589
3.4089
3.37254
3.33682
3.30172
3.26726
3.23344
3.20025
3.16771
3.13582
3.1046
3.07405
3.04418
3.01501
2.98655
2.95882
2.93183
2.90559
2.88012
2.85544
2.83154
2.80845
2.78617
2.7647
2.74404
2.72421
2.70517
2.68694
2.66949
2.65281
2.63687
2.62165
2.60713
2.59327
2.58005
2.56745
2.55543
2.54397
2.53307
2.52271
2.51289
2.50364
2.49497
2.48696
2.47965
2.47316
2.46761
2.46319
2.46012
2.45868
2.45928
2.4624
2.46871
2.4791
2.49478
2.51742
2.54941
2.59419
2.65682
2.74496
2.87031
3.05093
3.31475
3.70432
4.28226
5.13528
6.3726
8.11374
10.465
13.4919
17.2003
21.5354
26.3956
31.6531
37.1718
42.8197
48.4768
54.0503
59.4972
64.7613
69.8007
74.5851
79.0935
83.3127
87.236
90.8615
94.1913
97.2307
99.9872
102.47
104.689
106.656
108.383
109.882
111.164
112.242
113.127
113.831
114.365
114.74
114.966
115.052
115.009
114.845
114.568
114.188
113.711
113.145
112.497
111.774
110.981
110.126
109.212
108.247
107.234
106.18
105.087
103.961
102.807
101.627
100.427
99.2088
97.9772
96.7355
95.487
94.2349
92.9825
91.733
90.4896
89.2555
88.0338
86.8276
85.6402
84.4745
83.3337
82.221
81.1395
80.0924
79.0833
78.1156
77.1931
76.3198
75.5002
74.739
74.0414
73.4135
72.8618
72.3942
72.0193
71.7476
71.5915
71.5657
71.688
71.9808
72.4718
73.1962
74.2001
75.5444
77.3124
79.6211
82.6407
86.6277
91.9793
99.3173
109.593
124.152
144.595
171.829
204.338
231.926
4.90324
4.84053
4.779
4.71862
4.65938
4.60122
4.54414
4.4881
4.43308
4.37905
4.32599
4.27388
4.22269
4.17241
4.123
4.07445
4.02674
3.97986
3.93377
3.88847
3.84393
3.80014
3.75708
3.71474
3.6731
3.63215
3.59187
3.55225
3.51328
3.47494
3.43723
3.40013
3.36364
3.32776
3.29246
3.25775
3.22362
3.19006
3.15708
3.12467
3.09283
3.06156
3.03086
3.00073
2.97117
2.94219
2.91378
2.88595
2.85871
2.83206
2.80599
2.78052
2.75564
2.73136
2.70767
2.68457
2.66207
2.64014
2.6188
2.59802
2.57781
2.55813
2.53899
2.52036
2.50223
2.48458
2.46738
2.45063
2.4343
2.41837
2.40284
2.38769
2.37292
2.35852
2.34451
2.33091
2.31773
2.30502
2.29285
2.28129
2.27046
2.2605
2.25162
2.24407
2.23823
2.23458
2.23382
2.23695
2.24542
2.26142
2.28834
2.33151
2.39951
2.50634
2.67487
2.942
3.36509
4.0278
5.04015
6.5267
8.60081
11.3332
14.7311
18.737
23.2437
28.1108
33.2169
38.4581
43.7295
48.9449
54.0359
58.9497
63.6471
68.1
72.2897
76.2048
79.8401
83.1946
86.2714
89.076
91.6162
93.901
95.9406
97.746
99.3282
100.699
101.869
102.851
103.654
104.29
104.77
105.103
105.298
105.366
105.315
105.153
104.888
104.529
104.081
103.552
102.949
102.277
101.543
100.752
99.9097
99.0206
98.0897
97.1215
96.1205
95.0908
94.0364
92.9612
91.8689
90.7629
89.6468
88.5239
87.3973
86.2703
85.1461
84.0278
82.9186
81.8216
80.74
79.6769
78.6353
77.6184
76.6294
75.6715
74.7481
73.8627
73.019
72.221
71.4729
70.7795
70.1457
69.5774
69.081
68.6638
68.3343
68.1023
67.9795
67.9796
68.1195
68.4196
68.9054
69.6089
70.5715
71.847
73.508
75.6544
78.4286
82.0402
86.806
93.2103
101.979
114.111
130.758
152.471
177.955
199.682
4.89973
4.83698
4.77541
4.715
4.65572
4.59754
4.54044
4.48438
4.42934
4.3753
4.32223
4.27011
4.21891
4.16862
4.11921
4.07066
4.02295
3.97606
3.92998
3.88468
3.84015
3.79636
3.75331
3.71098
3.66935
3.62841
3.58813
3.54852
3.50955
3.47122
3.43351
3.39641
3.35991
3.324
3.28867
3.25392
3.21973
3.18611
3.15303
3.12051
3.08852
3.05708
3.02617
2.99579
2.96594
2.93662
2.90783
2.87956
2.85181
2.82458
2.79788
2.7717
2.74604
2.72089
2.69626
2.67215
2.64853
2.62542
2.60281
2.58068
2.55903
2.53784
2.51711
2.49682
2.47695
2.45748
2.4384
2.4197
2.40134
2.3833
2.36558
2.34816
2.331
2.31411
2.29746
2.28105
2.26487
2.24892
2.23322
2.21777
2.20261
2.18777
2.17331
2.1593
2.14586
2.13313
2.12131
2.11069
2.10169
2.09491
2.09128
2.09224
2.10012
2.11875
2.15462