/*--------------------------------*- C++ -*----------------------------------*\
| =========                 |                                                 |
| \\      /  F ield         | OpenFOAM: The Open Source CFD Toolbox           |
|  \\    /   O peration     | Version:  2.4.0                                 |
|   \\  /    A nd           | Web:      www.OpenFOAM.org                      |
|    \\/     M anipulation  |                                                 |
\*---------------------------------------------------------------------------*/
FoamFile
{
    version     2.0;
    format      ascii;
    class       volScalarField;
    location    "0.056";
    object      nut;
}
// * * * * * * * * * * * * * * * * * * * * * * * * * * * * * * * * * * * * * //

dimensions      [0 2 -1 0 0 0 0];

internalField   nonuniform List<scalar> 
17600
(
0.00010783
0.00012451
0.000135993
0.000143228
0.000147274
0.000149058
0.000149311
0.000148581
0.000147257
0.000145609
0.000143819
0.000142008
0.000140255
0.00013861
0.000137103
0.000135751
0.000134559
0.000133525
0.000132626
0.000132008
0.000329173
0.000212655
0.000162185
0.00013586
0.000121229
0.000113025
0.000108733
0.000107059
0.000107297
0.000109044
0.000112053
0.000116155
0.000121216
0.000127109
0.000133698
0.000140832
0.000148346
0.000156062
0.000163863
0.000169519
0.000659514
0.000505622
0.000400841
0.000328641
0.000277966
0.000241566
0.000214856
0.000194963
0.000180061
0.000168963
0.00016088
0.000155282
0.000151804
0.000150191
0.000150254
0.000151842
0.000154823
0.00015906
0.000164372
0.000169668
0.000798066
0.000719144
0.00063947
0.000568171
0.000507729
0.000457532
0.000415973
0.000381395
0.000352386
0.000327824
0.000306848
0.000288812
0.00027324
0.000259792
0.000248234
0.00023841
0.000230223
0.000223599
0.000218382
0.00021384
0.000836034
0.000805282
0.000764927
0.000720395
0.00067586
0.000633741
0.000595094
0.00056017
0.000528805
0.000500655
0.000475318
0.0004524
0.000431544
0.000412442
0.000394842
0.000378545
0.0003634
0.000349288
0.000336003
0.000323063
0.000845497
0.000833333
0.000815252
0.00079227
0.0007661
0.00073842
0.000710527
0.000683286
0.000657208
0.000632544
0.000609372
0.000587659
0.000567313
0.000548208
0.000530206
0.000513169
0.00049696
0.000481447
0.000466422
0.000451614
0.000847815
0.000841759
0.000833143
0.000821665
0.000807553
0.000791359
0.000773738
0.000755308
0.000736577
0.00071793
0.000699633
0.000681855
0.00066469
0.000648174
0.000632306
0.000617055
0.000602371
0.000588185
0.000574375
0.000560843
0.000848382
0.000844198
0.000839116
0.000832753
0.00082492
0.000815628
0.000805039
0.000793399
0.000780981
0.000768051
0.000754839
0.000741534
0.000728282
0.000715188
0.000702325
0.000689734
0.000677434
0.000665423
0.000653661
0.000642162
0.00084852
0.000844889
0.000841035
0.000836725
0.000831764
0.000826029
0.000819477
0.000812137
0.00080409
0.00079545
0.000786341
0.000776887
0.000767203
0.000757386
0.00074752
0.000737669
0.00072788
0.000718185
0.000708598
0.000699185
0.000848553
0.000845082
0.000841635
0.000838096
0.000834345
0.000830269
0.000825787
0.000820851
0.000815449
0.000809598
0.000803336
0.000796716
0.000789798
0.000782645
0.000775314
0.000767859
0.000760327
0.000752756
0.000745177
0.000737677
0.00084856
0.000845133
0.000841817
0.000838556
0.000835284
0.000831931
0.000828429
0.000824725
0.000820777
0.000816564
0.000812078
0.000807326
0.000802327
0.000797105
0.000791689
0.000786111
0.000780402
0.000774591
0.000768707
0.000762835
0.00084856
0.000845146
0.000841871
0.000838706
0.000835616
0.000832561
0.000829497
0.000826382
0.000823178
0.000819856
0.000816392
0.000812773
0.000808994
0.000805056
0.000800966
0.000796735
0.000792378
0.000787911
0.000783353
0.000778776
0.00084856
0.000845148
0.000841885
0.000838752
0.000835729
0.000832792
0.000829914
0.000827067
0.000824224
0.000821357
0.000818445
0.000815468
0.000812413
0.00080927
0.000806034
0.000802704
0.000799281
0.00079577
0.000792182
0.000788574
0.000848559
0.000845147
0.000841887
0.000838765
0.000835766
0.000832874
0.000830072
0.000827342
0.000824664
0.000822019
0.00081939
0.000816758
0.000814109
0.00081143
0.000808712
0.000805948
0.000803132
0.000800263
0.000797343
0.000794419
0.000848558
0.000845146
0.000841887
0.000838767
0.000835776
0.000832901
0.000830129
0.000827448
0.000824844
0.000822303
0.000819811
0.000817356
0.000814923
0.000812503
0.000810084
0.000807657
0.000805216
0.000802754
0.00080027
0.000797805
0.000848557
0.000845145
0.000841885
0.000838767
0.000835778
0.000832908
0.000830148
0.000827487
0.000824914
0.00082242
0.000819993
0.000817625
0.000815304
0.00081302
0.000810766
0.000808532
0.00080631
0.000804095
0.000801884
0.00079971
0.000848557
0.000845144
0.000841884
0.000838765
0.000835777
0.00083291
0.000830154
0.0008275
0.00082494
0.000822466
0.00082007
0.000817742
0.000815476
0.000813263
0.000811095
0.000808966
0.000806869
0.000804797
0.000802747
0.000800753
0.000848557
0.000845143
0.000841883
0.000838764
0.000835776
0.000832909
0.000830154
0.000827504
0.000824949
0.000822484
0.0008201
0.000817791
0.000815551
0.000813372
0.000811249
0.000809176
0.000807145
0.000805153
0.000803194
0.000801303
0.000848556
0.000845143
0.000841883
0.000838763
0.000835775
0.000832908
0.000830154
0.000827504
0.000824952
0.000822489
0.000820111
0.000817811
0.000815582
0.00081342
0.000811318
0.000809271
0.000807275
0.000805323
0.000803413
0.000801576
0.000848556
0.000845143
0.000841882
0.000838763
0.000835774
0.000832908
0.000830153
0.000827504
0.000824952
0.000822491
0.000820115
0.000817817
0.000815593
0.000813437
0.000811344
0.000809308
0.000807325
0.00080539
0.0008035
0.000801688
0.000848556
0.000845143
0.000841882
0.000838763
0.000835774
0.000832908
0.000830153
0.000827504
0.000824952
0.000822491
0.000820115
0.000817817
0.000815593
0.000813437
0.000811344
0.000809308
0.000807325
0.00080539
0.0008035
0.000801686
0.000848556
0.000845143
0.000841883
0.000838763
0.000835775
0.000832908
0.000830154
0.000827504
0.000824952
0.000822489
0.000820111
0.000817811
0.000815582
0.00081342
0.000811318
0.000809271
0.000807274
0.000805322
0.000803411
0.000801572
0.000848557
0.000845143
0.000841883
0.000838764
0.000835776
0.000832909
0.000830154
0.000827504
0.000824949
0.000822484
0.0008201
0.000817791
0.000815551
0.000813372
0.000811249
0.000809175
0.000807145
0.000805152
0.000803191
0.000801295
0.000848557
0.000845144
0.000841884
0.000838765
0.000835777
0.00083291
0.000830154
0.0008275
0.00082494
0.000822466
0.00082007
0.000817742
0.000815476
0.000813263
0.000811095
0.000808966
0.000806869
0.000804796
0.000802743
0.000800741
0.000848557
0.000845145
0.000841885
0.000838767
0.000835778
0.000832908
0.000830148
0.000827487
0.000824914
0.00082242
0.000819993
0.000817625
0.000815304
0.00081302
0.000810766
0.000808531
0.00080631
0.000804093
0.000801877
0.000799695
0.000848558
0.000845146
0.000841887
0.000838767
0.000835776
0.000832901
0.000830129
0.000827448
0.000824844
0.000822303
0.000819811
0.000817356
0.000814923
0.000812503
0.000810084
0.000807657
0.000805215
0.000802751
0.000800262
0.000797785
0.000848559
0.000845147
0.000841887
0.000838765
0.000835766
0.000832874
0.000830072
0.000827342
0.000824664
0.000822019
0.00081939
0.000816758
0.000814109
0.00081143
0.000808712
0.000805947
0.000803131
0.00080026
0.000797333
0.000794396
0.00084856
0.000845148
0.000841885
0.000838752
0.000835729
0.000832792
0.000829914
0.000827067
0.000824224
0.000821357
0.000818445
0.000815468
0.000812413
0.00080927
0.000806034
0.000802703
0.000799279
0.000795767
0.000792172
0.000788551
0.00084856
0.000845146
0.000841871
0.000838706
0.000835616
0.000832561
0.000829497
0.000826382
0.000823178
0.000819856
0.000816392
0.000812773
0.000808994
0.000805056
0.000800965
0.000796734
0.000792376
0.000787907
0.000783343
0.000778759
0.00084856
0.000845133
0.000841817
0.000838556
0.000835284
0.000831931
0.000828429
0.000824725
0.000820777
0.000816564
0.000812078
0.000807326
0.000802327
0.000797104
0.000791688
0.000786109
0.000780399
0.000774588
0.000768702
0.000762838
0.000848553
0.000845082
0.000841635
0.000838096
0.000834345
0.000830269
0.000825787
0.000820851
0.000815449
0.000809598
0.000803336
0.000796716
0.000789798
0.000782644
0.000775313
0.000767857
0.000760324
0.000752756
0.000745184
0.00073773
0.00084852
0.000844889
0.000841035
0.000836725
0.000831764
0.000826029
0.000819477
0.000812137
0.00080409
0.00079545
0.00078634
0.000776887
0.000767202
0.000757386
0.000747519
0.000737666
0.000727877
0.00071819
0.000708627
0.00069934
0.000848382
0.000844198
0.000839116
0.000832753
0.00082492
0.000815628
0.000805039
0.000793399
0.000780981
0.000768051
0.000754838
0.000741534
0.000728281
0.000715187
0.000702323
0.000689731
0.000677433
0.000665436
0.000653736
0.000642514
0.000847815
0.000841759
0.000833143
0.000821665
0.000807553
0.000791359
0.000773738
0.000755308
0.000736577
0.00071793
0.000699633
0.000681855
0.000664689
0.000648172
0.000632303
0.000617052
0.000602372
0.000588214
0.000574527
0.000561555
0.000845497
0.000833333
0.000815252
0.00079227
0.0007661
0.00073842
0.000710527
0.000683286
0.000657208
0.000632544
0.000609371
0.000587658
0.000567312
0.000548206
0.000530203
0.000513165
0.000496964
0.000481496
0.000466687
0.000452901
0.000836034
0.000805282
0.000764927
0.000720395
0.00067586
0.000633741
0.000595094
0.00056017
0.000528805
0.000500655
0.000475318
0.0004524
0.000431543
0.00041244
0.000394839
0.000378542
0.000363407
0.000349351
0.000336353
0.000324905
0.000798066
0.000719144
0.00063947
0.000568171
0.000507729
0.000457532
0.000415973
0.000381395
0.000352386
0.000327824
0.000306848
0.000288811
0.000273239
0.00025979
0.000248231
0.000238408
0.000230228
0.000223645
0.000218633
0.000215498
0.000659514
0.000505622
0.000400841
0.000328641
0.000277966
0.000241566
0.000214856
0.000194963
0.000180061
0.000168963
0.00016088
0.000155282
0.000151804
0.000150191
0.000150253
0.000151842
0.000154825
0.000159073
0.00016444
0.000170912
0.000329173
0.000212655
0.000162185
0.00013586
0.000121229
0.000113025
0.000108733
0.000107059
0.000107297
0.000109044
0.000112053
0.000116155
0.000121216
0.000127109
0.000133698
0.000140832
0.000148347
0.000156073
0.000163837
0.000171606
0.00010783
0.00012451
0.000135993
0.000143228
0.000147274
0.000149058
0.000149311
0.000148581
0.000147257
0.000145609
0.000143819
0.000142008
0.000140255
0.000138609
0.000137103
0.000135751
0.000134559
0.000133525
0.000132645
0.000131882
0.000169863
0.000218505
0.000274245
0.000334216
0.000395102
0.000454633
0.000511944
0.000567132
0.000620758
0.000673473
0.000725798
0.000778067
0.000830468
0.000883121
0.000936135
0.000989615
0.00104366
0.00109839
0.00115388
0.00121024
0.00126755
0.00132587
0.00138527
0.00144582
0.00150757
0.0015706
0.00163496
0.00170068
0.00176781
0.00183636
0.00190633
0.00197771
0.00205048
0.00212458
0.00219994
0.00227649
0.00235412
0.0024327
0.00251208
0.0025921
0.00267258
0.00275331
0.00283408
0.00291467
0.00299484
0.00307432
0.00315287
0.00323022
0.0033061
0.00338027
0.00345245
0.00352243
0.00358998
0.00365492
0.00371708
0.00377633
0.00383259
0.00388581
0.00393601
0.00398323
0.00402758
0.00406922
0.00410839
0.00414536
0.00418047
0.00421413
0.00424681
0.00427905
0.00431147
0.00434473
0.00437959
0.0044169
0.00445757
0.00450261
0.00455314
0.00461035
0.00467554
0.00475012
0.00483557
0.00493345
0.00504533
0.00517279
0.00531734
0.00548031
0.00566276
0.0058654
0.00608841
0.00633141
0.00659334
0.00687244
0.00716628
0.00747184
0.00778565
0.00810391
0.00842276
0.00873835
0.00904711
0.00934579
0.00963162
0.00990229
0.010156
0.0103915
0.0106079
0.0108047
0.010982
0.0111399
0.0112788
0.0113993
0.0115023
0.0115886
0.0116591
0.0117147
0.0117564
0.0117851
0.0118018
0.0118075
0.0118028
0.0117887
0.0117658
0.0117348
0.0116963
0.011651
0.0115994
0.011542
0.0114793
0.0114117
0.0113396
0.0112635
0.0111836
0.0111002
0.0110138
0.0109245
0.0108327
0.0107385
0.0106423
0.0105441
0.0104443
0.010343
0.0102405
0.0101367
0.010032
0.00992652
0.00982035
0.00971365
0.00960657
0.00949925
0.00939182
0.0092844
0.00917714
0.00907014
0.00896354
0.00885745
0.00875201
0.00864731
0.00854348
0.00844062
0.00833881
0.00823815
0.00813872
0.00804063
0.00794396
0.00784881
0.00775525
0.00766337
0.00757326
0.00748499
0.00739865
0.00731434
0.00723217
0.00715222
0.00707462
0.00699949
0.00692697
0.00685721
0.00679039
0.00672669
0.00666636
0.00660964
0.00655686
0.00650839
0.00646467
0.00642626
0.00639386
0.00636836
0.00635094
0.00634317
0.00634728
0.00636641
0.00640519
0.00647045
0.00657192
0.00672204
0.00693254
0.00720314
0.00749813
0.00771315
0.007641
0.0069366
0.0051211
0.00112676
0.000174664
0.00018399
0.000198993
0.000220944
0.000250236
0.000286501
0.000328718
0.000375456
0.000425161
0.000476438
0.00052824
0.000579948
0.000631332
0.000682439
0.000733467
0.000784641
0.000836141
0.000888085
0.000940532
0.000993521
0.00104709
0.00110128
0.00115618
0.00121186
0.0012684
0.00132588
0.00138436
0.00144391
0.00150456
0.00156635
0.00162929
0.00169341
0.0017587
0.00182514
0.00189272
0.00196137
0.00203103
0.00210161
0.002173
0.00224508
0.00231769
0.00239069
0.00246389
0.0025371
0.00261011
0.00268269
0.00275462
0.00282565
0.00289555
0.00296406
0.00303096
0.00309601
0.00315901
0.00321975
0.00327807
0.00333383
0.00338692
0.00343728
0.00348489
0.00352978
0.003572
0.0036117
0.00364905
0.00368428
0.0037177
0.00374965
0.00378055
0.00381087
0.00384118
0.00387207
0.00390423
0.00393843
0.00397551
0.0040164
0.00406214
0.00411384
0.00417275
0.0042402
0.00431764
0.00440662
0.00450874
0.00462567
0.00475905
0.00491044
0.00508121
0.00527244
0.00548476
0.00571829
0.00597248
0.00624604
0.00653697
0.00684258
0.00715956
0.00748418
0.00781245
0.00814035
0.00846396
0.00877966
0.00908424
0.00937497
0.00964965
0.0099066
0.0101446
0.010363
0.0105615
0.01074
0.0108988
0.0110385
0.0111597
0.0112634
0.0113503
0.0114215
0.0114778
0.0115204
0.0115501
0.0115679
0.0115747
0.0115713
0.0115584
0.0115368
0.0115071
0.01147
0.0114261
0.011376
0.01132
0.0112588
0.0111927
0.0111222
0.0110475
0.0109692
0.0108875
0.0108026
0.010715
0.0106248
0.0105323
0.0104377
0.0103413
0.0102432
0.0101437
0.0100428
0.00994088
0.00983799
0.00973431
0.00962999
0.00952517
0.00942
0.00931462
0.00920916
0.00910375
0.00899853
0.00889362
0.00878915
0.00868524
0.00858202
0.00847959
0.00837807
0.00827755
0.00817812
0.00807989
0.00798295
0.00788738
0.00779329
0.00770075
0.00760985
0.00752067
0.00743331
0.00734785
0.00726438
0.00718302
0.00710386
0.00702703
0.00695264
0.00688083
0.00681177
0.00674563
0.00668259
0.0066229
0.00656681
0.00651464
0.00646676
0.00642363
0.00638579
0.00635395
0.006329
0.0063121
0.00630483
0.00630938
0.00632887
0.00636788
0.00643316
0.00653442
0.00668429
0.00689515
0.00716826
0.00747052
0.00770145
0.00765968
0.00702582
0.00535272
0.00179302
0.000171587
0.000173889
0.000176961
0.00018133
0.000187532
0.000196405
0.000208837
0.000225646
0.000247455
0.000274574
0.000306953
0.000344193
0.000385614
0.000430363
0.000477543
0.000526334
0.000576084
0.000626354
0.000676911
0.000727692
0.000778748
0.000830183
0.000882108
0.000934616
0.000987768
0.0010416
0.00109615
0.00115143
0.00120748
0.00126432
0.001322
0.00138055
0.00144
0.00150036
0.00156162
0.00162376
0.00168675
0.00175052
0.00181501
0.00188013
0.00194578
0.00201182
0.00207813
0.00214454
0.00221089
0.00227699
0.00234263
0.00240761
0.00247172
0.00253474
0.00259644
0.00265662
0.00271507
0.00277162
0.00282608
0.00287831
0.00292821
0.00297569
0.0030207
0.00306326
0.00310339
0.0031412
0.00317682
0.00321045
0.00324233
0.00327277
0.00330212
0.00333081
0.00335932
0.0033882
0.00341804
0.00344955
0.00348348
0.00352069
0.0035621
0.00360875
0.0036618
0.0037225
0.00379222
0.00387247
0.00396484
0.00407103
0.00419277
0.00433178
0.0044897
0.00466794
0.00486759
0.00508924
0.00533292
0.0055979
0.0058827
0.00618505
0.00650197
0.0068299
0.00716487
0.00750271
0.00783922
0.00817045
0.00849275
0.00880294
0.00909838
0.00937694
0.00963706
0.00987767
0.0100981
0.0102983
0.0104781
0.0106382
0.0107789
0.0109012
0.0110058
0.0110937
0.0111659
0.0112235
0.0112675
0.0112986
0.0113179
0.0113263
0.0113244
0.0113131
0.0112932
0.0112652
0.0112298
0.0111877
0.0111393
0.0110852
0.0110257
0.0109615
0.0108928
0.0108201
0.0107436
0.0106638
0.0105809
0.0104952
0.010407
0.0103164
0.0102239
0.0101294
0.0100334
0.00993587
0.0098371
0.00973724
0.00963644
0.00953488
0.0094327
0.00933005
0.00922707
0.0091239
0.00902069
0.00891756
0.00881465
0.0087121
0.00861001
0.00850854
0.00840778
0.00830786
0.00820888
0.00811093
0.00801413
0.00791855
0.0078243
0.00773148
0.00764016
0.00755043
0.00746238
0.0073761
0.00729169
0.00720924
0.00712885
0.00705064
0.00697472
0.00690121
0.00683027
0.00676204
0.0066967
0.00663444
0.00657551
0.00652016
0.0064687
0.00642151
0.00637904
0.00634185
0.00631061
0.00628623
0.00626985
0.00626302
0.0062679
0.00628754
0.00632642
0.00639114
0.00649122
0.00663927
0.00684802
0.00712012
0.0074254
0.00766865
0.00765849
0.00710391
0.00560473
0.00257965
0.000212868
0.000212102
0.000211533
0.000211176
0.000211004
0.000211056
0.000211363
0.000212136
0.000213785
0.000216848
0.000221984
0.000229915
0.000241341
0.000256854
0.000276873
0.000301598
0.000330994
0.0003648
0.000402572
0.000443729
0.000487634
0.000533659
0.000581247
0.000629961
0.000679492
0.000729661
0.000780393
0.000831684
0.000883569
0.000936096
0.000989306
0.00104323
0.00109786
0.00115322
0.00120927
0.001266
0.00132338
0.00138137
0.00143994
0.00149902
0.00155855
0.00161844
0.00167858
0.00173885
0.00179912
0.00185924
0.00191903
0.00197834
0.00203697
0.00209474
0.00215145
0.00220691
0.00226095
0.00231338
0.00236405
0.00241281
0.00245956
0.00250419
0.00254666
0.00258695
0.00262507
0.00266109
0.00269512
0.0027273
0.00275785
0.00278701
0.0028151
0.00284248
0.00286956
0.00289682
0.0029248
0.0029541
0.00298541
0.00301947
0.00305713
0.00309932
0.00314709
0.0032016
0.00326412
0.00333608
0.00341903
0.00351463
0.00362465
0.00375094
0.00389531
0.00405947
0.00424489
0.00445269
0.00468342
0.00493699
0.00521252
0.00550827
0.00582173
0.00614961
0.00648808
0.00683294
0.00717982
0.00752443
0.00786274
0.00819112
0.00850644
0.00880612
0.00908816
0.0093511
0.00959397
0.00981627
0.0100179
0.010199
0.0103601
0.0105019
0.0106252
0.0107308
0.01082
0.0108936
0.0109527
0.0109982
0.0110309
0.0110519
0.011062
0.0110619
0.0110524
0.0110343
0.0110083
0.0109749
0.0109347
0.0108883
0.0108362
0.0107788
0.0107167
0.0106501
0.0105795
0.0105052
0.0104275
0.0103468
0.0102633
0.0101773
0.010089
0.00999864
0.00990648
0.0098127
0.00971749
0.00962104
0.0095235
0.00942506
0.00932586
0.00922607
0.00912582
0.00902528
0.00892457
0.00882384
0.00872323
0.00862288
0.00852291
0.00842345
0.00832462
0.00822656
0.00812937
0.00803314
0.00793799
0.00784401
0.0077513
0.00765995
0.00757005
0.00748169
0.00739496
0.00730996
0.00722678
0.00714552
0.00706628
0.00698918
0.00691433
0.00684186
0.00677192
0.00670467
0.00664027
0.00657892
0.00652087
0.00646637
0.00641573
0.00636932
0.0063276
0.00629111
0.00626053
0.00623674
0.00622086
0.00621442
0.00621951
0.00623909
0.00627747
0.00634104
0.00643902
0.00658374
0.00678806
0.00705583
0.00736019
0.0076127
0.00763541
0.00716665
0.00587066
0.00339626
0.000319488
0.000316163
0.00031307
0.00031021
0.000307518
0.00030492
0.000302338
0.000299674
0.000296769
0.000293597
0.000290158
0.000286527
0.000282881
0.000279524
0.000276898
0.000275562
0.000276159
0.000279348
0.000285749
0.00029588
0.000310122
0.00032869
0.000351631
0.000378829
0.000410027
0.000444853
0.000482862
0.000523576
0.000566527
0.000611292
0.000657515
0.000704916
0.000753297
0.000802521
0.000852503
0.00090319
0.000954542
0.00100652
0.00105908
0.00111216
0.00116571
0.00121962
0.00127381
0.00132818
0.00138261
0.00143697
0.00149112
0.00154494
0.00159825
0.0016509
0.00170273
0.00175357
0.00180326
0.00185164
0.00189855
0.00194388
0.0019875
0.00202933
0.00206929
0.00210737
0.00214355
0.00217788
0.00221044
0.00224134
0.00227074
0.00229885
0.00232594
0.0023523
0.00237829
0.00240431
0.00243083
0.00245838
0.00248754
0.00251896
0.0025534
0.00259167
0.00263471
0.00268356
0.00273937
0.00280347
0.00287731
0.00296249
0.00306077
0.00317403
0.00330421
0.00345324
0.00362296
0.00381491
0.00403024
0.00426947
0.0045324
0.00481796
0.00512417
0.0054482
0.0057865
0.00613494
0.00648907
0.00684438
0.00719647
0.00754126
0.00787514
0.00819505
0.0084985
0.00878359
0.00904897
0.00929379
0.00951765
0.00972055
0.0099028
0.0100649
0.0102078
0.0103321
0.0104392
0.0105299
0.0106051
0.0106658
0.010713
0.0107475
0.0107704
0.0107823
0.0107842
0.0107768
0.0107608
0.0107369
0.0107056
0.0106676
0.0106235
0.0105736
0.0105186
0.0104587
0.0103945
0.0103263
0.0102543
0.0101791
0.0101008
0.0100197
0.00993619
0.00985038
0.00976254
0.00967289
0.00958164
0.00948897
0.00939507
0.0093001
0.00920424
0.00910765
0.00901048
0.00891288
0.008815
0.00871699
0.00861898
0.00852112
0.00842355
0.00832639
0.00822977
0.00813382
0.00803867
0.0079444
0.00785114
0.00775899
0.00766804
0.00757838
0.00749011
0.00740332
0.00731811
0.00723458
0.00715281
0.00707292
0.006995
0.00691918
0.00684557
0.00677429
0.00670551
0.00663937
0.00657605
0.00651575
0.0064587
0.00640516
0.00635544
0.00630992
0.00626903
0.00623331
0.00620344
0.00618026
0.00616489
0.00615879
0.00616399
0.00618332
0.0062209
0.00628282
0.00637788
0.00651794
0.00671576
0.00697622
0.00727609
0.0075349
0.00759062
0.00721093
0.00612768
0.00416658
0.000447298
0.000443185
0.000439254
0.000435518
0.000431958
0.000428541
0.000425232
0.000421989
0.000418722
0.000415351
0.000411808
0.000408014
0.000403887
0.000399345
0.000394316
0.000388759
0.000382681
0.000376159
0.000369369
0.000362593
0.00035623
0.000350771
0.000346777
0.000344827
0.000345478
0.000349218
0.000356436
0.000367404
0.000382267
0.000401046
0.00042365
0.000449889
0.000479497
0.000512153
0.000547506
0.000585199
0.000624889
0.000666259
0.000709031
0.000752964
0.000797855
0.00084353
0.000889838
0.000936639
0.0009838
0.00103119
0.00107867
0.00112609
0.00117332
0.00122019
0.00126655
0.00131224
0.00135711
0.00140101
0.0014438
0.00148536
0.00152557
0.00156433
0.00160158
0.00163727
0.00167138
0.00170393
0.00173496
0.00176456
0.00179286
0.00182
0.00184621
0.00187171
0.00189681
0.00192183
0.00194718
0.00197327
0.00200062
0.00202977
0.00206137
0.00209611
0.0021348
0.00217835
0.00222779
0.0022843
0.0023492
0.002424
0.00251038
0.00261019
0.00272544
0.00285821
0.0030106
0.00318458
0.00338183
0.00360353
0.0038502
0.00412152
0.0044162
0.00473201
0.00506582
0.00541373
0.00577135
0.00613399
0.00649697
0.0068558
0.00720638
0.00754513
0.00786906
0.00817576
0.00846345
0.00873088
0.00897732
0.0092025
0.00940651
0.00958979
0.009753
0.00989698
0.0100229
0.0101315
0.0102239
0.0103008
0.0103634
0.0104125
0.010449
0.0104739
0.0104879
0.010492
0.0104868
0.0104731
0.0104515
0.0104227
0.0103871
0.0103454
0.0102981
0.0102456
0.0101883
0.0101266
0.010061
0.00999172
0.00991912
0.0098435
0.00976513
0.00968428
0.00960119
0.00951608
0.00942919
0.00934069
0.0092508
0.00915969
0.00906753
0.00897449
0.00888073
0.00878641
0.00869169
0.0085967
0.00850161
0.00840654
0.00831165
0.00821707
0.00812294
0.00802938
0.00793651
0.00784446
0.00775334
0.00766324
0.00757426
0.00748652
0.00740009
0.00731508
0.00723159
0.00714972
0.00706955
0.00699121
0.00691479
0.00684042
0.0067682
0.00669829
0.00663081
0.00656593
0.00650383
0.0064447
0.00638878
0.00633633
0.00628765
0.0062431
0.00620313
0.00616826
0.00613915
0.00611663
0.00610177
0.00609599
0.00610121
0.00612013
0.00615666
0.00621651
0.00630796
0.00644227
0.00663183
0.0068824
0.00717456
0.00743672
0.00752413
0.00723308
0.00635543
0.00483447
0.000556821
0.000552959
0.000549218
0.00054561
0.000542132
0.000538772
0.00053552
0.000532364
0.000529275
0.000526215
0.000523164
0.000520093
0.00051697
0.000513754
0.000510396
0.00050684
0.00050302
0.000498864
0.0004943
0.000489257
0.000483677
0.000477525
0.000470802
0.00046356
0.000455917
0.000448065
0.000440279
0.000432907
0.000426359
0.000421079
0.000417522
0.000416118
0.000417245
0.000421214
0.000428249
0.000438484
0.000451967
0.00046866
0.000488452
0.000511171
0.000536598
0.00056448
0.000594541
0.000626499
0.000660069
0.000694978
0.000730961
0.000767772
0.000805177
0.000842958
0.00088091
0.000918839
0.000956564
0.000993913
0.00103073
0.00106686
0.00110218
0.00113656
0.00116993
0.0012022
0.00123332
0.00126329
0.0012921
0.00131981
0.00134647
0.00137221
0.00139717
0.00142153
0.0014455
0.00146935
0.00149339
0.00151795
0.00154343
0.00157028
0.00159902
0.00163023
0.00166457
0.0017028
0.00174581
0.00179461
0.00185037
0.00191445
0.00198839
0.00207396
0.00217316
0.00228813
0.00242118
0.00257462
0.00275062
0.00295102
0.00317711
0.00342941
0.00370747
0.00400981
0.0043339
0.00467625
0.00503264
0.00539838
0.00576853
0.00613825
0.00650297
0.00685856
0.00720148
0.00752879
0.00783819
0.00812799
0.00839706
0.0086448
0.00887105
0.00907606
0.00926037
0.00942482
0.00957047
0.00969807
0.00980848
0.00990263
0.00998149
0.010046
0.0100972
0.0101359
0.010163
0.0101794
0.0101858
0.0101831
0.0101719
0.0101529
0.0101266
0.0100937
0.0100547
0.0100101
0.00996038
0.00990588
0.00984706
0.00978427
0.00971786
0.00964815
0.00957543
0.00949999
0.00942208
0.00934194
0.00925981
0.00917589
0.00909039
0.0090035
0.0089154
0.00882627
0.00873628
0.00864558
0.00855434
0.0084627
0.00837083
0.00827886
0.00818695
0.00809524
0.00800387
0.00791297
0.00782266
0.00773308
0.00764432
0.00755651
0.00746975
0.00738413
0.00729977
0.00721675
0.00713518
0.00705516
0.0069768
0.00690019
0.00682545
0.00675269
0.00668205
0.00661364
0.00654763
0.00648416
0.00642342
0.0063656
0.00631094
0.00625969
0.00621215
0.00616869
0.00612973
0.00609579
0.0060675
0.00604568
0.00603135
0.00602586
0.00603105
0.00604946
0.00608474
0.00614218
0.00622949
0.00635718
0.00653708
0.00677563
0.00705725
0.00731975
0.00743604
0.0072296
0.00654015
0.00537544
0.000638717
0.000635398
0.000632158
0.000629004
0.000625938
0.000622954
0.00062005
0.000617224
0.000614462
0.000611747
0.000609076
0.000606443
0.000603842
0.000601263
0.000598695
0.000596124
0.00059353
0.000590892
0.00058818
0.000585362
0.000582398
0.000579244
0.000575852
0.000572168
0.000568142
0.000563724
0.000558872
0.00055356
0.00054778
0.000541555
0.000534943
0.000528047
0.000521014
0.000514041
0.000507371
0.000501281
0.000496071
0.00049205
0.000489518
0.000488745
0.000489964
0.000493355
0.000499041
0.000507084
0.00051749
0.000530206
0.000545132
0.000562126
0.000581011
0.000601587
0.000623634
0.000646923
0.000671221
0.0006963
0.000721937
0.000747924
0.000774068
0.000800193
0.000826145
0.000851795
0.000877035
0.000901787
0.000925997
0.000949642
0.000972727
0.000995289
0.00101739
0.00103914
0.00106067
0.00108213
0.00110374
0.00112573
0.00114839
0.00117205
0.00119707
0.00122392
0.00125309
0.00128519
0.00132093
0.00136112
0.00140675
0.00145898
0.00151918
0.00158896
0.00167021
0.00176506
0.0018759
0.00200531
0.0021559
0.00233014
0.00253013
0.00275734
0.00301231
0.0032945
0.0036022
0.00393253
0.00428164
0.00464493
0.00501736
0.00539375
0.00576907
0.00613866
0.00649836
0.00684465
0.00717465
0.00748613
0.0077775
0.00804777
0.00829648
0.00852364
0.00872962
0.00891534
0.00908158
0.00922899
0.00935838
0.00947065
0.00956675
0.00964765
0.00971433
0.00976773
0.00980876
0.00983832
0.00985723
0.00986628
0.00986622
0.00985774
0.00984149
0.00981809
0.00978809
0.00975203
0.00971038
0.00966362
0.00961215
0.00955638
0.00949667
0.00943336
0.00936677
0.00929719
0.00922489
0.00915015
0.00907319
0.00899425
0.00891354
0.00883125
0.00874759
0.00866272
0.00857684
0.0084901
0.00840267
0.00831472
0.00822638
0.00813783
0.0080492
0.00796065
0.00787232
0.00778435
0.00769687
0.00761
0.00752387
0.00743859
0.00735427
0.00727102
0.00718893
0.00710812
0.00702868
0.00695072
0.00687434
0.00679965
0.00672677
0.00665581
0.0065869
0.00652017
0.00645578
0.00639387
0.00633464
0.00627827
0.00622499
0.00617507
0.00612879
0.00608652
0.00604866
0.00601573
0.00598833
0.00596726
0.00595349
0.0059483
0.00595342
0.00597123
0.0060051
0.00605991
0.0061427
0.00626313
0.00643233
0.0066572
0.00692587
0.00718562
0.00732679
0.00719787
0.00667409
0.0057888
0.000696351
0.000693616
0.000690929
0.000688295
0.000685715
0.000683189
0.000680715
0.000678299
0.000675922
0.000673582
0.00067128
0.000669015
0.000666788
0.000664596
0.00066244
0.000660318
0.000658228
0.000656166
0.000654127
0.000652105
0.000650092
0.000648077
0.000646047
0.000643986
0.000641874
0.000639691
0.00063741
0.000635003
0.00063244
0.000629691
0.000626724
0.00062351
0.000620024
0.00061625
0.000612179
0.000607817
0.000603189
0.000598338
0.000593331
0.000588257
0.000583232
0.000578393
0.000573895
0.000569907
0.0005666
0.000564147
0.000562706
0.000562418
0.000563398
0.000565729
0.000569463
0.000574615
0.000581167
0.00058907
0.000598247
0.0006086
0.000620013
0.00063236
0.000645509
0.000659327
0.000673689
0.000688478
0.000703591
0.000718941
0.000734462
0.000750109
0.000765862
0.000781724
0.000797726
0.000813925
0.000830408
0.000847292
0.000864731
0.000882912
0.000902067
0.000922478
0.000944486
0.000968502
0.000995027
0.00102467
0.00105818
0.00109646
0.00114063
0.00119208
0.00125245
0.00132375
0.00140833
0.00150888
0.00162836
0.00176983
0.00193624
0.00213011
0.00235319
0.00260616
0.00288839
0.00319792
0.00353148
0.00388477
0.00425275
0.00462998
0.00501097
0.00539049
0.00576373
0.00612648
0.00647522
0.00680708
0.00711993
0.00741229
0.00768333
0.00793277
0.00816085
0.00836847
0.008556
0.00872401
0.00887322
0.00900448
0.00911872
0.0092169
0.00930001
0.009369
0.00942482
0.00946838
0.00950057
0.00952219
0.00953404
0.00953686
0.00953132
0.00951808
0.00949773
0.00947083
0.00943791
0.00939946
0.00935591
0.00930769
0.0092552
0.00919879
0.0091388
0.00907555
0.00900933
0.00894041
0.00886905
0.00879549
0.00871995
0.00864266
0.0085638
0.00848357
0.00840215
0.00831972
0.00823644
0.00815249
0.00806802
0.00798318
0.00789815
0.00781305
0.00772805
0.00764329
0.0075589
0.00747502
0.00739176
0.00730926
0.00722762
0.00714696
0.00706737
0.00698898
0.00691187
0.00683617
0.00676198
0.0066894
0.00661856
0.00654958
0.00648257
0.00641769
0.00635507
0.00629488
0.0062373
0.00618251
0.00613076
0.00608228
0.00603738
0.0059964
0.00595975
0.00592791
0.00590148
0.00588121
0.00586804
0.00586316
0.00586821
0.00588537
0.00591775
0.00596976