/*--------------------------------*- C++ -*----------------------------------*\
| =========                 |                                                 |
| \\      /  F ield         | OpenFOAM: The Open Source CFD Toolbox           |
|  \\    /   O peration     | Version:  2.4.0                                 |
|   \\  /    A nd           | Web:      www.OpenFOAM.org                      |
|    \\/     M anipulation  |                                                 |
\*---------------------------------------------------------------------------*/
FoamFile
{
    version     2.0;
    format      ascii;
    class       volVectorField;
    location    "0.00301";
    object      UMean;
}
// * * * * * * * * * * * * * * * * * * * * * * * * * * * * * * * * * * * * * //

dimensions      [0 1 -1 0 0 0 0];

internalField   nonuniform List<vector> 
4400
(
(9.94754 -1.16472 0)
(9.91694 -0.332449 0)
(9.63705 -0.120563 0)
(9.43526 -0.0423494 0)
(9.2461 -0.011797 0)
(9.0884 0.000260695 0)
(8.95135 0.00581117 0)
(8.84342 0.00704873 0)
(8.69389 0.00959453 0)
(8.86037 -0.0298625 0)
(10.0042 0.221731 0)
(9.99031 0.130338 0)
(9.88695 0.0717082 0)
(9.80788 0.0515407 0)
(9.72189 0.0386089 0)
(9.64012 0.0296824 0)
(9.559 0.0239362 0)
(9.493 0.0192247 0)
(9.38577 0.016444 0)
(9.49013 0.101198 0)
(9.97201 0.0460447 0)
(9.99858 0.0465121 0)
(9.97215 0.0359384 0)
(9.95899 0.0375493 0)
(9.93552 0.0347693 0)
(9.91118 0.031291 0)
(9.88096 0.0282115 0)
(9.85961 0.0249692 0)
(9.80045 0.0210791 0)
(9.89973 0.0789107 0)
(9.9643 0.0104017 0)
(10.0079 0.0350379 0)
(10.0133 0.0340624 0)
(10.0317 0.0372758 0)
(10.0408 0.0351615 0)
(10.0496 0.0322194 0)
(10.0518 0.0293519 0)
(10.0611 0.0264853 0)
(10.038 0.0204452 0)
(10.1433 0.0630346 0)
(9.96177 0.002807 0)
(10.0158 0.0304588 0)
(10.0373 0.0315854 0)
(10.0734 0.0345339 0)
(10.1004 0.0326044 0)
(10.1277 0.030043 0)
(10.1487 0.0273687 0)
(10.1761 0.0248765 0)
(10.1759 0.0169777 0)
(10.2817 0.04967 0)
(9.96033 0.00428423 0)
(10.0216 0.0265985 0)
(10.0528 0.0277559 0)
(10.1001 0.0301609 0)
(10.138 0.028395 0)
(10.1762 0.0261778 0)
(10.2081 0.0236953 0)
(10.2458 0.0215513 0)
(10.2593 0.0120591 0)
(10.3596 0.037787 0)
(9.95941 0.00419085 0)
(10.0259 0.0212857 0)
(10.0631 0.0225777 0)
(10.118 0.0245532 0)
(10.1632 0.0230843 0)
(10.2082 0.0212733 0)
(10.2467 0.0190169 0)
(10.2901 0.0172781 0)
(10.3114 0.00652804 0)
(10.403 0.0271488 0)
(9.95897 0.00317744 0)
(10.0291 0.0154423 0)
(10.07 0.0167052 0)
(10.1299 0.0182033 0)
(10.1799 0.0171005 0)
(10.2292 0.0157241 0)
(10.2718 0.0137477 0)
(10.3183 0.0124787 0)
(10.3441 0.000877014 0)
(10.4257 0.0179401 0)
(9.95883 0.00192441 0)
(10.0313 0.00938523 0)
(10.0743 0.0104211 0)
(10.1372 0.0113821 0)
(10.1902 0.0106887 0)
(10.2422 0.00977695 0)
(10.2872 0.00813222 0)
(10.3351 0.007403 0)
(10.3633 -0.00460228 0)
(10.4349 0.0100992 0)
(9.95882 0.000616292 0)
(10.0324 0.0032199 0)
(10.0763 0.00389755 0)
(10.1408 0.00429558 0)
(10.1952 0.00403698 0)
(10.2485 0.00360311 0)
(10.2947 0.00234811 0)
(10.3428 0.00221162 0)
(10.3723 -0.00976128 0)
(10.4344 0.00346389 0)
(9.95883 -0.000711942 0)
(10.0324 -0.00299464 0)
(10.0764 -0.0027066 0)
(10.1409 -0.00288582 0)
(10.1955 -0.00270426 0)
(10.249 -0.00264557 0)
(10.2952 -0.00347259 0)
(10.3426 -0.00297127 0)
(10.3722 -0.0145185 0)
(10.4257 -0.00212938 0)
(9.95884 -0.00202201 0)
(10.0313 -0.00916195 0)
(10.0744 -0.00924453 0)
(10.1377 -0.0100006 0)
(10.1911 -0.0093857 0)
(10.2435 -0.0088373 0)
(10.2887 -0.00919507 0)
(10.3344 -0.00804062 0)
(10.3632 -0.018811 0)
(10.4086 -0.00681019 0)
(9.95897 -0.00328136 0)
(10.0291 -0.0152277 0)
(10.0703 -0.0155545 0)
(10.1308 -0.016875 0)
(10.1815 -0.015854 0)
(10.2314 -0.0148151 0)
(10.2743 -0.0146971 0)
(10.3172 -0.0128863 0)
(10.3441 -0.0225752 0)
(10.3817 -0.0106449 0)
(9.95938 -0.00428716 0)
(10.0258 -0.0210837 0)
(10.0636 -0.0214773 0)
(10.1193 -0.0233151 0)
(10.1656 -0.021923 0)
(10.2113 -0.0204127 0)
(10.2502 -0.0197974 0)
(10.2887 -0.0173554 0)
(10.3121 -0.0256867 0)
(10.3414 -0.0136533 0)
(9.96022 -0.00437492 0)
(10.0214 -0.0264084 0)
(10.0534 -0.0267388 0)
(10.1019 -0.0290414 0)
(10.1412 -0.0273335 0)
(10.1802 -0.025387 0)
(10.2127 -0.0242573 0)
(10.2444 -0.0212264 0)
(10.2616 -0.0279568 0)
(10.2811 -0.0157544 0)
(9.96154 -0.00285651 0)
(10.0155 -0.0302967 0)
(10.0381 -0.0306849 0)
(10.0756 -0.0335677 0)
(10.1042 -0.0316648 0)
(10.1325 -0.0293338 0)
(10.1541 -0.0276685 0)
(10.1747 -0.0240996 0)
(10.1816 -0.0290321 0)
(10.188 -0.016742 0)
(9.96388 -0.010442 0)
(10.0073 -0.0349624 0)
(10.0142 -0.0332786 0)
(10.0343 -0.0364535 0)
(10.0451 -0.0343477 0)
(10.0551 -0.0315739 0)
(10.0581 -0.029384 0)
(10.0599 -0.0252944 0)
(10.0494 -0.0283057 0)
(10.037 -0.0161159 0)
(9.97134 -0.0461297 0)
(9.99769 -0.0467019 0)
(9.97316 -0.0351918 0)
(9.96191 -0.0368055 0)
(9.93999 -0.0340859 0)
(9.9171 -0.0306063 0)
(9.88752 -0.0280705 0)
(9.85848 -0.0235515 0)
(9.82016 -0.0247144 0)
(9.78151 -0.0131133 0)
(10.003 -0.221802 0)
(9.98908 -0.130693 0)
(9.88819 -0.0710783 0)
(9.81107 -0.0508967 0)
(9.72631 -0.0380421 0)
(9.64652 -0.0289606 0)
(9.56534 -0.023629 0)
(9.49223 -0.0178936 0)
(9.41717 -0.0168607 0)
(9.3486 -0.0069678 0)
(9.94667 1.16433 0)
(9.917 0.331887 0)
(9.63836 0.120978 0)
(9.438 0.0430186 0)
(9.25054 0.0124734 0)
(9.09573 0.000721109 0)
(8.95861 -0.00519721 0)
(8.84585 -0.00596196 0)
(8.74237 -0.00710908 0)
(8.65802 -0.000710849 0)
(7.69179 -0.581913 0)
(6.93971 -0.490213 0)
(6.73464 -0.527648 0)
(6.63305 -0.57606 0)
(6.59873 -0.621346 0)
(6.60085 -0.663868 0)
(6.61417 -0.70353 0)
(6.62686 -0.740437 0)
(6.6346 -0.774409 0)
(6.63576 -0.804937 0)
(6.62999 -0.831542 0)
(6.61767 -0.853899 0)
(6.5995 -0.871845 0)
(6.57629 -0.885346 0)
(6.54887 -0.894504 0)
(6.518 -0.899503 0)
(6.48437 -0.900606 0)
(6.44859 -0.898104 0)
(6.41117 -0.892322 0)
(6.37257 -0.883587 0)
(6.33316 -0.872229 0)
(6.29327 -0.858568 0)
(6.25319 -0.84291 0)
(6.21316 -0.825542 0)
(6.17337 -0.806737 0)
(6.13403 -0.786749 0)
(6.09527 -0.76581 0)
(6.05723 -0.744133 0)
(6.02001 -0.721913 0)
(5.98371 -0.699324 0)
(5.9484 -0.676526 0)
(5.91414 -0.653657 0)
(5.88098 -0.630842 0)
(5.84895 -0.608189 0)
(5.81809 -0.585795 0)
(5.78841 -0.563742 0)
(5.75991 -0.542101 0)
(5.73261 -0.520935 0)
(5.70649 -0.500293 0)
(5.68154 -0.480217 0)
(5.65774 -0.460741 0)
(5.63507 -0.44189 0)
(5.6135 -0.423681 0)
(5.593 -0.406124 0)
(5.57354 -0.389224 0)
(5.55507 -0.372981 0)
(5.53757 -0.35739 0)
(5.521 -0.342443 0)
(5.50532 -0.328126 0)
(5.49049 -0.314424 0)
(5.47647 -0.301316 0)
(5.46323 -0.288783 0)
(5.45074 -0.276799 0)
(5.43894 -0.26534 0)
(5.42782 -0.254377 0)
(5.41733 -0.243881 0)
(5.40744 -0.233819 0)
(5.39811 -0.224159 0)
(5.38932 -0.214862 0)
(5.38103 -0.205892 0)
(5.37321 -0.197205 0)
(5.36584 -0.188756 0)
(5.35889 -0.180494 0)
(5.35232 -0.172363 0)
(5.34612 -0.164301 0)
(5.34027 -0.156239 0)
(5.33473 -0.148096 0)
(5.3295 -0.139782 0)
(5.32454 -0.131193 0)
(5.31984 -0.122208 0)
(5.31537 -0.112687 0)
(5.31113 -0.102465 0)
(5.3071 -0.0913502 0)
(5.30325 -0.079113 0)
(5.29959 -0.0654831 0)
(5.29611 -0.0501373 0)
(5.2928 -0.0326891 0)
(5.28967 -0.0126748 0)
(5.28675 0.0104633 0)
(5.28405 0.0373974 0)
(5.28165 0.0689429 0)
(5.27961 0.10609 0)
(5.27805 0.150061 0)
(5.27714 0.202383 0)
(5.27709 0.264974 0)
(5.27819 0.340316 0)
(5.28079 0.431726 0)
(5.28524 0.543782 0)
(5.29166 0.682744 0)
(5.29967 0.856539 0)
(5.3081 1.07385 0)
(5.31505 1.34313 0)
(5.31779 1.67276 0)
(5.31271 2.0724 0)
(5.29409 2.55434 0)
(5.25542 3.13421 0)
(5.18761 3.82954 0)
(5.08916 4.65162 0)
(5.02404 5.63748 0)
(4.91841 7.6669 0)
(9.31054 -0.156303 0)
(8.98797 -0.195723 0)
(8.69789 -0.338019 0)
(8.40336 -0.463802 0)
(8.15976 -0.55444 0)
(7.97635 -0.622658 0)
(7.8387 -0.676444 0)
(7.73074 -0.720411 0)
(7.64108 -0.757367 0)
(7.56223 -0.788703 0)
(7.48942 -0.815029 0)
(7.4198 -0.836622 0)
(7.35178 -0.85365 0)
(7.28449 -0.866258 0)
(7.21757 -0.874634 0)
(7.15091 -0.879001 0)
(7.08455 -0.879628 0)
(7.01861 -0.876804 0)
(6.95326 -0.87084 0)
(6.88866 -0.862049 0)
(6.82497 -0.850747 0)
(6.76234 -0.837238 0)
(6.70091 -0.821818 0)
(6.64079 -0.804762 0)
(6.5821 -0.78633 0)
(6.52492 -0.766767 0)
(6.46933 -0.746299 0)
(6.41537 -0.72513 0)
(6.3631 -0.703446 0)
(6.31254 -0.681419 0)
(6.26371 -0.659199 0)
(6.21663 -0.636922 0)
(6.1713 -0.614707 0)
(6.12772 -0.592661 0)
(6.08586 -0.570874 0)
(6.04573 -0.549426 0)
(6.00728 -0.528386 0)
(5.97049 -0.507813 0)
(5.93534 -0.487755 0)
(5.90177 -0.468252 0)
(5.86975 -0.449334 0)
(5.83923 -0.431026 0)
(5.81016 -0.413344 0)
(5.78249 -0.396296 0)
(5.75618 -0.379888 0)
(5.73116 -0.364118 0)
(5.70739 -0.348983 0)
(5.68482 -0.334472 0)
(5.66339 -0.320573 0)
(5.64306 -0.307269 0)
(5.62378 -0.294544 0)
(5.60549 -0.282373 0)
(5.58816 -0.270735 0)
(5.57172 -0.259605 0)
(5.55615 -0.248953 0)
(5.5414 -0.238752 0)
(5.52742 -0.22897 0)
(5.51417 -0.219573 0)
(5.50161 -0.210527 0)
(5.48971 -0.201792 0)
(5.47843 -0.193327 0)
(5.46774 -0.185087 0)
(5.4576 -0.177023 0)
(5.44799 -0.169079 0)
(5.43888 -0.161193 0)
(5.43024 -0.153296 0)
(5.42205 -0.14531 0)
(5.41429 -0.137144 0)
(5.40693 -0.128695 0)
(5.39997 -0.119843 0)
(5.39339 -0.110448 0)
(5.38717 -0.100348 0)
(5.38132 -0.0893496 0)
(5.37582 -0.0772274 0)
(5.37068 -0.0637123 0)
(5.36592 -0.0484847 0)
(5.36156 -0.031161 0)
(5.35762 -0.0112827 0)
(5.35417 0.0117011 0)
(5.35127 0.0384536 0)
(5.34903 0.0697772 0)
(5.3476 0.106646 0)
(5.34717 0.150264 0)
(5.34799 0.202129 0)
(5.35042 0.264125 0)
(5.35492 0.338693 0)
(5.36208 0.429123 0)
(5.3726 0.540005 0)
(5.38712 0.677717 0)
(5.40597 0.850421 0)
(5.42889 1.06708 0)
(5.4551 1.33637 0)
(5.48346 1.66695 0)
(5.51273 2.06879 0)
(5.5411 2.55452 0)
(5.56909 3.13917 0)
(5.60016 3.83781 0)
(5.66553 4.64942 0)
(5.83797 5.58091 0)
(6.31836 6.85127 0)
(9.88176 -0.0749733 0)
(9.78869 -0.137615 0)
(9.67366 -0.24982 0)
(9.50217 -0.360116 0)
(9.29902 -0.453703 0)
(9.09354 -0.533564 0)
(8.89976 -0.601025 0)
(8.72351 -0.657001 0)
(8.565 -0.703083 0)
(8.42182 -0.740867 0)
(8.29087 -0.771583 0)
(8.1693 -0.796133 0)
(8.05492 -0.815181 0)
(7.94611 -0.82923 0)
(7.84179 -0.838702 0)
(7.74122 -0.843971 0)
(7.64393 -0.845401 0)
(7.54961 -0.843337 0)
(7.45808 -0.838122 0)
(7.36924 -0.830088 0)
(7.28301 -0.81956 0)
(7.19937 -0.806846 0)
(7.1183 -0.79224 0)
(7.03978 -0.77602 0)
(6.96381 -0.75844 0)
(6.89037 -0.739742 0)
(6.81946 -0.720148 0)
(6.75105 -0.699858 0)
(6.68512 -0.679057 0)
(6.62164 -0.657909 0)
(6.56058 -0.636564 0)
(6.5019 -0.615155 0)
(6.44556 -0.593798 0)
(6.39151 -0.572596 0)
(6.3397 -0.55164 0)
(6.29008 -0.531007 0)
(6.2426 -0.510764 0)
(6.1972 -0.490969 0)
(6.15382 -0.471667 0)
(6.1124 -0.452898 0)
(6.07287 -0.434692 0)
(6.03516 -0.417071 0)
(5.99922 -0.400051 0)
(5.96497 -0.383642 0)
(5.93234 -0.367847 0)
(5.90127 -0.352666 0)
(5.8717 -0.338095 0)
(5.84356 -0.324124 0)
(5.81679 -0.310741 0)
(5.79133 -0.297932 0)
(5.76711 -0.285676 0)
(5.74409 -0.273955 0)
(5.7222 -0.262744 0)
(5.7014 -0.252019 0)
(5.68162 -0.241753 0)
(5.66282 -0.231918 0)
(5.64495 -0.222483 0)
(5.62796 -0.213416 0)
(5.61181 -0.204682 0)
(5.59645 -0.196243 0)
(5.58185 -0.188058 0)
(5.56797 -0.180084 0)
(5.55476 -0.172273 0)
(5.54221 -0.164569 0)
(5.53028 -0.156912 0)
(5.51894 -0.149234 0)
(5.50817 -0.141457 0)
(5.49795 -0.133493 0)
(5.48827 -0.125238 0)
(5.47911 -0.116574 0)
(5.47045 -0.107364 0)
(5.46231 -0.0974466 0)
(5.45468 -0.0866318 0)
(5.44756 -0.074696 0)
(5.44099 -0.0613743 0)
(5.43498 -0.0463513 0)
(5.42958 -0.0292491 0)
(5.42486 -0.0096163 0)
(5.4209 0.013088 0)
(5.4178 0.0395142 0)
(5.41574 0.0704475 0)
(5.41491 0.106841 0)
(5.41558 0.149871 0)
(5.4181 0.200998 0)
(5.42296 0.262054 0)
(5.43076 0.335421 0)
(5.44235 0.424319 0)
(5.45874 0.533294 0)
(5.48112 0.668761 0)
(5.51055 0.839032 0)
(5.54769 1.05326 0)
(5.5929 1.32023 0)
(5.64657 1.64859 0)
(5.70974 2.04818 0)
(5.78423 2.53104 0)
(5.8767 3.11 0)
(5.99955 3.79404 0)
(6.20304 4.56636 0)
(6.53631 5.38741 0)
(7.36913 6.08994 0)
(10.157 -0.0532825 0)
(10.1268 -0.12255 0)
(10.0805 -0.212789 0)
(9.99739 -0.304099 0)
(9.88101 -0.38567 0)
(9.74137 -0.458858 0)
(9.58681 -0.524473 0)
(9.42424 -0.582302 0)
(9.26016 -0.632233 0)
(9.09898 -0.67452 0)
(8.9431 -0.709609 0)
(8.7935 -0.738046 0)
(8.65031 -0.760411 0)
(8.51324 -0.777257 0)
(8.38185 -0.789107 0)
(8.25569 -0.796437 0)
(8.13436 -0.799695 0)
(8.01753 -0.799294 0)
(7.90494 -0.795625 0)
(7.79637 -0.789054 0)
(7.69165 -0.779928 0)
(7.59067 -0.768571 0)
(7.49329 -0.755287 0)
(7.39943 -0.740361 0)
(7.30899 -0.72405 0)
(7.22191 -0.706598 0)
(7.13809 -0.688227 0)
(7.05747 -0.669137 0)
(6.97997 -0.649512 0)
(6.90551 -0.629517 0)
(6.83401 -0.609299 0)
(6.76541 -0.588991 0)
(6.69962 -0.568709 0)
(6.63657 -0.548555 0)
(6.57617 -0.528618 0)
(6.51834 -0.508975 0)
(6.46301 -0.489693 0)
(6.4101 -0.470828 0)
(6.35952 -0.452427 0)
(6.3112 -0.434528 0)
(6.26504 -0.41716 0)
(6.22098 -0.400347 0)
(6.17893 -0.384103 0)
(6.1388 -0.368439 0)
(6.10052 -0.353359 0)
(6.06402 -0.338863 0)
(6.02921 -0.324948 0)
(5.99603 -0.311604 0)
(5.96439 -0.298822 0)
(5.93425 -0.286584 0)
(5.90552 -0.274875 0)
(5.87814 -0.263675 0)
(5.85205 -0.25296 0)
(5.82719 -0.242707 0)
(5.8035 -0.232891 0)
(5.78093 -0.223483 0)
(5.75942 -0.214455 0)
(5.73892 -0.205774 0)
(5.71938 -0.197406 0)
(5.70075 -0.189316 0)
(5.683 -0.181464 0)
(5.66608 -0.173807 0)
(5.64996 -0.166298 0)
(5.6346 -0.158883 0)
(5.61996 -0.151504 0)
(5.60604 -0.144093 0)
(5.59279 -0.136574 0)
(5.58021 -0.12886 0)
(5.56828 -0.120851 0)
(5.557 -0.112429 0)
(5.54635 -0.103459 0)
(5.53634 -0.093784 0)
(5.52699 -0.0832158 0)
(5.51831 -0.0715355 0)
(5.51034 -0.0584833 0)
(5.50313 -0.0437493 0)
(5.49675 -0.0269625 0)
(5.49127 -0.0076818 0)
(5.48682 0.0146211 0)
(5.48356 0.0405805 0)
(5.48168 0.0709604 0)
(5.48146 0.106687 0)
(5.48323 0.148904 0)
(5.48744 0.199024 0)
(5.49467 0.258816 0)
(5.5057 0.330576 0)
(5.52157 0.417421 0)
(5.54364 0.523792 0)
(5.5736 0.656053 0)
(5.61325 0.822579 0)
(5.66421 1.03264 0)
(5.72793 1.29501 0)
(5.80624 1.6181 0)
(5.90223 2.01122 0)
(6.02086 2.48514 0)
(6.17359 3.04956 0)
(6.37832 3.70599 0)
(6.69451 4.42369 0)
(7.15141 5.12409 0)
(8.15287 5.50836 0)
(10.3024 -0.0460587 0)
(10.2884 -0.114805 0)
(10.2593 -0.1931 0)
(10.2061 -0.272651 0)
(10.1305 -0.344894 0)
(10.0362 -0.409806 0)
(9.92607 -0.468514 0)
(9.80237 -0.521353 0)
(9.66796 -0.568355 0)
(9.52625 -0.609522 0)
(9.38041 -0.644874 0)
(9.23314 -0.674506 0)
(9.08652 -0.698614 0)
(8.94201 -0.717476 0)
(8.80058 -0.731435 0)
(8.66284 -0.740869 0)
(8.5291 -0.746175 0)
(8.39953 -0.747747 0)
(8.27418 -0.745974 0)
(8.15305 -0.741225 0)
(8.03609 -0.733857 0)
(7.92324 -0.724199 0)
(7.81443 -0.712562 0)
(7.70957 -0.699233 0)
(7.60859 -0.684477 0)
(7.51139 -0.668537 0)
(7.41789 -0.651637 0)
(7.32798 -0.633978 0)
(7.24158 -0.615745 0)
(7.15859 -0.597104 0)
(7.07892 -0.578201 0)
(7.00247 -0.559169 0)
(6.92915 -0.540125 0)
(6.85886 -0.521171 0)
(6.7915 -0.502395 0)
(6.72698 -0.483876 0)
(6.6652 -0.46568 0)
(6.60607 -0.447864 0)
(6.5495 -0.430473 0)
(6.49539 -0.413547 0)
(6.44365 -0.397116 0)
(6.39419 -0.381203 0)
(6.34691 -0.365823 0)
(6.30173 -0.350987 0)
(6.25856 -0.336702 0)
(6.21732 -0.322967 0)
(6.17793 -0.30978 0)
(6.1403 -0.297133 0)
(6.10437 -0.285016 0)
(6.07005 -0.273415 0)
(6.03728 -0.262314 0)
(6.00598 -0.251693 0)
(5.97609 -0.241531 0)
(5.94755 -0.231805 0)
(5.92029 -0.222491 0)
(5.89426 -0.213562 0)
(5.8694 -0.204989 0)
(5.84565 -0.196742 0)
(5.82297 -0.188789 0)
(5.8013 -0.181094 0)
(5.78061 -0.17362 0)
(5.76084 -0.166324 0)
(5.74197 -0.159161 0)
(5.72396 -0.152079 0)
(5.70677 -0.145021 0)
(5.69039 -0.137921 0)
(5.6748 -0.130706 0)
(5.65997 -0.123289 0)
(5.6459 -0.115572 0)
(5.63258 -0.107442 0)
(5.62002 -0.0987664 0)
(5.60823 -0.0893896 0)
(5.59724 -0.0791296 0)
(5.58707 -0.0677723 0)
(5.57777 -0.0550637 0)
(5.56942 -0.0407009 0)
(5.5621 -0.0243221 0)
(5.55592 -0.00549861 0)
(5.55104 0.0162826 0)
(5.54764 0.0416363 0)
(5.54599 0.0713019 0)
(5.5464 0.106175 0)
(5.54928 0.147359 0)
(5.55515 0.19621 0)
(5.56472 0.254421 0)
(5.57891 0.324186 0)
(5.59893 0.408482 0)
(5.62645 0.511581 0)
(5.66365 0.639707 0)
(5.71308 0.801204 0)
(5.77729 1.00539 0)
(5.85881 1.26095 0)
(5.96074 1.57587 0)
(6.08795 1.95861 0)
(6.2479 2.41822 0)
(6.45546 2.96094 0)
(6.73126 3.58085 0)
(7.13679 4.2364 0)
(7.68717 4.81916 0)
(8.74061 4.99775 0)
(10.3802 -0.0422769 0)
(10.3703 -0.107402 0)
(10.3443 -0.177619 0)
(10.2996 -0.24865 0)
(10.238 -0.314116 0)
(10.162 -0.373051 0)
(10.0736 -0.426227 0)
(9.97398 -0.474087 0)
(9.86421 -0.51684 0)
(9.74578 -0.554653 0)
(9.62038 -0.587625 0)
(9.48979 -0.61583 0)
(9.35576 -0.639357 0)
(9.21992 -0.658338 0)
(9.08368 -0.672954 0)
(8.94819 -0.683437 0)
(8.81437 -0.690062 0)
(8.68291 -0.693128 0)
(8.55433 -0.692956 0)
(8.42897 -0.689869 0)
(8.30709 -0.684187 0)
(8.18885 -0.67622 0)
(8.07433 -0.666265 0)
(7.96358 -0.654597 0)
(7.8566 -0.641475 0)
(7.75338 -0.627139 0)
(7.65387 -0.611808 0)
(7.55802 -0.595681 0)
(7.46576 -0.57894 0)
(7.37702 -0.561751 0)
(7.2917 -0.54426 0)
(7.20972 -0.526599 0)
(7.13099 -0.508883 0)
(7.05542 -0.491215 0)
(6.9829 -0.473684 0)
(6.91334 -0.456368 0)
(6.84665 -0.439333 0)
(6.78272 -0.422636 0)
(6.72146 -0.406325 0)
(6.66278 -0.390438 0)
(6.60657 -0.375006 0)
(6.55274 -0.360052 0)
(6.50121 -0.345594 0)
(6.45187 -0.331642 0)
(6.40463 -0.318204 0)
(6.35943 -0.305282 0)
(6.31616 -0.292873 0)
(6.27475 -0.280971 0)
(6.23511 -0.269567 0)
(6.19719 -0.258647 0)
(6.16089 -0.248197 0)
(6.12615 -0.238198 0)
(6.09291 -0.228631 0)
(6.06109 -0.219473 0)
(6.03065 -0.210702 0)
(6.00151 -0.202291 0)
(5.97361 -0.194212 0)
(5.94692 -0.186438 0)
(5.92137 -0.178937 0)
(5.89691 -0.171675 0)
(5.8735 -0.164614 0)
(5.85111 -0.157717 0)
(5.82969 -0.150937 0)
(5.80921 -0.144226 0)
(5.78964 -0.137527 0)
(5.77096 -0.130778 0)
(5.75316 -0.123906 0)
(5.73621 -0.116828 0)
(5.72013 -0.109449 0)
(5.7049 -0.101657 0)
(5.69054 -0.093325 0)
(5.67707 -0.084301 0)
(5.66452 -0.0744083 0)
(5.65295 -0.063439 0)
(5.64242 -0.0511456 0)
(5.633 -0.0372338 0)
(5.62482 -0.0213535 0)
(5.61801 -0.0030902 0)
(5.61275 0.0180514 0)
(5.60929 0.0426637 0)
(5.60791 0.0714577 0)
(5.609 0.105295 0)
(5.61302 0.145232 0)
(5.62059 0.192562 0)
(5.63249 0.248893 0)
(5.64977 0.316297 0)
(5.67383 0.397581 0)
(5.70659 0.496791 0)
(5.75067 0.619911 0)
(5.80935 0.775156 0)
(5.88612 0.971826 0)
(5.98452 1.21846 0)
(6.10877 1.52253 0)
(6.26519 1.89139 0)
(6.46309 2.3322 0)
(6.71945 2.84773 0)
(7.05556 3.42557 0)
(7.52961 4.0164 0)
(8.14539 4.49261 0)
(9.18698 4.5309 0)
(10.421 -0.0401785 0)
(10.412 -0.10006 0)
(10.3863 -0.163363 0)
(10.3444 -0.227171 0)
(10.2881 -0.286813 0)
(10.2193 -0.34089 0)
(10.1401 -0.389722 0)
(10.0515 -0.433649 0)
(9.9544 -0.472869 0)
(9.84986 -0.507583 0)
(9.73889 -0.537942 0)
(9.62257 -0.564066 0)
(9.50202 -0.586066 0)
(9.37838 -0.604066 0)
(9.25271 -0.618213 0)
(9.12602 -0.628681 0)
(8.9992 -0.635676 0)
(8.87306 -0.63943 0)
(8.74824 -0.640196 0)
(8.62532 -0.638237 0)
(8.50471 -0.633826 0)
(8.38677 -0.627229 0)
(8.27177 -0.618712 0)
(8.15989 -0.608525 0)
(8.05126 -0.596906 0)
(7.94598 -0.584079 0)
(7.84407 -0.570253 0)
(7.74557 -0.555615 0)
(7.65046 -0.540344 0)
(7.5587 -0.524596 0)
(7.47025 -0.508516 0)
(7.38506 -0.492232 0)
(7.30306 -0.475856 0)
(7.22416 -0.459491 0)
(7.1483 -0.443224 0)
(7.07538 -0.427132 0)
(7.00531 -0.411281 0)
(6.93802 -0.395729 0)
(6.8734 -0.380522 0)
(6.81137 -0.365699 0)
(6.75184 -0.351291 0)
(6.69471 -0.337323 0)
(6.6399 -0.323812 0)
(6.58731 -0.310771 0)
(6.53686 -0.298207 0)
(6.48847 -0.286123 0)
(6.44205 -0.274518 0)
(6.39753 -0.263388 0)
(6.35484 -0.252722 0)
(6.31388 -0.242511 0)
(6.2746 -0.232739 0)
(6.23693 -0.22339 0)
(6.2008 -0.214445 0)
(6.16615 -0.205882 0)
(6.13291 -0.19768 0)
(6.10103 -0.189814 0)
(6.07045 -0.182259 0)
(6.04113 -0.174985 0)
(6.013 -0.167964 0)
(5.98603 -0.161163 0)
(5.96017 -0.154547 0)
(5.93538 -0.148077 0)
(5.91163 -0.141712 0)
(5.88889 -0.135402 0)
(5.86713 -0.129096 0)
(5.84633 -0.122731 0)
(5.82649 -0.116238 0)
(5.80758 -0.109537 0)
(5.78963 -0.102535 0)
(5.77262 -0.0951255 0)
(5.75659 -0.0871835 0)
(5.74157 -0.0785637 0)
(5.72759 -0.069095 0)
(5.71473 -0.058576 0)
(5.70306 -0.0467671 0)
(5.69269 -0.0333846 0)
(5.68374 -0.0180919 0)
(5.6764 -0.000490265 0)
(5.67087 0.0198955 0)
(5.66743 0.0436322 0)
(5.66642 0.0714001 0)
(5.66827 0.104023 0)
(5.6735 0.142505 0)
(5.68281 0.188072 0)
(5.69708 0.242235 0)
(5.71745 0.306934 0)
(5.74548 0.38478 0)
(5.7833 0.479539 0)
(5.8339 0.596858 0)
(5.90124 0.744707 0)
(5.98976 0.932316 0)
(6.10397 1.16807 0)
(6.24904 1.45882 0)
(6.43237 1.81078 0)
(6.66455 2.22909 0)
(6.96352 2.71346 0)
(7.34975 3.24628 0)
(7.87484 3.77348 0)
(8.53235 4.15915 0)
(9.53265 4.10714 0)
(10.4404 -0.0387335 0)
(10.4317 -0.0926479 0)
(10.4064 -0.149544 0)
(10.3661 -0.2069 0)
(10.3128 -0.261189 0)
(10.2479 -0.31085 0)
(10.1734 -0.35584 0)
(10.0903 -0.396368 0)
(9.99982 -0.432587 0)
(9.90272 -0.464674 0)
(9.79992 -0.492773 0)
(9.69233 -0.517008 0)
(9.5808 -0.537491 0)
(9.46619 -0.554343 0)
(9.34932 -0.567701 0)
(9.23096 -0.577724 0)
(9.11183 -0.584593 0)
(8.99259 -0.58851 0)
(8.87383 -0.589694 0)
(8.75609 -0.588372 0)
(8.6398 -0.584781 0)
(8.52536 -0.579156 0)
(8.41309 -0.571728 0)
(8.30325 -0.562723 0)
(8.19604 -0.552353 0)
(8.09162 -0.540823 0)
(7.9901 -0.528322 0)
(7.89157 -0.515027 0)
(7.79606 -0.501101 0)
(7.7036 -0.486695 0)
(7.61418 -0.471942 0)
(7.52779 -0.456966 0)
(7.44438 -0.441876 0)
(7.36392 -0.426767 0)
(7.28634 -0.411726 0)
(7.21157 -0.396828 0)
(7.13956 -0.382137 0)
(7.07022 -0.367708 0)
(7.00348 -0.35359 0)
(6.93926 -0.339819 0)
(6.87748 -0.326427 0)
(6.81805 -0.313438 0)
(6.7609 -0.300871 0)
(6.70594 -0.288739 0)
(6.6531 -0.277049 0)
(6.60229 -0.265806 0)
(6.55344 -0.255011 0)
(6.50649 -0.244658 0)
(6.46134 -0.234739 0)
(6.41795 -0.225245 0)
(6.37623 -0.216161 0)
(6.33613 -0.207473 0)
(6.29758 -0.199162 0)
(6.26053 -0.191208 0)
(6.22492 -0.183591 0)
(6.19069 -0.176287 0)
(6.15779 -0.16927 0)
(6.12617 -0.162515 0)
(6.09579 -0.155994 0)
(6.0666 -0.149674 0)
(6.03855 -0.143523 0)
(6.01163 -0.137504 0)
(5.98579 -0.131577 0)
(5.96101 -0.125695 0)
(5.93727 -0.119807 0)
(5.91456 -0.113856 0)
(5.89286 -0.107773 0)
(5.87218 -0.101483 0)
(5.85252 -0.0948948 0)
(5.83391 -0.0879069 0)
(5.81636 -0.0803995 0)
(5.79993 -0.0722328 0)
(5.78467 -0.0632418 0)
(5.77066 -0.0532335 0)
(5.75799 -0.0419772 0)
(5.74679 -0.0292016 0)
(5.73722 -0.0145846 0)
(5.72947 0.00225432 0)
(5.7238 0.0217685 0)
(5.72052 0.0444969 0)
(5.72 0.0710857 0)
(5.72274 0.102319 0)
(5.72931 0.139144 0)
(5.74048 0.182711 0)
(5.7572 0.234431 0)
(5.78074 0.296101 0)
(5.81273 0.370121 0)
(5.85549 0.45993 0)
(5.9123 0.570746 0)
(5.98771 0.710162 0)
(6.08709 0.887273 0)
(6.21593 1.11033 0)
(6.38016 1.38559 0)
(6.58797 1.71805 0)
(6.85064 2.11097 0)
(7.18621 2.56147 0)
(7.61336 3.04831 0)
(8.17547 3.51542 0)
(8.8567 3.82741 0)
(9.80578 3.72198 0)
(10.4466 -0.037551 0)
(10.4382 -0.0853681 0)
(10.4138 -0.136184 0)
(10.3752 -0.187593 0)
(10.3244 -0.236806 0)
(10.2625 -0.282248 0)
(10.1913 -0.323608 0)
(10.112 -0.36097 0)
(10.0256 -0.394428 0)
(9.9331 -0.424126 0)
(9.83531 -0.450184 0)
(9.73305 -0.472717 0)
(9.62714 -0.491819 0)
(9.51833 -0.507603 0)
(9.40734 -0.520184 0)
(9.29482 -0.529708 0)
(9.18141 -0.536331 0)
(9.06767 -0.540239 0)
(8.9541 -0.541624 0)
(8.84118 -0.540697 0)
(8.7293 -0.537667 0)
(8.61884 -0.532749 0)
(8.51009 -0.526153 0)
(8.40331 -0.518081 0)
(8.29873 -0.508728 0)
(8.1965 -0.49828 0)
(8.09678 -0.486911 0)
(7.99966 -0.474782 0)
(7.90522 -0.462046 0)
(7.8135 -0.448841 0)
(7.72453 -0.435293 0)
(7.63833 -0.421516 0)
(7.55486 -0.407613 0)
(7.47412 -0.393677 0)
(7.39606 -0.379787 0)
(7.32065 -0.366016 0)
(7.24782 -0.352426 0)
(7.17752 -0.339071 0)
(7.10969 -0.325995 0)
(7.04425 -0.313236 0)
(6.98115 -0.300824 0)
(6.92031 -0.288783 0)
(6.86165 -0.277133 0)
(6.80511 -0.265886 0)
(6.75062 -0.255051 0)
(6.6981 -0.244633 0)
(6.6475 -0.234632 0)
(6.59873 -0.225044 0)
(6.55174 -0.215864 0)
(6.50646 -0.20708 0)
(6.46283 -0.19868 0)
(6.42081 -0.190651 0)
(6.38032 -0.182974 0)
(6.34131 -0.175631 0)
(6.30374 -0.168602 0)
(6.26756 -0.161865 0)
(6.2327 -0.155395 0)
(6.19915 -0.149168 0)
(6.16684 -0.143156 0)
(6.13574 -0.137331 0)
(6.10581 -0.131659 0)
(6.07704 -0.126107 0)
(6.04938 -0.120635 0)
(6.02282 -0.1152 0)
(5.99734 -0.109754 0)
(5.97293 -0.104239 0)
(5.94961 -0.0985941 0)
(5.92736 -0.0927435 0)
(5.9062 -0.0866029 0)
(5.88617 -0.080074 0)
(5.8673 -0.0730424 0)
(5.84965 -0.065375 0)
(5.83328 -0.0569141 0)
(5.8183 -0.0474753 0)
(5.80481 -0.0368393 0)
(5.79296 -0.0247479 0)
(5.78294 -0.0108953 0)
(5.77497 0.00507974 0)
(5.76934 0.0236062 0)
(5.7664 0.0451933 0)
(5.76656 0.0704508 0)
(5.77038 0.100119 0)
(5.77847 0.135088 0)
(5.79167 0.176423 0)
(5.81103 0.225434 0)
(5.83787 0.283771 0)
(5.87394 0.353609 0)
(5.92164 0.438036 0)
(5.98446 0.541754 0)
(6.0674 0.671836 0)
(6.17674 0.83715 0)
(6.31893 1.04585 0)
(6.50062 1.30371 0)
(6.73042 1.61453 0)
(7.01986 1.97985 0)
(7.38643 2.3948 0)
(7.84652 2.83606 0)
(8.43481 3.24796 0)
(9.12727 3.50157 0)
(10.0252 3.36861 0)
(10.4434 -0.0364915 0)
(10.4355 -0.0784123 0)
(10.4125 -0.123432 0)
(10.3759 -0.16925 0)
(10.3275 -0.21358 0)
(10.2684 -0.254899 0)
(10.2002 -0.292718 0)
(10.124 -0.327007 0)
(10.0409 -0.357803 0)
(9.95175 -0.385206 0)
(9.85751 -0.409313 0)
(9.75893 -0.430219 0)
(9.6568 -0.448003 0)
(9.55182 -0.462761 0)
(9.44468 -0.474589 0)
(9.336 -0.483613 0)
(9.22637 -0.48997 0)
(9.11632 -0.493824 0)
(9.00633 -0.495346 0)
(8.89681 -0.494727 0)
(8.78816 -0.492155 0)
(8.68072 -0.487827 0)
(8.57477 -0.481934 0)
(8.47056 -0.474661 0)
(8.3683 -0.466188 0)
(8.26815 -0.456684 0)
(8.17027 -0.446312 0)
(8.07475 -0.435219 0)
(7.98168 -0.423548 0)
(7.89111 -0.411426 0)
(7.80308 -0.398972 0)
(7.7176 -0.386291 0)
(7.63468 -0.373481 0)
(7.55429 -0.360628 0)
(7.47642 -0.347808 0)
(7.40104 -0.33509 0)
(7.32809 -0.322532 0)
(7.25753 -0.310185 0)
(7.1893 -0.298094 0)
(7.12335 -0.286294 0)
(7.05962 -0.274813 0)
(6.99804 -0.263677 0)
(6.93855 -0.252903 0)
(6.88108 -0.242505 0)
(6.82557 -0.232492 0)
(6.77196 -0.222868 0)
(6.72019 -0.213635 0)
(6.67019 -0.20479 0)
(6.62191 -0.196326 0)
(6.57529 -0.188235 0)
(6.53027 -0.180505 0)
(6.48681 -0.173121 0)
(6.44485 -0.166069 0)
(6.40435 -0.159329 0)
(6.36526 -0.152883 0)
(6.32753 -0.146709 0)
(6.29113 -0.140785 0)
(6.25601 -0.135087 0)
(6.22215 -0.129589 0)
(6.18949 -0.124263 0)
(6.15802 -0.119079 0)
(6.12771 -0.114003 0)
(6.09854 -0.108999 0)
(6.0705 -0.104026 0)
(6.04357 -0.0990381 0)
(6.01776 -0.0939815 0)
(5.99306 -0.0887964 0)
(5.96951 -0.0834123 0)
(5.94711 -0.077749 0)
(5.92591 -0.0717133 0)
(5.90595 -0.0651968 0)
(5.88731 -0.0580734 0)
(5.87007 -0.0501937 0)
(5.85434 -0.0413834 0)
(5.84025 -0.0314355 0)
(5.82799 -0.0201063 0)
(5.81775 -0.00710754 0)
(5.8098 0.00790076 0)
(5.80445 0.0253215 0)
(5.8021 0.0456325 0)
(5.8032 0.0694057 0)
(5.80834 0.0973343 0)
(5.81822 0.130243 0)
(5.83374 0.169117 0)
(5.856 0.215157 0)
(5.8864 0.269867 0)
(5.92677 0.335198 0)
(5.97957 0.413869 0)
(6.04837 0.510011 0)
(6.13845 0.630022 0)
(6.25689 0.782402 0)
(6.41117 0.97528 0)
(6.60862 1.21405 0)
(6.85801 1.50149 0)
(7.17074 1.83762 0)
(7.56327 2.21614 0)
(8.04952 2.61305 0)
(8.65597 2.97509 0)
(9.35181 3.18329 0)
(10.2036 3.04076 0)
(10.4325 -0.0355028 0)
(10.4252 -0.0719006 0)
(10.4037 -0.111415 0)
(10.3693 -0.151922 0)
(10.3235 -0.191517 0)
(10.2672 -0.228761 0)
(10.2017 -0.263067 0)
(10.1284 -0.294299 0)
(10.0481 -0.322452 0)
(9.96187 -0.347573 0)
(9.87045 -0.369742 0)
(9.77467 -0.389023 0)
(9.67526 -0.405488 0)
(9.57295 -0.419205 0)
(9.46839 -0.430262 0)
(9.36221 -0.438758 0)
(9.25497 -0.444816 0)
(9.14718 -0.448573 0)
(9.03932 -0.450188 0)
(8.93182 -0.449824 0)
(8.82504 -0.447657 0)
(8.71933 -0.443859 0)
(8.61496 -0.438607 0)
(8.5122 -0.432069 0)
(8.41125 -0.424408 0)
(8.31227 -0.41578 0)
(8.21542 -0.406334 0)
(8.12081 -0.396208 0)
(8.02852 -0.385532 0)
(7.93862 -0.374425 0)
(7.85114 -0.362997 0)
(7.76611 -0.351349 0)
(7.68353 -0.339569 0)
(7.6034 -0.327739 0)
(7.5257 -0.315932 0)
(7.45039 -0.304211 0)
(7.37744 -0.292633 0)
(7.3068 -0.281246 0)
(7.23843 -0.270092 0)
(7.17225 -0.259205 0)
(7.10823 -0.248614 0)
(7.04629 -0.238341 0)
(6.98637 -0.228406 0)
(6.92841 -0.21882 0)
(6.87236 -0.209595 0)
(6.81814 -0.200733 0)
(6.76569 -0.19224 0)
(6.71497 -0.184109 0)
(6.66591 -0.176338 0)
(6.61846 -0.168916 0)
(6.57256 -0.161835 0)
(6.52818 -0.15508 0)
(6.48526 -0.148636 0)
(6.44376 -0.142485 0)
(6.40364 -0.136612 0)
(6.36485 -0.130992 0)
(6.32736 -0.125608 0)
(6.29115 -0.120434 0)
(6.25616 -0.115449 0)
(6.22238 -0.110622 0)
(6.18979 -0.105929 0)
(6.15836 -0.101334 0)
(6.12807 -0.0968066 0)
(6.09893 -0.0923052 0)
(6.07092 -0.087789 0)
(6.04406 -0.0832057 0)
(6.01836 -0.0785006 0)
(5.99383 -0.0736061 0)
(5.97052 -0.0684479 0)
(5.94848 -0.0629372 0)
(5.92776 -0.0569733 0)
(5.90844 -0.0504368 0)
(5.89064 -0.043189 0)
(5.87447 -0.0350656 0)
(5.8601 -0.0258739 0)
(5.84773 -0.0153852 0)
(5.83758 -0.0033315 0)
(5.82995 0.0106056 0)
(5.8252 0.0267998 0)
(5.82375 0.0456978 0)
(5.82612 0.0678302 0)
(5.83292 0.0938403 0)
(5.84493 0.124484 0)
(5.86312 0.160662 0)
(5.88864 0.203469 0)
(5.92299 0.254263 0)
(5.96803 0.314774 0)
(6.02625 0.387365 0)
(6.10122 0.475563 0)
(6.1983 0.584953 0)
(6.32511 0.72346 0)
(6.49027 0.899211 0)
(6.70186 1.11745 0)
(6.96862 1.38012 0)
(7.3015 1.68595 0)
(7.71563 2.02776 0)
(8.22256 2.38201 0)
(8.84145 2.69937 0)
(9.53646 2.87267 0)
(10.349 2.73308 0)
(10.4135 -0.034533 0)
(10.4069 -0.0658818 0)
(10.3871 -0.100205 0)
(10.3548 -0.135638 0)
(10.3116 -0.170614 0)
(10.258 -0.203809 0)
(10.1953 -0.234586 0)
(10.1246 -0.262738 0)
(10.0469 -0.288211 0)
(9.96305 -0.311017 0)
(9.87394 -0.331204 0)
(9.78031 -0.348817 0)
(9.68291 -0.36391 0)
(9.58243 -0.376536 0)
(9.47953 -0.386763 0)
(9.37482 -0.394672 0)
(9.26888 -0.400368 0)
(9.16221 -0.403969 0)
(9.0553 -0.405613 0)
(8.94858 -0.405446 0)
(8.84242 -0.403624 0)
(8.73717 -0.400302 0)
(8.63313 -0.395638 0)
(8.53056 -0.389786 0)
(8.42968 -0.382891 0)
(8.33068 -0.375097 0)
(8.23371 -0.366539 0)
(8.13889 -0.357343 0)
(8.04632 -0.34763 0)
(7.95609 -0.337509 0)
(7.86823 -0.327082 0)
(7.78279 -0.316441 0)
(7.69979 -0.30567 0)
(7.61921 -0.294844 0)
(7.54105 -0.284031 0)
(7.46528 -0.27329 0)
(7.39188 -0.262676 0)
(7.3208 -0.252232 0)
(7.25198 -0.242001 0)
(7.18539 -0.232011 0)