/*--------------------------------*- C++ -*----------------------------------*\
| =========                 |                                                 |
| \\      /  F ield         | OpenFOAM: The Open Source CFD Toolbox           |
|  \\    /   O peration     | Version:  2.4.0                                 |
|   \\  /    A nd           | Web:      www.OpenFOAM.org                      |
|    \\/     M anipulation  |                                                 |
\*---------------------------------------------------------------------------*/
FoamFile
{
    version     2.0;
    format      ascii;
    class       volVectorField;
    location    "0.084";
    object      U;
}
// * * * * * * * * * * * * * * * * * * * * * * * * * * * * * * * * * * * * * //

dimensions      [0 1 -1 0 0 0 0];

internalField   nonuniform List<vector> 
4400
(
(5.40454 0.316783 0)
(3.31531 0.060675 0)
(2.58279 0.00152125 0)
(2.23898 -0.0024674 0)
(2.0762 -0.000850065 0)
(2.01348 -0.00176785 0)
(1.95103 0.000620275 0)
(1.95182 -0.00274199 0)
(1.97487 0.00464219 0)
(1.47973 -0.0833311 0)
(8.68807 0.857323 0)
(7.53866 0.344622 0)
(6.62651 0.11618 0)
(5.92521 0.0541769 0)
(5.50258 0.0280592 0)
(5.31242 0.0112649 0)
(5.12984 0.0139408 0)
(5.08647 -0.0112629 0)
(5.10206 0.0395569 0)
(4.66603 -0.162003 0)
(9.8968 0.937145 0)
(9.98741 0.477456 0)
(9.48651 0.2124 0)
(8.77673 0.129008 0)
(8.23587 0.0768601 0)
(7.97329 0.0371683 0)
(7.70035 0.0375376 0)
(7.63757 -0.0133027 0)
(7.54469 0.048577 0)
(7.41471 -0.165402 0)
(10.1337 0.807072 0)
(11.111 0.499 0)
(11.2599 0.263936 0)
(10.8623 0.196815 0)
(10.3954 0.132646 0)
(10.1595 0.0720071 0)
(9.8494 0.0669172 0)
(9.81948 -0.00576833 0)
(9.57039 0.0510545 0)
(9.69598 -0.192673 0)
(10.0683 0.646527 0)
(11.323 0.438789 0)
(11.9609 0.242234 0)
(12.0136 0.218765 0)
(11.8063 0.16776 0)
(11.732 0.101758 0)
(11.4899 0.0935818 0)
(11.5326 0.00926396 0)
(11.2222 0.0515953 0)
(11.4066 -0.241522 0)
(10.0474 0.514082 0)
(11.2486 0.365283 0)
(12.0157 0.179484 0)
(12.3242 0.189146 0)
(12.3739 0.16125 0)
(12.5126 0.103427 0)
(12.4828 0.103305 0)
(12.6116 0.0160456 0)
(12.4104 0.0538873 0)
(12.5772 -0.259058 0)
(10.0673 0.392193 0)
(11.1572 0.299256 0)
(11.968 0.125643 0)
(12.3284 0.145057 0)
(12.4477 0.12962 0)
(12.6197 0.0760305 0)
(12.8314 0.0870096 0)
(13.006 0.00966163 0)
(12.9891 0.0283926 0)
(13.1921 -0.219989 0)
(10.0255 0.273011 0)
(11.091 0.228802 0)
(11.9753 0.0679121 0)
(12.3005 0.112955 0)
(12.3728 0.101887 0)
(12.5461 0.0464673 0)
(12.8825 0.0488895 0)
(13.0394 -0.0029695 0)
(13.1111 -0.0108916 0)
(13.3545 -0.202865 0)
(10.0036 0.168426 0)
(11.1129 0.130868 0)
(11.9155 0.0294879 0)
(12.1501 0.0815775 0)
(12.3812 0.0776901 0)
(12.6319 -0.000595021 0)
(12.8364 0.0223918 0)
(12.9539 -0.021765 0)
(13.1247 -0.0422302 0)
(13.3151 -0.235832 0)
(10.0255 0.0519557 0)
(11.0994 0.0509681 0)
(11.8175 -0.00160255 0)
(12.1368 0.0441371 0)
(12.4849 0.0219426 0)
(12.6421 -0.0226732 0)
(12.729 0.00406957 0)
(12.9167 -0.0449897 0)
(13.1467 -0.0789231 0)
(13.1837 -0.240304 0)
(9.99363 -0.0547006 0)
(11.0992 -0.0347262 0)
(11.8715 -0.0358862 0)
(12.1648 -0.0107811 0)
(12.4632 -0.0100386 0)
(12.6159 -0.0424384 0)
(12.7194 -0.020197 0)
(12.9377 -0.0754801 0)
(13.1037 -0.10862 0)
(13.1301 -0.2397 0)
(9.98841 -0.166763 0)
(11.1634 -0.126743 0)
(11.8918 -0.068965 0)
(12.1258 -0.0419739 0)
(12.4592 -0.0556244 0)
(12.6341 -0.0691006 0)
(12.7495 -0.0419456 0)
(12.9551 -0.0977625 0)
(13.1085 -0.1322 0)
(13.1449 -0.255087 0)
(10.024 -0.281368 0)
(11.167 -0.210945 0)
(11.891 -0.0955198 0)
(12.1663 -0.0901672 0)
(12.5176 -0.0984432 0)
(12.6242 -0.0894995 0)
(12.8122 -0.0692151 0)
(12.977 -0.121224 0)
(13.1236 -0.153469 0)
(13.1261 -0.267187 0)
(10.0393 -0.399233 0)
(11.155 -0.284939 0)
(11.9732 -0.13941 0)
(12.2302 -0.134097 0)
(12.5658 -0.134707 0)
(12.5962 -0.114853 0)
(12.8623 -0.0964138 0)
(12.8704 -0.13602 0)
(13.0104 -0.167559 0)
(12.8682 -0.275437 0)
(10.0216 -0.517991 0)
(11.2252 -0.354622 0)
(12.054 -0.192481 0)
(12.2568 -0.181529 0)
(12.4919 -0.168153 0)
(12.3988 -0.133568 0)
(12.5714 -0.11195 0)
(12.364 -0.136985 0)
(12.4172 -0.16497 0)
(12.0744 -0.262815 0)
(10.0462 -0.647583 0)
(11.3225 -0.433411 0)
(11.9896 -0.250657 0)
(11.9606 -0.214784 0)
(11.898 -0.173611 0)
(11.5959 -0.126031 0)
(11.5789 -0.101393 0)
(11.2226 -0.113021 0)
(11.182 -0.146123 0)
(10.7006 -0.202115 0)
(10.1194 -0.807528 0)
(11.1172 -0.49647 0)
(11.2746 -0.268813 0)
(10.8224 -0.195546 0)
(10.4599 -0.13618 0)
(10.0327 -0.0912912 0)
(9.90674 -0.0713116 0)
(9.51556 -0.0800624 0)
(9.4283 -0.113389 0)
(8.88065 -0.127565 0)
(9.8894 -0.937412 0)
(9.99337 -0.476362 0)
(9.49274 -0.214905 0)
(8.74852 -0.129146 0)
(8.27534 -0.0784045 0)
(7.86865 -0.0507856 0)
(7.72044 -0.039453 0)
(7.37681 -0.0487276 0)
(7.27102 -0.0723809 0)
(6.71969 -0.0728074 0)
(8.68448 -0.857401 0)
(7.54212 -0.344248 0)
(6.62879 -0.117062 0)
(5.90716 -0.0548965 0)
(5.52115 -0.0281746 0)
(5.23689 -0.0187605 0)
(5.12196 -0.0148742 0)
(4.879 -0.0222685 0)
(4.76763 -0.0344704 0)
(4.31657 -0.0336272 0)
(5.40386 -0.316829 0)
(3.3159 -0.0606824 0)
(2.58351 -0.0015481 0)
(2.23077 0.0020845 0)
(2.07977 0.00141616 0)
(1.9778 -0.000110698 0)
(1.93158 0.000124459 0)
(1.83367 -0.00231295 0)
(1.75297 -0.00422566 0)
(1.53896 0.00656448 0)
(3.16845 -0.387158 0)
(4.006 -0.508801 0)
(4.03727 -0.693083 0)
(4.33264 -0.874274 0)
(3.24952 -0.817209 0)
(3.56126 -0.745833 0)
(2.71019 0.277989 0)
(3.63212 0.154444 0)
(5.02784 0.549405 0)
(6.24928 1.83538 0)
(7.59618 2.08395 0)
(8.57013 1.78721 0)
(9.17795 1.37603 0)
(9.94067 0.726478 0)
(10.4539 -0.240609 0)
(10.6829 -1.47009 0)
(10.901 -2.80625 0)
(10.8244 -3.50961 0)
(11.6803 -4.38809 0)
(13.0312 -5.55162 0)
(12.813 -5.54393 0)
(12.5189 -4.92284 0)
(12.5955 -4.39092 0)
(12.147 -3.20405 0)
(12.1555 -1.72229 0)
(11.8357 -0.277184 0)
(11.97 1.28822 0)
(12.5724 2.38462 0)
(12.7121 2.78212 0)
(12.7559 3.06005 0)
(12.8974 2.53428 0)
(12.7685 1.4166 0)
(12.4123 0.690189 0)
(12.5169 -0.660135 0)
(12.0852 -2.16838 0)
(11.2287 -2.99839 0)
(10.5858 -3.89877 0)
(9.22526 -3.85019 0)
(8.35058 -2.94714 0)
(7.80446 -2.52037 0)
(6.84697 -2.75519 0)
(7.21357 -2.4231 0)
(5.37626 -1.37124 0)
(6.06897 -1.36821 0)
(5.84445 -3.66069 0)
(6.60474 -5.99279 0)
(5.71071 -7.3394 0)
(6.77875 -6.10917 0)
(6.36578 -5.64364 0)
(6.63398 -4.11805 0)
(7.36476 -2.98932 0)
(7.81721 -1.34117 0)
(8.60331 0.699503 0)
(8.66893 3.34399 0)
(8.61562 4.66963 0)
(8.57983 5.84095 0)
(9.7154 7.32849 0)
(9.50025 8.91076 0)
(9.9838 8.59375 0)
(7.99673 7.63919 0)
(8.52539 5.18613 0)
(6.06265 4.70392 0)
(7.53279 2.71519 0)
(5.53684 3.51524 0)
(7.44339 1.42908 0)
(5.71404 2.2667 0)
(7.36293 0.0218491 0)
(5.76299 0.733385 0)
(6.89711 -2.10405 0)
(5.47459 -1.28682 0)
(6.50776 -3.94434 0)
(5.24122 -2.52391 0)
(6.30793 -4.0297 0)
(5.45601 -2.00312 0)
(6.0759 -3.0438 0)
(5.6094 -1.09095 0)
(6.00974 -1.76582 0)
(5.64978 -0.269672 0)
(6.01373 -1.02238 0)
(5.85798 0.196321 0)
(6.08187 -0.40963 0)
(5.87774 0.525258 0)
(6.13188 -0.072478 0)
(6.02278 0.65289 0)
(6.11724 0.252411 0)
(5.92043 0.87886 0)
(5.98538 0.503107 0)
(5.96711 0.974818 0)
(6.04265 0.769058 0)
(6.01291 1.29925 0)
(6.02491 1.12661 0)
(6.13035 1.5815 0)
(6.18977 1.4676 0)
(6.11004 2.11169 0)
(5.8704 2.04353 0)
(5.95903 2.93908 0)
(6.38788 2.71344 0)
(6.34969 4.47292 0)
(7.22148 4.9141 0)
(4.25852 8.74865 0)
(5.46336 -0.501144 0)
(6.14614 -0.614639 0)
(6.04957 -0.651219 0)
(6.18973 -0.811069 0)
(5.48657 -0.673974 0)
(5.85481 -0.595777 0)
(4.90372 0.226976 0)
(5.5827 0.0899074 0)
(5.70502 0.132803 0)
(5.97664 1.25044 0)
(7.43469 1.55016 0)
(8.68336 1.34736 0)
(9.38756 1.08523 0)
(10.2633 0.461226 0)
(10.8293 -0.457028 0)
(11.2101 -1.54472 0)
(11.8014 -2.93886 0)
(12.0697 -3.78395 0)
(12.8863 -4.6168 0)
(13.8001 -5.68767 0)
(13.3476 -5.44052 0)
(12.8459 -4.76086 0)
(13.1155 -4.30834 0)
(12.7079 -3.10601 0)
(12.6574 -1.62545 0)
(12.3613 -0.33214 0)
(12.2397 1.1636 0)
(12.806 2.2939 0)
(13.1324 2.72763 0)
(13.1174 3.11095 0)
(13.2709 2.56212 0)
(13.1297 1.49777 0)
(12.6419 0.807979 0)
(12.7224 -0.577334 0)
(12.2868 -1.968 0)
(11.3349 -2.68072 0)
(10.6458 -3.48475 0)
(9.27377 -3.39414 0)
(8.55773 -2.63115 0)
(7.89549 -2.24701 0)
(7.39331 -2.56912 0)
(7.08241 -2.17993 0)
(5.56529 -1.04968 0)
(5.68286 -1.44729 0)
(5.56417 -3.82018 0)
(5.77709 -5.99339 0)
(5.07068 -7.22622 0)
(6.24143 -6.14712 0)
(5.73162 -5.73162 0)
(5.92829 -4.20601 0)
(6.49641 -3.38414 0)
(6.97425 -1.47909 0)
(7.68616 0.559592 0)
(7.80373 3.29278 0)
(7.97511 4.64986 0)
(7.8175 5.85879 0)
(9.16664 7.17045 0)
(8.93695 8.87215 0)
(9.80084 8.69336 0)
(7.97258 8.07486 0)
(8.72816 5.48561 0)
(6.33046 5.00742 0)
(7.80492 2.69822 0)
(5.92093 3.56047 0)
(7.64701 1.30518 0)
(6.12279 2.35152 0)
(7.7269 -0.00174754 0)
(6.28469 0.847779 0)
(7.26029 -2.15276 0)
(5.72922 -1.22501 0)
(6.87105 -3.98886 0)
(5.58688 -2.42491 0)
(6.56971 -4.16436 0)
(5.66189 -1.8257 0)
(6.31411 -3.1874 0)
(5.69924 -0.894282 0)
(6.16003 -1.99457 0)
(5.69362 -0.0893419 0)
(6.13877 -1.28198 0)
(5.89151 0.433327 0)
(6.11111 -0.636159 0)
(5.90027 0.731888 0)
(6.14871 -0.34703 0)
(6.14391 0.900468 0)
(6.15202 0.0564283 0)
(6.1073 1.09418 0)
(6.10322 0.249757 0)
(6.2091 1.2299 0)
(6.0395 0.594147 0)
(6.04582 1.45218 0)
(6.05265 0.909875 0)
(6.08839 1.7674 0)
(6.28212 1.27268 0)
(6.23368 2.36055 0)
(6.50565 1.92257 0)
(6.05153 3.4221 0)
(6.30493 2.67407 0)
(5.09897 4.88866 0)
(8.61676 4.2806 0)
(6.65182 9.17756 0)
(7.74908 -0.64174 0)
(8.11644 -0.811694 0)
(8.07567 -0.623832 0)
(8.25567 -0.647549 0)
(7.51363 -0.600221 0)
(7.74014 -0.563993 0)
(7.09664 0.106709 0)
(7.6506 0.197072 0)
(7.54094 0.206207 0)
(6.90421 0.837582 0)
(7.88778 1.00142 0)
(8.81253 0.903772 0)
(9.55478 0.686403 0)
(10.5504 0.110864 0)
(11.1704 -0.738979 0)
(11.8066 -1.73862 0)
(12.7927 -3.22373 0)
(13.2464 -4.24013 0)
(13.7996 -4.82333 0)
(14.2303 -5.67731 0)
(13.5789 -5.27809 0)
(13.169 -4.60599 0)
(13.5369 -4.31869 0)
(13.1899 -2.99633 0)
(13.0294 -1.5102 0)
(12.9595 -0.36057 0)
(12.6304 1.13414 0)
(12.8721 2.21139 0)
(13.2033 2.69946 0)
(13.2022 3.11851 0)
(13.4154 2.52716 0)
(13.3074 1.57248 0)
(12.7981 0.98058 0)
(12.8589 -0.430116 0)
(12.2926 -1.70551 0)
(11.3473 -2.32869 0)
(10.5644 -3.07287 0)
(9.287 -3.03068 0)
(8.71868 -2.35183 0)
(7.99793 -1.99345 0)
(7.78408 -2.32997 0)
(7.06363 -1.80239 0)
(5.83038 -0.654245 0)
(5.54895 -1.31494 0)
(5.14232 -3.80944 0)
(5.00021 -5.90892 0)
(4.32284 -7.20304 0)
(5.8534 -6.23919 0)
(5.11934 -5.69879 0)
(5.34315 -4.21488 0)
(5.43264 -3.71255 0)
(5.93896 -1.53314 0)
(6.68623 0.426315 0)
(6.70811 3.19764 0)
(7.22074 4.43218 0)
(7.0844 5.63016 0)
(8.53999 6.84352 0)
(8.37141 8.72459 0)
(9.4805 8.72454 0)
(7.87213 8.31518 0)
(8.74495 5.67507 0)
(6.49922 5.21424 0)
(7.99335 2.74919 0)
(6.23235 3.64315 0)
(7.91602 1.30365 0)
(6.45734 2.30752 0)
(8.07748 -0.0374389 0)
(6.73805 0.935603 0)
(7.83109 -1.96892 0)
(6.37082 -1.12196 0)
(7.4276 -3.8982 0)
(6.0851 -2.35561 0)
(6.98058 -4.17568 0)
(5.88112 -1.70974 0)
(6.5525 -3.27607 0)
(5.74908 -0.764506 0)
(6.39617 -2.07661 0)
(5.59391 0.0692114 0)
(6.3157 -1.52103 0)
(5.8085 0.541621 0)
(6.4733 -0.857872 0)
(5.8582 0.870553 0)
(6.72181 -0.608864 0)
(6.15414 1.03895 0)
(6.87915 -0.164908 0)
(6.23434 1.29179 0)
(7.03066 0.0687897 0)
(6.38066 1.38809 0)
(7.01617 0.457771 0)
(6.31908 1.70439 0)
(6.66816 0.746857 0)
(6.11133 1.94169 0)
(6.47099 0.931057 0)
(6.2147 2.41932 0)
(6.97655 1.37767 0)
(6.60068 3.32218 0)
(8.75727 2.41283 0)
(5.84933 5.09737 0)
(9.46841 3.57021 0)
(7.39206 9.36407 0)
(9.92724 -0.625798 0)
(9.97671 -0.853945 0)
(9.85251 -0.604386 0)
(10.0309 -0.525588 0)
(9.4264 -0.483331 0)
(9.52349 -0.454459 0)
(9.14593 0.0089818 0)
(9.33894 0.210628 0)
(9.47408 0.312512 0)
(8.94332 0.761316 0)
(9.30788 0.846249 0)
(9.7922 0.662537 0)
(10.4 0.346521 0)
(11.3285 -0.198115 0)
(12.0819 -1.04767 0)
(12.8396 -2.0515 0)
(13.9548 -3.45956 0)
(14.3044 -4.53167 0)
(14.3053 -4.86744 0)
(14.3277 -5.45907 0)
(13.7114 -5.185 0)
(13.5527 -4.5786 0)
(13.9371 -4.36968 0)
(13.5636 -2.98991 0)
(13.3871 -1.47094 0)
(13.3466 -0.343528 0)
(12.9666 1.20544 0)
(13.029 2.19088 0)
(13.2422 2.61845 0)
(13.1612 3.08447 0)
(13.3626 2.5224 0)
(13.1257 1.65517 0)
(12.6779 1.07852 0)
(12.7706 -0.314647 0)
(12.0749 -1.43013 0)
(11.1068 -2.01844 0)
(10.4278 -2.69579 0)
(9.38186 -2.62144 0)
(8.86599 -2.03569 0)
(8.08315 -1.78274 0)
(7.89762 -2.192 0)
(6.97089 -1.4562 0)
(5.84221 -0.3049 0)
(5.41586 -1.17836 0)
(4.69092 -3.65828 0)
(4.17352 -5.79652 0)
(3.42502 -7.26379 0)
(5.23983 -6.43298 0)
(4.39805 -5.63569 0)
(4.66457 -4.05495 0)
(4.35982 -3.95488 0)
(4.75932 -1.55223 0)
(5.55871 0.252171 0)
(5.66143 3.13575 0)
(6.38468 4.31133 0)
(6.20791 5.51212 0)
(7.95992 6.53092 0)
(7.73205 8.5784 0)
(9.19366 8.64772 0)
(7.65051 8.53075 0)
(8.78956 5.86347 0)
(6.77154 5.52862 0)
(8.14059 2.77421 0)
(6.55199 3.70766 0)
(8.18784 1.22064 0)
(6.91341 2.30168 0)
(8.26062 -0.0909245 0)
(7.21517 1.03993 0)
(8.05052 -1.93299 0)
(6.88245 -1.04221 0)
(7.72392 -3.86818 0)
(6.51268 -2.23441 0)
(7.19116 -4.18453 0)
(6.13718 -1.48678 0)
(6.69018 -3.33605 0)
(5.76226 -0.569037 0)
(6.50693 -2.21193 0)
(5.53569 0.309298 0)
(6.30141 -1.74127 0)
(5.58287 0.802399 0)
(6.43626 -1.10236 0)
(5.54377 1.09554 0)
(6.6607 -0.989814 0)
(5.92486 1.28645 0)
(7.04656 -0.519267 0)
(6.07176 1.49403 0)
(7.44109 -0.373812 0)
(6.60492 1.66463 0)
(7.75833 0.112353 0)
(6.80207 2.00816 0)
(7.80257 0.504802 0)
(6.86282 2.39228 0)
(7.37466 0.861108 0)
(6.18384 2.90939 0)
(7.13008 1.27191 0)
(5.05206 3.5599 0)
(8.83301 1.73993 0)
(5.90222 5.22186 0)
(11.2052 2.27652 0)
(9.09561 8.54437 0)
(11.6628 -0.586956 0)
(11.5757 -0.784376 0)
(11.3508 -0.563771 0)
(11.4572 -0.429887 0)
(10.953 -0.3979 0)
(10.9016 -0.420103 0)
(10.8022 -0.0704242 0)
(10.8023 0.23721 0)
(11.0328 0.349971 0)
(10.8739 0.706008 0)
(10.9974 0.80573 0)
(11.3716 0.544168 0)
(11.8062 0.103654 0)
(12.5642 -0.464484 0)
(13.3837 -1.33333 0)
(14.0471 -2.35434 0)
(14.8452 -3.67796 0)
(14.8009 -4.66289 0)
(14.318 -4.82797 0)
(14.1779 -5.2728 0)
(13.8202 -5.18327 0)
(13.8287 -4.68895 0)
(14.1319 -4.40555 0)
(13.625 -2.95737 0)
(13.4926 -1.45887 0)
(13.6594 -0.364587 0)
(13.3549 1.25981 0)
(13.2758 2.2646 0)
(13.1617 2.68555 0)
(12.8967 3.10176 0)
(13.0197 2.47347 0)
(12.7773 1.72396 0)
(12.3904 1.16531 0)
(12.4303 -0.173607 0)
(11.7393 -1.09869 0)
(10.8995 -1.67995 0)
(10.2414 -2.35901 0)
(9.34676 -2.35517 0)
(8.85676 -1.84301 0)
(8.26454 -1.59368 0)
(8.09117 -1.8727 0)
(7.00729 -0.997543 0)
(5.81023 0.113133 0)
(5.26604 -0.922181 0)
(4.19779 -3.35671 0)
(3.29612 -5.58231 0)
(2.27544 -7.27171 0)
(4.01547 -6.75792 0)
(3.35871 -5.54732 0)
(3.92912 -4.00899 0)
(3.24265 -4.07012 0)
(3.76434 -1.54698 0)
(4.1591 -0.0837499 0)
(4.47509 2.98833 0)
(5.51895 3.92105 0)
(5.41858 5.33016 0)
(7.26085 6.19233 0)
(6.97118 8.39449 0)
(8.72767 8.40746 0)
(7.40266 8.64248 0)
(8.67741 5.92539 0)
(6.95933 5.66908 0)
(8.15151 2.72296 0)
(6.81797 3.68819 0)
(8.27464 1.14264 0)
(7.32855 2.24943 0)
(8.46726 -0.136171 0)
(7.57625 1.06418 0)
(8.32218 -1.87472 0)
(7.23073 -0.995839 0)
(7.99987 -3.77602 0)
(6.9518 -2.13596 0)
(7.41533 -4.15237 0)
(6.42046 -1.3448 0)
(6.87217 -3.28394 0)
(5.86112 -0.439019 0)
(6.54141 -2.2877 0)
(5.62317 0.453468 0)
(6.36368 -1.92756 0)
(5.56494 0.899924 0)
(6.57182 -1.28162 0)
(5.50119 1.27074 0)
(6.71053 -1.29471 0)
(5.67967 1.44854 0)
(7.27321 -0.816328 0)
(5.8032 1.7085 0)
(7.83556 -0.87375 0)
(6.1958 1.8124 0)
(9.02493 -0.383106 0)
(6.63789 2.20348 0)
(10.1175 -0.0723124 0)
(7.17913 2.44904 0)
(11.5385 0.567463 0)
(7.08106 3.05225 0)
(11.8862 1.38346 0)
(5.94172 3.86752 0)
(10.8403 1.58617 0)
(5.5403 5.71419 0)
(9.29156 1.33152 0)
(9.17314 7.96901 0)
(12.7771 -0.597095 0)
(12.5611 -0.749909 0)
(12.3732 -0.517567 0)
(12.4554 -0.339952 0)
(12.0968 -0.285035 0)
(12.0096 -0.353359 0)
(11.9273 -0.147691 0)
(11.8476 0.193211 0)
(12.1688 0.32627 0)
(12.2513 0.629558 0)
(12.3849 0.748796 0)
(12.7969 0.440737 0)
(13.1392 -0.0482996 0)
(13.7654 -0.678413 0)
(14.4241 -1.6325 0)
(14.8483 -2.63753 0)
(15.1767 -3.74395 0)
(14.7503 -4.58471 0)
(14.124 -4.67096 0)
(14.014 -5.08617 0)
(13.9712 -5.2313 0)
(13.883 -4.76902 0)
(13.8459 -4.31878 0)
(13.3271 -2.89975 0)
(13.2455 -1.50391 0)
(13.4482 -0.400534 0)
(13.2957 1.31827 0)
(13.2749 2.39111 0)
(13.0896 2.8034 0)
(12.7268 3.13337 0)
(12.7218 2.51226 0)
(12.3268 1.81808 0)
(12.0141 1.21673 0)
(12.0238 -0.00295138 0)
(11.2589 -0.797441 0)
(10.6204 -1.40216 0)
(10.1323 -2.06448 0)
(9.3987 -2.03985 0)
(8.87509 -1.56822 0)
(8.35015 -1.40393 0)
(8.09136 -1.66527 0)
(6.96591 -0.580591 0)
(5.74771 0.527993 0)
(5.10585 -0.581324 0)
(3.65857 -2.936 0)
(2.3751 -5.12952 0)
(0.988164 -7.28191 0)
(2.45104 -7.03623 0)
(2.06811 -5.51488 0)
(3.02426 -3.99348 0)
(2.30608 -4.10297 0)
(2.594 -1.47756 0)
(2.98039 -0.342679 0)
(3.30299 3.04771 0)
(4.51628 3.44221 0)
(4.69333 5.14149 0)
(6.6071 5.7934 0)
(6.33695 8.11726 0)
(8.24924 8.13848 0)
(7.02223 8.69669 0)
(8.45812 5.86229 0)
(7.03441 5.8172 0)
(8.11598 2.74012 0)
(7.05611 3.72035 0)
(8.29229 1.01282 0)
(7.64143 2.18198 0)
(8.61788 -0.178618 0)
(7.85775 1.1402 0)
(8.65864 -1.81747 0)
(7.7406 -0.972173 0)
(8.2986 -3.76985 0)
(7.30863 -1.97213 0)
(7.63076 -4.07609 0)
(6.57315 -1.14417 0)
(6.97435 -3.27854 0)
(5.94139 -0.207291 0)
(6.5593 -2.33968 0)
(5.57036 0.71733 0)
(6.21113 -2.05464 0)
(5.36927 1.10553 0)
(6.36828 -1.47805 0)
(5.28354 1.51568 0)
(6.4319 -1.53209 0)
(5.29937 1.65435 0)
(6.97306 -1.08529 0)
(5.29911 2.01481 0)
(7.28703 -1.13806 0)
(5.20194 2.08742 0)
(8.48379 -0.7809 0)
(5.39912 2.53147 0)
(9.65241 -0.545786 0)
(5.51924 2.68026 0)
(11.7309 -0.141799 0)
(6.53721 3.25624 0)
(13.3769 0.579792 0)
(7.7452 4.13246 0)
(13.6672 0.891667 0)
(8.64044 5.82697 0)
(11.2952 1.50488 0)
(9.10462 6.99858 0)
(13.2605 -0.573142 0)
(12.9078 -0.690143 0)
(12.805 -0.482978 0)
(12.8284 -0.339819 0)
(12.6067 -0.270526 0)
(12.7178 -0.30696 0)
(12.6426 -0.149155 0)
(12.483 0.156479 0)
(12.7798 0.24537 0)
(12.9758 0.497745 0)
(13.2316 0.647259 0)
(13.6288 0.324232 0)
(13.9571 -0.203552 0)
(14.4781 -0.855076 0)
(14.9463 -1.77687 0)
(15.054 -2.7769 0)
(14.9704 -3.66295 0)
(14.3997 -4.3661 0)
(13.9249 -4.62942 0)
(13.9309 -5.04751 0)
(13.8346 -5.23179 0)
(13.5545 -4.74295 0)
(13.1517 -4.11938 0)
(12.6324 -2.7701 0)
(12.638 -1.51265 0)
(12.7701 -0.399675 0)
(12.716 1.346 0)
(12.9719 2.40533 0)
(12.927 2.89625 0)
(12.4947 3.23054 0)
(12.447 2.61108 0)
(11.9856 1.92955 0)
(11.7025 1.2767 0)
(11.6064 0.188952 0)
(10.8528 -0.518545 0)
(10.3362 -1.22199 0)
(9.87533 -1.8529 0)
(9.25309 -1.81807 0)
(8.74836 -1.40031 0)
(8.44543 -1.25215 0)
(8.10281 -1.32603 0)
(6.9127 -0.0726332 0)
(5.61259 1.00072 0)
(4.80687 -0.19905 0)
(3.19727 -2.29437 0)
(1.4182 -4.54218 0)
(0.227718 -7.21202 0)
(0.879868 -7.2646 0)
(1.07167 -5.59165 0)
(2.50705 -4.17546 0)
(1.538 -3.9534 0)
(1.59344 -1.45947 0)
(1.7276 -0.806043 0)
(2.4246 2.80812 0)
(3.74215 2.86141 0)
(4.02035 4.96709 0)
(5.74778 5.30424 0)
(5.55327 7.93009 0)
(7.6171 7.83626 0)
(6.6761 8.64853 0)
(8.22194 5.78614 0)
(7.15142 5.96393 0)
(8.04816 2.72037 0)
(7.26171 3.65682 0)
(8.33677 0.926915 0)
(7.89449 2.05987 0)
(8.66103 -0.207375 0)
(8.10022 1.09589 0)
(8.82331 -1.76039 0)
(8.26386 -0.918725 0)
(8.69072 -3.58726 0)
(7.78759 -1.86488 0)
(7.84407 -3.92168 0)
(6.86486 -0.952919 0)
(7.06738 -3.18446 0)
(6.09902 -0.0842472 0)
(6.55101 -2.42473 0)
(5.7657 0.835945 0)
(6.30007 -2.15654 0)
(5.4701 1.2049 0)
(6.30056 -1.62546 0)
(5.41331 1.62621 0)
(6.27755 -1.71829 0)
(5.31019 1.72058 0)
(6.56745 -1.28021 0)
(5.37567 2.10342 0)
(6.61563 -1.35517 0)
(5.23871 2.06618 0)
(7.14184 -1.04448 0)
(5.38571 2.60725 0)
(7.22953 -0.864206 0)
(5.04834 2.89957 0)
(7.9249 -0.732067 0)
(5.85143 3.69737 0)
(9.10704 -0.170907 0)
(7.1214 4.65366 0)
(11.1325 0.266511 0)
(9.04116 5.97472 0)
(12.9108 2.01992 0)
(10.0845 6.25395 0)
(13.2371 -0.512869 0)
(12.8027 -0.601817 0)
(12.8257 -0.412104 0)
(12.8751 -0.293979 0)
(12.7421 -0.302975 0)
(12.9119 -0.323705 0)
(12.8061 -0.155116 0)
(12.7036 0.115775 0)
(13.004 0.201104 0)
(13.2342 0.386598 0)
(13.4196 0.469623 0)
(13.7322 0.180455 0)
(14.1288 -0.327306 0)
(14.604 -1.00772 0)
(14.8615 -1.93647 0)
(14.7257 -2.80069 0)
(14.4691 -3.4941 0)
(14.0621 -4.19031 0)
(13.8223 -4.60762 0)
(13.7227 -4.97669 0)
(13.3607 -5.07962 0)
(12.716 -4.54813 0)
(12.0669 -3.84561 0)
(11.6035 -2.68066 0)
(11.5809 -1.53645 0)
(11.5673 -0.389957 0)
(11.6739 1.2618 0)
(12.2525 2.31781 0)
(12.3807 2.99078 0)
(12.1058 3.34143 0)
(12.1541 2.733 0)
(11.6033 2.09925 0)
(11.3412 1.38114 0)
(11.1609 0.389243 0)
(10.5164 -0.251998 0)
(10.1486 -1.01696 0)
(9.68812 -1.61001 0)
(9.0566 -1.56906 0)
(8.56249 -1.22303 0)
(8.37384 -1.10391 0)
(8.00889 -1.0089 0)
(6.74454 0.406168 0)
(5.50918 1.48675 0)
(4.59574 0.285935 0)
(2.73735 -1.5605 0)
(1.01048 -4.02813 0)
(0.117138 -7.06845 0)
(-0.0437055 -7.43847 0)
(0.645366 -5.94682 0)
(2.40952 -4.32585 0)
(0.818237 -3.75782 0)
(0.854087 -1.31832 0)
(0.993184 -0.973045 0)
(1.4283 2.70861 0)
(2.82263 2.02376 0)
(3.2905 4.91328 0)
(4.99504 4.85448 0)
(4.99466 7.71059 0)
(6.96064 7.32703 0)
(6.30495 8.51924 0)
(7.85492 5.59154 0)
(7.1722 5.99329 0)
(7.96787 2.65882 0)
(7.41082 3.60312 0)
(8.35163 0.824121 0)
(8.11115 1.98141 0)
(8.7185 -0.208509 0)
(8.36802 1.09536 0)
(8.94922 -1.78854 0)
(8.56868 -0.97239 0)
(8.84308 -3.48726 0)
(8.1018 -1.66449 0)
(7.98206 -3.75191 0)
(7.01919 -0.743105 0)
(7.11888 -3.05374 0)
(6.16508 0.173195 0)
(6.44477 -2.43203 0)
(5.68805 1.07057 0)
(6.19688 -2.24739 0)
(5.38176 1.37435 0)
(6.18606 -1.85059 0)
(5.34945 1.84452 0)
(6.25567 -1.92081 0)
(5.1999 1.8876 0)
(6.47685 -1.63424 0)
(5.32204 2.33707 0)
(6.69111 -1.61559 0)
(5.21467 2.20328 0)
(6.98584 -1.51026 0)
(5.50792 2.81419 0)
(7.28377 -1.14115 0)
(5.60555 2.98755 0)
(7.25243 -1.37327 0)
(6.32606 3.74708 0)
(7.69704 -0.896829 0)
(7.00514 4.85115 0)
(8.89292 -0.398068 0)
(8.15482 5.69858 0)
(11.6408 1.71958 0)
(10.8105 5.69738 0)
(13.0945 -0.430513 0)
(12.7425 -0.471857 0)
(12.7882 -0.325682 0)
(13.0089 -0.289663 0)
(12.9565 -0.326731 0)
(12.9122 -0.285713 0)
(12.7652 -0.147878 0)
(12.7301 0.0259749 0)
(12.9532 0.107579 0)
(13.0652 0.286738 0)
(13.1608 0.378018 0)
(13.597 0.0421971 0)
(14.0748 -0.508951 0)
(14.404 -1.14775 0)
(14.4775 -1.96332 0)
(14.3413 -2.72819 0)
(14.1134 -3.32196 0)
(13.8465 -4.06577 0)
(13.6389 -4.60998 0)
(13.1941 -4.82934 0)
(12.3855 -4.74427 0)
(11.5025 -4.20856 0)
(10.7133 -3.5181 0)
(10.3137 -2.514 0)
(10.2207 -1.45466 0)
(10.0671 -0.346116 0)
(10.376 1.08791 0)
(11.1695 2.11503 0)
(11.443 2.97015 0)
(11.5072 3.33141 0)
(11.5831 2.82499 0)
(11.114 2.26247 0)
(10.9712 1.48721 0)
(10.6573 0.577608 0)
(10.0778 -0.0852281 0)
(9.81878 -0.868036 0)
(9.34731 -1.36446 0)
(8.72272 -1.35075 0)
(8.34781 -1.09846 0)
(8.24253 -0.97874 0)
(7.84798 -0.649383 0)
(6.5353 0.907495 0)
(5.3048 1.94539 0)
(4.5156 0.807975 0)
(2.47402 -0.876312 0)
(1.30395 -3.63772 0)
(0.532472 -6.78213 0)
(-0.296511 -7.48952 0)
(0.255277 -6.46028 0)
(2.26521 -4.48787 0)
(0.00498379 -3.33899 0)
(0.387423 -1.45086 0)
(0.252659 -1.33703 0)
(0.877464 2.5042 0)
(2.18609 1.41276 0)
(2.63714 4.75262 0)
(4.16877 4.04813 0)
(4.29896 7.57782 0)
(6.16801 6.86191 0)
(5.9805 8.37701 0)
(7.40838 5.36431 0)
(7.1562 5.95354 0)
(7.85553 2.63634 0)
(7.56774 3.48623 0)
(8.34128 0.732824 0)
(8.30037 1.82514 0)
(8.73833 -0.242297 0)
(8.64169 0.970363 0)
(9.17919 -1.77089 0)
(8.9902 -1.02983 0)
(9.0022 -3.3571 0)
(8.45088 -1.53283 0)
(8.10294 -3.4357 0)
(7.22804 -0.548419 0)
(7.09871 -2.92106 0)
(6.36551 0.300754 0)
(6.49121 -2.39797 0)
(5.85461 1.1475 0)
(6.19383 -2.27279 0)
(5.49604 1.50694 0)
(6.01215 -1.94866 0)
(5.41895 1.93082 0)
(6.04532 -2.04238 0)
(5.2687 2.01723 0)
(6.09867 -1.82112 0)
(5.36788 2.45533 0)
(6.27837 -1.83164 0)
(5.28551 2.40235 0)
(6.33902 -1.80019 0)
(5.57387 3.01121 0)
(6.71868 -1.49572 0)
(5.6933 3.26075 0)
(6.71921 -1.80664 0)
(6.33634 3.9448 0)
(7.4695 -1.11354 0)
(7.08736 4.72059 0)
(8.03846 -0.459758 0)
(7.86728 5.23993 0)
(9.39416 1.17205 0)
(10.5888 5.05025 0)
(13.027 -0.341821 0)
(12.8713 -0.370774 0)
(12.9975 -0.29589 0)
(13.1618 -0.332802 0)
(12.9233 -0.301278 0)
(12.8487 -0.198734 0)
(12.8813 -0.169697 0)
(12.7452 -0.0249883 0)
(12.7364 0.14246 0)
(12.8085 0.263251 0)
(13.18 0.197793 0)
(13.6652 -0.130862 0)
(13.9435 -0.63372 0)
(14.103 -1.20814 0)
(14.2052 -1.88629 0)
(14.0834 -2.59295 0)
(13.8661 -3.24544 0)
(13.6335 -3.96036 0)
(13.1314 -4.40683 0)
(12.1949 -4.45123 0)
(10.9769 -4.25594 0)
(9.94242 -3.77725 0)
(9.17551 -3.19504 0)
(8.78434 -2.33928 0)
(8.63421 -1.37591 0)
(8.57378 -0.376104 0)
(9.04442 0.836117 0)
(9.76042 1.90857 0)
(10.1823 2.86087 0)
(10.5481 3.21621 0)
(10.7229 2.86811 0)
(10.4572 2.35379 0)
(10.3498 1.59329 0)
(9.96275 0.786648 0)
(9.51302 0.0649388 0)
(9.23081 -0.736629 0)
(8.76421 -1.14182 0)
(8.32894 -1.15268 0)
(8.07226 -1.00458 0)
(8.02733 -0.847815 0)
(7.57716 -0.28172 0)
(6.28695 1.40477 0)
(5.11395 2.34818 0)
(4.43999 1.30759 0)
(2.54273 -0.314988 0)
(1.96486 -3.37673 0)
(1.08552 -6.28033 0)
(-0.452608 -7.52697 0)
(-0.464802 -7.08381 0)
(1.24565 -4.41027 0)
(-1.00466 -2.97456 0)
(0.132388 -1.45382 0)
(-0.178688 -1.18992 0)
(0.124361 2.15952 0)
(1.31316 0.51585 0)
(2.08696 4.6815 0)
(3.25385 3.42995 0)
(3.60876 7.5323 0)
(5.2735 6.15442 0)
(5.56718 8.12951 0)
(6.98632 5.05643 0)
(7.10381 5.90387 0)
(7.77433 2.58568 0)
(7.73973 3.331 0)
(8.4068 0.656284 0)
(8.49305 1.69088 0)
(8.77296 -0.267499 0)
(8.90345 0.84432 0)
(9.43018 -1.74927 0)
(9.47024 -1.0176 0)
(9.23502 -3.17481 0)
(8.64095 -1.40178 0)
(8.13921 -3.18698 0)
(7.35517 -0.303733 0)
(7.04257 -2.6523 0)
(6.36045 0.510895 0)
(6.33632 -2.30668 0)
(5.82201 1.3128 0)
(6.12776 -2.26354 0)
(5.50719 1.62285 0)
(6.00922 -2.09666 0)
(5.42354 2.06649 0)
(6.08235 -2.20535 0)
(5.28952 2.17806 0)
(6.11475 -2.11763 0)
(5.37795 2.6346 0)
(6.35959 -2.08502 0)
(5.4012 2.61679 0)
(6.36067 -2.21003 0)
(5.68374 3.19878 0)
(6.73596 -1.80202 0)
(6.08251 3.4702 0)
(6.68496 -2.04744 0)
(6.53849 3.86171 0)
(7.13131 -1.25154 0)
(7.28269 4.5264 0)
(7.58754 -0.403905 0)
(8.04029 4.67227 0)
(8.36907 0.998447 0)
(9.95176 4.23149 0)
(13.0755 -0.311836 0)
(13.0297 -0.360429 0)
(13.1253 -0.234195 0)
(13.1646 -0.225847 0)
(12.8985 -0.23731 0)
(12.971 -0.224914 0)
(12.9245 -0.19193 0)
(12.6284 0.0109477 0)
(12.6706 0.14603 0)
(13.02 0.0842921 0)
(13.2686 -0.0047717 0)
(13.4327 -0.221599 0)
(13.7003 -0.655935 0)
(13.8914 -1.18449 0)
(13.9546 -1.85874 0)
(13.8014 -2.53953 0)
(13.4881 -3.12294 0)
(13.1123 -3.73332 0)
(12.1603 -4.02525 0)
(10.6286 -3.91593 0)
(9.19507 -3.73746 0)
(8.28836 -3.40946 0)
(7.72966 -2.92448 0)
(7.42109 -2.21224 0)
(7.22411 -1.33601 0)
(7.18491 -0.450791 0)
(7.57904 0.62798 0)
(8.09993 1.74013 0)
(8.6769 2.68244 0)
(9.27078 3.02863 0)
(9.56855 2.80582 0)
(9.46117 2.37871 0)
(9.367 1.68523 0)
(9.11036 0.932581 0)
(8.82795 0.193963 0)
(8.51611 -0.559843 0)
(8.04956 -0.948746 0)
(7.79913 -1.0463 0)
(7.65864 -0.949333 0)
(7.62183 -0.707786 0)
(7.13996 0.0706649 0)
(5.90148 1.86996 0)
(4.9346 2.71765 0)
(4.4857 1.72727 0)
(2.71718 0.129881 0)
(2.87479 -3.01234 0)
(1.42845 -5.64859 0)
(-0.268021 -7.21214 0)
(-1.77153 -7.26035 0)
(-0.335815 -4.52052 0)
(-1.85324 -2.8325 0)
(0.143146 -1.81428 0)
(-1.04344 -1.40234 0)
(0.00613197 2.01395 0)
(0.530036 0.119076 0)
(1.53434 4.73674 0)
(1.95007 2.5768 0)
(2.99058 7.56251 0)
(4.24464 5.37324 0)
(5.07985 7.86139 0)
(6.45323 4.69064 0)
(6.97361 5.6646 0)
(7.60592 2.4612 0)
(7.91955 3.10818 0)
(8.4426 0.595946 0)
(8.74481 1.52673 0)
(8.8261 -0.272332 0)
(9.23175 0.60693 0)
(9.60043 -1.82483 0)
(9.80391 -1.09652 0)
(9.42872 -2.89254 0)
(8.87965 -1.18364 0)
(8.07102 -2.84775 0)
(7.48036 -0.17685 0)
(7.06266 -2.43651 0)
(6.54746 0.620946 0)
(6.29982 -2.11508 0)
(5.93199 1.34119 0)
(5.98903 -2.1254 0)
(5.60385 1.71443 0)
(5.78205 -1.99983 0)
(5.46504 2.11339 0)
(5.83398 -2.15295 0)
(5.38391 2.25241 0)
(5.81949 -2.14822 0)
(5.42375 2.68365 0)
(6.02415 -2.17264 0)
(5.52767 2.742 0)
(6.08476 -2.28957 0)
(5.73228 3.24675 0)
(6.40276 -1.96893 0)
(6.15016 3.53556 0)
(6.63536 -1.99805 0)
(6.61351 3.8322 0)
(7.09538 -1.22144 0)
(7.40065 4.16502 0)
(7.73976 -0.254707 0)
(8.19435 4.06328 0)
(8.66451 1.10433 0)
(9.60375 3.38853 0)
(13.116 -0.305236 0)
(13.0479 -0.300769 0)
(13.0862 -0.145638 0)
(13.1306 -0.210578 0)
(13.0276 -0.264747 0)
(12.9922 -0.172038 0)
(12.8559 -0.133711 0)
(12.6932 -0.0101452 0)
(12.8213 0.0573845 0)
(13.005 0.00145126 0)
(13.0306 -0.0141761 0)
(13.2775 -0.264235 0)
(13.5424 -0.73103 0)
(13.6365 -1.21333 0)
(13.6376 -1.80622 0)
(13.3486 -2.39961 0)
(12.9073 -2.96043 0)
(12.1129 -3.38957 0)
(10.5756 -3.42797 0)
(8.76345 -3.26458 0)
(7.48741 -3.2439 0)
(6.79115 -3.16543 0)
(6.35335 -2.78989 0)
(6.06844 -2.12578 0)
(5.86571 -1.3185 0)
(5.75572 -0.46199 0)
(5.99519 0.519849 0)
(6.49749 1.49566 0)
(7.16629 2.34162 0)
(7.76017 2.74556 0)
(8.0734 2.72517 0)
(8.133 2.39639 0)
(8.20283 1.72321 0)
(8.08078 1.00849 0)
(7.9257 0.28702 0)
(7.60931 -0.406844 0)
(7.24976 -0.82656 0)
(7.1416 -0.991857 0)
(7.08222 -0.887777 0)
(7.00341 -0.541936 0)
(6.52239 0.415638 0)
(5.41314 2.26681 0)
(4.72529 2.94555 0)
(4.60236 2.05905 0)
(3.14802 0.415864 0)
(3.53301 -2.61203 0)
(2.04739 -4.90091 0)
(0.0752771 -6.26485 0)
(-2.39537 -6.65769 0)
(-2.02155 -4.51517 0)
(-2.33744 -2.93517 0)
(0.0463926 -2.13342 0)
(-1.98801 -0.884673 0)
(-0.655157 1.41707 0)
(-0.668185 -0.436898 0)
(0.6137 4.5542 0)
(0.608463 1.80487 0)
(2.61051 7.53967 0)
(2.99891 4.47322 0)
(4.70592 7.5236 0)
(6.03705 4.27181 0)
(6.80048 5.40476 0)
(7.47607 2.32462 0)
(8.11437 2.84955 0)
(8.49104 0.514043 0)
(8.96498 1.36262 0)
(8.94085 -0.314997 0)
(9.59106 0.380658 0)
(9.82567 -1.82574 0)
(10.0353 -1.1197 0)
(9.49125 -2.65484 0)
(9.09427 -0.958784 0)
(8.06303 -2.45741 0)
(7.47672 0.0274669 0)
(6.87745 -2.17281 0)
(6.53271 0.730823 0)
(6.22257 -1.95734 0)
(5.97939 1.38403 0)
(5.99728 -2.04307 0)
(5.65956 1.73692 0)
(5.8135 -1.97048 0)
(5.51007 2.10984 0)
(5.87306 -2.12255 0)
(5.43973 2.3101 0)
(5.87172 -2.13513 0)
(5.47139 2.73626 0)
(6.07711 -2.17051 0)
(5.65524 2.79421 0)
(6.16253 -2.30264 0)
(5.84697 3.27731 0)
(6.4412 -1.92236 0)
(6.27498 3.51381 0)
(6.7512 -1.94314 0)
(6.7506 3.55188 0)
(7.23047 -1.10152 0)
(7.41727 3.70311 0)