/*--------------------------------*- C++ -*----------------------------------*\
| =========                 |                                                 |
| \\      /  F ield         | OpenFOAM: The Open Source CFD Toolbox           |
|  \\    /   O peration     | Version:  2.4.0                                 |
|   \\  /    A nd           | Web:      www.OpenFOAM.org                      |
|    \\/     M anipulation  |                                                 |
\*---------------------------------------------------------------------------*/
FoamFile
{
    version     2.0;
    format      ascii;
    class       volVectorField;
    location    "0.139";
    object      U;
}
// * * * * * * * * * * * * * * * * * * * * * * * * * * * * * * * * * * * * * //

dimensions      [0 1 -1 0 0 0 0];

internalField   nonuniform List<vector> 
17600
(
(5.32685 0.309539 0)
(2.98547 0.0605231 0)
(2.19219 -0.00147205 0)
(1.85435 -0.00370867 0)
(1.69831 -0.00108848 0)
(1.61985 -0.000246785 0)
(1.52805 -7.17184e-05 0)
(1.48724 0.000424991 0)
(1.42851 -0.00099981 0)
(1.40895 0.000866096 0)
(1.37272 -0.000833036 0)
(1.3429 0.00111428 0)
(1.34749 -0.00143605 0)
(1.28558 0.00169555 0)
(1.313 -0.000511217 0)
(1.26369 -0.000725995 0)
(1.27395 0.00113033 0)
(1.27157 -0.00132418 0)
(1.22292 0.000463939 0)
(1.50819 -0.0346093 0)
(8.59583 0.872212 0)
(6.95215 0.383324 0)
(5.79642 0.121761 0)
(5.07584 0.0505173 0)
(4.62778 0.0286825 0)
(4.4061 0.0206708 0)
(4.14714 0.0158142 0)
(4.0447 0.0136186 0)
(3.87361 0.00700776 0)
(3.81424 0.00982479 0)
(3.71892 0.00504976 0)
(3.62552 0.00697227 0)
(3.64988 0.00245662 0)
(3.45834 0.0087854 0)
(3.57065 0.000658255 0)
(3.39907 0.00390122 0)
(3.42961 0.00230169 0)
(3.43084 0.00327792 0)
(3.28194 -0.0111759 0)
(3.78445 -0.0298936 0)
(9.85176 1.0226 0)
(9.35357 0.577615 0)
(8.44527 0.240777 0)
(7.67802 0.129682 0)
(7.04968 0.0823084 0)
(6.74234 0.0582573 0)
(6.35269 0.0436675 0)
(6.21231 0.0360242 0)
(5.95162 0.0232496 0)
(5.85247 0.0242445 0)
(5.72586 0.0174203 0)
(5.55409 0.0155445 0)
(5.62636 0.0116443 0)
(5.29369 0.0190367 0)
(5.50738 0.00261935 0)
(5.21616 0.0149686 0)
(5.27058 0.00231568 0)
(5.25564 0.0121694 0)
(5.08768 -0.02113 0)
(5.56178 -0.0273556 0)
(10.1502 0.948158 0)
(10.5897 0.669862 0)
(10.2098 0.329256 0)
(9.70032 0.209812 0)
(9.05473 0.147715 0)
(8.76118 0.108398 0)
(8.28495 0.081769 0)
(8.13762 0.0655449 0)
(7.82065 0.0471906 0)
(7.67828 0.0426493 0)
(7.5581 0.0364648 0)
(7.28743 0.0258764 0)
(7.44183 0.0259627 0)
(6.95825 0.032402 0)
(7.2778 0.00533967 0)
(6.88018 0.031816 0)
(6.96707 0.00299054 0)
(6.89552 0.0215556 0)
(6.8082 -0.029018 0)
(7.10184 -0.0191495 0)
(10.0552 0.80548 0)
(10.9632 0.672745 0)
(11.0554 0.355006 0)
(10.9768 0.255913 0)
(10.4881 0.203088 0)
(10.3394 0.158312 0)
(9.86163 0.123996 0)
(9.74585 0.0976173 0)
(9.43382 0.0765655 0)
(9.24559 0.062644 0)
(9.18538 0.0605031 0)
(8.80234 0.0374726 0)
(9.06372 0.0431001 0)
(8.44871 0.0492229 0)
(8.85513 0.00719394 0)
(8.38427 0.0522428 0)
(8.50855 0.00670127 0)
(8.34824 0.0277303 0)
(8.40213 -0.0312103 0)
(8.50955 -0.0179072 0)
(9.94949 0.689326 0)
(10.9391 0.642385 0)
(11.195 0.33128 0)
(11.4819 0.251404 0)
(11.2074 0.224463 0)
(11.3077 0.188558 0)
(10.9468 0.159084 0)
(10.914 0.123869 0)
(10.6961 0.106583 0)
(10.4744 0.0811462 0)
(10.531 0.0862316 0)
(10.0519 0.0499448 0)
(10.4224 0.0598279 0)
(9.73498 0.0694411 0)
(10.1868 0.00740828 0)
(9.69547 0.0735079 0)
(9.85521 0.0145818 0)
(9.5954 0.0300421 0)
(9.8165 -0.0337666 0)
(9.70477 -0.00421469 0)
(9.89365 0.596568 0)
(10.8732 0.612627 0)
(11.0749 0.301714 0)
(11.5372 0.220084 0)
(11.3441 0.212149 0)
(11.6387 0.187058 0)
(11.4498 0.174781 0)
(11.5124 0.131581 0)
(11.4832 0.126751 0)
(11.2652 0.0917518 0)
(11.4829 0.106664 0)
(10.9722 0.0614815 0)
(11.4317 0.0720405 0)
(10.7658 0.0916868 0)
(11.2088 0.00588574 0)
(10.7601 0.0912465 0)
(10.9556 0.0282429 0)
(10.6135 0.0242304 0)
(10.9941 -0.0277175 0)
(10.5677 0.0546576 0)
(9.84156 0.512821 0)
(10.8223 0.57775 0)
(10.9608 0.286807 0)
(11.4889 0.19208 0)
(11.3117 0.195259 0)
(11.6039 0.166166 0)
(11.5592 0.177241 0)
(11.61 0.119917 0)
(11.7706 0.131194 0)
(11.5793 0.0884444 0)
(11.942 0.113783 0)
(11.4931 0.0670117 0)
(11.9903 0.0735252 0)
(11.4688 0.110535 0)
(11.8462 0.00271881 0)
(11.5044 0.102191 0)
(11.7329 0.0421044 0)
(11.4012 0.0193195 0)
(11.7909 -0.0180997 0)
(11.1503 0.153033 0)
(9.82355 0.440463 0)
(10.7292 0.529361 0)
(10.8974 0.276225 0)
(11.3837 0.164193 0)
(11.3322 0.184201 0)
(11.5037 0.142943 0)
(11.5689 0.176787 0)
(11.5304 0.104148 0)
(11.7662 0.124235 0)
(11.6231 0.0784312 0)
(11.9923 0.105799 0)
(11.6927 0.0686961 0)
(12.0932 0.0597237 0)
(11.8168 0.12411 0)
(12.0714 -0.00727122 0)
(11.8595 0.105101 0)
(12.1177 0.0481506 0)
(11.9246 0.0131487 0)
(12.0382 0.00203613 0)
(11.6678 0.125032 0)
(9.87529 0.379812 0)
(10.5938 0.476932 0)
(10.8704 0.26679 0)
(11.2309 0.133341 0)
(11.3167 0.169384 0)
(11.4447 0.120927 0)
(11.558 0.177514 0)
(11.4867 0.0907643 0)
(11.6656 0.115416 0)
(11.6278 0.0663378 0)
(11.8684 0.0930008 0)
(11.7847 0.0679628 0)
(11.9742 0.0438208 0)
(11.9362 0.124529 0)
(12.0553 -0.00692973 0)
(11.9224 0.08689 0)
(12.1756 0.051592 0)
(12.1226 0.00415896 0)
(11.8493 0.0248441 0)
(12.361 -0.0659981 0)
(9.9503 0.323412 0)
(10.4577 0.426726 0)
(10.8668 0.257673 0)
(11.0954 0.108911 0)
(11.2338 0.148552 0)
(11.4 0.0971435 0)
(11.507 0.175307 0)
(11.4827 0.0863617 0)
(11.5613 0.101845 0)
(11.6128 0.0616253 0)
(11.7565 0.0719376 0)
(11.806 0.0702075 0)
(11.8509 0.0273883 0)
(11.9266 0.122836 0)
(12.0444 -0.00764138 0)
(11.8675 0.0788429 0)
(12.155 0.038505 0)
(12.0677 0.0249729 0)
(11.806 -0.0331609 0)
(12.8282 -0.197376 0)
(9.98629 0.2788 0)
(10.3795 0.371606 0)
(10.8578 0.249079 0)
(10.9958 0.0916748 0)
(11.161 0.124263 0)
(11.333 0.0721304 0)
(11.4368 0.168016 0)
(11.4854 0.0802581 0)
(11.4916 0.0944091 0)
(11.5776 0.0510652 0)
(11.684 0.0548125 0)
(11.7416 0.0736314 0)
(11.7574 0.0136257 0)
(11.8879 0.111001 0)
(12.0142 0.00107306 0)
(11.8144 0.0584389 0)
(12.1836 0.0435489 0)
(11.9029 0.0211677 0)
(12.0722 -0.0942155 0)
(12.5083 -0.170248 0)
(9.98864 0.232038 0)
(10.369 0.321408 0)
(10.7974 0.236552 0)
(10.9317 0.0833433 0)
(11.1313 0.0999737 0)
(11.2603 0.049349 0)
(11.385 0.153637 0)
(11.4748 0.075095 0)
(11.4423 0.0852158 0)
(11.5197 0.0470997 0)
(11.6144 0.0374278 0)
(11.6789 0.0759113 0)
(11.7251 -0.000243442 0)
(11.8699 0.0924125 0)
(11.9006 0.00985069 0)
(11.8709 0.0344466 0)
(12.0546 0.0475778 0)
(11.8514 0.00642729 0)
(12.2858 -0.125276 0)
(11.831 -0.0901 0)
(10.004 0.195385 0)
(10.3399 0.266407 0)
(10.7003 0.228243 0)
(10.9241 0.0672001 0)
(11.1226 0.0841819 0)
(11.2048 0.0262133 0)
(11.3456 0.13877 0)
(11.4296 0.0673897 0)
(11.3933 0.0820925 0)
(11.4647 0.0400358 0)
(11.5781 0.022778 0)
(11.6494 0.0713895 0)
(11.7319 -0.0152525 0)
(11.8036 0.086409 0)
(11.8082 0.0131256 0)
(11.9218 0.0159685 0)
(11.8239 0.0601941 0)
(12.0289 -0.032867 0)
(12.1723 -0.115588 0)
(11.5142 -0.0505726 0)
(10.0143 0.154664 0)
(10.266 0.229777 0)
(10.6555 0.197402 0)
(10.9558 0.0580539 0)
(11.0996 0.0679132 0)
(11.1642 0.0123075 0)
(11.2849 0.118369 0)
(11.3779 0.0668954 0)
(11.3722 0.0699876 0)
(11.4386 0.0387179 0)
(11.5777 -0.00115543 0)
(11.6016 0.0732277 0)
(11.7108 -0.0275434 0)
(11.7024 0.0837797 0)
(11.8119 0.00664447 0)
(11.8501 0.0134547 0)
(11.7604 0.043828 0)
(12.1775 -0.0503462 0)
(11.9024 -0.0998221 0)
(11.5672 -0.101094 0)
(9.98987 0.128233 0)
(10.2403 0.17979 0)
(10.6723 0.165172 0)
(10.9394 0.0436775 0)
(11.0604 0.0643608 0)
(11.1396 -0.00441973 0)
(11.2346 0.102378 0)
(11.3547 0.0550954 0)
(11.3645 0.0635468 0)
(11.4318 0.0290976 0)
(11.563 -0.0102479 0)
(11.5349 0.0646355 0)
(11.686 -0.024915 0)
(11.6562 0.0597369 0)
(11.8324 0.0130118 0)
(11.7292 -0.00320501 0)
(11.8908 0.032548 0)
(12.0741 -0.0785798 0)
(11.7221 -0.0410825 0)
(11.7097 -0.18367 0)
(9.96525 0.101212 0)
(10.2857 0.128489 0)
(10.6402 0.133038 0)
(10.8721 0.0398087 0)
(11.0577 0.0525192 0)
(11.1405 -0.0167801 0)
(11.2111 0.0792004 0)
(11.3341 0.0481073 0)
(11.3326 0.0499456 0)
(11.4404 0.0265244 0)
(11.5224 -0.0242062 0)
(11.4981 0.0663529 0)
(11.6822 -0.0415639 0)
(11.6701 0.0529837 0)
(11.7631 0.0139717 0)
(11.7269 -0.0142964 0)
(11.9876 0.00280362 0)
(11.8212 -0.0392302 0)
(11.7396 -0.0770981 0)
(11.958 -0.1632 0)
(9.98093 0.0706406 0)
(10.2941 0.0823888 0)
(10.5518 0.10854 0)
(10.863 0.0282697 0)
(11.0838 0.0380034 0)
(11.1366 -0.0263437 0)
(11.1724 0.0596889 0)
(11.2859 0.0432872 0)
(11.3239 0.0332791 0)
(11.456 0.0227687 0)
(11.4751 -0.0317605 0)
(11.5038 0.0580233 0)
(11.6741 -0.050464 0)
(11.6549 0.0459222 0)
(11.668 0.0158902 0)
(11.8363 -0.0387808 0)
(11.887 -0.000273966 0)
(11.7228 -0.0237402 0)
(11.8875 -0.115589 0)
(12.054 -0.138775 0)
(10.007 0.0468324 0)
(10.2451 0.0378014 0)
(10.5236 0.0811989 0)
(10.9029 0.00498391 0)
(11.0693 0.0323172 0)
(11.1156 -0.0318955 0)
(11.1282 0.0446013 0)
(11.2633 0.0289599 0)
(11.3513 0.0181669 0)
(11.4535 0.0177109 0)
(11.4327 -0.0331222 0)
(11.5282 0.0399487 0)
(11.6555 -0.0461992 0)
(11.5864 0.0315039 0)
(11.676 0.0126606 0)
(11.9049 -0.0649224 0)
(11.694 0.0207462 0)
(11.8199 -0.057815 0)
(12.0043 -0.116735 0)
(11.9183 -0.192413 0)
(10.0113 0.0174101 0)
(10.2167 0.00122426 0)
(10.5575 0.0401025 0)
(10.8976 -0.00536372 0)
(11.0337 0.0227776 0)
(11.1005 -0.0323389 0)
(11.1295 0.019276 0)
(11.2842 0.0179843 0)
(11.3677 -0.00358711 0)
(11.4108 0.0266345 0)
(11.4217 -0.0502506 0)
(11.5583 0.0359028 0)
(11.6209 -0.0521866 0)
(11.5512 0.0293374 0)
(11.7776 -0.0113644 0)
(11.8132 -0.051785 0)
(11.6632 0.000166672 0)
(11.9283 -0.059371 0)
(11.9315 -0.151128 0)
(11.7786 -0.187309 0)
(10.0085 -0.00134812 0)
(10.2215 -0.0494226 0)
(10.576 0.0102737 0)
(10.8667 -0.0215713 0)
(11.0266 0.0185372 0)
(11.1049 -0.043014 0)
(11.1661 -0.00159442 0)
(11.2935 0.00115421 0)
(11.35 -0.00847083 0)
(11.3663 0.0188298 0)
(11.4608 -0.0525266 0)
(11.5812 0.0141745 0)
(11.5764 -0.0357084 0)
(11.6024 -0.00241484 0)
(11.8074 -0.00499584 0)
(11.702 -0.0619388 0)
(11.7642 -0.00243282 0)
(11.9148 -0.0962764 0)
(11.8632 -0.115178 0)
(11.7398 -0.224445 0)
(10.007 -0.0311842 0)
(10.2391 -0.0878163 0)
(10.5719 -0.0259871 0)
(10.8543 -0.028826 0)
(11.0386 0.00614148 0)
(11.1306 -0.0498424 0)
(11.1931 -0.0240887 0)
(11.2647 -0.00490188 0)
(11.3355 -0.0195411 0)
(11.3663 0.0153837 0)
(11.5176 -0.0720895 0)
(11.5713 0.0141304 0)
(11.5631 -0.0395334 0)
(11.6682 -0.0182545 0)
(11.7293 -0.00971126 0)
(11.7106 -0.0597498 0)
(11.8282 -0.0339296 0)
(11.8721 -0.0821299 0)
(11.8483 -0.140595 0)
(11.7526 -0.135092 0)
(10.0055 -0.0547958 0)
(10.2551 -0.134576 0)
(10.5703 -0.0547031 0)
(10.8629 -0.0413851 0)
(11.0594 -0.00784818 0)
(11.1604 -0.0581448 0)
(11.1881 -0.0412674 0)
(11.2444 -0.0140167 0)
(11.3498 -0.0299301 0)
(11.4047 0.000908105 0)
(11.5446 -0.0783271 0)
(11.5404 0.00838411 0)
(11.5912 -0.0414509 0)
(11.6655 -0.0307565 0)
(11.6848 -0.0129799 0)
(11.7879 -0.0656579 0)
(11.8166 -0.0544335 0)
(11.8644 -0.0727976 0)
(11.873 -0.160386 0)
(11.7739 -0.066686 0)
(10.0049 -0.0852778 0)
(10.2676 -0.174986 0)
(10.5802 -0.0863853 0)
(10.8903 -0.0531722 0)
(11.0831 -0.022568 0)
(11.1743 -0.0670252 0)
(11.1786 -0.0533152 0)
(11.2638 -0.0284235 0)
(11.3733 -0.0410551 0)
(11.4464 -0.0131578 0)
(11.5383 -0.0767981 0)
(11.5338 -0.00442852 0)
(11.6182 -0.0362322 0)
(11.6523 -0.0494255 0)
(11.7241 -0.0116922 0)
(11.824 -0.0867836 0)
(11.804 -0.0495091 0)
(11.8645 -0.0993687 0)
(11.8919 -0.133987 0)
(11.7747 -0.138703 0)
(10.005 -0.115869 0)
(10.2813 -0.21638 0)
(10.6097 -0.120342 0)
(10.9209 -0.0627203 0)
(11.0996 -0.0399065 0)
(11.1804 -0.0708781 0)
(11.2009 -0.0710253 0)
(11.2925 -0.0413117 0)
(11.3978 -0.0534485 0)
(11.4728 -0.0237976 0)
(11.5283 -0.0782739 0)
(11.5635 -0.0116284 0)
(11.6389 -0.0423264 0)
(11.6757 -0.0560839 0)
(11.7775 -0.0277877 0)
(11.8147 -0.0833749 0)
(11.8058 -0.0653227 0)
(11.8917 -0.104166 0)
(11.9125 -0.145726 0)
(11.7976 -0.15331 0)
(10.0036 -0.149219 0)
(10.2996 -0.259044 0)
(10.652 -0.151829 0)
(10.9524 -0.0738758 0)
(11.1132 -0.0534809 0)
(11.2021 -0.0800247 0)
(11.2394 -0.0861925 0)
(11.3087 -0.0557484 0)
(11.4318 -0.0630242 0)
(11.4902 -0.0362851 0)
(11.5412 -0.0758996 0)
(11.6089 -0.0284729 0)
(11.6622 -0.0403965 0)
(11.7167 -0.0721904 0)
(11.7916 -0.0314398 0)
(11.814 -0.0869185 0)
(11.8445 -0.0776313 0)
(11.928 -0.11373 0)
(11.931 -0.154969 0)
(11.8435 -0.162844 0)
(10.0025 -0.186638 0)
(10.3228 -0.300843 0)
(10.7062 -0.184646 0)
(10.9852 -0.0820696 0)
(11.1336 -0.0694669 0)
(11.2353 -0.0902715 0)
(11.2647 -0.0977416 0)
(11.3361 -0.0708825 0)
(11.4817 -0.0729814 0)
(11.505 -0.0459544 0)
(11.5785 -0.0801192 0)
(11.6548 -0.039007 0)
(11.686 -0.0432526 0)
(11.7474 -0.0809981 0)
(11.8066 -0.0379006 0)
(11.851 -0.0913263 0)
(11.8887 -0.0909925 0)
(11.9539 -0.122066 0)
(11.9625 -0.167452 0)
(11.878 -0.162811 0)
(10.0045 -0.227003 0)
(10.3558 -0.346195 0)
(10.7683 -0.21094 0)
(11.0142 -0.0913376 0)
(11.164 -0.0874473 0)
(11.2641 -0.100787 0)
(11.2953 -0.10891 0)
(11.3972 -0.0900712 0)
(11.5274 -0.0788692 0)
(11.5318 -0.0589332 0)
(11.6277 -0.0822604 0)
(11.6893 -0.0512972 0)
(11.7124 -0.0433722 0)
(11.7795 -0.0910735 0)
(11.8466 -0.0452549 0)
(11.8955 -0.0969907 0)
(11.9206 -0.100658 0)
(11.9883 -0.134181 0)
(12.0002 -0.175408 0)
(11.9088 -0.160408 0)
(10.0213 -0.273088 0)
(10.3876 -0.392463 0)
(10.8348 -0.229986 0)
(11.0351 -0.103148 0)
(11.2077 -0.108076 0)
(11.2933 -0.11159 0)
(11.3607 -0.124898 0)
(11.4614 -0.105519 0)
(11.5663 -0.085534 0)
(11.5709 -0.0692669 0)
(11.6686 -0.0870782 0)
(11.7181 -0.0601116 0)
(11.7481 -0.0465534 0)
(11.8161 -0.100452 0)
(11.8954 -0.0524934 0)
(11.9319 -0.104555 0)
(11.9642 -0.105872 0)
(12.0281 -0.149108 0)
(12.0415 -0.177323 0)
(11.9645 -0.185776 0)
(10.0476 -0.325152 0)
(10.4088 -0.439406 0)
(10.9124 -0.242202 0)
(11.0462 -0.118583 0)
(11.2838 -0.130556 0)
(11.3334 -0.126113 0)
(11.4482 -0.138398 0)
(11.5 -0.119854 0)
(11.6214 -0.0896827 0)
(11.5933 -0.0802905 0)
(11.7154 -0.0907187 0)
(11.7478 -0.0685021 0)
(11.7959 -0.0516906 0)
(11.8553 -0.108395 0)
(11.9561 -0.0621037 0)
(11.9697 -0.10754 0)
(12.023 -0.115492 0)
(12.0716 -0.15901 0)
(12.0898 -0.187903 0)
(12.0177 -0.211166 0)
(10.0533 -0.384008 0)
(10.4419 -0.484486 0)
(10.9925 -0.254191 0)
(11.0771 -0.137037 0)
(11.3943 -0.158148 0)
(11.3695 -0.138286 0)
(11.5302 -0.151358 0)
(11.5298 -0.131009 0)
(11.6818 -0.0941615 0)
(11.6017 -0.0887646 0)
(11.7953 -0.0997842 0)
(11.7662 -0.0733989 0)
(11.8745 -0.0608784 0)
(11.8918 -0.115777 0)
(12.0257 -0.0719089 0)
(11.9892 -0.112051 0)
(12.0759 -0.121558 0)
(12.0612 -0.171668 0)
(12.0754 -0.183873 0)
(11.9556 -0.247434 0)
(10.0277 -0.446549 0)
(10.5115 -0.531333 0)
(11.0676 -0.266601 0)
(11.1613 -0.16205 0)
(11.4883 -0.183731 0)
(11.3998 -0.149486 0)
(11.6036 -0.162438 0)
(11.5689 -0.141852 0)
(11.7252 -0.0978735 0)
(11.6453 -0.0997537 0)
(11.8618 -0.10864 0)
(11.7722 -0.0796422 0)
(11.9344 -0.0707198 0)
(11.867 -0.121552 0)
(12.006 -0.0788587 0)
(11.894 -0.115333 0)
(11.9787 -0.120786 0)
(11.8506 -0.177192 0)
(11.8505 -0.168789 0)
(11.6184 -0.28011 0)
(9.99528 -0.51706 0)
(10.6133 -0.575148 0)
(11.1463 -0.281378 0)
(11.2752 -0.189625 0)
(11.5377 -0.204729 0)
(11.4465 -0.161241 0)
(11.668 -0.173185 0)
(11.5866 -0.149441 0)
(11.7287 -0.105041 0)
(11.6403 -0.108708 0)
(11.7819 -0.113686 0)
(11.6382 -0.0826318 0)
(11.7736 -0.0778736 0)
(11.5993 -0.116177 0)
(11.6888 -0.0828477 0)
(11.5066 -0.104985 0)
(11.5324 -0.121551 0)
(11.3193 -0.154758 0)
(11.2649 -0.173383 0)
(10.9716 -0.215084 0)
(9.97763 -0.597326 0)
(10.7323 -0.610129 0)
(11.2341 -0.300604 0)
(11.3865 -0.219776 0)
(11.5437 -0.222889 0)
(11.4644 -0.17514 0)
(11.6009 -0.178448 0)
(11.4191 -0.150232 0)
(11.4851 -0.10731 0)
(11.313 -0.107798 0)
(11.3305 -0.106192 0)
(11.1266 -0.0782485 0)
(11.1905 -0.0724488 0)
(10.9315 -0.102826 0)
(10.9735 -0.0741173 0)
(10.7404 -0.0929016 0)
(10.7206 -0.104996 0)
(10.452 -0.136634 0)
(10.3706 -0.148573 0)
(10.028 -0.173425 0)
(9.99368 -0.688127 0)
(10.8614 -0.641568 0)
(11.3057 -0.331698 0)
(11.3819 -0.252132 0)
(11.3425 -0.232474 0)
(11.16 -0.176394 0)
(11.0971 -0.166118 0)
(10.7851 -0.134041 0)
(10.7402 -0.0950076 0)
(10.4851 -0.0912646 0)
(10.4115 -0.0873179 0)
(10.18 -0.0648406 0)
(10.1879 -0.0587664 0)
(9.89863 -0.0827282 0)
(9.91032 -0.0612257 0)
(9.65905 -0.0752449 0)
(9.61087 -0.0849207 0)
(9.32327 -0.114032 0)
(9.22048 -0.115189 0)
(8.85401 -0.154004 0)
(10.0797 -0.803541 0)
(10.9229 -0.673391 0)
(11.1277 -0.355719 0)
(10.9071 -0.256604 0)
(10.5747 -0.208483 0)
(10.2265 -0.148524 0)
(9.99143 -0.130991 0)
(9.61242 -0.102393 0)
(9.502 -0.0715519 0)
(9.22118 -0.0667923 0)
(9.10842 -0.064151 0)
(8.88573 -0.0483937 0)
(8.86033 -0.0422021 0)
(8.58258 -0.0615823 0)
(8.57446 -0.0466665 0)
(8.33047 -0.0556563 0)
(8.26596 -0.0650258 0)
(7.98714 -0.0848239 0)
(7.86374 -0.0939366 0)
(7.52078 -0.0932349 0)
(10.1649 -0.946418 0)
(10.5693 -0.670937 0)
(10.2558 -0.329841 0)
(9.65296 -0.210258 0)
(9.10584 -0.150979 0)
(8.68516 -0.101836 0)
(8.38351 -0.086837 0)
(8.02115 -0.0676088 0)
(7.89189 -0.04636 0)
(7.63348 -0.0422826 0)
(7.51854 -0.0420535 0)
(7.3241 -0.0321541 0)
(7.2848 -0.02611 0)
(7.04613 -0.0416671 0)
(7.02363 -0.0318128 0)
(6.80664 -0.0370925 0)
(6.73805 -0.0442422 0)
(6.48329 -0.0590305 0)
(6.3594 -0.0647499 0)
(6.03353 -0.0597127 0)
(9.86067 -1.02137 0)
(9.3454 -0.578759 0)
(8.47155 -0.241067 0)
(7.64825 -0.129944 0)
(7.07686 -0.0838869 0)
(6.69616 -0.0547552 0)
(6.41845 -0.0463737 0)
(6.12556 -0.0369598 0)
(6.00871 -0.0243388 0)
(5.80497 -0.0215504 0)
(5.71065 -0.0232818 0)
(5.55509 -0.0178937 0)
(5.5185 -0.0127101 0)
(5.33436 -0.024295 0)
(5.30207 -0.0182771 0)
(5.12886 -0.0206906 0)
(5.06562 -0.0255282 0)
(4.85103 -0.035148 0)
(4.73817 -0.0381679 0)
(4.44541 -0.0343585 0)
(8.60131 -0.871632 0)
(6.95013 -0.384162 0)
(5.80805 -0.121682 0)
(5.0602 -0.0505814 0)
(4.6407 -0.0294487 0)
(4.37929 -0.0192428 0)
(4.18632 -0.0166187 0)
(3.99107 -0.0141855 0)
(3.90779 -0.00833115 0)
(3.77846 -0.00701325 0)
(3.71565 -0.00930997 0)
(3.60881 -0.00707736 0)
(3.58479 -0.00352758 0)
(3.46472 -0.0106042 0)
(3.43003 -0.00757668 0)
(3.31385 -0.00810336 0)
(3.26423 -0.0106119 0)
(3.10906 -0.0156177 0)
(3.01637 -0.0164283 0)
(2.79546 -0.0146357 0)
(5.32893 -0.309346 0)
(2.98588 -0.0607828 0)
(2.19413 0.00161328 0)
(1.84965 0.00375665 0)
(1.70179 0.00090843 0)
(1.61047 0.00039451 0)
(1.54148 0.000165303 0)
(1.46975 -0.000591075 0)
(1.4366 0.000377615 0)
(1.3954 0.000487962 0)
(1.37285 -0.000681018 0)
(1.32867 -0.000397166 0)
(1.32177 0.000888512 0)
(1.27855 -0.00122524 0)
(1.25564 -0.000388737 0)
(1.21055 -0.000242944 0)
(1.18756 -0.000577828 0)
(1.12016 -0.00156417 0)
(1.06936 -0.00136723 0)
(0.974329 0.00485081 0)
(1.4698 0.235877 0)
(2.28023 -0.196491 0)
(2.27107 -0.638109 0)
(2.54152 -0.910377 0)
(1.84464 -1.06187 0)
(2.09935 -0.930149 0)
(1.03812 -0.520005 0)
(0.940621 -0.331259 0)
(2.81047 0.248661 0)
(1.75812 1.83006 0)
(4.03291 2.00562 0)
(4.95808 1.94484 0)
(4.67445 2.23382 0)
(6.22358 1.84719 0)
(6.52362 1.74559 0)
(7.19604 1.59704 0)
(7.35752 1.45594 0)
(8.37937 0.935886 0)
(9.04182 0.476307 0)
(9.47742 -0.143066 0)
(10.2861 -1.06225 0)
(10.3293 -1.49174 0)
(10.554 -2.04272 0)
(10.472 -2.36863 0)
(10.6675 -2.7332 0)
(11.7274 -3.70613 0)
(12.6563 -4.65331 0)
(13.3734 -5.68115 0)
(13.5786 -6.56981 0)
(12.9072 -6.80737 0)
(12.3008 -6.90982 0)
(11.9143 -7.04235 0)
(11.2207 -6.90077 0)
(10.7667 -6.81539 0)
(10.4951 -6.94985 0)
(10.0652 -6.81887 0)
(9.55771 -6.62842 0)
(9.52391 -6.78151 0)
(9.71333 -7.20822 0)
(9.95187 -7.53604 0)
(9.86531 -7.6106 0)
(9.75147 -7.49448 0)
(10.0031 -7.50487 0)
(10.3438 -7.77431 0)
(10.904 -7.29762 0)
(11.1682 -6.67044 0)
(11.591 -5.83946 0)
(12.083 -4.41048 0)
(11.932 -3.33145 0)
(12.1958 -1.84583 0)
(12.4688 -0.236789 0)
(12.1009 0.92382 0)
(11.8107 2.20398 0)
(11.6591 3.45318 0)
(11.2747 4.29648 0)
(10.6016 4.95484 0)
(9.88521 5.29896 0)
(9.0911 4.86999 0)
(8.33229 4.42747 0)
(7.8898 4.65361 0)
(7.52237 4.75515 0)
(7.17475 4.05717 0)
(6.93699 3.30051 0)
(6.76764 3.41689 0)
(6.60291 4.16429 0)
(6.43406 4.57046 0)
(6.16113 4.09643 0)
(5.95113 3.19492 0)
(5.95879 2.54232 0)
(6.08298 2.53883 0)
(6.17159 3.13183 0)
(6.27381 4.07755 0)
(6.29846 4.69336 0)
(5.88639 4.55884 0)
(5.34151 4.27144 0)
(5.00158 4.24403 0)
(4.92643 4.60081 0)
(4.8624 5.24753 0)
(5.07219 5.83565 0)
(4.9001 6.24268 0)
(4.62813 6.29563 0)
(4.4126 6.05845 0)
(4.14984 5.36354 0)
(4.73447 3.50989 0)
(5.47628 1.33845 0)
(5.66085 -0.360327 0)
(5.74214 -1.89463 0)
(5.62987 -3.39999 0)
(5.42646 -4.61391 0)
(5.42819 -5.47584 0)
(5.43143 -6.53885 0)
(5.30865 -8.35342 0)
(4.93546 -9.78971 0)
(5.00549 -9.1244 0)
(5.14721 -7.60676 0)
(5.36194 -6.3257 0)
(5.38088 -5.91995 0)
(5.53483 -6.77047 0)
(5.87913 -7.18385 0)
(6.42167 -7.77994 0)
(6.84334 -8.54288 0)
(6.88997 -8.76498 0)
(7.22993 -8.59818 0)
(7.45487 -8.07613 0)
(7.38379 -8.10537 0)
(7.37112 -8.03383 0)
(7.44905 -7.15882 0)
(7.46028 -5.70201 0)
(7.38871 -4.1036 0)
(7.02039 -2.43329 0)
(6.72619 -0.668632 0)
(6.75948 0.981728 0)
(6.68729 2.39246 0)
(6.83128 3.88054 0)
(6.87807 5.32093 0)
(6.71085 6.22711 0)
(6.65394 6.71015 0)
(6.80302 7.51963 0)
(7.12477 9.21395 0)
(7.25567 10.8488 0)
(7.15084 11.2001 0)
(6.97419 10.0381 0)
(6.72347 8.26323 0)
(6.28962 6.54142 0)
(5.96783 5.47986 0)
(5.22784 5.47481 0)
(5.15259 5.55142 0)
(4.19858 6.41053 0)
(5.17421 5.45945 0)
(2.64097 5.55909 0)
(5.40253 4.7737 0)
(3.06664 4.77076 0)
(3.90531 3.25778 0)
(2.63214 3.64616 0)
(2.97967 2.34529 0)
(2.35093 2.94679 0)
(2.47244 1.29307 0)
(2.94596 1.5739 0)
(2.93806 0.171917 0)
(3.80124 0.932646 0)
(4.201 -0.0269633 0)
(5.06746 0.731553 0)
(5.26205 -0.00440337 0)
(6.15243 0.564407 0)
(6.30934 0.0130479 0)
(7.31345 0.791846 0)
(7.61377 0.464985 0)
(8.456 0.543451 0)
(8.80838 -0.0514867 0)
(9.60698 0.141543 0)
(9.59692 -0.725486 0)
(10.3533 -0.925096 0)
(10.165 -1.63213 0)
(10.5685 -1.89866 0)
(10.3132 -2.45446 0)
(10.4386 -2.80183 0)
(10.1895 -3.30545 0)
(10.4462 -3.44899 0)
(9.87999 -3.64403 0)
(9.72086 -4.04307 0)
(9.79039 -4.25129 0)
(9.62402 -4.37832 0)
(9.57853 -4.35759 0)
(9.61945 -4.12491 0)
(9.36901 -3.67325 0)
(9.37598 -3.34946 0)
(9.61973 -3.2796 0)
(10.0304 -3.08311 0)
(10.3588 -2.74179 0)
(10.5838 -2.47189 0)
(10.8933 -2.14535 0)
(10.9297 -1.53631 0)
(10.7529 -0.701975 0)
(10.2934 -0.218332 0)
(9.73436 -0.0319481 0)
(9.17903 0.196233 0)
(8.79983 0.520344 0)
(8.58851 0.82824 0)
(8.3133 1.05706 0)
(8.21458 1.2446 0)
(8.18022 1.30998 0)
(8.0239 1.3101 0)
(7.76601 1.43908 0)
(7.71628 1.52684 0)
(7.49137 1.67407 0)
(7.47926 1.99001 0)
(7.67069 2.37355 0)
(7.65847 2.79966 0)
(8.12548 3.23098 0)
(8.2191 3.65535 0)
(8.15394 3.89556 0)
(8.21555 4.13363 0)
(8.09134 4.47115 0)
(8.08112 4.79359 0)
(7.7199 5.21599 0)
(7.50543 5.59889 0)
(7.19619 6.32915 0)
(6.88846 7.28163 0)
(6.95364 8.07123 0)
(3.69602 11.148 0)
(3.26748 0.135835 0)
(3.97545 -0.203352 0)
(3.77272 -0.639721 0)
(4.30601 -0.82481 0)
(3.67839 -0.910793 0)
(3.79311 -0.884025 0)
(3.13617 -0.298781 0)
(2.73076 -0.340035 0)
(3.44454 0.0204433 0)
(2.33339 1.53151 0)
(4.60128 1.37793 0)
(5.52406 1.54452 0)
(5.30746 1.96636 0)
(6.6884 1.54261 0)
(7.16651 1.41726 0)
(7.9003 1.43639 0)
(8.00594 1.35142 0)
(9.10126 0.694669 0)
(9.5387 0.286803 0)
(10.1082 -0.382273 0)
(10.6578 -1.19257 0)
(10.4968 -1.48954 0)
(10.8325 -2.01865 0)
(11.1093 -2.42766 0)
(11.6639 -3.00677 0)
(12.762 -4.06034 0)
(13.5477 -4.94831 0)
(13.857 -5.82927 0)
(13.6371 -6.44777 0)
(12.905 -6.57072 0)
(12.399 -6.74347 0)
(11.9016 -6.82093 0)
(11.1566 -6.6419 0)
(10.7199 -6.65383 0)
(10.412 -6.80105 0)
(9.93931 -6.63657 0)
(9.53661 -6.54812 0)
(9.60402 -6.87625 0)
(9.72378 -7.29595 0)
(9.77335 -7.54183 0)
(9.57924 -7.55226 0)
(9.45022 -7.5346 0)
(9.6866 -7.64613 0)
(10.0579 -7.93603 0)
(10.524 -7.52682 0)
(10.7946 -6.81414 0)
(11.155 -5.97412 0)
(11.5999 -4.52186 0)
(11.4331 -3.33727 0)
(11.6422 -1.91236 0)
(11.9979 -0.257741 0)
(11.7697 1.02325 0)
(11.5072 2.31028 0)
(11.3459 3.55315 0)
(11.032 4.47578 0)
(10.4321 5.22342 0)
(9.76216 5.60351 0)
(8.98832 5.18441 0)
(8.2306 4.69448 0)
(7.79205 4.83047 0)
(7.43657 4.8855 0)
(7.09402 4.17677 0)
(6.8356 3.39394 0)
(6.69149 3.49194 0)
(6.54387 4.23394 0)
(6.38304 4.65171 0)
(6.12352 4.18474 0)
(5.92477 3.24047 0)
(5.95352 2.52176 0)
(6.10273 2.48502 0)
(6.22363 3.07499 0)
(6.33837 4.0435 0)
(6.40553 4.76941 0)
(6.06313 4.75183 0)
(5.49076 4.45401 0)
(5.06763 4.33808 0)
(4.90641 4.62596 0)
(4.88157 5.22334 0)
(4.98291 5.85689 0)
(4.75647 6.32962 0)
(4.71117 6.36737 0)
(4.42439 6.17662 0)
(4.26236 5.28499 0)
(4.96435 3.24451 0)
(5.57227 1.16654 0)
(5.67944 -0.416192 0)
(5.78558 -1.90543 0)
(5.73151 -3.35803 0)
(5.56039 -4.57574 0)
(5.54818 -5.45113 0)
(5.60623 -6.48402 0)
(5.51852 -8.25531 0)
(5.13278 -9.74752 0)
(5.1563 -9.19119 0)
(5.34085 -7.66441 0)
(5.398 -6.34356 0)
(5.46226 -5.95673 0)
(5.47401 -6.8382 0)
(5.7754 -7.36196 0)
(6.28612 -7.98454 0)
(6.59775 -8.58762 0)
(6.63008 -8.8387 0)
(7.00079 -8.7174 0)
(7.16129 -8.08671 0)
(7.02368 -8.08471 0)
(7.00042 -8.01494 0)
(7.07283 -7.13289 0)
(7.03484 -5.64642 0)
(6.87048 -3.97549 0)
(6.42879 -2.28523 0)
(6.1521 -0.60787 0)
(6.21097 0.995449 0)
(6.17283 2.39611 0)
(6.37819 3.86947 0)
(6.43372 5.33166 0)
(6.31845 6.24491 0)
(6.28039 6.71679 0)
(6.44709 7.49273 0)
(6.72302 9.1835 0)
(6.82604 10.8369 0)
(6.7926 11.2153 0)
(6.67345 10.0936 0)
(6.43884 8.36486 0)
(6.15905 6.73204 0)
(5.93823 5.66338 0)
(5.09554 5.72619 0)
(5.21371 5.68756 0)
(3.84138 6.50506 0)
(5.23687 5.63522 0)
(2.51388 5.56324 0)
(4.92485 4.69355 0)
(3.39612 5.04157 0)
(3.68083 3.4981 0)
(2.37837 3.80618 0)
(2.56342 2.39329 0)
(2.29231 3.04324 0)
(2.17112 1.13348 0)
(3.23601 1.50957 0)
(2.83547 -0.0558285 0)
(4.19037 0.68749 0)
(3.98205 -0.332103 0)
(5.51629 0.506465 0)
(5.27758 -0.257766 0)
(6.47261 0.405457 0)
(6.25725 -0.297622 0)
(7.61324 0.571945 0)
(7.41854 0.197481 0)
(8.72807 0.328176 0)
(8.71217 -0.295368 0)
(9.71293 -0.0136774 0)
(9.50955 -0.897935 0)
(10.4524 -0.956767 0)
(10.1009 -1.75414 0)
(10.595 -1.87787 0)
(10.2812 -2.49203 0)
(10.5496 -2.77467 0)
(10.3879 -3.33773 0)
(10.5586 -3.35761 0)
(9.87988 -3.52328 0)
(9.92451 -4.0128 0)
(10.0167 -4.24733 0)
(9.86659 -4.34832 0)
(9.80077 -4.32587 0)
(9.66717 -4.08793 0)
(9.49318 -3.65251 0)
(9.65084 -3.42687 0)
(9.96069 -3.41512 0)
(10.314 -3.22162 0)
(10.7272 -2.88181 0)
(11.0128 -2.58865 0)
(11.3015 -2.21129 0)
(11.2158 -1.51152 0)
(11.1283 -0.577939 0)
(10.6822 0.00762997 0)
(9.9657 0.225611 0)
(9.41237 0.395122 0)
(8.87632 0.661826 0)
(8.66888 0.939029 0)
(8.26269 1.16389 0)
(8.19758 1.25422 0)
(8.2886 1.33103 0)
(8.00305 1.41925 0)
(7.82735 1.45465 0)
(7.85435 1.59193 0)
(7.67201 1.73686 0)
(7.46534 1.96196 0)
(7.69289 2.35907 0)
(7.72721 2.69275 0)
(8.06491 3.12147 0)
(8.30115 3.62732 0)
(8.31919 3.89136 0)
(8.404 4.14266 0)
(8.27471 4.51029 0)
(8.34949 4.86158 0)
(8.12327 5.31856 0)
(7.93159 5.73124 0)
(7.63929 6.3853 0)
(7.27414 7.55102 0)
(8.40899 8.0599 0)
(5.28392 12.1194 0)
(5.01308 0.00738874 0)
(5.64699 -0.256091 0)
(5.41803 -0.629403 0)
(5.82636 -0.850941 0)
(5.46868 -0.830128 0)
(5.43752 -0.776757 0)
(4.97281 -0.266113 0)
(4.72276 -0.130537 0)
(5.00447 0.0861709 0)
(3.53447 1.16838 0)
(5.46765 1.02473 0)
(5.93861 1.36631 0)
(5.93994 1.66756 0)
(6.86662 1.20582 0)
(7.2329 1.01056 0)
(7.94642 1.11445 0)
(8.13505 1.02147 0)
(9.29665 0.354486 0)
(9.65427 0.0113075 0)
(10.311 -0.635767 0)
(10.7058 -1.24895 0)
(10.7442 -1.52083 0)
(11.4575 -2.18673 0)
(11.9977 -2.70373 0)
(12.6896 -3.36787 0)
(13.7199 -4.39737 0)
(14.1515 -5.1281 0)
(14.0562 -5.83849 0)
(13.6388 -6.24703 0)
(12.9107 -6.30431 0)
(12.4052 -6.5141 0)
(11.8134 -6.53431 0)
(11.0782 -6.37748 0)
(10.6866 -6.49739 0)
(10.4087 -6.65479 0)
(9.94183 -6.46793 0)
(9.56842 -6.4648 0)
(9.61091 -6.89665 0)
(9.65197 -7.31678 0)
(9.55851 -7.46717 0)
(9.28582 -7.48149 0)
(9.17303 -7.56932 0)
(9.32674 -7.78321 0)
(9.72103 -8.07434 0)
(10.0756 -7.71767 0)
(10.3428 -6.93917 0)
(10.6785 -6.03706 0)
(11.0124 -4.60338 0)
(10.8592 -3.34979 0)
(11.0354 -1.97313 0)
(11.4175 -0.320267 0)
(11.3195 1.08477 0)
(11.1344 2.40613 0)
(10.9903 3.64042 0)
(10.742 4.6294 0)
(10.222 5.45859 0)
(9.60131 5.87375 0)
(8.85036 5.47764 0)
(8.09942 4.95658 0)
(7.66851 5.01191 0)
(7.31757 5.02005 0)
(6.99494 4.29883 0)
(6.73806 3.48774 0)
(6.6058 3.55223 0)
(6.46457 4.29114 0)
(6.32092 4.72651 0)
(6.08631 4.26936 0)
(5.89786 3.28516 0)
(5.93943 2.49645 0)
(6.11111 2.42105 0)
(6.2753 3.01731 0)
(6.40816 4.00188 0)
(6.50762 4.81795 0)
(6.24671 4.93236 0)
(5.67533 4.66156 0)
(5.15401 4.48304 0)
(4.88136 4.6786 0)
(4.8416 5.23926 0)
(4.7951 5.91025 0)
(4.69839 6.35713 0)
(4.81095 6.43772 0)
(4.37585 6.29037 0)
(4.43009 5.1382 0)
(5.12658 2.98927 0)
(5.56336 1.04187 0)
(5.65908 -0.472757 0)
(5.83075 -1.92774 0)
(5.83751 -3.3336 0)
(5.69759 -4.54526 0)
(5.66106 -5.45013 0)
(5.75813 -6.46158 0)
(5.70492 -8.18222 0)
(5.3362 -9.70031 0)
(5.3137 -9.26258 0)
(5.5143 -7.69516 0)
(5.43886 -6.33471 0)
(5.55221 -5.9873 0)
(5.39739 -6.85979 0)
(5.68942 -7.52207 0)
(6.0929 -8.16334 0)
(6.32242 -8.62654 0)
(6.34197 -8.94305 0)
(6.6734 -8.82638 0)
(6.73236 -8.09727 0)
(6.56034 -8.07184 0)
(6.57077 -7.99883 0)
(6.6656 -7.1054 0)
(6.58821 -5.56333 0)
(6.35536 -3.8204 0)
(5.87823 -2.14161 0)
(5.64122 -0.571354 0)
(5.7124 0.941403 0)
(5.72481 2.32213 0)
(5.95681 3.80517 0)
(5.97643 5.32398 0)
(5.90383 6.26637 0)
(5.8967 6.70628 0)
(6.12714 7.42381 0)
(6.37508 9.08926 0)
(6.43539 10.7621 0)
(6.4291 11.1786 0)
(6.37982 10.1608 0)
(6.1713 8.43191 0)
(5.95802 6.87898 0)
(5.89203 5.83926 0)
(4.97958 5.9636 0)
(5.20025 5.83499 0)
(3.62441 6.62183 0)
(5.23861 5.81004 0)
(2.35916 5.65242 0)
(4.48468 4.62246 0)
(3.16888 5.24389 0)
(3.51259 3.76663 0)
(2.29741 4.07333 0)
(2.1225 2.43867 0)
(2.5832 3.12232 0)
(1.94999 0.947076 0)
(3.7056 1.36958 0)
(2.96906 -0.264366 0)
(4.74478 0.471762 0)
(4.13028 -0.624344 0)
(6.16552 0.268065 0)
(5.37171 -0.495033 0)
(7.04204 0.238965 0)
(6.2441 -0.570211 0)
(7.89057 0.401687 0)
(7.23341 -0.0923375 0)
(9.10061 0.0981226 0)
(8.54821 -0.513504 0)
(9.86018 -0.178116 0)
(9.3699 -1.06461 0)
(10.6003 -1.03486 0)
(9.97052 -1.90722 0)
(10.6948 -1.85608 0)
(10.3264 -2.53224 0)
(10.7796 -2.76355 0)