/*--------------------------------*- C++ -*----------------------------------*\
| =========                 |                                                 |
| \\      /  F ield         | OpenFOAM: The Open Source CFD Toolbox           |
|  \\    /   O peration     | Version:  2.4.0                                 |
|   \\  /    A nd           | Web:      www.OpenFOAM.org                      |
|    \\/     M anipulation  |                                                 |
\*---------------------------------------------------------------------------*/
FoamFile
{
    version     2.0;
    format      ascii;
    class       volScalarField;
    location    "0.066";
    object      nut;
}
// * * * * * * * * * * * * * * * * * * * * * * * * * * * * * * * * * * * * * //

dimensions      [0 2 -1 0 0 0 0];

internalField   nonuniform List<scalar> 
17600
(
0.00010783
0.00012451
0.000135993
0.000143228
0.000147274
0.000149057
0.000149311
0.000148581
0.000147257
0.000145609
0.000143819
0.000142007
0.000140254
0.000138609
0.000137102
0.00013575
0.000134557
0.000133522
0.000132622
0.000131999
0.000329173
0.000212655
0.000162185
0.00013586
0.000121229
0.000113025
0.000108733
0.000107059
0.000107297
0.000109044
0.000112053
0.000116155
0.000121216
0.000127109
0.000133698
0.000140832
0.000148345
0.00015606
0.000163858
0.000169532
0.000659514
0.000505622
0.000400841
0.000328641
0.000277966
0.000241566
0.000214856
0.000194963
0.000180061
0.000168963
0.00016088
0.000155282
0.000151804
0.000150191
0.000150253
0.000151841
0.000154821
0.000159056
0.000164365
0.000169666
0.000798066
0.000719144
0.00063947
0.000568171
0.000507729
0.000457532
0.000415973
0.000381395
0.000352386
0.000327824
0.000306848
0.000288811
0.000273239
0.00025979
0.000248231
0.000238406
0.000230215
0.000223586
0.000218358
0.000213806
0.000836034
0.000805282
0.000764927
0.000720395
0.00067586
0.000633741
0.000595094
0.000560169
0.000528805
0.000500655
0.000475318
0.0004524
0.000431543
0.00041244
0.000394839
0.000378539
0.000363388
0.000349266
0.000335963
0.000322992
0.000845497
0.000833333
0.000815252
0.00079227
0.0007661
0.00073842
0.000710527
0.000683286
0.000657208
0.000632544
0.000609371
0.000587658
0.000567312
0.000548206
0.000530203
0.000513162
0.000496949
0.000481426
0.000466382
0.000451538
0.000847815
0.000841759
0.000833143
0.000821665
0.000807553
0.000791359
0.000773738
0.000755308
0.000736577
0.00071793
0.000699633
0.000681855
0.000664689
0.000648173
0.000632303
0.00061705
0.000602362
0.000588168
0.000574342
0.00056078
0.000848382
0.000844198
0.000839116
0.000832753
0.00082492
0.000815628
0.000805039
0.000793399
0.000780981
0.000768051
0.000754838
0.000741534
0.000728281
0.000715187
0.000702323
0.00068973
0.000677427
0.000665409
0.000653636
0.000642115
0.00084852
0.000844889
0.000841035
0.000836725
0.000831764
0.000826029
0.000819477
0.000812137
0.00080409
0.00079545
0.000786341
0.000776887
0.000767202
0.000757386
0.000747519
0.000737666
0.000727875
0.000718176
0.000708579
0.00069915
0.000848553
0.000845082
0.000841635
0.000838096
0.000834345
0.000830269
0.000825787
0.000820851
0.000815449
0.000809598
0.000803336
0.000796716
0.000789798
0.000782644
0.000775313
0.000767857
0.000760323
0.000752749
0.000745164
0.000737652
0.00084856
0.000845133
0.000841817
0.000838556
0.000835284
0.000831931
0.000828429
0.000824725
0.000820777
0.000816564
0.000812078
0.000807326
0.000802327
0.000797104
0.000791688
0.00078611
0.000780399
0.000774586
0.000768698
0.000762817
0.00084856
0.000845146
0.000841871
0.000838706
0.000835616
0.000832561
0.000829497
0.000826382
0.000823178
0.000819856
0.000816392
0.000812773
0.000808994
0.000805056
0.000800965
0.000796734
0.000792376
0.000787907
0.000783347
0.000778764
0.00084856
0.000845148
0.000841885
0.000838752
0.000835729
0.000832792
0.000829914
0.000827067
0.000824224
0.000821357
0.000818445
0.000815468
0.000812413
0.00080927
0.000806034
0.000802703
0.00079928
0.000795768
0.000792178
0.000788567
0.000848559
0.000845147
0.000841887
0.000838765
0.000835766
0.000832874
0.000830072
0.000827342
0.000824664
0.000822019
0.00081939
0.000816758
0.000814109
0.00081143
0.000808712
0.000805948
0.000803132
0.000800262
0.00079734
0.000794414
0.000848558
0.000845146
0.000841887
0.000838767
0.000835776
0.000832901
0.000830129
0.000827448
0.000824844
0.000822303
0.000819811
0.000817356
0.000814923
0.000812503
0.000810084
0.000807657
0.000805215
0.000802753
0.000800269
0.000797801
0.000848557
0.000845145
0.000841885
0.000838767
0.000835778
0.000832908
0.000830148
0.000827487
0.000824914
0.00082242
0.000819993
0.000817625
0.000815304
0.00081302
0.000810766
0.000808532
0.00080631
0.000804095
0.000801882
0.000799708
0.000848557
0.000845144
0.000841884
0.000838765
0.000835777
0.00083291
0.000830154
0.0008275
0.00082494
0.000822466
0.00082007
0.000817742
0.000815476
0.000813263
0.000811095
0.000808966
0.000806869
0.000804797
0.000802747
0.000800751
0.000848557
0.000845143
0.000841883
0.000838764
0.000835776
0.000832909
0.000830154
0.000827504
0.000824949
0.000822484
0.0008201
0.000817791
0.000815551
0.000813372
0.000811249
0.000809176
0.000807145
0.000805153
0.000803194
0.000801302
0.000848556
0.000845143
0.000841883
0.000838763
0.000835775
0.000832908
0.000830154
0.000827504
0.000824952
0.000822489
0.000820111
0.000817811
0.000815582
0.00081342
0.000811318
0.000809271
0.000807275
0.000805323
0.000803412
0.000801576
0.000848556
0.000845143
0.000841882
0.000838763
0.000835774
0.000832908
0.000830153
0.000827504
0.000824952
0.000822491
0.000820115
0.000817817
0.000815593
0.000813437
0.000811344
0.000809308
0.000807325
0.00080539
0.0008035
0.000801688
0.000848556
0.000845143
0.000841882
0.000838763
0.000835774
0.000832908
0.000830153
0.000827504
0.000824952
0.000822491
0.000820115
0.000817817
0.000815593
0.000813437
0.000811344
0.000809308
0.000807325
0.00080539
0.0008035
0.000801687
0.000848556
0.000845143
0.000841883
0.000838763
0.000835775
0.000832908
0.000830154
0.000827504
0.000824952
0.000822489
0.000820111
0.000817811
0.000815582
0.00081342
0.000811318
0.000809271
0.000807274
0.000805322
0.000803411
0.000801572
0.000848557
0.000845143
0.000841883
0.000838764
0.000835776
0.000832909
0.000830154
0.000827504
0.000824949
0.000822484
0.0008201
0.000817791
0.000815551
0.000813372
0.000811249
0.000809176
0.000807145
0.000805152
0.000803192
0.000801296
0.000848557
0.000845144
0.000841884
0.000838765
0.000835777
0.00083291
0.000830154
0.0008275
0.00082494
0.000822466
0.00082007
0.000817742
0.000815476
0.000813263
0.000811095
0.000808966
0.000806869
0.000804796
0.000802743
0.000800742
0.000848557
0.000845145
0.000841885
0.000838767
0.000835778
0.000832908
0.000830148
0.000827487
0.000824914
0.00082242
0.000819993
0.000817625
0.000815304
0.00081302
0.000810766
0.000808532
0.00080631
0.000804094
0.000801878
0.000799697
0.000848558
0.000845146
0.000841887
0.000838767
0.000835776
0.000832901
0.000830129
0.000827448
0.000824844
0.000822303
0.000819811
0.000817356
0.000814923
0.000812503
0.000810084
0.000807657
0.000805215
0.000802752
0.000800264
0.000797788
0.000848559
0.000845147
0.000841887
0.000838765
0.000835766
0.000832874
0.000830072
0.000827342
0.000824664
0.000822019
0.00081939
0.000816758
0.000814109
0.00081143
0.000808712
0.000805948
0.000803132
0.000800261
0.000797336
0.0007944
0.00084856
0.000845148
0.000841885
0.000838752
0.000835729
0.000832792
0.000829914
0.000827067
0.000824224
0.000821357
0.000818445
0.000815468
0.000812413
0.00080927
0.000806034
0.000802704
0.00079928
0.000795769
0.000792176
0.000788557
0.00084856
0.000845146
0.000841871
0.000838706
0.000835616
0.000832561
0.000829497
0.000826382
0.000823178
0.000819856
0.000816392
0.000812773
0.000808994
0.000805056
0.000800966
0.000796735
0.000792377
0.00078791
0.000783349
0.000778768
0.00084856
0.000845133
0.000841817
0.000838556
0.000835284
0.000831931
0.000828429
0.000824725
0.000820777
0.000816564
0.000812078
0.000807326
0.000802327
0.000797105
0.000791689
0.000786111
0.000780402
0.000774592
0.00076871
0.000762851
0.000848553
0.000845082
0.000841635
0.000838096
0.000834345
0.000830269
0.000825787
0.000820851
0.000815449
0.000809598
0.000803336
0.000796716
0.000789798
0.000782645
0.000775313
0.000767859
0.000760328
0.000752762
0.000745194
0.000737749
0.00084852
0.000844889
0.000841035
0.000836725
0.000831764
0.000826029
0.000819477
0.000812137
0.00080409
0.00079545
0.000786341
0.000776887
0.000767202
0.000757386
0.00074752
0.000737669
0.000727882
0.000718198
0.000708642
0.000699366
0.000848382
0.000844198
0.000839116
0.000832753
0.00082492
0.000815628
0.000805039
0.000793399
0.000780981
0.00076805
0.000754838
0.000741534
0.000728282
0.000715188
0.000702324
0.000689734
0.000677439
0.000665447
0.000653756
0.000642549
0.000847815
0.000841759
0.000833143
0.000821665
0.000807553
0.000791359
0.000773738
0.000755308
0.000736577
0.00071793
0.000699633
0.000681855
0.000664689
0.000648174
0.000632306
0.000617056
0.00060238
0.000588228
0.000574553
0.0005616
0.000845497
0.000833333
0.000815252
0.00079227
0.0007661
0.00073842
0.000710527
0.000683286
0.000657208
0.000632544
0.000609371
0.000587658
0.000567312
0.000548207
0.000530206
0.00051317
0.000496974
0.000481514
0.000466718
0.000452953
0.000836034
0.000805282
0.000764927
0.000720394
0.00067586
0.000633741
0.000595094
0.000560169
0.000528804
0.000500655
0.000475318
0.0004524
0.000431543
0.000412441
0.000394842
0.000378548
0.000363417
0.000349369
0.000336383
0.000324953
0.000798066
0.000719144
0.00063947
0.00056817
0.000507728
0.000457532
0.000415973
0.000381395
0.000352385
0.000327824
0.000306848
0.000288811
0.000273239
0.000259791
0.000248233
0.000238412
0.000230235
0.000223656
0.00021865
0.000215524
0.000659514
0.000505622
0.000400841
0.000328641
0.000277966
0.000241566
0.000214855
0.000194963
0.000180061
0.000168962
0.00016088
0.000155282
0.000151804
0.000150191
0.000150254
0.000151843
0.000154827
0.000159076
0.000164445
0.00017092
0.000329173
0.000212655
0.000162185
0.00013586
0.000121229
0.000113025
0.000108733
0.000107059
0.000107297
0.000109044
0.000112053
0.000116155
0.000121216
0.000127109
0.000133698
0.000140833
0.000148348
0.000156075
0.00016384
0.000171612
0.00010783
0.00012451
0.000135993
0.000143228
0.000147274
0.000149057
0.000149311
0.000148581
0.000147257
0.000145609
0.000143819
0.000142007
0.000140254
0.000138609
0.000137102
0.00013575
0.000134559
0.000133526
0.000132647
0.000131885
0.000169847
0.000217949
0.000272779
0.000331688
0.00039153
0.000450112
0.000506567
0.000560955
0.000613789
0.000665675
0.000717105
0.000768392
0.000819706
0.000871145
0.000922799
0.000974756
0.00102711
0.00107994
0.00113334
0.00118737
0.00124211
0.00129762
0.00135396
0.00141119
0.00146937
0.00152857
0.00158884
0.00165023
0.00171279
0.00177656
0.00184156
0.00190782
0.00197535
0.00204415
0.00211421
0.00218551
0.00225803
0.00233174
0.00240657
0.00248248
0.0025594
0.00263726
0.00271598
0.00279547
0.00287564
0.00295639
0.00303762
0.0031192
0.00320102
0.00328295
0.00336484
0.00344656
0.00352793
0.00360879
0.00368898
0.0037683
0.00384657
0.00392358
0.00399914
0.00407304
0.00414508
0.00421504
0.00428272
0.00434794
0.00441049
0.0044702
0.0045269
0.00458045
0.00463072
0.00467759
0.00472097
0.00476082
0.00479708
0.00482976
0.00485889
0.0048845
0.0049067
0.00492559
0.00494132
0.00495409
0.00496409
0.00497158
0.00497683
0.00498016
0.00498192
0.00498247
0.00498225
0.0049817
0.00498131
0.00498163
0.00498324
0.00498676
0.00499291
0.00500243
0.00501617
0.00503504
0.00506005
0.00509232
0.00513308
0.00518367
0.00524555
0.0053203
0.00540959
0.00551515
0.00563869
0.00578187
0.00594615
0.00613266
0.00634207
0.00657446
0.00682916
0.00710468
0.00739869
0.00770808
0.0080291
0.00835749
0.00868879
0.00901852
0.00934241
0.00965662
0.00995783
0.0102433
0.010511
0.0107594
0.0109876
0.0111953
0.0113825
0.0115494
0.0116969
0.0118256
0.0119365
0.0120308
0.0121094
0.0121734
0.0122241
0.0122622
0.012289
0.0123053
0.0123121
0.0123102
0.0123005
0.0122836
0.0122603
0.0122311
0.0121966
0.0121573
0.0121137
0.0120663
0.0120153
0.0119612
0.0119043
0.0118448
0.0117832
0.0117196
0.0116543
0.0115875
0.0115195
0.0114504
0.0113805
0.0113099
0.0112389
0.0111676
0.0110962
0.0110249
0.0109539
0.0108833
0.0108135
0.0107444
0.0106764
0.0106098
0.0105446
0.0104811
0.0104197
0.0103606
0.0103042
0.0102507
0.0102006
0.0101545
0.0101127
0.0100759
0.010045
0.0100208
0.0100045
0.00999763
0.010002
0.0100203
0.010056
0.0101135
0.0101989
0.0103189
0.0104798
0.0106833
0.0109183
0.0111469
0.0112855
0.0111812
0.0105835
0.00910833
0.00626007
0.00126724
0.000174613
0.000183839
0.000198638
0.00022026
0.000249075
0.00028474
0.000326274
0.000372291
0.000421281
0.000471865
0.000522999
0.000574043
0.000624738
0.000675101
0.000725298
0.000775533
0.000825974
0.000876724
0.000927829
0.000979312
0.00103119
0.00108351
0.00113632
0.00118969
0.0012437
0.00129841
0.00135389
0.00141019
0.00146737
0.00152547
0.00158453
0.00164457
0.00170565
0.00176777
0.00183096
0.00189523
0.00196057
0.00202697
0.00209443
0.0021629
0.00223235
0.00230274
0.00237402
0.00244613
0.00251901
0.00259257
0.00266673
0.00274141
0.00281651
0.0028919
0.00296748
0.00304312
0.00311868
0.00319401
0.00326894
0.00334332
0.00341697
0.0034897
0.00356132
0.00363163
0.00370044
0.00376754
0.00383273
0.00389581
0.00395658
0.00401488
0.00407051
0.00412333
0.00417318
0.00421994
0.00426351
0.00430381
0.00434078
0.00437439
0.00440465
0.00443157
0.00445521
0.00447568
0.00449308
0.00450757
0.00451933
0.00452857
0.00453554
0.00454052
0.00454383
0.00454579
0.00454679
0.00454725
0.0045476
0.00454835
0.00455002
0.00455319
0.00455851
0.00456666
0.00457841
0.00459461
0.0046162
0.0046442
0.00467976
0.00472417
0.00477881
0.00484523
0.0049251
0.00502017
0.00513229
0.00526328
0.00541488
0.00558862
0.00578565
0.00600661
0.00625143
0.00651925
0.00680833
0.00711601
0.00743884
0.00777274
0.00811316
0.0084554
0.00879485
0.00912717
0.00944852
0.00975565
0.0100459
0.0103175
0.0105689
0.0107996
0.0110091
0.0111977
0.0113659
0.0115143
0.011644
0.0117557
0.0118508
0.0119303
0.0119952
0.0120468
0.0120859
0.0121138
0.0121313
0.0121394
0.0121389
0.0121305
0.0121151
0.0120933
0.0120656
0.0120327
0.011995
0.011953
0.0119071
0.0118577
0.0118053
0.01175
0.0116923
0.0116323
0.0115705
0.011507
0.011442
0.0113759
0.0113087
0.0112408
0.0111723
0.0111034
0.0110344
0.0109653
0.0108965
0.010828
0.0107602
0.0106931
0.0106271
0.0105623
0.010499
0.0104374
0.0103779
0.0103207
0.0102661
0.0102145
0.0101663
0.0101221
0.0100823
0.0100476
0.0100187
0.00999672
0.00998271
0.0099782
0.00998515
0.0100062
0.0100448
0.0101056
0.0101947
0.0103192
0.0104859
0.0106971
0.0109429
0.011187
0.0113472
0.0112738
0.0107221
0.00933888
0.00666975
0.00209375
0.000171571
0.000173855
0.000176898
0.000181232
0.000187363
0.00019611
0.000208349
0.000224878
0.000246317
0.000272983
0.000304846
0.00034153
0.000382375
0.000426545
0.000473147
0.000521354
0.000570495
0.000620106
0.000669926
0.000719868
0.000769958
0.000820282
0.000870935
0.000921997
0.000973522
0.00102554
0.00107806
0.00113112
0.00118473
0.00123894
0.00129379
0.00134933
0.00140561
0.00146266
0.00152053
0.00157923
0.0016388
0.00169923
0.00176053
0.00182271
0.00188575
0.00194965
0.00201437
0.00207989
0.00214617
0.00221316
0.00228081
0.00234905
0.0024178
0.00248699
0.00255652
0.00262628
0.00269616
0.00276603
0.00283575
0.00290518
0.00297416
0.00304252
0.00311009
0.00317668
0.0032421
0.00330616
0.00336866
0.00342942
0.00348823
0.00354492
0.0035993
0.00365121
0.00370049
0.00374702
0.00379065
0.00383131
0.00386892
0.00390342
0.00393479
0.00396303
0.00398819
0.00401031
0.00402949
0.00404585
0.00405955
0.00407076
0.0040797
0.00408662
0.00409178
0.0040955
0.00409811
0.00409998
0.00410151
0.00410316
0.00410539
0.00410874
0.00411379
0.00412115
0.00413153
0.00414569
0.00416448
0.00418884
0.00421984
0.00425865
0.00430659
0.00436511
0.00443584
0.00452053
0.00462104
0.00473934
0.00487738
0.00503698
0.00521975
0.00542687
0.00565893
0.00591574
0.00619625
0.00649841
0.00681927
0.00715503
0.00750126
0.00785316
0.00820582
0.00855449
0.00889478
0.00922288
0.00953562
0.00983051
0.0101058
0.0103602
0.0105932
0.0108047
0.0109949
0.0111645
0.0113141
0.0114448
0.0115577
0.0116539
0.0117345
0.0118006
0.0118534
0.0118939
0.0119232
0.0119423
0.0119519
0.011953
0.0119464
0.0119327
0.0119126
0.0118867
0.0118555
0.0118196
0.0117794
0.0117354
0.0116879
0.0116374
0.011584
0.0115282
0.0114703
0.0114104
0.011349
0.0112861
0.0112221
0.0111572
0.0110916
0.0110254
0.010959
0.0108925
0.0108261
0.01076
0.0106944
0.0106296
0.0105657
0.0105031
0.0104419
0.0103824
0.0103249
0.0102697
0.0102171
0.0101676
0.0101215
0.0100793
0.0100416
0.010009
0.00998232
0.00996254
0.00995082
0.00994868
0.00995809
0.00998168
0.010023
0.0100866
0.0101788
0.0103067
0.0104775
0.0106944
0.0109484
0.0112049
0.0113846
0.0113426
0.0108459
0.00957567
0.00713651
0.00313134
0.000212818
0.000212035
0.000211448
0.000211074
0.000210884
0.000210913
0.000211235
0.000212009
0.000213632
0.000216637
0.000221671
0.000229444
0.00024065
0.000255884
0.00027557
0.000299918
0.000328904
0.000362279
0.000399599
0.000440286
0.000483689
0.000529165
0.000576136
0.000624137
0.000672838
0.000722037
0.000771641
0.000821633
0.000872042
0.000922914
0.000974294
0.00102622
0.0010787
0.00113177
0.00118544
0.00123972
0.00129462
0.00135018
0.0014064
0.00146331
0.00152093
0.00157925
0.00163828
0.00169802
0.00175845
0.00181955
0.00188129
0.00194363
0.00200652
0.0020699
0.00213371
0.00219787
0.00226229
0.00232687
0.00239149
0.00245604
0.00252037
0.00258434
0.00264779
0.00271056
0.00277247
0.00283334
0.002893
0.00295125
0.00300791
0.0030628
0.00311574
0.00316655
0.00321509
0.00326119
0.00330475
0.00334564
0.00338377
0.00341907
0.0034515
0.00348104
0.0035077
0.00353151
0.00355254
0.00357088
0.00358666
0.00360002
0.00361114
0.00362024
0.00362755
0.00363334
0.00363792
0.0036416
0.00364476
0.00364779
0.00365111
0.00365519
0.00366056
0.00366778
0.00367746
0.00369029
0.00370704
0.00372856
0.00375579
0.00378982
0.00383185
0.00388324
0.00394552
0.00402038
0.00410968
0.0042154
0.00433963
0.00448446
0.00465183
0.00484343
0.00506047
0.00530347
0.00557213
0.00586514
0.00618018
0.00651394
0.00686226
0.00722039
0.00758326
0.00794575
0.00830302
0.00865067
0.00898491
0.00930269
0.00960165
0.00988015
0.0101372
0.0103722
0.0105854
0.010777
0.0109477
0.0110985
0.0112303
0.0113442
0.0114415
0.0115232
0.0115906
0.0116449
0.0116869
0.0117178
0.0117385
0.0117499
0.0117527
0.0117479
0.011736
0.0117178
0.0116938
0.0116646
0.0116307
0.0115925
0.0115505
0.011505
0.0114565
0.0114053
0.0113517
0.0112959
0.0112383
0.0111791
0.0111186
0.011057
0.0109945
0.0109314
0.0108678
0.0108041
0.0107404
0.0106769
0.0106139
0.0105515
0.0104901
0.0104297
0.0103708
0.0103136
0.0102583
0.0102053
0.0101549
0.0101075
0.0100635
0.0100235
0.00998797
0.00995758
0.00993313
0.00991559
0.00990613
0.00990629
0.00991802
0.00994395
0.00998755
0.0100535
0.010148
0.0102782
0.0104517
0.010672
0.0109314
0.0111975
0.0113945
0.0113846
0.010951
0.00981002
0.00764377
0.0042695
0.000319399
0.000316048
0.000312928
0.000310037
0.000307311
0.000304674
0.00030205
0.000299356
0.000296465
0.000293305
0.000289881
0.000286264
0.000282627
0.000279267
0.000276617
0.000275227
0.000275734
0.000278795
0.00028503
0.000294963
0.000308978
0.000327295
0.000349962
0.000376863
0.00040773
0.00044218
0.00047975
0.000519946
0.000562279
0.00060631
0.000651669
0.000698072
0.00074532
0.000793286
0.000841902
0.000891141
0.000940997
0.000991478
0.00104259
0.00109434
0.00114673
0.00119976
0.00125343
0.00130773
0.00136266
0.0014182
0.00147434
0.00153107
0.00158836
0.00164617
0.00170446
0.00176317
0.00182225
0.00188161
0.00194117
0.00200082
0.00206046
0.00211995
0.00217918
0.00223798
0.00229621
0.00235371
0.00241031
0.00246584
0.00252011
0.00257296
0.00262421
0.00267369
0.00272125
0.00276673
0.00280999
0.00285092
0.00288941
0.00292538
0.00295876
0.00298952
0.00301764
0.00304313
0.00306603
0.00308641
0.00310435
0.00311998
0.00313346
0.00314494
0.00315465
0.00316281
0.00316967
0.00317554
0.00318072
0.00318556
0.00319045
0.0031958
0.00320206
0.00320973
0.00321937
0.00323157
0.00324701
0.00326644
0.00329071
0.00332078
0.00335774
0.00340282
0.00345743
0.00352315
0.00360178
0.00369527
0.00380575
0.00393545
0.00408661
0.00426132
0.00446135
0.00468794
0.00494157
0.00522176
0.00552697
0.00585454
0.00620079
0.00656119
0.00693066
0.00730387
0.00767553
0.0080407
0.00839502
0.00873475
0.00905697
0.00935945
0.00964072
0.00989991
0.0101367
0.0103513
0.010544
0.0107158
0.0108676
0.0110004
0.0111154
0.0112139
0.0112969
0.0113658
0.0114216
0.0114653
0.0114979
0.0115203
0.0115335
0.0115383
0.0115354
0.0115255
0.0115093
0.0114874
0.0114603
0.0114285
0.0113925
0.0113527
0.0113095
0.0112632
0.0112143
0.011163
0.0111096
0.0110544
0.0109977
0.0109398
0.0108808
0.010821
0.0107606
0.0107
0.0106392
0.0105786
0.0105183
0.0104586
0.0103998
0.010342
0.0102856
0.0102308
0.0101779
0.0101272
0.0100791
0.010034
0.00999234
0.00995457
0.00992128
0.00989314
0.00987094
0.00985564
0.00984842
0.0098508
0.00986473
0.00989277
0.00993838
0.0100062
0.0101022
0.0102337
0.0104082
0.0106299
0.0108922
0.0111649
0.0113772
0.0113997
0.0110345
0.0100334
0.00815735
0.00539748
0.000447205
0.000443069
0.000439111
0.000435343
0.000431746
0.000428285
0.000424923
0.000421618
0.000418318
0.000414918
0.000411343
0.000407518
0.000403361
0.000398789
0.000393734
0.000388152
0.000382049
0.000375501
0.000368679
0.000361863
0.000355447
0.000349922
0.000345847
0.000343804
0.000344351
0.00034798
0.00035508
0.000365921
0.000380643
0.00039926
0.000421671
0.000447675
0.000476996
0.000509309
0.00054426
0.000581498
0.000620692
0.000661552
0.000703829
0.000747329
0.000791903
0.000837441
0.000883868
0.00093113
0.000979189
0.00102801
0.00107758
0.00112785
0.0011788
0.00123038
0.00128257
0.00133531
0.00138854
0.0014422
0.00149622
0.00155052
0.00160501
0.00165958
0.00171412
0.00176851
0.00182261
0.00187627
0.00192935
0.00198169
0.00203312
0.00208349
0.00213261
0.00218034
0.00222652
0.00227098
0.0023136
0.00235423
0.00239278
0.00242914
0.00246323
0.00249499
0.0025244
0.00255144
0.00257612
0.00259849
0.00261859
0.00263654
0.00265244
0.00266644
0.0026787
0.00268943
0.00269883
0.00270716
0.0027147
0.00272173
0.0027286
0.00273567
0.00274332
0.00275199
0.00276216
0.00277436
0.00278916
0.00280722
0.00282928
0.00285619
0.00288888
0.00292847
0.00297621
0.00303356
0.00310216
0.0031839
0.00328087
0.00339535
0.00352975
0.00368647
0.00386778
0.00407555
0.00431108
0.00457476
0.00486596
0.00518285
0.00552241
0.00588056
0.0062524
0.0066325
0.00701529
0.00739534
0.00776766
0.00812789
0.00847243
0.00879845
0.00910392
0.00938749
0.00964846
0.00988666
0.0101023
0.0102961
0.0104689
0.0106216
0.0107554
0.0108716
0.0109714
0.011056
0.0111265
0.0111839
0.0112293
0.0112637
0.0112881
0.0113033
0.0113101
0.0113093
0.0113015
0.0112875
0.0112678
0.011243
0.0112135
0.0111798
0.0111424
0.0111016
0.0110578
0.0110114
0.0109627
0.0109119
0.0108594
0.0108054
0.0107502
0.010694
0.0106372
0.0105799
0.0105224
0.0104648
0.0104076
0.0103508
0.0102948
0.0102398
0.010186
0.0101338
0.0100835
0.0100353
0.00998968
0.009947
0.00990771
0.0098723
0.00984135
0.00981552
0.0097956
0.00978255
0.00977755
0.00978209
0.00979808
0.00982804
0.00987534
0.00994448
0.0100414
0.0101731
0.0103473
0.0105684
0.0108311
0.0111079
0.011333
0.0113876
0.0110933
0.0102362
0.00864599
0.0064268
0.000556745
0.000552865
0.000549104
0.000545471
0.000541964
0.000538568
0.000535273
0.000532066
0.000528931
0.000525833
0.000522737
0.000519617
0.000516439
0.000513163
0.000509739
0.000506112
0.000502217
0.000497982
0.000493334
0.000488203
0.000482531
0.000476282
0.000469456
0.000462105
0.000454348
0.000446377
0.000438469
0.000430976
0.000424313
0.000418928
0.000415279
0.000413799
0.00041487
0.000418801
0.000425819
0.000436061
0.000449578
0.000466341
0.000486257
0.000509175
0.000534906
0.000563238
0.000593946
0.000626805
0.000661602
0.000698141
0.000736246
0.000775763
0.000816559
0.00085852
0.000901543
0.000945539
0.000990421
0.00103611
0.00108251
0.00112954
0.0011771
0.0012251
0.00127342
0.00132194
0.00137054
0.00141907
0.00146741
0.0015154
0.00156289
0.00160972
0.00165573
0.00170076
0.00174466
0.00178727
0.00182845
0.00186806
0.00190599
0.00194211
0.00197635
0.00200861
0.00203886
0.00206705
0.00209317
0.00211724
0.00213928
0.00215937
0.00217758
0.00219402
0.00220883
0.00222216
0.00223419
0.00224513
0.0022552
0.00226466
0.00227379
0.00228289
0.0022923
0.00230239
0.00231355
0.00232624
0.00234095
0.00235824
0.00237874
0.00240315
0.0024323
0.00246714
0.00250876
0.00255844
0.00261769
0.00268822
0.00277202
0.00287133
0.00298861
0.00312647
0.00328753
0.00347426
0.00368868
0.00393214
0.00420496
0.00450633
0.00483409
0.00518484
0.00555408
0.0059365
0.00632635
0.00671783
0.00710538
0.00748399
0.00784935
0.00819797
0.00852716
0.00883505
0.00912046
0.00938283
0.00962214
0.00983876
0.0100334
0.010207
0.0103608
0.0104958
0.0106134
0.0107147
0.0108009
0.010873
0.0109322
0.0109795
0.0110159
0.0110423
0.0110596
0.0110686
0.01107
0.0110646
0.0110529
0.0110356
0.0110132
0.0109862
0.0109551
0.0109202
0.010882
0.0108409
0.0107972
0.0107512
0.0107032
0.0106536
0.0106025
0.0105504
0.0104973
0.0104436
0.0103896
0.0103355
0.0102815
0.0102279
0.0101749
0.0101228
0.0100719
0.0100225
0.00997492
0.00992943
0.00988643
0.00984631
0.00980953
0.00977659
0.00974805
0.00972459
0.009707
0.00969622
0.00969342
0.00970005
0.00971799
0.00974968
0.00979839
0.00986847
0.0099656
0.0100968
0.0102693
0.0104881
0.0107488
0.011027
0.0112627
0.0113479
0.0111242
0.0104096
0.00908632
0.00731264
0.00063866
0.000635328
0.000632074
0.000628902
0.000625814
0.000622805
0.00061987
0.000617005
0.000614212
0.000611465
0.000608756
0.00060608
0.000603429
0.000600795
0.000598166
0.000595526
0.000592857
0.000590136
0.000587334
0.000584418
0.000581349
0.000578082
0.000574567
0.000570753
0.000566585
0.000562014
0.000556998
0.000551508
0.000545537
0.000539109
0.000532282
0.00052516
0.000517895
0.000510689
0.00050379
0.000497482
0.000492077
0.000487894
0.000485244
0.000484418
0.000485666
0.000489197
0.000495169
0.000503685
0.0005148
0.000528522
0.00054482
0.000563627
0.000584849
0.000608373
0.000634067
0.000661795
0.00069141
0.000722767
0.000755717
0.000790115
0.000825815
0.000862673
0.000900544
0.000939283
0.000978742
0.00101877
0.00105922
0.00109992
0.00114072
0.00118146
0.00122196
0.00126206
0.00130161
0.00134043
0.00137837
0.00141528
0.00145103
0.00148549
0.00151854
0.00155009
0.00158007
0.0016084
0.00163506
0.00166001
0.00168327
0.00170486
0.00172483
0.00174324
0.0017602
0.00177581
0.00179021
0.00180356
0.00181605
0.00182787
0.00183925
0.00185044
0.00186171
0.00187336
0.00188573
0.00189917
0.0019141
0.00193097
0.0019503
0.00197268
0.00199878
0.0020294
0.00206546
0.00210806
0.00215848
0.00221827
0.00228922
0.00237344
0.00247332
0.00259155
0.00273097
0.0028945
0.00308485
0.00330422
0.00355404
0.0038346
0.00414483
0.00448227
0.00484306
0.00522227
0.00561418
0.00601271
0.00641182
0.00680588
0.00718984
0.00755948
0.00791143
0.00824315
0.00855291
0.0088397
0.00910312
0.00934326
0.00956065
0.0097561
0.00993064
0.0100855
0.010222
0.0103411
0.010444
0.0105319
0.0106058
0.0106669
0.0107162
0.0107547
0.0107833
0.0108028
0.0108142
0.010818
0.0108151
0.0108059
0.0107912
0.0107714
0.0107471
0.0107187
0.0106866
0.0106512
0.010613
0.0105721
0.0105291
0.0104842
0.0104376
0.0103897
0.0103408
0.0102911
0.0102409
0.0101904
0.0101399
0.0100897
0.01004
0.00999107
0.00994328
0.00989687
0.00985217
0.00980951
0.00976927
0.00973186
0.00969771
0.00966733
0.0096413
0.00962028
0.00960506
0.00959657
0.00959595
0.00960462
0.0096244
0.00965766
0.00970753
0.00977817
0.00987501
0.0100048
0.0101746
0.0103894
0.0106463
0.0109234
0.0111672
0.0112807
0.0111249
0.0105457
0.00946292
0.00804426
0.000696309
0.000693566
0.000690869
0.000688222
0.000685627
0.000683082
0.000680587
0.000678139
0.000675742
0.000673379
0.00067105
0.000668753
0.000666489
0.000664257
0.000662054
0.00065988
0.000657731
0.000655604
0.000653494
0.000651394
0.000649296
0.000647189
0.00064506
0.000642891
0.000640663
0.000638354
0.000635937
0.000633384
0.000630662
0.00062774
0.000624584
0.000621162
0.00061745
0.000613425
0.000609078
0.000604415
0.000599455
0.000594242
0.000588843
0.000583351
0.000577885
0.00057259
0.000567634
0.000563204
0.000559498
0.000556721
0.000555074
0.000554751
0.000555928
0.000558759
0.000563377
0.000569883
0.00057835
0.000588825
0.000601321
0.000615829
0.000632311
0.000650706
0.000670933
0.000692889
0.000716456
0.0007415
0.000767874
0.000795421
0.000823975
0.000853361
0.000883403
0.00091392
0.00094473
0.000975654
0.00100651
0.00103714
0.00106737
0.00109704
0.00112603
0.00115419
0.00118141
0.00120761
0.00123269
0.0012566
0.00127931
0.00130079
0.00132105
0.00134011
0.00135801
0.00137482
0.00139063
0.00140554
0.00141968
0.00143319
0.00144624
0.00145901
0.00147171
0.00148458
0.00149785
0.00151183
0.00152681
0.00154317
0.0015613
0.00158167
0.00160481
0.00163135
0.00166205
0.00169778
0.00173963
0.00178889
0.00184711
0.00191617
0.00199831
0.0020961
0.00221248
0.00235063
0.0025138
0.00270502
0.00292678
0.00318061
0.00346677
0.00378396
0.00412933
0.00449858
0.00488627
0.00528626
0.00569214
0.00609767
0.00649709
0.0068854
0.00725843
0.00761292
0.0079465
0.00825759
0.00854532
0.00880944
0.0090502
0.00926826
0.00946452
0.00964028
0.00979663
0.0099346
0.0100553
0.0101599
0.0102496
0.0103254
0.0103885
0.01044
0.0104807
0.0105116
0.0105336
0.0105474
0.0105539
0.0105535
0.0105471
0.0105351
0.0105182
0.0104967
0.0104712
0.010442
0.0104097
0.0103745
0.0103368
0.0102969
0.0102552
0.010212
0.0101675
0.0101221
0.0100759
0.0100294
0.00998265
0.00993608
0.0098899
0.00984442
0.00979992
0.0097567
0.0097151
0.00967545
0.00963813
0.00960355
0.00957215
0.00954445
0.00952102
0.00950251
0.00948971
0.00948352
0.00948507
0.00949574
0.00951728
0.00955196
0.00960276
0.00967364
0.00976973
0.00989739
0.0100635
0.0102732
0.0105242
0.0107981
0.0110473
0.0111862
0.0110934
0.0106392
0.00976725
0.00862849
0.000735382
0.000733188
0.000731017
0.000728874
0.000726759
0.000724673
0.000722616
0.00072059
0.000718592
0.000716615
0.00071466
0.000712728
0.000710819
0.000708934
0.000707073