/*--------------------------------*- C++ -*----------------------------------*\
| =========                 |                                                 |
| \\      /  F ield         | OpenFOAM: The Open Source CFD Toolbox           |
|  \\    /   O peration     | Version:  2.4.0                                 |
|   \\  /    A nd           | Web:      www.OpenFOAM.org                      |
|    \\/     M anipulation  |                                                 |
\*---------------------------------------------------------------------------*/
FoamFile
{
    version     2.0;
    format      ascii;
    class       volScalarField;
    location    "0.08";
    object      pPrime2Mean;
}
// * * * * * * * * * * * * * * * * * * * * * * * * * * * * * * * * * * * * * //

dimensions      [0 4 -4 0 0 0 0];

internalField   nonuniform List<scalar> 
17600
(
8.13696e+06
8.03745e+06
7.92686e+06
7.81634e+06
7.70645e+06
7.59733e+06
7.48896e+06
7.38132e+06
7.27443e+06
7.16829e+06
7.06291e+06
6.9583e+06
6.85446e+06
6.7514e+06
6.64912e+06
6.54762e+06
6.4469e+06
6.34695e+06
6.24777e+06
6.14937e+06
6.05174e+06
5.95488e+06
5.85878e+06
5.76343e+06
5.66883e+06
5.57496e+06
5.48181e+06
5.38936e+06
5.29756e+06
5.20639e+06
5.11578e+06
5.02564e+06
4.93586e+06
4.84626e+06
4.75659e+06
4.66645e+06
4.57522e+06
4.4819e+06
4.38414e+06
4.27599e+06
8.13712e+06
8.03755e+06
7.92692e+06
7.81637e+06
7.70647e+06
7.59734e+06
7.48895e+06
7.38131e+06
7.27442e+06
7.16828e+06
7.0629e+06
6.95829e+06
6.85446e+06
6.7514e+06
6.64912e+06
6.54762e+06
6.4469e+06
6.34695e+06
6.24777e+06
6.14937e+06
6.05174e+06
5.95488e+06
5.85878e+06
5.76344e+06
5.66884e+06
5.57498e+06
5.48183e+06
5.38939e+06
5.29761e+06
5.20645e+06
5.11586e+06
5.02575e+06
4.93602e+06
4.84649e+06
4.75692e+06
4.66695e+06
4.57603e+06
4.48325e+06
4.38693e+06
4.28285e+06
8.13723e+06
8.03765e+06
7.92698e+06
7.81639e+06
7.70645e+06
7.59731e+06
7.48892e+06
7.38128e+06
7.27439e+06
7.16825e+06
7.06288e+06
6.95828e+06
6.85445e+06
6.7514e+06
6.64912e+06
6.54762e+06
6.4469e+06
6.34695e+06
6.24778e+06
6.14938e+06
6.05175e+06
5.95489e+06
5.85879e+06
5.76345e+06
5.66886e+06
5.57501e+06
5.48188e+06
5.38945e+06
5.29769e+06
5.20656e+06
5.11602e+06
5.02597e+06
4.93633e+06
4.84693e+06
4.75757e+06
4.66792e+06
4.57754e+06
4.48574e+06
4.39145e+06
4.29339e+06
8.13733e+06
8.03772e+06
7.92703e+06
7.8164e+06
7.70644e+06
7.59728e+06
7.48888e+06
7.38124e+06
7.27436e+06
7.16823e+06
7.06287e+06
6.95827e+06
6.85444e+06
6.75139e+06
6.64912e+06
6.54762e+06
6.4469e+06
6.34695e+06
6.24778e+06
6.14938e+06
6.05176e+06
5.9549e+06
5.85881e+06
5.76348e+06
5.6689e+06
5.57506e+06
5.48194e+06
5.38954e+06
5.29781e+06
5.20673e+06
5.11625e+06
5.0263e+06
4.93678e+06
4.84757e+06
4.75849e+06
4.66929e+06
4.57964e+06
4.48911e+06
4.39728e+06
4.30426e+06
8.1374e+06
8.03778e+06
7.92706e+06
7.81642e+06
7.70643e+06
7.59726e+06
7.48886e+06
7.38122e+06
7.27434e+06
7.16822e+06
7.06286e+06
6.95826e+06
6.85444e+06
6.75139e+06
6.64911e+06
6.54762e+06
6.4469e+06
6.34695e+06
6.24778e+06
6.14939e+06
6.05177e+06
5.95492e+06
5.85884e+06
5.76351e+06
5.66894e+06
5.57512e+06
5.48203e+06
5.38965e+06
5.29797e+06
5.20695e+06
5.11655e+06
5.02671e+06
4.93736e+06
4.84839e+06
4.75966e+06
4.67099e+06
4.58217e+06
4.49299e+06
4.40351e+06
4.31459e+06
8.13746e+06
8.03783e+06
7.9271e+06
7.81643e+06
7.70643e+06
7.59725e+06
7.48884e+06
7.3812e+06
7.27432e+06
7.1682e+06
7.06284e+06
6.95825e+06
6.85443e+06
6.75139e+06
6.64911e+06
6.54762e+06
6.4469e+06
6.34696e+06
6.24779e+06
6.1494e+06
6.05179e+06
5.95494e+06
5.85886e+06
5.76355e+06
5.669e+06
5.57519e+06
5.48213e+06
5.38979e+06
5.29816e+06
5.20721e+06
5.1169e+06
5.0272e+06
4.93804e+06
4.84935e+06
4.76102e+06
4.67294e+06
4.58503e+06
4.49727e+06
4.40999e+06
4.32408e+06
8.1375e+06
8.03787e+06
7.92712e+06
7.81644e+06
7.70643e+06
7.59724e+06
7.48883e+06
7.38118e+06
7.27431e+06
7.16819e+06
7.06284e+06
6.95825e+06
6.85443e+06
6.75138e+06
6.64911e+06
6.54762e+06
6.4469e+06
6.34696e+06
6.2478e+06
6.14941e+06
6.0518e+06
5.95496e+06
5.8589e+06
5.7636e+06
5.66906e+06
5.57528e+06
5.48224e+06
5.38995e+06
5.29837e+06
5.2075e+06
5.11731e+06
5.02776e+06
4.93881e+06
4.85041e+06
4.76251e+06
4.67506e+06
4.58805e+06
4.50161e+06
4.41619e+06
4.33266e+06
8.13753e+06
8.03789e+06
7.92714e+06
7.81645e+06
7.70643e+06
7.59723e+06
7.48882e+06
7.38117e+06
7.27429e+06
7.16818e+06
7.06283e+06
6.95825e+06
6.85443e+06
6.75138e+06
6.64911e+06
6.54762e+06
6.4469e+06
6.34697e+06
6.24781e+06
6.14943e+06
6.05182e+06
5.95499e+06
5.85893e+06
5.76365e+06
5.66913e+06
5.57537e+06
5.48237e+06
5.39012e+06
5.29861e+06
5.20782e+06
5.11775e+06
5.02836e+06
4.93964e+06
4.85156e+06
4.7641e+06
4.67727e+06
4.59113e+06
4.50591e+06
4.42211e+06
4.34049e+06
8.13755e+06
8.03791e+06
7.92715e+06
7.81646e+06
7.70644e+06
7.59723e+06
7.48881e+06
7.38117e+06
7.27429e+06
7.16817e+06
7.06283e+06
6.95824e+06
6.85443e+06
6.75138e+06
6.64912e+06
6.54762e+06
6.44691e+06
6.34697e+06
6.24782e+06
6.14944e+06
6.05184e+06
5.95502e+06
5.85897e+06
5.7637e+06
5.6692e+06
5.57547e+06
5.4825e+06
5.3903e+06
5.29886e+06
5.20816e+06
5.11821e+06
5.02899e+06
4.9405e+06
4.85274e+06
4.76572e+06
4.6795e+06
4.59419e+06
4.51007e+06
4.42763e+06
4.34753e+06
8.13756e+06
8.03792e+06
7.92716e+06
7.81646e+06
7.70644e+06
7.59723e+06
7.48881e+06
7.38116e+06
7.27428e+06
7.16817e+06
7.06282e+06
6.95824e+06
6.85443e+06
6.75139e+06
6.64912e+06
6.54763e+06
6.44692e+06
6.34698e+06
6.24783e+06
6.14946e+06
6.05186e+06
5.95505e+06
5.85901e+06
5.76376e+06
5.66928e+06
5.57557e+06
5.48264e+06
5.39049e+06
5.29911e+06
5.20851e+06
5.11869e+06
5.02964e+06
4.94138e+06
4.85394e+06
4.76734e+06
4.6817e+06
4.59715e+06
4.51399e+06
4.43271e+06
4.35383e+06
8.13756e+06
8.03792e+06
7.92716e+06
7.81646e+06
7.70644e+06
7.59723e+06
7.48881e+06
7.38116e+06
7.27429e+06
7.16817e+06
7.06283e+06
6.95824e+06
6.85443e+06
6.75139e+06
6.64912e+06
6.54763e+06
6.44692e+06
6.34699e+06
6.24784e+06
6.14947e+06
6.05189e+06
5.95508e+06
5.85906e+06
5.76381e+06
5.66935e+06
5.57568e+06
5.48279e+06
5.39068e+06
5.29937e+06
5.20886e+06
5.11916e+06
5.03028e+06
4.94225e+06
4.85511e+06
4.76892e+06
4.68381e+06
4.59994e+06
4.51764e+06
4.43734e+06
4.35944e+06
8.13755e+06
8.03791e+06
7.92716e+06
7.81646e+06
7.70644e+06
7.59723e+06
7.48881e+06
7.38117e+06
7.27429e+06
7.16818e+06
7.06283e+06
6.95825e+06
6.85443e+06
6.75139e+06
6.64913e+06
6.54764e+06
6.44693e+06
6.347e+06
6.24786e+06
6.14949e+06
6.05191e+06
5.95511e+06
5.8591e+06
5.76387e+06
5.66943e+06
5.57578e+06
5.48292e+06
5.39087e+06
5.29963e+06
5.20921e+06
5.11963e+06
5.03091e+06
4.9431e+06
4.85624e+06
4.77043e+06
4.68579e+06
4.60254e+06
4.52096e+06
4.4415e+06
4.36447e+06
8.13753e+06
8.03789e+06
7.92714e+06
7.81646e+06
7.70643e+06
7.59723e+06
7.48882e+06
7.38118e+06
7.2743e+06
7.16818e+06
7.06283e+06
6.95825e+06
6.85444e+06
6.7514e+06
6.64913e+06
6.54764e+06
6.44694e+06
6.34701e+06
6.24787e+06
6.14951e+06
6.05193e+06
5.95514e+06
5.85914e+06
5.76392e+06
5.6695e+06
5.57588e+06
5.48306e+06
5.39105e+06
5.29987e+06
5.20954e+06
5.12007e+06
5.03151e+06
4.94389e+06
4.8573e+06
4.77183e+06
4.68762e+06
4.60489e+06
4.52392e+06
4.44512e+06
4.36888e+06
8.1375e+06
8.03787e+06
7.92713e+06
7.81645e+06
7.70643e+06
7.59724e+06
7.48883e+06
7.38119e+06
7.27431e+06
7.16819e+06
7.06284e+06
6.95826e+06
6.85444e+06
6.7514e+06
6.64914e+06
6.54765e+06
6.44694e+06
6.34702e+06
6.24788e+06
6.14952e+06
6.05195e+06
5.95517e+06
5.85917e+06
5.76397e+06
5.66957e+06
5.57597e+06
5.48318e+06
5.39122e+06
5.3001e+06
5.20984e+06
5.12048e+06
5.03206e+06
4.94462e+06
4.85827e+06
4.7731e+06
4.68927e+06
4.60699e+06
4.52655e+06
4.44833e+06
4.37267e+06
8.13746e+06
8.03783e+06
7.9271e+06
7.81643e+06
7.70643e+06
7.59725e+06
7.48884e+06
7.3812e+06
7.27432e+06
7.16821e+06
7.06285e+06
6.95827e+06
6.85445e+06
6.75141e+06
6.64914e+06
6.54766e+06
6.44695e+06
6.34703e+06
6.24789e+06
6.14954e+06
6.05197e+06
5.9552e+06
5.85921e+06
5.76402e+06
5.66963e+06
5.57605e+06
5.4833e+06
5.39137e+06
5.30031e+06
5.21012e+06
5.12085e+06
5.03255e+06
4.94528e+06
4.85913e+06
4.77422e+06
4.69072e+06
4.60883e+06
4.52883e+06
4.45106e+06
4.37583e+06
8.1374e+06
8.03778e+06
7.92707e+06
7.81642e+06
7.70644e+06
7.59726e+06
7.48886e+06
7.38122e+06
7.27434e+06
7.16822e+06
7.06287e+06
6.95828e+06
6.85446e+06
6.75141e+06
6.64915e+06
6.54766e+06
6.44696e+06
6.34704e+06
6.2479e+06
6.14955e+06
6.05199e+06
5.95522e+06
5.85924e+06
5.76406e+06
5.66969e+06
5.57613e+06
5.4834e+06
5.39151e+06
5.30049e+06
5.21036e+06
5.12117e+06
5.03298e+06
4.94584e+06
4.85987e+06
4.77519e+06
4.69196e+06
4.61038e+06
4.53073e+06
4.45333e+06
4.37842e+06
8.13733e+06
8.03772e+06
7.92703e+06
7.8164e+06
7.70644e+06
7.59728e+06
7.48889e+06
7.38125e+06
7.27437e+06
7.16824e+06
7.06288e+06
6.95829e+06
6.85447e+06
6.75142e+06
6.64916e+06
6.54767e+06
6.44697e+06
6.34705e+06
6.24791e+06
6.14957e+06
6.05201e+06
5.95524e+06
5.85927e+06
5.76409e+06
5.66973e+06
5.57619e+06
5.48348e+06
5.39162e+06
5.30063e+06
5.21056e+06
5.12144e+06
5.03333e+06
4.94631e+06
4.86048e+06
4.77598e+06
4.69296e+06
4.61164e+06
4.53226e+06
4.45513e+06
4.38044e+06
8.13724e+06
8.03765e+06
7.92698e+06
7.81639e+06
7.70646e+06
7.59731e+06
7.48892e+06
7.38128e+06
7.27439e+06
7.16826e+06
7.0629e+06
6.9583e+06
6.85448e+06
6.75143e+06
6.64916e+06
6.54768e+06
6.44697e+06
6.34706e+06
6.24792e+06
6.14957e+06
6.05202e+06
5.95525e+06
5.85929e+06
5.76412e+06
5.66977e+06
5.57624e+06
5.48354e+06
5.3917e+06
5.30075e+06
5.21071e+06
5.12164e+06
5.0336e+06
4.94667e+06
4.86095e+06
4.77658e+06
4.69373e+06
4.6126e+06
4.53343e+06
4.45651e+06
4.38193e+06
8.13712e+06
8.03755e+06
7.92692e+06
7.81637e+06
7.70647e+06
7.59734e+06
7.48896e+06
7.38132e+06
7.27442e+06
7.16829e+06
7.06291e+06
6.95831e+06
6.85448e+06
6.75144e+06
6.64917e+06
6.54768e+06
6.44698e+06
6.34706e+06
6.24793e+06
6.14958e+06
6.05203e+06
5.95526e+06
5.8593e+06
5.76414e+06
5.66979e+06
5.57627e+06
5.48358e+06
5.39176e+06
5.30083e+06
5.21081e+06
5.12178e+06
5.03378e+06
4.94691e+06
4.86126e+06
4.77698e+06
4.69424e+06
4.61323e+06
4.53419e+06
4.45739e+06
4.38295e+06
8.13696e+06
8.03745e+06
7.92686e+06
7.81634e+06
7.70645e+06
7.59734e+06
7.48896e+06
7.38133e+06
7.27443e+06
7.16829e+06
7.06292e+06
6.95832e+06
6.85449e+06
6.75144e+06
6.64917e+06
6.54768e+06
6.44698e+06
6.34706e+06
6.24793e+06
6.14958e+06
6.05203e+06
5.95527e+06
5.8593e+06
5.76415e+06
5.6698e+06
5.57628e+06
5.48361e+06
5.39179e+06
5.30086e+06
5.21087e+06
5.12185e+06
5.03387e+06
4.94703e+06
4.86142e+06
4.77719e+06
4.6945e+06
4.61355e+06
4.53457e+06
4.45783e+06
4.38345e+06
4.1787e+06
4.14748e+06
4.12261e+06
4.10214e+06
4.08414e+06
4.06744e+06
4.05162e+06
4.03646e+06
4.0218e+06
4.00755e+06
3.99364e+06
3.98e+06
3.96659e+06
3.95339e+06
3.94036e+06
3.92749e+06
3.91475e+06
3.90213e+06
3.88962e+06
3.8772e+06
3.86488e+06
3.85263e+06
3.84046e+06
3.82835e+06
3.81631e+06
3.80432e+06
3.79239e+06
3.7805e+06
3.76866e+06
3.75686e+06
3.7451e+06
3.73338e+06
3.72169e+06
3.71004e+06
3.69843e+06
3.68684e+06
3.67529e+06
3.66377e+06
3.65228e+06
3.64081e+06
3.62938e+06
3.61797e+06
3.60658e+06
3.59522e+06
3.58389e+06
3.57257e+06
3.56128e+06
3.55002e+06
3.53877e+06
3.52755e+06
3.51634e+06
3.50516e+06
3.494e+06
3.48286e+06
3.47175e+06
3.46065e+06
3.44957e+06
3.43851e+06
3.42747e+06
3.41645e+06
3.40544e+06
3.39446e+06
3.38349e+06
3.37254e+06
3.36161e+06
3.3507e+06
3.3398e+06
3.32893e+06
3.31807e+06
3.30722e+06
3.2964e+06
3.28559e+06
3.2748e+06
3.26403e+06
3.25328e+06
3.24254e+06
3.23182e+06
3.22112e+06
3.21043e+06
3.19977e+06
3.18912e+06
3.17849e+06
3.16788e+06
3.15729e+06
3.14672e+06
3.13616e+06
3.12563e+06
3.11511e+06
3.10461e+06
3.09413e+06
3.08367e+06
3.07323e+06
3.06281e+06
3.05241e+06
3.04203e+06
3.03166e+06
3.02132e+06
3.01099e+06
3.00068e+06
2.9904e+06
2.98013e+06
2.96988e+06
2.95965e+06
2.94943e+06
2.93924e+06
2.92907e+06
2.91891e+06
2.90878e+06
2.89866e+06
2.88857e+06
2.87849e+06
2.86843e+06
2.85839e+06
2.84837e+06
2.83837e+06
2.82839e+06
2.81843e+06
2.80849e+06
2.79856e+06
2.78866e+06
2.77877e+06
2.76891e+06
2.75906e+06
2.74923e+06
2.73942e+06
2.72963e+06
2.71985e+06
2.7101e+06
2.70036e+06
2.69064e+06
2.68094e+06
2.67125e+06
2.66159e+06
2.65194e+06
2.64231e+06
2.6327e+06
2.6231e+06
2.61352e+06
2.60396e+06
2.59442e+06
2.58489e+06
2.57538e+06
2.56589e+06
2.55641e+06
2.54695e+06
2.5375e+06
2.52807e+06
2.51866e+06
2.50926e+06
2.49987e+06
2.4905e+06
2.48115e+06
2.4718e+06
2.46247e+06
2.45316e+06
2.44385e+06
2.43456e+06
2.42529e+06
2.41602e+06
2.40677e+06
2.39754e+06
2.38832e+06
2.37911e+06
2.36992e+06
2.36075e+06
2.35159e+06
2.34245e+06
2.33333e+06
2.32423e+06
2.31515e+06
2.30609e+06
2.29705e+06
2.28804e+06
2.27904e+06
2.27006e+06
2.2611e+06
2.25217e+06
2.24325e+06
2.23435e+06
2.22548e+06
2.21662e+06
2.20778e+06
2.19897e+06
2.19017e+06
2.18139e+06
2.17263e+06
2.16389e+06
2.15517e+06
2.14646e+06
2.13778e+06
2.12911e+06
2.12047e+06
2.11184e+06
2.10322e+06
2.09463e+06
2.08606e+06
2.0775e+06
2.06896e+06
2.06044e+06
2.05194e+06
2.04345e+06
2.03499e+06
2.02654e+06
2.01811e+06
2.00969e+06
2.0013e+06
1.99292e+06
1.98456e+06
1.97621e+06
1.96789e+06
1.95958e+06
1.95129e+06
1.94302e+06
1.93476e+06
1.92653e+06
1.91831e+06
1.9101e+06
1.90192e+06
1.89375e+06
1.8856e+06
1.87747e+06
1.86936e+06
1.86126e+06
1.85318e+06
1.84512e+06
1.83708e+06
1.82905e+06
1.82104e+06
1.81305e+06
1.80508e+06
1.79712e+06
1.78918e+06
1.78126e+06
1.77335e+06
1.76547e+06
1.7576e+06
1.74975e+06
1.74191e+06
1.7341e+06
1.7263e+06
1.71852e+06
1.71075e+06
1.70301e+06
1.69528e+06
1.68757e+06
1.67988e+06
1.6722e+06
1.66454e+06
1.6569e+06
1.64928e+06
1.64168e+06
1.63409e+06
1.62652e+06
1.61897e+06
1.61143e+06
1.60392e+06
1.59642e+06
1.58893e+06
1.58147e+06
1.57402e+06
1.56659e+06
1.55918e+06
1.55179e+06
1.54441e+06
1.53705e+06
1.52971e+06
1.52239e+06
1.51508e+06
1.50779e+06
1.50052e+06
1.49327e+06
1.48603e+06
1.47881e+06
1.47161e+06
1.46443e+06
1.45726e+06
1.45011e+06
1.44298e+06
1.43587e+06
1.42877e+06
1.4217e+06
1.41463e+06
1.40759e+06
1.40057e+06
1.39356e+06
1.38657e+06
1.37959e+06
1.37264e+06
1.3657e+06
1.35878e+06
1.35188e+06
1.34499e+06
1.33812e+06
1.33127e+06
1.32444e+06
1.31762e+06
1.31082e+06
1.30404e+06
1.29728e+06
1.29053e+06
1.28381e+06
1.2771e+06
1.2704e+06
1.26373e+06
1.25707e+06
1.25043e+06
1.2438e+06
1.2372e+06
1.23061e+06
1.22404e+06
1.21748e+06
1.21095e+06
1.20443e+06
1.19792e+06
1.19144e+06
1.18497e+06
1.17852e+06
1.17209e+06
1.16568e+06
1.15928e+06
1.1529e+06
1.14653e+06
1.14019e+06
1.13386e+06
1.12754e+06
1.12125e+06
1.11497e+06
1.10871e+06
1.10247e+06
1.09624e+06
1.09003e+06
1.08384e+06
1.07766e+06
1.07151e+06
1.06536e+06
1.05924e+06
1.05313e+06
1.04704e+06
1.04097e+06
1.03491e+06
1.02887e+06
1.02284e+06
1.01683e+06
1.01084e+06
1.00487e+06
998908
992964
987037
981125
975230
969350
963486
957636
951803
945984
940181
934391
928616
922855
917109
911375
905656
899948
894254
888571
882900
877240
871591
865952
860322
854701
849087
843481
837879
832283
826689
821099
815507
809916
804319
798719
793107
787487
781849
776193
770513
764802
759056
753261
747414
741493
735489
729373
723115
716671
709959
702892
695280
686656
676768
4.20926e+06
4.18004e+06
4.15434e+06
4.13128e+06
4.11061e+06
4.09158e+06
4.07377e+06
4.05687e+06
4.04071e+06
4.02513e+06
4.01003e+06
3.99533e+06
3.98096e+06
3.96688e+06
3.95305e+06
3.93944e+06
3.92602e+06
3.91276e+06
3.89966e+06
3.8867e+06
3.87386e+06
3.86113e+06
3.84851e+06
3.83598e+06
3.82354e+06
3.81117e+06
3.79889e+06
3.78666e+06
3.77451e+06
3.76241e+06
3.75037e+06
3.73838e+06
3.72644e+06
3.71455e+06
3.70271e+06
3.69091e+06
3.67916e+06
3.66744e+06
3.65577e+06
3.64413e+06
3.63253e+06
3.62096e+06
3.60943e+06
3.59792e+06
3.58645e+06
3.57501e+06
3.5636e+06
3.55222e+06
3.54086e+06
3.52954e+06
3.51824e+06
3.50696e+06
3.49571e+06
3.48449e+06
3.47328e+06
3.46211e+06
3.45095e+06
3.43982e+06
3.42872e+06
3.41763e+06
3.40656e+06
3.39552e+06
3.3845e+06
3.3735e+06
3.36252e+06
3.35156e+06
3.34062e+06
3.32969e+06
3.31879e+06
3.30791e+06
3.29705e+06
3.28621e+06
3.27539e+06
3.26459e+06
3.2538e+06
3.24304e+06
3.23229e+06
3.22157e+06
3.21086e+06
3.20018e+06
3.18951e+06
3.17887e+06
3.16824e+06
3.15763e+06
3.14704e+06
3.13648e+06
3.12593e+06
3.1154e+06
3.10489e+06
3.0944e+06
3.08393e+06
3.07348e+06
3.06305e+06
3.05264e+06
3.04225e+06
3.03188e+06
3.02153e+06
3.0112e+06
3.00089e+06
2.9906e+06
2.98033e+06
2.97007e+06
2.95984e+06
2.94963e+06
2.93943e+06
2.92926e+06
2.91911e+06
2.90897e+06
2.89886e+06
2.88876e+06
2.87869e+06
2.86863e+06
2.85859e+06
2.84857e+06
2.83858e+06
2.8286e+06
2.81864e+06
2.80869e+06
2.79877e+06
2.78887e+06
2.77898e+06
2.76912e+06
2.75927e+06
2.74944e+06
2.73963e+06
2.72984e+06
2.72007e+06
2.71032e+06
2.70058e+06
2.69086e+06
2.68116e+06
2.67148e+06
2.66182e+06
2.65217e+06
2.64255e+06
2.63294e+06
2.62334e+06
2.61377e+06
2.60421e+06
2.59467e+06
2.58514e+06
2.57564e+06
2.56614e+06
2.55667e+06
2.54721e+06
2.53776e+06
2.52833e+06
2.51892e+06
2.50952e+06
2.50013e+06
2.49076e+06
2.4814e+06
2.47205e+06
2.46271e+06
2.45339e+06
2.44408e+06
2.43478e+06
2.42549e+06
2.41622e+06
2.40696e+06
2.39771e+06
2.38848e+06
2.37926e+06
2.37006e+06
2.36087e+06
2.35171e+06
2.34256e+06
2.33342e+06
2.32431e+06
2.31522e+06
2.30615e+06
2.2971e+06
2.28808e+06
2.27907e+06
2.27009e+06
2.26112e+06
2.25218e+06
2.24326e+06
2.23436e+06
2.22548e+06
2.21662e+06
2.20778e+06
2.19897e+06
2.19017e+06
2.18139e+06
2.17262e+06
2.16388e+06
2.15516e+06
2.14646e+06
2.13777e+06
2.12911e+06
2.12046e+06
2.11183e+06
2.10322e+06
2.09462e+06
2.08605e+06
2.07749e+06
2.06895e+06
2.06043e+06
2.05193e+06
2.04345e+06
2.03498e+06
2.02653e+06
2.0181e+06
2.00969e+06
2.00129e+06
1.99291e+06
1.98455e+06
1.97621e+06
1.96788e+06
1.95957e+06
1.95128e+06
1.94301e+06
1.93476e+06
1.92652e+06
1.9183e+06
1.9101e+06
1.90191e+06
1.89375e+06
1.8856e+06
1.87747e+06
1.86935e+06
1.86126e+06
1.85318e+06
1.84512e+06
1.83707e+06
1.82904e+06
1.82104e+06
1.81304e+06
1.80507e+06
1.79711e+06
1.78917e+06
1.78125e+06
1.77335e+06
1.76546e+06
1.75759e+06
1.74974e+06
1.74191e+06
1.73409e+06
1.72629e+06
1.71851e+06
1.71075e+06
1.703e+06
1.69527e+06
1.68756e+06
1.67987e+06
1.67219e+06
1.66453e+06
1.65689e+06
1.64927e+06
1.64166e+06
1.63408e+06
1.62651e+06
1.61895e+06
1.61142e+06
1.6039e+06
1.5964e+06
1.58892e+06
1.58145e+06
1.57401e+06
1.56658e+06
1.55916e+06
1.55177e+06
1.54439e+06
1.53703e+06
1.52969e+06
1.52236e+06
1.51506e+06
1.50777e+06
1.50049e+06
1.49324e+06
1.486e+06
1.47878e+06
1.47158e+06
1.46439e+06
1.45722e+06
1.45007e+06
1.44294e+06
1.43583e+06
1.42873e+06
1.42165e+06
1.41459e+06
1.40754e+06
1.40051e+06
1.3935e+06
1.38651e+06
1.37953e+06
1.37257e+06
1.36563e+06
1.35871e+06
1.3518e+06
1.34491e+06
1.33804e+06
1.33119e+06
1.32435e+06
1.31753e+06
1.31073e+06
1.30394e+06
1.29717e+06
1.29042e+06
1.28369e+06
1.27697e+06
1.27027e+06
1.26359e+06
1.25693e+06
1.25028e+06
1.24365e+06
1.23704e+06
1.23044e+06
1.22386e+06
1.2173e+06
1.21076e+06
1.20423e+06
1.19772e+06
1.19122e+06
1.18475e+06
1.17828e+06
1.17184e+06
1.16541e+06
1.15901e+06
1.15261e+06
1.14624e+06
1.13988e+06
1.13353e+06
1.12721e+06
1.1209e+06
1.1146e+06
1.10832e+06
1.10206e+06
1.09582e+06
1.08959e+06
1.08338e+06
1.07718e+06
1.071e+06
1.06484e+06
1.05869e+06
1.05255e+06
1.04644e+06
1.04033e+06
1.03425e+06
1.02818e+06
1.02212e+06
1.01608e+06
1.01005e+06
1.00404e+06
998046
992063
986095
980141
974201
968274
962361
956461
950574
944699
938836
932986
927147
921320
915502
909696
903899
898112
892332
886562
880798
875042
869290
863546
857803
852065
846326
840590
834851
829110
823364
817611
811851
806077
800291
794485
788661
782806
776925
771002
765038
759019
752937
746781
740531
734175
727675
721016
714140
707002
699525
691589
683047
673703
663045
4.23007e+06
4.20297e+06
4.17786e+06
4.15449e+06
4.13289e+06
4.11268e+06
4.09363e+06
4.07554e+06
4.05823e+06
4.04159e+06
4.0255e+06
4.00988e+06
3.99467e+06
3.97981e+06
3.96525e+06
3.95096e+06
3.93691e+06
3.92307e+06
3.90942e+06
3.89594e+06
3.88261e+06
3.86943e+06
3.85637e+06
3.84344e+06
3.83061e+06
3.81788e+06
3.80525e+06
3.79271e+06
3.78024e+06
3.76786e+06
3.75554e+06
3.7433e+06
3.73112e+06
3.719e+06
3.70693e+06
3.69493e+06
3.68297e+06
3.67107e+06
3.65921e+06
3.6474e+06
3.63564e+06
3.62392e+06
3.61224e+06
3.60059e+06
3.58899e+06
3.57742e+06
3.56589e+06
3.55439e+06
3.54293e+06
3.5315e+06
3.5201e+06
3.50873e+06
3.49739e+06
3.48608e+06
3.47479e+06
3.46354e+06
3.45231e+06
3.44111e+06
3.42993e+06
3.41878e+06
3.40766e+06
3.39656e+06
3.38548e+06
3.37442e+06
3.36339e+06
3.35239e+06
3.3414e+06
3.33044e+06
3.3195e+06
3.30858e+06
3.29769e+06
3.28681e+06
3.27596e+06
3.26513e+06
3.25432e+06
3.24353e+06
3.23276e+06
3.22202e+06
3.21129e+06
3.20059e+06
3.1899e+06
3.17924e+06
3.1686e+06
3.15797e+06
3.14737e+06
3.13679e+06
3.12623e+06
3.11569e+06
3.10518e+06
3.09468e+06
3.0842e+06
3.07374e+06
3.06331e+06
3.05289e+06
3.04249e+06
3.03212e+06
3.02176e+06
3.01143e+06
3.00111e+06
2.99082e+06
2.98054e+06
2.97029e+06
2.96006e+06
2.94984e+06
2.93965e+06
2.92948e+06
2.91932e+06
2.90919e+06
2.89908e+06
2.88898e+06
2.87891e+06
2.86885e+06
2.85881e+06
2.8488e+06
2.8388e+06
2.82882e+06
2.81886e+06
2.80892e+06
2.799e+06
2.7891e+06
2.77921e+06
2.76935e+06
2.7595e+06
2.74968e+06
2.73987e+06
2.73008e+06
2.72031e+06
2.71056e+06
2.70082e+06
2.69111e+06
2.68141e+06
2.67173e+06
2.66207e+06
2.65243e+06
2.6428e+06
2.6332e+06
2.62361e+06
2.61403e+06
2.60447e+06
2.59494e+06
2.58541e+06
2.5759e+06
2.56641e+06
2.55694e+06
2.54748e+06
2.53803e+06
2.5286e+06
2.51918e+06
2.50978e+06
2.50039e+06
2.49102e+06
2.48165e+06
2.4723e+06
2.46296e+06
2.45363e+06
2.44431e+06
2.435e+06
2.42571e+06
2.41642e+06
2.40715e+06
2.39789e+06
2.38865e+06
2.37942e+06
2.3702e+06
2.361e+06
2.35182e+06
2.34266e+06
2.33352e+06
2.32439e+06
2.31529e+06
2.30621e+06
2.29715e+06
2.28812e+06
2.2791e+06
2.27011e+06
2.26114e+06
2.2522e+06
2.24327e+06
2.23437e+06
2.22549e+06
2.21663e+06
2.20779e+06
2.19897e+06
2.19016e+06
2.18138e+06
2.17262e+06
2.16388e+06
2.15516e+06
2.14645e+06
2.13777e+06
2.1291e+06
2.12045e+06
2.11182e+06
2.10321e+06
2.09462e+06
2.08604e+06
2.07749e+06
2.06895e+06
2.06043e+06
2.05193e+06
2.04344e+06
2.03497e+06
2.02653e+06
2.01809e+06
2.00968e+06
2.00128e+06
1.99291e+06
1.98455e+06
1.9762e+06
1.96788e+06
1.95957e+06
1.95128e+06
1.94301e+06
1.93475e+06
1.92652e+06
1.9183e+06
1.91009e+06
1.90191e+06
1.89374e+06
1.88559e+06
1.87746e+06
1.86935e+06
1.86125e+06
1.85317e+06
1.84511e+06
1.83707e+06
1.82904e+06
1.82103e+06
1.81304e+06
1.80506e+06
1.79711e+06
1.78917e+06
1.78124e+06
1.77334e+06
1.76545e+06
1.75758e+06
1.74973e+06
1.7419e+06
1.73408e+06
1.72628e+06
1.7185e+06
1.71074e+06
1.70299e+06
1.69526e+06
1.68755e+06
1.67986e+06
1.67218e+06
1.66452e+06
1.65688e+06
1.64926e+06
1.64165e+06
1.63406e+06
1.62649e+06
1.61894e+06
1.6114e+06
1.60389e+06
1.59638e+06
1.5889e+06
1.58144e+06
1.57399e+06
1.56656e+06
1.55914e+06
1.55175e+06
1.54437e+06
1.53701e+06
1.52966e+06
1.52234e+06
1.51503e+06
1.50774e+06
1.50046e+06
1.49321e+06
1.48597e+06
1.47875e+06
1.47154e+06
1.46436e+06
1.45719e+06
1.45003e+06
1.4429e+06
1.43578e+06
1.42868e+06
1.4216e+06
1.41454e+06
1.40749e+06
1.40046e+06
1.39344e+06
1.38645e+06
1.37947e+06
1.37251e+06
1.36556e+06
1.35864e+06
1.35173e+06
1.34483e+06
1.33796e+06
1.3311e+06
1.32426e+06
1.31744e+06
1.31063e+06
1.30384e+06
1.29707e+06
1.29031e+06
1.28357e+06
1.27685e+06
1.27015e+06
1.26346e+06
1.25679e+06
1.25014e+06
1.2435e+06
1.23688e+06
1.23028e+06
1.22369e+06
1.21712e+06
1.21057e+06
1.20403e+06
1.19751e+06
1.19101e+06
1.18452e+06
1.17805e+06
1.17159e+06
1.16516e+06
1.15874e+06
1.15233e+06
1.14594e+06
1.13957e+06
1.13321e+06
1.12687e+06
1.12054e+06
1.11423e+06
1.10794e+06
1.10166e+06
1.0954e+06
1.08915e+06
1.08292e+06
1.0767e+06
1.0705e+06
1.06431e+06
1.05814e+06
1.05198e+06
1.04584e+06
1.03971e+06
1.03359e+06
1.02749e+06
1.02141e+06
1.01533e+06
1.00927e+06
1.00323e+06
997194
991174
985165
979170
973185
967213
961251
955302
949362
943433
937513
931603
925701
919808
913922
908044
902172
896306
890446
884588
878736
872884
867035
861185
855335
849481
843626
837762
831894
826012
820123
814216
808295
802351
796385
790390
784362
778298
772187
766028
759804
753518
747140
740677
734093
727379
720507
713438
706159
698578
690695
682378
673542
664157
654022
4.24604e+06
4.22052e+06
4.19632e+06
4.17328e+06
4.15148e+06
4.13079e+06
4.11108e+06
4.09223e+06
4.07413e+06
4.0567e+06
4.03984e+06
4.02347e+06
4.00755e+06
3.99201e+06
3.97682e+06
3.96193e+06
3.94731e+06
3.93293e+06
3.91878e+06
3.90482e+06
3.89104e+06
3.87743e+06
3.86397e+06
3.85065e+06
3.83746e+06
3.82439e+06
3.81143e+06
3.79858e+06
3.78582e+06
3.77316e+06
3.76058e+06
3.74809e+06
3.73567e+06
3.72332e+06
3.71105e+06
3.69884e+06
3.68669e+06
3.6746e+06
3.66257e+06
3.6506e+06
3.63867e+06
3.6268e+06
3.61498e+06
3.6032e+06
3.59146e+06
3.57977e+06
3.56812e+06
3.55651e+06
3.54494e+06
3.5334e+06
3.52191e+06
3.51044e+06
3.49901e+06
3.48762e+06
3.47626e+06
3.46493e+06
3.45363e+06
3.44236e+06
3.43111e+06
3.4199e+06
3.40872e+06
3.39756e+06
3.38643e+06
3.37533e+06
3.36425e+06
3.3532e+06
3.34217e+06
3.33117e+06
3.3202e+06
3.30924e+06
3.29831e+06
3.28741e+06
3.27653e+06
3.26567e+06
3.25483e+06
3.24402e+06
3.23323e+06
3.22246e+06
3.21172e+06
3.201e+06
3.19029e+06
3.17962e+06
3.16896e+06
3.15832e+06
3.14771e+06
3.13712e+06
3.12654e+06
3.116e+06
3.10547e+06
3.09496e+06
3.08447e+06
3.07401e+06
3.06357e+06
3.05314e+06
3.04274e+06
3.03236e+06
3.022e+06
3.01167e+06
3.00135e+06
2.99105e+06
2.98078e+06
2.97053e+06
2.96029e+06
2.95008e+06
2.93989e+06
2.92971e+06
2.91956e+06
2.90943e+06
2.89931e+06
2.88922e+06
2.87914e+06
2.86909e+06
2.85905e+06
2.84904e+06
2.83904e+06
2.82906e+06
2.8191e+06
2.80916e+06
2.79924e+06
2.78934e+06
2.77946e+06
2.7696e+06
2.75975e+06
2.74993e+06
2.74012e+06
2.73033e+06
2.72056e+06
2.71081e+06
2.70108e+06
2.69137e+06
2.68167e+06
2.67199e+06
2.66233e+06
2.65269e+06
2.64307e+06
2.63346e+06
2.62387e+06
2.6143e+06
2.60474e+06
2.5952e+06
2.58568e+06
2.57617e+06
2.56668e+06
2.5572e+06
2.54774e+06
2.5383e+06
2.52887e+06
2.51945e+06
2.51004e+06
2.50065e+06
2.49127e+06
2.4819e+06
2.47255e+06
2.4632e+06
2.45386e+06
2.44454e+06
2.43522e+06
2.42592e+06
2.41662e+06
2.40734e+06
2.39807e+06
2.38881e+06
2.37957e+06
2.37034e+06
2.36113e+06
2.35193e+06
2.34276e+06
2.3336e+06
2.32447e+06
2.31535e+06
2.30626e+06
2.2972e+06
2.28815e+06
2.27913e+06
2.27014e+06
2.26116e+06
2.25221e+06
2.24328e+06
2.23438e+06
2.22549e+06
2.21663e+06
2.20779e+06
2.19896e+06
2.19016e+06
2.18138e+06
2.17262e+06
2.16388e+06
2.15515e+06
2.14645e+06
2.13776e+06
2.1291e+06
2.12045e+06
2.11182e+06
2.10321e+06
2.09462e+06
2.08604e+06
2.07748e+06
2.06895e+06
2.06043e+06
2.05192e+06
2.04344e+06
2.03497e+06
2.02652e+06
2.01809e+06
2.00968e+06
2.00128e+06
1.9929e+06
1.98454e+06
1.9762e+06
1.96787e+06
1.95957e+06
1.95128e+06
1.943e+06
1.93475e+06
1.92651e+06
1.91829e+06
1.91009e+06
1.90191e+06
1.89374e+06
1.88559e+06
1.87746e+06
1.86934e+06
1.86125e+06
1.85317e+06
1.8451e+06
1.83706e+06
1.82903e+06
1.82102e+06
1.81303e+06
1.80506e+06
1.7971e+06
1.78916e+06
1.78124e+06
1.77333e+06
1.76545e+06
1.75758e+06
1.74973e+06
1.74189e+06
1.73408e+06
1.72628e+06
1.71849e+06
1.71073e+06
1.70298e+06
1.69525e+06
1.68754e+06
1.67985e+06
1.67217e+06
1.66451e+06
1.65687e+06
1.64925e+06
1.64164e+06
1.63405e+06
1.62648e+06
1.61893e+06
1.61139e+06
1.60387e+06
1.59637e+06
1.58888e+06
1.58142e+06
1.57397e+06
1.56654e+06
1.55912e+06
1.55173e+06
1.54435e+06
1.53698e+06
1.52964e+06
1.52231e+06
1.515e+06
1.50771e+06
1.50044e+06
1.49318e+06
1.48594e+06
1.47871e+06
1.47151e+06
1.46432e+06
1.45715e+06
1.45e+06
1.44286e+06
1.43574e+06
1.42864e+06
1.42155e+06
1.41449e+06
1.40744e+06
1.4004e+06
1.39339e+06
1.38639e+06
1.37941e+06
1.37244e+06
1.3655e+06
1.35857e+06
1.35165e+06
1.34476e+06
1.33788e+06
1.33102e+06
1.32417e+06
1.31735e+06
1.31054e+06
1.30374e+06
1.29696e+06
1.2902e+06
1.28346e+06
1.27673e+06
1.27002e+06
1.26333e+06
1.25665e+06
1.24999e+06
1.24335e+06
1.23672e+06
1.23011e+06
1.22352e+06
1.21694e+06
1.21038e+06
1.20384e+06
1.19731e+06
1.19079e+06
1.1843e+06
1.17782e+06
1.17135e+06
1.1649e+06
1.15847e+06
1.15205e+06
1.14565e+06
1.13927e+06
1.13289e+06
1.12654e+06
1.1202e+06
1.11387e+06
1.10756e+06
1.10127e+06
1.09499e+06
1.08872e+06
1.08247e+06
1.07623e+06
1.07001e+06
1.0638e+06
1.0576e+06
1.05142e+06
1.04525e+06
1.0391e+06
1.03295e+06
1.02682e+06
1.02071e+06
1.0146e+06
1.00851e+06
1.00243e+06
996358
990299
984252
978215
972188
966170
960163
954163
948174
942190
936216
930246
924285
918327
912377
906428
900485
894542
888603
882662
876724
870781
864838
858888
852935
846973
841002
835021
829026
823017
816988
810941
804865
798768
792632
786467
780253
774000
767686
761314
754871
748346
741733
735004
728170
721171
714038
706688
699146
691334
683238
674811
665980
656805
647231
4.2598e+06
4.23536e+06
4.21169e+06
4.18889e+06
4.16712e+06
4.14625e+06
4.12622e+06
4.10695e+06
4.08835e+06
4.07037e+06
4.05293e+06
4.03599e+06
4.01949e+06
4.0034e+06
3.98766e+06
3.97225e+06
3.95713e+06
3.94228e+06
3.92767e+06
3.91328e+06
3.8991e+06
3.88509e+06
3.87126e+06
3.85759e+06
3.84406e+06
3.83066e+06
3.8174e+06
3.80425e+06
3.79122e+06
3.77829e+06
3.76546e+06
3.75273e+06
3.74008e+06
3.72752e+06
3.71504e+06
3.70263e+06
3.6903e+06
3.67804e+06
3.66584e+06
3.6537e+06
3.64162e+06
3.6296e+06
3.61764e+06
3.60573e+06
3.59387e+06
3.58205e+06
3.57029e+06
3.55857e+06
3.54689e+06
3.53526e+06
3.52367e+06
3.51212e+06
3.5006e+06
3.48913e+06
3.47769e+06
3.46628e+06
3.45491e+06
3.44358e+06
3.43227e+06
3.421e+06
3.40976e+06
3.39855e+06
3.38737e+06
3.37622e+06
3.3651e+06
3.354e+06
3.34294e+06
3.3319e+06
3.32089e+06
3.3099e+06
3.29894e+06
3.28801e+06
3.2771e+06
3.26621e+06
3.25535e+06
3.24452e+06
3.2337e+06
3.22292e+06
3.21215e+06
3.20141e+06
3.19069e+06
3.18e+06
3.16932e+06
3.15868e+06
3.14805e+06
3.13745e+06
3.12686e+06
3.1163e+06
3.10577e+06
3.09525e+06
3.08476e+06
3.07429e+06
3.06384e+06
3.05342e+06
3.04301e+06
3.03263e+06
3.02227e+06
3.01193e+06
3.00161e+06
2.99131e+06
2.98104e+06
2.97078e+06
2.96055e+06
2.95033e+06
2.94014e+06
2.92997e+06
2.91981e+06
2.90968e+06
2.89957e+06
2.88947e+06
2.8794e+06
2.86934e+06
2.85931e+06
2.84929e+06
2.83929e+06
2.82932e+06
2.81936e+06
2.80942e+06
2.7995e+06
2.7896e+06
2.77972e+06
2.76985e+06
2.76001e+06
2.75018e+06
2.74038e+06
2.73059e+06
2.72082e+06
2.71107e+06
2.70133e+06
2.69162e+06
2.68192e+06
2.67225e+06
2.66258e+06
2.65294e+06
2.64332e+06
2.63371e+06
2.62412e+06
2.61455e+06
2.60499e+06
2.59545e+06