/*--------------------------------*- C++ -*----------------------------------*\
| =========                 |                                                 |
| \\      /  F ield         | OpenFOAM: The Open Source CFD Toolbox           |
|  \\    /   O peration     | Version:  2.4.0                                 |
|   \\  /    A nd           | Web:      www.OpenFOAM.org                      |
|    \\/     M anipulation  |                                                 |
\*---------------------------------------------------------------------------*/
FoamFile
{
    version     2.0;
    format      ascii;
    class       volSymmTensorField;
    location    "0.08";
    object      UPrime2Mean;
}
// * * * * * * * * * * * * * * * * * * * * * * * * * * * * * * * * * * * * * //

dimensions      [0 2 -2 0 0 0 0];

internalField   nonuniform List<symmTensor> 
17600
(
(0.0350836 0.00172939 0 0.000184982 0 0)
(0.00318164 -0.000645285 0 0.00256808 0 0)
(0.0602893 -0.0144538 0 0.00428134 0 0)
(0.183511 -0.0240057 0 0.00346543 0 0)
(0.346582 -0.024996 0 0.00192018 0 0)
(0.542598 -0.0198821 0 0.000783633 0 0)
(0.750445 -0.0117618 0 0.000223885 0 0)
(0.946364 -0.00362704 0 3.98253e-05 0 0)
(1.11232 0.00297767 0 2.46839e-05 0 0)
(1.2411 0.00719441 0 6.11408e-05 0 0)
(1.3379 0.00903811 0 9.14557e-05 0 0)
(1.40737 0.00906548 0 9.47375e-05 0 0)
(1.45983 0.00809351 0 7.89738e-05 0 0)
(1.49777 0.00679586 0 6.15064e-05 0 0)
(1.52973 0.00552587 0 4.3114e-05 0 0)
(1.55393 0.00434545 0 3.32008e-05 0 0)
(1.57704 0.00334917 0 2.47735e-05 0 0)
(1.59556 0.00246863 0 1.45288e-05 0 0)
(1.61406 0.00178595 0 1.21583e-05 0 0)
(1.63075 0.00118631 0 8.58099e-06 0 0)
(1.64569 0.000833052 0 7.94536e-06 0 0)
(1.66349 0.000404816 0 7.72836e-06 0 0)
(1.67447 0.000252369 0 8.46708e-06 0 0)
(1.69625 -6.46834e-05 0 7.34582e-06 0 0)
(1.70148 -0.000166901 0 8.47199e-06 0 0)
(1.73098 -0.000310543 0 9.15037e-06 0 0)
(1.72734 -0.000657667 0 1.34151e-05 0 0)
(1.76973 -0.000414176 0 1.4423e-05 0 0)
(1.75501 -0.00159388 0 3.07689e-05 0 0)
(1.81433 -0.000472165 0 2.90931e-05 0 0)
(1.79716 -0.00365713 0 7.69948e-05 0 0)
(1.86156 -1.61268e-05 0 8.09737e-05 0 0)
(1.89429 -0.00992869 0 0.000249947 0 0)
(1.89714 0.00561511 0 0.000418894 0 0)
(2.14681 -0.0382515 0 0.00165547 0 0)
(1.9212 0.0378156 0 0.0039188 0 0)
(2.74547 -0.153965 0 0.0137101 0 0)
(2.11958 0.152157 0 0.0280635 0 0)
(4.16968 -0.597328 0 0.102652 0 0)
(3.75213 0.20197 0 0.0317938 0 0)
(0.0353976 0.0029077 0 0.000384003 0 0)
(0.006488 0.00456343 0 0.0033402 0 0)
(0.000603587 0.00169487 0 0.00831619 0 0)
(0.0011649 -0.00211253 0 0.0124144 0 0)
(0.00441327 -0.00591964 0 0.0138062 0 0)
(0.0100757 -0.0105439 0 0.0130292 0 0)
(0.0234219 -0.0160144 0 0.0112705 0 0)
(0.0488141 -0.0206747 0 0.00910865 0 0)
(0.0879354 -0.0234472 0 0.00695765 0 0)
(0.137065 -0.023513 0 0.00492901 0 0)
(0.194759 -0.0221169 0 0.00335927 0 0)
(0.255607 -0.0195971 0 0.0021792 0 0)
(0.321469 -0.0174843 0 0.00145191 0 0)
(0.385545 -0.0151533 0 0.000977292 0 0)
(0.452726 -0.0134531 0 0.000660945 0 0)
(0.515881 -0.0118617 0 0.000513187 0 0)
(0.577994 -0.0104618 0 0.000357018 0 0)
(0.640326 -0.00957435 0 0.000352654 0 0)
(0.690344 -0.0082809 0 0.000219449 0 0)
(0.75815 -0.00844798 0 0.000251474 0 0)
(0.78699 -0.00699425 0 0.000154446 0 0)
(0.869102 -0.00828485 0 0.000226659 0 0)
(0.870448 -0.00594929 0 0.000123502 0 0)
(0.975067 -0.00935003 0 0.000271353 0 0)
(0.943771 -0.00445241 0 0.000137706 0 0)
(1.0781 -0.0121157 0 0.000383224 0 0)
(1.0121 -0.00164844 0 0.000190299 0 0)
(1.17712 -0.0179626 0 0.000649119 0 0)
(1.08492 0.00346791 0 0.000418357 0 0)
(1.26971 -0.0291567 0 0.00129762 0 0)
(1.17927 0.0114614 0 0.00106036 0 0)
(1.35732 -0.0485341 0 0.00292282 0 0)
(1.32086 0.0211563 0 0.00262409 0 0)
(1.46059 -0.0788463 0 0.00671983 0 0)
(1.54677 0.0258119 0 0.00568667 0 0)
(1.65509 -0.130412 0 0.0160041 0 0)
(1.93283 0.00122045 0 0.00976074 0 0)
(2.1223 -0.252608 0 0.0463983 0 0)
(2.63258 -0.179044 0 0.018986 0 0)
(2.96882 -0.710049 0 0.299199 0 0)
(0.0355277 0.00212827 0 0.000207508 0 0)
(0.00661779 0.00366248 0 0.00221804 0 0)
(0.00172455 0.00269523 0 0.00624272 0 0)
(0.00248761 0.00383662 0 0.0104532 0 0)
(0.00800293 0.00751875 0 0.0126501 0 0)
(0.0152131 0.0113057 0 0.0128108 0 0)
(0.0199501 0.0130512 0 0.0117508 0 0)
(0.0212782 0.0124511 0 0.0103275 0 0)
(0.019894 0.0102014 0 0.00877037 0 0)
(0.0173977 0.00739414 0 0.00725337 0 0)
(0.0144853 0.00469209 0 0.00579673 0 0)
(0.011708 0.0025543 0 0.00463931 0 0)
(0.0101841 0.000725033 0 0.00378275 0 0)
(0.00941136 -0.000913793 0 0.00307183 0 0)
(0.0109815 -0.00212321 0 0.00278055 0 0)
(0.014365 -0.00372818 0 0.00234193 0 0)
(0.018427 -0.00451843 0 0.0022963 0 0)
(0.0275802 -0.00564697 0 0.00171441 0 0)
(0.031945 -0.00595007 0 0.00179452 0 0)
(0.0493173 -0.0068882 0 0.00146842 0 0)
(0.050263 -0.00710741 0 0.00143046 0 0)
(0.077924 -0.00778907 0 0.00121329 0 0)
(0.0735276 -0.00814817 0 0.00124985 0 0)
(0.112234 -0.00847828 0 0.00108038 0 0)
(0.101244 -0.0091992 0 0.00116541 0 0)
(0.152032 -0.0089422 0 0.00106081 0 0)
(0.134025 -0.0104111 0 0.00113028 0 0)
(0.196287 -0.00948077 0 0.00110338 0 0)
(0.172587 -0.012053 0 0.00119746 0 0)
(0.24494 -0.010371 0 0.00118983 0 0)
(0.219386 -0.0149858 0 0.00150947 0 0)
(0.300876 -0.0130016 0 0.00150015 0 0)
(0.27954 -0.0208489 0 0.00242648 0 0)
(0.373132 -0.0202178 0 0.00242585 0 0)
(0.365477 -0.0333601 0 0.005213 0 0)
(0.48317 -0.0403196 0 0.00537426 0 0)
(0.510101 -0.069027 0 0.0165575 0 0)
(0.685006 -0.118193 0 0.0252277 0 0)
(0.767968 -0.213581 0 0.095834 0 0)
(0.939063 -0.419628 0 0.284384 0 0)
(0.0359367 0.00157341 0 0.000166386 0 0)
(0.00668152 0.00277301 0 0.0014271 0 0)
(0.00191002 0.00182604 0 0.00394701 0 0)
(0.00201391 0.00240264 0 0.0067152 0 0)
(0.00700005 0.00567209 0 0.00833712 0 0)
(0.0159083 0.00965081 0 0.00856262 0 0)
(0.0268703 0.0132275 0 0.00813135 0 0)
(0.0372084 0.0148074 0 0.00711268 0 0)
(0.0471479 0.0156196 0 0.00642262 0 0)
(0.0548394 0.0147529 0 0.00544382 0 0)
(0.0623661 0.0143753 0 0.005073 0 0)
(0.0669352 0.0130453 0 0.00414344 0 0)
(0.0720548 0.0129828 0 0.00397712 0 0)
(0.0734597 0.0116162 0 0.00336369 0 0)
(0.0766849 0.0118961 0 0.00314115 0 0)
(0.0758257 0.0100568 0 0.00303461 0 0)
(0.0780178 0.010547 0 0.00263201 0 0)
(0.0760232 0.00861385 0 0.00294739 0 0)
(0.07775 0.00921884 0 0.00202302 0 0)
(0.0750543 0.00735034 0 0.0027561 0 0)
(0.0761661 0.00796857 0 0.00170342 0 0)
(0.0729131 0.00646085 0 0.0025117 0 0)
(0.0734424 0.00674402 0 0.00152073 0 0)
(0.0696914 0.00570211 0 0.0025541 0 0)
(0.0693198 0.00584317 0 0.00140668 0 0)
(0.0657531 0.00509536 0 0.00266611 0 0)
(0.0645814 0.00485626 0 0.00141321 0 0)
(0.0608528 0.00460864 0 0.00292077 0 0)
(0.058775 0.00401189 0 0.0015371 0 0)
(0.05517 0.00452277 0 0.00329522 0 0)
(0.0519905 0.00356059 0 0.00196324 0 0)
(0.0482083 0.00486898 0 0.00410505 0 0)
(0.0433884 0.00377507 0 0.00300208 0 0)
(0.0388749 0.00566251 0 0.00620474 0 0)
(0.0321384 0.00478074 0 0.00592571 0 0)
(0.0274442 0.00549231 0 0.0131643 0 0)
(0.0212082 0.00399695 0 0.0183671 0 0)
(0.0209898 -0.00168039 0 0.0418115 0 0)
(0.022488 -0.00818525 0 0.0879179 0 0)
(0.0290653 -0.0188286 0 0.187987 0 0)
(0.0355503 0.00136863 0 0.000193912 0 0)
(0.00627796 0.00201616 0 0.000944641 0 0)
(0.00152287 0.00128841 0 0.00261884 0 0)
(0.00128205 0.00140111 0 0.00397174 0 0)
(0.00478453 0.003589 0 0.00543921 0 0)
(0.0117288 0.00655694 0 0.00535197 0 0)
(0.020774 0.00942041 0 0.00546269 0 0)
(0.0308347 0.0109759 0 0.00456943 0 0)
(0.0408786 0.0119811 0 0.00420728 0 0)
(0.0509658 0.0117433 0 0.00348026 0 0)
(0.0601284 0.0118392 0 0.00333178 0 0)
(0.0694263 0.0113021 0 0.0028358 0 0)
(0.0771417 0.0114158 0 0.00277584 0 0)
(0.0852676 0.0111085 0 0.0022055 0 0)
(0.0915511 0.0110865 0 0.0023216 0 0)
(0.0988531 0.0108408 0 0.00203938 0 0)
(0.104136 0.0108887 0 0.00218499 0 0)
(0.112019 0.0104535 0 0.00182832 0 0)
(0.116597 0.0105156 0 0.00181571 0 0)
(0.125345 0.0099785 0 0.00175851 0 0)
(0.129149 0.010185 0 0.00151934 0 0)
(0.138437 0.00984013 0 0.00159881 0 0)
(0.14111 0.0100168 0 0.00143835 0 0)
(0.150698 0.0100616 0 0.0016905 0 0)
(0.151976 0.0102219 0 0.00138562 0 0)
(0.161585 0.0105576 0 0.00158251 0 0)
(0.16151 0.010417 0 0.00151073 0 0)
(0.170307 0.0113522 0 0.00170945 0 0)
(0.168429 0.0113699 0 0.00163826 0 0)
(0.176115 0.0130788 0 0.00195491 0 0)
(0.171797 0.0138297 0 0.00200822 0 0)
(0.177141 0.0169174 0 0.00265559 0 0)
(0.168864 0.0192522 0 0.00315514 0 0)
(0.169816 0.0253657 0 0.00495999 0 0)
(0.155555 0.0306986 0 0.00706979 0 0)
(0.14963 0.0429608 0 0.013804 0 0)
(0.127696 0.0533088 0 0.0242564 0 0)
(0.116585 0.0757949 0 0.0546854 0 0)
(0.103647 0.0944181 0 0.1026 0 0)
(0.143519 0.1636 0 0.225216 0 0)
(0.0353643 0.000750971 0 0.000215185 0 0)
(0.0061734 0.00190937 0 0.00106534 0 0)
(0.00136977 0.000684475 0 0.00142865 0 0)
(0.00103046 0.000972814 0 0.003168 0 0)
(0.00353797 0.00215375 0 0.00292702 0 0)
(0.00908413 0.00488959 0 0.00450216 0 0)
(0.0162137 0.00615807 0 0.00301119 0 0)
(0.0248672 0.00885542 0 0.00415313 0 0)
(0.0332255 0.00777084 0 0.00221855 0 0)
(0.0426949 0.0101648 0 0.00319843 0 0)
(0.0507501 0.00721175 0 0.00163997 0 0)
(0.0599009 0.0105143 0 0.0028161 0 0)
(0.0668514 0.00646506 0 0.00121253 0 0)
(0.0751749 0.0109567 0 0.00276003 0 0)
(0.0810868 0.00595436 0 0.000689035 0 0)
(0.0886113 0.0114337 0 0.00264197 0 0)
(0.0940779 0.00525384 0 0.00055639 0 0)
(0.102154 0.0120527 0 0.00271085 0 0)
(0.10769 0.00440539 0 0.00052867 0 0)
(0.116522 0.0125223 0 0.00236233 0 0)
(0.122223 0.00349188 0 0.000410061 0 0)
(0.131577 0.0131447 0 0.00225526 0 0)
(0.137185 0.00308395 0 0.000408394 0 0)
(0.146585 0.0141403 0 0.00237007 0 0)
(0.151939 0.00304273 0 0.000489885 0 0)
(0.16108 0.0153626 0 0.00223412 0 0)
(0.16612 0.00336006 0 0.000663652 0 0)
(0.174687 0.0168021 0 0.00240271 0 0)
(0.179005 0.00464892 0 0.000796893 0 0)
(0.186642 0.0192809 0 0.00277144 0 0)
(0.189669 0.00787277 0 0.00107871 0 0)
(0.195463 0.0240874 0 0.00373605 0 0)
(0.196001 0.0151427 0 0.00201532 0 0)
(0.198525 0.034244 0 0.00683447 0 0)
(0.195394 0.0310479 0 0.00581087 0 0)
(0.194756 0.0565639 0 0.0178977 0 0)
(0.191209 0.0657316 0 0.0244902 0 0)
(0.195389 0.109098 0 0.0671265 0 0)
(0.205965 0.145339 0 0.116426 0 0)
(0.21626 0.210289 0 0.239673 0 0)
(0.0353796 0.000799844 0 0.000104694 0 0)
(0.00594902 0.00114087 0 0.000408324 0 0)
(0.00135832 0.000547598 0 0.000890261 0 0)
(0.000877329 0.000420227 0 0.00133487 0 0)
(0.00286303 0.00145576 0 0.00200147 0 0)
(0.00727384 0.00301177 0 0.00203751 0 0)
(0.0133214 0.0046587 0 0.00229496 0 0)
(0.0205254 0.00544957 0 0.00178756 0 0)
(0.0281757 0.00638445 0 0.00178428 0 0)
(0.036358 0.00592263 0 0.00122215 0 0)
(0.0442677 0.00666032 0 0.00139789 0 0)
(0.0521899 0.00559403 0 0.000970532 0 0)
(0.0591025 0.00668767 0 0.00123925 0 0)
(0.0661412 0.00542031 0 0.000686608 0 0)
(0.0720992 0.00678519 0 0.00107349 0 0)
(0.0785563 0.00527474 0 0.000664018 0 0)
(0.0841893 0.00705013 0 0.00105192 0 0)
(0.0908755 0.00508307 0 0.000661125 0 0)
(0.0965803 0.00706858 0 0.000912781 0 0)
(0.10402 0.00477331 0 0.000590106 0 0)
(0.110115 0.00703526 0 0.000778286 0 0)
(0.118361 0.00465198 0 0.000492966 0 0)
(0.124155 0.00732603 0 0.000744274 0 0)
(0.132694 0.00497815 0 0.000631435 0 0)
(0.137987 0.00787687 0 0.000773726 0 0)
(0.146725 0.00565301 0 0.000599657 0 0)
(0.151384 0.00869333 0 0.000766299 0 0)
(0.1603 0.00680465 0 0.000801734 0 0)
(0.164089 0.0102479 0 0.000882363 0 0)
(0.172871 0.00937297 0 0.00104903 0 0)
(0.175428 0.0135251 0 0.00129706 0 0)
(0.183635 0.0146724 0 0.00173953 0 0)
(0.18438 0.0207619 0 0.00263773 0 0)
(0.191582 0.0261647 0 0.0042551 0 0)
(0.190557 0.0368427 0 0.00769536 0 0)
(0.197823 0.0506493 0 0.0139902 0 0)
(0.198021 0.0708874 0 0.027532 0 0)
(0.209044 0.0982718 0 0.0509145 0 0)
(0.214106 0.131801 0 0.0929903 0 0)
(0.220759 0.162755 0 0.141081 0 0)
(0.0354383 0.00041283 0 3.92475e-05 0 0)
(0.0058421 0.000860123 0 0.000240749 0 0)
(0.00138218 0.000270323 0 0.0003716 0 0)
(0.000841881 0.000229439 0 0.000761609 0 0)
(0.00252198 0.00085804 0 0.000850637 0 0)
(0.00623752 0.00200422 0 0.00122913 0 0)
(0.0115223 0.00286291 0 0.000975282 0 0)
(0.0178044 0.00388145 0 0.00115778 0 0)
(0.0249597 0.00379753 0 0.000706761 0 0)
(0.0323693 0.00454364 0 0.000840255 0 0)
(0.0400613 0.00369098 0 0.000487782 0 0)
(0.0472693 0.00462079 0 0.000692295 0 0)
(0.0541296 0.00340222 0 0.000397916 0 0)
(0.0604859 0.00475745 0 0.000668715 0 0)
(0.0664618 0.00335319 0 0.000306632 0 0)
(0.0720721 0.00500871 0 0.000614051 0 0)
(0.0777122 0.00313557 0 0.000262831 0 0)
(0.0835941 0.00505564 0 0.000617943 0 0)
(0.0893082 0.00294914 0 0.000342703 0 0)
(0.0958708 0.0051416 0 0.000537886 0 0)
(0.102124 0.00279421 0 0.000222659 0 0)
(0.109411 0.00523178 0 0.000514156 0 0)
(0.115597 0.0027856 0 0.000226506 0 0)
(0.12299 0.00572658 0 0.000559845 0 0)
(0.128805 0.00316484 0 0.000346746 0 0)
(0.136276 0.00642877 0 0.000539551 0 0)
(0.141677 0.0039453 0 0.000342743 0 0)
(0.149339 0.00758309 0 0.000691103 0 0)
(0.154376 0.00547603 0 0.000461589 0 0)
(0.161988 0.0100935 0 0.000917934 0 0)
(0.166461 0.00894198 0 0.000790847 0 0)
(0.174083 0.0152512 0 0.00166586 0 0)
(0.177972 0.0164411 0 0.00189702 0 0)
(0.185752 0.0264788 0 0.00421224 0 0)
(0.189641 0.0324724 0 0.0062665 0 0)
(0.199525 0.0499675 0 0.0134778 0 0)
(0.206659 0.065415 0 0.0226249 0 0)
(0.223796 0.0971766 0 0.0458055 0 0)
(0.238152 0.129644 0 0.0774887 0 0)
(0.24949 0.17663 0 0.137291 0 0)
(0.0354451 0.000337418 0 3.36702e-05 0 0)
(0.00572388 0.000435841 0 0.000107765 0 0)
(0.00136201 0.000200279 0 0.000190176 0 0)
(0.000830629 9.0806e-05 0 0.000255866 0 0)
(0.0023128 0.000491141 0 0.000389079 0 0)
(0.00558704 0.0010617 0 0.000417914 0 0)
(0.0103596 0.00172227 0 0.000464111 0 0)
(0.0160938 0.00203008 0 0.000384945 0 0)
(0.0228623 0.00240389 0 0.000358939 0 0)
(0.0298829 0.0022756 0 0.000260743 0 0)
(0.0373283 0.00254353 0 0.000283479 0 0)
(0.044179 0.00221416 0 0.0002329 0 0)
(0.0508905 0.0025407 0 0.000251389 0 0)
(0.0568239 0.00222884 0 0.000181245 0 0)
(0.062659 0.00256336 0 0.000223744 0 0)
(0.0679398 0.00219763 0 0.000184765 0 0)
(0.0735297 0.00258581 0 0.000206295 0 0)
(0.0789945 0.00214965 0 0.00020058 0 0)
(0.0846409 0.00256185 0 0.00020872 0 0)
(0.090698 0.00216931 0 0.000181575 0 0)
(0.0969155 0.00259107 0 0.000174831 0 0)
(0.103784 0.0022718 0 0.00018157 0 0)
(0.110095 0.00273505 0 0.00015719 0 0)
(0.116981 0.00257698 0 0.000206203 0 0)
(0.122918 0.00310483 0 0.000225533 0 0)
(0.129962 0.00324291 0 0.000240413 0 0)
(0.135534 0.003947 0 0.000237376 0 0)
(0.142893 0.00442255 0 0.000322929 0 0)
(0.148358 0.0055754 0 0.000387293 0 0)
(0.155981 0.00690384 0 0.000500324 0 0)
(0.16123 0.00914827 0 0.000737684 0 0)
(0.169442 0.0119555 0 0.00111142 0 0)
(0.174995 0.0163919 0 0.00186515 0 0)
(0.184558 0.0224697 0 0.00315697 0 0)
(0.191768 0.0315172 0 0.00586797 0 0)
(0.20541 0.0444914 0 0.0106189 0 0)
(0.218641 0.0633271 0 0.0200959 0 0)
(0.241721 0.0900931 0 0.0364577 0 0)
(0.262158 0.12477 0 0.0644992 0 0)
(0.269201 0.159774 0 0.103736 0 0)
(0.0354544 0.00029198 0 8.80899e-05 0 0)
(0.00571734 -1.97621e-05 0 0.000119512 0 0)
(0.00137313 0.000101974 0 0.000122034 0 0)
(0.000837227 -6.12278e-06 0 0.000103892 0 0)
(0.00223517 0.000180886 0 0.000170747 0 0)
(0.0053329 0.000246211 0 9.66473e-05 0 0)
(0.00986462 0.00069475 0 0.000184008 0 0)
(0.015359 0.000372309 0 9.034e-05 0 0)
(0.0219715 0.00110789 0 0.00016134 0 0)
(0.0288201 0.000238837 0 8.20929e-05 0 0)
(0.0361605 0.00139617 0 0.000158171 0 0)
(0.0428576 1.74285e-05 0 9.04642e-05 0 0)
(0.0495095 0.00154768 0 0.00015696 0 0)
(0.0553181 -0.00015573 0 7.95973e-05 0 0)
(0.0610973 0.00164222 0 0.000159708 0 0)
(0.0662089 -0.000237055 0 8.60791e-05 0 0)
(0.0717153 0.00166181 0 0.000153179 0 0)
(0.0770377 -0.000514628 0 8.9927e-05 0 0)
(0.0826796 0.00174678 0 0.000158818 0 0)
(0.0885646 -0.00054728 0 9.88803e-05 0 0)
(0.0948015 0.00204068 0 0.000154921 0 0)
(0.101396 -0.000436587 0 9.44486e-05 0 0)
(0.107754 0.00220821 0 0.000148935 0 0)
(0.114463 -0.000383779 0 9.46081e-05 0 0)
(0.120555 0.00258892 0 0.000165881 0 0)
(0.127409 0.000133289 0 0.00011329 0 0)
(0.133245 0.00334298 0 0.00018776 0 0)
(0.140509 0.00131897 0 0.000145958 0 0)
(0.146456 0.00492479 0 0.000288568 0 0)
(0.15428 0.00373145 0 0.000252812 0 0)
(0.160365 0.00836359 0 0.000589189 0 0)
(0.169207 0.00861924 0 0.000658496 0 0)
(0.176337 0.015134 0 0.00157251 0 0)
(0.187597 0.018325 0 0.00220509 0 0)
(0.197846 0.0288249 0 0.00482184 0 0)
(0.215361 0.0381177 0 0.00780526 0 0)
(0.233791 0.0575851 0 0.015819 0 0)
(0.26297 0.079471 0 0.0268045 0 0)
(0.288477 0.113897 0 0.049283 0 0)
(0.297449 0.146857 0 0.0799004 0 0)
(0.0354077 1.17093e-05 0 2.43155e-05 0 0)
(0.00573907 -0.000264429 0 9.10566e-05 0 0)
(0.00136384 -5.05436e-06 0 6.06528e-05 0 0)
(0.000847793 -4.31886e-05 0 8.15451e-05 0 0)
(0.00222765 -0.000117846 0 8.05602e-05 0 0)
(0.00533775 -0.000380897 0 0.000115261 0 0)
(0.0098285 -0.000426369 0 7.33205e-05 0 0)
(0.0153993 -0.000797145 0 0.000119243 0 0)
(0.0219139 -0.000553447 0 7.04688e-05 0 0)
(0.0289496 -0.000969521 0 9.88067e-05 0 0)
(0.0361075 -0.000448927 0 7.47467e-05 0 0)
(0.0429845 -0.000968909 0 0.000102658 0 0)
(0.0494303 -0.00041661 0 6.43395e-05 0 0)
(0.0554062 -0.000956322 0 9.6917e-05 0 0)
(0.0609759 -0.000527478 0 7.44485e-05 0 0)
(0.0662694 -0.00100635 0 9.87726e-05 0 0)
(0.071582 -0.000664126 0 8.79883e-05 0 0)
(0.0771886 -0.0010447 0 9.35015e-05 0 0)
(0.0826974 -0.000666163 0 8.47959e-05 0 0)
(0.0887978 -0.000808834 0 8.56064e-05 0 0)
(0.0948724 -0.000540068 0 8.85698e-05 0 0)
(0.101563 -0.00047224 0 9.21526e-05 0 0)
(0.107833 -0.000535453 0 9.5563e-05 0 0)
(0.114723 -0.000204517 0 8.97972e-05 0 0)
(0.120842 -0.000454903 0 9.37435e-05 0 0)
(0.127844 0.00051873 0 9.20562e-05 0 0)
(0.133936 9.03355e-05 0 0.000111063 0 0)
(0.14137 0.00199518 0 0.000143213 0 0)
(0.147723 0.00151618 0 0.00015008 0 0)
(0.155977 0.00467552 0 0.00030007 0 0)
(0.162791 0.00464155 0 0.000328697 0 0)
(0.172394 0.00974489 0 0.000765339 0 0)
(0.180862 0.0108292 0 0.00100965 0 0)
(0.193678 0.0191146 0 0.00227183 0 0)
(0.206436 0.0227437 0 0.00327226 0 0)
(0.227189 0.0366038 0 0.00679296 0 0)
(0.250756 0.0455931 0 0.0100783 0 0)
(0.285816 0.0706867 0 0.0197743 0 0)
(0.320757 0.0927842 0 0.0311376 0 0)
(0.328654 0.141155 0 0.0671361 0 0)
(0.0353542 6.12272e-05 0 0.000321587 0 0)
(0.00589156 -0.00106651 0 0.00123237 0 0)
(0.00137586 -2.06275e-05 0 0.00048212 0 0)
(0.000886562 -0.000313038 0 0.00111022 0 0)
(0.00231509 -0.000386403 0 0.000699783 0 0)
(0.00568555 -0.00145921 0 0.00147172 0 0)
(0.0103596 -0.00116599 0 0.000618314 0 0)
(0.0163455 -0.00314052 0 0.00158934 0 0)
(0.0229609 -0.00106956 0 0.000521503 0 0)
(0.0304031 -0.00426924 0 0.00139648 0 0)
(0.0375089 -0.000294506 0 0.000513241 0 0)
(0.0447577 -0.005077 0 0.00128539 0 0)
(0.0511158 0.000498742 0 0.000487143 0 0)
(0.0574556 -0.00591075 0 0.00135796 0 0)
(0.0629828 0.00100084 0 0.000370643 0 0)
(0.0685947 -0.00666823 0 0.00148959 0 0)
(0.0739189 0.00145126 0 0.000327356 0 0)
(0.0797794 -0.00736589 0 0.00149409 0 0)
(0.0854205 0.00216164 0 0.000329652 0 0)
(0.0916891 -0.007989 0 0.00139857 0 0)
(0.0979976 0.00311829 0 0.000332185 0 0)
(0.104642 -0.00865983 0 0.00136043 0 0)
(0.111264 0.00395962 0 0.000347496 0 0)
(0.118087 -0.00953421 0 0.00132992 0 0)
(0.124813 0.00490049 0 0.00035196 0 0)
(0.131658 -0.0099818 0 0.00120762 0 0)
(0.138696 0.00626601 0 0.000431343 0 0)
(0.145831 -0.00967781 0 0.00106509 0 0)
(0.153408 0.00846322 0 0.000597377 0 0)
(0.161445 -0.00816899 0 0.000830573 0 0)
(0.169976 0.0121035 0 0.00104998 0 0)
(0.179481 -0.00436284 0 0.000615924 0 0)
(0.190342 0.0186041 0 0.00210846 0 0)
(0.203432 0.00322167 0 0.000860693 0 0)
(0.219322 0.0299434 0 0.00472461 0 0)
(0.240684 0.0167241 0 0.00264994 0 0)
(0.268788 0.048391 0 0.0102847 0 0)
(0.308985 0.0377402 0 0.00749313 0 0)
(0.362494 0.0770312 0 0.0199311 0 0)
(0.394541 0.0778539 0 0.0210579 0 0)
(0.035313 -0.000292466 0 0.000103751 0 0)
(0.00623038 -0.0012272 0 0.000514814 0 0)
(0.00146701 -0.00014375 0 0.000388874 0 0)
(0.0010366 -0.000480105 0 0.00101218 0 0)
(0.00253735 -0.000769448 0 0.000858236 0 0)
(0.00647525 -0.00233708 0 0.00165489 0 0)
(0.0115607 -0.00258071 0 0.000891541 0 0)
(0.0183771 -0.00452457 0 0.00168029 0 0)
(0.0252093 -0.00314725 0 0.000646314 0 0)
(0.0334337 -0.00554202 0 0.00136957 0 0)
(0.0404366 -0.00263018 0 0.000492122 0 0)
(0.0485278 -0.0060087 0 0.00119097 0 0)
(0.0544805 -0.00194033 0 0.000405398 0 0)
(0.0618109 -0.00653556 0 0.00121889 0 0)
(0.0668385 -0.00151184 0 0.000264923 0 0)
(0.0734735 -0.00712078 0 0.00129621 0 0)
(0.0782917 -0.00110912 0 0.000205618 0 0)
(0.0852702 -0.00757844 0 0.00128346 0 0)
(0.0903128 -0.000439597 0 0.000181961 0 0)
(0.0978571 -0.00795412 0 0.00118121 0 0)
(0.103402 0.000394574 0 0.000159951 0 0)
(0.111331 -0.00842664 0 0.00112422 0 0)
(0.117162 0.00112916 0 0.000133086 0 0)
(0.125396 -0.00906225 0 0.00110553 0 0)
(0.131361 0.00198838 0 0.000137737 0 0)
(0.13973 -0.0093589 0 0.000989666 0 0)
(0.146162 0.0033162 0 0.000175043 0 0)
(0.154822 -0.00900042 0 0.000853282 0 0)
(0.162048 0.00554016 0 0.000308271 0 0)
(0.171662 -0.00754644 0 0.000623191 0 0)
(0.180296 0.0092122 0 0.000688474 0 0)
(0.191569 -0.00400977 0 0.000443335 0 0)
(0.203132 0.015663 0 0.00153686 0 0)
(0.218085 0.00283211 0 0.000627314 0 0)
(0.235311 0.0262926 0 0.00361969 0 0)
(0.258236 0.0140155 0 0.00198042 0 0)
(0.286523 0.0418809 0 0.00768105 0 0)
(0.324331 0.0285148 0 0.00509741 0 0)
(0.373709 0.0627771 0 0.0138748 0 0)
(0.477354 0.0555417 0 0.0119205 0 0)
(0.0353253 -0.000699071 0 3.2442e-05 0 0)
(0.00614995 -0.00100609 0 0.00027288 0 0)
(0.00140878 -0.000523352 0 0.000718607 0 0)
(0.000952811 -0.000415387 0 0.00125772 0 0)
(0.00286937 -0.00146842 0 0.00191844 0 0)
(0.0073813 -0.00303804 0 0.00198758 0 0)
(0.0133645 -0.00465451 0 0.00217994 0 0)
(0.020758 -0.00547684 0 0.0016984 0 0)
(0.0284154 -0.00638101 0 0.00171066 0 0)
(0.0368529 -0.0060615 0 0.00120626 0 0)
(0.0445914 -0.00665791 0 0.00130708 0 0)
(0.0526962 -0.00578185 0 0.000935065 0 0)
(0.0594138 -0.0066298 0 0.00111181 0 0)
(0.0666368 -0.00553871 0 0.000735584 0 0)
(0.0724558 -0.00682132 0 0.000993923 0 0)
(0.0790285 -0.00546461 0 0.00059108 0 0)
(0.0846477 -0.00700061 0 0.000978553 0 0)
(0.0915555 -0.00525648 0 0.000524756 0 0)
(0.0974248 -0.00703484 0 0.000914578 0 0)
(0.10496 -0.00488345 0 0.000441525 0 0)
(0.11122 -0.0071935 0 0.000843039 0 0)
(0.119247 -0.00460604 0 0.00029911 0 0)
(0.125737 -0.00751778 0 0.000805758 0 0)
(0.134161 -0.00437859 0 0.000264515 0 0)
(0.140765 -0.00784834 0 0.000819213 0 0)
(0.149579 -0.00384536 0 0.000210576 0 0)
(0.156547 -0.00775343 0 0.000752797 0 0)
(0.166021 -0.0027285 0 0.000193556 0 0)
(0.173718 -0.00684656 0 0.000625111 0 0)
(0.184499 -0.000587468 0 0.000168421 0 0)
(0.193711 -0.00452724 0 0.000552088 0 0)
(0.206718 0.00338798 0 0.00032873 0 0)
(0.21883 0.000330254 0 0.000621236 0 0)
(0.236019 0.0103801 0 0.000931598 0 0)
(0.25368 0.00874152 0 0.00141118 0 0)
(0.278925 0.0214021 0 0.00267052 0 0)
(0.307876 0.0219442 0 0.00370505 0 0)
(0.352357 0.0396549 0 0.00676747 0 0)
(0.414794 0.049669 0 0.0103647 0 0)
(0.557835 0.0981006 0 0.0220852 0 0)
(0.0350511 -0.000902246 0 6.00636e-05 0 0)
(0.00653233 -0.00164099 0 0.000473349 0 0)
(0.00119535 -0.000673814 0 0.00125419 0 0)
(0.0011242 -0.000982209 0 0.00250084 0 0)
(0.00338849 -0.00214 0 0.00315032 0 0)
(0.00921316 -0.00478909 0 0.00367207 0 0)
(0.0159539 -0.00644708 0 0.00328473 0 0)
(0.0251157 -0.0082644 0 0.00311528 0 0)
(0.0328825 -0.00849114 0 0.00251158 0 0)
(0.043083 -0.00917824 0 0.00234715 0 0)
(0.0504513 -0.00857146 0 0.00191026 0 0)
(0.0602946 -0.00899736 0 0.00187826 0 0)
(0.0664908 -0.00827254 0 0.00153077 0 0)
(0.0753602 -0.0088493 0 0.00153471 0 0)
(0.0805931 -0.00819178 0 0.00122424 0 0)
(0.08883 -0.00887201 0 0.00135289 0 0)
(0.0938792 -0.00812141 0 0.00110995 0 0)
(0.102383 -0.0087768 0 0.00125677 0 0)
(0.107794 -0.00788027 0 0.00100706 0 0)
(0.116792 -0.00863622 0 0.00112655 0 0)
(0.122636 -0.0077266 0 0.000833513 0 0)
(0.132049 -0.00867834 0 0.00096659 0 0)
(0.138169 -0.00773499 0 0.000685357 0 0)
(0.147821 -0.00881783 0 0.000884221 0 0)
(0.154306 -0.00769383 0 0.000685284 0 0)
(0.164101 -0.00876831 0 0.000861984 0 0)
(0.171168 -0.00728153 0 0.000626978 0 0)
(0.181517 -0.00819556 0 0.000735192 0 0)
(0.189601 -0.0061888 0 0.000525702 0 0)
(0.201032 -0.00662788 0 0.000550393 0 0)
(0.211014 -0.00386511 0 0.000420546 0 0)
(0.224595 -0.00341902 0 0.000510198 0 0)
(0.237781 0.000728958 0 0.000462359 0 0)
(0.25539 0.00272457 0 0.000712574 0 0)
(0.274494 0.00907886 0 0.00112788 0 0)
(0.300304 0.0137584 0 0.00190899 0 0)
(0.332011 0.0241996 0 0.00335979 0 0)
(0.377923 0.0340952 0 0.00548468 0 0)
(0.44715 0.0522218 0 0.00925986 0 0)
(0.590493 0.0741155 0 0.0142003 0 0)
(0.0348729 -0.00120369 0 0.000117591 0 0)
(0.00801213 -0.0019612 0 0.000763713 0 0)
(0.00131842 -0.000709137 0 0.00243166 0 0)
(0.00220523 -0.00178545 0 0.00384613 0 0)
(0.00455371 -0.0028313 0 0.00554339 0 0)
(0.0132436 -0.00718689 0 0.00522014 0 0)
(0.0194121 -0.00872875 0 0.00547588 0 0)
(0.0335404 -0.0113255 0 0.00426412 0 0)
(0.0379531 -0.0114725 0 0.00425696 0 0)
(0.0548248 -0.0119391 0 0.0032279 0 0)
(0.0561683 -0.0116699 0 0.00340104 0 0)
(0.0742046 -0.0113327 0 0.00253939 0 0)
(0.0723544 -0.0113598 0 0.00281964 0 0)
(0.0904331 -0.0108871 0 0.00194428 0 0)
(0.0860886 -0.0112417 0 0.00238808 0 0)
(0.104319 -0.0105746 0 0.00161672 0 0)
(0.0985905 -0.011145 0 0.0021988 0 0)
(0.117628 -0.0101023 0 0.0014877 0 0)
(0.111121 -0.0109172 0 0.00200992 0 0)
(0.131014 -0.00958599 0 0.00130553 0 0)
(0.123804 -0.0108249 0 0.00176281 0 0)
(0.144266 -0.00933434 0 0.00104012 0 0)
(0.13638 -0.0108845 0 0.00153617 0 0)
(0.156968 -0.00915116 0 0.000915077 0 0)
(0.148769 -0.0109421 0 0.00151214 0 0)
(0.169014 -0.00884489 0 0.000910218 0 0)
(0.161053 -0.0106668 0 0.0014055 0 0)
(0.180898 -0.00809619 0 0.000805342 0 0)
(0.173964 -0.00985732 0 0.0012128 0 0)
(0.193427 -0.00660895 0 0.000594741 0 0)
(0.188712 -0.00804435 0 0.000979023 0 0)
(0.20834 -0.00382422 0 0.000505427 0 0)
(0.207518 -0.00444598 0 0.000818752 0 0)
(0.228609 0.00151883 0 0.000601065 0 0)
(0.234627 0.00278241 0 0.00104651 0 0)
(0.26071 0.0120099 0 0.00160656 0 0)
(0.279971 0.0169577 0 0.00269366 0 0)
(0.321254 0.0310224 0 0.00473451 0 0)
(0.37526 0.0399616 0 0.00648391 0 0)
(0.499878 0.0542866 0 0.00862191 0 0)
(0.0348258 -0.00161884 0 0.000135092 0 0)
(0.0083064 -0.00296401 0 0.00130312 0 0)
(0.00147941 -0.00119351 0 0.0038897 0 0)
(0.00301871 -0.00328497 0 0.00653191 0 0)
(0.00642388 -0.00448314 0 0.00850303 0 0)
(0.018427 -0.0110194 0 0.00839456 0 0)
(0.0242888 -0.0118985 0 0.00817408 0 0)
(0.0422836 -0.0160014 0 0.00680998 0 0)
(0.041929 -0.0143818 0 0.00641929 0 0)
(0.0624603 -0.015804 0 0.00519411 0 0)
(0.054952 -0.0133274 0 0.00506693 0 0)
(0.076664 -0.0141374 0 0.00390371 0 0)
(0.0628735 -0.0118264 0 0.0040224 0 0)
(0.0845125 -0.0127622 0 0.00289179 0 0)
(0.0662309 -0.0106124 0 0.00336301 0 0)
(0.087749 -0.0113494 0 0.0023572 0 0)
(0.0669199 -0.0094074 0 0.00302789 0 0)
(0.0885265 -0.0097743 0 0.0020279 0 0)
(0.0662773 -0.00821517 0 0.00271987 0 0)
(0.0876885 -0.00829374 0 0.00165628 0 0)
(0.0646508 -0.00724508 0 0.00236385 0 0)
(0.0853618 -0.0070605 0 0.00129044 0 0)
(0.0621903 -0.00649127 0 0.00206634 0 0)
(0.0818269 -0.00587767 0 0.00109229 0 0)
(0.059285 -0.00573024 0 0.00192646 0 0)
(0.0774254 -0.00462426 0 0.00104921 0 0)
(0.0562916 -0.00491808 0 0.00172871 0 0)
(0.0728805 -0.00322066 0 0.00092055 0 0)
(0.0538819 -0.0040236 0 0.00143398 0 0)
(0.0689839 -0.00163449 0 0.000724648 0 0)
(0.0528972 -0.00290104 0 0.00111332 0 0)
(0.0670045 0.000376445 0 0.00060352 0 0)
(0.0545542 -0.00132838 0 0.000820843 0 0)
(0.0687714 0.00337386 0 0.000672897 0 0)
(0.0611121 0.00151009 0 0.00068953 0 0)
(0.0778948 0.00882812 0 0.00150537 0 0)
(0.0775952 0.00777968 0 0.00153506 0 0)
(0.102536 0.0206747 0 0.00492124 0 0)
(0.119616 0.0227631 0 0.00544999 0 0)
(0.184859 0.0432589 0 0.0111131 0 0)
(0.0349449 -0.00213517 0 0.000202363 0 0)
(0.00695166 -0.00376677 0 0.00217322 0 0)
(0.0013102 -0.00240573 0 0.0062431 0 0)
(0.00267808 -0.00432021 0 0.0103463 0 0)
(0.00748166 -0.0068323 0 0.0127333 0 0)
(0.016067 -0.0121782 0 0.0127123 0 0)
(0.018587 -0.0121711 0 0.0118298 0 0)
(0.0229295 -0.0133791 0 0.0101802 0 0)
(0.0179334 -0.00929186 0 0.00882237 0 0)
(0.0192491 -0.0083273 0 0.00705945 0 0)
(0.0126037 -0.00376592 0 0.00586456 0 0)
(0.0129592 -0.00358804 0 0.00445521 0 0)
(0.00934591 0.000365525 0 0.00382703 0 0)
(0.0089538 -0.000284007 0 0.00292786 0 0)
(0.012366 0.00345512 0 0.0027747 0 0)
(0.0107681 0.00231052 0 0.00216078 0 0)
(0.0235599 0.00581684 0 0.00219184 0 0)
(0.0195921 0.0041627 0 0.00165229 0 0)
(0.0424515 0.00746367 0 0.00173982 0 0)
(0.0349866 0.00536618 0 0.00124433 0 0)
(0.06771 0.00861374 0 0.00136295 0 0)
(0.0562518 0.00617633 0 0.000923272 0 0)
(0.0982448 0.0094595 0 0.00109102 0 0)
(0.0831196 0.00676841 0 0.000737389 0 0)
(0.133159 0.010074 0 0.000931669 0 0)
(0.115045 0.00711578 0 0.000643746 0 0)
(0.171162 0.0102206 0 0.000767137 0 0)
(0.150927 0.00703433 0 0.00052183 0 0)
(0.210743 0.00977808 0 0.000576056 0 0)
(0.188875 0.0063943 0 0.000385236 0 0)
(0.249868 0.00855766 0 0.000401772 0 0)
(0.226481 0.00496506 0 0.000296246 0 0)
(0.2853 0.0060889 0 0.000271421 0 0)
(0.259715 0.00205932 0 0.000336258 0 0)
(0.311273 0.00164816 0 0.00027576 0 0)
(0.281801 -0.00282873 0 0.000806583 0 0)
(0.317444 -0.00432121 0 0.000849201 0 0)
(0.282776 -0.00694818 0 0.00245708 0 0)
(0.295075 -0.00390535 0 0.00268507 0 0)
(0.262265 0.0026521 0 0.00492398 0 0)
(0.0352917 -0.00291717 0 0.000382734 0 0)
(0.00655917 -0.00458136 0 0.00332483 0 0)
(0.000539691 -0.00162293 0 0.00832346 0 0)
(0.00109336 0.00195124 0 0.0123684 0 0)
(0.00463669 0.00613247 0 0.0138536 0 0)
(0.00948923 0.0102581 0 0.0130334 0 0)
(0.0244724 0.0163927 0 0.0113353 0 0)
(0.0471638 0.0203247 0 0.00907772 0 0)
(0.0906248 0.0238921 0 0.00698112 0 0)
(0.133581 0.0230727 0 0.00487108 0 0)
(0.199879 0.0225827 0 0.00336722 0 0)
(0.249673 0.0191319 0 0.00212153 0 0)
(0.329858 0.0180194 0 0.00146006 0 0)