/*--------------------------------*- C++ -*----------------------------------*\
| =========                 |                                                 |
| \\      /  F ield         | OpenFOAM: The Open Source CFD Toolbox           |
|  \\    /   O peration     | Version:  2.4.0                                 |
|   \\  /    A nd           | Web:      www.OpenFOAM.org                      |
|    \\/     M anipulation  |                                                 |
\*---------------------------------------------------------------------------*/
FoamFile
{
    version     2.0;
    format      ascii;
    class       volScalarField;
    location    "0.037";
    object      pPrime2Mean;
}
// * * * * * * * * * * * * * * * * * * * * * * * * * * * * * * * * * * * * * //

dimensions      [0 4 -4 0 0 0 0];

internalField   nonuniform List<scalar> 
17600
(
1.74573e+07
1.70171e+07
1.65438e+07
1.60747e+07
1.56123e+07
1.51566e+07
1.47077e+07
1.42655e+07
1.383e+07
1.34012e+07
1.29791e+07
1.25636e+07
1.21546e+07
1.17518e+07
1.13549e+07
1.0963e+07
1.05747e+07
1.01869e+07
9.79269e+06
9.36865e+06
1.74576e+07
1.70171e+07
1.65438e+07
1.60747e+07
1.56123e+07
1.51566e+07
1.47077e+07
1.42655e+07
1.383e+07
1.34012e+07
1.29791e+07
1.25636e+07
1.21546e+07
1.17518e+07
1.13549e+07
1.09631e+07
1.05748e+07
1.01871e+07
9.79326e+06
9.36965e+06
1.74579e+07
1.70171e+07
1.65438e+07
1.60747e+07
1.56123e+07
1.51566e+07
1.47077e+07
1.42655e+07
1.383e+07
1.34012e+07
1.29791e+07
1.25636e+07
1.21546e+07
1.17518e+07
1.13549e+07
1.09632e+07
1.0575e+07
1.01876e+07
9.79426e+06
9.37393e+06
1.74581e+07
1.7017e+07
1.65438e+07
1.60747e+07
1.56123e+07
1.51566e+07
1.47077e+07
1.42655e+07
1.383e+07
1.34012e+07
1.29791e+07
1.25636e+07
1.21546e+07
1.17519e+07
1.1355e+07
1.09633e+07
1.05753e+07
1.01883e+07
9.79581e+06
9.37996e+06
1.74583e+07
1.7017e+07
1.65437e+07
1.60747e+07
1.56123e+07
1.51566e+07
1.47077e+07
1.42655e+07
1.383e+07
1.34012e+07
1.29791e+07
1.25636e+07
1.21546e+07
1.17519e+07
1.13551e+07
1.09635e+07
1.05758e+07
1.01891e+07
9.79783e+06
9.38719e+06
1.74584e+07
1.70169e+07
1.65437e+07
1.60747e+07
1.56123e+07
1.51566e+07
1.47077e+07
1.42655e+07
1.383e+07
1.34012e+07
1.29791e+07
1.25637e+07
1.21547e+07
1.1752e+07
1.13553e+07
1.09638e+07
1.05763e+07
1.01902e+07
9.80029e+06
9.39512e+06
1.74585e+07
1.70168e+07
1.65436e+07
1.60747e+07
1.56123e+07
1.51566e+07
1.47077e+07
1.42655e+07
1.383e+07
1.34012e+07
1.29792e+07
1.25637e+07
1.21547e+07
1.17521e+07
1.13554e+07
1.09641e+07
1.05769e+07
1.01914e+07
9.80311e+06
9.40344e+06
1.74587e+07
1.70168e+07
1.65436e+07
1.60747e+07
1.56123e+07
1.51566e+07
1.47077e+07
1.42655e+07
1.383e+07
1.34013e+07
1.29792e+07
1.25637e+07
1.21548e+07
1.17522e+07
1.13556e+07
1.09644e+07
1.05775e+07
1.01928e+07
9.80624e+06
9.41193e+06
1.74588e+07
1.70168e+07
1.65435e+07
1.60746e+07
1.56122e+07
1.51566e+07
1.47077e+07
1.42655e+07
1.383e+07
1.34013e+07
1.29792e+07
1.25637e+07
1.21548e+07
1.17523e+07
1.13558e+07
1.09648e+07
1.05783e+07
1.01943e+07
9.8096e+06
9.42045e+06
1.74589e+07
1.70167e+07
1.65435e+07
1.60746e+07
1.56122e+07
1.51566e+07
1.47077e+07
1.42655e+07
1.383e+07
1.34013e+07
1.29792e+07
1.25638e+07
1.21549e+07
1.17524e+07
1.1356e+07
1.09652e+07
1.05791e+07
1.0196e+07
9.81316e+06
9.42888e+06
1.7459e+07
1.70167e+07
1.65434e+07
1.60746e+07
1.56122e+07
1.51566e+07
1.47077e+07
1.42655e+07
1.383e+07
1.34013e+07
1.29792e+07
1.25638e+07
1.2155e+07
1.17525e+07
1.13563e+07
1.09657e+07
1.058e+07
1.01977e+07
9.81686e+06
9.43717e+06
1.74591e+07
1.70167e+07
1.65434e+07
1.60746e+07
1.56123e+07
1.51566e+07
1.47077e+07
1.42655e+07
1.383e+07
1.34013e+07
1.29792e+07
1.25639e+07
1.2155e+07
1.17527e+07
1.13565e+07
1.09662e+07
1.05809e+07
1.01996e+07
9.82066e+06
9.44526e+06
1.74591e+07
1.70167e+07
1.65434e+07
1.60746e+07
1.56123e+07
1.51566e+07
1.47077e+07
1.42655e+07
1.383e+07
1.34013e+07
1.29793e+07
1.25639e+07
1.21551e+07
1.17528e+07
1.13568e+07
1.09667e+07
1.05819e+07
1.02015e+07
9.82451e+06
9.45311e+06
1.74592e+07
1.70167e+07
1.65433e+07
1.60746e+07
1.56123e+07
1.51566e+07
1.47077e+07
1.42655e+07
1.383e+07
1.34013e+07
1.29793e+07
1.25639e+07
1.21552e+07
1.1753e+07
1.13571e+07
1.09673e+07
1.05829e+07
1.02034e+07
9.8284e+06
9.46069e+06
1.74592e+07
1.70167e+07
1.65433e+07
1.60746e+07
1.56123e+07
1.51566e+07
1.47077e+07
1.42655e+07
1.383e+07
1.34013e+07
1.29793e+07
1.2564e+07
1.21553e+07
1.17532e+07
1.13574e+07
1.09678e+07
1.0584e+07
1.02055e+07
9.83228e+06
9.46799e+06
1.74593e+07
1.70167e+07
1.65433e+07
1.60745e+07
1.56123e+07
1.51566e+07
1.47077e+07
1.42655e+07
1.383e+07
1.34013e+07
1.29794e+07
1.2564e+07
1.21554e+07
1.17533e+07
1.13577e+07
1.09684e+07
1.05851e+07
1.02075e+07
9.83613e+06
9.475e+06
1.74593e+07
1.70167e+07
1.65433e+07
1.60745e+07
1.56123e+07
1.51566e+07
1.47077e+07
1.42655e+07
1.383e+07
1.34014e+07
1.29794e+07
1.25641e+07
1.21555e+07
1.17535e+07
1.13581e+07
1.0969e+07
1.05862e+07
1.02095e+07
9.83992e+06
9.48171e+06
1.74593e+07
1.70167e+07
1.65433e+07
1.60745e+07
1.56123e+07
1.51566e+07
1.47077e+07
1.42655e+07
1.38301e+07
1.34014e+07
1.29794e+07
1.25642e+07
1.21556e+07
1.17537e+07
1.13584e+07
1.09696e+07
1.05873e+07
1.02116e+07
9.84365e+06
9.48812e+06
1.74594e+07
1.70167e+07
1.65433e+07
1.60745e+07
1.56123e+07
1.51566e+07
1.47077e+07
1.42655e+07
1.38301e+07
1.34014e+07
1.29794e+07
1.25642e+07
1.21557e+07
1.17539e+07
1.13587e+07
1.09702e+07
1.05884e+07
1.02136e+07
9.84729e+06
9.49422e+06
1.74594e+07
1.70167e+07
1.65433e+07
1.60745e+07
1.56123e+07
1.51566e+07
1.47077e+07
1.42655e+07
1.38301e+07
1.34014e+07
1.29795e+07
1.25643e+07
1.21558e+07
1.17541e+07
1.13591e+07
1.09708e+07
1.05895e+07
1.02156e+07
9.85082e+06
9.50002e+06
1.74594e+07
1.70167e+07
1.65433e+07
1.60745e+07
1.56123e+07
1.51566e+07
1.47077e+07
1.42655e+07
1.38301e+07
1.34014e+07
1.29795e+07
1.25643e+07
1.21559e+07
1.17542e+07
1.13594e+07
1.09714e+07
1.05906e+07
1.02176e+07
9.85424e+06
9.50551e+06
1.74594e+07
1.70167e+07
1.65433e+07
1.60745e+07
1.56123e+07
1.51566e+07
1.47077e+07
1.42655e+07
1.38301e+07
1.34014e+07
1.29795e+07
1.25644e+07
1.2156e+07
1.17544e+07
1.13597e+07
1.0972e+07
1.05917e+07
1.02195e+07
9.85753e+06
9.51071e+06
1.74593e+07
1.70167e+07
1.65433e+07
1.60745e+07
1.56123e+07
1.51566e+07
1.47077e+07
1.42655e+07
1.38301e+07
1.34015e+07
1.29796e+07
1.25644e+07
1.21561e+07
1.17546e+07
1.136e+07
1.09726e+07
1.05927e+07
1.02214e+07
9.86068e+06
9.51561e+06
1.74593e+07
1.70167e+07
1.65433e+07
1.60745e+07
1.56123e+07
1.51566e+07
1.47077e+07
1.42655e+07
1.38301e+07
1.34015e+07
1.29796e+07
1.25645e+07
1.21562e+07
1.17548e+07
1.13604e+07
1.09732e+07
1.05938e+07
1.02231e+07
9.86369e+06
9.52021e+06
1.74593e+07
1.70167e+07
1.65433e+07
1.60745e+07
1.56123e+07
1.51566e+07
1.47077e+07
1.42655e+07
1.38301e+07
1.34015e+07
1.29796e+07
1.25645e+07
1.21563e+07
1.17549e+07
1.13607e+07
1.09737e+07
1.05948e+07
1.02249e+07
9.86655e+06
9.52452e+06
1.74592e+07
1.70167e+07
1.65433e+07
1.60746e+07
1.56123e+07
1.51566e+07
1.47077e+07
1.42655e+07
1.38301e+07
1.34015e+07
1.29796e+07
1.25646e+07
1.21564e+07
1.17551e+07
1.1361e+07
1.09743e+07
1.05957e+07
1.02265e+07
9.86924e+06
9.52855e+06
1.74592e+07
1.70167e+07
1.65433e+07
1.60746e+07
1.56123e+07
1.51566e+07
1.47077e+07
1.42655e+07
1.38301e+07
1.34015e+07
1.29797e+07
1.25646e+07
1.21565e+07
1.17553e+07
1.13613e+07
1.09748e+07
1.05966e+07
1.02281e+07
9.87178e+06
9.53229e+06
1.74591e+07
1.70167e+07
1.65434e+07
1.60746e+07
1.56123e+07
1.51566e+07
1.47077e+07
1.42655e+07
1.38302e+07
1.34015e+07
1.29797e+07
1.25647e+07
1.21565e+07
1.17554e+07
1.13615e+07
1.09753e+07
1.05975e+07
1.02295e+07
9.87415e+06
9.53575e+06
1.74591e+07
1.70167e+07
1.65434e+07
1.60746e+07
1.56123e+07
1.51566e+07
1.47077e+07
1.42655e+07
1.38302e+07
1.34015e+07
1.29797e+07
1.25647e+07
1.21566e+07
1.17556e+07
1.13618e+07
1.09758e+07
1.05983e+07
1.02309e+07
9.87634e+06
9.53894e+06
1.7459e+07
1.70167e+07
1.65434e+07
1.60746e+07
1.56123e+07
1.51566e+07
1.47077e+07
1.42656e+07
1.38302e+07
1.34016e+07
1.29797e+07
1.25648e+07
1.21567e+07
1.17557e+07
1.1362e+07
1.09762e+07
1.0599e+07
1.02322e+07
9.87836e+06
9.54185e+06
1.74589e+07
1.70168e+07
1.65435e+07
1.60746e+07
1.56123e+07
1.51566e+07
1.47077e+07
1.42656e+07
1.38302e+07
1.34016e+07
1.29798e+07
1.25648e+07
1.21568e+07
1.17558e+07
1.13623e+07
1.09766e+07
1.05997e+07
1.02334e+07
9.88021e+06
9.54449e+06
1.74588e+07
1.70168e+07
1.65435e+07
1.60746e+07
1.56123e+07
1.51566e+07
1.47077e+07
1.42656e+07
1.38302e+07
1.34016e+07
1.29798e+07
1.25648e+07
1.21568e+07
1.17559e+07
1.13625e+07
1.0977e+07
1.06004e+07
1.02344e+07
9.88187e+06
9.54686e+06
1.74587e+07
1.70168e+07
1.65436e+07
1.60747e+07
1.56123e+07
1.51566e+07
1.47077e+07
1.42656e+07
1.38302e+07
1.34016e+07
1.29798e+07
1.25649e+07
1.21569e+07
1.17561e+07
1.13627e+07
1.09773e+07
1.06009e+07
1.02354e+07
9.88335e+06
9.54897e+06
1.74585e+07
1.70169e+07
1.65436e+07
1.60747e+07
1.56123e+07
1.51566e+07
1.47077e+07
1.42656e+07
1.38302e+07
1.34016e+07
1.29798e+07
1.25649e+07
1.21569e+07
1.17561e+07
1.13628e+07
1.09776e+07
1.06014e+07
1.02362e+07
9.88465e+06
9.55081e+06
1.74584e+07
1.70169e+07
1.65437e+07
1.60747e+07
1.56123e+07
1.51566e+07
1.47077e+07
1.42656e+07
1.38302e+07
1.34016e+07
1.29798e+07
1.25649e+07
1.2157e+07
1.17562e+07
1.1363e+07
1.09778e+07
1.06019e+07
1.02369e+07
9.88577e+06
9.55238e+06
1.74583e+07
1.7017e+07
1.65437e+07
1.60747e+07
1.56123e+07
1.51566e+07
1.47077e+07
1.42656e+07
1.38302e+07
1.34016e+07
1.29798e+07
1.25649e+07
1.2157e+07
1.17563e+07
1.13631e+07
1.0978e+07
1.06022e+07
1.02375e+07
9.8867e+06
9.55369e+06
1.74581e+07
1.7017e+07
1.65438e+07
1.60747e+07
1.56123e+07
1.51567e+07
1.47078e+07
1.42656e+07
1.38302e+07
1.34016e+07
1.29799e+07
1.2565e+07
1.21571e+07
1.17563e+07
1.13632e+07
1.09782e+07
1.06025e+07
1.0238e+07
9.88744e+06
9.55473e+06
1.74579e+07
1.70171e+07
1.65438e+07
1.60747e+07
1.56123e+07
1.51567e+07
1.47078e+07
1.42656e+07
1.38302e+07
1.34016e+07
1.29799e+07
1.2565e+07
1.21571e+07
1.17564e+07
1.13633e+07
1.09783e+07
1.06028e+07
1.02384e+07
9.88801e+06
9.55551e+06
1.74577e+07
1.70171e+07
1.65438e+07
1.60747e+07
1.56123e+07
1.51567e+07
1.47078e+07
1.42656e+07
1.38302e+07
1.34016e+07
1.29799e+07
1.2565e+07
1.21571e+07
1.17564e+07
1.13633e+07
1.09784e+07
1.06029e+07
1.02386e+07
9.88838e+06
9.55603e+06
1.74573e+07
1.70172e+07
1.65438e+07
1.60747e+07
1.56123e+07
1.51567e+07
1.47078e+07
1.42656e+07
1.38302e+07
1.34016e+07
1.29799e+07
1.2565e+07
1.21571e+07
1.17564e+07
1.13633e+07
1.09785e+07
1.0603e+07
1.02387e+07
9.88857e+06
9.55628e+06
8.96704e+06
8.87058e+06
8.79594e+06
8.73054e+06
8.66919e+06
8.61046e+06
8.55359e+06
8.49815e+06
8.44381e+06
8.39035e+06
8.33763e+06
8.28551e+06
8.2339e+06
8.18272e+06
8.13193e+06
8.08145e+06
8.03124e+06
7.98127e+06
7.93149e+06
7.88188e+06
7.83243e+06
7.78312e+06
7.73395e+06
7.68493e+06
7.63605e+06
7.58735e+06
7.53882e+06
7.49047e+06
7.44233e+06
7.39438e+06
7.34662e+06
7.29906e+06
7.25169e+06
7.2045e+06
7.1575e+06
7.11069e+06
7.06404e+06
7.01758e+06
6.97129e+06
6.92518e+06
6.87924e+06
6.83347e+06
6.78788e+06
6.74245e+06
6.69719e+06
6.65209e+06
6.60716e+06
6.56238e+06
6.51777e+06
6.47331e+06
6.42901e+06
6.38486e+06
6.34087e+06
6.29703e+06
6.25335e+06
6.20982e+06
6.16644e+06
6.12322e+06
6.08015e+06
6.03723e+06
5.99447e+06
5.95185e+06
5.90939e+06
5.86709e+06
5.82493e+06
5.78293e+06
5.74108e+06
5.69938e+06
5.65784e+06
5.61644e+06
5.5752e+06
5.53411e+06
5.49318e+06
5.45239e+06
5.41176e+06
5.37128e+06
5.33095e+06
5.29077e+06
5.25075e+06
5.21088e+06
5.17116e+06
5.13159e+06
5.09217e+06
5.05291e+06
5.0138e+06
4.97484e+06
4.93603e+06
4.89738e+06
4.85887e+06
4.82052e+06
4.78232e+06
4.74427e+06
4.70638e+06
4.66863e+06
4.63104e+06
4.5936e+06
4.55631e+06
4.51918e+06
4.48219e+06
4.44536e+06
4.40868e+06
4.37215e+06
4.33578e+06
4.29955e+06
4.26348e+06
4.22756e+06
4.19179e+06
4.15617e+06
4.12071e+06
4.0854e+06
4.05024e+06
4.01523e+06
3.98037e+06
3.94567e+06
3.91111e+06
3.87671e+06
3.84246e+06
3.80836e+06
3.77442e+06
3.74063e+06
3.70698e+06
3.6735e+06
3.64016e+06
3.60697e+06
3.57394e+06
3.54106e+06
3.50833e+06
3.47575e+06
3.44332e+06
3.41105e+06
3.37892e+06
3.34695e+06
3.31513e+06
3.28347e+06
3.25195e+06
3.22059e+06
3.18937e+06
3.15831e+06
3.12741e+06
3.09665e+06
3.06604e+06
3.03559e+06
3.00529e+06
2.97514e+06
2.94514e+06
2.9153e+06
2.8856e+06
2.85606e+06
2.82667e+06
2.79743e+06
2.76834e+06
2.7394e+06
2.71061e+06
2.68198e+06
2.6535e+06
2.62516e+06
2.59698e+06
2.56895e+06
2.54107e+06
2.51334e+06
2.48576e+06
2.45833e+06
2.43105e+06
2.40392e+06
2.37694e+06
2.35011e+06
2.32343e+06
2.2969e+06
2.27051e+06
2.24427e+06
2.21818e+06
2.19223e+06
2.16643e+06
2.14077e+06
2.11525e+06
2.08987e+06
2.06463e+06
2.03953e+06
2.01456e+06
1.98972e+06
1.96501e+06
1.94041e+06
1.91594e+06
1.89157e+06
1.86731e+06
1.84313e+06
1.81904e+06
1.79501e+06
1.77102e+06
1.74706e+06
1.72308e+06
1.69906e+06
1.67493e+06
1.65064e+06
1.62608e+06
1.60109e+06
1.57547e+06
1.54887e+06
1.52003e+06
1.48864e+06
9.01242e+06
8.9075e+06
8.82503e+06
8.7543e+06
8.68935e+06
8.62788e+06
8.56884e+06
8.5116e+06
8.45574e+06
8.40099e+06
8.34714e+06
8.29403e+06
8.24154e+06
8.18959e+06
8.13809e+06
8.08699e+06
8.03623e+06
7.98575e+06
7.93553e+06
7.88552e+06
7.83571e+06
7.78609e+06
7.73664e+06
7.68737e+06
7.63828e+06
7.58937e+06
7.54066e+06
7.49216e+06
7.44386e+06
7.39577e+06
7.34789e+06
7.30022e+06
7.25274e+06
7.20547e+06
7.15839e+06
7.11149e+06
7.06478e+06
7.01825e+06
6.9719e+06
6.92574e+06
6.87975e+06
6.83394e+06
6.7883e+06
6.74283e+06
6.69754e+06
6.65241e+06
6.60745e+06
6.56264e+06
6.518e+06
6.47352e+06
6.4292e+06
6.38504e+06
6.34103e+06
6.29718e+06
6.25348e+06
6.20994e+06
6.16655e+06
6.12332e+06
6.08024e+06
6.03731e+06
5.99454e+06
5.95192e+06
5.90945e+06
5.86714e+06
5.82498e+06
5.78297e+06
5.74112e+06
5.69942e+06
5.65787e+06
5.61647e+06
5.57523e+06
5.53414e+06
5.4932e+06
5.45241e+06
5.41178e+06
5.3713e+06
5.33097e+06
5.29079e+06
5.25076e+06
5.21089e+06
5.17117e+06
5.1316e+06
5.09218e+06
5.05292e+06
5.01381e+06
4.97484e+06
4.93604e+06
4.89738e+06
4.85888e+06
4.82052e+06
4.78232e+06
4.74428e+06
4.70638e+06
4.66863e+06
4.63104e+06
4.5936e+06
4.55631e+06
4.51918e+06
4.48219e+06
4.44536e+06
4.40868e+06
4.37215e+06
4.33578e+06
4.29955e+06
4.26348e+06
4.22756e+06
4.19179e+06
4.15617e+06
4.12071e+06
4.08539e+06
4.05023e+06
4.01522e+06
3.98037e+06
3.94566e+06
3.91111e+06
3.87671e+06
3.84246e+06
3.80836e+06
3.77441e+06
3.74062e+06
3.70698e+06
3.67349e+06
3.64015e+06
3.60696e+06
3.57393e+06
3.54104e+06
3.50831e+06
3.47573e+06
3.4433e+06
3.41103e+06
3.3789e+06
3.34693e+06
3.31511e+06
3.28344e+06
3.25192e+06
3.22055e+06
3.18934e+06
3.15827e+06
3.12736e+06
3.0966e+06
3.06599e+06
3.03553e+06
3.00523e+06
2.97507e+06
2.94507e+06
2.91521e+06
2.88551e+06
2.85596e+06
2.82656e+06
2.79731e+06
2.76821e+06
2.73926e+06
2.71046e+06
2.68181e+06
2.65331e+06
2.62496e+06
2.59676e+06
2.56871e+06
2.5408e+06
2.51305e+06
2.48544e+06
2.45799e+06
2.43068e+06
2.40351e+06
2.37649e+06
2.34962e+06
2.32289e+06
2.29631e+06
2.26987e+06
2.24357e+06
2.21741e+06
2.19139e+06
2.16551e+06
2.13976e+06
2.11415e+06
2.08867e+06
2.06332e+06
2.0381e+06
2.01299e+06
1.98801e+06
1.96314e+06
1.93837e+06
1.9137e+06
1.88912e+06
1.86462e+06
1.84019e+06
1.81581e+06
1.79146e+06
1.76711e+06
1.74275e+06
1.71832e+06
1.69378e+06
1.66905e+06
1.64406e+06
1.61865e+06
1.59262e+06
1.56565e+06
1.5372e+06
1.5056e+06
1.46841e+06
9.04828e+06
8.93987e+06
8.85238e+06
8.77726e+06
8.70903e+06
8.64499e+06
8.58387e+06
8.52489e+06
8.46756e+06
8.41154e+06
8.35657e+06
8.30249e+06
8.24914e+06
8.19641e+06
8.14423e+06
8.09252e+06
8.0412e+06
7.99023e+06
7.93956e+06
7.88915e+06
7.83899e+06
7.78905e+06
7.73932e+06
7.68981e+06
7.64049e+06
7.59139e+06
7.5425e+06
7.49383e+06
7.44538e+06
7.39716e+06
7.34916e+06
7.30138e+06
7.2538e+06
7.20643e+06
7.15927e+06
7.11229e+06
7.06551e+06
7.01892e+06
6.97252e+06
6.92629e+06
6.88026e+06
6.8344e+06
6.78872e+06
6.74322e+06
6.69789e+06
6.65273e+06
6.60773e+06
6.5629e+06
6.51824e+06
6.47374e+06
6.42939e+06
6.38521e+06
6.34119e+06
6.29732e+06
6.25361e+06
6.21006e+06
6.16666e+06
6.12341e+06
6.08032e+06
6.03739e+06
5.99461e+06
5.95198e+06
5.90951e+06
5.86719e+06
5.82503e+06
5.78302e+06
5.74116e+06
5.69945e+06
5.6579e+06
5.6165e+06
5.57526e+06
5.53416e+06
5.49322e+06
5.45243e+06
5.4118e+06
5.37131e+06
5.33098e+06
5.2908e+06
5.25078e+06
5.2109e+06
5.17118e+06
5.13161e+06
5.09219e+06
5.05293e+06
5.01381e+06
4.97485e+06
4.93604e+06
4.89738e+06
4.85888e+06
4.82053e+06
4.78233e+06
4.74428e+06
4.70638e+06
4.66864e+06
4.63104e+06
4.5936e+06
4.55632e+06
4.51918e+06
4.48219e+06
4.44536e+06
4.40868e+06
4.37215e+06
4.33577e+06
4.29955e+06
4.26348e+06
4.22756e+06
4.19179e+06
4.15617e+06
4.1207e+06
4.08539e+06
4.05023e+06
4.01522e+06
3.98036e+06
3.94566e+06
3.9111e+06
3.8767e+06
3.84245e+06
3.80835e+06
3.77441e+06
3.74061e+06
3.70697e+06
3.67348e+06
3.64014e+06
3.60695e+06
3.57391e+06
3.54103e+06
3.5083e+06
3.47572e+06
3.44329e+06
3.41101e+06
3.37888e+06
3.34691e+06
3.31508e+06
3.28341e+06
3.25189e+06
3.22052e+06
3.1893e+06
3.15823e+06
3.12732e+06
3.09655e+06
3.06594e+06
3.03547e+06
3.00516e+06
2.975e+06
2.94499e+06
2.91513e+06
2.88542e+06
2.85586e+06
2.82645e+06
2.79719e+06
2.76808e+06
2.73912e+06
2.7103e+06
2.68164e+06
2.65312e+06
2.62476e+06
2.59654e+06
2.56847e+06
2.54054e+06
2.51276e+06
2.48513e+06
2.45764e+06
2.4303e+06
2.4031e+06
2.37604e+06
2.34913e+06
2.32235e+06
2.29572e+06
2.26923e+06
2.24287e+06
2.21664e+06
2.19055e+06
2.16459e+06
2.13877e+06
2.11306e+06
2.08748e+06
2.06202e+06
2.03667e+06
2.01144e+06
1.98631e+06
1.96128e+06
1.93633e+06
1.91147e+06
1.88669e+06
1.86195e+06
1.83727e+06
1.8126e+06
1.78794e+06
1.76324e+06
1.73848e+06
1.71361e+06
1.68857e+06
1.66327e+06
1.6376e+06
1.6114e+06
1.58441e+06
1.5562e+06
1.52622e+06
1.49257e+06
1.45232e+06
9.0777e+06
8.9686e+06
8.87786e+06
8.79923e+06
8.7281e+06
8.6617e+06
8.59861e+06
8.53797e+06
8.47921e+06
8.42194e+06
8.36589e+06
8.31085e+06
8.25665e+06
8.20317e+06
8.15031e+06
8.09799e+06
8.04613e+06
7.99467e+06
7.94356e+06
7.89276e+06
7.84224e+06
7.79199e+06
7.74199e+06
7.69222e+06
7.64269e+06
7.59338e+06
7.54432e+06
7.49548e+06
7.4469e+06
7.39854e+06
7.35042e+06
7.30253e+06
7.25486e+06
7.2074e+06
7.16015e+06
7.1131e+06
7.06625e+06
7.01959e+06
6.97313e+06
6.92685e+06
6.88076e+06
6.83486e+06
6.78914e+06
6.7436e+06
6.69823e+06
6.65304e+06
6.60802e+06
6.56316e+06
6.51847e+06
6.47395e+06
6.42959e+06
6.38539e+06
6.34134e+06
6.29746e+06
6.25374e+06
6.21017e+06
6.16676e+06
6.12351e+06
6.08041e+06
6.03747e+06
5.99468e+06
5.95205e+06
5.90957e+06
5.86725e+06
5.82508e+06
5.78306e+06
5.7412e+06
5.69949e+06
5.65793e+06
5.61653e+06
5.57528e+06
5.53419e+06
5.49324e+06
5.45245e+06
5.41181e+06
5.37133e+06
5.331e+06
5.29082e+06
5.25079e+06
5.21091e+06
5.17119e+06
5.13162e+06
5.0922e+06
5.05293e+06
5.01382e+06
4.97486e+06
4.93605e+06
4.89739e+06
4.85888e+06
4.82053e+06
4.78233e+06
4.74428e+06
4.70638e+06
4.66864e+06
4.63105e+06
4.59361e+06
4.55632e+06
4.51918e+06
4.48219e+06
4.44536e+06
4.40868e+06
4.37215e+06
4.33577e+06
4.29955e+06
4.26348e+06
4.22755e+06
4.19178e+06
4.15617e+06
4.1207e+06
4.08539e+06
4.05023e+06
4.01522e+06
3.98036e+06
3.94565e+06
3.9111e+06
3.8767e+06
3.84244e+06
3.80835e+06
3.7744e+06
3.7406e+06
3.70696e+06
3.67347e+06
3.64013e+06
3.60694e+06
3.5739e+06
3.54102e+06
3.50828e+06
3.4757e+06
3.44327e+06
3.41099e+06
3.37886e+06
3.34688e+06
3.31506e+06
3.28338e+06
3.25186e+06
3.22049e+06
3.18926e+06
3.15819e+06
3.12727e+06
3.0965e+06
3.06588e+06
3.03542e+06
3.0051e+06
2.97493e+06
2.94491e+06
2.91505e+06
2.88533e+06
2.85576e+06
2.82634e+06
2.79707e+06
2.76795e+06
2.73897e+06
2.71015e+06
2.68147e+06
2.65294e+06
2.62456e+06
2.59632e+06
2.56822e+06
2.54028e+06
2.51247e+06
2.48481e+06
2.4573e+06
2.42992e+06
2.40269e+06
2.37559e+06
2.34864e+06
2.32182e+06
2.29514e+06
2.26859e+06
2.24217e+06
2.21588e+06
2.18972e+06
2.16369e+06
2.13777e+06
2.11198e+06
2.0863e+06
2.06072e+06
2.03526e+06
2.00989e+06
1.98462e+06
1.95943e+06
1.93432e+06
1.90927e+06
1.88427e+06
1.85931e+06
1.83437e+06
1.80943e+06
1.78446e+06
1.75942e+06
1.73428e+06
1.70898e+06
1.68345e+06
1.6576e+06
1.6313e+06
1.60434e+06
1.5765e+06
1.54719e+06
1.51598e+06
1.4809e+06
1.43959e+06
9.10278e+06
8.99408e+06
8.90139e+06
8.82009e+06
8.74647e+06
8.67793e+06
8.613e+06
8.55077e+06
8.49064e+06
8.43218e+06
8.37507e+06
8.3191e+06
8.26407e+06
8.20985e+06
8.15633e+06
8.1034e+06
8.051e+06
7.99906e+06
7.94751e+06
7.89633e+06
7.84547e+06
7.7949e+06
7.74463e+06
7.69461e+06
7.64486e+06
7.59536e+06
7.54612e+06
7.49713e+06
7.4484e+06
7.39992e+06
7.35168e+06
7.30368e+06
7.25591e+06
7.20836e+06
7.16102e+06
7.1139e+06
7.06698e+06
7.02026e+06
6.97373e+06
6.92741e+06
6.88127e+06
6.83532e+06
6.78956e+06
6.74398e+06
6.69857e+06
6.65335e+06
6.6083e+06
6.56342e+06
6.51871e+06
6.47416e+06
6.42978e+06
6.38556e+06
6.3415e+06
6.29761e+06
6.25387e+06
6.21029e+06
6.16687e+06
6.12361e+06
6.0805e+06
6.03755e+06
5.99475e+06
5.95211e+06
5.90963e+06
5.8673e+06
5.82513e+06
5.7831e+06
5.74124e+06
5.69953e+06
5.65797e+06
5.61656e+06
5.57531e+06
5.53421e+06
5.49326e+06
5.45247e+06
5.41183e+06
5.37134e+06
5.33101e+06
5.29083e+06
5.2508e+06
5.21092e+06
5.1712e+06
5.13163e+06
5.09221e+06
5.05294e+06
5.01382e+06
4.97486e+06
4.93605e+06
4.89739e+06
4.85889e+06
4.82053e+06
4.78233e+06
4.74428e+06
4.70639e+06
4.66864e+06
4.63105e+06
4.59361e+06
4.55632e+06
4.51918e+06
4.48219e+06
4.44536e+06
4.40868e+06
4.37215e+06
4.33577e+06
4.29955e+06
4.26347e+06
4.22755e+06
4.19178e+06
4.15617e+06
4.1207e+06
4.08539e+06
4.05022e+06
4.01521e+06
3.98035e+06
3.94565e+06
3.91109e+06
3.87669e+06
3.84244e+06
3.80834e+06
3.77439e+06
3.7406e+06
3.70695e+06
3.67346e+06
3.64012e+06
3.60693e+06
3.57389e+06
3.541e+06
3.50827e+06
3.47568e+06
3.44325e+06
3.41097e+06
3.37884e+06
3.34686e+06
3.31503e+06
3.28335e+06
3.25183e+06
3.22045e+06
3.18923e+06
3.15815e+06
3.12723e+06
3.09646e+06
3.06583e+06
3.03536e+06
3.00504e+06
2.97486e+06
2.94484e+06
2.91497e+06
2.88524e+06
2.85566e+06
2.82623e+06
2.79695e+06
2.76782e+06
2.73883e+06
2.70999e+06
2.6813e+06
2.65276e+06
2.62435e+06
2.5961e+06
2.56799e+06
2.54001e+06
2.51219e+06
2.4845e+06
2.45696e+06
2.42955e+06
2.40228e+06
2.37515e+06
2.34815e+06
2.32129e+06
2.29456e+06
2.26795e+06
2.24148e+06
2.21512e+06
2.18889e+06
2.16278e+06
2.13678e+06
2.1109e+06
2.08512e+06
2.05944e+06
2.03385e+06
2.00836e+06
1.98294e+06
1.9576e+06
1.93232e+06
1.90708e+06
1.88188e+06
1.8567e+06
1.83151e+06
1.8063e+06
1.78102e+06
1.75566e+06
1.73015e+06
1.70443e+06
1.67844e+06
1.65206e+06
1.62518e+06
1.59751e+06
1.56893e+06
1.53864e+06
1.50652e+06
1.47054e+06
1.42914e+06
9.12453e+06
9.0169e+06
8.9231e+06
8.83979e+06
8.76408e+06
8.69362e+06
8.627e+06
8.56329e+06
8.50185e+06
8.44223e+06
8.38411e+06
8.32723e+06
8.27139e+06
8.21644e+06
8.16226e+06
8.10875e+06
8.05582e+06
8.0034e+06
7.95143e+06
7.89986e+06
7.84865e+06
7.79779e+06
7.74724e+06
7.69698e+06
7.64701e+06
7.59732e+06
7.5479e+06
7.49876e+06
7.44989e+06
7.40128e+06
7.35293e+06
7.30482e+06
7.25695e+06
7.20931e+06
7.1619e+06
7.1147e+06
7.06771e+06
7.02092e+06
6.97434e+06
6.92796e+06
6.88177e+06
6.83578e+06
6.78997e+06
6.74435e+06
6.69892e+06
6.65366e+06
6.60858e+06
6.56367e+06
6.51894e+06
6.47437e+06
6.42997e+06
6.38573e+06
6.34166e+06
6.29775e+06
6.254e+06
6.21041e+06
6.16697e+06
6.1237e+06
6.08059e+06
6.03763e+06
5.99483e+06
5.95218e+06
5.90969e+06
5.86735e+06
5.82517e+06
5.78315e+06
5.74128e+06
5.69956e+06
5.658e+06
5.61659e+06
5.57534e+06
5.53423e+06
5.49329e+06
5.45249e+06
5.41185e+06
5.37136e+06
5.33102e+06
5.29084e+06
5.25081e+06
5.21093e+06
5.17121e+06
5.13164e+06
5.09221e+06
5.05295e+06
5.01383e+06
4.97487e+06
4.93606e+06
4.8974e+06
4.85889e+06
4.82054e+06
4.78234e+06
4.74429e+06
4.70639e+06
4.66864e+06
4.63105e+06
4.59361e+06
4.55632e+06
4.51918e+06
4.4822e+06
4.44536e+06
4.40868e+06
4.37215e+06
4.33577e+06
4.29955e+06
4.26347e+06
4.22755e+06
4.19178e+06
4.15616e+06
4.1207e+06
4.08538e+06
4.05022e+06
4.01521e+06
3.98035e+06
3.94564e+06
3.91109e+06
3.87668e+06
3.84243e+06
3.80833e+06
3.77438e+06
3.74059e+06
3.70694e+06
3.67345e+06
3.64011e+06
3.60692e+06
3.57388e+06
3.54099e+06
3.50825e+06
3.47567e+06
3.44323e+06
3.41095e+06
3.37882e+06
3.34684e+06
3.31501e+06
3.28333e+06
3.2518e+06
3.22042e+06
3.18919e+06
3.15811e+06
3.12718e+06
3.09641e+06
3.06578e+06
3.0353e+06
3.00497e+06
2.9748e+06
2.94476e+06
2.91488e+06
2.88515e+06
2.85557e+06
2.82613e+06
2.79684e+06
2.76769e+06
2.7387e+06
2.70984e+06
2.68114e+06
2.65257e+06
2.62416e+06
2.59588e+06
2.56775e+06
2.53975e+06
2.5119e+06
2.48419e+06
2.45662e+06
2.42918e+06
2.40188e+06
2.37471e+06
2.34767e+06
2.32076e+06
2.29398e+06
2.26732e+06
2.24079e+06
2.21437e+06
2.18807e+06
2.16189e+06
2.13581e+06
2.10983e+06
2.08395e+06
2.05816e+06
2.03246e+06
2.00684e+06
1.98128e+06
1.95579e+06
1.93034e+06
1.90492e+06
1.87952e+06
1.85412e+06
1.82869e+06
1.80321e+06
1.77765e+06
1.75195e+06
1.72609e+06
1.69998e+06
1.67355e+06
1.64666e+06
1.61925e+06
1.59091e+06
1.56172e+06
1.53061e+06
1.4978e+06
1.46135e+06
1.42028e+06
9.1437e+06
9.03744e+06
8.94311e+06
8.85833e+06
8.78088e+06
8.70874e+06
8.64058e+06
8.57548e+06
8.51281e+06
8.45209e+06
8.39298e+06
8.33522e+06
8.27859e+06
8.22292e+06
8.16811e+06
8.11402e+06
8.06057e+06
8.00768e+06
7.95529e+06
7.90335e+06
7.85181e+06
7.80064e+06
7.74981e+06
7.69932e+06
7.64914e+06
7.59926e+06
7.54967e+06
7.50038e+06
7.45137e+06
7.40264e+06
7.35417e+06
7.30596e+06
7.25799e+06
7.21026e+06
7.16276e+06
7.11549e+06
7.06843e+06
7.02158e+06
6.97494e+06
6.9285e+06
6.88227e+06
6.83623e+06
6.79038e+06
6.74472e+06
6.69925e+06
6.65397e+06
6.60886e+06
6.56392e+06
6.51916e+06
6.47458e+06
6.43015e+06
6.3859e+06
6.34181e+06
6.29789e+06
6.25412e+06
6.21052e+06
6.16708e+06
6.1238e+06
6.08067e+06
6.0377e+06
5.9949e+06
5.95224e+06
5.90975e+06
5.86741e+06
5.82522e+06
5.78319e+06
5.74132e+06
5.6996e+06
5.65803e+06
5.61662e+06
5.57536e+06
5.53426e+06
5.49331e+06
5.45251e+06
5.41187e+06
5.37138e+06
5.33104e+06
5.29085e+06
5.25082e+06
5.21094e+06
5.17122e+06
5.13164e+06
5.09222e+06
5.05295e+06
5.01384e+06
4.97487e+06
4.93606e+06
4.8974e+06
4.8589e+06
4.82054e+06
4.78234e+06
4.74429e+06
4.70639e+06
4.66865e+06
4.63105e+06
4.59361e+06
4.55632e+06
4.51918e+06
4.4822e+06
4.44536e+06
4.40868e+06
4.37215e+06
4.33577e+06
4.29955e+06
4.26347e+06
4.22755e+06
4.19178e+06
4.15616e+06
4.1207e+06
4.08538e+06
4.05022e+06
4.01521e+06
3.98035e+06
3.94564e+06
3.91108e+06
3.87668e+06
3.84243e+06
3.80833e+06
3.77438e+06
3.74058e+06
3.70693e+06
3.67344e+06
3.6401e+06
3.60691e+06
3.57387e+06
3.54098e+06
3.50824e+06
3.47565e+06
3.44322e+06
3.41093e+06
3.3788e+06
3.34682e+06
3.31498e+06
3.2833e+06
3.25177e+06
3.22039e+06
3.18915e+06
3.15807e+06
3.12714e+06
3.09636e+06
3.06573e+06
3.03525e+06
3.00491e+06
2.97473e+06
2.94469e+06
2.9148e+06
2.88506e+06
2.85547e+06
2.82602e+06
2.79672e+06
2.76756e+06
2.73856e+06
2.70969e+06
2.68097e+06
2.65239e+06
2.62396e+06
2.59566e+06
2.56751e+06
2.5395e+06
2.51162e+06
2.48388e+06
2.45628e+06
2.42881e+06
2.40148e+06
2.37427e+06
2.34719e+06
2.32024e+06
2.29341e+06
2.2667e+06
2.24011e+06
2.21363e+06
2.18726e+06
2.161e+06
2.13484e+06
2.10877e+06
2.0828e+06
2.0569e+06
2.03109e+06
2.00534e+06
1.97965e+06
1.954e+06
1.92838e+06
1.90279e+06
1.87719e+06
1.85157e+06
1.82591e+06
1.80017e+06
1.77433e+06
1.74832e+06
1.72212e+06
1.69561e+06
1.6688e+06
1.6414e+06
1.61354e+06
1.58458e+06
1.55486e+06
1.5231e+06
1.48976e+06
1.45317e+06
1.41258e+06
9.16085e+06
9.05605e+06
8.96155e+06
8.87573e+06
8.79686e+06
8.72326e+06
8.6537e+06
8.58732e+06
8.52349e+06
8.46172e+06
8.40167e+06
8.34305e+06
8.28566e+06
8.2293e+06
8.17386e+06
8.11921e+06
8.06525e+06
8.0119e+06
7.9591e+06
7.90679e+06
7.85492e+06
7.80345e+06
7.75236e+06
7.70164e+06
7.65125e+06
7.60118e+06
7.55143e+06
7.50199e+06
7.45284e+06
7.40398e+06
7.3554e+06
7.30708e+06
7.25902e+06
7.2112e+06
7.16362e+06
7.11627e+06
7.06914e+06
7.02223e+06
6.97554e+06
6.92905e+06
6.88276e+06
6.83668e+06
6.79079e+06
6.74509e+06
6.69959e+06
6.65427e+06
6.60913e+06
6.56417e+06
6.51939e+06
6.47478e+06
6.43034e+06
6.38607e+06
6.34196e+06
6.29803e+06
6.25425e+06
6.21064e+06
6.16718e+06
6.12389e+06
6.08076e+06
6.03778e+06
5.99497e+06
5.95231e+06
5.9098e+06
5.86746e+06
5.82527e+06
5.78323e+06
5.74135e+06
5.69963e+06
5.65806e+06
5.61665e+06
5.57539e+06
5.53428e+06
5.49333e+06
5.45253e+06
5.41188e+06
5.37139e+06
5.33105e+06
5.29087e+06
5.25083e+06
5.21095e+06
5.17123e+06
5.13165e+06
5.09223e+06
5.05296e+06
5.01384e+06
4.97488e+06
4.93607e+06
4.89741e+06
4.8589e+06
4.82055e+06
4.78234e+06
4.74429e+06
4.70639e+06
4.66865e+06
4.63105e+06
4.59361e+06
4.55632e+06
4.51918e+06
4.4822e+06
4.44536e+06
4.40868e+06
4.37215e+06
4.33577e+06
4.29955e+06
4.26347e+06
4.22755e+06
4.19178e+06
4.15616e+06
4.12069e+06
4.08538e+06
4.05021e+06
4.0152e+06
3.98034e+06
3.94564e+06
3.91108e+06
3.87667e+06
3.84242e+06
3.80832e+06
3.77437e+06
3.74057e+06
3.70693e+06
3.67343e+06
3.64009e+06
3.60689e+06
3.57385e+06
3.54096e+06
3.50822e+06
3.47564e+06
3.4432e+06
3.41091e+06
3.37878e+06
3.34679e+06
3.31496e+06
3.28327e+06
3.25174e+06
3.22036e+06
3.18912e+06
3.15804e+06
3.1271e+06
3.09632e+06
3.06568e+06
3.03519e+06
3.00485e+06
2.97466e+06
2.94462e+06
2.91473e+06
2.88497e+06
2.85538e+06
2.82592e+06
2.79661e+06
2.76744e+06
2.73842e+06
2.70954e+06
2.68081e+06
2.65221e+06
2.62377e+06
2.59545e+06
2.56728e+06
2.53924e+06
2.51135e+06
2.48358e+06
2.45595e+06
2.42845e+06
2.40108e+06
2.37383e+06
2.34672e+06
2.31972e+06
2.29285e+06
2.26608e+06
2.23944e+06
2.21289e+06
2.18646e+06
2.16012e+06
2.13388e+06
2.10773e+06
2.08166e+06
2.05566e+06
2.02973e+06
2.00385e+06
1.97803e+06
1.95223e+06
1.92646e+06
1.90068e+06
1.8749e+06
1.84907e+06
1.82319e+06
1.79719e+06
1.77108e+06
1.74475e+06
1.71825e+06
1.69135e+06
1.66419e+06
1.63631e+06
1.60805e+06
1.57853e+06
1.54836e+06
1.51612e+06
1.48235e+06
1.44582e+06
1.40574e+06
9.17639e+06
9.073e+06
8.97859e+06
8.89203e+06
8.81203e+06
8.73716e+06
8.66636e+06
8.5988e+06
8.53388e+06
8.47112e+06
8.41016e+06
8.35073e+06
8.29259e+06
8.23557e+06
8.17952e+06
8.12432e+06
8.06986e+06
8.01607e+06
7.96286e+06
7.91018e+06
7.85799e+06
7.80623e+06
7.75489e+06
7.70393e+06
7.65333e+06
7.60308e+06
7.55317e+06
7.50357e+06
7.45429e+06
7.40531e+06
7.35661e+06
7.30819e+06
7.26004e+06
7.21213e+06
7.16447e+06
7.11705e+06
7.06985e+06
7.02288e+06
6.97613e+06
6.92958e+06
6.88325e+06
6.83712e+06
6.79119e+06
6.74546e+06
6.69992e+06
6.65457e+06
6.6094e+06
6.56442e+06