/*--------------------------------*- C++ -*----------------------------------*\
| =========                 |                                                 |
| \\      /  F ield         | OpenFOAM: The Open Source CFD Toolbox           |
|  \\    /   O peration     | Version:  2.4.0                                 |
|   \\  /    A nd           | Web:      www.OpenFOAM.org                      |
|    \\/     M anipulation  |                                                 |
\*---------------------------------------------------------------------------*/
FoamFile
{
    version     2.0;
    format      ascii;
    class       volScalarField;
    location    "0.287";
    object      k_0;
}
// * * * * * * * * * * * * * * * * * * * * * * * * * * * * * * * * * * * * * //

dimensions      [0 2 -2 0 0 0 0];

internalField   nonuniform List<scalar> 
17600
(
9.28906
7.40592
5.12246
3.94197
3.32789
2.96951
2.68296
2.47462
2.34202
2.18948
2.13536
2.0291
1.99527
1.94268
1.89712
1.95025
1.89936
2.11116
2.4786
2.65212
4.50675
6.20482
5.83782
5.05718
4.40274
3.95194
3.58671
3.3079
3.1405
2.91573
2.84199
2.69402
2.62876
2.55906
2.46039
2.47821
2.37179
2.4853
2.48587
2.84615
1.32141
3.2877
3.98808
3.96187
3.76094
3.47254
3.22626
2.99676
2.8769
2.67608
2.61071
2.4875
2.41064
2.36353
2.25452
2.25076
2.14926
2.17409
2.01994
2.1143
0.20745
1.2022
1.91025
2.32988
2.51303
2.50959
2.48218
2.38121
2.3332
2.21544
2.16881
2.09952
2.02784
2.00354
1.92912
1.90837
1.83599
1.81912
1.66711
1.54327
0.0259927
0.280888
0.626363
0.963365
1.2532
1.40818
1.56483
1.58559
1.62955
1.61879
1.60705
1.6012
1.56866
1.55945
1.53728
1.50654
1.47536
1.44007
1.35083
1.15439
0.00274042
0.0460397
0.134554
0.258535
0.43782
0.54159
0.728283
0.803984
0.899406
0.969365
0.992299
1.04816
1.05815
1.066
1.08772
1.07674
1.06766
1.0362
0.988336
0.817687
0.00027809
0.00654496
0.0205773
0.0435866
0.101646
0.140068
0.227608
0.282516
0.343024
0.428946
0.458699
0.524181
0.568301
0.586225
0.636955
0.649557
0.659458
0.633247
0.607865
0.48316
4.79185e-05
0.000888215
0.00265282
0.00576041
0.0154361
0.0243086
0.0464304
0.0679702
0.0845006
0.128227
0.14581
0.180776
0.216313
0.230902
0.268922
0.293201
0.313927
0.295436
0.274687
0.196858
2.71573e-05
0.000157963
0.000386205
0.000722432
0.00186279
0.00311938
0.00641038
0.0112916
0.0143834
0.0247271
0.0302166
0.0412545
0.0546707
0.060713
0.0723909
0.0893915
0.102591
0.0946952
0.0833705
0.0590334
2.47605e-05
6.44822e-05
0.000112958
0.000140294
0.000300963
0.00043804
0.00088035
0.00153255
0.00188439
0.00354308
0.00440658
0.00588563
0.00942996
0.0108028
0.0122406
0.0172319
0.0218009
0.0197368
0.0174172
0.012253
2.38831e-05
5.00146e-05
7.3334e-05
7.14015e-05
0.000106885
0.000129408
0.00023006
0.00027486
0.000319623
0.000569781
0.000628477
0.000787193
0.00129598
0.00140826
0.00161154
0.00260997
0.00320606
0.00291496
0.00275034
0.00216498
2.2581e-05
4.12519e-05
5.493e-05
5.55608e-05
6.01288e-05
9.23988e-05
0.000111637
0.000111691
0.000138175
0.000158153
0.000158208
0.000216291
0.000256958
0.000254132
0.000299897
0.00041384
0.000546784
0.000584486
0.000529814
0.000544349
2.16135e-05
2.97231e-05
5.10063e-05
5.68391e-05
5.44663e-05
7.04413e-05
7.63407e-05
9.81039e-05
9.91656e-05
9.61254e-05
0.000107557
0.000115679
0.000118705
0.000121002
0.000120847
0.000129243
0.000211985
0.00023206
0.00022595
0.000312462
2.13562e-05
2.75138e-05
5.16188e-05
5.13264e-05
4.87003e-05
5.01309e-05
5.91357e-05
8.33512e-05
7.73116e-05
7.74794e-05
7.87756e-05
7.93637e-05
0.000102873
0.000104826
9.97209e-05
0.00010145
0.000139959
0.000134627
0.000170875
0.000216278
2.13885e-05
2.63766e-05
4.65478e-05
4.65937e-05
4.97476e-05
4.86187e-05
5.74368e-05
6.09397e-05
6.12312e-05
6.47993e-05
6.32108e-05
6.494e-05
8.32851e-05
8.29571e-05
7.93339e-05
8.02832e-05
8.27326e-05
8.67788e-05
0.000125382
0.00012786
2.12122e-05
2.647e-05
3.80256e-05
4.55229e-05
4.55247e-05
4.30951e-05
4.47067e-05
4.7034e-05
5.67014e-05
5.78779e-05
5.53527e-05
5.90895e-05
6.14537e-05
6.4433e-05
7.36479e-05
7.06008e-05
6.77856e-05
7.79835e-05
8.68906e-05
9.93943e-05
2.10698e-05
2.8192e-05
3.23749e-05
4.23715e-05
4.23572e-05
4.17772e-05
4.22406e-05
4.71531e-05
5.36669e-05
5.3768e-05
5.32518e-05
5.18404e-05
5.27644e-05
6.18712e-05
6.71264e-05
6.43341e-05
6.38548e-05
6.98208e-05
7.30142e-05
9.11666e-05
2.06202e-05
2.57555e-05
3.17631e-05
3.80097e-05
3.98206e-05
4.00494e-05
4.01411e-05
4.31526e-05
4.58326e-05
4.7059e-05
5.00436e-05
5.02404e-05
5.12384e-05
5.99821e-05
5.89299e-05
5.88678e-05
6.14242e-05
6.0767e-05
6.07785e-05
6.7204e-05
2.05516e-05
2.4641e-05
3.30887e-05
3.62802e-05
3.87107e-05
3.96171e-05
4.06477e-05
4.08988e-05
4.30778e-05
4.77051e-05
4.73219e-05
4.78119e-05
5.14281e-05
5.09709e-05
5.24999e-05
5.34299e-05
5.53336e-05
5.3352e-05
5.4311e-05
6.32292e-05
2.05164e-05
2.62977e-05
3.05318e-05
3.46223e-05
4.00491e-05
3.97695e-05
4.00065e-05
4.03079e-05
4.17569e-05
4.58486e-05
4.66168e-05
4.64545e-05
4.6054e-05
4.58527e-05
4.7013e-05
4.95005e-05
5.00974e-05
4.95933e-05
5.15625e-05
6.4444e-05
2.05435e-05
2.55684e-05
2.9344e-05
3.76505e-05
3.97162e-05
4.00477e-05
3.97975e-05
4.16652e-05
4.24703e-05
4.50384e-05
4.51247e-05
4.51573e-05
4.50474e-05
4.60454e-05
4.70513e-05
4.94519e-05
4.89501e-05
4.9383e-05
5.20035e-05
6.14946e-05
2.06796e-05
2.43747e-05
3.07854e-05
3.96e-05
3.97713e-05
3.91966e-05
4.15151e-05
4.19412e-05
4.19039e-05
4.27991e-05
4.36058e-05
4.46155e-05
4.69824e-05
4.76757e-05
4.92914e-05
4.89924e-05
4.90798e-05
4.95138e-05
5.02187e-05
6.34657e-05
2.06644e-05
2.45286e-05
3.38491e-05
4.15753e-05
4.18379e-05
4.29185e-05
4.26316e-05
4.09864e-05
4.07146e-05
4.17399e-05
4.44014e-05
4.92638e-05
4.92426e-05
4.94196e-05
4.87147e-05
4.87271e-05
4.87959e-05
4.90501e-05
5.00942e-05
6.1786e-05
2.0952e-05
2.54744e-05
3.85483e-05
4.30264e-05
4.33406e-05
4.26109e-05
4.05621e-05
4.04554e-05
4.32405e-05
4.92759e-05
5.26499e-05
5.1938e-05
5.10969e-05
5.0546e-05
5.13141e-05
5.16921e-05
5.30497e-05
5.43578e-05
5.7837e-05
6.52924e-05
2.10949e-05
2.78584e-05
3.96622e-05
4.23664e-05
4.15635e-05
4.07549e-05
4.19396e-05
4.95589e-05
5.43978e-05
5.7058e-05
5.62709e-05
5.31649e-05
5.28843e-05
5.5735e-05
5.87669e-05
6.12467e-05
6.19141e-05
6.26191e-05
6.44551e-05
7.16992e-05
2.12257e-05
2.83364e-05
3.9125e-05
4.17511e-05
4.2001e-05
4.59309e-05
5.74489e-05
6.01387e-05
5.97328e-05
5.9618e-05
5.70734e-05
5.70879e-05
6.01498e-05
7.04243e-05
7.21177e-05
7.42672e-05
7.27936e-05
7.31197e-05
7.6263e-05
9.94575e-05
2.15151e-05
2.79133e-05
4.06546e-05
4.58138e-05
5.36808e-05
6.24879e-05
6.43578e-05
6.25162e-05
6.075e-05
6.04537e-05
6.12785e-05
6.91939e-05
8.45465e-05
8.8018e-05
8.94103e-05
8.79596e-05
8.80359e-05
9.4912e-05
0.000120341
0.000222562
2.17422e-05
2.96029e-05
4.32809e-05
5.64065e-05
6.7591e-05
6.96326e-05
6.71672e-05
6.4637e-05
6.42951e-05
6.80303e-05
8.25617e-05
0.000109268
0.000116625
0.000120633
0.000122867
0.000130558
0.000153465
0.00023458
0.000420356
0.00101451
2.25034e-05
3.09377e-05
5.39139e-05
6.88217e-05
7.76725e-05
7.4967e-05
7.51509e-05
7.63187e-05
8.32951e-05
0.000120773
0.00015623
0.000220645
0.000248167
0.00028927
0.000337852
0.000468766
0.000734456
0.00149894
0.00259036
0.00592515
2.28443e-05
3.44157e-05
7.89084e-05
9.0059e-05
9.82226e-05
0.000103022
0.000129593
0.000169383
0.00024652
0.000486915
0.000647125
0.00102263
0.00126421
0.00176546
0.00228455
0.00369606
0.00546873
0.0102315
0.0150897
0.0295732
2.44264e-05
5.12278e-05
0.000145632
0.00017261
0.000225204
0.000338716
0.000726858
0.0011655
0.00177483
0.00352393
0.00467302
0.00745337
0.00928479
0.0132593
0.016529
0.0249644
0.0326883
0.0520646
0.0673096
0.112935
2.77661e-05
0.000149886
0.000517898
0.000802634
0.0014331
0.00275542
0.00651744
0.00978629
0.0142188
0.0256075
0.0318505
0.0457494
0.0544291
0.072452
0.084344
0.113215
0.134821
0.184472
0.21698
0.300942
4.89528e-05
0.000881257
0.0033606
0.0061608
0.0126427
0.0232801
0.0472057
0.0623792
0.0887439
0.130209
0.149777
0.189131
0.218194
0.25907
0.285269
0.342616
0.379893
0.455789
0.498723
0.590785
0.000281095
0.00642978
0.0246916
0.0448992
0.0896754
0.145357
0.22374
0.274478
0.356875
0.428377
0.470917
0.530055
0.581309
0.622478
0.659456
0.716074
0.758228
0.819405
0.860086
0.927251
0.00275288
0.0449067
0.14932
0.248796
0.418439
0.565531
0.713491
0.800573
0.912598
0.970666
1.01107
1.04678
1.08199
1.09449
1.12041
1.14355
1.17417
1.20081
1.23086
1.25528
0.0261141
0.272275
0.645505
0.948407
1.24863
1.42493
1.55208
1.58821
1.63632
1.62478
1.61963
1.60084
1.59527
1.57129
1.57085
1.55926
1.56394
1.55925
1.56031
1.55048
0.208323
1.1989
1.92533
2.31504
2.51944
2.51295
2.47976
2.38697
2.33305
2.21981
2.17691
2.08943
2.05733
1.98921
1.96997
1.91546
1.90047
1.85695
1.82848
1.78433
1.32607
3.28544
3.99411
3.95646
3.77413
3.45523
3.23223
3.00512
2.86506
2.68279
2.61272
2.47291
2.42185
2.31949
2.28106
2.18254
2.14252
2.04197
1.98093
1.88066
4.50906
6.20746
5.83963
5.04677
4.4257
3.92337
3.60079
3.31088
3.12423
2.91436
2.83293
2.66682
2.60377
2.47598
2.41814
2.2772
2.20468
2.04079
1.93969
1.75354
9.29163
7.41249
5.12091
3.93143
3.34615
2.94594
2.69124
2.47136
2.32871
2.17282
2.11193
1.98573
1.9288
1.81297
1.74949
1.60567
1.50579
1.31666
1.1799
0.961098
2.12145
1.51819
1.11842
0.786669
0.626401
0.478766
0.336999
0.311856
0.32269
0.542704
0.542336
0.37091
0.302626
0.325397
0.29107
0.15859
0.0965066
0.0848653
0.089188
0.0906332
0.0815263
0.070394
0.0628305
0.0569811
0.0623344
0.116924
0.142246
0.172603
0.181303
0.191413
0.195757
0.188564
0.157358
0.0870538
0.0388702
0.0159781
0.00696783
0.00350271
0.00229777
0.00210021
0.00216308
0.00240418
0.00333551
0.00690322
0.0137976
0.0213153
0.036255
0.0759052
0.145106
0.171419
0.171696
0.159884
0.129891
0.097897
0.0750982
0.0609767
0.0539229
0.04751
0.0424561
0.0406919
0.0407702
0.0414743
0.0433019
0.046774
0.0532127
0.069115
0.0773803
0.0776159
0.0753841
0.0641923
0.0462703
0.0389724
0.0357713
0.0317428
0.02527
0.018363
0.013652
0.0110596
0.0104481
0.011229
0.0128589
0.0127146
0.012174
0.0121282
0.0123025
0.01429
0.0217694
0.0338123
0.0550646
0.0704013
0.0770992
0.0771074
0.0794905
0.0842671
0.0836021
0.0707596
0.0459456
0.0304315
0.0233362
0.0211002
0.0206013
0.0208477
0.0249496
0.0323868
0.0328031
0.0315208
0.031484
0.0333562
0.048801
0.0633008
0.0649041
0.0626498
0.0622612
0.0643402
0.0686977
0.0729723
0.0759561
0.0760049
0.0734653
0.0678761
0.0588648
0.0455386
0.0362553
0.0339853
0.0341735
0.0351966
0.0357313
0.034799
0.0342954
0.0349112
0.0382541
0.0422988
0.0434835
0.0421337
0.0368324
0.0342675
0.0343285
0.0364568
0.0494446
0.0865604
0.0923605
0.0903378
0.0996973
0.110017
0.103072
0.0666595
0.0424108
0.0320795
0.026481
0.024778
0.0236667
0.0239909
0.0243576
0.0245028
0.0243865
0.0231706
0.0219748
0.0234625
0.0314922
0.0348084
0.0348652
0.0339824
0.0328586
0.030791
0.0277383
0.0242437
0.0212482
0.0200325
0.0200767
0.0209631
0.0251975
0.0358269
0.0901161
0.161181
0.171421
0.154014
0.104696
0.0801101
0.0719825
0.0686893
0.0612399
0.0584056
0.0668175
0.0665165
0.0552845
0.0470329
0.0451768
0.0448426
0.0431864
0.0370658
0.0335191
0.0326034
0.0325278
0.0331146
0.0393505
0.0555748
0.0648624
0.0744046
0.126957
1.23589
2.25549
1.56536
1.13799
0.794085
0.588507
0.481168
0.329135
0.243476
0.24116
0.383891
0.54604
0.440809
0.311131
0.334129
0.315805
0.187059
0.100612
0.0874914
0.0938873
0.0940183
0.0834976
0.0732778
0.0602076
0.0546381
0.0925739
0.128523
0.163225
0.181053
0.189069
0.200706
0.198194
0.178559
0.114179
0.0527141
0.0222995
0.00925213
0.00430277
0.00250397
0.002001
0.00201204
0.00216451
0.00276086
0.00469885
0.0118528
0.0214891
0.0330037
0.0570777
0.123709
0.179307
0.190027
0.180257
0.150938
0.111388
0.0868386
0.0679528
0.055289
0.0498404
0.0446147
0.0402517
0.0381258
0.0379621
0.0383108
0.0396568
0.0423474
0.0466391
0.0593546
0.0727684
0.0763033
0.0752267
0.0678884
0.051146
0.0430009
0.0376246
0.0328438
0.0268205
0.0198682
0.0146425
0.0112584
0.0103058
0.0107557
0.012135
0.0120443
0.0115179
0.0114406
0.0115716
0.0131221
0.0190514
0.0331515
0.0533517
0.0698249
0.0780696
0.078461
0.0807516
0.0831141
0.0822694
0.0711493
0.0475472
0.0326477
0.0249384
0.0219493
0.0215372
0.0219201
0.0284932
0.0340636
0.033354
0.0318813
0.0320518
0.0356654
0.0557718
0.067756
0.0680108
0.0639936
0.0636297
0.0662039
0.071495
0.0760421
0.078703
0.0786526
0.075972
0.068088
0.0547854
0.0403161
0.0321211
0.0307617
0.0311392
0.0332571
0.034091
0.0332039
0.0330483
0.0338631
0.0377399
0.0417149
0.0427284
0.0410278
0.0355759
0.0332215
0.0333726
0.0356936
0.0506459
0.0882406
0.0924
0.0898019
0.098858
0.1084
0.10267
0.068944
0.0432283
0.0313148
0.0256184
0.0238215
0.0231129
0.0232219
0.0239664
0.0242987
0.0243904
0.0242841
0.0253487
0.0266831
0.0307644
0.0351087
0.037217
0.0374508
0.0357646
0.0319643
0.0290304
0.025501
0.0222405
0.021093
0.0212011
0.0223602
0.027417
0.0399994
0.097376
0.168763
0.176833
0.154298
0.103499
0.0803506
0.076448
0.0794826
0.0737698
0.0706826
0.0896104
0.0954054
0.0863992
0.0669513
0.0583893
0.0544282
0.0502377
0.0423541
0.0350937
0.0327658
0.0327186
0.0333523
0.0389766
0.0563973
0.0667392
0.075338
0.138123
0.910415
1.7756
1.35066
1.01159
0.756922
0.536966
0.435586
0.323787
0.203026
0.164455
0.208825
0.484809
0.488133
0.337867
0.357754
0.34235
0.211986
0.112113
0.0915292
0.0982741
0.0969106
0.0878509
0.0702142
0.0579722
0.0694127
0.108604
0.143182
0.177964
0.188995
0.202997
0.204578
0.194214
0.148889
0.069061
0.0290179
0.0120486
0.00520335
0.00280553
0.00202585
0.00188651
0.00198096
0.00239143
0.00368807
0.00757215
0.0205303
0.0333739
0.0505989
0.0912756
0.176347
0.208613
0.2047
0.181588
0.131917
0.100332
0.0796736
0.0633692
0.05228
0.0477041
0.0432404
0.0390967
0.0367027
0.0359683
0.0360995
0.0369485
0.0391183
0.0422663
0.0508291
0.067409
0.0743845
0.0745864
0.0703945
0.055236
0.0453373
0.0388819
0.0343738
0.0283966
0.0209853
0.0152654
0.0114917
0.010196
0.010373
0.0114557
0.0114053
0.0109018
0.0108222
0.0109305
0.0122237
0.0169875
0.0321051
0.0521015
0.0695147
0.0780451
0.0792486
0.0821879
0.0826782
0.0815937
0.0717871
0.0499772
0.035254
0.0269147
0.0234912
0.0231794
0.0240431
0.0326944
0.0356418
0.0336336
0.0323669
0.0329175
0.0396591
0.0633295
0.0716999
0.070055
0.0644738
0.064575
0.0683963
0.0745891
0.0793366
0.0816705
0.081408
0.0777828
0.0659164
0.0501039
0.0362161
0.0290445
0.0275529
0.0280019
0.0308971
0.0317644
0.0309594
0.0310834
0.0324349
0.0368192
0.0405059
0.0414534
0.0394373
0.0342232
0.0321775
0.0324289
0.0348696
0.0518622
0.0896061
0.0926518
0.0895032
0.0977083
0.10722
0.102603
0.0715007
0.0448245
0.0312757
0.0248275
0.0230737
0.0229914
0.0231299
0.0242139
0.0246437
0.0249895
0.0256372
0.0268962
0.0274433
0.0301236
0.0382384
0.0422457
0.0413859
0.0367214
0.0320816
0.0292586
0.0258903
0.0230539
0.0222393
0.0225342
0.024091
0.0299245
0.044774
0.107534
0.176656
0.181083
0.152066
0.102261
0.0834384
0.084737
0.101819
0.103003
0.102495
0.130727
0.139579
0.133242
0.115385
0.0905227
0.0782691
0.0655821
0.0513014
0.0389696
0.0334316
0.0328645
0.0335774
0.0379825
0.0553208
0.0713036
0.0775513
0.139858
0.639873
1.27528
1.02636
0.782618
0.613244
0.428024
0.307593
0.265009
0.173306
0.115336
0.114366
0.304533
0.483092
0.385154
0.387384
0.362918
0.23984
0.12631
0.0959382
0.10174
0.100155
0.0868603
0.0650693
0.0637689
0.0908008
0.121162
0.166584
0.186359
0.200131
0.206799
0.203813
0.174556
0.0925683
0.0400981
0.0171587
0.0071981
0.00334202
0.00214277
0.00183089
0.00185046
0.00208147
0.00297089
0.00558812
0.0134076
0.0346096
0.0508112
0.0763835
0.147973
0.216695
0.228334
0.210441
0.15731
0.115746
0.0901281
0.0733219
0.0588875
0.0487467
0.0448452
0.041576
0.0380764
0.0358263
0.034433
0.0343647
0.0349155
0.0367588
0.03917
0.0446933
0.0607477
0.0713724
0.0734699
0.0710496
0.0584066
0.048874
0.0415731
0.0358927
0.0293281
0.021674
0.0156619
0.0116635
0.0101302
0.0101179
0.0109007
0.010869
0.010375
0.0103212
0.0104268
0.0115385
0.0154252
0.0304537
0.0513497
0.0692446
0.0774924
0.0798149
0.0826485
0.0825918
0.0812581
0.0728331
0.0520476
0.0377325
0.0296882
0.0258588
0.0254525
0.0281335
0.0364215
0.0367701
0.0336256
0.0330111
0.034354
0.0467931
0.0701336
0.0754856
0.0710761
0.0653525
0.0658518
0.0709605
0.0777547
0.0826455
0.0849202
0.0843162
0.0788549
0.063203
0.0457096
0.0328321
0.026428
0.0248355
0.0253855
0.0285801
0.0292254
0.0285577
0.0288722
0.03059
0.0357462
0.0393561
0.0400898
0.0376612
0.0327795
0.031081
0.0314755
0.0341611
0.0532686
0.0920261
0.093295
0.0893572
0.0964141
0.105838
0.102425
0.0746294
0.0475544
0.0319104
0.0247656
0.0230745
0.023163
0.0239819
0.0256697
0.0260054
0.025744
0.0260462
0.0270195
0.0279229
0.0346709
0.0426304
0.0448375
0.0426694
0.0366045
0.0314062
0.0289337
0.0261856
0.023909
0.0234256
0.023896
0.0258415
0.0329062
0.0505149
0.118049
0.182229
0.184015
0.149402
0.101936
0.0889704
0.0924232
0.115196
0.135238
0.136822
0.14741
0.162752
0.161294
0.15241
0.134723
0.114021
0.0863711
0.0621415
0.0445385
0.0349815
0.0328774
0.0333922
0.0372864
0.0531171
0.073807
0.0784592
0.137044
0.454762
0.861282
0.700481
0.517917
0.377225
0.254089
0.140184
0.126345
0.116922
0.0851361
0.0726954
0.127564
0.413796
0.410031
0.403953
0.37067
0.263664
0.146986
0.105732
0.104444
0.0959309
0.0732667
0.0615552
0.0758121
0.0990801
0.145978
0.179207
0.194503
0.203914
0.205877
0.191889
0.126372
0.0578865
0.0253502
0.010462
0.00440844
0.0023832
0.00183942
0.00176515
0.00186273
0.0024455
0.00433801
0.00951352
0.0261379
0.0549027
0.0749005
0.114597
0.20707
0.24871
0.240249
0.199636
0.138271
0.104543
0.0838286
0.0688595
0.0559551
0.0467157
0.0431116
0.040265
0.0371572
0.0355784
0.0335915
0.0329926
0.0333293
0.0346523
0.0367579
0.0411254
0.0544916
0.0686588
0.0722047
0.0706549
0.0616575
0.0520622
0.0436968
0.0367007
0.0302529
0.0231371
0.0167953
0.012145
0.0101941
0.0100437
0.0105071
0.0104873
0.0100313
0.0100184
0.0101505
0.0111636
0.0144809
0.0288857
0.0510575
0.0683289
0.075092
0.0796775
0.0824802
0.0823742
0.0809036
0.0739515
0.0543819
0.0411294
0.0328841
0.0288294
0.0286764
0.0344002
0.039064
0.0375122
0.0340302
0.0339694
0.0368851
0.0560799
0.0762785
0.078657
0.0714784
0.065656
0.0669462
0.0737451
0.0811262
0.0863443
0.0884097
0.0872795
0.0794036
0.0596677
0.0422736
0.0308432
0.0249016
0.0230299
0.0236709
0.0268958
0.0272413
0.0265307
0.0269067
0.0288561
0.0341647
0.0377404
0.038401
0.0358184
0.0313818
0.0299578
0.030533
0.0334492
0.0552499
0.0949428
0.0952079
0.0895456
0.0955037
0.10444
0.102093
0.0771426
0.0497284
0.0341484
0.0261799
0.0245648
0.0246836
0.0254956
0.0268744
0.0269773
0.0261779
0.0262045
0.0282919
0.0351758
0.0418355
0.044945
0.0452707
0.0404907
0.0338625
0.0300285
0.0282365
0.0261854
0.0246753
0.0246237
0.0253897
0.0277982
0.0363806
0.0562208
0.129015
0.188396
0.187453
0.14764
0.105822
0.0925675
0.093925
0.113716
0.138935
0.142785
0.144726
0.148872
0.150067
0.148169
0.142207
0.133399
0.116437
0.0804705
0.0526624
0.0379511
0.0334063
0.0334634
0.0361832
0.047567
0.0802371
0.0815045
0.129481
0.331799
0.562697
0.451749
0.322788
0.196003
0.109501
0.0652651
0.0452166
0.0474323
0.0506734
0.0458198
0.0543667
0.251392
0.397487
0.416586
0.392574
0.286125
0.172807
0.123548
0.106428
0.0847206
0.064549
0.0625016
0.0809384
0.116202
0.163738
0.18309
0.196663
0.204088
0.200243
0.168577
0.0855016
0.038913
0.0158512
0.0063429
0.00292746
0.00191896
0.00172277
0.00175258
0.0021018
0.00344299
0.00727433
0.0173506
0.0489511
0.0819198
0.108092
0.172393
0.254463
0.267489
0.243799
0.173878
0.122504
0.096409
0.0787796
0.0653488
0.0542269
0.0459682
0.0423481
0.0396178
0.0365344
0.0354793
0.0338841
0.0322974
0.0323048
0.0329509
0.0345522
0.0381335
0.0496893
0.0652544
0.0705142
0.0699684
0.0631009
0.0532978
0.0447186
0.0378613
0.03226
0.0249305
0.0178417
0.0125909
0.0103225
0.0100744
0.0103311
0.0102938
0.00985317
0.00989762
0.0101012
0.0110417
0.0138435
0.0267793
0.0506178
0.0667264
0.0730542
0.078709
0.0808045
0.0807696
0.0794384
0.0745618
0.0582558
0.045115
0.0357738
0.0328116
0.0340331
0.0401861
0.0408916
0.0372079
0.0347381
0.0353712
0.0413711
0.0667791
0.0814589
0.0812408
0.0701574
0.0655594
0.0681981
0.0767688
0.0845094
0.090087
0.0918894
0.0900637
0.07835
0.0560478
0.0384884
0.0282355
0.0235085
0.0222829
0.0232132
0.0259432
0.0261333
0.0251025
0.0253005
0.0271784
0.0325067
0.0360055
0.0365182
0.0339113
0.0299946
0.0288943
0.0295675
0.0326894
0.0567171
0.0970272
0.0968912
0.0903993
0.0949702
0.103304
0.101569
0.0801274
0.0518484
0.0358606
0.0282679
0.0263843
0.026492
0.027674
0.0284874
0.0279712
0.0268557
0.027284
0.0361141
0.0438052
0.0459346
0.0458499
0.043414
0.0366416
0.032627
0.0298277
0.0281432
0.0266736
0.0258607
0.0260002
0.0270608
0.0301209
0.0407181
0.0624219
0.137808
0.194287
0.191796
0.147432
0.109086
0.0944733
0.0924672
0.103128
0.126568
0.133955
0.133608
0.134331
0.124041
0.123066
0.127915
0.129014
0.12461
0.107298
0.0679108
0.0440613
0.0353039
0.0341943
0.0365268
0.0434325
0.0797202
0.0829186
0.120888
0.252703
0.299468
0.223985
0.137552
0.0768529
0.0427141
0.0269059
0.0184066
0.0196309
0.0224623
0.0255133
0.0279838
0.0912475
0.337471
0.409921
0.411032
0.335265
0.201067
0.145235
0.11038
0.0827
0.0652292
0.0694267
0.0921855
0.13394
0.162403
0.177234
0.196617
0.200668
0.191409
0.128145
0.0602615
0.0243367
0.00941748
0.00397365
0.00216754
0.00171973
0.00169424
0.00186512
0.00275449
0.00558666
0.0131975
0.0331351
0.0842128
0.11649
0.150084
0.2333
0.287423
0.279935
0.226606
0.149282
0.110286
0.0885648
0.073665
0.0622207
0.0527394
0.0455916
0.0415296
0.0385085
0.0358809
0.0353473
0.0347178
0.0325817
0.0320969
0.0322752
0.0331893
0.0360593
0.045591
0.0628533
0.0694562
0.0690813
0.0641702
0.0544774
0.045974
0.0399899
0.0338251
0.0257291
0.0183164
0.0128452
0.0103994
0.010129
0.0103436
0.0102898
0.00982615
0.00989454
0.0101253
0.011048
0.0135461
0.0250566
0.0499123
0.0651274
0.0718834
0.0772117
0.0781564
0.078138
0.0774506
0.0747046
0.0628309
0.0479313
0.0389295
0.0377323
0.0408445
0.043357
0.0417673
0.0367447
0.0358769
0.0377935
0.0498217
0.076378
0.0851103
0.0823935
0.0685702
0.0654186
0.0700859
0.0804078
0.0882021
0.094059
0.0955365
0.0929065
0.0768482
0.0519758
0.034936
0.0262626
0.0225732
0.0219074
0.0232655
0.025546
0.0255906
0.0241873
0.0241506
0.0257031
0.0308418
0.0342018
0.0345939
0.0319511
0.0286027
0.0278441
0.0286902
0.0320871
0.0591208
0.0990752
0.0987056
0.0913008
0.09502
0.102219
0.100842
0.0823816
0.0538378
0.037229
0.0294428
0.027877
0.0279318
0.0291728
0.0293029
0.0279973
0.0276025
0.0307022
0.0413913
0.0459375
0.0461449
0.0441032
0.0402511
0.0357009
0.0327649
0.0307471
0.0291862
0.028045
0.0275721
0.0278817
0.029222
0.0332469
0.0463262
0.0692909
0.145719
0.200271
0.197212
0.151373
0.1104
0.0968126
0.0898331
0.086703
0.105983
0.121693
0.124222
0.124608
0.114566
0.10173
0.102665
0.113117
0.120322
0.115464
0.0921304
0.0574918
0.0404401
0.0363546
0.0380906
0.0427644
0.0795963
0.0839714
0.113134
0.201119
0.100223
0.0700051
0.0448926
0.0254201
0.0145503
0.0104344
0.00717807
0.00721677
0.0100339
0.0151544
0.0162438
0.0307486
0.202956
0.38298
0.412032
0.383802
0.248766
0.168198
0.1186
0.0931613
0.0848678
0.0888497
0.110327
0.138763
0.147609
0.169977
0.196973
0.199448
0.173793
0.0908741
0.0394452
0.0153041
0.00608902
0.00276692
0.00180661
0.0016563
0.00171437
0.00226112
0.00430485
0.010104
0.0251476
0.065728
0.129191
0.157501
0.203099
0.287813
0.308612
0.284503
0.199099
0.135355
0.103186
0.0844176
0.0711592
0.0606324
0.0520314
0.0450486
0.0407255
0.0378222
0.035472
0.0353314
0.035261
0.0336632
0.0324594
0.032119
0.0324662
0.0344968
0.0418894
0.0606314
0.0678292
0.0679044
0.0653928
0.0567466
0.0479349
0.0411714
0.034501
0.0269681
0.0194574
0.0135471
0.010652
0.0102657
0.0104698
0.0103807
0.00987062
0.00995549
0.0102231
0.0111105
0.0134448
0.0232407
0.0485233
0.0639252
0.0713239
0.0758555
0.0759831
0.0760231
0.0759643
0.074723
0.0652486
0.0498364
0.0431088
0.0432546
0.0456642
0.0451686
0.0402255
0.0371946
0.0373238
0.0422507
0.0619737
0.0835958
0.0876672
0.0819569
0.0662498
0.0647124
0.0721432
0.0839906
0.0917329
0.0980169
0.0991605
0.0950271
0.0734715
0.0460518
0.0300597
0.0234898
0.0217715
0.0217691
0.023657
0.0253319
0.0252207
0.02333
0.0231123
0.0243611
0.0290079
0.0322597
0.0326244
0.0300946
0.0272949
0.0268676
0.0278411
0.0320589
0.0634912
0.100595
0.100036
0.0921601
0.0953083
0.102117
0.100366
0.0839453
0.0556267
0.0386089
0.0305138
0.0284136
0.0284068
0.0292812
0.0291525
0.0279162
0.0280425
0.0335279
0.0418336
0.0439823
0.0433947
0.0413973
0.0390793
0.0364328
0.0354142
0.033726
0.0318639
0.0304588
0.0298491
0.0302039
0.0315941
0.0371754
0.0526617
0.0766445
0.153107
0.207717
0.205126
0.153295
0.110003
0.0993424
0.0938034
0.0783807
0.07966
0.0999511
0.109135
0.1148
0.112216
0.0931511
0.088142
0.0906913
0.107989
0.11221
0.106094
0.0785186
0.0545358
0.0435577
0.0440041
0.044911
0.0779833
0.0834219
0.105234
0.168007
0.0289781
0.0194114
0.0125834
0.00724664
0.00457374
0.00361342
0.00291891
0.00280317
0.00360906
0.00637748
0.00816864
0.0135858
0.069758
0.302481
0.435801
0.437214
0.352252
0.214827
0.145214
0.112557
0.105789
0.109512
0.128449
0.135333
0.133834
0.168939
0.202806
0.200291
0.137649
0.0624577
0.0243031
0.00904453
0.00373948
0.00204255
0.0016522
0.00164782
0.00193233
0.00331786
0.00770627
0.0193885
0.0487812
0.11959
0.177693
0.204333
0.260685
0.322902
0.321701
0.271825
0.168152
0.118614
0.0943203
0.0780286
0.0672277
0.0584548
0.0510336
0.0435428
0.0391476
0.0373338
0.0351359
0.0352374
0.0354571
0.0349114
0.0335157
0.0322514
0.0321988
0.0334807
0.0396441
0.0577757
0.0661073
0.0668752
0.0653565
0.0588047
0.0489712
0.0413351
0.0361462
0.0284493
0.0203929
0.0140804
0.0108845
0.0105495
0.0108549
0.0106652
0.0100393
0.0101436
0.0104591
0.011304
0.0135235
0.0217092
0.0461268
0.0626001
0.0711383
0.0752776
0.0749078
0.0748242
0.0753918
0.074842
0.0657754
0.0517227
0.0470066
0.0474506
0.0477459
0.043407
0.039227
0.0381122
0.0397875
0.0509533
0.0741183
0.088317
0.0889177
0.0788587
0.0643025
0.0642395
0.0752101
0.0881416
0.0954834
0.101991
0.102702
0.0960125
0.0683472
0.040357
0.0262998
0.0221901
0.0216041
0.0220162
0.0242492
0.0251291
0.0247833
0.0224195
0.0220197
0.02317
0.0275439
0.030384
0.030657
0.02828
0.0260315
0.0258992
0.0271747
0.033408
0.0691996
0.102106
0.100445
0.0931381
0.0955755
0.102287
0.100389
0.0859953
0.0571009
0.0398256
0.0314609
0.0287132
0.0282216
0.0286936
0.0286704
0.0282088
0.0286966
0.0338793
0.0388903
0.0399621
0.0400336
0.0396726
0.0395156
0.0394603
0.0391153
0.0376319
0.0356652
0.0337034
0.0328076
0.0331354
0.0345164
0.0427916
0.0602486
0.0842639
0.158145
0.21595
0.212717
0.150992
0.110755
0.103832
0.100363
0.0761134
0.0686403
0.0727865
0.0806653
0.0895663
0.0938417
0.0857172
0.0772895
0.0773181
0.0876268
0.104996
0.104866
0.0959726
0.074704
0.0539489
0.0561952
0.0509293
0.0786101
0.0831315
0.0969533
0.144757
0.00635455
0.00433098
0.0030353
0.00192816
0.00154856
0.00129476
0.00159303
0.00150733
0.00167734
0.00271933
0.0039693
0.00608403
0.0264591
0.133348
0.41728
0.443009
0.429496
0.348286
0.224204
0.151867
0.132522
0.134778
0.134498
0.124495
0.133844
0.198453
0.213212
0.18854
0.0947909
0.0391394
0.0145531
0.00560644
0.00259573
0.00174026
0.00161793
0.00173902
0.00258021
0.00573623
0.0148521
0.0381121
0.0963151
0.183927
0.224757
0.247855
0.310115
0.3448
0.327455
0.236946
0.151538
0.110541
0.0905509
0.0749478
0.0648236
0.0565606
0.0493562
0.0415298
0.037449
0.036532
0.0351459
0.0343025
0.0344661
0.0348787
0.0346136
0.0328363
0.0322774
0.033166
0.0380867
0.0559756
0.0648399
0.0657058
0.0650711
0.0597866
0.0492168
0.0422335
0.0371821
0.0290652
0.0206957
0.0142439
0.0109802
0.0106309
0.0111807
0.0110671
0.0104923
0.0107087
0.0114098
0.0122648
0.0141688
0.0204443
0.0428895
0.060955
0.0713703
0.0753616
0.0747687
0.0746486
0.0754298
0.0749211
0.065496
0.0531214
0.0493258
0.049517
0.0471436
0.0406193
0.0391205
0.0393886
0.0446277
0.0649493
0.0823631
0.0906864
0.0896168
0.0744289
0.0619253
0.0635322
0.0786036
0.0922986
0.0990571
0.105857
0.105925
0.0963898
0.0618582
0.0341976
0.0239479
0.0216795
0.0217333
0.0230284
0.0247522
0.024942
0.0240429
0.021218
0.0208523
0.0218778
0.0259636
0.02855
0.0288491
0.0266122
0.0249101
0.024978
0.0265622
0.0350015
0.0773157
0.105847
0.102412
0.0952725
0.0961223
0.102267
0.100535
0.0887858
0.0606881
0.0424743
0.0325455
0.0289304
0.0281461
0.0283609
0.0287679
0.028834
0.0292949
0.0328657
0.0351023
0.0365526
0.0392983
0.040701
0.0415968
0.0423191
0.0425065
0.0418316
0.0395833
0.0369273
0.0357683
0.0361428
0.0379676
0.0503691
0.0693511
0.0918824
0.161275
0.222283
0.216516
0.145769
0.116761
0.114206
0.102947
0.0710377
0.0626002
0.0623627
0.0659778
0.0724181
0.0748942
0.070503
0.0659332
0.0659413
0.0699101
0.0898004
0.10157
0.0984845
0.0920335
0.0696595
0.0712772
0.0612088
0.0821187
0.0840018
0.0895671
0.125988
0.00141676
0.00108409
0.000903571
0.000681341
0.000648711
0.00067945
0.00100755
0.0010701
0.00105242
0.00120431
0.00171384
0.00371764
0.0109317
0.0428867
0.278784
0.416319
0.424438
0.41177
0.355931
0.243491
0.195234
0.163416
0.135249
0.126666
0.174945
0.224047
0.222522
0.141567
0.0611994
0.0231111
0.00857147
0.00353336
0.00196307
0.00162552
0.0016419
0.00209208
0.00420162
0.0110564
0.0296794
0.0756983
0.172492
0.2401
0.262045
0.285059
0.348552
0.356273
0.318438
0.197195
0.129501
0.100085
0.0851842
0.0707187
0.0624516
0.05422
0.0472855
0.0405319
0.036362
0.0355503
0.0352135
0.0331651
0.0325907
0.0342835
0.034539
0.0331431
0.0324072
0.0330516
0.037869
0.0559608
0.0642543
0.065614
0.0650102
0.0597058
0.0502787
0.0433264
0.037867
0.030086
0.0213231
0.0145883
0.0111615
0.0107705
0.0117389
0.0119555
0.0118214
0.0120818
0.0127442
0.013435
0.015011
0.0196811
0.0392265
0.0585866
0.0712233
0.0767051
0.0760124
0.0757546
0.0765265
0.0749951
0.0650421
0.0547083
0.0518955
0.0504622
0.0432617
0.0396862
0.0397178
0.0420358
0.0566702
0.0763919
0.0881502
0.0918761
0.0883501
0.0683243
0.0593194
0.0635273
0.0829754
0.0966319
0.102651
0.109334
0.10869
0.0948703
0.0559499
0.0317101
0.0232289
0.0215763
0.022289
0.0243447
0.0249206
0.0246664
0.022718
0.0199657
0.0198035
0.0209286
0.0247039
0.0267854
0.027079
0.0251332
0.0238914
0.0241372
0.02594
0.0355781
0.0863441
0.116088
0.108317
0.09757
0.097118
0.102407
0.100954
0.090752
0.0648437
0.0473743