/*--------------------------------*- C++ -*----------------------------------*\
| =========                 |                                                 |
| \\      /  F ield         | OpenFOAM: The Open Source CFD Toolbox           |
|  \\    /   O peration     | Version:  2.4.0                                 |
|   \\  /    A nd           | Web:      www.OpenFOAM.org                      |
|    \\/     M anipulation  |                                                 |
\*---------------------------------------------------------------------------*/
FoamFile
{
    version     2.0;
    format      ascii;
    class       surfaceScalarField;
    location    "0.287";
    object      phi_0;
}
// * * * * * * * * * * * * * * * * * * * * * * * * * * * * * * * * * * * * * //

dimensions      [0 3 -1 0 0 0 0];

internalField   nonuniform List<scalar> 
34880
(
5.48709e-06
7.01291e-06
3.12401e-06
2.36307e-06
2.47461e-06
6.49407e-07
2.21927e-06
2.55338e-07
2.07289e-06
1.46374e-07
1.9705e-06
1.02395e-07
1.88896e-06
8.1537e-08
1.81674e-06
7.22241e-08
1.77875e-06
3.79867e-08
1.74124e-06
3.75123e-08
1.70924e-06
3.19977e-08
1.69558e-06
1.36597e-08
1.67753e-06
1.80559e-08
1.6796e-06
-2.07042e-09
1.6837e-06
-4.09752e-09
1.75698e-06
-7.32874e-08
1.7975e-06
-4.05179e-08
2.04806e-06
-2.50558e-07
2.32902e-06
-2.80958e-07
-1.3769e-06
3.70592e-06
1.01091e-05
9.40378e-06
7.82764e-06
4.64456e-06
6.71408e-06
1.76297e-06
6.06256e-06
9.06859e-07
5.64426e-06
5.64669e-07
5.3547e-06
3.91962e-07
5.12184e-06
3.14396e-07
4.94156e-06
2.52498e-07
4.81453e-06
1.65017e-07
4.70296e-06
1.49092e-07
4.61805e-06
1.169e-07
4.55443e-06
7.72804e-08
4.50355e-06
6.89386e-08
4.46803e-06
3.345e-08
4.46927e-06
-5.33426e-09
4.53717e-06
-1.41192e-07
4.59833e-06
-1.01671e-07
4.99815e-06
-6.5038e-07
5.67519e-06
-9.57996e-07
-2.75578e-06
7.05406e-06
1.24238e-05
9.48001e-06
1.09997e-05
6.06862e-06
9.98581e-06
2.77687e-06
9.20048e-06
1.69219e-06
8.61743e-06
1.14772e-06
8.19817e-06
8.11221e-07
7.85254e-06
6.60023e-07
7.59334e-06
5.11695e-07
7.39193e-06
3.66435e-07
7.21949e-06
3.21528e-07
7.0918e-06
2.44588e-07
6.97949e-06
1.89589e-07
6.90222e-06
1.46214e-07
6.82538e-06
1.10287e-07
6.81634e-06
3.71515e-09
6.85006e-06
-1.74913e-07
6.91986e-06
-1.71479e-07
7.275e-06
-1.00552e-06
8.13475e-06
-1.81774e-06
-4.47937e-06
9.85833e-06
1.3411e-05
8.56903e-06
1.28829e-05
6.59674e-06
1.2333e-05
3.32669e-06
1.17138e-05
2.31142e-06
1.11301e-05
1.73147e-06
1.06718e-05
1.26952e-06
1.02644e-05
1.06743e-06
9.95887e-06
8.1718e-07
9.71067e-06
6.14629e-07
9.48989e-06
5.42315e-07
9.33551e-06
3.9897e-07
9.18095e-06
3.44142e-07
9.08255e-06
2.44622e-07
8.97266e-06
2.20172e-07
8.94639e-06
2.99865e-08
8.9461e-06
-1.74619e-07
9.01984e-06
-2.45224e-07
9.28682e-06
-1.27249e-06
1.00518e-05
-2.58272e-06
-6.56087e-06
1.21333e-05
1.35892e-05
7.47984e-06
1.36516e-05
6.53433e-06
1.3631e-05
3.34726e-06
1.33995e-05
2.54294e-06
1.30102e-05
2.12076e-06
1.26451e-05
1.63463e-06
1.22607e-05
1.45186e-06
1.19622e-05
1.11564e-06
1.17132e-05
8.6362e-07
1.14674e-05
7.88144e-07
1.13116e-05
5.54764e-07
1.11326e-05
5.23143e-07
1.10198e-05
3.57439e-07
1.08979e-05
3.42085e-07
1.08517e-05
7.61787e-08
1.08259e-05
-1.48808e-07
1.09001e-05
-3.19464e-07
1.11324e-05
-1.50478e-06
1.16388e-05
-3.08907e-06
-8.51254e-06
1.35904e-05
1.34809e-05
6.49894e-06
1.3742e-05
6.27328e-06
1.40029e-05
3.08631e-06
1.41464e-05
2.39945e-06
1.40665e-05
2.20065e-06
1.39265e-05
1.77456e-06
1.36816e-05
1.69684e-06
1.34683e-05
1.3289e-06
1.32882e-05
1.04375e-06
1.30597e-05
1.0166e-06
1.29368e-05
6.77684e-07
1.27677e-05
6.92217e-07
1.26488e-05
4.76356e-07
1.25457e-05
4.45172e-07
1.24909e-05
1.31051e-07
1.24468e-05
-1.04802e-07
1.25135e-05
-3.86126e-07
1.27776e-05
-1.76885e-06
1.3076e-05
-3.38746e-06
-9.88626e-06
1.44497e-05
1.33607e-05
5.63826e-06
1.36841e-05
5.94987e-06
1.39294e-05
2.84104e-06
1.42312e-05
2.09763e-06
1.43634e-05
2.06842e-06
1.44394e-05
1.69854e-06
1.43951e-05
1.74118e-06
1.43263e-05
1.39772e-06
1.42893e-05
1.0807e-06
1.41404e-05
1.16549e-06
1.40962e-05
7.21937e-07
1.3993e-05
7.95389e-07
1.38868e-05
5.82575e-07
1.38321e-05
4.99896e-07
1.38015e-05
1.61611e-07
1.37513e-05
-5.45432e-08
1.38001e-05
-4.34985e-07
1.41225e-05
-2.09126e-06
1.43274e-05
-3.59233e-06
-1.07214e-05
1.51626e-05
1.32632e-05
4.87511e-06
1.36873e-05
5.52574e-06
1.37937e-05
2.73458e-06
1.41087e-05
1.78271e-06
1.43079e-05
1.86919e-06
1.44671e-05
1.53931e-06
1.45489e-05
1.6594e-06
1.45758e-05
1.37082e-06
1.4675e-05
9.81526e-07
1.46257e-05
1.2148e-06
1.46791e-05
6.68516e-07
1.46996e-05
7.74825e-07
1.46365e-05
6.45751e-07
1.46517e-05
4.84701e-07
1.46927e-05
1.2056e-07
1.4674e-05
-3.58577e-08
1.4682e-05
-4.42947e-07
1.50865e-05
-2.49574e-06
1.52829e-05
-3.78877e-06
-9.51023e-06
1.40717e-05
1.31687e-05
4.20645e-06
1.36469e-05
5.04751e-06
1.37068e-05
2.6747e-06
1.39823e-05
1.50712e-06
1.41975e-05
1.65401e-06
1.43669e-05
1.3699e-06
1.4492e-05
1.53439e-06
1.45438e-05
1.31897e-06
1.47024e-05
8.22973e-07
1.46914e-05
1.22575e-06
1.47835e-05
5.764e-07
1.49201e-05
6.38277e-07
1.48885e-05
6.77296e-07
1.49669e-05
4.06299e-07
1.50964e-05
-8.91486e-09
1.5145e-05
-8.43997e-08
1.51339e-05
-4.3187e-07
1.5552e-05
-2.91386e-06
1.58618e-05
-4.09858e-06
-9.29052e-06
1.56421e-05
1.30868e-05
3.61963e-06
1.35855e-05
4.54882e-06
1.367e-05
2.59021e-06
1.38833e-05
1.2938e-06
1.40954e-05
1.44193e-06
1.42821e-05
1.18324e-06
1.43923e-05
1.4242e-06
1.44688e-05
1.24248e-06
1.46516e-05
6.40172e-07
1.46181e-05
1.25917e-06
1.4733e-05
4.61543e-07
1.49061e-05
4.6515e-07
1.48501e-05
7.33309e-07
1.49785e-05
2.77957e-07
1.51268e-05
-1.57218e-07
1.52277e-05
-1.85329e-07
1.52729e-05
-4.77132e-07
1.5595e-05
-3.23595e-06
1.59167e-05
-4.42024e-06
-9.10384e-06
1.573e-05
1.30264e-05
3.09324e-06
1.35112e-05
4.06404e-06
1.36514e-05
2.44995e-06
1.38054e-05
1.13983e-06
1.40252e-05
1.22209e-06
1.42083e-05
1.00014e-06
1.42874e-05
1.34517e-06
1.44352e-05
1.0946e-06
1.45503e-05
5.25084e-07
1.45356e-05
1.2739e-06
1.47118e-05
2.85364e-07
1.47971e-05
3.79854e-07
1.4777e-05
7.5343e-07
1.49501e-05
1.04794e-07
1.49835e-05
-1.90615e-07
1.51265e-05
-3.28329e-07
1.52985e-05
-6.49143e-07
1.54775e-05
-3.41496e-06
1.57094e-05
-4.65207e-06
-9.06006e-06
1.56656e-05
1.29674e-05
2.62588e-06
1.34395e-05
3.59186e-06
1.36334e-05
2.25607e-06
1.37642e-05
1.00903e-06
1.39634e-05
1.02294e-06
1.40995e-05
8.63972e-07
1.42505e-05
1.19422e-06
1.44009e-05
9.44218e-07
1.44264e-05
4.99515e-07
1.45238e-05
1.17657e-06
1.46174e-05
1.91766e-07
1.46634e-05
3.3383e-07
1.48002e-05
6.16622e-07
1.49e-05
4.99062e-09
1.48338e-05
-1.24403e-07
1.50491e-05
-5.43634e-07
1.52441e-05
-8.44109e-07
1.53153e-05
-3.4862e-06
1.55055e-05
-4.84225e-06
-9.02298e-06
1.54684e-05
1.29118e-05
2.21406e-06
1.33947e-05
3.10904e-06
1.36146e-05
2.03612e-06
1.37494e-05
8.7427e-07
1.39064e-05
8.65891e-07
1.40117e-05
7.58657e-07
1.42365e-05
9.69407e-07
1.43155e-05
8.65237e-07
1.4377e-05
4.38027e-07
1.4516e-05
1.03758e-06
1.44934e-05
2.14384e-07
1.46102e-05
2.16964e-07
1.47956e-05
4.31251e-07
1.48377e-05
-3.71327e-08
1.47972e-05
-8.38686e-08
1.49998e-05
-7.46204e-07
1.51214e-05
-9.65704e-07
1.52131e-05
-3.57792e-06
1.53873e-05
-5.01648e-06
-8.76035e-06
1.51247e-05
1.2878e-05
1.83601e-06
1.33507e-05
2.63638e-06
1.36036e-05
1.78327e-06
1.37402e-05
7.37591e-07
1.38677e-05
7.38412e-07
1.39713e-05
6.55114e-07
1.41731e-05
7.67581e-07
1.4236e-05
8.02336e-07
1.43753e-05
2.98735e-07
1.44666e-05
9.46256e-07
1.44541e-05
2.26871e-07
1.45799e-05
9.12311e-08
1.4713e-05
2.98098e-07
1.48052e-05
-1.29312e-07
1.48251e-05
-1.03785e-07
1.49249e-05
-8.4602e-07
1.50346e-05
-1.07534e-06
1.51509e-05
-3.69426e-06
1.52041e-05
-5.06966e-06
-8.49209e-06
1.49358e-05
1.28562e-05
1.47984e-06
1.32903e-05
2.20223e-06
1.35817e-05
1.49188e-06
1.37267e-05
5.92563e-07
1.38262e-05
6.38976e-07
1.39375e-05
5.43836e-07
1.40972e-05
6.07799e-07
1.42084e-05
6.91203e-07
1.43556e-05
1.51493e-07
1.44231e-05
8.78792e-07
1.44499e-05
2.00071e-07
1.4528e-05
1.30782e-08
1.46225e-05
2.03609e-07
1.47899e-05
-2.96711e-07
1.48216e-05
-1.35486e-07
1.48653e-05
-8.89725e-07
1.49917e-05
-1.20174e-06
1.50482e-05
-3.75074e-06
1.49963e-05
-5.01777e-06
-8.54581e-06
1.505e-05
1.28319e-05
1.14797e-06
1.32532e-05
1.78088e-06
1.35668e-05
1.1783e-06
1.369e-05
4.69307e-07
1.37921e-05
5.36932e-07
1.39012e-05
4.34754e-07
1.40625e-05
4.46427e-07
1.41995e-05
5.5424e-07
1.42928e-05
5.81904e-08
1.44147e-05
7.56872e-07
1.44399e-05
1.74876e-07
1.44693e-05
-1.63297e-08
1.45885e-05
8.44086e-08
1.4755e-05
-4.63183e-07
1.47714e-05
-1.51875e-07
1.48319e-05
-9.50255e-07
1.49718e-05
-1.34162e-06
1.49389e-05
-3.71783e-06
1.49103e-05
-4.98917e-06
-8.81278e-06
1.51773e-05
1.28028e-05
8.4512e-07
1.3227e-05
1.3567e-06
1.35418e-05
8.63487e-07
1.36585e-05
3.52651e-07
1.37723e-05
4.23139e-07
1.38851e-05
3.21954e-07
1.40601e-05
2.71448e-07
1.41574e-05
4.56941e-07
1.42456e-05
-3.00046e-08
1.44145e-05
5.8793e-07
1.44181e-05
1.7132e-07
1.44354e-05
-3.36739e-08
1.46047e-05
-8.48947e-08
1.46656e-05
-5.24068e-07
1.47346e-05
-2.20832e-07
1.48152e-05
-1.03092e-06
1.4959e-05
-1.4854e-06
1.48655e-05
-3.62434e-06
1.47844e-05
-4.90801e-06
-7.433e-06
1.34046e-05
1.27724e-05
5.72679e-07
1.31992e-05
9.29948e-07
1.35312e-05
5.31454e-07
1.3647e-05
2.36887e-07
1.37456e-05
3.24484e-07
1.38901e-05
1.77525e-07
1.405e-05
1.11533e-07
1.41151e-05
3.91846e-07
1.4243e-05
-1.57875e-07
1.43985e-05
4.32383e-07
1.43749e-05
1.94909e-07
1.44774e-05
-1.36181e-07
1.45659e-05
-1.7333e-07
1.46117e-05
-5.69947e-07
1.47064e-05
-3.15477e-07
1.48261e-05
-1.15069e-06
1.49034e-05
-1.56265e-06
1.48457e-05
-3.56668e-06
1.47932e-05
-4.85551e-06
-7.44145e-06
1.48017e-05
1.27504e-05
3.22245e-07
1.3195e-05
4.85393e-07
1.35332e-05
1.93259e-07
1.36273e-05
1.42729e-07
1.37399e-05
2.11905e-07
1.38981e-05
1.93535e-08
1.40226e-05
-1.29998e-08
1.411e-05
3.04485e-07
1.42438e-05
-2.91732e-07
1.43478e-05
3.28473e-07
1.43814e-05
1.61263e-07
1.44992e-05
-2.53951e-07
1.45208e-05
-1.94928e-07
1.45744e-05
-6.23528e-07
1.47086e-05
-4.49701e-07
1.4789e-05
-1.23106e-06
1.48597e-05
-1.63336e-06
1.4826e-05
-3.53299e-06
1.47804e-05
-4.80992e-06
-7.34846e-06
1.46874e-05
1.27448e-05
7.74356e-08
1.3209e-05
2.11959e-08
1.35184e-05
-1.16157e-07
1.36167e-05
4.44987e-08
1.37659e-05
6.26199e-08
1.38864e-05
-1.01096e-07
1.39945e-05
-1.21136e-07
1.41335e-05
1.65518e-07
1.42144e-05
-3.7267e-07
1.43213e-05
2.21644e-07
1.44082e-05
7.43198e-08
1.44749e-05
-3.20631e-07
1.4498e-05
-2.18051e-07
1.4569e-05
-6.94543e-07
1.46898e-05
-5.70436e-07
1.47579e-05
-1.29917e-06
1.48319e-05
-1.70742e-06
1.48165e-05
-3.51754e-06
1.47419e-05
-4.73538e-06
-7.16891e-06
1.45624e-05
1.27567e-05
-1.7926e-07
1.32131e-05
-4.3526e-07
1.34958e-05
-3.98815e-07
1.36405e-05
-1.00203e-07
1.37773e-05
-7.42059e-08
1.38575e-05
-1.81218e-07
1.39927e-05
-2.56353e-07
1.41495e-05
8.66562e-09
1.41959e-05
-4.19008e-07
1.43355e-05
8.1959e-08
1.43998e-05
1.00857e-08
1.44531e-05
-3.73989e-07
1.45062e-05
-2.71119e-07
1.45698e-05
-7.58173e-07
1.46784e-05
-6.78969e-07
1.47454e-05
-1.36616e-06
1.48269e-05
-1.78893e-06
1.47758e-05
-3.4665e-06
1.46734e-05
-4.63295e-06
-7.16168e-06
1.46662e-05
1.27754e-05
-4.54622e-07
1.32076e-05
-8.67496e-07
1.34968e-05
-6.88034e-07
1.36608e-05
-2.64154e-07
1.37592e-05
-1.72656e-07
1.38518e-05
-2.73851e-07
1.4024e-05
-4.28481e-07
1.41523e-05
-1.19634e-07
1.42083e-05
-4.75075e-07
1.43357e-05
-4.54275e-08
1.43914e-05
-4.55407e-08
1.44523e-05
-4.3493e-07
1.4537e-05
-3.55858e-07
1.45634e-05
-7.84519e-07
1.46946e-05
-8.10144e-07
1.47164e-05
-1.38798e-06
1.48382e-05
-1.91074e-06
1.47246e-05
-3.35294e-06
1.45463e-05
-4.45463e-06
-5.78507e-06
1.31697e-05
1.27863e-05
-7.40881e-07
1.32078e-05
-1.289e-06
1.35156e-05
-9.95918e-07
1.36585e-05
-4.07013e-07
1.3755e-05
-2.69167e-07
1.38901e-05
-4.08979e-07
1.40444e-05
-5.82744e-07
1.41641e-05
-2.39349e-07
1.42141e-05
-5.25013e-07
1.43353e-05
-1.66652e-07
1.43919e-05
-1.02168e-07
1.44913e-05
-5.34289e-07
1.45381e-05
-4.0265e-07
1.45956e-05
-8.42033e-07
1.46753e-05
-8.89896e-07
1.47436e-05
-1.45623e-06
1.47998e-05
-1.96694e-06
1.47584e-05
-3.31159e-06
1.46742e-05
-4.37046e-06
-5.72878e-06
1.46179e-05
1.27945e-05
-1.03536e-06
1.32277e-05
-1.72222e-06
1.35378e-05
-1.30599e-06
1.36601e-05
-5.29326e-07
1.37852e-05
-3.94256e-07
1.39279e-05
-5.51721e-07
1.40463e-05
-7.01161e-07
1.41728e-05
-3.65805e-07
1.4231e-05
-5.83201e-07
1.43482e-05
-2.83888e-07
1.44246e-05
-1.78558e-07
1.45062e-05
-6.15915e-07
1.45603e-05
-4.56687e-07
1.46003e-05
-8.82056e-07
1.46903e-05
-9.79869e-07
1.4742e-05
-1.50801e-06
1.47987e-05
-2.02362e-06
1.47809e-05
-3.29374e-06
1.46762e-05
-4.26579e-06
-5.63446e-06
1.45819e-05
1.2814e-05
-1.3494e-06
1.32686e-05
-2.17681e-06
1.35637e-05
-1.60107e-06
1.36772e-05
-6.4284e-07
1.38112e-05
-5.28266e-07
1.39443e-05
-6.848e-07
1.40569e-05
-8.13774e-07
1.42001e-05
-5.08934e-07
1.42587e-05
-6.41795e-07
1.43845e-05
-4.09688e-07
1.44485e-05
-2.42572e-07
1.45189e-05
-6.86333e-07
1.4579e-05
-5.1683e-07
1.46349e-05
-9.37944e-07
1.46993e-05
-1.0443e-06
1.47594e-05
-1.56808e-06
1.48185e-05
-2.08274e-06
1.47782e-05
-3.25335e-06
1.46968e-05
-4.18444e-06
-5.55278e-06
1.46151e-05
1.2847e-05
-1.69639e-06
1.33116e-05
-2.64141e-06
1.35922e-05
-1.88168e-06
1.36947e-05
-7.45339e-07
1.38231e-05
-6.56686e-07
1.39716e-05
-8.33238e-07
1.40996e-05
-9.41772e-07
1.4236e-05
-6.45368e-07
1.42978e-05
-7.0361e-07
1.44146e-05
-5.26466e-07
1.44718e-05
-2.99819e-07
1.45371e-05
-7.51583e-07
1.46183e-05
-5.98047e-07
1.46696e-05
-9.89226e-07
1.47259e-05
-1.10056e-06
1.47926e-05
-1.63485e-06
1.48321e-05
-2.12222e-06
1.47741e-05
-3.19538e-06
1.47221e-05
-4.13238e-06
-5.55338e-06
1.47227e-05
1.28848e-05
-2.08122e-06
1.33536e-05
-3.11015e-06
1.36158e-05
-2.14391e-06
1.37104e-05
-8.39993e-07
1.38563e-05
-8.0256e-07
1.40289e-05
-1.00581e-06
1.41506e-05
-1.06345e-06
1.42689e-05
-7.63694e-07
1.43381e-05
-7.7277e-07
1.44385e-05
-6.26939e-07
1.45096e-05
-3.70872e-07
1.45715e-05
-8.13534e-07
1.46751e-05
-7.01618e-07
1.46968e-05
-1.01095e-06
1.47783e-05
-1.18209e-06
1.48055e-05
-1.66203e-06
1.48606e-05
-2.17733e-06
1.47898e-05
-3.12449e-06
1.45886e-05
-3.9312e-06
-4.2459e-06
1.32811e-05
1.29275e-05
-2.50868e-06
1.34025e-05
-3.5852e-06
1.36042e-05
-2.34563e-06
1.37431e-05
-9.78893e-07
1.39193e-05
-9.78755e-07
1.40926e-05
-1.17912e-06
1.41936e-05
-1.16445e-06
1.43085e-05
-8.7858e-07
1.43724e-05
-8.36649e-07
1.44767e-05
-7.3122e-07
1.45534e-05
-4.47569e-07
1.46367e-05
-8.96887e-07
1.47097e-05
-7.74621e-07
1.47664e-05
-1.06759e-06
1.48008e-05
-1.2165e-06
1.48507e-05
-1.71194e-06
1.48592e-05
-2.18586e-06
1.48493e-05
-3.11461e-06
1.47441e-05
-3.82596e-06
-4.38891e-06
1.48871e-05
1.2982e-05
-2.99071e-06
1.3456e-05
-4.05917e-06
1.36072e-05
-2.49681e-06
1.37938e-05
-1.16555e-06
1.39908e-05
-1.17572e-06
1.41471e-05
-1.33543e-06
1.42431e-05
-1.2604e-06
1.43425e-05
-9.78047e-07
1.44168e-05
-9.10901e-07
1.45203e-05
-8.34762e-07
1.4621e-05
-5.48213e-07
1.46921e-05
-9.67982e-07
1.47705e-05
-8.53043e-07
1.4818e-05
-1.11516e-06
1.48379e-05
-1.2364e-06
1.48847e-05
-1.75873e-06
1.48828e-05
-2.18389e-06
1.48904e-05
-3.12226e-06
1.4796e-05
-3.7315e-06
-4.48884e-06
1.48959e-05
1.30436e-05
-3.53434e-06
1.35123e-05
-4.5278e-06
1.3648e-05
-2.63251e-06
1.38585e-05
-1.37611e-06
1.40593e-05
-1.37654e-06
1.41992e-05
-1.47527e-06
1.42894e-05
-1.35062e-06
1.43763e-05
-1.06495e-06
1.44732e-05
-1.00784e-06
1.45801e-05
-9.41597e-07
1.46973e-05
-6.65406e-07
1.47546e-05
-1.02532e-06
1.48381e-05
-9.36531e-07
1.48604e-05
-1.13744e-06
1.48888e-05
-1.26479e-06
1.49197e-05
-1.78963e-06
1.49245e-05
-2.1887e-06
1.49166e-05
-3.1144e-06
1.48372e-05
-3.65207e-06
-4.51692e-06
1.48653e-05
1.31062e-05
-4.14053e-06
1.35824e-05
-5.00405e-06
1.37089e-05
-2.75901e-06
1.39255e-05
-1.59265e-06
1.41201e-05
-1.57114e-06
1.42497e-05
-1.60493e-06
1.43412e-05
-1.44209e-06
1.44356e-05
-1.15933e-06
1.45568e-05
-1.12907e-06
1.46642e-05
-1.04894e-06
1.47743e-05
-7.75575e-07
1.48222e-05
-1.07323e-06
1.48899e-05
-1.00415e-06
1.49046e-05
-1.15223e-06
1.49293e-05
-1.28948e-06
1.49448e-05
-1.80514e-06
1.49138e-05
-2.15764e-06
1.48566e-05
-3.05723e-06
1.47247e-05
-3.52011e-06
-4.45964e-06
1.46674e-05
1.31827e-05
-4.82324e-06
1.36617e-05
-5.48307e-06
1.37689e-05
-2.86613e-06
1.39868e-05
-1.81056e-06
1.4185e-05
-1.7694e-06
1.43259e-05
-1.74584e-06
1.44281e-05
-1.54423e-06
1.45336e-05
-1.26482e-06
1.46554e-05
-1.25092e-06
1.47337e-05
-1.12728e-06
1.4816e-05
-8.57855e-07
1.48394e-05
-1.09659e-06
1.48759e-05
-1.04071e-06
1.48618e-05
-1.13806e-06
1.48558e-05
-1.28352e-06
1.47938e-05
-1.74316e-06
1.46982e-05
-2.06204e-06
1.45032e-05
-2.86217e-06
1.42557e-05
-3.27259e-06
-4.39857e-06
1.41946e-05
1.32754e-05
-5.5986e-06
1.37162e-05
-5.92393e-06
1.38269e-05
-2.97677e-06
1.40738e-05
-2.05747e-06
1.42946e-05
-1.99027e-06
1.44316e-05
-1.88277e-06
1.45132e-05
-1.62587e-06
1.45911e-05
-1.34267e-06
1.46471e-05
-1.30698e-06
1.46536e-05
-1.1337e-06
1.46692e-05
-8.73539e-07
1.46239e-05
-1.0513e-06
1.45798e-05
-9.96587e-07
1.44983e-05
-1.05652e-06
1.44076e-05
-1.19287e-06
1.42451e-05
-1.58059e-06
1.40544e-05
-1.87135e-06
1.37269e-05
-2.53467e-06
1.33247e-05
-2.87039e-06
-3.3789e-06
1.2305e-05
1.33731e-05
-6.47172e-06
1.37013e-05
-6.25208e-06
1.39264e-05
-3.20195e-06
1.42019e-05
-2.33292e-06
1.43714e-05
-2.15979e-06
1.44109e-05
-1.92225e-06
1.43857e-05
-1.60063e-06
1.43442e-05
-1.30117e-06
1.42582e-05
-1.22099e-06
1.41478e-05
-1.02337e-06
1.40592e-05
-7.84938e-07
1.39191e-05
-9.11135e-07
1.37851e-05
-8.6263e-07
1.36363e-05
-9.07723e-07
1.34679e-05
-1.02445e-06
1.32364e-05
-1.34909e-06
1.2969e-05
-1.60393e-06
1.25759e-05
-2.14159e-06
1.21648e-05
-2.4593e-06
-3.11315e-06
1.18991e-05
1.34899e-05
-7.46163e-06
1.3758e-05
-6.52017e-06
1.3989e-05
-3.43296e-06
1.41384e-05
-2.48229e-06
1.40794e-05
-2.10078e-06
1.3898e-05
-1.74089e-06
1.36833e-05
-1.38595e-06
1.3479e-05
-1.09688e-06
1.32546e-05
-9.96594e-07
1.30499e-05
-8.18683e-07
1.28871e-05
-6.22054e-07
1.26902e-05
-7.1423e-07
1.25089e-05
-6.8138e-07
1.23241e-05
-7.2295e-07
1.21161e-05
-8.16382e-07
1.18491e-05
-1.08208e-06
1.15412e-05
-1.29611e-06
1.11188e-05
-1.71912e-06
1.06406e-05
-1.9811e-06
-2.33917e-06
9.86659e-06
1.35956e-05
-8.55728e-06
1.36632e-05
-6.58774e-06
1.36158e-05
-3.38555e-06
1.34005e-05
-2.26697e-06
1.30196e-05
-1.71988e-06
1.26196e-05
-1.34087e-06
1.22646e-05
-1.03094e-06
1.19661e-05
-7.9846e-07
1.16808e-05
-7.11235e-07
1.14445e-05
-5.8239e-07
1.12577e-05
-4.35285e-07
1.10476e-05
-5.04153e-07
1.08557e-05
-4.89452e-07
1.06614e-05
-5.28648e-07
1.04416e-05
-5.96546e-07
1.01641e-05
-8.04554e-07
9.84205e-06
-9.74111e-07
9.40934e-06
-1.28641e-06
8.92873e-06
-1.50049e-06
-1.71961e-06
8.30917e-06
1.34152e-05
-9.47249e-06
1.2891e-05
-6.06357e-06
1.23194e-05
-2.81395e-06
1.17174e-05
-1.66493e-06
1.11358e-05
-1.13827e-06
1.06512e-05
-8.56256e-07
1.02662e-05
-6.45936e-07
9.95877e-06
-4.91073e-07
9.68024e-06
-4.32708e-07
9.45732e-06
-3.59469e-07
9.28188e-06
-2.59842e-07
9.08845e-06
-3.10727e-07
8.90944e-06
-3.10438e-07
8.72433e-06
-3.43538e-07
8.51384e-06
-3.86054e-07
8.24613e-06
-5.36843e-07
7.92841e-06
-6.56389e-07
7.51187e-06
-8.6987e-07
7.03621e-06
-1.02484e-06
-1.21742e-06
6.53403e-06
1.24272e-05
-9.39973e-06
1.10058e-05
-4.64213e-06
9.97473e-06
-1.78287e-06
9.20349e-06
-8.93694e-07
8.62122e-06
-5.56002e-07
8.18244e-06
-4.17475e-07
7.85015e-06
-3.13646e-07
7.59215e-06
-2.3307e-07
7.36392e-06
-2.04477e-07
7.18162e-06
-1.77165e-07
7.0412e-06
-1.19428e-07
6.88375e-06
-1.53275e-07
6.73311e-06
-1.59794e-07
6.5721e-06
-1.82531e-07
6.38878e-06
-2.02728e-07
6.14776e-06
-2.95824e-07
5.85541e-06
-3.64039e-07
5.47598e-06
-4.90441e-07
5.02756e-06
-5.76423e-07
-7.56608e-07
4.56675e-06
1.0112e-05
-7.01172e-06
7.83187e-06
-2.362e-06
6.70539e-06
-6.56393e-07
6.06378e-06
-2.52085e-07
5.64826e-06
-1.40489e-07
5.34294e-06
-1.12151e-07
5.1149e-06
-8.56059e-08
4.94209e-06
-6.02663e-08
4.79068e-06
-5.30625e-08
4.66543e-06
-5.19169e-08
4.57539e-06
-2.93884e-08
4.4662e-06
-4.40796e-08
4.35655e-06
-5.01391e-08
4.23418e-06
-6.01676e-08
4.09625e-06
-6.47988e-08
3.90259e-06
-1.02157e-07
3.66551e-06
-1.26965e-07
3.35185e-06
-1.76775e-07
2.98026e-06
-2.04839e-07
-3.43554e-07
2.56721e-06
5.48828e-06
3.12627e-06
2.46988e-06
2.21779e-06
2.07731e-06
1.96515e-06
1.87955e-06
1.81928e-06
1.76622e-06
1.7143e-06
1.68491e-06
1.64084e-06
1.5907e-06
1.53053e-06
1.46573e-06
1.36357e-06
1.23661e-06
1.05983e-06
8.54994e-07
5.1144e-07
6.03863e-06
-2.2738e-06
-5.89099e-08
7.23568e-06
-5.65685e-06
4.4598e-06
7.55835e-06
-8.41384e-06
8.09117e-06
7.4649e-06
-1.11147e-05
1.12081e-05
7.10415e-06
-1.24769e-05
1.28376e-05
6.58107e-06
-1.34021e-05
1.39252e-05
6.01859e-06
-1.27388e-05
1.33013e-05
5.43862e-06
-1.14583e-05
1.20383e-05
4.93604e-06
-8.82373e-06
9.32631e-06
3.5475e-06
-6.38006e-06
7.7686e-06
2.99168e-06
-4.93572e-06
5.49154e-06
3.65087e-06
-3.03871e-06
2.37952e-06
4.19202e-06
2.00175e-06
-2.54291e-06
5.51866e-06
6.02286e-06
-7.34949e-06
6.35863e-06
1.42604e-05
-1.51004e-05
7.02393e-06
1.96417e-05
-2.0307e-05
7.28438e-06
1.67954e-05
-1.70558e-05
7.84555e-06
1.74175e-05
-1.79787e-05
9.09553e-06
1.93349e-05
-2.05849e-05
1.03909e-05
1.75968e-05
-1.88921e-05
1.08459e-05
1.55457e-05
-1.60007e-05
1.12818e-05
1.25794e-05
-1.30153e-05
1.16004e-05
8.12303e-06
-8.44165e-06
1.19744e-05
5.41573e-06
-5.78968e-06
1.21233e-05
1.90053e-06
-2.04946e-06
1.15405e-05
-1.84484e-06
2.42762e-06
1.16402e-05
-5.40421e-06
5.30452e-06
1.25573e-05
-9.97498e-06
9.05794e-06
1.33549e-05
-1.38584e-05
1.30608e-05
1.4236e-05
-1.6934e-05
1.60529e-05
1.54099e-05
-2.0283e-05
1.91091e-05
1.64594e-05
-2.30493e-05
2.19998e-05
1.69342e-05
-2.4892e-05
2.44172e-05
1.67224e-05
-2.57545e-05
2.59663e-05
1.61574e-05
-2.56072e-05
2.61723e-05
1.56464e-05
-2.53812e-05
2.58922e-05
1.51372e-05
-2.50851e-05
2.55943e-05
1.46636e-05
-2.43447e-05
2.48184e-05
1.43457e-05
-2.3935e-05
2.42529e-05
1.40328e-05
-2.3392e-05
2.37049e-05
1.37181e-05
-2.2309e-05
2.26237e-05
1.35945e-05
-2.17096e-05
2.18332e-05
1.35382e-05
-2.14382e-05
2.14945e-05
1.33348e-05
-2.04878e-05
2.06912e-05
1.31557e-05
-1.93859e-05
1.9565e-05
1.31352e-05
-1.90262e-05
1.90467e-05
1.29846e-05
-1.8803e-05
1.89535e-05
1.24606e-05
-1.79007e-05
1.84247e-05
1.16811e-05
-1.64308e-05
1.72103e-05
1.1065e-05
-1.51723e-05
1.57884e-05
1.08691e-05
-1.46714e-05
1.48674e-05
1.10622e-05
-1.47332e-05
1.45401e-05
1.15851e-05
-1.5037e-05
1.45141e-05
1.21724e-05
-1.52564e-05
1.46692e-05
1.25872e-05
-1.449e-05
1.40752e-05
1.2882e-05
-1.26883e-05
1.23934e-05
1.31922e-05
-1.02142e-05
9.90399e-06
1.34581e-05
-7.85603e-06
7.59014e-06
1.35743e-05
-4.99497e-06
4.87879e-06
1.35996e-05
-1.43147e-06
1.4062e-06
1.36213e-05
1.69017e-06
-1.71185e-06
1.36221e-05
4.55685e-06
-4.55774e-06
1.35029e-05
8.10023e-06
-7.98098e-06
1.32959e-05
1.10298e-05
-1.08228e-05
1.29752e-05
1.29909e-05
-1.26703e-05
1.23923e-05
1.5184e-05
-1.46011e-05
1.16808e-05
1.63872e-05
-1.56757e-05
1.10339e-05
1.61165e-05
-1.54695e-05
1.04808e-05
1.57379e-05
-1.51849e-05
1.00521e-05
1.6146e-05
-1.57173e-05
9.72235e-06
1.65768e-05
-1.6247e-05
9.40146e-06
1.57329e-05
-1.5412e-05
9.01853e-06
1.49376e-05
-1.45547e-05
8.60829e-06
1.42854e-05
-1.38752e-05
8.26737e-06
1.26051e-05
-1.22641e-05
8.05213e-06
1.15863e-05
-1.1371e-05
7.94358e-06
1.03793e-05
-1.02708e-05
7.84839e-06
9.22753e-06
-9.13235e-06
7.90031e-06
9.97898e-06
-1.00309e-05
7.84861e-06
1.05909e-05
-1.05392e-05
7.63076e-06
9.4305e-06
-9.21265e-06
7.52805e-06
7.27457e-06
-7.17186e-06
7.66205e-06
6.66995e-06
-6.80396e-06
7.85822e-06
7.13132e-06
-7.32748e-06
7.99634e-06
6.39643e-06
-6.53455e-06
8.04348e-06
7.93541e-06
-7.98255e-06
8.1669e-06
9.47007e-06
-9.59349e-06
8.38076e-06
8.54311e-06
-8.75697e-06
8.30827e-06
8.81431e-06
-8.74181e-06
8.27582e-06
1.23083e-05
-1.22759e-05
8.76123e-06
1.49459e-05
-1.54313e-05
9.20463e-06
1.66925e-05
-1.71359e-05
9.44765e-06
1.96922e-05
-1.99352e-05
9.72132e-06
2.27437e-05
-2.30173e-05
9.94586e-06
2.39528e-05
-2.41774e-05
1.01758e-05
2.37806e-05
-2.40105e-05
1.03643e-05
2.13266e-05
-2.15151e-05
1.06121e-05
1.79817e-05
-1.82294e-05
1.09559e-05
1.36072e-05
-1.3951e-05
1.10764e-05
8.93168e-06
-9.05225e-06
1.12876e-05
3.78903e-06
-4.00021e-06
1.16778e-05
-1.28008e-06
8.89904e-07
1.1835e-05
-6.53436e-06
6.37717e-06
1.1583e-05
-1.14739e-05
1.17259e-05
1.13889e-05
-1.447e-05
1.46641e-05
1.15982e-05
-1.68304e-05
1.66211e-05
1.19686e-05
-2.09082e-05
2.05378e-05
1.20758e-05
-2.48495e-05
2.47423e-05
1.17592e-05
-2.60353e-05
2.63519e-05
1.12611e-05
-2.4738e-05
2.52361e-05
1.08857e-05
-2.43573e-05
2.47328e-05
1.05797e-05
-2.48553e-05
2.51612e-05
1.01753e-05
-2.42346e-05
2.4639e-05
9.78857e-06
-2.28326e-05
2.32193e-05
9.62127e-06
-2.15983e-05
2.17656e-05
9.78958e-06
-2.13071e-05
2.11388e-05
1.02618e-05
-2.23031e-05
2.18308e-05
1.06941e-05
-2.26693e-05
2.22371e-05
1.1024e-05
-2.23811e-05
2.20512e-05
1.14115e-05
-2.16333e-05
2.12457e-05
1.18978e-05
-2.04174e-05
1.99311e-05
1.22437e-05
-1.90861e-05
1.87401e-05
1.22479e-05
-1.71212e-05
1.7117e-05
1.19863e-05
-1.34886e-05
1.37503e-05
1.16576e-05
-9.67986e-06
1.00086e-05
1.14941e-05
-7.34833e-06
7.5118e-06
1.16347e-05
-6.13413e-06
5.99349e-06
1.17377e-05
-4.72372e-06
4.62075e-06
1.15535e-05
-2.11776e-06
2.30196e-06
1.11062e-05
1.49318e-06
-1.04584e-06
1.05037e-05
4.63107e-06
-4.02856e-06
9.74274e-06
7.24857e-06
-6.48766e-06
8.99756e-06
1.0234e-05
-9.48885e-06
8.27232e-06
1.42701e-05
-1.35448e-05
7.73647e-06
1.86205e-05
-1.80847e-05
7.39745e-06
2.10458e-05
-2.07067e-05
7.06203e-06
2.28241e-05
-2.24886e-05
6.69252e-06
2.516e-05
-2.47905e-05
6.47301e-06
2.63898e-05
-2.61703e-05
6.40024e-06
2.38585e-05
-2.37858e-05
6.5733e-06
1.85744e-05
-1.87475e-05
6.49883e-06
1.59745e-05
-1.59e-05
6.54161e-06
1.57351e-05
-1.57779e-05
6.39064e-06
2.02023e-05
-2.00514e-05
6.38098e-06
2.19187e-05
-2.19091e-05
6.26121e-06
2.34167e-05
-2.32969e-05
6.12047e-06
2.18331e-05
-2.16924e-05
6.25953e-06
2.26643e-05
-2.28034e-05
6.43628e-06
2.01795e-05
-2.03562e-05
6.50657e-06
2.06793e-05
-2.07496e-05
6.4923e-06
1.86372e-05
-1.86229e-05
6.86645e-06
1.74352e-05
-1.78093e-05
7.26755e-06
1.52746e-05
-1.56757e-05
7.76797e-06
1.36985e-05
-1.41989e-05
8.21825e-06
1.14267e-05
-1.1877e-05
8.56883e-06
9.76664e-06
-1.01172e-05
8.81739e-06
8.48065e-06
-8.72921e-06
9.29721e-06
6.527e-06
-7.00682e-06
1.01607e-05
3.86118e-06
-4.72463e-06
1.09896e-05
1.01455e-06
-1.84351e-06
1.16302e-05
-1.23515e-06
5.94539e-07
1.19919e-05
-4.36362e-06
4.00197e-06
1.22912e-05
-7.08759e-06
6.78823e-06
1.25195e-05
-9.03612e-06
8.80789e-06
1.25485e-05
-1.12445e-05
1.12155e-05
1.2658e-05
-1.21155e-05
1.2006e-05
1.25208e-05
-1.33996e-05
1.35368e-05
1.23984e-05
-1.53676e-05
1.549e-05
1.21843e-05
-1.69964e-05
1.72106e-05
1.16962e-05
-1.86164e-05
1.91045e-05
1.11573e-05
-1.98555e-05
2.03945e-05
1.06482e-05
-2.25965e-05
2.31056e-05
9.81713e-06
-2.34208e-05
2.42519e-05
8.77951e-06
-2.09936e-05
2.20312e-05
7.85233e-06
-1.78392e-05
1.87664e-05
6.91974e-06
-1.50359e-05
1.59685e-05
6.33503e-06
-1.27675e-05
1.33522e-05
5.95176e-06
-1.07212e-05
1.11045e-05
5.76171e-06
-1.0074e-05
1.02641e-05
5.85074e-06
-8.42236e-06
8.33332e-06
5.68764e-06
-5.03406e-06
5.19716e-06
5.48792e-06
-2.74136e-06
2.94108e-06
6.28849e-06
-9.79254e-07
1.78678e-07
7.59972e-06
2.47266e-06
-3.7839e-06
8.55802e-06
4.75762e-06
-5.71591e-06
9.12294e-06
5.40729e-06
-5.97222e-06
9.55817e-06
5.93204e-06
-6.36727e-06
1.01849e-05
7.13696e-06
-7.76369e-06
1.08108e-05
1.0175e-05
-1.08009e-05
1.11866e-05
1.31593e-05
-1.35351e-05
1.11276e-05
1.58376e-05
-1.57786e-05
1.07649e-05
1.70787e-05
-1.6716e-05
1.04107e-05
1.73971e-05
-1.70429e-05
1.00445e-05
1.84213e-05
-1.80552e-05
9.50092e-06
1.97787e-05
-1.92351e-05
8.84828e-06
2.08787e-05
-2.0226e-05
8.19608e-06
2.33317e-05
-2.26795e-05
7.3781e-06
2.87584e-05
-2.79405e-05
6.93859e-06
3.47533e-05
-3.43138e-05
4.66392e-05
-4.6364e-05
6.66333e-06
8.33e-06
-3.54974e-06
8.88707e-06
-6.21391e-06
9.03421e-06
-8.56098e-06
8.82725e-06
-1.09077e-05
8.52499e-06
-1.21746e-05
7.86604e-06
-1.27432e-05
7.2086e-06
-1.20814e-05
6.51041e-06
-1.07601e-05
6.20256e-06
-8.51589e-06
5.083e-06
-5.2605e-06
4.10694e-06
-3.95966e-06
4.04607e-06
-2.97783e-06
4.38073e-06
1.66708e-06
5.92819e-06
4.4754e-06
6.92142e-06
1.32672e-05
7.44299e-06
1.91201e-05
7.72024e-06
1.65181e-05
8.13348e-06
1.70043e-05
9.53265e-06
1.79357e-05
1.07701e-05
1.63593e-05
1.12825e-05
1.50333e-05
1.18986e-05
1.19633e-05
1.22662e-05
7.75546e-06
1.25302e-05
5.15175e-06
1.21537e-05
2.27696e-06
1.17878e-05
-1.47888e-06
1.25464e-05
-6.16286e-06
1.3487e-05
-1.09156e-05
1.41737e-05
-1.45451e-05
1.5172e-05
-1.79324e-05
1.63471e-05
-2.1458e-05
1.7117e-05
-2.38192e-05
1.72016e-05
-2.49766e-05
1.6717e-05
-2.52699e-05
1.61123e-05
-2.50025e-05
1.56429e-05
-2.49119e-05
1.51855e-05
-2.46277e-05
1.47679e-05
-2.39271e-05
1.44402e-05
-2.36073e-05
1.41334e-05
-2.30852e-05
1.39028e-05
-2.20784e-05
1.37964e-05
-2.16031e-05
1.36857e-05
-2.13275e-05
1.34577e-05
-2.02598e-05
1.32411e-05
-1.91693e-05
1.30813e-05
-1.88664e-05
1.26874e-05
-1.8409e-05
1.19052e-05
-1.71185e-05
1.10015e-05
-1.55271e-05
1.04409e-05
-1.46117e-05
1.03693e-05
-1.45999e-05
1.06703e-05
-1.50341e-05
1.12126e-05
-1.55793e-05
1.17211e-05
-1.57649e-05
1.20477e-05
-1.48166e-05
1.22895e-05
-1.29301e-05
1.25868e-05
-1.05115e-05
1.28239e-05
-8.09305e-06
1.29027e-05
-5.07384e-06
1.29155e-05
-1.44426e-06
1.29463e-05
1.65942e-06
1.2941e-05
4.56218e-06
1.28464e-05
8.19481e-06
1.27539e-05
1.11223e-05
1.25178e-05
1.3227e-05
1.20314e-05
1.56704e-05
1.14128e-05
1.70058e-05
1.07666e-05
1.67627e-05
1.01933e-05
1.63112e-05
9.77045e-06
1.65688e-05
9.44013e-06
1.69071e-05
9.09229e-06
1.60807e-05
8.7521e-06
1.52778e-05
8.40427e-06
1.46333e-05
8.09362e-06
1.29157e-05
7.9212e-06
1.17587e-05
7.82756e-06
1.0473e-05
7.74544e-06
9.30965e-06
7.80993e-06
9.91449e-06
7.79611e-06
1.06047e-05
7.60174e-06
9.62488e-06
7.48911e-06
7.3872e-06
7.6604e-06
6.49865e-06
7.88859e-06
6.90314e-06
8.03143e-06
6.25358e-06
8.13246e-06
7.83438e-06
8.28231e-06
9.32022e-06
8.43299e-06
8.39243e-06
8.2941e-06
8.95319e-06
8.32787e-06
1.22746e-05
8.88236e-06
1.43914e-05
9.28785e-06
1.62871e-05
9.56102e-06
1.9419e-05
9.90866e-06
2.2396e-05
1.01768e-05
2.36847e-05
1.04864e-05
2.34711e-05
1.07355e-05
2.10775e-05
1.10388e-05
1.76783e-05
1.13631e-05
1.32829e-05
1.15011e-05
8.79374e-06
1.18248e-05
3.46532e-06
1.21964e-05
-1.65174e-06
1.22136e-05