/*--------------------------------*- C++ -*----------------------------------*\
| =========                 |                                                 |
| \\      /  F ield         | OpenFOAM: The Open Source CFD Toolbox           |
|  \\    /   O peration     | Version:  2.4.0                                 |
|   \\  /    A nd           | Web:      www.OpenFOAM.org                      |
|    \\/     M anipulation  |                                                 |
\*---------------------------------------------------------------------------*/
FoamFile
{
    version     2.0;
    format      ascii;
    class       volSymmTensorField;
    location    "0.287";
    object      UPrime2Mean;
}
// * * * * * * * * * * * * * * * * * * * * * * * * * * * * * * * * * * * * * //

dimensions      [0 2 -2 0 0 0 0];

internalField   nonuniform List<symmTensor> 
17600
(
(0.013784 -0.00149446 0 0.000225019 0 0)
(0.141883 -0.000568187 0 1.29467e-05 0 0)
(0.184428 -8.51948e-08 0 9.37339e-07 0 0)
(0.20474 -0.000146471 0 5.96687e-07 0 0)
(0.21906 -0.000112962 0 3.35103e-07 0 0)
(0.22974 -4.80783e-05 0 2.59007e-07 0 0)
(0.237194 -1.33096e-05 0 2.46925e-07 0 0)
(0.243392 5.00176e-07 0 2.57325e-07 0 0)
(0.247394 5.8987e-06 0 3.18789e-07 0 0)
(0.251296 5.00196e-07 0 3.9001e-07 0 0)
(0.253573 -1.17573e-06 0 4.60958e-07 0 0)
(0.256982 -1.85572e-05 0 6.46458e-07 0 0)
(0.258998 -1.75973e-05 0 7.66536e-07 0 0)
(0.263224 -5.12727e-05 0 1.16283e-06 0 0)
(0.266183 -5.57001e-05 0 1.3114e-06 0 0)
(0.274344 -0.000165305 0 2.6509e-06 0 0)
(0.28289 -0.00026564 0 3.02158e-06 0 0)
(0.317554 0.000118623 0 1.10059e-05 0 0)
(0.388143 -0.0106138 0 0.000441703 0 0)
(0.728465 0.053418 0 0.00726905 0 0)
(0.00663251 0.00297977 0 0.00235057 0 0)
(0.0582463 -0.00557373 0 0.000563045 0 0)
(0.118042 -0.00315787 0 8.60997e-05 0 0)
(0.158634 -0.0022392 0 3.48394e-05 0 0)
(0.193511 -0.00184387 0 2.73781e-05 0 0)
(0.22748 -0.00154433 0 2.53436e-05 0 0)
(0.255276 -0.001236 0 2.03565e-05 0 0)
(0.280769 -0.000963808 0 1.3719e-05 0 0)
(0.298262 -0.000745212 0 8.51879e-06 0 0)
(0.316287 -0.000623225 0 6.40965e-06 0 0)
(0.326509 -0.000557486 0 4.94456e-06 0 0)
(0.342315 -0.000562735 0 6.34915e-06 0 0)
(0.349695 -0.000616719 0 7.8478e-06 0 0)
(0.36783 -0.000615093 0 1.2619e-05 0 0)
(0.374537 -0.00101209 0 1.70254e-05 0 0)
(0.405285 -0.000883066 0 3.7814e-05 0 0)
(0.410351 -0.0030581 0 7.28744e-05 0 0)
(0.537586 -0.00442647 0 0.000247885 0 0)
(0.545339 -0.0141161 0 0.00102083 0 0)
(1.56679 -0.156794 0 0.0350633 0 0)
(0.0236353 0.00897325 0 0.00371392 0 0)
(0.00971694 -0.00357141 0 0.00161382 0 0)
(0.0416359 -0.00402001 0 0.000423344 0 0)
(0.0721109 -0.00383776 0 0.000209348 0 0)
(0.105387 -0.00379101 0 0.000159321 0 0)
(0.145438 -0.00364444 0 0.000143962 0 0)
(0.182449 -0.00322118 0 0.00011965 0 0)
(0.219976 -0.00270701 0 8.30279e-05 0 0)
(0.246973 -0.00221073 0 5.19036e-05 0 0)
(0.276744 -0.0018923 0 3.38596e-05 0 0)
(0.293346 -0.00167937 0 2.13763e-05 0 0)
(0.320797 -0.00172944 0 2.54907e-05 0 0)
(0.331895 -0.00173835 0 2.7056e-05 0 0)
(0.363236 -0.00196986 0 4.91009e-05 0 0)
(0.371701 -0.00252387 0 6.01591e-05 0 0)
(0.418457 -0.00291003 0 0.000156984 0 0)
(0.428644 -0.00708726 0 0.000278903 0 0)
(0.559859 -0.00913888 0 0.00106478 0 0)
(0.649029 -0.038178 0 0.00446939 0 0)
(1.35555 -0.212077 0 0.0726209 0 0)
(0.0314482 0.00996974 0 0.00335722 0 0)
(0.000991014 0.000674593 0 0.00252719 0 0)
(0.00592421 -0.00151707 0 0.000933594 0 0)
(0.0137442 -0.0024388 0 0.000557411 0 0)
(0.0264981 -0.00332039 0 0.000450771 0 0)
(0.0500623 -0.00405431 0 0.000410724 0 0)
(0.0771538 -0.00415408 0 0.000355845 0 0)
(0.110292 -0.00388959 0 0.000256488 0 0)
(0.135735 -0.00337275 0 0.000169355 0 0)
(0.167094 -0.00300642 0 0.00010599 0 0)
(0.184188 -0.00281875 0 6.98703e-05 0 0)
(0.21571 -0.0026704 0 6.47571e-05 0 0)
(0.226981 -0.0031429 0 7.93431e-05 0 0)
(0.263292 -0.00256744 0 0.000117785 0 0)
(0.272255 -0.00491444 0 0.000187472 0 0)
(0.317894 -0.00252671 0 0.000399829 0 0)
(0.34399 -0.0131177 0 0.00091008 0 0)
(0.406878 -0.00799246 0 0.00222686 0 0)
(0.614594 -0.0689116 0 0.0130821 0 0)
(0.811373 -0.116337 0 0.0580089 0 0)
(0.0294714 0.00803708 0 0.00234781 0 0)
(0.00346094 0.0026004 0 0.00264164 0 0)
(0.00487019 0.00139655 0 0.00116687 0 0)
(0.00526666 0.000859303 0 0.00086007 0 0)
(0.00414417 7.04147e-07 0 0.000811092 0 0)
(0.00641963 -0.00141153 0 0.000784704 0 0)
(0.0137443 -0.00233056 0 0.000713674 0 0)
(0.0286382 -0.00297673 0 0.000547195 0 0)
(0.0422124 -0.00289871 0 0.000376082 0 0)
(0.0628039 -0.00297831 0 0.000249899 0 0)
(0.0741123 -0.00276933 0 0.000156425 0 0)
(0.0977455 -0.00319139 0 0.000168813 0 0)
(0.107593 -0.00303667 0 0.000148072 0 0)
(0.133005 -0.00412329 0 0.000281164 0 0)
(0.147789 -0.00360997 0 0.000290701 0 0)
(0.171398 -0.00747499 0 0.000843897 0 0)
(0.206613 -0.0061684 0 0.00110432 0 0)
(0.243325 -0.0253158 0 0.00559785 0 0)
(0.369831 -0.0376504 0 0.0107602 0 0)
(0.570882 -0.16505 0 0.132514 0 0)
(0.0280333 0.0065538 0 0.00167804 0 0)
(0.00417454 0.00231934 0 0.00235703 0 0)
(0.00812831 0.00205365 0 0.00100737 0 0)
(0.0130444 0.00253195 0 0.000831727 0 0)
(0.016025 0.00302772 0 0.000960869 0 0)
(0.0132027 0.00234085 0 0.00106094 0 0)
(0.0114054 0.00150785 0 0.00105421 0 0)
(0.00989245 0.000117825 0 0.000859714 0 0)
(0.0112513 -0.00043166 0 0.000665732 0 0)
(0.0160148 -0.00114522 0 0.000443176 0 0)
(0.0185515 -0.0013634 0 0.000328763 0 0)
(0.0282982 -0.00185317 0 0.000297809 0 0)
(0.0309741 -0.00241899 0 0.000356169 0 0)
(0.0444384 -0.0027082 0 0.000455141 0 0)
(0.0495613 -0.00428947 0 0.000737786 0 0)
(0.0657095 -0.0046111 0 0.0012448 0 0)
(0.0781779 -0.0104122 0 0.00272211 0 0)
(0.113258 -0.0140505 0 0.0055523 0 0)
(0.174988 -0.0479432 0 0.0239056 0 0)
(0.341721 -0.111622 0 0.0947648 0 0)
(0.0293829 0.0056874 0 0.00125499 0 0)
(0.00582643 0.00181427 0 0.00211272 0 0)
(0.00973429 0.00173635 0 0.000826408 0 0)
(0.0158612 0.00231897 0 0.000631221 0 0)
(0.0237397 0.00355853 0 0.000832555 0 0)
(0.0254881 0.0039352 0 0.00105626 0 0)
(0.0289384 0.00411984 0 0.00116853 0 0)
(0.0255721 0.00304109 0 0.00106136 0 0)
(0.0264082 0.00246994 0 0.000838345 0 0)
(0.0225719 0.00142537 0 0.000670904 0 0)
(0.0229177 0.00113995 0 0.000470966 0 0)
(0.0200264 0.000231967 0 0.000553173 0 0)
(0.0198873 -5.43545e-06 0 0.000463212 0 0)
(0.0190634 -0.00124175 0 0.000824391 0 0)
(0.019067 -0.00141482 0 0.00085133 0 0)
(0.0223845 -0.00407106 0 0.00205911 0 0)
(0.0232403 -0.00471402 0 0.00257813 0 0)
(0.044275 -0.0144035 0 0.010078 0 0)
(0.0723392 -0.0269332 0 0.01896 0 0)
(0.195541 -0.0855489 0 0.121261 0 0)
(0.0329976 0.00504626 0 0.000948019 0 0)
(0.00905218 0.00151655 0 0.00189661 0 0)
(0.0108984 0.00149568 0 0.000776002 0 0)
(0.0169694 0.00190138 0 0.000508225 0 0)
(0.023863 0.00305996 0 0.000681208 0 0)
(0.0263816 0.00366266 0 0.000928317 0 0)
(0.0333131 0.00443777 0 0.00110081 0 0)
(0.0325254 0.00382823 0 0.00101353 0 0)
(0.0386631 0.00364225 0 0.000954421 0 0)
(0.0370914 0.00275017 0 0.000754068 0 0)
(0.0416428 0.00288441 0 0.000661313 0 0)
(0.0392368 0.00190223 0 0.000675214 0 0)
(0.0410004 0.00225669 0 0.00079982 0 0)
(0.0377303 0.000636872 0 0.00101591 0 0)
(0.0371285 0.00132426 0 0.00143693 0 0)
(0.0348431 -0.00197497 0 0.00235422 0 0)
(0.0323227 -0.000866742 0 0.00396258 0 0)
(0.0405077 -0.00840366 0 0.0094935 0 0)
(0.0515972 -0.0160155 0 0.0273856 0 0)
(0.126495 -0.0433817 0 0.135492 0 0)
(0.0360821 0.00446552 0 0.000727517 0 0)
(0.00987123 0.00134493 0 0.00166885 0 0)
(0.00958537 0.00137325 0 0.00078802 0 0)
(0.015649 0.00165426 0 0.000454843 0 0)
(0.0203319 0.00253672 0 0.000576922 0 0)
(0.0224069 0.0030666 0 0.000813839 0 0)
(0.028499 0.00394656 0 0.00101682 0 0)
(0.0283344 0.00348721 0 0.00103271 0 0)
(0.0357842 0.00339294 0 0.000851985 0 0)
(0.0357663 0.00287679 0 0.000825715 0 0)
(0.0441576 0.00282603 0 0.000696621 0 0)
(0.0441776 0.00279851 0 0.00089128 0 0)
(0.0520018 0.00246263 0 0.000854157 0 0)
(0.0513029 0.00260181 0 0.00135969 0 0)
(0.0570664 0.00195375 0 0.00154595 0 0)
(0.0552586 0.00151008 0 0.00300594 0 0)
(0.0580362 0.00103738 0 0.00418113 0 0)
(0.0599931 -0.00197521 0 0.0120115 0 0)
(0.0668487 -0.00326561 0 0.0301529 0 0)
(0.110549 -0.0121247 0 0.119198 0 0)
(0.0342878 0.00382497 0 0.000588341 0 0)
(0.00647204 0.00122953 0 0.00147396 0 0)
(0.00628728 0.00123757 0 0.000829831 0 0)
(0.0114336 0.00138498 0 0.000434123 0 0)
(0.0158003 0.00201101 0 0.000525337 0 0)
(0.0183404 0.00258789 0 0.000754476 0 0)
(0.0223367 0.00337859 0 0.00096498 0 0)
(0.0239897 0.00297625 0 0.000901807 0 0)
(0.029138 0.00278576 0 0.00089868 0 0)
(0.0317063 0.00230887 0 0.000845099 0 0)
(0.0374178 0.00247709 0 0.000807624 0 0)
(0.0416999 0.002337 0 0.000924444 0 0)
(0.0476284 0.00234263 0 0.00102237 0 0)
(0.0524536 0.00232348 0 0.00146025 0 0)
(0.0563866 0.00234843 0 0.0017642 0 0)
(0.0621378 0.001912 0 0.00313654 0 0)
(0.0636855 0.00189059 0 0.00468152 0 0)
(0.0704861 0.00317705 0 0.0130356 0 0)
(0.0727815 0.00188812 0 0.0316303 0 0)
(0.10784 0.0132625 0 0.121213 0 0)
(0.0301528 0.0030993 0 0.000483386 0 0)
(0.00318176 0.000928044 0 0.00130039 0 0)
(0.00424804 0.000926137 0 0.000830496 0 0)
(0.00850697 0.000986953 0 0.000427329 0 0)
(0.0131342 0.00137863 0 0.00050892 0 0)
(0.0163753 0.00213181 0 0.000749999 0 0)
(0.019623 0.00266282 0 0.000926352 0 0)
(0.0224324 0.00237857 0 0.000949881 0 0)
(0.0258237 0.00193124 0 0.000836029 0 0)
(0.0295712 0.0019389 0 0.000874279 0 0)
(0.0337589 0.00158508 0 0.000815971 0 0)
(0.0396835 0.0020633 0 0.00101484 0 0)
(0.0439388 0.00138467 0 0.00103391 0 0)
(0.0489787 0.00227294 0 0.00154031 0 0)
(0.0533456 0.00160223 0 0.00171531 0 0)
(0.0598269 0.00196429 0 0.0031596 0 0)
(0.0616948 0.00210876 0 0.00477463 0 0)
(0.0669973 0.00376827 0 0.013022 0 0)
(0.072051 0.0058635 0 0.0330012 0 0)
(0.100289 0.021227 0 0.111763 0 0)
(0.0289118 0.00250743 0 0.000410313 0 0)
(0.00287531 0.000448545 0 0.00112766 0 0)
(0.00431042 0.000480235 0 0.000825124 0 0)
(0.00823568 0.000653789 0 0.000406845 0 0)
(0.0126492 0.000909841 0 0.000514403 0 0)
(0.0156826 0.00161388 0 0.000745921 0 0)
(0.0185664 0.00209551 0 0.00088299 0 0)
(0.0210927 0.00187708 0 0.000838361 0 0)
(0.023824 0.00154728 0 0.000861537 0 0)
(0.0274996 0.00138414 0 0.000888625 0 0)
(0.0316378 0.00131241 0 0.00081697 0 0)
(0.036594 0.00152413 0 0.000955809 0 0)
(0.0404673 0.00115008 0 0.00100387 0 0)
(0.0453347 0.00188566 0 0.00148143 0 0)
(0.0505205 0.00128376 0 0.00152097 0 0)
(0.0549099 0.00241224 0 0.00316983 0 0)
(0.0574138 0.00206902 0 0.0045065 0 0)
(0.0623819 0.00598857 0 0.0135418 0 0)
(0.0688396 0.00782946 0 0.0320736 0 0)
(0.0951639 0.025007 0 0.109742 0 0)
(0.0291439 0.00204549 0 0.000336975 0 0)
(0.00303041 0.000125207 0 0.000964347 0 0)
(0.00370433 0.000134558 0 0.000813632 0 0)
(0.00672487 0.000501731 0 0.000418861 0 0)
(0.0112746 0.000747556 0 0.00049232 0 0)
(0.0142517 0.00134071 0 0.000696484 0 0)
(0.0165865 0.00175011 0 0.000806662 0 0)
(0.0186022 0.00173831 0 0.000802381 0 0)
(0.0214188 0.00138755 0 0.000771223 0 0)
(0.0249301 0.00129764 0 0.000791176 0 0)
(0.0284627 0.00113039 0 0.000727611 0 0)
(0.0328326 0.00147458 0 0.000881823 0 0)
(0.036955 0.00121386 0 0.000858213 0 0)
(0.0419652 0.00176925 0 0.00129426 0 0)
(0.0454801 0.00146449 0 0.00132605 0 0)
(0.0494416 0.00215855 0 0.00290133 0 0)
(0.0521619 0.00299251 0 0.00444851 0 0)
(0.0572462 0.00632941 0 0.0131459 0 0)
(0.063547 0.00940659 0 0.03199 0 0)
(0.0909093 0.0296607 0 0.105755 0 0)
(0.028838 0.00170991 0 0.000275521 0 0)
(0.00218415 0.000122003 0 0.000793157 0 0)
(0.00269214 7.77203e-05 0 0.000743551 0 0)
(0.00549032 0.000457127 0 0.000408015 0 0)
(0.00991064 0.000752653 0 0.000459309 0 0)
(0.0129359 0.00124045 0 0.000626797 0 0)
(0.0148748 0.00159609 0 0.00073097 0 0)
(0.0167821 0.00157247 0 0.000696396 0 0)
(0.0192042 0.00143828 0 0.000696307 0 0)
(0.0226649 0.00122343 0 0.000714095 0 0)
(0.0258014 0.00112897 0 0.00065242 0 0)
(0.0302055 0.00131599 0 0.00077062 0 0)
(0.033665 0.00122122 0 0.000727234 0 0)
(0.038257 0.00167604 0 0.00117512 0 0)
(0.0409614 0.00137775 0 0.00117327 0 0)
(0.0456384 0.00233619 0 0.00280325 0 0)
(0.048034 0.00296985 0 0.00447636 0 0)
(0.053672 0.00616052 0 0.0130645 0 0)
(0.060849 0.010788 0 0.0315307 0 0)
(0.0898314 0.0313613 0 0.101197 0 0)
(0.0284805 0.00140711 0 0.000212397 0 0)
(0.00147547 0.000240935 0 0.000620358 0 0)
(0.00228673 0.000217684 0 0.000585748 0 0)
(0.00493622 0.000507261 0 0.00037031 0 0)
(0.00868693 0.000690522 0 0.000424563 0 0)
(0.0114783 0.00115366 0 0.000565122 0 0)
(0.0131881 0.00137426 0 0.000648472 0 0)
(0.0150424 0.00137246 0 0.000652816 0 0)
(0.0171773 0.00116785 0 0.000635597 0 0)
(0.0204337 0.00106223 0 0.000645259 0 0)
(0.0236892 0.00083112 0 0.000568227 0 0)
(0.0279861 0.00109638 0 0.000697788 0 0)
(0.031085 0.000775499 0 0.000631753 0 0)
(0.0353924 0.00128221 0 0.00110228 0 0)
(0.0382979 0.000893342 0 0.00106565 0 0)
(0.0430839 0.00214475 0 0.00277026 0 0)
(0.0456974 0.00231784 0 0.00447672 0 0)
(0.0518937 0.00628018 0 0.0133961 0 0)
(0.0597836 0.0115776 0 0.0305504 0 0)
(0.0892818 0.0317579 0 0.0942531 0 0)
(0.0284909 0.00109946 0 0.000175181 0 0)
(0.00115246 0.000148193 0 0.00049354 0 0)
(0.00197736 0.000146552 0 0.000475426 0 0)
(0.00444651 0.000376313 0 0.00034807 0 0)
(0.00814411 0.000440367 0 0.000422537 0 0)
(0.0106268 0.000775443 0 0.000538947 0 0)
(0.0123455 0.00102817 0 0.000614751 0 0)
(0.0140039 0.00096418 0 0.000597708 0 0)
(0.0162294 0.000781551 0 0.000628348 0 0)
(0.0190459 0.000549996 0 0.000642935 0 0)
(0.0224118 0.000480296 0 0.000559796 0 0)
(0.0262625 0.000616713 0 0.000665392 0 0)
(0.0298323 0.000431281 0 0.00059776 0 0)
(0.0336751 0.000684344 0 0.00108252 0 0)
(0.0369756 0.000676065 0 0.00102732 0 0)
(0.0410705 0.00150304 0 0.00279366 0 0)
(0.0447334 0.00232724 0 0.00458202 0 0)
(0.0506217 0.00608836 0 0.0132014 0 0)
(0.0596785 0.0127722 0 0.0306005 0 0)
(0.0900031 0.0318777 0 0.0822983 0 0)
(0.0285372 0.000782278 0 0.000151205 0 0)
(0.00102285 -4.34015e-05 0 0.000413893 0 0)
(0.00189081 -9.47928e-05 0 0.000419224 0 0)
(0.00411735 9.27272e-05 0 0.000359001 0 0)
(0.00776076 0.00010215 0 0.000436567 0 0)
(0.0101175 0.000318442 0 0.0005372 0 0)
(0.0118313 0.000531271 0 0.000594277 0 0)
(0.0131733 0.000509996 0 0.000584259 0 0)
(0.0154622 0.000362014 0 0.000600432 0 0)
(0.0181315 0.000206899 0 0.000602829 0 0)
(0.0215031 0.000199474 0 0.000496834 0 0)
(0.025053 0.000368447 0 0.000588642 0 0)
(0.0288253 0.00014882 0 0.000513523 0 0)
(0.0322673 0.00046198 0 0.000971485 0 0)
(0.0357025 0.000376036 0 0.000975111 0 0)
(0.0395674 0.00135781 0 0.00261586 0 0)
(0.0438204 0.00215774 0 0.00457056 0 0)
(0.0497459 0.00651538 0 0.0129949 0 0)
(0.0598509 0.012963 0 0.0291497 0 0)
(0.0897713 0.0358336 0 0.0799714 0 0)
(0.0285071 0.00052667 0 0.000127199 0 0)
(0.00114283 -7.66668e-05 0 0.000333137 0 0)
(0.00217018 -0.000170788 0 0.00034042 0 0)
(0.0042337 -4.20455e-05 0 0.000331063 0 0)
(0.00760413 -2.40459e-05 0 0.000402558 0 0)
(0.00994811 0.000124166 0 0.000484594 0 0)
(0.0115348 0.000232513 0 0.000533166 0 0)
(0.0129275 0.000224904 0 0.000531121 0 0)
(0.0149834 0.000167734 0 0.000532728 0 0)
(0.0177303 0.000154373 0 0.000534527 0 0)
(0.020811 0.000112763 0 0.000417536 0 0)
(0.0243623 0.000259055 0 0.000530782 0 0)
(0.0277846 2.41525e-05 0 0.000438479 0 0)
(0.0313596 0.000319527 0 0.000892852 0 0)
(0.0345365 0.000194061 0 0.000978444 0 0)
(0.0387533 0.0012657 0 0.00240084 0 0)
(0.0429114 0.00211481 0 0.00482301 0 0)
(0.0496238 0.00666679 0 0.0121854 0 0)
(0.0607603 0.0134176 0 0.0296944 0 0)
(0.0919472 0.037332 0 0.075177 0 0)
(0.0284354 0.000329745 0 0.00010363 0 0)
(0.00107745 -3.9724e-05 0 0.000246326 0 0)
(0.00216105 -8.10657e-05 0 0.000241412 0 0)
(0.00425214 4.93527e-06 0 0.000249888 0 0)
(0.00744961 2.07878e-05 0 0.000322455 0 0)
(0.00978305 8.28722e-05 0 0.000377046 0 0)
(0.0112947 0.000215507 0 0.000408536 0 0)
(0.0128706 0.000134915 0 0.00040211 0 0)
(0.014784 0.000183587 0 0.000418155 0 0)
(0.0174233 6.59487e-05 0 0.000426686 0 0)
(0.0202006 7.95328e-05 0 0.000345059 0 0)
(0.0237256 3.37811e-05 0 0.000456683 0 0)
(0.026925 -4.44056e-05 0 0.000384511 0 0)
(0.0308326 1.50179e-05 0 0.000793894 0 0)
(0.0338301 0.000151699 0 0.000961949 0 0)
(0.0383338 0.000976915 0 0.00225364 0 0)
(0.0424151 0.002226 0 0.00490207 0 0)
(0.0500888 0.00643583 0 0.0115621 0 0)
(0.0617538 0.0140519 0 0.0295283 0 0)
(0.0930967 0.0343827 0 0.0630637 0 0)
(0.028428 9.08295e-05 0 9.15205e-05 0 0)
(0.000901216 -4.87799e-05 0 0.000209877 0 0)
(0.0019026 -3.75413e-05 0 0.000187642 0 0)
(0.00397607 1.53339e-05 0 0.000203665 0 0)
(0.00721754 -2.5476e-05 0 0.000273481 0 0)
(0.00950764 1.59899e-05 0 0.000315804 0 0)
(0.0109958 7.41426e-05 0 0.000327666 0 0)
(0.0124118 0.000102389 0 0.000328391 0 0)
(0.0144121 5.22436e-05 0 0.000346788 0 0)
(0.0169711 -1.69005e-05 0 0.000388068 0 0)
(0.0199082 -0.000184514 0 0.000313639 0 0)
(0.0232248 -4.28171e-05 0 0.000432049 0 0)
(0.026631 -0.000336966 0 0.000327589 0 0)
(0.0303539 1.02975e-05 0 0.00079369 0 0)
(0.0335846 -0.000186543 0 0.000787803 0 0)
(0.0379054 0.00107041 0 0.00249099 0 0)
(0.0424627 0.00188812 0 0.00406117 0 0)
(0.0503396 0.00671158 0 0.0129844 0 0)
(0.0632137 0.013747 0 0.0245118 0 0)
(0.0952764 0.0330442 0 0.0652432 0 0)
(0.0284039 -0.000108656 0 8.30876e-05 0 0)
(0.000707563 -8.55469e-05 0 0.000194861 0 0)
(0.00167075 -7.16573e-05 0 0.000167377 0 0)
(0.00374837 -6.7993e-05 0 0.000183094 0 0)
(0.00707438 -7.83263e-05 0 0.000240569 0 0)
(0.00927205 -0.000178479 0 0.000273474 0 0)
(0.0107427 -0.000112718 0 0.000280007 0 0)
(0.0119335 -0.00018483 0 0.000295791 0 0)
(0.0140303 -9.76806e-05 0 0.000304922 0 0)
(0.0165812 -0.000282974 0 0.000355435 0 0)
(0.0198279 -0.000261276 0 0.000277455 0 0)
(0.0229938 -0.00032401 0 0.000395528 0 0)
(0.0266195 -0.000327268 0 0.000307796 0 0)
(0.0299617 -0.000361887 0 0.000696041 0 0)
(0.0335805 -7.57247e-05 0 0.000921559 0 0)
(0.0376936 0.000486602 0 0.00215697 0 0)
(0.0430007 0.00223889 0 0.00460396 0 0)
(0.0509756 0.00584756 0 0.0114859 0 0)
(0.06526 0.014846 0 0.025156 0 0)
(0.0978873 0.0295427 0 0.057499 0 0)
(0.0283706 -0.000343261 0 8.09977e-05 0 0)
(0.000633334 -0.00012164 0 0.000205466 0 0)
(0.00158174 -0.000109838 0 0.000173706 0 0)
(0.00368088 -0.000154413 0 0.000176624 0 0)
(0.00701589 -0.000177036 0 0.000231786 0 0)
(0.0092247 -0.000338514 0 0.000255655 0 0)
(0.0106994 -0.000384885 0 0.000279466 0 0)
(0.0118832 -0.000433861 0 0.000303107 0 0)
(0.014019 -0.000379505 0 0.000314171 0 0)
(0.0165799 -0.000426905 0 0.000338351 0 0)
(0.0199175 -0.000482513 0 0.000273399 0 0)
(0.0231004 -0.000417762 0 0.000359714 0 0)
(0.0267696 -0.000616423 0 0.00030407 0 0)
(0.0301111 -0.000446553 0 0.000647482 0 0)
(0.0339468 -0.000547755 0 0.000920121 0 0)
(0.0382587 0.000515861 0 0.00209477 0 0)
(0.0440729 0.00156077 0 0.00446249 0 0)
(0.0526905 0.0062431 0 0.011159 0 0)
(0.0676271 0.0135446 0 0.0238733 0 0)
(0.100663 0.0321936 0 0.0563132 0 0)
(0.0283119 -0.000570407 0 8.36129e-05 0 0)
(0.000657484 -0.000155951 0 0.0002366 0 0)
(0.00161167 -0.000135859 0 0.000193305 0 0)
(0.00375971 -0.000237269 0 0.000173618 0 0)
(0.00708703 -0.000283312 0 0.000224409 0 0)
(0.00940601 -0.000550226 0 0.000254437 0 0)
(0.0108861 -0.000624957 0 0.000284459 0 0)
(0.0122546 -0.000699153 0 0.000319296 0 0)
(0.0143207 -0.000585219 0 0.000315401 0 0)
(0.0170037 -0.000628522 0 0.000342289 0 0)
(0.0202257 -0.000660411 0 0.000280027 0 0)
(0.0235523 -0.000644635 0 0.000351508 0 0)
(0.0270798 -0.000831692 0 0.000318465 0 0)
(0.0307433 -0.000717661 0 0.000614824 0 0)
(0.0345769 -0.000828916 0 0.000948732 0 0)
(0.0393429 0.000298704 0 0.00206827 0 0)
(0.0453832 0.0012008 0 0.00435689 0 0)
(0.0547299 0.00626692 0 0.0109157 0 0)
(0.0708289 0.0125772 0 0.0231485 0 0)
(0.105038 0.0340466 0 0.0546897 0 0)
(0.0282585 -0.000811962 0 9.10582e-05 0 0)
(0.000669742 -0.000182692 0 0.000288254 0 0)
(0.00165043 -0.000145974 0 0.000225446 0 0)
(0.00395222 -0.00030339 0 0.000171044 0 0)
(0.00734533 -0.000377704 0 0.000218318 0 0)
(0.00973478 -0.000756058 0 0.000262299 0 0)
(0.0112469 -0.00082066 0 0.00028765 0 0)
(0.0127555 -0.000959883 0 0.000344007 0 0)
(0.0148373 -0.000726149 0 0.000306139 0 0)
(0.0176109 -0.000845006 0 0.000344423 0 0)
(0.0208288 -0.000743951 0 0.000271984 0 0)
(0.024282 -0.000957085 0 0.000372956 0 0)
(0.0278602 -0.000899937 0 0.00033174 0 0)
(0.0316933 -0.00116052 0 0.000633431 0 0)
(0.0356582 -0.000775654 0 0.000991794 0 0)
(0.0407158 -0.000333155 0 0.00201392 0 0)
(0.0471158 0.00146638 0 0.00445734 0 0)
(0.0571049 0.00516362 0 0.0100002 0 0)
(0.0744959 0.013072 0 0.0235164 0 0)
(0.107971 0.0287782 0 0.043868 0 0)
(0.0281837 -0.00109356 0 0.000107621 0 0)
(0.000595196 -0.000207975 0 0.000359581 0 0)
(0.00155497 -0.000153994 0 0.000286474 0 0)
(0.00409227 -0.000341682 0 0.000164333 0 0)
(0.00765854 -0.00048899 0 0.000218474 0 0)
(0.0101443 -0.000909439 0 0.000278608 0 0)
(0.0116957 -0.0010645 0 0.000327091 0 0)
(0.0133173 -0.00114055 0 0.000378588 0 0)
(0.0154775 -0.000971396 0 0.000342382 0 0)
(0.0183592 -0.000961074 0 0.000356199 0 0)
(0.0216694 -0.000992436 0 0.000303012 0 0)
(0.0252921 -0.00107215 0 0.000381943 0 0)
(0.0289969 -0.00121911 0 0.000346466 0 0)
(0.0329725 -0.00127191 0 0.000690726 0 0)
(0.0371055 -0.00117685 0 0.000880727 0 0)
(0.0424479 -0.000423368 0 0.00232679 0 0)
(0.0492596 0.000889544 0 0.00368149 0 0)
(0.060078 0.00492449 0 0.0111074 0 0)
(0.0784745 0.0117518 0 0.0194425 0 0)
(0.112445 0.0256319 0 0.046312 0 0)
(0.0281108 -0.00137219 0 0.000132988 0 0)
(0.000543706 -0.000255812 0 0.00046683 0 0)
(0.00148162 -0.000198043 0 0.000359005 0 0)
(0.00424733 -0.000414341 0 0.000175949 0 0)
(0.00798024 -0.000577809 0 0.000221826 0 0)
(0.0106533 -0.00115474 0 0.000316385 0 0)
(0.0123153 -0.0012532 0 0.000358512 0 0)
(0.0141014 -0.00145255 0 0.000444041 0 0)
(0.0163469 -0.00110704 0 0.000354759 0 0)
(0.019414 -0.00126627 0 0.000396017 0 0)
(0.0228192 -0.00107466 0 0.000308988 0 0)
(0.0266605 -0.0014442 0 0.000404035 0 0)
(0.0304464 -0.00125834 0 0.000374265 0 0)
(0.0346563 -0.00178219 0 0.00066003 0 0)
(0.03895 -0.00118414 0 0.000988181 0 0)
(0.0447235 -0.00114955 0 0.00212686 0 0)
(0.0520306 0.000881128 0 0.00396277 0 0)
(0.0637842 0.00370902 0 0.010167 0 0)
(0.083011 0.0113055 0 0.0192705 0 0)
(0.118478 0.0214213 0 0.0442274 0 0)
(0.0280992 -0.00173475 0 0.000171986 0 0)
(0.0005747 -0.000322235 0 0.000583225 0 0)
(0.00156891 -0.000283819 0 0.00046638 0 0)
(0.00458771 -0.000498333 0 0.000181251 0 0)
(0.00846987 -0.000746989 0 0.000238049 0 0)
(0.011324 -0.00137213 0 0.000359472 0 0)
(0.0132121 -0.0015704 0 0.000432974 0 0)
(0.0151629 -0.00168193 0 0.000505667 0 0)
(0.0175657 -0.00138526 0 0.000413829 0 0)
(0.02079 -0.00144531 0 0.000425639 0 0)
(0.0243788 -0.00137827 0 0.000354086 0 0)
(0.0283943 -0.00162787 0 0.000423081 0 0)
(0.0324233 -0.00161227 0 0.000410544 0 0)
(0.0368484 -0.00200172 0 0.00067593 0 0)
(0.0414613 -0.00167577 0 0.00100961 0 0)
(0.0475465 -0.00139374 0 0.00208928 0 0)
(0.0555536 9.56718e-05 0 0.00391113 0 0)
(0.0680311 0.00322413 0 0.00956299 0 0)
(0.0884098 0.00928617 0 0.018772 0 0)
(0.124699 0.0215005 0 0.0421632 0 0)
(0.0282695 -0.00211713 0 0.000226953 0 0)
(0.00067607 -0.000419843 0 0.000747085 0 0)
(0.00179743 -0.000412873 0 0.000556858 0 0)
(0.00512912 -0.000616076 0 0.00020746 0 0)
(0.0092154 -0.0009305 0 0.000264444 0 0)
(0.0122059 -0.00167366 0 0.000430149 0 0)
(0.0144222 -0.00187953 0 0.000511772 0 0)
(0.0165547 -0.00201765 0 0.000596508 0 0)
(0.0191909 -0.00164009 0 0.000469698 0 0)
(0.0225629 -0.00174112 0 0.000479198 0 0)
(0.026369 -0.00163638 0 0.000387612 0 0)
(0.0306398 -0.00200285 0 0.000471351 0 0)
(0.0349206 -0.00189507 0 0.000446462 0 0)
(0.0397073 -0.00245659 0 0.000734525 0 0)
(0.0445912 -0.00205858 0 0.00102788 0 0)
(0.0510964 -0.00192915 0 0.00214943 0 0)
(0.0595907 -0.000535408 0 0.00384568 0 0)
(0.0729852 0.00233931 0 0.00922615 0 0)
(0.0947487 0.00749816 0 0.0186162 0 0)
(0.1319 0.0206881 0 0.0411182 0 0)
(0.0288876 -0.00259305 0 0.000305358 0 0)
(0.000894761 -0.000541647 0 0.000945162 0 0)
(0.00224533 -0.000617522 0 0.000627898 0 0)
(0.00582448 -0.000769429 0 0.00024927 0 0)
(0.0104029 -0.00119587 0 0.000313775 0 0)
(0.0131365 -0.00199725 0 0.000524688 0 0)
(0.0161802 -0.00228061 0 0.0006226 0 0)
(0.0180292 -0.00238835 0 0.000720547 0 0)
(0.0214951 -0.00197892 0 0.000549716 0 0)
(0.0244916 -0.00205864 0 0.000561467 0 0)
(0.029055 -0.00192261 0 0.000427953 0 0)
(0.03303 -0.00243203 0 0.000556136 0 0)
(0.0381412 -0.00216015 0 0.00047514 0 0)
(0.0427906 -0.00300512 0 0.000832274 0 0)
(0.0485485 -0.00233276 0 0.00101212 0 0)
(0.0551091 -0.0027318 0 0.00221778 0 0)
(0.0643974 -0.00084435 0 0.00373208 0 0)
(0.0786037 0.000798978 0 0.00874517 0 0)
(0.101568 0.00672323 0 0.0183036 0 0)
(0.139546 0.0149711 0 0.0356821 0 0)
(0.0297185 -0.0031724 0 0.000414045 0 0)
(0.0012688 -0.000691441 0 0.00116912 0 0)
(0.00306981 -0.000915674 0 0.000687831 0 0)
(0.00665665 -0.000954264 0 0.000300465 0 0)
(0.0122685 -0.00158381 0 0.000383065 0 0)
(0.0140186 -0.00228304 0 0.00061442 0 0)
(0.0188336 -0.00281889 0 0.000755719 0 0)
(0.0193787 -0.00267888 0 0.000818247 0 0)
(0.0249541 -0.00252472 0 0.000670839 0 0)
(0.0263265 -0.0022508 0 0.000614636 0 0)
(0.033122 -0.00241265 0 0.00049817 0 0)
(0.0352839 -0.00264347 0 0.000599566 0 0)
(0.0428971 -0.00272965 0 0.000546054 0 0)
(0.0456502 -0.00318945 0 0.000901604 0 0)
(0.0542355 -0.00307305 0 0.00103559 0 0)
(0.0590239 -0.00298025 0 0.00233657 0 0)
(0.0708612 -0.00185986 0 0.00342881 0 0)
(0.083861 0.000519137 0 0.00894615 0 0)
(0.108638 0.00524369 0 0.0158278 0 0)
(0.146314 0.0148557 0 0.0371827 0 0)
(0.0300276 -0.00380232 0 0.000557556 0 0)
(0.00169085 -0.000910046 0 0.00143427 0 0)
(0.00408264 -0.00128879 0 0.000746115 0 0)
(0.00752472 -0.00123539 0 0.000383603 0 0)
(0.0145145 -0.00209118 0 0.000476852 0 0)
(0.0150084 -0.00265147 0 0.000730549 0 0)
(0.022067 -0.00342158 0 0.000888864 0 0)
(0.0207505 -0.00303867 0 0.000939304 0 0)
(0.0293147 -0.00317509 0 0.000789751 0 0)
(0.0281447 -0.0025684 0 0.00069315 0 0)
(0.038464 -0.00296224 0 0.000554339 0 0)
(0.0373976 -0.00297142 0 0.000653933 0 0)
(0.0490662 -0.003328 0 0.000597372 0 0)
(0.0477319 -0.00349795 0 0.000951481 0 0)
(0.0606926 -0.00366909 0 0.00106733 0 0)
(0.0605788 -0.00324812 0 0.00229574 0 0)
(0.075957 -0.0022935 0 0.0033604 0 0)
(0.0835591 0.00129173 0 0.00823846 0 0)
(0.10921 0.00686918 0 0.0143255 0 0)
(0.145546 0.0231875 0 0.0355251 0 0)
(0.0295869 -0.00442485 0 0.000734029 0 0)
(0.00216385 -0.00116321 0 0.00169703 0 0)
(0.00492497 -0.00158943 0 0.000796357 0 0)
(0.00844552 -0.001571 0 0.000470981 0 0)
(0.0165658 -0.0026741 0 0.000599004 0 0)
(0.0166136 -0.00309814 0 0.000859884 0 0)
(0.0252072 -0.00403776 0 0.00103459 0 0)
(0.0227821 -0.00341724 0 0.001052 0 0)
(0.0333676 -0.00380637 0 0.000919901 0 0)
(0.0300849 -0.00289808 0 0.000766925 0 0)
(0.0425612 -0.00346962 0 0.000615058 0 0)
(0.0380659 -0.00315618 0 0.000695002 0 0)
(0.0512534 -0.00369504 0 0.000634831 0 0)
(0.0448302 -0.00343851 0 0.000979894 0 0)
(0.0578181 -0.00352146 0 0.00104622 0 0)
(0.0513266 -0.0025465 0 0.00215907 0 0)
(0.0647255 -0.000736559 0 0.00318166 0 0)
(0.0670632 0.00423641 0 0.00696981 0 0)
(0.0914354 0.0141687 0 0.0132972 0 0)
(0.138984 0.0362997 0 0.0282076 0 0)
(0.0287182 -0.0050335 0 0.00095937 0 0)
(0.00249978 -0.00141752 0 0.00195187 0 0)
(0.00545788 -0.00173264 0 0.000820404 0 0)
(0.00952646 -0.00190848 0 0.000564684 0 0)
(0.0184801 -0.00322326 0 0.000736839 0 0)
(0.0189552 -0.0035995 0 0.000997489 0 0)
(0.0277251 -0.00450229 0 0.00116156 0 0)
(0.0244193 -0.00364857 0 0.0011322 0 0)
(0.033531 -0.00397287 0 0.000989717 0 0)
(0.027814 -0.00278068 0 0.000780526 0 0)
(0.0366301 -0.00326979 0 0.000624475 0 0)
(0.0288145 -0.00247901 0 0.000657984 0 0)
(0.0359904 -0.00290863 0 0.000610847 0 0)
(0.0269351 -0.00188633 0 0.000896779 0 0)
(0.0325906 -0.00183466 0 0.000932225 0 0)
(0.0265119 0.000367188 0 0.00188726 0 0)
(0.0339609 0.00254014 0 0.00264689 0 0)
(0.0439514 0.00998382 0 0.00586176 0 0)
(0.0734357 0.0216383 0 0.010456 0 0)
(0.151683 0.0502412 0 0.0221731 0 0)
(0.0278082 -0.00571042 0 0.00126502 0 0)
(0.00265614 -0.001735 0 0.0021528 0 0)
(0.00596801 -0.00187211 0 0.000870223 0 0)
(0.0110091 -0.00229708 0 0.000682411 0 0)
(0.0196367 -0.00365999 0 0.000885365 0 0)
(0.0192628 -0.00377803 0 0.00111501 0 0)
(0.023815 -0.00412926 0 0.00122142 0 0)
(0.0177378 -0.00279024 0 0.00112784 0 0)
(0.0198481 -0.00263505 0 0.000935403 0 0)
(0.0132603 -0.00122581 0 0.000691404 0 0)
(0.014263 -0.0014069 0 0.00052642 0 0)
(0.00993032 -0.000301479 0 0.000531505 0 0)
(0.00992287 -0.000468655 0 0.000483529 0 0)
(0.0098058 0.00104191 0 0.000708343 0 0)
(0.0106639 0.00106961 0 0.000717894 0 0)
(0.0186794 0.0040567 0 0.00146999 0 0)
(0.0267468 0.00597417 0 0.00203382 0 0)
(0.0574269 0.014659 0 0.00442375 0 0)
(0.102915 0.0263162 0 0.00788441 0 0)
(0.215936 0.0541579 0 0.0154562 0 0)
(0.0276409 -0.00658126 0 0.00168089 0 0)
(0.00304334 -0.00226064 0 0.00237537 0 0)
(0.00638465 -0.00210794 0 0.00103463 0 0)
(0.0105666 -0.00247261 0 0.000861386 0 0)
(0.0137225 -0.00307527 0 0.000990839 0 0)
(0.00938353 -0.00216811 0 0.00109494 0 0)
(0.00747604 -0.00147789 0 0.00108914 0 0)
(0.00459895 0.000142016 0 0.000925225 0 0)
(0.00491208 0.000435097 0 0.000708645 0 0)
(0.00927534 0.00146105 0 0.000487491 0 0)
(0.00974333 0.00129238 0 0.000353487 0 0)
(0.0213034 0.0022307 0 0.000347608 0 0)
(0.020923 0.00209543 0 0.000319846 0 0)
(0.0404477 0.00357096 0 0.000474667 0 0)
(0.0420799 0.00335949 0 0.000485056 0 0)
(0.0713509 0.00651301 0 0.00101832 0 0)
(0.085155 0.00748171 0 0.00140017 0 0)
(0.137703 0.0166234 0 0.00305972 0 0)
(0.201814 0.0251795 0 0.00530742 0 0)
(0.343997 0.0520428 0 0.00988249 0 0)
(0.0294533 -0.00805919 0 0.00234724 0 0)
(0.00312153 -0.00256262 0 0.00265048 0 0)
(0.00412553 -0.00142419 0 0.00118085 0 0)
(0.00419635 -0.000798036 0 0.000876302 0 0)
(0.00274205 -1.32913e-05 0 0.000825987 0 0)
(0.00475802 0.00154913 0 0.000801865 0 0)
(0.010777 0.00237457 0 0.000733256 0 0)
(0.0264062 0.00321334 0 0.000578444 0 0)
(0.0371588 0.00299122 0 0.000413846 0 0)
(0.0602115 0.00325977 0 0.000272607 0 0)