/*--------------------------------*- C++ -*----------------------------------*\
| =========                 |                                                 |
| \\      /  F ield         | OpenFOAM: The Open Source CFD Toolbox           |
|  \\    /   O peration     | Version:  2.4.0                                 |
|   \\  /    A nd           | Web:      www.OpenFOAM.org                      |
|    \\/     M anipulation  |                                                 |
\*---------------------------------------------------------------------------*/
FoamFile
{
    version     2.0;
    format      ascii;
    class       surfaceScalarField;
    location    "0.152395";
    object      phi;
}
// * * * * * * * * * * * * * * * * * * * * * * * * * * * * * * * * * * * * * //

dimensions      [0 3 -1 0 0 0 0];

internalField   nonuniform List<scalar> 
34880
(
1.21377e-05
3.62269e-07
1.17091e-05
4.28653e-07
1.13219e-05
3.87203e-07
1.0967e-05
3.54843e-07
1.06483e-05
3.18756e-07
1.03728e-05
2.75439e-07
1.01402e-05
2.32679e-07
9.94577e-06
1.94386e-07
9.78413e-06
1.61641e-07
9.64967e-06
1.3446e-07
9.53717e-06
1.12505e-07
9.44198e-06
9.51896e-08
9.36016e-06
8.18154e-08
9.2885e-06
7.16629e-08
9.22443e-06
6.40705e-08
9.16588e-06
5.85459e-08
9.11106e-06
5.48189e-08
9.05584e-06
5.52247e-08
8.99686e-06
5.89778e-08
2.16365e-07
8.7805e-06
1.26417e-05
2.20596e-07
1.2705e-05
3.65281e-07
1.27225e-05
3.69787e-07
1.26943e-05
3.82988e-07
1.26301e-05
3.82926e-07
1.25383e-05
3.67329e-07
1.24265e-05
3.44402e-07
1.23018e-05
3.19082e-07
1.21699e-05
2.9358e-07
1.20353e-05
2.69033e-07
1.19017e-05
2.46141e-07
1.17717e-05
2.25213e-07
1.16472e-05
2.06314e-07
1.15294e-05
1.89396e-07
1.14192e-05
1.7433e-07
1.13164e-05
1.61327e-07
1.12216e-05
1.49605e-07
1.11307e-05
1.46111e-07
1.10555e-05
1.3418e-07
2.56971e-07
1.10149e-05
1.25409e-05
1.797e-07
1.25884e-05
3.1776e-07
1.26281e-05
3.30124e-07
1.2661e-05
3.50089e-07
1.26833e-05
3.60568e-07
1.26942e-05
3.56461e-07
1.2694e-05
3.44587e-07
1.26833e-05
3.29801e-07
1.26628e-05
3.14128e-07
1.26332e-05
2.98553e-07
1.25956e-05
2.83729e-07
1.25509e-05
2.69955e-07
1.24999e-05
2.57272e-07
1.24437e-05
2.45598e-07
1.23833e-05
2.34773e-07
1.23196e-05
2.25075e-07
1.22534e-05
2.15763e-07
1.21853e-05
2.1422e-07
1.21125e-05
2.06993e-07
2.99556e-07
1.20699e-05
1.25233e-05
1.56409e-07
1.25543e-05
2.86725e-07
1.25822e-05
3.0225e-07
1.26114e-05
3.20915e-07
1.26384e-05
3.33532e-07
1.2662e-05
3.32862e-07
1.26818e-05
3.24757e-07
1.26976e-05
3.14037e-07
1.27092e-05
3.02542e-07
1.27166e-05
2.91101e-07
1.27201e-05
2.80303e-07
1.27196e-05
2.70449e-07
1.27153e-05
2.61588e-07
1.27072e-05
2.53664e-07
1.26954e-05
2.46532e-07
1.268e-05
2.40511e-07
1.26608e-05
2.34997e-07
1.26381e-05
2.36899e-07
1.26089e-05
2.36156e-07
3.09697e-07
1.25988e-05
1.25186e-05
1.37793e-07
1.25435e-05
2.61837e-07
1.25662e-05
2.79559e-07
1.25911e-05
2.96034e-07
1.26159e-05
3.08693e-07
1.26396e-05
3.0917e-07
1.26617e-05
3.02619e-07
1.2682e-05
2.93786e-07
1.27002e-05
2.84341e-07
1.27163e-05
2.74976e-07
1.27304e-05
2.66225e-07
1.27425e-05
2.58371e-07
1.27526e-05
2.51462e-07
1.27608e-05
2.45457e-07
1.27671e-05
2.40236e-07
1.27715e-05
2.36161e-07
1.27737e-05
2.32752e-07
1.27742e-05
2.36411e-07
1.27712e-05
2.39108e-07
2.97739e-07
1.27832e-05
1.25161e-05
1.21665e-07
1.25385e-05
2.39441e-07
1.25592e-05
2.58902e-07
1.25817e-05
2.73561e-07
1.26046e-05
2.85705e-07
1.26272e-05
2.866e-07
1.2649e-05
2.80823e-07
1.26697e-05
2.73044e-07
1.26893e-05
2.64798e-07
1.27076e-05
2.56668e-07
1.27247e-05
2.49144e-07
1.27406e-05
2.42489e-07
1.27553e-05
2.36743e-07
1.27689e-05
2.31874e-07
1.27813e-05
2.27775e-07
1.27926e-05
2.2484e-07
1.28027e-05
2.2267e-07
1.2812e-05
2.27144e-07
1.28196e-05
2.31466e-07
2.78143e-07
1.28392e-05
1.25142e-05
1.07441e-07
1.25354e-05
2.18311e-07
1.25552e-05
2.39085e-07
1.25764e-05
2.5234e-07
1.25983e-05
2.63845e-07
1.26199e-05
2.6495e-07
1.2641e-05
2.59682e-07
1.26615e-05
2.52617e-07
1.26811e-05
2.4519e-07
1.26998e-05
2.37903e-07
1.27178e-05
2.3121e-07
1.27349e-05
2.25361e-07
1.27513e-05
2.2039e-07
1.27669e-05
2.16272e-07
1.27817e-05
2.12913e-07
1.27958e-05
2.10727e-07
1.28091e-05
2.0937e-07
1.28221e-05
2.14192e-07
1.28343e-05
2.1921e-07
2.56301e-07
1.28562e-05
1.25127e-05
9.476e-08
1.25329e-05
1.98102e-07
1.25523e-05
2.19688e-07
1.25728e-05
2.31779e-07
1.25941e-05
2.42604e-07
1.26152e-05
2.43877e-07
1.26358e-05
2.39054e-07
1.26558e-05
2.32582e-07
1.26752e-05
2.25813e-07
1.26939e-05
2.19186e-07
1.2712e-05
2.13128e-07
1.27295e-05
2.0788e-07
1.27464e-05
2.03474e-07
1.27628e-05
1.99894e-07
1.27786e-05
1.97061e-07
1.2794e-05
1.95398e-07
1.28087e-05
1.94604e-07
1.28234e-05
1.99502e-07
1.28379e-05
2.047e-07
2.34032e-07
1.28602e-05
1.25114e-05
8.33556e-08
1.25308e-05
1.78709e-07
1.25499e-05
2.00561e-07
1.25701e-05
2.11606e-07
1.2591e-05
2.21707e-07
1.26117e-05
2.23127e-07
1.2632e-05
2.18751e-07
1.26518e-05
2.12841e-07
1.26709e-05
2.06674e-07
1.26895e-05
2.00631e-07
1.27075e-05
1.95118e-07
1.2725e-05
1.90368e-07
1.27421e-05
1.86415e-07
1.27587e-05
1.83255e-07
1.27749e-05
1.80821e-07
1.27908e-05
1.79542e-07
1.28062e-05
1.79152e-07
1.28218e-05
1.83952e-07
1.28375e-05
1.89029e-07
2.12026e-07
1.28595e-05
1.25103e-05
7.30187e-08
1.2529e-05
1.60065e-07
1.25479e-05
1.81648e-07
1.25678e-05
1.91702e-07
1.25885e-05
2.01026e-07
1.26091e-05
2.02554e-07
1.26292e-05
1.98634e-07
1.26487e-05
1.93283e-07
1.26677e-05
1.87704e-07
1.26861e-05
1.82222e-07
1.2704e-05
1.77219e-07
1.27215e-05
1.72923e-07
1.27385e-05
1.69369e-07
1.27552e-05
1.66564e-07
1.27716e-05
1.64459e-07
1.27876e-05
1.63479e-07
1.28034e-05
1.63387e-07
1.28193e-05
1.67982e-07
1.28356e-05
1.7276e-07
1.90555e-07
1.28571e-05
1.25094e-05
6.35776e-08
1.25274e-05
1.42106e-07
1.25461e-05
1.62921e-07
1.25658e-05
1.72009e-07
1.25863e-05
1.80505e-07
1.26068e-05
1.82089e-07
1.26268e-05
1.78621e-07
1.26463e-05
1.73831e-07
1.26651e-05
1.68835e-07
1.26835e-05
1.63912e-07
1.27013e-05
1.59411e-07
1.27186e-05
1.55552e-07
1.27356e-05
1.52375e-07
1.27523e-05
1.49896e-07
1.27687e-05
1.48082e-07
1.27848e-05
1.47348e-07
1.28007e-05
1.47486e-07
1.28169e-05
1.51814e-07
1.28334e-05
1.56195e-07
1.69709e-07
1.28543e-05
1.25087e-05
5.48859e-08
1.2526e-05
1.24766e-07
1.25446e-05
1.44364e-07
1.25641e-05
1.52492e-07
1.25845e-05
1.60117e-07
1.26049e-05
1.61697e-07
1.26248e-05
1.58671e-07
1.26442e-05
1.54438e-07
1.2663e-05
1.50024e-07
1.26813e-05
1.45659e-07
1.2699e-05
1.41662e-07
1.27164e-05
1.38239e-07
1.27333e-05
1.35431e-07
1.27499e-05
1.33266e-07
1.27663e-05
1.31724e-07
1.27824e-05
1.31208e-07
1.27984e-05
1.31531e-07
1.28146e-05
1.35563e-07
1.28313e-05
1.39499e-07
1.49487e-07
1.28516e-05
1.25081e-05
4.68175e-08
1.25249e-05
1.07975e-07
1.25433e-05
1.25961e-07
1.25626e-05
1.33124e-07
1.25829e-05
1.39845e-07
1.26032e-05
1.41364e-07
1.26231e-05
1.38764e-07
1.26425e-05
1.35082e-07
1.26613e-05
1.31243e-07
1.26795e-05
1.27436e-07
1.26972e-05
1.23946e-07
1.27145e-05
1.2096e-07
1.27314e-05
1.18523e-07
1.2748e-05
1.16668e-07
1.27643e-05
1.1539e-07
1.27805e-05
1.15074e-07
1.27964e-05
1.15553e-07
1.28127e-05
1.19281e-07
1.28295e-05
1.2276e-07
1.29852e-07
1.28491e-05
1.25076e-05
3.92629e-08
1.25239e-05
9.16651e-08
1.25421e-05
1.07697e-07
1.25614e-05
1.13884e-07
1.25815e-05
1.19675e-07
1.26018e-05
1.2108e-07
1.26217e-05
1.18889e-07
1.2641e-05
1.1575e-07
1.26598e-05
1.12479e-07
1.2678e-05
1.09229e-07
1.26957e-05
1.06246e-07
1.2713e-05
1.03701e-07
1.27298e-05
1.01635e-07
1.27464e-05
1.0009e-07
1.27627e-05
9.90729e-08
1.27789e-05
9.89465e-08
1.27949e-05
9.95624e-08
1.28111e-05
1.02995e-07
1.28279e-05
1.06026e-07
1.10743e-07
1.2847e-05
1.25071e-05
3.21262e-08
1.2523e-05
7.57651e-08
1.25412e-05
8.95553e-08
1.25603e-05
9.47484e-08
1.25804e-05
9.95938e-08
1.26006e-05
1.00837e-07
1.26205e-05
9.90394e-08
1.26398e-05
9.64366e-08
1.26586e-05
9.37268e-08
1.26768e-05
9.10305e-08
1.26944e-05
8.85554e-08
1.27117e-05
8.6451e-08
1.27286e-05
8.47577e-08
1.27451e-05
8.35234e-08
1.27614e-05
8.27641e-08
1.27776e-05
8.28216e-08
1.27936e-05
8.35607e-08
1.28099e-05
8.67136e-08
1.28266e-05
8.93197e-08
9.21025e-08
1.28452e-05
1.25068e-05
2.53224e-08
1.25224e-05
6.02059e-08
1.25404e-05
7.15168e-08
1.25595e-05
7.56988e-08
1.25795e-05
7.95862e-08
1.25997e-05
8.06285e-08
1.26195e-05
7.92102e-08
1.26388e-05
7.71374e-08
1.26575e-05
7.49817e-08
1.26757e-05
7.28356e-08
1.26934e-05
7.0868e-08
1.27107e-05
6.92049e-08
1.27275e-05
6.78848e-08
1.27441e-05
6.69606e-08
1.27604e-05
6.64576e-08
1.27765e-05
6.66946e-08
1.27926e-05
6.75471e-08
1.28088e-05
7.04423e-08
1.28255e-05
7.26551e-08
7.38712e-08
1.28437e-05
1.25065e-05
1.87753e-08
1.25218e-05
4.49182e-08
1.25398e-05
5.35627e-08
1.25588e-05
5.67166e-08
1.25787e-05
5.96382e-08
1.25989e-05
6.04484e-08
1.26187e-05
5.9397e-08
1.2638e-05
5.78492e-08
1.26567e-05
5.62419e-08
1.26749e-05
5.4643e-08
1.26926e-05
5.31821e-08
1.27099e-05
5.196e-08
1.27267e-05
5.1013e-08
1.27433e-05
5.03983e-08
1.27596e-05
5.01495e-08
1.27757e-05
5.05624e-08
1.27918e-05
5.15212e-08
1.2808e-05
5.41835e-08
1.28246e-05
5.60399e-08
5.59986e-08
1.28425e-05
1.25064e-05
1.24153e-08
1.25214e-05
2.98336e-08
1.25393e-05
3.56727e-08
1.25583e-05
3.77842e-08
1.25782e-05
3.97351e-08
1.25983e-05
4.02895e-08
1.26181e-05
3.95956e-08
1.26374e-05
3.8569e-08
1.26561e-05
3.75058e-08
1.26743e-05
3.64517e-08
1.2692e-05
3.54966e-08
1.27093e-05
3.4715e-08
1.27261e-05
3.41407e-08
1.27427e-05
3.38344e-08
1.2759e-05
3.38376e-08
1.27752e-05
3.44235e-08
1.27912e-05
3.54835e-08
1.28074e-05
3.79392e-08
1.2824e-05
3.94786e-08
3.84408e-08
1.28416e-05
1.25062e-05
6.17755e-09
1.25212e-05
1.48836e-08
1.2539e-05
1.7826e-08
1.25579e-05
1.88848e-08
1.25778e-05
1.9862e-08
1.2598e-05
2.01447e-08
1.26177e-05
1.98021e-08
1.2637e-05
1.92943e-08
1.26558e-05
1.87721e-08
1.26739e-05
1.82611e-08
1.26916e-05
1.7811e-08
1.27089e-05
1.74694e-08
1.27257e-05
1.7267e-08
1.27423e-05
1.72679e-08
1.27586e-05
1.75207e-08
1.27748e-05
1.82772e-08
1.27908e-05
1.94349e-08
1.28071e-05
2.17111e-08
1.28236e-05
2.29744e-08
2.11602e-08
1.28408e-05
1.25062e-05
2.48801e-13
1.25211e-05
5.50073e-13
1.25389e-05
1.11091e-12
1.25578e-05
2.08639e-12
1.25776e-05
3.81457e-12
1.25978e-05
6.8972e-12
1.26176e-05
1.23656e-11
1.26368e-05
2.21478e-11
1.26556e-05
3.94974e-11
1.26737e-05
7.04851e-11
1.26914e-05
1.25017e-10
1.27087e-05
2.22799e-10
1.27256e-05
3.91479e-10
1.27421e-05
6.98251e-10
1.27584e-05
1.19823e-09
1.27746e-05
2.12346e-09
1.27907e-05
3.37707e-09
1.28069e-05
5.5007e-09
1.28233e-05
6.52879e-09
4.12476e-09
1.28404e-05
1.25062e-05
-6.17706e-09
1.25211e-05
-1.48825e-08
1.25389e-05
-1.78237e-08
1.25578e-05
-1.88807e-08
1.25776e-05
-1.98544e-08
1.25978e-05
-2.01309e-08
1.26176e-05
-1.97774e-08
1.26368e-05
-1.92501e-08
1.26556e-05
-1.86934e-08
1.26737e-05
-1.81205e-08
1.26914e-05
-1.75617e-08
1.27087e-05
-1.7025e-08
1.27256e-05
-1.64862e-08
1.27421e-05
-1.5875e-08
1.27585e-05
-1.51301e-08
1.27746e-05
-1.40375e-08
1.27907e-05
-1.26888e-08
1.28069e-05
-1.06911e-08
1.28233e-05
-9.85771e-09
-1.26932e-08
1.28401e-05
1.25062e-05
-1.24148e-08
1.25212e-05
-2.98325e-08
1.2539e-05
-3.56705e-08
1.25579e-05
-3.77801e-08
1.25778e-05
-3.97276e-08
1.2598e-05
-4.02759e-08
1.26177e-05
-3.95712e-08
1.2637e-05
-3.85253e-08
1.26558e-05
-3.74277e-08
1.26739e-05
-3.63124e-08
1.26916e-05
-3.52494e-08
1.27089e-05
-3.42743e-08
1.27258e-05
-3.33663e-08
1.27423e-05
-3.24522e-08
1.27587e-05
-3.14647e-08
1.27748e-05
-3.02057e-08
1.27909e-05
-2.87615e-08
1.28071e-05
-2.68639e-08
1.28234e-05
-2.61858e-08
-2.93177e-08
1.284e-05
1.25064e-05
-1.87748e-08
1.25214e-05
-4.49172e-08
1.25393e-05
-5.35605e-08
1.25583e-05
-5.67125e-08
1.25782e-05
-5.96308e-08
1.25983e-05
-6.0435e-08
1.26181e-05
-5.93729e-08
1.26374e-05
-5.7806e-08
1.26561e-05
-5.61649e-08
1.26743e-05
-5.45056e-08
1.2692e-05
-5.29383e-08
1.27093e-05
-5.15253e-08
1.27262e-05
-5.02492e-08
1.27427e-05
-4.90339e-08
1.27591e-05
-4.7806e-08
1.27753e-05
-4.63814e-08
1.27913e-05
-4.48405e-08
1.28075e-05
-4.30183e-08
1.28238e-05
-4.24575e-08
-4.57703e-08
1.28402e-05
1.25065e-05
-2.53219e-08
1.25218e-05
-6.02048e-08
1.25398e-05
-7.15147e-08
1.25588e-05
-7.56948e-08
1.25787e-05
-7.9579e-08
1.25989e-05
-8.06154e-08
1.26187e-05
-7.91866e-08
1.2638e-05
-7.70951e-08
1.26567e-05
-7.49062e-08
1.26749e-05
-7.27009e-08
1.26926e-05
-7.06291e-08
1.27099e-05
-6.87787e-08
1.27268e-05
-6.71357e-08
1.27434e-05
-6.5621e-08
1.27597e-05
-6.41552e-08
1.27759e-05
-6.25657e-08
1.2792e-05
-6.09264e-08
1.28081e-05
-5.9156e-08
1.28243e-05
-5.86759e-08
-6.20708e-08
1.28406e-05
1.25068e-05
-3.21257e-08
1.25224e-05
-7.57641e-08
1.25404e-05
-8.95532e-08
1.25595e-05
-9.47445e-08
1.25795e-05
-9.95868e-08
1.25997e-05
-1.00824e-07
1.26195e-05
-9.90164e-08
1.26388e-05
-9.63954e-08
1.26575e-05
-9.36533e-08
1.26757e-05
-9.08993e-08
1.26934e-05
-8.83226e-08
1.27107e-05
-8.60357e-08
1.27276e-05
-8.40274e-08
1.27442e-05
-8.22157e-08
1.27605e-05
-8.05146e-08
1.27767e-05
-7.87609e-08
1.27928e-05
-7.70208e-08
1.2809e-05
-7.52796e-08
1.28251e-05
-7.48456e-08
-7.82369e-08
1.28413e-05
1.25071e-05
-3.92625e-08
1.2523e-05
-9.16641e-08
1.25412e-05
-1.07695e-07
1.25603e-05
-1.1388e-07
1.25804e-05
-1.19669e-07
1.26006e-05
-1.21067e-07
1.26205e-05
-1.18867e-07
1.26398e-05
-1.1571e-07
1.26586e-05
-1.12408e-07
1.26768e-05
-1.09103e-07
1.26945e-05
-1.06021e-07
1.27117e-05
-1.03299e-07
1.27286e-05
-1.00928e-07
1.27452e-05
-9.88215e-08
1.27616e-05
-9.68881e-08
1.27778e-05
-9.49707e-08
1.27939e-05
-9.31268e-08
1.281e-05
-9.13932e-08
1.28262e-05
-9.09712e-08
-9.42843e-08
1.28422e-05
1.25076e-05
-4.68171e-08
1.25239e-05
-1.07974e-07
1.25421e-05
-1.25959e-07
1.25614e-05
-1.33121e-07
1.25815e-05
-1.39839e-07
1.26018e-05
-1.41352e-07
1.26217e-05
-1.38743e-07
1.2641e-05
-1.35044e-07
1.26598e-05
-1.31175e-07
1.2678e-05
-1.27314e-07
1.26957e-05
-1.23729e-07
1.2713e-05
-1.20574e-07
1.27299e-05
-1.17842e-07
1.27465e-05
-1.15445e-07
1.27629e-05
-1.13282e-07
1.27792e-05
-1.112e-07
1.27953e-05
-1.09248e-07
1.28114e-05
-1.075e-07
1.28275e-05
-1.07056e-07
-1.10224e-07
1.28434e-05
1.25081e-05
-5.48855e-08
1.25249e-05
-1.24765e-07
1.25433e-05
-1.44362e-07
1.25626e-05
-1.52488e-07
1.25829e-05
-1.60111e-07
1.26032e-05
-1.61686e-07
1.26231e-05
-1.58651e-07
1.26425e-05
-1.54402e-07
1.26613e-05
-1.49959e-07
1.26795e-05
-1.45542e-07
1.26972e-05
-1.41455e-07
1.27145e-05
-1.3787e-07
1.27315e-05
-1.34781e-07
1.27481e-05
-1.32095e-07
1.27645e-05
-1.29703e-07
1.27808e-05
-1.27456e-07
1.27969e-05
-1.25387e-07
1.2813e-05
-1.236e-07
1.28291e-05
-1.23098e-07
-1.26058e-07
1.28449e-05
1.25087e-05
-6.35772e-08
1.2526e-05
-1.42105e-07
1.25446e-05
-1.62919e-07
1.25641e-05
-1.72005e-07
1.25845e-05
-1.80499e-07
1.26049e-05
-1.82078e-07
1.26248e-05
-1.78602e-07
1.26442e-05
-1.73796e-07
1.2663e-05
-1.68774e-07
1.26813e-05
-1.63802e-07
1.26991e-05
-1.59216e-07
1.27164e-05
-1.55203e-07
1.27334e-05
-1.51759e-07
1.27501e-05
-1.48784e-07
1.27665e-05
-1.4616e-07
1.27828e-05
-1.43737e-07
1.2799e-05
-1.41538e-07
1.2815e-05
-1.39681e-07
1.2831e-05
-1.39078e-07
-1.41769e-07
1.28467e-05
1.25094e-05
-7.30183e-08
1.25274e-05
-1.60064e-07
1.25461e-05
-1.81646e-07
1.25658e-05
-1.91699e-07
1.25863e-05
-2.01021e-07
1.26068e-05
-2.02544e-07
1.26268e-05
-1.98616e-07
1.26463e-05
-1.93251e-07
1.26651e-05
-1.87646e-07
1.26835e-05
-1.82119e-07
1.27013e-05
-1.77036e-07
1.27187e-05
-1.72594e-07
1.27357e-05
-1.6879e-07
1.27524e-05
-1.65517e-07
1.27689e-05
-1.62647e-07
1.27852e-05
-1.60029e-07
1.28014e-05
-1.57672e-07
1.28174e-05
-1.55704e-07
1.28332e-05
-1.54946e-07
-1.573e-07
1.28488e-05
1.25103e-05
-8.33552e-08
1.2529e-05
-1.78708e-07
1.25479e-05
-2.0056e-07
1.25678e-05
-2.11604e-07
1.25885e-05
-2.21702e-07
1.26091e-05
-2.23117e-07
1.26292e-05
-2.18735e-07
1.26487e-05
-2.12811e-07
1.26677e-05
-2.06621e-07
1.26861e-05
-2.00536e-07
1.2704e-05
-1.94948e-07
1.27215e-05
-1.90063e-07
1.27386e-05
-1.85877e-07
1.27554e-05
-1.82278e-07
1.27718e-05
-1.7913e-07
1.27881e-05
-1.76277e-07
1.28041e-05
-1.73714e-07
1.282e-05
-1.71573e-07
1.28356e-05
-1.70587e-07
-1.72527e-07
1.28509e-05
1.25114e-05
-9.47597e-08
1.25308e-05
-1.98102e-07
1.25499e-05
-2.19687e-07
1.25701e-05
-2.31777e-07
1.2591e-05
-2.42599e-07
1.26117e-05
-2.43869e-07
1.26321e-05
-2.39039e-07
1.26518e-05
-2.32554e-07
1.26709e-05
-2.25764e-07
1.26895e-05
-2.19098e-07
1.27075e-05
-2.12972e-07
1.27251e-05
-2.076e-07
1.27422e-05
-2.02979e-07
1.27589e-05
-1.98994e-07
1.27752e-05
-1.955e-07
1.27913e-05
-1.92339e-07
1.28071e-05
-1.8949e-07
1.28226e-05
-1.87085e-07
1.28378e-05
-1.85768e-07
-1.87197e-07
1.28525e-05
1.25127e-05
-1.0744e-07
1.25329e-05
-2.1831e-07
1.25523e-05
-2.39084e-07
1.25728e-05
-2.52338e-07
1.25941e-05
-2.63841e-07
1.26152e-05
-2.64943e-07
1.26358e-05
-2.59668e-07
1.26558e-05
-2.52592e-07
1.26752e-05
-2.45146e-07
1.26939e-05
-2.37824e-07
1.2712e-05
-2.31069e-07
1.27295e-05
-2.25107e-07
1.27465e-05
-2.19941e-07
1.2763e-05
-2.15453e-07
1.2779e-05
-2.11492e-07
1.27945e-05
-2.07897e-07
1.28097e-05
-2.04633e-07
1.28244e-05
-2.01826e-07
1.28387e-05
-2.00031e-07
-2.00816e-07
1.28523e-05
1.25142e-05
-1.21665e-07
1.25354e-05
-2.3944e-07
1.25552e-05
-2.58901e-07
1.25764e-05
-2.73559e-07
1.25983e-05
-2.85702e-07
1.26199e-05
-2.86593e-07
1.2641e-05
-2.80811e-07
1.26615e-05
-2.73022e-07
1.26811e-05
-2.64758e-07
1.26999e-05
-2.56598e-07
1.27178e-05
-2.49018e-07
1.2735e-05
-2.42263e-07
1.27514e-05
-2.36343e-07
1.27671e-05
-2.31142e-07
1.27821e-05
-2.26503e-07
1.27964e-05
-2.22263e-07
1.28102e-05
-2.18369e-07
1.28233e-05
-2.14944e-07
1.28357e-05
-2.12439e-07
-2.12381e-07
1.28473e-05
1.25161e-05
-1.37792e-07
1.25385e-05
-2.61837e-07
1.25592e-05
-2.79558e-07
1.25817e-05
-2.96032e-07
1.26046e-05
-3.08689e-07
1.26272e-05
-3.09165e-07
1.2649e-05
-3.02609e-07
1.26698e-05
-2.93767e-07
1.26893e-05
-2.84307e-07
1.27076e-05
-2.74915e-07
1.27247e-05
-2.66115e-07
1.27406e-05
-2.58174e-07
1.27554e-05
-2.51113e-07
1.27691e-05
-2.44816e-07
1.27817e-05
-2.3912e-07
1.27933e-05
-2.33858e-07
1.28039e-05
-2.28954e-07
1.28134e-05
-2.24523e-07
1.28219e-05
-2.20894e-07
-2.19636e-07
1.28292e-05
1.25186e-05
-1.56408e-07
1.25435e-05
-2.86725e-07
1.25662e-05
-3.02249e-07
1.25911e-05
-3.20913e-07
1.26159e-05
-3.3353e-07
1.26396e-05
-3.32858e-07
1.26617e-05
-3.24749e-07
1.2682e-05
-3.14021e-07
1.27002e-05
-3.02514e-07
1.27163e-05
-2.91049e-07
1.27304e-05
-2.80211e-07
1.27425e-05
-2.70282e-07
1.27527e-05
-2.61291e-07
1.2761e-05
-2.53117e-07
1.27675e-05
-2.45582e-07
1.27721e-05
-2.38506e-07
1.2775e-05
-2.31782e-07
1.2776e-05
-2.25521e-07
1.27749e-05
-2.19877e-07
-2.1672e-07
1.2772e-05
1.25233e-05
-1.797e-07
1.25543e-05
-3.1776e-07
1.25822e-05
-3.30123e-07
1.26114e-05
-3.50088e-07
1.26384e-05
-3.60566e-07
1.2662e-05
-3.56457e-07
1.26818e-05
-3.4458e-07
1.26976e-05
-3.29788e-07
1.27092e-05
-3.14104e-07
1.27167e-05
-2.98511e-07
1.27201e-05
-2.83653e-07
1.27196e-05
-2.69819e-07
1.27154e-05
-2.57029e-07
1.27074e-05
-2.45151e-07
1.26958e-05
-2.34001e-07
1.26807e-05
-2.23407e-07
1.26622e-05
-2.13256e-07
1.26404e-05
-2.03701e-07
1.26152e-05
-1.94682e-07
-1.88892e-07
1.25874e-05
1.25409e-05
-2.20596e-07
1.25884e-05
-3.65281e-07
1.26281e-05
-3.69787e-07
1.2661e-05
-3.82987e-07
1.26833e-05
-3.82924e-07
1.26942e-05
-3.67326e-07
1.2694e-05
-3.44397e-07
1.26833e-05
-3.19072e-07
1.26628e-05
-2.93562e-07
1.26333e-05
-2.69001e-07
1.25957e-05
-2.46084e-07
1.2551e-05
-2.25111e-07
1.25001e-05
-2.06133e-07
1.2444e-05
-1.89064e-07
1.23838e-05
-1.7376e-07
1.23204e-05
-1.60073e-07
1.2255e-05
-1.47862e-07
1.21885e-05
-1.37196e-07
1.21216e-05
-1.2781e-07
-1.22167e-07
1.20549e-05
1.26417e-05
-3.62269e-07
1.2705e-05
-4.28653e-07
1.27225e-05
-3.87202e-07
1.26943e-05
-3.54843e-07
1.26301e-05
-3.18754e-07
1.25383e-05
-2.75437e-07
1.24265e-05
-2.32675e-07
1.23018e-05
-1.94379e-07
1.21699e-05
-1.61628e-07
1.20353e-05
-1.34438e-07
1.19017e-05
-1.12466e-07
1.17717e-05
-9.51202e-08
1.16473e-05
-8.16918e-08
1.15297e-05
-7.14414e-08
1.14196e-05
-6.36662e-08
1.13173e-05
-5.77496e-08
1.12226e-05
-5.32011e-08
1.11351e-05
-4.97355e-08
1.10545e-05
-4.71664e-08
-4.61902e-08
1.09785e-05
1.21377e-05
1.17091e-05
1.13219e-05
1.0967e-05
1.06483e-05
1.03728e-05
1.01402e-05
9.94579e-06
9.78416e-06
9.64972e-06
9.53726e-06
9.44214e-06
9.36044e-06
9.289e-06
9.22534e-06
9.16759e-06
9.11439e-06
9.06465e-06
9.01748e-06
8.97129e-06
8.58495e-06
3.19339e-08
1.63611e-07
8.35602e-06
-1.04811e-08
2.39409e-07
8.10622e-06
-7.28973e-08
3.22704e-07
7.89885e-06
-1.27766e-07
3.35133e-07
7.7468e-06
-1.78423e-07
3.30476e-07
7.64458e-06
-2.14765e-07
3.16981e-07
7.58281e-06
-2.38522e-07
3.00289e-07
7.55001e-06
-2.51095e-07
2.83895e-07
7.53622e-06
-2.55329e-07
2.69121e-07
7.53456e-06
-2.54642e-07
2.56297e-07
7.5409e-06
-2.52095e-07
2.45762e-07
7.55281e-06
-2.49912e-07
2.37997e-07
7.56896e-06
-2.49764e-07
2.33622e-07
7.58833e-06
-2.52346e-07
2.32968e-07
7.61011e-06
-2.57857e-07
2.36083e-07
7.63349e-06
-2.66179e-07
2.42792e-07
7.65783e-06
-2.77187e-07
2.52847e-07
7.68261e-06
-2.90736e-07
2.65957e-07
7.70745e-06
-3.06646e-07
2.81811e-07
7.73207e-06
-3.24746e-07
3.00125e-07
7.75629e-06
-3.44878e-07
3.20662e-07
7.77996e-06
-3.66887e-07
3.43213e-07
7.803e-06
-3.90635e-07
3.67596e-07
7.82535e-06
-4.16004e-07
3.93657e-07
7.84698e-06
-4.42896e-07
4.21264e-07
7.8679e-06
-4.71228e-07
4.50306e-07
7.88814e-06
-5.00929e-07
4.80687e-07
7.90775e-06
-5.31937e-07
5.12329e-07
7.92678e-06
-5.64193e-07
5.45165e-07
7.94529e-06
-5.97646e-07
5.79138e-07
7.96333e-06
-6.32245e-07
6.14198e-07
7.98098e-06
-6.67949e-07
6.50303e-07
7.99828e-06
-7.04718e-07
6.87416e-07
8.01529e-06
-7.42518e-07
7.25505e-07
8.03207e-06
-7.81319e-07
7.64543e-07
8.04866e-06
-8.21093e-07
8.04506e-07
8.0651e-06
-8.61816e-07
8.45375e-07
8.08143e-06
-9.03469e-07
8.87133e-07
8.0977e-06
-9.46034e-07
9.29767e-07
8.11393e-06
-9.89502e-07
9.73271e-07
8.13016e-06
-1.03387e-06
1.01764e-06
8.14641e-06
-1.07913e-06
1.06288e-06
8.16272e-06
-1.1253e-06
1.109e-06
8.1791e-06
-1.17239e-06
1.15601e-06
8.19558e-06
-1.22041e-06
1.20393e-06
8.21218e-06
-1.26939e-06
1.25279e-06
8.22893e-06
-1.31936e-06
1.30261e-06
8.24583e-06
-1.37034e-06
1.35343e-06
8.26292e-06
-1.42236e-06
1.40527e-06
8.2802e-06
-1.47546e-06
1.45818e-06
8.29768e-06
-1.52968e-06
1.51219e-06
8.31538e-06
-1.58502e-06
1.56732e-06
8.3333e-06
-1.64153e-06
1.62361e-06
8.35145e-06
-1.6992e-06
1.68106e-06
8.36982e-06
-1.75805e-06
1.73968e-06
8.38842e-06
-1.81807e-06
1.79947e-06
8.40725e-06
-1.87923e-06
1.8604e-06
8.42628e-06
-1.94149e-06
1.92245e-06
8.44551e-06
-2.0048e-06
1.98557e-06
8.46493e-06
-2.06909e-06
2.04967e-06
8.48452e-06
-2.13426e-06
2.11468e-06
8.50424e-06
-2.2002e-06
2.18047e-06
8.52409e-06
-2.26678e-06
2.24693e-06
8.54402e-06
-2.33384e-06
2.31391e-06
8.564e-06
-2.40121e-06
2.38123e-06
8.58401e-06
-2.46871e-06
2.4487e-06
8.604e-06
-2.53611e-06
2.51613e-06
8.62393e-06
-2.60322e-06
2.58329e-06
8.64376e-06
-2.66978e-06
2.64995e-06
8.66345e-06
-2.73556e-06
2.71587e-06
8.68296e-06
-2.80032e-06
2.78081e-06
8.70225e-06
-2.8638e-06
2.84451e-06
8.72128e-06
-2.92576e-06
2.90673e-06
8.74002e-06
-2.98597e-06
2.96723e-06
8.75842e-06
-3.0442e-06
3.0258e-06
8.77648e-06
-3.10026e-06
3.0822e-06
8.79416e-06
-3.15396e-06
3.13628e-06
8.81145e-06
-3.20515e-06
3.18785e-06
8.82836e-06
-3.25372e-06
3.23681e-06
8.84488e-06
-3.29959e-06
3.28307e-06
8.86103e-06
-3.34273e-06
3.32658e-06
8.87684e-06
-3.38315e-06
3.36734e-06
8.89235e-06
-3.4209e-06
3.4054e-06
8.90759e-06
-3.45609e-06
3.44084e-06
8.92264e-06
-3.48886e-06
3.47381e-06
8.93756e-06
-3.51939e-06
3.50448e-06
8.95243e-06
-3.54793e-06
3.53307e-06
8.96732e-06
-3.57474e-06
3.55985e-06
8.98232e-06
-3.6001e-06
3.5851e-06
8.99752e-06
-3.62434e-06
3.60914e-06
9.01301e-06
-3.64779e-06
3.6323e-06
9.02886e-06
-3.67078e-06
3.65493e-06
9.04515e-06
-3.69366e-06
3.67737e-06
9.06195e-06
-3.71676e-06
3.69996e-06
9.0793e-06
-3.7404e-06
3.72305e-06
9.09725e-06
-3.7649e-06
3.74695e-06
9.1158e-06
-3.79051e-06
3.77196e-06
9.13496e-06
-3.8175e-06
3.79834e-06
9.15468e-06
-3.84607e-06
3.82634e-06
9.17492e-06
-3.8764e-06
3.85616e-06
9.19558e-06
-3.90862e-06
3.88796e-06
9.21654e-06
-3.94283e-06
3.92187e-06
9.23765e-06
-3.97907e-06
3.95796e-06
9.25874e-06
-4.01736e-06
3.99627e-06
9.2796e-06
-4.05765e-06
4.03679e-06
9.29998e-06
-4.09987e-06
4.07949e-06
9.31965e-06
-4.14392e-06
4.12425e-06
9.33834e-06
-4.18964e-06
4.17094e-06
9.35582e-06
-4.23687e-06
4.21939e-06
9.37186e-06
-4.28543e-06
4.26938e-06
9.38631e-06
-4.33512e-06
4.32067e-06
9.39911e-06
-4.3858e-06
4.373e-06
9.41029e-06
-4.43729e-06
4.42611e-06
9.42003e-06
-4.48949e-06
4.47975e-06
9.42862e-06
-4.54223e-06
4.53363e-06
9.43648e-06
-4.59531e-06
4.58745e-06
9.44418e-06
-4.64855e-06
4.64085e-06
9.45259e-06
-4.70192e-06
4.69351e-06
9.46305e-06
-4.75583e-06
4.74537e-06
9.47738e-06
-4.81122e-06
4.79689e-06
9.49744e-06
-4.86902e-06
4.84895e-06
9.52406e-06
-4.92888e-06
4.90226e-06
9.55562e-06
-4.98744e-06
4.95589e-06
9.58724e-06
-5.03733e-06
5.00571e-06
9.61136e-06
-5.06798e-06
5.04386e-06
9.61981e-06
-5.06842e-06
5.05998e-06
9.60635e-06
-5.03063e-06
5.04409e-06
9.56855e-06
-4.95181e-06
4.98962e-06
9.50812e-06
-4.83469e-06
4.89511e-06
9.43003e-06
-4.68586e-06
4.76395e-06
9.34085e-06
-4.51347e-06
4.60265e-06
9.24726e-06
-4.32508e-06
4.41868e-06
9.15497e-06
-4.12635e-06
4.21863e-06
9.06826e-06
-3.92061e-06
4.00732e-06
8.98991e-06
-3.70912e-06
3.78747e-06
8.92142e-06
-3.49157e-06
3.56007e-06
8.86332e-06
-3.2667e-06
3.3248e-06
8.8155e-06
-3.03278e-06
3.0806e-06
8.77746e-06
-2.78802e-06
2.82605e-06
8.74853e-06
-2.53079e-06
2.55972e-06
8.72796e-06
-2.25973e-06
2.2803e-06
8.71506e-06
-1.97382e-06
1.98672e-06
8.70918e-06
-1.67233e-06
1.6782e-06
8.70978e-06
-1.35481e-06
1.35421e-06
8.71639e-06
-1.02108e-06
1.01447e-06
8.72862e-06
-6.71146e-07
6.58924e-07
8.7461e-06
-3.05138e-07
2.8766e-07
8.7685e-06
7.6711e-08
-9.91197e-08
8.79547e-06
4.7392e-07
-5.00887e-07
8.82648e-06
8.85711e-07
-9.16724e-07
8.86077e-06
1.31097e-06
-1.34526e-06
8.89716e-06
1.74799e-06
-1.78438e-06
8.9339e-06
2.19417e-06
-2.23091e-06
8.96855e-06
2.64562e-06
-2.68027e-06
8.99805e-06
3.09688e-06
-3.12637e-06
9.0189e-06
3.54084e-06
-3.5617e-06
9.0277e-06
3.96912e-06
-3.97791e-06
9.02161e-06
4.3728e-06
-4.36671e-06
8.99889e-06
4.74351e-06
-4.72079e-06
8.95912e-06
5.07438e-06
-5.03461e-06
8.90315e-06
5.36082e-06
-5.30485e-06
8.83287e-06
5.60069e-06
-5.53041e-06
8.75082e-06
5.79423e-06
-5.71218e-06
8.65984e-06
5.94357e-06
-5.85259e-06
8.5628e-06
6.05224e-06
-5.9552e-06
8.46234e-06
6.12464e-06
-6.02418e-06
8.36077e-06
6.16561e-06
-6.06404e-06
8.26e-06
6.18009e-06
-6.07932e-06
8.16153e-06
6.17287e-06
-6.07441e-06
8.06649e-06
6.14851e-06
-6.05346e-06
7.97561e-06
6.11122e-06
-6.02034e-06
7.88938e-06
6.06486e-06
-5.97862e-06
7.80799e-06
6.013e-06
-5.93161e-06
7.73145e-06
5.95893e-06
-5.88239e-06
7.65962e-06
5.90574e-06
-5.83392e-06
7.59224e-06
5.85641e-06
-5.78903e-06
7.52896e-06
5.81383e-06
-5.75055e-06
7.4694e-06
5.78091e-06
-5.72134e-06
7.41312e-06
5.76063e-06
-5.70435e-06
7.35969e-06
5.75609e-06
-5.70266e-06
7.30868e-06
5.7706e-06
-5.71959e-06
7.25965e-06
5.80774e-06
-5.75871e-06
7.21218e-06
5.87141e-06
-5.82394e-06
7.16582e-06
5.966e-06
-5.91964e-06
7.12012e-06
6.09644e-06
-6.05074e-06
7.0746e-06
6.26841e-06
-6.22288e-06
7.02868e-06
6.4886e-06
-6.44268e-06
6.9817e-06
6.76503e-06
-6.71805e-06
6.93283e-06
7.10752e-06
-7.05865e-06
6.88099e-06
7.52845e-06
-7.47661e-06
6.82471e-06
8.04381e-06
-7.98752e-06
6.76191e-06
8.6749e-06
-8.6121e-06
6.68948e-06
9.45051e-06
-9.37808e-06
6.60285e-06
1.04113e-05
-1.03247e-05
6.49395e-06
1.16112e-05
-1.15023e-05
6.35279e-06
1.31375e-05
-1.29963e-05
6.14519e-06
1.50882e-05
-1.48806e-05
5.84331e-06
1.77661e-05
-1.74642e-05
5.24259e-06
2.09637e-05
-2.0363e-05
2.78847e-05
-2.79086e-05
5.26651e-06
1.09785e-05
6.83531e-08
1.09124e-05
5.56427e-08
1.08072e-05
3.2243e-08
1.06754e-05
4.07211e-09
1.05196e-05
-2.26345e-08
1.03483e-05
-4.34985e-08
1.01719e-05
-6.20884e-08
9.99963e-06
-7.88295e-08
9.83912e-06
-9.48102e-08
9.6953e-06
-1.10827e-07
9.57039e-06
-1.27187e-07
9.46411e-06
-1.43634e-07
9.37482e-06
-1.60474e-07
9.30006e-06
-1.7758e-07
9.23735e-06
-1.9515e-07
9.18453e-06
-2.13362e-07
9.13993e-06
-2.3258e-07
9.10222e-06
-2.53027e-07
9.07033e-06
-2.74763e-07
9.04336e-06
-2.97775e-07
9.0205e-06
-3.22014e-07
9.00104e-06
-3.47426e-07
8.98438e-06
-3.73979e-07
8.97004e-06
-4.01664e-07
8.95763e-06
-4.30482e-07
8.94684e-06
-4.60436e-07
8.93743e-06
-4.9152e-07
8.92921e-06
-5.23719e-07
8.92203e-06
-5.57014e-07
8.91577e-06
-5.91385e-07
8.91033e-06
-6.2681e-07
8.90565e-06
-6.6327e-07
8.90168e-06
-7.00745e-07
8.89838e-06
-7.39216e-07
8.89572e-06
-7.78662e-07
8.89369e-06
-8.19064e-07
8.89228e-06
-8.60401e-07
8.89146e-06
-9.02657e-07
8.89125e-06
-9.45818e-07
8.89162e-06
-9.89875e-07
8.89258e-06
-1.03483e-06
8.89412e-06
-1.08067e-06
8.89624e-06
-1.12742e-06
8.89893e-06
-1.17508e-06
8.9022e-06
-1.22368e-06
8.90604e-06
-1.27323e-06
8.91045e-06
-1.32377e-06
8.91543e-06
-1.37531e-06
8.92097e-06
-1.4279e-06
8.92706e-06
-1.48155e-06
8.93369e-06
-1.53631e-06
8.94086e-06
-1.59219e-06
8.94856e-06
-1.64922e-06
8.95676e-06
-1.70741e-06
8.96546e-06
-1.76675e-06
8.97462e-06
-1.82723e-06
8.98423e-06
-1.88883e-06
8.99425e-06
-1.95151e-06
9.00466e-06
-2.01521e-06
9.01542e-06
-2.07985e-06
9.0265e-06
-2.14534e-06
9.03785e-06
-2.21155e-06
9.04943e-06
-2.27835e-06
9.06118e-06
-2.3456e-06
9.07307e-06
-2.4131e-06
9.08503e-06
-2.48067e-06
9.09701e-06
-2.5481e-06
9.10896e-06
-2.61516e-06
9.12082e-06
-2.68164e-06
9.13253e-06
-2.74727e-06
9.14403e-06
-2.81182e-06
9.15528e-06
-2.87504e-06
9.16622e-06
-2.9367e-06
9.1768e-06
-2.99655e-06
9.18698e-06
-3.05439e-06
9.19674e-06
-3.11001e-06
9.20603e-06
-3.16325e-06
9.21486e-06
-3.21397e-06
9.2232e-06
-3.26206e-06
9.23107e-06
-3.30746e-06
9.23849e-06
-3.35015e-06
9.24548e-06
-3.39014e-06
9.25208e-06
-3.42751e-06
9.25835e-06
-3.46236e-06
9.26436e-06
-3.49486e-06
9.27017e-06
-3.52521e-06
9.27587e-06
-3.55364e-06
9.28155e-06
-3.58042e-06
9.2873e-06
-3.60585e-06
9.29321e-06
-3.63025e-06
9.29936e-06
-3.65394e-06
9.30584e-06
-3.67726e-06
9.31272e-06
-3.70053e-06
9.32005e-06
-3.72409e-06
9.32788e-06
-3.74823e-06
9.33622e-06
-3.77324e-06
9.34508e-06
-3.79937e-06
9.35442e-06
-3.82684e-06
9.36419e-06
-3.85584e-06
9.37431e-06
-3.88652e-06
9.38467e-06
-3.91897e-06
9.3951e-06
-3.95326e-06
9.40545e-06
-3.98942e-06
9.41551e-06
-4.02742e-06
9.42506e-06
-4.0672e-06
9.43389e-06
-4.1087e-06
9.44176e-06