/*--------------------------------*- C++ -*----------------------------------*\
| =========                 |                                                 |
| \\      /  F ield         | OpenFOAM: The Open Source CFD Toolbox           |
|  \\    /   O peration     | Version:  2.4.0                                 |
|   \\  /    A nd           | Web:      www.OpenFOAM.org                      |
|    \\/     M anipulation  |                                                 |
\*---------------------------------------------------------------------------*/
FoamFile
{
    version     2.0;
    format      ascii;
    class       surfaceScalarField;
    location    "0.051";
    object      phi;
}
// * * * * * * * * * * * * * * * * * * * * * * * * * * * * * * * * * * * * * //

dimensions      [0 3 -1 0 0 0 0];

internalField   nonuniform List<scalar> 
8640
(
1.14669e-05
1.35331e-05
7.17946e-06
4.28747e-06
5.91423e-06
1.26523e-06
5.38092e-06
5.33308e-07
5.09702e-06
2.83906e-07
4.98184e-06
1.15176e-07
4.84916e-06
1.32684e-07
4.92573e-06
-7.65736e-08
4.73077e-06
1.9496e-07
-1.54249e-06
6.27326e-06
2.10598e-05
1.74733e-05
1.7457e-05
7.89021e-06
1.55038e-05
3.21843e-06
1.42765e-05
1.76062e-06
1.34943e-05
1.06607e-06
1.30956e-05
5.13943e-07
1.27277e-05
5.00571e-07
1.2745e-05
-9.38445e-08
1.26458e-05
2.94089e-07
-2.20833e-06
1.33117e-05
2.57205e-05
1.67528e-05
2.41144e-05
9.49628e-06
2.25972e-05
4.73558e-06
2.126e-05
3.09785e-06
2.02318e-05
2.09429e-06
1.96436e-05
1.1021e-06
1.9126e-05
1.01818e-06
1.89837e-05
4.8432e-08
1.90561e-05
2.21691e-07
-2.98989e-06
1.98377e-05
2.74851e-05
1.42678e-05
2.77649e-05
9.2165e-06
2.73585e-05
5.14194e-06
2.6554e-05
3.9024e-06
2.56576e-05
2.99068e-06
2.50744e-05
1.6853e-06
2.45393e-05
1.55325e-06
2.42358e-05
3.51968e-07
2.44247e-05
3.2794e-08
-3.99729e-06
2.54321e-05
2.76778e-05
1.15899e-05
2.89655e-05
7.92885e-06
2.96072e-05
4.50025e-06
2.97239e-05
3.78564e-06
2.93849e-05
3.3297e-06
2.91109e-05
1.95933e-06
2.87487e-05
1.91541e-06
2.84024e-05
6.98269e-07
2.87354e-05
-3.00162e-07
-4.95759e-06
2.96957e-05
2.74827e-05
9.10726e-06
2.90233e-05
6.38826e-06
3.00304e-05
3.49313e-06
3.07542e-05
3.06183e-06
3.10716e-05
3.01233e-06
3.13757e-05
1.65517e-06
3.1396e-05
1.89514e-06
3.1189e-05
9.05223e-07
3.18066e-05
-9.17737e-07
-4.77596e-06
3.1625e-05
2.73105e-05
6.79675e-06
2.89484e-05
4.75036e-06
2.99445e-05
2.49702e-06
3.07281e-05
2.27828e-06
3.13112e-05
2.42919e-06
3.20236e-05
9.4273e-07
3.23795e-05
1.53933e-06
3.24777e-05
8.06949e-07
3.33903e-05
-1.83035e-06
-3.67336e-06
3.22877e-05
2.72427e-05
4.55403e-06
2.89967e-05
2.99642e-06
2.9809e-05
1.68472e-06
3.05581e-05
1.5291e-06
3.12592e-05
1.72815e-06
3.19848e-05
2.17079e-07
3.23618e-05
1.16233e-06
3.28888e-05
2.80026e-07
3.37052e-05
-2.64679e-06
-3.98831e-06
3.40201e-05
2.7236e-05
2.31806e-06
2.89287e-05
1.30365e-06
2.96563e-05
9.57157e-07
3.04997e-05
6.85686e-07
3.1315e-05
9.12847e-07
3.17858e-05
-2.53651e-07
3.22463e-05
7.01776e-07
3.3013e-05
-4.86614e-07
3.32896e-05
-2.92342e-06
-4.29082e-06
3.35921e-05
2.72224e-05
9.5654e-08
2.89025e-05
-3.76478e-07
2.96044e-05
2.5532e-07
3.04928e-05
-2.02712e-07
3.12802e-05
1.25416e-07
3.16736e-05
-6.47017e-07
3.23276e-05
4.77468e-08
3.28778e-05
-1.03687e-06
3.29683e-05
-3.0139e-06
-4.61649e-06
3.3294e-05
2.72354e-05
-2.1397e-06
2.89076e-05
-2.04872e-06
2.95917e-05
-4.2876e-07
3.04921e-05
-1.10308e-06
3.12714e-05
-6.5393e-07
3.17058e-05
-1.08144e-06
3.23282e-05
-5.74619e-07
3.27265e-05
-1.43515e-06
3.29821e-05
-3.2695e-06
-5.17546e-06
3.3541e-05
2.72774e-05
-4.41711e-06
2.8916e-05
-3.68727e-06
2.96504e-05
-1.1632e-06
3.05304e-05
-1.98312e-06
3.12884e-05
-1.41189e-06
3.171e-05
-1.50303e-06
3.2284e-05
-1.14866e-06
3.27297e-05
-1.88085e-06
3.31487e-05
-3.68852e-06
-5.7676e-06
3.37409e-05
2.73494e-05
-6.76646e-06
2.89418e-05
-5.27967e-06
2.97655e-05
-1.98699e-06
3.05775e-05
-2.79506e-06
3.12854e-05
-2.11982e-06
3.16964e-05
-1.91406e-06
3.22954e-05
-1.74764e-06
3.27874e-05
-2.37289e-06
3.31373e-05
-4.03837e-06
-5.80489e-06
3.31746e-05
2.7435e-05
-9.20148e-06
2.88704e-05
-6.71504e-06
2.98933e-05
-3.00994e-06
3.06424e-05
-3.54408e-06
3.13151e-05
-2.7926e-06
3.17086e-05
-2.30754e-06
3.22136e-05
-2.25262e-06
3.25055e-05
-2.66477e-06
3.24807e-05
-4.01357e-06
-5.53673e-06
3.22125e-05
2.75296e-05
-1.17311e-05
2.88706e-05
-8.05605e-06
2.99981e-05
-4.13742e-06
3.06356e-05
-4.18158e-06
3.10555e-05
-3.21253e-06
3.11734e-05
-2.42542e-06
3.12265e-05
-2.3057e-06
3.10502e-05
-2.4885e-06
3.0589e-05
-3.55233e-06
-4.94613e-06
2.99984e-05
2.76505e-05
-1.43815e-05
2.88401e-05
-9.24566e-06
2.96189e-05
-4.91627e-06
2.9632e-05
-4.19463e-06
2.93542e-05
-2.93473e-06
2.89698e-05
-2.04108e-06
2.85433e-05
-1.87915e-06
2.80122e-05
-1.95745e-06
2.72762e-05
-2.81633e-06
-3.90628e-06
2.62364e-05
2.74417e-05
-1.68233e-05
2.76941e-05
-9.49807e-06
2.73855e-05
-4.60765e-06
2.64831e-05
-3.29224e-06
2.56176e-05
-2.06923e-06
2.49365e-05
-1.35994e-06
2.42996e-05
-1.24224e-06
2.36555e-05
-1.31333e-06
2.28058e-05
-1.9667e-06
-2.63433e-06
2.15339e-05
2.56795e-05
-1.75028e-05
2.40774e-05
-7.89596e-06
2.2624e-05
-3.15421e-06
2.11997e-05
-1.86797e-06
2.01856e-05
-1.05512e-06
1.94985e-05
-6.72809e-07
1.88818e-05
-6.25544e-07
1.82776e-05
-7.09172e-07
1.7426e-05
-1.11501e-06
-1.45702e-06
1.62486e-05
2.10361e-05
-1.35389e-05
1.74349e-05
-4.29472e-06
1.55233e-05
-1.24263e-06
1.42259e-05
-5.70572e-07
1.34518e-05
-2.80989e-07
1.29584e-05
-1.79402e-07
1.25101e-05
-1.77294e-07
1.20351e-05
-2.34178e-07
1.13082e-05
-3.88097e-07
-5.35205e-07
1.03864e-05
1.14611e-05
7.16634e-06
5.92372e-06
5.35314e-06
5.07215e-06
4.89275e-06
4.71546e-06
4.48128e-06
4.09318e-06
3.55798e-06
8.37143e-06
-6.98602e-07
-1.39957e-06
1.04245e-05
-1.75347e-06
-2.9959e-07
1.17123e-05
-3.59922e-06
2.31139e-06
1.14957e-05
-5.59571e-06
5.81236e-06
1.081e-05
-8.85954e-06
9.54518e-06
9.74332e-06
-9.94768e-06
1.10144e-05
7.64024e-06
-7.14522e-06
9.2483e-06
6.33139e-06
-3.91528e-06
5.22412e-06
7.12501e-06
2.41104e-07
-1.03472e-06
1.10092e-05
9.84113e-06
-1.37253e-05
1.58227e-05
1.58108e-05
-2.06242e-05
1.86919e-05
1.31242e-05
-1.59934e-05
2.19401e-05
5.73441e-06
-8.98258e-06
2.46245e-05
-8.88006e-07
-1.79645e-06
2.59782e-05
-4.4641e-06
3.11044e-06
2.62905e-05
-7.15798e-06
6.84566e-06
2.71537e-05
-1.41875e-05
1.33243e-05
2.79612e-05
-2.29852e-05
2.21778e-05
2.92103e-05
-2.85825e-05
2.73334e-05
3.16064e-05
-3.38295e-05
3.14334e-05
3.2306e-05
-3.68869e-05
3.61873e-05
3.10322e-05
-3.75352e-05
3.8809e-05
3.08261e-05
-3.84487e-05
3.86548e-05
3.15129e-05
-4.02986e-05
3.96119e-05
3.13563e-05
-4.15089e-05
4.16655e-05
3.02932e-05
-3.8748e-05
3.9811e-05
2.90462e-05
-3.54826e-05
3.67297e-05
2.8383e-05
-3.19679e-05
3.26311e-05
2.8236e-05
-2.57824e-05
2.59294e-05
2.82943e-05
-1.99704e-05
1.99122e-05
2.84587e-05
-1.2711e-05
1.25466e-05
2.8322e-05
-3.50406e-06
3.6407e-06
2.82403e-05
3.1497e-06
-3.06795e-06
2.84972e-05
9.706e-06
-9.96291e-06
2.82665e-05
1.86709e-05
-1.84402e-05
2.6979e-05
2.52996e-05
-2.40122e-05
2.50364e-05
2.63788e-05
-2.44361e-05
2.31567e-05
2.41313e-05
-2.22516e-05
2.15908e-05
2.12598e-05
-1.96939e-05
2.01875e-05
1.81259e-05
-1.67225e-05
1.88917e-05
1.43916e-05
-1.30958e-05
1.77969e-05
1.08517e-05
-9.75688e-06
1.69681e-05
8.02128e-06
-7.19251e-06
1.63402e-05
6.49948e-06
-5.87156e-06
1.58542e-05
5.10952e-06
-4.6235e-06
1.54003e-05
4.81629e-06
-4.36245e-06
1.50454e-05
3.2484e-06
-2.89344e-06
1.46631e-05
3.90364e-06
-3.52139e-06
1.44855e-05
1.27307e-06
-1.09548e-06
1.41811e-05
3.80203e-06
-3.49761e-06
1.42593e-05
-9.10592e-07
8.32444e-07
1.39595e-05
4.65864e-06
-4.35891e-06
1.43193e-05
-3.11186e-06
2.7521e-06
1.3931e-05
5.80943e-06
-5.42111e-06
1.44752e-05
-4.58442e-06
4.0402e-06
1.40557e-05
5.89167e-06
-5.4722e-06
1.46191e-05
-4.7828e-06
4.21941e-06
1.42002e-05
4.75426e-06
-4.33532e-06
1.48755e-05
-4.31536e-06
3.64001e-06
1.41653e-05
3.96857e-06
-3.25833e-06
1.51081e-05
-4.02804e-06
3.08526e-06
1.40622e-05
4.17756e-06
-3.13172e-06
1.50173e-05
-3.99325e-06
3.03822e-06
1.39659e-05
4.74869e-06
-3.69736e-06
1.47949e-05
-4.18784e-06
3.3589e-06
1.3832e-05
5.09644e-06
-4.13357e-06
1.46556e-05
-4.31442e-06
3.4908e-06
1.38694e-05
4.70479e-06
-3.91855e-06
1.46396e-05
-3.70473e-06
2.93451e-06
1.39605e-05
4.19126e-06
-3.51211e-06
1.48336e-05
-3.23859e-06
2.36546e-06
1.4014e-05
4.57667e-06
-3.7571e-06
1.50341e-05
-3.59646e-06
2.57637e-06
1.42008e-05
4.87146e-06
-4.03814e-06
1.52714e-05
-3.12086e-06
2.05026e-06
1.44383e-05
4.4904e-06
-3.65727e-06
1.55153e-05
-2.25088e-06
1.17387e-06
1.46211e-05
5.11133e-06
-4.21717e-06
1.58939e-05
-2.41096e-06
1.13816e-06
1.48762e-05
5.21197e-06
-4.1943e-06
1.60095e-05
-7.80198e-07
-3.53034e-07
1.50539e-05
5.2432e-06
-4.28758e-06
1.61684e-05
-1.65871e-07
-9.48674e-07
1.49642e-05
5.84412e-06
-4.6399e-06
1.57682e-05
1.60219e-06
-2.40619e-06
1.46371e-05
6.09944e-06
-4.96838e-06
1.52121e-05
2.58437e-06
-3.15932e-06
1.38902e-05
6.912e-06
-5.59012e-06
1.41266e-05
4.43573e-06
-4.67211e-06
1.29369e-05
7.6558e-06
-6.46614e-06
1.37518e-05
5.43682e-06
-6.25167e-06
1.30802e-05
9.35292e-06
-8.68135e-06
1.45428e-05
7.38996e-06
-8.85253e-06
1.42873e-05
1.30772e-05
-1.28217e-05
1.48693e-05
1.15716e-05
-1.21536e-05
1.37615e-05
1.88341e-05
-1.77263e-05
1.57184e-05
1.64391e-05
-1.8396e-05
1.27724e-05
3.03632e-05
-2.74173e-05
1.29892e-05
2.90597e-05
-2.92764e-05
5.71957e-05
-5.56807e-05
1.14741e-05
1.44703e-05
-1.85722e-06
1.58501e-05
-3.13332e-06
1.68108e-05
-4.5599e-06
1.65117e-05
-5.2966e-06
1.56252e-05
-7.97296e-06
1.46774e-05
-8.99991e-06
1.34527e-05
-5.9205e-06
1.24116e-05
-2.87422e-06
1.22516e-05
4.01127e-07
1.49037e-05
7.18898e-06
1.84162e-05
1.22983e-05
2.09868e-05
1.05536e-05
2.37964e-05
2.92474e-06
2.60072e-05
-3.09879e-06
2.72714e-05
-5.72826e-06
2.81646e-05
-8.05124e-06
2.96419e-05
-1.56648e-05
3.08104e-05
-2.41538e-05
3.19449e-05
-2.9717e-05
3.28891e-05
-3.47738e-05
3.22153e-05
-3.62131e-05
3.07644e-05
-3.60843e-05
3.07956e-05
-3.84799e-05
3.12057e-05
-4.07088e-05
2.99856e-05
-4.02888e-05
2.82049e-05
-3.69673e-05
2.69125e-05
-3.41902e-05
2.63519e-05
-3.14073e-05
2.65306e-05
-2.59611e-05
2.6806e-05
-2.02458e-05
2.68408e-05
-1.27459e-05
2.64748e-05
-3.13798e-06
2.60303e-05
3.59414e-06
2.61331e-05
9.60325e-06
2.62144e-05
1.85895e-05
2.53897e-05
2.61243e-05
2.37316e-05
2.80369e-05
2.19392e-05
2.59237e-05
2.03914e-05
2.28076e-05
1.91042e-05
1.94131e-05
1.80396e-05
1.54562e-05
1.71758e-05
1.17154e-05
1.6502e-05
8.69506e-06
1.59745e-05
7.02698e-06
1.55472e-05
5.53691e-06
1.51619e-05
5.20159e-06
1.48343e-05
3.57592e-06
1.45339e-05
4.20403e-06
1.43336e-05
1.47343e-06
1.41514e-05
3.98425e-06
1.41269e-05
-8.86134e-07
1.40078e-05
4.77777e-06
1.42129e-05
-3.31699e-06
1.39606e-05
6.06169e-06
1.44498e-05
-5.07353e-06
1.38859e-05
6.45549e-06
1.46548e-05
-5.55167e-06
1.37508e-05
5.65829e-06
1.47516e-05
-5.31619e-06
1.35643e-05
5.15586e-06
1.45377e-05
-5.00144e-06
1.34097e-05
5.30561e-06
1.41468e-05
-4.73034e-06
1.32819e-05
5.61353e-06
1.39729e-05
-4.87878e-06
1.32626e-05
5.80668e-06
1.40095e-05
-5.0613e-06
1.34788e-05
5.23551e-06
1.41008e-05
-4.32676e-06
1.35581e-05
4.73394e-06
1.43933e-05
-4.07381e-06
1.34685e-05
5.50147e-06
1.46356e-05
-4.7635e-06
1.37626e-05
5.74445e-06
1.47079e-05
-4.06621e-06
1.38675e-05
5.33088e-06
1.5062e-05
-3.44541e-06
1.39365e-05
6.23683e-06
1.5331e-05
-3.8055e-06
1.43651e-05
6.17792e-06
1.5668e-05
-2.08313e-06
1.45058e-05
6.40545e-06
1.6148e-05
-1.80815e-06
1.4933e-05
7.05913e-06
1.63895e-05
1.45669e-07
1.50965e-05
7.39248e-06
1.65189e-05
1.16195e-06
1.4949e-05
8.48192e-06
1.59621e-05
3.4226e-06
1.43082e-05
9.30976e-06
1.50295e-05
4.71545e-06
1.35468e-05
1.08357e-05
1.42683e-05
6.66847e-06
1.36619e-05
1.36836e-05
1.56271e-05
9.60642e-06
1.35559e-05
2.09053e-05
1.49145e-05
1.50804e-05
1.49563e-05
3.03214e-05
1.97048e-05
2.43112e-05
5.79152e-05
1.89852e-05
2.03277e-05
-2.3472e-06
2.10188e-05
-3.82439e-06
2.16276e-05
-5.16876e-06
2.1089e-05
-4.75798e-06
2.01118e-05
-6.99576e-06
1.95074e-05
-8.39553e-06
1.87482e-05
-5.16123e-06
1.79836e-05
-2.10968e-06
1.81254e-05
2.59363e-07
1.98779e-05
5.43648e-06
2.19633e-05
1.02129e-05
2.40067e-05
8.51021e-06
2.5999e-05
9.32434e-07
2.77123e-05
-4.81215e-06
2.89695e-05
-6.98543e-06
3.05609e-05
-9.64264e-06
3.22621e-05
-1.7366e-05
3.31281e-05
-2.50198e-05
3.35109e-05
-3.00998e-05
3.2728e-05
-3.39908e-05
3.11242e-05
-3.46094e-05
3.05751e-05
-3.55352e-05
3.10175e-05
-3.89223e-05
3.05111e-05
-4.02023e-05
2.80513e-05
-3.78291e-05
2.54535e-05
-3.43695e-05
2.42587e-05
-3.29954e-05
2.41255e-05
-3.12741e-05
2.44596e-05
-2.62952e-05
2.47722e-05
-2.05585e-05
2.48319e-05
-1.28055e-05
2.45022e-05
-2.80829e-06
2.38996e-05
4.19676e-06
2.37485e-05
9.75428e-06
2.38146e-05
1.85235e-05
2.32212e-05
2.67177e-05
2.1881e-05
2.9377e-05
2.03395e-05
2.74652e-05
1.89984e-05
2.41487e-05
1.79266e-05
2.04849e-05
1.70428e-05
1.634e-05
1.63262e-05
1.2432e-05
1.57855e-05
9.23569e-06
1.53921e-05
7.42042e-06
1.50709e-05
5.85809e-06
1.47985e-05
5.47397e-06
1.45307e-05
3.84373e-06
1.43359e-05
4.39888e-06
1.41358e-05
1.67355e-06
1.40715e-05
4.04849e-06
1.39835e-05
-7.98169e-07
1.3986e-05
4.77533e-06
1.41271e-05
-3.45811e-06
1.38918e-05
6.29701e-06
1.44575e-05
-5.63926e-06
1.36675e-05
7.24548e-06
1.46746e-05
-6.55871e-06
1.34535e-05
6.87935e-06
1.45715e-05
-6.43423e-06
1.34024e-05
6.32496e-06
1.41904e-05
-5.78942e-06
1.34809e-05
6.01512e-06
1.39721e-05
-5.22157e-06
1.36042e-05
5.98149e-06
1.41279e-05
-5.40248e-06
1.3763e-05
6.17151e-06
1.45532e-05
-5.85148e-06
1.39601e-05
5.82865e-06
1.47646e-05
-5.13126e-06
1.40828e-05
5.41576e-06
1.49239e-05
-4.91499e-06
1.39799e-05
6.44553e-06
1.51914e-05
-5.97497e-06
1.41533e-05
6.78252e-06
1.52304e-05
-5.14333e-06
1.4292e-05
6.26929e-06
1.54889e-05
-4.64231e-06
1.4332e-05
7.39377e-06
1.58278e-05
-5.30137e-06
1.46543e-05
7.35147e-06
1.60885e-05
-3.51735e-06
1.47799e-05
7.71406e-06
1.6632e-05
-3.66022e-06
1.51767e-05
8.5144e-06
1.69036e-05
-1.58123e-06
1.54093e-05
8.88681e-06
1.73406e-05
-7.69385e-07
1.56988e-05
1.01238e-05
1.71685e-05
1.95288e-06
1.54609e-05
1.10174e-05
1.66638e-05
3.51255e-06
1.48527e-05
1.26468e-05
1.582e-05
5.70118e-06
1.43661e-05
1.51375e-05
1.67657e-05
7.20675e-06
1.64206e-05
2.12504e-05
1.77828e-05
1.37183e-05
1.49689e-05
3.31353e-05
2.06126e-05
1.86675e-05
5.63303e-05
2.21975e-05
2.55272e-05
-2.44236e-06
2.58332e-05
-4.13033e-06
2.6073e-05
-5.40863e-06
2.53773e-05
-4.06225e-06
2.42081e-05
-5.82655e-06
2.339e-05
-7.57743e-06
2.30786e-05
-4.8499e-06
2.2711e-05
-1.74201e-06
2.31263e-05
-1.55997e-07
2.4803e-05
3.75982e-06
2.65544e-05
8.46142e-06
2.82533e-05
6.81141e-06
2.96724e-05
-4.86722e-07
3.0784e-05
-5.92373e-06
3.18091e-05
-8.01052e-06
3.33684e-05
-1.1202e-05
3.44796e-05
-1.84771e-05
3.45937e-05
-2.51339e-05
3.42322e-05
-2.97383e-05
3.27861e-05
-3.25447e-05
3.11953e-05
-3.30185e-05
3.09023e-05
-3.52421e-05
3.05454e-05
-3.85655e-05
2.84935e-05
-3.81504e-05
2.53552e-05
-3.46907e-05
2.2924e-05
-3.19383e-05
2.1824e-05
-3.18954e-05
2.1822e-05
-3.12721e-05
2.22775e-05
-2.67508e-05
2.23821e-05
-2.0663e-05
2.22689e-05
-1.26923e-05
2.19913e-05
-2.53071e-06
2.15201e-05
4.66801e-06
2.12058e-05
1.00685e-05
2.11306e-05
1.85987e-05
2.07717e-05
2.70766e-05
1.9844e-05
3.03047e-05
1.86311e-05
2.86781e-05
1.75354e-05
2.52444e-05
1.66767e-05
2.13436e-05
1.60264e-05
1.69903e-05
1.55605e-05
1.28979e-05
1.52089e-05
9.58729e-06
1.49383e-05
7.69111e-06
1.46708e-05
6.12553e-06
1.44724e-05
5.67241e-06
1.42208e-05
4.09532e-06
1.41317e-05
4.48799e-06
1.39e-05
1.90521e-06
1.39747e-05
3.97386e-06
1.37858e-05
-6.09283e-07
1.39298e-05
4.63125e-06
1.39655e-05
-3.49381e-06
1.37922e-05
6.47035e-06
1.43895e-05
-6.23654e-06
1.34957e-05
8.13924e-06
1.46282e-05
-7.69119e-06
1.33481e-05
8.15946e-06
1.43948e-05
-7.48092e-06
1.35344e-05
7.18534e-06
1.40301e-05
-6.2851e-06
1.3785e-05
6.26022e-06
1.40117e-05
-5.4483e-06
1.38334e-05
6.15985e-06
1.43158e-05
-5.88492e-06
1.36658e-05
6.82155e-06
1.46303e-05
-6.81602e-06
1.36461e-05
6.81283e-06
1.4463e-05
-5.94811e-06
1.3737e-05
6.14175e-06
1.45212e-05
-5.69921e-06
1.35203e-05
7.44647e-06
1.4738e-05
-7.19267e-06
1.37683e-05
7.75214e-06
1.4616e-05
-5.99099e-06
1.39104e-05
6.97492e-06
1.51456e-05
-5.87752e-06
1.40427e-05
8.49661e-06
1.54861e-05
-6.74469e-06
1.45815e-05
8.25608e-06
1.60341e-05
-4.97002e-06
1.48943e-05
8.85386e-06
1.69209e-05
-5.68683e-06
1.56617e-05
9.7736e-06
1.76577e-05
-3.57723e-06
1.63572e-05
1.01873e-05
1.88022e-05
-3.21442e-06
1.70259e-05
1.19001e-05
1.9438e-05
-4.59155e-07
1.73009e-05
1.31545e-05
1.93109e-05
1.5025e-06
1.65159e-05
1.54418e-05
1.76501e-05
4.56698e-06
1.47401e-05
1.80475e-05
1.55793e-05
6.36752e-06
1.56755e-05
2.11542e-05
1.98747e-05
9.51913e-06
2.01328e-05
3.28772e-05
2.53818e-05
1.34186e-05
5.51582e-05
2.65539e-05
2.93675e-05
-2.11418e-06
2.9482e-05
-4.24484e-06
2.95945e-05
-5.52114e-06
2.89541e-05
-3.42182e-06
2.78599e-05
-4.7324e-06
2.68444e-05
-6.56191e-06
2.65814e-05
-4.58693e-06
2.65246e-05
-1.68517e-06
2.69043e-05
-5.35643e-07
2.84264e-05
2.23763e-06
3.02941e-05
6.59375e-06
3.20821e-05
5.02347e-06
3.32712e-05
-1.67588e-06
3.39561e-05
-6.60864e-06
3.47104e-05
-8.76482e-06
3.57997e-05
-1.22913e-05
3.62177e-05
-1.88951e-05
3.55901e-05
-2.45063e-05
3.43079e-05
-2.8456e-05
3.24683e-05
-3.07051e-05
3.12072e-05
-3.17574e-05
3.06703e-05
-3.47052e-05
2.90255e-05
-3.69207e-05
2.55661e-05
-3.4691e-05
2.20193e-05
-3.11439e-05
2.00896e-05
-3.00087e-05
1.93654e-05
-3.11711e-05
1.92795e-05
-3.11862e-05
1.96299e-05
-2.71011e-05
1.96154e-05
-2.06486e-05
1.93029e-05
-1.23798e-05
1.90513e-05
-2.27908e-06
1.87251e-05
4.99415e-06
1.83992e-05
1.03944e-05
1.83501e-05
1.86479e-05
1.82037e-05
2.72229e-05
1.76157e-05
3.08928e-05
1.6794e-05
2.94998e-05
1.60126e-05
2.60258e-05
1.54073e-05
2.19488e-05
1.50101e-05
1.73875e-05
1.47562e-05
1.31518e-05
1.45357e-05
9.80778e-06
1.43537e-05
7.87314e-06
1.41406e-05
6.33863e-06
1.40255e-05
5.7875e-06
1.38183e-05
4.3025e-06
1.38411e-05
4.46518e-06
1.36238e-05
2.12246e-06
1.38119e-05
3.78584e-06
1.35915e-05
-3.88951e-07
1.38264e-05
4.3964e-06
1.38112e-05
-3.47865e-06
1.37013e-05
6.5803e-06
1.42813e-05
-6.8166e-06
1.34211e-05
8.99949e-06
1.44926e-05
-8.76272e-06
1.33567e-05
9.29534e-06
1.41591e-05
-8.28327e-06
1.36052e-05
7.73924e-06
1.38266e-05
-6.50656e-06
1.37308e-05
6.35602e-06
1.39242e-05
-5.64161e-06
1.34964e-05
6.58756e-06
1.41703e-05
-6.55882e-06
1.32254e-05
7.76647e-06
1.41465e-05
-7.73707e-06
1.33062e-05
7.65312e-06
1.39217e-05
-6.5636e-06
1.34084e-05
6.65498e-06
1.40571e-05
-6.34783e-06
1.32213e-05
8.28225e-06
1.43486e-05
-8.31995e-06
1.34656e-05
8.63511e-06
1.42031e-05
-6.72848e-06
1.35807e-05
7.59729e-06
1.4689e-05
-6.98585e-06
1.34988e-05
9.68682e-06
1.48817e-05
-8.12752e-06
1.39622e-05
9.17552e-06
1.52319e-05
-6.23973e-06
1.40728e-05
1.0013e-05
1.59829e-05
-7.59692e-06
1.49437e-05
1.08128e-05
1.68612e-05
-5.49476e-06
1.58323e-05
1.12162e-05
1.85419e-05
-5.92404e-06
1.75705e-05
1.28715e-05
2.04691e-05
-3.35776e-06
1.93648e-05
1.42587e-05
2.28339e-05
-1.96659e-06
2.13848e-05
1.68908e-05
2.37175e-05
2.23434e-06
2.11587e-05
2.06063e-05
2.16013e-05
5.92499e-06
1.74385e-05
2.5317e-05
1.90218e-05
7.93584e-06
1.7411e-05
3.44879e-05
2.30302e-05
7.79939e-06
4.91513e-05
2.9037e-05
3.16172e-05
-2.1064e-06
3.1746e-05
-4.3736e-06
3.16658e-05
-5.44093e-06
3.12852e-05
-3.04127e-06
3.04299e-05
-3.87711e-06
2.9432e-05
-5.56399e-06
2.92646e-05
-4.41956e-06
2.94796e-05
-1.90016e-06
2.97882e-05
-8.44285e-07
3.08373e-05
1.18853e-06
3.25698e-05
4.86125e-06
3.42901e-05
3.30322e-06
3.52311e-05
-2.61692e-06
3.57501e-05
-7.12764e-06
3.62539e-05
-9.26855e-06
3.67329e-05
-1.27703e-05
3.6358e-05
-1.85201e-05
3.5189e-05
-2.33374e-05
3.36651e-05
-2.69321e-05
3.18275e-05
-2.88675e-05
3.05595e-05
-3.04895e-05
2.91964e-05
-3.33421e-05
2.61687e-05
-3.3893e-05
2.19437e-05
-3.0466e-05
1.86149e-05
-2.78151e-05
1.70398e-05
-2.84336e-05
1.65013e-05
-3.06326e-05
1.64237e-05
-3.11086e-05
1.65607e-05
-2.72381e-05
1.64128e-05
-2.05007e-05
1.59815e-05
-1.19484e-05
1.58195e-05
-2.11712e-06
1.58024e-05
5.0113e-06
1.5613e-05
1.05838e-05
1.54476e-05
1.88133e-05
1.53639e-05
2.73067e-05
1.51976e-05
3.1059e-05
1.48334e-05
2.9864e-05
1.43913e-05
2.64679e-05
1.41069e-05
2.22332e-05
1.39906e-05
1.75038e-05
1.39264e-05
1.3216e-05
1.38071e-05
9.92714e-06
1.37034e-05
7.97682e-06
1.35431e-05
6.49894e-06
1.35377e-05
5.79294e-06
1.33832e-05
4.45698e-06
1.35473e-05
4.30101e-06
1.33331e-05
2.33672e-06
1.36533e-05
3.46566e-06
1.3377e-05
-1.12646e-07
1.37202e-05
4.05312e-06
1.36123e-05
-3.37073e-06
1.36358e-05
6.55684e-06
1.40653e-05
-7.24618e-06
1.34175e-05
9.64729e-06
1.42833e-05
-9.62849e-06
1.34216e-05
1.0157e-05
1.39246e-05
-8.78627e-06
1.3699e-05
7.96486e-06
1.36334e-05
-6.44094e-06
1.37527e-05
6.23665e-06
1.38629e-05
-5.75172e-06
1.34746e-05
6.97581e-06
1.42041e-05
-7.28832e-06
1.34216e-05
8.54896e-06
1.415e-05
-8.46548e-06
1.37223e-05
8.08087e-06
1.41476e-05
-6.98892e-06
1.36831e-05
7.11951e-06
1.44579e-05
-7.12263e-06
1.35229e-05
9.21718e-06
1.45103e-05
-9.30737e-06
1.37828e-05
9.36266e-06
1.44109e-05
-7.35663e-06
1.37461e-05
8.26216e-06
1.49798e-05
-8.21955e-06
1.37124e-05
1.09542e-05
1.48533e-05
-9.26841e-06
1.41352e-05
9.89363e-06
1.538e-05
-7.48451e-06
1.41176e-05
1.12754e-05
1.56826e-05
-9.16192e-06
1.47919e-05
1.17034e-05
1.63831e-05
-7.08589e-06
1.52465e-05
1.23528e-05
1.72452e-05
-7.92277e-06
1.66076e-05
1.35091e-05
1.89739e-05
-5.72402e-06
1.84503e-05
1.47823e-05
2.16661e-05
-5.18235e-06
2.15594e-05
1.69975e-05
2.57366e-05
-1.94283e-06
2.46681e-05
2.16747e-05
2.94177e-05
1.17539e-06
2.57673e-05
2.89674e-05
2.87862e-05
4.91694e-06
2.39771e-05
3.9297e-05
2.28937e-05
8.88278e-06
4.34976e-05
2.85474e-05
3.25757e-05
-2.39439e-06
3.26903e-05
-4.48817e-06
3.22377e-05
-4.98835e-06
3.21413e-05
-2.94483e-06
3.16744e-05
-3.41023e-06
3.09677e-05
-4.85723e-06
3.09333e-05
-4.3852e-06
3.12395e-05
-2.20633e-06
3.15175e-05
-1.12232e-06
3.21595e-05
5.46524e-07
3.36194e-05
3.4014e-06
3.49241e-05
1.99853e-06
3.54596e-05
-3.15242e-06
3.57926e-05
-7.46074e-06
3.60632e-05
-9.53915e-06
3.61764e-05
-1.28835e-05
3.52641e-05
-1.76078e-05
3.39205e-05
-2.19939e-05
3.27272e-05
-2.57387e-05
3.13489e-05
-2.74893e-05
3.0067e-05
-2.92076e-05
2.77529e-05
-3.1028e-05
2.33925e-05
-2.95325e-05
1.85343e-05
-2.56078e-05
1.53714e-05
-2.46523e-05
1.40201e-05
-2.70823e-05
1.35166e-05
-3.01291e-05
1.32928e-05
-3.08849e-05
1.32118e-05
-2.71571e-05
1.29581e-05
-2.0247e-05
1.2569e-05
-1.15593e-05
1.25408e-05
-2.08885e-06
1.26119e-05
4.94021e-06
1.24186e-05
1.0777e-05
1.23035e-05
1.89285e-05
1.25113e-05
2.70988e-05
1.27426e-05
3.08278e-05
1.27724e-05
2.98342e-05
1.27371e-05
2.65032e-05
1.28083e-05
2.21621e-05
1.29562e-05
1.73559e-05
1.31028e-05
1.30694e-05
1.31403e-05
9.88959e-06
1.31638e-05
7.95334e-06
1.30715e-05
6.59129e-06
1.31491e-05
5.7153e-06
1.30177e-05
4.58835e-06
1.32704e-05
4.04837e-06
1.30688e-05
2.53826e-06
1.34653e-05
3.06922e-06
1.31992e-05
1.53422e-07
1.35914e-05
3.66097e-06
1.34341e-05
-3.21347e-06
1.35807e-05
6.41029e-06
1.38294e-05
-7.49489e-06
1.3439e-05
1.00377e-05
1.40854e-05
-1.02749e-05
1.34819e-05
1.07605e-05
1.37557e-05
-9.06005e-06
1.38296e-05
7.89099e-06
1.34612e-05
-6.07253e-06
1.38599e-05
5.83791e-06
1.38284e-05
-5.72019e-06
1.34582e-05
7.34598e-06
1.42292e-05
-8.05925e-06
1.33599e-05
9.41823e-06
1.39486e-05
-9.05417e-06
1.35218e-05
8.50771e-06
1.38049e-05
-7.27212e-06
1.32095e-05
7.71494e-06
1.40037e-05
-7.91678e-06
1.30983e-05
1.01225e-05
1.37854e-05
-9.99445e-06
1.32794e-05
9.86868e-06
1.38175e-05
-7.89478e-06
1.31008e-05
8.97889e-06
1.41987e-05
-9.31751e-06
1.31831e-05
1.19698e-05
1.4092e-05
-1.01773e-05
1.35328e-05
1.04528e-05
1.4657e-05
-8.6087e-06
1.33488e-05
1.25837e-05
1.48271e-05
-1.06402e-05
1.40826e-05
1.24479e-05
1.53768e-05
-8.38005e-06
1.39535e-05
1.37761e-05
1.57722e-05
-9.74146e-06
1.47777e-05
1.45036e-05
1.6414e-05
-7.3603e-06
1.47653e-05
1.6431e-05
1.69822e-05
-7.39926e-06
1.61112e-05
1.78685e-05
1.95004e-05
-5.33209e-06
1.83151e-05
2.28601e-05
2.34847e-05
-3.99415e-06
2.30051e-05
2.94469e-05
2.82639e-05
-3.41806e-07
2.90355e-05
3.85253e-05
2.71953e-05
1.0723e-05
4.08097e-05
2.98832e-05
3.37378e-05
-2.11203e-06
3.27918e-05
-3.54219e-06
3.18917e-05
-4.0883e-06
3.20752e-05
-3.12829e-06
3.20901e-05
-3.42512e-06
3.18666e-05
-4.63371e-06
3.17429e-05
-4.26154e-06
3.1822e-05
-2.28542e-06
3.18865e-05
-1.18684e-06
3.2199e-05
2.34001e-07
3.34727e-05
2.12772e-06
3.45287e-05
9.42533e-07
3.48611e-05
-3.48484e-06
3.48686e-05
-7.46824e-06
3.49794e-05
-9.64996e-06
3.50329e-05
-1.2937e-05
3.43227e-05
-1.68976e-05
3.3395e-05
-2.10661e-05
3.22959e-05
-2.46396e-05
3.09568e-05
-2.61501e-05
2.92842e-05
-2.7535e-05
2.58103e-05
-2.75541e-05
2.0292e-05
-2.40141e-05
1.52165e-05
-2.05323e-05
1.24268e-05
-2.18626e-05
1.1315e-05
-2.59705e-05
1.07531e-05
-2.95673e-05
1.01911e-05
-3.0323e-05
9.7917e-06
-2.67577e-05
9.40995e-06
-1.98653e-05
9.13853e-06
-1.12879e-05
9.27273e-06
-2.22305e-06
9.53242e-06
4.68052e-06
9.38012e-06
1.09293e-05
9.23855e-06
1.907e-05
9.57077e-06
2.67666e-05
1.01653e-05
3.02332e-05
1.06724e-05
2.93272e-05
1.10622e-05
2.61134e-05
1.15026e-05
2.17217e-05
1.19651e-05
1.68933e-05
1.22923e-05
1.27422e-05
1.23545e-05
9.82744e-06
1.23433e-05
7.9645e-06
1.22285e-05
6.70616e-06
1.23931e-05
5.55063e-06
1.2373e-05
4.60847e-06
1.28184e-05
3.60304e-06
1.27283e-05
2.62829e-06
1.3274e-05
2.52357e-06
1.30174e-05
4.09973e-07
1.35113e-05
3.16703e-06
1.32448e-05
-2.94693e-06
1.35542e-05
6.10086e-06
1.35918e-05
-7.53245e-06
1.34556e-05
1.01739e-05
1.38881e-05
-1.07074e-05
1.34999e-05
1.11487e-05
1.36044e-05
-9.16457e-06
1.38439e-05
7.65144e-06
1.32555e-05
-5.48413e-06
1.38541e-05
5.23937e-06
1.36154e-05
-5.48147e-06
1.3365e-05
7.59629e-06
1.40669e-05
-8.76112e-06
1.33032e-05
1.01819e-05
1.37154e-05
-9.46633e-06
1.35407e-05
8.68242e-06
1.36163e-05
-7.34777e-06
1.32976e-05
8.03366e-06
1.39257e-05
-8.54489e-06
1.33609e-05
1.06874e-05
1.3857e-05
-1.04906e-05
1.3548e-05
1.01777e-05
1.40191e-05
-8.36586e-06
1.3328e-05
9.66998e-06
1.42757e-05
-1.02652e-05
1.35662e-05
1.26793e-05
1.4244e-05
-1.08551e-05
1.35917e-05
1.11052e-05
1.47238e-05
-9.74083e-06
1.35324e-05
1.37751e-05
1.47199e-05
-1.18277e-05
1.40577e-05
1.311e-05
1.52826e-05
-9.60497e-06
1.38193e-05
1.52395e-05
1.55357e-05
-1.14579e-05
1.45951e-05
1.54443e-05
1.64588e-05
-9.22403e-06
1.45148e-05
1.8375e-05
1.68426e-05
-9.72707e-06
1.51286e-05
1.95825e-05
1.80323e-05
-8.2358e-06
1.56516e-05
2.52408e-05
1.88872e-05
-7.22976e-06
1.88863e-05
2.94478e-05
2.25937e-05
-4.04919e-06
2.64529e-05
3.46661e-05
2.79584e-05
9.21758e-06
3.76424e-05
3.11257e-05
3.33255e-05
-1.84548e-06
3.25666e-05
-2.78329e-06
3.22137e-05
-3.73535e-06
3.2483e-05
-3.39762e-06
3.27398e-05
-3.68193e-06
3.26849e-05
-4.57877e-06
3.19681e-05
-3.54471e-06
3.14928e-05
-1.8101e-06
3.14087e-05
-1.10275e-06
3.1892e-05
-2.49321e-07
3.31476e-05
8.7215e-07
3.40629e-05
2.7178e-08
3.42291e-05
-3.65099e-06
3.40834e-05
-7.32258e-06
3.41955e-05
-9.76208e-06
3.41678e-05
-1.29092e-05
3.38437e-05
-1.65735e-05
3.32769e-05
-2.04994e-05
3.19561e-05
-2.33188e-05
3.00648e-05
-2.42588e-05
2.74176e-05
-2.48879e-05
2.29025e-05
-2.3039e-05
1.69476e-05
-1.80593e-05
1.21294e-05
-1.57141e-05
9.65683e-06
-1.939e-05
8.50865e-06
-2.48223e-05
7.64358e-06
-2.87022e-05
6.77085e-06
-2.94502e-05
6.23233e-06
-2.62192e-05
5.85566e-06
-1.94886e-05
5.69498e-06
-1.11272e-05
5.91105e-06
-2.43912e-06
6.13955e-06
4.45202e-06
6.00361e-06
1.10653e-05
5.9969e-06
1.90768e-05
6.66946e-06
2.60941e-05
7.68196e-06
2.92207e-05
8.59012e-06
2.8419e-05
9.41562e-06
2.52879e-05
1.02752e-05
2.08622e-05
1.09766e-05
1.61919e-05
1.1373e-05
1.23458e-05
1.14843e-05
9.7161e-06
1.16516e-05
7.79724e-06
1.18071e-05
6.55066e-06
1.22822e-05
5.07553e-06
1.25016e-05
4.38902e-06
1.30779e-05
3.0268e-06
1.30313e-05
2.67485e-06
1.35337e-05
2.02121e-06
1.32062e-05
7.37475e-07
1.36464e-05
2.72677e-06
1.3256e-05
-2.55654e-06
1.36076e-05
5.74935e-06
1.34369e-05
-7.36174e-06
1.35212e-05
1.00896e-05
1.36744e-05
-1.08605e-05
1.35508e-05
1.12722e-05
1.35055e-05
-9.11929e-06
1.38403e-05
7.31661e-06
1.31657e-05
-4.8095e-06
1.39662e-05
4.43881e-06
1.33669e-05
-4.88212e-06
1.36387e-05
7.32451e-06
1.38832e-05
-9.00565e-06
1.35526e-05
1.05125e-05
1.36382e-05
-9.5519e-06
1.36716e-05
8.64898e-06
1.35363e-05
-7.21251e-06
1.33961e-05
8.1739e-06
1.38498e-05
-8.99862e-06
1.32891e-05
1.12481e-05
1.36085e-05
-1.081e-05
1.33278e-05
1.04584e-05
1.36163e-05
-8.65432e-06
1.31293e-05
1.01569e-05
1.38097e-05
-1.09456e-05
1.32676e-05
1.32214e-05
1.37184e-05
-1.1306e-05
1.32075e-05
1.16162e-05
1.4158e-05
-1.06914e-05
1.33147e-05
1.46184e-05
1.42056e-05
-1.27186e-05
1.35805e-05
1.37351e-05
1.47892e-05
-1.08137e-05
1.3522e-05
1.65067e-05
1.49563e-05
-1.28923e-05
1.40836e-05
1.6317e-05
1.57453e-05
-1.08857e-05
1.40077e-05
2.01126e-05
1.60341e-05
-1.17534e-05
1.49194e-05
2.06972e-05
1.7572e-05
-1.08884e-05
1.63624e-05
2.64504e-05
1.86068e-05
-9.47417e-06
1.85609e-05
2.94937e-05
1.97596e-05
-5.24797e-06
2.29707e-05
3.14551e-05
2.55336e-05
6.6547e-06
3.264e-05
3.05359e-05
3.31817e-05
-1.73315e-06
3.3365e-05
-2.96662e-06
3.33878e-05
-3.75811e-06
3.28451e-05
-2.85496e-06
3.2699e-05
-3.53585e-06
3.21768e-05
-4.05661e-06
3.10986e-05
-2.46642e-06
3.09778e-05
-1.68933e-06
3.17495e-05
-1.87444e-06
3.26084e-05
-1.10828e-06
3.30656e-05
4.14965e-07
3.33977e-05
-3.04885e-07
3.36956e-05
-3.94889e-06
3.37135e-05
-7.34046e-06
3.36469e-05
-9.69555e-06
3.3445e-05
-1.27073e-05
3.31138e-05
-1.62423e-05
3.22545e-05
-1.96401e-05
3.06784e-05
-2.17427e-05
2.85004e-05
-2.20808e-05
2.48239e-05
-2.12115e-05
1.93082e-05
-1.75233e-05
1.34807e-05
-1.22317e-05
9.38389e-06
-1.16173e-05
7.05846e-06
-1.70646e-05
5.5271e-06
-2.32909e-05
4.23579e-06
-2.74109e-05
3.11349e-06
-2.83279e-05
2.51599e-06
-2.56217e-05
2.22514e-06
-1.91977e-05
2.20009e-06
-1.11022e-05
2.50835e-06
-2.74738e-06
2.76696e-06
4.19342e-06
2.77374e-06
1.10585e-05
2.97208e-06
1.88784e-05
3.86114e-06
2.5205e-05
5.21089e-06
2.7871e-05
6.58236e-06
2.70475e-05
7.88416e-06
2.39861e-05
9.08153e-06
1.96648e-05
9.95225e-06
1.53212e-05
1.04779e-05
1.18201e-05
1.0774e-05
9.42003e-06
1.11411e-05
7.43011e-06
1.14532e-05
6.23854e-06
1.19497e-05
4.57903e-06
1.21487e-05
4.19006e-06
1.26342e-05
2.54127e-06
1.25724e-05
2.73665e-06
1.30827e-05
1.51094e-06
1.27984e-05
1.02175e-06
1.33575e-05
2.16771e-06
1.29484e-05