/*--------------------------------*- C++ -*----------------------------------*\
| =========                 |                                                 |
| \\      /  F ield         | OpenFOAM: The Open Source CFD Toolbox           |
|  \\    /   O peration     | Version:  2.4.0                                 |
|   \\  /    A nd           | Web:      www.OpenFOAM.org                      |
|    \\/     M anipulation  |                                                 |
\*---------------------------------------------------------------------------*/
FoamFile
{
    version     2.0;
    format      ascii;
    class       surfaceScalarField;
    location    "0.051";
    object      phi_0;
}
// * * * * * * * * * * * * * * * * * * * * * * * * * * * * * * * * * * * * * //

dimensions      [0 3 -1 0 0 0 0];

internalField   nonuniform List<scalar> 
8640
(
1.14669e-05
1.35331e-05
7.17941e-06
4.28753e-06
5.91402e-06
1.26539e-06
5.38104e-06
5.32976e-07
5.09711e-06
2.83929e-07
4.98162e-06
1.15487e-07
4.84815e-06
1.33474e-07
4.92615e-06
-7.79961e-08
4.72417e-06
2.0198e-07
-1.5641e-06
6.28827e-06
2.10599e-05
1.74732e-05
1.74568e-05
7.89063e-06
1.55035e-05
3.21873e-06
1.42769e-05
1.75952e-06
1.34944e-05
1.06647e-06
1.30952e-05
5.14688e-07
1.27254e-05
5.03201e-07
1.27456e-05
-9.81209e-08
1.26409e-05
3.06647e-07
-2.22935e-06
1.33061e-05
2.57207e-05
1.67525e-05
2.4114e-05
9.49736e-06
2.25967e-05
4.73606e-06
2.12606e-05
3.09558e-06
2.02319e-05
2.0952e-06
1.96433e-05
1.10326e-06
1.91225e-05
1.02397e-06
1.89845e-05
3.99407e-08
1.90598e-05
2.31273e-07
-2.97657e-06
1.9807e-05
2.74857e-05
1.42668e-05
2.77644e-05
9.2186e-06
2.73575e-05
5.14299e-06
2.65545e-05
3.89856e-06
2.56579e-05
2.9918e-06
2.50743e-05
1.68684e-06
2.45345e-05
1.56381e-06
2.42358e-05
3.3862e-07
2.44346e-05
3.25273e-08
-3.94047e-06
2.53985e-05
2.76791e-05
1.15877e-05
2.89654e-05
7.93223e-06
2.96056e-05
4.50278e-06
2.97241e-05
3.78013e-06
2.93859e-05
3.33003e-06
2.91117e-05
1.96097e-06
2.87424e-05
1.93309e-06
2.84024e-05
6.78604e-07
2.87475e-05
-3.12567e-07
-4.84478e-06
2.96519e-05
2.74846e-05
9.10307e-06
2.90246e-05
6.39225e-06
3.00284e-05
3.49903e-06
3.07528e-05
3.05571e-06
3.10739e-05
3.00896e-06
3.13785e-05
1.65636e-06
3.1388e-05
1.92358e-06
3.11908e-05
8.75761e-07
3.18178e-05
-9.39557e-07
-4.61016e-06
3.15832e-05
2.73127e-05
6.79039e-06
2.89521e-05
4.75284e-06
2.99427e-05
2.50839e-06
3.07238e-05
2.27465e-06
3.13153e-05
2.41743e-06
3.2028e-05
9.43684e-07
3.23722e-05
1.57939e-06
3.24837e-05
7.6423e-07
3.33946e-05
-1.8504e-06
-3.47678e-06
3.22612e-05
2.7244e-05
4.54638e-06
2.89999e-05
2.99698e-06
2.98075e-05
1.70072e-06
3.05556e-05
1.52661e-06
3.12637e-05
1.70929e-06
3.1984e-05
2.23371e-07
3.23606e-05
1.20283e-06
3.28983e-05
2.26536e-07
3.36982e-05
-2.65037e-06
-3.79488e-06
3.40163e-05
2.72354e-05
2.31095e-06
2.89282e-05
1.30416e-06
2.96574e-05
9.71543e-07
3.05038e-05
6.80259e-07
3.13142e-05
8.98827e-07
3.1779e-05
-2.4142e-07
3.22536e-05
7.28222e-07
3.30142e-05
-5.34065e-07
3.32725e-05
-2.90866e-06
-4.10497e-06
3.35826e-05
2.72213e-05
8.96466e-08
2.8901e-05
-3.75526e-07
2.96071e-05
2.65447e-07
3.0497e-05
-2.09646e-07
3.12759e-05
1.19879e-07
3.16712e-05
-6.36637e-07
3.23341e-05
6.52681e-08
3.28676e-05
-1.06757e-06
3.29501e-05
-2.99118e-06
-4.46436e-06
3.33095e-05
2.72344e-05
-2.14478e-06
2.89053e-05
-2.04637e-06
2.95943e-05
-4.23599e-07
3.04962e-05
-1.11153e-06
3.12682e-05
-6.52143e-07
3.17041e-05
-1.07254e-06
3.23292e-05
-5.59777e-07
3.27175e-05
-1.45594e-06
3.29798e-05
-3.25345e-06
-5.09699e-06
3.36124e-05
2.72764e-05
-4.42114e-06
2.89142e-05
-3.68424e-06
2.96532e-05
-1.16258e-06
3.05329e-05
-1.99118e-06
3.12847e-05
-1.40403e-06
3.17073e-05
-1.4951e-06
3.22857e-05
-1.13813e-06
3.27286e-05
-1.89888e-06
3.31545e-05
-3.67939e-06
-5.69601e-06
3.37535e-05
2.73486e-05
-6.76979e-06
2.89415e-05
-5.27704e-06
2.97671e-05
-1.98819e-06
3.05759e-05
-2.80004e-06
3.1281e-05
-2.10913e-06
3.16958e-05
-1.9099e-06
3.2301e-05
-1.74334e-06
3.27891e-05
-2.38693e-06
3.31301e-05
-4.02035e-06
-5.72352e-06
3.31576e-05
2.74347e-05
-9.20448e-06
2.88707e-05
-6.71309e-06
2.98926e-05
-3.01002e-06
3.06385e-05
-3.54592e-06
3.13127e-05
-2.78339e-06
3.17107e-05
-2.3079e-06
3.22199e-05
-2.25248e-06
3.25044e-05
-2.67149e-06
3.24738e-05
-3.98972e-06
-5.48688e-06
3.22372e-05
2.75288e-05
-1.17333e-05
2.88697e-05
-8.05399e-06
2.9997e-05
-4.13727e-06
3.06336e-05
-4.18253e-06
3.10562e-05
-3.20603e-06
3.11756e-05
-2.42722e-06
3.12295e-05
-2.30641e-06
3.10481e-05
-2.49012e-06
3.059e-05
-3.53162e-06
-4.91381e-06
3.00169e-05
2.76496e-05
-1.43829e-05
2.88397e-05
-9.24411e-06
2.96187e-05
-4.91626e-06
2.96312e-05
-4.19509e-06
2.93557e-05
-2.93047e-06
2.89713e-05
-2.04288e-06
2.85444e-05
-1.87944e-06
2.80111e-05
-1.95685e-06
2.72808e-05
-2.80137e-06
-3.88374e-06
2.62508e-05
2.74412e-05
-1.6824e-05
2.76941e-05
-9.4971e-06
2.73855e-05
-4.60763e-06
2.64829e-05
-3.29249e-06
2.56191e-05
-2.06671e-06
2.49374e-05
-1.36115e-06
2.43e-05
-1.24202e-06
2.36556e-05
-1.31247e-06
2.28117e-05
-1.9574e-06
-2.61872e-06
2.15466e-05
2.56792e-05
-1.75032e-05
2.40775e-05
-7.89547e-06
2.26241e-05
-3.15417e-06
2.11997e-05
-1.86815e-06
2.01868e-05
-1.05384e-06
1.94991e-05
-6.7336e-07
1.88822e-05
-6.25138e-07
1.82786e-05
-7.08894e-07
1.74315e-05
-1.11028e-06
-1.44642e-06
1.62592e-05
2.10359e-05
-1.35391e-05
1.7435e-05
-4.29457e-06
1.55234e-05
-1.2426e-06
1.42259e-05
-5.70682e-07
1.34526e-05
-2.80552e-07
1.29588e-05
-1.79519e-07
1.25107e-05
-1.77014e-07
1.20361e-05
-2.34333e-07
1.13125e-05
-3.86709e-07
-5.30386e-07
1.03965e-05
1.14609e-05
7.16638e-06
5.92378e-06
5.3531e-06
5.07255e-06
4.89303e-06
4.71601e-06
4.48168e-06
4.09497e-06
3.56459e-06
8.39908e-06
-7.67009e-07
-1.3438e-06
1.04283e-05
-1.79147e-06
-2.3779e-07
1.16341e-05
-3.50966e-06
2.30391e-06
1.1381e-05
-5.54902e-06
5.80214e-06
1.07314e-05
-8.87886e-06
9.52849e-06
9.6444e-06
-9.77625e-06
1.08632e-05
7.53554e-06
-6.90142e-06
9.01028e-06
6.35631e-06
-3.7262e-06
4.90543e-06
7.31153e-06
5.71924e-07
-1.52714e-06
1.1264e-05
1.00967e-05
-1.40492e-05
1.59509e-05
1.56362e-05
-2.03231e-05
1.88209e-05
1.26362e-05
-1.55063e-05
2.21477e-05
5.11806e-06
-8.44481e-06
2.472e-05
-9.96043e-07
-1.57623e-06
2.5934e-05
-4.13234e-06
2.91826e-06
2.62345e-05
-7.15369e-06
6.85321e-06
2.71082e-05
-1.47006e-05
1.3827e-05
2.78866e-05
-2.34498e-05
2.26713e-05
2.92182e-05
-2.87892e-05
2.74577e-05
3.16652e-05
-3.37816e-05
3.13346e-05
3.22763e-05
-3.67985e-05
3.61875e-05
3.10634e-05
-3.76013e-05
3.88142e-05
3.0938e-05
-3.84087e-05
3.85341e-05
3.15505e-05
-4.02442e-05
3.96317e-05
3.13444e-05
-4.14425e-05
4.16486e-05
3.02655e-05
-3.86266e-05
3.97056e-05
2.90504e-05
-3.54469e-05
3.66621e-05
2.84311e-05
-3.17072e-05
3.23265e-05
2.82788e-05
-2.54286e-05
2.55809e-05
2.83593e-05
-1.96873e-05
1.96067e-05
2.85422e-05
-1.22442e-05
1.20613e-05
2.83962e-05
-3.14413e-06
3.29014e-06
2.83398e-05
3.32646e-06
-3.27008e-06
2.85798e-05
1.01161e-05
-1.03561e-05
2.82563e-05
1.91486e-05
-1.88251e-05
2.68783e-05
2.54087e-05
-2.40307e-05
2.48981e-05
2.61245e-05
-2.41444e-05
2.302e-05
2.38006e-05
-2.19224e-05
2.14556e-05
2.09653e-05
-1.94009e-05
2.00487e-05
1.78168e-05
-1.64099e-05
1.87628e-05
1.40725e-05
-1.27866e-05
1.76927e-05
1.05888e-05
-9.51867e-06
1.68897e-05
7.86474e-06
-7.06178e-06
1.62806e-05
6.41368e-06
-5.80459e-06
1.58041e-05
5.07718e-06
-4.60067e-06
1.53571e-05
4.77206e-06
-4.32503e-06
1.50054e-05
3.24054e-06
-2.88889e-06
1.4631e-05
3.84596e-06
-3.47149e-06
1.44558e-05
1.28995e-06
-1.11477e-06
1.4161e-05
3.7262e-06
-3.43138e-06
1.42373e-05
-8.62987e-07
7.86607e-07
1.39473e-05
4.57237e-06
-4.28228e-06
1.43027e-05
-3.05872e-06
2.7033e-06
1.3921e-05
5.7572e-06
-5.3755e-06
1.4466e-05
-4.57028e-06
4.0253e-06
1.40458e-05
5.91652e-06
-5.49631e-06
1.46114e-05
-4.811e-06
4.24533e-06
1.4199e-05
4.80574e-06
-4.39336e-06
1.48644e-05
-4.34293e-06
3.6776e-06
1.4175e-05
3.9754e-06
-3.286e-06
1.51092e-05
-4.03526e-06
3.10104e-06
1.40733e-05
4.15121e-06
-3.11536e-06
1.50354e-05
-3.98937e-06
3.02735e-06
1.39804e-05
4.72313e-06
-3.66814e-06
1.48151e-05
-4.17536e-06
3.34064e-06
1.38455e-05
5.09557e-06
-4.12602e-06
1.46741e-05
-4.32093e-06
3.49237e-06
1.38755e-05
4.73489e-06
-3.93626e-06
1.46507e-05
-3.73416e-06
2.95891e-06
1.39715e-05
4.1991e-06
-3.51985e-06
1.48411e-05
-3.23096e-06
2.36134e-06
1.40237e-05
4.5556e-06
-3.73821e-06
1.50438e-05
-3.57385e-06
2.55375e-06
1.42077e-05
4.88128e-06
-4.0452e-06
1.52819e-05
-3.15084e-06
2.07662e-06
1.44461e-05
4.49988e-06
-3.66401e-06
1.55234e-05
-2.23344e-06
1.15615e-06
1.46327e-05
5.08286e-06
-4.19218e-06
1.58999e-05
-2.40387e-06
1.13661e-06
1.48772e-05
5.24286e-06
-4.22008e-06
1.60191e-05
-8.05279e-07
-3.36624e-07
1.50639e-05
5.22087e-06
-4.26568e-06
1.61639e-05
-1.42186e-07
-9.57859e-07
1.49558e-05
5.86738e-06
-4.6593e-06
1.57687e-05
1.57838e-06
-2.39118e-06
1.46382e-05
6.07278e-06
-4.94237e-06
1.52001e-05
2.60024e-06
-3.16213e-06
1.38686e-05
6.93473e-06
-5.60316e-06
1.41079e-05
4.41974e-06
-4.65904e-06
1.29338e-05
7.62818e-06
-6.45416e-06
1.37546e-05
5.43657e-06
-6.25729e-06
1.30847e-05
9.35033e-06
-8.68048e-06
1.45478e-05
7.38689e-06
-8.85003e-06
1.42805e-05
1.3086e-05
-1.28186e-05
1.48671e-05
1.15638e-05
-1.21504e-05
1.37642e-05
1.8816e-05
-1.77131e-05
1.57058e-05
1.64494e-05
-1.8391e-05
1.27505e-05
3.03794e-05
-2.74241e-05
1.29737e-05
2.90685e-05
-2.92917e-05
5.72297e-05
-5.57289e-05
1.14729e-05
1.44733e-05
-1.93417e-06
1.58537e-05
-3.17188e-06
1.67421e-05
-4.39808e-06
1.63953e-05
-5.20216e-06
1.55519e-05
-8.03552e-06
1.46232e-05
-8.84753e-06
1.33934e-05
-5.67164e-06
1.24274e-05
-2.76014e-06
1.24153e-05
5.83971e-07
1.5081e-05
7.43099e-06
1.84608e-05
1.22564e-05
2.10881e-05
1.00089e-05
2.39405e-05
2.2657e-06
2.60794e-05
-3.13493e-06
2.72816e-05
-5.33458e-06
2.82038e-05
-8.07585e-06
2.96917e-05
-1.61885e-05
3.08147e-05
-2.45728e-05
3.19735e-05
-2.9948e-05
3.30101e-05
-3.48182e-05
3.2286e-05
-3.60745e-05
3.07727e-05
-3.6088e-05
3.08526e-05
-3.84886e-05
3.12227e-05
-4.06143e-05
3.00011e-05
-4.02209e-05
2.82794e-05
-3.69049e-05
2.69848e-05
-3.41524e-05
2.64393e-05
-3.11617e-05
2.66245e-05
-2.56138e-05
2.68766e-05
-1.99394e-05
2.68866e-05
-1.22542e-05
2.65003e-05
-2.75784e-06
2.60921e-05
3.7346e-06
2.62324e-05
9.97585e-06
2.62565e-05
1.91246e-05
2.53184e-05
2.63468e-05
2.35873e-05
2.78556e-05
2.17817e-05
2.56062e-05
2.0244e-05
2.25029e-05
1.8974e-05
1.90868e-05
1.79291e-05
1.51174e-05
1.70859e-05
1.1432e-05
1.64311e-05
8.51953e-06
1.59183e-05
6.92639e-06
1.54997e-05
5.49583e-06
1.51206e-05
5.15113e-06
1.47974e-05
3.5638e-06
1.45031e-05
4.1402e-06
1.43068e-05
1.4863e-06
1.4131e-05
3.90198e-06
1.4107e-05
-8.38969e-07
1.39957e-05
4.6836e-06
1.41951e-05
-3.25811e-06
1.3957e-05
5.9953e-06
1.44366e-05
-5.04983e-06
1.38894e-05
6.46365e-06
1.46475e-05
-5.56903e-06
1.37605e-05
5.69269e-06
1.47553e-05
-5.33771e-06
1.35752e-05
5.15552e-06
1.45589e-05
-5.01898e-06
1.34184e-05
5.2917e-06
1.41659e-05
-4.73684e-06
1.32876e-05
5.6014e-06
1.39788e-05
-4.86652e-06
1.32561e-05
5.81826e-06
1.40085e-05
-5.07339e-06
1.34664e-05
5.27701e-06
1.40929e-05
-4.36067e-06
1.35595e-05
4.73257e-06
1.43792e-05
-4.05067e-06
1.34635e-05
5.47132e-06
1.46338e-05
-4.74415e-06
1.37502e-05
5.76481e-06
1.47044e-05
-4.10498e-06
1.3874e-05
5.33023e-06
1.50557e-05
-3.41507e-06
1.39318e-05
6.20668e-06
1.53373e-05
-3.80936e-06
1.43677e-05
6.21255e-06
1.56669e-05
-2.10453e-06
1.45148e-05
6.37298e-06
1.61567e-05
-1.78413e-06
1.49368e-05
7.08733e-06
1.63981e-05
1.17094e-07
1.51082e-05
7.36269e-06
1.65214e-05
1.18698e-06
1.49446e-05
8.51152e-06
1.59618e-05
3.40258e-06
1.43072e-05
9.28275e-06
1.50169e-05
4.72688e-06
1.35271e-05
1.08401e-05
1.4253e-05
6.66106e-06
1.36624e-05
1.36765e-05
1.56394e-05
9.58682e-06
1.35484e-05
2.0907e-05
1.48979e-05
1.50999e-05
1.49376e-05
3.03397e-05
1.96761e-05
2.433e-05
5.79336e-05
1.89721e-05
2.02925e-05
-2.4196e-06
2.09979e-05
-3.87728e-06
2.15499e-05
-4.95009e-06
2.09635e-05
-4.61575e-06
2.0057e-05
-7.12902e-06
1.94999e-05
-8.29044e-06
1.87249e-05
-4.89667e-06
1.8018e-05
-2.05327e-06
1.82693e-05
3.32705e-07
2.00043e-05
5.69597e-06
2.20048e-05
1.0256e-05
2.40778e-05
7.93586e-06
2.6056e-05
2.87493e-07
2.77392e-05
-4.81808e-06
2.90268e-05
-6.62225e-06
3.06719e-05
-9.72094e-06
3.2337e-05
-1.78536e-05
3.31359e-05
-2.53717e-05
3.34587e-05
-3.02708e-05
3.26947e-05
-3.40543e-05
3.11713e-05
-3.4551e-05
3.06323e-05
-3.5549e-05
3.10619e-05
-3.89183e-05
3.05088e-05
-4.00611e-05
2.80047e-05
-3.77169e-05
2.54871e-05
-3.43873e-05
2.43725e-05
-3.30378e-05
2.42438e-05
-3.1033e-05
2.45679e-05
-2.5938e-05
2.48707e-05
-2.02421e-05
2.48989e-05
-1.22825e-05
2.45266e-05
-2.38549e-06
2.39338e-05
4.3274e-06
2.38226e-05
1.00871e-05
2.38475e-05
1.90996e-05
2.31597e-05
2.70346e-05
2.1757e-05
2.92583e-05
2.02025e-05
2.71607e-05
1.88753e-05
2.38301e-05
1.78188e-05
2.01433e-05
1.69476e-05
1.59886e-05
1.62481e-05
1.21315e-05
1.5726e-05
9.04168e-06
1.5346e-05
7.30635e-06
1.50323e-05
5.80958e-06
1.4764e-05
5.41939e-06
1.45e-05
3.82784e-06
1.4309e-05
4.33117e-06
1.41133e-05
1.68196e-06
1.40532e-05
3.96213e-06
1.39658e-05
-7.5157e-07
1.39766e-05
4.67282e-06
1.41077e-05
-3.3892e-06
1.38946e-05
6.20834e-06
1.44413e-05
-5.59653e-06
1.36777e-05
7.22731e-06
1.46711e-05
-6.56246e-06
1.34597e-05
6.9041e-06
1.45861e-05
-6.46412e-06
1.33995e-05
6.34212e-06
1.42081e-05
-5.82758e-06
1.3473e-05
6.02684e-06
1.39734e-05
-5.23726e-06
1.35932e-05
5.98162e-06
1.41117e-05
-5.38502e-06
1.37504e-05
6.1795e-06
1.45343e-05
-5.85729e-06
1.39494e-05
5.8619e-06
1.47597e-05
-5.1709e-06
1.40823e-05
5.40994e-06
1.49135e-05
-4.8819e-06
1.39811e-05
6.40375e-06
1.51889e-05
-5.952e-06
1.41433e-05
6.81048e-06
1.52325e-05
-5.19417e-06
1.42945e-05
6.26822e-06
1.54808e-05
-4.6014e-06
1.43257e-05
7.36181e-06
1.58247e-05
-5.30843e-06
1.4647e-05
7.39027e-06
1.60805e-05
-3.53801e-06
1.47788e-05
7.67465e-06
1.66258e-05
-3.63111e-06
1.51652e-05
8.54793e-06
1.68999e-05
-1.6176e-06
1.54133e-05
8.84925e-06
1.73397e-05
-7.39416e-07
1.5693e-05
1.01582e-05
1.71727e-05
1.92293e-06
1.54689e-05
1.09865e-05
1.66606e-05
3.53519e-06
1.48471e-05
1.26536e-05
1.58144e-05
5.69369e-06
1.43635e-05
1.51275e-05
1.67542e-05
7.1961e-06
1.63966e-05
2.12646e-05
1.77584e-05
1.37381e-05
1.49488e-05
3.31493e-05
2.0591e-05
1.86878e-05
5.63429e-05
2.21817e-05
2.54896e-05
-2.51067e-06
2.58049e-05
-4.19266e-06
2.5984e-05
-5.12913e-06
2.52341e-05
-3.86591e-06
2.4122e-05
-6.01688e-06
2.33952e-05
-7.56361e-06
2.31039e-05
-4.60538e-06
2.27695e-05
-1.71884e-06
2.32669e-05
-1.64786e-07
2.49299e-05
4.03296e-06
2.66367e-05
8.54926e-06
2.8306e-05
6.26655e-06
2.96579e-05
-1.06441e-06
3.07438e-05
-5.90396e-06
3.18436e-05
-7.72207e-06
3.34385e-05
-1.13158e-05
3.44733e-05
-1.88885e-05
3.45416e-05
-2.54399e-05
3.41501e-05
-2.98793e-05
3.26597e-05
-3.25639e-05
3.11249e-05
-3.30162e-05
3.09114e-05
-3.53355e-05
3.05724e-05
-3.85792e-05
2.85352e-05
-3.8024e-05
2.5386e-05
-3.45677e-05
2.29467e-05
-3.1948e-05
2.1895e-05
-3.19862e-05
2.19458e-05
-3.10837e-05
2.23842e-05
-2.63764e-05
2.24624e-05
-2.03202e-05
2.23436e-05
-1.21637e-05
2.20373e-05
-2.07913e-06
2.15468e-05
4.81788e-06
2.12479e-05
1.0386e-05
2.1165e-05
1.91825e-05
2.07549e-05
2.74447e-05
1.97688e-05
3.02444e-05
1.85335e-05
2.8396e-05
1.74429e-05
2.49207e-05
1.65948e-05
2.09915e-05
1.59592e-05
1.66242e-05
1.55083e-05
1.25824e-05
1.51667e-05
9.38323e-06
1.49008e-05
7.57224e-06
1.46371e-05
6.07335e-06
1.44407e-05
5.61574e-06
1.41943e-05
4.07425e-06
1.41077e-05
4.41778e-06
1.38825e-05
1.90718e-06
1.39592e-05
3.8854e-06
1.37715e-05
-5.63834e-07
1.39242e-05
4.52011e-06
1.39454e-05
-3.4104e-06
1.37998e-05
6.35389e-06
1.43698e-05
-6.16654e-06
1.35072e-05
8.08994e-06
1.46287e-05
-7.68394e-06
1.33459e-05
8.18689e-06
1.4414e-05
-7.53217e-06
1.35211e-05
7.235e-06
1.4042e-05
-6.34848e-06
1.37767e-05
6.29213e-06
1.40065e-05
-5.46706e-06
1.38385e-05
6.14956e-06
1.43016e-05
-5.84804e-06
1.36781e-05
6.80292e-06
1.46325e-05
-6.81166e-06
1.36477e-05
6.84668e-06
1.44825e-05
-6.00566e-06
1.37499e-05
6.14256e-06
1.45214e-05
-5.65338e-06
1.35344e-05
7.39066e-06
1.47557e-05
-7.17324e-06
1.37642e-05
7.80192e-06
1.46279e-05
-6.05783e-06
1.39287e-05
6.96743e-06
1.51435e-05
-5.81619e-06
1.40414e-05
8.46392e-06
1.55019e-05
-6.769e-06
1.459e-05
8.30225e-06
1.60331e-05
-4.98113e-06
1.49014e-05
8.8063e-06
1.69257e-05
-5.65534e-06
1.56569e-05
9.81671e-06
1.76634e-05
-3.62413e-06
1.63642e-05
1.01485e-05
1.87942e-05
-3.16946e-06
1.70217e-05
1.19307e-05
1.94428e-05
-4.98164e-07
1.72952e-05
1.31341e-05
1.93029e-05
1.52744e-06
1.6518e-05
1.54386e-05
1.76454e-05
4.56623e-06
1.47207e-05
1.80522e-05
1.55586e-05
6.35823e-06
1.56664e-05
2.11568e-05
1.98708e-05
9.53372e-06
2.01288e-05
3.28913e-05
2.53774e-05
1.34393e-05
5.51765e-05
2.65438e-05
2.9331e-05
-2.18977e-06
2.94701e-05
-4.3318e-06
2.95342e-05
-5.19323e-06
2.88401e-05
-3.1718e-06
2.77653e-05
-4.94205e-06
2.68314e-05
-6.62975e-06
2.66228e-05
-4.39675e-06
2.65853e-05
-1.68139e-06
2.70148e-05
-5.94231e-07
2.85552e-05
2.49256e-06
3.04229e-05
6.68157e-06
3.21584e-05
4.53098e-06
3.32446e-05
-2.15055e-06
3.39038e-05
-6.56322e-06
3.47359e-05
-8.55417e-06
3.58482e-05
-1.2428e-05
3.61856e-05
-1.9226e-05
3.5487e-05
-2.47413e-05
3.41944e-05
-2.85867e-05
3.23921e-05
-3.07616e-05
3.12182e-05
-3.18423e-05
3.07409e-05
-3.48582e-05
2.90797e-05
-3.69179e-05
2.56114e-05
-3.45557e-05
2.21046e-05
-3.10609e-05
2.01965e-05
-3.00399e-05
1.94567e-05
-3.12463e-05
1.93968e-05
-3.10239e-05
1.97514e-05
-2.67309e-05
1.96939e-05
-2.02628e-05
1.93774e-05
-1.18472e-05
1.91149e-05
-1.8166e-06
1.87596e-05
5.17318e-06
1.84407e-05
1.07048e-05
1.83973e-05
1.9226e-05
1.82093e-05
2.76327e-05
1.75754e-05
3.08783e-05
1.67347e-05
2.92367e-05
1.595e-05
2.57054e-05
1.53541e-05
2.15874e-05
1.49692e-05
1.70091e-05
1.472e-05
1.28316e-05
1.45003e-05
9.60298e-06
1.43186e-05
7.75397e-06
1.41092e-05
6.28268e-06
1.3997e-05
5.72799e-06
1.37973e-05
4.27396e-06
1.38223e-05
4.39277e-06
1.36125e-05
2.11692e-06
1.38013e-05
3.69659e-06
1.35818e-05
-3.44301e-07
1.38245e-05
4.27743e-06
1.37926e-05
-3.37855e-06
1.37108e-05
6.43577e-06
1.42612e-05
-6.71701e-06
1.34312e-05
8.91998e-06
1.44981e-05
-8.75084e-06
1.335e-05
9.33497e-06
1.41801e-05
-8.36226e-06
1.35934e-05
7.82171e-06
1.38341e-05
-6.58921e-06
1.37335e-05
6.39278e-06
1.39155e-05
-5.64908e-06
1.3512e-05
6.55306e-06
1.41663e-05
-6.50239e-06
1.32306e-05
7.73867e-06
1.41572e-05
-7.73831e-06
1.3296e-05
7.7079e-06
1.39274e-05
-6.63706e-06
1.34082e-05
6.66175e-06
1.40424e-05
-6.28752e-06
1.32212e-05
8.21184e-06
1.43486e-05
-8.30062e-06
1.3446e-05
8.70449e-06
1.42001e-05
-6.8119e-06
1.35875e-05
7.58003e-06
1.46698e-05
-6.89857e-06
1.34884e-05
9.64539e-06
1.48909e-05
-8.17157e-06
1.39615e-05
9.23165e-06
1.52193e-05
-6.23884e-06
1.4073e-05
9.95255e-06
1.59863e-05
-7.56867e-06
1.49388e-05
1.08642e-05
1.68585e-05
-5.54384e-06
1.5837e-05
1.117e-05
1.85446e-05
-5.87713e-06
1.75671e-05
1.29083e-05
2.0467e-05
-3.3981e-06
1.93643e-05
1.42369e-05
2.28394e-05
-1.94764e-06
2.13821e-05
1.68959e-05
2.37025e-05
2.24587e-06
2.11357e-05
2.0619e-05
2.15771e-05
5.91689e-06
1.74197e-05
2.53141e-05
1.90082e-05
7.94517e-06
1.7407e-05
3.44925e-05
2.30342e-05
7.81214e-06
4.91775e-05
2.90331e-05
3.1577e-05
-2.18354e-06
3.17274e-05
-4.48228e-06
3.16487e-05
-5.11447e-06
3.12417e-05
-2.7648e-06
3.03665e-05
-4.06692e-06
2.9431e-05
-5.69421e-06
2.93321e-05
-4.29785e-06
2.95415e-05
-1.89074e-06
2.98474e-05
-9.00193e-07
3.09282e-05
1.41179e-06
3.26923e-05
4.91746e-06
3.43676e-05
2.85564e-06
3.52362e-05
-3.01908e-06
3.57473e-05
-7.07438e-06
3.62936e-05
-9.10048e-06
3.67703e-05
-1.29047e-05
3.63583e-05
-1.88139e-05
3.51618e-05
-2.35448e-05
3.35932e-05
-2.70181e-05
3.17608e-05
-2.89291e-05
3.05564e-05
-3.06379e-05
2.92144e-05
-3.35162e-05
2.61828e-05
-3.38864e-05
2.19808e-05
-3.03536e-05
1.87121e-05
-2.77922e-05
1.71767e-05
-2.85045e-05
1.66223e-05
-3.06919e-05
1.65432e-05
-3.09448e-05
1.66815e-05
-2.68693e-05
1.64956e-05
-2.00769e-05
1.60612e-05
-1.14127e-05
1.59079e-05
-1.66338e-06
1.58592e-05
5.22187e-06
1.56463e-05
1.09177e-05
1.54788e-05
1.93935e-05
1.5389e-05
2.77225e-05
1.52022e-05
3.1065e-05
1.48103e-05
2.96286e-05
1.43602e-05
2.61555e-05
1.40851e-05
2.18625e-05
1.39727e-05
1.71215e-05
1.39036e-05
1.29007e-05
1.37801e-05
9.72645e-06
1.36751e-05
7.85896e-06
1.35199e-05
6.43785e-06
1.35172e-05
5.73066e-06
1.33715e-05
4.41967e-06
1.35358e-05
4.22852e-06
1.33293e-05
2.32344e-06
1.36481e-05
3.37772e-06
1.33722e-05
-6.84018e-08
1.37217e-05
3.92793e-06
1.35973e-05
-3.25416e-06
1.36448e-05
6.38829e-06
1.40471e-05
-7.11931e-06
1.34257e-05
9.54133e-06
1.42893e-05
-9.61435e-06
1.34121e-05
1.02122e-05
1.39456e-05
-8.89577e-06
1.36879e-05
8.07943e-06
1.3636e-05
-6.53739e-06
1.37571e-05
6.27173e-06
1.38462e-05
-5.73824e-06
1.34844e-05
6.91489e-06
1.41976e-05
-7.21561e-06
1.34105e-05
8.52583e-06
1.41566e-05
-8.48443e-06
1.37131e-05
8.15138e-06
1.414e-05
-7.06391e-06
1.36916e-05
7.11014e-06
1.44487e-05
-7.04467e-06
1.35246e-05
9.13592e-06
1.45242e-05
-9.30021e-06
1.37745e-05
9.45424e-06
1.44083e-05
-7.44573e-06
1.37658e-05
8.22253e-06
1.4974e-05
-8.10673e-06
1.36998e-05
1.09196e-05
1.48725e-05
-9.34428e-06
1.41465e-05
9.95761e-06
1.5364e-05
-7.45633e-06
1.41078e-05
1.12088e-05
1.56955e-05
-9.1563e-06
1.47982e-05
1.17615e-05
1.63675e-05
-7.11316e-06
1.52317e-05
1.23058e-05
1.72489e-05
-7.89436e-06
1.66134e-05
1.35437e-05
1.89648e-05
-5.74945e-06
1.84338e-05
1.47678e-05
2.16701e-05
-5.18396e-06
2.15651e-05
1.7001e-05
2.57294e-05
-1.91852e-06
2.46653e-05
2.16832e-05
2.94238e-05
1.15836e-06
2.57677e-05
2.89702e-05
2.87767e-05
4.93614e-06
2.3968e-05
3.93012e-05
2.28921e-05
8.88798e-06
4.35202e-05
2.85495e-05
3.25356e-05
-2.45792e-06
3.2635e-05
-4.58174e-06
3.22429e-05
-4.72232e-06
3.21819e-05
-2.70378e-06
3.16769e-05
-3.56192e-06
3.10021e-05
-5.01945e-06
3.10184e-05
-4.31417e-06
3.12976e-05
-2.16994e-06
3.15381e-05
-1.14071e-06
3.22097e-05
7.40204e-07
3.36901e-05
3.43705e-06
3.49474e-05
1.59841e-06
3.54648e-05
-3.53652e-06
3.58281e-05
-7.43771e-06
3.61281e-05
-9.40049e-06
3.62007e-05
-1.29772e-05
3.52358e-05
-1.7849e-05
3.39111e-05
-2.22201e-05
3.2713e-05
-2.58199e-05
3.12986e-05
-2.75147e-05
2.99865e-05
-2.93258e-05
2.76212e-05
-3.11509e-05
2.32624e-05
-2.95277e-05
1.84904e-05
-2.55816e-05
1.54302e-05
-2.4732e-05
1.41131e-05
-2.71874e-05
1.35934e-05
-3.01721e-05
1.33834e-05
-3.07348e-05
1.33156e-05
-2.68014e-05
1.3042e-05
-1.98034e-05
1.26575e-05
-1.10282e-05
1.26411e-05
-1.64696e-06
1.2671e-05
5.19193e-06
1.24484e-05
1.11404e-05
1.23507e-05
1.94913e-05
1.25708e-05
2.75023e-05
1.27797e-05
3.0856e-05
1.27826e-05
2.96257e-05
1.27411e-05
2.6197e-05
1.28148e-05
2.17888e-05
1.29606e-05
1.69758e-05
1.30972e-05
1.27641e-05
1.31247e-05
9.69891e-06
1.31406e-05
7.84309e-06
1.30504e-05
6.52809e-06
1.31293e-05
5.65172e-06
1.30086e-05
4.54035e-06
1.32623e-05
3.97481e-06
1.30701e-05
2.51568e-06
1.34657e-05
2.98215e-06
1.31993e-05
1.9793e-07
1.35958e-05
3.53142e-06
1.34251e-05
-3.08338e-06
1.35878e-05
6.22556e-06
1.38132e-05
-7.34466e-06
1.34455e-05
9.90899e-06
1.40882e-05
-1.0257e-05
1.3471e-05
1.08293e-05
1.37773e-05
-9.20197e-06
1.38168e-05
8.03988e-06
1.34612e-05
-6.18178e-06
1.38698e-05
5.86315e-06
1.38058e-05
-5.67424e-06
1.34744e-05
7.24626e-06
1.42286e-05
-7.96981e-06
1.33543e-05
9.40017e-06
1.39682e-05
-9.0984e-06
1.3527e-05
8.5926e-06
1.3804e-05
-7.34091e-06
1.3228e-05
7.68611e-06
1.40093e-05
-7.8259e-06
1.30936e-05
1.00516e-05
1.38017e-05
-1.00083e-05
1.32818e-05
9.97417e-06
1.38117e-05
-7.9757e-06
1.31137e-05
8.92052e-06
1.41991e-05
-9.19205e-06
1.31688e-05
1.19498e-05
1.41041e-05
-1.02795e-05
1.35467e-05
1.0515e-05
1.46377e-05
-8.54731e-06
1.33416e-05
1.25049e-05
1.48573e-05
-1.06721e-05
1.40953e-05
1.25235e-05
1.53517e-05
-8.36958e-06
1.39455e-05
1.37121e-05
1.58017e-05
-9.75057e-06
1.47937e-05
1.45517e-05
1.63898e-05
-7.34554e-06
1.47498e-05
1.64079e-05
1.70195e-05
-7.45371e-06
1.6145e-05
1.78754e-05
1.94855e-05
-5.25894e-06
1.82976e-05
2.2871e-05
2.34968e-05
-4.0408e-06
2.30198e-05
2.94472e-05
2.82769e-05
-3.20935e-07
2.90431e-05
3.8535e-05
2.7195e-05
1.07361e-05
4.08304e-05
2.98848e-05
3.36893e-05
-2.13087e-06
3.26981e-05
-3.59059e-06
3.19129e-05
-3.93704e-06
3.21898e-05
-2.98076e-06
3.21675e-05
-3.53956e-06
3.19189e-05
-4.77084e-06
3.1791e-05
-4.1863e-06
3.18358e-05
-2.21477e-06
3.18648e-05
-1.16967e-06
3.22301e-05
3.74925e-07
3.35325e-05
2.13458e-06
3.45305e-05
6.00457e-07
3.484e-05
-3.84604e-06
3.4888e-05
-7.48569e-06
3.50479e-05
-9.5604e-06
3.50761e-05
-1.30055e-05
3.42971e-05
-1.70701e-05
3.3337e-05
-2.126e-05
3.22423e-05
-2.47252e-05
3.09134e-05
-2.61859e-05
2.91947e-05
-2.7607e-05
2.5619e-05
-2.75752e-05
2.00928e-05
-2.40014e-05
1.51372e-05
-2.06261e-05
1.24586e-05
-2.20534e-05
1.13747e-05
-2.61035e-05
1.08025e-05
-2.95999e-05
1.02557e-05
-3.01881e-05
9.87252e-06
-2.64182e-05
9.48858e-06
-1.94194e-05
9.23536e-06
-1.0775e-05
9.38246e-06
-1.79407e-06
9.59922e-06
4.97517e-06
9.41245e-06
1.13271e-05
9.2915e-06
1.96122e-05
9.64795e-06
2.71459e-05
1.02352e-05
3.02688e-05
1.07191e-05
2.91419e-05
1.10993e-05
2.58168e-05
1.15405e-05
2.13475e-05
1.19917e-05
1.65246e-05
1.22919e-05
1.24639e-05
1.23324e-05
9.65842e-06
1.23136e-05
7.86186e-06
1.22101e-05
6.63165e-06
1.23849e-05
5.47688e-06
1.23825e-05
4.54279e-06
1.28281e-05
3.52917e-06
1.27459e-05
2.59787e-06
1.32849e-05
2.44315e-06
1.3027e-05
4.55835e-07
1.35193e-05
3.03914e-06
1.32422e-05
-2.80627e-06
1.35616e-05
5.90614e-06
1.35774e-05
-7.36048e-06
1.34626e-05
1.00238e-05
1.38884e-05
-1.06829e-05
1.34906e-05
1.12271e-05
1.36256e-05
-9.33703e-06
1.3831e-05
7.83452e-06
1.32584e-05
-5.60918e-06
1.38667e-05
5.25485e-06
1.359e-05
-5.39748e-06
1.33813e-05
7.45487e-06
1.40666e-05
-8.65507e-06
1.32898e-05
1.0177e-05
1.37326e-05
-9.54121e-06
1.3538e-05
8.78714e-06
1.36055e-05
-7.40832e-06
1.3303e-05
7.98854e-06
1.3918e-05
-8.44092e-06
1.3343e-05
1.06266e-05
1.38595e-05
-1.05248e-05
1.35503e-05
1.02834e-05
1.40042e-05
-8.42957e-06
1.3326e-05
9.59865e-06
1.42761e-05
-1.01421e-05
1.35536e-05
1.26722e-05
1.42398e-05
-1.09657e-05
1.36005e-05
1.11542e-05
1.47103e-05
-9.65704e-06
1.35156e-05
1.36995e-05
1.47344e-05
-1.18908e-05
1.40624e-05
1.31955e-05
1.52525e-05
-9.55971e-06
1.38047e-05
1.51599e-05
1.55591e-05
-1.15049e-05
1.46071e-05
1.55038e-05
1.64267e-05
-9.16517e-06
1.44907e-05
1.83439e-05
1.68628e-05
-9.82585e-06
1.51494e-05
1.95888e-05
1.80165e-05
-8.12599e-06
1.5623e-05
2.52645e-05
1.88825e-05
-7.30033e-06
1.88961e-05
2.94336e-05
2.26113e-05
-4.03611e-06
2.6471e-05
3.46753e-05
2.79663e-05
9.2408e-06
3.7666e-05
3.11307e-05
3.32837e-05
-1.83197e-06
3.25393e-05
-2.84614e-06
3.22945e-05
-3.69224e-06
3.26244e-05
-3.31066e-06
3.28426e-05
-3.75781e-06
3.2681e-05
-4.60921e-06
3.19021e-05
-3.40737e-06
3.14465e-05
-1.75919e-06
3.14115e-05
-1.1347e-06
3.1977e-05
-1.905e-07
3.32331e-05
8.78459e-07
3.40581e-05
-2.24548e-07
3.41845e-05
-3.97246e-06
3.40833e-05
-7.38443e-06
3.42447e-05
-9.72186e-06
3.42252e-05
-1.29859e-05
3.38807e-05
-1.67255e-05
3.32534e-05
-2.06327e-05
3.18729e-05
-2.33447e-05
2.9972e-05
-2.4285e-05
2.73143e-05
-2.49493e-05
2.27257e-05
-2.29866e-05
1.6749e-05
-1.80248e-05
1.20341e-05
-1.59112e-05
9.6691e-06
-1.96884e-05
8.57416e-06
-2.50086e-05
7.72393e-06
-2.87497e-05
6.85545e-06
-2.93196e-05
6.31443e-06
-2.58772e-05
5.93561e-06
-1.90406e-05
5.79309e-06
-1.06325e-05
6.01321e-06
-2.0142e-06
6.19984e-06
4.78854e-06
6.03928e-06
1.14877e-05
6.06962e-06
1.95819e-05
6.77741e-06
2.64381e-05
7.78316e-06
2.9263e-05
8.67012e-06
2.8255e-05
9.49068e-06
2.49962e-05
1.03411e-05
2.04972e-05
1.10112e-05
1.58544e-05
1.13731e-05
1.21021e-05
1.14731e-05
9.55837e-06
1.16471e-05
7.68783e-06
1.18225e-05
6.45632e-06
1.23043e-05
4.99502e-06
1.2532e-05
4.31508e-06
1.30971e-05
2.96412e-06
1.30494e-05
2.64559e-06
1.35404e-05
1.95215e-06
1.32112e-05
7.84969e-07
1.3649e-05
2.60132e-06
1.32527e-05
-2.40996e-06
1.36108e-05
5.54804e-06
1.34252e-05
-7.17483e-06
1.35244e-05
9.92459e-06
1.36712e-05
-1.08297e-05
1.35432e-05
1.13551e-05
1.35212e-05
-9.31501e-06
1.38268e-05
7.52894e-06
1.31722e-05
-4.95458e-06
1.39709e-05
4.45612e-06
1.33451e-05
-4.77166e-06
1.36508e-05
7.14918e-06
1.38758e-05
-8.88005e-06
1.3545e-05
1.05077e-05
1.36563e-05
-9.65248e-06
1.36741e-05
8.76932e-06
1.3529e-05
-7.26323e-06
1.34099e-05
8.10762e-06
1.38496e-05
-8.88058e-06
1.32887e-05
1.11875e-05
1.36275e-05
-1.08636e-05
1.33377e-05
1.05732e-05
1.36133e-05
-8.70518e-06
1.31363e-05
1.00757e-05
1.38222e-05
-1.0828e-05
1.32691e-05
1.32253e-05
1.37233e-05
-1.14199e-05
1.32189e-05
1.16587e-05
1.41571e-05
-1.05952e-05
1.33078e-05
1.45488e-05
1.42178e-05
-1.28008e-05
1.35919e-05
1.38214e-05
1.47796e-05
-1.07474e-05
1.35163e-05
1.64233e-05
1.49763e-05
-1.29649e-05
1.40937e-05
1.63863e-05
1.57172e-05
-1.07887e-05
1.39848e-05
2.00763e-05
1.60442e-05
-1.18853e-05
1.49371e-05
2.0696e-05
1.75743e-05
-1.07632e-05
1.6345e-05
2.64938e-05
1.85965e-05
-9.55178e-06
1.85627e-05
2.94674e-05
1.97758e-05
-5.24924e-06
2.2989e-05
3.14621e-05
2.55472e-05
6.68259e-06
3.26683e-05
3.05449e-05
3.32464e-05
-1.76879e-06
3.34581e-05
-3.05792e-06
3.34159e-05
-3.65002e-06
3.2864e-05
-2.75879e-06
3.27174e-05
-3.61119e-06
3.2094e-05
-3.98583e-06
3.10352e-05
-2.34852e-06
3.10567e-05
-1.78068e-06
3.18836e-05
-1.96163e-06
3.26698e-05
-9.76739e-07
3.30412e-05
5.07076e-07
3.33728e-05
-5.56152e-07
3.3684e-05
-4.28359e-06
3.37091e-05
-7.40961e-06
3.3666e-05
-9.67874e-06
3.34881e-05
-1.2808e-05
3.31562e-05
-1.63937e-05
3.2267e-05
-1.97435e-05
3.06632e-05
-2.17409e-05
2.84276e-05
-2.20494e-05
2.4673e-05
-2.11948e-05
1.91191e-05
-1.74327e-05
1.33264e-05
-1.2232e-05
9.31227e-06
-1.18971e-05
7.05428e-06
-1.74304e-05
5.57184e-06
-2.35261e-05
4.30021e-06
-2.74781e-05
3.1832e-06
-2.82026e-05
2.59306e-06
-2.5287e-05
2.30525e-06
-1.87528e-05
2.29627e-06
-1.06235e-05
2.60505e-06
-2.32298e-06
2.82968e-06
4.56392e-06
2.8225e-06
1.14949e-05
3.05993e-06
1.93444e-05
3.9879e-06
2.55101e-05
5.3426e-06
2.79083e-05
6.70029e-06
2.68973e-05
7.99067e-06
2.37059e-05
9.16287e-06
1.93249e-05
9.99493e-06
1.50224e-05
1.04914e-05
1.16056e-05
1.07826e-05
9.26715e-06
1.1154e-05
7.31639e-06
1.14756e-05
6.13472e-06
1.19681e-05
4.50251e-06
1.21689e-05
4.11426e-06
1.26438e-05
2.4893e-06
1.25864e-05
2.70294e-06
1.3089e-05
1.44957e-06
1.28105e-05
1.06347e-06
1.33653e-05
2.04652e-06
1.29557e-05
-2.00031e-06
1.35044e-05