/*--------------------------------*- C++ -*----------------------------------*\
| =========                 |                                                 |
| \\      /  F ield         | OpenFOAM: The Open Source CFD Toolbox           |
|  \\    /   O peration     | Version:  2.4.0                                 |
|   \\  /    A nd           | Web:      www.OpenFOAM.org                      |
|    \\/     M anipulation  |                                                 |
\*---------------------------------------------------------------------------*/
FoamFile
{
    version     2.0;
    format      ascii;
    class       volVectorField;
    location    "0.051";
    object      UMean;
}
// * * * * * * * * * * * * * * * * * * * * * * * * * * * * * * * * * * * * * //

dimensions      [0 1 -1 0 0 0 0];

internalField   nonuniform List<vector> 
4400
(
(5.49487 0.307368 0)
(3.58879 0.0626819 0)
(2.8787 0.00170449 0)
(2.56295 -0.00247167 0)
(2.44275 -0.00158156 0)
(2.4049 -0.000747722 0)
(2.36436 -6.44547e-05 0)
(2.39343 -0.000616869 0)
(2.39026 -0.00249032 0)
(2.29017 -0.0408219 0)
(8.64852 0.819765 0)
(7.77932 0.32877 0)
(6.92218 0.107707 0)
(6.27929 0.0462677 0)
(5.94687 0.0173934 0)
(5.82066 0.00995547 0)
(5.68274 0.00270931 0)
(5.76393 0.000312112 0)
(5.56467 0.00624148 0)
(6.01818 -0.21831 0)
(9.75454 0.886634 0)
(10.1095 0.447308 0)
(9.652 0.193605 0)
(8.9968 0.110226 0)
(8.56635 0.0525891 0)
(8.37345 0.0310283 0)
(8.17532 0.00855867 0)
(8.24248 0.0122106 0)
(8.01862 -0.0258995 0)
(8.40695 -0.21865 0)
(9.94878 0.758709 0)
(11.1275 0.459786 0)
(11.2646 0.237352 0)
(10.8709 0.168113 0)
(10.5125 0.0933835 0)
(10.2987 0.0611437 0)
(10.1211 0.0195594 0)
(10.0966 0.0239614 0)
(10.0182 -0.0358435 0)
(10.0486 -0.21851 0)
(9.8858 0.609639 0)
(11.2995 0.400914 0)
(11.8839 0.218299 0)
(11.835 0.184386 0)
(11.7373 0.121762 0)
(11.5549 0.082371 0)
(11.531 0.041436 0)
(11.3799 0.0216433 0)
(11.4642 -0.0165901 0)
(11.328 -0.250515 0)
(9.87227 0.48492 0)
(11.2196 0.332166 0)
(11.9413 0.16647 0)
(12.0742 0.159545 0)
(12.2084 0.115058 0)
(12.177 0.0901923 0)
(12.2711 0.0413221 0)
(12.2045 0.0354003 0)
(12.2861 -0.0419687 0)
(12.2086 -0.197523 0)
(9.85979 0.373474 0)
(11.1755 0.265471 0)
(11.8728 0.122002 0)
(12.0767 0.120241 0)
(12.233 0.0928042 0)
(12.3403 0.0710818 0)
(12.4639 0.0411357 0)
(12.5413 0.0173149 0)
(12.6217 -0.0382374 0)
(12.6317 -0.174619 0)
(9.84476 0.25834 0)
(11.142 0.200981 0)
(11.8214 0.0777424 0)
(12.0496 0.092147 0)
(12.1959 0.0582743 0)
(12.3243 0.0591253 0)
(12.4622 0.0170171 0)
(12.572 0.0152364 0)
(12.675 -0.0651347 0)
(12.6861 -0.173951 0)
(9.83543 0.155365 0)
(11.1163 0.121064 0)
(11.7865 0.0458229 0)
(12.0335 0.0535554 0)
(12.1672 0.0359244 0)
(12.3022 0.0319605 0)
(12.4331 0.011036 0)
(12.5587 -0.0101224 0)
(12.6385 -0.0677398 0)
(12.6506 -0.198708 0)
(9.83512 0.0475646 0)
(11.1007 0.0469882 0)
(11.7722 0.00791487 0)
(12.0231 0.0247197 0)
(12.1557 0.00293364 0)
(12.2888 0.0163859 0)
(12.423 -0.00935367 0)
(12.5424 -0.0197418 0)
(12.6139 -0.0822327 0)
(12.6207 -0.209063 0)
(9.83737 -0.0544943 0)
(11.0987 -0.0336377 0)
(11.7725 -0.0226862 0)
(12.022 -0.0120031 0)
(12.1562 -0.0214225 0)
(12.2867 -0.00813506 0)
(12.4233 -0.0218734 0)
(12.5333 -0.034556 0)
(12.6068 -0.096635 0)
(12.5956 -0.21212 0)
(9.83922 -0.161275 0)
(11.1104 -0.109368 0)
(11.7862 -0.0581996 0)
(12.0302 -0.0436085 0)
(12.1654 -0.0509973 0)
(12.2965 -0.0280962 0)
(12.4302 -0.0375831 0)
(12.5381 -0.0495342 0)
(12.607 -0.107943 0)
(12.5827 -0.212623 0)
(9.84443 -0.266608 0)
(11.1303 -0.18652 0)
(11.818 -0.0928934 0)
(12.0412 -0.0778913 0)
(12.1919 -0.0777477 0)
(12.3114 -0.0487928 0)
(12.4547 -0.054018 0)
(12.5458 -0.0607045 0)
(12.6137 -0.119569 0)
(12.562 -0.212011 0)
(9.84838 -0.376404 0)
(11.1615 -0.257766 0)
(11.8697 -0.131259 0)
(12.0612 -0.112085 0)
(12.2374 -0.105169 0)
(12.317 -0.0693884 0)
(12.4659 -0.0688773 0)
(12.4919 -0.0723019 0)
(12.5463 -0.126713 0)
(12.4102 -0.208919 0)
(9.84571 -0.488814 0)
(11.2255 -0.324459 0)
(11.9287 -0.176129 0)
(12.0781 -0.149286 0)
(12.2018 -0.130301 0)
(12.1732 -0.0834654 0)
(12.2508 -0.0781793 0)
(12.1542 -0.0732795 0)
(12.1575 -0.124559 0)
(11.8963 -0.188761 0)
(9.8713 -0.610995 0)
(11.3051 -0.396636 0)
(11.8789 -0.224761 0)
(11.8343 -0.177079 0)
(11.7378 -0.133903 0)
(11.5397 -0.0790655 0)
(11.509 -0.0695432 0)
(11.303 -0.0614283 0)
(11.2752 -0.109844 0)
(10.901 -0.151805 0)
(9.9385 -0.75998 0)
(11.1305 -0.457097 0)
(11.2642 -0.241812 0)
(10.8594 -0.162417 0)
(10.5339 -0.104128 0)
(10.2405 -0.0557026 0)
(10.1546 -0.0490527 0)
(9.90865 -0.0432732 0)
(9.88056 -0.08708 0)
(9.41457 -0.104683 0)
(9.74745 -0.887174 0)
(10.1131 -0.445877 0)
(9.65034 -0.195941 0)
(8.98767 -0.107393 0)
(8.58545 -0.0586235 0)
(8.31049 -0.0293986 0)
(8.21878 -0.02757 0)
(7.99427 -0.0263391 0)
(7.96657 -0.0594645 0)
(7.45216 -0.0559755 0)
(8.64446 -0.820017 0)
(7.78165 -0.32815 0)
(6.92033 -0.108703 0)
(6.27419 -0.0452086 0)
(5.95691 -0.020057 0)
(5.77326 -0.0098609 0)
(5.70465 -0.010833 0)
(5.54383 -0.0127043 0)
(5.50303 -0.029362 0)
(5.04332 -0.0219177 0)
(5.49364 -0.307448 0)
(3.58938 -0.0625819 0)
(2.87793 -0.00187472 0)
(2.56104 0.00261834 0)
(2.44398 0.00135547 0)
(2.3848 0.000413689 0)
(2.35748 -0.000391385 0)
(2.2911 -0.00141361 0)
(2.24642 -0.00307055 0)
(2.01365 0.0122926 0)
(3.87261 -0.728652 0)
(4.40948 -0.588601 0)
(5.09939 -0.63217 0)
(5.39928 -0.721206 0)
(5.8967 -0.839309 0)
(6.19966 -0.808366 0)
(6.61488 -0.844336 0)
(7.12411 -0.913216 0)
(7.59302 -1.08104 0)
(7.94595 -1.30083 0)
(8.18087 -1.56071 0)
(8.27011 -1.85231 0)
(8.33726 -2.14134 0)
(8.36943 -2.39302 0)
(8.44909 -2.6105 0)
(8.52382 -2.78075 0)
(8.67884 -2.91316 0)
(8.77303 -2.96686 0)
(8.82264 -2.93888 0)
(8.8069 -2.85765 0)
(8.64951 -2.67463 0)
(8.42165 -2.41941 0)
(8.2554 -2.16313 0)
(8.1551 -1.91772 0)
(8.03441 -1.64106 0)
(7.86186 -1.32244 0)
(7.656 -0.990513 0)
(7.44482 -0.66294 0)
(7.23433 -0.359857 0)
(7.03105 -0.0915995 0)
(6.82988 0.138895 0)
(6.62399 0.316099 0)
(6.43169 0.439996 0)
(6.25662 0.518716 0)
(6.08583 0.545445 0)
(5.92702 0.521821 0)
(5.7962 0.468787 0)
(5.69455 0.407029 0)
(5.61455 0.344724 0)
(5.55019 0.285532 0)
(5.49965 0.233261 0)
(5.45924 0.19158 0)
(5.42876 0.15809 0)
(5.40189 0.132762 0)
(5.38395 0.108392 0)
(5.36272 0.0924661 0)
(5.35657 0.070189 0)
(5.33514 0.0660247 0)
(5.34549 0.0392097 0)
(5.31439 0.0549203 0)
(5.35026 0.00997437 0)
(5.29481 0.0608521 0)
(5.36973 -0.0236428 0)
(5.2735 0.084038 0)
(5.4015 -0.0630935 0)
(5.25173 0.118114 0)
(5.44234 -0.102823 0)
(5.23095 0.151359 0)
(5.49035 -0.136198 0)
(5.21345 0.178526 0)
(5.53957 -0.162709 0)
(5.20763 0.204353 0)
(5.5794 -0.18582 0)
(5.21769 0.234042 0)
(5.6084 -0.207786 0)
(5.23743 0.268442 0)
(5.63228 -0.228529 0)
(5.26283 0.304013 0)
(5.65633 -0.242694 0)
(5.29185 0.336113 0)
(5.68617 -0.244024 0)
(5.32505 0.367532 0)
(5.71635 -0.235185 0)
(5.36696 0.404476 0)
(5.73929 -0.21493 0)
(5.41462 0.44318 0)
(5.75031 -0.170471 0)
(5.46047 0.486207 0)
(5.74068 -0.106928 0)
(5.49356 0.54183 0)
(5.69744 -0.0192197 0)
(5.49851 0.600909 0)
(5.61669 0.0962911 0)
(5.44993 0.673661 0)
(5.49491 0.242959 0)
(5.34667 0.762317 0)
(5.36103 0.428638 0)
(5.20426 0.891162 0)
(5.27446 0.668928 0)
(5.10853 1.09118 0)
(5.31168 0.999309 0)
(5.16228 1.46395 0)
(5.41629 1.45617 0)
(5.27371 2.14265 0)
(5.31027 2.04463 0)
(5.04919 3.13021 0)
(5.78373 3.14532 0)
(4.87711 5.1181 0)
(5.84688 5.52546 0)
(3.43748 9.90677 0)
(6.12598 -0.764047 0)
(6.37855 -0.718575 0)
(6.6474 -0.778737 0)
(6.72439 -0.85741 0)
(6.9737 -0.981664 0)
(7.15908 -0.982248 0)
(7.43362 -1.01869 0)
(7.76162 -1.10136 0)
(8.06849 -1.24962 0)
(8.3151 -1.43644 0)
(8.50856 -1.65121 0)
(8.65018 -1.90792 0)
(8.78926 -2.17601 0)
(8.91939 -2.42687 0)
(9.06177 -2.64817 0)
(9.16709 -2.82105 0)
(9.26431 -2.94032 0)
(9.22975 -2.96483 0)
(9.15462 -2.91613 0)
(8.97934 -2.79654 0)
(8.71153 -2.5772 0)
(8.47906 -2.33672 0)
(8.34547 -2.11522 0)
(8.22838 -1.87246 0)
(8.03993 -1.57255 0)
(7.80273 -1.2323 0)
(7.55656 -0.893338 0)
(7.32946 -0.568709 0)
(7.11664 -0.268959 0)
(6.91274 -0.00335285 0)
(6.71093 0.223365 0)
(6.50735 0.39595 0)
(6.32071 0.513633 0)
(6.15512 0.587644 0)
(5.99381 0.610873 0)
(5.84207 0.580527 0)
(5.71812 0.516968 0)
(5.62505 0.444248 0)
(5.55524 0.373546 0)
(5.50189 0.308532 0)
(5.46175 0.2518 0)
(5.42969 0.206493 0)
(5.40574 0.170097 0)
(5.38354 0.142516 0)
(5.37 0.116234 0)
(5.3511 0.0987364 0)
(5.34899 0.0748362 0)
(5.32701 0.0695693 0)
(5.3432 0.0412298 0)
(5.3063 0.0566848 0)
(5.35418 0.00982017 0)
(5.28247 0.0620734 0)
(5.38328 -0.0262934 0)
(5.25175 0.0865542 0)
(5.42873 -0.0696186 0)
(5.21746 0.124618 0)
(5.48175 -0.115085 0)
(5.18823 0.164482 0)
(5.52943 -0.156366 0)
(5.17313 0.200632 0)
(5.56086 -0.192821 0)
(5.17528 0.236773 0)
(5.57615 -0.225711 0)
(5.18592 0.276052 0)
(5.5879 -0.256231 0)
(5.19661 0.319375 0)
(5.60631 -0.28619 0)
(5.20851 0.363764 0)
(5.63763 -0.310604 0)
(5.22035 0.405319 0)
(5.68842 -0.32475 0)
(5.23243 0.449237 0)
(5.75131 -0.332719 0)
(5.26056 0.498518 0)
(5.81822 -0.329744 0)
(5.30418 0.548758 0)
(5.89545 -0.302464 0)
(5.35823 0.603575 0)
(5.9678 -0.251575 0)
(5.42929 0.670387 0)
(6.01894 -0.16734 0)
(5.49806 0.746275 0)
(6.02587 -0.0418769 0)
(5.54401 0.839438 0)
(5.94944 0.118129 0)
(5.53058 0.954639 0)
(5.76012 0.311616 0)
(5.42594 1.10628 0)
(5.45672 0.520458 0)
(5.26754 1.32118 0)
(5.16583 0.765057 0)
(5.21624 1.68984 0)
(5.20709 1.16128 0)
(5.38553 2.37108 0)
(5.68505 1.97116 0)
(5.15062 3.44301 0)
(5.63877 2.85136 0)
(4.84142 5.23101 0)
(8.03445 4.757 0)
(5.5764 10.3705 0)
(8.30504 -0.6673 0)
(8.25682 -0.729922 0)
(8.40102 -0.818534 0)
(8.41326 -0.893058 0)
(8.48254 -1.00344 0)
(8.53802 -1.03264 0)
(8.63592 -1.07681 0)
(8.77933 -1.16951 0)
(8.91551 -1.30628 0)
(9.0374 -1.48016 0)
(9.16256 -1.69146 0)
(9.33185 -1.94791 0)
(9.49503 -2.21474 0)
(9.63669 -2.46538 0)
(9.72609 -2.67482 0)
(9.7505 -2.83275 0)
(9.69542 -2.92381 0)
(9.51977 -2.91988 0)
(9.3214 -2.84587 0)
(9.0233 -2.68986 0)
(8.73335 -2.46871 0)
(8.5494 -2.26998 0)
(8.41776 -2.06595 0)
(8.22637 -1.79907 0)
(7.94791 -1.46932 0)
(7.65446 -1.11934 0)
(7.38939 -0.787589 0)
(7.16209 -0.47202 0)
(6.95188 -0.179505 0)
(6.75037 0.081599 0)
(6.55239 0.304326 0)
(6.35692 0.472871 0)
(6.18101 0.584273 0)
(6.03045 0.65085 0)
(5.8872 0.668772 0)
(5.7506 0.632543 0)
(5.63762 0.559761 0)
(5.55344 0.476629 0)
(5.49241 0.396925 0)
(5.44794 0.325085 0)
(5.41629 0.263629 0)
(5.39208 0.215223 0)
(5.3755 0.176879 0)
(5.35938 0.148063 0)
(5.35164 0.120959 0)
(5.33628 0.102707 0)
(5.33912 0.0780906 0)
(5.31737 0.0719926 0)
(5.33967 0.0429631 0)
(5.29789 0.0576444 0)
(5.35662 0.0101661 0)
(5.27147 0.0620622 0)
(5.39264 -0.0276586 0)
(5.23553 0.0867308 0)
(5.44436 -0.0741431 0)
(5.19787 0.127126 0)
(5.49645 -0.124883 0)
(5.17397 0.171424 0)
(5.52921 -0.17356 0)
(5.1734 0.213671 0)
(5.53635 -0.218384 0)
(5.18887 0.256377 0)
(5.53315 -0.258663 0)
(5.20335 0.301642 0)
(5.53971 -0.295802 0)
(5.20872 0.350897 0)
(5.56391 -0.333043 0)
(5.21126 0.401859 0)
(5.60198 -0.365571 0)
(5.21764 0.45001 0)
(5.65279 -0.389017 0)
(5.22506 0.503003 0)
(5.71708 -0.412374 0)
(5.24371 0.56622 0)
(5.79099 -0.429432 0)
(5.27974 0.629052 0)
(5.88607 -0.424956 0)
(5.33178 0.698147 0)
(6.00312 -0.404455 0)
(5.41455 0.779601 0)
(6.13652 -0.346907 0)
(5.53003 0.867168 0)
(6.276 -0.241021 0)
(5.67229 0.984136 0)
(6.38473 -0.0797575 0)
(5.80873 1.12828 0)
(6.40978 0.14394 0)
(5.85615 1.31623 0)
(6.27242 0.406845 0)
(5.70718 1.53669 0)
(5.9517 0.684189 0)
(5.33688 1.82958 0)
(5.73419 1.00386 0)
(5.11428 2.34554 0)
(6.40272 1.61201 0)
(5.53644 3.63086 0)
(7.53292 2.69137 0)
(4.64159 5.65784 0)
(8.67672 4.05284 0)
(6.64382 10.3654 0)
(10.0797 -0.688654 0)
(9.87814 -0.795579 0)
(9.88108 -0.871797 0)
(9.88485 -0.918076 0)
(9.87297 -0.991602 0)
(9.8505 -1.04325 0)
(9.84262 -1.10224 0)
(9.86057 -1.20182 0)
(9.88583 -1.33218 0)
(9.94303 -1.50201 0)
(10.0331 -1.72399 0)
(10.1708 -1.9919 0)
(10.2565 -2.25573 0)
(10.2909 -2.488 0)
(10.2443 -2.66793 0)
(10.1314 -2.79716 0)
(9.92676 -2.85205 0)
(9.65306 -2.82249 0)
(9.3606 -2.72792 0)
(9.01377 -2.56425 0)
(8.77293 -2.38098 0)
(8.61507 -2.21732 0)
(8.41626 -1.99282 0)
(8.11484 -1.68434 0)
(7.75625 -1.33407 0)
(7.43689 -0.992848 0)
(7.17158 -0.679445 0)
(6.95033 -0.376869 0)
(6.74465 -0.091387 0)
(6.54688 0.164798 0)
(6.35635 0.38232 0)
(6.174 0.544758 0)
(6.01229 0.650058 0)
(5.87521 0.710311 0)
(5.75029 0.721981 0)
(5.63549 0.679287 0)
(5.54216 0.59879 0)
(5.47391 0.507081 0)
(5.42641 0.419653 0)
(5.39379 0.342088 0)
(5.37257 0.276521 0)
(5.35683 0.224905 0)
(5.34705 0.184181 0)
(5.3359 0.153482 0)
(5.33314 0.125174 0)
(5.32066 0.10551 0)
(5.32861 0.0804229 0)
(5.3066 0.0726824 0)
(5.33607 0.0443227 0)
(5.2879 0.0564732 0)
(5.35998 0.011438 0)
(5.25751 0.0593127 0)
(5.40397 -0.0265797 0)
(5.21369 0.0841232 0)
(5.4632 -0.0761301 0)
(5.16902 0.129501 0)
(5.51692 -0.135393 0)
(5.14566 0.184361 0)
(5.54211 -0.196472 0)
(5.15093 0.238312 0)
(5.54215 -0.251917 0)
(5.16671 0.289159 0)
(5.5457 -0.298549 0)
(5.17116 0.339376 0)
(5.57127 -0.340927 0)
(5.16161 0.394394 0)
(5.61235 -0.386723 0)
(5.15307 0.454158 0)
(5.65395 -0.431333 0)
(5.15148 0.511592 0)
(5.70365 -0.466743 0)
(5.14657 0.574732 0)
(5.7682 -0.504297 0)
(5.15049 0.650943 0)
(5.84332 -0.537221 0)
(5.16123 0.727804 0)
(5.95302 -0.551337 0)
(5.17607 0.815095 0)
(6.09968 -0.556702 0)
(5.21821 0.916467 0)
(6.2942 -0.533707 0)
(5.28983 1.02381 0)
(6.54967 -0.468781 0)
(5.41775 1.15486 0)
(6.85731 -0.347159 0)
(5.61097 1.31018 0)
(7.18427 -0.135217 0)
(5.83833 1.52646 0)
(7.41794 0.174953 0)
(5.99211 1.82805 0)
(7.35719 0.560772 0)
(5.82419 2.22553 0)
(6.77771 0.89065 0)
(5.17102 2.79398 0)
(6.20189 1.00731 0)
(4.87249 3.72879 0)
(8.37435 2.00981 0)
(5.54876 5.60402 0)
(10.9377 2.87927 0)
(7.9986 9.75855 0)
(11.3692 -0.574976 0)
(11.2443 -0.67716 0)
(11.1163 -0.79603 0)
(11.0324 -0.881115 0)
(10.9559 -0.95884 0)
(10.8809 -1.02734 0)
(10.8222 -1.09666 0)
(10.7748 -1.19571 0)
(10.7599 -1.33207 0)
(10.7928 -1.51454 0)
(10.8441 -1.74654 0)
(10.8823 -2.00997 0)
(10.8384 -2.25197 0)
(10.7333 -2.45235 0)
(10.5537 -2.60197 0)
(10.3189 -2.70395 0)
(10.0123 -2.73666 0)
(9.67627 -2.7016 0)
(9.33392 -2.60614 0)
(9.01996 -2.46148 0)
(8.83471 -2.31286 0)
(8.62152 -2.13818 0)
(8.29853 -1.86334 0)
(7.88703 -1.52426 0)
(7.48128 -1.18066 0)
(7.16858 -0.86548 0)
(6.91356 -0.575545 0)
(6.69771 -0.286354 0)
(6.49864 -0.00754593 0)
(6.30908 0.244296 0)
(6.13054 0.455801 0)
(5.96742 0.609566 0)
(5.82951 0.70556 0)
(5.71217 0.758401 0)
(5.60563 0.764047 0)
(5.51023 0.715167 0)
(5.43524 0.627 0)
(5.38333 0.526793 0)
(5.3498 0.432269 0)
(5.32941 0.349699 0)
(5.31907 0.281004 0)
(5.31256 0.2277 0)
(5.31074 0.186379 0)
(5.30615 0.155256 0)
(5.30971 0.127067 0)
(5.30165 0.106726 0)
(5.31523 0.0822306 0)
(5.29465 0.072794 0)
(5.33024 0.0462965 0)
(5.27904 0.0547853 0)
(5.35965 0.0141287 0)
(5.24841 0.0554214 0)
(5.40725 -0.0233878 0)
(5.20286 0.079106 0)
(5.46702 -0.075066 0)
(5.15869 0.127311 0)
(5.51563 -0.140751 0)
(5.14148 0.188799 0)
(5.53053 -0.209425 0)
(5.15394 0.248674 0)
(5.52376 -0.269581 0)
(5.17004 0.302315 0)
(5.52823 -0.319413 0)
(5.16957 0.354865 0)
(5.55301 -0.367809 0)
(5.16045 0.41519 0)
(5.58069 -0.424588 0)
(5.15859 0.483601 0)
(5.60372 -0.482217 0)
(5.16052 0.549032 0)
(5.63869 -0.528352 0)
(5.15497 0.619383 0)
(5.69039 -0.579803 0)
(5.15513 0.706189 0)
(5.75144 -0.630232 0)
(5.16054 0.791679 0)
(5.84532 -0.661207 0)
(5.16062 0.890501 0)
(5.97439 -0.692761 0)
(5.18009 1.00955 0)
(6.15189 -0.70186 0)
(5.21406 1.13814 0)
(6.41334 -0.68706 0)
(5.29298 1.29867 0)
(6.78897 -0.640963 0)
(5.44883 1.47563 0)
(7.33891 -0.529528 0)
(5.73762 1.70228 0)
(8.08631 -0.313574 0)
(6.16776 1.99939 0)
(8.98253 0.0771128 0)
(6.54889 2.44422 0)
(9.78375 0.666673 0)
(6.27999 3.11521 0)
(10.0146 1.36583 0)
(4.6714 3.99257 0)
(9.8104 1.76663 0)
(4.49542 6.07912 0)
(10.4027 1.61944 0)
(8.86524 9.02805 0)
(12.1954 -0.538944 0)
(12.1074 -0.703104 0)
(11.9667 -0.819567 0)
(11.8526 -0.901605 0)
(11.7479 -0.960424 0)
(11.6368 -1.01062 0)
(11.5464 -1.07527 0)
(11.4716 -1.1756 0)
(11.4389 -1.32612 0)
(11.4238 -1.5162 0)
(11.3919 -1.74012 0)
(11.3076 -1.97965 0)
(11.1484 -2.19321 0)
(10.9337 -2.36627 0)
(10.658 -2.49609 0)
(10.3401 -2.58379 0)
(9.98399 -2.61129 0)
(9.63564 -2.57644 0)
(9.31947 -2.4862 0)
(9.0661 -2.36254 0)
(8.84905 -2.21764 0)
(8.49642 -1.99918 0)
(8.04212 -1.67985 0)
(7.55953 -1.33983 0)
(7.15393 -1.02633 0)
(6.86655 -0.745796 0)
(6.61991 -0.476701 0)
(6.41153 -0.197986 0)
(6.22005 0.0732594 0)
(6.04291 0.31927 0)
(5.88014 0.523322 0)
(5.73563 0.669561 0)
(5.62321 0.757202 0)
(5.53356 0.800819 0)
(5.45256 0.799546 0)
(5.38253 0.745103 0)
(5.33121 0.650786 0)
(5.29835 0.544056 0)
(5.2798 0.443168 0)
(5.27174 0.355279 0)
(5.27119 0.283155 0)
(5.27221 0.227864 0)
(5.27673 0.185524 0)
(5.27752 0.153425 0)
(5.28687 0.125125 0)
(5.28275 0.103761 0)
(5.30226 0.0803687 0)
(5.28234 0.0689834 0)
(5.32508 0.0458003 0)
(5.26899 0.0499039 0)
(5.36057 0.0160175 0)
(5.23683 0.0490906 0)
(5.41282 -0.0195089 0)
(5.18774 0.0725152 0)
(5.47513 -0.0727744 0)
(5.14032 0.125495 0)
(5.52307 -0.1458 0)
(5.12243 0.197211 0)
(5.53458 -0.223264 0)
(5.13552 0.265796 0)
(5.52574 -0.288085 0)
(5.14814 0.322944 0)
(5.53246 -0.340844 0)
(5.13969 0.378615 0)
(5.55972 -0.396408 0)
(5.12493 0.446266 0)
(5.58684 -0.464463 0)
(5.11821 0.523021 0)
(5.61567 -0.531985 0)
(5.10834 0.595979 0)
(5.66209 -0.588755 0)
(5.09272 0.677557 0)
(5.71816 -0.65701 0)
(5.08299 0.778308 0)
(5.7833 -0.723486 0)
(5.07081 0.874497 0)
(5.88222 -0.771776 0)
(5.05342 0.988314 0)
(6.0059 -0.825545 0)
(5.04694 1.12011 0)
(6.17577 -0.854675 0)
(5.03096 1.26658 0)
(6.41854 -0.863893 0)
(5.02224 1.4524 0)
(6.77225 -0.841248 0)
(5.00568 1.67018 0)
(7.32942 -0.774632 0)
(5.00968 1.93812 0)
(8.23054 -0.652738 0)
(5.08459 2.23968 0)
(9.65383 -0.411502 0)
(5.3898 2.63943 0)
(11.5907 0.0440065 0)
(5.95808 3.22567 0)
(13.4253 0.690169 0)
(6.50243 4.2702 0)
(13.4498 1.11162 0)
(7.12126 6.21825 0)
(10.6776 1.27282 0)
(8.90152 8.28376 0)
(12.562 -0.529818 0)
(12.4942 -0.681287 0)
(12.4032 -0.75072 0)
(12.3095 -0.809148 0)
(12.1824 -0.865195 0)
(12.0486 -0.925873 0)
(11.9448 -1.01333 0)
(11.8633 -1.13674 0)
(11.7991 -1.30079 0)
(11.7185 -1.48759 0)
(11.6031 -1.69387 0)
(11.4303 -1.90683 0)
(11.1995 -2.09864 0)
(10.9245 -2.25575 0)
(10.6032 -2.37581 0)
(10.2682 -2.4578 0)
(9.92903 -2.48123 0)
(9.62531 -2.4482 0)
(9.34902 -2.3711 0)
(9.07131 -2.25524 0)
(8.71792 -2.07954 0)
(8.20913 -1.80544 0)
(7.66789 -1.46434 0)
(7.16698 -1.15395 0)
(6.79215 -0.884526 0)
(6.53167 -0.636462 0)
(6.29252 -0.384668 0)
(6.09768 -0.116081 0)
(5.91917 0.149036 0)
(5.76118 0.387381 0)
(5.62343 0.57833 0)
(5.50333 0.713223 0)
(5.41058 0.794887 0)
(5.34383 0.832443 0)
(5.28982 0.822579 0)
(5.24739 0.760992 0)
(5.22046 0.66177 0)
(5.20799 0.550682 0)
(5.20645 0.446148 0)
(5.21195 0.356331 0)
(5.22215 0.283853 0)
(5.23188 0.228596 0)
(5.24395 0.186508 0)
(5.25077 0.153948 0)
(5.2659 0.126102 0)
(5.26549 0.103517 0)
(5.29 0.081875 0)
(5.27128 0.0675023 0)
(5.31912 0.0487061 0)
(5.26143 0.0462307 0)
(5.35825 0.0210897 0)
(5.23125 0.0424789 0)
(5.4105 -0.0123598 0)
(5.1845 0.0636107 0)
(5.46861 -0.0656033 0)
(5.14045 0.117191 0)
(5.51019 -0.141731 0)
(5.12586 0.192991 0)
(5.51632 -0.222612 0)
(5.1418 0.264333 0)
(5.50467 -0.28745 0)
(5.15454 0.321149 0)
(5.51285 -0.339741 0)
(5.14292 0.37887 0)
(5.54201 -0.400412 0)
(5.12855 0.454186 0)
(5.56475 -0.478013 0)
(5.12516 0.538655 0)
(5.58525 -0.55373 0)
(5.1152 0.617101 0)
(5.61951 -0.621193 0)
(5.10173 0.705861 0)
(5.65683 -0.704926 0)
(5.09381 0.814509 0)
(5.70708 -0.787691 0)
(5.07695 0.917797 0)
(5.7863 -0.85461 0)
(5.05755 1.04259 0)
(5.88514 -0.934601 0)
(5.04567 1.18579 0)
(6.02468 -0.9866 0)
(5.022 1.33689 0)
(6.21197 -1.0247 0)
(5.00816 1.52244 0)
(6.45192 -1.02742 0)
(4.96798 1.73309 0)
(6.77097 -0.982214 0)
(4.89788 2.00932 0)
(7.18814 -0.888119 0)
(4.74945 2.3835 0)
(7.80045 -0.734069 0)
(4.63594 2.91972 0)
(8.79469 -0.481639 0)
(5.00061 3.62555 0)
(10.2899 -0.0928355 0)
(6.50838 4.70333 0)
(11.7546 0.363323 0)
(8.54591 6.37444 0)
(12.2312 1.60913 0)
(9.63277 7.38035 0)
(12.5885 -0.4666 0)
(12.5387 -0.622673 0)
(12.4833 -0.720235 0)
(12.3948 -0.790448 0)
(12.2639 -0.857269 0)
(12.1408 -0.931151 0)
(12.039 -1.02469 0)
(11.9411 -1.14483 0)
(11.8346 -1.29129 0)
(11.6996 -1.45433 0)
(11.5368 -1.63438 0)
(11.3249 -1.8218 0)
(11.0792 -1.99808 0)
(10.8031 -2.14538 0)
(10.5077 -2.26002 0)
(10.2145 -2.33488 0)
(9.92174 -2.35381 0)
(9.64113 -2.32834 0)
(9.31845 -2.2514 0)
(8.92354 -2.1045 0)
(8.40999 -1.87167 0)
(7.79074 -1.55613 0)
(7.2196 -1.23216 0)
(6.73291 -0.978074 0)
(6.3963 -0.754452 0)
(6.15526 -0.531761 0)
(5.92503 -0.296665 0)
(5.74855 -0.0390028 0)
(5.58781 0.218545 0)
(5.45208 0.449514 0)
(5.34226 0.629831 0)
(5.26027 0.75114 0)
(5.20042 0.820498 0)
(5.1624 0.851365 0)
(5.13792 0.836296 0)
(5.12552 0.769163 0)
(5.12579 0.664764 0)
(5.13494 0.549205 0)
(5.14919 0.440884 0)
(5.16597 0.34786 0)
(5.18382 0.273224 0)
(5.19844 0.21681 0)
(5.21394 0.17467 0)
(5.2243 0.142007 0)
(5.24359 0.115451 0)
(5.24776 0.0925385 0)
(5.27696 0.0740539 0)
(5.26189 0.0577319 0)
(5.31273 0.0451151 0)
(5.25709 0.0371028 0)
(5.35427 0.0223879 0)
(5.22958 0.0330812 0)
(5.40564 -0.00698804 0)
(5.18459 0.0539017 0)
(5.46119 -0.0589057 0)
(5.14062 0.109623 0)
(5.5015 -0.138465 0)
(5.12319 0.191627 0)
(5.50926 -0.224681 0)
(5.13493 0.267365 0)
(5.49982 -0.289911 0)
(5.14333 0.32337 0)
(5.50884 -0.340888 0)
(5.12699 0.383495 0)
(5.53656 -0.407553 0)
(5.10996 0.467559 0)
(5.55417 -0.494826 0)
(5.10623 0.558691 0)
(5.56932 -0.577238 0)
(5.09343 0.642704 0)
(5.59973 -0.654426 0)
(5.07425 0.742699 0)
(5.63644 -0.750661 0)
(5.05852 0.862368 0)
(5.68924 -0.843738 0)
(5.0321 0.976853 0)
(5.76635 -0.929235 0)
(5.00458 1.11596 0)
(5.86312 -1.03221 0)
(4.97696 1.27072 0)
(6.00027 -1.10984 0)
(4.94202 1.43819 0)
(6.17846 -1.18362 0)
(4.91773 1.6374 0)
(6.41234 -1.21837 0)
(4.88903 1.84851 0)
(6.70879 -1.21795 0)
(4.89092 2.10173 0)
(7.0428 -1.16311 0)
(4.93808 2.42304 0)
(7.34622 -1.06412 0)
(5.11452 2.90826 0)
(7.49481 -0.950018 0)
(5.52564 3.72239 0)
(7.61693 -0.888731 0)
(6.45877 5.05365 0)
(8.84906 -0.432147 0)
(8.0187 6.4124 0)
(11.4693 1.59388 0)
(10.2832 6.72155 0)
(12.5473 -0.439473 0)
(12.5025 -0.564567 0)
(12.4719 -0.651594 0)
(12.3991 -0.714498 0)
(12.2878 -0.780777 0)
(12.1614 -0.856623 0)
(12.0259 -0.948852 0)
(11.8875 -1.06427 0)
(11.7414 -1.20181 0)
(11.5854 -1.35896 0)
(11.4157 -1.53261 0)
(11.217 -1.71363 0)
(11.0029 -1.88565 0)
(10.7658 -2.02911 0)
(10.5121 -2.14074 0)
(10.2368 -2.20844 0)
(9.93562 -2.22616 0)
(9.58704 -2.19247 0)
(9.14236 -2.07809 0)
(8.60229 -1.8778 0)
(7.9536 -1.60284 0)
(7.28303 -1.28662 0)
(6.71983 -1.01512 0)
(6.2615 -0.823962 0)
(5.96088 -0.635774 0)
(5.7314 -0.434577 0)
(5.51122 -0.214438 0)
(5.35737 0.0327689 0)
(5.2218 0.276508 0)
(5.11608 0.493856 0)
(5.0278 0.663575 0)
(4.97458 0.779474 0)
(4.94643 0.840853 0)
(4.94294 0.861217 0)
(4.95653 0.83788 0)
(4.98256 0.766607 0)
(5.01701 0.661945 0)
(5.05475 0.547312 0)
(5.09267 0.439587 0)
(5.12795 0.347612 0)
(5.15914 0.275027 0)
(5.18368 0.220244 0)
(5.20786 0.178924 0)
(5.22561 0.145162 0)
(5.25095 0.11852 0)
(5.25846 0.0932977 0)
(5.2882 0.0767445 0)
(5.27329 0.0566962 0)
(5.31916 0.0492854 0)
(5.2664 0.0337695 0)
(5.35264 0.0290256 0)
(5.23968 0.0263033 0)
(5.39528 0.00255371 0)
(5.19922 0.0434153 0)
(5.4415 -0.0471365 0)
(5.16047 0.0967357 0)
(5.47417 -0.126627 0)
(5.14448 0.178665 0)
(5.47946 -0.212856 0)
(5.15524 0.253124 0)
(5.46811 -0.274077 0)
(5.16583 0.303692 0)
(5.47052 -0.319675 0)
(5.15384 0.360983 0)
(5.49181 -0.387391 0)
(5.13859 0.450879 0)
(5.50621 -0.479325 0)
(5.13659 0.548296 0)
(5.51666 -0.563093 0)
(5.1262 0.636453 0)
(5.54163 -0.64555 0)
(5.10843 0.743146 0)
(5.57144 -0.753705 0)
(5.09313 0.870129 0)
(5.61005 -0.862726 0)
(5.06823 0.99347 0)
(5.66854 -0.968465 0)
(5.04269 1.14526 0)
(5.74316 -1.09339 0)
(5.01451 1.31398 0)
(5.84777 -1.19582 0)
(4.98087 1.4964 0)
(5.98229 -1.30392 0)
(4.95398 1.71328 0)
(6.15673 -1.38335 0)
(4.92496 1.95549 0)
(6.36634 -1.4385 0)
(4.92115 2.26532 0)
(6.60593 -1.44799 0)
(4.97342 2.65275 0)
(6.86836 -1.43693 0)
(5.20793 3.17487 0)
(7.1505 -1.4222 0)
(5.77998 3.956 0)
(7.47523 -1.372 0)
(6.74318 5.05238 0)
(8.13265 -0.787793 0)
(7.81106 6.01636 0)
(9.79756 1.16891 0)
(10.3513 5.96758 0)
(12.4935 -0.399358 0)
(12.4485 -0.494236 0)
(12.4109 -0.577919 0)
(12.3257 -0.655211 0)
(12.2047 -0.736183 0)
(12.0489 -0.817644 0)
(11.8892 -0.910809 0)
(11.7454 -1.02567 0)
(11.6111 -1.161 0)
(11.4805 -1.31379 0)
(11.3342 -1.4786 0)
(11.166 -1.64869 0)
(10.9729 -1.80685 0)
(10.7408 -1.93854 0)
(10.4655 -2.03617 0)
(10.1417 -2.08878 0)
(9.75631 -2.08934 0)
(9.28465 -2.01497 0)
(8.70234 -1.84859 0)
(8.03214 -1.60891 0)
(7.31158 -1.31987 0)
(6.66519 -1.03012 0)
(6.15746 -0.819933 0)
(5.75378 -0.678897 0)
(5.49451 -0.515904 0)
(5.27225 -0.336207 0)
(5.06309 -0.136927 0)
(4.93468 0.0964449 0)
(4.82871 0.326233 0)
(4.77128 0.528441 0)
(4.72028 0.678183 0)
(4.70177 0.780831 0)
(4.70186 0.834216 0)
(4.72506 0.84552 0)
(4.76691 0.813222 0)
(4.82086 0.736389 0)
(4.88088 0.629961 0)
(4.94051 0.515686 0)
(4.99602 0.409791 0)
(5.04474 0.32063 0)
(5.08644 0.250889 0)
(5.12039 0.197812 0)
(5.15307 0.157923 0)
(5.17871 0.125194 0)
(5.20905 0.101487 0)
(5.22299 0.0779353 0)
(5.25406 0.0663109 0)
(5.24854 0.045944 0)
(5.2918 0.0453284 0)
(5.25509 0.024895 0)
(5.33013 0.0304585 0)
(5.24297 0.0170281 0)
(5.37263 0.00854287 0)
(5.21565 0.0329052 0)
(5.41467 -0.0378927 0)
(5.18463 0.0855751 0)
(5.44548 -0.116644 0)
(5.1666 0.168953 0)
(5.45625 -0.203727 0)
(5.16975 0.244532 0)
(5.45043 -0.263023 0)
(5.1773 0.291171 0)
(5.45154 -0.303278 0)
(5.1665 0.343617 0)
(5.47069 -0.369695 0)
(5.14956 0.436083 0)
(5.48273 -0.464379 0)
(5.14802 0.537654 0)
(5.48464 -0.547448 0)
(5.14006 0.627935 0)
(5.49971 -0.63208 0)
(5.12243 0.743125 0)
(5.52128 -0.746174 0)
(5.10639 0.878463 0)
(5.55491 -0.85697 0)
(5.0783 1.01036 0)
(5.60882 -0.974516 0)
(5.05011 1.17418 0)
(5.68067 -1.12095 0)
(5.01883 1.35446 0)
(5.78477 -1.25593 0)
(4.98708 1.55697 0)
(5.91607 -1.40553 0)
(4.96797 1.799 0)
(6.08139 -1.52483 0)
(4.97199 2.06466 0)
(6.26805 -1.63477 0)
(5.03756 2.39027 0)
(6.46328 -1.71026 0)
(5.20853 2.79341 0)
(6.62952 -1.78756 0)
(5.55032 3.34765 0)
(6.77872 -1.80099 0)
(6.12485 4.09567 0)
(7.02315 -1.59546 0)
(6.92722 4.95777 0)
(7.61276 -0.745823 0)
(7.89284 5.50543 0)
(8.66965 0.984578 0)
(9.96995 5.12102 0)
(12.4542 -0.357384 0)
(12.4071 -0.43326 0)
(12.3718 -0.515398 0)
(12.3022 -0.602017 0)
(12.1914 -0.68844 0)
(12.0472 -0.770398 0)
(11.9088 -0.863901 0)
(11.7755 -0.972182 0)
(11.6431 -1.09501 0)
(11.5001 -1.23268 0)
(11.3383 -1.38473 0)
(11.1451 -1.54021 0)
(10.9122 -1.6808 0)
(10.6215 -1.79563 0)
(10.2759 -1.87368 0)
(9.85604 -1.90327 0)
(9.34821 -1.86579 0)
(8.7381 -1.74824 0)
(8.02297 -1.55114 0)
(7.27866 -1.30244 0)
(6.56844 -1.03072 0)
(5.98885 -0.793123 0)
(5.54391 -0.654549 0)
(5.20475 -0.556843 0)
(5.00787 -0.408412 0)
(4.80814 -0.240815 0)
(4.61809 -0.0641801 0)
(4.52298 0.15082 0)
(4.44391 0.365088 0)
(4.4361 0.561513 0)
(4.43302 0.703109 0)
(4.46681 0.79488 0)
(4.51538 0.838151 0)
(4.58217 0.839689 0)
(4.66459 0.799323 0)
(4.75433 0.717922 0)
(4.84219 0.611315 0)
(4.92142 0.499504 0)
(4.99077 0.396225 0)
(5.04825 0.309468 0)
(5.09486 0.241926 0)
(5.13229 0.190218 0)
(5.16707 0.151488 0)
(5.19488 0.119233 0)
(5.22452 0.0969764 0)
(5.24061 0.0731619 0)
(5.26724 0.0637156 0)
(5.26694 0.0412601 0)
(5.29848 0.0446906 0)
(5.27534 0.019198 0)
(5.32514 0.0328284 0)
(5.26885 0.00918789 0)
(5.35238 0.0154278 0)
(5.25148 0.0216636 0)
(5.37934 -0.0256122 0)
(5.2293 0.0699403 0)
(5.40066 -0.0992756 0)
(5.2125 0.149335 0)
(5.41052 -0.182465 0)
(5.2115 0.222224 0)
(5.40463 -0.237248 0)
(5.22068 0.26368 0)
(5.39579 -0.26951 0)
(5.22014 0.307327 0)
(5.40099 -0.328468 0)
(5.20881 0.394893 0)
(5.40576 -0.421523 0)
(5.20922 0.497451 0)
(5.4005 -0.504521 0)
(5.20904 0.588327 0)
(5.40569 -0.588865 0)
(5.19512 0.704445 0)
(5.42251 -0.703706 0)
(5.17931 0.84333 0)
(5.44566 -0.817645 0)
(5.15831 0.981381 0)
(5.48118 -0.939709 0)
(5.13434 1.1551 0)
(5.53269 -1.0886 0)
(5.10767 1.35009 0)
(5.60677 -1.23752 0)
(5.08181 1.5692 0)
(5.7078 -1.41655 0)
(5.06737 1.8293 0)
(5.84047 -1.59332 0)
(5.08155 2.12836 0)
(6.00279 -1.77558 0)
(5.15408 2.51012 0)
(6.19213 -1.91937 0)
(5.3409 2.96622 0)
(6.40984 -2.01923 0)
(5.71676 3.50302 0)
(6.67722 -1.98895 0)
(6.32516 4.11929 0)
(7.04436 -1.63632 0)
(7.11043 4.73263 0)
(7.66997 -0.702872 0)
(8.05747 4.81525 0)
(8.72478 1.02845 0)
(9.68479 4.1933 0)
(12.4359 -0.323105 0)
(12.3854 -0.377945 0)
(12.3488 -0.445381 0)
(12.278 -0.527834 0)
(12.1604 -0.616827 0)
(12.0187 -0.706861 0)
(11.8683 -0.804974 0)
(11.7132 -0.911661 0)
(11.5512 -1.03031 0)
(11.3758 -1.16138 0)
(11.1746 -1.30296 0)
(10.9335 -1.43766 0)
(10.6398 -1.55639 0)
(10.2788 -1.65037 0)
(9.84239 -1.70422 0)
(9.30245 -1.69703 0)
(8.66678 -1.61496 0)
(7.93046 -1.45655 0)
(7.15205 -1.24199 0)
(6.41337 -1.00428 0)
(5.74101 -0.768718 0)
(5.20964 -0.590985 0)
(4.79655 -0.516412 0)
(4.50905 -0.458898 0)
(4.37659 -0.327626 0)
(4.21393 -0.16976 0)
(4.04958 -0.0157185 0)
(3.99807 0.176787 0)
(3.955 0.362764 0)
(3.99511 0.53988 0)
(4.04037 0.671532 0)
(4.12538 0.756018 0)
(4.22622 0.794049 0)
(4.34319 0.790061 0)
(4.47194 0.746467 0)
(4.6016 0.666323 0)
(4.72272 0.564852 0)
(4.83051 0.459186 0)
(4.92232 0.362449 0)
(4.99555 0.282503 0)
(5.05428 0.220504 0)
(5.10262 0.172138 0)
(5.14581 0.135727 0)
(5.18031 0.105239 0)
(5.21216 0.0854652 0)
(5.23216 0.0634495 0)
(5.25538 0.0569777 0)
(5.26232 0.0353037 0)
(5.28276 0.0421707 0)
(5.2788 0.0149099 0)
(5.30198 0.0338001 0)
(5.2874 0.00401107 0)
(5.318 0.0201921 0)
(5.28872 0.0134856 0)
(5.33354 -0.0158262 0)
(5.27961 0.0573098 0)
(5.35057 -0.0837532 0)
(5.2624 0.132627 0)
(5.36622 -0.163075 0)
(5.25194 0.203858 0)
(5.36781 -0.215678 0)
(5.2573 0.242739 0)
(5.35534 -0.24326 0)
(5.26458 0.2799 0)
(5.35055 -0.295983 0)
(5.25733 0.362008 0)
(5.3548 -0.384986 0)
(5.25349 0.461132 0)
(5.3481 -0.46135 0)
(5.25698 0.54531 0)
(5.34434 -0.538174 0)
(5.2474 0.658381 0)
(5.35552 -0.650735 0)