/*--------------------------------*- C++ -*----------------------------------*\
| =========                 |                                                 |
| \\      /  F ield         | OpenFOAM: The Open Source CFD Toolbox           |
|  \\    /   O peration     | Version:  2.4.0                                 |
|   \\  /    A nd           | Web:      www.OpenFOAM.org                      |
|    \\/     M anipulation  |                                                 |
\*---------------------------------------------------------------------------*/
FoamFile
{
    version     2.0;
    format      ascii;
    class       volScalarField;
    location    "0.093";
    object      pMean;
}
// * * * * * * * * * * * * * * * * * * * * * * * * * * * * * * * * * * * * * //

dimensions      [0 2 -2 0 0 0 0];

internalField   nonuniform List<scalar> 
4400
(
149.637
127.611
118.961
114.695
111.08
107.506
103.866
100.241
96.3349
91.348
147.731
127.675
118.997
114.706
111.082
107.506
103.867
100.243
96.3552
91.9078
146.533
127.979
119.129
114.744
111.102
107.514
103.872
100.241
96.4484
92.1956
145.803
128.347
119.303
114.802
111.144
107.542
103.886
100.264
96.5495
92.5614
145.211
128.682
119.478
114.861
111.204
107.583
103.92
100.284
96.6857
92.9033
144.7
128.96
119.631
114.906
111.259
107.636
103.961
100.329
96.8371
93.2676
144.281
129.18
119.758
114.932
111.305
107.681
104.005
100.376
96.9573
93.6934
143.959
129.347
119.857
114.946
111.338
107.719
104.045
100.429
97.0491
94.0708
143.742
129.46
119.925
114.953
111.358
107.748
104.073
100.483
97.1556
94.4434
143.633
129.518
119.959
114.956
111.371
107.763
104.104
100.532
97.2734
94.737
143.631
129.521
119.959
114.958
111.374
107.773
104.123
100.584
97.3885
94.9808
143.738
129.466
119.926
114.957
111.369
107.769
104.141
100.636
97.498
95.1762
143.953
129.357
119.858
114.953
111.353
107.757
104.151
100.683
97.6058
95.3287
144.273
129.193
119.759
114.943
111.327
107.734
104.155
100.728
97.7116
95.4378
144.692
128.975
119.632
114.919
111.288
107.702
104.154
100.767
97.8114
95.5106
145.201
128.698
119.478
114.879
111.238
107.663
104.149
100.802
97.8944
95.567
145.793
128.364
119.304
114.822
111.184
107.63
104.146
100.831
97.9535
95.6111
146.524
127.996
119.13
114.767
111.145
107.611
104.147
100.854
97.9879
95.649
147.722
127.692
118.998
114.729
111.127
107.607
104.151
100.867
98.0014
95.6883
149.628
127.628
118.962
114.718
111.124
107.607
104.153
100.872
98.0032
95.7905
88.421
88.0556
86.7397
85.3427
84.3525
83.8914
83.6749
83.0551
82.5012
81.7933
80.8303
80.0647
79.7927
80.2993
81.3969
82.7997
84.4498
86.343
88.3516
90.3305
92.137
93.7001
94.9395
95.8173
96.3607
96.663
96.7843
96.8081
96.7951
96.7883
96.778
96.8067
96.8851
97.0321
97.2309
97.5293
97.885
98.3861
98.9192
99.5183
100.144
100.75
101.32
101.828
102.26
102.508
102.683
102.741
102.748
102.71
102.76
102.764
102.837
102.85
103.164
103.365
103.868
104.229
104.871
105.303
105.878
106.122
106.549
106.536
106.722
106.466
106.583
106.281
106.44
106.162
106.426
106.181
106.567
106.311
106.777
106.443
106.943
106.502
107.009
106.445
106.923
106.235
106.64
105.891
106.212
105.435
105.638
104.838
104.885
104.008
103.877
102.804
102.502
100.995
100.585
98.0254
97.6156
91.7703
90.9121
63.1478
88.9824
88.3234
87.3341
86.2111
85.2899
84.7928
84.5726
84.0931
83.6018
83.0111
82.16
81.4244
81.1126
81.5159
82.4907
83.7877
85.3146
87.0393
88.8672
90.6716
92.3198
93.7284
94.8351
95.6011
96.0477
96.2677
96.3432
96.3355
96.3042
96.2988
96.3193
96.3816
96.4995
96.691
96.9276
97.2544
97.6129
98.1105
98.6352
99.2257
99.8474
100.441
101.031
101.559
102.027
102.305
102.521
102.61
102.64
102.641
102.703
102.687
102.726
102.725
103.013
103.192
103.724
104.08
104.761
105.22
105.821
106.091
106.539
106.544
106.732
106.475
106.577
106.264
106.404
106.101
106.352
106.06
106.445
106.126
106.611
106.19
106.742
106.184
106.791
106.068
106.713
105.806
106.475
105.409
106.064
104.911
105.485
104.274
104.685
103.381
103.561
102.022
101.957
99.8427
99.723
96.1019
96.0697
87.6606
86.4246
55.5521
89.7897
88.9217
87.9143
86.9524
86.1452
85.6487
85.4085
85.0223
84.5661
84.0473
83.3487
82.7135
82.4082
82.7341
83.6198
84.8376
86.2582
87.821
89.4656
91.087
92.5599
93.7993
94.7466
95.3828
95.7219
95.8547
95.8779
95.8425
95.8038
95.8096
95.867
95.9763
96.1458
96.3953
96.6858
97.0554
97.4336
97.9378
98.4558
99.0401
99.6615
100.237
100.85
101.396
101.902
102.217
102.482
102.597
102.672
102.697
102.778
102.735
102.752
102.731
102.981
103.133
103.686
104.022
104.74
105.21
105.823
106.122
106.577
106.597
106.773
106.519
106.583
106.263
106.367
106.047
106.264
105.945
106.298
105.939
106.402
105.927
106.479
105.838
106.482
105.632
106.374
105.278
106.129
104.784
105.751
104.197
105.212
103.488
104.422
102.54
103.22
101.086
101.389
98.5501
98.6665
93.9882
94.4357
84.2558
81.3198
53.7859
90.5063
89.6438
88.6405
87.7324
87.0144
86.5385
86.2775
85.9624
85.551
85.0954
84.547
84.0268
83.7584
84.0297
84.833
85.9679
87.281
88.6917
90.1463
91.5672
92.8469
93.8962
94.6668
95.1587
95.3856
95.4314
95.3984
95.3418
95.307
95.3308
95.4317
95.5988
95.8361
96.1565
96.5141
96.9367
97.3497
97.8713
98.3801
98.966
99.5825
100.139
100.787
101.345
101.892
102.243
102.557
102.694
102.831
102.871
102.985
102.911
102.926
102.87
103.085
103.201
103.77
104.058
104.818
105.271
105.891
106.215
106.663
106.698
106.847
106.592
106.605
106.28
106.33
106.004
106.164
105.837
106.128
105.756
106.159
105.666
106.164
105.492
106.097
105.19
105.924
104.718
105.619
104.076
105.206
103.315
104.693
102.435
103.992
101.329
102.812
99.7897
100.845
97.1522
97.473
91.9291
92.1029
81.2404
75.4863
54.1215
91.0683
90.332
89.4741
88.5688
87.877
87.4205
87.1614
86.9181
86.5939
86.2196
85.8017
85.4046
85.1967
85.4252
86.1325
87.1658
88.3606
89.6149
90.8728
92.077
93.1443
93.9923
94.5812
94.9292
95.0472
95.0097
94.9253
94.8555
94.8318
94.8826
95.0356
95.2691
95.583
95.9852
96.4228
96.9072
97.365
97.909
98.4071
99.0068
99.6094
100.156
100.842
101.398
101.993
102.376
102.736
102.881
103.105
103.151
103.32
103.206
103.244
103.131
103.333
103.4
103.98
104.191
105.005
105.396
106.033
106.373
106.799
106.851
106.957
106.7
106.646
106.317
106.296
105.969
106.055
105.728
105.939
105.571
105.887
105.404
105.81
105.151
105.657
104.762
105.392
104.183
104.982
103.4
104.446
102.426
103.779
101.224
102.929
99.7475
101.815
97.8886
99.8608
95.1079
96.5894
90.1149
89.6045
78.9287
68.8132
53.8992
91.573
90.957
90.2221
89.3508
88.6817
88.2865
88.0752
87.9133
87.6882
87.4007
87.0888
86.8085
86.6759
86.8779
87.4838
88.3903
89.4491
90.5391
91.594
92.5741
93.4225
94.0656
94.4854
94.7055
94.7213
94.611
94.4862
94.4065
94.3981
94.4845
94.6974
95.0061
95.4041
95.892
96.4139
96.9678
97.4791
98.0526
98.5429
99.1661
99.7411
100.292
101.012
101.553
102.189
102.606
103.005
103.142
103.483
103.527
103.768
103.607
103.696
103.512
103.724
103.722
104.316
104.421
105.302
105.581
106.261
106.593
106.995
107.059
107.111
106.848
106.718
106.382
106.279
105.953
105.95
105.633
105.744
105.396
105.601
105.146
105.431
104.809
105.182
104.337
104.815
103.672
104.294
102.794
103.632
101.697
102.812
100.293
101.776
98.4532
100.335
95.8718
98.0664
92.2609
94.5174
86.7983
85.9086
76.2246
64.3417
54.3569
92.1929
91.5478
90.7985
89.9887
89.4129
89.135
89.0125
88.9194
88.7775
88.5717
88.3498
88.1699
88.1104
88.302
88.8106
89.577
90.4805
91.4044
92.2667
93.0321
93.6665
94.1204
94.3982
94.507
94.429
94.2594
94.0999
94.0125
94.0216
94.1513
94.4311
94.8242
95.313
95.8871
96.4927
97.1217
97.692
98.2985
98.7834
99.4358
99.9703
100.546
101.28
101.799
102.47
102.924
103.342
103.459
103.956
103.973
104.303
104.088
104.247
103.996
104.244
104.15
104.763
104.742
105.691
105.82
106.58
106.865
107.256
107.331
107.316
107.046
106.831
106.488
106.292
105.971
105.867
105.565
105.563
105.242
105.32
104.904
105.046
104.48
104.691
103.918
104.212
103.159
103.573
102.189
102.79
101.028
101.849
99.5833
100.636
97.5967
98.8462
94.5404
95.9763
89.8832
91.0537
82.5871
80.7835
71.9264
62.0924
54.8532
93.0299
92.291
91.3154
90.5302
90.0788
89.9227
89.8907
89.8664
89.7953
89.6666
89.5255
89.4268
89.4271
89.6155
90.0416
90.6725
91.4195
92.1794
92.8659
93.4389
93.8858
94.1853
94.3521
94.361
94.1936
93.974
93.7868
93.6903
93.7195
93.9013
94.2519
94.728
95.3081
95.9684
96.6602
97.365
97.9965
98.6367
99.1229
99.8029
100.288
100.903
101.624
102.132
102.816
103.308
103.736
103.813
104.495
104.462
104.88
104.63
104.876
104.564
104.852
104.66
105.285
105.143
106.15
106.106
106.99
107.176
107.597
107.669
107.578
107.303
106.996
106.646
106.35
106.038
105.825
105.543
105.421
105.132
105.073
104.704
104.686
104.186
104.212
103.521
103.606
102.651
102.832
101.559
101.904
100.262
100.801
98.668
99.3487
96.4861
97.1449
93.2066
93.5313
88.0312
87.2936
79.8778
76.4385
69.1988
61.2671
54.5276
93.6644
92.8873
91.7882
91.0168
90.665
90.6203
90.6873
90.7418
90.7377
90.6754
90.5995
90.5622
90.6072
90.7939
91.1562
91.6674
92.264
92.8645
93.3915
93.8076
94.1048
94.2885
94.3698
94.2833
94.0329
93.7754
93.5644
93.4609
93.5161
93.7562
94.1762
94.7319
95.398
96.1414
96.9168
97.6917
98.3831
99.0507
99.5512
100.239
100.685
101.342
102.024
102.545
103.206
103.747
104.146
104.202
105.074
104.979
105.486
105.195
105.537
105.195
105.519
105.239
105.873
105.615
106.659
106.429
107.482
107.512
108.026
108.065
107.906
107.627
107.227
106.869
106.475
106.169
105.852
105.589
105.349
105.096
104.896
104.582
104.393
103.97
103.792
103.195
103.039
102.199
102.097
100.953
100.981
99.4621
99.654
97.6181
97.8927
95.139
95.233
91.5807
90.861
86.2738
83.7828
78.5681
73.9505
68.8607
61.0991
54.2742
94.1481
93.3904
92.2651
91.5205
91.2365
91.2796
91.4307
91.5552
91.6071
91.5955
91.5713
91.581
91.6593
91.8465
92.1596
92.568
93.0252
93.4763
93.8632
94.1528
94.3397
94.445
94.4574
94.2817
93.9586
93.6741
93.4471
93.3469
93.431
93.7215
94.2067
94.8439
95.5942
96.4182
97.2725
98.108
98.8526
99.5346
100.059
100.727
101.147
101.839
102.467
103.027
103.617
104.219
104.554
104.633
105.661
105.5
106.105
105.777
106.239
105.868
106.217
105.881
106.497
106.159
107.203
106.8
108.033
107.873
108.54
108.509
108.3
108.022
107.528
107.163
106.676
106.376
105.967
105.723
105.383
105.161
104.842
104.571
104.236
103.875
103.512
102.993
102.592
101.864
101.446
100.449
100.086
98.7333
98.4534
96.617
96.3095
93.8596
93.1948
90.1077
88.4466
84.9177
81.6889
78.2324
73.2299
70.0735
61.3975
54.9723
94.5287
93.8206
92.7282
92.0238
91.7911
91.8913
92.1044
92.2899
92.3975
92.4361
92.4585
92.5106
92.6161
92.8015
93.072
93.3933
93.7289
94.0496
94.3191
94.501
94.5985
94.6509
94.6101
94.3564
93.9736
93.6768
93.4445
93.3576
93.477
93.8198
94.3718
95.0852
95.9169
96.8197
97.7442
98.6302
99.4134
100.098
100.643
101.266
101.675
102.381
102.956
103.565
104.039
104.728
104.945
105.141
106.25
106.06
106.713
106.387
106.949
106.574
106.947
106.579
107.158
106.772
107.78
107.248
108.616
108.263
109.119
108.988
108.751
108.486
107.884
107.533
106.941
106.671
106.16
105.961
105.516
105.348
104.915
104.704
104.242
103.948
103.434
102.992
102.386
101.753
101.051
100.177
99.4289
98.2478
97.4485
95.8874
94.9308
92.9075
91.5241
89.0873
86.8705
84.3157
80.8867
78.8784
73.5555
71.6074
62.3116
56.36
94.8023
94.1605
93.1571
92.5295
92.3524
92.4951
92.7472
92.9768
93.1318
93.2185
93.2845
93.3709
93.4969
93.6766
93.9035
94.1461
94.3831
94.5994
94.7625
94.8516
94.8827
94.8996
94.8144
94.4917
94.0664
93.7775
93.5549
93.4895
93.6533
94.0561
94.6764
95.4667
96.3786
97.3558
98.3435
99.2688
100.075
100.752
101.306
101.869
102.272
102.969
103.495
104.155
104.486
105.283
105.336
105.781
106.825
106.692
107.321
107.045
107.68
107.301
107.7
107.32
107.833
107.463
108.386
107.812
109.204
108.706
109.732
109.484
109.246
108.996
108.28
107.957
107.251
107.032
106.409
106.286
105.722
105.651
105.085
104.992
104.379
104.221
103.536
103.238
102.429
101.931
100.984
100.245
99.1805
98.1724
96.9497
95.652
94.1793
92.5771
90.6863
88.9121
86.3234
84.7976
81.1089
80.2689
74.4664
72.8883
63.6663
57.533
94.9879
94.4341
93.5731
93.0524
92.9318
93.092
93.355
93.6046
93.7922
93.9203
94.0263
94.1433
94.2851
94.4514
94.631
94.8041
94.953
95.0715
95.1475
95.1632
95.1476
95.1518
95.0494
94.6819
94.242
93.9794
93.7913
93.7647
93.9774
94.4383
95.1243
95.9893
96.9738
98.0206
99.0628
100.018
100.833
101.499
102.046
102.543
102.946
103.607
104.094
104.793
104.99
105.925
105.793
106.574
107.41
107.42
107.876
107.798
108.371
108.078
108.473
108.129
108.553
108.262
109.009
108.536
109.777
109.253
110.334
109.993
109.763
109.523
108.694
108.402
107.588
107.425
106.695
106.662
105.976
106.032
105.322
105.396
104.608
104.663
103.764
103.719
102.653
102.437
101.177
100.756
99.3051
98.657
96.9697
96.1046
94.1027
93.0927
90.658
89.7406
86.6568
86.2265
82.0045
81.916
75.6367
73.7656
64.9434
58.3063
95.0685
94.6171
93.9528
93.5677
93.5078
93.6717
93.9228
94.1705
94.374
94.5331
94.6722
94.8108
94.9552
95.1002
95.234
95.3444
95.426
95.4742
95.4774
95.4296
95.3804
95.3864
95.2904
94.9142
94.4896
94.2643
94.1383
94.1733
94.4448
94.9667
95.7157
96.6434
97.6885
98.791
99.8717
100.846
101.662
102.315
102.844
103.285
103.688
104.292
104.755
105.481
105.573
106.646
106.354
107.518
107.978
108.263
108.432
108.686
109.052
108.939
109.233
109.017
109.3
109.164
109.626
109.419
110.325
109.952
110.88
110.535
110.274
110.039
109.106
108.842
107.929
107.815
106.991
107.042
106.252
106.427
105.591
105.834
104.892
105.177
104.079
104.343
103.008
103.195
101.565
101.653
99.7097
99.6798
97.3869
97.259
94.5623
94.4506
91.2734
91.4007
87.5986
88.0554
83.222
83.3064
76.715
74.2228
65.9318
58.9017
95.0706
94.7451
94.3145
94.0711
94.0501
94.1913
94.4132
94.6469
94.8539
95.0301
95.1852
95.3273
95.4609
95.5817
95.6809
95.7503
95.7859
95.7833
95.7359
95.6456
95.5807
95.6007
95.5278
95.1854
94.8135
94.6378
94.5837
94.6854
95.0191
95.6022
96.4095
97.3917
98.485
99.6249
100.727
101.708
102.518
103.159
103.666
104.069
104.468
105.003
105.461
106.21
106.21
107.415
106.965
108.521
108.639
109.145
109.057
109.708
109.71
109.925
109.949
109.967
110.018
110.123
110.209
110.42
110.844
110.801
111.353
111.124
110.743
110.521
109.493
109.25
108.25
108.179
107.273
107.4
106.519
106.805
105.859
106.259
105.183
105.69
104.42
104.998
103.425
104.04
102.064
102.724
100.295
101.007
98.0724
98.8497
95.387
96.2757
92.298
93.3279
88.8241
89.7223
84.4178
84.2297
77.5515
74.3549
66.6728
59.5172
95.0486
94.8424
94.6321
94.4995
94.4938
94.6054
94.7913
95.0019
95.2016
95.3825
95.5449
95.6889
95.816
95.9191
95.9904
96.0268
96.0314
95.9997
95.9303
95.8284
95.7739
95.8134
95.7629
95.4786
95.1897
95.0817
95.1033
95.2764
95.6682
96.3004
97.1517
98.1727
99.2955
100.452
101.558
102.532
103.335
103.967
104.46
104.848
105.237
105.713
106.193
106.949
106.881
108.214
107.571
109.451
109.265
110.012
109.521
110.754
110.29
110.982
110.545
110.948
110.598
111.079
110.724
111.405
111.274
111.727
111.727
111.754
111.149
110.943
109.836
109.6
108.535
108.492
107.522
107.709
106.756
107.133
106.097
106.633
105.449
106.156
104.749
105.612
103.845
104.851
102.592
103.779
100.951
102.354
98.8837
100.501
96.3804
98.136
93.4606
95.1109
90.0265
91.0017
85.4078
84.6947
78.1804
74.3211
67.2488
60.1817
95.0772
94.9464
94.8673
94.8042
94.8042
94.8906
95.0458
95.2337
95.4237
95.6049
95.7705
95.9128
96.0298
96.118
96.1717
96.1919
96.1827
96.1426
96.0787
95.9982
95.9737
96.0302
96.0024
95.7919
95.598
95.565
95.6622
95.9014
96.3393
97.0036
97.879
98.9158
100.045
101.196
102.288
103.245
104.036
104.664
105.155
105.549
105.933
106.37
106.873
107.616
107.492
108.972
108.179
110.272
109.677
110.998
109.965
111.626
110.766
111.887
111.032
111.912
111.075
112.013
111.176
112.296
111.659
112.566
112.057
112.343
111.468
111.28
110.123
109.871
108.769
108.737
107.727
107.956
106.952
107.401
106.294
106.944
105.673
106.556
105.038
106.146
104.221
105.557
103.08
104.698
101.576
103.53
99.6798
101.935
97.3558
99.7107
94.5468
96.5282
91.0388
91.8682
86.1494
84.8295
78.6758
74.2758
67.6871
60.86
95.1579
95.0704
95.0261
94.9831
94.9859
95.0571
95.19
95.3603
95.542
95.7206
95.8835
96.0201
96.1282
96.2076
96.2544
96.271
96.2691
96.2455
96.2054
96.1626
96.1785
96.2519
96.2444
96.1063
96.0005
96.038
96.1989
96.4871
96.9507
97.6235
98.4976
99.5267
100.642
101.771
102.835
103.769
104.548
105.174
105.675
106.093
106.486
106.909
107.424
108.119
107.988
109.572
108.668
110.965
109.873
111.795
110.389
112.192
111.095
112.645
111.424
112.698
111.432
112.757
111.518
112.978
111.945
113.188
112.283
112.768
111.674
111.512
110.324
110.052
108.917
108.905
107.854
108.131
107.078
107.595
106.427
107.178
105.838
106.866
105.264
106.561
104.53
106.103
103.493
105.411
102.122
104.439
100.38
103.029
98.1907
100.885
95.4216
97.5382
91.7918
92.4022
86.6611
84.813
79.0499
74.2796
67.9937
61.4867
95.2443
95.1666
95.1068
95.0632
95.0655
95.1263
95.2442
95.4026
95.5787
95.7562
95.9183
96.0546
96.161
96.2404
96.292
96.3179
96.3287
96.3254
96.316
96.3155
96.3667
96.4519
96.4633
96.3854
96.3473
96.4295
96.6277
96.9431
97.4134
98.0751
98.9295
99.9334
101.022
102.12
103.155
104.067
104.835
105.461
105.975
106.419
106.829
107.259
107.792
108.42
108.319
109.984
108.893
111.489
110.083
112.124
110.598
112.604
111.385
113.15
111.678
113.201
111.712
113.199
111.774
113.363
112.149
113.565
112.443
113.019
111.808
111.639
110.43
110.148
108.983
108.992
107.904
108.224
107.123
107.703
106.471
107.311
105.898
107.043
105.356
106.793
104.672
106.41
103.712
105.82
102.444
104.965
100.824
103.667
98.7445
101.567
96.0134
98.1132
92.3105
92.6644
87.0998
84.7321
79.3701
74.3043
68.1759
61.9514
95.3994
95.239
95.1358
95.0844
95.0832
95.1385
95.2503
95.4032
95.5752
95.7499
95.9097
96.0457
96.156
96.2422
96.3038
96.3434
96.3703
96.385
96.3959
96.4181
96.4833
96.5711
96.5925
96.543
96.5307
96.6266
96.8376
97.163
97.6302
98.2795
99.1166
100.101
101.172
102.254
103.275
104.176
104.94
105.566
106.085
106.54
106.965
107.394
107.93
108.534
108.459
110.156
109.066
111.73
110.213
112.252
110.744
112.913
111.459
113.327
111.808
113.418
111.844
113.363
111.893
113.513
112.226
113.722
112.488
113.115
111.835
111.675
110.457
110.178
109.002
109.017
107.914
108.244
107.127
107.73
106.478
107.351
105.902
107.097
105.357
106.867
104.675
106.512
103.725
105.963
102.475
105.158
100.887
103.903
98.8549
101.821
96.1655
98.3235
92.4641
92.7411
87.2088
84.6413
79.4182
74.2681
68.2056
61.9271
90.9443
90.4306
89.1972
87.5829
86.2101
85.0266
84.1184
83.8644
83.835
84.1026
84.7725
85.8286
87.1497
88.3751
89.4109
90.4879
91.7477
93.0823
94.3582
95.757
97.5085
99.3827
101.139
102.711
104.116
105.5
106.882
108.273
109.548
110.734
111.961
113.058
114.068
114.633
114.952
114.778
114.594
114.292
114.09
113.839
113.791
113.596
113.407
113.142
112.842
112.54
112.247
111.97
111.716
111.486
111.274
111.074
110.88
110.676
110.458
110.227
109.997
109.773
109.555
109.34
109.136
108.939
108.764
108.606
108.465
108.336
108.226
108.126
108.054
108
107.979
107.976
107.998
108.034
108.082
108.133
108.183
108.231
108.277
108.322
108.368
108.419
108.476
108.542
108.616
108.7
108.793
108.896
109.005
109.122
109.245
109.377
109.501
109.573
109.591
109.664
109.797
110.15
110.97
112.007
90.8659
90.327
89.0326
87.36
85.9336
84.7281
83.8174
83.5876
83.5543
83.8423
84.5301
85.5712
86.8493
88.0237
89.0198
90.1181
91.4166
92.7766
94.08
95.5532
97.3491
99.2321
100.917
102.383
103.741
105.151
106.587
107.997
109.276
110.453
111.685
112.784
113.792
114.377
114.688
114.552
114.369
114.122
113.933
113.725
113.682
113.536
113.36
113.118
112.831
112.538
112.25
111.976
111.722
111.492
111.279
111.078
110.883
110.678
110.46
110.226
109.993
109.768
109.551
109.336
109.132
108.933
108.758
108.6
108.46
108.33
108.219
108.118
108.047
107.992
107.973
107.971
107.994
108.03
108.08
108.131
108.182
108.23
108.276
108.321
108.367
108.417
108.475
108.54
108.615
108.699
108.793
108.896
109.007
109.121
109.244
109.374
109.502
109.575
109.586
109.616
109.683
109.993
110.811
111.838
90.7233
90.1183
88.7123
86.9134
85.3946
84.0829
83.1574
82.979
83.0042
83.3327
84.0471
85.0171
86.1406
87.1793
88.1022
89.2116
90.5711
91.9979
93.4121
95.037
96.9687
98.874
100.441
101.721
102.976
104.397
105.925
107.39
108.693
109.864
111.106
112.208
113.204
113.829
114.124
114.061
113.886
113.728
113.582
113.433
113.415
113.34
113.195
112.987
112.727
112.457
112.186
111.922
111.678
111.456
111.25
111.055
110.864
110.66
110.441
110.211
109.981
109.757
109.54
109.324
109.119
108.92
108.745
108.588
108.448
108.318
108.206
108.104
108.033
107.978
107.96
107.958
107.984
108.02
108.072
108.125
108.176
108.224
108.268
108.312
108.356
108.405
108.459
108.523
108.595
108.679
108.771
108.875
108.984
109.102
109.22
109.354
109.49
109.59
109.599
109.568
109.488
109.731
110.53
111.561
90.5191
89.8439
88.2837
86.3426
84.728
83.2562
82.2992
82.1185
82.1812
82.594
83.3693
84.2181
85.0822
85.927
86.7964
87.9329
89.3712
90.8815
92.447
94.2492
96.3226
98.2463
99.7441
100.857
102.004
103.418
105.027
106.564
107.913
109.094
110.344
111.457
112.409
113.068
113.358
113.364
113.222
113.156
113.072
112.991
113.015
113.01
112.907
112.737
112.514
112.276
112.03
111.785
111.558
111.355
111.167
110.985
110.805
110.609
110.395
110.171
109.947
109.727
109.514
109.301
109.097
108.898
108.723
108.567
108.428
108.295
108.183
108.077
108.007
107.95
107.935
107.932
107.963
107.999
108.055
108.107
108.159
108.205
108.248
108.287
108.328
108.371
108.422
108.479
108.549
108.628
108.72
108.821
108.933
109.048
109.172
109.301
109.458
109.584
109.619
109.51
109.309
109.46
110.245
111.261
90.2761
89.5263
87.8105
85.7308
84.0035
82.3581
81.325
81.0868
81.1154
81.5619
82.3301
83.0355
83.6575
84.3531
85.2414
86.4455
87.9713
89.5854
91.303
93.2637
95.4532
97.3954
98.8807
99.8858
100.941
102.373
104.083
105.698
107.091
108.28
109.498
110.589
111.471
112.121
112.413
112.465
112.377
112.404
112.412
112.423
112.496
112.571
112.523
112.39
112.207
112.007
111.794
111.571
111.369
111.187
111.02
110.858
110.694
110.512
110.307
110.093
109.88
109.668
109.465
109.257
109.057
108.86
108.686
108.53
108.391
108.255
108.141
108.033
107.963
107.905
107.893
107.89
107.927
107.964
108.024
108.076
108.129
108.173
108.213
108.247
108.281
108.317
108.359
108.409
108.471
108.544
108.629
108.728
108.837
108.956
109.082
109.224
109.382
109.545
109.593
109.458
109.137
109.248
110
111.032
90.0239
89.2088
87.3533
85.1516
83.3089
81.4744
80.3082
79.9262
79.8166
80.196
80.8477
81.3963
81.9009
82.5665
83.5658
84.8859
86.5349
88.2854
90.1495
92.2234
94.4684
96.4601
97.9836
98.9534
99.9374
101.412
103.228
104.911
106.319
107.479
108.616
109.633
110.414
111.004
111.288
111.37
111.347
111.472
111.611
111.724
111.866
112.035
112.053
111.961
111.821
111.662
111.482
111.283
111.107
110.95
110.807
110.667
110.523
110.356
110.165
109.967
109.77
109.573
109.385
109.187
108.998
108.805
108.634
108.476
108.339
108.197
108.084
107.97
107.904
107.844
107.837
107.835
107.878
107.917
107.982
108.036
108.088
108.132
108.166
108.196
108.22
108.248
108.277
108.318
108.365
108.429
108.502
108.594
108.696
108.816
108.947
109.096
109.269
109.44
109.526
109.37
109.035
109.101
109.911
110.904
89.7905
88.9223
86.9377
84.63
82.6666
80.658
79.2987
78.6533
78.3187
78.4957
78.9691
79.3759
79.9441
80.7136
81.8827
83.3598
85.1751
87.1036
89.1212
91.2878
93.5642
95.6109
97.1906
98.1629
99.0893
100.608
102.511
104.217
105.605
106.703
107.723
108.623
109.278
109.769
110.037
110.141
110.2
110.421
110.698
110.915
111.143
111.404
111.501
111.454
111.357
111.239
111.096
110.921
110.769
110.635
110.517
110.401
110.283
110.133
109.961
109.784
109.609
109.434
109.269
109.09
108.916
108.73
108.565
108.405
108.27
108.122
108.009
107.892
107.831
107.768
107.768
107.766
107.819
107.86
107.932
107.987
108.042
108.083
108.115
108.136
108.154
108.168
108.187
108.21
108.245
108.289
108.351
108.424
108.52
108.627
108.763
108.913
109.094
109.277
109.375
109.266
108.947
109.079
109.859
110.956
89.5843
88.6692
86.5458
84.1411
82.0654
79.9147
78.3117
77.3444
76.7549
76.6301
76.8937
77.1969
77.9488
78.935
80.2826
81.9555
83.9575
86.0855
88.2738
90.5317
92.8456
94.9467
96.5817
97.5686
98.4642
100.008
101.944
103.605
104.945
105.955
106.836
107.577
108.091
108.467
108.71
108.851
108.993
109.308
109.716
110.036
110.345
110.689
110.869
110.87
110.812
110.735
110.633
110.484
110.356
110.242
110.147
110.054
109.963
109.834
109.685
109.535
109.391
109.244
109.112
108.958
108.808
108.634
108.478
108.315
108.184
108.032
107.92
107.798
107.741
107.675
107.683
107.682
107.747
107.791
107.873
107.93
107.989
108.028
108.057
108.072
108.08
108.083
108.087
108.096
108.112
108.14
108.179
108.237
108.309
108.408
108.524
108.68
108.849
109.043
109.157
109.111
108.896
109.093
110
110.971
89.3997
88.4194
86.15
83.6494
81.4635
79.2158
77.3511
76.0825
75.2754
74.8157
74.8303
75.071
76.0324
77.3168
78.8513
80.7275
82.9126
85.2534
87.6255
89.9913
92.3485
94.4932
96.1779
97.1852
98.0741
99.6092
101.499
103.073
104.321
105.213
105.945
106.502
106.868
107.143
107.355
107.547
107.766
108.171
108.691
109.104
109.488
109.903
110.159
110.206
110.189
110.147
110.083
109.965
109.866
109.774
109.7
109.627
109.559
109.45
109.328
109.21
109.107
108.996
108.906
108.788
108.669
108.514
108.373
108.207
108.08
107.921
107.814
107.686
107.633
107.563
107.581
107.584
107.661
107.713
107.802
107.865
107.926
107.968
107.993
108.004
108.001
107.995
107.983
107.977
107.973
107.982
107.999
108.033
108.083
108.155
108.257
108.384
108.554
108.726
108.878
108.894
108.824
109.132
110.024
111.255
89.2062
88.14
85.7205
83.1167
80.815
78.5239
76.4447
74.9418
73.9625
73.173
72.9612
73.1595
74.3205
75.9257
77.6412
79.7045
82.0727
84.6182
87.1618
89.6372
92.0461
94.2263
95.9452
96.9846
97.879
99.3544
101.134
102.58
103.693
104.459
105.025
105.403
105.626
105.829
106.016
106.264
106.557
107.038
107.645
108.141
108.596
109.059
109.38
109.47
109.493
109.478
109.448
109.364
109.294
109.222
109.171
109.115
109.066
108.976
108.89
108.809
108.754
108.684
108.65
108.574
108.499
108.366
108.248
108.081
107.958
107.792
107.69
107.555
107.508
107.434
107.465
107.473
107.565
107.622
107.722
107.79
107.859
107.9
107.927
107.93
107.922
107.901
107.878
107.851
107.832
107.815
107.813
107.818
107.844
107.884
107.955
108.056
108.189
108.36
108.514
108.63
108.7
109.161
110.206
111.222
88.9723
87.7945
85.2473
82.5245
80.1122
77.8416
75.6564
73.9997
72.8864
71.7995
71.4235
71.6168
72.9703
74.8568
76.7066
78.9212
81.4413
84.1508
86.836
89.4123
91.8773
94.1002
95.8387
96.9173
97.8278
99.1903
100.803
102.081
103.03
103.663
104.055
104.282
104.384
104.546
104.725
105.028
105.385
105.927
106.596
107.164
107.677
108.169
108.541
108.677
108.735
108.742
108.74
108.684
108.646
108.592
108.56
108.513
108.485
108.416
108.376
108.334
108.333
108.31
108.341
108.318
108.294
108.19
108.099
107.934
107.82
107.648
107.552
107.41
107.371
107.295
107.338
107.353
107.458
107.523
107.634
107.709
107.785
107.829
107.854
107.855
107.836
107.805
107.765
107.724
107.682
107.647
107.616
107.598
107.589
107.602
107.631
107.695
107.792
107.925
108.099
108.263
108.502
109.043
110.146
111.5
88.6454
87.3639
84.735
81.926
79.4336
77.2458
75.0987
73.3814
72.1633
70.8782
70.3847
70.5778
72.0581
74.1389
76.0741
78.3829
81.0133
83.8461
86.6315
89.2843
91.7914
94.0486
95.8036
96.9335
97.8591
99.0825
100.464
101.55
102.321
102.806
103.044
103.164
103.195
103.334
103.519
103.868
104.28
104.863
105.563
106.185
106.744
107.256
107.662
107.841
107.932
107.958
107.981
107.951
107.945
107.901
107.879
107.833
107.829
107.784
107.795
107.796
107.855
107.885
107.988
108.019
108.056
107.985
107.931
107.771
107.672
107.493
107.408
107.256
107.228
107.15
107.206
107.226
107.343
107.42
107.539
107.624
107.706
107.752
107.778
107.773
107.748
107.704
107.651
107.59
107.531
107.47
107.418
107.366
107.331
107.3
107.295
107.307
107.362
107.457
107.605
107.834
108.162
108.899
110.059
111.094
88.2127
86.8359
84.193
81.3812
78.9346
76.8761
74.9047
73.2162
71.9402
70.5423
69.9371
70.0909
71.6116
73.7748
75.7621
78.0999
80.7953
83.6928
86.5258
89.2178
91.7485
94.0232
95.7738
96.9531
97.8788
98.9457
100.081
100.977
101.581
101.931
102.056
102.109
102.096
102.225
102.418
102.801
103.253
103.861
104.57
105.223
105.809
106.334
106.762
106.983
107.109
107.155
107.207
107.197
107.216
107.166
107.145
107.101
107.125
107.105
107.168
107.214
107.337
107.424
107.599
107.686
107.79
107.755
107.746
107.599
107.517
107.332
107.257
107.098
107.082
107.004
107.071
107.099
107.228
107.314
107.444
107.534
107.623
107.669
107.698
107.687
107.655
107.6
107.532
107.455
107.375
107.293
107.211
107.133
107.058
106.994
106.935
106.906
106.895
106.942
107.053
107.268
107.668
108.37
109.494
110.843
87.7205
86.2874
83.7183
80.9482
78.7096
76.8221
75.1396
73.5565
72.2557
70.8249
70.0947
70.1776
71.6457
73.775
75.7665
78.0697
80.767
83.6697
86.5127
89.2133
91.7429
94.0098
95.7291
96.92
97.8364
98.7492
99.6597
100.386
100.846
101.085
101.128
101.138
101.104
101.229
101.432
101.829
102.31
102.924
103.619
104.286
104.887
105.422
105.867
106.129
106.292
106.364
106.442
106.449
106.476
106.401
106.38
106.342
106.399
106.405
106.523
106.614
106.801
106.941
107.187
107.33
107.502
107.509
107.551
107.419
107.362
107.17
107.113
106.947
106.947
106.865
106.947
106.977
107.118
107.209
107.348
107.443
107.537
107.584
107.613
107.598
107.558
107.493
107.41
107.317
107.215
107.111
107.001
106.891
106.781
106.671
106.571
106.475
106.414
106.381
106.433
106.611
106.97
107.719
108.795
109.818
87.3274
85.8379
83.418
80.72
78.765
77.1432
75.7805
74.3644
73.0793
71.6867
70.84
70.8128
72.119
74.111
76.0525
78.2863
80.9326
83.7867
86.5912
89.2614
91.763
93.9961
95.6734
96.8478
97.7429
98.518
99.2315
99.801
100.136
100.286
100.274
100.264
100.229
100.349
100.558
100.952
101.446
102.053
102.726
103.385
103.995
104.541
105.003
105.305
105.506
105.612
105.708
105.723
105.742
105.639
105.617
105.59
105.681
105.716
105.883
106.016
106.266
106.455
106.769
106.962
107.204
107.253
107.355
107.237
107.215
107.012
106.983
106.803
106.827
106.733
106.837
106.858
107.017
107.105
107.259
107.349
107.454
107.494
107.528
107.503
107.461
107.381
107.286
107.175
107.054
106.924
106.788
106.644
106.496
106.342
106.186
106.034