/*--------------------------------*- C++ -*----------------------------------*\
| =========                 |                                                 |
| \\      /  F ield         | OpenFOAM: The Open Source CFD Toolbox           |
|  \\    /   O peration     | Version:  2.4.0                                 |
|   \\  /    A nd           | Web:      www.OpenFOAM.org                      |
|    \\/     M anipulation  |                                                 |
\*---------------------------------------------------------------------------*/
FoamFile
{
    version     2.0;
    format      ascii;
    class       volScalarField;
    location    "0.218";
    object      k;
}
// * * * * * * * * * * * * * * * * * * * * * * * * * * * * * * * * * * * * * //

dimensions      [0 2 -2 0 0 0 0];

internalField   nonuniform List<scalar> 
17600
(
9.30226
7.40107
5.13377
3.92016
3.35971
2.92463
2.73446
2.43144
2.36219
2.18941
2.12439
2.04739
1.97293
1.94947
1.85576
1.90282
1.82062
1.87023
2.01249
1.62956
4.51911
6.19279
5.84988
5.03604
4.44705
3.8917
3.65172
3.25851
3.15423
2.93232
2.81697
2.73466
2.60651
2.57663
2.45507
2.48585
2.37674
2.41824
2.45743
2.42772
1.33792
3.26797
4.0083
3.95278
3.7857
3.4236
3.27032
2.97192
2.87248
2.70519
2.57717
2.52459
2.39575
2.37207
2.26272
2.27533
2.17644
2.20345
2.14113
2.24145
0.210371
1.1866
1.94592
2.30193
2.53437
2.49645
2.48116
2.39011
2.31693
2.24687
2.13873
2.11383
2.02616
2.01038
1.92848
1.92853
1.85915
1.86175
1.7756
1.84116
0.0263551
0.254307
0.664003
0.932876
1.27555
1.40476
1.54466
1.60947
1.6101
1.62985
1.60152
1.60001
1.56939
1.56608
1.53232
1.52132
1.49619
1.47544
1.41312
1.40915
0.00278809
0.042381
0.153099
0.243765
0.437905
0.557057
0.687675
0.838513
0.879985
0.971995
1.00103
1.03678
1.05624
1.07334
1.088
1.07646
1.09209
1.05993
1.0476
1.01183
0.000295574
0.00624411
0.0251374
0.0456288
0.0979447
0.152371
0.196987
0.304104
0.342251
0.417049
0.477898
0.506774
0.567916
0.591203
0.644292
0.644382
0.680007
0.657981
0.666628
0.638931
5.48211e-05
0.000867284
0.00345709
0.00661387
0.0145402
0.0284506
0.0393101
0.072098
0.0883166
0.119319
0.158688
0.174266
0.212518
0.232375
0.278799
0.287559
0.327222
0.320077
0.330588
0.316089
2.75734e-05
0.000135834
0.000535335
0.000924302
0.00184941
0.00392709
0.00567721
0.0119249
0.0154029
0.0222909
0.0352989
0.0403435
0.0526155
0.0608189
0.0802969
0.0859182
0.107738
0.107312
0.111551
0.106146
2.4373e-05
4.53957e-05
0.000125633
0.000182183
0.000337871
0.000600005
0.000819009
0.00173175
0.00213831
0.00300779
0.00531336
0.006206
0.0085112
0.0104932
0.0153236
0.0167665
0.0229632
0.0231653
0.0237335
0.0225297
2.56698e-05
3.55947e-05
6.86267e-05
7.66455e-05
9.25031e-05
0.000137547
0.000182429
0.000329388
0.000372237
0.000470562
0.000722461
0.000789712
0.00106908
0.00138017
0.00212151
0.00230976
0.0033116
0.00333105
0.00333862
0.00326596
2.29271e-05
3.206e-05
6.41203e-05
6.18821e-05
5.62028e-05
5.80512e-05
6.82971e-05
0.000115996
0.000190886
0.00023573
0.000239695
0.000221561
0.000228337
0.000243583
0.000287106
0.000311305
0.000470401
0.000525311
0.000543767
0.000508576
2.23415e-05
3.6231e-05
5.05968e-05
4.82068e-05
4.9611e-05
5.28064e-05
5.90134e-05
8.6905e-05
0.000137924
0.000144819
0.000140662
0.000129071
0.000117787
0.000113027
0.000116661
0.000129392
0.000176278
0.000187468
0.000192359
0.000191803
2.14666e-05
3.32558e-05
3.73564e-05
4.62319e-05
6.13723e-05
6.2778e-05
6.23666e-05
6.64519e-05
7.29536e-05
7.48378e-05
7.91617e-05
9.44898e-05
9.76258e-05
9.87281e-05
0.000103276
0.000103903
0.000106449
0.000104416
0.00010957
0.000125522
2.10666e-05
2.72041e-05
3.7552e-05
5.49228e-05
5.79746e-05
5.74595e-05
5.18041e-05
4.90179e-05
4.9276e-05
5.62021e-05
7.71583e-05
8.77409e-05
8.88447e-05
8.83497e-05
8.02291e-05
7.20695e-05
7.20993e-05
7.33737e-05
8.85789e-05
0.000121396
2.11677e-05
2.6723e-05
4.18958e-05
4.73906e-05
4.62302e-05
4.45984e-05
4.34642e-05
4.38359e-05
4.65479e-05
5.99501e-05
7.08822e-05
7.15695e-05
6.98023e-05
6.39127e-05
6.02632e-05
5.9473e-05
6.32754e-05
6.66407e-05
7.39815e-05
8.98258e-05
2.09081e-05
2.73619e-05
3.38506e-05
3.77397e-05
4.36925e-05
4.57358e-05
4.54099e-05
4.48984e-05
4.51249e-05
4.69976e-05
5.23897e-05
5.31426e-05
5.42357e-05
5.44018e-05
5.69431e-05
6.20971e-05
6.38071e-05
6.1563e-05
6.20948e-05
7.11231e-05
2.0549e-05
2.72044e-05
3.16524e-05
3.67978e-05
4.27436e-05
4.46103e-05
4.38003e-05
4.29919e-05
4.24217e-05
4.32617e-05
4.70704e-05
4.89999e-05
4.98128e-05
5.06652e-05
5.439e-05
5.46666e-05
5.30387e-05
5.17251e-05
5.38832e-05
5.51453e-05
2.05573e-05
2.71815e-05
3.43717e-05
3.46805e-05
3.58037e-05
4.0188e-05
4.11211e-05
4.15643e-05
4.12906e-05
4.15002e-05
4.35799e-05
4.49487e-05
4.65071e-05
4.7015e-05
4.72883e-05
4.67496e-05
4.68019e-05
4.8642e-05
4.949e-05
5.40523e-05
2.05963e-05
2.56776e-05
3.18504e-05
3.57112e-05
3.77384e-05
4.04299e-05
4.06715e-05
4.062e-05
3.97222e-05
3.97094e-05
4.11997e-05
4.35561e-05
4.49579e-05
4.49976e-05
4.45696e-05
4.4474e-05
4.45897e-05
4.75314e-05
4.64988e-05
5.08208e-05
2.05235e-05
2.43787e-05
3.54137e-05
3.79907e-05
3.63749e-05
3.6308e-05
3.77556e-05
4.07008e-05
4.09723e-05
4.15314e-05
4.27027e-05
4.27344e-05
4.28132e-05
4.28006e-05
4.29249e-05
4.31588e-05
4.36338e-05
4.51795e-05
4.51214e-05
4.72764e-05
2.05466e-05
2.5781e-05
3.60328e-05
3.54042e-05
3.41627e-05
3.68559e-05
4.24058e-05
4.32488e-05
4.23752e-05
4.1971e-05
4.19677e-05
4.17196e-05
4.27068e-05
4.40401e-05
4.53072e-05
4.54951e-05
4.59085e-05
4.60518e-05
4.70291e-05
5.74273e-05
2.06171e-05
2.74364e-05
3.27152e-05
3.32436e-05
3.64979e-05
4.47135e-05
4.52917e-05
4.38442e-05
4.2209e-05
4.2932e-05
4.33434e-05
4.41198e-05
4.72976e-05
4.79073e-05
4.74645e-05
4.75691e-05
4.7182e-05
4.72845e-05
4.83111e-05
5.14978e-05
2.07353e-05
2.61318e-05
3.13555e-05
3.89314e-05
4.31726e-05
4.53872e-05
4.44489e-05
4.33284e-05
4.42747e-05
4.71506e-05
4.7577e-05
4.87802e-05
5.03866e-05
4.96675e-05
4.97818e-05
4.9936e-05
5.02971e-05
5.35169e-05
5.54086e-05
6.41288e-05
2.09023e-05
2.56825e-05
3.49176e-05
4.31442e-05
4.39487e-05
4.58402e-05
4.58609e-05
4.71937e-05
5.09272e-05
5.08841e-05
5.04832e-05
5.18234e-05
5.22955e-05
5.28603e-05
5.53708e-05
5.69341e-05
6.09971e-05
6.34399e-05
6.41241e-05
7.11916e-05
2.11553e-05
2.73106e-05
3.72887e-05
4.26759e-05
4.46924e-05
5.15726e-05
5.48236e-05
5.60994e-05
5.52312e-05
5.3399e-05
5.38675e-05
5.79467e-05
6.01052e-05
6.63694e-05
6.82902e-05
6.89429e-05
7.14112e-05
7.20467e-05
7.49466e-05
8.70304e-05
2.13432e-05
2.91033e-05
3.47116e-05
4.65602e-05
5.58877e-05
6.30161e-05
6.43716e-05
6.25773e-05
5.9766e-05
5.99554e-05
6.56728e-05
7.07375e-05
7.7265e-05
8.41073e-05
8.34359e-05
8.49719e-05
8.90628e-05
9.80613e-05
0.000123868
0.000194297
2.17031e-05
2.7852e-05
3.92629e-05
6.28595e-05
7.22703e-05
7.40713e-05
7.3541e-05
6.90006e-05
6.91514e-05
7.46028e-05
8.74136e-05
9.71508e-05
0.000109572
0.000115864
0.000119045
0.000138108
0.000171238
0.000249134
0.000421635
0.000807403
2.24916e-05
2.89763e-05
6.03014e-05
8.37728e-05
8.8714e-05
8.64081e-05
8.64957e-05
8.59014e-05
9.99912e-05
0.00012385
0.000154974
0.000185717
0.000233278
0.00028522
0.000341368
0.000549123
0.000814896
0.00144805
0.002468
0.00536531
2.3257e-05
3.34921e-05
0.000100715
0.000117453
0.000118568
0.000127314
0.000143193
0.000175818
0.000331878
0.000467223
0.000598768
0.00085963
0.00117451
0.00185795
0.00238696
0.0040749
0.00572187
0.00966409
0.0144443
0.0290012
2.50899e-05
5.2371e-05
0.000194452
0.000230353
0.000264899
0.000493853
0.000705494
0.00108346
0.00239106
0.00342636
0.00442479
0.00666022
0.00893727
0.013934
0.0170585
0.0261269
0.0332149
0.0499185
0.0655415
0.114481
2.87103e-05
0.000152476
0.000633057
0.000972622
0.00149543
0.00393589
0.00610754
0.00905594
0.0179221
0.024387
0.0303687
0.0430513
0.0541171
0.074141
0.0852225
0.11556
0.136095
0.179983
0.213835
0.314362
5.03072e-05
0.000863924
0.00372976
0.00708677
0.0120422
0.0296271
0.044076
0.0594252
0.100368
0.120941
0.148737
0.183499
0.218422
0.261505
0.286109
0.346823
0.383118
0.447768
0.493913
0.609302
0.000284302
0.00618132
0.0259623
0.0494311
0.0812713
0.162667
0.213242
0.269244
0.372599
0.409797
0.474062
0.522879
0.581821
0.627752
0.658282
0.723438
0.757063
0.81079
0.852054
0.945292
0.00276363
0.042929
0.154297
0.254162
0.402995
0.589366
0.693957
0.80236
0.921081
0.954232
1.01594
1.04047
1.08532
1.09918
1.11968
1.14802
1.16875
1.18919
1.21945
1.26385
0.0261024
0.260016
0.659351
0.945156
1.2454
1.43819
1.53682
1.59712
1.63253
1.61983
1.61975
1.598
1.5974
1.57525
1.57034
1.55577
1.55416
1.54178
1.54397
1.53714
0.207705
1.19147
1.93789
2.30752
2.52626
2.51393
2.47658
2.39392
2.31854
2.22747
2.17625
2.08401
2.05872
1.98864
1.96484
1.90606
1.88374
1.83035
1.79827
1.74615
1.32127
3.28359
4.00232
3.9526
3.78697
3.43679
3.24302
3.00879
2.84646
2.70199
2.60285
2.47019
2.42355
2.31227
2.27224
2.16983
2.12364
2.01972
1.944
1.83119
4.5019
6.20928
5.84726
5.03238
4.45334
3.89334
3.62096
3.3082
3.10767
2.93686
2.81811
2.66917
2.60603
2.46712
2.41578
2.27412
2.20234
2.04843
1.93078
1.74042
9.28214
7.41287
5.13094
3.91696
3.36692
2.92423
2.7065
2.4684
2.3208
2.18658
2.10454
1.99546
1.93609
1.81915
1.77497
1.6427
1.56291
1.41058
1.28652
1.08482
1.09204
0.986764
0.883995
0.832308
0.839235
0.743356
0.593438
0.580982
0.45092
0.399561
0.433852
0.438495
0.404842
0.313497
0.24482
0.189803
0.163714
0.160942
0.165204
0.187159
0.201228
0.221279
0.222297
0.216806
0.206758
0.190668
0.147425
0.0688446
0.0284657
0.0119064
0.00549732
0.00362603
0.00299282
0.00318174
0.00391221
0.00451208
0.00540667
0.00677402
0.011502
0.0127747
0.0132945
0.0152596
0.0194856
0.0328604
0.0460518
0.0596438
0.100622
0.238152
0.277467
0.259869
0.163872
0.0884161
0.0585186
0.0486813
0.0463478
0.0468104
0.0490467
0.0510688
0.0503723
0.0484414
0.0450083
0.0399883
0.036832
0.0356533
0.034762
0.033964
0.0337026
0.0342444
0.0448129
0.057286
0.0692113
0.0859094
0.0951376
0.103669
0.113657
0.1143
0.0999361
0.0997986
0.13123
0.13961
0.116138
0.0727548
0.0563588
0.052354
0.0496453
0.039755
0.0299492
0.0285843
0.0321101
0.0337543
0.0322677
0.0266887
0.0215672
0.0199004
0.0207723
0.0215051
0.0226545
0.0242201
0.0251883
0.025052
0.0250486
0.0261222
0.0297601
0.0372433
0.0586612
0.12884
0.16634
0.16985
0.154462
0.118409
0.0892356
0.0691199
0.0588228
0.0540359
0.0520832
0.0515619
0.0499797
0.0491612
0.0494019
0.0564336
0.0670853
0.074171
0.0788384
0.0791501
0.0739776
0.0643152
0.0549592
0.0456635
0.0365195
0.0287372
0.0233128
0.0187539
0.0148123
0.0116987
0.00970281
0.00888585
0.00878735
0.00953851
0.0119946
0.0141387
0.0154712
0.0152955
0.0137989
0.0134613
0.0139487
0.0186211
0.0232756
0.0241351
0.0256104
0.030656
0.0372226
0.0472393
0.0606887
0.0721103
0.0784168
0.079366
0.0795678
0.0726519
0.0558857
0.0372731
0.0263741
0.0215211
0.0183065
0.0157186
0.0136047
0.01266
0.0125817
0.0128178
0.0137034
0.0155427
0.0202276
0.0232687
0.0272526
0.0308704
0.0350496
0.04537
0.0645806
0.0761719
0.0776919
0.0676947
0.044111
0.0330832
0.0328613
0.0402467
0.0451495
0.044547
0.0419553
0.0429032
0.0492289
0.0612417
0.0589232
0.058545
0.0580312
0.0587608
0.0632815
0.0810274
0.0815426
0.0669354
0.0676388
0.101387
1.91679
1.45034
1.16815
0.993012
0.868907
0.921744
0.844789
0.704913
0.646495
0.617553
0.561119
0.499786
0.418957
0.333299
0.259613
0.211335
0.194195
0.193633
0.204355
0.232696
0.246442
0.246398
0.236294
0.22287
0.207934
0.168702
0.0830555
0.0322712
0.0134899
0.00601605
0.00304043
0.00243043
0.00224068
0.00246643
0.00362049
0.00448534
0.00532377
0.00651851
0.0114055
0.013051
0.0133702
0.0151918
0.0176723
0.0225266
0.0349114
0.0479546
0.0766006
0.2042
0.274978
0.269474
0.196499
0.10359
0.0634833
0.0494056
0.0432952
0.0418581
0.042152
0.042989
0.0433617
0.0425152
0.0407994
0.0373941
0.0349788
0.0341167
0.0335471
0.033392
0.0335452
0.0341631
0.0444283
0.0583153
0.0705486
0.087878
0.0970237
0.105767
0.117362
0.11864
0.105484
0.106156
0.139959
0.147257
0.117895
0.0714847
0.055078
0.0512881
0.0489482
0.0398883
0.0300824
0.0289795
0.0332054
0.0345706
0.0319478
0.0252437
0.0207315
0.019724
0.0213597
0.0224317
0.0224452
0.02316
0.0247966
0.0249456
0.0249977
0.0259091
0.029232
0.0359677
0.0532573
0.117389
0.159552
0.165362
0.153648
0.118729
0.0908788
0.0716539
0.0600048
0.0532333
0.049264
0.0481691
0.0473812
0.0469518
0.0475536
0.0558952
0.0698871
0.0799441
0.082884
0.0814993
0.0749664
0.0659129
0.0562713
0.0462017
0.0363875
0.0283304
0.0229454
0.0185966
0.0147709
0.0118237
0.00987081
0.00910842
0.00899661
0.0097379
0.0120839
0.0139153
0.0145002
0.0137922
0.012311
0.0124046
0.0141596
0.022951
0.0269468
0.0272226
0.0285878
0.0334146
0.039627
0.0491241
0.0627015
0.0736174
0.0803687
0.0826813
0.0834611
0.0747072
0.0579561
0.0367385
0.0259977
0.0222759
0.019429
0.016347
0.0138589
0.012302
0.0117826
0.0118626
0.0124043
0.0138802
0.0181662
0.0208872
0.02557
0.0296007
0.0337524
0.0433826
0.0634704
0.0749942
0.0753833
0.0675808
0.0447542
0.0336971
0.0334179
0.0398275
0.044595
0.0433077
0.0436979
0.0412773
0.0462206
0.0553381
0.0620761
0.0587072
0.0584468
0.0591545
0.0682888
0.0718568
0.0686761
0.0740401
0.07134
0.0963985
1.87747
1.49624
1.21992
1.05829
0.874817
0.912727
0.877601
0.720161
0.660719
0.614112
0.541277
0.521046
0.47378
0.370412
0.28056
0.227252
0.208636
0.209694
0.226971
0.265383
0.272108
0.260068
0.239633
0.221924
0.179381
0.0866638
0.0352972
0.0143768
0.00636331
0.0030933
0.00187959
0.00185038
0.0019065
0.00217648
0.00348162
0.00456705
0.00554504
0.0067071
0.0113255
0.0134031
0.0136393
0.0152395
0.0170367
0.0192066
0.025477
0.0389666
0.0628048
0.167076
0.268501
0.274662
0.23078
0.1281
0.0731037
0.051737
0.0433265
0.0385297
0.0368842
0.0367672
0.037287
0.0375213
0.0370553
0.0355235
0.0337379
0.0331297
0.0329872
0.0330914
0.0335273
0.0342992
0.0445865
0.0597233
0.0723047
0.0903532
0.0996277
0.108228
0.121195
0.123309
0.111037
0.112274
0.148584
0.154601
0.119195
0.0704139
0.054103
0.0503962
0.0483058
0.0402523
0.0305687
0.0297256
0.0345538
0.0355613
0.0313399
0.0241826
0.0201853
0.0193843
0.0215372
0.0228784
0.022532
0.0226892
0.0242114
0.0247581
0.0248767
0.0257591
0.0287712
0.0349519
0.0493222
0.106272
0.15279
0.160935
0.152452
0.119657
0.0916188
0.0725897
0.0600407
0.0524759
0.0480428
0.0471365
0.0464531
0.0458793
0.0464628
0.0572396
0.0755429
0.083106
0.084306
0.0817294
0.0753927
0.0676616
0.0578768
0.0468887
0.0362824
0.0277709
0.0223322
0.0181685
0.014503
0.0118571
0.0101622
0.00935676
0.0091333
0.00982291
0.0118012
0.0129182
0.0128998
0.0115753
0.0110187
0.0119576
0.0163749
0.0285794
0.0309246
0.0308721
0.0318346
0.0360667
0.0423542
0.0514413
0.0645783
0.0758654
0.0836379
0.0876646
0.0884654
0.0790717
0.0633732
0.0373008
0.026999
0.0254975
0.0232271
0.0189554
0.014993
0.0126005
0.011614
0.011464
0.011698
0.0126546
0.0162918
0.0190676
0.0236144
0.0282813
0.0321079
0.0422783
0.0611007
0.0736181
0.0746189
0.0685666
0.0474915
0.035804
0.034499
0.0394428
0.0446797
0.0425783
0.0436929
0.0413732
0.0494149
0.0566239
0.0663256
0.063925
0.0605922
0.0606636
0.0661548
0.0724434
0.0683238
0.0752639
0.0735804
0.0912974
1.59513
1.3354
1.06746
0.982866
0.79724
0.785391
0.770455
0.695828
0.629891
0.549314
0.446937
0.429175
0.438026
0.429407
0.355534
0.28573
0.270633
0.276392
0.311265
0.313236
0.295469
0.26025
0.225126
0.173438
0.0763101
0.0327746
0.014409
0.00637995
0.00313307
0.00177968
0.00140259
0.00141274
0.00156673
0.00195882
0.00343931
0.00457427
0.00591726
0.00715268
0.0114619
0.0144559
0.014617
0.0154618
0.0163643
0.0174708
0.021192
0.032596
0.0550348
0.143907
0.257062
0.276847
0.253716
0.158794
0.0900209
0.0578114
0.0444259
0.0381753
0.0344846
0.0331707
0.0331027
0.034197
0.0345529
0.0341201
0.0330892
0.0327916
0.0327818
0.0330099
0.033796
0.0349266
0.0455717
0.0617918
0.074371
0.092838
0.103236
0.110587
0.12437
0.127701
0.116268
0.118112
0.157101
0.161842
0.12038
0.0694297
0.0530324
0.0494292
0.047657
0.0406823
0.0311016
0.0305666
0.0357871
0.0362889
0.0302017
0.023001
0.0195616
0.018755
0.0208447
0.0229452
0.0224461
0.0223413
0.0234598
0.0244164
0.0247048
0.0256584
0.0286909
0.0343722
0.0463363
0.0951501
0.145192
0.156553
0.151092
0.121216
0.0922439
0.0731322
0.0595092
0.0516926
0.0477619
0.0469843
0.0459311
0.0451487
0.0459598
0.0620769
0.0795039
0.0844188
0.0847913
0.0805798
0.0758212
0.0699268
0.0598062
0.0479352
0.036345
0.0270585
0.0214446
0.0175581
0.0140707
0.0117414
0.0102913
0.00941668
0.00915169
0.00973805
0.0108961
0.0112517
0.0107245
0.00998788
0.0104849
0.0126903
0.0218831
0.0334853
0.0344027
0.0343067
0.0347626
0.0389417
0.0454312
0.0528519
0.066234
0.0789162
0.0880534
0.0933557
0.0950497
0.0879487
0.0746573
0.0402832
0.0313576
0.0328653
0.0318364
0.0256144
0.0179751
0.0135153
0.0118506
0.0113103
0.0113534
0.011901
0.0147141
0.0176261
0.0221571
0.0265716
0.0306783
0.0414475
0.0606611
0.0718476
0.0747949
0.069568
0.0494716
0.0361239
0.0347192
0.0378057
0.0450833
0.0422481
0.0412012
0.0414522
0.0452921
0.0587148
0.0659399
0.0645088
0.0609756
0.0608525
0.0623723
0.0740907
0.0713495
0.0716955
0.0694267
0.0850399
1.24643
1.10326
0.891799
0.770723
0.670997
0.62216
0.604121
0.556759
0.529053
0.480082
0.3852
0.340444
0.352961
0.384683
0.387079
0.376359
0.36753
0.360205
0.351325
0.327249
0.266459
0.206425
0.130449
0.061262
0.0278859
0.0127254
0.00605619
0.00302708
0.00175893
0.00122159
0.00115915
0.00123237
0.00149787
0.00193428
0.00367303
0.00483693
0.00695517
0.00819608
0.0108531
0.0146817
0.0155904
0.0165905
0.0164442
0.0165218
0.0187518
0.0283858
0.0491363
0.128035
0.246797
0.279031
0.268506
0.199465
0.112071
0.0676786
0.047542
0.0388028
0.0343749
0.0321644
0.0316619
0.0324178
0.0334371
0.0333977
0.0329234
0.0328273
0.0329092
0.0333327
0.0345661
0.0360697
0.0471021
0.0646145
0.0770532
0.095637
0.107014
0.113311
0.127671
0.131799
0.121116
0.123924
0.165057
0.169153
0.121523
0.0687137
0.0519973
0.0483676
0.0469147
0.0410437
0.0315533
0.0312017
0.0366907
0.0368107
0.0288404
0.0217127
0.0187028
0.0179063
0.019891
0.0227315
0.0223409
0.0221081
0.0228761
0.0238807
0.0244159
0.0255579
0.0285708
0.0337471
0.044073
0.084789
0.13758
0.152488
0.149323
0.123571
0.093192
0.0737578
0.0591348
0.0509782
0.0477561
0.0469998
0.04552
0.044597
0.0465166
0.0676786
0.0818645
0.0849085
0.0842131
0.0781742
0.0751359
0.0718396
0.0620014
0.0491979
0.0361371
0.0260295
0.0205023
0.016777
0.0133524
0.0114416
0.0103002
0.00942204
0.00895733
0.00903065
0.00943409
0.00949054
0.00918266
0.00938176
0.0106194
0.0154737
0.0287354
0.0357383
0.0365376
0.0366122
0.0372888
0.0421041
0.0473158
0.0536567
0.0679625
0.0835725
0.0929301
0.0990159
0.105028
0.102383
0.0939702
0.0487649
0.041139
0.050152
0.0498465
0.038548
0.0226362
0.0155006
0.0124724
0.0113858
0.0112392
0.011482
0.0134167
0.0163506
0.0208009
0.0244451
0.0289249
0.0406248
0.0590254
0.0711189
0.0736503
0.0692687
0.049687
0.0370851
0.0357946
0.0381315
0.0467861
0.0426423
0.0460598
0.0432482
0.044909
0.0534365
0.060079
0.0620553
0.0604542
0.059746
0.0594441
0.0668124
0.0695647
0.0687707
0.0584034
0.0556092
0.874474
0.776763
0.691625
0.569262
0.502994
0.46721
0.440877
0.405655
0.384289
0.352122
0.292692
0.242427
0.23701
0.265889
0.310269
0.336622
0.338371
0.332277
0.310145
0.235114
0.153185
0.0800701
0.0409259
0.021058
0.0102574
0.00513399
0.00282323
0.00169166
0.00120367
0.00101281
0.00104697
0.00117685
0.00153971
0.00211078
0.00427202
0.00590264
0.00753064
0.0105757
0.0123592
0.0147867
0.0157386
0.0173484
0.0169171
0.0163311
0.0174585
0.02487
0.0436753
0.107809
0.237256
0.281303
0.276788
0.23152
0.137595
0.0822785
0.0544093
0.0413039
0.0351538
0.0324093
0.0317033
0.0321157
0.0332724
0.0335101
0.0335242
0.0336532
0.0340181
0.0346586
0.0360045
0.0376669
0.0492163
0.068015
0.0802278
0.0988112
0.111426
0.116641
0.130765
0.135657
0.12569
0.129422
0.172909
0.176381
0.122748
0.0679571
0.0506831
0.0469717
0.0459544
0.0412584
0.0317014
0.0315573
0.0375486
0.0373254
0.0276723
0.0203131
0.0177525
0.016911
0.0185428
0.0221445
0.0220983
0.021975
0.022605
0.0233887
0.0240368
0.0254534
0.0285068
0.0335296
0.0424375
0.0750874
0.128478
0.147728
0.146937
0.128656
0.0950733
0.0745697
0.0591855
0.0506223
0.0479926
0.0470322
0.0452696
0.0444452
0.0488762
0.0724031
0.0831741
0.0849871
0.0825076
0.0762856
0.0741556
0.0727043
0.0645235
0.0498749
0.0353005
0.0246315
0.0193583
0.015743
0.0124112
0.0110007
0.0102394
0.00917636
0.00844252
0.00844784
0.00866424
0.00862992
0.00862456
0.0092097
0.0121254
0.0222122
0.032812
0.0364684
0.037261
0.0373399
0.0387116
0.0440508
0.0486475
0.0546861
0.0709857
0.0884522
0.097185
0.105105
0.121839
0.125176
0.123656
0.0648101
0.057465
0.0816786
0.0830402
0.0615634
0.030553
0.0174558
0.0130348
0.0115517
0.0112228
0.0113008
0.0126119
0.0152418
0.0192154
0.0232712
0.0274952
0.0396008
0.0583464
0.0686533
0.0717125
0.0681009
0.0508599
0.0384434
0.0386346
0.0389327
0.0471041
0.0433386
0.0522244
0.0488288
0.0476919
0.0514701
0.0563972
0.0600913
0.0605305
0.0595814
0.0586678
0.0618561
0.0634049
0.0615299
0.0574007
0.0490825
0.557261
0.473454
0.444456
0.371093
0.308573
0.286898
0.267579
0.254089
0.23796
0.211198
0.169196
0.127432
0.117091
0.119506
0.165899
0.209519
0.211032
0.202348
0.169236
0.0977053
0.0537476
0.0283636
0.0149935
0.00795179
0.00415269
0.00245921
0.00164849
0.00118768
0.000998417
0.000950003
0.0010139
0.00122288
0.00178534
0.00268497
0.00572649
0.0089762
0.0095139
0.0120705
0.0138717
0.0161947
0.0169513
0.017617
0.0174142
0.0161905
0.0165656
0.0216839
0.0375957
0.0823159
0.218156
0.288715
0.290349
0.264486
0.176917
0.104921
0.0648823
0.0461372
0.0373653
0.033816
0.032777
0.0328782
0.033742
0.0352264
0.035766
0.0360574
0.0363931
0.0368903
0.0380736
0.0397837
0.0523682
0.0719684
0.0841553
0.102613
0.115984
0.120416
0.133242
0.139214
0.130032
0.134967
0.180685
0.183126
0.123745
0.0671144
0.0490817
0.0454331
0.0448749
0.0413589
0.0318318
0.0317687
0.0386634
0.0380409
0.0269072
0.0194449
0.0171427
0.0162553
0.017617
0.0213326
0.0216138
0.021847
0.022637
0.0231342
0.0237236
0.0252858
0.0285599
0.0333132
0.0411796
0.0667749
0.119766
0.14284
0.144103
0.133272
0.0995773
0.0761497
0.0593961
0.0507915
0.0489549
0.0472545
0.0452473
0.0446799
0.0524567
0.0755345
0.0839772
0.0853712
0.0817883
0.0759893
0.0741429
0.0734044
0.0661653
0.0499388
0.0338052
0.0231869
0.0182697
0.0145236
0.0115445
0.0106265
0.00996413
0.00873287
0.00823352
0.00832202
0.00849072
0.00841432
0.00849477
0.0098806
0.0162414
0.0282485
0.034254
0.0365938
0.0373689
0.0374889
0.0394636
0.0449445
0.0492455
0.0563235
0.0753632
0.0927626
0.1013
0.112715
0.148177
0.159422
0.161791
0.0888977
0.0783197
0.124782
0.13019
0.0952306
0.0433023
0.0211072
0.0140622
0.0117837
0.0111876
0.0112455
0.0120277
0.01466
0.0180184
0.0218099
0.0265933
0.0382291
0.0586028
0.0675409
0.0710127
0.0686835
0.0522297
0.042699
0.0389394
0.0391675
0.0459797
0.0470447
0.050794
0.0575415
0.056385
0.055382
0.05681
0.0590958
0.0598896
0.0580777
0.0580394
0.0603848
0.0614342
0.0598894
0.057841
0.0494045
0.271486
0.230067
0.21562
0.1693
0.133168
0.119344
0.106949
0.103296
0.0984528
0.0871201
0.0655357
0.0455318
0.0401801
0.0384718
0.0482019
0.0774444
0.078314
0.0741867
0.0578868
0.03409
0.0190051
0.0104085
0.00580312
0.00322202
0.00204244
0.00153535
0.00121653
0.00100302
0.000939054
0.000942419
0.00105865
0.00148089
0.00240363
0.00418617
0.00849083
0.0142106
0.0147606
0.0161196
0.0164767
0.0173559
0.0184538
0.0181543
0.0176975
0.016373
0.016238
0.0188456
0.0294888
0.0567258
0.176995
0.283144
0.304547
0.291011
0.225603
0.134919
0.0844183
0.0578261
0.0451625
0.0397606
0.0373027
0.0364836
0.0371486
0.0401882
0.0410587
0.0401517
0.0397027
0.0398376
0.0406566
0.0423617
0.0564123
0.0765477
0.0886218
0.106908
0.120274
0.124529
0.135558
0.1425
0.13388
0.140227
0.188524
0.189725
0.124933
0.0659476
0.0472292
0.0440677
0.0441959
0.0417274
0.0322726
0.0321691
0.0402846
0.0392172
0.026573
0.0190971
0.0169324
0.0160508
0.0168872
0.020435
0.0213029
0.021861
0.0228156
0.0230581
0.0234535
0.024959
0.0286095
0.0334203
0.0404564
0.0596249
0.109804
0.136854
0.140415
0.134798
0.109245
0.0790968
0.0608328
0.0528202
0.0506119
0.0477592
0.045579
0.0454768
0.0566134
0.0780261
0.085916
0.0868336
0.0816522
0.076328
0.0750806
0.0743997
0.0668663
0.0486362
0.031967
0.0226977
0.0177392
0.0137443
0.0112963
0.010578
0.00952775
0.00850305
0.00820018
0.00835503
0.00845292
0.00837852
0.00860431
0.0112141
0.0218986
0.0309734
0.0345153
0.03627
0.0367948
0.0373414
0.0402112
0.0453122
0.0494139
0.0579604
0.0806979
0.0962981
0.106356
0.120865
0.176682
0.19823
0.201082
0.115641
0.0927261
0.158379
0.175358
0.129185
0.0554665
0.0248005
0.0148673
0.0122429
0.0112395
0.0112122
0.0117115
0.0138712
0.016554
0.0201868
0.0251636
0.0372709
0.0576243
0.0681506
0.069496
0.0695237
0.054663
0.0416644
0.0393802
0.0400918
0.0521172
0.0494116
0.0533573
0.0568156
0.0566158
0.0580889
0.057979
0.058065
0.0573466
0.0553716
0.0565532
0.06034
0.0622896
0.0618265
0.0556717
0.0488258
0.0904402
0.0793153
0.0728524
0.0528701
0.0419337
0.0370822
0.0321348
0.0316741
0.0308352
0.0264151
0.0191742
0.013028
0.0113637
0.0104834
0.0110982
0.0212068
0.0235707
0.0229864
0.0181855
0.0110567
0.00684294
0.00405683
0.00243411
0.00160856
0.00134205
0.00119928
0.00104703
0.000948948
0.00093638
0.000995434
0.00130219
0.00235454
0.00399805
0.00763659
0.0140651
0.0221025
0.0224622
0.0225834
0.0214841
0.0196228
0.0201071
0.0194208
0.0177829
0.0168834
0.0163486
0.0172525
0.0226799
0.0373915
0.0984214
0.256291
0.311058
0.309854
0.278602
0.182591
0.112477
0.0758589
0.0571965
0.0503556
0.0476264
0.0444674
0.0444603
0.0461916
0.0473884
0.0456476
0.0436031
0.0433723
0.0439498
0.0457302
0.0617522
0.0818111
0.0936814
0.112018
0.124939
0.128686
0.138046
0.145219
0.137336
0.14527
0.19592
0.195865
0.126282
0.064492
0.0454838
0.0435533
0.0441119
0.0423384
0.0331162
0.0328464
0.0422733
0.04076
0.0265088
0.0189933
0.0169051
0.0160363
0.0164987
0.0191809
0.0205541
0.0222089
0.0233134
0.0231314
0.0232913
0.0247417
0.028676
0.0337327
0.0398883
0.0548122
0.0992494
0.130853
0.137659
0.1344
0.119232
0.0859536
0.0658854
0.0570657
0.0525224
0.0483139
0.0464135
0.0470126
0.0613057
0.0817
0.0882333
0.0881317
0.0813372
0.0773162
0.0764974
0.075856
0.0668587
0.0461567
0.0308227
0.0225831
0.0175714
0.0134647
0.0112592
0.0105977
0.00938616
0.00842857
0.00826527
0.00850737
0.00850979
0.00844489
0.00892234
0.0136217
0.0256897
0.0321358
0.0334189
0.0346328
0.0352774
0.0366838
0.0409026
0.0453563
0.0494192
0.0605172
0.0857511
0.0988827
0.109736
0.132943
0.186938
0.204526
0.212464
0.13398
0.0997949
0.165387
0.195613
0.151933
0.0643713
0.0282348
0.0156236
0.0122063
0.0114064
0.0111798
0.0116185
0.0131952
0.0160003
0.019175
0.0236469
0.0369137
0.0554638
0.0675458
0.069532
0.0687022
0.0594436
0.0428962
0.043018
0.0431815
0.0526026
0.0528622
0.0536306
0.0550625
0.0553845
0.0573446
0.0571817
0.0564175
0.055731
0.0536765
0.0537585
0.0580967
0.0603356
0.0605025
0.0535745
0.0502646
0.0204069
0.0186226
0.0164884
0.0115872
0.00947057
0.00850343
0.00776698
0.00783917
0.00761872
0.00589393
0.00422219
0.00300685
0.0027071
0.00255481
0.00257446
0.00561101
0.00686785
0.00658254
0.00498603
0.00363944
0.00268413
0.00175147
0.00127848
0.00112515
0.0011114
0.00106541
0.00098478
0.000944874
0.000992156
0.0012392
0.00209925
0.00478637
0.00771241
0.0164972
0.023102
0.0326652
0.0338513
0.0331505
0.0294073
0.0233125
0.0223929
0.0213064
0.0182759
0.0172448
0.0165882
0.0168193
0.0193795
0.0264431
0.0526132
0.185922
0.297217
0.323449
0.312591
0.263384
0.15362
0.0971051
0.0681561
0.0583602
0.0560075
0.0516765
0.0507456
0.0520759
0.0535967
0.0518767
0.0483395
0.0474581
0.0478673
0.0499454
0.0682726
0.0877547
0.0991446
0.117749
0.12961
0.132659
0.140156
0.147419
0.140416
0.150115
0.202515
0.201364
0.128222
0.0631668
0.0444653
0.0434543
0.0444501
0.043496
0.0343259
0.0334141
0.043425
0.0423184
0.0270162
0.0191875
0.0173361
0.016463
0.0165446
0.01822
0.0200528
0.022648
0.0235582
0.0232399
0.0232844
0.0246712
0.0288206
0.0339475
0.0399568
0.0517517
0.0887578
0.12171
0.132843
0.132745
0.125492
0.101341
0.0766959
0.0624271
0.054467
0.0495061
0.0489702
0.0513411
0.0680823
0.0858306
0.0908482
0.0889085
0.0812973
0.0789202
0.0785015
0.0771912
0.0648969
0.0442165
0.030178
0.0226496
0.0174636
0.0132613
0.0113133
0.0105934
0.00929065
0.00845048
0.00844151
0.00880402
0.00876242
0.00874507
0.00951546
0.0163644
0.0286219
0.0324736
0.0324125
0.0327987
0.0332993
0.0353836
0.0410372
0.0445677
0.0491933
0.0654264
0.0880012
0.100619
0.112806
0.150631
0.195049
0.198271
0.208578
0.141851
0.110493
0.17566
0.207802
0.167994
0.0695028
0.0284894
0.0157761
0.0126294
0.0114048
0.0112714
0.0114513
0.0130619
0.0151781
0.0181507
0.0234753
0.0354174
0.0551435
0.0653331
0.0677531
0.0688742
0.064765
0.0473652
0.0491148
0.0469523
0.0524523
0.0580517
0.0574687
0.056445
0.0556039
0.0568481
0.0564106
0.0562875
0.0549327
0.052893
0.0528899
0.0555046
0.057498
0.0578103
0.0520728
0.0532294
0.00300367
0.00282327
0.00235047
0.00203879
0.00190792
0.0019235
0.00184179
0.0017676
0.00158752
0.00119291
0.000957308
0.000891469
0.000906148
0.000887116
0.0009764
0.00177835
0.00191985
0.00181581
0.00168554
0.00157309
0.00125785
0.00099861
0.000968423
0.00101315
0.00103448
0.00100683
0.000970604
0.00100567
0.00121768
0.00198862
0.00440606
0.0103125
0.0161346
0.0334762
0.0412224
0.0474716
0.0476054
0.0463602
0.0407508
0.0289114
0.0257487
0.0234084
0.018901
0.0175263
0.0166625
0.0166579
0.0177539
0.0212713
0.0314117
0.0857913
0.251104
0.318919
0.327101
0.307543
0.233754
0.138702
0.0879655
0.0686062
0.0636625
0.0582007
0.0565923
0.0578513
0.0595675
0.0579782
0.0534994
0.0521358
0.0525196
0.055249
0.0761081
0.0942609
0.105184
0.124041
0.134485
0.136405
0.141785
0.148895
0.142803
0.154545
0.208353
0.206394
0.130691
0.0625116
0.0443091
0.0435769
0.0454586
0.045169
0.03564
0.0334803
0.0434409
0.0436796
0.0285633
0.0200912
0.0185022
0.0177889
0.0171904
0.0181316
0.0201196
0.0231748
0.0241662
0.0235433
0.0233735
0.0247304
0.0290867
0.0344836
0.0402773
0.0498312
0.0799927
0.114664
0.127932
0.129212
0.125659
0.113195
0.090835
0.0728856
0.0599183
0.0561078
0.0570869
0.0604398
0.0768283
0.0906283
0.0932874
0.088504
0.0822117
0.0811755
0.080985
0.0784096
0.0621727
0.0423064
0.0297348
0.0227657
0.0171945
0.012989
0.011358