/*--------------------------------*- C++ -*----------------------------------*\
| =========                 |                                                 |
| \\      /  F ield         | OpenFOAM: The Open Source CFD Toolbox           |
|  \\    /   O peration     | Version:  2.4.0                                 |
|   \\  /    A nd           | Web:      www.OpenFOAM.org                      |
|    \\/     M anipulation  |                                                 |
\*---------------------------------------------------------------------------*/
FoamFile
{
    version     2.0;
    format      ascii;
    class       volScalarField;
    location    "0.218";
    object      p;
}
// * * * * * * * * * * * * * * * * * * * * * * * * * * * * * * * * * * * * * //

dimensions      [0 2 -2 0 0 0 0];

internalField   nonuniform List<scalar> 
17600
(
44.2363
28.4775
24.073
22.9931
22.0039
21.0314
20.2266
19.3766
18.6065
17.9766
17.118
16.4221
15.7236
15.0322
14.1653
13.6821
12.7858
12.2067
11.499
10.1197
42.3275
28.5271
24.1136
23.0029
22.0078
21.0311
20.2274
19.3772
18.606
17.9771
17.1188
16.4207
15.7241
15.0329
14.1647
13.6808
12.7877
12.1971
11.5114
9.94179
40.9136
28.7825
24.2573
23.0417
22.0217
21.035
20.2303
19.3791
18.6067
17.9789
17.1195
16.4197
15.7248
15.034
14.1636
13.6805
12.7907
12.182
11.5367
9.83239
39.9374
29.1235
24.4771
23.1073
22.0509
21.0502
20.239
19.386
18.6113
17.9826
17.1214
16.4201
15.7269
15.0352
14.1655
13.6803
12.7994
12.1657
11.5719
9.81145
39.1152
29.4583
24.7409
23.1896
22.093
21.0798
20.2571
19.4016
18.6232
17.9898
17.1273
16.4231
15.7311
15.037
14.173
13.6799
12.817
12.1515
11.6334
9.8917
38.341
29.7506
25.0183
23.2715
22.135
21.118
20.2829
19.4266
18.6437
18.0009
17.1392
16.43
15.7377
15.0403
14.1881
13.6791
12.8445
12.1452
11.7259
10.0724
37.612
29.9976
25.2949
23.3472
22.168
21.154
20.3105
19.4578
18.6708
18.0142
17.1567
16.4411
15.7464
15.0457
14.2114
13.6789
12.8799
12.1533
11.8268
10.3439
36.9384
30.2024
25.5634
23.4186
22.1912
21.1823
20.3358
19.4917
18.7007
18.0275
17.1777
16.4546
15.7555
15.0528
14.2416
13.6794
12.9179
12.1803
11.8833
10.7311
36.3252
30.3694
25.8163
23.4925
22.2056
21.2014
20.3571
19.5267
18.7307
18.0396
17.2002
16.4687
15.7639
15.0613
14.2744
13.6849
12.9554
12.2254
11.8997
11.1019
35.7747
30.4999
26.0514
23.5721
22.2121
21.2124
20.3746
19.5603
18.76
18.05
17.2234
16.4809
15.7721
15.0705
14.307
13.6927
12.9927
12.2805
11.9501
11.4871
35.285
30.5959
26.2682
23.6587
22.2122
21.2173
20.3886
19.5918
18.7885
18.0592
17.246
16.4907
15.7804
15.0807
14.3372
13.7038
13.0325
12.3394
12.033
11.8136
34.8524
30.6618
26.4659
23.7511
22.2077
21.2176
20.3986
19.6205
18.8167
18.0671
17.2674
16.4996
15.788
15.0923
14.3652
13.7188
13.0744
12.404
12.1226
12.0931
34.4755
30.7026
26.6428
23.8462
22.2008
21.2138
20.4051
19.6461
18.8446
18.0732
17.288
16.5074
15.7954
15.1044
14.3921
13.7397
13.1138
12.4782
12.2143
12.3233
34.1519
30.7262
26.7979
23.938
22.1938
21.2071
20.4094
19.668
18.8721
18.0782
17.3071
16.5142
15.8021
15.1182
14.4165
13.7652
13.1545
12.5573
12.3101
12.5063
33.879
30.7406
26.9299
24.0207
22.1884
21.1994
20.412
19.6864
18.8978
18.0823
17.3239
16.5229
15.8078
15.1341
14.4384
13.7936
13.1986
12.6338
12.4138
12.6504
33.6541
30.75
27.038
24.0913
22.1856
21.1917
20.4136
19.7016
18.9213
18.0848
17.3389
16.5305
15.8133
15.1504
14.4681
13.8213
13.2517
12.7065
12.527
12.7952
33.4756
30.7563
27.1227
24.1486
22.1859
21.1836
20.4146
19.7132
18.9435
18.0859
17.3513
16.5391
15.8179
15.1688
14.4919
13.8513
13.301
12.7774
12.6324
12.985
33.3421
30.7615
27.1841
24.1929
22.1871
21.177
20.4149
19.7213
18.9605
18.0888
17.361
16.5515
15.8204
15.1991
14.5127
13.8849
13.3452
12.8526
12.6794
13.0669
33.2532
30.7663
27.2238
24.2224
22.1916
21.1717
20.4157
19.7253
18.9752
18.0852
17.3694
16.562
15.8239
15.2143
14.536
13.9175
13.3921
12.9264
12.7233
13.194
33.2073
30.7716
27.2426
24.2369
22.1949
21.1689
20.4166
19.7265
18.985
18.0865
17.3743
16.5752
15.8252
15.2351
14.562
13.9475
13.442
12.9956
12.8015
13.2886
33.2042
30.7778
27.2425
24.2354
22.1977
21.1688
20.4178
19.7243
18.9906
18.0876
17.377
16.5882
15.8279
15.2521
14.5904
13.9754
13.4961
13.0579
12.9142
13.3601
33.2441
30.7849
27.2212
24.2176
22.2004
21.1714
20.4195
19.7191
18.9916
18.0876
17.3794
16.6004
15.8325
15.2665
14.6193
14.0051
13.5474
13.1215
13.0157
13.4749
33.3271
30.7924
27.1791
24.1845
22.2024
21.1767
20.4199
19.7124
18.9869
18.0881
17.376
16.6158
15.8349
15.2845
14.6467
14.0391
13.5908
13.1946
13.0504
13.5289
33.4545
30.7987
27.1163
24.1365
22.2059
21.1832
20.4209
19.7029
18.9786
18.0863
17.375
16.6287
15.8407
15.2985
14.676
14.0731
13.6353
13.2646
13.0876
13.6291
33.6268
30.8034
27.0315
24.0746
22.2104
21.1911
20.4198
19.6925
18.9652
18.0837
17.3721
16.641
15.8477
15.3107
14.7069
14.1065
13.6826
13.3286
13.1603
13.7075
33.8459
30.8044
26.9242
23.9989
22.2175
21.1994
20.4174
19.6804
18.948
18.0795
17.3692
16.6513
15.857
15.3204
14.7396
14.1393
13.7324
13.3883
13.2677
13.7619
34.1129
30.7993
26.7946
23.9108
22.2269
21.2081
20.4122
19.6667
18.9275
18.0737
17.3662
16.6593
15.8684
15.3282
14.7722
14.1754
13.7786
13.4515
13.3634
13.8573
34.4299
30.7837
26.6436
23.8137
22.2377
21.2161
20.4034
19.6529
18.9027
18.0679
17.3611
16.6677
15.8785
15.3387
14.8002
14.2179
13.8178
13.5242
13.3961
13.8864
34.8001
30.7494
26.4725
23.7137
22.2493
21.2204
20.3915
19.638
18.8764
18.0588
17.3574
16.672
15.8917
15.345
14.8309
14.2596
13.8599
13.5955
13.4317
13.9619
35.2263
30.6894
26.282
23.6166
22.2583
21.2208
20.3744
19.6228
18.8483
18.0476
17.3533
16.6735
15.9064
15.3495
14.8623
14.3009
13.9059
13.6639
13.4996
14.0054
35.7115
30.5974
26.072
23.5238
22.2628
21.2161
20.3519
19.6077
18.8185
18.0343
17.3492
16.6725
15.9209
15.3536
14.8914
14.3429
13.9529
13.7324
13.5994
14.0118
36.2589
30.4689
25.8422
23.4357
22.2623
21.2052
20.3239
19.5922
18.7883
18.0176
17.3458
16.6692
15.9349
15.3564
14.9198
14.3839
14.0007
13.7994
13.7225
13.9882
36.87
30.3013
25.5926
23.3527
22.2559
21.1876
20.2898
19.5758
18.7592
17.9981
17.3418
16.6655
15.9467
15.3595
14.9445
14.4226
14.0454
13.864
13.8316
13.9868
37.5423
30.0941
25.3272
23.2728
22.2404
21.1634
20.2517
19.5573
18.7326
17.9776
17.337
16.6619
15.9561
15.3633
14.9642
14.457
14.0837
13.9223
13.9074
13.9586
38.2702
29.8447
25.0541
23.191
22.2123
21.1322
20.2136
19.5376
18.7095
17.9591
17.332
16.6587
15.9638
15.3675
14.9796
14.4842
14.1157
13.9662
13.9634
13.9854
39.0438
29.55
24.78
23.1052
22.172
21.0983
20.1813
19.5197
18.6921
17.946
17.3283
16.657
15.9703
15.3721
14.9906
14.5037
14.14
13.996
14.0007
14.0023
39.8658
29.213
24.5187
23.0212
22.13
21.0713
20.1608
19.5073
18.6819
17.9394
17.3265
16.6566
15.9753
15.3765
14.9971
14.516
14.1559
14.0145
14.0197
14.0211
40.8418
28.8698
24.3002
22.9559
22.1001
21.0567
20.1526
19.501
18.6775
17.9378
17.3262
16.6564
15.9784
15.3802
14.9997
14.5217
14.1648
14.0232
14.0275
14.0427
42.2554
28.6126
24.1565
22.9183
22.0857
21.0518
20.1518
19.4985
18.6755
17.9386
17.3262
16.6557
15.9796
15.3825
14.9997
14.5225
14.1681
14.0249
14.0281
14.0667
44.1632
28.5624
24.1151
22.9093
22.0826
21.0501
20.1529
19.4979
18.6742
17.9398
17.3262
16.6549
15.9797
15.3833
14.999
14.5209
14.1684
14.0236
14.0254
14.0962
11.6601
10.9678
12.1384
13.5172
16.2589
17.378
13.2587
9.6157
6.25824
1.22076
-3.31811
-6.38352
-10.1691
-15.794
-21.0727
-24.4539
-27.4487
-30.922
-33.3579
-34.1632
-33.9883
-33.3138
-32.0755
-29.5085
-26.1513
-22.7477
-18.7379
-13.877
-8.12982
-2.69609
3.25791
8.70686
13.7355
19.2533
23.61
27.3174
30.7729
33.815
36.6203
38.3888
39.9439
41.6074
42.1794
41.8026
41.6249
41.9273
41.9494
41.6585
40.5606
37.4681
32.0049
24.5918
15.8795
6.73099
-2.2155
-10.4701
-17.8432
-24.3496
-29.7785
-34.0038
-36.4734
-36.8818
-35.9514
-34.0739
-31.3168
-28.1734
-24.4798
-19.091
-12.2237
-4.74298
4.16882
13.8584
21.817
27.8651
32.5081
35.4498
36.8062
37.3175
37.1365
36.0739
34.1764
31.6038
28.5884
24.8712
19.9448
13.7471
6.99061
1.0045
-5.206
-12.9276
-21.4912
-29.7042
-34.5832
-37.0123
-40.4793
-41.5175
-37.6796
-32.9069
-29.0471
-23.303
-15.7723
-8.82061
-2.73139
3.38331
9.32107
14.2669
17.5423
19.0409
19.3135
18.747
17.1895
15.0598
12.5353
9.45897
5.95619
2.22021
-1.47634
-4.56262
-7.36991
-9.7566
-10.4279
-9.65402
-8.30958
-6.14429
-3.18719
-0.0549424
3.1658
6.24643
8.88379
11.4872
14.0568
16.4145
18.8145
21.2606
23.4326
25.2031
26.8963
28.6466
30.0894
31.3572
32.6318
33.5953
34.3543
34.8632
35.1351
35.4309
35.7306
35.8565
35.9375
36.0594
35.8878
35.5038
34.8027
33.4425
30.7337
26.8739
21.9712
15.6656
9.4216
2.32674
-3.11945
-6.77778
-10.5917
-14.1556
-15.6181
-15.4106
-14.5009
-12.8687
-10.2151
-6.54099
-2.29036
2.28333
6.9758
11.4359
15.8155
19.8834
23.2385
25.7678
27.3789
28.0618
28.2726
28.0618
27.3162
26.6509
24.7496
23.0882
19.8461
15.6562
12.1026
5.80443
-0.39765
-7.57806
-13.9681
-17.3229
-18.1127
-16.1895
-13.449
-10.1178
-5.97767
-0.338997
11.5058
11.295
12.0983
13.4316
15.9879
16.9753
12.9926
9.13144
6.04539
0.9219
-4.35046
-6.64983
-8.76486
-13.7308
-19.0179
-22.6331
-25.2897
-28.3131
-30.8841
-31.8349
-31.5699
-30.9459
-30.0109
-27.7853
-24.5464
-21.023
-17.2305
-12.8406
-7.63205
-2.65564
2.91637
8.16157
12.8045
18.1604
22.5255
26.2658
29.7717
32.7898
35.7313
37.5994
39.1804
40.9017
41.494
41.2712
41.2665
41.5806
41.4923
41.1851
40.3427
37.7835
32.7998
25.6691
17.061
7.91168
-1.08786
-9.33798
-16.6478
-22.9632
-28.1347
-32.1727
-34.5325
-34.8558
-33.9476
-32.2271
-29.6348
-26.6376
-23.1548
-18.0464
-11.376
-4.05114
4.56387
14.0986
22.07
28.0494
32.6434
35.5694
36.9884
37.5863
37.4441
36.3117
34.3036
31.614
28.4712
24.6933
19.6867
13.4206
6.53488
0.267085
-6.12684
-14.1475
-23.0241
-31.1225
-35.929
-38.5935
-42.1901
-43.1874
-39.2966
-34.3918
-30.3758
-24.5085
-16.8067
-9.62941
-3.4668
2.5164
8.41869
13.4732
16.7475
18.2619
18.6222
18.0754
16.5791
14.5182
12.0403
9.066
5.70732
2.06198
-1.59398
-4.63295
-7.51804
-10.0272
-10.6124
-9.58204
-7.95594
-5.55049
-2.39195
0.887791
4.1378
7.14166
9.70582
12.272
14.7921
17.0341
19.314
21.6578
23.7829
25.5016
27.101
28.7986
30.2366
31.4613
32.6736
33.6064
34.3435
34.8404
35.0694
35.3469
35.6433
35.7683
35.8543
35.9763
35.7537
35.303
34.5231
33.0536
30.1339
26.2332
21.0649
14.4989
8.07608
0.669764
-4.60158
-8.19941
-12.2596
-16.0104
-17.5703
-17.364
-16.443
-14.841
-12.2001
-8.49613
-4.29033
0.555805
5.36776
10.1765
14.6343
19.029
22.488
25.1495
27.0373
27.6304
28.0653
27.7792
27.326
26.3621
24.7645
22.8591
19.6989
15.991
11.9937
5.98304
0.646551
-6.42872
-12.2264
-15.5927
-16.8159
-15.4025
-13.2143
-10.0236
-5.76127
-0.0882964
11.4171
11.6822
12.118
13.2352
15.3901
16.1303
12.6222
8.71131
5.7385
0.9947
-4.45494
-6.55751
-7.76623
-12.0678
-17.1942
-20.9256
-23.4105
-26.0828
-28.763
-29.9148
-29.5579
-28.7649
-27.9505
-25.9369
-22.8524
-19.2781
-15.6995
-11.8409
-7.23768
-2.74958
2.40883
7.49939
11.7427
16.9919
21.3079
24.9934
28.6143
31.7156
34.7632
36.7079
38.3377
40.1295
40.7619
40.7018
40.8758
41.2283
41.0784
40.7056
40.0995
38.1005
33.6753
26.9081
18.4623
9.32077
0.290977
-7.99755
-15.2824
-21.4531
-26.403
-30.2877
-32.5911
-32.8262
-31.8879
-30.2885
-27.8348
-24.9429
-21.6091
-16.7381
-10.3085
-3.14861
5.21139
14.5219
22.4364
28.315
32.858
35.7583
37.2252
37.9069
37.7988
36.6067
34.4947
31.7126
28.4395
24.5581
19.4658
13.1089
6.1505
-0.362581
-6.94557
-15.1875
-24.2922
-32.304
-37.1241
-40.1208
-43.8395
-44.7037
-40.6979
-35.6571
-31.507
-25.4921
-17.6197
-10.21
-3.96201
1.93254
7.81313
12.9077
16.1454
17.6796
18.1322
17.5661
16.1271
14.1729
11.7081
8.78472
5.55071
1.98425
-1.61418
-4.64112
-7.5992
-10.1594
-10.6024
-9.3015
-7.385
-4.7332
-1.42712
1.91341
5.17527
8.09348
10.5583
13.0538
15.5138
17.6539
19.8227
22.0564
24.1165
25.801
27.3373
28.9709
30.3901
31.5659
32.7262
33.6388
34.3597
34.8479
35.0283
35.2878
35.5883
35.712
35.7963
35.8896
35.6065
35.0926
34.2441
32.6324
29.5602
25.6128
20.2881
13.521
6.91761
-0.797383
-5.82908
-9.3992
-13.7671
-17.738
-19.386
-19.2507
-18.2152
-16.6806
-13.981
-10.3392
-5.94516
-1.09535
3.96046
8.83139
13.6919
18.0772
21.9862
24.7636
26.6763
27.5967
27.726
27.9112
27.3041
26.2133
25.0622
22.3581
20.1745
16.4681
12.4626
6.90236
1.00878
-5.22374
-10.6132
-14.2565
-16.0154
-14.961
-13.0856
-9.89674
-5.64868
-0.206964
11.369
12.0151
12.1539
12.8871
14.6521
15.1596
12.2185
8.35168
5.31391
1.28863
-3.72843
-6.02293
-6.96294
-10.6392
-15.4305
-19.2348
-21.755
-24.1248
-26.7928
-28.1477
-27.6445
-26.4943
-25.6236
-23.8187
-20.9626
-17.5746
-14.2077
-10.9546
-6.9297
-2.92651
1.7241
6.72471
10.6268
15.623
20.0377
23.7153
27.3075
30.4483
33.6677
35.7633
37.4355
39.2933
39.9905
40.0939
40.4456
40.8519
40.7056
40.2803
39.8642
38.3937
34.602
28.2898
20.0569
10.9728
1.88395
-6.47446
-13.7769
-19.87
-24.6235
-28.3991
-30.7024
-30.84
-29.8094
-28.2696
-25.9183
-23.101
-19.8561
-15.1662
-8.99928
-2.0685
6.06737
15.1298
22.9208
28.6696
33.117
36.0016
37.5005
38.2625
38.2002
36.9508
34.7515
31.8841
28.5227
24.5103
19.3383
12.9147
5.85126
-0.868492
-7.66156
-16.0495
-25.2853
-33.2665
-38.2092
-41.6003
-45.4455
-46.0833
-41.8686
-36.6907
-32.3906
-26.2265
-18.1772
-10.5336
-4.22056
1.62531
7.52045
12.6113
15.7695
17.3212
17.8471
17.2262
15.8101
13.9545
11.4729
8.55274
5.42256
1.98562
-1.52254
-4.52399
-7.53427
-10.082
-10.3498
-8.77853
-6.60361
-3.73723
-0.305122
3.03889
6.25781
9.08984
11.4433
13.8368
16.2231
18.277
20.3312
22.4542
24.4531
26.0916
27.5772
29.1531
30.5488
31.6795
32.7809
33.6933
34.4309
34.8925
35.0223
35.2517
35.5543
35.6876
35.7636
35.8061
35.4662
34.8857
33.9385
32.2093
29.0209
25.0996
19.6335
12.7636
5.88127
-2.02554
-6.75963
-10.4075
-15.0948
-19.3713
-20.9789
-20.9618
-20.0188
-18.2764
-15.6086
-12.0025
-7.52294
-2.61418
2.59481
7.75445
12.69
17.3537
21.4654
24.2435
26.2413
27.4889
27.6678
28.0164
26.968
26.4338
25.0843
22.6636
20.6254
16.2368
13.2094
7.67259
1.13996
-4.1836
-9.51854
-13.46
-15.4728
-14.4155
-12.3975
-9.69417
-5.67218
-0.502707
11.3484
12.206
12.2296
12.5753
13.9073
14.1042
11.7755
8.24669
4.95519
1.53707
-2.69712
-5.19506
-6.28217
-9.41185
-13.6589
-17.5077
-20.1429
-22.0808
-24.4079
-25.9195
-25.4625
-23.9858
-22.9606
-21.4169
-18.9468
-15.9633
-12.8943
-10.1512
-6.74159
-3.15545
0.971392
5.70415
9.46324
14.1357
18.4391
22.2306
25.9853
29.15
32.4123
34.6906
36.4589
38.3987
39.1962
39.4544
39.9729
40.4373
40.3544
39.9477
39.67
38.67
35.5498
29.7456
21.8388
12.8478
3.68346
-4.76958
-12.1447
-18.2178
-22.8195
-26.5324
-28.8818
-28.9011
-27.7139
-26.1713
-23.8689
-21.1066
-17.9167
-13.343
-7.44724
-0.801342
7.08736
15.9096
23.4969
29.0982
33.4154
36.2737
37.7981
38.6329
38.6382
37.3403
35.0611
32.115
28.6841
24.5665
19.3121
12.8738
5.71115
-1.22102
-8.20454
-16.7194
-26.021
-34.0239
-39.1776
-43.0363
-46.958
-47.2824
-42.7856
-37.4577
-33.0325
-26.7236
-18.4731
-10.6442
-4.25022
1.64805
7.55119
12.5704
15.6556
17.2376
17.7943
17.0849
15.6704
13.8768
11.3831
8.43943
5.43367
2.17213
-1.22493
-4.19441
-7.25657
-9.75571
-9.82497
-8.03052
-5.64763
-2.56623
0.967502
4.25744
7.3841
10.1138
12.3432
14.6183
16.9118
18.8939
20.8444
22.8608
24.783
26.3755
27.819
29.3467
30.7051
31.7962
32.8507
33.7425
34.5313
34.9684
35.0209
35.2187
35.5357
35.6823
35.7397
35.7321
35.3269
34.6981
33.6309
31.7965
28.5388
24.6696
19.1352
12.1296
4.91828
-2.97743
-7.49508
-11.1696
-16.3156
-20.8214
-22.9864
-22.7087
-21.6501
-19.8814
-17.0462
-13.3597
-8.97851
-3.83987
1.29345
6.86668
11.7744
16.7424
20.831
23.9173
25.9222
27.3016
27.539
27.6287
27.1181
26.5657
25.173
23.4367
20.4132
16.3989
13.9043
7.97409
1.82985
-3.22707
-8.44834
-12.312
-14.2429
-13.3275
-11.5916
-9.37475
-5.7126
-0.848795
11.3404
12.3435
12.2985
12.2518
13.1781
13.0577
11.2771
8.26464
4.77635
1.77915
-1.57134
-4.1557
-5.66746
-8.36558
-11.8935
-15.6651
-18.449
-19.962
-21.6642
-23.156
-23.0129
-21.4132
-20.1954
-18.948
-17.0529
-14.5237
-11.7569
-9.45483
-6.59635
-3.50191
0.149275
4.53994
8.07479
12.5442
16.7505
20.4651
24.3832
27.6978
31.0515
33.5307
35.4057
37.4319
38.3824
38.7818
39.4391
39.9804
40.0157
39.6898
39.5409
38.9556
36.4731
31.2615
23.7719
14.9125
5.69058
-2.86853
-10.3492
-16.4826
-20.9723
-24.6631
-27.0924
-26.9573
-25.5642
-23.9835
-21.6799
-18.9324
-15.7958
-11.3002
-5.65535
0.652861
8.2663
16.8267
24.1749
29.564
33.7378
36.5515
38.1033
38.997
39.0841
37.7748
35.3986
32.3864
28.8836
24.6829
19.371
12.9434
5.76143
-1.37325
-8.52101
-17.1378
-26.5139
-34.5928
-40.0159
-44.3578
-48.3385
-48.2632
-43.4396
-37.9772
-33.4343
-26.9621
-18.5474
-10.5422
-4.03265
1.9744
7.84403
12.794
15.8431
17.4638
17.984
17.1859
15.7834
14.0302
11.5513
8.58567
5.71496
2.63586
-0.655247
-3.61153
-6.72926
-9.17742
-9.06626
-7.07201
-4.50829
-1.24233
2.35388
5.56011
8.55957
11.1498
13.237
15.3949
17.5868
19.5035
21.3552
23.2685
25.1015
26.6484
28.0641
29.5403
30.8509
31.9147
32.9596
33.8377
34.6444
35.0678
35.0532
35.1935
35.5202
35.6892
35.7206
35.6539
35.1947
34.5207
33.3537
31.3785
28.1256
24.2515
18.7958
11.5101
3.89385
-3.6336
-8.04702
-11.8422
-17.2116
-22.0764
-24.3667
-24.4195
-23.2622
-21.2711
-18.2999
-14.7506
-10.1011
-5.0455
0.257349
5.82822
11.2306
15.9146
20.6615
23.7762
25.8761
27.3375
27.5406
27.6949
27.6786
26.4704
25.8523
23.421
20.3995
17.7224
14.3643
8.38432
2.96488
-1.99153
-6.90088
-10.4577
-12.4708
-12.0847
-10.7875
-8.97181
-5.67115
-1.15256
11.5068
12.448
12.246
11.8922
12.4906
12.0433
10.6655
8.33942
4.85238
2.02385
-0.53695
-2.99407
-4.97208
-7.41194
-10.2475
-13.6989
-16.585
-17.9166
-18.8971
-20.1271
-20.414
-18.9916
-17.668
-16.6161
-15.2635
-13.2554
-10.7095
-8.85527
-6.54285
-3.89806
-0.795209
3.21964
6.57586
10.7227
14.8698
18.5534
22.6259
26.064
29.5099
32.2404
34.2705
36.3993
37.5487
38.0832
38.8546
39.4682
39.6407
39.4623
39.4544
39.2164
37.3314
32.7886
25.7951
17.1348
7.89445
-0.730111
-8.36099
-14.6037
-19.0132
-22.7198
-25.2245
-24.9217
-23.3153
-21.6599
-19.3215
-16.5701
-13.48
-9.07281
-3.6412
2.30169
9.5861
17.8482
24.9424
30.071
34.0663
36.8156
38.4009
39.3473
39.5003
38.2199
35.7704
32.69
29.1199
24.8563
19.519
13.0908
5.93206
-1.32353
-8.60316
-17.2643
-26.7135
-34.9223
-40.6964
-45.4887
-49.4461
-48.8889
-43.7505
-38.1994
-33.5321
-26.928
-18.3611
-10.2276
-3.56951
2.60062
8.39287
13.2749
16.3432
17.9987
18.4292
17.5608
16.2006
14.4726
12.0226
9.05386
6.3087
3.40601
0.186512
-2.78375
-5.95771
-8.35033
-8.06462
-5.90357
-3.18523
0.247412
3.85349
6.92168
9.77996
12.2155
14.1384
16.1685
18.2634
20.1073
21.8561
23.6786
25.4208
26.9039
28.2966
29.7455
30.9967
32.0382
33.0884
33.9962
34.8022
35.1893
35.142
35.215
35.5172
35.6798
35.6821
35.5729
35.062
34.3297
33.0696
31.0053
27.7009
23.8879
18.4891
10.8658
2.83016
-4.15157
-8.48438
-12.4573
-17.8884
-22.945
-25.6396
-25.836
-24.8425
-22.485
-19.4236
-15.692
-11.1963
-6.05726
-0.517015
5.03292
10.657
15.5538
20.2808
23.7885
25.7094
27.5548
27.977
27.8396
27.9801
26.6125
26.4292
22.9253
21.3728
18.9304
14.5819
9.38133
4.18488
-0.661564
-5.32454
-8.72983
-10.9535
-11.1401
-10.1457
-8.68059
-5.6322
-1.41972
11.9843
12.663
12.1279
11.4499
11.7639
11.1323
10.0062
8.35228
5.09899
2.36502
0.373485
-1.84815
-4.14137
-6.51639
-8.77576
-11.6239
-14.4794
-15.9109
-16.2587
-17.0458
-17.7276
-16.6969
-15.3673
-14.406
-13.456
-12.0241
-9.81834
-8.30867
-6.5572
-4.4091
-1.77854
1.70895
4.86185
8.73281
12.7864
16.41
20.6278
24.2531
27.8073
30.8189
33.0619
35.3104
36.6749
37.3572
38.2214
38.9058
39.2088
39.21
39.3398
39.401
38.0663
34.2304
27.8333
19.4446
10.2764
1.63021
-6.13733
-12.4883
-16.8591
-20.5966
-23.1575
-22.6825
-20.8881
-19.1585
-16.7485
-13.9955
-10.9679
-6.65929
-1.45076
4.13513
11.0309
18.936
25.7451
30.5994
34.3843
37.0588
38.6734
39.6853
39.8838
38.6274
36.1437
33.031
29.4208
25.1181
19.7975
13.3629
6.18046
-1.13189
-8.47202
-17.1095
-26.5816
-34.9537
-41.0977
-46.3003
-50.1628
-49.1034
-43.6919
-38.1191
-33.4005
-26.6841
-17.9825
-9.73122
-2.80631
3.4508
9.15112
14.0352
17.1596
18.841
19.1276
18.2158
16.8995
15.1608
12.7453
9.80974
7.18453
4.43079
1.24971
-1.72962
-4.9319
-7.2492
-6.80099
-4.50076
-1.65177
1.88436
5.44411
8.35709
11.0351
13.2862
15.0694
16.9722
18.9341
20.6937
22.3571
24.079
25.7181
27.1562
28.526
29.9411
31.1369
32.1748
33.2516
34.178
34.9946
35.355
35.265
35.2958
35.5469
35.6665
35.6196
35.4764
34.9227
34.116
32.7693
30.6638
27.2862
23.5187
18.1117
10.1218
1.83301
-4.7308
-9.03831
-13.0903
-18.4462
-23.5791
-26.5814
-27.2009
-25.9843
-23.5031
-20.3721
-16.5199
-12.1181
-6.67063
-1.34097
4.4132
10.1377
15.5218
19.7562
24.0193
25.5071
27.4945
27.8651
27.7971
28.2953
27.2208
26.5671
23.5195
22.5184
19.1012
14.9299
10.7555
5.35646
0.417877
-4.075
-7.39454
-9.71049
-10.2374
-9.44495
-8.13027
-5.45483
-1.53842
12.7453
13.1398
12.0319
10.9845
11.0855
10.4148
9.40145
8.28972
5.46472
2.81147
1.17672
-0.767666
-3.2105
-5.61363
-7.42135
-9.61884
-12.2651
-13.8687
-13.8343
-14.1305
-15.0443
-14.4854
-13.2462
-12.3241
-11.7047
-10.7774
-9.004
-7.88655
-6.60063
-4.98243
-2.90219
0.0783031
2.93991
6.4958
10.3996
14.0081
18.3605
22.2386
25.9425
29.2594
31.7789
34.1724
35.7538
36.6088
37.5585
38.3397
38.7636
38.9231
39.1548
39.4632
38.6466
35.5271
29.7633
21.7297
12.7341
4.17667
-3.63717
-10.0751
-14.4217
-18.192
-20.7635
-20.1204
-18.2001
-16.4338
-13.942
-11.1747
-8.25681
-4.07612
0.905723
6.1204
12.5979
20.0759
26.5428
31.1119
34.6629
37.2677
38.913
39.995
40.2429
39.0045
36.4839
33.3775
29.7862
25.478
20.2144
13.8193
6.58381
-0.794466
-8.14143
-16.6764
-26.1355
-34.6423
-41.1465
-46.6525
-50.3476
-48.8208
-43.2409
-37.7429
-32.9854
-26.1672
-17.4124
-8.99404
-1.80755
4.46818
10.1741
15.1002
18.2442
19.9902
20.0807
19.1344
17.8372
16.0309
13.6637
10.7971
8.2832
5.64341
2.51358
-0.446891
-3.63804
-5.8401
-5.23955
-2.83189
0.103539
3.6605
7.09911
9.83506
12.3109
14.3607
15.9993
17.7914
19.6205
21.2627
22.8323
24.4625
25.999
27.389
28.7438
30.1166
31.2715
32.3147
33.435
34.3805
35.1744
35.5541
35.4349
35.4218
35.596
35.6469
35.5589
35.3527
34.7685
33.8866
32.482
30.3249
26.8672
23.1614
17.5045
9.23194
0.920986
-5.59142
-9.67585
-13.8329
-18.7914
-24.0375
-27.2151
-28.1724
-26.8998
-24.2368
-20.8898
-17.2569
-12.6209
-7.43057
-1.78481
3.7361
10.0243
15.3384
20.0353
23.9255
26.0678
27.1584
28.3166
28.1397
28.6178
27.7143
26.951
25.1834
22.7699
19.1634
15.8025
12.0779
6.43762
1.47818
-2.77296
-6.02282
-8.32034
-9.01371
-8.41308
-7.35824
-5.16671
-1.56893
13.295
13.4988
11.9931
10.624
10.5214
9.87077
8.92395
8.20285
5.88785
3.31918
1.88823
0.215303
-2.22446
-4.64065
-6.16633
-7.75466
-10.0831
-11.8538
-11.6875
-11.5258
-12.4843
-12.3544
-11.3217
-10.39
-9.9632
-9.52169
-8.23914
-7.53367
-6.77387
-5.63083
-4.13068
-1.74232
0.698552
3.96182
7.72195
11.3235
15.76
19.9311
23.8882
27.5521
30.4267
32.9983
34.7717
35.8324
36.9108
37.8184
38.3351
38.5915
38.8978
39.3947
39.0434
36.6027
31.4576
23.8406
15.1625
6.85189
-0.90298
-7.32239
-11.6467
-15.4378
-17.9379
-17.1571
-15.1929
-13.4214
-10.8782
-8.10792
-5.3296
-1.35419
3.39362
8.24318
14.258
21.2618
27.3263
31.587
34.8807
37.4061
39.1081
40.2664
40.5668
39.3685
36.8124
33.7031
30.1705
25.8947
20.7183
14.4255
7.19504
-0.252042
-7.62549
-16.0043
-25.4041
-33.9823
-40.7598
-46.4425
-49.8863
-47.9716
-42.3844
-37.0896
-32.3307
-25.4501
-16.6524
-8.01953
-0.584669
5.66684
11.4744
16.4256
19.6054
21.4085
21.2926
20.3224
19.0138
17.0813
14.7633
11.984
9.5707
7.02009
3.98311
1.06462
-2.03433
-4.09132
-3.37924
-0.881322
2.1071
5.55857
8.78581
11.3374
13.585
15.4183
16.9335
18.6116
20.2854
21.819
23.3073
24.828
26.2538
27.6106
28.9605
30.2702
31.3875
32.461
33.6207
34.5891
35.3504
35.7433
35.6319
35.5801
35.6527
35.6079
35.5046
35.212
34.5851
33.6617
32.1922
30.0134
26.4202
22.8655
16.7084
8.26355
-0.0672919
-6.56443
-10.4382
-14.242
-19.0889
-24.1473
-27.5639
-28.4937
-27.2957
-24.5339
-21.4295
-17.6142
-13.142
-7.79607
-1.87357
3.37635
9.90848
15.669
20.0589
23.9569
26.5599
27.6592
29.5534
28.0191
29.1657
28.0668
28.0125
26.3317
22.6012
19.9899
17.0685
13.214
7.62762
2.89147
-1.1474
-4.3091
-6.58871
-7.49931
-7.19465
-6.55389
-4.8503
-1.56394
13.663
13.7562
12.02
10.39
10.0962
9.48736
8.57675
8.09233
6.26741
3.86577
2.53437
1.09956
-1.15472
-3.55674
-4.99491
-6.05338
-8.00533
-9.89002
-9.7507
-9.2402
-10.0947
-10.286
-9.43776
-8.56602
-8.29155
-8.23202
-7.49711
-7.25052
-6.99421
-6.3938
-5.50502
-3.70241
-1.7476
1.06973
4.61836
8.24787
12.7918
17.2989
21.6507
25.7118
28.976
31.7832
33.7495
35.0369
36.2793
37.3194
37.9025
38.2145
38.5976
39.2309
39.2499
37.3945
32.8011
25.6504
17.4364
9.48809
1.9865
-4.25677
-8.56536
-12.3298
-14.6467
-13.7566
-11.8227
-10.0982
-7.53646
-4.79297
-2.17617
1.50786
5.96182
10.4708
15.9803
22.4491
28.0684
32.0044
35.0333
37.4572
39.229
40.4815
40.8445
39.7089
37.1514
34.0254
30.5467
26.3399
21.2553
15.1086
7.96131
0.492136
-6.91868
-15.1502
-24.3885
-33.013
-39.9126
-45.6118
-48.7304
-46.5713
-41.1671
-36.2006
-31.5125
-24.5681
-15.7119
-6.7957
0.802069
7.00066
13.0859
17.9556
21.2097
23.098
22.7577
21.827
20.4474
18.3639
16.0779
13.3874
11.05
8.56939
5.6624
2.81005
-0.108539
-2.00687
-1.21028
1.34689
4.34048
7.58303
10.5195
12.8378
14.8387
16.4674
17.8617
19.4249
20.9359
22.3582
23.7689
25.1875
26.5058
27.814
29.1541
30.4126
31.5041
32.606
33.7926
34.7747
35.5184
35.9226
35.8392
35.7484
35.7135
35.5618
35.4426
35.0989
34.3966
33.4317
31.9051
29.7099
26.0678
22.5822
16.0299
7.42341
-1.02565
-7.13056
-11.2953
-14.5691
-19.0291
-24.0806
-27.3141
-28.6227
-27.1105
-24.5037
-21.6294
-17.7377
-13.3813
-7.93662
-2.35765
3.49957
9.71977
16.2266
19.8042
24.5379
26.5857
28.6389
29.4823
27.9062
30.1299
29.017
29.0091
26.4209
23.0152
21.3961
18.3087
14.2316
8.9776
4.49349
0.668169
-2.46624
-4.8964
-6.08825
-6.1124
-5.86628
-4.70681
-1.44565
13.8861
13.9211
12.091
10.2931
9.80351
9.25976
8.37386
7.96055
6.59003
4.41665
3.13097
1.9605
-0.0678676
-2.42369
-3.8073
-4.52593
-6.07318
-7.89542
-7.94175
-7.26326
-7.81964
-8.20577
-7.60446
-6.83616
-6.68023
-6.92376
-6.71431
-6.96469
-7.29514
-7.24186
-6.94212
-5.83285
-4.42078
-2.08626
1.16011
4.82303
9.45343
14.2553
19.1372
23.717
27.4198
30.5371
32.733
34.2484
35.6632
36.825
37.4747
37.8575
38.3288
39.0398
39.3159
37.8888
33.7487
27.0806
19.3883
11.9284
4.90443
-1.02333
-5.29953
-8.92543
-10.901
-9.92322
-8.13757
-6.473
-3.92099
-1.25248
1.1778
4.51055
8.59705
12.7688
17.763
23.6164
28.7457
32.3365
35.1002
37.4237
39.263
40.6206
41.0617
40.0056
37.4915
34.3653
30.9253
26.8181
21.8237
15.8095
8.78386
1.35768
-6.00451
-14.109
-23.1407
-31.7302
-38.6443
-44.1734
-46.928
-44.6958
-39.673
-35.113
-30.4792
-23.4398
-14.5151
-5.33846
2.27335
8.6136
14.9077
19.5771
23.0891
25.0258
24.4667
23.6491
22.1782
19.9307
17.6512
15.0374
12.7317
10.3121
7.54015
4.794
2.13089
0.408571
1.26027
3.83377
6.77538
9.7057
12.3129
14.3754
16.0881
17.495
18.7848
20.228
21.5632
22.8815
24.2283
25.5276
26.7445
28.0089
29.3285
30.5286
31.6052
32.744
33.9529
34.9306
35.6501
36.0766
36.0333
35.8982
35.7707
35.5158
35.3656
35.0021
34.2334
33.1869
31.6279
29.3737
25.9054
22.3096
15.6437
7.06723
-1.39887
-6.67018
-12.0311
-15.203
-18.8406
-23.7181
-26.7944
-27.926
-26.399
-24.3195
-21.4039
-18.0185
-13.1228
-8.19379
-2.21063
3.791
9.97449
16.3777
20.8097
24.6267
27.6267
28.3217
28.6568
28.9709
31.0052
30.2525
29.1245
26.6337
24.3092
22.818
19.2092
15.1271
10.2608
6.02314
2.29022
-0.924433
-3.55872
-4.91182
-5.07248
-5.0653
-4.09378
-1.01893
14.0557
14.0223
12.2105
10.3141
9.63427
9.15984
8.27109
7.84434
6.88822
4.96115
3.70401
2.77921
0.949739
-1.28922
-2.60758
-3.08689
-4.27404
-5.97405
-6.21109
-5.44735
-5.66558
-6.12718
-5.77684
-5.16297
-5.11492
-5.57204
-5.97061
-6.68356
-7.59493
-8.27051
-8.60422
-8.14932
-7.36371
-5.49532
-2.58044
1.06414
5.74563
10.8441
16.3614
21.5494
25.748
29.2698
31.7491
33.4858
35.0821
36.3609
37.1002
37.5932
38.1559
38.8816
39.2865
38.1187
34.304
28.0757
20.9152
14.0548
7.68346
2.18497
-1.98953
-5.29784
-6.7938
-5.74406
-4.15462
-2.57867
-0.0682731
2.48474
4.6917
7.6228
11.2814
15.0924
19.5806
24.7628
29.3517
32.5782
35.0614
37.2899
39.2119
40.6783
41.1992
40.2498
37.8109
34.6935
31.3208
27.3324
22.4428
16.5552
9.63595
2.28799
-4.93961
-12.84
-21.7261
-30.2055
-37.0286
-42.2293
-44.6107
-42.4872
-38.0346
-33.926
-29.3365
-22.1828
-13.0823
-3.73507
3.88742
10.4684
16.7533
21.32
25.265
27.0827
26.4405
25.7882
24.2053
21.7991
19.4827
16.9613
14.6273
12.2638
9.60203
7.04342
4.6656
3.15663
4.01652
6.53749
9.3337
11.9004
14.1609
15.9434
17.3734
18.5446
19.6754
20.9826
22.1739
23.3777
24.6502
25.8429
26.9776
28.1912
29.475
30.6353
31.7062
32.863
34.0718
35.0459
35.7507
36.1888
36.1966
36.0189
35.8228
35.4924
35.2894
34.8969
34.0848
32.9545
31.3614
28.9758
25.893
22.1015
15.486
7.44481
-1.02938
-5.13656
-12.2632
-16.0591
-18.8802
-23.1774
-25.9999
-27.0325
-25.2383
-23.7147
-21.2085
-17.8515
-12.9193
-7.99668
-1.91709
4.04306
10.4345
16.5939
21.7966
24.5619
29.0334
27.0958
29.6793
31.0227
31.6255
30.6661
29.0149
27.7482
25.8307
23.8037
20.0034
16.1556
11.6327
7.51337
3.71214
0.490827
-2.23053
-3.60042
-3.81155
-3.95593
-2.89468
-0.316462
14.1184
14.0404
12.3552
10.4462
9.60199
9.17037
8.24629
7.77811
7.12364
5.4907
4.26817
3.50222
1.94905
-0.122365
-1.41253
-1.73176
-2.66859
-4.19218
-4.48803
-3.74396
-3.6803
-4.10291
-3.93528
-3.50917
-3.64182
-4.21885
-5.18716
-6.48087
-7.95344
-9.43866
-10.5142
-10.6932
-10.5515
-9.20421
-6.55949
-2.90915
1.77545
7.14231
13.3426
19.2135
23.9509
27.9777
30.8129
32.7563
34.5254
35.9245
36.775
37.4289
38.0916
38.7951
39.1889
38.11
34.4954
28.6212
21.9491
15.7792
10.19
5.19638
1.23192
-1.59499
-2.48425
-1.35616
0.0506028
1.55796
3.98026
6.36553
8.32468
10.8191
14.0039
17.411
21.3713
25.8596
29.8728
32.7276
34.9264
37.0508
39.061
40.6446
41.2479
40.4299
38.1075
35.0023
31.7009
27.8484
23.0842
17.3713
10.5832
3.30825
-3.81879
-11.3989
-20.1226
-28.5108
-35.1843
-40.0069
-42.0401
-40.1544
-36.3423
-32.635
-28.0768
-20.7435
-11.4048
-2.0256
5.64986
12.4735
18.5662
23.2108
27.6447
29.2149
28.6478
28.2088
26.4688
23.9506
21.5694
19.1564
16.7417
14.4217
11.8686
9.54905
7.44092
6.19496
7.01807
9.40337
11.955
14.1121
16.0108
17.514
18.6852
19.6336
20.5725
21.6861
22.7315
23.8389
25.0267
26.1104
27.1795
28.3608
29.6117
30.7341
31.7979
32.9653
34.1648
35.1191
35.8088
36.2561
36.3167
36.1194
35.8768
35.5099
35.2415
34.8011
33.9376
32.7464
31.1162
28.5997
25.8371