/*--------------------------------*- C++ -*----------------------------------*\
| =========                 |                                                 |
| \\      /  F ield         | OpenFOAM: The Open Source CFD Toolbox           |
|  \\    /   O peration     | Version:  2.4.0                                 |
|   \\  /    A nd           | Web:      www.OpenFOAM.org                      |
|    \\/     M anipulation  |                                                 |
\*---------------------------------------------------------------------------*/
FoamFile
{
    version     2.0;
    format      ascii;
    class       volScalarField;
    location    "0.135";
    object      k;
}
// * * * * * * * * * * * * * * * * * * * * * * * * * * * * * * * * * * * * * //

dimensions      [0 2 -2 0 0 0 0];

internalField   nonuniform List<scalar> 
4400
(
9.53557
8.48473
6.51681
5.29298
4.65172
4.19747
4.06864
3.74237
4.01167
3.13048
4.41332
6.75326
6.73943
6.2853
5.73498
5.1743
5.02211
4.61559
4.71574
4.46465
1.18125
3.14747
4.2288
4.51208
4.49009
4.24415
4.15916
3.91593
3.84489
3.8874
0.165678
0.933066
1.73206
2.27046
2.71731
2.76912
2.86107
2.84924
2.76859
2.82988
0.0175101
0.149676
0.437247
0.695187
1.12106
1.32304
1.50662
1.64907
1.69387
1.70675
0.00149481
0.0168731
0.0588286
0.117874
0.262701
0.387935
0.522072
0.61592
0.775463
0.767457
0.000138818
0.00149967
0.00463776
0.011122
0.0302137
0.0593363
0.101737
0.124206
0.194051
0.220979
4.06988e-05
0.000248951
0.000452108
0.000823957
0.00200434
0.0042875
0.00951889
0.011557
0.0177803
0.0320831
3.39719e-05
0.000134683
0.000213672
0.000233284
0.000284196
0.000366179
0.000602699
0.000643068
0.000840039
0.00188695
3.3327e-05
0.000124545
0.000181487
0.000194192
0.000198362
0.000209044
0.000230711
0.000233314
0.000236416
0.000292675
3.33111e-05
0.000125345
0.000165588
0.000188326
0.000196338
0.000216697
0.000240548
0.000260317
0.000288712
0.000537293
3.39913e-05
0.000122599
0.000183226
0.000229238
0.000271513
0.000374472
0.000577577
0.00110719
0.00187737
0.00680101
4.01193e-05
0.00023994
0.000418018
0.000867424
0.00180516
0.00447446
0.00826715
0.0178467
0.0274715
0.0698494
0.000137729
0.00149561
0.00437643
0.0125379
0.0267724
0.0612975
0.0939154
0.162291
0.2077
0.36635
0.00147697
0.0168652
0.052351
0.1349
0.240449
0.395845
0.531566
0.685863
0.781569
1.04084
0.0172982
0.149724
0.415811
0.745215
1.08774
1.33633
1.54269
1.67766
1.77099
1.97479
0.163903
0.936377
1.71829
2.30735
2.68239
2.79968
2.88308
2.86816
2.88401
2.93389
1.17097
3.15441
4.22624
4.5256
4.48039
4.27372
4.15202
3.92862
3.88239
3.78494
4.40673
6.75932
6.74189
6.28484
5.71854
5.19933
4.96688
4.61718
4.51743
4.2099
9.5303
8.48731
6.51904
5.28256
4.64154
4.18785
3.98133
3.66535
3.53228
3.03537
2.08626
1.75625
1.56329
1.42803
1.35851
1.28945
0.984504
0.666588
0.702384
0.687114
0.676852
0.651545
0.560801
0.533584
0.452136
0.349702
0.348823
0.406543
0.423957
0.406039
0.333633
0.158415
0.0752956
0.0493833
0.0481829
0.0592043
0.0701327
0.0829067
0.155045
0.479588
0.742706
0.682236
0.466733
0.280767
0.23481
0.208698
0.189832
0.181071
0.179427
0.172736
0.143782
0.114525
0.115772
0.15737
0.362775
0.417054
0.331466
0.181696
0.128221
0.109259
0.092956
0.0883737
0.0874326
0.0881842
0.0928116
0.109494
0.123956
0.149446
0.212624
0.255726
0.263803
0.248321
0.182491
0.172376
0.204441
0.228878
0.220265
0.182955
0.142688
0.107476
0.0908951
0.0882751
0.0908854
0.110617
0.119601
0.120554
0.154682
0.167011
0.167805
0.181831
0.251767
0.272724
0.267539
0.254079
0.210244
0.162171
0.156353
0.1543
0.142584
0.110913
0.101941
0.103538
0.111984
0.112663
0.109049
0.0933812
0.0646022
0.0528303
0.0737454
0.29875
3.27083
2.42249
1.86623
1.57142
1.36781
1.38034
1.34591
1.12686
0.811988
0.70913
0.697815
0.659087
0.569345
0.466244
0.395368
0.394146
0.443111
0.454194
0.435003
0.352872
0.160869
0.0732175
0.0440158
0.0384314
0.0414486
0.057959
0.0728648
0.0812027
0.125131
0.436272
0.674525
0.656424
0.471688
0.298239
0.255423
0.229321
0.213509
0.200077
0.193159
0.176647
0.133699
0.10643
0.109513
0.161388
0.38837
0.453263
0.367382
0.197313
0.127969
0.108717
0.0948957
0.0886538
0.0873931
0.0882599
0.0921318
0.105334
0.117932
0.141865
0.200687
0.23845
0.252947
0.239837
0.18148
0.159263
0.183948
0.22169
0.216581
0.200799
0.166132
0.127661
0.104788
0.100751
0.102598
0.117374
0.123015
0.123639
0.153849
0.174027
0.173203
0.177662
0.2733
0.299746
0.273703
0.258304
0.211268
0.160547
0.146249
0.142418
0.139132
0.120022
0.103647
0.102816
0.109811
0.116958
0.116528
0.110477
0.0893075
0.0573816
0.0827891
0.218749
3.20988
2.53246
1.93556
1.6184
1.31591
1.26662
1.29223
1.28718
1.2171
0.881795
0.749742
0.671393
0.543594
0.483661
0.491558
0.513282
0.500571
0.459514
0.362021
0.154048
0.0686697
0.039397
0.0332499
0.03485
0.0406254
0.0599733
0.0803469
0.0836738
0.109999
0.393836
0.639184
0.644686
0.486907
0.321487
0.277207
0.257494
0.241815
0.216776
0.200833
0.171733
0.116291
0.0954115
0.102025
0.16541
0.419557
0.499638
0.382784
0.206031
0.132959
0.111835
0.0993585
0.0911837
0.0891448
0.0891107
0.0908675
0.100689
0.113634
0.137506
0.193803
0.218279
0.244608
0.232004
0.181186
0.147758
0.157889
0.205213
0.206195
0.200448
0.18563
0.150461
0.121052
0.115574
0.116646
0.125338
0.124157
0.124607
0.141418
0.176908
0.175004
0.17786
0.287733
0.303015
0.26836
0.257756
0.2147
0.152101
0.141895
0.136753
0.135292
0.128485
0.108242
0.102639
0.106413
0.117068
0.122242
0.115515
0.128353
0.0792072
0.104222
0.176015
2.45767
2.09192
1.68252
1.38722
1.10877
1.019
1.04435
1.08505
1.15128
1.11071
0.968867
0.804362
0.679616
0.647286
0.591818
0.560006
0.48848
0.32389
0.14261
0.0613131
0.0350676
0.0297051
0.0311557
0.0375852
0.052902
0.0751498
0.0955572
0.0927326
0.103554
0.329379
0.609463
0.628871
0.496659
0.35077
0.318876
0.300335
0.265115
0.227477
0.203606
0.154393
0.0977244
0.0845568
0.0983165
0.170525
0.457223
0.547647
0.385723
0.204338
0.146008
0.119093
0.105272
0.0949308
0.0919206
0.0899779
0.0899896
0.0966067
0.109004
0.132376
0.194582
0.207097
0.234207
0.225683
0.181456
0.139797
0.141097
0.179415
0.189798
0.19247
0.185903
0.164621
0.140735
0.131184
0.13062
0.128537
0.123464
0.123172
0.12669
0.173948
0.173852
0.182951
0.28917
0.29569
0.266056
0.257781
0.229977
0.155689
0.147454
0.139717
0.135252
0.130218
0.116613
0.103609
0.104439
0.113371
0.138374
0.129779
0.162975
0.117799
0.127163
0.160516
1.53352
1.37741
1.19611
0.978218
0.769165
0.673333
0.686368
0.730253
0.882916
0.97385
0.944761
0.848874
0.774752
0.7093
0.579116
0.485772
0.277631
0.12186
0.0523729
0.03004
0.0270253
0.028861
0.039954
0.0661487
0.105532
0.115797
0.118404
0.106752
0.106901
0.234546
0.551787
0.597727
0.517653
0.416919
0.379059
0.337072
0.27728
0.232133
0.191489
0.120512
0.079645
0.0784518
0.09933
0.181224
0.503231
0.592424
0.370341
0.194966
0.158947
0.125148
0.111615
0.0998725
0.0948539
0.090952
0.0889934
0.0928892
0.103319
0.127071
0.198862
0.206067
0.224174
0.221275
0.178153
0.133188
0.12819
0.154411
0.175349
0.178194
0.176929
0.164505
0.156157
0.142734
0.138551
0.127456
0.123707
0.121175
0.124258
0.166071
0.17592
0.207619
0.277148
0.292853
0.274705
0.277664
0.276435
0.181447
0.140276
0.143022
0.138707
0.132373
0.12154
0.105582
0.105148
0.108223
0.143115
0.142406
0.164401
0.156545
0.149238
0.16062
0.696437
0.652078
0.61602
0.526645
0.385852
0.301188
0.304199
0.339424
0.439455
0.626455
0.687964
0.665757
0.617682
0.543564
0.388474
0.214538
0.097639
0.0432646
0.0244611
0.0237537
0.0268728
0.0414489
0.0858899
0.151718
0.178936
0.173924
0.163429
0.133642
0.115674
0.173131
0.457858
0.560836
0.529763
0.467948
0.416936
0.353266
0.282021
0.222028
0.151202
0.0916076
0.0715486
0.0758245
0.105227
0.193462
0.553654
0.634126
0.325233
0.180142
0.15929
0.12651
0.117667
0.106057
0.0956807
0.0923788
0.0889534
0.0923761
0.102287
0.123759
0.210061
0.208677
0.209615
0.212064
0.176931
0.128591
0.115316
0.124373
0.147778
0.15522
0.157722
0.154604
0.152263
0.143872
0.139972
0.126591
0.124976
0.120323
0.12462
0.154642
0.164685
0.232447
0.250827
0.303577
0.276893
0.286977
0.352971
0.230236
0.138701
0.146264
0.146536
0.14029
0.132441
0.110412
0.107128
0.108762
0.138941
0.1425
0.156658
0.166245
0.161136
0.164025
0.201003
0.197921
0.197235
0.183478
0.138942
0.0936711
0.0879332
0.0973092
0.127089
0.249201
0.328756
0.326049
0.307202
0.255755
0.14821
0.0714433
0.0322588
0.0193368
0.0195678
0.0256844
0.0460375
0.0977579
0.213957
0.286382
0.284512
0.255138
0.217607
0.165533
0.127925
0.149052
0.351667
0.514215
0.513882
0.486792
0.431021
0.347903
0.262899
0.1809
0.112478
0.0746371
0.0678201
0.078667
0.11965
0.21313
0.605681
0.657294
0.28853
0.165269
0.152287
0.127435
0.120834
0.118437
0.0990485
0.0955968
0.0899855
0.0933416
0.103478
0.123819
0.228414
0.217357
0.205362
0.207136
0.181045
0.130261
0.106899
0.108027
0.121888
0.13983
0.144843
0.144274
0.1444
0.137757
0.134429
0.12245
0.122675
0.119036
0.128165
0.139183
0.15229
0.221696
0.232586
0.313064
0.265644
0.271676
0.397176
0.306342
0.16336
0.141315
0.150741
0.143275
0.140912
0.122969
0.111991
0.111069
0.11937
0.139515
0.143146
0.160952
0.1573
0.162916
0.0311501
0.033242
0.0351738
0.0337471
0.0283421
0.0181926
0.0148864
0.0158209
0.021278
0.052014
0.104163
0.108596
0.102403
0.0798634
0.0426254
0.0197624
0.0140795
0.0156355
0.0248906
0.0541199
0.1166
0.260375
0.412793
0.446965
0.430319
0.371979
0.284096
0.194282
0.1356
0.136409
0.242589
0.428837
0.4749
0.463795
0.416974
0.312454
0.206928
0.133359
0.0859111
0.0669364
0.0667865
0.0901239
0.14381
0.23435
0.626594
0.663176
0.27832
0.155723
0.146411
0.132924
0.125973
0.128548
0.110178
0.103918
0.0920803
0.0959488
0.109606
0.125604
0.231255
0.236007
0.212929
0.208274
0.1889
0.134697
0.102907
0.0991432
0.105644
0.127095
0.130126
0.134131
0.134202
0.128859
0.125822
0.117907
0.117211
0.115338
0.130649
0.132482
0.14162
0.160958
0.199172
0.311353
0.255408
0.252321
0.383231
0.383433
0.229359
0.151981
0.153709
0.145498
0.140602
0.134418
0.119773
0.112612
0.117207
0.130822
0.13137
0.146371
0.144796
0.156258
0.00213698
0.00245438
0.00262018
0.00249435
0.00219129
0.0017503
0.00161239
0.00162601
0.00213697
0.00592167
0.0211663
0.0240465
0.0225681
0.0170036
0.0094346
0.00875323
0.0119686
0.0269061
0.0633335
0.144321
0.295829
0.537944
0.643998
0.64173
0.598772
0.487309
0.35774
0.248998
0.153943
0.130145
0.167978
0.309146
0.377454
0.373488
0.331664
0.22974
0.147623
0.101147
0.0723656
0.0646837
0.0713262
0.121928
0.17191
0.246734
0.626198
0.660601
0.285066
0.155739
0.147686
0.153388
0.140315
0.129148
0.111423
0.123039
0.0958851
0.101464
0.128915
0.131375
0.212477
0.257045
0.236399
0.218087
0.189884
0.137936
0.100362
0.0910475
0.0925336
0.108938
0.115361
0.126665
0.126528
0.125402
0.122866
0.117217
0.115019
0.11448
0.132358
0.131542
0.130452
0.135895
0.192678
0.284752
0.250793
0.265623
0.342348
0.439584
0.341051
0.196856
0.163589
0.150147
0.137468
0.137632
0.133703
0.11571
0.12615
0.124812
0.121132
0.131342
0.129735
0.13924
0.000323503
0.000349497
0.00034246
0.000348682
0.000384485
0.000609841
0.000858651
0.000849822
0.000821025
0.00101904
0.00279001
0.0037361
0.00381198
0.00404892
0.00500537
0.0101971
0.0324766
0.0874336
0.167731
0.342705
0.640962
0.79464
0.797427
0.746933
0.67555
0.567643
0.412933
0.279831
0.176186
0.122368
0.130359
0.198183
0.262478
0.260586
0.229498
0.154433
0.107979
0.0819345
0.0670447
0.0669986
0.0882905
0.164615
0.200737
0.25667
0.605295
0.657189
0.355835
0.176209
0.161052
0.187161
0.163034
0.12563
0.11843
0.1349
0.0995744
0.106779
0.186317
0.144615
0.186888
0.254265
0.23781
0.222222
0.189612
0.142904
0.0999967
0.0860594
0.0850422
0.0977191
0.103395
0.117228
0.119745
0.126479
0.124078
0.120612
0.114976
0.116089
0.130145
0.129977
0.126718
0.129608
0.190254
0.235768
0.249009
0.317865
0.344669
0.477114
0.41607
0.260293
0.178996
0.159863
0.137276
0.136753
0.157526
0.124062
0.14393
0.129395
0.122302
0.123194
0.119885
0.122618
0.000943501
0.00089979
0.000827152
0.000926514
0.00136016
0.00305557
0.0040161
0.00401257
0.00336511
0.00208743
0.00167248
0.00177905
0.00245158
0.00470619
0.012606
0.0394676
0.120059
0.208661
0.366237
0.72492
0.893025
0.902569
0.856854
0.754557
0.689068
0.614065
0.465932
0.314599
0.195113
0.12374
0.113631
0.134104
0.1733
0.171842
0.149754
0.10762
0.0875317
0.0740055
0.0691939
0.0776022
0.137848
0.207493
0.223076
0.257656
0.554769
0.668458
0.484282
0.234588
0.190296
0.22504
0.187392
0.137844
0.14045
0.157165
0.110621
0.128998
0.342331
0.167012
0.189442
0.226923
0.218121
0.217424
0.192187
0.151301
0.10288
0.0863703
0.0827903
0.0902164
0.0977986
0.111818
0.114112
0.126443
0.124596
0.121414
0.114207
0.123482
0.130428
0.127831
0.114885
0.11092
0.145551
0.212684
0.267557
0.342755
0.377265
0.503583
0.449896
0.337036
0.214626
0.171703
0.1427
0.133183
0.203268
0.144357
0.154586
0.14177
0.134976
0.123956
0.117981
0.115612
0.00983151
0.00953973
0.00919569
0.00988723
0.0140375
0.0221568
0.024319
0.0240683
0.0215323
0.0135129
0.0102197
0.0106193
0.0143606
0.0266065
0.0604635
0.157053
0.282602
0.424512
0.762155
0.971649
0.982372
0.937361
0.825158
0.733616
0.690408
0.617877
0.489715
0.346152
0.224088
0.130489
0.105522
0.108926
0.120159
0.118937
0.107704
0.0908319
0.0798382
0.0762461
0.0795824
0.109283
0.214748
0.245703
0.237145
0.250874
0.475408
0.667167
0.617436
0.329308
0.235564
0.267585
0.228631
0.175942
0.19133
0.232301
0.147355
0.187682
0.409344
0.219186
0.230616
0.225756
0.20322
0.213201
0.193353
0.148347
0.102195
0.0859346
0.0821815
0.0856424
0.099676
0.10964
0.113623
0.123502
0.11984
0.113089
0.110839
0.12762
0.134877
0.129307
0.101709
0.0952518
0.113838
0.20606
0.276261
0.346933
0.409373
0.613863
0.516991
0.393995
0.245547
0.174219
0.161719
0.134435
0.23428
0.161936
0.161084
0.149781
0.14849
0.129796
0.119888
0.11575
0.0809151
0.0797445
0.0778761
0.0796803
0.0953021
0.111681
0.112287
0.109953
0.0962619
0.0704001
0.0656045
0.0685365
0.083348
0.125224
0.238616
0.387672
0.516669
0.798478
1.02371
1.05062
1.00168
0.85755
0.74297
0.653344
0.574983
0.540545
0.476278
0.375116
0.24742
0.14283
0.107832
0.101542
0.102652
0.101504
0.096605
0.0888569
0.0871205
0.0903315
0.107745
0.196617
0.281414
0.268775
0.232336
0.238011
0.384592
0.639813
0.733361
0.452687
0.290576
0.283419
0.259803
0.227621
0.26338
0.343071
0.229499
0.222989
0.409741
0.352047
0.266944
0.253583
0.213423
0.217481
0.189172
0.131716
0.094276
0.0818299
0.0804899
0.0835671
0.100512
0.111693
0.122406
0.122688
0.115345
0.109655
0.113654
0.141012
0.143328
0.133612
0.0939722
0.0861027
0.0990437
0.215655
0.274326
0.390883
0.464484
0.659033
0.625065
0.460448
0.366565
0.185334
0.194436
0.14202
0.227483
0.177939
0.177593
0.166228
0.164237
0.140867
0.124079
0.117912
0.365323
0.356301
0.336908
0.334945
0.345916
0.348444
0.340982
0.324858
0.271711
0.232893
0.232079
0.243132
0.280852
0.394881
0.542463
0.644118
0.853557
1.04784
1.10056
1.05622
0.882723
0.703921
0.625373
0.577839
0.506938
0.47866
0.462217
0.405677
0.259749
0.16591
0.118954
0.106468
0.10484
0.102119
0.103617
0.104638
0.107663
0.123506
0.176382
0.307168
0.318274
0.267971
0.217114
0.217391
0.295594
0.561827
0.822333
0.582386
0.313793
0.278572
0.274256
0.281766
0.325891
0.428432
0.402094
0.198809
0.32316
0.371276
0.25537
0.275942
0.245424
0.218493
0.161229
0.110175
0.0862424
0.078505
0.0798143
0.084615
0.10492
0.116478
0.124764
0.119938
0.115624
0.118875
0.148261
0.174792
0.168259
0.132228
0.0832327
0.074175
0.0849854
0.209739
0.279418
0.478363
0.48035
0.491648
0.740805
0.461656
0.968813
0.323767
0.297786
0.1564
0.19284
0.177743
0.183954
0.181281
0.180115
0.157032
0.131656
0.122277
0.99062
0.922583
0.84405
0.787954
0.772448
0.743969
0.682271
0.61419
0.534045
0.504498
0.509485
0.533873
0.611983
0.727599
0.798389
0.938833
1.06724
1.12408
1.08587
0.876239
0.673067
0.610764
0.57614
0.549173
0.518522
0.500437
0.471347
0.400862
0.28644
0.217826
0.151094
0.135417
0.124013
0.125037
0.137907
0.139835
0.148715
0.19586
0.311574
0.363557
0.335441
0.223983
0.187552
0.188724
0.229675
0.434162
0.839874
0.717009
0.322471
0.26946
0.291534
0.296891
0.306964
0.433142
0.489707
0.190641
0.22703
0.340121
0.220042
0.269537
0.243128
0.191178
0.132297
0.0963251
0.0837526
0.0809491
0.0824797
0.0929036
0.111639
0.117253
0.116206
0.114126
0.123272
0.164476
0.230467
0.231604
0.201535
0.123082
0.0753795
0.0660513
0.0781422
0.182086
0.30807
0.494515
0.462772
0.395327
0.629155
0.539235
1.39039
0.312754
0.491079
0.201239
0.20235
0.180207
0.182085
0.197652
0.201819
0.188113
0.151608
0.133978
1.80552
1.61113
1.42132
1.28086
1.19684
1.09164
0.979472
0.894407
0.823304
0.804475
0.812916
0.846605
0.897845
0.955158
1.03869
1.10271
1.13414
1.08615
0.849073
0.621564
0.580647
0.565986
0.5364
0.512365
0.500805
0.488201
0.453252
0.400536
0.351339
0.256805
0.226971
0.21873
0.192655
0.190208
0.184394
0.187373
0.226241
0.363961
0.396494
0.387718
0.27177
0.167729
0.156449
0.158595
0.17794
0.299196
0.803529
0.866358
0.361701
0.282209
0.315648
0.299528
0.262877
0.322879
0.402707
0.19563
0.193502
0.338299
0.21944
0.234971
0.199821
0.146569
0.105824
0.0854263
0.0801805
0.0793666
0.0864586
0.102947
0.109036
0.108825
0.110405
0.126045
0.206254
0.326439
0.360359
0.321895
0.204665
0.11104
0.069667
0.0617643
0.0733892
0.163502
0.319366
0.426679
0.472399
0.396969
0.331648
0.443534
0.452655
0.325983
0.40642
0.231968
0.212325
0.192789
0.186435
0.201404
0.202737
0.192647
0.168442
0.147532
2.58293
2.19878
1.8441
1.61865
1.46592
1.3126
1.20102
1.12682
1.06936
1.04803
1.05438
1.07264
1.11191
1.14975
1.15327
1.14176
1.05994
0.773772
0.524908
0.515654
0.536859
0.529377
0.495973
0.476994
0.47061
0.456558
0.452766
0.427663
0.40669
0.340216
0.328745
0.286016
0.250589
0.237537
0.240999
0.283561
0.447326
0.474954
0.445082
0.325516
0.185589
0.140298
0.146854
0.152053
0.155859
0.213898
0.653143
0.972604
0.541266
0.345784
0.386133
0.361321
0.256484
0.349159
0.314466
0.21704
0.177888
0.313089
0.217807
0.185283
0.138894
0.109422
0.087394
0.0771217
0.0747052
0.0770087
0.0908223
0.101806
0.106408
0.115603
0.157796
0.283436
0.550104
0.588029
0.52834
0.32661
0.182166
0.110833
0.0802858
0.0724634
0.0811251
0.159798
0.292184
0.398411
0.515153
0.506864
0.273887
0.348068
0.398673
0.319245
0.255392
0.30594
0.27635
0.242438
0.225597
0.219705
0.209556
0.196428
0.189096
0.174437
3.09739
2.43901
1.99398
1.75125
1.57354
1.43447
1.35149
1.29031
1.2516
1.24769
1.25471
1.25735
1.24914
1.21456
1.13278
0.95548
0.614485
0.399961
0.383166
0.472607
0.521691
0.529657
0.496112
0.464859
0.452794
0.454799
0.463799
0.444801
0.441272
0.412881
0.375352
0.331373
0.329484
0.340792
0.408272
0.60506
0.625228
0.572854
0.412713
0.220692
0.181446
0.166766
0.17045
0.18644
0.187854
0.220052
0.555168
0.970913
0.834976
0.519248
0.473397
0.481511
0.272695
0.415931
0.345146
0.352301
0.165942
0.218253
0.173352
0.152004
0.120319
0.11106
0.108674
0.112961
0.114972
0.11764
0.131424
0.163642
0.217812
0.322055
0.633537
0.903747
0.906696
0.792294
0.487357
0.285421
0.234642
0.224553
0.211032
0.168648
0.162625
0.19039
0.28389
0.417406
0.52443
0.534988
0.292478
0.372717
0.3989
0.337104
0.240872
0.517789
0.332616
0.384714
0.341683
0.264736
0.238885
0.233948
0.251582
0.266585
3.0803
2.32235
1.94271
1.74796
1.60079
1.52207
1.48812
1.45664
1.4387
1.41785
1.37631
1.31105
1.19393
1.00034
0.730456
0.441897
0.265386
0.237221
0.314293
0.472638
0.664616
0.768227
0.76251
0.643855
0.523039
0.465959
0.478389
0.484152
0.504861
0.517747
0.48318
0.491155
0.570416
0.751893
0.878084
0.905968
0.831094
0.652279
0.435164
0.354134
0.421495
0.420485
0.416919
0.500514
0.540185
0.613473
0.75253
0.904242
0.930219
0.830797
0.806524
0.860707
0.497314
0.307465
0.554695
0.353336
0.179292
0.202431
0.176975
0.202477
0.215496
0.300297
0.382221
0.481497
0.501272
0.546819
0.627743
0.857345
1.10574
1.34578
1.35464
1.28817
1.00366
0.74115
0.588034
0.561055
0.609416
0.658254
0.640464
0.557025
0.475241
0.455196
0.451253
0.470885
0.518161
0.619243
0.49047
0.321744
0.609753
0.409975
0.309579
0.568402
0.318656
0.517159
0.480485
0.479218
0.502213
0.592434
0.8257
1.16241
1.9302
1.58107
1.43443
1.3427
1.27047
1.23109
1.20484
1.17524
1.13584
1.06978
0.962901
0.812857
0.620386
0.420066
0.264257
0.179031
0.158558
0.179032
0.259036
0.453978
0.835396
1.39244
1.90134
2.14187
2.03865
1.59098
1.09044
0.669039
0.512711
0.454817
0.569079
0.840907
1.20746
1.44043
1.38279
1.24174
1.06669
0.841925
0.785077
0.89164
0.906499
0.84118
0.88855
1.13494
1.51365
1.89736
1.83832
1.267
0.82037
0.846296
1.09628
1.73638
2.19112
0.511108
1.29482
0.39737
0.254339
0.285351
0.312164
0.578199
0.744782
1.14858
1.23728
1.42551
1.4425
1.68014
1.74621
1.94184
1.86413
1.792
1.3911
1.15727
0.846958
0.851322
0.825284
0.947272
0.920922
0.98136
0.988034
1.19511
1.25507
1.36946
1.05824
0.709355
0.541617
0.678534
1.03249
0.449588
0.958411
0.409635
0.497922
0.366635
0.323709
0.52656
1.27458
2.00208
2.36468
3.73183
4.70539
6.79102
0.0405077
0.146545
0.387611
0.819601
1.06508
1.12035
1.00224
0.594727
0.228494
0.293816
0.466877
0.535842
0.774554
1.33023
2.30349
3.42778
4.19451
4.50268
4.17653
3.18604
2.30492
1.61236
1.18135
0.933564
1.02145
1.85188
2.75737
2.40319
1.10698
0.860331
1.08834
1.64243
1.72173
1.36646
2.31475
4.05655
4.52395
3.46314
1.93126
1.37245
0.566922
0.478029
0.641882
1.10992
1.93313
2.67201
3.34778
4.16527
4.93633
5.39428
5.38712
4.3824
2.3956
1.10414
0.504881
0.301672
0.253656
0.269645
0.312835
0.395412
0.513119
0.720935
0.91237
0.986404
0.840354
0.6986
1.1632
1.87836
2.24398
2.2867
1.79536
1.70181
0.880909
0.633513
0.49629
0.623976
1.10014
2.10014
2.72985
2.72682
2.39788
1.85118
1.38236
1.00052
0.735801
0.578902
0.49192
0.449249
0.428877
0.403265
0.351787
0.276792
0.191839
0.144434
0.0942909
0.0710485
0.115033
0.166951
0.0943112
0.0780887
0.130255
0.128787
0.121993
0.119245
0.163027
0.248622
0.433969
0.521238
0.435489
0.353694
0.350395
0.492738
0.883572
1.40065
1.68513
1.67323
1.30687
1.04716
0.715895
0.573221
0.535268
0.52072
0.588222
0.768627
0.988618
1.10392
1.21111
1.5762
1.43035
1.05605
0.732218
0.709771
1.12335
2.64559
2.86643
2.41326
1.25166
0.593528
0.322679
0.311193
0.339165
0.286039
0.320484
0.373294
0.464649
0.59899
0.742576
0.964279
1.23059
1.65458
2.82135
3.64632
3.63148
2.85194
1.33465
0.671523
0.432991
0.331343
0.253148
0.209794
0.191993
0.197758
0.226612
0.31489
0.634752
1.06176
1.25733
1.07904
0.818274
0.558344
0.329662
0.392697
0.329198
0.343122
0.435431
0.425767
0.441991
0.503224
0.679951
1.10573
1.40568
1.43292
1.36577
1.16103
0.828258
0.528061
0.307366
0.174548
0.105561
0.0743417
0.0651072
0.0627975
0.0550872
0.0475385
0.0493405
0.095349
0.138236
0.0944056
0.0720998
0.0825684
0.151394
0.118522
0.10732
0.0867631
0.0586719
0.0604989
0.098661
0.226924
0.381821
0.38899
0.290176
0.332311
0.655492
0.834639
0.785305
0.494695
0.361262
0.298697
0.273228
0.272656
0.290889
0.294224
0.3041
0.336674
0.455105
0.871578
0.853993
0.816676
0.933958
0.816988
0.495349
0.578813
1.72211
2.61203
1.86346
0.715077
0.30911
0.196121
0.164009
0.200483
0.270487
0.224469
0.194116
0.206292
0.245545
0.25068
0.250291
0.254205
0.267536
0.304932
0.451342
0.953966
2.4347
2.6389
2.27978
1.20542
0.605087
0.303125
0.155265
0.0948798
0.0840036
0.0922595
0.140808
0.341497
0.747726
1.00875
0.80144
0.397247
0.265758
0.210168
0.188135
0.228301
0.228586
0.24853
0.31086
0.30953
0.305438
0.293289
0.287579
0.312993
0.385592
0.477297
0.693164
0.783249
0.747426
0.609406
0.373242
0.198467
0.100608
0.0548813
0.0380813
0.035062
0.0340397
0.0354475
0.0527165
0.104209
0.117603
0.0603835
0.0626656
0.0779599
0.1575
0.105611
0.102052
0.0964605
0.0738478
0.0475636
0.0490059
0.0853234
0.22884
0.375409
0.285943
0.337191
0.495444
0.518261
0.334239
0.244426
0.220008
0.215527
0.215496
0.220364
0.234248
0.237907
0.244796
0.252897
0.307667
0.475461
0.661772
0.565759
0.559141
0.466029
0.384394
0.646424
1.96244
2.11553
0.825079
0.307941
0.16357
0.122759
0.121514
0.183605
0.247039
0.224966
0.165389
0.155677
0.195954
0.237901
0.235032
0.229985
0.232026
0.237656
0.248189
0.312324
0.616066
1.74165
2.00319
1.70272
0.902927
0.388694
0.156028
0.0822266
0.0736574
0.0877224
0.167561
0.434174
0.751313
0.769074
0.386784
0.20114
0.152531
0.144068
0.142752
0.15767
0.145769
0.193378
0.230863
0.256578
0.251221
0.239579
0.233135
0.217201
0.20237
0.207214
0.234965
0.294218
0.442124
0.464834
0.420309
0.290209
0.156776
0.0787387
0.0443472
0.0326503
0.0284072
0.0304402
0.0558446
0.100097
0.0805444
0.0430573
0.0467291
0.0720359
0.159463
0.103902
0.104503
0.107635
0.095566
0.0622344
0.0461316
0.0525146
0.122383
0.321457
0.280893
0.348399
0.431144
0.332897
0.220322
0.200969
0.202828
0.209607
0.205933
0.208049
0.219978
0.225888
0.232606
0.237424
0.25999
0.347649
0.541179
0.516337
0.416487
0.29959
0.324084
0.817056
1.99596
1.32112
0.421734
0.225559
0.19827
0.118378
0.0976665
0.121511
0.15827
0.180251
0.155262
0.144286
0.164391
0.261099
0.300579
0.294848
0.301158
0.310029
0.308133
0.292833
0.327186
0.585065
1.44697
1.53094
1.22385
0.57485
0.2212
0.101885
0.0835583
0.102458
0.207901
0.482301
0.695983
0.484468
0.225405
0.138913
0.115032
0.110456
0.115728
0.121927
0.102819
0.122216
0.157345
0.218364
0.213078
0.202676
0.189942
0.18447
0.178768
0.159247
0.152446
0.159551
0.188814
0.264251
0.321027
0.299719
0.234106
0.127319
0.0635766
0.0372321
0.029362
0.0300179
0.0557405
0.0833492
0.0590484
0.0316907
0.0362368
0.066076
0.159134
0.108672
0.124738
0.14501
0.130415
0.0968722
0.0552833
0.0501661
0.0786785
0.244096
0.272436
0.352885
0.395471
0.246638
0.193572
0.192011
0.214057
0.223174
0.20685
0.208821
0.216412
0.226813
0.23294
0.237625
0.244414
0.294676
0.478178
0.501981
0.379822
0.264714
0.336717
1.00645
1.93806
0.802351
0.260885
0.181754
0.153527
0.139471
0.0880391
0.0974541
0.109252
0.13543
0.148013
0.144981
0.158617
0.254678
0.348252
0.349753
0.335447
0.335817
0.337158
0.328499
0.306449
0.349727
0.7004
1.22745
1.17462
0.814311
0.345265
0.148269
0.104133
0.120895
0.242698
0.495218
0.565785
0.313256
0.154035
0.109379
0.0933152
0.0841766
0.0889423
0.102642
0.0827885
0.0897575
0.125573
0.191475
0.193073
0.188476
0.170316
0.163176
0.158618
0.153593
0.138177
0.127929
0.130486
0.147455
0.200797
0.247384
0.234738
0.189411
0.106687
0.054171
0.0358489
0.0318222
0.0522329
0.0682312
0.0423353
0.0232855
0.0318488
0.0646742
0.159357
0.120357
0.154353
0.180139
0.173868
0.147432
0.0877969
0.0553766
0.0678944
0.184453
0.269479
0.357952
0.344568
0.202913
0.178254
0.198798
0.22955
0.234489
0.216019
0.217625
0.217769
0.235134
0.246149
0.245606
0.243329
0.270876
0.412515
0.487417
0.384143
0.267079
0.390409
1.15046
1.75501
0.526032
0.199641
0.164842
0.131783
0.111306
0.0858568
0.0928217
0.0989529
0.1259
0.151316
0.154177
0.163924
0.227739
0.342879
0.358722
0.338405
0.325541
0.328044
0.331866
0.310809
0.304706
0.388183
0.810694
1.02146
0.901042
0.48508
0.208848
0.127079
0.137122
0.264842
0.487081
0.455368
0.212152
0.111812
0.0886972
0.0809082
0.069563
0.0691636
0.0879341
0.0704015
0.0767643
0.10327
0.175044
0.184988
0.181557
0.163784
0.157703
0.152366
0.144963
0.137953
0.121579
0.114107
0.116179
0.13096
0.178689
0.208269
0.196992
0.158097
0.0942963
0.0593312
0.0409835
0.0461428
0.0652298
0.0379019
0.022955
0.0302164
0.0646432
0.156174
0.131598
0.173037
0.190544
0.20707
0.193498
0.156076
0.0758149
0.0702673
0.141853
0.267513
0.367497
0.305007
0.187075
0.177977
0.21418
0.248135
0.215321
0.213448
0.211933
0.213335
0.236507
0.257905
0.257741
0.247929
0.259775
0.370463
0.461353
0.376985
0.27366
0.455069
1.25843
1.47941
0.370145
0.171794
0.143434
0.138338
0.105036
0.0905278
0.0923008
0.0964635
0.119698
0.154763
0.157316
0.173518
0.217359
0.290605
0.343398
0.33158
0.288466
0.287751
0.297366
0.298981
0.283896
0.302962
0.50251
0.814273
0.821074
0.602854
0.278513
0.154807
0.153466
0.272738
0.462545
0.391385
0.160526
0.0871599
0.0717284
0.0706792
0.0680558
0.0560347
0.0746906
0.0590375
0.0704195
0.08797
0.167769
0.184014
0.179139
0.164449
0.159245
0.163238
0.155309
0.139636
0.123898
0.109774
0.10664
0.110002
0.12723
0.176279
0.185817
0.167949
0.134441
0.100541
0.0793935
0.0507367
0.0618434
0.0400204
0.0263772
0.0345559
0.0671324
0.148086
0.150457
0.179028
0.192512
0.219463
0.214985
0.197235
0.134155
0.0790126
0.130935
0.267859
0.364496
0.2617
0.174397
0.178492
0.220045
0.232845
0.17801
0.180644
0.1797
0.185217
0.220311
0.258995
0.26563
0.252825
0.255366
0.340094
0.443588
0.376773
0.284868
0.506763
1.33592
1.15538
0.310053
0.16489
0.128679
0.106986
0.121248
0.106234
0.0948006
0.0959341
0.115618
0.153279
0.153063
0.176194
0.219143
0.263165
0.31097
0.306834
0.266953
0.244403
0.248372
0.267256
0.264752
0.26958
0.339943
0.623315
0.72341
0.640819
0.350999
0.186431
0.168806
0.275368
0.425051
0.367999
0.154345
0.0848963
0.0635941
0.0588198
0.066842
0.050386
0.066295
0.0553372
0.0649176
0.0828677
0.163715
0.192315
0.179924
0.183571
0.176435
0.196062
0.196789
0.170403
0.134691
0.112102
0.104603
0.104448
0.110476
0.136506
0.170981
0.166828
0.144834
0.124761
0.117593
0.0818535
0.0642349
0.0424632
0.0315741
0.0394047
0.0743828
0.144725
0.164842
0.180254
0.184998
0.217363
0.220859
0.217122
0.17777
0.103704
0.132528
0.278702
0.353708
0.222621
0.16298
0.18011
0.21644
0.183062
0.174138
0.176331
0.174198
0.177925
0.213871
0.259643
0.271206
0.255344
0.252894
0.302324
0.424127
0.393251
0.316235
0.550581
1.35711
0.894897
0.284583
0.146207
0.108851
0.0919229
0.126841
0.120979
0.102662
0.0979044
0.115936
0.141387
0.145239
0.166198
0.218486
0.257681
0.29372
0.291875
0.258919
0.209335
0.207277
0.222741
0.236692
0.244681
0.275798
0.458953
0.623859
0.607387
0.414544
0.217901
0.179815
0.275597
0.384502
0.348038
0.161717
0.0960557
0.0658719
0.0515132
0.0587171
0.0489708
0.0590662
0.0540975
0.0625538
0.0808171
0.158779
0.206764
0.187066
0.194376
0.21305
0.234985
0.271609
0.254862
0.178305
0.125848
0.105735
0.102818
0.10458
0.11901
0.145972
0.158874
0.148182
0.129858
0.129203
0.119002
0.0819721
0.0487028
0.0382124
0.0456272
0.0840711
0.132806
0.171392
0.179351
0.170177
0.185928
0.215237
0.218434
0.186366
0.12206
0.137451
0.290999
0.331699
0.197624
0.161585
0.189191
0.229292
0.170232
0.198899
0.201012
0.185309
0.18576
0.227547
0.271408
0.283616
0.259886
0.244749
0.269142
0.398768
0.423113
0.367697
0.604928
1.31846
0.74157
0.253755
0.124914
0.0970995
0.0907982
0.112429
0.1204