/*--------------------------------*- C++ -*----------------------------------*\
| =========                 |                                                 |
| \\      /  F ield         | OpenFOAM: The Open Source CFD Toolbox           |
|  \\    /   O peration     | Version:  2.4.0                                 |
|   \\  /    A nd           | Web:      www.OpenFOAM.org                      |
|    \\/     M anipulation  |                                                 |
\*---------------------------------------------------------------------------*/
FoamFile
{
    version     2.0;
    format      ascii;
    class       volVectorField;
    location    "0.135";
    object      UMean;
}
// * * * * * * * * * * * * * * * * * * * * * * * * * * * * * * * * * * * * * //

dimensions      [0 1 -1 0 0 0 0];

internalField   nonuniform List<vector> 
4400
(
(5.43857 0.31323 0)
(3.41911 0.0614592 0)
(2.69469 0.00155641 0)
(2.35922 -0.00226823 0)
(2.21807 -0.00148726 0)
(2.15214 -0.00073945 0)
(2.10992 -0.000186649 0)
(2.09452 -0.000343325 0)
(2.0902 0.000521192 0)
(1.93143 -0.0493925 0)
(8.67175 0.84309 0)
(7.63199 0.338616 0)
(6.73769 0.113085 0)
(6.0541 0.0514331 0)
(5.68157 0.0234552 0)
(5.48181 0.0129861 0)
(5.35192 0.00777832 0)
(5.30076 0.00331054 0)
(5.22049 0.0132859 0)
(5.24302 -0.1261 0)
(9.83976 0.918009 0)
(10.0383 0.466009 0)
(9.54876 0.205851 0)
(8.85085 0.121738 0)
(8.38195 0.0671963 0)
(8.08925 0.0388913 0)
(7.90689 0.0226964 0)
(7.8027 0.0146029 0)
(7.71745 0.0083991 0)
(7.69242 -0.123113 0)
(10.0561 0.788578 0)
(11.1241 0.483725 0)
(11.264 0.255312 0)
(10.8501 0.184893 0)
(10.4731 0.117703 0)
(10.1646 0.0735338 0)
(9.99707 0.0441552 0)
(9.83007 0.0287134 0)
(9.80803 0.0130228 0)
(9.64007 -0.119517 0)
(9.98536 0.632545 0)
(11.3212 0.423259 0)
(11.9399 0.236107 0)
(11.9217 0.203201 0)
(11.8268 0.150786 0)
(11.6105 0.101651 0)
(11.5631 0.06902 0)
(11.365 0.039453 0)
(11.4186 0.0272887 0)
(11.2182 -0.130055 0)
(9.95911 0.503533 0)
(11.2371 0.349529 0)
(12.0019 0.18019 0)
(12.1932 0.173238 0)
(12.3673 0.144167 0)
(12.3415 0.10727 0)
(12.4524 0.076066 0)
(12.3683 0.0497879 0)
(12.456 0.0241176 0)
(12.3499 -0.102998 0)
(9.96104 0.388337 0)
(11.1721 0.280067 0)
(11.9375 0.131394 0)
(12.1783 0.129538 0)
(12.4095 0.11446 0)
(12.5163 0.0869084 0)
(12.7075 0.0647536 0)
(12.783 0.0417065 0)
(12.9128 0.0110281 0)
(12.938 -0.0554981 0)
(9.95079 0.270152 0)
(11.1429 0.210616 0)
(11.8757 0.0855169 0)
(12.1559 0.0963386 0)
(12.3553 0.0758186 0)
(12.5097 0.0678793 0)
(12.6923 0.0357391 0)
(12.837 0.0332529 0)
(12.9785 -0.019067 0)
(13.0652 -0.0550412 0)
(9.93753 0.163902 0)
(11.1237 0.124889 0)
(11.8361 0.0520746 0)
(12.1435 0.0545113 0)
(12.3195 0.0478892 0)
(12.4918 0.0362018 0)
(12.6582 0.021695 0)
(12.8177 0.0052222 0)
(12.9489 -0.0293495 0)
(13.0316 -0.105372 0)
(9.93944 0.0519641 0)
(11.1057 0.0453883 0)
(11.8242 0.0125653 0)
(12.1296 0.022363 0)
(12.3094 0.00965076 0)
(12.4751 0.0155666 0)
(12.6476 -0.00495255 0)
(12.7988 -0.00871829 0)
(12.9327 -0.0555919 0)
(12.9943 -0.126208 0)
(9.93931 -0.0536008 0)
(11.1063 -0.0410345 0)
(11.8233 -0.0187992 0)
(12.1308 -0.0177404 0)
(12.3082 -0.0203215 0)
(12.4765 -0.0147704 0)
(12.6456 -0.0228083 0)
(12.7986 -0.0318019 0)
(12.9239 -0.0743147 0)
(12.9826 -0.145514 0)
(9.94477 -0.16441 0)
(11.1181 -0.122167 0)
(11.8414 -0.0562086 0)
(12.1391 -0.0524781 0)
(12.3234 -0.0555194 0)
(12.4868 -0.039379 0)
(12.659 -0.0449568 0)
(12.8057 -0.0510871 0)
(12.9305 -0.0941367 0)
(12.9837 -0.163536 0)
(9.96254 -0.273272 0)
(11.1333 -0.204963 0)
(11.8839 -0.0925614 0)
(12.1488 -0.0904226 0)
(12.3605 -0.0878385 0)
(12.5014 -0.0660093 0)
(12.6918 -0.0656304 0)
(12.8143 -0.0703905 0)
(12.9457 -0.112406 0)
(12.9699 -0.182938 0)
(9.97681 -0.388634 0)
(11.1561 -0.27828 0)
(11.9505 -0.134847 0)
(12.1641 -0.127392 0)
(12.4195 -0.121863 0)
(12.4995 -0.0907049 0)
(12.7091 -0.0866613 0)
(12.7412 -0.0871149 0)
(12.8613 -0.127147 0)
(12.7621 -0.195144 0)
(9.9672 -0.50581 0)
(11.226 -0.34648 0)
(12.0098 -0.184568 0)
(12.1826 -0.169384 0)
(12.372 -0.152629 0)
(12.3266 -0.109446 0)
(12.4403 -0.098256 0)
(12.3149 -0.0923863 0)
(12.3533 -0.125723 0)
(12.0838 -0.188745 0)
(9.99062 -0.63347 0)
(11.3123 -0.421358 0)
(11.9465 -0.239187 0)
(11.9102 -0.200315 0)
(11.8325 -0.158272 0)
(11.5883 -0.103756 0)
(11.5449 -0.0880158 0)
(11.2916 -0.0769311 0)
(11.2587 -0.111334 0)
(10.8734 -0.148356 0)
(10.0577 -0.789455 0)
(11.1176 -0.482598 0)
(11.2698 -0.257524 0)
(10.8362 -0.182792 0)
(10.4855 -0.123964 0)
(10.1235 -0.0742058 0)
(9.99765 -0.0616953 0)
(9.70471 -0.0536874 0)
(9.64968 -0.0865432 0)
(9.19572 -0.0966368 0)
(9.83927 -0.918342 0)
(10.0349 -0.465346 0)
(9.55184 -0.207101 0)
(8.84017 -0.120699 0)
(8.39139 -0.0709733 0)
(8.04623 -0.0400393 0)
(7.91081 -0.0342309 0)
(7.64873 -0.031816 0)
(7.59175 -0.056164 0)
(7.1134 -0.0539235 0)
(8.67108 -0.84325 0)
(7.63051 -0.338375 0)
(6.7386 -0.113642 0)
(6.0475 -0.0510837 0)
(5.68541 -0.0251784 0)
(5.44829 -0.0138456 0)
(5.34773 -0.0130565 0)
(5.16292 -0.0141962 0)
(5.1039 -0.0265342 0)
(4.69341 -0.0227472 0)
(5.43814 -0.313262 0)
(3.41873 -0.0614087 0)
(2.69448 -0.00165085 0)
(2.35663 0.00233663 0)
(2.21761 0.00131973 0)
(2.13679 0.00049338 0)
(2.09842 -0.000220408 0)
(2.02531 -0.00115412 0)
(1.97911 -0.00253806 0)
(1.78086 0.00981283 0)
(3.04322 -0.298505 0)
(3.43972 -0.14824 0)
(3.98329 -0.175378 0)
(4.4228 -0.191361 0)
(4.89472 -0.242838 0)
(5.29606 -0.349234 0)
(5.74429 -0.401238 0)
(6.05773 -0.544027 0)
(6.54322 -0.719767 0)
(6.74163 -0.788623 0)
(7.13261 -0.950407 0)
(7.36177 -1.04456 0)
(7.68594 -1.22361 0)
(7.99516 -1.39372 0)
(8.28535 -1.51172 0)
(8.59834 -1.61313 0)
(8.93245 -1.76738 0)
(9.18619 -1.86935 0)
(9.36166 -1.9837 0)
(9.55456 -2.04976 0)
(9.57752 -2.10307 0)
(9.70727 -2.08648 0)
(9.65449 -2.07883 0)
(9.81793 -2.04909 0)
(9.82498 -2.03647 0)
(9.89543 -1.99359 0)
(9.81225 -1.94533 0)
(9.74128 -1.8728 0)
(9.57631 -1.8008 0)
(9.48958 -1.67581 0)
(9.30454 -1.60004 0)
(9.27999 -1.56759 0)
(9.05885 -1.58816 0)
(9.03375 -1.54503 0)
(8.71126 -1.48575 0)
(8.62517 -1.33231 0)
(8.31734 -1.19974 0)
(8.11881 -0.929576 0)
(7.9128 -0.800839 0)
(7.7552 -0.554858 0)
(7.67394 -0.439437 0)
(7.56201 -0.181327 0)
(7.45575 -0.0409549 0)
(7.37481 0.22688 0)
(7.3012 0.269617 0)
(7.19022 0.549357 0)
(7.17544 0.564095 0)
(6.98043 0.860363 0)
(7.04907 0.759272 0)
(6.86155 1.04664 0)
(6.91622 0.821098 0)
(6.79945 1.13678 0)
(6.79889 0.802043 0)
(6.77436 1.13412 0)
(6.76726 0.689428 0)
(6.78878 1.07844 0)
(6.78839 0.504632 0)
(6.76303 0.937629 0)
(6.80421 0.248999 0)
(6.74924 0.733755 0)
(6.74234 -0.0107469 0)
(6.72492 0.528884 0)
(6.66587 -0.230569 0)
(6.65072 0.390719 0)
(6.63701 -0.387015 0)
(6.54314 0.283957 0)
(6.57907 -0.543211 0)
(6.39776 0.19273 0)
(6.4943 -0.660086 0)
(6.22482 0.154231 0)
(6.38127 -0.686161 0)
(6.04801 0.214978 0)
(6.25819 -0.599129 0)
(5.90875 0.373051 0)
(6.21545 -0.473868 0)
(5.94943 0.479252 0)
(6.36708 -0.357441 0)
(6.01756 0.572035 0)
(6.44651 -0.167531 0)
(6.02612 0.674052 0)
(6.45538 0.0324542 0)
(6.05058 0.814615 0)
(6.41381 0.272357 0)
(6.0407 1.0021 0)
(6.33963 0.534052 0)
(5.97947 1.16598 0)
(6.23969 0.751747 0)
(5.87406 1.29807 0)
(6.2034 0.976559 0)
(5.81314 1.45767 0)
(6.09173 1.16497 0)
(5.73432 1.65379 0)
(6.01958 1.41549 0)
(5.65009 2.06776 0)
(5.96279 1.83097 0)
(5.39014 2.79972 0)
(6.18988 2.57713 0)
(5.22429 4.33182 0)
(6.42505 4.591 0)
(3.72272 8.65237 0)
(5.49922 -0.307251 0)
(5.60962 -0.24288 0)
(5.8762 -0.288736 0)
(6.04636 -0.344498 0)
(6.37965 -0.410036 0)
(6.6213 -0.505667 0)
(6.98508 -0.582754 0)
(7.23158 -0.697381 0)
(7.61263 -0.861381 0)
(7.80072 -0.936672 0)
(8.093 -1.08256 0)
(8.31141 -1.17892 0)
(8.61267 -1.34096 0)
(8.91357 -1.51484 0)
(9.1712 -1.64621 0)
(9.42577 -1.74341 0)
(9.69946 -1.87459 0)
(9.89237 -1.95317 0)
(10.0012 -2.04493 0)
(10.1214 -2.09005 0)
(10.0938 -2.11842 0)
(10.1782 -2.09695 0)
(10.1519 -2.08898 0)
(10.2371 -2.06583 0)
(10.1895 -2.03472 0)
(10.1367 -1.96884 0)
(9.99247 -1.90085 0)
(9.85192 -1.81249 0)
(9.63169 -1.7365 0)
(9.49687 -1.62031 0)
(9.29798 -1.54879 0)
(9.24382 -1.51815 0)
(8.99522 -1.5184 0)
(8.9084 -1.4613 0)
(8.53664 -1.38924 0)
(8.43851 -1.23408 0)
(8.05864 -1.09362 0)
(7.90082 -0.841307 0)
(7.6694 -0.740423 0)
(7.54102 -0.495594 0)
(7.47459 -0.403339 0)
(7.34659 -0.132644 0)
(7.26234 -0.00470606 0)
(7.16806 0.266224 0)
(7.13412 0.295991 0)
(6.99576 0.591114 0)
(7.02988 0.593047 0)
(6.81573 0.895986 0)
(6.92694 0.77271 0)
(6.75661 1.07983 0)
(6.82737 0.834435 0)
(6.69185 1.16627 0)
(6.75863 0.805776 0)
(6.69712 1.16317 0)
(6.70759 0.669707 0)
(6.76623 1.10292 0)
(6.70862 0.479777 0)
(6.79298 0.962651 0)
(6.74866 0.2188 0)
(6.77979 0.779844 0)
(6.74151 -0.0456425 0)
(6.7238 0.594207 0)
(6.69803 -0.267026 0)
(6.63029 0.459582 0)
(6.66465 -0.429581 0)
(6.52305 0.375935 0)
(6.60267 -0.593342 0)
(6.36248 0.291774 0)
(6.50302 -0.710676 0)
(6.18011 0.274618 0)
(6.3788 -0.74295 0)
(5.99941 0.347512 0)
(6.26521 -0.685549 0)
(5.88635 0.487875 0)
(6.28595 -0.60277 0)
(5.93695 0.570951 0)
(6.44804 -0.496581 0)
(5.94569 0.696039 0)
(6.56409 -0.320179 0)
(5.95733 0.813927 0)
(6.65515 -0.134626 0)
(6.03352 0.965019 0)
(6.68712 0.11156 0)
(6.09024 1.1717 0)
(6.66189 0.372701 0)
(6.10835 1.35473 0)
(6.58152 0.598888 0)
(6.03819 1.49839 0)
(6.43428 0.792952 0)
(5.98362 1.67704 0)
(6.32796 0.990278 0)
(5.85188 1.88381 0)
(6.30688 1.20339 0)
(5.81543 2.3 0)
(6.51739 1.70106 0)
(5.61215 3.16248 0)
(6.47653 2.42502 0)
(4.9405 4.59106 0)
(8.27028 3.92083 0)
(5.90557 9.09128 0)
(7.82765 -0.305194 0)
(7.793 -0.296765 0)
(7.96251 -0.349057 0)
(8.03856 -0.411681 0)
(8.2396 -0.491457 0)
(8.36704 -0.575688 0)
(8.58651 -0.671829 0)
(8.73024 -0.779536 0)
(8.96035 -0.939154 0)
(9.09294 -1.03114 0)
(9.29061 -1.16606 0)
(9.47214 -1.28092 0)
(9.70426 -1.43804 0)
(9.94529 -1.6083 0)
(10.1358 -1.73701 0)
(10.264 -1.82905 0)
(10.4303 -1.9395 0)
(10.5384 -1.99926 0)
(10.5816 -2.06968 0)
(10.6083 -2.09375 0)
(10.5502 -2.10679 0)
(10.5717 -2.09683 0)
(10.5312 -2.08562 0)
(10.5132 -2.05574 0)
(10.386 -1.99994 0)
(10.2449 -1.91583 0)
(10.0425 -1.83173 0)
(9.84981 -1.72991 0)
(9.59056 -1.64854 0)
(9.42033 -1.5477 0)
(9.20396 -1.48132 0)
(9.11484 -1.44576 0)
(8.82503 -1.42355 0)
(8.68499 -1.35869 0)
(8.28436 -1.27673 0)
(8.17121 -1.12731 0)
(7.73268 -0.97725 0)
(7.6232 -0.75328 0)
(7.34944 -0.674728 0)
(7.27803 -0.440496 0)
(7.21001 -0.372752 0)
(7.079 -0.084334 0)
(7.02023 0.0299532 0)
(6.91298 0.303972 0)
(6.90086 0.32182 0)
(6.76735 0.624097 0)
(6.80587 0.616947 0)
(6.63193 0.921789 0)
(6.72962 0.779135 0)
(6.62767 1.09981 0)
(6.67424 0.851876 0)
(6.56064 1.17602 0)
(6.63466 0.796368 0)
(6.58642 1.17305 0)
(6.6243 0.641586 0)
(6.68037 1.11387 0)
(6.62829 0.44895 0)
(6.77661 0.9764 0)
(6.64754 0.191441 0)
(6.79704 0.802602 0)
(6.68435 -0.0617379 0)
(6.71695 0.635275 0)
(6.69025 -0.282691 0)
(6.61948 0.513901 0)
(6.64655 -0.455222 0)
(6.51429 0.433914 0)
(6.57092 -0.612642 0)
(6.36429 0.377592 0)
(6.45274 -0.729516 0)
(6.18475 0.368887 0)
(6.31904 -0.780129 0)
(6.01096 0.444829 0)
(6.21215 -0.751016 0)
(5.9316 0.565943 0)
(6.28044 -0.699518 0)
(5.94297 0.651655 0)
(6.41478 -0.606712 0)
(5.89793 0.799807 0)
(6.57701 -0.464565 0)
(5.90066 0.925455 0)
(6.78128 -0.310183 0)
(5.9932 1.08725 0)
(6.95715 -0.071432 0)
(6.11311 1.30798 0)
(7.10508 0.186978 0)
(6.2159 1.50879 0)
(7.21575 0.431573 0)
(6.26435 1.68378 0)
(7.18797 0.653405 0)
(6.17776 1.85945 0)
(7.04489 0.862237 0)
(5.96976 2.061 0)
(6.85755 1.01923 0)
(5.76026 2.38355 0)
(7.24809 1.32624 0)
(5.89987 3.26619 0)
(8.39241 2.22195 0)
(5.27058 4.96304 0)
(9.07515 3.28556 0)
(6.93887 9.10348 0)
(9.79629 -0.325869 0)
(9.7105 -0.350126 0)
(9.79969 -0.402324 0)
(9.85716 -0.457523 0)
(9.98173 -0.535511 0)
(10.0576 -0.616057 0)
(10.17 -0.721651 0)
(10.2451 -0.829193 0)
(10.3551 -0.975783 0)
(10.4364 -1.08615 0)
(10.5627 -1.21879 0)
(10.687 -1.34487 0)
(10.8191 -1.49608 0)
(10.9399 -1.66078 0)
(11.0314 -1.78738 0)
(11.0362 -1.86691 0)
(11.0663 -1.95913 0)
(11.0738 -2.00798 0)
(11.0441 -2.05679 0)
(10.9863 -2.06752 0)
(10.903 -2.07907 0)
(10.863 -2.082 0)
(10.7632 -2.05968 0)
(10.647 -2.0091 0)
(10.4416 -1.92815 0)
(10.2366 -1.8289 0)
(9.97583 -1.73398 0)
(9.73443 -1.62638 0)
(9.45737 -1.54774 0)
(9.25268 -1.45931 0)
(9.01405 -1.40323 0)
(8.87115 -1.35959 0)
(8.54775 -1.31731 0)
(8.35977 -1.24267 0)
(7.95641 -1.15629 0)
(7.81344 -1.01062 0)
(7.34951 -0.859228 0)
(7.27657 -0.675803 0)
(6.97611 -0.620536 0)
(6.98445 -0.400762 0)
(6.89972 -0.349848 0)
(6.77529 -0.0355433 0)
(6.75017 0.0599645 0)
(6.61606 0.344073 0)
(6.62946 0.343101 0)
(6.48935 0.656139 0)
(6.54529 0.62246 0)
(6.4253 0.948094 0)
(6.49685 0.772529 0)
(6.44173 1.11465 0)
(6.48789 0.855528 0)
(6.4212 1.19831 0)
(6.47169 0.787263 0)
(6.43841 1.18641 0)
(6.50424 0.615524 0)
(6.52591 1.13506 0)
(6.53896 0.401692 0)
(6.6539 1.00354 0)
(6.56332 0.145799 0)
(6.7276 0.828772 0)
(6.61336 -0.0872633 0)
(6.67044 0.668618 0)
(6.66239 -0.310819 0)
(6.56916 0.564828 0)
(6.62489 -0.481249 0)
(6.46316 0.514966 0)
(6.52795 -0.630997 0)
(6.31268 0.472311 0)
(6.39638 -0.764659 0)
(6.13409 0.47947 0)
(6.26302 -0.827315 0)
(5.96631 0.560042 0)
(6.1866 -0.82876 0)
(5.89015 0.662852 0)
(6.25597 -0.809541 0)
(5.82519 0.772465 0)
(6.34888 -0.736981 0)
(5.73148 0.932552 0)
(6.54717 -0.634277 0)
(5.71357 1.06911 0)
(6.83229 -0.512208 0)
(5.76279 1.24572 0)
(7.14072 -0.297801 0)
(5.88841 1.47418 0)
(7.46072 -0.0667829 0)
(6.04943 1.68531 0)
(7.79622 0.153437 0)
(6.2718 1.88815 0)
(8.02472 0.398971 0)
(6.4599 2.12849 0)
(8.06296 0.678313 0)
(6.37493 2.4182 0)
(7.75228 0.901221 0)
(5.80367 2.81029 0)
(7.44432 0.993477 0)
(5.19687 3.454 0)
(8.88423 1.59843 0)
(5.8498 5.02945 0)
(10.8051 2.25014 0)
(8.32065 8.45721 0)
(11.3316 -0.289421 0)
(11.2818 -0.325681 0)
(11.2974 -0.403661 0)
(11.3178 -0.47364 0)
(11.3819 -0.556792 0)
(11.4232 -0.639697 0)
(11.4693 -0.746743 0)
(11.4974 -0.854097 0)
(11.5403 -0.990544 0)
(11.5807 -1.11643 0)
(11.6437 -1.25292 0)
(11.6897 -1.3796 0)
(11.7235 -1.51705 0)
(11.7265 -1.66105 0)
(11.7134 -1.78537 0)
(11.6304 -1.85717 0)
(11.5392 -1.93648 0)
(11.4497 -1.98666 0)
(11.3469 -2.02717 0)
(11.2438 -2.04 0)
(11.1448 -2.05029 0)
(11.0438 -2.04587 0)
(10.8658 -2.00005 0)
(10.6583 -1.92711 0)
(10.376 -1.8272 0)
(10.1083 -1.72005 0)
(9.79329 -1.61907 0)
(9.51675 -1.51634 0)
(9.23399 -1.44149 0)
(8.99759 -1.36193 0)
(8.7281 -1.30912 0)
(8.52978 -1.25355 0)
(8.1774 -1.19555 0)
(7.95864 -1.11944 0)
(7.54889 -1.02778 0)
(7.37605 -0.887591 0)
(6.90478 -0.741056 0)
(6.86966 -0.612067 0)
(6.57626 -0.573648 0)
(6.66939 -0.379451 0)
(6.53344 -0.32531 0)
(6.44511 0.00934895 0)
(6.4355 0.0837729 0)
(6.29543 0.378098 0)
(6.32668 0.363502 0)
(6.17816 0.679731 0)
(6.23887 0.622671 0)
(6.19074 0.956031 0)
(6.23227 0.762269 0)
(6.25237 1.12417 0)
(6.23627 0.844049 0)
(6.27522 1.20335 0)
(6.24941 0.773479 0)
(6.32179 1.17602 0)
(6.29218 0.58183 0)
(6.41623 1.12619 0)
(6.3733 0.364149 0)
(6.53164 1.01106 0)
(6.45643 0.107688 0)
(6.62274 0.840849 0)
(6.53802 -0.109214 0)
(6.63031 0.680268 0)
(6.58123 -0.317253 0)
(6.55076 0.593331 0)
(6.54196 -0.483761 0)
(6.4381 0.55879 0)
(6.42486 -0.641809 0)
(6.28685 0.531477 0)
(6.28468 -0.775588 0)
(6.12393 0.556386 0)
(6.15545 -0.858971 0)
(5.96776 0.633677 0)
(6.10943 -0.891224 0)
(5.86431 0.737524 0)
(6.13608 -0.892637 0)
(5.75045 0.868583 0)
(6.20846 -0.849895 0)
(5.66202 1.02939 0)
(6.41028 -0.782432 0)
(5.62652 1.1713 0)
(6.7092 -0.691153 0)
(5.62378 1.35413 0)
(7.0863 -0.512275 0)
(5.70959 1.59616 0)
(7.50687 -0.321834 0)
(5.83747 1.8239 0)
(8.02507 -0.183716 0)
(6.10312 2.03883 0)
(8.69608 -0.0193434 0)
(6.43888 2.26137 0)
(9.55675 0.256844 0)
(6.7601 2.57576 0)
(10.3646 0.653922 0)
(6.5779 3.03637 0)
(10.6879 1.144 0)
(5.51292 3.74486 0)
(10.2159 1.39477 0)
(5.37617 5.46213 0)
(9.92354 1.33013 0)
(8.85151 7.81283 0)
(12.4075 -0.293154 0)
(12.3763 -0.370631 0)
(12.3644 -0.44809 0)
(12.3662 -0.506492 0)
(12.3905 -0.574799 0)
(12.3999 -0.648152 0)
(12.3978 -0.747736 0)
(12.3891 -0.856318 0)
(12.3874 -0.98958 0)
(12.3794 -1.12083 0)
(12.3702 -1.25744 0)
(12.336 -1.37879 0)
(12.2887 -1.50326 0)
(12.2107 -1.62384 0)
(12.1152 -1.74131 0)
(11.9803 -1.81409 0)
(11.8232 -1.88458 0)
(11.6786 -1.93597 0)
(11.5364 -1.9794 0)
(11.4139 -1.99858 0)
(11.2824 -2.00319 0)
(11.0987 -1.97616 0)
(10.8442 -1.90462 0)
(10.5491 -1.81016 0)
(10.206 -1.69886 0)
(9.88284 -1.5845 0)
(9.53273 -1.48259 0)
(9.22802 -1.39011 0)
(8.93187 -1.32441 0)
(8.65417 -1.2507 0)
(8.35374 -1.19711 0)
(8.09284 -1.12796 0)
(7.7271 -1.06559 0)
(7.4785 -0.98821 0)
(7.0743 -0.900106 0)
(6.8745 -0.763217 0)
(6.42501 -0.633478 0)
(6.43672 -0.566153 0)
(6.17373 -0.543477 0)
(6.3059 -0.364162 0)
(6.10576 -0.292633 0)
(6.07847 0.0444391 0)
(6.06495 0.0934026 0)
(5.94879 0.409242 0)
(5.99005 0.375887 0)
(5.83645 0.701032 0)
(5.91623 0.600927 0)
(5.91472 0.972369 0)
(5.94562 0.724245 0)
(6.00213 1.13395 0)
(6.00455 0.822191 0)
(6.08633 1.2211 0)
(6.02327 0.755871 0)
(6.18868 1.18721 0)
(6.05415 0.554507 0)
(6.29795 1.1124 0)
(6.17453 0.321618 0)
(6.41135 1.00179 0)
(6.34105 0.0637341 0)
(6.4719 0.850208 0)
(6.49571 -0.146031 0)
(6.50194 0.707975 0)
(6.51707 -0.329654 0)
(6.43826 0.635477 0)
(6.45918 -0.495209 0)
(6.3212 0.621152 0)
(6.34401 -0.648758 0)
(6.17612 0.613664 0)
(6.19946 -0.801143 0)
(6.01738 0.638955 0)
(6.08231 -0.902391 0)
(5.86451 0.72269 0)
(6.04361 -0.956031 0)
(5.71704 0.841141 0)
(6.06009 -0.989674 0)
(5.59353 0.987693 0)
(6.14838 -0.988066 0)
(5.52154 1.15235 0)
(6.33369 -0.954155 0)
(5.47251 1.30218 0)
(6.62491 -0.881857 0)
(5.43279 1.48856 0)
(7.03472 -0.717113 0)
(5.44281 1.74821 0)
(7.48013 -0.521629 0)
(5.45091 2.0137 0)
(7.96501 -0.413057 0)
(5.47324 2.25948 0)
(8.70172 -0.304595 0)
(5.51532 2.49222 0)
(9.78534 -0.156207 0)
(5.76739 2.77676 0)
(11.2902 0.127931 0)
(6.28193 3.18725 0)
(12.6678 0.517579 0)
(7.00056 3.99543 0)
(12.7706 0.820768 0)
(7.75687 5.56283 0)
(10.7252 1.24476 0)
(8.92273 7.03636 0)
(12.9531 -0.311493 0)
(12.9419 -0.424405 0)
(12.9398 -0.478722 0)
(12.9412 -0.509638 0)
(12.9337 -0.559982 0)
(12.9145 -0.631823 0)
(12.8821 -0.731016 0)
(12.8493 -0.847138 0)
(12.8104 -0.978538 0)
(12.757 -1.10777 0)
(12.6899 -1.23844 0)
(12.6016 -1.35509 0)
(12.5029 -1.47095 0)
(12.3829 -1.5784 0)
(12.2494 -1.68718 0)
(12.1015 -1.76493 0)
(11.9431 -1.82868 0)
(11.7967 -1.87734 0)
(11.6458 -1.92203 0)
(11.4898 -1.94272 0)
(11.2845 -1.93181 0)
(11.0086 -1.87732 0)
(10.6807 -1.77923 0)
(10.3186 -1.66866 0)
(9.93487 -1.54868 0)
(9.57977 -1.4349 0)
(9.20214 -1.33771 0)
(8.87134 -1.26211 0)
(8.53987 -1.20422 0)
(8.2272 -1.1336 0)
(7.89386 -1.07227 0)
(7.58895 -0.995473 0)
(7.21824 -0.929831 0)
(6.9415 -0.852091 0)
(6.55441 -0.768492 0)
(6.32517 -0.637311 0)
(5.92772 -0.544845 0)
(5.97763 -0.538871 0)
(5.73101 -0.512813 0)
(5.86948 -0.340488 0)
(5.62066 -0.252946 0)
(5.68417 0.0668725 0)
(5.63475 0.103123 0)
(5.55997 0.433609 0)
(5.62357 0.394242 0)
(5.47256 0.715406 0)
(5.56658 0.572193 0)
(5.6097 0.971445 0)
(5.65297 0.710461 0)
(5.72279 1.12884 0)
(5.71653 0.780113 0)
(5.87694 1.21305 0)
(5.76823 0.720079 0)
(6.05043 1.17399 0)
(5.82549 0.528776 0)
(6.19532 1.09364 0)
(5.94216 0.289148 0)
(6.31618 0.969905 0)
(6.15786 0.0300624 0)
(6.3607 0.822802 0)
(6.37632 -0.179919 0)
(6.36584 0.719042 0)
(6.407 -0.34033 0)
(6.31027 0.6687 0)
(6.33701 -0.486913 0)
(6.19017 0.670794 0)
(6.21653 -0.646681 0)
(6.04881 0.671226 0)
(6.07793 -0.805401 0)
(5.90228 0.709525 0)
(5.96306 -0.917149 0)
(5.75979 0.789899 0)
(5.90694 -0.996854 0)
(5.62338 0.907235 0)
(5.92948 -1.06319 0)
(5.52686 1.0591 0)
(6.01084 -1.09572 0)
(5.47072 1.23166 0)
(6.16 -1.09565 0)
(5.44104 1.38294 0)
(6.40788 -1.04866 0)
(5.42471 1.55693 0)
(6.79365 -0.912584 0)
(5.45802 1.80817 0)
(7.2082 -0.727967 0)
(5.49474 2.07566 0)
(7.4988 -0.620465 0)
(5.47544 2.30805 0)
(7.83407 -0.530338 0)
(5.42623 2.59538 0)
(8.23931 -0.445651 0)
(5.36784 2.9901 0)
(8.88688 -0.317999 0)
(5.71814 3.5309 0)
(9.86679 -0.111333 0)
(6.91315 4.3828 0)
(11.1439 0.262599 0)
(8.6244 5.63812 0)
(12.0112 1.57973 0)
(9.6733 6.24897 0)
(13.0407 -0.290344 0)
(13.048 -0.415825 0)
(13.07 -0.48011 0)
(13.0705 -0.512764 0)
(13.0459 -0.560198 0)
(13.014 -0.633333 0)
(12.9708 -0.729976 0)
(12.9235 -0.843022 0)
(12.8608 -0.964499 0)
(12.7834 -1.08459 0)
(12.6906 -1.20615 0)
(12.585 -1.31872 0)
(12.471 -1.42953 0)
(12.3503 -1.53207 0)
(12.2229 -1.63402 0)
(12.0944 -1.71368 0)
(11.9586 -1.77537 0)
(11.8168 -1.82139 0)
(11.6442 -1.85572 0)
(11.426 -1.85648 0)
(11.1364 -1.8159 0)
(10.7771 -1.72971 0)
(10.3886 -1.6171 0)
(9.97391 -1.50262 0)
(9.56624 -1.38535 0)
(9.18316 -1.27708 0)
(8.78504 -1.18833 0)
(8.42653 -1.12192 0)
(8.0633 -1.06761 0)
(7.71815 -0.993706 0)
(7.35877 -0.92484 0)
(7.03117 -0.849685 0)
(6.67127 -0.791632 0)
(6.37759 -0.71828 0)
(6.01605 -0.63936 0)
(5.75284 -0.515462 0)
(5.44001 -0.483921 0)
(5.48882 -0.507716 0)
(5.24574 -0.480563 0)
(5.39001 -0.322026 0)
(5.13308 -0.229147 0)
(5.27696 0.0695793 0)
(5.15563 0.108561 0)
(5.15016 0.441454 0)
(5.20134 0.393131 0)
(5.10537 0.723152 0)
(5.20697 0.528031 0)
(5.27322 0.962781 0)
(5.32336 0.64524 0)
(5.40764 1.13488 0)
(5.4438 0.731115 0)
(5.61739 1.21368 0)
(5.53957 0.677164 0)
(5.83738 1.17315 0)
(5.6151 0.48812 0)
(6.03408 1.08185 0)
(5.75466 0.239015 0)
(6.18843 0.951726 0)
(5.99207 -0.00977031 0)
(6.25045 0.810898 0)
(6.22697 -0.204516 0)
(6.22114 0.743212 0)
(6.27915 -0.351335 0)
(6.1467 0.714312 0)
(6.21496 -0.489709 0)
(6.01877 0.725612 0)
(6.10449 -0.649423 0)
(5.87893 0.744264 0)
(5.98101 -0.815691 0)
(5.73628 0.785126 0)
(5.86637 -0.949624 0)
(5.60647 0.865548 0)
(5.80994 -1.05036 0)
(5.50934 0.985029 0)
(5.83593 -1.13942 0)
(5.42845 1.1465 0)
(5.92822 -1.20103 0)
(5.37322 1.33499 0)
(6.07485 -1.24143 0)
(5.34065 1.49441 0)
(6.30129 -1.23414 0)
(5.33706 1.67059 0)
(6.67669 -1.13193 0)
(5.3877 1.92631 0)
(7.14019 -0.963165 0)
(5.45711 2.22262 0)
(7.43845 -0.865867 0)
(5.48851 2.43322 0)
(7.74896 -0.798912 0)
(5.58291 2.68421 0)
(8.03642 -0.738564 0)
(5.78632 3.03503 0)
(8.15158 -0.714807 0)
(6.21819 3.62278 0)
(8.23332 -0.711127 0)
(6.97807 4.59204 0)
(9.13888 -0.290072 0)
(8.17471 5.48736 0)
(11.2673 1.48785 0)
(10.3094 5.65259 0)
(12.9956 -0.281455 0)
(13.0086 -0.373971 0)
(13.0446 -0.435226 0)
(13.0539 -0.478491 0)
(13.0291 -0.530364 0)
(12.9863 -0.604045 0)
(12.9287 -0.698089 0)
(12.8649 -0.807663 0)
(12.7886 -0.923779 0)
(12.7081 -1.0417 0)
(12.6167 -1.16055 0)
(12.5216 -1.27479 0)
(12.4165 -1.38328 0)
(12.312 -1.48573 0)
(12.1933 -1.58126 0)
(12.0687 -1.661 0)
(11.9169 -1.7189 0)
(11.7409 -1.75604 0)
(11.5049 -1.76295 0)
(11.2069 -1.73046 0)
(10.8285 -1.65652 0)
(10.4037 -1.55056 0)
(9.96485 -1.43529 0)
(9.51649 -1.32728 0)
(9.09074 -1.21385 0)
(8.68441 -1.11252 0)
(8.26674 -1.03061 0)
(7.88598 -0.968529 0)
(7.49245 -0.913746 0)
(7.11839 -0.842789 0)
(6.73817 -0.776133 0)
(6.40671 -0.709126 0)
(6.06303 -0.654709 0)
(5.77319 -0.587483 0)
(5.42926 -0.508649 0)
(5.16979 -0.410072 0)
(4.94379 -0.434207 0)
(4.9676 -0.471006 0)
(4.73645 -0.451496 0)
(4.90451 -0.308431 0)
(4.64445 -0.208294 0)
(4.84217 0.0740959 0)
(4.64864 0.125272 0)
(4.73814 0.442977 0)
(4.76249 0.388405 0)
(4.73372 0.720459 0)
(4.82738 0.47983 0)
(4.94216 0.955686 0)
(4.99717 0.622521 0)
(5.0911 1.10547 0)
(5.12157 0.668923 0)
(5.34437 1.17779 0)
(5.27361 0.617983 0)
(5.62528 1.14808 0)
(5.40821 0.449506 0)
(5.85532 1.05996 0)
(5.55864 0.194149 0)
(6.04878 0.921617 0)
(5.78416 -0.0445287 0)
(6.13915 0.784199 0)
(5.99672 -0.216541 0)
(6.10991 0.74165 0)
(6.06977 -0.341174 0)
(6.01282 0.732575 0)
(6.01676 -0.465619 0)
(5.88985 0.756611 0)
(5.91317 -0.621694 0)
(5.7618 0.776947 0)
(5.79557 -0.797731 0)
(5.63816 0.819196 0)
(5.69696 -0.941661 0)
(5.54345 0.897098 0)
(5.64737 -1.06237 0)
(5.4875 1.01091 0)
(5.66662 -1.17006 0)
(5.43297 1.17525 0)
(5.75154 -1.25866 0)
(5.37906 1.37767 0)
(5.89769 -1.33123 0)
(5.33772 1.55463 0)
(6.09671 -1.36441 0)
(5.35872 1.72168 0)
(6.41687 -1.30198 0)
(5.43397 1.9724 0)
(6.84778 -1.16447 0)
(5.52537 2.3283 0)
(7.09814 -1.07688 0)
(5.54436 2.56458 0)
(7.36912 -1.0412 0)
(5.63695 2.85401 0)
(7.62935 -1.03082 0)
(5.90483 3.23605 0)
(7.84675 -1.05834 0)
(6.43342 3.78136 0)
(8.0999 -0.984147 0)
(7.23549 4.50773 0)
(8.57746 -0.435995 0)
(8.0968 5.0817 0)
(9.7801 1.12657 0)
(10.3749 5.00203 0)
(12.9535 -0.257876 0)
(12.9645 -0.326165 0)
(13.0035 -0.388816 0)
(13.0104 -0.448567 0)
(12.9796 -0.51399 0)
(12.92 -0.591369 0)
(12.8521 -0.684092 0)
(12.7809 -0.789058 0)
(12.713 -0.902067 0)
(12.6421 -1.01601 0)
(12.5666 -1.13073 0)
(12.4806 -1.24119 0)
(12.3809 -1.34533 0)
(12.2642 -1.44052 0)
(12.1268 -1.52731 0)
(11.9599 -1.59679 0)
(11.7504 -1.64218 0)
(11.4949 -1.65522 0)
(11.1702 -1.63134 0)
(10.7766 -1.56802 0)
(10.3237 -1.47085 0)
(9.85619 -1.35407 0)
(9.39549 -1.24367 0)
(8.93477 -1.14013 0)
(8.50132 -1.02957 0)
(8.07564 -0.935304 0)
(7.64266 -0.861155 0)
(7.23885 -0.798304 0)
(6.82282 -0.745998 0)
(6.4372 -0.685419 0)
(6.06701 -0.631126 0)
(5.7469 -0.575881 0)
(5.4274 -0.526523 0)
(5.14455 -0.460678 0)
(4.81747 -0.387854 0)
(4.58924 -0.328082 0)
(4.42301 -0.395723 0)
(4.41476 -0.440632 0)
(4.21433 -0.435239 0)
(4.38058 -0.301223 0)
(4.10836 -0.192517 0)
(4.35422 0.0738752 0)
(4.11212 0.124622 0)
(4.32143 0.421482 0)
(4.25013 0.363348 0)
(4.3532 0.699349 0)
(4.40698 0.421573 0)
(4.57146 0.923774 0)
(4.58936 0.537023 0)
(4.78438 1.09638 0)
(4.80098 0.608017 0)
(5.04745 1.15405 0)
(5.01027 0.553927 0)
(5.34863 1.11729 0)
(5.17266 0.381158 0)
(5.63194 1.03663 0)
(5.32983 0.124991 0)
(5.85775 0.895908 0)
(5.55976 -0.0874776 0)
(5.96885 0.768851 0)
(5.74733 -0.234663 0)
(5.95933 0.744228 0)
(5.84314 -0.335354 0)
(5.87163 0.750743 0)
(5.81765 -0.444346 0)
(5.76664 0.780716 0)
(5.73552 -0.5968 0)
(5.65554 0.807731 0)
(5.64922 -0.771185 0)
(5.5442 0.853671 0)
(5.58082 -0.926982 0)
(5.46399 0.929708 0)
(5.54583 -1.06093 0)
(5.42089 1.04405 0)
(5.55871 -1.1782 0)
(5.3888 1.20851 0)
(5.62539 -1.28311 0)
(5.34269 1.41308 0)
(5.78831 -1.39149 0)
(5.28971 1.60645 0)
(6.01728 -1.47957 0)
(5.29323 1.78583 0)
(6.32683 -1.46931 0)
(5.38422 2.04223 0)
(6.72118 -1.36498 0)
(5.54489 2.44846 0)
(7.00344 -1.27267 0)
(5.61045 2.68681 0)
(7.26978 -1.27515 0)
(5.80464 2.97071 0)
(7.46828 -1.30905 0)
(6.19985 3.34509 0)
(7.60888 -1.30445 0)
(6.77011 3.8083 0)
(7.76802 -1.10532 0)
(7.47167 4.35091 0)
(8.18424 -0.375723 0)
(8.30665 4.5917 0)
(8.94953 0.991798 0)
(10.0812 4.26447 0)
(12.9326 -0.241107 0)
(12.9431 -0.292074 0)
(12.9841 -0.353104 0)
(12.994 -0.421647 0)
(12.9625 -0.495091 0)
(12.9051 -0.576713 0)
(12.837 -0.666355 0)
(12.7685 -0.765128 0)
(12.7002 -0.869984 0)
(12.6237 -0.977087 0)
(12.5343 -1.08274 0)
(12.4287 -1.18627 0)
(12.3003 -1.28193 0)
(12.1428 -1.36851 0)
(11.9513 -1.44164 0)
(11.7136 -1.49449 0)
(11.4171 -1.51694 0)
(11.0597 -1.50434 0)
(10.6296 -1.45387 0)
(10.1507 -1.37153 0)
(9.64961 -1.26507 0)
(9.16319 -1.15285 0)
(8.69377 -1.05566 0)
(8.23037 -0.958798 0)
(7.80176 -0.849545 0)
(7.37038 -0.758162 0)
(6.92833 -0.687244 0)
(6.51437 -0.624809 0)
(6.09341 -0.576895 0)
(5.72646 -0.525911 0)
(5.38195 -0.48336 0)
(5.09063 -0.442052 0)
(4.79928 -0.394458 0)
(4.52844 -0.332695 0)
(4.23396 -0.27138 0)
(4.04804 -0.252467 0)
(3.92676 -0.350644 0)
(3.89302 -0.405558 0)
(3.72307 -0.412803 0)
(3.87047 -0.287884 0)
(3.60189 -0.176293 0)
(3.88599 0.071089 0)
(3.59894 0.121178 0)
(3.92388 0.398922 0)
(3.7332 0.343704 0)
(3.99514 0.662542 0)
(3.96983 0.358699 0)
(4.26195 0.911192 0)
(4.19974 0.494885 0)
(4.48164 1.04563 0)
(4.4357 0.530548 0)
(4.77707 1.09694 0)
(4.69213 0.471178 0)
(5.12379 1.08024 0)
(4.88951 0.323646 0)
(5.4329 1.00426 0)
(5.06146 0.0821003 0)
(5.64451 0.844067 0)
(5.27801 -0.120935 0)
(5.78487 0.73328 0)
(5.45123 -0.237605 0)
(5.80547 0.718147 0)
(5.56773 -0.308044 0)
(5.73816 0.736788 0)
(5.57255 -0.401911 0)
(5.64836 0.769659 0)
(5.52566 -0.549539 0)
(5.55598 0.796265 0)
(5.46678 -0.724721 0)
(5.46039 0.835699 0)
(5.42181 -0.886616 0)
(5.39851 0.908982 0)
(5.39859 -1.02624 0)
(5.38248 1.02173 0)
(5.3949 -1.14592 0)
(5.38551 1.18615 0)
(5.42501 -1.24997 0)
(5.37654 1.38922 0)
(5.56595 -1.36466 0)
(5.33064 1.59727 0)
(5.79607 -1.47638 0)
(5.30421 1.77549 0)
(6.08828 -1.51203 0)
(5.37909 2.03247 0)
(6.43232 -1.46519 0)
(5.57525 2.49039 0)
(6.72767 -1.39851 0)
(5.6631 2.75381 0)
(7.01317 -1.42339 0)
(5.91332 3.05304 0)
(7.23291 -1.45315 0)
(6.34502 3.38723 0)
(7.47105 -1.39803 0)
(6.96546 3.77595 0)
(7.76404 -1.08281 0)
(7.67392 4.07038 0)
(8.2828 -0.280984 0)
(8.5391 4.00665 0)
(9.14152 1.0593 0)
(9.9189 3.48753 0)
(12.9282 -0.228 0)
(12.9338 -0.259139 0)
(12.9693 -0.311484 0)
(12.9696 -0.3801 0)
(12.9325 -0.461064 0)
(12.8685 -0.548132 0)
(12.7922 -0.640396 0)
(12.7079 -0.735085 0)
(12.6182 -0.834058 0)
(12.514 -0.933715 0)
(12.3919 -1.03192 0)
(12.2443 -1.12433 0)
(12.0654 -1.20917 0)
(11.8422 -1.28076 0)
(11.5702 -1.33416 0)
(11.2359 -1.36221 0)
(10.8375 -1.35785 0)
(10.3718 -1.3166 0)
(9.85554 -1.24485 0)
(9.32343 -1.15304 0)
(8.79319 -1.04874 0)
(8.29185 -0.948328 0)
(7.80609 -0.86466 0)
(7.34084 -0.775433 0)
(6.92864 -0.669809 0)
(6.50505 -0.577991 0)
(6.07323 -0.513885 0)
(5.68013 -0.456591 0)
(5.28844 -0.422809 0)
(4.95893 -0.390166 0)
(4.65093 -0.36477 0)
(4.39253 -0.330145 0)
(4.12522 -0.284293 0)
(3.88146 -0.227616 0)
(3.63543 -0.181144 0)
(3.49707 -0.199511 0)
(3.40094 -0.315177 0)
(3.34868 -0.375478 0)
(3.2107 -0.39182 0)
(3.32 -0.27503 0)
(3.096 -0.168064 0)
(3.3816 0.0599666 0)
(3.07697 0.105814 0)
(3.48462 0.37515 0)
(3.19332 0.311576 0)
(3.64162 0.597457 0)
(3.47841 0.299747 0)
(3.92768 0.85225 0)
(3.74225 0.399262 0)
(4.21163 1.01781 0)
(4.04927 0.476423 0)
(4.51667 1.05128 0)
(4.35015 0.410757 0)
(4.86734 1.02095 0)
(4.55886 0.242571 0)
(5.20606 0.961101 0)
(4.75377 0.0286392 0)
(5.42695 0.804453 0)
(4.98559 -0.149031 0)
(5.56286 0.698956 0)
(5.16664 -0.244176 0)
(5.60868 0.690567 0)
(5.29448 -0.297393 0)
(5.57971 0.721668 0)
(5.33699 -0.373125 0)
(5.5288 0.757203 0)
(5.33503 -0.506792 0)
(5.45675 0.783472 0)
(5.31612 -0.672368 0)
(5.38338 0.81905 0)
(5.30463 -0.833795 0)
(5.33878 0.888275 0)
(5.29795 -0.980059 0)
(5.33056 0.999765 0)
(5.29516 -1.10414 0)
(5.33901 1.16235 0)
(5.30663 -1.21462 0)
(5.35623 1.35049 0)
(5.41475 -1.33327 0)