/*--------------------------------*- C++ -*----------------------------------*\
| =========                 |                                                 |
| \\      /  F ield         | OpenFOAM: The Open Source CFD Toolbox           |
|  \\    /   O peration     | Version:  2.4.0                                 |
|   \\  /    A nd           | Web:      www.OpenFOAM.org                      |
|    \\/     M anipulation  |                                                 |
\*---------------------------------------------------------------------------*/
FoamFile
{
    version     2.0;
    format      ascii;
    class       volScalarField;
    location    "0.005";
    object      nuSgs;
}
// * * * * * * * * * * * * * * * * * * * * * * * * * * * * * * * * * * * * * //

dimensions      [0 2 -1 0 0 0 0];

internalField   nonuniform List<scalar> 
4400
(
0.00206344
0.0021039
0.0019913
0.00192266
0.0019242
0.00194142
0.00194006
0.00200232
0.00197205
0.00209809
0.00127737
0.00179239
0.00188377
0.00185359
0.00182076
0.00182527
0.00182032
0.00185469
0.00174728
0.00181499
0.000484536
0.00104937
0.00115881
0.00113146
0.00107249
0.00106788
0.00105132
0.00107349
0.00100586
0.000777643
0.000143447
0.000417813
0.00043755
0.000398712
0.000347249
0.000337648
0.00032726
0.000337381
0.000309745
0.000221912
3.44333e-05
0.000109701
9.81802e-05
6.58031e-05
4.79732e-05
4.51485e-05
4.18424e-05
4.55592e-05
3.8035e-05
3.13475e-05
7.76063e-06
2.17348e-05
1.57741e-05
7.56509e-06
3.78988e-06
2.74929e-06
2.05289e-06
2.19208e-06
3.10796e-06
7.80492e-06
3.71303e-06
7.26822e-06
6.20192e-06
4.14205e-06
2.37238e-06
1.21876e-06
5.37873e-07
4.29883e-07
1.11805e-06
7.42884e-06
3.47881e-06
6.46941e-06
5.84373e-06
4.07327e-06
2.35138e-06
1.20823e-06
5.38587e-07
3.75184e-07
1.06923e-06
8.98052e-06
3.44381e-06
6.38714e-06
5.7908e-06
4.05715e-06
2.34376e-06
1.20395e-06
5.47142e-07
3.22524e-07
1.20029e-06
4.17695e-06
3.42853e-06
6.35235e-06
5.76692e-06
4.04924e-06
2.34025e-06
1.20203e-06
5.50721e-07
3.00196e-07
8.77687e-07
4.5168e-06
3.42852e-06
6.35237e-06
5.76696e-06
4.04919e-06
2.34035e-06
1.20131e-06
5.54557e-07
2.85744e-07
8.26699e-07
4.51578e-06
3.44382e-06
6.38718e-06
5.79093e-06
4.05704e-06
2.34416e-06
1.2022e-06
5.57108e-07
2.77408e-07
7.29581e-07
4.15092e-06
3.47879e-06
6.46877e-06
5.84365e-06
4.07306e-06
2.35195e-06
1.20469e-06
5.59485e-07
2.74872e-07
6.80913e-07
4.37249e-06
3.71421e-06
7.2447e-06
6.19149e-06
4.13822e-06
2.37292e-06
1.21135e-06
5.8603e-07
4.84791e-07
1.42993e-06
5.30513e-06
7.78235e-06
2.15991e-05
1.5676e-05
7.48138e-06
3.79535e-06
2.48527e-06
3.32778e-06
4.76599e-06
9.89011e-06
1.63648e-05
3.44903e-05
0.000109588
9.80782e-05
6.56331e-05
4.84143e-05
4.40369e-05
4.75915e-05
5.34067e-05
7.36363e-05
7.92954e-05
0.000143467
0.000418028
0.000437769
0.000398845
0.000349394
0.000336663
0.000341166
0.000348369
0.000377985
0.000364793
0.000484344
0.00104946
0.00115918
0.00113143
0.00107572
0.00106559
0.00107017
0.00107144
0.00108379
0.00104873
0.00127713
0.00179219
0.00188381
0.00185324
0.00182148
0.00182203
0.00182365
0.00181409
0.00179893
0.00173256
0.00206343
0.00210384
0.00199129
0.00192207
0.00192284
0.00193198
0.00192644
0.00190131
0.00186353
0.00172115
0.000956413
0.000675867
0.000425133
0.000219116
0.000117917
6.73759e-05
3.80904e-05
2.15008e-05
1.21001e-05
6.86131e-06
3.9758e-06
2.37291e-06
1.46363e-06
9.32651e-07
6.09527e-07
4.04898e-07
2.71674e-07
1.8344e-07
1.24378e-07
8.45741e-08
5.76264e-08
3.93249e-08
2.68676e-08
1.83744e-08
1.25767e-08
8.61539e-09
5.90662e-09
4.0531e-09
2.78401e-09
1.91453e-09
1.31849e-09
9.09646e-10
6.29015e-10
4.36295e-10
3.03918e-10
2.12858e-10
1.50147e-10
1.07003e-10
7.73238e-11
5.68812e-11
4.28055e-11
3.31299e-11
2.64899e-11
2.19418e-11
1.88338e-11
1.67147e-11
1.52755e-11
1.43006e-11
1.36516e-11
1.32324e-11
1.29543e-11
1.28363e-11
1.2837e-11
1.28865e-11
1.30283e-11
1.33434e-11
1.3859e-11
1.46217e-11
1.5747e-11
1.74037e-11
1.98308e-11
2.33799e-11
2.85538e-11
3.61058e-11
4.71289e-11
6.32012e-11
8.67852e-11
1.21368e-10
1.72042e-10
2.4623e-10
3.54816e-10
5.13777e-10
7.46522e-10
1.08733e-09
1.58645e-09
2.31756e-09
3.38865e-09
4.95809e-09
7.2582e-09
1.06299e-08
1.55739e-08
2.28255e-08
3.3467e-08
4.90917e-08
7.20644e-08
1.05843e-07
1.55829e-07
2.29133e-07
3.40795e-07
4.99454e-07
7.70791e-07
1.11286e-06
1.91906e-06
2.60911e-06
5.93856e-06
6.60069e-06
2.13643e-05
2.19962e-05
5.7529e-05
0.000188107
0.000684932
0.000359519
0.000206724
0.000174592
0.000119132
6.90038e-05
3.59516e-05
1.85655e-05
1.00412e-05
5.74911e-06
3.46847e-06
2.17968e-06
1.40264e-06
9.157e-07
6.04808e-07
4.03396e-07
2.71089e-07
1.83171e-07
1.24241e-07
8.4499e-08
5.75831e-08
3.9299e-08
2.68517e-08
1.83642e-08
1.25701e-08
8.61105e-09
5.90394e-09
4.05151e-09
2.78301e-09
1.91389e-09
1.31801e-09
9.09324e-10
6.28876e-10
4.3611e-10
3.03741e-10
2.12819e-10
1.50132e-10
1.0695e-10
7.72678e-11
5.68467e-11
4.27884e-11
3.31179e-11
2.64768e-11
2.19266e-11
1.88162e-11
1.66964e-11
1.52588e-11
1.42852e-11
1.36362e-11
1.32175e-11
1.29398e-11
1.28214e-11
1.28218e-11
1.28712e-11
1.30129e-11
1.33283e-11
1.38425e-11
1.46054e-11
1.57342e-11
1.73916e-11
1.98167e-11
2.33657e-11
2.8553e-11
3.61119e-11
4.71158e-11
6.31962e-11
8.67837e-11
1.21363e-10
1.72021e-10
2.46184e-10
3.54741e-10
5.13653e-10
7.46302e-10
1.08695e-09
1.5858e-09
2.3164e-09
3.38659e-09
4.95449e-09
7.25192e-09
1.06188e-08
1.55541e-08
2.27905e-08
3.34049e-08
4.89815e-08
7.18675e-08
1.05491e-07
1.55233e-07
2.27825e-07
3.39996e-07
4.89927e-07
8.21343e-07
1.0437e-06
2.43059e-06
2.68221e-06
7.35014e-06
7.87069e-06
2.12862e-05
2.15521e-05
6.07792e-05
0.000153309
0.000204402
0.000115086
7.81811e-05
7.35934e-05
9.94745e-05
8.152e-05
4.35271e-05
2.17485e-05
1.09326e-05
5.85868e-06
3.42205e-06
2.12846e-06
1.37236e-06
9.01846e-07
5.99127e-07
4.01091e-07
2.7011e-07
1.82726e-07
1.24025e-07
8.43875e-08
5.75231e-08
3.92657e-08
2.68329e-08
1.83535e-08
1.25639e-08
8.60749e-09
5.90186e-09
4.05027e-09
2.7823e-09
1.91346e-09
1.31776e-09
9.09183e-10
6.28706e-10
4.36027e-10
3.03738e-10
2.12749e-10
1.50039e-10
1.06903e-10
7.72524e-11
5.683e-11
4.27611e-11
3.30848e-11
2.64429e-11
2.18944e-11
1.87857e-11
1.66663e-11
1.52279e-11
1.4254e-11
1.36056e-11
1.31869e-11
1.29089e-11
1.27908e-11
1.27914e-11
1.28409e-11
1.29824e-11
1.32971e-11
1.3812e-11
1.45742e-11
1.57006e-11
1.73569e-11
1.9784e-11
2.33323e-11
2.85119e-11
3.60663e-11
4.70805e-11
6.31535e-11
8.67346e-11
1.21307e-10
1.71959e-10
2.4611e-10
3.54635e-10
5.13492e-10
7.46053e-10
1.08655e-09
1.58512e-09
2.31525e-09
3.38463e-09
4.95109e-09
7.24594e-09
1.06083e-08
1.55356e-08
2.27577e-08
3.33462e-08
4.88778e-08
7.16774e-08
1.05168e-07
1.5458e-07
2.26832e-07
3.381e-07
4.83991e-07
8.51961e-07
9.72245e-07
3.31622e-06
2.69682e-06
1.84569e-05
1.18173e-05
5.13675e-05
3.08889e-05
0.000120644
0.000145941
5.70674e-05
4.18726e-05
4.92611e-05
5.55674e-05
4.9983e-05
4.82148e-05
3.93501e-05
2.16852e-05
1.132e-05
6.0647e-06
3.46778e-06
2.12094e-06
1.35788e-06
8.91811e-07
5.93796e-07
3.9855e-07
2.68932e-07
1.82171e-07
1.23755e-07
8.42517e-08
5.74528e-08
3.92284e-08
2.68125e-08
1.83424e-08
1.2558e-08
8.60428e-09
5.89998e-09
4.04911e-09
2.78158e-09
1.91306e-09
1.31757e-09
9.0907e-10
6.28686e-10
4.36057e-10
3.03701e-10
2.12701e-10
1.50036e-10
1.06903e-10
7.7228e-11
5.67924e-11
4.27199e-11
3.30433e-11
2.64011e-11
2.18511e-11
1.8742e-11
1.66225e-11
1.51836e-11
1.42094e-11
1.35609e-11
1.31421e-11
1.28644e-11
1.27465e-11
1.27471e-11
1.27964e-11
1.29378e-11
1.32525e-11
1.37672e-11
1.45287e-11
1.56553e-11
1.73129e-11
1.97403e-11
2.32874e-11
2.84678e-11
3.60262e-11
4.70417e-11
6.31077e-11
8.6693e-11
1.21268e-10
1.71917e-10
2.46057e-10
3.54567e-10
5.13397e-10
7.45898e-10
1.08628e-09
1.58464e-09
2.31439e-09
3.38305e-09
4.94818e-09
7.24066e-09
1.05988e-08
1.55183e-08
2.27264e-08
3.32894e-08
4.87765e-08
7.1486e-08
1.04856e-07
1.53835e-07
2.26232e-07
3.33667e-07
4.87399e-07
7.94722e-07
1.02574e-06
3.25818e-06
3.36721e-06
2.44955e-05
2.01901e-05
8.52046e-05
6.16023e-05
0.000118238
0.000144324
1.57797e-05
1.97572e-05
4.33491e-05
4.68639e-05
4.38637e-05
2.93089e-05
1.69893e-05
1.06134e-05
6.96338e-06
4.59302e-06
3.02758e-06
1.99586e-06
1.32034e-06
8.78469e-07
5.88073e-07
3.95858e-07
2.67626e-07
1.81527e-07
1.23431e-07
8.40854e-08
5.73649e-08
3.91807e-08
2.67861e-08
1.83273e-08
1.2549e-08
8.59889e-09
5.89688e-09
4.04737e-09
2.78058e-09
1.91242e-09
1.31712e-09
9.08754e-10
6.28441e-10
4.3586e-10
3.0355e-10
2.12585e-10
1.49943e-10
1.06816e-10
7.71457e-11
5.67181e-11
4.26526e-11
3.29791e-11
2.63384e-11
2.17902e-11
1.86813e-11
1.65616e-11
1.51235e-11
1.41503e-11
1.35024e-11
1.30839e-11
1.28063e-11
1.26885e-11
1.26891e-11
1.27384e-11
1.28797e-11
1.31942e-11
1.37087e-11
1.44698e-11
1.55962e-11
1.72537e-11
1.96809e-11
2.32274e-11
2.84073e-11
3.5966e-11
4.69804e-11
6.30409e-11
8.66255e-11
1.21194e-10
1.71831e-10
2.45951e-10
3.54429e-10
5.13203e-10
7.4561e-10
1.08583e-09
1.58392e-09
2.31321e-09
3.38105e-09
4.94477e-09
7.23475e-09
1.05884e-08
1.55e-08
2.26938e-08
3.32307e-08
4.86718e-08
7.12893e-08
1.04532e-07
1.53052e-07
2.25686e-07
3.28161e-07
5.02573e-07
7.14964e-07
1.19871e-06
2.40005e-06
4.40081e-06
1.61597e-05
1.98552e-05
6.38387e-05
6.39987e-05
8.17107e-05
0.000136446
7.25924e-06
1.19511e-05
2.30799e-05
5.66971e-05
4.70196e-05
2.55527e-05
1.50411e-05
9.22416e-06
5.98641e-06
4.03994e-06
2.75391e-06
1.87136e-06
1.26685e-06
8.56449e-07
5.79222e-07
3.92187e-07
2.66016e-07
1.80781e-07
1.2307e-07
8.3905e-08
5.72721e-08
3.91318e-08
2.67599e-08
1.8313e-08
1.2541e-08
8.59439e-09
5.89431e-09
4.04588e-09
2.7797e-09
1.91189e-09
1.3168e-09
9.08541e-10
6.28289e-10
4.3576e-10
3.03464e-10
2.12497e-10
1.49865e-10
1.06748e-10
7.70789e-11
5.66517e-11
4.25858e-11
3.29111e-11
2.62693e-11
2.17205e-11
1.86111e-11
1.64912e-11
1.50532e-11
1.40801e-11
1.34324e-11
1.3014e-11
1.27366e-11
1.26189e-11
1.26195e-11
1.26688e-11
1.281e-11
1.31243e-11
1.36387e-11
1.43993e-11
1.55256e-11
1.71838e-11
1.96116e-11
2.31576e-11
2.83374e-11
3.5898e-11
4.69137e-11
6.29681e-11
8.65552e-11
1.21123e-10
1.71753e-10
2.4586e-10
3.54314e-10
5.13049e-10
7.45383e-10
1.08547e-09
1.58333e-09
2.3122e-09
3.3793e-09
4.94169e-09
7.22929e-09
1.05787e-08
1.54825e-08
2.26622e-08
3.31734e-08
4.85677e-08
7.10955e-08
1.0419e-07
1.5232e-07
2.24816e-07
3.23439e-07
5.21952e-07
6.59271e-07
1.55874e-06
1.79892e-06
6.67889e-06
8.80087e-06
1.30688e-05
3.85688e-05
5.80606e-05
5.39904e-05
0.000103768
8.08384e-06
1.2311e-05
1.49657e-05
1.47338e-05
1.534e-05
1.94509e-05
1.70557e-05
1.06804e-05
6.58139e-06
4.2092e-06
2.77792e-06
1.86065e-06
1.25337e-06
8.46826e-07
5.73491e-07
3.89121e-07
2.64461e-07
1.80005e-07
1.22682e-07
8.37083e-08
5.71707e-08
3.90786e-08
2.67315e-08
1.82976e-08
1.25325e-08
8.58968e-09
5.89164e-09
4.04435e-09
2.77881e-09
1.91136e-09
1.31648e-09
9.08324e-10
6.28137e-10
4.35656e-10
3.03367e-10
2.124e-10
1.49787e-10
1.06679e-10
7.7005e-11
5.65738e-11
4.25078e-11
3.28332e-11
2.6191e-11
2.16414e-11
1.85313e-11
1.6411e-11
1.49728e-11
1.39998e-11
1.33524e-11
1.29342e-11
1.26569e-11
1.25393e-11
1.254e-11
1.25893e-11
1.27304e-11
1.30446e-11
1.35587e-11
1.4319e-11
1.54454e-11
1.71039e-11
1.95319e-11
2.30783e-11
2.82586e-11
3.58205e-11
4.68361e-11
6.28877e-11
8.6478e-11
1.21044e-10
1.71668e-10
2.45763e-10
3.54198e-10
5.12895e-10
7.45162e-10
1.08513e-09
1.58277e-09
2.31125e-09
3.37763e-09
4.93874e-09
7.22404e-09
1.05693e-08
1.54655e-08
2.26313e-08
3.31173e-08
4.84643e-08
7.09065e-08
1.03829e-07
1.51671e-07
2.23493e-07
3.20906e-07
5.17728e-07
6.40873e-07
1.55872e-06
1.41289e-06
7.00667e-06
5.96996e-06
1.2719e-05
2.66612e-05
4.40794e-05
3.53077e-05
9.04962e-05
5.2834e-06
5.81376e-06
1.0786e-05
1.55598e-05
1.41867e-05
1.12037e-05
8.43205e-06
6.36168e-06
4.78564e-06
3.50317e-06
2.49748e-06
1.74786e-06
1.20802e-06
8.28199e-07
5.65442e-07
3.85466e-07
2.62737e-07
1.7917e-07
1.22268e-07
8.34998e-08
5.70638e-08
3.90229e-08
2.67019e-08
1.82817e-08
1.25239e-08
8.58491e-09
5.88897e-09
4.04282e-09
2.77792e-09
1.91083e-09
1.31615e-09
9.08112e-10
6.27985e-10
4.35536e-10
3.03266e-10
2.12308e-10
1.49702e-10
1.06596e-10
7.69219e-11
5.6491e-11
4.24248e-11
3.27492e-11
2.61056e-11
2.15545e-11
1.84435e-11
1.63227e-11
1.48845e-11
1.39117e-11
1.32643e-11
1.28464e-11
1.25693e-11
1.24518e-11
1.24524e-11
1.25018e-11
1.26428e-11
1.29568e-11
1.34706e-11
1.42307e-11
1.53573e-11
1.70163e-11
1.94448e-11
2.29918e-11
2.8173e-11
3.57359e-11
4.67509e-11
6.28002e-11
8.63943e-11
1.20959e-10
1.71577e-10
2.45662e-10
3.54077e-10
5.1274e-10
7.44945e-10
1.0848e-09
1.58224e-09
2.31033e-09
3.37604e-09
4.93592e-09
7.219e-09
1.05602e-08
1.54491e-08
2.26014e-08
3.30626e-08
4.83623e-08
7.07223e-08
1.03458e-07
1.51086e-07
2.21828e-07
3.20175e-07
4.95683e-07
6.48259e-07
1.35497e-06
1.30423e-06
5.22589e-06
3.98696e-06
1.57427e-05
1.38737e-05
3.0132e-05
2.61463e-05
9.88878e-05
3.75748e-06
4.93268e-06
7.68139e-06
1.43549e-05
1.4903e-05
1.25612e-05
9.07025e-06
6.6168e-06
4.82725e-06
3.46462e-06
2.44921e-06
1.71149e-06
1.18509e-06
8.15261e-07
5.58651e-07
3.82035e-07
2.61031e-07
1.78323e-07
1.21846e-07
8.32866e-08
5.69552e-08
3.8967e-08
2.66728e-08
1.82665e-08
1.25161e-08
8.58093e-09
5.88678e-09
4.04154e-09
2.77717e-09
1.91042e-09
1.31595e-09
9.08003e-10
6.27923e-10
4.35507e-10
3.03226e-10
2.12252e-10
1.49648e-10
1.06541e-10
7.68575e-11
5.64173e-11
4.23455e-11
3.26669e-11
2.60202e-11
2.14653e-11
1.83525e-11
1.62311e-11
1.4792e-11
1.38184e-11
1.31708e-11
1.2753e-11
1.24761e-11
1.23587e-11
1.23594e-11
1.24088e-11
1.25498e-11
1.28635e-11
1.3377e-11
1.41368e-11
1.52639e-11
1.69237e-11
1.93528e-11
2.29009e-11
2.80842e-11
3.56492e-11
4.66642e-11
6.27132e-11
8.6315e-11
1.20882e-10
1.715e-10
2.45582e-10
3.5399e-10
5.12635e-10
7.44801e-10
1.08457e-09
1.58185e-09
2.30963e-09
3.37476e-09
4.93355e-09
7.21462e-09
1.05521e-08
1.54341e-08
2.25736e-08
3.30113e-08
4.82649e-08
7.05463e-08
1.03092e-07
1.50535e-07
2.20089e-07
3.20051e-07
4.72572e-07
6.71239e-07
1.06183e-06
1.41747e-06
2.94406e-06
3.1066e-06
1.39898e-05
9.93395e-06
1.83769e-05
2.38346e-05
0.000100538
4.35837e-06
5.2355e-06
5.52962e-06
7.30484e-06
7.87164e-06
7.72215e-06
6.96976e-06
5.61528e-06
4.34174e-06
3.22994e-06
2.33365e-06
1.65392e-06
1.15643e-06
8.0104e-07
5.51599e-07
3.78533e-07
2.59285e-07
1.77446e-07
1.21401e-07
8.30589e-08
5.68368e-08
3.89044e-08
2.66393e-08
1.82481e-08
1.25057e-08
8.57489e-09
5.88341e-09
4.0397e-09
2.77613e-09
1.90977e-09
1.31549e-09
9.0767e-10
6.27667e-10
4.35289e-10
3.0305e-10
2.12107e-10
1.4952e-10
1.06423e-10
7.67468e-11
5.63122e-11
4.22447e-11
3.25678e-11
2.59215e-11
2.13669e-11
1.82533e-11
1.61314e-11
1.46931e-11
1.37204e-11
1.30734e-11
1.2656e-11
1.23792e-11
1.22619e-11
1.22627e-11
1.2312e-11
1.24529e-11
1.27664e-11
1.32794e-11
1.40392e-11
1.51661e-11
1.68265e-11
1.92562e-11
2.28055e-11
2.7989e-11
3.55536e-11
4.65668e-11
6.26141e-11
8.62168e-11
1.2078e-10
1.71387e-10
2.45453e-10
3.53835e-10
5.12437e-10
7.44532e-10
1.08418e-09
1.58125e-09
2.30866e-09
3.37313e-09
4.93077e-09
7.20979e-09
1.05435e-08
1.54187e-08
2.25457e-08
3.29602e-08
4.8169e-08
7.03727e-08
1.02735e-07
1.49982e-07
2.18444e-07
3.19277e-07
4.60231e-07
7.12826e-07
9.43267e-07
1.93615e-06
2.05596e-06
4.17502e-06
1.07338e-05
9.87455e-06
1.98482e-05
3.22524e-05
8.02987e-05
3.23856e-06
3.68232e-06
4.9277e-06
8.0622e-06
8.43734e-06
7.96231e-06
6.63668e-06
5.28353e-06
4.10347e-06
3.08147e-06
2.24831e-06
1.60691e-06
1.13138e-06
7.88037e-07
5.44962e-07
3.75178e-07
2.57596e-07
1.76595e-07
1.2097e-07
8.28379e-08
5.67227e-08
3.88449e-08
2.6608e-08
1.82314e-08
1.24967e-08
8.57001e-09
5.88072e-09
4.03819e-09
2.77527e-09
1.90926e-09
1.31518e-09
9.07458e-10
6.27507e-10
4.35178e-10
3.0295e-10
2.12004e-10
1.49426e-10
1.06338e-10
7.66601e-11
5.6222e-11
4.21531e-11
3.24753e-11
2.58275e-11
2.12708e-11
1.81556e-11
1.60331e-11
1.45947e-11
1.36221e-11
1.29753e-11
1.25583e-11
1.22817e-11
1.21645e-11
1.21653e-11
1.22146e-11
1.23553e-11
1.26684e-11
1.31811e-11
1.39405e-11
1.5068e-11
1.67289e-11
1.91598e-11
2.27107e-11
2.78957e-11
3.54606e-11
4.6472e-11
6.25209e-11
8.61278e-11
1.2069e-10
1.71292e-10
2.45349e-10
3.53716e-10
5.12292e-10
7.4434e-10
1.0839e-09
1.5808e-09
2.30789e-09
3.3718e-09
4.92843e-09
7.20559e-09
1.05359e-08
1.54048e-08
2.252e-08
3.29128e-08
4.80793e-08
7.02076e-08
1.024e-07
1.49426e-07
2.16964e-07
3.18579e-07
4.51494e-07
7.34755e-07
8.93641e-07
2.06933e-06
1.89434e-06
5.0432e-06
9.72064e-06
1.02762e-05
4.32218e-05
4.13581e-05
5.91156e-05
3.41659e-06
4.03601e-06
4.55705e-06
5.83304e-06
6.46834e-06
6.37864e-06
5.92664e-06
4.91471e-06
3.88132e-06
2.94722e-06
2.17049e-06
1.56349e-06
1.10796e-06
7.75749e-07
5.3863e-07
3.71945e-07
2.55951e-07
1.75758e-07
1.20542e-07
8.26184e-08
5.6609e-08
3.87856e-08
2.65767e-08
1.82148e-08
1.24877e-08
8.56518e-09
5.87808e-09
4.03673e-09
2.77445e-09
1.90879e-09
1.31488e-09
9.07266e-10
6.27369e-10
4.3506e-10
3.0285e-10
2.11916e-10
1.4934e-10
1.0625e-10
7.65713e-11
5.61331e-11
4.20643e-11
3.23861e-11
2.57363e-11
2.11768e-11
1.80596e-11
1.59364e-11
1.44979e-11
1.35255e-11
1.2879e-11
1.24623e-11
1.21858e-11
1.20688e-11
1.20696e-11
1.21188e-11
1.22593e-11
1.2572e-11
1.30844e-11
1.38435e-11
1.49712e-11
1.66332e-11
1.90662e-11
2.26191e-11
2.78045e-11
3.53684e-11
4.6381e-11
6.243e-11
8.60405e-11
1.20602e-10
1.71199e-10
2.45248e-10
3.53603e-10
5.12158e-10
7.44167e-10
1.08365e-09
1.58039e-09
2.30721e-09
3.37061e-09
4.92633e-09
7.20179e-09
1.0529e-08
1.53921e-08
2.24965e-08
3.28689e-08
4.7996e-08
7.00519e-08
1.02091e-07
1.48872e-07
2.15695e-07
3.17329e-07
4.45815e-07
7.31571e-07
8.76146e-07
1.99744e-06
1.93559e-06
4.28549e-06
9.29417e-06
9.58961e-06
4.78256e-05
4.01735e-05
4.67873e-05
3.35462e-06
3.70287e-06
4.31627e-06
5.72673e-06
6.23184e-06
6.08635e-06
5.57703e-06
4.63492e-06
3.6892e-06
2.82718e-06
2.09982e-06
1.52343e-06
1.08598e-06
7.64033e-07
5.32522e-07
3.68806e-07
2.5435e-07
1.74944e-07
1.20127e-07
8.24057e-08
5.64994e-08
3.87287e-08
2.65469e-08
1.8199e-08
1.24793e-08
8.56065e-09
5.87561e-09
4.03538e-09
2.7737e-09
1.90836e-09
1.31463e-09
9.07099e-10
6.27256e-10
4.34988e-10
3.02788e-10
2.11854e-10
1.49288e-10
1.0621e-10
7.65385e-11
5.61072e-11
4.20485e-11
3.23819e-11
2.57429e-11
2.11931e-11
1.80852e-11
1.59704e-11
1.45387e-11
1.3571e-11
1.29273e-11
1.25109e-11
1.22355e-11
1.2117e-11
1.2117e-11
1.21638e-11
1.23018e-11
1.26105e-11
1.31194e-11
1.38728e-11
1.49923e-11
1.66467e-11
1.90711e-11
2.26128e-11
2.77857e-11
3.53372e-11
4.63371e-11
6.23792e-11
8.59849e-11
1.20539e-10
1.71126e-10
2.45164e-10
3.53505e-10
5.12042e-10
7.44019e-10
1.08344e-09
1.58004e-09
2.3066e-09
3.36954e-09
4.92443e-09
7.19837e-09
1.05227e-08
1.53806e-08
2.24751e-08
3.28287e-08
4.792e-08
6.99075e-08
1.01811e-07
1.48333e-07
2.14637e-07
3.15215e-07
4.42371e-07
7.13521e-07
8.73309e-07
1.78501e-06
1.94299e-06
3.43837e-06
8.40652e-06
8.1654e-06
4.14949e-05
3.22838e-05
3.46036e-05
3.93038e-06
4.27905e-06
4.69984e-06
5.69383e-06
6.08607e-06
5.95686e-06
5.49265e-06
4.58339e-06
3.65361e-06
2.8023e-06
2.083e-06
1.51238e-06
1.07903e-06
7.599e-07
5.30185e-07
3.67541e-07
2.53692e-07
1.74615e-07
1.19972e-07
8.23395e-08
5.64767e-08
3.87264e-08
2.65537e-08
1.82094e-08
1.24907e-08
8.57188e-09
5.88641e-09
4.04575e-09
2.78384e-09
1.9185e-09
1.3251e-09
9.1827e-10
6.39548e-10
4.48899e-10
3.18918e-10
2.30869e-10
1.71859e-10
1.32899e-10
1.07641e-10
9.15228e-11
8.12858e-11
7.47121e-11
7.03816e-11
6.74532e-11
6.53868e-11
6.3857e-11
6.26794e-11
6.17346e-11
6.09738e-11
6.02272e-11
5.98287e-11
5.95161e-11
5.93534e-11
5.89658e-11
5.89144e-11
5.8809e-11
5.91464e-11
5.95279e-11
5.98063e-11
6.06215e-11
6.16126e-11
6.29772e-11
6.57514e-11
6.99036e-11
7.64557e-11
8.76823e-11
1.06204e-10
1.36029e-10
1.82562e-10
2.53447e-10
3.59442e-10
5.16252e-10
7.46962e-10
1.08543e-09
1.58127e-09
2.30717e-09
3.36942e-09
4.92339e-09
7.19586e-09
1.05177e-08
1.53708e-08
2.24562e-08
3.27923e-08
4.78508e-08
6.97748e-08
1.0156e-07
1.47824e-07
2.13745e-07
3.12704e-07
4.40157e-07
6.91053e-07
8.75037e-07
1.58175e-06
1.9121e-06
2.88808e-06
7.14458e-06
6.77882e-06
2.92383e-05
2.33501e-05
2.41892e-05
9.40877e-06
9.05756e-06
8.43968e-06
8.25027e-06
7.97993e-06
7.4498e-06
6.51737e-06
5.38699e-06
4.24604e-06
3.21246e-06
2.35444e-06
1.68736e-06
1.19083e-06
8.31694e-07
5.76988e-07
3.98717e-07
2.75006e-07
1.89614e-07
1.30859e-07
9.05026e-08
6.28078e-08
4.38085e-08
3.07764e-08
2.18388e-08
1.57118e-08
1.15143e-08
8.64068e-09
6.67294e-09
5.32201e-09
4.38855e-09
3.73548e-09
3.2702e-09
2.9319e-09
2.68042e-09
2.48972e-09
2.34304e-09
2.22817e-09
2.13705e-09
2.06456e-09
2.00641e-09
1.95933e-09
1.921e-09
1.88967e-09
1.86467e-09
1.84406e-09
1.82627e-09
1.81084e-09
1.79715e-09
1.78514e-09
1.77229e-09
1.76605e-09
1.76019e-09
1.75611e-09
1.74762e-09
1.74531e-09
1.73952e-09
1.7449e-09
1.74542e-09
1.74312e-09
1.74824e-09
1.74797e-09
1.74664e-09
1.75605e-09
1.76028e-09
1.7606e-09
1.76999e-09
1.78141e-09
1.79029e-09
1.8013e-09
1.8278e-09
1.86894e-09
1.92937e-09
2.02835e-09
2.20041e-09
2.505e-09
3.03328e-09
3.91542e-09
5.32163e-09
7.4808e-09
1.07183e-08
1.55082e-08
2.25434e-08
3.28342e-08
4.78418e-08
6.96902e-08
1.01356e-07
1.47357e-07
2.12955e-07
3.10127e-07
4.38335e-07
6.69818e-07
8.76325e-07
1.42874e-06
1.85544e-06
2.54086e-06
6.07379e-06
5.67659e-06
2.02654e-05
1.67859e-05
1.72309e-05
3.94952e-05
3.27025e-05
2.60465e-05
2.1889e-05
1.87987e-05
1.61081e-05
1.35752e-05
1.1129e-05
8.79653e-06
6.7054e-06
4.97472e-06
3.63283e-06
2.63568e-06
1.91311e-06
1.39664e-06
1.02958e-06
7.68672e-07
5.8245e-07
4.48626e-07
3.51622e-07
2.8059e-07
2.28012e-07
1.88664e-07
1.58895e-07
1.36133e-07
1.18555e-07
1.04866e-07
9.41111e-08
8.5603e-08
7.88397e-08
7.34314e-08
6.90824e-08
6.55778e-08
6.27421e-08
6.04426e-08
5.8582e-08
5.70626e-08
5.58171e-08
5.48039e-08
5.39752e-08
5.32933e-08
5.27309e-08
5.22657e-08
5.18989e-08
5.15973e-08
5.13275e-08
5.10929e-08
5.08805e-08
5.0692e-08
5.04911e-08
5.0402e-08
5.0304e-08
5.02173e-08
5.00156e-08
4.9993e-08
4.99377e-08
5.00561e-08
5.00571e-08
5.00108e-08
5.01092e-08
5.01019e-08
5.0057e-08
5.02347e-08
5.0266e-08
5.023e-08
5.03541e-08
5.04652e-08
5.04707e-08
5.04273e-08
5.05542e-08
5.07218e-08
5.08627e-08
5.1023e-08
5.12283e-08
5.1502e-08
5.18731e-08
5.23842e-08
5.30986e-08
5.41131e-08
5.55935e-08
5.78231e-08
6.13239e-08
6.70656e-08
7.67626e-08
9.30463e-08
1.19433e-07
1.60818e-07
2.22697e-07
3.15836e-07
4.42632e-07
6.56821e-07
8.78704e-07
1.31661e-06
1.84563e-06
2.3146e-06
5.18488e-06
4.84856e-06
1.41412e-05
1.23256e-05
1.2136e-05
0.000168331
0.000126701
9.44771e-05
7.31259e-05
5.85914e-05
4.84532e-05
4.08269e-05
3.4332e-05
2.83647e-05
2.2962e-05
1.8347e-05
1.46077e-05
1.16735e-05
9.40677e-06
7.66568e-06
6.32776e-06
5.29541e-06
4.49385e-06
3.86719e-06
3.37386e-06
2.98268e-06
2.67049e-06
2.41997e-06
2.21795e-06
2.05433e-06
1.92134e-06
1.81303e-06
1.72453e-06
1.6521e-06
1.59289e-06
1.54436e-06
1.5045e-06
1.47184e-06
1.445e-06
1.42298e-06
1.40503e-06
1.39022e-06
1.37796e-06
1.36797e-06
1.35976e-06
1.35296e-06
1.34734e-06
1.34262e-06
1.33906e-06
1.33622e-06
1.33347e-06
1.33116e-06
1.32892e-06
1.32702e-06
1.32502e-06
1.32391e-06
1.32287e-06
1.32189e-06
1.31848e-06
1.31883e-06
1.31869e-06
1.3207e-06
1.32062e-06
1.31995e-06
1.32198e-06
1.32193e-06
1.32113e-06
1.32309e-06
1.32504e-06
1.32504e-06
1.32615e-06
1.3276e-06
1.32907e-06
1.32921e-06
1.33072e-06
1.33301e-06
1.33534e-06
1.33803e-06
1.34126e-06
1.34517e-06
1.34993e-06
1.35575e-06
1.3629e-06
1.37164e-06
1.38243e-06
1.39577e-06
1.41234e-06
1.43293e-06
1.45877e-06
1.49142e-06
1.53272e-06
1.58613e-06
1.65333e-06
1.74698e-06
1.85416e-06
2.03987e-06
2.21682e-06
2.5645e-06
3.02891e-06
3.45117e-06
5.59419e-06
5.57709e-06
1.14269e-05
1.09884e-05
1.13406e-05
0.000492217
0.000394845
0.000306986
0.000237115
0.000188472
0.000157028
0.000135849
0.000119222
0.000104433
9.09925e-05
7.91937e-05
6.92199e-05
6.09789e-05
5.42413e-05
4.87578e-05
4.42996e-05
4.06728e-05
3.77175e-05
3.53059e-05
3.33358e-05
3.1723e-05
3.04013e-05
2.93173e-05
2.84276e-05
2.76969e-05
2.70962e-05
2.66029e-05
2.61969e-05
2.58626e-05
2.55883e-05
2.53627e-05
2.51766e-05
2.50238e-05
2.48978e-05
2.47941e-05
2.47098e-05
2.46399e-05
2.45818e-05
2.45346e-05
2.44957e-05
2.44633e-05
2.44369e-05
2.44136e-05
2.43974e-05
2.43861e-05
2.43727e-05
2.43628e-05
2.43502e-05
2.43415e-05
2.43354e-05
2.4332e-05
2.43246e-05
2.43185e-05
2.43037e-05
2.43117e-05
2.43121e-05
2.4322e-05
2.43259e-05
2.43271e-05
2.43356e-05
2.43429e-05
2.43429e-05
2.43479e-05
2.43597e-05
2.43711e-05
2.43832e-05
2.43974e-05
2.44142e-05
2.44345e-05
2.44591e-05
2.44887e-05
2.45248e-05
2.45687e-05
2.46214e-05
2.46852e-05
2.47622e-05
2.48555e-05
2.49684e-05
2.51046e-05
2.52697e-05
2.54696e-05
2.57114e-05
2.60035e-05
2.63574e-05
2.67864e-05
2.73053e-05
2.79354e-05
2.86964e-05
2.96264e-05
3.0739e-05
3.21438e-05
3.37176e-05
3.59688e-05
3.79904e-05
4.19484e-05
4.38389e-05
5.11964e-05
5.27432e-05
6.17523e-05
6.87082e-05
0.000806624
0.000682877
0.000594976
0.000526516
0.000470678
0.000426957
0.000392613
0.000363607
0.000337533
0.000313883
0.00029288
0.000274664
0.00025912
0.000245986
0.000234956
0.000225729
0.000218032
0.00021162
0.000206288
0.00020186
0.000198186
0.000195139
0.000192617
0.000190529
0.000188803
0.000187375
0.000186197
0.000185223
0.000184418
0.000183756
0.000183209
0.000182758
0.000182385
0.000182078
0.000181825
0.000181618
0.000181447
0.000181304
0.000181188
0.000181093
0.000181013
0.000180949
0.000180891
0.000180851
0.000180827
0.000180798
0.00018079
0.000180767
0.000180764
0.000180756
0.000180742
0.000180744
0.000180741
0.000180742
0.000180736
0.000180739
0.000180739
0.000180739
0.000180746
0.000180764
0.000180789
0.000180819
0.000180855
0.000180899
0.000180951
0.000181016
0.000181095
0.000181189
0.000181304
0.000181442
0.00018161
0.000181813
0.00018206
0.000182358
0.000182718
0.000183153
0.00018368
0.000184317
0.000185086
0.000186016
0.00018714
0.000188497
0.000190133
0.000192109
0.000194492
0.000197361
0.000200817
0.000204974
0.000209967
0.000215981
0.000223166
0.000231833
0.000242181
0.000254256
0.000269797
0.000282589
0.000310184
0.000320143
0.000355757
0.000386252
0.00080323
0.000777675
0.000766312
0.000755311
0.000740016
0.000721189
0.000701694
0.000682986
0.000665317
0.000648843
0.000633765
0.000620177
0.000608079
0.000597432
0.000588166
0.000580181
0.000573357
0.000567566
0.000562678
0.000558573
0.000555138
0.000552272
0.000549888
0.000547908
0.000546266
0.000544908
0.000543784
0.000542856
0.000542091
0.000541459
0.000540939
0.00054051
0.000540157
0.000539867
0.000539628
0.000539431
0.00053927
0.000539138
0.000539029
0.00053894
0.000538867
0.000538808
0.000538758
0.000538719
0.000538695
0.000538678
0.00053867
0.000538666
0.000538663
0.000538662
0.000538663
0.000538664
0.000538666
0.000538672
0.000538679
0.00053869
0.000538705
0.000538728
0.000538757
0.000538796
0.000538849
0.000538916
0.000538999
0.000539099
0.000539221
0.000539369
0.000539549
0.000539767
0.000540031
0.000540352
0.000540742
0.000541214
0.000541787
0.000542481
0.000543323
0.000544343
0.00054558
0.000547078
0.000548895
0.000551095
0.00055376
0.000556987
0.000560893
0.00056562
0.000571334
0.000578241
0.000586568
0.00059663
0.000608656
0.000623301
0.000640189
0.000661771
0.000683619
0.000716666
0.000740215
0.000791582
0.000817059
0.000891926
0.000916944
0.00101083
6.0928e-06
1.87254e-05
4.05694e-05
7.20318e-05
0.000114921
0.000165463
0.000217355
0.000267547
0.000313489
0.000353784
0.000388019
0.000416467
0.000439761
0.00045866
0.000473918
0.000486208
0.000496104
0.000504078
0.000510514
0.000515717
0.00051993
0.000523349
0.000526127
0.000528389
0.000530232
0.000531735
0.000532963
0.000533967
0.000534789
0.000535461
0.000536012
0.000536463
0.000536832
0.000537135
0.000537384
0.000537587
0.000537754
0.000537891
0.000538003
0.000538095
0.00053817
0.00053823
0.00053828
0.00053832
0.00053835
0.000538379
0.000538395
0.000538418
0.000538429
0.000538452
0.000538466
0.000538462
0.000538439
0.000538416
0.000538396
0.000538378
0.000538354
0.000538323
0.000538285
0.000538237
0.000538179
0.000538108
0.000538022
0.000537917
0.000537789
0.000537633
0.000537444
0.000537215
0.000536936
0.000536598
0.000536188
0.00053569
0.000535086
0.000534354
0.000533465
0.000532387
0.000531078
0.00052949
0.000527564
0.000525225
0.000522387
0.000518942
0.00051476
0.000509681
0.000503514
0.000496023
0.000486924
0.000475869
0.00046244
0.000446124
0.000426307
0.000402246
0.000373058
0.000337717
0.00029512
0.000244354
0.000185556
0.000121956
6.2761e-05
2.13439e-05
6.78941e-06
7.25492e-06
8.66948e-06
1.18044e-05
1.75943e-05
2.63524e-05
3.78835e-05
5.10295e-05
6.50702e-05
7.92205e-05
9.28229e-05
0.000105425
0.000116775
0.000126777
0.000135449
0.000142873
0.000149169
0.000154472
0.000158916
0.000162626
0.000165714
0.000168278
0.000170404
0.000172165
0.000173623
0.000174828
0.000175823
0.000176644
0.000177324
0.000177885
0.000178348
0.00017873
0.000179045
0.000179305
0.00017952
0.000179697
0.000179843
0.000179963
0.000180062
0.000180143
0.00018021
0.000180266
0.00018031
0.00018035
0.000180373
0.00018041
0.000180428
0.000180467
0.000180486
0.000180538
0.000180586
0.000180567
0.000180566
0.000180564
0.000180564
0.000180535
0.000180521
0.00018051
0.000180505
0.000180504
0.000180496
0.000180471
0.000180449
0.000180414
0.000180372
0.000180335
0.000180296
0.000180246
0.000180182
0.000180108
0.00018002
0.000179914
0.000179787
0.000179634
0.000179448
0.000179223
0.000178948
0.000178616
0.000178215
0.000177728
0.000177133
0.000176409
0.000175525
0.00017444
0.000173108
0.000171464
0.000169425
0.000166886
0.000163704
0.00015969
0.000154605
0.000148124
0.000139841
0.000129248
0.000115747
9.8738e-05
7.79311e-05
5.41999e-05
3.10261e-05
1.50856e-05
8.31667e-06
7.58363e-06
7.8053e-06
8.06274e-06
7.89826e-06
7.27237e-06
6.56063e-06
6.26715e-06
6.61638e-06
7.5113e-06
8.93098e-06
1.05093e-05
1.2119e-05
1.36749e-05
1.51257e-05
1.64425e-05
1.76138e-05
1.864e-05
1.95283e-05
2.02899e-05
2.09381e-05
2.14866e-05
2.19481e-05
2.23356e-05
2.26596e-05
2.293e-05
2.3155e-05
2.33419e-05
2.34972e-05
2.36263e-05
2.37331e-05
2.38215e-05
2.38947e-05
2.3955e-05
2.40052e-05
2.40467e-05
2.40809e-05
2.41091e-05
2.41324e-05
2.41516e-05
2.41675e-05
2.41806e-05
2.41911e-05
2.42008e-05
2.42058e-05
2.42151e-05
2.42194e-05
2.42282e-05
2.42335e-05
2.42441e-05
2.42577e-05
2.42583e-05
2.42593e-05
2.42612e-05
2.42663e-05
2.42677e-05