/*--------------------------------*- C++ -*----------------------------------*\
| =========                 |                                                 |
| \\      /  F ield         | OpenFOAM: The Open Source CFD Toolbox           |
|  \\    /   O peration     | Version:  2.4.0                                 |
|   \\  /    A nd           | Web:      www.OpenFOAM.org                      |
|    \\/     M anipulation  |                                                 |
\*---------------------------------------------------------------------------*/
FoamFile
{
    version     2.0;
    format      ascii;
    class       volScalarField;
    location    "0.07";
    object      p;
}
// * * * * * * * * * * * * * * * * * * * * * * * * * * * * * * * * * * * * * //

dimensions      [0 2 -2 0 0 0 0];

internalField   nonuniform List<scalar> 
17600
(
72.4995
70.7316
68.133
65.1545
62.2662
59.7308
57.6717
56.1033
54.9388
54.0741
53.4274
52.9061
52.4414
52.0153
51.6323
51.232
50.8288
50.4669
50.0833
49.685
49.3286
48.9562
48.5672
48.21
47.8515
47.4767
47.1269
46.7752
46.4166
46.0714
45.7316
45.3752
45.039
44.7022
44.3677
44.0468
43.7615
43.4997
43.2891
43.1335
70.76
69.5146
67.4079
64.7858
62.1136
59.7081
57.7259
56.1952
55.042
54.1698
53.5092
52.9718
52.4879
52.0462
51.6583
51.2481
50.8351
50.4763
50.0876
49.6814
49.3314
48.9564
48.5623
48.209
47.8515
47.4715
47.126
46.7732
46.4135
46.0691
45.7319
45.3699
45.0374
44.6953
44.3599
44.0299
43.7516
43.4671
43.2049
42.886
69.4094
68.4503
66.7686
64.5685
62.2382
60.0498
58.1665
56.6319
55.4068
54.4497
53.7134
53.1094
52.5805
52.115
51.7051
51.2828
50.8648
50.4996
50.1056
49.7001
49.3465
48.9716
48.5738
48.2218
47.8607
47.484
47.1336
46.787
46.4204
46.0817
45.7369
45.3791
45.0336
44.6978
44.3345
43.9958
43.6597
43.4156
43.2845
43.4901
68.334
67.5711
66.2237
64.4087
62.3809
60.3678
58.5586
57.0177
55.7306
54.7025
53.9064
53.2399
52.6787
52.202
51.7626
51.3303
50.9235
50.5367
50.1373
49.7437
49.3734
48.9927
48.6064
48.2412
47.8778
47.5075
47.1517
46.8008
46.4448
46.0981
45.7549
45.3954
45.0417
44.6944
44.3303
43.974
43.5714
43.1224
42.7413
43.4833
67.5222
66.8675
65.769
64.244
62.4642
60.5933
58.8619
57.3255
56.0017
54.919
54.0795
53.3512
52.7672
52.2824
51.8124
51.3747
50.9899
50.5682
50.1744
49.7955
49.4013
49.0143
48.6517
48.2572
47.8991
47.536
47.1742
46.8153
46.4825
46.1152
45.7797
45.4164
45.0569
44.6738
44.3236
43.9695
43.8369
43.8982
44.2262
43.7531
66.8612
66.3299
65.3985
64.0884
62.4859
60.7488
59.0774
57.5682
56.2201
55.1086
54.222
53.4479
52.8353
52.3513
51.843
51.4169
51.0388
50.5958
50.2062
49.8466
49.4186
49.0431
48.6851
48.275
47.9147
47.5695
47.1843
46.8399
46.5087
46.1429
45.7959
45.4537
45.0661
44.691
44.3236
43.9097
43.5037
43.1451
42.8569
44.6442
66.3489
65.9267
65.1109
63.9482
62.4747
60.8506
59.237
57.7537
56.3963
55.2663
54.3426
53.5261
52.8943
52.4004
51.8687
51.4503
51.0786
50.6175
50.2372
49.885
49.4385
49.0689
48.7136
48.2904
47.9334
47.5951
47.1999
46.864
46.5398
46.1708
45.8252
45.4932
45.0906
44.7029
44.3092
43.8963
43.5103
43.3641
43.7039
46.3294
66.0041
65.632
64.8984
63.8301
62.4546
60.9076
59.3546
57.8874
56.5281
55.3888
54.4412
53.5848
52.9434
52.4312
51.8881
51.4737
51.1087
50.6318
50.2628
49.9129
49.4562
49.0882
48.7363
48.3034
47.951
47.6135
47.2185
46.8862
46.5703
46.1965
45.859
45.5296
45.1257
44.7312
44.3567
43.9322
43.5653
43.3622
43.7756
46.0841
65.7588
65.4436
64.7547
63.7503
62.4267
60.9409
59.43
57.9799
56.6133
55.4768
54.5056
53.6284
52.9758
52.4565
51.8948
51.4971
51.1266
50.6448
50.2819
49.9343
49.4668
49.1059
48.7509
48.3172
47.9661
47.6313
47.2378
46.9123
46.5985
46.2294
45.8982
45.5782
45.178
44.7932
44.425
44.007
43.6156
43.4124
43.8494
46.092
65.6653
65.3512
64.683
63.7016
62.4098
60.9499
59.4718
58.0202
56.6568
55.5221
54.535
53.6458
52.9998
52.4629
51.9024
51.5115
51.136
50.6513
50.2942
49.9402
49.4741
49.1143
48.7602
48.3299
47.9823
47.6434
47.2613
46.9376
46.6248
46.2631
45.9417
45.6321
45.2509
44.8785
44.5292
44.1151
43.7172
43.4953
43.8901
46.0347
65.6575
65.3579
64.6768
63.7031
62.4009
60.96
59.4756
58.0247
56.6516
55.5251
54.5241
53.6507
53.0076
52.4674
51.9027
51.5256
51.1372
50.6609
50.2987
49.9409
49.4743
49.1205
48.7584
48.3464
47.9955
47.6606
47.2828
46.9667
46.6461
46.3027
45.986
45.6978
45.3323
44.9941
44.6685
44.2923
43.8825
43.6467
43.7774
45.903
65.8085
65.4314
64.7156
63.7236
62.4129
60.9411
59.4529
57.9755
56.6017
55.4852
54.4864
53.625
53.0037
52.4547
51.9001
51.5231
51.1263
50.652
50.2917
49.9263
49.472
49.1156
48.7543
48.352
48.0017
47.6648
47.2944
46.9835
46.6676
46.3349
46.0301
45.7534
45.418
45.1117
44.8339
44.5294
44.1932
43.9081
43.6115
44.8531
66.157
65.6011
64.8207
63.7756
62.4475
60.896
59.4017
57.8734
56.5145
55.4008
54.4242
53.5754
52.9934
52.426
51.9066
51.5119
51.1156
50.6412
50.291
49.9026
49.4801
49.1048
48.7568
48.3548
48.0203
47.6653
47.3276
46.9983
46.7001
46.3653
46.0874
45.8024
45.5176
45.2296
45.0224
44.7811
44.6102
44.5191
44.5069
43.4201
66.4602
65.9001
65.0401
63.9049
62.4689
60.8439
59.2872
57.7407
56.3842
55.2934
54.3258
53.518
52.9524
52.3927
51.8881
51.5004
51.084
50.6362
50.275
49.8868
49.4755
49.1051
48.7468
48.3684
48.0246
47.6772
47.3439
47.0242
46.7187
46.406
46.1289
45.8638
45.5996
45.3557
45.1911
45.0394
44.9381
44.8365
44.4743
42.5094
66.9067
66.3252
65.3637
64.0737
62.4736
60.7462
59.1145
57.5598
56.2112
55.1454
54.2046
53.4404
52.8888
52.3484
51.8559
51.4714
51.0482
50.619
50.2509
49.864
49.4639
49.0976
48.7333
48.373
48.0244
47.6835
47.3562
47.0422
46.735
46.442
46.1644
45.9145
45.6709
45.4595
45.3106
45.2015
45.1142
45.0013
44.4469
42.5027
67.5285
66.8778
65.7588
64.2451
62.4472
60.5864
58.88
57.3237
55.9968
54.9529
54.0681
53.3483
52.8061
52.2887
51.822
51.4242
51.008
50.5962
50.2216
49.832
49.452
49.0813
48.7205
48.3699
48.0244
47.6853
47.3712
47.054
46.7573
46.4725
46.2046
45.9558
45.7372
45.5289
45.3831
45.2664
45.1882
45.0596
44.6607
42.912
68.3397
67.5859
66.2256
64.4097
62.3648
60.3582
58.5613
57.0185
55.7358
54.7247
53.9029
53.2474
52.7042
52.2143
51.7785
51.3715
50.9544
50.5712
50.1858
49.7968
49.4335
49.0663
48.7014
48.3667
48.0186
47.6864
47.3797
47.0658
46.7709
46.5036
46.2336
45.9909
45.7816
45.5781
45.4117
45.2742
45.1536
45.0209
44.7763
43.7956
69.4101
68.4654
66.7746
64.5671
62.2247
60.0479
58.1582
56.6314
55.4226
54.4637
53.7121
53.1275
52.5969
52.1318
51.7265
51.3192
50.9032
50.5404
50.1539
49.767
49.4117
49.0528
48.686
48.3594
48.0131
47.6882
47.3803
47.0752
46.7808
46.5235
46.252
46.0174
45.8024
45.6058
45.4152
45.266
45.0714
44.8243
44.4632
44.4424
70.7604
69.5271
67.4158
64.7837
62.1036
59.7139
57.7152
56.1912
55.0621
54.1791
53.5084
52.9949
52.5019
52.0648
51.6832
51.2829
50.8756
50.5198
50.1373
49.754
49.401
49.045
48.6813
48.3532
48.0118
47.6884
47.3818
47.0792
46.7886
46.53
46.2629
46.0264
45.8115
45.6083
45.4138
45.2486
45.0755
44.9181
44.7628
44.6967
72.4984
70.7429
68.1398
65.1534
62.2588
59.7352
57.6627
56.1005
54.9546
54.0847
53.4292
52.9279
52.4563
52.0343
51.6575
51.2669
50.8687
50.5123
50.1346
49.756
49.4009
49.0467
48.6856
48.3554
48.0157
47.6933
47.3847
47.0843
46.7941
46.533
46.2688
46.0313
45.8142
45.6083
45.4169
45.2489
45.0957
44.9433
44.827
44.7615
43.2793
43.3135
43.1699
42.8043
42.1944
41.3871
40.4883
39.4828
38.4382
37.3964
36.2529
35.0779
33.9283
32.7483
31.5807
30.4467
29.3225
28.2574
27.2941
26.4685
25.7974
25.2736
24.9175
24.6891
24.6123
24.6857
24.9116
25.3254
25.8554
26.5332
27.3433
28.2463
29.2802
30.3684
31.4961
32.6459
33.8578
35.3029
36.9544
38.6784
40.3792
42.0203
43.6729
45.4519
47.394
49.4469
51.5656
53.6485
55.5026
57.0446
58.2871
59.1842
59.7515
60.0828
60.2106
60.1322
59.8542
59.4121
58.9515
58.5578
58.1565
57.6431
57.0316
56.2466
55.2874
54.1313
52.8065
51.3631
49.861
48.3344
46.8519
45.4769
44.2046
43.0314
41.9175
40.7984
39.6931
38.5986
37.52
36.5102
35.5439
34.5773
33.663
32.7843
31.9808
31.3565
30.8637
30.377
29.935
29.6766
29.5569
29.4747
29.4748
29.5944
29.8096
30.1242
30.5605
31.1217
31.7829
32.5319
33.3514
34.2076
35.1671
36.2534
37.327
38.3401
39.3047
40.1557
40.8586
41.4443
41.9546
42.2993
42.3946
42.345
42.1902
41.8551
41.3157
40.5847
39.672
38.5621
37.1963
35.5845
33.8052
31.873
29.7696
27.5022
25.1038
22.6006
19.9868
17.2458
14.4214
11.4896
8.55968
5.7617
2.96528
0.370457
-1.77471
-3.73796
-5.42872
-6.57251
-7.44312
-7.9366
-7.97742
-7.87053
-7.28136
-5.64518
-3.47359
-1.28632
1.19068
4.09314
7.24195
10.5831
14.1163
17.6798
21.2106
24.7414
28.4784
32.2593
35.8187
39.1638
42.5861
45.8836
49.0642
52.0304
54.7924
57.2641
59.617
61.738
63.6154
65.2306
66.6516
67.8734
68.9431
69.8896
70.7407
71.4615
72.0453
72.4996
72.8602
73.1048
73.2345
73.2051
73.1058
72.9274
72.7492
72.574
72.3935
72.1776
71.9245
71.6879
71.5004
71.3875
71.2491
71.0802
70.9048
70.7404
70.6959
70.7206
70.8535
71.0333
71.2465
71.5088
71.7855
72.0943
72.4236
72.7246
73.0436
73.3081
73.5601
73.7756
73.9357
74.0786
74.1728
74.2487
74.3243
74.3693
74.4279
74.4757
74.516
74.5718
74.6073
74.6454
74.6768
74.6906
74.7041
74.7168
74.7087
74.7122
74.7074
74.7032
74.7224
74.7341
74.751
74.7727
74.7654
74.7638
74.7435
74.7329
74.7326
74.7438
74.7482
74.7555
74.7507
74.7377
74.7215
74.7226
74.7134
74.7247
74.7292
74.7456
74.7488
74.7595
74.7573
74.7591
74.7557
74.7541
74.7471
74.7466
74.7362
74.7369
74.7265
74.727
74.7181
74.7201
74.7115
74.715
74.7053
74.7103
74.6988
74.7042
74.6924
74.6952
74.6849
74.6857
74.6752
74.6756
74.6647
74.6648
74.654
74.653
74.6426
74.6408
74.6295
74.6281
74.6153
74.6137
74.6
74.5978
74.583
74.5811
74.5643
74.5619
74.5434
74.5404
74.5207
74.5165
74.4954
74.4902
74.4672
74.4607
74.4365
74.4275
74.4027
74.391
74.3648
74.351
74.323
74.3063
74.2771
74.257
74.2262
74.2025
74.1701
74.1426
74.1082
74.0767
74.0402
74.0047
73.9659
73.9264
73.8848
73.8409
73.7967
73.7487
73.7014
73.6486
73.5976
73.5393
73.4843
73.4203
73.3604
73.2907
73.2275
73.151
73.0849
73.0004
72.9319
72.8385
72.7677
72.6644
72.5921
72.478
72.4044
72.28
72.2041
72.0686
71.9888
71.8421
71.7564
71.5997
71.507
71.3435
71.2414
71.0744
70.9608
70.7945
70.6668
70.5034
70.3592
70.1976
70.0343
69.8728
69.6939
69.5307
69.3433
69.1771
68.9772
68.817
68.6009
68.4517
68.2182
68.0783
67.8284
67.6987
67.4504
67.3204
67.0908
66.9379
66.7336
66.5385
66.341
66.0959
65.8655
65.5568
65.3039
64.8765
64.5623
63.979
63.4825
62.7447
61.8792
60.8008
59.3861
57.7585
55.2489
52.3862
47.6549
40.5452
30.792
9.48709
42.9684
42.8908
42.5821
42.1531
41.5946
40.9051
40.1222
39.2621
38.3365
37.3614
36.3386
35.2428
34.1442
33.0553
31.9649
30.9431
29.928
29.0004
28.179
27.4569
26.9134
26.4403
26.1191
25.9344
25.8495
25.9346
26.1246
26.4855
26.9802
27.5745
28.3041
29.104
29.9914
30.9988
32.1242
33.3674
34.7358
36.186
37.6487
39.0312
40.3836
41.9069
43.6167
45.5075
47.5292
49.5242
51.3639
52.9161
54.2269
55.3424
56.1811
56.8015
57.2694
57.5973
57.8216
57.932
57.9315
57.8686
57.6918
57.3275
56.8431
56.3145
55.7014
55.0957
54.3107
53.3635
52.3121
51.1975
50.0896
48.9766
47.8023
46.6128
45.4453
44.2897
43.208
42.269
41.4006
40.5481
39.6914
38.8122
37.9344
37.1542
36.3956
35.6151
34.9454
34.4267
33.9517
33.4683
33.0782
32.8614
32.7365
32.653
32.6526
32.7835
33.0521
33.3721
33.76
34.3363
35.062
35.8563
36.7096
37.5875
38.47
39.4041
40.4147
41.3882
42.2062
42.8988
43.468
43.8536
44.112
44.2743
44.2835
44.13
43.793
43.2421
42.4676
41.459
40.215
38.7464
37.0429
35.0636
32.8482
30.4527
27.8513
25.0759
22.1187
18.9591
15.7048
12.3469
8.86631
5.33956
1.77402
-1.75384
-5.16001
-8.42156
-11.3202
-13.8258
-15.9491
-17.4867
-18.4839
-19.0425
-19.0613
-18.6088
-17.5968
-15.7031
-13.1762
-10.4949
-7.49034
-3.94404
-0.012594
4.07007
8.23274
12.4432
16.6881
20.908
25.1673
29.2592
33.1884
37.1141
40.9789
44.5615
47.9962
51.3317
54.439
57.2863
59.8377
62.0981
64.062
65.8061
67.3327
68.6599
69.7768
70.6926
71.4559
72.1223
72.7037
73.1859
73.5127
73.7061
73.7624
73.7337
73.5923
73.4258
73.2025
72.9798
72.7559
72.5243
72.2758
72.0526
71.8651
71.7489
71.6403
71.5445
71.4387
71.3607
71.3303
71.3642
71.4521
71.6057
71.7877
72.0203
72.2611
72.5216
72.7721
73.0143
73.222
73.4246
73.5878
73.7508
73.8877
74.0036
74.1021
74.182
74.2481
74.3219
74.3707
74.4412
74.4864
74.5386
74.5779
74.6024
74.6259
74.6428
74.6452
74.6668
74.6693
74.6873
74.7043
74.7126
74.7263
74.7301
74.7243
74.7324
74.7262
74.7267
74.7192
74.7102
74.7043
74.7082
74.7113
74.7191
74.7254
74.7148
74.7124
74.7142
74.7112
74.717
74.7189
74.7141
74.7245
74.7204
74.7219
74.7201
74.7238
74.7231
74.7213
74.7231
74.7163
74.7137
74.7093
74.7054
74.7001
74.6983
74.6964
74.6932
74.6932
74.6905
74.6883
74.6843
74.682
74.6749
74.6723
74.6628
74.6621
74.6494
74.6493
74.6358
74.6347
74.622
74.62
74.6063
74.6046
74.5891
74.5873
74.5718
74.5682
74.5527
74.5479
74.5311
74.5264
74.5075
74.5023
74.4824
74.4756
74.4544
74.4466
74.4225
74.4149
74.3875
74.3793
74.3496
74.3402
74.3074
74.2975
74.2609
74.2502
74.2103
74.1975
74.155
74.1406
74.094
74.078
74.0276
74.0092
73.9558
73.9342
73.8764
73.8523
73.7899
73.7626
73.6969
73.6656
73.5967
73.5619
73.489
73.4496
73.3731
73.3272
73.247
73.1944
73.1113
73.0515
72.9671
72.8998
72.8137
72.7374
72.6493
72.5634
72.4732
72.3767
72.283
72.1769
72.0787
71.9643
71.8615
71.739
71.6322
71.4983
71.3876
71.2387
71.1264
70.9606
70.8475
70.6634
70.551
70.3495
70.2359
70.0185
69.8968
69.6671
69.5341
69.3014
69.1534
68.9275
68.758
68.5424
68.348
68.1437
67.9272
67.7261
67.4966
67.2952
67.0479
66.859
66.5738
66.4003
66.0608
65.8843
65.4912
65.2684
64.8519
64.5353
64.1164
63.657
63.1499
62.5252
61.8821
60.9238
60.087
58.6622
57.3539
55.4412
53.0142
49.9723
45.4395
40.3631
31.5469
21.0879
6.86994
44.2046
43.7489
42.2358
40.9021
39.9705
39.3976
39.0239
38.5485
37.9724
37.2295
36.3946
35.4922
34.5197
33.6051
32.654
31.7736
30.9345
30.1344
29.4598
28.842
28.3569
27.9729
27.6839
27.5278
27.4807
27.5622
27.7852
28.1194
28.5796
29.151
29.7998
30.5819
31.4294
32.4099
33.5166
34.683
35.9641
37.1994
38.4451
39.7499
41.1231
42.719
44.4296
46.1867
47.8215
49.1553
50.3277
51.3698
52.3619
53.4013
54.3917
55.2472
55.8692
56.2389
56.4162
56.4421
56.3746
56.2326
56.006
55.7336
55.4592
55.1342
54.6833
54.1511
53.549
52.8757
52.1133
51.2644
50.3506
49.4003
48.4373
47.4798
46.5405
45.6724
44.8443
43.9703
43.1059
42.3497
41.6826
40.9584
40.295
39.684
39.0424
38.4449
37.9435
37.4744
36.9991
36.5558
36.266
36.1074
35.9451
35.8333
35.8972
36.137
36.4778
36.8733
37.3547
37.9335
38.6415
39.487
40.3185
41.1206
41.9313
42.6589
43.4032
44.2244
44.967
45.5624
46.0245
46.3671
46.6018
46.6979
46.6433
46.4361
45.996
45.2692
44.2653
43.0148
41.522
39.7316
37.6719
35.38
32.7989
29.9316
26.8072
23.4005
19.7136
15.7756
11.6379
7.41345
3.15608
-1.07692
-5.25071
-9.31746
-13.1632
-16.8218
-20.2063
-23.1808
-25.7231
-27.7296
-29.1155
-29.8496
-29.7864
-29.02
-27.6428
-25.5273
-22.769
-19.6724
-16.1216
-11.9061
-7.32003
-2.68053
2.1242
7.14447
12.1263
17.0375
21.8638
26.4972
30.9062
35.213
39.2651
43.1979
46.989
50.6198
53.9125
56.9978
59.7873
62.3269
64.5173
66.3989
67.9417
69.2299
70.2718
71.1354
71.8533
72.4807
73.0306
73.4814
73.8097
73.9934
74.069
74.0461
73.9667
73.8245
73.6476
73.414
73.1704
72.9048
72.6695
72.4572
72.2969
72.1715
72.0783
71.9987
71.9403
71.9048
71.9059
71.9501
72.0311
72.1598
72.3148
72.4962
72.6913
72.8729
73.0565
73.2182
73.3729
73.5219
73.6496
73.768
73.8815
73.9663
74.0685
74.1341
74.212
74.2743
74.3286
74.3903
74.4296
74.4691
74.5142
74.5297
74.5736
74.584
74.605
74.6313
74.648
74.6667
74.6848
74.6657
74.6628
74.6394
74.6265
74.6195
74.6288
74.6389
74.6553
74.6738
74.6891
74.7055
74.7281
74.7253
74.728
74.7197
74.707
74.698
74.7025
74.6991
74.6909
74.6957
74.6976
74.7018
74.7097
74.707
74.7123
74.7087
74.7105
74.7054
74.7041
74.6969
74.6947
74.6877
74.6871
74.6807
74.6823
74.6772
74.6768
74.6739
74.6695
74.6653
74.6587
74.653
74.646
74.6383
74.6317
74.6244
74.6179
74.61
74.603
74.5956
74.5875
74.5801
74.5713
74.5628
74.5539
74.5442
74.5344
74.5236
74.5122
74.501
74.4881
74.4757
74.4619
74.4477
74.4332
74.4177
74.4003
74.3843
74.3645
74.3463
74.326
74.3055
74.283
74.2616
74.2353
74.2127
74.184
74.1592
74.1271
74.1009
74.0644
74.0372
73.9967
73.9664
73.9225
73.8898
73.8404
73.8059
73.7517
73.7137
73.6545
73.6145
73.5497
73.5082
73.4369
73.3941
73.317
73.2714
73.1861
73.1384
73.0444
72.9942
72.8918
72.8389
72.7269
72.6715
72.5497
72.4902
72.3599
72.2959
72.1585
72.0887
71.9463
71.8689
71.7233
71.6349
71.488
71.3857
71.2398
71.1207
70.9761
70.839
70.694
70.5387
70.391
70.2201
70.0646
69.8822
69.7197
69.5205
69.3583
69.1358
68.9781
68.7288
68.5765
68.2981
68.1472
67.8382
67.6852
67.3605
67.1932
66.8753
66.6797
66.3846
66.139
65.8525
65.5376
65.2334
64.8692
64.5356
64.0713
63.7356
63.1236
62.7514
61.9634
61.4574
60.5554
59.7188
58.6638
57.3688
55.9244
53.8802
52.0301
48.6009
45.5746
40.4352
34.8559
27.5016
18.8847
9.96215
46.3665
46.1291
43.7804
41.5899
40.0295
39.0037
38.3384
37.8356
37.4474
36.979
36.4105
35.7742
35.095
34.3931
33.6714
32.9454
32.2582
31.6276
31.031
30.5403
30.0947
29.782
29.5675
29.4246
29.4503
29.5198
29.7731
30.0974
30.5169
31.0743
31.6478
32.4057
33.1913
34.1048
35.1089
36.1159
37.2409
38.3158
39.5074
40.7743
42.0996
43.5475
44.8672
46.1107
47.1825
48.1452
49.2917
50.4764
51.634
52.6381
53.3314
53.857
54.2455
54.5337
54.7963
55.0024
55.1574
55.1895
55.0967
54.9636
54.7306
54.3641
53.9536
53.5325
53.0492
52.4791
51.83
51.1609
50.5169
49.8184
49.0878
48.3695
47.6595
46.9646
46.2933
45.6724
45.0462
44.4324
43.8376
43.2346
42.7303
42.2776
41.7545
41.2766
40.8766
40.5433
40.1938
39.8492
39.6885
39.6361
39.5794
39.5557
39.6324
39.8855
40.2171
40.546
40.9872
41.4992
42.0286
42.6883
43.3936
44.0583
44.7332
45.3567
45.9523
46.6379
47.4119
48.1422
48.7344
49.1982
49.4915
49.6088
49.55
49.2577
48.7154
47.8843
46.7024
45.2051
43.4499
41.396
39.0412
36.4025
33.4271
30.0848
26.3882
22.3415
17.9476
13.26
8.32876
3.21372
-1.9308
-6.99171
-11.9188
-16.6084
-20.9874
-25.0069
-28.6432
-31.8627
-34.5678
-36.7055
-38.2768
-39.2035
-39.2515
-38.4386
-36.8782
-34.563
-31.6067
-28.1475
-24.0157
-19.2265
-14.223
-9.08327
-3.5892
2.13719
7.74767
13.2915
18.6891
23.8758
28.7903
33.456
37.8348
42.0448
46.0563
49.8306
53.406
56.735
59.7766
62.417
64.6839
66.5436
68.1308
69.4467
70.5312
71.3586
72.02
72.5989
73.1462
73.6263
73.9621
74.1512
74.2187
74.1988
74.1286
74.0064
73.8515
73.6475
73.4193
73.1824
72.9626
72.7719
72.6272
72.5109
72.4412
72.3833
72.368
72.3652
72.4013
72.4498
72.5291
72.62
72.7373
72.8667
73.0084
73.1399
73.2629
73.3689
73.4688
73.5717
73.6726
73.7781
73.8762
73.9613
74.0493
74.1148
74.1881
74.2501
74.3069
74.3688
74.4056
74.4521
74.4769
74.5023
74.5372
74.5482
74.5696
74.5903
74.5937
74.6269
74.6319
74.6351
74.6365
74.6205
74.6014
74.5999
74.6035
74.6155
74.6398
74.6646
74.6722
74.6936
74.6967
74.6924
74.6901
74.6871
74.663
74.6636
74.6379
74.6318
74.6431
74.6563
74.6577
74.6742
74.6835
74.687
74.6913
74.6905
74.6843
74.6856
74.6742
74.675
74.6677
74.6704
74.6609
74.6698
74.6603
74.6664
74.6576
74.6621
74.6468
74.651
74.6346
74.6343
74.6192
74.6189
74.6021
74.6002
74.5858
74.583
74.5677
74.5646
74.548
74.5448
74.5276
74.5246
74.5057
74.502
74.482
74.4785
74.4565
74.4526
74.4285
74.4232
74.3983
74.3925
74.3658
74.3591
74.3294
74.3211
74.2898
74.2796
74.2472
74.2347
74.2008
74.186
74.1495
74.1326
74.0943
74.074
74.0343
74.0104
73.9684
73.9413
73.8972
73.8657
73.8199
73.7838
73.7353
73.6949
73.6435
73.5981
73.544
73.493
73.436
73.3804
73.32
73.2588
73.1958
73.1287
73.063
72.9904
72.9208
72.8419
72.7678
72.6809
72.6021
72.5071
72.4251
72.3211
72.2369
72.1212
72.0355
71.9057
71.8192
71.6733
71.5868
71.4232
71.3374
71.1565
71.071
70.873
70.7864
70.5735
70.4775
70.2503
70.1423
69.9067
69.7828
69.5472
69.4043
69.1758
69.0088
68.7878
68.5897
68.371
68.1418
67.9217
67.6699
67.4416
67.1661
66.9402
66.6171
66.4053
66.022
65.8285
65.3741
65.1701
64.6404
64.3993
63.8489
63.5114
62.9716
62.4762
61.9116
61.2384
60.551
59.6298
58.9021
57.4773
56.6685
54.6856
53.4659
50.896
48.7749
45.4434
41.8185
37.4491
32.2523
26.7545
20.3124
13.8613
41.1769
40.8033
41.3766
41.5399
41.0639
40.1838
39.1826
38.3963
37.7143
37.1792
36.7224
36.2792
35.9286
35.4367
34.9338
34.347
33.7793
33.2897
32.7371
32.3351
31.9138
31.6723
31.5027
31.3806
31.4371
31.4809
31.7551
32.0313
32.4327
32.9352
33.4393
34.1568
34.8285
35.6698
36.5203
37.3842
38.4042
39.3713
40.5106
41.5878
42.6377
43.7113
44.6303
45.6522
46.652
47.7306
48.8781
49.7858
50.6207
51.3042
51.9044
52.5847
53.1093
53.5601
53.933
54.089
54.1549
54.1431
54.0887
54.027
53.8472
53.5999
53.361
53.059
52.6906
52.2665
51.7717
51.3028
50.8063
50.2382
49.6973
49.1179
48.5677
48.0692
47.5561
47.09
46.5854
46.1174
45.6846
45.242
44.9208
44.553
44.173
43.882
43.6318
43.4867
43.2826
43.051
42.9784
42.9845
43.0141
43.0408
43.109
43.2635
43.4244
43.5918
43.8169
44.0981
44.433
44.8605
45.4253
46.1416
46.9455
47.7507
48.5401
49.3033
50.1101
50.9513
51.6899
52.286
52.6533
52.792
52.7503
52.4523
51.8654
50.928
49.6296
47.9911
46.0175
43.7122
41.0054
37.8666
34.3319
30.4336
26.1607
21.5284
16.5884
11.3589
5.89777
0.227412
-5.58224
-11.3839
-17.1091
-22.5938
-27.6704
-32.2787
-36.3662
-39.874
-42.7475
-44.9273
-46.4219
-47.2544
-47.3644
-46.6385
-44.9711
-42.4235
-39.1714
-35.2727
-30.6541
-25.516
-20.1658
-14.5153
-8.47027
-2.23358
3.95994
10.0288
15.9355
21.6253
26.9938
31.9468
36.6741
41.1227
45.3353
49.2465
52.9785
56.3608
59.4608
62.1854
64.5655
66.5501
68.213
69.5669
70.6369
71.4772
72.1266
72.684
73.1651
73.5845
73.8769
74.079
74.1692
74.1974
74.1424
74.0531
73.9023
73.7309
73.5138
73.3103
73.096
72.9387
72.8002
72.7276
72.6866
72.6867
72.7096
72.7449
72.789
72.8313
72.8727
72.9259
72.983
73.0758
73.1708
73.2813
73.378
73.4675
73.5522
73.6507
73.728
73.8105
73.8634
73.9281
74.0029
74.0851
74.171
74.2502
74.2986
74.3614
74.3899
74.4288
74.4542
74.4699
74.4907
74.5151
74.5311
74.5773
74.5976
74.6233
74.6404
74.6213
74.6038
74.5819
74.5592
74.5733
74.5879
74.6086
74.6525
74.6785
74.6975
74.7316
74.7294
74.7237
74.7303
74.7065
74.6833
74.6794
74.6468
74.635
74.645
74.6392
74.6485
74.6709
74.6775
74.6771
74.69
74.6845
74.6723
74.6757
74.6643
74.6553
74.6485
74.6495
74.6403
74.6449
74.6464
74.6437
74.6418
74.6377
74.6295
74.6207
74.6141
74.6028
74.5968
74.5842
74.5808
74.5671
74.5634
74.5505
74.5473
74.5307
74.5273
74.5122
74.5065
74.4913
74.4845
74.468
74.4611
74.4439
74.4345
74.4157
74.4061
74.3858
74.3751
74.3516
74.3392
74.3117
74.2985
74.2687
74.2554
74.2223
74.2095
74.1727
74.1586
74.1187
74.1029
74.0588
74.0424
73.9942
73.9764
73.9236
73.9044
73.8474
73.8264
73.7639
73.7415
73.6745
73.6497
73.5772
73.5505
73.4725
73.444
73.36
73.3289
73.2384
73.2041
73.1069
73.0688
72.9654
72.9237
72.8151
72.7685
72.655
72.602
72.4842
72.4241
72.3036
72.2346
72.1129
72.0336
71.9109
71.8188
71.6954
71.5884
71.464
71.3409
71.2148
71.0772
70.9473
70.7968
70.6592
70.4973
70.3514
70.1743
70.0254
69.8274
69.6791
69.4538
69.309
69.0535
68.9177
68.6289
68.4982
68.1726
68.038
67.678
67.5357
67.1613
66.9975
66.6271
66.4214
66.0649
65.7928
65.4469
65.094
64.7395
64.3227
63.934
63.4277
63.0613
62.3793
62.0635
61.1384
60.8278
59.6668
59.2413
57.8429
57.1259
55.5177
54.38
52.5574
50.7328
48.5739
46.0415
43.2074
39.6627
36.1571
31.9341
27.663
22.8051
17.65
48.569
47.8968
44.5218
41.4742
39.2014
37.7648
37.0402
37.002
37.0609
37.1193
37.0616
36.9315
36.8394
36.4927
36.1311
35.6114
35.1764
34.7555
34.2675
33.9209
33.524
33.3731
33.2061
33.1317
33.1761
33.2164
33.5065
33.723
34.126
34.5398
35.0036
35.65
36.1978
36.967
37.6404
38.4132
39.3045
40.1005
41.0958
41.885
42.7268
43.605
44.3955
45.4348
46.3325
47.2876
48.2159
48.9269
49.7833
50.4751
51.1273
51.7704
52.1313
52.5151
52.7723
52.9106
53.1553
53.2751
53.3073
53.285
53.1592
53.062
52.9121
52.6559
52.4043
52.07
51.6883
51.3765
50.9809
50.604
50.2469
49.7807
49.4366
49.0889
48.7071
48.3859
48.0127
47.7284
47.4076
47.1268
46.9367
46.6083
46.404
46.284
46.1926
46.1873
46.0753
46.0039
45.9695
45.9267
45.9317
45.8595
45.8187
45.8521
45.8632
45.9191
46.0311
46.2002
46.5002
46.9247
47.493
48.297
49.2435
50.1854
51.1251
51.9634
52.7058
53.5364
54.3997
55.2075
55.8246
56.1256
56.1652
55.8987
55.3603
54.4364
53.02
51.3001
49.1541
46.4172
43.2164
39.6318
35.5987
31.1121
26.2536
21.0613
15.5826
9.88015
4.01953
-1.95275
-8.04941
-14.2275
-20.3965
-26.4327
-32.1556
-37.4066
-42.0481
-45.9937
-49.2183
-51.6386
-53.2466
-54.13
-54.2518
-53.3917
-51.5452
-48.8326
-45.2364
-40.7995
-35.812
-30.4984
-24.7591
-18.5627
-12.1313
-5.64448
0.939475
7.5064
13.9148
19.9239
25.6005
30.9017
35.8799
40.4365
44.7264
48.7698
52.5288
56.0212
59.2245
62.1287
64.5541
66.5866
68.2242
69.575
70.6145
71.4092
72.0216
72.535
73.0044
73.4076
73.7288
73.9478
74.0718
74.1164
74.0844
73.9936
73.8558
73.6744
73.4866
73.2946
73.1348
73.007
72.9144
72.8627
72.8455
72.861
72.9053
72.9544
73.0045
73.0454
73.0782
73.1051
73.1429
73.1955
73.2832
73.3762
73.4655
73.5396
73.5947
73.6547
73.7155
73.7699
73.8356
73.8847
73.9628
74.041
74.1318
74.2117
74.2861
74.3495
74.4053
74.4448
74.4879
74.5027
74.5293
74.5481
74.5496
74.5617
74.5669
74.5429
74.5592
74.5462
74.5571
74.597
74.6117
74.6341
74.6554
74.6401
74.6635
74.6725
74.687
74.7161
74.7311
74.7297
74.7363
74.7156
74.695
74.6814
74.6595
74.6433
74.6497
74.641
74.6428
74.6541
74.6603
74.659
74.679
74.6622
74.6609
74.6525
74.6435
74.6269
74.6314
74.6235
74.6238
74.6244
74.6289
74.6204
74.6252
74.6154
74.6105
74.6005
74.5949
74.5815
74.5795
74.5644
74.5604
74.5484
74.5408
74.5304
74.5276
74.5094
74.5004
74.4857
74.477
74.4632
74.4517
74.4367
74.4248
74.4089
74.3968
74.379
74.3648
74.3456
74.3306
74.3103
74.2935
74.27
74.2494
74.2264
74.2041
74.1791
74.1551
74.1274
74.1009
74.0718
74.0413
74.0114
73.9774
73.9453
73.9088
73.8737
73.834
73.7969
73.7529
73.7129
73.6667
73.6225
73.572
73.5253
73.4706
73.4202
73.3602
73.3063
73.2413
73.1838
73.1104
73.0506
72.9706
72.9076
72.8183
72.7542
72.6549
72.59
72.4789
72.4131
72.2893
72.2248
72.0866
72.0229
71.8692
71.807
71.6386
71.5769
71.3929
71.3288
71.1297
71.0595
70.8453
70.7675
70.5417
70.4542
70.222
70.1221
69.8878
69.7701
69.5381
69.3962
69.1681
68.9953
68.7679
68.5588
68.3323
68.0906
67.8601
67.5935
67.3495
67.0499
66.8122
66.459
66.2491
65.8134
65.641
65.0935
64.9465
64.2877
64.151
63.3814
63.224
62.3605
62.1321
61.1966
60.8384
59.8545
59.2834
58.2423
57.3728
56.2801
55.1058
53.8229
52.3507
50.7958
48.8317
46.9225
44.4102
41.9804
39.006
36.0137
32.6232
29.0139
25.0703
20.8259
49.4792
48.425
44.3562
40.5602
37.8928
36.3965
36.0449
36.4884
36.9667
37.3995
37.5937
37.7509
37.7945
37.557
37.2525
36.7817
36.4511
36.038
35.6301
35.2995
34.968
34.8796
34.706
34.6854
34.6897
34.7625
35.0302
35.1964
35.5861
35.8955
36.337
36.8804
37.3365
38.0269
38.5392
39.247
39.9617
40.6009
41.437
42.0078
42.8212
43.609
44.3614
45.339
46.0336
46.933
47.7179
48.3498
49.1629
49.6381
50.2206
50.7562
51.0833
51.5966
51.8784
52.1524
52.4204
52.4098
52.504
52.5516
52.5274
52.5599
52.4234
52.2823
52.1726
51.9368
51.7467
51.5411
51.2752
51.0933
50.7953
50.5031
50.3047
49.9958
49.8098
49.6075
49.3569
49.217
48.9807
48.86
48.7112
48.5171
48.5562
48.5107
48.5151
48.5388
48.4618
48.5073
48.4518
48.4056
48.3712
48.181
48.0786
48.047
48.0431
48.1207
48.2801
48.4971
48.7792
49.1424
49.5629
50.1297
50.8626
51.7877
52.887
53.9704
54.989
56.0663
57.1963
58.2824
59.1873
59.6757
59.8182
59.621
58.9696
58.03
56.5881
54.5186
52.0393
49.1204
45.6783
41.7526
37.3429
32.4272
27.0788
21.3905
15.4138
9.22361
2.90258
-3.4997
-9.92429
-16.2973
-22.6043
-28.7937
-34.7047
-40.1941
-45.1168
-49.3416
-52.8367
-55.5915
-57.5551
-58.6443
-58.7849
-57.9318
-56.0504
-53.1437
-49.251
-44.5858
-39.3936
-33.7104
-27.5364
-21.0818
-14.4725
-7.71214
-0.796911
6.02238
12.6341
18.9059
24.8248
30.3124
35.3448
40.0654
44.4558
48.6184
52.4343
56.0425
59.2876
62.1486
64.542
66.5223
68.1511
69.4276
70.443
71.2122
71.8558
72.3782
72.8553
73.2322
73.55
73.7638
73.9173
73.9592
73.9454
73.841
73.7109
73.5374
73.3784
73.2302
73.1269
73.0501
73.0104
72.9846
72.9785
72.9999
73.0223
73.0745
73.1182
73.1571
73.2122
73.2304
73.275
73.308
73.3606
73.4321
73.4813
73.5338
73.5948
73.6535
73.7503
73.8378
73.9162
73.9872
74.0464
74.1066
74.1748
74.2211
74.2777
74.3279
74.362
74.4157
74.4496
74.4788
74.5095
74.524
74.539
74.56
74.5783
74.5935
74.6178
74.6305
74.623
74.6258
74.5986
74.5831
74.601
74.6096
74.6301
74.6764
74.6941
74.7059
74.7332
74.7264
74.7107
74.7287
74.7044
74.6971
74.7088
74.6919
74.6819
74.6923
74.6651
74.6588
74.656
74.6321
74.6283
74.6314
74.624
74.6251
74.6302
74.6273
74.6184
74.6266
74.6171
74.6147
74.6042
74.6057
74.5803
74.5801
74.5643
74.5579
74.5373
74.5426
74.5263
74.5258
74.5157
74.5157
74.4971
74.4954
74.4721
74.4739
74.4551
74.453
74.4305
74.4285
74.4051
74.4025
74.3768
74.372
74.3445
74.3397
74.3097
74.3033
74.2705
74.2632
74.2282
74.2222
74.1863
74.1768
74.1353
74.1247
74.0813
74.0693
74.0223
74.008
73.958
73.9428
73.889
73.8711
73.8138
73.7939
73.733
73.7108
73.6458
73.6208
73.552
73.5242
73.4511
73.4199
73.3428
73.3077
73.2263
73.1864
73.1017
73.0561
72.967
72.9157
72.824
72.7649
72.6699
72.604
72.5061
72.4309
72.3309
72.2462
72.1438
72.0482
71.9433
71.8362
71.7279
71.6085
71.4957
71.3647
71.2453
71.105
70.9786
70.8254
70.6943
70.5239
70.3895
70.1961
70.0647
69.8449
69.7235
69.4724
69.3648
69.0745
68.9794
68.6403
68.5535
68.1622
68.083
67.6461
67.5781
67.0957
67.0249
66.4989
66.4066
65.839
65.7215
65.1294
64.9645
64.3573
64.1162
63.4799
63.1292
62.4853
62.0053
61.3614
60.7536
60.0834
59.3495
58.5913
57.7499
56.8999
55.891
54.9341
53.6908
52.5557
51.0376
49.6231
47.801
46.0124
43.8517
41.6146
39.0935
36.4007
33.4707
30.3302
26.9735
23.4152
49.4943
48.7396
44.7121
40.8287
38.1174
36.5813
36.32
36.7682
37.3536
37.9225
38.2778
38.6145
38.6867
38.5339
38.2535
37.8689
37.5912
37.1711
36.8312
36.51
36.2723
36.1986
36.0291
36.0332
36.0029
36.1142
36.3231
36.462
36.8017
37.0283
37.4489
37.8791
38.2828
38.8659
39.2569
39.8919
40.4248
40.9794
41.688
42.1726
42.9927
43.6524
44.3774
45.2254
45.743
46.5518
47.1016
47.6812
48.427
48.8181
49.5149
49.9669
50.3006
50.8357
50.9687
51.2735
51.5007
51.5769
51.9219
51.9644
52.0248
52.137
52.0084
52.0682
52.009
51.8531
51.8449
51.656
51.557
51.4856
51.2579
51.2077
51.0378
50.8652
50.8876
50.7091
50.6462