/*--------------------------------*- C++ -*----------------------------------*\
| =========                 |                                                 |
| \\      /  F ield         | OpenFOAM: The Open Source CFD Toolbox           |
|  \\    /   O peration     | Version:  2.4.0                                 |
|   \\  /    A nd           | Web:      www.OpenFOAM.org                      |
|    \\/     M anipulation  |                                                 |
\*---------------------------------------------------------------------------*/
FoamFile
{
    version     2.0;
    format      ascii;
    class       surfaceScalarField;
    location    "0.07";
    object      phi;
}
// * * * * * * * * * * * * * * * * * * * * * * * * * * * * * * * * * * * * * //

dimensions      [0 3 -1 0 0 0 0];

internalField   nonuniform List<scalar> 
34680
(
2.40724e-05
9.27606e-07
2.16932e-05
2.37916e-06
1.8821e-05
2.87221e-06
1.60434e-05
2.77764e-06
1.36239e-05
2.41946e-06
1.16555e-05
1.96841e-06
1.0154e-05
1.50152e-06
9.05612e-06
1.09786e-06
8.27663e-06
7.79492e-07
7.73494e-06
5.41687e-07
7.36585e-06
3.69083e-07
7.10548e-06
2.60372e-07
6.91189e-06
1.93594e-07
6.76671e-06
1.4518e-07
6.65743e-06
1.09274e-07
6.54811e-06
1.0932e-07
6.4612e-06
8.69139e-08
6.39258e-06
6.8618e-08
6.31439e-06
7.81909e-08
6.24654e-06
6.78485e-08
6.19687e-06
4.96685e-08
6.13447e-06
6.24092e-08
6.07966e-06
5.48044e-08
6.03766e-06
4.20053e-08
5.99027e-06
4.73846e-08
5.94381e-06
4.64651e-08
5.91189e-06
3.19175e-08
5.87266e-06
3.92259e-08
5.84113e-06
3.15342e-08
5.81462e-06
2.65033e-08
5.79373e-06
2.08988e-08
5.76484e-06
2.88822e-08
5.75541e-06
9.43322e-09
5.72793e-06
2.74837e-08
5.70623e-06
2.16923e-08
5.66312e-06
4.31189e-08
5.60293e-06
6.01841e-08
5.48633e-06
1.16601e-07
5.22032e-06
2.66014e-07
2.11928e-07
5.00839e-06
2.52155e-05
7.12109e-07
2.55497e-05
2.04497e-06
2.55674e-05
2.85448e-06
2.52349e-05
3.11012e-06
2.46346e-05
3.01984e-06
2.38765e-05
2.72646e-06
2.30676e-05
2.31046e-06
2.228e-05
1.88544e-06
2.15442e-05
1.51532e-06
2.08693e-05
1.21656e-06
2.02743e-05
9.64083e-07
1.97347e-05
7.99926e-07
1.92406e-05
6.87684e-07
1.88104e-05
5.75434e-07
1.84237e-05
4.95927e-07
1.8057e-05
4.76077e-07
1.77462e-05
3.97711e-07
1.74658e-05
3.48954e-07
1.71962e-05
3.47804e-07
1.69669e-05
2.97208e-07
1.67619e-05
2.54601e-07
1.65602e-05
2.64092e-07
1.63885e-05
2.26576e-07
1.62306e-05
1.99889e-07
1.60825e-05
1.95527e-07
1.59446e-05
1.84341e-07
1.58299e-05
1.46606e-07
1.57065e-05
1.62585e-07
1.56134e-05
1.24686e-07
1.55114e-05
1.28436e-07
1.54392e-05
9.31127e-08
1.53465e-05
1.21617e-07
1.53027e-05
5.3205e-08
1.52102e-05
1.20043e-07
1.51802e-05
5.16295e-08
1.50509e-05
1.72431e-07
1.50149e-05
9.62216e-08
1.484e-05
2.91443e-07
1.48858e-05
2.20234e-07
4.31791e-07
1.46659e-05
2.51634e-05
5.48669e-07
2.56278e-05
1.58059e-06
2.61377e-05
2.34456e-06
2.65642e-05
2.68367e-06
2.6881e-05
2.70305e-06
2.70614e-05
2.54607e-06
2.71247e-05
2.24711e-06
2.71002e-05
1.91001e-06
2.70081e-05
1.6074e-06
2.68663e-05
1.35832e-06
2.67011e-05
1.12927e-06
2.6528e-05
9.73096e-07
2.63151e-05
9.00589e-07
2.61149e-05
7.75557e-07
2.59098e-05
7.01098e-07
2.56792e-05
7.06615e-07
2.54739e-05
6.03052e-07
2.52801e-05
5.4272e-07
2.50621e-05
5.65818e-07
2.48856e-05
4.73753e-07
2.47011e-05
4.39057e-07
2.45146e-05
4.50633e-07
2.43401e-05
4.01015e-07
2.41876e-05
3.52413e-07
2.40074e-05
3.75763e-07
2.38747e-05
3.1702e-07
2.37187e-05
3.02592e-07
2.35921e-05
2.8918e-07
2.34448e-05
2.72022e-07
2.33537e-05
2.19505e-07
2.32045e-05
2.42295e-07
2.31334e-05
1.9275e-07
2.30036e-05
1.82947e-07
2.29542e-05
1.69472e-07
2.28287e-05
1.77186e-07
2.28209e-05
1.80207e-07
2.267e-05
2.4708e-07
2.26558e-05
3.0568e-07
2.25485e-05
3.27504e-07
1.12645e-07
2.28677e-05
2.51256e-05
4.23118e-07
2.55071e-05
1.199e-06
2.59708e-05
1.88087e-06
2.6426e-05
2.22847e-06
2.68783e-05
2.25078e-06
2.72533e-05
2.17111e-06
2.75711e-05
1.92923e-06
2.78152e-05
1.66597e-06
2.80106e-05
1.41198e-06
2.8148e-05
1.22088e-06
2.82656e-05
1.01166e-06
2.83444e-05
8.94319e-07
2.84171e-05
8.27938e-07
2.84572e-05
7.35409e-07
2.85017e-05
6.56633e-07
2.84982e-05
7.10099e-07
2.85068e-05
5.9441e-07
2.84929e-05
5.56707e-07
2.84806e-05
5.78098e-07
2.84655e-05
4.88842e-07
2.84664e-05
4.38179e-07
2.84331e-05
4.83921e-07
2.84238e-05
4.10259e-07
2.83881e-05
3.88108e-07
2.8355e-05
4.08897e-07
2.83145e-05
3.57491e-07
2.82877e-05
3.29464e-07
2.82482e-05
3.28657e-07
2.82187e-05
3.01474e-07
2.81961e-05
2.42092e-07
2.81543e-05
2.84104e-07
2.81292e-05
2.17863e-07
2.80841e-05
2.28062e-07
2.80593e-05
1.94316e-07
2.79773e-05
2.59121e-07
2.80304e-05
1.27102e-07
2.81012e-05
1.76359e-07
2.84187e-05
-1.19119e-08
2.8844e-05
-9.77116e-08
-3.09905e-07
2.92665e-05
2.51199e-05
3.03188e-07
2.53417e-05
9.77205e-07
2.58214e-05
1.40125e-06
2.62183e-05
1.83149e-06
2.66835e-05
1.78558e-06
2.70146e-05
1.84002e-06
2.74031e-05
1.5407e-06
2.76099e-05
1.45919e-06
2.79104e-05
1.1115e-06
2.80527e-05
1.0786e-06
2.82781e-05
7.86222e-07
2.83635e-05
8.0892e-07
2.85658e-05
6.25633e-07
2.8621e-05
6.80244e-07
2.8807e-05
4.70605e-07
2.88308e-05
6.86291e-07
2.89964e-05
4.28849e-07
2.89862e-05
5.66897e-07
2.91407e-05
4.23622e-07
2.91279e-05
5.01658e-07
2.928e-05
2.8605e-07
2.9266e-05
4.97953e-07
2.94299e-05
2.4633e-07
2.93965e-05
4.21469e-07
2.95542e-05
2.51179e-07
2.94999e-05
4.11833e-07
2.96507e-05
1.7862e-07
2.95907e-05
3.88742e-07
2.97599e-05
1.32222e-07
2.96945e-05
3.07555e-07
2.98916e-05
8.69468e-08
2.98052e-05
3.04321e-07
3.00144e-05
1.87755e-08
2.99296e-05
2.79123e-07
3.01816e-05
7.17577e-09
2.99992e-05
3.09433e-07
3.01493e-05
2.62833e-08
2.94871e-05
6.50339e-07
2.89095e-05
4.79907e-07
6.74037e-07
2.79255e-05
2.50895e-05
2.13686e-07
2.52927e-05
7.74033e-07
2.56719e-05
1.02202e-06
2.60701e-05
1.43329e-06
2.64823e-05
1.37341e-06
2.68465e-05
1.47576e-06
2.71711e-05
1.21618e-06
2.74498e-05
1.18041e-06
2.76725e-05
8.88808e-07
2.78728e-05
8.78346e-07
2.80458e-05
6.13171e-07
2.81996e-05
6.55171e-07
2.83268e-05
4.98444e-07
2.84704e-05
5.36598e-07
2.85691e-05
3.71941e-07
2.87107e-05
5.44652e-07
2.87977e-05
3.41863e-07
2.89075e-05
4.57115e-07
2.89838e-05
3.47334e-07
2.90971e-05
3.88342e-07
2.91487e-05
2.34459e-07
2.92678e-05
3.78865e-07
2.93159e-05
1.98184e-07
2.94148e-05
3.22581e-07
2.94718e-05
1.94211e-07
2.95776e-05
3.05997e-07
2.96137e-05
1.4253e-07
2.97253e-05
2.77169e-07
2.97506e-05
1.06909e-07
2.98585e-05
1.99598e-07
2.9909e-05
3.64815e-08
3.0042e-05
1.71337e-07
3.00864e-05
-2.5664e-08
3.02138e-05
1.51757e-07
3.02394e-05
-1.84073e-08
3.04217e-05
1.27134e-07
3.05516e-05
-1.03609e-07
3.10962e-05
1.05733e-07
3.1657e-05
-8.09501e-08
4.74063e-08
3.22837e-05
2.50513e-05
1.62387e-07
2.52909e-05
5.344e-07
2.55514e-05
7.61558e-07
2.59625e-05
1.02215e-06
2.63139e-05
1.02208e-06
2.6709e-05
1.08062e-06
2.69867e-05
9.38461e-07
2.73067e-05
8.60419e-07
2.74885e-05
7.06985e-07
2.77413e-05
6.25542e-07
2.78702e-05
4.84268e-07
2.80553e-05
4.70103e-07
2.81528e-05
4.00988e-07
2.83269e-05
3.62431e-07
2.83904e-05
3.0851e-07
2.85694e-05
3.65621e-07
2.86187e-05
2.92543e-07
2.8764e-05
3.11816e-07
2.88104e-05
3.00942e-07
2.8959e-05
2.39695e-07
2.89818e-05
2.1171e-07
2.91379e-05
2.22753e-07
2.91465e-05
1.8962e-07
2.92746e-05
1.94423e-07
2.92973e-05
1.71554e-07
2.94418e-05
1.61468e-07
2.94512e-05
1.33125e-07
2.96063e-05
1.22107e-07
2.95969e-05
1.16298e-07
2.97336e-05
6.29051e-08
2.97342e-05
3.58883e-08
2.98974e-05
8.15178e-09
2.99066e-05
-3.4883e-08
3.01298e-05
-7.14406e-08
3.01741e-05
-6.2716e-08
3.04242e-05
-1.22955e-07
3.05032e-05
-1.82626e-07
3.0852e-05
-2.43091e-07
3.09809e-05
-2.09821e-07
-4.03998e-07
3.14323e-05
2.50417e-05
1.20735e-07
2.52362e-05
3.39834e-07
2.55045e-05
4.93231e-07
2.58744e-05
6.52337e-07
2.62198e-05
6.76677e-07
2.65895e-05
7.10917e-07
2.68878e-05
6.40168e-07
2.71868e-05
5.614e-07
2.74148e-05
4.78966e-07
2.76107e-05
4.2969e-07
2.77791e-05
3.1586e-07
2.7926e-05
3.23146e-07
2.80632e-05
2.63775e-07
2.8191e-05
2.34645e-07
2.82974e-05
2.02145e-07
2.84166e-05
2.46447e-07
2.8538e-05
1.71065e-07
2.86199e-05
2.29919e-07
2.87483e-05
1.72592e-07
2.88168e-05
1.71153e-07
2.89169e-05
1.11631e-07
2.89907e-05
1.48911e-07
2.90815e-05
9.88748e-08
2.91232e-05
1.5275e-07
2.92295e-05
6.52646e-08
2.92735e-05
1.17381e-07
2.93728e-05
3.38207e-08
2.94345e-05
6.04144e-08
2.95323e-05
1.85748e-08
2.95677e-05
2.7471e-08
2.96853e-05
-8.17252e-08
2.9726e-05
-3.25604e-08
2.98588e-05
-1.67678e-07
2.99603e-05
-1.72944e-07
3.01221e-05
-2.24528e-07
3.02525e-05
-2.53351e-07
3.04629e-05
-3.92963e-07
3.06863e-05
-4.66531e-07
3.0954e-05
-4.77482e-07
-6.54054e-07
3.1204e-05
2.50166e-05
1.04092e-07
2.52535e-05
1.02944e-07
2.54549e-05
2.91827e-07
2.58302e-05
2.77066e-07
2.61317e-05
3.75191e-07
2.65215e-05
3.21079e-07
2.67954e-05
3.66288e-07
2.71259e-05
2.30867e-07
2.73089e-05
2.96025e-07
2.75735e-05
1.65049e-07
2.7689e-05
2.00425e-07
2.78816e-05
1.30457e-07
2.79698e-05
1.75614e-07
2.81445e-05
5.99772e-08
2.81953e-05
1.51317e-07
2.83787e-05
6.30677e-08
2.84308e-05
1.18923e-07
2.85861e-05
7.46186e-08
2.86365e-05
1.22225e-07
2.87794e-05
2.82104e-08
2.87992e-05
9.19028e-08
2.8953e-05
-4.94606e-09
2.89637e-05
8.82135e-08
2.90984e-05
1.79862e-08
2.9119e-05
4.47447e-08
2.92443e-05
-7.96869e-09
2.9252e-05
2.61084e-08
2.94007e-05
-8.82739e-08
2.94065e-05
1.27539e-08
2.95384e-05
-1.04401e-07
2.95673e-05
-1.10566e-07
2.96934e-05
-1.58709e-07
2.97229e-05
-1.97197e-07
2.98966e-05
-3.46655e-07
2.9992e-05
-3.19914e-07
3.01916e-05
-4.52943e-07
3.0367e-05
-5.68367e-07
3.05965e-05
-6.96034e-07
3.0908e-05
-7.88977e-07
-9.4666e-07
3.12006e-05
2.50208e-05
8.32803e-08
2.52298e-05
-1.0602e-07
2.54598e-05
6.1798e-08
2.58021e-05
-6.52756e-08
2.61102e-05
6.71797e-08
2.64785e-05
-4.72699e-08
2.67791e-05
6.56801e-08
2.70824e-05
-7.24474e-08
2.73085e-05
6.99235e-08
2.75148e-05
-4.12381e-08
2.76759e-05
3.93862e-08
2.78253e-05
-1.89825e-08
2.79584e-05
4.24837e-08
2.8085e-05
-6.65828e-08
2.81856e-05
5.07198e-08
2.83138e-05
-6.51397e-08
2.84244e-05
8.34041e-09
2.85265e-05
-2.75291e-08
2.86437e-05
5.09234e-09
2.87236e-05
-5.16994e-08
2.88059e-05
9.52782e-09
2.88896e-05
-8.85821e-08
2.89624e-05
1.53737e-08
2.90318e-05
-5.13689e-08
2.91203e-05
-4.37669e-08
2.91712e-05
-5.88909e-08
2.9258e-05
-6.06562e-08
2.93256e-05
-1.55933e-07
2.94017e-05
-6.33371e-08
2.94658e-05
-1.68476e-07
2.95628e-05
-2.07553e-07
2.96085e-05
-2.04387e-07
2.97078e-05
-2.96553e-07
2.981e-05
-4.48823e-07
2.99547e-05
-4.64623e-07
3.01077e-05
-6.05928e-07
3.03259e-05
-7.86573e-07
3.05574e-05
-9.27534e-07
3.08682e-05
-1.09979e-06
-1.11789e-06
3.10394e-05
2.50076e-05
7.57061e-08
2.52742e-05
-3.72643e-07
2.5429e-05
-9.30346e-08
2.582e-05
-4.56282e-07
2.60613e-05
-1.74126e-07
2.65066e-05
-4.92535e-07
2.67287e-05
-1.56411e-07
2.71125e-05
-4.56236e-07
2.72479e-05
-6.54674e-08
2.75698e-05
-3.63147e-07
2.76357e-05
-2.65298e-08
2.78941e-05
-2.77424e-07
2.79233e-05
1.32944e-08
2.81579e-05
-3.01113e-07
2.81495e-05
5.90607e-08
2.8392e-05
-3.07653e-07
2.83689e-05
3.14659e-08
2.85882e-05
-2.46837e-07
2.8569e-05
2.42637e-08
2.87776e-05
-2.60204e-07
2.87298e-05
5.72795e-08
2.89495e-05
-3.08311e-07
2.88893e-05
7.56245e-08
2.91098e-05
-2.71917e-07
2.90478e-05
1.82813e-08
2.92529e-05
-2.64017e-07
2.91915e-05
7.94377e-10
2.93966e-05
-3.61125e-07
2.93233e-05
9.98419e-09
2.95472e-05
-3.92397e-07
2.94669e-05
-1.27225e-07
2.96804e-05
-4.17819e-07
2.95972e-05
-2.13366e-07
2.9832e-05
-6.83679e-07
2.97683e-05
-4.00916e-07
3.00928e-05
-9.30445e-07
3.02095e-05
-9.03223e-07
3.06395e-05
-1.3576e-06
3.08272e-05
-1.28741e-06
-1.39482e-06
3.11041e-05
2.50471e-05
2.86233e-08
2.52685e-05
-5.9405e-07
2.54643e-05
-2.88852e-07
2.58282e-05
-8.20136e-07
2.61397e-05
-4.85685e-07
2.65348e-05
-8.87649e-07
2.68111e-05
-4.32643e-07
2.71491e-05
-7.94265e-07
2.73183e-05
-2.34641e-07
2.75942e-05
-6.39068e-07
2.76838e-05
-1.16145e-07
2.79187e-05
-5.12296e-07
2.79746e-05
-4.26008e-08
2.81872e-05
-5.13776e-07
2.82069e-05
3.93956e-08
2.8427e-05
-5.27765e-07
2.84229e-05
3.55336e-08
2.86255e-05
-4.494e-07
2.86251e-05
2.46991e-08
2.88117e-05
-4.46819e-07
2.87911e-05
7.78445e-08
2.89794e-05
-4.96577e-07
2.89475e-05
1.07545e-07
2.91447e-05
-4.69128e-07
2.90961e-05
6.68488e-08
2.92947e-05
-4.62618e-07
2.92425e-05
5.30153e-08
2.9427e-05
-5.45687e-07
2.93751e-05
6.19689e-08
2.95849e-05
-6.02238e-07
2.94993e-05
-4.15769e-08
2.97181e-05
-6.36635e-07
2.96468e-05
-1.42138e-07
2.98322e-05
-8.69017e-07
2.97479e-05
-3.16626e-07
2.99909e-05
-1.17344e-06
2.99417e-05
-8.54027e-07
3.06409e-05
-2.0568e-06
3.1268e-05
-1.91454e-06
-2.08603e-06
3.19592e-05
2.51378e-05
-1.09226e-07
2.51213e-05
-5.77516e-07
2.5567e-05
-7.34563e-07
2.58005e-05
-1.05363e-06
2.6309e-05
-9.94185e-07
2.65422e-05
-1.12079e-06
2.69947e-05
-8.85148e-07
2.71213e-05
-9.20912e-07
2.75248e-05
-6.38158e-07
2.75811e-05
-6.95378e-07
2.79106e-05
-4.45614e-07
2.79084e-05
-5.10091e-07
2.8219e-05
-3.53174e-07
2.81641e-05
-4.58853e-07
2.84589e-05
-2.55483e-07
2.83869e-05
-4.55771e-07
2.86576e-05
-2.35149e-07
2.85725e-05
-3.64314e-07
2.885e-05
-2.52808e-07
2.87503e-05
-3.47078e-07
2.90282e-05
-2.00003e-07
2.89104e-05
-3.78799e-07
2.91952e-05
-1.77309e-07
2.90689e-05
-3.42834e-07
2.93407e-05
-2.04874e-07
2.92203e-05
-3.4222e-07
2.94879e-05
-2.14626e-07
2.93381e-05
-3.95923e-07
2.96435e-05
-2.43362e-07
2.94758e-05
-4.34555e-07
2.97538e-05
-3.19564e-07
2.96247e-05
-5.07577e-07
2.98855e-05
-4.02907e-07
2.97035e-05
-6.87026e-07
3.0021e-05
-6.34168e-07
2.98256e-05
-9.7801e-07
3.00391e-05
-1.06749e-06
2.94217e-05
-1.43945e-06
2.88785e-05
-1.37132e-06
-1.58643e-06
2.83789e-05
2.51229e-05
-2.32087e-07
2.52139e-05
-6.68601e-07
2.55957e-05
-1.1163e-06
2.59128e-05
-1.3707e-06
2.63801e-05
-1.46152e-06
2.66653e-05
-1.40596e-06
2.70808e-05
-1.30071e-06
2.72556e-05
-1.09568e-06
2.75974e-05
-9.8e-07
2.76962e-05
-7.94185e-07
2.79454e-05
-6.94784e-07
2.80181e-05
-5.8275e-07
2.82567e-05
-5.91797e-07
2.82786e-05
-4.80772e-07
2.85086e-05
-4.85429e-07
2.85079e-05
-4.55143e-07
2.87079e-05
-4.35082e-07
2.87039e-05
-3.60372e-07
2.88964e-05
-4.45315e-07
2.8886e-05
-3.36617e-07
2.90763e-05
-3.90303e-07
2.90439e-05
-3.46445e-07
2.92431e-05
-3.76537e-07
2.91981e-05
-2.97775e-07
2.93849e-05
-3.91702e-07
2.93517e-05
-3.08973e-07
2.95257e-05
-3.88691e-07
2.94775e-05
-3.47727e-07
2.96833e-05
-4.49131e-07
2.96075e-05
-3.58794e-07
2.98009e-05
-5.12956e-07
2.97539e-05
-4.60529e-07
2.99188e-05
-5.67806e-07
2.98297e-05
-5.97959e-07
2.99964e-05
-8.00853e-07
2.98046e-05
-7.8622e-07
2.97625e-05
-1.02539e-06
2.94189e-05
-1.09583e-06
2.93107e-05
-1.26311e-06
-1.35803e-06
2.90823e-05
2.51122e-05
-3.4424e-07
2.5324e-05
-8.80481e-07
2.56708e-05
-1.46308e-06
2.60668e-05
-1.76674e-06
2.6485e-05
-1.87973e-06
2.68426e-05
-1.76349e-06
2.71989e-05
-1.65707e-06
2.74496e-05
-1.34635e-06
2.76828e-05
-1.21322e-06
2.7868e-05
-9.79369e-07
2.80446e-05
-8.71401e-07
2.81932e-05
-7.31296e-07
2.83503e-05
-7.48885e-07
2.84566e-05
-5.87114e-07
2.85867e-05
-6.15488e-07
2.86892e-05
-5.57649e-07
2.87946e-05
-5.40475e-07
2.88955e-05
-4.61349e-07
2.89922e-05
-5.41987e-07
2.90825e-05
-4.2691e-07
2.91599e-05
-4.67733e-07
2.92431e-05
-4.29619e-07
2.93099e-05
-4.4329e-07
2.93879e-05
-3.75843e-07
2.9458e-05
-4.61785e-07
2.95328e-05
-3.8374e-07
2.95948e-05
-4.50738e-07
2.96823e-05
-4.35223e-07
2.97248e-05
-4.91658e-07
2.98068e-05
-4.40734e-07
2.98606e-05
-5.66753e-07
2.99198e-05
-5.19726e-07
2.99555e-05
-6.03497e-07
2.9993e-05
-6.35482e-07
2.99312e-05
-7.39063e-07
2.98827e-05
-7.37681e-07
2.97357e-05
-8.7843e-07
2.9548e-05
-9.08131e-07
2.93724e-05
-1.08748e-06
-1.0586e-06
2.90729e-05
2.51161e-05
-4.60376e-07
2.53935e-05
-1.15787e-06
2.58005e-05
-1.87007e-06
2.6241e-05
-2.2072e-06
2.66596e-05
-2.29837e-06
2.7037e-05
-2.14084e-06
2.73881e-05
-2.00817e-06
2.76321e-05
-1.59042e-06
2.78756e-05
-1.45668e-06
2.80741e-05
-1.1779e-06
2.82477e-05
-1.04499e-06
2.83884e-05
-8.72022e-07
2.85377e-05
-8.98157e-07
2.86289e-05
-6.78325e-07
2.87577e-05
-7.44233e-07
2.88343e-05
-6.34272e-07
2.89463e-05
-6.52527e-07
2.90069e-05
-5.21917e-07
2.91136e-05
-6.48706e-07
2.91484e-05
-4.61638e-07
2.92475e-05
-5.66854e-07
2.92696e-05
-4.51713e-07
2.93588e-05
-5.32472e-07
2.93833e-05
-4.00389e-07
2.94736e-05
-5.52042e-07
2.94748e-05
-3.85012e-07
2.95734e-05
-5.49285e-07
2.95571e-05
-4.1895e-07
2.96278e-05
-5.62362e-07
2.96135e-05
-4.26443e-07
2.96838e-05
-6.37028e-07
2.96272e-05
-4.63177e-07
2.9706e-05
-6.82237e-07
2.96161e-05
-5.45623e-07
2.96408e-05
-7.6375e-07
2.94559e-05
-5.52743e-07
2.93562e-05
-7.78765e-07
2.9036e-05
-5.87938e-07
2.87819e-05
-8.33335e-07
-6.64818e-07
2.83881e-05
2.51199e-05
-5.80236e-07
2.55077e-05
-1.54566e-06
2.59696e-05
-2.33199e-06
2.64516e-05
-2.68921e-06
2.6867e-05
-2.71376e-06
2.72615e-05
-2.53538e-06
2.75534e-05
-2.30006e-06
2.78193e-05
-1.8563e-06
2.79991e-05
-1.63648e-06
2.81694e-05
-1.34818e-06
2.82617e-05
-1.13731e-06
2.8361e-05
-9.71333e-07
2.83994e-05
-9.3653e-07
2.84571e-05
-7.36049e-07
2.84705e-05
-7.57674e-07
2.8497e-05
-6.60701e-07
2.8489e-05
-6.44535e-07
2.85041e-05
-5.37015e-07
2.8465e-05
-6.09672e-07
2.8464e-05
-4.60597e-07
2.84259e-05
-5.28729e-07
2.84006e-05
-4.26467e-07
2.83624e-05
-4.94252e-07
2.83365e-05
-3.74468e-07
2.8277e-05
-4.92583e-07
2.82397e-05
-3.47652e-07
2.8173e-05
-4.8263e-07
2.8107e-05
-3.52957e-07
2.80326e-05
-4.87995e-07
2.79566e-05
-3.50373e-07
2.78604e-05
-5.40819e-07
2.77597e-05
-3.62511e-07
2.76515e-05
-5.74028e-07
2.75086e-05
-4.02693e-07
2.73697e-05
-6.24894e-07
2.71844e-05
-3.67426e-07
2.69997e-05
-5.94034e-07
2.6624e-05
-2.12304e-07
2.61892e-05
-3.98478e-07
-1.21892e-07
2.56462e-05
2.51483e-05
-7.28565e-07
2.56257e-05
-2.02306e-06
2.6149e-05
-2.85522e-06
2.65738e-05
-3.114e-06
2.68758e-05
-3.01583e-06
2.70656e-05
-2.72518e-06
2.71072e-05
-2.34167e-06
2.71073e-05
-1.85632e-06
2.70018e-05
-1.53099e-06
2.68702e-05
-1.2166e-06
2.66988e-05
-9.65904e-07
2.65236e-05
-7.96108e-07
2.62935e-05
-7.06437e-07
2.61161e-05
-5.58681e-07
2.58833e-05
-5.24824e-07
2.56773e-05
-4.54727e-07
2.54575e-05
-4.24783e-07
2.52663e-05
-3.45777e-07
2.50294e-05
-3.7275e-07
2.48604e-05
-2.9166e-07
2.46402e-05
-3.08448e-07
2.44688e-05
-2.55119e-07
2.4261e-05
-2.86437e-07
2.41021e-05
-2.1555e-07
2.38862e-05
-2.76755e-07
2.37391e-05
-2.00555e-07
2.35229e-05
-2.66405e-07
2.33719e-05
-2.01893e-07
2.31553e-05
-2.71414e-07
2.30058e-05
-2.00935e-07
2.27657e-05
-3.00656e-07
2.26148e-05
-2.1159e-07
2.23561e-05
-3.15405e-07
2.21877e-05
-2.34295e-07
2.18908e-05
-3.27942e-07
2.17393e-05
-2.15982e-07
2.1484e-05
-3.38669e-07
2.15405e-05
-2.68869e-07
2.16151e-05
-4.73029e-07
-4.60073e-07
2.19533e-05
2.52044e-05
-9.32999e-07
2.55544e-05
-2.37307e-06
2.55734e-05
-2.87413e-06
2.52349e-05
-2.77557e-06
2.46389e-05
-2.41978e-06
2.38792e-05
-1.96545e-06
2.30536e-05
-1.51613e-06
2.2286e-05
-1.0887e-06
2.1536e-05
-7.80963e-07
2.08642e-05
-5.44864e-07
2.02692e-05
-3.709e-07
1.97263e-05
-2.53215e-07
1.92262e-05
-2.06272e-07
1.88054e-05
-1.3794e-07
1.83988e-05
-1.1824e-07
1.80479e-05
-1.03804e-07
1.77198e-05
-9.66449e-08
1.74409e-05
-6.68863e-08
1.71584e-05
-9.0294e-08
1.69312e-05
-6.44882e-08
1.66955e-05
-7.27471e-08
1.65019e-05
-6.14374e-08
1.6292e-05
-7.65591e-08
1.61282e-05
-5.17216e-08
1.59324e-05
-8.09689e-08
1.57853e-05
-5.35114e-08
1.55987e-05
-7.9777e-08
1.54576e-05
-6.07777e-08
1.52717e-05
-8.54943e-08
1.51339e-05
-6.32051e-08
1.49322e-05
-9.8928e-08
1.47924e-05
-7.17996e-08
1.45783e-05
-1.01242e-07
1.44274e-05
-8.3406e-08
1.42027e-05
-1.03293e-07
1.40727e-05
-8.59848e-08
1.38354e-05
-1.0139e-07
1.36883e-05
-1.21749e-07
1.34268e-05
-2.11473e-07
-4.0156e-07
1.33683e-05
2.4067e-05
2.16939e-05
1.88198e-05
1.60442e-05
1.36244e-05
1.1659e-05
1.01429e-05
9.05416e-06
8.27319e-06
7.72833e-06
7.35743e-06
7.10422e-06
6.89794e-06
6.76e-06
6.64176e-06
6.53796e-06
6.44131e-06
6.37443e-06
6.28413e-06
6.21965e-06
6.1469e-06
6.08546e-06
6.0089e-06
5.95718e-06
5.87621e-06
5.8227e-06
5.74292e-06
5.68215e-06
5.59665e-06
5.53345e-06
5.43452e-06
5.36272e-06
5.26148e-06
5.17807e-06
5.07478e-06
4.98879e-06
4.8874e-06
4.76565e-06
4.55418e-06
4.15262e-06
5.24439e-06
-9.85287e-08
-1.37472e-07
5.61952e-06
-1.11914e-07
-2.63215e-07
6.08336e-06
-6.46458e-08
-3.99195e-07
6.61292e-06
3.65189e-08
-5.66084e-07
7.14619e-06
1.66056e-07
-6.99318e-07
7.6385e-06
2.63704e-07
-7.56018e-07
8.13706e-06
3.62752e-07
-8.61307e-07
8.57768e-06
4.20811e-07
-8.61436e-07
9.00358e-06
4.3868e-07
-8.64585e-07
9.47281e-06
4.75496e-07
-9.4472e-07
9.93082e-06
4.70025e-07
-9.28036e-07
1.04014e-05
4.56281e-07
-9.26907e-07
1.086e-05
4.35429e-07
-8.93956e-07
1.13172e-05
3.86318e-07
-8.43549e-07
1.18054e-05
3.23073e-07
-8.11235e-07
1.22967e-05
2.62472e-07
-7.53763e-07
1.27767e-05
1.7308e-07
-6.53107e-07
1.32371e-05
4.46219e-08
-5.05064e-07
1.36471e-05
-7.28724e-08
-3.37139e-07
1.40225e-05
-2.11482e-07
-1.63889e-07
1.4351e-05
-3.53851e-07
2.53733e-08
1.4704e-05
-5.02555e-07
1.49544e-07
1.50684e-05
-6.52698e-07
2.88265e-07
1.54106e-05
-7.97152e-07
4.54999e-07
1.57437e-05
-9.76962e-07
6.43857e-07
1.60476e-05
-1.1366e-06
8.32705e-07
1.63467e-05
-1.32353e-06
1.02441e-06
1.66461e-05
-1.49793e-06
1.1985e-06
1.69401e-05
-1.66128e-06
1.36727e-06
1.72656e-05
-1.85279e-06
1.5273e-06
1.76006e-05
-2.00412e-06
1.66915e-06
1.79855e-05
-2.20078e-06
1.8159e-06
1.84327e-05
-2.38776e-06
1.94058e-06
1.89172e-05
-2.56423e-06
2.07973e-06
1.94397e-05
-2.76609e-06
2.24359e-06
1.99375e-05
-2.93226e-06
2.43443e-06
2.04166e-05
-3.1309e-06
2.65181e-06
2.08554e-05
-3.28717e-06
2.84833e-06
2.12675e-05
-3.4452e-06
3.03314e-06
2.17204e-05
-3.6601e-06
3.20718e-06
2.22003e-05
-3.8551e-06
3.37516e-06
2.27013e-05
-4.05581e-06
3.55487e-06
2.32051e-05
-4.24344e-06
3.73961e-06
2.36522e-05
-4.39107e-06
3.94399e-06
2.40051e-05
-4.49256e-06
4.13961e-06
2.42258e-05
-4.51159e-06
4.29088e-06
2.42841e-05
-4.44831e-06
4.38999e-06
2.42007e-05
-4.31243e-06
4.39585e-06
2.40429e-05
-4.12775e-06
4.28557e-06
2.38594e-05
-3.91051e-06
4.09404e-06
2.36811e-05
-3.65587e-06
3.83419e-06
2.35651e-05
-3.38968e-06
3.5056e-06
2.354e-05
-3.13983e-06
3.16501e-06
2.35853e-05
-2.89949e-06
2.85415e-06
2.36881e-05
-2.64466e-06
2.54183e-06
2.38502e-05
-2.38009e-06
2.21798e-06
2.40524e-05
-2.09622e-06
1.89406e-06
2.42295e-05
-1.78988e-06
1.61281e-06
2.4268e-05
-1.45001e-06
1.41146e-06
2.41436e-05
-1.09622e-06
1.22067e-06
2.3977e-05
-7.73543e-07
9.40076e-07
2.38824e-05
-4.59918e-07
5.54559e-07
2.38954e-05
-1.55951e-07
1.4299e-07
2.3975e-05
1.85179e-07
-2.64788e-07
2.41127e-05
4.7943e-07
-6.17123e-07
2.43294e-05
7.08512e-07
-9.25255e-07
2.46395e-05
8.56223e-07
-1.16633e-06
2.50276e-05
9.20927e-07
-1.309e-06
2.54483e-05
9.1144e-07
-1.33221e-06
2.58283e-05
8.72003e-07
-1.252e-06
2.60918e-05
8.21181e-07
-1.08462e-06
2.61977e-05
7.46013e-07
-8.51914e-07
2.61399e-05
6.297e-07
-5.719e-07
2.59479e-05
4.60864e-07
-2.68914e-07
2.56901e-05
2.41924e-07
1.59504e-08
2.54581e-05
4.84707e-09
2.2708e-07
2.53228e-05
-2.00743e-07
3.36045e-07
2.53122e-05
-3.49247e-07
3.59922e-07
2.54383e-05
-4.40565e-07
3.14404e-07
2.56847e-05
-4.78142e-07
2.31735e-07
2.60181e-05
-4.89084e-07
1.55673e-07
2.63986e-05
-5.11128e-07
1.30648e-07
2.67869e-05
-5.50938e-07
1.62621e-07
2.71426e-05
-6.3081e-07
2.7515e-07
2.74659e-05
-7.74447e-07
4.51188e-07
2.77494e-05
-9.67143e-07
6.83572e-07
2.79801e-05
-1.21049e-06
9.79845e-07
2.81613e-05
-1.49855e-06
1.31731e-06
2.83002e-05
-1.82257e-06
1.68368e-06
2.84128e-05
-2.18095e-06
2.06837e-06
2.85024e-05
-2.56012e-06
2.47049e-06
2.85786e-05
-2.95265e-06
2.87646e-06
2.86564e-05
-3.36035e-06
3.28254e-06
2.87494e-05
-3.78238e-06
3.68936e-06
2.88724e-05
-4.2162e-06
4.09324e-06
2.90274e-05
-4.6638e-06
4.50879e-06
2.92237e-05
-5.12417e-06
4.92788e-06
2.94729e-05
-5.60351e-06
5.35435e-06
2.97591e-05
-6.08677e-06
5.80057e-06
3.00642e-05
-6.56741e-06
6.26222e-06
3.03684e-05
-7.04689e-06
6.74269e-06
3.06377e-05
-7.50133e-06
7.23207e-06
3.08405e-05
-7.92443e-06
7.72161e-06
3.0944e-05
-8.30451e-06
8.20099e-06
3.09222e-05
-8.62168e-06
8.64351e-06
3.07542e-05
-8.87148e-06
9.03948e-06
3.04224e-05
-9.04169e-06
9.37355e-06
2.99397e-05
-9.13915e-06
9.62183e-06
2.93426e-05
-9.18033e-06
9.77744e-06
2.86838e-05
-9.18565e-06
9.84437e-06
2.8045e-05
-9.19333e-06
9.83214e-06
2.7527e-05
-9.25719e-06
9.77517e-06
2.72047e-05
-9.39099e-06
9.71336e-06
2.70969e-05
-9.5924e-06
9.70022e-06
2.71738e-05
-9.84742e-06
9.77049e-06
2.73713e-05
-1.01078e-05
9.91031e-06
2.76044e-05
-1.03345e-05
1.01013e-05
2.77957e-05
-1.04858e-05
1.02945e-05
2.79032e-05
-1.05649e-05
1.04574e-05
2.79253e-05
-1.05789e-05
1.05567e-05
2.78889e-05
-1.0536e-05
1.05725e-05
2.78177e-05
-1.04527e-05
1.05238e-05
2.77441e-05
-1.03304e-05
1.0404e-05
2.76966e-05
-1.01873e-05
1.02348e-05
2.77143e-05
-1.00474e-05
1.00298e-05
2.78254e-05
-9.91406e-06
9.80295e-06
2.80483e-05
-9.78523e-06
9.5623e-06
2.83928e-05
-9.66905e-06
9.32463e-06
2.88548e-05
-9.51887e-06
9.05685e-06
2.94086e-05
-9.33519e-06
8.78141e-06
3.00246e-05
-9.07977e-06
8.46373e-06
3.06809e-05
-8.7414e-06
8.08509e-06
3.1323e-05
-8.31911e-06
7.67703e-06
3.1955e-05
-7.80773e-06
7.17573e-06
3.25116e-05
-7.18958e-06
6.63293e-06
3.30263e-05
-6.52468e-06
6.01003e-06
3.34581e-05
-5.77372e-06
5.34187e-06
3.38152e-05
-4.95719e-06
4.60009e-06
3.41045e-05
-4.12795e-06
3.83867e-06
3.43214e-05
-3.22321e-06
3.00627e-06
3.44689e-05
-2.32201e-06
2.17453e-06
3.45732e-05
-1.39683e-06
1.2926e-06
3.4626e-05
-5.08365e-07
4.55476e-07
3.45358e-05
5.4495e-07
-4.54658e-07
3.43807e-05
1.45181e-06
-1.29675e-06
3.41372e-05
2.371e-06
-2.12748e-06
3.38068e-05
3.21514e-06
-2.88473e-06
3.33901e-05
4.01407e-06
-3.59737e-06
3.29161e-05
4.73399e-06
-4.25999e-06
3.23834e-05
5.41259e-06
-4.87988e-06
3.18368e-05
5.95814e-06
-5.41158e-06
3.12465e-05
6.46844e-06
-5.87813e-06
3.06607e-05
6.87995e-06
-6.29417e-06
3.00748e-05
7.22832e-06
-6.64242e-06
2.95444e-05
7.47363e-06
-6.94322e-06
2.90153e-05
7.71053e-06
-7.18145e-06
2.85264e-05
7.84124e-06
-7.35232e-06
2.80071e-05
7.98702e-06
-7.46771e-06
2.75793e-05
8.00421e-06
-7.57642e-06
2.71148e-05
8.07692e-06
-7.61245e-06
2.66212e-05
8.00003e-06
-7.50643e-06
2.60069e-05
7.98312e-06
-7.36875e-06
2.53793e-05
7.75272e-06
-7.12512e-06
2.47015e-05
7.54323e-06
-6.86551e-06
2.39984e-05
7.12005e-06
-6.41693e-06
2.32802e-05
6.73442e-06
-6.01618e-06
2.2525e-05
6.23727e-06
-5.48209e-06
2.18645e-05
5.71788e-06
-5.05738e-06
2.12497e-05
5.14617e-06
-4.5314e-06
2.07558e-05
4.59838e-06
-4.10445e-06
2.02799e-05
4.09751e-06
-3.62161e-06
1.99139e-05
3.5736e-06
-3.20764e-06
1.96177e-05
3.09048e-06
-2.79425e-06
1.93598e-05
2.67891e-06
-2.42101e-06
1.90538e-05
2.38138e-06
-2.0754e-06
1.87261e-05
2.05834e-06
-1.73057e-06
1.84235e-05
1.68695e-06
-1.38441e-06
1.81967e-05
1.25002e-06
-1.02323e-06
1.78851e-05
9.59751e-07
-6.48129e-07
1.75547e-05
6.76497e-07
-3.46066e-07
1.70606e-05
5.23411e-07
-2.92965e-08
1.66862e-05
2.15259e-07
1.59128e-07
1.62591e-05
3.54699e-08
3.91607e-07
1.60108e-05
-1.60098e-07
4.08373e-07
1.57306e-05
-2.01974e-07
4.82221e-07
1.55328e-05
-2.10279e-07
4.08049e-07
1.5265e-05
-2.31804e-07
4.99637e-07
1.4899e-05
-1.74866e-07
5.40879e-07
1.44145e-05
-1.26388e-07
6.10894e-07
1.38228e-05
8.3241e-08
5.08418e-07
1.31629e-05
3.19368e-07
3.40532e-07
1.25513e-05
5.20702e-07
9.08839e-08
1.18469e-05
7.20066e-07
-1.56419e-08
1.13297e-05
7.50495e-07
-2.33293e-07
1.077e-05
8.67921e-07
-3.08179e-07
1.0449e-05
9.81322e-07
-6.60397e-07
1.02249e-05
1.09071e-06
-8.66609e-07
1.00882e-05
1.38162e-06
-1.24492e-06
1.00847e-05
1.49997e-06
-1.49642e-06
1.001e-05
1.7931e-06
-1.71842e-06
9.979e-06
2.01147e-06
-1.98047e-06
9.97589e-06
2.15068e-06
-2.14757e-06
9.90385e-06
2.45674e-06
-2.3847e-06
1.00755e-05
2.42666e-06
-2.59832e-06
1.01306e-05
2.5726e-06
-2.6277e-06
1.04857e-05
2.47186e-06
-2.82695e-06
1.07526e-05
2.27399e-06
-2.54087e-06
1.11824e-05
2.17367e-06
-2.60352e-06
1.15636e-05
1.79966e-06
-2.18085e-06
1.19695e-05
1.67136e-06
-2.0772e-06
1.22953e-05
1.46236e-06
-1.78823e-06
1.26552e-05
1.25699e-06
-1.61684e-06
1.28174e-05
1.32959e-06
-1.49185e-06
1.31038e-05
1.08781e-06
-1.37413e-06
1.30921e-05
1.25714e-06
-1.2455e-06
1.32342e-05
1.11836e-06
-1.26042e-06
1.31042e-05
1.1999e-06
-1.06995e-06
1.31068e-05
1.2092e-06
-1.21176e-06
1.2942e-05
1.21872e-06
-1.05397e-06
1.28989e-05
1.22465e-06
-1.18151e-06
1.27191e-05
1.26829e-06
-1.08845e-06
1.27144e-05
1.13264e-06
-1.12799e-06
1.25421e-05
1.20314e-06
-1.03081e-06
1.26393e-05
9.79243e-07
-1.07643e-06
1.25829e-05
9.43022e-07
-8.86681e-07
1.27944e-05
7.41481e-07
-9.52995e-07
1.28845e-05
6.11906e-07
-7.01946e-07
1.31614e-05
4.43388e-07
-7.20347e-07
1.32766e-05
4.30948e-07
-5.46122e-07
1.35404e-05
2.80861e-07
-5.44677e-07
1.3546e-05
4.40139e-07
-4.45717e-07
1.3711e-05
3.61917e-07
-5.26896e-07
1.35821e-05
5.47617e-07
-4.18782e-07
1.36208e-05
5.78078e-07
-6.16732e-07
1.34276e-05
7.21775e-07
-5.28593e-07
1.34329e-05
7.34694e-07
-7.39926e-07
1.32576e-05
8.52105e-07
-6.76834e-07
1.33516e-05
6.83658e-07
-7.7769e-07
1.32544e-05
7.27898e-07
-6.30734e-07
1.3467e-05
4.34389e-07
-6.46898e-07
1.34518e-05
3.99004e-07
-3.83846e-07
1.37089e-05
1.53124e-07
-4.10176e-07
1.372e-05
1.3705e-07
-1.48188e-07
1.39477e-05
-2.25572e-08
-2.0516e-07
1.38934e-05
6.96287e-08
-1.53356e-08
1.40594e-05
-7.76111e-08
-8.84176e-08
1.3909e-05
8.87286e-08
6.16804e-08
1.40006e-05
-4.77257e-08
-4.38289e-08
1.38017e-05
1.04968e-07
9.38966e-08
1.38594e-05
-4.55223e-09
-5.31429e-08
1.36568e-05
1.53525e-07
4.90839e-08
1.3744e-05
5.13102e-08
-1.38479e-07
1.35655e-05
2.48953e-07
-7.04655e-08
1.36949e-05
1.53773e-07
-2.83199e-07
1.3551e-05
3.6273e-07
-2.18795e-07
1.36968e-05
2.78017e-07
-4.23794e-07
1.35622e-05
4.74645e-07
-3.401e-07
1.37132e-05
3.66525e-07
-5.17518e-07
1.35561e-05
5.44146e-07
-3.86989e-07
1.36989e-05
4.0344e-07
-5.46326e-07
1.35248e-05
5.4222e-07
-3.68106e-07
1.36482e-05
3.81622e-07
-5.05043e-07
1.34672e-05
4.95398e-07
-3.14388e-07
1.35891e-05
3.07905e-07
-4.29761e-07
1.33976e-05
4.29951e-07
-2.38445e-07
1.35307e-05
2.28878e-07
-3.61968e-07
1.3339e-05
3.5879e-07
-1.67133e-07
1.34751e-05
1.65778e-07
-3.01904e-07
1.32893e-05
3.13743e-07
-1.27853e-07
1.34339e-05
1.09021e-07
-2.53623e-07
1.32443e-05
2.93029e-07
-1.03493e-07
1.34018e-05
7.66727e-08
-2.3414e-07
1.3213e-05
2.70014e-07
-8.12425e-08
1.3376e-05
6.28927e-08
-2.25914e-07
1.31912e-05
2.60101e-07
-7.52637e-08
1.33642e-05
4.08132e-08
-2.13818e-07
1.31776e-05
2.62212e-07
-7.56438e-08
1.33594e-05
2.7919e-08
-2.0972e-07