/*--------------------------------*- C++ -*----------------------------------*\
| =========                 |                                                 |
| \\      /  F ield         | OpenFOAM: The Open Source CFD Toolbox           |
|  \\    /   O peration     | Version:  2.4.0                                 |
|   \\  /    A nd           | Web:      www.OpenFOAM.org                      |
|    \\/     M anipulation  |                                                 |
\*---------------------------------------------------------------------------*/
FoamFile
{
    version     2.0;
    format      ascii;
    class       surfaceScalarField;
    location    "0.07";
    object      phi_0;
}
// * * * * * * * * * * * * * * * * * * * * * * * * * * * * * * * * * * * * * //

dimensions      [0 3 -1 0 0 0 0];

internalField   nonuniform List<scalar> 
34680
(
2.40724e-05
9.27571e-07
2.16932e-05
2.37926e-06
1.88209e-05
2.87228e-06
1.60435e-05
2.77737e-06
1.36239e-05
2.41963e-06
1.16554e-05
1.96853e-06
1.01542e-05
1.50118e-06
9.05603e-06
1.09817e-06
8.27632e-06
7.79708e-07
7.73518e-06
5.41139e-07
7.36617e-06
3.69007e-07
7.10515e-06
2.6102e-07
6.91166e-06
1.93494e-07
6.76734e-06
1.44314e-07
6.65718e-06
1.10161e-07
6.54741e-06
1.09768e-07
6.46201e-06
8.54016e-08
6.39261e-06
6.93964e-08
6.31366e-06
7.89557e-08
6.24726e-06
6.64008e-08
6.19712e-06
5.01348e-08
6.13374e-06
6.3382e-08
6.08009e-06
5.36535e-08
6.03804e-06
4.2052e-08
5.98989e-06
4.81415e-08
5.94414e-06
4.57534e-08
5.91229e-06
3.18475e-08
5.87257e-06
3.97216e-08
5.84161e-06
3.0959e-08
5.81528e-06
2.63339e-08
5.79389e-06
2.13869e-08
5.76562e-06
2.82698e-08
5.75654e-06
9.07692e-09
5.72889e-06
2.76503e-08
5.70785e-06
2.10409e-08
5.66557e-06
4.22805e-08
5.60583e-06
5.97475e-08
5.48899e-06
1.16831e-07
5.22312e-06
2.65872e-07
2.0366e-07
5.01946e-06
2.52155e-05
7.12108e-07
2.55494e-05
2.04533e-06
2.55674e-05
2.85431e-06
2.52354e-05
3.10937e-06
2.46346e-05
3.02039e-06
2.38763e-05
2.72681e-06
2.30677e-05
2.30976e-06
2.22799e-05
1.88598e-06
2.15436e-05
1.51599e-06
2.08696e-05
1.21517e-06
2.02749e-05
9.63665e-07
1.97341e-05
8.01879e-07
1.92405e-05
6.87071e-07
1.88112e-05
5.73629e-07
1.84229e-05
4.98477e-07
1.80565e-05
4.76109e-07
1.77472e-05
3.94702e-07
1.74654e-05
3.51264e-07
1.71958e-05
3.48499e-07
1.69677e-05
2.94488e-07
1.67617e-05
2.56184e-07
1.65598e-05
2.65315e-07
1.6389e-05
2.24427e-07
1.62306e-05
2.00406e-07
1.60823e-05
1.96472e-07
1.5945e-05
1.83038e-07
1.583e-05
1.46829e-07
1.57066e-05
1.63149e-07
1.5614e-05
1.23583e-07
1.55118e-05
1.28472e-07
1.54396e-05
9.36658e-08
1.53474e-05
1.20459e-07
1.53037e-05
5.27472e-08
1.52113e-05
1.2009e-07
1.5182e-05
5.02942e-08
1.50537e-05
1.70602e-07
1.50183e-05
9.51483e-08
1.48443e-05
2.9085e-07
1.48903e-05
2.19837e-07
4.17699e-07
1.46763e-05
2.51637e-05
5.4839e-07
2.56271e-05
1.58191e-06
2.61371e-05
2.34436e-06
2.6565e-05
2.68151e-06
2.68817e-05
2.70364e-06
2.70616e-05
2.54687e-06
2.71246e-05
2.24684e-06
2.70996e-05
1.91094e-06
2.70071e-05
1.60846e-06
2.68659e-05
1.35638e-06
2.67024e-05
1.12722e-06
2.65284e-05
9.75863e-07
2.6315e-05
9.00459e-07
2.61162e-05
7.72406e-07
2.59085e-05
7.06175e-07
2.5678e-05
7.06667e-07
2.54749e-05
5.97749e-07
2.52795e-05
5.46684e-07
2.50622e-05
5.65823e-07
2.48871e-05
4.69514e-07
2.47005e-05
4.42812e-07
2.4514e-05
4.51814e-07
2.43408e-05
3.97643e-07
2.4187e-05
3.54201e-07
2.40072e-05
3.76235e-07
2.38756e-05
3.14707e-07
2.37186e-05
3.03753e-07
2.35921e-05
2.89721e-07
2.34458e-05
2.69902e-07
2.33538e-05
2.20418e-07
2.32045e-05
2.43003e-07
2.31345e-05
1.90436e-07
2.30043e-05
1.82925e-07
2.29551e-05
1.69278e-07
2.28305e-05
1.74917e-07
2.28237e-05
1.77368e-07
2.26725e-05
2.464e-07
2.26581e-05
3.05229e-07
2.25499e-05
3.28046e-07
8.99699e-08
2.28776e-05
2.51262e-05
4.22216e-07
2.55073e-05
1.20079e-06
2.59695e-05
1.88211e-06
2.64258e-05
2.22521e-06
2.68792e-05
2.25028e-06
2.72541e-05
2.17197e-06
2.75717e-05
1.92928e-06
2.78151e-05
1.66754e-06
2.80094e-05
1.41415e-06
2.81463e-05
1.21944e-06
2.82652e-05
1.0083e-06
2.83455e-05
8.95639e-07
2.84184e-05
8.27504e-07
2.84592e-05
7.31599e-07
2.85018e-05
6.63593e-07
2.84968e-05
7.11646e-07
2.85059e-05
5.8866e-07
2.84914e-05
5.61215e-07
2.84804e-05
5.76835e-07
2.8467e-05
4.82838e-07
2.84672e-05
4.42684e-07
2.84335e-05
4.85465e-07
2.84243e-05
4.06884e-07
2.8387e-05
3.91439e-07
2.83539e-05
4.09413e-07
2.83145e-05
3.5406e-07
2.8288e-05
3.3026e-07
2.82489e-05
3.28813e-07
2.82204e-05
2.98437e-07
2.81969e-05
2.43865e-07
2.81537e-05
2.86262e-07
2.81289e-05
2.15202e-07
2.8084e-05
2.27808e-07
2.80594e-05
1.9386e-07
2.7979e-05
2.55389e-07
2.80342e-05
1.22145e-07
2.81046e-05
1.76005e-07
2.84197e-05
-9.91572e-09
2.88464e-05
-9.86468e-08
-3.3948e-07
2.92759e-05
2.512e-05
3.02185e-07
2.53426e-05
9.7817e-07
2.58212e-05
1.40351e-06
2.62175e-05
1.82898e-06
2.66833e-05
1.78443e-06
2.70148e-05
1.8405e-06
2.74039e-05
1.54021e-06
2.76107e-05
1.46069e-06
2.79102e-05
1.11462e-06
2.80516e-05
1.07811e-06
2.82768e-05
7.83092e-07
2.83631e-05
8.09279e-07
2.85667e-05
6.23901e-07
2.86224e-05
6.75944e-07
2.88085e-05
4.77485e-07
2.88313e-05
6.8884e-07
2.89953e-05
4.24659e-07
2.89848e-05
5.71747e-07
2.914e-05
4.2165e-07
2.91274e-05
4.95376e-07
2.92806e-05
2.89544e-07
2.92677e-05
4.98329e-07
2.94308e-05
2.43788e-07
2.93967e-05
4.25542e-07
2.95533e-05
2.52825e-07
2.94981e-05
4.09222e-07
2.96499e-05
1.78471e-07
2.95909e-05
3.8782e-07
2.97612e-05
1.28124e-07
2.96974e-05
3.07726e-07
2.98933e-05
9.03473e-08
2.98048e-05
3.03628e-07
3.00134e-05
1.92834e-08
2.99273e-05
2.79914e-07
3.01802e-05
2.5477e-09
3.00011e-05
3.01228e-07
3.01535e-05
2.3553e-08
2.94922e-05
6.51372e-07
2.89076e-05
4.85984e-07
6.39523e-07
2.79286e-05
2.50893e-05
2.12875e-07
2.52932e-05
7.74315e-07
2.56724e-05
1.02431e-06
2.60697e-05
1.43169e-06
2.6482e-05
1.37211e-06
2.68462e-05
1.47631e-06
2.7171e-05
1.21538e-06
2.74502e-05
1.18152e-06
2.76734e-05
8.91384e-07
2.78734e-05
8.78128e-07
2.80451e-05
6.11426e-07
2.81983e-05
6.56031e-07
2.83266e-05
4.95649e-07
2.84705e-05
5.32029e-07
2.85705e-05
3.77476e-07
2.87118e-05
5.47491e-07
2.87968e-05
3.39657e-07
2.8907e-05
4.61554e-07
2.8984e-05
3.44673e-07
2.90964e-05
3.82943e-07
2.91489e-05
2.37057e-07
2.92682e-05
3.79016e-07
2.9315e-05
1.97024e-07
2.94155e-05
3.25013e-07
2.94729e-05
1.95412e-07
2.95774e-05
3.04707e-07
2.96137e-05
1.42226e-07
2.97241e-05
2.77393e-07
2.97488e-05
1.03485e-07
2.98596e-05
1.96853e-07
2.99112e-05
3.87948e-08
3.00438e-05
1.71014e-07
3.00884e-05
-2.53255e-08
3.02136e-05
1.54716e-07
3.02359e-05
-1.97015e-08
3.04183e-05
1.18769e-07
3.05539e-05
-1.1207e-07
3.11024e-05
1.02864e-07
3.16528e-05
-6.44014e-08
9.1195e-09
3.22832e-05
2.50511e-05
1.61766e-07
2.52911e-05
5.34371e-07
2.55517e-05
7.63647e-07
2.59627e-05
1.02071e-06
2.63137e-05
1.02111e-06
2.67083e-05
1.08166e-06
2.69862e-05
9.37482e-07
2.73068e-05
8.60964e-07
2.74894e-05
7.088e-07
2.77425e-05
6.25064e-07
2.78698e-05
4.84092e-07
2.80545e-05
4.71301e-07
2.81526e-05
3.9755e-07
2.83262e-05
3.58445e-07
2.83908e-05
3.12841e-07
2.85704e-05
3.67934e-07
2.86177e-05
2.92331e-07
2.8764e-05
3.15277e-07
2.88112e-05
2.97474e-07
2.89589e-05
2.3525e-07
2.89826e-05
2.13343e-07
2.91377e-05
2.23898e-07
2.91441e-05
1.90675e-07
2.92746e-05
1.94496e-07
2.9299e-05
1.71028e-07
2.9443e-05
1.60639e-07
2.94528e-05
1.32413e-07
2.96057e-05
1.24567e-07
2.95941e-05
1.1509e-07
2.97324e-05
5.85157e-08
2.97344e-05
3.67971e-08
2.98985e-05
6.9108e-09
2.99102e-05
-3.7003e-08
3.01316e-05
-6.67512e-08
3.01725e-05
-6.05969e-08
3.04215e-05
-1.30189e-07
3.0504e-05
-1.94517e-07
3.0851e-05
-2.44148e-07
3.09859e-05
-1.99369e-07
-4.48412e-07
3.14435e-05
2.50415e-05
1.2026e-07
2.52362e-05
3.3972e-07
2.55048e-05
4.95025e-07
2.58746e-05
6.50882e-07
2.62196e-05
6.76137e-07
2.6589e-05
7.12257e-07
2.68877e-05
6.38803e-07
2.71868e-05
5.61838e-07
2.7415e-05
4.80609e-07
2.76115e-05
4.28551e-07
2.77789e-05
3.16678e-07
2.7926e-05
3.24222e-07
2.80634e-05
2.6016e-07
2.81897e-05
2.32151e-07
2.82972e-05
2.0534e-07
2.84178e-05
2.4726e-07
2.85374e-05
1.72724e-07
2.86204e-05
2.32315e-07
2.87487e-05
1.69198e-07
2.8816e-05
1.67961e-07
2.89178e-05
1.11553e-07
2.8991e-05
1.50614e-07
2.908e-05
1.01757e-07
2.91232e-05
1.51245e-07
2.92299e-05
6.4372e-08
2.92735e-05
1.17019e-07
2.93746e-05
3.13036e-08
2.94353e-05
6.39198e-08
2.95308e-05
1.95173e-08
2.95672e-05
2.2118e-08
2.96845e-05
-8.04871e-08
2.97249e-05
-3.35139e-08
2.98608e-05
-1.72906e-07
2.99625e-05
-1.68467e-07
3.01221e-05
-2.20139e-07
3.02533e-05
-2.61379e-07
3.04625e-05
-4.03732e-07
3.06809e-05
-4.62529e-07
3.09599e-05
-4.78349e-07
-7.03197e-07
3.12146e-05
2.50166e-05
1.03663e-07
2.52534e-05
1.02898e-07
2.54551e-05
2.93372e-07
2.58304e-05
2.75581e-07
2.61315e-05
3.74996e-07
2.65213e-05
3.22457e-07
2.67956e-05
3.64524e-07
2.71256e-05
2.31781e-07
2.73087e-05
2.97577e-07
2.75741e-05
1.6316e-07
2.76892e-05
2.01523e-07
2.7882e-05
1.31418e-07
2.797e-05
1.72184e-07
2.81426e-05
5.95991e-08
2.8195e-05
1.5295e-07
2.83799e-05
6.22688e-08
2.84307e-05
1.22016e-07
2.85868e-05
7.61371e-08
2.86367e-05
1.19345e-07
2.8778e-05
2.66408e-08
2.87998e-05
8.97821e-08
2.89535e-05
-3.08709e-09
2.89631e-05
9.2108e-08
2.90992e-05
1.52064e-08
2.91187e-05
4.4813e-08
2.92433e-05
-7.52814e-09
2.92533e-05
2.12871e-08
2.94015e-05
-8.42603e-08
2.94058e-05
1.52214e-08
2.95393e-05
-1.1139e-07
2.95666e-05
-1.07867e-07
2.96911e-05
-1.58009e-07
2.97238e-05
-2.05601e-07
2.98983e-05
-3.42894e-07
2.99923e-05
-3.142e-07
3.01926e-05
-4.61698e-07
3.0365e-05
-5.76136e-07
3.05962e-05
-6.93703e-07
3.09191e-05
-8.0122e-07
-9.65806e-07
3.11817e-05
2.50207e-05
8.29432e-08
2.52296e-05
-1.06011e-07
2.546e-05
6.30466e-08
2.58023e-05
-6.67599e-08
2.61098e-05
6.74613e-08
2.64786e-05
-4.63347e-08
2.67793e-05
6.38829e-08
2.7082e-05
-7.09952e-08
2.73084e-05
7.12346e-08
2.75152e-05
-4.36984e-08
2.7676e-05
4.08008e-08
2.78257e-05
-1.82833e-08
2.79588e-05
3.90847e-08
2.80833e-05
-6.49852e-08
2.81854e-05
5.08939e-08
2.83146e-05
-6.69196e-08
2.84241e-05
1.25282e-08
2.85276e-05
-2.73636e-08
2.8644e-05
2.96765e-09
2.87221e-05
-5.15085e-08
2.88063e-05
5.62878e-09
2.88897e-05
-8.65005e-08
2.89623e-05
1.94889e-08
2.90329e-05
-5.54241e-08
2.91195e-05
-4.17905e-08
2.91704e-05
-5.84304e-08
2.92589e-05
-6.7191e-08
2.93253e-05
-1.50608e-07
2.94016e-05
-6.11049e-08
2.94676e-05
-1.77406e-07
2.95618e-05
-2.02085e-07
2.96063e-05
-2.02469e-07
2.97089e-05
-3.08266e-07
2.98107e-05
-4.44684e-07
2.99539e-05
-4.57334e-07
3.01079e-05
-6.15785e-07
3.03255e-05
-7.93685e-07
3.05624e-05
-9.306e-07
3.08676e-05
-1.1064e-06
-1.09617e-06
3.09979e-05
2.50075e-05
7.54361e-08
2.52739e-05
-3.72445e-07
2.54293e-05
-9.22739e-08
2.58201e-05
-4.57601e-07
2.60611e-05
-1.73518e-07
2.65069e-05
-4.92159e-07
2.67286e-05
-1.57789e-07
2.71121e-05
-4.54534e-07
2.72481e-05
-6.47487e-08
2.75699e-05
-3.655e-07
2.76357e-05
-2.50113e-08
2.78947e-05
-2.77229e-07
2.79237e-05
9.99609e-09
2.81566e-05
-2.97795e-07
2.81494e-05
5.80267e-08
2.83924e-05
-3.0985e-07
2.83683e-05
3.65554e-08
2.85892e-05
-2.4828e-07
2.85695e-05
2.27133e-08
2.87766e-05
-2.58585e-07
2.873e-05
5.22464e-08
2.89493e-05
-3.05863e-07
2.88897e-05
7.91469e-08
2.91105e-05
-2.7629e-07
2.9047e-05
2.16988e-08
2.92531e-05
-2.64464e-07
2.91913e-05
-5.38113e-09
2.93957e-05
-3.55053e-07
2.93245e-05
1.01355e-08
2.9548e-05
-4.00896e-07
2.94657e-05
-1.19821e-07
2.96802e-05
-4.17022e-07
2.95975e-05
-2.25514e-07
2.9831e-05
-6.7816e-07
2.97681e-05
-3.94431e-07
3.00932e-05
-9.40903e-07
3.02103e-05
-9.10758e-07
3.06433e-05
-1.3636e-06
3.08168e-05
-1.2799e-06
-1.35298e-06
3.10736e-05
2.5047e-05
2.84519e-08
2.52681e-05
-5.93596e-07
2.54645e-05
-2.8864e-07
2.5828e-05
-8.21121e-07
2.61394e-05
-4.84924e-07
2.65353e-05
-8.88029e-07
2.68108e-05
-4.33252e-07
2.71489e-05
-7.92662e-07
2.73188e-05
-2.34647e-07
2.75941e-05
-6.40833e-07
2.76836e-05
-1.14448e-07
2.79194e-05
-5.1308e-07
2.79747e-05
-4.52825e-08
2.81865e-05
-5.09596e-07
2.8207e-05
3.74992e-08
2.84266e-05
-5.29481e-07
2.84223e-05
4.09367e-08
2.86266e-05
-4.52663e-07
2.86254e-05
2.39178e-08
2.88114e-05
-4.44576e-07
2.8791e-05
7.27059e-08
2.89791e-05
-4.93949e-07
2.89481e-05
1.10056e-07
2.91444e-05
-4.72543e-07
2.90959e-05
7.01904e-08
2.92953e-05
-4.63875e-07
2.9241e-05
4.89508e-08
2.9427e-05
-5.41064e-07
2.93769e-05
6.02497e-08
2.95836e-05
-6.07661e-07
2.94991e-05
-3.52253e-08
2.97198e-05
-6.37724e-07
2.96446e-05
-1.50367e-07
2.98307e-05
-8.64221e-07
2.97497e-05
-3.13508e-07
2.99909e-05
-1.18205e-06
2.99422e-05
-8.62095e-07
3.06381e-05
-2.05945e-06
3.1255e-05
-1.89678e-06
-2.08143e-06
3.19834e-05
2.51379e-05
-1.09497e-07
2.5121e-05
-5.76672e-07
2.55671e-05
-7.34742e-07
2.58002e-05
-1.05416e-06
2.63087e-05
-9.93484e-07
2.65427e-05
-1.12204e-06
2.69943e-05
-8.84798e-07
2.71213e-05
-9.1966e-07
2.75255e-05
-6.38823e-07
2.7581e-05
-6.96374e-07
2.79103e-05
-4.43789e-07
2.79092e-05
-5.11944e-07
2.82185e-05
-3.54537e-07
2.81637e-05
-4.5479e-07
2.84593e-05
-2.58104e-07
2.83861e-05
-4.56338e-07
2.86572e-05
-2.30102e-07
2.85731e-05
-3.68599e-07
2.88503e-05
-2.53308e-07
2.87509e-05
-3.45122e-07
2.90276e-05
-2.04078e-07
2.89107e-05
-3.77029e-07
2.91955e-05
-1.74758e-07
2.90678e-05
-3.44805e-07
2.93414e-05
-2.03447e-07
2.922e-05
-3.42474e-07
2.94858e-05
-2.16798e-07
2.93403e-05
-3.95564e-07
2.96439e-05
-2.43396e-07
2.9473e-05
-4.36777e-07
2.97562e-05
-3.18425e-07
2.96252e-05
-5.06671e-07
2.9881e-05
-4.06142e-07
2.97046e-05
-6.87853e-07
3.00234e-05
-6.32345e-07
2.98237e-05
-9.82345e-07
3.00375e-05
-1.07585e-06
2.9417e-05
-1.43899e-06
2.88816e-05
-1.36132e-06
-1.60415e-06
2.84043e-05
2.51231e-05
-2.32627e-07
2.52136e-05
-6.67143e-07
2.55957e-05
-1.11686e-06
2.59124e-05
-1.37081e-06
2.63799e-05
-1.46106e-06
2.66659e-05
-1.40799e-06
2.70806e-05
-1.29948e-06
2.72554e-05
-1.09447e-06
2.75983e-05
-9.81691e-07
2.76958e-05
-7.93949e-07
2.79455e-05
-6.93422e-07
2.80189e-05
-5.85343e-07
2.8256e-05
-5.91668e-07
2.82785e-05
-4.77318e-07
2.85086e-05
-4.88212e-07
2.85069e-05
-4.54562e-07
2.87081e-05
-4.31307e-07
2.8704e-05
-3.64521e-07
2.8897e-05
-4.46352e-07
2.88867e-05
-3.34826e-07
2.90755e-05
-3.92887e-07
2.90445e-05
-3.45991e-07
2.92429e-05
-3.7319e-07
2.91969e-05
-2.98734e-07
2.9386e-05
-3.92582e-07
2.93509e-05
-3.07378e-07
2.95245e-05
-3.90413e-07
2.94799e-05
-3.50921e-07
2.96828e-05
-4.46274e-07
2.96056e-05
-3.59639e-07
2.98031e-05
-5.15947e-07
2.9753e-05
-4.56529e-07
2.99155e-05
-5.68596e-07
2.98311e-05
-6.03519e-07
2.99984e-05
-7.99604e-07
2.98034e-05
-7.87329e-07
2.97586e-05
-1.03112e-06
2.94166e-05
-1.09696e-06
2.93222e-05
-1.26688e-06
-1.3651e-06
2.90831e-05
2.51123e-05
-3.44902e-07
2.53235e-05
-8.78327e-07
2.5671e-05
-1.46437e-06
2.60668e-05
-1.76664e-06
2.64848e-05
-1.87906e-06
2.68432e-05
-1.76637e-06
2.71986e-05
-1.65496e-06
2.74492e-05
-1.34504e-06
2.76838e-05
-1.21628e-06
2.78677e-05
-9.77817e-07
2.80446e-05
-8.70344e-07
2.81939e-05
-7.34625e-07
2.83497e-05
-7.47495e-07
2.8456e-05
-5.83665e-07
2.85865e-05
-6.18635e-07
2.86888e-05
-5.56851e-07
2.87949e-05
-5.37429e-07
2.88962e-05
-4.65856e-07
2.89929e-05
-5.43019e-07
2.90823e-05
-4.24197e-07
2.91597e-05
-4.70363e-07
2.92427e-05
-4.28914e-07
2.9309e-05
-4.39565e-07
2.93884e-05
-3.78079e-07
2.94581e-05
-4.62289e-07
2.95324e-05
-3.81732e-07
2.9596e-05
-4.54011e-07
2.96818e-05
-4.36711e-07
2.97238e-05
-4.88255e-07
2.98074e-05
-4.43201e-07
2.98597e-05
-5.68267e-07
2.99188e-05
-5.15685e-07
2.99561e-05
-6.05896e-07
2.99927e-05
-6.40118e-07
2.99313e-05
-7.38153e-07
2.9882e-05
-7.38054e-07
2.97329e-05
-8.81995e-07
2.95485e-05
-9.12572e-07
2.93695e-05
-1.08791e-06
-1.05174e-06
2.90562e-05
2.5116e-05
-4.60951e-07
2.53929e-05
-1.15519e-06
2.58009e-05
-1.87236e-06
2.62412e-05
-2.20693e-06
2.66591e-05
-2.29699e-06
2.70374e-05
-2.14464e-06
2.73879e-05
-2.00548e-06
2.76318e-05
-1.58896e-06
2.78766e-05
-1.46106e-06
2.80742e-05
-1.17537e-06
2.82472e-05
-1.04336e-06
2.83887e-05
-8.76098e-07
2.8537e-05
-8.95876e-07
2.86283e-05
-6.74902e-07
2.87581e-05
-7.48438e-07
2.88347e-05
-6.33475e-07
2.8947e-05
-6.49751e-07
2.90078e-05
-5.26669e-07
2.91133e-05
-6.48458e-07
2.91477e-05
-4.58571e-07
2.92469e-05
-5.69581e-07
2.92684e-05
-4.50429e-07
2.9359e-05
-5.30212e-07
2.93843e-05
-4.03335e-07
2.94733e-05
-5.51263e-07
2.94758e-05
-3.84274e-07
2.95739e-05
-5.52147e-07
2.9555e-05
-4.17753e-07
2.96278e-05
-5.61053e-07
2.96138e-05
-4.29268e-07
2.96819e-05
-6.36344e-07
2.9628e-05
-4.61783e-07
2.97075e-05
-6.85335e-07
2.96147e-05
-5.4739e-07
2.96393e-05
-7.6271e-07
2.94549e-05
-5.53701e-07
2.93559e-05
-7.8293e-07
2.90339e-05
-5.90634e-07
2.87721e-05
-8.26104e-07
-6.649e-07
2.83853e-05
2.51195e-05
-5.80411e-07
2.55077e-05
-1.54344e-06
2.59702e-05
-2.33488e-06
2.64515e-05
-2.68821e-06
2.68667e-05
-2.71217e-06
2.72618e-05
-2.53973e-06
2.75534e-05
-2.29709e-06
2.78192e-05
-1.85481e-06
2.79994e-05
-1.64128e-06
2.8169e-05
-1.34497e-06
2.82612e-05
-1.1355e-06
2.83607e-05
-9.75565e-07
2.8399e-05
-9.34182e-07
2.84578e-05
-7.33731e-07
2.8471e-05
-7.61621e-07
2.84974e-05
-6.59859e-07
2.849e-05
-6.42365e-07
2.85034e-05
-5.40089e-07
2.84641e-05
-6.09178e-07
2.84639e-05
-4.58374e-07
2.84249e-05
-5.3053e-07
2.84006e-05
-4.26117e-07
2.83635e-05
-4.93161e-07
2.83364e-05
-3.76244e-07
2.82772e-05
-4.92075e-07
2.824e-05
-3.47058e-07
2.8172e-05
-4.84164e-07
2.81064e-05
-3.52113e-07
2.80329e-05
-4.87529e-07
2.7956e-05
-3.52385e-07
2.786e-05
-5.40395e-07
2.77601e-05
-3.6186e-07
2.7651e-05
-5.76219e-07
2.75069e-05
-4.03325e-07
2.73685e-05
-6.24318e-07
2.71836e-05
-3.68816e-07
2.69974e-05
-5.96697e-07
2.66206e-05
-2.13837e-07
2.61879e-05
-3.93426e-07
-1.19282e-07
2.56423e-05
2.5148e-05
-7.28367e-07
2.56269e-05
-2.02234e-06
2.61491e-05
-2.85711e-06
2.65736e-05
-3.1127e-06
2.68764e-05
-3.01502e-06
2.70649e-05
-2.72824e-06
2.71072e-05
-2.33938e-06
2.71077e-05
-1.8553e-06
2.70007e-05
-1.53423e-06
2.68702e-05
-1.21447e-06
2.66995e-05
-9.64821e-07
2.65227e-05
-7.98745e-07
2.62938e-05
-7.05335e-07
2.61174e-05
-5.57268e-07
2.58825e-05
-5.26734e-07
2.56774e-05
-4.54792e-07
2.54582e-05
-4.23169e-07
2.52651e-05
-3.46955e-07
2.50292e-05
-3.73296e-07
2.4861e-05
-2.90191e-07
2.46396e-05
-3.09136e-07
2.44691e-05
-2.55576e-07
2.42614e-05
-2.85526e-07
2.41015e-05
-2.16321e-07
2.38863e-05
-2.7682e-07
2.37392e-05
-1.99974e-07
2.35223e-05
-2.67294e-07
2.33718e-05
-2.01639e-07
2.31554e-05
-2.71058e-07
2.30051e-05
-2.02124e-07
2.27652e-05
-3.00511e-07
2.26146e-05
-2.11195e-07
2.23551e-05
-3.1672e-07
2.21864e-05
-2.34664e-07
2.18899e-05
-3.27777e-07
2.1738e-05
-2.16957e-07
2.14813e-05
-3.3996e-07
2.15372e-05
-2.69813e-07
2.16148e-05
-4.71024e-07
-4.60633e-07
2.19562e-05
2.52046e-05
-9.32964e-07
2.55553e-05
-2.37307e-06
2.55727e-05
-2.87451e-06
2.52351e-05
-2.77512e-06
2.46395e-05
-2.4194e-06
2.38778e-05
-1.96654e-06
2.3054e-05
-1.51559e-06
2.22867e-05
-1.08793e-06
2.15347e-05
-7.82264e-07
2.08648e-05
-5.44531e-07
2.02698e-05
-3.69832e-07
1.97255e-05
-2.54426e-07
1.92265e-05
-2.06352e-07
1.88059e-05
-1.36672e-07
1.83983e-05
-1.19126e-07
1.80479e-05
-1.04375e-07
1.77201e-05
-9.54181e-08
1.74406e-05
-6.73989e-08
1.71582e-05
-9.09414e-08
1.69315e-05
-6.35165e-08
1.66955e-05
-7.30713e-08
1.65017e-05
-6.1841e-08
1.62921e-05
-7.59434e-08
1.6128e-05
-5.21318e-08
1.59322e-05
-8.10899e-08
1.57854e-05
-5.31058e-08
1.55983e-05
-8.02578e-08
1.54574e-05
-6.0734e-08
1.52716e-05
-8.52245e-08
1.51332e-05
-6.37804e-08
1.49317e-05
-9.89272e-08
1.4792e-05
-7.15697e-08
1.45771e-05
-1.01824e-07
1.44261e-05
-8.36354e-08
1.42015e-05
-1.03212e-07
1.4071e-05
-8.64153e-08
1.38331e-05
-1.0205e-07
1.36854e-05
-1.22079e-07
1.3425e-05
-2.1066e-07
-4.02028e-07
1.33664e-05
2.4067e-05
2.1694e-05
1.88194e-05
1.60443e-05
1.36249e-05
1.16584e-05
1.01428e-05
9.05487e-06
8.2726e-06
7.72807e-06
7.35824e-06
7.10382e-06
6.89746e-06
6.76079e-06
6.64167e-06
6.53729e-06
6.44187e-06
6.37447e-06
6.28353e-06
6.22002e-06
6.14694e-06
6.0851e-06
6.00916e-06
5.95703e-06
5.87594e-06
5.82283e-06
5.74257e-06
5.68184e-06
5.59662e-06
5.53284e-06
5.43391e-06
5.36234e-06
5.26051e-06
5.17688e-06
5.07367e-06
4.98725e-06
4.8852e-06
4.76312e-06
4.55246e-06
4.15043e-06
5.25959e-06
-1.00016e-07
-1.40109e-07
5.6359e-06
-1.11369e-07
-2.64946e-07
6.09974e-06
-6.40627e-08
-3.9978e-07
6.62686e-06
3.58891e-08
-5.63004e-07
7.15376e-06
1.61798e-07
-6.88697e-07
7.64152e-06
2.56283e-07
-7.44043e-07
8.13246e-06
3.55204e-07
-8.46143e-07
8.56374e-06
4.10713e-07
-8.42e-07
8.98861e-06
4.31626e-07
-8.5649e-07
9.45804e-06
4.68727e-07
-9.38162e-07
9.91411e-06
4.62445e-07
-9.18511e-07
1.03829e-05
4.5134e-07
-9.20137e-07
1.08397e-05
4.31205e-07
-8.88045e-07
1.1301e-05
3.82366e-07
-8.43624e-07
1.17948e-05
3.22461e-07
-8.16269e-07
1.22871e-05
2.64532e-07
-7.56793e-07
1.27653e-05
1.7179e-07
-6.49987e-07
1.32206e-05
4.4906e-08
-5.00255e-07
1.36313e-05
-7.2439e-08
-3.38261e-07
1.40154e-05
-2.09913e-07
-1.74139e-07
1.43565e-05
-3.49212e-07
8.13189e-09
1.47236e-05
-4.99682e-07
1.32486e-07
1.50965e-05
-6.46044e-07
2.73155e-07
1.54456e-05
-7.95458e-07
4.4643e-07
1.57812e-05
-9.76143e-07
6.40511e-07
1.6085e-05
-1.13813e-06
8.34362e-07
1.63883e-05
-1.33192e-06
1.02859e-06
1.66877e-05
-1.5028e-06
1.20342e-06
1.69871e-05
-1.67518e-06
1.37578e-06
1.73168e-05
-1.86588e-06
1.53612e-06
1.76551e-05
-2.02123e-06
1.68291e-06
1.80489e-05
-2.22707e-06
1.83328e-06
1.84989e-05
-2.41197e-06
1.96201e-06
1.89877e-05
-2.6001e-06
2.1113e-06
1.9508e-05
-2.80277e-06
2.28244e-06
1.99982e-05
-2.97663e-06
2.48649e-06
2.04692e-05
-3.18157e-06
2.71058e-06
2.08957e-05
-3.33458e-06
2.90802e-06
2.13093e-05
-3.51023e-06
3.09666e-06
2.17675e-05
-3.73209e-06
3.27385e-06
2.22493e-05
-3.92886e-06
3.44708e-06
2.27513e-05
-4.13568e-06
3.63365e-06
2.32436e-05
-4.31919e-06
3.82691e-06
2.36654e-05
-4.45907e-06
4.03727e-06
2.39824e-05
-4.54532e-06
4.22833e-06
2.41555e-05
-4.54314e-06
4.37008e-06
2.41622e-05
-4.45818e-06
4.45145e-06
2.40397e-05
-4.30373e-06
4.42625e-06
2.38592e-05
-4.10562e-06
4.28614e-06
2.36653e-05
-3.8749e-06
4.06878e-06
2.34977e-05
-3.61315e-06
3.7807e-06
2.34161e-05
-3.35219e-06
3.43387e-06
2.34306e-05
-3.1084e-06
3.09387e-06
2.35101e-05
-2.86143e-06
2.78194e-06
2.36422e-05
-2.59188e-06
2.45974e-06
2.38251e-05
-2.31193e-06
2.12901e-06
2.40243e-05
-2.01048e-06
1.81125e-06
2.41574e-05
-1.68328e-06
1.55019e-06
2.41251e-05
-1.32582e-06
1.35814e-06
2.39601e-05
-9.70666e-07
1.13565e-06
2.38078e-05
-6.52767e-07
8.05071e-07
2.3757e-05
-3.36315e-07
3.87155e-07
2.38021e-05
-4.94905e-09
-4.01423e-08
2.39122e-05
3.143e-07
-4.24402e-07
2.40866e-05
5.88324e-07
-7.62718e-07
2.43501e-05
7.82227e-07
-1.04572e-06
2.47036e-05
8.92011e-07
-1.24556e-06
2.51145e-05
9.2398e-07
-1.33488e-06
2.55206e-05
9.01116e-07
-1.30723e-06
2.58411e-05
8.65682e-07
-1.1862e-06
2.60125e-05
8.15604e-07
-9.86929e-07
2.60148e-05
7.29621e-07
-7.3196e-07
2.58631e-05
5.93472e-07
-4.41797e-07
2.56139e-05
4.05367e-07
-1.56128e-07
2.53516e-05
1.81938e-07
8.03101e-08
2.51658e-05
-3.7536e-08
2.23427e-07
2.51094e-05
-2.01998e-07
2.58373e-07
2.51926e-05
-3.03372e-07
2.20168e-07
2.54122e-05
-3.52787e-07
1.3319e-07
2.57321e-05
-3.57161e-07
3.72674e-08
2.61115e-05
-3.59656e-07
-1.97645e-08
2.65214e-05
-3.87894e-07
-2.19774e-08
2.69192e-05
-4.41108e-07
4.3298e-08
2.72719e-05
-5.48578e-07
1.95811e-07
2.75869e-05
-7.2351e-07
4.08601e-07
2.78556e-05
-9.45902e-07
6.77187e-07
2.80694e-05
-1.21738e-06
1.00354e-06
2.82347e-05
-1.52897e-06
1.36372e-06
2.83615e-05
-1.87425e-06
1.74741e-06
2.84657e-05
-2.24961e-06
2.14545e-06
2.85493e-05
-2.64086e-06
2.5572e-06
2.86247e-05
-3.044e-06
2.9686e-06
2.87072e-05
-3.46215e-06
3.37965e-06
2.88104e-05
-3.89326e-06
3.79007e-06
2.8946e-05
-4.33557e-06
4.19993e-06
2.91158e-05
-4.79246e-06
4.62269e-06
2.93313e-05
-5.26308e-06
5.04755e-06
2.95978e-05
-5.75016e-06
5.4837e-06
2.98945e-05
-6.23722e-06
5.94047e-06
3.02045e-05
-6.7215e-06
6.41151e-06
3.05045e-05
-7.19949e-06
6.89957e-06
3.07584e-05
-7.64708e-06
7.39314e-06
3.09361e-05
-8.06117e-06
7.88342e-06
3.10061e-05
-8.42628e-06
8.35633e-06
3.09435e-05
-8.7244e-06
8.78703e-06
3.07281e-05
-8.95214e-06
9.16751e-06
3.03484e-05
-9.09929e-06
9.47898e-06
2.9826e-05
-9.17708e-06
9.69944e-06
2.92017e-05
-9.2032e-06
9.82753e-06
2.85341e-05
-9.20106e-06
9.86866e-06
2.79134e-05
-9.21614e-06
9.83687e-06
2.74386e-05
-9.29606e-06
9.77086e-06
2.71685e-05
-9.44405e-06
9.71407e-06
2.71085e-05
-9.65842e-06
9.71842e-06
2.72208e-05
-9.91786e-06
9.80561e-06
2.74345e-05
-1.01715e-05
9.95778e-06
2.76641e-05
-1.03814e-05
1.01519e-05
2.78384e-05
-1.05133e-05
1.0339e-05
2.79275e-05
-1.05779e-05
1.04887e-05
2.79382e-05
-1.05792e-05
1.05685e-05
2.78984e-05
-1.05286e-05
1.05684e-05
2.7831e-05
-1.04395e-05
1.05069e-05
2.77689e-05
-1.03129e-05
1.0375e-05
2.77413e-05
-1.01722e-05
1.01998e-05
2.77852e-05
-1.00347e-05
9.9908e-06
2.7926e-05
-9.90123e-06
9.76043e-06
2.81777e-05
-9.77321e-06
9.52153e-06
2.85517e-05
-9.65119e-06
9.27714e-06
2.90354e-05
-9.48804e-06
9.00438e-06
2.96043e-05
-9.28992e-06
8.72102e-06
3.02302e-05
-9.01182e-06
8.38596e-06
3.08836e-05
-8.65121e-06
7.99783e-06
3.15217e-05
-8.2103e-06
7.57217e-06
3.21392e-05
-7.67022e-06
7.05265e-06
3.26798e-05
-7.03884e-06
6.49825e-06
3.31815e-05
-6.35898e-06
5.8573e-06
3.3592e-05
-5.58679e-06
5.17634e-06
3.3934e-05
-4.76783e-06
4.42578e-06
3.42098e-05
-3.92726e-06
3.65151e-06
3.44075e-05
-3.01242e-06
2.81468e-06
3.45445e-05
-2.11533e-06
1.97832e-06
3.46371e-05
-1.18691e-06
1.09435e-06
3.46618e-05
-2.81807e-07
2.57119e-07
3.45513e-05
7.57612e-07
-6.47181e-07
3.43739e-05
1.65683e-06
-1.47937e-06
3.41065e-05
2.56719e-06
-2.29984e-06
3.37526e-05
3.39039e-06
-3.03641e-06
3.33173e-05
4.17344e-06
-3.73818e-06
3.28253e-05
4.88036e-06
-4.38838e-06
3.22876e-05
5.53065e-06
-4.99292e-06
3.17308e-05
6.05695e-06
-5.50012e-06
3.11364e-05
6.55303e-06
-5.95871e-06
3.05504e-05
6.9415e-06
-6.35545e-06
2.99765e-05
7.26852e-06
-6.6946e-06
2.94522e-05
7.505e-06
-6.98074e-06
2.89297e-05
7.7274e-06
-7.2049e-06
2.84309e-05
7.85062e-06
-7.35185e-06
2.79255e-05
7.98046e-06
-7.47503e-06
2.74989e-05
7.99164e-06
-7.56509e-06
2.70167e-05
8.05146e-06
-7.56927e-06
2.64822e-05
7.9651e-06
-7.43052e-06
2.58493e-05
7.91983e-06
-7.28699e-06
2.51966e-05
7.66622e-06
-7.0135e-06
2.45094e-05
7.41624e-06
-6.72905e-06
2.37854e-05
6.9751e-06
-6.25104e-06
2.30588e-05
6.57617e-06
-5.84965e-06
2.23007e-05
6.06528e-06
-5.30712e-06
2.16682e-05
5.52331e-06
-4.89082e-06
2.10692e-05
4.95832e-06
-4.35935e-06
2.05946e-05
4.42159e-06
-3.94693e-06
2.01339e-05
3.92558e-06
-3.46496e-06
1.98017e-05
3.40048e-06
-3.06822e-06
1.95171e-05
2.94539e-06
-2.6608e-06
1.92459e-05
2.57324e-06
-2.30207e-06
1.89207e-05
2.28705e-06
-1.96186e-06
1.85959e-05
1.94148e-06
-1.61661e-06
1.83156e-05
1.54808e-06
-1.26778e-06
1.80784e-05
1.13711e-06
-8.99927e-07
1.77347e-05
8.83441e-07
-5.3972e-07
1.73638e-05
6.26284e-07
-2.55428e-07
1.68598e-05
4.65416e-07
3.86105e-08
1.65076e-05
1.51648e-07
2.00565e-07
1.6109e-05
-2.78206e-10
3.98885e-07
1.58944e-05
-1.73177e-07
3.8773e-07
1.56223e-05
-1.80348e-07
4.52448e-07
1.5423e-05
-1.89206e-07
3.88536e-07
1.51167e-05
-2.01507e-07
5.07826e-07
1.47074e-05
-1.32566e-07
5.41815e-07
1.41844e-05
-5.6996e-08
5.80037e-07
1.35666e-05
1.84316e-07
4.33413e-07
1.29076e-05
4.16586e-07
2.42475e-07
1.22897e-05
6.08131e-07
9.77989e-09
1.16042e-05
7.84302e-07
-9.88364e-08
1.11142e-05
8.05279e-07
-3.15256e-07
1.05912e-05
9.39368e-07
-4.16341e-07
1.03287e-05
1.05222e-06
-7.89792e-07
1.01365e-05
1.18539e-06
-9.93146e-07
1.00381e-05
1.47212e-06
-1.37376e-06
1.00443e-05
1.5884e-06
-1.59458e-06
9.97507e-06
1.89081e-06
-1.82157e-06
9.96208e-06
2.08633e-06
-2.07334e-06
9.96786e-06
2.23185e-06
-2.23763e-06
9.93604e-06
2.5107e-06
-2.47889e-06
1.01412e-05
2.44663e-06
-2.65183e-06
1.02328e-05
2.57981e-06
-2.6714e-06
1.06291e-05
2.41411e-06
-2.81042e-06
1.09025e-05
2.22019e-06
-2.49361e-06
1.13511e-05
2.08143e-06
-2.52998e-06
1.17149e-05
1.71026e-06
-2.07408e-06
1.21067e-05
1.60416e-06
-1.99594e-06
1.24132e-05
1.38559e-06
-1.69204e-06
1.27402e-05
1.22738e-06
-1.5544e-06
1.28843e-05
1.29387e-06
-1.43797e-06
1.31374e-05
1.06971e-06
-1.32279e-06
1.30999e-05
1.25841e-06
-1.22096e-06
1.32228e-05
1.10357e-06
-1.22645e-06
1.30692e-05
1.21493e-06
-1.06131e-06
1.30701e-05
1.20804e-06
-1.20897e-06
1.2898e-05
1.22024e-06
-1.0481e-06
1.28553e-05
1.2291e-06
-1.18644e-06
1.2683e-05
1.24929e-06
-1.07696e-06
1.2682e-05
1.11736e-06
-1.11635e-06
1.25289e-05
1.17342e-06
-1.02038e-06
1.26479e-05
9.30301e-07
-1.04924e-06
1.26123e-05
8.99835e-07
-8.64265e-07
1.28513e-05
6.80521e-07
-9.195e-07
1.29518e-05
5.61382e-07
-6.61899e-07
1.32353e-05
4.10818e-07
-6.94354e-07
1.33475e-05
4.03978e-07
-5.1616e-07
1.35937e-05
2.83014e-07
-5.29163e-07
1.35819e-05
4.53574e-07
-4.41782e-07
1.37242e-05
3.79376e-07
-5.21751e-07
1.35731e-05
5.84246e-07
-4.33118e-07
1.36016e-05
6.05043e-07
-6.33562e-07
1.3401e-05
7.48188e-07
-5.47528e-07
1.34107e-05
7.51963e-07
-7.61728e-07
1.32499e-05
8.38405e-07
-6.776e-07
1.33574e-05
6.55872e-07
-7.63292e-07
1.32788e-05
6.80399e-07
-6.01836e-07
1.35052e-05
3.72763e-07
-5.99166e-07
1.34948e-05
3.50986e-07
-3.40609e-07
1.37561e-05
1.06948e-07
-3.68248e-07
1.37601e-05
1.08568e-07
-1.12501e-07
1.39763e-05
-3.27899e-08
-1.83428e-07
1.3911e-05
6.19493e-08
3.31862e-09
1.40603e-05
-7.4057e-08
-7.52061e-08
1.38968e-05
9.37292e-08
6.97417e-08
1.39813e-05
-4.62966e-08
-3.81895e-08
1.37768e-05
1.11935e-07
9.25381e-08
1.38347e-05
4.07543e-09
-6.19279e-08
1.36379e-05
1.62234e-07
3.45268e-08
1.37293e-05
6.81305e-08
-1.59508e-07
1.35581e-05
2.66264e-07
-9.51245e-08
1.3694e-05
1.7267e-07
-3.08565e-07
1.35518e-05
3.84282e-07
-2.42061e-07
1.37e-05
2.95489e-07
-4.43634e-07
1.35649e-05
4.89565e-07
-3.54535e-07
1.37125e-05
3.76284e-07
-5.23866e-07
1.35531e-05
5.4957e-07
-3.90166e-07
1.36936e-05
4.00344e-07
-5.40859e-07
1.35153e-05
5.37609e-07
-3.59285e-07
1.36386e-05
3.7063e-07
-4.93914e-07
1.34563e-05
4.81833e-07
-2.99563e-07
1.35773e-05
2.94343e-07
-4.15335e-07
1.3387e-05
4.15603e-07
-2.25256e-07
1.35207e-05
2.14656e-07
-3.48377e-07
1.33287e-05
3.47669e-07
-1.55696e-07
1.34665e-05
1.56123e-07
-2.93946e-07
1.32811e-05
3.037e-07
-1.18264e-07
1.34256e-05
1.039e-07
-2.48443e-07
1.32376e-05
2.86773e-07
-9.87502e-08
1.33956e-05
7.09922e-08
-2.29019e-07
1.32072e-05
2.67021e-07
-7.85837e-08
1.33714e-05
5.90118e-08
-2.23229e-07
1.31876e-05
2.55523e-07
-7.17149e-08
1.33607e-05
3.91257e-08
-2.12252e-07
1.31752e-05
2.58753e-07
-7.32359e-08
1.33581e-05
2.4284e-08
-2.07182e-07