/*--------------------------------*- C++ -*----------------------------------*\
| =========                 |                                                 |
| \\      /  F ield         | OpenFOAM: The Open Source CFD Toolbox           |
|  \\    /   O peration     | Version:  2.4.0                                 |
|   \\  /    A nd           | Web:      www.OpenFOAM.org                      |
|    \\/     M anipulation  |                                                 |
\*---------------------------------------------------------------------------*/
FoamFile
{
    version     2.0;
    format      ascii;
    class       volSymmTensorField;
    location    "0.166";
    object      UPrime2Mean;
}
// * * * * * * * * * * * * * * * * * * * * * * * * * * * * * * * * * * * * * //

dimensions      [0 2 -2 0 0 0 0];

internalField   nonuniform List<symmTensor> 
17600
(
(0.023723 -0.00257176 0 0.000387699 0 0)
(0.244255 -0.000984869 0 2.23726e-05 0 0)
(0.317252 -4.01095e-06 0 1.59709e-06 0 0)
(0.352199 -0.000254174 0 9.93316e-07 0 0)
(0.376447 -0.000192084 0 5.11448e-07 0 0)
(0.394889 -8.42139e-05 0 3.45334e-07 0 0)
(0.406959 -1.84267e-05 0 2.79945e-07 0 0)
(0.417835 -1.75924e-06 0 2.53706e-07 0 0)
(0.423781 1.52066e-05 0 3.07958e-07 0 0)
(0.43101 -4.42287e-06 0 3.6155e-07 0 0)
(0.433899 6.21335e-06 0 4.45746e-07 0 0)
(0.440568 -3.9655e-05 0 5.99228e-07 0 0)
(0.443048 -1.95732e-05 0 7.74888e-07 0 0)
(0.451069 -9.0518e-05 0 1.15431e-06 0 0)
(0.455247 -8.08745e-05 0 1.35696e-06 0 0)
(0.469296 -0.00027244 0 2.88593e-06 0 0)
(0.481941 -0.000400332 0 3.16528e-06 0 0)
(0.537995 0.000278763 0 1.52024e-05 0 0)
(0.63575 -0.0179418 0 0.000749346 0 0)
(1.17032 0.0909202 0 0.0115729 0 0)
(0.0114537 0.00514024 0 0.00404526 0 0)
(0.100015 -0.0095694 0 0.000966795 0 0)
(0.202022 -0.00540371 0 0.000147175 0 0)
(0.27184 -0.00382989 0 5.92373e-05 0 0)
(0.330424 -0.0031279 0 4.60315e-05 0 0)
(0.389283 -0.0026185 0 4.23821e-05 0 0)
(0.434208 -0.0020497 0 3.30705e-05 0 0)
(0.479126 -0.00161523 0 2.18714e-05 0 0)
(0.505067 -0.00119722 0 1.22148e-05 0 0)
(0.538348 -0.00105175 0 8.61072e-06 0 0)
(0.550944 -0.000870915 0 5.65208e-06 0 0)
(0.581773 -0.000986111 0 6.65913e-06 0 0)
(0.589299 -0.000956402 0 9.20396e-06 0 0)
(0.624038 -0.00106992 0 1.18902e-05 0 0)
(0.630939 -0.00155045 0 1.885e-05 0 0)
(0.684445 -0.00141526 0 2.85215e-05 0 0)
(0.68433 -0.00446638 0 7.83189e-05 0 0)
(0.894277 -0.00653072 0 0.000178968 0 0)
(0.821492 -0.0202139 0 0.00119857 0 0)
(2.44638 -0.26803 0 0.052517 0 0)
(0.0406943 0.0154418 0 0.00638468 0 0)
(0.0166461 -0.00612586 0 0.0027653 0 0)
(0.0706728 -0.00684943 0 0.000722755 0 0)
(0.123254 -0.00655123 0 0.000355973 0 0)
(0.1786 -0.00642065 0 0.000269341 0 0)
(0.248334 -0.00618397 0 0.000242254 0 0)
(0.307834 -0.00536257 0 0.00019814 0 0)
(0.374273 -0.00454006 0 0.000136374 0 0)
(0.413988 -0.00358017 0 8.09324e-05 0 0)
(0.469042 -0.00316487 0 5.13924e-05 0 0)
(0.488839 -0.0026591 0 2.83842e-05 0 0)
(0.542287 -0.00295611 0 3.26936e-05 0 0)
(0.551819 -0.00271299 0 3.47323e-05 0 0)
(0.611951 -0.00335636 0 5.20433e-05 0 0)
(0.617865 -0.00383287 0 7.03237e-05 0 0)
(0.700269 -0.0046759 0 0.000119115 0 0)
(0.70261 -0.0102104 0 0.000304049 0 0)
(0.919736 -0.0132669 0 0.000825262 0 0)
(0.963497 -0.0533786 0 0.00553168 0 0)
(2.04455 -0.344785 0 0.110768 0 0)
(0.0540983 0.0171538 0 0.00576794 0 0)
(0.00148001 0.00112287 0 0.00432268 0 0)
(0.00954914 -0.00253995 0 0.00159114 0 0)
(0.0231774 -0.00416581 0 0.000946152 0 0)
(0.0436647 -0.00558709 0 0.000763246 0 0)
(0.0850945 -0.0069065 0 0.000691095 0 0)
(0.127824 -0.00690785 0 0.000592001 0 0)
(0.186971 -0.00655491 0 0.000423607 0 0)
(0.223621 -0.00546126 0 0.00027017 0 0)
(0.281866 -0.00502228 0 0.000166243 0 0)
(0.301041 -0.00446992 0 9.9604e-05 0 0)
(0.362406 -0.00450793 0 8.82314e-05 0 0)
(0.369977 -0.00492185 0 0.000109454 0 0)
(0.439836 -0.00428129 0 0.000125259 0 0)
(0.444133 -0.00754083 0 0.000245443 0 0)
(0.526238 -0.00361237 0 0.000304421 0 0)
(0.552331 -0.0191985 0 0.00114334 0 0)
(0.654962 -0.00876405 0 0.00158294 0 0)
(0.91152 -0.0975945 0 0.0176847 0 0)
(1.12155 -0.157562 0 0.075061 0 0)
(0.050627 0.0138501 0 0.00403542 0 0)
(0.00525943 0.00438237 0 0.00451262 0 0)
(0.00753378 0.00245515 0 0.00198478 0 0)
(0.00789487 0.00143027 0 0.0014552 0 0)
(0.00561541 0.000106845 0 0.00137136 0 0)
(0.00942153 -0.00248214 0 0.00131764 0 0)
(0.0201575 -0.00381382 0 0.00118667 0 0)
(0.0467903 -0.00510005 0 0.000901675 0 0)
(0.0653012 -0.00463697 0 0.000601561 0 0)
(0.103734 -0.00500017 0 0.00039335 0 0)
(0.114941 -0.00433187 0 0.00022305 0 0)
(0.161223 -0.00530175 0 0.00024317 0 0)
(0.167814 -0.00464596 0 0.000198766 0 0)
(0.21784 -0.00663854 0 0.000338957 0 0)
(0.232905 -0.00511163 0 0.000357525 0 0)
(0.277241 -0.0110976 0 0.000801872 0 0)
(0.321015 -0.00651613 0 0.00113781 0 0)
(0.376468 -0.0347741 0 0.0062319 0 0)
(0.51504 -0.0386422 0 0.0102969 0 0)
(0.73569 -0.223746 0 0.190257 0 0)
(0.0478024 0.0113102 0 0.00288424 0 0)
(0.00558488 0.00384889 0 0.00401754 0 0)
(0.0122289 0.00358485 0 0.00170511 0 0)
(0.0197879 0.00424734 0 0.00139658 0 0)
(0.025521 0.00528864 0 0.00161619 0 0)
(0.018812 0.00381519 0 0.00177307 0 0)
(0.0163781 0.00267724 0 0.00174277 0 0)
(0.0122318 -4.98407e-06 0 0.0014067 0 0)
(0.0138992 -0.000505468 0 0.00105816 0 0)
(0.0219004 -0.0019875 0 0.000688513 0 0)
(0.0232326 -0.00196548 0 0.000467525 0 0)
(0.0415537 -0.00291763 0 0.000417862 0 0)
(0.041471 -0.00355169 0 0.000492846 0 0)
(0.0668245 -0.00379085 0 0.000526706 0 0)
(0.0708181 -0.00609359 0 0.00100118 0 0)
(0.09848 -0.00505768 0 0.0011013 0 0)
(0.110977 -0.0133267 0 0.00344229 0 0)
(0.157134 -0.0121831 0 0.00425787 0 0)
(0.210633 -0.0555589 0 0.0298884 0 0)
(0.37577 -0.117904 0 0.105836 0 0)
(0.0491236 0.0098096 0 0.00215398 0 0)
(0.00648011 0.00288364 0 0.00358301 0 0)
(0.0131654 0.00302203 0 0.00137471 0 0)
(0.0226088 0.00383362 0 0.00103463 0 0)
(0.0375066 0.00618153 0 0.00137784 0 0)
(0.0375286 0.00646352 0 0.00174093 0 0)
(0.0457446 0.00706384 0 0.00190321 0 0)
(0.0361414 0.00481587 0 0.00170996 0 0)
(0.0406025 0.00431565 0 0.00130016 0 0)
(0.0301632 0.00225603 0 0.00101987 0 0)
(0.03348 0.00217173 0 0.000637073 0 0)
(0.0251184 0.000714433 0 0.000778621 0 0)
(0.0272592 0.00041897 0 0.000592753 0 0)
(0.0224871 -0.000898945 0 0.00102631 0 0)
(0.0251103 -0.00138507 0 0.00105387 0 0)
(0.0249434 -0.00331971 0 0.00217981 0 0)
(0.0266561 -0.00406893 0 0.00267689 0 0)
(0.0422355 -0.0111467 0 0.0107967 0 0)
(0.0630404 -0.0211376 0 0.0175367 0 0)
(0.164799 -0.0691439 0 0.140135 0 0)
(0.0532156 0.008658 0 0.00161212 0 0)
(0.00921996 0.0022359 0 0.00318041 0 0)
(0.0135974 0.00255225 0 0.00124335 0 0)
(0.0223987 0.00303103 0 0.000791974 0 0)
(0.0367698 0.00526828 0 0.00108176 0 0)
(0.0383085 0.00601371 0 0.00149008 0 0)
(0.0528654 0.00750818 0 0.00173253 0 0)
(0.0478066 0.00610826 0 0.0015789 0 0)
(0.0624156 0.00617743 0 0.00142513 0 0)
(0.0547334 0.0044985 0 0.0010911 0 0)
(0.0677205 0.00498463 0 0.000857093 0 0)
(0.0576122 0.00364885 0 0.000879882 0 0)
(0.0666743 0.00403515 0 0.0010359 0 0)
(0.0541681 0.00254949 0 0.00116768 0 0)
(0.0598012 0.00293502 0 0.00184907 0 0)
(0.0464697 0.000546151 0 0.00225569 0 0)
(0.0473339 0.0017774 0 0.00442853 0 0)
(0.0404136 -0.00103828 0 0.00824255 0 0)
(0.0478624 -0.00502893 0 0.0282017 0 0)
(0.0989337 -0.00698838 0 0.150843 0 0)
(0.0571094 0.00761141 0 0.00120946 0 0)
(0.0102042 0.0018244 0 0.00272584 0 0)
(0.0118154 0.00218818 0 0.00119419 0 0)
(0.0204294 0.00251188 0 0.000650653 0 0)
(0.0316425 0.00431512 0 0.000862538 0 0)
(0.0333907 0.00511058 0 0.00125408 0 0)
(0.0457855 0.00652582 0 0.00152505 0 0)
(0.0431739 0.00554789 0 0.00155483 0 0)
(0.0586542 0.00563919 0 0.00118381 0 0)
(0.0555981 0.00479298 0 0.00113653 0 0)
(0.0733798 0.00474657 0 0.000824301 0 0)
(0.0688683 0.00508263 0 0.00111869 0 0)
(0.0866141 0.00412593 0 0.00101989 0 0)
(0.0793359 0.0057134 0 0.00155782 0 0)
(0.0942232 0.00363146 0 0.00187972 0 0)
(0.0830945 0.00595763 0 0.00301962 0 0)
(0.0921288 0.00433147 0 0.00427791 0 0)
(0.0802949 0.00797686 0 0.0112781 0 0)
(0.0878518 0.0125622 0 0.0294944 0 0)
(0.117558 0.0249827 0 0.11847 0 0)
(0.0557402 0.00651383 0 0.000928622 0 0)
(0.0069552 0.00161048 0 0.00231874 0 0)
(0.0078553 0.00180923 0 0.00118676 0 0)
(0.0160508 0.00210405 0 0.000572551 0 0)
(0.025267 0.00340942 0 0.000725866 0 0)
(0.028804 0.00440226 0 0.0010959 0 0)
(0.0365609 0.00543096 0 0.00134523 0 0)
(0.037917 0.00490736 0 0.00129136 0 0)
(0.0477588 0.00459171 0 0.00119759 0 0)
(0.05102 0.00404159 0 0.00110877 0 0)
(0.0618678 0.0041015 0 0.000906805 0 0)
(0.0670987 0.00428412 0 0.00105792 0 0)
(0.0781401 0.0038233 0 0.00119797 0 0)
(0.0835459 0.00504676 0 0.00156229 0 0)
(0.0920957 0.00414683 0 0.00208196 0 0)
(0.0977505 0.00613633 0 0.00304411 0 0)
(0.101105 0.00553163 0 0.0045933 0 0)
(0.10492 0.0144851 0 0.0124616 0 0)
(0.106506 0.017364 0 0.0285937 0 0)
(0.142009 0.0506405 0 0.131304 0 0)
(0.0509669 0.00531371 0 0.000717999 0 0)
(0.0035039 0.00125814 0 0.00196839 0 0)
(0.00523887 0.00129587 0 0.00116426 0 0)
(0.0126941 0.00160225 0 0.000537417 0 0)
(0.0207014 0.00240197 0 0.000646391 0 0)
(0.0262318 0.00367568 0 0.000996726 0 0)
(0.0313632 0.00427557 0 0.00121886 0 0)
(0.035461 0.00416255 0 0.00133592 0 0)
(0.0413907 0.00329516 0 0.0010353 0 0)
(0.0481052 0.00353727 0 0.00108253 0 0)
(0.0549304 0.00269048 0 0.000863058 0 0)
(0.0641637 0.00382523 0 0.00112884 0 0)
(0.0706128 0.00244855 0 0.00116789 0 0)
(0.0795837 0.00477754 0 0.00155403 0 0)
(0.0859166 0.00317009 0 0.00193927 0 0)
(0.0954385 0.00563721 0 0.00286184 0 0)
(0.0967282 0.00631006 0 0.00454529 0 0)
(0.103285 0.0135031 0 0.0114319 0 0)
(0.107345 0.022021 0 0.0311696 0 0)
(0.13914 0.0536622 0 0.114399 0 0)
(0.0492368 0.00431644 0 0.00056646 0 0)
(0.00329247 0.0006968 0 0.00163771 0 0)
(0.00549626 0.000732714 0 0.00112432 0 0)
(0.0124409 0.00112621 0 0.000471896 0 0)
(0.0199685 0.00161537 0 0.000582799 0 0)
(0.0252797 0.00283243 0 0.000903393 0 0)
(0.0294321 0.00339204 0 0.00109179 0 0)
(0.033603 0.00337621 0 0.0011188 0 0)
(0.0384813 0.0026444 0 0.00101659 0 0)
(0.0450686 0.00260822 0 0.00106642 0 0)
(0.0513519 0.00210765 0 0.000860486 0 0)
(0.059253 0.00288991 0 0.00103522 0 0)
(0.0656356 0.00205596 0 0.00112881 0 0)
(0.0737178 0.00402804 0 0.0014553 0 0)
(0.0805779 0.00264169 0 0.00168382 0 0)
(0.087043 0.00593515 0 0.00291328 0 0)
(0.0898088 0.00592742 0 0.00414539 0 0)
(0.0959798 0.0156049 0 0.0121954 0 0)
(0.102868 0.0228738 0 0.0303024 0 0)
(0.132565 0.05351 0 0.108734 0 0)
(0.049644 0.0035508 0 0.000434284 0 0)
(0.00395607 0.000303919 0 0.00133187 0 0)
(0.00516142 0.000302905 0 0.0010689 0 0)
(0.010474 0.000838962 0 0.00044881 0 0)
(0.0180537 0.00124037 0 0.000511811 0 0)
(0.0227684 0.00224594 0 0.000788664 0 0)
(0.0263358 0.00275282 0 0.000961818 0 0)
(0.0297761 0.00291401 0 0.00104721 0 0)
(0.0346406 0.00214892 0 0.000870312 0 0)
(0.0403914 0.00224185 0 0.000899017 0 0)
(0.0461444 0.00166539 0 0.000754165 0 0)
(0.0531326 0.00264412 0 0.000930298 0 0)
(0.059876 0.00194267 0 0.000966227 0 0)
(0.0673153 0.00351683 0 0.00117744 0 0)
(0.0729176 0.00275257 0 0.0014139 0 0)
(0.0787796 0.00502966 0 0.00246967 0 0)
(0.08246 0.00689393 0 0.00395897 0 0)
(0.0891301 0.0149567 0 0.0116342 0 0)
(0.0972999 0.0235642 0 0.0298887 0 0)
(0.129496 0.0559134 0 0.102975 0 0)
(0.0492414 0.00293505 0 0.000331506 0 0)
(0.00269442 0.000223105 0 0.00105182 0 0)
(0.00360909 0.000105593 0 0.000937309 0 0)
(0.0084519 0.000692052 0 0.000411203 0 0)
(0.0157075 0.00114529 0 0.000432272 0 0)
(0.0204818 0.00199012 0 0.000649594 0 0)
(0.0235031 0.00243551 0 0.000804574 0 0)
(0.0269336 0.00258829 0 0.000830343 0 0)
(0.0309975 0.00208691 0 0.000730833 0 0)
(0.0367921 0.00204872 0 0.000775108 0 0)
(0.0418379 0.00169781 0 0.000644764 0 0)
(0.0492485 0.00248148 0 0.000766349 0 0)
(0.0548432 0.00191243 0 0.000789503 0 0)
(0.0622152 0.00335968 0 0.00104287 0 0)
(0.0664437 0.0025757 0 0.00116717 0 0)
(0.0736157 0.0052913 0 0.0024149 0 0)
(0.0769924 0.00674143 0 0.00379431 0 0)
(0.0853826 0.0145197 0 0.011566 0 0)
(0.0943858 0.0242913 0 0.0294295 0 0)
(0.128931 0.0562339 0 0.0968658 0 0)
(0.0486205 0.00238267 0 0.000241458 0 0)
(0.00165714 0.000334515 0 0.000788857 0 0)
(0.00303663 0.000244737 0 0.00070618 0 0)
(0.00772469 0.000752796 0 0.000346478 0 0)
(0.0140487 0.00104239 0 0.00035412 0 0)
(0.018793 0.00185699 0 0.000515181 0 0)
(0.0213371 0.00216368 0 0.000646238 0 0)
(0.0247151 0.00231646 0 0.000706699 0 0)
(0.0280773 0.00178367 0 0.000610342 0 0)
(0.0338915 0.00181757 0 0.00062797 0 0)
(0.0387152 0.00136645 0 0.000530766 0 0)
(0.0460745 0.0021344 0 0.000642695 0 0)
(0.0508684 0.00146003 0 0.000648733 0 0)
(0.0583433 0.00273187 0 0.000864065 0 0)
(0.0623296 0.0021044 0 0.00101022 0 0)
(0.0702535 0.00475638 0 0.00221318 0 0)
(0.0735775 0.00598146 0 0.00383785 0 0)
(0.0835257 0.0142239 0 0.0114763 0 0)
(0.0935183 0.0243075 0 0.0288676 0 0)
(0.130354 0.0554452 0 0.0901374 0 0)
(0.0486752 0.00186342 0 0.000180755 0 0)
(0.00148601 0.000267721 0 0.000573296 0 0)
(0.00302945 0.000245936 0 0.000512764 0 0)
(0.0073255 0.000621106 0 0.000294092 0 0)
(0.013373 0.000714345 0 0.000324456 0 0)
(0.0175918 0.00135684 0 0.000444856 0 0)
(0.0202207 0.00167227 0 0.000567881 0 0)
(0.0231092 0.00169038 0 0.000596831 0 0)
(0.0266066 0.00124231 0 0.000578322 0 0)
(0.0315822 0.00112681 0 0.000607837 0 0)
(0.0367954 0.000824731 0 0.000532702 0 0)
(0.0432862 0.001366 0 0.000613466 0 0)
(0.0488969 0.000915198 0 0.000595442 0 0)
(0.0553546 0.0018615 0 0.000853056 0 0)
(0.0603701 0.00171569 0 0.000911047 0 0)
(0.0671861 0.00369707 0 0.00230304 0 0)
(0.0722717 0.00574249 0 0.00373554 0 0)
(0.0816555 0.0133024 0 0.0116692 0 0)
(0.0941 0.0249219 0 0.0277882 0 0)
(0.131715 0.0539347 0 0.0842489 0 0)
(0.0488167 0.00135129 0 0.000145417 0 0)
(0.00123902 2.33714e-05 0 0.000444094 0 0)
(0.00271823 -5.06791e-05 0 0.000426295 0 0)
(0.00662257 0.000235474 0 0.000312118 0 0)
(0.0127546 0.000259227 0 0.000345352 0 0)
(0.016638 0.000705359 0 0.000438404 0 0)
(0.0193785 0.000959498 0 0.000536427 0 0)
(0.0217835 0.000962935 0 0.000564427 0 0)
(0.0254906 0.000580817 0 0.00055729 0 0)
(0.0299409 0.00051709 0 0.000564755 0 0)
(0.0353991 0.000343414 0 0.000485231 0 0)
(0.0413238 0.000842411 0 0.000542274 0 0)
(0.0474009 0.000412046 0 0.000530622 0 0)
(0.0530438 0.00131226 0 0.000769371 0 0)
(0.058515 0.00116108 0 0.000880588 0 0)
(0.0647309 0.00328971 0 0.00209197 0 0)
(0.0710787 0.00520718 0 0.00382866 0 0)
(0.0803832 0.0131393 0 0.0109887 0 0)
(0.0949104 0.024316 0 0.0270861 0 0)
(0.13211 0.0552379 0 0.0763289 0 0)
(0.0487992 0.000915336 0 0.000114505 0 0)
(0.00126629 -5.27937e-05 0 0.000332884 0 0)
(0.0029605 -0.000205109 0 0.000333764 0 0)
(0.0066755 3.63655e-05 0 0.000290074 0 0)
(0.0124467 8.94384e-05 0 0.000313974 0 0)
(0.016347 0.000386642 0 0.000385837 0 0)
(0.0188224 0.000512484 0 0.000467315 0 0)
(0.021369 0.000538829 0 0.000488939 0 0)
(0.0247367 0.000276694 0 0.000480024 0 0)
(0.0294442 0.000303681 0 0.000474451 0 0)
(0.0344551 0.000169312 0 0.000389896 0 0)
(0.0404376 0.000610409 0 0.000448973 0 0)
(0.0457716 0.000223956 0 0.000430939 0 0)
(0.05177 0.000919514 0 0.000688954 0 0)
(0.056628 0.000880483 0 0.000858268 0 0)
(0.0636451 0.00297309 0 0.00188066 0 0)
(0.0698437 0.00496321 0 0.0039923 0 0)
(0.0805557 0.012886 0 0.0101654 0 0)
(0.0961805 0.0237463 0 0.027171 0 0)
(0.135679 0.0555449 0 0.068561 0 0)
(0.0487034 0.000561939 0 8.90172e-05 0 0)
(0.00135 -1.26983e-05 0 0.000222356 0 0)
(0.00314558 -8.60919e-05 0 0.000217425 0 0)
(0.00676454 8.33655e-05 0 0.00020809 0 0)
(0.0120812 0.000134046 0 0.000235686 0 0)
(0.0160769 0.000272372 0 0.000281395 0 0)
(0.0183988 0.000405499 0 0.000344837 0 0)
(0.0211285 0.000355329 0 0.000343361 0 0)
(0.0242738 0.000283722 0 0.000351017 0 0)
(0.0290728 0.000204691 0 0.000340181 0 0)
(0.0335659 0.000157486 0 0.000293772 0 0)
(0.0394962 0.000335577 0 0.000360045 0 0)
(0.0443712 0.000119012 0 0.000345673 0 0)
(0.050882 0.000503019 0 0.000607215 0 0)
(0.0554182 0.000768302 0 0.000748674 0 0)
(0.0630676 0.00251394 0 0.00180227 0 0)
(0.0691015 0.00494791 0 0.00375986 0 0)
(0.0814481 0.0122005 0 0.0100225 0 0)
(0.0979321 0.0238893 0 0.0254477 0 0)
(0.139077 0.0525742 0 0.0625783 0 0)
(0.0487369 0.000162196 0 7.30135e-05 0 0)
(0.00124532 -1.79659e-05 0 0.000168775 0 0)
(0.00291333 -4.45656e-06 0 0.000149103 0 0)
(0.00640462 8.31976e-05 0 0.0001597 0 0)
(0.0117789 5.14576e-05 0 0.0001928 0 0)
(0.0156457 0.000144114 0 0.000220634 0 0)
(0.0179849 0.000167092 0 0.000257213 0 0)
(0.0204805 0.000234785 0 0.000255739 0 0)
(0.0238091 0.000100193 0 0.000264456 0 0)
(0.0283288 0.000135268 0 0.000269224 0 0)
(0.0329904 -0.000144345 0 0.000247941 0 0)
(0.0385649 0.000199808 0 0.000309539 0 0)
(0.0438995 -0.000299721 0 0.000302118 0 0)
(0.0501171 0.000441656 0 0.000542225 0 0)
(0.0551876 0.000256675 0 0.000672877 0 0)
(0.0624294 0.00250814 0 0.00178056 0 0)
(0.0694583 0.0043076 0 0.00338495 0 0)
(0.0822325 0.0121032 0 0.0102362 0 0)
(0.100619 0.0232998 0 0.0226804 0 0)
(0.142634 0.0489812 0 0.0612111 0 0)
(0.0487201 -0.000186507 0 6.82792e-05 0 0)
(0.000958175 -7.01406e-05 0 0.000163222 0 0)
(0.0025449 -5.37648e-05 0 0.000144759 0 0)
(0.00604711 -6.6866e-05 0 0.000158506 0 0)
(0.0115725 -6.68485e-05 0 0.000182867 0 0)
(0.0153001 -0.000171033 0 0.000203822 0 0)
(0.0176381 -0.000139164 0 0.000232233 0 0)
(0.0198502 -0.000198879 0 0.000239155 0 0)
(0.0233461 -0.00014385 0 0.000244989 0 0)
(0.0277442 -0.000283131 0 0.000259887 0 0)
(0.0328347 -0.000321273 0 0.000221453 0 0)
(0.0382014 -0.00028245 0 0.000298176 0 0)
(0.0439036 -0.000374933 0 0.000252977 0 0)
(0.0496796 -0.000176106 0 0.000521122 0 0)
(0.0553647 0.000268061 0 0.000665673 0 0)
(0.0624065 0.00164281 0 0.00166276 0 0)
(0.0706713 0.00441187 0 0.0034994 0 0)
(0.0837047 0.0107975 0 0.00943927 0 0)
(0.104015 0.0235974 0 0.0222123 0 0)
(0.146923 0.044654 0 0.0561265 0 0)
(0.0486702 -0.000577154 0 6.96098e-05 0 0)
(0.000872416 -0.000118406 0 0.000190406 0 0)
(0.00245276 -0.000116541 0 0.00017108 0 0)
(0.00600912 -0.000228163 0 0.000168207 0 0)
(0.0115652 -0.000249444 0 0.000192249 0 0)
(0.0152911 -0.000469956 0 0.000207141 0 0)
(0.0176324 -0.000585159 0 0.000255511 0 0)
(0.0198046 -0.000629689 0 0.000271176 0 0)
(0.0233161 -0.000572284 0 0.000278272 0 0)
(0.0277872 -0.00057652 0 0.00026447 0 0)
(0.0330975 -0.000686195 0 0.000236397 0 0)
(0.0384963 -0.000538453 0 0.00026945 0 0)
(0.0442511 -0.000808987 0 0.000267322 0 0)
(0.0500083 -0.00044169 0 0.000461768 0 0)
(0.0560212 -0.000377245 0 0.000714722 0 0)
(0.0634173 0.00140718 0 0.00152877 0 0)
(0.0725433 0.00341035 0 0.00347962 0 0)
(0.0863347 0.0106975 0 0.0088961 0 0)
(0.108203 0.0214743 0 0.0208265 0 0)
(0.151598 0.046798 0 0.0514281 0 0)
(0.0486132 -0.000972327 0 8.12065e-05 0 0)
(0.000929124 -0.000173495 0 0.000255198 0 0)
(0.00253461 -0.000151928 0 0.000220563 0 0)
(0.00624897 -0.000366669 0 0.000181415 0 0)
(0.0118519 -0.000437087 0 0.00020416 0 0)
(0.0156603 -0.000811632 0 0.000232534 0 0)
(0.0180421 -0.000996242 0 0.000293141 0 0)
(0.020409 -0.0010744 0 0.000319807 0 0)
(0.0238819 -0.000928775 0 0.000311783 0 0)
(0.0284654 -0.000869661 0 0.000280961 0 0)
(0.0337359 -0.000969038 0 0.000247659 0 0)
(0.0393224 -0.000866768 0 0.000267484 0 0)
(0.0450294 -0.00118364 0 0.000287127 0 0)
(0.0510853 -0.000823697 0 0.000436987 0 0)
(0.0572497 -0.00090606 0 0.000770362 0 0)
(0.0652082 0.00100504 0 0.00147117 0 0)
(0.074855 0.00261132 0 0.00347347 0 0)
(0.0897473 0.0102549 0 0.00848558 0 0)
(0.113416 0.01955 0 0.0198624 0 0)
(0.158589 0.0476832 0 0.0473638 0 0)
(0.0485339 -0.00138992 0 9.68995e-05 0 0)
(0.000931757 -0.000219299 0 0.000346442 0 0)
(0.00258654 -0.000164194 0 0.000281044 0 0)
(0.00659146 -0.000473959 0 0.000181079 0 0)
(0.0123096 -0.00058403 0 0.000200344 0 0)
(0.0162533 -0.00113788 0 0.000254561 0 0)
(0.0187279 -0.00131973 0 0.000313756 0 0)
(0.0213281 -0.00148578 0 0.000367049 0 0)
(0.0248169 -0.00114766 0 0.000312951 0 0)
(0.0294967 -0.00119579 0 0.000300287 0 0)
(0.0347484 -0.00109621 0 0.000231383 0 0)
(0.0406016 -0.00133695 0 0.000304453 0 0)
(0.0463781 -0.00131252 0 0.000268835 0 0)
(0.0527384 -0.00149944 0 0.000500441 0 0)
(0.0590997 -0.000940863 0 0.000729961 0 0)
(0.0675631 2.0154e-05 0 0.00153201 0 0)
(0.0777043 0.00266846 0 0.00333965 0 0)
(0.0938341 0.00847065 0 0.00795749 0 0)
(0.119228 0.0194148 0 0.0193059 0 0)
(0.165031 0.0417801 0 0.0392501 0 0)
(0.0484101 -0.00185889 0 0.000130025 0 0)
(0.000831024 -0.000251747 0 0.000478047 0 0)
(0.00246863 -0.000177619 0 0.000390921 0 0)
(0.00684752 -0.00054086 0 0.000185357 0 0)
(0.0128149 -0.000746356 0 0.000210394 0 0)
(0.0169577 -0.00140337 0 0.000290068 0 0)
(0.0195546 -0.00171171 0 0.000383951 0 0)
(0.0223553 -0.00179951 0 0.000429324 0 0)
(0.0259183 -0.00148099 0 0.000366675 0 0)
(0.0307844 -0.00142387 0 0.000326622 0 0)
(0.0361634 -0.00143378 0 0.000265548 0 0)
(0.0423086 -0.00159968 0 0.000318775 0 0)
(0.0482754 -0.00174572 0 0.000298922 0 0)
(0.0549461 -0.00184056 0 0.000528661 0 0)
(0.0615551 -0.00150446 0 0.000718072 0 0)
(0.0705084 -0.000441528 0 0.00165878 0 0)
(0.0813465 0.00182294 0 0.00298343 0 0)
(0.0987805 0.00744675 0 0.00819419 0 0)
(0.125926 0.0174661 0 0.017033 0 0)
(0.172722 0.0370916 0 0.0383399 0 0)
(0.0483124 -0.00235373 0 0.000172024 0 0)
(0.000776921 -0.000331811 0 0.000648087 0 0)
(0.0024013 -0.00025582 0 0.000516533 0 0)
(0.00718187 -0.000659234 0 0.000193224 0 0)
(0.0134538 -0.0009267 0 0.000217835 0 0)
(0.0178288 -0.00178496 0 0.000343496 0 0)
(0.0206492 -0.0020926 0 0.00044513 0 0)
(0.0236564 -0.00226844 0 0.000522972 0 0)
(0.027431 -0.00179308 0 0.000409791 0 0)
(0.0325405 -0.00184655 0 0.000382644 0 0)
(0.038167 -0.00171211 0 0.000284753 0 0)
(0.0445401 -0.00208577 0 0.000348246 0 0)
(0.0508058 -0.00205568 0 0.00033227 0 0)
(0.0577265 -0.00247467 0 0.00054021 0 0)
(0.0647705 -0.00190663 0 0.00080182 0 0)
(0.0741918 -0.00128734 0 0.00160981 0 0)
(0.0860452 0.00112547 0 0.00301486 0 0)
(0.104654 0.00588977 0 0.00783713 0 0)
(0.133784 0.0153344 0 0.0157956 0 0)
(0.181866 0.0327301 0 0.0385194 0 0)
(0.0482402 -0.00296127 0 0.000244443 0 0)
(0.000804099 -0.000454767 0 0.000865827 0 0)
(0.002506 -0.000400969 0 0.00069457 0 0)
(0.00778395 -0.000814806 0 0.000221742 0 0)
(0.0143554 -0.00120397 0 0.000259639 0 0)
(0.01898 -0.00218754 0 0.000431919 0 0)
(0.0220973 -0.00255774 0 0.000561743 0 0)
(0.0254172 -0.00274039 0 0.000652599 0 0)
(0.0294907 -0.00220016 0 0.000500102 0 0)
(0.0348782 -0.00226773 0 0.000470815 0 0)
(0.0407705 -0.00207055 0 0.000324796 0 0)
(0.0474239 -0.00257421 0 0.000423378 0 0)
(0.0540808 -0.00244124 0 0.00035272 0 0)
(0.0613411 -0.00312641 0 0.000636548 0 0)
(0.0689647 -0.00237867 0 0.000798328 0 0)
(0.078853 -0.00216812 0 0.00168712 0 0)
(0.0918325 0.000297361 0 0.00298514 0 0)
(0.111489 0.00421264 0 0.007389 0 0)
(0.142901 0.0127219 0 0.0155012 0 0)
(0.192324 0.0288831 0 0.0352845 0 0)
(0.0483112 -0.0036164 0 0.000335842 0 0)
(0.000860846 -0.000598796 0 0.00112597 0 0)
(0.002726 -0.000586067 0 0.000837487 0 0)
(0.00861113 -0.00100531 0 0.000253793 0 0)
(0.0155872 -0.00153895 0 0.000306053 0 0)
(0.0204662 -0.00266129 0 0.000534759 0 0)
(0.0239818 -0.00306671 0 0.00068527 0 0)
(0.0276568 -0.00326509 0 0.000787224 0 0)
(0.0321006 -0.00265661 0 0.000595621 0 0)
(0.037865 -0.00275287 0 0.00055897 0 0)
(0.0440267 -0.00248492 0 0.000369969 0 0)
(0.0511078 -0.00313332 0 0.000495499 0 0)
(0.0580799 -0.00287093 0 0.000391673 0 0)
(0.0660151 -0.0038751 0 0.000733068 0 0)
(0.0740847 -0.00291818 0 0.000833786 0 0)
(0.0847806 -0.00322751 0 0.0017992 0 0)
(0.0985236 -0.000573405 0 0.00293891 0 0)
(0.119645 0.00218632 0 0.00713688 0 0)
(0.152996 0.0100206 0 0.0151411 0 0)
(0.204277 0.0238935 0 0.033136 0 0)
(0.0489125 -0.00439554 0 0.000468282 0 0)
(0.000963151 -0.000760595 0 0.00145459 0 0)
(0.00312366 -0.000847257 0 0.000939742 0 0)
(0.00954561 -0.00123872 0 0.000317137 0 0)
(0.0173706 -0.0019923 0 0.000393105 0 0)
(0.0220538 -0.00319071 0 0.000681032 0 0)
(0.0266842 -0.00370323 0 0.000860139 0 0)
(0.0300403 -0.00381217 0 0.000955982 0 0)
(0.0356183 -0.00323217 0 0.0007298 0 0)
(0.0411034 -0.00326939 0 0.000678787 0 0)
(0.0483605 -0.00301952 0 0.000440405 0 0)
(0.0551545 -0.0037104 0 0.000587771 0 0)
(0.0632303 -0.00340483 0 0.000445879 0 0)
(0.0711156 -0.00461526 0 0.000843832 0 0)
(0.0804602 -0.00356959 0 0.000876982 0 0)
(0.0914643 -0.00434809 0 0.00194021 0 0)
(0.106514 -0.00152738 0 0.00283939 0 0)
(0.128808 -3.88245e-05 0 0.00711417 0 0)
(0.164053 0.00752585 0 0.0140781 0 0)
(0.217648 0.0174668 0 0.0327139 0 0)
(0.0501255 -0.00534225 0 0.000650178 0 0)
(0.00129192 -0.000944056 0 0.00182888 0 0)
(0.00400753 -0.00122008 0 0.00100891 0 0)
(0.0105633 -0.00150499 0 0.000396214 0 0)
(0.0200905 -0.00259872 0 0.000506844 0 0)
(0.0235277 -0.0037159 0 0.000841203 0 0)
(0.0307795 -0.00449679 0 0.00105086 0 0)
(0.0322125 -0.00430079 0 0.00111757 0 0)
(0.0408042 -0.00398013 0 0.000881556 0 0)
(0.0440701 -0.00371012 0 0.000793766 0 0)
(0.0546912 -0.00371464 0 0.000520179 0 0)
(0.0589864 -0.00421681 0 0.000685553 0 0)
(0.0707606 -0.00413071 0 0.000510528 0 0)
(0.0759312 -0.00521743 0 0.000970245 0 0)
(0.089427 -0.00442597 0 0.000911656 0 0)
(0.0978815 -0.00530949 0 0.00211357 0 0)
(0.11694 -0.00276919 0 0.00273727 0 0)
(0.137157 -0.00181881 0 0.00710027 0 0)
(0.175304 0.00514298 0 0.0130048 0 0)
(0.227387 0.0131901 0 0.0321398 0 0)
(0.0509492 -0.00641812 0 0.000897006 0 0)
(0.00190165 -0.00121746 0 0.00225968 0 0)
(0.00542459 -0.00171592 0 0.0010889 0 0)
(0.0117788 -0.0018491 0 0.000504961 0 0)
(0.0236825 -0.00340271 0 0.000665123 0 0)
(0.0251615 -0.00428632 0 0.00103019 0 0)
(0.0362659 -0.00548476 0 0.00127915 0 0)
(0.0344761 -0.00476496 0 0.00128695 0 0)
(0.0479466 -0.00497858 0 0.00107004 0 0)
(0.0469761 -0.00411322 0 0.000904799 0 0)
(0.06347 -0.00465309 0 0.00062692 0 0)
(0.0625229 -0.00468027 0 0.000769996 0 0)
(0.0810823 -0.00514884 0 0.000607957 0 0)
(0.0795219 -0.00568745 0 0.00106925 0 0)
(0.10025 -0.00547049 0 0.000991014 0 0)
(0.100386 -0.00585854 0 0.00220445 0 0)
(0.125466 -0.00380048 0 0.00271432 0 0)
(0.135393 -0.00214553 0 0.00673352 0 0)
(0.174733 0.00504847 0 0.0120621 0 0)
(0.215361 0.0160198 0 0.0295039 0 0)
(0.0503431 -0.00749387 0 0.00121141 0 0)
(0.00255052 -0.00163362 0 0.00274336 0 0)
(0.00681572 -0.00219639 0 0.00117579 0 0)
(0.0133463 -0.00233475 0 0.000646987 0 0)
(0.0272725 -0.00431978 0 0.000867131 0 0)
(0.0278249 -0.00502679 0 0.00125999 0 0)
(0.042024 -0.00654236 0 0.00152818 0 0)
(0.0379822 -0.00536906 0 0.00148089 0 0)
(0.0553559 -0.00602086 0 0.00127062 0 0)
(0.0502869 -0.00460654 0 0.00102275 0 0)
(0.0709314 -0.00554002 0 0.000733283 0 0)
(0.0637007 -0.00503612 0 0.000855928 0 0)
(0.0855537 -0.00586736 0 0.000694613 0 0)
(0.0748549 -0.00565877 0 0.00115367 0 0)
(0.0965517 -0.00558624 0 0.00101835 0 0)
(0.0848727 -0.00504371 0 0.00219667 0 0)
(0.107134 -0.0026057 0 0.00254817 0 0)
(0.103899 0.000600709 0 0.0060904 0 0)
(0.136685 0.0105054 0 0.010627 0 0)
(0.172856 0.0270301 0 0.0252159 0 0)
(0.0488585 -0.0085789 0 0.00161727 0 0)
(0.00307978 -0.00216705 0 0.00322309 0 0)
(0.00799019 -0.0025794 0 0.00125954 0 0)
(0.015538 -0.00298002 0 0.000824306 0 0)
(0.0307753 -0.00528666 0 0.00111521 0 0)
(0.0318715 -0.00593988 0 0.00152136 0 0)
(0.0465849 -0.00746846 0 0.00178567 0 0)
(0.0408474 -0.00588666 0 0.00166557 0 0)
(0.0562544 -0.00647795 0 0.00143436 0 0)
(0.0465779 -0.0045 0 0.001087 0 0)
(0.0616284 -0.00537339 0 0.000800905 0 0)
(0.0482873 -0.00406581 0 0.000852194 0 0)
(0.0608192 -0.00481786 0 0.000724045 0 0)
(0.0449825 -0.00333712 0 0.00108696 0 0)
(0.055078 -0.00336728 0 0.000966098 0 0)
(0.0421753 -0.00102562 0 0.00192408 0 0)
(0.0531589 0.00115758 0 0.00223317 0 0)
(0.055553 0.00721291 0 0.00495749 0 0)
(0.0855326 0.0180346 0 0.00876832 0 0)
(0.145844 0.0399249 0 0.0185421 0 0)
(0.0474193 -0.00978265 0 0.00215911 0 0)
(0.00361477 -0.00285691 0 0.00362251 0 0)
(0.00932208 -0.00301691 0 0.00139792 0 0)
(0.0184113 -0.00382105 0 0.00107327 0 0)
(0.032882 -0.006159 0 0.00141432 0 0)
(0.0324274 -0.00637909 0 0.00177725 0 0)
(0.0399277 -0.00698471 0 0.0019517 0 0)
(0.0295759 -0.00463445 0 0.00173542 0 0)
(0.0333497 -0.00442786 0 0.00141543 0 0)
(0.0221836 -0.00206494 0 0.00100558 0 0)
(0.0241306 -0.00245732 0 0.00071257 0 0)
(0.01662 -0.000632372 0 0.000714954 0 0)
(0.0167844 -0.00101931 0 0.000596409 0 0)
(0.0156435 0.00122184 0 0.000876358 0 0)
(0.016362 0.000889907 0 0.000746674 0 0)
(0.0254981 0.00444691 0 0.00151893 0 0)
(0.0327462 0.00548453 0 0.00169435 0 0)
(0.0631849 0.0136266 0 0.00376559 0 0)
(0.103802 0.023005 0 0.00662042 0 0)
(0.202058 0.0452102 0 0.0121955 0 0)
(0.0472977 -0.0113053 0 0.00288449 0 0)
(0.00463047 -0.00383838 0 0.00403836 0 0)
(0.010408 -0.00354897 0 0.00171742 0 0)
(0.0177814 -0.0042287 0 0.001419 0 0)
(0.022897 -0.00525026 0 0.00163694 0 0)
(0.0156222 -0.00373023 0 0.00179377 0 0)
(0.0122535 -0.00256312 0 0.00177931 0 0)
(0.00739018 0.000167336 0 0.0014609 0 0)
(0.00795736 0.000599131 0 0.00109741 0 0)
(0.0152819 0.00229531 0 0.000724961 0 0)
(0.0156173 0.00191459 0 0.000489383 0 0)
(0.0348242 0.0034355 0 0.000473352 0 0)
(0.033054 0.00308589 0 0.000398377 0 0)
(0.0647087 0.00519551 0 0.000584478 0 0)
(0.0639892 0.00437485 0 0.000496836 0 0)
(0.107638 0.00819367 0 0.00104294 0 0)
(0.118308 0.00752027 0 0.0011437 0 0)
(0.180009 0.0169045 0 0.0026277 0 0)
(0.237458 0.021634 0 0.00429394 0 0)
(0.365703 0.046415 0 0.00823967 0 0)
(0.0505213 -0.0138519 0 0.00403384 0 0)
(0.00501723 -0.00437922 0 0.00452423 0 0)
(0.00677385 -0.00242843 0 0.00198944 0 0)
(0.00695417 -0.00140754 0 0.00146874 0 0)
(0.00432267 -6.52644e-05 0 0.0013827 0 0)
(0.00764517 0.00254792 0 0.00132892 0 0)
(0.0178425 0.00393316 0 0.00120899 0 0)
(0.0440663 0.00525933 0 0.000922845 0 0)
(0.0617559 0.00482842 0 0.00064566 0 0)
(0.10034 0.00524006 0 0.000407536 0 0)
(0.110846 0.00461541 0 0.000263121 0 0)
(0.159687 0.00550014 0 0.00025602 0 0)
(0.163188 0.00509395 0 0.000220159 0 0)
(0.224736 0.00662372 0 0.000329186 0 0)
(0.22605 0.00560012 0 0.000284784 0 0)
(0.297615 0.00871248 0 0.000614521 0 0)
(0.311488 0.00704021 0 0.000684359 0 0)