/*--------------------------------*- C++ -*----------------------------------*\
| =========                 |                                                 |
| \\      /  F ield         | OpenFOAM: The Open Source CFD Toolbox           |
|  \\    /   O peration     | Version:  2.4.0                                 |
|   \\  /    A nd           | Web:      www.OpenFOAM.org                      |
|    \\/     M anipulation  |                                                 |
\*---------------------------------------------------------------------------*/
FoamFile
{
    version     2.0;
    format      ascii;
    class       surfaceScalarField;
    location    "0.263";
    object      phi_0;
}
// * * * * * * * * * * * * * * * * * * * * * * * * * * * * * * * * * * * * * //

dimensions      [0 3 -1 0 0 0 0];

internalField   nonuniform List<scalar> 
34880
(
5.48671e-06
7.01329e-06
3.12427e-06
2.36244e-06
2.47375e-06
6.50521e-07
2.21877e-06
2.54977e-07
2.07654e-06
1.42226e-07
1.96608e-06
1.10467e-07
1.88772e-06
7.83583e-08
1.82456e-06
6.3156e-08
1.76822e-06
5.63445e-08
1.74314e-06
2.50774e-08
1.70837e-06
3.47702e-08
1.67896e-06
2.94067e-08
1.66846e-06
1.05013e-08
1.64177e-06
2.66895e-08
1.62948e-06
1.22933e-08
1.63352e-06
-4.0437e-09
1.62451e-06
9.01709e-09
1.64343e-06
-1.89271e-08
1.61091e-06
3.25271e-08
-5.50174e-07
2.16108e-06
1.01088e-05
9.40445e-06
7.82726e-06
4.64402e-06
6.7114e-06
1.76639e-06
6.06423e-06
9.02145e-07
5.647e-06
5.59456e-07
5.34927e-06
4.08198e-07
5.12477e-06
3.02858e-07
4.94733e-06
2.40595e-07
4.80514e-06
1.98537e-07
4.70645e-06
1.23762e-07
4.61858e-06
1.22641e-07
4.53994e-06
1.08049e-07
4.49308e-06
5.73569e-08
4.42782e-06
9.19567e-08
4.39664e-06
4.34683e-08
4.38014e-06
1.24574e-08
4.36465e-06
2.45103e-08
4.40126e-06
-5.55407e-08
4.38703e-06
4.67542e-08
-9.93665e-07
4.83052e-06
1.24238e-05
9.48062e-06
1.0999e-05
6.0688e-06
9.98105e-06
2.78439e-06
9.20377e-06
1.67942e-06
8.61838e-06
1.14485e-06
8.1927e-06
8.33877e-07
7.85949e-06
6.36073e-07
7.59472e-06
5.0536e-07
7.38791e-06
4.05351e-07
7.22158e-06
2.90096e-07
7.09393e-06
2.50284e-07
6.97169e-06
2.30288e-07
6.89179e-06
1.37265e-07
6.79774e-06
1.86002e-07
6.7448e-06
9.64074e-08
6.70616e-06
5.1095e-08
6.68326e-06
4.74102e-08
6.71888e-06
-9.11562e-08
6.70383e-06
6.18036e-08
-1.43879e-06
7.14895e-06
1.34118e-05
8.56879e-06
1.2883e-05
6.59762e-06
1.23255e-05
3.34194e-06
1.17182e-05
2.28666e-06
1.11297e-05
1.7334e-06
1.06638e-05
1.29977e-06
1.02773e-05
1.02261e-06
9.95498e-06
8.27629e-07
9.71129e-06
6.49048e-07
9.49246e-06
5.08918e-07
9.33448e-06
4.08268e-07
9.18186e-06
3.82906e-07
9.06957e-06
2.49559e-07
8.9576e-06
2.97973e-07
8.88134e-06
1.72661e-07
8.82543e-06
1.07006e-07
8.78886e-06
8.39799e-08
8.81722e-06
-1.1951e-07
8.81447e-06
6.45517e-08
-1.71759e-06
9.09327e-06
1.35911e-05
7.47766e-06
1.36544e-05
6.53432e-06
1.362e-05
3.37633e-06
1.34035e-05
2.50317e-06
1.30101e-05
2.1268e-06
1.26311e-05
1.67878e-06
1.22812e-05
1.37251e-06
1.19533e-05
1.15558e-06
1.17161e-05
8.86253e-07
1.14752e-05
7.49762e-07
1.13012e-05
5.82236e-07
1.11425e-05
5.41657e-07
1.10032e-05
3.88865e-07
1.08876e-05
4.13553e-07
1.07933e-05
2.66931e-07
1.07277e-05
1.72688e-07
1.06791e-05
1.32496e-07
1.06941e-05
-1.34445e-07
1.07012e-05
5.74399e-08
-1.64301e-06
1.06266e-05
1.34827e-05
6.49499e-06
1.37492e-05
6.2678e-06
1.39878e-05
3.13769e-06
1.41464e-05
2.34457e-06
1.40689e-05
2.20434e-06
1.39027e-05
1.84492e-06
1.37092e-05
1.56605e-06
1.34575e-05
1.40729e-06
1.32885e-05
1.0552e-06
1.3079e-05
9.59272e-07
1.29132e-05
7.48079e-07
1.27821e-05
6.72739e-07
1.26341e-05
5.36854e-07
1.25313e-05
5.16405e-07
1.24339e-05
3.64269e-07
1.23666e-05
2.40054e-07
1.23178e-05
1.81247e-07
1.2323e-05
-1.39658e-07
1.23365e-05
4.39707e-08
-1.24184e-06
1.19353e-05
1.33632e-05
5.63181e-06
1.37125e-05
5.91844e-06
1.3908e-05
2.94222e-06
1.42144e-05
2.03823e-06
1.43674e-05
2.0513e-06
1.44042e-05
1.80814e-06
1.4425e-05
1.54524e-06
1.43199e-05
1.51241e-06
1.42831e-05
1.09194e-06
1.41775e-05
1.06485e-06
1.40636e-05
8.62042e-07
1.4e-05
7.36321e-07
1.38808e-05
6.56035e-07
1.38117e-05
5.85527e-07
1.37369e-05
4.39056e-07
1.36803e-05
2.96693e-07
1.365e-05
2.11544e-07
1.36499e-05
-1.39625e-07
1.3701e-05
-7.067e-09
-1.56402e-06
1.40232e-05
1.32646e-05
4.86723e-06
1.37098e-05
5.47323e-06
1.3778e-05
2.87398e-06
1.4068e-05
1.74826e-06
1.43049e-05
1.81444e-06
1.44222e-05
1.69082e-06
1.45697e-05
1.39773e-06
1.45805e-05
1.5016e-06
1.46583e-05
1.01416e-06
1.46834e-05
1.03974e-06
1.4657e-05
8.8843e-07
1.4684e-05
7.09307e-07
1.46397e-05
7.00395e-07
1.46332e-05
5.91991e-07
1.46119e-05
4.60327e-07
1.45941e-05
3.14539e-07
1.46051e-05
2.00556e-07
1.46018e-05
-1.36301e-07
1.46676e-05
-7.29546e-08
-8.33695e-07
1.39373e-05
1.31662e-05
4.20099e-06
1.36851e-05
4.95441e-06
1.37238e-05
2.83521e-06
1.39307e-05
1.54142e-06
1.41707e-05
1.57445e-06
1.43175e-05
1.54395e-06
1.44913e-05
1.22399e-06
1.45558e-05
1.43706e-06
1.46695e-05
9.00457e-07
1.47634e-05
9.45828e-07
1.48e-05
8.51879e-07
1.48732e-05
6.36091e-07
1.48965e-05
6.77094e-07
1.49592e-05
5.29261e-07
1.49961e-05
4.23458e-07
1.50503e-05
2.60337e-07
1.50854e-05
1.65451e-07
1.51362e-05
-1.8711e-07
1.54e-05
-3.36786e-07
-1.18692e-06
1.57533e-05
1.30748e-05
3.62619e-06
1.36091e-05
4.4201e-06
1.37232e-05
2.72108e-06
1.38635e-05
1.40111e-06
1.40385e-05
1.39943e-06
1.42168e-05
1.36573e-06
1.43907e-05
1.05002e-06
1.44792e-05
1.34861e-06
1.45913e-05
7.88384e-07
1.46951e-05
8.41981e-07
1.47641e-05
7.82921e-07
1.48333e-05
5.66848e-07
1.48744e-05
6.3596e-07
1.49673e-05
4.36372e-07
1.50393e-05
3.5149e-07
1.51301e-05
1.6952e-07
1.51871e-05
1.08474e-07
1.53025e-05
-3.02547e-07
1.55687e-05
-6.02995e-07
-1.42274e-06
1.58046e-05
1.29904e-05
3.1358e-06
1.3494e-05
3.9165e-06
1.37224e-05
2.49263e-06
1.38547e-05
1.26882e-06
1.3961e-05
1.2932e-06
1.41368e-05
1.18991e-06
1.43029e-05
8.83921e-07
1.43858e-05
1.26575e-06
1.44823e-05
6.91819e-07
1.46084e-05
7.15886e-07
1.47003e-05
6.91003e-07
1.47738e-05
4.93352e-07
1.48319e-05
5.77845e-07
1.49081e-05
3.60221e-07
1.49615e-05
2.98077e-07
1.50544e-05
7.66687e-08
1.51616e-05
1.19152e-09
1.52651e-05
-4.06005e-07
1.54265e-05
-7.64428e-07
-1.81589e-06
1.58197e-05
1.29285e-05
2.70732e-06
1.34454e-05
3.39958e-06
1.36845e-05
2.25351e-06
1.38345e-05
1.11888e-06
1.39452e-05
1.1825e-06
1.40515e-05
1.08358e-06
1.42069e-05
7.28557e-07
1.43315e-05
1.14115e-06
1.44313e-05
5.91954e-07
1.4549e-05
5.98191e-07
1.46444e-05
5.95627e-07
1.47247e-05
4.13058e-07
1.4785e-05
5.17576e-07
1.48231e-05
3.22046e-07
1.48726e-05
2.4858e-07
1.49801e-05
-3.08074e-08
1.50996e-05
-1.18329e-07
1.52015e-05
-5.07906e-07
1.53385e-05
-9.014e-07
-2.26509e-06
1.57877e-05
1.29147e-05
2.29265e-06
1.34149e-05
2.89939e-06
1.36242e-05
2.04415e-06
1.37979e-05
9.452e-07
1.39171e-05
1.06332e-06
1.39647e-05
1.03594e-06
1.41336e-05
5.59641e-07
1.43344e-05
9.40344e-07
1.44374e-05
4.88981e-07
1.44962e-05
5.39423e-07
1.45693e-05
5.22532e-07
1.46534e-05
3.28963e-07
1.47055e-05
4.65466e-07
1.47375e-05
2.90021e-07
1.48292e-05
1.56872e-07
1.49369e-05
-1.38502e-07
1.50445e-05
-2.25917e-07
1.51569e-05
-6.20275e-07
1.5284e-05
-1.02859e-06
-2.52858e-06
1.55475e-05
1.28991e-05
1.89353e-06
1.33119e-05
2.48658e-06
1.35957e-05
1.76035e-06
1.37793e-05
7.61663e-07
1.38788e-05
9.63767e-07
1.39333e-05
9.81502e-07
1.41096e-05
3.83258e-07
1.4304e-05
7.46009e-07
1.43843e-05
4.087e-07
1.44375e-05
4.86207e-07
1.44902e-05
4.69789e-07
1.45863e-05
2.32927e-07
1.46717e-05
3.80027e-07
1.47104e-05
2.51311e-07
1.48029e-05
6.43563e-08
1.4897e-05
-2.3256e-07
1.49927e-05
-3.21627e-07
1.51081e-05
-7.35726e-07
1.52271e-05
-1.14754e-06
-2.76656e-06
1.54651e-05
1.28478e-05
1.54577e-06
1.32334e-05
2.10099e-06
1.35778e-05
1.41588e-06
1.37571e-05
5.82375e-07
1.38565e-05
8.64332e-07
1.39428e-05
8.95262e-07
1.40877e-05
2.38382e-07
1.42286e-05
6.05034e-07
1.43099e-05
3.2747e-07
1.44125e-05
3.83556e-07
1.44545e-05
4.27855e-07
1.45522e-05
1.35188e-07
1.46586e-05
2.73599e-07
1.46927e-05
2.17197e-07
1.47663e-05
-9.15753e-09
1.48422e-05
-3.08535e-07
1.49349e-05
-4.1433e-07
1.5061e-05
-8.6176e-07
1.52372e-05
-1.32375e-06
-3.05705e-06
1.55277e-05
1.28111e-05
1.23465e-06
1.32421e-05
1.67004e-06
1.35683e-05
1.08968e-06
1.3698e-05
4.52682e-07
1.38198e-05
7.42443e-07
1.39367e-05
7.78428e-07
1.40459e-05
1.29201e-07
1.41824e-05
4.68505e-07
1.42942e-05
2.15652e-07
1.4404e-05
2.73796e-07
1.44343e-05
3.97555e-07
1.45217e-05
4.77093e-08
1.46206e-05
1.74709e-07
1.46471e-05
1.90701e-07
1.47448e-05
-1.06851e-07
1.47892e-05
-3.52887e-07
1.49047e-05
-5.29836e-07
1.50144e-05
-9.71477e-07
1.52272e-05
-1.53653e-06
-3.32832e-06
1.54984e-05
1.28096e-05
9.25043e-07
1.32397e-05
1.23996e-06
1.35212e-05
8.08119e-07
1.3648e-05
3.25901e-07
1.37855e-05
6.05003e-07
1.39254e-05
6.38505e-07
1.40316e-05
2.29699e-08
1.41694e-05
3.30754e-07
1.4273e-05
1.1205e-07
1.43679e-05
1.78882e-07
1.44061e-05
3.59331e-07
1.44771e-05
-2.32529e-08
1.45975e-05
5.42717e-08
1.46222e-05
1.66055e-07
1.47329e-05
-2.1756e-07
1.47644e-05
-3.84419e-07
1.4896e-05
-6.61481e-07
1.49684e-05
-1.04379e-06
1.49835e-05
-1.55171e-06
-2.16422e-06
1.38194e-05
1.27926e-05
6.32479e-07
1.32004e-05
8.32085e-07
1.34932e-05
5.15394e-07
1.36362e-05
1.8283e-07
1.37732e-05
4.68003e-07
1.39316e-05
4.80121e-07
1.4037e-05
-8.24429e-08
1.41525e-05
2.153e-07
1.42241e-05
4.04233e-08
1.43435e-05
5.94699e-08
1.43749e-05
3.28007e-07
1.44559e-05
-1.04264e-07
1.45856e-05
-7.54348e-08
1.46192e-05
1.32455e-07
1.4705e-05
-3.03401e-07
1.47689e-05
-4.48283e-07
1.48563e-05
-7.48925e-07
1.49477e-05
-1.13522e-06
1.5099e-05
-1.70296e-06
-2.46468e-06
1.53995e-05
1.27657e-05
3.66745e-07
1.31999e-05
3.9787e-07
1.35021e-05
2.13255e-07
1.36283e-05
5.65932e-08
1.37572e-05
3.39132e-07
1.39245e-05
3.12773e-07
1.40261e-05
-1.8397e-07
1.4131e-05
1.10334e-07
1.42081e-05
-3.66869e-08
1.43379e-05
-7.0282e-08
1.4365e-05
3.00904e-07
1.44563e-05
-1.95565e-07
1.45657e-05
-1.84834e-07
1.46013e-05
9.68269e-08
1.46826e-05
-3.84637e-07
1.47687e-05
-5.34453e-07
1.48168e-05
-7.96979e-07
1.49556e-05
-1.27406e-06
1.51061e-05
-1.85338e-06
-2.62395e-06
1.52653e-05
1.27649e-05
1.01814e-07
1.32186e-05
-5.58095e-08
1.34964e-05
-6.45654e-08
1.36114e-05
-5.83539e-08
1.37413e-05
2.09176e-07
1.3913e-05
1.41137e-07
1.40095e-05
-2.80536e-07
1.41284e-05
-8.48117e-09
1.42145e-05
-1.2282e-07
1.43259e-05
-1.81744e-07
1.43687e-05
2.58166e-07
1.44579e-05
-2.84734e-07
1.45407e-05
-2.67722e-07
1.45857e-05
5.18657e-08
1.46808e-05
-4.79752e-07
1.47639e-05
-6.17526e-07
1.48115e-05
-8.44573e-07
1.4963e-05
-1.42559e-06
1.5084e-05
-1.97434e-06
-2.76253e-06
1.52225e-05
1.2776e-05
-1.74142e-07
1.32108e-05
-4.90668e-07
1.34741e-05
-3.27881e-07
1.36198e-05
-2.04011e-07
1.37569e-05
7.20191e-08
1.39081e-05
-1.00363e-08
1.40046e-05
-3.76993e-07
1.41441e-05
-1.47982e-07
1.42123e-05
-1.91065e-07
1.43151e-05
-2.84558e-07
1.43855e-05
1.8778e-07
1.44512e-05
-3.50373e-07
1.45232e-05
-3.39714e-07
1.45815e-05
-6.48826e-09
1.46883e-05
-5.8659e-07
1.47539e-05
-6.83122e-07
1.484e-05
-9.30654e-07
1.49395e-05
-1.52507e-06
1.5021e-05
-2.05584e-06
-3.12716e-06
1.53856e-05
1.27801e-05
-4.5429e-07
1.32016e-05
-9.1215e-07
1.34855e-05
-6.11707e-07
1.36504e-05
-3.68934e-07
1.37606e-05
-3.82508e-08
1.38957e-05
-1.45119e-07
1.40134e-05
-4.94641e-07
1.41553e-05
-2.8988e-07
1.42188e-05
-2.54544e-07
1.43315e-05
-3.97255e-07
1.4402e-05
1.17207e-07
1.44407e-05
-3.89001e-07
1.45254e-05
-4.24467e-07
1.4593e-05
-7.41173e-08
1.46901e-05
-6.83699e-07
1.4751e-05
-7.43944e-07
1.48676e-05
-1.04732e-06
1.49245e-05
-1.58198e-06
1.48737e-05
-2.00501e-06
-2.13878e-06
1.38853e-05
1.2786e-05
-7.40327e-07
1.32157e-05
-1.34185e-06
1.3519e-05
-9.15013e-07
1.36575e-05
-5.0741e-07
1.37378e-05
-1.18562e-07
1.3904e-05
-3.11244e-07
1.40414e-05
-6.32073e-07
1.4167e-05
-4.15505e-07
1.42383e-05
-3.25794e-07
1.43529e-05
-5.11882e-07
1.43983e-05
7.17682e-08
1.44547e-05
-4.45416e-07
1.45356e-05
-5.05297e-07
1.46265e-05
-1.65032e-07
1.46818e-05
-7.38979e-07
1.47747e-05
-8.36845e-07
1.48704e-05
-1.14305e-06
1.49301e-05
-1.64169e-06
1.50182e-05
-2.09314e-06
-2.57706e-06
1.54565e-05
1.28015e-05
-1.04185e-06
1.32429e-05
-1.78325e-06
1.35405e-05
-1.21262e-06
1.36468e-05
-6.13628e-07
1.37478e-05
-2.19565e-07
1.39464e-05
-5.09851e-07
1.40676e-05
-7.53278e-07
1.41806e-05
-5.28571e-07
1.42594e-05
-4.04561e-07
1.43518e-05
-6.0429e-07
1.44113e-05
1.22895e-08
1.44853e-05
-5.19386e-07
1.45539e-05
-5.73916e-07
1.46465e-05
-2.57613e-07
1.46813e-05
-7.7387e-07
1.48022e-05
-9.57693e-07
1.48597e-05
-1.20053e-06
1.49446e-05
-1.72661e-06
1.50575e-05
-2.20609e-06
-2.924e-06
1.54045e-05
1.28258e-05
-1.36768e-06
1.32784e-05
-2.23583e-06
1.35567e-05
-1.49097e-06
1.36522e-05
-7.09072e-07
1.37911e-05
-3.58509e-07
1.39801e-05
-6.98863e-07
1.40749e-05
-8.48068e-07
1.42001e-05
-6.53722e-07
1.42835e-05
-4.87996e-07
1.43631e-05
-6.8387e-07
1.44493e-05
-7.39101e-08
1.45211e-05
-5.91162e-07
1.45708e-05
-6.23628e-07
1.46599e-05
-3.4675e-07
1.47019e-05
-8.15851e-07
1.48308e-05
-1.08657e-06
1.48685e-05
-1.23821e-06
1.49618e-05
-1.8199e-06
1.5111e-05
-2.35532e-06
-3.26114e-06
1.54481e-05
1.28618e-05
-1.72946e-06
1.33177e-05
-2.69175e-06
1.35748e-05
-1.74811e-06
1.36775e-05
-8.11675e-07
1.38277e-05
-5.08731e-07
1.39943e-05
-8.65472e-07
1.41017e-05
-9.5545e-07
1.42363e-05
-7.8833e-07
1.43182e-05
-5.69897e-07
1.43991e-05
-7.6478e-07
1.44924e-05
-1.67197e-07
1.45386e-05
-6.37375e-07
1.46031e-05
-6.88165e-07
1.46817e-05
-4.25377e-07
1.47442e-05
-8.78354e-07
1.48587e-05
-1.20104e-06
1.49134e-05
-1.29285e-06
1.49837e-05
-1.89027e-06
1.51252e-05
-2.4968e-06
-3.66932e-06
1.55334e-05
1.29083e-05
-2.13781e-06
1.33541e-05
-3.13755e-06
1.35921e-05
-1.98606e-06
1.37087e-05
-9.28242e-07
1.38596e-05
-6.5967e-07
1.40312e-05
-1.03706e-06
1.4162e-05
-1.08625e-06
1.4273e-05
-8.99368e-07
1.43551e-05
-6.52007e-07
1.44382e-05
-8.47861e-07
1.45167e-05
-2.45677e-07
1.45636e-05
-6.84324e-07
1.46523e-05
-7.76776e-07
1.4721e-05
-4.94077e-07
1.47927e-05
-9.5012e-07
1.48919e-05
-1.30017e-06
1.49542e-05
-1.35522e-06
1.50167e-05
-1.95274e-06
1.50076e-05
-2.4877e-06
-2.63371e-06
1.3972e-05
1.29586e-05
-2.59637e-06
1.33863e-05
-3.56527e-06
1.35876e-05
-2.18732e-06
1.37481e-05
-1.08879e-06
1.39139e-05
-8.25498e-07
1.40936e-05
-1.21674e-06
1.42201e-05
-1.21271e-06
1.43019e-05
-9.81155e-07
1.43899e-05
-7.40076e-07
1.4474e-05
-9.31928e-07
1.45439e-05
-3.15626e-07
1.46216e-05
-7.61998e-07
1.46989e-05
-8.54037e-07
1.478e-05
-5.75224e-07
1.48321e-05
-1.00219e-06
1.49419e-05
-1.41002e-06
1.49786e-05
-1.39186e-06
1.50629e-05
-2.03709e-06
1.51691e-05
-2.59387e-06
-3.11495e-06
1.56503e-05
1.30042e-05
-3.10055e-06
1.34222e-05
-3.98333e-06
1.35952e-05
-2.36024e-06
1.38017e-05
-1.29537e-06
1.39882e-05
-1.01191e-06
1.41564e-05
-1.38496e-06
1.42676e-05
-1.3239e-06
1.43302e-05
-1.04379e-06
1.44352e-05
-8.4511e-07
1.45107e-05
-1.00741e-06
1.45959e-05
-4.00777e-07
1.46792e-05
-8.45306e-07
1.47579e-05
-9.32791e-07
1.4837e-05
-6.54295e-07
1.48873e-05
-1.05247e-06
1.49983e-05
-1.52099e-06
1.50091e-05
-1.40272e-06
1.51216e-05
-2.1496e-06
1.52205e-05
-2.69272e-06
-3.4721e-06
1.55776e-05
1.30457e-05
-3.64629e-06
1.34782e-05
-4.41581e-06
1.36494e-05
-2.53144e-06
1.38689e-05
-1.51482e-06
1.40592e-05
-1.20223e-06
1.4212e-05
-1.53773e-06
1.43177e-05
-1.4296e-06
1.43658e-05
-1.09191e-06
1.44898e-05
-9.69147e-07
1.45604e-05
-1.07797e-06
1.46603e-05
-5.00653e-07
1.47424e-05
-9.27396e-07
1.48346e-05
-1.02502e-06
1.49032e-05
-7.22919e-07
1.49669e-05
-1.11618e-06
1.50483e-05
-1.60235e-06
1.5055e-05
-1.40945e-06
1.51427e-05
-2.23735e-06
1.52089e-05
-2.75892e-06
-3.73673e-06
1.54736e-05
1.30978e-05
-4.2441e-06
1.35566e-05
-4.87464e-06
1.37177e-05
-2.69248e-06
1.39309e-05
-1.72807e-06
1.41216e-05
-1.39291e-06
1.42743e-05
-1.69043e-06
1.43684e-05
-1.52368e-06
1.44217e-05
-1.14527e-06
1.45651e-05
-1.11245e-06
1.463e-05
-1.14293e-06
1.47404e-05
-6.11005e-07
1.48287e-05
-1.01573e-06
1.49082e-05
-1.10457e-06
1.49679e-05
-7.82595e-07
1.50246e-05
-1.1729e-06
1.50488e-05
-1.62652e-06
1.50519e-05
-1.41252e-06
1.50596e-05
-2.24506e-06
1.50572e-05
-2.75658e-06
-3.90685e-06
1.52274e-05
1.31678e-05
-4.91188e-06
1.36378e-05
-5.34465e-06
1.37822e-05
-2.83692e-06
1.39873e-05
-1.93311e-06
1.42032e-05
-1.60883e-06
1.43569e-05
-1.84409e-06
1.44366e-05
-1.60345e-06
1.45168e-05
-1.22546e-06
1.46534e-05
-1.24904e-06
1.46994e-05
-1.18889e-06
1.48073e-05
-7.18953e-07
1.48689e-05
-1.07728e-06
1.48943e-05
-1.12996e-06
1.49294e-05
-8.17773e-07
1.49288e-05
-1.17227e-06
1.48703e-05
-1.56807e-06
1.48299e-05
-1.37203e-06
1.47125e-05
-2.12769e-06
1.4575e-05
-2.61909e-06
-3.9456e-06
1.46138e-05
1.32509e-05
-5.66281e-06
1.37e-05
-5.79376e-06
1.38495e-05
-2.98634e-06
1.40779e-05
-2.16157e-06
1.43239e-05
-1.85481e-06
1.44471e-05
-1.96728e-06
1.45079e-05
-1.66424e-06
1.45825e-05
-1.30007e-06
1.46447e-05
-1.31128e-06
1.46329e-05
-1.17701e-06
1.46821e-05
-7.68233e-07
1.46504e-05
-1.0456e-06
1.45851e-05
-1.06464e-06
1.45545e-05
-7.87099e-07
1.4459e-05
-1.07685e-06
1.4306e-05
-1.41501e-06
1.41894e-05
-1.25546e-06
1.39532e-05
-1.89146e-06
1.36593e-05
-2.32525e-06
-3.01043e-06
1.27242e-05
1.33467e-05
-6.50948e-06
1.37026e-05
-6.14971e-06
1.3952e-05
-3.23575e-06
1.42014e-05
-2.41089e-06
1.43967e-05
-2.05017e-06
1.4413e-05
-1.9836e-06
1.43794e-05
-1.63063e-06
1.43451e-05
-1.26579e-06
1.42566e-05
-1.22271e-06
1.41362e-05
-1.05663e-06
1.40756e-05
-7.07617e-07
1.39337e-05
-9.0375e-07
1.3783e-05
-9.13858e-07
1.36816e-05
-6.85755e-07
1.351e-05
-9.05273e-07
1.32933e-05
-1.19827e-06
1.3112e-05
-1.07417e-06
1.28058e-05
-1.58521e-06
1.2452e-05
-1.97148e-06
-2.74611e-06
1.21877e-05
1.3471e-05
-7.48044e-06
1.37734e-05
-6.4521e-06
1.40045e-05
-3.46687e-06
1.41307e-05
-2.53713e-06
1.40998e-05
-2.01921e-06
1.38962e-05
-1.78006e-06
1.36778e-05
-1.41218e-06
1.34822e-05
-1.0702e-06
1.32525e-05
-9.93081e-07
1.30422e-05
-8.46253e-07
1.29005e-05
-5.65968e-07
1.26973e-05
-7.00528e-07
1.25044e-05
-7.20957e-07
1.23624e-05
-5.43741e-07
1.21557e-05
-6.98606e-07
1.19092e-05
-9.51738e-07
1.16909e-05
-8.55937e-07
1.13524e-05
-1.24668e-06
1.09426e-05
-1.56165e-06
-2.02645e-06
1.02229e-05
1.35846e-05
-8.56508e-06
1.36797e-05
-6.54717e-06
1.36232e-05
-3.41034e-06
1.33915e-05
-2.30542e-06
1.30351e-05
-1.6628e-06
1.26168e-05
-1.36182e-06
1.22594e-05
-1.05472e-06
1.19684e-05
-7.79277e-07
1.1679e-05
-7.03676e-07
1.14387e-05
-6.05898e-07
1.12673e-05
-3.94631e-07
1.10516e-05
-4.84797e-07
1.08518e-05
-5.21111e-07
1.06958e-05
-3.87778e-07
1.04846e-05
-4.8745e-07
1.02323e-05
-6.99356e-07
1.00013e-05
-6.2497e-07
9.65375e-06
-8.99135e-07
9.23786e-06
-1.14577e-06
-1.43479e-06
8.6462e-06
1.341e-05
-9.47508e-06
1.29051e-05
-6.04227e-06
1.23225e-05
-2.82772e-06
1.17086e-05
-1.69158e-06
1.11471e-05
-1.10125e-06
1.06497e-05
-8.64434e-07
1.02614e-05
-6.66469e-07
9.95972e-06
-4.77552e-07
9.67966e-06
-4.23622e-07
9.45235e-06
-3.78582e-07
9.28869e-06
-2.30969e-07
9.09338e-06
-2.89486e-07
8.9077e-06
-3.35436e-07
8.75894e-06
-2.39021e-07
8.56636e-06
-2.9486e-07
8.32691e-06
-4.5991e-07
8.10285e-06
-4.00906e-07
7.77641e-06
-5.72696e-07
7.37526e-06
-7.44619e-07
-9.23205e-07
6.86367e-06
1.24254e-05
-9.40052e-06
1.10162e-05
-4.63301e-06
9.97615e-06
-1.78769e-06
9.19534e-06
-9.10765e-07
8.62909e-06
-5.34998e-07
8.18293e-06
-4.18281e-07
7.84542e-06
-3.28951e-07
7.59223e-06
-2.24369e-07
7.36508e-06
-1.96474e-07
7.17715e-06
-1.90642e-07
7.04735e-06
-1.01172e-07
6.8927e-06
-1.34837e-07
6.73504e-06
-1.77775e-07
6.61135e-06
-1.15334e-07
6.45501e-06
-1.38515e-07
6.24401e-06
-2.48913e-07
6.04838e-06
-2.05281e-07
5.76851e-06
-2.92821e-07
5.4123e-06
-3.8841e-07
-4.88718e-07
4.97781e-06
1.01115e-05
-7.01197e-06
7.83815e-06
-2.35971e-06
6.70696e-06
-6.56493e-07
6.05599e-06
-2.59805e-07
5.65361e-06
-1.32609e-07
5.34543e-06
-1.10109e-07
5.10996e-06
-9.34785e-08
4.94221e-06
-5.66133e-08
4.79391e-06
-4.81784e-08
4.66174e-06
-5.847e-08
4.58239e-06
-2.18188e-08
4.4806e-06
-3.30486e-08
4.3623e-06
-5.94777e-08
4.27858e-06
-3.16141e-08
4.17373e-06
-3.36593e-08
4.00869e-06
-8.38803e-08
3.86573e-06
-6.23214e-08
3.6596e-06
-8.66836e-08
3.39084e-06
-1.19651e-07
-1.65699e-07
3.06782e-06
5.48803e-06
3.12831e-06
2.47182e-06
2.21202e-06
2.07941e-06
1.9693e-06
1.87582e-06
1.81921e-06
1.77103e-06
1.71256e-06
1.69074e-06
1.65769e-06
1.59821e-06
1.5666e-06
1.53294e-06
1.44906e-06
1.38674e-06
1.30005e-06
1.1804e-06
1.0147e-06
2.50147e-06
-6.10025e-07
2.69635e-07
2.77694e-06
-3.9669e-07
1.21218e-07
2.67495e-06
-5.15644e-07
6.17638e-07
2.88057e-06
-1.49625e-08
-1.90658e-07
4.23442e-06
1.03994e-06
-2.39379e-06
6.01673e-06
3.49712e-06
-5.27943e-06
7.50606e-06
4.4281e-06
-5.91743e-06
8.97892e-06
3.32757e-06
-4.80043e-06
1.04748e-05
3.95712e-06
-5.45296e-06
1.18313e-05
4.20802e-06
-5.56455e-06
1.28984e-05
2.54571e-06
-3.61277e-06
1.3408e-05
1.68126e-06
-2.19091e-06
1.38692e-05
6.95167e-07
-1.15639e-06
1.46001e-05
-2.09351e-06
1.36259e-06
1.48428e-05
-3.7391e-06
3.4965e-06
1.46611e-05
-4.66912e-06
4.85077e-06
1.44608e-05
-6.53638e-06
6.73664e-06
1.45167e-05
-8.50903e-06
8.45313e-06
1.5171e-05
-1.1202e-05
1.05478e-05
1.60612e-05
-1.38658e-05
1.29756e-05
1.67055e-05
-1.61849e-05
1.55406e-05
1.70293e-05
-1.76281e-05
1.73043e-05
1.69804e-05
-1.80891e-05
1.81379e-05
1.65625e-05
-1.81024e-05
1.85203e-05
1.59605e-05
-1.7772e-05
1.83739e-05
1.5409e-05
-1.70941e-05
1.76456e-05
1.49058e-05
-1.64342e-05
1.69374e-05
1.44422e-05
-1.57929e-05
1.62564e-05
1.39241e-05
-1.44925e-05
1.50106e-05
1.32591e-05
-1.37776e-05
1.44426e-05
1.27492e-05
-1.18795e-05
1.23894e-05
1.22854e-05
-1.07522e-05
1.1216e-05
1.18863e-05
-9.57028e-06
9.96931e-06
1.137e-05
-8.35798e-06
8.87434e-06
1.07658e-05
-6.89877e-06
7.50296e-06
1.02072e-05
-5.85552e-06
6.4141e-06
9.82907e-06
-4.2324e-06
4.61052e-06
9.30739e-06
-2.47924e-06
3.00092e-06
8.65796e-06
-2.8993e-06
3.54873e-06
8.4299e-06
-3.07142e-06
3.29948e-06
8.47569e-06
-5.92596e-07
5.46804e-07
7.90849e-06
2.26467e-06
-1.69746e-06
7.26404e-06
1.09121e-06
-4.46758e-07
7.36163e-06
2.56187e-07
-3.53774e-07
7.58874e-06
1.40764e-06
-1.63476e-06
7.60087e-06
1.36497e-06
-1.3771e-06
7.95564e-06
2.66597e-06
-3.02074e-06
8.70985e-06
8.13351e-06
-8.88772e-06
9.66285e-06
1.40323e-05
-1.49853e-05
1.08518e-05
1.84251e-05
-1.9614e-05
1.18138e-05
2.33143e-05
-2.42764e-05
1.21798e-05
2.76317e-05
-2.79977e-05
1.19396e-05
2.82459e-05
-2.80057e-05
1.15707e-05
2.56996e-05
-2.53307e-05
1.14111e-05
2.27094e-05
-2.25497e-05
1.13618e-05
2.07813e-05
-2.07321e-05
1.12149e-05
1.92042e-05
-1.90573e-05
1.08852e-05
1.66711e-05
-1.63414e-05
1.03866e-05
1.28258e-05
-1.23271e-05
9.77494e-06
8.01979e-06
-7.40817e-06
9.11739e-06
2.76782e-06
-2.11027e-06
8.54859e-06
-2.6569e-06
3.2257e-06
8.19041e-06
-7.87785e-06
8.23603e-06
7.90385e-06
-1.21515e-05
1.24381e-05
7.48273e-06
-1.58968e-05
1.63179e-05
7.19734e-06
-2.00168e-05
2.03021e-05
7.33907e-06
-2.33204e-05
2.31787e-05
7.70595e-06
-2.45584e-05
2.41916e-05
7.89847e-06
-2.51135e-05
2.4921e-05
8.05894e-06
-2.53139e-05
2.51534e-05
8.50073e-06
-2.29423e-05
2.25005e-05
8.90186e-06
-1.78483e-05
1.74472e-05
8.7364e-06
-1.39363e-05
1.41017e-05
8.02051e-06
-1.51603e-05
1.58762e-05
7.23572e-06
-2.1033e-05
2.18178e-05
6.74671e-06
-2.59261e-05
2.64151e-05
6.43677e-06
-2.82998e-05
2.86097e-05
6.27301e-06
-2.97116e-05
2.98753e-05
6.23409e-06
-3.04279e-05
3.04668e-05
6.23594e-06
-3.05833e-05
3.05815e-05
6.28873e-06
-3.02421e-05
3.01894e-05
6.52194e-06
-2.71402e-05
2.6907e-05
6.84337e-06
-2.25079e-05
2.21865e-05
7.36712e-06
-2.0126e-05
1.96022e-05
8.04008e-06
-1.79132e-05
1.72402e-05
8.50806e-06
-1.43917e-05
1.39237e-05
8.96244e-06
-1.00064e-05
9.552e-06
9.3784e-06
-5.68456e-06
5.2686e-06
9.61508e-06
-1.75453e-06
1.51786e-06
9.90424e-06
3.74368e-06
-4.03284e-06
1.0253e-05
7.76886e-06
-8.11765e-06
1.04801e-05
9.1372e-06
-9.36424e-06
1.07211e-05
1.23995e-05
-1.26406e-05
1.08721e-05
1.75392e-05
-1.76902e-05
1.07635e-05
2.05391e-05
-2.04305e-05
1.05857e-05
2.08178e-05
-2.06401e-05
1.05911e-05
2.10299e-05
-2.10352e-05
1.0539e-05
2.22073e-05
-2.21552e-05
1.01458e-05
2.18554e-05
-2.14622e-05
9.59665e-06
1.91804e-05
-1.86313e-05
9.20836e-06
1.6111e-05
-1.57227e-05
9.39648e-06
1.37402e-05
-1.39283e-05
1.02745e-05
1.39099e-05
-1.47878e-05
1.13217e-05
1.60581e-05
-1.71053e-05
1.21814e-05
1.8279e-05
-1.91387e-05
1.26327e-05
1.93779e-05
-1.98292e-05
1.26197e-05
2.03145e-05
-2.03014e-05
1.22284e-05
2.00239e-05
-1.96326e-05
1.13601e-05
1.83243e-05
-1.74561e-05
1.03662e-05
1.46723e-05
-1.36783e-05
9.48301e-06
1.12391e-05
-1.03559e-05
8.71482e-06
9.88235e-06
-9.11416e-06
8.29189e-06
8.9194e-06
-8.49648e-06
8.24916e-06
9.47535e-06
-9.43262e-06
8.53436e-06
9.51291e-06
-9.79811e-06
9.32351e-06
1.19709e-05
-1.27601e-05
1.01754e-05
1.34838e-05
-1.43356e-05
1.07911e-05
1.51887e-05
-1.58045e-05
1.10927e-05
1.51651e-05
-1.54667e-05
1.11703e-05
1.34154e-05
-1.3493e-05
1.11049e-05
1.10637e-05
-1.09983e-05
1.10059e-05
8.39011e-06
-8.29109e-06
1.08424e-05
5.10823e-06
-4.94481e-06
1.08014e-05
3.25878e-06
-3.21771e-06
1.10374e-05
-8.00254e-07
5.64182e-07
1.1277e-05
-3.94556e-06
3.70605e-06
1.13921e-05
-5.70709e-06
5.59197e-06
1.12645e-05
-7.1955e-06
7.32304e-06
1.08234e-05
-7.38361e-06
7.82478e-06
1.06358e-05
-7.48986e-06
7.67747e-06
1.08063e-05
-9.10387e-06
8.93336e-06
1.11084e-05
-1.18835e-05
1.15813e-05
1.14029e-05
-1.57652e-05
1.54707e-05
1.13641e-05
-1.84548e-05
1.84937e-05
1.1077e-05
-1.88904e-05
1.91775e-05
1.07728e-05
-1.86098e-05
1.8914e-05
1.02688e-05
-1.93225e-05
1.98265e-05
9.74758e-06
-1.94745e-05
1.99957e-05
9.34778e-06
-1.8994e-05
1.93938e-05
9.00204e-06
-1.81325e-05
1.84783e-05
8.49418e-06
-1.73674e-05
1.78753e-05
7.95426e-06
-1.60817e-05
1.66216e-05
7.2861e-06
-1.31728e-05
1.3841e-05
6.47591e-06
-9.4866e-06
1.02968e-05
5.99013e-06
-9.08443e-06
9.57021e-06
5.76055e-06
-8.10423e-06
8.3338e-06
6.06457e-06
-7.20341e-06
6.89939e-06
6.57817e-06
-6.8208e-06
6.3072e-06
7.36146e-06
-8.21738e-06
7.43409e-06
7.89087e-06
-8.83412e-06
8.30471e-06
8.26514e-06
-8.97189e-06
8.59761e-06
8.66732e-06
-9.07e-06
8.66783e-06
9.25153e-06
-9.76288e-06
9.17866e-06
9.75852e-06
-9.91259e-06
9.4056e-06
1.03104e-05
-9.8349e-06
9.28307e-06
1.08489e-05
-8.68471e-06
8.1462e-06
1.15217e-05
-7.38939e-06
6.71651e-06
1.19854e-05
-6.22645e-06
5.76285e-06
1.21926e-05
-4.79747e-06
4.59026e-06
1.24566e-05
-2.49331e-06
2.22927e-06
1.26303e-05
-2.4771e-07
7.39938e-08
1.25327e-05
1.67355e-06
-1.57589e-06
1.23174e-05
4.6361e-06
-4.42085e-06
1.19268e-05
7.8149e-06
-7.42429e-06
1.14494e-05
9.80894e-06
-9.3315e-06
1.11611e-05
1.2132e-05
-1.18437e-05
1.08576e-05
1.5147e-05
-1.48436e-05
1.05234e-05
1.72452e-05
-1.6911e-05
1.00431e-05
1.97304e-05
-1.92501e-05
9.39042e-06
2.14434e-05
-2.07907e-05
8.61701e-06
2.10236e-05
-2.02502e-05
7.83233e-06
2.0046e-05
-1.92613e-05
7.18592e-06
2.02208e-05
-1.95744e-05
6.4415e-06
2.09782e-05
-2.02338e-05
5.81775e-06
2.15278e-05
-2.09041e-05
5.04279e-06
2.24317e-05
-2.16568e-05
4.25984e-06
2.24858e-05
-2.17028e-05
3.77816e-06
2.28969e-05
-2.24152e-05
3.03041e-06
2.34578e-05
-2.27101e-05
2.71167e-06
2.34622e-05
-2.31434e-05
2.73443e-06
2.41822e-05
-2.42049e-05
2.55224e-06
2.48892e-05
-2.4707e-05
3.7713e-06
2.14645e-05
-2.26835e-05
3.40747e-06
2.37704e-05
-2.34066e-05
3.9354e-06
1.74144e-05
-1.79423e-05
5.03833e-06
1.85413e-05
-1.96442e-05
6.76034e-06
1.05095e-05
-1.22315e-05
6.83602e-06
1.37322e-05
-1.38079e-05
7.27125e-06
2.95497e-06
-3.3902e-06
7.39792e-06
5.74446e-06
-5.87113e-06
6.91338e-06
-3.57198e-06
4.05652e-06
6.4599e-06
-1.46292e-07
5.99777e-07
5.67891e-06
-8.1502e-06
8.93119e-06
5.53107e-06
-3.23172e-06
3.37956e-06
5.85462e-06
-1.3043e-05
1.27194e-05
5.94498e-06
-5.85226e-06
5.76191e-06
5.66092e-06
-1.38045e-05
1.40886e-05
4.50314e-06
-4.37293e-06
5.53071e-06
4.15113e-06
-1.06988e-05
1.10508e-05
2.44078e-06
-3.08786e-06
4.7982e-06
4.83824e-06
-6.17743e-07
4.89171e-06
-4.50162e-07
4.85054e-06
-4.74466e-07
4.77778e-06
5.77964e-08
5.17249e-06
6.45223e-07
6.08953e-06
2.58008e-06
7.0773e-06
3.44032e-06
8.42636e-06
1.97852e-06
1.00882e-05
2.29524e-06
1.15966e-05
2.69965e-06
1.25203e-05
1.62201e-06
1.30964e-05
1.10518e-06
1.38762e-05
-8.46562e-08
1.4404e-05
-2.62133e-06
1.4425e-05
-3.76008e-06
1.44205e-05
-4.66462e-06
1.47462e-05
-6.86212e-06
1.53926e-05
-9.15543e-06
1.63139e-05
-1.21233e-05
1.70726e-05
-1.46245e-05
1.73354e-05
-1.64477e-05
1.72097e-05
-1.75024e-05
1.68581e-05
-1.77375e-05
1.63924e-05
-1.76367e-05
1.58673e-05
-1.72469e-05
1.54232e-05
-1.66499e-05
1.49575e-05
-1.59685e-05
1.45276e-05
-1.5363e-05
1.40909e-05
-1.40558e-05
1.34945e-05
-1.31812e-05
1.29714e-05
-1.13563e-05
1.2529e-05
-1.03097e-05
1.20807e-05
-9.12198e-06
1.15486e-05
-7.82587e-06
1.09955e-05
-6.34573e-06
1.03788e-05
-5.23877e-06
9.99205e-06
-3.84568e-06
9.54219e-06
-2.02938e-06
8.88785e-06
-2.24496e-06
8.58362e-06
-2.7672e-06
8.62593e-06
-6.34904e-07
8.18579e-06
2.7048e-06
7.44607e-06
1.83092e-06
7.41446e-06
2.87803e-07
7.76195e-06
1.06015e-06
7.81525e-06
1.31167e-06
8.00743e-06
2.4738e-06
8.77067e-06
7.37027e-06
9.78071e-06
1.30223e-05
1.10143e-05
1.71915e-05
1.2122e-05
2.22066e-05
1.26376e-05
2.71161e-05
1.24729e-05
2.84106e-05
1.20508e-05
2.61217e-05
1.18248e-05
2.29354e-05
1.17804e-05
2.08257e-05
1.17154e-05
1.92692e-05
1.1476e-05
1.69105e-05
1.10287e-05
1.3273e-05
1.04503e-05
8.59823e-06
9.80567e-06
3.41242e-06
9.22141e-06
-2.07264e-06
8.85508e-06
-7.51153e-06
8.5985e-06
-1.1895e-05
8.21471e-06
-1.5513e-05
7.89055e-06
-1.96926e-05
7.96131e-06
-2.33912e-05
8.30454e-06
-2.49017e-05
8.49625e-06
-2.53052e-05
8.56329e-06
-2.53809e-05
8.83442e-06
-2.32134e-05
9.12369e-06
-1.81376e-05
8.92241e-06
-1.3735e-05
8.1886e-06
-1.44265e-05
7.34419e-06
-2.01886e-05
6.7875e-06
-2.53694e-05
6.40001e-06
-2.79123e-05
6.1503e-06
-2.94619e-05
6.01496e-06
-3.02925e-05
5.93966e-06
-3.05081e-05
5.92594e-06
-3.02284e-05
6.13176e-06
-2.7346e-05
6.45152e-06
-2.28277e-05
6.91496e-06
-2.05894e-05
7.51122e-06
-1.85095e-05
7.88602e-06
-1.47665e-05
8.24181e-06
-1.03622e-05
8.66096e-06
-6.10371e-06
8.90251e-06
-1.99608e-06
9.17438e-06
3.47182e-06
9.57366e-06
7.36959e-06
9.85369e-06
8.85717e-06
1.00893e-05
1.21639e-05
1.02413e-05
1.73873e-05
1.02087e-05
2.05717e-05
1.01044e-05
2.09221e-05
1.01346e-05
2.09997e-05
1.01629e-05
2.2179e-05
9.86997e-06
2.21483e-05
9.36105e-06
1.96893e-05
8.91715e-06
1.65549e-05
8.91266e-06
1.37447e-05
9.68145e-06
1.31411e-05
1.07414e-05
1.49981e-05
1.17248e-05
1.72956e-05