/*--------------------------------*- C++ -*----------------------------------*\
| =========                 |                                                 |
| \\      /  F ield         | OpenFOAM: The Open Source CFD Toolbox           |
|  \\    /   O peration     | Version:  2.4.0                                 |
|   \\  /    A nd           | Web:      www.OpenFOAM.org                      |
|    \\/     M anipulation  |                                                 |
\*---------------------------------------------------------------------------*/
FoamFile
{
    version     2.0;
    format      ascii;
    class       volScalarField;
    location    "0.055";
    object      k;
}
// * * * * * * * * * * * * * * * * * * * * * * * * * * * * * * * * * * * * * //

dimensions      [0 2 -2 0 0 0 0];

internalField   nonuniform List<scalar> 
17600
(
0.776147
4.43226
7.45694
8.34248
8.12623
7.44293
6.53076
5.74062
5.10902
4.62169
4.26284
3.9584
3.74972
3.54332
3.40545
3.25593
3.15355
3.03761
2.96517
2.86378
2.81492
2.72682
2.69025
2.61372
2.58722
2.51879
2.49958
2.43766
2.42544
2.36715
2.36427
2.31177
2.31867
2.26813
2.28562
2.22986
2.25825
2.18932
2.23618
2.11227
0.0131395
0.290284
1.05434
2.00723
2.67908
3.06339
3.19959
3.19353
3.16881
3.09942
3.04173
2.96963
2.91494
2.8327
2.79007
2.71656
2.67123
2.6025
2.57182
2.50904
2.48097
2.42645
2.40285
2.35042
2.32974
2.2839
2.2662
2.22427
2.20985
2.17011
2.15754
2.11996
2.10991
2.07574
2.06827
2.03958
2.03254
2.01203
1.9901
1.96089
9.47408e-05
0.00722253
0.0475537
0.148297
0.319329
0.535623
0.691465
0.786063
0.898067
0.943346
0.968697
1.01061
1.03314
1.04658
1.08144
1.10209
1.11346
1.13153
1.14636
1.15601
1.16912
1.18847
1.19746
1.21131
1.21777
1.22715
1.23095
1.23952
1.24271
1.25181
1.25338
1.25904
1.25739
1.26083
1.25699
1.26245
1.25861
1.26551
1.25971
1.24578
2.07316e-05
0.000143218
0.00140969
0.0062015
0.0178813
0.0449775
0.0825076
0.101491
0.141569
0.173576
0.185657
0.21235
0.228806
0.236787
0.255605
0.271957
0.279413
0.294965
0.304076
0.313259
0.318847
0.331745
0.339022
0.354647
0.362679
0.375246
0.381165
0.392795
0.398311
0.411343
0.417685
0.4325
0.43853
0.452048
0.456618
0.467909
0.471191
0.478162
0.474776
0.470338
2.02506e-05
2.26898e-05
5.36478e-05
0.000209243
0.000699307
0.00199738
0.00548676
0.0075984
0.0116244
0.0178589
0.02026
0.0254818
0.0295968
0.0316141
0.0357438
0.0411796
0.0441047
0.0503365
0.0535986
0.056678
0.0580164
0.0607502
0.062522
0.0674366
0.0709468
0.0755512
0.0779115
0.0810197
0.0823124
0.0851171
0.0865975
0.090277
0.0928102
0.0971105
0.0993639
0.102446
0.10343
0.105539
0.10521
0.104327
2.01399e-05
2.07624e-05
2.26907e-05
2.86009e-05
4.59161e-05
9.47358e-05
0.000244898
0.000394513
0.000575127
0.00112757
0.00135454
0.00191214
0.00212121
0.00250827
0.00275825
0.00346869
0.0038722
0.00503992
0.00554603
0.00627424
0.00638855
0.00671754
0.00686555
0.00769735
0.00821338
0.00958511
0.0100853
0.0111558
0.0112741
0.0116427
0.011635
0.0121598
0.0124398
0.0135459
0.0139323
0.0150362
0.0151817
0.0159198
0.015833
0.0160022
2.00724e-05
2.07112e-05
2.16337e-05
2.46006e-05
2.68911e-05
3.24489e-05
3.76451e-05
4.87669e-05
5.66182e-05
8.45493e-05
9.7465e-05
0.00013342
0.000144419
0.000163989
0.000174174
0.000211497
0.000238276
0.000335387
0.000392355
0.000458724
0.000462383
0.000473708
0.000470547
0.000520812
0.000570577
0.000730055
0.000834274
0.000938502
0.000931839
0.000944199
0.000923539
0.000944481
0.000967369
0.00107877
0.00118923
0.00130286
0.00131559
0.00132985
0.00132534
0.00139266
2.00533e-05
2.03695e-05
2.12505e-05
2.26529e-05
2.57625e-05
2.79285e-05
3.11057e-05
3.44511e-05
3.54715e-05
3.7693e-05
4.10756e-05
4.45083e-05
4.57073e-05
4.56179e-05
4.54246e-05
4.56448e-05
4.6496e-05
5.29398e-05
5.98301e-05
6.23512e-05
6.2672e-05
6.21117e-05
6.0786e-05
6.10609e-05
6.28475e-05
7.33077e-05
8.48662e-05
8.87909e-05
8.88789e-05
8.69059e-05
8.3265e-05
8.20245e-05
8.24983e-05
8.88894e-05
0.000100866
0.000106106
0.000108828
0.000108071
0.000108287
0.000122068
2.00129e-05
2.05375e-05
2.10905e-05
2.34036e-05
2.46707e-05
2.82658e-05
2.97366e-05
3.37294e-05
3.45308e-05
3.65942e-05
3.7208e-05
3.90193e-05
3.97009e-05
4.02868e-05
3.99823e-05
4.00194e-05
3.99134e-05
4.06961e-05
4.2193e-05
4.34054e-05
4.33713e-05
4.34149e-05
4.28145e-05
4.25053e-05
4.24159e-05
4.32726e-05
4.45322e-05
4.57524e-05
4.57972e-05
4.58256e-05
4.5401e-05
4.53285e-05
4.52477e-05
4.58976e-05
4.64755e-05
4.83448e-05
4.88398e-05
4.94623e-05
5.02843e-05
6.20932e-05
2.00042e-05
2.02808e-05
2.08721e-05
2.24372e-05
2.43382e-05
2.66129e-05
2.82644e-05
3.22495e-05
3.38579e-05
3.43302e-05
3.49381e-05
3.61255e-05
3.73346e-05
3.78638e-05
3.78466e-05
3.75994e-05
3.7505e-05
3.75776e-05
3.85312e-05
3.9261e-05
3.94303e-05
3.9397e-05
3.90624e-05
3.86589e-05
3.86506e-05
3.88955e-05
3.98203e-05
4.03287e-05
4.05744e-05
4.05022e-05
4.02736e-05
4.00665e-05
4.00957e-05
4.02002e-05
4.08438e-05
4.13419e-05
4.24781e-05
4.2971e-05
4.43269e-05
5.6069e-05
2.0004e-05
2.07644e-05
2.12065e-05
2.3585e-05
2.47541e-05
2.86484e-05
2.98265e-05
3.39646e-05
3.46831e-05
3.70044e-05
3.74105e-05
3.89444e-05
3.91396e-05
4.03518e-05
4.03555e-05
4.10057e-05
4.09935e-05
4.1638e-05
4.16962e-05
4.25924e-05
4.26747e-05
4.3299e-05
4.33172e-05
4.38015e-05
4.38089e-05
4.4502e-05
4.45557e-05
4.52207e-05
4.52638e-05
4.58212e-05
4.58208e-05
4.65051e-05
4.65543e-05
4.73195e-05
4.73717e-05
4.84857e-05
4.86596e-05
5.08745e-05
5.25715e-05
7.37745e-05
2.00334e-05
2.04811e-05
2.10315e-05
2.32398e-05
2.46582e-05
2.85853e-05
2.99891e-05
3.41597e-05
3.50714e-05
3.77074e-05
3.81692e-05
3.97371e-05
3.99835e-05
4.13621e-05
4.15332e-05
4.25153e-05
4.25516e-05
4.33073e-05
4.33153e-05
4.41759e-05
4.43233e-05
4.54774e-05
4.57067e-05
4.68428e-05
4.69344e-05
4.79225e-05
4.79232e-05
4.88682e-05
4.89563e-05
5.02873e-05
5.04676e-05
5.23088e-05
5.25437e-05
5.43611e-05
5.46389e-05
5.71919e-05
5.88015e-05
6.74211e-05
7.36827e-05
9.80091e-05
2.03202e-05
2.05173e-05
2.23488e-05
2.30957e-05
2.76655e-05
2.89503e-05
3.42663e-05
3.56889e-05
4.00239e-05
4.09791e-05
4.41122e-05
4.49993e-05
4.80747e-05
4.93643e-05
5.20399e-05
5.41038e-05
5.5309e-05
5.76614e-05
5.89857e-05
6.22249e-05
6.44865e-05
7.06955e-05
7.33302e-05
7.97722e-05
8.12791e-05
8.49691e-05
8.67108e-05
9.30926e-05
9.73947e-05
0.000110939
0.000117955
0.00013639
0.000143746
0.000161184
0.000169265
0.000192323
0.000214942
0.000287105
0.000340109
0.000456218
2.02339e-05
2.05537e-05
2.20691e-05
2.34578e-05
2.81056e-05
3.11128e-05
4.07284e-05
4.74026e-05
6.4465e-05
7.48695e-05
9.71086e-05
0.000110951
0.000147425
0.000166495
0.00020893
0.000228683
0.000269007
0.000291981
0.000344491
0.000372072
0.000439191
0.000493796
0.000563854
0.000630602
0.000689143
0.000713963
0.000785204
0.000837962
0.000973457
0.00108492
0.00125127
0.00137259
0.00154117
0.00166757
0.00178487
0.00199986
0.00222025
0.00276174
0.00314713
0.0039829
2.06545e-05
2.1281e-05
2.31985e-05
2.92499e-05
4.82045e-05
9.21935e-05
0.000247986
0.000389529
0.000723092
0.000940517
0.00137741
0.00163008
0.00226976
0.00257169
0.00322871
0.00353514
0.00415438
0.00448846
0.00525185
0.00560404
0.00648008
0.00690502
0.00775361
0.00827496
0.00904242
0.00936573
0.0102623
0.0107585
0.0119496
0.0126356
0.014043
0.0146716
0.0159865
0.016777
0.0179211
0.0192441
0.0207076
0.0233437
0.0249046
0.028091
2.04272e-05
2.29229e-05
5.13539e-05
0.000212273
0.000764233
0.00186729
0.00522011
0.00769397
0.0126352
0.0159859
0.0211526
0.0238193
0.0303651
0.0329255
0.0383106
0.0405896
0.0453417
0.0475886
0.0528845
0.054882
0.0600268
0.0620344
0.0665078
0.0685804
0.0733188
0.0749724
0.0801196
0.0822358
0.087798
0.0904032
0.0967252
0.0991959
0.105693
0.108495
0.116007
0.119418
0.127324
0.133203
0.137821
0.147779
2.06152e-05
0.000140725
0.00135051
0.00640382
0.0204148
0.0390501
0.0800897
0.109188
0.138784
0.168761
0.192057
0.206454
0.232416
0.241072
0.259145
0.266864
0.282094
0.28931
0.305824
0.311773
0.327205
0.333041
0.346466
0.353091
0.368672
0.374485
0.392049
0.398742
0.41621
0.423761
0.442609
0.449774
0.469696
0.477723
0.499968
0.507731
0.528635
0.533413
0.539931
0.557659
9.67691e-05
0.00718553
0.0466377
0.155844
0.326587
0.518395
0.689031
0.80611
0.873958
0.951793
0.974118
1.01039
1.03354
1.05609
1.07246
1.10109
1.11126
1.13377
1.14676
1.16282
1.17928
1.19115
1.19819
1.21656
1.2247
1.23363
1.24847
1.25505
1.26342
1.27347
1.28014
1.28796
1.2963
1.30442
1.3099
1.31375
1.31259
1.31061
1.30482
1.32293
0.0132381
0.290132
1.0363
2.02921
2.67464
3.06284
3.19874
3.19657
3.15738
3.11824
3.02592
2.98551
2.89308
2.85439
2.76556
2.73224
2.6532
2.62534
2.55202
2.52889
2.46406
2.44246
2.38526
2.36735
2.31368
2.29935
2.25093
2.23709
2.19288
2.17957
2.13731
2.12434
2.0836
2.06975
2.02866
2.01353
1.97285
1.96352
1.94148
1.93491
0.776248
4.42913
7.45228
8.35416
8.12229
7.45666
6.50808
5.75339
5.09182
4.64216
4.23538
3.98578
3.71314
3.57626
3.36678
3.28505
3.12008
3.06131
2.92767
2.88782
2.77213
2.74373
2.64673
2.62169
2.5346
2.51507
2.43221
2.41394
2.33721
2.31558
2.24377
2.21774
2.15094
2.11652
2.06043
2.01052
1.98038
1.91627
1.8975
1.79222
1.60812
1.25079
1.04972
0.927942
0.844937
0.785491
0.739844
0.704258
0.675661
0.653683
0.636918
0.623637
0.612912
0.603678
0.595278
0.587281
0.579179
0.57161
0.564811
0.559494
0.554031
0.548943
0.544864
0.540119
0.532806
0.520912
0.507322
0.48338
0.43852
0.380118
0.319188
0.266685
0.226736
0.19691
0.174441
0.157188
0.143398
0.131987
0.122348
0.113995
0.106733
0.10044
0.0949011
0.0901341
0.0857913
0.081733
0.0783
0.0752046
0.0726709
0.0703215
0.0686796
0.0670973
0.0659395
0.0658165
0.0660183
0.0665716
0.0678529
0.0693479
0.0718372
0.074191
0.077662
0.0814565
0.0873356
0.0935208
0.101832
0.110182
0.118182
0.125516
0.131589
0.136567
0.136954
0.136175
0.133856
0.130892
0.127039
0.122279
0.116936
0.109476
0.101407
0.0912756
0.0791249
0.0638152
0.0505058
0.0362609
0.0253068
0.017745
0.0125122
0.00898226
0.00661413
0.00508143
0.00418109
0.00365036
0.00340835
0.00341354
0.00346154
0.00361521
0.00384007
0.00437132
0.0049371
0.0057062
0.00701929
0.00817536
0.0095802
0.011355
0.0127964
0.0143067
0.01585
0.0169441
0.0179975
0.0189114
0.0194234
0.0198933
0.0202327
0.0202677
0.020244
0.0201702
0.0200343
0.0196669
0.0193093
0.0187781
0.0176238
0.016696
0.016278
0.0160119
0.0159531
0.0162032
0.0169418
0.0172907
0.0173287
0.0176654
0.019389
0.0205578
0.0206575
0.0196339
0.0186542
0.0182926
0.0182531
0.0180181
0.0165979
0.0141519
0.0115109
0.00929826
0.00778656
0.00691334
0.00643906
0.00616813
0.00602794
0.00598457
0.00597692
0.00582206
0.00542658
0.00505729
0.0048323
0.00476744
0.0047656
0.00470692
0.00460315
0.00467335
0.00524048
0.00571529
0.00598521
0.00611285
0.00609442
0.00555205
0.00457993
0.00377776
0.00328017
0.00307
0.00303353
0.0030575
0.00309191
0.00311152
0.00313965
0.00336064
0.00404713
0.00476788
0.00537842
0.00575087
0.0058466
0.0056496
0.0052075
0.00505755
0.00536223
0.00632714
0.00682534
0.00687443
0.00656232
0.00615147
0.00598654
0.00597865
0.00602442
0.00603622
0.00595905
0.00575871
0.00559111
0.00548497
0.00545231
0.00550355
0.00601459
0.00658235
0.00713869
0.00739748
0.00755289
0.00754639
0.00749008
0.00713527
0.0068145
0.00643888
0.00605554
0.00568462
0.00518116
0.00473088
0.00410767
0.00359278
0.00296429
0.00246881
0.00195124
0.00154815
0.00118576
0.000903925
0.00067856
0.00050648
0.000376207
0.000280255
0.00020742
0.000155128
0.000115567
8.70093e-05
6.64428e-05
5.13115e-05
4.06073e-05
3.2742e-05
2.67209e-05
2.32932e-05
1.96494e-05
1.83411e-05
1.63804e-05
1.55773e-05
1.4397e-05
1.39098e-05
1.31421e-05
1.283e-05
1.23072e-05
1.23635e-05
1.24877e-05
1.29246e-05
1.29832e-05
1.34323e-05
1.35212e-05
1.37602e-05
1.39707e-05
1.45859e-05
1.47853e-05
1.53655e-05
1.61291e-05
1.77334e-05
1.81395e-05
1.91593e-05
1.96001e-05
2.05369e-05
2.08783e-05
2.19061e-05
2.25315e-05
2.38026e-05
2.43344e-05
2.56132e-05
2.61758e-05
2.73413e-05
2.78406e-05
2.91442e-05
3.00777e-05
3.15305e-05
3.23618e-05
3.38845e-05
3.46648e-05
3.62572e-05
3.70766e-05
3.88518e-05
3.98838e-05
4.17056e-05
4.26831e-05
4.4686e-05
4.57839e-05
4.79798e-05
4.91797e-05
5.15175e-05
5.28588e-05
5.52836e-05
5.67242e-05
5.90256e-05
6.10083e-05
6.34439e-05
6.50473e-05
6.81558e-05
6.96787e-05
7.26818e-05
7.4333e-05
7.73525e-05
7.89984e-05
8.2488e-05
8.40925e-05
8.75304e-05
8.90473e-05
9.22661e-05
9.37193e-05
9.71214e-05
9.84646e-05
0.000101706
0.000102853
0.000105846
0.000106845
0.000109718
0.000110459
0.000113136
0.000113501
0.00011591
0.000115829
0.000117499
0.000116878
0.000118552
0.000117594
0.000119273
0.000118222
0.00011964
0.000118668
0.000120309
0.000119424
0.000120929
0.000120813
0.000122403
0.000122839
0.000124237
0.000126265
0.000127239
0.000129615
0.000130731
0.000135113
0.000136444
0.000142308
0.000145111
0.000157104
0.000161095
0.00017889
0.000184027
0.000207628
0.000214032
0.000244603
0.000252736
0.000292189
0.000302753
0.000349096
0.000362016
0.000417472
0.000434242
0.000492771
0.00051091
0.000571455
0.000591738
0.000650406
0.000667209
0.000707928
0.000711586
0.000716982
0.000703354
0.000688046
0.000639503
0.000612068
0.000562806
0.000544769
0.000545591
0.000551613
0.000587325
0.000611352
0.000703992
0.000744106
0.000891563
0.00093477
0.00111522
0.00115349
0.00128535
0.00121493
0.00118842
0.00105253
0.00106171
0.00110408
0.00118503
0.00156713
0.00169153
0.00257473
0.00250262
0.0030051
0.00287291
0.00330947
0.00508055
0.00647491
0.01332
0.0167029
0.0333769
0.185713
2.02595
1.77343
1.57739
1.41251
1.28436
1.18087
1.09408
1.019
0.952837
0.894505
0.84283
0.796619
0.755167
0.717854
0.684166
0.653612
0.625865
0.601457
0.579153
0.560068
0.542852
0.529712
0.519608
0.513303
0.5133
0.514985
0.519414
0.525093
0.532845
0.536063
0.535413
0.532322
0.525108
0.510747
0.490405
0.465898
0.439192
0.411312
0.384182
0.358453
0.333997
0.311015
0.289952
0.270787
0.253253
0.237604
0.223062
0.210441
0.199544
0.189682
0.182478
0.175742
0.171457
0.168213
0.165447
0.165053
0.165436
0.166419
0.168799
0.171246
0.174407
0.177704
0.180116
0.181265
0.180685
0.178849
0.175207
0.170697
0.166186
0.160059
0.154717
0.146517
0.139871
0.130012
0.121279
0.108603
0.0940459
0.0784395
0.0628311
0.0483234
0.0343641
0.024377
0.0173093
0.0123246
0.0088221
0.0064532
0.00483834
0.00379529
0.00320781
0.00284142
0.00278759
0.002822
0.0029245
0.0031491
0.0035643
0.00434199
0.00548197
0.00700857
0.00920983
0.0113514
0.0142917
0.0172414
0.0202514
0.0235807
0.0266025
0.0293334
0.03182
0.0339506
0.0352607
0.0361843
0.0366051
0.0365583
0.0363682
0.0360133
0.0353758
0.0345958
0.0341277
0.0332521
0.0326318
0.0321042
0.031265
0.0305475
0.0302449
0.0299817
0.0295082
0.0292014
0.0288703
0.0274355
0.0255076
0.0245912
0.0246652
0.0249956
0.0247826
0.0223708
0.0196682
0.0183637
0.0177854
0.0165669
0.0142496
0.0122259
0.0106669
0.00935159
0.00825172
0.00745172
0.00704744
0.00698837
0.00715173
0.00730461
0.0072556
0.00676644
0.00618291
0.00569354
0.00541435
0.00534286
0.00538327
0.0054161
0.00537162
0.00508868
0.00492575
0.00493623
0.00550854
0.00616743
0.00634954
0.00613424
0.00519902
0.00446801
0.00403155
0.00381291
0.00367358
0.0035064
0.00329643
0.00309707
0.00297938
0.00296093
0.00314226
0.00357259
0.00389515
0.00411716
0.00430929
0.00452908
0.00472984
0.00481094
0.00475777
0.00443668
0.00421994
0.00418305
0.00441219
0.00504612
0.00550052
0.00566462
0.00566295
0.0056212
0.00569606
0.00618621
0.00667801
0.00703946
0.00719756
0.00723911
0.00710935
0.00661363
0.00621708
0.0059857
0.00593965
0.0060214
0.00628271
0.00639786
0.00645957
0.00645401
0.00644227
0.00641364
0.00617907
0.00573155
0.00516189
0.00455043
0.00394201
0.0032689
0.00272115
0.00214211
0.00172474
0.00131286
0.00102931
0.000767656
0.000588428
0.000433486
0.000326408
0.000240072
0.000180085
0.000134161
0.000101119
7.79193e-05
5.98074e-05
4.86159e-05
3.88869e-05
3.32878e-05
2.84075e-05
2.52092e-05
2.26164e-05
2.07525e-05
1.91435e-05
1.8219e-05
1.73662e-05
1.71577e-05
1.71661e-05
1.71658e-05
1.71684e-05
1.69493e-05
1.68362e-05
1.68692e-05
1.70014e-05
1.71935e-05
1.75067e-05
1.80725e-05
1.93452e-05
1.98139e-05
2.08581e-05
2.11985e-05
2.18914e-05
2.25337e-05
2.37288e-05
2.42449e-05
2.53262e-05
2.6264e-05
2.76886e-05
2.80764e-05
2.90333e-05
2.99958e-05
3.12858e-05
3.19917e-05
3.38176e-05
3.47928e-05
3.64371e-05
3.70042e-05
3.84125e-05
3.9551e-05
4.14048e-05
4.22114e-05
4.41026e-05
4.51572e-05
4.68434e-05
4.7733e-05
4.96151e-05
5.09922e-05
5.3546e-05
5.46606e-05
5.69045e-05
5.82034e-05
6.07599e-05
6.23628e-05
6.55433e-05
6.72146e-05
7.07495e-05
7.2476e-05
7.58741e-05
7.79049e-05
8.21073e-05
8.43877e-05
8.8956e-05
9.13117e-05
9.61243e-05
9.89692e-05
0.000104793
0.00010779
0.000113974
0.000117197
0.000123968
0.000127725
0.000135574
0.000139364
0.000147575
0.000151808
0.000160909
0.00016572
0.000176213
0.000181031
0.000191766
0.000197389
0.000209918
0.000216102
0.000230167
0.000236476
0.000251223
0.000258194
0.000275134
0.000281764
0.000298899
0.000305376
0.000323209
0.000329283
0.000347271
0.000352578
0.000369439
0.000373571
0.000389002
0.000392449
0.000405691
0.000408034
0.000418503
0.000419641
0.000426294
0.000426489
0.000427992
0.000426953
0.000422672
0.000419871
0.000408177
0.00040324
0.000385063
0.000379514
0.00036086
0.000358374
0.000349452
0.000350488
0.000353696
0.000355808
0.000367579
0.000373978
0.000405406
0.000415366
0.000468827
0.00048308
0.000564815
0.000583786
0.000691737
0.000712657
0.000844906
0.000871438
0.00101688
0.0010412
0.00116157
0.00115013
0.00118997
0.0011352
0.00112444
0.00102676
0.000990793
0.000910031
0.00091427
0.000970193
0.000997614
0.00119117
0.00123568
0.00160484
0.00165931
0.00204351
0.00194175
0.00205669
0.00176245
0.00180458
0.00187548
0.00207215
0.00314724
0.00326828
0.00509462
0.004431
0.00544035
0.00675616
0.00953065
0.0258707
0.0305676
0.0824312
0.497789
1.1677
1.0832
1.00254
0.933848
0.874385
0.821766
0.774716
0.73193
0.693041
0.656938
0.623457
0.592304
0.562779
0.535128
0.50952
0.485161
0.463091
0.442613
0.424086
0.407912
0.393225
0.381404
0.371064
0.363108
0.356326
0.352365
0.349263
0.348924
0.349492
0.351307
0.354723
0.35996
0.364064
0.369257
0.373343
0.373719
0.372881
0.370469
0.365716
0.361045
0.355787
0.350574
0.345088
0.339724
0.334415
0.329452
0.324449
0.319545
0.314669
0.309435
0.303871
0.297635
0.291517
0.284671
0.277285
0.270369
0.261977
0.254092
0.245224
0.236314
0.226704
0.216991
0.206402
0.19483
0.182511
0.168647
0.154753
0.13874
0.123735
0.106659
0.0915827
0.0749226
0.060857
0.045803
0.0342597
0.025511
0.0189506
0.0140595
0.0104542
0.00776667
0.0058507
0.00444737
0.00348186
0.00283254
0.00246284
0.00224681
0.00225295
0.00230305
0.00242365
0.00269688
0.00329787
0.00414758
0.00561904
0.0078232
0.0105143
0.0147529
0.0188358
0.0242136
0.0295197
0.0355447
0.0409552
0.046766
0.0517243
0.0563874
0.060102
0.0626928
0.0644829
0.0645465
0.0642781
0.0634898
0.0618616
0.0594883
0.0572382
0.0538405
0.0510254
0.0484506
0.0449832
0.0427851
0.0406283
0.0380298
0.036807
0.035649
0.0343101
0.0339373
0.0338772
0.0338619
0.034081
0.0346356
0.0372239
0.0399915
0.0407814
0.0399542
0.0351169
0.0297536
0.0251753
0.0211075
0.0173817
0.0143721
0.0122346
0.0107338
0.00961966
0.00892219
0.00868468
0.00872859
0.00897054
0.00909123
0.00897453
0.00837157
0.00758016
0.00687242
0.00634368
0.00600204
0.00587568
0.00595223
0.00647634
0.00676987
0.00673989
0.00604842
0.00541456
0.00521451
0.00527219
0.00554901
0.00559953
0.00532116
0.004565
0.00407924
0.00388449
0.00383171
0.00381266
0.00379695
0.00376143
0.00362386
0.00354171
0.003557
0.00381373
0.0040706
0.00416921
0.00417012
0.00408387
0.00402869
0.00404821
0.00438298
0.00484336
0.00511107
0.00521435
0.00522889
0.0050824
0.00470856
0.00450228
0.00450018
0.00509314
0.00605722
0.00658768
0.00680342
0.00693536
0.00705934
0.00728367
0.00742589
0.00756168
0.00755736
0.00746624
0.00705456
0.00678406
0.00648246
0.0063319
0.00621022
0.00618808
0.00617851
0.00620706
0.00620549
0.00618454
0.00563849
0.00519513
0.0041993
0.00370289
0.0028536
0.00238237
0.00178302
0.00141365
0.00104781
0.000801213
0.000595942
0.000450876
0.000338349
0.000257922
0.000196376
0.000151919
0.000119256
9.44946e-05
7.72898e-05
6.33288e-05
5.34475e-05
4.53804e-05
3.97602e-05
3.50993e-05
3.15587e-05
2.8769e-05
2.67074e-05
2.49445e-05
2.38916e-05
2.26211e-05
2.18204e-05
2.10865e-05
2.05063e-05
2.01984e-05
1.972e-05
1.94966e-05
1.92892e-05
1.92361e-05
1.90959e-05
1.90393e-05
1.91388e-05
1.94207e-05
1.95736e-05
1.99648e-05
2.00134e-05
2.0163e-05
2.05079e-05
2.11061e-05
2.10916e-05
2.14004e-05
2.20136e-05
2.2304e-05
2.24743e-05
2.29062e-05
2.31885e-05
2.3651e-05
2.38088e-05
2.44962e-05
2.48105e-05
2.52999e-05
2.54888e-05
2.5995e-05
2.65284e-05
2.70386e-05
2.72709e-05
2.81131e-05
2.84548e-05
2.89638e-05
2.92718e-05
3.00942e-05
3.0485e-05
3.12333e-05
3.19829e-05
3.23774e-05
3.31454e-05
3.35737e-05
3.45033e-05
3.49743e-05
3.59826e-05
3.6391e-05
3.74442e-05
3.78934e-05
3.91171e-05
3.96092e-05
4.09237e-05
4.14564e-05
4.29142e-05
4.34098e-05
4.52807e-05
4.58642e-05
4.77374e-05
4.84247e-05
5.06929e-05
5.13753e-05
5.41851e-05
5.4962e-05
5.79227e-05
5.89222e-05
6.25932e-05
6.35209e-05
6.79667e-05
6.91218e-05
7.41754e-05
7.55105e-05
8.17457e-05
8.31988e-05
9.06627e-05
9.24574e-05
0.000101576
0.000103705
0.000114824
0.000117399
0.000130992
0.00013414
0.000151043
0.000154935
0.000174971
0.000179745
0.000204207
0.000210126
0.000238723
0.000246003
0.000279014
0.000287958
0.000325944
0.000337828
0.000381292
0.000396012
0.000442971
0.000459683
0.000510653
0.000530757
0.000583843
0.00061042
0.000655099
0.000701956
0.000729929
0.000779293
0.000796098
0.000832388
0.000840039
0.000861678
0.000864543
0.00086392
0.000859228
0.000836853
0.000821507
0.000766143
0.000751616
0.000712112
0.000709708
0.000711707
0.000719927
0.00075308
0.000775424
0.00086489
0.000903955
0.00106126
0.00111114
0.00132038
0.00138009
0.00163913
0.00169168
0.00188349
0.00183572
0.00187588
0.0017153
0.00166713
0.00151053
0.00153788
0.00167488
0.00175464
0.0022396
0.00228633
0.00320037
0.00314354
0.00378856
0.00316848
0.00350881
0.00367277
0.00410364
0.00690707
0.00688879
0.0145805
0.0133824
0.024154
0.0273124
0.036879
0.129095
0.453668
0.436405
0.415659
0.394935
0.372132
0.350205
0.330299
0.311934
0.295405
0.279969
0.265476
0.251682
0.238299
0.225408
0.213123
0.201152
0.190164
0.179759
0.170194
0.162041
0.154393
0.148604
0.143239
0.139552
0.136883
0.135187
0.13517
0.135603
0.136652
0.139001
0.141897
0.145043
0.149419
0.152923
0.157556
0.162492
0.167546
0.173266
0.178467
0.182699
0.186324
0.188754
0.1907
0.191483
0.191262
0.190449
0.188614
0.186206
0.183092
0.179551
0.175354
0.170579
0.165031
0.158781
0.152058
0.144097
0.136156
0.127042
0.117562
0.107711
0.0970661
0.0864437
0.0755397
0.0653365
0.0558442
0.0472793
0.0396211
0.0328764
0.0270145
0.0220004
0.0177878
0.014288
0.0114044
0.00905742
0.00716735
0.00563369
0.0044563
0.0035117
0.00281949
0.00230787
0.00198157
0.00176687
0.00172565
0.00174696
0.00182544
0.00199004
0.00229214
0.00292855
0.00369885
0.00541424
0.00756609
0.0106989
0.0153108
0.0211961
0.0289299
0.0386091
0.0481603
0.0603515
0.0711431
0.0831526
0.0927461
0.102687
0.112046
0.118044
0.122582
0.12404
0.123715
0.122485
0.119945
0.115514
0.110103
0.104122
0.0973916
0.0898674
0.0822818
0.0746956
0.0673638
0.0607542
0.0547865
0.049942
0.0460291
0.0424624
0.0391898
0.0366995
0.0351036
0.0338293
0.0331516
0.0331947
0.0340759
0.0376914
0.0394996
0.040863
0.0416078
0.0413398
0.0397108
0.035113
0.0285323
0.0225878
0.0180327
0.015189
0.0137999
0.0132228
0.0127226
0.0119813
0.011124
0.0102493
0.0093667
0.00842781
0.00756182
0.00688151
0.00648603
0.00641977
0.00674396
0.00732357
0.00758285
0.00756336
0.00695228
0.00609812
0.00540432
0.00492733
0.00470605
0.00466673
0.00468177
0.00464991
0.00431921
0.00387954
0.00360426
0.00353894
0.00362109
0.00371107
0.00368684
0.00350272
0.00340004
0.00344641
0.00412365
0.00507292
0.00570988
0.00595984
0.00597047
0.00565661
0.00525036
0.00505235
0.00507218
0.00577575
0.0068436
0.00757762
0.00780434
0.0076254
0.00656444
0.00571378
0.00542386
0.00557265
0.00641703
0.00695754
0.00708661
0.00702018
0.00684346
0.00678204
0.00683134
0.00695923
0.00707645
0.00707813
0.00698834
0.00672575
0.00651826
0.00637375
0.00627592
0.00627164
0.00625434
0.00625034
0.00603402
0.00558709
0.00473372
0.0040039
0.00323835
0.00256697
0.00202218
0.00154686
0.00120689
0.000914311
0.000711463
0.000538741
0.00041833
0.000316673
0.000246039
0.000187046
0.000145097
0.000111993
8.69461e-05
6.91608e-05
5.4126e-05
4.52157e-05
3.63547e-05
3.18835e-05
2.68573e-05
2.4799e-05
2.2011e-05
2.10166e-05
1.94312e-05
1.90686e-05
1.85125e-05
1.85397e-05
1.83786e-05
1.85112e-05
1.86335e-05
1.9199e-05
1.95977e-05
2.07256e-05
2.14274e-05
2.30228e-05
2.37202e-05
2.5324e-05
2.61134e-05
2.78328e-05
2.8714e-05
3.07474e-05
3.17725e-05
3.30278e-05
3.57797e-05
3.66581e-05
3.8511e-05
4.05698e-05
4.22616e-05
4.56371e-05
4.70546e-05
4.89722e-05
5.25963e-05
5.34398e-05
5.54555e-05
5.76907e-05
6.13415e-05
6.28664e-05
6.67082e-05
6.84606e-05
7.234e-05
7.38054e-05
7.76975e-05
8.02861e-05
8.58982e-05
8.78496e-05
9.2743e-05
9.46489e-05
9.99422e-05
0.000103054
0.000110109
0.000112793
0.000119786
0.000122099
0.000128527
0.00013156
0.000139287
0.000142702
0.000151733
0.000154617
0.000162432
0.00016591
0.000175284
0.000178994
0.000188855
0.000192058
0.000201192
0.000205135
0.000215121
0.000218504
0.000227941
0.00023148
0.000240769
0.000244675
0.000253576
0.000256671
0.00026602
0.000269734
0.000274578
0.000283488
0.000286823
0.000293137
0.000296011
0.000303149
0.000304514
0.000310887
0.000310835
0.000314593
0.00031197
0.000315267
0.000309006
0.000310982
0.000303755
0.000305881
0.000298675
0.000300394
0.000294288
0.000296763
0.000292555
0.00029538
0.000294609
0.000297805
0.000298574
0.00030033
0.000305071
0.000309404
0.000323442
0.000328193
0.000351581
0.000358114
0.00039295
0.000400942
0.000452149
0.000462317
0.000532735
0.000546266
0.000637892
0.000655372
0.000772286
0.000794664
0.000932035
0.000960035
0.00113015
0.00116885
0.00136296
0.00140015
0.00156918
0.00158502
0.00169562
0.00168911
0.00174181
0.00168101
0.00167888
0.00157134
0.00153238
0.00140385
0.00140165
0.00141378
0.00143819
0.00158953
0.00164294
0.00198063
0.00204564
0.00259017
0.00269839
0.00330141
0.00325601
0.00354103
0.00316519
0.0032031
0.00293541
0.00301247
0.00343636
0.00363994
0.00541904
0.0052323
0.0090985
0.00829584
0.013613
0.0122098
0.0149464
0.0156454
0.017408
0.026098
0.0283278
0.0465734
0.101082
0.0974904
0.09321
0.0892832
0.0854623
0.0817647
0.0782804
0.0750072
0.0719057
0.0689834
0.0660846
0.0633101
0.0605607
0.0578216
0.0552566
0.0526094
0.0502136
0.0478572
0.0456464
0.0437503
0.0418944
0.0404521
0.0391596
0.0380659
0.0373773
0.0367678
0.0365508
0.0365834
0.0367274
0.0370494
0.0377377
0.0385892
0.0398119
0.0410686
0.0424867
0.0441117
0.0455773
0.0472013
0.0486958
0.0500624
0.051262
0.0523377
0.0530603
0.0536704
0.0536734
0.053494
0.0530572
0.0522096
0.0511102
0.049748
0.0480735
0.0461639
0.0439856
0.0415979
0.0390224
0.0362982
0.033513
0.0306411
0.0277811
0.0249583
0.0221887
0.0195578
0.0170452
0.0147321
0.0126104
0.0107029
0.0090229
0.00754831
0.00627992
0.00519296
0.00427859
0.00351396
0.00287403
0.00235821
0.00194887
0.00164401
0.00143131
0.00130898
0.00126526
0.00128371
0.00132537
0.00144011
0.0016254
0.00188648
0.00257013
0.00334426
0.00486376
0.00711449
0.00946521
0.0155605
0.0203858
0.0309419
0.0430051
0.0581601
0.0791001
0.0974244
0.120636
0.143892
0.162913
0.177727
0.188043
0.193272
0.193074
0.191922
0.189449
0.185523
0.181551
0.177125
0.172489
0.167755
0.162658
0.157462
0.150679
0.143835
0.135384
0.125216
0.114493
0.101411
0.0870954
0.0737648
0.0631003
0.0550159
0.048571
0.0433192
0.0389904
0.0357929
0.0339146
0.0319463
0.0310763
0.0312156
0.0318074
0.0334404
0.0350483
0.0357358
0.0356471
0.0347009
0.0329462
0.0285896
0.0240227
0.0202424
0.0172509
0.0151009
0.0135412
0.0122865
0.0110554
0.00989335
0.00893053
0.00844247
0.00845538
0.00943363
0.0105286
0.0110358
0.0109605
0.00977742
0.008224
0.00693507
0.00594853
0.00529222
0.00496174
0.00474862
0.00455268
0.00448386
0.00453736
0.00454785
0.00430725
0.00420062
0.00430964
0.00437835
0.00434371
0.00438702
0.00447867
0.00435847
0.00390944
0.00377412
0.00423711
0.00586291
0.00712418
0.00783764
0.00804113
0.00781332
0.00672911
0.00567987
0.00490261
0.00449157
0.00442373
0.00488315
0.00599916
0.00679839
0.0071073
0.00706121
0.00650732
0.0061258
0.00606997
0.00627072
0.00661475
0.00673735
0.00674825
0.00667482
0.00666886
0.00686301
0.00711137
0.00728595
0.00732417
0.00727347
0.00693033
0.00658397
0.00620998
0.0060204
0.0056222
0.0054076
0.00481473
0.00444298
0.00364911
0.00321309
0.00256594
0.00217896
0.00174586
0.0014506
0.00117766
0.000964257
0.000789276
0.000637547
0.000523798
0.000413894
0.000340313
0.000262724
0.000215487
0.000164985
0.000133943
0.000103802
8.34666e-05
6.60895e-05
5.39146e-05
4.39553e-05
3.78216e-05
3.22832e-05
2.94971e-05
2.67966e-05
2.51669e-05
2.39266e-05
2.30523e-05
2.25119e-05
2.21503e-05
2.21067e-05
2.22116e-05
2.25219e-05
2.29661e-05
2.39802e-05
2.44204e-05
2.5382e-05
2.59208e-05
2.70772e-05
2.7629e-05
2.86215e-05
3.03216e-05
3.13078e-05
3.33363e-05
3.44827e-05
3.54537e-05
3.78517e-05
3.85454e-05
4.00591e-05
4.12677e-05
4.33165e-05
4.50688e-05
4.62516e-05
4.81723e-05
5.07884e-05
5.18309e-05
5.42681e-05
5.70727e-05
5.81301e-05
6.10085e-05
6.29723e-05
6.47144e-05
6.80918e-05
7.03208e-05
7.22322e-05
7.66132e-05
7.81985e-05
8.131e-05
8.4092e-05
8.89061e-05
9.09779e-05
9.55785e-05
9.78007e-05
0.000103144
0.000106152
0.000112713
0.000115634
0.000122009
0.000124966
0.000132316
0.000135995
0.000144258
0.000148452
0.000157984
0.000162166
0.000172214
0.000177187
0.000188069
0.000193428
0.000205369
0.000212469
0.000223844
0.000233804
0.000243966
0.000256381
0.000267283
0.000283195
0.000293827
0.000312447
0.000323863
0.000346271
0.000359156
0.000385205
0.000399844
0.000430101
0.000446697
0.000482156
0.00050058
0.00054127
0.000562574
0.00061148
0.000633633
0.000687835
0.000710822
0.000772456
0.000793805
0.000858538
0.000877273
0.000943641
0.000959975
0.00102687
0.00103885
0.00110095
0.00110996
0.00116856
0.0011743
0.00122424
0.00122567
0.00126398
0.00126154
0.00128573
0.00127725
0.00128535
0.00127794
0.00125965
0.00124292
0.00118971