/*--------------------------------*- C++ -*----------------------------------*\
| =========                 |                                                 |
| \\      /  F ield         | OpenFOAM: The Open Source CFD Toolbox           |
|  \\    /   O peration     | Version:  2.4.0                                 |
|   \\  /    A nd           | Web:      www.OpenFOAM.org                      |
|    \\/     M anipulation  |                                                 |
\*---------------------------------------------------------------------------*/
FoamFile
{
    version     2.0;
    format      ascii;
    class       surfaceScalarField;
    location    "0.055";
    object      phi_0;
}
// * * * * * * * * * * * * * * * * * * * * * * * * * * * * * * * * * * * * * //

dimensions      [0 3 -1 0 0 0 0];

internalField   nonuniform List<scalar> 
34880
(
5.48773e-06
7.01227e-06
3.12474e-06
2.36299e-06
2.47244e-06
6.523e-07
2.21955e-06
2.52889e-07
2.07388e-06
1.45671e-07
1.96862e-06
1.05261e-07
1.88615e-06
8.24645e-08
1.82046e-06
6.56887e-08
1.77208e-06
4.83832e-08
1.738e-06
3.40818e-08
1.70402e-06
3.39779e-08
1.68189e-06
2.21259e-08
1.65955e-06
2.23446e-08
1.63888e-06
2.06746e-08
1.63631e-06
2.56098e-09
1.6264e-06
9.91163e-09
1.65501e-06
-2.86101e-08
1.68927e-06
-3.426e-08
1.73949e-06
-5.02159e-08
-9.24594e-07
2.66408e-06
1.01106e-05
9.40163e-06
7.82903e-06
4.6446e-06
6.71007e-06
1.77126e-06
6.06469e-06
8.98272e-07
5.64346e-06
5.66898e-07
5.3512e-06
3.97519e-07
5.1219e-06
3.11766e-07
4.94302e-06
2.44575e-07
4.80673e-06
1.84666e-07
4.70012e-06
1.40697e-07
4.60641e-06
1.2769e-07
4.53887e-06
8.96643e-08
4.4694e-06
9.18172e-08
4.41788e-06
7.21927e-08
4.37963e-06
4.08059e-08
4.35373e-06
3.58096e-08
4.36898e-06
-4.38537e-08
4.41184e-06
-7.71251e-08
4.56849e-06
-2.06858e-07
-1.40868e-06
5.05258e-06
1.24256e-05
9.47603e-06
1.1002e-05
6.06821e-06
9.9804e-06
2.79285e-06
9.20391e-06
1.67476e-06
8.61543e-06
1.15538e-06
8.19316e-06
8.19784e-07
7.8561e-06
6.48833e-07
7.59163e-06
5.09041e-07
7.38559e-06
3.90708e-07
7.21855e-06
3.07733e-07
7.07504e-06
2.71198e-07
6.9689e-06
1.95804e-07
6.85879e-06
2.01928e-07
6.78195e-06
1.4903e-07
6.70875e-06
1.14005e-07
6.6657e-06
7.88659e-08
6.65906e-06
-3.72177e-08
6.68137e-06
-9.94367e-08
6.88223e-06
-4.07718e-07
-1.69703e-06
7.17058e-06
1.34133e-05
8.56275e-06
1.28864e-05
6.59504e-06
1.23258e-05
3.35354e-06
1.17183e-05
2.28217e-06
1.1128e-05
1.74572e-06
1.06631e-05
1.28475e-06
1.02719e-05
1.03999e-06
9.95502e-06
8.25922e-07
9.70415e-06
6.41571e-07
9.49418e-06
5.17705e-07
9.31261e-06
4.52774e-07
9.17785e-06
3.30565e-07
9.03483e-06
3.44944e-07
8.93658e-06
2.47278e-07
8.8371e-06
2.13488e-07
8.77269e-06
1.43272e-07
8.74969e-06
-1.42196e-08
8.73926e-06
-8.90061e-08
8.94933e-06
-6.17781e-07
-1.84746e-06
9.09976e-06
1.35927e-05
7.47006e-06
1.3658e-05
6.52978e-06
1.36223e-05
3.38921e-06
1.34034e-05
2.50103e-06
1.301e-05
2.13913e-06
1.26307e-05
1.66406e-06
1.2271e-05
1.3997e-06
1.19585e-05
1.1384e-06
1.1703e-05
8.97048e-07
1.14802e-05
7.40537e-07
1.12829e-05
6.50092e-07
1.11355e-05
4.77916e-07
1.09751e-05
5.05391e-07
1.08628e-05
3.59551e-07
1.07504e-05
3.25884e-07
1.06685e-05
2.25161e-07
1.0634e-05
2.0302e-08
1.05957e-05
-5.07589e-08
1.07968e-05
-8.18829e-07
-1.77119e-06
1.07205e-05
1.34854e-05
6.48468e-06
1.37531e-05
6.26204e-06
1.39957e-05
3.14665e-06
1.41459e-05
2.3508e-06
1.40703e-05
2.21474e-06
1.3906e-05
1.8284e-06
1.36904e-05
1.61527e-06
1.34679e-05
1.36093e-06
1.32706e-05
1.09426e-06
1.30819e-05
9.29256e-07
1.29054e-05
8.26667e-07
1.27715e-05
6.11795e-07
1.26182e-05
6.58707e-07
1.25069e-05
4.70847e-07
1.2398e-05
4.34722e-07
1.23122e-05
3.10944e-07
1.22711e-05
6.1458e-08
1.22225e-05
-2.20937e-09
1.23978e-05
-9.94121e-07
-1.46748e-06
1.20941e-05
1.33623e-05
5.62242e-06
1.36988e-05
5.92546e-06
1.39344e-05
2.91106e-06
1.42206e-05
2.06466e-06
1.43726e-05
2.06274e-06
1.44145e-05
1.78651e-06
1.43928e-05
1.63696e-06
1.43304e-05
1.42332e-06
1.42622e-05
1.16242e-06
1.41707e-05
1.02077e-06
1.40686e-05
9.2878e-07
1.39886e-05
6.91836e-07
1.38793e-05
7.67951e-07
1.37946e-05
5.55568e-07
1.37128e-05
5.16529e-07
1.36412e-05
3.82541e-07
1.36058e-05
9.68383e-08
1.35738e-05
2.98011e-08
1.37329e-05
-1.15326e-06
-1.72445e-06
1.39899e-05
1.32588e-05
4.86361e-06
1.37005e-05
5.48378e-06
1.38224e-05
2.78916e-06
1.40956e-05
1.79142e-06
1.43202e-05
1.83814e-06
1.4443e-05
1.66376e-06
1.45269e-05
1.55302e-06
1.45815e-05
1.36874e-06
1.46335e-05
1.11043e-06
1.46583e-05
9.96005e-07
1.46665e-05
9.20559e-07
1.46753e-05
6.83036e-07
1.46536e-05
7.89589e-07
1.4628e-05
5.81188e-07
1.46083e-05
5.36294e-07
1.45737e-05
4.17131e-07
1.45692e-05
1.01309e-07
1.45856e-05
1.34283e-08
1.47291e-05
-1.29682e-06
-1.99976e-06
1.50044e-05
1.31707e-05
4.19296e-06
1.3638e-05
5.01639e-06
1.37452e-05
2.682e-06
1.39809e-05
1.55573e-06
1.42135e-05
1.60549e-06
1.43521e-05
1.5252e-06
1.44606e-05
1.44448e-06
1.45489e-05
1.28045e-06
1.46399e-05
1.01944e-06
1.47184e-05
9.17553e-07
1.47939e-05
8.45003e-07
1.48643e-05
6.12628e-07
1.49255e-05
7.28413e-07
1.49636e-05
5.43128e-07
1.50196e-05
4.8025e-07
1.50405e-05
3.9626e-07
1.50815e-05
6.02472e-08
1.51877e-05
-9.27288e-08
1.53038e-05
-1.41294e-06
-2.3224e-06
1.56265e-05
1.3101e-05
3.59194e-06
1.35673e-05
4.55012e-06
1.36882e-05
2.56106e-06
1.3894e-05
1.34991e-06
1.41165e-05
1.383e-06
1.42629e-05
1.37888e-06
1.43802e-05
1.32712e-06
1.44777e-05
1.18295e-06
1.45713e-05
9.25865e-07
1.46573e-05
8.31556e-07
1.47431e-05
7.5918e-07
1.48203e-05
5.35405e-07
1.49082e-05
6.40578e-07
1.49762e-05
4.75137e-07
1.50738e-05
3.82561e-07
1.51337e-05
3.36453e-07
1.52072e-05
-1.32808e-08
1.53803e-05
-2.65892e-07
1.54572e-05
-1.48976e-06
-2.73155e-06
1.58663e-05
1.30409e-05
3.05108e-06
1.35039e-05
4.08705e-06
1.36405e-05
2.42449e-06
1.38331e-05
1.15729e-06
1.40382e-05
1.17795e-06
1.41834e-05
1.23369e-06
1.43039e-05
1.20658e-06
1.44152e-05
1.07165e-06
1.45114e-05
8.29714e-07
1.46015e-05
7.4137e-07
1.46799e-05
6.80837e-07
1.47482e-05
4.67108e-07
1.48279e-05
5.60846e-07
1.49036e-05
3.99409e-07
1.50061e-05
2.80155e-07
1.50876e-05
2.54903e-07
1.51808e-05
-1.06462e-07
1.53474e-05
-4.32534e-07
1.54062e-05
-1.54853e-06
-3.20494e-06
1.58796e-05
1.29821e-05
2.569e-06
1.34482e-05
3.62092e-06
1.36056e-05
2.2671e-06
1.37857e-05
9.77143e-07
1.39732e-05
9.9053e-07
1.41167e-05
1.09017e-06
1.42386e-05
1.08468e-06
1.43562e-05
9.54061e-07
1.44551e-05
7.30752e-07
1.4551e-05
6.4548e-07
1.46242e-05
6.07626e-07
1.46887e-05
4.0268e-07
1.47619e-05
4.87653e-07
1.48378e-05
3.23445e-07
1.49346e-05
1.83358e-07
1.50274e-05
1.62153e-07
1.51312e-05
-2.10291e-07
1.52552e-05
-5.56496e-07
1.53833e-05
-1.67669e-06
-3.58414e-06
1.57625e-05
1.29288e-05
2.14024e-06
1.33942e-05
3.15551e-06
1.35976e-05
2.06363e-06
1.37481e-05
8.2668e-07
1.39182e-05
8.20453e-07
1.40575e-05
9.50883e-07
1.41831e-05
9.59005e-07
1.43065e-05
8.30693e-07
1.44034e-05
6.33879e-07
1.44972e-05
5.51695e-07
1.45695e-05
5.35246e-07
1.46398e-05
3.32463e-07
1.47105e-05
4.16958e-07
1.4787e-05
2.46881e-07
1.48746e-05
9.57672e-08
1.49748e-05
6.20027e-08
1.5073e-05
-3.08565e-07
1.51714e-05
-6.54902e-07
1.53988e-05
-1.90405e-06
-3.69737e-06
1.5512e-05
1.28832e-05
1.75702e-06
1.33442e-05
2.69454e-06
1.36104e-05
1.79743e-06
1.37172e-05
7.19904e-07
1.38691e-05
6.68573e-07
1.40063e-05
8.13649e-07
1.41379e-05
8.27431e-07
1.42636e-05
7.04933e-07
1.43565e-05
5.40978e-07
1.44486e-05
4.59657e-07
1.45216e-05
4.6219e-07
1.45955e-05
2.58604e-07
1.46659e-05
3.46531e-07
1.47426e-05
1.70229e-07
1.48224e-05
1.59119e-08
1.49314e-05
-4.69661e-08
1.5001e-05
-3.7823e-07
1.51324e-05
-7.86226e-07
1.53914e-05
-2.16313e-06
-3.5067e-06
1.52008e-05
1.28458e-05
1.41125e-06
1.33016e-05
2.23876e-06
1.35886e-05
1.51043e-06
1.36919e-05
6.16547e-07
1.3829e-05
5.3149e-07
1.39644e-05
6.78194e-07
1.41e-05
6.91837e-07
1.42277e-05
5.77251e-07
1.43187e-05
4.49971e-07
1.44085e-05
3.69923e-07
1.44826e-05
3.88048e-07
1.45572e-05
1.8405e-07
1.46281e-05
2.75575e-07
1.47016e-05
9.67844e-08
1.47836e-05
-6.61637e-08
1.4887e-05
-1.50343e-07
1.49327e-05
-4.23954e-07
1.51459e-05
-9.99434e-07
1.52902e-05
-2.30738e-06
-3.13035e-06
1.49138e-05
1.28154e-05
1.09588e-06
1.32668e-05
1.7873e-06
1.3565e-05
1.21231e-06
1.36717e-05
5.09816e-07
1.37967e-05
4.06459e-07
1.39316e-05
5.43273e-07
1.40695e-05
5.53956e-07
1.41973e-05
4.49436e-07
1.42875e-05
3.59784e-07
1.43756e-05
2.81863e-07
1.44522e-05
3.11452e-07
1.45259e-05
1.10374e-07
1.45953e-05
2.06175e-07
1.46688e-05
2.31884e-08
1.4759e-05
-1.56307e-07
1.48276e-05
-2.18931e-07
1.49051e-05
-5.01474e-07
1.51587e-05
-1.25302e-06
1.50811e-05
-2.22976e-06
-2.90178e-06
1.48525e-05
1.27912e-05
8.04712e-07
1.32389e-05
1.33958e-06
1.35438e-05
9.07431e-07
1.36583e-05
3.95326e-07
1.37722e-05
2.92502e-07
1.39054e-05
4.10124e-07
1.4044e-05
4.1534e-07
1.4174e-05
3.19428e-07
1.42631e-05
2.70694e-07
1.43494e-05
1.9555e-07
1.44294e-05
2.31419e-07
1.44996e-05
4.01668e-08
1.45675e-05
1.38266e-07
1.46503e-05
-5.95346e-08
1.47287e-05
-2.34751e-07
1.47729e-05
-2.63129e-07
1.49274e-05
-6.55979e-07
1.5094e-05
-1.41957e-06
1.49005e-05
-2.03634e-06
-3.0943e-06
1.50931e-05
1.27728e-05
5.31867e-07
1.32185e-05
8.93938e-07
1.35271e-05
5.98852e-07
1.36499e-05
2.72481e-07
1.37541e-05
1.88357e-07
1.38862e-05
2.77993e-07
1.40252e-05
2.76352e-07
1.41566e-05
1.87984e-07
1.42438e-05
1.83531e-07
1.4331e-05
1.08308e-07
1.44134e-05
1.4903e-07
1.44764e-05
-2.27963e-08
1.45505e-05
6.41341e-08
1.46397e-05
-1.48715e-07
1.4686e-05
-2.81083e-07
1.4758e-05
-3.35077e-07
1.49468e-05
-8.44777e-07
1.49581e-05
-1.4309e-06
1.4885e-05
-1.96323e-06
-3.51979e-06
1.53105e-05
1.27607e-05
2.71195e-07
1.32049e-05
4.4967e-07
1.35151e-05
2.88671e-07
1.36464e-05
1.41181e-07
1.37427e-05
9.20882e-08
1.38731e-05
1.47628e-07
1.40122e-05
1.3721e-07
1.41454e-05
5.47515e-08
1.42309e-05
9.8065e-08
1.43204e-05
1.88167e-08
1.44009e-05
6.85342e-08
1.4459e-05
-8.09643e-08
1.45473e-05
-2.41476e-08
1.46219e-05
-2.23271e-07
1.46512e-05
-3.10438e-07
1.47838e-05
-4.67653e-07
1.49053e-05
-9.66261e-07
1.48546e-05
-1.38019e-06
1.49913e-05
-2.09993e-06
-3.84236e-06
1.53139e-05
1.27545e-05
1.66566e-08
1.31983e-05
5.90261e-09
1.3509e-05
-2.20469e-08
1.36455e-05
4.68915e-09
1.37366e-05
9.58601e-10
1.38668e-05
1.74387e-08
1.40062e-05
-2.12941e-09
1.41396e-05
-7.86533e-08
1.42241e-05
1.35785e-08
1.43162e-05
-7.33636e-08
1.43916e-05
-6.81956e-09
1.44528e-05
-1.4212e-07
1.45501e-05
-1.21512e-07
1.45958e-05
-2.68974e-07
1.46516e-05
-3.66247e-07
1.48023e-05
-6.18351e-07
1.48207e-05
-9.84626e-07
1.48606e-05
-1.42012e-06
1.50939e-05
-2.33319e-06
-3.90638e-06
1.51579e-05
1.27546e-05
-2.37926e-07
1.31983e-05
-4.37813e-07
1.35088e-05
-3.32516e-07
1.36457e-05
-1.32228e-07
1.37362e-05
-8.95778e-08
1.38675e-05
-1.13838e-07
1.40061e-05
-1.40691e-07
1.41391e-05
-2.11727e-07
1.42248e-05
-7.20534e-08
1.43164e-05
-1.65045e-07
1.43876e-05
-7.7937e-08
1.44595e-05
-2.14068e-07
1.4547e-05
-2.08952e-07
1.45813e-05
-3.03306e-07
1.46793e-05
-4.64298e-07
1.47764e-05
-7.154e-07
1.47744e-05
-9.82596e-07
1.49379e-05
-1.58368e-06
1.50902e-05
-2.48553e-06
-3.69353e-06
1.48774e-05
1.27608e-05
-4.98742e-07
1.32053e-05
-8.82266e-07
1.35146e-05
-6.41855e-07
1.36464e-05
-2.64069e-07
1.3741e-05
-1.84113e-07
1.38755e-05
-2.4831e-07
1.40122e-05
-2.77403e-07
1.41448e-05
-3.44378e-07
1.42317e-05
-1.58976e-07
1.43198e-05
-2.53112e-07
1.43936e-05
-1.51692e-07
1.44722e-05
-2.92713e-07
1.45389e-05
-2.75655e-07
1.45961e-05
-3.60536e-07
1.46961e-05
-5.64264e-07
1.47333e-05
-7.52632e-07
1.48031e-05
-1.05232e-06
1.49823e-05
-1.76296e-06
1.49946e-05
-2.49782e-06
-3.41065e-06
1.47118e-05
1.27734e-05
-7.72106e-07
1.32192e-05
-1.3281e-06
1.35258e-05
-9.48493e-07
1.36498e-05
-3.87993e-07
1.37519e-05
-2.86232e-07
1.38902e-05
-3.8667e-07
1.40241e-05
-4.11256e-07
1.41572e-05
-4.77459e-07
1.42434e-05
-2.45243e-07
1.43291e-05
-3.38763e-07
1.44099e-05
-2.32466e-07
1.44826e-05
-3.65482e-07
1.45428e-05
-3.35808e-07
1.46285e-05
-4.46275e-07
1.46839e-05
-6.19618e-07
1.47288e-05
-7.97561e-07
1.48579e-05
-1.18141e-06
1.49572e-05
-1.86224e-06
1.49199e-05
-2.46052e-06
-3.28417e-06
1.47934e-05
1.27919e-05
-1.06403e-06
1.32404e-05
-1.77659e-06
1.35423e-05
-1.25033e-06
1.36573e-05
-5.03013e-07
1.37691e-05
-3.98027e-07
1.39112e-05
-5.28775e-07
1.40433e-05
-5.43338e-07
1.41754e-05
-6.0965e-07
1.42593e-05
-3.29128e-07
1.43477e-05
-4.27103e-07
1.44308e-05
-3.15562e-07
1.44942e-05
-4.28963e-07
1.45685e-05
-4.10018e-07
1.46503e-05
-5.28127e-07
1.46726e-05
-6.41897e-07
1.47709e-05
-8.95899e-07
1.48782e-05
-1.28868e-06
1.49174e-05
-1.90147e-06
1.49192e-05
-2.46229e-06
-3.28177e-06
1.49168e-05
1.28164e-05
-1.38046e-06
1.32691e-05
-2.22926e-06
1.35628e-05
-1.54399e-06
1.36699e-05
-6.10163e-07
1.37936e-05
-5.21742e-07
1.39384e-05
-6.73534e-07
1.40698e-05
-6.74718e-07
1.41981e-05
-7.37973e-07
1.4282e-05
-4.13002e-07
1.43755e-05
-5.20602e-07
1.44519e-05
-3.91959e-07
1.45194e-05
-4.96489e-07
1.46026e-05
-4.93187e-07
1.46581e-05
-5.83654e-07
1.46961e-05
-6.79882e-07
1.48161e-05
-1.01594e-06
1.48664e-05
-1.33895e-06
1.49169e-05
-1.95201e-06
1.49663e-05
-2.51164e-06
-3.31767e-06
1.50022e-05
1.28469e-05
-1.72733e-06
1.33051e-05
-2.68747e-06
1.35861e-05
-1.82503e-06
1.36885e-05
-7.12499e-07
1.38261e-05
-6.59394e-07
1.39722e-05
-8.19646e-07
1.4103e-05
-8.05543e-07
1.42253e-05
-8.60257e-07
1.43138e-05
-5.01449e-07
1.44087e-05
-6.15541e-07
1.44787e-05
-4.61984e-07
1.45601e-05
-5.77806e-07
1.46278e-05
-5.6097e-07
1.46773e-05
-6.33158e-07
1.47447e-05
-7.47285e-07
1.48358e-05
-1.107e-06
1.48671e-05
-1.37027e-06
1.4958e-05
-2.04291e-06
1.5021e-05
-2.57466e-06
-3.34889e-06
1.50523e-05
1.2884e-05
-2.11135e-06
1.33483e-05
-3.15179e-06
1.36087e-05
-2.08539e-06
1.37136e-05
-8.17413e-07
1.38673e-05
-8.13074e-07
1.40139e-05
-9.66246e-07
1.41428e-05
-9.34498e-07
1.42585e-05
-9.75938e-07
1.4355e-05
-5.97908e-07
1.44472e-05
-7.07788e-07
1.45206e-05
-5.35355e-07
1.4603e-05
-6.60164e-07
1.46496e-05
-6.07591e-07
1.47209e-05
-7.04515e-07
1.47872e-05
-8.13592e-07
1.48505e-05
-1.17029e-06
1.49044e-05
-1.42418e-06
1.50089e-05
-2.1474e-06
1.50547e-05
-2.62046e-06
-3.37742e-06
1.50833e-05
1.29291e-05
-2.54049e-06
1.33981e-05
-3.62073e-06
1.36013e-05
-2.28857e-06
1.37468e-05
-9.62979e-07
1.39182e-05
-9.84469e-07
1.4065e-05
-1.11305e-06
1.41915e-05
-1.06094e-06
1.42997e-05
-1.08418e-06
1.44048e-05
-7.02972e-07
1.44951e-05
-7.98148e-07
1.45753e-05
-6.15478e-07
1.46393e-05
-7.24188e-07
1.46851e-05
-6.53366e-07
1.47708e-05
-7.903e-07
1.48183e-05
-8.61084e-07
1.48929e-05
-1.24489e-06
1.49605e-05
-1.49174e-06
1.50462e-05
-2.2331e-06
1.50801e-05
-2.65437e-06
-3.41483e-06
1.51175e-05
1.29833e-05
-3.02376e-06
1.34528e-05
-4.09022e-06
1.3607e-05
-2.44283e-06
1.37887e-05
-1.14462e-06
1.39774e-05
-1.17317e-06
1.41252e-05
-1.26088e-06
1.42502e-05
-1.1859e-06
1.43497e-05
-1.1837e-06
1.44608e-05
-8.14043e-07
1.45491e-05
-8.86533e-07
1.46284e-05
-6.9471e-07
1.46751e-05
-7.70882e-07
1.47348e-05
-7.1314e-07
1.48108e-05
-8.66221e-07
1.48629e-05
-9.13175e-07
1.49592e-05
-1.34124e-06
1.50082e-05
-1.54073e-06
1.50778e-05
-2.30268e-06
1.51124e-05
-2.68905e-06
-3.47837e-06
1.5176e-05
1.30445e-05
-3.56827e-06
1.35114e-05
-4.55716e-06
1.36453e-05
-2.57664e-06
1.38396e-05
-1.33895e-06
1.40452e-05
-1.3788e-06
1.4193e-05
-1.40863e-06
1.43175e-05
-1.31045e-06
1.44079e-05
-1.27413e-06
1.45195e-05
-9.25661e-07
1.4597e-05
-9.64029e-07
1.46737e-05
-7.71333e-07
1.47206e-05
-8.17798e-07
1.47932e-05
-7.85807e-07
1.48593e-05
-9.32261e-07
1.49357e-05
-9.89543e-07
1.50179e-05
-1.42348e-06
1.50473e-05
-1.5701e-06
1.5106e-05
-2.36143e-06
1.51313e-05
-2.71434e-06
-3.59805e-06
1.5251e-05
1.31094e-05
-4.17763e-06
1.35767e-05
-5.02449e-06
1.36927e-05
-2.69266e-06
1.3902e-05
-1.54826e-06
1.41248e-05
-1.60162e-06
1.42685e-05
-1.55228e-06
1.43896e-05
-1.43158e-06
1.44716e-05
-1.35613e-06
1.45777e-05
-1.03171e-06
1.46407e-05
-1.02709e-06
1.47246e-05
-8.55163e-07
1.47822e-05
-8.75388e-07
1.48649e-05
-8.68538e-07
1.49272e-05
-9.94524e-07
1.50003e-05
-1.06271e-06
1.50361e-05
-1.45923e-06
1.50464e-05
-1.58045e-06
1.50532e-05
-2.36819e-06
1.50248e-05
-2.68593e-06
-3.6569e-06
1.50836e-05
1.31814e-05
-4.859e-06
1.3646e-05
-5.48907e-06
1.37461e-05
-2.79277e-06
1.39836e-05
-1.78576e-06
1.42186e-05
-1.83669e-06
1.43546e-05
-1.68821e-06
1.44668e-05
-1.54382e-06
1.45405e-05
-1.42982e-06
1.4637e-05
-1.12822e-06
1.46922e-05
-1.0823e-06
1.47726e-05
-9.35514e-07
1.48225e-05
-9.25341e-07
1.48823e-05
-9.28301e-07
1.4906e-05
-1.01822e-06
1.49249e-05
-1.08163e-06
1.4887e-05
-1.42136e-06
1.48347e-05
-1.52811e-06
1.47282e-05
-2.26167e-06
1.45854e-05
-2.54317e-06
-3.54556e-06
1.44741e-05
1.32668e-05
-5.62584e-06
1.37003e-05
-5.92256e-06
1.38188e-05
-2.91129e-06
1.4097e-05
-2.06394e-06
1.43244e-05
-2.06408e-06
1.44426e-05
-1.80636e-06
1.45295e-05
-1.63074e-06
1.45714e-05
-1.47175e-06
1.46248e-05
-1.18157e-06
1.46337e-05
-1.09121e-06
1.46484e-05
-9.50233e-07
1.46314e-05
-9.08313e-07
1.46056e-05
-9.02486e-07
1.45455e-05
-9.58194e-07
1.44737e-05
-1.0098e-06
1.43449e-05
-1.29257e-06
1.42049e-05
-1.38808e-06
1.39779e-05
-2.03465e-06
1.37192e-05
-2.28446e-06
-3.26631e-06
1.34399e-05
1.33649e-05
-6.49073e-06
1.36939e-05
-6.25155e-06
1.39323e-05
-3.1497e-06
1.42231e-05
-2.35471e-06
1.43754e-05
-2.21644e-06
1.4413e-05
-1.84398e-06
1.43933e-05
-1.61106e-06
1.43206e-05
-1.39902e-06
1.4252e-05
-1.11296e-06
1.41483e-05
-9.87511e-07
1.4049e-05
-8.50929e-07
1.39375e-05
-7.96777e-07
1.38182e-05
-7.83192e-07
1.36824e-05
-8.22379e-07
1.35367e-05
-8.64145e-07
1.33433e-05
-1.09914e-06
1.31398e-05
-1.18459e-06
1.28337e-05
-1.72855e-06
1.24961e-05
-1.94689e-06
-2.88528e-06
1.21151e-05
1.34843e-05
-7.475e-06
1.37517e-05
-6.51895e-06
1.39964e-05
-3.39446e-06
1.41478e-05
-2.50609e-06
1.40709e-05
-2.13949e-06
1.39034e-05
-1.67654e-06
1.36886e-05
-1.3962e-06
1.34581e-05
-1.16856e-06
1.32584e-05
-9.13225e-07
1.30588e-05
-7.87903e-07
1.28813e-05
-6.73428e-07
1.27128e-05
-6.28272e-07
1.25441e-05
-6.14498e-07
1.23704e-05
-6.48695e-07
1.21886e-05
-6.82378e-07
1.19633e-05
-8.73867e-07
1.1727e-05
-9.48297e-07
1.13785e-05
-1.37997e-06
1.09918e-05
-1.56017e-06
-2.11434e-06
1.02208e-05
1.3591e-05
-8.56597e-06
1.36586e-05
-6.58659e-06
1.36231e-05
-3.35899e-06
1.34037e-05
-2.2867e-06
1.3009e-05
-1.74475e-06
1.26275e-05
-1.29505e-06
1.22676e-05
-1.03629e-06
1.19486e-05
-8.4957e-07
1.16892e-05
-6.53846e-07
1.1456e-05
-5.54689e-07
1.12548e-05
-4.72207e-07
1.10714e-05
-4.44868e-07
1.08911e-05
-4.34209e-07
1.07091e-05
-4.66748e-07
1.05183e-05
-4.91511e-07
1.02855e-05
-6.41105e-07
1.00377e-05
-7.00511e-07
9.67673e-06
-1.01897e-06
9.28495e-06
-1.16838e-06
-1.49935e-06
8.66996e-06
1.34116e-05
-9.47757e-06
1.2888e-05
-6.06301e-06
1.23262e-05
-2.79715e-06
1.17175e-05
-1.67803e-06
1.11265e-05
-1.15373e-06
1.06595e-05
-8.28077e-07
1.0268e-05
-6.44783e-07
9.94508e-06
-5.26634e-07
9.68959e-06
-3.98359e-07
9.46958e-06
-3.3468e-07
9.28192e-06
-2.84552e-07
9.11153e-06
-2.74469e-07
8.94472e-06
-2.67401e-07
8.7747e-06
-2.96735e-07
8.59441e-06
-3.11218e-07
8.37324e-06
-4.19929e-07
8.1317e-06
-4.58971e-07
7.78682e-06
-6.74095e-07
7.40173e-06
-7.83293e-07
-9.96005e-07
6.89838e-06
1.24245e-05
-9.40209e-06
1.10039e-05
-4.64233e-06
9.98043e-06
-1.77373e-06
9.2025e-06
-9.00096e-07
8.614e-06
-5.65234e-07
8.18934e-06
-4.03415e-07
7.85252e-06
-3.07969e-07
7.58185e-06
-2.55957e-07
7.37147e-06
-1.87981e-07
7.19453e-06
-1.57745e-07
7.04414e-06
-1.34157e-07
6.90475e-06
-1.35079e-07
6.76839e-06
-1.31036e-07
6.62468e-06
-1.53032e-07
6.47126e-06
-1.57794e-07
6.27717e-06
-2.25838e-07
6.06145e-06
-2.4325e-07
5.75503e-06
-3.67676e-07
5.3993e-06
-4.27564e-07
-5.67545e-07
4.97084e-06
1.01102e-05
-7.01234e-06
7.83036e-06
-2.36245e-06
6.70973e-06
-6.53096e-07
6.06324e-06
-2.53608e-07
5.64258e-06
-1.44576e-07
5.34732e-06
-1.08148e-07
5.11957e-06
-8.02261e-08
4.93416e-06
-7.05485e-08
4.79518e-06
-4.89966e-08
4.67861e-06
-4.11801e-08
4.57985e-06
-3.53896e-08
4.48361e-06
-3.88388e-08
4.38995e-06
-3.73838e-08
4.28467e-06
-4.77502e-08
4.17403e-06
-4.715e-08
4.02345e-06
-7.52605e-08
3.85836e-06
-7.81578e-08
3.61567e-06
-1.24983e-07
3.33149e-06
-1.43383e-07
-2.2517e-07
2.98911e-06
5.48766e-06
3.12521e-06
2.47211e-06
2.2185e-06
2.07393e-06
1.96578e-06
1.88555e-06
1.81501e-06
1.76601e-06
1.72483e-06
1.68944e-06
1.6506e-06
1.61322e-06
1.56547e-06
1.51832e-06
1.44306e-06
1.3649e-06
1.23991e-06
1.09653e-06
8.71362e-07
2.91809e-06
-5.59053e-07
3.05044e-07
3.34361e-06
-1.26487e-07
-2.99032e-07
3.95668e-06
1.34596e-07
-7.47668e-07
4.7908e-06
5.41657e-08
-8.88281e-07
5.94673e-06
3.39009e-07
-1.49494e-06
7.0091e-06
-4.68565e-07
-5.93808e-07
7.86476e-06
-2.42787e-06
1.57222e-06
8.47729e-06
-5.01135e-06
4.39882e-06
8.84304e-06
-8.00066e-06
7.63491e-06
8.84409e-06
-1.06874e-05
1.06864e-05
8.40598e-06
-1.23753e-05
1.28134e-05
7.81311e-06
-1.32896e-05
1.38824e-05
7.04477e-06
-1.27952e-05
1.35636e-05
6.10076e-06
-1.10442e-05
1.19883e-05
5.06743e-06
-8.54998e-06
9.58332e-06
3.65267e-06
-6.11059e-06
7.52534e-06
2.31923e-06
-3.29854e-06
4.63198e-06
1.98874e-06
-2.29184e-07
5.59674e-07
2.04906e-06
5.32853e-06
-5.38885e-06
2.19626e-06
1.2767e-05
-1.29142e-05
3.36239e-06
1.52482e-05
-1.64143e-05
4.97648e-06
9.8671e-06
-1.14812e-05
5.47004e-06
5.64452e-06
-6.13808e-06
5.77033e-06
8.00984e-06
-8.31013e-06
6.68018e-06
1.0779e-05
-1.16889e-05
7.31788e-06
1.16887e-05
-1.23264e-05
7.73243e-06
1.23301e-05
-1.27446e-05
8.72455e-06
9.67528e-06
-1.06674e-05
9.51457e-06
8.96523e-06
-9.75526e-06
1.06748e-05
8.94886e-06
-1.0109e-05
1.14299e-05
5.93894e-06
-6.6941e-06
1.18922e-05
4.07886e-06
-4.54113e-06
1.24825e-05
7.02791e-07
-1.29315e-06
1.25779e-05
-1.77395e-06
1.67858e-06
1.29005e-05
-4.28217e-06
3.95962e-06
1.32409e-05
-7.67047e-06
7.32999e-06
1.32589e-05
-9.44918e-06
9.43122e-06
1.33379e-05
-1.19634e-05
1.18844e-05
1.3475e-05
-1.37237e-05
1.35866e-05
1.41393e-05
-1.50517e-05
1.43874e-05
1.50536e-05
-1.81606e-05
1.72464e-05
1.52826e-05
-1.94451e-05
1.9216e-05
1.51318e-05
-1.96285e-05
1.97793e-05
1.49781e-05
-2.07845e-05
2.09381e-05
1.44637e-05
-2.03638e-05
2.08782e-05
1.39051e-05
-1.94695e-05
2.00281e-05
1.37918e-05
-2.01539e-05
2.02673e-05
1.36529e-05
-2.04259e-05
2.05648e-05
1.31836e-05
-1.998e-05
2.04493e-05
1.30709e-05
-1.98481e-05
1.99608e-05
1.34786e-05
-2.06913e-05
2.02835e-05
1.3803e-05
-2.23663e-05
2.20419e-05
1.39465e-05
-2.22607e-05
2.21172e-05
1.40423e-05
-2.14302e-05
2.13343e-05
1.43592e-05
-2.20053e-05
2.16884e-05
1.4878e-05
-2.11079e-05
2.05891e-05
1.527e-05
-1.94688e-05
1.90768e-05
1.5681e-05
-1.8023e-05
1.7612e-05
1.59139e-05
-1.4718e-05
1.44852e-05
1.58379e-05
-1.12989e-05
1.13749e-05
1.5766e-05
-7.89813e-06
7.97007e-06
1.54215e-05
-3.43138e-06
3.77585e-06
1.47242e-05
2.72984e-07
4.243e-07
1.41366e-05
3.09803e-06
-2.51042e-06
1.36703e-05
6.3711e-06
-5.90483e-06
1.30217e-05
9.48042e-06
-8.83174e-06
1.21561e-05
1.13861e-05
-1.05206e-05
1.12103e-05
1.19833e-05
-1.10374e-05
1.02954e-05
1.16104e-05
-1.06955e-05
9.50153e-06
1.07631e-05
-9.96919e-06
8.88241e-06
9.86733e-06
-9.2482e-06
8.41624e-06
9.03355e-06
-8.56738e-06
8.04213e-06
8.22323e-06
-7.84913e-06
7.72462e-06
7.47567e-06
-7.15816e-06
7.46403e-06
6.85652e-06
-6.59593e-06
7.26324e-06
6.35018e-06
-6.14939e-06
7.10769e-06
5.88756e-06
-5.73201e-06
6.97648e-06
5.42973e-06
-5.29852e-06
6.86246e-06
4.98474e-06
-4.87072e-06
6.77648e-06
4.57874e-06
-4.49276e-06
6.7357e-06
4.21498e-06
-4.1742e-06
6.7454e-06
3.88721e-06
-3.89692e-06
6.79319e-06
3.56791e-06
-3.6157e-06
6.84926e-06
3.2618e-06
-3.31787e-06
6.88588e-06
2.94165e-06
-2.97827e-06
6.8801e-06
2.64805e-06
-2.64226e-06
6.83628e-06
2.33578e-06
-2.29196e-06
6.75955e-06
2.10083e-06
-2.0241e-06
6.68392e-06
1.84049e-06
-1.76487e-06
6.60787e-06
1.73143e-06
-1.65538e-06
6.56919e-06
1.53136e-06
-1.49269e-06
6.52821e-06
1.55194e-06
-1.51095e-06
6.53649e-06
1.33244e-06
-1.34072e-06
6.51263e-06
1.4338e-06
-1.40994e-06
6.55085e-06
1.11251e-06
-1.15073e-06
6.52272e-06
1.27722e-06
-1.24909e-06
6.57919e-06
8.47986e-07
-9.04451e-07
6.5377e-06
1.08939e-06
-1.04791e-06
6.60441e-06
5.98537e-07
-6.65248e-07
6.54789e-06
9.12968e-07
-8.56441e-07
6.62024e-06
4.01984e-07
-4.74334e-07
6.55051e-06
7.66555e-07
-6.9683e-07
6.62895e-06
2.56921e-07
-3.35355e-07
6.55206e-06
6.34408e-07
-5.57527e-07
6.63146e-06
1.8001e-07
-2.5941e-07
6.56351e-06
4.74208e-07
-4.06257e-07
6.62461e-06
2.07858e-07
-2.68956e-07
6.58659e-06
2.76128e-07
-2.38112e-07
6.61318e-06
3.04713e-07
-3.31296e-07
6.60058e-06
1.32772e-07
-1.20174e-07
6.61369e-06
3.28776e-07
-3.41889e-07
6.58601e-06
1.46316e-07
-1.18633e-07
6.628e-06
2.20515e-07
-2.62511e-07
6.55804e-06
2.41079e-07
-1.71111e-07
6.63598e-06
1.09358e-07
-1.87301e-07
6.55192e-06
2.39773e-07
-1.55719e-07
6.62057e-06
1.23978e-07
-1.92625e-07
6.57548e-06
1.25529e-07
-8.04342e-08
6.59101e-06
2.00996e-07
-2.16532e-07
6.59943e-06
5.61343e-08
-6.45485e-08
6.57372e-06
1.91005e-07
-1.65299e-07
6.59847e-06
1.07202e-07
-1.31948e-07
6.5773e-06
1.05761e-07
-8.45962e-08
6.58424e-06
1.58197e-07
-1.65136e-07
6.58482e-06
7.60502e-08
-7.66322e-08
6.5815e-06
1.25938e-07
-1.22614e-07
6.58222e-06
1.10941e-07
-1.1166e-07
6.5887e-06
9.57231e-08
-1.02205e-07
6.57525e-06
1.19284e-07
-1.05832e-07
6.58927e-06
1.17634e-07
-1.31658e-07
6.57594e-06
1.03438e-07
-9.01102e-08
6.58297e-06
1.28505e-07
-1.35534e-07
6.58029e-06
1.17606e-07
-1.14926e-07
6.581e-06
1.17638e-07
-1.18348e-07
6.57824e-06
1.40173e-07
-1.3741e-07
6.58237e-06
1.31253e-07
-1.35385e-07
6.57411e-06
1.43278e-07
-1.35018e-07
6.58358e-06
1.50299e-07
-1.59767e-07
6.57085e-06
1.6172e-07
-1.48988e-07
6.58664e-06
1.51307e-07
-1.67097e-07
6.57016e-06
1.90969e-07
-1.74496e-07
6.58515e-06
1.74845e-07
-1.89835e-07
6.57248e-06
2.02466e-07
-1.89791e-07
6.58683e-06
2.08844e-07
-2.23198e-07
6.57013e-06
2.32722e-07
-2.16022e-07
6.59072e-06
2.34456e-07
-2.55042e-07
6.57238e-06
2.66704e-07
-2.48369e-07
6.58982e-06
2.83441e-07
-3.00875e-07
6.57364e-06
3.02155e-07
-2.85983e-07
6.59653e-06
3.17235e-07
-3.40119e-07
6.57184e-06
3.73177e-07
-3.4849e-07
6.60277e-06
3.59073e-07
-3.90006e-07
6.57232e-06
4.21096e-07
-3.9064e-07
6.60943e-06
4.48237e-07
-4.85345e-07
6.57971e-06
4.71875e-07
-4.42158e-07
6.60911e-06
5.13508e-07
-5.42909e-07
6.58626e-06
5.94005e-07
-5.71156e-07
6.62965e-06
5.47446e-07
-5.90833e-07
6.572e-06
7.16888e-07
-6.59245e-07
6.64826e-06
6.92088e-07
-7.68344e-07
6.59711e-06
7.15575e-07
-6.6442e-07
6.63457e-06
9.09025e-07
-9.46485e-07
6.62632e-06
8.78068e-07
-8.69825e-07
6.66484e-06
8.64642e-07
-9.03164e-07
6.60829e-06
1.21969e-06
-1.16314e-06
6.69572e-06
1.00433e-06
-1.09177e-06
6.63942e-06
1.25169e-06
-1.19539e-06
6.70552e-06
1.33693e-06
-1.40302e-06
6.66613e-06
1.40705e-06
-1.36766e-06
6.73117e-06
1.55985e-06
-1.62489e-06
6.71853e-06
1.63245e-06
-1.61981e-06
6.74963e-06
1.77695e-06
-1.80805e-06
6.76779e-06
1.9769e-06
-1.99506e-06
6.78791e-06
2.06585e-06
-2.08597e-06
6.85048e-06
2.20707e-06
-2.26964e-06
6.79317e-06
2.45145e-06
-2.39414e-06
6.91917e-06
2.62549e-06
-2.75149e-06
6.86909e-06
2.86035e-06
-2.81027e-06
7.00217e-06
2.94871e-06
-3.08179e-06
6.89125e-06
3.36964e-06
-3.25872e-06
7.0388e-06
3.50644e-06
-3.654e-06
6.98057e-06
3.91577e-06
-3.85754e-06
7.05346e-06
4.09256e-06
-4.16545e-06
7.1056e-06
4.45768e-06
-4.50983e-06
7.0312e-06
4.86811e-06
-4.7937e-06
7.20307e-06
5.17374e-06
-5.34562e-06
7.07471e-06
5.75334e-06
-5.62498e-06
7.21711e-06
6.05893e-06
-6.20133e-06
7.1645e-06
6.70565e-06
-6.65304e-06
7.0394e-06
7.30454e-06
-7.17944e-06
7.07554e-06
7.9053e-06
-7.94144e-06
6.86019e-06
8.79151e-06
-8.57615e-06
6.81538e-06
9.61735e-06
-9.57254e-06
6.82049e-06
1.05943e-05
-1.05994e-05
6.59278e-06
1.22015e-05
-1.19738e-05
6.60971e-06
1.343e-05
-1.3447e-05
6.74204e-06
1.57326e-05
-1.58649e-05
5.73414e-06
1.94215e-05
-1.84136e-05
5.7705e-06
2.16271e-05
-2.16635e-05
3.29379e-05
-3.26183e-05
5.45091e-06
5.19299e-06
-6.99462e-07
5.52679e-06
-4.60287e-07
5.97133e-06
-3.09947e-07
6.57239e-06
-5.4689e-07
7.52327e-06
-6.11873e-07
8.48432e-06
-1.42962e-06
9.36162e-06
-3.30517e-06
9.94567e-06
-5.5954e-06
1.02202e-05
-8.27523e-06
1.01388e-05
-1.0606e-05
9.71016e-06
-1.19466e-05
8.99526e-06
-1.25747e-05
8.23017e-06
-1.20301e-05
7.22847e-06
-1.00425e-05
6.27949e-06
-7.601e-06
5.16051e-06
-4.9916e-06
3.67264e-06
-1.81068e-06
3.01264e-06
4.30821e-07
3.01665e-06
5.32452e-06
3.41503e-06
1.23687e-05
4.59636e-06
1.40668e-05
5.41711e-06
9.04635e-06
5.405e-06
5.65663e-06
5.86878e-06
7.54606e-06
6.98322e-06
9.66457e-06
7.64905e-06
1.10229e-05
8.26097e-06
1.17182e-05
9.09204e-06
8.8442e-06
9.80146e-06
8.25581e-06
1.09909e-05
7.75943e-06
1.17156e-05
5.21426e-06
1.2308e-05
3.48642e-06
1.27632e-05
2.47555e-07
1.28358e-05
-1.8465e-06
1.33187e-05
-4.7651e-06
1.36478e-05
-7.99953e-06
1.36586e-05
-9.46002e-06
1.39147e-05
-1.22195e-05
1.43345e-05
-1.41435e-05
1.51199e-05
-1.58372e-05
1.57266e-05
-1.87673e-05
1.56024e-05
-1.93208e-05
1.53084e-05
-1.93345e-05
1.49772e-05
-2.04533e-05
1.43624e-05
-1.9749e-05
1.39384e-05
-1.90455e-05
1.38308e-05
-2.00463e-05
1.35191e-05
-2.01142e-05
1.30624e-05
-1.95233e-05
1.31158e-05
-1.99016e-05
1.35451e-05
-2.11205e-05
1.37102e-05
-2.25314e-05
1.3721e-05
-2.22715e-05
1.38645e-05
-2.15737e-05
1.42656e-05
-2.24063e-05
1.48528e-05
-2.16952e-05
1.52628e-05
-1.98788e-05
1.56225e-05
-1.83827e-05
1.58431e-05
-1.49386e-05
1.57062e-05
-1.11621e-05
1.55742e-05
-7.76616e-06
1.52965e-05
-3.15361e-06
1.46088e-05
9.60695e-07
1.39119e-05
3.79491e-06
1.33847e-05
6.89825e-06
1.27782e-05
1.00869e-05
1.19748e-05
1.21895e-05
1.10636e-05
1.28945e-05
1.01622e-05
1.25118e-05
9.37133e-06
1.1554e-05
8.74874e-06
1.04899e-05
8.27866e-06
9.50364e-06
7.90552e-06
8.59637e-06
7.59191e-06
7.78929e-06
7.33479e-06
7.11364e-06
7.13817e-06
6.54679e-06
6.99004e-06
6.03568e-06
6.86833e-06
5.55144e-06
6.76217e-06
5.0909e-06
6.67983e-06
4.66108e-06
6.63969e-06
4.25512e-06
6.65044e-06
3.87646e-06
6.70288e-06
3.51547e-06
6.76789e-06
3.19679e-06
6.81663e-06
2.89291e-06
6.82256e-06
2.64211e-06
6.78787e-06
2.37047e-06
6.71352e-06
2.17519e-06
6.63569e-06
1.91832e-06
6.55027e-06
1.81686e-06
6.50432e-06
1.57731e-06
6.4523e-06
1.60395e-06
6.46101e-06
1.32374e-06
6.43148e-06
1.46333e-06
6.48289e-06
1.06109e-06
6.45104e-06
1.30907e-06
6.53128e-06
7.67749e-07
6.48062e-06
1.14005e-06
6.57881e-06
5.00341e-07
6.50235e-06
9.89435e-07
6.61373e-06
2.906e-07
6.5109e-06
8.69386e-07
6.63771e-06
1.30111e-07
6.51387e-06
7.58246e-07