/*--------------------------------*- C++ -*----------------------------------*\
| =========                 |                                                 |
| \\      /  F ield         | OpenFOAM: The Open Source CFD Toolbox           |
|  \\    /   O peration     | Version:  2.4.0                                 |
|   \\  /    A nd           | Web:      www.OpenFOAM.org                      |
|    \\/     M anipulation  |                                                 |
\*---------------------------------------------------------------------------*/
FoamFile
{
    version     2.0;
    format      ascii;
    class       volScalarField;
    location    "0.055";
    object      pMean;
}
// * * * * * * * * * * * * * * * * * * * * * * * * * * * * * * * * * * * * * //

dimensions      [0 2 -2 0 0 0 0];

internalField   nonuniform List<scalar> 
17600
(
142.19
139.881
136.741
133.302
130.029
127.159
124.77
122.85
121.315
120.066
118.997
118.036
117.131
116.254
115.384
114.521
113.657
112.793
111.928
111.066
110.202
109.346
108.488
107.64
106.787
105.947
105.097
104.262
103.408
102.57
101.702
100.844
99.9506
99.0463
98.1059
97.0996
96.06
94.7968
93.4721
91.3209
140.47
138.703
136.059
132.961
129.887
127.139
124.824
122.94
121.414
120.156
119.071
118.092
117.172
116.282
115.404
114.533
113.664
112.796
111.929
111.065
110.202
109.342
108.488
107.635
106.789
105.942
105.102
104.256
103.417
102.561
101.714
100.836
99.965
99.0447
98.1174
97.117
96.0604
94.9134
93.6335
92.6303
139.14
137.676
135.462
132.771
130.011
127.462
125.233
123.343
121.756
120.417
119.256
118.218
117.255
116.339
115.443
114.563
113.685
112.813
111.941
111.076
110.209
109.352
108.493
107.645
106.794
105.953
105.109
104.269
103.424
102.577
101.721
100.854
99.9714
99.0675
98.1318
97.1488
96.115
95.0832
94.1855
94.1158
138.088
136.828
134.953
132.631
130.152
127.762
125.594
123.693
122.055
120.651
119.432
118.346
117.351
116.411
115.502
114.61
113.727
112.847
111.971
111.098
110.23
109.366
108.51
107.657
106.81
105.967
105.126
104.285
103.443
102.595
101.74
100.874
99.9911
99.0936
98.1691
97.2272
96.2378
95.2335
94.349
94.7236
137.286
136.151
134.523
132.481
130.236
127.977
125.873
123.97
122.304
120.847
119.586
118.458
117.441
116.478
115.562
114.657
113.772
112.881
112.006
111.122
110.255
109.381
108.53
107.67
106.832
105.982
105.153
104.305
103.474
102.616
101.774
100.895
100.029
99.1149
98.2214
97.3096
96.5679
96.0138
95.8876
95.447
136.654
135.629
134.166
132.33
130.261
128.126
126.075
124.191
122.505
121.015
119.71
118.555
117.508
116.536
115.605
114.7
113.806
112.917
112.03
111.149
110.271
109.401
108.54
107.689
106.843
106.005
105.168
104.333
103.492
102.649
101.795
100.934
100.057
99.1732
98.2801
97.4004
96.5412
95.7733
95.2673
96.4233
136.177
135.234
133.881
132.19
130.254
128.226
126.226
124.363
122.666
121.153
119.813
118.632
117.562
116.579
115.641
114.733
113.835
112.945
112.053
111.169
110.286
109.416
108.552
107.705
106.858
106.025
105.189
104.359
103.519
102.682
101.83
100.978
100.108
99.2373
98.3506
97.4854
96.654
96.0629
96.0092
97.8909
135.846
134.947
133.669
132.072
130.237
128.287
126.337
124.489
122.79
121.258
119.895
118.688
117.603
116.608
115.668
114.756
113.859
112.965
112.073
111.183
110.3
109.425
108.564
107.713
106.873
106.038
105.209
104.378
103.547
102.71
101.87
101.022
100.169
99.3082
98.4494
97.6055
96.8408
96.2801
96.3185
98.0861
135.617
134.763
133.528
131.991
130.217
128.326
126.408
124.575
122.871
121.33
119.949
118.728
117.628
116.629
115.684
114.774
113.874
112.982
112.085
111.196
110.308
109.435
108.571
107.727
106.885
106.056
105.227
104.402
103.572
102.746
101.912
101.08
100.241
99.4039
98.567
97.7587
97.0157
96.497
96.5712
98.42
135.519
134.67
133.457
131.946
130.206
128.343
126.444
124.617
122.913
121.364
119.976
118.746
117.642
116.637
115.694
114.782
113.883
112.989
112.093
111.2
110.315
109.44
108.58
107.733
106.896
106.067
105.243
104.42
103.599
102.779
101.96
101.142
100.327
99.5146
98.7101
97.926
97.2116
96.6931
96.7445
98.4598
135.52
134.67
133.452
131.945
130.205
128.347
126.444
124.619
122.91
121.365
119.974
118.749
117.641
116.642
115.693
114.787
113.884
112.993
112.092
111.204
110.315
109.447
108.584
107.745
106.903
106.082
105.255
104.443
103.622
102.818
102.005
101.213
100.417
99.6459
98.873
98.1372
97.428
96.9002
96.7717
98.4231
135.64
134.755
133.513
131.98
130.218
128.329
126.412
124.575
122.868
121.327
119.947
118.729
117.63
116.632
115.686
114.779
113.876
112.985
112.086
111.199
110.314
109.447
108.586
107.748
106.909
106.088
105.265
104.457
103.643
102.849
102.05
101.276
100.505
99.771
99.0505
98.3816
97.7379
97.1712
96.6864
97.507
135.893
134.933
133.647
132.052
130.243
128.286
126.349
124.485
122.789
121.253
119.899
118.687
117.614
116.61
115.679
114.761
113.869
112.968
112.083
111.188
110.318
109.442
108.595
107.746
106.922
106.09
105.285
104.467
103.676
102.874
102.106
101.332
100.605
99.8867
99.2363
98.621
98.124
97.7171
97.4466
96.433
136.214
135.223
133.862
132.173
130.26
128.225
126.238
124.361
122.667
121.151
119.819
118.632
117.574
116.582
115.653
114.74
113.846
112.951
112.068
111.18
110.312
109.442
108.594
107.749
106.924
106.098
105.294
104.484
103.696
102.907
102.145
101.392
100.683
100.002
99.3943
98.8472
98.4001
97.9646
97.4084
95.6345
136.673
135.628
134.154
132.321
130.262
128.129
126.082
124.193
122.505
121.016
119.713
118.558
117.516
116.542
115.616
114.71
113.817
112.93
112.048
111.169
110.301
109.439
108.589
107.75
106.923
106.104
105.298
104.499
103.71
102.936
102.178
101.445
100.746
100.094
99.5053
98.9899
98.5335
98.074
97.3763
95.584
137.29
136.156
134.519
132.477
130.232
127.98
125.875
123.975
122.305
120.851
119.587
118.464
117.446
116.487
115.57
114.67
113.783
112.9
112.025
111.151
110.288
109.429
108.584
107.746
106.923
106.105
105.304
104.506
103.728
102.957
102.213
101.484
100.8
100.149
99.5679
99.0397
98.5848
98.1043
97.4429
95.6159
138.095
136.834
134.953
132.628
130.147
127.761
125.595
123.697
122.057
120.654
119.434
118.352
117.357
116.421
115.513
114.624
113.742
112.868
111.996
111.131
110.271
109.419
108.575
107.742
106.919
106.106
105.305
104.514
103.739
102.977
102.237
101.519
100.836
100.185
99.5843
99.0251
98.5339
98.0762
97.5861
96.3243
139.144
137.681
135.463
132.77
130.007
127.461
125.233
123.347
121.759
120.421
119.259
118.225
117.261
116.349
115.454
114.578
113.702
112.837
111.969
111.113
110.254
109.41
108.566
107.739
106.914
106.108
105.304
104.522
103.745
102.994
102.253
101.546
100.856
100.21
99.5854
99.0025
98.3952
97.7654
97.0907
96.8523
140.472
138.708
136.061
132.961
129.884
127.139
124.824
122.943
121.417
120.16
119.075
118.099
117.178
116.292
115.415
114.549
113.681
112.822
111.958
111.105
110.249
109.406
108.564
107.737
106.913
106.108
105.306
104.525
103.752
103.003
102.265
101.559
100.869
100.217
99.5858
98.9924
98.4179
97.8827
97.3644
96.9441
142.192
139.885
136.743
133.303
130.027
127.159
124.77
122.853
121.318
120.07
119.001
118.043
117.137
116.264
115.396
114.538
113.675
112.819
111.958
111.106
110.251
109.409
108.567
107.741
106.917
106.112
105.31
104.53
103.757
103.009
102.271
101.565
100.876
100.221
99.5928
98.9965
98.4344
97.8931
97.4159
96.9863
90.1832
89.8642
90.0377
90.3731
90.6964
90.8957
90.9825
91.0009
90.9524
90.8237
90.6339
90.4176
90.189
89.9501
89.6968
89.4216
89.1147
88.766
88.3685
87.9209
87.4257
86.8861
86.3063
85.6925
85.0521
84.3945
83.7293
83.0665
82.4158
81.7871
81.1897
80.6315
80.1184
79.6552
79.2455
78.8922
78.5975
78.3623
78.1867
78.0691
78.0069
77.9964
78.0337
78.1151
78.2377
78.399
78.5973
78.8312
79.0993
79.4006
79.7349
80.1019
80.5013
80.9337
81.3997
81.8992
82.4321
82.9983
83.5966
84.2247
84.8801
85.56
86.2618
86.983
87.7207
88.4717
89.2326
89.9997
90.7695
91.5387
92.3037
93.0613
93.8089
94.5438
95.2632
95.9645
96.6453
97.304
97.939
98.5492
99.1348
99.6959
100.232
100.743
101.231
101.697
102.141
102.567
102.977
103.372
103.754
104.125
104.487
104.84
105.185
105.524
105.858
106.186
106.51
106.829
107.143
107.451
107.753
108.047
108.335
108.615
108.887
109.15
109.402
109.643
109.872
110.09
110.294
110.486
110.664
110.826
110.972
111.102
111.217
111.318
111.404
111.476
111.536
111.582
111.616
111.638
111.651
111.655
111.65
111.638
111.619
111.595
111.567
111.535
111.5
111.463
111.424
111.382
111.339
111.294
111.246
111.197
111.146
111.093
111.039
110.983
110.925
110.866
110.805
110.744
110.68
110.616
110.551
110.484
110.416
110.348
110.278
110.208
110.138
110.066
109.995
109.923
109.85
109.778
109.705
109.632
109.559
109.485
109.412
109.338
109.264
109.19
109.115
109.041
108.966
108.892
108.817
108.742
108.667
108.592
108.517
108.443
108.368
108.292
108.217
108.142
108.066
107.99
107.915
107.839
107.764
107.688
107.613
107.537
107.462
107.386
107.311
107.235
107.159
107.083
107.008
106.932
106.856
106.78
106.704
106.628
106.552
106.477
106.401
106.325
106.249
106.173
106.098
106.022
105.946
105.87
105.794
105.718
105.642
105.566
105.491
105.414
105.339
105.262
105.187
105.11
105.035
104.959
104.883
104.807
104.731
104.655
104.579
104.503
104.426
104.351
104.274
104.199
104.122
104.047
103.97
103.895
103.818
103.742
103.666
103.59
103.513
103.438
103.361
103.286
103.209
103.134
103.056
102.981
102.904
102.829
102.752
102.677
102.599
102.524
102.447
102.372
102.294
102.22
102.142
102.067
101.989
101.915
101.837
101.762
101.684
101.61
101.531
101.457
101.379
101.304
101.226
101.151
101.073
100.998
100.92
100.845
100.766
100.692
100.613
100.539
100.46
100.386
100.306
100.232
100.152
100.078
99.998
99.9239
99.8435
99.7695
99.6887
99.6146
99.5336
99.4594
99.378
99.3037
99.2219
99.1474
99.0653
98.9906
98.9081
98.8331
98.7502
98.6748
98.5914
98.5156
98.4317
98.3555
98.2711
98.1942
98.1092
98.0316
97.946
97.8676
97.7814
97.7019
97.6151
97.5345
97.447
97.365
97.2768
97.1932
97.1045
97.019
96.9295
96.842
96.7517
96.6619
96.5707
96.4782
96.3859
96.2906
96.1971
96.0987
96.0038
95.9021
95.8057
95.7003
95.6021
95.4925
95.3924
95.2776
95.176
95.0551
94.9525
94.8245
94.7212
94.585
94.48
94.3335
94.2257
94.0671
93.9565
93.7849
93.6707
93.4873
93.3676
93.1743
93.0452
92.8431
92.6968
92.4889
92.317
92.1051
91.9005
91.6798
91.4379
91.2001
90.915
90.6509
90.3115
90.02
89.6046
89.2735
88.7741
88.3639
87.788
87.2378
86.5872
85.844
85.0488
84.068
83.0747
81.7364
80.3818
78.6172
76.5165
74.0344
70.7355
66.935
61.0673
52.8352
41.2731
17.567
92.6507
92.2985
91.6454
91.2892
91.2463
91.3535
91.4858
91.5923
91.6425
91.6194
91.5215
91.3657
91.1724
90.9572
90.7238
90.4625
90.1588
89.8026
89.395
88.9431
88.4536
87.9303
87.3766
86.7967
86.1961
85.5815
84.9609
84.3438
83.7402
83.1594
82.6089
82.0953
81.6236
81.1974
80.8194
80.4911
80.2131
79.9855
79.808
79.68
79.6007
79.5693
79.5843
79.6435
79.7442
79.8833
80.0584
80.2674
80.5085
80.7812
81.086
81.4238
81.7954
82.2005
82.6388
83.1096
83.6119
84.1445
84.706
85.2942
85.907
86.5415
87.1949
87.8643
88.5467
89.2392
89.9389
90.6431
91.3487
92.0524
92.7508
93.4406
94.1188
94.783
95.4309
96.0602
96.6693
97.2566
97.8217
98.3642
98.8838
99.382
99.8597
100.317
100.757
101.18
101.588
101.983
102.367
102.741
103.107
103.466
103.819
104.166
104.509
104.848
105.183
105.516
105.847
106.176
106.503
106.827
107.147
107.463
107.774
108.079
108.377
108.668
108.95
109.222
109.481
109.726
109.958
110.175
110.376
110.562
110.731
110.883
111.019
111.138
111.24
111.326
111.397
111.453
111.496
111.527
111.547
111.557
111.558
111.552
111.538
111.519
111.496
111.468
111.437
111.403
111.366
111.328
111.287
111.244
111.199
111.152
111.104
111.053
111.001
110.947
110.891
110.834
110.775
110.714
110.652
110.589
110.525
110.459
110.393
110.325
110.257
110.188
110.118
110.048
109.977
109.905
109.833
109.761
109.689
109.616
109.544
109.471
109.398
109.325
109.251
109.177
109.104
109.03
108.955
108.881
108.807
108.732
108.658
108.583
108.509
108.434
108.36
108.285
108.21
108.136
108.061
107.986
107.91
107.835
107.76
107.684
107.609
107.533
107.458
107.382
107.307
107.231
107.156
107.08
107.005
106.929
106.854
106.778
106.703
106.627
106.551
106.475
106.4
106.324
106.248
106.172
106.097
106.021
105.945
105.869
105.793
105.717
105.641
105.565
105.489
105.413
105.337
105.261
105.185
105.109
105.033
104.957
104.881
104.805
104.729
104.652
104.577
104.5
104.425
104.348
104.273
104.195
104.12
104.043
103.968
103.891
103.816
103.738
103.663
103.586
103.511
103.433
103.358
103.281
103.205
103.128
103.053
102.975
102.9
102.822
102.747
102.669
102.595
102.517
102.442
102.364
102.289
102.21
102.136
102.057
101.983
101.904
101.829
101.751
101.676
101.597
101.523
101.444
101.369
101.29
101.215
101.136
101.061
100.982
100.907
100.827
100.753
100.673
100.598
100.518
100.443
100.362
100.288
100.207
100.133
100.051
99.9766
99.8945
99.8202
99.7375
99.6633
99.5801
99.5059
99.4219
99.3477
99.2631
99.1888
99.1034
99.0291
98.9429
98.8685
98.7813
98.7069
98.6187
98.5441
98.4547
98.3799
98.2893
98.2144
98.1223
98.0473
97.9537
97.8783
97.7831
97.7073
97.6103
97.5341
97.4351
97.3585
97.2573
97.1801
97.0767
96.9986
96.8929
96.8139
96.7056
96.6253
96.5146
96.4325
96.3192
96.2348
96.1188
96.0315
95.9131
95.8225
95.7021
95.6074
95.4851
95.3855
95.2614
95.1558
95.0298
94.9172
94.7892
94.6686
94.5383
94.4095
94.2769
94.1389
94.003
93.8541
93.7133
93.5519
93.4054
93.229
93.078
92.8819
92.727
92.5063
92.3461
92.0969
91.9276
91.6479
91.4615
91.1523
90.939
90.6066
90.3485
90.0005
89.677
89.309
88.9037
88.4939
87.9973
87.5277
86.8979
86.3499
85.547
84.8713
83.9157
82.981
81.8692
80.5347
79.0923
77.2185
75.3266
72.6055
69.6021
65.6685
60.3398
54.1394
43.9955
32.1607
15.8933
95.0843
94.5077
92.8128
91.5443
90.975
91.004
91.3542
91.7542
92.0504
92.194
92.1919
92.0783
91.8971
91.6808
91.4422
91.1765
90.8717
90.5196
90.123
89.6916
89.2338
88.7536
88.2527
87.7327
87.1965
86.6486
86.0947
85.5414
84.9961
84.4666
83.9608
83.4856
83.0462
82.6464
82.2896
81.9784
81.7145
81.499
81.332
81.2128
81.1398
81.1108
81.1231
81.1746
81.2636
81.389
81.55
81.7457
81.9753
82.2379
82.5324
82.8579
83.2138
83.5996
84.0152
84.4597
84.9322
85.4316
85.9561
86.5038
87.0721
87.6583
88.2594
88.8725
89.4945
90.1225
90.754
91.3861
92.0161
92.6414
93.2594
93.8673
94.4627
95.0433
95.6072
96.1529
96.6798
97.1871
97.6745
98.1427
98.5923
99.0245
99.4409
99.8428
100.232
100.61
100.979
101.339
101.692
102.04
102.383
102.722
103.058
103.392
103.723
104.055
104.387
104.72
105.056
105.393
105.731
106.071
106.411
106.749
107.085
107.419
107.748
108.071
108.387
108.693
108.988
109.27
109.538
109.79
110.024
110.239
110.436
110.615
110.775
110.915
111.037
111.142
111.228
111.299
111.354
111.396
111.426
111.445
111.453
111.453
111.445
111.431
111.413
111.39
111.363
111.333
111.3
111.264
111.226
111.186
111.144
111.1
111.054
111.005
110.955
110.903
110.849
110.793
110.736
110.676
110.616
110.554
110.491
110.427
110.361
110.295
110.227
110.159
110.09
110.021
109.951
109.881
109.81
109.739
109.668
109.597
109.525
109.453
109.38
109.307
109.234
109.161
109.088
109.015
108.942
108.868
108.794
108.72
108.646
108.572
108.498
108.424
108.35
108.276
108.202
108.128
108.054
107.979
107.904
107.829
107.754
107.679
107.604
107.529
107.453
107.378
107.303
107.228
107.153
107.077
107.002
106.926
106.851
106.775
106.7
106.624
106.549
106.473
106.398
106.322
106.246
106.171
106.095
106.019
105.943
105.867
105.791
105.716
105.639
105.564
105.487
105.412
105.335
105.26
105.183
105.108
105.031
104.955
104.879
104.803
104.726
104.651
104.574
104.498
104.422
104.346
104.269
104.194
104.117
104.041
103.964
103.888
103.812
103.736
103.659
103.583
103.506
103.43
103.354
103.277
103.201
103.124
103.048
102.971
102.895
102.818
102.741
102.665
102.588
102.512
102.435
102.358
102.281
102.205
102.128
102.051
101.974
101.897
101.82
101.743
101.666
101.589
101.512
101.435
101.357
101.28
101.202
101.125
101.047
100.97
100.892
100.815
100.736
100.659
100.58
100.503
100.424
100.346
100.267
100.189
100.11
100.032
99.9519
99.8734
99.7933
99.7145
99.634
99.555
99.474
99.3946
99.3131
99.2333
99.1512
99.0711
98.9882
98.9076
98.8241
98.743
98.6586
98.5769
98.4917
98.4094
98.3232
98.2402
98.1527
98.069
97.9802
97.8959
97.8055
97.7203
97.6281
97.5421
97.4479
97.361
97.2644
97.1766
97.0775
96.9887
96.8866
96.7969
96.6917
96.601
96.492
96.4004
96.2872
96.1944
96.0764
95.9822
95.8586
95.7631
95.6331
95.536
95.3989
95.3002
95.1554
95.0551
94.9023
94.8001
94.6389
94.5343
94.3646
94.2562
94.0773
93.9627
93.7763
93.6529
93.461
93.3252
93.1291
92.9759
92.7761
92.6007
92.3971
92.1966
91.9858
91.7576
91.5355
91.2771
91.0401
90.7468
90.4964
90.1513
89.8849
89.47
89.1801
88.6908
88.3539
87.8049
87.3737
86.7873
86.2107
85.5702
84.8166
84.0606
83.0875
82.2035
80.8946
79.7959
78.1264
76.4789
74.5016
71.9961
69.3578
65.3566
61.6661
55.5731
49.2733
40.5868
30.7876
20.4995
97.4138
97.1492
95.0225
93.2236
92.1375
91.7086
91.7153
91.9192
92.1517
92.3231
92.3999
92.3821
92.2851
92.1282
91.9246
91.6802
91.3985
91.0817
90.7325
90.3537
89.9498
89.5262
89.0877
88.6377
88.1779
87.7094
87.2337
86.7543
86.2783
85.8143
85.3697
84.9508
84.5624
84.2084
83.8919
83.6151
83.3793
83.1854
83.0339
82.9246
82.8566
82.8289
82.8402
82.8891
82.9746
83.0949
83.2485
83.4343
83.6518
83.9001
84.1778
84.4832
84.8153
85.173
85.5556
85.9626
86.393
86.8459
87.3197
87.8124
88.3216
88.8446
89.3785
89.9208
90.4688
91.0197
91.5711
92.1205
92.6654
93.2031
93.7317
94.2493
94.7542
95.2456
95.7221
96.1831
96.6281
97.0567
97.4691
97.8665
98.2497
98.6198
98.978
99.3256
99.6639
99.9942
100.318
100.635
100.948
101.256
101.563
101.868
102.174
102.483
102.796
103.115
103.44
103.772
104.111
104.458
104.811
105.17
105.533
105.898
106.266
106.634
107
107.364
107.723
108.074
108.415
108.741
109.051
109.341
109.613
109.865
110.097
110.308
110.497
110.665
110.812
110.939
111.046
111.135
111.208
111.264
111.306
111.335
111.354
111.363
111.364
111.357
111.345
111.327
111.304
111.277
111.247
111.214
111.179
111.141
111.102
111.06
111.016
110.97
110.922
110.872
110.819
110.764
110.708
110.65
110.591
110.53
110.468
110.405
110.341
110.275
110.209
110.142
110.074
110.006
109.937
109.868
109.798
109.727
109.657
109.586
109.516
109.445
109.373
109.301
109.229
109.156
109.083
109.011
108.938
108.864
108.791
108.717
108.643
108.569
108.495
108.421
108.347
108.273
108.199
108.125
108.051
107.976
107.901
107.826
107.751
107.676
107.601
107.525
107.45
107.375
107.3
107.225
107.15
107.075
106.999
106.924
106.849
106.773
106.698
106.623
106.547
106.472
106.396
106.321
106.245
106.169
106.094
106.018
105.942
105.866
105.79
105.714
105.639
105.562
105.487
105.41
105.335
105.258
105.183
105.106
105.03
104.954
104.878
104.802
104.725
104.649
104.573
104.497
104.42
104.345
104.268
104.192
104.115
104.039
103.962
103.887
103.809
103.734
103.656
103.581
103.503
103.428
103.35
103.275
103.197
103.122
103.044
102.968
102.89
102.815
102.737
102.661
102.583
102.507
102.429
102.353
102.275
102.199
102.12
102.045
101.966
101.891
101.811
101.736
101.656
101.581
101.501
101.426
101.346
101.27
101.19
101.114
101.034
100.958
100.877
100.802
100.72
100.644
100.562
100.487
100.404
100.329
100.246
100.17
100.087
100.01
99.9265
99.8503
99.7657
99.6894
99.6041
99.5276
99.4416
99.3647
99.2779
99.2006
99.1131
99.0352
98.9468
98.8685
98.7792
98.7002
98.6099
98.5301
98.4388
98.3582
98.2658
98.1843
98.0906
98.008
97.9131
97.8292
97.7329
97.6475
97.5497
97.4627
97.3634
97.2743
97.1734
97.0819
96.9793
96.8851
96.7808
96.6837
96.5776
96.4772
96.3692
96.2649
96.1549
96.0464
95.9342
95.8211
95.7067
95.5883
95.4713
95.3473
95.2272
95.0972
94.9734
94.8368
94.709
94.5643
94.4325
94.2776
94.1418
93.9741
93.8348
93.6515
93.5097
93.3083
93.1643
92.9421
92.7953
92.55
92.3973
92.1262
91.9627
91.6659
91.4877
91.17
90.9676
90.6368
90.3956
90.0588
89.7624
89.416
89.0493
88.6785
88.2368
87.8259
87.2912
86.849
86.179
85.6956
84.8611
84.2956
83.3186
82.5354
81.4932
80.3437
79.1455
77.5807
76.1699
73.8526
72.2072
68.9824
66.4699
62.3266
58.2839
53.1496
47.1531
40.6797
33.1932
25.803
93.6802
93.5607
93.9804
93.9713
93.6007
93.1136
92.7159
92.4864
92.4177
92.4673
92.5735
92.67
92.7066
92.6593
92.5245
92.3107
92.0326
91.7068
91.3489
90.9731
90.59
90.2062
89.8238
89.4427
89.0614
88.6775
88.2893
87.8985
87.5099
87.1301
86.7652
86.42
86.0987
85.8039
85.5377
85.3015
85.0971
84.9265
84.7916
84.6937
84.6335
84.6101
84.6224
84.6684
84.7465
84.8559
84.9956
85.1647
85.3621
85.5865
85.8369
86.1118
86.41
86.7305
87.0722
87.4341
87.8154
88.2151
88.6314
89.0627
89.5069
89.9615
90.4239
90.8916
91.362
91.8329
92.3022
92.7673
93.2264
93.6775
94.1191
94.5499
94.9692
95.3767
95.772
96.1547
96.5248
96.8819
97.2256
97.5564
97.8748
98.181
98.4755
98.7592
99.0335
99.2998
99.5601
99.8163
100.07
100.325
100.582
100.844
101.113
101.392
101.683
101.987
102.305
102.638
102.986
103.348
103.723
104.11
104.509
104.916
105.329
105.746
106.163
106.578
106.987
107.389
107.783
108.161
108.52
108.858
109.175
109.471
109.743
109.99
110.213
110.411
110.586
110.738
110.867
110.976
111.067
111.141
111.2
111.244
111.275
111.295
111.304
111.305
111.298
111.285
111.266
111.244
111.216
111.186
111.152
111.116
111.078
111.037
110.994
110.948
110.9
110.85
110.798
110.744
110.688
110.63
110.571
110.51
110.448
110.385
110.322
110.257
110.192
110.126
110.059
109.991
109.923
109.855
109.786
109.716
109.646
109.576
109.506
109.435
109.364
109.292
109.22
109.148
109.076
109.003
108.931
108.858
108.785
108.712
108.638
108.564
108.49
108.416
108.342
108.268
108.195
108.121
108.047
107.973
107.898
107.823
107.748
107.673
107.598
107.522
107.447
107.372
107.297
107.222
107.147
107.072
106.997
106.922
106.846
106.771
106.696
106.62
106.545
106.469
106.394
106.318
106.243
106.167
106.092
106.016
105.94
105.864
105.789
105.712
105.637
105.561
105.485
105.409
105.333
105.257
105.181
105.104
105.029
104.952
104.876
104.799
104.724
104.647
104.572
104.494
104.419
104.342
104.266
104.189
104.113
104.036
103.96
103.883
103.807
103.73
103.654
103.576
103.501
103.423
103.348
103.27
103.194
103.116
103.04
102.962
102.887
102.808
102.733
102.654
102.579
102.5
102.424
102.345
102.27
102.191
102.115
102.036
101.96
101.88
101.805
101.725
101.649
101.569
101.493
101.413
101.337
101.256
101.18
101.099
101.023
100.942
100.866
100.784
100.707
100.625
100.549
100.466
100.39
100.306
100.23
100.146
100.069
99.9844
99.9073
99.8221
99.7447
99.6587
99.5811
99.4941
99.4163
99.3283
99.2503
99.1613
99.0829
98.9926
98.9138
98.8222
98.743
98.6499
98.5703
98.4756
98.3955
98.299
98.2184
98.1198
98.0387
97.9379
97.8562
97.753
97.6706
97.5647
97.4816
97.3726
97.2888
97.1765
97.0918
96.9759
96.8903
96.7702
96.6835
96.5588
96.4706
96.3409
96.2511
96.1162
96.0245
95.8842
95.7902
95.6445
95.5477
95.3964
95.2959
95.139
95.0338
94.8715
94.7604
94.5931
94.4743
94.3024
94.1739
93.9977
93.8571
93.677
93.522
93.3383
93.1666
92.978
92.7871
92.5917
92.3807
92.1763
91.9439
91.7283
91.4707
91.244
90.9515
90.7175
90.3779
90.1398
89.7393
89.4959
89.0254
88.7655
88.2259
87.9169
87.3277
86.9273
86.3205
85.7791
85.1584
84.4375
83.7557
82.8435
82.1014
80.8488
80.0939
78.4011
77.5133
75.4075
74.101
71.6275
69.624
66.7982
63.7782
60.3809
56.403
52.328
47.3488
42.4031
36.766
30.8774
99.9643
99.6407
96.8254
94.3141
92.6064
91.7028
91.4676
91.6614
92.0469
92.4538
92.7885
93.0129
93.1175
93.105
92.9861
92.7783
92.503
92.1825
91.8368
91.4825
91.1312
90.7897
90.4601
90.1406
89.8287
89.5224
89.2205
88.923
88.63
88.3419
88.0603
87.7876
87.5272
87.2831
87.0587
86.8574
86.6818
86.5343
86.4167
86.3307
86.2773
86.2566
86.2683
86.311
86.3837
86.4847
86.6129
86.7669
86.9455
87.1474
87.3716
87.6166
87.8812
88.1642
88.4648
88.782
89.1144
89.4609
89.82
90.1898
90.5685
90.9542
91.3446
91.7378
92.1317
92.5244
92.914
93.2988
93.6776
94.0489
94.4121
94.7661
95.1103
95.444
95.7662
96.0761
96.3733
96.657
96.9269
97.1831
97.4252
97.654
97.8708
98.0766
98.2735
98.4642
98.6516
98.8392
99.0299
99.2267
99.433
99.6516
99.8849
100.136
100.407
100.7
101.016
101.357
101.721
102.108
102.515
102.941
103.383
103.839
104.306
104.779
105.257
105.734
106.207
106.674
107.13
107.569
107.988
108.383
108.754
109.099
109.417
109.705
109.964
110.194
110.397
110.573
110.725
110.854
110.962
111.051
111.122
111.178
111.219
111.248
111.265
111.273
111.273
111.265
111.25
111.23
111.205
111.176
111.143
111.107
111.068
111.026
110.982
110.935
110.886
110.835
110.782
110.728
110.671
110.613
110.554
110.494
110.432
110.37
110.307
110.243
110.178
110.113
110.047
109.98
109.913
109.844
109.776
109.707
109.637
109.567
109.497
109.426
109.355
109.284
109.212
109.14
109.069
108.996
108.924
108.851
108.778
108.705
108.631
108.557
108.484
108.41
108.337
108.264
108.19
108.117
108.043
107.969
107.894
107.82
107.745
107.67
107.595
107.52
107.445
107.37
107.295
107.22
107.145
107.07
106.995
106.919
106.844
106.769
106.694
106.618
106.543
106.468
106.392
106.317
106.241
106.166
106.09
106.015
105.938
105.863
105.787
105.712
105.635
105.56
105.483
105.408
105.331
105.256
105.179
105.103
105.027
104.951
104.874
104.798
104.722
104.645
104.569
104.493
104.416
104.34
104.264
104.187
104.111
104.034
103.957
103.881
103.804
103.727
103.651
103.574
103.497
103.42
103.344
103.267
103.19
103.113
103.036
102.959
102.882
102.804
102.727
102.65
102.573
102.495
102.418
102.34
102.263
102.185
102.108
102.03
101.952
101.874
101.796
101.718
101.64
101.561
101.483
101.405
101.326
101.247
101.169
101.09
101.011
100.931
100.852
100.772
100.693
100.613
100.533
100.452
100.372
100.291
100.211
100.129
100.048
99.9664
99.8851
99.8025
99.7206
99.6374
99.5548
99.4711
99.3877
99.3034
99.2192
99.1341
99.049
98.9631
98.8771
98.7903
98.7032
98.6154
98.5272
98.4383
98.3488
98.2588
98.1677
98.0764
97.9837
97.8911
97.7965
97.7025
97.6059
97.5103
97.4114
97.3142
97.2127
97.1136
97.0094
96.9082
96.8008
96.6972
96.5863
96.4802
96.3651
96.2563
96.1366
96.0252
95.9
95.786
95.6545
95.5378
95.3989
95.2796
95.132
95.0104
94.8526
94.729
94.5593
94.4339
94.2503
94.1236
93.924
93.796
93.5786
93.4492
93.2123
93.0799
92.821
92.6827
92.4007
92.2554
91.9527
91.7959
91.4753
91.2987
90.9661
90.7574
90.4165
90.1589
89.8127
89.4912
89.1415
88.7497
88.3869
87.9232
87.5361
86.9808
86.5905
85.881
85.5049
84.5919
84.2222
83.091
82.6706
81.3266
80.7377
79.2232
78.349
76.7012
75.4155
73.6734
71.8757
69.8919
67.6216
65.2759
62.3071
59.4987
56.0291
52.6237
48.6742
44.5276
40.0035
35.1775
101.105
100.471
97.0252
93.9104
91.8735
90.9259
90.8808
91.3587
92.004
92.6011
93.0606
93.3607
93.5026
93.501
93.3833
93.1824
92.9293
92.6489
92.3577
92.0654
91.7768
91.4941
91.2183
90.9494
90.6866
90.4288
90.1745
89.9234
89.6762
89.4339
89.1985
88.9721
88.7572
88.5566
88.3729
88.2092
88.0672
87.9485
87.8545
87.7865
87.7454
87.7319
87.7461
87.7876
87.8557
87.9495
88.0676
88.2084
88.3702
88.5512
88.7501
88.9654
89.1961
89.4411
89.6995
89.9703
90.2527
90.5456
90.8477
91.1579
91.4743
91.7954
92.1194
92.4444
92.7688
93.0912
93.41
93.724
94.0323
94.3336
94.6271
94.9112
95.1851
95.4475
95.6968
95.9322
96.1531
96.3584
96.5477
96.721
96.8792
97.0235
97.1561
97.2795
97.3966
97.5106
97.6247
97.7429
97.8693
98.0077
98.162
98.3365
98.5347
98.7597
99.0138
99.2986
99.6152
99.9639
100.344
100.756
101.196
101.662
102.153
102.663
103.189
103.728
104.275
104.824
105.372
105.911
106.435
106.94
107.423
107.881
108.312
108.713
109.081
109.414
109.715
109.982
110.216
110.419
110.594
110.742
110.867
110.97
111.052
111.118
111.169
111.206
111.232
111.246
111.251
111.247
111.236
111.218
111.194
111.166
111.133
111.097
111.058
111.016
110.971
110.924
110.875
110.823
110.77
110.715
110.659
110.601
110.543
110.483
110.422
110.361
110.298
110.234
110.17
110.105
110.039
109.973
109.906
109.838
109.771
109.702
109.633
109.564
109.494
109.424
109.353
109.282
109.211
109.14
109.068
108.996
108.924
108.852
108.779
108.706
108.633
108.56
108.486
108.413
108.339
108.265
108.191
108.117
108.043
107.969
107.895
107.82
107.745
107.67
107.595
107.519
107.444
107.368
107.293
107.217
107.142
107.066
106.991
106.915
106.841
106.765
106.69
106.614
106.54
106.464
106.389
106.314
106.238
106.162
106.087
106.011
105.936
105.86
105.785
105.709
105.634
105.558
105.482
105.406
105.33
105.254
105.178
105.102
105.026
104.95
104.873
104.797
104.721
104.645
104.568
104.492
104.415
104.339
104.262
104.185
104.108
104.032
103.955
103.879
103.802
103.725
103.648
103.572
103.494
103.418
103.34
103.264
103.186
103.11
103.032
102.955
102.877
102.801
102.722
102.646
102.567
102.491
102.412
102.335
102.256
102.18
102.1
102.023
101.944
101.867
101.787
101.71
101.63
101.553
101.472
101.395
101.314
101.237
101.156
101.079
100.997
100.919
100.837
100.759
100.676
100.599
100.515
100.437
100.352
100.274
100.189
100.111
100.025
99.9464
99.8594
99.7806
99.6926
99.6136
99.5244
99.445
99.3547
99.2748
99.1833
99.1029
99.0101
98.9292
98.8349
98.7533
98.6575
98.5752
98.4776
98.3946
98.295
98.2112
98.1095
98.0248
97.9208
97.835
97.7285
97.6414
97.5323
97.4437
97.3317
97.2414
97.1263
97.034
96.9155
96.8209
96.6989
96.6016
96.476
96.3753
96.246
96.1416
96.0083
95.8994
95.762
95.6479
95.5065
95.3862
95.2406
95.1131
94.9634
94.8274
94.6735
94.5275
94.3694
94.2118
94.0492
93.8782
93.7105
93.5244
93.3505
93.1475
92.9662
92.7453
92.5556
92.3154
92.1179
91.8532
91.6503
91.3519
91.1474
90.8044
90.6048
90.204
90.0118
89.5363
89.3499
88.7857
88.6019
87.9411
87.7487
86.9957
86.7765
85.9418
85.6613
84.7479
84.3559
83.3711
82.8276
81.7865
81.0143
79.9359
78.9161
77.7653
76.5245
75.2269
73.7455
72.3025
70.468
68.7858
66.5866
64.5229
61.9537
59.4018
56.4768
53.4017
50.0443
46.4598
42.6363
38.593
101.398
100.882
97.5237
94.3956
92.3075
91.2861
91.184
91.6452
92.3108
92.9478
93.4496
93.7857
93.9547
93.9695
93.8597
93.6627
93.4144
93.143
92.8676
92.5995
92.3443
92.1032
91.8748
91.6565
91.4447
91.2365
91.0297
90.8238
90.6194
90.4178
90.2211
90.0315
89.8517
89.6844
89.5326
89.3987
89.2848
89.1926
89.1232
89.0771
89.0545
89.0549
89.0779
89.1228
89.1887
89.275
89.3807
89.5046
89.6452
89.8011
89.971
90.1538
90.3488
90.5556
90.7736
91.0023
91.2407
91.4878
91.7422
92.0024
92.2673
92.535
92.8042
93.0734
93.3408
93.6048
93.864
94.1171
94.3628
94.6003
94.8282
95.0448
95.2489
95.439
95.6137
95.772
95.9131
96.0363
96.1418
96.2297
96.3015
96.3592
96.4048
96.4413
96.4726
96.5023
96.5348
96.5752
96.6288
96.7007
96.797
96.9228
97.082