/*--------------------------------*- C++ -*----------------------------------*\
| =========                 |                                                 |
| \\      /  F ield         | OpenFOAM: The Open Source CFD Toolbox           |
|  \\    /   O peration     | Version:  2.4.0                                 |
|   \\  /    A nd           | Web:      www.OpenFOAM.org                      |
|    \\/     M anipulation  |                                                 |
\*---------------------------------------------------------------------------*/
FoamFile
{
    version     2.0;
    format      ascii;
    class       volSymmTensorField;
    location    "0.055";
    object      UPrime2Mean;
}
// * * * * * * * * * * * * * * * * * * * * * * * * * * * * * * * * * * * * * //

dimensions      [0 2 -2 0 0 0 0];

internalField   nonuniform List<symmTensor> 
17600
(
(0.050747 0.00251589 0 0.000269041 0 0)
(0.0045969 -0.000974189 0 0.00369409 0 0)
(0.0870345 -0.0207416 0 0.00610652 0 0)
(0.26302 -0.0342044 0 0.00491041 0 0)
(0.49462 -0.0354848 0 0.00271271 0 0)
(0.771827 -0.0281604 0 0.00110666 0 0)
(1.06585 -0.0166635 0 0.000317838 0 0)
(1.3412 -0.00511677 0 5.70348e-05 0 0)
(1.57466 0.00423377 0 3.54844e-05 0 0)
(1.75222 0.0101943 0 8.72908e-05 0 0)
(1.88714 0.0126559 0 0.000128662 0 0)
(1.97928 0.0126082 0 0.000132665 0 0)
(2.05211 0.0111846 0 0.000109829 0 0)
(2.09901 0.00933545 0 8.5474e-05 0 0)
(2.14393 0.00749588 0 5.89216e-05 0 0)
(2.17081 0.00585721 0 4.57029e-05 0 0)
(2.2043 0.00436118 0 3.29408e-05 0 0)
(2.2225 0.00318491 0 1.92772e-05 0 0)
(2.25101 0.0021855 0 1.57618e-05 0 0)
(2.2659 0.0013881 0 1.12672e-05 0 0)
(2.29107 0.000867897 0 1.02819e-05 0 0)
(2.30683 0.000316569 0 1.0483e-05 0 0)
(2.32836 0.00011436 0 1.1641e-05 0 0)
(2.34861 -0.000296399 0 1.02693e-05 0 0)
(2.36385 -0.000371439 0 1.21054e-05 0 0)
(2.39347 -0.000570223 0 1.31446e-05 0 0)
(2.39742 -0.000952931 0 1.94642e-05 0 0)
(2.44393 -0.000657173 0 2.09159e-05 0 0)
(2.43236 -0.00219232 0 4.45614e-05 0 0)
(2.50329 -0.000746565 0 4.22342e-05 0 0)
(2.4857 -0.00505435 0 0.000111313 0 0)
(2.56875 -0.000177797 0 0.000117535 0 0)
(2.61334 -0.0136703 0 0.000359097 0 0)
(2.62114 0.00740399 0 0.0006049 0 0)
(2.95576 -0.0525829 0 0.00235143 0 0)
(2.65703 0.0517136 0 0.00561919 0 0)
(3.78053 -0.213749 0 0.0194526 0 0)
(2.9301 0.211466 0 0.0401802 0 0)
(5.75577 -0.833203 0 0.145167 0 0)
(5.18657 0.292089 0 0.04618 0 0)
(0.0512743 0.00422556 0 0.000558404 0 0)
(0.00935869 0.00658623 0 0.00482212 0 0)
(0.000833312 0.00238329 0 0.0119194 0 0)
(0.001647 -0.002936 0 0.0176246 0 0)
(0.00629911 -0.00835299 0 0.0195207 0 0)
(0.0138577 -0.0146332 0 0.0183286 0 0)
(0.032856 -0.0224786 0 0.0158438 0 0)
(0.0675269 -0.0287863 0 0.0127721 0 0)
(0.123508 -0.0328166 0 0.00974134 0 0)
(0.189911 -0.032404 0 0.00682618 0 0)
(0.272458 -0.0305364 0 0.00463765 0 0)
(0.352503 -0.0264871 0 0.00295675 0 0)
(0.446744 -0.0236241 0 0.00195287 0 0)
(0.527957 -0.0199118 0 0.0012812 0 0)
(0.62471 -0.0178073 0 0.000867698 0 0)
(0.700323 -0.0150471 0 0.000647272 0 0)
(0.791688 -0.0135448 0 0.000460711 0 0)
(0.861637 -0.0118282 0 0.000448409 0 0)
(0.938255 -0.0105841 0 0.000285346 0 0)
(1.01232 -0.010236 0 0.000318067 0 0)
(1.06174 -0.00907515 0 0.00020916 0 0)
(1.15289 -0.0100484 0 0.000292925 0 0)
(1.16688 -0.0079396 0 0.000173929 0 0)
(1.28748 -0.0115197 0 0.00036108 0 0)
(1.25781 -0.00616732 0 0.000198985 0 0)
(1.41924 -0.015045 0 0.000512348 0 0)
(1.3412 -0.00255467 0 0.000276263 0 0)
(1.54618 -0.022678 0 0.000872045 0 0)
(1.42923 0.00425299 0 0.000603937 0 0)
(1.66506 -0.0377431 0 0.00176717 0 0)
(1.54548 0.0148583 0 0.00152216 0 0)
(1.77827 -0.0642955 0 0.00404754 0 0)
(1.72649 0.0277296 0 0.00376662 0 0)
(1.91424 -0.106016 0 0.0094134 0 0)
(2.02356 0.0341868 0 0.00821271 0 0)
(2.17442 -0.176191 0 0.02249 0 0)
(2.53782 0.00233274 0 0.0141555 0 0)
(2.80299 -0.342906 0 0.0653299 0 0)
(3.47764 -0.23914 0 0.0260838 0 0)
(3.9396 -0.963382 0 0.4222 0 0)
(0.051249 0.003072 0 0.000299227 0 0)
(0.00959622 0.00530525 0 0.00319397 0 0)
(0.00228458 0.00373985 0 0.00892437 0 0)
(0.00359754 0.00561318 0 0.0148049 0 0)
(0.0113542 0.0105375 0 0.0178381 0 0)
(0.0221034 0.0163324 0 0.0179594 0 0)
(0.0282318 0.0182663 0 0.0164215 0 0)
(0.0308267 0.0178555 0 0.0144437 0 0)
(0.0277849 0.0140922 0 0.0122591 0 0)
(0.0251972 0.0105355 0 0.010048 0 0)
(0.0201516 0.00622753 0 0.00802245 0 0)
(0.0170126 0.00370476 0 0.00632729 0 0)
(0.0144568 0.000697543 0 0.0051078 0 0)
(0.0134469 -0.00102783 0 0.00408147 0 0)
(0.0159546 -0.0031221 0 0.00369445 0 0)
(0.019528 -0.00471369 0 0.00302932 0 0)
(0.0264292 -0.00623495 0 0.0030201 0 0)
(0.0363557 -0.00710235 0 0.00216117 0 0)
(0.0445572 -0.0079326 0 0.00233363 0 0)
(0.0640852 -0.00857398 0 0.00186005 0 0)
(0.0683809 -0.00933016 0 0.00186285 0 0)
(0.10031 -0.00965425 0 0.00154738 0 0)
(0.0981479 -0.0106385 0 0.00164935 0 0)
(0.143884 -0.010524 0 0.00140127 0 0)
(0.133181 -0.0119767 0 0.00155417 0 0)
(0.19445 -0.0110312 0 0.00139574 0 0)
(0.17441 -0.0135094 0 0.00151321 0 0)
(0.25043 -0.0116085 0 0.00146809 0 0)
(0.222489 -0.0155822 0 0.00160772 0 0)
(0.311815 -0.0127547 0 0.00160661 0 0)
(0.280892 -0.0194685 0 0.00205255 0 0)
(0.382692 -0.0164512 0 0.00206786 0 0)
(0.357064 -0.0273937 0 0.00335256 0 0)
(0.475861 -0.0264084 0 0.00338499 0 0)
(0.468223 -0.044083 0 0.00726038 0 0)
(0.620102 -0.053149 0 0.00742983 0 0)
(0.656649 -0.0905901 0 0.0229244 0 0)
(0.885755 -0.153629 0 0.033607 0 0)
(0.995566 -0.277434 0 0.13018 0 0)
(1.22861 -0.546585 0 0.3836 0 0)
(0.0515403 0.0023288 0 0.000235541 0 0)
(0.00969465 0.00403605 0 0.00202218 0 0)
(0.0023731 0.00249618 0 0.0056695 0 0)
(0.00286007 0.0036027 0 0.00943071 0 0)
(0.0097422 0.00788905 0 0.0118243 0 0)
(0.0231174 0.0139623 0 0.0119115 0 0)
(0.0377538 0.0185068 0 0.01141 0 0)
(0.0536096 0.0210319 0 0.00982683 0 0)
(0.0655769 0.0217694 0 0.009025 0 0)
(0.0780952 0.0205801 0 0.00743911 0 0)
(0.0858836 0.0198165 0 0.00711395 0 0)
(0.0945185 0.0178801 0 0.00558348 0 0)
(0.0986302 0.0175332 0 0.0054696 0 0)
(0.103131 0.0155831 0 0.00440875 0 0)
(0.104435 0.0158474 0 0.00425312 0 0)
(0.106027 0.0131115 0 0.00385715 0 0)
(0.105858 0.0138367 0 0.00351628 0 0)
(0.106029 0.0109507 0 0.0037222 0 0)
(0.105534 0.011943 0 0.00264304 0 0)
(0.104669 0.00915544 0 0.0034719 0 0)
(0.103564 0.0103295 0 0.00224783 0 0)
(0.101803 0.00797389 0 0.0031675 0 0)
(0.10011 0.00877501 0 0.0020454 0 0)
(0.097339 0.00697438 0 0.00327597 0 0)
(0.0946878 0.00760237 0 0.0019092 0 0)
(0.0919315 0.00613853 0 0.00343556 0 0)
(0.0885301 0.00626184 0 0.00193175 0 0)
(0.0853071 0.00546673 0 0.00376697 0 0)
(0.0810931 0.00511107 0 0.00211177 0 0)
(0.0776748 0.00545007 0 0.00429098 0 0)
(0.0723335 0.0045454 0 0.00272353 0 0)
(0.0682499 0.00609561 0 0.00544207 0 0)
(0.0609017 0.00492189 0 0.00419286 0 0)
(0.055408 0.0073793 0 0.0083536 0 0)
(0.0455388 0.00636715 0 0.00821779 0 0)
(0.0394758 0.0073033 0 0.0178679 0 0)
(0.0303348 0.00531885 0 0.0251747 0 0)
(0.0303514 -0.00266555 0 0.0569771 0 0)
(0.0320699 -0.0119474 0 0.120505 0 0)
(0.0415366 -0.0274661 0 0.255438 0 0)
(0.0512826 0.00194491 0 0.000274338 0 0)
(0.00909458 0.00290835 0 0.00135278 0 0)
(0.00201448 0.00175221 0 0.00372863 0 0)
(0.00185299 0.00203121 0 0.00563686 0 0)
(0.00679902 0.00503543 0 0.00769002 0 0)
(0.0169763 0.00938945 0 0.0075015 0 0)
(0.0295595 0.0132675 0 0.00764435 0 0)
(0.0440718 0.0154865 0 0.00633658 0 0)
(0.0574799 0.016772 0 0.00589188 0 0)
(0.0718172 0.0163217 0 0.00480159 0 0)
(0.0835618 0.0164224 0 0.004668 0 0)
(0.0967085 0.0154562 0 0.00387705 0 0)
(0.106342 0.0155034 0 0.00380817 0 0)
(0.117798 0.0148979 0 0.00293319 0 0)
(0.125343 0.0148073 0 0.00313846 0 0)
(0.135654 0.014173 0 0.00263668 0 0)
(0.141655 0.0143094 0 0.00292164 0 0)
(0.152687 0.0133654 0 0.00230888 0 0)
(0.157748 0.0135525 0 0.00236486 0 0)
(0.169833 0.0125526 0 0.00223497 0 0)
(0.173794 0.0130917 0 0.00198649 0 0)
(0.186571 0.0123407 0 0.00205065 0 0)
(0.188823 0.0129536 0 0.00192274 0 0)
(0.201594 0.0126994 0 0.00223819 0 0)
(0.201819 0.0131968 0 0.00186195 0 0)
(0.214286 0.0132469 0 0.00207828 0 0)
(0.212646 0.013307 0 0.00203571 0 0)
(0.223851 0.0140844 0 0.00223387 0 0)
(0.220046 0.0144686 0 0.0022064 0 0)
(0.229558 0.0163715 0 0.00257302 0 0)
(0.222595 0.0178384 0 0.00272139 0 0)
(0.228552 0.0216864 0 0.00356075 0 0)
(0.216112 0.0253269 0 0.00432951 0 0)
(0.215634 0.0331842 0 0.00675499 0 0)
(0.195002 0.0406186 0 0.00971652 0 0)
(0.185116 0.056337 0 0.018847 0 0)
(0.154348 0.0696039 0 0.0331233 0 0)
(0.137507 0.0979164 0 0.0745102 0 0)
(0.117196 0.120176 0 0.139869 0 0)
(0.160207 0.20737 0 0.306862 0 0)
(0.0512279 0.00120668 0 0.000248329 0 0)
(0.0088675 0.00261477 0 0.00129978 0 0)
(0.00193328 0.00101978 0 0.00205772 0 0)
(0.00147827 0.00134377 0 0.00421928 0 0)
(0.00511538 0.00312624 0 0.00425282 0 0)
(0.0130951 0.00686059 0 0.005992 0 0)
(0.0232631 0.00888913 0 0.00435559 0 0)
(0.0354016 0.0122153 0 0.00544106 0 0)
(0.0470196 0.0111834 0 0.0032065 0 0)
(0.0599817 0.0137631 0 0.00414778 0 0)
(0.070924 0.0103897 0 0.00237341 0 0)
(0.083114 0.0139865 0 0.0036568 0 0)
(0.0924821 0.00919991 0 0.00174136 0 0)
(0.103405 0.0143066 0 0.00355515 0 0)
(0.111292 0.00834366 0 0.000977044 0 0)
(0.12113 0.0146586 0 0.00332901 0 0)
(0.128333 0.00718189 0 0.000768505 0 0)
(0.138765 0.0152924 0 0.00341836 0 0)
(0.146082 0.00579664 0 0.000719232 0 0)
(0.157353 0.0158171 0 0.00295229 0 0)
(0.164705 0.00448939 0 0.000557865 0 0)
(0.176657 0.0166869 0 0.00286529 0 0)
(0.183626 0.00401552 0 0.000569532 0 0)
(0.195216 0.0181634 0 0.00311789 0 0)
(0.201542 0.0039172 0 0.000688933 0 0)
(0.212482 0.0197581 0 0.00292944 0 0)
(0.218082 0.0041899 0 0.00093369 0 0)
(0.228157 0.021494 0 0.00315018 0 0)
(0.232837 0.00579323 0 0.00111842 0 0)
(0.241585 0.0248603 0 0.003674 0 0)
(0.244419 0.0102341 0 0.00151101 0 0)
(0.250421 0.031579 0 0.00505551 0 0)
(0.24946 0.0203067 0 0.00284091 0 0)
(0.250543 0.0453586 0 0.00937007 0 0)
(0.244088 0.0415991 0 0.00810939 0 0)
(0.240084 0.0745437 0 0.0245325 0 0)
(0.231942 0.0865534 0 0.0337625 0 0)
(0.232849 0.141579 0 0.0916479 0 0)
(0.241625 0.187827 0 0.159457 0 0)
(0.25059 0.270734 0 0.32856 0 0)
(0.0513253 0.00117173 0 0.000150226 0 0)
(0.00852141 0.00158489 0 0.000546041 0 0)
(0.00196437 0.000790323 0 0.00128266 0 0)
(0.00125911 0.000582988 0 0.00186782 0 0)
(0.00416083 0.00211314 0 0.00286603 0 0)
(0.0104893 0.00427906 0 0.00283615 0 0)
(0.01921 0.00665881 0 0.00323901 0 0)
(0.0292438 0.00763642 0 0.00244335 0 0)
(0.0400601 0.00900033 0 0.0024909 0 0)
(0.0511158 0.00817501 0 0.00165685 0 0)
(0.0621481 0.00929042 0 0.0019525 0 0)
(0.072445 0.00765689 0 0.00133428 0 0)
(0.0820543 0.00918985 0 0.00171669 0 0)
(0.0909905 0.00726717 0 0.000915606 0 0)
(0.0992217 0.00915993 0 0.00146322 0 0)
(0.107394 0.00686652 0 0.000858832 0 0)
(0.115213 0.00935544 0 0.00140443 0 0)
(0.123544 0.00648329 0 0.00085456 0 0)
(0.131544 0.00921675 0 0.00119191 0 0)
(0.14074 0.00597294 0 0.000760414 0 0)
(0.149032 0.00914121 0 0.00101379 0 0)
(0.159248 0.00583152 0 0.000635954 0 0)
(0.166852 0.00961156 0 0.000994191 0 0)
(0.176993 0.00641372 0 0.000867582 0 0)
(0.183699 0.0103569 0 0.00104401 0 0)
(0.19392 0.00734105 0 0.000820287 0 0)
(0.199464 0.0113795 0 0.00102734 0 0)
(0.209858 0.00878309 0 0.00110161 0 0)
(0.214268 0.0134062 0 0.00118231 0 0)
(0.224398 0.0123652 0 0.00144813 0 0)
(0.227015 0.017991 0 0.00177289 0 0)
(0.236181 0.0198388 0 0.00243802 0 0)
(0.235817 0.0280109 0 0.00367168 0 0)
(0.243046 0.035444 0 0.00595254 0 0)
(0.23968 0.0495286 0 0.0107123 0 0)
(0.246451 0.0679987 0 0.0194778 0 0)
(0.244107 0.0948119 0 0.0383579 0 0)
(0.255288 0.131599 0 0.071104 0 0)
(0.258156 0.176495 0 0.130371 0 0)
(0.261976 0.218562 0 0.19863 0 0)
(0.0513935 0.000633711 0 4.91169e-05 0 0)
(0.00839212 0.00118348 0 0.000302949 0 0)
(0.00200119 0.000395654 0 0.000536848 0 0)
(0.00121664 0.000319679 0 0.00104336 0 0)
(0.00366377 0.00124815 0 0.00122867 0 0)
(0.00901425 0.00284308 0 0.0016799 0 0)
(0.0166182 0.00411045 0 0.00138907 0 0)
(0.0254399 0.00540502 0 0.00154292 0 0)
(0.0355014 0.00539219 0 0.000996038 0 0)
(0.0456244 0.00620521 0 0.00109962 0 0)
(0.0562864 0.00520557 0 0.000687559 0 0)
(0.0657529 0.00626372 0 0.000927931 0 0)
(0.0751709 0.00476016 0 0.000559814 0 0)
(0.0833953 0.00633603 0 0.000890932 0 0)
(0.0914549 0.00462976 0 0.000426538 0 0)
(0.0986898 0.0065233 0 0.000788614 0 0)
(0.10637 0.00422757 0 0.000353659 0 0)
(0.113855 0.00650738 0 0.000798049 0 0)
(0.121748 0.00388449 0 0.000471916 0 0)
(0.13011 0.00656885 0 0.000686772 0 0)
(0.138439 0.00371098 0 0.000300786 0 0)
(0.14768 0.00668356 0 0.000662861 0 0)
(0.155617 0.00378671 0 0.000315679 0 0)
(0.164492 0.00745384 0 0.000753456 0 0)
(0.171713 0.00436177 0 0.000490482 0 0)
(0.180609 0.00842152 0 0.000725225 0 0)
(0.186987 0.00547462 0 0.000486263 0 0)
(0.196117 0.00992088 0 0.000938837 0 0)
(0.2021 0.00763255 0 0.000652766 0 0)
(0.211004 0.0134683 0 0.00126285 0 0)
(0.216059 0.0125968 0 0.00112917 0 0)
(0.224766 0.0207543 0 0.00234013 0 0)
(0.228518 0.0230536 0 0.00270906 0 0)
(0.236891 0.036136 0 0.00592742 0 0)
(0.240119 0.044868 0 0.00890129 0 0)
(0.250711 0.0678871 0 0.01896 0 0)
(0.257523 0.089104 0 0.0319149 0 0)
(0.276875 0.130867 0 0.0641685 0 0)
(0.292172 0.174159 0 0.108436 0 0)
(0.30343 0.235559 0 0.191296 0 0)
(0.0513868 0.000494214 0 4.83683e-05 0 0)
(0.0082489 0.00061787 0 0.000151108 0 0)
(0.00197393 0.000291554 0 0.000273964 0 0)
(0.00120262 0.00013311 0 0.000363195 0 0)
(0.0033568 0.000716315 0 0.000554849 0 0)
(0.00808762 0.00152152 0 0.000582896 0 0)
(0.0149468 0.00245678 0 0.000647743 0 0)
(0.023056 0.00285018 0 0.000521834 0 0)
(0.0325504 0.00337449 0 0.000492911 0 0)
(0.0422246 0.00313241 0 0.000347393 0 0)
(0.0525229 0.0035218 0 0.000389889 0 0)
(0.0615983 0.0030251 0 0.000319049 0 0)
(0.0707369 0.00349222 0 0.000346311 0 0)
(0.0785221 0.00298673 0 0.000242334 0 0)
(0.0862742 0.00348439 0 0.000308344 0 0)
(0.0932111 0.00286665 0 0.0002428 0 0)
(0.100756 0.00346084 0 0.000277576 0 0)
(0.107809 0.00277733 0 0.000269195 0 0)
(0.115559 0.00338792 0 0.000284219 0 0)
(0.123423 0.00276851 0 0.000240939 0 0)
(0.131627 0.00345454 0 0.000235358 0 0)
(0.140465 0.00290888 0 0.000240681 0 0)
(0.148546 0.00368175 0 0.000214481 0 0)
(0.156818 0.00339735 0 0.000284392 0 0)
(0.164202 0.00422566 0 0.000315084 0 0)
(0.172688 0.00438514 0 0.000335674 0 0)
(0.179296 0.00547752 0 0.00033377 0 0)
(0.188206 0.00606547 0 0.000452756 0 0)
(0.194807 0.00783752 0 0.000546599 0 0)
(0.203874 0.00964713 0 0.000708381 0 0)
(0.210001 0.0129736 0 0.0010565 0 0)
(0.219674 0.0168382 0 0.00159409 0 0)
(0.225701 0.0231895 0 0.00267534 0 0)
(0.236637 0.0314671 0 0.00451505 0 0)
(0.244339 0.0440704 0 0.00839374 0 0)
(0.260106 0.0615759 0 0.0151268 0 0)
(0.274977 0.0872379 0 0.0285565 0 0)
(0.30238 0.12304 0 0.0515669 0 0)
(0.325699 0.169597 0 0.0910251 0 0)
(0.330536 0.216097 0 0.14621 0 0)
(0.0513952 0.000352861 0 9.79033e-05 0 0)
(0.00823804 1.36979e-05 0 0.000150249 0 0)
(0.00198764 0.000138842 0 0.000155929 0 0)
(0.0012112 -4.15652e-06 0 0.000130771 0 0)
(0.00324189 0.000261478 0 0.000216371 0 0)
(0.00771489 0.000374945 0 0.000131405 0 0)
(0.0142209 0.000957606 0 0.000236915 0 0)
(0.0220006 0.000578897 0 0.000123442 0 0)
(0.0312728 0.00149985 0 0.000208199 0 0)
(0.040723 0.000418155 0 0.000109686 0 0)
(0.0508692 0.00183251 0 0.000201759 0 0)
(0.0597541 0.000125888 0 0.000122677 0 0)
(0.0687909 0.00201981 0 0.00020433 0 0)
(0.0764527 -0.000111719 0 0.000106743 0 0)
(0.0841098 0.00215654 0 0.000216826 0 0)
(0.0908328 -0.000186734 0 0.000114873 0 0)
(0.0982641 0.00217704 0 0.000206397 0 0)
(0.105142 -0.000508423 0 0.00011793 0 0)
(0.112862 0.00232153 0 0.000221022 0 0)
(0.120585 -0.000559727 0 0.0001323 0 0)
(0.128777 0.00275939 0 0.000213714 0 0)
(0.137313 -0.000402561 0 0.000124179 0 0)
(0.145453 0.00296535 0 0.0002046 0 0)
(0.15356 -0.000278601 0 0.000125706 0 0)
(0.161114 0.00356758 0 0.000232258 0 0)
(0.16949 0.000576289 0 0.000148494 0 0)
(0.176378 0.00479815 0 0.000264319 0 0)
(0.185323 0.00241711 0 0.000187755 0 0)
(0.192532 0.00719824 0 0.000406785 0 0)
(0.202002 0.00599275 0 0.000341088 0 0)
(0.209185 0.012193 0 0.000847341 0 0)
(0.219873 0.0130358 0 0.000935061 0 0)
(0.227969 0.0218391 0 0.00226563 0 0)
(0.241354 0.0267528 0 0.00317351 0 0)
(0.253101 0.0410127 0 0.00694847 0 0)
(0.274196 0.0542743 0 0.0112553 0 0)
(0.295917 0.0806257 0 0.0226981 0 0)
(0.331513 0.111083 0 0.0384495 0 0)
(0.3619 0.157549 0 0.070364 0 0)
(0.372111 0.202896 0 0.11399 0 0)
(0.051341 2.54164e-06 0 3.33849e-05 0 0)
(0.00827623 -0.000356374 0 0.000120223 0 0)
(0.00197605 -6.14198e-06 0 8.64881e-05 0 0)
(0.00122426 -6.01619e-05 0 0.000116114 0 0)
(0.00322913 -0.00016909 0 0.000112439 0 0)
(0.00772284 -0.000549966 0 0.000164748 0 0)
(0.0141771 -0.000610976 0 0.000103153 0 0)
(0.0220656 -0.00114819 0 0.000169477 0 0)
(0.0312081 -0.000751806 0 9.38718e-05 0 0)
(0.040888 -0.00140797 0 0.000137996 0 0)
(0.050805 -0.00060768 0 0.00010273 0 0)
(0.0599507 -0.0014587 0 0.000143564 0 0)
(0.0687068 -0.00051017 0 8.49194e-05 0 0)
(0.076633 -0.00147298 0 0.000133934 0 0)
(0.0839765 -0.000570049 0 9.58223e-05 0 0)
(0.0909681 -0.00151055 0 0.000138403 0 0)
(0.0981394 -0.000682573 0 0.000107631 0 0)
(0.105411 -0.00148818 0 0.000130126 0 0)
(0.112912 -0.000582608 0 9.76235e-05 0 0)
(0.120968 -0.0011804 0 0.000118225 0 0)
(0.128837 -0.000345896 0 0.00010011 0 0)
(0.13757 -0.000762775 0 0.000125013 0 0)
(0.145562 -0.000364575 0 0.000117053 0 0)
(0.15398 -0.000394473 0 0.000123811 0 0)
(0.161547 -0.000125418 0 0.000110057 0 0)
(0.170249 0.000728853 0 0.000125568 0 0)
(0.177372 0.00088687 0 0.000118924 0 0)
(0.186659 0.00300564 0 0.000194175 0 0)
(0.194322 0.00312026 0 0.000163765 0 0)
(0.204467 0.00693089 0 0.000421897 0 0)
(0.212522 0.00774957 0 0.000425142 0 0)
(0.224406 0.0142192 0 0.00109468 0 0)
(0.234191 0.0167363 0 0.00141087 0 0)
(0.249837 0.0275633 0 0.00326636 0 0)
(0.264832 0.0337915 0 0.0047054 0 0)
(0.290457 0.0521746 0 0.00979423 0 0)
(0.319033 0.0661209 0 0.0145796 0 0)
(0.36277 0.0999839 0 0.0284951 0 0)
(0.405346 0.132737 0 0.0450239 0 0)
(0.413165 0.197278 0 0.0962841 0 0)
(0.0512927 -6.71696e-05 0 0.000277236 0 0)
(0.00842682 -0.0012278 0 0.00103228 0 0)
(0.00198202 -7.5278e-05 0 0.000496869 0 0)
(0.00125626 -0.000350373 0 0.00111403 0 0)
(0.0033521 -0.000580674 0 0.000754205 0 0)
(0.00818691 -0.00193174 0 0.00159191 0 0)
(0.0149163 -0.00184859 0 0.000713028 0 0)
(0.0233146 -0.00404452 0 0.0016877 0 0)
(0.0326053 -0.00190132 0 0.000594096 0 0)
(0.0427439 -0.00530688 0 0.00146773 0 0)
(0.0525951 -0.00101652 0 0.000560638 0 0)
(0.0621864 -0.00620246 0 0.00138001 0 0)
(0.0708116 -4.70356e-05 0 0.000532643 0 0)
(0.0792258 -0.00716272 0 0.00149183 0 0)
(0.0864494 0.000620089 0 0.000399461 0 0)
(0.0938972 -0.00793725 0 0.00162732 0 0)
(0.100965 0.0012814 0 0.000364088 0 0)
(0.108634 -0.00865425 0 0.0015917 0 0)
(0.116131 0.00232142 0 0.000389976 0 0)
(0.12455 -0.00944429 0 0.00148839 0 0)
(0.132438 0.00364075 0 0.000396908 0 0)
(0.141355 -0.0102648 0 0.00147001 0 0)
(0.149494 0.00473875 0 0.000413392 0 0)
(0.158116 -0.0112807 0 0.00143734 0 0)
(0.166137 0.0061328 0 0.000440744 0 0)
(0.174998 -0.0116151 0 0.00123973 0 0)
(0.182884 0.00825683 0 0.000577788 0 0)
(0.192205 -0.010762 0 0.000987476 0 0)
(0.200989 0.0115848 0 0.000832131 0 0)
(0.211264 -0.00825346 0 0.000638639 0 0)
(0.221078 0.0169957 0 0.00150196 0 0)
(0.233373 -0.00250331 0 0.000348295 0 0)
(0.245744 0.0264944 0 0.0030352 0 0)
(0.262344 0.00865343 0 0.000755471 0 0)
(0.280876 0.042919 0 0.00682813 0 0)
(0.308003 0.0283605 0 0.00341993 0 0)
(0.342061 0.0697769 0 0.0148931 0 0)
(0.393703 0.0593855 0 0.0104432 0 0)
(0.460571 0.112511 0 0.0288637 0 0)
(0.501163 0.118513 0 0.0299624 0 0)
(0.0512324 -0.00050767 0 9.64773e-05 0 0)
(0.00875736 -0.00151165 0 0.000500673 0 0)
(0.00201898 -0.000275809 0 0.000518509 0 0)
(0.00137393 -0.000537641 0 0.00126751 0 0)
(0.00363643 -0.00115764 0 0.00120437 0 0)
(0.00921696 -0.00316037 0 0.00210244 0 0)
(0.0165189 -0.00381898 0 0.00127698 0 0)
(0.0259708 -0.00605132 0 0.00206294 0 0)
(0.0354884 -0.00471986 0 0.000916788 0 0)
(0.046611 -0.00723257 0 0.00164523 0 0)
(0.0562367 -0.00409751 0 0.000680876 0 0)
(0.0669356 -0.00773788 0 0.00145096 0 0)
(0.0749519 -0.00319887 0 0.000551307 0 0)
(0.0846809 -0.00832045 0 0.00149493 0 0)
(0.0911819 -0.0025716 0 0.000355547 0 0)
(0.0999657 -0.00890042 0 0.00156788 0 0)
(0.106249 -0.00190511 0 0.000279797 0 0)
(0.11542 -0.00933744 0 0.0015266 0 0)
(0.12196 -0.000864472 0 0.000251433 0 0)
(0.132079 -0.00981393 0 0.00140913 0 0)
(0.138804 0.000325407 0 0.000220623 0 0)
(0.149449 -0.0104112 0 0.00135676 0 0)
(0.156369 0.00135649 0 0.000181199 0 0)
(0.166933 -0.0111868 0 0.00134522 0 0)
(0.173808 0.00271828 0 0.000194969 0 0)
(0.184706 -0.0113771 0 0.00116604 0 0)
(0.191635 0.00484334 0 0.000249883 0 0)
(0.203045 -0.0105151 0 0.00093596 0 0)
(0.211151 0.00827984 0 0.000439149 0 0)
(0.223558 -0.00811112 0 0.000586908 0 0)
(0.23337 0.0137803 0 0.000988548 0 0)
(0.248008 -0.00272639 0 0.000321337 0 0)
(0.261127 0.0232366 0 0.00221346 0 0)
(0.280379 0.00746444 0 0.000591105 0 0)
(0.300506 0.0387544 0 0.00523056 0 0)
(0.329908 0.0242995 0 0.00251232 0 0)
(0.364019 0.061942 0 0.011101 0 0)
(0.412764 0.0471576 0 0.00680151 0 0)
(0.474256 0.094448 0 0.0199488 0 0)
(0.60847 0.0910139 0 0.0159426 0 0)
(0.0512363 -0.000989184 0 4.13871e-05 0 0)
(0.00870998 -0.00154403 0 0.000367376 0 0)
(0.00195107 -0.000700587 0 0.00100328 0 0)
(0.00130139 -0.000596909 0 0.00182749 0 0)
(0.00413152 -0.00206544 0 0.00264057 0 0)
(0.0105928 -0.00436536 0 0.00286655 0 0)
(0.019147 -0.0065204 0 0.00294112 0 0)
(0.029486 -0.00781227 0 0.00243291 0 0)
(0.0401271 -0.0087656 0 0.0022608 0 0)
(0.0516194 -0.00856505 0 0.00171665 0 0)
(0.0621935 -0.00895407 0 0.00169385 0 0)
(0.0729981 -0.00815615 0 0.00133701 0 0)
(0.0820265 -0.00871494 0 0.00141322 0 0)
(0.0916442 -0.00774463 0 0.00104273 0 0)
(0.0992476 -0.00875907 0 0.00121437 0 0)
(0.107902 -0.00748347 0 0.000819824 0 0)
(0.115314 -0.00873162 0 0.0011438 0 0)
(0.124301 -0.00705418 0 0.0007133 0 0)
(0.132013 -0.00851823 0 0.00101497 0 0)
(0.141952 -0.00647621 0 0.000596015 0 0)
(0.149829 -0.00857533 0 0.000917314 0 0)
(0.160329 -0.00603905 0 0.000394716 0 0)
(0.168385 -0.00882463 0 0.000853329 0 0)
(0.178939 -0.00566501 0 0.000345214 0 0)
(0.186967 -0.00890158 0 0.000829959 0 0)
(0.198068 -0.00470744 0 0.000260556 0 0)
(0.206159 -0.00831668 0 0.000682394 0 0)
(0.218141 -0.00278645 0 0.000214029 0 0)
(0.227297 -0.00650778 0 0.000433301 0 0)
(0.240784 0.000565043 0 0.000165457 0 0)
(0.251808 -0.00265166 0 0.000279693 0 0)
(0.26818 0.00659925 0 0.000382649 0 0)
(0.282677 0.00489387 0 0.000345264 0 0)
(0.30432 0.0171006 0 0.00123623 0 0)
(0.325783 0.0177937 0 0.00143265 0 0)
(0.357832 0.0338078 0 0.00370453 0 0)
(0.393956 0.0382656 0 0.00459515 0 0)
(0.45131 0.0621353 0 0.00946457 0 0)
(0.531504 0.0813171 0 0.0138284 0 0)
(0.717734 0.148045 0 0.0316693 0 0)
(0.0509411 -0.00132546 0 8.27121e-05 0 0)
(0.00914716 -0.00235071 0 0.00068307 0 0)
(0.00172766 -0.000970537 0 0.00180409 0 0)
(0.00150393 -0.00130445 0 0.00351242 0 0)
(0.00492047 -0.00309612 0 0.00442934 0 0)
(0.0131726 -0.00674321 0 0.00510951 0 0)
(0.0229794 -0.00917116 0 0.00457286 0 0)
(0.0355999 -0.011561 0 0.00429693 0 0)
(0.0466776 -0.0119033 0 0.0034724 0 0)
(0.0602828 -0.0126609 0 0.00320643 0 0)
(0.0706723 -0.0118369 0 0.00262357 0 0)
(0.0835293 -0.0122658 0 0.00256305 0 0)
(0.0921719 -0.0112096 0 0.00206973 0 0)
(0.103669 -0.011844 0 0.00204542 0 0)
(0.110823 -0.0108984 0 0.00160886 0 0)
(0.121319 -0.0115874 0 0.00173824 0 0)
(0.128302 -0.0105616 0 0.00141591 0 0)
(0.139041 -0.011235 0 0.00158035 0 0)
(0.146396 -0.0100077 0 0.00124919 0 0)
(0.157921 -0.010874 0 0.00138862 0 0)
(0.165532 -0.00973204 0 0.00102742 0 0)
(0.177447 -0.0107571 0 0.00115967 0 0)
(0.185314 -0.00963696 0 0.000819467 0 0)
(0.197191 -0.0108042 0 0.00104458 0 0)
(0.205284 -0.00928719 0 0.000798648 0 0)
(0.217405 -0.0104026 0 0.000986324 0 0)
(0.225925 -0.00840128 0 0.000696769 0 0)
(0.238702 -0.00904393 0 0.000735152 0 0)
(0.248618 -0.00638999 0 0.000506723 0 0)
(0.262755 -0.00632023 0 0.000422305 0 0)
(0.274981 -0.00254256 0 0.000309037 0 0)
(0.292036 -0.00115791 0 0.000312205 0 0)
(0.308276 0.00455858 0 0.000336425 0 0)
(0.330572 0.00836055 0 0.000548124 0 0)
(0.354439 0.0173409 0 0.00123866 0 0)
(0.3877 0.025183 0 0.00219928 0 0)
(0.428358 0.0401791 0 0.00439232 0 0)
(0.488843 0.0559194 0 0.00726097 0 0)
(0.578851 0.0827469 0 0.0127432 0 0)
(0.766041 0.118026 0 0.019387 0 0)
(0.0506898 -0.00177501 0 0.000150954 0 0)
(0.0107693 -0.00290433 0 0.00110364 0 0)
(0.00180386 -0.0011573 0 0.00338907 0 0)
(0.00272698 -0.00241458 0 0.00552171 0 0)
(0.00654287 -0.0042941 0 0.00764367 0 0)
(0.0184949 -0.0100875 0 0.00740787 0 0)
(0.0281812 -0.0125451 0 0.00749849 0 0)
(0.0468372 -0.0158983 0 0.00602017 0 0)
(0.0544305 -0.0161564 0 0.00581057 0 0)
(0.0758452 -0.0166665 0 0.00455148 0 0)
(0.0795151 -0.0161253 0 0.00459997 0 0)
(0.101869 -0.0156667 0 0.00356903 0 0)
(0.101353 -0.01535 0 0.00373213 0 0)
(0.123414 -0.0147593 0 0.00266924 0 0)
(0.119546 -0.0148775 0 0.00307351 0 0)
(0.141556 -0.0140153 0 0.00215213 0 0)
(0.135964 -0.0144279 0 0.00275587 0 0)
(0.158898 -0.0131612 0 0.00195539 0 0)
(0.15222 -0.0138251 0 0.0024572 0 0)
(0.176355 -0.0122707 0 0.00168461 0 0)
(0.168517 -0.0135704 0 0.00213962 0 0)
(0.193319 -0.0117653 0 0.00129972 0 0)
(0.184507 -0.0134945 0 0.00182385 0 0)
(0.209295 -0.0114356 0 0.00112994 0 0)
(0.199897 -0.0132602 0 0.00175897 0 0)
(0.224388 -0.0107307 0 0.0011 0 0)
(0.215042 -0.0125651 0 0.00158292 0 0)
(0.239166 -0.00918533 0 0.000883833 0 0)
(0.231219 -0.010941 0 0.00122895 0 0)
(0.255127 -0.00666591 0 0.000528058 0 0)
(0.250081 -0.00784398 0 0.000810016 0 0)
(0.274797 -0.00224682 0 0.00033836 0 0)
(0.274847 -0.00226308 0 0.000527132 0 0)
(0.302207 0.00589493 0 0.00041352 0 0)
(0.311371 0.00872537 0 0.000771758 0 0)
(0.346428 0.0216609 0 0.0017724 0 0)
(0.373526 0.0299451 0 0.00305077 0 0)
(0.430981 0.0497079 0 0.00625233 0 0)
(0.506361 0.0634131 0 0.00864096 0 0)
(0.68037 0.0851831 0 0.0115639 0 0)
(0.0506295 -0.00235893 0 0.000193409 0 0)
(0.0112872 -0.00420828 0 0.00187806 0 0)
(0.00200856 -0.00185635 0 0.00553847 0 0)
(0.00388365 -0.00444642 0 0.00927987 0 0)
(0.00925994 -0.0067065 0 0.0119083 0 0)
(0.0257251 -0.0153583 0 0.0117823 0 0)
(0.0352736 -0.0171368 0 0.0113431 0 0)
(0.0588831 -0.0222736 0 0.00950714 0 0)
(0.0603236 -0.0203919 0 0.00889776 0 0)
(0.0862183 -0.0218344 0 0.00724754 0 0)
(0.0782672 -0.0185612 0 0.00694231 0 0)
(0.105087 -0.0192328 0 0.00538398 0 0)
(0.0888573 -0.0161267 0 0.00538707 0 0)
(0.115299 -0.0169872 0 0.00386426 0 0)
(0.0930833 -0.0141912 0 0.00439872 0 0)
(0.119366 -0.0147877 0 0.00305518 0 0)
(0.0937922 -0.012334 0 0.00387598 0 0)
(0.120368 -0.0125094 0 0.00258834 0 0)
(0.0927962 -0.0105813 0 0.00342125 0 0)
(0.119486 -0.0104109 0 0.00205588 0 0)
(0.0905894 -0.00926024 0 0.00295058 0 0)
(0.116675 -0.00871678 0 0.00154292 0 0)
(0.0873919 -0.008271 0 0.0025437 0 0)
(0.112317 -0.00716183 0 0.00128912 0 0)
(0.0836477 -0.00724074 0 0.00232697 0 0)
(0.107015 -0.00542703 0 0.00121533 0 0)
(0.0798922 -0.00618171 0 0.00202993 0 0)
(0.101687 -0.00345469 0 0.000983297 0 0)
(0.0771327 -0.00503973 0 0.00154469 0 0)
(0.0974451 -0.001334 0 0.000671206 0 0)
(0.0764009 -0.00365936 0 0.0010222 0 0)
(0.0959625 0.00131449 0 0.000471673 0 0)
(0.0792592 -0.00172342 0 0.000567672 0 0)
(0.0995683 0.00531918 0 0.00055772 0 0)
(0.0887935 0.00198457 0 0.000320563 0 0)
(0.113234 0.0128388 0 0.00173159 0 0)
(0.11224 0.0106203 0 0.00140243 0 0)
(0.148734 0.029616 0 0.00653414 0 0)
(0.172636 0.0318419 0 0.00663876 0 0)
(0.26775 0.061847 0 0.0149258 0 0)
(0.0507703 -0.00309216 0 0.0002907 0 0)
(0.00983876 -0.005395 0 0.00313379 0 0)
(0.00189245 -0.00351122 0 0.00892005 0 0)
(0.00372522 -0.00604225 0 0.0146973 0 0)
(0.0108758 -0.00992237 0 0.0179094 0 0)
(0.0228737 -0.0171527 0 0.0178388 0 0)
(0.0269519 -0.0174725 0 0.0165134 0 0)
(0.032407 -0.0187298 0 0.0142264 0 0)
(0.025942 -0.0132511 0 0.0122994 0 0)
(0.026999 -0.0114619 0 0.00982569 0 0)
(0.0182831 -0.00534063 0 0.00806081 0 0)
(0.0182863 -0.00476456 0 0.0060943 0 0)
(0.0135523 0.000404881 0 0.00513058 0 0)
(0.0129496 -0.000261768 0 0.00388923 0 0)
(0.0173916 0.004544 0 0.00363813 0 0)
(0.0154983 0.00312885 0 0.00279726 0 0)
(0.0320302 0.00755368 0 0.00281729 0 0)
(0.0271571 0.00541952 0 0.00210007 0 0)
(0.0564863 0.00953372 0 0.00219667 0 0)
(0.0468523 0.00677264 0 0.00154431 0 0)
(0.0887125 0.0108757 0 0.00170122 0 0)
(0.0734658 0.00759341 0 0.00111028 0 0)
(0.126903 0.0118047 0 0.00134675 0 0)
(0.106694 0.00815891 0 0.0008711 0 0)
(0.169858 0.0123493 0 0.00113099 0 0)
(0.145369 0.0082668 0 0.000737196 0 0)
(0.215566 0.0121858 0 0.00089941 0 0)
(0.187632 0.00759236 0 0.000539702 0 0)
(0.260974 0.0110118 0 0.000610414 0 0)
(0.230445 0.00608842 0 0.000326231 0 0)
(0.302838 0.00868973 0 0.000350211 0 0)
(0.269823 0.0034078 0 0.00018537 0 0)
(0.336433 0.00466153 0 0.000168993 0 0)
(0.29989 -0.00138304 0 0.000240332 0 0)
(0.353334 -0.00224306 0 0.000181354 0 0)
(0.310679 -0.00907474 0 0.000919225 0 0)
(0.339107 -0.0115937 0 0.000997968 0 0)
(0.28779 -0.0163971 0 0.00323695 0 0)
(0.282279 -0.014666 0 0.00332673 0 0)
(0.237426 -0.00992108 0 0.00578161 0 0)
(0.0511901 -0.00423177 0 0.000555781 0 0)
(0.00940965 -0.00660009 0 0.00480453 0 0)
(0.000778389 -0.00233824 0 0.0119225 0 0)
(0.00158319 0.00279872 0 0.0175912 0 0)
(0.00648 0.00852843 0 0.0195616 0 0)
(0.0133273 0.0143848 0 0.0183471 0 0)
(0.0338012 0.0228285 0 0.015912 0 0)
(0.06603 0.0284587 0 0.0127291 0 0)
(0.125882 0.0332068 0 0.00975149 0 0)
(0.186771 0.0320277 0 0.00677272 0 0)
(0.277016 0.0309206 0 0.00462652 0 0)
(0.347134 0.0260487 0 0.00288775 0 0)
(0.454468 0.0241189 0 0.00195055 0 0)
(0.519259 0.0193447 0 0.00118256 0 0)
(0.636696 0.0184574 0 0.000885852 0 0)
(0.686797 0.0142812 0 0.000543653 0 0)
(0.809803 0.0143675 0 0.000470597 0 0)
(0.840602 0.0107408 0 0.000295725 0 0)
(0.966676 0.0119121 0 0.000292259 0 0)
(0.977496 0.00857868 0 0.00017829 0 0)