/*--------------------------------*- C++ -*----------------------------------*\
| =========                 |                                                 |
| \\      /  F ield         | OpenFOAM: The Open Source CFD Toolbox           |
|  \\    /   O peration     | Version:  2.4.0                                 |
|   \\  /    A nd           | Web:      www.OpenFOAM.org                      |
|    \\/     M anipulation  |                                                 |
\*---------------------------------------------------------------------------*/
FoamFile
{
    version     2.0;
    format      ascii;
    class       volScalarField;
    location    "0.256";
    object      nuSgs;
}
// * * * * * * * * * * * * * * * * * * * * * * * * * * * * * * * * * * * * * //

dimensions      [0 2 -1 0 0 0 0];

internalField   nonuniform List<scalar> 
17600
(
0.00101217
0.000905762
0.000750172
0.00066108
0.000605688
0.000572622
0.000543899
0.000525253
0.000505939
0.00049557
0.000485728
0.000473543
0.000473705
0.000462173
0.000463256
0.000461218
0.000460077
0.000467348
0.000473346
0.000480925
0.000704531
0.000829435
0.000801407
0.000748373
0.000696518
0.000660389
0.000629143
0.000607186
0.000585139
0.000572452
0.000560112
0.000544812
0.00054426
0.000530842
0.000529807
0.000527492
0.000521853
0.000528015
0.000527327
0.000565134
0.000379926
0.00060481
0.000662496
0.000661285
0.000644208
0.000619435
0.000595921
0.000578362
0.000559682
0.000547632
0.000537307
0.0005221
0.000520603
0.000509431
0.000505618
0.000503838
0.000495445
0.000499488
0.000493633
0.000515838
0.000150469
0.000366241
0.000458746
0.000506696
0.000526095
0.000526972
0.000522226
0.000515454
0.00050464
0.000496064
0.00049059
0.000478307
0.00047654
0.00046941
0.00046362
0.00046242
0.000454636
0.000454402
0.000449771
0.000449818
5.33013e-05
0.00017837
0.000264823
0.000324638
0.00036979
0.000398066
0.000410456
0.000421063
0.000423193
0.000421862
0.000422221
0.000418459
0.000417202
0.000414926
0.000410065
0.000408979
0.000405555
0.000399834
0.000399598
0.000391661
1.73205e-05
7.23661e-05
0.000130036
0.000166887
0.00021324
0.000254036
0.000274832
0.000299261
0.00031699
0.000322453
0.000333723
0.000338072
0.000339648
0.000343911
0.000343473
0.000342654
0.000343037
0.000337963
0.000337964
0.000330836
5.50678e-06
2.74435e-05
5.49285e-05
7.23149e-05
9.67455e-05
0.000134903
0.000151024
0.000174062
0.000201376
0.000210245
0.000226269
0.000240796
0.000245411
0.000256388
0.000261018
0.00026218
0.000267558
0.000265401
0.000264235
0.000258846
2.27286e-06
1.02882e-05
2.14819e-05
2.79727e-05
3.79063e-05
5.75196e-05
6.88463e-05
8.05261e-05
0.000104897
0.000113509
0.000125704
0.00014326
0.000148591
0.000162057
0.000169464
0.000172029
0.000181487
0.000181975
0.000180862
0.000176834
1.7617e-06
4.48142e-06
8.8151e-06
1.06802e-05
1.38712e-05
2.09602e-05
2.61142e-05
3.1286e-05
4.4063e-05
4.95761e-05
5.68036e-05
6.94033e-05
7.31811e-05
8.40204e-05
9.0021e-05
9.23783e-05
0.000100692
0.000102125
0.000101088
9.95825e-05
1.70203e-06
3.32281e-06
4.64573e-06
4.87491e-06
5.46402e-06
7.41108e-06
9.17817e-06
1.10069e-05
1.60581e-05
1.8158e-05
2.16298e-05
2.73297e-05
2.89727e-05
3.48539e-05
3.84398e-05
3.97544e-05
4.41473e-05
4.5348e-05
4.48491e-05
4.44488e-05
1.6028e-06
2.2653e-06
3.34684e-06
3.63919e-06
3.69142e-06
4.22505e-06
4.9699e-06
5.26288e-06
6.49822e-06
7.2684e-06
8.13153e-06
9.97527e-06
1.03369e-05
1.24449e-05
1.38491e-05
1.42106e-05
1.53489e-05
1.6253e-05
1.61765e-05
1.65104e-05
1.57264e-06
2.01871e-06
3.33288e-06
3.5452e-06
3.5315e-06
4.05648e-06
4.21653e-06
3.95875e-06
4.02869e-06
4.47908e-06
4.65123e-06
5.13199e-06
5.33582e-06
6.08906e-06
6.21204e-06
6.23263e-06
6.24162e-06
6.18873e-06
6.14395e-06
6.53253e-06
1.60446e-06
1.99645e-06
3.29734e-06
3.16002e-06
3.00992e-06
3.20613e-06
3.24124e-06
3.26547e-06
3.44829e-06
3.60443e-06
4.01317e-06
4.27287e-06
4.4136e-06
4.61895e-06
4.64285e-06
4.61906e-06
4.5083e-06
4.25306e-06
4.08257e-06
4.12372e-06
1.57677e-06
1.94045e-06
2.6392e-06
2.55583e-06
2.37914e-06
2.35276e-06
2.45968e-06
3.05621e-06
3.26018e-06
3.30792e-06
3.52269e-06
3.56397e-06
3.478e-06
3.46975e-06
3.66139e-06
3.66428e-06
3.67101e-06
3.70979e-06
3.6782e-06
3.80517e-06
1.52099e-06
1.68768e-06
2.064e-06
2.61648e-06
2.55115e-06
2.54384e-06
2.72777e-06
2.98975e-06
2.98446e-06
3.00334e-06
3.09194e-06
3.1347e-06
3.09698e-06
3.09963e-06
3.17548e-06
3.25807e-06
3.31524e-06
3.43813e-06
3.47901e-06
3.74106e-06
1.51576e-06
1.70875e-06
2.13575e-06
2.59383e-06
2.52747e-06
2.43745e-06
2.4801e-06
2.49066e-06
2.50979e-06
2.62197e-06
2.74421e-06
2.84506e-06
2.8405e-06
2.85244e-06
2.84486e-06
2.8793e-06
2.91299e-06
3.00131e-06
3.10708e-06
3.26551e-06
1.5333e-06
1.68682e-06
2.17876e-06
2.33912e-06
2.33066e-06
2.24121e-06
2.20948e-06
2.22633e-06
2.37441e-06
2.44252e-06
2.5484e-06
2.63954e-06
2.63714e-06
2.58032e-06
2.57509e-06
2.54704e-06
2.55801e-06
2.67906e-06
2.73099e-06
2.78875e-06
1.53077e-06
1.63944e-06
1.85103e-06
2.15136e-06
2.23846e-06
2.21711e-06
2.18496e-06
2.18722e-06
2.20578e-06
2.21967e-06
2.27277e-06
2.37824e-06
2.38351e-06
2.36376e-06
2.3716e-06
2.3581e-06
2.38059e-06
2.45852e-06
2.46043e-06
2.49286e-06
1.5144e-06
1.63703e-06
1.80426e-06
2.14852e-06
2.22391e-06
2.21143e-06
2.18642e-06
2.1542e-06
2.14342e-06
2.14953e-06
2.19181e-06
2.29534e-06
2.31376e-06
2.32098e-06
2.3069e-06
2.30029e-06
2.30336e-06
2.31003e-06
2.32827e-06
2.55575e-06
1.51081e-06
1.65648e-06
1.77492e-06
2.03775e-06
2.14227e-06
2.13571e-06
2.0933e-06
2.08246e-06
2.08486e-06
2.11131e-06
2.13996e-06
2.19457e-06
2.23824e-06
2.24151e-06
2.23328e-06
2.25106e-06
2.2447e-06
2.25213e-06
2.29218e-06
2.56887e-06
1.51402e-06
1.6381e-06
1.76818e-06
2.1034e-06
2.15377e-06
2.13819e-06
2.10822e-06
2.11441e-06
2.12526e-06
2.17168e-06
2.1902e-06
2.18915e-06
2.19423e-06
2.20218e-06
2.22438e-06
2.24646e-06
2.26237e-06
2.27166e-06
2.32241e-06
2.35879e-06
1.51547e-06
1.63878e-06
1.93683e-06
2.13092e-06
2.11587e-06
2.07326e-06
2.09753e-06
2.16542e-06
2.2001e-06
2.24073e-06
2.22315e-06
2.19522e-06
2.20803e-06
2.22039e-06
2.25527e-06
2.27277e-06
2.31112e-06
2.31871e-06
2.34702e-06
2.39613e-06
1.5222e-06
1.70398e-06
1.99102e-06
1.99837e-06
1.99273e-06
2.07799e-06
2.25048e-06
2.26158e-06
2.26462e-06
2.25728e-06
2.2079e-06
2.21427e-06
2.27851e-06
2.29867e-06
2.32492e-06
2.3472e-06
2.34992e-06
2.35155e-06
2.36697e-06
2.41592e-06
1.51994e-06
1.72938e-06
1.8165e-06
1.96296e-06
2.17701e-06
2.28922e-06
2.28348e-06
2.24307e-06
2.24267e-06
2.23369e-06
2.2449e-06
2.37614e-06
2.39323e-06
2.39926e-06
2.40173e-06
2.40276e-06
2.40199e-06
2.4344e-06
2.48521e-06
2.67955e-06
1.53326e-06
1.68101e-06
1.9262e-06
2.21156e-06
2.33116e-06
2.31262e-06
2.25311e-06
2.26968e-06
2.34247e-06
2.39609e-06
2.52984e-06
2.54256e-06
2.49609e-06
2.50116e-06
2.49562e-06
2.50489e-06
2.54691e-06
2.67831e-06
2.74507e-06
3.05236e-06
1.54793e-06
1.71829e-06
2.11531e-06
2.26663e-06
2.28874e-06
2.25546e-06
2.28146e-06
2.51187e-06
2.62096e-06
2.68059e-06
2.68657e-06
2.61307e-06
2.59774e-06
2.63231e-06
2.65264e-06
2.75308e-06
2.89081e-06
2.94431e-06
3.08046e-06
3.57624e-06
1.55997e-06
1.74925e-06
2.14451e-06
2.1744e-06
2.29717e-06
2.38303e-06
2.71807e-06
2.8512e-06
2.83328e-06
2.83661e-06
2.78568e-06
2.7472e-06
2.84081e-06
2.94313e-06
2.99481e-06
3.14823e-06
3.2733e-06
3.51735e-06
4.21048e-06
6.19866e-06
1.57947e-06
1.77019e-06
2.17536e-06
2.28422e-06
2.71941e-06
2.8258e-06
3.11479e-06
3.06857e-06
3.09583e-06
3.09404e-06
3.09175e-06
3.11374e-06
3.29287e-06
3.41753e-06
3.56593e-06
3.99421e-06
4.68997e-06
5.96592e-06
8.51471e-06
1.40454e-05
1.61408e-06
1.81677e-06
2.40734e-06
2.67007e-06
3.24266e-06
3.30259e-06
3.67182e-06
3.64945e-06
3.79456e-06
3.8715e-06
4.01813e-06
4.22053e-06
4.6518e-06
5.33809e-06
6.1568e-06
8.37866e-06
1.08093e-05
1.45771e-05
2.07329e-05
3.36862e-05
1.62672e-06
1.90812e-06
2.77663e-06
3.49738e-06
3.94132e-06
4.17839e-06
5.11863e-06
5.47814e-06
5.89455e-06
7.07297e-06
7.88973e-06
9.43914e-06
1.11235e-05
1.40829e-05
1.66015e-05
2.28944e-05
2.81302e-05
3.65476e-05
4.79454e-05
7.5167e-05
1.66305e-06
2.37003e-06
3.9783e-06
5.33845e-06
6.0811e-06
7.31928e-06
1.05373e-05
1.26005e-05
1.43368e-05
1.9396e-05
2.2221e-05
2.72181e-05
3.16456e-05
3.92264e-05
4.42863e-05
5.67354e-05
6.55539e-05
8.13853e-05
9.7466e-05
0.000139962
1.80768e-06
4.13874e-06
7.92996e-06
1.08156e-05
1.40858e-05
1.86594e-05
2.85983e-05
3.45272e-05
3.99402e-05
5.29031e-05
5.92125e-05
6.81791e-05
7.90019e-05
9.09099e-05
9.85802e-05
0.00011725
0.000129178
0.000150388
0.000168907
0.000218349
2.37807e-06
9.96695e-06
1.98696e-05
2.76285e-05
3.96376e-05
5.14258e-05
7.43006e-05
8.50781e-05
9.86268e-05
0.000119431
0.000128585
0.000140779
0.000158335
0.000170554
0.000179779
0.000200773
0.00021262
0.000232062
0.000248584
0.000287678
5.56632e-06
2.64971e-05
5.2872e-05
7.22646e-05
0.000102969
0.00012555
0.000159855
0.00017515
0.000198129
0.000216111
0.000228103
0.00024022
0.00025572
0.00026386
0.000272348
0.000286757
0.000294711
0.000307642
0.000319151
0.000344232
1.73528e-05
6.94484e-05
0.000129021
0.000167391
0.000217735
0.000248501
0.000282195
0.000298236
0.000316746
0.000326209
0.000334583
0.000339412
0.000347134
0.000349284
0.000353563
0.000358836
0.000363088
0.000368291
0.000375332
0.00038604
5.34586e-05
0.000170757
0.000268197
0.000324558
0.000373134
0.000395737
0.000414945
0.000419071
0.000424493
0.000422951
0.000422937
0.000420367
0.000420235
0.000417415
0.000417258
0.000415795
0.000415942
0.000414984
0.000415921
0.000414687
0.000151112
0.000363125
0.000462134
0.000506036
0.000528292
0.000526702
0.000523393
0.000513094
0.000507221
0.000494621
0.000490248
0.000479886
0.000476424
0.000468228
0.000465409
0.000457864
0.000454736
0.000447245
0.000441024
0.000429405
0.000381597
0.000602522
0.000664979
0.000661279
0.00064615
0.000616894
0.000598085
0.000574812
0.000562491
0.000543721
0.000536736
0.000521485
0.000515967
0.000503966
0.000498828
0.000485585
0.000478818
0.000463931
0.000449828
0.00042865
0.000705393
0.000828255
0.000803799
0.000746205
0.000699414
0.000657732
0.000631152
0.000602675
0.000587883
0.000566445
0.000558418
0.000541116
0.000534225
0.000519402
0.00051249
0.000494229
0.000483725
0.00046173
0.000438823
0.000406429
0.00101298
0.000904929
0.000752722
0.000658404
0.0006076
0.000570252
0.000545763
0.000520147
0.000507791
0.000489069
0.000481892
0.000466997
0.000460022
0.000444695
0.000437677
0.000417799
0.000404261
0.000378777
0.000351412
0.000312863
0.000217911
0.000178563
0.000159989
0.000147498
0.000139041
0.000130866
0.000121551
0.000111065
0.000108977
0.000112094
0.000117607
0.000118598
0.000116931
0.000112312
0.000111101
0.000109347
0.000106078
9.59352e-05
6.7633e-05
4.28301e-05
2.79588e-05
1.94888e-05
1.53982e-05
1.29567e-05
1.18253e-05
1.10781e-05
1.15167e-05
1.58972e-05
1.63982e-05
1.57899e-05
1.57858e-05
1.7889e-05
2.55181e-05
5.83581e-05
8.49329e-05
8.95083e-05
8.99808e-05
9.89866e-05
0.000111955
0.000111996
9.82896e-05
7.48044e-05
6.12773e-05
4.95094e-05
4.4637e-05
4.56588e-05
5.2623e-05
5.29785e-05
5.29286e-05
5.49242e-05
5.97305e-05
6.1556e-05
6.12504e-05
5.68126e-05
4.24636e-05
3.0724e-05
2.15639e-05
1.66593e-05
1.70416e-05
2.74339e-05
4.21468e-05
5.35538e-05
6.17968e-05
6.38931e-05
6.24337e-05
5.45186e-05
4.69801e-05
4.28132e-05
3.84106e-05
3.61272e-05
3.49528e-05
3.36614e-05
3.11652e-05
2.93239e-05
2.84284e-05
2.79745e-05
2.77672e-05
2.75859e-05
2.70716e-05
2.68451e-05
2.70011e-05
2.74064e-05
2.76742e-05
2.83579e-05
3.09365e-05
3.57563e-05
3.81355e-05
3.82764e-05
3.81909e-05
3.92714e-05
4.01237e-05
4.04528e-05
4.14767e-05
4.24486e-05
4.21971e-05
4.13398e-05
4.10204e-05
4.12909e-05
4.44469e-05
4.65556e-05
4.62348e-05
4.11995e-05
3.34359e-05
2.95048e-05
2.79172e-05
2.76388e-05
2.77736e-05
2.86898e-05
2.95977e-05
2.98331e-05
2.93865e-05
3.13757e-05
4.30484e-05
5.07932e-05
5.44861e-05
5.42828e-05
4.90255e-05
4.4891e-05
4.27226e-05
4.09994e-05
3.99472e-05
3.79487e-05
3.45571e-05
3.06043e-05
2.59525e-05
2.29953e-05
2.20854e-05
2.22502e-05
2.35707e-05
2.68009e-05
2.90462e-05
2.87114e-05
2.709e-05
2.64834e-05
2.69904e-05
2.96814e-05
4.12385e-05
5.78774e-05
6.20565e-05
6.0607e-05
5.2936e-05
4.39561e-05
4.08513e-05
3.87938e-05
3.7411e-05
3.57512e-05
3.33435e-05
3.02215e-05
2.79406e-05
2.65179e-05
2.58266e-05
2.6318e-05
2.78598e-05
2.79956e-05
2.80731e-05
2.85269e-05
3.07779e-05
3.76672e-05
4.13361e-05
4.2913e-05
4.47818e-05
5.0733e-05
5.47096e-05
5.46951e-05
5.16356e-05
4.96377e-05
4.92552e-05
4.83016e-05
4.38593e-05
3.52075e-05
2.98785e-05
2.71626e-05
2.64244e-05
2.54403e-05
2.49404e-05
2.45145e-05
2.576e-05
2.56857e-05
2.77169e-05
2.67351e-05
2.88771e-05
2.82341e-05
3.27875e-05
3.33508e-05
3.84027e-05
3.85791e-05
4.01599e-05
3.96155e-05
4.39986e-05
4.53916e-05
5.40501e-05
5.6322e-05
6.21036e-05
6.24942e-05
6.4297e-05
5.87428e-05
6.89969e-05
6.57946e-05
8.13134e-05
0.000108959
0.000269212
0.000218204
0.000200577
0.000175435
0.000151752
0.000141019
0.000127818
0.000118026
0.000115678
0.000116884
0.000122523
0.000123141
0.000119868
0.000116939
0.000113727
0.000109293
9.86683e-05
6.96173e-05
4.50342e-05
2.89955e-05
2.03114e-05
1.54524e-05
1.31898e-05
1.18033e-05
1.07984e-05
1.00597e-05
9.80718e-06
1.39362e-05
1.53684e-05
1.53353e-05
1.56639e-05
1.78726e-05
2.61282e-05
5.33367e-05
8.38546e-05
9.27418e-05
9.62519e-05
0.000104032
0.000111782
0.000111052
9.65032e-05
7.33986e-05
6.12347e-05
4.94655e-05
4.48727e-05
4.6787e-05
5.2489e-05
5.28561e-05
5.30245e-05
5.66388e-05
6.09794e-05
6.19982e-05
6.10117e-05
5.28121e-05
3.83655e-05
2.82037e-05
2.02915e-05
1.63569e-05
1.72526e-05
2.94928e-05
4.38385e-05
5.5683e-05
6.39308e-05
6.56419e-05
6.31878e-05
5.32799e-05
4.58713e-05
4.17042e-05
3.75354e-05
3.55775e-05
3.42802e-05
3.27283e-05
3.03601e-05
2.87879e-05
2.81258e-05
2.78726e-05
2.76794e-05
2.74552e-05
2.71819e-05
2.68122e-05
2.68058e-05
2.69097e-05
2.69985e-05
2.7462e-05
2.98726e-05
3.50461e-05
3.74864e-05
3.77863e-05
3.80602e-05
3.94663e-05
4.03009e-05
4.06301e-05
4.15303e-05
4.20632e-05
4.12616e-05
3.99359e-05
3.95217e-05
3.98485e-05
4.29466e-05
4.54543e-05
4.54613e-05
4.26732e-05
3.43247e-05
2.96598e-05
2.78261e-05
2.73101e-05
2.73725e-05
2.81276e-05
2.91937e-05
3.11512e-05
3.40572e-05
3.93147e-05
4.81029e-05
5.19592e-05
5.28659e-05
5.12326e-05
4.67144e-05
4.3994e-05
4.20952e-05
4.06569e-05
3.90963e-05
3.55151e-05
3.16382e-05
2.69876e-05
2.36686e-05
2.21933e-05
2.20221e-05
2.29025e-05
2.63154e-05
2.94243e-05
2.97643e-05
2.87934e-05
2.70275e-05
2.69183e-05
2.80844e-05
3.25475e-05
4.84962e-05
6.19906e-05
6.36726e-05
5.98625e-05
4.93804e-05
4.18547e-05
4.00961e-05
3.79624e-05
3.71541e-05
3.5707e-05
3.32777e-05
3.01024e-05
2.78916e-05
2.65207e-05
2.58049e-05
2.63485e-05
2.79184e-05
2.80026e-05
2.80246e-05
2.83034e-05
2.97616e-05
3.60103e-05
4.00816e-05
4.1857e-05
4.3703e-05
4.95589e-05
5.42804e-05
5.45594e-05
5.17397e-05
4.89779e-05
4.84361e-05
4.76031e-05
4.4245e-05
3.68315e-05
3.13179e-05
2.80404e-05
2.69232e-05
2.56435e-05
2.52301e-05
2.4806e-05
2.65951e-05
2.62849e-05
2.8849e-05
2.79294e-05
3.00925e-05
2.97976e-05
3.32673e-05
3.42018e-05
3.78815e-05
3.78031e-05
3.89146e-05
3.88545e-05
4.24546e-05
4.41514e-05
5.1282e-05
5.42521e-05
6.38648e-05
6.59152e-05
7.86288e-05
6.86358e-05
7.86539e-05
7.0596e-05
8.88148e-05
0.00010569
0.000261171
0.000231538
0.000208394
0.000199225
0.000184245
0.000167764
0.00014936
0.000137076
0.000134064
0.000135473
0.000134197
0.000128268
0.000122625
0.000117344
0.000108488
9.55765e-05
6.51455e-05
4.35225e-05
2.95747e-05
1.95789e-05
1.47523e-05
1.25835e-05
1.13136e-05
1.03799e-05
9.67507e-06
9.61603e-06
9.54411e-06
1.23241e-05
1.44681e-05
1.47359e-05
1.52652e-05
1.79478e-05
2.66281e-05
5.30143e-05
7.9115e-05
9.18678e-05
0.000100548
0.000107884
0.000111839
0.000110043
9.45861e-05
7.20174e-05
6.04614e-05
4.96233e-05
4.53078e-05
4.77688e-05
5.1938e-05
5.23899e-05
5.31106e-05
5.87475e-05
6.20769e-05
6.21693e-05
5.98193e-05
4.78522e-05
3.44309e-05
2.55843e-05
1.8997e-05
1.6161e-05
1.75327e-05
3.15147e-05
4.53847e-05
5.77977e-05
6.60367e-05
6.74665e-05
6.3583e-05
5.23807e-05
4.52181e-05
4.0662e-05
3.68135e-05
3.50735e-05
3.33277e-05
3.2226e-05
3.01832e-05
2.86584e-05
2.79816e-05
2.78318e-05
2.77005e-05
2.7476e-05
2.73056e-05
2.69796e-05
2.66521e-05
2.64934e-05
2.64961e-05
2.68273e-05
2.93909e-05
3.44528e-05
3.67398e-05
3.72131e-05
3.80686e-05
3.96417e-05
4.04422e-05
4.08301e-05
4.15371e-05
4.17137e-05
4.02581e-05
3.85529e-05
3.80839e-05
3.85256e-05
4.15153e-05
4.41377e-05
4.46994e-05
4.33416e-05
3.63553e-05
3.02347e-05
2.78515e-05
2.71388e-05
2.71568e-05
2.79014e-05
2.89112e-05
3.35019e-05
3.92415e-05
4.42342e-05
4.97261e-05
5.14246e-05
5.13346e-05
4.90968e-05
4.52148e-05
4.26247e-05
4.13154e-05
3.9883e-05
3.6623e-05
3.21632e-05
2.76484e-05
2.42701e-05
2.24363e-05
2.19601e-05
2.22863e-05
2.48339e-05
2.98214e-05
3.04983e-05
3.00141e-05
2.80179e-05
2.70946e-05
2.73447e-05
2.96578e-05
3.67521e-05
5.58523e-05
6.52917e-05
6.46367e-05
5.71286e-05
4.58003e-05
4.04608e-05
3.90237e-05
3.75482e-05
3.70043e-05
3.59302e-05
3.34485e-05
3.01414e-05
2.77943e-05
2.63355e-05
2.55113e-05
2.60573e-05
2.78409e-05
2.7991e-05
2.79916e-05
2.8208e-05
2.91917e-05
3.45492e-05
3.88901e-05
4.0854e-05
4.27027e-05
4.83247e-05
5.37549e-05
5.43367e-05
5.19008e-05
4.86633e-05
4.77684e-05
4.7029e-05
4.45211e-05
3.76247e-05
3.26196e-05
2.89835e-05
2.74459e-05
2.59898e-05
2.62739e-05
2.61969e-05
2.78593e-05
2.75299e-05
2.92186e-05
2.85216e-05
2.96757e-05
2.96775e-05
3.18373e-05
3.288e-05
3.62097e-05
3.68831e-05
3.78024e-05
3.85958e-05
4.14382e-05
4.3725e-05
4.75798e-05
5.02453e-05
6.08859e-05
6.40639e-05
8.67608e-05
8.15134e-05
9.47257e-05
7.99634e-05
9.99499e-05
0.000105301
0.000233559
0.000219589
0.000200627
0.000191561
0.000186157
0.000180164
0.000168786
0.000162303
0.000156306
0.000148285
0.000137024
0.00012356
0.000115289
0.000101086
8.22392e-05
5.84534e-05
3.97388e-05
2.77711e-05
1.95832e-05
1.33626e-05
1.10757e-05
1.02256e-05
9.7045e-06
9.52075e-06
9.1167e-06
9.23821e-06
9.58013e-06
1.18062e-05
1.37687e-05
1.41601e-05
1.50517e-05
1.82532e-05
2.78048e-05
5.36759e-05
7.68347e-05
9.14713e-05
0.0001027
0.000109612
0.000111642
0.000108558
9.24508e-05
7.1218e-05
5.8898e-05
4.96906e-05
4.58136e-05
4.83805e-05
5.12815e-05
5.1678e-05
5.37346e-05
6.05133e-05
6.25999e-05
6.22717e-05
5.72941e-05
4.18868e-05
3.09037e-05
2.40174e-05
1.8353e-05
1.60617e-05
1.79258e-05
3.34617e-05
4.6997e-05
5.98054e-05
6.82282e-05
6.92554e-05
6.38094e-05
5.19992e-05
4.44645e-05
3.96314e-05
3.62459e-05
3.44451e-05
3.30353e-05
3.21474e-05
3.01956e-05
2.86815e-05
2.78862e-05
2.77344e-05
2.77102e-05
2.7586e-05
2.74268e-05
2.70361e-05
2.65748e-05
2.63283e-05
2.63203e-05
2.66312e-05
2.94659e-05
3.41263e-05
3.60502e-05
3.67783e-05
3.81051e-05
3.97547e-05
4.05864e-05
4.09654e-05
4.14917e-05
4.14026e-05
3.92377e-05
3.72103e-05
3.66869e-05
3.72218e-05
4.03152e-05
4.27103e-05
4.37799e-05
4.3194e-05
3.95118e-05
3.20272e-05
2.85819e-05
2.7566e-05
2.7721e-05
2.88155e-05
3.02133e-05
3.80608e-05
4.46272e-05
4.80713e-05
5.08262e-05
5.14534e-05
5.03458e-05
4.72176e-05
4.36089e-05
4.19115e-05
4.06402e-05
3.78695e-05
3.31751e-05
2.8252e-05
2.47395e-05
2.25962e-05
2.18632e-05
2.19533e-05
2.32026e-05
2.89541e-05
3.11397e-05
3.08396e-05
2.93605e-05
2.76615e-05
2.74916e-05
2.83347e-05
3.2276e-05
4.35595e-05
6.23407e-05
6.77266e-05
6.49336e-05
5.31984e-05
4.25016e-05
3.91672e-05
3.79389e-05
3.72661e-05
3.68979e-05
3.62745e-05
3.41542e-05
3.04568e-05
2.76454e-05
2.58243e-05
2.50592e-05
2.5494e-05
2.75762e-05
2.79047e-05
2.79477e-05
2.81153e-05
2.87837e-05
3.33047e-05
3.76784e-05
3.98308e-05
4.17156e-05
4.71254e-05
5.33186e-05
5.42349e-05
5.22373e-05
4.82271e-05
4.70889e-05
4.64218e-05
4.4601e-05
3.90739e-05
3.38248e-05
2.99649e-05
2.82193e-05
2.66184e-05
2.72843e-05
2.72669e-05
2.87216e-05
2.82376e-05
2.9744e-05
2.92579e-05
3.0188e-05
3.06655e-05
3.32082e-05
3.41002e-05
3.67607e-05
3.7272e-05
3.80589e-05
3.9245e-05
4.23853e-05
4.5496e-05
4.61598e-05
4.69674e-05
4.97063e-05
5.34273e-05
7.14459e-05
7.96438e-05
0.000106764
9.74164e-05
0.000100858
0.000105192
0.000201331
0.000194519
0.000181069
0.000170325
0.000167556
0.000162656
0.000159515
0.000157272
0.000153198
0.000142773
0.000125763
0.000106862
9.058e-05
6.87056e-05
5.06621e-05
3.55061e-05
2.4206e-05
1.79937e-05
1.29694e-05
9.42945e-06
8.63419e-06
8.44555e-06
7.9597e-06
8.18877e-06
8.40628e-06
9.0699e-06
9.95189e-06
1.18292e-05
1.3102e-05
1.36524e-05
1.49514e-05
1.88503e-05
2.9633e-05
5.49719e-05
7.58379e-05
9.24607e-05
0.000104834
0.000110287
0.00011126
0.000106461
8.9128e-05
7.0711e-05
5.77517e-05
4.9564e-05
4.64211e-05
4.876e-05
5.06022e-05
5.08876e-05
5.51401e-05
6.17466e-05
6.30767e-05
6.17471e-05
5.20483e-05
3.80329e-05
2.86574e-05
2.24561e-05
1.75779e-05
1.60048e-05
1.84012e-05
3.53655e-05
4.85229e-05
6.1913e-05
7.05051e-05
7.12237e-05
6.44037e-05
5.14334e-05
4.3544e-05
3.86865e-05
3.59206e-05
3.42606e-05
3.30379e-05
3.22551e-05
3.06485e-05
2.90719e-05
2.79227e-05
2.74129e-05
2.7484e-05
2.75548e-05
2.74812e-05
2.70599e-05
2.66067e-05
2.63526e-05
2.63508e-05
2.66424e-05
2.981e-05
3.39073e-05
3.54655e-05
3.63954e-05
3.8155e-05
3.99154e-05
4.06767e-05
4.10796e-05
4.1458e-05
4.10833e-05
3.82613e-05
3.59234e-05
3.53456e-05
3.59699e-05
3.92414e-05
4.14612e-05
4.2531e-05
4.27069e-05
4.1021e-05
3.6534e-05
3.39677e-05
3.26951e-05
3.4117e-05
3.6576e-05
3.81013e-05
4.3346e-05
4.84889e-05
5.03372e-05
5.13514e-05
5.09522e-05
4.81522e-05
4.52313e-05
4.27782e-05
4.15115e-05
3.89986e-05
3.4147e-05
2.95326e-05
2.52867e-05
2.26863e-05
2.17743e-05
2.17061e-05
2.22413e-05
2.53714e-05
3.10261e-05
3.15721e-05
3.0554e-05
2.87544e-05
2.79252e-05
2.82154e-05
3.02038e-05
3.6212e-05
5.21317e-05
6.70952e-05
6.94303e-05
6.27064e-05
4.96005e-05
3.96499e-05
3.78054e-05
3.71104e-05
3.70115e-05
3.68068e-05
3.62679e-05
3.4778e-05
3.08864e-05
2.76512e-05
2.56092e-05
2.49185e-05
2.52785e-05
2.71597e-05
2.77092e-05
2.78404e-05
2.80817e-05
2.85856e-05
3.22285e-05
3.65681e-05
3.87839e-05
4.07349e-05
4.60105e-05
5.28258e-05
5.41783e-05
5.26368e-05
4.82192e-05
4.64888e-05
4.60394e-05
4.46788e-05
4.02817e-05
3.60116e-05
3.14363e-05
2.9573e-05
2.7596e-05
2.86805e-05
2.84474e-05
3.05413e-05
3.00669e-05
3.20542e-05
3.17911e-05
3.3122e-05
3.37558e-05
3.6431e-05
3.7129e-05
3.9306e-05
3.97481e-05
4.08708e-05
4.41276e-05
4.59918e-05
4.68528e-05
4.70195e-05
4.69683e-05
4.89998e-05
5.02005e-05
5.8272e-05
6.52925e-05
7.77581e-05
0.00010127
0.000101024
0.000104072
0.000169799
0.000166097
0.000159391
0.000148712
0.00014318
0.000134895
0.000131414
0.000129336
0.000125847
0.000117923
0.000102521
8.41795e-05
6.29755e-05
4.50881e-05
3.17221e-05
2.13647e-05
1.50378e-05
1.20036e-05
8.92686e-06
7.25933e-06
7.41881e-06
7.34854e-06
7.18372e-06
7.47428e-06
7.86188e-06
9.13614e-06
1.08433e-05
1.18419e-05
1.23567e-05
1.30522e-05
1.47911e-05
1.96328e-05
3.16384e-05
5.6313e-05
7.57079e-05
9.27376e-05
0.000105325
0.00011065
0.000110904
0.000103761
8.50699e-05
6.98333e-05
5.70722e-05
4.92708e-05
4.70844e-05
4.88714e-05
4.97413e-05
5.00964e-05
5.69739e-05
6.2744e-05
6.32439e-05
6.04122e-05
4.66844e-05
3.43716e-05
2.66351e-05
2.15424e-05
1.71958e-05
1.60142e-05
1.90572e-05
3.73822e-05
5.01022e-05
6.41235e-05
7.2863e-05
7.32716e-05
6.48351e-05
5.07854e-05
4.26749e-05
3.79611e-05
3.55784e-05
3.42277e-05
3.32484e-05
3.28297e-05
3.17546e-05
3.00497e-05
2.8327e-05
2.69607e-05
2.6839e-05
2.71798e-05
2.73663e-05
2.7266e-05
2.69281e-05
2.66014e-05
2.6503e-05
2.68282e-05
3.05298e-05
3.38199e-05
3.49943e-05
3.62031e-05
3.82593e-05
4.00398e-05
4.0748e-05
4.11019e-05
4.1373e-05
4.07129e-05
3.73331e-05
3.47016e-05
3.40332e-05
3.4709e-05
3.82436e-05
4.05221e-05
4.13597e-05
4.16126e-05
4.08879e-05
3.86292e-05
3.80966e-05
3.77243e-05
3.89808e-05
4.28563e-05
4.38339e-05
4.59448e-05
4.90129e-05
5.02482e-05
5.02962e-05
4.82788e-05
4.58181e-05
4.39538e-05
4.24698e-05
4.04134e-05
3.46458e-05
3.06725e-05
2.60636e-05
2.27589e-05
2.16404e-05
2.15038e-05
2.17218e-05
2.33753e-05
2.91115e-05
3.18517e-05
3.1613e-05
2.94881e-05
2.84964e-05
2.85042e-05
2.958e-05
3.33375e-05
4.18739e-05
6.05388e-05
7.06322e-05
7.04074e-05
5.91218e-05
4.55441e-05
3.72317e-05
3.67626e-05
3.63637e-05
3.65402e-05
3.67158e-05
3.62885e-05
3.4905e-05
3.10779e-05
2.76307e-05
2.55329e-05
2.49267e-05
2.5272e-05
2.68931e-05
2.74936e-05
2.76842e-05
2.80009e-05
2.843e-05
3.13887e-05
3.55498e-05
3.78425e-05
3.97925e-05
4.46971e-05
5.22656e-05
5.40461e-05
5.2937e-05
4.84138e-05
4.59102e-05
4.51981e-05
4.45334e-05
4.16924e-05
3.92836e-05
3.52395e-05
3.37462e-05
3.02267e-05
3.06899e-05
3.02511e-05
3.23759e-05
3.21656e-05
3.39812e-05
3.40145e-05
3.66601e-05
3.64583e-05
3.91385e-05
3.98763e-05
4.1557e-05
4.20666e-05
4.32387e-05
4.67093e-05
4.6277e-05
4.7572e-05
4.69418e-05
4.75701e-05
4.92539e-05
5.1143e-05
6.68563e-05
6.85451e-05
8.62042e-05
9.50401e-05
9.61609e-05
0.000100835
0.00013354
0.000131671
0.000129846
0.000123712
0.000117588
0.000106785
9.90715e-05
9.58616e-05
8.97481e-05
8.18259e-05
6.66771e-05
5.01353e-05
3.68674e-05
2.6387e-05
1.83391e-05
1.24994e-05
9.98575e-06
8.712e-06
6.85662e-06
6.24071e-06
6.76866e-06
6.7452e-06
6.6256e-06
6.76059e-06
7.26283e-06
9.02552e-06
1.15783e-05
1.1717e-05
1.20112e-05
1.26614e-05
1.4655e-05
2.04173e-05
3.31865e-05
5.81159e-05
7.67361e-05
9.27739e-05
0.000104549
0.000110778
0.000110525
0.000101608
8.15457e-05
6.80053e-05
5.64892e-05
4.90509e-05
4.755e-05
4.86969e-05
4.88767e-05
4.97831e-05
5.89327e-05
6.34977e-05
6.33868e-05
5.68973e-05
4.3084e-05
3.25861e-05
2.56812e-05
2.05952e-05
1.6705e-05
1.59758e-05
1.9838e-05
3.94791e-05
5.17078e-05
6.63237e-05
7.51561e-05
7.53751e-05
6.54152e-05
5.04393e-05
4.19018e-05
3.71994e-05
3.53478e-05
3.42429e-05
3.38807e-05
3.37049e-05
3.31313e-05
3.15215e-05
2.92981e-05
2.70188e-05
2.59821e-05
2.63063e-05
2.71392e-05
2.7626e-05
2.76072e-05
2.72686e-05
2.68935e-05
2.74768e-05
3.14601e-05
3.37884e-05
3.45935e-05
3.60685e-05
3.83951e-05
4.01754e-05
4.08158e-05
4.11138e-05
4.12589e-05
4.02106e-05
3.65172e-05
3.36119e-05
3.27822e-05
3.34072e-05
3.71576e-05
3.96417e-05
4.05587e-05
4.06549e-05
4.01452e-05
3.89613e-05
3.89876e-05
3.92175e-05
4.01945e-05
4.38784e-05
4.54114e-05
4.60881e-05
4.69797e-05
4.74821e-05
4.71429e-05
4.56846e-05
4.45484e-05
4.34235e-05
4.14664e-05
3.57964e-05
3.13185e-05
2.70118e-05
2.30587e-05
2.15507e-05
2.13068e-05
2.14352e-05
2.23056e-05
2.63101e-05
3.08381e-05
3.19948e-05
3.05826e-05
2.89008e-05
2.88778e-05
2.95757e-05
3.21157e-05
3.76696e-05
4.93696e-05
6.70222e-05
7.29048e-05
7.07146e-05
5.45637e-05
4.17347e-05
3.5778e-05
3.56097e-05
3.51628e-05
3.59334e-05
3.69494e-05
3.67676e-05
3.53315e-05
3.11874e-05
2.75996e-05
2.55585e-05
2.51738e-05
2.56836e-05
2.67559e-05
2.72008e-05
2.74931e-05
2.79198e-05
2.82865e-05
3.0544e-05
3.45095e-05
3.68389e-05
3.8809e-05
4.35928e-05
5.15385e-05
5.38224e-05
5.316e-05
4.88913e-05
4.58368e-05
4.47565e-05
4.44992e-05
4.30079e-05
4.13604e-05
3.83846e-05
3.72763e-05
3.44127e-05
3.49595e-05
3.44597e-05
3.67234e-05
3.70123e-05
3.89398e-05
3.95423e-05
4.24875e-05
4.21599e-05
4.34281e-05
4.3492e-05
4.42227e-05
4.46689e-05
4.53847e-05
4.68503e-05
4.48945e-05
4.56189e-05
4.45623e-05
4.62163e-05
4.47404e-05
4.84564e-05
4.74393e-05
5.67826e-05
8.78274e-05
9.52715e-05
9.1823e-05
9.52346e-05
9.03853e-05
8.92845e-05
8.88709e-05
8.72383e-05
8.3079e-05
7.18559e-05
6.22595e-05
5.76735e-05
5.12859e-05
4.45518e-05
3.57831e-05
2.74371e-05
2.06859e-05
1.45025e-05
1.02944e-05
8.16648e-06
7.81172e-06
7.23995e-06
5.91103e-06
5.74788e-06
6.38804e-06
6.25116e-06
6.11562e-06
6.27865e-06
6.75249e-06
8.98168e-06
1.17105e-05
1.18827e-05
1.20663e-05
1.26923e-05
1.46789e-05
2.09467e-05
3.4951e-05
6.26637e-05
7.77712e-05
9.30151e-05
0.000102828
0.000110383
0.00010933
9.94278e-05
7.94479e-05
6.58813e-05
5.60107e-05
4.89827e-05
4.80052e-05
4.84635e-05
4.83136e-05
5.05007e-05
6.10185e-05
6.41895e-05
6.3229e-05
5.2959e-05
3.9925e-05
3.08019e-05
2.45734e-05
1.9805e-05
1.63861e-05
1.59642e-05
2.08265e-05
4.18448e-05
5.34171e-05
6.83472e-05
7.74658e-05
7.75361e-05
6.62446e-05
5.03967e-05
4.12036e-05
3.67095e-05
3.52141e-05
3.45312e-05
3.472e-05
3.46597e-05
3.428e-05
3.3215e-05
3.08809e-05
2.75581e-05
2.57205e-05
2.56162e-05
2.66194e-05
2.77131e-05
2.7893e-05
2.7614e-05
2.72192e-05
2.86451e-05
3.23389e-05
3.36893e-05
3.42407e-05
3.61186e-05
3.8656e-05
4.02867e-05
4.09194e-05
4.11006e-05
4.10183e-05
3.94614e-05
3.57813e-05
3.27141e-05
3.1669e-05
3.21842e-05
3.61807e-05
3.90842e-05
3.99194e-05
3.99958e-05
3.95359e-05
3.89643e-05
3.90104e-05
3.93494e-05
4.03324e-05
4.34527e-05
4.51837e-05
4.51827e-05
4.51279e-05
4.54297e-05
4.53437e-05
4.47335e-05
4.39025e-05
4.13578e-05
3.64433e-05
3.21393e-05
2.73875e-05
2.34461e-05
2.15041e-05
2.11745e-05
2.12341e-05
2.18704e-05
2.37057e-05
2.85386e-05
3.13166e-05
3.13825e-05
2.97907e-05
2.90447e-05
2.97129e-05
3.21357e-05
3.6225e-05
4.26304e-05
5.66491e-05
7.12125e-05
7.40521e-05
6.89478e-05
5.02554e-05
3.88887e-05
3.50289e-05
3.39353e-05
3.36379e-05
3.57154e-05
3.80876e-05
3.80061e-05
3.64327e-05
3.15928e-05
2.76039e-05
2.56925e-05
2.54712e-05
2.6205e-05
2.68392e-05
2.70879e-05
2.73254e-05
2.7786e-05
2.81622e-05
3.00123e-05
3.35693e-05
3.58495e-05
3.78304e-05
4.23502e-05
5.07079e-05
5.368e-05
5.3387e-05
4.97326e-05
4.59259e-05
4.48357e-05
4.48429e-05
4.37287e-05
4.2961e-05
3.99478e-05
3.9063e-05
3.67471e-05
3.80869e-05
3.74438e-05
4.02218e-05
4.06863e-05
4.22884e-05
4.32442e-05
4.44229e-05
4.41265e-05
4.5257e-05
4.4935e-05
4.59171e-05
4.68563e-05
4.60813e-05
4.57831e-05
4.26308e-05
4.25882e-05
4.13804e-05
4.27688e-05
4.21494e-05
4.56805e-05
4.63952e-05
5.67533e-05
6.04946e-05
8.72904e-05
8.8533e-05
9.08979e-05
5.14384e-05
5.01478e-05
5.01373e-05
4.91756e-05
4.55612e-05
3.86682e-05
3.28667e-05
2.88244e-05
2.5325e-05
2.15914e-05
1.75151e-05
1.4439e-05
1.07101e-05
7.48427e-06
6.57758e-06
6.86731e-06
7.06082e-06
6.54646e-06
5.39949e-06
5.38017e-06
5.93691e-06
5.71293e-06
5.62034e-06
5.94144e-06
6.58692e-06
8.84123e-06
1.16914e-05
1.20046e-05
1.23997e-05
1.30388e-05
1.49308e-05
2.17752e-05
3.75569e-05
6.84899e-05
7.87986e-05
9.22269e-05
0.000102469
0.000109839
0.000107571
9.67255e-05
7.86077e-05
6.43694e-05
5.53444e-05
4.89243e-05
4.8424e-05
4.84229e-05
4.81181e-05
5.2582e-05
6.27404e-05
6.48197e-05
6.22127e-05