/*--------------------------------*- C++ -*----------------------------------*\
| =========                 |                                                 |
| \\      /  F ield         | OpenFOAM: The Open Source CFD Toolbox           |
|  \\    /   O peration     | Version:  2.4.0                                 |
|   \\  /    A nd           | Web:      www.OpenFOAM.org                      |
|    \\/     M anipulation  |                                                 |
\*---------------------------------------------------------------------------*/
FoamFile
{
    version     2.0;
    format      ascii;
    class       volScalarField;
    location    "0.256";
    object      pMean;
}
// * * * * * * * * * * * * * * * * * * * * * * * * * * * * * * * * * * * * * //

dimensions      [0 2 -2 0 0 0 0];

internalField   nonuniform List<scalar> 
17600
(
98.8988
82.9613
78.3111
76.9933
75.8506
74.7052
73.6354
72.6328
71.6716
70.715
69.7661
68.8107
67.8741
66.9251
65.9893
65.0045
63.9871
62.8324
61.4579
59.3403
96.9972
83.0108
78.3518
77.0029
75.8538
74.7058
73.6357
72.633
71.6718
70.7151
69.7661
68.8107
67.8742
66.9255
65.9895
65.0055
63.988
62.8341
61.4653
59.4911
95.5888
83.2652
78.4947
77.0408
75.8677
74.7102
73.6379
72.6347
71.6731
70.7158
69.7666
68.8109
67.8746
66.9258
65.9906
65.006
63.9917
62.8348
61.5066
59.6035
94.6158
83.6041
78.7128
77.1052
75.8968
74.7254
73.6467
72.6411
71.6777
70.7189
69.7683
68.8124
67.8759
66.9286
65.9932
65.0125
63.9978
62.8511
61.555
59.7699
93.7961
83.9363
78.9744
77.1861
75.9387
74.7543
73.6662
72.6556
71.6884
70.7266
69.7732
68.8155
67.8793
66.9319
65.9995
65.0181
64.0137
62.8708
61.6323
59.9784
93.0244
84.2262
79.2491
77.2673
75.9802
74.7909
73.6952
72.6789
71.7064
70.7401
69.782
68.8229
67.8848
66.9406
66.0078
65.033
64.0318
62.906
61.731
60.2259
92.2982
84.4712
79.5226
77.3433
76.0118
74.8249
73.7281
72.7075
71.7297
70.7583
69.795
68.8327
67.8938
66.9509
66.0211
65.0507
64.0568
62.9528
61.845
60.53
91.6273
84.6742
79.7886
77.4162
76.0329
74.8511
73.7601
72.7381
71.755
70.7785
69.8095
68.8447
67.9044
66.9647
66.0379
65.0738
64.0901
63.008
61.9584
60.9072
91.0172
84.8388
80.0392
77.4916
76.0457
74.8689
73.7888
72.7686
71.7807
70.7989
69.824
68.8573
67.9148
66.9803
66.0536
65.1035
64.1198
63.0813
62.0431
61.2731
90.4699
84.9663
80.2712
77.5715
76.0523
74.8788
73.8134
72.7978
71.8058
70.8181
69.8378
68.8688
67.9258
66.9954
66.0727
65.1327
64.1586
63.1552
62.1594
61.6764
89.984
85.059
80.4839
77.6562
76.0539
74.8819
73.8339
72.8255
71.8299
70.8366
69.8503
68.88
67.9357
67.0109
66.0907
65.1633
64.202
63.2316
62.3082
62.0281
89.5565
85.121
80.6771
77.7455
76.0517
74.8794
73.8504
72.8514
71.8532
70.8538
69.8617
68.8902
67.9461
67.0259
66.1109
65.1943
64.2492
63.3145
62.4658
62.3394
89.1849
85.1582
80.8504
77.8375
76.047
74.8722
73.8636
72.8753
71.8753
70.8698
69.8722
68.8995
67.9563
67.041
66.1322
65.2261
64.3016
63.4009
62.6277
62.6195
88.8665
85.1774
81.0031
77.9272
76.0421
74.8619
73.8739
72.8966
71.896
70.8844
69.8818
68.908
67.9668
67.0559
66.1545
65.2596
64.3565
63.4916
62.789
62.8735
88.5981
85.186
81.1342
78.0079
76.0385
74.8506
73.882
72.9156
71.9147
70.8976
69.8904
68.916
67.977
67.0716
66.1773
65.2952
64.4129
63.5854
62.9494
63.1048
88.3774
85.189
81.2424
78.0771
76.0368
74.8393
73.888
72.9319
71.9312
70.9092
69.8984
68.9237
67.9876
67.0867
66.2019
65.3302
64.4738
63.6769
63.1183
63.3119
88.2032
85.1887
81.3278
78.1335
76.0372
74.8286
73.8926
72.9451
71.9454
70.9186
69.906
68.9304
67.9991
67.102
66.2282
65.3665
64.5359
63.7679
63.282
63.5419
88.0738
85.1871
81.3906
78.1772
76.0384
74.8201
73.8955
72.9558
71.9562
70.9272
69.9118
68.9383
68.0087
67.1194
66.2517
65.4077
64.5938
63.8653
63.4009
63.7167
87.9885
85.185
81.4319
78.2067
76.0404
74.8137
73.8977
72.9631
71.9646
70.9335
69.918
68.9452
68.0198
67.136
66.2779
65.4477
64.6542
63.9601
63.5217
63.9211
87.9463
85.1836
81.4523
78.2219
76.0417
74.8107
73.8989
72.9675
71.9695
70.9383
69.923
68.9525
68.0305
67.153
66.3041
65.4883
64.7157
64.0522
63.6554
64.1001
87.9466
85.1833
81.4523
78.2221
76.042
74.8112
73.8993
72.9688
71.9711
70.9412
69.9274
68.9594
68.0417
67.1697
66.3316
65.5281
64.7795
64.1394
63.8057
64.2566
87.9899
85.184
81.4323
78.207
76.0417
74.8148
73.8995
72.9665
71.97
70.9419
69.9318
68.9659
68.0536
67.186
66.36
65.5682
64.8435
64.2256
63.9487
64.4425
88.0759
85.1855
81.3912
78.1778
76.0404
74.8222
73.8984
72.9617
71.9648
70.9419
69.9338
68.9739
68.0633
67.2053
66.3852
65.6127
64.9014
64.3187
64.0416
64.5662
88.2062
85.1864
81.3288
78.1344
76.0401
74.8314
73.8967
72.9533
71.9574
70.9391
69.9365
68.9805
68.0747
67.2229
66.4126
65.6558
64.9615
64.4079
64.1334
64.7306
88.3812
85.186
81.2437
78.0781
76.0406
74.8424
73.8937
72.9421
71.9469
70.9349
69.9382
68.987
68.0858
67.2404
66.4407
65.698
65.0237
64.4921
64.2407
64.8732
88.6027
85.1823
81.1357
78.0093
76.0432
74.8541
73.889
72.9278
71.9338
70.9287
69.9392
68.9931
68.097
67.2577
66.469
65.7401
65.0872
64.5743
64.3583
64.9917
88.872
85.173
81.0049
77.9288
76.0478
74.8657
73.8826
72.9106
71.9187
70.9208
69.9395
68.9984
68.1081
67.275
66.4975
65.7828
65.1505
64.6586
64.4687
65.1156
89.191
85.1535
80.8521
77.8394
76.0537
74.8765
73.8736
72.891
71.9014
70.9116
69.9384
69.0037
68.118
67.2933
66.5244
65.8278
65.2115
64.7486
64.5528
65.2004
89.5633
85.116
80.6788
77.747
76.0597
74.8841
73.8619
72.8688
71.883
70.9005
69.9369
69.0072
68.1287
67.31
66.5526
65.8711
65.2751
64.8382
64.6391
65.2871
89.9911
85.0537
80.4857
77.6576
76.0629
74.8874
73.8466
72.8446
71.8633
70.8881
69.9342
69.0095
68.1391
67.3258
66.5814
65.9129
65.3413
64.9265
64.7412
65.3445
90.4776
84.9605
80.2731
77.5728
76.0619
74.8854
73.8273
72.8187
71.8425
70.8746
69.93
69.0109
68.1488
67.3408
66.6096
65.9535
65.4085
65.0152
64.8587
65.3726
91.0253
84.8326
80.0412
77.4929
76.0558
74.8765
73.8038
72.7912
71.821
70.8597
69.9246
69.0109
68.1578
67.3546
66.6373
65.9918
65.4758
65.1011
64.9882
65.3796
91.6357
84.668
79.7906
77.4178
76.0432
74.8599
73.7763
72.7626
71.7987
70.8438
69.9179
69.0101
68.1656
67.3671
66.6627
66.0273
65.5381
65.1819
65.1079
65.3944
92.3068
84.4652
79.5247
77.3452
76.0222
74.8347
73.7457
72.7338
71.7766
70.8279
69.9107
69.0089
68.1719
67.3783
66.6844
66.059
65.591
65.2538
65.2006
65.3896
93.033
84.2205
79.2515
77.2693
75.9908
74.8016
73.7142
72.7067
71.7562
70.8134
69.9042
69.0078
68.1773
67.3878
66.7024
66.085
65.6337
65.3103
65.2716
65.4159
93.8046
83.9308
78.9772
77.1882
75.9495
74.7656
73.6863
72.6847
71.7405
70.8029
69.9001
69.0078
68.182
67.3955
66.7162
66.1047
65.6649
65.3513
65.3196
65.4353
94.6244
83.5989
78.7159
77.1072
75.9077
74.7373
73.6677
72.6711
71.7312
70.7972
69.8985
69.0088
68.1859
67.4013
66.7256
66.1181
65.6848
65.378
65.3466
65.4561
95.5973
83.2601
78.4979
77.0428
75.8786
74.7223
73.6594
72.6652
71.7275
70.7953
69.8984
69.0101
68.1884
67.4048
66.7309
66.1255
65.6954
65.3923
65.3599
65.4781
97.0057
83.0058
78.3551
77.0049
75.8648
74.718
73.6574
72.6637
71.7264
70.795
69.8986
69.0108
68.1894
67.4062
66.7328
66.1281
65.6988
65.397
65.3636
65.502
98.9073
82.9564
78.3144
76.9953
75.8616
74.7175
73.6572
72.6634
71.7262
70.7949
69.8986
69.0108
68.1895
67.4061
66.7328
66.128
65.6988
65.3965
65.3623
65.5365
57.9946
57.3008
56.0655
54.7846
53.5737
52.5755
51.7027
50.9667
50.3395
49.7472
49.1728
48.5733
47.9447
47.2376
46.5451
45.8673
45.1928
44.6585
44.2678
44.046
44.0064
44.1446
44.4866
45.0095
45.6142
46.2987
47.0627
47.8836
48.7334
49.5546
50.3274
51.0573
51.7416
52.3785
52.9749
53.5594
54.1486
54.7372
55.3249
55.9007
56.4315
56.8988
57.3186
57.7184
58.0863
58.4045
58.6779
58.9024
59.0523
59.1258
59.153
59.1378
59.0563
58.8987
58.679
58.4177
58.1275
57.814
57.4924
57.1722
56.8617
56.5635
56.2679
55.9952
55.7642
55.5798
55.4403
55.348
55.3006
55.2928
55.3266
55.395
55.491
55.6071
55.7406
55.9067
56.127
56.4067
56.7361
57.1137
57.5347
57.9849
58.4508
58.9098
59.3487
59.7586
60.1323
60.476
60.7919
61.0842
61.3482
61.5755
61.7677
61.9165
62.0316
62.1086
62.1533
62.1704
62.1704
62.1422
62.0912
62.0247
61.9494
61.872
61.7991
61.7378
61.6877
61.6444
61.6159
61.597
61.5909
61.5927
61.6129
61.632
61.6591
61.6868
61.7239
61.766
61.8422
61.9571
62.0928
62.2509
62.4255
62.6196
62.8314
63.0411
63.2676
63.4629
63.6568
63.8281
63.9741
64.1086
64.2059
64.3006
64.3748
64.4584
64.5435
64.6447
64.758
64.8772
65.0068
65.126
65.2548
65.3675
65.4863
65.5923
65.714
65.8239
65.9475
66.0694
66.2027
66.3389
66.4734
66.6024
66.7073
66.8032
66.8704
66.9173
66.951
66.9594
66.9529
66.9017
66.8555
66.773
66.7065
66.6197
66.5699
66.5152
66.5241
66.5304
66.6119
66.683
66.8211
66.9391
67.1332
67.2703
67.5137
67.6538
67.9634
68.0844
68.4637
68.579
69.0031
69.1165
69.5028
69.6161
69.9036
69.9439
70.0944
69.9742
69.8976
69.5245
69.115
68.3368
67.3406
65.7428
63.3873
59.2459
53.8056
29.7623
58.2161
57.5627
56.5231
55.4191
54.3596
53.4844
52.738
52.1032
51.5522
51.0261
50.487
49.9078
49.2816
48.5576
47.8386
47.1519
46.469
45.9142
45.5201
45.2985
45.2586
45.4012
45.7421
46.2673
46.8911
47.5793
48.3258
49.1076
49.9147
50.7027
51.4469
52.1421
52.787
53.3815
53.928
54.4494
54.9698
55.4878
55.9957
56.4904
56.9462
57.3368
57.6702
57.974
58.2468
58.4722
58.6658
58.8339
58.9417
58.9726
58.9548
58.8939
58.7678
58.5699
58.3113
58.0102
57.6793
57.3263
56.9669
56.6121
56.2735
55.9499
55.6311
55.3455
55.1117
54.9305
54.7991
54.7203
54.6905
54.7031
54.7588
54.8491
54.9681
55.1103
55.2744
55.4785
55.7409
56.064
56.4399
56.868
57.3422
57.8455
58.3637
58.8741
59.3591
59.8088
60.218
60.5914
60.9317
61.2442
61.5241
61.7628
61.9619
62.1135
62.2276
62.3005
62.3446
62.3657
62.3722
62.3544
62.3146
62.2562
62.1866
62.1112
62.0366
61.9698
61.9143
61.8629
61.8263
61.7981
61.7814
61.7696
61.7788
61.7867
61.8005
61.815
61.8421
61.8718
61.9277
62.024
62.1446
62.2874
62.4435
62.6163
62.809
63.0032
63.2162
63.4074
63.5931
63.767
63.9086
64.0447
64.145
64.2408
64.32
64.4044
64.4891
64.589
64.6999
64.8197
64.9471
65.0656
65.1917
65.3018
65.416
65.5131
65.6274
65.7291
65.8478
65.9602
66.0904
66.2207
66.3567
66.4866
66.5942
66.6944
66.7674
66.8214
66.8589
66.8693
66.861
66.8104
66.7612
66.6724
66.6017
66.5007
66.4405
66.3618
66.3499
66.3229
66.3807
66.4138
66.5297
66.605
66.7817
66.8716
67.106
67.1982
67.5083
67.5834
67.9521
68.0339
68.4252
68.5221
68.858
68.9548
69.2044
69.2137
69.3201
69.1565
69.0232
68.5692
68.0515
67.115
65.8984
63.9154
61.2404
55.701
49.7781
22.6484
58.4817
57.8781
56.9592
55.9703
55.0253
54.2385
53.5913
53.0485
52.5669
52.1025
51.6009
51.0575
50.4629
49.7568
49.0366
48.3536
47.6856
47.1363
46.7545
46.5353
46.5072
46.6616
47.0017
47.5207
48.1499
48.8391
49.5725
50.3269
51.097
51.855
52.572
53.2337
53.8413
54.3975
54.8989
55.3609
55.8126
56.2594
56.6902
57.1029
57.4814
57.7942
58.0439
58.255
58.4363
58.5739
58.6915
58.8039
58.8692
58.8612
58.8034
58.6984
58.5292
58.2936
57.9999
57.663
57.2953
56.9061
56.5126
56.1263
55.7621
55.4137
55.0755
54.7807
54.5466
54.3701
54.2487
54.185
54.175
54.212
54.2933
54.4088
54.5536
54.7251
54.923
55.1671
55.4718
55.8377
56.2591
56.7358
57.2607
57.8143
58.381
58.9401
59.4693
59.9571
60.4005
60.802
61.164
61.4929
61.7839
62.0301
62.2334
62.3863
62.4996
62.5689
62.6138
62.6404
62.6539
62.6463
62.6195
62.5714
62.5099
62.4373
62.3624
62.2893
62.2276
62.1666
62.1204
62.0804
62.0515
62.0233
62.0186
62.013
62.0118
62.0103
62.0231
62.038
62.0739
62.149
62.2529
62.3775
62.5155
62.6671
62.8415
63.02
63.2185
63.4057
63.5836
63.7599
63.8989
64.0381
64.1438
64.2445
64.3295
64.4175
64.5027
64.6016
64.7086
64.8273
64.9502
65.0675
65.1876
65.2948
65.4035
65.493
65.5978
65.6913
65.8022
65.9058
66.0304
66.1544
66.2894
66.4199
66.5303
66.6344
66.7139
66.7781
66.8178
66.828
66.8155
66.7664
66.7129
66.6177
66.5438
66.4254
66.3585
66.2554
66.2246
66.1617
66.1956
66.187
66.2816
66.3074
66.4676
66.5095
66.7315
66.7767
67.0786
67.1142
67.4578
67.5132
67.8543
67.9391
68.2251
68.3005
68.5056
68.4852
68.5338
68.3287
68.1268
67.5959
66.9582
65.845
64.4499
61.9979
59.2457
52.1655
45.9614
20.6508
58.7464
58.2103
57.4164
56.4989
55.6204
54.8943
54.3305
53.8741
53.4597
53.053
52.5942
52.0851
51.5318
50.8679
50.1699
49.5088
48.8727
48.3452
47.9842
47.7795
47.7683
47.9336
48.266
48.7691
49.3896
50.0742
50.7969
51.5332
52.2706
52.9963
53.6849
54.3173
54.8898
55.4111
55.8744
56.2836
56.6703
57.0457
57.4001
57.7321
58.0315
58.2664
58.4361
58.5614
58.6568
58.7142
58.7604
58.8145
58.8345
58.791
58.6987
58.5528
58.3436
58.0736
57.7476
57.3781
56.9775
56.5572
56.1337
55.7194
55.3319
54.9605
54.607
54.308
54.0756
53.9054
53.7948
53.7478
53.7599
53.8243
53.9355
54.0802
54.2538
54.4573
54.6913
54.9768
55.3237
55.7321
56.1977
56.7207
57.2924
57.8923
58.5036
59.1073
59.6769
60.1996
60.6752
61.1025
61.4839
61.826
62.1241
62.3744
62.5797
62.7322
62.845
62.9122
62.9605
62.9941
63.0152
63.0167
63.003
62.9653
62.9134
62.844
62.7702
62.691
62.6216
62.5496
62.4927
62.4393
62.3978
62.3525
62.3308
62.3094
62.2932
62.2739
62.2688
62.2662
62.2826
62.3344
62.4198
62.524
62.6451
62.7761
62.9336
63.0959
63.2794
63.4611
63.6326
63.8086
63.9487
64.0911
64.2032
64.3116
64.4026
64.495
64.5817
64.6796
64.7829
64.8993
65.0165
65.1314
65.2441
65.347
65.4492
65.5314
65.6259
65.7107
65.813
65.9075
66.026
66.1431
66.2768
66.4056
66.5197
66.6261
66.7136
66.7867
66.8283
66.8359
66.8201
66.7724
66.7133
66.6095
66.5311
66.3931
66.3202
66.193
66.1467
66.048
66.0539
66.0003
66.074
66.05
66.1884
66.1864
66.3916
66.391
66.6738
66.6745
66.9806
67.0143
67.2935
67.3688
67.603
67.6569
67.815
67.7584
67.7469
67.489
67.2135
66.5937
65.8604
64.5307
63.0683
59.992
57.4189
48.9201
42.4379
21.1052
59.0421
58.5726
57.8888
57.0252
56.1832
55.5059
55.0111
54.6346
54.2917
53.9377
53.5229
53.0443
52.5316
51.9241
51.265
50.6408
50.0556
49.5637
49.2312
49.0502
49.0526
49.2188
49.5337
50.0108
50.6109
51.2816
51.9916
52.712
53.4225
54.1141
54.7719
55.378
55.9206
56.4105
56.8396
57.2037
57.5323
57.8381
58.1177
58.3723
58.5926
58.7515
58.8452
58.8925
58.9098
58.8953
58.8731
58.8659
58.8383
58.7628
58.6405
58.4588
58.2146
57.9132
57.5573
57.1583
56.7286
56.2824
55.834
55.3954
54.9872
54.5958
54.2321
53.933
53.7038
53.5407
53.4421
53.4132
53.4502
53.5455
53.6893
53.8668
54.0726
54.3103
54.5823
54.9092
55.298
55.7484
56.2572
56.8232
57.4377
58.0796
58.7315
59.3746
59.979
60.5326
61.0368
61.4872
61.8858
62.2383
62.5412
62.7929
62.9984
63.1492
63.2616
63.3286
63.3832
63.4255
63.4548
63.464
63.4619
63.4341
63.3913
63.325
63.2523
63.1676
63.0903
63.0068
62.9383
62.8699
62.8164
62.7543
62.7142
62.674
62.6429
62.6045
62.5803
62.5576
62.5551
62.5814
62.6466
62.7289
62.835
62.9466
63.0888
63.2341
63.4033
63.5768
63.7439
63.9162
64.0602
64.2042
64.3238
64.4394
64.5369
64.6331
64.7225
64.8202
64.9211
65.0336
65.1456
65.2556
65.3599
65.4568
65.5519
65.6263
65.7106
65.7855
65.8802
65.9665
66.0791
66.1887
66.3211
66.4464
66.5645
66.6727
66.7685
66.8479
66.8898
66.8944
66.8771
66.8289
66.7616
66.6463
66.5603
66.4026
66.3246
66.1711
66.1115
65.9767
65.9558
65.8545
65.9061
65.8311
65.9452
65.8958
66.0842
66.0378
66.2892
66.2627
66.5185
66.5359
66.7514
66.8131
66.9959
67.0286
67.1391
67.0355
66.9756
66.6419
66.315
65.5542
64.7934
63.1323
61.788
57.9131
55.7108
46.1404
39.1505
21.806
59.413
58.9907
58.3582
57.5232
56.7037
56.0699
55.6427
55.3456
55.0776
54.7768
54.4099
53.9696
53.4959
52.9514
52.3459
51.7665
51.2383
50.7951
50.4952
50.3395
50.3494
50.5101
50.8036
51.246
51.8141
52.4595
53.1503
53.8536
54.5426
55.201
55.8267
56.4064
56.925
57.3872
57.7825
58.105
58.3826
58.6244
58.8337
59.0171
59.1613
59.2489
59.2723
59.249
59.1974
59.1178
59.0284
58.9591
58.8847
58.7792
58.6302
58.4182
58.1445
57.8154
57.4315
57.0065
56.5515
56.0849
55.6167
55.1576
54.7318
54.325
53.9565
53.6602
53.4351
53.2787
53.193
53.1849
53.2497
53.378
53.5571
53.7706
54.012
54.2859
54.597
54.9648
55.3945
55.8851
56.4358
57.0425
57.696
58.3753
59.0636
59.7392
60.3723
60.9522
61.4807
61.9508
62.3644
62.7255
63.0317
63.283
63.4876
63.6353
63.7477
63.8163
63.8795
63.931
63.9689
63.9844
63.992
63.9722
63.9383
63.8751
63.8024
63.7114
63.6268
63.5322
63.4526
63.3688
63.3035
63.2254
63.1665
63.1059
63.0594
63.0025
62.9588
62.9142
62.8929
62.8924
62.9364
62.9961
63.089
63.1818
63.31
63.4374
63.5931
63.7557
63.9194
64.0851
64.2345
64.3784
64.5052
64.6257
64.7312
64.8291
64.9225
65.0205
65.1211
65.2287
65.337
65.4398
65.5353
65.6221
65.7086
65.7741
65.8509
65.9163
66.0051
66.084
66.1922
66.2928
66.4243
66.5431
66.6669
66.7742
66.8801
66.9609
67.0027
67.0042
66.9899
66.9342
66.8583
66.7266
66.6321
66.4525
66.3714
66.19
66.1163
65.944
65.8976
65.7509
65.7779
65.6517
65.7418
65.6395
65.8099
65.7199
65.9277
65.8784
66.0748
66.0726
66.2345
66.2709
66.411
66.4095
66.4812
66.3061
66.2306
65.7713
65.4575
64.4607
63.8123
61.6461
60.6036
55.8355
53.9351
43.8504
36.0273
21.9633
59.8628
59.4674
58.8098
57.9564
57.1518
56.5706
56.221
56.0061
55.8154
55.5731
55.2589
54.8688
54.4377
53.9559
53.4152
52.8881
52.4156
52.0259
51.7578
51.6235
51.6388
51.7945
52.0691
52.4733
52.9997
53.6098
54.2732
54.9562
55.6234
56.2541
56.8483
57.399
57.8936
58.3301
58.694
58.9763
59.2068
59.3925
59.5402
59.6588
59.7332
59.7559
59.7167
59.6295
59.5185
59.3795
59.2252
59.0954
58.977
58.8426
58.6686
58.4307
58.1326
57.7792
57.3714
56.9254
56.4507
55.9681
55.4835
55.008
54.5695
54.153
53.7845
53.4925
53.2712
53.1211
53.0492
53.0652
53.16
53.3227
53.539
53.7918
54.0716
54.3829
54.7335
55.1409
55.6098
56.1394
56.7302
57.3758
58.0643
58.7771
59.4968
60.1979
60.8536
61.4544
62.0021
62.4881
62.9146
63.2825
63.5915
63.8421
64.0453
64.1887
64.3011
64.3737
64.4473
64.5069
64.5519
64.5726
64.5872
64.5732
64.5473
64.4873
64.4146
64.317
64.2255
64.1205
64.0302
63.9319
63.8551
63.7619
63.6848
63.6036
63.5418
63.4669
63.4054
63.3383
63.2985
63.2714
63.2942
63.3307
63.4107
63.4847
63.599
63.7074
63.8506
63.9994
64.1595
64.3154
64.4699
64.611
64.7444
64.8663
64.9818
65.0793
65.1806
65.2763
65.3801
65.4814
65.5886
65.6796
65.7695
65.8408
65.9199
65.9712
66.0453
66.098
66.1872
66.2555
66.3656
66.4537
66.5871
66.6939
66.8279
66.9287
67.0492
67.1237
67.1688
67.1645
67.1596
67.0858
67.0032
66.8472
66.7479
66.5455
66.4578
66.2461
66.1578
65.9493
65.8789
65.6864
65.6865
65.5079
65.5794
65.4163
65.5658
65.4325
65.5932
65.5164
65.6548
65.6217
65.7446
65.74
65.8546
65.7894
65.852
65.5518
65.5275
64.8437
64.6562
63.2617
62.882
60.0923
59.4292
53.8588
51.9596
41.9927
33.0533
21.691
60.4936
60.0411
59.2077
58.2635
57.4828
56.9844
56.7306
56.6035
56.4913
56.317
56.0631
55.7302
55.3472
54.9269
54.4588
53.9906
53.5709
53.2304
52.9943
52.8793
52.9012
53.0532
53.3139
53.6844
54.1665
54.7352
55.3616
56.0155
56.6588
57.2667
57.8322
58.3529
58.8192
59.2265
59.5605
59.8069
59.9942
60.1325
60.2266
60.2873
60.3018
60.2671
60.1725
60.0299
59.8677
59.6758
59.4608
59.2747
59.1154
58.9518
58.7531
58.4929
58.1753
57.803
57.3776
56.9167
56.4288
55.9342
55.4355
54.948
54.5024
54.0825
53.7183
53.4308
53.2122
53.0685
53.0118
53.0544
53.1806
53.3787
53.634
53.9277
54.2471
54.597
54.9866
55.4323
55.9388
56.5056
57.1344
57.8175
58.537
59.2796
60.0258
60.7468
61.4193
62.0359
62.5971
63.0949
63.5315
63.9051
64.2173
64.4666
64.6687
64.8078
64.9202
64.9977
65.0824
65.1483
65.1979
65.2214
65.2405
65.2308
65.2108
65.154
65.0822
64.9785
64.8807
64.7659
64.6662
64.5542
64.4662
64.359
64.2657
64.1651
64.0885
63.9964
63.9197
63.8303
63.7723
63.7203
63.7233
63.7355
63.8014
63.8557
63.9556
64.0442
64.1755
64.3078
64.4638
64.607
64.764
64.8984
65.0385
65.1581
65.2833
65.3816
65.4935
65.584
65.6945
65.788
65.8964
65.9709
66.0585
66.1095
66.1838
66.2159
66.2908
66.3259
66.4206
66.475
66.5932
66.6663
66.8062
66.8961
67.0451
67.1336
67.2737
67.3324
67.3895
67.3736
67.3854
67.2792
67.1962
67.0066
66.9081
66.6769
66.5879
66.3383
66.2342
65.9806
65.8988
65.6554
65.6358
65.3951
65.4585
65.2261
65.3535
65.1713
65.2884
65.1704
65.2654
65.1801
65.2909
65.2045
65.3326
65.1388
65.2491
64.7452
64.8543
63.8373
63.8815
61.9908
61.9477
58.5164
58.1727
52.0607
49.5406
40.4304
30.6051
21.4285
61.436
60.8501
59.5819
58.4725
57.7221
57.3273
57.1794
57.1426
57.1083
57.0064
56.8165
56.5436
56.2126
55.85
55.4538
55.0493
54.6809
54.3832
54.1809
54.0882
54.1181
54.2672
54.5178
54.8632
55.3067
55.833
56.4159
57.0309
57.6455
58.2316
58.7722
59.2622
59.6958
60.0692
60.3716
60.5849
60.7344
60.8323
60.883
60.8934
60.8585
60.7749
60.6318
60.4414
60.2358
59.9988
59.7292
59.4933
59.2962
59.1033
58.8795
58.5999
58.2692
57.8862
57.4518
56.9839
56.4876
55.9832
55.4725
54.9786
54.5318
54.1137
53.7569
53.4746
53.2583
53.121
53.0813
53.152
53.3102
53.544
53.8386
54.1735
54.5337
54.9225
55.3495
55.8311
56.3736
56.9762
57.6407
58.3587
59.1067
59.8759
60.6446
61.3801
62.0642
62.6918
63.2614
63.7668
64.2105
64.5886
64.9046
65.1521
65.3535
65.4894
65.6021
65.6848
65.7795
65.8493
65.9001
65.9234
65.9436
65.9362
65.9212
65.8673
65.7979
65.6893
65.5858
65.462
65.3548
65.2301
65.1314
65.0118
64.9052
64.787
64.6965
64.5884
64.4989
64.389
64.3136
64.2387
64.223
64.2105
64.2601
64.2936
64.3783
64.4465
64.5652
64.6793
64.8291
64.9574
65.1139
65.2387
65.3855
65.4989
65.6343
65.7337
65.857
65.9414
66.0611
66.1448
66.2552
66.3114
66.3993
66.4266
66.4965
66.506
66.5825
66.5963
66.6983
66.7363
66.8682
66.9248
67.0773
67.147
67.3141
67.3839
67.5487
67.5816
67.6631
67.626
67.6616
67.5081
67.4363
67.2007
67.1161
66.8423
66.76
66.4596
66.3506
66.0362
65.9575
65.6486
65.6296
65.3098
65.3792
65.0652
65.1813
64.9254
65.0192
64.8266
64.9156
64.7373
64.8786
64.6541
64.846
64.4445
64.6532
63.8797
64.1321
62.7631
63.0247
60.6673
60.9393
56.9957
56.5937
50.5057
46.627
39.0109
29.135
21.6237
62.1959
61.5401
59.9755
58.7202
57.9619
57.6388
57.5837
57.6331
57.6751
57.6433
57.5151
57.2999
57.022
56.712
56.3807
56.0401
55.7218
55.4643
55.2969
55.2285
55.2698
55.4201
55.6647
55.9936
56.4062
56.8922
57.4308
58.0035
58.5833
59.1424
59.6586
60.1178
60.5153
60.8532
61.1235
61.3049
61.418
61.482
61.4985
61.4688
61.3955
61.2741
61.0902
60.8589
60.6145
60.3396
60.0239
59.7452
59.5153
59.2932
59.0443
58.7498
58.4127
58.0273
57.5943
57.1269
56.6266
56.1134
55.5933
55.0999
54.6574
54.2455
53.8979
53.6211
53.409
53.2793
53.2576
53.3569
53.5464
53.8154
54.1483
54.5233
54.9253
55.3524
55.8141
56.3285
56.9048
57.541
58.2392
58.9891
59.7642
60.5571
61.344
62.0901
62.7828
63.417
63.9897
64.4993
64.9471
65.3276
65.647
65.8935
66.0944
66.228
66.3417
66.4291
66.5312
66.6026
66.651
66.6699
66.6887
66.6808
66.6707
66.6197
66.5539
66.4424
66.3338
66.2028
66.0894
65.9544
65.8457
65.7151
65.598
65.4644
65.3604
65.2378
65.1375
65.0095
64.918
64.8225
64.789
64.752
64.7831
64.7949
64.8638
64.9107
65.0167
65.1114
65.2514
65.3624
65.5149
65.6289
65.7817
65.8883
66.0344
66.134
66.269
66.3471
66.4766
66.5488
66.6604
66.6977
66.7868
66.7907
66.857
66.8415
66.9172
66.9072
67.015
67.0349
67.1812
67.2212
67.391
67.4397
67.6269
67.6743
67.865
67.8663
67.9821
67.9133
67.9773
67.7648
67.7148
67.4207
67.3637
67.0331
66.9658
66.598
66.5036
66.1128
66.0562
65.6575
65.663
65.2421
65.3362
64.9223
65.0408
64.6861
64.7804
64.4813
64.5958
64.2858
64.4826
64.0764
64.3554
63.7062
64.031
62.9541
63.3405
61.6696
62.0872
59.4164
59.6909
55.6263
54.4409
49.0069
43.9578
37.8541
28.6512
22.2875
62.8086
62.1304
60.3978
59.0263
58.2301
57.9403
57.9547
58.08
58.1922
58.2255
58.157
57.9971
57.7712
57.5089
57.2304
56.9476
56.6792
56.4622
56.3291
56.2869
56.3424
56.4977
56.7412
57.0595
57.4482
57.8993
58.3974
58.927
59.4674
59.994
60.4823
60.9107
61.271
61.5715
61.8097
61.9641
62.0455
62.0794
62.0678
62.0077
61.9063
61.7583
61.5438
61.2794
61.0005
60.6936
60.3394
60.0263
59.7686
59.5187
59.2456
58.9413
58.6046
58.2246
57.8016
57.3432
56.8424
56.3215
55.7961
55.3109
54.8782
54.4758
54.1386
53.8679
53.661
53.5413
53.54
53.6674
53.8868
54.1898
54.5586
54.9722
55.4158
55.8795
56.3729
56.9166
57.5236
58.1907
58.9189
59.6979
60.4983
61.3121
62.1134
62.868
63.5669
64.2041
64.7769
65.2869
65.7354
66.1155
66.4375
66.6836
66.8849
67.0167
67.1316
67.2226
67.3287
67.3985
67.442
67.4522
67.4676
67.4586
67.4531
67.4049
67.3428
67.2303
67.1185
66.9824
66.8641
66.7211
66.6034
66.4636
66.338
66.1919
66.0753
65.9391
65.8288
65.6854
65.5803
65.4661
65.4157
65.354
65.3657
65.3552
65.4078
65.4327
65.5246
65.5987
65.7265
65.8175
65.9623
66.0639
66.222
66.3231
66.4794
66.5784
66.7256
66.7982
66.9358
66.9974
67.1102
67.1292
67.216
67.198
67.2605
67.2207
67.2921
67.2586
67.3677
67.3693
67.5254
67.5509
67.7363
67.7679
67.9723
68.001
68.2104
68.1834
68.3323
68.2304
68.3184
68.0421
68.0206
67.6631
67.6347
67.2375
67.1974
66.7499
66.6835
66.1946
66.1758
65.6655
65.7178
65.1758
65.3107
64.785
64.9181
64.4495
64.5647
64.1338
64.2865
63.8198
64.0676
63.4593
63.8073
62.9208
63.3299
62.0221
62.4721
60.6594
60.997
58.3777
58.0529
54.3109
52.0422
47.4084
42.1039
37.2823
29.0128
23.2272
63.2906
62.633
60.8257
59.3796
58.5405
58.251
58.3033
58.4849
58.6586
58.754
58.7455
58.6402
58.4632
58.2448
58.009
57.7743
57.5553
57.3787
57.2778
57.2619
57.3347
57.4963
57.7395
58.0499
58.4198
58.8425
59.3062
59.7964
60.2969
60.7874
61.242
61.6374
61.9611
62.2242
62.4305
62.5624
62.6201
62.63
62.5941
62.5112
62.3888
62.224
61.9907
61.7001
61.3928
61.0561
60.672
60.3328
60.0528
59.7768
59.4821
59.1725
58.8437
58.4767
58.0697
57.626
57.1294
56.6037
56.0786
55.6093
55.1918
54.8013
54.4747
54.211
54.0115
53.904
53.9255
54.0811
54.3289
54.6638
55.0661
55.5156
55.9989
56.4977
57.0191
57.5877
58.2225
58.9166
59.6701
60.474
61.2979
62.1301
62.9425
63.704
64.4072
65.0445
65.6161
66.1232
66.57
66.9454
67.2679
67.5143
67.716
67.8467
67.963
68.0546
68.161
68.2261
68.2634
68.2635
68.2746
68.263
68.2624
68.2166
68.1581
68.0459
67.9333
67.7935
67.673
67.5235
67.3988
67.2511
67.1189
66.9627
66.8345
66.6861
66.5656
66.4103
66.2933
66.1617
66.0954
66.0105
66.0012
65.9685
66.0048
66.0084
66.0839
66.1361
66.249
66.318
66.4511
66.5391
66.7005
66.7982
66.9636
67.0628
67.2215
67.2908
67.4331
67.4848
67.5976
67.6024
67.683
67.6457
67.7012
67.6389
67.7025
67.6491
67.7536
67.7379
67.896
67.9093
68.1046
68.1252
68.3424
68.3591
68.5768
68.5309
68.7028
68.5735
68.6732
68.3395
68.3342
67.9232
67.9107
67.4544
67.4276
66.9013
66.8635
66.2765
66.296
65.6619
65.7685
65.0971
65.2747
64.6254
64.7898
64.1845
64.3565
63.768
63.9775
63.3429
63.6286
62.8697
63.2215
62.2034
62.5692
61.2199
61.5066
59.7924
59.6938
57.3527
56.194
52.8705
50.0004
46.0966
41.0584
37.3033
29.8988
24.271
63.6803
63.0604
61.2448
59.7641
58.8868
58.573
58.6327
58.8519
59.0796
59.2351
59.2867
59.2353
59.1044
58.9258
58.727
58.5325
58.3585
58.2221
58.1514
58.1598
58.2497
58.4183
58.6604
58.9634
59.3182
59.7179
60.151
60.6054
61.0681
61.5202
61.938
62.2991
62.5888
62.8166
62.9938
63.1055
63.145
63.1347
63.08
62.981
62.8451
62.6692
62.4279
62.1191
61.787
61.4233
61.0178
60.6614
60.3659
60.0655
59.753
59.4423
59.1272
58.7799
58.3946
57.9689
57.4804
56.9548
56.4378
55.9909
55.5944
55.218
54.902
54.646
54.4566
54.3651
54.4102
54.5932
54.8686
55.2341
55.667
56.1492
56.6693
57.201
57.7464
58.3358
58.9943
59.7108
60.4839
61.3077
62.152
62.9997
63.8204
64.5873
65.2928
65.9291
66.4995
67.0012
67.444
67.8103
68.1305
68.3766
68.5776
68.7072
68.8243
68.9134
69.0176
69.0754
69.1066
69.0966
69.1043
69.0893
69.0934
69.0487
68.9941
68.8819
68.7711
68.6283
68.5088
68.354
68.227
68.0711
67.9343
67.7702
67.6316
67.4719
67.3422
67.1773
67.0502
66.9006
66.8189
66.7128
66.6834
66.6279
66.6479
66.6304
66.689
66.719
66.8139
66.8593
66.978
67.0502
67.2122
67.3076
67.4816
67.5816
67.7516
67.8199
67.9655
68.0086
68.1198
68.1128
68.1834
68.1293
68.1746
68.0923
68.1454
68.075
68.1711
68.1387
68.2906
68.2922
68.49
68.5043
68.7294
68.7398
68.9585
68.9024
69.0857
68.9382
69.0365
68.6565
68.6512
68.202
68.1805
67.6878
67.6588
67.0684
67.0262
66.3724
66.3969
65.6737
65.7794
65.0312
65.1768
64.4657
64.5997
63.9191
64.0918
63.4134
63.6167
62.8805
63.1438
62.3035
62.5813
61.4917
61.726
60.3912
60.4126
58.8225
58.2839
56.0923
54.5202
51.5156
48.5677
45.4487
40.775
37.7303
30.9771
25.318
63.9943
63.4225
61.6476
60.1641
59.2573
58.9071
58.9554
59.1968
59.4684
59.6781
59.7856
59.7861
59.6998
59.5585
59.3934
59.2322
59.0956
58.9968
58.955
58.9849
59.0907
59.2675
59.5091
59.8051
60.1461
60.5252
60.9304
61.3499
61.774
62.1859
62.5649
62.8925
63.1535
63.3512
63.5022
63.5959
63.6221
63.5957
63.5277
63.4168
63.2724
63.091
62.8501
62.5346
62.1804
61.7927
61.3728
61.0102
60.7035
60.3823
60.0562
59.7491
59.4515
59.1267
58.7685
58.3659
57.8894
57.3697
56.8683
56.4503
56.0787
55.7186
55.4153
55.1703
54.9935
54.9196
54.989
55.1982
55.5008
55.8954
56.3561
56.8679
57.4213
57.9821
58.5482
59.1551
59.8324
60.5664
61.3533
62.1914
63.0517
63.9105
64.7367
65.5069
66.2131
66.8474
67.4176
67.9121
68.3497
68.7031
69.0184
69.2624
69.459
69.5861
69.7035
69.7861
69.8886
69.9367
69.9628
69.9434
69.9501
69.93
69.9415
69.8953
69.8456
69.7302
69.624
69.4783
69.3635
69.2036
69.08
68.9161
68.7779
68.607
68.4602
68.2901
68.1522
67.9792
67.8427
67.6746
67.5782
67.4527
67.4051
67.3261
67.3298
67.2916
67.3326
67.3405
67.4164
67.4377
67.5405
67.5954
67.754
67.8468
68.0302
68.1328
68.313
68.3807
68.5295
68.5636
68.6737
68.6575
68.7153
68.645
68.6769
68.577
68.6183
68.5319
68.6173
68.5683
68.7087
68.6985
68.8923
68.9012
69.1296
69.1356
69.352
69.2908
69.4781
69.3177
69.4079
68.9866
68.9672
68.4911
68.4468
67.9313
67.8887
67.2606
67.1904
66.4991
66.4996
65.7316
65.795
65.0227
65.085
64.3577
64.4168
63.7166
63.8242
63.1128
63.2336
62.4476
62.6124
61.7058
61.85
60.6808
60.7719
59.3777
59.2067
57.5782
56.8615
54.728
53.1194
50.5027
47.7542
45.3871
41.0429
38.3036
32.0402
26.3527
64.2424
63.7254
62.0368
60.5766
59.649
59.2553
59.2784
59.5279
59.8324
60.088
60.2464
60.2964
60.2537
60.1487
60.0152
59.8828
59.7757
59.7082
59.6928
59.7424
59.8621
60.0468
60.2885
60.5783
60.9063
61.2651
61.6437
62.0296
62.4138
62.783
63.1214
63.4164
63.6514
63.8258
63.9546
64.031
64.0475
64.0125
63.9358
63.8185
63.6685
63.4869
63.2535
62.9421
62.5725
62.1623
61.7347
61.3744
61.0597
60.7238
60.3881
60.0878
59.8106
59.5097
59.1814
58.8072
58.3499
57.8436
57.3649
56.9817
56.6384
56.2955
56.0085
55.7794
55.6185
55.5629
55.6549
55.8887
56.2189
56.6405
57.1266
57.6659
58.2478
58.8325
59.4171
60.039
60.7304
61.4768
62.2712
63.1184
63.989
64.8535
65.6817
66.4526
67.158
67.7887
68.359
68.8449
69.2787
69.6157
69.9242