/*--------------------------------*- C++ -*----------------------------------*\
| =========                 |                                                 |
| \\      /  F ield         | OpenFOAM: The Open Source CFD Toolbox           |
|  \\    /   O peration     | Version:  2.4.0                                 |
|   \\  /    A nd           | Web:      www.OpenFOAM.org                      |
|    \\/     M anipulation  |                                                 |
\*---------------------------------------------------------------------------*/
FoamFile
{
    version     2.0;
    format      ascii;
    class       volScalarField;
    location    "0.165";
    object      nuSgs;
}
// * * * * * * * * * * * * * * * * * * * * * * * * * * * * * * * * * * * * * //

dimensions      [0 2 -1 0 0 0 0];

internalField   nonuniform List<scalar> 
4400
(
0.00205245
0.00193559
0.00169721
0.00153091
0.00142786
0.0013713
0.00132998
0.00129719
0.00128673
0.00128886
0.00139637
0.00172701
0.00172501
0.00167062
0.00158317
0.00152517
0.0014789
0.00144071
0.00142707
0.00140642
0.000722219
0.00117974
0.0013631
0.0014183
0.00140498
0.00137657
0.0013503
0.00131907
0.00130996
0.00128146
0.000270417
0.000645809
0.000862201
0.00101819
0.00108376
0.00111138
0.00112578
0.00112012
0.00112133
0.00110797
8.77726e-05
0.000272338
0.00040355
0.000586422
0.000692315
0.000758931
0.000825723
0.000851982
0.000874807
0.00088261
2.56335e-05
9.03675e-05
0.000147564
0.000247706
0.000341041
0.000395789
0.00048578
0.00054163
0.000570832
0.000618158
7.8597e-06
2.71738e-05
4.28097e-05
7.47867e-05
0.000123617
0.000151264
0.000197234
0.000264433
0.000288169
0.000345609
4.23228e-06
1.10541e-05
1.3249e-05
1.98597e-05
3.36147e-05
4.11664e-05
5.58212e-05
8.99947e-05
0.000103082
0.000136432
3.85013e-06
8.45588e-06
8.82143e-06
9.5969e-06
1.14304e-05
1.21349e-05
1.46499e-05
2.33874e-05
2.5497e-05
3.21255e-05
3.83209e-06
7.6445e-06
8.63015e-06
9.38706e-06
9.7436e-06
9.75904e-06
9.949e-06
1.05017e-05
1.07056e-05
1.12163e-05
3.79784e-06
7.64314e-06
9.39379e-06
9.45289e-06
9.44378e-06
9.7357e-06
1.01751e-05
1.04374e-05
1.10744e-05
1.42394e-05
3.83183e-06
7.92287e-06
9.57962e-06
9.87204e-06
1.07902e-05
1.44139e-05
1.65734e-05
2.03893e-05
2.77527e-05
5.1437e-05
4.19793e-06
9.66255e-06
1.47438e-05
1.97599e-05
2.88122e-05
4.92629e-05
6.16303e-05
8.28394e-05
0.000107661
0.000172145
7.73832e-06
2.57693e-05
4.72934e-05
7.25161e-05
0.000109071
0.000173496
0.000204496
0.000259801
0.000300222
0.00039913
2.53204e-05
8.63146e-05
0.000164825
0.000233313
0.000327865
0.000430953
0.000475114
0.000545238
0.000587113
0.000676152
8.67799e-05
0.000257411
0.000439452
0.000564314
0.000696052
0.000772687
0.000819267
0.000859022
0.000885424
0.000931993
0.000267355
0.000644593
0.000874184
0.00100623
0.00109149
0.00111188
0.00112617
0.00112529
0.00112814
0.00113653
0.000715151
0.00118411
0.00136636
0.00141371
0.00140781
0.00137227
0.00135388
0.00131873
0.00130857
0.00129085
0.00139356
0.00173117
0.00172513
0.00166661
0.00159025
0.0015122
0.00148302
0.00143099
0.00141329
0.00136511
0.0020509
0.00193922
0.00169437
0.001529
0.00143292
0.00135781
0.00132924
0.00127906
0.0012568
0.00117577
0.000501815
0.00040945
0.000392859
0.00039307
0.000376138
0.000360325
0.00036021
0.000359613
0.000349211
0.000352788
0.000343984
0.00035311
0.000351322
0.000330557
0.000292456
0.00027442
0.000257549
0.000242712
0.000233168
0.000233824
0.000240909
0.000254193
0.000254313
0.000249758
0.000236758
0.000202133
0.000136867
9.72423e-05
8.18589e-05
8.22726e-05
8.58724e-05
9.54215e-05
0.000108782
0.000113474
0.00011386
0.000113695
0.00011444
0.0001206
0.000146225
0.000174041
0.000180158
0.000177941
0.000163449
0.000150909
0.000145714
0.000144455
0.00014563
0.000146277
0.000143327
0.000132499
0.000129818
0.000135516
0.000146845
0.000148546
0.00014984
0.000157243
0.000157797
0.000146426
0.00011723
9.6248e-05
9.05253e-05
9.06388e-05
9.35291e-05
9.84881e-05
0.00011617
0.0001341
0.000151856
0.000199101
0.000211701
0.000200769
0.000170472
0.000138005
0.000115372
0.000108377
0.000109155
0.000112762
0.000120038
0.000126622
0.00013685
0.000145713
0.000151156
0.000162015
0.000179302
0.000180882
0.000176405
0.000133556
0.000127667
0.000115397
0.000107925
9.60232e-05
9.61187e-05
9.59842e-05
0.000100178
0.000108758
0.000132411
0.000137834
0.000152771
0.000167281
0.000258874
0.000295507
0.000663928
0.000578914
0.000506933
0.000472927
0.000458485
0.000418626
0.000402294
0.000386786
0.000356521
0.000350552
0.000340726
0.00034544
0.000359185
0.000363283
0.000353162
0.000323729
0.000281854
0.000265597
0.000261756
0.000263216
0.000264326
0.000262461
0.000256117
0.00023861
0.000193505
0.000131012
9.27084e-05
7.7777e-05
7.78259e-05
8.36026e-05
9.94763e-05
0.000122141
0.00013359
0.000133253
0.000130522
0.000128331
0.000128778
0.000138065
0.00016982
0.000181492
0.000181811
0.000172857
0.000148873
0.000136887
0.000134186
0.000134915
0.000136587
0.000140008
0.000140445
0.000133587
0.000130043
0.000134111
0.000145498
0.000146257
0.000147412
0.000154781
0.000155137
0.00014647
0.00011971
0.000100258
9.51507e-05
9.56574e-05
9.83811e-05
0.000103123
0.000121144
0.000137395
0.00016033
0.000211259
0.000214613
0.000184739
0.000140824
0.000120002
0.000102426
9.71383e-05
9.79057e-05
0.00010449
0.000112967
0.000122914
0.000133206
0.000141969
0.000146592
0.000158277
0.000176454
0.000178235
0.000176415
0.000141243
0.00012166
0.000114329
0.000105331
9.45778e-05
9.28043e-05
9.30587e-05
9.59527e-05
0.000101927
0.000122981
0.000129685
0.00013582
0.000148161
0.000181808
0.000272797
0.000635431
0.000587199
0.000533251
0.000484374
0.000471427
0.000443978
0.000413719
0.00039841
0.000361741
0.000328829
0.000307198
0.00029999
0.000309437
0.000339668
0.000347861
0.000348322
0.000332989
0.000315276
0.000298312
0.000286164
0.000273665
0.000257006
0.000235708
0.000180163
0.000121659
8.6396e-05
7.34496e-05
7.40236e-05
8.14833e-05
0.000105058
0.000138121
0.00015756
0.000160125
0.000157564
0.000150077
0.000145522
0.00014724
0.000166158
0.000183221
0.000183472
0.000180878
0.000164372
0.000144414
0.000130534
0.0001274
0.000128517
0.000130226
0.000133715
0.000135675
0.000132558
0.000129923
0.000132542
0.000143758
0.000144537
0.000145082
0.000152983
0.000153916
0.000146789
0.000121912
0.000105995
0.000101134
0.000101825
0.000103754
0.000108101
0.000126821
0.000143068
0.000171655
0.000224668
0.00022038
0.000164403
0.000115727
0.000101401
9.25596e-05
9.10946e-05
9.23492e-05
9.9468e-05
0.000107701
0.000120882
0.00012763
0.000140321
0.000145537
0.000155907
0.000174292
0.00017567
0.00017525
0.000145587
0.00011922
0.00011519
0.000103856
9.33834e-05
9.30957e-05
9.406e-05
9.7484e-05
0.000102859
0.000120789
0.00013034
0.000131591
0.000136074
0.00014372
0.000214028
0.000563625
0.00051967
0.000481583
0.000440601
0.000420087
0.000417
0.000398882
0.000381668
0.000357617
0.000316636
0.000279193
0.000250736
0.000247991
0.000260398
0.000292735
0.000316392
0.000316934
0.000311449
0.000294195
0.000276305
0.000252384
0.000218329
0.000160306
0.000109973
7.92909e-05
6.87664e-05
7.03035e-05
8.07672e-05
0.000108643
0.000157009
0.000186103
0.000192088
0.000190572
0.000183816
0.000168605
0.000164661
0.000169355
0.000186439
0.000187343
0.000182406
0.000177118
0.000161204
0.000143177
0.000127756
0.000122763
0.000124293
0.000125888
0.000129398
0.000131154
0.000130024
0.000129489
0.00013148
0.000141517
0.000143057
0.000142564
0.000150108
0.000151736
0.00014742
0.000126875
0.00011416
0.000108491
0.000108721
0.000109489
0.000113414
0.000131803
0.000150192
0.000188402
0.000237042
0.000225026
0.000156757
0.000106386
8.90447e-05
8.5893e-05
8.45148e-05
8.48132e-05
9.12167e-05
0.000104587
0.000117069
0.000123993
0.000138921
0.000144627
0.000152525
0.000173009
0.000174758
0.000177648
0.000153813
0.000122399
0.000111133
0.000100347
9.52832e-05
9.67926e-05
9.75484e-05
0.000100321
0.000106371
0.000119168
0.000132552
0.000133911
0.000137372
0.000137543
0.000172606
0.000462284
0.000434638
0.00039555
0.000355583
0.000325778
0.000328626
0.000329435
0.00032723
0.00031959
0.000294015
0.000253766
0.000209093
0.000184095
0.00018607
0.000197972
0.000232381
0.000256373
0.000254412
0.000241572
0.00022601
0.000190588
0.000140887
9.8404e-05
7.16544e-05
6.38645e-05
6.62204e-05
8.10192e-05
0.000114709
0.000171363
0.00021971
0.000231221
0.000229413
0.000223412
0.000206202
0.000187573
0.000185337
0.00019071
0.000193925
0.000188981
0.000177439
0.000175404
0.000160644
0.000142903
0.000125127
0.000118384
0.000119456
0.000123247
0.000127036
0.000128024
0.000127607
0.00012822
0.000131041
0.00013963
0.000141304
0.000140246
0.000144172
0.000148641
0.000147521
0.000137173
0.000127176
0.00011781
0.000115469
0.000115486
0.000118989
0.000135849
0.000156827
0.000205075
0.00024254
0.000227552
0.000154337
0.000102491
8.25196e-05
7.90436e-05
7.95506e-05
8.00529e-05
8.51356e-05
9.65803e-05
0.00011135
0.000122016
0.000139072
0.000144371
0.000152287
0.000175426
0.000176186
0.000182044
0.000163042
0.000130666
0.000108592
0.000101572
9.73684e-05
0.000100818
0.000101501
0.000104078
0.00011231
0.000120447
0.000138699
0.000139348
0.000137002
0.000137245
0.000153747
0.000331498
0.000316737
0.000281615
0.000239718
0.000204116
0.000206417
0.000221338
0.00023083
0.000234666
0.000228765
0.000201403
0.000155781
0.000117018
0.000111591
0.000113824
0.000125881
0.000163292
0.000165513
0.00016038
0.00014661
0.000116535
8.44165e-05
6.29987e-05
5.84799e-05
6.17654e-05
7.98238e-05
0.000122125
0.000184348
0.000247029
0.000272198
0.000272031
0.000266954
0.000254849
0.00022178
0.00020354
0.000200685
0.000200537
0.000196922
0.000180172
0.000176252
0.000175376
0.000158238
0.000142069
0.000123976
0.000115383
0.000115561
0.000120888
0.000125041
0.000126079
0.000125515
0.000126581
0.000131358
0.000139487
0.000141167
0.000139122
0.000139915
0.000145982
0.00014697
0.000143143
0.000138895
0.000126792
0.000121525
0.000121065
0.000124457
0.000139669
0.000162052
0.000214979
0.000246389
0.00023197
0.000155126
0.000101272
8.07948e-05
7.48824e-05
7.62475e-05
7.81721e-05
8.66737e-05
9.3843e-05
0.000110653
0.000120888
0.000139673
0.000144951
0.000153629
0.00017568
0.000179411
0.000180144
0.00016675
0.000139886
0.000109606
0.000107359
0.000103856
0.000104091
0.000105562
0.000106174
0.000115632
0.000131623
0.000136605
0.000147766
0.000138888
0.000139711
0.0001524
0.000188234
0.000177102
0.000149566
0.000124817
0.000103195
0.000104296
0.000119145
0.000141906
0.000152634
0.000147697
0.000122192
9.21977e-05
6.61843e-05
5.74812e-05
5.68859e-05
5.89906e-05
7.88423e-05
9.49159e-05
9.47107e-05
8.84514e-05
6.92083e-05
5.35216e-05
5.27561e-05
5.73072e-05
7.81553e-05
0.000125283
0.000201305
0.000269589
0.000297005
0.000300088
0.000292256
0.000284194
0.000268301
0.000234126
0.00021889
0.00021333
0.000210057
0.000194141
0.00017592
0.000177167
0.000175622
0.000154746
0.000141336
0.000123818
0.000114243
0.000113115
0.000117925
0.00012322
0.000125477
0.00012395
0.000125447
0.00013271
0.000140351
0.000141847
0.000138509
0.000138122
0.000142854
0.000144909
0.000143923
0.000142709
0.00013197
0.000126369
0.000126331
0.000130029
0.00014683
0.00016889
0.000220468
0.000252766
0.000242575
0.000161839
0.000101405
8.12854e-05
7.37692e-05
7.29575e-05
7.53235e-05
8.7708e-05
9.4978e-05
0.000111502
0.000121295
0.000142034
0.000147857
0.000157304
0.000176699
0.00017807
0.000179934
0.000168151
0.000148404
0.000116355
0.000115843
0.000109763
0.000106119
0.000106202
0.000106449
0.000108816
0.000133354
0.000135731
0.000147404
0.000144126
0.000143431
0.000153176
7.37939e-05
6.77041e-05
5.51929e-05
4.70463e-05
4.09262e-05
4.20633e-05
5.83605e-05
7.96049e-05
8.72047e-05
8.29134e-05
6.34737e-05
4.75986e-05
3.62263e-05
3.05008e-05
2.98111e-05
3.16241e-05
4.78015e-05
5.82558e-05
5.72843e-05
5.05025e-05
4.43424e-05
4.56717e-05
5.3966e-05
7.9077e-05
0.000128334
0.000208462
0.000290677
0.000311757
0.000315163
0.000309802
0.000294808
0.000286726
0.000267686
0.00023797
0.000228898
0.000224704
0.000216787
0.000187698
0.000175498
0.000178157
0.000173464
0.000153634
0.000141516
0.000127397
0.000117197
0.000113269
0.000117676
0.000121591
0.000124774
0.000122958
0.000124994
0.000135435
0.000143354
0.00014437
0.000139197
0.000137825
0.000139631
0.000140831
0.000143126
0.000142371
0.000134475
0.000131165
0.000131543
0.000135603
0.000155667
0.000177234
0.000224132
0.000261843
0.000256702
0.000171024
0.000104259
8.70821e-05
7.61556e-05
7.2112e-05
7.38911e-05
8.55528e-05
9.455e-05
0.000112796
0.000122356
0.000147084
0.000153243
0.000163843
0.000182134
0.000179371
0.000178452
0.000168154
0.00015112
0.000125515
0.000121274
0.000111765
0.00010804
0.000106075
0.000109318
0.000112103
0.000129982
0.000136399
0.000139672
0.000143624
0.000147903
0.000162349
1.72738e-05
1.65494e-05
1.51808e-05
1.47767e-05
1.46374e-05
1.53005e-05
2.48427e-05
3.47106e-05
3.74378e-05
3.39035e-05
2.75968e-05
2.62745e-05
2.59042e-05
2.41784e-05
2.30136e-05
2.31419e-05
2.56737e-05
3.01977e-05
3.21278e-05
3.47003e-05
4.04029e-05
5.4277e-05
8.28602e-05
0.000133673
0.000214023
0.000300036
0.000324117
0.000325094
0.000320851
0.000307507
0.000291782
0.000282632
0.000257188
0.000233725
0.000231553
0.000229149
0.000215761
0.000184325
0.00017922
0.000177072
0.000166772
0.000155436
0.000142816
0.000132636
0.000123606
0.000114613
0.000118675
0.000121298
0.000124992
0.000123098
0.000125114
0.00014028
0.000151226
0.000151979
0.000142557
0.000137998
0.000138338
0.000139265
0.000142561
0.000142069
0.00013904
0.000136972
0.000137092
0.000141459
0.000165191
0.000185554
0.000224824
0.000274121
0.000269486
0.000171582
0.000108388
0.000100093
8.93852e-05
7.30033e-05
7.43429e-05
8.57563e-05
9.3839e-05
0.000114438
0.000123951
0.000160204
0.000171233
0.000166576
0.000192654
0.000184706
0.000178862
0.000167775
0.000153341
0.000128091
0.00012454
0.000114485
0.000112668
0.000109454
0.000113804
0.000118289
0.000135021
0.000146499
0.000154163
0.000155989
0.000168423
0.000182076
6.44601e-06
7.26286e-06
8.33015e-06
8.6605e-06
9.31986e-06
1.01101e-05
1.22067e-05
1.43691e-05
1.51153e-05
1.59347e-05
1.998e-05
2.68577e-05
2.98939e-05
3.0014e-05
2.80512e-05
2.70954e-05
2.76514e-05
2.98853e-05
3.53909e-05
4.65384e-05
6.47848e-05
9.32748e-05
0.000141183
0.000221848
0.000306769
0.000332196
0.000333194
0.000328208
0.00031443
0.000290672
0.000278857
0.000268362
0.000238765
0.000228196
0.000234796
0.000233106
0.000213236
0.000191445
0.000183004
0.000171762
0.000163498
0.00015897
0.000144097
0.000134789
0.000126519
0.000116431
0.000121374
0.000121779
0.000125457
0.000123792
0.000125429
0.000149617
0.000158285
0.000157664
0.000145217
0.000138339
0.000138302
0.000139369
0.000143285
0.000144403
0.000146301
0.000144181
0.000142558
0.000148164
0.000175883
0.000193343
0.000222775
0.000289234
0.000278867
0.000164236
0.000111846
0.000103221
9.57713e-05
7.99355e-05
8.06091e-05
8.89859e-05
9.58683e-05
0.000115822
0.00012623
0.000217267
0.000266234
0.000190328
0.000223688
0.000194308
0.000181543
0.00016843
0.000159808
0.000132678
0.000130415
0.000121766
0.000121392
0.00011808
0.000119758
0.000126443
0.000140026
0.000167871
0.000183443
0.000200315
0.0002088
0.000212755
8.85698e-06
9.90486e-06
1.3546e-05
1.62685e-05
1.89274e-05
2.01449e-05
1.92502e-05
1.96207e-05
2.17013e-05
2.66687e-05
4.15315e-05
5.27054e-05
5.61277e-05
5.62781e-05
5.46427e-05
5.42432e-05
5.52805e-05
5.90095e-05
6.86506e-05
8.84955e-05
0.000113387
0.000153271
0.000226739
0.000312946
0.000338688
0.000339723
0.000333676
0.000313601
0.000285424
0.000268073
0.000262881
0.000251973
0.000225883
0.000226295
0.000237901
0.000233273
0.000215234
0.000201673
0.000182757
0.000166613
0.000162015
0.000159004
0.000143805
0.000134413
0.000126975
0.000120035
0.000124949
0.0001222
0.00012802
0.000125444
0.000126556
0.000156102
0.0001617
0.00015825
0.000146634
0.00013883
0.000138711
0.000140415
0.000146736
0.000151961
0.000153326
0.000148663
0.000147137
0.000157152
0.000188882
0.000200666
0.000220925
0.000301583
0.000284366
0.000158827
0.00011503
0.000101589
9.19822e-05
9.78298e-05
8.77758e-05
9.73682e-05
9.96306e-05
0.000117114
0.000130204
0.000216443
0.00048454
0.000280385
0.000297764
0.000220085
0.000193126
0.000174276
0.000171392
0.000142813
0.00014343
0.00013462
0.00013147
0.000128072
0.000129892
0.000140141
0.000155941
0.000204711
0.00021279
0.000229835
0.000226551
0.000222949
3.1234e-05
3.30317e-05
4.04836e-05
4.72251e-05
5.03012e-05
5.39679e-05
5.34351e-05
5.45288e-05
5.91843e-05
6.82774e-05
8.93305e-05
9.92757e-05
0.000100882
0.000100568
9.77766e-05
9.76574e-05
9.99192e-05
0.000106668
0.000123089
0.000143968
0.000176639
0.000236696
0.000317389
0.000344385
0.000345317
0.000337559
0.000311194
0.000277621
0.000261672
0.000252775
0.000248303
0.000234694
0.000217449
0.000225388
0.000235762
0.000230418
0.000225945
0.000202374
0.000177589
0.000165215
0.000161074
0.000157869
0.00014377
0.000134698
0.000132161
0.000127582
0.000128435
0.000124243
0.000131223
0.000129067
0.000129508
0.000161273
0.000163613
0.000154356
0.000146374
0.000139774
0.000140147
0.000142883
0.000155141
0.000159475
0.000158882
0.000151591
0.000152385
0.000173387
0.000201746
0.000205991
0.000218773
0.000305707
0.000286627
0.000158748
0.000121426
0.000101615
9.14514e-05
0.000100572
8.95602e-05
0.000107191
0.000105155
0.000122858
0.000134147
0.000186216
0.000290455
0.000271843
0.00029019
0.000245144
0.00022259
0.000182645
0.000181973
0.000157324
0.000158875
0.000149434
0.000142335
0.000140928
0.000142229
0.000156647
0.000167787
0.000210303
0.000216054
0.000223992
0.000216046
0.000210077
9.94796e-05
0.000101046
0.000109299
0.000116965
0.000118734
0.000122885
0.000122847
0.000124389
0.000130231
0.000144077
0.00015969
0.000164758
0.000164517
0.000162189
0.000158676
0.000159075
0.000162293
0.00017114
0.000185261
0.000210061
0.000258853
0.000323286
0.000348142
0.000349922
0.000340235
0.000309696
0.000276354
0.000259464
0.000249592
0.000237685
0.00022594
0.000211787
0.000208931
0.000223643
0.000227361
0.000229513
0.000226031
0.000198501
0.000180121
0.000171945
0.000160814
0.000154701
0.000146765
0.000140026
0.000138187
0.000133304
0.00013062
0.000127861
0.000136195
0.000138819
0.000135959
0.000165452
0.000164344
0.000147565
0.000144915
0.00014097
0.000141827
0.000148887
0.000164558
0.000166037
0.000160908
0.000155606
0.000162317
0.000197308
0.000214241
0.000209274
0.000215746
0.000305791
0.000294696
0.000175775
0.000139866
0.00011802
0.000102175
0.000100017
9.50001e-05
0.000109783
0.000121421
0.000142017
0.000167821
0.000179919
0.000204861
0.00025509
0.000214829
0.000249088
0.000244986
0.000200291
0.000202807
0.00017388
0.000172498
0.000160461
0.00015067
0.000150363
0.000152929
0.000168089
0.000180248
0.000208362
0.000211573
0.000207828
0.000202579
0.000198116
0.000218472
0.000217444
0.000221149
0.000222538
0.000219906
0.000219134
0.000216455
0.000216665
0.000221029
0.000231863
0.000238425
0.000239099
0.000237593
0.000231544
0.000225293
0.000225149
0.000227312
0.000234014
0.000249719
0.000287352
0.000329958
0.000349972
0.000352093
0.000340917
0.000305448
0.000275219
0.000258951
0.000242538
0.0002222
0.000206473
0.000198492
0.000193689
0.000199372
0.000219186
0.000217814
0.000225788
0.00022437
0.000212587
0.000204536
0.000189899
0.000163635
0.000153286
0.000150099
0.000147458
0.000144908
0.000140228
0.000137747
0.000137026
0.000144199
0.000166932
0.000154013
0.000171075
0.000163866
0.000143619
0.000140795
0.000140925
0.000144284
0.000163727
0.000171566
0.000168922
0.000160614
0.00016234
0.000187547
0.000226384
0.000227681
0.000208656
0.000210687
0.000302421
0.000320476
0.000200836
0.000166753
0.000147337
0.000118146
0.000112246
0.000109047
0.000117245
0.000147733
0.000196571
0.000290857
0.000196089
0.000211163
0.000235297
0.000198401
0.000252563
0.000252456
0.000209992
0.00021659
0.000198986
0.000186918
0.000167394
0.000161137
0.000162263
0.000173581
0.000187373
0.0002168
0.000227928
0.000234626
0.000231848
0.000240135
0.000239662
0.00036197
0.000348911
0.00034376
0.000337315
0.000321909
0.000313049
0.000304537
0.000302989
0.000305897
0.000307499
0.00030704
0.000304753
0.000296472
0.000283638
0.000278583
0.000278663
0.000281325
0.000290375
0.000316249
0.000339648
0.000351525
0.00035069
0.000337007
0.000296223
0.000269361
0.000257472
0.000240569
0.000216577
0.000196321
0.000184793
0.000180806
0.000181756
0.000194128
0.000210431
0.00021017
0.000232052
0.000248792
0.000253398
0.000239739
0.000212953
0.000173726
0.000156147
0.000152843
0.000152465
0.000151976
0.000151014
0.000155389
0.000156175
0.000149816
0.000184421
0.000188719
0.000176276
0.000157181
0.000141702
0.000139947
0.000141702
0.000152861
0.000173341
0.000174009
0.000167107
0.000165948
0.000180747
0.00023714
0.000255822
0.000241625
0.000199388
0.000199016
0.000289577
0.000355331
0.000241032
0.000202317
0.000182615
0.000136747
0.000131994
0.000141941
0.000137475
0.000172374
0.000230137
0.000338262
0.000198441
0.000225921
0.000224328
0.000204878
0.000249626
0.000247013
0.00021219
0.00021546
0.000211842
0.000192071
0.000178634
0.000178403
0.000185512
0.000209818
0.000227553
0.000275171
0.000295451
0.000315679
0.000318516
0.000324379
0.000312662
0.000488643
0.000461104
0.000442332
0.000419955
0.000395614
0.000382915
0.000370502
0.000365438
0.000364007
0.000359192
0.000349534
0.00034036
0.00032851
0.000321039
0.000320016
0.00032132
0.000327559
0.000339639
0.000349299
0.000352928
0.000347988
0.000325048
0.000280414
0.00025693
0.000244561
0.000236553
0.000224852
0.000206291
0.000188682
0.000177936
0.000174661
0.000176581
0.000186763
0.000200937
0.000205673
0.000241861
0.000285148
0.000305813
0.000287326
0.000259375
0.000211017
0.000173142
0.000159809
0.000156973
0.000158499
0.000159384
0.000165156
0.000170076
0.000165091
0.000187917
0.000200995
0.000172531
0.000148888
0.000143182
0.00014218
0.000145622
0.000166379
0.000175868
0.000173619
0.000172025
0.000182545
0.000242124
0.000292781
0.000282872
0.000236263
0.00018512
0.000183261
0.000264155
0.000374443
0.000298984
0.000249048
0.000223582
0.000163558
0.000154546
0.000172709
0.000180723
0.000180627
0.000230377
0.00028396
0.000201736
0.00022761
0.000231119
0.000220471
0.000224649
0.000225358
0.000212321
0.000210066
0.000211346
0.000197625
0.000202176
0.000215557
0.000229816
0.000270156
0.000312976
0.000400989
0.00042771
0.000425995
0.000415921
0.000392443
0.000335729
0.000584268
0.000539742
0.000501023
0.000465133
0.000439314
0.000422678
0.000407973
0.000400794
0.000393258
0.000381155
0.000372982
0.000364469
0.000356271
0.00035415
0.000354399
0.000355699
0.00035647
0.000356331
0.000353131
0.000338715
0.000298534
0.000259656
0.000232984
0.00022275
0.00022578
0.000225227
0.000215848
0.000201166
0.000187361
0.000174619
0.00017018
0.000170625
0.000181913
0.00019512
0.000201242
0.000235523
0.000294669
0.000337651
0.000355538
0.000338132
0.000293584
0.000227414
0.000188088
0.000170759
0.000164748
0.000164653
0.000169305
0.000181431
0.000185318
0.000181696
0.00019015
0.000168725
0.000148706
0.000150875
0.000154238
0.000166757
0.000178902
0.000179824
0.000180452
0.000194252
0.000249437
0.000339838
0.000333577
0.000286199
0.000208117
0.000163967
0.000161605
0.00022058
0.000371717
0.000371558
0.000311646
0.000279871
0.000208759
0.000195985
0.000187049
0.000199479
0.00019348
0.000220116
0.000316656
0.000226547
0.000242592
0.000237432
0.00022838
0.000220346
0.000237254
0.000229394
0.000238879
0.000238985
0.00023991
0.000249276
0.000268257
0.000309813
0.000421812
0.000515784
0.000524947
0.000509221
0.000475422
0.000418111
0.000366234
0.000308916
0.000639935
0.000570108
0.000517803
0.000479469
0.000455915
0.000438497
0.000425479
0.000416662
0.000406121
0.000397247
0.000390963
0.000383314
0.000377456
0.000375181
0.000371246
0.000365173
0.00035665
0.000338061
0.00030407
0.000263236
0.000228315
0.000198998
0.000189672
0.000205331
0.000219136
0.000221538
0.000208221
0.000185887
0.000172341
0.000167285
0.000167262
0.000174703
0.000189219
0.000201774
0.000203716
0.000208644
0.000246785
0.000336387
0.00038533
0.000410477
0.000413881
0.000361297
0.000282399
0.000235389
0.000199339
0.000179094
0.000175356
0.000183315
0.000192673
0.000178603
0.000180921
0.000173426
0.000165031
0.000175311
0.000185931
0.000193539
0.000197237
0.00020432
0.000231487
0.000314165
0.00039816
0.000395441
0.000343719
0.000250347
0.000181567
0.000154854
0.000153533
0.00018089
0.000319276
0.000393487
0.000357124
0.000343125
0.000287903
0.000288343
0.000249148
0.000267547
0.000225555
0.000231429
0.000318802
0.000265018
0.000290557
0.000252191
0.000255987
0.000258013
0.000287318
0.000283199
0.00029024
0.000295981
0.000304266
0.000347922
0.000438806
0.000589965
0.000645777
0.000626068
0.000572577
0.000494899
0.000428868
0.000348659
0.000300276
0.00025491
0.000640227
0.000557725
0.000507261
0.000476995
0.000458519
0.000443744
0.000432386
0.000421566
0.000409917
0.000401033
0.000392432
0.00038368
0.00037572
0.000365795
0.000351159
0.000330117
0.000300328
0.000262627
0.00022128
0.000183541
0.000161652
0.000157094
0.000168046
0.000201837
0.000247381
0.000272437
0.000274799
0.000244868
0.000209886
0.00019078
0.000187049
0.000198358
0.0002135
0.000219005
0.000213575
0.000214856
0.000220895
0.000249068
0.000339702
0.00042401
0.000472577
0.000492354
0.000496803
0.000456609
0.000409472
0.000304864
0.000224204
0.000218467
0.000218935
0.000198349
0.00019478
0.000214279
0.00021714
0.000228171
0.000249552
0.000272119
0.000305286
0.000369247
0.000477758
0.000495671
0.000476434
0.000393828
0.000301886
0.000247705
0.000216548
0.000218293
0.000228344
0.00024537
0.000281637
0.000367647
0.000360076
0.000363818
0.000356635
0.000326861
0.000285179
0.000272965
0.000310753
0.000369522
0.00036482
0.000312745
0.000352572
0.000303585
0.000321815
0.00033943
0.00036936
0.000414102
0.000459655
0.000555308
0.000615027
0.000786696
0.000811871
0.000807338
0.000727523
0.000610331
0.000509103
0.000434359
0.000388203
0.000360011
0.000351208
0.000348757
0.0005167
0.000464618
0.000437116
0.000419372
0.000404859
0.000388427
0.000369779
0.000349733
0.000330216
0.00031387
0.000300503
0.000289644
0.000280112
0.000269763
0.000256119
0.00023869
0.000218114
0.000195944
0.000174438
0.000157882
0.000150398
0.000151619
0.000164226
0.000195202
0.000250842
0.000325829
0.000394965
0.000428151
0.00042716
0.00038576
0.000318364
0.000260905
0.000226444
0.000231107
0.000289185
0.000353029
0.00037706
0.000371524
0.000333702
0.000279511
0.000310425
0.000472298
0.000614956
0.000721158
0.000769127
0.000757144
0.000626661
0.000560183
0.000486287
0.000306976
0.000272525
0.000239104
0.000267952
0.000338595
0.000431057
0.000513509
0.000594951
0.000641744
0.000635217
0.000555055
0.000439873
0.000349233
0.000319558
0.000324911
0.00036057
0.000433806
0.000479926
0.000513109
0.000504916
0.000435675
0.000333906
0.000350137
0.000434697
0.000389224
0.000575244
0.000363337
0.000658239
0.000569764
0.000400184
0.000402178
0.000421483
0.000425121
0.000527026
0.000655924
0.000729458
0.000897881
0.000948137
0.00107436
0.00105756
0.00108827
0.000923717
0.000853301
0.00062864
0.000588769
0.000474557
0.000493536
0.000485818
0.000546822
0.000551549
0.000603529
9.54178e-05
0.000127715
0.000181217
0.00027249
0.000337043
0.000275761
0.000115268
0.000106569
0.00012084
0.000142564
0.000191281
0.000276995
0.000412446
0.000564614
0.000527807
0.000330841
0.000178606
0.000190987
0.000226604
0.000239391
0.000234404
0.000250933
0.000520751
0.000717073
0.000824189
0.000860892
0.000860697
0.000805066
0.000700601
0.000573777
0.000412575
0.000328127
0.000262012
0.000231597
0.000162663
0.000163874
0.000193031
0.000204561
0.000256015
0.000315819
0.00036856
0.000412173
0.000424573
0.000418375
0.000389472
0.000348407
0.000309433
0.00028558
0.000271236
0.000266747
0.00025632
0.000238704
0.000211922
0.000185515
0.000153789
0.000127191
0.000118701
0.000132157
0.000152008
0.000172206
0.000186456
0.000189633
0.000198282
0.000228843
0.000279219
0.000314055
0.000321331
0.000310904
0.000302202
0.000301424
0.000317832
0.000330335
0.000339771
0.000336235
0.000322941
0.000309236
0.000298902
0.00029191
0.000294014
0.000304566
0.000334401
0.000364089
0.000393178
0.000381192
0.000303123
0.000231344
0.000220265
0.000246509
0.000286454
0.000306751
0.000318219
0.000315671
0.000287221
0.000254563
0.000223062
0.000186614
0.000134021
9.65328e-05
6.95204e-05
5.47149e-05
0.000129767
0.000130281
0.000129585
0.000133518
0.000192238
0.000258298
0.000221156
0.000115823
0.000124144
0.000150648
0.000155591
0.000171064
0.000183242
0.000260508
0.000394788
0.000369184
0.000279807
0.000213897
0.000205988
0.000264912
0.000519015
0.000621429
0.000610704
0.000611256
0.000537748
0.000462881
0.00038834
0.00032102
0.000269702
0.000247157
0.000223356
0.000212796
0.0002121
0.000213068
0.000194202
0.000201101
0.000208661
0.000208789
0.000211602
0.000221287
0.000233887
0.000251639
0.00026955
0.000291734
0.000305417
0.000305372
0.000297333
0.000283799
0.000273505
0.000269137
0.000261895
0.000239275
0.000193027
0.000151546
0.000129659
0.000121313
0.000123848
0.000133666
0.000139715
0.000151869
0.000169469
0.000203226
0.000224301
0.000223519
0.000216819
0.000219411
0.00023222
0.00023716
0.000237018
0.000234295
0.000237274
0.000251316
0.000293023
0.000329997
0.000343671
0.000336695
0.00030287
0.000272449
0.000258803
0.000253251
0.000243194
0.000226168
0.000227827
0.000232373
0.000226943
0.000214966
0.000210465
0.000208664
0.000200829
0.000180013
0.000168549
0.000143584
0.000125491
0.000114013
0.000102024
9.24555e-05
8.75639e-05
8.52229e-05
7.5758e-05
6.4866e-05
0.000138878
0.000133931
0.000130013
0.000126057
0.000133071
0.000198165
0.000215306
0.000157353
0.000132442
0.000138204
0.000148039
0.000170775
0.000169849
0.00017153
0.000223641
0.000295838
0.000256728
0.000223589
0.000279681
0.000491852
0.000572943
0.000555222
0.000422731
0.000340135
0.000292348
0.000258179
0.000241072
0.000232378
0.000224345
0.000219173
0.000217562
0.000210245
0.000211512
0.000199837
0.000170272
0.000186142
0.000178334
0.000183005
0.000185542
0.000188645
0.000191733
0.000201406
0.000212292
0.000217792
0.000221575
0.00022372
0.000223594
0.000216887
0.000192745
0.000171519
0.000169609
0.000170706
0.00016731
0.000147715
0.000124403