/*--------------------------------*- C++ -*----------------------------------*\
| =========                 |                                                 |
| \\      /  F ield         | OpenFOAM: The Open Source CFD Toolbox           |
|  \\    /   O peration     | Version:  2.4.0                                 |
|   \\  /    A nd           | Web:      www.OpenFOAM.org                      |
|    \\/     M anipulation  |                                                 |
\*---------------------------------------------------------------------------*/
FoamFile
{
    version     2.0;
    format      ascii;
    class       volScalarField;
    location    "0.079";
    object      k;
}
// * * * * * * * * * * * * * * * * * * * * * * * * * * * * * * * * * * * * * //

dimensions      [0 2 -2 0 0 0 0];

internalField   nonuniform List<scalar> 
4400
(
9.53687
8.48431
6.52219
5.29043
4.64366
4.2277
4.00309
3.82075
3.81566
3.16519
4.41348
6.75333
6.74224
6.29288
5.7155
5.22871
4.94938
4.70486
4.60516
4.44114
1.17917
3.14752
4.22513
4.52644
4.47909
4.28955
4.11115
3.95953
3.82629
3.82441
0.165167
0.934778
1.71633
2.30048
2.68253
2.81125
2.84548
2.84056
2.80978
2.79157
0.0174272
0.149662
0.415945
0.729851
1.09167
1.34525
1.51843
1.60975
1.74441
1.71833
0.00148521
0.0168497
0.0530015
0.118912
0.252021
0.402909
0.531483
0.602628
0.787761
0.79996
0.000138297
0.00149228
0.00435519
0.0111819
0.0264357
0.0641317
0.101832
0.124226
0.191809
0.243979
4.11924e-05
0.000245785
0.000406561
0.000806044
0.00167171
0.00501107
0.00974199
0.0119399
0.0185935
0.036265
3.29609e-05
0.00015547
0.000217211
0.000236394
0.00026968
0.000473984
0.000779513
0.000796479
0.000994
0.00212111
3.21366e-05
0.00016966
0.000191793
0.000182303
0.000185347
0.000229927
0.000268611
0.000267638
0.000272915
0.000297301
3.37122e-05
0.00013404
0.00014516
0.000171113
0.000220169
0.000255958
0.000263141
0.000268861
0.000282763
0.000353643
3.39066e-05
0.000101494
0.000220543
0.000269561
0.000307005
0.000387188
0.000561242
0.00104357
0.00170411
0.0036314
3.99127e-05
0.000248132
0.000497087
0.000888972
0.00179916
0.00449838
0.00826097
0.0174062
0.0260839
0.0510164
0.000136462
0.00153353
0.00480893
0.011774
0.0261305
0.0625605
0.0951015
0.159629
0.20154
0.327611
0.00145823
0.0170174
0.0586153
0.126157
0.236646
0.403595
0.529885
0.678514
0.767505
0.985228
0.017141
0.150718
0.430161
0.729821
1.08357
1.34404
1.53443
1.66914
1.7525
1.92455
0.162767
0.942793
1.72276
2.2981
2.68087
2.80633
2.8728
2.85946
2.87191
2.90026
1.16418
3.16932
4.22181
4.52617
4.47904
4.27764
4.13988
3.93349
3.88569
3.78165
4.40237
6.77692
6.73528
6.29155
5.7122
5.20354
4.96279
4.64201
4.54701
4.28272
9.52809
8.50662
6.50067
5.29485
4.6389
4.19336
3.98943
3.70752
3.58125
3.19589
2.36399
1.95073
1.50268
0.994556
0.621402
0.547366
0.617934
0.633424
0.58813
0.542054
0.521891
0.420572
0.373681
0.400842
0.502995
0.518165
0.493916
0.410849
0.215534
0.106637
0.0721322
0.0592858
0.065289
0.0922895
0.158161
0.312543
0.457509
0.453828
0.426726
0.389696
0.291584
0.184695
0.111199
0.0740659
0.0603527
0.0469454
0.0404052
0.0427814
0.0603258
0.152623
0.418078
0.457449
0.306145
0.189622
0.143747
0.101262
0.0872838
0.0755545
0.0703429
0.0704595
0.0721788
0.0769523
0.0861972
0.101646
0.138915
0.252795
0.287824
0.282692
0.222175
0.122633
0.0773787
0.0577736
0.0563863
0.0581857
0.0704624
0.0774903
0.0829072
0.0830759
0.0802402
0.0684095
0.0485138
0.0362489
0.0266343
0.0205472
0.0155574
0.0124763
0.0106251
0.00894017
0.00820772
0.00679398
0.00652669
0.00578067
0.0057162
0.00521425
0.00501987
0.00411229
0.0037677
0.00316772
0.00298445
0.00264091
0.00247317
0.00187183
0.00164676
0.000958443
0.000758307
0.000639245
0.00145619
0.00393314
0.0445863
0.49496
3.26131
2.41939
1.98689
1.69764
1.32437
0.880354
0.72762
0.678594
0.630589
0.592491
0.485819
0.424649
0.441226
0.537284
0.551726
0.522317
0.409684
0.206462
0.0972207
0.0540344
0.0415305
0.0374785
0.0399311
0.0495948
0.0727256
0.120446
0.245453
0.290969
0.284399
0.255849
0.168413
0.117335
0.08307
0.0624869
0.0512059
0.0396787
0.0367582
0.0414065
0.0630673
0.17628
0.462528
0.473662
0.270524
0.176779
0.150542
0.10728
0.0875288
0.0742929
0.0679908
0.0674995
0.069653
0.0754373
0.0815709
0.0943839
0.123863
0.226124
0.269492
0.267903
0.225159
0.13423
0.0874025
0.0628652
0.0605928
0.0619805
0.0733767
0.0812452
0.0866494
0.0868062
0.0821617
0.0693815
0.0485059
0.0360655
0.0248571
0.0201059
0.0148787
0.0121597
0.00961388
0.00792701
0.0071977
0.00633708
0.0062183
0.00585271
0.00642563
0.00623842
0.00720209
0.00657168
0.00750584
0.00584877
0.00620248
0.00470035
0.00444712
0.00309363
0.0030666
0.00199398
0.00240353
0.00134935
0.00414244
0.00442409
0.0348057
0.310599
3.12833
2.43416
2.02441
1.78172
1.56773
1.43169
1.22465
0.929502
0.768317
0.642675
0.566076
0.579512
0.61854
0.606337
0.561533
0.430679
0.190926
0.0915491
0.0468055
0.0336668
0.0310183
0.0313842
0.033882
0.0389192
0.0459006
0.0602337
0.11291
0.146921
0.147114
0.135618
0.0974978
0.084262
0.065057
0.051109
0.0432701
0.036106
0.0356018
0.0424472
0.0692493
0.208276
0.501748
0.48332
0.250571
0.16925
0.152741
0.116359
0.0897882
0.0725266
0.0672367
0.0669352
0.0683513
0.0740871
0.0792343
0.0900332
0.113323
0.200077
0.247835
0.248892
0.221662
0.144327
0.0948627
0.0667296
0.0654609
0.0674385
0.078606
0.0839366
0.0878834
0.0889153
0.0846938
0.0701804
0.048497
0.0363531
0.0237181
0.0194332
0.0133231
0.0117184
0.00882931
0.00778005
0.0064142
0.00587795
0.00577984
0.00574067
0.0064583
0.00639682
0.00827774
0.00798697
0.011737
0.0111187
0.0169373
0.0127058
0.0144584
0.00885203
0.00966576
0.00552345
0.00592584
0.00331542
0.010977
0.00659316
0.0349796
0.192283
2.41053
2.01222
1.74795
1.56068
1.42652
1.35633
1.31226
1.20151
1.05249
0.905535
0.818479
0.741445
0.680611
0.594233
0.409089
0.182243
0.0793008
0.041319
0.028248
0.0278719
0.0287905
0.0310262
0.0398835
0.0443716
0.0446698
0.0455921
0.055887
0.0742835
0.0792245
0.0745312
0.0653421
0.0615671
0.0508645
0.0431888
0.0390765
0.0349648
0.0354825
0.0457547
0.0784249
0.239472
0.534993
0.487209
0.24454
0.171106
0.15789
0.133002
0.0922998
0.0725493
0.0666052
0.0669389
0.06945
0.0745998
0.0781103
0.0862548
0.106143
0.184117
0.229316
0.232145
0.215725
0.151785
0.10411
0.0742873
0.0748025
0.0763009
0.0848379
0.0869834
0.0892438
0.0898985
0.0855958
0.0707011
0.047542
0.0359827
0.023267
0.0187885
0.0124917
0.0108053
0.00772161
0.00714845
0.00552998
0.00529872
0.00469349
0.00511166
0.00522112
0.00576529
0.00649599
0.00709664
0.0102321
0.0107298
0.0223685
0.0205428
0.0560019
0.0417821
0.131422
0.0657702
0.0998277
0.0326461
0.0341595
0.0150465
0.0290791
0.102073
1.5256
1.3433
1.27966
1.13378
1.07373
1.05597
1.0602
1.04694
0.984914
0.901278
0.793823
0.66754
0.560502
0.332952
0.150515
0.0656195
0.0338089
0.0245973
0.0246776
0.0275791
0.0343529
0.0482336
0.0634511
0.0622548
0.0557843
0.0474488
0.0469392
0.0499364
0.0518247
0.0500426
0.0518602
0.0514212
0.0444237
0.040403
0.0376955
0.0356449
0.0379958
0.0534751
0.0934604
0.278343
0.550232
0.48735
0.254302
0.190417
0.168542
0.152285
0.102261
0.0723607
0.0706022
0.0679406
0.0720826
0.0761991
0.0789702
0.0846432
0.100176
0.168683
0.215396
0.221188
0.209967
0.158482
0.114567
0.0840835
0.0843989
0.084625
0.0895505
0.09088
0.0929948
0.0919632
0.0861628
0.0709343
0.0469117
0.0349861
0.0220364
0.0182246
0.0121515
0.0102545
0.00727943
0.0065328
0.00485624
0.00456535
0.00387811
0.0043121
0.00413105
0.00502867
0.00512393
0.00648834
0.00678456
0.00990572
0.0123023
0.0162592
0.0323433
0.0365918
0.116275
0.101844
0.281907
0.190444
0.255613
0.11732
0.0701396
0.088604
0.721298
0.656293
0.671703
0.661145
0.642458
0.642075
0.638506
0.64134
0.624935
0.569615
0.489857
0.360479
0.212858
0.103693
0.0464918
0.0248781
0.0204936
0.0218402
0.0283762
0.0470967
0.0735551
0.111254
0.116669
0.108678
0.0894214
0.0619598
0.0501275
0.0488128
0.0451478
0.0449589
0.0493254
0.0481771
0.0415652
0.0397628
0.039075
0.039433
0.0451947
0.0667964
0.112144
0.31534
0.555795
0.492286
0.304172
0.235522
0.179878
0.162711
0.11591
0.0743866
0.0708587
0.0708431
0.0782947
0.0784879
0.0805401
0.0844091
0.0964175
0.157411
0.199178
0.207449
0.199202
0.160282
0.122611
0.0925001
0.0929507
0.0926137
0.0945844
0.0942464
0.0958328
0.0954274
0.0877303
0.0699177
0.046149
0.034228
0.0214534
0.0172183
0.011508
0.0095617
0.00693005
0.00617159
0.00461933
0.0042312
0.00355925
0.0036804
0.00351372
0.00398273
0.00423629
0.00516097
0.00574411
0.00774337
0.0139303
0.0159781
0.0312262
0.0377315
0.0955124
0.0989631
0.161484
0.173296
0.205858
0.174608
0.200343
0.128545
0.220826
0.212875
0.234059
0.239174
0.246722
0.257148
0.259567
0.262982
0.25401
0.22986
0.173977
0.106598
0.0562141
0.0275696
0.0156322
0.0157984
0.0187098
0.0302138
0.0605463
0.11866
0.186442
0.218509
0.213654
0.189406
0.152174
0.099655
0.0668554
0.0545802
0.0476665
0.0486391
0.0504774
0.0467314
0.043612
0.0455962
0.0470868
0.0503053
0.061789
0.0918841
0.136853
0.342457
0.55529
0.518601
0.392556
0.297246
0.192591
0.165533
0.122721
0.0761315
0.0772883
0.0748916
0.0866555
0.0815357
0.0830331
0.0850709
0.095491
0.147062
0.192687
0.199172
0.191539
0.158968
0.129645
0.101122
0.100959
0.100019
0.0991282
0.0958614
0.0970542
0.0970067
0.0892434
0.068637
0.0435909
0.0329129
0.0210777
0.0164787
0.011274
0.00898408
0.0067747
0.00584116
0.00455587
0.00386476
0.00348239
0.00327403
0.00326651
0.0033181
0.00390553
0.00418612
0.00455149
0.00544657
0.00737181
0.0114764
0.0157605
0.0268318
0.101435
0.0989656
0.255523
0.206105
0.283035
0.235607
0.221331
0.16233
0.0356644
0.0365579
0.0453051
0.0466172
0.0498394
0.0531638
0.0552809
0.0612261
0.0589985
0.0516659
0.0350191
0.0201236
0.0103339
0.00868878
0.0102542
0.0161387
0.0337648
0.0765402
0.167807
0.28109
0.361891
0.373166
0.356798
0.305296
0.233493
0.154416
0.103978
0.073978
0.0610358
0.0615208
0.0585934
0.0519003
0.0533784
0.0616778
0.0644889
0.0696043
0.0890128
0.125137
0.166139
0.358847
0.550919
0.556241
0.498114
0.36606
0.209419
0.166213
0.121591
0.077399
0.0891746
0.0823997
0.0974388
0.086385
0.0885688
0.0865014
0.0963009
0.139706
0.184752
0.18964
0.184387
0.160034
0.13412
0.109547
0.108847
0.106479
0.102562
0.0985568
0.0996691
0.0983336
0.0886892
0.0668636
0.0424405
0.0305106
0.0202893
0.0154726
0.0110792
0.00869241
0.006729
0.00552811
0.0045639
0.00354861
0.00344759
0.00318052
0.00339075
0.0033069
0.00389811
0.00395568
0.00443478
0.00478437
0.00575593
0.00875208
0.00939482
0.0173941
0.018142
0.0704792
0.0677385
0.159514
0.172444
0.212913
0.288183
0.229645
0.00249945
0.0028532
0.00384027
0.00390409
0.00413443
0.00455084
0.00552931
0.00718702
0.00688467
0.00548421
0.0036153
0.00344497
0.00398618
0.00672185
0.0169341
0.0422504
0.0954957
0.216048
0.382302
0.521725
0.576703
0.571473
0.534856
0.448142
0.334654
0.232489
0.166635
0.113278
0.0954488
0.0870189
0.0732311
0.0716567
0.0785856
0.0865161
0.0890315
0.0963508
0.126739
0.160223
0.192771
0.357809
0.542796
0.588917
0.596612
0.428516
0.219542
0.165614
0.116485
0.0916834
0.103454
0.0906307
0.111892
0.0907543
0.0973384
0.0889604
0.0989197
0.133207
0.177153
0.178632
0.17484
0.158795
0.134979
0.115711
0.114836
0.109853
0.104608
0.102418
0.104675
0.101959
0.0842302
0.0625724
0.041052
0.02896
0.0202205
0.0147403
0.0111046
0.00814516
0.00678704
0.00492713
0.00458047
0.00360864
0.0038897
0.00331559
0.00390571
0.00347613
0.00434706
0.00407011
0.00514771
0.00498065
0.0058238
0.00792549
0.00865447
0.0135906
0.0124089
0.0420099
0.0340574
0.100688
0.0948387
0.145464
0.266196
0.258201
0.00033259
0.000364078
0.000390359
0.000416604
0.00043109
0.000463941
0.000584949
0.000730462
0.000786856
0.000946769
0.00141366
0.0029777
0.00801335
0.0217655
0.0590809
0.124309
0.24994
0.485285
0.676483
0.734476
0.7203
0.679531
0.612827
0.529409
0.419728
0.306907
0.210538
0.156929
0.14409
0.119466
0.103469
0.104133
0.113876
0.117037
0.121399
0.135526
0.178331
0.200883
0.220205
0.342205
0.515529
0.613556
0.684458
0.451194
0.229563
0.165665
0.119604
0.112296
0.119915
0.0925709
0.117232
0.0937382
0.110276
0.0921273
0.105316
0.133489
0.177506
0.176219
0.172736
0.158024
0.136569
0.121278
0.119446
0.11132
0.107506
0.106081
0.10827
0.104292
0.0820339
0.0569403
0.0388905
0.0266386
0.0200615
0.0138319
0.0114114
0.007774
0.00726005
0.005175
0.00562886
0.00418916
0.00500639
0.00379167
0.00493837
0.00397293
0.00531877
0.00446639
0.00593996
0.00536963
0.00676726
0.00728374
0.00801237
0.0110971
0.010514
0.0268411
0.0223078
0.0660398
0.0616899
0.103581
0.13319
0.215841
0.000449769
0.000595073
0.000613904
0.00073289
0.000910398
0.000904976
0.000999446
0.00121628
0.00168939
0.00296163
0.00626673
0.015768
0.03656
0.0789117
0.166726
0.298601
0.575507
0.789203
0.839905
0.8136
0.756771
0.687295
0.623712
0.573922
0.485661
0.374312
0.286138
0.250458
0.210063
0.162162
0.144935
0.14476
0.146536
0.149717
0.165135
0.203478
0.220004
0.228165
0.237267
0.312127
0.460877
0.614184
0.766076
0.462073
0.253984
0.185731
0.161354
0.132147
0.123205
0.0987152
0.124929
0.0946716
0.124625
0.0979295
0.11805
0.135056
0.178016
0.174626
0.172376
0.157655
0.137248
0.127161
0.123217
0.112087
0.111392
0.110716
0.111818
0.103875
0.0780481
0.0526046
0.0384304
0.0246473
0.0200594
0.0130025
0.0118953
0.0083767
0.00914539
0.00627715
0.00770332
0.00544359
0.00720823
0.00490247
0.0071069
0.00509061
0.0075099
0.00543862
0.00790709
0.00622603
0.00881201
0.00770567
0.00905046
0.0099375
0.0102029
0.018291
0.0176051
0.0447047
0.0436939
0.078426
0.0850564
0.125312
0.00554585
0.00769386
0.00796438
0.0088829
0.0108511
0.0107366
0.0112752
0.0127548
0.0157633
0.0231501
0.0388352
0.0801815
0.131175
0.231351
0.365342
0.660446
0.8712
0.921055
0.892534
0.814946
0.726725
0.665069
0.612441
0.575858
0.540529
0.462159
0.378464
0.319053
0.246399
0.200502
0.18324
0.18153
0.184968
0.199961
0.244223
0.247679
0.239448
0.235608
0.238128
0.282091
0.381799
0.585317
0.85247
0.501927
0.288732
0.253948
0.26759
0.183451
0.140062
0.120763
0.148455
0.0962623
0.158043
0.102037
0.147451
0.139933
0.178937
0.173216
0.169489
0.15489
0.139418
0.130273
0.125442
0.116819
0.118277
0.118006
0.116079
0.0966566
0.0731543
0.0484525
0.0382792
0.0238388
0.0214158
0.0143079
0.0151543
0.0108586
0.0127629
0.00864055
0.0112586
0.00775976
0.0107529
0.0070398
0.0106404
0.00723335
0.0112765
0.00748268
0.0115835
0.00808598
0.0125812
0.00916506
0.0124384
0.0105872
0.0118503
0.0159221
0.0165889
0.0329893
0.0331464
0.0587156
0.0622454
0.0872616
0.0654459
0.0730025
0.0727931
0.0749167
0.0810871
0.0801275
0.0821239
0.08824
0.0994529
0.126052
0.169579
0.246736
0.3441
0.464022
0.749238
0.935483
0.981252
0.952541
0.844271
0.718323
0.645212
0.586635
0.562749
0.557995
0.54671
0.493137
0.438001
0.367222
0.288768
0.251137
0.234318
0.235058
0.248062
0.285683
0.285806
0.266311
0.243194
0.233032
0.234104
0.256703
0.310838
0.507983
0.912697
0.625862
0.376608
0.34599
0.391065
0.317618
0.215112
0.207732
0.290822
0.114339
0.319525
0.107476
0.198987
0.15062
0.185096
0.175513
0.171537
0.15472
0.144332
0.133957
0.128865
0.124145
0.12635
0.124261
0.117754
0.0877446
0.0714774
0.0457702
0.0393938
0.0256017
0.0266805
0.0191992
0.0213593
0.0156935
0.0187625
0.0129787
0.0170786
0.0118967
0.016576
0.0107844
0.0165666
0.0109882
0.0173799
0.0109118
0.0177165
0.0116128
0.0189145
0.0124699
0.0180231
0.013211
0.0178753
0.0174682
0.0184713
0.0278205
0.0281053
0.0436189
0.046006
0.0627571
0.326755
0.325325
0.313511
0.314141
0.317398
0.307545
0.307152
0.313941
0.33546
0.370999
0.440802
0.510349
0.637013
0.837278
0.984014
1.02414
0.996774
0.872437
0.694824
0.607461
0.575214
0.552586
0.543843
0.548037
0.544895
0.51877
0.467182
0.379377
0.332195
0.309809
0.291678
0.295824
0.321135
0.320544
0.301381
0.256707
0.235995
0.22552
0.225981
0.238926
0.262301
0.415724
0.916533
0.827468
0.498366
0.41769
0.433582
0.446379
0.442214
0.53034
0.491441
0.295373
0.942297
0.121763
0.378046
0.179498
0.199822
0.183265
0.177595
0.158681
0.14983
0.139259
0.137416
0.135753
0.136887
0.128648
0.117273
0.0838943
0.0734434
0.0501582
0.048297
0.036119
0.0384116
0.02799
0.0311936
0.0230748
0.027403
0.0196026
0.0257408
0.0184428
0.0251868
0.0174238
0.0259478
0.0178385
0.0271436
0.0177159
0.0281357
0.0187406
0.0296047
0.019429
0.0280608
0.0194866
0.0261875
0.0224296
0.0238932
0.0286766
0.0287675
0.0355419
0.0364684
0.0451543
0.9384
0.891343
0.805542
0.774428
0.751252
0.684875
0.660503
0.661929
0.670113
0.69579
0.737815
0.827663
0.941723
1.02438
1.05528
1.03126
0.884332
0.644128
0.576662
0.557434
0.54947
0.550054
0.54556
0.542924
0.543945
0.537704
0.482781
0.424755
0.413837
0.367135
0.343316
0.352311
0.350253
0.32273
0.249992
0.219029
0.212382
0.210341
0.22205
0.22355
0.223711
0.326276
0.871048
1.02056
0.659233
0.497238
0.43899
0.423529
0.42589
0.433858
0.354349
0.335916
0.373714
0.173214
0.420735
0.209789
0.225865
0.199849
0.189835
0.169494
0.160598
0.151826
0.155697
0.151759
0.151058
0.133161
0.124796
0.0950902
0.0935292
0.0729681
0.0727286
0.0554427
0.0583245
0.0424051
0.0482067
0.035481
0.0425204
0.0307225
0.0407599
0.0290946
0.0395676
0.0279058
0.0411974
0.0287262
0.0426849
0.0287858
0.0448427
0.0310092
0.0470427
0.0320798
0.0444621
0.0322715
0.0416723
0.0334201
0.0360255
0.0338453
0.0328247
0.0357596
0.0357508
0.0375373
1.76055
1.57642
1.38968
1.28221
1.17657
1.06612
1.02031
0.979587
0.961602
0.968683
0.998658
1.05403
1.07799
1.0793
1.04215
0.864585
0.587981
0.518451
0.520933
0.532209
0.531047
0.533104
0.540434
0.547917
0.555074
0.549155
0.518288
0.489764
0.432085
0.387409
0.38408
0.376387
0.326649
0.231952
0.199713
0.191163
0.191296
0.208513
0.230924
0.22288
0.203128
0.256972
0.723688
1.07637
0.960231
0.735521
0.583127
0.506933
0.418621
0.3848
0.311591
0.311518
0.343563
0.202239
0.304711
0.314761
0.311773
0.24557
0.232738
0.195895
0.192369
0.183191
0.185356
0.171216
0.183022
0.172495
0.180467
0.15414
0.156905
0.120703
0.121778
0.0922539
0.0960857
0.0709029
0.0816549
0.0598187
0.0710025
0.0527368
0.0693631
0.0494748
0.0663234
0.0480345
0.0698376
0.0488358
0.0707915
0.048852
0.075393
0.0531036
0.0776184
0.0532532
0.0730642
0.0536085
0.0676002
0.0533821
0.0554752
0.0473338
0.0456989
0.0421778
0.0398602
0.0399687
2.54523
2.15584
1.85227
1.64658
1.46728
1.33237
1.25825
1.19537
1.1571
1.15711
1.15534
1.14277
1.11148
1.0262
0.782245
0.498723
0.433305
0.447622
0.466142
0.475343
0.486712
0.503662
0.520893
0.534501
0.544265
0.540155
0.520366
0.482449
0.428871
0.407597
0.380056
0.304574
0.198926
0.166186
0.165245
0.168858
0.185717
0.232926
0.263857
0.244094
0.203996
0.229633
0.531621
1.00848
1.0845
1.02952
0.736557
0.59643
0.46195
0.450215
0.292513
0.311712
0.342973
0.279432
0.277478
0.441228
0.382615
0.317397
0.297946
0.249809
0.236224
0.202738
0.208659
0.228764
0.340723
0.343412
0.377389
0.316602
0.317107
0.23493
0.238194
0.176278
0.181103
0.135171
0.154861
0.113697
0.134378
0.101623
0.131391
0.0944002
0.125763
0.0924971
0.131525
0.0918877
0.1317
0.0929007
0.140197
0.0988344
0.141839
0.0978582
0.134902
0.0989631
0.124794
0.0963948
0.0989169
0.0808852
0.0772359
0.0658839
0.063472
0.058668
3.09521
2.44297
2.04853
1.78044
1.58529
1.46323
1.38902
1.33685
1.29344
1.25493
1.20262
1.11736
0.939959
0.642563
0.399346
0.31626
0.337309
0.408935
0.443834
0.452051
0.448708
0.449684
0.465431
0.488272
0.501292
0.504342
0.48561
0.442544
0.407871
0.3626
0.257931
0.159609
0.131158
0.131818
0.145389
0.175769
0.225188
0.284625
0.305183
0.299624
0.275223
0.28189
0.467064
0.904218
1.03367
1.1011
0.923997
0.770904
0.594454
0.631903
0.356259
0.453611
0.531565
0.384854
0.292362
0.452636
0.363216
0.351538
0.306904
0.29837
0.299624
0.345761
0.458381
0.650157
0.921629
0.908947
0.906095
0.758312
0.711212
0.510837
0.518088
0.387283
0.405472
0.309627
0.346335
0.261465
0.309915
0.238983
0.295275
0.222064
0.288015
0.217541
0.29115
0.212273
0.291866
0.213628
0.305461
0.21843
0.305319
0.217973
0.301309
0.223094
0.286591
0.221395
0.236608
0.197292
0.198102
0.181334
0.190502
0.195277
3.16877
2.40247
2.00964
1.77783
1.64528
1.5699
1.50488
1.43371
1.34906
1.22412
1.03565
0.776524
0.495875
0.292076
0.211441
0.218884
0.295292
0.402325
0.498283
0.544328
0.525767
0.467444
0.415145
0.389338
0.395785
0.399827
0.385995
0.353686
0.302955
0.233579
0.182902
0.157048
0.152845
0.163657
0.194214
0.231084
0.280507
0.346602
0.483814
0.662233
0.745781
0.723673
0.688833
0.77987
0.931578
1.06468
1.05765
1.15186
1.11917
0.952021
1.01952
0.485536
0.898824
0.662067
0.414789
0.553151
0.46488
0.580079
0.596621
0.869841
1.0468
1.69699
1.74898
2.03714
1.67646
1.71153
1.3143
1.33134
1.03301
1.08928
0.891891
0.933203
0.817474
0.858001
0.784303
0.786588
0.774797
0.758705
0.758051
0.715638
0.765461
0.708413
0.773686
0.680141
0.787376
0.683362
0.81919
0.678525
0.831091
0.685482
0.866789
0.73261
0.900053
0.789488
0.88949
0.880053
0.961224
1.02631
1.20446
1.36111
2.12776
1.72341
1.5577
1.47757
1.42747
1.37022
1.28126
1.15232
0.989582
0.797349
0.590315
0.406515
0.280481
0.217521
0.199585
0.207698
0.263292
0.413978
0.682676
1.02725
1.29817
1.42157
1.3329
1.05336
0.728137
0.466243
0.30601
0.226573
0.19707
0.210299
0.24492
0.276317
0.282636
0.282143
0.312568
0.404394
0.556542
0.768096
1.00327
1.18768
1.45066
1.70035
1.7937
1.63375
1.10872
0.836744
0.993078
1.50448
2.32937
2.08192
4.29621
0.874262
1.66691
0.58348
0.445525
1.0192
1.11011
2.24648
2.4872
3.75124
3.48345
3.92112
2.8728
2.84841
1.65137
1.89072
1.02343
1.60189
0.872618
1.6065
0.874114
1.67887
0.91914
1.76657
0.972669
1.86972
1.04958
1.96324
1.12422
2.06636
1.23145
2.14979
1.33303
2.21965
1.47547
2.27868
1.62092
2.2934
1.80636
2.3711
2.08881
2.54866
2.45713
2.82934
2.93857
3.60479
3.80301
4.68611
4.92946
5.77704
0.0580843
0.105334
0.306666
0.508712
0.38841
0.208943
0.360013
0.477195
0.590799
0.841663
1.14052
1.35859
1.47831
1.34541
0.958581
0.694929
0.588691
0.52597
0.643755
1.1627
0.901546
0.401854
0.507306
0.757624
1.03062
0.91104
0.869876
2.97941
4.7188
5.2981
5.17058
4.08399
2.82135
1.97719
0.846477
0.615766
0.439764
0.534483
0.879608
1.57708
2.36485
3.07031
3.74633
4.37468
4.64746
4.59016
3.89384
2.40361
1.22364
0.538801
0.231515
0.104003
0.0595138
0.0509145
0.0542166
0.0587127
0.0631222
0.06849
0.0754418
0.0839757
0.0920781
0.0995027
0.106142
0.111315
0.119554
0.131593
0.146824
0.167977
0.18822
0.208832
0.224777
0.234667
0.239182
0.237885
0.231405
0.220897
0.206505
0.18996
0.170155
0.149321
0.126311
0.103348
0.0802503
0.0592209
0.0413965
0.0324551
0.0303088
0.0311287
0.033344
0.0353133
0.0357438
0.0346844
0.0364839
0.0432343
0.045915
0.0905865
0.363493
0.472533
0.299956
0.173881
0.108996
0.120798
0.113693
0.152009
0.257853
0.339261
0.416125
0.43568
0.446301
0.546296
0.614135
0.565991
0.515398
0.486234
0.484008
0.493128
0.624613
0.738832
0.839181
0.701009
0.703514
0.625926
0.459909
0.446547
0.593031
1.8315
3.0697
3.01241
2.28735
1.47508
0.86024
0.508175
0.408816
0.368506
0.303253
0.296946
0.344827
0.322351
0.336049
0.384656
0.49184
0.695139
0.899123
1.12669
1.57506
2.49053
3.12249
3.21477
2.81332
1.35185
0.466201
0.192513
0.146263
0.140371
0.14418
0.147318
0.147055
0.148882
0.147509
0.147974
0.15453
0.154302
0.165328
0.172408
0.183298
0.205338
0.219777
0.243325
0.261965
0.278966
0.294715
0.304348
0.312249
0.315402
0.315754
0.314416
0.309813
0.304313
0.295652
0.286739
0.274116
0.260348
0.242158
0.221842
0.196538
0.168574
0.135635
0.0989144
0.0650185
0.0454277
0.0399268
0.0437979
0.0555531
0.0721643
0.121988
0.224478
0.292783
0.201758
0.166951
0.207501
0.217057
0.190229
0.135166
0.103173
0.155927
0.33154
0.330037
0.240125
0.304871
0.420086
0.430086
0.415184
0.440052
0.467974
0.48277
0.521677
0.587223
0.713853
0.848044
0.687264
0.467634
0.400082
0.299092
0.419459
1.28183
2.43047
2.61369
1.3634
0.581838
0.352761
0.28022
0.262105
0.257832
0.256002
0.195381
0.202135
0.211878
0.212664
0.202958
0.19208
0.19113
0.195102
0.204727
0.22544
0.270576
0.402299
0.742537
1.769
2.40242
2.25928
1.31734
0.455106
0.221749
0.178346
0.16234
0.158291
0.148636
0.138388
0.126928
0.106949
0.0924526
0.0772533
0.066849
0.0651978
0.0660729
0.0749902
0.0852157
0.106598
0.130976
0.158332
0.186325
0.209058
0.228634
0.24142
0.254746
0.261867
0.269535
0.272715
0.276219
0.276329
0.276034
0.27405
0.272378
0.267622
0.261875
0.249903
0.234685
0.208882
0.173977
0.127732
0.0838019
0.0624054
0.0586335
0.0718288
0.130028
0.18478
0.166162
0.122441
0.145222
0.207226
0.279123
0.20963
0.157069
0.102718
0.121675
0.30561
0.327082
0.234949
0.324586
0.412491
0.379066
0.368912
0.381022
0.392526
0.413099
0.464925
0.486886
0.565929
0.641507
0.783585
0.468685
0.27702
0.269587
0.640638
1.6764
2.18612
1.31145
0.508952
0.28575
0.244602
0.234373
0.22634
0.224981
0.256181
0.164529
0.160642
0.163558
0.171879
0.163436
0.150087
0.143933
0.143713
0.145947
0.162225
0.176123
0.182218
0.216894
0.402052
1.15455
1.91412
1.80752
1.0632
0.401684
0.222443
0.156035
0.127681
0.104257
0.0828075
0.0644236
0.0454783
0.0326101
0.0265431
0.0246141
0.0253381
0.0266144
0.0272492
0.0274654
0.0284092
0.0311565
0.0399361
0.0498602
0.0730454
0.0906803
0.119412
0.134435
0.155654
0.165207
0.182825
0.190544
0.206646
0.214415
0.230086
0.2367
0.247658
0.25144
0.255363
0.255518
0.253787
0.246762
0.227
0.186301
0.141836
0.0980172
0.0751712
0.110958
0.136551
0.105855
0.0885051
0.122158
0.197965
0.30238
0.209455
0.168896
0.111631
0.113303
0.250029
0.340217
0.271837
0.368916
0.387702
0.305297
0.29048
0.294442
0.319472
0.356515
0.39119
0.445666
0.499402
0.584754
0.753221
0.526752
0.287116
0.321055
0.903521
1.65076
1.56793
0.597291
0.278173
0.213427
0.206652
0.208857
0.201882
0.204269
0.242672
0.158757
0.143847
0.139576
0.149871
0.143886
0.130611
0.12738
0.129727
0.140104
0.162551
0.185794
0.184676
0.180494
0.198322
0.352898
1.05414
1.6002
1.45462
0.776947
0.329538
0.175825
0.104632
0.0684819
0.0470791
0.0340683
0.0252852
0.0214136
0.0206997
0.0228635
0.0250001
0.0266226
0.0266533
0.025012
0.0210276
0.0180098
0.0153187
0.0143098
0.0146383
0.0185303
0.0240233
0.0374757
0.0456155
0.0626298
0.0706542
0.0870563
0.0950538
0.112046
0.122544
0.143834
0.159996
0.184813
0.209018
0.22808
0.241216
0.247345
0.253129
0.24686
0.228115
0.193489
0.116928
0.0967271
0.106896
0.0806993
0.0666579
0.0894728
0.182694
0.314284
0.205431
0.171447
0.13234
0.109546
0.200278
0.359359
0.32711
0.366075
0.332831
0.251791
0.251039
0.284411
0.314049
0.347012
0.361166
0.405413
0.463851
0.556411
0.635913
0.617286
0.318976
0.399099
1.04146
1.51381
0.972776
0.340519
0.206285
0.192827
0.192232
0.192035
0.176772
0.181093
0.205544
0.160007
0.140075
0.123689
0.131499
0.130611
0.119923
0.119708
0.125158
0.153154
0.187688
0.211435
0.214572
0.206023
0.18971
0.20965
0.388843
1.11312
1.34884
1.13873
0.540789
0.244481
0.123389
0.0652179
0.0399992
0.0278642
0.0233759
0.0222738
0.0245563
0.0326411
0.0362606
0.0400254
0.0422137
0.0390662
0.0298421
0.0214454
0.0160748
0.0114422
0.00892814
0.00690835
0.00632993
0.00634458
0.00746239
0.00989745
0.0158536
0.0198957
0.0283855
0.0336971
0.0451359
0.0528244
0.0697407
0.0818988
0.106585
0.132657
0.169673
0.205854
0.231561
0.244668
0.246484
0.25261
0.220387
0.10962
0.0981223
0.0673669
0.0525611
0.0712004
0.178055
0.317129
0.197528
0.180223
0.148203
0.108137
0.171958
0.377005
0.353129
0.348426
0.269646
0.237845
0.264018
0.294346
0.319868
0.352757
0.355875
0.388284
0.44768
0.546464
0.612905
0.647655
0.3478
0.487112
1.05627
1.23176
0.595743
0.246717
0.19115
0.203786
0.20823
0.181595
0.15363
0.162343
0.187176
0.165257
0.141786
0.114896
0.114943
0.116215
0.111265
0.115929
0.129816
0.169475
0.22113
0.240118
0.242064
0.23769
0.219369
0.201104
0.236608
0.532963
1.13999
1.13195
0.823647
0.388642
0.175922
0.0811798
0.0432079
0.0289024
0.0247259
0.0264045
0.0340319
0.0432254
0.0464317
0.0549119
0.0550165
0.050721
0.0404648
0.0326947
0.0236771
0.0170412
0.0111985
0.00756036
0.00506505
0.00346159
0.00240629
0.0022903
0.0024592
0.00322767
0.00446695
0.00723825
0.00969922
0.014913
0.0194869
0.0292283
0.037707
0.0562375
0.0731543
0.108732
0.144488
0.201267
0.224965
0.248881
0.273962
0.169868
0.102127
0.0674466
0.0477569
0.0650513
0.175
0.317786
0.19392
0.181292
0.160356
0.109533
0.159738
0.380239
0.356534
0.324137
0.249792
0.241627
0.272839
0.286287
0.268424
0.312115
0.331538
0.353818
0.409957
0.538478
0.614987
0.638327
0.432583
0.580662
1.04258
0.934035
0.396844
0.212955
0.193614
0.229298
0.204314
0.163017
0.146005
0.162014
0.183586
0.175778
0.148025
0.112605
0.109637
0.110251
0.106763
0.115728
0.154777
0.190661
0.242599
0.254475
0.254174
0.247271
0.241189
0.213717
0.210449
0.294713
0.741699
1.04098
0.944979
0.578213
0.269238
0.116181
0.0527829
0.0320209
0.0287203
0.0316552
0.0420014
0.0481624
0.0539917
0.0605621
0.0587391
0.0532044
0.0486912
0.043544
0.0345491
0.0236362
0.0157871
0.010342
0.00695525
0.00466693
0.00306845
0.00197376
0.001262
0.00101164
0.00103101
0.00121548
0.00170994
0.00270702
0.00441607
0.00719198
0.0107753
0.0179817
0.026318
0.043387
0.0629503
0.102643
0.149453
0.206787
0.26924
0.25072
0.128938
0.0727406
0.0509798
0.0678857
0.172967
0.314476
0.196473
0.179675
0.167165
0.119946
0.152469
0.375276
0.350457
0.300813
0.237498
0.231596
0.246517
0.254409
0.230543
0.24178
0.270698
0.311752
0.357494
0.457861
0.640358
0.712551
0.576678
0.647749
0.996962
0.73911
0.306899
0.192666
0.200223
0.221178
0.176782
0.155093
0.153111
0.18934
0.194625
0.193153
0.162616
0.112675
0.108538
0.10809
0.10543
0.115329
0.194143
0.220656
0.254373
0.263582
0.260098
0.244533
0.236515
0.229828
0.205796
0.224843
0.405121
0.849739
0.885883
0.734233
0.386615
0.167905
0.0708372
0.0383856
0.0339401
0.03779
0.0458775
0.0507878
0.0575491
0.0617391
0.059613
0.0593601
0.0584408
0.0529431
0.0411571
0.0285745
0.0198698
0.0133455
0.00939507
0.00604662
0.00406898
0.00263521
0.00181315
0.00120051
0.000816567
0.000576908
0.000567426
0.000636982
0.000871795
0.00146328
0.00244338
0.00483238
0.00774404
0.0148407
0.0231941
0.0421452
0.0715488
0.112302
0.220527
0.25528
0.198418
0.0913332
0.0592781
0.077785
0.17914
0.30858
0.201089
0.17563
0.17342
0.133435
0.149259
0.359635
0.332625
0.274622
0.21151
0.198618
0.198178
0.207384
0.211105
0.215769
0.242439
0.294275
0.343868
0.395443
0.61687
0.753118
0.704043
0.700901
0.867385
0.631034
0.280703
0.172898
0.203934
0.185839
0.162608
0.180117
0.210035
0.240463
0.220556
0.207974
0.17303
0.114489
0.108552
0.107001