/*--------------------------------*- C++ -*----------------------------------*\
| =========                 |                                                 |
| \\      /  F ield         | OpenFOAM: The Open Source CFD Toolbox           |
|  \\    /   O peration     | Version:  2.4.0                                 |
|   \\  /    A nd           | Web:      www.OpenFOAM.org                      |
|    \\/     M anipulation  |                                                 |
\*---------------------------------------------------------------------------*/
FoamFile
{
    version     2.0;
    format      ascii;
    class       surfaceScalarField;
    location    "0.079";
    object      phi;
}
// * * * * * * * * * * * * * * * * * * * * * * * * * * * * * * * * * * * * * //

dimensions      [0 3 -1 0 0 0 0];

internalField   nonuniform List<scalar> 
8640
(
1.14662e-05
1.35338e-05
7.17417e-06
4.29206e-06
5.92006e-06
1.25412e-06
5.36994e-06
5.50117e-07
5.09405e-06
2.75889e-07
4.96065e-06
1.33396e-07
4.80816e-06
1.52493e-07
4.88358e-06
-7.54187e-08
4.36298e-06
5.20593e-07
-3.09737e-06
7.46035e-06
2.10484e-05
1.74854e-05
1.74514e-05
7.88901e-06
1.55209e-05
3.18458e-06
1.42538e-05
1.81727e-06
1.34918e-05
1.03784e-06
1.3047e-05
5.78215e-07
1.26685e-05
5.31022e-07
1.27007e-05
-1.07586e-07
1.2151e-05
1.07029e-06
-4.26819e-06
1.33218e-05
2.56955e-05
1.67899e-05
2.41013e-05
9.4832e-06
2.26238e-05
4.66206e-06
2.12331e-05
3.20803e-06
2.02383e-05
2.03266e-06
1.95776e-05
1.23884e-06
1.90581e-05
1.05058e-06
1.89686e-05
-1.80842e-08
1.86337e-05
1.40518e-06
-4.35439e-06
1.87199e-05
2.74543e-05
1.43356e-05
2.77261e-05
9.21142e-06
2.73875e-05
5.00066e-06
2.65209e-05
4.07467e-06
2.56845e-05
2.86903e-06
2.49952e-05
1.92818e-06
2.44637e-05
1.58203e-06
2.42497e-05
1.95904e-07
2.41222e-05
1.53268e-06
-4.10562e-06
2.38735e-05
2.76494e-05
1.16861e-05
2.88755e-05
7.98537e-06
2.96221e-05
4.25402e-06
2.96721e-05
4.02474e-06
2.94413e-05
3.09978e-06
2.90173e-05
2.35218e-06
2.86615e-05
1.93786e-06
2.84493e-05
4.08094e-07
2.84232e-05
1.55872e-06
-3.82207e-06
2.81397e-05
2.75025e-05
9.18363e-06
2.88793e-05
6.60861e-06
2.99866e-05
3.14672e-06
3.06707e-05
3.34056e-06
3.11757e-05
2.59481e-06
3.12493e-05
2.27854e-06
3.12731e-05
1.91414e-06
3.12624e-05
4.18775e-07
3.1454e-05
1.36707e-06
-3.20487e-06
3.08368e-05
2.743e-05
6.75367e-06
2.8873e-05
5.16555e-06
2.97919e-05
2.22788e-06
3.05844e-05
2.54801e-06
3.14801e-05
1.69914e-06
3.18702e-05
1.88844e-06
3.21919e-05
1.59245e-06
3.24536e-05
1.57065e-07
3.30453e-05
7.75347e-07
-2.20345e-06
3.20439e-05
2.73833e-05
4.37032e-06
2.89786e-05
3.57034e-06
2.95658e-05
1.64061e-06
3.04994e-05
1.61448e-06
3.14783e-05
7.20157e-07
3.18666e-05
1.50017e-06
3.22154e-05
1.24369e-06
3.26555e-05
-2.8304e-07
3.3561e-05
-1.30176e-07
-2.61161e-06
3.39692e-05
2.72101e-05
2.16017e-06
2.88773e-05
1.90318e-06
2.96757e-05
8.42229e-07
3.05988e-05
6.91384e-07
3.12503e-05
6.86869e-08
3.17191e-05
1.03129e-06
3.23203e-05
6.42549e-07
3.27654e-05
-7.28137e-07
3.33857e-05
-7.50489e-07
-2.70994e-06
3.3484e-05
2.71317e-05
2.84796e-08
2.89693e-05
6.55343e-08
2.97988e-05
1.27862e-08
3.04587e-05
3.15018e-08
3.10336e-05
-5.06229e-07
3.17585e-05
3.06421e-07
3.24125e-05
-1.15075e-08
3.26913e-05
-1.00695e-06
3.31824e-05
-1.24153e-06
-2.87004e-06
3.33425e-05
2.72308e-05
-2.2023e-06
2.89912e-05
-1.69489e-06
2.96785e-05
-6.74532e-07
3.04301e-05
-7.20025e-07
3.10684e-05
-1.14458e-06
3.178e-05
-4.0521e-07
3.23881e-05
-6.19537e-07
3.2706e-05
-1.32491e-06
3.31664e-05
-1.70188e-06
-3.1374e-06
3.34337e-05
2.72603e-05
-4.4626e-06
2.88876e-05
-3.32216e-06
2.97016e-05
-1.4886e-06
3.05539e-05
-1.57233e-06
3.11244e-05
-1.71509e-06
3.18115e-05
-1.09226e-06
3.24238e-05
-1.23189e-06
3.27379e-05
-1.63901e-06
3.31389e-05
-2.1028e-06
-3.39858e-06
3.34001e-05
2.72891e-05
-6.7517e-06
2.8928e-05
-4.96103e-06
2.98301e-05
-2.39069e-06
3.06187e-05
-2.36096e-06
3.12221e-05
-2.31853e-06
3.19055e-05
-1.77557e-06
3.24136e-05
-1.74e-06
3.26991e-05
-1.92455e-06
3.30766e-05
-2.48028e-06
-3.65431e-06
3.33323e-05
2.73789e-05
-9.13064e-06
2.88884e-05
-6.47051e-06
2.99202e-05
-3.42243e-06
3.07097e-05
-3.1505e-06
3.13518e-05
-2.9606e-06
3.18951e-05
-2.31892e-06
3.22454e-05
-2.09025e-06
3.24196e-05
-2.09879e-06
3.26239e-05
-2.68455e-06
-3.7509e-06
3.27205e-05
2.75008e-05
-1.16314e-05
2.89647e-05
-7.93442e-06
3.00096e-05
-4.46734e-06
3.07209e-05
-3.86175e-06
3.10919e-05
-3.33169e-06
3.12443e-05
-2.47123e-06
3.12299e-05
-2.07588e-06
3.10757e-05
-1.94461e-06
3.09174e-05
-2.52626e-06
-3.42181e-06
3.05883e-05
2.7666e-05
-1.42974e-05
2.89302e-05
-9.19865e-06
2.96018e-05
-5.13891e-06
2.97005e-05
-3.96045e-06
2.93813e-05
-3.01252e-06
2.89861e-05
-2.07599e-06
2.85727e-05
-1.66247e-06
2.81436e-05
-1.51559e-06
2.76912e-05
-2.07386e-06
-2.39038e-06
2.66598e-05
2.74708e-05
-1.67681e-05
2.77538e-05
-9.48173e-06
2.73579e-05
-4.74293e-06
2.65373e-05
-3.13994e-06
2.56387e-05
-2.11383e-06
2.49391e-05
-1.37642e-06
2.43603e-05
-1.08369e-06
2.38488e-05
-1.00402e-06
2.32593e-05
-1.4844e-06
-1.42213e-06
2.2291e-05
2.57089e-05
-1.7477e-05
2.41144e-05
-7.88722e-06
2.25963e-05
-3.22491e-06
2.12423e-05
-1.78595e-06
2.0203e-05
-1.07451e-06
1.95044e-05
-6.77756e-07
1.89594e-05
-5.38688e-07
1.84909e-05
-5.35589e-07
1.78635e-05
-8.56944e-07
-6.81178e-07
1.71225e-05
2.10556e-05
-1.35326e-05
1.7458e-05
-4.28957e-06
1.55005e-05
-1.26745e-06
1.42573e-05
-5.4276e-07
1.34668e-05
-2.83937e-07
1.29696e-05
-1.80598e-07
1.25818e-05
-1.50895e-07
1.22214e-05
-1.75152e-07
1.16714e-05
-3.06952e-07
-2.14423e-07
1.12046e-05
1.14674e-05
7.1778e-06
5.91034e-06
5.36758e-06
5.08365e-06
4.90305e-06
4.75215e-06
4.577e-06
4.27005e-06
4.05562e-06
8.07115e-06
-4.04248e-06
3.43169e-06
7.77647e-06
-2.96182e-06
3.25649e-06
6.85448e-06
-2.33171e-06
3.25371e-06
6.81726e-06
-1.98897e-06
2.02618e-06
7.53843e-06
1.1601e-07
-8.37173e-07
8.34316e-06
2.67388e-06
-3.47862e-06
1.00953e-05
7.39898e-06
-9.15109e-06
1.32538e-05
1.04546e-05
-1.36131e-05
1.73145e-05
1.30003e-05
-1.7061e-05
2.05288e-05
1.05819e-05
-1.37963e-05
2.29921e-05
3.68613e-06
-6.14942e-06
2.43702e-05
-4.67633e-06
3.29831e-06
2.47189e-05
-1.00274e-05
9.67864e-06
2.51325e-05
-1.44553e-05
1.40417e-05
2.64176e-05
-1.80557e-05
1.67706e-05
2.82347e-05
-2.25696e-05
2.07525e-05
3.0111e-05
-2.68377e-05
2.49614e-05
3.09222e-05
-2.52546e-05
2.44433e-05
3.0563e-05
-2.54976e-05
2.58568e-05
3.03141e-05
-2.52972e-05
2.55461e-05
2.92339e-05
-1.69444e-05
1.80245e-05
2.81598e-05
-1.16035e-05
1.26776e-05
2.82585e-05
-5.56602e-06
5.4673e-06
2.88315e-05
5.48275e-06
-6.05569e-06
2.98289e-05
1.02296e-05
-1.12271e-05
3.08135e-05
1.26299e-05
-1.36146e-05
3.14392e-05
1.4975e-05
-1.56007e-05
3.22109e-05
9.90678e-06
-1.06784e-05
3.23441e-05
4.47777e-06
-4.61098e-06
3.1881e-05
-2.05549e-06
2.51863e-06
3.07478e-05
-1.23706e-05
1.35037e-05
2.87421e-05
-1.65146e-05
1.85203e-05
2.65537e-05
-1.80885e-05
2.02769e-05
2.42812e-05
-2.18151e-05
2.40875e-05
2.17957e-05
-1.97953e-05
2.22809e-05
1.99899e-05
-1.48462e-05
1.6652e-05
1.87545e-05
-1.70941e-05
1.83296e-05
1.72593e-05
-1.89096e-05
2.04048e-05
1.52478e-05
-1.23179e-05
1.43293e-05
1.41882e-05
-8.62894e-06
9.68855e-06
1.35406e-05
-2.04029e-05
2.10506e-05
1.32028e-05
-3.46041e-05
3.49419e-05
1.35613e-05
-4.34507e-05
4.30922e-05
1.48633e-05
-4.27263e-05
4.14244e-05
1.54748e-05
-4.06692e-05
4.00577e-05
1.57826e-05
-3.21778e-05
3.187e-05
1.77629e-05
-2.37056e-05
2.17253e-05
1.87503e-05
-1.10655e-05
1.00781e-05
1.93455e-05
-6.0484e-08
-5.34778e-07
2.01364e-05
1.53039e-05
-1.60948e-05
2.07594e-05
2.64276e-05
-2.70506e-05
2.08872e-05
3.17497e-05
-3.18775e-05
2.17623e-05
3.58909e-05
-3.6766e-05
2.25134e-05
4.571e-05
-4.6461e-05
2.25593e-05
5.01254e-05
-5.01713e-05
2.11424e-05
5.09314e-05
-4.95145e-05
1.96358e-05
3.96919e-05
-3.81853e-05
1.74866e-05
3.51464e-05
-3.29972e-05
1.68001e-05
2.24716e-05
-2.17851e-05
1.61582e-05
2.53894e-05
-2.47474e-05
1.64625e-05
1.36686e-05
-1.39729e-05
1.58897e-05
1.82438e-05
-1.76711e-05
1.57982e-05
2.51389e-06
-2.42241e-06
1.54308e-05
4.97675e-06
-4.60934e-06
1.51915e-05
-1.30853e-05
1.33246e-05
1.49582e-05
-1.06734e-05
1.09068e-05
1.53954e-05
-2.42253e-05
2.37881e-05
1.4945e-05
-1.38603e-05
1.43107e-05
1.5251e-05
-2.29484e-05
2.26423e-05
1.45607e-05
-9.75581e-06
1.04461e-05
1.51373e-05
-1.60745e-05
1.54979e-05
1.42897e-05
-4.4649e-06
5.31251e-06
1.51072e-05
-1.0894e-05
1.00765e-05
1.40777e-05
1.8601e-07
8.4357e-07
1.50976e-05
-7.15866e-06
6.13866e-06
1.43144e-05
1.81906e-06
-1.03586e-06
1.54356e-05
-4.561e-06
3.4398e-06
1.43829e-05
3.5923e-06
-2.53957e-06
1.55551e-05
-3.04532e-06
1.87315e-06
1.46318e-05
3.95882e-06
-3.03553e-06
1.56578e-05
-1.51389e-06
4.87908e-07
1.44446e-05
5.04125e-06
-3.82808e-06
1.55107e-05
-2.19779e-07
-8.46294e-07
1.45115e-05
5.15833e-06
-4.15911e-06
1.54529e-05
1.10491e-06
-2.0463e-06
1.43423e-05
6.21294e-06
-5.10241e-06
1.53234e-05
2.66513e-06
-3.64622e-06
1.4452e-05
6.77201e-06
-5.90062e-06
1.544e-05
4.02477e-06
-5.01277e-06
1.47128e-05
8.1053e-06
-7.37803e-06
1.5588e-05
6.09627e-06
-6.97151e-06
1.47414e-05
1.03555e-05
-9.50891e-06
1.55006e-05
8.07496e-06
-8.83417e-06
1.43865e-05
1.34268e-05
-1.23127e-05
1.55024e-05
1.13196e-05
-1.24356e-05
1.4795e-05
1.88175e-05
-1.81101e-05
1.69996e-05
1.57174e-05
-1.7922e-05
1.51976e-05
2.91857e-05
-2.73837e-05
1.51444e-05
2.8058e-05
-2.80048e-05
5.29742e-05
-5.06583e-05
1.28286e-05
1.34666e-05
-4.18731e-06
1.35795e-05
-3.07467e-06
1.25783e-05
-1.33053e-06
1.1805e-05
-1.21573e-06
1.15235e-05
3.97574e-07
1.17033e-05
2.49407e-06
1.36511e-05
5.45118e-06
1.65449e-05
7.56078e-06
2.01217e-05
9.42346e-06
2.34221e-05
7.28147e-06
2.56741e-05
1.43421e-06
2.64611e-05
-5.46333e-06
2.70659e-05
-1.06323e-05
2.83446e-05
-1.5734e-05
3.00746e-05
-1.97857e-05
3.16349e-05
-2.41299e-05
3.27275e-05
-2.79303e-05
3.30269e-05
-2.5554e-05
3.2306e-05
-2.47767e-05
3.15626e-05
-2.45537e-05
3.05341e-05
-1.59159e-05
2.95999e-05
-1.06693e-05
2.9736e-05
-5.70212e-06
3.02581e-05
4.96064e-06
3.11643e-05
9.32337e-06
3.18594e-05
1.19349e-05
3.2382e-05
1.44524e-05
3.30223e-05
9.26651e-06
3.29522e-05
4.54783e-06
3.23617e-05
-1.46502e-06
3.08627e-05
-1.08715e-05
2.8528e-05
-1.418e-05
2.61817e-05
-1.57421e-05
2.37369e-05
-1.93703e-05
2.12919e-05
-1.73503e-05
1.97828e-05
-1.33371e-05
1.88341e-05
-1.61454e-05
1.7355e-05
-1.74305e-05
1.52774e-05
-1.02403e-05
1.38527e-05
-7.20416e-06
1.25751e-05
-1.91254e-05
1.1659e-05
-3.3688e-05
1.15983e-05
-4.339e-05
1.29031e-05
-4.40311e-05
1.34103e-05
-4.11764e-05
1.37376e-05
-3.25051e-05
1.5517e-05
-2.5485e-05
1.63824e-05
-1.19308e-05
1.71228e-05
-8.00872e-07
1.75438e-05
1.48829e-05
1.87008e-05
2.52706e-05
1.9444e-05
3.10064e-05
2.0232e-05
3.51029e-05
2.10032e-05
4.49388e-05
2.15018e-05
4.96267e-05
2.05832e-05
5.18501e-05
1.96533e-05
4.06218e-05
1.776e-05
3.70397e-05
1.74456e-05
2.27861e-05
1.70369e-05
2.5798e-05
1.74188e-05
1.32868e-05
1.69199e-05
1.87427e-05
1.67916e-05
2.64217e-06
1.66453e-05
5.12305e-06
1.6556e-05
-1.2996e-05
1.61414e-05
-1.02588e-05
1.61713e-05
-2.42552e-05
1.55881e-05
-1.32772e-05
1.57976e-05
-2.31578e-05
1.50003e-05
-8.95858e-06
1.52625e-05
-1.63367e-05
1.43703e-05
-3.57277e-06
1.52428e-05
-1.17665e-05
1.41856e-05
1.24326e-06
1.51001e-05
-8.07316e-06
1.41111e-05
2.80806e-06
1.52466e-05
-5.69654e-06
1.40645e-05
4.77446e-06
1.54268e-05
-4.40764e-06
1.44249e-05
4.96071e-06
1.57868e-05
-2.87576e-06
1.44797e-05
6.34834e-06
1.59806e-05
-1.72071e-06
1.47801e-05
6.35883e-06
1.61092e-05
-2.24244e-07
1.46521e-05
7.67006e-06
1.58938e-05
1.42349e-06
1.46095e-05
8.05627e-06
1.57319e-05
2.90241e-06
1.46379e-05
9.19926e-06
1.57541e-05
4.98007e-06
1.4849e-05
1.12606e-05
1.62208e-05
6.70324e-06
1.51524e-05
1.44952e-05
1.64901e-05
9.98197e-06
1.45116e-05
2.07961e-05
1.5473e-05
1.47559e-05
1.52106e-05
2.94481e-05
2.05587e-05
2.27099e-05
5.3368e-05
2.01649e-05
1.85042e-05
-3.97167e-06
1.87278e-05
-3.29823e-06
1.80393e-05
-6.41995e-07
1.73528e-05
-5.29268e-07
1.70227e-05
7.27723e-07
1.68145e-05
2.70222e-06
1.78653e-05
4.40043e-06
1.98302e-05
5.59583e-06
2.29855e-05
6.26821e-06
2.5942e-05
4.32497e-06
2.77797e-05
-4.03482e-07
2.90448e-05
-6.72849e-06
3.03625e-05
-1.195e-05
3.19045e-05
-1.72759e-05
3.35185e-05
-2.13997e-05
3.4431e-05
-2.50424e-05
3.44501e-05
-2.79493e-05
3.41426e-05
-2.52465e-05
3.32453e-05
-2.38794e-05
3.21598e-05
-2.34682e-05
3.12419e-05
-1.4998e-05
3.04907e-05
-9.91809e-06
3.03683e-05
-5.57973e-06
3.09902e-05
4.33878e-06
3.20059e-05
8.30764e-06
3.24857e-05
1.14551e-05
3.28598e-05
1.40782e-05
3.3081e-05
9.04536e-06
3.26419e-05
4.9869e-06
3.2069e-05
-8.92067e-07
3.03005e-05
-9.10306e-06
2.76965e-05
-1.1576e-05
2.55823e-05
-1.36279e-05
2.3323e-05
-1.7111e-05
2.09623e-05
-1.49897e-05
1.97722e-05
-1.2147e-05
1.90192e-05
-1.53924e-05
1.73693e-05
-1.57806e-05
1.50751e-05
-7.94613e-06
1.33533e-05
-5.48239e-06
1.15911e-05
-1.73631e-05
1.01067e-05
-3.22036e-05
9.81962e-06
-4.31029e-05
1.13334e-05
-4.55449e-05
1.17598e-05
-4.16028e-05
1.1768e-05
-3.25133e-05
1.31561e-05
-2.68731e-05
1.36302e-05
-1.24049e-05
1.45861e-05
-1.75677e-06
1.52174e-05
1.42515e-05
1.633e-05
2.4158e-05
1.73237e-05
3.00127e-05
1.86579e-05
3.37687e-05
1.9757e-05
4.38397e-05
2.06694e-05
4.87143e-05
1.99716e-05
5.25478e-05
1.93657e-05
4.12277e-05
1.79274e-05
3.8478e-05
1.7755e-05
2.29585e-05
1.72969e-05
2.62561e-05
1.78685e-05
1.27152e-05
1.77344e-05
1.88768e-05
1.76975e-05
2.67902e-06
1.75973e-05
5.22327e-06
1.76696e-05
-1.30683e-05
1.74176e-05
-1.00068e-05
1.72782e-05
-2.41158e-05
1.63563e-05
-1.23553e-05
1.62218e-05
-2.30233e-05
1.54495e-05
-8.18619e-06
1.5537e-05
-1.64242e-05
1.44456e-05
-2.4813e-06
1.5232e-05
-1.25529e-05
1.4296e-05
2.17924e-06
1.52353e-05
-9.01237e-06
1.43578e-05
3.6855e-06
1.55836e-05
-6.92235e-06
1.43889e-05
5.96921e-06
1.57978e-05
-5.81655e-06
1.48061e-05
5.95236e-06
1.6263e-05
-4.33265e-06
1.49671e-05
7.64427e-06
1.6742e-05
-3.49565e-06
1.55425e-05
7.55834e-06
1.72656e-05
-1.94731e-06
1.57863e-05
9.14937e-06
1.74972e-05
-2.87462e-07
1.58505e-05
9.70299e-06
1.74728e-05
1.28015e-06
1.55956e-05
1.10765e-05
1.67065e-05
3.86913e-06
1.48816e-05
1.30855e-05
1.66433e-05
4.94149e-06
1.57669e-05
1.53716e-05
1.80249e-05
7.72403e-06
1.78476e-05
2.09733e-05
1.97009e-05
1.29026e-05
1.73534e-05
3.17956e-05
2.23546e-05
1.77087e-05
5.25589e-05
2.31636e-05
2.33692e-05
-3.46738e-06
2.32611e-05
-3.1902e-06
2.29044e-05
-2.85259e-07
2.24603e-05
-8.51328e-08
2.22093e-05
9.78683e-07
2.23486e-05
2.56291e-06
2.30937e-05
3.65534e-06
2.42021e-05
4.48748e-06
2.65846e-05
3.88571e-06
2.9028e-05
1.88149e-06
3.08906e-05
-2.26607e-06
3.23349e-05
-8.17279e-06
3.35663e-05
-1.31814e-05
3.47389e-05
-1.84485e-05
3.57537e-05
-2.24146e-05
3.59188e-05
-2.52074e-05
3.50862e-05
-2.71168e-05
3.44995e-05
-2.46598e-05
3.38552e-05
-2.32352e-05
3.26746e-05
-2.22875e-05
3.21286e-05
-1.4452e-05
3.18809e-05
-9.67037e-06
3.14177e-05
-5.11652e-06
3.16131e-05
4.14337e-06
3.21428e-05
7.77789e-06
3.22003e-05
1.13976e-05
3.26547e-05
1.36238e-05
3.26588e-05
9.04126e-06
3.20052e-05
5.6405e-06
3.13217e-05
-2.08589e-07
2.9335e-05
-7.11634e-06
2.68021e-05
-9.04312e-06
2.49749e-05
-1.18007e-05
2.29752e-05
-1.51114e-05
2.09535e-05
-1.29679e-05
2.01185e-05
-1.13121e-05
1.94112e-05
-1.46851e-05
1.74848e-05
-1.38541e-05
1.49186e-05
-5.37992e-06
1.29029e-05
-3.46675e-06
1.0719e-05
-1.51792e-05
8.89448e-06
-3.03791e-05
8.70839e-06
-4.29168e-05
1.03249e-05
-4.71614e-05
1.05999e-05
-4.18778e-05
1.00896e-05
-3.2003e-05
1.0673e-05
-2.74565e-05
1.10289e-05
-1.27609e-05
1.17811e-05
-2.509e-06
1.23346e-05
1.36981e-05
1.44958e-05
2.19969e-05
1.56283e-05
2.88802e-05
1.6957e-05
3.24401e-05
1.79812e-05
4.28154e-05
1.92732e-05
4.74223e-05
1.9176e-05
5.2645e-05
1.9247e-05
4.11567e-05
1.82449e-05
3.94801e-05
1.80224e-05
2.3181e-05
1.74982e-05
2.67803e-05
1.83401e-05
1.18734e-05
1.84933e-05
1.87236e-05
1.85564e-05
2.61592e-06
1.85019e-05
5.27776e-06
1.84595e-05
-1.3026e-05
1.81128e-05
-9.66005e-06
1.79703e-05
-2.39733e-05
1.71343e-05
-1.15193e-05
1.66226e-05
-2.25116e-05
1.57427e-05
-7.30636e-06
1.57313e-05
-1.64128e-05
1.45889e-05
-1.33886e-06
1.51752e-05
-1.31393e-05
1.40714e-05
3.28309e-06
1.47188e-05
-9.65978e-06
1.3855e-05
4.54929e-06
1.51006e-05
-8.1679e-06
1.39651e-05
7.10463e-06
1.5263e-05
-7.11446e-06
1.43969e-05
6.81847e-06
1.597e-05
-5.90574e-06
1.47136e-05
8.90068e-06
1.65255e-05
-5.30752e-06
1.55439e-05
8.53993e-06
1.76484e-05
-4.05185e-06
1.61772e-05
1.06206e-05
1.85365e-05
-2.6467e-06
1.70823e-05
1.11572e-05
1.95421e-05
-1.17971e-06
1.74029e-05
1.32157e-05
1.93334e-05
1.93863e-06
1.69186e-05
1.55004e-05
1.79966e-05
3.86351e-06
1.56503e-05
1.77178e-05
1.63178e-05
7.05654e-06
1.61015e-05
2.11896e-05
1.97145e-05
9.28967e-06
1.99924e-05
3.15177e-05
2.60126e-05
1.16885e-05
5.05782e-05
2.79934e-05
2.77987e-05
-3.12643e-06
2.73405e-05
-2.73196e-06
2.6938e-05
1.17209e-07
2.6756e-05
9.69159e-08
2.65607e-05
1.17394e-06
2.69128e-05
2.21084e-06
2.78289e-05
2.73919e-06
2.88207e-05
3.49571e-06
3.06049e-05
2.10154e-06
3.23944e-05
9.19963e-08
3.39785e-05
-3.85018e-06
3.53051e-05
-9.49941e-06
3.6093e-05
-1.39693e-05
3.66407e-05
-1.89962e-05
3.69264e-05
-2.27003e-05
3.62669e-05
-2.45479e-05
3.48926e-05
-2.57425e-05
3.42588e-05
-2.4026e-05
3.39243e-05
-2.29007e-05
3.29857e-05
-2.1349e-05
3.27541e-05
-1.42204e-05
3.29233e-05
-9.83965e-06
3.26133e-05
-4.80647e-06
3.25415e-05
4.21517e-06
3.22909e-05
8.02846e-06
3.19229e-05
1.17657e-05
3.22247e-05
1.3322e-05
3.16633e-05
9.60266e-06
3.09087e-05
6.39505e-06
3.02939e-05
4.06236e-07
2.82955e-05
-5.11796e-06
2.6142e-05
-6.88962e-06
2.47158e-05
-1.03745e-05
2.29625e-05
-1.33581e-05
2.12746e-05
-1.128e-05
2.06568e-05
-1.06943e-05
1.98223e-05
-1.38506e-05
1.75763e-05
-1.16081e-05
1.47552e-05
-2.55884e-06
1.24501e-05
-1.16162e-06
9.97325e-06
-1.27023e-05
8.23482e-06
-2.86407e-05
8.19628e-06
-4.28783e-05
9.69583e-06
-4.86609e-05
9.66627e-06
-4.18483e-05
8.69161e-06
-3.10283e-05
8.23463e-06
-2.69995e-05
8.07756e-06
-1.26038e-05
9.45199e-06
-3.88343e-06
9.54135e-06
1.36087e-05
1.20601e-05
1.94781e-05
1.33171e-05
2.76231e-05
1.53803e-05
3.03769e-05
1.66143e-05
4.15814e-05
1.8176e-05
4.58605e-05
1.82992e-05
5.25218e-05
1.88818e-05
4.05742e-05
1.82049e-05
4.01569e-05
1.80289e-05
2.33571e-05
1.78578e-05
2.69514e-05
1.87421e-05
1.09891e-05
1.90269e-05
1.84387e-05
1.92091e-05
2.43376e-06
1.94776e-05
5.00925e-06
1.94538e-05
-1.30021e-05
1.89816e-05
-9.18788e-06
1.85396e-05
-2.35313e-05
1.78161e-05
-1.07959e-05
1.71883e-05
-2.18838e-05
1.60639e-05
-6.18197e-06
1.5939e-05
-1.62879e-05
1.48384e-05
-2.38279e-07
1.53721e-05
-1.3673e-05
1.44552e-05
4.19998e-06
1.50089e-05
-1.02134e-05
1.40499e-05
5.5083e-06
1.51642e-05
-9.2822e-06
1.40281e-05
8.24071e-06
1.512e-05
-8.20639e-06
1.41942e-05
7.7443e-06
1.57101e-05
-7.42165e-06
1.45485e-05
1.00623e-05
1.60801e-05
-6.83911e-06
1.5248e-05
9.37207e-06
1.73693e-05
-6.17321e-06
1.63478e-05
1.16421e-05
1.85449e-05
-4.84377e-06
1.79338e-05
1.17683e-05
2.10754e-05
-4.32128e-06
2.01084e-05
1.41826e-05
2.30041e-05
-9.57052e-07
2.21078e-05
1.63966e-05
2.49171e-05
1.05429e-06
2.26e-05
2.00349e-05
2.38439e-05
5.81264e-06
1.97889e-05
2.52446e-05
2.15519e-05
7.52662e-06
1.83828e-05
3.46869e-05
2.20661e-05
8.00522e-06
4.38326e-05
2.88117e-05
3.07413e-05
-3.03089e-06
3.04325e-05
-2.42314e-06
3.01458e-05
4.03875e-07
3.00729e-05
1.6983e-07
3.00064e-05
1.24043e-06
3.04493e-05
1.76801e-06
3.13521e-05
1.8363e-06
3.23326e-05
2.51525e-06
3.36486e-05
7.85503e-07
3.50617e-05
-1.32104e-06
3.62778e-05
-5.06626e-06
3.70223e-05
-1.02439e-05
3.72989e-05
-1.42459e-05
3.71555e-05
-1.88528e-05
3.66951e-05
-2.22399e-05
3.56746e-05
-2.35275e-05
3.4484e-05
-2.45518e-05
3.43458e-05
-2.38878e-05
3.42923e-05
-2.28472e-05
3.35373e-05
-2.0594e-05
3.36966e-05
-1.43797e-05
3.3849e-05
-9.99204e-06
3.3259e-05
-4.21647e-06
3.30205e-05
4.45366e-06
3.2457e-05
8.59194e-06
3.17846e-05
1.24382e-05
3.15449e-05
1.35618e-05
3.06891e-05
1.04584e-05
3.01653e-05
6.91885e-06
2.93719e-05
1.19959e-06
2.73031e-05
-3.04911e-06
2.56254e-05
-5.21193e-06
2.45471e-05
-9.2962e-06
2.30061e-05
-1.1817e-05
2.16404e-05
-9.91427e-06
2.11191e-05
-1.01731e-05
2.01843e-05
-1.29158e-05
1.77507e-05
-9.17449e-06
1.47224e-05
4.69433e-07
1.21002e-05
1.46057e-06
9.47556e-06
-1.00777e-05
7.95724e-06
-2.71224e-05
7.91797e-06
-4.2839e-05
8.66626e-06
-4.94092e-05
8.57338e-06
-4.17554e-05
7.31548e-06
-2.97704e-05
5.83154e-06
-2.55156e-05
5.29256e-06
-1.20648e-05
6.326e-06
-4.91687e-06
6.9576e-06
1.29771e-05
1.02928e-05
1.61429e-05
1.13386e-05
2.65773e-05
1.38168e-05
2.78987e-05
1.48246e-05
4.05736e-05
1.66532e-05
4.4032e-05
1.72029e-05
5.19721e-05
1.83354e-05
3.94416e-05
1.7955e-05
4.05373e-05
1.79597e-05
2.33524e-05
1.81881e-05
2.6723e-05
1.90933e-05
1.00839e-05
1.94657e-05
1.80663e-05
1.97301e-05
2.16933e-06
2.0243e-05
4.49638e-06
2.03137e-05
-1.30728e-05
1.99895e-05
-8.86371e-06
1.91737e-05
-2.27155e-05
1.81955e-05
-9.81765e-06
1.74375e-05
-2.11257e-05
1.63525e-05
-5.09704e-06
1.59835e-05
-1.59189e-05
1.47229e-05
1.02226e-06
1.49995e-05
-1.39496e-05
1.42006e-05
4.99893e-06
1.4659e-05
-1.06718e-05
1.3777e-05
6.39025e-06
1.48607e-05
-1.03659e-05
1.39062e-05
9.19529e-06
1.48153e-05
-9.11555e-06
1.39266e-05
8.63298e-06
1.53417e-05
-8.8367e-06
1.42474e-05
1.11566e-05
1.54572e-05
-8.04901e-06
1.45193e-05
1.031e-05
1.63244e-05
-7.97831e-06
1.53188e-05
1.26477e-05
1.67784e-05
-6.30335e-06
1.60438e-05
1.25029e-05
1.84628e-05
-6.74024e-06
1.79647e-05
1.46807e-05
2.06835e-05
-3.67594e-06
2.04183e-05
1.66619e-05
2.45298e-05
-3.05721e-06
2.35862e-05
2.09785e-05
2.84379e-05
9.6091e-07
2.55627e-05
2.81198e-05
2.89752e-05
4.11412e-06
2.61373e-05
3.75248e-05
2.42519e-05
9.8906e-06
3.94241e-05
2.86604e-05
3.18964e-05
-2.88346e-06
3.17332e-05
-2.25994e-06
3.19417e-05
1.95441e-07
3.21547e-05
-4.31795e-08
3.23198e-05
1.07532e-06
3.28196e-05
1.26816e-06
3.36407e-05
1.01526e-06
3.45187e-05
1.63724e-06
3.53039e-05
3.10719e-10
3.63373e-05
-2.35443e-06
3.71223e-05
-5.8513e-06
3.73406e-05
-1.04622e-05
3.72761e-05
-1.41814e-05
3.67083e-05
-1.8285e-05
3.58889e-05
-2.14206e-05
3.50585e-05
-2.2697e-05
3.44623e-05
-2.39556e-05
3.45631e-05
-2.39885e-05
3.44887e-05
-2.27728e-05
3.38556e-05
-1.9961e-05
3.39275e-05
-1.44515e-05
3.38466e-05
-9.91118e-06
3.33296e-05
-3.69944e-06
3.31944e-05
4.5889e-06
3.23641e-05
9.42216e-06
3.14473e-05
1.3355e-05
3.08925e-05
1.41165e-05
3.00062e-05
1.13447e-05
2.94822e-05
7.44289e-06
2.84219e-05
2.25992e-06
2.65549e-05
-1.18219e-06
2.53525e-05
-4.00952e-06
2.43669e-05
-8.31053e-06
2.28808e-05
-1.03309e-05
2.18522e-05
-8.88571e-06
2.14473e-05
-9.76819e-06
2.02592e-05
-1.17276e-05
1.75989e-05
-6.51421e-06
1.44717e-05
3.59657e-06
1.17114e-05
4.22091e-06
9.15921e-06
-7.5255e-06
7.85286e-06
-2.5816e-05
7.40884e-06
-4.2395e-05
7.0047e-06
-4.90051e-05
6.8432e-06
-4.15939e-05
5.74594e-06
-2.86731e-05
3.49575e-06
-2.32654e-05
3.0362e-06
-1.16053e-05
4.1187e-06
-5.99938e-06
4.64585e-06
1.245e-05
8.17352e-06
1.26153e-05
8.98303e-06
2.57678e-05
1.23359e-05
2.45458e-05
1.32182e-05
3.96913e-05
1.54891e-05
4.17611e-05
1.63329e-05
5.11283e-05
1.78896e-05
3.7885e-05
1.78579e-05
4.0569e-05
1.82735e-05
2.29369e-05
1.86296e-05
2.63668e-05
1.93215e-05
9.39205e-06
1.99326e-05
1.74552e-05
2.03092e-05
1.79269e-06
2.09873e-05
3.81832e-06
2.10707e-05
-1.31562e-05
2.08823e-05
-8.67529e-06
1.99236e-05
-2.17568e-05
1.87452e-05
-8.63923e-06
1.76037e-05
-1.99842e-05
1.65445e-05
-4.03788e-06
1.62387e-05
-1.56131e-05
1.52313e-05
2.02971e-06
1.5261e-05
-1.39793e-05
1.44119e-05
5.84803e-06
1.47456e-05
-1.10055e-05
1.37878e-05
7.34806e-06
1.46458e-05
-1.1224e-05
1.37955e-05
1.00456e-05
1.45813e-05
-9.90132e-06
1.36073e-05
9.60694e-06
1.48899e-05
-1.01193e-05
1.39117e-05
1.21349e-05
1.50319e-05
-9.16923e-06
1.38908e-05
1.14511e-05
1.55543e-05
-9.64183e-06
1.4439e-05
1.37629e-05
1.5759e-05
-7.62333e-06
1.42919e-05
1.397e-05
1.63118e-05
-8.76016e-06
1.5044e-05
1.59486e-05
1.69038e-05
-5.53583e-06
1.5105e-05
1.84608e-05
1.80574e-05
-6.0096e-06
1.72164e-05
2.18194e-05
2.19188e-05
-3.74155e-06
2.18527e-05
2.81859e-05
2.61387e-05
-1.71908e-07
2.83748e-05
3.52888e-05
2.75766e-05
1.06887e-05
3.68287e-05
3.01721e-05
3.30107e-05
-1.92496e-06
3.2169e-05
-1.41824e-06
3.23091e-05
5.53342e-08
3.26484e-05
-3.82458e-07
3.33148e-05
4.08873e-07
3.39453e-05
6.37698e-07
3.45156e-05
4.44947e-07
3.50673e-05
1.08554e-06
3.55825e-05
-5.14947e-07
3.64987e-05
-3.27057e-06
3.69431e-05
-6.29573e-06
3.68793e-05
-1.03984e-05
3.66529e-05
-1.3955e-05
3.59346e-05
-1.75667e-05
3.53614e-05
-2.08473e-05
3.50621e-05
-2.23978e-05
3.47666e-05
-2.36601e-05
3.46899e-05
-2.39119e-05
3.42394e-05
-2.23223e-05
3.3432e-05
-1.91535e-05
3.32305e-05
-1.425e-05
3.26789e-05
-9.35963e-06
3.20236e-05
-3.04415e-06
3.20156e-05
4.59689e-06
3.14657e-05
9.97208e-06
3.08693e-05
1.39514e-05
3.03207e-05
1.46651e-05
2.94838e-05
1.21816e-05
2.86914e-05
8.23529e-06
2.73141e-05
3.63722e-06
2.58744e-05
2.57498e-07
2.51485e-05
-3.28358e-06
2.4207e-05
-7.36907e-06
2.26819e-05
-8.80576e-06
2.17709e-05
-7.97479e-06
2.1429e-05
-9.42621e-06
2.00876e-05
-1.03863e-05
1.72444e-05
-3.671e-06
1.40625e-05
6.77853e-06
1.13414e-05
6.94201e-06
8.9976e-06
-5.18172e-06
7.53035e-06
-2.43488e-05
6.37304e-06
-4.12377e-05
4.68043e-06
-4.73125e-05
4.20981e-06
-4.11233e-05
3.29515e-06
-2.77585e-05
1.03853e-06
-2.10087e-05
8.09603e-07
-1.13763e-05
1.40612e-06
-6.59589e-06
2.82227e-06
1.10339e-05
6.55899e-06
8.87855e-06
7.25905e-06
2.50678e-05
1.09767e-05
2.08282e-05
1.09847e-05
3.96833e-05
1.4013e-05
3.87328e-05
1.50266e-05
5.01147e-05
1.68433e-05
3.60682e-05
1.73997e-05
4.00127e-05
1.83942e-05
2.19423e-05
1.90072e-05
2.57538e-05
1.95057e-05
8.89361e-06
2.03735e-05
1.65874e-05
2.0934e-05
1.23221e-06
2.18241e-05
2.9282e-06
2.17245e-05
-1.30566e-05
2.13535e-05
-8.30429e-06
2.02472e-05
-2.06505e-05
1.91364e-05
-7.52844e-06
1.78103e-05
-1.86581e-05
1.65056e-05
-2.7332e-06
1.59146e-05
-1.50221e-05
1.50741e-05
2.87018e-06
1.4969e-05
-1.38742e-05
1.43519e-05
6.46511e-06
1.46527e-05
-1.13063e-05
1.3906e-05
8.09477e-06
1.45093e-05
-1.18273e-05
1.3854e-05
1.07008e-05
1.45562e-05
-1.06035e-05
1.36626e-05
1.05006e-05
1.47231e-05
-1.11798e-05
1.39301e-05
1.29279e-05
1.49486e-05
-1.01878e-05
1.3828e-05
1.25717e-05
1.52785e-05
-1.10924e-05
1.43775e-05
1.4664e-05
1.58353e-05
-9.08113e-06
1.43471e-05
1.54582e-05
1.61916e-05
-1.06047e-05
1.51089e-05
1.70313e-05
1.74288e-05
-7.85577e-06
1.52635e-05
2.06262e-05
1.76846e-05
-8.43076e-06
1.61949e-05
2.33092e-05
1.94231e-05
-6.96967e-06
1.93857e-05
2.82232e-05
2.18085e-05
-2.59471e-06
2.52915e-05
3.18058e-05
2.71524e-05
8.82786e-06
3.30881e-05
3.0893e-05
3.29059e-05
-1.34687e-06
3.25762e-05
-1.08849e-06
3.2578e-05
5.35447e-08
3.27484e-05
-5.52909e-07
3.35165e-05
-3.59269e-07
3.3838e-05
3.16232e-07
3.40164e-05
2.66518e-07
3.47383e-05
3.63689e-07
3.56233e-05
-1.39992e-06
3.63619e-05
-4.00918e-06
3.65021e-05
-6.43595e-06
3.6324e-05
-1.02203e-05
3.60745e-05
-1.37055e-05
3.55281e-05
-1.70203e-05
3.5122e-05
-2.04412e-05
3.49215e-05
-2.21973e-05
3.4357e-05
-2.30956e-05
3.36083e-05
-2.31631e-05
3.27233e-05
-2.14373e-05
3.16652e-05
-1.80955e-05
3.10049e-05
-1.35896e-05
3.03243e-05
-8.67904e-06
2.97433e-05
-2.46321e-06
2.97569e-05
4.58331e-06
2.9623e-05
1.0106e-05
2.93751e-05
1.41993e-05
2.89696e-05
1.50706e-05
2.84464e-05
1.27048e-05
2.76435e-05
9.03819e-06
2.63213e-05
4.95943e-06
2.52117e-05
1.36709e-06
2.44881e-05
-2.55999e-06
2.33935e-05
-6.27445e-06
2.20891e-05
-7.50135e-06
2.14998e-05
-7.38551e-06
2.1127e-05
-9.05346e-06
1.95686e-05
-8.82782e-06
1.66264e-05
-7.28845e-07
1.35796e-05
9.82531e-06
1.10432e-05
9.47837e-06
8.79239e-06
-2.93086e-06
6.84634e-06
-2.24027e-05
4.77912e-06
-3.91705e-05
2.09911e-06
-4.46325e-05
1.00851e-06
-4.00327e-05
2.03296e-07
-2.69533e-05
-1.14866e-06
-1.96568e-05
-3.74609e-07
-1.21504e-05
-6.41004e-08
-6.9064e-06
1.26182e-06
9.70793e-06
4.25188e-06
5.88849e-06
5.11925e-06
2.42004e-05
9.64032e-06
1.63071e-05
9.30334e-06
4.00203e-05
1.31581e-05
3.4878e-05
1.41506e-05
4.91221e-05
1.62082e-05
3.40107e-05
1.71857e-05
3.90351e-05
1.82905e-05
2.08376e-05
1.92154e-05
2.48288e-05
1.97177e-05
8.39133e-06
2.07815e-05
1.55236e-05
2.14883e-05
5.25485e-07
2.25393e-05
1.87714e-06
2.23125e-05
-1.28298e-05
2.18235e-05
-7.8153e-06
2.03407e-05
-1.91678e-05
1.92661e-05
-6.45384e-06
1.80068e-05
-1.73987e-05
1.69406e-05
-1.66697e-06
1.61221e-05
-1.42037e-05
1.53078e-05
3.68446e-06
1.49167e-05
-1.34831e-05
1.43409e-05
7.04093e-06
1.44175e-05
-1.13828e-05
1.38671e-05
8.64513e-06
1.41806e-05
-1.21408e-05
1.36738e-05
1.12077e-05
1.42221e-05
-1.11518e-05
1.34982e-05
1.12245e-05
1.42615e-05
-1.19431e-05
1.3604e-05
1.35854e-05
1.45478e-05
-1.11316e-05
1.35528e-05
1.35667e-05
1.4758e-05
-1.22976e-05
1.38623e-05
1.55597e-05
1.52471e-05
-1.0466e-05
1.38575e-05
1.68479e-05
1.54595e-05
-1.22068e-05
1.44832e-05
1.80076e-05
1.65477e-05
-9.92029e-06
1.50907e-05
2.20831e-05
1.68226e-05
-1.01626e-05
1.63367e-05
2.37951e-05
1.8496e-05
-9.12896e-06
1.93386e-05
2.73806e-05
1.94545e-05
-2.71063e-06
2.23323e-05
2.8928e-05
2.42224e-05
6.93776e-06
2.78176e-05
2.94929e-05
3.30763e-05
-1.08074e-06
3.29641e-05
-9.7621e-07
3.2966e-05
5.16459e-08
3.30598e-05
-6.46742e-07
3.33056e-05
-6.05083e-07
3.31953e-05
4.26565e-07
3.36425e-05
-1.80702e-07
3.48229e-05
-8.16722e-07
3.55234e-05
-2.10039e-06
3.56476e-05
-4.13337e-06
3.57059e-05
-6.49428e-06
3.57205e-05
-1.02349e-05
3.55884e-05
-1.35734e-05
3.52197e-05
-1.66516e-05
3.46319e-05
-1.98535e-05
3.38988e-05
-2.14641e-05
3.28926e-05
-2.20894e-05
3.15733e-05
-2.18438e-05
3.00415e-05
-1.99055e-05
2.85243e-05
-1.65783e-05
2.74752e-05
-1.25405e-05
2.67616e-05
-7.96541e-06
2.64161e-05
-2.11774e-06
2.66804e-05
4.31903e-06
2.69415e-05
9.8449e-06
2.71e-05
1.40408e-05
2.72528e-05
1.49178e-05
2.70488e-05
1.29088e-05
2.61952e-05
9.89178e-06
2.51032e-05
6.05146e-06
2.42401e-05
2.23022e-06
2.34007e-05
-1.72066e-06
2.22348e-05
-5.10851e-06
2.12278e-05
-6.49438e-06
2.0951e-05
-7.1087e-06
2.0542e-05
-8.64444e-06
1.87503e-05
-7.0361e-06
1.57625e-05
2.25891e-06
1.30201e-05
1.25678e-05
1.07873e-05
1.17111e-05
8.62314e-06
-7.66674e-07
6.13352e-06
-1.99131e-05
3.11527e-06
-3.61522e-05
-3.50739e-07
-4.11665e-05
-2.04916e-06
-3.83342e-05
-2.61522e-06
-2.63872e-05
-2.81635e-06
-1.94557e-05
-1.77979e-06
-1.31869e-05
-1.87912e-06
-6.80708e-06
2.09526e-08
7.80787e-06
2.58077e-06
3.32867e-06
3.46243e-06