/*--------------------------------*- C++ -*----------------------------------*\
| =========                 |                                                 |
| \\      /  F ield         | OpenFOAM: The Open Source CFD Toolbox           |
|  \\    /   O peration     | Version:  2.4.0                                 |
|   \\  /    A nd           | Web:      www.OpenFOAM.org                      |
|    \\/     M anipulation  |                                                 |
\*---------------------------------------------------------------------------*/
FoamFile
{
    version     2.0;
    format      ascii;
    class       volScalarField;
    location    "0.119";
    object      k_0;
}
// * * * * * * * * * * * * * * * * * * * * * * * * * * * * * * * * * * * * * //

dimensions      [0 2 -2 0 0 0 0];

internalField   nonuniform List<scalar> 
17600
(
9.29398
7.40606
5.13228
3.92212
3.36028
2.92195
2.73553
2.43065
2.37183
2.15914
2.17196
1.9816
2.04208
1.8918
1.8988
1.87857
1.81605
1.86941
1.9515
1.46127
4.51287
6.19805
5.84712
5.04161
4.44436
3.89117
3.65536
3.24945
3.1693
2.89109
2.87404
2.65612
2.68828
2.52274
2.49987
2.48258
2.37097
2.39869
2.40667
2.35863
1.33418
3.2719
4.00312
3.95676
3.78734
3.4244
3.27578
2.95478
2.89019
2.66098
2.63407
2.45804
2.45584
2.34813
2.29324
2.27918
2.18983
2.17366
2.13973
2.24131
0.209896
1.18924
1.93558
2.31163
2.53299
2.49619
2.48927
2.36816
2.34018
2.20154
2.18651
2.07679
2.05876
2.00452
1.94494
1.92889
1.88766
1.84478
1.7821
1.84916
0.0263224
0.260579
0.651401
0.941429
1.27459
1.39963
1.5663
1.58355
1.63559
1.60293
1.62132
1.5896
1.57216
1.5682
1.54135
1.51301
1.50924
1.48424
1.42483
1.41092
0.00278399
0.0429018
0.148818
0.240926
0.443688
0.545005
0.714127
0.808577
0.913867
0.942228
1.01162
1.0464
1.04481
1.0804
1.08593
1.07572
1.08964
1.08169
1.06536
1.01469
0.000289623
0.00613259
0.023958
0.0435974
0.100293
0.14319
0.207575
0.295281
0.354921
0.404126
0.46364
0.541471
0.549378
0.60132
0.634983
0.641732
0.668412
0.676301
0.686784
0.649474
5.06062e-05
0.000819896
0.00311137
0.00594832
0.0149286
0.0268825
0.0391452
0.0715047
0.0913252
0.122131
0.14195
0.195078
0.204201
0.243438
0.272484
0.28476
0.312414
0.326528
0.350919
0.334369
2.67131e-05
0.000130491
0.000427327
0.000729894
0.0018075
0.00359359
0.00565322
0.011803
0.016182
0.0251273
0.0303526
0.0472815
0.0507722
0.0679568
0.0793067
0.086053
0.101536
0.109436
0.123314
0.119222
2.38094e-05
4.72038e-05
0.000107967
0.000132667
0.00025098
0.000457413
0.000753476
0.00156592
0.00230332
0.00377447
0.00464228
0.00801266
0.00860975
0.0127204
0.0154437
0.0170664
0.0219438
0.0241684
0.0282799
0.0274921
2.2989e-05
3.70482e-05
0.00010552
9.77627e-05
0.000106735
0.000129873
0.000163284
0.000260897
0.00046204
0.000623377
0.000709135
0.00125508
0.00133934
0.00192622
0.00225082
0.0024457
0.00329428
0.00359377
0.00437575
0.0042915
2.57816e-05
4.30596e-05
0.000123932
0.000103792
0.000105866
0.000103403
0.000102656
0.000136825
0.00018808
0.000210524
0.000231637
0.000360297
0.000373944
0.000437957
0.000485666
0.000492679
0.000531717
0.000569152
0.000708905
0.000711491
2.58426e-05
7.69965e-05
8.31397e-05
7.95676e-05
0.000100227
0.00010093
0.00010538
0.000142074
0.00015221
0.000154904
0.000175912
0.000213102
0.000210654
0.000237091
0.000260609
0.000256533
0.000249439
0.000252195
0.000284855
0.000279222
2.13665e-05
4.37655e-05
4.56553e-05
6.42433e-05
9.32772e-05
0.000102469
0.000116927
0.00013538
0.000132947
0.000140579
0.00014065
0.000137702
0.000136359
0.000158311
0.000177551
0.000184988
0.000186492
0.000189611
0.000188026
0.000185035
2.13742e-05
3.05652e-05
4.97821e-05
7.86328e-05
8.72635e-05
9.67959e-05
0.000114026
0.000110091
0.000107306
0.000110315
0.00010524
0.000105919
0.000115183
0.000126384
0.000137358
0.000149016
0.000151662
0.000151422
0.000143787
0.000149851
2.08024e-05
2.94866e-05
5.57295e-05
6.21005e-05
6.36981e-05
8.06517e-05
7.90955e-05
7.66484e-05
8.01768e-05
8.09404e-05
8.146e-05
8.56792e-05
9.14507e-05
9.36126e-05
9.86726e-05
0.000107268
0.00010926
0.000108247
0.000107948
0.000130136
2.21927e-05
3.56169e-05
4.84485e-05
4.62193e-05
4.69011e-05
5.77199e-05
6.01178e-05
6.44643e-05
7.67888e-05
7.68237e-05
7.67079e-05
8.17591e-05
8.13185e-05
8.14914e-05
8.75451e-05
9.2401e-05
9.50716e-05
9.37462e-05
9.63593e-05
0.000129609
2.07229e-05
2.77795e-05
4.18292e-05
4.12426e-05
4.25181e-05
4.87721e-05
5.23388e-05
6.16123e-05
6.51987e-05
6.51149e-05
6.60922e-05
6.69115e-05
6.59214e-05
6.61756e-05
7.04811e-05
7.10156e-05
7.1492e-05
7.24307e-05
7.52506e-05
7.63444e-05
2.06641e-05
2.63134e-05
4.24899e-05
4.26825e-05
4.31999e-05
4.63302e-05
5.04571e-05
5.48091e-05
5.56609e-05
5.68256e-05
5.83977e-05
5.93904e-05
5.92605e-05
5.93117e-05
5.95654e-05
5.97076e-05
6.0921e-05
6.51769e-05
6.69051e-05
8.15306e-05
2.04337e-05
2.97815e-05
3.71345e-05
3.89883e-05
4.19045e-05
4.7907e-05
4.99461e-05
5.12077e-05
5.31402e-05
5.28867e-05
5.29048e-05
5.39973e-05
5.45766e-05
5.50977e-05
5.57521e-05
5.61354e-05
5.65732e-05
5.82705e-05
5.78826e-05
6.5489e-05
2.06089e-05
2.74594e-05
3.25726e-05
3.57762e-05
4.86914e-05
5.0786e-05
4.95326e-05
4.98866e-05
4.88274e-05
4.80437e-05
4.83392e-05
5.27571e-05
5.48962e-05
5.48338e-05
5.42754e-05
5.3112e-05
5.32082e-05
5.33233e-05
5.48031e-05
6.74402e-05
2.06266e-05
2.45219e-05
2.94858e-05
4.57471e-05
5.21614e-05
5.04197e-05
4.5332e-05
4.36402e-05
4.34717e-05
4.43272e-05
5.12514e-05
5.65759e-05
5.63741e-05
5.33628e-05
5.21375e-05
5.10833e-05
5.18484e-05
5.25401e-05
5.49179e-05
9.17729e-05
2.06469e-05
2.4377e-05
3.73316e-05
5.03683e-05
4.74829e-05
4.17677e-05
4.01704e-05
4.10677e-05
4.58191e-05
5.3957e-05
5.83016e-05
5.82007e-05
5.44537e-05
5.10517e-05
5.04596e-05
5.07921e-05
5.35013e-05
5.63711e-05
5.79354e-05
6.76001e-05
2.08443e-05
2.58913e-05
4.53014e-05
4.5234e-05
3.91884e-05
3.81129e-05
4.27122e-05
5.25981e-05
5.73194e-05
5.98725e-05
5.89163e-05
5.43024e-05
5.12183e-05
5.11992e-05
5.32921e-05
5.95504e-05
6.24517e-05
6.32457e-05
6.40316e-05
6.78939e-05
2.10652e-05
3.00158e-05
4.10185e-05
3.84949e-05
3.74272e-05
4.38203e-05
5.84404e-05
6.0142e-05
5.92867e-05
5.6355e-05
5.34005e-05
5.33088e-05
5.42437e-05
5.95098e-05
6.76423e-05
6.95544e-05
6.93934e-05
6.7438e-05
6.72141e-05
7.22734e-05
2.1154e-05
2.98797e-05
3.56974e-05
3.80314e-05
4.88349e-05
5.86061e-05
5.89233e-05
5.52595e-05
5.34507e-05
5.44909e-05
5.73174e-05
6.58858e-05
7.0344e-05
7.3206e-05
7.58655e-05
7.52757e-05
7.35568e-05
7.40499e-05
7.59261e-05
8.24707e-05
2.14361e-05
2.74646e-05
3.89262e-05
5.06715e-05
5.64378e-05
5.61556e-05
5.47023e-05
5.43715e-05
5.7528e-05
7.36287e-05
7.77691e-05
8.05637e-05
8.0668e-05
8.09984e-05
8.3514e-05
8.50973e-05
8.86339e-05
9.59776e-05
0.000110576
0.000155313
2.16615e-05
2.84209e-05
4.87501e-05
5.39049e-05
5.50066e-05
5.54193e-05
6.24939e-05
6.95145e-05
9.03045e-05
9.55053e-05
9.20933e-05
9.45867e-05
9.70628e-05
0.000104201
0.000125166
0.000143112
0.000166274
0.000217375
0.000334616
0.000708048
2.23008e-05
2.99019e-05
5.64484e-05
5.87409e-05
6.67804e-05
7.36266e-05
9.94772e-05
0.000104598
0.000128934
0.000132979
0.00013914
0.000188219
0.000217478
0.000287244
0.000408636
0.000537816
0.000724996
0.00117919
0.0020866
0.00492745
2.32388e-05
3.32969e-05
6.64066e-05
7.73995e-05
0.000102156
0.000126713
0.000200694
0.000222886
0.000363834
0.000445989
0.000562455
0.0010451
0.00126051
0.00183617
0.00258028
0.00381272
0.00515496
0.00869408
0.0134043
0.0292056
2.42084e-05
4.8026e-05
9.50814e-05
0.000212668
0.00029348
0.000457034
0.000942115
0.00122444
0.00235812
0.00331098
0.0042874
0.00780302
0.00938703
0.0134572
0.017532
0.0249979
0.0312
0.0472955
0.0636164
0.119469
2.80658e-05
0.000143455
0.000388804
0.00110761
0.00177361
0.00319601
0.00723806
0.00974197
0.0173041
0.0240991
0.0297973
0.0477828
0.055333
0.0714743
0.0885178
0.112271
0.130011
0.174115
0.211828
0.331317
5.11113e-05
0.000867067
0.0027066
0.00795677
0.0133638
0.0241712
0.049412
0.062259
0.0976274
0.121531
0.143553
0.199899
0.218478
0.253277
0.297435
0.337656
0.369169
0.442104
0.495771
0.633617
0.000287616
0.0062788
0.020625
0.0540412
0.0861257
0.146634
0.229569
0.270055
0.368699
0.411996
0.46882
0.548643
0.572163
0.617762
0.672982
0.706996
0.741108
0.811906
0.858842
0.969761
0.00277487
0.0432623
0.141846
0.267896
0.409375
0.568943
0.715724
0.793483
0.924753
0.955386
1.01539
1.05846
1.06983
1.0937
1.12605
1.13579
1.15791
1.19235
1.22471
1.28316
0.0262106
0.261736
0.647487
0.960023
1.2431
1.42914
1.54941
1.58943
1.63729
1.61635
1.6236
1.60223
1.59073
1.57075
1.56733
1.54816
1.54967
1.54295
1.54858
1.54463
0.208863
1.18966
1.93435
2.31638
2.52044
2.51344
2.47688
2.39179
2.32634
2.21492
2.18114
2.0811
2.05359
1.98864
1.96019
1.90257
1.88213
1.82759
1.79799
1.74144
1.32831
3.27453
4.00357
3.95443
3.78001
3.44919
3.22693
3.01379
2.85058
2.6876
2.6164
2.45315
2.4204
2.31641
2.26602
2.17311
2.12567
2.01336
1.93705
1.81562
4.50995
6.19569
5.84967
5.03216
4.44331
3.9144
3.59736
3.31801
3.10745
2.92541
2.83326
2.64342
2.61014
2.47471
2.40838
2.28235
2.20936
2.04388
1.91902
1.71922
9.29079
7.39808
5.13768
3.91531
3.35786
2.93936
2.69082
2.47433
2.31897
2.18162
2.11585
1.97382
1.9437
1.82897
1.76987
1.64689
1.5735
1.41166
1.27267
1.06344
1.29859
1.32972
0.860076
0.542407
0.482377
0.40039
0.325037
0.264813
0.184047
0.143712
0.142987
0.159487
0.187506
0.240808
0.284308
0.299655
0.297529
0.295831
0.288035
0.261766
0.174359
0.0852643
0.0354727
0.0138236
0.00736691
0.0052534
0.00595232
0.00578797
0.00627231
0.0107378
0.0159684
0.024384
0.0534
0.246932
0.359348
0.367152
0.316791
0.260067
0.200721
0.114695
0.0868276
0.124878
0.135666
0.11159
0.0900466
0.0660758
0.0547336
0.0554203
0.07037
0.0755907
0.0776912
0.0880604
0.0948168
0.0926541
0.0649248
0.0322443
0.0182986
0.0175876
0.0290745
0.0921499
0.174407
0.188085
0.165851
0.0936303
0.0586721
0.0461237
0.0445135
0.0510356
0.0505459
0.0506818
0.0513019
0.0514017
0.050527
0.0460881
0.038997
0.0363455
0.0361419
0.0385405
0.0406825
0.0408686
0.0410955
0.0426009
0.051818
0.0703971
0.0776326
0.0771132
0.0680996
0.0578264
0.0509526
0.0427992
0.0338827
0.0261599
0.0212679
0.0179069
0.0149974
0.0121906
0.0108394
0.0108056
0.0108109
0.0110865
0.012052
0.0131621
0.0132269
0.0135891
0.0152367
0.025756
0.0539577
0.0641186
0.0710378
0.0679141
0.0522302
0.0408598
0.0351063
0.0336661
0.0329972
0.0332527
0.0323878
0.0326685
0.0321345
0.0325281
0.0322353
0.0319308
0.0316475
0.031067
0.0290069
0.0264196
0.0253657
0.0255739
0.0307023
0.0377152
0.0408081
0.041794
0.0396193
0.0343742
0.0295025
0.0220553
0.0204716
0.0193359
0.0193358
0.0204239
0.0193824
0.0192691
0.0171677
0.0154969
0.0142195
0.0140705
0.0143663
0.0141857
0.0158055
0.026471
0.0469959
0.0585052
0.0677582
0.0860414
0.114961
0.133764
0.139941
0.14069
0.139494
0.128819
0.112638
0.103037
0.0993889
0.0997136
0.100928
0.100378
0.0927918
0.0807246
0.0734276
0.0728021
0.0825446
0.0901976
0.0847976
0.0582829
0.0422668
0.0392107
0.0389417
0.0346497
0.0263799
0.0250218
0.0325348
0.0293721
0.0347613
0.0353775
0.0510143
0.0538218
0.0705184
0.0693387
0.0769264
0.0761329
0.0801583
0.0861202
0.0881238
0.0866106
0.0818199
0.0618193
0.0427918
0.0284962
0.060353
0.384519
1.70634
1.50413
1.19719
1.04783
0.776862
0.496874
0.41068
0.337781
0.243947
0.20164
0.20211
0.242573
0.305206
0.349788
0.352961
0.336744
0.324684
0.313679
0.289834
0.225647
0.106688
0.0440841
0.0189871
0.00822303
0.00494579
0.00424525
0.00520376
0.00529639
0.00518663
0.0089298
0.0154012
0.0227797
0.0396382
0.214659
0.350612
0.347699
0.295388
0.240695
0.1692
0.096081
0.0888081
0.12302
0.124228
0.099954
0.0724034
0.055521
0.0512364
0.0570006
0.0743932
0.0784982
0.0816889
0.0947737
0.100877
0.0949275
0.0592842
0.0285749
0.0177246
0.0184819
0.0375266
0.119975
0.188007
0.188472
0.145379
0.082397
0.0560336
0.0455554
0.0445349
0.0511374
0.0514892
0.0506924
0.0519896
0.0521127
0.0503261
0.0425654
0.037718
0.0356301
0.0353942
0.0367605
0.0392313
0.0399986
0.0404156
0.041999
0.0495969
0.0681594
0.076615
0.0767222
0.0696259
0.0584924
0.0512759
0.0435485
0.034817
0.0266699
0.0214302
0.0179905
0.0154807
0.0130067
0.0118588
0.0118965
0.0121046
0.0126203
0.0140478
0.0152074
0.01507
0.0145206
0.0154387
0.0212792
0.0460323
0.0591581
0.0665476
0.0666017
0.0542887
0.0447818
0.0360984
0.0338598
0.03201
0.0321742
0.031941
0.0326686
0.0324615
0.0324088
0.031754
0.0316345
0.031393
0.0308014
0.02839
0.0259422
0.0252197
0.0256113
0.0314614
0.0379682
0.0405715
0.0409417
0.0371066
0.0326209
0.0279028
0.0204691
0.0191116
0.0175838
0.0180109
0.0193222
0.0186769
0.0187776
0.0170145
0.0157129
0.0141955
0.0142053
0.0144499
0.0142804
0.0156994
0.0274876
0.0504138
0.0604401
0.0722679
0.0956885
0.120585
0.136952
0.142623
0.142958
0.139652
0.121914
0.104646
0.0965471
0.0947574
0.0954698
0.0983881
0.0982075
0.0924479
0.0806642
0.0738725
0.0734742
0.0822543
0.0885612
0.0835104
0.0575429
0.0420692
0.0383218
0.0371906
0.0306554
0.026894
0.0257347
0.0299949
0.0276649
0.0270421
0.0290397
0.0468
0.0511858
0.0717093
0.0687046
0.0779865
0.0764022
0.0864716
0.0878604
0.101735
0.0949157
0.0929299
0.0699288
0.0606314
0.0340092
0.068264
0.279825
1.77256
1.45214
1.21025
1.04121
0.990584
0.813451
0.584069
0.421867
0.294985
0.24453
0.242836
0.299368
0.382967
0.403903
0.381169
0.349008
0.332857
0.30964
0.252527
0.126846
0.0518035
0.0216404
0.00973829
0.00448929
0.00354301
0.00363672
0.00446744
0.00470627
0.00452152
0.00692107
0.0138505
0.0207496
0.0318847
0.176439
0.349714
0.335864
0.275896
0.216532
0.138112
0.0915994
0.102284
0.120832
0.114958
0.0884931
0.0653095
0.0540215
0.0523762
0.0635256
0.0797501
0.0831879
0.0888493
0.103676
0.10684
0.0941976
0.0513862
0.0247037
0.0170968
0.0199766
0.0497322
0.145655
0.194369
0.184101
0.120464
0.0764206
0.05586
0.0468102
0.0450771
0.0505093
0.0520392
0.0507796
0.0534446
0.0533866
0.0505505
0.0413438
0.0368491
0.0350871
0.0351705
0.0364449
0.0385361
0.0392215
0.0397325
0.0413813
0.0476101
0.0653841
0.0755817
0.0762755
0.0706646
0.059147
0.0517418
0.0443884
0.0359757
0.0273596
0.0215898
0.0180376
0.0158798
0.0138124
0.0129854
0.0131852
0.0137129
0.0144701
0.0161708
0.0173401
0.0172486
0.0161462
0.0161508
0.0194123
0.0378946
0.0543799
0.0616462
0.0644845
0.0570186
0.0473216
0.0390009
0.0359393
0.0322445
0.0321484
0.0314818
0.0324678
0.0324822
0.0321702
0.0311888
0.0314353
0.0312352
0.0305252
0.0275874
0.0255664
0.0251489
0.0259231
0.0330808
0.0383798
0.0403133
0.039802
0.0352305
0.0311857
0.0258075
0.0191592
0.0172899
0.015886
0.0166947
0.0177626
0.0180554
0.0179458
0.0163859
0.0154564
0.0140522
0.0143954
0.0143172
0.0142635
0.0157431
0.0290578
0.0526983
0.0615294
0.0792921
0.099616
0.124966
0.142637
0.148337
0.148306
0.140804
0.114129
0.0965925
0.0901451
0.0896901
0.0908503
0.0952542
0.0957703
0.0916119
0.0804455
0.0738383
0.0735249
0.08181
0.0872413
0.0809634
0.0552998
0.0417994
0.0378799
0.0365775
0.0290755
0.0285394
0.0265137
0.0252555
0.0249081
0.0240912
0.0266893
0.0362453
0.0435557
0.0709444
0.0675849
0.0773087
0.0754102
0.0888035
0.0893588
0.115746
0.108738
0.112553
0.0819957
0.0794865
0.0437042
0.0742788
0.196484
1.58239
1.30368
1.1801
0.962844
0.901398
0.895837
0.829868
0.635569
0.428351
0.360191
0.371469
0.445827
0.462526
0.447518
0.382428
0.341806
0.297546
0.239226
0.121814
0.053143
0.0230881
0.0103754
0.00514469
0.00286983
0.00286914
0.00332751
0.00418152
0.00448023
0.00437241
0.00550227
0.0114851
0.0181079
0.027496
0.137781
0.348187
0.336413
0.25922
0.184371
0.118963
0.093983
0.112123
0.118403
0.110856
0.0859257
0.0644006
0.056012
0.0562124
0.0726829
0.0847967
0.0873512
0.097802
0.112218
0.112441
0.0872285
0.0439309
0.0211359
0.0167407
0.0221999
0.0691567
0.168803
0.197026
0.173348
0.101737
0.0735373
0.0596147
0.048824
0.0450958
0.0494981
0.0524745
0.0514141
0.055986
0.0550779
0.0502024
0.0401735
0.0360691
0.034628
0.0348663
0.036524
0.0384431
0.0388573
0.0391984
0.0408176
0.0465953
0.0616781
0.0738775
0.0755767
0.0719115
0.0601109
0.05212
0.0447238
0.0364287
0.0276565
0.0216413
0.0182081
0.0164144
0.014694
0.0140962
0.0144969
0.0153116
0.0163475
0.0180936
0.0191785
0.019038
0.0178525
0.017472
0.0190734
0.0305075
0.0496301
0.0573653
0.0612506
0.0574125
0.0495646
0.0411365
0.0390441
0.0344194
0.0331734
0.0315531
0.0319688
0.0319931
0.0312376
0.0305318
0.0311145
0.0310106
0.0297855
0.0267433
0.0253805
0.0252015
0.0266114
0.0345847
0.0388822
0.0404907
0.0385095
0.0329873
0.029124
0.0244686
0.0189869
0.0157582
0.014502
0.0150302
0.0158188
0.0173426
0.0171091
0.0161037
0.0151181
0.0140286
0.0146117
0.0141773
0.0141909
0.0163007
0.0305036
0.0540507
0.0634005
0.0838161
0.100291
0.130033
0.151879
0.158175
0.15737
0.14266
0.108854
0.0900061
0.0842844
0.0842825
0.0864618
0.091661
0.093093
0.0903772
0.0801429
0.0736656
0.0734349
0.0809594
0.0851921
0.0794298
0.0540961
0.0414613
0.0378524
0.0367247
0.0292454
0.0282468
0.026319
0.0227488
0.0233929
0.0233622
0.0263194
0.0322248
0.0404391
0.0601869
0.0590679
0.072965
0.0703185
0.087694
0.0862582
0.130802
0.123424
0.14307
0.0993146
0.106035
0.0631613
0.080903
0.14549
1.25336
1.07048
1.01174
0.894434
0.791714
0.804114
0.796564
0.755092
0.650085
0.58456
0.5648
0.538404
0.493481
0.410566
0.318855
0.249036
0.179751
0.0942977
0.0466755
0.021803
0.0102374
0.0051027
0.00291813
0.00215718
0.00225072
0.00319504
0.00340915
0.004271
0.00437662
0.00525422
0.00917138
0.0150045
0.0232483
0.0906859
0.340829
0.339562
0.254007
0.161762
0.111781
0.101342
0.115371
0.117475
0.110871
0.0870243
0.0661752
0.060707
0.0635524
0.0831812
0.0902099
0.0937889
0.110555
0.122014
0.116748
0.0764336
0.0357423
0.0182794
0.0164461
0.0260306
0.0950447
0.184594
0.197106
0.153168
0.0912168
0.0733977
0.064806
0.0488447
0.0448224
0.049435
0.05324
0.0528058
0.0572698
0.0559986
0.0484418
0.038925
0.0352701
0.0342456
0.0345657
0.036742
0.0385117
0.0388542
0.0389569
0.0404279
0.0465524
0.0591317
0.0712688
0.0746471
0.0721661
0.0612991
0.0523201
0.0446706
0.0365011
0.0279075
0.0219575
0.0187945
0.017093
0.0155893
0.0151452
0.0157471
0.0168428
0.0179334
0.0194864
0.0205144
0.0202177
0.0194762
0.0186268
0.0193925
0.0255548
0.0443476
0.0535909
0.0576898
0.0563853
0.0507347
0.0435487
0.0419765
0.0377605
0.0357797
0.0322769
0.0316326
0.0310788
0.0303498
0.0299588
0.0305103
0.0303226
0.0286117
0.0262795
0.0254572
0.0255575
0.0280742
0.036212
0.0399085
0.0406242
0.0358372
0.0314008
0.0268358
0.0236772
0.0190887
0.0152764
0.0138602
0.0140573
0.0142758
0.0165763
0.0166317
0.0158414
0.014965
0.0138412
0.0140198
0.0136155
0.014024
0.0174301
0.0309638
0.0543596
0.0656049
0.0864436
0.100932
0.13944
0.165564
0.170332
0.165052
0.142017
0.102645
0.0821225
0.0779918
0.078588
0.0815082
0.0882496
0.0900866
0.0883407
0.0794311
0.0732318
0.0731209
0.0802667
0.0834051
0.0770816
0.0526331
0.0423067
0.0370307
0.0370054
0.0307575
0.0267874
0.025325
0.0222151
0.0232567
0.0243576
0.0262222
0.0311131
0.0395714
0.054122
0.0549019
0.0610169
0.0618296
0.079196
0.079498
0.126378
0.133184
0.191584
0.135398
0.142417
0.0826908
0.0890643
0.120585
0.901923
0.794516
0.731027
0.69388
0.644258
0.644748
0.653879
0.659077
0.646755
0.625799
0.595233
0.522073
0.416337
0.295059
0.196652
0.115419
0.0641195
0.0345289
0.0179814
0.00879916
0.00458962
0.00270228
0.00188404
0.00178682
0.00194445
0.00284927
0.0028848
0.00385177
0.00441114
0.00554587
0.00785267
0.0121306
0.0191399
0.0545942
0.309433
0.349192
0.258349
0.156835
0.113626
0.109447
0.116733
0.116761
0.110672
0.0882683
0.0705326
0.0680687
0.075898
0.0923983
0.0962292
0.104447
0.126592
0.130499
0.114411
0.0618104
0.0284609
0.0162169
0.0162898
0.0321636
0.120935
0.198108
0.197252
0.1363
0.0880659
0.0803304
0.0657141
0.0476745
0.0454283
0.0493744
0.0534036
0.0543157
0.057453
0.0562594
0.0477801
0.0382079
0.0346807
0.034101
0.0344999
0.0372033
0.0388059
0.0390157
0.038924
0.0401132
0.0464868
0.0573257
0.0680107
0.0727847
0.0716566
0.0626541
0.05253
0.0444757
0.0368128
0.0286547
0.0229248
0.0196266
0.017843
0.0164391
0.0160524
0.0168056
0.01793
0.0190683
0.0201158
0.0216711
0.0212641
0.020988
0.0196203
0.0197987
0.0234056
0.0386355
0.0494017
0.0546606
0.0544691
0.0512868
0.0456309
0.0446434
0.0406929
0.0376499
0.0331206
0.0315885
0.0307057
0.0298794
0.029385
0.0295484
0.0293857
0.0278804
0.0261921
0.0259884
0.0263743
0.0303218
0.0377757
0.0408188
0.0408504
0.0338243
0.0283563
0.0247337
0.0229507
0.0192004
0.015314
0.0138112
0.0137028
0.0134843
0.0149326
0.0157652
0.0149668
0.0144971
0.0136744
0.0130359
0.0129483
0.013896
0.0188298
0.0277101
0.0531414
0.0713583
0.0872517
0.106145
0.154573
0.171493
0.172635
0.166074
0.132826
0.0943108
0.0751809
0.0716246
0.0725976
0.0763841
0.0850192
0.0873057
0.0861618
0.0785009
0.0724166
0.0722684
0.079232
0.0816337
0.0753102
0.0511593
0.0431769
0.0369159
0.0395535
0.033073
0.0260318
0.0232802
0.0221325
0.0231581
0.0246496
0.0248794
0.0312207
0.0412581
0.0532562
0.0540334
0.0560694
0.0577066
0.0627798
0.0634674
0.101326
0.118717
0.214083
0.1679
0.192451
0.126812
0.0958857
0.108219
0.580643
0.539858
0.484015
0.440818
0.436124
0.446212
0.453796
0.471027
0.499152
0.494196
0.467173
0.391272
0.273728
0.170031
0.0866693
0.0455093
0.0233473
0.0126127
0.00676503
0.00351164
0.00225605
0.00164309
0.0014234
0.00147449
0.00167537
0.00227759
0.00229482
0.00339044
0.00430913
0.0059409
0.00777885
0.00991387
0.0150932
0.034373
0.251376
0.345952
0.267671
0.160836
0.120186
0.113798
0.115581
0.113322
0.108758
0.0892147
0.0775254
0.0777019
0.0902105
0.0997138
0.104061
0.123825
0.140189
0.136604
0.100206
0.049068
0.0218996
0.0145171
0.0166194
0.0414677
0.148464
0.206521
0.193536
0.124191
0.0899262
0.0842023
0.0651724
0.0477058
0.0467932
0.0491155
0.0536365
0.0554691
0.0577361
0.0564955
0.0472878
0.0379943
0.0344629
0.0341043
0.0346841
0.038048
0.039572
0.0395339
0.0390577
0.0399359
0.0458243
0.0568975
0.0655071
0.0701806
0.0702518
0.0632306
0.0526622
0.0445817
0.0374772
0.0298104
0.0238813
0.0204678
0.0184807
0.017165
0.0168213
0.0174832
0.0188866
0.0199864
0.0206138
0.0224934
0.0222055
0.0220107
0.0207447
0.0205815
0.0225535
0.0339845
0.0447454
0.0516392
0.0526
0.0513429
0.0470364
0.0462022
0.0432239
0.0389599
0.0336011
0.0316814
0.0307355
0.029627
0.0292854
0.0292647
0.0292178
0.0276938
0.0268779
0.0269547
0.0277659
0.0330186
0.0394948
0.0414651
0.0407193
0.0318158
0.026032
0.0224919
0.0217965
0.0192272
0.0156712
0.0139207
0.0136843
0.0133624
0.0138913
0.0146748
0.0139296
0.0136989
0.0130963
0.0127066
0.0127715
0.013828
0.0190167
0.0269483
0.053819
0.0744454
0.0879783
0.119754
0.160117
0.170939
0.171675
0.161836
0.11989
0.0852778
0.0688719
0.0660653
0.0670163
0.071812
0.0809005
0.0842578
0.0836022
0.0773
0.0718784
0.0716472
0.0782915
0.0805446
0.0746297
0.0509047
0.0439079
0.0381545
0.0392826
0.0332332
0.0260895
0.0226038
0.0223771
0.0229479
0.0236539
0.0294761
0.0336163
0.0458469
0.0539788
0.0554696
0.056126
0.0568981
0.0601526
0.0589607
0.0836992
0.117907
0.222824
0.200631
0.200631
0.169843
0.10887
0.108555
0.301541
0.288111
0.252407
0.224749
0.225593
0.243048
0.2517
0.271371
0.290074
0.28514
0.263461
0.202125
0.114358
0.0589212
0.0288586
0.0147099
0.0076192
0.00435975
0.0025144
0.00157026
0.00136362
0.00118824
0.00115156
0.00124598
0.00158341
0.00182424
0.00204789
0.00251707
0.00361503
0.00555599
0.00885204
0.00905425
0.0115421
0.0226305
0.171197
0.331378
0.287133
0.175255
0.129334
0.117372
0.113407
0.111337
0.10817
0.0916565
0.086381
0.0893762
0.10229
0.107932
0.120567
0.146921
0.151094
0.1369
0.0792416
0.0362052
0.0166214
0.0131712
0.0178408
0.056149
0.173505
0.213133
0.184548
0.118867
0.104186
0.0877204
0.0607118
0.048097
0.0473248
0.0492798
0.0547751
0.0566186
0.0576691
0.0565557
0.0468482
0.0379108
0.0344418
0.0343276
0.0353405
0.0394682
0.0407496
0.0405104
0.0393723
0.0399019
0.0448003
0.0562704
0.0636302
0.0673499
0.0682656
0.0628945
0.0529906
0.0452657
0.0381687
0.0305737
0.0245335
0.0211223
0.0190129
0.0177943
0.017458
0.0179183
0.0193015
0.0207536
0.0212131
0.0228575
0.022817
0.0227689
0.0219431
0.0212978
0.0222801
0.0303288
0.0402914
0.0481229
0.050481
0.0503746
0.0485005
0.0478367
0.0452599
0.0404774
0.0342736
0.0321554
0.0312315
0.0296566
0.0294159
0.0293934
0.0293661
0.0280856
0.0279482
0.0283191
0.0296822
0.0358494
0.0408573
0.041924
0.0401344
0.0305882
0.0242889
0.0209558
0.0204916
0.0190649
0.0163858
0.0141041
0.0138293
0.0135035
0.0134119
0.0137605
0.0130003
0.0126345
0.0120878
0.0123929
0.0131004
0.0140941
0.0175733
0.0249229
0.056237
0.0743975
0.0944094
0.130557
0.161453
0.169681
0.171144
0.160816
0.112182
0.0765683
0.0620172
0.0603843
0.061653
0.0674471
0.0772595
0.0811463
0.0808169
0.0756335
0.0709251
0.07042
0.0767465
0.0786196
0.0745619
0.0512852
0.0466081
0.0399244
0.0375242
0.0321328
0.0264138
0.0225345
0.0233835
0.0231924
0.0243387
0.0360529
0.0339826
0.0485201
0.0514177
0.0603579
0.0573528
0.0622681
0.0619811
0.0614843
0.065662
0.0964634
0.327784
0.262344
0.226667
0.179345
0.134356
0.111505
0.111132
0.106999
0.091825
0.0791232
0.080903
0.092731
0.097948
0.110771
0.119375
0.11443
0.0996777
0.0648457
0.0353656
0.0174858
0.0086429
0.00449983
0.00254899
0.00163729
0.0011681
0.00100082
0.00102315
0.000986593
0.000968558
0.00105539
0.00134284
0.00147241
0.00193221
0.00228089
0.00286516
0.00389035
0.00929379
0.00893948
0.00988498
0.0170226
0.0959119
0.307813
0.307289
0.209764
0.147882
0.123878
0.113689
0.11145
0.108912
0.0975351
0.0969589
0.104406
0.113582
0.122481
0.151869
0.163872
0.158326
0.117488
0.0587564
0.0251469
0.0127048
0.0124161
0.0205323
0.0779021
0.193155
0.216941
0.173416
0.129478
0.118689
0.088714
0.0587646
0.0479973
0.0475901
0.050207
0.0559488
0.0572771
0.0570966
0.0566525
0.0469852
0.0380191
0.0347253
0.0349128
0.0365145
0.0414801
0.0423353
0.041837
0.0399078
0.0400662
0.0437331
0.05532
0.0628774
0.0651316
0.0651121
0.0616255
0.0530588
0.0455239
0.0383305
0.0306404
0.0247294
0.0218589
0.0197998
0.0185612
0.0180979
0.0184109
0.0194073
0.0216363
0.0219379
0.0228943
0.0233517
0.0234138
0.0230636
0.0220012
0.0223434
0.0275616
0.0366859
0.0448723
0.0483605
0.0491812
0.0489619
0.0488023
0.0471063
0.0420026
0.0350887
0.0330316
0.0317317
0.0297889
0.029803
0.0298785
0.0299211
0.0293565
0.0295218
0.0302193
0.0322129
0.0384682
0.0419394
0.0422313
0.0387591
0.0297098
0.0231529
0.020214
0.0197696
0.018551
0.0172103
0.0145935
0.0141625
0.0139099
0.0131036
0.0129977
0.0124205
0.0116011
0.0112285
0.0120364
0.0135432
0.0148873
0.0171364
0.0239392
0.0578889
0.0737083
0.10492
0.132699
0.161075
0.171475
0.175311
0.165537
0.112055
0.0707191
0.0559491
0.0548037
0.0565636
0.0629441
0.0742132
0.0782966
0.0782308
0.0738602
0.0695898
0.0691885
0.0751315
0.0774377
0.0746137
0.0522857
0.0473597
0.0417134
0.0371248
0.0301328
0.0276718
0.0233804
0.0241924
0.0253195
0.0261896
0.0286151
0.02888
0.0434243
0.0478761
0.0633026
0.0581117
0.064683
0.0617813
0.0628082
0.0701241
0.102047
0.224752
0.286995
0.288884
0.215389
0.172352
0.120477
0.0263856
0.0258775
0.0223428
0.0195489
0.0202378
0.0233354
0.0244616
0.0278424
0.0292435
0.0279347
0.0231322
0.0150721
0.00858856
0.00451151
0.00262096
0.0015425
0.00107679
0.000882185
0.000805958
0.000839197
0.000886742
0.000838189
0.000844018
0.000972629
0.000998491
0.00113799
0.00173883
0.00216316
0.00265909
0.00308946
0.00787874
0.0086551
0.00884776
0.0150332
0.0579444
0.272911
0.308547
0.26573
0.170161
0.134832
0.116562
0.114573
0.113534
0.109707
0.112574
0.123767
0.132937
0.15733
0.174087
0.171927
0.152081
0.0865671
0.0397305
0.0165797
0.0106548
0.0121148
0.0254129
0.101618
0.211094
0.219433
0.169822
0.151988
0.131172
0.0867542
0.0557971
0.0472862
0.0478718
0.0512841
0.0571114
0.0577685
0.0570553
0.0574311
0.0483925
0.0389155
0.0355966
0.0359125
0.037999
0.0437613
0.0441139
0.0434158
0.0407184
0.0403853
0.042855
0.0535501
0.0619059
0.0636974
0.0627869
0.0573898
0.0509446
0.0440287
0.0364561
0.0298246
0.0247494
0.0229272
0.0210201
0.01948
0.0187987
0.0190147
0.0196853
0.0220277
0.0227453
0.0230828
0.0236012
0.0238886
0.0238578
0.0225652
0.0225089
0.0255024
0.0338871
0.0420865
0.0461297
0.0477114
0.048746
0.04889
0.0481316
0.0440241
0.0362092
0.0336722
0.0318183
0.0298076
0.0303057
0.0306474
0.0310883
0.0310135
0.0313119
0.0320606
0.0350781
0.0406032
0.0424846
0.0419955
0.0365991
0.0288364
0.022435
0.0196946
0.0191447
0.0181124
0.017674
0.0154726
0.0147307
0.014284
0.013026
0.0124907
0.011616
0.0110986
0.0107722
0.0118973
0.0141649
0.0160329
0.018188
0.0271073
0.060828
0.0756912
0.112399
0.127169
0.161056
0.179636
0.18861
0.17783
0.114376
0.0675802
0.0515256
0.0501842
0.0520539
0.0592264
0.0706302
0.0753313
0.0754808
0.0722355
0.0687559
0.0682017
0.0736307
0.0753538
0.0740081
0.0542458
0.0483715
0.0430319
0.0375968
0.0299036
0.027227
0.0244856
0.0240393
0.0255945
0.0251686
0.0252847
0.0275682
0.0382832
0.0479225
0.0575536
0.0582272
0.0539548
0.0557558
0.0568161
0.0643022
0.120356
0.146002
0.248349
0.285929
0.266485
0.209104
0.139761
0.00413384
0.00404363
0.00366692
0.00332438
0.00338368
0.00363982
0.00375513
0.00397278
0.00431566
0.00425237
0.00356341
0.0029831
0.00211739
0.00147183
0.00110889
0.000765674
0.000686709
0.000667619
0.000681327
0.000772573
0.000770856
0.000682443
0.000683834
0.000708439
0.000795715
0.00104706
0.00164772
0.00214106
0.00264832
0.00306407
0.00564403
0.00826648
0.00807335
0.0126793
0.0375276
0.213881
0.295649
0.278034
0.218593
0.157629
0.126606
0.124974
0.126267
0.13247
0.144985
0.155148
0.172306
0.183493
0.182889
0.17218
0.117306
0.0581661
0.0244186
0.0114209
0.00960309
0.0133125
0.0325261
0.127898
0.224387
0.220646
0.174584
0.169313
0.135404
0.0856753
0.0554182
0.0468441
0.0482755
0.0532513
0.0593254
0.0584565
0.0574974
0.0588766
0.0495831
0.0394986
0.036821
0.0373707
0.0396637
0.0458373
0.0456576
0.0447758
0.0418271
0.0408099
0.0424789
0.0510345
0.0607015
0.0631097
0.0615623
0.0542083
0.0457648
0.0388595
0.0330856
0.0285714
0.0252708
0.0244517
0.0224909
0.020431
0.0193545
0.0198544
0.0202444
0.0220227
0.0237772
0.0238161
0.0239338
0.0241001
0.0243919
0.0233023
0.0227647
0.0243651
0.031442
0.0396608
0.0442558
0.0463147
0.0481706
0.0487661
0.0485794
0.0456719
0.0377431
0.0340727
0.0314242
0.0296413
0.0302586
0.0313838
0.0321548
0.0323139
0.0326742
0.0335404
0.038157
0.0423013
0.0428056
0.0407419
0.034307
0.0277497
0.0219514
0.0194185
0.0187013
0.0176593
0.0175878
0.016565
0.0154669