/*--------------------------------*- C++ -*----------------------------------*\
| =========                 |                                                 |
| \\      /  F ield         | OpenFOAM: The Open Source CFD Toolbox           |
|  \\    /   O peration     | Version:  2.4.0                                 |
|   \\  /    A nd           | Web:      www.OpenFOAM.org                      |
|    \\/     M anipulation  |                                                 |
\*---------------------------------------------------------------------------*/
FoamFile
{
    version     2.0;
    format      ascii;
    class       surfaceScalarField;
    location    "0.119";
    object      phi;
}
// * * * * * * * * * * * * * * * * * * * * * * * * * * * * * * * * * * * * * //

dimensions      [0 3 -1 0 0 0 0];

internalField   nonuniform List<scalar> 
34880
(
5.48781e-06
7.01219e-06
3.12724e-06
2.36057e-06
2.46984e-06
6.57403e-07
2.21776e-06
2.52074e-07
2.08039e-06
1.37372e-07
1.95833e-06
1.2206e-07
1.89644e-06
6.18898e-08
1.81919e-06
7.72573e-08
1.76866e-06
5.05227e-08
1.74e-06
2.86604e-08
1.71747e-06
2.25345e-08
1.66513e-06
5.23387e-08
1.66945e-06
-4.32316e-09
1.65647e-06
1.29804e-08
1.61817e-06
3.8297e-08
1.63874e-06
-2.0569e-08
1.64558e-06
-6.84212e-09
1.72094e-06
-7.53591e-08
1.3716e-06
3.49342e-07
-2.39981e-06
3.77142e-06
1.01102e-05
9.40194e-06
7.83453e-06
4.63629e-06
6.70594e-06
1.78599e-06
6.06489e-06
8.9312e-07
5.64767e-06
5.54597e-07
5.34057e-06
4.29158e-07
5.13568e-06
2.66781e-07
4.9408e-06
2.72138e-07
4.80288e-06
1.88438e-07
4.70873e-06
1.22819e-07
4.62246e-06
1.08797e-07
4.51814e-06
1.56656e-07
4.50393e-06
9.89504e-09
4.42443e-06
9.24786e-08
4.38283e-06
7.98953e-08
4.3805e-06
-1.82399e-08
4.36402e-06
9.63968e-09
4.51107e-06
-2.22412e-07
4.2197e-06
6.40709e-07
-3.72026e-06
5.54015e-06
1.24234e-05
9.47858e-06
1.10095e-05
6.05019e-06
9.97617e-06
2.81929e-06
9.2061e-06
1.66319e-06
8.61642e-06
1.14428e-06
8.18566e-06
8.59917e-07
7.86812e-06
5.84318e-07
7.59195e-06
5.48303e-07
7.38027e-06
4.00122e-07
7.23195e-06
2.71139e-07
7.09153e-06
2.49214e-07
6.94668e-06
3.01507e-07
6.91385e-06
4.27257e-08
6.77244e-06
2.33891e-07
6.73511e-06
1.17222e-07
6.70445e-06
1.24215e-08
6.65594e-06
5.81446e-08
6.81109e-06
-3.77554e-07
6.7441e-06
7.07689e-07
-4.14875e-06
7.17259e-06
1.34094e-05
8.56919e-06
1.28937e-05
6.56592e-06
1.23211e-05
3.3919e-06
1.17237e-05
2.26053e-06
1.11263e-05
1.7417e-06
1.06583e-05
1.32788e-06
1.02834e-05
9.59218e-07
9.95657e-06
8.75167e-07
9.69812e-06
6.58581e-07
9.50893e-06
4.60325e-07
9.33179e-06
4.26348e-07
9.14782e-06
4.85484e-07
9.10922e-06
8.13176e-08
8.91441e-06
4.2871e-07
8.87201e-06
1.59619e-07
8.82902e-06
5.54102e-08
8.75224e-06
1.34919e-07
8.84781e-06
-4.73117e-07
8.9877e-06
5.67795e-07
-4.14646e-06
8.98541e-06
1.35888e-05
7.48039e-06
1.36631e-05
6.49166e-06
1.36168e-05
3.43819e-06
1.34135e-05
2.46382e-06
1.3006e-05
2.14916e-06
1.26273e-05
1.70657e-06
1.22839e-05
1.30268e-06
1.19589e-05
1.20018e-06
1.16973e-05
9.20173e-07
1.14928e-05
6.64822e-07
1.13076e-05
6.11522e-07
1.10929e-05
7.00142e-07
1.10619e-05
1.12386e-07
1.08376e-05
6.52949e-07
1.07787e-05
2.18596e-07
1.07379e-05
9.61677e-08
1.06538e-05
2.19038e-07
1.06639e-05
-4.83195e-07
1.09005e-05
3.31193e-07
-3.89951e-06
1.06535e-05
1.34832e-05
6.49722e-06
1.37517e-05
6.2231e-06
1.39862e-05
3.2037e-06
1.41608e-05
2.28919e-06
1.40662e-05
2.24378e-06
1.3902e-05
1.87083e-06
1.37085e-05
1.49612e-06
1.34656e-05
1.44312e-06
1.32669e-05
1.11882e-06
1.30884e-05
8.43309e-07
1.29383e-05
7.6171e-07
1.27152e-05
9.23211e-07
1.27045e-05
1.23109e-07
1.24889e-05
8.68536e-07
1.24121e-05
2.95337e-07
1.23786e-05
1.2966e-07
1.23116e-05
2.86117e-07
1.22524e-05
-4.24015e-07
1.25091e-05
7.44378e-08
-3.48778e-06
1.20974e-05
1.33723e-05
5.6249e-06
1.3681e-05
5.9144e-06
1.39065e-05
2.97817e-06
1.42363e-05
1.95941e-06
1.43708e-05
2.10934e-06
1.44056e-05
1.83601e-06
1.44217e-05
1.48002e-06
1.43285e-05
1.53632e-06
1.42647e-05
1.18261e-06
1.41657e-05
9.42287e-07
1.41132e-05
8.14201e-07
1.39207e-05
1.11577e-06
1.39467e-05
9.70725e-08
1.37874e-05
1.02783e-06
1.37136e-05
3.69148e-07
1.36892e-05
1.54074e-07
1.36517e-05
3.23608e-07
1.35735e-05
-3.45873e-07
1.37911e-05
-1.43134e-07
-2.9102e-06
1.32135e-05
1.32998e-05
4.82512e-06
1.37015e-05
5.51271e-06
1.37639e-05
2.91573e-06
1.40936e-05
1.62975e-06
1.43171e-05
1.88583e-06
1.44078e-05
1.74531e-06
1.45553e-05
1.33247e-06
1.45878e-05
1.50389e-06
1.4646e-05
1.12435e-06
1.46332e-05
9.55102e-07
1.47272e-05
7.20237e-07
1.46068e-05
1.23618e-06
1.46794e-05
2.44825e-08
1.46246e-05
1.08258e-06
1.4598e-05
3.95713e-07
1.45979e-05
1.54263e-07
1.45899e-05
3.31529e-07
1.45586e-05
-3.14574e-07
1.47242e-05
-3.0874e-07
-2.05877e-06
1.38728e-05
1.3231e-05
4.09408e-06
1.3705e-05
5.03872e-06
1.3691e-05
2.92977e-06
1.39473e-05
1.37342e-06
1.42196e-05
1.6136e-06
1.42825e-05
1.68237e-06
1.44544e-05
1.16053e-06
1.45562e-05
1.40208e-06
1.4657e-05
1.02361e-06
1.46645e-05
9.47549e-07
1.48637e-05
5.21125e-07
1.48219e-05
1.27794e-06
1.49029e-05
-5.64805e-08
1.49553e-05
1.03018e-06
1.49971e-05
3.53832e-07
1.50442e-05
1.07235e-07
1.50536e-05
3.22057e-07
1.51278e-05
-3.88744e-07
1.53271e-05
-5.08064e-07
-2.35569e-06
1.5624e-05
1.31248e-05
3.46931e-06
1.36869e-05
4.47654e-06
1.36948e-05
2.92193e-06
1.38784e-05
1.18984e-06
1.41847e-05
1.30731e-06
1.42012e-05
1.66579e-06
1.43398e-05
1.022e-06
1.44791e-05
1.26279e-06
1.4568e-05
9.34638e-07
1.45672e-05
9.48418e-07
1.47912e-05
2.97057e-07
1.4818e-05
1.25117e-06
1.48699e-05
-1.08366e-07
1.49803e-05
9.19784e-07
1.50494e-05
2.84684e-07
1.51345e-05
2.21556e-08
1.51525e-05
3.04092e-07
1.53068e-05
-5.43069e-07
1.54938e-05
-6.95107e-07
-2.49775e-06
1.56359e-05
1.30384e-05
2.93092e-06
1.36208e-05
3.89417e-06
1.36835e-05
2.8592e-06
1.38736e-05
9.99691e-07
1.41498e-05
1.0312e-06
1.41433e-05
1.67222e-06
1.42735e-05
8.91813e-07
1.44178e-05
1.11854e-06
1.44877e-05
8.64747e-07
1.45216e-05
9.14445e-07
1.46981e-05
1.20621e-07
1.47646e-05
1.18462e-06
1.47975e-05
-1.41214e-07
1.49434e-05
7.7382e-07
1.50069e-05
2.21251e-07
1.50973e-05
-6.83127e-08
1.51193e-05
2.82168e-07
1.52871e-05
-7.10929e-07
1.54728e-05
-8.80816e-07
-2.61168e-06
1.55867e-05
1.30277e-05
2.40319e-06
1.35375e-05
3.38438e-06
1.35957e-05
2.801e-06
1.38356e-05
7.59785e-07
1.4034e-05
8.32795e-07
1.4075e-05
1.63125e-06
1.42474e-05
7.19365e-07
1.43644e-05
1.00164e-06
1.44612e-05
7.67932e-07
1.4545e-05
8.30583e-07
1.46255e-05
4.0178e-08
1.46994e-05
1.11068e-06
1.47195e-05
-1.61286e-07
1.48918e-05
6.01521e-07
1.49375e-05
1.75556e-07
1.50345e-05
-1.65393e-07
1.50776e-05
2.39068e-07
1.52216e-05
-8.54847e-07
1.53872e-05
-1.04645e-06
-2.70625e-06
1.54818e-05
1.30039e-05
1.89931e-06
1.34007e-05
2.98754e-06
1.35417e-05
2.66001e-06
1.3757e-05
5.44519e-07
1.38909e-05
6.98815e-07
1.40479e-05
1.47427e-06
1.42297e-05
5.37624e-07
1.43108e-05
9.2051e-07
1.44628e-05
6.1588e-07
1.455e-05
7.43424e-07
1.45308e-05
5.93477e-08
1.46373e-05
1.00423e-06
1.46532e-05
-1.7722e-07
1.48014e-05
4.53381e-07
1.48505e-05
1.26416e-07
1.49701e-05
-2.84947e-07
1.50569e-05
1.52231e-07
1.51465e-05
-9.44466e-07
1.52671e-05
-1.16707e-06
-2.7691e-06
1.533e-05
1.28915e-05
1.50783e-06
1.32605e-05
2.61849e-06
1.3583e-05
2.33756e-06
1.36842e-05
4.43296e-07
1.38287e-05
5.54346e-07
1.40736e-05
1.22935e-06
1.4176e-05
4.35191e-07
1.42605e-05
8.36076e-07
1.44322e-05
4.44164e-07
1.44784e-05
6.97212e-07
1.44333e-05
1.04478e-07
1.46107e-05
8.26778e-07
1.46023e-05
-1.68795e-07
1.47158e-05
3.39877e-07
1.47925e-05
4.96687e-08
1.49112e-05
-4.03577e-07
1.50234e-05
3.99597e-08
1.50681e-05
-9.89165e-07
1.51875e-05
-1.28645e-06
-3.01205e-06
1.54305e-05
1.27927e-05
1.21508e-06
1.32527e-05
2.15854e-06
1.36105e-05
1.97982e-06
1.36476e-05
4.06149e-07
1.38336e-05
3.68317e-07
1.40602e-05
1.00281e-06
1.40914e-05
4.03928e-07
1.42173e-05
7.10171e-07
1.43645e-05
2.97033e-07
1.4395e-05
6.66688e-07
1.44065e-05
9.29793e-08
1.4613e-05
6.2025e-07
1.45632e-05
-1.18928e-07
1.46767e-05
2.26356e-07
1.47733e-05
-4.69877e-08
1.48621e-05
-4.92373e-07
1.49779e-05
-7.58399e-08
1.50181e-05
-1.02937e-06
1.52403e-05
-1.50862e-06
-3.23982e-06
1.54681e-05
1.27901e-05
9.24968e-07
1.331e-05
1.63869e-06
1.35755e-05
1.71431e-06
1.36538e-05
3.2784e-07
1.38254e-05
1.96661e-07
1.39677e-05
8.60577e-07
1.40262e-05
3.4543e-07
1.41982e-05
5.38123e-07
1.43024e-05
1.92797e-07
1.43714e-05
5.97736e-07
1.44342e-05
3.01444e-08
1.45924e-05
4.62133e-07
1.45325e-05
-5.91101e-08
1.46752e-05
8.36838e-08
1.47613e-05
-1.33088e-07
1.48164e-05
-5.47501e-07
1.49511e-05
-2.10515e-07
1.50036e-05
-1.08184e-06
1.52799e-05
-1.78497e-06
-3.15585e-06
1.51959e-05
1.28063e-05
6.18696e-07
1.32653e-05
1.17966e-06
1.35239e-05
1.45574e-06
1.36792e-05
1.72567e-07
1.37706e-05
1.05191e-07
1.38826e-05
7.48589e-07
1.40357e-05
1.9236e-07
1.41908e-05
3.83054e-07
1.42591e-05
1.24448e-07
1.43802e-05
4.76612e-07
1.44265e-05
-1.6126e-08
1.4535e-05
3.53599e-07
1.45237e-05
-4.7775e-08
1.46747e-05
-6.73678e-08
1.47326e-05
-1.90909e-07
1.47681e-05
-5.83022e-07
1.49283e-05
-3.70705e-07
1.4996e-05
-1.14958e-06
1.51563e-05
-1.94529e-06
-1.95075e-06
1.39512e-05
1.27701e-05
3.48624e-07
1.31653e-05
7.84439e-07
1.35251e-05
1.09594e-06
1.36926e-05
5.02136e-09
1.37045e-05
9.33389e-08
1.38888e-05
5.64298e-07
1.40709e-05
1.02761e-08
1.41432e-05
3.10679e-07
1.42278e-05
3.99346e-08
1.43737e-05
3.30644e-07
1.43792e-05
-2.15923e-08
1.4499e-05
2.33812e-07
1.45293e-05
-7.81456e-08
1.46474e-05
-1.85397e-07
1.46892e-05
-2.32689e-07
1.47359e-05
-6.29801e-07
1.48944e-05
-5.29158e-07
1.4988e-05
-1.24315e-06
1.50494e-05
-2.00673e-06
-2.15944e-06
1.52581e-05
1.27229e-05
1.25675e-07
1.3158e-05
3.49372e-07
1.35605e-05
6.93506e-07
1.36783e-05
-1.12868e-07
1.36836e-05
8.80523e-08
1.39222e-05
3.25744e-07
1.40391e-05
-1.0663e-07
1.40853e-05
2.64451e-07
1.42263e-05
-1.01085e-07
1.43542e-05
2.02785e-07
1.43567e-05
-2.40646e-08
1.44916e-05
9.88912e-08
1.45215e-05
-1.08018e-07
1.46089e-05
-2.72842e-07
1.46703e-05
-2.94121e-07
1.47284e-05
-6.87829e-07
1.48811e-05
-6.81906e-07
1.49501e-05
-1.31211e-06
1.49846e-05
-2.04122e-06
-2.64843e-06
1.54735e-05
1.27187e-05
-9.29854e-08
1.32149e-05
-1.46897e-07
1.35639e-05
3.44581e-07
1.36432e-05
-1.92223e-07
1.36978e-05
3.35004e-08
1.39122e-05
1.11291e-07
1.3986e-05
-1.8045e-07
1.40873e-05
1.63175e-07
1.42474e-05
-2.61159e-07
1.43398e-05
1.10377e-07
1.43465e-05
-3.07918e-08
1.4484e-05
-3.86129e-08
1.45122e-05
-1.36207e-07
1.46007e-05
-3.61285e-07
1.46705e-05
-3.63958e-07
1.47398e-05
-7.57184e-07
1.48713e-05
-8.13368e-07
1.48881e-05
-1.32886e-06
1.50144e-05
-2.16755e-06
-3.30374e-06
1.56697e-05
1.27469e-05
-3.39875e-07
1.32284e-05
-6.28406e-07
1.35167e-05
5.63126e-08
1.36208e-05
-2.9637e-07
1.37204e-05
-6.61137e-08
1.38998e-05
-6.80398e-08
1.39886e-05
-2.69262e-07
1.41226e-05
2.91678e-08
1.426e-05
-3.98548e-07
1.43197e-05
5.06046e-08
1.43335e-05
-4.45904e-08
1.44846e-05
-1.89691e-07
1.45316e-05
-1.83176e-07
1.45947e-05
-4.2439e-07
1.46843e-05
-4.5357e-07
1.47423e-05
-8.1517e-07
1.48522e-05
-9.23268e-07
1.48586e-05
-1.33524e-06
1.50718e-05
-2.38076e-06
-3.91225e-06
1.56803e-05
1.27698e-05
-6.09641e-07
1.32018e-05
-1.06048e-06
1.34747e-05
-2.16554e-07
1.36435e-05
-4.65118e-07
1.37547e-05
-1.77326e-07
1.39038e-05
-2.17203e-07
1.40147e-05
-3.80171e-07
1.41382e-05
-9.42962e-08
1.42482e-05
-5.08517e-07
1.42996e-05
-8.01928e-10
1.43519e-05
-9.6873e-08
1.45017e-05
-3.39478e-07
1.45509e-05
-2.32375e-07
1.45884e-05
-4.61916e-07
1.47022e-05
-5.67358e-07
1.47272e-05
-8.40214e-07
1.48406e-05
-1.03669e-06
1.49066e-05
-1.40119e-06
1.49515e-05
-2.42565e-06
-2.80862e-06
1.38478e-05
1.27758e-05
-8.85404e-07
1.31817e-05
-1.4664e-06
1.34945e-05
-5.29377e-07
1.3693e-05
-6.6357e-07
1.37738e-05
-2.58144e-07
1.39009e-05
-3.44277e-07
1.40206e-05
-4.99923e-07
1.41396e-05
-2.13324e-07
1.42321e-05
-6.00991e-07
1.43157e-05
-8.44171e-08
1.43848e-05
-1.65951e-07
1.45276e-05
-4.82288e-07
1.45422e-05
-2.46954e-07
1.46107e-05
-5.30463e-07
1.46949e-05
-6.51494e-07
1.47406e-05
-8.85988e-07
1.48377e-05
-1.13374e-06
1.49545e-05
-1.51799e-06
1.50333e-05
-2.50447e-06
-3.00702e-06
1.52317e-05
1.27787e-05
-1.16408e-06
1.31974e-05
-1.88509e-06
1.35548e-05
-8.86769e-07
1.37154e-05
-8.24192e-07
1.37614e-05
-3.04178e-07
1.38943e-05
-4.77193e-07
1.40365e-05
-6.42049e-07
1.41527e-05
-3.29536e-07
1.425e-05
-6.98367e-07
1.43535e-05
-1.87887e-07
1.4415e-05
-2.27417e-07
1.45328e-05
-6.00123e-07
1.45496e-05
-2.63738e-07
1.46248e-05
-6.05694e-07
1.46977e-05
-7.2432e-07
1.47627e-05
-9.51007e-07
1.48543e-05
-1.22541e-06
1.49809e-05
-1.64451e-06
1.49874e-05
-2.51098e-06
-3.16832e-06
1.51487e-05
1.27991e-05
-1.46319e-06
1.32524e-05
-2.3384e-06
1.35955e-05
-1.2298e-06
1.36984e-05
-9.27169e-07
1.37517e-05
-3.57433e-07
1.39204e-05
-6.45907e-07
1.40822e-05
-8.03864e-07
1.41895e-05
-4.36808e-07
1.42841e-05
-7.92928e-07
1.43819e-05
-2.8574e-07
1.44325e-05
-2.78003e-07
1.45416e-05
-7.09232e-07
1.45723e-05
-2.94455e-07
1.46441e-05
-6.77504e-07
1.47269e-05
-8.07078e-07
1.47935e-05
-1.01758e-06
1.48725e-05
-1.30445e-06
1.49924e-05
-1.76445e-06
1.50054e-05
-2.52391e-06
-3.3263e-06
1.51633e-05
1.28404e-05
-1.80362e-06
1.32998e-05
-2.79781e-06
1.36006e-05
-1.53054e-06
1.36898e-05
-1.01643e-06
1.37897e-05
-4.5727e-07
1.39797e-05
-8.35904e-07
1.41293e-05
-9.53457e-07
1.42208e-05
-5.2835e-07
1.43007e-05
-8.72801e-07
1.44031e-05
-3.88159e-07
1.44578e-05
-3.32706e-07
1.45734e-05
-8.24791e-07
1.46041e-05
-3.25214e-07
1.46834e-05
-7.56818e-07
1.47652e-05
-8.88832e-07
1.48241e-05
-1.07653e-06
1.48883e-05
-1.36861e-06
1.50232e-05
-1.89931e-06
1.50632e-05
-2.56391e-06
-3.41093e-06
1.51478e-05
1.28828e-05
-2.18637e-06
1.33354e-05
-3.25048e-06
1.36115e-05
-1.80659e-06
1.37198e-05
-1.12478e-06
1.38534e-05
-5.90809e-07
1.4028e-05
-1.01052e-06
1.41564e-05
-1.08187e-06
1.42385e-05
-6.10428e-07
1.43276e-05
-9.61982e-07
1.44466e-05
-5.07101e-07
1.45055e-05
-3.91662e-07
1.46133e-05
-9.32528e-07
1.46467e-05
-3.58679e-07
1.47273e-05
-8.37414e-07
1.48026e-05
-9.64129e-07
1.48539e-05
-1.12781e-06
1.49205e-05
-1.43524e-06
1.50669e-05
-2.04566e-06
1.51024e-05
-2.59938e-06
-3.42881e-06
1.51202e-05
1.29284e-05
-2.61478e-06
1.33839e-05
-3.70597e-06
1.36039e-05
-2.02661e-06
1.37586e-05
-1.27945e-06
1.3903e-05
-7.35154e-07
1.40619e-05
-1.1695e-06
1.41922e-05
-1.2121e-06
1.42781e-05
-6.96321e-07
1.43868e-05
-1.07071e-06
1.45046e-05
-6.24953e-07
1.45557e-05
-4.42736e-07
1.46532e-05
-1.03002e-06
1.46952e-05
-4.00705e-07
1.47735e-05
-9.15657e-07
1.48426e-05
-1.03322e-06
1.49024e-05
-1.18768e-06
1.49667e-05
-1.49952e-06
1.50925e-05
-2.17148e-06
1.51233e-05
-2.63015e-06
-3.56779e-06
1.52623e-05
1.29868e-05
-3.10159e-06
1.34414e-05
-4.16051e-06
1.36181e-05
-2.20341e-06
1.37887e-05
-1.45004e-06
1.39492e-05
-8.95579e-07
1.41158e-05
-1.33616e-06
1.42503e-05
-1.34658e-06
1.4334e-05
-7.7997e-07
1.4453e-05
-1.18971e-06
1.45466e-05
-7.18595e-07
1.46033e-05
-4.99474e-07
1.47009e-05
-1.1276e-06
1.47572e-05
-4.56961e-07
1.48257e-05
-9.84221e-07
1.4899e-05
-1.10651e-06
1.49658e-05
-1.25442e-06
1.50014e-05
-1.53513e-06
1.51023e-05
-2.2724e-06
1.51588e-05
-2.68663e-06
-3.77598e-06
1.5367e-05
1.30518e-05
-3.65342e-06
1.35003e-05
-4.60897e-06
1.36469e-05
-2.35006e-06
1.38244e-05
-1.62755e-06
1.4016e-05
-1.08714e-06
1.4187e-05
-1.50714e-06
1.43083e-05
-1.46791e-06
1.43923e-05
-8.63904e-07
1.45124e-05
-1.30983e-06
1.45831e-05
-7.89291e-07
1.46729e-05
-5.89264e-07
1.47634e-05
-1.21817e-06
1.48328e-05
-5.26351e-07
1.4887e-05
-1.03843e-06
1.49681e-05
-1.18762e-06
1.50114e-05
-1.29764e-06
1.50246e-05
-1.54837e-06
1.51093e-05
-2.35707e-06
1.51798e-05
-2.75714e-06
-4.00053e-06
1.54043e-05
1.31194e-05
-4.27286e-06
1.35534e-05
-5.04293e-06
1.36832e-05
-2.47987e-06
1.38784e-05
-1.82277e-06
1.41004e-05
-1.3091e-06
1.42682e-05
-1.67491e-06
1.43677e-05
-1.56741e-06
1.44679e-05
-9.64157e-07
1.45782e-05
-1.42009e-06
1.46423e-05
-8.53476e-07
1.47629e-05
-7.09779e-07
1.48285e-05
-1.28385e-06
1.4904e-05
-6.01804e-07
1.49423e-05
-1.07675e-06
1.50069e-05
-1.2522e-06
1.50161e-05
-1.3068e-06
1.50204e-05
-1.5527e-06
1.50442e-05
-2.38089e-06
1.505e-05
-2.76295e-06
-4.1411e-06
1.51906e-05
1.31839e-05
-4.95672e-06
1.35996e-05
-5.45865e-06
1.37432e-05
-2.62352e-06
1.39592e-05
-2.03876e-06
1.42086e-05
-1.55851e-06
1.43624e-05
-1.82872e-06
1.44417e-05
-1.64669e-06
1.45677e-05
-1.09017e-06
1.46428e-05
-1.49517e-06
1.47093e-05
-9.19985e-07
1.48262e-05
-8.26679e-07
1.48389e-05
-1.29654e-06
1.48998e-05
-6.62651e-07
1.49024e-05
-1.0794e-06
1.49048e-05
-1.25459e-06
1.48667e-05
-1.26875e-06
1.48172e-05
-1.50319e-06
1.47111e-05
-2.27475e-06
1.45735e-05
-2.62532e-06
-4.15163e-06
1.4584e-05
1.32502e-05
-5.70693e-06
1.36535e-05
-5.86195e-06
1.38399e-05
-2.80992e-06
1.40716e-05
-2.27039e-06
1.43362e-05
-1.82317e-06
1.44516e-05
-1.94405e-06
1.45063e-05
-1.7014e-06
1.462e-05
-1.2039e-06
1.46155e-05
-1.49067e-06
1.46476e-05
-9.521e-07
1.46901e-05
-8.69153e-07
1.46072e-05
-1.21367e-06
1.4613e-05
-6.68435e-07
1.45357e-05
-1.00207e-06
1.44399e-05
-1.15885e-06
1.43301e-05
-1.15892e-06
1.41929e-05
-1.36599e-06
1.39551e-05
-2.03701e-06
1.36615e-05
-2.33168e-06
-3.18015e-06
1.269e-05
1.33386e-05
-6.54555e-06
1.36742e-05
-6.19752e-06
1.39628e-05
-3.09858e-06
1.41929e-05
-2.50042e-06
1.44027e-05
-2.03304e-06
1.4414e-05
-1.95528e-06
1.43719e-05
-1.65936e-06
1.43689e-05
-1.20084e-06
1.42251e-05
-1.34686e-06
1.41574e-05
-8.84419e-07
1.40765e-05
-7.88278e-07
1.38945e-05
-1.03168e-06
1.38263e-05
-6.00185e-07
1.3671e-05
-8.4679e-07
1.34977e-05
-9.85619e-07
1.33321e-05
-9.93296e-07
1.31251e-05
-1.159e-06
1.28105e-05
-1.72241e-06
1.24656e-05
-1.98677e-06
-2.91591e-06
1.22014e-05
1.34631e-05
-7.50869e-06
1.37486e-05
-6.48297e-06
1.40178e-05
-3.3678e-06
1.4118e-05
-2.60061e-06
1.40995e-05
-2.01456e-06
1.38963e-05
-1.75207e-06
1.36715e-05
-1.43456e-06
1.3497e-05
-1.02629e-06
1.32269e-05
-1.07678e-06
1.30666e-05
-7.24143e-07
1.2898e-05
-6.19711e-07
1.26669e-05
-8.00553e-07
1.25522e-05
-4.85517e-07
1.23579e-05
-6.5241e-07
1.21502e-05
-7.77915e-07
1.19534e-05
-7.96533e-07
1.17099e-05
-9.15502e-07
1.13589e-05
-1.37141e-06
1.09572e-05
-1.58505e-06
-2.17049e-06
1.02118e-05
1.35773e-05
-8.58595e-06
1.36604e-05
-6.56608e-06
1.36348e-05
-3.34223e-06
1.33803e-05
-2.34612e-06
1.30327e-05
-1.66697e-06
1.26176e-05
-1.33693e-06
1.22554e-05
-1.07233e-06
1.19773e-05
-7.48208e-07
1.16608e-05
-7.60302e-07
1.14622e-05
-5.25502e-07
1.12636e-05
-4.21166e-07
1.10302e-05
-5.6711e-07
1.08976e-05
-3.52934e-07
1.06965e-05
-4.51345e-07
1.0484e-05
-5.65441e-07
1.02754e-05
-5.87864e-07
1.00223e-05
-6.62461e-07
9.65889e-06
-1.00796e-06
9.24834e-06
-1.1745e-06
-1.55415e-06
8.632e-06
1.34026e-05
-9.48855e-06
1.289e-05
-6.05347e-06
1.23319e-05
-2.78413e-06
1.1701e-05
-1.71517e-06
1.1144e-05
-1.11e-06
1.0651e-05
-8.43985e-07
1.02588e-05
-6.80127e-07
9.96558e-06
-4.54964e-07
9.6673e-06
-4.62022e-07
9.47184e-06
-3.3005e-07
9.28693e-06
-2.36254e-07
9.07799e-06
-3.5817e-07
8.94764e-06
-2.22583e-07
8.76496e-06
-2.68663e-07
8.56636e-06
-3.66847e-07
8.36361e-06
-3.85111e-07
8.12242e-06
-4.21274e-07
7.7758e-06
-6.61347e-07
7.37454e-06
-7.73244e-07
-1.02795e-06
6.84834e-06
1.24186e-05
-9.40715e-06
1.10047e-05
-4.63954e-06
9.98412e-06
-1.76358e-06
9.19113e-06
-9.22182e-07
8.62514e-06
-5.44001e-07
8.18482e-06
-4.0367e-07
7.84333e-06
-3.38632e-07
7.59727e-06
-2.08908e-07
7.35617e-06
-2.20921e-07
7.19169e-06
-1.65571e-07
7.05e-06
-9.45675e-08
6.87856e-06
-1.86729e-07
6.76711e-06
-1.11133e-07
6.62184e-06
-1.23391e-07
6.4503e-06
-1.9531e-07
6.27057e-06
-2.05378e-07
6.06293e-06
-2.13632e-07
5.75668e-06
-3.55101e-07
5.39318e-06
-4.09745e-07
-5.66646e-07
4.93188e-06
1.01066e-05
-7.01374e-06
7.82959e-06
-2.36254e-06
6.71379e-06
-6.47784e-07
6.05458e-06
-2.62966e-07
5.6487e-06
-1.38119e-07
5.34811e-06
-1.03079e-07
5.10755e-06
-9.80768e-08
4.94788e-06
-4.92332e-08
4.78622e-06
-5.92695e-08
4.67118e-06
-5.05308e-08
4.59002e-06
-1.3402e-08
4.46355e-06
-6.02649e-08
4.38597e-06
-3.35531e-08
4.29134e-06
-2.87587e-08
4.1602e-06
-6.41702e-08
4.02275e-06
-6.79299e-08
3.87184e-06
-6.27279e-08
3.63337e-06
-1.16628e-07
3.35324e-06
-1.29613e-07
-2.07926e-07
2.99452e-06
5.48626e-06
3.12372e-06
2.47594e-06
2.21297e-06
2.07485e-06
1.97177e-06
1.8737e-06
1.82446e-06
1.7652e-06
1.71466e-06
1.70126e-06
1.641e-06
1.60744e-06
1.57869e-06
1.51452e-06
1.44659e-06
1.38386e-06
1.26723e-06
1.13762e-06
9.29691e-07
3.10492e-06
-2.72279e-06
3.38929e-06
2.25256e-06
-1.36731e-06
2.21967e-06
2.15247e-06
-2.09413e-07
3.095e-07
2.91378e-06
9.37615e-07
-1.69893e-06
4.98975e-06
1.07688e-06
-3.15284e-06
7.31413e-06
3.27038e-06
-5.59477e-06
9.39361e-06
6.75207e-06
-8.83155e-06
1.11999e-05
6.8057e-06
-8.61197e-06
1.22959e-05
6.21994e-06
-7.316e-06
1.31014e-05
5.72024e-06
-6.52573e-06
1.35889e-05
2.61577e-06
-3.10323e-06
1.39317e-05
-1.0039e-06
6.61056e-07
1.38753e-05
-2.86053e-06
2.91692e-06
1.38446e-05
-5.0861e-06
5.11686e-06
1.39947e-05
-8.03141e-06
7.88126e-06
1.37325e-05
-1.05531e-05
1.08153e-05
1.34114e-05
-1.11497e-05
1.14708e-05
1.34954e-05
-1.14147e-05
1.13307e-05
1.42804e-05
-1.38175e-05
1.30325e-05
1.47985e-05
-1.61546e-05
1.56365e-05
1.47876e-05
-1.84634e-05
1.84742e-05
1.4109e-05
-1.915e-05
1.98286e-05
1.30438e-05
-1.95073e-05
2.05725e-05
1.20001e-05
-1.85274e-05
1.95711e-05
1.10827e-05
-1.79805e-05
1.88979e-05
1.03235e-05
-1.70775e-05
1.78367e-05
9.38199e-06
-1.57116e-05
1.66532e-05
8.73359e-06
-1.444e-05
1.50884e-05
8.10875e-06
-1.25211e-05
1.3146e-05
7.2101e-06
-1.27488e-05
1.36475e-05
6.33666e-06
-1.14543e-05
1.23278e-05
5.20218e-06
-9.40869e-06
1.05432e-05
3.97366e-06
-9.76295e-06
1.09915e-05
3.23424e-06
-9.09554e-06
9.83496e-06
2.83518e-06
-3.61626e-06
4.01532e-06
2.34277e-06
4.7521e-06
-4.25969e-06
1.66952e-06
1.35681e-05
-1.28948e-05
1.36562e-06
2.1262e-05
-2.09581e-05
2.26389e-06
2.52294e-05
-2.61277e-05
3.61032e-06
2.64961e-05
-2.78426e-05
4.48228e-06
2.83957e-05
-2.92676e-05
6.02878e-06
2.5057e-05
-2.66035e-05
6.60266e-06
1.74346e-05
-1.80085e-05
6.96782e-06
1.12723e-05
-1.16374e-05
7.89906e-06
6.66032e-06
-7.59156e-06
8.61116e-06
3.38969e-06
-4.10178e-06
8.75829e-06
2.22787e-06
-2.37501e-06
9.12086e-06
1.76885e-06
-2.13141e-06
1.01034e-05
-1.66006e-06
6.77484e-07
1.11365e-05
-6.66217e-06
5.6291e-06
1.19466e-05
-1.14292e-05
1.06191e-05
1.22337e-05
-1.52212e-05
1.49341e-05
1.21816e-05
-1.77372e-05
1.77893e-05
1.17581e-05
-1.93685e-05
1.9792e-05
1.10512e-05
-1.96286e-05
2.03354e-05
1.04514e-05
-1.92421e-05
1.98419e-05
1.01515e-05
-2.04213e-05
2.07211e-05
9.85242e-06
-2.15298e-05
2.18289e-05
9.39224e-06
-2.21357e-05
2.25959e-05
8.58775e-06
-2.10372e-05
2.18417e-05
7.29958e-06
-1.78902e-05
1.91784e-05
5.85901e-06
-1.39024e-05
1.5343e-05
5.01566e-06
-1.05915e-05
1.14348e-05
4.59482e-06
-1.18221e-05
1.22429e-05
4.33781e-06
-1.45318e-05
1.47889e-05
4.29568e-06
-1.51799e-05
1.5222e-05
4.15782e-06
-1.63127e-05
1.64506e-05
4.60079e-06
-1.7731e-05
1.72881e-05
5.16373e-06
-1.92041e-05
1.86411e-05
5.6147e-06
-2.11226e-05
2.06716e-05
6.30916e-06
-2.17897e-05
2.10953e-05
6.9641e-06
-2.25509e-05
2.1896e-05
7.72922e-06
-2.29941e-05
2.2229e-05
8.58811e-06
-2.21087e-05
2.12498e-05
9.11694e-06
-1.9275e-05
1.87462e-05
9.58584e-06
-1.63038e-05
1.58349e-05
1.00415e-05
-1.23633e-05
1.19077e-05
1.02542e-05
-8.78187e-06
8.56916e-06
1.05329e-05
-4.7187e-06
4.43997e-06
1.06853e-05
1.52744e-07
-3.05129e-07
1.0572e-05
3.9154e-06
-3.80213e-06
1.00995e-05
5.85836e-06
-5.38581e-06
9.69192e-06
6.5823e-06
-6.17472e-06
9.70636e-06
9.21472e-06
-9.22916e-06
1.00337e-05
1.41733e-05
-1.45006e-05
1.04223e-05
1.87509e-05
-1.91396e-05
1.07123e-05
2.20138e-05
-2.23039e-05
1.08283e-05
2.39656e-05
-2.40816e-05
1.06555e-05
2.46654e-05
-2.44925e-05
1.03819e-05
2.42696e-05
-2.39961e-05
1.01718e-05
2.31228e-05
-2.29127e-05
1.01445e-05
2.18759e-05
-2.18486e-05
1.00856e-05
2.00777e-05
-2.00188e-05
9.89842e-06
1.80095e-05
-1.78224e-05
9.71554e-06
1.54631e-05
-1.52803e-05
9.6037e-06
1.41306e-05
-1.40188e-05
9.53749e-06
1.3905e-05
-1.38388e-05
9.50104e-06
1.3506e-05
-1.34695e-05
9.46039e-06
1.26608e-05
-1.26202e-05
9.36433e-06
1.25163e-05
-1.24203e-05
9.38559e-06
1.21182e-05
-1.21395e-05
9.34021e-06
1.14971e-05
-1.14518e-05
9.56061e-06
9.98677e-06
-1.02072e-05
9.55686e-06
1.15675e-05
-1.15638e-05
9.51373e-06
1.1715e-05
-1.16718e-05
9.03118e-06
1.22389e-05
-1.17563e-05
8.33377e-06
1.02054e-05
-9.50797e-06
7.91857e-06
9.49311e-06
-9.07792e-06
7.40007e-06
8.40502e-06
-7.88651e-06
7.16777e-06
9.49498e-06
-9.26269e-06
6.97818e-06
1.01996e-05
-1.00101e-05
7.04723e-06
1.18446e-05
-1.19137e-05
7.66444e-06
1.07886e-05
-1.14058e-05
7.99722e-06
1.35257e-05
-1.38585e-05
8.15236e-06
1.33162e-05
-1.34713e-05
8.28242e-06
1.48549e-05
-1.49849e-05
8.23163e-06
1.41658e-05
-1.4115e-05
8.39135e-06
1.55943e-05
-1.5754e-05
8.60199e-06
1.44227e-05
-1.46334e-05
8.94456e-06
1.44976e-05
-1.48401e-05
9.01684e-06
1.17045e-05
-1.17768e-05
9.30982e-06
9.05387e-06
-9.34685e-06
9.57065e-06
4.11862e-06
-4.37946e-06
9.76635e-06
-1.72758e-07
-2.29358e-08
9.72039e-06
-3.65e-06
3.69596e-06
9.62382e-06
-6.09373e-06
6.19029e-06
9.56887e-06
-1.00776e-05
1.01326e-05
9.55992e-06
-1.32034e-05
1.32123e-05
9.37061e-06
-1.63738e-05
1.65631e-05
9.46182e-06
-1.74319e-05
1.73407e-05
9.31155e-06
-1.7634e-05
1.77843e-05
9.30836e-06
-1.52214e-05
1.52246e-05
8.99834e-06
-1.64284e-05
1.67384e-05
9.1051e-06
-1.23936e-05
1.22869e-05
9.16681e-06
-1.27424e-05
1.26807e-05
9.01555e-06
-8.80782e-06
8.95907e-06
9.01733e-06
-1.09446e-05
1.09428e-05
9.10692e-06
-8.23238e-06
8.14279e-06
9.28841e-06
-9.05535e-06
8.87386e-06
9.28789e-06
-5.67275e-06
5.67328e-06
9.23124e-06
-7.1316e-06
7.18825e-06
9.19634e-06
-3.79479e-06
3.8297e-06
9.07307e-06
-5.859e-06
5.98227e-06
8.91198e-06
-4.06209e-06
4.22318e-06
9.01005e-06
-7.62062e-06
7.52255e-06
8.82268e-06
-5.24627e-06
5.43364e-06
9.53366e-06
-6.41365e-06
5.70267e-06
9.47061e-06
-3.61438e-06
3.67742e-06
9.36841e-06
-6.13982e-06
6.24202e-06
8.96e-06
-7.31189e-06
7.7203e-06
8.98279e-06
-8.46538e-06
8.44259e-06
8.97101e-06
-8.06229e-06
8.07407e-06
9.35096e-06
-1.04777e-05
1.00977e-05
9.80303e-06
-1.31744e-05
1.27223e-05
1.0395e-05
-1.51228e-05
1.45309e-05
1.10613e-05
-1.64992e-05
1.58329e-05
1.16698e-05
-1.77302e-05
1.71217e-05
1.21862e-05
-1.78813e-05
1.73649e-05
1.26004e-05
-1.57286e-05
1.53144e-05
1.28499e-05
-1.15468e-05
1.12973e-05
1.28657e-05
-6.46609e-06
6.4502e-06
1.26905e-05
-9.27739e-07
1.10303e-06
1.2423e-05
4.60131e-06
-4.33381e-06
1.20679e-05
9.6842e-06
-9.32909e-06
1.16305e-05
1.45978e-05
-1.41605e-05
1.10759e-05
1.93126e-05
-1.87579e-05
1.03719e-05
2.26449e-05
-2.19409e-05
9.62855e-06
2.36803e-05
-2.2937e-05
8.88619e-06
2.30826e-05
-2.23403e-05
8.14469e-06
2.24039e-05
-2.16624e-05
7.44586e-06
2.29292e-05
-2.22304e-05
6.62472e-06
2.46711e-05
-2.385e-05
5.83555e-06
2.62264e-05
-2.54372e-05
5.41669e-06
2.69405e-05
-2.65216e-05
5.03927e-06
2.67399e-05
-2.63624e-05
4.3941e-06
2.56417e-05
-2.49965e-05
4.057e-06
2.36767e-05
-2.33396e-05
3.3096e-06
2.29846e-05
-2.22372e-05
3.38096e-06
1.71326e-05
-1.7204e-05
3.13632e-06
1.58083e-05
-1.55636e-05
4.08741e-06
5.36369e-06
-6.31479e-06
3.88688e-06
5.73755e-06
-5.53701e-06
4.8229e-06
-4.07964e-06
3.14362e-06
4.06219e-06
-5.66915e-07
1.32762e-06
5.04798e-06
-9.58408e-06
8.59829e-06
4.56967e-06
-5.54935e-06
6.02766e-06
5.60712e-06
-1.07653e-05
9.72781e-06
5.25718e-06
-7.14234e-06
7.49228e-06
5.92726e-06
-9.50487e-06
8.83479e-06
5.68581e-06
-6.79963e-06
7.04107e-06
6.22529e-06
-7.54284e-06
7.00336e-06
6.0589e-06
-5.15694e-06
5.32333e-06
6.47447e-06
-4.66573e-06
4.25016e-06
6.51325e-06
-1.75309e-06
1.71432e-06
6.84652e-06
2.23782e-07
-5.57055e-07
6.68973e-06
4.28009e-06
-4.1233e-06
7.01191e-06
6.60412e-06
-6.92629e-06
6.20695e-06
1.23091e-05
-1.15041e-05
6.51478e-06
1.46863e-05
-1.49941e-05
2.68131e-05
-2.63488e-05
6.05043e-06
5.1084e-06
-2.29104e-06
4.73234e-06
-9.91248e-07
4.50223e-06
2.06997e-08
4.78044e-06
6.59409e-07
5.30648e-06
5.50833e-07
6.68047e-06
1.89639e-06
9.05354e-06
4.37901e-06
1.11194e-05
4.7398e-06
1.24349e-05
4.90453e-06
1.32828e-05
4.87232e-06
1.35326e-05
2.36596e-06
1.33823e-05
-8.53634e-07
1.33298e-05
-2.80802e-06
1.362e-05
-5.37629e-06
1.39449e-05
-8.35629e-06
1.38039e-05
-1.04121e-05
1.39736e-05
-1.13194e-05
1.46413e-05
-1.20824e-05
1.53575e-05
-1.45337e-05
1.55693e-05
-1.63664e-05
1.51414e-05
-1.80354e-05
1.42884e-05
-1.8297e-05
1.31038e-05
-1.83226e-05
1.21374e-05
-1.7561e-05
1.12927e-05
-1.71359e-05
1.05325e-05
-1.63173e-05
9.56617e-06
-1.47453e-05
8.89308e-06
-1.3767e-05
8.33894e-06
-1.1967e-05
7.42048e-06
-1.18304e-05
6.53776e-06
-1.05716e-05
5.4308e-06
-8.30173e-06
4.17608e-06
-8.50823e-06
3.33582e-06
-8.25528e-06
2.8221e-06
-3.10254e-06
2.22866e-06
5.34555e-06
1.6286e-06
1.41681e-05
1.68547e-06
2.12051e-05
2.80115e-06
2.41138e-05
3.88549e-06
2.54118e-05
5.04311e-06
2.7238e-05
6.5238e-06
2.35763e-05
6.9925e-06
1.69659e-05
7.47164e-06
1.07931e-05
8.22099e-06
5.91098e-06
8.66651e-06
2.94417e-06
8.8775e-06
2.01688e-06
9.52155e-06
1.1248e-06
1.06678e-05
-2.80634e-06
1.17396e-05
-7.73394e-06
1.24312e-05
-1.21207e-05
1.25792e-05
-1.53692e-05
1.23741e-05
-1.75322e-05
1.18001e-05
-1.87945e-05
1.10054e-05
-1.88339e-05
1.04402e-05
-1.86768e-05
1.01354e-05
-2.01165e-05
9.7668e-06
-2.11612e-05
9.21363e-06
-2.15825e-05
8.26691e-06
-2.00904e-05
6.8268e-06
-1.64501e-05
5.45395e-06
-1.25295e-05
4.85516e-06
-9.9927e-06
4.40939e-06
-1.13763e-05
4.15009e-06
-1.42725e-05
4.15826e-06
-1.5188e-05
3.95844e-06
-1.61129e-05
4.34906e-06
-1.81216e-05
4.88728e-06
-1.97423e-05
5.32614e-06
-2.15614e-05
6.02283e-06
-2.24864e-05
6.63543e-06
-2.31635e-05
7.34597e-06
-2.37046e-05
7.99096e-06
-2.27536e-05
8.53877e-06
-1.98228e-05
8.97628e-06
-1.67413e-05
9.44879e-06
-1.28358e-05
9.69305e-06
-9.02613e-06
9.94867e-06
-4.97432e-06
1.01187e-05
-1.72863e-08
1.00667e-05
3.96743e-06
9.67034e-06
6.2547e-06
9.22402e-06
7.02862e-06
9.18668e-06
9.25205e-06
9.49064e-06
1.38693e-05
9.87977e-06
1.83618e-05
1.02022e-05
2.16914e-05
1.03937e-05
2.3774e-05
1.03023e-05
2.47569e-05
1.00809e-05
2.4491e-05
9.88108e-06
2.33226e-05
9.87813e-06
2.18788e-05
9.88635e-06
2.00695e-05
9.78262e-06
1.81133e-05
9.61217e-06
1.56336e-05
9.46592e-06
1.42769e-05
9.33743e-06
1.40335e-05
9.24602e-06
1.35974e-05
9.20889e-06
1.2698e-05
9.06699e-06
1.26582e-05
9.09066e-06
1.20946e-05
9.03328e-06
1.15545e-05
9.29339e-06
9.72666e-06
9.39015e-06