/*--------------------------------*- C++ -*----------------------------------*\
| =========                 |                                                 |
| \\      /  F ield         | OpenFOAM: The Open Source CFD Toolbox           |
|  \\    /   O peration     | Version:  2.4.0                                 |
|   \\  /    A nd           | Web:      www.OpenFOAM.org                      |
|    \\/     M anipulation  |                                                 |
\*---------------------------------------------------------------------------*/
FoamFile
{
    version     2.0;
    format      ascii;
    class       volVectorField;
    location    "0.119";
    object      UMean;
}
// * * * * * * * * * * * * * * * * * * * * * * * * * * * * * * * * * * * * * //

dimensions      [0 1 -1 0 0 0 0];

internalField   nonuniform List<vector> 
17600
(
(5.34993 0.306991 0)
(3.05445 0.0607814 0)
(2.28144 -0.00136875 0)
(1.94108 -0.00351762 0)
(1.80659 -0.00133257 0)
(1.7173 -0.000177554 0)
(1.65564 -3.21038e-05 0)
(1.59894 9.01642e-06 0)
(1.56788 -0.000180763 0)
(1.53164 3.1195e-05 0)
(1.51806 -0.000120904 0)
(1.48796 0.000185901 0)
(1.48209 -0.000140598 0)
(1.45404 0.000196299 0)
(1.45462 -0.000243431 0)
(1.43425 -2.59306e-05 0)
(1.43973 -0.000375906 0)
(1.44439 -0.000260389 0)
(1.46898 -0.00221989 0)
(1.45601 -0.0218996 0)
(8.59192 0.862799 0)
(7.00486 0.377892 0)
(5.9042 0.118977 0)
(5.16756 0.0491451 0)
(4.7824 0.0265001 0)
(4.52134 0.0187421 0)
(4.35082 0.0143315 0)
(4.19333 0.0109207 0)
(4.10611 0.00787694 0)
(4.00038 0.00647775 0)
(3.96211 0.00494136 0)
(3.87538 0.00509454 0)
(3.86185 0.00354804 0)
(3.78118 0.00435354 0)
(3.78454 0.00168529 0)
(3.72168 0.00313122 0)
(3.7304 -0.00150967 0)
(3.72801 -0.00110978 0)
(3.72341 -0.00434925 0)
(3.89142 -0.0898411 0)
(9.82908 1.00949 0)
(9.36628 0.566684 0)
(8.54065 0.23468 0)
(7.72776 0.125396 0)
(7.20577 0.07725 0)
(6.82277 0.0531527 0)
(6.57442 0.0398232 0)
(6.33767 0.0302166 0)
(6.20847 0.0227701 0)
(6.04261 0.018165 0)
(5.98638 0.0144909 0)
(5.84883 0.0133744 0)
(5.83275 0.0104773 0)
(5.70439 0.0108787 0)
(5.71392 0.00601052 0)
(5.60852 0.00756463 0)
(5.62829 -0.00106167 0)
(5.58683 9.45244e-05 0)
(5.613 -0.0167926 0)
(5.71782 -0.111853 0)
(10.1267 0.935292 0)
(10.5579 0.654252 0)
(10.2846 0.319982 0)
(9.68066 0.202069 0)
(9.18889 0.139774 0)
(8.76466 0.0992878 0)
(8.48652 0.0746858 0)
(8.19654 0.0566765 0)
(8.04593 0.0435976 0)
(7.8316 0.0345403 0)
(7.76703 0.027937 0)
(7.58524 0.0252456 0)
(7.57191 0.0199996 0)
(7.40133 0.020899 0)
(7.4201 0.0115705 0)
(7.27322 0.01634 0)
(7.31246 -0.00147625 0)
(7.21099 0.00647498 0)
(7.29711 -0.0354095 0)
(7.26834 -0.100649 0)
(10.0471 0.795836 0)
(10.8958 0.654876 0)
(11.1279 0.344827 0)
(10.8846 0.245862 0)
(10.5993 0.1924 0)
(10.2495 0.145871 0)
(10.0185 0.113047 0)
(9.72117 0.0867654 0)
(9.58345 0.0681792 0)
(9.34224 0.0538351 0)
(9.28625 0.0445439 0)
(9.07302 0.0387188 0)
(9.07103 0.0325274 0)
(8.86766 0.0308968 0)
(8.90104 0.0216585 0)
(8.71958 0.0212835 0)
(8.77491 0.00923639 0)
(8.64103 -0.00101464 0)
(8.71846 -0.0196927 0)
(8.68362 -0.143044 0)
(9.96788 0.683325 0)
(10.8301 0.622558 0)
(11.2989 0.322772 0)
(11.3332 0.241708 0)
(11.3194 0.212319 0)
(11.1433 0.175482 0)
(11.0538 0.143426 0)
(10.8202 0.113824 0)
(10.7461 0.0917771 0)
(10.5173 0.0738602 0)
(10.493 0.0612366 0)
(10.2752 0.054182 0)
(10.2917 0.044006 0)
(10.0805 0.0447279 0)
(10.1238 0.0272953 0)
(9.935 0.0355057 0)
(9.9937 0.00440392 0)
(9.85056 0.0197856 0)
(9.9194 -0.0474648 0)
(9.85777 -0.107427 0)
(9.95752 0.59509 0)
(10.7016 0.59006 0)
(11.2235 0.29462 0)
(11.3378 0.212389 0)
(11.4826 0.19986 0)
(11.4436 0.177936 0)
(11.5212 0.153877 0)
(11.3998 0.126332 0)
(11.4411 0.106107 0)
(11.2758 0.0873059 0)
(11.319 0.0751245 0)
(11.1333 0.0659193 0)
(11.1889 0.0569108 0)
(10.9946 0.0537331 0)
(11.0614 0.0401015 0)
(10.879 0.0384532 0)
(10.9555 0.0188293 0)
(10.8056 0.0114921 0)
(10.8886 -0.0360587 0)
(10.7919 -0.10492 0)
(9.97558 0.516854 0)
(10.5961 0.55447 0)
(11.1286 0.277148 0)
(11.2452 0.186073 0)
(11.4351 0.178475 0)
(11.4279 0.16649 0)
(11.5861 0.148462 0)
(11.5391 0.124154 0)
(11.6713 0.105445 0)
(11.589 0.0899538 0)
(11.7052 0.0777923 0)
(11.5946 0.0722352 0)
(11.6955 0.0601516 0)
(11.5669 0.0628017 0)
(11.6547 0.0414926 0)
(11.5252 0.0496883 0)
(11.6073 0.0151808 0)
(11.4964 0.0228219 0)
(11.5743 -0.0459062 0)
(11.4801 -0.087402 0)
(9.99385 0.44725 0)
(10.5172 0.51118 0)
(11.0436 0.264127 0)
(11.172 0.163502 0)
(11.364 0.157623 0)
(11.364 0.152559 0)
(11.5214 0.138504 0)
(11.508 0.115979 0)
(11.6491 0.0976305 0)
(11.6252 0.0837661 0)
(11.7567 0.0726436 0)
(11.7213 0.0690192 0)
(11.8366 0.0577759 0)
(11.7914 0.0614805 0)
(11.889 0.0412307 0)
(11.8388 0.0489177 0)
(11.9233 0.0148033 0)
(11.8808 0.0222347 0)
(11.9507 -0.0562789 0)
(11.8907 -0.0841595 0)
(9.99608 0.384589 0)
(10.4658 0.465009 0)
(10.9581 0.252242 0)
(11.1257 0.142694 0)
(11.2934 0.137471 0)
(11.3227 0.138884 0)
(11.4432 0.127639 0)
(11.4675 0.107617 0)
(11.5715 0.0881458 0)
(11.5945 0.0762282 0)
(11.6914 0.0644389 0)
(11.7121 0.0630388 0)
(11.7962 0.0511619 0)
(11.8152 0.0561332 0)
(11.8883 0.0365127 0)
(11.9062 0.0418972 0)
(11.9715 0.0130362 0)
(11.9943 0.00448829 0)
(12.0458 -0.0529923 0)
(12.0224 -0.141312 0)
(9.98222 0.327398 0)
(10.4301 0.419209 0)
(10.8764 0.240304 0)
(11.0903 0.12392 0)
(11.2298 0.117853 0)
(11.2918 0.126005 0)
(11.3767 0.116082 0)
(11.4324 0.10005 0)
(11.5045 0.078565 0)
(11.5588 0.0695124 0)
(11.6265 0.0557202 0)
(11.6765 0.0578621 0)
(11.7355 0.0432069 0)
(11.7811 0.0512071 0)
(11.835 0.0286738 0)
(11.8768 0.0370081 0)
(11.9294 0.00331801 0)
(11.9718 -0.0024811 0)
(12.0131 -0.0707577 0)
(11.9905 -0.169184 0)
(9.97234 0.276731 0)
(10.3911 0.372854 0)
(10.8102 0.227854 0)
(11.0476 0.105842 0)
(11.1823 0.0998847 0)
(11.2549 0.112005 0)
(11.3296 0.105131 0)
(11.39 0.0909507 0)
(11.4578 0.0703723 0)
(11.5159 0.0614917 0)
(11.5804 0.0493723 0)
(11.6323 0.0508326 0)
(11.6907 0.0385334 0)
(11.7356 0.0432808 0)
(11.7902 0.0252176 0)
(11.8298 0.0257519 0)
(11.8841 -0.000146746 0)
(11.9211 -0.0200797 0)
(11.961 -0.0815427 0)
(11.9234 -0.190491 0)
(9.97091 0.232257 0)
(10.3513 0.326509 0)
(10.7565 0.211596 0)
(11.0022 0.0899341 0)
(11.1445 0.0830307 0)
(11.2183 0.0979239 0)
(11.2908 0.0934189 0)
(11.3487 0.0815016 0)
(11.4185 0.0617194 0)
(11.4747 0.0539 0)
(11.5408 0.0425362 0)
(11.5917 0.0443277 0)
(11.6516 0.0326752 0)
(11.6944 0.0368273 0)
(11.7504 0.0195474 0)
(11.7882 0.0183644 0)
(11.8423 -0.00750906 0)
(11.8758 -0.0328369 0)
(11.9112 -0.0926602 0)
(11.8632 -0.20647 0)
(9.96829 0.192201 0)
(10.3211 0.281711 0)
(10.7087 0.189048 0)
(10.9635 0.0772597 0)
(11.1098 0.0683574 0)
(11.1893 0.0843213 0)
(11.253 0.0817574 0)
(11.316 0.0716842 0)
(11.3801 0.0534009 0)
(11.4426 0.0462823 0)
(11.5033 0.0361418 0)
(11.5612 0.0374802 0)
(11.6144 0.0276013 0)
(11.6637 0.0292986 0)
(11.7132 0.014476 0)
(11.7575 0.00912094 0)
(11.8035 -0.0147814 0)
(11.842 -0.0443933 0)
(11.8658 -0.104392 0)
(11.8174 -0.216927 0)
(9.96451 0.155919 0)
(10.2992 0.237972 0)
(10.6666 0.161973 0)
(10.932 0.0661776 0)
(11.0804 0.0555958 0)
(11.1659 0.0708161 0)
(11.2213 0.0699972 0)
(11.2901 0.0611123 0)
(11.3482 0.0452824 0)
(11.4174 0.0384497 0)
(11.4736 0.0300976 0)
(11.5374 0.0303898 0)
(11.5845 0.0225189 0)
(11.64 0.0219421 0)
(11.6834 0.00925328 0)
(11.7332 0.000491986 0)
(11.7724 -0.0218614 0)
(11.8149 -0.0557264 0)
(11.8283 -0.114694 0)
(11.7795 -0.224674 0)
(9.96499 0.122986 0)
(10.2784 0.194417 0)
(10.634 0.133141 0)
(10.9035 0.0553531 0)
(11.059 0.0436204 0)
(11.1434 0.0574441 0)
(11.2 0.0574579 0)
(11.266 0.0502179 0)
(11.3263 0.0368325 0)
(11.394 0.0307912 0)
(11.4537 0.0237838 0)
(11.514 0.0235381 0)
(11.5645 0.0168267 0)
(11.6169 0.0146528 0)
(11.6625 0.00325971 0)
(11.7089 -0.00761313 0)
(11.7498 -0.0296536 0)
(11.7871 -0.0659681 0)
(11.7988 -0.124128 0)
(11.7412 -0.230507 0)
(9.96848 0.0931346 0)
(10.258 0.150662 0)
(10.6114 0.104122 0)
(10.878 0.0438585 0)
(11.0442 0.0329217 0)
(11.123 0.0438566 0)
(11.1861 0.044975 0)
(11.2435 0.0388227 0)
(11.3107 0.0286768 0)
(11.3723 0.023079 0)
(11.4387 0.0179529 0)
(11.4919 0.0167117 0)
(11.5498 0.0115366 0)
(11.5948 0.00752859 0)
(11.6463 -0.00242694 0)
(11.6854 -0.0155178 0)
(11.7317 -0.0375068 0)
(11.7596 -0.0749832 0)
(11.7742 -0.133443 0)
(11.7035 -0.231873 0)
(9.96914 0.0648258 0)
(10.2446 0.10764 0)
(10.5936 0.0743558 0)
(10.8606 0.0323796 0)
(11.0307 0.022562 0)
(11.1106 0.031114 0)
(11.1725 0.0318931 0)
(11.2279 0.0280331 0)
(11.2958 0.0199679 0)
(11.3578 0.0160688 0)
(11.4238 0.011625 0)
(11.4777 0.0103348 0)
(11.535 0.00551694 0)
(11.5799 0.000864165 0)
(11.6302 -0.00849166 0)
(11.6695 -0.0230888 0)
(11.7137 -0.0447469 0)
(11.7398 -0.0837767 0)
(11.7511 -0.141276 0)
(11.6748 -0.23413 0)
(9.96714 0.0388578 0)
(10.2391 0.0638241 0)
(10.5794 0.0453668 0)
(10.8512 0.019066 0)
(11.0194 0.0139536 0)
(11.1052 0.0174421 0)
(11.1604 0.0198922 0)
(11.2207 0.0157606 0)
(11.284 0.0122884 0)
(11.3508 0.00785802 0)
(11.412 0.00635633 0)
(11.4714 0.00275354 0)
(11.5228 0.000445919 0)
(11.573 -0.00681723 0)
(11.6172 -0.0140031 0)
(11.6619 -0.0311598 0)
(11.6984 -0.0515845 0)
(11.729 -0.0922883 0)
(11.7305 -0.147949 0)
(11.6583 -0.239843 0)
(9.96724 0.0127071 0)
(10.2356 0.0214119 0)
(10.5729 0.0151014 0)
(10.8452 0.00638963 0)
(11.0157 0.00451762 0)
(11.101 0.00561228 0)
(11.1562 0.00611657 0)
(11.2165 0.00517628 0)
(11.2801 0.00267357 0)
(11.3462 0.00192312 0)
(11.4083 -0.00117424 0)
(11.467 -0.00212863 0)
(11.519 -0.00730008 0)
(11.5683 -0.0115552 0)
(11.6126 -0.0225351 0)
(11.656 -0.0361298 0)
(11.6914 -0.0613938 0)
(11.7199 -0.0975495 0)
(11.7184 -0.156183 0)
(11.6456 -0.246777 0)
(9.96868 -0.0121771 0)
(10.234 -0.0220243 0)
(10.5739 -0.0140839 0)
(10.8437 -0.0079471 0)
(11.0178 -0.00326684 0)
(11.0991 -0.00776456 0)
(11.1583 -0.00596613 0)
(11.215 -0.00740753 0)
(11.282 -0.00469633 0)
(11.3442 -0.00649296 0)
(11.4103 -0.00585611 0)
(11.465 -0.0102593 0)
(11.5209 -0.0111161 0)
(11.5656 -0.0205829 0)
(11.6136 -0.0255703 0)
(11.6519 -0.0469176 0)
(11.6902 -0.0635429 0)
(11.7127 -0.110655 0)
(11.7126 -0.153308 0)
(11.6336 -0.261981 0)
(9.96826 -0.0380598 0)
(10.2381 -0.0646559 0)
(10.5794 -0.0440205 0)
(10.8505 -0.0211679 0)
(11.0217 -0.0121595 0)
(11.1034 -0.0200938 0)
(11.1623 -0.0192022 0)
(11.2199 -0.0186268 0)
(11.2858 -0.0135911 0)
(11.3489 -0.0131923 0)
(11.4141 -0.0127944 0)
(11.4695 -0.0158324 0)
(11.5239 -0.0184706 0)
(11.5693 -0.0254016 0)
(11.6158 -0.0341307 0)
(11.6541 -0.0507036 0)
(11.6904 -0.0745294 0)
(11.7121 -0.111825 0)
(11.7085 -0.166053 0)
(11.6254 -0.238071 0)
(9.96766 -0.0645847 0)
(10.2466 -0.107741 0)
(10.5916 -0.0736376 0)
(10.8628 -0.0338974 0)
(11.0293 -0.0214461 0)
(11.1121 -0.0328458 0)
(11.1703 -0.0321669 0)
(11.2298 -0.0299019 0)
(11.2941 -0.0223567 0)
(11.3587 -0.0200353 0)
(11.4219 -0.0194677 0)
(11.4785 -0.0215388 0)
(11.5309 -0.025282 0)
(11.5778 -0.0306873 0)
(11.6219 -0.0419201 0)
(11.6612 -0.0551531 0)
(11.6945 -0.0844343 0)
(11.7166 -0.113488 0)
(11.7097 -0.177893 0)
(11.6274 -0.213879 0)
(9.96743 -0.0922315 0)
(10.2588 -0.151595 0)
(10.611 -0.102565 0)
(10.8792 -0.0463614 0)
(11.0424 -0.0307901 0)
(11.124 -0.0467773 0)
(11.1843 -0.0439307 0)
(11.2435 -0.0422965 0)
(11.3086 -0.0295614 0)
(11.372 -0.0287315 0)
(11.4355 -0.0239237 0)
(11.4907 -0.0298662 0)
(11.544 -0.0286479 0)
(11.5894 -0.0400038 0)
(11.6341 -0.0441564 0)
(11.6712 -0.0661613 0)
(11.7049 -0.0852442 0)
(11.7239 -0.126886 0)
(11.7175 -0.172823 0)
(11.6308 -0.229964 0)
(9.96643 -0.122883 0)
(10.2765 -0.19446 0)
(10.6357 -0.132583 0)
(10.9024 -0.0566241 0)
(11.0592 -0.0426536 0)
(11.1418 -0.0591387 0)
(11.202 -0.0576554 0)
(11.2631 -0.0522552 0)
(11.3269 -0.0393684 0)
(11.3908 -0.0346632 0)
(11.4526 -0.0318113 0)
(11.5087 -0.0345155 0)
(11.5607 -0.0365821 0)
(11.6068 -0.0441189 0)
(11.6498 -0.0525564 0)
(11.687 -0.0700384 0)
(11.7185 -0.0941216 0)
(11.7369 -0.131128 0)
(11.7291 -0.179134 0)
(11.6408 -0.235727 0)
(9.96618 -0.155014 0)
(10.298 -0.238898 0)
(10.6676 -0.16053 0)
(10.931 -0.0684059 0)
(11.0814 -0.0534728 0)
(11.1636 -0.0737715 0)
(11.2249 -0.068854 0)
(11.2871 -0.0643713 0)
(11.3506 -0.0465396 0)
(11.4142 -0.0435202 0)
(11.4752 -0.0366369 0)
(11.5313 -0.0424435 0)
(11.5826 -0.0406995 0)
(11.6285 -0.0518789 0)
(11.6707 -0.0567287 0)
(11.707 -0.0775687 0)
(11.7372 -0.0990256 0)
(11.7547 -0.138322 0)
(11.746 -0.184832 0)
(11.657 -0.237056 0)
(9.96608 -0.192007 0)
(10.3244 -0.281824 0)
(10.7069 -0.18831 0)
(10.9654 -0.0788352 0)
(11.1086 -0.0668582 0)
(11.1898 -0.0866984 0)
(11.2533 -0.0813002 0)
(11.3162 -0.074307 0)
(11.3802 -0.0553138 0)
(11.4427 -0.0507647 0)
(11.5035 -0.0431373 0)
(11.5585 -0.0488336 0)
(11.6101 -0.0460985 0)
(11.6547 -0.0583685 0)
(11.6972 -0.0616782 0)
(11.7313 -0.0842805 0)
(11.762 -0.103949 0)
(11.7768 -0.145814 0)
(11.7692 -0.190294 0)
(11.6789 -0.239126 0)
(9.96781 -0.231773 0)
(10.3561 -0.326935 0)
(10.7537 -0.210641 0)
(11.006 -0.0917488 0)
(11.1411 -0.0812241 0)
(11.222 -0.100553 0)
(11.2874 -0.0928831 0)
(11.3517 -0.0843829 0)
(11.4151 -0.0636223 0)
(11.4774 -0.0585656 0)
(11.5363 -0.0493568 0)
(11.5921 -0.0555147 0)
(11.6419 -0.0511265 0)
(11.6875 -0.064911 0)
(11.7279 -0.0662284 0)
(11.7624 -0.0907995 0)
(11.7907 -0.108368 0)
(11.8053 -0.153236 0)
(11.7968 -0.195632 0)
(11.7091 -0.243797 0)
(9.97731 -0.276629 0)
(10.3884 -0.373073 0)
(10.8125 -0.227029 0)
(11.0467 -0.107435 0)
(11.1829 -0.0981084 0)
(11.2554 -0.114556 0)
(11.3302 -0.104561 0)
(11.3888 -0.0938929 0)
(11.4576 -0.0722072 0)
(11.5141 -0.0664164 0)
(11.5764 -0.0559067 0)
(11.6285 -0.0622101 0)
(11.6806 -0.0561637 0)
(11.7234 -0.0715072 0)
(11.765 -0.070332 0)
(11.7973 -0.0975014 0)
(11.825 -0.111676 0)
(11.8381 -0.161132 0)
(11.8293 -0.199817 0)
(11.7449 -0.253469 0)
(9.99455 -0.327484 0)
(10.4183 -0.419075 0)
(10.8865 -0.239888 0)
(11.0816 -0.124983 0)
(11.2381 -0.116814 0)
(11.2846 -0.127842 0)
(11.386 -0.116322 0)
(11.4222 -0.102059 0)
(11.513 -0.0814165 0)
(11.5478 -0.073309 0)
(11.6298 -0.0634423 0)
(11.6626 -0.0677561 0)
(11.732 -0.0622181 0)
(11.7578 -0.0768473 0)
(11.814 -0.0751715 0)
(11.8309 -0.102939 0)
(11.8686 -0.11487 0)
(11.8682 -0.16802 0)
(11.8628 -0.202767 0)
(11.7695 -0.267447 0)
(10.0073 -0.384422 0)
(10.4529 -0.465149 0)
(10.9714 -0.251782 0)
(11.1149 -0.143967 0)
(11.305 -0.136341 0)
(11.3125 -0.14096 0)
(11.4557 -0.127536 0)
(11.4538 -0.109874 0)
(11.584 -0.0907391 0)
(11.5794 -0.0801782 0)
(11.6996 -0.0714703 0)
(11.6926 -0.0731475 0)
(11.798 -0.0689584 0)
(11.7837 -0.0815918 0)
(11.8709 -0.080509 0)
(11.8454 -0.10709 0)
(11.9046 -0.117475 0)
(11.8566 -0.172676 0)
(11.8538 -0.202514 0)
(11.7096 -0.281748 0)
(10.001 -0.447182 0)
(10.5088 -0.511195 0)
(11.0548 -0.264026 0)
(11.1637 -0.16429 0)
(11.3732 -0.156877 0)
(11.3563 -0.154182 0)
(11.53 -0.138563 0)
(11.4982 -0.117935 0)
(11.6572 -0.100314 0)
(11.6137 -0.0874367 0)
(11.7606 -0.0795757 0)
(11.7046 -0.0785724 0)
(11.8321 -0.0752372 0)
(11.7581 -0.0853616 0)
(11.8587 -0.0841478 0)
(11.7621 -0.108835 0)
(11.8229 -0.116016 0)
(11.6899 -0.173034 0)
(11.669 -0.192479 0)
(11.4302 -0.290871 0)
(9.98009 -0.516689 0)
(10.5915 -0.554572 0)
(11.1358 -0.277117 0)
(11.2396 -0.186572 0)
(11.4406 -0.178063 0)
(11.4234 -0.167684 0)
(11.5895 -0.148807 0)
(11.5347 -0.125679 0)
(11.6722 -0.108472 0)
(11.5828 -0.0928408 0)
(11.7002 -0.0850187 0)
(11.5806 -0.0802624 0)
(11.6771 -0.0779383 0)
(11.5288 -0.0830207 0)
(11.5996 -0.0839191 0)
(11.4243 -0.101399 0)
(11.4561 -0.111999 0)
(11.2404 -0.157882 0)
(11.1826 -0.183215 0)
(10.8667 -0.264869 0)
(9.96092 -0.595013 0)
(10.6984 -0.590112 0)
(11.2283 -0.294568 0)
(11.3336 -0.212851 0)
(11.4864 -0.19955 0)
(11.4403 -0.179043 0)
(11.5223 -0.154102 0)
(11.3976 -0.128015 0)
(11.4374 -0.108362 0)
(11.2712 -0.0905312 0)
(11.3063 -0.0808337 0)
(11.1183 -0.0742858 0)
(11.1564 -0.0711002 0)
(10.9485 -0.0740797 0)
(10.9818 -0.0745865 0)
(10.7519 -0.0890078 0)
(10.7596 -0.098642 0)
(10.4859 -0.138402 0)
(10.4083 -0.161369 0)
(10.033 -0.22924 0)
(9.97016 -0.683303 0)
(10.8277 -0.622481 0)
(11.3022 -0.322876 0)
(11.3298 -0.242064 0)
(11.3224 -0.212271 0)
(11.1399 -0.176231 0)
(11.0542 -0.143865 0)
(10.8173 -0.115028 0)
(10.7406 -0.0940157 0)
(10.5108 -0.0762744 0)
(10.4769 -0.0667306 0)
(10.2553 -0.0605262 0)
(10.2524 -0.0578288 0)
(10.0228 -0.0600047 0)
(10.0307 -0.0610155 0)
(9.78064 -0.0726498 0)
(9.77091 -0.0818639 0)
(9.4708 -0.11418 0)
(9.37787 -0.134152 0)
(8.97034 -0.187544 0)
(10.0484 -0.795773 0)
(10.8941 -0.654866 0)
(11.1304 -0.344946 0)
(10.8819 -0.246149 0)
(10.6016 -0.192383 0)
(10.246 -0.146421 0)
(10.0182 -0.113433 0)
(9.71777 -0.0877561 0)
(9.57648 -0.0699136 0)
(9.33473 -0.0559962 0)
(9.26718 -0.0486268 0)
(9.05064 -0.0444587 0)
(9.02558 -0.0426288 0)
(8.80434 -0.0447823 0)
(8.79513 -0.0459793 0)
(8.5511 -0.0551377 0)
(8.52716 -0.063484 0)
(8.22626 -0.0868633 0)
(8.12136 -0.107538 0)
(7.71339 -0.130343 0)
(10.1274 -0.93525 0)
(10.557 -0.654257 0)
(10.2864 -0.320083 0)
(9.67848 -0.202265 0)
(9.1903 -0.139775 0)
(8.7615 -0.0996517 0)
(8.48581 -0.0750508 0)
(8.19266 -0.0573322 0)
(8.03862 -0.0449768 0)
(7.82296 -0.0360151 0)
(7.74742 -0.031172 0)
(7.56047 -0.0291134 0)
(7.52554 -0.0279736 0)
(7.33305 -0.0301474 0)
(7.31218 -0.0310561 0)
(7.09428 -0.0380834 0)
(7.05945 -0.0441983 0)
(6.77837 -0.0607538 0)
(6.67367 -0.0765413 0)
(6.27022 -0.086114 0)
(9.82947 -1.00945 0)
(9.36585 -0.566702 0)
(8.54177 -0.234748 0)
(7.72609 -0.125525 0)
(7.2065 -0.0772369 0)
(6.82019 -0.0533787 0)
(6.5734 -0.0401011 0)
(6.33363 -0.030585 0)
(6.20183 -0.0236918 0)
(6.03333 -0.0190851 0)
(5.96815 -0.0164748 0)
(5.82393 -0.0160129 0)
(5.7887 -0.0153368 0)
(5.63782 -0.017256 0)
(5.61075 -0.017668 0)
(5.43474 -0.0225256 0)
(5.39274 -0.0260555 0)
(5.15406 -0.0365183 0)
(5.05536 -0.0465665 0)
(4.68131 -0.0503777 0)
(8.59214 -0.862784 0)
(7.00472 -0.377913 0)
(5.90475 -0.119006 0)
(5.16641 -0.0492103 0)
(4.78268 -0.0264858 0)
(4.5194 -0.018852 0)
(4.34972 -0.0144846 0)
(4.18984 -0.0110634 0)
(4.10081 -0.0083583 0)
(3.99202 -0.00687697 0)
(3.94751 -0.00593896 0)
(3.8539 -0.0062649 0)
(3.82559 -0.00591224 0)
(3.72524 -0.00719738 0)
(3.69866 -0.00720551 0)
(3.57763 -0.00985188 0)
(3.53587 -0.0111513 0)
(3.36373 -0.0164592 0)
(3.27682 -0.0207171 0)
(2.98515 -0.022581 0)
(5.35 -0.306984 0)
(3.05445 -0.0607887 0)
(2.28155 0.0013695 0)
(1.94055 0.00350618 0)
(1.80658 0.00134635 0)
(1.71647 0.000158648 0)
(1.65486 3.41599e-06 0)
(1.59712 -3.3695e-06 0)
(1.56507 9.51133e-05 0)
(1.52699 -4.292e-05 0)
(1.51055 -1.04538e-05 0)
(1.47632 -0.000300177 0)
(1.46305 -0.000138811 0)
(1.4244 -0.000522135 0)
(1.40903 -0.000304466 0)
(1.35977 -0.000880821 0)
(1.33442 -0.000695155 0)
(1.25987 -0.00167416 0)
(1.20795 -0.00187232 0)
(1.07714 0.00420209 0)
(2.124 -0.21955 0)
(2.5499 -0.0918814 0)
(3.10478 -0.0662117 0)
(3.63334 -0.0655084 0)
(4.12135 -0.100588 0)
(4.60486 -0.173854 0)
(5.08362 -0.258336 0)
(5.56406 -0.411574 0)
(6.01449 -0.568294 0)
(6.4046 -0.728123 0)
(6.73243 -0.887874 0)
(6.98712 -1.04448 0)
(7.23145 -1.16405 0)
(7.38785 -1.22929 0)
(7.57524 -1.27489 0)
(7.71424 -1.29067 0)
(7.83962 -1.32401 0)
(7.95121 -1.38559 0)
(8.02602 -1.46326 0)
(8.09424 -1.53959 0)
(8.12673 -1.60664 0)
(8.16298 -1.65026 0)
(8.24584 -1.6952 0)
(8.32727 -1.74316 0)
(8.41929 -1.81363 0)
(8.50529 -1.88472 0)
(8.56788 -1.93596 0)
(8.63928 -1.97622 0)
(8.6885 -2.0058 0)
(8.74278 -2.0296 0)
(8.77227 -2.04245 0)
(8.81514 -2.06677 0)
(8.84169 -2.09008 0)
(8.84275 -2.11287 0)
(8.81628 -2.14393 0)
(8.7461 -2.2052 0)
(8.65181 -2.28182 0)
(8.56122 -2.35238 0)
(8.5337 -2.41212 0)
(8.54053 -2.47125 0)
(8.54794 -2.53332 0)
(8.55145 -2.59908 0)
(8.53527 -2.64088 0)
(8.51171 -2.6497 0)
(8.47985 -2.6323 0)
(8.46896 -2.61428 0)
(8.43474 -2.58758 0)
(8.3949 -2.56486 0)
(8.30428 -2.50795 0)
(8.20324 -2.44332 0)
(8.14891 -2.40217 0)
(8.08154 -2.33473 0)
(8.03593 -2.25926 0)
(7.99316 -2.17818 0)
(7.94866 -2.07669 0)
(7.9037 -1.98722 0)
(7.88902 -1.90076 0)
(7.8292 -1.78151 0)
(7.78425 -1.64355 0)
(7.69843 -1.50415 0)
(7.60718 -1.33252 0)
(7.48093 -1.16295 0)
(7.38066 -1.01619 0)
(7.29105 -0.883755 0)
(7.21055 -0.760232 0)
(7.13969 -0.650793 0)
(7.09319 -0.546279 0)
(7.06216 -0.436243 0)
(7.02418 -0.327555 0)
(6.98959 -0.214429 0)
(6.96279 -0.0946442 0)
(6.92929 0.019236 0)
(6.90137 0.131192 0)
(6.86404 0.245647 0)
(6.827 0.351983 0)
(6.79308 0.460219 0)
(6.74087 0.552721 0)
(6.70182 0.634369 0)
(6.636 0.714676 0)
(6.60074 0.780949 0)
(6.54399 0.847398 0)
(6.49423 0.897289 0)
(6.4537 0.943634 0)
(6.41046 0.973819 0)
(6.37846 0.97716 0)
(6.31642 0.962845 0)
(6.25367 0.94381 0)
(6.17789 0.919818 0)
(6.12171 0.86937 0)
(6.07222 0.836994 0)
(6.01971 0.801894 0)
(6.00347 0.751201 0)
(5.97943 0.713552 0)
(5.95388 0.679688 0)
(5.94443 0.645787 0)
(5.92588 0.605287 0)
(5.9294 0.573023 0)
(5.89023 0.548594 0)
(5.91483 0.503197 0)
(5.86187 0.463856 0)
(5.8889 0.415354 0)
(5.80428 0.399393 0)
(5.84006 0.349941 0)
(5.76587 0.335374 0)
(5.81914 0.289245 0)
(5.72983 0.294376 0)
(5.80431 0.245778 0)
(5.70788 0.240931 0)
(5.80605 0.193069 0)
(5.71175 0.202208 0)
(5.81007 0.144928 0)
(5.73633 0.14915 0)
(5.82719 0.0927604 0)
(5.76952 0.0960438 0)
(5.85866 0.0334702 0)
(5.81271 0.0267347 0)
(5.89018 -0.0259494 0)
(5.85247 -0.0305824 0)
(5.91823 -0.084343 0)
(5.8972 -0.0826004 0)
(5.93748 -0.137333 0)
(5.93851 -0.123343 0)
(5.9542 -0.16735 0)
(5.96953 -0.129115 0)
(5.97306 -0.167209 0)
(5.98878 -0.100384 0)
(5.98945 -0.143935 0)
(6.00649 -0.0584027 0)
(6.00628 -0.100131 0)
(6.04468 -0.0012416 0)
(6.02385 -0.0342659 0)
(6.11349 0.0637267 0)
(6.04235 0.0410631 0)
(6.18791 0.132843 0)
(6.06691 0.107142 0)
(6.24166 0.192108 0)
(6.07647 0.160498 0)
(6.26627 0.235179 0)
(6.08671 0.201433 0)
(6.26047 0.266894 0)
(6.09686 0.234846 0)
(6.23362 0.295529 0)
(6.10361 0.264423 0)
(6.20887 0.316604 0)
(6.10283 0.293845 0)
(6.18835 0.338248 0)
(6.09348 0.32941 0)
(6.16306 0.359903 0)
(6.0731 0.36218 0)
(6.12439 0.385326 0)
(6.0503 0.400602 0)
(6.08627 0.41633 0)
(6.02723 0.435529 0)
(6.04657 0.450482 0)
(5.99908 0.480763 0)
(5.99239 0.498802 0)
(5.95685 0.535233 0)
(5.92319 0.555031 0)
(5.90054 0.593835 0)
(5.84059 0.607296 0)
(5.83153 0.637493 0)
(5.75006 0.636621 0)
(5.75503 0.653515 0)
(5.65913 0.63831 0)
(5.67863 0.641383 0)
(5.57189 0.61811 0)
(5.60929 0.608657 0)
(5.49636 0.586865 0)
(5.55087 0.574501 0)
(5.44208 0.569054 0)
(5.50358 0.557891 0)
(5.41262 0.572033 0)
(5.46918 0.554966 0)
(5.40796 0.588877 0)
(5.44803 0.564464 0)
(5.42171 0.62617 0)
(5.44148 0.599205 0)
(5.44579 0.689717 0)
(5.45419 0.674548 0)
(5.47766 0.789615 0)
(5.48741 0.814166 0)
(5.51166 0.948697 0)
(5.52793 1.02867 0)
(5.53825 1.17493 0)
(5.56683 1.3041 0)
(5.57621 1.4755 0)
(5.58997 1.63447 0)
(5.62901 1.8474 0)
(5.58698 2.03627 0)
(5.64987 2.28927 0)
(5.58013 2.53633 0)
(5.63546 2.83289 0)
(5.51334 3.19046 0)
(5.45474 3.5525 0)
(5.44003 4.02842 0)
(5.49762 4.53499 0)
(5.32938 5.18028 0)
(5.18365 6.26367 0)
(5.65418 7.27841 0)
(3.175 10.5169 0)
(4.03143 -0.246817 0)
(4.1517 -0.207677 0)
(4.43087 -0.234561 0)
(4.77383 -0.257512 0)
(5.14489 -0.291308 0)
(5.54254 -0.357832 0)
(5.91922 -0.443289 0)
(6.2581 -0.577189 0)
(6.57212 -0.729568 0)
(6.85629 -0.880348 0)
(7.13359 -1.03077 0)
(7.36307 -1.16604 0)
(7.56819 -1.26982 0)
(7.72446 -1.32362 0)
(7.88842 -1.3579 0)
(8.04106 -1.36404 0)
(8.17236 -1.3778 0)
(8.28452 -1.42304 0)
(8.34196 -1.48726 0)
(8.38819 -1.55841 0)
(8.42899 -1.62338 0)
(8.46842 -1.67391 0)
(8.55309 -1.72733 0)
(8.65844 -1.77856 0)
(8.74574 -1.84263 0)
(8.82105 -1.91151 0)
(8.8638 -1.96384 0)
(8.92861 -2.00617 0)
(8.9769 -2.03259 0)
(9.02684 -2.04781 0)
(9.0538 -2.05693 0)
(9.08408 -2.0769 0)
(9.0882 -2.09225 0)
(9.08404 -2.10615 0)
(9.05332 -2.12299 0)
(8.97786 -2.167 0)
(8.88078 -2.23821 0)
(8.78839 -2.32379 0)
(8.74953 -2.40411 0)
(8.74555 -2.47037 0)
(8.72232 -2.53272 0)
(8.69568 -2.592 0)
(8.64738 -2.62661 0)
(8.60071 -2.63339 0)
(8.55469 -2.62029 0)
(8.52175 -2.59974 0)
(8.47416 -2.56823 0)
(8.4182 -2.53481 0)
(8.30789 -2.46649 0)
(8.20933 -2.40944 0)
(8.14841 -2.3751 0)
(8.0698 -2.31106 0)
(8.01713 -2.24323 0)
(7.95849 -2.15713 0)
(7.90043 -2.05524 0)
(7.8511 -1.97048 0)
(7.82227 -1.88184 0)
(7.7463 -1.75593 0)
(7.68493 -1.61188 0)
(7.57798 -1.46255 0)
(7.47836 -1.28327 0)
(7.34975 -1.11914 0)
(7.25892 -0.976487 0)
(7.17508 -0.848388 0)
(7.10186 -0.731352 0)
(7.03656 -0.628848 0)
(6.98582 -0.527497 0)
(6.94747 -0.419741 0)
(6.90457 -0.311063 0)
(6.86572 -0.198201 0)
(6.83759 -0.0804753 0)
(6.80687 0.0318796 0)
(6.7845 0.143712 0)
(6.7502 0.261165 0)
(6.71385 0.368544 0)
(6.68028 0.478501 0)
(6.63151 0.57434 0)
(6.59437 0.654816 0)
(6.52749 0.735031 0)
(6.48588 0.800702 0)
(6.4296 0.868425 0)
(6.37782 0.91721 0)
(6.34336 0.957317 0)
(6.30813 0.988099 0)
(6.28522 0.996151 0)
(6.23143 0.988237 0)
(6.17144 0.97373 0)
(6.09837 0.947802 0)
(6.04503 0.893971 0)
(5.99118 0.860188 0)
(5.93859 0.814109 0)
(5.92579 0.762164 0)
(5.8972 0.724567 0)
(5.87518 0.688917 0)
(5.86644 0.647843 0)
(5.85483 0.610704 0)
(5.85509 0.57751 0)
(5.82902 0.555147 0)
(5.85505 0.502471 0)
(5.81551 0.473286 0)
(5.84032 0.423933 0)
(5.76697 0.414104 0)
(5.80509 0.353634 0)
(5.73046 0.342929 0)
(5.78793 0.29476 0)
(5.69473 0.300849 0)
(5.77907 0.247219 0)
(5.68145 0.242061 0)
(5.77865 0.191149 0)
(5.68803 0.203974 0)
(5.78453 0.139532 0)
(5.70782 0.146535 0)
(5.80358 0.0866197 0)
(5.73376 0.0902285 0)
(5.83855 0.0250503 0)
(5.77014 0.0209503 0)
(5.8711 -0.0329689 0)
(5.80256 -0.0369474 0)
(5.90035 -0.090712 0)
(5.83579 -0.0894666 0)
(5.92218 -0.141853 0)
(5.86306 -0.130294 0)
(5.93983 -0.169581 0)
(5.88304 -0.13699 0)
(5.96112 -0.166172 0)
(5.89653 -0.10978 0)
(5.98749 -0.142311 0)
(5.90672 -0.0689767 0)
(6.01557 -0.0998619 0)
(5.92388 -0.013093 0)
(6.04609 -0.0385951 0)
(5.96835 0.049138 0)
(6.07988 0.0359607 0)
(6.02773 0.11525 0)
(6.12201 0.106275 0)
(6.07567 0.178142 0)
(6.14437 0.164426 0)
(6.1109 0.224827 0)
(6.15375 0.209033 0)
(6.12315 0.259962 0)
(6.15452 0.245215 0)
(6.11088 0.289083 0)
(6.16124 0.273535 0)
(6.08959 0.312384 0)
(6.16736 0.301307 0)
(6.07081 0.336323 0)
(6.16378 0.336375 0)
(6.05299 0.360013 0)
(6.14277 0.371947 0)
(6.02753 0.386575 0)
(6.11917 0.410681 0)
(6.0072 0.42022 0)
(6.09183 0.444214 0)
(5.99017 0.456895 0)
(6.05441 0.487384 0)
(5.96223 0.510909 0)
(6.00004 0.542285 0)
(5.91991 0.573916 0)
(5.92986 0.600062 0)
(5.86663 0.631651 0)
(5.84712 0.642245 0)
(5.8065 0.665151 0)
(5.7575 0.656373 0)
(5.74416 0.669517 0)
(5.67046 0.642445 0)
(5.68225 0.649223 0)
(5.59256 0.607464 0)
(5.62679 0.614797 0)
(5.52963 0.571103 0)
(5.58298 0.591563 0)
(5.48695 0.554591 0)
(5.54973 0.585118 0)
(5.47014 0.554427 0)
(5.5252 0.591229 0)
(5.48229 0.569453 0)
(5.50248 0.616112 0)
(5.51811 0.61029 0)
(5.48649 0.669761 0)
(5.56945 0.687248 0)
(5.49048 0.768605 0)
(5.61619 0.818453 0)
(5.52997 0.939025 0)
(5.63843 1.01984 0)
(5.59035 1.17822 0)
(5.64472 1.28717 0)
(5.65446 1.47708 0)
(5.66669 1.62879 0)
(5.70059 1.83348 0)
(5.71791 2.04321 0)
(5.72197 2.27494 0)
(5.75155 2.53613 0)
(5.75707 2.82059 0)
(5.84069 3.15629 0)
(5.83009 3.54442 0)
(5.70167 4.03799 0)
(5.72034 4.62928 0)
(5.62574 5.24787 0)
(5.34259 6.47463 0)
(6.89872 7.05729 0)
(4.53218 11.3264 0)
(5.83499 -0.242396 0)
(5.8557 -0.259347 0)
(6.01633 -0.310373 0)
(6.2263 -0.364102 0)
(6.46843 -0.419869 0)
(6.72417 -0.49134 0)
(6.98461 -0.574966 0)
(7.19707 -0.687796 0)
(7.40504 -0.829474 0)
(7.59102 -0.97819 0)
(7.78607 -1.12331 0)
(7.92848 -1.24089 0)
(8.03405 -1.33479 0)
(8.12474 -1.38847 0)
(8.20958 -1.42762 0)
(8.32693 -1.43955 0)
(8.44686 -1.44942 0)
(8.58275 -1.46878 0)
(8.66182 -1.5145 0)
(8.71527 -1.57229 0)
(8.7801 -1.63671 0)
(8.82629 -1.69108 0)
(8.89502 -1.75853 0)
(8.98741 -1.81897 0)
(9.06725 -1.87702 0)
(9.14441 -1.93627 0)
(9.17614 -1.98581 0)
(9.22532 -2.03086 0)
(9.25072 -2.0548 0)
(9.27898 -2.06176 0)
(9.29638 -2.06663 0)
(9.30938 -2.08131 0)
(9.29048 -2.08919 0)
(9.27706 -2.09649 0)
(9.2492 -2.10384 0)
(9.1842 -2.13293 0)
(9.10645 -2.19597 0)
(9.02502 -2.29237 0)
(8.96771 -2.38904 0)
(8.93344 -2.45972 0)
(8.87949 -2.51919 0)
(8.82042 -2.57045 0)
(8.74075 -2.60022 0)
(8.67513 -2.60968 0)
(8.61896 -2.60104 0)
(8.56504 -2.57421 0)
(8.50021 -2.53761 0)
(8.42553 -2.49623 0)
(8.30693 -2.42442 0)
(8.21379 -2.37654 0)
(8.13848 -2.34332 0)
(8.05018 -2.28313 0)
(7.98933 -2.22116 0)
(7.91189 -2.12955 0)
(7.84418 -2.02991 0)
(7.78814 -1.95003 0)
(7.74077 -1.85744 0)
(7.64507 -1.72306 0)
(7.56141 -1.57168 0)
(7.4373 -1.41354 0)
(7.33461 -1.23254 0)
(7.20903 -1.07846 0)
(7.13209 -0.940417 0)
(7.05373 -0.816947 0)
(6.98551 -0.705262 0)
(6.92405 -0.606025 0)
(6.86605 -0.505713 0)
(6.8154 -0.400076 0)
(6.77029 -0.293567 0)
(6.73215 -0.181931 0)
(6.70477 -0.0674744 0)
(6.67504 0.0432736 0)
(6.65448 0.154162 0)
(6.62704 0.274848 0)
(6.59008 0.384987 0)
(6.55667 0.495947 0)
(6.51097 0.59447 0)
(6.47683 0.676258 0)
(6.40904 0.757454 0)
(6.36563 0.822375 0)
(6.30968 0.889507 0)
(6.25451 0.936621 0)
(6.22495 0.969582 0)
(6.1958 0.998717 0)
(6.17971 1.01161 0)
(6.13476 1.01079 0)
(6.08093 1.00084 0)
(6.01336 0.97356 0)
(5.96503 0.918737 0)
(5.90859 0.883602 0)
(5.85734 0.825618 0)
(5.84583 0.773829 0)
(5.81268 0.735101 0)
(5.79336 0.697735 0)
(5.78778 0.648912 0)
(5.77368 0.615105 0)
(5.78214 0.579066 0)
(5.75444 0.557278 0)
(5.79659 0.498798 0)
(5.75178 0.479769 0)
(5.79244 0.43023 0)
(5.71543 0.42497 0)
(5.77178 0.357392 0)
(5.68412 0.350187 0)
(5.75711 0.299247 0)
(5.65345 0.306913 0)
(5.74737 0.244879 0)
(5.65426 0.245616 0)
(5.74362 0.186838 0)
(5.66318 0.207133 0)
(5.75074 0.133042 0)
(5.68261 0.14648 0)
(5.76595 0.0784726 0)
(5.70647 0.0879858 0)
(5.79604 0.0142487 0)
(5.74115 0.0202906 0)
(5.82221 -0.0436214 0)
(5.77291 -0.0374473 0)
(5.84464 -0.100624 0)
(5.80433 -0.0891188 0)
(5.86096 -0.150344 0)
(5.83028 -0.129049 0)
(5.86955 -0.177795 0)
(5.85315 -0.13654 0)
(5.88062 -0.174281 0)
(5.87616 -0.110096 0)
(5.89998 -0.150478 0)
(5.89852 -0.0682046 0)
(5.91815 -0.109363 0)
(5.91939 -0.0116573 0)
(5.93599 -0.0537803 0)
(5.96601 0.0512838 0)
(5.95401 0.0147659 0)
(6.03839 0.117513 0)
(5.97856 0.0847072 0)
(6.10877 0.18611 0)
(5.98768 0.142942 0)
(6.17218 0.23896 0)
(5.98527 0.189592 0)
(6.20858 0.278837 0)