/*--------------------------------*- C++ -*----------------------------------*\
| =========                 |                                                 |
| \\      /  F ield         | OpenFOAM: The Open Source CFD Toolbox           |
|  \\    /   O peration     | Version:  2.4.0                                 |
|   \\  /    A nd           | Web:      www.OpenFOAM.org                      |
|    \\/     M anipulation  |                                                 |
\*---------------------------------------------------------------------------*/
FoamFile
{
    version     2.0;
    format      ascii;
    class       volScalarField;
    location    "0.001";
    object      kPrime2Mean;
}
// * * * * * * * * * * * * * * * * * * * * * * * * * * * * * * * * * * * * * //

dimensions      [0 4 -4 0 0 0 0];

internalField   nonuniform List<scalar> 
17600
(
0.457927
1.52479
2.70581
2.04453
1.64351
1.64672
1.68635
1.73645
1.77586
1.81721
1.85709
1.87555
1.90009
1.92619
1.94601
1.96321
1.97238
2.44742
3.91641
8.51977
2.56364
16.5295
27.4188
26.1297
26.9801
28.6394
29.6597
30.1983
30.4632
30.5723
30.5689
30.4921
30.2267
30.0386
29.6974
29.1642
29.1678
32.1149
50.5283
79.7499
2.1598
11.1151
23.7429
30.0774
31.4142
32.8506
33.6023
34.0777
34.3176
34.4455
34.5098
34.4436
34.0854
33.73
33.2422
32.5207
32.0435
32.6289
53.747
87.1044
1.56202
6.1747
13.693
22.2377
25.0235
26.762
27.6818
28.2375
28.5242
28.6884
28.7777
28.7364
28.407
27.9963
27.4224
26.5328
25.5725
24.153
35.1006
49.5678
1.11036
3.49203
7.29728
13.5151
16.3579
18.1729
19.2626
19.9255
20.3006
20.5178
20.6308
20.6322
20.4025
20.0498
19.537
18.7085
17.6822
15.7558
19.1896
23.4523
0.846798
2.13306
3.98439
7.6991
9.78831
11.3405
12.3853
13.0625
13.4797
13.732
13.8665
13.8979
13.7652
13.5045
13.1084
12.4461
11.5648
9.87563
10.0249
10.6109
0.703435
1.4415
2.31544
4.32047
5.63955
6.78825
7.63725
8.22922
8.62208
8.87339
9.01507
9.06449
8.99842
8.82461
8.54304
8.05872
7.38269
6.13074
5.3076
4.89753
0.626846
1.07827
1.46979
2.49536
3.26508
4.0324
4.64088
5.09719
5.42031
5.63855
5.76891
5.82279
5.79593
5.6871
5.49682
5.1622
4.67659
3.82477
2.94344
2.38756
0.585951
0.880097
1.03461
1.54891
1.97957
2.45334
2.8495
3.167
3.40402
3.57169
3.67658
3.72395
3.71577
3.64961
3.52485
3.30251
2.96952
2.41761
1.73658
1.24793
0.563762
0.767975
0.803094
1.0617
1.29709
1.57234
1.81064
2.01204
2.16828
2.28247
2.35594
2.39008
2.38764
2.34679
2.26609
2.1226
1.90303
1.55649
1.0917
0.700551
0.55115
0.702194
0.673825
0.803519
0.929926
1.08212
1.21533
1.33145
1.42305
1.49072
1.53408
1.55305
1.54954
1.52248
1.47017
1.37977
1.24035
1.02775
0.729199
0.422759
0.543279
0.66204
0.597585
0.658632
0.724125
0.804479
0.87319
0.93266
0.97846
1.01104
1.03018
1.0357
1.02875
1.00883
0.974421
0.918701
0.833639
0.705687
0.519356
0.278108
0.537681
0.636397
0.550278
0.57156
0.601958
0.64188
0.673618
0.698862
0.715738
0.725185
0.727665
0.723478
0.71343
0.69742
0.674355
0.640832
0.59125
0.515435
0.399195
0.205117
0.5332
0.619182
0.519679
0.515876
0.524924
0.542451
0.554426
0.561172
0.562156
0.558635
0.551643
0.542001
0.530458
0.517202
0.501609
0.482112
0.454842
0.410176
0.334568
0.173007
0.529378
0.607048
0.499279
0.478564
0.473772
0.478903
0.481239
0.479554
0.473599
0.464586
0.453811
0.442409
0.431186
0.42052
0.410177
0.399488
0.385669
0.358699
0.304351
0.164437
0.526107
0.598176
0.485435
0.452854
0.438599
0.436829
0.435151
0.430881
0.423428
0.41369
0.402932
0.392378
0.38287
0.374889
0.368455
0.36325
0.357078
0.339305
0.294317
0.168755
0.523427
0.591616
0.476025
0.435028
0.414122
0.408503
0.405708
0.401805
0.395627
0.387642
0.378916
0.370601
0.363517
0.358164
0.35468
0.352799
0.350582
0.336891
0.29474
0.179248
0.521411
0.5869
0.469785
0.422951
0.397427
0.389687
0.387062
0.384631
0.38066
0.375213
0.369112
0.363359
0.358709
0.355629
0.354262
0.354253
0.353748
0.34139
0.299263
0.191838
0.520115
0.583819
0.465963
0.415384
0.386879
0.378024
0.375931
0.374984
0.373016
0.369793
0.365929
0.362283
0.359533
0.358088
0.358037
0.358892
0.358843
0.346674
0.304129
0.204314
0.519545
0.582295
0.464133
0.411632
0.381589
0.372238
0.370546
0.370511
0.369731
0.367804
0.365228
0.362765
0.361044
0.360411
0.360901
0.361909
0.361714
0.349597
0.307545
0.215836
0.51964
0.582298
0.4641
0.411378
0.381159
0.371756
0.370111
0.370168
0.369496
0.367679
0.365198
0.362791
0.361082
0.360381
0.360698
0.36137
0.360854
0.349249
0.309304
0.226744
0.520389
0.58382
0.465849
0.414612
0.385576
0.37655
0.374577
0.373883
0.372224
0.369316
0.365728
0.362256
0.359571
0.357993
0.357552
0.357617
0.356929
0.346675
0.310807
0.238707
0.521858
0.586873
0.46955
0.421619
0.395195
0.387112
0.384609
0.38252
0.378989
0.374014
0.368346
0.362911
0.358477
0.355433
0.353881
0.353339
0.352945
0.345183
0.315556
0.255248
0.52403
0.591523
0.475611
0.433067
0.410857
0.404615
0.401807
0.39818
0.392428
0.384955
0.376763
0.368955
0.362447
0.357744
0.355102
0.354315
0.355032
0.351162
0.330002
0.282573
0.526845
0.597952
0.48476
0.450157
0.434116
0.431256
0.429185
0.424849
0.417547
0.408157
0.397938
0.388172
0.379965
0.374003
0.370798
0.370562
0.373564
0.375157
0.364576
0.330555
0.53022
0.606593
0.498231
0.474962
0.467746
0.47099
0.472151
0.469615
0.463128
0.453999
0.443653
0.433508
0.424925
0.418842
0.416194
0.417747
0.424505
0.433119
0.434833
0.413774
0.534102
0.618347
0.518101
0.511093
0.516769
0.531022
0.540388
0.544838
0.544041
0.539564
0.532817
0.525296
0.518738
0.51446
0.514086
0.519029
0.53119
0.548052
0.562915
0.552726
0.538568
0.634958
0.547948
0.565096
0.590575
0.624786
0.651419
0.671985
0.68511
0.692386
0.69501
0.694602
0.693516
0.693661
0.69779
0.707949
0.727158
0.752697
0.779937
0.77569
0.544017
0.659677
0.594185
0.649498
0.707367
0.777734
0.837153
0.888296
0.927545
0.956502
0.976156
0.988604
0.997238
1.0049
1.01615
1.03344
1.06116
1.09437
1.13037
1.12225
0.551509
0.698462
0.668908
0.789649
0.903557
1.03843
1.15558
1.25811
1.33955
1.40232
1.4478
1.47955
1.50249
1.52104
1.54239
1.56889
1.60638
1.6441
1.68048
1.65062
0.563341
0.76229
0.796189
1.03906
1.25315
1.49904
1.7109
1.89157
2.0335
2.14263
2.22242
2.2798
2.32169
2.35484
2.39014
2.42871
2.47752
2.51396
2.53527
2.45355
0.584026
0.871793
1.02616
1.51127
1.90575
2.33148
2.68635
2.97409
3.1928
3.35809
3.47846
3.56707
3.63263
3.68547
3.74097
3.79705
3.86078
3.88833
3.87128
3.69244
0.622061
1.06678
1.46504
2.43908
3.15058
3.84304
4.39053
4.80641
5.10899
5.33317
5.49663
5.62094
5.71694
5.79813
5.8856
5.97063
6.05912
6.07322
5.99382
5.6583
0.693133
1.42649
2.33521
4.2616
5.50239
6.53944
7.30349
7.84303
8.21661
8.49173
8.69683
8.86038
8.99842
9.12412
9.26481
9.40134
9.53768
9.55179
9.40562
8.85627
0.825797
2.11355
4.09088
7.71079
9.73846
11.127
12.0587
12.6688
13.0746
13.3805
13.6236
13.8255
14.0277
14.2233
14.4493
14.6748
14.9041
14.9814
14.8196
14.0512
1.06928
3.46303
7.62436
13.7424
16.6894
18.2473
19.1808
19.7563
20.1322
20.4411
20.7132
20.9324
21.2392
21.5299
21.8738
22.238
22.6184
22.9015
22.8355
21.9746
1.48826
6.11281
14.4161
22.7408
26.1165
27.3987
28.1223
28.5522
28.8439
29.1221
29.3895
29.5526
30.0234
30.3997
30.8551
31.3754
31.8788
32.4736
32.6139
31.8606
2.05402
10.8705
24.7558
30.7513
33.1257
33.9186
34.5072
34.8112
34.9956
35.2009
35.3557
35.3359
36.0279
36.341
36.7641
37.2586
37.419
37.9998
38.3792
37.4392
2.48261
16.0715
28.0132
27.2385
28.47
29.8942
30.7909
31.2256
31.2972
31.3759
31.2893
31.0706
31.6821
31.6906
31.7317
31.6221
30.4511
29.8475
30.2944
29.6134
0.447189
1.46973
2.67371
2.05146
1.70957
1.68148
1.70849
1.75323
1.78813
1.82338
1.85808
1.87946
1.92312
1.95241
1.98073
2.01146
2.02368
2.09377
2.24277
2.43626
67.9724
77.0928
34.4426
19.6994
14.0248
11.5854
10.3245
9.51134
8.81716
8.11647
7.39409
6.69369
6.08081
5.61639
5.336
5.23243
5.24212
5.24746
5.11627
4.7709
4.23096
3.58757
2.94064
2.35656
1.86274
1.46081
1.14056
0.888367
0.691067
0.537299
0.417722
0.324841
0.252726
0.196724
0.15321
0.119368
0.093022
0.0724893
0.0564716
0.043966
0.0341969
0.0265638
0.0206003
0.0159439
0.0123113
0.00948148
0.00728091
0.00557349
0.00425215
0.00323266
0.00244867
0.00184795
0.00138943
0.00104088
0.000777012
0.000578109
0.000428812
0.000317219
0.000234145
0.000172541
0.000127024
9.35049e-05
6.88947e-05
5.08727e-05
3.77041e-05
2.8099e-05
2.11019e-05
1.60092e-05
1.23041e-05
9.60884e-06
7.64798e-06
6.22091e-06
5.18133e-06
4.42249e-06
3.8665e-06
3.45614e-06
3.14937e-06
2.91618e-06
2.73637e-06
2.59634e-06
2.48697e-06
2.40215e-06
2.33814e-06
2.29191e-06
2.26081e-06
2.24255e-06
2.23545e-06
2.23769e-06
2.24743e-06
2.26293e-06
2.2828e-06
2.30518e-06
2.32774e-06
2.34791e-06
2.36343e-06
2.37185e-06
2.37124e-06
2.36123e-06
2.34391e-06
2.32202e-06
2.29866e-06
2.27673e-06
2.25875e-06
2.24548e-06
2.23659e-06
2.23137e-06
2.22914e-06
2.22898e-06
2.23019e-06
2.23248e-06
2.23587e-06
2.24026e-06
2.24545e-06
2.25144e-06
2.25829e-06
2.2659e-06
2.27388e-06
2.28208e-06
2.29074e-06
2.30005e-06
2.31014e-06
2.32109e-06
2.33313e-06
2.34563e-06
2.35722e-06
2.3662e-06
2.37118e-06
2.37052e-06
2.36304e-06
2.349e-06
2.3307e-06
2.31068e-06
2.29141e-06
2.27497e-06
2.26281e-06
2.25458e-06
2.24896e-06
2.2446e-06
2.24036e-06
2.23505e-06
2.22768e-06
2.21775e-06
2.20493e-06
2.18851e-06
2.16744e-06
2.1407e-06
2.10726e-06
2.06567e-06
2.0142e-06
1.95119e-06
1.87511e-06
1.78439e-06
1.67764e-06
1.5544e-06
1.41562e-06
1.26426e-06
1.10694e-06
9.5672e-07
8.36838e-07
7.86425e-07
8.70117e-07
1.19289e-06
1.92252e-06
3.32501e-06
5.82013e-06
1.00675e-05
1.71023e-05
2.85555e-05
4.70103e-05
7.65907e-05
0.000123964
0.000200111
0.000323527
0.000526257
0.000865764
0.0014492
0.0024845
0.00438955
0.00802202
0.0151385
0.0292217
0.0567527
0.108776
0.202238
0.360281
0.610559
0.980886
1.49212
2.14928
2.93311
3.79547
4.66112
5.43692
6.02559
6.33837
6.28689
5.73198
4.64197
8.98388
10.7055
83.5653
66.3963
32.9637
20.2611
14.8942
12.3512
10.8671
9.7948
8.86626
7.99175
7.16872
6.43419
5.83498
5.40891
5.17085
5.10007
5.12954
5.14796
5.03364
4.71436
4.20593
3.59128
2.96466
2.3916
1.9016
1.49902
1.1758
0.919667
0.718245
0.560554
0.437424
0.341416
0.266595
0.208281
0.162805
0.127311
0.0995787
0.0778871
0.0609036
0.0475952
0.0371606
0.028977
0.0225594
0.0175291
0.0135898
0.010509
0.00810367
0.00622983
0.00477374
0.00364554
0.00277423
0.00210368
0.00158957
0.00119695
0.000898321
0.000672119
0.000501478
0.000373264
0.000277299
0.000205731
0.000152536
0.000113116
8.39785e-05
6.24879e-05
4.66641e-05
3.50265e-05
2.64729e-05
2.01871e-05
1.5566e-05
1.21662e-05
9.66219e-06
7.81504e-06
6.44935e-06
5.43631e-06
4.68136e-06
4.11438e-06
3.68346e-06
3.3515e-06
3.09317e-06
2.89054e-06
2.731e-06
2.60596e-06
2.50998e-06
2.43837e-06
2.38708e-06
2.35306e-06
2.33426e-06
2.32821e-06
2.33227e-06
2.34419e-06
2.36221e-06
2.3836e-06
2.40504e-06
2.42349e-06
2.43658e-06
2.44153e-06
2.43617e-06
2.42066e-06
2.39779e-06
2.3705e-06
2.34169e-06
2.31448e-06
2.29179e-06
2.27424e-06
2.26123e-06
2.2522e-06
2.24687e-06
2.24432e-06
2.24365e-06
2.24463e-06
2.24751e-06
2.25207e-06
2.25789e-06
2.26506e-06
2.27384e-06
2.28406e-06
2.29523e-06
2.30737e-06
2.321e-06
2.3362e-06
2.35272e-06
2.37053e-06
2.38981e-06
2.4093e-06
2.42685e-06
2.44048e-06
2.44893e-06
2.45035e-06
2.44338e-06
2.42889e-06
2.41011e-06
2.38987e-06
2.37053e-06
2.35451e-06
2.34386e-06
2.33825e-06
2.33616e-06
2.33648e-06
2.33865e-06
2.34145e-06
2.3437e-06
2.34491e-06
2.34501e-06
2.3431e-06
2.33778e-06
2.32798e-06
2.31283e-06
2.29063e-06
2.25924e-06
2.21681e-06
2.16175e-06
2.0918e-06
2.00449e-06
1.89823e-06
1.77246e-06
1.62736e-06
1.46563e-06
1.29524e-06
1.13245e-06
1.00621e-06
9.67146e-07
1.10145e-06
1.55132e-06
2.54783e-06
4.46369e-06
7.89548e-06
1.37941e-05
2.36783e-05
3.9983e-05
6.66382e-05
0.000110063
0.000180935
0.00029742
0.00049131
0.000820217
0.00139278
0.00242222
0.00434152
0.00804697
0.0153839
0.0300154
0.0587438
0.11311
0.21074
0.375609
0.636311
1.02164
1.55338
2.23722
3.05419
3.95561
4.86474
5.68594
6.3193
6.67533
6.67256
6.1913
5.2485
8.8426
19.4633
64.8803
45.4392
26.32
18.07
14.0965
11.9703
10.5733
9.47432
8.50205
7.60723
6.79799
6.10558
5.56373
5.19602
5.0062
4.96804
5.01636
5.04862
4.95374
4.66395
4.19022
3.6066
3.0015
2.43971
1.95307
1.54893
1.22158
0.960295
0.753554
0.590823
0.46313
0.363098
0.284792
0.22349
0.175476
0.137836
0.108298
0.0850927
0.0668435
0.0524796
0.0411666
0.0322538
0.025232
0.0197025
0.0153516
0.0119324
0.00924977
0.00714934
0.00550877
0.00423095
0.00323875
0.00247095
0.00187893
0.00142417
0.0010762
0.000810986
0.000609631
0.000457333
0.000342553
0.000256335
0.000191765
0.000143534
0.000107583
8.08289e-05
6.0941e-05
4.61642e-05
3.51834e-05
2.70175e-05
2.09368e-05
1.64003e-05
1.30079e-05
1.04637e-05
8.54899e-06
7.10174e-06
6.00213e-06
5.16087e-06
4.5114e-06
4.00547e-06
3.6086e-06
3.29565e-06
3.04804e-06
2.8526e-06
2.69992e-06
2.58229e-06
2.49317e-06
2.42763e-06
2.38201e-06
2.35262e-06
2.33583e-06
2.32864e-06
2.32862e-06
2.33259e-06
2.337e-06
2.3389e-06
2.3361e-06
2.32629e-06
2.30786e-06
2.28155e-06
2.25021e-06
2.21669e-06
2.18344e-06
2.15318e-06
2.1282e-06
2.10887e-06
2.09433e-06
2.084e-06
2.07756e-06
2.07415e-06
2.07288e-06
2.07349e-06
2.07614e-06
2.08055e-06
2.08621e-06
2.0931e-06
2.10145e-06
2.11104e-06
2.12136e-06
2.13245e-06
2.1448e-06
2.1584e-06
2.17292e-06
2.18828e-06
2.20454e-06
2.2204e-06
2.2337e-06
2.24276e-06
2.24659e-06
2.24385e-06
2.23363e-06
2.21733e-06
2.19821e-06
2.179e-06
2.1616e-06
2.1481e-06
2.14007e-06
2.13705e-06
2.13743e-06
2.14016e-06
2.14479e-06
2.15027e-06
2.15546e-06
2.15997e-06
2.16377e-06
2.16607e-06
2.16556e-06
2.16139e-06
2.15292e-06
2.13874e-06
2.11702e-06
2.08633e-06
2.04555e-06
1.99283e-06
1.92616e-06
1.84443e-06
1.74752e-06
1.63591e-06
1.5124e-06
1.38481e-06
1.26874e-06
1.19175e-06
1.20197e-06
1.38162e-06
1.86673e-06
2.87909e-06
4.77794e-06
8.1405e-06
1.38904e-05
2.35085e-05
3.93779e-05
6.53593e-05
0.000107784
0.00017723
0.00029178
0.000483255
0.000809697
0.00138137
0.00241639
0.00436117
0.00814578
0.0156926
0.0308205
0.0606069
0.117015
0.218242
0.388961
0.658563
1.05668
1.60593
2.31266
3.15821
4.09359
5.04088
5.90262
6.57738
6.97686
7.03025
6.64436
5.83544
7.78264
18.3428
37.6508
27.7152
18.9058
14.5715
12.1704
10.7181
9.64458
8.72167
7.86746
7.07138
6.35548
5.75224
5.2911
4.9902
4.84933
4.84195
4.90757
4.95321
4.8779
4.61783
4.17915
3.62723
3.04453
2.49478
2.01195
1.60631
1.27458
1.00767
0.795024
0.626621
0.493733
0.389077
0.306728
0.241935
0.190931
0.150748
0.119056
0.0940326
0.0742544
0.0586075
0.0462206
0.036411
0.028642
0.0224913
0.0176254
0.0137802
0.0107464
0.00835734
0.00648036
0.00500959
0.00386054
0.00296574
0.00227134
0.00173438
0.00132072
0.00100322
0.000760427
0.000575421
0.000434917
0.000328535
0.000248207
0.000187687
0.00014217
0.000107978
8.23091e-05
6.30368e-05
4.85564e-05
3.7661e-05
2.9446e-05
2.32351e-05
1.85239e-05
1.49369e-05
1.21943e-05
1.00873e-05
8.46037e-06
7.19679e-06
6.20916e-06
5.43252e-06
4.81866e-06
4.33155e-06
3.94398e-06
3.63555e-06
3.39073e-06
3.1971e-06
3.04448e-06
2.92477e-06
2.83151e-06
2.75902e-06
2.70224e-06
2.65707e-06
2.62015e-06
2.58813e-06
2.55786e-06
2.52691e-06
2.49366e-06
2.45682e-06
2.41578e-06
2.37169e-06
2.32689e-06
2.28368e-06
2.24389e-06
2.20926e-06
2.18097e-06
2.15895e-06
2.14233e-06
2.13037e-06
2.12253e-06
2.11802e-06
2.11602e-06
2.11612e-06
2.11816e-06
2.12169e-06
2.12616e-06
2.1313e-06
2.13702e-06
2.14297e-06
2.14869e-06
2.15407e-06
2.15927e-06
2.16427e-06
2.16882e-06
2.1729e-06
2.17653e-06
2.17893e-06
2.17878e-06
2.17518e-06
2.16773e-06
2.15598e-06
2.13992e-06
2.12105e-06
2.1019e-06
2.08448e-06
2.07e-06
2.05955e-06
2.05365e-06
2.05154e-06
2.0517e-06
2.05308e-06
2.05506e-06
2.05673e-06
2.05723e-06
2.05613e-06
2.05324e-06
2.04795e-06
2.03931e-06
2.0267e-06
2.00966e-06
1.98732e-06
1.95855e-06
1.92259e-06
1.87889e-06
1.82662e-06
1.76501e-06
1.69417e-06
1.61532e-06
1.53086e-06
1.44596e-06
1.37103e-06
1.32465e-06
1.33829e-06
1.46497e-06
1.79253e-06
2.46384e-06
3.70938e-06
5.89901e-06
9.62261e-06
1.58195e-05
2.59902e-05
4.25427e-05
6.937e-05
0.000112851
0.000183642
0.000299968
0.000493956
0.00082437
0.00140328
0.00245346
0.00443316
0.00830142
0.0160458
0.0316165
0.0623219
0.120482
0.224783
0.400522
0.677842
1.08726
1.65237
2.38056
3.25399
4.22407
5.21272
6.12179
6.84984
7.31144
7.44776
7.19191
6.52542
6.89471
12.6173
19.6199
16.2622
13.0295
11.2302
10.0557
9.22617
8.51157
7.82434
7.14578
6.49341
5.90047
5.40237
5.0279
4.79367
4.699
4.7195
4.80078
4.85956
4.80434
4.57464
4.17182
3.65272
3.09367
2.55705
2.07872
1.67182
1.33557
1.06263
0.843505
0.668779
0.530026
0.420094
0.333088
0.264239
0.209735
0.166551
0.132301
0.105104
0.0834862
0.0662859
0.0525906
0.0416816
0.0329909
0.0260694
0.0205604
0.0161802
0.0127024
0.00994617
0.00776648
0.00604707
0.00469456
0.00363391
0.00280489
0.00215913
0.0016579
0.00127023
0.000971433
0.000741913
0.000566158
0.000431957
0.000329737
0.000252032
0.000193051
0.000148321
0.000114408
8.8686e-05
6.91539e-05
5.42947e-05
4.29617e-05
3.42904e-05
2.76304e-05
2.24937e-05
1.85139e-05
1.54156e-05
1.29919e-05
1.10865e-05
9.5813e-06
8.38664e-06
7.43434e-06
6.67248e-06
6.06118e-06
5.56954e-06
5.17333e-06
4.85329e-06
4.59383e-06
4.38218e-06
4.20775e-06
4.06179e-06
3.93703e-06
3.82761e-06
3.72898e-06
3.63762e-06
3.551e-06
3.46751e-06
3.38638e-06
3.30747e-06
3.23127e-06
3.15891e-06
3.09187e-06
3.03147e-06
2.97861e-06
2.93378e-06
2.89697e-06
2.86771e-06
2.84516e-06
2.82847e-06
2.81683e-06
2.80939e-06
2.80534e-06
2.80393e-06
2.80445e-06
2.80618e-06
2.80835e-06
2.81028e-06
2.8114e-06
2.81114e-06
2.80897e-06
2.80452e-06
2.79764e-06
2.78821e-06
2.77622e-06
2.76181e-06
2.74524e-06
2.72666e-06
2.70615e-06
2.68401e-06
2.66075e-06
2.63701e-06
2.61358e-06
2.59163e-06
2.57243e-06
2.55677e-06
2.54484e-06
2.53641e-06
2.53088e-06
2.52717e-06
2.52403e-06
2.52039e-06
2.51542e-06
2.50838e-06
2.49859e-06
2.48558e-06
2.46898e-06
2.44838e-06
2.42335e-06
2.39366e-06
2.3592e-06
2.31991e-06
2.27579e-06
2.22713e-06
2.17454e-06
2.11887e-06
2.06158e-06
2.00516e-06
1.95361e-06
1.91325e-06
1.89427e-06
1.91309e-06
1.99587e-06
2.18425e-06
2.54447e-06
3.18122e-06
4.25927e-06
6.03809e-06
8.92516e-06
1.3559e-05
2.09424e-05
3.26592e-05
5.12264e-05
8.06809e-05
0.000127597
0.0002029
0.000325205
0.00052724
0.000868807
0.00146398
0.00253984
0.00456469
0.00852103
0.0164485
0.0324018
0.0638742
0.123474
0.230299
0.410189
0.694001
1.11318
1.69246
2.44059
3.3411
4.34657
5.37961
6.34252
7.13482
7.67442
7.91289
7.8048
7.30654
6.74669
8.07394
9.97093
9.53217
8.87319
8.48716
8.13369
7.78778
7.38875
6.9299
6.43127
5.92821
5.46123
5.06789
4.77706
4.60515
4.55234
4.5975
4.69288
4.7647
4.73025
4.53195
4.1663
3.68163
3.148
2.62607
2.15333
1.74571
1.40502
1.12577
0.899682
0.71802
0.572735
0.456854
0.364542
0.291029
0.232467
0.185776
0.148513
0.11874
0.0949251
0.0758577
0.0605798
0.0483322
0.0385123
0.0306403
0.0243332
0.0192847
0.0152488
0.0120279
0.00946258
0.00742429
0.00580905
0.00453279
0.00352752
0.00273831
0.00212082
0.00163932
0.00126512
0.00097525
0.00075138
0.000578952
0.000446456
0.000344836
0.000267003
0.000207434
0.000161851
0.000126951
0.000100195
7.96438e-05
6.38151e-05
5.15833e-05
4.2094e-05
3.47005e-05
2.89139e-05
2.43637e-05
2.07691e-05
1.79167e-05
1.56436e-05
1.38244e-05
1.23626e-05
1.11835e-05
1.02291e-05
9.45395e-06
8.8218e-06
8.30385e-06
7.8767e-06
7.52096e-06
7.22046e-06
6.96187e-06
6.73438e-06
6.52949e-06
6.34089e-06
6.16448e-06
5.99802e-06
5.84065e-06
5.69251e-06
5.55444e-06
5.42758e-06
5.3128e-06
5.21061e-06
5.1211e-06
5.044e-06
4.97864e-06
4.92419e-06
4.87984e-06
4.84477e-06
4.81809e-06
4.79875e-06
4.78568e-06
4.7777e-06
4.77353e-06
4.7718e-06
4.77122e-06
4.77055e-06
4.76857e-06
4.76415e-06
4.75635e-06
4.74444e-06
4.72785e-06
4.7062e-06
4.67937e-06
4.64753e-06
4.61109e-06
4.57083e-06
4.52797e-06
4.48408e-06
4.44088e-06
4.40004e-06
4.36313e-06
4.33137e-06
4.30535e-06
4.28496e-06
4.26954e-06
4.25806e-06
4.24919e-06
4.24154e-06
4.23392e-06
4.22529e-06
4.21471e-06
4.20128e-06
4.18422e-06
4.16286e-06
4.13658e-06
4.1049e-06
4.06759e-06
4.02467e-06
3.97641e-06
3.92331e-06
3.86625e-06
3.80649e-06
3.74567e-06
3.68594e-06
3.63023e-06
3.58254e-06
3.54829e-06
3.53505e-06
3.55379e-06
3.62058e-06
3.75914e-06
4.00498e-06
4.4122e-06
5.06331e-06
6.08421e-06
7.66773e-06
1.01105e-05
1.38684e-05
1.96432e-05
2.85203e-05
4.21909e-05
6.33112e-05
9.6099e-05
0.000147367
0.000228353
0.000358095
0.000569908
0.00092447
0.00153731
0.00263836
0.00470219
0.00872615
0.0167838
0.0330004
0.0649982
0.125596
0.234201
0.417106
0.70581
1.13268
1.72373
2.48932
3.41486
4.45475
5.53319
6.55378
7.41775
8.04621
8.39862
8.44642
8.1473
7.31526
6.45703
5.1548
5.68366
6.05486
6.3674
6.50805
6.5031
6.35583
6.09552
5.76139
5.39793
5.04917
4.75344
4.53949
4.42381
4.40795
4.47446
4.58231
4.6669
4.65375
4.48785
4.16085
3.71261
3.20661
2.70137
2.2357
1.82824
1.48343
1.19778
0.964334
0.775172
0.622703
0.500185
0.401886
0.323057
0.259825
0.209067
0.168282
0.135473
0.109052
0.0877544
0.0705726
0.0567041
0.0455074
0.0364688
0.0291756
0.0232956
0.0185607
0.0147537
0.0116987
0.00925252
0.00729877
0.00574267
0.00450698
0.00352881
0.00275702
0.00215007
0.0016743
0.00130254
0.00101291
0.000787863
0.000613408
0.000478426
0.000374131
0.000293611
0.000231458
0.00018346
0.00014635
0.000117604
9.528e-05
7.78881e-05
6.42876e-05
5.3608e-05
4.51854e-05
3.85132e-05
3.32043e-05
2.89618e-05
2.55576e-05
2.28148e-05
2.05958e-05
1.87934e-05
1.73235e-05
1.612e-05
1.51299e-05
1.4311e-05
1.36287e-05
1.30542e-05
1.25635e-05
1.21367e-05
1.17578e-05
1.14145e-05
1.10979e-05
1.08027e-05
1.05264e-05
1.02685e-05
1.00297e-05
9.81153e-06
9.615e-06
9.44039e-06
9.287e-06
9.15354e-06
9.03844e-06
8.94006e-06
8.85701e-06
8.78829e-06
8.73309e-06
8.69043e-06
8.65902e-06
8.63729e-06
8.62337e-06
8.61517e-06
8.61047e-06
8.60715e-06
8.60317e-06
8.59661e-06
8.58568e-06
8.5689e-06
8.54524e-06
8.51393e-06
8.47455e-06
8.42704e-06
8.37187e-06
8.30992e-06
8.24278e-06
8.17287e-06
8.10332e-06
8.03729e-06
7.97764e-06
7.9266e-06
7.88536e-06
7.85364e-06
7.82992e-06
7.81208e-06
7.79785e-06
7.7851e-06
7.77213e-06
7.75783e-06
7.74144e-06
7.72218e-06
7.69914e-06
7.67139e-06
7.63803e-06
7.59823e-06
7.55139e-06
7.49746e-06
7.43688e-06
7.37051e-06
7.29967e-06
7.22631e-06
7.15302e-06
7.083e-06
7.02023e-06
6.96993e-06
6.93881e-06
6.93546e-06
6.9713e-06
7.06213e-06
7.22991e-06
7.50577e-06
7.93475e-06
8.58351e-06
9.55103e-06
1.0985e-05
1.31072e-05
1.62527e-05
2.09278e-05
2.78993e-05
3.83372e-05
5.40412e-05
7.78041e-05
0.000114017
0.000169707
0.000256378
0.000393385
0.000614408
0.000980533
0.00160772
0.00272642
0.00481246
0.00886718
0.0169764
0.0332966
0.0655162
0.126574
0.236083
0.420666
0.712373
1.14445
1.74425
2.52398
3.4713
4.54304
5.66569
6.7449
7.68396
8.40667
8.87759
9.08096
8.99631
8.30716
6.97072
2.75798
3.46695
4.1641
4.77125
5.17951
5.39723
5.43866
5.34128
5.1496
4.91045
4.66814
4.46037
4.31521
4.24918
4.2653
4.34984
4.46839
4.5651
4.57335
4.44054
4.15364
3.74401
3.26823
2.78214
2.3255
1.91947
1.57117
1.27925
1.0382
0.841067
0.6808
0.550967
0.445983
0.361151
0.292595
0.237157
0.192286
0.155928
0.126436
0.102491
0.083033
0.0672131
0.0543472
0.0438843
0.0353787
0.0284693
0.0228627
0.0183196
0.0146449
0.0116788
0.00929022
0.00737186
0.00583553
0.00460887
0.00363255
0.00285797
0.00224539
0.00176245
0.00138283
0.00108524
0.000852505
0.000670855
0.000529292
0.000419078
0.000333302
0.000266531
0.000214505
0.000173905
0.000142151
0.000117243
9.76394e-05
8.21521e-05
6.98673e-05
6.0082e-05
5.2255e-05
4.59682e-05
4.08978e-05
3.67914e-05
3.34517e-05
3.07242e-05
2.84871e-05
2.66444e-05
2.51193e-05
2.385e-05
2.27857e-05
2.18841e-05
2.11102e-05
2.04347e-05
1.98343e-05
1.92912e-05
1.87931e-05
1.83323e-05
1.79055e-05
1.75118e-05
1.7152e-05
1.68271e-05
1.65374e-05
1.62819e-05
1.60583e-05
1.58637e-05
1.56951e-05
1.55499e-05
1.54264e-05
1.53234e-05
1.52402e-05
1.51755e-05
1.51276e-05
1.50941e-05
1.50723e-05
1.50589e-05
1.50505e-05
1.50439e-05
1.5036e-05
1.50239e-05
1.50049e-05
1.4977e-05
1.49385e-05
1.48885e-05
1.48268e-05
1.47535e-05
1.46696e-05
1.45769e-05
1.44782e-05
1.43772e-05
1.42789e-05
1.41877e-05
1.41076e-05
1.4041e-05
1.39886e-05
1.39489e-05
1.3919e-05
1.38951e-05
1.38741e-05
1.38533e-05
1.3831e-05
1.38065e-05
1.37793e-05
1.37489e-05
1.37143e-05
1.36743e-05
1.36277e-05
1.35733e-05
1.35104e-05
1.34392e-05
1.33605e-05
1.32759e-05
1.31877e-05
1.30989e-05
1.30137e-05
1.29369e-05
1.28746e-05
1.28343e-05
1.28256e-05
1.28604e-05
1.29539e-05
1.31264e-05
1.34057e-05
1.38294e-05
1.44515e-05
1.535e-05
1.6639e-05
1.84863e-05
2.11408e-05
2.49737e-05
3.0538e-05
3.86612e-05
5.05905e-05
6.82218e-05
9.4465e-05
0.000133849
0.00019356
0.000285264
0.00042845
0.000656831
0.00103125
0.00166677
0.00279166
0.00487714
0.00891647
0.016984
0.0332251
0.0653272
0.126256
0.235708
0.420515
0.713154
1.14768
1.75279
2.54267
3.50756
4.60722
5.77104
6.90722
7.92129
8.73896
9.32731
9.67962
9.80414
9.43011
8.38285
1.52975
2.16012
2.88918
3.57983
4.1122
4.46438
4.64039
4.67156
4.5991
4.46741
4.31858
4.18841
4.10371
4.08081
4.12412
4.22348
4.35077
4.45852
4.48766
4.38814
4.14251
3.77374
3.33106
2.86706
2.42188
2.01903
1.66827
1.3705
1.12185
0.916418
0.747835
0.610055
0.497701
0.406169
0.331606
0.270837
0.221269
0.180797
0.147718
0.120656
0.0984985
0.0803468
0.065472
0.0532824
0.0432964
0.0351207
0.0284339
0.0229718
0.0185174
0.0148919
0.0119477
0.00956257
0.0076357
0.00608353
0.00483701
0.00383907
0.00304265
0.00240903
0.00190643
0.00150886
0.00119516
0.000948179
0.000754057
0.000601671
0.00048213
0.000388365
0.000314778
0.000256961
0.000211453
0.000175548
0.000147136
0.00012458
0.000106608
9.2234e-05
8.06918e-05
7.13864e-05
6.38538e-05
5.77308e-05
5.27322e-05
4.8634e-05
4.52592e-05
4.24681e-05
4.01487e-05
3.82107e-05
3.65796e-05
3.51938e-05
3.40019e-05
3.29614e-05
3.20389e-05
3.12088e-05
3.04536e-05
2.97623e-05
2.91292e-05
2.85523e-05
2.8031e-05
2.75647e-05
2.7152e-05
2.67895e-05
2.64728e-05
2.61967e-05
2.59569e-05
2.57497e-05
2.55731e-05
2.54257e-05
2.53064e-05
2.52137e-05
2.51452e-05
2.50973e-05
2.50659e-05
2.50463e-05
2.50337e-05
2.50232e-05
2.50105e-05
2.49914e-05
2.49621e-05
2.49196e-05
2.48618e-05
2.47875e-05
2.46967e-05
2.45901e-05
2.44698e-05
2.43389e-05
2.42017e-05
2.40641e-05
2.39324e-05
2.38127e-05
2.37094e-05
2.36248e-05
2.35585e-05
2.35074e-05
2.34669e-05
2.34321e-05
2.33989e-05
2.33645e-05
2.33276e-05
2.3288e-05
2.32457e-05
2.32002e-05
2.31505e-05
2.3095e-05
2.3032e-05
2.29601e-05
2.28784e-05
2.27872e-05
2.2688e-05
2.25831e-05
2.24757e-05
2.23705e-05
2.22729e-05
2.21898e-05
2.21292e-05
2.21014e-05
2.21187e-05
2.2196e-05
2.23525e-05
2.26128e-05
2.30093e-05
2.35857e-05
2.44032e-05
2.55494e-05
2.71515e-05
2.93945e-05
3.25512e-05
3.70242e-05
4.34082e-05
5.25832e-05
6.58618e-05
8.52179e-05
0.00011365
0.000155779
0.000218872
0.000314632
0.000462462
0.000695718
0.00107427
0.00171087
0.00282866
0.00488818
0.00886202
0.0167886
0.0327585
0.0643894
0.124577
0.232981
0.416502
0.707912
1.14197
1.74867
2.54428
3.52184
4.64444
5.84483
7.0342
8.12023
9.02978
9.73024
10.2201
10.5324
10.4902
9.91272
0.874475
1.36776
2.01919
2.69081
3.26186
3.68677
3.95416
4.08349
4.10824
4.06743
3.99916
3.93635
3.90405
3.91813
3.98413
4.09521
4.22914
4.34638
4.39525
4.32851
4.12485
3.79903
3.39256
2.95399
2.52329
2.12591
1.77423
1.47146
1.2155
1.00168
0.824423
0.678169
0.557821
0.458919
0.37767
0.310902
0.255999
0.210812
0.173586
0.142892
0.117565
0.0966539
0.079384
0.0651204
0.0533428
0.0436232
0.0356092
0.0290093
0.0235821
0.0191273
0.0154783
0.0124964
0.0100658
0.00809011
0.00648892
0.00519517
0.00415306
0.00331624
0.00264628
0.00211146
0.00168564
0.00134742
0.00107929
0.000867076
0.000699284
0.000566688
0.000461901
0.000379036
0.000313427
0.000261386
0.000220012
0.000187027
0.000160648
0.000139482
0.000122437
0.000108658
9.74751e-05
8.83622e-05
8.09042e-05
7.47742e-05
6.9714e-05
6.55188e-05
6.20245e-05
5.90984e-05
5.66313e-05
5.45327e-05
5.27278e-05
5.11552e-05
4.97667e-05
4.85261e-05
4.74078e-05
4.63955e-05
4.54796e-05
4.46548e-05
4.39174e-05
4.32637e-05
4.26889e-05
4.2186e-05
4.17474e-05
4.13655e-05
4.10337e-05
4.07475e-05
4.0504e-05
4.03014e-05
4.01383e-05
4.00121e-05
3.99194e-05
3.9855e-05
3.9813e-05
3.97867e-05
3.97694e-05
3.97545e-05
3.9736e-05
3.97079e-05
3.96651e-05
3.96034e-05
3.952e-05
3.94135e-05
3.92843e-05
3.91344e-05
3.89674e-05
3.87882e-05
3.86037e-05
3.84218e-05
3.82507e-05
3.80975e-05
3.79667e-05
3.78599e-05
3.77748e-05
3.77067e-05
3.76492e-05
3.75963e-05
3.75434e-05
3.74878e-05
3.74289e-05
3.73672e-05
3.73031e-05
3.72362e-05
3.71653e-05
3.70882e-05
3.70029e-05
3.69073e-05
3.68007e-05
3.66836e-05
3.65579e-05
3.6427e-05
3.62952e-05
3.61687e-05
3.60546e-05
3.59617e-05
3.59003e-05
3.58831e-05
3.59253e-05
3.6045e-05
3.62647e-05
3.6613e-05
3.71264e-05
3.78531e-05
3.88599e-05
4.02422e-05
4.2137e-05
4.47439e-05
4.83554e-05
5.34011e-05
6.05105e-05
7.06076e-05
8.50572e-05
0.000105892
0.000136166
0.000180545
0.000246293
0.000345015
0.000495802
0.00073125
0.00110952
0.00173964
0.00283675
0.00484469
0.00870304
0.0163899
0.0318981
0.0627065
0.121543
0.227913
0.408639
0.696644
1.12725
1.73171
2.52836
3.51322
4.65299
5.8842
7.12125
8.27389
9.26933
10.0735
10.6865
11.1568
11.3908
11.2202
0.512173
0.875064
1.41791
2.02567
2.58719
3.04331
3.36892
3.57079
3.67295
3.70751
3.70753
3.70238
3.71493
3.76029
3.84486
3.96476
4.10313
4.22787
4.29458
4.25931
4.09764
3.8165
3.44935
3.03994
2.62726
2.23829
1.88781
1.58139
1.31885
1.09688
0.910842
0.755766
0.626924
0.520063
0.431493
0.35808
0.297204
0.246686
0.20473
0.169859
0.140855
0.116719
0.0966273
0.0799018
0.065981
0.0544005
0.0447744
0.0367814
0.0301537
0.0246671
0.020134
0.0163969
0.0133234
0.0108023
0.00874018
0.0070584
0.00569096
0.00458251
0.00368671
0.0029649
0.0023849
0.00192005
0.00154832
0.00125163
0.00101516
0.000826894
0.000677066
0.000557824
0.000462864
0.000387155
0.000326694
0.000278307
0.000239485
0.000208247
0.000183033
0.000162608
0.000146003
0.000132449
0.000121341
0.000112198
0.000104642
9.83707e-05
9.31423e-05
8.87607e-05
8.50651e-05
8.19222e-05
7.92228e-05
7.68782e-05
7.4819e-05
7.29929e-05
7.13629e-05
6.99038e-05
6.85992e-05
6.74376e-05
6.64099e-05
6.55069e-05
6.47178e-05
6.40309e-05
6.34339e-05
6.29157e-05
6.24674e-05
6.20824e-05
6.1757e-05
6.14883e-05
6.12737e-05
6.11093e-05
6.09898e-05
6.09078e-05
6.08549e-05
6.08222e-05
6.08004e-05
6.07809e-05
6.07551e-05
6.07154e-05