/*--------------------------------*- C++ -*----------------------------------*\
| =========                 |                                                 |
| \\      /  F ield         | OpenFOAM: The Open Source CFD Toolbox           |
|  \\    /   O peration     | Version:  2.4.0                                 |
|   \\  /    A nd           | Web:      www.OpenFOAM.org                      |
|    \\/     M anipulation  |                                                 |
\*---------------------------------------------------------------------------*/
FoamFile
{
    version     2.0;
    format      ascii;
    class       volScalarField;
    location    "0.001";
    object      p;
}
// * * * * * * * * * * * * * * * * * * * * * * * * * * * * * * * * * * * * * //

dimensions      [0 2 -2 0 0 0 0];

internalField   nonuniform List<scalar> 
17600
(
41.7947
40.6974
40.3253
40.1217
39.9185
39.7174
39.524
39.336
39.1518
38.9719
38.7969
38.6281
38.4668
38.317
38.1836
38.078
38.0199
38.0515
38.2718
38.8118
40.6675
40.2954
40.1388
40.0222
39.8637
39.6866
39.5063
39.3258
39.146
38.9688
38.7954
38.6276
38.4671
38.3176
38.1844
38.0787
38.0202
38.0504
38.2668
38.747
40.6487
40.4454
40.2482
40.0885
39.9051
39.7128
39.523
39.3366
39.1532
38.9739
38.7992
38.6306
38.4695
38.3197
38.1859
38.0793
38.0188
38.0446
38.2468
38.6732
40.6639
40.4595
40.2392
40.0715
39.8906
39.7022
39.5157
39.3318
39.1503
38.9722
38.7983
38.6302
38.4694
38.3194
38.185
38.0771
38.0136
38.0323
38.2126
38.5838
40.6439
40.4463
40.2312
40.0655
39.8877
39.7014
39.5159
39.3324
39.1511
38.973
38.7991
38.6309
38.4697
38.3192
38.184
38.0742
38.0067
38.0166
38.1707
38.4872
40.6122
40.4339
40.2277
40.0625
39.8859
39.7005
39.5154
39.3322
39.151
38.9731
38.7992
38.6308
38.4695
38.3184
38.1821
38.0702
37.9982
37.9981
38.1236
38.3874
40.5845
40.4255
40.2261
40.0603
39.8843
39.6997
39.515
39.3319
39.1509
38.973
38.7991
38.6307
38.469
38.3173
38.1797
38.0654
37.9882
37.9771
38.0727
38.2861
40.5607
40.4177
40.2242
40.0581
39.8828
39.6989
39.5146
39.3318
39.1508
38.9731
38.7991
38.6305
38.4684
38.316
38.177
38.06
37.9771
37.9543
38.0192
38.1847
40.5397
40.4101
40.2222
40.0561
39.8814
39.6983
39.5144
39.3318
39.1509
38.9732
38.7991
38.6303
38.4678
38.3145
38.1739
38.0539
37.9649
37.9299
37.964
38.0843
40.521
40.4028
40.2202
40.0543
39.8803
39.6979
39.5143
39.3318
39.1511
38.9733
38.7991
38.6301
38.467
38.3129
38.1706
38.0473
37.9518
37.9044
37.908
37.9857
40.5044
40.3959
40.2182
40.0526
39.8793
39.6975
39.5142
39.332
39.1512
38.9735
38.7992
38.6298
38.4663
38.3111
38.1669
38.0403
37.9381
37.8779
37.8518
37.8897
40.4898
40.3895
40.2163
40.0511
39.8784
39.6971
39.5142
39.3321
39.1514
38.9736
38.7992
38.6295
38.4654
38.3092
38.1631
38.0329
37.9237
37.8508
37.7959
37.7966
40.4771
40.3838
40.2146
40.0498
39.8776
39.6969
39.5142
39.3322
39.1516
38.9737
38.7991
38.6292
38.4644
38.3071
38.159
38.0252
37.9089
37.8232
37.7407
37.7067
40.4663
40.3786
40.213
40.0486
39.8768
39.6966
39.5142
39.3323
39.1517
38.9738
38.7991
38.6288
38.4634
38.305
38.1547
38.0171
37.8937
37.7955
37.6866
37.6202
40.4571
40.3741
40.2115
40.0476
39.8762
39.6964
39.5142
39.3324
39.1518
38.9739
38.7989
38.6283
38.4622
38.3026
38.1503
38.0089
37.8783
37.7676
37.6338
37.5373
40.4495
40.3703
40.2103
40.0467
39.8757
39.6962
39.5141
39.3324
39.1519
38.9738
38.7987
38.6277
38.461
38.3002
38.1457
38.0004
37.8628
37.7398
37.5825
37.458
40.4436
40.3673
40.2092
40.046
39.8753
39.696
39.5141
39.3325
39.1519
38.9738
38.7985
38.6271
38.4597
38.2977
38.141
37.9918
37.8471
37.7123
37.5329
37.3824
40.4391
40.365
40.2085
40.0455
39.8749
39.6959
39.5141
39.3324
39.1519
38.9736
38.7981
38.6263
38.4583
38.295
38.1361
37.9831
37.8315
37.6851
37.4851
37.3103
40.4362
40.3634
40.2079
40.0451
39.8747
39.6958
39.514
39.3324
39.1518
38.9735
38.7977
38.6256
38.4568
38.2923
38.1312
37.9743
37.816
37.6584
37.4391
37.2418
40.4347
40.3627
40.2076
40.0449
39.8746
39.6957
39.514
39.3323
39.1516
38.9732
38.7973
38.6247
38.4552
38.2895
38.1262
37.9656
37.8006
37.6323
37.3951
37.1768
40.4347
40.3626
40.2076
40.0449
39.8745
39.6957
39.5139
39.3322
39.1515
38.9729
38.7967
38.6238
38.4536
38.2867
38.1212
37.9569
37.7855
37.6068
37.353
37.1153
40.4362
40.3634
40.2079
40.045
39.8746
39.6957
39.5138
39.3321
39.1513
38.9726
38.7962
38.6228
38.452
38.2838
38.1162
37.9482
37.7707
37.582
37.313
37.0571
40.4391
40.3649
40.2084
40.0454
39.8748
39.6957
39.5138
39.3319
39.151
38.9722
38.7955
38.6218
38.4502
38.2809
38.1112
37.9397
37.7562
37.5581
37.2751
37.0022
40.4435
40.3672
40.2091
40.0459
39.8751
39.6957
39.5137
39.3318
39.1507
38.9717
38.7948
38.6207
38.4485
38.2779
38.1063
37.9313
37.7422
37.535
37.2392
36.9505
40.4495
40.3703
40.2101
40.0465
39.8755
39.6958
39.5136
39.3315
39.1504
38.9712
38.7941
38.6196
38.4467
38.275
38.1015
37.9231
37.7286
37.5129
37.2054
36.9018
40.457
40.374
40.2114
40.0474
39.8759
39.696
39.5135
39.3313
39.15
38.9707
38.7934
38.6184
38.4449
38.2722
38.0967
37.9152
37.7156
37.4917
37.1738
36.8562
40.4661
40.3785
40.2128
40.0484
39.8765
39.6961
39.5134
39.331
39.1496
38.9701
38.7926
38.6173
38.4432
38.2693
38.0921
37.9076
37.7031
37.4716
37.1442
36.8134
40.477
40.3836
40.2144
40.0495
39.8772
39.6963
39.5133
39.3308
39.1492
38.9695
38.7917
38.6161
38.4414
38.2665
38.0876
37.9002
37.6913
37.4526
37.1168
36.7734
40.4897
40.3894
40.2161
40.0508
39.8779
39.6965
39.5132
39.3305
39.1487
38.9689
38.7909
38.6149
38.4397
38.2639
38.0833
37.8932
37.6801
37.4347
37.0916
36.7362
40.5042
40.3957
40.218
40.0523
39.8788
39.6968
39.5132
39.3302
39.1483
38.9683
38.7901
38.6138
38.438
38.2613
38.0793
37.8867
37.6697
37.4181
37.0685
36.7017
40.5208
40.4026
40.2199
40.0539
39.8798
39.6971
39.5131
39.3299
39.1478
38.9677
38.7893
38.6127
38.4365
38.2589
38.0755
37.8805
37.66
37.4027
37.0476
36.6698
40.5395
40.4099
40.2219
40.0557
39.8809
39.6975
39.5131
39.3297
39.1475
38.9671
38.7886
38.6117
38.435
38.2567
38.072
37.8749
37.6512
37.3886
37.0289
36.6404
40.5605
40.4175
40.2239
40.0577
39.8822
39.698
39.5133
39.3296
39.1472
38.9667
38.7879
38.6108
38.4337
38.2546
38.0688
37.8698
37.6432
37.376
37.0124
36.6136
40.5843
40.4252
40.2258
40.0599
39.8837
39.6988
39.5136
39.3296
39.147
38.9663
38.7874
38.61
38.4325
38.2528
38.0659
37.8652
37.6362
37.3647
36.9981
36.5893
40.612
40.4337
40.2273
40.0621
39.8853
39.6996
39.514
39.3298
39.1469
38.9661
38.7869
38.6093
38.4314
38.2512
38.0634
37.8612
37.63
37.3548
36.9858
36.5674
40.6437
40.4461
40.2308
40.065
39.8871
39.7005
39.5144
39.33
39.1469
38.9658
38.7865
38.6086
38.4304
38.2496
38.0611
37.8576
37.6246
37.3463
36.9754
36.5478
40.6637
40.4593
40.2388
40.071
39.8899
39.7012
39.5142
39.3293
39.146
38.9648
38.7854
38.6073
38.429
38.2479
38.0587
37.8542
37.6197
37.3389
36.9663
36.5304
40.6484
40.4451
40.2478
40.0879
39.9044
39.7118
39.5214
39.334
39.1489
38.9663
38.7859
38.6072
38.4283
38.2466
38.0569
37.8514
37.6157
37.3327
36.9588
36.5156
40.6673
40.2951
40.1384
40.0217
39.863
39.6856
39.5047
39.3232
39.1416
38.9611
38.782
38.6039
38.4252
38.2435
38.0535
37.8474
37.6109
37.3265
36.9516
36.5038
41.7945
40.6971
40.3249
40.1211
39.9178
39.7164
39.5224
39.3333
39.1473
38.9642
38.7834
38.6042
38.4248
38.2425
38.052
37.8455
37.6086
37.3236
36.9484
36.4988
40.4921
40.6964
40.101
39.2189
38.1666
36.9746
35.6962
34.3752
33.039
31.707
30.3966
29.1237
27.9039
26.7507
25.6783
24.6984
23.8175
23.0426
22.3985
21.9031
21.555
21.3536
21.3017
21.404
21.6669
22.0983
22.7078
23.5065
24.5046
25.7092
27.1211
28.7322
30.5233
32.4654
34.5202
36.6445
38.7928
40.9206
42.9863
44.9531
46.791
48.4779
50.0009
51.355
52.5435
53.5756
54.4654
55.2291
55.8836
56.4445
56.9259
57.3401
57.6972
58.0056
58.2727
58.5043
58.7053
58.8799
59.0317
59.1636
59.2784
59.3781
59.4648
59.5401
59.6055
59.6622
59.7113
59.7538
59.7906
59.8223
59.8496
59.8731
59.8932
59.9104
59.9249
59.9371
59.9474
59.9558
59.9627
59.9682
59.9724
59.9756
59.9779
59.9793
59.9799
59.9799
59.9793
59.9781
59.9764
59.9743
59.9719
59.969
59.9659
59.9624
59.9586
59.9546
59.9504
59.946
59.9413
59.9365
59.9316
59.9265
59.9213
59.9161
59.9109
59.9056
59.9003
59.895
59.8897
59.8845
59.8793
59.8743
59.8693
59.8645
59.8598
59.8553
59.8511
59.847
59.8432
59.8396
59.8363
59.8332
59.8305
59.828
59.8259
59.824
59.8224
59.8211
59.82
59.8192
59.8186
59.8182
59.8181
59.8181
59.8183
59.8186
59.8191
59.8196
59.8203
59.821
59.8217
59.8223
59.8229
59.8234
59.8237
59.8239
59.8238
59.8234
59.8227
59.8216
59.82
59.8179
59.8153
59.8119
59.8079
59.8029
59.7971
59.7902
59.7822
59.773
59.7623
59.75
59.7358
59.7196
59.701
59.6797
59.6553
59.6274
59.5955
59.5591
59.5175
59.4699
59.4155
59.3533
59.2822
59.2009
59.1079
59.0015
58.8797
58.7403
58.5805
58.3973
58.187
57.9453
57.6669
57.3454
56.9727
56.5385
56.0296
55.4281
54.7098
53.84
52.7698
51.4205
49.6841
47.3169
44.114
38.753
31.5792
5.50363
40.1355
40.2992
39.7814
38.9919
38.026
36.9035
35.6758
34.3925
33.0868
31.7823
30.4983
29.2516
28.0572
26.929
25.8807
24.9231
24.0604
23.3058
22.6868
22.2162
21.8911
21.7136
21.6878
21.8193
22.1149
22.5824
23.2307
24.0685
25.1026
26.3358
27.764
29.3753
31.1484
33.0545
35.0575
37.1179
39.1943
41.2459
43.2346
45.1272
46.897
48.5246
49.9986
51.3146
52.4753
53.4885
54.3667
55.1243
55.7764
56.3376
56.821
57.2381
57.5988
57.9112
58.1824
58.4181
58.6233
58.802
58.9579
59.0937
59.2123
59.3157
59.4059
59.4846
59.5532
59.613
59.6651
59.7104
59.7498
59.7841
59.8138
59.8395
59.8618
59.8809
59.8973
59.9113
59.9232
59.9332
59.9416
59.9484
59.954
59.9584
59.9617
59.9642
59.9658
59.9666
59.9669
59.9665
59.9655
59.9641
59.9622
59.9599
59.9573
59.9543
59.951
59.9474
59.9435
59.9394
59.935
59.9305
59.9258
59.921
59.916
59.911
59.9059
59.9008
59.8957
59.8905
59.8854
59.8803
59.8753
59.8703
59.8654
59.8607
59.8561
59.8516
59.8474
59.8433
59.8395
59.8359
59.8326
59.8295
59.8267
59.8242
59.822
59.8201
59.8184
59.817
59.8158
59.8149
59.8141
59.8136
59.8133
59.8132
59.8132
59.8133
59.8136
59.8139
59.8143
59.8147
59.8151
59.8154
59.8155
59.8156
59.8154
59.8149
59.8142
59.8131
59.8115
59.8095
59.807
59.8038
59.7999
59.7952
59.7896
59.7831
59.7754
59.7664
59.7562
59.7445
59.731
59.7157
59.6983
59.6784
59.6558
59.6302
59.601
59.5679
59.5303
59.4875
59.439
59.3839
59.3213
59.2502
59.1693
59.0773
58.9725
58.8532
58.7172
58.5622
58.3851
58.1828
57.9511
57.6854
57.3798
57.0271
56.6185
56.1422
55.5834
54.9215
54.1289
53.1659
51.9753
50.4655
48.5071
45.8143
42.1088
35.8754
27.0876
2.58923
39.779
39.9488
39.4908
38.7523
37.8435
36.7824
35.6117
34.3782
33.116
31.85
30.6006
29.3857
28.2218
27.1228
26.1025
25.1717
24.3338
23.6106
23.026
22.5844
22.2874
22.139
22.1445
22.3097
22.6414
23.1466
23.8323
24.7045
25.7663
27.0163
28.4473
30.045
31.7879
33.6482
35.5927
37.5848
39.5864
41.5601
43.4714
45.2906
46.994
48.5644
49.9915
51.2711
52.4051
53.4002
54.2672
55.0188
55.6688
56.2303
56.7158
57.136
57.5003
57.8168
58.0922
58.3321
58.5415
58.7243
58.8842
59.024
59.1463
59.2534
59.3472
59.4292
59.5011
59.5639
59.619
59.6671
59.7092
59.7459
59.7781
59.806
59.8304
59.8515
59.8699
59.8856
59.8992
59.9108
59.9206
59.9288
59.9356
59.9412
59.9457
59.9492
59.9518
59.9535
59.9546
59.9549
59.9547
59.9539
59.9527
59.9509
59.9488
59.9462
59.9434
59.9401
59.9366
59.9328
59.9288
59.9245
59.9201
59.9155
59.9107
59.9059
59.901
59.896
59.8911
59.8861
59.8811
59.8761
59.8711
59.8663
59.8615
59.8568
59.8522
59.8478
59.8436
59.8396
59.8358
59.8322
59.8289
59.8258
59.8229
59.8204
59.8181
59.8161
59.8143
59.8128
59.8116
59.8105
59.8097
59.809
59.8086
59.8083
59.8081
59.8081
59.8081
59.8082
59.8083
59.8084
59.8085
59.8084
59.8082
59.8077
59.807
59.806
59.8046
59.8028
59.8005
59.7976
59.794
59.7897
59.7846
59.7786
59.7715
59.7633
59.7538
59.7428
59.7304
59.7162
59.7
59.6817
59.661
59.6375
59.611
59.581
59.5471
59.5087
59.4654
59.4165
59.3611
59.2986
59.2278
59.1477
59.057
58.9543
58.8378
58.7057
58.5556
58.3849
58.1907
57.9692
57.7162
57.4265
57.0937
56.7101
56.2656
55.7476
55.1392
54.4179
53.5527
52.4992
51.1931
49.5319
47.3688
44.3908
40.2713
33.5333
23.9717
3.99115
39.4227
39.5511
39.1351
38.4479
37.6003
36.6096
35.509
34.3404
33.1366
31.9224
30.7192
29.5459
28.4194
27.3555
26.3681
25.469
24.6669
23.983
23.4349
23.0255
22.7599
22.6438
22.6829
22.883
23.25
23.7894
24.5059
25.4026
26.4795
27.7325
29.1525
30.7244
32.4272
34.2348
36.1158
38.0365
39.9617
41.8574
43.6927
45.441
47.0812
48.5974
49.9803
51.2254
52.3341
53.3119
54.168
54.9138
55.5616
56.1235
56.6109
57.0342
57.4022
57.7227
58.0023
58.2464
58.46
58.6469
58.8108
58.9545
59.0807
59.1914
59.2886
59.3741
59.4491
59.5151
59.573
59.6239
59.6687
59.708
59.7425
59.7727
59.7992
59.8223
59.8425
59.8601
59.8753
59.8884
59.8997
59.9093
59.9174
59.9242
59.9298
59.9343
59.9379
59.9405
59.9424
59.9435
59.944
59.9439
59.9432
59.942
59.9404
59.9383
59.9358
59.933
59.9298
59.9263
59.9226
59.9186
59.9144
59.91
59.9055
59.9008
59.8961
59.8913
59.8864
59.8816
59.8767
59.8718
59.867
59.8622
59.8575
59.8529
59.8484
59.8441
59.8399
59.8359
59.8321
59.8285
59.8251
59.822
59.8192
59.8166
59.8142
59.8122
59.8103
59.8087
59.8074
59.8062
59.8052
59.8045
59.8039
59.8034
59.8031
59.8028
59.8027
59.8025
59.8024
59.8022
59.8019
59.8015
59.8008
59.7999
59.7987
59.7971
59.7951
59.7926
59.7894
59.7857
59.7811
59.7758
59.7694
59.7621
59.7535
59.7437
59.7323
59.7194
59.7047
59.6881
59.6692
59.648
59.624
59.597
59.5665
59.5322
59.4935
59.45
59.4011
59.3459
59.2838
59.2138
59.135
59.046
58.9456
58.8322
58.7041
58.5592
58.395
58.2089
57.9975
57.7569
57.4827
57.169
56.8093
56.3948
55.9149
55.3555
54.6986
53.9192
52.9837
51.8434
50.4284
48.6275
46.2812
43.065
38.6249
31.6501
21.6412
4.25708
39.0885
39.1564
38.7775
38.1442
37.3555
36.4312
35.3994
34.2971
33.1559
32.0003
30.8515
29.7284
28.6488
27.6284
26.682
25.823
25.0667
24.4297
23.9213
23.5469
23.3146
23.2312
23.3025
23.5339
23.9301
24.495
25.2311
26.1395
27.2181
28.4614
29.8591
31.3961
33.0521
34.8021
36.6167
38.4645
40.3135
42.1333
43.8958
45.577
47.1578
48.6233
49.9647
51.1774
52.2621
53.2232
54.0689
54.809
55.4547
56.0169
56.5064
56.9327
57.3044
57.6289
57.9127
58.1611
58.3788
58.5699
58.7378
58.8854
59.0153
59.1297
59.2304
59.3192
59.3975
59.4664
59.5273
59.581
59.6284
59.6702
59.707
59.7395
59.7681
59.7932
59.8153
59.8346
59.8515
59.8662
59.8789
59.8899
59.8993
59.9073
59.914
59.9195
59.9241
59.9276
59.9303
59.9322
59.9334
59.9339
59.9338
59.9332
59.932
59.9304
59.9283
59.9259
59.923
59.9199
59.9164
59.9127
59.9087
59.9045
59.9002
59.8957
59.8912
59.8865
59.8818
59.8771
59.8723
59.8676
59.8628
59.8581
59.8535
59.8489
59.8445
59.8402
59.8361
59.8321
59.8283
59.8247
59.8214
59.8183
59.8154
59.8127
59.8103
59.8082
59.8063
59.8046
59.8032
59.8019
59.8008
59.7999
59.7992
59.7986
59.7981
59.7977
59.7973
59.7969
59.7965
59.796
59.7954
59.7946
59.7936
59.7922
59.7905
59.7883
59.7857
59.7824
59.7785
59.7739
59.7684
59.7619
59.7544
59.7457
59.7357
59.7242
59.7111
59.6962
59.6793
59.6602
59.6388
59.6146
59.5874
59.5568
59.5224
59.4839
59.4405
59.3919
59.3373
59.276
59.2072
59.1299
59.043
58.9452
58.8352
58.7112
58.5715
58.4139
58.2358
58.0342
57.8057
57.5462
57.2508
56.9135
56.5269
56.082
55.567
54.9671
54.2627
53.4271
52.424
51.2015
49.6852
47.7582
45.2525
41.8451
37.1668
30.1058
19.9018
4.1394
38.7833
38.7893
38.4384
37.8539
37.1182
36.2548
35.2888
34.2529
33.1764
32.0829
30.9933
29.9265
28.8999
27.93
27.0319
26.2205
25.5153
24.9277
24.4618
24.1253
23.9274
23.8756
23.9756
24.2323
24.6495
25.23
25.975
26.8843
27.9545
29.179
30.5473
32.044
33.6493
35.3392
37.0867
38.8628
40.6385
42.3862
44.0804
45.6991
47.2245
48.6429
49.9454
51.1276
52.1897
53.135
53.9706
54.7052
55.3487
55.9113
56.4027
56.832
57.2074
57.5359
57.8238
58.0764
58.2983
58.4935
58.6654
58.8169
58.9505
59.0684
59.1726
59.2647
59.3461
59.4181
59.4819
59.5383
59.5883
59.6326
59.6718
59.7065
59.7372
59.7643
59.7882
59.8093
59.8279
59.8441
59.8583
59.8706
59.8813
59.8905
59.8983
59.9049
59.9104
59.9148
59.9183
59.921
59.9229
59.924
59.9245
59.9244
59.9237
59.9226
59.9209
59.9188
59.9163
59.9134
59.9102
59.9067
59.903
59.899
59.8949
59.8906
59.8862
59.8817
59.8772
59.8725
59.8679
59.8632
59.8586
59.854
59.8494
59.8449
59.8406
59.8363
59.8322
59.8283
59.8245
59.821
59.8176
59.8145
59.8115
59.8089
59.8064
59.8043
59.8023
59.8005
59.799
59.7976
59.7964
59.7954
59.7945
59.7938
59.7931
59.7925
59.7919
59.7913
59.7907
59.7899
59.789
59.7878
59.7864
59.7846
59.7823
59.7796
59.7764
59.7724
59.7677
59.7622
59.7558
59.7482
59.7395
59.7295
59.7181
59.705
59.6901
59.6732
59.6542
59.6327
59.6086
59.5815
59.5512
59.5171
59.4789
59.4361
59.3882
59.3345
59.2743
59.207
59.1315
59.0469
58.952
58.8455
58.7259
58.5915
58.4404
58.2701
58.0781
57.8612
57.6159
57.3376
57.0212
56.6604
56.2474
55.7724
55.2231
54.5836
53.8331
52.9433
51.8761
50.5768
48.9679
46.9293
44.2891
40.7349
35.8933
28.8468
18.7104
4.36496
38.5071
38.4562
38.1245
37.5822
36.8939
36.0857
35.1813
34.2092
33.1965
32.1659
31.1375
30.1296
29.1601
28.2448
27.3994
26.6398
25.9849
25.4435
25.0188
24.7197
24.5553
24.5329
24.6581
24.9353
25.3677
25.9576
26.7053
27.6094
28.6657
29.867
31.2021
32.6559
34.2091
35.8395
37.5217
39.2295
40.9363
42.6167
44.2474
45.8081
47.2821
48.6564
49.9227
51.0762
52.1168
53.047
53.873
54.6022
55.2436
55.8064
56.2997
56.732
57.111
57.4434
57.7355
57.9923
58.2184
58.4177
58.5935
58.7488
58.8861
59.0076
59.1152
59.2106
59.2952
59.3702
59.4368
59.496
59.5486
59.5953
59.6368
59.6737
59.7065
59.7356
59.7614
59.7842
59.8044
59.8222
59.8378
59.8515
59.8635
59.8738
59.8828
59.8904
59.8968
59.9021
59.9065
59.9099
59.9124
59.9142
59.9153
59.9157
59.9155
59.9148
59.9135
59.9117
59.9096
59.907
59.9041
59.9008
59.8973
59.8936
59.8896
59.8855
59.8813
59.8769
59.8725
59.868
59.8634
59.8589
59.8543
59.8498
59.8453
59.8409
59.8366
59.8324
59.8283
59.8244
59.8207
59.8171
59.8138
59.8106
59.8077
59.805
59.8025
59.8003
59.7983
59.7964
59.7948
59.7934
59.7921
59.791
59.7899
59.789
59.7882
59.7874
59.7867
59.7858
59.7849
59.7839
59.7826
59.7811
59.7793
59.777
59.7743
59.771
59.7671
59.7625
59.7571
59.7507
59.7433
59.7347
59.7249
59.7136
59.7007
59.686
59.6694
59.6506
59.6294
59.6056
59.5789
59.549
59.5154
59.4779
59.4359
59.3889
59.3364
59.2777
59.2121
59.1388
59.0567
58.9649
58.8621
58.747
58.618
58.4732
58.3107
58.128
57.9223
57.6903
57.4281
57.1313
56.7943
56.4103
55.9713
55.4668
54.884
54.206
53.411
52.4696
51.3419
49.9717
48.2794
46.1441
43.394
39.7338
34.7965
27.8406
17.9629
4.89553
38.2576
38.1568
37.8381
37.3318
36.686
35.9277
35.0795
34.1669
33.2149
32.245
31.2766
30.3279
29.4155
28.5557
27.7639
27.0559
26.4484
25.9495
25.5642
25.3009
25.1684
25.1734
25.3214
25.6164
26.0612
26.6572
27.4042
28.3
29.3396
30.5153
31.8157
33.2263
34.7286
36.3017
37.9224
39.5663
41.209
42.8271
44.399
45.9058
47.3319
48.6651
49.8972
51.0237
52.0438
52.9595
53.776
54.4999
55.1392
55.7023
56.1974
56.6326
57.0151
57.3516
57.6477
57.9087
58.139
58.3423
58.5221
58.6812
58.8222
58.9472
59.0582
59.1568
59.2445
59.3225
59.392
59.4539
59.509
59.5582
59.602
59.6411
59.676
59.707
59.7347
59.7592
59.7811
59.8004
59.8175
59.8325
59.8458
59.8573
59.8673
59.876
59.8833
59.8895
59.8947
59.8988
59.9021
59.9045
59.9061
59.9071
59.9073
59.907
59.9061
59.9047
59.9029
59.9006
59.898
59.895
59.8917
59.8881
59.8844
59.8804
59.8763
59.8721
59.8678
59.8634
59.859
59.8545
59.85
59.8456
59.8412
59.8368
59.8326
59.8284
59.8244
59.8205
59.8168
59.8133
59.8099
59.8068
59.8038
59.8011
59.7986
59.7963
59.7942
59.7924
59.7907
59.7891
59.7878
59.7865
59.7854
59.7843
59.7834
59.7824
59.7814
59.7804
59.7792
59.7779
59.7763
59.7745
59.7723
59.7696
59.7664
59.7626
59.7581
59.7528
59.7466
59.7394
59.731
59.7214
59.7104
59.6978
59.6835
59.6673
59.649
59.6283
59.605
59.5789
59.5496
59.5168
59.4802
59.4393
59.3935
59.3425
59.2855
59.2218
59.1508
59.0715
58.983
58.884
58.7735
58.6499
58.5115
58.3566
58.1828
57.9878
57.7685
57.5215
57.2429
56.9278
56.5704
56.1636
55.6991
55.1658
54.5503
53.8352
52.9976
52.0073
50.8232
49.3881
47.6218
45.4048
42.5682
38.8381
33.8632
27.0526
17.5442
5.58635
38.0321
37.8885
37.579
37.1036
36.496
35.783
34.9862
34.1286
33.2332
32.3205
31.4094
30.517
29.6602
28.8543
28.1144
27.4558
26.8932
26.4348
26.087
25.8579
25.7555
25.7862
25.9551
26.2658
26.7206
27.3205
28.0645
28.9499
29.9712
31.1206
32.3866
33.7552
35.209
36.7284
38.2915
39.876
41.4592
43.0194
44.5367
45.9933
47.3747
48.6693
49.8693
50.9701
51.9707
52.8725
53.6798
54.3984
55.0355
55.5987
56.0956
56.5336
56.9197
57.26
57.5604
57.8255
58.0599
58.2673
58.451
58.614
58.7587
58.8872
59.0016
59.1035
59.1943
59.2752
59.3475
59.4121
59.4698
59.5214
59.5675
59.6088
59.6457
59.6787
59.7082
59.7345
59.758
59.7788
59.7974
59.8138
59.8282
59.8409
59.8521
59.8617
59.87
59.8771
59.8831
59.8879
59.8919
59.8949
59.8971
59.8985
59.8993
59.8993
59.8988
59.8978
59.8963
59.8943
59.8919
59.8891
59.886
59.8827
59.8791
59.8753
59.8714
59.8673
59.8631
59.8588
59.8545
59.8501
59.8457
59.8413
59.837
59.8327
59.8285
59.8244
59.8204
59.8166
59.8129
59.8094
59.8061
59.8029
59.8
59.7972
59.7947
59.7924
59.7902
59.7883
59.7865
59.7849
59.7835
59.7821
59.7809
59.7797
59.7786
59.7774
59.7763
59.775
59.7736
59.772
59.7702
59.768
59.7654
59.7622
59.7586
59.7542
59.7491
59.7432
59.7362
59.7282
59.7189
59.7083
59.6962
59.6823
59.6666
59.6489
59.6289
59.6063
59.581
59.5526
59.5208
59.4852
59.4456
59.4013
59.3519
59.2968
59.2353
59.1668
59.0905
59.0053
58.9104
58.8045
58.6862
58.5542
58.4067
58.2416
58.0568
57.8496
57.617
57.3553
57.0604
56.7273
56.3498
55.9208
55.4313
54.87
54.2229
53.4721
52.5939
51.5576
50.3213
48.8276
46.9967
44.7121
41.8108
38.0421
33.077
26.4493
17.3683
6.37254
37.8278
37.648
37.3454
36.8966
36.3235
35.6518
34.9022
34.0955
33.2529
32.3939
31.5366
30.6979
29.8934
29.1387
28.4482
27.8364
27.3162
26.8964
26.5842
26.3873
26.3131
26.3675
26.5553
26.8797
27.3428
27.9447
28.6844
29.5583
30.5611
31.6844
32.9172
34.2459
35.654
37.123
38.6326
40.1618
41.6897
43.1961
44.6624
46.0722
47.4117
48.67
49.8397
50.9161
51.8979
52.7861
53.5844
54.2978
54.9326
55.4957
55.9943
56.435
56.8246
57.1688
57.4732
57.7426
57.9811
58.1926
58.3803
58.547
58.6954
58.8275
58.9453
59.0504
59.1443
59.2282
59.3033
59.3705
59.4308
59.4848
59.5332
59.5767
59.6157
59.6506
59.6819
59.71
59.735
59.7574
59.7774
59.7951
59.8109
59.8248
59.837
59.8476
59.8569
59.8648
59.8715
59.8771
59.8817
59.8853
59.8881
59.89
59.8912
59.8917
59.8916
59.8909
59.8897
59.888
59.8858
59.8833
59.8804
59.8773
59.8739
59.8702
59.8664
59.8625
59.8584
59.8542
59.85
59.8457
59.8414
59.8371
59.8328
59.8286
59.8244
59.8204
59.8165
59.8126
59.809
59.8055
59.8022
59.799
59.7961
59.7933
59.7907
59.7884
59.7862
59.7842
59.7824
59.7807
59.7792
59.7777
59.7764
59.7751
59.7738
59.7725
59.7712
59.7697
59.7681
59.7662
59.7641
59.7615
59.7586
59.755
59.7509
59.746
59.7403
59.7337
59.726
59.7172
59.707
59.6954
59.6822
59.6671
59.6501
59.6308
59.6091
59.5848
59.5574
59.5267
59.4925
59.4542
59.4115
59.364
59.3109
59.2519
59.1861
59.1128
59.0312
58.9403
58.839
58.7262
58.6005
58.4602
58.3036
58.1286
57.9329
57.7138
57.468
57.1919
56.881
56.5301
56.1331
55.6823
55.1685
54.58
53.9025
53.1174
52.2009
51.1215
49.8373
48.2913
46.4049
44.0661
41.1197
37.3387
32.4212
26.001
17.3742
7.22349
37.6424
37.4322
37.1351
36.7095
36.1675
35.5336
34.8276
34.0682
33.275
32.4664
31.6597
30.8711
30.1164
29.4099
28.7658
28.1979
27.7179
27.3346
27.0558
26.889
26.8408
26.917
27.1219
27.4584
27.9281
28.5309
29.2653
30.1275
31.1117
32.2098
33.4109
34.7019
36.067
37.4888
38.9485
40.4262
41.9026
43.3588
44.7776
46.1434
47.4436
48.6677
49.8085
50.8616
51.8254
52.7005
53.4898
54.1979
54.8303
55.3933
55.8933
56.3367
56.7296
57.0777
57.3863
57.6598
57.9025
58.118
58.3097
58.4803
58.6324
58.768
58.8892
58.9975
59.0945
59.1814
59.2593
59.3293
59.3921
59.4485
59.4992
59.5448
59.5859
59.6227
59.6559
59.6856
59.7123
59.7363
59.7577
59.7767
59.7937
59.8088
59.822
59.8337
59.8439
59.8527
59.8602
59.8665
59.8717
59.8759
59.8792
59.8817
59.8833
59.8842
59.8845
59.8841
59.8832
59.8817
59.8799
59.8776
59.8749
59.8719
59.8687
59.8652
59.8615
59.8577
59.8537
59.8496
59.8455
59.8413
59.837
59.8328
59.8286
59.8244
59.8203
59.8163
59.8124
59.8087
59.805
59.8016
59.7982
59.7951
59.7921
59.7894
59.7868
59.7844
59.7822
59.7801
59.7783
59.7765
59.7749
59.7734
59.7719
59.7705
59.7691
59.7677
59.7662
59.7645
59.7627
59.7605
59.7581
59.7552
59.7519
59.7479
59.7433
59.738
59.7317
59.7244
59.7161
59.7064
59.6954
59.6828
59.6685
59.6522
59.6338
59.6131
59.5898
59.5636
59.5343
59.5014
59.4647
59.4238
59.3782
59.3274
59.2708
59.2078
59.1377
59.0598
58.973
58.8765
58.7691
58.6495
58.5163
58.3679
58.2024
58.0177
57.8113
57.5804
57.3217
57.0314
56.7049
56.3367
55.9206
55.4486
54.9111
54.2964
53.5897
52.772
51.8193
50.6999
49.3722
47.78
45.8468
43.4659
40.4917
36.7203
31.8792
25.6817
17.5152
8.11278
37.4739
37.2383
36.9458
36.5404
36.0265
35.4274
34.7615
34.0461
33.299
32.5376
31.7785
31.0376
30.3293
29.6682
29.0678
28.5411
28.0987
27.7499
27.5025
27.3636
27.3396
27.4357
27.6561
28.0032
28.4784
29.0813
29.8098
30.6601
31.6263
32.7002
33.8711
35.1264
36.4512
37.829
39.2419
40.6717
42.1
43.5093
44.8836
46.2083
47.4714
48.6631
49.7766
50.8074
51.7537
52.6159
53.3964
54.0991
54.7289
55.2915
55.7928
56.2386
56.6348
56.9867
57.2993
57.577
57.8239
58.0435
58.2392
58.4137
58.5695
58.7087
58.8333
58.9449
59.045
59.1348
59.2156
59.2882
59.3535
59.4124
59.4654
59.5132
59.5563
59.595
59.63
59.6615
59.6898
59.7153
59.7381
59.7585
59.7767
59.7929
59.8073
59.8199
59.831
59.8407
59.8489
59.856
59.8619
59.8667
59.8705
59.8734
59.8755
59.8768
59.8774
59.8774
59.8767
59.8756
59.8739
59.8718
59.8694
59.8666
59.8635
59.8601
59.8566
59.8529
59.849
59.845
59.841
59.8368
59.8327
59.8285
59.8244
59.8203
59.8162
59.8123
59.8084
59.8047
59.8011
59.7976
59.7943
59.7911
59.7882
59.7854
59.7828
59.7804
59.7781
59.7761
59.7741
59.7723
59.7706
59.769
59.7675
59.766
59.7644
59.7629
59.7612
59.7593
59.7573
59.7549
59.7522
59.749
59.7453
59.741
59.7359
59.73
59.7232
59.7154
59.7063
59.6959
59.684
59.6704
59.655
59.6376
59.6179
59.5957
59.5708
59.5429
59.5116
59.4766
59.4375
59.394
59.3455
59.2915
59.2315
59.1647
59.0904
59.0078
58.916
58.814
58.7005
58.5743
58.4339
58.2775
58.1033
57.909
57.6921
57.4497
57.1784
56.8742
56.5324
56.1474
55.7126
55.2199
54.6597
54.0197
53.285
52.4364
51.4498
50.2935
48.9266
47.2939
45.3221
42.9103
39.9232
36.1792
31.4358
25.4687
17.755
9.0189
37.3205
37.0638
36.7755
36.388
35.8996
35.3322
34.7035
34.0289
33.3248
32.6077
31.8935
31.1969
30.5327
29.9143
29.3549
28.8667
28.4598
28.1434
27.9254
27.8125
27.8108
27.9253
28.1597
28.5163
28.996
29.5982
30.3206
31.1592
32.1078
33.1585
34.3008
35.5225
36.8094
38.1459
39.5151
40.9
42.2833
43.6488
44.9813
46.2673
47.4955
48.6566
49.744
50.7534
51.6829
52.5324
53.3041
54.0012
54.6283
55.1903
55.6926
56.1407
56.54
56.8956
57.2122
57.494
57.7451
57.9689
58.1687
58.347
58.5066
58.6494
58.7775
58.8923
58.9956
59.0884
59.172
59.2473
59.3152
59.3765
59.4318
59.4818
59.5269
59.5676
59.6044
59.6376
59.6676
59.6945
59.7188
59.7405
59.76
59.7773
59.7928
59.8064
59.8184
59.8288
59.8379
59.8456
59.8521
59.8575
59.8619
59.8653
59.8678
59.8695
59.8704
59.8707
59.8704
59.8695
59.8681
59.8662
59.8639
59.8613
59.8583
59.8551
59.8517
59.8481
59.8443
59.8404
59.8365
59.8324
59.8283
59.8242
59.8201
59.8161
59.8121
59.8082
59.8044
59.8006
59.7971
59.7936
59.7903
59.7872
59.7842
59.7814
59.7788
59.7764
59.7741
59.772
59.77
59.7681
59.7664
59.7647
59.7631
59.7614
59.7598
59.7581
59.7562
59.7542
59.7519
59.7493
59.7463
59.7429
59.7388
59.7341
59.7286
59.7223
59.7149
59.7064
59.6967
59.6855
59.6728
59.6583
59.6418
59.6233
59.6023
59.5787
59.5523
59.5226
59.4894
59.4524
59.411
59.3649
59.3136
59.2566
59.1931
59.1226
59.0442
58.9571
58.8604
58.7529
58.6335
58.5008
58.3532
58.1891
58.0063
57.8027
57.5756
57.3219
57.0383
56.7205
56.3637
55.9623
55.5094
54.9968
54.4145
53.7503
52.9889
52.1112
51.093
49.903
48.5008
46.8334
44.8303
42.3975
39.4101
35.7076
31.0767
25.3423
18.0649
9.92429
37.1809
36.9067
36.6222
36.2506
35.7853
35.2471
34.6526
34.0158
33.3519
32.6762
32.004
31.3496
30.7265
30.1483
29.6274
29.1754
28.8019
28.516
28.3254
28.2368
28.2559
28.3874
28.6346
28.9995
29.483
30.084
30.8001
31.6271
32.5589
33.5874
34.7026
35.8926
37.1439
38.4417
39.7701
41.1129
42.4543
43.7787
45.072
46.3216
47.5168
48.6488
49.7114
50.7002
51.6133
52.4504
53.2133
53.9047
54.5287
55.0898
55.5929
56.043
56.4453
56.8044
57.1248
57.4108
57.666
57.894
58.0978
58.2802
58.4435
58.59
58.7216
58.8398
58.9462
59.0421
59.1286
59.2066
59.2771
59.3408
59.3984
59.4505
59.4977
59.5404
59.5791
59.614
59.6455
59.674
59.6997
59.7227
59.7434
59.7619
59.7784
59.793
59.8059
59.8172
59.827
59.8354
59.8426
59.8485
59.8534
59.8572
59.8602
59.8623
59.8636
59.8642
59.8641
59.8634
59.8623
59.8606
59.8585
59.856
59.8532
59.8502
59.8469
59.8434
59.8397
59.8359
59.832
59.828
59.824
59.8199
59.8159
59.8119
59.808
59.8041
59.8003
59.7966
59.7931
59.7896
59.7863
59.7832
59.7802
59.7774
59.7748
59.7723
59.77
59.7678
59.7658
59.7639
59.7621
59.7603
59.7586
59.7569
59.7551
59.7533
59.7513
59.7491
59.7466
59.7438
59.7405
59.7368
59.7324
59.7273
59.7214
59.7146
59.7067
59.6977
59.6872
59.6754
59.6618
59.6464
59.629
59.6093
59.5871
59.5621
59.5341
59.5028
59.4678
59.4287
59.3851
59.3365
59.2825
59.2224
59.1556
59.0815
58.9991
58.9076
58.8061
58.6933
58.5681
58.429
58.2745
58.1028
57.9117
57.6989
57.4618
57.1972
56.9015
56.5705
56.1992
55.7818
55.3114
54.7796
54.1762
53.4888
52.7021
51.797
50.7494
49.5286
48.0952
46.3982
44.3708
41.9255
38.9484
35.2982
30.7896
25.2857
18.423
10.817
37.0535
36.7651
36.4843
36.1269
35.6827
35.1713
34.6084
34.0067
33.3802
32.7433
32.1106
31.4954
30.9113
30.3708
29.8861
29.468
29.1259
28.8687
28.7039
28.638
28.6764
28.8235
29.0824
29.4549
29.9414
30.5409
31.2507
32.0664
32.9819
33.9893
35.0787
36.2389
37.4567
38.7182
40.0083
41.3118
42.6138
43.8997
45.1562
46.3716
47.5356
48.64
49.6788
50.6478
51.545
52.3699
53.1239
53.8095
54.4302
54.99
55.4935
55.9454
56.3504
56.7128
57.0371
57.3271
57.5865
57.8187
58.0266
58.213
58.3802
58.5304
58.6656
58.7872
58.8969
58.9958
59.0852
59.166
59.2391
59.3052
59.3652
59.4195
59.4688
59.5134
59.5539
59.5906
59.6238
59.6537
59.6808
59.7052
59.7271
59.7468
59.7643
59.7799
59.7937
59.8058
59.8163
59.8254
59.8332
59.8397
59.8451
59.8494
59.8527
59.8552