/*--------------------------------*- C++ -*----------------------------------*\
| =========                 |                                                 |
| \\      /  F ield         | OpenFOAM: The Open Source CFD Toolbox           |
|  \\    /   O peration     | Version:  2.4.0                                 |
|   \\  /    A nd           | Web:      www.OpenFOAM.org                      |
|    \\/     M anipulation  |                                                 |
\*---------------------------------------------------------------------------*/
FoamFile
{
    version     2.0;
    format      ascii;
    class       volVectorField;
    location    "0.001";
    object      U;
}
// * * * * * * * * * * * * * * * * * * * * * * * * * * * * * * * * * * * * * //

dimensions      [0 1 -1 0 0 0 0];

internalField   nonuniform List<vector> 
17600
(
(9.90551 -2.50646 0)
(10.0226 -0.706258 0)
(9.7254 -0.223978 0)
(9.42228 -0.064568 0)
(9.16828 -0.00921741 0)
(8.95205 0.00935366 0)
(8.76659 0.0148106 0)
(8.60628 0.0155793 0)
(8.46585 0.0147694 0)
(8.34117 0.0135396 0)
(8.22914 0.0123031 0)
(8.12768 0.0111626 0)
(8.03542 0.0101097 0)
(7.95208 0.00905772 0)
(7.87834 0.00789075 0)
(7.81761 0.0062836 0)
(7.77329 0.00397774 0)
(7.77018 -0.000840896 0)
(7.77665 -0.00590311 0)
(8.23887 -0.0906837 0)
(10.0849 0.47875 0)
(10.0344 0.240679 0)
(9.95131 0.121092 0)
(9.83182 0.0741488 0)
(9.70829 0.0513107 0)
(9.58131 0.0385839 0)
(9.45541 0.031171 0)
(9.33402 0.0264333 0)
(9.21846 0.0231164 0)
(9.10915 0.0206228 0)
(9.00609 0.0186412 0)
(8.90928 0.0169559 0)
(8.81882 0.0154034 0)
(8.73549 0.0137868 0)
(8.66077 0.0118624 0)
(8.59892 0.00909141 0)
(8.55424 0.00466515 0)
(8.55233 -0.00381916 0)
(8.57384 -0.0192929 0)
(8.98645 0.0185284 0)
(9.98592 0.0647879 0)
(9.98737 0.0539717 0)
(9.99596 0.0467163 0)
(9.96418 0.0491574 0)
(9.9208 0.0485525 0)
(9.86578 0.045522 0)
(9.80262 0.0422622 0)
(9.73448 0.039141 0)
(9.66323 0.0362721 0)
(9.59024 0.033681 0)
(9.51662 0.031335 0)
(9.4435 0.0291197 0)
(9.37201 0.0268794 0)
(9.30387 0.0243478 0)
(9.2414 0.0211145 0)
(9.18948 0.0162846 0)
(9.15314 0.00833454 0)
(9.15722 -0.00661054 0)
(9.18749 -0.0372542 0)
(9.54188 -0.0548535 0)
(9.97677 -0.00995302 0)
(9.97948 0.0358918 0)
(10.0106 0.0464641 0)
(10.0123 0.0519509 0)
(10.0065 0.052696 0)
(9.99083 0.050428 0)
(9.967 0.0478087 0)
(9.93687 0.0452561 0)
(9.90146 0.0428793 0)
(9.86164 0.0406816 0)
(9.81825 0.0386099 0)
(9.77235 0.0365182 0)
(9.72515 0.0342036 0)
(9.6785 0.0313167 0)
(9.63488 0.0272891 0)
(9.59924 0.0209167 0)
(9.57663 0.0100332 0)
(9.5902 -0.010384 0)
(9.62758 -0.0537337 0)
(9.92798 -0.102026 0)
(9.98064 -0.0190941 0)
(9.9827 0.0330787 0)
(10.0169 0.0455744 0)
(10.0318 0.0510593 0)
(10.0436 0.0526298 0)
(10.0482 0.051204 0)
(10.0463 0.049372 0)
(10.039 0.047526 0)
(10.0267 0.0457857 0)
(10.01 0.044146 0)
(9.98936 0.0425385 0)
(9.96552 0.040783 0)
(9.93949 0.0386259 0)
(9.91289 0.0356324 0)
(9.88795 0.0310817 0)
(9.86921 0.0234894 0)
(9.86109 0.0101074 0)
(9.88445 -0.0150115 0)
(9.9273 -0.0687985 0)
(10.1805 -0.139023 0)
(9.98383 -0.0111988 0)
(9.98628 0.032433 0)
(10.0198 0.0435777 0)
(10.0402 0.0487936 0)
(10.0606 0.050895 0)
(10.0757 0.050114 0)
(10.086 0.0489119 0)
(10.092 0.0476484 0)
(10.0939 0.0464553 0)
(10.092 0.0453164 0)
(10.0866 0.0441458 0)
(10.0783 0.0427297 0)
(10.068 0.0407669 0)
(10.057 0.0377449 0)
(10.0471 0.0328042 0)
(10.0423 0.0242224 0)
(10.0463 0.00872264 0)
(10.0772 -0.0203014 0)
(10.1233 -0.0826533 0)
(10.3362 -0.168846 0)
(9.98582 -0.00774099 0)
(9.98922 0.0297845 0)
(10.0214 0.0404931 0)
(10.0442 0.0457791 0)
(10.0688 0.0482823 0)
(10.0896 0.0480067 0)
(10.1069 0.0473038 0)
(10.1207 0.0465076 0)
(10.1313 0.0457608 0)
(10.1387 0.0450346 0)
(10.1434 0.0442259 0)
(10.1457 0.0430916 0)
(10.1464 0.0412905 0)
(10.1466 0.038246 0)
(10.1478 0.0329777 0)
(10.1533 0.0235725 0)
(10.166 0.0062652 0)
(10.2018 -0.0259494 0)
(10.2493 -0.0953469 0)
(10.4286 -0.193312 0)
(9.9874 -0.0060818 0)
(9.99171 0.0270349 0)
(10.0224 0.0373074 0)
(10.0463 0.0425573 0)
(10.073 0.0452547 0)
(10.097 0.0453371 0)
(10.1184 0.0450134 0)
(10.1371 0.0445833 0)
(10.1532 0.0441919 0)
(10.1669 0.0437945 0)
(10.1783 0.043271 0)
(10.188 0.0423539 0)
(10.1964 0.0406703 0)
(10.2046 0.0375926 0)
(10.2137 0.0320351 0)
(10.2266 0.0219365 0)
(10.2453 0.003077 0)
(10.284 -0.0317338 0)
(10.3318 -0.106911 0)
(10.4835 -0.213356 0)
(9.98879 -0.00483451 0)
(9.99384 0.0244997 0)
(10.0231 0.0341461 0)
(10.0474 0.0392411 0)
(10.0753 0.0419912 0)
(10.1012 0.042327 0)
(10.1252 0.0422916 0)
(10.1471 0.0421471 0)
(10.167 0.0420343 0)
(10.185 0.0418928 0)
(10.2013 0.0415869 0)
(10.2163 0.0408305 0)
(10.2305 0.0392262 0)
(10.2445 0.036106 0)
(10.2594 0.0302905 0)
(10.2776 0.0196031 0)
(10.3008 -0.000598653 0)
(10.3411 -0.0375314 0)
(10.3885 -0.117395 0)
(10.517 -0.22984 0)
(9.99004 -0.00374268 0)
(9.99568 0.0221182 0)
(10.0236 0.0310156 0)
(10.0481 0.0358752 0)
(10.0767 0.0385848 0)
(10.1038 0.0390974 0)
(10.1295 0.0392778 0)
(10.1537 0.0393519 0)
(10.1764 0.039452 0)
(10.1977 0.0395027 0)
(10.2177 0.039356 0)
(10.2369 0.0387128 0)
(10.2554 0.0371571 0)
(10.274 0.0339883 0)
(10.2934 0.0279428 0)
(10.3156 0.0167529 0)
(10.342 -0.00460701 0)
(10.3831 -0.0432787 0)
(10.4296 -0.126858 0)
(10.5383 -0.24343 0)
(9.99116 -0.00282678 0)
(9.99727 0.0198281 0)
(10.0241 0.0279197 0)
(10.0487 0.0324838 0)
(10.0776 0.0350864 0)
(10.1055 0.0357146 0)
(10.1326 0.0360502 0)
(10.1585 0.0362853 0)
(10.1834 0.0365401 0)
(10.2073 0.0367273 0)
(10.2303 0.03669 0)
(10.2528 0.0361215 0)
(10.275 0.0345913 0)
(10.2972 0.0313721 0)
(10.3202 0.0251236 0)
(10.3456 0.0135072 0)
(10.3745 -0.00884372 0)
(10.4158 -0.0489287 0)
(10.461 -0.135336 0)
(10.5523 -0.254576 0)
(9.99214 -0.00208632 0)
(9.99866 0.0176049 0)
(10.0246 0.024863 0)
(10.0491 0.02908 0)
(10.0783 0.0315238 0)
(10.1068 0.0322163 0)
(10.1349 0.0326544 0)
(10.1623 0.0329992 0)
(10.189 0.033357 0)
(10.2151 0.0336316 0)
(10.2407 0.0336613 0)
(10.266 0.0331355 0)
(10.2911 0.0316134 0)
(10.3165 0.028345 0)
(10.3424 0.0219212 0)
(10.3704 0.00994821 0)
(10.4012 -0.0132319 0)
(10.4422 -0.0544378 0)
(10.4857 -0.142864 0)
(10.5613 -0.263599 0)
(9.993 -0.00149963 0)
(9.99988 0.0154354 0)
(10.025 0.0218455 0)
(10.0495 0.0256699 0)
(10.0788 0.0279131 0)
(10.1079 0.0286253 0)
(10.1368 0.0291191 0)
(10.1654 0.0295277 0)
(10.1936 0.0299422 0)
(10.2216 0.0302613 0)
(10.2495 0.0303217 0)
(10.2772 0.0298131 0)
(10.3049 0.0282867 0)
(10.3328 0.0249734 0)
(10.3612 0.0184038 0)
(10.3913 0.00614236 0)
(10.4236 -0.0177079 0)
(10.4639 -0.0597625 0)
(10.5053 -0.14946 0)
(10.5665 -0.270727 0)
(9.99375 -0.00104383 0)
(10.0009 0.0133088 0)
(10.0254 0.0188639 0)
(10.0499 0.022256 0)
(10.0793 0.0242638 0)
(10.1088 0.0249567 0)
(10.1385 0.0254646 0)
(10.1681 0.0258955 0)
(10.1977 0.0263255 0)
(10.2273 0.0266516 0)
(10.2571 0.0267121 0)
(10.2869 0.0261998 0)
(10.3169 0.0246606 0)
(10.347 0.0213094 0)
(10.3775 0.0146255 0)
(10.4092 0.00214372 0)
(10.4425 -0.022217 0)
(10.4818 -0.0648615 0)
(10.5207 -0.155149 0)
(10.5687 -0.276134 0)
(9.99438 -0.000698973 0)
(10.0018 0.0112157 0)
(10.0257 0.0159132 0)
(10.0502 0.018839 0)
(10.0798 0.0205823 0)
(10.1096 0.0212217 0)
(10.1399 0.021707 0)
(10.1704 0.0221238 0)
(10.2012 0.0225332 0)
(10.2323 0.022834 0)
(10.2636 0.0228687 0)
(10.2953 0.0223363 0)
(10.3271 0.0207791 0)
(10.3591 0.0174 0)
(10.3913 0.0106357 0)
(10.4244 -0.00199796 0)
(10.4583 -0.02671 0)
(10.4961 -0.0696959 0)
(10.5323 -0.159946 0)
(10.5679 -0.27996 0)
(9.9949 -0.000446805 0)
(10.0026 0.00914804 0)
(10.026 0.0129882 0)
(10.0505 0.015419 0)
(10.0801 0.0168737 0)
(10.1102 0.0174303 0)
(10.1411 0.0178611 0)
(10.1724 0.0182322 0)
(10.2041 0.01859 0)
(10.2364 0.018838 0)
(10.2692 0.0188258 0)
(10.3024 0.0182602 0)
(10.3358 0.016683 0)
(10.3693 0.0132881 0)
(10.4029 0.00647938 0)
(10.4369 -0.00623601 0)
(10.4711 -0.0311418 0)
(10.5072 -0.0742294 0)
(10.5403 -0.163871 0)
(10.5642 -0.28232 0)
(9.99531 -0.000269784 0)
(10.0032 0.00709935 0)
(10.0263 0.0100837 0)
(10.0507 0.0119963 0)
(10.0805 0.0131425 0)
(10.1108 0.0135918 0)
(10.1421 0.0139418 0)
(10.174 0.0142407 0)
(10.2066 0.014521 0)
(10.2399 0.0146938 0)
(10.2738 0.0146176 0)
(10.3082 0.0140095 0)
(10.3429 0.0124128 0)
(10.3776 0.00901608 0)
(10.4122 0.00220076 0)
(10.4467 -0.0105264 0)
(10.4808 -0.0354705 0)
(10.515 -0.0784293 0)
(10.5447 -0.166942 0)
(10.5578 -0.283312 0)
(9.99562 -0.000150804 0)
(10.0036 0.00506422 0)
(10.0265 0.00719462 0)
(10.0509 0.00857086 0)
(10.0807 0.00939341 0)
(10.1112 0.00971607 0)
(10.1429 0.00996424 0)
(10.1752 0.01017 0)
(10.2084 0.0103526 0)
(10.2425 0.0104326 0)
(10.2772 0.0102794 0)
(10.3126 0.0096223 0)
(10.3482 0.00800884 0)
(10.3838 0.00462582 0)
(10.419 -0.00215805 0)
(10.4538 -0.0148266 0)
(10.4876 -0.0396573 0)
(10.5194 -0.0822664 0)
(10.5456 -0.169175 0)
(10.5483 -0.283023 0)
(9.99582 -7.30518e-05 0)
(10.0039 0.00303815 0)
(10.0266 0.00431628 0)
(10.051 0.00514339 0)
(10.0809 0.00563139 0)
(10.1115 0.00581354 0)
(10.1434 0.00594479 0)
(10.1761 0.00604228 0)
(10.2097 0.00611237 0)
(10.2442 0.00608704 0)
(10.2796 0.00584783 0)
(10.3155 0.00513841 0)
(10.3518 0.00351262 0)
(10.3879 0.00015952 0)
(10.4235 -0.00655373 0)
(10.4581 -0.0190953 0)
(10.4912 -0.0436657 0)
(10.5205 -0.0857155 0)
(10.5431 -0.17059 0)
(10.536 -0.281531 0)
(9.99592 -1.99694e-05 0)
(10.0041 0.00101723 0)
(10.0267 0.00144426 0)
(10.0511 0.00171464 0)
(10.081 0.00186166 0)
(10.1117 0.00189506 0)
(10.1436 0.00190035 0)
(10.1765 0.00188043 0)
(10.2103 0.00182916 0)
(10.2451 0.00169098 0)
(10.2807 0.00136075 0)
(10.317 0.000598165 0)
(10.3535 -0.00103405 0)
(10.3898 -0.00434002 0)
(10.4254 -0.0109446 0)
(10.4596 -0.0232924 0)
(10.4916 -0.0474617 0)
(10.5183 -0.0887542 0)
(10.537 -0.171206 0)
(10.5206 -0.278904 0)
(9.99592 2.4882e-05 0)
(10.0041 -0.00100211 0)
(10.0267 -0.00142582 0)
(10.0511 -0.00171463 0)
(10.081 -0.00191057 0)
(10.1117 -0.00202845 0)
(10.1436 -0.00215192 0)
(10.1764 -0.00229216 0)
(10.2102 -0.00246776 0)
(10.245 -0.00272114 0)
(10.2807 -0.00314338 0)
(10.3169 -0.0039571 0)
(10.3533 -0.00558805 0)
(10.3894 -0.00882977 0)
(10.4247 -0.0152891 0)
(10.4582 -0.0273789 0)
(10.4889 -0.0510138 0)
(10.5127 -0.0913641 0)
(10.5275 -0.171044 0)
(10.5022 -0.275208 0)
(9.99582 7.78755e-05 0)
(10.0039 -0.00302318 0)
(10.0266 -0.00429793 0)
(10.051 -0.00514309 0)
(10.0809 -0.00567938 0)
(10.1115 -0.00594517 0)
(10.1433 -0.0061939 0)
(10.176 -0.00645104 0)
(10.2096 -0.00674789 0)
(10.2441 -0.00711364 0)
(10.2794 -0.00762493 0)
(10.3153 -0.00848537 0)
(10.3513 -0.0101066 0)
(10.3869 -0.0132672 0)
(10.4215 -0.019546 0)
(10.4539 -0.031317 0)
(10.4831 -0.0542922 0)
(10.5037 -0.0935291 0)
(10.5146 -0.170122 0)
(10.4808 -0.270499 0)
(9.99562 0.000155451 0)
(10.0036 -0.00504956 0)
(10.0265 -0.00717644 0)
(10.0509 -0.00857 0)
(10.0807 -0.0094396 0)
(10.1112 -0.00984427 0)
(10.1428 -0.0102085 0)
(10.1751 -0.0105729 0)
(10.2082 -0.0109819 0)
(10.2422 -0.011452 0)
(10.2769 -0.0120455 0)
(10.3121 -0.0129455 0)
(10.3474 -0.0145475 0)
(10.3822 -0.0176101 0)
(10.4158 -0.0236752 0)
(10.4468 -0.0350702 0)
(10.4741 -0.0572696 0)
(10.4915 -0.0952354 0)
(10.4983 -0.168462 0)
(10.4564 -0.26483 0)
(9.99531 0.000274174 0)
(10.0032 -0.00708516 0)
(10.0263 -0.0100658 0)
(10.0507 -0.0119946 0)
(10.0805 -0.0131861 0)
(10.1108 -0.0137149 0)
(10.142 -0.0141788 0)
(10.1738 -0.0146348 0)
(10.2063 -0.0151409 0)
(10.2395 -0.0157021 0)
(10.2733 -0.0163667 0)
(10.3075 -0.0172965 0)
(10.3417 -0.0188681 0)
(10.3753 -0.0218161 0)
(10.4076 -0.0276363 0)
(10.437 -0.0386021 0)
(10.4621 -0.0599191 0)
(10.4761 -0.0964705 0)
(10.4789 -0.166081 0)
(10.4292 -0.258247 0)
(9.9949 0.000450861 0)
(10.0026 -0.00913447 0)
(10.026 -0.0129707 0)
(10.0505 -0.0154165 0)
(10.0801 -0.016914 0)
(10.1102 -0.017547 0)
(10.141 -0.0180888 0)
(10.1722 -0.0186146 0)
(10.2038 -0.0191971 0)
(10.236 -0.0198308 0)
(10.2686 -0.0205514 0)
(10.3015 -0.0214983 0)
(10.3343 -0.0230272 0)
(10.3664 -0.0258443 0)
(10.397 -0.0313903 0)
(10.4244 -0.0418775 0)
(10.4472 -0.062215 0)
(10.4576 -0.0972223 0)
(10.4563 -0.162996 0)
(10.399 -0.250793 0)
(9.99438 0.000702621 0)
(10.0018 -0.0112029 0)
(10.0257 -0.0158962 0)
(10.0502 -0.0188354 0)
(10.0798 -0.0206188 0)
(10.1095 -0.0213308 0)
(10.1398 -0.0219233 0)
(10.1702 -0.0224917 0)
(10.2008 -0.0231239 0)
(10.2317 -0.0238066 0)
(10.2629 -0.0245634 0)
(10.2942 -0.0255116 0)
(10.3253 -0.0269837 0)
(10.3555 -0.029653 0)
(10.3841 -0.0348974 0)
(10.4092 -0.0448604 0)
(10.4293 -0.0641309 0)
(10.4361 -0.0974773 0)
(10.4305 -0.159221 0)
(10.366 -0.2425 0)
(9.99375 0.001047 0)
(10.0009 -0.013297 0)
(10.0254 -0.0188476 0)
(10.0499 -0.0222515 0)
(10.0793 -0.0242962 0)
(10.1087 -0.0250572 0)
(10.1383 -0.0256679 0)
(10.1678 -0.0262462 0)
(10.1972 -0.0268962 0)
(10.2267 -0.0275988 0)
(10.2562 -0.028368 0)
(10.2856 -0.0292983 0)
(10.3146 -0.0306974 0)
(10.3427 -0.0332015 0)
(10.369 -0.0381181 0)
(10.3915 -0.0475145 0)
(10.4086 -0.0656393 0)
(10.4115 -0.0972192 0)
(10.4016 -0.154765 0)
(10.3298 -0.233395 0)
(9.993 0.00150227 0)
(9.99989 -0.0154246 0)
(10.025 -0.0218302 0)
(10.0495 -0.0256646 0)
(10.0788 -0.0279413 0)
(10.1078 -0.0287167 0)
(10.1367 -0.029308 0)
(10.1651 -0.0298587 0)
(10.1932 -0.0304889 0)
(10.2209 -0.0311771 0)
(10.2484 -0.0319297 0)
(10.2756 -0.0328187 0)
(10.3023 -0.034126 0)
(10.3278 -0.0364461 0)
(10.3514 -0.0410095 0)
(10.3709 -0.0497991 0)
(10.3848 -0.0667083 0)
(10.3835 -0.0964257 0)
(10.3692 -0.14963 0)
(10.2902 -0.223489 0)
(9.99214 0.00208839 0)
(9.99867 -0.0175953 0)
(10.0246 -0.0248488 0)
(10.0491 -0.0290741 0)
(10.0783 -0.0315479 0)
(10.1068 -0.0322981 0)
(10.1348 -0.0328278 0)
(10.162 -0.0333084 0)
(10.1885 -0.033876 0)
(10.2143 -0.03451 0)
(10.2395 -0.0352115 0)
(10.2642 -0.0360316 0)
(10.2881 -0.0372249 0)
(10.3107 -0.0393404 0)
(10.3311 -0.0435253 0)
(10.3473 -0.0516696 0)
(10.3575 -0.0673001 0)
(10.3518 -0.0950655 0)
(10.3327 -0.143808 0)
(10.2464 -0.212785 0)
(9.99116 0.00282829 0)
(9.99728 -0.0198198 0)
(10.0242 -0.0279069 0)
(10.0487 -0.0324776 0)
(10.0776 -0.0351066 0)
(10.1055 -0.0357868 0)
(10.1324 -0.0362074 0)
(10.1582 -0.0365707 0)
(10.1829 -0.0370275 0)
(10.2064 -0.0375613 0)
(10.2291 -0.0381711 0)
(10.2508 -0.0388888 0)
(10.2715 -0.0399414 0)
(10.2906 -0.0418287 0)
(10.3075 -0.0456088 0)
(10.3198 -0.0530696 0)
(10.3257 -0.0673647 0)
(10.3152 -0.0930911 0)
(10.291 -0.137276 0)
(10.1969 -0.201251 0)
(9.99004 0.00374361 0)
(9.99569 -0.0221113 0)
(10.0237 -0.0310044 0)
(10.0482 -0.0358691 0)
(10.0767 -0.0386016 0)
(10.1037 -0.0391603 0)
(10.1294 -0.0394185 0)
(10.1534 -0.0396121 0)
(10.1759 -0.0399043 0)
(10.1968 -0.0402855 0)
(10.2163 -0.0407559 0)
(10.2345 -0.0413311 0)
(10.2514 -0.0422108 0)
(10.2665 -0.0438424 0)
(10.2791 -0.0471899 0)
(10.2869 -0.0539276 0)
(10.2879 -0.0668347 0)
(10.2718 -0.0904314 0)
(10.2417 -0.129992 0)
(10.1393 -0.188831 0)
(9.9888 0.0048349 0)
(9.99385 -0.0244942 0)
(10.0231 -0.0341366 0)
(10.0474 -0.0392354 0)
(10.0753 -0.042005 0)
(10.1012 -0.0423812 0)
(10.1251 -0.042416 0)
(10.1468 -0.0423809 0)
(10.1665 -0.0424482 0)
(10.1841 -0.0426171 0)
(10.1998 -0.0428924 0)
(10.2138 -0.043276 0)
(10.226 -0.0439429 0)
(10.2361 -0.0452849 0)
(10.2434 -0.0481685 0)
(10.2457 -0.0541405 0)
(10.2408 -0.0656104 0)
(10.2181 -0.0869787 0)
(10.1811 -0.121876 0)
(10.0691 -0.175422 0)
(9.9874 0.00608168 0)
(9.99172 -0.0270308 0)
(10.0224 -0.0372997 0)
(10.0463 -0.0425525 0)
(10.073 -0.0452663 0)
(10.097 -0.0453833 0)
(10.1183 -0.045122 0)
(10.1368 -0.0447903 0)
(10.1527 -0.0445646 0)
(10.1659 -0.0444534 0)
(10.1767 -0.0444685 0)
(10.1852 -0.0446014 0)
(10.1914 -0.0450062 0)
(10.1952 -0.0460164 0)
(10.1958 -0.0484001 0)
(10.1909 -0.0535587 0)
(10.1786 -0.0635432 0)
(10.1479 -0.0825676 0)
(10.1024 -0.112801 0)
(9.97917 -0.160855 0)
(9.98582 0.00774044 0)
(9.98923 -0.0297817 0)
(10.0214 -0.0404873 0)
(10.0443 -0.0457754 0)
(10.0688 -0.0482922 0)
(10.0897 -0.0480459 0)
(10.1068 -0.0473971 0)
(10.1205 -0.0466874 0)
(10.1308 -0.0460898 0)
(10.1378 -0.0456211 0)
(10.1417 -0.0453008 0)
(10.1427 -0.0451124 0)
(10.1408 -0.0451938 0)
(10.136 -0.0458192 0)
(10.1277 -0.0476592 0)
(10.1135 -0.0519508 0)
(10.0915 -0.0604031 0)
(10.0505 -0.0769532 0)
(9.99409 -0.102548 0)
(9.85735 -0.144897 0)
(9.98383 0.0111978 0)
(9.98629 -0.0324316 0)
(10.0199 -0.0435738 0)
(10.0403 -0.0487914 0)
(10.0606 -0.0509039 0)
(10.0758 -0.0501471 0)
(10.086 -0.048991 0)
(10.0918 -0.0478013 0)
(10.0934 -0.0467389 0)
(10.091 -0.0458241 0)
(10.0848 -0.0450839 0)
(10.075 -0.044495 0)
(10.0619 -0.0441826 0)
(10.0452 -0.0443627 0)
(10.0247 -0.04561 0)
(9.99802 -0.0489799 0)
(9.96309 -0.0558582 0)
(9.90881 -0.0698009 0)
(9.83876 -0.0908271 0)
(9.68572 -0.127269 0)
(9.98064 0.0190929 0)
(9.98271 -0.0330784 0)
(10.017 -0.0455723 0)
(10.0318 -0.0510586 0)
(10.0436 -0.0526379 0)
(10.0482 -0.0512315 0)
(10.0463 -0.0494373 0)
(10.0388 -0.0476518 0)
(10.0263 -0.0460214 0)
(10.0091 -0.0445687 0)
(9.98751 -0.0433248 0)
(9.96201 -0.0422617 0)
(9.93283 -0.0414932 0)
(9.90001 -0.0411788 0)
(9.86318 -0.0417985 0)
(9.8203 -0.0442121 0)
(9.76915 -0.0495019 0)
(9.69861 -0.0607431 0)
(9.61238 -0.0773071 0)
(9.44088 -0.107726 0)
(9.97677 0.00995162 0)
(9.97949 -0.0358924 0)
(10.0106 -0.0464635 0)
(10.0123 -0.0519516 0)
(10.0065 -0.0527032 0)
(9.99086 -0.0504503 0)
(9.96697 -0.0478604 0)
(9.93669 -0.0453545 0)
(9.901 -0.043065 0)
(9.86066 -0.0410131 0)
(9.81632 -0.0392305 0)
(9.76863 -0.0376821 0)
(9.718 -0.0364653 0)
(9.66459 -0.0356827 0)
(9.60806 -0.035713 0)
(9.54636 -0.0372109 0)
(9.47718 -0.0409646 0)
(9.38928 -0.0494933 0)
(9.28652 -0.0617398 0)
(9.09671 -0.0861026 0)
(9.98592 -0.0647892 0)
(9.98737 -0.053973 0)
(9.99598 -0.0467165 0)
(9.96421 -0.0491591 0)
(9.92084 -0.0485582 0)
(9.86581 -0.0455388 0)
(9.80258 -0.0422994 0)
(9.7343 -0.0392105 0)
(9.66277 -0.0364046 0)
(9.58925 -0.033914 0)
(9.51464 -0.0317766 0)
(9.43963 -0.0299408 0)
(9.36454 -0.0284856 0)
(9.28931 -0.0274378 0)
(9.21331 -0.027073 0)
(9.13417 -0.0278237 0)
(9.04926 -0.030194 0)
(8.94699 -0.0360924 0)
(8.83148 -0.0441916 0)
(8.62756 -0.0623907 0)
(10.0849 -0.478751 0)
(10.0344 -0.240681 0)
(9.95132 -0.121093 0)
(9.83185 -0.0741513 0)
(9.70832 -0.0513145 0)
(9.58133 -0.0385944 0)
(9.45537 -0.0311922 0)
(9.33385 -0.0264716 0)
(9.218 -0.0231908 0)
(9.10817 -0.0207491 0)
(9.00412 -0.0188871 0)
(8.90544 -0.0174045 0)
(8.81138 -0.0162941 0)
(8.72097 -0.015489 0)
(8.63279 -0.0151442 0)
(8.54384 -0.0154629 0)
(8.45104 -0.0166802 0)
(8.34248 -0.0199925 0)
(8.22267 -0.0240936 0)
(8.01399 -0.0352734 0)
(9.90551 2.50646 0)
(10.0226 0.706257 0)
(9.72542 0.223977 0)
(9.42231 0.0645655 0)
(9.16831 0.00921472 0)
(8.95207 -0.00936 0)
(8.76655 -0.0148222 0)
(8.60611 -0.0155989 0)
(8.46543 -0.0148088 0)
(8.34027 -0.0136035 0)
(8.22733 -0.0124312 0)
(8.12414 -0.0113911 0)
(8.02856 -0.0105721 0)
(7.93869 -0.00994004 0)
(7.85254 -0.00959074 0)
(7.76679 -0.00963016 0)
(7.6783 -0.0101287 0)
(7.57564 -0.0119501 0)
(7.46355 -0.0136044 0)
(7.26665 -0.0203973 0)
(7.46817 -0.609574 0)
(7.03032 -0.467977 0)
(7.16245 -0.536272 0)
(7.4539 -0.709381 0)
(7.81626 -0.961125 0)
(8.1955 -1.28659 0)
(8.53282 -1.66831 0)
(8.78172 -2.08047 0)
(8.90938 -2.49209 0)
(8.89779 -2.87058 0)
(8.74576 -3.18689 0)
(8.46886 -3.42006 0)
(8.09654 -3.56006 0)
(7.66547 -3.60743 0)
(7.21228 -3.56913 0)
(6.76997 -3.45369 0)
(6.36715 -3.27072 0)
(6.02651 -3.0369 0)
(5.75968 -2.77967 0)
(5.56431 -2.5298 0)
(5.4276 -2.30904 0)
(5.33332 -2.12458 0)
(5.2672 -1.97248 0)
(5.2189 -1.8442 0)
(5.18186 -1.73148 0)
(5.15224 -1.62835 0)
(5.12792 -1.53131 0)
(5.10771 -1.43867 0)
(5.0909 -1.34992 0)
(5.07703 -1.26508 0)
(5.06574 -1.18437 0)
(5.05672 -1.10799 0)
(5.04968 -1.03606 0)
(5.04437 -0.968596 0)
(5.04057 -0.905511 0)
(5.03806 -0.846648 0)
(5.03665 -0.791806 0)
(5.03619 -0.740755 0)
(5.03653 -0.693256 0)
(5.03754 -0.649069 0)
(5.03912 -0.607959 0)
(5.04116 -0.569705 0)
(5.04357 -0.534098 0)
(5.0463 -0.500943 0)
(5.04926 -0.470061 0)
(5.05241 -0.441286 0)
(5.05569 -0.414466 0)
(5.05906 -0.38946 0)
(5.06248 -0.36614 0)
(5.06591 -0.344388 0)
(5.06934 -0.324096 0)
(5.07273 -0.305164 0)
(5.07606 -0.287498 0)
(5.07932 -0.271012 0)
(5.08248 -0.255629 0)
(5.08554 -0.241271 0)
(5.0885 -0.22787 0)
(5.09133 -0.215361 0)
(5.09403 -0.203683 0)
(5.09661 -0.192778 0)
(5.09905 -0.182592 0)
(5.10136 -0.173074 0)
(5.10354 -0.164176 0)
(5.10559 -0.155854 0)
(5.1075 -0.148067 0)
(5.10929 -0.140774 0)
(5.11096 -0.13394 0)
(5.1125 -0.127531 0)
(5.11392 -0.121516 0)
(5.11523 -0.115864 0)
(5.11642 -0.11055 0)
(5.1175 -0.105549 0)
(5.11848 -0.100836 0)
(5.11936 -0.0963914 0)
(5.12014 -0.0921939 0)
(5.12082 -0.0882247 0)
(5.12141 -0.0844664 0)
(5.12192 -0.080902 0)
(5.12235 -0.0775161 0)
(5.1227 -0.0742935 0)
(5.12297 -0.0712209 0)
(5.12318 -0.0682851 0)
(5.12333 -0.0654745 0)
(5.12342 -0.0627782 0)
(5.12346 -0.0601871 0)
(5.12346 -0.0576926 0)
(5.12341 -0.0552883 0)
(5.12334 -0.0529684 0)
(5.12323 -0.0507292 0)
(5.12311 -0.0485674 0)
(5.12297 -0.0464816 0)
(5.12282 -0.0444707 0)
(5.12268 -0.0425349 0)
(5.12253 -0.0406743 0)
(5.12239 -0.0388897 0)
(5.12227 -0.0371814 0)
(5.12215 -0.0355499 0)
(5.12206 -0.0339949 0)
(5.12199 -0.0325161 0)
(5.12194 -0.0311119 0)
(5.12192 -0.0297808 0)
(5.12192 -0.0285201 0)
(5.12194 -0.027327 0)
(5.12198 -0.0261976 0)
(5.12204 -0.0251281 0)
(5.12212 -0.0241142 0)
(5.12221 -0.0231514 0)
(5.12232 -0.0222349 0)
(5.12243 -0.02136 0)
(5.12255 -0.020522 0)
(5.12267 -0.0197164 0)
(5.12278 -0.0189384 0)
(5.1229 -0.0181839 0)
(5.12301 -0.0174486 0)
(5.1231 -0.0167286 0)
(5.12319 -0.0160201 0)
(5.12326 -0.0153196 0)
(5.12332 -0.0146236 0)
(5.12336 -0.0139291 0)
(5.12338 -0.0132328 0)
(5.12339 -0.0125317 0)
(5.12338 -0.0118228 0)
(5.12335 -0.0111029 0)
(5.1233 -0.0103689 0)
(5.12323 -0.0096173 0)
(5.12315 -0.0088445 0)
(5.12306 -0.00804663 0)
(5.12295 -0.00721928 0)
(5.12283 -0.00635782 0)
(5.12269 -0.00545697 0)
(5.12255 -0.00451104 0)
(5.1224 -0.0035136 0)
(5.12224 -0.00245766 0)
(5.12207 -0.00133536 0)
(5.1219 -0.000138095 0)
(5.12173 0.00114382 0)
(5.12155 0.00252091 0)
(5.12138 0.00400508 0)
(5.12121 0.00560941 0)
(5.12105 0.00734864 0)
(5.12089 0.00923901 0)
(5.12074 0.0112988 0)
(5.1206 0.0135481 0)
(5.12049 0.0160097 0)
(5.12038 0.0187083 0)
(5.12031 0.021672 0)
(5.12026 0.0249313 0)
(5.12024 0.0285205 0)
(5.12026 0.0324772 0)
(5.12033 0.036843 0)
(5.12045 0.0416639 0)
(5.12063 0.0469904 0)
(5.12087 0.0528783 0)
(5.1212 0.0593892 0)
(5.12162 0.0665907 0)
(5.12215 0.0745579 0)
(5.1228 0.0833733 0)
(5.12359 0.0931285 0)
(5.12454 0.103925 0)
(5.12568 0.115874 0)
(5.12703 0.129103 0)
(5.12864 0.143749 0)
(5.13053 0.159969 0)
(5.13276 0.177938 0)
(5.13538 0.197852 0)
(5.13844 0.219935 0)
(5.14201 0.24444 0)
(5.14618 0.271658 0)
(5.15102 0.30193 0)
(5.15664 0.335653 0)
(5.16312 0.373308 0)
(5.17057 0.415482 0)
(5.17909 0.46291 0)
(5.18872 0.516541 0)
(5.1995 0.577607 0)
(5.21133 0.647728 0)
(5.22398 0.728995 0)
(5.23702 0.823979 0)
(5.24978 0.935564 0)
(5.26144 1.06652 0)
(5.27113 1.21882 0)
(5.27824 1.3931 0)
(5.28253 1.58837 0)
(5.28411 1.80239 0)
(5.28338 2.03212 0)
(5.28084 2.27424 0)
(5.27698 2.52542 0)
(5.27228 2.78245 0)
(5.26716 3.04237 0)
(5.26202 3.30258 0)
(5.25724 3.56105 0)
(5.25318 3.81664 0)
(5.25009 4.06956 0)
(5.24796 4.32206 0)
(5.24608 4.57979 0)
(5.24211 4.85448 0)
(5.23324 5.17383 0)
(5.20393 5.60496 0)
(5.25575 6.43062 0)
(5.1723 8.89212 0)
(9.02251 -0.263046 0)
(8.9448 -0.315248 0)
(8.96401 -0.509178 0)
(9.04917 -0.76366 0)
(9.18069 -1.05164 0)
(9.3297 -1.37992 0)
(9.45057 -1.7406 0)
(9.50232 -2.11456 0)
(9.45705 -2.47758 0)
(9.30209 -2.8043 0)
(9.04052 -3.0727 0)
(8.68908 -3.26759 0)
(8.27355 -3.38223 0)
(7.82245 -3.41793 0)
(7.3626 -3.38038 0)
(6.91849 -3.27663 0)
(6.51305 -3.11483 0)
(6.16627 -2.90887 0)
(5.8898 -2.68147 0)
(5.68282 -2.4585 0)
(5.53426 -2.25883 0)
(5.42903 -2.08926 0)
(5.35329 -1.94696 0)
(5.29672 -1.82497 0)
(5.25258 -1.71635 0)
(5.2168 -1.61604 0)
(5.18706 -1.52108 0)
(5.16201 -1.43012 0)
(5.14084 -1.34278 0)
(5.123 -1.25917 0)
(5.10807 -1.17952 0)
(5.09572 -1.10409 0)
(5.08561 -1.03298 0)
(5.07748 -0.966237 0)
(5.07107 -0.903773 0)
(5.06616 -0.845445 0)
(5.06253 -0.791062 0)
(5.06002 -0.740404 0)
(5.05846 -0.693239 0)
(5.05773 -0.649333 0)
(5.05769 -0.60846 0)
(5.05824 -0.570404 0)
(5.05928 -0.534959 0)
(5.06074 -0.501937 0)
(5.06254 -0.47116 0)
(5.06462 -0.442466 0)
(5.06692 -0.415707 0)
(5.06939 -0.390744 0)
(5.07198 -0.367451 0)
(5.07467 -0.345712 0)
(5.07741 -0.325421 0)
(5.08017 -0.306479 0)
(5.08293 -0.288794 0)
(5.08566 -0.272283 0)
(5.08836 -0.256866 0)
(5.09099 -0.24247 0)
(5.09355 -0.229027 0)
(5.09603 -0.216473 0)
(5.09841 -0.204746 0)
(5.10069 -0.193791 0)
(5.10287 -0.183553 0)
(5.10494 -0.173984 0)
(5.10689 -0.165034 0)
(5.10874 -0.15666 0)
(5.11047 -0.148821 0)
(5.11209 -0.141478 0)
(5.1136 -0.134595 0)
(5.115 -0.128137 0)
(5.11629 -0.122073 0)
(5.11747 -0.116376 0)
(5.11855 -0.111017 0)
(5.11953 -0.105971 0)
(5.12041 -0.101217 0)
(5.1212 -0.0967308 0)
(5.1219 -0.092494 0)
(5.1225 -0.0884871 0)
(5.12303 -0.0846927 0)
(5.12347 -0.0810942 0)
(5.12383 -0.0776758 0)
(5.12413 -0.074423 0)
(5.12435 -0.0713219 0)
(5.12451 -0.0683598 0)
(5.12461 -0.0655251 0)
(5.12466 -0.062807 0)
(5.12467 -0.0601963 0)
(5.12462 -0.0576848 0)
(5.12455 -0.0552658 0)
(5.12444 -0.0529339 0)
(5.12431 -0.0506849 0)
(5.12416 -0.048516 0)
(5.12399 -0.0464255 0)
(5.12382 -0.0444124 0)
(5.12365 -0.0424764 0)
(5.12348 -0.0406179 0)
(5.12332 -0.0388371 0)
(5.12317 -0.0371344 0)
(5.12303 -0.0355098 0)
(5.12292 -0.0339629 0)
(5.12282 -0.0324929 0)
(5.12275 -0.0310982 0)
(5.1227 -0.0297766 0)
(5.12267 -0.0285254 0)
(5.12267 -0.0273412 0)
(5.12269 -0.0262202 0)
(5.12273 -0.0251583 0)
(5.12278 -0.0241509 0)
(5.12285 -0.0231934 0)
(5.12294 -0.022281 0)
(5.12303 -0.021409 0)
(5.12313 -0.0205725 0)
(5.12323 -0.019767 0)
(5.12333 -0.018988 0)
(5.12343 -0.0182312 0)
(5.12352 -0.0174926 0)
(5.12361 -0.0167684 0)
(5.12368 -0.0160548 0)
(5.12375 -0.0153484 0)
(5.1238 -0.0146462 0)
(5.12383 -0.0139449 0)
(5.12385 -0.0132416 0)
(5.12385 -0.0125333 0)
(5.12384 -0.0118172 0)
(5.12381 -0.0110902 0)
(5.12377 -0.0103493 0)
(5.12371 -0.00959109 0)
(5.12363 -0.00881211 0)
(5.12355 -0.00800847 0)
(5.12345 -0.00717591 0)
(5.12334 -0.00630973 0)
(5.12322 -0.00540481 0)
(5.12309 -0.0044554 0)
(5.12295 -0.00345515 0)
(5.12281 -0.002397 0)
(5.12267 -0.00127323 0)
(5.12253 -7.51613e-05 0)
(5.12238 0.00120679 0)
(5.12224 0.00258318 0)
(5.12211 0.00406575 0)
(5.12198 0.00566759 0)
(5.12185 0.00740328 0)
(5.12175 0.00928905 0)
(5.12165 0.0113429 0)
(5.12158 0.013585 0)
(5.12152 0.0160376 0)
(5.1215 0.0187257 0)
(5.1215 0.0216767 0)
(5.12155 0.0249213 0)
(5.12163 0.0284932 0)
(5.12177 0.0324299 0)
(5.12196 0.0367725 0)
(5.12223 0.0415666 0)
(5.12256 0.0468624 0)
(5.12299 0.0527151 0)
(5.12351 0.0591855 0)
(5.12415 0.0663407 0)
(5.12491 0.0742548 0)
(5.12583 0.0830093 0)
(5.12691 0.0926946 0)
(5.12819 0.10341 0)
(5.1297 0.115268 0)
(5.13145 0.12839 0)
(5.1335 0.142914 0)
(5.13588 0.158994 0)
(5.13865 0.176801 0)
(5.14186 0.196529 0)
(5.14558 0.218397 0)
(5.14989 0.242656 0)
(5.15485 0.269593 0)
(5.16058 0.299543 0)
(5.16717 0.332904 0)
(5.17473 0.370152 0)
(5.18338 0.411875 0)
(5.19322 0.458818 0)
(5.20434 0.511941 0)
(5.21679 0.572507 0)
(5.23051 0.642186 0)
(5.24535 0.723138 0)
(5.26092 0.818021 0)
(5.27666 0.929802 0)
(5.29183 1.06128 0)
(5.30571 1.21439 0)
(5.31777 1.38964 0)
(5.32785 1.58589 0)
(5.33611 1.80077 0)
(5.34297 2.03117 0)
(5.34894 2.27375 0)
(5.35458 2.52516 0)
(5.36042 2.78222 0)
(5.36702 3.04196 0)
(5.37498 3.30177 0)
(5.38499 3.5596 0)
(5.39791 3.81428 0)
(5.4148 4.06602 0)
(5.43706 4.31705 0)
(5.46648 4.5731 0)
(5.50583 4.84573 0)
(5.5613 5.16215 0)
(5.64702 5.58127 0)
(5.86602 6.34627 0)
(6.4964 7.89711 0)
(9.68691 -0.242024 0)
(9.76413 -0.356465 0)
(9.84483 -0.548554 0)
(9.92501 -0.798871 0)
(9.98824 -1.08449 0)
(10.0245 -1.40197 0)
(10.0144 -1.74047 0)
(9.937 -2.08226 0)
(9.77832 -2.40718 0)
(9.53457 -2.69529 0)
(9.21247 -2.92971 0)
(8.82707 -3.09886 0)
(8.39807 -3.19761 0)
(7.94624 -3.2271 0)
(7.49134 -3.19239 0)
(7.05253 -3.10009 0)
(6.64932 -2.95789 0)
(6.30005 -2.77787 0)
(6.01661 -2.57883 0)
(5.79978 -2.38212 0)
(5.64037 -2.20361 0)
(5.52466 -2.04938 0)
(5.43949 -1.91748 0)
(5.37469 -1.80233 0)
(5.32343 -1.69825 0)
(5.28146 -1.60111 0)
(5.24628 -1.50852 0)
(5.21639 -1.41946 0)
(5.19086 -1.33371 0)
(5.16907 -1.25148 0)
(5.15054 -1.17304 0)
(5.13487 -1.09867 0)
(5.12173 -1.02851 0)
(5.11079 -0.962579 0)
(5.1018 -0.900831 0)
(5.09449 -0.843127 0)
(5.08866 -0.789286 0)
(5.08411 -0.739096 0)
(5.08066 -0.692334 0)
(5.07818 -0.648776 0)
(5.07653 -0.6082 0)
(5.07559 -0.570397 0)
(5.07525 -0.535168 0)
(5.07544 -0.502327 0)
(5.07607 -0.471701 0)
(5.07707 -0.443132 0)
(5.07838 -0.416473 0)
(5.07994 -0.39159 0)
(5.0817 -0.368358 0)
(5.08362 -0.346665 0)
(5.08566 -0.326405 0)
(5.08779 -0.307481 0)
(5.08997 -0.289803 0)
(5.09218 -0.273289 0)
(5.09439 -0.257861 0)
(5.09659 -0.243447 0)
(5.09876 -0.22998 0)
(5.10087 -0.217397 0)
(5.10293 -0.205638 0)
(5.10492 -0.194646 0)
(5.10683 -0.18437 0)
(5.10866 -0.17476 0)
(5.11039 -0.165768 0)
(5.11204 -0.157352 0)
(5.11359 -0.14947 0)
(5.11504 -0.142084 0)
(5.11639 -0.135158 0)
(5.11765 -0.128657 0)
(5.11882 -0.122552 0)
(5.11988 -0.116813 0)
(5.12086 -0.111414 0)
(5.12174 -0.106329 0)
(5.12253 -0.101536 0)
(5.12323 -0.0970133 0)
(5.12385 -0.0927405 0)
(5.12438 -0.0886991 0)
(5.12484 -0.0848716 0)
(5.12522 -0.0812415 0)
(5.12553 -0.0777933 0)
(5.12576 -0.0745124 0)
(5.12594 -0.071385 0)
(5.12606 -0.0683986 0)
(5.12612 -0.0655416 0)
(5.12613 -0.0628034 0)
(5.12609 -0.0601748 0)
(5.12602 -0.0576476 0)
(5.12591 -0.0552153 0)
(5.12578 -0.0528724 0)
(5.12562 -0.0506148 0)
(5.12544 -0.0484397 0)
(5.12525 -0.0463452 0)
(5.12506 -0.0443304 0)
(5.12486 -0.0423949 0)
(5.12467 -0.0405388 0)
(5.12448 -0.0387622 0)
(5.12431 -0.0370654 0)
(5.12415 -0.0354479 0)
(5.12401 -0.0339094 0)
(5.12389 -0.0324485 0)
(5.12379 -0.0310634 0)
(5.12372 -0.0297516 0)
(5.12367 -0.0285102 0)
(5.12364 -0.0273355 0)
(5.12363 -0.0262234 0)
(5.12364 -0.0251696 0)
(5.12367 -0.0241693 0)
(5.12372 -0.0232179 0)
(5.12378 -0.0223104 0)
(5.12385 -0.0214419 0)
(5.12393 -0.0206077 0)
(5.12401 -0.0198033 0)
(5.1241 -0.0190241 0)
(5.12418 -0.018266 0)