/*--------------------------------*- C++ -*----------------------------------*\
| =========                 |                                                 |
| \\      /  F ield         | OpenFOAM: The Open Source CFD Toolbox           |
|  \\    /   O peration     | Version:  2.4.0                                 |
|   \\  /    A nd           | Web:      www.OpenFOAM.org                      |
|    \\/     M anipulation  |                                                 |
\*---------------------------------------------------------------------------*/
FoamFile
{
    version     2.0;
    format      ascii;
    class       volSymmTensorField;
    location    "0.001";
    object      UPrime2Mean;
}
// * * * * * * * * * * * * * * * * * * * * * * * * * * * * * * * * * * * * * //

dimensions      [0 2 -2 0 0 0 0];

internalField   nonuniform List<symmTensor> 
17600
(
(1.05799 -0.265176 0 0.165829 0 0)
(13.7455 -1.27697 0 0.245775 0 0)
(19.3707 -0.176321 0 0.0620752 0 0)
(17.6005 -0.200175 0 0.0529331 0 0)
(17.147 -0.0375182 0 0.00998661 0 0)
(16.5457 -3.98459e-05 0 0.00491313 0 0)
(16.1452 -0.00448123 0 0.00152698 0 0)
(15.7748 0.00101849 0 0.000486667 0 0)
(15.4915 0.00552227 0 0.0002406 0 0)
(15.2933 0.00670969 0 0.000152162 0 0)
(15.1628 0.00647991 0 0.000131796 0 0)
(14.9859 0.0056635 0 0.000109821 0 0)
(14.8726 0.00347292 0 8.04568e-05 0 0)
(14.783 0.00701042 0 0.000108793 0 0)
(14.618 0.00992095 0 0.00017294 0 0)
(14.3113 0.0175239 0 0.000355496 0 0)
(14.377 0.0314508 0 0.000861511 0 0)
(14.8996 0.0861395 0 0.00374515 0 0)
(19.9638 0.0753522 0 0.0171331 0 0)
(26.5603 -0.153544 0 0.119066 0 0)
(1.07867 0.00356111 0 0.207932 0 0)
(5.93738 -0.656677 0 0.280366 0 0)
(10.6926 -0.0456525 0 0.112001 0 0)
(11.3512 -0.0344732 0 0.0597569 0 0)
(11.2109 0.0203055 0 0.015437 0 0)
(10.9657 0.0145296 0 0.00597756 0 0)
(10.6982 0.00447542 0 0.00168196 0 0)
(10.4793 0.00535067 0 0.000649106 0 0)
(10.2894 0.00904981 0 0.000357813 0 0)
(10.1485 0.0102123 0 0.000241136 0 0)
(10.0548 0.0107313 0 0.000207079 0 0)
(9.91944 0.0115295 0 0.00018226 0 0)
(9.80414 0.0142582 0 0.00014629 0 0)
(9.72531 0.0211507 0 0.000185946 0 0)
(9.61062 0.0277009 0 0.000285903 0 0)
(9.40244 0.0368023 0 0.000565523 0 0)
(9.36132 0.0401695 0 0.000930274 0 0)
(9.35998 0.0687103 0 0.00285503 0 0)
(12.2582 -0.010468 0 0.0134557 0 0)
(15.7791 -0.250739 0 0.113392 0 0)
(0.898437 0.112266 0 0.283762 0 0)
(3.06956 -0.22114 0 0.375842 0 0)
(5.36297 -0.0549117 0 0.137101 0 0)
(6.20721 -0.0167256 0 0.0614846 0 0)
(6.38785 0.0272228 0 0.0180852 0 0)
(6.40955 0.015432 0 0.00707479 0 0)
(6.33111 0.00895929 0 0.00217069 0 0)
(6.24133 0.0105107 0 0.00108971 0 0)
(6.14164 0.0146642 0 0.000695751 0 0)
(6.05709 0.0162013 0 0.000523578 0 0)
(5.99194 0.0167762 0 0.00044466 0 0)
(5.89921 0.0172659 0 0.000395361 0 0)
(5.80903 0.0201952 0 0.00035032 0 0)
(5.73611 0.0260536 0 0.000396312 0 0)
(5.64595 0.0323158 0 0.000510858 0 0)
(5.48627 0.0437457 0 0.000928831 0 0)
(5.4011 0.0553853 0 0.00149144 0 0)
(5.24172 0.0871119 0 0.00499877 0 0)
(6.50659 0.0819717 0 0.0242665 0 0)
(8.0341 -0.288785 0 0.134574 0 0)
(0.804166 0.112459 0 0.265434 0 0)
(1.95038 -0.0243746 0 0.361633 0 0)
(2.97847 -0.0358336 0 0.13437 0 0)
(3.49098 -0.0152991 0 0.0587622 0 0)
(3.6876 0.0111636 0 0.0187515 0 0)
(3.76762 0.0043897 0 0.00737346 0 0)
(3.77163 0.00413181 0 0.00257345 0 0)
(3.74703 0.00799613 0 0.00145369 0 0)
(3.70769 0.0133925 0 0.000986306 0 0)
(3.66912 0.0159943 0 0.000775173 0 0)
(3.63644 0.0173633 0 0.00066324 0 0)
(3.58559 0.0184573 0 0.000603574 0 0)
(3.5338 0.0212845 0 0.00056981 0 0)
(3.48612 0.0261614 0 0.000634047 0 0)
(3.43167 0.0318798 0 0.000788669 0 0)
(3.32962 0.0427243 0 0.0013628 0 0)
(3.26905 0.0570347 0 0.00233537 0 0)
(3.14407 0.0824943 0 0.00757404 0 0)
(3.67328 0.103645 0 0.0398598 0 0)
(4.52915 -0.289034 0 0.151901 0 0)
(0.769027 0.0892625 0 0.215557 0 0)
(1.43558 0.0453297 0 0.318604 0 0)
(1.92655 -0.029911 0 0.12046 0 0)
(2.21092 -0.0130359 0 0.0548243 0 0)
(2.34128 -0.00184162 0 0.0181152 0 0)
(2.40467 -0.00520071 0 0.00723163 0 0)
(2.42424 -0.00223687 0 0.00283153 0 0)
(2.4222 0.00280654 0 0.00170584 0 0)
(2.41033 0.0087302 0 0.00120267 0 0)
(2.39706 0.0120753 0 0.000967913 0 0)
(2.38562 0.0141233 0 0.000836166 0 0)
(2.36198 0.0157507 0 0.000774583 0 0)
(2.33828 0.0184998 0 0.00076454 0 0)
(2.3147 0.022543 0 0.000855876 0 0)
(2.28777 0.0274427 0 0.00107087 0 0)
(2.23117 0.036296 0 0.00182804 0 0)
(2.20038 0.0497093 0 0.00339255 0 0)
(2.14814 0.0643232 0 0.0105551 0 0)
(2.38278 0.0769512 0 0.0558385 0 0)
(2.97196 -0.27998 0 0.166861 0 0)
(0.758342 0.0695665 0 0.169295 0 0)
(1.181 0.0749588 0 0.268661 0 0)
(1.43102 -0.0191074 0 0.103239 0 0)
(1.61193 -0.000748277 0 0.0506273 0 0)
(1.67905 -0.00532531 0 0.0167626 0 0)
(1.71211 -0.00935187 0 0.00690033 0 0)
(1.72497 -0.00676063 0 0.00295763 0 0)
(1.72615 -0.00223935 0 0.00185265 0 0)
(1.72374 0.00324956 0 0.00134257 0 0)
(1.72109 0.00674885 0 0.00109623 0 0)
(1.71995 0.00912487 0 0.000955852 0 0)
(1.71131 0.0110344 0 0.000897633 0 0)
(1.70369 0.0135898 0 0.000914043 0 0)
(1.69614 0.0169346 0 0.00103874 0 0)
(1.68695 0.0209244 0 0.00132865 0 0)
(1.66243 0.0272515 0 0.00228463 0 0)
(1.65477 0.0375719 0 0.00454723 0 0)
(1.66796 0.0402338 0 0.0137215 0 0)
(1.78675 0.0299022 0 0.070075 0 0)
(2.24438 -0.276554 0 0.178514 0 0)
(0.75494 0.0552677 0 0.134123 0 0)
(1.05722 0.0916447 0 0.220376 0 0)
(1.18761 -0.00434357 0 0.0866246 0 0)
(1.34032 0.0166431 0 0.0462075 0 0)
(1.36716 -0.00201469 0 0.0151384 0 0)
(1.37828 -0.00880115 0 0.00648458 0 0)
(1.38086 -0.00879483 0 0.00296908 0 0)
(1.37927 -0.00591861 0 0.00190724 0 0)
(1.37799 -0.0015922 0 0.00141149 0 0)
(1.37801 0.00155617 0 0.00116466 0 0)
(1.38014 0.00390533 0 0.00102526 0 0)
(1.37851 0.00581726 0 0.000974288 0 0)
(1.37846 0.00804621 0 0.00101757 0 0)
(1.37944 0.0106971 0 0.00117796 0 0)
(1.38 0.0136728 0 0.00155048 0 0)
(1.37618 0.0173055 0 0.00270941 0 0)
(1.38296 0.0232036 0 0.00570487 0 0)
(1.44026 0.0145895 0 0.0167889 0 0)
(1.50798 -0.0204389 0 0.0815563 0 0)
(1.86579 -0.27595 0 0.185319 0 0)
(0.752785 0.044964 0 0.107663 0 0)
(1.00258 0.100646 0 0.178029 0 0)
(1.06735 0.00956828 0 0.0718572 0 0)
(1.22673 0.033267 0 0.0414591 0 0)
(1.2339 0.0043104 0 0.0134657 0 0)
(1.23585 -0.00533575 0 0.00601742 0 0)
(1.23136 -0.00871147 0 0.0028829 0 0)
(1.2264 -0.00795897 0 0.00188309 0 0)
(1.22329 -0.00517466 0 0.00141738 0 0)
(1.22231 -0.00271841 0 0.00118 0 0)
(1.22391 -0.000676546 0 0.00104981 0 0)
(1.22466 0.00102067 0 0.00101034 0 0)
(1.22706 0.00282056 0 0.00107864 0 0)
(1.23143 0.00475885 0 0.00127547 0 0)
(1.2363 0.00664297 0 0.00173299 0 0)
(1.24452 0.00764557 0 0.00308629 0 0)
(1.25832 0.00860592 0 0.00678679 0 0)
(1.33762 -0.00949049 0 0.0194669 0 0)
(1.37394 -0.0646037 0 0.0897303 0 0)
(1.6364 -0.272939 0 0.18685 0 0)
(0.750538 0.0373459 0 0.087063 0 0)
(0.983572 0.103525 0 0.143058 0 0)
(1.00957 0.0200209 0 0.0591669 0 0)
(1.18676 0.0458428 0 0.0364771 0 0)
(1.18861 0.0110608 0 0.0118347 0 0)
(1.19199 -0.000536368 0 0.00550514 0 0)
(1.18463 -0.00716059 0 0.00271607 0 0)
(1.17761 -0.0085281 0 0.0017936 0 0)
(1.17205 -0.00738178 0 0.00136922 0 0)
(1.16871 -0.00579155 0 0.00114995 0 0)
(1.16805 -0.00423662 0 0.0010355 0 0)
(1.16861 -0.00290312 0 0.00101078 0 0)
(1.17063 -0.00159201 0 0.00110273 0 0)
(1.17527 -0.00036639 0 0.00133426 0 0)
(1.18101 0.000414322 0 0.00187292 0 0)
(1.19511 -0.00095277 0 0.00339852 0 0)
(1.21039 -0.00474246 0 0.00771643 0 0)
(1.29433 -0.0298672 0 0.0215146 0 0)
(1.30407 -0.0981554 0 0.0944032 0 0)
(1.47602 -0.265106 0 0.183678 0 0)
(0.748244 0.0315668 0 0.0703854 0 0)
(0.98145 0.101636 0 0.114617 0 0)
(0.983291 0.0266068 0 0.0483754 0 0)
(1.17833 0.0536108 0 0.0314265 0 0)
(1.18333 0.0168851 0 0.0102734 0 0)
(1.19491 0.00444591 0 0.00495005 0 0)
(1.18817 -0.00479285 0 0.00248578 0 0)
(1.18073 -0.00798965 0 0.00165271 0 0)
(1.17309 -0.00837362 0 0.00127724 0 0)
(1.16715 -0.0076867 0 0.00108291 0 0)
(1.16361 -0.00670457 0 0.000988802 0 0)
(1.16265 -0.00581691 0 0.000981449 0 0)
(1.16283 -0.00499976 0 0.001095 0 0)
(1.16603 -0.00445425 0 0.00135832 0 0)
(1.17062 -0.00471782 0 0.00197011 0 0)
(1.18638 -0.00806742 0 0.00363598 0 0)
(1.19935 -0.015931 0 0.00844436 0 0)
(1.27623 -0.0454792 0 0.0228306 0 0)
(1.26136 -0.120082 0 0.0958111 0 0)
(1.35372 -0.252395 0 0.176748 0 0)
(0.746124 0.0270533 0 0.0564367 0 0)
(0.986104 0.0961743 0 0.091184 0 0)
(0.972623 0.0298604 0 0.0391672 0 0)
(1.18191 0.0571294 0 0.0264781 0 0)
(1.19411 0.0212247 0 0.00877762 0 0)
(1.21724 0.00886528 0 0.00435797 0 0)
(1.21349 -0.0021541 0 0.00220969 0 0)
(1.20705 -0.00674778 0 0.00147435 0 0)
(1.19801 -0.00842443 0 0.00115223 0 0)
(1.18975 -0.00857718 0 0.000987559 0 0)
(1.18333 -0.00817298 0 0.000916444 0 0)
(1.1802 -0.00775098 0 0.000927807 0 0)
(1.17789 -0.0074184 0 0.00106091 0 0)
(1.17879 -0.00748833 0 0.00135177 0 0)
(1.18107 -0.00868274 0 0.00202469 0 0)
(1.19576 -0.0135685 0 0.0037913 0 0)
(1.20401 -0.0245795 0 0.00894236 0 0)
(1.26699 -0.0561957 0 0.0234194 0 0)
(1.23022 -0.131558 0 0.0944324 0 0)
(1.25751 -0.235829 0 0.166996 0 0)
(0.744297 0.0233824 0 0.0445506 0 0)
(0.99248 0.0881508 0 0.0715217 0 0)
(0.969643 0.0305032 0 0.0312415 0 0)
(1.18942 0.0572949 0 0.0217593 0 0)
(1.20998 0.023945 0 0.00734551 0 0)
(1.24557 0.012296 0 0.00373976 0 0)
(1.24619 0.000349725 0 0.00190495 0 0)
(1.24176 -0.00516306 0 0.00127269 0 0)
(1.23199 -0.00782784 0 0.00100514 0 0)
(1.22186 -0.00869024 0 0.000872642 0 0)
(1.21279 -0.00881266 0 0.000825499 0 0)
(1.2073 -0.00883508 0 0.000855705 0 0)
(1.20228 -0.00893918 0 0.00100626 0 0)
(1.20052 -0.00954531 0 0.00131967 0 0)
(1.19992 -0.0115271 0 0.00204031 0 0)
(1.21183 -0.0175084 0 0.00386576 0 0)
(1.21398 -0.0307005 0 0.00920374 0 0)
(1.25996 -0.0625215 0 0.0233497 0 0)
(1.20511 -0.1348 0 0.0908176 0 0)
(1.18242 -0.216803 0 0.155278 0 0)
(0.742783 0.020238 0 0.0343595 0 0)
(0.998364 0.0784611 0 0.0548633 0 0)
(0.970484 0.0292339 0 0.0243803 0 0)
(1.1978 0.0549482 0 0.0173748 0 0)
(1.22632 0.0251193 0 0.0059824 0 0)
(1.27378 0.0145615 0 0.00311223 0 0)
(1.27934 0.00246028 0 0.0015876 0 0)
(1.27747 -0.00351251 0 0.00106024 0 0)
(1.2675 -0.00683729 0 0.000846228 0 0)
(1.25593 -0.00824229 0 0.000746231 0 0)
(1.24458 -0.00880293 0 0.000722531 0 0)
(1.23675 -0.00921406 0 0.000770564 0 0)
(1.22908 -0.00970763 0 0.000935909 0 0)
(1.22461 -0.0107578 0 0.00126612 0 0)
(1.2209 -0.0133722 0 0.0020193 0 0)
(1.22905 -0.0200492 0 0.00386047 0 0)
(1.22457 -0.0345491 0 0.00923863 0 0)
(1.2532 -0.0652613 0 0.022722 0 0)
(1.18434 -0.132224 0 0.0855171 0 0)
(1.12553 -0.196732 0 0.142342 0 0)
(0.74156 0.0173946 0 0.0256701 0 0)
(1.00303 0.0678507 0 0.0407792 0 0)
(0.973203 0.026652 0 0.018447 0 0)
(1.20592 0.0507375 0 0.0133937 0 0)
(1.24129 0.0249163 0 0.00470622 0 0)
(1.29923 0.0156587 0 0.00249545 0 0)
(1.30966 0.00404699 0 0.00127232 0 0)
(1.31051 -0.00197991 0 0.000848432 0 0)
(1.30068 -0.00564724 0 0.000684658 0 0)
(1.28806 -0.00741695 0 0.000615765 0 0)
(1.27479 -0.00831 0 0.000613699 0 0)
(1.26481 -0.00904146 0 0.000677553 0 0)
(1.25467 -0.00985435 0 0.000854752 0 0)
(1.2476 -0.0112595 0 0.00119557 0 0)
(1.24082 -0.0143575 0 0.00196617 0 0)
(1.24481 -0.0213992 0 0.00378325 0 0)
(1.23384 -0.0364991 0 0.00906902 0 0)
(1.24643 -0.0652841 0 0.0216395 0 0)
(1.16716 -0.125962 0 0.0790158 0 0)
(1.08402 -0.176814 0 0.128808 0 0)
(0.740584 0.0147037 0 0.0183624 0 0)
(1.00644 0.0568794 0 0.0290181 0 0)
(0.976711 0.0232243 0 0.0133657 0 0)
(1.21326 0.045152 0 0.00986779 0 0)
(1.25415 0.0235388 0 0.00353989 0 0)
(1.32086 0.015692 0 0.00191197 0 0)
(1.33569 0.00507638 0 0.000972471 0 0)
(1.33909 -0.000669262 0 0.000646755 0 0)
(1.32957 -0.00439159 0 0.000528553 0 0)
(1.31618 -0.00635463 0 0.000487841 0 0)
(1.30135 -0.00747075 0 0.000504537 0 0)
(1.28947 -0.00844245 0 0.000581654 0 0)
(1.27716 -0.00952299 0 0.000766696 0 0)
(1.26773 -0.0111937 0 0.0011119 0 0)
(1.25808 -0.0146421 0 0.00188482 0 0)
(1.25793 -0.0217883 0 0.00364208 0 0)
(1.24106 -0.0369537 0 0.008728 0 0)
(1.23972 -0.0633721 0 0.0202156 0 0)
(1.15297 -0.117645 0 0.0717689 0 0)
(1.0548 -0.157918 0 0.115163 0 0)
(0.739815 0.0120757 0 0.0123557 0 0)
(1.00881 0.0458999 0 0.0194125 0 0)
(0.980343 0.019277 0 0.0090978 0 0)
(1.21955 0.0385575 0 0.00683342 0 0)
(1.2647 0.0211881 0 0.00250888 0 0)
(1.33841 0.0148203 0 0.00138246 0 0)
(1.35688 0.00557827 0 0.000699974 0 0)
(1.36246 0.000381065 0 0.000463661 0 0)
(1.3533 -0.00315623 0 0.000384899 0 0)
(1.33934 -0.00516089 0 0.000368359 0 0)
(1.32327 -0.00639786 0 0.000400314 0 0)
(1.3098 -0.00754154 0 0.000487485 0 0)
(1.29564 -0.00881922 0 0.000676638 0 0)
(1.28415 -0.0106848 0 0.00102021 0 0)
(1.27197 -0.0143707 0 0.00178216 0 0)
(1.26798 -0.0214328 0 0.0034519 0 0)
(1.24607 -0.036289 0 0.00825043 0 0)
(1.23309 -0.060182 0 0.0185498 0 0)
(1.14117 -0.108436 0 0.0641546 0 0)
(1.03476 -0.14058 0 0.10177 0 0)
(0.739215 0.00946174 0 0.00758643 0 0)
(1.0104 0.0351036 0 0.0118356 0 0)
(0.983666 0.0150275 0 0.00563633 0 0)
(1.22465 0.0312336 0 0.00432434 0 0)
(1.27296 0.0180651 0 0.00163632 0 0)
(1.35201 0.0132207 0 0.000925226 0 0)
(1.37328 0.00562175 0 0.000464876 0 0)
(1.38056 0.00117432 0 0.000305897 0 0)
(1.37169 -0.0019871 0 0.000259661 0 0)
(1.35731 -0.00390702 0 0.000262349 0 0)
(1.34029 -0.00517776 0 0.00030558 0 0)
(1.32553 -0.00642775 0 0.00039941 0 0)
(1.30989 -0.00785532 0 0.000588392 0 0)
(1.29666 -0.0098515 0 0.000924989 0 0)
(1.28233 -0.0136846 0 0.00166434 0 0)
(1.27498 -0.02053 0 0.00322528 0 0)
(1.24897 -0.0348302 0 0.00767534 0 0)
(1.22655 -0.0562179 0 0.0167449 0 0)
(1.13117 -0.0990628 0 0.0564991 0 0)
(1.02119 -0.125047 0 0.0888909 0 0)
(0.738758 0.00683987 0 0.00400639 0 0)
(1.01146 0.0245537 0 0.00618698 0 0)
(0.986415 0.0106118 0 0.00299002 0 0)
(1.22852 0.0234028 0 0.00237071 0 0)
(1.27905 0.0143578 0 0.000941891 0 0)
(1.36193 0.0110688 0 0.000553988 0 0)
(1.38518 0.00529769 0 0.000275088 0 0)
(1.39368 0.00174483 0 0.000178959 0 0)
(1.38501 -0.000900699 0 0.00015753 0 0)
(1.37031 -0.00263981 0 0.00017398 0 0)
(1.35258 -0.00387389 0 0.000224212 0 0)
(1.33682 -0.00518405 0 0.00032096 0 0)
(1.32003 -0.00670379 0 0.00050622 0 0)
(1.30541 -0.00878599 0 0.000831084 0 0)
(1.28934 -0.0126952 0 0.00153859 0 0)
(1.27916 -0.0192379 0 0.00297715 0 0)
(1.24997 -0.0328382 0 0.00703697 0 0)
(1.22007 -0.051852 0 0.0148825 0 0)
(1.1225 -0.0899804 0 0.049034 0 0)
(1.01191 -0.111366 0 0.0767104 0 0)
(0.738425 0.00420413 0 0.0015793 0 0)
(1.01219 0.0142376 0 0.00238878 0 0)
(0.988427 0.00611625 0 0.00117723 0 0)
(1.23118 0.0152403 0 0.000999431 0 0)
(1.28314 0.0102463 0 0.000440798 0 0)
(1.3685 0.0085281 0 0.000278917 0 0)
(1.39298 0.00470474 0 0.000136346 0 0)
(1.40225 0.00213889 0 8.6713e-05 0 0)
(1.39369 0.000108958 0 8.21328e-05 0 0)
(1.37877 -0.00138291 0 0.000106432 0 0)
(1.36053 -0.00253066 0 0.000159082 0 0)
(1.34406 -0.00385441 0 0.000255385 0 0)
(1.32644 -0.00544375 0 0.000432521 0 0)
(1.31074 -0.00756587 0 0.000742081 0 0)
(1.29333 -0.0114997 0 0.00141033 0 0)
(1.28085 -0.0176855 0 0.00271757 0 0)
(1.24927 -0.0305089 0 0.00636847 0 0)
(1.21355 -0.0473235 0 0.0130374 0 0)
(1.11471 -0.0813927 0 0.041942 0 0)
(1.00531 -0.0994456 0 0.0653617 0 0)
(0.738218 0.00155813 0 0.000281772 0 0)
(1.0127 0.00408266 0 0.000388348 0 0)
(0.989622 0.00158781 0 0.000214385 0 0)
(1.23268 0.00689185 0 0.000230417 0 0)
(1.28536 0.00588853 0 0.000143082 0 0)
(1.37195 0.00575089 0 0.00010641 0 0)
(1.39702 0.00394074 0 5.23908e-05 0 0)
(1.40667 0.00241754 0 3.18222e-05 0 0)
(1.39816 0.00105895 0 3.59111e-05 0 0)
(1.3831 -0.000143459 0 6.19398e-05 0 0)
(1.36456 -0.00116977 0 0.000112564 0 0)
(1.34763 -0.0024868 0 0.00020456 0 0)
(1.32946 -0.00410584 0 0.000370633 0 0)
(1.313 -0.00624443 0 0.000661523 0 0)
(1.2946 -0.010161 0 0.00128517 0 0)
(1.28033 -0.0159585 0 0.00245864 0 0)
(1.24702 -0.0279769 0 0.00569438 0 0)
(1.20686 -0.0427837 0 0.0112563 0 0)
(1.10738 -0.0733891 0 0.0353382 0 0)
(1.00017 -0.0891287 0 0.0549429 0 0)
(0.738197 -0.00109257 0 0.000102456 0 0)
(1.0131 -0.00602145 0 0.000159169 0 0)
(0.989942 -0.00295092 0 0.00011353 0 0)
(1.23306 -0.00152527 0 7.55407e-05 0 0)
(1.28579 0.00143812 0 5.50368e-05 0 0)
(1.37244 0.00287744 0 4.01543e-05 0 0)
(1.3975 0.00310053 0 2.51966e-05 0 0)
(1.40719 0.00263701 0 1.56176e-05 0 0)
(1.39868 0.00197456 0 2.02748e-05 0 0)
(1.38358 0.00108054 0 4.18204e-05 0 0)
(1.36492 0.000192785 0 8.59741e-05 0 0)
(1.34779 -0.00109617 0 0.000170335 0 0)
(1.32935 -0.00273397 0 0.00032184 0 0)
(1.31238 -0.00486061 0 0.000591837 0 0)
(1.29335 -0.00872941 0 0.00116713 0 0)
(1.27771 -0.0141197 0 0.00220743 0 0)
(1.24324 -0.0253249 0 0.00503738 0 0)
(1.19976 -0.0382955 0 0.00958265 0 0)
(1.1001 -0.0659315 0 0.0293107 0 0)
(0.995619 -0.0802095 0 0.0455318 0 0)
(0.738362 -0.0037432 0 0.00104289 0 0)
(1.01336 -0.0161911 0 0.00170134 0 0)
(0.98936 -0.00749045 0 0.000878143 0 0)
(1.23229 -0.00990041 0 0.00053783 0 0)
(1.28441 -0.00296196 0 0.00017794 0 0)
(1.36995 4.20752e-05 0 8.12184e-05 0 0)
(1.39442 0.00227578 0 5.52247e-05 0 0)
(1.40382 0.00285792 0 3.83786e-05 0 0)
(1.39526 0.00288177 0 3.55202e-05 0 0)
(1.38022 0.00229572 0 4.65207e-05 0 0)
(1.36164 0.0015531 0 8.01023e-05 0 0)
(1.34454 0.00029254 0 0.000153209 0 0)
(1.3261 -0.00133682 0 0.000288257 0 0)
(1.3089 -0.0034388 0 0.000535283 0 0)
(1.28954 -0.00722978 0 0.00106017 0 0)
(1.27295 -0.0122002 0 0.00197211 0 0)
(1.23779 -0.0225955 0 0.00441276 0 0)
(1.19195 -0.0338819 0 0.00804176 0 0)
(1.09246 -0.0589596 0 0.023908 0 0)
(0.990984 -0.0724593 0 0.0371931 0 0)
(0.738662 -0.00638828 0 0.00311603 0 0)
(1.01336 -0.0265375 0 0.00503899 0 0)
(0.987915 -0.0120105 0 0.00250281 0 0)
(1.23031 -0.0181209 0 0.00160928 0 0)
(1.28112 -0.0071614 0 0.000510196 0 0)
(1.36434 -0.00262164 0 0.000228335 0 0)
(1.38759 0.0015578 0 0.000141553 0 0)
(1.39634 0.00313197 0 9.92407e-05 0 0)
(1.38768 0.00380665 0 8.09637e-05 0 0)
(1.3728 0.00350491 0 7.54843e-05 0 0)
(1.35449 0.00289886 0 9.45524e-05 0 0)
(1.33769 0.00167577 0 0.000153961 0 0)
(1.31952 5.37091e-05 0 0.000269692 0 0)
(1.30234 -0.00199681 0 0.000493349 0 0)
(1.28298 -0.00568286 0 0.000967032 0 0)
(1.26584 -0.0102223 0 0.00175626 0 0)
(1.23043 -0.0198029 0 0.00383507 0 0)
(1.18306 -0.0295211 0 0.00665901 0 0)
(1.08413 -0.0523392 0 0.01917 0 0)
(0.985847 -0.0656367 0 0.0299815 0 0)
(0.739084 -0.00902336 0 0.00634713 0 0)
(1.01298 -0.037137 0 0.0102231 0 0)
(0.985711 -0.016473 0 0.00497784 0 0)
(1.22707 -0.0260584 0 0.00327706 0 0)
(1.27578 -0.0110164 0 0.00104499 0 0)
(1.35534 -0.00497565 0 0.000477854 0 0)
(1.37668 0.00103535 0 0.000281698 0 0)
(1.38437 0.00351753 0 0.000196334 0 0)
(1.37553 0.00476895 0 0.000154832 0 0)
(1.36091 0.00471173 0 0.000127423 0 0)
(1.34308 0.00422523 0 0.000128723 0 0)
(1.32684 0.00302686 0 0.000171621 0 0)
(1.30925 0.00143434 0 0.000267296 0 0)
(1.29241 -0.000551643 0 0.000466829 0 0)
(1.27336 -0.00409695 0 0.000889804 0 0)
(1.25609 -0.00819043 0 0.00156521 0 0)
(1.22089 -0.0169455 0 0.00331193 0 0)
(1.17286 -0.0251901 0 0.00544425 0 0)
(1.07491 -0.0459694 0 0.0151045 0 0)
(0.980035 -0.059476 0 0.0239472 0 0)
(0.739642 -0.0116524 0 0.0107738 0 0)
(1.01206 -0.0480121 0 0.0173315 0 0)
(0.982898 -0.0208041 0 0.00829279 0 0)
(1.22254 -0.0335488 0 0.00551989 0 0)
(1.26823 -0.0143649 0 0.00177321 0 0)
(1.34263 -0.00687572 0 0.000823297 0 0)
(1.36127 0.000794754 0 0.000471529 0 0)
(1.36744 0.00405681 0 0.00032655 0 0)
(1.35835 0.00577887 0 0.000254328 0 0)
(1.34409 0.00590378 0 0.000200001 0 0)
(1.327 0.00550691 0 0.000180735 0 0)
(1.31163 0.00432873 0 0.000205583 0 0)
(1.29498 0.00277295 0 0.000279794 0 0)
(1.27879 0.00087999 0 0.000455951 0 0)
(1.26045 -0.00248325 0 0.000829564 0 0)
(1.24349 -0.00611221 0 0.00140028 0 0)
(1.20904 -0.0140134 0 0.00285077 0 0)
(1.1612 -0.0208497 0 0.00440881 0 0)
(1.06486 -0.0397133 0 0.0117173 0 0)
(0.973791 -0.0537321 0 0.0191337 0 0)
(0.740363 -0.014295 0 0.0164449 0 0)
(1.01036 -0.0591103 0 0.0264643 0 0)
(0.97972 -0.024891 0 0.0124476 0 0)
(1.21673 -0.0404025 0 0.00831853 0 0)
(1.2583 -0.0170449 0 0.00268115 0 0)
(1.32587 -0.008169 0 0.00125523 0 0)
(1.34099 0.000912501 0 0.000704941 0 0)
(1.34519 0.00478708 0 0.000485558 0 0)
(1.33582 0.0068307 0 0.000375546 0 0)
(1.32207 0.0070605 0 0.000290257 0 0)
(1.306 0.00671685 0 0.000248496 0 0)
(1.29186 0.0055427 0 0.000253745 0 0)
(1.27652 0.00405313 0 0.000307146 0 0)
(1.26142 0.00227783 0 0.000460472 0 0)
(1.2442 -0.000847223 0 0.000787211 0 0)
(1.22809 -0.00398726 0 0.00126439 0 0)
(1.195 -0.0109947 0 0.00245437 0 0)
(1.14832 -0.0164843 0 0.00355338 0 0)
(1.0544 -0.0334625 0 0.00900194 0 0)
(0.967831 -0.0481307 0 0.0155824 0 0)
(0.741281 -0.0169963 0 0.0234237 0 0)
(1.00762 -0.0702633 0 0.037751 0 0)
(0.976558 -0.0285483 0 0.0174618 0 0)
(1.20975 -0.0463762 0 0.0116512 0 0)
(1.24596 -0.0188869 0 0.00375374 0 0)
(1.30494 -0.00870628 0 0.00176108 0 0)
(1.31575 0.00144588 0 0.000974133 0 0)
(1.31761 0.00571184 0 0.000667592 0 0)
(1.30798 0.00789384 0 0.000513472 0 0)
(1.29498 0.00813306 0 0.000393985 0 0)
(1.28027 0.00780016 0 0.000328533 0 0)
(1.26776 0.00662958 0 0.00031412 0 0)
(1.2542 0.00523267 0 0.000347157 0 0)
(1.24062 0.00361967 0 0.000479977 0 0)
(1.22501 0.00080027 0 0.000763161 0 0)
(1.21033 -0.00182424 0 0.0011578 0 0)
(1.17932 -0.00788336 0 0.00212646 0 0)
(1.13483 -0.0120868 0 0.00287958 0 0)
(1.04441 -0.0271027 0 0.00695034 0 0)
(0.963566 -0.0424976 0 0.0133252 0 0)
(0.742441 -0.0198405 0 0.0317905 0 0)
(1.00359 -0.0811403 0 0.0513562 0 0)
(0.974011 -0.0314957 0 0.023383 0 0)
(1.20187 -0.0511685 0 0.015497 0 0)
(1.23134 -0.0197288 0 0.00497464 0 0)
(1.27998 -0.00835561 0 0.00232589 0 0)
(1.28596 0.00241485 0 0.00126972 0 0)
(1.28527 0.00680302 0 0.000865569 0 0)
(1.27556 0.00890346 0 0.000661835 0 0)
(1.26359 0.00905362 0 0.000506378 0 0)
(1.25067 0.00869206 0 0.000417135 0 0)
(1.24018 0.00752373 0 0.000383191 0 0)
(1.22887 0.00627179 0 0.000397972 0 0)
(1.21735 0.00486601 0 0.000512223 0 0)
(1.20388 0.00243817 0 0.000756172 0 0)
(1.19127 0.000362205 0 0.00108123 0 0)
(1.16319 -0.0046908 0 0.00186699 0 0)
(1.12196 -0.00769236 0 0.00238079 0 0)
(1.03641 -0.0206028 0 0.00553475 0 0)
(0.963156 -0.0366945 0 0.0123786 0 0)
(0.743884 -0.0229688 0 0.0416589 0 0)
(0.998234 -0.0912149 0 0.0675166 0 0)
(0.973029 -0.0333285 0 0.0303031 0 0)
(1.19353 -0.054374 0 0.0198268 0 0)
(1.21507 -0.0194292 0 0.00632985 0 0)
(1.25186 -0.00704111 0 0.00293368 0 0)
(1.25287 0.00378042 0 0.001581 0 0)
(1.2497 0.00796845 0 0.00107067 0 0)
(1.24023 0.00974991 0 0.000813196 0 0)
(1.22968 0.00971314 0 0.000621064 0 0)
(1.21899 0.00929176 0 0.000508925 0 0)
(1.21091 0.0081502 0 0.000456913 0 0)
(1.20233 0.00710811 0 0.000456052 0 0)
(1.19342 0.00597369 0 0.000555155 0 0)
(1.18269 0.00403792 0 0.000765079 0 0)
(1.17278 0.00254117 0 0.00103361 0 0)
(1.14854 -0.00144521 0 0.00167562 0 0)
(1.11168 -0.00337121 0 0.00204677 0 0)
(1.03269 -0.0140385 0 0.00471382 0 0)
(0.969739 -0.0307133 0 0.012718 0 0)
(0.745643 -0.0265986 0 0.0532074 0 0)
(0.992146 -0.0997685 0 0.0866272 0 0)
(0.975286 -0.0335162 0 0.038356 0 0)
(1.18565 -0.0554619 0 0.0245867 0 0)
(1.19859 -0.0178822 0 0.00781134 0 0)
(1.22268 -0.00478553 0 0.00356943 0 0)
(1.21914 0.00540969 0 0.00189581 0 0)
(1.21391 0.00904739 0 0.00127262 0 0)
(1.20516 0.0102675 0 0.000958658 0 0)
(1.19649 0.00997333 0 0.000730974 0 0)
(1.18849 0.0094838 0 0.000598122 0 0)
(1.18314 0.00841904 0 0.000530112 0 0)
(1.17769 0.0076793 0 0.000517206 0 0)
(1.17195 0.00688965 0 0.00060419 0 0)
(1.16456 0.00556765 0 0.000785913 0 0)
(1.15795 0.00468181 0 0.00101137 0 0)
(1.13853 0.00181155 0 0.00154741 0 0)
(1.10713 0.000743285 0 0.00186021 0 0)
(1.03663 -0.0074876 0 0.0044549 0 0)
(0.987596 -0.024848 0 0.0142724 0 0)
(0.747712 -0.0310389 0 0.0667693 0 0)
(0.987274 -0.105931 0 0.109391 0 0)
(0.98406 -0.0314521 0 0.0477502 0 0)
(1.18048 -0.0537296 0 0.0296883 0 0)
(1.18546 -0.0150906 0 0.00941995 0 0)
(1.19721 -0.00177986 0 0.00422023 0 0)
(1.19025 0.00704226 0 0.00219985 0 0)
(1.1838 0.00978917 0 0.00145958 0 0)
(1.17639 0.0102335 0 0.00108796 0 0)
(1.1701 0.00966305 0 0.000828168 0 0)
(1.16519 0.00913741 0 0.000678275 0 0)
(1.16275 0.00826247 0 0.000598056 0 0)
(1.16072 0.00792438 0 0.000575884 0 0)
(1.1586 0.00758295 0 0.000654549 0 0)
(1.15511 0.00701779 0 0.000813877 0 0)
(1.15231 0.00677067 0 0.00100841 0 0)
(1.13869 0.00505253 0 0.00147728 0 0)
(1.11372 0.00448695 0 0.00180655 0 0)
(1.0537 -0.00129578 0 0.00470651 0 0)
(1.02294 -0.019669 0 0.016953 0 0)
(0.75 -0.0367083 0 0.082966 0 0)
(0.988253 -0.108709 0 0.136965 0 0)
(1.00622 -0.0265283 0 0.058746 0 0)
(1.18433 -0.0484014 0 0.0350073 0 0)
(1.18434 -0.0112176 0 0.0111601 0 0)
(1.18616 0.00153892 0 0.00487745 0 0)
(1.17779 0.00827541 0 0.00247762 0 0)
(1.17133 0.0098522 0 0.00161807 0 0)
(1.16595 0.00938393 0 0.00119094 0 0)
(1.16245 0.00859977 0 0.000904373 0 0)
(1.16089 0.00812927 0 0.000742525 0 0)
(1.16126 0.00762544 0 0.000654675 0 0)
(1.16267 0.00783578 0 0.000626754 0 0)
(1.1645 0.00806017 0 0.000699968 0 0)
(1.16537 0.0084219 0 0.000842203 0 0)
(1.16673 0.00883391 0 0.00101683 0 0)
(1.15983 0.00827485 0 0.00145534 0 0)
(1.14194 0.00769725 0 0.00187732 0 0)
(1.09403 0.00425799 0 0.00543845 0 0)
(1.086 -0.0160691 0 0.0206974 0 0)
(0.752324 -0.0441844 0 0.102922 0 0)
(1.00462 -0.106902 0 0.170879 0 0)
(1.05621 -0.0183524 0 0.071617 0 0)
(1.21357 -0.0389228 0 0.0403631 0 0)
(1.21547 -0.00682278 0 0.0130396 0 0)
(1.2126 0.00443212 0 0.00553464 0 0)
(1.20576 0.00856578 0 0.0027108 0 0)
(1.20076 0.00884851 0 0.00173384 0 0)
(1.19786 0.00746598 0 0.0012567 0 0)
(1.19725 0.00664499 0 0.000951718 0 0)
(1.19894 0.00640721 0 0.00078552 0 0)
(1.20166 0.00656766 0 0.000697233 0 0)
(1.20619 0.00745905 0 0.00066333 0 0)
(1.21193 0.00839544 0 0.00073448 0 0)
(1.21749 0.00986924 0 0.000864406 0 0)
(1.22312 0.0109448 0 0.00102963 0 0)
(1.22373 0.011556 0 0.00148143 0 0)
(1.21298 0.0102984 0 0.00207537 0 0)
(1.17806 0.00891568 0 0.0066099 0 0)
(1.19627 -0.015184 0 0.0255729 0 0)
(0.754656 -0.0543248 0 0.128529 0 0)
(1.05458 -0.099049 0 0.212166 0 0)
(1.16376 -0.00741115 0 0.0864945 0 0)
(1.30625 -0.0258583 0 0.0455815 0 0)
(1.32193 -0.00311907 0 0.015023 0 0)
(1.32287 0.00579016 0 0.00618776 0 0)
(1.32107 0.0072698 0 0.00288092 0 0)
(1.31876 0.00640702 0 0.00179159 0 0)
(1.31801 0.0043088 0 0.00127572 0 0)
(1.31967 0.0037707 0 0.000962135 0 0)
(1.32386 0.00402533 0 0.000800176 0 0)
(1.32777 0.00524497 0 0.000718977 0 0)
(1.33453 0.0070002 0 0.000680977 0 0)
(1.34381 0.00878239 0 0.00075257 0 0)
(1.35418 0.0115416 0 0.000874846 0 0)
(1.364 0.0132589 0 0.00104189 0 0)
(1.37292 0.015059 0 0.00155183 0 0)
(1.36834 0.0124742 0 0.00240393 0 0)
(1.34668 0.0129486 0 0.00815194 0 0)
(1.39306 -0.0177441 0 0.0317405 0 0)
(0.75821 -0.0684623 0 0.1626 0 0)
(1.17173 -0.0832435 0 0.259894 0 0)
(1.38994 0.00369327 0 0.10316 0 0)
(1.54278 -0.0120832 0 0.0504886 0 0)
(1.59002 -0.00242047 0 0.0169947 0 0)
(1.60449 0.00413716 0 0.00682433 0 0)
(1.61031 0.00375527 0 0.00296613 0 0)
(1.61024 0.00237148 0 0.00177521 0 0)
(1.60942 -7.38847e-06 0 0.00123819 0 0)
(1.61114 0.000230232 0 0.000928588 0 0)
(1.61581 0.00133308 0 0.000781556 0 0)
(1.61877 0.00410087 0 0.00071429 0 0)
(1.62621 0.00690517 0 0.000675788 0 0)
(1.63819 0.00959095 0 0.000747583 0 0)
(1.65353 0.0137545 0 0.000867582 0 0)
(1.66743 0.0160673 0 0.00104978 0 0)
(1.68635 0.0191591 0 0.00166562 0 0)
(1.68726 0.0149035 0 0.0028675 0 0)
(1.67982 0.0175595 0 0.00994883 0 0)
(1.75446 -0.0233993 0 0.0394594 0 0)
(0.768489 -0.0880716 0 0.20759 0 0)
(1.41889 -0.0537099 0 0.310306 0 0)
(1.86793 0.0102539 0 0.120439 0 0)
(2.08972 -0.00299347 0 0.0551059 0 0)
(2.18855 -0.00817435 0 0.0187062 0 0)
(2.22096 -0.00225546 0 0.00739739 0 0)
(2.23054 -0.00235317 0 0.0029419 0 0)
(2.22736 -0.00309748 0 0.00166738 0 0)
(2.21976 -0.00501584 0 0.00113622 0 0)
(2.21649 -0.00337535 0 0.000843255 0 0)
(2.21766 -0.00102559 0 0.000721113 0 0)
(2.21586 0.00385525 0 0.000676607 0 0)
(2.22253 0.00781797 0 0.000637722 0 0)
(2.23663 0.0113169 0 0.000710862 0 0)
(2.258 0.0168035 0 0.000832842 0 0)
(2.27764 0.0195497 0 0.00104094 0 0)
(2.31119 0.0240467 0 0.00181513 0 0)
(2.32045 0.0184781 0 0.00345681 0 0)
(2.33562 0.0240187 0 0.011779 0 0)
(2.43834 -0.0322628 0 0.0489953 0 0)
(0.801372 -0.111635 0 0.256138 0 0)
(1.92883 0.0171635 0 0.355095 0 0)
(2.90948 0.0118357 0 0.134605 0 0)
(3.29505 -0.00309638 0 0.0592495 0 0)
(3.45785 -0.0228239 0 0.0196939 0 0)
(3.48201 -0.0142666 0 0.0077802 0 0)
(3.47335 -0.0103532 0 0.00277491 0 0)
(3.44941 -0.00904742 0 0.001453 0 0)
(3.42134 -0.00943545 0 0.000958251 0 0)
(3.40311 -0.00583943 0 0.000701536 0 0)
(3.39503 -0.00182588 0 0.000614703 0 0)
(3.38384 0.00549475 0 0.000603837 0 0)
(3.38971 0.0106103 0 0.000558911 0 0)
(3.40876 0.0143084 0 0.000634177 0 0)
(3.44143 0.0205569 0 0.000765699 0 0)
(3.47397 0.0231678 0 0.00101437 0 0)
(3.5397 0.0291236 0 0.00201238 0 0)
(3.57599 0.0232312 0 0.00419192 0 0)
(3.63436 0.0301534 0 0.0133812 0 0)
(3.77421 -0.0506753 0 0.0604762 0 0)
(0.8895 -0.113611 0 0.273327 0 0)
(3.04707 0.214862 0 0.371822 0 0)
(5.28568 0.0274164 0 0.137657 0 0)
(5.87601 -0.00279699 0 0.0619413 0 0)
(6.06196 -0.039421 0 0.0195381 0 0)
(5.97163 -0.0281818 0 0.00768411 0 0)
(5.88288 -0.0165765 0 0.00242801 0 0)
(5.79733 -0.0134365 0 0.00112205 0 0)
(5.72435 -0.011013 0 0.00069971 0 0)
(5.67818 -0.00571167 0 0.0005031 0 0)
(5.65675 7.64232e-05 0 0.000464805 0 0)
(5.63404 0.00942871 0 0.000512095 0 0)
(5.65301 0.0150235 0 0.000428033 0 0)
(5.69078 0.0175988 0 0.000517729 0 0)
(5.75223 0.0226881 0 0.000671755 0 0)
(5.8212 0.0229524 0 0.000979215 0 0)
(5.96085 0.0298806 0 0.00228922 0 0)
(6.07877 0.0245962 0 0.00509957 0 0)
(6.24166 0.0231387 0 0.014582 0 0)
(6.44451 -0.109964 0 0.0731355 0 0)
(1.06493 -0.0131438 0 0.198274 0 0)
(5.83954 0.630995 0 0.277564 0 0)
(10.508 0.0219443 0 0.112943 0 0)
(10.7376 0.0146917 0 0.059958 0 0)
(10.7512 -0.0297614 0 0.0172562 0 0)
(10.266 -0.0285372 0 0.00667325 0 0)
(10.0026 -0.0129227 0 0.00194871 0 0)
(9.79454 -0.0111952 0 0.000700999 0 0)
(9.66097 -0.00723508 0 0.000378099 0 0)
(9.58388 -0.00147258 0 0.000258932 0 0)
(9.55899 0.00473757 0 0.000277974 0 0)
(9.54278 0.0136641 0 0.000382801 0 0)