/*--------------------------------*- C++ -*----------------------------------*\
| =========                 |                                                 |
| \\      /  F ield         | OpenFOAM: The Open Source CFD Toolbox           |
|  \\    /   O peration     | Version:  2.4.0                                 |
|   \\  /    A nd           | Web:      www.OpenFOAM.org                      |
|    \\/     M anipulation  |                                                 |
\*---------------------------------------------------------------------------*/
FoamFile
{
    version     2.0;
    format      ascii;
    class       surfaceScalarField;
    location    "0.145";
    object      phi_0;
}
// * * * * * * * * * * * * * * * * * * * * * * * * * * * * * * * * * * * * * //

dimensions      [0 3 -1 0 0 0 0];

internalField   nonuniform List<scalar> 
8640
(
1.14618e-05
1.35382e-05
7.17898e-06
4.28286e-06
5.91255e-06
1.26642e-06
5.3865e-06
5.26052e-07
5.08652e-06
2.99978e-07
4.95895e-06
1.27578e-07
4.85512e-06
1.03831e-07
4.77417e-06
8.09467e-08
4.76432e-06
9.84971e-09
-7.24402e-07
5.48872e-06
2.10448e-05
1.74934e-05
1.74559e-05
7.87177e-06
1.55092e-05
3.21306e-06
1.42812e-05
1.75404e-06
1.34705e-05
1.1107e-06
1.30752e-05
5.2295e-07
1.27314e-05
4.47622e-07
1.25255e-05
2.86788e-07
1.25917e-05
-5.6304e-08
-4.7251e-07
1.23398e-05
2.56945e-05
1.67989e-05
2.41056e-05
9.46065e-06
2.26112e-05
4.70753e-06
2.12636e-05
3.10162e-06
2.0204e-05
2.17025e-06
1.96259e-05
1.10109e-06
1.91144e-05
9.59148e-07
1.88233e-05
5.77861e-07
1.88218e-05
-5.48502e-08
-2.20911e-07
1.85702e-05
2.74566e-05
1.43423e-05
2.77339e-05
9.18334e-06
2.73762e-05
5.06524e-06
2.65562e-05
3.92158e-06
2.56339e-05
3.09255e-06
2.50542e-05
1.68075e-06
2.44943e-05
1.51914e-06
2.41896e-05
8.82538e-07
2.40589e-05
7.5784e-08
-2.57302e-07
2.40953e-05
2.76581e-05
1.16842e-05
2.88877e-05
7.95375e-06
2.96172e-05
4.33578e-06
2.97172e-05
3.82152e-06
2.93718e-05
3.43797e-06
2.90789e-05
1.97371e-06
2.86639e-05
1.9341e-06
2.84558e-05
1.09066e-06
2.83073e-05
2.24216e-07
-6.48483e-07
2.86985e-05
2.75294e-05
9.15474e-06
2.88887e-05
6.59453e-06
3.00006e-05
3.2238e-06
3.07423e-05
3.07983e-06
3.10849e-05
3.09543e-06
3.13127e-05
1.74589e-06
3.12771e-05
1.96967e-06
3.1274e-05
1.09374e-06
3.13937e-05
1.04505e-07
-1.40584e-07
3.08858e-05
2.74713e-05
6.68339e-06
2.88574e-05
5.20846e-06
2.98388e-05
2.24239e-06
3.0714e-05
2.20467e-06
3.13751e-05
2.43435e-06
3.19156e-05
1.2053e-06
3.22781e-05
1.60717e-06
3.24915e-05
8.80412e-07
3.29598e-05
-3.63869e-07
6.23461e-07
3.21958e-05
2.73771e-05
4.30633e-06
2.89968e-05
3.58873e-06
2.97093e-05
1.52988e-06
3.05529e-05
1.3611e-06
3.12923e-05
1.69491e-06
3.18876e-05
6.1004e-07
3.24061e-05
1.08865e-06
3.27595e-05
5.26976e-07
3.33161e-05
-9.20447e-07
-4.74747e-07
3.44143e-05
2.72588e-05
2.04752e-06
2.89654e-05
1.88214e-06
2.96845e-05
8.108e-07
3.04658e-05
5.79799e-07
3.1225e-05
9.3569e-07
3.18282e-05
6.82146e-09
3.233e-05
5.86844e-07
3.27422e-05
1.14765e-07
3.32259e-05
-1.40411e-06
-1.58277e-06
3.43339e-05
2.71973e-05
-1.49744e-07
2.89241e-05
1.55326e-07
2.9672e-05
6.2912e-08
3.04356e-05
-1.83847e-07
3.12121e-05
1.59199e-07
3.17381e-05
-5.19171e-07
3.22486e-05
7.63301e-08
3.28017e-05
-4.38338e-07
3.32916e-05
-1.89395e-06
-2.23326e-06
3.3942e-05
2.71922e-05
-2.34198e-06
2.89206e-05
-1.57306e-06
2.96623e-05
-6.78757e-07
3.04685e-05
-9.90061e-07
3.12131e-05
-5.8542e-07
3.16933e-05
-9.99385e-07
3.2282e-05
-5.12331e-07
3.28623e-05
-1.01862e-06
3.32253e-05
-2.25698e-06
-2.68366e-06
3.36757e-05
2.72328e-05
-4.57483e-06
2.89328e-05
-3.27296e-06
2.97156e-05
-1.46164e-06
3.05068e-05
-1.78119e-06
3.12032e-05
-1.28187e-06
3.17525e-05
-1.54864e-06
3.23599e-05
-1.11976e-06
3.28071e-05
-1.46576e-06
3.31473e-05
-2.59727e-06
-3.35742e-06
3.38211e-05
2.72877e-05
-6.86251e-06
2.89606e-05
-4.94585e-06
2.97996e-05
-2.30068e-06
3.0535e-05
-2.5166e-06
3.12873e-05
-2.03413e-06
3.18527e-05
-2.11403e-06
3.23684e-05
-1.63547e-06
3.27392e-05
-1.83661e-06
3.31409e-05
-2.99895e-06
-4.06214e-06
3.38456e-05
2.73702e-05
-9.23273e-06
2.88833e-05
-6.45891e-06
2.98903e-05
-3.30768e-06
3.06582e-05
-3.28454e-06
3.14171e-05
-2.79301e-06
3.18344e-05
-2.53134e-06
3.22269e-05
-2.02796e-06
3.24683e-05
-2.07796e-06
3.26733e-05
-3.20398e-06
-4.32343e-06
3.29346e-05
2.74863e-05
-1.1719e-05
2.8934e-05
-7.90662e-06
2.9997e-05
-4.37065e-06
3.06929e-05
-3.98046e-06
3.11351e-05
-3.23522e-06
3.11957e-05
-2.59193e-06
3.12242e-05
-2.05651e-06
3.1098e-05
-1.95175e-06
3.08762e-05
-2.98211e-06
-4.00863e-06
3.05614e-05
2.76417e-05
-1.43607e-05
2.89041e-05
-9.16906e-06
2.96057e-05
-5.07221e-06
2.96789e-05
-4.05361e-06
2.93983e-05
-2.95462e-06
2.89488e-05
-2.14244e-06
2.85623e-05
-1.67003e-06
2.81289e-05
-1.51838e-06
2.75683e-05
-2.42146e-06
-2.65529e-06
2.62149e-05
2.74472e-05
-1.68079e-05
2.77384e-05
-9.46028e-06
2.73663e-05
-4.70012e-06
2.65189e-05
-3.20618e-06
2.56415e-05
-2.07721e-06
2.49097e-05
-1.41064e-06
2.43409e-05
-1.10122e-06
2.38092e-05
-9.86667e-07
2.30968e-05
-1.70909e-06
-1.66032e-06
2.21018e-05
2.56885e-05
-1.74964e-05
2.41055e-05
-7.87733e-06
2.2606e-05
-3.20053e-06
2.1225e-05
-1.82521e-06
2.01998e-05
-1.05204e-06
1.94819e-05
-6.92776e-07
1.89338e-05
-5.53099e-07
1.84482e-05
-5.01083e-07
1.76993e-05
-9.60129e-07
-8.05497e-07
1.68444e-05
2.10418e-05
-1.35383e-05
1.74521e-05
-4.2876e-06
1.55094e-05
-1.25781e-06
1.42415e-05
-5.57353e-07
1.34642e-05
-2.74677e-07
1.29552e-05
-1.83799e-07
1.25589e-05
-1.56793e-07
1.22022e-05
-1.44409e-07
1.15703e-05
-3.28235e-07
-2.20768e-07
1.09856e-05
1.14617e-05
7.17414e-06
5.91634e-06
5.35898e-06
5.08431e-06
4.90051e-06
4.74371e-06
4.59931e-06
4.27107e-06
4.0503e-06
6.35222e-06
1.80858e-07
-1.04436e-06
7.82869e-06
2.43943e-06
-3.9159e-06
9.74641e-06
3.65764e-06
-5.57535e-06
1.21511e-05
4.01687e-06
-6.42159e-06
1.39547e-05
2.08313e-06
-3.88669e-06
1.51055e-05
-2.99809e-06
1.84732e-06
1.62949e-05
-7.58513e-06
6.39574e-06
1.69329e-05
-1.01322e-05
9.4941e-06
1.74384e-05
-1.2386e-05
1.18806e-05
1.79872e-05
-1.14352e-05
1.08864e-05
1.76043e-05
-8.96996e-06
9.35279e-06
1.8605e-05
-9.24032e-06
8.23966e-06
1.91322e-05
-5.50059e-06
4.97338e-06
1.82483e-05
2.9794e-07
5.8599e-07
1.86891e-05
-1.3815e-06
9.40608e-07
1.94101e-05
-3.61903e-06
2.89806e-06
2.15457e-05
-2.73465e-06
5.99078e-07
2.5455e-05
-2.85166e-07
-3.62413e-06
2.71759e-05
9.28505e-07
-2.64941e-06
2.85749e-05
1.22519e-06
-2.62424e-06
3.01515e-05
-4.65653e-06
3.07991e-06
2.97248e-05
-9.97155e-06
1.03983e-05
2.98819e-05
-1.30426e-05
1.28855e-05
3.0746e-05
-1.90455e-05
1.81814e-05
3.23072e-05
-3.07911e-05
2.92299e-05
3.50821e-05
-3.89204e-05
3.61455e-05
3.6213e-05
-4.54545e-05
4.43235e-05
3.56141e-05
-4.7648e-05
4.82469e-05
3.55839e-05
-4.11431e-05
4.11733e-05
3.45095e-05
-3.32878e-05
3.43622e-05
3.25711e-05
-2.64601e-05
2.83985e-05
3.14049e-05
-8.28053e-06
9.4467e-06
2.97922e-05
-9.54132e-07
2.56689e-06
2.73585e-05
9.6479e-06
-7.21427e-06
2.47532e-05
2.60302e-05
-2.34249e-05
2.19488e-05
2.27567e-05
-1.99523e-05
1.95078e-05
1.34497e-05
-1.10087e-05
1.92651e-05
2.41867e-05
-2.39441e-05
2.0598e-05
4.114e-05
-4.24728e-05
2.17144e-05
4.47981e-05
-4.59145e-05
2.15556e-05
4.26696e-05
-4.25108e-05
2.13762e-05
3.71396e-05
-3.69602e-05
2.10606e-05
3.00725e-05
-2.97569e-05
2.03329e-05
1.95946e-05
-1.88668e-05
1.92458e-05
4.56507e-06
-3.47795e-06
1.83779e-05
-8.04789e-06
8.91577e-06
1.78567e-05
-2.16216e-05
2.21427e-05
1.77349e-05
-3.45968e-05
3.47186e-05
1.7816e-05
-4.23478e-05
4.22667e-05
1.70743e-05
-3.7745e-05
3.84867e-05
1.64863e-05
-2.56995e-05
2.62875e-05
1.55423e-05
-2.26228e-05
2.35669e-05
1.48593e-05
-2.27223e-05
2.34053e-05
1.59189e-05
-3.66817e-05
3.56221e-05
1.61741e-05
-4.608e-05
4.58248e-05
1.65914e-05
-4.88761e-05
4.84587e-05
1.6486e-05
-3.80695e-05
3.81749e-05
1.68848e-05
-2.6391e-05
2.59923e-05
1.6973e-05
-1.68046e-05
1.67164e-05
1.76318e-05
-8.87888e-06
8.22008e-06
1.95018e-05
5.16371e-06
-7.03372e-06
2.08947e-05
2.08359e-05
-2.22288e-05
2.15728e-05
2.9348e-05
-3.00262e-05
2.17951e-05
3.73801e-05
-3.76023e-05
2.19095e-05
4.82366e-05
-4.8351e-05
2.11161e-05
5.47666e-05
-5.39731e-05
1.8511e-05
4.92517e-05
-4.66467e-05
1.67742e-05
3.72722e-05
-3.55354e-05
1.65231e-05
3.10363e-05
-3.07852e-05
1.68951e-05
3.25769e-05
-3.29489e-05
1.80504e-05
3.16326e-05
-3.27879e-05
1.95019e-05
2.77488e-05
-2.92004e-05
2.11025e-05
1.93894e-05
-2.09899e-05
2.25465e-05
1.56233e-05
-1.70673e-05
2.31492e-05
4.04111e-06
-4.64382e-06
2.48206e-05
-2.87892e-06
1.20751e-06
2.52741e-05
-1.1935e-05
1.14815e-05
2.55324e-05
-1.78668e-05
1.76085e-05
2.4946e-05
-1.84706e-05
1.9057e-05
2.36436e-05
-2.04281e-05
2.17305e-05
2.34447e-05
-2.18293e-05
2.20282e-05
2.12928e-05
-1.43439e-05
1.64959e-05
2.08394e-05
-1.97586e-05
2.02119e-05
1.97863e-05
-7.84875e-06
8.90185e-06
1.85346e-05
-1.30373e-05
1.4289e-05
1.74844e-05
-1.55822e-05
1.66324e-05
1.79166e-05
-8.36661e-06
7.93438e-06
1.71856e-05
4.10296e-06
-3.37196e-06
1.75408e-05
-3.06286e-06
2.70767e-06
1.75718e-05
-1.33416e-05
1.33107e-05
1.83639e-05
-1.90216e-05
1.82295e-05
1.79209e-05
-1.33033e-05
1.37463e-05
1.76839e-05
-6.11342e-06
6.35041e-06
1.78006e-05
3.77343e-06
-3.8902e-06
1.88255e-05
1.82709e-05
-1.92958e-05
1.91222e-05
3.31204e-05
-3.3417e-05
1.84547e-05
4.27155e-05
-4.2048e-05
1.56577e-05
5.01143e-05
-4.73174e-05
1.42647e-05
5.23986e-05
-5.10057e-05
7.35912e-05
-7.18423e-05
1.25158e-05
1.24741e-05
4.64905e-08
1.31688e-05
1.74472e-06
1.42689e-05
2.55762e-06
1.62328e-05
2.05291e-06
1.84122e-05
-9.62214e-08
1.97088e-05
-4.29468e-06
2.07433e-05
-8.61969e-06
2.17765e-05
-1.11654e-05
2.17866e-05
-1.23961e-05
2.24328e-05
-1.20813e-05
2.24362e-05
-8.97337e-06
2.18422e-05
-8.64639e-06
2.25866e-05
-6.245e-06
2.33903e-05
-5.05725e-07
2.3441e-05
-1.43222e-06
2.1912e-05
-2.09001e-06
2.21387e-05
-2.96137e-06
2.49665e-05
-3.11289e-06
2.68042e-05
-9.09256e-07
2.91566e-05
-1.1272e-06
3.01941e-05
-5.69403e-06
2.93606e-05
-9.13805e-06
2.98869e-05
-1.35689e-05
3.15003e-05
-2.06588e-05
3.32729e-05
-3.25637e-05
3.57594e-05
-4.14069e-05
3.63565e-05
-4.60515e-05
3.51167e-05
-4.64082e-05
3.44123e-05
-4.04387e-05
3.30887e-05
-3.19642e-05
3.08984e-05
-2.42699e-05
2.99847e-05
-7.36684e-06
2.85926e-05
4.37979e-07
2.64963e-05
1.17442e-05
2.43715e-05
2.8155e-05
2.16263e-05
2.55019e-05
1.90661e-05
1.60099e-05
1.93077e-05
2.39451e-05
2.13391e-05
3.91085e-05
2.27753e-05
4.33619e-05
2.27603e-05
4.26846e-05
2.27602e-05
3.71397e-05
2.26349e-05
3.01978e-05
2.20007e-05
2.02288e-05
2.09892e-05
5.57657e-06
2.00847e-05
-7.14335e-06
1.95157e-05
-2.10526e-05
1.9199e-05
-3.428e-05
1.88635e-05
-4.20123e-05
1.7714e-05
-3.65956e-05
1.66905e-05
-2.4676e-05
1.53555e-05
-2.12878e-05
1.47973e-05
-2.21642e-05
1.49879e-05
-3.68722e-05
1.394e-05
-4.50321e-05
1.39397e-05
-4.88758e-05
1.42294e-05
-3.83592e-05
1.49939e-05
-2.71556e-05
1.5066e-05
-1.68767e-05
1.5409e-05
-9.22187e-06
1.72593e-05
3.31343e-06
1.90227e-05
1.90725e-05
2.02409e-05
2.81298e-05
2.07338e-05
3.68872e-05
2.07661e-05
4.82043e-05
2.05406e-05
5.49921e-05
1.86234e-05
5.11689e-05
1.68881e-05
3.90074e-05
1.64828e-05
3.14416e-05
1.73691e-05
3.16906e-05
1.90215e-05
2.99802e-05
2.00884e-05
2.6682e-05
2.16315e-05
1.78462e-05
2.38506e-05
1.34043e-05
2.48785e-05
3.0132e-06
2.577e-05
-3.77044e-06
2.56359e-05
-1.18009e-05
2.55179e-05
-1.77488e-05
2.49626e-05
-1.79152e-05
2.3719e-05
-1.91845e-05
2.33141e-05
-2.14244e-05
2.15933e-05
-1.26231e-05
2.11766e-05
-1.9342e-05
2.04111e-05
-7.08324e-06
1.93123e-05
-1.19385e-05
1.81043e-05
-1.43741e-05
1.85749e-05
-8.83719e-06
1.72266e-05
5.45126e-06
1.75296e-05
-3.36586e-06
1.73554e-05
-1.31674e-05
1.84544e-05
-2.01206e-05
1.76487e-05
-1.24976e-05
1.76323e-05
-6.097e-06
1.74754e-05
3.93027e-06
1.88355e-05
1.69109e-05
1.94726e-05
3.24833e-05
1.99437e-05
4.22444e-05
1.79168e-05
5.21413e-05
1.92857e-05
5.10297e-05
7.48298e-05
1.8047e-05
1.8793e-05
-1.76302e-07
1.93778e-05
1.15992e-06
2.03984e-05
1.53709e-06
2.15497e-05
9.01536e-07
2.32053e-05
-1.75179e-06
2.48102e-05
-5.8996e-06
2.52549e-05
-9.06432e-06
2.60265e-05
-1.1937e-05
2.6121e-05
-1.24905e-05
2.57998e-05
-1.17602e-05
2.62076e-05
-9.38119e-06
2.53572e-05
-7.79601e-06
2.48011e-05
-5.68888e-06
2.6346e-05
-2.05059e-06
2.70674e-05
-2.15366e-06
2.54369e-05
-4.59539e-07
2.45085e-05
-2.03291e-06
2.48799e-05
-3.48433e-06
2.61178e-05
-2.14713e-06
2.84485e-05
-3.45792e-06
2.87571e-05
-6.00263e-06
2.86112e-05
-8.99217e-06
3.00858e-05
-1.50435e-05
3.23049e-05
-2.2878e-05
3.41337e-05
-3.43925e-05
3.57885e-05
-4.30617e-05
3.56069e-05
-4.58699e-05
3.392e-05
-4.47214e-05
3.26185e-05
-3.91372e-05
3.10504e-05
-3.0396e-05
2.8683e-05
-2.19025e-05
2.79196e-05
-6.60349e-06
2.68806e-05
1.47698e-06
2.51516e-05
1.34733e-05
2.36725e-05
2.96341e-05
2.13322e-05
2.78422e-05
1.87904e-05
1.85517e-05
1.93956e-05
2.33399e-05
2.19072e-05
3.65969e-05
2.34495e-05
4.18196e-05
2.35105e-05
4.26236e-05
2.38001e-05
3.685e-05
2.39212e-05
3.00768e-05
2.34186e-05
2.07314e-05
2.24443e-05
6.55089e-06
2.1526e-05
-6.2251e-06
2.09137e-05
-2.04403e-05
2.05317e-05
-3.3898e-05
1.98798e-05
-4.13603e-05
1.83242e-05
-3.504e-05
1.67754e-05
-2.31272e-05
1.50284e-05
-1.95408e-05
1.45195e-05
-2.16553e-05
1.37146e-05
-3.60673e-05
1.17903e-05
-4.31078e-05
1.17568e-05
-4.88422e-05
1.23348e-05
-3.89372e-05
1.33697e-05
-2.81905e-05
1.34002e-05
-1.69072e-05
1.34116e-05
-9.2333e-06
1.50396e-05
1.68551e-06
1.70311e-05
1.70809e-05
1.85223e-05
2.66386e-05
1.92549e-05
3.61547e-05
1.9409e-05
4.80502e-05
1.96264e-05
5.47747e-05
1.85542e-05
5.22411e-05
1.66721e-05
4.08895e-05
1.6207e-05
3.19067e-05
1.77123e-05
3.01853e-05
1.95702e-05
2.81223e-05
2.01999e-05
2.60523e-05
2.14431e-05
1.6603e-05
2.39037e-05
1.09437e-05
2.51651e-05
1.75175e-06
2.58261e-05
-4.43138e-06
2.56468e-05
-1.16216e-05
2.50907e-05
-1.71927e-05
2.44797e-05
-1.73042e-05
2.3637e-05
-1.83418e-05
2.30616e-05
-2.0849e-05
2.19607e-05
-1.15222e-05
2.12911e-05
-1.86724e-05
2.07955e-05
-6.58757e-06
2.01641e-05
-1.13071e-05
1.86399e-05
-1.28499e-05
1.87798e-05
-8.97708e-06
1.74259e-05
6.80516e-06
1.81669e-05
-4.10693e-06
1.76529e-05
-1.26534e-05
1.86441e-05
-2.11118e-05
1.71406e-05
-1.09941e-05
1.75977e-05
-6.55415e-06
1.68998e-05
4.62821e-06
1.89821e-05
1.48286e-05
1.96527e-05
3.18127e-05
2.11509e-05
4.07461e-05
1.97215e-05
5.35707e-05
2.28492e-05
4.79021e-05
7.5168e-05
2.2511e-05
2.43883e-05
-4.69282e-07
2.4694e-05
8.54247e-07
2.57578e-05
4.7324e-07
2.68807e-05
-2.21294e-07
2.77574e-05
-2.62856e-06
2.89861e-05
-7.12832e-06
2.93519e-05
-9.43011e-06
2.94396e-05
-1.20247e-05
2.9486e-05
-1.25369e-05
2.88266e-05
-1.11008e-05
2.88649e-05
-9.41942e-06
2.8219e-05
-7.15013e-06
2.70577e-05
-4.52762e-06
2.7931e-05
-2.92384e-06
2.87267e-05
-2.94939e-06
2.85257e-05
-2.5852e-07
2.77119e-05
-1.21909e-06
2.63319e-05
-2.10433e-06
2.68277e-05
-2.64297e-06
2.78405e-05
-4.47068e-06
2.77901e-05
-5.95221e-06
2.89732e-05
-1.01753e-05
3.08336e-05
-1.69038e-05
3.30401e-05
-2.50846e-05
3.45628e-05
-3.59151e-05
3.50269e-05
-4.35258e-05
3.40911e-05
-4.49341e-05
3.2225e-05
-4.28553e-05
3.05649e-05
-3.7477e-05
2.87696e-05
-2.86008e-05
2.62694e-05
-1.94022e-05
2.55055e-05
-5.83955e-06
2.47495e-05
2.233e-06
2.34875e-05
1.47352e-05
2.25787e-05
3.05429e-05
2.06383e-05
2.97827e-05
1.83646e-05
2.08254e-05
1.93447e-05
2.23597e-05
2.22115e-05
3.37301e-05
2.38264e-05
4.02048e-05
2.40574e-05
4.23926e-05
2.46306e-05
3.62767e-05
2.49758e-05
2.97316e-05
2.45276e-05
2.11797e-05
2.35882e-05
7.49028e-06
2.28023e-05
-5.43918e-06
2.22108e-05
-1.98488e-05
2.1767e-05
-3.34543e-05
2.07731e-05
-4.03664e-05
1.88079e-05
-3.30748e-05
1.68175e-05
-2.11368e-05
1.47175e-05
-1.74409e-05
1.4086e-05
-2.10239e-05
1.24877e-05
-3.44689e-05
1.03477e-05
-4.09678e-05
1.05742e-05
-4.90687e-05
1.10549e-05
-3.94179e-05
1.18728e-05
-2.90084e-05
1.18167e-05
-1.68512e-05
1.18735e-05
-9.2901e-06
1.30666e-05
4.92397e-07
1.50961e-05
1.50514e-05
1.6758e-05
2.49768e-05
1.79894e-05
3.49232e-05
1.81018e-05
4.79379e-05
1.82334e-05
5.4643e-05
1.8083e-05
5.23915e-05
1.62559e-05
4.27167e-05
1.62486e-05
3.1914e-05
1.80468e-05
2.83871e-05
1.97501e-05
2.64189e-05
2.03988e-05
2.54037e-05
2.12577e-05
1.57441e-05
2.33791e-05
8.82231e-06
2.45108e-05
6.20046e-07
2.48268e-05
-4.74734e-06
2.4686e-05
-1.14809e-05
2.46106e-05
-1.71173e-05
2.43061e-05
-1.69997e-05
2.35655e-05
-1.76012e-05
2.28953e-05
-2.01788e-05
2.23509e-05
-1.09778e-05
2.09444e-05
-1.72659e-05
2.07714e-05
-6.41458e-06
2.04062e-05
-1.09419e-05
1.84737e-05
-1.09174e-05
1.86741e-05
-9.17752e-06
1.76523e-05
7.82692e-06
1.87478e-05
-5.20242e-06
1.78996e-05
-1.18052e-05
1.86987e-05
-2.19109e-05
1.64802e-05
-8.77562e-06
1.73865e-05
-7.46045e-06
1.61471e-05
5.86761e-06
1.89565e-05
1.20192e-05
1.95745e-05
3.11948e-05
2.23473e-05
3.79733e-05
2.15492e-05
5.43689e-05
2.54456e-05
4.40057e-05
7.44749e-05
2.61386e-05
2.90374e-05
-8.08175e-07
2.92088e-05
6.82851e-07
2.97939e-05
-1.11849e-07
3.09332e-05
-1.36061e-06
3.14921e-05
-3.18743e-06
3.17603e-05
-7.39656e-06
3.19862e-05
-9.65598e-06
3.189e-05
-1.19285e-05
3.13088e-05
-1.19558e-05
3.043e-05
-1.0222e-05
3.03257e-05
-9.31504e-06
2.97376e-05
-6.56211e-06
2.89897e-05
-3.77972e-06
2.92264e-05
-3.16052e-06
2.91827e-05
-2.90566e-06
3.00342e-05
-1.11005e-06
2.98407e-05
-1.02555e-06
2.86016e-05
-8.65248e-07
2.88788e-05
-2.92015e-06
2.85325e-05
-4.12445e-06
2.86752e-05
-6.09485e-06
3.03148e-05
-1.18149e-05
3.17153e-05
-1.83043e-05
3.34832e-05
-2.68524e-05
3.42276e-05
-3.66596e-05
3.34375e-05
-4.27357e-05
3.19937e-05
-4.34903e-05
3.01304e-05
-4.0992e-05
2.82474e-05
-3.5594e-05
2.62322e-05
-2.65856e-05
2.37177e-05
-1.68877e-05
2.29771e-05
-5.09896e-06
2.23979e-05
2.81225e-06
2.14323e-05
1.57008e-05
2.09915e-05
3.09837e-05
1.96123e-05
3.11619e-05
1.79085e-05
2.25293e-05
1.9233e-05
2.10352e-05
2.23188e-05
3.06442e-05
2.39902e-05
3.85334e-05
2.43771e-05
4.20056e-05
2.51025e-05
3.55513e-05
2.55784e-05
2.92558e-05
2.52168e-05
2.15412e-05
2.44454e-05
8.26168e-06
2.38846e-05
-4.87835e-06
2.34064e-05
-1.93707e-05
2.28405e-05
-3.28884e-05
2.1393e-05
-3.89189e-05
1.90195e-05
-3.07012e-05
1.67209e-05
-1.88382e-05
1.44217e-05
-1.51417e-05
1.34519e-05
-2.0054e-05
1.13809e-05
-3.2398e-05
9.68487e-06
-3.92718e-05
1.02584e-05
-4.96423e-05
1.01771e-05
-3.93366e-05
1.03489e-05
-2.91802e-05
1.03088e-05
-1.68111e-05
1.0833e-05
-9.81422e-06
1.14724e-05
-1.4703e-07
1.34488e-05
1.3075e-05
1.50148e-05
2.34108e-05
1.66174e-05
3.33206e-05
1.66081e-05
4.79471e-05
1.67371e-05
5.45141e-05
1.73136e-05
5.18149e-05
1.5938e-05
4.40922e-05
1.63722e-05
3.14799e-05
1.78851e-05
2.68742e-05
1.95143e-05
2.47897e-05
2.07259e-05
2.41921e-05
2.14958e-05
1.49741e-05
2.26124e-05
7.70569e-06
2.32188e-05
1.37227e-08
2.38202e-05
-5.34881e-06
2.37667e-05
-1.14274e-05
2.42179e-05
-1.75685e-05
2.42488e-05
-1.70306e-05
2.36776e-05
-1.70301e-05
2.2958e-05
-1.94591e-05
2.26661e-05
-1.06859e-05
2.06772e-05
-1.52771e-05
2.07546e-05
-6.49197e-06
2.02812e-05
-1.04684e-05
1.81029e-05
-8.73915e-06
1.86325e-05
-9.70709e-06
1.77876e-05
8.67177e-06
1.85426e-05
-5.95735e-06
1.76951e-05
-1.09577e-05
1.89261e-05
-2.31418e-05
1.61922e-05
-6.04168e-06
1.69882e-05
-8.25646e-06
1.52537e-05
7.60208e-06
1.88766e-05
8.39632e-06
1.93689e-05
3.07024e-05
2.30464e-05
3.42959e-05
2.2718e-05
5.46972e-05
2.72506e-05
3.94732e-05
7.26003e-05
2.91251e-05
3.14749e-05
-1.3972e-06
3.22913e-05
-1.33551e-07
3.28339e-05
-6.54523e-07
3.35723e-05
-2.09897e-06
3.40175e-05
-3.63264e-06
3.39018e-05
-7.28088e-06
3.34888e-05
-9.24291e-06
3.29422e-05
-1.13819e-05
3.20961e-05
-1.11097e-05
3.1042e-05
-9.1679e-06
3.06916e-05
-8.96465e-06
3.00176e-05
-5.88805e-06
2.98505e-05
-3.61265e-06
2.9792e-05
-3.10202e-06
2.92575e-05
-2.37116e-06
3.0326e-05
-2.17855e-06
3.03478e-05
-1.04734e-06
3.01158e-05
-6.33248e-07
3.02832e-05
-3.0875e-06
2.98078e-05
-3.64912e-06
3.05765e-05
-6.8635e-06
3.14002e-05
-1.26386e-05
3.20287e-05
-1.89328e-05
3.32016e-05
-2.80253e-05
3.29464e-05
-3.64044e-05
3.12239e-05
-4.10132e-05
2.94362e-05
-4.17027e-05
2.7601e-05
-3.91568e-05
2.55824e-05
-3.35754e-05
2.35354e-05
-2.45386e-05
2.12275e-05
-1.45799e-05
2.04794e-05
-4.35082e-06
1.99225e-05
3.36911e-06
1.90621e-05
1.65613e-05
1.90942e-05
3.09516e-05
1.83668e-05
3.18893e-05
1.7386e-05
2.351e-05
1.90501e-05
1.93712e-05
2.21829e-05
2.75114e-05
2.37784e-05
3.69379e-05
2.42845e-05
4.14995e-05
2.51927e-05
3.46432e-05
2.57716e-05
2.86768e-05
2.56068e-05
2.17061e-05
2.50378e-05
8.83062e-06
2.47321e-05
-4.57265e-06
2.43589e-05
-1.89975e-05
2.36359e-05
-3.21654e-05
2.17892e-05
-3.70722e-05
1.90694e-05
-2.79814e-05
1.64198e-05
-1.61886e-05
1.39847e-05
-1.27066e-05
1.26739e-05
-1.87432e-05
1.04958e-05
-3.02199e-05
9.48341e-06
-3.82595e-05
9.90483e-06
-5.00637e-05
8.99172e-06
-3.84234e-05
8.64927e-06
-2.88378e-05
8.81329e-06
-1.69751e-05
9.64306e-06
-1.0644e-05
9.88441e-06
-3.88374e-07
1.17405e-05
1.12189e-05
1.30507e-05
2.21006e-05
1.47148e-05
3.16566e-05
1.53306e-05
4.73312e-05
1.54535e-05
5.43912e-05
1.61691e-05
5.10994e-05
1.56535e-05
4.46078e-05
1.61556e-05
3.09778e-05
1.72275e-05
2.58023e-05
1.90925e-05
2.29247e-05
2.09859e-05
2.22987e-05
2.17346e-05
1.42255e-05
2.17908e-05
7.64944e-06
2.1895e-05
-9.04724e-08
2.32282e-05
-6.682e-06
2.37233e-05
-1.19224e-05
2.45853e-05
-1.84305e-05
2.46215e-05
-1.70669e-05
2.41802e-05
-1.65888e-05
2.30891e-05
-1.8368e-05
2.26309e-05
-1.02276e-05
2.03769e-05
-1.30231e-05
2.0515e-05
-6.63013e-06
1.98386e-05
-9.79196e-06
1.77953e-05
-6.69588e-06
1.82003e-05
-1.0112e-05
1.77534e-05
9.11861e-06
1.78289e-05
-6.03283e-06
1.7136e-05
-1.02648e-05
1.87712e-05
-2.4777e-05
1.59776e-05
-3.24814e-06
1.7063e-05
-9.34185e-06
1.43555e-05
1.03096e-05
1.83149e-05
4.43684e-06
1.8993e-05
3.00243e-05
2.39642e-05
2.93247e-05
2.35754e-05
5.5086e-05
2.77152e-05
3.53335e-05
6.9422e-05
3.08935e-05
3.27917e-05
-1.9931e-06
3.38682e-05
-1.21002e-06
3.44044e-05
-1.19078e-06
3.48845e-05
-2.57908e-06
3.50219e-05
-3.77004e-06
3.47556e-05
-7.01454e-06
3.41471e-05
-8.63439e-06
3.30246e-05
-1.02595e-05
3.20787e-05
-1.01638e-05
3.12096e-05
-8.2988e-06
3.04471e-05
-8.20219e-06
2.99655e-05
-5.40643e-06
3.01996e-05
-3.84669e-06
2.97845e-05
-2.68699e-06
2.93132e-05
-1.89986e-06
2.98323e-05
-2.69765e-06
2.98918e-05
-1.10686e-06
3.05442e-05
-1.28564e-06
3.02616e-05
-2.80485e-06
3.03562e-05
-3.74374e-06
3.13882e-05
-7.8955e-06
3.12223e-05
-1.24727e-05
3.1601e-05
-1.93116e-05
3.21577e-05
-2.8582e-05
3.08007e-05
-3.50473e-05
2.84724e-05
-3.86849e-05
2.64414e-05
-3.96717e-05
2.45684e-05
-3.72837e-05
2.25517e-05
-3.15588e-05
2.06541e-05
-2.2641e-05
1.88359e-05
-1.27617e-05
1.80743e-05
-3.58918e-06
1.72597e-05
4.18366e-06
1.63058e-05
1.75152e-05
1.68852e-05
3.03722e-05
1.69704e-05
3.1804e-05
1.68142e-05
2.36663e-05
1.86591e-05
1.75263e-05
2.15694e-05
2.4601e-05
2.30099e-05
3.54974e-05
2.37906e-05
4.07188e-05
2.49714e-05
3.34624e-05
2.56574e-05
2.79909e-05
2.56884e-05
2.16751e-05
2.54391e-05
9.07993e-06
2.54689e-05
-4.60247e-06
2.52199e-05
-1.87485e-05
2.42757e-05
-3.12212e-05
2.20494e-05
-3.48459e-05
1.89989e-05
-2.49309e-05
1.59804e-05
-1.31701e-05
1.35667e-05
-1.02929e-05
1.19627e-05
-1.71392e-05
9.67335e-06
-2.79305e-05
8.95346e-06
-3.75396e-05
8.3858e-06
-4.94961e-05
6.87994e-06
-3.69176e-05
6.65511e-06
-2.86129e-05
7.23226e-06
-1.75522e-05
8.08808e-06
-1.14998e-05
8.39465e-06
-6.94936e-07
1.00464e-05
9.56717e-06
1.16132e-05
2.05337e-05
1.27766e-05
3.04932e-05
1.38677e-05
4.62401e-05
1.36614e-05
5.45975e-05
1.46547e-05
5.01061e-05
1.54309e-05
4.38316e-05
1.56695e-05
3.07392e-05
1.64329e-05
2.50389e-05
1.83418e-05
2.10158e-05
2.03714e-05
2.02691e-05
2.10683e-05
1.35286e-05
2.10447e-05
7.67306e-06
2.14668e-05
-5.12611e-07
2.34743e-05
-8.68949e-06
2.45009e-05
-1.29491e-05
2.50312e-05
-1.89608e-05
2.49482e-05
-1.69838e-05
2.45978e-05
-1.62384e-05
2.29938e-05
-1.6764e-05
2.2418e-05
-9.65185e-06
2.02391e-05
-1.08442e-05
2.03337e-05
-6.72472e-06
1.91681e-05
-8.62639e-06
1.75454e-05
-5.07316e-06
1.70386e-05
-9.6052e-06
1.73875e-05
8.76972e-06
1.72904e-05
-5.93579e-06
1.64442e-05
-9.41863e-06
1.74977e-05
-2.58305e-05
1.54275e-05
-1.17798e-06
1.7056e-05
-1.09703e-05
1.40276e-05
1.33381e-05
1.83538e-05
1.10637e-07
1.82224e-05
3.01558e-05
2.42096e-05
2.33374e-05
2.4409e-05
5.48866e-05
2.82462e-05
3.14962e-05
6.57217e-05
3.19465e-05
3.42664e-05
-1.84515e-06
3.43748e-05
-1.31845e-06
3.47123e-05
-1.5283e-06
3.49963e-05
-2.86305e-06
3.48866e-05
-3.66028e-06
3.46314e-05
-6.75942e-06
3.40009e-05
-8.00391e-06
3.25526e-05
-8.81115e-06
3.17307e-05
-9.3419e-06
3.13445e-05
-7.91258e-06
3.05413e-05
-7.399e-06
3.04095e-05
-5.27465e-06
3.05567e-05
-3.99388e-06
3.00373e-05
-2.16757e-06
2.96718e-05
-1.53442e-06
2.90533e-05
-2.07909e-06
2.91545e-05
-1.20809e-06
2.98145e-05
-1.94565e-06
2.94293e-05
-2.41963e-06
3.01705e-05
-4.48493e-06
3.05823e-05
-8.30728e-06
3.01763e-05
-1.20667e-05
3.07957e-05
-1.99311e-05
3.04374e-05
-2.82237e-05
2.80189e-05
-3.26288e-05
2.53506e-05
-3.60166e-05
2.31761e-05
-3.74972e-05
2.12065e-05
-3.53142e-05
1.93064e-05
-2.96587e-05
1.76612e-05
-2.09958e-05
1.62957e-05
-1.13962e-05
1.55242e-05
-2.81761e-06
1.43868e-05
5.32104e-06
1.34257e-05
1.84763e-05
1.4435e-05
2.9363e-05
1.53786e-05
3.08604e-05
1.63058e-05
2.27391e-05
1.81598e-05
1.56723e-05
2.05077e-05
2.22531e-05
2.18454e-05
3.41597e-05
2.31118e-05
3.94524e-05
2.45668e-05
3.20074e-05
2.5343e-05
2.72146e-05
2.55778e-05
2.14403e-05
2.56955e-05
8.96222e-06
2.60575e-05
-4.96454e-06
2.58856e-05
-1.85765e-05
2.46433e-05
-2.99789e-05
2.20538e-05
-3.22565e-05
1.87085e-05
-2.15856e-05
1.54786e-05
-9.94016e-06
1.30601e-05
-7.87445e-06
1.12673e-05
-1.53464e-05
9.10052e-06
-2.57637e-05
7.91747e-06
-3.63565e-05
5.83871e-06
-4.74173e-05
4.01798e-06
-3.50969e-05
4.41058e-06
-2.90055e-05
5.28762e-06
-1.84293e-05
5.95024e-06
-1.21624e-05
6.68058e-06
-1.42528e-06
7.85826e-06
8.38949e-06
9.82904e-06
1.85629e-05
1.03929e-05
2.99294e-05
1.25594e-05
4.40736e-05
1.22784e-05
5.48786e-05
1.33716e-05
4.90129e-05
1.49354e-05
4.22678e-05
1.53309e-05
3.03437e-05
1.59251e-05
2.44447e-05
1.71776e-05
1.97632e-05
1.86837e-05
1.87631e-05
1.96662e-05
1.2546e-05
2.09983e-05
6.34092e-06
2.2473e-05
-1.98724e-06
2.4387e-05
-1.06035e-05
2.53681e-05
-1.39302e-05
2.5162e-05
-1.87547e-05
2.49163e-05
-1.67382e-05
2.46327e-05
-1.59548e-05
2.28161e-05
-1.49475e-05
2.21188e-05
-8.95449e-06
2.01335e-05
-8.85898e-06
2.00216e-05
-6.61281e-06
1.83227e-05
-6.92741e-06
1.75452e-05
-4.29569e-06
1.55222e-05
-7.58217e-06
1.63872e-05
7.90463e-06
1.66076e-05
-6.15611e-06
1.51977e-05
-8.0088e-06
1.48205e-05
-2.54532e-05
1.47449e-05
-1.10236e-06
1.73752e-05
-1.36007e-05
1.37214e-05
1.69919e-05
1.85397e-05
-4.70772e-06
1.78533e-05
3.08423e-05
2.45512e-05
1.66394e-05
2.52094e-05
5.42284e-05
2.83448e-05
2.83608e-05
6.14985e-05
3.2568e-05
3.42625e-05
-1.7737e-06
3.42805e-05
-1.33652e-06
3.44877e-05
-1.73548e-06
3.47115e-05
-3.08685e-06
3.46602e-05
-3.60901e-06
3.42249e-05
-6.3241e-06
3.35788e-05
-7.35777e-06
3.25467e-05
-7.77904e-06
3.20233e-05
-8.81855e-06
3.17019e-05
-7.59113e-06
3.11028e-05
-6.7999e-06
3.1171e-05
-5.34286e-06
3.07282e-05
-3.55113e-06
3.02375e-05
-1.67684e-06
2.98453e-05
-1.14221e-06
2.87395e-05
-9.73249e-07
2.86972e-05
-1.16578e-06
2.85672e-05
-1.81573e-06
2.84899e-05
-2.34226e-06
2.93546e-05
-5.34966e-06
2.91752e-05
-8.12789e-06
2.93047e-05
-1.21962e-05
2.97422e-05
-2.03686e-05
2.79936e-05
-2.64751e-05
2.47443e-05
-2.93796e-05
2.1956e-05
-3.32283e-05
1.97518e-05
-3.52931e-05
1.76706e-05
-3.32329e-05
1.59515e-05
-2.79396e-05
1.46135e-05
-1.96578e-05
1.35987e-05
-1.03814e-05
1.27898e-05
-2.00863e-06
1.13935e-05
6.71734e-06
1.05262e-05
1.93435e-05
1.17237e-05
2.81655e-05
1.35969e-05
2.89872e-05
1.58293e-05
2.05067e-05
1.7683e-05
1.38186e-05
1.93957e-05
2.05405e-05
2.06935e-05
3.28618e-05
2.23699e-05
3.77761e-05
2.39673e-05
3.041e-05
2.4809e-05
2.6373e-05
2.53298e-05
2.09195e-05
2.58673e-05
8.42465e-06
2.65645e-05
-5.66169e-06
2.63764e-05
-1.83884e-05
2.47455e-05
-2.8348e-05
2.18197e-05
-2.93306e-05
1.82106e-05
-1.79765e-05
1.48942e-05
-6.62378e-06
1.25047e-05
-5.48501e-06
1.06575e-05
-1.34991e-05
8.57726e-06
-2.36835e-05
6.4302e-06
-3.42095e-05
2.77126e-06
-4.37583e-05
9.1121e-07
-3.32368e-05
2.23933e-06
-3.03337e-05
3.56038e-06
-1.97503e-05
4.02354e-06
-1.26256e-05
5.28821e-06
-2.68996e-06
6.20426e-06
7.47344e-06
8.86316e-06
1.5904e-05
8.10875e-06
3.06838e-05
1.15556e-05
4.06267e-05
1.14373e-05
5.49969e-05
1.21516e-05
4.82986e-05
1.39385e-05
4.04808e-05
1.52845e-05
2.89978e-05
1.59735e-05
2.37557e-05
1.65631e-05
1.91735e-05
1.78878e-05
1.74384e-05
1.93798e-05
1.10541e-05
2.17334e-05
3.98739e-06
2.38219e-05
-4.0758e-06
2.53677e-05
-1.21493e-05
2.60304e-05
-1.45928e-05
2.53215e-05
-1.80458e-05
2.47709e-05
-1.61875e-05
2.40627e-05
-1.52466e-05
2.22249e-05
-1.31097e-05
2.15271e-05
-8.25669e-06
2.00441e-05
-7.37596e-06
1.96426e-05
-6.21132e-06
1.7934e-05
-5.21876e-06
1.76643e-05
-4.026e-06
1.45305e-05
-4.44838e-06
1.55696e-05
6.86555e-06
1.5524e-05
-6.11054e-06
1.29343e-05
-5.4191e-06
1.05722e-05
-2.30911e-05
1.05955e-05
-1.12566e-06
1.40457e-05
-1.70509e-05
1.41189e-05
1.69187e-05
1.90057e-05
-9.59448e-06
1.70224e-05
3.28255e-05
2.46187e-05
9.04308e-06
2.51157e-05
5.37314e-05
2.75324e-05
2.59441e-05
5.65753e-05
3.24557e-05
3.39241e-05
-1.75573e-06
3.40968e-05
-1.50926e-06
3.40921e-05
-1.73075e-06
3.4283e-05
-3.27778e-06
3.43832e-05
-3.70919e-06
3.37174e-05
-5.6583e-06
3.32736e-05
-6.91401e-06
3.29103e-05
-7.41572e-06
3.26671e-05
-8.57532e-06
3.21899e-05
-7.114e-06
3.14898e-05
-6.09976e-06
3.12764e-05
-5.12949e-06
3.03799e-05
-2.65459e-06
2.9898e-05
-1.19495e-06
2.94726e-05
-7.16844e-07
2.86524e-05
-1.52986e-07
2.84672e-05
-9.80606e-07
2.79832e-05
-1.33169e-06
2.82172e-05
-2.57626e-06
2.85994e-05
-5.73189e-06
2.82586e-05
-7.78713e-06
2.87245e-05
-1.26621e-05
2.8168e-05
-1.9812e-05
2.49707e-05
-2.32778e-05
2.12242e-05
-2.5633e-05
1.84441e-05
-3.04482e-05
1.62703e-05
-3.31193e-05
1.41097e-05
-3.10723e-05
1.23423e-05
-2.61722e-05
1.11658e-05
-1.84814e-05
1.02081e-05
-9.42364e-06
9.38883e-06
-1.18939e-06
8.06006e-06
8.04611e-06
7.32163e-06
2.00819e-05
8.7614e-06
2.67258e-05
1.17824e-05
2.59662e-05
1.52306e-05
1.70584e-05
1.70522e-05
1.1997e-05
1.81344e-05
1.94583e-05
1.93029e-05
3.16933e-05
2.12891e-05
3.57899e-05
2.30861e-05
2.86129e-05
2.41425e-05
2.53166e-05
2.49829e-05
2.00791e-05
2.59507e-05
7.45691e-06
2.68894e-05
-6.6004e-06
2.65387e-05
-1.80378e-05