/*--------------------------------*- C++ -*----------------------------------*\
| =========                 |                                                 |
| \\      /  F ield         | OpenFOAM: The Open Source CFD Toolbox           |
|  \\    /   O peration     | Version:  2.4.0                                 |
|   \\  /    A nd           | Web:      www.OpenFOAM.org                      |
|    \\/     M anipulation  |                                                 |
\*---------------------------------------------------------------------------*/
FoamFile
{
    version     2.0;
    format      ascii;
    class       volScalarField;
    location    "0.09";
    object      pMean;
}
// * * * * * * * * * * * * * * * * * * * * * * * * * * * * * * * * * * * * * //

dimensions      [0 2 -2 0 0 0 0];

internalField   nonuniform List<scalar> 
17600
(
126.268
109.836
104.769
103.108
101.628
100.132
98.6904
97.3069
95.9557
94.6104
93.2764
91.9469
90.6417
89.3397
88.0644
86.7647
85.4566
84.057
82.424
79.7347
124.378
109.885
104.809
103.117
101.632
100.133
98.6906
97.3071
95.9559
94.6105
93.2764
91.947
90.6418
89.3404
88.0645
86.7667
85.4577
84.0625
82.4359
80.1995
122.979
110.136
104.95
103.154
101.645
100.137
98.6925
97.3085
95.9569
94.6109
93.2767
91.9467
90.6419
89.3396
88.0652
86.7648
85.4612
84.0603
82.5106
80.4558
122.012
110.471
105.165
103.217
101.674
100.152
98.701
97.3142
95.9606
94.6131
93.2774
91.948
90.642
89.3428
88.0652
86.7735
85.4611
84.0849
82.569
80.7278
121.196
110.797
105.422
103.296
101.715
100.181
98.7202
97.3277
95.97
94.6192
93.281
91.9487
90.644
89.3418
88.0692
86.7704
85.4752
84.0932
82.6634
80.9934
120.428
111.082
105.691
103.375
101.756
100.218
98.7491
97.35
95.9859
94.6304
93.287
91.9546
90.6458
89.3489
88.0707
86.782
85.4809
84.1177
82.7568
81.2627
119.707
111.322
105.959
103.449
101.787
100.252
98.7822
97.3776
96.0072
94.6457
93.297
91.96
90.6513
89.3526
88.0766
86.789
85.4889
84.1524
82.8259
81.5493
119.041
111.521
106.219
103.519
101.809
100.279
98.8147
97.4075
96.0302
94.6628
93.3077
91.9681
90.6571
89.3597
88.0855
86.7982
85.5098
84.1804
82.9132
81.8644
118.436
111.681
106.464
103.592
101.821
100.298
98.8442
97.4373
96.0539
94.6801
93.3185
91.9763
90.6622
89.3679
88.0897
86.8132
85.5189
84.2249
82.9845
82.1704
117.893
111.806
106.69
103.669
101.828
100.309
98.8697
97.4658
96.0771
94.696
93.3288
91.9827
90.669
89.3744
88.1007
86.8246
85.5413
84.2684
83.0745
82.4806
117.41
111.896
106.898
103.75
101.83
100.314
98.8913
97.4928
96.0992
94.7113
93.3378
91.9894
90.6731
89.3821
88.1069
86.8394
85.5643
84.3151
83.1857
82.7457
116.986
111.957
107.087
103.835
101.828
100.313
98.9091
97.5179
96.1207
94.7252
93.3459
91.9947
90.679
89.3889
88.117
86.8545
85.5885
84.3689
83.2972
82.9789
116.617
111.993
107.256
103.923
101.824
100.307
98.9236
97.5411
96.1408
94.7378
93.353
91.9994
90.6834
89.3959
88.1269
86.8707
85.6192
84.4235
83.4108
83.1909
116.301
112.012
107.405
104.008
101.819
100.299
98.9351
97.5617
96.1597
94.7493
93.3593
92.0038
90.6886
89.4032
88.1375
86.8884
85.6509
84.4799
83.5237
83.384
116.034
112.021
107.533
104.085
101.815
100.289
98.9442
97.58
96.1766
94.7593
93.3648
92.0073
90.6935
89.4109
88.1493
86.9078
85.684
84.5377
83.6332
83.562
115.815
112.024
107.638
104.15
101.813
100.28
98.9512
97.5954
96.1914
94.7679
93.3695
92.0112
90.6984
89.4187
88.1616
86.9277
85.7189
84.597
83.7385
83.7269
115.642
112.024
107.722
104.204
101.813
100.271
98.9564
97.608
96.2037
94.7752
93.3737
92.0145
90.7034
89.4272
88.1746
86.949
85.7546
84.6562
83.8392
83.8809
115.514
112.022
107.783
104.245
101.814
100.263
98.96
97.6176
96.2133
94.781
93.3771
92.018
90.7084
89.4358
88.1882
86.9712
85.7915
84.715
83.9356
84.0248
115.429
112.02
107.824
104.273
101.815
100.257
98.9623
97.6242
96.22
94.7854
93.38
92.0214
90.7136
89.4444
88.2027
86.9931
85.8294
84.7729
84.0273
84.159
115.387
112.019
107.844
104.287
101.816
100.254
98.9636
97.6277
96.2238
94.7883
93.3823
92.0249
90.7187
89.4536
88.2169
87.0171
85.8659
84.8318
84.1128
84.2802
115.387
112.019
107.844
104.287
101.816
100.254
98.9639
97.6281
96.2244
94.7899
93.384
92.0287
90.7239
89.4632
88.2319
87.0407
85.9038
84.8874
84.2011
84.3786
115.43
112.019
107.824
104.273
101.816
100.257
98.9633
97.6254
96.2222
94.7898
93.3854
92.0318
90.7295
89.4717
88.2479
87.0638
85.9428
84.9403
84.2873
84.4803
115.515
112.021
107.784
104.245
101.815
100.263
98.9617
97.6196
96.2169
94.7884
93.386
92.0358
90.7346
89.482
88.2628
87.0896
85.978
84.9976
84.3488
84.5767
115.644
112.022
107.723
104.204
101.815
100.27
98.9588
97.6107
96.2088
94.7852
93.3863
92.039
90.7403
89.4911
88.2789
87.1143
86.0149
85.0511
84.4104
84.6785
115.818
112.022
107.639
104.15
101.816
100.279
98.9543
97.5989
96.1981
94.7806
93.386
92.0423
90.7459
89.5006
88.2949
87.1394
86.0522
85.1021
84.4735
84.7547
116.037
112.018
107.534
104.085
101.818
100.289
98.9481
97.5841
96.1849
94.7745
93.3852
92.0452
90.7513
89.5104
88.3107
87.1653
86.0887
85.1538
84.5302
84.8175
116.304
112.009
107.406
104.008
101.822
100.298
98.9398
97.5666
96.1695
94.7668
93.3838
92.0475
90.7569
89.5198
88.3269
87.1912
86.1259
85.2053
84.5819
84.8683
116.621
111.989
107.257
103.923
101.828
100.307
98.929
97.5466
96.1524
94.7576
93.3818
92.0493
90.7625
89.5292
88.343
87.2171
86.1638
85.2569
84.6304
84.9046
116.99
111.953
107.088
103.835
101.833
100.313
98.9153
97.5241
96.1339
94.747
93.379
92.0501
90.7681
89.5381
88.3594
87.2427
86.2027
85.309
84.6788
84.9231
117.415
111.892
106.899
103.75
101.835
100.314
98.898
97.4997
96.1141
94.7351
93.3753
92.0501
90.7736
89.5463
88.3758
87.2676
86.2427
85.3617
84.7302
84.9207
117.897
111.801
106.691
103.669
101.833
100.31
98.8769
97.4735
96.0934
94.722
93.3704
92.0491
90.7787
89.5537
88.3921
87.2915
86.2836
85.4149
84.7881
84.8961
118.441
111.677
106.464
103.592
101.827
100.3
98.8518
97.4459
96.0718
94.7078
93.3644
92.0472
90.7832
89.5603
88.4079
87.3137
86.3252
85.4668
84.8545
84.8498
119.046
111.516
106.219
103.52
101.814
100.282
98.8228
97.4171
96.0495
94.6927
93.3573
92.0447
90.7868
89.566
88.4225
87.3341
86.3653
85.5156
84.9248
84.7948
119.712
111.318
105.959
103.449
101.793
100.255
98.7909
97.3881
96.0275
94.6776
93.35
92.0419
90.7896
89.5711
88.435
87.3524
86.4005
85.5596
84.9894
84.7432
120.434
111.078
105.692
103.375
101.761
100.221
98.7584
97.3611
96.0075
94.664
93.3435
92.0396
90.7919
89.5758
88.4456
87.3683
86.4295
85.5965
85.0409
84.7109
121.201
110.793
105.423
103.297
101.72
100.185
98.7299
97.3395
95.9924
94.6542
93.3394
92.0387
90.7944
89.5801
88.4541
87.3812
86.4511
85.6255
85.0738
84.6888
122.017
110.467
105.166
103.218
101.679
100.156
98.7111
97.3263
95.9837
94.6491
93.3378
92.0391
90.7968
89.5838
88.4603
87.3905
86.4654
85.6458
85.0905
84.6802
122.984
110.133
104.951
103.155
101.65
100.141
98.7028
97.3209
95.9804
94.6474
93.3377
92.04
90.7985
89.5862
88.464
87.3961
86.4734
85.6576
85.0981
84.6834
124.383
109.881
104.81
103.117
101.637
100.137
98.701
97.3195
95.9795
94.6471
93.3379
92.0406
90.7992
89.5873
88.4654
87.3984
86.4764
85.6622
85.0998
84.6999
126.273
109.833
104.77
103.108
101.633
100.136
98.7008
97.3194
95.9794
94.6471
93.338
92.0408
90.7993
89.5874
88.4656
87.3986
86.4767
85.6627
85.099
84.7454
77.7389
77.9361
77.6733
77.0468
76.1654
75.0346
73.6898
72.1917
70.7981
69.5596
68.5252
67.7794
67.2826
66.9005
66.5702
66.2611
65.8814
65.469
65.1142
64.9781
65.1452
65.5588
66.1971
67.0099
67.9874
69.1334
70.4068
71.7478
73.0849
74.3702
75.5721
76.6566
77.6192
78.4684
79.2038
79.82
80.3726
80.9039
81.4287
81.9423
82.4095
82.8096
83.1524
83.4569
83.7505
84.0778
84.4981
84.9861
85.4246
85.796
86.1454
86.4656
86.7232
86.8995
87.0289
87.1584
87.2959
87.4292
87.5627
87.7108
87.8597
87.9926
88.1042
88.2045
88.3008
88.3873
88.4516
88.4911
88.5101
88.5036
88.4727
88.422
88.3573
88.2858
88.2134
88.1482
88.0949
88.059
88.045
88.0568
88.1015
88.1848
88.3055
88.4533
88.6202
88.7894
88.9409
89.0635
89.1499
89.2101
89.255
89.2756
89.2885
89.2994
89.3074
89.3089
89.3163
89.334
89.3636
89.4041
89.4666
89.5593
89.685
89.8403
90.0362
90.2804
90.5767
90.9209
91.3199
91.7654
92.2463
92.7466
93.262
93.7778
94.2789
94.7465
95.1757
95.558
95.888
96.1587
96.3723
96.5324
96.6476
96.7247
96.7719
96.793
96.7936
96.7766
96.7463
96.7048
96.6548
96.5977
96.5335
96.4622
96.3835
96.2989
96.2094
96.1174
96.0231
95.9285
95.8326
95.7374
95.6409
95.5454
95.4483
95.3524
95.2547
95.158
95.0593
94.9614
94.8613
94.7618
94.6597
94.5581
94.4536
94.3491
94.2416
94.1334
94.0222
93.9094
93.7936
93.675
93.5534
93.4278
93.2988
93.1645
93.0265
92.8815
92.7322
92.5743
92.411
92.2376
92.0571
91.8651
91.6637
91.4498
91.2235
90.9839
90.7288
90.4587
90.1702
89.864
89.5362
89.1859
88.8092
88.4017
87.9574
87.4692
86.9269
86.3115
85.6073
84.7833
83.7839
82.554
80.9154
78.8223
75.6637
70.6947
64.5228
37.473
78.4817
78.3006
78.0498
77.5071
76.6894
75.6292
74.3813
72.9922
71.6817
70.537
69.5718
68.8543
68.3557
67.9761
67.6457
67.3342
66.975
66.5895
66.2478
66.0848
66.2042
66.575
67.182
67.9735
68.9233
70.026
71.2385
72.5073
73.775
74.9971
76.1511
77.2083
78.1545
78.9923
79.7183
80.3162
80.8484
81.3588
81.8527
82.3378
82.7886
83.1758
83.5051
83.793
84.0616
84.3502
84.7369
85.2133
85.6536
86.0138
86.3328
86.618
86.8421
86.9861
87.078
87.1607
87.2431
87.3199
87.3959
87.4875
87.5861
87.6777
87.7534
87.823
87.8957
87.9671
88.0247
88.0663
88.0933
88.0983
88.0819
88.0471
87.9978
87.941
87.8817
87.8288
87.7868
87.7623
87.76
87.785
87.8446
87.9442
88.0826
88.2511
88.4412
88.6342
88.8077
88.9491
89.0515
89.1255
89.1789
89.2051
89.2235
89.2367
89.2447
89.2441
89.251
89.2667
89.294
89.3318
89.3935
89.484
89.6103
89.7661
89.9644
90.2113
90.5133
90.8622
91.2687
91.7206
92.2099
92.7172
93.2417
93.7646
94.275
94.75
95.1878
95.5761
95.9129
96.1871
96.4041
96.5638
96.679
96.7534
96.7989
96.8164
96.815
96.7945
96.7624
96.7175
96.6662
96.6062
96.541
96.4669
96.3875
96.3007
96.2109
96.1168
96.0223
95.9256
95.8295
95.732
95.6354
95.5375
95.4404
95.3418
95.2441
95.1445
95.0457
94.9448
94.8444
94.7416
94.6392
94.5339
94.4288
94.3205
94.2119
94.0998
93.9869
93.8702
93.7518
93.6293
93.5043
93.3747
93.2412
93.1028
92.959
92.8097
92.6534
92.4904
92.3188
92.1393
91.949
91.7494
91.5366
91.3127
91.0733
90.8202
90.55
90.2623
89.9556
89.6275
89.2773
88.8996
88.4935
88.0518
87.5689
87.0345
86.4361
85.7573
84.9683
84.0465
82.9091
81.5288
79.6414
77.1777
73.7895
67.2334
60.9052
30.4168
79.1809
78.825
78.4387
77.8862
77.1075
76.1057
74.9385
73.6577
72.4324
71.3655
70.4716
69.7915
69.298
68.917
68.5847
68.2739
67.9415
67.5982
67.2963
67.1339
67.2304
67.5783
68.1609
68.9327
69.8526
70.9072
72.0543
73.2505
74.4487
75.6092
76.7154
77.74
78.6646
79.4892
80.208
80.7945
81.3092
81.8065
82.2815
82.7375
83.1631
83.5324
83.8488
84.1235
84.3739
84.63
84.9788
85.4368
85.8764
86.23
86.5263
86.7807
86.9744
87.0908
87.1506
87.1891
87.2187
87.2387
87.257
87.292
87.342
87.3937
87.4364
87.4788
87.5307
87.5882
87.6415
87.6866
87.7222
87.739
87.7372
87.7189
87.6854
87.6432
87.598
87.558
87.5279
87.5149
87.525
87.5642
87.6395
87.7559
87.9122
88.101
88.3141
88.5301
88.7241
88.8835
89.0011
89.0876
89.1483
89.1799
89.2038
89.2182
89.2254
89.2221
89.2279
89.2399
89.2637
89.2977
89.3578
89.4448
89.5708
89.725
89.9249
90.1727
90.4793
90.8311
91.2443
91.6998
92.1962
92.7076
93.2391
93.7652
94.2827
94.7612
95.2061
95.5971
95.9398
96.215
96.4351
96.5926
96.7082
96.7786
96.8232
96.8363
96.834
96.8092
96.7764
96.728
96.6762
96.6133
96.5474
96.4708
96.3908
96.3019
96.2116
96.1157
96.0208
95.9224
95.8258
95.7267
95.6293
95.5299
95.4316
95.3318
95.2325
95.1319
95.0311
94.9293
94.8265
94.7228
94.6175
94.5113
94.4029
94.2936
94.1812
94.0679
93.9508
93.8325
93.7096
93.585
93.455
93.3226
93.1839
93.0417
92.8925
92.7381
92.576
92.4065
92.2286
92.0408
91.8432
91.6334
91.4118
91.1753
90.9247
90.6568
90.3718
90.0667
89.7406
89.3919
89.0166
88.6134
88.1759
87.701
87.1781
86.5986
85.9431
85.2002
84.3298
83.3175
82.0341
80.4793
78.4098
75.432
72.2049
63.7926
57.4691
28.8038
79.7174
79.326
78.8672
78.2322
77.4435
76.4991
75.4292
74.2696
73.1401
72.1482
71.3185
70.667
70.171
69.7846
69.4546
69.1502
68.8407
68.5453
68.3018
68.1713
68.2644
68.5954
69.1455
69.8878
70.7726
71.7751
72.855
73.9778
75.1059
76.2055
77.2612
78.2476
79.1457
79.9542
80.6676
81.252
81.7551
82.2412
82.7021
83.1335
83.5292
83.8771
84.1813
84.4486
84.6878
84.9197
85.2301
85.659
86.0916
86.4408
86.7229
86.9526
87.1203
87.213
87.2443
87.2395
87.2177
87.1835
87.1462
87.1274
87.1309
87.1445
87.1572
87.1762
87.2092
87.2552
87.3057
87.3566
87.4018
87.4312
87.4451
87.4432
87.4263
87.3987
87.3677
87.3407
87.3227
87.3209
87.3434
87.3972
87.4887
87.6224
87.7963
88.0058
88.2411
88.478
88.6912
88.8667
88.9984
89.0958
89.1627
89.1995
89.2288
89.243
89.2494
89.2428
89.2472
89.2539
89.2741
89.3034
89.3609
89.4429
89.5671
89.7177
89.9181
90.1646
90.4744
90.827
91.2455
91.7022
92.2044
92.7173
93.254
93.7796
94.302
94.7803
95.2308
95.6213
95.9689
96.2421
96.4655
96.6186
96.7355
96.8001
96.8454
96.8524
96.851
96.8207
96.7891
96.7358
96.6855
96.6182
96.5537
96.4728
96.3941
96.3015
96.2126
96.1135
96.0196
95.9184
95.8225
95.7208
95.6237
95.5218
95.4237
95.3214
95.2219
95.1188
95.0176
94.913
94.8098
94.7031
94.5971
94.4878
94.3785
94.2656
94.1522
94.035
93.9164
93.7939
93.6691
93.5399
93.4075
93.27
93.1284
92.9804
92.8274
92.6668
92.4998
92.3236
92.1391
91.944
91.7377
91.5197
91.2868
91.0406
90.776
90.4957
90.1937
89.8725
89.5262
89.156
88.7568
88.3257
87.8585
87.348
86.7849
86.1616
85.4443
84.6424
83.6842
82.5745
81.1924
79.3846
77.3584
73.5575
70.8707
60.6207
54.1934
29.8371
80.1382
79.7679
79.2651
78.5462
77.7282
76.8423
75.8821
74.8559
73.8376
72.9249
72.1479
71.5164
71.0218
70.6363
70.3129
70.0219
69.7416
69.4923
69.3065
69.2208
69.3235
69.6345
70.1384
70.836
71.6774
72.6224
73.6347
74.686
75.7464
76.7859
77.7891
78.7336
79.6008
80.3881
81.095
81.685
82.1858
82.6574
83.1011
83.5113
83.8815
84.21
84.5034
84.7664
85.0025
85.2194
85.4926
85.884
86.3001
86.6461
86.9206
87.1344
87.2826
87.3533
87.3569
87.31
87.2376
87.1523
87.0648
86.9969
86.9578
86.9358
86.9215
86.919
86.9358
86.9723
87.0224
87.0801
87.1365
87.1805
87.2106
87.2262
87.2257
87.2131
87.1962
87.1813
87.1749
87.1839
87.2182
87.2863
87.3941
87.5451
87.737
87.9665
88.2223
88.4781
88.7087
88.8985
89.0427
89.1492
89.2215
89.2631
89.2971
89.3095
89.3147
89.3042
89.3075
89.3081
89.3248
89.3484
89.4032
89.4783
89.5995
89.7445
89.9445
90.1871
90.4986
90.8494
91.2717
91.7265
92.2336
92.7447
93.2852
93.8068
94.3323
94.8067
95.2617
95.648
96.0001
96.268
96.4948
96.6408
96.7607
96.8171
96.8653
96.864
96.8661
96.8278
96.8006
96.7396
96.6946
96.6193
96.56
96.4711
96.3979
96.2975
96.2144
96.1077
96.0197
95.911
95.8207
95.7116
95.6198
95.5108
95.4172
95.3083
95.2128
95.1034
95.0054
94.8951
94.7941
94.6822
94.5776
94.4635
94.3546
94.2373
94.1234
94.0021
93.8822
93.7557
93.6286
93.4955
93.3599
93.2185
93.0726
92.9206
92.7623
92.5972
92.4237
92.2422
92.0501
91.8484
91.6334
91.4067
91.1638
90.906
90.6296
90.3344
90.0177
89.6779
89.3131
88.9212
88.4966
88.0408
87.5387
86.9988
86.3894
85.7238
84.9504
84.0838
83.0698
81.784
80.4237
78.1607
76.4924
71.5463
69.6818
57.9186
50.8748
30.995
80.5887
80.2109
79.5945
78.7972
77.9621
77.1376
76.2942
75.4117
74.5202
73.69
72.9633
72.3595
71.8774
71.4988
71.1863
70.915
70.6692
70.461
70.3244
70.2779
70.3902
70.684
71.1429
71.7838
72.5654
73.4443
74.3891
75.3744
76.3732
77.3558
78.3068
79.2077
80.041
80.8021
81.4925
82.0859
82.5883
83.0432
83.4665
83.8595
84.2127
84.5295
84.8163
85.0773
85.3185
85.5298
85.7681
86.1171
86.5105
86.8515
87.1237
87.3294
87.4621
87.5121
87.4851
87.3965
87.2759
87.1458
87.0156
86.9047
86.8267
86.7726
86.7331
86.712
86.7151
86.7443
86.7953
86.8615
86.9313
86.9909
87.0388
87.0719
87.0879
87.091
87.0877
87.0836
87.0878
87.1064
87.1519
87.2335
87.3569
87.525
87.7349
87.9833
88.2572
88.5296
88.7754
88.9776
89.1327
89.2466
89.3234
89.3686
89.4065
89.4157
89.4195
89.4044
89.4073
89.4009
89.4147
89.4314
89.4837
89.5513
89.6688
89.8064
90.0044
90.2404
90.5521
90.8986
91.3223
91.7724
92.2824
92.7888
93.3313
93.846
94.3727
94.84
95.2979
95.677
96.0322
96.2919
96.5219
96.6587
96.7822
96.8288
96.8814
96.8702
96.8778
96.8296
96.8093
96.7384
96.7013
96.6157
96.5646
96.4647
96.4005
96.2888
96.2155
96.0974
96.0196
95.8993
95.8191
95.6986
95.6164
95.4962
95.4118
95.2921
95.2049
95.0854
94.9946
94.8749
94.78
94.6595
94.5596
94.4376
94.3323
94.2078
94.0962
93.9682
93.8495
93.7166
93.5898
93.4504
93.3142
93.1663
93.0191
92.8602
92.6997
92.5271
92.3504
92.1607
91.9641
91.753
91.5319
91.2944
91.0428
90.7728
90.4842
90.1751
89.8419
89.4857
89.0995
88.6861
88.2364
87.7534
87.2222
86.6425
86.0019
85.2639
84.4805
83.477
82.5076
80.9024
79.8066
76.7778
75.7763
69.4681
68.2682
55.7155
47.3722
31.2964
81.1561
80.7078
79.8817
78.981
78.1373
77.3786
76.6609
75.928
75.1722
74.4347
73.7669
73.2032
72.7416
72.3739
72.0772
71.8303
71.6188
71.4473
71.3475
71.3335
71.453
71.7314
72.1543
72.7349
73.4475
74.2538
75.1319
76.0568
76.9976
77.9235
78.8211
79.6737
80.4692
81.2011
81.8664
82.4475
82.9448
83.3835
83.7888
84.1705
84.5158
84.8294
85.1172
85.3797
85.6346
85.849
86.0574
86.3648
86.7326
87.064
87.3345
87.5366
87.6546
87.6805
87.6213
87.4943
87.3326
87.1652
86.9992
86.8509
86.7389
86.6564
86.5955
86.5585
86.5504
86.5752
86.6286
86.7046
86.7886
86.8656
86.9318
86.9832
87.0164
87.0355
87.0449
87.0509
87.0633
87.0904
87.146
87.2402
87.3783
87.5623
87.7896
88.0552
88.3446
88.6309
88.89
89.1024
89.2668
89.3859
89.4666
89.5141
89.5549
89.5593
89.5615
89.5412
89.5429
89.5291
89.5407
89.5508
89.6006
89.6603
89.7739
89.9034
90.098
90.3251
90.6349
90.9749
91.3971
91.8397
92.3498
92.8487
93.3911
93.8963
94.4221
94.8796
95.3386
95.7076
96.0644
96.3132
96.546
96.6716
96.7993
96.8343
96.8926
96.8697
96.8846
96.8247
96.8135
96.7305
96.7041
96.6049
96.5656
96.4508
96.4
96.2725
96.2143
96.0794
96.018
95.8797
95.8169
95.6773
95.6134
95.4731
95.4073
95.2671
95.1988
95.0583
94.9862
94.8456
94.769
94.6279
94.5455
94.4033
94.3143
94.1703
94.0737
93.9272
93.8218
93.6713
93.5558
93.3999
93.2728
93.1097
92.9694
92.7962
92.6406
92.4543
92.2805
92.0773
91.8812
91.6565
91.4335
91.1813
90.9253
90.6381
90.3434
90.013
89.6718
89.2878
88.8925
88.4418
87.9863
87.4513
86.9224
86.2635
85.6404
84.7597
84.0658
82.7674
82.024
79.8235
79.2686
75.219
74.9967
67.4772
66.3943
53.9007
43.6838
30.9531
81.7636
81.2443
80.1587
79.1048
78.2464
77.5683
76.982
76.3966
75.776
75.1442
74.5491
74.0319
73.5971
73.2461
72.9693
72.7495
72.5688
72.4301
72.36
72.3746
72.5007
72.7637
73.1565
73.6837
74.3312
75.0681
75.8784
76.7391
77.6189
78.4874
79.3308
80.1328
80.884
81.5797
82.2105
82.7662
83.2471
83.6707
84.0607
84.4368
84.7843
85.1023
85.3967
85.6692
85.9459
86.1724
86.3571
86.6289
86.9691
87.2839
87.5494
87.747
87.8487
87.8491
87.7589
87.5992
87.4065
87.2099
87.013
86.8337
86.6934
86.5877
86.5095
86.4597
86.445
86.4679
86.5251
86.612
86.7115
86.807
86.8923
86.9615
87.0116
87.0463
87.0685
87.0838
87.1033
87.1374
87.2017
87.3072
87.4583
87.6569
87.9001
88.1807
88.4826
88.7801
89.0503
89.271
89.4429
89.5651
89.6493
89.6972
89.7395
89.7381
89.7379
89.7121
89.7116
89.6903
89.6994
89.7032
89.7506
89.8029
89.9124
90.034
90.2245
90.441
90.747
91.0779
91.4963
91.9282
92.4356
92.9237
93.4639
93.957
94.48
94.9252
95.383
95.7394
96.096
96.3316
96.5661
96.679
96.8106
96.8332
96.8974
96.862
96.8848
96.8122
96.8111
96.7145
96.7001
96.5853
96.5596
96.4274
96.3923
96.2461
96.2059
96.0506
96.0091
95.8487
95.8077
95.6441
95.604
95.4375
95.3976
95.2292
95.1887
95.018
94.9752
94.8027
94.7565
94.5823
94.5308
94.355
94.2971
94.1192
94.0531
93.8731
93.7971
93.6139
93.5261
93.3381
93.2371
93.0425
92.9261
92.7224
92.5882
92.3722
92.2176
91.9848
91.8059
91.551
91.3436
91.059
90.8175
90.4937
90.2133
89.8387
89.5136
89.0733
88.6996
88.1726
87.7554
87.1065
86.6502
85.8104
85.3258
84.1455
83.73
81.8988
81.618
78.5951
78.6755
73.5963
73.9658
65.6572
63.6206
52.2993
40.4824
30.6072
82.4467
81.8338
80.4305
79.2023
78.3252
77.7257
77.2613
76.8118
76.3233
75.8065
75.2939
74.8269
74.4246
74.0957
73.8393
73.6446
73.4938
73.3864
73.3432
73.3834
73.5172
73.766
74.1323
74.6152
75.209
75.887
76.6297
77.4191
78.2335
79.0446
79.8346
80.5858
81.2865
81.9342
82.5202
83.0376
83.4927
83.9008
84.2797
84.6514
85.0095
85.3406
85.646
85.9338
86.2371
86.4854
86.6565
86.9018
87.2142
87.5057
87.7604
87.9492
88.0351
88.0146
87.8987
87.7133
87.4967
87.277
87.0547
86.8508
86.6888
86.5654
86.4741
86.4168
86.4003
86.4248
86.4876
86.586
86.7023
86.8162
86.9203
87.0069
87.0734
87.1229
87.1573
87.1814
87.2075
87.2477
87.3192
87.4342
87.5965
87.8078
88.0645
88.3572
88.6684
88.9746
89.2539
89.4805
89.658
89.7815
89.869
89.9143
89.9564
89.9494
89.9459
89.9151
89.911
89.8824
89.8878
89.8856
89.9292
89.9739
90.0807
90.1943
90.3816
90.586
90.8868
91.2061
91.6188
92.0373
92.5389
93.0131
93.5487
94.027
94.5451
94.9759
95.43
95.7717
96.1258
96.3465
96.581
96.6805
96.8151
96.8251
96.8945
96.8465
96.877
96.7914
96.8004
96.6896
96.6871
96.556
96.5439
96.3935
96.3741
96.2083
96.1861
96.0095
95.9882
95.8046
95.786
95.5968
95.5817
95.3869
95.3747
95.1752
95.1656
94.9605
94.952
94.7417
94.7336
94.5175
94.5077
94.2864
94.2733
94.0467
94.0278
93.7964
93.7702
93.5328
93.4968
93.2525
93.2041
92.9519
92.8879
92.6255
92.5432
92.267
92.1642
91.8693
91.742
91.4217
91.267
90.9114
90.7245
90.3206
90.0999
89.6306
89.3752
88.816
88.5322
87.8468
87.5574
86.6852
86.4149
85.2527
85.038
83.3961
83.3484
80.8655
81.0389
77.243
77.8672
72.0323
72.3763
64.1787
59.702
50.6955
38.7651
31.0173
83.0091
82.3406
80.7255
79.3601
78.4381
77.8771
77.5077
77.1822
76.8221
76.4185
75.9901
75.5765
75.2108
74.9064
74.6699
74.4972
74.3733
74.2955
74.2784
74.34
74.4835
74.7255
75.0703
75.5175
76.0671
76.6952
77.375
78.0932
78.8394
79.5899
80.3252
81.0256
81.673
82.2655
82.797
83.2654
83.6845
84.0707
84.4417
84.8108
85.1832
85.536
85.8572
86.1638
86.4929
86.7726
86.9428
87.1708
87.4591
87.7247
87.9618
88.1394
88.2112
88.1745
88.0421
87.8384
87.6023
87.3654
87.1241
86.9014
86.7233
86.5875
86.4889
86.4304
86.4177
86.4473
86.5181
86.6288
86.7612
86.8935
87.0154
87.1184
87.2001
87.2635
87.3092
87.3415
87.3739
87.4196
87.4972
87.6194
87.7907
88.0124
88.2797
88.5813
88.8986
89.211
89.4972
89.7276
89.9093
90.0316
90.1212
90.162
90.202
90.1891
90.1819
90.147
90.1373
90.1018
90.1021
90.0921
90.1321
90.1672
90.2722
90.3787
90.5645
90.7573
91.0516
91.3574
91.7622
92.1652
92.6576
93.1154
93.6431
94.1046
94.6153
95.0298
95.4772
95.8026
96.1514
96.3561
96.5886
96.6745
96.8106
96.8083
96.8818
96.8214
96.8586
96.7606
96.7785
96.6541
96.6619
96.5151
96.5149
96.3474
96.3418
96.1577
96.1512
95.9549
95.9514
95.7458
95.7473
95.5339
95.5415
95.3194
95.3329
95.1028
95.1226
94.8828
94.9078
94.6585
94.6889
94.4282
94.4628
94.1907
94.2289
93.944
93.9839
93.6861
93.7258
93.4145
93.4506
93.1263
93.1562
92.818
92.8392
92.4832
92.4924
92.1156
92.1093
91.7071
91.6809
91.2456
91.1963
90.7159
90.6392
90.0975
89.9943
89.3686
89.2425
88.4988
88.3653
87.4493
87.3448
86.1741
86.1386
84.587
84.6662
82.5261
82.8124
79.7447
80.2896
75.9529
76.6681
70.7695
69.6454
62.7461
56.0363
49.3088
38.4873
32.1483
83.4604
82.7939
81.052
79.5691
78.5827
78.032
77.7361
77.5204
77.2763
76.9752
76.6291
76.2732
75.9467
75.6681
75.4511
75.2964
75.1955
75.1447
75.1523
75.2322
75.3875
75.6295
75.9603
76.3797
76.8902
77.4732
78.0996
78.7538
79.433
80.1209
80.799
81.4451
82.0375
82.5699
83.0403
83.4549
83.8319
84.1893
84.5487
84.9162
85.3031
85.6829
86.0262
86.353
86.708
87.0263
87.2095
87.4294
87.6969
87.9367
88.1532
88.3184
88.3788
88.3287
88.1858
87.9727
87.7235
87.4741
87.2215
86.9875
86.7979
86.654
86.5543
86.5009
86.4968
86.5359
86.6172
86.741
86.8892
87.0393
87.1774
87.2946
87.39
87.4656
87.5211
87.5606
87.5987
87.6498
87.7325
87.8599
88.0376
88.267
88.5419
88.8484
89.1692
89.4853
89.7761
90.0074
90.1926
90.3109
90.4008
90.4354
90.4714
90.4529
90.4409
90.402
90.3863
90.3425
90.339
90.3196
90.3562
90.3815
90.4824
90.583
90.7671
90.9512
91.2378
91.5292
91.9234
92.3098
92.7897
93.2293
93.7451
94.1881
94.6885
95.085
95.5226
95.8299
96.1708
96.3585
96.587
96.6589
96.7953
96.7804
96.8571
96.7845
96.8275
96.7172
96.7429
96.605
96.6217
96.4597
96.4694
96.286
96.2916
96.0912
96.0971
95.8838
95.894
95.6699
95.6867
95.4529
95.478
95.233
95.2663
95.0105
95.053
94.7838
94.8354
94.5525
94.6137
94.3141
94.3846
94.0679
94.148
93.8111
93.9004
93.5419
93.6401
93.2577
93.3645
92.9562
93.0712
92.6325
92.7536
92.282
92.4053
91.8988
92.0205
91.475
91.5888
90.9973
91.0987
90.4482
90.5299
89.8032
89.8637
89.0365
89.0765
88.1059
88.1411
86.9643
87.0293
85.5468
85.7074
83.7838
84.1057
81.5592
82.062
78.7051
79.2453
75.08
74.7225
69.7231
66.3219
60.942
53.8181
48.8183
39.3895
33.5735
83.8262
83.1845
81.3741
79.8083
78.7685
78.2129
77.9655
77.8326
77.685
77.4772
77.213
76.9184
76.6321
76.3796
76.1804
76.0409
75.9597
75.9321
75.9621
76.0585
76.2256
76.4697
76.7916
77.1898
77.6651
78.2074
78.7901
79.3929
80.0128
80.6402
81.2586
81.8445
82.3772
82.8465
83.2529
83.6111
83.9432
84.2702
84.6107
84.9742
85.3735
85.7823
86.152
86.4976
86.8804
87.2417
87.4562
87.675
87.9259
88.1408
88.3368
88.4889
88.5425
88.4839
88.332
88.1127
87.858
87.6029
87.3474
87.1102
86.913
86.7663
86.6704
86.6273
86.6368
86.6898
86.785
86.9231
87.0862
87.2522
87.4044
87.5335
87.6402
87.7263
87.79
87.8354
87.8781
87.934
88.0205
88.151
88.3327
88.5669
88.8458
89.1537
89.4754
89.7928
90.086
90.3153
90.5031
90.6137
90.7014
90.7292
90.7578
90.734
90.7175
90.6717
90.652
90.6003
90.5948
90.5674
90.6
90.6158
90.7099
90.8033
90.9839
91.1602
91.4395
91.7171
92.0995
92.4679
92.9323
93.3524
93.8526
94.2756
94.7624
95.1396
95.564
95.8523
96.1821
96.3528
96.5749
96.6334
96.7676
96.7411
96.8189
96.7352
96.7818
96.6606
96.691
96.5417
96.5638
96.3892
96.4043
96.2087
96.2201
96.0077
96.0203
95.7946
95.8123
95.5745
95.6
95.3514
95.3862
95.1246
95.1693
94.8953
94.9505
94.6607
94.7275
94.4215
94.5001
94.1739
94.2651
93.9178
94.0221
93.6493
93.7677
93.3667
93.5002
93.0664
93.2169
92.7458
92.9145
92.3987
92.5873
92.0221
92.2311
91.6097
91.8407
91.1524
91.4036
90.6388
90.9096
90.0494
90.3346
89.364
89.6509
88.5512
88.8306
87.5674
87.8296
86.3604
86.6031
84.8733
85.1448
83.0656
83.3878
80.8338
81.066
78.03
77.6776
74.2752
72.139
68.2022
63.6814
59.3745
52.8667
49.2345
40.9476
34.9866
84.1243
83.5163
81.686
80.072
78.988
78.4116
78.1876
78.1185
78.0563
77.9361
77.7498
77.516
77.2691
77.0425
76.8613
76.7358
76.6708
76.6627
76.7119
76.8228
77.0004
77.2459
77.5603
77.941
78.3867
78.8939
79.4393
80.0009
80.5724
81.1438
81.7009
82.2229
82.6924
83.0976
83.4406
83.7416
84.0267
84.3196
84.6379
84.9939
85.4006
85.8348
86.2362
86.6009
87.0089
87.4162
87.6782
87.9043
88.1483
88.3407
88.5183
88.6588
88.7078
88.6459
88.4874
88.2593
88.0042
87.7517
87.5032
87.2689
87.0694
86.9249
86.8373
86.809
86.8364
86.9075
87.0196
87.1728
87.3504
87.5301
87.694
87.8324
87.9484
88.0427
88.1124
88.162
88.208
88.2674
88.3558
88.4874
88.6702
88.9063
89.1857
89.4918
89.8121
90.1279
90.4219
90.6456
90.8362
90.9343
91.016
91.036
91.0538
91.0245
91.004
90.9491
90.928
90.8699
90.8665
90.8319
90.8607
90.8663
90.9532
91.0361
91.2119
91.3788
91.6512
91.9157
92.2869
92.6361
93.0837
93.4819
93.9636
94.3651
94.8359
95.1918
95.6009
95.8684
96.1851
96.3381
96.5524
96.5974
96.7279
96.6897
96.7671
96.673
96.7216
96.5901
96.6229
96.4632
96.4876
96.3027
96.3195
96.1145
96.1274
95.9061
95.9205
95.686
95.7054
95.4581
95.4861
95.2275
95.2647
94.9921
95.04
94.7544
94.813
94.5101
94.5815
94.2613
94.3451
94.0029
94.1007
93.7356
93.8475
93.4544
93.5822
93.158
93.3026
92.8416
93.0057
92.5023
92.6869
92.1325
92.3412
91.7284
91.963
91.2812
91.5448
90.7789
91.0735
90.2125
90.5372
89.5631
89.9177
88.8178
89.1971
87.9399
88.3312
86.8985
87.2708
85.6448
85.9634
84.1385
84.3818
82.3417
82.4349
80.1117
79.7542
77.1667
75.782
72.8611
69.9088
66.4966
62.0588
58.8447
53.0126
50.229
42.6072
36.2398
84.3767
83.8052
81.9795
80.3358
79.2185
78.6221
78.4142
78.3964
78.4062
78.362
78.2446
78.0681
77.8612
77.6618
77.4983
77.3868
77.3347
77.3421
77.4071
77.5305
77.7164
77.9628
78.2702
78.6356
79.0566
79.5326
80.044
80.5706
81.0999
81.621
82.1192
82.5772
82.983
83.3246
83.6056
83.8507
84.0885
84.3435
84.6374
84.9838
85.3931
85.8439
86.2796
86.6704
87.0997
87.55
87.8657
88.1148
88.3614
88.5381
88.6993
88.8323
88.8775
88.8118
88.6504
88.4169
88.1617
87.9197
87.6883
87.4629
87.2673
87.131
87.0558
87.0455
87.0945
87.187
87.3183
87.4873
87.6781
87.8691
88.0418
88.1875
88.3108
88.4112
88.4845
88.5364
88.5839
88.6445
88.7327
88.8631
89.0446
89.2793
89.5558
89.857
90.1741
90.4848
90.7788
90.9918
91.186
91.2655
91.3386
91.3483
91.3516
91.3156
91.2942
91.2268
91.2092
91.1448
91.1464
91.1038
91.1332
91.1272
91.2103
91.2793
91.45
91.6025
91.8686
92.1192
92.4809
92.8105
93.2414
93.6147
94.0766
94.455
94.9079
95.2402
95.6327
95.8772
96.1798
96.3145
96.5204
96.5514
96.6769
96.6268
96.7028
96.5987
96.6481
96.5067
96.5395
96.3707
96.3944
96.2013
96.2163
96.0042
96.0145
95.787
95.7993
95.5584
95.575
95.3214
95.3467
95.0817
95.1148
94.8363
94.8809
94.5885
94.6424
94.3328
94.4004
94.0728
94.1516
93.802
93.8951
93.5218
93.628
93.2266
93.3484
92.9155
93.0525
92.5831
92.738
92.2264
92.3987
91.8381
92.0306
91.4134
91.6262
90.9423
91.1767
90.4114
90.6696
89.81
90.091
89.1165
89.422
88.3165
88.6333
87.3665
87.6785
86.2389
86.5088
84.889
85.0824
83.2682
83.3396
81.2982
81.1226
78.8032
78.0768
75.488
73.7164
70.9113
68.0992
65.1971
61.3767
59.2265
53.9386
51.3495
44.078
37.3721
84.5976
84.0591
82.2497
80.5951
79.4632
78.8547
78.6548
78.671
78.7361
78.7555
78.7019
78.5813
78.416
78.2446
78.0984
77.999
77.9569
77.9764
78.0546
78.1888
78.3807
78.6273
78.9281
79.2794
79.6788
80.125
80.6041
81.0982
81.5886
82.0633
82.507
82.9041
83.2465
83.525
83.7463
83.9379
84.1296
84.3467
84.6157
84.951
85.3588
85.8199
86.2867
86.7113
87.1604
87.6447
88.016
88.3
88.5589
88.732
88.8773
89.0066
89.0507
88.9785
88.8137
88.5815
88.3325
88.1083
87.8997
87.6912
87.5086
87.3854
87.3257
87.336
87.4084
87.5248
87.6767
87.8617
88.0648
88.2646
88.4433
88.5944
88.7231
88.8264
88.9014
88.9539
89.0012
89.0605
89.1453
89.2723
89.4499
89.68
89.9502
90.2431
90.556
90.8565
91.1519
91.3474
91.5478
91.6001
91.6634
91.6581
91.6459
91.5991
91.5845