/*--------------------------------*- C++ -*----------------------------------*\
| =========                 |                                                 |
| \\      /  F ield         | OpenFOAM: The Open Source CFD Toolbox           |
|  \\    /   O peration     | Version:  2.4.0                                 |
|   \\  /    A nd           | Web:      www.OpenFOAM.org                      |
|    \\/     M anipulation  |                                                 |
\*---------------------------------------------------------------------------*/
FoamFile
{
    version     2.0;
    format      ascii;
    class       volScalarField;
    location    "0.141954";
    object      epsilon;
}
// * * * * * * * * * * * * * * * * * * * * * * * * * * * * * * * * * * * * * //

dimensions      [0 2 -3 0 0 0 0];

internalField   nonuniform List<scalar> 
17600
(
265.084
385.346
484.501
552.103
589.309
603.051
601.301
590.762
576.223
560.728
545.995
532.852
521.566
512.081
504.169
497.539
491.866
486.912
482.078
478.894
36.8104
56.638
73.1914
86.8392
97.819
106.597
113.923
120.478
126.719
132.878
139.008
145.04
150.836
156.241
161.114
165.357
168.929
171.88
174.509
178.156
17.5427
21.148
24.3439
26.9257
28.8617
30.2286
31.2096
32.0179
32.8415
33.8229
35.0563
36.5932
38.4491
40.6111
43.0448
45.7019
48.5259
51.4779
54.5563
58.0264
14.6102
14.9319
15.4014
15.8283
16.1258
16.2643
16.2602
16.1558
16.0016
15.8464
15.7326
15.6947
15.7593
15.9457
16.2668
16.731
17.3417
18.1114
19.0398
20.3101
14.015
13.4585
13.0868
12.8098
12.5649
12.3139
12.0406
11.7439
11.4317
11.1154
10.8078
10.5209
10.2652
10.0497
9.88148
9.76652
9.70939
9.71788
9.79592
10.0007
13.8829
13.0682
12.3956
11.8315
11.3434
10.9042
10.4955
10.1065
9.73218
9.37139
9.0252
8.69585
8.386
8.09831
7.83518
7.59877
7.39083
7.21415
7.07041
6.97573
13.8529
12.9632
12.1837
11.5005
10.8976
10.3589
9.87053
9.42176
9.00498
8.61501
8.24859
7.90382
7.57966
7.27562
6.99153
6.72743
6.48336
6.25992
6.05736
5.88066
13.8461
12.9351
12.1197
11.3899
10.7357
10.1469
9.61357
9.12725
8.68079
8.26843
7.8857
7.52916
7.19621
6.88484
6.59356
6.32119
6.06682
5.82989
5.60986
5.40828
13.8445
12.9277
12.1008
11.3539
10.6786
10.0665
9.51014
9.00245
8.53734
8.10949
7.7144
7.34828
7.00802
6.69102
6.39516
6.11866
5.86006
5.6182
5.39208
5.18196
13.8441
12.9257
12.0952
11.3425
10.659
10.0371
9.46987
8.95123
8.47568
8.03837
7.63508
7.26209
6.91622
6.59474
6.29527
6.0158
5.75459
5.5102
5.28134
5.06777
13.844
12.9251
12.0935
11.3388
10.6524
10.0265
9.45465
8.93089
8.45005
8.0076
7.59949
7.22217
6.87254
6.54786
6.24572
5.96403
5.70095
5.4549
5.22449
5.0092
13.844
12.9249
12.0929
11.3376
10.6501
10.0227
9.44897
8.92298
8.43969
7.99468
7.58402
7.20428
6.8524
6.5257
6.2218
5.93859
5.67421
5.42704
5.19562
4.97935
13.844
12.9248
12.0927
11.3371
10.6492
10.0213
9.44678
8.91987
8.43552
7.98933
7.57744
7.19646
6.84337
6.51553
6.21059
5.92645
5.66125
5.41335
5.18131
4.96445
13.8439
12.9247
12.0925
11.3368
10.6487
10.0206
9.44585
8.91857
8.43378
7.98708
7.57463
7.19306
6.83938
6.51096
6.20545
5.92079
5.65513
5.40682
5.17441
4.95721
13.8439
12.9247
12.0924
11.3366
10.6485
10.0203
9.44536
8.91794
8.43296
7.98606
7.57337
7.19154
6.83758
6.50888
6.20311
5.91819
5.65229
5.40376
5.17116
4.95378
13.8439
12.9246
12.0923
11.3365
10.6483
10.02
9.44507
8.91757
8.43252
7.98552
7.57274
7.1908
6.83673
6.5079
6.20201
5.91697
5.65096
5.40234
5.16964
4.95218
13.8439
12.9246
12.0922
11.3364
10.6481
10.0199
9.44486
8.91733
8.43224
7.98521
7.57238
7.19039
6.83627
6.5074
6.20146
5.91637
5.65032
5.40165
5.16893
4.95143
13.8439
12.9246
12.0922
11.3363
10.648
10.0197
9.44471
8.91716
8.43206
7.985
7.57216
7.19015
6.83601
6.50712
6.20116
5.91606
5.64999
5.40131
5.16857
4.95107
13.8439
12.9246
12.0921
11.3362
10.648
10.0197
9.44462
8.91706
8.43194
7.98488
7.57202
7.19001
6.83586
6.50696
6.20099
5.91589
5.64982
5.40114
5.1684
4.95088
13.8439
12.9246
12.0921
11.3362
10.6479
10.0196
9.44457
8.91701
8.43188
7.98481
7.57196
7.18994
6.83579
6.50689
6.20092
5.91581
5.64974
5.40106
5.16832
4.9508
13.8439
12.9246
12.0921
11.3362
10.6479
10.0196
9.44457
8.91701
8.43188
7.98481
7.57196
7.18994
6.83579
6.50689
6.20092
5.91581
5.64974
5.40106
5.16832
4.95079
13.8439
12.9246
12.0921
11.3362
10.648
10.0197
9.44462
8.91706
8.43194
7.98488
7.57202
7.19001
6.83586
6.50696
6.20099
5.91589
5.64982
5.40114
5.16839
4.95086
13.8439
12.9246
12.0922
11.3363
10.648
10.0197
9.44471
8.91716
8.43206
7.985
7.57216
7.19015
6.83601
6.50712
6.20116
5.91606
5.65
5.40132
5.16857
4.95102
13.8439
12.9246
12.0922
11.3364
10.6481
10.0199
9.44486
8.91733
8.43224
7.98521
7.57238
7.19039
6.83627
6.50741
6.20146
5.91638
5.65033
5.40166
5.16892
4.95137
13.8439
12.9246
12.0923
11.3365
10.6483
10.02
9.44507
8.91757
8.43252
7.98552
7.57274
7.1908
6.83673
6.50791
6.20202
5.91698
5.65098
5.40235
5.16963
4.9521
13.8439
12.9247
12.0924
11.3366
10.6485
10.0203
9.44537
8.91794
8.43297
7.98606
7.57337
7.19154
6.83759
6.50889
6.20312
5.9182
5.6523
5.40377
5.17114
4.95367
13.8439
12.9247
12.0925
11.3368
10.6487
10.0206
9.44585
8.91857
8.43378
7.98708
7.57464
7.19306
6.83938
6.51096
6.20546
5.9208
5.65514
5.40683
5.17438
4.95707
13.844
12.9248
12.0927
11.3371
10.6492
10.0213
9.44678
8.91987
8.43552
7.98933
7.57745
7.19646
6.84338
6.51554
6.2106
5.92646
5.66126
5.41336
5.18127
4.96427
13.844
12.9249
12.0929
11.3376
10.6501
10.0227
9.44897
8.92298
8.43969
7.99468
7.58402
7.20428
6.8524
6.52571
6.22181
5.9386
5.67422
5.42703
5.19556
4.97908
13.844
12.9251
12.0935
11.3388
10.6524
10.0265
9.45465
8.93089
8.45005
8.0076
7.59949
7.22218
6.87255
6.54786
6.24572
5.96403
5.70095
5.45486
5.22435
5.00876
13.8441
12.9257
12.0952
11.3425
10.659
10.0371
9.46987
8.95123
8.47568
8.03837
7.63508
7.26209
6.91622
6.59473
6.29526
6.01578
5.75455
5.51008
5.28107
5.06694
13.8445
12.9277
12.1008
11.3539
10.6786
10.0665
9.51014
9.00245
8.53734
8.10949
7.7144
7.34828
7.00801
6.69101
6.39514
6.11861
5.85996
5.61793
5.39148
5.18025
13.8461
12.9351
12.1197
11.3899
10.7357
10.1469
9.61357
9.12725
8.68079
8.26843
7.8857
7.52916
7.19619
6.88481
6.59351
6.32108
6.06659
5.82929
5.60855
5.40437
13.8529
12.9632
12.1837
11.5005
10.8976
10.3589
9.87053
9.42176
9.00497
8.615
8.24859
7.9038
7.57962
7.27555
6.99141
6.72717
6.48287
6.25855
6.05432
5.87074
13.8829
13.0682
12.3956
11.8315
11.3434
10.9042
10.4955
10.1065
9.73217
9.37138
9.02518
8.69581
8.38592
8.09816
7.83491
7.59819
7.38968
7.21077
7.06269
6.94716
14.015
13.4585
13.0868
12.8098
12.5649
12.3139
12.0406
11.7439
11.4317
11.1154
10.8078
10.5208
10.265
10.0493
9.8808
9.76505
9.70643
9.70848
9.77418
9.9074
14.6102
14.9319
15.4014
15.8283
16.1258
16.2643
16.2602
16.1558
16.0016
15.8463
15.7324
15.6945
15.7588
15.9447
16.2648
16.7268
17.3333
18.0838
18.9746
20.0031
17.5427
21.148
24.3439
26.9257
28.8616
30.2286
31.2096
32.0178
32.8414
33.8226
35.0559
36.5924
38.4476
40.6082
43.0393
45.6908
48.5035
51.415
54.3662
57.3028
36.8104
56.638
73.1914
86.8391
97.819
106.597
113.923
120.478
126.718
132.877
139.007
145.037
150.832
156.232
161.098
165.327
168.868
171.721
173.935
175.586
265.084
385.346
484.501
552.104
589.309
603.052
601.302
590.762
576.224
560.729
545.998
532.857
521.575
512.097
504.198
497.588
491.971
487.078
482.685
478.61
697.598
871.657
1004.27
1094.17
1143.33
1158.14
1147.54
1120.39
1083.84
1042.87
1000.65
958.957
918.712
880.349
844.089
810.054
778.309
748.88
721.745
696.83
674.018
653.171
634.139
616.768
600.908
586.412
573.138
560.947
549.709
539.3
529.605
520.519
511.948
503.805
496.013
488.502
481.21
474.081
467.066
460.121
453.207
446.291
439.343
432.338
425.255
418.075
410.785
403.372
395.828
388.148
380.331
372.377
364.29
356.076
347.745
339.307
330.778
322.172
313.507
304.801
296.074
287.346
278.638
269.969
261.358
252.825
244.384
236.052
227.841
219.76
211.818
204.021
196.37
188.867
181.51
174.295
167.216
160.268
153.442
146.731
140.126
133.62
127.204
120.873
114.62
108.443
102.338
96.3066
90.3498
84.4723
78.6806
72.9844
67.3955
61.9287
56.6014
51.4334
46.4467
41.6651
37.1134
32.8169
28.7998
25.0843
21.689
18.6285
15.9119
13.5437
11.5244
9.85302
8.53001
7.56187
6.96622
6.77686
7.04576
7.83991
9.23397
11.3017
14.1056
17.6785
21.9974
26.959
32.3779
38.0125
43.6098
48.9478
53.8605
58.2429
62.0425
65.2447
67.8581
69.9031
71.4046
72.3875
72.8741
72.884
72.4332
71.5342
70.1941
68.4189
66.2445
63.7075
60.8599
57.7758
54.559
51.347
48.3085
45.6278
43.477
41.9833
41.2029
41.1117
41.6138
42.5619
43.7836
45.1046
46.3679
47.4454
48.2427
48.6994
48.7859
48.4981
47.8518
46.8768
45.6123
44.1025
42.3936
40.5314
38.5594
36.5179
34.4432
32.3673
30.3178
28.3178
26.3863
24.5382
22.7849
21.1347
19.5929
18.1628
16.8455
15.6409
14.5479
13.5649
12.6904
11.9236
11.2648
10.7169
10.2863
9.9852
9.83547
9.87508
10.1703
10.8382
12.096
14.3543
18.5017
26.4264
44.2162
84.4203
231.596
332.918
190.132
211.595
244.738
289.806
344.899
406.837
471.177
533.124
588.287
633.376
666.664
688.044
698.712
700.628
695.974
686.745
674.534
660.522
645.537
630.156
614.78
599.695
585.107
571.15
557.904
545.4
533.634
522.574
512.174
502.374
493.114
484.331
475.96
467.94
460.212
452.721
445.413
438.242
431.164
424.142
417.14
410.13
403.085
395.984
388.809
381.544
374.178
366.702
359.11
351.401
343.574
335.633
327.584
319.435
311.198
302.886
294.514
286.098
277.658
269.212
260.781
252.384
244.042
235.774
227.599
219.534
211.594
203.792
196.139
188.642
181.309
174.142
167.14
160.303
153.626
147.104
140.728
134.491
128.382
122.392
116.512
110.733
105.046
99.445
93.9243
88.4807
83.1127
77.8214
72.6101
67.4847
62.4538
57.5287
52.723
48.0531
43.5375
39.1963
35.0511
31.1239
27.4362
24.0083
20.8574
17.9973
15.4372
13.1813
11.2297
9.57945
8.22706
7.17138
6.41807
5.98482
5.90677
6.23989
7.05981
8.45591
10.5233
13.3516
17.0054
21.4918
26.7279
32.5286
38.6314
44.7484
50.6203
56.0521
60.9222
65.1729
68.7924
71.7961
74.2123
76.073
77.4083
78.2445
78.6031
78.5018
77.9541
76.9697
75.5526
73.7047
71.4556
68.8336
65.8789
62.649
59.2254
55.7207
52.2811
49.0807
46.3019
44.1048
42.5949
41.8012
41.6731
42.0943
42.9063
43.935
45.0131
45.9963
46.7718
47.2614
47.4195
47.2285
46.6936
45.8366
44.6909
43.2967
41.6974
39.9372
38.0588
36.102
34.1033
32.0947
30.1044
28.1559
26.2687
24.4585
22.7372
21.1137
19.5941
18.1821
16.8795
15.6868
14.6034
13.6282
12.7603
11.9992
11.3459
10.8036
10.3792
10.0857
9.94599
9.99966
10.3162
11.0197
12.3421
14.7296
19.1476
27.7048
46.8898
91.4666
243.706
324.124
59.4198
61.4438
64.4877
69.1167
76.5258
87.5237
102.889
123.288
149.035
179.895
214.956
252.646
290.923
327.601
360.738
388.947
411.525
428.444
440.192
447.544
451.37
452.487
451.586
449.215
445.788
441.615
436.925
431.892
426.644
421.274
415.845
410.396
404.949
399.507
394.067
388.614
383.134
377.609
372.021
366.353
360.591
354.719
348.725
342.6
336.335
329.925
323.367
316.661
309.807
302.811
295.678
288.418
281.043
273.564
265.998
258.361
250.671
242.948
235.213
227.487
219.79
212.145
204.572
197.09
189.717
182.469
175.362
168.407
161.613
154.986
148.532
142.25
136.14
130.198
124.418
118.793
113.313
107.969
102.751
97.6477
92.6497
87.7477
82.9336
78.201
73.5454
68.9642
64.4573
60.0269
55.6779
51.4178
47.2566
43.2066
39.2825
35.5008
31.8793
28.4365
25.1911
22.1604
19.3601
16.8026
14.4968
12.4473
10.6545
9.11553
7.82558
6.78016
5.97808
5.42542
5.14046
5.15929
5.54009
6.36409
7.73196
9.75709
12.555
16.2228
20.8032
26.2421
32.3645
38.8926
45.5029
51.8943
57.836
63.1848
67.8754
71.8985
75.2773
78.0495
80.2554
81.9315
83.1083
83.8099
84.0546
83.8565
83.226
82.1697
80.6891
78.783
76.4761
73.7915
70.7613
67.431
63.8653
60.1549
56.4222
52.8215
49.5297
46.722
44.5397
43.0605
42.283
42.1303
42.4687
43.1338
43.9554
44.778
45.4734
45.9463
46.1351
46.0082
45.559
44.8004
43.7587
42.469
40.9716
39.308
37.5197
35.6456
33.7218
31.7805
29.8497
27.9536
26.112
24.341
22.6532
21.0581
19.5622
18.1699
16.8836
15.7042
14.6317
13.6655
12.8052
12.0506
11.4033
10.8668
10.4486
10.1621
10.0309
10.096
10.429
11.1591
12.5292
15.0136
19.6292
28.6691
48.5804
96.0426
238.853
313.416
20.7175
21.1302
21.5653
22.0625
22.722
23.6893
25.1704
27.3926
30.645
35.2852
41.7244
50.3864
61.638
75.7042
92.5827
111.887
132.995
155.071
177.177
198.403
217.993
235.419
250.405
262.904
273.044
281.062
287.244
291.878
295.227
297.513
298.916
299.578
299.609
299.091
298.092
296.661
294.836
292.648
290.119
287.267
284.106
280.646
276.897
272.868
268.569
264.008
259.196
254.146
248.87
243.382
237.699
231.838
225.817
219.657
213.379
207.005
200.557
194.06
187.538
181.014
174.511
168.053
161.661
155.356
149.154
143.074
137.127
131.326
125.679
120.192
114.867
109.705
104.703
99.8569
95.1603
90.6049
86.1817
81.8805
77.6913
73.6039
69.6088
65.6976
61.8633
58.1004
54.4057
50.7779
47.2182
43.7302
40.32
36.996
33.7688
30.6506
27.6556
24.7983
22.0939
19.557
17.2006
15.0359
13.071
11.3106
9.75616
8.40572
7.25518
6.2996
5.53523
4.96226
4.58821
4.43251
4.53179
4.94487
5.75555
7.07173
9.02093
11.7411
15.3608
19.9616
25.5266
31.9018
38.8032
45.8742
52.7673
59.2093
65.0285
70.1482
74.5606
78.2979
81.4089
83.9438
85.9469
87.4536
88.4906
89.077
89.2265
88.949
88.2512
87.1369
85.6056
83.6535
81.3018
78.5703
75.4855
72.0851
68.4214
64.568
60.6258
56.7269
53.0325
49.7173
46.9429
44.825
43.409
42.6621
42.4836
42.7279
43.2303
43.8301
44.3875
44.7925
44.9683
44.869
44.4761
43.7922
42.8361
41.6369
40.2306
38.6559
36.952
35.1568
33.3055
31.4299
29.5583
27.7146
25.919
24.1882
22.535
20.9694
19.4986
18.1273
16.8585
15.6937
14.6332
13.677
12.8251
12.0778
11.4369
10.9063
10.4939
10.2136
10.0894
10.1628
10.5068
11.2535
12.6521
15.1949
19.9208
29.2378
49.2274
97.3874
227.43
300.592
10.0702
10.1368
10.1976
10.2537
10.3151
10.3984
10.5249
10.7216
11.0236
11.4778
12.1454
13.1042
14.4501
16.297
18.7723
22.1212
26.5224
32.1336
39.061
47.329
56.8618
67.4793
78.911
90.8249
102.864
114.687
125.996
136.559
146.22
154.893
162.551
169.213
174.925
179.752
183.762
187.018
189.583
191.506
192.833
193.601
193.844
193.591
192.869
191.703
190.116
188.132
185.774
183.067
180.033
176.698
173.085
169.221
165.131
160.843
156.383
151.78
147.061
142.253
137.384
132.481
127.568
122.671
117.812
113.011
108.288
103.659
99.1361
94.7316
90.4532
86.3062
82.2933
78.4147
74.6681
71.0494
67.5525
64.1701
60.894
57.7154
54.6254
51.6153
48.6773
45.8045
42.9915
40.2347
37.5321
34.8841
32.2929
29.7631
27.3011
24.9152
22.6152
20.4118
18.3165
16.3404
14.4942
12.787
11.2261
9.81617
8.55943
7.45549
6.50193
5.6951
5.03151
4.50952
4.13167
3.90761
3.85809
4.01985
4.45092
5.23494
6.48291
8.33147
10.9361
14.4538
19.0051
24.6169
31.1684
38.3811
45.8718
53.2446
60.1757
66.4574
71.9959
76.7831
80.8607
84.2905
87.1352
89.4483
91.2713
92.6338
93.5558
94.0502
94.1255
93.7869
93.0375
91.8788
90.3089
88.3212
85.9351
83.168
80.0433
76.593
72.8612
68.9089
64.8193
60.7038
56.7036
52.9824
49.7072
47.0186
45.001
43.6649
42.9479
42.731
42.8627
43.184
43.5486
43.835
43.9527
43.8425
43.4734
42.8377
41.9457
40.8201
39.4917
37.9956
36.3685
34.6465
32.8637
31.0512
29.2369
27.4446
25.6948
24.0041
22.386
20.8506
19.4056
18.0562
16.8059
15.6565
14.609
13.6636
12.8207
12.0811
11.4468
10.9222
10.5153
10.2401
10.121
10.1995
10.5488
11.3017
12.7084
15.2681
20.0131
29.3776
48.9448
95.6018
213.193
287.179
6.95015
6.92508
6.89909
6.87189
6.8447
6.81988
6.80032
6.78949
6.79172
6.81258
6.8592
6.94067
7.06834
7.25602
7.52007
7.88426
8.39228
9.08981
10.0293
11.2713
12.8826
14.9315
17.482
20.5855
24.2722
28.5443
33.3716
38.6913
44.4121
50.4205
56.5906
62.7933
68.9053
74.8157
80.431
85.6765
90.4966
94.8529
98.7218
102.092
104.96
107.331
109.215
110.624
111.573
112.082
112.168
111.854
111.163
110.118
108.744
107.068
105.119
102.922
100.509
97.9062
95.1439
92.2503
89.2533
86.18
83.0561
79.9058
76.7515
73.6136
70.5102
67.4571
64.4673
61.5516
58.7179
55.9717
53.3161
50.7522
48.2787
45.8929
43.5905
41.3661
39.2137
37.1267
35.0985
33.1231
31.1948
29.3091
27.4625
25.6533
23.8809
22.1467
20.4536
18.8061
17.2101
15.6724
14.2007
12.8029
11.4869
10.2597
9.12733
8.0943
7.16339
6.33564
5.61055
4.98657
4.46181
4.03518
3.70781
3.48493
3.37836
3.40992
3.61583
4.05213
4.79999
5.96978
7.70218
10.1645
13.5366
17.976
23.5569
30.2028
37.6555
45.5151
53.3385
60.7453
67.4816
73.4293
78.5765
82.9747
86.7008
89.8322
92.4344
94.5561
96.2308
97.4794
98.314
98.7408
98.7625
98.3804
97.5944
96.4039
94.8059
92.7922
90.3803
87.5866
84.4325
80.9466
77.1673
73.1466
68.9547
64.6851
60.4591
56.4238
52.7405
49.561
46.9979
45.1003
43.8449
43.1443
42.8674
42.8639
42.9863
43.1056
43.1205
42.9594
42.5798
41.9634
41.1116
40.0399
38.7737
37.3437
35.7837
34.1274
32.4073
30.6537
28.8936
27.1507
25.4452
23.794
22.2105
20.7053
19.2864
17.9593
16.7279
15.5946
14.5605
13.6265
12.7931
12.0614
11.4339
10.9151
10.513
10.242
10.1259
10.2062
10.555
11.3034
12.6982
15.2332
19.9106
29.0987
47.8678
91.3188
196.558
273.278
5.829
5.77873
5.72901
5.67968
5.63094
5.58324
5.53717
5.49334
5.45243
5.41524
5.3827
5.35602
5.33666
5.32645
5.32756
5.34261
5.37824
5.44084
5.53828
5.68018
5.87815
6.14592
6.49951
6.95718
7.53919
8.26729
9.16388
10.2507
11.5471
13.0681
14.8222
16.8095
19.0203
21.435
24.0239
26.749
29.5652
32.4234
35.2723
38.0616
40.7432
43.2739
45.6157
47.7371
49.6134
51.2262
52.5638
53.6202
54.3947
54.8913
55.1182
55.0873
54.8133
54.3132
53.6063
52.713
51.6547
50.4535
49.1314
47.7101
46.2105
44.6527
43.0553
41.4354
39.8084
38.1876
36.5847
35.0089
33.4677
31.9665
30.5091
29.0972
27.7315
26.4108
25.1334
23.8963
22.6962
21.5294
20.3921
19.281
18.1929
17.1255
16.0773
15.0478
14.0375
13.0482
12.0825
11.1441
10.2374
9.36717
8.53855
7.75647
7.02549
6.34945
5.73133
5.1731
4.67581
4.2398
3.86507
3.55192
3.30175
3.11827
3.00898
2.9873
3.07544
3.30843
3.73935
4.44524
5.53282
7.1422
9.4465
12.642
16.918
22.3963
29.0532
36.6659
44.8327
53.0694
60.9339
68.1164
74.4646
79.9575
84.6552
88.6519
92.0431
94.9085
97.3066
99.2757
100.838
102.005
102.779
103.161
103.149
102.739
101.93
100.719
99.102
97.0706
94.6406
91.8279
88.6528
85.1418
81.3298
77.2627
73.001
68.6243
64.2361
59.9654
55.9607
52.374
49.3342
46.9207
45.1464
43.9578
43.2495
42.8858
42.7239
42.6321
42.5012
42.2497
41.824
41.1961
40.3582
39.3186
38.0965
36.718
35.2132
33.6131
31.9484
30.2478
28.5376
26.8407
25.1772
23.5637
22.0137
20.538
19.1447
17.8399
16.6275
15.5103
14.4899
13.5674
12.7436
12.02
11.3992
10.8858
10.4879
10.2197
10.1048
10.1835
10.5261
11.2601
12.6239
15.0955
19.6277
28.4436
46.1204
85.3535
177.83
257.181
5.34864
5.29065
5.23358
5.17736
5.12202
5.06766
5.01444
4.96252
4.91202
4.86307
4.8158
4.77034
4.72689
4.68565
4.64692
4.61117
4.57953
4.55304
4.53308
4.52131
4.5198
4.53098
4.55773
4.60336
4.67167
4.76694
4.89395
5.05795
5.26462
5.52001
5.8303
6.20164
6.63985
7.14998
7.73594
8.39997
9.14219
9.96012
10.8484
11.7985
12.7991
13.8357
14.8919
15.9492
16.9887
17.9908
18.9372
19.8108
20.5965
21.2819
21.8575
22.317
22.6568
22.8767
22.9788
22.9679
22.8507
22.6356
22.3321
21.9507
21.5022
20.9976
20.4475
19.8622
19.2512
18.623
17.9853
17.3446
16.7063
16.0746
15.4527
14.8429
14.2463
13.6635
13.0942
12.5377
11.9928
11.458
10.932
10.4133
9.90075
9.3936
8.8915
8.39467
7.90391
7.42062
6.94676
6.48473
6.03728
5.60734
5.19788
4.8117
4.45132
4.1189
3.8162
3.54462
3.30542
3.09998
2.93028
2.79955
2.7132
2.68008
2.71429
2.83768
3.08347
3.50117
4.16271
5.16907
6.65611
8.79726
11.7983
15.8731
21.1874
27.7747
35.4622
43.8638
52.4656
60.7636
68.382
75.1229
80.948
85.9237
90.1628
93.7824
96.88
99.5264
101.767
103.625
105.111
106.225
106.964
107.322
107.292
106.869
106.048
104.827
103.199
101.158
98.717
95.892
92.7031
89.1758
85.3427
81.2455
76.938
72.4895
67.9888
63.5476
59.2986
55.386
51.9442
49.073
46.8159
45.1522
44.0048
43.2579
42.7788
42.4377
42.1214
41.741
41.2339
40.5625
39.7108
38.6795
37.4813
36.1375
34.674
33.1189
31.5004
29.8456
28.1793
26.5239
24.8988
23.3202
21.8017
20.354
18.9853
17.7018
16.508
15.4066
14.3997
13.4885
12.6743
11.9586
11.3441
10.8356
10.4411
10.1745
10.0587
10.1326
10.4638
11.1741
12.4902
14.8641
19.1859
27.4761
43.8319
78.4567
157.921
237.462
5.11957
5.05893
4.99934
4.94074
4.88313
4.82652
4.77096
4.71649
4.66314
4.61093
4.55986
4.50994
4.46114
4.41346
4.36687
4.32157
4.2777
4.23542
4.19499
4.15672
4.12102
4.08839
4.05944
4.03489
4.01556
4.0024
3.99643
3.99883
4.01084
4.03378
4.06908
4.11818
4.18256
4.2637
4.363
4.48179
4.62118
4.78205
4.96489
5.16978
5.3962
5.64301
5.90836
6.18961
6.48338
6.78557
7.09145
7.39579
7.69308
7.97773
8.24428
8.48768
8.70343
8.88785
9.03812
9.1524
9.22984
9.27059
9.27564
9.24678
9.18644
9.09753
8.98327
8.84708
8.6924
8.52255
8.34071
8.14972
7.95212
7.75007
7.54533
7.33924
7.1328
6.92662
6.721
6.51601
6.31147
6.10708
5.90248
5.6973
5.49127
5.28423
5.07625
4.86764
4.65898
4.4511
4.24513
4.04239
3.84437
3.65267
3.46892
3.29472
3.13161
2.9811
2.84471
2.72408
2.62127
2.53906
2.48152
2.45476
2.46803
2.53529
2.67742
2.92547
3.32519
3.943
4.87307
6.24446
8.22645
11.0276
14.8783
19.9813
26.4271
34.1031
42.658
51.5649
60.2629
68.3032
75.4293
81.5747
86.8071
91.2585
95.0708
98.3641
101.225
103.706
105.836
107.624
109.066
110.155
110.88
111.23
111.197
110.772
109.949
108.726
107.096
105.052
102.606
99.7758
96.5801
93.0444
89.2001
85.0861
80.7517
76.2586
71.6842
67.1253
62.6982
58.5345
54.766
51.5029
48.8115
46.7004
45.1211
43.9807
43.1616
42.5404
42.004
41.4589
40.8357
40.089
39.1947
38.1462
36.9501
35.6224
34.1845
32.6611
31.0779
29.4598
27.8302
26.2104
24.6188
23.0714
21.5813
20.1592
18.8133
17.5498
16.3734
15.287
14.293
13.3927
12.5875
11.8792
11.2706
10.7663
10.3743
10.1079
9.98923
10.0553
10.3703
11.0487
12.3028
14.5514
18.6109
26.2692
41.1439
71.2024
137.988
214.208
5.00426
4.94257
4.88199
4.82247
4.76399
4.70654
4.65012
4.59474
4.54041
4.48711
4.43483
4.38355
4.33325
4.28387
4.23543
4.18794
4.14139
4.09581
4.05121
4.00765
3.9652
3.92395
3.88403
3.8456
3.80884
3.77399
3.74128
3.71103
3.68353
3.65916
3.63827
3.62125
3.60849
3.6004
3.59736
3.59973
3.60785
3.62199
3.64239
3.66918
3.7024
3.74199
3.78773
3.83928
3.89612
3.95757
4.02278
4.09074
4.16028
4.23012
4.29892
4.36526
4.42776
4.48509
4.53605
4.57957
4.61479
4.64109
4.65807
4.66556
4.66366
4.65263
4.63294
4.60519
4.57009
4.5284
4.48091
4.42842
4.37166
4.31131
4.24798
4.18215
4.11424
4.04453
3.97321
3.9004
3.82612
3.75033
3.67299
3.59403
3.5134
3.4311
3.34722
3.26193
3.17553
3.08842
3.00114
2.91434
2.82877
2.74526
2.66473
2.58818
2.51673
2.45167
2.39459
2.3476
2.31358
2.29673
2.30315
2.34187
2.42623
2.57584
2.81952
3.19939
3.77655
4.63805
5.9048
7.73876
10.3457
13.9642
18.8249
25.0704
32.6538
41.2752
50.4151
59.4683
67.9102
75.413
81.8686
87.3377
91.9702
95.9363
99.3829
102.417
105.104
107.475
109.54
111.292
112.719
113.804
114.531
114.887
114.86
114.443
113.627
112.409
110.784
108.745
106.302
103.472
100.277
96.7414
92.8954
88.7767
84.4313
79.9155
75.2985
70.6646
66.1152
61.7672
57.7438
54.1576
51.0889
48.5701
46.5793
45.0482
43.8769
42.9531
42.1676
41.4259
40.6541
39.8007
38.8346
37.7426
36.5253
35.1932
33.7634
32.257
30.6964
29.1045
27.5028
25.9112
24.3472
22.826
21.3603
19.9605
18.6347
17.3891
16.2284
15.1557
14.1734
13.283
12.4861
11.7845
11.1809
10.68
10.2895
10.022
9.89845
9.95398
10.2484
10.8883
12.0689
14.1711
17.9312
24.8961
38.2022
63.9792
119.038
188.72
4.94514
4.88295
4.8219
4.76196
4.70309
4.64527
4.5885
4.53275
4.47803
4.42432
4.3716
4.31985
4.26904
4.21915
4.17017
4.12208
4.07485
4.02848
3.98294
3.93824
3.89436
3.85131
3.80912
3.76779
3.72738
3.68791
3.64946
3.61208
3.57587
3.54091
3.50729
3.47515
3.44458
3.4157
3.38865
3.36354
3.34047
3.31955
3.30088
3.2845
3.27047
3.25881
3.24949
3.24245
3.23761
3.23482
3.2339
3.23464
3.23675
3.23995
3.24388
3.2482
3.25253
3.25649
3.25971
3.26183
3.26253
3.26152
3.25858
3.25351
3.24618
3.23652
3.22451
3.21018
3.19358
3.17483
3.15404
3.13136
3.10694
3.08093
3.05347
3.02468
2.99469
2.96358
2.93142
2.89826
2.86414
2.82908
2.79307
2.75613
2.71827
2.67953
2.63997
2.5997
2.55885
2.51764
2.47634
2.43527
2.39486
2.35562
2.31816
2.28328
2.25199
2.22567
2.20624
2.19642
2.2002
2.22338
2.27454
2.36619
2.51669
2.75277
3.11335
3.65465
4.45701
5.63283
7.33492
9.76206
13.1537
17.7586
23.7622
31.1824
39.7834
49.0748
58.4252
67.2389
75.1069
81.864
87.5521
92.3351
96.4133
99.966
103.126
105.974
108.549
110.86
112.899
114.645
116.077
117.174
117.915
118.287
118.275
117.872
117.07
115.865
114.252
112.224
109.791
106.971
103.785
100.258
96.4199
92.3083
87.9666
83.4474
78.8137
74.1402
69.5153
65.0413
60.8296
56.9881
53.6039
50.726
48.3556
46.4478
44.9232
43.6832
42.6266
41.661
40.7111
39.7209
38.6543
37.4921
36.2293
34.8713
33.4306
31.9245
30.3724
28.7946
27.2105
25.6383
24.0946
22.5935
21.1472
19.7654
18.4563
17.2257
16.0783
15.0173
14.0451
13.1633
12.3735
11.6775
11.078
10.5794
10.1891
9.91904
9.78888
9.83131
10.1017
10.6976
11.7963
13.7379
17.1754
23.4235
35.1445
57.0323
101.742
162.767
4.91498
4.85251
4.7912
4.73103
4.67195
4.61394
4.55699
4.50108
4.44618
4.39229
4.33939
4.28744
4.23645
4.18638
4.13721
4.08893
4.0415
3.99491
3.94914
3.90417
3.85998
3.81656
3.7739
3.73199
3.69082
3.65041
3.61075
3.57185
3.53373
3.4964
3.45989
3.42422
3.38944
3.35556
3.32263
3.29069
3.25977
3.22991
3.20115
3.17351
3.14702
3.1217
3.09755
3.07458
3.05277
3.03209
3.01252
2.99399
2.97644
2.95979
2.94396
2.92883
2.91429
2.90024
2.88654
2.87307
2.85971
2.84635
2.83287
2.81917
2.80516
2.79075
2.77589
2.76052
2.7446
2.72809
2.71099
2.69328
2.67496
2.65604
2.63654
2.61646
2.59583
2.57467
2.55299
2.53084
2.50823
2.48518
2.46174
2.43793
2.41379
2.38938
2.36476
2.34003
2.31529
2.2907
2.26643
2.24276
2.21999
2.19859
2.17915
2.16252
2.14991
2.14305
2.14447
2.15791
2.18883
2.2453
2.33911
2.48744
2.71528
3.05882
3.57015
4.3236
5.42351
7.01294
9.28106
12.4625
16.8143
22.5535
29.7564
38.2567
47.6126
57.1893
66.3326
74.548
81.5979
87.4904
92.3951
96.5428
100.15
103.381
106.339
109.072
111.592
113.886
115.928
117.69
119.143
120.261
121.025
121.418
121.427
121.044
120.262
119.077
117.483
115.474
113.06
110.257
107.089
103.581
99.7626
95.6706
91.3472
86.8426
82.2151
77.5323
72.8719
68.3227
63.9826
59.9507
56.3141
53.1316
50.4222
48.1626
46.2935
44.733
43.3906
42.1795
41.0256
39.8712
38.6763
37.4173
36.0842
34.6775
33.2057
31.6821
30.1228
28.5454
26.9671
25.4045
23.8724
22.3842
20.951
19.5822
18.2853
17.0661
15.929
14.8771
13.9128
13.0378
12.2535
11.5617
10.9649
10.4675
10.0761
9.80199
9.66343
9.69056
9.93399
10.4819
11.493
13.2662
16.3712
21.9086
32.0903
50.5123
86.4233
137.97
4.89989
4.83724
4.77578
4.71547
4.65627
4.59816
4.54111
4.4851
4.43012
4.37615
4.32316
4.27113
4.22006
4.16991
4.12067
4.07231
4.02481
3.97815
3.93231
3.88727
3.843
3.79951
3.75676
3.71474
3.67344
3.63286
3.59297
3.55378
3.51528
3.47747
3.44035
3.40392
3.36819
3.33316
3.29884
3.26524
3.23237
3.20025
3.16889
3.13829
3.10848
3.07945
3.05122
3.0238
2.99718
2.97136
2.94634
2.92211
2.89864
2.87592
2.85391
2.83259
2.81192
2.79186
2.77235
2.75334
2.73479
2.71663
2.6988
2.68125
2.66391
2.64673
2.62964
2.6126
2.59555
2.57845
2.56124
2.54389
2.52637
2.50865
2.49072
2.47254
2.45413
2.43549
2.41661
2.39751
2.37823
2.35879
2.33923
2.3196
2.29996
2.28036
2.2609
2.24168
2.22281
2.20447
2.18684
2.17022
2.15498
2.14167
2.13105
2.12424
2.12287
2.12932
2.14713
2.1815
2.24005
2.33394
2.47945
2.70012
3.02996
3.5177
4.23265
5.27199
6.76938
8.90327
11.8994
16.015
21.4869
28.4383
36.7711
46.1055
55.8272
65.2435
73.7784
81.11
87.1949
92.196
96.3716
99.9795
103.222
106.231
109.068
111.751
114.262
116.57
118.638
120.428
121.909
123.055
123.845
124.263
124.297
123.939
123.182
122.022
120.455
118.475
116.087
113.313
110.174
106.696
102.91
98.8512
94.5615
90.0893
85.4899
80.8251
76.1642
71.5841
67.1692
63.0075
59.1806
55.7508
52.7495
50.1712
47.9762
46.0997
44.4645
42.9924
41.6132
40.2699
38.9209
37.5392
36.1109
34.6326
33.1084
31.5481
29.9647
28.3728
26.7873
25.2227
23.6926
22.2087
20.7814
19.4194
18.1295
16.9172
15.7866
14.7407
13.7817
12.9111
12.1303
11.441
10.8455
10.3476
9.9537
9.67406
9.52544
9.53532
9.74949
10.2467
11.1671
12.7698
15.5434
20.3982
29.1345
44.5103
73.1372
115.462
4.89254
4.82979
4.76824
4.70784
4.64857
4.5904
4.53329
4.47724
4.42221
4.3682
4.31517
4.26311
4.21199
4.16181
4.11253
4.06413
4.01659
3.9699
3.92403
3.87897
3.83468
3.79117
3.7484
3.70636
3.66505
3.62444
3.58453
3.5453
3.50674
3.46886
3.43163
3.39506
3.35914
3.32387
3.28925
3.25528
3.22196
3.1893
3.15729
3.12595
3.09527
3.06527
3.03593
3.00728
2.97931
2.95202
2.92541
2.89947
2.87422
2.84962
2.82568
2.80239
2.77971
2.75764
2.73614
2.71519
2.69476
2.67481
2.65529
2.63618
2.61742
2.59897
2.58078
2.5628
2.54499
2.52729
2.50967
2.49208
2.47448
2.45684
2.43913
2.42134
2.40345
2.38546
2.36737
2.3492
2.33098
2.31274
2.29452
2.27639
2.25841
2.24067
2.22327
2.20633
2.19003
2.17455
2.16019
2.14731
2.13645
2.12836
2.12411
2.1253
2.13423
2.1543
2.19051
2.25016
2.34394
2.48741
2.70303
3.02312
3.49384
4.18049
5.17429
6.60055
8.62707
11.4686
15.3762
20.5954
27.283
35.4004
44.6355
54.4154
64.034
72.8471
80.4427
86.709
91.7857
95.9506
99.5042
102.695
105.687
108.567
111.358
114.042
116.579
118.923
121.027
122.852
124.365
125.539
126.355
126.799
126.86
126.53
125.803
124.676
123.144
121.201
118.852
116.116
113.018
109.585
105.845
101.836
97.5965
93.1755
88.6255
84.0044
79.3747
74.8033
70.3619
66.1258
62.1679
58.5489
55.3069
52.4498
49.9551
47.7754
45.8482
44.1059
42.4852
40.9322
39.4056
37.8767
36.3289
34.7555
33.1573
31.5404
29.9148
28.2922
26.6852
25.1062
23.5669
22.0779
20.6483
19.2859
17.9969
16.7863
15.6579
14.6142
13.6571
12.7882
12.0086
11.3196
10.7235
10.2236
9.82556
9.53882
9.37854
9.36952
9.55269
9.99768
10.8266
12.2611
14.7137
18.9289
26.3457
39.0764
61.7792
95.8101
4.88905
4.82625
4.76464
4.7042
4.64489
4.58668
4.52955
4.47347
4.41843
4.36439
4.31134
4.25926
4.20813
4.15792
4.10862
4.06021
4.01265
3.96594
3.92005
3.87497
3.83067
3.78714
3.74437
3.70232
3.661
3.62039
3.58047
3.54124
3.50268
3.46478
3.42754
3.39095
3.355
3.31968
3.28501
3.25096
3.21754
3.18476
3.1526
3.12107
3.09017
3.05991
3.03028
3.00128
2.97293
2.94521
2.91813
2.89168
2.86587
2.84069
2.81613
2.79218
2.76883
2.74607
2.72388
2.70223
2.68111
2.66048
2.64031
2.62057
2.60122
2.58223
2.56355
2.54513
2.52693
2.50892
2.49104
2.47326
2.45555
2.43786
2.42019
2.40249
2.38477
2.36703
2.34926
2.33149
2.31375
2.29608
2.27853
2.26117
2.24409
2.2274
2.21123
2.19575
2.18117