/*--------------------------------*- C++ -*----------------------------------*\
| =========                 |                                                 |
| \\      /  F ield         | OpenFOAM: The Open Source CFD Toolbox           |
|  \\    /   O peration     | Version:  2.4.0                                 |
|   \\  /    A nd           | Web:      www.OpenFOAM.org                      |
|    \\/     M anipulation  |                                                 |
\*---------------------------------------------------------------------------*/
FoamFile
{
    version     2.0;
    format      ascii;
    class       surfaceScalarField;
    location    "0.141954";
    object      phi;
}
// * * * * * * * * * * * * * * * * * * * * * * * * * * * * * * * * * * * * * //

dimensions      [0 3 -1 0 0 0 0];

internalField   nonuniform List<scalar> 
34880
(
1.21382e-05
3.61833e-07
1.17094e-05
4.2879e-07
1.1322e-05
3.8734e-07
1.09671e-05
3.54915e-07
1.06483e-05
3.18854e-07
1.03728e-05
2.75484e-07
1.01401e-05
2.32689e-07
9.94571e-06
1.94383e-07
9.78408e-06
1.61631e-07
9.64963e-06
1.34447e-07
9.53714e-06
1.12492e-07
9.44197e-06
9.51742e-08
9.36017e-06
8.17952e-08
9.28854e-06
7.1633e-08
9.22452e-06
6.40228e-08
9.16605e-06
5.84667e-08
9.11135e-06
5.46966e-08
9.05633e-06
5.50256e-08
8.99734e-06
5.8988e-08
2.20105e-07
8.77723e-06
1.26413e-05
2.2055e-07
1.27048e-05
3.65313e-07
1.27223e-05
3.69813e-07
1.26942e-05
3.82991e-07
1.26301e-05
3.82954e-07
1.25383e-05
3.67344e-07
1.24265e-05
3.44405e-07
1.23018e-05
3.19079e-07
1.21699e-05
2.93573e-07
1.20353e-05
2.69023e-07
1.19017e-05
2.46128e-07
1.17717e-05
2.25196e-07
1.16472e-05
2.06289e-07
1.15294e-05
1.89355e-07
1.14192e-05
1.74263e-07
1.13165e-05
1.61216e-07
1.12217e-05
1.49421e-07
1.11309e-05
1.45854e-07
1.1056e-05
1.33881e-07
2.5923e-07
1.10169e-05
1.25407e-05
1.79811e-07
1.25884e-05
3.17666e-07
1.2628e-05
3.30165e-07
1.26609e-05
3.50085e-07
1.26833e-05
3.6058e-07
1.26942e-05
3.56471e-07
1.2694e-05
3.44586e-07
1.26833e-05
3.29794e-07
1.26627e-05
3.14117e-07
1.26332e-05
2.9854e-07
1.25956e-05
2.83713e-07
1.25509e-05
2.69934e-07
1.25e-05
2.57239e-07
1.24438e-05
2.45546e-07
1.23833e-05
2.34685e-07
1.23196e-05
2.24928e-07
1.22535e-05
2.15516e-07
1.21855e-05
2.13875e-07
1.21128e-05
2.06555e-07
3.00708e-07
1.20714e-05
1.25233e-05
1.56496e-07
1.25543e-05
2.86649e-07
1.25822e-05
3.02305e-07
1.26114e-05
3.20919e-07
1.26384e-05
3.33542e-07
1.2662e-05
3.32869e-07
1.26818e-05
3.24753e-07
1.26976e-05
3.14027e-07
1.27092e-05
3.0253e-07
1.27166e-05
2.91086e-07
1.27201e-05
2.80284e-07
1.27196e-05
2.70423e-07
1.27153e-05
2.6155e-07
1.27072e-05
2.53601e-07
1.26955e-05
2.46427e-07
1.26801e-05
2.40333e-07
1.26609e-05
2.34695e-07
1.26383e-05
2.36465e-07
1.26093e-05
2.35553e-07
3.09914e-07
1.26001e-05
1.25186e-05
1.37853e-07
1.25435e-05
2.61788e-07
1.25662e-05
2.7961e-07
1.25911e-05
2.96045e-07
1.26159e-05
3.08703e-07
1.26396e-05
3.09178e-07
1.26617e-05
3.02615e-07
1.2682e-05
2.93776e-07
1.27002e-05
2.84327e-07
1.27163e-05
2.74959e-07
1.27304e-05
2.66204e-07
1.27425e-05
2.58342e-07
1.27526e-05
2.51418e-07
1.27608e-05
2.45385e-07
1.27671e-05
2.40113e-07
1.27715e-05
2.35955e-07
1.27738e-05
2.32402e-07
1.27744e-05
2.3589e-07
1.27716e-05
2.38321e-07
2.97119e-07
1.27844e-05
1.25161e-05
1.21712e-07
1.25385e-05
2.39406e-07
1.25592e-05
2.58943e-07
1.25817e-05
2.73576e-07
1.26046e-05
2.85716e-07
1.26272e-05
2.86608e-07
1.2649e-05
2.80821e-07
1.26698e-05
2.73035e-07
1.26893e-05
2.64785e-07
1.27076e-05
2.56651e-07
1.27247e-05
2.49122e-07
1.27406e-05
2.42457e-07
1.27553e-05
2.36694e-07
1.27689e-05
2.31793e-07
1.27814e-05
2.27637e-07
1.27927e-05
2.24608e-07
1.28028e-05
2.22273e-07
1.28122e-05
2.26534e-07
1.282e-05
2.30482e-07
2.76785e-07
1.28404e-05
1.25142e-05
1.07479e-07
1.25354e-05
2.18284e-07
1.25552e-05
2.39117e-07
1.25764e-05
2.52356e-07
1.25983e-05
2.63855e-07
1.26199e-05
2.64958e-07
1.26411e-05
2.5968e-07
1.26615e-05
2.52609e-07
1.26811e-05
2.45177e-07
1.26998e-05
2.37886e-07
1.27178e-05
2.31187e-07
1.27349e-05
2.25327e-07
1.27513e-05
2.20336e-07
1.27669e-05
2.16182e-07
1.27818e-05
2.1276e-07
1.27959e-05
2.10469e-07
1.28092e-05
2.08926e-07
1.28223e-05
2.13493e-07
1.28347e-05
2.18027e-07
2.54301e-07
1.28572e-05
1.25127e-05
9.47922e-08
1.25329e-05
1.98082e-07
1.25523e-05
2.19713e-07
1.25729e-05
2.31796e-07
1.25941e-05
2.42613e-07
1.26152e-05
2.43884e-07
1.26358e-05
2.39053e-07
1.26558e-05
2.32574e-07
1.26752e-05
2.25801e-07
1.26939e-05
2.19169e-07
1.2712e-05
2.13104e-07
1.27295e-05
2.07844e-07
1.27464e-05
2.03416e-07
1.27628e-05
1.99797e-07
1.27787e-05
1.96894e-07
1.2794e-05
1.95115e-07
1.28088e-05
1.94115e-07
1.28236e-05
1.98714e-07
1.28383e-05
2.03324e-07
2.31479e-07
1.28611e-05
1.25114e-05
8.33824e-08
1.25308e-05
1.78693e-07
1.25499e-05
2.00581e-07
1.25701e-05
2.11622e-07
1.2591e-05
2.21715e-07
1.26118e-05
2.23133e-07
1.26321e-05
2.18751e-07
1.26518e-05
2.12834e-07
1.26709e-05
2.06663e-07
1.26895e-05
2.00615e-07
1.27075e-05
1.95094e-07
1.2725e-05
1.9033e-07
1.27421e-05
1.86353e-07
1.27587e-05
1.8315e-07
1.2775e-05
1.80641e-07
1.27909e-05
1.79237e-07
1.28063e-05
1.78621e-07
1.2822e-05
1.83079e-07
1.28378e-05
1.87471e-07
2.09001e-07
1.28603e-05
1.25103e-05
7.30409e-08
1.2529e-05
1.60053e-07
1.25479e-05
1.81664e-07
1.25678e-05
1.91717e-07
1.25885e-05
2.01034e-07
1.26091e-05
2.0256e-07
1.26292e-05
1.98633e-07
1.26487e-05
1.93277e-07
1.26677e-05
1.87692e-07
1.26861e-05
1.82206e-07
1.2704e-05
1.77194e-07
1.27215e-05
1.72883e-07
1.27385e-05
1.69303e-07
1.27552e-05
1.66453e-07
1.27716e-05
1.64267e-07
1.27877e-05
1.63151e-07
1.28035e-05
1.62815e-07
1.28195e-05
1.67027e-07
1.2836e-05
1.71033e-07
1.87134e-07
1.28578e-05
1.25094e-05
6.35959e-08
1.25274e-05
1.42097e-07
1.25461e-05
1.62934e-07
1.25658e-05
1.72022e-07
1.25863e-05
1.80512e-07
1.26068e-05
1.82093e-07
1.26268e-05
1.7862e-07
1.26463e-05
1.73824e-07
1.26651e-05
1.68824e-07
1.26835e-05
1.63895e-07
1.27013e-05
1.59386e-07
1.27186e-05
1.55511e-07
1.27356e-05
1.52306e-07
1.27523e-05
1.49779e-07
1.27687e-05
1.47878e-07
1.27848e-05
1.47e-07
1.28008e-05
1.46877e-07
1.2817e-05
1.50783e-07
1.28337e-05
1.54316e-07
1.65959e-07
1.28549e-05
1.25087e-05
5.49009e-08
1.2526e-05
1.2476e-07
1.25446e-05
1.44374e-07
1.25641e-05
1.52504e-07
1.25845e-05
1.60123e-07
1.26049e-05
1.61701e-07
1.26248e-05
1.5867e-07
1.26442e-05
1.54432e-07
1.2663e-05
1.50013e-07
1.26813e-05
1.45642e-07
1.2699e-05
1.41636e-07
1.27164e-05
1.38196e-07
1.27333e-05
1.35359e-07
1.27499e-05
1.33143e-07
1.27663e-05
1.3151e-07
1.27825e-05
1.3084e-07
1.27985e-05
1.30887e-07
1.28148e-05
1.3446e-07
1.28316e-05
1.37486e-07
1.45472e-07
1.28521e-05
1.25081e-05
4.68298e-08
1.25249e-05
1.07971e-07
1.25433e-05
1.25969e-07
1.25626e-05
1.33135e-07
1.25829e-05
1.3985e-07
1.26032e-05
1.41367e-07
1.26231e-05
1.38763e-07
1.26425e-05
1.35076e-07
1.26613e-05
1.31232e-07
1.26795e-05
1.2742e-07
1.26972e-05
1.23919e-07
1.27145e-05
1.20916e-07
1.27314e-05
1.18448e-07
1.2748e-05
1.1654e-07
1.27644e-05
1.15167e-07
1.27805e-05
1.14689e-07
1.27965e-05
1.14877e-07
1.28129e-05
1.18115e-07
1.28297e-05
1.20631e-07
1.25627e-07
1.28496e-05
1.25076e-05
3.92728e-08
1.25239e-05
9.16618e-08
1.25421e-05
1.07704e-07
1.25614e-05
1.13893e-07
1.25815e-05
1.1968e-07
1.26018e-05
1.21082e-07
1.26217e-05
1.18888e-07
1.2641e-05
1.15744e-07
1.26598e-05
1.12469e-07
1.2678e-05
1.09213e-07
1.26957e-05
1.06219e-07
1.2713e-05
1.03656e-07
1.27299e-05
1.01558e-07
1.27464e-05
9.99575e-08
1.27628e-05
9.88413e-08
1.27789e-05
9.85468e-08
1.27949e-05
9.8859e-08
1.28113e-05
1.01773e-07
1.28281e-05
1.03798e-07
1.0636e-07
1.28474e-05
1.25071e-05
3.21339e-08
1.2523e-05
7.57628e-08
1.25412e-05
8.95602e-08
1.25603e-05
9.47558e-08
1.25804e-05
9.95974e-08
1.26006e-05
1.00838e-07
1.26205e-05
9.90379e-08
1.26398e-05
9.64309e-08
1.26586e-05
9.37167e-08
1.26768e-05
9.10139e-08
1.26945e-05
8.8528e-08
1.27117e-05
8.64048e-08
1.27286e-05
8.46784e-08
1.27452e-05
8.33865e-08
1.27615e-05
8.25254e-08
1.27776e-05
8.24088e-08
1.27936e-05
8.28335e-08
1.281e-05
8.5444e-08
1.28267e-05
8.70122e-08
8.76047e-08
1.28455e-05
1.25068e-05
2.53283e-08
1.25224e-05
6.02043e-08
1.25404e-05
7.15205e-08
1.25595e-05
7.57046e-08
1.25795e-05
7.95889e-08
1.25997e-05
8.06295e-08
1.26195e-05
7.92085e-08
1.26388e-05
7.71318e-08
1.26575e-05
7.49718e-08
1.26757e-05
7.28191e-08
1.26934e-05
7.08405e-08
1.27107e-05
6.9158e-08
1.27275e-05
6.7804e-08
1.27441e-05
6.68206e-08
1.27604e-05
6.62131e-08
1.27766e-05
6.62707e-08
1.27926e-05
6.68002e-08
1.28089e-05
6.91334e-08
1.28256e-05
7.02853e-08
6.93002e-08
1.28439e-05
1.25065e-05
1.87796e-08
1.25218e-05
4.49172e-08
1.25398e-05
5.35653e-08
1.25588e-05
5.67208e-08
1.25787e-05
5.96401e-08
1.25989e-05
6.04488e-08
1.26187e-05
5.9395e-08
1.2638e-05
5.78437e-08
1.26567e-05
5.62322e-08
1.26749e-05
5.46268e-08
1.26926e-05
5.31545e-08
1.27099e-05
5.19127e-08
1.27267e-05
5.0931e-08
1.27433e-05
5.02559e-08
1.27596e-05
4.99005e-08
1.27758e-05
5.01298e-08
1.27918e-05
5.07587e-08
1.28081e-05
5.28438e-08
1.28248e-05
5.36249e-08
5.13907e-08
1.28427e-05
1.25064e-05
1.24181e-08
1.25214e-05
2.98329e-08
1.25393e-05
3.56743e-08
1.25583e-05
3.77869e-08
1.25782e-05
3.97361e-08
1.25983e-05
4.02892e-08
1.26181e-05
3.95934e-08
1.26374e-05
3.85638e-08
1.26562e-05
3.74965e-08
1.26743e-05
3.64358e-08
1.2692e-05
3.54692e-08
1.27093e-05
3.46675e-08
1.27261e-05
3.4058e-08
1.27427e-05
3.36904e-08
1.2759e-05
3.35853e-08
1.27752e-05
3.39845e-08
1.27912e-05
3.47097e-08
1.28075e-05
3.65773e-08
1.28241e-05
3.70352e-08
3.38286e-08
1.28416e-05
1.25062e-05
6.17891e-09
1.25212e-05
1.48832e-08
1.2539e-05
1.78266e-08
1.25579e-05
1.8886e-08
1.25778e-05
1.98621e-08
1.2598e-05
2.01438e-08
1.26178e-05
1.97996e-08
1.2637e-05
1.92892e-08
1.26558e-05
1.87632e-08
1.26739e-05
1.82455e-08
1.26916e-05
1.77838e-08
1.27089e-05
1.7422e-08
1.27258e-05
1.7184e-08
1.27423e-05
1.7123e-08
1.27586e-05
1.72665e-08
1.27748e-05
1.78341e-08
1.27908e-05
1.86542e-08
1.28071e-05
2.03357e-08
1.28236e-05
2.05183e-08
1.6573e-08
1.28409e-05
1.25062e-05
2.16268e-13
1.25211e-05
4.29819e-13
1.25389e-05
8.7436e-13
1.25578e-05
1.63579e-12
1.25776e-05
2.98684e-12
1.25978e-05
5.38783e-12
1.26176e-05
9.66405e-12
1.26368e-05
1.73156e-11
1.26556e-05
3.09218e-11
1.26738e-05
5.52984e-11
1.26914e-05
9.82162e-11
1.27087e-05
1.75638e-10
1.27256e-05
3.08577e-10
1.27421e-05
5.53105e-10
1.27585e-05
9.43521e-10
1.27746e-05
1.67882e-09
1.27907e-05
2.59367e-09
1.28069e-05
4.12013e-09
1.28233e-05
4.07538e-09
-4.11026e-10
1.28403e-05
1.25062e-05
-6.17848e-09
1.25211e-05
-1.48824e-08
1.25389e-05
-1.78249e-08
1.25578e-05
-1.88827e-08
1.25776e-05
-1.98561e-08
1.25978e-05
-2.0133e-08
1.26176e-05
-1.97803e-08
1.26368e-05
-1.92547e-08
1.26556e-05
-1.87015e-08
1.26738e-05
-1.81352e-08
1.26914e-05
-1.7588e-08
1.27087e-05
-1.70717e-08
1.27256e-05
-1.65685e-08
1.27421e-05
-1.60195e-08
1.27585e-05
-1.5384e-08
1.27746e-05
-1.44813e-08
1.27907e-05
-1.34704e-08
1.28069e-05
-1.20685e-08
1.28232e-05
-1.2294e-08
-1.71538e-08
1.284e-05
1.25062e-05
-1.24177e-08
1.25212e-05
-2.9832e-08
1.2539e-05
-3.56725e-08
1.25579e-05
-3.77837e-08
1.25778e-05
-3.97302e-08
1.2598e-05
-4.02785e-08
1.26178e-05
-3.95743e-08
1.2637e-05
-3.85296e-08
1.26558e-05
-3.74354e-08
1.2674e-05
-3.63264e-08
1.26916e-05
-3.52749e-08
1.27089e-05
-3.43201e-08
1.27258e-05
-3.34476e-08
1.27423e-05
-3.25953e-08
1.27587e-05
-3.17164e-08
1.27748e-05
-3.06463e-08
1.27909e-05
-2.95371e-08
1.28071e-05
-2.82301e-08
1.28234e-05
-2.85912e-08
-3.36816e-08
1.28399e-05
1.25064e-05
-1.87792e-08
1.25214e-05
-4.49164e-08
1.25393e-05
-5.35636e-08
1.25583e-05
-5.67176e-08
1.25782e-05
-5.96343e-08
1.25983e-05
-6.04383e-08
1.26181e-05
-5.93762e-08
1.26374e-05
-5.781e-08
1.26562e-05
-5.6172e-08
1.26743e-05
-5.4519e-08
1.2692e-05
-5.29631e-08
1.27093e-05
-5.15701e-08
1.27262e-05
-5.0329e-08
1.27427e-05
-4.91748e-08
1.27591e-05
-4.80543e-08
1.27753e-05
-4.68164e-08
1.27913e-05
-4.56059e-08
1.28075e-05
-4.43655e-08
1.28237e-05
-4.48189e-08
-5.00182e-08
1.284e-05
1.25065e-05
-2.53279e-08
1.25218e-05
-6.02035e-08
1.25398e-05
-7.15188e-08
1.25588e-05
-7.57015e-08
1.25787e-05
-7.95832e-08
1.25989e-05
-8.06192e-08
1.26187e-05
-7.919e-08
1.2638e-05
-7.70988e-08
1.26567e-05
-7.49127e-08
1.26749e-05
-7.27135e-08
1.26926e-05
-7.06528e-08
1.27099e-05
-6.88222e-08
1.27268e-05
-6.72136e-08
1.27434e-05
-6.57591e-08
1.27597e-05
-6.43987e-08
1.27759e-05
-6.29927e-08
1.27919e-05
-6.16773e-08
1.28081e-05
-6.04766e-08
1.28242e-05
-6.09811e-08
-6.61849e-08
1.28404e-05
1.25068e-05
-3.21335e-08
1.25224e-05
-7.5762e-08
1.25404e-05
-8.95586e-08
1.25595e-05
-9.47528e-08
1.25795e-05
-9.95918e-08
1.25997e-05
-1.00828e-07
1.26195e-05
-9.90199e-08
1.26388e-05
-9.63987e-08
1.26575e-05
-9.36592e-08
1.26757e-05
-9.0911e-08
1.26934e-05
-8.83453e-08
1.27107e-05
-8.60776e-08
1.27276e-05
-8.4103e-08
1.27442e-05
-8.235e-08
1.27605e-05
-8.07519e-08
1.27767e-05
-7.91776e-08
1.27928e-05
-7.77532e-08
1.28089e-05
-7.65666e-08
1.2825e-05
-7.7083e-08
-8.22013e-08
1.2841e-05
1.25071e-05
-3.92724e-08
1.2523e-05
-9.1661e-08
1.25412e-05
-1.07702e-07
1.25603e-05
-1.1389e-07
1.25804e-05
-1.19675e-07
1.26006e-05
-1.21072e-07
1.26205e-05
-1.1887e-07
1.26398e-05
-1.15713e-07
1.26586e-05
-1.12413e-07
1.26768e-05
-1.09113e-07
1.26945e-05
-1.06042e-07
1.27117e-05
-1.03339e-07
1.27286e-05
-1.01e-07
1.27452e-05
-9.89515e-08
1.27616e-05
-9.7118e-08
1.27778e-05
-9.53748e-08
1.27939e-05
-9.38368e-08
1.28099e-05
-9.26395e-08
1.2826e-05
-9.31302e-08
-9.80844e-08
1.28419e-05
1.25076e-05
-4.68294e-08
1.25239e-05
-1.0797e-07
1.25421e-05
-1.25968e-07
1.25614e-05
-1.33132e-07
1.25815e-05
-1.39845e-07
1.26018e-05
-1.41358e-07
1.26217e-05
-1.38746e-07
1.2641e-05
-1.35046e-07
1.26598e-05
-1.31179e-07
1.2678e-05
-1.27324e-07
1.26957e-05
-1.23749e-07
1.2713e-05
-1.20612e-07
1.27299e-05
-1.17912e-07
1.27465e-05
-1.1557e-07
1.27629e-05
-1.13503e-07
1.27791e-05
-1.1159e-07
1.27952e-05
-1.09932e-07
1.28113e-05
-1.08699e-07
1.28273e-05
-1.09127e-07
-1.13847e-07
1.2843e-05
1.25081e-05
-5.49006e-08
1.25249e-05
-1.24759e-07
1.25433e-05
-1.44373e-07
1.25626e-05
-1.52501e-07
1.25829e-05
-1.60118e-07
1.26032e-05
-1.61692e-07
1.26231e-05
-1.58654e-07
1.26425e-05
-1.54403e-07
1.26613e-05
-1.49962e-07
1.26795e-05
-1.45551e-07
1.26972e-05
-1.41474e-07
1.27145e-05
-1.37905e-07
1.27315e-05
-1.34847e-07
1.27481e-05
-1.32214e-07
1.27645e-05
-1.29915e-07
1.27808e-05
-1.27828e-07
1.27969e-05
-1.26041e-07
1.28129e-05
-1.24746e-07
1.28289e-05
-1.25071e-07
-1.29491e-07
1.28445e-05
1.25087e-05
-6.35955e-08
1.2526e-05
-1.42097e-07
1.25446e-05
-1.62932e-07
1.25641e-05
-1.7202e-07
1.25845e-05
-1.80507e-07
1.26049e-05
-1.82085e-07
1.26248e-05
-1.78605e-07
1.26442e-05
-1.73797e-07
1.26631e-05
-1.68776e-07
1.26813e-05
-1.63809e-07
1.26991e-05
-1.59232e-07
1.27164e-05
-1.55236e-07
1.27334e-05
-1.51821e-07
1.27501e-05
-1.48896e-07
1.27665e-05
-1.4636e-07
1.27828e-05
-1.44091e-07
1.27989e-05
-1.42159e-07
1.28149e-05
-1.40769e-07
1.28308e-05
-1.40944e-07
-1.45001e-07
1.28463e-05
1.25094e-05
-7.30406e-08
1.25274e-05
-1.60052e-07
1.25461e-05
-1.81662e-07
1.25658e-05
-1.91714e-07
1.25863e-05
-2.01029e-07
1.26068e-05
-2.02552e-07
1.26268e-05
-1.98619e-07
1.26463e-05
-1.93251e-07
1.26652e-05
-1.87647e-07
1.26835e-05
-1.82125e-07
1.27013e-05
-1.77051e-07
1.27187e-05
-1.72625e-07
1.27357e-05
-1.68848e-07
1.27524e-05
-1.65622e-07
1.27689e-05
-1.62835e-07
1.27852e-05
-1.60363e-07
1.28013e-05
-1.58257e-07
1.28172e-05
-1.56728e-07
1.2833e-05
-1.56698e-07
-1.60323e-07
1.28483e-05
1.25103e-05
-8.33821e-08
1.2529e-05
-1.78692e-07
1.25479e-05
-2.0058e-07
1.25678e-05
-2.1162e-07
1.25885e-05
-2.21711e-07
1.26091e-05
-2.23126e-07
1.26292e-05
-2.18738e-07
1.26487e-05
-2.12811e-07
1.26677e-05
-2.06621e-07
1.26861e-05
-2.0054e-07
1.2704e-05
-1.9496e-07
1.27215e-05
-1.9009e-07
1.27386e-05
-1.8593e-07
1.27553e-05
-1.82376e-07
1.27718e-05
-1.79305e-07
1.2788e-05
-1.76588e-07
1.2804e-05
-1.7426e-07
1.28198e-05
-1.72528e-07
1.28354e-05
-1.72217e-07
-1.75331e-07
1.28504e-05
1.25114e-05
-9.47919e-08
1.25308e-05
-1.98081e-07
1.25499e-05
-2.19712e-07
1.25701e-05
-2.31794e-07
1.2591e-05
-2.4261e-07
1.26118e-05
-2.43878e-07
1.26321e-05
-2.39042e-07
1.26518e-05
-2.32553e-07
1.26709e-05
-2.25763e-07
1.26895e-05
-2.19101e-07
1.27075e-05
-2.12982e-07
1.27251e-05
-2.07624e-07
1.27422e-05
-2.03027e-07
1.27589e-05
-1.99084e-07
1.27752e-05
-1.95661e-07
1.27913e-05
-1.92626e-07
1.2807e-05
-1.89994e-07
1.28224e-05
-1.87967e-07
1.28375e-05
-1.87271e-07
-1.89774e-07
1.28519e-05
1.25127e-05
-1.07479e-07
1.25329e-05
-2.18283e-07
1.25523e-05
-2.39116e-07
1.25729e-05
-2.52355e-07
1.25941e-05
-2.63852e-07
1.26152e-05
-2.64952e-07
1.26358e-05
-2.5967e-07
1.26558e-05
-2.5259e-07
1.26752e-05
-2.45143e-07
1.26939e-05
-2.37824e-07
1.2712e-05
-2.31077e-07
1.27295e-05
-2.25128e-07
1.27465e-05
-2.19984e-07
1.27629e-05
-2.15534e-07
1.27789e-05
-2.11638e-07
1.27945e-05
-2.08159e-07
1.28096e-05
-2.05093e-07
1.28242e-05
-2.02631e-07
1.28383e-05
-2.014e-07
-2.03158e-07
1.28517e-05
1.25142e-05
-1.21711e-07
1.25354e-05
-2.39405e-07
1.25552e-05
-2.58942e-07
1.25764e-05
-2.73575e-07
1.25983e-05
-2.85713e-07
1.26199e-05
-2.86603e-07
1.26411e-05
-2.80811e-07
1.26615e-05
-2.73018e-07
1.26811e-05
-2.64754e-07
1.26999e-05
-2.56597e-07
1.27178e-05
-2.49024e-07
1.2735e-05
-2.4228e-07
1.27514e-05
-2.36381e-07
1.2767e-05
-2.31214e-07
1.2782e-05
-2.26634e-07
1.27964e-05
-2.22498e-07
1.28101e-05
-2.18783e-07
1.28231e-05
-2.15668e-07
1.28354e-05
-2.1367e-07
-2.1448e-07
1.28467e-05
1.25161e-05
-1.37853e-07
1.25385e-05
-2.61787e-07
1.25592e-05
-2.79609e-07
1.25817e-05
-2.96044e-07
1.26046e-05
-3.087e-07
1.26272e-05
-3.09173e-07
1.2649e-05
-3.02607e-07
1.26698e-05
-2.93761e-07
1.26893e-05
-2.84301e-07
1.27076e-05
-2.74912e-07
1.27247e-05
-2.66119e-07
1.27406e-05
-2.58188e-07
1.27554e-05
-2.51145e-07
1.27691e-05
-2.44879e-07
1.27817e-05
-2.39236e-07
1.27932e-05
-2.34066e-07
1.28038e-05
-2.2932e-07
1.28133e-05
-2.25163e-07
1.28216e-05
-2.21981e-07
-2.21484e-07
1.28286e-05
1.25186e-05
-1.56496e-07
1.25435e-05
-2.86649e-07
1.25662e-05
-3.02304e-07
1.25911e-05
-3.20918e-07
1.26159e-05
-3.3354e-07
1.26396e-05
-3.32866e-07
1.26617e-05
-3.24746e-07
1.2682e-05
-3.14015e-07
1.27002e-05
-3.02508e-07
1.27163e-05
-2.91046e-07
1.27304e-05
-2.80213e-07
1.27425e-05
-2.70293e-07
1.27527e-05
-2.61318e-07
1.2761e-05
-2.53171e-07
1.27674e-05
-2.45681e-07
1.27721e-05
-2.38685e-07
1.27748e-05
-2.32098e-07
1.27758e-05
-2.26072e-07
1.27746e-05
-2.20811e-07
-2.18301e-07
1.27714e-05
1.25233e-05
-1.79811e-07
1.25543e-05
-3.17666e-07
1.25822e-05
-3.30164e-07
1.26114e-05
-3.50084e-07
1.26384e-05
-3.60579e-07
1.2662e-05
-3.56468e-07
1.26818e-05
-3.4458e-07
1.26976e-05
-3.29784e-07
1.27092e-05
-3.14099e-07
1.27167e-05
-2.98508e-07
1.27201e-05
-2.83655e-07
1.27196e-05
-2.69828e-07
1.27154e-05
-2.57051e-07
1.27074e-05
-2.45196e-07
1.26958e-05
-2.34083e-07
1.26807e-05
-2.23554e-07
1.26621e-05
-2.13515e-07
1.26402e-05
-2.04151e-07
1.26148e-05
-1.95442e-07
-1.90169e-07
1.25867e-05
1.25407e-05
-2.20549e-07
1.25884e-05
-3.65313e-07
1.2628e-05
-3.69812e-07
1.26609e-05
-3.8299e-07
1.26833e-05
-3.82953e-07
1.26942e-05
-3.67342e-07
1.2694e-05
-3.44401e-07
1.26833e-05
-3.19072e-07
1.26628e-05
-2.93559e-07
1.26332e-05
-2.68999e-07
1.25957e-05
-2.46084e-07
1.2551e-05
-2.25117e-07
1.25001e-05
-2.06149e-07
1.2444e-05
-1.89097e-07
1.23837e-05
-1.73822e-07
1.23203e-05
-1.60182e-07
1.22549e-05
-1.48055e-07
1.21883e-05
-1.37529e-07
1.21212e-05
-1.28369e-07
-1.23101e-07
1.20541e-05
1.26413e-05
-3.61833e-07
1.27048e-05
-4.2879e-07
1.27223e-05
-3.8734e-07
1.26942e-05
-3.54914e-07
1.26301e-05
-3.18853e-07
1.25383e-05
-2.75482e-07
1.24265e-05
-2.32686e-07
1.23018e-05
-1.94377e-07
1.21699e-05
-1.61621e-07
1.20353e-05
-1.34431e-07
1.19017e-05
-1.12462e-07
1.17717e-05
-9.51218e-08
1.16473e-05
-8.17013e-08
1.15296e-05
-7.14633e-08
1.14195e-05
-6.37082e-08
1.13172e-05
-5.78256e-08
1.12224e-05
-5.33342e-08
1.11349e-05
-4.99644e-08
1.10541e-05
-4.75466e-08
-4.68056e-08
1.09778e-05
1.21382e-05
1.17094e-05
1.1322e-05
1.09671e-05
1.06483e-05
1.03728e-05
1.01401e-05
9.94572e-06
9.7841e-06
9.64967e-06
9.53721e-06
9.44209e-06
9.36039e-06
9.28892e-06
9.22521e-06
9.16739e-06
9.11405e-06
9.06409e-06
9.01654e-06
8.96974e-06
8.5791e-06
3.40739e-08
1.64057e-07
8.34525e-06
-9.74418e-09
2.43601e-07
8.09067e-06
-7.66289e-08
3.31202e-07
7.88097e-06
-1.37806e-07
3.47506e-07
7.72792e-06
-1.93841e-07
3.46893e-07
7.62549e-06
-2.33359e-07
3.35787e-07
7.56344e-06
-2.58494e-07
3.20545e-07
7.53018e-06
-2.70674e-07
3.03935e-07
7.51585e-06
-2.73203e-07
2.87531e-07
7.51384e-06
-2.70104e-07
2.72117e-07
7.52026e-06
-2.6499e-07
2.58574e-07
7.5329e-06
-2.60646e-07
2.48002e-07
7.5504e-06
-2.58888e-07
2.41385e-07
7.5717e-06
-2.60601e-07
2.39308e-07
7.59581e-06
-2.66089e-07
2.41972e-07
7.62181e-06
-2.75168e-07
2.49171e-07
7.64892e-06
-2.87746e-07
2.60632e-07
7.67656e-06
-3.03622e-07
2.75984e-07
7.70428e-06
-3.22511e-07
2.94793e-07
7.73177e-06
-3.44151e-07
3.16664e-07
7.7588e-06
-3.68291e-07
3.41258e-07
7.78523e-06
-3.94696e-07
3.68268e-07
7.81095e-06
-4.23157e-07
3.97434e-07
7.83592e-06
-4.53503e-07
4.28532e-07
7.86014e-06
-4.85596e-07
4.6138e-07
7.88363e-06
-5.19329e-07
4.95834e-07
7.90647e-06
-5.54618e-07
5.3178e-07
7.92873e-06
-5.91398e-07
5.69134e-07
7.95051e-06
-6.2962e-07
6.07841e-07
7.9719e-06
-6.69251e-07
6.47865e-07
7.99299e-06
-7.10276e-07
6.89189e-07
8.01386e-06
-7.5269e-07
7.31816e-07
8.0346e-06
-7.96501e-07
7.75761e-07
8.05528e-06
-8.41727e-07
8.21049e-07
8.07595e-06
-8.8839e-07
8.67715e-07
8.09667e-06
-9.36519e-07
9.15798e-07
8.11748e-06
-9.8614e-07
9.65336e-07
8.13839e-06
-1.03728e-06
1.01637e-06
8.15942e-06
-1.08996e-06
1.06893e-06
8.18058e-06
-1.14421e-06
1.12305e-06
8.20185e-06
-1.20002e-06
1.17875e-06
8.22323e-06
-1.2574e-06
1.23603e-06
8.24469e-06
-1.31635e-06
1.29489e-06
8.2662e-06
-1.37682e-06
1.35531e-06
8.28773e-06
-1.43879e-06
1.41725e-06
8.30925e-06
-1.50219e-06
1.48067e-06
8.3307e-06
-1.56696e-06
1.5455e-06
8.35204e-06
-1.633e-06
1.61166e-06
8.37322e-06
-1.7002e-06
1.67902e-06
8.39418e-06
-1.76844e-06
1.74748e-06
8.41487e-06
-1.83756e-06
1.81687e-06
8.43523e-06
-1.9074e-06
1.88703e-06
8.45521e-06
-1.97776e-06
1.95778e-06
8.47474e-06
-2.04844e-06
2.02891e-06
8.49379e-06
-2.11922e-06
2.10018e-06
8.51228e-06
-2.18986e-06
2.17137e-06
8.53018e-06
-2.26011e-06
2.24221e-06
8.54745e-06
-2.32972e-06
2.31245e-06
8.56405e-06
-2.39842e-06
2.38183e-06
8.57994e-06
-2.46597e-06
2.45008e-06
8.59512e-06
-2.53212e-06
2.51695e-06
8.60957e-06
-2.59664e-06
2.58219e-06
8.6233e-06
-2.65933e-06
2.64559e-06
8.63633e-06
-2.71999e-06
2.70696e-06
8.64869e-06
-2.7785e-06
2.76614e-06
8.66043e-06
-2.83475e-06
2.82301e-06
8.67161e-06
-2.88868e-06
2.8775e-06
8.68232e-06
-2.9403e-06
2.92959e-06
8.69266e-06
-2.98966e-06
2.97932e-06
8.70274e-06
-3.03685e-06
3.02677e-06
8.71271e-06
-3.08206e-06
3.0721e-06
8.7227e-06
-3.1255e-06
3.11551e-06
8.73288e-06
-3.16744e-06
3.15726e-06
8.74341e-06
-3.20821e-06
3.19768e-06
8.75449e-06
-3.24818e-06
3.2371e-06
8.7663e-06
-3.28774e-06
3.27594e-06
8.77901e-06
-3.32732e-06
3.3146e-06
8.79283e-06
-3.36737e-06
3.35356e-06
8.80792e-06
-3.40835e-06
3.39325e-06
8.82447e-06
-3.4507e-06
3.43416e-06
8.84263e-06
-3.49489e-06
3.47673e-06
8.86254e-06
-3.54134e-06
3.52142e-06
8.88434e-06
-3.59046e-06
3.56865e-06
8.90813e-06
-3.64261e-06
3.61882e-06
8.93399e-06
-3.69812e-06
3.67227e-06
8.96196e-06
-3.75729e-06
3.72932e-06
8.99206e-06
-3.82033e-06
3.79022e-06
9.02428e-06
-3.88741e-06
3.85519e-06
9.05856e-06
-3.95864e-06
3.92436e-06
9.09479e-06
-4.03405e-06
3.99782e-06
9.13283e-06
-4.11361e-06
4.07557e-06
9.17248e-06
-4.19721e-06
4.15756e-06
9.21349e-06
-4.28466e-06
4.24366e-06
9.25553e-06
-4.37569e-06
4.33365e-06
9.29822e-06
-4.46994e-06
4.42724e-06
9.34113e-06
-4.56696e-06
4.52405e-06
9.38373e-06
-4.66623e-06
4.62363e-06
9.42543e-06
-4.76711e-06
4.72541e-06
9.46563e-06
-4.86893e-06
4.82874e-06
9.50365e-06
-4.9709e-06
4.93288e-06
9.53885e-06
-5.07223e-06
5.03702e-06
9.57067e-06
-5.17209e-06
5.14027e-06
9.5987e-06
-5.26975e-06
5.24172e-06
9.62279e-06
-5.3646e-06
5.34052e-06
9.64308e-06
-5.45618e-06
5.43588e-06
9.66009e-06
-5.54419e-06
5.52718e-06
9.67456e-06
-5.6283e-06
5.61383e-06
9.68752e-06
-5.70819e-06
5.69523e-06
9.70044e-06
-5.7838e-06
5.77088e-06
9.7156e-06
-5.85593e-06
5.84076e-06
9.73631e-06
-5.9267e-06
5.90599e-06
9.76621e-06
-5.99877e-06
5.96888e-06
9.80736e-06
-6.07286e-06
6.0317e-06
9.85776e-06
-6.14433e-06
6.09393e-06
9.91e-06
-6.20155e-06
6.14932e-06
9.95268e-06
-6.22808e-06
6.1854e-06
9.97421e-06
-6.20804e-06
6.1865e-06
9.96685e-06
-6.13178e-06
6.13914e-06
9.92888e-06
-5.99854e-06
6.03651e-06
9.86436e-06
-5.81542e-06
5.87995e-06
9.78102e-06
-5.59382e-06
5.67716e-06
9.68778e-06
-5.34555e-06
5.43878e-06
9.59277e-06
-5.08014e-06
5.17515e-06
9.5022e-06
-4.80369e-06
4.89426e-06
9.42018e-06
-4.51905e-06
4.60108e-06
9.34891e-06
-4.22662e-06
4.29788e-06
9.28922e-06
-3.92531e-06
3.985e-06
9.241e-06
-3.61341e-06
3.66163e-06
9.20363e-06
-3.28909e-06
3.32646e-06
9.17626e-06
-2.95082e-06
2.97819e-06
9.15799e-06
-2.59745e-06
2.61572e-06
9.14799e-06
-2.22826e-06
2.23826e-06
9.14555e-06
-1.84296e-06
1.8454e-06
9.15009e-06
-1.44156e-06
1.43702e-06
9.16113e-06
-1.02436e-06
1.01332e-06
9.17829e-06
-5.91835e-07
5.74674e-07
9.20126e-06
-1.44535e-07
1.21561e-07
9.22977e-06
3.16949e-07
-3.4546e-07
9.26348e-06
7.91744e-07
-8.25448e-07
9.30181e-06
1.27876e-06
-1.31709e-06
9.34376e-06
1.77652e-06
-1.81846e-06
9.38751e-06
2.28271e-06
-2.32646e-06
9.43013e-06
2.79351e-06
-2.83612e-06
9.46736e-06
3.30282e-06
-3.34005e-06
9.49393e-06
3.80181e-06
-3.82838e-06
9.50431e-06
4.27914e-06
-4.28952e-06
9.49383e-06
4.72213e-06
-4.71164e-06
9.45965e-06
5.1186e-06
-5.08441e-06
9.40125e-06
5.45875e-06
-5.40034e-06
9.32027e-06
5.73634e-06
-5.65537e-06
9.21999e-06
5.94904e-06
-5.84875e-06
9.10453e-06
6.09788e-06
-5.98243e-06
8.97828e-06
6.18653e-06
-6.06028e-06
8.84539e-06
6.22026e-06
-6.08736e-06
8.7095e-06
6.20522e-06
-6.06934e-06
8.57364e-06
6.14785e-06
-6.01199e-06
8.44018e-06
6.05443e-06
-5.92097e-06
8.3109e-06
5.93088e-06
-5.8016e-06
8.18703e-06
5.78267e-06
-5.6588e-06
8.06939e-06
5.61473e-06
-5.49709e-06
7.95843e-06
5.43151e-06
-5.32056e-06
7.85435e-06
5.23705e-06
-5.13296e-06
7.75712e-06
5.03497e-06
-4.93775e-06
7.6666e-06
4.82864e-06
-4.73811e-06
7.58254e-06
4.62113e-06
-4.53707e-06
7.50462e-06
4.41538e-06
-4.33747e-06
7.43253e-06
4.21417e-06
-4.14208e-06
7.36593e-06
4.02017e-06
-3.95358e-06
7.30451e-06
3.83603e-06
-3.77461e-06
7.24797e-06
3.66433e-06
-3.60778e-06
7.19603e-06
3.50763e-06
-3.45569e-06
7.14845e-06
3.36847e-06
-3.3209e-06
7.10503e-06
3.24938e-06
-3.20596e-06
7.06557e-06
3.15285e-06
-3.11339e-06
7.0299e-06
3.08135e-06
-3.04567e-06
6.99786e-06
3.03729e-06
-3.00525e-06
6.9693e-06
3.02306e-06
-2.9945e-06
6.94408e-06
3.04096e-06
-3.01573e-06
6.92202e-06
3.09325e-06
-3.0712e-06
6.90296e-06
3.18216e-06
-3.1631e-06
6.88669e-06
3.3099e-06
-3.29363e-06
6.87295e-06
3.47873e-06
-3.465e-06
6.86145e-06
3.69104e-06
-3.67954e-06
6.85182e-06
3.94945e-06
-3.93982e-06
6.8436e-06
4.25697e-06
-4.24875e-06
6.83622e-06
4.6172e-06
-4.60982e-06
6.82895e-06
5.03463e-06
-5.02736e-06
6.82086e-06
5.51497e-06
-5.50688e-06
6.81077e-06
6.06571e-06
-6.05562e-06
6.79711e-06
6.69685e-06
-6.68319e-06
6.7778e-06
7.42192e-06
-7.40262e-06
6.75e-06
8.25971e-06
-8.23191e-06
6.70967e-06
9.23589e-06
-9.19555e-06
6.65105e-06
1.03884e-05
-1.03298e-05
6.56515e-06
1.17663e-05
-1.16804e-05
6.43928e-06
1.34641e-05
-1.33383e-05
6.23931e-06
1.55691e-05
-1.53691e-05
5.90575e-06
1.8477e-05
-1.81434e-05
5.26415e-06
2.18325e-05
-2.11909e-05
2.89437e-05
-2.88515e-05
5.17193e-06
1.09815e-05
6.94991e-08
1.09153e-05
5.64532e-08
1.08083e-05
3.0322e-08
1.06732e-05
-2.64375e-09
1.05127e-05
-3.33962e-08
1.03362e-05
-5.68062e-08
1.01543e-05
-7.66623e-08
9.97715e-06
-9.34997e-08
9.81264e-06
-1.08699e-07
9.66595e-06
-1.23408e-07
9.53925e-06
-1.38292e-07
9.43226e-06
-1.53654e-07
9.34306e-06
-1.69687e-07
9.26904e-06
-1.8658e-07
9.20763e-06
-2.04681e-07
9.15653e-06
-2.24069e-07
9.11404e-06
-2.45262e-07
9.07879e-06
-2.68368e-07
9.04962e-06
-2.93336e-07
9.02553e-06
-3.20062e-07
9.00565e-06
-3.48414e-07
8.98923e-06
-3.78273e-07
8.97563e-06
-4.09562e-07
8.96436e-06
-4.42237e-07
8.95504e-06
-4.76275e-07
8.94737e-06
-5.11659e-07
8.94113e-06
-5.48372e-07
8.93613e-06
-5.86405e-07
8.93226e-06
-6.25749e-07
8.92942e-06
-6.66409e-07
8.92754e-06
-7.08397e-07
8.92659e-06
-7.51732e-07
8.92652e-06
-7.96439e-07
8.92734e-06
-8.42543e-07
8.92902e-06
-8.90071e-07
8.93155e-06
-9.39049e-07
8.93491e-06
-9.89502e-07
8.93908e-06
-1.04145e-06
8.94403e-06
-1.09491e-06
8.94972e-06
-1.1499e-06
8.95612e-06
-1.20642e-06
8.96316e-06
-1.26445e-06
8.97081e-06
-1.32399e-06
8.97899e-06
-1.385e-06
8.98765e-06
-1.44744e-06
8.99671e-06
-1.51125e-06
9.0061e-06
-1.57635e-06
9.01574e-06
-1.64264e-06
9.02556e-06
-1.71001e-06
9.03546e-06
-1.77834e-06
9.04536e-06
-1.84746e-06
9.05518e-06
-1.91722e-06
9.06484e-06
-1.98742e-06
9.07426e-06
-2.05786e-06
9.08335e-06
-2.12831e-06
9.09203e-06
-2.19855e-06
9.10025e-06
-2.26833e-06
9.10793e-06
-2.3374e-06
9.11502e-06
-2.40551e-06
9.12146e-06
-2.47242e-06
9.12724e-06
-2.5379e-06
9.13232e-06
-2.60172e-06
9.13669e-06
-2.6637e-06
9.14037e-06
-2.72367e-06
9.14338e-06
-2.78151e-06
9.14576e-06
-2.83713e-06
9.14757e-06
-2.8905e-06
9.14891e-06
-2.94164e-06
9.14986e-06
-2.99061e-06
9.15056e-06
-3.03755e-06
9.15113e-06
-3.08263e-06
9.15174e-06
-3.12611e-06
9.15255e-06
-3.16825e-06
9.15374e-06
-3.2094e-06
9.15549e-06
-3.24994e-06
9.15801e-06
-3.29026e-06
9.16148e-06
-3.33079e-06
9.16609e-06
-3.37198e-06
9.17203e-06
-3.41428e-06
9.17947e-06
-3.45814e-06
9.18856e-06
-3.50398e-06
9.19944e-06
-3.55222e-06
9.21223e-06
-3.60324e-06
9.22701e-06
-3.65739e-06
9.24384e-06
-3.71495e-06
9.26274e-06
-3.77619e-06
9.2837e-06
-3.84128e-06
9.30665e-06
-3.91036e-06
9.33149e-06
-3.98348e-06
9.35806e-06
-4.06062e-06
9.38616e-06
-4.14171e-06
9.41551e-06
-4.22656e-06
9.44577e-06
-4.31492e-06
9.47654e-06
-4.40646e-06
9.50734e-06
-4.50074e-06
9.53765e-06
-4.59727e-06
9.56686e-06
-4.69544e-06
9.59435e-06
-4.7946e-06
9.61947e-06
-4.89405e-06
9.64162e-06
-4.99305e-06
9.6603e-06
-5.09091e-06
9.6752e-06
-5.18699e-06
9.68627e-06
-5.28083e-06
9.69382e-06
-5.37215e-06
9.6985e-06
-5.46086e-06
9.7012e-06
-5.54689e-06
9.703e-06