/*--------------------------------*- C++ -*----------------------------------*\
| =========                 |                                                 |
| \\      /  F ield         | OpenFOAM: The Open Source CFD Toolbox           |
|  \\    /   O peration     | Version:  2.4.0                                 |
|   \\  /    A nd           | Web:      www.OpenFOAM.org                      |
|    \\/     M anipulation  |                                                 |
\*---------------------------------------------------------------------------*/
FoamFile
{
    version     2.0;
    format      ascii;
    class       volScalarField;
    location    "0.204";
    object      pPrime2Mean;
}
// * * * * * * * * * * * * * * * * * * * * * * * * * * * * * * * * * * * * * //

dimensions      [0 4 -4 0 0 0 0];

internalField   nonuniform List<scalar> 
17600
(
3.16783e+06
3.08795e+06
3.00206e+06
2.91694e+06
2.83303e+06
2.75035e+06
2.66888e+06
2.58864e+06
2.50962e+06
2.43181e+06
2.35521e+06
2.27981e+06
2.20559e+06
2.1325e+06
2.06048e+06
1.98937e+06
1.91891e+06
1.84854e+06
1.777e+06
1.70001e+06
3.1679e+06
3.08795e+06
3.00206e+06
2.91694e+06
2.83303e+06
2.75035e+06
2.66888e+06
2.58864e+06
2.50962e+06
2.43181e+06
2.35521e+06
2.27981e+06
2.20559e+06
2.1325e+06
2.06048e+06
1.98938e+06
1.91893e+06
1.84858e+06
1.7771e+06
1.70021e+06
3.16795e+06
3.08794e+06
3.00205e+06
2.91694e+06
2.83303e+06
2.75034e+06
2.66888e+06
2.58864e+06
2.50962e+06
2.43181e+06
2.35521e+06
2.27981e+06
2.20559e+06
2.13251e+06
2.06049e+06
1.9894e+06
1.91897e+06
1.84866e+06
1.77729e+06
1.701e+06
3.16798e+06
3.08792e+06
3.00204e+06
2.91693e+06
2.83303e+06
2.75034e+06
2.66888e+06
2.58864e+06
2.50962e+06
2.43181e+06
2.35521e+06
2.27982e+06
2.2056e+06
2.13252e+06
2.06051e+06
1.98943e+06
1.91903e+06
1.84878e+06
1.77757e+06
1.70211e+06
3.16801e+06
3.08791e+06
3.00203e+06
2.91693e+06
2.83302e+06
2.75034e+06
2.66888e+06
2.58864e+06
2.50962e+06
2.43181e+06
2.35522e+06
2.27982e+06
2.2056e+06
2.13253e+06
2.06052e+06
1.98946e+06
1.9191e+06
1.84894e+06
1.77794e+06
1.70343e+06
3.16804e+06
3.0879e+06
3.00202e+06
2.91693e+06
2.83302e+06
2.75034e+06
2.66888e+06
2.58864e+06
2.50962e+06
2.43181e+06
2.35522e+06
2.27982e+06
2.20561e+06
2.13254e+06
2.06055e+06
1.98951e+06
1.91919e+06
1.84913e+06
1.77838e+06
1.70487e+06
3.16806e+06
3.08789e+06
3.00201e+06
2.91692e+06
2.83302e+06
2.75034e+06
2.66888e+06
2.58864e+06
2.50962e+06
2.43181e+06
2.35522e+06
2.27983e+06
2.20562e+06
2.13256e+06
2.06058e+06
1.98957e+06
1.9193e+06
1.84936e+06
1.7789e+06
1.70638e+06
3.16809e+06
3.08788e+06
3.002e+06
2.91692e+06
2.83302e+06
2.75034e+06
2.66888e+06
2.58864e+06
2.50962e+06
2.43181e+06
2.35522e+06
2.27983e+06
2.20563e+06
2.13257e+06
2.06061e+06
1.98963e+06
1.91942e+06
1.84961e+06
1.77946e+06
1.70792e+06
3.16811e+06
3.08788e+06
3.002e+06
2.91692e+06
2.83302e+06
2.75034e+06
2.66888e+06
2.58864e+06
2.50962e+06
2.43181e+06
2.35522e+06
2.27984e+06
2.20564e+06
2.13259e+06
2.06065e+06
1.9897e+06
1.91956e+06
1.84988e+06
1.78008e+06
1.70947e+06
3.16813e+06
3.08787e+06
3.00199e+06
2.91692e+06
2.83302e+06
2.75034e+06
2.66888e+06
2.58864e+06
2.50962e+06
2.43182e+06
2.35523e+06
2.27984e+06
2.20565e+06
2.13261e+06
2.06069e+06
1.98978e+06
1.91971e+06
1.85018e+06
1.78072e+06
1.711e+06
3.16815e+06
3.08787e+06
3.00198e+06
2.91691e+06
2.83302e+06
2.75034e+06
2.66888e+06
2.58864e+06
2.50962e+06
2.43182e+06
2.35523e+06
2.27985e+06
2.20566e+06
2.13264e+06
2.06073e+06
1.98986e+06
1.91987e+06
1.8505e+06
1.78139e+06
1.7125e+06
3.16816e+06
3.08787e+06
3.00197e+06
2.91691e+06
2.83302e+06
2.75034e+06
2.66888e+06
2.58864e+06
2.50962e+06
2.43182e+06
2.35523e+06
2.27986e+06
2.20568e+06
2.13266e+06
2.06078e+06
1.98995e+06
1.92004e+06
1.85083e+06
1.78208e+06
1.71397e+06
3.16817e+06
3.08786e+06
3.00197e+06
2.91691e+06
2.83302e+06
2.75034e+06
2.66888e+06
2.58864e+06
2.50962e+06
2.43182e+06
2.35524e+06
2.27987e+06
2.20569e+06
2.13269e+06
2.06083e+06
1.99004e+06
1.92022e+06
1.85118e+06
1.78278e+06
1.71539e+06
3.16818e+06
3.08786e+06
3.00196e+06
2.9169e+06
2.83302e+06
2.75034e+06
2.66888e+06
2.58864e+06
2.50962e+06
2.43182e+06
2.35524e+06
2.27987e+06
2.20571e+06
2.13272e+06
2.06088e+06
1.99014e+06
1.9204e+06
1.85154e+06
1.78349e+06
1.71677e+06
3.16819e+06
3.08786e+06
3.00196e+06
2.9169e+06
2.83302e+06
2.75034e+06
2.66888e+06
2.58864e+06
2.50962e+06
2.43183e+06
2.35525e+06
2.27988e+06
2.20572e+06
2.13275e+06
2.06094e+06
1.99024e+06
1.92059e+06
1.8519e+06
1.78419e+06
1.71809e+06
3.1682e+06
3.08786e+06
3.00195e+06
2.9169e+06
2.83302e+06
2.75034e+06
2.66888e+06
2.58864e+06
2.50962e+06
2.43183e+06
2.35525e+06
2.27989e+06
2.20574e+06
2.13278e+06
2.06099e+06
1.99035e+06
1.92079e+06
1.85227e+06
1.78489e+06
1.71936e+06
3.16821e+06
3.08786e+06
3.00195e+06
2.9169e+06
2.83302e+06
2.75034e+06
2.66888e+06
2.58864e+06
2.50962e+06
2.43183e+06
2.35526e+06
2.2799e+06
2.20576e+06
2.13281e+06
2.06105e+06
1.99045e+06
1.92099e+06
1.85264e+06
1.78558e+06
1.72058e+06
3.16821e+06
3.08786e+06
3.00195e+06
2.9169e+06
2.83302e+06
2.75034e+06
2.66888e+06
2.58864e+06
2.50962e+06
2.43183e+06
2.35526e+06
2.27991e+06
2.20577e+06
2.13284e+06
2.06111e+06
1.99056e+06
1.92119e+06
1.85301e+06
1.78625e+06
1.72174e+06
3.16822e+06
3.08786e+06
3.00195e+06
2.91689e+06
2.83302e+06
2.75034e+06
2.66888e+06
2.58864e+06
2.50963e+06
2.43184e+06
2.35527e+06
2.27992e+06
2.20579e+06
2.13288e+06
2.06117e+06
1.99067e+06
1.92139e+06
1.85338e+06
1.78691e+06
1.72285e+06
3.16822e+06
3.08786e+06
3.00194e+06
2.91689e+06
2.83302e+06
2.75034e+06
2.66888e+06
2.58864e+06
2.50963e+06
2.43184e+06
2.35527e+06
2.27993e+06
2.20581e+06
2.13291e+06
2.06123e+06
1.99078e+06
1.92159e+06
1.85374e+06
1.78755e+06
1.7239e+06
3.16822e+06
3.08786e+06
3.00194e+06
2.91689e+06
2.83302e+06
2.75035e+06
2.66888e+06
2.58864e+06
2.50963e+06
2.43184e+06
2.35528e+06
2.27994e+06
2.20583e+06
2.13294e+06
2.06129e+06
1.99089e+06
1.92179e+06
1.8541e+06
1.78817e+06
1.72489e+06
3.16822e+06
3.08786e+06
3.00195e+06
2.91689e+06
2.83302e+06
2.75035e+06
2.66888e+06
2.58864e+06
2.50963e+06
2.43184e+06
2.35528e+06
2.27995e+06
2.20584e+06
2.13297e+06
2.06135e+06
1.991e+06
1.92198e+06
1.85445e+06
1.78877e+06
1.72584e+06
3.16821e+06
3.08786e+06
3.00195e+06
2.9169e+06
2.83302e+06
2.75035e+06
2.66888e+06
2.58864e+06
2.50963e+06
2.43185e+06
2.35529e+06
2.27996e+06
2.20586e+06
2.13301e+06
2.06141e+06
1.99111e+06
1.92217e+06
1.85478e+06
1.78934e+06
1.72672e+06
3.16821e+06
3.08786e+06
3.00195e+06
2.9169e+06
2.83302e+06
2.75035e+06
2.66888e+06
2.58864e+06
2.50963e+06
2.43185e+06
2.3553e+06
2.27997e+06
2.20588e+06
2.13304e+06
2.06147e+06
1.99121e+06
1.92236e+06
1.85511e+06
1.78988e+06
1.72756e+06
3.1682e+06
3.08786e+06
3.00195e+06
2.9169e+06
2.83302e+06
2.75035e+06
2.66888e+06
2.58865e+06
2.50964e+06
2.43185e+06
2.3553e+06
2.27998e+06
2.2059e+06
2.13307e+06
2.06152e+06
1.99131e+06
1.92254e+06
1.85542e+06
1.7904e+06
1.72834e+06
3.16819e+06
3.08786e+06
3.00196e+06
2.9169e+06
2.83302e+06
2.75034e+06
2.66888e+06
2.58865e+06
2.50964e+06
2.43186e+06
2.35531e+06
2.27999e+06
2.20591e+06
2.1331e+06
2.06158e+06
1.99141e+06
1.92271e+06
1.85572e+06
1.79089e+06
1.72907e+06
3.16818e+06
3.08786e+06
3.00196e+06
2.91691e+06
2.83302e+06
2.75034e+06
2.66888e+06
2.58865e+06
2.50964e+06
2.43186e+06
2.35531e+06
2.28e+06
2.20593e+06
2.13313e+06
2.06163e+06
1.9915e+06
1.92288e+06
1.856e+06
1.79135e+06
1.72974e+06
3.16817e+06
3.08787e+06
3.00197e+06
2.91691e+06
2.83302e+06
2.75034e+06
2.66888e+06
2.58865e+06
2.50964e+06
2.43186e+06
2.35531e+06
2.28e+06
2.20594e+06
2.13316e+06
2.06168e+06
1.99159e+06
1.92303e+06
1.85626e+06
1.79178e+06
1.73037e+06
3.16816e+06
3.08787e+06
3.00197e+06
2.91691e+06
2.83302e+06
2.75034e+06
2.66889e+06
2.58865e+06
2.50964e+06
2.43187e+06
2.35532e+06
2.28001e+06
2.20596e+06
2.13318e+06
2.06173e+06
1.99167e+06
1.92318e+06
1.85651e+06
1.79217e+06
1.73095e+06
3.16815e+06
3.08787e+06
3.00198e+06
2.91692e+06
2.83302e+06
2.75034e+06
2.66889e+06
2.58865e+06
2.50965e+06
2.43187e+06
2.35532e+06
2.28002e+06
2.20597e+06
2.13321e+06
2.06177e+06
1.99175e+06
1.92331e+06
1.85674e+06
1.79254e+06
1.73148e+06
3.16813e+06
3.08787e+06
3.00199e+06
2.91692e+06
2.83302e+06
2.75034e+06
2.66889e+06
2.58865e+06
2.50965e+06
2.43187e+06
2.35533e+06
2.28003e+06
2.20598e+06
2.13323e+06
2.06181e+06
1.99182e+06
1.92344e+06
1.85695e+06
1.79287e+06
1.73195e+06
3.16811e+06
3.08788e+06
3.002e+06
2.91692e+06
2.83302e+06
2.75035e+06
2.66889e+06
2.58866e+06
2.50965e+06
2.43187e+06
2.35533e+06
2.28003e+06
2.206e+06
2.13325e+06
2.06185e+06
1.99189e+06
1.92355e+06
1.85714e+06
1.79317e+06
1.73238e+06
3.16809e+06
3.08788e+06
3.00201e+06
2.91692e+06
2.83302e+06
2.75035e+06
2.66889e+06
2.58866e+06
2.50965e+06
2.43188e+06
2.35533e+06
2.28004e+06
2.20601e+06
2.13327e+06
2.06188e+06
1.99195e+06
1.92366e+06
1.85731e+06
1.79344e+06
1.73276e+06
3.16806e+06
3.08789e+06
3.00202e+06
2.91693e+06
2.83302e+06
2.75035e+06
2.66889e+06
2.58866e+06
2.50965e+06
2.43188e+06
2.35534e+06
2.28004e+06
2.20602e+06
2.13329e+06
2.06191e+06
1.992e+06
1.92375e+06
1.85747e+06
1.79367e+06
1.7331e+06
3.16804e+06
3.0879e+06
3.00203e+06
2.91693e+06
2.83303e+06
2.75035e+06
2.66889e+06
2.58866e+06
2.50965e+06
2.43188e+06
2.35534e+06
2.28005e+06
2.20602e+06
2.1333e+06
2.06194e+06
1.99205e+06
1.92382e+06
1.8576e+06
1.79387e+06
1.73338e+06
3.16801e+06
3.08791e+06
3.00203e+06
2.91693e+06
2.83303e+06
2.75035e+06
2.66889e+06
2.58866e+06
2.50966e+06
2.43188e+06
2.35534e+06
2.28005e+06
2.20603e+06
2.13331e+06
2.06196e+06
1.99209e+06
1.92389e+06
1.8577e+06
1.79404e+06
1.73362e+06
3.16798e+06
3.08793e+06
3.00204e+06
2.91694e+06
2.83303e+06
2.75035e+06
2.66889e+06
2.58866e+06
2.50966e+06
2.43188e+06
2.35534e+06
2.28006e+06
2.20604e+06
2.13332e+06
2.06198e+06
1.99212e+06
1.92394e+06
1.85779e+06
1.79418e+06
1.7338e+06
3.16795e+06
3.08794e+06
3.00205e+06
2.91694e+06
2.83303e+06
2.75035e+06
2.66889e+06
2.58866e+06
2.50966e+06
2.43188e+06
2.35535e+06
2.28006e+06
2.20604e+06
2.13333e+06
2.06199e+06
1.99214e+06
1.92398e+06
1.85786e+06
1.79428e+06
1.73394e+06
3.1679e+06
3.08795e+06
3.00206e+06
2.91694e+06
2.83303e+06
2.75035e+06
2.66889e+06
2.58866e+06
2.50966e+06
2.43188e+06
2.35535e+06
2.28006e+06
2.20604e+06
2.13333e+06
2.062e+06
1.99216e+06
1.92401e+06
1.8579e+06
1.79435e+06
1.73404e+06
3.16783e+06
3.08795e+06
3.00206e+06
2.91694e+06
2.83303e+06
2.75035e+06
2.66889e+06
2.58866e+06
2.50966e+06
2.43188e+06
2.35535e+06
2.28006e+06
2.20604e+06
2.13334e+06
2.062e+06
1.99217e+06
1.92402e+06
1.85792e+06
1.79438e+06
1.73408e+06
1.62709e+06
1.60964e+06
1.59614e+06
1.58432e+06
1.57325e+06
1.56267e+06
1.55243e+06
1.54244e+06
1.53266e+06
1.52304e+06
1.51355e+06
1.50416e+06
1.49486e+06
1.48563e+06
1.47646e+06
1.46734e+06
1.45826e+06
1.44921e+06
1.4402e+06
1.43122e+06
1.42228e+06
1.41336e+06
1.40446e+06
1.39559e+06
1.38673e+06
1.37789e+06
1.36908e+06
1.3603e+06
1.35155e+06
1.34284e+06
1.33416e+06
1.32552e+06
1.31691e+06
1.30833e+06
1.29979e+06
1.29128e+06
1.2828e+06
1.27435e+06
1.26594e+06
1.25756e+06
1.24922e+06
1.24091e+06
1.23263e+06
1.22438e+06
1.21616e+06
1.20797e+06
1.19982e+06
1.19169e+06
1.1836e+06
1.17554e+06
1.16751e+06
1.15951e+06
1.15154e+06
1.1436e+06
1.1357e+06
1.12782e+06
1.11998e+06
1.11216e+06
1.10437e+06
1.09662e+06
1.08889e+06
1.0812e+06
1.07353e+06
1.06589e+06
1.05827e+06
1.05068e+06
1.04311e+06
1.03556e+06
1.02804e+06
1.02054e+06
1.01307e+06
1.00562e+06
998196
990805
983447
976120
968821
961549
954302
947079
939876
932694
925533
918394
911277
904183
897113
890066
883041
876040
869064
862115
855193
848302
841442
834613
827815
821048
814314
807611
800940
794300
787689
781107
774551
768023
761521
755046
748598
742176
735780
729411
723069
716754
710466
704208
697980
691782
685614
679477
673371
667296
661251
655236
649250
643294
637365
631465
625592
619744
613924
608128
602358
596613
590893
585197
579527
573881
568261
562665
557094
551549
546031
540539
535076
529641
524236
518862
513517
508202
502917
497663
492436
487239
482069
476928
471814
466728
461670
456640
451636
446661
441713
436792
431898
427031
422189
417374
412582
407816
403073
398357
393662
388996
384350
379735
375134
370570
366012
361498
356984
352517
348046
343623
339193
334806
330410
326051
321677
317330
312961
308601
304205
299788
295305
290748
286055
281181
275898
270132
1.63536e+06
1.61635e+06
1.60142e+06
1.58863e+06
1.5769e+06
1.56582e+06
1.55517e+06
1.54486e+06
1.5348e+06
1.52494e+06
1.51524e+06
1.50567e+06
1.49621e+06
1.48684e+06
1.47754e+06
1.4683e+06
1.45912e+06
1.44998e+06
1.44089e+06
1.43183e+06
1.42282e+06
1.41384e+06
1.40489e+06
1.39597e+06
1.38707e+06
1.3782e+06
1.36936e+06
1.36056e+06
1.35178e+06
1.34305e+06
1.33434e+06
1.32568e+06
1.31705e+06
1.30846e+06
1.2999e+06
1.29138e+06
1.28289e+06
1.27443e+06
1.26601e+06
1.25763e+06
1.24928e+06
1.24096e+06
1.23268e+06
1.22443e+06
1.21621e+06
1.20803e+06
1.19987e+06
1.19175e+06
1.18365e+06
1.17559e+06
1.16756e+06
1.15956e+06
1.15159e+06
1.14365e+06
1.13574e+06
1.12787e+06
1.12002e+06
1.11221e+06
1.10442e+06
1.09667e+06
1.08895e+06
1.08125e+06
1.07359e+06
1.06595e+06
1.05833e+06
1.05074e+06
1.04317e+06
1.03562e+06
1.0281e+06
1.02059e+06
1.01312e+06
1.00567e+06
998248
990858
983500
976172
968872
961598
954349
947123
939916
932731
925566
918422
911302
904205
897132
890082
883055
876053
869076
862125
855203
848311
841450
834621
827822
821056
814321
807617
800945
794305
787694
781110
774554
768024
761522
755047
748599
742178
735783
729414
723072
716758
710471
704214
697986
691788
685621
679485
673379
667304
661259
655244
649258
643301
637372
631471
625598
619750
613929
608133
602362
596616
590896
585199
579528
573881
568260
562662
557090
551544
546024
540531
535066
529630
524223
518847
513500
508184
502897
497640
492412
487212
482039
476894
471777
466688
461626
456591
451582
446601
441647
436720
431819
426944
422094
417270
412470
407694
402939
398212
393503
388824
384160
379530
374908
370324
365742
361202
356659
352159
347654
343190
338718
334282
329834
325414
320975
316551
312100
307642
303136
298588
293950
289202
284264
279049
273278
266477
1.6419e+06
1.62224e+06
1.60639e+06
1.5928e+06
1.58047e+06
1.56891e+06
1.55788e+06
1.54725e+06
1.53691e+06
1.52682e+06
1.51691e+06
1.50717e+06
1.49755e+06
1.48803e+06
1.47861e+06
1.46926e+06
1.45997e+06
1.45074e+06
1.44157e+06
1.43244e+06
1.42336e+06
1.41432e+06
1.40532e+06
1.39635e+06
1.38742e+06
1.37851e+06
1.36964e+06
1.36081e+06
1.35201e+06
1.34325e+06
1.33453e+06
1.32584e+06
1.3172e+06
1.30859e+06
1.30002e+06
1.29148e+06
1.28298e+06
1.27452e+06
1.26609e+06
1.2577e+06
1.24934e+06
1.24102e+06
1.23273e+06
1.22449e+06
1.21627e+06
1.20808e+06
1.19992e+06
1.1918e+06
1.18371e+06
1.17564e+06
1.16761e+06
1.15961e+06
1.15164e+06
1.1437e+06
1.13579e+06
1.12791e+06
1.12007e+06
1.11226e+06
1.10447e+06
1.09672e+06
1.089e+06
1.0813e+06
1.07364e+06
1.066e+06
1.05838e+06
1.05079e+06
1.04322e+06
1.03567e+06
1.02815e+06
1.02064e+06
1.01317e+06
1.00572e+06
998295
990905
983547
976219
968917
961642
954390
947160
939949
932760
925591
918443
911319
904220
897144
890091
883063
876059
869081
862130
855208
848315
841453
834623
827825
821058
814323
807619
800947
794306
787694
781109
774552
768022
761520
755045
748597
742176
735781
729413
723072
716758
710473
704217
697989
691792
685626
679490
673384
667309
661265
655250
649264
643307
637378
631476
625603
619754
613932
608135
602363
596617
590895
585198
579526
573878
568255
562656
557083
551536
546015
540520
535053
529616
524207
518829
513482
508164
502875
497616
492386
487183
482008
476860
471739
466646
461580
456540
451527
446541
441580
436646
431738
426855
421997
417165
412355
407569
402804
398065
393342
388650
383969
379323
374681
370077
365471
360905
356335
351802
347263
342759
338246
333761
329263
324782
320281
315782
311250
306698
302086
297413
292629
287704
282547
277045
270911
263567
1.64726e+06
1.62747e+06
1.61103e+06
1.59679e+06
1.58393e+06
1.57193e+06
1.56054e+06
1.5496e+06
1.539e+06
1.52867e+06
1.51857e+06
1.50865e+06
1.49887e+06
1.48922e+06
1.47966e+06
1.4702e+06
1.46081e+06
1.4515e+06
1.44224e+06
1.43304e+06
1.42389e+06
1.4148e+06
1.40574e+06
1.39673e+06
1.38775e+06
1.37882e+06
1.36992e+06
1.36105e+06
1.35223e+06
1.34345e+06
1.33471e+06
1.32601e+06
1.31734e+06
1.30872e+06
1.30013e+06
1.29158e+06
1.28307e+06
1.2746e+06
1.26617e+06
1.25777e+06
1.24941e+06
1.24108e+06
1.2328e+06
1.22454e+06
1.21633e+06
1.20814e+06
1.19998e+06
1.19186e+06
1.18376e+06
1.1757e+06
1.16766e+06
1.15966e+06
1.15169e+06
1.14375e+06
1.13584e+06
1.12796e+06
1.12012e+06
1.1123e+06
1.10452e+06
1.09677e+06
1.08905e+06
1.08136e+06
1.07369e+06
1.06605e+06
1.05843e+06
1.05084e+06
1.04326e+06
1.03572e+06
1.02819e+06
1.02069e+06
1.01321e+06
1.00576e+06
998336
990945
983587
976258
968955
961677
954423
947189
939974
932781
925608
918457
911329
904227
897147
890092
883063
876058
869080
862129
855206
848314
841451
834621
827822
821055
814321
807617
800944
794302
787689
781103
774546
768016
761513
755039
748591
742170
735776
729409
723069
716756
710472
704216
697990
691793
685628
679492
673387
667313
661268
655253
649267
643310
637381
631478
625604
619754
613932
608133
602361
596614
590891
585193
579520
573871
568247
562647
557073
551524
546002
540506
535038
529599
524189
518810
513461
508142
502852
497591
492358
487153
481975
476824
471700
466603
461533
456488
451470
446478
441511
436571
431655
426765
421899
417058
412238
407444
402666
397916
393180
388474
383777
379114
374453
369828
365201
360608
356011
351446
346875
342330
337779
333245
328697
324158
319596
315024
310415
305770
301059
296267
291347
286262
280913
275177
268787
261258
1.65183e+06
1.63211e+06
1.6153e+06
1.60057e+06
1.58725e+06
1.57486e+06
1.56313e+06
1.5519e+06
1.54105e+06
1.5305e+06
1.5202e+06
1.5101e+06
1.50017e+06
1.49038e+06
1.48071e+06
1.47113e+06
1.46165e+06
1.45224e+06
1.44291e+06
1.43363e+06
1.42442e+06
1.41527e+06
1.40616e+06
1.3971e+06
1.38809e+06
1.37912e+06
1.37019e+06
1.3613e+06
1.35245e+06
1.34365e+06
1.33489e+06
1.32617e+06
1.31749e+06
1.30885e+06
1.30025e+06
1.29169e+06
1.28317e+06
1.27469e+06
1.26625e+06
1.25784e+06
1.24948e+06
1.24115e+06
1.23286e+06
1.22461e+06
1.21639e+06
1.2082e+06
1.20005e+06
1.19192e+06
1.18382e+06
1.17576e+06
1.16772e+06
1.15971e+06
1.15174e+06
1.14379e+06
1.13588e+06
1.12801e+06
1.12016e+06
1.11235e+06
1.10457e+06
1.09682e+06
1.0891e+06
1.0814e+06
1.07374e+06
1.0661e+06
1.05848e+06
1.05088e+06
1.04331e+06
1.03576e+06
1.02823e+06
1.02072e+06
1.01324e+06
1.00579e+06
998370
990979
983620
976290
968985
961705
954447
947209
939991
932793
925617
918462
911331
904226
897144
890087
883056
876051
869072
862122
855199
848307
841444
834614
827815
821048
814313
807609
800936
794293
787680
781093
774536
768005
761503
755029
748582
742161
735767
729401
723061
716750
710466
704212
697987
691791
685626
679491
673387
667313
661268
655253
649267
643310
637381
631477
625602
619751
613928
608128
602355
596607
590884
585185
579510
573860
568235
562634
557059
551509
545986
540489
535020
529580
524169
518789
513438
508118
502826
497564
492329
487121
481940
476786
471659
466559
461484
456435
451411
446414
441441
436494
431571
426674
421799
416950
412120
407316
402528
397767
393017
388297
383585
378904
374225
369579
364930
360311
355689
351091
346490
341905
337315
332733
328137
323540
318920
314277
309595
304861
300056
295152
290110
284879
279367
273452
266900
259359
1.65578e+06
1.63626e+06
1.61924e+06
1.60415e+06
1.59044e+06
1.5777e+06
1.56566e+06
1.55415e+06
1.54305e+06
1.53229e+06
1.5218e+06
1.51153e+06
1.50145e+06
1.49153e+06
1.48173e+06
1.47205e+06
1.46247e+06
1.45297e+06
1.44356e+06
1.43422e+06
1.42494e+06
1.41573e+06
1.40658e+06
1.39747e+06
1.38842e+06
1.37942e+06
1.37046e+06
1.36154e+06
1.35267e+06
1.34385e+06
1.33507e+06
1.32633e+06
1.31764e+06
1.30898e+06
1.30037e+06
1.2918e+06
1.28327e+06
1.27478e+06
1.26633e+06
1.25793e+06
1.24956e+06
1.24123e+06
1.23293e+06
1.22468e+06
1.21646e+06
1.20827e+06
1.20011e+06
1.19198e+06
1.18388e+06
1.17581e+06
1.16777e+06
1.15976e+06
1.15179e+06
1.14384e+06
1.13593e+06
1.12805e+06
1.12021e+06
1.11239e+06
1.10461e+06
1.09686e+06
1.08914e+06
1.08145e+06
1.07378e+06
1.06614e+06
1.05852e+06
1.05092e+06
1.04334e+06
1.03579e+06
1.02826e+06
1.02075e+06
1.01327e+06
1.00582e+06
998396
991005
983645
976314
969007
961725
954464
947222
939999
932798
925617
918458
911325
904217
897133
890074
883042
876036
869058
862108
855186
848294
841431
834601
827802
821035
814301
807597
800923
794280
787666
781079
774521
767992
761490
755016
748568
742148
735755
729389
723050
716740
710458
704204
697980
691785
685621
679487
673383
667309
661265
655250
649264
643306
637377
631473
625597
619745
613920
608119
602346
596596
590872
585172
579498
573846
568220
562618
557042
551491
545967
540469
535000
529558
524147
518765
513414
508092
502798
497534
492297
487087
481904
476747
471617
466513
461433
456380
451351
446348
441369
436417
431487
426582
421699
416841
412002
407188
402389
397616
392853
388119
383392
378694
373997
369329
364660
360014
355368
350738
346106
341484
336854
332227
327585
322931
318254
313542
308790
303972
299079
294072
288917
283559
277910
271862
265221
257747
1.65927e+06
1.63999e+06
1.62287e+06
1.60751e+06
1.59348e+06
1.58043e+06
1.5681e+06
1.55633e+06
1.54501e+06
1.53404e+06
1.52337e+06
1.51294e+06
1.50271e+06
1.49265e+06
1.48274e+06
1.47295e+06
1.46327e+06
1.4537e+06
1.44421e+06
1.4348e+06
1.42546e+06
1.4162e+06
1.40699e+06
1.39784e+06
1.38875e+06
1.37971e+06
1.37072e+06
1.36178e+06
1.35289e+06
1.34404e+06
1.33525e+06
1.32649e+06
1.31778e+06
1.30912e+06
1.30049e+06
1.29191e+06
1.28337e+06
1.27488e+06
1.26642e+06
1.25801e+06
1.24964e+06
1.24131e+06
1.23301e+06
1.22475e+06
1.21653e+06
1.20834e+06
1.20018e+06
1.19204e+06
1.18394e+06
1.17587e+06
1.16783e+06
1.15982e+06
1.15184e+06
1.14389e+06
1.13598e+06
1.1281e+06
1.12025e+06
1.11243e+06
1.10465e+06
1.0969e+06
1.08918e+06
1.08149e+06
1.07382e+06
1.06617e+06
1.05855e+06
1.05095e+06
1.04337e+06
1.03582e+06
1.02828e+06
1.02077e+06
1.01329e+06
1.00584e+06
998415
991023
983662
976329
969021
961736
954472
947226
940000
932793
925608
918447
911311
904200
897114
890055
883022
876016
869038
862088
855167
848275
841413
834584
827785
821018
814283
807580
800906
794263
787647
781061
774503
767974
761473
754999
748552
742132
735739
729373
723036
716726
710445
704192
697968
691774
685611
679478
673375
667301
661258
655243
649257
643298
637369
631464
625587
619734
613908
608107
602332
596581
590857
585157
579481
573829
568202
562599
557022
551470
545946
540447
534977
529535
524123
518740
513387
508064
502769
497503
492264
487052
481866
476707
471573
466465
461381
456323
451290
446282
441297
436338
431401
426490
421599
416732
411883
407060
402249
397465
392690
387941
383199
378483
373769
369079
364391
359719
355048
350388
345725
341065
336399
331727
327040
322332
317599
312822
308001
303106
298129
293026
287770
282302
276542
270398
263722
256345
1.66239e+06
1.64337e+06
1.62622e+06
1.61066e+06
1.59638e+06
1.58305e+06
1.57047e+06
1.55846e+06
1.54692e+06
1.53576e+06
1.52491e+06
1.51432e+06
1.50395e+06
1.49376e+06
1.48373e+06
1.47384e+06
1.46407e+06
1.45441e+06
1.44485e+06
1.43537e+06
1.42598e+06
1.41665e+06
1.4074e+06
1.39821e+06
1.38908e+06
1.38001e+06
1.37099e+06
1.36202e+06
1.35311e+06
1.34424e+06
1.33542e+06
1.32665e+06
1.31793e+06
1.30925e+06
1.30062e+06
1.29203e+06
1.28348e+06
1.27498e+06
1.26652e+06
1.2581e+06
1.24973e+06
1.24139e+06
1.23309e+06
1.22483e+06
1.2166e+06
1.20841e+06
1.20024e+06
1.19211e+06
1.184e+06
1.17593e+06
1.16788e+06
1.15987e+06
1.15188e+06
1.14393e+06
1.13602e+06
1.12814e+06
1.12029e+06
1.11247e+06
1.10469e+06
1.09694e+06
1.08922e+06
1.08152e+06
1.07385e+06
1.06621e+06
1.05858e+06
1.05098e+06
1.0434e+06
1.03584e+06
1.0283e+06
1.02079e+06
1.0133e+06
1.00585e+06
998425
991033
983671
976336
969027
961740
954472
947223
939992
932781
925592
918427
911289
904176
897089
890029
882995
875989
869011
862062
855142
848251
841390
834561
827763
820996
814262
807559
800885
794241
787626
781039
774482
767953
761453
754979
748532
742112
735720
729354
723017
716708
710428
704175
697953
691760
685597
679464
673362
667289
661246
655231
649245
643286
637356
631450
625572
619719
613892
608090
602315
596563
590839
585137
579462
573808
568181
562577
557000
551447
545922
540422
534952
529509
524096
518713
513359
508034
502738
497469
492228
487014
481826
476664
471527
466415
461327
456265
451227
446214
441223
436259
431315
426397
421498
416623
411765
406931
402110
397313
392526
387763
383006
378273
373543
368831
364122
359425
354730
350040
345347
340652
335950
331234
326504
321743
316956
312116
307232
302262
297208
292018
286672
281110
275260
269049
262374
255101
1.6652e+06
1.64644e+06
1.62932e+06
1.61362e+06
1.59912e+06
1.58557e+06
1.57275e+06
1.56053e+06
1.54878e+06
1.53743e+06
1.52642e+06
1.51567e+06
1.50517e+06
1.49486e+06
1.48472e+06
1.47472e+06
1.46486e+06
1.45512e+06
1.44548e+06
1.43594e+06
1.42649e+06
1.41711e+06
1.40781e+06
1.39858e+06
1.38941e+06
1.38031e+06
1.37126e+06
1.36227e+06
1.35333e+06
1.34444e+06
1.3356e+06
1.32682e+06
1.31808e+06
1.30939e+06
1.30074e+06
1.29215e+06
1.28359e+06
1.27508e+06
1.26662e+06
1.2582e+06
1.24982e+06
1.24148e+06
1.23318e+06
1.22491e+06
1.21668e+06
1.20848e+06
1.20031e+06
1.19217e+06
1.18406e+06
1.17598e+06
1.16793e+06
1.15992e+06
1.15193e+06
1.14398e+06
1.13606e+06
1.12818e+06
1.12032e+06
1.11251e+06
1.10472e+06
1.09697e+06
1.08925e+06
1.08155e+06
1.07388e+06
1.06623e+06
1.0586e+06
1.051e+06
1.04341e+06
1.03585e+06
1.02831e+06
1.0208e+06
1.01331e+06
1.00585e+06
998428
991035
983671
976335
969024
961735
954465
947212
939977
932761
925568
918400
911259
904145
897058
889997
882963
875957
868979
862031
855111
848222
841362
834534
827736
820970
814237
807534
800861
794216
787601
781014
774457
767929
761430
754956
748510
742090
735697
729332
722995
716687
710407
704155
697933
691740
685578
679446
673344
667271
661229
655214
649229
643269
637338
631432
625553
619699
613872
608068
602293
596541
590817
585115
579439
573785
568157
562552
556974
551421
545896
540396
534925
529482
524069
518684
513330
508003
502705
497434
492191
486974
481784
476619
471479
466363
461272
456205
451163
446144
441149
436178
431229
426304
421397
416514
411646
406802
401971
397162
392363
387586
382815
378063
373317
368584
363856
359134
354414
349695
344974
340244
335507
330748
325976
321164
316327
311428
306483
301443
296317
291048
285624
279981
274066
267807
261148
253976
1.66777e+06
1.64926e+06
1.63218e+06
1.61639e+06
1.60173e+06
1.58797e+06
1.57495e+06
1.56252e+06
1.55059e+06
1.53907e+06
1.52789e+06
1.517e+06
1.50636e+06
1.49593e+06
1.48568e+06
1.47559e+06
1.46564e+06
1.45582e+06
1.44611e+06
1.43651e+06
1.42699e+06
1.41756e+06
1.40822e+06
1.39894e+06
1.38974e+06
1.3806e+06
1.37152e+06
1.36251e+06
1.35354e+06
1.34464e+06
1.33578e+06
1.32698e+06
1.31823e+06
1.30953e+06
1.30088e+06
1.29227e+06
1.28371e+06
1.27519e+06
1.26672e+06
1.2583e+06
1.24992e+06
1.24157e+06
1.23327e+06
1.22499e+06
1.21676e+06
1.20855e+06
1.20038e+06
1.19223e+06
1.18412e+06
1.17604e+06
1.16798e+06
1.15996e+06
1.15197e+06
1.14402e+06
1.1361e+06
1.12821e+06
1.12036e+06
1.11254e+06
1.10475e+06
1.097e+06
1.08927e+06
1.08157e+06
1.0739e+06
1.06625e+06
1.05862e+06
1.05101e+06
1.04342e+06
1.03586e+06
1.02831e+06
1.0208e+06
1.01331e+06
1.00585e+06
998423
991029
983664
976326
969014
961723
954450
947194
939954
932735
925537
918366
911224
904109
897022
889961
882927
875920
868943
861995
855076
848187
841329
834502
827705
820940
814208
807506
800834
794189
787573
780986
774430
767902
761403
754930
748484
742063
735671
729306
722970
716661
710382
704131
697909
691717
685555
679423
673321
667249
661207
655192
649207
643247
637316
631409
625530
619675
613847
608044
602268
596516
590791
585089
579413
573759
568130
562525
556947
551393
545867
540367
534896
529453
524039
518654
513299
507971
502671
497398
492152
486933
481740
476572
471429
466310
461215
456144
451097
446074
441074
436098
431142
426210
421296
416404
411528
406673
401832
397011
392201
387409
382624
377855
373093
368339
363591
358845
354103
349354
344605
339841
335071
330272
325458
320599
315712
310757
305753
300650
295458
290120
284626
278914
272952
266661
260024
252945
1.67014e+06
1.65185e+06
1.63483e+06
1.61899e+06
1.60419e+06
1.59026e+06
1.57705e+06
1.56445e+06
1.55234e+06
1.54066e+06
1.52933e+06
1.5183e+06
1.50753e+06
1.49699e+06
1.48663e+06
1.47645e+06
1.46641e+06
1.45651e+06
1.44673e+06
1.43706e+06
1.42749e+06
1.41802e+06
1.40862e+06
1.39931e+06
1.39007e+06
1.3809e+06
1.37179e+06
1.36275e+06
1.35376e+06
1.34484e+06
1.33597e+06
1.32715e+06
1.31839e+06
1.30967e+06
1.30101e+06
1.2924e+06
1.28383e+06
1.27531e+06
1.26683e+06
1.2584e+06
1.25001e+06
1.24167e+06
1.23335e+06
1.22508e+06
1.21684e+06
1.20863e+06
1.20044e+06
1.1923e+06
1.18418e+06
1.17609e+06
1.16803e+06
1.16001e+06
1.15201e+06
1.14406e+06
1.13613e+06
1.12824e+06
1.12039e+06
1.11256e+06
1.10477e+06
1.09702e+06
1.08929e+06
1.08159e+06
1.07391e+06
1.06626e+06
1.05863e+06
1.05101e+06
1.04342e+06
1.03585e+06
1.02831e+06
1.02079e+06
1.0133e+06
1.00584e+06
998410
991015
983649
976310
968997
961704
954429
947169
939926
932702
925501
918327
911183
904067
896980
889919
882886
875880
868903
861955
855036
848149
841291
834466
827669
820906
814175
807475
800804
794159
787543
780956
774400
767872
761374
754901
748454
742034
735642
729277
722941
716633
710354
704103
697882
691690
685529
679396
673295
667222
661180
655166
649181
643221
637290
631382
625503
619647
613819
608015
602240
596488
590763
585060
579384
573730
568101
562495
556917
551363
545836
540336
534865
529422
524008
518622
513266
507937
502635
497360
492112
486890
481694
476524
471378
466255
461156
456081
451030
446002
440998
436016
431055
426116
421195
416294
411410
406545
401695
396862
392040
387234
382436
377649
372870
368096
363329
358559
353794
349018
344242
339446
334642
329805
324951
320047
315112
310106
305046
299886
294632
289233
283678
277911
271911
265600
258986
251995
1.67234e+06
1.65425e+06
1.63729e+06
1.62141e+06
1.60651e+06
1.59244e+06
1.57907e+06
1.5663e+06
1.55404e+06
1.5422e+06
1.53073e+06
1.51957e+06
1.50868e+06
1.49802e+06
1.48757e+06
1.47729e+06
1.46717e+06
1.4572e+06
1.44735e+06
1.43762e+06
1.42799e+06
1.41846e+06
1.40902e+06
1.39967e+06
1.39039e+06
1.38119e+06
1.37206e+06