/*--------------------------------*- C++ -*----------------------------------*\
| =========                 |                                                 |
| \\      /  F ield         | OpenFOAM: The Open Source CFD Toolbox           |
|  \\    /   O peration     | Version:  2.4.0                                 |
|   \\  /    A nd           | Web:      www.OpenFOAM.org                      |
|    \\/     M anipulation  |                                                 |
\*---------------------------------------------------------------------------*/
FoamFile
{
    version     2.0;
    format      ascii;
    class       volScalarField;
    location    "0.153";
    object      nuSgs;
}
// * * * * * * * * * * * * * * * * * * * * * * * * * * * * * * * * * * * * * //

dimensions      [0 2 -1 0 0 0 0];

internalField   nonuniform List<scalar> 
17600
(
0.00101326
0.00090487
0.000753115
0.000657907
0.00060942
0.000568256
0.000549635
0.000519132
0.00051097
0.000492874
0.000485662
0.000478001
0.000471909
0.000463468
0.000470728
0.000459124
0.000478606
0.000471857
0.000508045
0.000537584
0.000705894
0.000827834
0.000804115
0.000745805
0.000701195
0.000655332
0.00063513
0.000600677
0.000590392
0.000569451
0.000558954
0.000550867
0.000540495
0.000531067
0.000536334
0.000520602
0.000535735
0.000530004
0.000547335
0.000575305
0.000383195
0.000601417
0.000665686
0.000660964
0.000646916
0.00061485
0.000601041
0.000573201
0.000563538
0.000546253
0.000534565
0.000528033
0.000517821
0.000507389
0.000510438
0.000496964
0.000501417
0.000499774
0.000501807
0.000512389
0.000151866
0.000361839
0.000464079
0.000504395
0.000529306
0.000525211
0.000523693
0.000513354
0.000506596
0.000497234
0.000486671
0.000482827
0.000476046
0.000465505
0.000466478
0.000459587
0.000452855
0.000453704
0.000449776
0.000445235
5.37435e-05
0.000166084
0.000272119
0.000321049
0.000375283
0.000394007
0.000414199
0.000420074
0.0004223
0.000423912
0.000420529
0.000419252
0.000418211
0.000411816
0.000410294
0.000409422
0.000399923
0.000397931
0.000394205
0.000391798
1.74717e-05
6.77652e-05
0.000131083
0.000164674
0.000219788
0.00024732
0.000278393
0.000302062
0.000311167
0.000328172
0.000332342
0.000335497
0.000343226
0.000342422
0.000340522
0.000344424
0.00033943
0.000334228
0.000325518
0.000332347
5.68953e-06
2.60495e-05
5.35379e-05
7.16481e-05
0.000105099
0.000127095
0.000151044
0.000182803
0.000193098
0.000215067
0.000228827
0.000234272
0.000250387
0.000256709
0.000256496
0.000264722
0.000264601
0.000261556
0.000248555
0.000253377
2.51802e-06
9.88128e-06
1.99526e-05
2.7421e-05
3.98444e-05
5.59431e-05
6.6888e-05
9.00482e-05
9.8528e-05
0.0001151
0.00013161
0.000136389
0.000151918
0.000163867
0.000164562
0.000175627
0.000177669
0.000176985
0.000166908
0.000166663
1.8052e-06
3.99352e-06
7.97989e-06
1.02954e-05
1.39796e-05
2.07626e-05
2.54075e-05
3.71137e-05
4.15921e-05
4.97793e-05
6.26112e-05
6.49944e-05
7.53163e-05
8.566e-05
8.63463e-05
9.57245e-05
9.78962e-05
9.75922e-05
9.19715e-05
9.16028e-05
1.63154e-06
2.24955e-06
4.34522e-06
4.90028e-06
6.41485e-06
8.02351e-06
9.6911e-06
1.46354e-05
1.59869e-05
1.97398e-05
2.58097e-05
2.61122e-05
3.20534e-05
3.71973e-05
3.74514e-05
4.29917e-05
4.45967e-05
4.42253e-05
4.13001e-05
4.04247e-05
1.69452e-06
1.95291e-06
2.91599e-06
3.01409e-06
3.92893e-06
4.41662e-06
5.34866e-06
6.91938e-06
7.03638e-06
8.87124e-06
1.05982e-05
1.07082e-05
1.33188e-05
1.47172e-05
1.46461e-05
1.73203e-05
1.78462e-05
1.77856e-05
1.70525e-05
1.64191e-05
1.57335e-06
2.12429e-06
2.24835e-06
2.60818e-06
2.75617e-06
3.02268e-06
3.36873e-06
3.62606e-06
3.81062e-06
4.11136e-06
4.89214e-06
5.61801e-06
6.59199e-06
6.68579e-06
6.75947e-06
7.4702e-06
7.73966e-06
8.25617e-06
8.15449e-06
8.48917e-06
1.53387e-06
1.85094e-06
2.26627e-06
2.71801e-06
2.67903e-06
3.08774e-06
3.01634e-06
3.09846e-06
3.57759e-06
3.75484e-06
4.51293e-06
4.88612e-06
4.96102e-06
5.12556e-06
5.16152e-06
5.21962e-06
5.46773e-06
5.48476e-06
5.28608e-06
5.94921e-06
1.52734e-06
1.77923e-06
2.75e-06
2.6742e-06
2.6573e-06
2.70991e-06
2.72836e-06
3.25292e-06
3.30532e-06
3.30919e-06
3.66153e-06
3.68588e-06
3.78469e-06
4.17293e-06
4.06166e-06
4.07054e-06
4.16491e-06
4.10446e-06
4.02213e-06
4.34773e-06
1.55314e-06
1.73675e-06
2.45366e-06
2.40924e-06
2.46838e-06
2.44468e-06
2.51694e-06
3.04554e-06
2.97353e-06
3.03893e-06
3.00671e-06
3.00407e-06
3.42744e-06
3.69133e-06
3.53616e-06
3.56705e-06
3.52791e-06
3.49354e-06
3.56754e-06
3.93002e-06
1.56677e-06
1.9715e-06
2.11024e-06
2.41365e-06
2.40191e-06
2.3993e-06
2.48767e-06
2.52423e-06
2.54643e-06
2.69628e-06
2.70281e-06
2.73773e-06
3.14068e-06
3.14144e-06
3.09175e-06
3.09923e-06
3.14674e-06
3.22052e-06
3.41874e-06
3.81902e-06
1.52445e-06
1.72045e-06
1.9266e-06
2.30267e-06
2.26595e-06
2.2533e-06
2.2258e-06
2.29731e-06
2.81877e-06
2.80877e-06
2.81492e-06
2.94715e-06
2.97318e-06
2.98076e-06
3.1212e-06
3.13784e-06
3.18362e-06
3.2378e-06
3.43037e-06
3.55977e-06
1.51228e-06
1.65138e-06
1.96948e-06
2.13328e-06
2.16285e-06
2.17744e-06
2.2176e-06
2.31305e-06
2.59282e-06
2.64506e-06
2.70373e-06
2.75349e-06
2.78726e-06
2.9469e-06
3.04979e-06
3.05763e-06
3.07301e-06
3.10306e-06
3.20919e-06
3.16022e-06
1.51065e-06
1.63045e-06
1.87607e-06
2.07326e-06
2.12532e-06
2.13779e-06
2.13502e-06
2.31524e-06
2.45159e-06
2.56661e-06
2.684e-06
2.64331e-06
2.64682e-06
2.76608e-06
2.78511e-06
2.84561e-06
2.92048e-06
2.92081e-06
2.80955e-06
2.88171e-06
1.50867e-06
1.64217e-06
1.94095e-06
2.08246e-06
2.08848e-06
2.12071e-06
2.15932e-06
2.19124e-06
2.37984e-06
2.49465e-06
2.52152e-06
2.50218e-06
2.50358e-06
2.55259e-06
2.5758e-06
2.63348e-06
2.69445e-06
2.6565e-06
2.58555e-06
2.85757e-06
1.50547e-06
1.7057e-06
1.93002e-06
1.96394e-06
2.05606e-06
2.07596e-06
2.12326e-06
2.29538e-06
2.36154e-06
2.39064e-06
2.38941e-06
2.39834e-06
2.43669e-06
2.46399e-06
2.46871e-06
2.50293e-06
2.50497e-06
2.46874e-06
2.48224e-06
2.57382e-06
1.51151e-06
1.77429e-06
1.83785e-06
1.94591e-06
2.08927e-06
2.13093e-06
2.19718e-06
2.2297e-06
2.21784e-06
2.21512e-06
2.29308e-06
2.34039e-06
2.34626e-06
2.34061e-06
2.33069e-06
2.34391e-06
2.37796e-06
2.4076e-06
2.45977e-06
2.48549e-06
1.51004e-06
1.71007e-06
1.79182e-06
2.08174e-06
2.13787e-06
2.16356e-06
2.20424e-06
2.18319e-06
2.16563e-06
2.20318e-06
2.3205e-06
2.31936e-06
2.29855e-06
2.28694e-06
2.28876e-06
2.34116e-06
2.40334e-06
2.4594e-06
2.45803e-06
2.47708e-06
1.51548e-06
1.66117e-06
1.94653e-06
2.18876e-06
2.17619e-06
2.18981e-06
2.16975e-06
2.16139e-06
2.17862e-06
2.33277e-06
2.35605e-06
2.33053e-06
2.31527e-06
2.3077e-06
2.33328e-06
2.44475e-06
2.49325e-06
2.50869e-06
2.51713e-06
2.61794e-06
1.52383e-06
1.71006e-06
2.13417e-06
2.2001e-06
2.15887e-06
2.15711e-06
2.1691e-06
2.23344e-06
2.44395e-06
2.48197e-06
2.45636e-06
2.42686e-06
2.4026e-06
2.41266e-06
2.54861e-06
2.60535e-06
2.62143e-06
2.64793e-06
2.69963e-06
3.03486e-06
1.53432e-06
1.86441e-06
2.10593e-06
2.12519e-06
2.1291e-06
2.26423e-06
2.38902e-06
2.53207e-06
2.63311e-06
2.6195e-06
2.57956e-06
2.5288e-06
2.52663e-06
2.63801e-06
2.79927e-06
2.82956e-06
2.85344e-06
2.92059e-06
3.14181e-06
4.22021e-06
1.54027e-06
1.89616e-06
2.01906e-06
2.11614e-06
2.32356e-06
2.58428e-06
2.67075e-06
2.72639e-06
2.75225e-06
2.7329e-06
2.66847e-06
2.66166e-06
2.74016e-06
3.02951e-06
3.16053e-06
3.20186e-06
3.28487e-06
3.64498e-06
4.74474e-06
8.17795e-06
1.54816e-06
1.87159e-06
2.0245e-06
2.32163e-06
2.67129e-06
2.82157e-06
2.88686e-06
2.87449e-06
2.91044e-06
2.87194e-06
2.88961e-06
3.01982e-06
3.37063e-06
3.70117e-06
3.90792e-06
4.1685e-06
4.7915e-06
6.64204e-06
1.0294e-05
1.85826e-05
1.58621e-06
1.8287e-06
2.21967e-06
2.5875e-06
2.9813e-06
3.09173e-06
3.21989e-06
3.22582e-06
3.38189e-06
3.4803e-06
3.91833e-06
4.5891e-06
5.0313e-06
6.01849e-06
6.95508e-06
8.40824e-06
1.09677e-05
1.64653e-05
2.48157e-05
4.14637e-05
1.61148e-06
1.90525e-06
2.49101e-06
3.24632e-06
3.58343e-06
3.91529e-06
4.38837e-06
4.73433e-06
5.8897e-06
6.6605e-06
8.56871e-06
1.05242e-05
1.18291e-05
1.51323e-05
1.79803e-05
2.25112e-05
2.86418e-05
4.11156e-05
5.54548e-05
8.57826e-05
1.62639e-06
2.24459e-06
3.34975e-06
5.20696e-06
5.83423e-06
7.11352e-06
9.60061e-06
1.14181e-05
1.57606e-05
1.83501e-05
2.35043e-05
2.91526e-05
3.23666e-05
4.04831e-05
4.63369e-05
5.66931e-05
6.68528e-05
8.85691e-05
0.000107982
0.000158352
1.74758e-06
3.88259e-06
6.5276e-06
1.12595e-05
1.38706e-05
1.87867e-05
2.74957e-05
3.26223e-05
4.36363e-05
4.96837e-05
6.11895e-05
7.22929e-05
7.80752e-05
9.21996e-05
0.000101621
0.000117297
0.000131028
0.000159606
0.000181308
0.000237358
2.37213e-06
9.62033e-06
1.6959e-05
2.97508e-05
3.81383e-05
5.23207e-05
7.27776e-05
8.2657e-05
0.000103558
0.000113493
0.000132571
0.000146357
0.000154419
0.000172571
0.00018497
0.000199483
0.000214738
0.000242253
0.000260563
0.000303544
5.67015e-06
2.60557e-05
4.67668e-05
7.8038e-05
9.70132e-05
0.000128
0.000157863
0.000172527
0.000201136
0.000212141
0.000232993
0.000243218
0.000251945
0.000267204
0.000276461
0.000285326
0.000298567
0.000316008
0.000328686
0.000356801
1.75989e-05
6.8767e-05
0.000122476
0.000174906
0.000209756
0.000251549
0.000280339
0.000297137
0.000318549
0.000324835
0.000337753
0.000340557
0.000345851
0.000351326
0.000355888
0.000359039
0.000366818
0.000374414
0.000382178
0.000395752
5.39874e-05
0.000169384
0.000266747
0.000326241
0.000369385
0.000397901
0.000413352
0.000419644
0.000424943
0.000423238
0.00042428
0.000420438
0.000420526
0.000418639
0.000418522
0.00041702
0.000418922
0.000418854
0.000420984
0.000419693
0.00015222
0.000361877
0.000462141
0.000505765
0.00052751
0.000526995
0.000523121
0.000514392
0.000506624
0.000495465
0.000490944
0.000479471
0.000476944
0.000468855
0.000466048
0.000458921
0.000456413
0.000448045
0.000442345
0.000429511
0.000383562
0.000600649
0.000665059
0.000660755
0.000646412
0.0006172
0.000597047
0.000577197
0.000561039
0.000545356
0.000536357
0.000521144
0.000516843
0.000503437
0.000498347
0.000485856
0.000478108
0.000459893
0.000446844
0.000420625
0.000705779
0.000826659
0.000803995
0.000745205
0.000701408
0.000657139
0.000630506
0.000605342
0.000585771
0.000568504
0.000557077
0.000540863
0.000535142
0.000517449
0.000510227
0.000492436
0.000479515
0.000450963
0.000427529
0.000386292
0.00101283
0.000903394
0.00075403
0.000657111
0.0006098
0.000569189
0.000545408
0.000522417
0.000505676
0.000490782
0.000480409
0.000466148
0.000460158
0.000441833
0.000432809
0.000412078
0.000395919
0.00036088
0.000329317
0.000280124
0.000226599
0.000182832
0.000160907
0.000149135
0.000142513
0.000139162
0.000143332
0.000149629
0.000146067
0.000134312
9.74745e-05
6.57467e-05
4.56025e-05
3.17569e-05
2.09757e-05
2.01064e-05
1.9586e-05
1.79421e-05
1.90026e-05
2.56182e-05
2.93772e-05
3.03669e-05
3.0895e-05
3.73356e-05
8.7183e-05
0.000118533
0.000118595
0.000108323
8.78935e-05
7.26702e-05
6.20988e-05
5.33393e-05
4.76148e-05
4.43003e-05
4.2483e-05
4.10239e-05
3.92832e-05
3.88176e-05
3.90011e-05
3.89709e-05
3.90842e-05
3.97249e-05
4.48685e-05
5.19182e-05
5.23779e-05
4.73964e-05
4.32865e-05
4.61284e-05
6.61593e-05
8.86542e-05
9.27043e-05
8.89058e-05
7.07035e-05
5.4517e-05
4.81651e-05
4.69478e-05
4.71793e-05
4.73409e-05
4.68279e-05
4.52184e-05
4.24509e-05
3.99279e-05
3.97007e-05
3.99894e-05
4.07376e-05
4.21295e-05
4.53577e-05
4.98961e-05
5.12782e-05
5.09398e-05
4.95527e-05
4.57225e-05
4.28711e-05
3.81898e-05
3.43449e-05
3.27033e-05
3.14808e-05
2.94328e-05
2.75064e-05
2.62781e-05
2.53879e-05
2.47438e-05
2.39159e-05
2.21034e-05
2.05623e-05
1.98247e-05
1.98405e-05
2.04064e-05
2.19777e-05
2.37108e-05
2.5115e-05
2.63565e-05
2.69314e-05
2.71672e-05
2.7385e-05
2.79845e-05
2.88297e-05
3.12181e-05
3.27681e-05
3.50233e-05
3.63022e-05
3.66987e-05
3.76013e-05
3.80302e-05
3.75143e-05
3.64299e-05
3.56634e-05
3.51028e-05
3.49041e-05
3.48701e-05
3.47482e-05
3.47473e-05
3.49436e-05
3.56049e-05
3.76057e-05
4.32055e-05
4.63408e-05
4.81363e-05
5.0819e-05
5.89459e-05
6.62773e-05
6.76731e-05
6.6032e-05
5.64688e-05
4.36902e-05
3.54511e-05
3.22263e-05
3.14494e-05
3.1306e-05
3.09414e-05
2.99743e-05
2.88131e-05
2.78867e-05
2.7514e-05
2.76348e-05
2.83989e-05
2.88006e-05
2.90407e-05
2.92579e-05
2.95652e-05
3.0083e-05
3.14711e-05
3.49937e-05
3.72436e-05
3.82252e-05
3.84671e-05
3.92598e-05
4.17255e-05
4.22141e-05
4.17884e-05
3.88641e-05
3.47735e-05
3.24511e-05
3.15187e-05
3.1518e-05
3.14943e-05
3.18113e-05
3.21401e-05
3.28476e-05
3.28755e-05
3.25778e-05
3.16285e-05
3.14151e-05
3.04354e-05
2.91186e-05
2.85272e-05
2.82991e-05
2.9004e-05
3.62641e-05
4.22326e-05
4.29777e-05
4.11334e-05
3.76857e-05
3.73319e-05
3.71446e-05
3.83872e-05
4.29841e-05
5.09867e-05
5.6297e-05
5.8292e-05
5.79405e-05
5.15546e-05
4.29477e-05
3.618e-05
3.31108e-05
3.12455e-05
2.88767e-05
2.88768e-05
2.84482e-05
2.83301e-05
2.84452e-05
3.12397e-05
3.31315e-05
3.30022e-05
3.26947e-05
3.36924e-05
3.78005e-05
4.76682e-05
6.53617e-05
0.00014477
0.000283957
0.000230183
0.000189715
0.000173234
0.000169996
0.000167273
0.000165558
0.000157643
0.000145821
0.000112658
7.76067e-05
5.29672e-05
3.57174e-05
2.42935e-05
1.65896e-05
1.73434e-05
1.73283e-05
1.61943e-05
1.67943e-05
2.03679e-05
2.57217e-05
2.77349e-05
2.80325e-05
3.16203e-05
6.96107e-05
0.000115686
0.000118275
0.000112462
9.36976e-05
7.8032e-05
6.54448e-05
5.57876e-05
4.94482e-05
4.50764e-05
4.28537e-05
4.14878e-05
3.99075e-05
3.94785e-05
3.94278e-05
3.94237e-05
3.971e-05
4.08223e-05
4.78545e-05
5.31269e-05
5.29124e-05
4.59916e-05
4.36657e-05
4.90775e-05
7.50505e-05
9.18337e-05
9.34702e-05
8.63722e-05
6.43491e-05
5.15764e-05
4.7096e-05
4.67997e-05
4.72043e-05
4.722e-05
4.60575e-05
4.25636e-05
3.99884e-05
3.7907e-05
3.76582e-05
3.78378e-05
3.83297e-05
3.93125e-05
4.12512e-05
4.57899e-05
4.93586e-05
5.00475e-05
4.94196e-05
4.7393e-05
4.44994e-05
3.99665e-05
3.62502e-05
3.4553e-05
3.31878e-05
3.0922e-05
2.90112e-05
2.77913e-05
2.66947e-05
2.60727e-05
2.54703e-05
2.37254e-05
2.17597e-05
2.05988e-05
2.02667e-05
2.05068e-05
2.12702e-05
2.29207e-05
2.41895e-05
2.58098e-05
2.62268e-05
2.66403e-05
2.6696e-05
2.69348e-05
2.74835e-05
2.8884e-05
3.16964e-05
3.58223e-05
3.79246e-05
3.92805e-05
4.17012e-05
4.24801e-05
4.11562e-05
3.92584e-05
3.78499e-05
3.62048e-05
3.53625e-05
3.5127e-05
3.478e-05
3.47925e-05
3.50809e-05
3.59419e-05
3.89295e-05
4.47074e-05
4.7419e-05
4.91184e-05
5.22923e-05
6.11192e-05
6.73312e-05
6.81796e-05
6.56393e-05
5.45725e-05
4.26659e-05
3.49213e-05
3.20777e-05
3.15196e-05
3.13274e-05
3.08727e-05
2.95724e-05
2.85561e-05
2.78738e-05
2.75267e-05
2.76339e-05
2.81968e-05
2.83453e-05
2.84274e-05
2.85436e-05
2.87705e-05
2.93266e-05
3.14444e-05
3.50394e-05
3.72581e-05
3.79864e-05
3.82276e-05
3.90011e-05
4.14152e-05
4.17208e-05
4.13318e-05
3.84999e-05
3.40354e-05
3.1246e-05
3.02276e-05
3.0233e-05
3.03535e-05
3.11448e-05
3.1432e-05
3.20444e-05
3.20198e-05
3.1861e-05
3.12927e-05
3.12418e-05
3.04092e-05
2.92041e-05
2.85423e-05
2.8107e-05
2.88225e-05
3.61344e-05
4.19651e-05
4.26682e-05
4.07567e-05
3.77031e-05
3.7403e-05
3.71967e-05
3.77913e-05
4.01383e-05
4.82871e-05
5.69966e-05
6.10238e-05
6.07817e-05
5.49045e-05
4.54103e-05
3.75176e-05
3.3827e-05
3.21061e-05
2.95902e-05
2.88696e-05
2.87219e-05
2.85664e-05
2.85798e-05
2.93344e-05
3.23218e-05
3.29156e-05
3.30984e-05
3.37323e-05
3.67425e-05
4.42093e-05
6.59923e-05
0.00012632
0.000267084
0.000255865
0.00022436
0.000210526
0.000197351
0.000181072
0.000171181
0.000153822
0.000124378
8.98053e-05
6.06688e-05
4.01605e-05
2.55012e-05
1.80342e-05
1.35976e-05
1.46192e-05
1.53205e-05
1.49831e-05
1.50804e-05
1.65135e-05
2.30862e-05
2.52273e-05
2.63753e-05
2.94237e-05
5.59451e-05
0.000109267
0.000116909
0.000113465
9.95028e-05
8.41406e-05
7.02009e-05
6.02956e-05
5.34344e-05
4.74762e-05
4.44944e-05
4.2656e-05
4.08657e-05
4.02568e-05
4.00994e-05
4.0197e-05
4.07635e-05
4.26111e-05
5.09805e-05
5.43155e-05
5.26296e-05
4.47045e-05
4.42664e-05
5.37071e-05
8.26891e-05
9.4354e-05
9.38025e-05
8.10565e-05
6.01793e-05
4.92567e-05
4.66638e-05
4.67812e-05
4.73119e-05
4.70831e-05
4.50515e-05
4.08638e-05
3.82786e-05
3.65538e-05
3.62911e-05
3.63763e-05
3.662e-05
3.71626e-05
3.83688e-05
4.13538e-05
4.62788e-05
4.86519e-05
4.88681e-05
4.80868e-05
4.62969e-05
4.17393e-05
3.7953e-05
3.62849e-05
3.4858e-05
3.22599e-05
3.0289e-05
2.91885e-05
2.7943e-05
2.73327e-05
2.68926e-05
2.54165e-05
2.29574e-05
2.12857e-05
2.07085e-05
2.07179e-05
2.10668e-05
2.21978e-05
2.32893e-05
2.51663e-05
2.59141e-05
2.60414e-05
2.61744e-05
2.62513e-05
2.65176e-05
2.74029e-05
3.01697e-05
3.60913e-05
3.91049e-05
4.38376e-05
4.74248e-05
4.82205e-05
4.68076e-05
4.46925e-05
4.21885e-05
3.88737e-05
3.70471e-05
3.61867e-05
3.5308e-05
3.5278e-05
3.56186e-05
3.66264e-05
4.04757e-05
4.60677e-05
4.82679e-05
4.99213e-05
5.4078e-05
6.32081e-05
6.83241e-05
6.86283e-05
6.49119e-05
5.29252e-05
4.17338e-05
3.45941e-05
3.20749e-05
3.15658e-05
3.12672e-05
3.04251e-05
2.88781e-05
2.79771e-05
2.76002e-05
2.75499e-05
2.76791e-05
2.77633e-05
2.78329e-05
2.79248e-05
2.7943e-05
2.81814e-05
2.88702e-05
3.14983e-05
3.51722e-05
3.71888e-05
3.7737e-05
3.80244e-05
3.892e-05
4.09637e-05
4.12957e-05
4.09367e-05
3.82621e-05
3.34172e-05
3.01346e-05
2.90644e-05
2.90107e-05
2.91669e-05
3.03996e-05
3.06923e-05
3.15876e-05
3.14837e-05
3.14071e-05
3.10264e-05
3.10265e-05
3.02806e-05
2.91449e-05
2.83583e-05
2.78403e-05
2.86158e-05
3.5509e-05
4.15359e-05
4.2195e-05
4.03303e-05
3.76515e-05
3.73755e-05
3.72074e-05
3.73383e-05
3.76213e-05
4.34342e-05
5.70068e-05
6.27821e-05
6.37999e-05
6.01103e-05
4.84873e-05
4.05171e-05
3.52271e-05
3.3071e-05
3.02175e-05
2.87519e-05
2.86772e-05
2.88531e-05
2.8843e-05
2.90889e-05
3.06818e-05
3.25114e-05
3.29918e-05
3.36626e-05
3.68102e-05
4.19447e-05
6.4576e-05
0.000108471
0.00022965
0.000228995
0.000220832
0.000206907
0.000190626
0.000171169
0.000153255
0.000125991
9.58127e-05
6.48809e-05
4.22142e-05
2.83455e-05
1.84761e-05
1.40543e-05
1.19147e-05
1.33086e-05
1.40876e-05
1.33966e-05
1.37977e-05
1.50667e-05
2.19967e-05
2.40494e-05
2.53244e-05
2.8357e-05
4.3633e-05
9.60062e-05
0.000113343
0.000112277
0.000103843
8.94271e-05
7.557e-05
6.571e-05
5.80339e-05
5.11468e-05
4.69627e-05
4.41744e-05
4.19931e-05
4.12331e-05
4.12219e-05
4.14801e-05
4.23719e-05
4.54049e-05
5.36031e-05
5.5071e-05
5.09979e-05
4.42034e-05
4.50721e-05
6.09577e-05
8.95003e-05
9.59328e-05
9.33219e-05
7.58229e-05
5.59272e-05
4.76532e-05
4.64735e-05
4.69173e-05
4.73336e-05
4.66664e-05
4.34326e-05
3.95017e-05
3.71024e-05
3.58968e-05
3.54724e-05
3.546e-05
3.55537e-05
3.5841e-05
3.6518e-05
3.81677e-05
4.25496e-05
4.63955e-05
4.78381e-05
4.78218e-05
4.71067e-05
4.38794e-05
3.97226e-05
3.77631e-05
3.61617e-05
3.33679e-05
3.1581e-05
3.05571e-05
2.9092e-05
2.84292e-05
2.81109e-05
2.70631e-05
2.4404e-05
2.22374e-05
2.11881e-05
2.10767e-05
2.1166e-05
2.17e-05
2.24959e-05
2.43953e-05
2.588e-05
2.59016e-05
2.58603e-05
2.58617e-05
2.59526e-05
2.64616e-05
2.87442e-05
3.53141e-05
3.80807e-05
4.5137e-05
4.97973e-05
5.01595e-05
4.94595e-05
4.89589e-05
4.68131e-05
4.23256e-05
3.96575e-05
3.80458e-05
3.64581e-05
3.63082e-05
3.66165e-05
3.76674e-05
4.2293e-05
4.72828e-05
4.8973e-05
5.06313e-05
5.61928e-05
6.48103e-05
6.89926e-05
6.89041e-05
6.35672e-05
5.10612e-05
4.05159e-05
3.44107e-05
3.23459e-05
3.17882e-05
3.113e-05
2.95909e-05
2.79385e-05
2.72672e-05
2.72001e-05
2.73421e-05
2.73537e-05
2.71291e-05
2.71274e-05
2.71809e-05
2.73065e-05
2.77239e-05
2.84275e-05
3.1705e-05
3.52849e-05
3.69476e-05
3.74829e-05
3.77032e-05
3.8827e-05
4.07533e-05
4.10993e-05
4.07333e-05
3.8117e-05
3.29376e-05
2.92407e-05
2.79042e-05
2.79317e-05
2.80561e-05
2.94235e-05
2.97676e-05
3.13851e-05
3.13268e-05
3.12709e-05
3.09937e-05
3.07298e-05
2.97964e-05
2.88834e-05
2.81351e-05
2.76857e-05
2.85933e-05
3.49394e-05
4.08197e-05
4.14731e-05
3.98716e-05
3.75634e-05
3.73844e-05
3.72118e-05
3.69493e-05
3.66039e-05
3.87076e-05
5.51194e-05
6.4321e-05
6.72008e-05
6.47571e-05
5.3068e-05
4.37072e-05
3.72755e-05
3.42043e-05
3.09044e-05
2.93312e-05
2.89543e-05
2.96004e-05
2.95794e-05
2.9405e-05
2.97847e-05
3.11651e-05
3.27115e-05
3.32421e-05
3.76469e-05
4.07429e-05
6.02889e-05
9.37014e-05
0.000200178
0.000189588
0.00018568
0.000173704
0.00016062
0.00014245
0.000122657
9.74622e-05
6.93677e-05
4.50694e-05
2.95949e-05
2.04483e-05
1.33234e-05
1.06015e-05
1.01702e-05
1.16524e-05
1.29993e-05
1.21365e-05
1.25551e-05
1.39637e-05
2.11681e-05
2.39723e-05
2.51324e-05
2.79901e-05
3.47664e-05
7.44114e-05
0.000105872
0.000108891
0.000106003
9.46347e-05
8.04312e-05
7.00264e-05
6.14925e-05
5.39266e-05
4.90377e-05
4.5991e-05
4.35614e-05
4.28468e-05
4.29505e-05
4.33715e-05
4.43699e-05
4.88635e-05
5.54833e-05
5.57436e-05
4.90116e-05
4.38916e-05
4.67689e-05
7.07084e-05
9.35305e-05
9.70086e-05
9.17005e-05
6.95802e-05
5.26867e-05
4.6865e-05
4.63944e-05
4.69611e-05
4.72101e-05
4.60693e-05
4.17779e-05
3.81475e-05
3.62891e-05
3.56443e-05
3.5002e-05
3.47071e-05
3.47373e-05
3.4925e-05
3.5355e-05
3.63424e-05
3.93025e-05
4.35923e-05
4.62514e-05
4.72703e-05
4.70417e-05
4.52144e-05
4.12267e-05
3.92802e-05
3.76221e-05
3.45749e-05
3.28198e-05
3.17693e-05
3.01788e-05
2.94691e-05
2.91718e-05
2.83492e-05
2.56608e-05
2.30703e-05
2.16886e-05
2.14786e-05
2.13517e-05
2.15539e-05
2.20554e-05
2.34437e-05
2.57081e-05
2.60595e-05
2.57927e-05
2.57107e-05
2.57987e-05
2.61306e-05
2.7677e-05
3.21792e-05
3.47992e-05
4.36019e-05
4.91364e-05
4.93401e-05
4.94442e-05
4.99809e-05
4.90123e-05
4.53907e-05
4.26778e-05
4.03733e-05
3.80731e-05
3.77025e-05
3.79592e-05
3.90394e-05
4.41743e-05
4.81482e-05
4.94055e-05
5.11981e-05
5.83913e-05
6.63497e-05
6.95123e-05
6.90435e-05
6.20993e-05
4.88351e-05
3.91183e-05
3.42942e-05
3.28719e-05
3.21938e-05
3.09097e-05
2.86037e-05
2.6832e-05
2.60898e-05
2.61417e-05
2.63308e-05
2.61673e-05
2.60113e-05
2.60853e-05
2.62166e-05
2.64933e-05
2.70717e-05
2.82579e-05
3.20921e-05
3.53636e-05
3.69501e-05
3.73141e-05
3.74261e-05
3.87962e-05
4.07152e-05
4.08868e-05
4.05535e-05
3.78821e-05
3.25095e-05
2.85543e-05
2.70112e-05
2.73541e-05
2.74332e-05
2.86481e-05
2.90193e-05
3.14554e-05
3.14204e-05
3.13353e-05
3.10624e-05
3.05434e-05
2.96011e-05
2.88423e-05
2.80731e-05
2.76791e-05
2.88093e-05
3.43457e-05
3.98533e-05
4.06162e-05
3.94865e-05
3.74684e-05
3.72886e-05
3.71977e-05
3.68613e-05
3.66854e-05
3.78796e-05
5.39908e-05
6.53797e-05
6.89479e-05
6.83686e-05
5.79922e-05
4.67299e-05
3.97678e-05
3.55121e-05
3.23952e-05
3.03468e-05
3.00255e-05
3.03682e-05
3.08541e-05
3.028e-05
2.96214e-05
2.99184e-05
3.21088e-05
3.27365e-05
3.94478e-05
4.09235e-05
5.52336e-05
8.1886e-05
0.000174279
0.000162754
0.000155933
0.000141778
0.000128678
0.000112785
8.99017e-05
6.38604e-05
4.2934e-05
2.77589e-05
1.88273e-05
1.34664e-05
9.54416e-06
8.65432e-06
9.35755e-06
1.06916e-05
1.11692e-05
1.06762e-05
1.11245e-05
1.23507e-05
1.84359e-05
2.24335e-05
2.41767e-05
2.75438e-05
3.23143e-05
6.11864e-05
0.000100716
0.000107029
0.00010567
9.93931e-05
8.50942e-05
7.46712e-05
6.55672e-05
5.78673e-05
5.26292e-05
4.88896e-05
4.57909e-05
4.50096e-05
4.51382e-05
4.55452e-05
4.64826e-05
5.23754e-05
5.70427e-05
5.60007e-05
4.64505e-05
4.37197e-05
4.97583e-05
7.99322e-05
9.72311e-05
9.76197e-05
8.7886e-05
6.46837e-05
5.0935e-05
4.63771e-05
4.62082e-05
4.69896e-05
4.72037e-05
4.57121e-05
4.11869e-05
3.75596e-05
3.60048e-05
3.5563e-05
3.48877e-05
3.44178e-05
3.43607e-05
3.44377e-05
3.46532e-05
3.52201e-05
3.70239e-05
4.10072e-05
4.43009e-05
4.64208e-05
4.67933e-05
4.59403e-05
4.26049e-05
4.06148e-05
3.87098e-05
3.55446e-05
3.3969e-05
3.26808e-05
3.09766e-05
3.02381e-05
3.00065e-05
2.94222e-05
2.7131e-05
2.42096e-05
2.24334e-05
2.19461e-05
2.15631e-05
2.1609e-05
2.19156e-05
2.2692e-05
2.52415e-05
2.64205e-05
2.60153e-05
2.56957e-05
2.57998e-05
2.61188e-05
2.70457e-05
2.88798e-05
3.06549e-05
3.87626e-05
4.43676e-05
4.43136e-05
4.59784e-05
4.85024e-05
4.82294e-05
4.61454e-05
4.43142e-05
4.19742e-05
3.95858e-05
3.91979e-05
3.93314e-05
4.05552e-05
4.58743e-05
4.86029e-05
4.96155e-05
5.18041e-05
6.08578e-05
6.78666e-05
6.99069e-05
6.91171e-05
6.06408e-05
4.66857e-05
3.78857e-05
3.45247e-05
3.36434e-05
3.27244e-05
3.03598e-05
2.82366e-05
2.63892e-05
2.50579e-05
2.48452e-05
2.48718e-05
2.50178e-05
2.50758e-05
2.51252e-05
2.52306e-05
2.55738e-05
2.64288e-05
2.82297e-05
3.28693e-05
3.551e-05
3.69908e-05
3.72377e-05
3.74497e-05
3.88628e-05
4.05415e-05
4.06138e-05
4.022e-05
3.74663e-05
3.21013e-05
2.79759e-05
2.62474e-05
2.65637e-05
2.67563e-05
2.82815e-05
2.86636e-05
3.1525e-05
3.15235e-05
3.15659e-05
3.1386e-05
3.07211e-05
2.96201e-05
2.89756e-05
2.81154e-05
2.77683e-05
2.90213e-05
3.39017e-05
3.89581e-05
3.96673e-05
3.91353e-05
3.74363e-05
3.74252e-05
3.72839e-05
3.6996e-05
3.69848e-05
3.80873e-05
5.32669e-05
6.4549e-05
7.01121e-05
7.0834e-05
6.20887e-05
5.03148e-05
4.24108e-05
3.76245e-05
3.4514e-05
3.26882e-05
3.25727e-05
3.24999e-05
3.24255e-05
3.18189e-05
3.00789e-05
2.88049e-05
3.07346e-05
3.15308e-05
4.34245e-05
4.20031e-05
5.04587e-05
7.12472e-05
0.000134072
0.000127332
0.000121174
0.00010745
9.41962e-05
7.37765e-05
5.45083e-05
3.80173e-05
2.51733e-05
1.69135e-05
1.23697e-05
9.55206e-06
7.62755e-06
7.31976e-06
9.02829e-06
9.75213e-06
9.73617e-06
8.95214e-06
9.04537e-06
9.9404e-06
1.33444e-05
1.83599e-05
2.10908e-05
2.56332e-05
3.04311e-05
4.96096e-05
8.90712e-05
0.000102637
0.000104001
0.000101021
8.93181e-05
7.90271e-05
6.97366e-05
6.19972e-05
5.58298e-05
5.12803e-05
4.82519e-05
4.7495e-05
4.7531e-05
4.77614e-05
4.88796e-05
5.59596e-05
5.84083e-05
5.43498e-05
4.45365e-05
4.40208e-05
5.48936e-05
8.85437e-05
9.94757e-05
9.80723e-05
8.28497e-05
6.03126e-05
4.97001e-05
4.58633e-05
4.58274e-05
4.70615e-05
4.73066e-05
4.52587e-05
4.06194e-05
3.71741e-05
3.58871e-05
3.55694e-05
3.49129e-05
3.43514e-05
3.42007e-05
3.42458e-05
3.43037e-05
3.45288e-05
3.56435e-05
3.87055e-05
4.23903e-05
4.5464e-05
4.63537e-05
4.59514e-05
4.36674e-05
4.18851e-05
3.97253e-05
3.63923e-05
3.47648e-05
3.3307e-05
3.16506e-05
3.08833e-05
3.06533e-05
3.01736e-05
2.81412e-05
2.50363e-05
2.30613e-05
2.26263e-05
2.19383e-05
2.17475e-05
2.19236e-05
2.2394e-05
2.44496e-05
2.65505e-05
2.64842e-05
2.57994e-05
2.58322e-05
2.62408e-05
2.67546e-05
2.72664e-05
2.82871e-05
3.33272e-05
3.53449e-05
3.47183e-05
3.91595e-05
4.42325e-05
4.44823e-05
4.44609e-05
4.40315e-05
4.20562e-05
4.02404e-05
4.00508e-05
4.02019e-05
4.19416e-05
4.68446e-05
4.87952e-05
4.96519e-05
5.25845e-05
6.32559e-05
6.88604e-05
7.02617e-05
6.922e-05
5.94303e-05
4.45009e-05
3.66856e-05
3.45665e-05
3.41547e-05
3.29167e-05
2.99227e-05
2.81093e-05
2.62234e-05
2.47497e-05
2.41299e-05
2.40773e-05
2.41737e-05
2.42374e-05
2.44007e-05
2.46817e-05
2.52798e-05
2.62501e-05
2.84281e-05
3.3542e-05
3.58808e-05
3.68929e-05
3.71391e-05
3.76501e-05
3.9318e-05
4.04508e-05
4.05115e-05
3.99573e-05
3.69438e-05
3.16769e-05
2.76086e-05
2.57923e-05
2.59808e-05
2.62496e-05
2.81554e-05
2.8553e-05
3.14031e-05
3.14754e-05
3.17369e-05
3.15915e-05
3.11613e-05
2.98183e-05
2.94605e-05
2.84671e-05
2.80419e-05
2.93202e-05
3.35401e-05
3.80975e-05
3.88252e-05
3.88058e-05
3.77041e-05
3.74068e-05
3.719e-05
3.70832e-05
3.72236e-05
3.84797e-05
5.02534e-05
6.39162e-05
7.13675e-05
7.18138e-05
6.53613e-05
5.33311e-05
4.53231e-05
4.03179e-05
3.73338e-05
3.59646e-05
3.64175e-05
3.62108e-05
3.57607e-05
3.42398e-05
3.16221e-05
2.8944e-05
3.10257e-05
3.1629e-05
4.55917e-05
4.38364e-05
4.84955e-05
6.34852e-05
8.64342e-05
7.97003e-05
7.43323e-05
6.37348e-05
5.28699e-05
4.07082e-05
3.00372e-05
2.11199e-05
1.40039e-05
1.05922e-05
8.72222e-06
7.25256e-06
6.56932e-06
6.68487e-06
8.60629e-06
8.99149e-06
8.98344e-06
8.34054e-06
8.30418e-06
8.95443e-06
1.02409e-05
1.44449e-05
1.8116e-05
2.20855e-05
2.69234e-05
3.73474e-05
7.61691e-05
0.000100142
0.000102976
0.00010098
9.22351e-05
8.26227e-05
7.41508e-05
6.55661e-05
5.83482e-05
5.41414e-05
5.17745e-05
5.03798e-05
4.97867e-05
4.98456e-05
5.23303e-05
5.91163e-05
5.92032e-05
5.10931e-05
4.32881e-05
4.46158e-05
6.33788e-05
9.52986e-05
0.00010134
9.74538e-05
7.67149e-05
5.79046e-05
4.90582e-05
4.51345e-05
4.5679e-05
4.74616e-05
4.73184e-05
4.43273e-05
4.00127e-05
3.69818e-05
3.58487e-05
3.56831e-05
3.53095e-05
3.44604e-05
3.42122e-05
3.4278e-05
3.41921e-05
3.41888e-05
3.47939e-05
3.66698e-05
4.0452e-05
4.43945e-05
4.58407e-05
4.57995e-05
4.43685e-05
4.28759e-05
4.03862e-05
3.70719e-05
3.55565e-05
3.3894e-05
3.21348e-05
3.13359e-05
3.11887e-05
3.09185e-05
2.92801e-05
2.57509e-05
2.37625e-05
2.34129e-05
2.26305e-05
2.20142e-05
2.20224e-05
2.23246e-05
2.38299e-05
2.63805e-05
2.69056e-05
2.62587e-05
2.59428e-05
2.62775e-05
2.6636e-05
2.67393e-05
2.71574e-05
2.89431e-05
2.91602e-05
2.83782e-05
3.18861e-05
3.83528e-05
3.9723e-05
4.11849e-05
4.18875e-05
4.12774e-05
4.02272e-05
4.01714e-05
4.04367e-05
4.32045e-05
4.72995e-05
4.88381e-05
4.95096e-05
5.38187e-05
6.55703e-05
6.99588e-05
7.07884e-05
6.95558e-05
5.83806e-05
4.24149e-05
3.53665e-05
3.42718e-05
3.42045e-05
3.2929e-05
2.96103e-05
2.81125e-05
2.62419e-05
2.45905e-05
2.39439e-05
2.38444e-05
2.39021e-05
2.41581e-05
2.42586e-05
2.45594e-05
2.52793e-05
2.63573e-05
2.90092e-05
3.39116e-05
3.62536e-05
3.6703e-05
3.69444e-05
3.75691e-05
3.97343e-05
4.03212e-05
4.02509e-05
3.96721e-05
3.63944e-05
3.12554e-05
2.75807e-05
2.53809e-05
2.55974e-05
2.57313e-05
2.78308e-05
2.83479e-05
3.091e-05
3.11521e-05
3.18359e-05
3.1569e-05
3.12559e-05
3.00643e-05
2.98886e-05
2.87577e-05
2.81609e-05
2.93812e-05
3.28475e-05
3.73724e-05
3.79666e-05
3.84411e-05
3.79866e-05
3.75644e-05
3.71487e-05
3.71337e-05
3.77535e-05
3.91644e-05
4.92941e-05
6.56317e-05
7.19481e-05
7.21483e-05
6.76733e-05
5.49919e-05
4.81499e-05
4.31335e-05
4.06365e-05
3.94257e-05
4.10298e-05
4.02484e-05
4.04309e-05
3.77237e-05
3.56138e-05
2.9858e-05
3.32617e-05
3.24405e-05
4.70955e-05
4.53017e-05
4.72518e-05
5.79822e-05
4.73787e-05
4.29386e-05
3.87197e-05
3.27827e-05
2.67931e-05
2.10758e-05
1.57047e-05
1.13778e-05
8.17541e-06
7.41408e-06
6.75536e-06
5.94488e-06
5.87387e-06
6.39464e-06
7.93673e-06
8.0144e-06
8.07417e-06
8.00351e-06
7.95192e-06
8.65636e-06
9.76754e-06
1.21841e-05
1.57876e-05
1.90083e-05
2.5111e-05
3.51207e-05
7.6277e-05
0.000102052
0.000103809
0.000101408
9.40277e-05
8.66209e-05
7.8493e-05
6.93188e-05
6.23247e-05
5.83358e-05
5.49977e-05
5.26153e-05
5.196e-05
5.22308e-05
5.70616e-05
6.12404e-05
5.93449e-05
4.65062e-05
4.25324e-05
4.65479e-05
7.41105e-05
9.9796e-05
0.00010259