/*--------------------------------*- C++ -*----------------------------------*\
| =========                 |                                                 |
| \\      /  F ield         | OpenFOAM: The Open Source CFD Toolbox           |
|  \\    /   O peration     | Version:  2.4.0                                 |
|   \\  /    A nd           | Web:      www.OpenFOAM.org                      |
|    \\/     M anipulation  |                                                 |
\*---------------------------------------------------------------------------*/
FoamFile
{
    version     2.0;
    format      ascii;
    class       volScalarField;
    location    "0.12";
    object      k;
}
// * * * * * * * * * * * * * * * * * * * * * * * * * * * * * * * * * * * * * //

dimensions      [0 2 -2 0 0 0 0];

internalField   nonuniform List<scalar> 
4400
(
9.54138
8.48021
6.52469
5.27896
4.66058
4.18006
4.03857
3.7723
3.69267
3.35556
4.41833
6.74969
6.74348
6.27616
5.74377
5.1689
5.0037
4.66511
4.56667
4.44822
1.18487
3.1467
4.23045
4.50999
4.49076
4.24757
4.1545
3.93872
3.85339
3.79959
0.166235
0.937594
1.72882
2.27418
2.71377
2.77004
2.8643
2.85273
2.83711
2.81831
0.0175822
0.15148
0.433138
0.706608
1.11265
1.32669
1.5012
1.65822
1.7396
1.80236
0.0015001
0.0172971
0.0576711
0.118815
0.24799
0.409648
0.494141
0.66173
0.75901
0.894718
0.000139024
0.00156417
0.00469876
0.011331
0.0262598
0.0655022
0.0896538
0.149157
0.191698
0.286117
4.0444e-05
0.000261989
0.000482711
0.00088126
0.00178586
0.00512674
0.00771099
0.0158876
0.023629
0.0468631
3.37491e-05
0.000134426
0.000221884
0.000249074
0.000286651
0.000435712
0.000513324
0.000888972
0.00133988
0.00313502
3.33022e-05
0.000129616
0.000162919
0.000193392
0.000218961
0.000234997
0.000234354
0.000235422
0.000242981
0.00028452
3.35246e-05
0.000125159
0.000142621
0.000181871
0.000218386
0.000236257
0.00023796
0.000236068
0.000246154
0.000340434
3.4214e-05
0.000113566
0.000152635
0.000210107
0.000282599
0.000366659
0.00056357
0.000841545
0.00146711
0.00439861
4.02042e-05
0.000208663
0.000373979
0.000807201
0.00183085
0.00428823
0.00786063
0.0158182
0.0248556
0.05648
0.000137807
0.0014609
0.00434389
0.011971
0.0276691
0.0603249
0.0915671
0.155873
0.19979
0.326659
0.00147189
0.0166088
0.052144
0.130282
0.253366
0.387497
0.524091
0.678222
0.768654
0.977147
0.0172111
0.148072
0.415073
0.742141
1.09547
1.32961
1.53261
1.66998
1.7594
1.89327
0.163154
0.929044
1.71913
2.30872
2.68619
2.79812
2.87353
2.86217
2.86864
2.86392
1.16687
3.15191
4.22905
4.52969
4.48138
4.27876
4.14247
3.93992
3.87768
3.76395
4.40204
6.76155
6.74439
6.29256
5.71492
5.21607
4.96754
4.65221
4.56898
4.31228
9.52604
8.49114
6.52062
5.29068
4.64033
4.20948
4.00283
3.73267
3.65612
3.295
2.19933
1.43744
0.87218
0.46666
0.353776
0.278626
0.221976
0.202002
0.210774
0.233684
0.362965
0.581356
0.636511
0.599054
0.439146
0.258239
0.164702
0.201052
0.44221
0.588428
0.517809
0.302287
0.190558
0.154638
0.130025
0.126371
0.120505
0.11835
0.121743
0.142773
0.179172
0.195055
0.226841
0.336334
0.479363
0.510783
0.588121
0.584579
0.551205
0.530299
0.493204
0.443919
0.370066
0.274853
0.190682
0.131554
0.0968362
0.0759231
0.0628631
0.062198
0.0728202
0.11581
0.161014
0.177595
0.177145
0.158459
0.139706
0.109887
0.0960501
0.0943184
0.0913336
0.0950894
0.100062
0.110308
0.137796
0.205522
0.244809
0.261856
0.269705
0.285128
0.252974
0.241989
0.294749
0.287571
0.261177
0.217731
0.184583
0.169446
0.170197
0.189886
0.196226
0.183925
0.148592
0.138519
0.140844
0.14856
0.149631
0.125563
0.0923477
0.0758768
0.0534909
0.0464601
0.0575537
0.0517296
0.147598
0.161665
0.254246
0.286046
0.505058
0.752965
3.33853
2.41734
1.90561
1.32784
1.09929
0.864579
0.571338
0.476343
0.503011
0.542825
0.676792
0.72066
0.685943
0.590164
0.342901
0.196804
0.102986
0.105019
0.277991
0.502052
0.507074
0.371773
0.222772
0.166381
0.13312
0.127955
0.119619
0.119632
0.124335
0.155335
0.188022
0.208908
0.263951
0.43875
0.514941
0.542228
0.624993
0.598638
0.544871
0.519577
0.466853
0.447923
0.403394
0.328585
0.23398
0.152317
0.10779
0.0810076
0.0656061
0.0645073
0.0744674
0.117828
0.151504
0.170353
0.170909
0.153721
0.133283
0.112648
0.0992669
0.0999977
0.0972251
0.101125
0.105065
0.118076
0.156666
0.231047
0.26626
0.274798
0.275935
0.274681
0.225989
0.23412
0.290646
0.281681
0.244751
0.189514
0.16727
0.150834
0.149772
0.156256
0.18271
0.18246
0.171844
0.162025
0.162811
0.163134
0.158382
0.13697
0.0953926
0.0720993
0.066323
0.0501399
0.0835589
0.0678531
0.141776
0.164504
0.139739
0.167927
0.167807
0.491785
3.17068
2.50293
2.17664
1.77794
1.47212
1.38351
1.18688
1.00791
0.965229
0.886411
0.824522
0.774386
0.663929
0.469926
0.254518
0.150117
0.0752385
0.0631183
0.125766
0.376375
0.512888
0.469092
0.298243
0.195185
0.145776
0.130894
0.122695
0.124391
0.133684
0.177074
0.202471
0.229102
0.324408
0.498197
0.534602
0.574174
0.650757
0.597922
0.496342
0.456621
0.405936
0.40609
0.388034
0.343823
0.283118
0.196022
0.131457
0.0903932
0.0707622
0.0675449
0.0754661
0.117204
0.151429
0.165144
0.167387
0.15407
0.130922
0.121441
0.105166
0.103728
0.101391
0.105095
0.111398
0.133777
0.184316
0.258575
0.280447
0.280986
0.273882
0.243562
0.202952
0.22575
0.313621
0.296335
0.24125
0.163384
0.15208
0.138326
0.137328
0.13847
0.155704
0.175306
0.173248
0.171714
0.171528
0.174826
0.167144
0.137454
0.111627
0.0728531
0.0855809
0.0633369
0.0868292
0.0862069
0.115566
0.130415
0.0947038
0.104031
0.0893672
0.205339
2.49838
2.14154
1.92026
1.75603
1.46416
1.35461
1.24692
1.09274
1.02261
0.935445
0.805349
0.708562
0.49699
0.311868
0.159823
0.0949267
0.0542759
0.0387174
0.0614504
0.216308
0.472485
0.469371
0.403353
0.248908
0.173821
0.140402
0.133304
0.136988
0.15887
0.205867
0.220573
0.255064
0.416298
0.531387
0.553411
0.616269
0.655934
0.552756
0.415032
0.376479
0.33022
0.337619
0.341167
0.330529
0.281084
0.240072
0.173743
0.108851
0.0767875
0.0696686
0.0755343
0.113783
0.153763
0.163081
0.163203
0.159307
0.138405
0.129313
0.110734
0.10599
0.106695
0.112229
0.119614
0.15477
0.209141
0.279712
0.286532
0.283149
0.249202
0.213998
0.199834
0.242245
0.363079
0.319221
0.233714
0.151376
0.140047
0.129522
0.133313
0.130433
0.134849
0.154907
0.16807
0.174464
0.174228
0.178208
0.172247
0.139753
0.131267
0.0862659
0.100207
0.0765445
0.0825927
0.0982107
0.1016
0.106745
0.0774756
0.0761102
0.0617572
0.100138
1.65071
1.49781
1.36161
1.33052
1.22443
1.08085
0.977795
0.849051
0.767565
0.691206
0.565763
0.432857
0.263033
0.13447
0.0637518
0.0393638
0.0345332
0.0265922
0.0326884
0.0890337
0.32092
0.423331
0.411783
0.336103
0.226113
0.167155
0.15894
0.165736
0.205375
0.223449
0.232312
0.293435
0.493824
0.550009
0.568059
0.648895
0.628102
0.500872
0.39861
0.322419
0.270173
0.272761
0.287983
0.295912
0.271437
0.250577
0.202189
0.134695
0.0887447
0.0739753
0.0778002
0.10968
0.153432
0.158813
0.155085
0.159763
0.149682
0.130773
0.117215
0.113596
0.117074
0.119678
0.126821
0.173642
0.241017
0.288508
0.288061
0.278826
0.22377
0.185146
0.19364
0.313725
0.374577
0.304877
0.203658
0.137522
0.13075
0.123083
0.138932
0.130948
0.13121
0.135784
0.151495
0.172694
0.173994
0.179802
0.180689
0.151796
0.150367
0.108239
0.105344
0.0902203
0.0850056
0.0972137
0.090923
0.0895203
0.0715049
0.0594104
0.0573276
0.0690913
0.836316
0.778633
0.7532
0.758087
0.738536
0.660095
0.585691
0.456819
0.385735
0.323467
0.216236
0.146447
0.0854565
0.0444533
0.0257471
0.0207543
0.0236602
0.0230322
0.0225069
0.0388045
0.0955109
0.290972
0.374436
0.355597
0.29672
0.223785
0.212617
0.227291
0.242909
0.231599
0.240667
0.37366
0.554356
0.558186
0.576755
0.660668
0.577043
0.490878
0.392483
0.241756
0.249099
0.241098
0.243405
0.256812
0.250242
0.243906
0.215272
0.158814
0.103213
0.0820652
0.0845798
0.105707
0.143794
0.1544
0.149992
0.155949
0.150097
0.129775
0.125522
0.12345
0.123036
0.123461
0.135185
0.208537
0.268804
0.289696
0.280823
0.273714
0.215349
0.184032
0.210805
0.418581
0.362399
0.236225
0.167593
0.119303
0.112457
0.111551
0.147135
0.13388
0.138224
0.134724
0.142143
0.165522
0.170081
0.18548
0.191829
0.174896
0.157282
0.115501
0.104024
0.0936319
0.0858013
0.0904024
0.0833196
0.0773856
0.0619696
0.056316
0.0531905
0.0608907
0.26862
0.260385
0.263886
0.289811
0.290386
0.268365
0.231703
0.156784
0.114452
0.087173
0.0555269
0.0390475
0.024102
0.0140266
0.0124854
0.0147354
0.0205916
0.0221882
0.019883
0.0217106
0.0353637
0.146763
0.299788
0.326916
0.315637
0.278817
0.266426
0.265049
0.256126
0.221681
0.250903
0.474539
0.580973
0.555262
0.582929
0.663115
0.541602
0.514207
0.358482
0.2206
0.23622
0.233115
0.227466
0.231998
0.225166
0.226222
0.211925
0.168008
0.113241
0.0893287
0.0908341
0.10159
0.121556
0.150314
0.148039
0.148856
0.142959
0.126341
0.126093
0.125627
0.123727
0.126036
0.148799
0.245485
0.281001
0.276266
0.25493
0.254394
0.211402
0.25076
0.290779
0.463829
0.296761
0.221056
0.164339
0.113992
0.103762
0.0991658
0.146822
0.138537
0.16424
0.140349
0.145019
0.164221
0.169591
0.209157
0.201166
0.174601
0.153087
0.127351
0.10296
0.0933432
0.0834657
0.0829977
0.0760479
0.0692623
0.0560639
0.0563631
0.0536574
0.0614965
0.0450302
0.0452782
0.0481975
0.0633097
0.0672563
0.0620806
0.0490388
0.0310215
0.0192155
0.0140324
0.0101399
0.00837964
0.00658883
0.00711956
0.00897011
0.0179907
0.0245589
0.0244872
0.0217557
0.0173662
0.0198642
0.0532502
0.185069
0.276651
0.291735
0.286521
0.278433
0.271145
0.225601
0.199072
0.290858
0.579313
0.592839
0.537183
0.59201
0.642006
0.524284
0.545318
0.336806
0.216519
0.191933
0.226608
0.226744
0.215493
0.21175
0.204557
0.200963
0.167425
0.131443
0.0949799
0.0941762
0.102352
0.112354
0.13893
0.145804
0.144904
0.131404
0.122775
0.123028
0.123046
0.123205
0.130962
0.177435
0.278702
0.284137
0.260106
0.238002
0.213432
0.188799
0.25599
0.342544
0.403418
0.281962
0.238587
0.182879
0.114595
0.103166
0.0922572
0.109486
0.129209
0.187267
0.154459
0.150958
0.168919
0.172012
0.208898
0.202436
0.175304
0.150957
0.130638
0.102949
0.0930237
0.083863
0.080919
0.0712492
0.0665053
0.0557101
0.0576127
0.0547614
0.0591324
0.00325661
0.00350186
0.00451351
0.0068885
0.00762999
0.00676849
0.00455281
0.00290077
0.00241487
0.00246296
0.00301766
0.00355137
0.00459751
0.00714968
0.0136359
0.0345521
0.0448451
0.0428769
0.0329637
0.0201639
0.0186381
0.0261199
0.0730569
0.186612
0.245161
0.256948
0.252154
0.237625
0.169224
0.179297
0.418402
0.63071
0.582992
0.497603
0.592511
0.573076
0.51768
0.554414
0.330456
0.224351
0.180114
0.209793
0.230088
0.206166
0.217313
0.196816
0.203127
0.167545
0.155784
0.10933
0.0968326
0.105963
0.111935
0.127437
0.140575
0.139453
0.125815
0.121106
0.121181
0.122738
0.12758
0.144321
0.216876
0.293173
0.278811
0.217068
0.207138
0.188017
0.183083
0.229266
0.359184
0.343508
0.289971
0.279769
0.204459
0.12108
0.115778
0.0929181
0.0927125
0.112602
0.164965
0.160755
0.148168
0.186309
0.177685
0.189258
0.19924
0.17768
0.154138
0.130317
0.106701
0.0939633
0.0847958
0.080872
0.069745
0.0656387
0.0563314
0.0569849
0.0558827
0.0595872
0.000319902
0.000345734
0.000469832
0.000537817
0.000590111
0.000581001
0.000629534
0.000882149
0.00217593
0.00318684
0.00545861
0.00812059
0.0127514
0.0226012
0.0468569
0.0764147
0.0815536
0.0769955
0.0595159
0.0323251
0.0218712
0.0216375
0.0336102
0.0735177
0.155972
0.17985
0.176534
0.143387
0.124512
0.201131
0.573714
0.654533
0.530668
0.466484
0.578524
0.510247
0.531956
0.560555
0.359401
0.238133
0.190098
0.223749
0.211144
0.185357
0.231328
0.193964
0.222324
0.174304
0.167492
0.116361
0.0984358
0.10503
0.11228
0.123962
0.136497
0.136085
0.125059
0.122502
0.123063
0.13025
0.141171
0.164156
0.250461
0.299044
0.251401
0.182504
0.167395
0.167918
0.165953
0.234497
0.28217
0.336605
0.342757
0.2906
0.197434
0.121668
0.13969
0.10077
0.0976062
0.106076
0.116788
0.160109
0.145608
0.2171
0.204155
0.188938
0.201413
0.18193
0.16599
0.128822
0.114223
0.0979498
0.0860945
0.0813921
0.0699564
0.065964
0.0578092
0.0561621
0.0532587
0.0566794
0.000542487
0.000502042
0.000393752
0.000391418
0.000399288
0.000650855
0.00165032
0.0042011
0.0129306
0.0174531
0.0269395
0.0366994
0.0491856
0.07904
0.129006
0.151326
0.147589
0.133337
0.100174
0.0584186
0.0326702
0.0244708
0.025982
0.0344261
0.0705116
0.090711
0.090903
0.0825725
0.102545
0.346607
0.691272
0.662842
0.437397
0.426943
0.559971
0.457308
0.555134
0.605836
0.415266
0.237617
0.20253
0.251382
0.197781
0.16744
0.231463
0.184112
0.228757
0.17767
0.166097
0.125083
0.101276
0.102708
0.108585
0.120958
0.134673
0.135197
0.128059
0.128775
0.133344
0.148225
0.156934
0.183055
0.271974
0.291981
0.210426
0.140975
0.140425
0.150644
0.158434
0.23581
0.237826
0.382577
0.344321
0.231754
0.19355
0.127302
0.177178
0.11175
0.131051
0.10861
0.116725
0.169177
0.154229
0.198165
0.288145
0.212105
0.219728
0.186961
0.175604
0.131877
0.115825
0.10502
0.0901438
0.0823914
0.0719493
0.0685702
0.060379
0.0558738
0.0531626
0.0557
0.00661109
0.00605153
0.0045174
0.00450078
0.00445497
0.00662025
0.0148881
0.0310634
0.0609573
0.0734714
0.0991982
0.120591
0.146167
0.219294
0.269772
0.27429
0.260654
0.221101
0.1635
0.104177
0.0589893
0.034842
0.0289292
0.0301798
0.0364029
0.0483271
0.0527035
0.0629071
0.144492
0.566375
0.732802
0.58418
0.364205
0.393175
0.504749
0.418058
0.581866
0.685725
0.50234
0.235611
0.203551
0.231269
0.200105
0.168609
0.214601
0.168621
0.216391
0.177071
0.156547
0.139087
0.107951
0.103763
0.106716
0.12018
0.129265
0.136624
0.138151
0.14711
0.154599
0.159871
0.165269
0.2056
0.281285
0.274726
0.158129
0.111373
0.116674
0.13501
0.152839
0.200908
0.216103
0.387071
0.324749
0.208802
0.226483
0.149114
0.200791
0.113542
0.208651
0.118692
0.139453
0.225832
0.198378
0.188472
0.331912
0.237582
0.242309
0.193736
0.1841
0.138938
0.123245
0.111904
0.0940722
0.083815
0.0789911
0.0763178
0.064779
0.0577311
0.0569136
0.0584305
0.0653364
0.0621138
0.0528549
0.0527258
0.0532856
0.0638164
0.102154
0.146761
0.202425
0.224892
0.26781
0.296014
0.347402
0.452087
0.465107
0.457183
0.424814
0.342476
0.258428
0.181535
0.112858
0.0638654
0.0418685
0.0361295
0.0369857
0.0401456
0.0473924
0.0865296
0.35003
0.735974
0.737344
0.446562
0.302933
0.370738
0.435309
0.384049
0.602163
0.82213
0.712222
0.281044
0.197832
0.195097
0.199214
0.174604
0.200642
0.169754
0.197387
0.177162
0.154235
0.141374
0.124129
0.110149
0.108976
0.118831
0.125165
0.142434
0.154096
0.1614
0.16295
0.162516
0.169421
0.231999
0.274333
0.240205
0.126228
0.09014
0.0958706
0.118513
0.13556
0.155523
0.194818
0.364763
0.339536
0.22747
0.237136
0.254083
0.206592
0.113084
0.302367
0.144805
0.222243
0.232575
0.499107
0.233482
0.353644
0.250196
0.250181
0.201024
0.178352
0.145747
0.123861
0.111309
0.0957331
0.0925928
0.0900226
0.0812615
0.067823
0.0624681
0.0615884
0.0605974
0.327965
0.314243
0.275926
0.271718
0.27333
0.296953
0.368863
0.423814
0.471805
0.492234
0.525462
0.556107
0.641702
0.699771
0.691093
0.661974
0.594279
0.473974
0.376886
0.294305
0.201228
0.123212
0.0783831
0.0592582
0.0581483
0.0624271
0.0883646
0.211773
0.642854
0.79164
0.653128
0.314184
0.257282
0.340613
0.372959
0.352426
0.597949
0.994318
0.994066
0.414352
0.224824
0.202557
0.214093
0.202379
0.207352
0.179239
0.199289
0.178944
0.162179
0.142156
0.135864
0.12848
0.116581
0.120636
0.125993
0.146229
0.159626
0.162256
0.160876
0.160377
0.186171
0.254805
0.257342
0.193745
0.111848
0.0803121
0.0812317
0.0995546
0.111832
0.127061
0.169389
0.327963
0.411155
0.301943
0.254575
0.306418
0.205912
0.179484
0.32853
0.245976
0.504009
0.235593
0.67761
0.271469
0.308767
0.259723
0.24165
0.200262
0.164066
0.147981
0.123038
0.11135
0.103801
0.101704
0.0961361
0.0843729
0.074861
0.0716403
0.0717646
0.075373
0.929508
0.853488
0.756161
0.710278
0.706508
0.733861
0.781311
0.795072
0.791976
0.791698
0.801401
0.835722
0.9057
0.912162
0.877519
0.810127
0.706578
0.591133
0.495366
0.398524
0.310156
0.236672
0.163329
0.127857
0.12781
0.144717
0.223498
0.557742
0.784395
0.766417
0.458965
0.251846
0.225664
0.30799
0.314318
0.323968
0.518631
1.05658
1.31591
0.676434
0.298229
0.229411
0.234603
0.249205
0.216172
0.210495
0.232503
0.183309
0.214254
0.14895
0.141411
0.140801
0.127442
0.126691
0.130562
0.145594
0.156866
0.156795
0.156696
0.164536
0.229199
0.255408
0.22792
0.157271
0.105833
0.0771031
0.0735288
0.085515
0.0953415
0.107168
0.138885
0.284774
0.442249
0.385134
0.280681
0.257833
0.241142
0.327975
0.303595
0.327744
0.395193
0.225845
0.334654
0.275671
0.248989
0.268131
0.241522
0.208376
0.173858
0.149318
0.132089
0.120803
0.121106
0.11869
0.114672
0.105275
0.102689
0.0991068
0.0985102
0.096092
1.72598
1.51706
1.36122
1.24562
1.19501
1.18184
1.14842
1.06973
1.01362
1.01253
1.03378
1.07971
1.08506
1.05124
0.977198
0.905532
0.795796
0.686094
0.595279
0.514596
0.43272
0.339421
0.272813
0.26213
0.27276
0.328424
0.57246
0.785713
0.796065
0.595727
0.30277
0.222408
0.211439
0.269325
0.269378
0.293488
0.36694
1.02029
1.60229
1.23641
0.453373
0.258186
0.228136
0.233539
0.233739
0.22997
0.239038
0.192913
0.247993
0.175971
0.149559
0.15329
0.143759
0.13836
0.140949
0.147144
0.156072
0.157597
0.165591
0.214075
0.26293
0.250558
0.190632
0.145282
0.104727
0.0777172
0.0717468
0.0806545
0.0877695
0.0935452
0.111258
0.226965
0.44254
0.461237
0.298502
0.220509
0.240882
0.273254
0.236429
0.284023
0.239546
0.200783
0.25076
0.314194
0.257782
0.284738
0.246133
0.209316
0.193349
0.156451
0.154669
0.147008
0.147787
0.144606
0.138039
0.123957
0.118379
0.117055
0.11876
0.122769
2.51944
2.15433
1.88233
1.66351
1.5355
1.41568
1.31574
1.22577
1.20157
1.20883
1.20552
1.19539
1.16417
1.0783
1.0213
0.950766
0.849048
0.761737
0.695578
0.616071
0.526281
0.46342
0.449664
0.459174
0.50475
0.691377
0.83499
0.825371
0.647625
0.325428
0.226735
0.213812
0.211096
0.235429
0.273946
0.290794
0.294912
0.659229
1.70313
1.97489
0.941524
0.401912
0.261575
0.243086
0.250676
0.258179
0.251754
0.216459
0.236587
0.285344
0.179879
0.176836
0.175068
0.165293
0.166034
0.165616
0.171111
0.182825
0.239136
0.281606
0.281621
0.238294
0.183253
0.155649
0.113605
0.080126
0.0702778
0.0781115
0.0836345
0.085717
0.100578
0.195293
0.416461
0.497199
0.412635
0.260624
0.246233
0.209921
0.227593
0.267927
0.288154
0.213412
0.275922
0.476122
0.281911
0.276936
0.220183
0.195378
0.182351
0.176792
0.174576
0.172659
0.168404
0.161257
0.158817
0.159556
0.167838
0.202957
0.271867
0.302367
3.101
2.50868
2.09662
1.81554
1.64541
1.50985
1.42847
1.36636
1.33186
1.30594
1.25186
1.20865
1.1216
1.03883
0.994476
0.925677
0.86827
0.838314
0.800427
0.745406
0.706448
0.699779
0.710976
0.761452
0.889417
0.925722
0.873893
0.602317
0.300327
0.18785
0.193219
0.231855
0.242409
0.245848
0.336731
0.32999
0.280319
0.357049
1.36242
2.27092
2.28565
1.06707
0.533667
0.374123
0.33479
0.350525
0.385708
0.327297
0.228792
0.335488
0.322117
0.240845
0.245888
0.232354
0.232297
0.236421
0.25188
0.307404
0.363245
0.371722
0.340768
0.303377
0.273391
0.233992
0.149553
0.089833
0.0751878
0.0830868
0.0960774
0.113332
0.141459
0.215639
0.374151
0.493673
0.570373
0.401425
0.370069
0.293662
0.268215
0.330628
0.380036
0.288532
0.304857
0.466705
0.290007
0.2501
0.253726
0.230527
0.238115
0.258993
0.275302
0.2833
0.300272
0.325084
0.383259
0.46225
0.64487
0.906537
1.1372
1.24008
3.21897
2.46921
2.04508
1.82544
1.69223
1.58699
1.50412
1.42517
1.3436
1.23077
1.10172
0.974196
0.866757
0.814365
0.792972
0.784119
0.803278
0.829188
0.846934
0.873138
0.917963
0.978182
1.04132
1.07686
1.06176
0.916154
0.582691
0.332602
0.219806
0.200529
0.234044
0.270597
0.261092
0.30006
0.365075
0.409336
0.408306
0.33604
0.558642
2.11434
3.02171
3.19968
2.09861
1.4376
0.844874
0.655629
0.75645
0.429961
0.295682
0.345864
0.399732
0.393817
0.363855
0.39258
0.423548
0.541935
0.629771
0.883848
0.910897
0.925215
0.822141
0.741538
0.50743
0.407195
0.237804
0.191658
0.167354
0.214214
0.342357
0.456525
0.431214
0.37595
0.373582
0.444214
0.606757
0.586647
0.641012
0.494714
0.495973
0.377377
0.582855
0.512105
0.376361
0.424087
0.461477
0.372067
0.541064
0.559783
0.66245
0.869413
1.0679
1.33458
1.56008
1.95925
2.34537
2.85556
3.28102
3.5792
3.60099
3.60812
2.18848
1.79341
1.63741
1.54953
1.44297
1.3006
1.12934
0.940939
0.742285
0.549567
0.386039
0.281186
0.238793
0.238113
0.26768
0.308055
0.356321
0.406551
0.460247
0.542548
0.666863
0.826552
0.98266
1.06747
1.05432
0.939391
0.820126
0.798421
0.859464
1.02746
1.04714
0.732156
0.376184
0.364888
0.678292
1.13779
0.911889
0.687426
0.615282
0.466613
1.196
3.95152
5.39962
5.80737
5.09225
3.92709
3.51706
1.64648
1.03501
0.396253
0.414789
0.454111
0.53147
0.961619
1.26097
1.95885
2.13095
2.44758
2.19313
2.15438
1.67405
1.48236
0.865824
0.770396
0.505672
0.624997
0.608619
0.948342
0.905606
1.05635
0.83376
0.926849
0.69364
0.574925
0.523325
0.629212
1.07953
0.963802
1.66486
0.577721
1.37186
0.568789
0.497103
0.544792
0.953081
0.934821
1.66091
2.33598
2.80631
3.86628
4.18642
5.10486
5.41828
6.16839
6.23493
6.40244
6.13139
5.85297
5.25787
5.18165
0.0305834
0.0966587
0.105601
0.156294
0.215665
0.248164
0.249352
0.277754
0.41465
0.687011
1.03948
1.03297
0.753697
0.366184
0.260076
0.24613
0.234043
0.316251
0.540274
0.940518
1.48637
1.80649
1.8717
1.75825
1.12767
0.801072
1.6178
3.07318
4.51497
5.46592
5.89678
5.76818
4.10203
3.01179
1.55773
0.971686
0.395666
0.290022
0.223038
0.244042
0.380728
0.579582
0.930599
1.18305
1.40037
1.45677
1.46191
1.41283
1.37304
1.30773
1.2463
1.25038
1.25942
1.24759
1.02499
0.665644
0.574026
0.755794
1.04462
1.1607
1.03646
0.813052
0.45118
0.30103
0.226902
0.247771
0.36001
0.511296
0.690716
0.845194
0.956332
0.981881
0.932071
0.794395
0.649634
0.522444
0.426832
0.359567
0.312275
0.2737
0.234945
0.19438
0.155558
0.123582
0.101565
0.0893348
0.0842913
0.0834226
0.0842844
0.0875379
0.0932592
0.0938226
0.0779654
0.0665127
0.0868174
0.230925
0.415662
0.43172
0.19018
0.143525
0.0550261
0.0770053
0.0646573
0.0672782
0.0778311
0.117071
0.119656
0.153216
0.230475
0.251687
0.343398
0.550674
0.745103
0.830969
0.820764
0.681235
0.471981
0.381752
0.340118
0.346294
0.425563
0.507974
0.54543
0.81369
1.9735
2.58582
2.52911
2.6369
2.36871
1.84789
1.58633
0.948465
0.607998
0.564686
0.537949
0.499743
0.464956
0.450408
0.437765
0.379601
0.368659
0.348723
0.358411
0.38589
0.450592
0.549981
0.633254
0.675357
0.765742
0.995899
1.08674
1.02127
0.709806
0.509819
0.485919
0.534912
0.565448
0.564336
0.458333
0.358564
0.236883
0.228741
0.230675
0.220796
0.222311
0.198989
0.194102
0.202178
0.232057
0.267086
0.312729
0.365687
0.420112
0.453254
0.455567
0.440142
0.397471
0.335133
0.266786
0.203776
0.151929
0.11246
0.0865357
0.0723144
0.0652419
0.0613374
0.0586335
0.0575038
0.0599287
0.0645511
0.0660746
0.0587011
0.0528283
0.060835
0.108628
0.198333
0.219028
0.131839
0.109922
0.145436
0.0778196
0.059241
0.0477629
0.0504166
0.0623314
0.0994217
0.132174
0.264012
0.405974
0.401108
0.328572
0.327813
0.365814
0.440387
0.528088
0.531042
0.49432
0.361775
0.226055
0.197588
0.201862
0.220651
0.487535
1.69685
2.35932
2.15711
1.43113
0.948931
0.683675
0.532206
0.48963
0.468117
0.514367
0.568777
0.607665
0.596194
0.583549
0.590596
0.527414
0.48184
0.432242
0.382271
0.335315
0.290937
0.262042
0.250885
0.227687
0.20859
0.209164
0.245182
0.358687
0.408256
0.406842
0.410859
0.450033
0.518716
0.443447
0.337659
0.254165
0.221413
0.20839
0.24987
0.260868
0.257316
0.266578
0.210575
0.169116
0.141321
0.128034
0.123654
0.124783
0.130891
0.150391
0.180621
0.217524
0.255962
0.264965
0.25494
0.224035
0.177776
0.138976
0.113798
0.100125
0.0928843
0.0868882
0.0782731
0.0673283
0.05419
0.0406084
0.0358523
0.0355404
0.0363109
0.0414768
0.051443
0.085586
0.109292
0.0996159
0.0732447
0.0892577
0.136398
0.0697582
0.0494358
0.0438567
0.0495468
0.0760843
0.126276
0.220142
0.429038
0.536371
0.556311
0.482557
0.368742
0.334492
0.321137
0.296249
0.275313
0.260715
0.204911
0.156774
0.15736
0.17405
0.314019
1.15219
2.03731
1.99682
1.02176
0.601614
0.444121
0.385883
0.367911
0.401152
0.417862
0.510177
0.587296
0.61603
0.606483
0.616022
0.606194
0.542802
0.517126
0.453387
0.408614
0.373379
0.314026
0.258735
0.240155
0.227628
0.183818
0.133936
0.124443
0.126855
0.142784
0.236107
0.371607
0.46198
0.470856
0.317443
0.248409
0.210677
0.203161
0.202028
0.240129
0.25427
0.264696
0.288129
0.261503
0.215495
0.17453
0.143842
0.120903
0.111187
0.109775
0.110273
0.111643
0.11614
0.125847
0.133252
0.146093
0.15942
0.159223
0.149613
0.122979
0.110851
0.109885
0.115624
0.118017
0.111553
0.090799
0.0619393
0.0442149
0.0387697
0.0387936
0.0417654
0.0442257
0.0603546
0.0732538
0.0590342
0.0497929
0.0730693
0.126645
0.0593479
0.046675
0.0455652
0.0582869
0.0975265
0.174955
0.362814
0.553599
0.586647
0.599707
0.560939
0.426209
0.400194
0.372678
0.299406
0.246781
0.200366
0.155737
0.144387
0.162785
0.256016
0.685664
1.61083
1.89844
1.07281
0.510815
0.35103
0.312201
0.306048
0.347288
0.416869
0.43309
0.518475
0.590594
0.605268
0.598504
0.617026
0.601756
0.540955
0.509442
0.452377
0.384352
0.359253
0.335382
0.268763
0.222995
0.213688
0.198423
0.150396
0.115596
0.106025
0.112267
0.2001
0.37117
0.464523
0.402785
0.221248
0.196782
0.18546
0.178266
0.175243
0.192312
0.199103
0.24508
0.282842
0.271368
0.238071
0.196397
0.175341
0.160557
0.139563
0.125049
0.124421
0.131027
0.130594
0.124094
0.11549
0.114821
0.118679
0.132922
0.136769
0.128521
0.11307
0.111021
0.115393
0.126038
0.134956
0.135181
0.125785
0.0958085
0.0672846
0.0558155
0.0549229
0.0488508
0.047953
0.0561024
0.0439454
0.0360871
0.060806
0.119513
0.0573755
0.0508036
0.0578035
0.0751623
0.135578
0.280972
0.521275
0.585493
0.568347
0.565715
0.557479
0.422563
0.376105
0.363221
0.284679
0.252593
0.189913
0.150067
0.15187
0.21925
0.456714
1.08159
1.61626
1.34282
0.565919
0.318843
0.263426
0.255143
0.293095
0.338598
0.442188
0.45773
0.506797
0.562719
0.550757
0.582268
0.576255
0.555101
0.525293
0.481579
0.425849
0.350942
0.299066
0.286498
0.266085
0.221258
0.204013
0.192074
0.155239
0.117585
0.105433
0.110593
0.203877
0.381885
0.430185
0.361149
0.202957
0.169086
0.159518
0.142266
0.135049
0.136039
0.12621
0.173527
0.237061
0.267549
0.24818
0.207146
0.178331
0.169681
0.162584
0.147703
0.137164
0.137917
0.154805
0.169372
0.161131
0.136283
0.125461
0.125717
0.128976
0.128567
0.116982
0.10596
0.106429
0.113281
0.125809
0.133529
0.138421
0.137114
0.127082
0.108805
0.0982476
0.0770304
0.050319
0.0448754
0.0393812
0.0305949
0.0573171
0.116895
0.0621005
0.0661853
0.0840356
0.110095
0.216385
0.412166
0.520227
0.512667
0.481477
0.488261
0.50007
0.400393
0.329047
0.319651
0.263195
0.23288
0.173604
0.14634
0.168184
0.324066
0.709281
1.19844
1.48252
0.754652
0.3459
0.237273
0.219616
0.254508
0.309257
0.333336
0.415412
0.445433
0.474113
0.499251
0.494554
0.49088
0.483021
0.449288
0.446908
0.415811
0.368164
0.315069
0.26111
0.236898
0.223431
0.187614
0.175318
0.170676
0.152956
0.119907
0.110827
0.115392
0.211352
0.399877
0.351963
0.268153
0.193941
0.158209
0.139595
0.113256
0.108285
0.109693
0.103762
0.118803
0.150496
0.229593
0.238542
0.21478
0.174779
0.159654
0.159792
0.160105
0.157616
0.150535
0.153697
0.170885
0.2061
0.201498
0.172086
0.141112
0.133825
0.130949
0.122387
0.0990049
0.087299
0.0877885
0.0945479
0.111966
0.125669
0.133235
0.133728
0.131821
0.128982
0.13006
0.0850902
0.0472096
0.0392237
0.0303296
0.0569595
0.116452
0.0680989
0.0893737
0.119926
0.174472
0.294569
0.437147
0.482298
0.420548
0.413349
0.461843
0.476123
0.436689
0.327567
0.309051
0.294675
0.24571
0.174614
0.152771
0.207382
0.465889
0.844825
1.18021
1.09735
0.449872
0.242345
0.199637
0.210702
0.259135
0.309665
0.329208
0.33963
0.379711
0.457462
0.470752
0.470335
0.439599
0.407975
0.349469
0.337655
0.316882
0.290063
0.254841
0.212192
0.183312
0.175651
0.153973
0.143731
0.141794
0.137835
0.118594
0.112999
0.120843
0.212431
0.416982
0.329084
0.196612
0.163468
0.134604
0.132015
0.108461
0.0973898
0.0971007
0.0965633
0.103495
0.121017
0.183383
0.207593
0.203983
0.173627
0.147807
0.142062
0.143958
0.15003
0.161519
0.166473
0.174943
0.19857
0.226002
0.220876
0.184389
0.147869
0.137919
0.128887
0.106341
0.0827657
0.0729064
0.0729188
0.0767571
0.0879002
0.104401
0.117204
0.123039
0.123547
0.132322
0.12595
0.0848453
0.0430417
0.0445255
0.0636393
0.119701
0.0791952
0.102192
0.141598
0.213159
0.336978
0.412357
0.404044
0.359209
0.394825
0.449408
0.481641
0.493599
0.418887
0.387701
0.405995
0.32828
0.207115
0.182503
0.269385
0.564189
0.886751
1.0743
0.686722
0.301587
0.201309
0.188301
0.213088
0.251232
0.267152
0.315039
0.308951
0.338572
0.44684
0.45227
0.433868
0.382657
0.320642
0.273736
0.26015
0.245397
0.226012
0.205636
0.184585
0.160266
0.138519
0.118505
0.112385
0.115611
0.117144
0.111995
0.109561
0.125486
0.213666
0.412599
0.335924
0.18495
0.158601
0.115225
0.106731
0.0994602
0.0919002
0.0918153
0.0903199
0.0962857
0.107975
0.163248
0.194404
0.192186
0.171662
0.146311
0.138813
0.134435
0.13271
0.139132
0.16273
0.17927
0.195381
0.231137
0.248532
0.234722
0.180133
0.14767
0.136734
0.117543
0.0891972
0.0675424
0.0592594
0.0588311
0.0614099
0.0688252
0.0761093
0.0885166
0.0917275
0.100556
0.115097
0.107949
0.0704613
0.0611118
0.0662398
0.12722
0.0846533
0.108307
0.151648
0.230373
0.327729
0.360478
0.348821
0.349171
0.433715
0.470637
0.498128
0.514833
0.536979
0.522686
0.480073
0.43042
0.293148
0.240919
0.336762
0.612336
0.873836
0.854115
0.445046
0.235265
0.182036
0.185854
0.209793
0.228914
0.218789
0.30993
0.290102
0.325379
0.4145
0.407645
0.373337
0.298969
0.249843
0.228786
0.217029
0.198531
0.181922
0.162738
0.154157
0.145261
0.12417
0.101856
0.0909322
0.0920705
0.0981488
0.0995043
0.102485
0.131826
0.229149
0.375053
0.333916
0.196625
0.170514
0.109775
0.0931872
0.0882765
0.0832467
0.0892847
0.0859661
0.0882549
0.0963236
0.13844
0.186617
0.188121
0.175582
0.154285
0.142923
0.135974
0.1263
0.125422
0.139248
0.167874
0.183735
0.212914
0.250771
0.256359
0.226662
0.167857
0.144921
0.131033
0.100627
0.0721413
0.054809
0.0503207
0.0484854
0.0500854
0.0517933
0.0549011
0.0550013
0.0560518
0.0642326
0.091108
0.0781157
0.0655476
0.0666777
0.13113
0.0863178
0.110562
0.156297
0.232353
0.306085
0.321366
0.321228
0.382414
0.48633
0.528898
0.547396
0.554382
0.569213
0.581064
0.515832
0.50017
0.428743
0.3177
0.384667
0.639746
0.794819
0.657317
0.334896
0.198447
0.167892
0.180925
0.197356
0.225019