/*--------------------------------*- C++ -*----------------------------------*\
| =========                 |                                                 |
| \\      /  F ield         | OpenFOAM: The Open Source CFD Toolbox           |
|  \\    /   O peration     | Version:  2.4.0                                 |
|   \\  /    A nd           | Web:      www.OpenFOAM.org                      |
|    \\/     M anipulation  |                                                 |
\*---------------------------------------------------------------------------*/
FoamFile
{
    version     2.0;
    format      ascii;
    class       volScalarField;
    location    "0.12";
    object      p;
}
// * * * * * * * * * * * * * * * * * * * * * * * * * * * * * * * * * * * * * //

dimensions      [0 2 -2 0 0 0 0];

internalField   nonuniform List<scalar> 
4400
(
79.6366
59.3893
51.8281
48.5161
46.0326
43.6766
41.3514
39.1884
36.8784
34.4454
77.6994
59.4573
51.8653
48.5283
46.0354
43.6767
41.3511
39.1844
36.894
34.3739
76.482
59.7758
52.0004
48.5678
46.0557
43.6855
41.3546
39.1787
36.9287
34.315
75.7457
60.1633
52.1806
48.6259
46.0981
43.7119
41.3695
39.1749
36.9725
34.2912
75.1514
60.5197
52.362
48.6851
46.1564
43.7574
41.3985
39.178
37.0227
34.3089
74.6381
60.8174
52.522
48.7266
46.2107
43.8096
41.4371
39.1844
37.0768
34.3861
74.2136
61.0559
52.6563
48.7491
46.252
43.8572
41.4728
39.1928
37.1061
34.5748
73.8852
61.237
52.7636
48.7617
46.2768
43.8968
41.497
39.2083
37.0844
34.8141
73.6628
61.3613
52.8355
48.7676
46.2907
43.9248
41.5162
39.2186
37.0838
35.1294
73.5499
61.426
52.871
48.7707
46.2952
43.9417
41.5288
39.2285
37.1018
35.3506
73.5462
61.4311
52.8701
48.7741
46.2909
43.9493
41.5346
39.2425
37.111
35.579
73.6523
61.3736
52.8343
48.7751
46.2807
43.9427
41.5356
39.2544
37.1346
35.7568
73.867
61.2569
52.7625
48.7734
46.2616
43.9258
41.5292
39.2655
37.1658
35.901
74.1887
61.0823
52.6564
48.7645
46.2323
43.8974
41.5155
39.2736
37.2064
35.9998
74.6098
60.8498
52.523
48.7417
46.1903
43.8577
41.497
39.2775
37.2521
36.0497
75.1212
60.5569
52.362
48.7008
46.1367
43.8107
41.4762
39.2782
37.2926
36.0896
75.7149
60.203
52.1781
48.6433
46.079
43.7693
41.46
39.2831
37.3144
36.1071
76.4501
59.8163
51.9965
48.5864
46.0375
43.7449
41.4539
39.2901
37.3274
36.1452
77.6662
59.4978
51.8607
48.5475
46.0179
43.737
41.4541
39.2949
37.3369
36.1624
79.6022
59.4298
51.8231
48.5357
46.0152
43.7376
41.4548
39.2967
37.3419
36.2541
36.7986
37.1083
36.3488
33.919
29.5798
24.2537
18.1853
12.526
8.54558
6.6897
6.74953
7.37146
11.5026
20.5357
31.9574
45.8937
57.4689
65.0409
72.1212
73.0473
66.6897
58.1346
46.6366
35.6168
28.213
21.0923
14.1142
10.5719
9.5045
9.18029
11.2717
16.1151
21.6561
25.5479
26.474
24.8353
21.3758
16.9343
10.4621
3.27709
0.00130276
0.077645
3.71135
9.8497
17.1152
25.0501
33.3218
40.4583
46.5213
51.543
55.553
57.4116
57.9277
57.1982
54.7392
50.3916
43.4623
37.4043
29.6722
24.3876
23.5714
24.6971
28.1276
35.3174
42.1026
47.294
51.5626
53.4419
53.6853
54.1842
56.5735
58.0933
58.6475
54.2643
51.2037
46.1196
42.4027
38.8263
37.2444
37.5954
40.0069
44.1454
48.5523
52.5556
55.6014
57.893
59.1985
59.8016
60.0195
59.2733
57.5988
53.7266
50.7952
44.3552
42.0762
35.3122
37.4858
37.651
40.8489
37.3674
36.5372
37.0092
36.2761
33.6956
29.2191
24.3119
19
13.9331
10.0687
8.00386
8.20583
9.15302
13.1238
22.2928
33.1292
46.2201
57.1477
64.0588
70.4172
71.6654
66.0024
58.4892
47.8519
37.3823
30.3901
23.9684
17.287
14.0333
13.327
13.5685
16.0223
20.7133
25.3291
28.1282
28.3943
26.3056
22.4631
17.6151
10.2281
1.80882
-1.90128
-2.35071
0.613979
6.39011
13.7908
22.1356
30.9784
38.5828
45.181
50.6596
55.1978
57.2957
57.9643
57.7659
55.4442
51.8496
46.0659
40.4096
33.5917
28.5854
27.9306
28.9497
31.6816
38.002
43.9713
48.2012
51.2137
52.9788
53.2506
53.6835
56.0085
57.732
57.0311
52.0837
49.0873
43.4346
40.0502
35.7428
34.2488
34.3856
37.138
41.9748
47.0161
51.6323
55.1199
57.782
59.2496
59.8449
60.2514
59.0466
57.6606
53.316
50.9186
43.2943
41.254
35.3733
36.2744
36.6074
37.235
33.7634
36.3037
36.8433
36.0971
33.3902
28.8428
24.2948
19.5822
15.2475
11.8234
9.46837
9.90374
11.6264
15.3819
24.2838
34.4476
46.3393
56.4393
62.6516
68.2833
69.772
64.9657
58.6815
49.1939
39.2308
32.732
27.0521
20.824
17.8607
17.5988
18.4693
21.2519
25.6509
29.3515
30.9709
30.6954
28.3461
24.2706
19.1606
10.9346
1.40655
-2.78941
-4.01904
-1.85406
3.54966
10.9197
19.5631
28.8496
36.8041
43.9545
50.0045
54.9828
57.3066
58.1829
58.5717
56.4638
53.6043
49.0986
43.6828
37.5389
32.9926
32.3785
33.3304
35.6056
41.0296
46.0183
49.4273
51.1134
52.8352
53.2018
53.5913
55.5688
58.1562
55.9153
50.2217
46.9951
40.9276
38.065
32.8381
31.693
31.1555
34.2437
39.7303
45.4598
50.7775
54.7437
57.6609
59.5434
59.8163
60.4535
58.7323
57.9057
53.1904
51.1649
43.013
40.0581
35.8573
35.0776
35.2856
33.5973
31.4579
36.0779
36.5007
35.768
33.129
28.6576
24.5225
20.2308
16.6288
13.914
11.3446
11.8067
14.4033
18.0387
26.2129
35.6394
46.3006
55.4661
60.9265
65.9726
67.4967
63.6396
58.6054
50.3411
41.1111
35.3842
30.368
24.7148
22.0804
22.2002
23.6999
26.8169
30.7853
33.4977
33.9629
33.1539
30.7954
26.5461
21.1264
11.971
1.4892
-3.47239
-5.6054
-3.84177
1.39083
8.65615
17.4922
26.9888
35.1788
42.8664
49.5941
54.7999
57.4918
58.7155
59.5747
57.9019
55.782
52.2338
47.0927
41.517
37.5091
36.8189
37.7364
39.702
44.1824
48.1412
50.7811
51.3647
52.9422
53.247
53.9132
55.4852
59.0694
55.4852
48.9364
45.005
38.8092
36.3227
30.1302
29.7512
27.8447
31.7347
37.458
43.9593
49.9619
54.5013
57.5262
59.9822
59.6443
60.7558
58.6308
58.4118
53.4848
51.2826
43.4775
39.0935
36.029
34.0278
33.9397
31.2095
30.6867
35.9134
36.2005
35.3481
33.0108
28.6849
24.9502
21.342
18.077
16.1545
13.7754
14.0516
17.1714
20.7683
28.0399
36.4474
45.9218
54.3475
59.0785
63.5859
65.027
62.1133
58.1394
51.1639
43.0926
38.2607
33.8512
28.8578
26.6499
27.1023
29.1356
32.4845
35.9763
37.5501
37.0071
35.7118
33.3269
29.0342
23.145
12.644
1.20153
-4.71589
-7.71127
-5.56059
-0.253131
6.92492
15.9896
25.463
33.8361
41.9754
49.3576
54.7067
57.9698
59.4662
60.6576
59.7017
58.1132
54.9969
50.5303
45.6251
41.9521
41.2567
42.1371
43.8634
47.4802
50.4852
52.1258
52.1034
53.3404
53.1028
54.6486
56.5224
59.9368
55.4597
48.3727
43.0811
37.1638
34.7421
28.0197
28.4943
24.4155
29.9689
35.0118
42.743
49.0478
54.4956
57.2152
60.4051
59.6731
61.4298
58.9846
58.8023
54.1745
51.2641
44.0182
38.6105
36.1469
33.7207
33.4839
30.2845
30.602
35.82
35.9494
34.8148
32.972
29.0248
25.5135
22.7786
19.7491
18.3167
16.5349
16.5815
19.7843
23.2593
29.6722
37.0908
45.1472
52.9474
57.3245
61.1721
62.6506
60.6037
57.4699
51.8684
45.2214
41.2056
37.503
33.6749
31.5451
32.238
34.627
38.0245
40.9536
41.3568
39.8923
38.2838
35.7907
31.5755
25.1079
13.0695
0.652247
-5.97889
-9.87466
-7.07986
-1.86284
5.57627
14.968
24.263
32.919
41.2966
49.2764
54.8825
58.5595
60.2801
61.9604
61.6789
60.2857
57.471
54.0049
49.7221
46.1968
45.4525
46.3026
47.9686
50.8221
52.8797
53.3741
53.1522
53.9572
52.9074
55.1541
57.5926
60.0671
55.4282
48.4604
41.2299
35.9795
33.4266
26.7661
27.2685
21.1627
29.1375
32.2455
41.9946
47.9452
54.6409
56.8103
61.2702
60.2847
62.2593
59.6402
58.8995
54.7492
51.0312
44.5191
38.8648
36.7609
34.0426
33.7303
30.4893
30.0791
35.8687
35.778
34.2441
32.8519
29.5383
26.155
24.3487
21.6392
20.2928
19.2219
19.151
22.0936
25.321
30.8667
37.4561
44.2206
51.3548
55.6452
58.9084
60.5539
59.3072
56.8795
52.5912
47.3853
44.0586
41.1586
38.2703
36.5084
37.3872
39.9499
43.3017
45.4765
44.7689
42.5296
40.6887
38.1108
34.0639
27.1221
13.5403
0.600592
-6.48544
-10.7642
-8.13216
-3.58709
4.51245
14.1816
23.4718
32.449
40.8914
49.4735
55.3042
59.0762
61.3618
63.6699
63.6048
62.3549
59.9949
57.2253
53.4276
49.9962
49.326
50.262
51.9476
54.1921
55.2144
54.7039
54.3775
54.717
53.2363
55.6158
58.3007
59.6651
55.0088
48.5941
39.4472
35.0059
32.3903
26.2656
26.1057
18.8062
28.9023
29.1145
41.9231
46.5864
54.9517
56.9611
62.549
61.3592
62.896
60.3359
58.738
54.8472
50.8843
45.5296
39.8447
37.7376
34.855
34.0528
30.3865
29.259
36.169
35.769
33.6078
32.6174
30.0399
26.8766
25.7957
23.5613
22.1452
21.6214
21.5622
24.0373
26.8733
31.6761
37.4754
43.1482
49.7036
53.9514
56.6847
58.6824
58.2272
56.4424
53.2716
49.3971
46.6784
44.5781
42.4463
41.2563
42.4275
45.0005
48.136
49.4626
47.6542
44.7946
42.7427
40.0719
36.1018
29.0747
14.114
1.53014
-6.21239
-10.5957
-8.78336
-5.05966
3.9092
13.5557
23.074
32.3678
41.0267
49.9429
55.8095
59.92
62.9754
65.5188
65.4431
64.4168
62.3712
59.9237
56.6336
53.4408
52.9165
53.9202
55.6204
57.396
57.3591
56.0864
55.6009
55.5851
54.1461
56.2213
58.3894
59.2172
54.4702
48.0969
37.4355
34.0483
31.5428
26.7651
25.2148
18.1276
28.6281
26.1932
42.3683
45.0296
55.8119
57.9165
63.6016
62.551
63.1613
60.7439
58.5648
55.0387
51.2114
46.9556
41.2411
38.8882
35.5434
34.192
30.4204
28.6091
36.2735
35.596
33.36
32.5136
30.5299
27.7126
27.0869
25.4005
23.9398
23.7043
23.7143
25.6919
28.07
32.1692
37.2359
41.9662
47.929
52.0925
54.5469
56.9478
57.2452
56.0361
53.8343
51.1801
49.1353
47.7604
46.2451
45.7619
47.183
49.6679
52.411
52.8269
49.9983
46.5788
44.3186
41.4835
37.3826
30.6579
14.9374
3.13559
-5.46935
-10.0546
-9.23457
-5.746
3.78915
13.0241
23.0602
32.5863
41.5409
50.3968
56.5384
61.4312
64.8504
67.2391
67.2625
66.3583
64.516
62.3762
59.5823
56.6978
56.3038
57.328
59.0008
60.2534
59.2744
57.4384
56.7104
56.5572
55.2352
56.7975
58.1349
59.2294
54.6488
47.466
35.4766
33.5749
30.7604
26.5034
24.6625
18.6712
28.1088
24.3807
43.0847
44.019
57.3432
59.3872
64.0609
63.3521
63.1648
61.032
58.7844
55.8136
51.9158
48.4593
42.8532
40.08
36.3206
34.3416
30.6463
28.327
36.2507
35.3717
33.3381
32.634
31.0037
28.6364
28.2875
27.0861
25.6358
25.4895
25.5879
27.1134
29.1163
32.4807
36.7484
40.6519
45.9657
50.0509
52.4839
55.2458
56.2831
55.7001
54.4215
52.8232
51.5713
50.7087
49.7555
49.9507
51.4157
53.757
56.0738
55.5337
51.8295
47.9011
45.3592
42.2369
37.859
31.5342
16.3918
4.66386
-4.71935
-9.37929
-9.31333
-5.36878
4.00992
12.776
23.5137
32.8973
42.2226
51.0097
57.7518
63.2345
66.6671
68.8516
69.0792
68.2386
66.6697
64.7938
62.3682
59.9429
59.5195
60.4238
61.9488
62.7226
61.031
58.7207
57.659
57.4294
56.1759
57.065
57.8938
59.1466
55.2707
48.0712
34.7852
34.4151
30.1777
26.3121
24.3459
19.4732
27.762
24.535
44.1225
44.363
59.0878
60.8985
64.1939
63.7067
63.294
61.5898
59.4908
57.0556
52.9423
49.9431
44.4937
41.2446
37.1974
34.6123
31.0852
28.3936
36.1842
35.1576
33.3846
32.8187
31.5094
29.6327
29.3641
28.5655
27.2044
27.0406
27.298
28.4317
30.0687
32.6449
36.0574
39.2662
43.8352
47.7102
50.4613
53.5959
55.4368
55.5493
55.0609
54.3568
53.86
53.3216
52.8793
53.5663
54.9848
57.2168
59.0508
57.6217
53.1769
48.8271
45.8864
42.2689
37.6676
31.739
18.724
6.30379
-3.487
-8.16983
-8.69755
-4.08669
4.52173
13.2333
24.3402
33.3299
43.337
52.2781
59.3531
64.9724
68.3987
70.4519
70.8982
70.1804
68.8459
67.1005
64.9215
62.8838
62.4391
63.1468
64.4296
64.7681
62.5711
59.8696
58.4648
58.1015
56.9099
56.9834
57.5058
58.361
55.2804
49.6666
35.4508
36.3403
29.7888
26.7424
24.2002
20.3144
27.7406
26.3115
46.173
45.8691
60.0064
61.6579
64.3962
64.1039
63.7411
62.5533
60.5289
58.5546
54.2096
51.3192
46.0485
42.369
38.1773
35.0422
31.6133
28.7539
36.0284
34.9361
33.5043
33.0943
32.0922
30.6659
30.3269
29.8544
28.6813
28.5151
28.9168
29.6233
30.9049
32.7124
35.2151
37.8585
41.6856
45.5051
48.5645
52.1133
54.7148
55.5026
55.6945
55.7723
55.8381
55.5378
55.533
56.4667
57.855
60.0205
61.302
59.0997
54.1076
49.4368
45.9674
41.7138
36.8504
31.7193
21.3787
9.00248
-0.47106
-5.58418
-6.91653
-2.24599
5.42138
14.5346
25.2873
34.0223
45.0683
53.9405
61.0248
66.6742
70.1853
72.0933
72.6387
72.0842
70.8934
69.1725
67.1875
65.4419
64.9381
65.4063
66.3767
66.3792
63.9239
60.9288
59.2115
58.5801
57.3884
56.7486
56.9818
57.354
54.8704
50.9094
36.0411
38.1303
29.5077
28.3465
24.6141
21.7276
28.8848
29.058
47.9844
47.3409
59.252
61.3887
64.845
65.0852
64.6892
63.7698
61.6266
60.0824
55.6447
52.5719
47.449
43.4459
39.2192
35.6285
32.203
29.2704
35.7826
34.6934
33.7033
33.4469
32.6932
31.7177
31.2591
30.984
30.0912
29.8947
30.3507
30.6985
31.641
32.7485
34.3256
36.5048
39.7046
43.4099
46.9015
50.85
54.0085
55.5049
56.4108
57.1322
57.4723
57.3647
57.7858
58.8088
60.1118
62.0525
62.8021
59.9965
54.7081
49.832
45.6888
40.771
35.7875
31.9174
23.8324
12.3038
3.6239
-2.12335
-4.24802
-0.0577742
6.7846
16.527
26.1998
35.1463
47.1573
55.4247
62.8022
68.4855
72.081
73.7088
74.2072
73.8027
72.6733
70.9485
69.1201
67.5421
66.9663
67.1836
67.7795
67.5376
65.0548
61.8956
59.9289
59.0007
57.72
56.7196
56.5517
56.7111
54.8196
51.4947
37.1299
39.4363
29.4756
30.7433
26.0175
24.428
31.7323
32.6355
48.2929
47.2274
57.969
61.4437
65.5231
66.5219
65.9071
65.1819
62.6977
61.3986
57.0928
53.7385
48.7232
44.4373
40.2125
36.3396
32.8387
29.8802
35.4725
34.4629
33.937
33.8349
33.3695
32.7792
32.1937
31.9358
31.3303
31.1436
31.5724
31.6526
32.2293
32.7284
33.5688
35.4029
38.0756
41.6682
45.6076
49.8012
53.3531
55.6221
57.2323
58.3901
58.8839
59.0926
59.7304
60.6149
61.701
63.2597
63.5663
60.4189
55.0845
50.1271
45.3583
39.8756
35.0232
32.4505
26.2107
15.8205
7.41717
0.90576
-1.61736
2.2062
8.49452
18.7216
27.2492
36.7621
49.4026
56.7593
64.8277
70.32
73.9398
75.2105
75.5769
75.2618
74.1274
72.4021
70.6926
69.1911
68.5272
68.4814
68.6819
68.2549
65.9393
62.7834
60.6305
59.4136
58.0391
56.8765
56.4126
56.5494
55.3281
52.9401
39.3196
40.8064
30.2428
33.427
28.1731
28.5672
34.1689
36.0644
47.6904
45.8319
56.7407
63.4224
66.43
68.2315
67.063
66.6582
63.9441
62.4539
58.4232
54.8159
49.857
45.2852
41.097
37.1656
33.5723
30.514
35.1584
34.3036
34.1862
34.2729
34.0003
33.7062
33.0487
32.7193
32.3575
32.2105
32.5325
32.4251
32.6658
32.7243
33.0651
34.6062
36.9067
40.4399
44.6974
49.0239
52.885
55.8742
58.1009
59.5219
60.1587
60.6097
61.2239
61.7848
62.5531
63.7254
63.6841
60.4803
55.3488
50.4165
45.1506
39.3126
34.7303
33.1252
28.6177
20.0118
11.4778
4.21158
1.64181
4.87804
10.5875
20.9499
28.5681
38.7548
51.4186
58.1989
66.9239
72.0744
75.6229
76.6106
76.7989
76.4584
75.2754
73.5665
71.9332
70.411
69.6671
69.3449
69.1703
68.5991
66.5403
63.5401
61.27
59.844
58.3823
57.1119
56.5302
56.6996
56.1051
54.1594
43.0039
42.8086
31.9708
35.3997
30.489
32.3236
35.7887
38.0512
46.5058
47.404
56.631
67.7627
67.2722
70.3428
68.1783
67.9731
65.2412
63.3207
59.5371
55.7122
50.8126
46.0867
41.9169
37.9465
34.1968
31.0467
34.8874
34.1625
34.3943
34.6555
34.5162
34.3963
33.7384
33.3388
33.1459
33.0297
33.2177
33.0213
32.9845
32.7562
32.8513
34.1444
36.2034
39.7208
44.1399
48.5517
52.6898
56.2425
58.8738
60.437
61.2063
61.7287
62.1322
62.3351
62.7951
63.6378
63.3277
60.2943
55.5576
50.7766
45.1641
39.1681
35.0433
33.7168
30.8264
24.4219
16.0857
8.64028
5.96788
8.12163
13.0036
23.0208
30.0431
40.9815
52.9494
60.0034
68.8217
73.6858
77.1308
77.9293
77.8612
77.3991
76.1623
74.4617
72.7168
71.2577
70.4203
69.8507
69.386
68.6902
66.8539
64.0928
61.8619
60.2541
58.7245
57.3936
56.7815
56.9742
56.7447
54.9976
46.6196
44.9064
34.696
37.0554
32.6849
35.2099
37.5431
39.3312
45.014
54.1612
58.1776
72.86
67.6387
72.5175
69.3683
69.0534
66.2921
64.0066
60.3662
56.3724
51.5699
46.7941
42.5416
38.4798
34.6408
31.5237
34.8859
34.2152
34.5117
34.8911
34.863
34.8147
34.2143
33.794
33.6746
33.5862
33.675
33.4332
33.2263
32.8769
32.8726
33.9768
35.9662
39.4551
43.8989
48.376
52.7106
56.5722
59.4081
61.062
61.8815
62.3238
62.5008
62.4465
62.6971
63.1915
62.7359
59.9977
55.7374
51.2135
45.4121
39.3873
35.7392
34.4062
32.5651
28.0248
20.6239
13.4362
10.4166
11.6005
15.3107
24.8608
31.5168
43.3932
54.202
61.8537
70.4092
75.1507
78.4637
79.0634
78.7142
78.104
76.8335
75.1197
73.3169
71.7816
70.8477
70.1231
69.4603
68.625
66.9184
64.3962
62.2083
60.6062
59.0454
57.6824
57.0755
57.2223
57.0366
55.4317
48.9093
46.6816
37.9985
38.7519
34.7142
37.3734
38.4792
42.3535
45.0111
62.6706
59.2879
76.772
67.7586
74.1221
70.4081
69.9121
67.0076
64.5332
60.9175
56.7976
52.0725
47.2941
42.9644
38.8488
34.9533
31.9684
34.9207
34.3273
34.5922
34.9968
35.0465
35.019
34.4994
34.0872
33.9757
33.9051
33.9282
33.6887
33.4174
33.0473
33.0452
34.0462
36.0344
39.4875
43.8717
48.3857
52.8235
56.79
59.6859
61.357
62.1563
62.4921
62.5338
62.4
62.576
62.8692
62.1714
59.699
55.909
51.6406
45.9055
39.8276
36.3295
34.9854
33.5715
30.3252
24.3513
17.7936
14.1885
13.9737
17.494
26.3738
32.4528
45.5283
55.3625
63.4761
71.5215
76.3987
79.5476
79.8996
79.3461
78.5834
77.2699
75.5244
73.6657
72.0741
71.0685
70.2702
69.4805
68.4888
66.7762
64.4686
62.4044
60.8785
59.3207
57.9232
57.2735
57.3384
57.0383
55.2937
50.5262
47.863
40.4544
40.2504
36.1508
39.0791
38.586
47.8643
48.0219
68.6351
59.3046
79.3038
67.6005
75.1069
71.1729
70.474
67.5116
64.8468
61.2595
57.0564
52.4434
47.7256
43.4489
39.1644
35.0992
32.2139
34.983
34.4647
34.6743
35.042
35.1164
35.0651
34.6109
34.2192
34.0969
34.0427
34.0259
33.8045
33.5314
33.1927
33.2547
34.2304
36.222
39.6665
43.9704
48.4816
52.9304
56.8651
59.7362
61.3935
62.1864
62.4747
62.4988
62.3864
62.5514
62.683
61.8501
59.4727
55.9683
51.9088
46.4495
40.5201
36.7478
34.9083
33.7396
31.2581
26.5012
21.0863
17.2351
16.1163
19.7754
27.3502
33.265
47.1852
56.2039
64.5418
72.1479
77.2479
80.3031
80.3823
79.7282
78.8421
77.4733
75.6177
73.778
72.214
71.1639
70.3226
69.4578
68.3761
66.6375
64.4664
62.5258
61.0349
59.4723
58.0608
57.3082
57.3149
56.8501
55.1433
51.2768
48.5625
41.7728
41.1686
36.9489
40.2787
39.6755
52.4747
50.912
71.9489
58.5661
80.9721
67.6319
75.5776
71.7977
70.6452
67.7974
64.9444
61.4418
57.2163
52.6397
47.976
43.6271
39.3082
35.2411
32.3262
35.1085
34.5814
34.7239
35.0241
35.1059
35.0338
34.6253
34.2569
34.1157
34.0571
34.0217
33.8217
33.5608
33.2562
33.3802
34.3725
36.4557
39.8222
44.0636
48.5537
52.9744
56.8648
59.694
61.3411
62.1504
62.4655
62.506
62.4288
62.6043
62.654
61.7138
59.2642
55.8114
51.9579
46.7809
41.0056
37.043
34.8777
33.4381
30.7267
27.1797
22.6939
18.9527
17.5658
21.0295
27.9844
34.0783
48.0805
56.7895
65.0088
72.3601
77.6518
80.5726
80.5036
79.8234
78.8851
77.487
75.6848
73.8388
72.2775
71.1699
70.2816
69.3841
68.2621
66.5643
64.4809
62.6038
61.0978
59.4969
58.1023
57.317
57.3019
56.6242
55.0057
51.5216
48.7173
42.2736
41.5024
37.3263
40.7087
40.3254
54.81
51.7881
73.4442
58.2165
81.7916
67.6648
75.7082
71.8868
70.5555
67.7846
64.8924
61.4109
57.1967
52.6071
47.9624
43.5825
39.2847
35.2811
32.2396
31.8723
31.6545
31.1464
30.4013
29.9737
29.3866
29.1688
28.4678
26.941
26.2163
27.1037
29.6069
33.3334
36.7414
39.9558
42.8011
44.5745
45.606
46.7973
46.6899
44.4842
42.4457
42.1466
41.9607
39.7939
36.1135
31.214
24.9342
19.6128
16.3766
16.014
20.4901
29.4431
40.1734
54.112
65.4684
73.8129
78.3697
79.1061
77.7577
75.2341
72.593
70.0865
67.8705
66.1371
64.9808
64.2213
63.6569
63.4406
63.7969
64.6772
66.3324
68.3209
69.2715
68.3067
65.8606
61.836
56.0509
49.2946
43.6775
41.4664
42.4095
48.3279
55.7182
63.7015
70.0245
73.606
75.3423
75.7347
75.3535
74.4874
73.2663
71.7696
70.133
68.4114
66.6267
64.8388
63.2108
61.9394
61.0988
60.6004
60.3038
60.1096
59.9587
59.8067
59.6154
59.3456
58.9641
58.4178
57.6735
56.7029
55.5192
54.1842
52.7884
51.4503
50.2303
48.8792
48.3074
49.0663
49.6128
31.9145
31.5884
31.0893
30.3665
29.9408
29.3905
29.2737
28.4334
26.6776
25.7904
26.6273
29.2812
33.2943
36.9389
40.1458
42.9015
44.6037
45.508
46.5827
46.5522
44.4125
42.3382
42.1235
42.176
40.6035
36.3967
30.511
23.766
18.3725
15.3129
14.9894
19.2312
28.4825
39.4525
53.3897
65.1324
73.6584
78.4002
79.0447
77.652
75.0474
72.4012
69.9388
67.7765
65.9984
64.8791
64.1662
63.5992
63.3883
63.8315
64.718
66.3059
68.314
69.3872
68.6534
66.0473
61.6841
55.5518
48.6146
42.8096
40.7073
41.6071
47.7128
55.2397
63.4591
69.9883
73.6735
75.3937
75.7588
75.3618
74.4956
73.2735
71.7856
70.1481
68.4225
66.623
64.8114
63.1584
61.8783
61.0471
60.5676
60.2887
60.1072
59.9643
59.8186
59.6311
59.3706
58.9924
58.4558
57.7145
56.7362
55.5401
54.1943
52.785
51.4391
50.1491
48.6483
48.0365
48.754
49.3218
31.9587
31.5686
30.9844
30.3139
29.8573
29.3984
29.4382
28.3701
26.191
24.9582
25.7784
28.897
33.5058
37.3748
40.5883
43.3004
44.8979
45.5899
46.2435
45.9445
43.7558
41.9913
42.1538
42.2008
40.0086
35.0602
28.4804
21.3914
16.0019
13.4765
13.5011
16.8822
26.6323
38.1528
52.0519
64.5694
73.2681
78.2385
78.9303
77.3253
74.5898
71.8988
69.4808
67.4133
65.7277
64.6814
64.0764
63.5296
63.2983
63.8394
64.8509
66.4405
68.4453
69.5869
68.8593
66.0069
61.0815
54.5193
47.2804
41.1053
39.1782
40.0946
46.1994
54.1456
62.7621
69.7804
73.6374
75.3783
75.7288
75.3298
74.4685
73.2468
71.7488
70.1068
68.378
66.5725
64.7375
63.0507
61.7555
60.9422
60.4957
60.2454
60.079
59.9508
59.8185
59.6494
59.4097
59.0585
58.5346
57.7985
56.8027
55.5748
54.2022
52.7715
51.3911
50.0298
48.3121
47.6286
48.2364
48.8857
32.0034
31.5795
30.9289
30.3039
29.8263
29.3991
29.4821
28.1948
25.6421
24.121
24.9132
28.4811
33.7133
37.9184
41.4749
44.047
45.5676
46.1146
46.1174
45.0894
42.8312
41.4373
41.7668
41.4035
38.1232
32.0886
25.2383
18.4205
13.1625
11.0418
11.9203
14.6982
24.2501
36.3774
50.3395
63.6365
72.6314
77.8349
78.5752
76.7584
73.8484
71.0855
68.7521
66.8252
65.1768
64.289
63.9115
63.3822
63.053
63.6987
64.9274
66.6251
68.5803
69.6933
68.8925
65.7047
60.0171
52.7764
45.2536
38.5904
36.8223
37.6314
43.7168
52.3721
61.5071
69.3423
73.4752
75.2772
75.6208
75.2296
74.4044
73.2058
71.6817
70.0291
68.3018
66.477
64.5865
62.849
61.5505
60.7728
60.372
60.1528
60.011
59.9073
59.8058
59.6654
59.4566
59.1301
58.6372
57.9122
56.9017
55.625
54.2148
52.7562
51.3138
49.8554
47.9368
47.1302
47.6733
48.3279
32.0771
31.6005
30.8912
30.2968
29.8132
29.3532
29.3677
27.8343
25.0241
23.2133
23.9964
27.8773
33.8499
38.3598
42.19
44.8508
46.4425
46.8797
46.1343
44.3371
41.9406
40.8807
41.1945
39.7655
35.089
28.2853
21.6378
15.494
10.5253
8.29082
10.0679
12.5336
21.4759
34.2065
48.3275
62.3011
71.5524
77.0862
77.8178
75.8613
72.7926
69.933
67.6858
65.955
64.427
63.707
63.5811
63.1381
62.7639
63.4595
64.9033
66.5492
68.547
69.6396
68.6545
64.9989
58.4039
50.2331
42.553
35.3577
33.7661
34.4868
40.3722
49.8959
59.5886
68.6609
73.1696
75.0584
75.4041
75.0447
74.262
73.0726
71.5927
69.9517
68.2125
66.3481
64.3767
62.5659
61.2628
60.5365
60.1936
60.0128
59.8961
59.8228
59.7555
59.6564
59.4861
59.2053
58.7492
58.0394
57.0064
55.6922
54.2268
52.7283
51.2082
49.6493
47.5802
46.6196
47.1276
47.7768
32.1843
31.6629
30.8897
30.3214
29.7937
29.2293
28.974
27.0615
24.12
22.1815
22.9663
27.2833
33.4204
38.4224
42.693
45.6376
47.3536
47.5785
46.2013
43.8697
41.4238
40.573
40.4276
37.481
31.6277
24.4688
18.1903
12.6679
8.17846
5.5488
7.88953
10.2613
18.6669
31.988
46.184
60.5072
69.975
75.8472
76.5189
74.5316
71.3644
68.3927
66.2577
64.7814
63.3816
62.8482
63.0682
62.8245
62.5015
63.2503
64.8521
66.6076
68.5031
69.4335
67.9027
63.4153
56.2575
47.1721
39.5215
31.7924
30.2366
30.9465
36.4098
46.7289
57.1597
67.383
72.6819
74.725
75.046
74.6862
73.9937
72.8758
71.3364
69.7089
68.0246
66.1783
64.1039
62.1833
60.8816
60.2359
59.9573
59.8075
59.7227
59.698
59.6855
59.634
59.5067
59.2646
58.8465
58.1561
57.1178
55.7561
54.236
52.6783
51.0663
49.4424
47.3375
46.2765
46.7351
47.2941
32.3699
31.7732
30.9042
30.3454
29.7153
28.8787
27.9862
25.7065
22.6113
20.6647
21.7004
26.4096
32.5043
38.0041
42.9448
46.3603
48.1622
48.1693
46.4077
43.895
41.4414
40.4896
39.4107
34.9242
28.3867
21.1691
15.0935
9.91623
6.02513
3.08463
5.85
8.39775
16.2628
30.0995
44.2346
58.3989
67.9307
73.9569
74.5625
72.5926
69.4752
66.4155
64.4142
63.2451
62.0712
61.7776
62.302
62.3567
62.2386
63.0925
64.8236
66.6099
68.4039
69.0547
66.6992
61.2885
53.9639
43.9704
36.3015
28.0671
26.3665
27.3056
32.5313
43.1948
54.3705
65.5222
71.8641
74.2115
74.5646
74.1962
73.5486
72.4862
71.0468
69.3892
67.7244
65.841
63.7019
61.7199
60.4256
59.8573
59.6585
59.5618
59.5328
59.5637
59.6032
59.5968
59.5104
59.3055
58.9121
58.2395
57.1978
55.8139
54.2333
52.6046
50.8901
49.2151
47.2046
46.1086
46.4721
46.914
32.6617
32.0115
31.016
30.3878
29.5543
28.1615
26.2272
23.2642
20.2102
18.5424
20.0739
24.9485
30.9214
37.0489
42.8687
46.7862
48.7591
48.7121
46.9075
44.5842
42.2031
40.6985
38.2185
32.637
25.7135
18.5663
12.416
7.40273
4.08311
1.00562
3.94005
6.7814
14.2283
28.4111
42.3691
56.069
65.5263
71.3909
71.9137
69.9438
67.0459
63.9896
62.1278
61.2868
60.4684
60.485
61.2763
61.7269
61.9381
62.952
64.7686
66.5344
68.1903
68.5307
65.3884
59.4608
51.7865
40.6164
32.8957
24.4662
22.5417
24.219
29.0762
39.8239
51.6603
63.3097
70.6761
73.4498
73.8745
73.5294
72.9595
71.9436
70.4784
68.8528
67.2476
65.3902
63.223
61.1854
59.8926
59.4122
59.3137
59.288
59.3088
59.4005
59.5031
59.5486
59.4969
59.324
58.9541
58.2972
57.2613
55.8511
54.2321
52.501
50.7053
48.9464
47.1059
46.0554
46.2542
46.6347
33.0729
32.4041
31.3728
30.5605
29.3278
27.0302
23.6447
19.88
17.0205
15.7612
17.7363
22.683
28.6285
35.3894
42.0963
46.5566
49.0688
49.2917
47.8571
46.0559
43.8614
41.5232
37.1563
30.7801
23.4173
16.2657
9.9991
5.25989
2.39439
-0.580266
2.2894
5.18017
12.1933
26.5707
40.3742
53.4793
62.7431
68.1872
68.6028
66.5964
63.9784
61.0522
59.3958
58.9196
58.5695
58.9593
60.0373
60.8911
61.5064
62.7824
64.6184
66.29
67.7791
67.7318
64.0468
57.8384
49.1673
37.2137
29.6519
21.3998
20.2209
21.2806
25.5663
36.6514
48.851
61.0398
69.2441
72.5244
73.043
72.677
72.1586
71.2074
69.7605
68.1573
66.5873
64.7563
62.5906
60.5606
59.3143
58.9137
58.9005
58.9445
59.0453
59.2242
59.3989
59.4928
59.4909
59.3496
59.0013
58.3456
57.3009
55.8833
54.2004
52.3887
50.4768
48.6511
46.9447
45.9022
46.0511
46.4432
33.5737
32.9365
31.915
30.8828
29.0967
25.5935
20.4277
15.8897
13.2692
12.286
14.5638
19.5804
25.4926
32.7428
40.2714
45.7037
49.2435
50.1002
49.3959
48.194
46.2959
42.9929
36.7276
29.3434
21.5251
14.315
7.95065
3.50383
0.883063
-1.83049
0.798216
3.87286
10.6905
24.8433
38.2921
50.5999
59.5521
64.4539
64.642
62.5891
60.2875
57.6207
56.1835
56.1078
56.3589
57.2151
58.5915
59.8177
60.9223
62.5353
64.3308
65.8962
67.0882
66.4988
62.5108
55.6459
46.1531
34.4499
26.7193
18.474
15.92
18.421
22.7193
33.546
46.1626
58.816
67.6989
71.3999
72.1108
71.6975
71.2068
70.3089
68.8484
67.3113
65.7723
63.9032
61.7634
59.8495
58.6825
58.3266
58.3905
58.54
58.7503
59.0358
59.298
59.4524
59.477
59.3635
59.0309
58.3935
57.3439
55.9048
54.1693
52.2393
50.2318
48.3421
46.7342
45.7798
45.895
46.3266
34.0897
33.5298
32.5737
31.3211
28.8975
24.1271
17.0925
11.8568
9.04939
8.52683
10.9567
15.9204
21.6402
29.162
37.6108
44.6119
49.454
51.3889
51.6566
50.9451
49.0724
44.5562
37.0086
28.4991
20.2973
12.9328
6.4044
2.16439
-0.408662
-2.84619
-0.523643
2.92223
9.73634
23.3421
36.3666
47.6202
55.8988
60.2425
60.1368
57.9756
55.9373
53.6744
52.5057
52.907
53.8507
55.2356
56.9363
58.5346
60.1567
62.1352
63.8825
65.385
66.2379
65.0554
60.7324
53.2081
43.7002
32.3129
23.9705
15.8376
12.9502
16.0554
20.5339
30.9062
43.7734
56.6425
66.1029
70.0308
71.0011
70.5583
70.036
69.2728
67.8138
66.2731
64.7928
62.911
60.7432
58.9172
57.8458
57.5799
57.7512
58.0242
58.3841
58.8329
59.1979
59.3899
59.4573
59.3897
59.0995
58.4632
57.3972
55.9199
54.0974
52.0672
49.9381
48.0268
46.5435
45.674
45.7744
46.2768
34.5596
34.1156
33.2374
31.8069
28.7501
22.8878
14.2733
8.45671
6.19896
5.726
8.00964
12.4235
17.7035
25.2337
34.7122
43.3033
49.5833
53.2566
54.6039
54.3397
52.1442
45.9579
37.4523
28.0785
19.4017
11.7363
5.13297
1.16429
-1.30848
-3.44641
-1.62499
2.19062
8.98912
21.7827
34.4528
44.6405
51.8428
55.4902
55.0605
52.799
50.9514
49.1815
48.4178
49.3388
50.9986
52.996
55.1138
57.0912
59.1989
61.5618
63.2877
64.7233
65.351
63.6637
58.8306
51.2599
42.0038
30.3837
21.6039
13.7751
10.4389
13.8947
18.6383
28.64
41.5395
54.5408
64.383
68.4283
69.6037
69.211
68.6079
67.9649
66.6447
65.1199
63.6405
61.7857
59.5636
57.7219
56.7008
56.5205
56.8645
57.3441
57.9573
58.6043
59.0704
59.3436
59.4675
59.4427
59.1661
58.5278
57.4464
55.9223
53.9957
51.8327
49.5986
47.6328
46.3084
45.5582
45.6568
46.2557
34.9507
34.6064
33.858
32.2924
28.6704
21.9943
12.3301
6.05766
4.18643
3.90526
5.89577
9.69554
14.687
22.0743
32.4404
42.0675
49.7003
55.5626
58.0246
58.2536
55.3935
47.5359
37.8676
28.0202
18.8128
10.7919
4.12929
0.4821
-1.76888
-3.68039
-2.32733
1.79119
8.59125
20.2279
32.4507
41.686
47.4864
50.147
49.3393
47.0402
45.4045
44.1316
43.8566
45.426
47.8631
50.512
53.1386
55.4863
58.0845
60.8
62.5386
63.8995
64.4098
62.2944
57.172
49.7919
40.3977
28.7098
19.6902
12.3006
8.48404
12.3312
17.5987
27.0188
39.7279
52.7126
62.5449
66.6377
67.9139
67.5999
66.9878
66.357
65.2983
63.8876
62.3482
60.4526
58.2227
56.3385
55.2601
55.1159
55.6494
56.4851
57.435
58.3268
58.9665
59.3044
59.4679
59.4821
59.2357
58.6231
57.515
55.9253
53.8356
51.5027
49.1451
47.0894
45.8936
45.2599
45.492
46.1794
35.2877
35.0208
34.3795
32.7329
28.67
21.4644
11.2951
4.72001
2.94864
2.74113
4.32862
7.54508
12.5538
20.1021
31.1143
41.5032
50.1614
58.0612
61.8064
62.3093
58.3147
49.2764
38.5704
28.4444
18.8706
10.5343
3.61259
0.128144
-1.89015
-3.66422
-2.5335
1.93808
8.85537
18.9606
30.2274
38.566
42.9381
44.3899
43.0329
40.6344
39.2161
38.5691
38.9371
41.1916
44.3995
47.7942
51.0142
53.7706
56.8613
59.8391
61.6318
62.9576
63.3092
60.9642
56.0618
48.5018
38.9671
27.6333
18.1476
11.4242
7.67611
11.4602
16.9479
25.9214
38.1804
51.0189
60.6896
64.6827
65.9562
65.6885
65.1864
64.6328
63.8566
62.5902
61.0771
58.984
56.6766
54.6988
53.5885
53.4597
54.2139
55.455
56.8059
58.0397
58.8254
59.2466
59.4668
59.5277
59.3628
58.7374
57.5688
55.8714
53.6099
51.0628
48.5206
46.3334
45.2285
44.7411
45.141
45.9076
35.5787
35.3823
34.8275
33.1014
28.7508
21.2738
11.1002
4.37077
2.36535
2.08963
3.30328
5.94547
10.8333
18.6911
30.2345
41.6009
51.0201
60.3469
65.7631
66.0801
60.7683
51.0359
39.641
29.0513
19.3837
10.93
3.64151
0.0542923
-1.78584
-3.45656
-2.38443
2.44777
9.68941
18.27
27.8835
35.0995
38.0976
38.3653
36.333
33.8318
32.5526
32.4688
33.6147
36.7318
40.7013
44.821
48.7173
52.0129
55.4891
58.7144
60.671
61.948
62.0724
59.7999
55.3596
47.4475
38.0486
27.239
17.3036
11.3182
7.76339
11.2065
16.8683
25.5154
37.0947
49.476
58.9403
62.6808
63.8324
63.5008
63.19
62.9428
62.5707
61.4857
59.8736
57.5978
55.0918
52.8979
51.6336
51.5864
52.6212
54.276