/*--------------------------------*- C++ -*----------------------------------*\
| =========                 |                                                 |
| \\      /  F ield         | OpenFOAM: The Open Source CFD Toolbox           |
|  \\    /   O peration     | Version:  2.4.0                                 |
|   \\  /    A nd           | Web:      www.OpenFOAM.org                      |
|    \\/     M anipulation  |                                                 |
\*---------------------------------------------------------------------------*/
FoamFile
{
    version     2.0;
    format      ascii;
    class       volSymmTensorField;
    location    "0.12";
    object      UPrime2Mean;
}
// * * * * * * * * * * * * * * * * * * * * * * * * * * * * * * * * * * * * * //

dimensions      [0 2 -2 0 0 0 0];

internalField   nonuniform List<symmTensor> 
4400
(
(0.0496821 -0.0049363 0 0.000849866 0 0)
(0.543546 -0.00132805 0 7.15342e-05 0 0)
(0.616062 -0.000875646 0 3.29571e-06 0 0)
(0.692376 -0.000564553 0 1.69077e-06 0 0)
(0.74569 -2.77252e-05 0 7.68595e-07 0 0)
(0.77486 4.07869e-05 0 1.1813e-06 0 0)
(0.7937 -4.00146e-05 0 1.31446e-06 0 0)
(0.83764 8.78589e-05 0 4.67553e-06 0 0)
(0.941715 -0.0150164 0 0.000325187 0 0)
(1.50993 0.0852873 0 0.0107456 0 0)
(0.0345892 0.0147278 0 0.00893935 0 0)
(0.221418 -0.0173796 0 0.00154687 0 0)
(0.319031 -0.0103085 0 0.000339362 0 0)
(0.446763 -0.00856104 0 0.000205668 0 0)
(0.579307 -0.00579101 0 0.000133089 0 0)
(0.686085 -0.0036013 0 4.68358e-05 0 0)
(0.728455 -0.00361592 0 7.4606e-05 0 0)
(0.927258 -0.0054697 0 0.000127243 0 0)
(0.786012 -0.0156666 0 0.00103735 0 0)
(2.6513 -0.290402 0 0.0693817 0 0)
(0.114563 0.0366827 0 0.0124026 0 0)
(0.0381359 -0.00989178 0 0.00380762 0 0)
(0.0710327 -0.00885587 0 0.00139433 0 0)
(0.132741 -0.0112475 0 0.00102188 0 0)
(0.233406 -0.0108464 0 0.000752325 0 0)
(0.355475 -0.00802103 0 0.000281412 0 0)
(0.38994 -0.00981571 0 0.000515477 0 0)
(0.638984 -0.00322669 0 0.000469222 0 0)
(0.475907 -0.049225 0 0.00809432 0 0)
(1.80841 -0.285061 0 0.111916 0 0)
(0.143824 0.0363068 0 0.00955227 0 0)
(0.0059713 0.00119528 0 0.00491392 0 0)
(0.0219074 0.00263647 0 0.00242977 0 0)
(0.0202215 -0.000866832 0 0.00232815 0 0)
(0.0284313 -0.00501886 0 0.00209164 0 0)
(0.0847344 -0.00649092 0 0.000693029 0 0)
(0.0799242 -0.00939973 0 0.00158492 0 0)
(0.237649 -0.00184604 0 0.000962549 0 0)
(0.178789 -0.0352461 0 0.0144483 0 0)
(0.553497 -0.113639 0 0.11139 0 0)
(0.137002 0.0278954 0 0.00597419 0 0)
(0.00998673 0.00381503 0 0.00392253 0 0)
(0.0568881 0.00912667 0 0.00218707 0 0)
(0.0808758 0.0117192 0 0.00285797 0 0)
(0.073161 0.00899843 0 0.0031306 0 0)
(0.0529614 0.002551 0 0.00157704 0 0)
(0.0489883 0.00102589 0 0.00189483 0 0)
(0.0489088 -0.00175591 0 0.00230715 0 0)
(0.0716316 -0.000503576 0 0.0118668 0 0)
(0.126977 0.00878879 0 0.157836 0 0)
(0.137483 0.0219721 0 0.00375814 0 0)
(0.0118765 0.00269915 0 0.00275082 0 0)
(0.0638496 0.00747775 0 0.00132928 0 0)
(0.119041 0.0130263 0 0.00226852 0 0)
(0.159198 0.0160558 0 0.00312897 0 0)
(0.153811 0.0102645 0 0.00154832 0 0)
(0.167987 0.013076 0 0.00305699 0 0)
(0.152986 0.00688194 0 0.00220811 0 0)
(0.151656 0.0393686 0 0.0203253 0 0)
(0.200642 0.0932623 0 0.102516 0 0)
(0.138042 0.0169437 0 0.00228123 0 0)
(0.00862226 0.00165465 0 0.0018877 0 0)
(0.0564788 0.00500626 0 0.000776864 0 0)
(0.115355 0.00950833 0 0.00129262 0 0)
(0.166491 0.0133647 0 0.00190583 0 0)
(0.190667 0.010648 0 0.00175729 0 0)
(0.240223 0.0130903 0 0.00179295 0 0)
(0.252516 0.0185304 0 0.00442725 0 0)
(0.305119 0.0464944 0 0.0112388 0 0)
(0.359295 0.151442 0 0.121348 0 0)
(0.133993 0.0115467 0 0.00115843 0 0)
(0.00529727 0.000948838 0 0.0012963 0 0)
(0.0515621 0.00284496 0 0.000553375 0 0)
(0.111404 0.00666321 0 0.00104483 0 0)
(0.15614 0.00835549 0 0.00153904 0 0)
(0.193686 0.00684856 0 0.00117164 0 0)
(0.2309 0.0114535 0 0.00172468 0 0)
(0.284458 0.014152 0 0.00294077 0 0)
(0.337419 0.0516593 0 0.0135895 0 0)
(0.479126 0.166535 0 0.100444 0 0)
(0.132473 0.0069983 0 0.00047895 0 0)
(0.00509582 0.000323576 0 0.000567086 0 0)
(0.0487264 0.00141265 0 0.000347174 0 0)
(0.108483 0.00341297 0 0.000571552 0 0)
(0.148085 0.00475875 0 0.000886747 0 0)
(0.18712 0.0043147 0 0.00109198 0 0)
(0.222384 0.00639925 0 0.0012044 0 0)
(0.282768 0.0148273 0 0.00330039 0 0)
(0.341257 0.0467285 0 0.0096771 0 0)
(0.499717 0.149025 0 0.0707706 0 0)
(0.132802 0.00211654 0 0.00011451 0 0)
(0.00464781 7.35425e-06 0 0.000251841 0 0)
(0.0476207 0.000246533 0 0.000231033 0 0)
(0.106288 0.00137539 0 0.000353045 0 0)
(0.146471 0.00127426 0 0.000555025 0 0)
(0.18419 0.0010472 0 0.000699995 0 0)
(0.221594 0.00410754 0 0.00064993 0 0)
(0.280545 0.0122656 0 0.0023347 0 0)
(0.34877 0.0401424 0 0.00786544 0 0)
(0.516245 0.14089 0 0.0628249 0 0)
(0.13275 -0.00237874 0 9.92923e-05 0 0)
(0.00444893 -0.000343831 0 0.000191784 0 0)
(0.0472861 -0.000822755 0 0.000181019 0 0)
(0.105968 -0.00145196 0 0.000257553 0 0)
(0.145499 -0.00185713 0 0.000397674 0 0)
(0.183952 -0.00184955 0 0.000617505 0 0)
(0.221024 0.00095774 0 0.000475255 0 0)
(0.284653 0.00846932 0 0.0019206 0 0)
(0.358787 0.0362144 0 0.00610884 0 0)
(0.543698 0.123831 0 0.0442729 0 0)
(0.133332 -0.00726196 0 0.000466907 0 0)
(0.00454143 -0.000782073 0 0.000510237 0 0)
(0.0485979 -0.00220676 0 0.000268485 0 0)
(0.10712 -0.004082 0 0.000375405 0 0)
(0.148356 -0.00567046 0 0.00056755 0 0)
(0.18676 -0.00557897 0 0.000788039 0 0)
(0.226528 -0.00259474 0 0.000437544 0 0)
(0.292328 0.00522678 0 0.00163052 0 0)
(0.374944 0.028491 0 0.00448563 0 0)
(0.568837 0.10436 0 0.0322112 0 0)
(0.135701 -0.0120233 0 0.00116105 0 0)
(0.00460392 -0.00112916 0 0.00113707 0 0)
(0.0513285 -0.00358792 0 0.000481301 0 0)
(0.107891 -0.00679337 0 0.000754766 0 0)
(0.155568 -0.00931164 0 0.0010553 0 0)
(0.190188 -0.00871577 0 0.00114561 0 0)
(0.237316 -0.00586616 0 0.000597091 0 0)
(0.299849 0.000852217 0 0.00152185 0 0)
(0.392699 0.0215515 0 0.00318175 0 0)
(0.584934 0.0828233 0 0.0226285 0 0)
(0.137864 -0.0172173 0 0.00228554 0 0)
(0.00540269 -0.00143743 0 0.00185709 0 0)
(0.0563975 -0.00541341 0 0.000799702 0 0)
(0.109551 -0.00950352 0 0.00124805 0 0)
(0.167491 -0.013528 0 0.00173043 0 0)
(0.18907 -0.01176 0 0.00165766 0 0)
(0.243277 -0.00956536 0 0.000942432 0 0)
(0.277452 -0.00239289 0 0.00143107 0 0)
(0.366156 0.0143834 0 0.00226929 0 0)
(0.501473 0.0590169 0 0.0142457 0 0)
(0.135668 -0.0221787 0 0.00381782 0 0)
(0.006489 -0.00224708 0 0.00267359 0 0)
(0.0612017 -0.00778619 0 0.00138233 0 0)
(0.111687 -0.0127299 0 0.00208277 0 0)
(0.156413 -0.0162516 0 0.00261706 0 0)
(0.148145 -0.0117231 0 0.00217926 0 0)
(0.170995 -0.00896413 0 0.00115905 0 0)
(0.163172 -0.0019563 0 0.00137545 0 0)
(0.205535 0.0092217 0 0.00168923 0 0)
(0.275677 0.0356172 0 0.00842076 0 0)
(0.137296 -0.0280854 0 0.00601198 0 0)
(0.00724147 -0.00348166 0 0.00388199 0 0)
(0.054784 -0.0093253 0 0.00226299 0 0)
(0.0749889 -0.0113477 0 0.00281002 0 0)
(0.0698949 -0.00938465 0 0.00280709 0 0)
(0.0449612 -0.00300319 0 0.00193984 0 0)
(0.044891 -0.00146615 0 0.000907101 0 0)
(0.0440845 0.00213739 0 0.000946498 0 0)
(0.0566593 0.00405942 0 0.00111504 0 0)
(0.102494 0.016729 0 0.00488298 0 0)
(0.144141 -0.0364409 0 0.00959379 0 0)
(0.00535034 -0.00100937 0 0.00488339 0 0)
(0.0204719 -0.00275642 0 0.00249474 0 0)
(0.0175277 0.00108035 0 0.00226561 0 0)
(0.0258091 0.00499053 0 0.00180466 0 0)
(0.0671843 0.00673088 0 0.00106539 0 0)
(0.0969821 0.00432555 0 0.000428536 0 0)
(0.138448 0.00333953 0 0.000492215 0 0)
(0.1415 -0.00209232 0 0.000675486 0 0)
(0.147311 0.00394356 0 0.00276939 0 0)
(0.114574 -0.0367101 0 0.012418 0 0)
(0.03851 0.00993449 0 0.00379128 0 0)
(0.0696375 0.00888603 0 0.00142041 0 0)
(0.133686 0.0112418 0 0.000998119 0 0)
(0.228376 0.0108127 0 0.000682361 0 0)
(0.344362 0.00775294 0 0.000359175 0 0)
(0.397949 0.0041031 0 0.000128819 0 0)
(0.459799 0.0016667 0 0.000181567 0 0)
(0.443418 -0.00597089 0 0.000340526 0 0)
(0.395343 0.00308516 0 0.0012701 0 0)
(0.0345737 -0.0147249 0 0.00894458 0 0)
(0.221885 0.0173715 0 0.00154398 0 0)
(0.318276 0.0103651 0 0.000344897 0 0)
(0.448484 0.00849265 0 0.00020018 0 0)
(0.575092 0.00582508 0 0.000119305 0 0)
(0.68172 0.00315924 0 5.67689e-05 0 0)
(0.721346 0.00135801 0 1.97924e-05 0 0)
(0.76362 -0.000103576 0 3.86605e-05 0 0)
(0.731905 -0.00471485 0 9.81094e-05 0 0)
(0.650453 0.00463293 0 0.000507382 0 0)
(0.0497146 0.00493909 0 0.000850074 0 0)
(0.543662 0.00132108 0 7.16028e-05 0 0)
(0.615989 0.000886779 0 3.36362e-06 0 0)
(0.692907 0.000547897 0 1.59365e-06 0 0)
(0.744203 3.15957e-05 0 5.78031e-07 0 0)
(0.773566 -0.000111795 0 6.10482e-07 0 0)
(0.780596 -0.000149461 0 5.637e-07 0 0)
(0.784957 -0.000295473 0 1.18313e-06 0 0)
(0.75925 -0.00104692 0 3.8032e-06 0 0)
(0.686085 0.0023345 0 0.000168934 0 0)
(4.90396 -3.12111 0 2.52039 0 0)
(4.32793 -2.29717 0 2.87233 0 0)
(3.99143 -1.78881 0 2.9897 0 0)
(3.9519 -1.54753 0 3.18348 0 0)
(4.14269 -1.26296 0 3.20198 0 0)
(4.23091 -1.09807 0 3.26855 0 0)
(4.60777 -1.17512 0 3.35766 0 0)
(5.40883 -1.2001 0 3.46137 0 0)
(5.26498 -1.35261 0 3.74851 0 0)
(6.42254 -1.88126 0 4.27196 0 0)
(6.03084 -1.93394 0 4.58305 0 0)
(6.74475 -2.28529 0 4.96853 0 0)
(6.90971 -2.34643 0 4.90189 0 0)
(6.81524 -2.58982 0 4.8701 0 0)
(6.57262 -3.29502 0 5.43379 0 0)
(6.56023 -3.98036 0 6.15381 0 0)
(6.50815 -4.33069 0 6.48365 0 0)
(7.07005 -4.84611 0 6.86364 0 0)
(7.43428 -5.1926 0 7.01143 0 0)
(7.52914 -5.40676 0 7.35102 0 0)
(7.72796 -5.40733 0 7.30454 0 0)
(7.58891 -4.99286 0 7.28321 0 0)
(7.84603 -4.86453 0 7.08515 0 0)
(8.22719 -4.72695 0 7.07154 0 0)
(8.83215 -4.82909 0 7.35967 0 0)
(9.21182 -4.62403 0 7.55524 0 0)
(9.31482 -4.23531 0 7.78359 0 0)
(9.71632 -3.91937 0 7.98017 0 0)
(9.55781 -3.22055 0 8.15228 0 0)
(10.2215 -2.94374 0 8.33962 0 0)
(9.82362 -2.1609 0 8.61291 0 0)
(10.6075 -2.06347 0 8.9345 0 0)
(9.80336 -1.06739 0 9.15023 0 0)
(10.3566 -0.790223 0 9.01683 0 0)
(9.16577 0.59643 0 8.81571 0 0)
(9.11017 1.24867 0 8.34018 0 0)
(8.46496 2.10334 0 8.33141 0 0)
(8.11838 2.76895 0 7.95656 0 0)
(7.76656 3.06766 0 8.26028 0 0)
(7.31477 3.44863 0 8.06753 0 0)
(6.91077 3.61486 0 8.40224 0 0)
(6.39063 3.71229 0 8.62229 0 0)
(6.08676 3.91536 0 8.79896 0 0)
(5.48508 3.65859 0 9.55376 0 0)
(5.05139 3.74434 0 9.99291 0 0)
(4.46943 2.81941 0 10.5995 0 0)
(4.30207 3.36173 0 10.3031 0 0)
(3.84375 1.94438 0 10.5797 0 0)
(3.67949 2.89127 0 10.3316 0 0)
(3.47562 1.03762 0 10.531 0 0)
(2.77796 1.80683 0 10.1097 0 0)
(3.26647 0.229718 0 10.1642 0 0)
(2.40525 1.27677 0 10.0077 0 0)
(3.16872 -0.130605 0 9.72175 0 0)
(2.31223 1.05616 0 9.77093 0 0)
(3.25017 -0.114808 0 9.21907 0 0)
(2.25915 0.91182 0 9.47086 0 0)
(3.24976 -0.23674 0 8.92034 0 0)
(2.31448 0.711394 0 9.49974 0 0)
(3.01111 -0.685177 0 9.17815 0 0)
(2.16291 0.333006 0 9.46564 0 0)
(2.74132 -1.39916 0 9.13809 0 0)
(1.94304 -0.0164952 0 8.82071 0 0)
(2.47055 -1.69202 0 8.24262 0 0)
(1.82647 -0.0643393 0 7.56932 0 0)
(2.04307 -1.25238 0 6.53287 0 0)
(1.72309 0.203817 0 5.94146 0 0)
(1.71196 -0.755928 0 5.13595 0 0)
(1.70207 0.367575 0 4.95459 0 0)
(1.64462 -0.532491 0 4.36859 0 0)
(1.75667 0.388194 0 4.49954 0 0)
(1.74996 -0.44177 0 3.97192 0 0)
(1.7063 0.400744 0 4.12712 0 0)
(1.86761 -0.253286 0 3.42631 0 0)
(1.77334 0.525208 0 3.59025 0 0)
(1.8931 0.157822 0 2.83968 0 0)
(1.77077 0.760626 0 3.31003 0 0)
(1.80908 0.574532 0 2.53917 0 0)
(1.62167 0.909632 0 3.18678 0 0)
(1.44793 0.769679 0 2.40766 0 0)
(1.17798 0.754519 0 2.9218 0 0)
(0.860218 0.555265 0 2.12247 0 0)
(0.700196 0.33072 0 2.28743 0 0)
(0.442989 0.188009 0 1.65913 0 0)
(0.497474 0.0324397 0 1.63732 0 0)
(0.268804 -0.0831119 0 1.23371 0 0)
(0.480656 -0.160192 0 1.14581 0 0)
(0.238518 -0.193851 0 0.926922 0 0)
(0.532481 -0.274157 0 0.904049 0 0)
(0.322459 -0.239727 0 0.681718 0 0)
(0.60374 -0.421783 0 0.663773 0 0)
(0.356895 -0.216826 0 0.446875 0 0)
(0.620097 -0.454352 0 0.580407 0 0)
(0.433592 -0.175678 0 0.341714 0 0)
(0.697115 -0.487264 0 0.568312 0 0)
(0.286646 -0.0664685 0 0.462852 0 0)
(0.488255 -0.460513 0 0.778515 0 0)
(0.536707 0.109414 0 1.03172 0 0)
(0.46335 -0.379137 0 1.59679 0 0)
(0.273866 -0.22699 0 1.92795 0 0)
(3.538 -2.26217 0 2.1623 0 0)
(3.16071 -1.94619 0 2.48649 0 0)
(2.82251 -1.40813 0 2.46004 0 0)
(2.83308 -1.26435 0 2.52479 0 0)
(2.807 -1.14311 0 2.54352 0 0)
(2.89262 -1.11456 0 2.61067 0 0)
(3.23978 -1.21487 0 2.70614 0 0)
(3.76664 -1.35122 0 2.81187 0 0)
(3.92424 -1.49871 0 3.01785 0 0)
(4.60704 -1.85146 0 3.38359 0 0)
(4.79278 -1.91159 0 3.5982 0 0)
(5.53818 -2.29539 0 3.96581 0 0)
(6.21705 -2.53805 0 4.15023 0 0)
(6.5118 -2.73342 0 4.24681 0 0)
(6.95516 -3.39124 0 4.72484 0 0)
(7.49427 -4.18494 0 5.43282 0 0)
(7.62075 -4.56984 0 5.92788 0 0)
(7.97336 -4.94216 0 6.41627 0 0)
(8.26293 -5.21118 0 6.64956 0 0)
(8.207 -5.30756 0 7.00967 0 0)
(8.26889 -5.20603 0 6.96564 0 0)
(8.30212 -4.93797 0 7.01681 0 0)
(8.73922 -4.9349 0 6.98117 0 0)
(9.29144 -4.95277 0 7.05492 0 0)
(9.65254 -4.88098 0 7.26184 0 0)
(9.8372 -4.49274 0 7.34492 0 0)
(9.89207 -4.04047 0 7.54947 0 0)
(10.2654 -3.65858 0 7.73552 0 0)
(10.1466 -2.97965 0 7.94261 0 0)
(10.7035 -2.68821 0 8.19978 0 0)
(10.3481 -1.98225 0 8.59165 0 0)
(10.9703 -1.83667 0 8.94441 0 0)
(10.0527 -0.778868 0 9.05113 0 0)
(10.3712 -0.295423 0 8.82294 0 0)
(8.93252 1.17465 0 8.5514 0 0)
(9.10553 1.68438 0 8.15701 0 0)
(8.20123 2.62302 0 8.18067 0 0)
(8.25081 3.11108 0 7.90764 0 0)
(7.69986 3.39988 0 8.27281 0 0)
(7.60891 3.75895 0 8.05067 0 0)
(7.00978 3.78148 0 8.37353 0 0)
(6.78493 3.94846 0 8.58404 0 0)
(6.27027 4.03141 0 8.69539 0 0)
(5.85119 3.74571 0 9.64709 0 0)
(5.38229 3.91498 0 9.96448 0 0)
(4.84684 2.89751 0 10.5557 0 0)
(4.76245 3.58429 0 10.1141 0 0)
(4.34277 2.13949 0 10.5604 0 0)
(4.02425 3.00009 0 10.2843 0 0)
(3.99952 1.27915 0 10.6491 0 0)
(3.15366 1.82529 0 10.0281 0 0)
(3.57731 0.447112 0 10.1716 0 0)
(2.85273 1.22418 0 9.88255 0 0)
(3.35204 -0.0263509 0 9.75338 0 0)
(2.64186 0.910358 0 9.65213 0 0)
(3.46099 -0.348859 0 9.27554 0 0)
(2.4721 0.887822 0 9.36797 0 0)
(3.47923 -0.675907 0 8.99148 0 0)
(2.37373 0.690774 0 9.4388 0 0)
(3.16821 -0.947168 0 9.29826 0 0)
(2.19613 0.337581 0 9.61555 0 0)
(2.74648 -1.48986 0 9.39316 0 0)
(1.90633 0.0586785 0 9.09349 0 0)
(2.37343 -1.7407 0 8.53231 0 0)
(1.67783 0.112542 0 7.7517 0 0)
(1.75685 -1.23054 0 6.73372 0 0)
(1.53006 0.37217 0 6.1936 0 0)
(1.32593 -0.744992 0 5.36286 0 0)
(1.53037 0.464526 0 5.31255 0 0)
(1.24263 -0.588133 0 4.67636 0 0)
(1.54472 0.443329 0 4.89521 0 0)
(1.29694 -0.540451 0 4.2708 0 0)
(1.40817 0.405 0 4.46256 0 0)
(1.34772 -0.335997 0 3.62246 0 0)
(1.44102 0.464815 0 3.82276 0 0)
(1.3523 0.0514961 0 2.96852 0 0)
(1.47098 0.625765 0 3.52213 0 0)
(1.38046 0.439754 0 2.62154 0 0)
(1.46707 0.757837 0 3.40756 0 0)
(1.24917 0.695751 0 2.47768 0 0)
(1.24898 0.670263 0 3.16963 0 0)
(0.825769 0.558529 0 2.20836 0 0)
(0.922809 0.301785 0 2.5158 0 0)
(0.432187 0.186004 0 1.72023 0 0)
(0.8013 -0.00747979 0 1.79139 0 0)
(0.284875 -0.0797477 0 1.27589 0 0)
(0.874153 -0.211917 0 1.26681 0 0)
(0.348596 -0.222311 0 0.937399 0 0)
(1.17186 -0.425603 0 0.948752 0 0)
(0.363849 -0.234074 0 0.699965 0 0)
(1.57785 -0.551513 0 0.805083 0 0)
(0.428746 -0.279628 0 0.433308 0 0)
(1.74855 -0.738161 0 0.617938 0 0)
(0.375852 -0.198068 0 0.351032 0 0)
(1.58714 -0.903282 0 0.653315 0 0)
(0.329231 -0.151816 0 0.523285 0 0)
(1.66366 -1.01575 0 0.792931 0 0)
(0.219553 -0.250137 0 0.83394 0 0)
(0.275335 -0.362888 0 1.29118 0 0)
(0.330084 -0.249147 0 1.99763 0 0)
(1.91564 -1.02511 0 1.13227 0 0)
(1.93804 -1.24105 0 1.71251 0 0)
(1.68388 -0.882784 0 1.99833 0 0)
(1.94117 -0.703332 0 2.12842 0 0)
(2.15575 -0.607711 0 2.14362 0 0)
(2.45838 -0.650844 0 2.15991 0 0)
(2.82963 -0.80124 0 2.24353 0 0)
(3.19862 -0.979672 0 2.36079 0 0)
(3.44644 -1.1113 0 2.50496 0 0)
(3.93981 -1.33442 0 2.76604 0 0)
(4.53708 -1.54375 0 2.96355 0 0)
(5.43634 -2.02501 0 3.27836 0 0)
(6.31438 -2.48729 0 3.54034 0 0)
(6.78389 -2.73686 0 3.71896 0 0)
(7.44095 -3.32186 0 4.19605 0 0)
(8.45585 -4.13307 0 4.86697 0 0)
(8.63088 -4.51459 0 5.40487 0 0)
(8.7401 -4.80166 0 5.9492 0 0)
(8.98878 -5.00961 0 6.2545 0 0)
(8.92515 -5.04904 0 6.5649 0 0)
(9.02016 -4.97908 0 6.57262 0 0)
(9.28034 -4.96785 0 6.76241 0 0)
(9.68205 -5.01801 0 6.87345 0 0)
(10.0273 -4.98635 0 6.95218 0 0)
(10.0966 -4.70773 0 7.03738 0 0)
(10.2001 -4.25946 0 7.06316 0 0)
(10.2934 -3.81804 0 7.26489 0 0)
(10.5665 -3.38143 0 7.44029 0 0)
(10.4607 -2.74339 0 7.70777 0 0)
(10.9287 -2.46146 0 8.05538 0 0)
(10.615 -1.8251 0 8.52438 0 0)
(11.0376 -1.53402 0 8.83579 0 0)
(9.94886 -0.35672 0 8.80948 0 0)
(10.0129 0.334722 0 8.51659 0 0)
(8.59626 1.76125 0 8.21919 0 0)
(8.84419 2.14067 0 7.94583 0 0)
(7.88554 3.09897 0 7.98794 0 0)
(8.21147 3.35413 0 7.84454 0 0)
(7.53575 3.68364 0 8.18985 0 0)
(7.83174 3.92367 0 7.96989 0 0)
(7.0764 3.88309 0 8.26639 0 0)
(7.15705 4.08928 0 8.45679 0 0)
(6.45851 4.09402 0 8.5373 0 0)
(6.21891 3.74965 0 9.62727 0 0)
(5.65565 3.9897 0 9.80251 0 0)
(5.38274 2.9546 0 10.3323 0 0)
(5.14578 3.71717 0 9.81417 0 0)
(5.04274 2.29195 0 10.4663 0 0)
(4.27019 3.01442 0 10.0728 0 0)
(4.66507 1.48792 0 10.6335 0 0)
(3.53655 1.90982 0 9.82034 0 0)
(4.03166 0.556805 0 10.0588 0 0)
(3.21471 1.10022 0 9.48453 0 0)
(3.58868 0.0730339 0 9.5913 0 0)
(3.03631 0.78061 0 9.30977 0 0)
(3.47365 -0.430591 0 9.08016 0 0)
(2.82613 0.81336 0 9.14615 0 0)
(3.52078 -0.945733 0 8.96284 0 0)
(2.57846 0.661811 0 9.27374 0 0)
(3.23504 -1.21753 0 9.33564 0 0)
(2.28028 0.35715 0 9.57208 0 0)
(2.71941 -1.51636 0 9.4172 0 0)
(1.94836 0.119449 0 9.15289 0 0)
(2.21177 -1.6733 0 8.55985 0 0)
(1.5621 0.3012 0 7.80559 0 0)
(1.44511 -1.19399 0 6.80105 0 0)
(1.38736 0.542601 0 6.32329 0 0)
(0.97968 -0.745883 0 5.46655 0 0)
(1.40574 0.53415 0 5.51819 0 0)
(0.912419 -0.666338 0 4.85957 0 0)
(1.36569 0.49368 0 5.12073 0 0)
(0.931504 -0.641204 0 4.46553 0 0)
(1.20712 0.417718 0 4.67895 0 0)
(0.913105 -0.406964 0 3.75289 0 0)
(1.23066 0.395706 0 3.98476 0 0)
(0.868072 -0.0542818 0 3.09946 0 0)
(1.29351 0.471123 0 3.67256 0 0)
(0.934344 0.271996 0 2.73655 0 0)
(1.39094 0.584574 0 3.56719 0 0)
(0.955173 0.556393 0 2.5776 0 0)
(1.34838 0.560864 0 3.35786 0 0)
(0.715463 0.521009 0 2.3214 0 0)
(1.15162 0.252004 0 2.69252 0 0)
(0.41706 0.207578 0 1.81421 0 0)
(1.05692 -0.0486258 0 1.91432 0 0)
(0.361422 -0.0573304 0 1.3337 0 0)
(1.17298 -0.222586 0 1.34091 0 0)
(0.367114 -0.185259 0 0.986769 0 0)
(1.37207 -0.349712 0 1.08398 0 0)
(0.443152 -0.289068 0 0.662201 0 0)
(1.72305 -0.599756 0 0.862998 0 0)
(0.345403 -0.198135 0 0.437305 0 0)
(2.03567 -0.871995 0 0.711009 0 0)
(0.392416 -0.146643 0 0.284768 0 0)
(1.72652 -0.969747 0 0.649228 0 0)
(0.29594 -0.117625 0 0.467275 0 0)
(1.25949 -0.782937 0 0.917349 0 0)
(0.669511 -0.536023 0 0.868773 0 0)
(0.658168 -0.60047 0 1.12164 0 0)
(0.315565 -0.561138 0 2.20663 0 0)
(0.789142 -0.339873 0 0.966558 0 0)
(1.36104 -0.441268 0 1.45577 0 0)
(1.39445 -0.333065 0 1.65004 0 0)
(1.6022 -0.190964 0 1.74829 0 0)
(1.91425 -0.0712014 0 1.7657 0 0)
(2.32012 -0.089525 0 1.78111 0 0)
(2.76505 -0.199896 0 1.85792 0 0)
(3.17788 -0.344361 0 1.97176 0 0)
(3.65751 -0.486664 0 2.07017 0 0)
(4.33429 -0.722078 0 2.26882 0 0)
(5.13767 -1.07209 0 2.51493 0 0)
(5.9748 -1.56795 0 2.84674 0 0)
(6.77284 -2.0992 0 3.14958 0 0)
(7.43156 -2.45804 0 3.32523 0 0)
(8.00872 -2.94009 0 3.71171 0 0)
(9.0163 -3.71236 0 4.3387 0 0)
(9.417 -4.15422 0 4.84728 0 0)
(9.52825 -4.47371 0 5.38205 0 0)
(9.71416 -4.65694 0 5.75618 0 0)
(9.68519 -4.68675 0 6.08221 0 0)
(9.84468 -4.77885 0 6.26314 0 0)
(10.1304 -4.93068 0 6.56441 0 0)
(10.3171 -4.92187 0 6.69037 0 0)
(10.3879 -4.74816 0 6.69116 0 0)
(10.336 -4.35449 0 6.68005 0 0)
(10.4219 -3.9423 0 6.70977 0 0)
(10.4903 -3.50648 0 6.91552 0 0)
(10.5954 -3.04433 0 7.11224 0 0)
(10.536 -2.51406 0 7.46928 0 0)
(10.928 -2.26953 0 7.91446 0 0)
(10.6096 -1.66121 0 8.42161 0 0)
(10.7104 -1.13565 0 8.6304 0 0)
(9.49437 0.142337 0 8.46899 0 0)
(9.37545 0.959447 0 8.14214 0 0)
(8.1712 2.24309 0 7.88268 0 0)
(8.39178 2.55501 0 7.69445 0 0)
(7.67269 3.45148 0 7.7478 0 0)
(8.09715 3.5353 0 7.7311 0 0)
(7.48662 3.89031 0 8.04374 0 0)
(7.93202 3.93746 0 7.83192 0 0)
(7.16856 3.88738 0 8.07336 0 0)
(7.47743 4.13036 0 8.2173 0 0)
(6.70411 4.06279 0 8.29843 0 0)
(6.63106 3.7215 0 9.48979 0 0)
(5.94221 3.9938 0 9.49918 0 0)
(6.03879 2.97451 0 9.95791 0 0)
(5.48417 3.75337 0 9.37925 0 0)
(5.83596 2.43092 0 10.2829 0 0)
(4.53825 2.98418 0 9.74369 0 0)
(5.48514 1.61113 0 10.4199 0 0)
(3.93893 2.07397 0 9.46829 0 0)
(4.76074 0.740545 0 9.99261 0 0)
(3.60091 1.1708 0 9.06864 0 0)
(4.05827 0.0610594 0 9.49172 0 0)
(3.46231 0.772542 0 8.96291 0 0)
(3.61346 -0.522537 0 8.90599 0 0)
(3.27432 0.671016 0 8.84646 0 0)
(3.51642 -1.03727 0 8.83683 0 0)
(2.89929 0.574948 0 8.99629 0 0)
(3.2928 -1.37139 0 9.26877 0 0)
(2.4957 0.397759 0 9.4027 0 0)
(2.74235 -1.55207 0 9.49669 0 0)
(2.01483 0.207206 0 9.16855 0 0)
(2.01411 -1.50652 0 8.62813 0 0)
(1.48928 0.498348 0 7.84349 0 0)
(1.24034 -1.05878 0 6.85453 0 0)
(1.3181 0.701098 0 6.42031 0 0)
(0.835132 -0.720233 0 5.58703 0 0)
(1.37883 0.621403 0 5.68799 0 0)
(0.774574 -0.718077 0 5.01397 0 0)
(1.22956 0.5721 0 5.28163 0 0)
(0.742451 -0.737649 0 4.6159 0 0)
(1.07785 0.472261 0 4.82328 0 0)
(0.688074 -0.502945 0 3.82644 0 0)
(1.09974 0.34274 0 4.06633 0 0)
(0.604629 -0.188625 0 3.16678 0 0)
(1.202 0.326709 0 3.73608 0 0)
(0.662667 0.0646271 0 2.79889 0 0)
(1.36037 0.394431 0 3.62195 0 0)
(0.737826 0.347397 0 2.6295 0 0)
(1.47612 0.436212 0 3.47172 0 0)
(0.615896 0.406499 0 2.38616 0 0)
(1.44233 0.230013 0 2.84871 0 0)
(0.387356 0.171049 0 1.8713 0 0)
(1.39674 -0.0401088 0 2.01659 0 0)
(0.311596 -0.0766902 0 1.34867 0 0)
(1.41664 -0.146601 0 1.42504 0 0)
(0.403957 -0.221041 0 0.935717 0 0)
(1.41742 -0.203813 0 1.16211 0 0)
(0.464418 -0.127252 0 0.696054 0 0)
(1.26277 -0.444698 0 0.943877 0 0)
(0.465962 -0.0759035 0 0.461481 0 0)
(1.48596 -0.767399 0 0.79994 0 0)
(0.385742 -0.094161 0 0.374815 0 0)
(2.1407 -0.884733 0 0.653318 0 0)
(0.331608 -0.268144 0 0.416435 0 0)
(0.87013 -0.544077 0 0.807832 0 0)
(0.456652 -0.389955 0 0.705934 0 0)
(0.514997 0.0969625 0 0.716854 0 0)
(0.320548 -0.41147 0 2.09632 0 0)
(0.326486 0.0576856 0 0.517154 0 0)
(0.716714 0.0400838 0 0.851184 0 0)
(1.18754 0.0916315 0 1.09663 0 0)
(1.57941 0.196981 0 1.2793 0 0)
(2.0205 0.310353 0 1.38476 0 0)
(2.52506 0.339471 0 1.44526 0 0)
(3.12006 0.30186 0 1.49029 0 0)
(3.75906 0.195966 0 1.56882 0 0)
(4.47727 0.00219743 0 1.66181 0 0)
(5.20856 -0.286999 0 1.84772 0 0)
(5.94233 -0.655592 0 2.12034 0 0)
(6.65257 -1.08393 0 2.46516 0 0)
(7.35147 -1.55919 0 2.80619 0 0)
(8.11075 -1.99981 0 3.02026 0 0)
(8.66718 -2.4238 0 3.30871 0 0)
(9.40742 -3.09585 0 3.8619 0 0)
(9.94296 -3.61824 0 4.34428 0 0)
(10.1671 -4.01793 0 4.83104 0 0)
(10.3153 -4.2526 0 5.23089 0 0)
(10.3203 -4.35615 0 5.61912 0 0)
(10.4896 -4.59743 0 5.97779 0 0)
(10.6272 -4.71399 0 6.30164 0 0)
(10.5585 -4.55133 0 6.34719 0 0)
(10.4811 -4.27132 0 6.28679 0 0)
(10.4071 -3.86568 0 6.26143 0 0)
(10.4478 -3.51462 0 6.34255 0 0)
(10.4417 -3.08614 0 6.56311 0 0)
(10.4797 -2.68782 0 6.81368 0 0)
(10.535 -2.3156 0 7.26315 0 0)
(10.813 -2.07265 0 7.77126 0 0)
(10.3543 -1.39624 0 8.21187 0 0)
(10.0704 -0.620337 0 8.24113 0 0)
(8.82284 0.70329 0 7.97827 0 0)
(8.61316 1.53659 0 7.68979 0 0)
(7.6743 2.62869 0 7.51811 0 0)
(7.92821 2.89541 0 7.43336 0 0)
(7.65371 3.67758 0 7.50466 0 0)
(8.019 3.6448 0 7.63999 0 0)
(7.59314 3.9597 0 7.88578 0 0)
(7.8245 3.76127 0 7.68031 0 0)
(7.29626 3.8039 0 7.80821 0 0)
(7.69874 3.99699 0 7.88419 0 0)
(6.97081 3.95525 0 7.98315 0 0)
(7.05985 3.64438 0 9.24141 0 0)
(6.20804 3.8811 0 9.07257 0 0)
(6.78436 2.99667 0 9.49507 0 0)
(5.74656 3.60276 0 8.84687 0 0)
(6.64852 2.55085 0 10.011 0 0)
(4.80641 2.90148 0 9.31563 0 0)
(6.21444 1.69665 0 10.1064 0 0)
(4.37324 2.10849 0 8.92312 0 0)
(5.56095 0.843677 0 9.6801 0 0)
(4.09286 1.31799 0 8.46577 0 0)
(4.71777 0.0128266 0 9.20854 0 0)
(3.84205 0.874649 0 8.36586 0 0)
(4.03506 -0.600699 0 8.65867 0 0)
(3.7074 0.597078 0 8.40939 0 0)
(3.64113 -1.05216 0 8.65446 0 0)
(3.19904 0.425049 0 8.63874 0 0)
(3.2754 -1.37681 0 9.11078 0 0)
(2.64727 0.357254 0 9.08714 0 0)
(2.67488 -1.552 0 9.43262 0 0)
(2.10639 0.329804 0 8.902 0 0)
(1.80227 -1.29925 0 8.49487 0 0)
(1.49301 0.673591 0 7.65907 0 0)
(1.10942 -0.908222 0 6.79616 0 0)
(1.3959 0.86655 0 6.3542 0 0)
(0.794904 -0.744729 0 5.63277 0 0)
(1.50323 0.742506 0 5.69753 0 0)
(0.722286 -0.782016 0 5.10526 0 0)
(1.32619 0.691781 0 5.29186 0 0)
(0.632859 -0.817209 0 4.72534 0 0)
(1.19067 0.557753 0 4.82826 0 0)
(0.565134 -0.594514 0 3.86499 0 0)
(1.21461 0.327151 0 4.04527 0 0)
(0.464488 -0.336612 0 3.23069 0 0)
(1.34406 0.243731 0 3.71035 0 0)
(0.480844 -0.154681 0 2.88886 0 0)
(1.51072 0.268208 0 3.56716 0 0)
(0.555768 0.0732233 0 2.70765 0 0)
(1.71573 0.381785 0 3.44914 0 0)
(0.532355 0.201965 0 2.47612 0 0)
(1.79812 0.291521 0 2.87984 0 0)
(0.387933 0.103048 0 1.96783 0 0)
(1.76296 0.0742429 0 2.08597 0 0)
(0.263223 -0.0825174 0 1.37205 0 0)
(1.64799 -0.0576561 0 1.49229 0 0)
(0.272576 -0.112562 0 0.949687 0 0)
(1.43417 -0.241304 0 1.08506 0 0)
(0.428582 -0.0197762 0 0.706071 0 0)
(1.50796 -0.198211 0 0.881353 0 0)
(0.553582 0.112355 0 0.518664 0 0)
(1.70415 -0.0199543 0 0.843293 0 0)
(0.427789 0.0914792 0 0.433271 0 0)
(1.63955 0.213031 0 1.05972 0 0)
(0.741435 -0.378251 0 0.476896 0 0)
(1.19915 0.0575648 0 0.995799 0 0)
(1.40261 -0.854938 0 0.9479 0 0)
(0.548818 0.0103402 0 0.361089 0 0)
(0.128313 -0.0617378 0 2.04409 0 0)
(0.390737 0.256461 0 0.404359 0 0)
(0.72812 0.424746 0 0.762166 0 0)
(1.36448 0.592987 0 0.979104 0 0)
(2.05839 0.670186 0 1.09746 0 0)
(2.66724 0.711931 0 1.16131 0 0)
(3.23669 0.724094 0 1.17836 0 0)
(3.89216 0.673847 0 1.17358 0 0)
(4.56388 0.532815 0 1.22953 0 0)
(5.22222 0.291442 0 1.34483 0 0)
(5.86836 -0.00591312 0 1.52257 0 0)
(6.53661 -0.337836 0 1.7764 0 0)
(7.22056 -0.69873 0 2.08942 0 0)
(7.89755 -1.10137 0 2.42455 0 0)
(8.605 -1.5542 0 2.70251 0 0)
(9.16475 -1.96965 0 2.97338 0 0)
(9.65142 -2.50101 0 3.47547 0 0)
(10.0817 -3.01343 0 3.97353 0 0)
(10.3702 -3.46302 0 4.43454 0 0)
(10.5899 -3.8213 0 4.82892 0 0)
(10.6477 -4.06475 0 5.23483 0 0)
(10.7372 -4.3171 0 5.63032 0 0)
(10.62 -4.23531 0 5.88132 0 0)
(10.423 -3.94104 0 5.86843 0 0)
(10.3244 -3.61086 0 5.81061 0 0)
(10.3071 -3.24622 0 5.82254 0 0)
(10.333 -2.96582 0 5.9555 0 0)
(10.3918 -2.60539 0 6.19819 0 0)
(10.4965 -2.34816 0 6.53111 0 0)
(10.6395 -2.08706 0 7.05591 0 0)
(10.636 -1.75593 0 7.55498 0 0)
(9.94122 -0.948696 0 7.86806 0 0)
(9.25328 0.0218083 0 7.75833 0 0)
(8.12594 1.24761 0 7.49235 0 0)
(7.87493 2.02727 0 7.26161 0 0)
(7.28881 2.89993 0 7.15165 0 0)
(7.61264 3.1089 0 7.131 0 0)
(7.85535 3.75949 0 7.25119 0 0)
(7.97045 3.65746 0 7.57335 0 0)
(7.72309 3.91459 0 7.77564 0 0)
(7.62284 3.50615 0 7.51939 0 0)
(7.41562 3.66824 0 7.44221 0 0)
(7.7931 3.74784 0 7.47098 0 0)
(7.16151 3.73085 0 7.57574 0 0)
(7.42182 3.48665 0 8.8816 0 0)
(6.53157 3.69602 0 8.54584 0 0)
(7.47181 2.99318 0 8.94743 0 0)
(6.07307 3.41337 0 8.24959 0 0)
(7.24834 2.6009 0 9.69333 0 0)
(5.25903 2.74865 0 8.75267 0 0)
(6.83379 1.762 0 9.64428 0 0)
(4.88059 2.16282 0 8.34299 0 0)
(6.30556 0.960942 0 9.40127 0 0)
(4.6228 1.49409 0 7.9492 0 0)
(5.51319 -0.0144725 0 8.99887 0 0)
(4.31421 0.983919 0 7.79105 0 0)
(4.66308 -0.749538 0 8.44403 0 0)
(4.10764 0.610922 0 7.79199 0 0)
(3.97938 -1.12549 0 8.49119 0 0)
(3.4926 0.374628 0 8.12559 0 0)
(3.36986 -1.35255 0 8.94395 0 0)
(2.69534 0.332873 0 8.67232 0 0)
(2.59858 -1.41407 0 9.311 0 0)
(2.06627 0.466259 0 8.54481 0 0)
(1.60805 -1.02376 0 8.43762 0 0)
(1.51428 0.846724 0 7.42413 0 0)
(0.994748 -0.683882 0 6.81527 0 0)
(1.53751 1.01384 0 6.26435 0 0)
(0.789035 -0.685392 0 5.77161 0 0)
(1.67543 0.856625 0 5.64772 0 0)
(0.753479 -0.816878 0 5.25467 0 0)
(1.59213 0.817113 0 5.21027 0 0)
(0.694297 -0.891113 0 4.86166 0 0)
(1.46544 0.655159 0 4.73192 0 0)
(0.625376 -0.708098 0 3.89093 0 0)
(1.44987 0.314815 0 3.94637 0 0)
(0.534527 -0.511147 0 3.25495 0 0)
(1.57011 0.157824 0 3.59778 0 0)
(0.520795 -0.380797 0 2.93951 0 0)
(1.67773 0.117854 0 3.4197 0 0)
(0.56239 -0.198532 0 2.75781 0 0)
(1.86552 0.259685 0 3.33109 0 0)
(0.597901 -0.0347245 0 2.52645 0 0)
(2.01994 0.314261 0 2.84889 0 0)
(0.510267 -0.080991 0 1.99276 0 0)
(2.09369 0.260103 0 2.12277 0 0)
(0.348891 -0.213672 0 1.38749 0 0)
(1.91786 0.0692115 0 1.46428 0 0)
(0.326606 -0.169125 0 1.00785 0 0)
(1.50103 -0.208295 0 1.07008 0 0)
(0.341735 -0.100037 0 0.755783 0 0)
(1.49967 -0.348371 0 0.802239 0 0)
(0.437123 -0.0484969 0 0.536081 0 0)
(2.8871 0.0327156 0 0.723088 0 0)
(0.613868 -0.0558302 0 0.418393 0 0)
(5.03933 0.858717 0 0.797737 0 0)
(0.796815 -0.061094 0 0.561892 0 0)
(4.25735 1.01048 0 0.789312 0 0)
(0.626669 -0.128134 0 1.13562 0 0)
(0.864219 0.202049 0 0.345291 0 0)
(0.189056 -0.0311186 0 2.04685 0 0)
(0.63024 0.352368 0 0.337251 0 0)
(0.952606 0.474029 0 0.51558 0 0)
(1.47993 0.583888 0 0.664308 0 0)
(2.16403 0.667862 0 0.781779 0 0)
(2.84441 0.738911 0 0.838122 0 0)
(3.47577 0.779672 0 0.84776 0 0)
(4.11504 0.732121 0 0.854545 0 0)
(4.73899 0.58655 0 0.930303 0 0)
(5.35456 0.362747 0 1.06603 0 0)
(6.01829 0.0960992 0 1.23147 0 0)
(6.6935 -0.195876 0 1.45357 0 0)
(7.38615 -0.520584 0 1.72418 0 0)
(8.03041 -0.876701 0 2.03504 0 0)
(8.6459 -1.28741 0 2.35311 0 0)
(9.16221 -1.68355 0 2.66333 0 0)
(9.54672 -2.10799 0 3.12909 0 0)
(9.88753 -2.55273 0 3.62729 0 0)
(10.2 -3.02444 0 4.11318 0 0)
(10.4457 -3.4464 0 4.54524 0 0)
(10.4792 -3.71122 0 4.93703 0 0)
(10.389 -3.79641 0 5.23745 0 0)
(10.1598 -3.53607 0 5.34779 0 0)
(10.0196 -3.21803 0 5.2929 0 0)
(10.0403 -2.89747 0 5.26982 0 0)
(10.1582 -2.6228 0 5.34475 0 0)
(10.2836 -2.42609 0 5.53596 0 0)
(10.4841 -2.17435 0 5.84682 0 0)
(10.6681 -2.03576 0 6.27962 0 0)
(10.6842 -1.76261 0 6.83564 0 0)
(10.3203 -1.26379 0 7.25267 0 0)
(9.35465 -0.293143 0 7.3914 0 0)
(8.48047 0.736455 0 7.19164 0 0)
(7.60331 1.76707 0 6.98465 0 0)
(7.3828 2.41141 0 6.84661 0 0)
(7.16047 3.05139 0 6.81332 0 0)
(7.5685 3.15583 0 6.83511 0 0)
(8.09612 3.70015 0 7.01436 0 0)
(8.00059 3.57201 0 7.5314 0 0)
(7.86548 3.8102 0 7.61726 0 0)
(7.52872 3.27388 0 7.24469 0 0)
(7.66045 3.53852 0 6.97467 0 0)