/*--------------------------------*- C++ -*----------------------------------*\
| =========                 |                                                 |
| \\      /  F ield         | OpenFOAM: The Open Source CFD Toolbox           |
|  \\    /   O peration     | Version:  2.4.0                                 |
|   \\  /    A nd           | Web:      www.OpenFOAM.org                      |
|    \\/     M anipulation  |                                                 |
\*---------------------------------------------------------------------------*/
FoamFile
{
    version     2.0;
    format      ascii;
    class       volScalarField;
    location    "0.102431";
    object      p;
}
// * * * * * * * * * * * * * * * * * * * * * * * * * * * * * * * * * * * * * //

dimensions      [0 2 -2 0 0 0 0];

internalField   nonuniform List<scalar> 
17600
(
37.4263
36.6842
36.3332
36.1731
36.0044
35.8234
35.6515
35.4913
35.3387
35.1913
35.0483
34.9093
34.7734
34.6401
34.5087
34.3796
34.2525
34.1313
34.012
33.9206
36.7693
36.4089
36.2549
36.1432
35.9939
35.8219
35.6537
35.4952
35.3432
35.1957
35.0525
34.913
34.7767
34.643
34.5113
34.3818
34.2543
34.1328
34.0078
33.9095
36.7827
36.5683
36.3361
36.1733
36.008
35.8301
35.6587
35.4984
35.3455
35.1975
35.0539
34.9144
34.7781
34.6444
34.5127
34.3832
34.2556
34.1334
34.0061
33.8922
36.7649
36.5549
36.3124
36.1556
35.9996
35.8271
35.658
35.4987
35.3463
35.1984
35.0549
34.9152
34.7788
34.6449
34.5131
34.3835
34.2556
34.1326
34.0029
33.8789
36.7342
36.5396
36.3089
36.1536
35.9992
35.8279
35.6592
35.4999
35.3474
35.1995
35.0558
34.916
34.7794
34.6454
34.5135
34.3837
34.2556
34.1316
33.9999
33.8694
36.7036
36.5298
36.3107
36.1529
35.9983
35.8283
35.6601
35.5008
35.3483
35.2003
35.0565
34.9166
34.7799
34.6457
34.5137
34.3838
34.2554
34.1305
33.9974
33.8625
36.6767
36.5223
36.3123
36.1516
35.9972
35.8287
35.661
35.5017
35.3491
35.2011
35.0572
34.9171
34.7802
34.646
34.5139
34.3838
34.2551
34.1294
33.9952
33.8575
36.6531
36.5148
36.3129
36.1502
35.9961
35.829
35.6619
35.5027
35.35
35.2019
35.0578
34.9176
34.7807
34.6463
34.514
34.3838
34.2548
34.1283
33.9935
33.8542
36.6322
36.5072
36.313
36.1491
35.9951
35.8294
35.6628
35.5035
35.3509
35.2027
35.0585
34.9182
34.7811
34.6466
34.5142
34.3838
34.2546
34.1274
33.9923
33.8522
36.6136
36.4998
36.3129
36.1481
35.9942
35.8297
35.6636
35.5044
35.3517
35.2034
35.0592
34.9187
34.7815
34.6469
34.5144
34.3839
34.2544
34.1266
33.9914
33.8511
36.5973
36.4928
36.3125
36.1473
35.9933
35.83
35.6643
35.5051
35.3524
35.2041
35.0598
34.9192
34.7819
34.6472
34.5146
34.3839
34.2542
34.1259
33.9907
33.8507
36.5829
36.4863
36.3121
36.1466
35.9926
35.8302
35.665
35.5058
35.3531
35.2048
35.0604
34.9197
34.7823
34.6475
34.5148
34.3839
34.254
34.1252
33.9903
33.8508
36.5705
36.4804
36.3116
36.146
35.9918
35.8304
35.6656
35.5064
35.3537
35.2053
35.0609
34.9201
34.7826
34.6477
34.5149
34.384
34.2539
34.1247
33.9901
33.8513
36.5598
36.4751
36.311
36.1455
35.9912
35.8305
35.6661
35.507
35.3542
35.2058
35.0613
34.9205
34.7829
34.648
34.5151
34.384
34.2537
34.1243
33.99
33.8521
36.5508
36.4705
36.3104
36.145
35.9907
35.8306
35.6666
35.5074
35.3546
35.2062
35.0617
34.9208
34.7832
34.6481
34.5152
34.3839
34.2536
34.1239
33.99
33.853
36.5434
36.4667
36.3099
36.1447
35.9902
35.8307
35.6669
35.5078
35.355
35.2066
35.062
34.921
34.7834
34.6483
34.5152
34.3839
34.2535
34.1236
33.9901
33.8541
36.5376
36.4636
36.3095
36.1444
35.9898
35.8307
35.6672
35.5081
35.3553
35.2069
35.0622
34.9212
34.7835
34.6484
34.5153
34.3838
34.2533
34.1233
33.9903
33.8552
36.5333
36.4612
36.3091
36.1442
35.9895
35.8307
35.6674
35.5083
35.3555
35.2071
35.0624
34.9214
34.7836
34.6484
34.5153
34.3838
34.2532
34.123
33.9904
33.8563
36.5304
36.4596
36.3088
36.1441
35.9894
35.8308
35.6676
35.5085
35.3556
35.2072
35.0625
34.9215
34.7837
34.6484
34.5152
34.3837
34.253
34.1228
33.9907
33.8574
36.529
36.4588
36.3087
36.144
35.9893
35.8308
35.6677
35.5086
35.3557
35.2073
35.0626
34.9215
34.7837
34.6484
34.5152
34.3836
34.2528
34.1226
33.9909
33.8584
36.529
36.4588
36.3087
36.144
35.9893
35.8308
35.6677
35.5086
35.3557
35.2073
35.0626
34.9215
34.7837
34.6484
34.5151
34.3834
34.2527
34.1225
33.9911
33.8594
36.5304
36.4596
36.3088
36.1441
35.9894
35.8308
35.6676
35.5085
35.3556
35.2072
35.0625
34.9214
34.7836
34.6483
34.515
34.3833
34.2525
34.1223
33.9913
33.8603
36.5333
36.4612
36.3091
36.1442
35.9895
35.8307
35.6674
35.5083
35.3555
35.207
35.0623
34.9213
34.7835
34.6482
34.5148
34.3831
34.2523
34.1221
33.9915
33.8612
36.5376
36.4636
36.3095
36.1444
35.9898
35.8307
35.6672
35.5081
35.3552
35.2068
35.0621
34.9211
34.7833
34.648
34.5147
34.3829
34.2521
34.122
33.9917
33.862
36.5434
36.4667
36.3099
36.1447
35.9902
35.8306
35.6669
35.5078
35.3549
35.2065
35.0619
34.9209
34.7831
34.6478
34.5145
34.3827
34.2519
34.1218
33.9918
33.8626
36.5508
36.4705
36.3104
36.145
35.9907
35.8306
35.6665
35.5074
35.3546
35.2062
35.0615
34.9206
34.7828
34.6475
34.5142
34.3824
34.2517
34.1217
33.992
33.8633
36.5598
36.4751
36.311
36.1455
35.9912
35.8305
35.6661
35.5069
35.3541
35.2057
35.0611
34.9202
34.7825
34.6473
34.514
34.3822
34.2514
34.1215
33.992
33.8638
36.5705
36.4804
36.3116
36.146
35.9918
35.8303
35.6656
35.5064
35.3536
35.2052
35.0607
34.9198
34.7822
34.647
34.5137
34.3819
34.2512
34.1213
33.9921
33.8642
36.5829
36.4863
36.3121
36.1466
35.9925
35.8302
35.665
35.5058
35.353
35.2047
35.0602
34.9194
34.7818
34.6466
34.5134
34.3816
34.2509
34.1211
33.9921
33.8646
36.5973
36.4928
36.3125
36.1473
35.9933
35.83
35.6643
35.5051
35.3523
35.204
35.0596
34.9189
34.7814
34.6463
34.513
34.3813
34.2507
34.1209
33.9921
33.8649
36.6136
36.4998
36.3129
36.1481
35.9942
35.8297
35.6636
35.5043
35.3516
35.2033
35.059
34.9184
34.7809
34.6459
34.5127
34.381
34.2504
34.1207
33.9921
33.8652
36.6322
36.5072
36.313
36.1491
35.9951
35.8294
35.6627
35.5035
35.3508
35.2025
35.0583
34.9178
34.7804
34.6455
34.5124
34.3807
34.2501
34.1206
33.9921
33.8654
36.6531
36.5148
36.3129
36.1502
35.9961
35.829
35.6618
35.5026
35.3499
35.2017
35.0576
34.9172
34.7799
34.6451
34.512
34.3804
34.2499
34.1204
33.9921
33.8656
36.6767
36.5223
36.3123
36.1516
35.9972
35.8286
35.6609
35.5017
35.349
35.2009
35.0569
34.9166
34.7795
34.6447
34.5117
34.3802
34.2497
34.1203
33.9921
33.8657
36.7036
36.5298
36.3107
36.1529
35.9983
35.8283
35.66
35.5008
35.3482
35.2001
35.0562
34.9161
34.7791
34.6444
34.5115
34.3799
34.2495
34.1201
33.9921
33.8659
36.7342
36.5396
36.3089
36.1536
35.9992
35.8279
35.6592
35.4999
35.3473
35.1993
35.0555
34.9155
34.7786
34.644
34.5111
34.3797
34.2493
34.1199
33.9919
33.8659
36.7649
36.5549
36.3124
36.1556
35.9996
35.8271
35.658
35.4987
35.3462
35.1983
35.0546
34.9147
34.7779
34.6434
34.5106
34.3792
34.2489
34.1196
33.9917
33.8658
36.7827
36.5683
36.3361
36.1733
36.008
35.8301
35.6587
35.4983
35.3454
35.1973
35.0536
34.9139
34.7772
34.6428
34.5102
34.3788
34.2485
34.1192
33.9913
33.8657
36.7693
36.4089
36.2549
36.1432
35.9939
35.8219
35.6537
35.4951
35.3431
35.1955
35.0522
34.9125
34.7758
34.6414
34.5087
34.3772
34.2469
34.1176
33.9897
33.8645
37.4263
36.6842
36.3332
36.1731
36.0044
35.8234
35.6514
35.4913
35.3386
35.1911
35.048
34.9088
34.7725
34.6385
34.5061
34.3749
34.2448
34.1158
33.9881
33.8631
33.6978
33.5482
33.2041
33.1089
33.2293
33.4262
33.6319
33.8048
33.9105
33.9297
33.8611
33.7167
33.5151
33.2768
33.0212
32.7649
32.5207
32.2979
32.1018
31.9353
31.7994
31.6933
31.6151
31.5623
31.532
31.5211
31.5262
31.5446
31.5732
31.6096
31.6517
31.6973
31.7452
31.7939
31.8427
31.8911
31.9387
31.9857
32.0325
32.0796
32.128
32.1788
32.2331
32.2926
32.3589
32.4337
32.5189
32.6166
32.7288
32.8576
33.0052
33.1736
33.365
33.5815
33.825
34.0973
34.4003
34.7353
35.1037
35.5065
35.9444
36.4176
36.9259
37.4685
38.0439
38.6498
39.2828
39.9384
40.6106
41.292
41.9736
42.6451
43.2952
43.9124
44.4853
45.004
45.4597
45.845
46.1542
46.3824
46.5264
46.5846
46.5569
46.4445
46.2494
45.9749
45.6267
45.2151
44.7551
44.2669
43.7743
43.3026
42.8772
42.5219
42.2585
42.1064
42.0822
42.2002
42.4715
42.9013
43.4905
44.2284
45.0963
46.066
47.1023
48.1678
49.2269
50.2496
51.213
52.1021
52.9085
53.6295
54.2665
54.8236
55.3067
55.7225
56.0779
56.3801
56.6356
56.8506
57.0307
57.1809
57.3056
57.4087
57.4936
57.563
57.6196
57.6654
57.7022
57.7314
57.7545
57.7724
57.786
57.7961
57.8034
57.8082
57.8112
57.8125
57.8125
57.8115
57.8096
57.807
57.8039
57.8002
57.7961
57.7917
57.7869
57.7818
57.7764
57.7707
57.7646
57.7581
57.7512
57.7437
57.7356
57.7269
57.7173
57.7068
57.6952
57.6822
57.6678
57.6516
57.6334
57.6129
57.5897
57.5634
57.5335
57.4995
57.4609
57.4169
57.3667
57.3097
57.2448
57.1709
57.0869
56.9915
56.8833
56.7604
56.6212
56.4635
56.285
56.0828
55.8538
55.5942
55.2995
54.9641
54.5811
54.1418
53.6346
53.0441
52.3495
51.5205
50.5156
49.2636
47.6787
45.5146
42.6425
37.5223
30.959
5.4994
33.584
33.3798
33.2143
33.2314
33.3728
33.5659
33.7554
33.9068
33.9927
33.9969
33.9196
33.7727
33.5733
33.3404
33.092
32.8433
32.6063
32.3899
32.1992
32.0371
31.905
31.8022
31.7267
31.6764
31.6484
31.6394
31.6465
31.6665
31.6965
31.7341
31.777
31.8233
31.8714
31.9201
31.9687
32.0166
32.0637
32.1101
32.1563
32.2029
32.251
32.3016
32.3561
32.4161
32.4833
32.5595
32.6467
32.7468
32.862
32.9943
33.1459
33.319
33.5156
33.7378
33.9874
34.2664
34.5762
34.9184
35.2941
35.7043
36.1494
36.6296
37.1444
37.6928
38.2731
38.8824
39.517
40.1719
40.8404
41.5145
42.1846
42.8402
43.4699
44.0626
44.6077
45.0958
45.5188
45.8697
46.1425
46.3324
46.4359
46.4512
46.3775
46.2152
45.9652
45.6306
45.2183
44.7407
44.2162
43.6678
43.1214
42.6036
42.1395
41.7527
41.4641
41.2925
41.2546
41.3646
41.6349
42.073
42.6828
43.4557
44.3743
45.4093
46.5225
47.6717
48.8157
49.9196
50.9569
51.9104
52.7711
53.5367
54.2095
54.7947
55.2994
55.7314
56.0989
56.4096
56.671
56.8898
57.072
57.223
57.3476
57.4499
57.5334
57.6011
57.6557
57.6993
57.7338
57.7608
57.7816
57.7972
57.8086
57.8165
57.8216
57.8243
57.8252
57.8246
57.8227
57.8198
57.8161
57.8117
57.8067
57.8013
57.7954
57.7892
57.7826
57.7756
57.7683
57.7606
57.7525
57.7439
57.7348
57.725
57.7145
57.7031
57.6908
57.6773
57.6625
57.6462
57.6282
57.6081
57.5858
57.5608
57.5327
57.5012
57.4657
57.4256
57.3804
57.3294
57.2717
57.2065
57.1327
57.0493
56.9549
56.8483
56.7278
56.5917
56.4379
56.2643
56.0681
55.8463
55.5955
55.3113
54.9886
54.6212
54.201
53.718
53.1587
52.5051
51.7326
50.8051
49.6729
48.2503
46.4329
43.9215
40.5548
34.4564
26.2894
1.45878
33.6021
33.4648
33.3663
33.3503
33.4404
33.5917
33.7538
33.8923
33.9801
33.9969
33.9371
33.8082
33.6237
33.4019
33.1615
32.9193
32.688
32.4772
32.2918
32.1343
32.0061
31.9065
31.8335
31.7852
31.7591
31.7519
31.7607
31.7824
31.8142
31.8534
31.8978
31.9454
31.9946
32.0444
32.0937
32.1422
32.1898
32.2366
32.2832
32.3304
32.379
32.4305
32.4862
32.5477
32.6168
32.6953
32.7853
32.8888
33.008
33.1448
33.3016
33.4804
33.6832
33.9121
34.169
34.4555
34.7733
35.1237
35.5077
35.9261
36.3793
36.8672
37.3891
37.9437
38.5289
39.1416
39.7773
40.4304
41.0937
41.7586
42.4151
43.0526
43.66
44.2268
44.7433
45.2008
45.5915
45.9084
46.1454
46.2974
46.3605
46.3325
46.2117
45.9974
45.6896
45.2922
44.814
44.2708
43.6842
43.0798
42.485
41.9261
41.428
41.013
40.7013
40.511
40.4585
40.5583
40.8234
41.2641
41.8868
42.6863
43.6476
44.7418
45.9284
47.1604
48.3908
49.5789
50.6935
51.7148
52.6327
53.4449
54.1548
54.7689
55.2955
55.744
56.1234
56.4425
56.7094
56.9316
57.1156
57.2672
57.3914
57.4926
57.5745
57.6403
57.6928
57.7341
57.7662
57.7908
57.8092
57.8224
57.8315
57.8371
57.84
57.8406
57.8395
57.8368
57.833
57.8282
57.8226
57.8164
57.8096
57.8024
57.7947
57.7867
57.7783
57.7695
57.7603
57.7507
57.7405
57.7298
57.7185
57.7064
57.6935
57.6795
57.6644
57.648
57.6301
57.6105
57.5888
57.5649
57.5384
57.5089
57.476
57.4393
57.3983
57.3522
57.3006
57.2425
57.1773
57.1039
57.0213
56.9284
56.8237
56.7059
56.5732
56.4238
56.2555
56.0659
55.852
55.6107
55.3379
55.029
54.6783
54.2787
53.8213
53.2946
52.6833
51.967
51.1173
50.0931
48.8369
47.2502
45.2124
42.3857
38.5801
31.8974
22.7793
1.86174
33.6272
33.5062
33.4132
33.3868
33.4607
33.5882
33.7261
33.8429
33.9159
33.9307
33.882
33.773
33.6152
33.4224
33.2091
32.9886
32.7727
32.5702
32.3889
32.2338
32.1066
32.0079
31.9359
31.8889
31.864
31.858
31.8681
31.8913
31.9247
31.9657
32.012
32.0615
32.1127
32.1644
32.2155
32.2658
32.3151
32.3636
32.4118
32.4607
32.5112
32.5647
32.6227
32.6868
32.759
32.841
32.935
33.0431
33.1673
33.3098
33.4728
33.6584
33.8686
34.1054
34.3706
34.6658
34.9926
35.3521
35.7454
36.1729
36.6349
37.1311
37.6606
38.2216
38.8116
39.427
40.0627
40.7125
41.3685
42.0218
42.6622
43.2793
43.8628
44.4031
44.891
45.3184
45.6775
45.9612
46.1631
46.2776
46.3007
46.2291
46.06
45.7915
45.4238
44.9622
44.4187
43.8127
43.1687
42.5143
41.8769
41.2824
40.7545
40.3142
39.9809
39.7724
39.7045
39.7921
40.0489
40.4871
41.1157
41.9333
42.9284
44.0737
45.3277
46.6396
47.956
49.2298
50.4244
51.5162
52.4938
53.3546
54.1029
54.7466
55.2956
55.7604
56.1515
56.4787
56.7509
56.9762
57.1617
57.3135
57.437
57.5369
57.617
57.6807
57.7308
57.7697
57.7993
57.8214
57.8373
57.848
57.8547
57.8581
57.8587
57.8572
57.8539
57.8492
57.8434
57.8367
57.8292
57.8212
57.8126
57.8036
57.7941
57.7843
57.7741
57.7634
57.7524
57.7408
57.7286
57.7158
57.7023
57.6879
57.6726
57.656
57.6382
57.6189
57.5979
57.5749
57.5497
57.522
57.4914
57.4574
57.4198
57.378
57.3314
57.2794
57.2213
57.1563
57.0836
57.0021
56.9108
56.8084
56.6935
56.5645
56.4197
56.257
56.0742
55.8686
55.6372
55.3763
55.0816
54.7481
54.3694
53.9377
53.4432
52.873
52.2103
51.432
50.5068
49.3887
48.0138
46.2732
44.0329
40.9376
36.7685
29.8417
20.1597
1.91405
33.6474
33.539
33.4627
33.4468
33.5031
33.6041
33.7141
33.806
33.8608
33.8666
33.8175
33.7162
33.5725
33.3987
33.2071
33.0096
32.8161
32.634
32.4697
32.3271
32.2077
32.112
32.0408
31.9928
31.9666
31.9596
31.9694
31.993
32.0275
32.07
32.1183
32.1701
32.2239
32.2783
32.3323
32.3856
32.4378
32.4893
32.5406
32.5926
32.6464
32.7033
32.765
32.8332
32.9097
32.9965
33.0958
33.2097
33.3402
33.4897
33.6602
33.8538
34.0726
34.3185
34.5931
34.8982
35.235
35.6047
36.0081
36.4455
36.917
37.422
37.9591
38.5262
39.1204
39.7372
40.3713
41.0155
41.6616
42.3005
42.9223
43.5173
44.0761
44.5897
45.0497
45.4479
45.7766
46.0282
46.1959
46.2738
46.2571
46.1415
45.9229
45.5986
45.1699
44.6447
44.0387
43.3748
42.6798
41.9817
41.3075
40.6818
40.1271
39.6636
39.3098
39.083
38.9991
39.0732
39.3195
39.7513
40.3801
41.2081
42.2279
43.4153
44.7293
46.1159
47.5161
48.8756
50.1516
51.3162
52.3554
53.2665
54.0544
54.7283
55.2999
55.7811
56.1837
56.5186
56.7957
57.0237
57.2102
57.3619
57.4845
57.5827
57.6608
57.7222
57.7698
57.8061
57.8331
57.8525
57.8658
57.8741
57.8783
57.8793
57.8776
57.8739
57.8685
57.8618
57.854
57.8453
57.836
57.826
57.8156
57.8048
57.7936
57.782
57.7699
57.7574
57.7445
57.731
57.7168
57.702
57.6863
57.6696
57.6518
57.6328
57.6122
57.59
57.566
57.5397
57.5109
57.4794
57.4447
57.4064
57.3641
57.3172
57.2651
57.2072
57.1427
57.0709
56.9907
56.9013
56.8013
56.6895
56.5644
56.4243
56.2675
56.0917
55.8944
55.6729
55.4239
55.1435
54.827
54.4689
54.0624
53.5989
53.0676
52.4545
51.7411
50.9025
49.9041
48.6962
47.2093
45.3276
42.9067
39.5927
35.1331
28.1267
18.1134
1.5886
33.6644
33.5694
33.5066
33.4926
33.5322
33.6093
33.6958
33.768
33.8093
33.8086
33.7606
33.6672
33.5361
33.3773
33.2017
33.0198
32.8408
32.6722
32.52
32.3884
32.2788
32.1923
32.1287
32.0866
32.064
32.0584
32.0684
32.0914
32.1254
32.1681
32.2174
32.2712
32.3276
32.3852
32.4429
32.5001
32.5566
32.6124
32.6683
32.7249
32.7835
32.8455
32.9124
32.9861
33.0685
33.1617
33.2677
33.3888
33.5272
33.6849
33.8643
34.0673
34.2959
34.552
34.8374
35.1534
35.5013
35.8821
36.2964
36.7444
37.2257
37.7395
38.2839
38.8564
39.4534
40.0699
40.6997
41.3354
41.9687
42.5905
43.1919
43.7639
44.298
44.7857
45.2188
45.5891
45.8886
46.1094
46.2441
46.2863
46.2303
46.0703
45.8012
45.4203
44.9311
44.3449
43.6813
42.9657
42.2261
41.4902
40.7838
40.1302
39.5508
39.065
38.691
38.4459
38.3456
38.4053
38.6397
39.0628
39.6875
40.5197
41.5561
42.7766
44.142
45.5967
47.0765
48.5202
49.8779
51.1165
52.2189
53.1816
54.0099
54.7146
55.3089
55.8063
56.2201
56.5624
56.8439
57.0742
57.2614
57.4126
57.5338
57.6302
57.706
57.7648
57.8097
57.8433
57.8675
57.8842
57.8948
57.9005
57.9022
57.9007
57.8968
57.8908
57.8832
57.8744
57.8646
57.854
57.8428
57.831
57.8188
57.8061
57.7931
57.7797
57.7659
57.7516
57.7367
57.7213
57.7052
57.6882
57.6704
57.6514
57.6313
57.6097
57.5865
57.5614
57.5343
57.5048
57.4725
57.4373
57.3985
57.3559
57.3089
57.257
57.1995
57.1358
57.065
56.9864
56.8989
56.8015
56.6929
56.5718
56.4366
56.2856
56.1168
55.9279
55.7163
55.479
55.2126
54.9128
54.5746
54.1922
53.7581
53.2631
52.6955
52.0403
51.2776
50.3804
49.3119
48.0191
46.4286
44.4201
41.8423
38.3561
33.675
26.6748
16.5762
1.67044
33.6796
33.5964
33.5424
33.5282
33.556
33.6146
33.6821
33.7379
33.7672
33.7604
33.713
33.6259
33.5052
33.3597
33.1987
33.0315
32.8664
32.7102
32.5684
32.4447
32.3412
32.2589
32.1984
32.1586
32.1382
32.1362
32.1495
32.1761
32.2133
32.2588
32.3104
32.3664
32.4254
32.4861
32.5477
32.6094
32.6709
32.7323
32.794
32.8568
32.9218
32.9905
33.0643
33.1453
33.2352
33.3363
33.4507
33.5806
33.7283
33.8958
34.0854
34.2992
34.539
34.8067
35.1038
35.4319
35.7918
36.1845
36.6104
37.0692
37.5603
38.0825
38.6334
39.2098
39.8075
40.4209
41.0434
41.6674
42.285
42.8879
43.468
44.0171
44.5272
44.9902
45.3979
45.7418
46.0137
46.2051
46.3081
46.3157
46.2208
46.0162
45.6961
45.2592
44.7116
44.0688
43.3535
42.5928
41.8145
41.0454
40.3099
39.6303
39.027
38.5193
38.1251
37.8616
37.7447
37.7897
38.0116
38.4245
39.0427
39.8745
40.9209
42.1662
43.5744
45.0895
46.6435
48.1682
49.6065
50.9193
52.0857
53.1008
53.9702
54.706
55.3229
55.8363
56.261
56.6101
56.8956
57.1277
57.3151
57.4655
57.585
57.6792
57.7524
57.8085
57.8505
57.8812
57.9025
57.9164
57.9242
57.9272
57.9264
57.9224
57.9161
57.9078
57.8981
57.8872
57.8753
57.8628
57.8496
57.836
57.822
57.8075
57.7927
57.7775
57.7619
57.7458
57.7291
57.7117
57.6936
57.6747
57.6547
57.6335
57.611
57.5869
57.561
57.5332
57.503
57.4702
57.4346
57.3956
57.3529
57.306
57.2544
57.1975
57.1347
57.0652
56.9882
56.9028
56.8081
56.7028
56.5858
56.4555
56.3103
56.1484
55.9678
55.7659
55.5402
55.2873
55.0036
54.6846
54.325
53.9185
53.4572
52.9312
52.3281
51.6319
50.8213
49.8678
48.7328
47.3608
45.6756
43.5558
40.8455
37.2292
32.3948
25.4738
15.5087
2.16362
33.6932
33.6197
33.5719
33.5571
33.5754
33.6187
33.6698
33.7113
33.7302
33.7181
33.671
33.5893
33.478
33.3443
33.1965
33.0428
32.8904
32.7459
32.6142
32.4987
32.4019
32.3246
32.2674
32.2296
32.2101
32.2078
32.2205
32.2468
32.2845
32.3318
32.3867
32.4473
32.5116
32.5781
32.6455
32.7133
32.7811
32.8491
32.9179
32.9881
33.061
33.1379
33.2203
33.3102
33.4094
33.5202
33.6446
33.785
33.9435
34.1224
34.3237
34.5496
34.802
35.0824
35.3925
35.7335
36.1063
36.5115
36.949
37.4186
37.9191
38.4485
39.0042
39.5822
40.1777
40.7847
41.3966
42.0063
42.6064
43.1897
43.7487
44.2757
44.7631
45.2029
45.5867
45.906
46.1519
46.3156
46.3885
46.3626
46.2293
45.9801
45.6094
45.1181
44.5161
43.8223
43.0615
42.2614
41.449
40.6497
39.8869
39.182
38.5551
38.0254
37.6109
37.3288
37.1953
37.2257
37.4351
37.8377
38.448
39.2767
40.3281
41.5914
43.0342
44.6018
46.2233
47.8246
49.3411
50.7272
51.9576
53.0254
53.9361
54.703
55.3424
55.8715
56.3065
56.662
56.9509
57.1843
57.3715
57.5205
57.6381
57.7297
57.8001
57.8532
57.8922
57.9198
57.9381
57.949
57.954
57.9543
57.9508
57.9443
57.9356
57.925
57.913
57.9
57.8861
57.8716
57.8566
57.8411
57.8252
57.809
57.7924
57.7754
57.758
57.7401
57.7215
57.7023
57.6822
57.6612
57.6391
57.6157
57.5909
57.5643
57.5359
57.5052
57.4721
57.4361
57.3971
57.3544
57.3078
57.2567
57.2006
57.1388
57.0707
56.9955
56.9124
56.8204
56.7185
56.6055
56.4801
56.3407
56.1857
56.0131
55.8207
55.6061
55.3663
55.098
54.7972
54.4592
54.0785
53.6483
53.1603
52.604
51.9663
51.2302
50.3736
49.3666
48.169
46.7241
44.9538
42.738
39.9196
36.2112
31.288
24.504
14.8212
2.79862
33.7054
33.6397
33.5964
33.5805
33.5911
33.6217
33.6589
33.6882
33.6982
33.6817
33.6349
33.558
33.4549
33.3318
33.1958
33.0541
32.9135
32.7796
32.6572
32.5496
32.4591
32.3868
32.3333
32.298
32.2803
32.2788
32.292
32.3183
32.3559
32.4031
32.4583
32.5198
32.5863
32.6566
32.7298
32.805
32.8814
32.9588
33.0373
33.1174
33.2002
33.2872
33.38
33.4805
33.5908
33.7129
33.849
34.0015
34.1725
34.3642
34.5788
34.8183
35.0843
35.3787
35.7027
36.0574
36.4435
36.8612
37.3103
37.7899
38.2984
38.8333
39.3911
39.9676
40.5574
41.1549
41.7538
42.3477
42.9301
43.4941
44.0329
44.5391
45.0052
45.4234
45.7852
46.0817
46.3035
46.4412
46.4857
46.4275
46.2563
45.9631
45.5433
45.0008
44.3491
43.61
42.8094
41.9744
41.131
40.3033
39.5137
38.7835
38.1327
37.5808
37.1459
36.8455
36.6957
36.712
36.9095
37.302
37.9043
38.7284
39.7817
41.0574
42.5277
44.14
45.822
47.4944
49.0856
50.543
51.8366
52.9567
53.9086
54.7063
55.3679
55.9121
56.3569
56.7182
57.01
57.2441
57.4306
57.5778
57.693
57.7817
57.8491
57.8989
57.9347
57.959
57.9742
57.9821
57.9841
57.9816
57.9754
57.9664
57.9552
57.9423
57.9281
57.9129
57.897
57.8805
57.8636
57.8462
57.8285
57.8105
57.7922
57.7734
57.7542
57.7345
57.7141
57.693
57.671
57.648
57.6238
57.5982
57.5711
57.5421
57.511
57.4776
57.4416
57.4025
57.3601
57.3139
57.2634
57.2081
57.1475
57.0809
57.0076
56.9268
56.8377
56.7392
56.6303
56.5097
56.376
56.2276
56.0629
55.8797
55.6758
55.4485
55.1949
54.9114
54.5938
54.2372
53.8357
53.3823
52.8681
52.2822
51.6109
50.8365
49.9358
48.8783
47.6225
46.1111
44.2657
41.969
39.066
35.2988
30.3429
23.7319
14.4243
3.46194
33.7162
33.6569
33.6169
33.5996
33.6037
33.6237
33.6492
33.6681
33.6707
33.6503
33.6038
33.531
33.4352
33.3215
33.1961
33.0655
32.9355
32.8116
32.6979
32.5977
32.5133
32.4459
32.3959
32.3634
32.3475
32.3473
32.3614
32.3883
32.4266
32.4747
32.5309
32.594
32.6627
32.7358
32.8125
32.8923
32.9747
33.0598
33.1477
33.2388
33.3338
33.4336
33.5396
33.6534
33.777
33.9126
34.0625
34.2289
34.414
34.6202
34.8494
35.1036
35.3846
35.6937
36.0323
36.401
36.8004
37.2304
37.6901
38.1782
38.6925
39.23
39.7868
40.3586
40.9402
41.5264
42.1114
42.6895
43.2546
43.8002
44.3199
44.8066
45.2531
45.6515
45.9932
46.2688
46.4684
46.5822
46.6001
46.5108
46.3027
45.9666
45.5
44.9102
44.2141
43.435
42.5991
41.7324
40.8597
40.0042
39.1879
38.432
37.757
37.1825
36.7273
36.409
36.2436
36.2466
36.4331
36.8164
37.4113
38.2308
39.2841
40.5685
42.0603
43.7101
45.4453
47.1827
48.844
50.3698
51.7247
52.8962
53.8886
54.7165
55.3996
55.9584
56.4123
56.7787
57.0727
57.307
57.4923
57.6374
57.7497
57.8353
57.8992
57.9456
57.9779
57.9989
58.0108
58.0155
58.0145
58.0091
58.0002
57.9886
57.9749
57.9596
57.9432
57.9259
57.9079
57.8895
57.8706
57.8514
57.8319
57.8121
57.792
57.7715
57.7505
57.729
57.7068
57.6839
57.66
57.635
57.6087
57.581
57.5516
57.5202
57.4866
57.4505
57.4115
57.3694
57.3237
57.2739
57.2196
57.1603
57.0953
57.0239
56.9456
56.8593
56.7642
56.6593
56.5435
56.4154
56.2736
56.1164
55.9421
55.7485
55.5332
55.2936
55.0263
54.7278
54.3937
54.0188
53.597
53.1209
52.5812
51.9667
51.263
50.4517
49.5093
48.4043
47.0949
45.5237
43.613
41.2499
38.2841
34.4867
29.5447
23.1271
14.2522
4.15888
33.7258
33.6716
33.6339
33.6151
33.6136
33.6249
33.6406
33.6508
33.647
33.6234
33.5771
33.508
33.4185
33.3133
33.1975
33.0768
32.9567
32.8419
32.7364
32.6433
32.5647
32.502
32.4557
32.4259
32.412
32.4132
32.4284
32.4563
32.4955
32.5447
32.6024
32.6676
32.7389
32.8154
32.8965
32.9815
33.0701
33.1623
33.2584
33.3588
33.4644
33.5762
33.6955
33.8237
33.9626
34.1141
34.28
34.4626
34.664
34.8864
35.1318
35.4021
35.6989
36.0235
36.377
36.7597
37.1718
37.6127
38.0813
38.5756
39.0931
39.6305
40.184
40.7492
41.3216
41.8961
42.4675
43.0304
43.5789
44.1072
44.6091
45.0779
45.5065
45.887
46.2106
46.4673
46.647
46.7392
46.7322
46.6131
46.369
45.9917
45.4814
44.8489
44.1132
43.2986
42.4306
41.5341
40.6328
39.7494
38.9059
38.1239
37.4245
36.8277
36.3525
36.0168
35.8367
35.8276
36.0043
36.3798
36.9684
37.7838
38.8366
40.1271
41.6359
43.3169
45.0985
46.8942
48.6203
50.2107
51.6244
52.8454
53.877
54.7343
55.4381
56.0106
56.4729
56.8437
57.1393
57.3731
57.5566
57.699
57.8081
57.8902
57.9505
57.9932
58.0219
58.0393
58.0478
58.0493
58.0452
58.0368
58.0251
58.0108
57.9947
57.977
57.9584
57.9389
57.9189
57.8984
57.8777
57.8566
57.8353
57.8137
57.7919
57.7696
57.7469
57.7236
57.6997
57.6749
57.6491
57.6222
57.5939
57.564
57.5324
57.4986
57.4625
57.4238
57.382
57.3368
57.2879
57.2346
57.1766
57.1133
57.044
56.968
56.8846
56.793
56.6921
56.5809
56.4582
56.3228
56.173
56.0072
55.8235
55.6197
55.3932
55.1414
54.8608
54.5476
54.1973
53.8046
53.3629
52.8646
52.3003
51.658
50.9231
50.0769
49.0951
47.9459
46.5876
44.9633
42.9968
40.581
37.572
33.7686
28.8778
22.6668
14.2552
4.90267
33.7343
33.6842
33.6482
33.6278
33.6216
33.6255
33.633
33.6358
33.6265
33.6002
33.5542
33.4883
33.4046
33.3068
33.1997
33.0881
32.977
32.8707
32.7728
32.6864
32.6135
32.5553
32.5127
32.4856
32.4739
32.4767
32.4932
32.5222
32.5626
32.6131
32.6726
32.7399
32.814
32.8942
32.9797
33.0701
33.1653
33.2651
33.3699
33.4802
33.5968
33.7205
33.8528
33.995
34.1487
34.3158
34.4983
34.6979
34.9167
35.1567
35.4195
35.707
36.0204
36.3609
36.7291
37.1252
37.5489
37.9994
38.475
38.9737
39.4926
40.0286
40.5779
41.1363
41.6995
42.2628
42.8211
43.3694
43.9024
44.4145
44.9001
45.3526
45.7653
46.1299
46.4372
46.6772
46.8394
46.9123
46.8822
46.7344
46.4556
46.0394
45.489
44.8179
44.0469
43.2001
42.3021
41.3767
40.447
39.5354
38.6644
37.8561
37.1322
36.5133
36.0188
35.6667
35.473
35.453
35.6214
35.9905
36.5745
37.3869
38.4394
39.7348
41.2573
42.9644
44.7857
46.6333
48.4183
50.0686
51.5377
52.8059
53.8751
54.7604
55.4838
56.069
56.5388
56.9132
57.2096
57.4424
57.6235
57.7628
57.8683
57.9465
58.0029
58.0417
58.0665
58.0803
58.0852
58.0833
58.0761
58.0647
58.0501
58.0332
58.0145
57.9945
57.9735
57.9519
57.9298
57.9074
57.8847
57.8619
57.8388
57.8154
57.7918
57.7678
57.7434
57.7184
57.6927
57.6661
57.6385
57.6096
57.5793
57.5474
57.5135
57.4775
57.4389
57.3975
57.353
57.3049
57.2527
57.1961
57.1344
57.0671
56.9936
56.9131
56.8248
56.7279
56.6213
56.504
56.3746
56.232
56.0744
55.9001
55.7072
55.4934
55.256
54.9923
54.6986
54.3711
54.0049
53.5947
53.1338
52.614
52.0257
51.3568
50.5922
49.7128
48.694
47.5042
46.1016
44.4308
42.4177
39.9615
36.9269
33.1375
28.3266
22.3312
14.3911
5.68837
33.7417
33.6949
33.6601
33.6382
33.6278
33.6257
33.6263
33.6228
33.6089
33.5803
33.5346
33.4716
33.393
33.302
33.2027
33.0994
32.9965
32.898
32.8074
32.7272
32.6597
32.606
32.5669
32.5427
32.5332
32.5378
32.5558
32.5861
32.6279
32.6799
32.7413
32.8109
32.888
32.9719
33.0619
33.1578
33.2594
33.3668
33.4803
33.6004
33.728
33.8639
34.0094
34.1659
34.3349
34.518
34.717
34.9337
35.17
35.4275
35.7078
36.0123
36.3422
36.6982
37.0806
37.4894
37.9239
38.383
38.8648
39.3671
39.8871
40.4215
40.9666
41.5185
42.0729
42.6253
43.1712
43.7059
44.2245
44.7219
45.1928
45.631
46.0294
46.3799
46.6731
46.8988
47.046
47.1016
47.0499
46.8744
46.5625
46.1098
45.5227
44.8169
44.014
43.1374
42.2106
41.2567
40.2984
39.3584
38.4598
37.6253
36.8774
36.2371
35.7242
35.3567
35.1507
35.1213
35.2829
35.6474
36.2284
37.0394
38.0927
39.3926
40.9266
42.6555
44.5109
46.4037
48.2415
49.9464
51.4668
52.7793
53.8837
54.7953
55.5369
56.1338
56.6101
56.9873
57.2837
57.5148
57.693
57.8286
57.9301
58.0041
58.0563
58.091
58.1118
58.1217
58.123
58.1176
58.1071
58.0927
58.0752
58.0556
58.0343
58.0119
57.9887
57.9649
57.9408
57.9164
57.8918
57.8671
57.8422
57.8172
57.7918
57.7662
57.74
57.7133
57.6858
57.6575
57.628
57.5973
57.565
57.531
57.495
57.4567
57.4157
57.3718
57.3245
57.2735
57.2183
57.1583
57.0931
57.022
56.9443
56.8594
56.7663
56.6642
56.552
56.4287
56.2928
56.1431
55.9779
55.7953
55.5934
55.3698
55.1218
54.8464
54.5399
54.1984
53.8169
53.3897
52.91
52.3695
51.7582
51.0638
50.2708
49.3601
48.307
47.0799
45.6377
43.9266
41.8755
39.3902
36.3452
32.5863
27.8764
22.1015
14.6247
6.50346
33.7483
33.7041
33.67
33.6467
33.6328
33.6255
33.6203
33.6115
33.5937
33.5632
33.5179
33.4576
33.3836
33.2986
33.2063
33.1106
33.0153
32.924
32.8401
32.7659
32.7035
32.6541
32.6186
32.5973
32.5901
32.5966
32.6162
32.6481
32.6913
32.7451
32.8085
32.8806
32.9608
33.0484
33.143
33.2443
33.3523
33.4672
33.5892
33.719
33.8573
34.0051
34.1637
34.3342
34.5181
34.7171
34.9326
35.1664
35.42
35.6949
35.9925
36.3138
36.6598
37.0309
37.4272
37.8482
38.293
38.7603
39.2481
39.7539
40.2749
40.8078
41.349
41.8946
42.4407
42.983
43.5175
44.0398
44.5454
45.0296
45.4874
45.9127
46.2986
46.6368
46.9181
47.1321
47.2668
47.3069
47.2346
47.0323
46.6887
46.202
45.5815
44.8443
44.012
43.1072
42.1524
41.1702
40.1833
39.215
38.2891
37.429
36.6577
35.997
35.4668
35.0853
34.8684
34.8312
34.9877
35.3493
35.9291
36.7405
37.7958
39.1008
40.645
42.3924
44.2767
46.2087
48.0929
49.8468
51.4138
52.7668
53.9038
54.8396
55.5978
56.205
56.6867
57.0657
57.3615
57.5901
57.7648
57.8964
57.9934
58.063
58.1106
58.1409
58.1575
58.1634
58.161
58.1521
58.1383
58.1207
58.1004
58.078
58.0542
58.0293
58.0038
57.9779
57.9517
57.9253
57.8989
57.8724
57.8457
57.8189
57.7919
57.7645
57.7367
57.7083
57.6791
57.649
57.6178
57.5852
57.551
57.515
57.4769
57.4364
57.3931
57.3466
57.2967
57.2429
57.1846
57.1214
57.0526
56.9778
56.8961
56.8068
56.7091
56.6019
56.4843
56.3551
56.2129
56.0563
55.8836
55.693
55.4823
55.2491
54.9907
54.7039
54.3851
54.0299
53.6335
53.1898
52.692
52.1315
51.4981
50.7793
49.9596
49.0195
47.9346
46.6736
45.1964
43.451
41.3698
38.8655
35.8229
32.1077
27.5134
21.9602
14.928
7.3343
33.754
33.7119
33.6783
33.6536
33.6367
33.6251
33.615
33.6017
33.5807
33.5487
33.5038
33.4458
33.3759
33.2965
33.2105
33.1216
33.0333
32.9488
32.8711
32.8025
32.745
32.6998
32.6678
32.6494
32.6446
32.6531
32.6745
32.708
32.753
32.8086
32.8741
32.9489
33.0322
33.1236
33.2228
33.3296
33.4439
33.5661
33.6965
33.8357
33.9846
34.144
34.3152
34.4993
34.6978
34.9122
35.1438
35.3942
35.6647
35.9566
36.2711
36.6089
36.9707
37.3566
37.7663
38.1993
38.6543
39.1297
39.6234
40.1328
40.655
41.1867
41.7244
42.2645
42.8031
43.3364
43.8605
44.3715
44.8654
45.3377
45.7838
46.1978
46.5727
46.9005
47.1722
47.3771
47.5013
47.5272
47.4346
47.2062
46.8323
46.3141
45.6631
44.8972
44.0375
43.1057
42.1235
41.1134
40.0983