/*--------------------------------*- C++ -*----------------------------------*\
| =========                 |                                                 |
| \\      /  F ield         | OpenFOAM: The Open Source CFD Toolbox           |
|  \\    /   O peration     | Version:  2.4.0                                 |
|   \\  /    A nd           | Web:      www.OpenFOAM.org                      |
|    \\/     M anipulation  |                                                 |
\*---------------------------------------------------------------------------*/
FoamFile
{
    version     2.0;
    format      ascii;
    class       volVectorField;
    location    "0.118";
    object      U_0;
}
// * * * * * * * * * * * * * * * * * * * * * * * * * * * * * * * * * * * * * //

dimensions      [0 1 -1 0 0 0 0];

internalField   nonuniform List<vector> 
4400
(
(5.40557 0.316717 0)
(3.31292 0.0607594 0)
(2.58609 0.00135845 0)
(2.23086 -0.00199445 0)
(2.08508 -0.00154943 0)
(1.98774 -0.00051785 0)
(1.95742 -0.000237127 0)
(1.89393 0.000162418 0)
(1.87289 0.00277119 0)
(1.66663 -0.0650618 0)
(8.69217 0.85734 0)
(7.53029 0.344876 0)
(6.63813 0.115824 0)
(5.9024 0.055396 0)
(5.5341 0.0270383 0)
(5.24617 0.0156221 0)
(5.16679 0.0110246 0)
(4.97861 0.00850916 0)
(4.96817 0.0262244 0)
(4.6579 -0.101173 0)
(9.90494 0.937252 0)
(9.972 0.477675 0)
(9.50771 0.212123 0)
(8.73564 0.130111 0)
(8.29863 0.0763199 0)
(7.86553 0.0449827 0)
(7.78026 0.0314253 0)
(7.47594 0.0228761 0)
(7.4888 0.0448799 0)
(7.18436 -0.0855197 0)
(10.1488 0.807661 0)
(11.0873 0.499012 0)
(11.2925 0.264344 0)
(10.796 0.19679 0)
(10.4975 0.133585 0)
(10.0068 0.0824297 0)
(9.98103 0.0588339 0)
(9.60055 0.0443384 0)
(9.62007 0.0605231 0)
(9.37405 -0.065787 0)
(10.0943 0.647594 0)
(11.2893 0.438075 0)
(12.0099 0.243934 0)
(11.9119 0.2161 0)
(11.9498 0.170892 0)
(11.5447 0.115032 0)
(11.6521 0.0832181 0)
(11.2974 0.0720067 0)
(11.3276 0.0706259 0)
(11.1548 -0.0319195 0)
(10.0795 0.515268 0)
(11.2135 0.364232 0)
(12.0912 0.185529 0)
(12.1747 0.18051 0)
(12.5431 0.165009 0)
(12.3293 0.121287 0)
(12.6167 0.0893814 0)
(12.4258 0.089307 0)
(12.5185 0.0815211 0)
(12.447 -0.00448732 0)
(10.0726 0.394209 0)
(11.1692 0.294767 0)
(12.0491 0.138471 0)
(12.1667 0.13584 0)
(12.5826 0.129111 0)
(12.5296 0.1048 0)
(12.8673 0.0652544 0)
(12.8888 0.0910231 0)
(13.0935 0.0616586 0)
(13.1477 0.0618601 0)
(10.0401 0.269911 0)
(11.138 0.222881 0)
(11.9469 0.0927693 0)
(12.2482 0.101359 0)
(12.4836 0.0875166 0)
(12.5527 0.0881325 0)
(12.7986 0.032328 0)
(12.9715 0.0771086 0)
(13.2309 0.0295046 0)
(13.2906 0.0846884 0)
(10.0056 0.163401 0)
(11.1138 0.132357 0)
(11.8892 0.0513009 0)
(12.2499 0.058183 0)
(12.3905 0.066173 0)
(12.5776 0.0552991 0)
(12.7775 0.0111609 0)
(13.0001 0.0338419 0)
(13.177 0.022798 0)
(13.2171 0.0430462 0)
(10.0035 0.0479749 0)
(11.1201 0.0500118 0)
(11.8583 0.00903992 0)
(12.1679 0.0294116 0)
(12.4012 0.0221197 0)
(12.6097 0.0289578 0)
(12.8072 -0.0205057 0)
(12.9332 0.0229347 0)
(13.0937 -0.00631716 0)
(13.261 0.0141626 0)
(10.0107 -0.0601717 0)
(11.1277 -0.0402095 0)
(11.8271 -0.0169802 0)
(12.173 -0.0167741 0)
(12.4011 -0.0129479 0)
(12.6193 -0.00762058 0)
(12.8125 -0.0311932 0)
(12.9205 -0.00390037 0)
(13.1091 -0.0370484 0)
(13.2806 -0.0348966 0)
(10.0219 -0.176149 0)
(11.1248 -0.120038 0)
(11.8438 -0.0556429 0)
(12.194 -0.0530321 0)
(12.4213 -0.0549492 0)
(12.6329 -0.0404912 0)
(12.8159 -0.0522972 0)
(12.9511 -0.0238374 0)
(13.1534 -0.0657921 0)
(13.2406 -0.0608776 0)
(10.0389 -0.286384 0)
(11.1186 -0.2056 0)
(11.8936 -0.0913118 0)
(12.2223 -0.0973424 0)
(12.4698 -0.089945 0)
(12.6332 -0.0717924 0)
(12.8348 -0.071157 0)
(12.9984 -0.0511906 0)
(13.201 -0.0924782 0)
(13.1857 -0.0949623 0)
(10.0455 -0.403976 0)
(11.124 -0.278343 0)
(11.9869 -0.139007 0)
(12.2414 -0.13785 0)
(12.531 -0.125923 0)
(12.6294 -0.101144 0)
(12.861 -0.0962279 0)
(12.9383 -0.0759998 0)
(13.0953 -0.107324 0)
(12.9026 -0.107664 0)
(10.0177 -0.520083 0)
(11.2058 -0.35062 0)
(12.068 -0.192918 0)
(12.2527 -0.183065 0)
(12.4798 -0.160467 0)
(12.4437 -0.124137 0)
(12.5528 -0.108398 0)
(12.4634 -0.0870356 0)
(12.5062 -0.0986039 0)
(12.1341 -0.127099 0)
(10.0381 -0.648873 0)
(11.3158 -0.430736 0)
(12.0002 -0.250983 0)
(11.9555 -0.214995 0)
(11.8963 -0.168753 0)
(11.6392 -0.117311 0)
(11.5621 -0.0979292 0)
(11.3373 -0.0710906 0)
(11.2813 -0.0846032 0)
(10.8782 -0.103327 0)
(10.1133 -0.807986 0)
(11.1164 -0.495073 0)
(11.2818 -0.268936 0)
(10.8184 -0.195353 0)
(10.4639 -0.133077 0)
(10.0709 -0.0839729 0)
(9.89942 -0.0685107 0)
(9.62959 -0.0475304 0)
(9.55623 -0.0635701 0)
(9.15862 -0.0749572 0)
(9.88596 -0.937702 0)
(9.99381 -0.475674 0)
(9.49726 -0.2148 0)
(8.74702 -0.128866 0)
(8.28111 -0.0768458 0)
(7.90109 -0.0450961 0)
(7.72427 -0.0378803 0)
(7.48137 -0.0265941 0)
(7.42775 -0.0396154 0)
(7.0153 -0.0524352 0)
(8.68276 -0.857465 0)
(7.5425 -0.343973 0)
(6.63176 -0.116894 0)
(5.90777 -0.0547644 0)
(5.52596 -0.0276417 0)
(5.26262 -0.0151835 0)
(5.13479 -0.0144019 0)
(4.96519 -0.0108939 0)
(4.92627 -0.0177798 0)
(4.55602 -0.0249538 0)
(5.40358 -0.316849 0)
(3.31585 -0.0606777 0)
(2.58505 -0.00148961 0)
(2.23207 0.00208295 0)
(2.08205 0.0013275 0)
(1.99241 0.000929463 0)
(1.94577 -0.000394734 0)
(1.88057 -0.000420267 0)
(1.85787 -0.000697998 0)
(1.66898 0.00737193 0)
(2.66459 0.0140517 0)
(2.47911 0.182996 0)
(2.88105 0.310235 0)
(3.38153 0.476552 0)
(4.26262 0.686497 0)
(5.13793 1.11619 0)
(6.20342 0.923807 0)
(6.16867 0.281106 0)
(7.4601 -0.306294 0)
(6.87047 -1.13655 0)
(7.66249 -2.10646 0)
(8.79194 -2.99483 0)
(7.97923 -3.97451 0)
(8.8205 -4.05751 0)
(7.92415 -3.91749 0)
(6.88969 -2.93641 0)
(7.04103 -2.65983 0)
(4.6906 -1.82206 0)
(4.15025 1.33869 0)
(5.748 3.55077 0)
(6.24768 4.00575 0)
(7.31387 4.40642 0)
(7.40689 3.2969 0)
(7.8939 2.56665 0)
(7.59949 2.10214 0)
(9.31158 0.354843 0)
(9.08872 -1.03396 0)
(9.95718 -2.56977 0)
(11.249 -4.72267 0)
(12.5557 -6.53067 0)
(12.977 -8.01191 0)
(14.1192 -8.82972 0)
(13.3923 -8.91183 0)
(14.1294 -8.38389 0)
(12.6821 -7.6252 0)
(11.9783 -6.27697 0)
(11.5848 -5.0924 0)
(10.0101 -3.79501 0)
(11.0435 -2.88224 0)
(9.54293 -1.57522 0)
(10.9211 -0.584189 0)
(9.87755 0.467395 0)
(10.7895 1.15934 0)
(9.65655 2.20203 0)
(10.6202 2.65777 0)
(8.96722 3.51524 0)
(9.79935 3.80991 0)
(7.61313 4.57766 0)
(8.78366 4.04843 0)
(5.63931 4.38618 0)
(7.39927 4.7216 0)
(4.47981 5.59108 0)
(7.3657 5.77537 0)
(6.31084 6.82716 0)
(6.84632 5.81574 0)
(8.77139 5.46562 0)
(7.35574 3.96707 0)
(9.74406 2.47665 0)
(8.64033 -0.0793067 0)
(10.4623 -1.67033 0)
(8.68082 -3.76024 0)
(11.4481 -5.3619 0)
(9.00701 -6.73429 0)
(11.2079 -6.99944 0)
(8.84068 -6.91008 0)
(9.88782 -4.75311 0)
(7.96073 -4.49384 0)
(8.20485 -2.57424 0)
(5.70178 -1.22757 0)
(4.90085 1.10795 0)
(4.55087 -1.97039 0)
(6.65156 -2.52385 0)
(7.76066 -3.66856 0)
(8.69348 -2.7905 0)
(9.29929 -2.05111 0)
(9.85744 -0.841721 0)
(10.5055 0.374489 0)
(10.9444 1.52815 0)
(11.311 2.79154 0)
(11.3628 3.65208 0)
(10.972 3.98807 0)
(10.1959 4.02023 0)
(9.24941 4.1335 0)
(8.47319 4.14347 0)
(7.66061 3.68754 0)
(6.80982 3.43744 0)
(6.60648 3.01022 0)
(5.76228 3.69109 0)
(5.61368 3.70433 0)
(5.04896 4.53634 0)
(5.13539 3.18036 0)
(3.70787 4.05861 0)
(6.15229 2.61764 0)
(2.80491 2.47994 0)
(8.01853 0.267824 0)
(4.4125 0.852742 0)
(8.3868 -0.22576 0)
(4.97958 1.44246 0)
(7.40964 0.352776 0)
(3.79155 4.21274 0)
(5.10968 0.0951065 0)
(4.93419 0.276869 0)
(4.89547 0.254177 0)
(5.18033 0.29938 0)
(5.64912 0.320346 0)
(5.91409 0.634084 0)
(7.38708 0.639397 0)
(7.16243 0.0836224 0)
(8.477 -0.54671 0)
(8.76136 -1.2601 0)
(8.70425 -2.3954 0)
(10.4299 -3.14961 0)
(9.48282 -3.95534 0)
(9.81107 -4.0092 0)
(9.27646 -3.68675 0)
(7.89262 -2.703 0)
(8.21965 -2.0589 0)
(5.81148 -1.3232 0)
(4.72049 1.0816 0)
(6.61055 3.11003 0)
(7.29023 3.71706 0)
(7.75317 4.25498 0)
(8.61854 3.12286 0)
(8.47562 2.54456 0)
(8.69034 1.84085 0)
(10.0959 0.120311 0)
(10.0075 -1.26224 0)
(11.1652 -3.03227 0)
(12.2037 -5.13621 0)
(13.1169 -6.86701 0)
(13.5564 -8.30715 0)
(14.2638 -8.97381 0)
(13.3098 -8.8418 0)
(13.502 -8.08078 0)
(11.5465 -7.136 0)
(11.0695 -5.88395 0)
(10.1132 -4.71118 0)
(8.62007 -3.6108 0)
(9.75995 -2.89648 0)
(8.11752 -1.53716 0)
(10.0261 -0.58471 0)
(8.75041 0.456468 0)
(10.0098 1.15514 0)
(8.81968 2.28145 0)
(10.2488 2.74498 0)
(8.47633 3.67413 0)
(9.74777 3.98262 0)
(7.33169 4.83029 0)
(8.96184 4.41499 0)
(5.45841 4.67518 0)
(7.45808 4.99923 0)
(5.11103 5.59905 0)
(6.96403 5.52573 0)
(7.06262 6.68562 0)
(6.81794 5.47895 0)
(9.25439 5.09514 0)
(7.94436 3.84342 0)
(10.0004 2.24013 0)
(9.41243 -0.26029 0)
(10.7273 -1.66821 0)
(9.22735 -3.94787 0)
(11.6616 -5.6468 0)
(9.26195 -6.9369 0)
(11.5152 -6.9691 0)
(8.60579 -6.65872 0)
(9.9984 -4.57044 0)
(7.34431 -4.12695 0)
(7.72564 -1.92649 0)
(4.7456 -0.663553 0)
(5.29741 1.36557 0)
(4.34753 -2.59266 0)
(7.02486 -3.03152 0)
(7.5484 -4.22567 0)
(8.44714 -2.8424 0)
(8.70175 -2.33687 0)
(9.22685 -1.01479 0)
(9.85674 0.160744 0)
(10.381 1.35975 0)
(10.8768 2.69155 0)
(11.0869 3.67056 0)
(10.8659 4.19024 0)
(10.1895 4.35579 0)
(9.3404 4.43939 0)
(8.34194 4.5189 0)
(7.87847 3.93576 0)
(6.81909 3.7709 0)
(6.72035 3.05414 0)
(6.00088 4.12271 0)
(5.74826 3.49356 0)
(5.23995 4.7289 0)
(7.38482 3.69915 0)
(2.86709 4.26733 0)
(8.14459 2.17249 0)
(4.13953 2.44099 0)
(9.07349 -0.436724 0)
(5.43512 1.03139 0)
(9.24676 -0.854521 0)
(6.01803 1.64476 0)
(10.3076 0.358329 0)
(6.25835 4.61536 0)
(7.32486 0.05537 0)
(7.23393 0.260092 0)
(7.19 0.201328 0)
(7.27065 0.181041 0)
(7.92704 0.22444 0)
(7.58883 0.344814 0)
(9.03412 0.376433 0)
(9.06891 -0.0124203 0)
(9.75076 -0.869827 0)
(10.8565 -1.43973 0)
(10.2732 -2.50004 0)
(11.592 -3.27615 0)
(10.9033 -3.85772 0)
(10.5666 -3.89992 0)
(10.3265 -3.43973 0)
(8.60719 -2.42434 0)
(9.15953 -1.57813 0)
(7.16424 -0.775826 0)
(5.53139 0.869633 0)
(7.51398 2.5232 0)
(8.16518 3.49064 0)
(8.25819 4.03744 0)
(9.72724 2.9463 0)
(9.08274 2.50653 0)
(9.81289 1.53481 0)
(10.761 -0.0456927 0)
(11.0441 -1.53512 0)
(12.2508 -3.49699 0)
(12.8757 -5.46426 0)
(13.6156 -7.13576 0)
(13.9665 -8.45596 0)
(14.1199 -8.89068 0)
(12.9153 -8.54169 0)
(12.5204 -7.58683 0)
(10.2622 -6.5533 0)
(9.87359 -5.44976 0)
(8.38109 -4.29628 0)
(7.26874 -3.46147 0)
(8.15943 -2.81248 0)
(6.49052 -1.4566 0)
(8.98275 -0.687556 0)
(7.45264 0.437763 0)
(9.13158 1.1556 0)
(7.82426 2.2803 0)
(9.66863 2.77542 0)
(7.67927 3.81235 0)
(9.5581 4.14406 0)
(6.89232 5.00924 0)
(9.05546 4.7441 0)
(5.32115 4.93013 0)
(7.32039 5.10975 0)
(5.91964 5.59097 0)
(6.51223 5.26332 0)
(7.83537 6.48444 0)
(6.93293 5.12553 0)
(9.34509 4.72838 0)
(8.55374 3.74696 0)
(10.1864 2.05447 0)
(10.0181 -0.433724 0)
(10.778 -1.77442 0)
(9.92098 -3.93468 0)
(11.835 -5.51283 0)
(9.78347 -6.79736 0)
(11.6116 -6.71796 0)
(8.32771 -6.25193 0)
(9.93193 -4.28673 0)
(6.5936 -3.60531 0)
(7.31338 -1.28343 0)
(3.90264 -0.254688 0)
(6.22214 1.32987 0)
(4.13368 -2.86816 0)
(7.17805 -3.46684 0)
(6.83944 -4.70048 0)
(8.12335 -2.76961 0)
(7.86815 -2.6156 0)
(8.40062 -1.10006 0)
(9.01457 -0.130017 0)
(9.57716 1.21397 0)
(10.1456 2.526 0)
(10.4525 3.66262 0)
(10.4595 4.27438 0)
(9.82789 4.68988 0)
(9.27249 4.73307 0)
(8.19406 4.93797 0)
(7.69371 4.10093 0)
(7.08512 4.20121 0)
(6.60989 2.92781 0)
(5.99433 4.54163 0)
(7.52039 3.57112 0)
(3.89316 4.73063 0)
(8.94516 3.35737 0)
(3.86605 4.52689 0)
(9.32875 1.73161 0)
(5.277 2.40093 0)
(9.35521 -0.769401 0)
(5.35 1.29625 0)
(9.48063 -1.15174 0)
(5.81112 1.75309 0)
(10.5712 -0.180855 0)
(8.3774 4.47915 0)
(9.39556 0.0706458 0)
(9.3607 0.28569 0)
(9.38776 0.206911 0)
(9.13649 0.0134111 0)
(9.98829 0.0876555 0)
(9.6597 0.220676 0)
(10.6226 0.0229889 0)
(11.1367 -0.101044 0)
(11.3489 -1.01983 0)
(12.4601 -1.65409 0)
(11.9032 -2.45003 0)
(12.3242 -3.31175 0)
(11.9744 -3.69298 0)
(10.9343 -3.72588 0)
(11.0973 -3.19814 0)
(9.14655 -2.17977 0)
(9.70656 -1.19074 0)
(8.40723 -0.252672 0)
(6.62288 0.798172 0)
(8.3395 2.06294 0)
(8.61101 3.403 0)
(9.07557 3.76664 0)
(10.4316 2.82523 0)
(9.70789 2.42316 0)
(10.823 1.24091 0)
(11.3937 -0.207055 0)
(12.0797 -1.90004 0)
(13.0471 -3.88652 0)
(13.3679 -5.69998 0)
(14.0361 -7.36138 0)
(14.0656 -8.46559 0)
(13.637 -8.64413 0)
(12.1859 -8.07622 0)
(11.2582 -6.97186 0)
(9.01039 -5.95711 0)
(8.6533 -4.90811 0)
(6.5337 -3.79781 0)
(5.71028 -3.36387 0)
(6.21929 -2.69 0)
(5.1553 -1.47627 0)
(8.05653 -0.962455 0)
(6.36329 0.355925 0)
(8.56616 1.11297 0)
(6.85679 2.22728 0)
(9.06875 2.78398 0)
(6.78953 3.79636 0)
(9.21734 4.24381 0)
(6.35056 5.08722 0)
(8.95227 5.04202 0)
(5.40184 5.24188 0)
(6.97448 5.05211 0)
(6.59051 5.60531 0)
(6.13072 5.01963 0)
(8.2615 6.18068 0)
(7.39744 4.89219 0)
(9.21582 4.41517 0)
(8.99994 3.61043 0)
(10.3928 1.87963 0)
(10.3959 -0.512728 0)
(10.8664 -1.87062 0)
(10.4127 -4.04116 0)
(11.6901 -5.67915 0)
(10.1432 -6.84266 0)
(11.253 -6.52465 0)
(8.00647 -5.83222 0)
(9.71284 -3.96532 0)
(5.65875 -3.06483 0)
(7.12633 -0.721492 0)
(3.14879 -0.0600986 0)
(7.35815 1.12639 0)
(3.94876 -2.8128 0)
(7.20517 -3.74365 0)
(5.97885 -5.08204 0)
(7.71698 -2.65507 0)
(6.80117 -2.93568 0)
(7.56371 -1.07481 0)
(7.93526 -0.550069 0)
(8.58347 1.1711 0)
(9.11006 2.31626 0)
(9.58566 3.66642 0)
(9.72399 4.34045 0)
(9.31212 4.96022 0)
(8.92361 4.92035 0)
(8.11904 5.42723 0)
(7.47175 4.00538 0)
(6.83596 4.67961 0)
(7.72326 3.03161 0)
(4.92498 4.58872 0)
(9.19712 3.63816 0)
(4.27951 4.90243 0)
(9.74092 3.0711 0)
(4.42878 4.42791 0)
(10.0862 1.24001 0)
(5.97831 2.64772 0)
(9.5489 -0.889586 0)
(5.66686 1.49314 0)
(9.02321 -1.52477 0)
(6.32516 1.93179 0)
(8.83222 -0.819969 0)
(8.76432 4.0526 0)
(11.0926 0.0775493 0)
(11.0475 0.232602 0)
(11.2515 0.206987 0)
(11.0543 -0.0367133 0)
(11.6529 -0.0938748 0)
(11.5786 0.145246 0)
(12.1385 -0.249266 0)
(12.6958 -0.30025 0)
(12.8102 -1.10734 0)
(13.4445 -1.86763 0)
(13.184 -2.33386 0)
(12.8382 -3.23256 0)
(12.6519 -3.42413 0)
(11.2338 -3.43311 0)
(11.2777 -2.94145 0)
(9.5486 -1.89394 0)
(9.87882 -0.938815 0)
(9.39132 0.16924 0)
(7.67183 0.820359 0)
(8.84823 1.77108 0)
(8.81116 3.30543 0)
(10.103 3.48263 0)
(10.7962 2.80492 0)
(10.6169 2.23121 0)
(11.726 0.966878 0)
(12.0637 -0.379754 0)
(12.9787 -2.23294 0)
(13.5326 -4.14772 0)
(13.7594 -5.88212 0)
(14.2686 -7.48655 0)
(13.7794 -8.29044 0)
(12.8729 -8.17521 0)
(11.2408 -7.43077 0)
(9.94013 -6.2405 0)
(7.80934 -5.34307 0)
(7.19973 -4.27748 0)
(4.70641 -3.21704 0)
(4.24764 -3.26484 0)
(4.50615 -2.69867 0)
(4.81237 -1.83562 0)
(7.39206 -1.39464 0)
(5.60498 0.229777 0)
(8.2579 0.956306 0)
(6.18949 2.13974 0)
(8.58689 2.82207 0)
(5.87402 3.75979 0)
(8.69876 4.32502 0)
(5.9191 5.07962 0)
(8.4919 5.25293 0)
(5.78412 5.54349 0)
(6.43763 4.90781 0)
(7.01697 5.63915 0)
(6.05779 4.80017 0)
(8.14273 5.77804 0)
(7.90133 4.73515 0)
(9.0062 4.06888 0)
(9.07787 3.33193 0)
(10.5515 1.6006 0)
(10.4626 -0.570942 0)
(11.0545 -2.06125 0)
(10.7677 -4.0509 0)
(11.6916 -5.63724 0)
(10.3969 -6.54767 0)
(10.6282 -6.12192 0)
(7.79908 -5.30664 0)
(9.19072 -3.52428 0)
(4.71548 -2.51441 0)
(7.30614 -0.362185 0)
(2.81291 0.00153752 0)
(7.88973 0.680084 0)
(3.49586 -2.74521 0)
(7.17579 -4.00163 0)
(5.42632 -5.26914 0)
(7.40715 -2.42583 0)
(5.61106 -3.18059 0)
(6.7699 -0.939664 0)
(6.60129 -1.05593 0)
(7.53551 1.15853 0)
(7.96089 1.92354 0)
(8.49966 3.67751 0)
(8.82115 4.19374 0)
(8.5404 5.26285 0)
(8.31043 4.87455 0)
(7.76925 5.94983 0)
(7.65874 4.03743 0)
(6.02811 4.86855 0)
(9.10837 3.20791 0)
(4.15716 4.60535 0)
(10.3369 3.24775 0)
(4.49727 4.91751 0)
(10.6399 2.8107 0)
(5.72832 4.65734 0)
(10.1137 0.914587 0)
(6.78373 2.7689 0)
(9.56634 -0.788146 0)
(6.25804 1.71615 0)
(8.70107 -1.70345 0)
(7.17078 1.91055 0)
(8.61579 -1.03057 0)
(8.47852 3.22367 0)
(12.3497 0.0977244 0)
(12.3288 0.198926 0)
(12.4124 0.0927587 0)
(12.4716 -0.0914259 0)
(12.9108 -0.234537 0)
(12.9657 0.0497055 0)
(13.4387 -0.382008 0)
(13.8137 -0.463522 0)
(14.0044 -1.0389 0)
(14.1166 -1.95495 0)
(13.8856 -2.17594 0)
(13.3625 -3.00385 0)
(12.9475 -3.19431 0)
(11.7129 -3.03057 0)
(11.1725 -2.6289 0)
(9.8174 -1.57911 0)
(9.70524 -0.82191 0)
(9.80193 0.333081 0)
(8.71726 0.901085 0)
(9.1214 1.61518 0)
(9.09164 2.93225 0)
(10.769 3.0721 0)
(10.9492 2.6855 0)
(11.6812 1.8708 0)
(12.3019 0.765403 0)
(12.6408 -0.573088 0)
(13.5583 -2.50427 0)
(13.8027 -4.29832 0)
(14.037 -6.03859 0)
(14.1971 -7.44167 0)
(13.1729 -7.92912 0)
(11.9071 -7.56381 0)
(10.1134 -6.70109 0)
(8.61756 -5.57979 0)
(6.76892 -4.69778 0)
(5.51528 -3.49561 0)
(2.91327 -2.69455 0)
(3.06972 -3.43649 0)
(3.48647 -3.08399 0)
(4.99291 -2.41674 0)
(6.43607 -1.70136 0)
(5.0087 0.114033 0)
(7.64392 0.72857 0)
(5.54293 2.11334 0)
(8.16259 2.83688 0)
(5.23864 3.69825 0)
(7.99258 4.32173 0)
(5.7074 5.08215 0)
(7.61262 5.2976 0)
(6.27803 5.78424 0)
(5.91894 4.84159 0)
(7.13547 5.56423 0)
(6.34529 4.67175 0)
(7.85736 5.36029 0)
(8.1011 4.55891 0)
(8.949 3.71679 0)
(8.87817 2.93403 0)
(10.6535 1.32996 0)
(10.4677 -0.653631 0)
(11.3295 -2.25419 0)
(10.8635 -4.10746 0)
(11.6672 -5.62505 0)
(10.2678 -6.24828 0)
(9.88544 -5.72744 0)
(7.62774 -4.81698 0)
(8.25241 -2.98494 0)
(4.1082 -2.05338 0)
(7.01039 -0.202445 0)
(2.82184 0.0875359 0)
(7.25984 0.425872 0)
(3.00308 -2.72382 0)
(7.07507 -4.42675 0)
(4.77887 -5.33835 0)
(7.17237 -2.20139 0)
(4.52186 -3.29684 0)
(6.10079 -0.749016 0)
(5.18239 -1.62065 0)
(6.50544 1.30813 0)
(6.54587 1.44223 0)
(7.37594 3.83435 0)
(7.70834 3.90293 0)
(7.76613 5.66128 0)
(7.58201 4.62316 0)
(7.06595 6.33243 0)
(8.4851 4.19299 0)
(4.74732 4.86656 0)
(10.3139 3.11663 0)
(3.84338 4.6833 0)
(10.9648 2.73479 0)
(5.30357 5.14193 0)
(10.2307 2.32596 0)
(6.8636 4.60204 0)
(10.5781 0.996879 0)
(7.06116 2.85877 0)
(9.94543 -0.622558 0)
(7.03752 1.82573 0)
(9.18242 -1.53437 0)
(7.65317 1.75285 0)
(9.22434 -0.784875 0)
(8.46855 2.43931 0)
(12.9843 0.073491 0)
(13.1062 0.121823 0)
(13.0932 -0.073392 0)
(13.1968 -0.212413 0)
(13.596 -0.362292 0)
(13.64 -0.117825 0)
(14.1122 -0.453009 0)
(14.3625 -0.655689 0)
(14.5718 -0.99279 0)
(14.4285 -1.86355 0)
(13.9982 -2.04634 0)
(13.7106 -2.70169 0)
(12.9492 -2.90336 0)
(12.0101 -2.57342 0)
(11.187 -2.29309 0)
(10.2339 -1.26816 0)
(9.76522 -0.582759 0)
(9.60681 0.336603 0)
(9.33608 0.960213 0)
(9.29764 1.63422 0)
(9.60424 2.5149 0)
(10.8047 2.72332 0)
(11.1708 2.37596 0)
(12.3507 1.45789 0)
(12.3869 0.618107 0)
(13.1246 -0.832006 0)
(13.8638 -2.69646 0)
(13.9255 -4.3778 0)
(14.1657 -6.09545 0)
(13.7879 -7.22845 0)
(12.2764 -7.37693 0)
(10.7509 -6.84741 0)
(8.98306 -5.92396 0)
(7.44066 -4.90926 0)
(5.64178 -3.96764 0)
(3.80161 -2.62877 0)
(1.76521 -2.34263 0)
(2.15738 -3.75393 0)
(2.82476 -3.54937 0)
(4.62589 -2.81256 0)
(4.83666 -1.69891 0)
(4.46219 0.046541 0)
(6.43323 0.50254 0)
(4.75682 2.12318 0)
(7.41715 2.80966 0)
(4.6392 3.76475 0)
(7.19713 4.20604 0)
(5.71825 5.10639 0)
(6.52889 5.15466 0)
(6.61176 5.93981 0)
(5.6301 4.89115 0)
(7.00096 5.27166 0)
(6.5861 4.57838 0)
(7.79016 5.00559 0)
(8.03773 4.39701 0)
(9.07404 3.4746 0)
(8.79634 2.61959 0)
(10.7629 1.07374 0)
(10.547 -0.781713 0)
(11.5855 -2.40443 0)
(10.8668 -4.1178 0)
(11.5663 -5.45316 0)
(9.734 -5.79653 0)
(9.27085 -5.248 0)
(7.31261 -4.23863 0)
(7.13876 -2.39011 0)
(3.84159 -1.60026 0)
(5.64766 0.00534828 0)
(2.76297 0.173444 0)
(5.91282 0.279594 0)
(3.19535 -2.81542 0)
(6.56422 -4.913 0)
(3.32628 -5.31095 0)
(6.66092 -2.07247 0)
(3.4833 -3.31654 0)
(5.56106 -0.565912 0)
(3.6855 -2.03419 0)
(5.52278 1.40185 0)
(5.0422 0.695487 0)
(6.44515 3.92668 0)
(6.28512 3.32849 0)
(6.95305 5.96541 0)
(7.02719 4.37554 0)
(5.84953 6.53693 0)
(9.5768 4.30579 0)
(3.79273 4.91423 0)
(10.756 2.72006 0)
(4.54896 4.79289 0)
(10.6347 2.21116 0)
(6.11572 5.26349 0)
(10.5228 2.27143 0)
(7.16043 4.48978 0)
(10.9335 0.976969 0)
(7.71501 2.97043 0)
(10.1648 -0.469449 0)
(7.91242 1.72778 0)
(9.75972 -1.47592 0)
(8.39294 1.33887 0)
(9.92825 -0.651963 0)
(9.02608 1.85717 0)
(13.0808 0.0659755 0)
(13.2966 0.106623 0)
(13.3488 -0.171674 0)
(13.4766 -0.268622 0)
(13.854 -0.432792 0)
(13.7646 -0.28656 0)
(14.2027 -0.487505 0)
(14.3782 -0.796482 0)
(14.3567 -0.984087 0)
(14.2906 -1.71504 0)
(13.7037 -1.94872 0)
(13.6315 -2.46758 0)
(12.8428 -2.64962 0)
(12.0232 -2.15318 0)
(11.3531 -1.95705 0)
(10.4777 -1.07306 0)
(9.98708 -0.272061 0)
(9.68566 0.33948 0)
(9.57716 0.90771 0)
(9.48216 1.60552 0)
(10.1953 2.23983 0)
(10.8035 2.51855 0)
(11.6819 2.04177 0)
(12.4639 1.24866 0)
(12.4676 0.429874 0)
(13.6319 -1.13112 0)
(13.9434 -2.77371 0)
(13.9217 -4.428 0)
(14.0222 -6.03367 0)
(13.028 -6.80389 0)
(11.1626 -6.68516 0)
(9.53575 -6.07549 0)
(7.84733 -5.21722 0)
(6.38081 -4.24328 0)
(4.3848 -3.11299 0)
(2.14337 -1.83662 0)
(1.0293 -2.24089 0)
(1.31734 -4.03319 0)
(1.97738 -4.03398 0)
(3.63157 -3.08161 0)
(3.06372 -1.85558 0)
(4.09839 -0.201082 0)
(4.93958 0.320146 0)
(4.04399 2.13603 0)
(6.15533 2.69418 0)
(4.20515 3.83949 0)
(6.11618 3.98584 0)
(5.58233 5.19303 0)
(5.52915 4.97625 0)
(6.55705 5.96303 0)
(5.58186 4.98831 0)
(6.7037 4.8837 0)
(6.48564 4.4147 0)
(7.85874 4.70033 0)
(7.9832 4.23939 0)
(9.26146 3.33357 0)
(9.02569 2.30653 0)
(10.9617 0.773992 0)
(10.6996 -0.920903 0)
(11.6571 -2.50634 0)
(10.7843 -4.11746 0)
(11.2255 -5.1505 0)
(9.04805 -5.30799 0)
(8.77785 -4.76789 0)
(6.68023 -3.6328 0)
(6.2466 -1.84835 0)
(3.53029 -1.11237 0)
(4.2244 0.221677 0)
(2.40247 0.142499 0)
(4.62428 0.0367133 0)
(3.4388 -2.86137 0)
(5.1976 -4.91548 0)
(1.2446 -5.14866 0)
(5.9159 -2.09982 0)
(2.47689 -3.38603 0)
(5.05547 -0.273076 0)
(2.34457 -2.34857 0)
(4.75279 1.66174 0)
(3.32313 0.0206291 0)
(5.39206 4.27201 0)
(4.86132 2.65569 0)
(5.9418 6.27411 0)
(6.81821 4.24513 0)
(4.03912 6.36053 0)
(10.1922 4.04512 0)
(3.74073 5.09004 0)
(10.4082 2.11285 0)
(5.33225 4.8996 0)
(10.3454 1.9046 0)
(6.39809 5.30629 0)
(10.795 2.12605 0)
(7.85572 4.35897 0)
(10.7569 1.06809 0)
(8.51081 2.88442 0)
(10.2541 -0.269151 0)
(8.74251 1.53666 0)
(9.87676 -1.17842 0)
(8.80369 0.948075 0)
(10.0275 -0.576374 0)
(9.80733 1.44782 0)
(13.1545 0.0715944 0)
(13.3868 0.119296 0)
(13.4883 -0.205908 0)
(13.6059 -0.302306 0)
(13.9172 -0.461702 0)
(13.7273 -0.412466 0)
(13.9555 -0.524617 0)
(14.0958 -0.828975 0)
(13.9121 -0.943429 0)
(13.9865 -1.58214 0)
(13.6186 -1.86759 0)
(13.5868 -2.22284 0)
(12.808 -2.36832 0)
(11.9581 -1.8591 0)
(11.7134 -1.67349 0)
(10.622 -0.86741 0)
(10.1632 -0.0211185 0)
(10.3605 0.361629 0)
(9.83284 0.892066 0)
(9.61448 1.53581 0)
(10.4071 2.08723 0)
(10.9916 2.3069 0)
(12.0316 1.80169 0)
(12.3379 1.17532 0)
(12.935 0.139601 0)
(13.8973 -1.35632 0)
(13.6984 -2.75716 0)
(13.7795 -4.43679 0)
(13.562 -5.80835 0)
(11.9633 -6.18829 0)
(9.86443 -5.93198 0)
(8.33463 -5.36372 0)
(6.80808 -4.52784 0)
(5.26055 -3.50613 0)
(3.01847 -2.18369 0)
(0.709259 -1.17375 0)
(0.299633 -2.23344 0)
(0.561426 -4.24872 0)
(0.759909 -4.54059 0)
(2.38571 -3.2676 0)
(1.24716 -2.10823 0)
(3.37025 -0.570281 0)
(3.27862 0.193049 0)
(3.44121 2.07098 0)
(4.59414 2.47654 0)
(3.61731 3.93402 0)
(4.74482 3.74082 0)
(5.33494 5.26709 0)
(4.7156 4.86929 0)
(6.14557 5.78097 0)
(5.60146 5.0623 0)
(6.50009 4.62405 0)
(6.21981 4.15195 0)
(7.90979 4.37422 0)
(7.97501 4.04715 0)
(9.39755 3.09229 0)
(9.44599 1.92137 0)
(11.1363 0.5278 0)
(10.7226 -1.00999 0)
(11.5596 -2.57087 0)
(10.5729 -3.97957 0)
(10.6695 -4.75007 0)
(8.29818 -4.81085 0)
(8.1884 -4.23561 0)
(5.82056 -3.03372 0)
(5.68536 -1.33694 0)
(2.83102 -0.584708 0)
(3.58336 0.408339 0)
(1.54536 0.124318 0)
(4.02641 -0.288219 0)
(2.71648 -2.75881 0)
(3.58299 -4.37552 0)
(-0.345305 -5.019 0)
(5.32934 -2.48086 0)
(1.69076 -3.31551 0)
(4.59861 -0.132244 0)
(1.31443 -2.53523 0)
(4.09628 1.79206 0)
(1.82561 -0.615223 0)
(4.51803 4.32759 0)
(3.7537 1.93489 0)
(4.59489 6.41227 0)
(7.08182 4.1904 0)
(2.27064 6.11945 0)
(9.89911 3.3414 0)
(4.15111 5.28135 0)
(9.73593 1.65982 0)
(5.70241 5.01964 0)
(9.93404 1.80134 0)
(6.82709 5.11283 0)
(10.5402 1.97565 0)
(8.32169 4.13761 0)
(10.4969 1.10427 0)
(9.25293 2.6986 0)
(10.5215 -0.0585409 0)
(9.4457 1.29075 0)
(10.2786 -0.918905 0)
(9.48699 0.642545 0)
(10.1418 -0.520175 0)
(10.2338 1.08592 0)
(13.3259 0.0602923 0)
(13.4643 0.0812232 0)
(13.4875 -0.24145 0)
(13.5965 -0.280383 0)
(13.7675 -0.471081 0)
(13.5395 -0.480568 0)
(13.6889 -0.49982 0)
(13.8601 -0.842712 0)
(13.7515 -0.951116 0)
(13.9558 -1.5068 0)
(13.6967 -1.81114 0)
(13.4373 -2.00479 0)
(12.9013 -2.1061 0)
(12.1048 -1.62654 0)
(11.8977 -1.38728 0)
(10.8533 -0.664967 0)
(10.5309 0.0483754 0)
(10.8592 0.432334 0)
(10.0667 1.02498 0)
(9.84351 1.4674 0)
(10.427 1.79891 0)
(11.1549 1.91773 0)
(11.9715 1.58177 0)
(12.3643 0.953813 0)
(13.2932 -0.199672 0)
(13.5349 -1.40047 0)
(13.2514 -2.73527 0)
(13.5078 -4.39694 0)
(12.7535 -5.36973 0)
(10.6579 -5.42684 0)
(8.55994 -5.16083 0)
(7.15681 -4.72054 0)
(5.75708 -3.88931 0)
(4.13439 -2.68443 0)
(1.72074 -1.25992 0)
(-0.35197 -0.662949 0)
(-0.37508 -2.29376 0)
(-0.452003 -4.28082 0)
(-0.670749 -4.74855 0)
(1.08998 -3.0775 0)
(-0.357335 -2.12904 0)
(2.31967 -0.873898 0)
(1.56308 0.150683 0)
(2.7051 1.9744 0)
(2.80365 2.31477 0)
(3.04789 3.90331 0)
(3.64158 3.39046 0)
(4.77751 5.18364 0)
(4.13208 4.72312 0)
(5.56865 5.38195 0)
(5.45794 5.02981 0)
(6.39799 4.43952 0)
(5.97777 3.83751 0)
(7.86158 3.99768 0)
(7.98593 3.7309 0)
(9.46616 2.73785 0)
(9.82461 1.52576 0)
(11.0318 0.340345 0)
(10.617 -1.0574 0)
(11.3154 -2.55743 0)
(10.2202 -3.78057 0)
(9.95159 -4.27733 0)
(7.53214 -4.27717 0)
(7.47812 -3.69031 0)
(5.05044 -2.45874 0)
(5.27605 -0.837261 0)
(2.23651 -0.0976278 0)
(3.48752 0.598263 0)
(0.904212 0.189842 0)
(3.70949 -0.705947 0)
(1.5593 -2.57533 0)
(2.85136 -3.90512 0)
(-0.507199 -5.26942 0)
(4.86112 -3.04618 0)
(0.948974 -3.12846 0)
(4.05065 0.114916 0)
(0.572099 -2.60677 0)
(3.4155 2.06748 0)
(0.718375 -1.02536 0)
(3.48652 4.6156 0)
(2.88176 1.39088 0)
(3.15715 6.34832 0)
(7.60894 4.14413 0)
(1.77072 6.05403 0)
(8.92073 2.45063 0)
(4.4923 5.41691 0)
(8.9593 1.39301 0)
(5.89212 4.99696 0)
(9.51809 1.71419 0)
(7.0542 4.80589 0)
(10.1555 1.83818 0)
(8.68323 3.9305 0)
(10.4581 1.09999 0)
(9.86432 2.38867 0)
(10.9487 0.116183 0)
(10.0968 1.09064 0)
(10.787 -0.686281 0)
(10.2834 0.397852 0)
(10.7393 -0.433976 0)
(10.6283 0.789 0)
(13.3126 0.0930514 0)
(13.3985 0.0953055 0)
(13.3628 -0.246941 0)
(13.4921 -0.24923 0)
(13.6541 -0.480981 0)
(13.5051 -0.536329 0)
(13.7028 -0.528677 0)
(13.8308 -0.881891 0)
(13.7612 -0.96957 0)
(13.8431 -1.45732 0)
(13.5783 -1.68902 0)
(13.298 -1.78879 0)
(12.9455 -1.93872 0)
(12.2281 -1.43919 0)
(11.8997 -1.12061 0)
(11.2253 -0.539722 0)
(10.891 0.138471 0)
(10.8929 0.57818 0)
(10.3946 1.09212 0)
(10.1911 1.37911 0)
(10.4191 1.55914 0)
(11.0712 1.60131 0)
(11.7145 1.27578 0)
(12.2838 0.596437 0)
(12.8603 -0.359508 0)
(12.7469 -1.3558 0)
(12.9233 -2.79384 0)
(13.0343 -4.23562 0)
(11.6061 -4.71045 0)
(9.17139 -4.59081 0)
(7.23646 -4.48426 0)
(6.02812 -4.11902 0)
(4.63507 -3.21888 0)
(2.97948 -1.86113 0)
(0.551431 -0.393754 0)
(-1.07623 -0.273463 0)
(-1.04824 -2.32352 0)
(-1.50865 -4.23392 0)
(-1.73131 -5.04241 0)
(0.133859 -3.19792 0)
(-0.980107 -2.48274 0)
(1.40019 -1.38579 0)
(0.10292 0.0782307 0)
(1.84851 1.74106 0)
(1.26001 2.08973 0)
(2.52646 3.66873 0)
(2.58362 3.11519 0)
(3.88867 4.95435 0)
(3.61775 4.55444 0)
(4.90965 5.01285 0)
(5.09615 4.87839 0)
(6.23567 4.2758 0)
(5.81461 3.53209 0)
(7.65121 3.53509 0)
(7.92439 3.32965 0)
(9.45154 2.33812 0)
(9.90805 1.21607 0)
(10.6538 0.24161 0)
(10.4333 -1.07313 0)
(10.96 -2.47238 0)
(9.70566 -3.44082 0)
(9.10482 -3.71562 0)
(6.72001 -3.73748 0)
(6.63535 -3.1987 0)
(4.39957 -1.98291 0)
(4.7953 -0.407166 0)
(2.03648 0.30607 0)
(3.14764 0.793902 0)
(0.923517 0.234832 0)
(2.99989 -0.92763 0)
(0.972824 -2.44998 0)
(2.9705 -3.85705 0)
(0.12474 -5.51701 0)
(3.85388 -3.5962 0)
(-0.292505 -2.80701 0)
(3.545 0.0738347 0)
(-0.0527188 -2.6563 0)
(2.8556 2.21336 0)
(0.220141 -1.36846 0)
(2.60857 4.45281 0)
(2.78064 1.23653 0)
(0.964153 5.86895 0)
(7.51594 3.40897 0)
(2.27222 6.19235 0)
(7.79874 1.7558 0)
(4.62431 5.53556 0)
(8.32686 1.23015 0)
(5.89079 4.79145 0)
(9.02474 1.58783 0)
(7.37982 4.41354 0)
(9.78763 1.68139 0)
(8.99345 3.58779 0)
(10.5321 1.07598 0)
(10.4069 2.064 0)
(11.197 0.303422 0)
(10.597 0.88334 0)
(11.0657 -0.559034 0)
(10.8742 0.194237 0)
(11.2108 -0.31791 0)
(11.0768 0.616639 0)
(13.2215 0.131023 0)
(13.3626 0.0875079 0)
(13.3252 -0.273157 0)
(13.5076 -0.226366 0)
(13.7468 -0.530741 0)
(13.601 -0.608981 0)
(13.7284 -0.529099 0)
(13.7057 -0.87629 0)
(13.6566 -0.953122 0)
(13.589 -1.3647 0)
(13.3409 -1.59618 0)
(13.1447 -1.64135 0)
(12.7174 -1.76419 0)
(12.057 -1.22648 0)
(11.7668 -0.913918 0)
(11.3239 -0.43813 0)
(10.8415 0.284471 0)
(10.8114 0.676392 0)
(10.5876 1.10817 0)
(10.2477 1.41507 0)
(10.3349 1.5084 0)
(10.8501 1.36672 0)
(11.3021 0.967726 0)
(11.7865 0.378864 0)
(12.0855 -0.390494 0)
(12.293 -1.41425 0)
(12.7148 -2.83824 0)
(12.1727 -3.85055 0)
(10.1153 -3.90046 0)
(7.70199 -3.74347 0)
(5.99218 -3.84872 0)
(4.81874 -3.56229 0)
(3.50637 -2.54732 0)
(1.87533 -1.04238 0)
(-0.373499 0.377306 0)
(-1.44161 0.038706 0)
(-1.63034 -2.21721 0)
(-2.19259 -4.27687 0)
(-2.81785 -5.31535 0)
(-1.38029 -3.69695 0)
(-1.47471 -2.89191 0)
(-0.328623 -1.59687 0)
(-1.57231 0.00658817 0)
(0.613346 1.50072 0)
(-0.192751 1.85976 0)
(1.66112 3.44627 0)
(1.4339 2.91797 0)
(2.89776 4.61835 0)
(2.86337 4.32548 0)
(4.39712 4.66588 0)
(4.54168 4.56893 0)
(5.85711 4.06583 0)
(5.66464 3.19851 0)
(7.21782 3.0823 0)
(7.73138 2.86949 0)
(9.24693 1.93618 0)
(9.63816 1.0003 0)
(10.1824 0.118793 0)
(10.1802 -1.122 0)
(10.4545 -2.30959 0)
(9.04486 -3.00468 0)
(8.14274 -3.13149 0)
(5.92281 -3.19684 0)
(5.76662 -2.70877 0)
(3.91848 -1.56042 0)
(4.26454 -0.0473052 0)
(2.09633 0.63761 0)
(2.76055 0.988901 0)
(1.68033 0.317 0)
(2.5901 -0.799424 0)
(1.20477 -2.4185 0)
(2.87329 -3.91092 0)
(0.0764651 -5.34649 0)
(2.01294 -3.39988 0)
(-1.97812 -2.62785 0)
(2.90349 -0.131675 0)
(-0.962533 -2.45932 0)
(2.06011 2.27988 0)
(0.147719 -1.55904 0)
(1.41972 4.44931 0)
(3.44611 1.32084 0)
(-0.736442 5.4038 0)
(6.03621 2.17965 0)
(2.80682 6.36477 0)
(6.49982 1.20735 0)
(4.64477 5.43613 0)
(7.50046 1.08321 0)
(5.81065 4.45318 0)
(8.3976 1.37929 0)
(7.73761 3.95892 0)
(9.27497 1.61618 0)
(9.33076 3.16857 0)
(10.7206 0.974489 0)
(10.8718 1.70281 0)
(11.2614 0.470182 0)
(11.1578 0.725949 0)
(11.4698 -0.464661 0)
(11.591 -0.0390583 0)
(11.635 -0.325643 0)
(11.518 0.445934 0)
(13.1721 0.149997 0)