/*--------------------------------*- C++ -*----------------------------------*\
| =========                 |                                                 |
| \\      /  F ield         | OpenFOAM: The Open Source CFD Toolbox           |
|  \\    /   O peration     | Version:  2.4.0                                 |
|   \\  /    A nd           | Web:      www.OpenFOAM.org                      |
|    \\/     M anipulation  |                                                 |
\*---------------------------------------------------------------------------*/
FoamFile
{
    version     2.0;
    format      ascii;
    class       volScalarField;
    location    "0.073438";
    object      epsilon;
}
// * * * * * * * * * * * * * * * * * * * * * * * * * * * * * * * * * * * * * //

dimensions      [0 2 -3 0 0 0 0];

internalField   nonuniform List<scalar> 
17600
(
265.083
385.348
484.511
552.116
589.318
603.052
601.293
590.74
576.182
560.654
545.865
532.625
521.171
511.392
502.97
495.437
488.183
480.284
470.284
455.981
36.7928
56.6186
73.1725
86.8241
97.8077
106.588
113.917
120.476
126.726
132.901
139.062
145.148
151.043
156.622
161.805
166.6
171.171
176.013
182.295
194.247
17.5412
21.1435
24.3374
26.9192
28.856
30.224
31.2061
32.0158
32.842
33.8279
35.0699
36.623
38.509
40.7269
43.2642
46.1129
49.2951
52.9395
57.41
64.3087
14.6099
14.9311
15.4
15.8265
16.1239
16.2625
16.2587
16.1547
16.0013
15.8475
15.7363
15.7034
15.7776
15.9826
16.3402
16.8758
17.629
18.6905
20.2441
23.0852
14.0149
13.4583
13.0865
12.8092
12.5642
12.3132
12.0399
11.7434
11.4314
11.1157
10.809
10.5238
10.2715
10.0624
9.90688
9.81696
9.81079
9.92645
10.2418
11.063
13.8829
13.0682
12.3955
11.8314
11.3432
10.904
10.4952
10.1062
9.73204
9.37146
9.02566
8.69703
8.38856
8.10347
7.84538
7.61882
7.43079
7.29583
7.24463
7.38869
13.8529
12.9632
12.1837
11.5005
10.8975
10.3588
9.87041
9.42165
9.0049
8.61502
8.24878
7.90434
7.5808
7.27793
6.99609
6.73634
6.50101
6.29574
6.1333
6.05792
13.8461
12.9351
12.1197
11.3899
10.7357
10.1468
9.61352
9.1272
8.68075
8.26842
7.88577
7.52938
7.19671
6.88589
6.59566
6.32533
6.07505
5.84668
5.64567
5.49143
13.8445
12.9277
12.1007
11.3539
10.6786
10.0665
9.51011
9.00243
8.53732
8.10948
7.7144
7.34834
7.0082
6.69144
6.39605
6.12049
5.86383
5.62615
5.40959
5.22342
13.8441
12.9257
12.0952
11.3425
10.659
10.0371
9.46986
8.95121
8.47565
8.03835
7.63505
7.26207
6.91624
6.59483
6.29553
6.01644
5.7561
5.51372
5.28987
5.0893
13.844
12.9251
12.0935
11.3388
10.6524
10.0265
9.45465
8.93087
8.45003
8.00757
7.59944
7.22212
6.87247
6.54778
6.24566
5.96406
5.70129
5.45616
5.22846
5.0208
13.844
12.9249
12.0929
11.3376
10.6501
10.0227
9.44897
8.92297
8.43967
7.99465
7.58397
7.20421
6.85229
6.52555
6.22158
5.93832
5.67398
5.42718
5.19732
4.986
13.844
12.9248
12.0927
11.3371
10.6492
10.0213
9.44678
8.91986
8.43551
7.9893
7.5774
7.19638
6.84325
6.51535
6.21031
5.92606
5.66077
5.413
5.18198
4.96876
13.8439
12.9247
12.0925
11.3368
10.6487
10.0206
9.44584
8.91856
8.43376
7.98705
7.57459
7.19299
6.83927
6.51078
6.20517
5.92039
5.6546
5.40633
5.17473
4.96059
13.8439
12.9247
12.0924
11.3366
10.6485
10.0203
9.44536
8.91793
8.43295
7.98603
7.57333
7.19148
6.83748
6.50872
6.20286
5.91782
5.65181
5.40333
5.1715
4.95697
13.8439
12.9246
12.0923
11.3365
10.6483
10.02
9.44506
8.91757
8.43251
7.98551
7.57271
7.19074
6.83664
6.50777
6.2018
5.91667
5.65058
5.40206
5.1702
4.95558
13.8439
12.9246
12.0922
11.3364
10.6481
10.0199
9.44486
8.91733
8.43223
7.98519
7.57236
7.19035
6.83621
6.5073
6.2013
5.91615
5.65007
5.40159
5.1698
4.95522
13.8439
12.9246
12.0922
11.3363
10.648
10.0197
9.44471
8.91716
8.43205
7.98499
7.57214
7.19012
6.83596
6.50705
6.20105
5.91592
5.64989
5.40148
5.1698
4.95533
13.8439
12.9246
12.0921
11.3362
10.648
10.0197
9.44462
8.91706
8.43194
7.98487
7.57201
7.18999
6.83583
6.50692
6.20094
5.91584
5.64986
5.40154
5.17
4.95565
13.8439
12.9246
12.0921
11.3362
10.6479
10.0196
9.44457
8.91701
8.43188
7.98481
7.57195
7.18993
6.83578
6.50688
6.20092
5.91586
5.64994
5.40171
5.17029
4.95608
13.8439
12.9246
12.0921
11.3362
10.6479
10.0196
9.44457
8.91701
8.43189
7.98482
7.57196
7.18994
6.8358
6.50691
6.20098
5.91595
5.65009
5.40195
5.17066
4.95657
13.8439
12.9246
12.0921
11.3362
10.648
10.0197
9.44462
8.91706
8.43194
7.98488
7.57203
7.19002
6.83589
6.50702
6.20111
5.91612
5.65031
5.40226
5.17108
4.95711
13.8439
12.9246
12.0922
11.3363
10.648
10.0197
9.44472
8.91717
8.43206
7.98501
7.57217
7.19018
6.83606
6.50721
6.20133
5.91638
5.65063
5.40266
5.1716
4.95774
13.8439
12.9246
12.0922
11.3364
10.6481
10.0199
9.44486
8.91734
8.43225
7.98522
7.57241
7.19043
6.83634
6.50753
6.20168
5.91678
5.6511
5.40322
5.17226
4.9585
13.8439
12.9246
12.0923
11.3365
10.6483
10.02
9.44507
8.91758
8.43253
7.98554
7.57277
7.19085
6.83682
6.50806
6.20228
5.91746
5.65187
5.40409
5.17325
4.95959
13.8439
12.9247
12.0924
11.3366
10.6485
10.0203
9.44537
8.91795
8.43298
7.98608
7.57341
7.1916
6.83769
6.50906
6.20342
5.91873
5.65329
5.40566
5.17496
4.96141
13.8439
12.9247
12.0925
11.3368
10.6487
10.0206
9.44585
8.91858
8.43379
7.98711
7.57468
7.19313
6.8395
6.51115
6.20578
5.92137
5.65616
5.40876
5.17826
4.96482
13.844
12.9248
12.0927
11.3371
10.6492
10.0213
9.44679
8.91988
8.43554
7.98936
7.57749
7.19653
6.84349
6.51573
6.21091
5.92699
5.66222
5.41517
5.18493
4.97162
13.844
12.9249
12.0929
11.3376
10.6501
10.0227
9.44898
8.92299
8.43971
7.9947
7.58406
7.20434
6.8525
6.52586
6.22205
5.93901
5.67493
5.42841
5.19851
4.98528
13.844
12.9251
12.0935
11.3388
10.6524
10.0265
9.45466
8.93089
8.45006
8.00761
7.59951
7.22221
6.87259
6.54792
6.2458
5.96414
5.70113
5.45528
5.22574
5.01246
13.8441
12.9257
12.0952
11.3425
10.659
10.0371
9.46986
8.95122
8.47567
8.03836
7.63506
7.26205
6.91615
6.5946
6.295
6.01529
5.75368
5.50858
5.2793
5.06571
13.8445
12.9277
12.1007
11.3539
10.6786
10.0665
9.51011
9.00242
8.5373
8.10943
7.71429
7.34811
7.00772
6.6905
6.39422
6.11697
5.85706
5.61278
5.38363
5.16943
13.8461
12.9351
12.1197
11.3899
10.7357
10.1468
9.61351
9.12716
8.68066
8.26825
7.88543
7.52873
7.19548
6.88358
6.59134
6.31723
6.05978
5.8173
5.58866
5.37441
13.8529
12.9632
12.1837
11.5005
10.8975
10.3588
9.87036
9.42154
9.00468
8.6146
8.24799
7.90287
7.57808
7.2729
6.98673
6.71881
6.46794
6.23208
6.00849
5.79938
13.8829
13.0682
12.3955
11.8314
11.3431
10.9039
10.4951
10.106
9.73154
9.37052
9.02393
8.69383
8.38261
8.09237
7.82456
7.57944
7.35577
7.14995
6.95485
6.77531
14.0149
13.4583
13.0865
12.8092
12.5641
12.313
12.0396
11.7428
11.4303
11.1135
10.805
10.5162
10.2572
10.0354
9.85532
9.71817
9.62065
9.55337
9.50015
9.45801
14.6099
14.9311
15.3999
15.8264
16.1237
16.2621
16.2578
16.1531
15.9982
15.8416
15.7251
15.6821
15.7369
15.9049
16.1917
16.5924
17.0897
17.6506
18.2247
18.775
17.5411
21.1435
24.3373
26.9189
28.8554
30.2226
31.2033
32.0104
32.8316
33.8081
35.0323
36.5523
38.3772
40.4837
42.8197
45.3072
47.8463
50.3186
52.5825
54.5402
36.7928
56.6185
73.172
86.823
97.8053
106.583
113.907
120.456
126.687
132.829
138.927
144.902
150.599
155.833
160.416
164.173
166.952
168.629
169.463
169.42
265.083
385.348
484.511
552.118
589.324
603.066
601.319
590.789
576.27
560.809
546.137
533.097
521.984
512.792
505.377
499.586
495.327
492.704
491.449
491.847
687.811
903.433
1104.88
1268.94
1370.55
1393.53
1337.67
1224.33
1085.44
946.312
821.153
715.21
628.53
558.942
503.737
460.383
426.731
401.02
381.816
367.936
358.401
352.381
349.172
348.165
348.833
350.714
353.404
356.545
359.833
362.992
365.757
367.9
369.22
369.54
368.698
366.539
362.911
357.654
350.596
341.541
330.275
316.563
300.16
280.842
258.455
233.02
204.895
174.976
144.799
116.301
91.1934
70.3819
53.8776
41.1554
31.5417
24.4068
19.2077
15.485
12.8598
11.0322
9.77545
8.92482
8.36398
8.01185
7.81164
7.72259
7.71426
7.7629
7.84916
7.95689
8.07243
8.18421
8.28265
8.36002
8.41046
8.42991
8.41607
8.36831
8.28732
8.17462
8.03493
7.8719
7.68963
7.49232
7.28408
7.06873
6.84967
6.62982
6.41162
6.19703
5.98756
5.78433
5.58813
5.39947
5.21861
5.04565
4.88053
4.72311
4.57313
4.4303
4.29428
4.16472
4.04125
3.92348
3.81104
3.70356
3.60069
3.50208
3.40741
3.31637
3.22868
3.14406
3.06226
2.98307
2.90628
2.83171
2.7592
2.68861
2.61982
2.55274
2.48729
2.42339
2.36101
2.30007
2.24055
2.18244
2.12571
2.07037
2.01641
1.96383
1.91266
1.86289
1.81454
1.76765
1.72221
1.67826
1.6358
1.59488
1.55549
1.51767
1.48143
1.44678
1.41375
1.38233
1.35252
1.32434
1.29776
1.27277
1.24936
1.22749
1.20713
1.18826
1.17082
1.15478
1.14009
1.1267
1.11456
1.10363
1.09385
1.08519
1.07761
1.07106
1.06554
1.06101
1.05747
1.05493
1.0534
1.05293
1.05356
1.05538
1.05849
1.06304
1.06921
1.07721
1.08732
1.09991
1.11541
1.13437
1.15748
1.18561
1.2199
1.26181
1.31325
1.3768
1.456
1.5558
1.68332
1.84911
2.06938
2.36999
2.79412
3.41716
4.3797
5.95145
8.72231
13.8968
25.4072
50.3807
149.622
186.939
216.738
255.236
314.743
407.513
542.286
710.907
878.137
994.907
1032.29
998.086
921.031
828.672
738.297
657.966
590.136
534.539
489.851
454.49
426.944
405.88
390.153
378.787
370.952
365.936
363.126
361.989
362.059
362.921
364.219
365.597
366.75
367.41
367.338
366.312
364.131
360.595
355.511
348.675
339.876
328.888
315.477
299.41
280.478
258.549
233.649
206.107
176.73
146.912
118.471
93.1217
71.8922
54.9398
41.8266
31.9042
24.5379
19.1719
15.3331
12.6297
10.7497
9.4567
8.57913
7.99675
7.62697
7.41305
7.31513
7.30383
7.35625
7.45347
7.57933
7.71975
7.86253
7.99723
8.11513
8.20924
8.27423
8.30644
8.30385
8.26593
8.19326
8.08848
7.95549
7.79797
7.62012
7.42628
7.22071
7.00735
6.78975
6.57096
6.35352
6.13948
5.93041
5.7275
5.53158
5.34318
5.1626
4.98994
4.82517
4.66814
4.5186
4.37627
4.24082
4.11187
3.98907
3.87203
3.76038
3.65375
3.55178
3.45414
3.36048
3.27051
3.18393
3.10047
3.01987
2.94192
2.8664
2.79312
2.72193
2.65267
2.58523
2.51951
2.4554
2.39285
2.33181
2.2722
2.21401
2.15719
2.10174
2.04765
1.99491
1.94354
1.89353
1.8449
1.79766
1.75184
1.70745
1.6645
1.62302
1.58303
1.54454
1.50758
1.47216
1.43829
1.40599
1.37527
1.34612
1.31855
1.29254
1.26809
1.24517
1.22375
1.20381
1.18532
1.16822
1.1525
1.13808
1.12494
1.11303
1.10229
1.09269
1.08418
1.07673
1.0703
1.06486
1.06041
1.05694
1.05445
1.05296
1.05252
1.05316
1.05499
1.05809
1.06262
1.06875
1.0767
1.08676
1.09927
1.11467
1.13352
1.1565
1.1845
1.21864
1.26038
1.31168
1.37513
1.45433
1.5543
1.68232
1.84926
2.07186
2.37709
2.81036
3.45188
4.45311
6.10962
9.07631
14.7302
27.5023
56.0516
163.19
190.424
68.4323
74.8089
85.3228
104.652
141.282
207.022
311.335
449.915
596.757
714.205
776.956
784.837
754.375
704.458
648.859
595.456
547.91
507.429
473.978
446.962
425.585
409.019
396.479
387.247
380.681
376.208
373.319
371.545
370.453
369.621
368.712
367.422
365.469
362.594
358.548
353.093
345.994
337.012
325.908
312.443
296.391
277.563
255.852
231.308
204.262
175.475
146.236
118.232
93.1059
71.9146
54.9012
41.7024
31.7055
24.2851
18.8841
15.0255
12.3125
10.4283
9.13212
8.24964
7.65954
7.2797
7.05502
6.94781
6.93089
6.9831
7.08662
7.22563
7.38581
7.55428
7.71975
7.87261
8.00494
8.11053
8.18477
8.22456
8.22826
8.1956
8.12739
8.02705
7.89756
7.7427
7.56676
7.37419
7.16936
6.95634
6.73877
6.51981
6.30207
6.08767
5.87823
5.67499
5.47878
5.29016
5.10945
4.93676
4.77204
4.61514
4.46584
4.32383
4.18877
4.0603
3.93806
3.82165
3.71071
3.60485
3.50373
3.40698
3.31429
3.22534
3.13982
3.05748
2.97805
2.9013
2.82701
2.755
2.6851
2.61715
2.55103
2.48662
2.42385
2.36262
2.30288
2.24459
2.18768
2.13214
2.07795
2.02508
1.97355
1.92335
1.87449
1.82698
1.78084
1.73607
1.6927
1.65075
1.61022
1.57115
1.53355
1.49743
1.46282
1.42973
1.39816
1.36813
1.33964
1.31268
1.28724
1.26332
1.24089
1.21993
1.20041
1.1823
1.16555
1.15014
1.13601
1.12313
1.11144
1.1009
1.09148
1.08313
1.07581
1.0695
1.06416
1.0598
1.0564
1.05396
1.05251
1.0521
1.05276
1.05459
1.05769
1.0622
1.0683
1.07621
1.0862
1.09864
1.11395
1.13269
1.15554
1.18339
1.21736
1.25894
1.31006
1.37336
1.45246
1.55245
1.68073
1.84837
2.07256
2.38107
2.82106
3.47654
4.50756
6.23158
9.35216
15.4079
28.9922
60.5851
164.636
192.122
24.4163
26.1365
28.5821
32.6681
40.4823
56.2464
87.0206
141.323
224.151
330.332
442.133
536.292
596.678
620.999
617.176
596.04
566.689
535.215
505.13
478.176
455.022
435.727
420.033
407.53
397.748
390.209
384.44
379.966
376.261
372.91
369.564
365.896
361.595
356.367
349.931
342.016
332.356
320.696
306.791
290.423
271.424
249.719
225.395
198.809
170.708
142.304
115.151
90.76
70.126
53.5093
40.5949
30.8104
23.5532
18.2786
14.5173
11.8777
10.047
8.7874
7.92684
7.34651
6.96721
6.73722
6.6224
6.59902
6.64876
6.75579
6.90523
7.08269
7.2745
7.46815
7.65276
7.81935
7.96091
8.07219
8.14958
8.19082
8.19492
8.1621
8.09423
7.99386
7.86397
7.70837
7.53138
7.33751
7.1312
6.91661
6.69745
6.47693
6.25772
6.04195
5.8313
5.62699
5.42989
5.24055
5.05928
4.88617
4.7212
4.56418
4.41488
4.273
4.13818
4.01006
3.88826
3.77238
3.66206
3.5569
3.45655
3.36065
3.26886
3.18088
3.0964
3.01513
2.93682
2.86124
2.78816
2.71738
2.64873
2.58206
2.51723
2.45412
2.39264
2.33271
2.27426
2.21724
2.16161
2.10731
2.05435
2.00269
1.95234
1.9033
1.85556
1.80915
1.76408
1.72035
1.67799
1.63701
1.59743
1.55927
1.52254
1.48726
1.45345
1.42112
1.39028
1.36093
1.33309
1.30673
1.28187
1.25848
1.23654
1.21604
1.19694
1.17921
1.16282
1.14772
1.13388
1.12126
1.1098
1.09947
1.09023
1.08204
1.07486
1.06867
1.06344
1.05916
1.05583
1.05346
1.05206
1.05167
1.05236
1.0542
1.05729
1.06179
1.06786
1.07572
1.08566
1.09802
1.11324
1.13187
1.15459
1.18229
1.21609
1.25748
1.3084
1.37149
1.45039
1.55025
1.67853
1.84644
2.07143
2.38184
2.82597
3.49049
4.54124
6.31198
9.53408
15.8754
29.7947
63.19
160.82
192.087
11.4635
11.9862
12.7036
13.7996
15.7088
19.4219
27.041
42.3121
70.3461
115.829
180.063
258.366
339.944
411.668
463.929
493.997
504.905
502.178
491.231
476.242
460.019
444.258
429.868
417.241
406.445
397.357
389.731
383.188
377.17
371.385
365.528
359.289
352.362
344.444
335.245
324.483
311.892
297.23
280.293
260.942
239.141
215.028
189.003
161.821
134.629
108.833
85.7609
66.2688
50.5678
38.362
29.1198
22.2751
17.3104
13.7781
11.3044
9.59099
8.41138
7.60221
7.05135
6.6852
6.45715
6.33801
6.30866
6.35485
6.46386
6.62266
6.81735
7.03347
7.25679
7.47435
7.67528
7.85116
7.99605
8.10613
8.17922
8.21437
8.21158
8.17242
8.0991
7.99345
7.85848
7.69801
7.51639
7.31815
7.10775
6.88937
6.66673
6.44305
6.22102
6.00277
5.78996
5.58381
5.38515
5.19453
5.01222
4.83832
4.67275
4.51533
4.36581
4.22385
4.08911
3.96119
3.83971
3.72426
3.61446
3.50992
3.41028
3.31516
3.22423
3.13717
3.05366
2.97344
2.89622
2.82176
2.74984
2.68027
2.61284
2.54742
2.48384
2.422
2.3618
2.30313
2.24594
2.19017
2.13578
2.08271
2.03095
1.98048
1.93129
1.88338
1.83675
1.79142
1.7474
1.7047
1.66333
1.62331
1.58465
1.54738
1.51151
1.47706
1.44404
1.41247
1.38235
1.35368
1.32648
1.30073
1.27644
1.25357
1.23213
1.21208
1.1934
1.17606
1.16002
1.14525
1.1317
1.11934
1.10812
1.098
1.08895
1.08092
1.07389
1.06782
1.0627
1.05851
1.05526
1.05294
1.05159
1.05124
1.05195
1.0538
1.0569
1.06138
1.06742
1.07525
1.08513
1.09742
1.11255
1.13107
1.15366
1.1812
1.21482
1.256
1.30668
1.36951
1.44814
1.54771
1.67572
1.84346
2.06848
2.37939
2.82502
3.49347
4.55329
6.34774
9.61518
16.1002
29.976
63.5893
154.496
191.284
7.48444
7.62564
7.83489
8.1599
8.70351
9.69437
11.6545
15.6877
23.76
38.6459
63.2762
99.6072
147.425
203.561
262.089
315.959
359.509
390.191
408.528
416.875
418.096
414.762
408.845
401.71
394.219
386.855
379.821
372.976
365.915
358.564
350.765
342.308
332.949
322.435
310.51
296.931
281.483
263.996
244.376
222.647
199.01
173.92
148.144
122.753
98.979
77.9132
60.2121
45.9899
34.949
26.602
20.4336
15.9706
12.8028
10.5885
9.05587
7.99914
7.27042
6.76877
6.42895
6.21108
6.09194
6.05802
6.10021
6.21014
6.37794
6.59123
6.83528
7.09394
7.35123
7.59287
7.80761
7.98768
8.12868
8.22882
8.28807
8.30743
8.28862
8.2357
8.14944
8.03183
7.88592
7.71551
7.5249
7.31857
7.10093
6.8761
6.64777
6.4191
6.19271
5.9707
5.75466
5.54577
5.34482
5.1523
4.96846
4.79332
4.62681
4.4687
4.3187
4.17646
4.04161
3.91374
3.79245
3.67733
3.56796
3.46396
3.36494
3.27054
3.18041
3.09422
3.01165
2.93241
2.85624
2.78287
2.71209
2.64367
2.57744
2.51323
2.45088
2.39028
2.33131
2.27389
2.21793
2.16339
2.1102
2.05834
2.00776
1.95845
1.91039
1.86359
1.81806
1.77379
1.73081
1.68911
1.64871
1.60964
1.5719
1.53551
1.50049
1.46685
1.43462
1.40379
1.37438
1.34639
1.31983
1.29468
1.27095
1.24862
1.22767
1.20808
1.18982
1.17287
1.15718
1.14274
1.12948
1.11739
1.1064
1.0965
1.08764
1.07978
1.07289
1.06695
1.06194
1.05785
1.05468
1.05243
1.05113
1.05082
1.05155
1.05342
1.05651
1.06098
1.067
1.07478
1.08461
1.09683
1.11188
1.13028
1.15274
1.18012
1.21356
1.25451
1.30492
1.36744
1.4457
1.54483
1.67233
1.83946
2.06375
2.37378
2.81832
3.48557
4.54379
6.33825
9.59642
16.0743
29.6255
61.9849
145.839
189.821
6.05595
6.07314
6.11785
6.20579
6.36679
6.66088
7.22055
8.34087
10.6202
15.091
23.2084
36.595
56.6044
83.8629
117.907
156.976
198.097
237.672
272.454
300.407
320.969
334.733
342.898
346.794
347.599
346.234
343.333
339.103
333.353
326.313
318.065
308.583
297.775
285.508
271.638
256.035
238.611
219.355
198.38
175.968
152.632
129.133
106.434
85.5414
67.2708
52.0468
39.8706
30.4426
23.3309
18.088
14.3035
11.6221
9.74929
8.45203
7.55459
6.93102
6.49577
6.19432
5.99473
5.88038
5.84383
5.88185
5.99155
6.16766
6.40091
6.6776
6.98024
7.28932
7.58562
7.85265
8.07843
8.25614
8.38364
8.46221
8.49503
8.48595
8.43985
8.36306
8.25449
8.11654
7.95235
7.76568
7.5607
7.34175
7.11308
6.87865
6.64201
6.40618
6.17365
5.94641
5.72594
5.51331
5.30925
5.11416
4.9282
4.75138
4.58353
4.4244
4.27365
4.13091
3.99576
3.86779
3.74655
3.63163
3.52259
3.41904
3.32058
3.22683
3.13743
3.05205
2.97036
2.89207
2.8169
2.74458
2.67489
2.6076
2.54252
2.47949
2.41834
2.35894
2.30119
2.24498
2.19023
2.13688
2.08487
2.03417
1.98475
1.93658
1.88964
1.84394
1.79948
1.75626
1.71429
1.67358
1.63415
1.596
1.55916
1.52364
1.48946
1.45663
1.42517
1.39508
1.36638
1.33906
1.31313
1.28859
1.26542
1.24361
1.22315
1.20402
1.18619
1.16963
1.1543
1.14018
1.12722
1.11539
1.10466
1.09497
1.0863
1.07861
1.07187
1.06607
1.06117
1.05718
1.05408
1.0519
1.05066
1.05039
1.05115
1.05303
1.05613
1.06059
1.06659
1.07434
1.08412
1.09627
1.11122
1.12952
1.15184
1.17906
1.21229
1.253
1.30312
1.36527
1.44307
1.54163
1.66838
1.83448
2.05731
2.36513
2.8061
3.46724
4.5137
6.28525
9.48429
15.8122
28.8164
58.8588
134.798
186.344
5.45469
5.42761
5.41351
5.41861
5.45347
5.53681
5.7061
6.04272
6.71867
8.06121
10.6081
15.1035
22.3938
33.2491
48.1822
67.3187
90.3154
116.311
143.941
171.496
197.252
219.823
238.399
252.75
263.087
269.852
273.544
274.53
272.671
268.353
261.856
253.355
242.952
230.703
216.65
200.861
183.466
164.7
144.945
124.754
104.843
86.0097
68.9964
54.328
42.2159
32.5754
25.1296
19.5228
15.3952
12.4182
10.3085
8.83243
7.80618
7.09151
6.58933
6.2324
5.97843
5.80396
5.69895
5.66196
5.69581
5.80378
5.98651
6.23973
6.55284
6.90875
7.2851
7.65684
7.99982
8.2942
8.52706
8.69312
8.79376
8.83483
8.82422
8.7701
8.68474
8.56938
8.42593
8.25682
8.06509
7.8543
7.62834
7.39125
7.14697
6.89918
6.65113
6.40561
6.16487
5.9307
5.70441
5.48693
5.27882
5.08039
4.89171
4.71268
4.54307
4.38257
4.23078
4.08729
3.95164
3.82338
3.70205
3.5872
3.47839
3.37519
3.2772
3.18403
3.0953
3.01067
2.92981
2.85242
2.7782
2.70688
2.63824
2.57204
2.50808
2.44619
2.3862
2.32798
2.2714
2.21637
2.1628
2.11063
2.05978
2.01023
1.96194
1.91488
1.86904
1.82442
1.781
1.73881
1.69784
1.6581
1.61962
1.58239
1.54644
1.51178
1.47843
1.4464
1.4157
1.38634
1.35834
1.33169
1.30639
1.28244
1.25984
1.23856
1.21859
1.19992
1.18251
1.16634
1.15138
1.13758
1.12493
1.11337
1.10287
1.09341
1.08493
1.07742
1.07084
1.06516
1.06039
1.05649
1.05348
1.05137
1.05018
1.04996
1.05075
1.05265
1.05576
1.06022
1.06619
1.0739
1.08363
1.09572
1.11058
1.12877
1.15096
1.178
1.21103
1.25148
1.30127
1.36302
1.44029
1.53813
1.6639
1.82858
2.04926
2.35365
2.78874
3.43923
4.4647
6.19248
9.28894
15.3453
27.6176
54.757
121.875
179.254
5.17267
5.12784
5.09023
5.06272
5.0498
5.0584
5.10065
5.20093
5.41025
5.82938
6.63616
8.10595
10.6074
14.5598
20.3579
28.2933
38.5019
50.9414
65.3859
81.4216
98.4479
115.709
132.376
147.661
160.922
171.721
179.825
185.271
187.794
187.457
184.426
178.903
171.1
161.234
149.547
136.328
121.94
106.841
91.5795
76.7628
62.9804
50.7106
40.2407
31.6429
24.8112
19.5322
15.551
12.6132
10.487
8.97276
7.90642
7.15869
6.63193
6.25557
5.98146
5.77971
5.63495
5.54305
5.50784
5.5377
5.64216
5.82868
6.09973
6.45035
6.86668
7.32587
7.79792
8.24952
8.64929
8.9728
9.20613
9.34666
9.40124
9.38261
9.30551
9.18483
9.04036
8.86999
8.67665
8.46318
8.23256
7.98803
7.73305
7.47116
7.2058
6.94016
6.67706
6.41888
6.16753
5.92448
5.6908
5.46718
5.25399
5.05138
4.85927
4.67747
4.50563
4.34336
4.19021
4.0457
3.90933
3.7806
3.65901
3.5441
3.4354
3.33245
3.23484
3.14216
3.05404
2.9701
2.89001
2.81345
2.74013
2.66978
2.60214
2.53698
2.4741
2.41331
2.35445
2.29737
2.24194
2.18806
2.13564
2.08461
2.0349
1.98647
1.93929
1.89332
1.84856
1.80499
1.76261
1.72142
1.68144
1.64266
1.6051
1.56878
1.53371
1.4999
1.46737
1.43613
1.40619
1.37757
1.35026
1.32427
1.2996
1.27625
1.25421
1.23346
1.21398
1.19577
1.17879
1.16301
1.1484
1.13494
1.12259
1.11131
1.10106
1.09182
1.08354
1.0762
1.06978
1.06425
1.05959
1.0558
1.05288
1.05084
1.04971
1.04953
1.05036
1.05228
1.05539
1.05984
1.0658
1.07348
1.08316
1.09518
1.10996
1.12804
1.15009
1.17696
1.20977
1.24994
1.29939
1.36068
1.43734
1.53435
1.65892
1.82183
2.03974
2.33956
2.76672
3.40253
4.39897
6.06514
9.02308
14.7158
26.1057
50.1482
107.968
167.9
5.03227
4.97956
4.93156
4.88982
4.85659
4.83492
4.82934
4.84789
4.90653
5.03706
5.2977
5.78359
6.63237
8.01972
10.1408
13.1789
17.2705
22.4796
28.7866
36.091
44.2197
52.9328
61.9279
70.8471
79.2932
86.8556
93.1444
97.9643
101.429
103.166
102.972
100.8
96.7348
90.97
83.7876
75.5443
66.6543
57.5646
48.7146
40.4878
33.1657
26.9033
21.7323
17.5906
14.3597
11.8975
10.0598
8.71354
7.74218
7.04865
6.55502
6.20104
5.94211
5.74725
5.59747
5.48422
5.408
5.37661
5.40294
5.5022
5.68885
5.97334
6.35884
6.83824
7.39215
7.98882
8.58687
9.14106
9.60984
9.96271
10.185
10.2788
10.2594
10.1498
9.97478
9.76227
9.53315
9.28501
9.02215
8.74765
8.46414
8.17422
7.88058
7.58597
7.29306
7.00432
6.72191
6.44764
6.18291
5.92877
5.6859
5.45468
5.23525
5.0275
4.8312
4.64598
4.4714
4.30695
4.15209
4.00626
3.86892
3.73951
3.6175
3.50238
3.39365
3.29084
3.19352
3.10125
3.01365
2.93033
2.85094
2.77517
2.70269
2.63325
2.56656
2.50241
2.44056
2.38084
2.32306
2.26708
2.21277
2.16001
2.10871
2.05879
2.0102
1.96287
1.91677
1.87187
1.82817
1.78563
1.74427
1.70407
1.66506
1.62722
1.59059
1.55516
1.52096
1.48799
1.45628
1.42582
1.39664
1.36874
1.34212
1.3168
1.29276
1.27
1.24852
1.22829
1.20932
1.19156
1.17501
1.15963
1.14539
1.13226
1.12021
1.10921
1.09921
1.09019
1.08212
1.07496
1.0687
1.06331
1.05877
1.05509
1.05226
1.05029
1.04923
1.04909
1.04996
1.0519
1.05503
1.05948
1.06542
1.07307
1.0827
1.09466
1.10935
1.12732
1.14923
1.17593
1.20851
1.2484
1.29747
1.35826
1.43425
1.53031
1.65349
1.8143
2.02888
2.32316
2.74058
3.35829
4.31907
5.90943
8.70094
13.969
24.3663
45.3721
94.0316
152.787
4.96072
4.90421
4.85125
4.80276
4.76004
4.7247
4.69873
4.68507
4.68902
4.72084
4.79983
4.95879
5.24742
5.73255
6.49419
7.61649
9.17453
11.2193
13.7652
16.7831
20.1998
23.9031
27.7479
31.5624
35.1537
38.3123
40.8205
42.513
43.8873
44.7469
44.9147
44.2699
42.7708
40.4629
37.4722
33.9861
30.2271
26.4219
22.7716
19.4295
16.4909
13.996
11.9408
10.2923
9.00135
8.01237
7.26976
6.72172
6.32228
6.03229
5.81965
5.65934
5.5334
5.43097
5.34837
5.28907
5.26329
5.28695
5.37977
5.56268
5.85458
6.2686
6.80789
7.46147
8.20133
8.98245
9.74699
10.4328
10.9844
11.3635
11.5555
11.5701
11.4356
11.1905
10.8747
10.5388
10.1896
9.83451
9.47798
9.12242
8.76943
8.42043
8.07689
7.74036
7.41242
7.09452
6.78793
6.49364
6.2124
5.94464
5.69056
5.45013
5.22312
5.00919
4.80784
4.61852
4.44062
4.27352
4.11656
3.9691
3.83051
3.7002
3.57757
3.46208
3.35318
3.2504
3.15325
3.0613
2.97413
2.89136
2.81261
2.73755
2.66587
2.59728
2.5315
2.46829
2.40744
2.34873
2.292
2.23709
2.18386
2.13218
2.08198
2.03315
1.98563
1.93938
1.89434
1.8505
1.80783
1.76631
1.72594
1.68673
1.64867
1.61177
1.57604
1.54151
1.50816
1.47603
1.44512
1.41545
1.38702
1.35984
1.33392
1.30925
1.28584
1.26368
1.24276
1.22307
1.20458
1.18729
1.17117
1.15619
1.14231
1.12952
1.11778
1.10706
1.09732
1.08853
1.08066
1.07369
1.06759
1.06234
1.05793
1.05435
1.05162
1.04973
1.04873
1.04865
1.04955
1.05152
1.05466
1.05911
1.06504
1.07266
1.08225
1.09414
1.10876
1.12662
1.14839
1.17491
1.20726
1.24685
1.29552
1.35578
1.43102
1.52603
1.64766
1.80608
2.01684
2.30473
2.71092
3.30776
4.22771
5.7319
8.3373
13.148
22.4894
40.6502
80.8301
135.229
4.92437
4.86594
4.81046
4.75855
4.71106
4.66897
4.63333
4.60537
4.58695
4.58146
4.59524
4.63954
4.73222
4.8984
5.16943
5.57987
6.16278
6.9438
7.93497
9.12933
10.4977
11.9879
13.5273
15.0261
16.3832
17.4922
18.2487
18.5854
18.7922
18.8421
18.7045
18.3532
17.7755
16.9786
15.9923
14.8658
13.6601
12.4385
11.258
10.1631
9.18396
8.33631
7.62426
7.04291
6.58114
6.2239
5.95411
5.75417
5.60706
5.49733
5.41191
5.34092
5.27854
5.22382
5.18157
5.16289
5.18514
5.27105
5.44684
5.73947
6.17285
6.76309
7.51257
8.40405
9.39651
10.4256
11.4101
12.2646
12.9149
13.3127
13.4442
13.3308
13.0208
12.5757
12.0593
11.5458
11.0358
10.539
10.0599
9.59967
9.15792
8.73412
8.32786
7.93901
7.56758
7.2137
6.87742
6.55871
6.25741
5.97321
5.70567
5.45421
5.2182
4.99691
4.78956
4.59537
4.41354
4.24326
4.08378
3.93434
3.79422
3.66276
3.5393
3.42326
3.31405
3.21115
3.11407
3.02233
2.93551
2.85319
2.77501
2.7006
2.62965
2.56184
2.49692
2.43461
2.3747
2.31697
2.26125
2.20736
2.15517
2.10455
2.0554
2.00763
1.96117
1.91597
1.87198
1.82916
1.7875
1.74699
1.7076
1.66935
1.63224
1.59626
1.56144
1.52778
1.4953
1.464
1.43389
1.405
1.37732
1.35086
1.32563
1.30162
1.27884
1.25728
1.23692
1.21776
1.19978
1.18295
1.16726
1.15268
1.13918
1.12673
1.1153
1.10486
1.09538
1.08682
1.07916
1.07238
1.06644
1.06134
1.05706
1.0536
1.05095
1.04915
1.04821
1.04819
1.04913
1.05113
1.05428
1.05874
1.06465
1.07225
1.0818
1.09363
1.10816
1.12592
1.14755
1.17389
1.206
1.24528
1.29354
1.35323
1.42768
1.52154
1.64146
1.79725
2.00378
2.28459
2.67836
3.25224
4.12763
5.53902
7.94664
12.2907
20.561
36.1212
68.8383
116.823
4.90633
4.84691
4.79011
4.73638
4.68634
4.64066
4.59999
4.56493
4.5362
4.51493
4.50312
4.5045
4.52529
4.57477
4.66513
4.8104
5.02455
5.31901
5.69997
6.16586
6.70548
7.29715
7.90906
8.50107
9.02775
9.44264
9.70379
9.79955
9.8277
9.78696
9.67735
9.50051
9.26035
8.96373
8.62075
8.24449
7.85001
7.45303
7.06846
6.70914
6.38503
6.10274
5.86552
5.67341
5.52372
5.41151
5.33029
5.2726
5.23078
5.1977
5.16766
5.13731
5.10681
5.08103
5.07066
5.09311
5.1725
5.33882
5.62587
6.06811
6.69594
7.52905
8.56798
9.7856
11.1217
12.4847
13.7612
14.8346
15.6057
16.0125
16.0417
15.7305
15.1556
14.414
13.6143
12.8485
12.1156
11.4278
10.7879
10.1932
9.63968
9.1229
8.63942
8.18655
7.76224
7.36478
6.99272
6.64471
6.31945
6.01569
5.73218
5.46771
5.22108
4.99115
4.77677
4.57687
4.39041
4.21641
4.05394
3.90213
3.76016
3.62728
3.50277
3.38598
3.27629
3.17314
3.07599
2.98436
2.89778
2.81584
2.73813
2.6643
2.59401
2.52694
2.46281
2.40135
2.34233
2.28553
2.23077
2.17787
2.12668
2.07707
2.02895
1.98221
1.93678
1.8926
1.84963
1.80782
1.76716
1.72763
1.68922
1.65192
1.61574
1.58068
1.54675
1.51396
1.48233
1.45186
1.42256
1.39444
1.36751
1.34177
1.31723
1.29389
1.27174
1.25077
1.23098
1.21236
1.19487
1.17852
1.16326
1.14909
1.13596
1.12386
1.11274
1.10259
1.09337
1.08505
1.07761
1.07101
1.06525
1.0603
1.05615
1.0528
1.05025
1.04854
1.04767
1.0477
1.04869
1.05071
1.05389
1.05834
1.06425
1.07183
1.08133
1.09311
1.10756
1.12521
1.1467
1.17286
1.20473
1.24369
1.29152
1.35062
1.42423
1.51686
1.63496
1.7879
1.98987
2.26305
2.64352
3.19297
4.02149
5.33682
7.54232
11.4281
18.6562
31.8743
58.2623
98.9802
4.89776
4.83784
4.78033
4.72561
4.67413
4.6264
4.58288
4.54392
4.50984
4.48099
4.45795
4.44183
4.43463
4.43958
4.46122
4.50511
4.57714
4.68242
4.82408
5.00204
5.21216
5.44576
5.68974
5.92741
6.13997
6.30861
6.41717
6.46648
6.48585
6.47493
6.43461
6.36693
6.27501
6.16292
6.03554
5.89834
5.75713
5.61773
5.4856
5.36551
5.26121
5.1752
5.10855
5.06089
5.03048
5.01433
5.00854
5.00866
5.01021
5.00938
5.00383
4.99382
4.9835
4.98238
5.0068
5.08087
5.23663
5.51304
5.95381
6.60356
7.50139
8.67129
10.11
11.7755
13.5805
15.3963
17.0678
18.4376
19.3722
19.7878
19.6669
19.0637
18.0932
16.9069
15.7045
14.5598
13.5052
12.5514
11.695
10.925
10.2294
9.59697
9.01891
8.48852
8.00061
7.55107
7.13644
6.75369
6.40014
6.07336
5.77114
5.49145
5.23246
4.99247
4.76992
4.56339
4.37155
4.19321
4.02725
3.87266
3.72849
3.5939
3.46809
3.35034
3.23999
3.13642
3.03907
2.94742
2.86098
2.77931
2.702
2.62867
2.55896
2.49256
2.42916
2.36849
2.31031
2.25439
2.20054
2.14858
2.09836
2.04974
2.0026
1.95686
1.91243
1.86925
1.82728
1.78646
1.74678
1.70821
1.67075
1.6344
1.59914
1.56499
1.53195
1.50003
1.46924
1.43959
1.41109
1.38375
1.35757
1.33256
1.30871
1.28603
1.26451
1.24415
1.22493
1.20684
1.18987
1.17398
1.15917
1.1454
1.13266
1.1209
1.11011
1.10025
1.09129
1.08321
1.07598
1.06958
1.06399
1.05919
1.05518
1.05195
1.0495
1.04787
1.04708
1.04717
1.0482
1.05026
1.05345
1.05791
1.06382
1.07137
1.08084
1.09256
1.10694
1.12448
1.14583
1.17181
1.20344
1.24207
1.28946
1.34794
1.42067
1.51202
1.62818
1.77812
1.97527
2.24042
2.60697
3.13114
3.9117
5.1306
7.13603
10.5846
16.834
27.9686
49.1198
82.6652
4.89398
4.8338
4.77592
4.72063
4.66829
4.61931
4.57404
4.53272
4.49551
4.46251
4.43381
4.40965
4.39053
4.37741
4.37182
4.37577
4.39162
4.42156
4.46716
4.52873
4.60491
4.69241
4.786
4.8789
4.96339
5.03178
5.07752
5.10259
5.11579
5.11677
5.1058
5.08382
5.05233
5.01339
4.96942
4.92314
4.87737
4.8349
4.79824
4.76951
4.75023
4.74117
4.74231
4.75273
4.77067
4.79363
4.81857
4.84227
4.86175
4.87504
4.88206
4.88595
4.89465
4.92277
4.99327
5.13861
5.40101
5.83148
6.48739
7.42736
8.70207
10.3404
12.3324
14.6148
17.0646
19.5067
21.7336
23.534
24.725
25.1842
24.876
23.8661
22.3154
20.4568
18.6203
16.9079
15.3713
14.025
12.8574
11.8442
10.9585
10.1766
9.47972
8.85401
8.28914
7.77726
7.31206
6.88832
6.50156
6.14787
5.82384
5.52649
5.25318