/*--------------------------------*- C++ -*----------------------------------*\
| =========                 |                                                 |
| \\      /  F ield         | OpenFOAM: The Open Source CFD Toolbox           |
|  \\    /   O peration     | Version:  2.4.0                                 |
|   \\  /    A nd           | Web:      www.OpenFOAM.org                      |
|    \\/     M anipulation  |                                                 |
\*---------------------------------------------------------------------------*/
FoamFile
{
    version     2.0;
    format      ascii;
    class       volVectorField;
    location    "0.186";
    object      UMean;
}
// * * * * * * * * * * * * * * * * * * * * * * * * * * * * * * * * * * * * * //

dimensions      [0 1 -1 0 0 0 0];

internalField   nonuniform List<vector> 
17600
(
(5.34211 0.307866 0)
(3.02918 0.0607325 0)
(2.25115 -0.00145579 0)
(1.90721 -0.00352117 0)
(1.771 -0.00132775 0)
(1.67829 -0.00016541 0)
(1.61466 -1.5972e-05 0)
(1.55495 -4.06774e-06 0)
(1.52201 -0.000175338 0)
(1.4844 4.98791e-06 0)
(1.46912 -0.000119694 0)
(1.43985 0.000133166 0)
(1.43188 -0.000117313 0)
(1.40698 0.00011071 0)
(1.40585 -0.000249767 0)
(1.39099 -0.00011743 0)
(1.39821 -0.000481199 0)
(1.40905 -0.000479376 0)
(1.44404 -0.00116321 0)
(1.42373 -0.0287116 0)
(8.59494 0.866115 0)
(6.98348 0.379904 0)
(5.87231 0.119941 0)
(5.12618 0.0498387 0)
(4.73722 0.0270956 0)
(4.4675 0.019407 0)
(4.2924 0.0149596 0)
(4.12712 0.0114862 0)
(4.03472 0.00832247 0)
(3.92501 0.00681353 0)
(3.88116 0.0051444 0)
(3.79616 0.00512479 0)
(3.77527 0.00362293 0)
(3.70268 0.00394143 0)
(3.6985 0.00147107 0)
(3.64882 0.0019358 0)
(3.65874 -0.00223174 0)
(3.66631 -0.00389746 0)
(3.69719 -0.00523235 0)
(3.83531 -0.0846073 0)
(9.84031 1.01409 0)
(9.35571 0.57047 0)
(8.51997 0.237026 0)
(7.69427 0.127211 0)
(7.16814 0.0787937 0)
(6.77317 0.0548455 0)
(6.51889 0.0413982 0)
(6.27146 0.0317554 0)
(6.13454 0.0239602 0)
(5.96317 0.0192255 0)
(5.89747 0.0150615 0)
(5.76298 0.0138159 0)
(5.73389 0.0106644 0)
(5.61817 0.0104068 0)
(5.6135 0.00555721 0)
(5.52779 0.00546054 0)
(5.54361 -0.00263187 0)
(5.52135 -0.00569411 0)
(5.57619 -0.0197272 0)
(5.6913 -0.108229 0)
(10.1413 0.939957 0)
(10.557 0.659321 0)
(10.2798 0.323674 0)
(9.66338 0.205169 0)
(9.16951 0.142422 0)
(8.73243 0.102221 0)
(8.44841 0.0774123 0)
(8.14697 0.0594879 0)
(7.98667 0.0457614 0)
(7.76695 0.0366214 0)
(7.6891 0.0290937 0)
(7.51252 0.0262222 0)
(7.48066 0.0205251 0)
(7.32691 0.0201583 0)
(7.32511 0.0112848 0)
(7.20366 0.0124566 0)
(7.23071 -0.00309347 0)
(7.16222 -0.00386974 0)
(7.25611 -0.0381276 0)
(7.27772 -0.114639 0)
(10.0616 0.799638 0)
(10.8978 0.660134 0)
(11.1348 0.349072 0)
(10.8832 0.249914 0)
(10.6004 0.19597 0)
(10.2401 0.150009 0)
(10.0049 0.116845 0)
(9.6982 0.0909552 0)
(9.54963 0.0713407 0)
(9.30543 0.057165 0)
(9.233 0.0462486 0)
(9.02796 0.040646 0)
(9.00296 0.0331564 0)
(8.82013 0.0306673 0)
(8.82769 0.0205917 0)
(8.67605 0.0176866 0)
(8.71345 0.00403051 0)
(8.61592 -0.00973883 0)
(8.70268 -0.0348709 0)
(8.70631 -0.153187 0)
(9.98319 0.686512 0)
(10.8301 0.627422 0)
(11.3092 0.326593 0)
(11.3391 0.245826 0)
(11.3337 0.216106 0)
(11.1526 0.18038 0)
(11.0624 0.147906 0)
(10.8246 0.119119 0)
(10.7407 0.0958702 0)
(10.5127 0.0782722 0)
(10.4716 0.0637176 0)
(10.2641 0.0566882 0)
(10.2576 0.0454606 0)
(10.0666 0.0440035 0)
(10.0855 0.0273709 0)
(9.92403 0.0293293 0)
(9.96599 0.00157938 0)
(9.85688 0.00278697 0)
(9.93231 -0.0559258 0)
(9.91362 -0.148483 0)
(9.97478 0.597765 0)
(10.7001 0.594834 0)
(11.2328 0.297659 0)
(11.3445 0.216046 0)
(11.4995 0.202927 0)
(11.4612 0.182944 0)
(11.5407 0.158206 0)
(11.4221 0.132192 0)
(11.4568 0.110449 0)
(11.2975 0.092612 0)
(11.3269 0.0778095 0)
(11.1535 0.0693365 0)
(11.1898 0.0581632 0)
(11.0142 0.0538194 0)
(11.0608 0.0387656 0)
(10.9027 0.0334377 0)
(10.964 0.0119992 0)
(10.8466 -0.00340865 0)
(10.9284 -0.0504989 0)
(10.8798 -0.149242 0)
(9.99344 0.519069 0)
(10.595 0.559232 0)
(11.1363 0.279849 0)
(11.2517 0.189422 0)
(11.4501 0.180693 0)
(11.4462 0.171166 0)
(11.6071 0.152307 0)
(11.5653 0.129727 0)
(11.6961 0.109701 0)
(11.6213 0.0950827 0)
(11.7318 0.0807264 0)
(11.6312 0.0752868 0)
(11.7247 0.0621751 0)
(11.6068 0.0619222 0)
(11.688 0.0411466 0)
(11.5715 0.0427944 0)
(11.6517 0.00833001 0)
(11.5577 0.00714466 0)
(11.6443 -0.0673341 0)
(11.5774 -0.109041 0)
(10.0122 0.448757 0)
(10.5161 0.515869 0)
(11.0514 0.266465 0)
(11.1782 0.166861 0)
(11.3789 0.158931 0)
(11.3809 0.157089 0)
(11.543 0.141634 0)
(11.5312 0.121336 0)
(11.6762 0.101134 0)
(11.6559 0.0886835 0)
(11.7897 0.0749101 0)
(11.7595 0.0718609 0)
(11.8779 0.0590846 0)
(11.8372 0.0606004 0)
(11.9381 0.0397111 0)
(11.8947 0.0421644 0)
(11.9848 0.00601601 0)
(11.9511 0.00572068 0)
(12.0317 -0.0782417 0)
(11.9871 -0.107334 0)
(10.0125 0.385856 0)
(10.466 0.469088 0)
(10.9632 0.254496 0)
(11.1337 0.145779 0)
(11.3065 0.13831 0)
(11.3411 0.142898 0)
(11.4642 0.130524 0)
(11.4908 0.112395 0)
(11.5977 0.0914309 0)
(11.6244 0.080275 0)
(11.7233 0.0666056 0)
(11.749 0.0647727 0)
(11.8371 0.0524043 0)
(11.8614 0.0540532 0)
(11.9377 0.034751 0)
(11.9628 0.0339722 0)
(12.0336 0.00345809 0)
(12.0627 -0.0126337 0)
(12.1217 -0.0766509 0)
(12.1094 -0.171104 0)
(9.99478 0.327994 0)
(10.4324 0.423126 0)
(10.8783 0.242086 0)
(11.0989 0.127063 0)
(11.241 0.117884 0)
(11.3107 0.129833 0)
(11.397 0.118386 0)
(11.4559 0.104706 0)
(11.5302 0.081321 0)
(11.5879 0.0732945 0)
(11.6575 0.0574579 0)
(11.7121 0.0591309 0)
(11.7747 0.043971 0)
(11.8257 0.0486319 0)
(11.8825 0.0263784 0)
(11.9316 0.0281415 0)
(11.9894 -0.0066898 0)
(12.0354 -0.0218136 0)
(12.0854 -0.0950882 0)
(12.0688 -0.205509 0)
(9.98184 0.277492 0)
(10.3945 0.375884 0)
(10.8112 0.229929 0)
(11.0545 0.108317 0)
(11.193 0.0997637 0)
(11.2715 0.114982 0)
(11.3487 0.107463 0)
(11.412 0.0947587 0)
(11.4825 0.0732401 0)
(11.5432 0.0643364 0)
(11.6113 0.0511751 0)
(11.6661 0.0510983 0)
(11.7292 0.0392329 0)
(11.7776 0.0398585 0)
(11.8366 0.0224397 0)
(11.8832 0.0164215 0)
(11.9411 -0.0108641 0)
(11.9836 -0.0398072 0)
(12.0308 -0.107517 0)
(11.9975 -0.229889 0)
(9.9806 0.23247 0)
(10.3544 0.329349 0)
(10.7574 0.213279 0)
(11.0069 0.0925289 0)
(11.155 0.0821844 0)
(11.2317 0.100715 0)
(11.3088 0.0951425 0)
(11.3684 0.0849285 0)
(11.4415 0.0640273 0)
(11.5001 0.056201 0)
(11.5711 0.0438219 0)
(11.6235 0.0441568 0)
(11.689 0.0328777 0)
(11.7338 0.0329078 0)
(11.7956 0.0160215 0)
(11.8383 0.00825734 0)
(11.8965 -0.0189498 0)
(11.9367 -0.0535623 0)
(11.9775 -0.121178 0)
(11.9337 -0.246114 0)
(9.97995 0.192834 0)
(10.3234 0.283433 0)
(10.7082 0.191257 0)
(10.9674 0.0789653 0)
(11.119 0.068128 0)
(11.2009 0.0858146 0)
(11.2702 0.0840349 0)
(11.3341 0.0736148 0)
(11.4013 0.0563321 0)
(11.4666 0.0469589 0)
(11.5313 0.0380805 0)
(11.5914 0.0359451 0)
(11.649 0.0282199 0)
(11.7014 0.0242734 0)
(11.7555 0.0110463 0)
(11.8037 -0.00159656 0)
(11.855 -0.0265972 0)
(11.8996 -0.0662384 0)
(11.9278 -0.134352 0)
(11.8847 -0.257741 0)
(9.97736 0.155836 0)
(10.2997 0.240114 0)
(10.6661 0.163211 0)
(10.935 0.0684385 0)
(11.0894 0.0546427 0)
(11.1763 0.0726062 0)
(11.2391 0.0712336 0)
(11.3059 0.063419 0)
(11.3694 0.0469665 0)
(11.4391 0.0396224 0)
(11.5005 0.0305557 0)
(11.5652 0.029723 0)
(11.6182 0.021218 0)
(11.6752 0.0179943 0)
(11.7242 0.00364423 0)
(11.7758 -0.00922785 0)
(11.823 -0.0357385 0)
(11.8676 -0.0774873 0)
(11.8878 -0.145117 0)
(11.8439 -0.27262 0)
(9.97871 0.123296 0)
(10.2767 0.19564 0)
(10.6358 0.134586 0)
(10.9045 0.056644 0)
(11.0694 0.043462 0)
(11.1531 0.0577194 0)
(11.2188 0.0596005 0)
(11.2798 0.0508037 0)
(11.3485 0.0393637 0)
(11.4132 0.0301038 0)
(11.4811 0.0254278 0)
(11.5395 0.0208349 0)
(11.5987 0.01703 0)
(11.6498 0.00819364 0)
(11.7031 -0.000155614 0)
(11.7496 -0.0213446 0)
(11.7997 -0.0400751 0)
(11.8364 -0.0935634 0)
(11.8569 -0.147524 0)
(11.8045 -0.291423 0)
(9.98147 0.0933607 0)
(10.2577 0.15156 0)
(10.6122 0.10502 0)
(10.8797 0.0452083 0)
(11.0535 0.0323696 0)
(11.1346 0.0440715 0)
(11.202 0.0465194 0)
(11.259 0.0394079 0)
(11.3307 0.0300823 0)
(11.3924 0.0227282 0)
(11.4638 0.0181541 0)
(11.5186 0.0149213 0)
(11.5814 0.00964373 0)
(11.6281 0.00293048 0)
(11.6842 -0.00896517 0)
(11.7272 -0.0260267 0)
(11.7774 -0.0529352 0)
(11.8097 -0.0968951 0)
(11.8286 -0.164454 0)
(11.767 -0.270273 0)
(9.98056 0.0648923 0)
(10.2467 0.108215 0)
(10.5913 0.0750258 0)
(10.8637 0.0334775 0)
(11.0381 0.0219955 0)
(11.1233 0.0311001 0)
(11.1853 0.0332391 0)
(11.2455 0.0280754 0)
(11.3129 0.0209673 0)
(11.3791 0.0154101 0)
(11.4459 0.011264 0)
(11.5052 0.00849045 0)
(11.5635 0.00275276 0)
(11.6134 -0.00345851 0)
(11.6659 -0.0165936 0)
(11.7109 -0.0325899 0)
(11.756 -0.0629116 0)
(11.79 -0.10282 0)
(11.803 -0.177866 0)
(11.7405 -0.252082 0)
(9.97869 0.0392405 0)
(10.2404 0.0636457 0)
(10.5769 0.046256 0)
(10.8539 0.0192472 0)
(11.0272 0.0139713 0)
(11.1162 0.0167972 0)
(11.174 0.0213413 0)
(11.2372 0.0148286 0)
(11.301 0.0134212 0)
(11.3707 0.00630308 0)
(11.4338 0.00632719 0)
(11.4971 -0.000156938 0)
(11.5511 -0.00167784 0)
(11.6049 -0.0128772 0)
(11.6529 -0.0207043 0)
(11.7002 -0.0437593 0)
(11.7409 -0.0667601 0)
(11.7764 -0.116307 0)
(11.7825 -0.178735 0)
(11.7197 -0.271727 0)
(9.97952 0.012705 0)
(10.2356 0.0213365 0)
(10.5718 0.015232 0)
(10.8473 0.00660072 0)
(11.0239 0.00416137 0)
(11.1112 0.005453 0)
(11.1711 0.00634975 0)
(11.2316 0.00470739 0)
(11.2979 0.00234888 0)
(11.3648 0.00111644 0)
(11.4308 -0.00279152 0)
(11.4916 -0.00396217 0)
(11.5476 -0.0111775 0)
(11.5994 -0.0164223 0)
(11.6479 -0.0309037 0)
(11.6929 -0.0475732 0)
(11.7343 -0.0780196 0)
(11.7653 -0.121216 0)
(11.7705 -0.186538 0)
(11.704 -0.291761 0)
(9.98079 -0.0116535 0)
(10.2345 -0.0231123 0)
(10.573 -0.0136845 0)
(10.8462 -0.00885852 0)
(11.0252 -0.00271607 0)
(11.1103 -0.00896906 0)
(11.1729 -0.00530824 0)
(11.2305 -0.00916793 0)
(11.2997 -0.00456771 0)
(11.3637 -0.00878173 0)
(11.4328 -0.00675231 0)
(11.4901 -0.0137151 0)
(11.5494 -0.0142043 0)
(11.5972 -0.0273506 0)
(11.6482 -0.0328905 0)
(11.6899 -0.0607064 0)
(11.7322 -0.0789654 0)
(11.7584 -0.136928 0)
(11.7633 -0.182118 0)
(11.693 -0.314342 0)
(9.98066 -0.037858 0)
(10.2387 -0.0658125 0)
(10.5791 -0.0442408 0)
(10.8521 -0.0219859 0)
(11.0297 -0.0119803 0)
(11.1146 -0.0208962 0)
(11.1773 -0.0195921 0)
(11.2352 -0.0199522 0)
(11.3045 -0.0147849 0)
(11.3684 -0.0147988 0)
(11.4373 -0.0150617 0)
(11.4941 -0.0182364 0)
(11.5537 -0.0233176 0)
(11.6001 -0.0308092 0)
(11.6518 -0.0437191 0)
(11.6915 -0.0627467 0)
(11.7329 -0.0927786 0)
(11.7568 -0.135478 0)
(11.7593 -0.19873 0)
(11.6846 -0.279858 0)
(9.97938 -0.0642336 0)
(10.2479 -0.109516 0)
(10.5906 -0.0738762 0)
(10.8646 -0.0352003 0)
(11.0376 -0.0210733 0)
(11.1238 -0.0340775 0)
(11.1851 -0.0327351 0)
(11.2456 -0.0318376 0)
(11.3129 -0.0237955 0)
(11.3785 -0.0222514 0)
(11.4449 -0.0217309 0)
(11.5037 -0.02457 0)
(11.5604 -0.0301355 0)
(11.6089 -0.0366423 0)
(11.658 -0.0517369 0)
(11.6982 -0.067432 0)
(11.7367 -0.103447 0)
(11.7605 -0.136648 0)
(11.761 -0.212654 0)
(11.687 -0.24641 0)
(9.97826 -0.0918487 0)
(10.2611 -0.153876 0)
(10.6089 -0.102938 0)
(10.8827 -0.0480592 0)
(11.0501 -0.030388 0)
(11.1371 -0.0484069 0)
(11.198 -0.0446279 0)
(11.2606 -0.0449206 0)
(11.3264 -0.0310689 0)
(11.3929 -0.031845 0)
(11.4575 -0.0259516 0)
(11.5175 -0.0340762 0)
(11.5721 -0.0330546 0)
(11.6224 -0.0473581 0)
(11.6685 -0.053303 0)
(11.7097 -0.0801419 0)
(11.7454 -0.103354 0)
(11.7693 -0.152331 0)
(11.768 -0.206484 0)
(11.691 -0.267969 0)
(9.97753 -0.122745 0)
(10.2784 -0.196813 0)
(10.6342 -0.133572 0)
(10.9061 -0.0582161 0)
(11.0677 -0.0427304 0)
(11.1545 -0.060574 0)
(11.2163 -0.059116 0)
(11.2803 -0.054846 0)
(11.3455 -0.0416814 0)
(11.412 -0.0377504 0)
(11.4759 -0.0345617 0)
(11.5356 -0.0386089 0)
(11.5899 -0.0416634 0)
(11.64 -0.0513854 0)
(11.685 -0.0622423 0)
(11.7256 -0.0841577 0)
(11.7599 -0.112392 0)
(11.7828 -0.15783 0)
(11.7803 -0.21183 0)
(11.7013 -0.284377 0)
(9.97715 -0.154776 0)
(10.3001 -0.241816 0)
(10.6667 -0.161737 0)
(10.9351 -0.0704025 0)
(11.0902 -0.0534252 0)
(11.1764 -0.0757748 0)
(11.2399 -0.0703331 0)
(11.3049 -0.0678274 0)
(11.3702 -0.0487072 0)
(11.4362 -0.0477454 0)
(11.4995 -0.0389199 0)
(11.5588 -0.0478851 0)
(11.613 -0.0450351 0)
(11.6623 -0.0607246 0)
(11.707 -0.0653042 0)
(11.7465 -0.0937639 0)
(11.7798 -0.115649 0)
(11.8013 -0.1683 0)
(11.7978 -0.214871 0)
(11.7188 -0.295534 0)
(9.97748 -0.192005 0)
(10.3267 -0.284903 0)
(10.7065 -0.190089 0)
(10.9702 -0.0807085 0)
(11.1177 -0.067196 0)
(11.2035 -0.0887238 0)
(11.2689 -0.0834338 0)
(11.335 -0.0778302 0)
(11.4004 -0.0581698 0)
(11.4659 -0.0549981 0)
(11.5285 -0.0462897 0)
(11.5876 -0.053935 0)
(11.6414 -0.0517219 0)
(11.6899 -0.0661576 0)
(11.7344 -0.0723514 0)
(11.7726 -0.0984276 0)
(11.8052 -0.124108 0)
(11.8248 -0.171997 0)
(11.8214 -0.227441 0)
(11.7419 -0.286103 0)
(9.98173 -0.231927 0)
(10.3569 -0.330402 0)
(10.7552 -0.212652 0)
(11.0105 -0.0938466 0)
(11.152 -0.0816932 0)
(11.2357 -0.10309 0)
(11.3044 -0.0951898 0)
(11.3709 -0.0886442 0)
(11.4367 -0.0664663 0)
(11.5014 -0.063733 0)
(11.5632 -0.0524344 0)
(11.6223 -0.0615799 0)
(11.6749 -0.0565638 0)
(11.7237 -0.0735109 0)
(11.7668 -0.0768395 0)
(11.8047 -0.105513 0)
(11.8354 -0.12903 0)
(11.8546 -0.179121 0)
(11.8509 -0.236385 0)
(11.7733 -0.283105 0)
(9.99551 -0.277133 0)
(10.3858 -0.376754 0)
(10.8178 -0.22927 0)
(11.049 -0.109583 0)
(11.1971 -0.0990006 0)
(11.2671 -0.117336 0)
(11.35 -0.107296 0)
(11.407 -0.09866 0)
(11.4821 -0.0752973 0)
(11.5379 -0.0723017 0)
(11.6063 -0.0590628 0)
(11.6584 -0.0691551 0)
(11.7162 -0.0612421 0)
(11.7597 -0.0813888 0)
(11.8063 -0.0798703 0)
(11.8401 -0.114523 0)
(11.872 -0.129848 0)
(11.8883 -0.191509 0)
(11.8848 -0.236057 0)
(11.8085 -0.304459 0)
(10.016 -0.328309 0)
(10.412 -0.423121 0)
(10.8966 -0.242257 0)
(11.0802 -0.127225 0)
(11.2567 -0.118268 0)
(11.2928 -0.130701 0)
(11.4105 -0.119803 0)
(11.4377 -0.106882 0)
(11.5422 -0.0853109 0)
(11.5695 -0.0791598 0)
(11.6642 -0.067578 0)
(11.6905 -0.0743411 0)
(11.7724 -0.0685727 0)
(11.7928 -0.085886 0)
(11.86 -0.0863738 0)
(11.8729 -0.118766 0)
(11.9195 -0.134773 0)
(11.9169 -0.197345 0)
(11.9179 -0.240172 0)
(11.8267 -0.324006 0)
(10.0272 -0.385602 0)
(10.4472 -0.469598 0)
(10.983 -0.254226 0)
(11.1126 -0.146449 0)
(11.3257 -0.138214 0)
(11.3197 -0.144243 0)
(11.4834 -0.131423 0)
(11.4683 -0.11524 0)
(11.6169 -0.0948948 0)
(11.6002 -0.0867148 0)
(11.738 -0.0757376 0)
(11.7198 -0.0805 0)
(11.8429 -0.075297 0)
(11.8174 -0.0913726 0)
(11.921 -0.0915805 0)
(11.8841 -0.123546 0)
(11.9564 -0.136997 0)
(11.8957 -0.202045 0)
(11.899 -0.239502 0)
(11.74 -0.340022 0)
(10.0174 -0.448649 0)
(10.5072 -0.51607 0)
(11.0638 -0.266671 0)
(11.1649 -0.166915 0)
(11.3923 -0.159511 0)
(11.367 -0.157646 0)
(11.557 -0.143201 0)
(11.5158 -0.12348 0)
(11.6899 -0.105181 0)
(11.6374 -0.0941415 0)
(11.7985 -0.0845374 0)
(11.7337 -0.0860649 0)
(11.8746 -0.0820801 0)
(11.79 -0.0951743 0)
(11.9024 -0.0953138 0)
(11.7912 -0.125096 0)
(11.8593 -0.134738 0)
(11.7042 -0.201616 0)
(11.6803 -0.226601 0)
(11.4062 -0.347289 0)
(9.9956 -0.518562 0)
(10.5915 -0.55984 0)
(11.143 -0.279822 0)
(11.2441 -0.18957 0)
(11.4586 -0.181259 0)
(11.4373 -0.171581 0)
(11.6157 -0.153912 0)
(11.5548 -0.131587 0)
(11.7027 -0.113824 0)
(11.6064 -0.0997529 0)
(11.7312 -0.0903693 0)
(11.6047 -0.0877478 0)
(11.705 -0.0848765 0)
(11.5478 -0.0924096 0)
(11.6183 -0.0948127 0)
(11.4289 -0.116263 0)
(11.4535 -0.130046 0)
(11.2142 -0.182705 0)
(11.1349 -0.216128 0)
(10.7795 -0.307725 0)
(9.97551 -0.59744 0)
(10.6991 -0.595341 0)
(11.2358 -0.297592 0)
(11.3408 -0.216266 0)
(11.5041 -0.203398 0)
(11.4552 -0.183399 0)
(11.5456 -0.159587 0)
(11.4133 -0.134087 0)
(11.4584 -0.113917 0)
(11.282 -0.0971914 0)
(11.3183 -0.0860516 0)
(11.1207 -0.0812343 0)
(11.1549 -0.0774051 0)
(10.9372 -0.0826458 0)
(10.9611 -0.0841305 0)
(10.7166 -0.102345 0)
(10.7068 -0.114199 0)
(10.4087 -0.160008 0)
(10.2979 -0.189625 0)
(9.88198 -0.260387 0)
(9.98371 -0.686211 0)
(10.83 -0.627805 0)
(11.3104 -0.326593 0)
(11.3374 -0.246096 0)
(11.3358 -0.216557 0)
(11.1483 -0.180765 0)
(11.0645 -0.149189 0)
(10.8161 -0.120646 0)
(10.7386 -0.0990575 0)
(10.495 -0.0819573 0)
(10.4575 -0.071211 0)
(10.2242 -0.0662862 0)
(10.2129 -0.063079 0)
(9.97286 -0.0671372 0)
(9.96606 -0.0688613 0)
(9.70177 -0.083826 0)
(9.66789 -0.0943656 0)
(9.34414 -0.132457 0)
(9.21121 -0.155209 0)
(8.76107 -0.2156 0)
(10.0622 -0.799412 0)
(10.8978 -0.660444 0)
(11.1355 -0.349115 0)
(10.882 -0.250162 0)
(10.601 -0.196291 0)
(10.2365 -0.150361 0)
(10.0047 -0.117838 0)
(9.69023 -0.092255 0)
(9.54416 -0.0738433 0)
(9.28729 -0.060299 0)
(9.21385 -0.0520331 0)
(8.98498 -0.0487818 0)
(8.94982 -0.0466294 0)
(8.7182 -0.0502262 0)
(8.69205 -0.0519921 0)
(8.43466 -0.063735 0)
(8.38313 -0.0730232 0)
(8.06132 -0.100779 0)
(7.91087 -0.123152 0)
(7.46733 -0.152327 0)
(10.1418 -0.939806 0)
(10.557 -0.659535 0)
(10.2802 -0.323727 0)
(9.66249 -0.205346 0)
(9.16907 -0.14264 0)
(8.72956 -0.102504 0)
(8.44695 -0.0781504 0)
(8.13955 -0.0604497 0)
(7.97912 -0.0476213 0)
(7.74908 -0.0388849 0)
(7.66727 -0.033448 0)
(7.46859 -0.0319946 0)
(7.42394 -0.030703 0)
(7.22152 -0.0338713 0)
(7.18419 -0.0352068 0)
(6.9539 -0.0440625 0)
(6.89166 -0.0507398 0)
(6.59253 -0.0704553 0)
(6.44147 -0.0867987 0)
(6.01031 -0.102489 0)
(9.8407 -1.01401 0)
(9.35581 -0.570612 0)
(8.52004 -0.237069 0)
(7.69344 -0.127323 0)
(7.16735 -0.0789121 0)
(6.77088 -0.05505 0)
(6.51679 -0.0418709 0)
(6.26467 -0.0323621 0)
(6.12667 -0.0251349 0)
(5.94626 -0.0206725 0)
(5.87563 -0.0177258 0)
(5.72153 -0.0176146 0)
(5.67832 -0.0169051 0)
(5.51857 -0.0193975 0)
(5.47768 -0.0201006 0)
(5.29038 -0.0260413 0)
(5.22465 -0.0298782 0)
(4.97057 -0.04225 0)
(4.82971 -0.0521679 0)
(4.43886 -0.0612975 0)
(8.59521 -0.866079 0)
(6.98359 -0.379977 0)
(5.87219 -0.119963 0)
(5.12549 -0.0498865 0)
(4.73648 -0.0271506 0)
(4.46564 -0.0195193 0)
(4.29029 -0.0151773 0)
(4.12162 -0.011773 0)
(4.02794 -0.008885 0)
(3.91109 -0.00749007 0)
(3.86272 -0.00640843 0)
(3.76227 -0.00688911 0)
(3.72845 -0.00655453 0)
(3.62134 -0.0080741 0)
(3.58506 -0.0082368 0)
(3.45487 -0.0113468 0)
(3.3961 -0.0127856 0)
(3.21166 -0.0188633 0)
(3.09341 -0.0229052 0)
(2.79535 -0.0280834 0)
(5.34222 -0.307856 0)
(3.02924 -0.0607491 0)
(2.25099 0.0014575 0)
(1.90682 0.0035169 0)
(1.77057 0.00132542 0)
(1.67735 0.000146329 0)
(1.61337 -5.66599e-06 0)
(1.55216 -2.98178e-05 0)
(1.51825 0.000108869 0)
(1.47722 -6.63429e-05 0)
(1.45926 -8.05881e-06 0)
(1.42244 -0.000323058 0)
(1.40693 -0.000169278 0)
(1.36527 -0.000566851 0)
(1.34591 -0.000369512 0)
(1.29217 -0.000991489 0)
(1.25969 -0.000817474 0)
(1.17899 -0.00183881 0)
(1.11441 -0.00205839 0)
(0.982468 0.00243211 0)
(2.06951 -0.175037 0)
(2.57031 -0.117246 0)
(3.05871 -0.126898 0)
(3.52496 -0.148797 0)
(3.94177 -0.180516 0)
(4.38936 -0.222931 0)
(4.88462 -0.245095 0)
(5.39905 -0.31469 0)
(5.93612 -0.398642 0)
(6.38801 -0.490076 0)
(6.83074 -0.614413 0)
(7.14637 -0.757702 0)
(7.44995 -0.894781 0)
(7.68516 -1.00613 0)
(7.90753 -1.09126 0)
(8.09143 -1.172 0)
(8.28259 -1.28542 0)
(8.43908 -1.43052 0)
(8.57326 -1.58917 0)
(8.72593 -1.74522 0)
(8.8461 -1.8933 0)
(8.97255 -2.02774 0)
(9.13236 -2.16041 0)
(9.24514 -2.28574 0)
(9.3556 -2.41373 0)
(9.41613 -2.52762 0)
(9.43614 -2.6078 0)
(9.43982 -2.66155 0)
(9.42058 -2.68901 0)
(9.39586 -2.70647 0)
(9.35696 -2.7098 0)
(9.33682 -2.71234 0)
(9.31099 -2.71066 0)
(9.26299 -2.70827 0)
(9.19801 -2.70184 0)
(9.11144 -2.69891 0)
(9.02524 -2.693 0)
(8.95994 -2.67548 0)
(8.94052 -2.64459 0)
(8.94605 -2.60041 0)
(8.94348 -2.55331 0)
(8.9223 -2.49345 0)
(8.89211 -2.43359 0)
(8.8565 -2.37747 0)
(8.82872 -2.30676 0)
(8.80529 -2.23503 0)
(8.77486 -2.15337 0)
(8.73511 -2.07199 0)
(8.63792 -1.96045 0)
(8.51445 -1.83464 0)
(8.40991 -1.72324 0)
(8.299 -1.59789 0)
(8.19446 -1.47808 0)
(8.10823 -1.36823 0)
(8.02535 -1.25783 0)
(7.9435 -1.164 0)
(7.88275 -1.08825 0)
(7.80279 -1.00448 0)
(7.73577 -0.920113 0)
(7.64282 -0.839005 0)
(7.54253 -0.734732 0)
(7.419 -0.627257 0)
(7.29824 -0.529238 0)
(7.19777 -0.441299 0)
(7.09364 -0.363507 0)
(6.99581 -0.29226 0)
(6.90002 -0.226552 0)
(6.81717 -0.172381 0)
(6.73264 -0.128763 0)
(6.65674 -0.0789681 0)
(6.60321 -0.0247383 0)
(6.55694 0.0250294 0)
(6.53025 0.0615035 0)
(6.49421 0.0821062 0)
(6.46809 0.0972722 0)
(6.46204 0.137732 0)
(6.452 0.187083 0)
(6.45071 0.23287 0)
(6.43345 0.281963 0)
(6.4506 0.320716 0)
(6.44187 0.34717 0)
(6.44182 0.36495 0)
(6.44957 0.380979 0)
(6.45097 0.377602 0)
(6.45453 0.361605 0)
(6.44322 0.345003 0)
(6.41316 0.345558 0)
(6.38938 0.353312 0)
(6.35111 0.351468 0)
(6.34531 0.365388 0)
(6.30231 0.370389 0)
(6.319 0.382437 0)
(6.316 0.381572 0)
(6.32182 0.408179 0)
(6.34934 0.410122 0)
(6.36858 0.422798 0)
(6.42385 0.429144 0)
(6.43609 0.454438 0)
(6.51858 0.453858 0)
(6.51619 0.46807 0)
(6.5753 0.467809 0)
(6.54913 0.505619 0)
(6.60464 0.506492 0)
(6.58404 0.552304 0)
(6.64406 0.551826 0)
(6.59178 0.607357 0)
(6.65856 0.589818 0)
(6.58386 0.639021 0)
(6.67394 0.621238 0)
(6.56664 0.670643 0)
(6.65427 0.629651 0)
(6.52726 0.654382 0)
(6.6137 0.603219 0)
(6.47283 0.625354 0)
(6.5859 0.553537 0)
(6.41849 0.57916 0)
(6.57109 0.5068 0)
(6.36521 0.52013 0)
(6.5271 0.431727 0)
(6.32975 0.449974 0)
(6.46942 0.360351 0)
(6.31496 0.393948 0)
(6.41437 0.296035 0)
(6.29926 0.353405 0)
(6.38035 0.238486 0)
(6.27675 0.310493 0)
(6.35949 0.170817 0)
(6.2425 0.251173 0)
(6.32253 0.104944 0)
(6.21886 0.208911 0)
(6.27583 0.0670361 0)
(6.24487 0.173238 0)
(6.23465 0.0119359 0)
(6.28328 0.106454 0)
(6.2169 -0.0556497 0)
(6.34116 0.03545 0)
(6.21088 -0.124385 0)
(6.4026 -0.0291357 0)
(6.20677 -0.163048 0)
(6.44311 -0.0688023 0)
(6.24335 -0.180551 0)
(6.44226 -0.0643258 0)
(6.30365 -0.176514 0)
(6.45572 -0.05424 0)
(6.34294 -0.151881 0)
(6.49075 -0.0481228 0)
(6.37304 -0.115335 0)
(6.50367 -0.0298138 0)
(6.42413 -0.0731207 0)
(6.51424 -0.00568423 0)
(6.47404 -0.029639 0)
(6.54475 0.0299621 0)
(6.51952 0.0258398 0)
(6.57579 0.0839299 0)
(6.54495 0.0888258 0)
(6.59315 0.137484 0)
(6.56289 0.132634 0)
(6.60659 0.187422 0)
(6.57311 0.172153 0)
(6.61617 0.235654 0)
(6.57697 0.220612 0)
(6.61508 0.285017 0)
(6.57984 0.264689 0)
(6.58754 0.330485 0)
(6.55924 0.313306 0)
(6.5293 0.376646 0)
(6.52534 0.355849 0)
(6.45638 0.42399 0)
(6.48851 0.405419 0)
(6.38937 0.491439 0)
(6.43594 0.491492 0)
(6.34012 0.598656 0)
(6.40936 0.611108 0)
(6.3235 0.741134 0)
(6.38989 0.757753 0)
(6.31008 0.905705 0)
(6.37571 0.916003 0)
(6.29754 1.0892 0)
(6.37317 1.09433 0)
(6.25888 1.2945 0)
(6.38728 1.29974 0)
(6.20787 1.51855 0)
(6.3892 1.51685 0)
(6.15951 1.75574 0)
(6.36155 1.74199 0)
(6.09212 1.99835 0)
(6.28611 1.98188 0)
(6.03307 2.26945 0)
(6.18864 2.26508 0)
(5.96222 2.59515 0)
(6.09936 2.63688 0)
(5.88097 3.01247 0)
(5.96781 3.14437 0)
(5.68714 3.57695 0)
(5.81012 3.8286 0)
(5.61141 4.39072 0)
(5.60825 4.81979 0)
(5.17251 5.88709 0)
(5.70915 6.65194 0)
(3.24788 9.79266 0)
(4.02261 -0.212027 0)
(4.21562 -0.225623 0)
(4.48875 -0.272854 0)
(4.80539 -0.312648 0)
(5.13098 -0.343535 0)
(5.47343 -0.390578 0)
(5.80958 -0.433132 0)
(6.16154 -0.502974 0)
(6.53661 -0.587613 0)
(6.86365 -0.670893 0)
(7.23095 -0.783144 0)
(7.52556 -0.90054 0)
(7.77543 -1.02051 0)
(8.01201 -1.1192 0)
(8.23876 -1.19561 0)
(8.45937 -1.26723 0)
(8.66232 -1.35509 0)
(8.83482 -1.48351 0)
(8.98112 -1.63462 0)
(9.11898 -1.79443 0)
(9.23071 -1.94003 0)
(9.35783 -2.07492 0)
(9.49407 -2.20705 0)
(9.60001 -2.32402 0)
(9.67097 -2.43672 0)
(9.69629 -2.53915 0)
(9.68583 -2.61265 0)
(9.67881 -2.66292 0)
(9.66577 -2.68584 0)
(9.64296 -2.69503 0)
(9.59794 -2.69556 0)
(9.5693 -2.69799 0)
(9.5326 -2.69247 0)
(9.47571 -2.68347 0)
(9.40405 -2.66617 0)
(9.31776 -2.65767 0)
(9.23509 -2.65838 0)
(9.16621 -2.65621 0)
(9.1351 -2.63797 0)
(9.12642 -2.59741 0)
(9.09537 -2.54593 0)
(9.05182 -2.47922 0)
(9.00312 -2.41576 0)
(8.95764 -2.35988 0)
(8.92034 -2.29282 0)
(8.87667 -2.22174 0)
(8.83135 -2.1329 0)
(8.76288 -2.03674 0)
(8.63506 -1.90955 0)
(8.50143 -1.785 0)
(8.38759 -1.67449 0)
(8.26538 -1.55285 0)
(8.15737 -1.44118 0)
(8.06319 -1.33135 0)
(7.97316 -1.22162 0)
(7.89055 -1.13237 0)
(7.82585 -1.0579 0)
(7.73695 -0.971241 0)
(7.66036 -0.883789 0)
(7.55524 -0.795716 0)
(7.44965 -0.684466 0)
(7.32413 -0.578961 0)
(7.21266 -0.483573 0)
(7.11886 -0.398277 0)
(7.02179 -0.322832 0)
(6.92952 -0.253437 0)
(6.8353 -0.18783 0)
(6.75267 -0.135711 0)
(6.66718 -0.093995 0)
(6.58858 -0.0488368 0)
(6.53161 -0.00279175 0)
(6.4855 0.0408943 0)
(6.46126 0.0736548 0)
(6.4276 0.0945416 0)
(6.39791 0.107484 0)
(6.38528 0.144718 0)
(6.37205 0.194453 0)
(6.36889 0.237843 0)
(6.34672 0.283998 0)
(6.36031 0.321835 0)
(6.35083 0.350184 0)
(6.34275 0.366439 0)
(6.3504 0.378357 0)
(6.35445 0.376697 0)
(6.35663 0.364911 0)
(6.34666 0.354269 0)
(6.31055 0.359705 0)
(6.28562 0.367794 0)
(6.24778 0.362939 0)
(6.23861 0.377878 0)
(6.20037 0.374626 0)
(6.21524 0.381754 0)
(6.21024 0.377291 0)
(6.22051 0.403366 0)
(6.24782 0.398016 0)
(6.26898 0.409225 0)
(6.32427 0.413725 0)
(6.34176 0.436834 0)
(6.42485 0.432756 0)
(6.43474 0.457793 0)
(6.48965 0.460366 0)
(6.46858 0.502698 0)
(6.52985 0.496947 0)
(6.50855 0.546126 0)
(6.58252 0.549089 0)
(6.53021 0.608454 0)
(6.61787 0.588909 0)
(6.53125 0.641003 0)
(6.63125 0.623607 0)
(6.51322 0.678784 0)
(6.6114 0.634357 0)
(6.47852 0.668011 0)
(6.57862 0.610526 0)
(6.42255 0.635381 0)
(6.56435 0.561826 0)
(6.37224 0.587281 0)
(6.55323 0.515893 0)
(6.32212 0.53113 0)
(6.50484 0.442144 0)
(6.28668 0.461138 0)
(6.4424 0.367346 0)
(6.27152 0.400969 0)
(6.3929 0.305342 0)
(6.24541 0.357629 0)
(6.36694 0.246684 0)
(6.22118 0.311074 0)
(6.35091 0.178098 0)
(6.18541 0.25517 0)
(6.31511 0.114174 0)
(6.15241 0.211311 0)
(6.27794 0.069896 0)
(6.17508 0.169233 0)
(6.25652 0.0159011 0)
(6.21522 0.0969256 0)
(6.26006 -0.0562694 0)
(6.27001 0.0266708 0)
(6.26898 -0.126446 0)
(6.33037 -0.0332471 0)
(6.25799 -0.166409 0)
(6.38361 -0.0766229 0)
(6.26648 -0.181497 0)
(6.39177 -0.0774609 0)
(6.31791 -0.181662 0)
(6.39152 -0.0600377 0)
(6.36635 -0.160888 0)
(6.42158 -0.0472821 0)
(6.39967 -0.123231 0)
(6.44795 -0.0345913 0)
(6.44906 -0.0829198 0)
(6.4544 -0.0102613 0)
(6.49723 -0.040273 0)
(6.4834 0.0270151 0)
(6.5358 0.0155881 0)
(6.52 0.083868 0)
(6.5567 0.0795119 0)
(6.56065 0.137365 0)
(6.56657 0.123612 0)
(6.59682 0.190623 0)
(6.56645 0.16342 0)
(6.62843 0.24327 0)
(6.5667 0.207382 0)
(6.64788 0.295754 0)
(6.5605 0.253933 0)
(6.63686 0.350086 0)
(6.53863 0.305619 0)
(6.60461 0.400976 0)
(6.5089 0.350556 0)
(6.55111 0.449219 0)
(6.47945 0.403094 0)
(6.48337 0.521114 0)
(6.43413 0.488267 0)
(6.43871 0.614994 0)
(6.44352 0.60051 0)
(6.41374 0.747973 0)
(6.45542 0.754556 0)
(6.38076 0.911732 0)
(6.48827 0.91781 0)
(6.34597 1.09423 0)
(6.53235 1.10179 0)
(6.29657 1.30466 0)
(6.56198 1.29897 0)
(6.27031 1.53947 0)
(6.55144 1.50829 0)
(6.24547 1.78749 0)
(6.51515 1.7362 0)
(6.20398 2.0378 0)
(6.44144 1.97682 0)
(6.13332 2.29829 0)
(6.38967 2.26477 0)
(6.06153 2.6257 0)
(6.3284 2.62883 0)
(6.02248 3.04773 0)
(6.2954 3.11485 0)
(6.00838 3.61356 0)
(6.12159 3.82774 0)
(5.85427 4.50418 0)
(6.01259 4.86304 0)
(5.44774 6.11791 0)
(6.93254 6.46676 0)
(4.61618 10.5419 0)
(5.86504 -0.240916 0)
(5.95586 -0.288811 0)
(6.1242 -0.354393 0)
(6.32756 -0.415079 0)
(6.55026 -0.460761 0)
(6.77713 -0.508598 0)
(7.00325 -0.552737 0)
(7.20661 -0.620425 0)
(7.44601 -0.709301 0)
(7.65407 -0.795036 0)
(7.90557 -0.904938 0)
(8.12212 -1.00608 0)
(8.29488 -1.11239 0)
(8.47136 -1.21123 0)
(8.65041 -1.29271 0)
(8.8576 -1.36515 0)
(9.04937 -1.44534 0)
(9.25162 -1.55207 0)
(9.41475 -1.68907 0)
(9.53663 -1.8401 0)
(9.64398 -1.98222 0)
(9.75035 -2.11429 0)
(9.84 -2.24493 0)
(9.91426 -2.35697 0)
(9.94876 -2.45698 0)
(9.9617 -2.54367 0)
(9.93691 -2.60896 0)
(9.91673 -2.65793 0)
(9.88636 -2.6805 0)
(9.85868 -2.68157 0)
(9.8078 -2.68007 0)
(9.76891 -2.68148 0)
(9.71589 -2.67069 0)
(9.64878 -2.65726 0)
(9.57986 -2.63394 0)
(9.50667 -2.62236 0)
(9.44239 -2.62646 0)
(9.37628 -2.63285 0)
(9.32677 -2.62284 0)
(9.28956 -2.58375 0)
(9.23103 -2.52786 0)
(9.16564 -2.45643 0)
(9.09845 -2.39259 0)
(9.04409 -2.33695 0)
(8.99485 -2.2725 0)
(8.92995 -2.19732 0)
(8.86312 -2.09908 0)
(8.76061 -1.98949 0)
(8.61266 -1.85356 0)
(8.47635 -1.7329 0)
(8.34998 -1.62187 0)
(8.21928 -1.50503 0)
(8.11038 -1.40154 0)
(8.00691 -1.29222 0)
(7.91114 -1.18566 0)
(7.82617 -1.10034 0)
(7.75365 -1.02533 0)
(7.65352 -0.934038 0)
(7.56257 -0.841607 0)
(7.44751 -0.747196 0)
(7.33968 -0.633589 0)
(7.21622 -0.533121 0)
(7.11814 -0.440951 0)
(7.03068 -0.358219 0)
(6.93765 -0.28445 0)
(6.84993 -0.215262 0)
(6.75617 -0.149606 0)
(6.6715 -0.098589 0)
(6.58861 -0.0591371 0)
(6.51228 -0.0178725 0)
(6.45418 0.0202094 0)
(6.40743 0.0571169 0)
(6.38233 0.0844925 0)
(6.35324 0.10597 0)
(6.32087 0.120078 0)
(6.30164 0.154105 0)
(6.28313 0.202243 0)
(6.2781 0.245268 0)
(6.25108 0.289196 0)
(6.26078 0.324856 0)
(6.25153 0.353975 0)
(6.23601 0.368575 0)
(6.24163 0.375696 0)
(6.2474 0.374347 0)
(6.24702 0.367454 0)
(6.23888 0.363981 0)
(6.20054 0.374017 0)
(6.17414 0.382129 0)
(6.13888 0.374568 0)
(6.12575 0.389373 0)
(6.09463 0.377717 0)
(6.10835 0.382095 0)
(6.09916 0.374284 0)
(6.1136 0.397803 0)
(6.14385 0.384738 0)
(6.15937 0.394883 0)
(6.22147 0.39637 0)
(6.23344 0.417537 0)
(6.32448 0.410129 0)
(6.33113 0.446197 0)
(6.39654 0.451383 0)
(6.3683 0.498134 0)
(6.44488 0.48809 0)
(6.41118 0.538089 0)
(6.50715 0.540361 0)
(6.44755 0.604202 0)
(6.56084 0.583339 0)
(6.46908 0.644131 0)
(6.57941 0.624329 0)
(6.4598 0.689106 0)
(6.56058 0.63639 0)
(6.42738 0.681384 0)
(6.53392 0.615026 0)
(6.37102 0.644292 0)
(6.51998 0.56514 0)
(6.32945 0.596517 0)
(6.50597 0.521475 0)
(6.29172 0.544291 0)
(6.44804 0.448988 0)
(6.26684 0.476299 0)
(6.38198 0.372012 0)
(6.25313 0.410743 0)
(6.33599 0.310025 0)
(6.23151 0.365575 0)
(6.30815 0.248976 0)
(6.21393 0.318588 0)
(6.2833 0.179563 0)
(6.18518 0.265838 0)
(6.23988 0.117238 0)
(6.15839 0.220035 0)
(6.19744 0.0646944 0)
(6.19153 0.173876 0)
(6.17406 0.00692189 0)
(6.25221 0.098945 0)
(6.17244 -0.0704584 0)
(6.32166 0.0290548 0)
(6.17552 -0.142837 0)
(6.39143 -0.0240015 0)
(6.15774 -0.18436 0)
(6.45841 -0.0649695 0)
(6.14071 -0.195573 0)