/*--------------------------------*- C++ -*----------------------------------*\
| =========                 |                                                 |
| \\      /  F ield         | OpenFOAM: The Open Source CFD Toolbox           |
|  \\    /   O peration     | Version:  2.4.0                                 |
|   \\  /    A nd           | Web:      www.OpenFOAM.org                      |
|    \\/     M anipulation  |                                                 |
\*---------------------------------------------------------------------------*/
FoamFile
{
    version     2.0;
    format      ascii;
    class       surfaceScalarField;
    location    "0.095";
    object      phi;
}
// * * * * * * * * * * * * * * * * * * * * * * * * * * * * * * * * * * * * * //

dimensions      [0 3 -1 0 0 0 0];

internalField   nonuniform List<scalar> 
8640
(
1.14657e-05
1.35343e-05
7.1758e-06
4.28985e-06
5.91809e-06
1.25772e-06
5.37374e-06
5.44345e-07
5.09238e-06
2.81359e-07
4.91712e-06
1.75267e-07
4.85229e-06
6.48292e-08
4.63141e-06
2.20883e-07
4.67293e-06
-4.15298e-08
5.13913e-07
4.15902e-06
2.10567e-05
1.74776e-05
1.74475e-05
7.8991e-06
1.55165e-05
3.18865e-06
1.42626e-05
1.79828e-06
1.34802e-05
1.06376e-06
1.30123e-05
6.43177e-07
1.27362e-05
3.40926e-07
1.2284e-05
6.73015e-07
1.23557e-05
-1.13185e-07
1.53801e-06
1.13316e-05
2.57178e-05
1.67598e-05
2.40952e-05
9.52173e-06
2.26192e-05
4.66466e-06
2.12444e-05
3.17301e-06
2.02095e-05
2.09869e-06
1.95693e-05
1.28338e-06
1.91084e-05
8.01806e-07
1.86126e-05
1.16884e-06
1.84116e-05
8.78451e-08
1.91161e-06
1.8038e-05
2.74881e-05
1.42718e-05
2.77301e-05
9.2797e-06
2.7385e-05
5.00976e-06
2.65448e-05
4.01326e-06
2.56224e-05
3.02107e-06
2.50285e-05
1.87723e-06
2.44568e-05
1.3735e-06
2.40506e-05
1.57504e-06
2.36475e-05
4.91012e-07
2.20786e-06
2.33512e-05
2.76948e-05
1.1577e-05
2.89102e-05
8.06436e-06
2.96239e-05
4.29603e-06
2.97308e-05
3.90631e-06
2.93325e-05
3.41946e-06
2.90918e-05
2.11787e-06
2.86159e-05
1.84939e-06
2.83457e-05
1.84522e-06
2.80538e-05
7.82925e-07
2.36066e-06
2.7901e-05
2.75323e-05
9.0447e-06
2.89627e-05
6.6339e-06
3.00162e-05
3.24257e-06
3.07915e-05
3.13094e-06
3.10166e-05
3.19435e-06
3.13328e-05
1.80172e-06
3.12699e-05
1.91225e-06
3.11947e-05
1.92041e-06
3.11907e-05
7.86952e-07
3.15844e-06
3.03929e-05
2.73711e-05
6.67364e-06
2.88917e-05
5.11324e-06
2.99056e-05
2.22873e-06
3.0806e-05
2.23045e-06
3.12951e-05
2.7053e-06
3.18983e-05
1.19849e-06
3.23231e-05
1.48751e-06
3.24903e-05
1.75314e-06
3.2742e-05
5.35344e-07
3.82696e-06
3.20734e-05
2.72349e-05
4.43875e-06
2.898e-05
3.36809e-06
2.98826e-05
1.32617e-06
3.06223e-05
1.49072e-06
3.11207e-05
2.20688e-06
3.17993e-05
5.19927e-07
3.24906e-05
7.96177e-07
3.28677e-05
1.37605e-06
3.31322e-05
2.70855e-07
2.54209e-06
3.44171e-05
2.72297e-05
2.20908e-06
2.89993e-05
1.59847e-06
2.97294e-05
5.96079e-07
3.04136e-05
8.06484e-07
3.11526e-05
1.46795e-06
3.18444e-05
-1.7192e-07
3.23779e-05
2.62701e-07
3.27592e-05
9.94741e-07
3.30887e-05
-5.86095e-08
1.1468e-06
3.4484e-05
2.7241e-05
-3.18852e-08
2.89344e-05
-9.4925e-08
2.95864e-05
-5.59438e-08
3.04431e-05
-5.0257e-08
3.13014e-05
6.09633e-07
3.17763e-05
-6.4681e-07
3.21461e-05
-1.07035e-07
3.26569e-05
4.83877e-07
3.32565e-05
-6.58166e-07
-4.46731e-08
3.44479e-05
2.72585e-05
-2.29039e-06
2.89492e-05
-1.78559e-06
2.95895e-05
-6.96234e-07
3.04128e-05
-8.73547e-07
3.12604e-05
-2.3798e-07
3.17431e-05
-1.1295e-06
3.21587e-05
-5.22681e-07
3.27803e-05
-1.37694e-07
3.33931e-05
-1.27095e-06
-6.97227e-07
3.40456e-05
2.73071e-05
-4.59754e-06
2.8948e-05
-3.42649e-06
2.95732e-05
-1.32134e-06
3.04247e-05
-1.72514e-06
3.13216e-05
-1.13488e-06
3.18146e-05
-1.62249e-06
3.22509e-05
-9.58937e-07
3.28485e-05
-7.35281e-07
3.3304e-05
-1.7265e-06
-1.11662e-06
3.37234e-05
2.73311e-05
-6.9286e-06
2.89084e-05
-5.00379e-06
2.96996e-05
-2.11253e-06
3.05647e-05
-2.5903e-06
3.13871e-05
-1.95729e-06
3.1816e-05
-2.05132e-06
3.23054e-05
-1.44839e-06
3.28439e-05
-1.27377e-06
3.31845e-05
-2.06713e-06
-1.78961e-06
3.38575e-05
2.73683e-05
-9.29685e-06
2.88291e-05
-6.46465e-06
2.98813e-05
-3.16469e-06
3.06841e-05
-3.3931e-06
3.14303e-05
-2.70355e-06
3.17985e-05
-2.41953e-06
3.22316e-05
-1.88141e-06
3.25581e-05
-1.60034e-06
3.27597e-05
-2.26868e-06
-2.36071e-06
3.33308e-05
2.74681e-05
-1.1765e-05
2.88987e-05
-7.89522e-06
3.00125e-05
-4.27852e-06
3.0686e-05
-4.06658e-06
3.11357e-05
-3.15332e-06
3.12005e-05
-2.4843e-06
3.12563e-05
-1.93717e-06
3.12047e-05
-1.54872e-06
3.10776e-05
-2.1416e-06
-2.37034e-06
3.10872e-05
2.76247e-05
-1.43896e-05
2.88858e-05
-9.15636e-06
2.96221e-05
-5.0148e-06
2.96658e-05
-4.11025e-06
2.94052e-05
-2.89271e-06
2.89743e-05
-2.0534e-06
2.86123e-05
-1.57521e-06
2.82611e-05
-1.19756e-06
2.78476e-05
-1.72808e-06
-1.43327e-06
2.69105e-05
2.74341e-05
-1.68237e-05
2.77298e-05
-9.45207e-06
2.73803e-05
-4.66531e-06
2.65086e-05
-3.23852e-06
2.5655e-05
-2.03915e-06
2.49457e-05
-1.34407e-06
2.44025e-05
-1.03201e-06
2.39607e-05
-7.55701e-07
2.34414e-05
-1.20882e-06
-7.4185e-07
2.275e-05
2.56792e-05
-1.75029e-05
2.41015e-05
-7.8744e-06
2.26177e-05
-3.18153e-06
2.12195e-05
-1.84031e-06
2.02153e-05
-1.0349e-06
1.95211e-05
-6.49905e-07
1.90004e-05
-5.11313e-07
1.86095e-05
-3.64799e-07
1.80709e-05
-6.70173e-07
-2.40465e-07
1.75695e-05
2.10366e-05
-1.35395e-05
1.74499e-05
-4.28775e-06
1.5519e-05
-1.25061e-06
1.42403e-05
-5.61584e-07
1.34767e-05
-2.71329e-07
1.2992e-05
-1.65232e-07
1.26212e-05
-1.4046e-07
1.23514e-05
-9.49772e-08
1.19023e-05
-2.21159e-07
1.42781e-08
1.16476e-05
1.14605e-05
7.17275e-06
5.92214e-06
5.36056e-06
5.08923e-06
4.924e-06
4.78354e-06
4.68856e-06
4.4674e-06
4.48168e-06
5.31235e-06
1.16826e-06
-2.32159e-06
6.98825e-06
2.57793e-06
-4.25383e-06
8.12065e-06
2.6729e-06
-3.80529e-06
9.49082e-06
1.50423e-06
-2.8744e-06
1.05476e-05
1.73015e-06
-2.78693e-06
1.04463e-05
-2.34644e-06
2.44769e-06
1.09193e-05
-3.86876e-06
3.39582e-06
1.09734e-05
-3.84392e-06
3.78982e-06
1.11541e-05
-5.01353e-06
4.83283e-06
1.11349e-05
-2.83629e-06
2.85544e-06
1.22449e-05
1.39604e-06
-2.50602e-06
1.55253e-05
4.6863e-06
-7.96671e-06
1.83043e-05
3.56734e-06
-6.34632e-06
2.02639e-05
5.94128e-06
-7.90086e-06
2.19388e-05
3.32059e-06
-4.99554e-06
2.23673e-05
-2.08331e-06
1.65486e-06
2.37424e-05
-3.05834e-06
1.68319e-06
2.51981e-05
-5.88565e-06
4.42996e-06
2.47352e-05
-8.51747e-06
8.98039e-06
2.51022e-05
-1.03204e-05
9.95345e-06
2.59597e-05
-1.45692e-05
1.37117e-05
2.6498e-05
-1.87277e-05
1.81893e-05
2.82051e-05
-2.34076e-05
2.17006e-05
2.97241e-05
-2.90628e-05
2.75438e-05
2.98224e-05
-3.17256e-05
3.16273e-05
2.88963e-05
-2.96456e-05
3.05718e-05
2.86135e-05
-2.91304e-05
2.94132e-05
2.97244e-05
-3.03242e-05
2.92134e-05
3.07381e-05
-2.64384e-05
2.54247e-05
3.15464e-05
-2.14639e-05
2.06556e-05
3.23306e-05
-1.61846e-05
1.54003e-05
3.25245e-05
-4.60391e-06
4.41002e-06
3.36271e-05
3.73493e-06
-4.83749e-06
3.43546e-05
1.19744e-05
-1.2702e-05
3.42032e-05
2.11769e-05
-2.10255e-05
3.47341e-05
2.51773e-05
-2.57082e-05
3.46776e-05
2.78398e-05
-2.77833e-05
3.42427e-05
2.8135e-05
-2.77001e-05
3.33099e-05
2.19033e-05
-2.09705e-05
3.20515e-05
1.44381e-05
-1.31797e-05
3.07141e-05
6.29235e-06
-4.95494e-06
2.96817e-05
-4.11871e-07
1.44428e-06
2.85649e-05
-8.61208e-06
9.7289e-06
2.68276e-05
-1.37592e-05
1.54965e-05
2.52442e-05
-1.77781e-05
1.93615e-05
2.35416e-05
-2.05064e-05
2.22089e-05
2.13644e-05
-1.74118e-05
1.9589e-05
2.02151e-05
-1.5039e-05
1.61883e-05
1.84435e-05
-1.35888e-05
1.53604e-05
1.661e-05
-1.10955e-05
1.2929e-05
1.54379e-05
-5.8333e-06
7.0054e-06
1.62987e-05
1.90064e-06
-2.76142e-06
1.59601e-05
-2.8617e-07
6.24784e-07
1.60862e-05
-1.15613e-05
1.14352e-05
1.37886e-05
-3.4743e-05
3.70406e-05
1.49534e-05
-4.24744e-05
4.13096e-05
1.78002e-05
-4.6656e-05
4.38091e-05
1.77237e-05
-2.87429e-05
2.88195e-05
1.98316e-05
-2.75671e-05
2.54592e-05
2.06732e-05
-1.11779e-05
1.03362e-05
2.1206e-05
4.59501e-06
-5.12784e-06
2.12782e-05
1.65307e-05
-1.66028e-05
2.18623e-05
2.6272e-05
-2.68561e-05
2.18395e-05
4.03262e-05
-4.03034e-05
2.12414e-05
4.6761e-05
-4.61629e-05
1.92119e-05
4.86064e-05
-4.65769e-05
1.74466e-05
3.90607e-05
-3.72954e-05
1.54412e-05
3.64233e-05
-3.44179e-05
1.50561e-05
2.57263e-05
-2.53412e-05
1.41924e-05
3.01636e-05
-2.92999e-05
1.50442e-05
1.70075e-05
-1.78593e-05
1.48651e-05
2.27959e-05
-2.26169e-05
1.55342e-05
6.47648e-06
-7.14555e-06
1.51812e-05
1.30129e-05
-1.26599e-05
1.5703e-05
-4.31656e-06
3.79476e-06
1.56907e-05
2.99129e-06
-2.97905e-06
1.65224e-05
-1.18443e-05
1.10126e-05
1.60031e-05
-1.86685e-06
2.38612e-06
1.64457e-05
-1.4341e-05
1.38985e-05
1.53578e-05
-4.07281e-06
5.1607e-06
1.55222e-05
-1.70366e-05
1.68722e-05
1.41974e-05
-8.94384e-06
1.02687e-05
1.52443e-05
-1.95406e-05
1.84937e-05
1.41736e-05
-9.39033e-06
1.0461e-05
1.5491e-05
-1.479e-05
1.34727e-05
1.47476e-05
-5.63573e-06
6.37911e-06
1.59837e-05
-7.43914e-06
6.20304e-06
1.50528e-05
3.25449e-07
6.05457e-07
1.5809e-05
-5.72936e-07
-1.83263e-07
1.4886e-05
4.59011e-06
-3.66717e-06
1.58058e-05
3.88424e-06
-4.80396e-06
1.5054e-05
8.38496e-06
-7.63321e-06
1.62581e-05
7.36684e-06
-8.57091e-06
1.51972e-05
1.27865e-05
-1.17256e-05
1.58834e-05
1.13076e-05
-1.19939e-05
1.47144e-05
1.83524e-05
-1.71833e-05
1.68865e-05
1.56351e-05
-1.78073e-05
1.52305e-05
2.905e-05
-2.73941e-05
1.5128e-05
2.85942e-05
-2.84917e-05
5.32361e-05
-5.09604e-05
1.28523e-05
1.11472e-05
1.35266e-06
1.19783e-05
1.74681e-06
1.30003e-05
1.65086e-06
1.4121e-05
3.83596e-07
1.56264e-05
2.2473e-07
1.55311e-05
-2.25118e-06
1.6272e-05
-4.60964e-06
1.6459e-05
-4.03085e-06
1.62812e-05
-4.83582e-06
1.68896e-05
-3.44462e-06
1.71791e-05
1.10654e-06
1.85431e-05
3.32227e-06
1.99877e-05
2.12273e-06
2.20217e-05
3.90726e-06
2.38504e-05
1.49192e-06
2.40284e-05
-2.26129e-06
2.50147e-05
-4.04463e-06
2.59885e-05
-6.85948e-06
2.61072e-05
-8.63616e-06
2.73457e-05
-1.1559e-05
2.8609e-05
-1.58325e-05
2.96819e-05
-1.98005e-05
3.12038e-05
-2.49295e-05
3.12996e-05
-2.91586e-05
2.99645e-05
-3.03905e-05
2.89957e-05
-2.86768e-05
2.93394e-05
-2.94742e-05
3.04884e-05
-3.14732e-05
3.13671e-05
-2.73171e-05
3.17604e-05
-2.18572e-05
3.22975e-05
-1.67217e-05
3.24996e-05
-4.80601e-06
3.3668e-05
2.56658e-06
3.4647e-05
1.09954e-05
3.47761e-05
2.10478e-05
3.52553e-05
2.46981e-05
3.51908e-05
2.79044e-05
3.49638e-05
2.83619e-05
3.42155e-05
2.26516e-05
3.31094e-05
1.55442e-05
3.17834e-05
7.61837e-06
3.05489e-05
8.22658e-07
2.93244e-05
-7.38762e-06
2.74374e-05
-1.18722e-05
2.58031e-05
-1.61438e-05
2.40798e-05
-1.87831e-05
2.20001e-05
-1.53321e-05
2.06297e-05
-1.36686e-05
1.89025e-05
-1.18616e-05
1.68854e-05
-9.07839e-06
1.51857e-05
-4.13366e-06
1.55603e-05
1.52605e-06
1.51887e-05
8.54806e-08
1.53119e-05
-1.16846e-05
1.37289e-05
-3.316e-05
1.53944e-05
-4.41399e-05
1.71002e-05
-4.83617e-05
1.62492e-05
-2.7892e-05
1.8307e-05
-2.96248e-05
1.87121e-05
-1.1583e-05
1.96218e-05
3.68531e-06
1.98976e-05
1.62549e-05
2.06472e-05
2.55224e-05
2.09186e-05
4.00548e-05
2.07007e-05
4.69788e-05
1.90133e-05
5.02938e-05
1.76268e-05
4.04472e-05
1.58122e-05
3.82379e-05
1.5768e-05
2.57705e-05
1.49328e-05
3.09988e-05
1.59073e-05
1.6033e-05
1.57844e-05
2.29188e-05
1.65641e-05
5.69683e-06
1.62745e-05
1.33025e-05
1.64573e-05
-4.49934e-06
1.62271e-05
3.22152e-06
1.70742e-05
-1.26914e-05
1.68376e-05
-1.63031e-06
1.72701e-05
-1.47735e-05
1.64416e-05
-3.24438e-06
1.65382e-05
-1.71332e-05
1.52079e-05
-7.61352e-06
1.62519e-05
-2.05846e-05
1.49953e-05
-8.13376e-06
1.63091e-05
-1.61038e-05
1.53029e-05
-4.62952e-06
1.69244e-05
-9.06065e-06
1.55928e-05
1.65709e-06
1.67606e-05
-1.74074e-06
1.52999e-05
6.0508e-06
1.62211e-05
2.96303e-06
1.50331e-05
9.57291e-06
1.65173e-05
5.88271e-06
1.55967e-05
1.3707e-05
1.69682e-05
9.93619e-06
1.45946e-05
2.0726e-05
1.54186e-05
1.48111e-05
1.54085e-05
2.90601e-05
2.05764e-05
2.34262e-05
5.37386e-05
2.00739e-05
1.81127e-05
1.27788e-06
1.85238e-05
1.33579e-06
1.91783e-05
9.96289e-07
1.9781e-05
-2.1912e-07
2.09859e-05
-9.80147e-07
2.11614e-05
-2.42663e-06
2.1366e-05
-4.8143e-06
2.16869e-05
-4.35176e-06
2.14325e-05
-4.5814e-06
2.19043e-05
-3.91643e-06
2.25416e-05
4.69231e-07
2.3546e-05
2.31792e-06
2.38625e-05
1.80618e-06
2.51072e-05
2.66256e-06
2.66741e-05
-7.49374e-08
2.70099e-05
-2.59707e-06
2.80599e-05
-5.09466e-06
2.86209e-05
-7.42047e-06
2.89617e-05
-8.97695e-06
3.05696e-05
-1.31668e-05
3.15145e-05
-1.67774e-05
3.21733e-05
-2.04594e-05
3.26665e-05
-2.54227e-05
3.13491e-05
-2.78412e-05
2.96985e-05
-2.87399e-05
2.95873e-05
-2.85656e-05
3.02817e-05
-3.01685e-05
3.08469e-05
-3.20384e-05
3.12079e-05
-2.76782e-05
3.12437e-05
-2.18929e-05
3.15693e-05
-1.70473e-05
3.19965e-05
-5.23319e-06
3.30054e-05
1.55759e-06
3.40032e-05
9.9977e-06
3.47203e-05
2.03306e-05
3.53182e-05
2.41002e-05
3.52718e-05
2.79508e-05
3.51486e-05
2.84852e-05
3.44407e-05
2.33594e-05
3.34973e-05
1.64876e-05
3.21885e-05
8.92718e-06
3.08379e-05
2.17325e-06
2.96478e-05
-6.19752e-06
2.77227e-05
-9.94717e-06
2.60862e-05
-1.45073e-05
2.42701e-05
-1.69669e-05
2.23051e-05
-1.33671e-05
2.0834e-05
-1.21975e-05
1.91997e-05
-1.02273e-05
1.70378e-05
-6.91647e-06
1.47896e-05
-1.88553e-06
1.4579e-05
1.73668e-06
1.44295e-05
2.3498e-07
1.48659e-05
-1.21209e-05
1.39563e-05
-3.22504e-05
1.5351e-05
-4.55346e-05
1.5534e-05
-4.85447e-05
1.45308e-05
-2.68888e-05
1.65097e-05
-3.16037e-05
1.64238e-05
-1.14971e-05
1.80268e-05
2.08229e-06
1.84589e-05
1.58229e-05
1.92572e-05
2.4724e-05
1.97554e-05
3.95566e-05
1.99025e-05
4.68318e-05
1.86338e-05
5.15625e-05
1.75959e-05
4.14851e-05
1.59535e-05
3.98803e-05
1.62091e-05
2.55149e-05
1.54885e-05
3.17193e-05
1.65214e-05
1.50002e-05
1.64889e-05
2.29512e-05
1.73241e-05
4.86162e-06
1.71068e-05
1.35198e-05
1.72243e-05
-4.61687e-06
1.69411e-05
3.50473e-06
1.77407e-05
-1.3491e-05
1.77069e-05
-1.59651e-06
1.7991e-05
-1.50576e-05
1.73124e-05
-2.56576e-06
1.73351e-05
-1.71558e-05
1.6177e-05
-6.45545e-06
1.69011e-05
-2.13087e-05
1.57899e-05
-7.02258e-06
1.70328e-05
-1.73467e-05
1.57135e-05
-3.31019e-06
1.74979e-05
-1.08451e-05
1.6116e-05
3.03902e-06
1.79742e-05
-3.5989e-06
1.61657e-05
7.85929e-06
1.77438e-05
1.38496e-06
1.58498e-05
1.14669e-05
1.71258e-05
4.60666e-06
1.58109e-05
1.50219e-05
1.81928e-05
7.55428e-06
1.79746e-05
2.09442e-05
1.95457e-05
1.324e-05
1.72871e-05
3.13187e-05
2.23413e-05
1.8372e-05
5.28632e-05
2.32167e-05
2.37177e-05
9.11424e-07
2.41359e-05
9.17589e-07
2.47576e-05
3.74531e-07
2.52832e-05
-7.44712e-07
2.58279e-05
-1.52479e-06
2.617e-05
-2.76872e-06
2.62253e-05
-4.86962e-06
2.62208e-05
-4.34731e-06
2.61536e-05
-4.51412e-06
2.62732e-05
-4.03608e-06
2.68124e-05
-6.99977e-08
2.79941e-05
1.13629e-06
2.81877e-05
1.61249e-06
2.89147e-05
1.93559e-06
2.98614e-05
-1.02164e-06
3.02823e-05
-3.01792e-06
3.13191e-05
-6.13152e-06
3.16231e-05
-7.72449e-06
3.22041e-05
-9.5579e-06
3.32397e-05
-1.42025e-05
3.33756e-05
-1.69133e-05
3.35459e-05
-2.06297e-05
3.30527e-05
-2.49295e-05
3.11235e-05
-2.5912e-05
2.98123e-05
-2.74287e-05
3.01771e-05
-2.89304e-05
3.04108e-05
-3.04023e-05
3.00549e-05
-3.16824e-05
2.99152e-05
-2.75385e-05
2.9926e-05
-2.19037e-05
3.02625e-05
-1.73837e-05
3.09664e-05
-5.93716e-06
3.16667e-05
8.57267e-07
3.24754e-05
9.18907e-06
3.38872e-05
1.89188e-05
3.48217e-05
2.31656e-05
3.48905e-05
2.78821e-05
3.48527e-05
2.85229e-05
3.42233e-05
2.39888e-05
3.34004e-05
1.73105e-05
3.21119e-05
1.02157e-05
3.08319e-05
3.45333e-06
2.96121e-05
-4.97777e-06
2.77264e-05
-8.06147e-06
2.61874e-05
-1.29683e-05
2.43644e-05
-1.5144e-05
2.2534e-05
-1.15366e-05
2.09346e-05
-1.05981e-05
1.93396e-05
-8.63237e-06
1.69918e-05
-4.56867e-06
1.45019e-05
6.04326e-07
1.34401e-05
2.79856e-06
1.3537e-05
1.38085e-07
1.46265e-05
-1.32105e-05
1.34821e-05
-3.1106e-05
1.32764e-05
-4.53289e-05
1.24569e-05
-4.77253e-05
1.24867e-05
-2.69186e-05
1.44821e-05
-3.35991e-05
1.4048e-05
-1.1063e-05
1.63765e-05
-2.46238e-07
1.67734e-05
1.5426e-05
1.7891e-05
2.36064e-05
1.86615e-05
3.87861e-05
1.91219e-05
4.63714e-05
1.82098e-05
5.24746e-05
1.7682e-05
4.20129e-05
1.61335e-05
4.14289e-05
1.65405e-05
2.51079e-05
1.59613e-05
3.22985e-05
1.6853e-05
1.41084e-05
1.70491e-05
2.27552e-05
1.78456e-05
4.06505e-06
1.76736e-05
1.36919e-05
1.77997e-05
-4.74305e-06
1.76241e-05
3.68041e-06
1.83439e-05
-1.42109e-05
1.84194e-05
-1.67201e-06
1.87015e-05
-1.53396e-05
1.81122e-05
-1.9765e-06
1.81992e-05
-1.72428e-05
1.72654e-05
-5.52167e-06
1.75776e-05
-2.16209e-05
1.66147e-05
-6.05964e-06
1.75312e-05
-1.82633e-05
1.61923e-05
-1.9713e-06
1.80823e-05
-1.27351e-05
1.65364e-05
4.5849e-06
1.88791e-05
-5.94158e-06
1.72158e-05
9.52259e-06
1.96572e-05
-1.05643e-06
1.72696e-05
1.38545e-05
1.83719e-05
3.50433e-06
1.59044e-05
1.74895e-05
1.64898e-05
6.96887e-06
1.63446e-05
2.10894e-05
1.99059e-05
9.67865e-06
2.0063e-05
3.11616e-05
2.59897e-05
1.24453e-05
5.10449e-05
2.78081e-05
2.80683e-05
7.44194e-07
2.84728e-05
5.13004e-07
2.89798e-05
-1.32435e-07
2.95148e-05
-1.2797e-06
2.97421e-05
-1.75209e-06
2.9922e-05
-2.94863e-06
2.98269e-05
-4.77455e-06
2.96122e-05
-4.13258e-06
2.97531e-05
-4.65507e-06
2.96535e-05
-3.93638e-06
3.00963e-05
-5.12887e-07
3.11659e-05
6.67381e-08
3.14689e-05
1.30947e-06
3.22086e-05
1.19593e-06
3.25248e-05
-1.33787e-06
3.2941e-05
-3.43411e-06
3.36212e-05
-6.81175e-06
3.36074e-05
-7.71067e-06
3.43319e-05
-1.02824e-05
3.46859e-05
-1.45564e-05
3.42232e-05
-1.64506e-05
3.38966e-05
-2.03031e-05
3.25616e-05
-2.35945e-05
3.06167e-05
-2.39672e-05
2.99007e-05
-2.67127e-05
3.00988e-05
-2.91284e-05
2.95765e-05
-2.98799e-05
2.8535e-05
-3.06409e-05
2.82085e-05
-2.72121e-05
2.83779e-05
-2.20731e-05
2.86524e-05
-1.76583e-05
2.9452e-05
-6.73677e-06
2.97949e-05
5.14339e-07
3.02735e-05
8.7105e-06
3.21464e-05
1.70459e-05
3.34471e-05
2.1865e-05
3.39474e-05
2.73818e-05
3.40949e-05
2.83754e-05
3.35316e-05
2.45522e-05
3.28504e-05
1.79916e-05
3.16626e-05
1.14036e-05
3.06095e-05
4.50639e-06
2.93288e-05
-3.69709e-06
2.75509e-05
-6.28359e-06
2.61185e-05
-1.15359e-05
2.42415e-05
-1.32669e-05
2.25821e-05
-9.87726e-06
2.09026e-05
-8.91859e-06
1.93582e-05
-7.08799e-06
1.69479e-05
-2.15831e-06
1.4616e-05
2.93618e-06
1.27313e-05
4.68323e-06
1.25716e-05
2.97844e-07
1.38278e-05
-1.44667e-05
1.19077e-05
-2.91859e-05
9.27403e-06
-4.26952e-05
8.60217e-06
-4.70534e-05
1.0781e-05
-2.90974e-05
1.25609e-05
-3.53791e-05
1.17273e-05
-1.02294e-05
1.46163e-05
-3.13527e-06
1.4819e-05
1.52233e-05
1.62865e-05
2.21388e-05
1.72565e-05
3.78162e-05
1.80853e-05
4.55426e-05
1.75939e-05
5.2966e-05
1.76728e-05
4.1934e-05
1.63243e-05
4.27775e-05
1.68555e-05
2.45767e-05
1.64895e-05
3.26645e-05
1.72474e-05
1.33506e-05
1.75714e-05
2.24311e-05
1.83538e-05
3.28266e-06
1.82853e-05
1.37604e-05
1.83959e-05
-4.85364e-06
1.83491e-05
3.72726e-06
1.89386e-05
-1.48004e-05
1.90582e-05
-1.79157e-06
1.9353e-05
-1.56344e-05
1.88674e-05
-1.49097e-06
1.8929e-05
-1.73044e-05
1.81939e-05
-4.7866e-06
1.81663e-05
-2.15932e-05
1.74187e-05
-5.31204e-06
1.78322e-05
-1.86768e-05
1.64195e-05
-5.58599e-07
1.81593e-05
-1.44748e-05
1.72759e-05
5.46821e-06
1.95776e-05
-8.2432e-06
1.89604e-05
1.01398e-05
2.23945e-05
-4.49051e-06
2.15754e-05
1.46736e-05
2.4051e-05
1.0287e-06
2.20789e-05
1.94616e-05
2.34917e-05
5.55606e-06
1.95676e-05
2.50135e-05
2.14697e-05
7.77652e-06
1.84329e-05
3.41984e-05
2.2541e-05
8.33725e-06
4.46395e-05
2.89464e-05
3.0824e-05
3.131e-07
3.16417e-05
-3.04623e-07
3.22002e-05
-6.90933e-07
3.25207e-05
-1.60025e-06
3.25119e-05
-1.74329e-06
3.25693e-05
-3.00606e-06
3.22909e-05
-4.49614e-06
3.20214e-05
-3.86309e-06
3.21607e-05
-4.79433e-06
3.18503e-05
-3.62598e-06
3.22728e-05
-9.3541e-07
3.29538e-05
-6.14277e-07
3.33949e-05
8.68397e-07
3.41781e-05
4.127e-07
3.4211e-05
-1.3707e-06
3.46424e-05
-3.86558e-06
3.47658e-05
-6.93508e-06
3.46734e-05
-7.61829e-06
3.5228e-05
-1.08371e-05
3.47823e-05
-1.41107e-05
3.39531e-05
-1.56213e-05
3.32676e-05
-1.96176e-05
3.15736e-05
-2.19004e-05
3.01229e-05
-2.25165e-05
2.97793e-05
-2.63692e-05
2.93133e-05
-2.86625e-05
2.8009e-05
-2.85756e-05
2.66152e-05
-2.92472e-05
2.62643e-05
-2.68611e-05
2.65829e-05
-2.23918e-05
2.67043e-05
-1.77797e-05
2.73437e-05
-7.37618e-06
2.74308e-05
4.27256e-07
2.77454e-05
8.39587e-06
2.97066e-05
1.50847e-05
3.12824e-05
2.02892e-05
3.23918e-05
2.62723e-05
3.27989e-05
2.79683e-05
3.24673e-05
2.48838e-05
3.1937e-05
1.85218e-05
3.07637e-05
1.25769e-05
2.99241e-05
5.34602e-06
2.85973e-05
-2.37034e-06
2.70801e-05
-4.76636e-06
2.59025e-05
-1.03583e-05
2.41101e-05
-1.14745e-05
2.25888e-05
-8.35597e-06
2.09473e-05
-7.27704e-06
1.9346e-05
-5.48677e-06
1.68375e-05
3.50206e-07
1.49131e-05
4.86054e-06
1.26715e-05
6.92492e-06
1.20006e-05
9.68708e-07
1.22998e-05
-1.47659e-05
9.8745e-06
-2.67606e-05
6.08072e-06
-3.89014e-05
6.20358e-06
-4.71763e-05
1.03582e-05
-3.3252e-05
1.10146e-05
-3.60355e-05
9.61433e-06
-8.8292e-06
1.27604e-05
-6.28133e-06
1.27693e-05
1.52144e-05
1.50389e-05
1.98692e-05
1.59553e-05
3.68998e-05
1.7067e-05
4.44308e-05
1.69524e-05
5.30806e-05
1.75552e-05
4.13312e-05
1.64233e-05
4.39094e-05
1.69953e-05
2.40047e-05
1.69397e-05
3.272e-05
1.76784e-05
1.26118e-05
1.812e-05
2.19895e-05
1.87461e-05
2.65661e-06
1.88982e-05
1.36083e-05
1.90555e-05
-5.01092e-06
1.92811e-05
3.5017e-06
1.96737e-05
-1.51931e-05
1.97166e-05
-1.8345e-06
1.99134e-05
-1.58312e-05
1.96092e-05
-1.18676e-06
1.96813e-05
-1.73765e-05
1.91478e-05
-4.25308e-06
1.88133e-05
-2.12587e-05
1.79452e-05
-4.44398e-06
1.77031e-05
-1.84348e-05
1.62957e-05
8.48893e-07
1.70093e-05
-1.51884e-05
1.60493e-05
6.42821e-06
1.72131e-05
-9.40697e-06
1.66089e-05
1.0744e-05
1.94736e-05
-7.35515e-06
1.95407e-05
1.46064e-05
2.34114e-05
-2.84198e-06
2.26811e-05
2.01919e-05
2.75248e-05
7.12397e-07
2.48867e-05
2.76516e-05
2.8588e-05
4.0752e-06
2.55752e-05
3.72113e-05
2.40516e-05
9.86085e-06
4.00047e-05
2.86863e-05
3.25861e-05
-1.99578e-07
3.34888e-05
-1.20728e-06
3.40442e-05
-1.24638e-06
3.41123e-05
-1.66833e-06
3.39798e-05
-1.6108e-06
3.39413e-05
-2.96755e-06
3.35043e-05
-4.05919e-06
3.33421e-05
-3.70089e-06
3.32184e-05
-4.67057e-06
3.2874e-05
-3.28158e-06
3.33358e-05
-1.39721e-06
3.35987e-05
-8.77189e-07
3.41414e-05
3.25688e-07
3.47319e-05
-1.77752e-07
3.47106e-05
-1.34946e-06
3.50564e-05
-4.21139e-06
3.47937e-05
-6.6724e-06
3.48497e-05
-7.6742e-06
3.50592e-05
-1.10466e-05
3.4089e-05
-1.31405e-05
3.32884e-05
-1.48208e-05
3.23879e-05
-1.87171e-05
3.07843e-05
-2.02968e-05
2.99957e-05
-2.17279e-05
2.95478e-05
-2.59212e-05
2.80304e-05
-2.7145e-05
2.58928e-05
-2.6438e-05
2.43806e-05
-2.7735e-05
2.41159e-05
-2.65964e-05
2.445e-05
-2.27258e-05
2.43513e-05
-1.7681e-05
2.47968e-05
-7.82166e-06
2.48366e-05
3.8738e-07
2.51631e-05
8.06947e-06
2.69373e-05
1.33105e-05
2.86372e-05
1.85892e-05
3.02586e-05
2.4651e-05
3.10271e-05
2.71998e-05
3.10225e-05
2.48884e-05
3.0492e-05
1.90524e-05
2.94546e-05
1.36143e-05
2.88781e-05
5.92252e-06
2.7488e-05
-9.8031e-07
2.63132e-05
-3.59157e-06
2.54239e-05
-9.46901e-06
2.38422e-05
-9.8927e-06
2.23357e-05
-6.84951e-06
2.06897e-05
-5.6311e-06
1.90183e-05
-3.81528e-06
1.65227e-05
2.84577e-06
1.499e-05
6.39322e-06
1.30792e-05
8.83571e-06
1.21659e-05
1.88205e-06
1.0876e-05
-1.34761e-05
8.89991e-06
-2.47845e-05
6.16517e-06
-3.61667e-05
6.70593e-06
-4.7717e-05
1.1262e-05
-3.7808e-05
9.42147e-06
-3.4195e-05
7.85352e-06
-7.26124e-06
1.11733e-05
-9.60107e-06
1.09538e-05
1.54339e-05
1.39238e-05
1.68992e-05
1.41329e-05
3.66908e-05
1.58249e-05
4.27389e-05
1.60647e-05
5.28407e-05
1.7184e-05
4.02118e-05
1.64664e-05
4.46271e-05
1.70361e-05
2.3435e-05
1.72456e-05
3.25105e-05
1.79877e-05
1.18697e-05
1.87277e-05
2.12495e-05
1.9275e-05
2.10928e-06
1.96776e-05
1.32058e-05
1.98824e-05
-5.21571e-06
2.0231e-05
3.15307e-06
2.04674e-05
-1.54294e-05
2.06148e-05
-1.98191e-06
2.08316e-05
-1.6048e-05
2.0707e-05
-1.06219e-06
2.08098e-05
-1.74793e-05
2.03583e-05
-3.80159e-06
1.99429e-05
-2.08433e-05
1.8891e-05
-3.39202e-06
1.86375e-05
-1.81813e-05
1.69693e-05
2.51702e-06
1.71849e-05
-1.5404e-05
1.58261e-05
7.78704e-06
1.66081e-05
-1.0189e-05
1.47645e-05
1.25876e-05
1.65582e-05
-9.14883e-06
1.53717e-05
1.5793e-05
1.83016e-05
-5.77191e-06
1.69425e-05
2.1551e-05
2.12348e-05
-3.57989e-06
2.13268e-05
2.75596e-05
2.60648e-05
-6.62864e-07
2.81034e-05
3.51727e-05
2.7262e-05
1.07022e-05
3.72594e-05
3.00073e-05
3.44262e-05
-2.08667e-07
3.42691e-05
-1.05021e-06
3.44475e-05
-1.42478e-06
3.42529e-05
-1.47377e-06
3.42074e-05
-1.56523e-06
3.41354e-05
-2.89554e-06
3.3699e-05
-3.62283e-06
3.36931e-05
-3.69494e-06
3.32041e-05
-4.18163e-06
3.28926e-05
-2.97001e-06
3.33945e-05
-1.8992e-06
3.35845e-05
-1.06713e-06
3.41227e-05
-2.12492e-07
3.44169e-05
-4.72029e-07
3.45524e-05
-1.48487e-06
3.47589e-05
-4.41794e-06
3.43991e-05
-6.31256e-06
3.45358e-05
-7.81095e-06
3.41935e-05
-1.07043e-05
3.31077e-05
-1.20547e-05
3.26652e-05
-1.43783e-05
3.18012e-05
-1.78532e-05
3.04962e-05
-1.89918e-05
2.99039e-05
-2.11356e-05
2.84675e-05
-2.44848e-05
2.55369e-05
-2.42145e-05
2.28598e-05
-2.37609e-05
2.15685e-05
-2.64437e-05
2.14874e-05
-2.65153e-05
2.17929e-05
-2.30313e-05
2.15344e-05
-1.74226e-05
2.18888e-05
-8.176e-06
2.21361e-05
1.40081e-07
2.26576e-05
7.54791e-06
2.40711e-05
1.18969e-05
2.55887e-05
1.70717e-05
2.74196e-05
2.28201e-05
2.85307e-05
2.60887e-05
2.8914e-05
2.45052e-05
2.85946e-05
1.93717e-05
2.79416e-05
1.42674e-05
2.74693e-05
6.39484e-06
2.60437e-05
4.45206e-07
2.53336e-05
-2.88147e-06
2.46254e-05
-8.76077e-06
2.33039e-05
-8.57121e-06
2.19627e-05
-5.50828e-06
2.04113e-05
-4.07975e-06
1.86368e-05
-2.04076e-06
1.62381e-05
5.24448e-06
1.47425e-05
7.88882e-06
1.3328e-05
1.02502e-05
1.26359e-05
2.57418e-06
1.03148e-05
-1.1155e-05
9.27562e-06
-2.37453e-05
8.57773e-06
-3.54688e-05
8.03022e-06
-4.71695e-05
1.08847e-05
-4.06625e-05
7.0473e-06
-3.03576e-05
6.36557e-06
-6.5795e-06
9.44274e-06
-1.26782e-05
9.0331e-06
1.58435e-05
1.27304e-05
1.32018e-05
1.24485e-05
3.69727e-05
1.49633e-05
4.02241e-05
1.53152e-05
5.24889e-05
1.67297e-05
3.87974e-05
1.64716e-05
4.48852e-05
1.72096e-05
2.2697e-05
1.76668e-05
3.20534e-05
1.83425e-05
1.1194e-05
1.93456e-05
2.02464e-05
1.98462e-05
1.60867e-06
2.05222e-05
1.25298e-05
2.07603e-05
-5.45385e-06
2.13309e-05
2.58247e-06
2.12836e-05
-1.53822e-05
2.14224e-05
-2.12066e-06
2.1373e-05
-1.59986e-05
2.14932e-05
-1.1824e-06
2.15002e-05
-1.74862e-05
2.125e-05
-3.55143e-06
2.06552e-05
-2.02485e-05
1.93947e-05
-2.13148e-06
1.88521e-05
-1.76387e-05
1.72186e-05
4.15053e-06
1.7207e-05
-1.53924e-05
1.58107e-05
9.18326e-06
1.69103e-05
-1.12886e-05
1.51356e-05
1.43622e-05
1.67725e-05
-1.07857e-05
1.53607e-05
1.72048e-05
1.81515e-05
-8.56281e-06
1.6183e-05
2.35195e-05
1.87157e-05
-6.11251e-06
1.86936e-05
2.75817e-05
2.16377e-05
-3.60695e-06
2.53276e-05
3.14828e-05
2.70234e-05
9.00641e-06
3.35076e-05
3.07752e-05
3.45715e-05
-2.96238e-07
3.43684e-05
-8.47045e-07
3.43017e-05
-1.35809e-06
3.4061e-05
-1.23314e-06
3.41146e-05
-1.61881e-06
3.3953e-05
-2.73389e-06
3.36227e-05
-3.29258e-06
3.35812e-05
-3.65347e-06
3.29918e-05
-3.59221e-06
3.30043e-05
-2.9825e-06
3.3407e-05
-2.3019e-06
3.34432e-05
-1.10336e-06
3.38829e-05
-6.52105e-07
3.42031e-05
-7.92317e-07
3.4551e-05
-1.83277e-06
3.45382e-05
-4.40505e-06
3.41584e-05
-5.93285e-06
3.40732e-05
-7.72566e-06
3.33503e-05
-9.98137e-06
3.2636e-05
-1.13404e-05
3.24122e-05
-1.41545e-05
3.13402e-05
-1.67811e-05
3.00781e-05
-1.77297e-05
2.90611e-05
-2.01185e-05
2.64274e-05
-2.18512e-05
2.25685e-05
-2.03556e-05
1.9895e-05
-2.10874e-05
1.8877e-05
-2.54257e-05
1.87874e-05
-2.64257e-05
1.88978e-05
-2.31417e-05
1.85187e-05
-1.70435e-05
1.87656e-05
-8.4229e-06
1.91501e-05
-2.44416e-07
1.98702e-05
6.82781e-06
2.10673e-05
1.06999e-05
2.25075e-05
1.56314e-05
2.43577e-05
2.09698e-05
2.57124e-05
2.4734e-05
2.63812e-05
2.38364e-05
2.62821e-05
1.94709e-05
2.60832e-05
1.44662e-05
2.5726e-05
6.75198e-06
2.4545e-05
1.62621e-06
2.43002e-05
-2.63658e-06
2.36653e-05
-8.12586e-06
2.24803e-05
-7.38627e-06
2.12577e-05
-4.28568e-06
1.97884e-05
-2.61049e-06
1.79412e-05
-1.93551e-07
1.59779e-05
7.20787e-06
1.43313e-05
9.53536e-06
1.31405e-05
1.14411e-05
1.27726e-05
2.942e-06
1.04472e-05
-8.82952e-06
9.8117e-06
-2.31098e-05
9.6775e-06
-3.53346e-05
6.29281e-06
-4.37848e-05
6.06379e-06
-4.04335e-05
3.29619e-06
-2.759e-05
4.9159e-06
-8.19921e-06
7.68809e-06
-1.54504e-05
7.41212e-06
1.61195e-05
1.11908e-05
9.42317e-06
1.0264e-05
3.78995e-05
1.39235e-05
3.65646e-05
1.43669e-05
5.20454e-05
1.6125e-05
3.70393e-05
1.63703e-05
4.46399e-05
1.72367e-05
2.18306e-05
1.81008e-05
3.11893e-05
1.87727e-05
1.05221e-05
2.00176e-05
1.90015e-05
2.04982e-05
1.12803e-06
2.14111e-05
1.16169e-05
2.16596e-05
-5.70242e-06
2.24805e-05
1.7616e-06
2.2288e-05
-1.51897e-05
2.24095e-05
-2.2422e-06
2.22219e-05
-1.5811e-05
2.26499e-05
-1.61035e-06
2.2678e-05
-1.75144e-05
2.2535e-05
-3.40844e-06
2.1667e-05
-1.93805e-05
2.02765e-05
-7.40979e-07
1.94243e-05
-1.67865e-05
1.76959e-05
5.87897e-06
1.73915e-05
-1.5088e-05
1.57733e-05
1.08015e-05
1.67254e-05
-1.22407e-05
1.5147e-05
1.59406e-05
1.63065e-05
-1.19452e-05
1.52835e-05
1.82278e-05
1.75548e-05
-1.08341e-05
1.67759e-05
2.42984e-05
1.81256e-05
-7.46226e-06
1.87546e-05
2.69528e-05
1.91851e-05
-4.03752e-06
2.24823e-05
2.81857e-05
2.43855e-05
7.10315e-06
2.83258e-05
2.95673e-05
3.44631e-05
-3.11388e-07
3.4229e-05
-6.12995e-07
3.39692e-05
-1.09823e-06
3.38972e-05
-1.16115e-06
3.40545e-05
-1.77608e-06
3.37213e-05
-2.40067e-06
3.3455e-05
-3.02637e-06
3.34115e-05
-3.60991e-06
3.32386e-05
-3.41929e-06
3.3483e-05
-3.22692e-06
3.33828e-05
-2.20175e-06
3.3348e-05
-1.0685e-06
3.39379e-05
-1.24202e-06
3.42936e-05
-1.14808e-06
3.4416e-05
-1.95511e-06
3.40621e-05
-4.0512e-06
3.37109e-05
-5.58162e-06
3.34588e-05
-7.4736e-06
3.27927e-05
-9.31519e-06
3.25035e-05
-1.10513e-05
3.20663e-05
-1.37173e-05
3.0647e-05
-1.53618e-05
2.93286e-05
-1.64114e-05
2.76222e-05
-1.84121e-05
2.38746e-05
-1.81036e-05
1.94066e-05
-1.58876e-05
1.67805e-05
-1.84613e-05
1.58819e-05
-2.4527e-05
1.57111e-05
-2.62548e-05
1.56059e-05
-2.30366e-05
1.52428e-05
-1.66804e-05
1.53576e-05
-8.53771e-06
1.56593e-05
-5.46039e-07
1.66507e-05
5.8364e-06
1.79887e-05
9.36184e-06
1.9391e-05
1.42291e-05
2.09668e-05
1.9394e-05
2.24074e-05
2.32934e-05
2.337e-05
2.28738e-05
2.3627e-05
1.92138e-05
2.37725e-05
1.43208e-05
2.35111e-05
7.01335e-06
2.28867e-05
2.25068e-06
2.31386e-05
-2.8885e-06
2.25027e-05
-7.49001e-06
2.13545e-05
-6.23804e-06
2.02746e-05
-3.2058e-06
1.9e-05
-1.33591e-06
1.71525e-05
1.65401e-06
1.55061e-05
8.85427e-06
1.38237e-05
1.12177e-05
1.28235e-05
1.24413e-05