/*--------------------------------*- C++ -*----------------------------------*\
| =========                 |                                                 |
| \\      /  F ield         | OpenFOAM: The Open Source CFD Toolbox           |
|  \\    /   O peration     | Version:  2.4.0                                 |
|   \\  /    A nd           | Web:      www.OpenFOAM.org                      |
|    \\/     M anipulation  |                                                 |
\*---------------------------------------------------------------------------*/
FoamFile
{
    version     2.0;
    format      ascii;
    class       volVectorField;
    location    "0.097";
    object      U_0;
}
// * * * * * * * * * * * * * * * * * * * * * * * * * * * * * * * * * * * * * //

dimensions      [0 1 -1 0 0 0 0];

internalField   nonuniform List<vector> 
17600
(
(5.32801 0.309441 0)
(2.98484 0.0607081 0)
(2.19582 -0.00172846 0)
(1.84956 -0.00334296 0)
(1.70471 -0.00144226 0)
(1.61265 -0.00012695 0)
(1.53782 8.51317e-05 0)
(1.47596 3.82515e-05 0)
(1.43942 -0.000392026 0)
(1.39541 0.000196669 0)
(1.38125 -0.000273292 0)
(1.34086 0.000278676 0)
(1.33956 -0.000375233 0)
(1.3013 0.00031394 0)
(1.30418 -0.000312579 0)
(1.26478 0.00067074 0)
(1.30195 -0.00322114 0)
(1.2771 0.00191067 0)
(1.22403 0.000863973 0)
(1.7017 -0.0373 0)
(8.59793 0.871948 0)
(6.94982 0.383689 0)
(5.80821 0.121207 0)
(5.05971 0.0515551 0)
(4.64964 0.0277385 0)
(4.381 0.0207431 0)
(4.17861 0.0167207 0)
(4.00902 0.0122919 0)
(3.9073 0.00904836 0)
(3.77701 0.00805272 0)
(3.74002 0.00586899 0)
(3.62301 0.00618549 0)
(3.62099 0.00382275 0)
(3.50941 0.0056853 0)
(3.51941 0.00286739 0)
(3.41414 0.00505965 0)
(3.47969 -0.00890946 0)
(3.3892 0.0162807 0)
(3.27959 -0.0329301 0)
(4.12433 -0.0229224 0)
(9.85459 1.02221 0)
(9.34768 0.577872 0)
(8.46858 0.24037 0)
(7.64635 0.13117 0)
(7.09065 0.0807911 0)
(6.69703 0.0581662 0)
(6.40785 0.0456598 0)
(6.15179 0.0336815 0)
(6.006 0.0266471 0)
(5.79882 0.021975 0)
(5.7493 0.0173039 0)
(5.56442 0.0165229 0)
(5.56349 0.0117595 0)
(5.39153 0.0147915 0)
(5.4078 0.00899325 0)
(5.24442 0.0123963 0)
(5.34419 -0.0125727 0)
(5.14369 0.0367199 0)
(5.14522 -0.0628911 0)
(5.81899 -0.0411526 0)
(10.1535 0.947696 0)
(10.5761 0.669419 0)
(10.25 0.329358 0)
(9.64854 0.211485 0)
(9.12204 0.146119 0)
(8.68693 0.107775 0)
(8.3706 0.0848774 0)
(8.05124 0.0626695 0)
(7.89157 0.0511927 0)
(7.61893 0.0412557 0)
(7.56904 0.0332586 0)
(7.32918 0.0310111 0)
(7.32839 0.023021 0)
(7.11212 0.0271192 0)
(7.13371 0.0183483 0)
(6.91129 0.0206125 0)
(7.08199 -0.0102066 0)
(6.68944 0.0550479 0)
(6.95512 -0.0874999 0)
(7.26017 -0.0480562 0)
(10.0593 0.805431 0)
(10.9342 0.67071 0)
(11.1196 0.356041 0)
(10.8992 0.257638 0)
(10.5899 0.201276 0)
(10.2306 0.157445 0)
(9.97922 0.127753 0)
(9.63894 0.0952857 0)
(9.51058 0.0796246 0)
(9.19839 0.0642882 0)
(9.16274 0.0518396 0)
(8.89276 0.0485824 0)
(8.89349 0.0365359 0)
(8.6525 0.0413783 0)
(8.68661 0.0311641 0)
(8.39684 0.0267729 0)
(8.6807 0.0006116 0)
(8.0673 0.0695779 0)
(8.5643 -0.110037 0)
(8.69769 -0.0525551 0)
(9.96115 0.691105 0)
(10.8778 0.637069 0)
(11.2963 0.333905 0)
(11.3692 0.253014 0)
(11.3526 0.222077 0)
(11.1656 0.188455 0)
(11.0899 0.161734 0)
(10.801 0.124255 0)
(10.7603 0.106328 0)
(10.461 0.0881327 0)
(10.4587 0.0704966 0)
(10.1949 0.0673791 0)
(10.2086 0.0509308 0)
(9.96202 0.0556303 0)
(10.0294 0.0476597 0)
(9.66632 0.0289684 0)
(10.0726 0.0168296 0)
(9.31177 0.0854253 0)
(9.90264 -0.134547 0)
(10.0286 -0.0555137 0)
(9.92831 0.601605 0)
(10.7543 0.602158 0)
(11.226 0.306579 0)
(11.3716 0.221238 0)
(11.5431 0.208797 0)
(11.4707 0.190205 0)
(11.6058 0.173335 0)
(11.4203 0.137932 0)
(11.5143 0.120807 0)
(11.2983 0.105595 0)
(11.3632 0.0840362 0)
(11.149 0.0834213 0)
(11.2076 0.0640735 0)
(10.971 0.0668703 0)
(11.1041 0.066672 0)
(10.6897 0.0277261 0)
(11.1726 0.0321767 0)
(10.3904 0.10581 0)
(11.0242 -0.165702 0)
(11.0126 -0.00361528 0)
(9.92654 0.524676 0)
(10.6296 0.560151 0)
(11.1472 0.291888 0)
(11.2648 0.192153 0)
(11.532 0.187685 0)
(11.4428 0.177208 0)
(11.6897 0.167273 0)
(11.5758 0.136147 0)
(11.7616 0.118176 0)
(11.653 0.109443 0)
(11.803 0.0865859 0)
(11.6578 0.0895107 0)
(11.8119 0.0710435 0)
(11.5988 0.0710079 0)
(11.8174 0.0817762 0)
(11.4407 0.0261769 0)
(11.8863 0.0402998 0)
(11.2326 0.124047 0)
(11.9331 -0.197086 0)
(11.5704 0.10818 0)
(9.9592 0.458719 0)
(10.5044 0.50956 0)
(11.0657 0.278556 0)
(11.152 0.165872 0)
(11.4883 0.166457 0)
(11.3924 0.165378 0)
(11.6211 0.153808 0)
(11.5597 0.1305 0)
(11.736 0.106384 0)
(11.6901 0.103635 0)
(11.8929 0.0790991 0)
(11.7697 0.0864398 0)
(12.0289 0.0667471 0)
(11.8437 0.0699382 0)
(12.0844 0.0823087 0)
(11.9141 0.0258496 0)
(12.1143 0.0423153 0)
(11.7956 0.119644 0)
(12.4869 -0.204005 0)
(11.7809 0.163169 0)
(10.0007 0.401995 0)
(10.4322 0.457262 0)
(10.9633 0.26807 0)
(11.0754 0.138427 0)
(11.3789 0.14086 0)
(11.3893 0.153433 0)
(11.5309 0.142632 0)
(11.5223 0.121841 0)
(11.6505 0.0971502 0)
(11.639 0.0917173 0)
(11.8612 0.0726181 0)
(11.712 0.0753063 0)
(12.0429 0.0594449 0)
(11.8773 0.0652323 0)
(12.0324 0.0730689 0)
(12.1694 0.0224784 0)
(11.9379 0.0505705 0)
(12.1544 0.072671 0)
(12.5362 -0.167447 0)
(11.732 0.136823 0)
(10.0112 0.346314 0)
(10.4128 0.411782 0)
(10.8794 0.256159 0)
(11.0462 0.118819 0)
(11.2349 0.111536 0)
(11.372 0.139348 0)
(11.4678 0.131729 0)
(11.4823 0.116794 0)
(11.5759 0.085731 0)
(11.591 0.0803644 0)
(11.8186 0.0649578 0)
(11.6 0.0675731 0)
(12.0264 0.0431223 0)
(11.799 0.0725908 0)
(11.9754 0.0456759 0)
(12.2066 0.0353238 0)
(11.7851 0.0440368 0)
(12.324 0.0255595 0)
(12.2884 -0.128105 0)
(11.7253 0.0655794 0)
(9.99518 0.295754 0)
(10.4122 0.363336 0)
(10.8228 0.246775 0)
(11.0108 0.10439 0)
(11.1505 0.0862421 0)
(11.3307 0.11801 0)
(11.4055 0.122161 0)
(11.4525 0.109032 0)
(11.5375 0.0779233 0)
(11.5535 0.0652069 0)
(11.7228 0.0673097 0)
(11.5533 0.0527127 0)
(11.9841 0.0330469 0)
(11.6646 0.0729949 0)
(12.0447 0.0218795 0)
(12.0351 0.0426598 0)
(11.8516 0.0336304 0)
(12.3045 -0.00944924 0)
(12.0353 -0.0947429 0)
(11.8081 -0.0330818 0)
(9.98935 0.249458 0)
(10.4018 0.313926 0)
(10.7459 0.235493 0)
(10.9882 0.0934277 0)
(11.133 0.0615782 0)
(11.276 0.100256 0)
(11.3331 0.108211 0)
(11.4319 0.0991901 0)
(11.4939 0.0688984 0)
(11.5161 0.0587015 0)
(11.6102 0.0642871 0)
(11.624 0.0352918 0)
(11.8468 0.0319913 0)
(11.6459 0.0612212 0)
(12.0628 0.0059734 0)
(11.806 0.0497168 0)
(12.0069 0.010408 0)
(12.1591 -0.0202214 0)
(11.8121 -0.0723417 0)
(11.9406 -0.110877 0)
(10.004 0.205803 0)
(10.3487 0.27076 0)
(10.6753 0.215103 0)
(10.9886 0.0811456 0)
(11.1241 0.0444975 0)
(11.2161 0.0868551 0)
(11.2886 0.0928843 0)
(11.3986 0.0871608 0)
(11.4246 0.0627546 0)
(11.4959 0.0523597 0)
(11.5577 0.0533848 0)
(11.6745 0.0243405 0)
(11.6798 0.0329914 0)
(11.7547 0.042678 0)
(11.887 0.00646411 0)
(11.7516 0.0416587 0)
(12.0889 -0.0121458 0)
(11.9361 -0.00618132 0)
(11.7608 -0.0793987 0)
(12.1583 -0.196705 0)
(10.0032 0.169348 0)
(10.2898 0.228446 0)
(10.6642 0.184311 0)
(10.9749 0.0684975 0)
(11.0866 0.0342852 0)
(11.1791 0.0742529 0)
(11.2746 0.0742122 0)
(11.3411 0.0806811 0)
(11.3871 0.0516586 0)
(11.4874 0.0437174 0)
(11.5407 0.0434957 0)
(11.646 0.0195734 0)
(11.5902 0.0263271 0)
(11.8275 0.0313285 0)
(11.6849 0.0106344 0)
(11.8737 0.0148707 0)
(12.0123 -0.013016 0)
(11.7685 -0.00119631 0)
(11.9184 -0.10987 0)
(12.2652 -0.269094 0)
(9.98591 0.135886 0)
(10.284 0.185108 0)
(10.6599 0.14673 0)
(10.9189 0.0658281 0)
(11.0578 0.0203376 0)
(11.1745 0.059959 0)
(11.2549 0.0587036 0)
(11.286 0.0702868 0)
(11.3928 0.0406681 0)
(11.459 0.0331611 0)
(11.517 0.0378653 0)
(11.5889 0.0152523 0)
(11.6184 0.0151117 0)
(11.7611 0.0268742 0)
(11.6524 0.00390415 0)
(11.9641 -0.00853063 0)
(11.8313 -0.00234376 0)
(11.7604 -0.0139328 0)
(12.0849 -0.15167 0)
(12.1347 -0.289667 0)
(9.98916 0.107191 0)
(10.2906 0.134939 0)
(10.6016 0.121995 0)
(10.874 0.0537481 0)
(11.0745 0.0101499 0)
(11.1646 0.0426247 0)
(11.2239 0.0477122 0)
(11.2574 0.0582954 0)
(11.3955 0.027176 0)
(11.4105 0.0278591 0)
(11.4986 0.0312613 0)
(11.5622 0.00553778 0)
(11.6653 0.00843095 0)
(11.6258 0.023923 0)
(11.7652 -0.0132924 0)
(11.883 -0.0137218 0)
(11.697 0.00553648 0)
(11.8969 -0.0481453 0)
(12.086 -0.179212 0)
(11.8574 -0.233821 0)
(10.0027 0.0741886 0)
(10.2571 0.098658 0)
(10.5575 0.0867333 0)
(10.8916 0.0456954 0)
(11.076 -0.00894077 0)
(11.1327 0.0397699 0)
(11.1959 0.0299889 0)
(11.2518 0.0459295 0)
(11.3798 0.0177793 0)
(11.3813 0.0204389 0)
(11.4924 0.0237333 0)
(11.5803 -0.00754531 0)
(11.6149 0.0110466 0)
(11.5807 0.0123645 0)
(11.8492 -0.0273452 0)
(11.7171 -0.0075759 0)
(11.7171 -0.00563683 0)
(12.0173 -0.0864891 0)
(11.9293 -0.164006 0)
(11.6662 -0.188933 0)
(9.99753 0.0508882 0)
(10.2322 0.0525056 0)
(10.5743 0.0560209 0)
(10.8999 0.0251189 0)
(11.0333 -0.00808877 0)
(11.1217 0.0224075 0)
(11.1809 0.0192315 0)
(11.2684 0.0268248 0)
(11.3542 0.0114021 0)
(11.3817 0.0104443 0)
(11.4812 0.0144797 0)
(11.5931 -0.0137759 0)
(11.5222 0.0138195 0)
(11.6609 -0.00871317 0)
(11.8045 -0.0294778 0)
(11.6412 -0.00371219 0)
(11.8315 -0.0374396 0)
(11.9692 -0.0895901 0)
(11.8005 -0.156363 0)
(11.6644 -0.194597 0)
(9.98893 0.0225593 0)
(10.2449 0.0126055 0)
(10.5839 0.0161071 0)
(10.8589 0.0228232 0)
(11.0197 -0.0231738 0)
(11.142 0.0169129 0)
(11.1795 -0.00377268 0)
(11.2856 0.0178275 0)
(11.3214 0.00165311 0)
(11.3812 0.00329039 0)
(11.4842 0.00220813 0)
(11.5649 -0.0114909 0)
(11.5066 0.000101656 0)
(11.7413 -0.0189727 0)
(11.7072 -0.0315933 0)
(11.671 -0.0109808 0)
(11.8883 -0.0583971 0)
(11.8451 -0.0885999 0)
(11.8034 -0.153654 0)
(11.7238 -0.229583 0)
(9.9925 -0.0013381 0)
(10.2534 -0.0347554 0)
(10.5674 -0.010211 0)
(10.8346 0.00708843 0)
(11.0601 -0.0311522 0)
(11.1397 0.00134702 0)
(11.1829 -0.013734 0)
(11.278 0.00149847 0)
(11.2986 0.00104915 0)
(11.3951 -0.0133363 0)
(11.5054 -0.000763746 0)
(11.5153 -0.0198296 0)
(11.5779 -0.00532784 0)
(11.7256 -0.0367189 0)
(11.6505 -0.0200394 0)
(11.7315 -0.0384117 0)
(11.8588 -0.0509742 0)
(11.8024 -0.112295 0)
(11.8313 -0.131859 0)
(11.7465 -0.268136 0)
(9.99252 -0.0295399 0)
(10.2567 -0.0745338 0)
(10.5636 -0.0431853 0)
(10.853 -0.00614402 0)
(11.0913 -0.0434038 0)
(11.1008 -0.00581373 0)
(11.2049 -0.0321706 0)
(11.2618 -0.00824641 0)
(11.3054 -0.0097865 0)
(11.4376 -0.0276583 0)
(11.4929 -0.00375568 0)
(11.4929 -0.0234746 0)
(11.6514 -0.024491 0)
(11.6554 -0.0277766 0)
(11.6565 -0.0359545 0)
(11.7871 -0.0410822 0)
(11.8124 -0.0718094 0)
(11.8233 -0.0986665 0)
(11.8291 -0.161417 0)
(11.7486 -0.201256 0)
(9.9921 -0.0572045 0)
(10.2638 -0.116909 0)
(10.5748 -0.0751913 0)
(10.8866 -0.0212315 0)
(11.0798 -0.0505664 0)
(11.092 -0.0165062 0)
(11.2417 -0.0492188 0)
(11.2528 -0.0206102 0)
(11.332 -0.0205434 0)
(11.4636 -0.0389893 0)
(11.4478 -0.00348747 0)
(11.5336 -0.034426 0)
(11.6702 -0.0353558 0)
(11.616 -0.0229273 0)
(11.7102 -0.0539904 0)
(11.8044 -0.0447887 0)
(11.7923 -0.0837263 0)
(11.8429 -0.0963193 0)
(11.829 -0.181485 0)
(11.7514 -0.137641 0)
(9.99777 -0.0846522 0)
(10.2681 -0.16172 0)
(10.5956 -0.105132 0)
(10.9185 -0.0376012 0)
(11.0566 -0.0525144 0)
(11.14 -0.0370808 0)
(11.2601 -0.0588165 0)
(11.2436 -0.0350037 0)
(11.3671 -0.0288638 0)
(11.4674 -0.04952 0)
(11.4223 -0.00246737 0)
(11.619 -0.055045 0)
(11.6487 -0.0311915 0)
(11.6179 -0.0355691 0)
(11.773 -0.0572422 0)
(11.7839 -0.0642165 0)
(11.796 -0.0704325 0)
(11.8525 -0.127523 0)
(11.8518 -0.157205 0)
(11.7989 -0.199653 0)
(10.0048 -0.118776 0)
(10.2703 -0.198977 0)
(10.6369 -0.145383 0)
(10.9302 -0.039206 0)
(11.0661 -0.0709254 0)
(11.203 -0.0464756 0)
(11.2358 -0.0742953 0)
(11.2665 -0.0440269 0)
(11.4155 -0.045457 0)
(11.4494 -0.0505037 0)
(11.4685 -0.0163754 0)
(11.6695 -0.0613267 0)
(11.6122 -0.0388483 0)
(11.6689 -0.034699 0)
(11.7927 -0.076613 0)
(11.772 -0.0583933 0)
(11.8246 -0.0873175 0)
(11.878 -0.13121 0)
(11.8835 -0.167174 0)
(11.8224 -0.232804 0)
(10.0051 -0.148119 0)
(10.2852 -0.248604 0)
(10.6847 -0.170908 0)
(10.9347 -0.057099 0)
(11.1204 -0.0755029 0)
(11.221 -0.069517 0)
(11.2226 -0.0727838 0)
(11.3317 -0.0707641 0)
(11.4434 -0.0484668 0)
(11.4436 -0.059018 0)
(11.5454 -0.0273652 0)
(11.656 -0.068646 0)
(11.6313 -0.0390357 0)
(11.7188 -0.047034 0)
(11.794 -0.0805127 0)
(11.8041 -0.0664265 0)
(11.8572 -0.0965982 0)
(11.9094 -0.137494 0)
(11.9008 -0.185841 0)
(11.7882 -0.20813 0)
(10.0012 -0.188215 0)
(10.3162 -0.287126 0)
(10.7269 -0.207368 0)
(10.9648 -0.0607263 0)
(11.17 -0.097598 0)
(11.212 -0.0718395 0)
(11.2632 -0.0906084 0)
(11.3944 -0.0877366 0)
(11.4405 -0.0504071 0)
(11.4867 -0.0723583 0)
(11.5886 -0.0350135 0)
(11.6526 -0.0733681 0)
(11.6924 -0.0467712 0)
(11.7405 -0.0548744 0)
(11.825 -0.0850175 0)
(11.8431 -0.0782889 0)
(11.8873 -0.0996869 0)
(11.9281 -0.152839 0)
(11.9156 -0.185479 0)
(11.8142 -0.210893 0)
(10.0016 -0.226098 0)
(10.3539 -0.33699 0)
(10.7723 -0.227647 0)
(11.0168 -0.0798789 0)
(11.1905 -0.104707 0)
(11.2347 -0.0890307 0)
(11.3297 -0.103309 0)
(11.4205 -0.100885 0)
(11.4587 -0.058202 0)
(11.5553 -0.0808137 0)
(11.6032 -0.0451972 0)
(11.7015 -0.0795872 0)
(11.7307 -0.0524582 0)
(11.7733 -0.0621945 0)
(11.8654 -0.0913743 0)
(11.8791 -0.0855967 0)
(11.9135 -0.10457 0)
(11.9578 -0.163863 0)
(11.9615 -0.191831 0)
(11.8783 -0.223042 0)
(10.0145 -0.273328 0)
(10.386 -0.381305 0)
(10.8389 -0.248875 0)
(11.0616 -0.0925906 0)
(11.2144 -0.122187 0)
(11.2868 -0.104622 0)
(11.377 -0.113352 0)
(11.4412 -0.116073 0)
(11.5216 -0.0636091 0)
(11.6005 -0.0933652 0)
(11.6441 -0.0537682 0)
(11.7509 -0.0850934 0)
(11.7619 -0.0594194 0)
(11.8206 -0.0702949 0)
(11.9016 -0.0942109 0)
(11.9176 -0.0964465 0)
(11.9518 -0.107398 0)
(12.0054 -0.176047 0)
(12.0093 -0.201414 0)
(11.9179 -0.229344 0)
(10.0356 -0.323943 0)
(10.4161 -0.431341 0)
(10.9285 -0.260681 0)
(11.0795 -0.110819 0)
(11.2694 -0.14034 0)
(11.3242 -0.11963 0)
(11.4272 -0.125386 0)
(11.4832 -0.126926 0)
(11.5986 -0.075557 0)
(11.6288 -0.101054 0)
(11.7118 -0.0623514 0)
(11.7762 -0.0918454 0)
(11.822 -0.064893 0)
(11.8563 -0.076927 0)
(11.9505 -0.101082 0)
(11.9601 -0.101401 0)
(12.0055 -0.11552 0)
(12.0442 -0.184002 0)
(12.0437 -0.208457 0)
(11.9556 -0.252508 0)
(10.0487 -0.382829 0)
(10.459 -0.47911 0)
(11.0142 -0.271508 0)
(11.0879 -0.128843 0)
(11.3533 -0.160747 0)
(11.35 -0.135947 0)
(11.5079 -0.135902 0)
(11.5269 -0.139612 0)
(11.6781 -0.0859992 0)
(11.6545 -0.105261 0)
(11.7888 -0.0764827 0)
(11.8009 -0.0932786 0)
(11.8954 -0.0740175 0)
(11.8843 -0.0836604 0)
(12.0122 -0.106876 0)
(11.9804 -0.107992 0)
(12.0497 -0.119427 0)
(12.0304 -0.194875 0)
(12.0345 -0.204487 0)
(11.8991 -0.291654 0)
(10.039 -0.447055 0)
(10.5246 -0.527683 0)
(11.0773 -0.280012 0)
(11.1364 -0.151225 0)
(11.4455 -0.184064 0)
(11.3887 -0.150955 0)
(11.6006 -0.147564 0)
(11.572 -0.151134 0)
(11.7516 -0.0951353 0)
(11.6843 -0.11253 0)
(11.8565 -0.0869829 0)
(11.8081 -0.098909 0)
(11.9288 -0.0796123 0)
(11.865 -0.0932981 0)
(11.9883 -0.105386 0)
(11.8857 -0.118659 0)
(11.9564 -0.111861 0)
(11.8295 -0.204253 0)
(11.8152 -0.186002 0)
(11.5729 -0.315854 0)
(10.0142 -0.51888 0)
(10.61 -0.57112 0)
(11.1412 -0.289856 0)
(11.2406 -0.179318 0)
(11.5198 -0.205416 0)
(11.4494 -0.166276 0)
(11.6791 -0.159972 0)
(11.5946 -0.158215 0)
(11.7627 -0.106536 0)
(11.6493 -0.11557 0)
(11.785 -0.0964959 0)
(11.6631 -0.0977966 0)
(11.7468 -0.0857283 0)
(11.6154 -0.0892771 0)
(11.669 -0.108477 0)
(11.5009 -0.105508 0)
(11.5192 -0.117612 0)
(11.306 -0.174326 0)
(11.2316 -0.194453 0)
(10.9225 -0.248789 0)
(9.99129 -0.599163 0)
(10.7186 -0.606013 0)
(11.2307 -0.306597 0)
(11.3633 -0.211582 0)
(11.5506 -0.224721 0)
(11.466 -0.181225 0)
(11.6147 -0.166726 0)
(11.4255 -0.158174 0)
(11.5081 -0.10947 0)
(11.3028 -0.111236 0)
(11.3421 -0.0927109 0)
(11.1391 -0.0901852 0)
(11.1583 -0.0780155 0)
(10.9599 -0.0816566 0)
(10.9541 -0.0938289 0)
(10.7344 -0.0954232 0)
(10.716 -0.100752 0)
(10.4401 -0.154122 0)
(10.3374 -0.168786 0)
(9.97346 -0.200142 0)
(9.99917 -0.689398 0)
(10.8508 -0.638115 0)
(11.3068 -0.335856 0)
(11.3702 -0.24603 0)
(11.3587 -0.234473 0)
(11.1521 -0.181419 0)
(11.1119 -0.156453 0)
(10.7888 -0.140796 0)
(10.7531 -0.0969547 0)
(10.4677 -0.0929803 0)
(10.4294 -0.0772981 0)
(10.1831 -0.0732527 0)
(10.1586 -0.0637866 0)
(9.93083 -0.0658943 0)
(9.89331 -0.076406 0)
(9.65202 -0.0785614 0)
(9.61209 -0.081433 0)
(9.30823 -0.129564 0)
(9.18885 -0.131179 0)
(8.79298 -0.178294 0)
(10.0803 -0.804327 0)
(10.9181 -0.670867 0)
(11.1296 -0.35858 0)
(10.9024 -0.25238 0)
(10.5915 -0.210138 0)
(10.214 -0.152404 0)
(10.0076 -0.123684 0)
(9.6145 -0.107772 0)
(9.50751 -0.0728291 0)
(9.20331 -0.0679356 0)
(9.12853 -0.0568142 0)
(8.88278 -0.0538538 0)
(8.83753 -0.0469648 0)
(8.61289 -0.0486007 0)
(8.56032 -0.0578208 0)
(8.32278 -0.0592486 0)
(8.269 -0.063069 0)
(7.96831 -0.0964064 0)
(7.83137 -0.108499 0)
(7.45501 -0.113647 0)
(10.1637 -0.946888 0)
(10.5682 -0.669203 0)
(10.2573 -0.331741 0)
(9.65201 -0.207498 0)
(9.12049 -0.152097 0)
(8.67141 -0.104686 0)
(8.39944 -0.0817018 0)
(8.02203 -0.0714153 0)
(7.89281 -0.0469962 0)
(7.61845 -0.0433787 0)
(7.53639 -0.0367826 0)
(7.31961 -0.0353119 0)
(7.26844 -0.0306384 0)
(7.07048 -0.0320827 0)
(7.01295 -0.0394004 0)
(6.7982 -0.0409095 0)
(6.73876 -0.0429005 0)
(6.46072 -0.0678578 0)
(6.32387 -0.0761539 0)
(5.95891 -0.0760271 0)
(9.85906 -1.02159 0)
(9.34618 -0.577685 0)
(8.47274 -0.242265 0)
(7.64894 -0.128358 0)
(7.08825 -0.0844127 0)
(6.68408 -0.0567353 0)
(6.43178 -0.0431742 0)
(6.1257 -0.039209 0)
(6.00793 -0.0245623 0)
(5.79327 -0.022671 0)
(5.72368 -0.0197178 0)
(5.55242 -0.0194427 0)
(5.5063 -0.0166254 0)
(5.35062 -0.017746 0)
(5.29574 -0.0229705 0)
(5.11876 -0.0241448 0)
(5.06062 -0.0246432 0)
(4.82523 -0.041148 0)
(4.69731 -0.0461816 0)
(4.36173 -0.0468561 0)
(8.60015 -0.871723 0)
(6.95139 -0.38365 0)
(5.80889 -0.122299 0)
(5.06098 -0.0498691 0)
(4.64867 -0.0295284 0)
(4.37068 -0.0204343 0)
(4.19496 -0.0150059 0)
(3.99132 -0.0151462 0)
(3.907 -0.00837725 0)
(3.76996 -0.00791676 0)
(3.72312 -0.00729625 0)
(3.60928 -0.00762829 0)
(3.575 -0.00630015 0)
(3.47242 -0.00689449 0)
(3.42768 -0.00993544 0)
(3.30187 -0.0105988 0)
(3.25287 -0.0100865 0)
(3.08189 -0.0189188 0)
(2.97136 -0.02101 0)
(2.71044 -0.0220304 0)
(5.32843 -0.309382 0)
(2.98672 -0.0606696 0)
(2.19455 0.00143531 0)
(1.84959 0.00389853 0)
(1.70553 0.00100226 0)
(1.6071 5.90093e-06 0)
(1.54398 0.000554358 0)
(1.47038 -0.0007311 0)
(1.43674 0.000428853 0)
(1.391 7.24067e-05 0)
(1.37433 -0.000113573 0)
(1.33133 -0.000402075 0)
(1.31568 -0.000139057 0)
(1.27813 -0.000135172 0)
(1.2558 -0.000934471 0)
(1.20036 -0.00102929 0)
(1.17431 -0.000317376 0)
(1.0991 -0.00229998 0)
(1.03331 -0.00231876 0)
(0.913165 0.00270183 0)
(1.56184 0.30009 0)
(2.56478 0.219917 0)
(2.916 -0.211382 0)
(3.46524 -0.617919 0)
(3.31199 -1.01841 0)
(3.51304 -1.43119 0)
(2.9209 -1.85539 0)
(2.9838 -1.83961 0)
(2.28217 -1.66267 0)
(1.74887 -1.65734 0)
(1.18514 -0.947284 0)
(0.731333 -0.00584859 0)
(1.15536 1.49701 0)
(2.01977 2.5607 0)
(2.95947 3.93288 0)
(4.39459 3.64901 0)
(7.18287 1.31922 0)
(6.51554 0.668453 0)
(6.37509 0.483155 0)
(6.85999 0.603726 0)
(7.34968 1.11394 0)
(8.73935 0.632993 0)
(9.09214 0.445239 0)
(9.87452 -0.124214 0)
(10.6077 -1.08971 0)
(10.5656 -1.64209 0)
(10.8759 -2.43205 0)
(11.0125 -3.05705 0)
(11.1732 -3.52764 0)
(11.908 -4.31408 0)
(12.6568 -4.97601 0)
(13.1969 -5.72246 0)
(13.2275 -6.34834 0)
(12.6996 -6.37897 0)
(12.2017 -6.53011 0)
(11.8938 -6.73452 0)
(11.2128 -6.49574 0)
(10.7618 -6.49154 0)
(10.5768 -6.80216 0)
(10.0883 -6.74471 0)
(9.57837 -6.70793 0)
(9.56041 -7.20337 0)
(9.70814 -7.73565 0)
(9.53658 -7.86169 0)
(9.30173 -7.89882 0)
(9.3322 -8.14218 0)
(9.5203 -8.46355 0)
(9.83492 -8.43411 0)
(10.0192 -8.14199 0)
(9.92402 -7.59937 0)
(9.87484 -6.67125 0)
(10.003 -5.78123 0)
(10.1081 -4.77884 0)
(9.83847 -3.50065 0)
(10.0484 -2.29162 0)
(10.1604 -1.16118 0)
(10.0322 0.0338238 0)
(10.2803 1.60617 0)
(10.1668 2.64571 0)
(10.0477 3.31009 0)
(10.1516 4.4976 0)
(9.93394 5.28848 0)
(9.58485 5.6335 0)
(9.3898 5.84465 0)
(8.87081 5.46391 0)
(8.3495 5.06461 0)
(8.25715 5.06785 0)
(8.03351 4.57766 0)
(7.80642 3.98734 0)
(7.72152 4.06858 0)
(7.66968 4.2924 0)
(7.50096 4.35664 0)
(7.57262 4.458 0)
(7.71476 4.4128 0)
(7.53312 3.66824 0)
(7.35375 3.35063 0)
(7.64425 3.6979 0)
(7.99567 4.57017 0)
(8.06427 5.04429 0)
(7.85093 4.98799 0)
(7.48053 5.07631 0)
(7.83709 5.15919 0)
(8.1438 5.48512 0)
(8.40844 5.56297 0)
(8.74241 5.30147 0)
(8.69631 5.02056 0)
(8.79939 4.64087 0)
(8.79025 4.12182 0)
(8.74658 3.59521 0)
(8.77379 2.98004 0)
(8.89337 2.49631 0)
(8.87543 1.78824 0)
(8.46849 0.357619 0)
(8.178 -0.874978 0)
(7.81073 -1.47142 0)
(7.5018 -2.04464 0)
(6.69785 -3.40292 0)
(5.8688 -5.35727 0)
(5.35805 -6.39397 0)
(4.68709 -6.1646 0)
(4.70595 -5.40885 0)
(4.33179 -4.57994 0)
(4.16353 -4.20767 0)
(3.81934 -4.58833 0)
(3.79234 -4.83124 0)
(3.49264 -4.91189 0)
(4.14081 -5.42266 0)
(4.08839 -5.30418 0)
(4.63307 -5.77133 0)
(4.30835 -5.60665 0)
(4.78441 -5.61911 0)
(4.78148 -5.33891 0)
(4.99366 -5.71684 0)
(5.04248 -6.09819 0)
(5.34063 -6.51052 0)
(5.62451 -6.7436 0)
(5.9974 -6.95273 0)
(6.48356 -6.75006 0)
(7.02585 -5.65611 0)
(7.3491 -4.65319 0)
(7.69653 -3.64658 0)
(8.23435 -1.90792 0)
(8.44703 -0.546401 0)
(8.62957 0.421205 0)
(9.35076 2.13324 0)
(9.72414 3.78963 0)
(9.73748 4.6973 0)
(9.89713 5.61971 0)
(10.1461 6.6641 0)
(10.1009 7.16531 0)
(9.9286 7.08945 0)
(9.93698 7.06981 0)
(10.2469 7.31936 0)
(10.7118 7.53858 0)
(11.3589 7.51683 0)
(11.7564 7.30441 0)
(11.781 6.74717 0)
(12.1466 5.986 0)
(12.3147 5.19886 0)
(12.2674 4.25032 0)
(12.6589 3.17667 0)
(12.3886 2.09236 0)
(12.3854 1.0183 0)
(12.1335 -0.125988 0)
(11.9447 -1.11553 0)
(11.3526 -1.8393 0)
(10.7845 -2.29174 0)
(9.86814 -2.43685 0)
(9.23292 -2.17112 0)
(8.24409 -1.67093 0)
(7.8019 -1.07531 0)
(7.04589 -0.675346 0)
(6.91877 -0.408069 0)
(6.41347 -0.343282 0)
(6.47324 -0.285188 0)
(6.04647 -0.273132 0)
(6.19191 -0.209748 0)
(5.7688 -0.144916 0)
(5.96707 -0.0506478 0)
(5.55328 0.0455194 0)
(5.79107 0.126625 0)
(5.44511 0.214047 0)
(5.67219 0.251102 0)
(5.42332 0.350122 0)
(5.58477 0.338412 0)
(5.47992 0.427957 0)
(5.53203 0.395914 0)
(5.58074 0.492631 0)
(5.47403 0.457881 0)
(5.67603 0.561378 0)
(5.43128 0.527261 0)
(5.80841 0.627665 0)
(5.38811 0.60895 0)
(5.88895 0.741595 0)
(5.35817 0.718448 0)
(5.99136 0.842508 0)
(5.36937 0.828756 0)
(6.07418 0.977534 0)
(5.40169 1.00262 0)
(6.08101 1.10839 0)
(5.55627 1.18732 0)
(5.98842 1.24473 0)
(5.78592 1.44972 0)
(5.82636 1.40318 0)
(6.02164 1.70422 0)
(5.76247 1.65643 0)
(6.08127 1.91213 0)
(5.91406 2.04874 0)
(5.87959 2.1382 0)
(6.16883 2.46507 0)
(5.7089 2.55254 0)
(6.23707 2.85096 0)
(5.67535 3.25749 0)
(5.69122 3.40129 0)
(5.77117 3.92127 0)
(5.65559 4.44598 0)
(5.51901 4.83755 0)
(5.54047 5.92276 0)
(5.90524 6.96296 0)
(3.31209 10.0436 0)
(3.47112 0.254619 0)
(3.96301 0.0534185 0)
(4.1014 -0.356167 0)
(4.82123 -0.693312 0)
(4.71992 -1.12843 0)
(4.96325 -1.40844 0)
(4.91152 -1.61485 0)
(4.36549 -1.72644 0)
(4.00116 -1.5212 0)
(3.52135 -1.33336 0)
(3.22431 -0.737376 0)
(2.35613 0.0244976 0)
(2.30152 1.27898 0)
(3.52743 2.08642 0)
(4.26216 3.26207 0)
(5.77567 3.03814 0)
(7.86901 1.17535 0)
(7.31804 0.645409 0)
(7.40605 0.390982 0)
(7.4078 0.495346 0)
(7.94265 0.818675 0)
(9.28172 0.330643 0)
(9.57835 0.211138 0)
(10.3627 -0.315209 0)
(10.9787 -1.14239 0)
(11.03 -1.74878 0)
(11.4556 -2.61947 0)
(11.6702 -3.17046 0)
(12.0562 -3.70921 0)
(12.9153 -4.56502 0)
(13.4222 -5.16067 0)
(13.5512 -5.77631 0)
(13.2739 -6.22076 0)
(12.6806 -6.18516 0)
(12.2093 -6.38609 0)
(11.8186 -6.51544 0)
(11.0839 -6.24801 0)
(10.7257 -6.35253 0)
(10.5012 -6.6604 0)
(9.94746 -6.56724 0)
(9.51804 -6.63528 0)
(9.54656 -7.21088 0)
(9.58304 -7.68903 0)
(9.29074 -7.78155 0)
(9.03732 -7.87003 0)
(9.06819 -8.20231 0)
(9.22681 -8.5707 0)
(9.43202 -8.51082 0)
(9.47834 -8.10621 0)
(9.26679 -7.54571 0)
(9.1706 -6.68618 0)
(9.28699 -5.76851 0)
(9.35377 -4.75308 0)
(9.11544 -3.4968 0)
(9.37468 -2.28994 0)
(9.45453 -1.17712 0)
(9.31818 0.0237414 0)
(9.5834 1.59502 0)
(9.53386 2.65443 0)
(9.48907 3.31343 0)
(9.6547 4.50996 0)
(9.53117 5.3646 0)
(9.23338 5.7244 0)
(9.11385 5.96899 0)
(8.7187 5.6641 0)
(8.19695 5.20568 0)
(8.09449 5.13582 0)
(7.95055 4.66194 0)
(7.75084 4.03479 0)
(7.67566 4.10333 0)
(7.65707 4.35796 0)
(7.45645 4.37865 0)
(7.51933 4.3608 0)
(7.77961 4.4082 0)
(7.715 3.75209 0)
(7.42603 3.33542 0)
(7.65398 3.58275 0)
(8.01501 4.45594 0)
(8.14872 5.08444 0)
(8.00256 5.09031 0)
(7.5684 5.09025 0)
(7.76107 5.05519 0)
(8.11932 5.29993 0)
(8.42338 5.4354 0)
(8.86478 5.23083 0)
(8.97552 4.95634 0)
(9.12302 4.63905 0)
(9.20884 4.14843 0)
(9.14634 3.60175 0)
(9.15062 2.95393 0)
(9.24459 2.49459 0)
(9.26812 1.89048 0)
(8.85778 0.499588 0)
(8.53123 -0.743223 0)
(8.10771 -1.32276 0)
(7.77457 -1.77888 0)
(6.95409 -3.07369 0)
(6.18752 -5.04672 0)
(5.53209 -6.18163 0)
(4.94221 -6.04264 0)
(4.88397 -5.29994 0)
(4.40793 -4.44618 0)
(4.29128 -4.09594 0)
(3.75118 -4.49846 0)
(3.77851 -4.74336 0)
(3.5629 -4.99839 0)
(4.09559 -5.51485 0)
(3.94017 -5.41376 0)
(4.44583 -5.80509 0)
(4.12564 -5.62837 0)
(4.55014 -5.71004 0)
(4.54889 -5.38297 0)
(4.85198 -5.78265 0)
(4.80544 -6.15727 0)
(5.06801 -6.62574 0)
(5.30171 -6.90012 0)
(5.59585 -7.10742 0)
(5.99877 -6.89687 0)
(6.49458 -5.8645 0)
(6.83312 -4.7829 0)
(7.11492 -3.76953 0)
(7.61771 -2.08658 0)
(7.91496 -0.667028 0)
(8.11157 0.304995 0)
(8.71963 1.93242 0)
(9.16005 3.65989 0)
(9.24698 4.63712 0)
(9.47962 5.53063 0)
(9.77208 6.61967 0)
(9.80971 7.19701 0)
(9.61929 7.12307 0)
(9.62159 7.01137 0)
(9.88837 7.16889 0)
(10.4469 7.28295 0)
(10.9802 7.26739 0)
(11.4692 7.15356 0)
(11.9325 6.67069 0)
(11.9696 5.89639 0)
(12.2772 5.14135 0)
(12.4111 4.20847 0)
(12.4385 3.14234 0)
(12.5518 2.15734 0)
(12.2284 1.06084 0)
(12.3322 -0.0298287 0)
(11.7635 -0.961817 0)
(11.453 -1.58145 0)
(10.4853 -2.00716 0)
(9.99458 -2.09006 0)
(8.84947 -1.86145 0)
(8.4211 -1.3425 0)
(7.38061 -0.85791 0)
(7.30002 -0.463951 0)
(6.51671 -0.314316 0)
(6.74213 -0.219615 0)
(6.08141 -0.246995 0)
(6.41022 -0.18054 0)
(5.79146 -0.187282 0)
(6.14688 -0.0630104 0)
(5.56176 -0.0350052 0)
(5.9298 0.106158 0)
(5.40498 0.12831 0)
(5.81609 0.248301 0)
(5.33129 0.249131 0)
(5.76151 0.359867 0)
(5.31045 0.343221 0)
(5.77199 0.405749 0)
(5.34692 0.418312 0)
(5.77998 0.454545 0)
(5.39335 0.502885 0)
(5.77351 0.487358 0)
(5.48637 0.5907 0)
(5.74719 0.55076 0)
(5.58866 0.697261 0)
(5.68038 0.625993 0)
(5.72902 0.80067 0)
(5.60299 0.749591 0)
(5.87811 0.923004 0)
(5.5854 0.883506 0)
(5.99164 1.02473 0)
(5.60441 1.07358 0)
(6.02466 1.18495 0)
(5.70661 1.30533 0)
(6.00195 1.32045 0)
(5.94466 1.5136 0)
(5.88187 1.54881 0)
(6.18065 1.76898 0)
(5.77265 1.82996 0)
(6.30116 2.02449 0)
(5.85625 2.21403 0)
(6.15068 2.34772 0)
(6.0895 2.59278 0)
(6.00441 2.79236 0)
(6.38352 3.04076 0)
(6.21245 3.45808 0)
(6.01106 3.83327 0)
(6.22381 4.3481 0)
(5.8497 5.0267 0)
(5.50968 6.22192 0)
(7.17437 6.6628 0)
(4.71392 10.8634 0)
(5.40991 0.175954 0)
(5.83052 0.0146712 0)
(5.74868 -0.431272 0)
(6.3 -0.775101 0)
(6.49963 -1.10688 0)
(6.4207 -1.39281 0)
(6.53166 -1.54636 0)
(5.88192 -1.57783 0)
(5.83831 -1.41094 0)
(5.0526 -1.11969 0)
(4.99757 -0.59727 0)
(4.51343 0.166265 0)
(3.74371 1.18593 0)
(5.18271 1.6323 0)
(5.49168 2.63181 0)
(6.97887 2.51122 0)
(8.39524 1.0246 0)
(7.92589 0.537076 0)
(8.10269 0.244463 0)
(7.91494 0.371707 0)
(8.55601 0.528555 0)
(9.76358 0.0370958 0)
(10.0659 -0.0586145 0)
(10.8103 -0.586936 0)
(11.3271 -1.30771 0)
(11.5145 -1.90339 0)
(12.1702 -2.77555 0)
(12.5614 -3.29845 0)
(13.0809 -3.91725 0)
(13.7246 -4.74831 0)
(13.8236 -5.23441 0)
(13.6531 -5.74313 0)
(13.2144 -6.03821 0)
(12.626 -5.97086 0)
(12.1395 -6.20472 0)
(11.6682 -6.25553 0)
(10.9679 -6.00418 0)
(10.686 -6.2417 0)
(10.4175 -6.50931 0)
(9.82921 -6.37136 0)
(9.45883 -6.57946 0)
(9.48274 -7.2194 0)
(9.41049 -7.59732 0)
(9.02432 -7.67311 0)
(8.74718 -7.85115 0)
(8.75028 -8.25693 0)
(8.84747 -8.63077 0)
(8.93494 -8.51398 0)
(8.84515 -8.01307 0)
(8.53253 -7.44846 0)
(8.40084 -6.66457 0)
(8.46525 -5.76756 0)
(8.51691 -4.74864 0)
(8.36925 -3.51309 0)
(8.68658 -2.32803 0)
(8.75174 -1.20598 0)
(8.63504 0.0171527 0)
(8.90694 1.55502 0)
(8.88723 2.62054 0)
(8.89703 3.30038 0)
(9.10069 4.51101 0)
(9.07802 5.41323 0)
(8.85487 5.78815 0)
(8.78841 6.05868 0)
(8.51581 5.83554 0)
(8.05253 5.34637 0)
(7.95615 5.18735 0)
(7.84651 4.72892 0)
(7.66138 4.08126 0)
(7.59806 4.12704 0)
(7.64057 4.42997 0)
(7.43292 4.43122 0)
(7.42018 4.25471 0)
(7.76627 4.34117 0)
(7.86749 3.81709 0)
(7.51111 3.35485 0)
(7.64637 3.47741 0)
(8.00376 4.33395 0)
(8.22116 5.09774 0)
(8.13177 5.18729 0)
(7.69668 5.14831 0)
(7.7383 4.98467 0)
(8.04252 5.11036 0)
(8.42013 5.26667 0)
(8.88559 5.11162 0)
(9.16399 4.85253 0)
(9.38889 4.58305 0)
(9.55609 4.16081 0)
(9.54867 3.6087 0)
(9.52013 2.93202 0)
(9.60191 2.50242 0)
(9.63592 1.97643 0)
(9.2311 0.668565 0)
(8.86307 -0.58997 0)
(8.39244 -1.15618 0)
(7.99025 -1.5424 0)
(7.21257 -2.74458 0)
(6.4349 -4.73258 0)
(5.72857 -5.9685 0)
(5.18559 -5.88631 0)
(5.0205 -5.18677 0)
(4.57466 -4.29051 0)
(4.33657 -3.9661 0)
(3.80561 -4.385 0)
(3.74556 -4.66019 0)
(3.64937 -5.09778 0)
(3.98334 -5.53832 0)
(3.71631 -5.48571 0)
(4.34661 -5.85039 0)
(3.87623 -5.61797 0)
(4.33109 -5.80737 0)
(4.34455 -5.45333 0)
(4.72148 -5.83669 0)
(4.54723 -6.18064 0)
(4.81867 -6.72939 0)
(4.94808 -7.01238 0)
(5.17581 -7.22352 0)
(5.49443 -7.03025 0)
(5.9665 -6.03417 0)
(6.29258 -4.92506 0)
(6.52669 -3.88063 0)
(7.00124 -2.27541 0)
(7.36868 -0.826996 0)
(7.61611 0.203676 0)
(8.09848 1.75375 0)
(8.53517 3.49774 0)
(8.71069 4.54936 0)
(8.97721 5.43372 0)
(9.35773 6.52267 0)
(9.47224 7.19124 0)
(9.35477 7.1357 0)
(9.26031 6.95062 0)
(9.46989 6.9813 0)
(10.0518 7.046 0)
(10.7273 7.03328 0)
(11.0998 6.92947 0)
(11.6658 6.50503 0)
(12.0833 5.84108 0)
(12.0288 5.06143 0)
(12.433 4.15267 0)
(12.4497 3.14126 0)
(12.3559 2.17942 0)
(12.4119 1.12479 0)
(12.0949 0.051587 0)
(11.8843 -0.747591 0)
(11.0664 -1.33358 0)
(10.5681 -1.67769 0)
(9.59473 -1.77565 0)
(8.96489 -1.50414 0)
(8.0266 -1.06849 0)
(7.54664 -0.591292 0)
(6.92105 -0.323254 0)
(6.79005 -0.162575 0)
(6.36305 -0.171246 0)
(6.42566 -0.136256 0)
(6.00524 -0.163004 0)
(6.19092 -0.0891414 0)
(5.70947 -0.0603521 0)