/*--------------------------------*- C++ -*----------------------------------*\
| =========                 |                                                 |
| \\      /  F ield         | OpenFOAM: The Open Source CFD Toolbox           |
|  \\    /   O peration     | Version:  2.4.0                                 |
|   \\  /    A nd           | Web:      www.OpenFOAM.org                      |
|    \\/     M anipulation  |                                                 |
\*---------------------------------------------------------------------------*/
FoamFile
{
    version     2.0;
    format      ascii;
    class       volVectorField;
    location    "0.097";
    object      UMean;
}
// * * * * * * * * * * * * * * * * * * * * * * * * * * * * * * * * * * * * * //

dimensions      [0 1 -1 0 0 0 0];

internalField   nonuniform List<vector> 
17600
(
(5.35475 0.306449 0)
(3.07026 0.0607989 0)
(2.30047 -0.00130919 0)
(1.96259 -0.00351554 0)
(1.82863 -0.00132829 0)
(1.74243 -0.000202997 0)
(1.68042 -5.22635e-06 0)
(1.62808 -4.31271e-05 0)
(1.59521 -0.000115143 0)
(1.56372 -1.97778e-05 0)
(1.54644 -3.71389e-05 0)
(1.5218 0.000104931 0)
(1.51026 5.4089e-07 0)
(1.48811 8.09548e-05 0)
(1.48185 -7.50701e-05 0)
(1.46561 -9.4959e-05 0)
(1.46463 -0.000212636 0)
(1.46677 -8.96055e-05 0)
(1.49346 -0.00288561 0)
(1.45568 -0.0196132 0)
(8.58981 0.860748 0)
(7.0182 0.376582 0)
(5.92392 0.118364 0)
(5.19424 0.048727 0)
(4.80972 0.0261173 0)
(4.55691 0.0183293 0)
(4.38464 0.0139639 0)
(4.2392 0.0104297 0)
(4.14616 0.00772406 0)
(4.05481 0.00611505 0)
(4.00559 0.00498274 0)
(3.93568 0.00478668 0)
(3.90587 0.00391586 0)
(3.84395 0.0040379 0)
(3.82793 0.00241812 0)
(3.77974 0.00310759 0)
(3.77223 -0.000165718 0)
(3.76718 -0.000822848 0)
(3.76189 -0.001795 0)
(3.90287 -0.0989744 0)
(9.82171 1.00667 0)
(9.37293 0.564235 0)
(8.55271 0.233162 0)
(7.75024 0.124311 0)
(7.22732 0.0762299 0)
(6.85699 0.0521696 0)
(6.60434 0.0387731 0)
(6.38635 0.0291017 0)
(6.24654 0.0221281 0)
(6.10421 0.0173215 0)
(6.02959 0.0143091 0)
(5.91994 0.012676 0)
(5.87746 0.0110054 0)
(5.78028 0.0101013 0)
(5.7593 0.00751284 0)
(5.67866 0.00704431 0)
(5.67521 0.00208609 0)
(5.63161 0.000311712 0)
(5.65795 -0.0127795 0)
(5.72519 -0.121027 0)
(10.1171 0.932479 0)
(10.5589 0.650998 0)
(10.2857 0.317556 0)
(9.6941 0.200244 0)
(9.19727 0.137954 0)
(8.79011 0.0976792 0)
(8.50263 0.0727533 0)
(8.23806 0.0548205 0)
(8.07068 0.0422336 0)
(7.88865 0.033112 0)
(7.79792 0.0272984 0)
(7.65435 0.0241545 0)
(7.60518 0.0204887 0)
(7.47697 0.0197481 0)
(7.45565 0.0136869 0)
(7.34265 0.0156684 0)
(7.3526 0.00303154 0)
(7.25205 0.00767278 0)
(7.33731 -0.0316947 0)
(7.26115 -0.103141 0)
(10.0373 0.793593 0)
(10.8958 0.651548 0)
(11.12 0.341973 0)
(10.8899 0.243532 0)
(10.5924 0.189862 0)
(10.2635 0.143712 0)
(10.0157 0.110215 0)
(9.74972 0.0841721 0)
(9.58783 0.0660221 0)
(9.38632 0.0517186 0)
(9.29666 0.0434275 0)
(9.12985 0.0369976 0)
(9.08442 0.0331324 0)
(8.93141 0.0288185 0)
(8.91822 0.0250477 0)
(8.77721 0.0191447 0)
(8.79748 0.0171585 0)
(8.67285 -0.00246682 0)
(8.73705 -0.00852388 0)
(8.66814 -0.152456 0)
(9.9571 0.681418 0)
(10.8335 0.619608 0)
(11.2863 0.320047 0)
(11.3365 0.239477 0)
(11.3008 0.209464 0)
(11.1489 0.173083 0)
(11.0335 0.139944 0)
(10.8351 0.110655 0)
(10.7289 0.0888923 0)
(10.5445 0.0711395 0)
(10.4798 0.0595242 0)
(10.3136 0.0520164 0)
(10.2811 0.0443542 0)
(10.1248 0.0422666 0)
(10.1174 0.0308018 0)
(9.97325 0.0337388 0)
(9.99312 0.0118925 0)
(9.86394 0.0217171 0)
(9.9168 -0.0402884 0)
(9.81965 -0.103525 0)
(9.94356 0.593359 0)
(10.7105 0.587439 0)
(11.2074 0.292198 0)
(11.3449 0.210621 0)
(11.4579 0.197219 0)
(11.4478 0.175703 0)
(11.4903 0.150302 0)
(11.4059 0.122853 0)
(11.4084 0.103021 0)
(11.2876 0.0839889 0)
(11.2866 0.0733073 0)
(11.1513 0.0629471 0)
(11.1576 0.0578303 0)
(11.0148 0.0499374 0)
(11.0339 0.0454172 0)
(10.8919 0.0347364 0)
(10.9339 0.029798 0)
(10.7947 0.0105915 0)
(10.8663 -0.0253774 0)
(10.7313 -0.10014 0)
(9.95658 0.515016 0)
(10.6109 0.552215 0)
(11.1106 0.274931 0)
(11.2572 0.184713 0)
(11.4087 0.176182 0)
(11.4343 0.164581 0)
(11.553 0.145152 0)
(11.5421 0.120745 0)
(11.6339 0.102515 0)
(11.5916 0.0865574 0)
(11.6639 0.0760279 0)
(11.597 0.069055 0)
(11.6527 0.0612099 0)
(11.5662 0.058753 0)
(11.6128 0.0470067 0)
(11.5161 0.0461734 0)
(11.5679 0.0266079 0)
(11.4673 0.0220024 0)
(11.5309 -0.0321469 0)
(11.4072 -0.0936941 0)
(9.96906 0.445509 0)
(10.5348 0.508924 0)
(11.0269 0.262358 0)
(11.1863 0.162274 0)
(11.3405 0.156059 0)
(11.3705 0.150597 0)
(11.4928 0.135978 0)
(11.508 0.112326 0)
(11.6165 0.0955561 0)
(11.6219 0.079978 0)
(11.7191 0.0719263 0)
(11.7127 0.0650909 0)
(11.7968 0.0602897 0)
(11.7749 0.056343 0)
(11.8467 0.04845 0)
(11.8133 0.0442891 0)
(11.878 0.0279031 0)
(11.8407 0.0211803 0)
(11.8968 -0.0428225 0)
(11.8122 -0.0877125 0)
(9.97159 0.382988 0)
(10.4775 0.462748 0)
(10.9466 0.250507 0)
(11.1346 0.141747 0)
(11.2775 0.136445 0)
(11.3239 0.137078 0)
(11.4238 0.12579 0)
(11.4606 0.104015 0)
(11.5493 0.0866842 0)
(11.5836 0.0725162 0)
(11.6647 0.0644976 0)
(11.6934 0.0590095 0)
(11.7676 0.0544597 0)
(11.7873 0.051259 0)
(11.8549 0.0440434 0)
(11.8712 0.038269 0)
(11.9298 0.0255068 0)
(11.9512 0.00483937 0)
(11.991 -0.0406571 0)
(11.9486 -0.136786 0)
(9.9647 0.326536 0)
(10.4334 0.416566 0)
(10.8705 0.238758 0)
(11.0911 0.122675 0)
(11.2199 0.117523 0)
(11.2873 0.123798 0)
(11.3638 0.115358 0)
(11.4204 0.0959129 0)
(11.4891 0.0782453 0)
(11.5432 0.065284 0)
(11.6066 0.0571139 0)
(11.6534 0.0531636 0)
(11.7141 0.0476825 0)
(11.749 0.0461833 0)
(11.8083 0.0366457 0)
(11.8391 0.0343369 0)
(11.8922 0.0149369 0)
(11.9293 0.000210173 0)
(11.9602 -0.0583171 0)
(11.9244 -0.158573 0)
(9.95985 0.276321 0)
(10.3917 0.370237 0)
(10.8066 0.226289 0)
(11.0452 0.104637 0)
(11.1742 0.0996672 0)
(11.2485 0.109944 0)
(11.3172 0.104945 0)
(11.3781 0.086958 0)
(11.4426 0.0704528 0)
(11.5005 0.0575666 0)
(11.5616 0.0511907 0)
(11.6116 0.0464113 0)
(11.6698 0.0433193 0)
(11.7064 0.0390415 0)
(11.7658 0.0327692 0)
(11.7936 0.0245406 0)
(11.8516 0.010262 0)
(11.8789 -0.0154849 0)
(11.9126 -0.0686338 0)
(11.8625 -0.17566 0)
(9.95957 0.232163 0)
(10.3533 0.323854 0)
(10.7527 0.210442 0)
(11.001 0.088597 0)
(11.1357 0.0830872 0)
(11.2118 0.0959139 0)
(11.2772 0.0938122 0)
(11.3389 0.0774549 0)
(11.4018 0.0623728 0)
(11.4622 0.049922 0)
(11.5219 0.0447864 0)
(11.5756 0.0400045 0)
(11.6286 0.0377195 0)
(11.6721 0.0330827 0)
(11.724 0.0269331 0)
(11.7574 0.0183381 0)
(11.8113 0.00229412 0)
(11.8362 -0.0267298 0)
(11.8662 -0.0781651 0)
(11.8085 -0.190009 0)
(9.95868 0.192242 0)
(10.3225 0.279183 0)
(10.7055 0.188332 0)
(10.9626 0.0758479 0)
(11.1016 0.0686117 0)
(11.1813 0.0824776 0)
(11.2418 0.0822663 0)
(11.3057 0.0678765 0)
(11.3657 0.0541998 0)
(11.4306 0.0425688 0)
(11.4869 0.0383621 0)
(11.5453 0.033855 0)
(11.5924 0.0323486 0)
(11.6444 0.0263907 0)
(11.6853 0.0214376 0)
(11.7315 0.0100982 0)
(11.7717 -0.00554824 0)
(11.805 -0.0365468 0)
(11.8222 -0.0891079 0)
(11.7662 -0.198089 0)
(9.9586 0.156092 0)
(10.2964 0.235594 0)
(10.6673 0.161666 0)
(10.9282 0.0646355 0)
(11.0755 0.0561682 0)
(11.1548 0.0689546 0)
(11.2148 0.070676 0)
(11.276 0.0576971 0)
(11.3386 0.0461222 0)
(11.4017 0.0352987 0)
(11.4609 0.0322582 0)
(11.5171 0.0277085 0)
(11.5669 0.0267285 0)
(11.6172 0.020377 0)
(11.6577 0.0156621 0)
(11.7066 0.00264507 0)
(11.7402 -0.0126089 0)
(11.7775 -0.0464578 0)
(11.7864 -0.0985553 0)
(11.726 -0.202784 0)
(9.96074 0.123447 0)
(10.2736 0.192104 0)
(10.637 0.133212 0)
(10.8981 0.0538465 0)
(11.0558 0.0443413 0)
(11.1319 0.0557218 0)
(11.194 0.0583071 0)
(11.2506 0.0473641 0)
(11.3176 0.037718 0)
(11.3765 0.0282394 0)
(11.4411 0.0259123 0)
(11.4925 0.0215557 0)
(11.548 0.0206229 0)
(11.5916 0.0141823 0)
(11.6391 0.00907321 0)
(11.6804 -0.00434986 0)
(11.7178 -0.0203204 0)
(11.7505 -0.0555003 0)
(11.758 -0.107337 0)
(11.6863 -0.205127 0)
(9.96197 0.093553 0)
(10.2563 0.14858 0)
(10.6117 0.104422 0)
(10.8758 0.0424636 0)
(11.0388 0.0336661 0)
(11.1149 0.042331 0)
(11.176 0.0460371 0)
(11.2317 0.0364177 0)
(11.299 0.0295428 0)
(11.3578 0.0211515 0)
(11.4237 0.0198053 0)
(11.4743 0.0154399 0)
(11.5308 0.0149746 0)
(11.5718 0.00799064 0)
(11.6234 0.00285802 0)
(11.6574 -0.0112017 0)
(11.7011 -0.0281402 0)
(11.7262 -0.063968 0)
(11.7334 -0.114432 0)
(11.652 -0.206723 0)
(9.96103 0.0656245 0)
(10.245 0.105458 0)
(10.592 0.0751558 0)
(10.8603 0.0308559 0)
(11.0241 0.0234159 0)
(11.1036 0.0298611 0)
(11.1613 0.0329432 0)
(11.219 0.0260889 0)
(11.2834 0.0207503 0)
(11.3455 0.0147491 0)
(11.4089 0.0131554 0)
(11.4623 0.00983239 0)
(11.5152 0.00861801 0)
(11.5601 0.00200764 0)
(11.6079 -0.00344577 0)
(11.6427 -0.0180708 0)
(11.6861 -0.0352594 0)
(11.7079 -0.0722507 0)
(11.7108 -0.12013 0)
(11.6279 -0.208712 0)
(9.96043 0.0393149 0)
(10.2378 0.0622565 0)
(10.5795 0.0460791 0)
(10.8493 0.0179489 0)
(11.0149 0.0145655 0)
(11.0963 0.016708 0)
(11.152 0.0207237 0)
(11.2106 0.0144903 0)
(11.2733 0.0130487 0)
(11.3375 0.0071249 0)
(11.3991 0.00771726 0)
(11.4546 0.00296491 0)
(11.5048 0.00334091 0)
(11.5538 -0.00511851 0)
(11.5953 -0.00882064 0)
(11.6358 -0.0254446 0)
(11.6728 -0.0421958 0)
(11.696 -0.0789491 0)
(11.6928 -0.12723 0)
(11.6121 -0.208032 0)
(9.96116 0.0136596 0)
(10.2334 0.0196466 0)
(10.5739 0.0163886 0)
(10.8429 0.00506415 0)
(11.0118 0.00537754 0)
(11.0917 0.00484681 0)
(11.1486 0.00710977 0)
(11.2054 0.00434973 0)
(11.2693 0.00365688 0)
(11.3329 0.00142165 0)
(11.3953 0.000312916 0)
(11.4499 -0.00155613 0)
(11.5013 -0.00451463 0)
(11.549 -0.00930495 0)
(11.5895 -0.0173858 0)
(11.6314 -0.0297969 0)
(11.6648 -0.0520083 0)
(11.6875 -0.082951 0)
(11.6823 -0.135384 0)
(11.5991 -0.210279 0)
(9.96123 -0.0115056 0)
(10.2333 -0.0232117 0)
(10.5738 -0.0129672 0)
(10.843 -0.00871786 0)
(11.0123 -0.00282626 0)
(11.0911 -0.00788685 0)
(11.1491 -0.00535776 0)
(11.2046 -0.00723437 0)
(11.2699 -0.00410367 0)
(11.3325 -0.00619562 0)
(11.3957 -0.0047961 0)
(11.4489 -0.00872788 0)
(11.5024 -0.00902145 0)
(11.5462 -0.0171396 0)
(11.5899 -0.0210466 0)
(11.6284 -0.0395584 0)
(11.6624 -0.0543404 0)
(11.682 -0.0950681 0)
(11.6764 -0.131986 0)
(11.5896 -0.224945 0)
(9.96019 -0.0371254 0)
(10.2383 -0.0658586 0)
(10.579 -0.0425539 0)
(10.8497 -0.0218244 0)
(11.0154 -0.0116564 0)
(11.0956 -0.0200865 0)
(11.153 -0.0184729 0)
(11.2093 -0.0179986 0)
(11.2743 -0.0128342 0)
(11.3371 -0.0127321 0)
(11.3989 -0.0112512 0)
(11.4533 -0.0144694 0)
(11.5058 -0.0157842 0)
(11.5488 -0.0221817 0)
(11.5936 -0.0287944 0)
(11.6299 -0.0437481 0)
(11.6632 -0.06401 0)
(11.6818 -0.0966503 0)
(11.6729 -0.143202 0)
(11.585 -0.204649 0)
(9.96002 -0.0636191 0)
(10.2465 -0.108738 0)
(10.5913 -0.0719228 0)
(10.8611 -0.0343307 0)
(11.0236 -0.0209983 0)
(11.1042 -0.0326536 0)
(11.1617 -0.0313532 0)
(11.2185 -0.0288424 0)
(11.2836 -0.0213397 0)
(11.3455 -0.0194106 0)
(11.4071 -0.0174152 0)
(11.4622 -0.0204182 0)
(11.5131 -0.0218914 0)
(11.5568 -0.027815 0)
(11.601 -0.0357185 0)
(11.6358 -0.0487347 0)
(11.6685 -0.0723857 0)
(11.6855 -0.0993131 0)
(11.6757 -0.152694 0)
(11.5865 -0.18589 0)
(9.96029 -0.0915363 0)
(10.2582 -0.151975 0)
(10.6108 -0.101004 0)
(10.8774 -0.0461696 0)
(11.037 -0.0309053 0)
(11.1166 -0.0458463 0)
(11.1749 -0.0435852 0)
(11.2323 -0.0402231 0)
(11.2978 -0.0290321 0)
(11.3585 -0.0270647 0)
(11.4206 -0.0225481 0)
(11.4752 -0.0276386 0)
(11.5247 -0.0260432 0)
(11.5697 -0.035709 0)
(11.612 -0.0390521 0)
(11.6462 -0.0579077 0)
(11.6782 -0.0742753 0)
(11.6937 -0.110828 0)
(11.6836 -0.148373 0)
(11.5905 -0.200868 0)
(9.95944 -0.121645 0)
(10.2752 -0.195148 0)
(10.6361 -0.130295 0)
(10.8997 -0.0568123 0)
(11.0547 -0.0423599 0)
(11.1333 -0.0583475 0)
(11.1922 -0.0567657 0)
(11.2518 -0.0502873 0)
(11.3158 -0.0381185 0)
(11.3767 -0.0332634 0)
(11.4383 -0.0297742 0)
(11.4922 -0.0325919 0)
(11.541 -0.0333604 0)
(11.5869 -0.0399103 0)
(11.6268 -0.0471866 0)
(11.6619 -0.061263 0)
(11.6917 -0.0834091 0)
(11.707 -0.113577 0)
(11.6948 -0.155741 0)
(11.6016 -0.201321 0)
(9.95821 -0.15426 0)
(10.2975 -0.238759 0)
(10.6675 -0.158557 0)
(10.9284 -0.0679242 0)
(11.0764 -0.0536465 0)
(11.1544 -0.0721892 0)
(11.2149 -0.0682564 0)
(11.2761 -0.0618377 0)
(11.3385 -0.0450862 0)
(11.4 -0.041844 0)
(11.4604 -0.0343352 0)
(11.5135 -0.0403834 0)
(11.563 -0.0371468 0)
(11.6076 -0.047694 0)
(11.6473 -0.0508391 0)
(11.6814 -0.068925 0)
(11.7102 -0.087506 0)
(11.7243 -0.120674 0)
(11.7115 -0.160342 0)
(11.6185 -0.199348 0)
(9.95782 -0.190745 0)
(10.3244 -0.281845 0)
(10.7061 -0.185872 0)
(10.9628 -0.0783729 0)
(11.1028 -0.0669591 0)
(11.1805 -0.0846946 0)
(11.2433 -0.0809911 0)
(11.3048 -0.0710826 0)
(11.3669 -0.0538997 0)
(11.4284 -0.0484719 0)
(11.4872 -0.0409533 0)
(11.5403 -0.0460635 0)
(11.5897 -0.042935 0)
(11.6329 -0.0533053 0)
(11.6731 -0.0562301 0)
(11.7051 -0.074794 0)
(11.7341 -0.0925272 0)
(11.7458 -0.127306 0)
(11.7347 -0.164944 0)
(11.6409 -0.199474 0)
(9.95987 -0.230701 0)
(10.3557 -0.326528 0)
(10.753 -0.20818 0)
(11.0027 -0.0911118 0)
(11.1351 -0.0811501 0)
(11.2123 -0.0984032 0)
(11.2772 -0.0922985 0)
(11.3391 -0.0810244 0)
(11.4013 -0.0616588 0)
(11.4621 -0.0562311 0)
(11.5194 -0.0467381 0)
(11.5732 -0.0526229 0)
(11.6206 -0.047721 0)
(11.6647 -0.0596449 0)
(11.703 -0.0605664 0)
(11.7352 -0.0811408 0)
(11.762 -0.0964588 0)
(11.7738 -0.1345 0)
(11.7622 -0.168984 0)
(11.6706 -0.203357 0)
(9.96808 -0.275374 0)
(10.3887 -0.372326 0)
(10.8108 -0.224688 0)
(11.0434 -0.106429 0)
(11.176 -0.0980546 0)
(11.2461 -0.111874 0)
(11.3185 -0.104001 0)
(11.3764 -0.0901417 0)
(11.4426 -0.0700191 0)
(11.4985 -0.0638007 0)
(11.5583 -0.0530486 0)
(11.6088 -0.0589819 0)
(11.6579 -0.052698 0)
(11.7 -0.0658612 0)
(11.7387 -0.0646137 0)
(11.7696 -0.0875823 0)
(11.7954 -0.0994456 0)
(11.8065 -0.142145 0)
(11.7943 -0.172174 0)
(11.7062 -0.212028 0)
(9.98343 -0.32608 0)
(10.4206 -0.418099 0)
(10.8828 -0.237541 0)
(11.0796 -0.123837 0)
(11.2292 -0.116471 0)
(11.2765 -0.12493 0)
(11.3721 -0.11551 0)
(11.4112 -0.0981442 0)
(11.4951 -0.078886 0)
(11.5333 -0.0703987 0)
(11.6087 -0.0603034 0)
(11.6434 -0.0641761 0)
(11.7068 -0.0587014 0)
(11.7349 -0.0707561 0)
(11.7853 -0.0695582 0)
(11.8039 -0.0924219 0)
(11.8373 -0.103008 0)
(11.8375 -0.147916 0)
(11.8283 -0.175893 0)
(11.7346 -0.223133 0)
(9.99567 -0.382899 0)
(10.4564 -0.463808 0)
(10.966 -0.249433 0)
(11.1139 -0.142575 0)
(11.2945 -0.135707 0)
(11.3051 -0.137803 0)
(11.4401 -0.126365 0)
(11.4434 -0.105885 0)
(11.5635 -0.0876801 0)
(11.5656 -0.0771393 0)
(11.6754 -0.0678666 0)
(11.6745 -0.0694082 0)
(11.7699 -0.0651877 0)
(11.7621 -0.0753783 0)
(11.8396 -0.0746201 0)
(11.8208 -0.0965971 0)
(11.8723 -0.105479 0)
(11.8317 -0.152547 0)
(11.8252 -0.176304 0)
(11.6914 -0.236426 0)
(9.99038 -0.445573 0)
(10.5118 -0.509441 0)
(11.0488 -0.261655 0)
(11.1625 -0.162694 0)
(11.3621 -0.155923 0)
(11.348 -0.150746 0)
(11.5141 -0.137073 0)
(11.486 -0.113715 0)
(11.6364 -0.0969284 0)
(11.5985 -0.0840574 0)
(11.7361 -0.0757718 0)
(11.6863 -0.0744926 0)
(11.8047 -0.0714477 0)
(11.7383 -0.0789034 0)
(11.8306 -0.0783034 0)
(11.7435 -0.0984288 0)
(11.799 -0.104283 0)
(11.68 -0.1537 0)
(11.6608 -0.167618 0)
(11.4466 -0.247819 0)
(9.97054 -0.514959 0)
(10.5933 -0.552427 0)
(11.1296 -0.274668 0)
(11.2377 -0.184862 0)
(11.4287 -0.176575 0)
(11.4142 -0.164179 0)
(11.5734 -0.146737 0)
(11.5209 -0.121421 0)
(11.6532 -0.104667 0)
(11.5675 -0.0893375 0)
(11.68 -0.0809568 0)
(11.566 -0.0762535 0)
(11.658 -0.0739482 0)
(11.5173 -0.076971 0)
(11.5861 -0.0780148 0)
(11.4205 -0.091939 0)
(11.4556 -0.100562 0)
(11.2553 -0.140906 0)
(11.2109 -0.159372 0)
(10.9239 -0.230092 0)
(9.95233 -0.593154 0)
(10.699 -0.587596 0)
(11.2218 -0.292091 0)
(11.3309 -0.210859 0)
(11.4735 -0.197551 0)
(11.4316 -0.175432 0)
(11.5072 -0.151567 0)
(11.3866 -0.123747 0)
(11.4248 -0.104525 0)
(11.2634 -0.0870104 0)
(11.2985 -0.0770512 0)
(11.1174 -0.0705004 0)
(11.1552 -0.0674926 0)
(10.9561 -0.0685745 0)
(10.9923 -0.0693904 0)
(10.7726 -0.0805025 0)
(10.79 -0.0886918 0)
(10.5325 -0.123548 0)
(10.476 -0.140505 0)
(10.131 -0.202726 0)
(9.96234 -0.681224 0)
(10.8266 -0.619655 0)
(11.296 -0.320187 0)
(11.3266 -0.239675 0)
(11.3119 -0.209865 0)
(11.136 -0.172743 0)
(11.0468 -0.141176 0)
(10.8173 -0.111181 0)
(10.7427 -0.0905664 0)
(10.5197 -0.0732154 0)
(10.489 -0.0635695 0)
(10.2754 -0.057367 0)
(10.2748 -0.0548226 0)
(10.0547 -0.0554493 0)
(10.0683 -0.0567003 0)
(9.82852 -0.0655033 0)
(9.83243 -0.0737835 0)
(9.54841 -0.10151 0)
(9.48133 -0.118044 0)
(9.10617 -0.164313 0)
(10.0404 -0.793326 0)
(10.8919 -0.651696 0)
(11.1266 -0.342127 0)
(10.883 -0.243705 0)
(10.5999 -0.190126 0)
(10.2536 -0.143492 0)
(10.0253 -0.111109 0)
(9.73473 -0.0847281 0)
(9.5975 -0.0672124 0)
(9.36358 -0.0536685 0)
(9.30082 -0.0462769 0)
(9.0922 -0.0420633 0)
(9.07081 -0.0403526 0)
(8.85888 -0.0413163 0)
(8.85671 -0.0426236 0)
(8.6226 -0.0496246 0)
(8.61437 -0.0572158 0)
(8.32824 -0.0770624 0)
(8.25311 -0.0953481 0)
(7.87374 -0.111453 0)
(10.1189 -0.93228 0)
(10.5569 -0.651148 0)
(10.2899 -0.317689 0)
(9.68928 -0.200354 0)
(9.20188 -0.138119 0)
(8.78304 -0.0975504 0)
(8.50898 -0.0733817 0)
(8.22596 -0.0552709 0)
(8.07656 -0.0431242 0)
(7.86865 -0.0344787 0)
(7.79801 -0.0296319 0)
(7.61829 -0.0274925 0)
(7.5873 -0.0264461 0)
(7.40333 -0.0277641 0)
(7.38955 -0.0287046 0)
(7.18104 -0.0342203 0)
(7.16187 -0.0398045 0)
(6.89426 -0.053795 0)
(6.82002 -0.0681747 0)
(6.44145 -0.0718908 0)
(9.82277 -1.00653 0)
(9.37209 -0.564363 0)
(8.55519 -0.233244 0)
(7.74705 -0.124383 0)
(7.22981 -0.0762935 0)
(6.85228 -0.0521301 0)
(6.60801 -0.0391437 0)
(6.37701 -0.0294388 0)
(6.24944 -0.0226359 0)
(6.08762 -0.0182658 0)
(6.02644 -0.0156405 0)
(5.88822 -0.0150883 0)
(5.85644 -0.0144864 0)
(5.71273 -0.0158582 0)
(5.69188 -0.0162661 0)
(5.52434 -0.0202212 0)
(5.49612 -0.0234115 0)
(5.26952 -0.032284 0)
(5.19904 -0.0417266 0)
(4.84369 -0.0406554 0)
(8.59044 -0.860685 0)
(7.018 -0.376672 0)
(5.92503 -0.118391 0)
(5.19236 -0.0487592 0)
(4.81091 -0.0261398 0)
(4.55388 -0.0183264 0)
(4.3865 -0.0141186 0)
(4.23276 -0.0106272 0)
(4.14683 -0.00793323 0)
(4.04275 -0.00659178 0)
(4.00084 -0.00562827 0)
(3.91142 -0.00588521 0)
(3.88557 -0.00558406 0)
(3.79038 -0.00659465 0)
(3.76847 -0.00659503 0)
(3.65414 -0.00884262 0)
(3.62261 -0.00996189 0)
(3.46046 -0.014579 0)
(3.39542 -0.0186204 0)
(3.11502 -0.0175364 0)
(5.35498 -0.306428 0)
(3.07033 -0.060824 0)
(2.30062 0.00131573 0)
(1.96186 0.00351443 0)
(1.82894 0.00133147 0)
(1.74128 0.000196596 0)
(1.68082 -5.75033e-06 0)
(1.62536 -3.76869e-07 0)
(1.59461 0.000117503 0)
(1.55833 -5.84245e-05 0)
(1.54275 -5.85623e-06 0)
(1.51019 -0.000273792 0)
(1.49794 -0.000138655 0)
(1.46147 -0.000467552 0)
(1.44827 -0.000263735 0)
(1.40225 -0.000789354 0)
(1.38153 -0.000580672 0)
(1.31227 -0.00149771 0)
(1.27012 -0.00162065 0)
(1.14428 0.00569357 0)
(2.17383 -0.27803 0)
(2.57873 -0.231836 0)
(2.97049 -0.253235 0)
(3.3587 -0.251723 0)
(3.70155 -0.24583 0)
(4.09047 -0.24698 0)
(4.51308 -0.219771 0)
(4.97964 -0.252524 0)
(5.46108 -0.293785 0)
(5.9163 -0.350941 0)
(6.33042 -0.435128 0)
(6.68974 -0.548761 0)
(7.05918 -0.662551 0)
(7.32705 -0.756877 0)
(7.59662 -0.875753 0)
(7.81728 -0.992566 0)
(7.98172 -1.11085 0)
(8.11977 -1.22957 0)
(8.23253 -1.36536 0)
(8.35036 -1.52419 0)
(8.39726 -1.69093 0)
(8.4631 -1.85307 0)
(8.52433 -1.98787 0)
(8.6113 -2.119 0)
(8.69354 -2.25092 0)
(8.7706 -2.37441 0)
(8.81268 -2.4775 0)
(8.83235 -2.55338 0)
(8.83809 -2.60856 0)
(8.84497 -2.64593 0)
(8.82398 -2.65051 0)
(8.81117 -2.63696 0)
(8.78469 -2.60725 0)
(8.72092 -2.5713 0)
(8.63818 -2.54825 0)
(8.51998 -2.54448 0)
(8.37358 -2.54722 0)
(8.22713 -2.52944 0)
(8.15545 -2.49274 0)
(8.13629 -2.45654 0)
(8.12265 -2.42045 0)
(8.10451 -2.37511 0)
(8.07135 -2.30556 0)
(8.02858 -2.20973 0)
(7.98861 -2.0993 0)
(7.97408 -1.99186 0)
(7.95976 -1.89081 0)
(7.91776 -1.784 0)
(7.84903 -1.66788 0)
(7.79421 -1.56992 0)
(7.75656 -1.49042 0)
(7.727 -1.39683 0)
(7.69796 -1.29078 0)
(7.66985 -1.19107 0)
(7.65365 -1.10284 0)
(7.63592 -1.03148 0)
(7.62774 -0.96884 0)
(7.61842 -0.909527 0)
(7.61604 -0.861412 0)
(7.58989 -0.81289 0)
(7.5198 -0.745848 0)
(7.4237 -0.670539 0)
(7.3226 -0.598915 0)
(7.21539 -0.534604 0)
(7.10104 -0.479538 0)
(6.99914 -0.433178 0)
(6.91688 -0.397148 0)
(6.84829 -0.364748 0)
(6.77818 -0.323802 0)
(6.70452 -0.279968 0)
(6.63581 -0.23792 0)
(6.56431 -0.20189 0)
(6.50391 -0.17475 0)
(6.43633 -0.154483 0)
(6.38068 -0.141745 0)
(6.32609 -0.120187 0)
(6.27749 -0.106245 0)
(6.22774 -0.0964062 0)
(6.17534 -0.0951485 0)
(6.12642 -0.0888096 0)
(6.0825 -0.0760949 0)
(6.03817 -0.0620473 0)
(5.99012 -0.0594674 0)
(5.94405 -0.0758739 0)
(5.90198 -0.102655 0)
(5.84488 -0.131904 0)
(5.78333 -0.15153 0)
(5.71244 -0.162656 0)
(5.65373 -0.193739 0)
(5.60954 -0.199454 0)
(5.54087 -0.206315 0)
(5.51893 -0.226979 0)
(5.48191 -0.224016 0)
(5.44663 -0.207192 0)
(5.4301 -0.188025 0)
(5.41011 -0.172712 0)
(5.41309 -0.143328 0)
(5.38958 -0.0939427 0)
(5.41946 -0.0606328 0)
(5.41894 -0.0194672 0)
(5.45354 0.018367 0)
(5.44122 0.0747881 0)
(5.4755 0.0943824 0)
(5.48418 0.125797 0)
(5.51687 0.146349 0)
(5.51492 0.200852 0)
(5.54274 0.219155 0)
(5.55435 0.259203 0)
(5.57394 0.279469 0)
(5.58999 0.322894 0)
(5.5975 0.348414 0)
(5.62022 0.386767 0)
(5.62222 0.410481 0)
(5.65255 0.44803 0)
(5.65073 0.476179 0)
(5.68754 0.517801 0)
(5.67945 0.55118 0)
(5.71943 0.597156 0)
(5.70173 0.631813 0)
(5.74426 0.669736 0)
(5.71725 0.694118 0)
(5.7674 0.722339 0)
(5.72822 0.730052 0)
(5.78781 0.742548 0)
(5.73682 0.736457 0)
(5.79793 0.730331 0)
(5.72511 0.700154 0)
(5.79302 0.677981 0)
(5.70642 0.634443 0)
(5.78927 0.6015 0)
(5.69375 0.552185 0)
(5.80232 0.523916 0)
(5.69368 0.47576 0)
(5.81287 0.444434 0)
(5.67677 0.386908 0)
(5.79046 0.349478 0)
(5.64016 0.28932 0)
(5.73816 0.252293 0)
(5.59145 0.200125 0)
(5.67486 0.169754 0)
(5.53226 0.128731 0)
(5.60608 0.108866 0)
(5.46809 0.0819669 0)
(5.53481 0.0739643 0)
(5.40608 0.0625797 0)
(5.46503 0.0661586 0)
(5.35124 0.068335 0)
(5.40376 0.0789953 0)
(5.31008 0.0898534 0)
(5.3566 0.10065 0)
(5.28519 0.113857 0)
(5.32372 0.119934 0)
(5.27413 0.134784 0)
(5.30047 0.137735 0)
(5.27198 0.157331 0)
(5.28239 0.159131 0)
(5.27592 0.184453 0)
(5.26777 0.185239 0)
(5.28496 0.215927 0)
(5.25626 0.215688 0)
(5.29845 0.251373 0)
(5.24791 0.250831 0)
(5.31508 0.291355 0)
(5.24289 0.292183 0)
(5.33339 0.336835 0)
(5.24213 0.341347 0)
(5.35168 0.389188 0)
(5.24704 0.400241 0)
(5.36822 0.449605 0)
(5.25988 0.470624 0)
(5.38171 0.5195 0)
(5.28289 0.554466 0)
(5.39069 0.601019 0)
(5.31757 0.653984 0)
(5.39599 0.696967 0)
(5.36367 0.771045 0)
(5.40016 0.812013 0)
(5.41702 0.907738 0)
(5.40817 0.952046 0)
(5.46915 1.06562 0)
(5.42588 1.12391 0)
(5.50894 1.24884 0)
(5.4549 1.33378 0)
(5.53227 1.46523 0)
(5.48899 1.58637 0)
(5.54921 1.73064 0)
(5.51743 1.88663 0)
(5.56564 2.05912 0)
(5.52813 2.25113 0)
(5.55296 2.47122 0)
(5.51929 2.70448 0)
(5.53764 3.00158 0)
(5.40435 3.32599 0)
(5.37006 3.6892 0)
(5.33063 4.17289 0)
(5.4139 4.63612 0)
(5.26094 5.32141 0)
(5.09966 6.41142 0)
(5.544 7.41707 0)
(3.11543 10.6869 0)
(4.03997 -0.319875 0)
(4.1895 -0.319615 0)
(4.38059 -0.368472 0)
(4.60945 -0.383468 0)
(4.84225 -0.378406 0)
(5.12601 -0.3867 0)
(5.40176 -0.383447 0)
(5.69361 -0.416472 0)
(6.00963 -0.471252 0)
(6.33471 -0.533661 0)
(6.68459 -0.618693 0)
(7.0136 -0.717726 0)
(7.34394 -0.817624 0)
(7.6227 -0.893056 0)
(7.86642 -0.986886 0)
(8.09489 -1.08249 0)
(8.26181 -1.1777 0)
(8.38987 -1.28254 0)
(8.48623 -1.41054 0)
(8.61129 -1.56301 0)
(8.68589 -1.72037 0)
(8.7603 -1.8778 0)
(8.83178 -2.01835 0)
(8.9406 -2.1509 0)
(9.01118 -2.27767 0)
(9.07825 -2.39468 0)
(9.09969 -2.48862 0)
(9.11712 -2.56121 0)
(9.11067 -2.61404 0)
(9.09202 -2.64113 0)
(9.04888 -2.64115 0)
(9.01003 -2.62532 0)
(8.95654 -2.58841 0)
(8.89532 -2.54419 0)
(8.82243 -2.50903 0)
(8.70644 -2.48755 0)
(8.5621 -2.48342 0)
(8.4166 -2.48234 0)
(8.33893 -2.47023 0)
(8.30894 -2.44456 0)
(8.26621 -2.4116 0)
(8.21227 -2.36251 0)
(8.14838 -2.28621 0)
(8.08905 -2.18951 0)
(8.04245 -2.08615 0)
(8.01841 -1.98217 0)
(7.99096 -1.87535 0)
(7.9418 -1.76143 0)
(7.87102 -1.64272 0)
(7.81478 -1.54995 0)
(7.77444 -1.47612 0)
(7.74042 -1.38517 0)
(7.70229 -1.28185 0)
(7.66963 -1.18021 0)
(7.64843 -1.09295 0)
(7.63004 -1.02376 0)
(7.62516 -0.965515 0)
(7.61597 -0.907935 0)
(7.60262 -0.851294 0)
(7.55551 -0.789281 0)
(7.47479 -0.711426 0)
(7.3782 -0.631131 0)
(7.27669 -0.555204 0)
(7.16799 -0.487552 0)
(7.05536 -0.433987 0)
(6.95696 -0.395369 0)
(6.87208 -0.364826 0)
(6.7961 -0.333801 0)
(6.71897 -0.291084 0)
(6.63912 -0.247536 0)
(6.56654 -0.207881 0)
(6.49485 -0.175321 0)
(6.43775 -0.149293 0)
(6.36944 -0.128136 0)
(6.31261 -0.118014 0)
(6.25309 -0.0980046 0)
(6.20391 -0.0843243 0)
(6.15178 -0.0746553 0)
(6.09527 -0.0730022 0)
(6.03964 -0.068172 0)
(5.98917 -0.0560183 0)
(5.9421 -0.0432066 0)
(5.8991 -0.0411989 0)
(5.85929 -0.056447 0)
(5.81931 -0.0818107 0)
(5.76199 -0.105713 0)
(5.69645 -0.12136 0)
(5.62469 -0.135847 0)
(5.56562 -0.170143 0)
(5.51434 -0.173004 0)
(5.44666 -0.189954 0)
(5.42551 -0.211054 0)
(5.38121 -0.208339 0)
(5.34582 -0.193325 0)
(5.32619 -0.182885 0)
(5.31005 -0.165501 0)
(5.30173 -0.139182 0)
(5.28999 -0.0918143 0)
(5.30979 -0.0695475 0)
(5.31839 -0.0226991 0)
(5.3387 0.0134251 0)
(5.33667 0.0730825 0)
(5.36424 0.0822288 0)
(5.37906 0.120029 0)
(5.40309 0.138296 0)
(5.40653 0.198372 0)
(5.43539 0.207544 0)
(5.44761 0.255204 0)
(5.47113 0.269862 0)
(5.4809 0.320966 0)
(5.49834 0.339626 0)
(5.51045 0.384504 0)
(5.52971 0.40177 0)
(5.54235 0.443951 0)
(5.56705 0.467062 0)
(5.57712 0.512583 0)
(5.60676 0.543237 0)
(5.60976 0.592563 0)
(5.64232 0.625572 0)
(5.63532 0.665416 0)
(5.67136 0.689171 0)
(5.657 0.717317 0)
(5.69698 0.726991 0)
(5.67442 0.73759 0)
(5.72184 0.736552 0)
(5.68386 0.727263 0)
(5.73182 0.705055 0)
(5.67535 0.675573 0)
(5.73093 0.6416 0)
(5.65923 0.596881 0)
(5.73362 0.558005 0)
(5.65412 0.513679 0)
(5.75512 0.482657 0)
(5.65244 0.435001 0)
(5.76724 0.401271 0)
(5.62534 0.344116 0)
(5.74917 0.309733 0)
(5.58089 0.250814 0)
(5.70379 0.222663 0)
(5.52711 0.170706 0)
(5.64628 0.152536 0)
(5.46502 0.111375 0)
(5.58351 0.105712 0)
(5.40065 0.0770421 0)
(5.51977 0.0849528 0)
(5.33949 0.0692206 0)
(5.46062 0.08756 0)
(5.28935 0.0810473 0)
(5.41271 0.104436 0)
(5.25518 0.101523 0)
(5.37853 0.123261 0)
(5.23729 0.120506 0)
(5.35522 0.139553 0)
(5.23111 0.139542 0)
(5.33748 0.157879 0)
(5.23264 0.163184 0)
(5.32273 0.180679 0)
(5.24057 0.192076 0)
(5.31026 0.207589 0)
(5.25459 0.225587 0)
(5.29981 0.238433 0)
(5.27433 0.263922 0)
(5.29066 0.274127 0)
(5.29904 0.308173 0)
(5.28286 0.316067 0)
(5.32798 0.359236 0)
(5.277 0.366388 0)
(5.35962 0.418121 0)
(5.27505 0.426965 0)
(5.39219 0.485536 0)
(5.27999 0.500259 0)
(5.42286 0.562669 0)
(5.29536 0.588684 0)
(5.44877 0.65136 0)
(5.32475 0.695064 0)
(5.46747 0.755001 0)
(5.36986 0.821957 0)
(5.47968 0.878614 0)
(5.42825 0.971753 0)
(5.49048 1.02983 0)
(5.49208 1.14631 0)
(5.50722 1.21638 0)
(5.5479 1.349 0)
(5.53326 1.44528 0)
(5.58616 1.58968 0)
(5.56498 1.7222 0)
(5.6147 1.88482 0)
(5.60349 2.0556 0)
(5.64073 2.24957 0)
(5.64459 2.46862 0)
(5.63967 2.71095 0)
(5.69248 2.9741 0)
(5.74735 3.31933 0)
(5.72305 3.67589 0)
(5.61856 4.17775 0)
(5.59728 4.77303 0)
(5.50544 5.3963 0)
(5.28255 6.59898 0)
(6.78478 7.21077 0)
(4.44482 11.5068 0)
(5.81437 -0.301099 0)
(5.84034 -0.354083 0)
(5.96136 -0.412158 0)
(6.09989 -0.446832 0)
(6.2463 -0.458485 0)
(6.40985 -0.472031 0)
(6.57457 -0.477514 0)
(6.72903 -0.505159 0)
(6.91625 -0.566021 0)
(7.11734 -0.645143 0)
(7.36556 -0.739066 0)
(7.57525 -0.830007 0)
(7.77566 -0.926073 0)
(7.96192 -1.0034 0)
(8.13241 -1.08726 0)
(8.30914 -1.17858 0)
(8.47368 -1.26393 0)
(8.63781 -1.35009 0)
(8.76769 -1.46463 0)
(8.91826 -1.60151 0)
(9.03421 -1.74972 0)
(9.11862 -1.89766 0)
(9.181 -2.04686 0)
(9.26774 -2.18598 0)
(9.32796 -2.30571 0)
(9.39095 -2.41302 0)
(9.39606 -2.49668 0)
(9.40335 -2.56312 0)
(9.36241 -2.60509 0)
(9.30412 -2.61992 0)
(9.2376 -2.61886 0)
(9.16988 -2.60263 0)
(9.08882 -2.56494 0)
(9.02884 -2.52006 0)
(8.96808 -2.47621 0)
(8.86582 -2.43739 0)
(8.74843 -2.42412 0)
(8.62504 -2.4358 0)
(8.53503 -2.44039 0)
(8.47154 -2.41938 0)
(8.39588 -2.38543 0)
(8.30679 -2.33339 0)
(8.2116 -2.25472 0)
(8.14137 -2.16543 0)
(8.09258 -2.07038 0)
(8.05449 -1.96322 0)
(8.01128 -1.85087 0)
(7.95728 -1.73593 0)
(7.8901 -1.61987 0)
(7.83297 -1.53182 0)
(7.78711 -1.45933 0)
(7.74691 -1.36975 0)
(7.70151 -1.26976 0)
(7.66312 -1.16854 0)
(7.63969 -1.08351 0)
(7.62237 -1.01772 0)
(7.61777 -0.962971 0)
(7.59938 -0.901727 0)
(7.56532 -0.832572 0)
(7.50036 -0.759246 0)
(7.41563 -0.67563 0)
(7.32145 -0.59139 0)
(7.2187 -0.510661 0)
(7.11067 -0.441014 0)
(7.00234 -0.390702 0)
(6.91029 -0.357176 0)
(6.82223 -0.329534 0)
(6.73418 -0.299749 0)
(6.6508 -0.257395 0)
(6.56798 -0.213664 0)
(6.49259 -0.176837 0)
(6.4188 -0.147452 0)
(6.36036 -0.123741 0)
(6.29587 -0.101848 0)
(6.23718 -0.0922725 0)
(6.17292 -0.0742533 0)
(6.12394 -0.0622264 0)
(6.07061 -0.0512823 0)
(6.00916 -0.048326 0)
(5.94994 -0.0447505 0)
(5.89229 -0.0334071 0)
(5.84165 -0.0239115 0)
(5.80157 -0.0246619 0)
(5.76771 -0.0385271 0)
(5.72906 -0.0608954 0)
(5.67087 -0.0792734 0)
(5.60378 -0.0910838 0)
(5.53262 -0.109227 0)
(5.47521 -0.144988 0)
(5.41722 -0.146636 0)
(5.35216 -0.173907 0)
(5.33043 -0.193219 0)
(5.27858 -0.191994 0)
(5.2445 -0.178904 0)
(5.22388 -0.177527 0)
(5.20387 -0.157032 0)
(5.19613 -0.135972 0)
(5.18246 -0.0911144 0)
(5.20914 -0.078872 0)
(5.2064 -0.0240716 0)
(5.23289 0.00851356 0)
(5.22254 0.0708787 0)
(5.26238 0.0703729 0)
(5.26487 0.115894 0)
(5.29762 0.129687 0)
(5.29331 0.195522 0)
(5.33234 0.193823 0)
(5.33882 0.252716 0)
(5.36746 0.258607 0)
(5.37434 0.320881 0)
(5.39296 0.328661 0)
(5.40859 0.384057 0)
(5.42428 0.38965 0)
(5.44593 0.442664 0)
(5.46169 0.454242 0)
(5.48852 0.510889 0)
(5.50248 0.529983 0)
(5.53202 0.591456 0)
(5.54083 0.612763 0)
(5.57131 0.666131 0)
(5.57193 0.676976 0)
(5.60605 0.718667 0)
(5.59805 0.715076 0)
(5.63631 0.739943 0)
(5.62074 0.725072 0)
(5.66238 0.733017 0)
(5.63201 0.697169 0)
(5.67435 0.685477 0)
(5.62634 0.634478 0)
(5.67438 0.607479 0)
(5.6154 0.547899 0)
(5.68465 0.522175 0)
(5.61891 0.469093 0)
(5.70864 0.446626 0)
(5.61527 0.390349 0)