/*--------------------------------*- C++ -*----------------------------------*\
| =========                 |                                                 |
| \\      /  F ield         | OpenFOAM: The Open Source CFD Toolbox           |
|  \\    /   O peration     | Version:  2.4.0                                 |
|   \\  /    A nd           | Web:      www.OpenFOAM.org                      |
|    \\/     M anipulation  |                                                 |
\*---------------------------------------------------------------------------*/
FoamFile
{
    version     2.0;
    format      ascii;
    class       volVectorField;
    location    "0.095";
    object      UMean;
}
// * * * * * * * * * * * * * * * * * * * * * * * * * * * * * * * * * * * * * //

dimensions      [0 1 -1 0 0 0 0];

internalField   nonuniform List<vector> 
17600
(
(5.35532 0.306386 0)
(3.07205 0.0608015 0)
(2.30268 -0.0013009 0)
(1.96497 -0.00351946 0)
(1.83125 -0.00132445 0)
(1.74515 -0.000206798 0)
(1.68345 -6.26682e-06 0)
(1.63125 -4.3536e-05 0)
(1.59851 -0.000110671 0)
(1.56726 -2.47454e-05 0)
(1.54994 -3.18515e-05 0)
(1.52561 0.000102001 0)
(1.51386 7.49633e-06 0)
(1.4921 7.1865e-05 0)
(1.48566 -6.81633e-05 0)
(1.46979 -0.000102043 0)
(1.46834 -0.000176034 0)
(1.47115 -0.000128489 0)
(1.49908 -0.0029368 0)
(1.45213 -0.0194387 0)
(8.58965 0.860511 0)
(7.01961 0.376435 0)
(5.9264 0.118302 0)
(5.19704 0.0486677 0)
(4.81312 0.0260868 0)
(4.56059 0.018271 0)
(4.38903 0.0139109 0)
(4.24396 0.0103938 0)
(4.15126 0.00769006 0)
(4.06062 0.00607444 0)
(4.01122 0.00496379 0)
(3.94226 0.00476007 0)
(3.9119 0.00391082 0)
(3.85109 0.00399068 0)
(3.83451 0.00241769 0)
(3.78736 0.00307728 0)
(3.77898 -8.13891e-05 0)
(3.77553 -0.00115055 0)
(3.77196 -0.00112506 0)
(3.90109 -0.101318 0)
(9.82105 1.00634 0)
(9.37341 0.563951 0)
(8.55457 0.233007 0)
(7.75234 0.124168 0)
(7.23026 0.076138 0)
(6.86032 0.0520307 0)
(6.60855 0.0386397 0)
(6.39116 0.0290095 0)
(6.2517 0.0220208 0)
(6.11059 0.0172267 0)
(6.03552 0.0142431 0)
(5.92744 0.0126006 0)
(5.8841 0.0109763 0)
(5.78857 0.0099817 0)
(5.76679 0.00750205 0)
(5.68761 0.00693411 0)
(5.6831 0.00222135 0)
(5.64196 -0.000375367 0)
(5.66868 -0.0117366 0)
(5.72718 -0.124014 0)
(10.1164 0.932158 0)
(10.5585 0.650613 0)
(10.2866 0.317301 0)
(9.69493 0.200012 0)
(9.19896 0.137786 0)
(8.79222 0.0974484 0)
(8.50551 0.072517 0)
(8.24184 0.0546606 0)
(8.07456 0.0420246 0)
(7.89429 0.0329502 0)
(7.80272 0.0271648 0)
(7.66124 0.0240175 0)
(7.61102 0.0204176 0)
(7.48474 0.0195611 0)
(7.46258 0.0136307 0)
(7.35129 0.0155365 0)
(7.35971 0.00307866 0)
(7.26349 0.0068272 0)
(7.34499 -0.0306686 0)
(7.26709 -0.105987 0)
(10.037 0.793343 0)
(10.8949 0.651148 0)
(11.1202 0.341667 0)
(10.8895 0.243245 0)
(10.5926 0.189624 0)
(10.2641 0.143399 0)
(10.0166 0.109872 0)
(9.75191 0.0839467 0)
(9.58952 0.0657034 0)
(9.39029 0.0514731 0)
(9.29941 0.0432374 0)
(9.13492 0.0367595 0)
(9.08846 0.0330427 0)
(8.93732 0.0285033 0)
(8.92344 0.025004 0)
(8.78434 0.018896 0)
(8.80189 0.0172242 0)
(8.68493 -0.00368229 0)
(8.73951 -0.00682129 0)
(8.67541 -0.156438 0)
(9.95715 0.681219 0)
(10.8323 0.61924 0)
(11.2864 0.319738 0)
(11.3355 0.23921 0)
(11.2999 0.209196 0)
(11.1484 0.172733 0)
(11.0324 0.139516 0)
(10.8357 0.110385 0)
(10.7282 0.0884782 0)
(10.5464 0.0708102 0)
(10.4801 0.0592785 0)
(10.3162 0.051692 0)
(10.2827 0.0442049 0)
(10.1281 0.0418988 0)
(10.1199 0.030604 0)
(9.97839 0.033675 0)
(9.99362 0.0114207 0)
(9.87506 0.0209154 0)
(9.91533 -0.0390778 0)
(9.82422 -0.106525 0)
(9.94413 0.5932 0)
(10.7091 0.587125 0)
(11.2074 0.291867 0)
(11.344 0.210427 0)
(11.4565 0.196963 0)
(11.4472 0.175373 0)
(11.4879 0.149848 0)
(11.4056 0.122567 0)
(11.406 0.102586 0)
(11.2874 0.0835666 0)
(11.2849 0.0730707 0)
(11.1514 0.0625015 0)
(11.1567 0.0577051 0)
(11.0155 0.049442 0)
(11.0333 0.0452125 0)
(10.8948 0.0346668 0)
(10.9308 0.0292411 0)
(10.8027 0.00939307 0)
(10.8618 -0.0235731 0)
(10.7342 -0.104031 0)
(9.95767 0.514844 0)
(10.6098 0.552045 0)
(11.1102 0.274519 0)
(11.2566 0.184595 0)
(11.4065 0.175911 0)
(11.4341 0.164307 0)
(11.5501 0.144708 0)
(11.5416 0.12047 0)
(11.631 0.102122 0)
(11.5904 0.0861005 0)
(11.661 0.0758079 0)
(11.5955 0.0685917 0)
(11.6497 0.0610288 0)
(11.5652 0.0583 0)
(11.6092 0.046585 0)
(11.5168 0.0463618 0)
(11.5625 0.0257031 0)
(11.4709 0.0208167 0)
(11.5235 -0.0302385 0)
(11.4113 -0.0991734 0)
(9.96987 0.445272 0)
(10.5348 0.508938 0)
(11.0263 0.261937 0)
(11.1862 0.162223 0)
(11.3376 0.155764 0)
(11.3704 0.150317 0)
(11.49 0.135618 0)
(11.5072 0.111999 0)
(11.6139 0.0952837 0)
(11.6202 0.0794836 0)
(11.7157 0.0717898 0)
(11.7111 0.064602 0)
(11.7921 0.0601794 0)
(11.7735 0.0558369 0)
(11.8416 0.0480708 0)
(11.8117 0.0444259 0)
(11.8737 0.0270329 0)
(11.8387 0.0200144 0)
(11.8885 -0.0413668 0)
(11.8173 -0.0932065 0)
(9.97142 0.382618 0)
(10.4783 0.462919 0)
(10.9464 0.250081 0)
(11.1351 0.141868 0)
(11.2749 0.136173 0)
(11.3229 0.136759 0)
(11.4218 0.125474 0)
(11.4595 0.103692 0)
(11.5472 0.086453 0)
(11.5818 0.0720944 0)
(11.6611 0.0643561 0)
(11.6922 0.0586356 0)
(11.762 0.0543181 0)
(11.7862 0.050795 0)
(11.8498 0.0437081 0)
(11.8673 0.0383212 0)
(11.9289 0.0246834 0)
(11.9437 0.00395301 0)
(11.9857 -0.0400384 0)
(11.9512 -0.141177 0)
(9.96386 0.32613 0)
(10.4337 0.416734 0)
(10.8707 0.238366 0)
(11.0919 0.122872 0)
(11.2187 0.117423 0)
(11.2854 0.123413 0)
(11.3623 0.115056 0)
(11.4192 0.0955664 0)
(11.4873 0.078128 0)
(11.5415 0.0648963 0)
(11.6033 0.0569948 0)
(11.6532 0.0528798 0)
(11.7076 0.0476014 0)
(11.749 0.0455829 0)
(11.8025 0.0366015 0)
(11.8349 0.0340036 0)
(11.8925 0.0144119 0)
(11.9195 -0.000312343 0)
(11.9585 -0.0585606 0)
(11.9225 -0.161413 0)
(9.95894 0.275925 0)
(10.3913 0.370417 0)
(10.8071 0.225812 0)
(11.046 0.10488 0)
(11.1737 0.099756 0)
(11.2464 0.109601 0)
(11.3158 0.104592 0)
(11.3765 0.0866278 0)
(11.4409 0.070378 0)
(11.4992 0.0572432 0)
(11.5591 0.0509705 0)
(11.6112 0.0463756 0)
(11.6639 0.0432063 0)
(11.707 0.0384484 0)
(11.7584 0.0329695 0)
(11.7916 0.0238511 0)
(11.8491 0.0100654 0)
(11.8713 -0.0159992 0)
(11.9126 -0.0693441 0)
(11.8573 -0.177331 0)
(9.9586 0.231825 0)
(10.3527 0.324019 0)
(10.7534 0.209866 0)
(11.0011 0.0888622 0)
(11.1353 0.0833584 0)
(11.2103 0.0955755 0)
(11.276 0.0935085 0)
(11.337 0.0771077 0)
(11.4005 0.0623059 0)
(11.4611 0.0495776 0)
(11.52 0.0446111 0)
(11.5737 0.0401454 0)
(11.625 0.0374954 0)
(11.6712 0.0327148 0)
(11.7173 0.0271175 0)
(11.7574 0.0175098 0)
(11.8055 0.00236641 0)
(11.833 -0.0275131 0)
(11.8655 -0.0788338 0)
(11.7994 -0.190633 0)
(9.9576 0.191961 0)
(10.3224 0.279288 0)
(10.7059 0.18777 0)
(10.962 0.0761258 0)
(11.1013 0.068925 0)
(11.1804 0.0821489 0)
(11.2405 0.0820408 0)
(11.3041 0.0675122 0)
(11.3647 0.0541097 0)
(11.429 0.0422789 0)
(11.4851 0.0382771 0)
(11.5428 0.0340191 0)
(11.5908 0.0320762 0)
(11.6414 0.026225 0)
(11.6821 0.0214405 0)
(11.7297 0.00940235 0)
(11.7658 -0.00547397 0)
(11.8048 -0.0375782 0)
(11.8182 -0.0891566 0)
(11.7556 -0.198166 0)
(9.9578 0.155798 0)
(10.2964 0.235719 0)
(10.667 0.161194 0)
(10.9276 0.0648808 0)
(11.0755 0.0564525 0)
(11.1539 0.0686645 0)
(11.2135 0.0705408 0)
(11.2749 0.0572481 0)
(11.3374 0.0461493 0)
(11.3999 0.0350225 0)
(11.4593 0.0322149 0)
(11.5149 0.02786 0)
(11.5658 0.0265046 0)
(11.6133 0.0202494 0)
(11.6571 0.0156111 0)
(11.7016 0.00223826 0)
(11.7372 -0.0128467 0)
(11.7766 -0.0472855 0)
(11.7791 -0.098122 0)
(11.719 -0.203041 0)
(9.9602 0.123183 0)
(10.273 0.192261 0)
(10.6368 0.132831 0)
(10.8981 0.0539198 0)
(11.0556 0.0447546 0)
(11.1308 0.0554197 0)
(11.193 0.0582346 0)
(11.2496 0.0469222 0)
(11.3158 0.0378123 0)
(11.3751 0.0279966 0)
(11.4396 0.0258297 0)
(11.4905 0.0217449 0)
(11.5462 0.0204703 0)
(11.5886 0.0140229 0)
(11.6376 0.00913711 0)
(11.6749 -0.00465677 0)
(11.7174 -0.0208264 0)
(11.7469 -0.0558865 0)
(11.7506 -0.106749 0)
(11.6845 -0.206098 0)
(9.96122 0.0932935 0)
(10.2557 0.148812 0)
(10.6123 0.103945 0)
(10.8755 0.0426107 0)
(11.038 0.0340688 0)
(11.114 0.0420814 0)
(11.1752 0.0459392 0)
(11.2307 0.0360456 0)
(11.2971 0.0296882 0)
(11.3569 0.0208713 0)
(11.4218 0.0197804 0)
(11.4723 0.0156802 0)
(11.5285 0.014806 0)
(11.5703 0.00785732 0)
(11.6196 0.0030719 0)
(11.6546 -0.0116908 0)
(11.7003 -0.0286466 0)
(11.7202 -0.0638563 0)
(11.7288 -0.114178 0)
(11.6522 -0.208379 0)
(9.96018 0.0654364 0)
(10.245 0.105568 0)
(10.5924 0.0748539 0)
(10.8594 0.0309226 0)
(11.0236 0.0239456 0)
(11.1032 0.0294022 0)
(11.1604 0.0330415 0)
(11.2179 0.0256871 0)
(11.2817 0.0209171 0)
(11.3447 0.0145199 0)
(11.4066 0.0131622 0)
(11.4603 0.010146 0)
(11.5138 0.00830425 0)
(11.5583 0.00208146 0)
(11.6036 -0.00326192 0)
(11.6424 -0.0186933 0)
(11.6827 -0.0354572 0)
(11.7019 -0.0719555 0)
(11.7092 -0.120422 0)
(11.6263 -0.209979 0)
(9.9598 0.0390604 0)
(10.2377 0.062475 0)
(10.5792 0.04581 0)
(10.8486 0.0180736 0)
(11.0149 0.0149131 0)
(11.0956 0.0164098 0)
(11.1512 0.0207878 0)
(11.2091 0.0142388 0)
(11.2719 0.0131521 0)
(11.3364 0.00700306 0)
(11.397 0.0077317 0)
(11.4527 0.00322743 0)
(11.5042 0.00302216 0)
(11.5504 -0.00483935 0)
(11.5925 -0.00882247 0)
(11.6351 -0.0260203 0)
(11.6677 -0.0419963 0)
(11.6923 -0.0790287 0)
(11.6915 -0.127454 0)
(11.6085 -0.208842 0)
(9.96058 0.013467 0)
(10.2329 0.0198369 0)
(10.5738 0.0162527 0)
(10.8428 0.00496502 0)
(11.0115 0.00590719 0)
(11.0907 0.00441327 0)
(11.1478 0.00739283 0)
(11.2038 0.00398992 0)
(11.2685 0.0038207 0)
(11.3315 0.0013425 0)
(11.3934 0.000353238 0)
(11.4482 -0.00137192 0)
(11.5002 -0.00464588 0)
(11.5449 -0.00905738 0)
(11.5883 -0.0174403 0)
(11.629 -0.0302023 0)
(11.6602 -0.0517745 0)
(11.6855 -0.0831671 0)
(11.6794 -0.13558 0)
(11.5952 -0.210393 0)
(9.96053 -0.0117139 0)
(10.2329 -0.0229576 0)
(10.5741 -0.0131595 0)
(10.8428 -0.00872857 0)
(11.0112 -0.00231424 0)
(11.0904 -0.00827254 0)
(11.1482 -0.00512644 0)
(11.2033 -0.00750941 0)
(11.2692 -0.00405054 0)
(11.3307 -0.00606957 0)
(11.3938 -0.00488449 0)
(11.4475 -0.00844513 0)
(11.5 -0.00912848 0)
(11.5433 -0.016811 0)
(11.5888 -0.0212836 0)
(11.6251 -0.0395768 0)
(11.6589 -0.0544408 0)
(11.6798 -0.0949762 0)
(11.6726 -0.132516 0)
(11.5855 -0.224247 0)
(9.9595 -0.0372928 0)
(10.238 -0.065655 0)
(10.5793 -0.042644 0)
(10.8492 -0.0218498 0)
(11.0144 -0.0111165 0)
(11.0957 -0.0205518 0)
(11.1516 -0.0181134 0)
(11.2085 -0.0183015 0)
(11.2731 -0.0126691 0)
(11.3349 -0.0125272 0)
(11.3976 -0.0114151 0)
(11.4518 -0.0141223 0)
(11.5028 -0.01577 0)
(11.5475 -0.0221357 0)
(11.5915 -0.0287207 0)
(11.6263 -0.043894 0)
(11.6606 -0.0639289 0)
(11.6786 -0.0967904 0)
(11.6691 -0.143257 0)
(11.5806 -0.204986 0)
(9.95935 -0.0637645 0)
(10.2462 -0.108537 0)
(10.5915 -0.0719414 0)
(10.8605 -0.034364 0)
(11.0231 -0.0205127 0)
(11.1041 -0.0331088 0)
(11.1599 -0.0309037 0)
(11.218 -0.0291215 0)
(11.2819 -0.0211231 0)
(11.3436 -0.0191787 0)
(11.4065 -0.0176519 0)
(11.4598 -0.0199361 0)
(11.5105 -0.0218956 0)
(11.5558 -0.0278858 0)
(11.5977 -0.0353706 0)
(11.6327 -0.0490203 0)
(11.666 -0.0721908 0)
(11.682 -0.0995259 0)
(11.6721 -0.152482 0)
(11.5818 -0.18714 0)
(9.95954 -0.091691 0)
(10.258 -0.15173 0)
(10.6109 -0.101 0)
(10.8767 -0.0461686 0)
(11.0369 -0.0305339 0)
(11.1157 -0.0461267 0)
(11.1735 -0.0432483 0)
(11.232 -0.0403802 0)
(11.2958 -0.0288485 0)
(11.357 -0.0267896 0)
(11.4199 -0.0228341 0)
(11.4718 -0.0269538 0)
(11.5233 -0.0262513 0)
(11.568 -0.0355688 0)
(11.6083 -0.0387484 0)
(11.644 -0.0580448 0)
(11.6754 -0.074331 0)
(11.69 -0.110585 0)
(11.6797 -0.148578 0)
(11.5862 -0.201288 0)
(9.95858 -0.121728 0)
(10.2753 -0.19499 0)
(10.6359 -0.130095 0)
(10.8994 -0.0570154 0)
(11.0543 -0.0417963 0)
(11.132 -0.058755 0)
(11.1917 -0.0563376 0)
(11.2509 -0.0504446 0)
(11.3137 -0.0378153 0)
(11.3758 -0.033077 0)
(11.4367 -0.0298685 0)
(11.4889 -0.0319769 0)
(11.5403 -0.0335395 0)
(11.5843 -0.0398091 0)
(11.6237 -0.0467245 0)
(11.6598 -0.0615619 0)
(11.6883 -0.0832385 0)
(11.7032 -0.11335 0)
(11.6908 -0.155893 0)
(11.5978 -0.201383 0)
(9.95735 -0.1544 0)
(10.2976 -0.238481 0)
(10.6671 -0.158411 0)
(10.9283 -0.0680028 0)
(11.0754 -0.0532253 0)
(11.1535 -0.0724286 0)
(11.2146 -0.0680452 0)
(11.2743 -0.0616381 0)
(11.3368 -0.0449918 0)
(11.3991 -0.041535 0)
(11.458 -0.0343501 0)
(11.5112 -0.0398525 0)
(11.5617 -0.0372988 0)
(11.6047 -0.0475214 0)
(11.6445 -0.050398 0)
(11.6787 -0.0691655 0)
(11.7067 -0.087245 0)
(11.7204 -0.12048 0)
(11.7078 -0.160305 0)
(11.6146 -0.19964 0)
(9.95702 -0.19082 0)
(10.3244 -0.281629 0)
(10.7057 -0.185556 0)
(10.9627 -0.0785977 0)
(11.1016 -0.0663898 0)
(11.1802 -0.0851336 0)
(11.2423 -0.0805638 0)
(11.3028 -0.0708569 0)
(11.3658 -0.0539013 0)
(11.4268 -0.0479833 0)
(11.485 -0.0410273 0)
(11.5383 -0.0455126 0)
(11.5876 -0.0430308 0)
(11.6304 -0.0531068 0)
(11.67 -0.0557807 0)
(11.7023 -0.0749135 0)
(11.7306 -0.0923129 0)
(11.742 -0.12696 0)
(11.7307 -0.164914 0)
(11.6363 -0.199524 0)
(9.95906 -0.230803 0)
(10.3555 -0.326217 0)
(10.7525 -0.207896 0)
(11.0024 -0.0912444 0)
(11.1342 -0.0807314 0)
(11.2119 -0.0986915 0)
(11.2758 -0.0918866 0)
(11.3376 -0.0807324 0)
(11.4001 -0.0616632 0)
(11.46 -0.0557038 0)
(11.5176 -0.0467337 0)
(11.5706 -0.0521059 0)
(11.6185 -0.0477708 0)
(11.6621 -0.0594184 0)
(11.6996 -0.0600972 0)
(11.7324 -0.0812289 0)
(11.7585 -0.0962116 0)
(11.7698 -0.134064 0)
(11.7578 -0.168858 0)
(11.6658 -0.203301 0)
(9.96716 -0.275428 0)
(10.3886 -0.372027 0)
(10.8103 -0.224326 0)
(11.0432 -0.106635 0)
(11.1752 -0.0975893 0)
(11.2452 -0.11213 0)
(11.3172 -0.103606 0)
(11.3749 -0.0897338 0)
(11.4408 -0.0700794 0)
(11.4965 -0.0631497 0)
(11.5564 -0.0530451 0)
(11.606 -0.0584663 0)
(11.656 -0.0526825 0)
(11.6971 -0.0656256 0)
(11.7354 -0.0641481 0)
(11.7665 -0.0875665 0)
(11.7917 -0.0992004 0)
(11.8021 -0.141593 0)
(11.7897 -0.171943 0)
(11.7014 -0.211972 0)
(9.98233 -0.326116 0)
(10.4205 -0.417729 0)
(10.882 -0.237218 0)
(11.0799 -0.124026 0)
(11.2282 -0.115998 0)
(11.2755 -0.125136 0)
(11.3708 -0.115104 0)
(11.4094 -0.0976586 0)
(11.493 -0.0789076 0)
(11.5315 -0.0697366 0)
(11.6064 -0.0602638 0)
(11.6409 -0.06364 0)
(11.7045 -0.0586827 0)
(11.7321 -0.0704697 0)
(11.7818 -0.069071 0)
(11.8006 -0.0923738 0)
(11.8334 -0.10267 0)
(11.833 -0.147334 0)
(11.8236 -0.175553 0)
(11.7295 -0.222852 0)
(9.99447 -0.382885 0)
(10.4562 -0.463418 0)
(10.9653 -0.249144 0)
(11.1145 -0.142758 0)
(11.293 -0.135187 0)
(11.3043 -0.137946 0)
(11.4385 -0.125954 0)
(11.4415 -0.105304 0)
(11.5613 -0.0877116 0)
(11.5638 -0.076489 0)
(11.6729 -0.0677131 0)
(11.672 -0.0689595 0)
(11.7674 -0.0650676 0)
(11.7593 -0.075071 0)
(11.836 -0.0741078 0)
(11.8175 -0.0964914 0)
(11.8683 -0.105093 0)
(11.8274 -0.151866 0)
(11.8206 -0.175995 0)
(11.6866 -0.23561 0)
(9.98924 -0.445518 0)
(10.5116 -0.509027 0)
(11.0485 -0.261421 0)
(11.1627 -0.162794 0)
(11.3603 -0.155357 0)
(11.3473 -0.150849 0)
(11.5121 -0.136636 0)
(11.4842 -0.113077 0)
(11.6341 -0.0969748 0)
(11.5968 -0.0833774 0)
(11.7335 -0.0755732 0)
(11.684 -0.0740358 0)
(11.802 -0.07131 0)
(11.7354 -0.0784867 0)
(11.8272 -0.0778874 0)
(11.7404 -0.0981158 0)
(11.7955 -0.104069 0)
(11.6766 -0.152779 0)
(11.6573 -0.167571 0)
(11.4434 -0.246588 0)
(9.96953 -0.514857 0)
(10.5932 -0.552027 0)
(11.1294 -0.274447 0)
(11.2373 -0.184841 0)
(11.4269 -0.176024 0)
(11.4134 -0.16422 0)
(11.5711 -0.146264 0)
(11.5194 -0.120792 0)
(11.6509 -0.104642 0)
(11.5658 -0.0886935 0)
(11.6777 -0.0806736 0)
(11.5641 -0.0758504 0)
(11.656 -0.0737213 0)
(11.5152 -0.0766109 0)
(11.5843 -0.0775158 0)
(11.4187 -0.0917592 0)
(11.4541 -0.100139 0)
(11.254 -0.140365 0)
(11.2102 -0.158891 0)
(10.9233 -0.229945 0)
(9.95146 -0.593014 0)
(10.6988 -0.587207 0)
(11.2216 -0.291846 0)
(11.33 -0.210737 0)
(11.4721 -0.19704 0)
(11.4306 -0.175372 0)
(11.5051 -0.151092 0)
(11.3858 -0.123145 0)
(11.423 -0.104432 0)
(11.2627 -0.0864194 0)
(11.2975 -0.0767602 0)
(11.117 -0.0701295 0)
(11.155 -0.0672821 0)
(10.9561 -0.068222 0)
(10.993 -0.0689935 0)
(10.7732 -0.0802814 0)
(10.7915 -0.0883901 0)
(10.5342 -0.123043 0)
(10.4786 -0.140131 0)
(10.1336 -0.203027 0)
(9.96152 -0.681044 0)
(10.8262 -0.619267 0)
(11.2957 -0.319893 0)
(11.3257 -0.239467 0)
(11.3111 -0.209395 0)
(11.1354 -0.172605 0)
(11.0456 -0.140737 0)
(10.8179 -0.11065 0)
(10.7424 -0.0904446 0)
(10.5209 -0.0727338 0)
(10.4902 -0.0633091 0)
(10.2773 -0.0570683 0)
(10.2771 -0.0546449 0)
(10.0574 -0.055168 0)
(10.0719 -0.0563779 0)
(9.83204 -0.0653132 0)
(9.83697 -0.0735851 0)
(9.55313 -0.101027 0)
(9.48703 -0.117978 0)
(9.11199 -0.164168 0)
(10.0395 -0.793089 0)
(10.8915 -0.651292 0)
(11.1264 -0.341803 0)
(10.8826 -0.243475 0)
(10.6002 -0.189737 0)
(10.2542 -0.143338 0)
(10.0259 -0.110761 0)
(9.7372 -0.0843062 0)
(9.59929 -0.0671092 0)
(9.36708 -0.0533174 0)
(9.30439 -0.0460727 0)
(9.0966 -0.0418453 0)
(9.07562 -0.0402249 0)
(8.86414 -0.0411131 0)
(8.86281 -0.042374 0)
(8.62872 -0.0494966 0)
(8.62153 -0.057061 0)
(8.33549 -0.0767435 0)
(8.26148 -0.095229 0)
(7.88177 -0.111566 0)
(10.1179 -0.93197 0)
(10.5567 -0.650766 0)
(10.2905 -0.317407 0)
(9.69014 -0.200174 0)
(9.20368 -0.137843 0)
(8.78519 -0.0974279 0)
(8.51151 -0.0731488 0)
(8.23017 -0.0549693 0)
(8.08035 -0.0430602 0)
(7.87402 -0.0342536 0)
(7.80347 -0.0294898 0)
(7.62456 -0.0273529 0)
(7.59393 -0.0263692 0)
(7.4104 -0.0276338 0)
(7.39736 -0.0285296 0)
(7.1889 -0.0341408 0)
(7.17063 -0.0397151 0)
(6.90307 -0.0535605 0)
(6.82993 -0.0681318 0)
(6.45079 -0.0719153 0)
(9.82199 -1.00621 0)
(9.37268 -0.564081 0)
(8.55686 -0.233063 0)
(7.74917 -0.124283 0)
(7.23284 -0.0761293 0)
(6.85567 -0.0520556 0)
(6.61189 -0.0390215 0)
(6.38224 -0.0292525 0)
(6.25447 -0.022613 0)
(6.09388 -0.0181468 0)
(6.03279 -0.015557 0)
(5.89528 -0.0150157 0)
(5.86372 -0.014451 0)
(5.72039 -0.0157895 0)
(5.70012 -0.0161569 0)
(5.53268 -0.0201846 0)
(5.50511 -0.0233672 0)
(5.27857 -0.0321357 0)
(5.20906 -0.0417166 0)
(4.85302 -0.0406045 0)
(8.59023 -0.860452 0)
(7.01943 -0.376523 0)
(5.92743 -0.118314 0)
(5.19516 -0.0487286 0)
(4.81437 -0.0260686 0)
(4.55764 -0.0182975 0)
(4.39063 -0.0140795 0)
(4.23782 -0.0105389 0)
(4.15185 -0.00793753 0)
(4.0485 -0.00654876 0)
(4.00669 -0.00559251 0)
(3.91777 -0.00586015 0)
(3.89202 -0.00557585 0)
(3.79709 -0.00657046 0)
(3.77558 -0.00654063 0)
(3.66137 -0.00883423 0)
(3.63021 -0.00994755 0)
(3.46817 -0.0145052 0)
(3.40386 -0.0186159 0)
(3.1228 -0.017487 0)
(5.35553 -0.306366 0)
(3.0721 -0.0608267 0)
(2.30284 0.00131182 0)
(1.96423 0.00350767 0)
(1.83156 0.00134001 0)
(1.74407 0.000194799 0)
(1.68372 -1.17115e-05 0)
(1.62864 1.45508e-05 0)
(1.59791 0.000105816 0)
(1.56184 -5.68473e-05 0)
(1.54631 -2.9199e-06 0)
(1.51396 -0.00027397 0)
(1.50172 -0.000141409 0)
(1.46532 -0.000468675 0)
(1.45231 -0.000252233 0)
(1.40638 -0.000792682 0)
(1.38575 -0.000581626 0)
(1.31661 -0.00148227 0)
(1.27481 -0.00161585 0)
(1.14867 0.00574189 0)
(2.18955 -0.291113 0)
(2.58197 -0.24162 0)
(2.97546 -0.255729 0)
(3.36123 -0.24566 0)
(3.71628 -0.231569 0)
(4.11088 -0.223305 0)
(4.55419 -0.190552 0)
(5.02653 -0.226731 0)
(5.54195 -0.274746 0)
(6.00366 -0.335575 0)
(6.43297 -0.43937 0)
(6.80272 -0.576298 0)
(7.15794 -0.712723 0)
(7.40921 -0.821858 0)
(7.66813 -0.953306 0)
(7.85936 -1.05324 0)
(8.00424 -1.15163 0)
(8.15979 -1.27634 0)
(8.26271 -1.41596 0)
(8.37125 -1.58108 0)
(8.39723 -1.7446 0)
(8.44998 -1.90068 0)
(8.50356 -2.0283 0)
(8.57785 -2.1441 0)
(8.65864 -2.26635 0)
(8.73155 -2.37937 0)
(8.76819 -2.47057 0)
(8.78448 -2.53672 0)
(8.78024 -2.57902 0)
(8.77501 -2.60344 0)
(8.73917 -2.59349 0)
(8.71773 -2.5654 0)
(8.69687 -2.52971 0)
(8.64303 -2.49056 0)
(8.56726 -2.46379 0)
(8.45715 -2.4604 0)
(8.31751 -2.46266 0)
(8.17198 -2.44003 0)
(8.10592 -2.40062 0)
(8.09652 -2.36424 0)
(8.08537 -2.32085 0)
(8.06398 -2.26337 0)
(8.0294 -2.18639 0)
(7.98923 -2.08846 0)
(7.95101 -1.97517 0)
(7.93189 -1.86164 0)
(7.90929 -1.75673 0)
(7.86071 -1.65258 0)
(7.78818 -1.54715 0)
(7.73282 -1.46386 0)
(7.69385 -1.40323 0)
(7.66273 -1.33178 0)
(7.63594 -1.24656 0)
(7.60943 -1.17109 0)
(7.58965 -1.10799 0)
(7.57532 -1.05901 0)
(7.56675 -1.01937 0)
(7.55862 -0.982122 0)
(7.55891 -0.95115 0)
(7.5334 -0.91947 0)
(7.46668 -0.864053 0)
(7.37619 -0.791465 0)
(7.28124 -0.719626 0)
(7.1781 -0.648934 0)
(7.07065 -0.584134 0)
(6.97182 -0.532573 0)
(6.89089 -0.491927 0)
(6.82581 -0.452347 0)
(6.7542 -0.412242 0)
(6.67893 -0.37012 0)
(6.60974 -0.323315 0)
(6.53668 -0.284367 0)
(6.47175 -0.256902 0)
(6.40531 -0.234422 0)
(6.35262 -0.218845 0)
(6.29433 -0.210057 0)
(6.23818 -0.209048 0)
(6.18889 -0.209074 0)
(6.13897 -0.206071 0)
(6.09528 -0.195322 0)
(6.05032 -0.183593 0)
(5.9942 -0.170992 0)
(5.9368 -0.174113 0)
(5.88198 -0.189404 0)
(5.83382 -0.211212 0)
(5.77503 -0.235413 0)
(5.71199 -0.245253 0)
(5.64091 -0.244212 0)
(5.58311 -0.264073 0)
(5.53966 -0.252703 0)
(5.47316 -0.239092 0)
(5.45696 -0.237174 0)
(5.42747 -0.212093 0)
(5.39959 -0.172654 0)
(5.39564 -0.123886 0)
(5.38822 -0.0775221 0)
(5.40657 -0.0220429 0)
(5.39335 0.0385815 0)
(5.429 0.0647754 0)
(5.43752 0.0923241 0)
(5.47396 0.118875 0)
(5.46715 0.170647 0)
(5.50356 0.191417 0)
(5.51563 0.232624 0)
(5.545 0.257473 0)
(5.55227 0.306722 0)
(5.56543 0.335861 0)
(5.5795 0.379255 0)
(5.58787 0.407635 0)
(5.60659 0.447235 0)
(5.60843 0.4766 0)
(5.63154 0.51882 0)
(5.62894 0.550083 0)
(5.6557 0.59257 0)
(5.6469 0.624065 0)
(5.67577 0.665589 0)
(5.65785 0.690411 0)
(5.68912 0.718331 0)
(5.66362 0.730468 0)
(5.69969 0.743879 0)
(5.66356 0.739368 0)
(5.70909 0.739975 0)
(5.66207 0.72056 0)
(5.71377 0.70364 0)
(5.65367 0.668803 0)
(5.71302 0.64091 0)
(5.63526 0.59209 0)
(5.70103 0.55274 0)
(5.61237 0.499403 0)
(5.70053 0.466114 0)
(5.60336 0.418588 0)
(5.70792 0.38831 0)
(5.58423 0.336438 0)
(5.69469 0.305359 0)
(5.54743 0.252758 0)
(5.65318 0.225162 0)
(5.49862 0.179973 0)
(5.595 0.160417 0)
(5.44147 0.126817 0)
(5.53068 0.117938 0)
(5.38203 0.0977886 0)
(5.46715 0.0988292 0)
(5.32944 0.0899245 0)
(5.41222 0.0975298 0)
(5.28932 0.0959312 0)
(5.36944 0.104144 0)
(5.2641 0.104421 0)
(5.33903 0.109908 0)
(5.25116 0.112479 0)
(5.31662 0.116959 0)
(5.246 0.124524 0)
(5.29841 0.128898 0)
(5.24622 0.142076 0)
(5.28327 0.145446 0)
(5.25112 0.163955 0)
(5.27087 0.165459 0)
(5.26034 0.189288 0)
(5.26078 0.188863 0)
(5.27346 0.218256 0)
(5.25228 0.21658 0)
(5.28965 0.251797 0)
(5.24507 0.249929 0)
(5.30818 0.290839 0)
(5.23966 0.290262 0)
(5.32785 0.33637 0)
(5.23733 0.339129 0)
(5.34754 0.388891 0)
(5.24036 0.397986 0)
(5.36566 0.449459 0)
(5.25104 0.468526 0)
(5.38051 0.519379 0)
(5.27222 0.552488 0)
(5.39105 0.600599 0)
(5.30528 0.652088 0)
(5.39697 0.696506 0)
(5.3503 0.769361 0)
(5.40113 0.811193 0)
(5.40356 0.906144 0)
(5.40814 0.950945 0)
(5.45643 1.06474 0)
(5.42319 1.1222 0)
(5.49884 1.24875 0)
(5.44799 1.3315 0)
(5.52575 1.46627 0)
(5.47798 1.58411 0)
(5.54462 1.73198 0)
(5.50592 1.886 0)
(5.55846 2.05937 0)
(5.5208 2.25328 0)
(5.54028 2.47136 0)
(5.5157 2.70748 0)
(5.52311 3.0046 0)
(5.39914 3.32771 0)
(5.36317 3.6951 0)
(5.32132 4.17797 0)
(5.40899 4.64007 0)
(5.25552 5.33114 0)
(5.09032 6.42117 0)
(5.53674 7.42624 0)
(3.11129 10.7003 0)
(4.0567 -0.332005 0)
(4.19963 -0.3271 0)
(4.38872 -0.370897 0)
(4.6096 -0.378228 0)
(4.85124 -0.365526 0)
(5.13318 -0.368453 0)
(5.42438 -0.360799 0)
(5.72425 -0.395787 0)
(6.05931 -0.458995 0)
(6.39411 -0.527021 0)
(6.75645 -0.627841 0)
(7.10306 -0.745986 0)
(7.42632 -0.861974 0)
(7.68298 -0.950186 0)
(7.92414 -1.05682 0)
(8.124 -1.1383 0)
(8.28131 -1.21913 0)
(8.41567 -1.32752 0)
(8.50627 -1.45879 0)
(8.62465 -1.61633 0)
(8.67956 -1.76938 0)
(8.74341 -1.92162 0)
(8.80711 -2.05588 0)
(8.90639 -2.17517 0)
(8.97447 -2.29158 0)
(9.03513 -2.39589 0)
(9.05052 -2.47861 0)
(9.06095 -2.5412 0)
(9.04044 -2.57994 0)
(9.00828 -2.59384 0)
(8.95594 -2.58108 0)
(8.91792 -2.55472 0)
(8.87454 -2.51432 0)
(8.82251 -2.46658 0)
(8.75628 -2.42739 0)
(8.6487 -2.40616 0)
(8.51048 -2.40075 0)
(8.36617 -2.39477 0)
(8.29581 -2.38084 0)
(8.27489 -2.35387 0)
(8.23256 -2.31135 0)
(8.17554 -2.25008 0)
(8.11226 -2.16804 0)
(8.0568 -2.06928 0)
(8.01106 -1.96077 0)
(7.9818 -1.84897 0)
(7.94723 -1.7384 0)
(7.89351 -1.62851 0)
(7.82116 -1.52164 0)
(7.76595 -1.44413 0)
(7.72515 -1.3894 0)
(7.69067 -1.32067 0)
(7.65521 -1.23822 0)
(7.62323 -1.16065 0)
(7.59814 -1.09805 0)
(7.58273 -1.05127 0)
(7.57665 -1.01647 0)
(7.56787 -0.981024 0)
(7.55597 -0.941373 0)
(7.50755 -0.896209 0)
(7.42829 -0.831009 0)
(7.33551 -0.754052 0)
(7.23923 -0.677788 0)
(7.13314 -0.604054 0)
(7.02598 -0.540529 0)
(6.93065 -0.495934 0)
(6.8471 -0.460762 0)
(6.77469 -0.421627 0)
(6.69489 -0.378331 0)
(6.6117 -0.337503 0)
(6.53828 -0.293302 0)
(6.46672 -0.256341 0)
(6.40433 -0.229917 0)
(6.33476 -0.208908 0)
(6.28177 -0.195123 0)
(6.22128 -0.185659 0)
(6.16368 -0.185487 0)
(6.10987 -0.187612 0)
(6.05458 -0.185743 0)
(6.00463 -0.175209 0)
(5.95506 -0.161427 0)
(5.89865 -0.147627 0)
(5.84463 -0.15102 0)
(5.79445 -0.166814 0)
(5.74627 -0.188263 0)
(5.68414 -0.207841 0)
(5.61637 -0.215037 0)
(5.54287 -0.217651 0)
(5.48529 -0.240807 0)
(5.43477 -0.227321 0)
(5.36966 -0.224538 0)
(5.35452 -0.223881 0)
(5.31844 -0.199742 0)
(5.29084 -0.163244 0)
(5.28445 -0.12413 0)
(5.2803 -0.0761643 0)
(5.28822 -0.0228909 0)
(5.28618 0.0371005 0)
(5.31342 0.0529331 0)
(5.33294 0.0868263 0)
(5.35372 0.111809 0)
(5.3607 0.166828 0)
(5.38948 0.178188 0)
(5.41007 0.22651 0)
(5.43187 0.247617 0)
(5.44244 0.305834 0)
(5.4566 0.326673 0)
(5.47185 0.377311 0)
(5.48583 0.399286 0)
(5.49973 0.44575 0)
(5.51153 0.468816 0)
(5.52515 0.517192 0)
(5.54028 0.542938 0)
(5.55039 0.590627 0)
(5.56952 0.617831 0)
(5.57235 0.663528 0)
(5.59438 0.685622 0)
(5.58837 0.716901 0)
(5.61491 0.727119 0)
(5.60065 0.742301 0)
(5.62907 0.73731 0)
(5.60817 0.737586 0)
(5.64204 0.720543 0)
(5.61027 0.701807 0)
(5.65086 0.6717 0)
(5.6072 0.639662 0)
(5.65152 0.598686 0)
(5.58863 0.551606 0)
(5.64414 0.506308 0)
(5.57305 0.460444 0)
(5.65048 0.425225 0)
(5.56438 0.381734 0)
(5.65727 0.348798 0)
(5.5375 0.30069 0)
(5.64471 0.271433 0)
(5.49278 0.223031 0)
(5.6088 0.202153 0)
(5.43797 0.160065 0)
(5.55896 0.150418 0)
(5.37842 0.118264 0)
(5.5041 0.121031 0)
(5.3212 0.0983433 0)
(5.45385 0.110811 0)
(5.27375 0.0955008 0)
(5.41301 0.113348 0)
(5.23978 0.100438 0)
(5.38419 0.118026 0)
(5.21946 0.105386 0)
(5.36469 0.122772 0)
(5.20851 0.112991 0)
(5.34996 0.131765 0)
(5.20379 0.126416 0)
(5.33751 0.146004 0)
(5.20492 0.145049 0)
(5.32674 0.164103 0)
(5.21195 0.167692 0)
(5.31714 0.185272 0)
(5.22457 0.194265 0)
(5.30824 0.209841 0)
(5.24201 0.225604 0)
(5.29936 0.238855 0)
(5.26378 0.262716 0)
(5.29054 0.273482 0)
(5.28952 0.306514 0)
(5.282 0.315174 0)
(5.31884 0.35779 0)
(5.27524 0.365108 0)
(5.35103 0.417162 0)
(5.27203 0.425425 0)
(5.38434 0.48516 0)
(5.27547 0.498184 0)
(5.41643 0.562722 0)
(5.28908 0.5863 0)
(5.44402 0.651654 0)
(5.31634 0.692485 0)
(5.46446 0.755125 0)
(5.35922 0.819775 0)
(5.47785 0.878333 0)
(5.41654 0.970149 0)
(5.4883 1.02857 0)
(5.48069 1.14572 0)
(5.5026 1.21468 0)
(5.53859 1.34961 0)
(5.52478 1.4432 0)
(5.58066 1.59061 0)
(5.55219 1.7211 0)
(5.61169 1.88567 0)
(5.58908 2.05633 0)
(5.6362 2.25029 0)
(5.63384 2.47142 0)
(5.63019 2.71352 0)
(5.68548 2.97764 0)
(5.73407 3.3252 0)
(5.71303 3.68032 0)
(5.61042 4.18482 0)
(5.58436 4.78193 0)
(5.49838 5.40385 0)
(5.27753 6.60653 0)
(6.77674 7.22194 0)
(4.43917 11.5202 0)
(5.82598 -0.31121 0)
(5.84643 -0.360819 0)
(5.96817 -0.414009 0)
(6.09701 -0.441941 0)
(6.24885 -0.447309 0)
(6.41153 -0.455908 0)
(6.5858 -0.458439 0)
(6.74831 -0.488475 0)
(6.94468 -0.557521 0)
(7.16021 -0.644282 0)
(7.41163 -0.751605 0)
(7.63615 -0.860515 0)
(7.8381 -0.968029 0)
(8.00414 -1.05404 0)
(8.17592 -1.14975 0)
(8.32864 -1.22993 0)
(8.48954 -1.30466 0)
(8.65466 -1.39219 0)
(8.78077 -1.50912 0)
(8.92659 -1.65031 0)
(9.02466 -1.79348 0)
(9.10003 -1.93633 0)
(9.15406 -2.0796 0)
(9.23272 -2.20709 0)
(9.28783 -2.3161 0)
(9.34108 -2.41033 0)
(9.33626 -2.48337 0)
(9.33292 -2.53914 0)
(9.27798 -2.56672 0)
(9.21136 -2.56979 0)
(9.14426 -2.55837 0)
(9.0829 -2.53445 0)
(9.01173 -2.49434 0)
(8.95935 -2.4454 0)
(8.90606 -2.39771 0)
(8.81291 -2.35918 0)
(8.70155 -2.34347 0)
(8.58039 -2.35013 0)
(8.49872 -2.35373 0)
(8.44258 -2.32997 0)
(8.36584 -2.2844 0)
(8.27456 -2.22085 0)
(8.18188 -2.13797 0)
(8.1164 -2.04585 0)
(8.06778 -1.94328 0)
(8.0244 -1.82722 0)
(7.9757 -1.71191 0)
(7.91945 -1.60271 0)
(7.85307 -1.49946 0)
(7.79833 -1.42682 0)
(7.75273 -1.37337 0)
(7.7129 -1.30567 0)
(7.66972 -1.22639 0)
(7.63054 -1.14904 0)
(7.60309 -1.08797 0)
(7.58829 -1.04496 0)
(7.58174 -1.01412 0)
(7.56311 -0.974738 0)
(7.52939 -0.922306 0)
(7.46152 -0.865946 0)
(7.3767 -0.795905 0)
(7.28446 -0.715676 0)
(7.1855 -0.634491 0)
(7.07874 -0.55912 0)
(6.97475 -0.498816 0)
(6.88501 -0.45867 0)
(6.79713 -0.426691 0)
(6.71343 -0.387882 0)
(6.62744 -0.342995 0)
(6.53905 -0.302719 0)
(6.46133 -0.262743 0)
(6.38915 -0.227835 0)
(6.32631 -0.202482 0)
(6.25838 -0.182943 0)
(6.20291 -0.169917 0)
(6.1407 -0.160171 0)
(6.08342 -0.161147 0)
(6.02662 -0.16372 0)
(5.96409 -0.162708 0)
(5.91035 -0.152749 0)
(5.85551 -0.137746 0)
(5.79815 -0.124275 0)
(5.74768 -0.129008 0)
(5.70134 -0.144832 0)
(5.65308 -0.16425 0)
(5.58712 -0.179215 0)
(5.51616 -0.183953 0)
(5.44214 -0.191026 0)
(5.38569 -0.216067 0)
(5.32876 -0.202041 0)
(5.26637 -0.210642 0)
(5.25103 -0.208808 0)
(5.20786 -0.187194 0)
(5.18236 -0.153016 0)
(5.17506 -0.124155 0)
(5.16742 -0.0732593 0)
(5.17554 -0.0246269 0)
(5.17142 0.0335962 0)
(5.20808 0.0403237 0)
(5.21541 0.0826877 0)
(5.24429 0.104479 0)
(5.24307 0.162226 0)
(5.28616 0.164817 0)
(5.29482 0.221528 0)
(5.32676 0.237136 0)
(5.32735 0.305294 0)
(5.35182 0.314923 0)
(5.36379 0.376148 0)
(5.3828 0.388823 0)
(5.39598 0.445796 0)
(5.40821 0.458619 0)
(5.42692 0.517175 0)
(5.43814 0.532006 0)
(5.45944 0.590939 0)
(5.46992 0.607437 0)
(5.49173 0.664548 0)
(5.4988 0.674945 0)
(5.52071 0.718678 0)
(5.52343 0.716989 0)
(5.54753 0.745875 0)
(5.54019 0.728171 0)
(5.56751 0.742051 0)
(5.55246 0.711392 0)
(5.58311 0.707265 0)
(5.56023 0.663008 0)
(5.5974 0.6481 0)
(5.56008 0.592796 0)
(5.59689 0.563262 0)
(5.54469 0.499689 0)
(5.59517 0.470997 0)
(5.53616 0.415536 0)
(5.60366 0.393214 0)
(5.52716 0.340307 0)
(5.60591 0.31816 0)
(5.49621 0.264704 0)
(5.59235 0.24674 0)
(5.44649 0.196628 0)
(5.56129 0.187544 0)
(5.38816 0.145119 0)
(5.51983 0.147712 0)