/*--------------------------------*- C++ -*----------------------------------*\
| =========                 |                                                 |
| \\      /  F ield         | OpenFOAM: The Open Source CFD Toolbox           |
|  \\    /   O peration     | Version:  2.4.0                                 |
|   \\  /    A nd           | Web:      www.OpenFOAM.org                      |
|    \\/     M anipulation  |                                                 |
\*---------------------------------------------------------------------------*/
FoamFile
{
    version     2.0;
    format      ascii;
    class       volScalarField;
    location    "0.156";
    object      p;
}
// * * * * * * * * * * * * * * * * * * * * * * * * * * * * * * * * * * * * * //

dimensions      [0 2 -2 0 0 0 0];

internalField   nonuniform List<scalar> 
17600
(
91.5188
75.8502
71.4327
70.2793
69.3472
68.3963
67.4573
66.7713
65.9196
65.1501
64.5766
63.5611
62.9335
62.2652
61.2694
60.3743
59.7592
58.5743
56.7354
55.7436
89.6104
75.9002
71.4739
70.2889
69.3503
68.3973
67.4571
66.7714
65.9211
65.1478
64.5783
63.5617
62.9298
62.2699
61.27
60.371
59.7596
58.5778
56.742
55.743
88.1964
76.1569
71.6178
70.3273
69.3641
68.4023
67.4584
66.7739
65.9234
65.1465
64.5817
63.5612
62.928
62.275
61.2708
60.369
59.7651
58.5814
56.7791
55.7465
87.2198
76.4999
71.837
70.3929
69.3938
68.418
67.4665
66.7812
65.9288
65.1488
64.5868
63.5614
62.9289
62.2826
61.2729
60.3739
59.778
58.5856
56.8652
55.7451
86.3974
76.8367
72.0995
70.476
69.4368
68.4469
67.4861
66.7962
65.9407
65.1574
64.5946
63.5651
62.9335
62.2933
61.2782
60.389
59.7982
58.5993
56.9624
55.7571
85.6236
77.1308
72.3748
70.5598
69.4799
68.4829
67.5163
66.8188
65.9608
65.1735
64.6055
63.5747
62.9423
62.3073
61.2892
60.4158
59.8238
58.6295
57.0873
55.7471
84.8954
77.3792
72.6487
70.6385
69.5124
68.5161
67.5514
66.8448
65.9872
65.1961
64.6183
63.5912
62.9553
62.3239
61.3086
60.4544
59.8548
58.6474
57.2623
55.8461
84.2227
77.5854
72.9152
70.714
69.5331
68.5415
67.5862
66.8711
66.0169
65.2211
64.6303
63.6135
62.9703
62.3417
61.3349
60.5064
59.8854
58.7004
57.3971
56.0409
83.6101
77.7539
73.167
70.7915
69.5438
68.5588
67.6176
66.8961
66.048
65.2461
64.6403
63.6393
62.9846
62.3602
61.3661
60.567
59.9158
58.7771
57.4832
56.3315
83.06
77.8861
73.4004
70.875
69.5468
68.5683
67.6451
66.9195
66.0791
65.2695
64.649
63.6654
62.9977
62.3788
61.4011
60.6267
59.951
58.8415
57.6118
56.725
82.5713
77.983
73.6146
70.9642
69.5452
68.5712
67.668
66.9425
66.1104
65.2909
64.6565
63.6915
63.0082
62.3991
61.4356
60.686
59.9953
58.9194
57.7871
57.0852
82.1412
78.0461
73.8096
71.0587
69.541
68.5692
67.6876
66.9637
66.1419
65.3118
64.6622
63.7175
63.0185
62.4197
61.4728
60.7411
60.0511
59.0073
57.9725
57.419
81.7659
78.0832
73.985
71.1557
69.5347
68.5631
67.7047
66.9823
66.1719
65.3328
64.6671
63.7423
63.0307
62.4396
61.5142
60.7919
60.1152
59.1095
58.1487
57.7418
81.4434
78.1044
74.1388
71.2483
69.5284
68.5528
67.7193
66.9979
66.1988
65.3526
64.6717
63.7659
63.0438
62.4598
61.5556
60.8441
60.1817
59.2257
58.3278
58.0445
81.1722
78.117
74.2689
71.3322
69.5235
68.5404
67.7326
67.0102
66.223
65.3709
64.6753
63.7893
63.0562
62.4802
61.5982
60.8973
60.2533
59.3453
58.5274
58.3146
80.9485
78.1241
74.3762
71.4045
69.5219
68.527
67.7446
67.0201
66.2446
65.3877
64.6775
63.8128
63.0685
62.4997
61.6446
60.9484
60.3329
59.4606
58.7456
58.5885
80.7714
78.1271
74.4609
71.4641
69.5229
68.5135
67.7558
67.0271
66.2641
65.4033
64.6789
63.8362
63.0818
62.5166
61.694
61.0006
60.4128
59.5842
58.9415
58.8947
80.6389
78.1285
74.5228
71.5097
69.5251
68.5017
67.7659
67.031
66.2799
65.4193
64.6797
63.8593
63.0954
62.5352
61.7417
61.0556
60.4889
59.7196
59.0955
59.0781
80.5512
78.1291
74.5633
71.5407
69.53
68.4914
67.7753
67.0318
66.2905
65.4353
64.6795
63.8828
63.1085
62.5644
61.7887
61.1125
60.5651
59.8586
59.239
59.311
80.5067
78.1295
74.5834
71.557
69.5325
68.4844
67.7846
67.0302
66.297
65.4486
64.6794
63.9038
63.1243
62.5816
61.8415
61.1703
60.644
59.9929
59.4169
59.5541
80.5046
78.1305
74.5838
71.5575
69.5342
68.4818
67.7934
67.0265
66.2993
65.4599
64.6785
63.9235
63.1403
62.5994
61.8978
61.2247
60.7294
60.1199
59.6288
59.8066
80.5464
78.132
74.5647
71.5412
69.5348
68.4827
67.8013
67.0211
66.2969
65.47
64.6766
63.9445
63.1561
62.6192
61.9514
61.2817
60.8137
60.2507
59.83
60.0882
80.6313
78.1335
74.5252
71.5098
69.534
68.4874
67.8076
67.0138
66.2907
65.4779
64.6754
63.9633
63.1735
62.6397
62.0033
61.3445
60.8921
60.3922
59.9951
60.2706
80.7616
78.1333
74.4651
71.4631
69.5336
68.4951
67.812
67.0052
66.2796
65.484
64.6743
63.9807
63.1924
62.6595
62.0564
61.4083
60.971
60.5364
60.1468
60.4968
80.9371
78.1309
74.3829
71.4029
69.5344
68.5047
67.8149
66.9946
66.2659
65.4876
64.6741
63.9949
63.2134
62.6777
62.1107
61.4718
61.0535
60.6791
60.3101
60.7661
81.1596
78.1245
74.2783
71.3301
69.5359
68.5166
67.8143
66.9828
66.2488
65.4879
64.675
64.0074
63.2348
62.6963
62.1642
61.5367
61.1387
60.8211
60.4872
61.024
81.4309
78.1112
74.1516
71.2446
69.5392
68.5289
67.8103
66.9706
66.2286
65.4853
64.677
64.0176
63.256
62.7167
62.2158
61.6029
61.2272
60.9648
60.6749
61.2562
81.7527
78.0862
74.003
71.1507
69.5436
68.5405
67.8031
66.9563
66.2076
65.4789
64.6796
64.0256
63.2774
62.7376
62.2663
61.6699
61.3187
61.1115
60.8702
61.4648
82.1286
78.0415
73.8335
71.0551
69.5469
68.5502
67.7905
66.9415
66.1854
65.4689
64.6833
64.0311
63.2988
62.7592
62.3156
61.7376
61.4125
61.2621
61.0764
61.6487
82.561
77.9708
73.6435
70.9625
69.548
68.5562
67.7722
66.9263
66.1624
65.455
64.6884
64.0332
63.3203
62.7814
62.3633
61.8048
61.5084
61.4164
61.2929
61.8131
83.0523
77.8687
73.4334
70.875
69.5449
68.5581
67.7477
66.909
66.1405
65.4374
64.6934
64.0339
63.3399
62.8046
62.4099
61.8701
61.6059
61.5714
61.5183
61.9748
83.6052
77.7321
73.2033
70.7936
69.5359
68.5553
67.7178
66.8891
66.1201
65.4162
64.6975
64.0343
63.3558
62.8288
62.4541
61.9325
61.7028
61.7213
61.747
62.1345
84.2204
77.5594
72.9546
70.7183
69.5191
68.5448
67.6845
66.8663
66.1007
65.3934
64.7001
64.034
63.3694
62.8521
62.4944
61.9908
61.7933
61.8573
61.954
62.2949
84.8964
77.3491
72.6901
70.6472
69.4932
68.5246
67.6497
66.8414
66.0822
65.3715
64.7004
64.0337
63.381
62.873
62.5284
62.0423
61.8704
61.9723
62.1168
62.4059
85.6274
77.0972
72.417
70.5741
69.4574
68.495
67.6157
66.817
66.0652
65.3521
64.6993
64.0336
63.391
62.8904
62.555
62.0841
61.9321
62.0594
62.2362
62.5223
86.4033
76.8011
72.1412
70.496
69.4126
68.4609
67.5859
66.7967
66.0517
65.3383
64.6987
64.0342
63.3996
62.9039
62.5737
62.1152
61.9772
62.1178
62.3162
62.6097
87.2273
76.4635
71.8777
70.4173
69.3688
68.4335
67.5659
66.784
66.0438
65.3309
64.6989
64.0354
63.4064
62.9133
62.5847
62.1356
62.0063
62.1512
62.3625
62.6712
88.2059
76.1206
71.6578
70.3537
69.3389
68.419
67.5567
66.7784
66.0408
65.3285
64.6995
64.0364
63.4109
62.9188
62.5891
62.1466
62.0221
62.1655
62.3836
62.7126
89.6218
75.8642
71.5141
70.3157
69.3251
68.4149
67.5542
66.7768
66.04
65.3281
64.6999
64.0365
63.4128
62.9212
62.5889
62.1501
62.0281
62.1672
62.3877
62.7387
91.5315
75.8145
71.4735
70.3053
69.322
68.4147
67.5535
66.7766
66.0397
65.3282
64.7
64.0359
63.4131
62.9217
62.5874
62.1494
62.0292
62.1641
62.3837
62.7542
56.4133
58.2024
57.87
51.6937
42.8669
32.7285
22.467
15.8777
12.4485
9.68445
9.37838
12.6991
18.9344
26.8537
36.221
46.8434
56.7376
64.5715
70.9469
75.902
79.993
83.7161
87.2165
90.0187
92.6344
94.9173
97.5275
99.3382
97.5412
90.9563
80.1748
69.6205
60.8192
52.8249
47.7399
43.0815
36.0195
31.212
28.3984
25.2685
23.963
25.8611
28.8184
31.9856
35.5866
39.7286
44.7155
49.9379
54.4136
58.2817
61.6585
63.4926
64.1466
63.9251
62.2562
59.7151
56.38
52.0476
46.7356
40.658
32.6474
23.2885
14.2204
6.39233
-0.493239
-5.87535
-8.43981
-9.37374
-8.54197
-4.55356
0.437543
5.34772
11.2525
17.5616
24.3941
32.2426
39.6075
45.6388
50.889
55.7335
59.7267
62.9146
65.8802
68.1887
70.0298
71.8939
73.1743
74.2051
75.2101
75.7992
76.1303
76.5378
76.575
76.293
76.133
75.7579
75.2073
74.3939
73.3682
71.9163
70.158
68.0589
65.7724
63.2386
60.8381
59.3292
58.4774
58.2902
58.5814
59.4207
60.0126
59.9918
60.8256
61.6722
62.2282
63.0908
63.8875
64.6751
65.2212
65.8418
66.3734
65.8925
64.9094
63.5733
60.6849
56.1152
50.6957
44.9405
39.039
33.1589
26.9165
19.9783
12.9038
6.74994
2.34671
-0.120614
-0.417556
1.28864
4.2441
7.83879
11.6468
15.6362
20.554
26.6504
33.5051
40.5058
47.1233
53.0515
57.9938
62.0156
65.5249
68.4414
70.6901
71.946
72.6015
72.5827
71.7112
70.3885
67.9008
64.703
61.1309
56.4414
51.8609
47.543
43.5494
39.9771
37.2431
35.7852
35.6842
36.149
37.8257
39.9786
41.9807
44.9267
48.0106
49.2057
49.8824
49.8583
48.7483
46.2838
44.4725
43.7632
44.4214
46.1202
49.085
53.7579
60.5592
67.8271
73.5209
77.5256
80.2129
81.8763
82.7794
82.8813
82.3545
80.9249
78.624
73.5513
67.4244
36.9158
56.0609
57.4662
57.5958
52.2866
44.4573
35.3208
25.5439
18.9138
15.7589
13.1147
12.401
15.7127
22.3869
30.5521
39.3542
48.9156
57.9257
65.3587
71.4046
76.2685
80.2574
84.0269
87.5021
90.0919
92.7463
94.8401
97.0247
98.6495
97.2391
91.6615
82.4053
72.5382
63.7823
55.6087
50.4168
45.5949
38.4766
33.5993
30.73
27.6482
26.7722
28.7078
31.8052
35.1972
38.8954
42.9657
47.8169
52.7978
57.0882
60.7986
63.9006
65.4361
65.7421
65.2764
63.3816
60.5726
56.9805
52.3571
46.6492
40.1378
31.6429
21.823
12.4105
4.33326
-2.7928
-8.30547
-10.8994
-11.917
-11.0886
-6.95187
-1.6077
3.81716
9.94497
16.2667
23.2948
31.3208
38.8495
45.1736
50.6331
55.7024
59.8406
63.0722
66.1307
68.4288
70.2748
72.1706
73.4456
74.5191
75.5067
76.0739
76.4497
76.8417
76.8869
76.6861
76.5343
76.1011
75.5143
74.8023
73.8763
72.4835
70.8605
68.9237
66.8914
64.6816
62.5204
61.0053
60.267
60.2499
60.4603
61.0356
61.4442
61.3252
62.0089
62.8371
63.4545
64.1814
64.8776
65.7244
66.2469
66.8043
67.2841
66.6862
65.6067
64.0962
60.9439
56.0726
50.4652
44.5489
38.5515
32.5848
26.172
18.9654
11.6085
5.24076
0.783878
-1.71034
-2.00952
-0.210334
2.94
6.78745
10.8072
14.9827
20.0342
26.1391
32.9543
39.8992
46.5455
52.4914
57.4916
61.5462
65.1365
68.0947
70.3593
71.6342
72.3603
72.3715
71.5901
70.4563
68.1075
65.2221
61.9686
57.4952
53.1765
48.9691
45.307
41.7935
39.0977
37.489
37.2816
37.5279
39.0134
40.9201
42.6191
45.2027
48.142
49.2647
49.8924
49.7956
48.8072
46.4399
44.8242
44.0407
44.5108
45.8671
48.4583
52.5823
59.3028
66.7614
72.678
76.6067
79.2846
80.7847
81.497
81.2851
80.4999
78.4888
76.0351
69.0535
62.2444
27.9546
55.7864
56.7462
56.9186
52.5131
45.4652
37.1975
27.9587
21.151
18.3614
16.308
15.7814
19.1585
25.8994
34.0625
42.2631
50.8564
59.0378
66.0483
71.7562
76.4167
80.3825
84.1291
87.5531
90.0485
92.5382
94.5375
96.3496
97.5214
96.4269
91.8739
84.4268
75.4278
66.697
58.5086
53.2523
48.3334
41.3647
36.4446
33.5409
30.8168
30.1804
31.974
35.0592
38.6009
42.3584
46.3305
50.9722
55.6515
59.7432
63.3066
66.1513
67.3726
67.3579
66.6516
64.5223
61.4355
57.6402
52.7242
46.6839
39.7384
30.8225
20.5906
10.8743
2.50385
-4.82263
-10.4448
-13.1229
-14.1958
-13.3143
-9.11064
-3.51461
2.39613
8.79014
15.2015
22.3959
30.5018
38.2061
44.8193
50.4672
55.7728
60.0266
63.3082
66.4484
68.7177
70.5908
72.4866
73.7574
74.8807
75.8278
76.3796
76.8155
77.1837
77.2294
77.1113
76.978
76.5052
75.8768
75.2506
74.4255
73.0444
71.5254
69.7571
67.9284
66.0192
64.0502
62.4888
61.8915
61.978
62.0256
62.3405
62.5935
62.4688
63.0977
63.9269
64.6435
65.2695
65.88
66.7818
67.2959
67.793
68.2049
67.5541
66.3529
64.6364
61.2187
56.1623
50.3661
44.3492
38.2795
32.2125
25.6297
18.1591
10.591
4.13111
-0.416633
-2.88615
-3.1642
-1.36933
1.87938
5.89999
10.1053
14.4517
19.6135
25.7369
32.5661
39.4603
46.1031
52.0481
57.1016
61.1787
64.8436
67.843
70.1385
71.4577
72.2046
72.2884
71.5566
70.6192
68.3939
65.7901
62.8317
58.5734
54.4977
50.4498
47.1456
43.6389
41.0171
39.2575
38.9279
38.9806
40.2332
41.8584
43.3266
45.5108
48.2715
49.3196
49.892
49.7107
48.9009
46.6309
45.2244
44.3997
44.9043
45.8911
48.1138
51.5693
58.0705
65.5431
71.6696
75.4959
78.1069
79.4466
79.9869
79.3916
78.4818
75.7317
73.3402
64.3532
56.77
25.0491
55.5731
56.1037
56.3427
52.5439
45.8784
38.406
29.8549
23.1677
20.7067
19.5911
19.5626
22.9148
29.4482
37.304
44.906
52.5654
60.0687
66.6632
72.0854
76.4912
80.3576
84.0604
87.3796
89.8243
92.0619
94.0787
95.5029
96.3022
95.3159
91.6493
86.1091
78.0913
69.4892
61.5152
56.1221
51.1794
44.6085
39.6958
36.805
34.4946
34.0988
35.6796
38.6153
42.1511
45.896
49.7757
54.1438
58.4557
62.3294
65.7679
68.3887
69.2948
68.9583
68.0075
65.6554
62.2906
58.32
53.127
46.8286
39.4889
30.1787
19.611
9.67031
1.02016
-6.53078
-12.2536
-15.0649
-16.1847
-15.2102
-10.9948
-5.24336
1.10244
7.79763
14.3453
21.6669
29.8183
37.7218
44.5597
50.3845
55.9357
60.271
63.6401
66.8318
69.0576
70.9704
72.8234
74.1048
75.286
76.178
76.7226
77.2251
77.5523
77.5755
77.5379
77.4379
76.9545
76.2984
75.7309
75.0003
73.612
72.1646
70.532
68.8753
67.2442
65.392
63.7997
63.362
63.4621
63.248
63.3541
63.5549
63.4918
64.1243
64.994
65.7988
66.3675
66.9137
67.862
68.3596
68.8245
69.1502
68.4722
67.1831
65.214
61.5404
56.3648
50.4231
44.3435
38.2167
32.049
25.3058
17.6411
9.84011
3.3548
-1.14831
-3.64529
-3.92025
-2.13304
1.10814
5.20924
9.56019
14.1169
19.455
25.5991
32.4047
39.1841
45.8033
51.7618
56.8236
60.9423
64.6588
67.7183
70.0408
71.4021
72.1772
72.3106
71.6285
70.8734
68.7456
66.3929
63.7338
59.6636
55.9041
52.0368
48.9921
45.471
42.9493
41.0726
40.5884
40.4903
41.4781
42.747
44.0501
45.8364
48.4085
49.352
49.8848
49.6
49.0036
46.7971
45.6716
44.7215
45.316
46.1032
48.0661
50.8094
56.9991
64.2041
70.4351
74.1689
76.718
77.7896
78.2812
77.2559
76.2298
72.6556
70.5157
59.8345
51.1193
24.7135
55.5539
55.6461
55.6528
52.4791
46.2958
39.5146
31.9599
25.4706
23.2363
22.9873
23.6253
26.8863
32.9319
40.2296
47.1931
54.1135
60.9311
67.1916
72.3828
76.5679
80.254
83.8344
87.0658
89.4048
91.4517
93.4543
94.5825
95.1508
94.0329
91.1154
87.1684
80.1073
72.0162
64.5047
58.9698
54.1376
48.1064
43.2481
40.4109
38.9252
38.4202
39.7277
42.3918
45.8045
49.4573
53.1833
57.2278
61.1845
64.8515
68.1505
70.5549
71.187
70.5345
69.3309
66.7612
63.143
58.9805
53.5466
47.0451
39.3705
29.702
18.8882
8.78229
-0.0502615
-7.81593
-13.6801
-16.673
-17.8278
-16.7568
-12.5996
-6.77472
-0.0400968
6.96514
13.6763
21.1052
29.2896
37.3816
44.3737
50.3991
56.1683
60.5663
64.0625
67.2528
69.4428
71.4017
73.183
74.4853
75.7248
76.5504
77.1057
77.6696
77.9354
77.9269
77.9643
77.8792
77.4197
76.7764
76.2478
75.5877
74.2142
72.8096
71.2488
69.7546
68.3508
66.5375
64.9677
64.6634
64.7211
64.2045
64.1581
64.4096
64.4863
65.129
66.0759
66.9437
67.4794
67.9868
68.962
69.4396
69.8802
70.1502
69.4113
68.0931
65.8453
61.9552
56.6349
50.6557
44.5099
38.3515
32.075
25.2066
17.4112
9.4779
2.91243
-1.47355
-3.90721
-4.25572
-2.56129
0.612678
4.74193
9.17093
13.8967
19.401
25.6082
32.3846
39.0933
45.6473
51.604
56.6605
60.8217
64.5593
67.7131
70.0422
71.4249
72.2613
72.4084
71.8286
71.1742
69.1961
67.0481
64.6448
60.7766
57.3735
53.6394
50.7672
47.2873
44.8976
42.9527
42.2616
42.0301
42.7089
43.5679
44.7267
46.1893
48.5505
49.3226
49.8047
49.4682
49.1188
46.8803
46.1343
45.0507
45.5941
46.2243
48.101
50.1877
56.1247
62.8581
68.9233
72.5666
75.0631
75.8744
76.2451
74.8123
73.9169
69.2842
67.403
55.7729
45.405
24.18
55.7005
55.4946
55.0305
52.2822
46.7875
40.6582
34.1
28.1217
26.0445
26.4641
27.7151
30.8139
36.1476
42.7418
49.0967
55.4199
61.6929
67.5363
72.5593
76.5703
80.134
83.5237
86.6127
88.8391
90.7592
92.6791
93.6802
94.0096
92.7076
90.2911
87.27
81.1888
74.1121
67.3146
61.7063
57.0698
51.6699
46.9344
44.1646
43.0949
42.8596
43.9701
46.3179
49.4736
52.9367
56.4802
60.1751
63.7736
67.2496
70.4383
72.6597
73.0229
72.0642
70.6025
67.8165
63.9764
59.5997
53.9905
47.2985
39.3475
29.4042
18.415
8.1338
-0.790498
-8.65563
-14.6858
-17.9041
-19.0946
-17.9493
-13.9233
-8.06997
-0.992242
6.29242
13.1833
20.7223
28.9501
37.1851
44.2506
50.5071
56.4538
60.9214
64.5624
67.7029
69.8777
71.8713
73.5675
74.8935
76.1879
76.9429
77.5196
78.1354
78.3275
78.3026
78.4011
78.2967
77.8824
77.3066
76.7996
76.1676
74.8741
73.4946
71.9427
70.5863
69.3397
67.5247
66.0326
65.8179
65.5777
64.9898
64.8882
65.233
65.4893
66.1707
67.1799
68.0882
68.6047
69.0925
70.0651
70.5288
70.935
71.1975
70.4036
69.0065
66.5418
62.4587
56.9994
51.0154
44.8327
38.6629
32.3113
25.3447
17.4647
9.46864
2.91948
-1.42872
-3.78583
-4.1055
-2.56477
0.460401
4.51385
8.99067
13.9009
19.5388
25.8235
32.5215
39.1634
45.632
51.5898
56.6099
60.8327
64.6142
67.8008
70.1283
71.548
72.4567
72.561
72.1547
71.5048
69.714
67.7128
65.5465
61.8659
58.7984
55.2189
52.4821
49.1178
46.8457
44.8921
43.955
43.5381
43.8956
44.4038
45.3779
46.5476
48.6236
49.2375
49.6201
49.2982
49.2346
46.94
46.4847
45.3398
45.7372
46.1153
47.9607
49.3792
55.1111
61.4242
67.1353
70.599
73.0998
73.9638
74.0325
72.0379
71.2828
65.8034
63.7507
52.0229
39.9024
22.8786
55.7059
55.5112
54.5631
52.0555
47.3735
41.8828
36.2965
30.9921
29.052
29.8407
31.4222
34.2979
38.9144
44.8116
50.6428
56.4846
62.3212
67.7485
72.5859
76.4364
79.8907
83.1786
86.058
88.1687
89.9705
91.7525
92.7251
92.8127
91.4334
89.1115
86.3533
81.3735
75.7092
69.7151
64.1827
59.8902
55.1199
50.5694
47.9059
47.1522
47.2591
48.2629
50.2467
53.0585
56.2742
59.5818
62.9181
66.1931
69.5196
72.6088
74.6688
74.7809
73.5255
71.7972
68.8337
64.7861
60.1878
54.4663
47.5827
39.3997
29.3009
18.2108
7.69137
-1.32328
-9.20402
-15.3133
-18.7492
-19.98
-18.8082
-14.9673
-9.10628
-1.74627
5.76375
12.8584
20.5244
28.7955
37.0948
44.2096
50.7205
56.7701
61.3262
65.107
68.1674
70.3581
72.3709
73.9809
75.3314
76.6711
77.3607
77.9595
78.6215
78.7349
78.7228
78.8585
78.7082
78.331
77.8641
77.3551
76.7188
75.6105
74.2679
72.6513
71.3833
70.2418
68.4293
67.0529
66.9023
66.4923
65.7053
65.6333
66.1041
66.5171
67.2679
68.3151
69.235
69.7291
70.21
71.167
71.6033
71.9825
72.2657
71.4751
69.8763
67.2579
63.0127
57.5016
51.4593
45.3101
39.0983
32.7386
25.6944
17.7565
9.75739
3.28776
-0.99283
-3.27206
-3.61395
-2.22058
0.635461
4.54803
9.01993
14.1125
19.8488
26.2276
32.7834
39.3979
45.7569
51.7045
56.7298
60.9436
64.7915
68.0225
70.3283
71.7719
72.7266
72.7731
72.5645
71.8654
70.2842
68.3755
66.4552
62.9385
60.1272
56.8089
54.1528
50.9241
48.7346
46.8037
45.6297
44.9954
45.052
45.3294
46.1038
46.9131
48.5871
49.0953
49.4397
49.1527
49.2603
47.0037
46.7064
45.6
45.7942
45.8919
47.5974
48.2365
53.4877
59.511
64.9163
68.0673
70.6465
71.0718
71.375
68.9789
68.2612
62.2344
59.4121
48.4526
34.8506
21.3077
56.0186
55.7851
54.254
51.6171
47.7162
43.022
38.3819
33.8277
32.0059
32.9222
34.5866
37.2473
41.2268
46.605
51.978
57.4394
62.8776
67.8711
72.5249
76.2585
79.5437
82.7404
85.4445
87.4445
89.1112
90.6832
91.562
91.5171
90.1226
87.7571
85.0418
81.0753
76.7043
71.4987
66.3768
62.524
58.2401
53.9465
51.5217
51.0945
51.4588
52.3944
54.0484
56.4738
59.3895
62.4187
65.4265
68.4224
71.6163
74.6477
76.5759
76.476
74.9205
72.9014
69.7864
65.5581
60.7797
54.9701
47.9331
39.5575
29.397
18.2616
7.53228
-1.61725
-9.57628
-15.6546
-19.2471
-20.5097
-19.3687
-15.7325
-9.85931
-2.29645
5.38993
12.7189
20.5167
28.83
37.1152
44.2738
51.0136
57.1029
61.7818
65.6684
68.6424
70.8743
72.8846
74.4123
75.7886
77.1586
77.7973
78.4213
79.1195
79.1602
79.18
79.342
79.1361
78.7633
78.4057
77.8711
77.2411
76.44
75.1286
73.3711
72.1683
71.1107
69.2995
68.0402
67.9217
67.3222
66.4404
66.4498
67.0496
67.5963
68.429
69.4826
70.3817
70.8496
71.3155
72.2605
72.6494
73.0145
73.3419
72.5779
70.7443
67.9336
63.5951
58.1096
52.0256
45.9232
39.6868
33.2751
26.2413
18.2625
10.2955
3.93183
-0.25695
-2.41933
-2.77607
-1.50928
1.13452
4.87858
9.29608
14.4793
20.2708
26.7577
33.1587
39.75
46.0337
51.945
56.9431
61.1871
65.0336
68.391
70.5829
72.0892
73.0893
73.0958
73.0417
72.2301
70.8708
69.0361
67.3005
63.9471
61.4248
58.379
55.7211
52.6367
50.5196
48.6201
47.2479
46.4236
46.2209
46.3313
46.8941
47.3351
48.5111
48.8859
49.332
49.0396
49.1281
47.0575
46.8094
45.9156
45.8884
45.6307
47.1124
47.0403
51.2368
56.9353
61.9616
64.8356
67.2914
67.5386
68.2504
65.2851
64.7937
58.686
54.0622
44.8756
31.1091
19.9754
56.6523
56.3437
54.0987
51.0955
47.8842
44.1287
40.3827
36.5985
34.8365
35.7149
37.3218
39.8559
43.3885
48.2673
53.2535
58.2715
63.376
67.939
72.3782
76.034
79.1718
82.2571
84.7708
86.6794
88.2513
89.6253
90.3738
90.3226
88.9471
86.6131
83.9712
80.6733
77.2435
72.782
68.2546
64.785
60.8634
56.9849
54.9062
54.7153
55.2854
56.2203
57.6011
59.649
62.2403
64.9529
67.6417
70.4407
73.5485
76.5452
78.3771
78.0728
76.2406
73.9421
70.6784
66.2973
61.396
55.5451
48.4091
39.8871
29.6811
18.5176
7.72449
-1.52029
-9.63882
-15.7375
-19.4209
-20.7222
-19.6518
-16.2001
-10.3231
-2.65568
5.1688
12.7581
20.6895
29.0235
37.2402
44.4706
51.3754
57.4528
62.2744
66.2257
69.1313
71.4157
73.4057
74.8711
76.2835
77.6559
78.26
78.9079
79.6235
79.6061
79.6618
79.8505
79.5837
79.1883
78.9005
78.3356
77.7673
77.3262
75.9816
74.0739
72.9651
71.969
70.1414
68.9966
68.8871
68.1293
67.2648
67.3874
68.0846
68.735
69.6505
70.6848
71.5095
71.9609
72.402
73.3165
73.6676
74.0222
74.4236
73.6336
71.6435
68.5815
64.2005
58.7489
52.744
46.627
40.4437
33.9663
26.9512
19.0343
11.1333
4.78144
0.719435
-1.32069
-1.67421
-0.506685
1.94565
5.52771
9.9123
15.1434
20.9838
27.4372
33.69
40.2366
46.493
52.3138
57.2454
61.6222
65.373
68.8271
70.9753
72.5037
73.5105
73.4504
73.5337
72.5956
71.4482
69.6201
68.0738
64.9132
62.6997
59.839
57.1228
54.2646
52.1823
50.3288
48.7892
47.8413
47.4332
47.3839
47.6564
47.826
48.5457
48.8312
49.3207
48.9843
48.832
47.1071
46.8669
46.1819
46.0987
45.2907
46.5016
46.1084
49.0638
54.1682
58.6101
60.9817
63.0392
62.8878
64.8205
61.0348
60.179
54.8436
48.2362
41.4368
28.8463
19.3198
57.1552
56.6613
54.0728
50.9026
48.1423
45.1793
42.1915
39.1479
37.4669
38.2107
39.7616
42.1671
45.397
49.7282
54.334
58.9409
63.7332
67.9495
72.1534
75.7277
78.7247
81.7152
84.0721
85.8888
87.3852
88.6297
89.3568
89.3437
88.0485
85.755
83.0939
80.2677
77.4874
73.6838
69.8069
66.632
63.0178
59.6144
57.8949
57.9457
58.7207
59.6575
60.8259
62.5215
64.7451
67.1558
69.5795
72.2288
75.2976
78.2724
80.0681
79.5708
77.4739
74.9094
71.5178
67.0394
62.04
56.2307
49.0648
40.427
30.1568
18.9395
8.22044
-1.00385
-9.19824
-15.4653
-19.2677
-20.6332
-19.6801
-16.378
-10.5119
-2.81548
5.13948
12.9803
21.0171
29.3571
37.4948
44.7878
51.7722
57.8382
62.8062
66.7713
69.6343
71.9749
73.9257
75.3628
76.8217
78.1546
78.743
79.4156
80.1219
80.0707
80.1631
80.374
80.0462
79.6151
79.3423
78.777
78.3165
78.1274
76.7019
74.7555
73.7822
72.796
70.9557
69.9317
69.8088
68.9675
68.2019
68.4432
69.2063
69.9283
70.902
71.9087
72.6146
73.0409
73.4697
74.3233
74.6614
74.9973
75.504
74.6345
72.5271
69.2586
64.8032
59.401
53.5656
47.4322
41.3061
34.8565
27.8431
20.0409
12.2955
5.9219
1.85549
-0.0823974
-0.374986
0.701825
3.02054
6.38396
10.7221
15.8927
21.7644
28.1242
34.3475
40.8017
47.0522
52.7667
57.7394
62.1091
65.8392
69.3541
71.533
72.9122
73.9824
73.8964
74.0398
73.0075
72.018
70.1197
68.8566
65.9018
63.8159
61.1634
58.3463
55.8211
53.724
51.9169
50.2712
49.2172
48.638
48.4451
48.3569
48.3542
48.7801
48.9289
49.3489
48.9555
48.4502
47.1308
46.9897
46.4044
46.3382
44.7469
45.5311
45.2669
47.3888
51.7267
55.5771
57.542
58.3438
57.6159
58.8426
55.8165
54.6794
50.2175
43.8956
38.8372
27.6325
19.0817
57.4536
56.8607
54.2279
51.0323
48.5157
46.0793
43.7014
41.3073
39.7686
40.3632
41.8826
44.1223
47.0503
50.9651
55.2221
59.4842
64.0075
67.9292
71.8897
75.36
78.2134
81.0783
83.3419
85.0774
86.5051
87.6714
88.3318
88.3194
87.1928
85.0388
82.4267
79.9312
77.5118
74.2603
70.9712
68.0044
64.699
61.8471
60.5358
60.7865
61.6677
62.6152
63.6238
65.0358
66.9116
69.0093
71.2264
73.7861
76.8633
79.8543
81.6052
80.9498
78.6257
75.8098
72.3028
67.7739
62.6935
56.9697
49.8623
41.1952
30.8991
19.5654
8.94185
-0.247336
-8.34429
-14.7787
-18.7705
-20.2635
-19.4618
-16.2693
-10.4324
-2.76409
5.3387
13.3979
21.4924
29.8269
37.8755
45.2187
52.2211
58.2632
63.3609
67.3021
70.161
72.5456
74.4314
75.8835
77.3824
78.6386
79.2463
79.9476
80.6054
80.5679
80.6901
80.8914
80.5008
80.0464
79.7558
79.242
78.8607
78.6922
77.2386
75.44
74.5936
73.5553
71.7589
70.8516
70.6765
69.8646
69.2731
69.602
70.3711
71.1463
72.166
73.1074
73.6943
74.0829
74.5022
75.2791
75.6301
75.9496
76.5549
75.6287
73.366
69.9848
65.4
60.0823
54.4127
48.3735
42.2541
35.9073
28.9151
21.2978
13.6834
7.35335
3.25749
1.30361
1.01032
2.04772
4.29115
7.52714
11.8361
16.8803
22.7724
28.9709
35.1659
41.4656
47.7787
53.3615
58.2757
62.7346
66.4859
69.898
72.2269
73.4465
74.5383
74.3819
74.511
73.3816
72.532
70.736
69.5705
66.844
64.8131
62.3623
59.4817
57.1951
55.1346
53.321
51.6636
50.4458
49.6884
49.4197
49.0535
48.9934
49.2126
49.1218
49.2881
48.8192
48.1251
47.2563
47.092
46.567
46.3571
43.8699
43.8844
44.1953
45.6157
49.3684
52.8027
55.0391
54.2817
53.2973
52.6307
50.7524
48.6972
45.3113
41.1189
36.9762
27.1925
19.0753
57.6796
57.0655
54.5097
51.3608
48.9874
46.8364
44.9654
43.1098
41.7358
42.2525
43.6978
45.7968
48.4585
52.0567
56.0098
59.8978
64.2017
67.8824
71.6119
74.9825
77.6718
80.3922
82.5854
84.2388
85.6112
86.7161
87.2689
87.2269
86.3357
84.416
81.9704
79.7159
77.4327
74.6218
71.7571
68.9693
66.0491
63.7607
62.8017
63.1628
64.0783
65.0852
66.0329
67.1932
68.7191
70.5248
72.6046
75.1323
78.2146
81.2711
82.9924
82.1892
79.6615
76.6389
73.0514
68.4914
63.3643
57.6964
50.7151
42.1543
31.9266
20.503
9.925
0.644704
-7.35172
-13.8102
-17.9646
-19.6294
-18.9994
-15.8838
-10.0892
-2.4728
5.76904
13.9522
22.0705
30.4312
38.381
45.7468
52.7159
58.7462
63.9471
67.8129
70.7153
73.122
74.9366
76.4469
77.958
79.1245
79.7746
80.4881
81.0736
81.11
81.2398
81.3847
80.9465
80.4987
80.1705
79.7358
79.3431
78.997
77.6525
76.1532
75.3487
74.222
72.5422
71.7259
71.4948
70.8508
70.4647
70.8227
71.5589
72.3618
73.4137
74.2453
74.7182
75.078
75.4902
76.1917
76.5555
76.8905
77.5588
76.6264
74.1972
70.7099
66.0302
60.7987
55.2385
49.4095
43.2935
37.0619
30.1714
22.7312
15.3029
9.00954
4.8607
2.85434
2.49991
3.49585
5.59735
8.77164
13.008
17.9672
23.8447
29.815
36.0845
42.2786
48.5556
54.1163
58.9173
63.4504
67.2706
70.5195
72.9632
74.0855
75.0722
74.8474
74.96
73.8192
73.0655
71.6004
70.166
67.6191
65.7964
63.3912
60.5021
58.3027
56.3521
54.4938
52.8636
51.4647
50.5764
50.2993
49.7706
49.6729
49.7995
49.3774
49.1451
48.7863
47.9574
47.5415
47.1096
46.5124
46.0641
42.8943
41.9504
42.7425
43.6507
46.5393
49.3848
51.2773
50.9785
50.2654
48.6742
47.693
44.4062
41.9957
39.4895
35.5753
27.039
19.1755
57.9309
57.2638
54.8285
51.8081
49.5485
47.5912
46.0805
44.689
43.5238
44.0068
45.2993
47.2614
49.7141
52.9799
56.6801
60.2041
64.2875
67.7712
71.2528
74.5738
77.1136
79.6972
81.8488
83.4015
84.7213
85.7875
86.2352
86.1784
85.5271
83.8456
81.6271
79.5664
77.4042
74.9278
72.359
69.6994
67.2071
65.36
64.6926
65.1434
66.0902
67.1569
68.0356
68.9595
70.1852
71.7518
73.7158
76.2596
79.3924
82.4838
84.1781
83.2619
80.5494
77.3372
73.7102
69.1605
64.0403
58.4127
51.5977
43.2391
33.176
21.7703
11.2353
1.80313
-6.25882
-12.7001
-16.9246
-18.7403
-18.2706
-15.2144
-9.4459
-1.85285
6.45704
14.6408
22.7858
31.176
38.9809
46.3813
53.2813
59.2923
64.5256
68.3079
71.3124
73.6894
75.4316
77.0199
78.5177
79.5989
80.2975
81.0064
81.5388
81.6871
81.8005
81.8451
81.3877
80.9758
80.5955
80.2181
79.7619
79.1823
78.0504
76.8376
75.9569
74.7873
73.3035
72.5344
72.2897
71.9263
71.7162
72.0457
72.753
73.5692
74.5934
75.2941
75.6661
76.0181
76.4213
77.0577
77.4355
77.8153
78.502
77.5944
75.0363
71.4064
66.7061
61.5597
56.0965
50.4496
44.4412
38.2607
31.6117
24.3264
17.1318
10.9291
6.69297
4.51045
4.06242
5.03188
7.00129
10.1793
14.2451
19.1476
24.9641
30.7565
37.1309
43.2169
49.3909
55.03
59.6788
64.1901
68.1865
71.2674
73.6657
74.8099
75.6433
75.4556
75.4297
74.3994
73.7539
72.4358
70.6291
68.2167
66.6753
64.2657
61.481
59.2403
57.3557
55.5329
53.9366
52.3774
51.4053
51.1216
50.4411
50.3018
50.4316
49.7845
49.183
49.0937
48.0456
47.8836
47.1094
46.1924
45.5734
42.4299
40.4189
41.1501
41.7429
43.5706
44.8244
46.4151
47.3743
47.3759
46.6831
46.0087
41.9438
41.1009
38.7795
34.6986
26.9729
19.3458
58.1724
57.4215
55.1621
52.3276
50.1955
48.3995
47.096
46.1166
45.1567
45.6053
46.7551
48.5419
50.8559
53.7995
57.2368
60.4371
64.2736
67.6025
70.814
74.0918
76.5016
78.9681
81.1048
82.568
83.8757
84.9024
85.2465
85.2153
84.7413
83.2916
81.3655
79.4712
77.4794
75.2649
72.8489
70.4004
68.2731
66.8106
66.3605
66.8116
67.7487
68.8223
69.6337
70.3886
71.3439
72.7145
74.6175
77.1551
80.3414
83.4879
85.1243
84.087
81.2403
77.8881
74.2554
69.7798
64.6938
59.1473
52.5211
44.4079
34.5813
23.2731
12.8071
3.34522
-4.79818
-11.3893
-15.6279
-17.5634
-17.2294
-14.2086
-8.46325
-0.912378
7.34254
15.445
23.6639
32.041
39.6748
47.1248
53.9068
59.9076
65.1106
68.8277
71.9357
74.2291
75.935
77.6138
79.0774
80.0734
80.8235
81.5069
82.0125
82.2647
82.35
82.2768
81.8369
81.4817
81.0377
80.6461
80.1543
79.3938
78.4487
77.4046
76.4099
75.299
74.0149
73.253
73.0996
73.0395
72.9435
73.2231
73.9092
74.7373
75.6632
76.2253
76.5238
76.8951
77.2952
77.8694
78.2656
78.716
79.3739
78.4829
75.8333
72.0737
67.3973
62.3629
57.0398
51.4565
45.6324
39.5294
33.1089
26.062
19.1349
13.1491
8.81056
6.3992
5.81541
6.52174
8.50089
11.6524
15.5951
20.5371
26.1883
31.9219
38.2683
44.3492
50.35
56.0233
60.5735
65.0756
69.1625
72.1002
74.4098
75.6401
76.186
76.1744
75.9223
74.9336
74.3853
72.9305
70.9645
68.7776
67.4861
65.0495
62.5282
60.141
58.1827
56.4758
54.9538
53.3092
52.175
51.8926
51.0941
50.9445
51.0328
50.2541
49.4981
49.7732
48.4457
48.1852
47.1255
45.6861
44.7288
42.6551
39.5824
39.651
39.9008
40.994
39.9191
41.4555
43.9504
44.9075
44.9462
44.1703
41.3296
41.777
38.7435
34.2678
26.9937
19.6904
58.3377
57.5557
55.5443
52.9176
50.8984
49.2184
48.0357
47.3862
46.5932
46.9884
48.0651
49.6913
51.8666
54.5078
57.6678
60.5942
64.1779
67.4295
70.3759
73.5499
75.8462
78.19
80.3521
81.7241
83.0215
84.0584
84.3345
84.3472
84.0332
82.8409
81.1512
79.4142
77.6342
75.5844
73.3232
71.1335
69.3301
68.1601
67.8004
68.1751
69.1041
70.1591
70.8964
71.5164
72.2676
73.4599
75.2936
77.8384
81.0353
84.2135
85.7753
84.5945
81.6436
78.2283
74.6226
70.3177
65.3325
59.9195
53.5295
45.6727
36.0854
24.9272
14.5271
5.15711
-2.87427
-9.67213