/*--------------------------------*- C++ -*----------------------------------*\
| =========                 |                                                 |
| \\      /  F ield         | OpenFOAM: The Open Source CFD Toolbox           |
|  \\    /   O peration     | Version:  2.4.0                                 |
|   \\  /    A nd           | Web:      www.OpenFOAM.org                      |
|    \\/     M anipulation  |                                                 |
\*---------------------------------------------------------------------------*/
FoamFile
{
    version     2.0;
    format      ascii;
    class       volScalarField;
    location    "0.109";
    object      p;
}
// * * * * * * * * * * * * * * * * * * * * * * * * * * * * * * * * * * * * * //

dimensions      [0 2 -2 0 0 0 0];

internalField   nonuniform List<scalar> 
4400
(
90.0647
69.8317
62.283
58.9337
56.5199
54.1158
51.8512
49.6453
47.0614
45.2528
88.128
69.8999
62.3204
58.9459
56.5226
54.1165
51.849
49.6504
47.0653
45.0756
86.9111
70.2192
62.4555
58.9852
56.5432
54.1259
51.8482
49.6589
47.0744
44.8845
86.1749
70.6077
62.6351
59.0436
56.5856
54.1538
51.8551
49.6707
47.0921
44.7575
85.5799
70.9641
62.8154
59.1047
56.643
54.2011
51.8738
49.6876
47.1249
44.7056
85.0667
71.2592
62.9717
59.1515
56.6953
54.2529
51.9032
49.704
47.183
44.7491
84.644
71.4946
63.0987
59.1821
56.7332
54.2975
51.932
49.7194
47.2248
44.9136
84.3205
71.6735
63.1972
59.2032
56.7527
54.3333
51.953
49.7339
47.2215
45.1258
84.1045
71.7965
63.2609
59.2163
56.7631
54.3566
51.9704
49.7386
47.2474
45.4204
83.9982
71.8604
63.2884
59.2273
56.7642
54.3679
51.9835
49.7378
47.2923
45.5622
84.0012
71.8639
63.2794
59.2381
56.7571
54.3679
51.9898
49.7391
47.3385
45.7484
84.1141
71.8053
63.2351
59.2469
56.7434
54.3543
51.9954
49.7397
47.3859
45.9467
84.3356
71.6871
63.1549
59.2531
56.7209
54.3284
51.9946
49.7419
47.4346
46.1257
84.6624
71.5119
63.0399
59.2528
56.6899
54.2885
51.9865
49.7463
47.4867
46.2667
85.0864
71.2791
62.8986
59.2365
56.6483
54.2383
51.9727
49.7492
47.5427
46.3597
85.5985
70.9872
62.7322
59.1984
56.5966
54.183
51.9546
49.75
47.5956
46.44
86.1914
70.6358
62.5455
59.1414
56.5406
54.1372
51.9389
49.7552
47.6281
46.49
86.9246
70.2521
62.3627
59.084
56.4994
54.1115
51.9329
49.762
47.6488
46.5507
88.1391
69.9352
62.2268
59.045
56.479
54.1043
51.9335
49.7658
47.6631
46.5938
90.0747
69.8672
62.1893
59.034
56.4748
54.1054
51.9354
49.7666
47.6704
46.7176
46.8171
44.9122
40.8776
37.2558
34.8949
34.2476
35.517
38.1746
43.427
50.9645
59.7082
68.2978
71.5142
70.2682
66.4812
50.2694
31.6082
19.9898
12.6373
8.88761
5.75439
5.65124
9.06357
10.9946
13.1446
19.5034
26.2186
30.6951
35.5426
41.5668
46.2615
49.8153
52.7731
55.4196
57.7033
57.7324
55.3921
52.6155
51.7855
51.423
52.5625
54.6614
57.2477
59.0147
59.331
57.3697
52.8187
46.9104
40.1747
34.0312
29.1501
25.6799
25.5858
30.5862
37.4416
45.0728
54.0585
62.4224
67.3589
70.8955
73.8422
74.4363
72.505
71.8162
75.5974
75.4725
70.6094
58.6549
49.6484
43.9592
41.8181
42.6661
45.3554
49.8284
56.6418
64.1664
69.1888
71.5211
72.4524
71.2123
70.1718
65.2067
62.6345
56.5935
55.6071
53.856
55.536
56.5982
58.6789
59.9769
62.1827
63.0233
64.811
64.609
66.2929
65.3437
66.8806
64.7426
66.6767
49.9444
46.7944
45.1011
40.6891
36.9705
34.8027
34.7647
36.699
39.6653
44.9767
52.5294
60.8137
69.3482
72.2598
71.1875
67.3119
52.0714
33.8178
22.2094
15.1059
11.8073
8.26416
7.26202
10.7118
13.432
15.4375
20.8111
27.1443
31.776
36.0441
41.4161
46.0982
49.9092
52.9431
55.4369
57.2992
56.6866
53.1336
49.421
47.8167
46.8689
47.9086
50.0592
53.3085
55.9815
57.3059
56.4319
53.2665
48.5633
42.8965
37.5057
33.4174
30.4151
30.2213
34.5033
40.8686
47.7226
55.3964
63.218
67.8189
70.6851
73.9148
74.9555
73.0058
71.9395
74.9356
74.4039
68.2669
55.6257
46.6059
40.4296
38.4915
39.3248
42.0737
46.9327
54.3647
62.5901
68.3203
70.6209
72.3389
70.6318
70.2695
64.8818
62.7867
56.7478
55.5841
54.199
55.5723
56.5401
58.3493
59.3268
61.4288
61.8544
63.9035
63.2993
64.791
63.4478
65.8957
61.7561
62.1168
44.7618
46.8105
45.2712
40.6518
37.0097
35.1386
35.5916
38.0591
41.2585
46.4799
53.7633
61.1939
69.123
72.0705
70.8935
66.6269
53.0702
36.054
24.3339
17.2477
14.4312
11.1924
9.49237
12.6333
16.0933
18.2287
22.5235
28.0477
32.6489
36.5271
41.263
45.9394
49.9942
53.2687
55.8023
57.2657
55.883
51.0714
46.4583
43.8863
42.4196
43.3864
45.7041
49.5074
53.0154
55.5278
55.7892
54.0987
50.6761
45.9844
41.4473
38.0298
35.5316
35.2952
38.7652
44.4107
50.5093
56.8501
63.8965
68.1801
70.5634
73.9023
75.5398
73.8297
72.7463
74.2668
73.4559
65.708
52.6665
43.897
37.2478
35.7007
36.417
39.3227
44.485
52.5599
61.2646
67.8353
69.861
72.471
70.1942
70.6092
65.0125
63.0078
57.4422
55.7868
54.767
55.7637
56.6343
58.1293
58.8514
60.5231
60.645
62.4313
61.3942
63.4414
61.0997
63.3283
57.9674
56.0827
42.5018
46.7464
45.3875
40.8189
37.5321
35.9276
36.7016
39.4711
42.7967
47.788
54.4983
61.0746
67.903
70.9336
69.6201
65.0162
53.282
38.1333
26.4735
19.302
17.0551
14.6395
12.6966
15.1222
18.8503
21.2385
24.5418
29.0301
33.2988
36.8726
41.05
45.6702
50.0275
53.6948
56.4325
57.6233
55.3501
49.1178
43.6092
40.0294
38.1378
39.0035
41.6057
45.9253
50.3354
54.0705
55.5509
55.1648
53.2069
49.4214
45.6844
42.8327
40.7935
40.6078
43.2498
48.0036
53.3581
58.4009
64.4368
68.3643
70.4579
73.7198
75.9718
74.4984
74.2118
74.4631
73.3468
63.3816
50.0119
41.643
34.5452
33.5732
33.8794
37.1515
42.4594
51.3797
60.1313
67.8459
69.2207
72.7968
70.1125
71.0438
65.5851
63.3259
58.4903
56.306
55.4538
56.0166
56.762
57.923
58.3819
59.7384
59.5855
60.9848
59.8592
61.3843
58.4328
59.1889
53.3347
50.104
40.2662
46.6718
45.4326
41.211
38.3998
36.9879
37.9983
40.868
44.0753
48.8668
54.7267
60.5109
66.1134
69.0211
67.9306
63.0785
52.9945
40.2125
29.33
21.9984
19.8404
18.4649
16.8643
18.3568
21.6117
24.1211
26.6574
30.0192
33.7467
37.0559
40.7855
45.3065
49.9957
54.1915
57.341
58.3433
55.0818
47.3385
40.8444
36.3033
34.0628
34.7881
37.8294
42.6647
48.0742
52.9339
55.7027
56.5059
56.0747
53.2385
50.145
47.8395
46.2003
46.0252
47.8578
51.6399
56.2038
59.9865
64.8758
68.4335
70.3269
73.4087
76.0786
74.8185
75.6274
75.3077
73.6817
61.335
47.5763
39.6668
32.2441
32.098
31.6404
35.665
40.7258
50.9132
59.1707
68.3237
68.8044
73.3889
70.4927
71.4664
66.5216
63.835
59.6992
57.1729
56.203
56.2915
56.8113
57.6145
57.8323
58.8298
58.6528
59.5189
58.2699
58.7367
56.0033
54.9793
50.1045
45.0824
37.8044
46.6222
45.4601
41.6675
39.5351
38.2147
39.2163
42.1768
45.05
49.568
54.5635
59.5256
64.1834
66.6323
65.9731
61.4027
52.6755
42.3219
32.8458
25.572
23.0572
22.3737
21.4778
22.1774
24.4516
26.6876
28.7026
31.0528
34.0463
37.0055
40.3442
44.7996
49.9217
54.7349
58.4351
59.33
54.9698
45.7892
38.2944
32.9496
30.274
30.8459
34.3729
39.7958
46.3276
52.0713
56.1154
58.1563
59.12
57.3251
54.8434
53.1106
51.6553
51.4091
52.5067
55.2558
58.9198
61.5266
65.2849
68.4785
70.1032
72.9827
75.8843
75.1165
76.5308
76.37
73.8219
59.7596
45.7641
37.8503
30.3356
31.0146
29.5262
34.9635
39.0903
51.2861
58.3713
69.181
68.8907
74.1517
71.3109
71.8541
67.6108
64.5281
60.9438
58.2904
57.0528
56.6925
56.9106
57.2572
57.2616
57.7516
57.4831
57.6127
56.5905
55.8755
54.1114
51.885
48.4838
41.881
36.456
46.4806
45.5401
42.0684
40.6041
39.5857
40.3206
43.3179
45.7961
49.881
54.2015
58.2778
62.3441
64.2652
63.891
60.0864
52.6825
44.273
36.4364
29.8432
26.7992
26.2158
25.9806
26.1981
27.3513
28.974
30.5634
32.081
34.2256
36.7075
39.6916
44.1034
49.6354
55.1221
59.4937
60.3815
54.9066
44.4832
36.0527
30.1117
27.0001
27.3961
31.2797
37.3847
44.9989
51.5087
56.8022
60.1797
62.2318
61.5397
59.7692
58.4723
57.0474
56.6594
57.0499
58.7451
61.4258
62.9002
65.7036
68.5415
69.723
72.4567
75.4909
75.4315
77.0109
77.4158
73.7801
58.8688
45.3456
36.2519
28.9035
30.2034
27.5682
34.929
37.4416
52.5719
57.7119
70.4028
69.6875
74.8874
72.4326
72.2497
68.6576
65.3722
62.1561
59.3582
57.9258
57.1786
57.0375
56.8975
56.7866
56.6717
56.5021
56.0413
55.4467
53.9851
52.9851
49.963
47.0763
40.2118
36.5987
47.3791
45.8624
42.4313
41.4646
40.9296
41.3465
44.2957
46.472
49.9746
53.8371
57.0433
60.6588
62.3368
61.9066
59.0872
53.0683
46.0089
39.6626
34.2815
30.9034
29.9329
29.9669
29.9926
30.2591
31.1331
32.2434
33.0864
34.3287
36.1601
38.7749
43.1591
49.0561
55.2673
60.3722
61.2875
54.8144
43.3845
34.1837
27.7563
24.2978
24.4861
28.547
35.4939
43.9959
51.2635
57.7154
62.4587
65.3504
65.7681
64.696
63.742
62.468
61.6788
61.413
62.0093
63.6732
64.095
66.0164
68.5868
69.2984
71.6389
75.0191
75.6452
77.3617
77.9097
73.8885
58.9815
46.4505
35.1435
28.1941
29.5316
25.9267
35.4892
35.8283
54.6008
57.3399
71.9728
71.1732
75.46
73.5619
72.703
69.5767
66.2963
63.2482
60.3641
58.7496
57.6929
57.2612
56.6588
56.4445
56.0393
55.8181
55.1656
54.8198
52.9613
52.2274
48.7965
47.126
40.1871
37.0674
47.5557
46.1868
42.8446
42.1934
42.1211
42.27
45.0811
47.0863
49.9924
53.5728
56.0204
59.1948
60.8673
60.2193
58.2348
53.6471
47.5665
42.4072
38.3449
35.04
33.4756
33.4206
33.4054
33.145
33.3214
33.8129
34.0216
34.3803
35.4322
37.6909
42.041
48.1973
55.0741
60.8553
61.7668
54.5502
42.3972
32.7329
25.9284
22.2211
22.1577
26.4251
34.2973
43.288
51.3815
58.8499
64.8934
68.4836
69.8333
69.3901
68.7688
67.4597
66.3505
65.493
65.003
65.5271
65.0931
66.2826
68.5262
68.9348
70.9848
74.547
75.7718
77.5455
77.5512
73.8436
59.6924
48.0515
34.5129
28.3284
29.0465
24.7861
36.4619
34.3848
57.1479
57.6198
73.7134
73.0596
75.8427
74.4068
73.1928
70.3738
67.2348
64.2557
61.4307
59.6665
58.2741
57.6072
56.6203
56.2603
55.7334
55.489
54.5604
54.5052
52.3143
52.1617
48.2738
47.8021
40.6539
37.072
47.5961
46.5043
43.3578
42.8393
43.1523
43.1011
45.6682
47.5908
49.9431
53.3234
55.2298
57.9137
59.6732
58.8922
57.4539
54.2206
49.0514
44.748
41.8061
38.8494
36.8251
36.545
36.5621
36.0075
35.5368
35.3405
34.886
34.4372
34.6955
36.5619
40.7888
47.0859
54.482
60.7786
61.5744
54.0222
41.5772
31.7418
24.7438
20.928
20.5079
25.1491
33.822
42.9414
51.9044
60.2262
67.3989
71.5672
73.6418
73.7506
73.4172
72.0552
70.5579
69.0688
67.6542
67.1014
65.8977
66.4697
68.3416
68.7045
70.5307
74.1451
75.7727
77.2956
76.7189
73.4139
60.5505
49.2767
34.289
29.4552
28.8688
24.497
37.7198
33.6091
60.0865
58.8656
75.1452
74.8648
76.1868
74.9808
73.7464
71.1913
68.2259
65.3595
62.6041
60.7058
58.9171
58.1149
56.777
56.25
55.698
55.4819
54.2672
54.6678
52.0833
52.5071
48.2043
47.9563
40.9635
36.5993
47.5497
46.7244
43.9031
43.4336
44.0099
43.8442
46.0775
47.9856
49.8569
52.9916
54.6051
56.7424
58.602
57.9044
56.7726
54.7051
50.5047
46.8298
44.6054
42.1482
40.1106
39.6022
39.4984
38.7284
37.7006
36.8361
35.7097
34.5103
34.0981
35.5497
39.5129
45.833
53.4921
59.955
60.6101
53.3015
41.0764
31.3727
24.2512
20.4284
19.6174
24.8558
33.9268
42.8731
52.8089
61.8796
69.799
74.5174
77.1515
77.7041
77.5585
76.112
74.2135
72.1256
69.8907
68.3888
66.5923
66.6354
68.092
68.6275
70.3198
73.7336
75.6107
76.744
76.0138
72.9714
62.2336
50.8562
35.1245
32.0691
29.3441
25.2498
39.2733
34.0056
63.1949
61.03
75.6428
76.1624
76.6936
75.5874
74.4382
72.2216
69.3363
66.627
63.8503
61.8741
59.6656
58.7472
57.2459
56.3834
55.7941
55.7275
54.1849
54.9787
52.0207
52.7532
48.2837
47.5073
41.1254
36.2736
47.3909
46.7892
44.4929
44.0325
44.687
44.5338
46.3541
48.2369
49.7571
52.5483
54.0761
55.7422
57.5852
57.1733
56.3109
55.101
51.8517
48.7728
47.0109
45.1675
43.3564
42.5738
42.1364
41.149
39.7258
38.2692
36.5407
34.6796
33.7009
34.7358
38.3606
44.6507
52.1973
58.3181
58.8807
52.4607
40.9099
31.5966
24.3463
20.6378
19.3253
25.3527
34.4263
43.2334
54.0226
63.5811
71.9388
77.2888
80.2274
81.1501
81.0613
79.5031
77.2437
74.6382
71.742
69.4364
67.2076
66.8462
67.8998
68.4321
70.2247
73.3228
75.2934
76.1003
75.6846
73.009
64.8012
53.7203
37.8773
35.9861
30.8104
27.5702
41.4529
36.2217
65.9154
63.7006
75.1719
77.1036
77.4252
76.5831
75.3366
73.5849
70.5562
67.9868
65.1086
63.1678
60.6208
59.3908
57.9842
56.7401
55.6775
56.0866
54.045
55.0592
51.911
52.5041
48.2086
46.7202
41.1979
36.2632
47.1415
46.698
45.0772
44.6385
45.1991
45.2133
46.5712
48.3356
49.7005
52.0404
53.6037
54.9636
56.6308
56.6242
56.0581
55.4104
53.2284
50.6831
49.2643
47.8748
46.3121
45.2907
44.4487
43.1907
41.5095
39.6158
37.3827
35.0015
33.541
34.1603
37.4749
43.7046
50.7308
55.9595
56.511
51.4932
41.1656
32.2246
24.9143
21.52
19.7234
26.3314
35.212
44.0314
55.3182
65.2478
73.8679
79.6679
82.7495
83.9868
83.8332
82.1549
79.6116
76.6133
73.259
70.3143
67.7708
67.1236
67.8518
68.5189
70.288
73.0297
74.8718
75.455
75.4289
73.3023
67.0435
57.124
41.8268
40.4106
33.2065
31.5747
43.9584
40.4416
67.6554
66.4779
74.5102
78.3954
78.4147
78.1745
76.4167
75.2033
71.8549
69.4142
66.3286
64.3869
61.8266
60.0568
58.5096
57.3902
55.3175
56.2382
53.8649
54.63
51.6592
51.7561
47.9988
45.8102
41.2519
36.5137
46.8376
46.4819
45.6285
45.2981
45.6216
45.8381
46.7789
48.3089
49.6668
51.5595
53.1585
54.3925
55.7758
56.1518
55.9811
55.6699
54.294
52.502
51.2901
50.1184
48.7757
47.5668
46.3327
44.8163
42.9725
40.8265
38.2551
35.4845
33.6274
33.8896
36.9672
43.0852
49.3263
53.2101
53.8642
50.5992
41.966
33.387
26.1634
22.8851
21.3397
27.6897
36.2978
45.1608
56.6257
66.8701
75.4824
81.5214
84.7369
86.1116
85.8691
84.0803
81.3596
78.0819
74.4371
71.0798
68.3397
67.4894
68.0038
68.7542
70.5257
72.8942
74.4737
74.9933
74.9416
73.3002
68.219
59.9847
46.2952
44.3971
36.4866
36.8172
46.9334
46.1469
67.8667
69.5537
74.4913
80.7371
79.551
80.1888
77.5895
76.8651
73.1971
70.8638
67.3816
65.3704
62.8269
60.8732
58.5973
58.1571
55.2084
55.8154
53.4888
53.5291
51.1105
50.6071
47.5421
44.9086
41.3024
36.9489
46.5208
46.2742
46.1046
45.9342
46.0051
46.3503
46.983
48.2444
49.6493
51.1751
52.7266
53.9661
55.0879
55.772
55.9868
55.8834
55.1504
53.9968
52.9292
51.849
50.6301
49.2711
47.7186
46.0021
44.1036
41.8747
39.126
36.1088
33.9757
34.0106
37.0342
42.9649
48.2175
50.6299
51.4589
49.9431
43.3367
35.2978
28.1939
24.7021
23.251
29.3886
37.5542
46.4966
57.8441
68.3991
76.7673
82.8786
86.1632
87.5432
87.2489
85.3408
82.5582
79.1157
75.3093
71.7379
68.9318
67.9632
68.4288
69.175
70.8737
72.9107
74.1902
74.5683
74.339
73.0758
68.9111
62.437
50.9198
48.0589
40.4059
42.7549
49.5683
52.1472
67.6778
74.1276
74.993
83.8923
80.6205
82.218
78.6394
78.3931
74.3527
72.2141
68.0666
66.2481
63.5289
61.8898
58.9676
58.6004
55.4623
54.7305
52.72
51.8477
50.2415
49.4141
46.8952
44.195
41.3708
37.4497
46.2344
46.0809
46.4661
46.4484
46.3328
46.709
47.1868
48.2203
49.613
50.9036
52.3698
53.6401
54.6071
55.4762
56.0094
56.074
55.7289
55.0429
54.1273
53.0543
51.8351
50.3659
48.6464
46.8238
44.9019
42.6754
39.9182
36.8373
34.6214
34.5907
37.8068
43.4773
47.615
48.7535
49.56
49.6081
45.1052
37.8097
30.8041
26.796
25.4555
31.2129
38.9723
47.9511
58.9735
69.7593
77.7088
83.8418
87.1499
88.4147
88.0242
85.9684
83.2551
79.8045
75.957
72.3145
69.5507
68.5854
68.9698
69.7139
71.2106
73.0163
74.0567
74.2414
73.8302
72.9821
69.9024
64.95
55.1768
51.4604
44.5897
48.0887
52.3027
58.6661
67.8793
80.179
75.3648
87.0957
81.3279
84.0498
79.5318
79.7508
75.3655
73.4444
69.0697
67.251
64.3689
62.8491
59.8293
58.6399
55.5846
53.5998
51.8173
50.473
49.3419
48.5714
46.4148
43.8591
41.5433
37.9979
46.244
46.1804
46.6152
46.7434
46.5697
46.9343
47.3599
48.2335
49.5633
50.7362
52.1045
53.3895
54.3172
55.2672
55.9876
56.1916
56.0763
55.6473
54.8061
53.7322
52.5108
50.9792
49.1647
47.2942
45.3939
43.2197
40.5601
37.5928
35.526
35.7621
39.2343
44.5471
47.6328
47.8649
48.5631
49.5509
46.9845
40.6754
33.8094
29.2296
27.9747
33.1176
40.4767
49.3644
60.1246
70.8315
78.4289
84.5076
87.7416
88.8453
88.3622
86.1337
83.4978
80.1477
76.4308
72.8825
70.1992
69.2643
69.4692
70.1953
71.4359
73.1449
74.071
74.0792
73.5667
73.0234
70.9952
67.0876
58.3763
54.3459
48.5323
52.5367
54.974
66.4536
68.2952
86.2638
75.3025
90.2928
82.0778
85.697
80.9016
80.8631
76.4777
74.4143
70.2051
68.0546
65.2087
63.4748
60.5592
58.4828
55.5401
52.9338
51.2919
49.8015
48.9817
48.1449
46.1907
43.9343
41.8231
38.573
46.3144
46.2706
46.6981
46.8761
46.7361
47.0754
47.4955
48.276
49.5202
50.649
51.9457
53.2253
54.1566
55.1276
55.9274
56.2033
56.1832
55.8667
55.0968
54.0259
52.774
51.2125
49.39
47.5155
45.6212
43.5093
41.0023
38.292
36.6027
37.3455
41.0979
46.0312
48.0983
47.9701
48.51
49.717
48.5244
43.4349
36.9169
31.9353
30.6562
35.0476
41.9139
50.7015
61.2534
71.6293
79.0206
84.9483
88.1181
88.9613
88.3431
86.1206
83.5239
80.258
76.7051
73.356
70.7719
69.8559
69.8196
70.4667
71.4749
73.234
74.1881
74.1636
73.6154
73.1787
71.7403
68.515
60.1974
56.466
51.5201
56.4831
56.8113
73.3717
68.4528
91.7919
75.1201
93.6034
83.6253
86.6319
82.182
81.3669
77.3492
74.8762
71.1374
68.5799
65.7288
63.6838
60.8608
58.3958
55.5535
53.0374
51.2146
49.7712
48.9035
48.0282
46.1971
44.2416
42.0876
39.1003
46.3954
46.3856
46.7488
46.9212
46.8426
47.1538
47.5791
48.3257
49.4953
50.6163
51.8805
53.1256
54.0865
55.0547
55.8571
56.1776
56.165
55.864
55.1188
54.0673
52.8194
51.2563
49.435
47.5581
45.6638
43.6082
41.2511
38.8079
37.5446
38.7736
42.6445
47.2505
48.6777
48.3161
48.649
49.8805
49.2324
45.1824
39.3861
34.4612
33.1051
36.8486
43.2004
51.9294
62.2382
72.1963
79.4858
85.2462
88.3475
88.9122
88.2119
85.9765
83.4405
80.294
76.8727
73.6354
71.1169
70.1257
69.9708
70.5969
71.4716
73.3763
74.4147
74.4029
73.895
73.3965
72.1301
69.2595
60.8896
57.7917
53.0452
59.4729
57.9333
78.5023
68.3326
96.5887
75.8889
95.5177
85.0852
86.6492
82.9407
81.3251
77.7122
74.9329
71.5522
68.8833
65.9688
63.6659
60.8918
58.3906
55.5602
53.202
51.2441
49.9178
48.9491
48.055
46.2951
44.5197
42.2558
39.4494
46.5463
46.4804
46.7572
46.9143
46.8883
47.179
47.6145
48.361
49.4857
50.6148
51.8658
53.0854
54.0722
55.0317
55.8125
56.1481
56.1414
55.8094
55.0668
54.0141
52.7483
51.2005
49.4129
47.5481
45.6504
43.6025
41.3281
39.0325
37.9607
39.2567
43.2412
47.6187
48.7603
48.4519
48.7481
49.6385
48.7554
45.7651
40.5777
35.9184
34.5314
37.8346
44.0141
52.6851
62.8197
72.4801
79.7542
85.427
88.4429
88.8809
88.1133
86.0107
83.4074
80.3094
76.9525
73.7713
71.2985
70.2719
70.0569
70.6779
71.5185
73.545
74.5137
74.5625
73.9617
73.4119
72.0009
69.3612
61.1354
58.3643
53.4192
60.8491
58.3677
80.8596
68.652
98.4895
76.0327
95.8551
85.3513
86.5024
83.096
81.2285
77.8165
74.9355
71.5124
68.738
65.9373
63.6664
60.9153
58.4159
55.5543
53.2799
51.2685
50.0208
48.9611
48.0595
46.333
44.5898
42.2631
39.3787
50.0279
50.4366
50.1054
48.7788
47.8909
46.7802
45.3875
43.6417
41.346
39.1869
37.8092
37.124
37.1449
37.2786
37.5014
38.3139
38.4368
37.9287
36.9186
34.6948
31.7665
28.2571
25.665
24.4942
24.9592
27.1928
31.0761
35.9541
40.5
45.0717
50.7805
56.2993
63.3215
70.3346
76.9153
82.6655
85.8377
87.81
88.6012
88.2929
86.7516
83.8268
81.007
80.1115
80.1808
78.7331
75.4876
70.7184
64.7109
57.2393
51.8691
47.417
48.0917
49.4522
55.0676
61.6617
68.1011
73.4373
76.8857
78.7311
79.4126
79.0936
77.9191
76.1207
74.2255
72.807
72.4037
73.2881
75.0841
77.2013
79.2392
80.8977
81.9441
82.306
82.1184
81.6454
81.0467
80.3406
79.4594
78.3385
76.9403
75.277
73.4004
71.4581
69.615
68.0255
66.814
66.0291
65.6497
65.5979
65.7838
66.1654
66.6812
67.2098
67.6347
68.1009
68.5525
68.7905
70.0522
71.6099
49.9862
50.202
49.8402
48.6125
47.7787
46.6979
45.3917
43.6779
41.2522
39.0172
37.6489
36.9865
37.1016
37.3201
37.4858
38.2842
38.437
37.903
37.1823
34.987
31.2952
27.4074
24.8375
23.8519
24.5152
26.9018
30.8795
35.8389
40.4883
44.9509
50.5043
55.916
62.9042
69.9917
76.5591
82.489
85.596
87.5933
88.4339
88.1777
86.6779
83.8444
80.9453
80.0998
80.2845
79.0484
75.5637
70.4218
64.2869
56.5746
51.2831
46.6221
47.5442
48.9252
54.6336
61.3375
67.9603
73.4816
76.9756
78.8277
79.5158
79.2163
78.0037
76.1443
74.1754
72.6816
72.2641
73.1632
75.0133
77.1802
79.2481
80.9336
82.0017
82.3673
82.1748
81.6831
81.0816
80.3811
79.5009
78.3734
76.9613
75.2779
73.3815
71.4162
69.5507
67.9448
66.7274
65.9476
65.5821
65.5429
65.7443
66.1286
66.6432
67.1726
67.6213
68.1184
68.5186
68.5703
69.8037
71.2484
49.9271
49.8382
49.3004
48.2812
47.4731
46.4508
45.4208
43.7422
41.0366
38.5544
37.1145
36.5886
37.0066
37.4529
37.7505
38.3363
38.4093
38.0092
36.8321
33.9768
29.6696
25.3606
23.0556
22.5429
23.6499
26.3315
30.4773
35.4918
40.4971
44.7261
49.8614
55.1838
61.8821
69.269
75.8448
81.9366
85.1798
86.9865
87.7659
87.6313
86.2489
83.4609
80.6935
79.9792
80.1905
78.7974
75.032
69.5249
63.3641
55.2308
50.1662
45.0756
46.3059
47.8953
53.5165
60.5091
67.427
73.3653
77.0074
78.9219
79.6752
79.4001
78.1444
76.1697
74.0541
72.5522
71.9455
72.8615
74.8301
77.1267
79.282
81.0141
82.1087
82.4668
82.226
81.6958
81.0869
80.3959
79.5202
78.3872
76.9587
75.2476
73.3175
71.3144
69.412
67.7859
66.5665
65.8012
65.4573
65.4456
65.6655
66.0529
66.5648
67.1155
67.62
68.1752
68.4831
68.3021
69.3652
70.7737
49.7259
49.5117
48.8001
47.9152
47.0765
46.1929
45.5352
43.7925
40.6171
37.8273
36.3006
35.9809
36.7638
37.6159
38.2479
38.6144
38.4172
37.7251
35.5676
31.5321
26.8829
22.627
20.7251
20.9516
22.4697
25.444
29.9794
35.1293
40.4849
44.5684
49.1921
54.3914
60.7003
68.3391
75.0146
81.2736
84.7313
86.3132
86.9096
86.8056
85.5822
82.9695
80.1312
79.4926
79.724
78.0828
73.9328
68.0172
61.9658
53.2351
48.5465
42.8254
44.2895
46.1571
51.5069
59.0245
66.2575
72.9224
76.9645
79.0173
79.8619
79.6496
78.3436
76.201
73.8387
71.8667
71.2466
72.1519
74.3187
76.8973
79.2642
81.0853
82.2105
82.5532
82.2538
81.6787
81.0663
80.3877
79.5154
78.3724
76.9228
75.179
73.2087
71.1594
69.2187
67.568
66.3492
65.6007
65.2909
65.3168
65.5721
65.9706
66.4827
67.0704
67.6619
68.3113
68.4709
68.0909
68.9154
70.2945
49.4085
49.1517
48.355
47.5005
46.6645
45.991
45.6826
43.7925
40.2057
37.114
35.4474
35.2674
36.3859
37.7985
38.7635
38.9088
38.3914
36.8565
33.0735
28.3275
23.6992
19.9831
18.3141
19.226
21.1851
24.4788
29.4437
34.7902
40.3598
44.4908
48.6203
53.482
59.395
67.2429
74.1198
80.4584
84.2084
85.7352
86.1522
86.0454
85.0625
82.6771
79.7038
79.0633
78.9947
77.1069
72.594
66.0926
60.2023
50.7407
46.5566
40.253
41.5831
43.9209
49.0373
57.0472
64.5319
71.938
76.7145
79.1509
80.1859
80.0339
78.6257
76.2464
73.5977
71.3721
70.3672
71.1569
73.4518
76.3524
79.0926
81.1354
82.2795
82.6053
82.2459
81.6252
81.0146
80.3504
79.4798
78.3262
76.8565
75.0802
73.0618
70.959
68.9692
67.2976
66.0841
65.3719
65.1065
65.1758
65.4682
65.8956
66.4212
67.0414
67.705
68.4686
68.4895
67.8998
68.5147
69.9104
49.0975
48.8325
47.9692
47.1044
46.2908
45.8316
45.7948
43.686
39.8191
36.5084
34.6202
34.5275
35.9653
37.9361
39.0955
39.0737
37.9446
35.1493
29.8477
24.9711
20.5236
17.4351
15.9951
17.3214
19.9137
23.4685
28.7853
34.4571
40.2302
44.4404
48.1213
52.5962
58.0774
65.9914
73.169
79.4953
83.4772
85.1576
85.5245
85.4215
84.7212
82.7473
79.7896
78.9031
78.3207
75.9605
71.0394
63.797
58.1856
47.9661
44.2443
37.5314
38.4344
41.5544
46.6705
55.053
62.6545
70.5826
76.0842
79.1548
80.5226
80.5044
78.9902
76.3257
73.3549
70.8464
69.53
70.1393
72.4455
75.5268
78.6506
81.0293
82.266
82.5609
82.1424
81.507
80.9328
80.3009
79.4355
78.2699
76.7729
74.9532
72.8727
70.6991
68.6539
66.9573
65.7666
65.0948
64.8975
65.0246
65.3809
65.8516
66.399
67.0419
67.7486
68.5844
68.5606
67.8188
68.314
69.7249
48.8289
48.5351
47.6136
46.7
45.9225
45.6635
45.8457
43.4951
39.3351
35.7435
33.7124
33.7571
35.5408
37.9516
39.1902
38.9917
37.0393
32.7731
26.3317
21.3899
17.5379
14.7953
13.7976
15.2591
18.3978
22.3894
28.0075
34.0452
40.0889
44.503
47.8229
51.8616
56.9343
64.7157
72.1634
78.4952
82.5511
84.4467
84.9369
84.9319
84.5523
83.1228
80.9497
79.3011
77.7552
74.4226
69.1353
61.5026
55.9681
45.0061
41.5824
34.4607
34.9384
38.8379
43.9425
53.1717
61.0292
69.3269
75.2642
78.9879
80.7645
80.99
79.4157
76.4569
73.15
70.3155
68.67
69.1393
71.4717
74.5568
77.8915
80.7073
82.077
82.3462
81.9473
81.3658
80.8422
80.2309
79.361
78.1771
76.6533
74.7824
72.6266
70.3615
68.2441
66.5204
65.3556
64.7539
64.6385
64.8576
65.2865
65.8301
66.4218
67.0866
67.7944
68.6536
68.6882
67.8997
68.3787
69.7523
48.6118
48.2656
47.2729
46.2431
45.506
45.461
45.7177
43.2771
38.845
34.8622
32.7158
33.0314
35.142
37.8038
39.0561
38.6252
35.603
29.7254
22.7147
17.4805
14.6522
12.2698
11.7518
13.167
16.707
21.1901
26.9611
33.4681
39.8775
44.586
47.6973
51.3261
55.9896
63.502
71.0758
77.4942
81.5058
83.5188
84.2997
84.4803
84.4441
83.6099
82.2331
80.0234
77.2434
73.0806
67.4839
59.3773
53.7361
41.9512
38.6617
31.0705
31.1721
35.6383
40.4201
51.0547
59.4388
68.277
74.5907
78.7572
80.9653
81.48
79.8975
76.6761
73.1067
69.9982
67.8888
68.144
70.5367
73.5658
76.883
80.0435
81.6903
81.9766
81.618
81.1247
80.6862
80.1235
79.2657
78.0724
76.5148
74.5778
72.3114
69.9297
67.7155
65.9603
64.8351
64.321
64.3196
64.6413
65.1761
65.8031
66.4664
67.149
67.8624
68.6549
68.8483
68.1838
68.6864
69.9659
48.4378
48.0291
46.9601
45.7791
45.0235
45.1259
45.286
42.7976
38.6282
34.4014
32.3168
32.7047
34.9027
37.5246
38.7297
37.8432
33.7619
26.3969
19.4786
13.9655
11.8631
10.053
9.89082
11.3105
15.0278
20.0111
25.7577
32.6229
39.429
44.6266
47.6917
50.9473
55.2908
62.4247
69.9428
76.4221
80.3637
82.3725
83.469
83.9242
84.2528
84.0002
83.1159
80.7389
77.0496
72.2936
66.0689
57.8413
51.0141
38.7358
35.5719
27.7624
27.0365
32.1694
36.6889
48.5732
57.4495
67.221
74.0117
78.4136
81.0997
82.0399
80.4274
76.9692
73.2464
70.0361
67.5357
67.3413
69.6241
72.5823
75.7168
79.0264
81.0218
81.3642
81.1122
80.802
80.4924
79.9855
79.1418
77.9321
76.3305
74.3048
71.9046
69.3697
67.0419
65.2497
64.187
63.7876
63.9249
64.3781
65.0212
65.7643
66.4818
67.2384
67.9231
68.7042
68.9753
68.526
69.1245
70.3557
48.2692
47.7748
46.6387
45.3067
44.4391
44.4729
44.3774
42.1104
38.5699
34.4982
32.5385
32.9078
34.9551
37.3153
38.3633
36.8172
31.7105
23.2779
16.5657
11.2106
9.25745
8.24673
8.3028
9.78484
13.5685
19.0868
24.6731
31.6961
38.8123
44.5194
47.7324
50.6527
54.809
61.4749
68.7715
75.1648
79.0645
81.0305
82.374
83.1627
83.8536
84.129
83.6834
81.2816
77.0032
71.4873
64.6174
55.5576
48.1527
35.6492
32.2398
24.6514
22.8725
29.1678
33.5329
46.0262
55.3126
66.0902
73.4149
77.8478
80.8518
82.4092
80.9761
77.3137
73.4993
70.3232
67.5604
66.7806
68.6934
71.5642
74.4458
77.6884
79.9934
80.5124
80.4317
80.3429
80.2103
79.7849
78.9579
77.7357
76.0912
73.9607
71.3787
68.6524
66.1855
64.3658
63.3909
63.144
63.4518
64.0599
64.8337
65.6898
66.4854
67.2609
68.0041
68.6941
69.098
68.868
69.6255
70.9281
48.0615
47.4576
46.2433
44.7747
43.7031
43.4587
43.0514
41.302
38.5402
34.9075
33.3281
33.6345
35.3617
37.4053
38.121
35.8664
29.4688
20.3535
13.2648
8.66895
6.78465
6.73634
7.01644
8.48822
12.2492
18.3931
23.8629
30.8507
38.1824
44.2116
47.7133
50.3947
54.4732
60.6946
67.592
73.7048
77.5091
79.4551
80.9763
82.1251
83.1417
83.8702
83.829
81.3962
76.5922
70.4516
63.0518
53.0318
45.1879
32.9673
28.7895
21.6727
18.8615
26.5173
30.5068
43.5895
53.6319
64.8751
72.9862
77.1614
80.0465
82.2116
81.2576
77.5227
73.695
70.6531
67.8374
66.4337
67.7492
70.4122
73.0258
76.0781
78.5809
79.3233
79.4772
79.7465
79.851
79.5
78.6966
77.4898
75.7812
73.4967
70.6874
67.735
65.1447
63.2978
62.4565
62.387
62.8525
63.6793
64.6072
65.574
66.4636
67.279
68.0261
68.7371
69.2339
69.3624
70.2401
71.6154
47.7564
47.0391
45.7236
44.1083
42.7751
42.0956
41.4345
40.3665
38.453
35.6721
34.7437
34.9704
36.3073
37.9526
38.3636
35.1988
27.3242
18.1294
10.4172
6.36639
4.56345
5.40154
6.01366
7.37901
11.1147
17.7488
23.2386
30.0933
37.6089
43.7509
47.5341
50.1762
54.2434
60.1219
66.4761
72.1711
75.7385
77.6466
79.2778
80.7401
82.0158
83.1244
83.3911
80.7945
75.7489
69.3752
61.4451
50.8549
42.2873
30.7488
25.5003
19.1407
15.6691
23.4761
27.9656
41.6599
52.2575
63.5266
72.6714
76.5338
78.9917
81.3373
80.9914
77.4674
73.8313
71.1161
68.4109
66.3435
66.8596
69.1299
71.4515
74.2156
76.7614
77.7813
78.3155
78.9819
79.3312
79.1059
78.364
77.1443
75.3337
72.8915
69.8623
66.6655
63.9363
62.1093
61.4176
61.5701
62.2329
63.2563
64.3452
65.4279
66.4098
67.283
68.0576
68.748
69.4254
69.8058
70.9288
72.3221
47.3623
46.5273
45.0826
43.3191
41.6858
40.5295
39.7669
39.3679
38.4207
36.8942
36.8945
37.2683
38.0466
39.4053
39.2144
34.8604
25.3412
16.722
8.87616
4.72787
2.88082
4.32779
5.30689
6.58087
10.1531
17.2064
22.7689
29.3644
37.1798
43.3469
47.1841
49.9074
54.0443
59.6538
65.4169
70.5885
73.8421
75.6639
77.3178
78.9634
80.4823
81.8687
82.2431
79.585
74.6899
68.2988
59.9309
48.8908
39.8847
29.0736
22.7097
17.2983
13.6888
20.8366
26.596
40.1894
51.1239
62.2153
72.06
76.0113
77.9506
79.9964
80.2218
77.1576
73.9344
71.7157
69.1931
66.5783
66.1749
67.7484
69.6689
72.1056
74.5983
75.9238
76.856
77.9622
78.676
78.6295
77.9024
76.6764
74.8072
72.2087
68.8912
65.4144
62.5994
60.8427
60.3712
60.7332
61.6424
62.81
64.0695
65.2557
66.3351
67.2033
68.0453
68.8001
69.54
70.266
71.5343
73.1041
46.9034
45.9264
44.3392
42.4576
40.5405
38.9696
38.2316
38.3648
38.4021
38.3924
39.5981
40.422
40.7482
41.8678
40.8593
35.081
23.653
15.106
7.73827
3.45139
1.69407
3.43661
4.91966
6.0729
9.40892
16.7837
22.4858
28.6291
36.8151
43.1484
46.8388
49.5799
53.8241
59.1739
64.4061
68.9544
71.8625
73.5426
75.1369
76.8188
78.5561
80.0643
80.4294
78.006
73.4312
67.0969
58.4733
47.1157
38.118
27.8583
20.6362
16.1069
12.8436
19.3905
26.2318
39.1604
50.3624
61.0545
71.0787
75.4876
77.0241
78.5971
79.0679
76.5378
73.9048
72.3056
70.0006
66.973
65.5624
66.0804
67.4251
69.6242
72.0727
73.669
75.0554
76.7506
77.8772
77.9817
77.3201
76.152
74.2073
71.3499
67.759
64.0828
61.2467
59.6039
59.3821
59.9506
61.0789
62.403
63.7984
65.0907
66.2339
67.177
67.9871
68.7752
69.6903
70.5589
72.1252
73.761
46.4246
45.3167
43.5818
41.5338
39.3954
37.586
36.8581
37.3003
38.2865
39.9195
42.6527
44.4162
44.5042
45.4612
43.6808
36.3166
23.6238
13.7995
7.05638
2.52061
0.855802
2.67852
4.71499
5.92789
9.06982
16.5209
22.3848
28.0094
36.4023
43.1092
46.6212
49.3075
53.6034
58.6182
63.3623
67.2257
69.73
71.2006
72.7045
74.346
76.1972
77.7188
78.1448
76.0595
71.9025
65.648
57.0531
45.7832
36.7836
27.191
19.301
15.2302
12.5544
18.7862
26.197
38.6193
50.0426
60.1719
69.9108
74.8085
76.2336
77.3767
77.7729
75.6983
73.8192
72.8264
70.5299
66.9872
64.5512
63.8625
64.4321
66.5084
69.0281
70.9528
72.9526
75.323
76.8762
77.2094
76.6807
75.5298
73.4406
70.4457
66.6202
62.739
59.9359
58.4026
58.5116
59.2451
60.6162
62.0419