/*--------------------------------*- C++ -*----------------------------------*\
| =========                 |                                                 |
| \\      /  F ield         | OpenFOAM: The Open Source CFD Toolbox           |
|  \\    /   O peration     | Version:  2.4.0                                 |
|   \\  /    A nd           | Web:      www.OpenFOAM.org                      |
|    \\/     M anipulation  |                                                 |
\*---------------------------------------------------------------------------*/
FoamFile
{
    version     2.0;
    format      ascii;
    class       volScalarField;
    location    "0.179";
    object      pPrime2Mean;
}
// * * * * * * * * * * * * * * * * * * * * * * * * * * * * * * * * * * * * * //

dimensions      [0 4 -4 0 0 0 0];

internalField   nonuniform List<scalar> 
17600
(
3.61025e+06
3.51921e+06
3.42133e+06
3.32432e+06
3.22869e+06
3.13446e+06
3.04162e+06
2.95017e+06
2.86011e+06
2.77144e+06
2.68414e+06
2.59821e+06
2.51362e+06
2.43033e+06
2.34824e+06
2.26721e+06
2.18691e+06
2.10671e+06
2.02517e+06
1.93743e+06
3.61033e+06
3.51921e+06
3.42132e+06
3.32432e+06
3.22869e+06
3.13446e+06
3.04162e+06
2.95017e+06
2.86011e+06
2.77144e+06
2.68414e+06
2.59821e+06
2.51362e+06
2.43033e+06
2.34825e+06
2.26722e+06
2.18693e+06
2.10676e+06
2.02529e+06
1.93766e+06
3.61039e+06
3.5192e+06
3.42132e+06
3.32432e+06
3.22869e+06
3.13446e+06
3.04162e+06
2.95017e+06
2.86011e+06
2.77144e+06
2.68414e+06
2.59821e+06
2.51363e+06
2.43034e+06
2.34826e+06
2.26724e+06
2.18697e+06
2.10685e+06
2.0255e+06
1.93856e+06
3.61042e+06
3.51918e+06
3.42131e+06
3.32431e+06
3.22869e+06
3.13446e+06
3.04162e+06
2.95017e+06
2.86011e+06
2.77144e+06
2.68414e+06
2.59822e+06
2.51363e+06
2.43035e+06
2.34828e+06
2.26727e+06
2.18704e+06
2.10699e+06
2.02582e+06
1.93982e+06
3.61046e+06
3.51917e+06
3.4213e+06
3.32431e+06
3.22869e+06
3.13446e+06
3.04162e+06
2.95017e+06
2.86011e+06
2.77144e+06
2.68415e+06
2.59822e+06
2.51364e+06
2.43036e+06
2.3483e+06
2.26731e+06
2.18712e+06
2.10717e+06
2.02625e+06
1.94133e+06
3.61049e+06
3.51916e+06
3.42129e+06
3.32431e+06
3.22868e+06
3.13446e+06
3.04162e+06
2.95017e+06
2.86011e+06
2.77144e+06
2.68415e+06
2.59822e+06
2.51365e+06
2.43037e+06
2.34833e+06
2.26737e+06
2.18723e+06
2.10738e+06
2.02675e+06
1.94297e+06
3.61052e+06
3.51915e+06
3.42128e+06
3.3243e+06
3.22868e+06
3.13446e+06
3.04162e+06
2.95017e+06
2.86011e+06
2.77144e+06
2.68415e+06
2.59823e+06
2.51365e+06
2.43039e+06
2.34836e+06
2.26743e+06
2.18735e+06
2.10764e+06
2.02734e+06
1.9447e+06
3.61054e+06
3.51914e+06
3.42127e+06
3.3243e+06
3.22868e+06
3.13445e+06
3.04162e+06
2.95017e+06
2.86011e+06
2.77144e+06
2.68415e+06
2.59823e+06
2.51367e+06
2.43041e+06
2.3484e+06
2.2675e+06
2.18749e+06
2.10792e+06
2.02799e+06
1.94645e+06
3.61057e+06
3.51913e+06
3.42126e+06
3.3243e+06
3.22868e+06
3.13445e+06
3.04162e+06
2.95017e+06
2.86011e+06
2.77144e+06
2.68416e+06
2.59824e+06
2.51368e+06
2.43043e+06
2.34844e+06
2.26758e+06
2.18764e+06
2.10824e+06
2.02868e+06
1.94821e+06
3.61059e+06
3.51913e+06
3.42125e+06
3.3243e+06
3.22868e+06
3.13445e+06
3.04162e+06
2.95017e+06
2.86011e+06
2.77145e+06
2.68416e+06
2.59825e+06
2.51369e+06
2.43046e+06
2.34849e+06
2.26767e+06
2.18781e+06
2.10858e+06
2.02942e+06
1.94996e+06
3.61061e+06
3.51912e+06
3.42124e+06
3.32429e+06
3.22868e+06
3.13445e+06
3.04162e+06
2.95017e+06
2.86011e+06
2.77145e+06
2.68416e+06
2.59826e+06
2.51371e+06
2.43048e+06
2.34854e+06
2.26776e+06
2.188e+06
2.10894e+06
2.03018e+06
1.95167e+06
3.61063e+06
3.51912e+06
3.42123e+06
3.32429e+06
3.22868e+06
3.13445e+06
3.04162e+06
2.95017e+06
2.86011e+06
2.77145e+06
2.68417e+06
2.59826e+06
2.51372e+06
2.43051e+06
2.34859e+06
2.26787e+06
2.18819e+06
2.10932e+06
2.03097e+06
1.95334e+06
3.61064e+06
3.51912e+06
3.42122e+06
3.32428e+06
3.22868e+06
3.13446e+06
3.04162e+06
2.95017e+06
2.86011e+06
2.77145e+06
2.68417e+06
2.59827e+06
2.51374e+06
2.43054e+06
2.34865e+06
2.26797e+06
2.18839e+06
2.10972e+06
2.03177e+06
1.95496e+06
3.61065e+06
3.51912e+06
3.42122e+06
3.32428e+06
3.22868e+06
3.13446e+06
3.04162e+06
2.95017e+06
2.86012e+06
2.77145e+06
2.68418e+06
2.59828e+06
2.51376e+06
2.43058e+06
2.34871e+06
2.26808e+06
2.18861e+06
2.11013e+06
2.03257e+06
1.95653e+06
3.61066e+06
3.51912e+06
3.42121e+06
3.32428e+06
3.22868e+06
3.13446e+06
3.04162e+06
2.95017e+06
2.86012e+06
2.77146e+06
2.68418e+06
2.59829e+06
2.51377e+06
2.43061e+06
2.34877e+06
2.2682e+06
2.18882e+06
2.11054e+06
2.03337e+06
1.95804e+06
3.61067e+06
3.51912e+06
3.42121e+06
3.32427e+06
3.22868e+06
3.13446e+06
3.04162e+06
2.95017e+06
2.86012e+06
2.77146e+06
2.68419e+06
2.5983e+06
2.51379e+06
2.43065e+06
2.34883e+06
2.26832e+06
2.18905e+06
2.11096e+06
2.03416e+06
1.95949e+06
3.61068e+06
3.51912e+06
3.4212e+06
3.32427e+06
3.22868e+06
3.13446e+06
3.04162e+06
2.95017e+06
2.86012e+06
2.77146e+06
2.68419e+06
2.59831e+06
2.51381e+06
2.43068e+06
2.3489e+06
2.26844e+06
2.18927e+06
2.11138e+06
2.03495e+06
1.96087e+06
3.61069e+06
3.51912e+06
3.4212e+06
3.32427e+06
3.22868e+06
3.13446e+06
3.04162e+06
2.95017e+06
2.86012e+06
2.77146e+06
2.6842e+06
2.59832e+06
2.51383e+06
2.43072e+06
2.34897e+06
2.26857e+06
2.1895e+06
2.11181e+06
2.03572e+06
1.9622e+06
3.61069e+06
3.51912e+06
3.4212e+06
3.32427e+06
3.22868e+06
3.13446e+06
3.04162e+06
2.95017e+06
2.86012e+06
2.77147e+06
2.68421e+06
2.59834e+06
2.51385e+06
2.43076e+06
2.34904e+06
2.26869e+06
2.18973e+06
2.11222e+06
2.03647e+06
1.96346e+06
3.61069e+06
3.51912e+06
3.4212e+06
3.32427e+06
3.22868e+06
3.13446e+06
3.04162e+06
2.95017e+06
2.86012e+06
2.77147e+06
2.68421e+06
2.59835e+06
2.51387e+06
2.43079e+06
2.34911e+06
2.26882e+06
2.18996e+06
2.11264e+06
2.0372e+06
1.96466e+06
3.61069e+06
3.51912e+06
3.4212e+06
3.32427e+06
3.22868e+06
3.13446e+06
3.04162e+06
2.95017e+06
2.86013e+06
2.77147e+06
2.68422e+06
2.59836e+06
2.51389e+06
2.43083e+06
2.34917e+06
2.26894e+06
2.19019e+06
2.11304e+06
2.03791e+06
1.96579e+06
3.61069e+06
3.51912e+06
3.4212e+06
3.32427e+06
3.22868e+06
3.13446e+06
3.04162e+06
2.95017e+06
2.86013e+06
2.77148e+06
2.68423e+06
2.59837e+06
2.51391e+06
2.43087e+06
2.34924e+06
2.26906e+06
2.19041e+06
2.11344e+06
2.03858e+06
1.96686e+06
3.61069e+06
3.51912e+06
3.4212e+06
3.32427e+06
3.22868e+06
3.13446e+06
3.04162e+06
2.95017e+06
2.86013e+06
2.77148e+06
2.68423e+06
2.59838e+06
2.51393e+06
2.4309e+06
2.34931e+06
2.26919e+06
2.19063e+06
2.11382e+06
2.03924e+06
1.96788e+06
3.61068e+06
3.51912e+06
3.4212e+06
3.32427e+06
3.22868e+06
3.13446e+06
3.04162e+06
2.95018e+06
2.86013e+06
2.77148e+06
2.68424e+06
2.59839e+06
2.51395e+06
2.43094e+06
2.34937e+06
2.2693e+06
2.19084e+06
2.11419e+06
2.03986e+06
1.96883e+06
3.61067e+06
3.51912e+06
3.42121e+06
3.32428e+06
3.22868e+06
3.13446e+06
3.04162e+06
2.95018e+06
2.86013e+06
2.77149e+06
2.68424e+06
2.5984e+06
2.51397e+06
2.43098e+06
2.34944e+06
2.26942e+06
2.19104e+06
2.11455e+06
2.04045e+06
1.96972e+06
3.61067e+06
3.51912e+06
3.42121e+06
3.32428e+06
3.22868e+06
3.13446e+06
3.04162e+06
2.95018e+06
2.86014e+06
2.77149e+06
2.68425e+06
2.59841e+06
2.51399e+06
2.43101e+06
2.3495e+06
2.26953e+06
2.19124e+06
2.11489e+06
2.041e+06
1.97055e+06
3.61065e+06
3.51912e+06
3.42122e+06
3.32428e+06
3.22868e+06
3.13446e+06
3.04162e+06
2.95018e+06
2.86014e+06
2.7715e+06
2.68425e+06
2.59842e+06
2.51401e+06
2.43104e+06
2.34956e+06
2.26964e+06
2.19143e+06
2.11521e+06
2.04153e+06
1.97132e+06
3.61064e+06
3.51912e+06
3.42122e+06
3.32429e+06
3.22868e+06
3.13446e+06
3.04162e+06
2.95018e+06
2.86014e+06
2.7715e+06
2.68426e+06
2.59843e+06
2.51403e+06
2.43107e+06
2.34962e+06
2.26974e+06
2.1916e+06
2.11551e+06
2.04201e+06
1.97203e+06
3.61063e+06
3.51912e+06
3.42123e+06
3.32429e+06
3.22868e+06
3.13446e+06
3.04162e+06
2.95018e+06
2.86014e+06
2.7715e+06
2.68427e+06
2.59844e+06
2.51404e+06
2.4311e+06
2.34967e+06
2.26983e+06
2.19177e+06
2.11579e+06
2.04247e+06
1.97269e+06
3.61061e+06
3.51912e+06
3.42124e+06
3.32429e+06
3.22868e+06
3.13446e+06
3.04162e+06
2.95019e+06
2.86014e+06
2.7715e+06
2.68427e+06
2.59845e+06
2.51406e+06
2.43113e+06
2.34972e+06
2.26992e+06
2.19192e+06
2.11605e+06
2.04288e+06
1.97329e+06
3.61059e+06
3.51913e+06
3.42125e+06
3.3243e+06
3.22868e+06
3.13446e+06
3.04163e+06
2.95019e+06
2.86015e+06
2.77151e+06
2.68427e+06
2.59846e+06
2.51407e+06
2.43116e+06
2.34976e+06
2.27e+06
2.19207e+06
2.11629e+06
2.04326e+06
1.97384e+06
3.61057e+06
3.51913e+06
3.42126e+06
3.3243e+06
3.22869e+06
3.13446e+06
3.04163e+06
2.95019e+06
2.86015e+06
2.77151e+06
2.68428e+06
2.59846e+06
2.51409e+06
2.43118e+06
2.34981e+06
2.27008e+06
2.1922e+06
2.11651e+06
2.0436e+06
1.97433e+06
3.61054e+06
3.51914e+06
3.42127e+06
3.3243e+06
3.22869e+06
3.13446e+06
3.04163e+06
2.95019e+06
2.86015e+06
2.77151e+06
2.68428e+06
2.59847e+06
2.5141e+06
2.4312e+06
2.34985e+06
2.27015e+06
2.19231e+06
2.11671e+06
2.04391e+06
1.97476e+06
3.61052e+06
3.51915e+06
3.42128e+06
3.32431e+06
3.22869e+06
3.13446e+06
3.04163e+06
2.95019e+06
2.86015e+06
2.77152e+06
2.68429e+06
2.59848e+06
2.51411e+06
2.43122e+06
2.34988e+06
2.27021e+06
2.19242e+06
2.11688e+06
2.04418e+06
1.97514e+06
3.61049e+06
3.51916e+06
3.42129e+06
3.32431e+06
3.22869e+06
3.13446e+06
3.04163e+06
2.95019e+06
2.86015e+06
2.77152e+06
2.68429e+06
2.59848e+06
2.51412e+06
2.43124e+06
2.34991e+06
2.27026e+06
2.19251e+06
2.11703e+06
2.04441e+06
1.97546e+06
3.61046e+06
3.51917e+06
3.4213e+06
3.32431e+06
3.22869e+06
3.13447e+06
3.04163e+06
2.9502e+06
2.86016e+06
2.77152e+06
2.68429e+06
2.59849e+06
2.51413e+06
2.43125e+06
2.34993e+06
2.2703e+06
2.19258e+06
2.11715e+06
2.0446e+06
1.97573e+06
3.61043e+06
3.51919e+06
3.42131e+06
3.32432e+06
3.22869e+06
3.13447e+06
3.04163e+06
2.9502e+06
2.86016e+06
2.77152e+06
2.68429e+06
2.59849e+06
2.51413e+06
2.43126e+06
2.34995e+06
2.27034e+06
2.19264e+06
2.11725e+06
2.04475e+06
1.97594e+06
3.61039e+06
3.5192e+06
3.42132e+06
3.32432e+06
3.22869e+06
3.13447e+06
3.04163e+06
2.9502e+06
2.86016e+06
2.77152e+06
2.6843e+06
2.59849e+06
2.51414e+06
2.43127e+06
2.34997e+06
2.27037e+06
2.19269e+06
2.11733e+06
2.04487e+06
1.97611e+06
3.61033e+06
3.51921e+06
3.42133e+06
3.32432e+06
3.22869e+06
3.13447e+06
3.04163e+06
2.9502e+06
2.86016e+06
2.77152e+06
2.6843e+06
2.59849e+06
2.51414e+06
2.43128e+06
2.34998e+06
2.27038e+06
2.19272e+06
2.11738e+06
2.04495e+06
1.97621e+06
3.61025e+06
3.51921e+06
3.42133e+06
3.32432e+06
3.22869e+06
3.13447e+06
3.04163e+06
2.9502e+06
2.86016e+06
2.77152e+06
2.6843e+06
2.5985e+06
2.51414e+06
2.43128e+06
2.34998e+06
2.27039e+06
2.19274e+06
2.1174e+06
2.04498e+06
1.97626e+06
1.85433e+06
1.83443e+06
1.81903e+06
1.80553e+06
1.7929e+06
1.78081e+06
1.76911e+06
1.75771e+06
1.74655e+06
1.73558e+06
1.72476e+06
1.71407e+06
1.70349e+06
1.69298e+06
1.68252e+06
1.67212e+06
1.66177e+06
1.65145e+06
1.64117e+06
1.63093e+06
1.62073e+06
1.61056e+06
1.60042e+06
1.59032e+06
1.58024e+06
1.57019e+06
1.56017e+06
1.55018e+06
1.54022e+06
1.5303e+06
1.52041e+06
1.51057e+06
1.50076e+06
1.49099e+06
1.48126e+06
1.47156e+06
1.46191e+06
1.45228e+06
1.4427e+06
1.43316e+06
1.42365e+06
1.41418e+06
1.40475e+06
1.39535e+06
1.38598e+06
1.37665e+06
1.36735e+06
1.35809e+06
1.34886e+06
1.33967e+06
1.33052e+06
1.3214e+06
1.31231e+06
1.30326e+06
1.29424e+06
1.28526e+06
1.27631e+06
1.26739e+06
1.2585e+06
1.24965e+06
1.24082e+06
1.23204e+06
1.22328e+06
1.21456e+06
1.20587e+06
1.1972e+06
1.18858e+06
1.17998e+06
1.17141e+06
1.16288e+06
1.15438e+06
1.1459e+06
1.13747e+06
1.12906e+06
1.12069e+06
1.11235e+06
1.10404e+06
1.09575e+06
1.08749e+06
1.07925e+06
1.07104e+06
1.06286e+06
1.05469e+06
1.04656e+06
1.03845e+06
1.03037e+06
1.02232e+06
1.01429e+06
1.00629e+06
998324
990384
982473
974594
966748
958935
951156
943410
935698
928019
920373
912760
905179
897630
890112
882624
875170
867749
860362
853010
845691
838406
831154
823935
816749
809595
802474
795386
788330
781306
774314
767355
760428
753533
746670
739838
733039
726269
719532
712826
706150
699506
692891
686308
679755
673233
666741
660281
653853
647455
641088
634753
628449
622177
615937
609728
603552
597407
591295
585213
579163
573143
567155
561197
555270
549373
543507
537672
531869
526097
520358
514649
508973
503328
497715
492133
486583
481062
475571
470108
464674
459266
453888
448536
443216
437919
432658
427417
422218
417029
411891
406754
401673
396588
391556
386516
381524
376521
371558
366577
361624
356645
351675
346663
341627
336516
331323
325976
320423
314400
307811
1.86375e+06
1.84208e+06
1.82506e+06
1.81046e+06
1.79707e+06
1.78441e+06
1.77225e+06
1.76047e+06
1.74899e+06
1.73775e+06
1.72669e+06
1.7158e+06
1.70503e+06
1.69435e+06
1.68376e+06
1.67323e+06
1.66276e+06
1.65233e+06
1.64196e+06
1.63163e+06
1.62136e+06
1.61112e+06
1.60093e+06
1.59077e+06
1.58064e+06
1.57055e+06
1.56049e+06
1.55047e+06
1.54049e+06
1.53054e+06
1.52063e+06
1.51076e+06
1.50093e+06
1.49115e+06
1.4814e+06
1.47169e+06
1.46202e+06
1.45238e+06
1.44279e+06
1.43324e+06
1.42372e+06
1.41424e+06
1.40481e+06
1.3954e+06
1.38604e+06
1.3767e+06
1.3674e+06
1.35814e+06
1.34891e+06
1.33972e+06
1.33056e+06
1.32144e+06
1.31235e+06
1.3033e+06
1.29428e+06
1.2853e+06
1.27635e+06
1.26743e+06
1.25855e+06
1.24969e+06
1.24087e+06
1.23209e+06
1.22333e+06
1.21461e+06
1.20592e+06
1.19726e+06
1.18863e+06
1.18003e+06
1.17147e+06
1.16294e+06
1.15443e+06
1.14596e+06
1.13752e+06
1.12912e+06
1.12075e+06
1.11241e+06
1.10409e+06
1.09581e+06
1.08754e+06
1.0793e+06
1.07109e+06
1.0629e+06
1.05473e+06
1.04659e+06
1.03848e+06
1.03039e+06
1.02234e+06
1.01431e+06
1.00631e+06
998342
990400
982488
974608
966761
958947
951167
943421
935709
928029
920382
912768
905186
897636
890115
882627
875171
867750
860363
853010
845691
838406
831154
823935
816749
809596
802476
795387
788331
781308
774316
767358
760430
753535
746673
739841
733041
726271
719533
712828
706152
699508
692893
686310
679756
673233
666741
660281
653851
647452
641083
634746
628441
622167
615925
609715
603537
597391
591277
585193
579142
573120
567130
561169
555239
549339
543469
537631
531824
526048
520303
514588
508906
503254
497635
492045
486486
480956
475456
469982
464537
459117
453726
448357
443021
437703
432424
427157
421935
416717
411549
406379
401260
396135
391057
385970
380923
375862
370830
365776
360737
355664
350584
345447
340263
334976
329566
323939
317998
311414
303631
1.87121e+06
1.8488e+06
1.83072e+06
1.81521e+06
1.80114e+06
1.78794e+06
1.77535e+06
1.76321e+06
1.75141e+06
1.7399e+06
1.72861e+06
1.71751e+06
1.70656e+06
1.69572e+06
1.68498e+06
1.67432e+06
1.66374e+06
1.65321e+06
1.64275e+06
1.63234e+06
1.62198e+06
1.61168e+06
1.60142e+06
1.59121e+06
1.58104e+06
1.57091e+06
1.56082e+06
1.55077e+06
1.54076e+06
1.53078e+06
1.52085e+06
1.51096e+06
1.50111e+06
1.4913e+06
1.48153e+06
1.47181e+06
1.46213e+06
1.45248e+06
1.44288e+06
1.43332e+06
1.42379e+06
1.41431e+06
1.40487e+06
1.39546e+06
1.38609e+06
1.37676e+06
1.36746e+06
1.35819e+06
1.34896e+06
1.33977e+06
1.33061e+06
1.32148e+06
1.3124e+06
1.30334e+06
1.29432e+06
1.28534e+06
1.27639e+06
1.26747e+06
1.25859e+06
1.24974e+06
1.24092e+06
1.23213e+06
1.22338e+06
1.21466e+06
1.20597e+06
1.19731e+06
1.18868e+06
1.18009e+06
1.17152e+06
1.16299e+06
1.15448e+06
1.14601e+06
1.13757e+06
1.12917e+06
1.1208e+06
1.11246e+06
1.10414e+06
1.09585e+06
1.08759e+06
1.07935e+06
1.07113e+06
1.06293e+06
1.05476e+06
1.04662e+06
1.0385e+06
1.03041e+06
1.02236e+06
1.01433e+06
1.00633e+06
998352
990409
982497
974615
966768
958953
951173
943426
935713
928034
920385
912770
905187
897636
890115
882625
875169
867746
860359
853005
845686
838401
831149
823930
816745
809593
802473
795385
788330
781308
774316
767358
760431
753536
746673
739841
733041
726271
719533
712828
706151
699507
692892
686308
679755
673231
666739
660277
653846
647446
641076
634738
628431
622155
615912
609700
603521
597373
591257
585172
579119
573095
567103
561140
555207
549303
543431
537589
531777
525997
520246
514527
508838
503180
497553
491955
486388
480849
475339
469855
464399
458965
453562
448176
442824
437486
432187
426896
421650
416405
411206
406004
400847
395685
390562
385428
380326
375208
370108
364984
359860
354697
349509
344253
338927
333474
327862
321985
315717
308718
300308
1.87731e+06
1.85476e+06
1.836e+06
1.81976e+06
1.80508e+06
1.79139e+06
1.77839e+06
1.7659e+06
1.7538e+06
1.74203e+06
1.73051e+06
1.7192e+06
1.70807e+06
1.69708e+06
1.68619e+06
1.67541e+06
1.66471e+06
1.65408e+06
1.64353e+06
1.63303e+06
1.62261e+06
1.61224e+06
1.60192e+06
1.59166e+06
1.58144e+06
1.57127e+06
1.56114e+06
1.55106e+06
1.54102e+06
1.53102e+06
1.52106e+06
1.51115e+06
1.50128e+06
1.49146e+06
1.48167e+06
1.47194e+06
1.46224e+06
1.45258e+06
1.44297e+06
1.4334e+06
1.42387e+06
1.41438e+06
1.40493e+06
1.39552e+06
1.38615e+06
1.37681e+06
1.36751e+06
1.35824e+06
1.34901e+06
1.33982e+06
1.33066e+06
1.32153e+06
1.31244e+06
1.30339e+06
1.29437e+06
1.28538e+06
1.27643e+06
1.26751e+06
1.25863e+06
1.24978e+06
1.24097e+06
1.23218e+06
1.22343e+06
1.21471e+06
1.20602e+06
1.19736e+06
1.18873e+06
1.18013e+06
1.17157e+06
1.16303e+06
1.15453e+06
1.14606e+06
1.13762e+06
1.12921e+06
1.12084e+06
1.1125e+06
1.10419e+06
1.0959e+06
1.08763e+06
1.07938e+06
1.07116e+06
1.06296e+06
1.05479e+06
1.04664e+06
1.03852e+06
1.03043e+06
1.02237e+06
1.01433e+06
1.00633e+06
998355
990411
982497
974616
966768
958952
951172
943425
935712
928032
920383
912767
905183
897631
890108
882618
875161
867739
860351
852997
845677
838392
831140
823922
816737
809586
802467
795380
788325
781304
774313
767355
760429
753534
746671
739839
733039
726270
719531
712826
706149
699505
692889
686305
679750
673226
666733
660271
653838
647437
641066
634727
628418
622141
615896
609683
603502
597353
591235
585149
579094
573069
567074
561109
555173
549267
543391
537545
531730
525944
520189
514464
508769
503103
497469
491863
486288
480740
475221
469726
464259
458813
453396
447993
442626
437268
431950
426636
421364
416093
410863
405632
400437
395238
390068
384891
379734
374560
369394
364201
358995
353746
348453
343084
337623
332016
326221
320125
313591
306300
297681
1.88252e+06
1.86004e+06
1.84088e+06
1.82408e+06
1.80888e+06
1.79474e+06
1.78135e+06
1.76853e+06
1.75615e+06
1.74412e+06
1.73238e+06
1.72087e+06
1.70956e+06
1.69841e+06
1.68739e+06
1.67648e+06
1.66566e+06
1.65494e+06
1.64429e+06
1.63372e+06
1.62322e+06
1.61279e+06
1.60241e+06
1.5921e+06
1.58183e+06
1.57162e+06
1.56146e+06
1.55134e+06
1.54128e+06
1.53125e+06
1.52128e+06
1.51134e+06
1.50146e+06
1.49161e+06
1.48182e+06
1.47206e+06
1.46235e+06
1.45269e+06
1.44307e+06
1.43349e+06
1.42395e+06
1.41446e+06
1.40501e+06
1.39559e+06
1.38622e+06
1.37687e+06
1.36757e+06
1.3583e+06
1.34907e+06
1.33987e+06
1.3307e+06
1.32158e+06
1.31248e+06
1.30343e+06
1.29441e+06
1.28542e+06
1.27647e+06
1.26755e+06
1.25867e+06
1.24982e+06
1.24101e+06
1.23222e+06
1.22347e+06
1.21475e+06
1.20606e+06
1.1974e+06
1.18877e+06
1.18017e+06
1.17161e+06
1.16307e+06
1.15457e+06
1.1461e+06
1.13766e+06
1.12925e+06
1.12088e+06
1.11254e+06
1.10422e+06
1.09593e+06
1.08766e+06
1.07941e+06
1.07118e+06
1.06298e+06
1.0548e+06
1.04665e+06
1.03852e+06
1.03043e+06
1.02237e+06
1.01433e+06
1.00632e+06
998349
990405
982491
974610
966761
958945
951165
943418
935705
928024
920375
912758
905174
897620
890097
882607
875150
867727
860339
852984
845664
838379
831127
823909
816725
809574
802456
795371
788317
781296
774307
767350
760423
753529
746666
739835
733034
726265
719527
712821
706143
699499
692883
686298
679742
673218
666724
660261
653828
647426
641054
634713
628403
622125
615878
609663
603481
597330
591211
585123
579067
573040
567044
561076
555138
549229
543350
537500
531681
525891
520130
514399
508698
503026
497385
491771
486188
480631
475102
469596
464119
458658
453228
447811
442426
437050
431711
426376
421079
415782
410522
405261
400028
394794
389579
384358
379146
373918
368688
363429
358143
352811
347418
341942
336354
330608
324647
318364
311625
304152
295525
1.88703e+06
1.86477e+06
1.84537e+06
1.82815e+06
1.81252e+06
1.79798e+06
1.78424e+06
1.7711e+06
1.75844e+06
1.74617e+06
1.73422e+06
1.72252e+06
1.71103e+06
1.69972e+06
1.68856e+06
1.67753e+06
1.66661e+06
1.65578e+06
1.64505e+06
1.6344e+06
1.62383e+06
1.61333e+06
1.6029e+06
1.59253e+06
1.58223e+06
1.57197e+06
1.56178e+06
1.55163e+06
1.54153e+06
1.53149e+06
1.52149e+06
1.51154e+06
1.50163e+06
1.49177e+06
1.48196e+06
1.47219e+06
1.46247e+06
1.4528e+06
1.44317e+06
1.43359e+06
1.42404e+06
1.41454e+06
1.40508e+06
1.39566e+06
1.38628e+06
1.37694e+06
1.36763e+06
1.35836e+06
1.34912e+06
1.33992e+06
1.33075e+06
1.32162e+06
1.31253e+06
1.30347e+06
1.29444e+06
1.28546e+06
1.27651e+06
1.26759e+06
1.25871e+06
1.24986e+06
1.24105e+06
1.23226e+06
1.22351e+06
1.21479e+06
1.20609e+06
1.19743e+06
1.18881e+06
1.18021e+06
1.17164e+06
1.1631e+06
1.1546e+06
1.14613e+06
1.13769e+06
1.12928e+06
1.12091e+06
1.11256e+06
1.10425e+06
1.09595e+06
1.08768e+06
1.07943e+06
1.0712e+06
1.06299e+06
1.0548e+06
1.04665e+06
1.03852e+06
1.03042e+06
1.02236e+06
1.01432e+06
1.00631e+06
998336
990391
982477
974596
966748
958932
951151
943404
935691
928010
920360
912743
905158
897604
890081
882591
875134
867712
860323
852968
845648
838362
831111
823893
816709
809559
802442
795358
788305
781285
774297
767340
760415
753521
746659
739827
733026
726258
719519
712813
706135
699490
692873
686287
679731
673206
666711
660248
653814
647411
641038
634697
628385
622106
615857
609641
603457
597305
591185
585096
579038
573009
567011
561041
555101
549189
543307
537454
531631
525836
520070
514334
508627
502948
497300
491679
486087
480521
474983
469466
463977
458503
453060
447627
442226
436832
431472
426116
420793
415473
410182
404891
399623
394352
389094
383829
378565
373285
367991
362668
357305
351893
346406
340830
335124
329250
323145
316705
309814
302243
293697
1.891e+06
1.86903e+06
1.84951e+06
1.83199e+06
1.81599e+06
1.8011e+06
1.78703e+06
1.77361e+06
1.76069e+06
1.74818e+06
1.73602e+06
1.72413e+06
1.71248e+06
1.70102e+06
1.68972e+06
1.67856e+06
1.66754e+06
1.65662e+06
1.6458e+06
1.63507e+06
1.62443e+06
1.61387e+06
1.60339e+06
1.59297e+06
1.58262e+06
1.57233e+06
1.56209e+06
1.55191e+06
1.54179e+06
1.53172e+06
1.5217e+06
1.51173e+06
1.5018e+06
1.49193e+06
1.4821e+06
1.47232e+06
1.46259e+06
1.45291e+06
1.44328e+06
1.43368e+06
1.42414e+06
1.41463e+06
1.40516e+06
1.39574e+06
1.38635e+06
1.377e+06
1.36769e+06
1.35842e+06
1.34918e+06
1.33997e+06
1.3308e+06
1.32167e+06
1.31257e+06
1.30351e+06
1.29448e+06
1.28549e+06
1.27654e+06
1.26763e+06
1.25874e+06
1.2499e+06
1.24108e+06
1.2323e+06
1.22354e+06
1.21482e+06
1.20613e+06
1.19746e+06
1.18884e+06
1.18024e+06
1.17167e+06
1.16313e+06
1.15462e+06
1.14615e+06
1.13771e+06
1.1293e+06
1.12093e+06
1.11258e+06
1.10426e+06
1.09597e+06
1.08769e+06
1.07943e+06
1.0712e+06
1.06299e+06
1.0548e+06
1.04664e+06
1.03851e+06
1.03041e+06
1.02234e+06
1.0143e+06
1.00629e+06
998315
990370
982457
974576
966727
958912
951132
943385
935671
927990
920340
912723
905137
897583
890061
882571
875115
867692
860304
852949
845628
838342
831090
823873
816689
809540
802424
795340
788289
781270
774283
767327
760403
753509
746647
739816
733015
726247
719507
712801
706123
699477
692860
686274
679716
673191
666696
660232
653797
647394
641020
634678
628365
622084
615834
609617
603432
597279
591158
585067
579007
572977
566976
561004
555061
549147
543262
537406
531578
525779
520009
514267
508554
502869
497215
491586
485986
480411
474863
469335
463835
458348
452891
447443
442025
436614
431234
425857
420509
415165
409843
404524
399220
393914
388614
383306
377992
372660
367306
361919
356483
350993
345418
339748
333934
327944
321716
315148
308146
300539
292106
1.89455e+06
1.87288e+06
1.85333e+06
1.83559e+06
1.81929e+06
1.8041e+06
1.78974e+06
1.77604e+06
1.76288e+06
1.75015e+06
1.73778e+06
1.72571e+06
1.7139e+06
1.70229e+06
1.69086e+06
1.67959e+06
1.66846e+06
1.65744e+06
1.64654e+06
1.63574e+06
1.62503e+06
1.61441e+06
1.60387e+06
1.5934e+06
1.583e+06
1.57267e+06
1.56241e+06
1.5522e+06
1.54205e+06
1.53195e+06
1.52191e+06
1.51192e+06
1.50198e+06
1.49209e+06
1.48225e+06
1.47246e+06
1.46272e+06
1.45303e+06
1.44339e+06
1.43379e+06
1.42423e+06
1.41472e+06
1.40525e+06
1.39582e+06
1.38643e+06
1.37707e+06
1.36776e+06
1.35848e+06
1.34923e+06
1.34002e+06
1.33085e+06
1.32171e+06
1.31261e+06
1.30355e+06
1.29452e+06
1.28553e+06
1.27658e+06
1.26766e+06
1.25878e+06
1.24993e+06
1.24111e+06
1.23233e+06
1.22357e+06
1.21485e+06
1.20615e+06
1.19749e+06
1.18886e+06
1.18026e+06
1.17169e+06
1.16315e+06
1.15464e+06
1.14616e+06
1.13772e+06
1.12931e+06
1.12094e+06
1.11259e+06
1.10427e+06
1.09597e+06
1.08769e+06
1.07943e+06
1.07119e+06
1.06298e+06
1.05478e+06
1.04662e+06
1.03849e+06
1.03039e+06
1.02232e+06
1.01428e+06
1.00627e+06
998288
990342
982429
974548
966701
958886
951106
943359
935645
927965
920315
912698
905112
897558
890036
882547
875091
867669
860281
852925
845604
838318
831066
823849
816666
809518
802402
795319
788269
781251
774264
767310
760386
753494
746632
739801
733000
726232
719492
712786
706107
699461
692843
686257
679699
673173
666677
660213
653777
647374
640999
634656
628342
622061
615809
609591
603405
597251
591128
585036
578974
572942
566939
560965
555020
549103
543216
537356
531524
525721
519946
514199
508481
502790
497129
491493
485885
480301
474743
469204
463692
458193
452721
447260
441825
436397
430996
425600
420226
414859
409508
404160
398821
393480
388139
382790
377427
372046
366632
361184
355678
350115
344457
338698
332786
326694
320359
313691
306610
299005
290692
1.89776e+06
1.87638e+06
1.85686e+06
1.83896e+06
1.82243e+06
1.80697e+06
1.79235e+06
1.77841e+06
1.76501e+06
1.75207e+06
1.73951e+06
1.72727e+06
1.71529e+06
1.70354e+06
1.69199e+06
1.6806e+06
1.66936e+06
1.65826e+06
1.64728e+06
1.6364e+06
1.62562e+06
1.61494e+06
1.60435e+06
1.59383e+06
1.58339e+06
1.57302e+06
1.56272e+06
1.55248e+06
1.5423e+06
1.53218e+06
1.52212e+06
1.51211e+06
1.50215e+06
1.49225e+06
1.4824e+06
1.4726e+06
1.46285e+06
1.45315e+06
1.4435e+06
1.43389e+06
1.42433e+06
1.41481e+06
1.40534e+06
1.3959e+06
1.3865e+06
1.37714e+06
1.36782e+06
1.35854e+06
1.34929e+06
1.34007e+06
1.33089e+06
1.32175e+06
1.31265e+06
1.30358e+06
1.29455e+06
1.28556e+06
1.27661e+06
1.26769e+06
1.2588e+06
1.24995e+06
1.24114e+06
1.23235e+06
1.2236e+06
1.21487e+06
1.20617e+06
1.19751e+06
1.18888e+06
1.18027e+06
1.1717e+06
1.16316e+06
1.15465e+06
1.14617e+06
1.13773e+06
1.12932e+06
1.12094e+06
1.11259e+06
1.10427e+06
1.09597e+06
1.08769e+06
1.07942e+06
1.07118e+06
1.06296e+06
1.05476e+06
1.0466e+06
1.03846e+06
1.03036e+06
1.02228e+06
1.01424e+06
1.00623e+06
998254
990308
982395
974515
966668
958854
951075
943328
935615
927935
920286
912669
905083
897529
890007
882519
875064
867643
860254
852899
845578
838292
831039
823823
816640
809492
802376
795294
788245
781227
774241
767288
760365
753473
746612
739782
732981
726213
719473
712766
706088
699441
692823
686236
679678
673152
666655
660191
653755
647351
640976
634632
628317
622035
615782
609563
603376
597221
591097
585004
578940
572906
566900
560924
554976
549057
543166
537303
531468
525660
519881
514129
508406
502710
497042
491399
485784
480191
474623
469074
463550
458039
452553
447077
441625
436181
430759
425344
419946
414556
409175
403800
398427
393053
387671
382282
376871
371441
365971
360465
354893
349260
343525
337683
331683
325501
319074
312334
305196
297607
289411
1.90069e+06
1.87959e+06
1.86012e+06
1.84212e+06
1.8254e+06
1.80971e+06
1.79486e+06
1.78069e+06
1.76708e+06
1.75394e+06
1.7412e+06
1.72879e+06
1.71666e+06
1.70478e+06
1.6931e+06
1.6816e+06
1.67026e+06
1.65907e+06
1.648e+06
1.63705e+06
1.62621e+06
1.61547e+06
1.60482e+06
1.59426e+06
1.58377e+06
1.57337e+06
1.56303e+06
1.55276e+06
1.54255e+06
1.53241e+06
1.52233e+06
1.5123e+06
1.50233e+06
1.49241e+06
1.48255e+06
1.47274e+06
1.46299e+06
1.45328e+06
1.44362e+06
1.43401e+06
1.42444e+06
1.41491e+06
1.40543e+06
1.39598e+06
1.38658e+06
1.37722e+06
1.36789e+06
1.35859e+06
1.34934e+06
1.34012e+06
1.33094e+06
1.32179e+06
1.31269e+06
1.30362e+06
1.29459e+06
1.28559e+06
1.27663e+06
1.26771e+06
1.25883e+06
1.24998e+06
1.24116e+06
1.23237e+06
1.22361e+06
1.21488e+06
1.20619e+06
1.19752e+06
1.18889e+06
1.18028e+06
1.17171e+06
1.16316e+06
1.15465e+06
1.14617e+06
1.13772e+06
1.12931e+06
1.12093e+06
1.11258e+06
1.10426e+06
1.09596e+06
1.08767e+06
1.07941e+06
1.07116e+06
1.06293e+06
1.05473e+06
1.04656e+06
1.03842e+06
1.03032e+06
1.02225e+06
1.0142e+06
1.00619e+06
998214
990268
982355
974475
966629
958816
951037
943291
935579
927900
920252
912636
905050
897496
889975
882487
875033
867613
860225
852870
845548
838262
831010
823793
816610
809463
802348
795266
788217
781201
774215
767262
760340
753449
746588
739759
732958
726190
719450
712743
706064
699418
692799
686213
679654
673128
666631
660166
653730
647325
640950
634606
628290
622007
615753
609534
603346
597190
591065
584970
578904
572868
566860
560881
554930
549008
543115
537249
531410
525598
519814
514058
508330
502629
496955
491305
485682
480081
474503
468944
463407
457885
452385
446896
441427
435966
430524
425090
419668
414255
408847
403444
398038
392631
387211
381782
376326
370849
365325
359763
354129
348429
342622
336704
330626
324365
317860
311068
303891
296323
288235
1.90339e+06
1.88254e+06
1.86314e+06
1.84508e+06
1.8282e+06
1.81232e+06
1.79726e+06
1.78289e+06
1.76909e+06
1.75576e+06
1.74285e+06
1.73028e+06
1.718e+06
1.70599e+06
1.69419e+06
1.68258e+06
1.67115e+06
1.65986e+06
1.64872e+06
1.6377e+06
1.62679e+06
1.61599e+06
1.60529e+06
1.59468e+06
1.58415e+06
1.57371e+06
1.56334e+06
1.55304e+06
1.54281e+06
1.53264e+06
1.52254e+06
1.51249e+06
1.50251e+06
1.49258e+06
1.48271e+06
1.47289e+06
1.46312e+06
1.45341e+06
1.44374e+06
1.43412e+06
1.42455e+06
1.41502e+06
1.40552e+06
1.39607e+06
1.38666e+06
1.37729e+06
1.36795e+06
1.35865e+06
1.34939e+06
1.34017e+06
1.33098e+06
1.32183e+06
1.31272e+06
1.30365e+06
1.29462e+06
1.28562e+06
1.27666e+06
1.26773e+06
1.25885e+06
1.24999e+06
1.24117e+06
1.23238e+06
1.22362e+06
1.21489e+06
1.20619e+06
1.19753e+06
1.18889e+06
1.18028e+06
1.1717e+06
1.16315e+06
1.15464e+06
1.14616e+06
1.13771e+06
1.1293e+06
1.12092e+06
1.11257e+06
1.10424e+06
1.09594e+06
1.08765e+06
1.07938e+06
1.07113e+06
1.0629e+06
1.05469e+06
1.04652e+06
1.03838e+06
1.03028e+06
1.0222e+06
1.01416e+06
1.00615e+06
998171
990224
982311
974431
966586
958773
950995
943250
935539
927862
920216
912601
905015
897462
889940
882453
875000
867580
860192
852837
845516
838229
830977
823760