/*--------------------------------*- C++ -*----------------------------------*\
| =========                 |                                                 |
| \\      /  F ield         | OpenFOAM: The Open Source CFD Toolbox           |
|  \\    /   O peration     | Version:  2.4.0                                 |
|   \\  /    A nd           | Web:      www.OpenFOAM.org                      |
|    \\/     M anipulation  |                                                 |
\*---------------------------------------------------------------------------*/
FoamFile
{
    version     2.0;
    format      ascii;
    class       volVectorField;
    location    "0.044";
    object      U_0;
}
// * * * * * * * * * * * * * * * * * * * * * * * * * * * * * * * * * * * * * //

dimensions      [0 1 -1 0 0 0 0];

internalField   nonuniform List<vector> 
4400
(
(5.40394 0.316822 0)
(3.3169 0.0606198 0)
(2.57633 0.00169375 0)
(2.24743 -0.00285915 0)
(2.07026 -0.000637675 0)
(2.00902 -0.00121645 0)
(1.94943 3.89542e-05 0)
(1.92519 -0.0013951 0)
(1.98411 0.00295966 0)
(1.4231 -0.089362 0)
(8.68619 0.857269 0)
(7.5454 0.345009 0)
(6.60582 0.116145 0)
(5.95205 0.0527769 0)
(5.48174 0.030235 0)
(5.3046 0.0118664 0)
(5.13641 0.0136986 0)
(5.02601 -0.00739492 0)
(5.15054 0.0397216 0)
(4.46068 -0.167593 0)
(9.89276 0.936771 0)
(10.003 0.478994 0)
(9.4492 0.211629 0)
(8.82189 0.12629 0)
(8.2042 0.0826163 0)
(7.95912 0.0361608 0)
(7.72089 0.0388799 0)
(7.54867 -0.00891318 0)
(7.62963 0.0548723 0)
(7.16019 -0.157327 0)
(10.1239 0.805776 0)
(11.1422 0.502264 0)
(11.2033 0.262472 0)
(10.9227 0.191686 0)
(10.3619 0.143857 0)
(10.1354 0.0679475 0)
(9.88178 0.0708721 0)
(9.71797 -0.000715801 0)
(9.65963 0.060447 0)
(9.43377 -0.175243 0)
(10.0507 0.644039 0)
(11.384 0.4447 0)
(11.8842 0.239712 0)
(12.083 0.209446 0)
(11.7847 0.186411 0)
(11.7019 0.0941067 0)
(11.5182 0.0987553 0)
(11.4472 0.0170068 0)
(11.2774 0.0637852 0)
(11.178 -0.21448 0)
(10.0005 0.507489 0)
(11.3417 0.376792 0)
(11.9354 0.179556 0)
(12.4041 0.17189 0)
(12.392 0.188158 0)
(12.4954 0.0940532 0)
(12.4813 0.108899 0)
(12.5664 0.0279465 0)
(12.4188 0.0718935 0)
(12.3747 -0.239503 0)
(10.0048 0.384415 0)
(11.2614 0.306693 0)
(11.8929 0.126899 0)
(12.3618 0.121611 0)
(12.5255 0.165334 0)
(12.6746 0.0690392 0)
(12.803 0.0888312 0)
(12.9909 0.0272372 0)
(12.9658 0.0513098 0)
(13.0507 -0.19113 0)
(10.008 0.2603 0)
(11.1791 0.243536 0)
(11.8939 0.0774527 0)
(12.2638 0.0698729 0)
(12.4766 0.130413 0)
(12.6487 0.0523404 0)
(12.8376 0.0604865 0)
(13.0132 0.0240211 0)
(13.0928 0.00598235 0)
(13.2669 -0.168567 0)
(9.99354 0.152536 0)
(11.1461 0.145059 0)
(11.9036 0.0474676 0)
(12.1835 0.0346841 0)
(12.3764 0.0997548 0)
(12.6248 0.0056889 0)
(12.8209 0.0391103 0)
(12.9621 -0.000588546 0)
(13.1439 -0.0114188 0)
(13.2034 -0.196526 0)
(9.99355 0.0362644 0)
(11.1312 0.0663822 0)
(11.8798 0.00916438 0)
(12.165 -0.00313346 0)
(12.3531 0.0555105 0)
(12.613 -0.0143557 0)
(12.7815 0.011606 0)
(12.9426 -0.012659 0)
(13.1629 -0.0577248 0)
(13.1608 -0.217163 0)
(9.99305 -0.0705457 0)
(11.1278 -0.033643 0)
(11.8818 -0.0162977 0)
(12.1774 -0.0342222 0)
(12.3363 0.0203126 0)
(12.6118 -0.0588085 0)
(12.7791 -0.0144925 0)
(12.9458 -0.0400388 0)
(13.1585 -0.0821893 0)
(13.1149 -0.19912 0)
(10.004 -0.185405 0)
(11.1378 -0.114849 0)
(11.8881 -0.0544307 0)
(12.1763 -0.0706793 0)
(12.3531 -0.0218905 0)
(12.6368 -0.082528 0)
(12.7867 -0.0401688 0)
(12.9586 -0.0604195 0)
(13.1276 -0.104419 0)
(13.1326 -0.212903 0)
(10.0418 -0.296654 0)
(11.1227 -0.206842 0)
(11.9064 -0.0862452 0)
(12.1666 -0.100978 0)
(12.4324 -0.0620261 0)
(12.6603 -0.118091 0)
(12.8181 -0.0697025 0)
(12.9547 -0.0779405 0)
(13.1339 -0.129548 0)
(13.2035 -0.257816 0)
(10.0795 -0.413428 0)
(11.0892 -0.27793 0)
(11.9638 -0.12817 0)
(12.1817 -0.146124 0)
(12.5553 -0.10979 0)
(12.6498 -0.135063 0)
(12.8301 -0.0910989 0)
(12.8669 -0.0972902 0)
(13.0533 -0.153423 0)
(12.9323 -0.238233 0)
(10.0598 -0.528739 0)
(11.1334 -0.347962 0)
(12.0723 -0.183769 0)
(12.2132 -0.190329 0)
(12.5222 -0.150795 0)
(12.426 -0.148251 0)
(12.5349 -0.107719 0)
(12.401 -0.104594 0)
(12.4709 -0.153446 0)
(12.1077 -0.222228 0)
(10.0634 -0.654705 0)
(11.252 -0.427147 0)
(12.0304 -0.245048 0)
(11.9207 -0.222002 0)
(11.9367 -0.162984 0)
(11.6011 -0.134768 0)
(11.5546 -0.0971497 0)
(11.2734 -0.089352 0)
(11.235 -0.131356 0)
(10.7521 -0.17813 0)
(10.1257 -0.811735 0)
(11.0735 -0.492728 0)
(11.3141 -0.265355 0)
(10.7885 -0.200509 0)
(10.4975 -0.129467 0)
(10.0273 -0.095848 0)
(9.89562 -0.0689371 0)
(9.56368 -0.0626762 0)
(9.49122 -0.0996822 0)
(8.95379 -0.127626 0)
(9.89092 -0.939511 0)
(9.96548 -0.474247 0)
(9.52391 -0.212751 0)
(8.72377 -0.132238 0)
(8.30474 -0.0745548 0)
(7.86171 -0.0526877 0)
(7.71841 -0.0386833 0)
(7.41786 -0.0370679 0)
(7.34203 -0.0639697 0)
(6.79794 -0.0755112 0)
(8.68398 -0.858129 0)
(7.52604 -0.343473 0)
(6.64872 -0.115938 0)
(5.89316 -0.0564969 0)
(5.5394 -0.0263889 0)
(5.23391 -0.019131 0)
(5.12379 -0.0150877 0)
(4.91008 -0.0163356 0)
(4.83577 -0.0297257 0)
(4.38288 -0.0336834 0)
(5.40334 -0.316909 0)
(3.31013 -0.0606473 0)
(2.59057 -0.00132683 0)
(2.22732 0.00172496 0)
(2.08615 0.00178156 0)
(1.9796 -8.42504e-06 0)
(1.93337 -0.000421909 0)
(1.84753 -0.00124141 0)
(1.79483 -0.00283679 0)
(1.58179 0.00693526 0)
(3.23654 -0.385944 0)
(3.23527 -0.379336 0)
(3.44666 -0.464792 0)
(3.3917 -0.389781 0)
(3.19994 -0.23159 0)
(3.11196 -0.135299 0)
(3.74027 0.388016 0)
(4.36533 1.31665 0)
(5.61352 1.2751 0)
(7.32702 0.819696 0)
(8.27998 1.24871 0)
(8.97541 1.31685 0)
(9.54039 -0.080407 0)
(9.92155 -2.07391 0)
(10.1015 -3.29317 0)
(10.3332 -3.97284 0)
(11.2439 -4.53628 0)
(11.9069 -5.12448 0)
(12.5746 -5.59864 0)
(13.0638 -5.87307 0)
(12.8793 -5.79751 0)
(12.8649 -5.65133 0)
(12.9334 -5.60349 0)
(13.3307 -5.20418 0)
(13.5964 -4.89894 0)
(13.8198 -4.16659 0)
(14.0299 -2.70994 0)
(13.6641 -1.53582 0)
(13.3784 -0.447167 0)
(12.8286 0.739194 0)
(11.5345 1.52141 0)
(10.127 1.92284 0)
(9.07832 2.14187 0)
(8.23348 2.07348 0)
(7.4953 1.71179 0)
(6.94351 1.31322 0)
(6.59237 1.08155 0)
(6.37078 0.996579 0)
(6.20157 0.945229 0)
(6.04537 0.862987 0)
(5.89823 0.748487 0)
(5.76891 0.624281 0)
(5.66625 0.508323 0)
(5.58944 0.40988 0)
(5.53899 0.328213 0)
(5.50173 0.265187 0)
(5.48604 0.210553 0)
(5.46292 0.1758 0)
(5.47281 0.132219 0)
(5.43898 0.126759 0)
(5.48642 0.070371 0)
(5.40675 0.116627 0)
(5.53426 -0.00150462 0)
(5.3451 0.162771 0)
(5.63825 -0.121239 0)
(5.23836 0.303059 0)
(5.81725 -0.32908 0)
(5.10569 0.565459 0)
(6.04365 -0.609656 0)
(5.026 0.862003 0)
(6.24319 -0.824818 0)
(5.03204 0.954146 0)
(6.44964 -0.835201 0)
(5.01848 0.774893 0)
(6.7323 -0.681163 0)
(5.03564 0.569277 0)
(6.86172 -0.531138 0)
(5.24217 0.555223 0)
(6.74943 -0.514515 0)
(5.4754 0.681043 0)
(6.5865 -0.568842 0)
(5.66905 0.744708 0)
(6.43179 -0.553009 0)
(5.81776 0.689017 0)
(6.44231 -0.401055 0)
(5.87709 0.646315 0)
(6.48788 -0.279164 0)
(5.97976 0.722942 0)
(6.46676 -0.242074 0)
(6.07261 0.738445 0)
(6.41132 0.00167941 0)
(6.08686 0.745848 0)
(6.29734 0.102046 0)
(5.94987 0.875968 0)
(6.03856 0.314229 0)
(5.70962 0.855633 0)
(5.71861 0.497059 0)
(5.2971 0.987429 0)
(5.35421 0.718935 0)
(5.06314 1.04186 0)
(5.38887 0.996995 0)
(5.27479 1.39613 0)
(5.74131 1.41167 0)
(5.95692 2.13742 0)
(5.71339 2.00787 0)
(5.04231 3.01001 0)
(6.09147 3.06217 0)
(5.02176 5.00309 0)
(5.8086 5.4628 0)
(3.40782 9.65824 0)
(5.45515 -0.439726 0)
(5.48435 -0.382066 0)
(5.71297 -0.380205 0)
(5.54096 -0.356561 0)
(5.37581 -0.15435 0)
(5.56704 -0.123931 0)
(5.34019 0.248249 0)
(5.47806 0.916105 0)
(6.54297 0.622455 0)
(7.80912 0.183367 0)
(8.77199 0.773949 0)
(9.49608 1.0828 0)
(10.4485 -0.291337 0)
(11.0544 -2.1568 0)
(11.5526 -3.33345 0)
(12.0354 -4.16537 0)
(12.7236 -4.79513 0)
(13.2133 -5.29233 0)
(13.3247 -5.7295 0)
(13.1752 -5.89509 0)
(12.9006 -5.74029 0)
(12.9518 -5.71103 0)
(13.3296 -5.7571 0)
(13.7395 -5.39932 0)
(13.695 -5.00193 0)
(13.5269 -4.25231 0)
(13.6465 -2.74716 0)
(13.4099 -1.43679 0)
(13.1484 -0.242258 0)
(12.6367 1.08975 0)
(11.411 2.03194 0)
(10.1028 2.41465 0)
(9.00069 2.53153 0)
(8.01111 2.39827 0)
(7.23225 1.97707 0)
(6.71483 1.502 0)
(6.39048 1.20294 0)
(6.18027 1.07898 0)
(6.02517 1.01236 0)
(5.89296 0.924284 0)
(5.7758 0.803542 0)
(5.67588 0.670045 0)
(5.59793 0.543189 0)
(5.53966 0.434399 0)
(5.50281 0.34436 0)
(5.47435 0.275192 0)
(5.46616 0.216485 0)
(5.44589 0.179095 0)
(5.46255 0.133835 0)
(5.42538 0.127598 0)
(5.48536 0.0698165 0)
(5.38924 0.117064 0)
(5.54858 -0.00505847 0)
(5.31033 0.164587 0)
(5.68611 -0.132474 0)
(5.15976 0.309935 0)
(5.9384 -0.359382 0)
(4.93805 0.589234 0)
(6.29833 -0.67679 0)
(4.72816 0.928812 0)
(6.64501 -0.934296 0)
(4.64922 1.07341 0)
(6.83881 -0.966092 0)
(4.73088 0.925476 0)
(6.79527 -0.839938 0)
(5.03664 0.763372 0)
(6.43449 -0.730099 0)
(5.41262 0.766448 0)
(6.06641 -0.701828 0)
(5.53188 0.878438 0)
(5.86358 -0.767477 0)
(5.6379 0.941319 0)
(5.70097 -0.757381 0)
(5.69633 0.841046 0)
(5.92365 -0.582945 0)
(5.52377 0.826293 0)
(6.20226 -0.524681 0)
(5.67243 0.921219 0)
(6.23972 -0.495711 0)
(5.868 0.897269 0)
(6.53129 -0.253742 0)
(5.89828 0.938295 0)
(6.70937 -0.138431 0)
(6.11936 1.06113 0)
(6.75739 0.0942138 0)
(6.14318 1.09356 0)
(6.64682 0.399389 0)
(5.99609 1.26963 0)
(6.16267 0.569873 0)
(5.66357 1.43059 0)
(5.33291 0.795871 0)
(5.26528 1.67565 0)
(5.13981 0.988981 0)
(5.38328 2.32333 0)
(6.07261 1.92524 0)
(5.62408 3.34915 0)
(5.67566 2.62703 0)
(5.05928 4.89883 0)
(8.30052 4.50604 0)
(5.70631 10.1128 0)
(7.72403 -0.493204 0)
(7.49729 -0.532234 0)
(7.75293 -0.422195 0)
(7.68511 -0.255941 0)
(7.32273 -0.154295 0)
(7.76223 -0.233927 0)
(7.5041 0.246659 0)
(7.67622 0.843388 0)
(8.27259 0.355113 0)
(8.78891 -0.240753 0)
(9.3948 0.429157 0)
(10.3332 0.785825 0)
(11.7955 -0.584041 0)
(12.4869 -2.29563 0)
(13.0548 -3.45173 0)
(13.53 -4.27468 0)
(13.6781 -4.88763 0)
(13.6616 -5.3786 0)
(13.4886 -5.673 0)
(12.8997 -5.77113 0)
(12.6565 -5.76622 0)
(13.0566 -5.88731 0)
(13.2784 -5.98074 0)
(13.5274 -5.48039 0)
(13.3985 -4.87858 0)
(13.0137 -4.12431 0)
(12.7997 -2.72283 0)
(12.5726 -1.34145 0)
(12.4176 -0.0424294 0)
(12.1235 1.38715 0)
(11.169 2.44703 0)
(9.80188 2.8885 0)
(8.59867 2.99421 0)
(7.71853 2.78764 0)
(7.05528 2.26456 0)
(6.55366 1.69546 0)
(6.20222 1.32368 0)
(5.97181 1.15332 0)
(5.81892 1.06337 0)
(5.70893 0.965127 0)
(5.62493 0.838417 0)
(5.5599 0.69894 0)
(5.51276 0.56563 0)
(5.47851 0.450645 0)
(5.45953 0.355516 0)
(5.44285 0.282292 0)
(5.44403 0.220947 0)
(5.42769 0.181303 0)
(5.45176 0.135177 0)
(5.41137 0.127443 0)
(5.48428 0.0697346 0)
(5.37118 0.115759 0)
(5.5628 -0.00679178 0)
(5.27499 0.162804 0)
(5.73058 -0.138996 0)
(5.0854 0.308536 0)
(6.03799 -0.379199 0)
(4.80175 0.593406 0)
(6.4679 -0.724423 0)
(4.54669 0.955521 0)
(6.80739 -1.0142 0)
(4.54682 1.12732 0)
(6.7455 -1.06747 0)
(4.89414 1.00716 0)
(6.20654 -0.996195 0)
(5.46967 0.905984 0)
(5.49794 -0.922125 0)
(5.81251 0.917549 0)
(5.19018 -0.850148 0)
(5.72583 1.01109 0)
(5.26165 -0.917163 0)
(5.64077 1.09589 0)
(5.39279 -0.917751 0)
(5.67092 0.962463 0)
(5.6676 -0.690885 0)
(5.4942 0.941533 0)
(5.92292 -0.701429 0)
(5.57276 1.12354 0)
(5.95419 -0.749435 0)
(5.74096 1.0876 0)
(6.18177 -0.464123 0)
(5.79721 1.12606 0)
(6.40783 -0.459367 0)
(6.03523 1.30323 0)
(6.65388 -0.155975 0)
(6.25233 1.30164 0)
(6.94034 0.0834084 0)
(6.44 1.53641 0)
(7.01885 0.431959 0)
(6.33947 1.67439 0)
(6.751 0.761854 0)
(5.95775 1.836 0)
(6.19271 1.04023 0)
(5.08429 2.32259 0)
(6.48073 1.45195 0)
(5.7896 3.6066 0)
(7.92583 2.78333 0)
(4.5569 5.61157 0)
(8.47514 3.912 0)
(6.6057 10.1549 0)
(9.96328 -0.398401 0)
(9.60796 -0.4985 0)
(9.64242 -0.468237 0)
(9.60136 -0.158767 0)
(9.17772 -0.0829324 0)
(9.62619 -0.362781 0)
(9.36542 0.138696 0)
(9.76423 0.783788 0)
(10.3504 0.269164 0)
(10.5 -0.419783 0)
(10.5572 0.15121 0)
(11.561 0.320549 0)
(13.1123 -1.04233 0)
(13.6278 -2.53104 0)
(13.9768 -3.6109 0)
(14.0762 -4.35995 0)
(13.9591 -4.83336 0)
(13.636 -5.30523 0)
(13.0526 -5.57441 0)
(12.5711 -5.63474 0)
(12.5519 -5.88479 0)
(13.0663 -6.06429 0)
(12.9771 -6.03014 0)
(12.5835 -5.51675 0)
(12.3507 -4.73148 0)
(12.0655 -3.89536 0)
(11.7418 -2.56781 0)
(11.3606 -1.23142 0)
(11.3501 0.0677137 0)
(11.2781 1.58759 0)
(10.488 2.8102 0)
(9.31904 3.36868 0)
(8.28905 3.39818 0)
(7.40959 3.06848 0)
(6.71876 2.48505 0)
(6.25781 1.87589 0)
(5.9517 1.45941 0)
(5.73867 1.24878 0)
(5.59544 1.12946 0)
(5.5062 1.01111 0)
(5.45523 0.870067 0)
(5.42774 0.719716 0)
(5.4153 0.57814 0)
(5.40887 0.457048 0)
(5.41073 0.358003 0)
(5.40795 0.282104 0)
(5.41982 0.21992 0)
(5.40824 0.178934 0)
(5.44029 0.134033 0)
(5.39664 0.123973 0)
(5.4835 0.0701771 0)
(5.35125 0.109899 0)
(5.5797 -0.00311168 0)
(5.23227 0.151059 0)
(5.78459 -0.130362 0)
(4.9868 0.286265 0)
(6.1594 -0.368823 0)
(4.60725 0.56801 0)
(6.6636 -0.73928 0)
(4.27818 0.982938 0)
(6.96897 -1.12016 0)
(4.40035 1.28738 0)
(6.62611 -1.31174 0)
(5.05551 1.2829 0)
(5.76957 -1.31074 0)
(5.71855 1.17096 0)
(5.21987 -1.14186 0)
(5.8292 1.07276 0)
(5.40324 -0.960554 0)
(5.5161 1.11479 0)
(5.89464 -1.02554 0)
(5.28769 1.23254 0)
(6.19884 -1.07386 0)
(5.3853 1.09895 0)
(6.36245 -0.846394 0)
(5.27122 1.09249 0)
(6.60448 -0.930642 0)
(5.3824 1.31937 0)
(6.52753 -0.997191 0)
(5.57684 1.26021 0)
(6.80147 -0.747711 0)
(5.54171 1.34327 0)
(7.00101 -0.744213 0)
(5.77072 1.50703 0)
(7.33346 -0.539332 0)
(5.95868 1.53752 0)
(7.67003 -0.216785 0)
(6.21886 1.7642 0)
(8.04504 0.11313 0)
(6.43092 2.02768 0)
(8.08443 0.582957 0)
(6.42892 2.32391 0)
(7.44641 0.975601 0)
(5.51737 2.84216 0)
(6.5175 0.742811 0)
(4.79709 3.56764 0)
(8.78083 1.8153 0)
(6.0085 5.36342 0)
(11.3849 2.77078 0)
(7.9999 9.54261 0)
(11.7235 -0.330862 0)
(11.3736 -0.415592 0)
(11.4006 -0.469012 0)
(11.2929 -0.0423848 0)
(10.8145 0.00693559 0)
(11.1615 -0.477365 0)
(10.9025 0.0125587 0)
(11.3779 0.654466 0)
(12.0318 0.130824 0)
(12.1767 -0.521052 0)
(11.9391 -0.0355022 0)
(12.9493 -0.112966 0)
(14.1643 -1.4218 0)
(14.4766 -2.64564 0)
(14.7306 -3.56801 0)
(14.3873 -4.27174 0)
(13.9199 -4.76067 0)
(13.5336 -5.13068 0)
(12.6829 -5.38424 0)
(12.3382 -5.62951 0)
(12.5313 -6.03807 0)
(12.5602 -6.13614 0)
(12.2801 -5.7496 0)
(11.4511 -5.23194 0)
(10.9968 -4.56053 0)
(10.7878 -3.68763 0)
(10.4749 -2.39965 0)
(10.0766 -1.12768 0)
(10.0916 0.127803 0)
(10.1155 1.73729 0)
(9.55141 3.12457 0)
(8.66061 3.73789 0)
(7.7353 3.75731 0)
(6.91204 3.39981 0)
(6.3222 2.73084 0)
(5.92727 2.0272 0)
(5.64088 1.54808 0)
(5.43885 1.29864 0)
(5.31824 1.15313 0)
(5.26573 1.01836 0)
(5.25986 0.86911 0)
(5.27779 0.716136 0)
(5.30523 0.574984 0)
(5.33038 0.455154 0)
(5.35596 0.357482 0)
(5.36943 0.281839 0)
(5.3935 0.220356 0)
(5.3881 0.177882 0)
(5.42812 0.134668 0)
(5.38274 0.120532 0)
(5.48119 0.0725899 0)
(5.33462 0.101833 0)
(5.59014 0.00479886 0)
(5.20134 0.133295 0)
(5.81512 -0.111821 0)
(4.9269 0.251246 0)
(6.21172 -0.340441 0)
(4.514 0.520692 0)
(6.71041 -0.73365 0)
(4.19378 0.979363 0)
(6.92773 -1.21043 0)
(4.45719 1.40194 0)
(6.38539 -1.50573 0)
(5.29649 1.45864 0)
(5.46662 -1.48479 0)
(5.85656 1.2985 0)
(5.23093 -1.21548 0)
(5.69493 1.13813 0)
(5.68567 -1.00604 0)
(5.33368 1.17329 0)
(6.01624 -1.13726 0)
(5.28594 1.37327 0)
(5.87575 -1.30648 0)
(5.48273 1.26145 0)
(5.81301 -1.02912 0)
(5.35089 1.19761 0)
(6.03544 -1.15106 0)
(5.42898 1.54881 0)
(5.90753 -1.28984 0)
(5.54874 1.39184 0)
(6.32299 -0.941554 0)
(5.3961 1.52124 0)
(6.65909 -1.15144 0)
(5.66537 1.71392 0)
(7.21635 -0.894338 0)
(5.74215 1.72791 0)
(7.87746 -0.802292 0)
(6.27328 1.99523 0)
(8.75827 -0.477346 0)
(6.60791 2.2158 0)
(9.89388 -0.0496659 0)
(7.27777 2.585 0)
(10.6452 0.75045 0)
(6.80194 3.30353 0)
(10.7083 1.49466 0)
(4.55844 4.02342 0)
(9.65161 1.70218 0)
(4.15179 5.98088 0)
(10.4105 1.50624 0)
(8.94953 8.78109 0)
(12.871 -0.334494 0)
(12.5729 -0.377254 0)
(12.6795 -0.478816 0)
(12.5105 0.0753408 0)
(12.1831 0.133872 0)
(12.306 -0.540615 0)
(11.9868 -0.118135 0)
(12.496 0.501948 0)
(13.1994 -0.0121856 0)
(13.3866 -0.572158 0)
(13.1229 -0.16801 0)
(14.0936 -0.434154 0)
(14.8305 -1.6336 0)
(14.972 -2.73666 0)
(15.0107 -3.50516 0)
(14.4791 -4.06729 0)
(13.8294 -4.59798 0)
(13.2427 -4.92083 0)
(12.6178 -5.14047 0)
(12.4779 -5.55984 0)
(12.3723 -5.97826 0)
(11.5095 -5.95479 0)
(10.7897 -5.48233 0)
(10.1154 -4.93112 0)
(9.66308 -4.35963 0)
(9.5735 -3.47658 0)
(9.26865 -2.20171 0)
(8.79882 -1.01487 0)
(8.73089 0.223712 0)
(8.81585 1.87101 0)
(8.48284 3.30609 0)
(7.7618 4.02173 0)
(6.95649 4.09401 0)
(6.31753 3.66437 0)
(5.91858 2.92045 0)
(5.65734 2.18733 0)
(5.41909 1.68451 0)
(5.21281 1.39816 0)
(5.0891 1.21068 0)
(5.0573 1.04031 0)
(5.08907 0.867057 0)
(5.14761 0.700885 0)
(5.20999 0.554327 0)
(5.26166 0.433615 0)
(5.3065 0.338018 0)
(5.33304 0.264908 0)
(5.36735 0.207619 0)
(5.36714 0.166475 0)
(5.41522 0.128791 0)
(5.36732 0.111211 0)
(5.47963 0.0737509 0)
(5.31451 0.0888761 0)
(5.60549 0.0164311 0)
(5.16057 0.108554 0)
(5.85828 -0.0832716 0)
(4.84506 0.206779 0)
(6.28481 -0.296207 0)
(4.38554 0.466945 0)
(6.78531 -0.71493 0)
(4.05445 0.990524 0)
(6.94913 -1.31939 0)
(4.39284 1.59122 0)
(6.28305 -1.75138 0)
(5.36024 1.72898 0)
(5.30198 -1.66756 0)
(5.86945 1.43223 0)
(5.1879 -1.2592 0)
(5.52245 1.15777 0)
(5.68985 -1.06868 0)
(5.19731 1.25866 0)
(5.74357 -1.3044 0)
(5.39229 1.50597 0)
(5.48907 -1.47182 0)
(5.43044 1.36656 0)
(5.72369 -1.11816 0)
(5.18906 1.31258 0)
(5.92254 -1.30821 0)
(5.33344 1.72741 0)
(5.80996 -1.45586 0)
(5.32689 1.54443 0)
(6.33224 -1.11648 0)
(5.05112 1.76771 0)
(6.4532 -1.37149 0)
(5.3122 1.9176 0)
(6.98553 -1.10491 0)
(5.01021 2.06414 0)
(7.54664 -1.12551 0)
(5.35373 2.2592 0)
(8.74296 -0.81723 0)
(5.24444 2.45999 0)
(10.4583 -0.690293 0)
(5.90998 2.78283 0)
(12.6669 0.0305809 0)
(6.64875 3.28193 0)
(14.8175 0.646477 0)
(7.26924 4.30942 0)
(14.5182 1.14673 0)
(7.42448 6.10968 0)
(10.5646 1.26654 0)
(8.63184 8.0765 0)
(13.2257 -0.327806 0)
(13.079 -0.432167 0)
(13.3427 -0.543506 0)
(13.0632 0.136623 0)
(13.0937 0.224123 0)
(13.0606 -0.493314 0)
(12.6511 -0.219977 0)
(13.0705 0.271879 0)
(13.7014 -0.223398 0)
(13.8352 -0.606816 0)
(13.7762 -0.291576 0)
(14.6357 -0.662082 0)
(15.0374 -1.72157 0)
(15.1823 -2.74057 0)
(14.8263 -3.38328 0)
(14.2353 -3.8738 0)
(13.8315 -4.35487 0)
(13.1224 -4.66556 0)
(12.6225 -5.05963 0)
(12.487 -5.51269 0)
(11.8097 -5.69047 0)
(10.3952 -5.4625 0)
(9.32693 -5.09888 0)
(8.7042 -4.76463 0)
(8.36044 -4.26928 0)
(8.28079 -3.39091 0)
(8.07946 -2.06557 0)
(7.65132 -0.883292 0)
(7.48794 0.273383 0)
(7.57474 1.85938 0)
(7.32486 3.40464 0)
(6.73198 4.26155 0)
(6.16819 4.32951 0)
(5.75846 3.83625 0)
(5.50017 3.03587 0)
(5.26611 2.27224 0)
(5.0214 1.75327 0)
(4.84626 1.43865 0)
(4.78843 1.2138 0)
(4.82985 1.01559 0)
(4.92456 0.832286 0)
(5.03084 0.669704 0)
(5.12747 0.532689 0)
(5.20318 0.421219 0)
(5.26491 0.33263 0)
(5.30299 0.262539 0)
(5.3458 0.207856 0)
(5.35042 0.164474 0)
(5.40413 0.130574 0)
(5.35566 0.10489 0)
(5.47617 0.0800803 0)
(5.30131 0.0733772 0)
(5.61094 0.0353426 0)
(5.13856 0.0756402 0)
(5.87146 -0.0418787 0)
(4.81254 0.149395 0)
(6.28484 -0.233366 0)
(4.36373 0.395338 0)
(6.72327 -0.669717 0)
(4.08367 0.956019 0)
(6.79186 -1.36373 0)
(4.48195 1.66882 0)
(6.07116 -1.86555 0)
(5.4903 1.85302 0)
(5.1327 -1.70653 0)
(5.95463 1.449 0)
(5.15808 -1.20726 0)
(5.48816 1.13778 0)
(5.76848 -1.09282 0)
(5.16073 1.35613 0)
(5.80558 -1.47076 0)
(5.44141 1.66774 0)
(5.63988 -1.61465 0)
(5.387 1.47148 0)
(5.96513 -1.22993 0)
(5.20488 1.43453 0)
(5.98096 -1.54021 0)
(5.36694 1.91792 0)
(5.89775 -1.68524 0)
(5.31691 1.59516 0)
(6.3098 -1.26828 0)
(5.12814 1.90645 0)
(6.29144 -1.73412 0)
(5.39148 2.01493 0)
(6.63579 -1.30981 0)
(4.98447 2.14105 0)
(6.92505 -1.49957 0)
(5.24861 2.39646 0)
(7.30158 -1.06551 0)
(4.70396 2.70347 0)
(7.89355 -1.11211 0)
(4.80755 3.22135 0)
(9.05138 -0.563988 0)
(5.19884 3.83671 0)
(10.7797 -0.253691 0)
(7.02247 4.84578 0)
(12.9462 0.429481 0)
(9.22778 6.27234 0)
(13.3521 1.91874 0)
(9.46054 7.10624 0)
(13.0571 -0.311559 0)
(13.1955 -0.502983 0)
(13.3223 -0.506915 0)
(13.0079 0.162865 0)
(13.4629 0.176287 0)
(13.2983 -0.408202 0)
(13.1016 -0.216149 0)
(13.4094 0.105388 0)
(13.6752 -0.359553 0)
(13.5944 -0.637641 0)
(13.7682 -0.470304 0)
(14.3416 -0.885544 0)
(14.6901 -1.86642 0)
(14.9618 -2.69117 0)
(14.4063 -3.16835 0)
(13.9409 -3.7037 0)
(13.8053 -4.09818 0)
(13.2581 -4.31923 0)
(12.6981 -4.8302 0)
(12.0369 -5.24549 0)
(10.6576 -5.17416 0)
(8.98971 -4.87846 0)
(8.0617 -4.68322 0)
(7.40302 -4.55967 0)
(7.08408 -4.12352 0)
(6.90854 -3.26097 0)
(6.74304 -2.00617 0)
(6.43699 -0.802259 0)
(6.21176 0.431213 0)
(6.06098 2.07454 0)
(5.87992 3.60296 0)
(5.63666 4.39915 0)
(5.3178 4.44435 0)
(5.07726 3.92354 0)
(4.95513 3.11388 0)
(4.83344 2.37287 0)
(4.69685 1.84647 0)
(4.60991 1.48594 0)
(4.62146 1.20941 0)
(4.7219 0.975106 0)
(4.86536 0.774013 0)
(5.00657 0.60646 0)
(5.12292 0.47204 0)
(5.20574 0.366973 0)
(5.26661 0.287275 0)
(5.30101 0.225533 0)
(5.33983 0.180624 0)
(5.3426 0.141884 0)
(5.39495 0.118407 0)
(5.34784 0.0885961 0)
(5.46794 0.0813255 0)
(5.29611 0.0530072 0)
(5.60364 0.0539286 0)
(5.13635 0.0401022 0)
(5.86016 0.00102741 0)
(4.81512 0.0934764 0)
(6.25605 -0.170713 0)
(4.37437 0.333443 0)
(6.66121 -0.623833 0)
(4.09239 0.933633 0)
(6.71307 -1.4016 0)
(4.4447 1.77116 0)
(6.04964 -2.02043 0)
(5.41578 2.0339 0)
(5.18405 -1.80119 0)
(5.85791 1.48055 0)
(5.24481 -1.15782 0)
(5.33971 1.11537 0)
(5.84662 -1.1353 0)
(5.04531 1.4881 0)
(5.73143 -1.66714 0)
(5.44233 1.80794 0)
(5.40969 -1.69878 0)
(5.35558 1.49711 0)
(5.61826 -1.33084 0)
(5.19197 1.59809 0)
(5.49137 -1.75038 0)
(5.40944 2.04972 0)
(5.57477 -1.7503 0)
(5.11154 1.72167 0)
(5.92285 -1.47078 0)
(5.14591 2.13452 0)
(5.89414 -1.94691 0)
(5.15241 2.14201 0)
(6.44307 -1.46646 0)
(4.94765 2.3555 0)
(6.6353 -1.83475 0)
(5.18651 2.4689 0)
(7.13203 -1.321 0)
(5.11443 2.72864 0)
(7.32336 -1.53309 0)
(5.37143 3.11028 0)
(7.61682 -1.09953 0)
(5.74471 3.93977 0)
(7.49023 -1.19141 0)
(6.61498 5.20192 0)
(9.53161 -0.47296 0)
(8.27188 6.2484 0)
(12.9945 2.0372 0)
(10.5074 6.56794 0)
(13.0715 -0.363304 0)
(13.2604 -0.517192 0)
(12.8885 -0.340393 0)
(12.999 0.148471 0)
(13.493 0.113254 0)
(13.274 -0.363185 0)
(13.3533 -0.293777 0)
(13.2988 -0.00523352 0)
(13.4379 -0.346714 0)
(13.5205 -0.625861 0)
(13.667 -0.594684 0)
(13.8977 -1.05365 0)
(14.312 -1.99458 0)
(14.3695 -2.62503 0)
(13.8467 -3.02076 0)
(13.7239 -3.57641 0)
(13.4704 -3.91332 0)
(12.8836 -4.14905 0)
(12.3503 -4.56149 0)
(11.179 -4.6985 0)
(9.19172 -4.44522 0)
(7.43024 -4.28514 0)
(6.58189 -4.4038 0)
(5.89009 -4.43542 0)
(5.64954 -4.01424 0)
(5.43382 -3.14264 0)
(5.2869 -1.91982 0)
(5.02765 -0.688424 0)
(4.85162 0.531337 0)
(4.70985 2.07578 0)
(4.63431 3.54021 0)
(4.46388 4.40789 0)
(4.29495 4.50184 0)
(4.31849 3.96505 0)
(4.4077 3.16494 0)
(4.42841 2.43879 0)
(4.38483 1.90693 0)
(4.39407 1.518 0)
(4.52103 1.20385 0)
(4.72661 0.944572 0)
(4.9384 0.740509 0)
(5.10606 0.586142 0)
(5.21762 0.469866 0)
(5.28036 0.378592 0)
(5.3182 0.305717 0)
(5.33396 0.243276 0)
(5.35826 0.195994 0)
(5.35368 0.149808 0)
(5.39709 0.126646 0)
(5.35246 0.084919 0)
(5.46004 0.0903638 0)
(5.30537 0.0361284 0)
(5.58254 0.076061 0)
(5.1633 0.00317918 0)
(5.81358 0.0492858 0)
(4.87726 0.0314469 0)
(6.16347 -0.0942345 0)
(4.48786 0.254797 0)
(6.49921 -0.54305 0)
(4.24837 0.861323 0)
(6.49312 -1.36733 0)
(4.55512 1.75549 0)
(5.89899 -2.05457 0)
(5.41442 2.05607 0)
(5.14221 -1.76051 0)
(5.87054 1.39043 0)
(5.11637 -1.01287 0)
(5.43312 1.00187 0)
(5.63633 -1.10056 0)
(5.13521 1.55667 0)
(5.56643 -1.7738 0)
(5.5313 1.90643 0)
(5.28487 -1.72986 0)
(5.46804 1.54038 0)
(5.5249 -1.36579 0)
(5.245 1.66071 0)
(5.5955 -1.85307 0)
(5.36692 2.14843 0)
(5.68372 -1.89674 0)
(5.16198 1.80202 0)
(5.91785 -1.65484 0)
(5.1861 2.24902 0)
(5.89758 -2.16768 0)
(5.14647 2.26597 0)
(6.26489 -1.6995 0)
(4.99271 2.50485 0)
(6.23853 -2.18916 0)
(5.12069 2.74001 0)
(6.63671 -1.62113 0)
(4.96719 3.07769 0)
(6.63759 -1.98285 0)
(5.27097 3.45315 0)
(7.28155 -1.54304 0)
(5.87878 4.26462 0)
(7.50793 -1.57384 0)
(6.74704 5.0751 0)
(8.51865 -0.900833 0)
(7.68881 5.76529 0)
(10.6425 1.40239 0)
(10.8093 5.96675 0)
(13.0939 -0.311226 0)
(12.9676 -0.339182 0)
(12.7952 -0.235234 0)
(13.3203 0.0151347 0)
(13.5393 -0.0122675 0)
(13.311 -0.401536 0)
(12.9078 -0.205482 0)
(13.0105 0.0156786 0)
(13.8338 -0.468783 0)
(13.905 -0.698439 0)
(13.6694 -0.661503 0)
(13.8269 -1.20339 0)
(14.0636 -2.00535 0)
(13.7929 -2.43893 0)
(13.5098 -2.87915 0)
(13.4179 -3.43604 0)
(12.8639 -3.70458 0)
(12.2075 -3.92722 0)
(11.4881 -4.13857 0)
(9.75235 -3.97902 0)
(7.4671 -3.70218 0)
(5.97231 -3.76725 0)
(5.22399 -4.1025 0)
(4.51189 -4.25116 0)
(4.26268 -3.8451 0)
(3.94152 -3.01441 0)
(3.75068 -1.85045 0)
(3.5345 -0.601972 0)
(3.39064 0.669641 0)
(3.28894 2.19612 0)
(3.15645 3.62372 0)
(3.13893 4.43556 0)
(3.32004 4.45441 0)
(3.60157 3.89717 0)
(3.87997 3.11108 0)
(4.00902 2.40784 0)
(4.04961 1.86433 0)
(4.15808 1.42121 0)
(4.34672 1.05916 0)
(4.54533 0.789533 0)
(4.70905 0.604758 0)
(4.83374 0.479001 0)
(4.93511 0.387721 0)
(5.02276 0.314332 0)
(5.10586 0.254647 0)
(5.17379 0.201933 0)
(5.24271 0.164646 0)
(5.27811 0.124078 0)
(5.3425 0.111297 0)
(5.32691 0.0673627 0)
(5.42767 0.0889791 0)
(5.31305 0.0163398 0)
(5.5416 0.0916353 0)
(5.21088 -0.0305052 0)
(5.73547 0.0893984 0)
(4.98676 -0.0230103 0)
(6.02449 -0.0278798 0)
(4.66897 0.18848 0)
(6.29922 -0.468948 0)
(4.44542 0.804057 0)
(6.30424 -1.33041 0)
(4.60511 1.75258 0)
(5.90652 -2.09109 0)
(5.23329 2.121 0)
(5.3217 -1.77643 0)
(5.71815 1.35414 0)
(5.16403 -0.905981 0)
(5.43341 0.869762 0)
(5.63363 -1.0349 0)
(5.07195 1.59439 0)
(5.68422 -1.82814 0)
(5.44791 2.01676 0)
(5.31437 -1.64237 0)
(5.42958 1.52311 0)
(5.49437 -1.34094 0)
(5.22013 1.80538 0)
(5.47365 -2.00487 0)
(5.38028 2.2238 0)
(5.48306 -1.89517 0)
(5.10325 1.86556 0)
(5.69553 -1.82847 0)
(5.21139 2.42223 0)
(5.70541 -2.30524 0)
(5.09667 2.33038 0)
(6.0638 -1.91144 0)
(5.08852 2.74749 0)
(6.14344 -2.45694 0)
(5.17123 2.81339 0)
(6.54781 -1.95413 0)
(5.40504 3.26912 0)
(6.47975 -2.39388 0)
(5.68407 3.49095 0)
(6.90525 -1.99544 0)
(6.21974 4.35562 0)
(6.95275 -1.75248 0)
(6.77149 4.96384 0)
(7.53994 -0.843326 0)
(7.74106 5.28159 0)
(8.51696 0.977535 0)
(10.2443 5.23058 0)
(12.9463 -0.2042 0)
(13.1029 -0.343526 0)
(13.2986 -0.393167 0)
(13.174 -0.0386974 0)
(13.1806 0.0476989 0)
(13.1126 -0.182998 0)
(13.0127 -0.185176 0)
(13.6756 -0.482136 0)
(13.8156 -0.733974 0)
(13.3546 -0.478857 0)
(13.5778 -0.551742 0)
(13.9605 -1.24193 0)
(13.8838 -1.88907 0)
(13.5776 -2.29861 0)
(13.3683 -2.83039 0)
(12.9111 -3.25509 0)
(12.1864 -3.38402 0)
(11.3871 -3.5659 0)
(10.0998 -3.5606 0)
(7.95473 -3.15284 0)
(5.83669 -2.96573 0)
(4.62045 -3.30992 0)
(3.90066 -3.82841 0)
(3.21647 -4.05968 0)
(2.89119 -3.65173 0)
(2.45823 -2.86112 0)
(2.13624 -1.7659 0)
(1.96927 -0.476074 0)
(1.72692 0.840799 0)
(1.67385 2.34325 0)
(1.77231 3.60708 0)
(2.07092 4.27762 0)
(2.41899 4.277 0)
(2.92217 3.72266 0)
(3.36381 2.98666 0)
(3.5643 2.35643 0)
(3.74618 1.82912 0)
(4.03177 1.37392 0)
(4.34971 1.01878 0)
(4.6269 0.770303 0)
(4.84509 0.600914 0)
(5.01133 0.478391 0)
(5.13619 0.383271 0)
(5.22358 0.3051 0)
(5.28331 0.24314 0)
(5.31576 0.189865 0)
(5.34325 0.154346 0)
(5.34786 0.113786 0)
(5.3782 0.104971 0)
(5.35848 0.0572645 0)
(5.42244 0.0886872 0)
(5.34599 0.00174015 0)
(5.49626 0.103191 0)
(5.28646 -0.0586913 0)
(5.62454 0.123234 0)
(5.15349 -0.0754266 0)
(5.81674 0.039228 0)
(4.9549 0.110016 0)
(5.99976 -0.366738 0)
(4.78103 0.702425 0)
(6.00753 -1.21268 0)
(4.79068 1.64021 0)
(5.79307 -1.99835 0)
(5.1523 2.0552 0)
(5.38229 -1.69951 0)
(5.63661 1.27545 0)
(5.07592 -0.746573 0)
(5.57296 0.674503 0)
(5.37263 -0.826357 0)
(5.20943 1.4383 0)
(5.44643 -1.77748 0)
(5.50972 2.05332 0)
(5.00821 -1.68281 0)
(5.61454 1.53733 0)
(5.10642 -1.33753 0)
(5.3303 1.77436 0)
(5.24002 -1.94888 0)
(5.39065 2.23736 0)
(5.29286 -1.81718 0)
(5.22585 1.89696 0)
(5.4565 -1.82155 0)
(5.20692 2.45663 0)
(5.54047 -2.31911 0)
(5.14825 2.41599 0)
(5.73663 -2.02991 0)
(5.11297 2.82089 0)
(5.88873 -2.63342 0)
(5.2132 3.0133 0)
(6.12043 -2.24342 0)
(5.32814 3.52614 0)
(6.27477 -2.59553 0)
(5.7011 3.7189 0)
(6.66123 -2.17151 0)
(6.32767 4.46384 0)
(7.08604 -1.71515 0)
(7.00129 4.64726 0)
(7.47813 -0.893108 0)
(8.0607 4.60099 0)
(8.38765 0.999654 0)
(9.69216 4.29022 0)
(13.2047 -0.299432 0)
(13.3322 -0.410856 0)
(12.9213 -0.135674 0)
(12.7416 0.180777 0)
(13.2582 -0.0519609 0)
(13.4785 -0.351376 0)
(13.5395 -0.374941 0)
(13.3106 -0.375724 0)
(12.8614 -0.40704 0)
(13.2165 -0.55712 0)
(13.7205 -0.840649 0)
(13.6278 -1.25484 0)
(13.5233 -1.70481 0)
(13.4691 -2.133 0)
(13.0588 -2.61741 0)
(12.2229 -2.94022 0)
(11.3351 -3.05437 0)
(10.201 -3.07827 0)
(8.34584 -2.77999 0)
(6.03494 -2.32805 0)
(4.24381 -2.38074 0)
(3.29766 -2.94717 0)
(2.63077 -3.58045 0)
(1.87128 -3.82097 0)
(1.36833 -3.41224 0)
(0.852235 -2.65529 0)
(0.422375 -1.67318 0)
(0.422086 -0.415912 0)
(0.20981 0.832214 0)
(0.286053 2.25416 0)
(0.546424 3.4602 0)
(0.910951 4.09298 0)
(1.52922 4.0337 0)
(2.32384 3.48338 0)
(2.81568 2.86764 0)
(3.15124 2.29241 0)
(3.59143 1.72304 0)
(4.0659 1.2252 0)
(4.44878 0.863145 0)
(4.71075 0.630513 0)
(4.87948 0.486168 0)
(4.98925 0.391806 0)
(5.06601 0.324282 0)
(5.12354 0.269552 0)
(5.17358 0.224518 0)
(5.21512 0.181084 0)
(5.25857 0.150275 0)
(5.2882 0.110455 0)
(5.32915 0.102276 0)
(5.33962 0.0523452 0)
(5.38562 0.0866367 0)
(5.36643 -0.00626309 0)
(5.43498 0.105872 0)
(5.3697 -0.0738195 0)
(5.48894 0.13899 0)
(5.35068 -0.107712 0)
(5.55828 0.0836662 0)
(5.30102 0.047456 0)
(5.63905 -0.276142 0)
(5.17946 0.606291 0)
(5.71328 -1.08138 0)
(4.9697 1.52466 0)
(5.77845 -1.87879 0)
(4.96232 1.99502 0)
(5.60516 -1.65192 0)
(5.39616 1.24426 0)
(5.14362 -0.667409 0)
(5.64626 0.534026 0)
(5.13157 -0.680455 0)
(5.38455 1.28818 0)
(5.38072 -1.71627 0)
(5.39101 2.01906 0)
(5.1732 -1.54879 0)
(5.63545 1.4219 0)
(5.14094 -1.16555 0)
(5.36714 1.73065 0)
(5.39337 -1.91817 0)
(5.29667 2.24345 0)
(5.39065 -1.72702 0)
(5.28914 1.84382 0)
(5.45719 -1.83045 0)
(5.19328 2.52044 0)
(5.60897 -2.24028 0)
(5.21696 2.40263 0)
(5.70946 -1.97866 0)
(5.22185 2.91692 0)
(5.96563 -2.63054 0)
(5.28514 2.99702 0)
(6.09121 -2.25602 0)
(5.53904 3.58107 0)
(6.35254 -2.63301 0)
(5.99838 3.59405 0)