/*--------------------------------*- C++ -*----------------------------------*\
| =========                 |                                                 |
| \\      /  F ield         | OpenFOAM: The Open Source CFD Toolbox           |
|  \\    /   O peration     | Version:  2.4.0                                 |
|   \\  /    A nd           | Web:      www.OpenFOAM.org                      |
|    \\/     M anipulation  |                                                 |
\*---------------------------------------------------------------------------*/
FoamFile
{
    version     2.0;
    format      ascii;
    class       surfaceScalarField;
    location    "0.151";
    object      phi_0;
}
// * * * * * * * * * * * * * * * * * * * * * * * * * * * * * * * * * * * * * //

dimensions      [0 3 -1 0 0 0 0];

internalField   nonuniform List<scalar> 
8640
(
1.14627e-05
1.35373e-05
7.17611e-06
4.28662e-06
5.91972e-06
1.25639e-06
5.37243e-06
5.47292e-07
5.10195e-06
2.70478e-07
4.93045e-06
1.71498e-07
4.83356e-06
9.68931e-08
4.80998e-06
2.35767e-08
4.5039e-06
3.0608e-07
-1.4253e-06
5.9292e-06
2.10468e-05
1.74905e-05
1.7451e-05
7.88244e-06
1.55125e-05
3.19493e-06
1.42714e-05
1.78837e-06
1.34832e-05
1.05866e-06
1.30245e-05
6.30174e-07
1.2729e-05
3.92374e-07
1.2548e-05
2.04664e-07
1.22153e-05
6.38724e-07
-1.57939e-06
1.23694e-05
2.56996e-05
1.67909e-05
2.41018e-05
9.48022e-06
2.2605e-05
4.6917e-06
2.12645e-05
3.12891e-06
2.02046e-05
2.11856e-06
1.95758e-05
1.25897e-06
1.91258e-05
8.42379e-07
1.87954e-05
5.3504e-07
1.86217e-05
8.12492e-07
-9.36602e-07
1.79789e-05
2.74627e-05
1.43282e-05
2.77372e-05
9.20574e-06
2.73576e-05
5.07128e-06
2.65688e-05
3.91772e-06
2.56204e-05
3.06697e-06
2.501e-05
1.86928e-06
2.45316e-05
1.32079e-06
2.40685e-05
9.98194e-07
2.40914e-05
7.89605e-07
-1.18856e-07
2.32736e-05
2.76644e-05
1.16637e-05
2.89119e-05
7.95824e-06
2.95823e-05
4.40092e-06
2.97424e-05
3.75765e-06
2.93467e-05
3.4626e-06
2.90306e-05
2.18545e-06
2.87423e-05
1.60906e-06
2.82675e-05
1.47299e-06
2.83895e-05
6.67645e-07
2.59148e-07
2.80115e-05
2.75257e-05
9.13804e-06
2.89694e-05
6.51452e-06
2.9957e-05
3.41332e-06
3.07735e-05
2.94119e-06
3.10566e-05
3.17945e-06
3.12341e-05
2.00796e-06
3.13789e-05
1.46433e-06
3.11305e-05
1.72134e-06
3.13152e-05
4.82961e-07
7.50646e-07
3.08237e-05
2.74003e-05
6.73774e-06
2.89644e-05
4.95046e-06
2.98667e-05
2.51102e-06
3.07607e-05
2.04714e-06
3.13642e-05
2.57594e-06
3.1819e-05
1.55318e-06
3.23278e-05
9.55549e-07
3.24448e-05
1.60427e-06
3.27585e-05
1.69331e-07
1.3447e-06
3.21644e-05
2.72849e-05
4.45281e-06
2.90161e-05
3.21932e-06
2.97981e-05
1.72899e-06
3.06148e-05
1.2304e-06
3.13046e-05
1.88617e-06
3.18013e-05
1.0565e-06
3.23732e-05
3.83633e-07
3.27463e-05
1.23114e-06
3.31956e-05
-2.79959e-07
4.40991e-07
3.40993e-05
2.72444e-05
2.20837e-06
2.89575e-05
1.50626e-06
2.96938e-05
9.9269e-07
3.05054e-05
4.18741e-07
3.12357e-05
1.1559e-06
3.17552e-05
5.37047e-07
3.23216e-05
-1.82771e-07
3.27664e-05
7.86324e-07
3.32325e-05
-7.46115e-07
-2.19813e-07
3.38933e-05
2.72437e-05
-3.52791e-08
2.89238e-05
-1.73904e-07
2.9646e-05
2.70461e-07
3.04362e-05
-3.71441e-07
3.11626e-05
4.29504e-07
3.1766e-05
-6.63524e-08
3.22986e-05
-7.15372e-07
3.27491e-05
3.3581e-07
3.32885e-05
-1.28545e-06
-6.43917e-07
3.37126e-05
2.72265e-05
-2.26181e-06
2.89233e-05
-1.87066e-06
2.96648e-05
-4.71089e-07
3.03861e-05
-1.0927e-06
3.11584e-05
-3.4277e-07
3.18243e-05
-7.3227e-07
3.22604e-05
-1.15148e-06
3.2789e-05
-1.92811e-07
3.32341e-05
-1.7305e-06
-9.69971e-07
3.35601e-05
2.72623e-05
-4.52411e-06
2.8958e-05
-3.56633e-06
2.967e-05
-1.18308e-06
3.04124e-05
-1.83513e-06
3.12674e-05
-1.19774e-06
3.18411e-05
-1.30603e-06
3.22462e-05
-1.55655e-06
3.28181e-05
-7.64721e-07
3.31407e-05
-2.05306e-06
-1.67856e-06
3.38492e-05
2.73463e-05
-6.87036e-06
2.89349e-05
-5.15497e-06
2.97142e-05
-1.96242e-06
3.05349e-05
-2.65575e-06
3.13614e-05
-2.02424e-06
3.18521e-05
-1.79681e-06
3.2297e-05
-2.00139e-06
3.27925e-05
-1.26021e-06
3.31435e-05
-2.4041e-06
-2.68665e-06
3.41516e-05
2.73944e-05
-9.26474e-06
2.88006e-05
-6.56123e-06
2.98735e-05
-3.03524e-06
3.06865e-05
-3.46877e-06
3.14311e-05
-2.76883e-06
3.18695e-05
-2.23526e-06
3.2195e-05
-2.32682e-06
3.2498e-05
-1.56327e-06
3.27666e-05
-2.67265e-06
-3.22121e-06
3.33011e-05
2.74811e-05
-1.17459e-05
2.88752e-05
-7.95527e-06
3.00308e-05
-4.19088e-06
3.06942e-05
-4.13213e-06
3.11245e-05
-3.1992e-06
3.12522e-05
-2.36298e-06
3.1191e-05
-2.26556e-06
3.11529e-05
-1.52517e-06
3.10464e-05
-2.56618e-06
-3.02112e-06
3.08463e-05
2.76343e-05
-1.43802e-05
2.8871e-05
-9.1919e-06
2.96394e-05
-4.95936e-06
2.96628e-05
-4.15547e-06
2.93909e-05
-2.92731e-06
2.90029e-05
-1.97502e-06
2.85437e-05
-1.80637e-06
2.82164e-05
-1.1978e-06
2.77601e-05
-2.10989e-06
-1.81058e-06
2.65495e-05
2.74389e-05
-1.68191e-05
2.77184e-05
-9.47132e-06
2.73937e-05
-4.63467e-06
2.65017e-05
-3.26354e-06
2.5642e-05
-2.06756e-06
2.49604e-05
-1.29339e-06
2.43384e-05
-1.1844e-06
2.39143e-05
-7.73696e-07
2.33038e-05
-1.49938e-06
-1.03239e-06
2.25256e-05
2.56816e-05
-1.75007e-05
2.40938e-05
-7.88355e-06
2.26269e-05
-3.16775e-06
2.12134e-05
-1.85005e-06
2.02027e-05
-1.05682e-06
1.9528e-05
-6.18713e-07
1.89431e-05
-5.9955e-07
1.85554e-05
-3.85985e-07
1.79065e-05
-8.50464e-07
-4.13641e-07
1.72878e-05
2.1038e-05
-1.35387e-05
1.74451e-05
-4.29071e-06
1.55242e-05
-1.24678e-06
1.42372e-05
-5.6314e-07
1.34632e-05
-2.82813e-07
1.2996e-05
-1.5149e-07
1.25717e-05
-1.75277e-07
1.22929e-05
-1.07102e-07
1.17408e-05
-2.98454e-07
-6.16437e-08
1.13888e-05
1.14613e-05
7.1706e-06
5.92383e-06
5.36069e-06
5.07788e-06
4.92639e-06
4.75111e-06
4.64401e-06
4.34555e-06
4.28391e-06
6.99547e-06
8.89621e-08
-1.15523e-06
8.14201e-06
1.49002e-06
-2.63655e-06
9.12849e-06
1.15842e-06
-2.1449e-06
9.77252e-06
2.14832e-07
-8.58864e-07
1.01966e-05
2.66141e-07
-6.90224e-07
1.13643e-05
3.31581e-07
-1.49927e-06
1.33075e-05
-9.98863e-08
-1.84332e-06
1.44774e-05
1.93814e-06
-3.10802e-06
1.58616e-05
1.85818e-06
-3.24244e-06
1.7202e-05
-6.77663e-08
-1.2726e-06
1.81014e-05
-4.83375e-07
-4.15978e-07
1.9573e-05
-4.40333e-06
2.93169e-06
2.07181e-05
-9.65542e-06
8.51031e-06
2.21197e-05
-8.49782e-06
7.09625e-06
2.3916e-05
-1.03855e-05
8.58923e-06
2.50802e-05
-1.24156e-05
1.12514e-05
2.55258e-05
-1.07363e-05
1.02906e-05
2.61498e-05
-8.68293e-06
8.05897e-06
2.69537e-05
-7.96869e-06
7.16484e-06
2.72005e-05
-6.45742e-06
6.21059e-06
2.74266e-05
-5.86142e-06
5.63528e-06
2.88023e-05
-9.72201e-06
8.34634e-06
2.87733e-05
-1.27412e-05
1.27702e-05
2.84902e-05
-1.3896e-05
1.41791e-05
2.9346e-05
-1.78099e-05
1.69541e-05
2.93042e-05
-2.19667e-05
2.20085e-05
2.87536e-05
-2.47955e-05
2.53462e-05
2.89598e-05
-2.77413e-05
2.7535e-05
2.91619e-05
-3.31271e-05
3.29251e-05
2.93336e-05
-3.71039e-05
3.69322e-05
2.97403e-05
-3.80188e-05
3.76121e-05
2.97021e-05
-4.01788e-05
4.02171e-05
3.01095e-05
-3.79377e-05
3.75303e-05
3.02376e-05
-3.03485e-05
3.02204e-05
2.91465e-05
-2.2434e-05
2.35251e-05
2.77524e-05
-8.20181e-06
9.59593e-06
2.66181e-05
1.89355e-06
-7.59248e-07
2.55399e-05
1.07903e-05
-9.71206e-06
2.45848e-05
2.4936e-05
-2.39809e-05
2.29463e-05
3.68815e-05
-3.5243e-05
2.10515e-05
3.41056e-05
-3.22107e-05
1.99167e-05
3.28651e-05
-3.17303e-05
1.9989e-05
3.91175e-05
-3.91898e-05
2.05897e-05
4.60832e-05
-4.6684e-05
2.0389e-05
4.48522e-05
-4.46515e-05
1.99371e-05
3.79777e-05
-3.75258e-05
1.94271e-05
3.38067e-05
-3.32967e-05
1.86563e-05
2.71833e-05
-2.64124e-05
1.88391e-05
1.63189e-05
-1.65018e-05
1.92389e-05
1.81531e-06
-2.2151e-06
1.96453e-05
-6.7986e-06
6.39216e-06
1.86814e-05
-1.73147e-05
1.82787e-05
1.83796e-05
-3.2343e-05
3.26448e-05
1.7112e-05
-4.20823e-05
4.33498e-05
1.66418e-05
-3.74742e-05
3.79444e-05
1.62836e-05
-3.21289e-05
3.24871e-05
1.54478e-05
-2.05633e-05
2.13991e-05
1.62866e-05
-2.4749e-05
2.39102e-05
1.52979e-05
-3.27088e-05
3.36975e-05
1.59801e-05
-4.67131e-05
4.60309e-05
1.77528e-05
-5.22433e-05
5.04706e-05
1.92488e-05
-3.5596e-05
3.41e-05
2.02594e-05
-2.15325e-05
2.05219e-05
2.02065e-05
-1.34412e-05
1.34941e-05
2.01376e-05
-9.2195e-07
9.90799e-07
2.01334e-05
1.36685e-05
-1.36642e-05
2.01516e-05
2.27559e-05
-2.27742e-05
2.02363e-05
3.57013e-05
-3.5786e-05
2.01738e-05
5.09368e-05
-5.08742e-05
1.86466e-05
5.5099e-05
-5.35719e-05
1.66492e-05
4.46529e-05
-4.26555e-05
1.57707e-05
3.96346e-05
-3.87561e-05
1.70217e-05
3.80117e-05
-3.92627e-05
1.77881e-05
3.93259e-05
-4.00923e-05
1.92251e-05
3.22496e-05
-3.36866e-05
1.92046e-05
3.46982e-05
-3.46776e-05
1.89847e-05
2.05953e-05
-2.03755e-05
1.9732e-05
1.6122e-05
-1.68694e-05
2.07232e-05
6.70359e-06
-7.69473e-06
2.13174e-05
5.58248e-07
-1.15249e-06
2.15417e-05
-1.45559e-05
1.43317e-05
1.96653e-05
-1.21262e-05
1.40025e-05
1.82705e-05
-2.16751e-05
2.307e-05
1.78951e-05
-1.97169e-05
2.00922e-05
1.90105e-05
-2.58607e-05
2.47453e-05
1.8255e-05
-2.15614e-05
2.23168e-05
1.92075e-05
-2.54141e-05
2.44616e-05
1.81457e-05
-8.67483e-06
9.73665e-06
1.84544e-05
-6.90502e-06
6.59635e-06
1.72599e-05
-3.96951e-06
5.16401e-06
1.82874e-05
-5.82202e-06
4.7945e-06
1.71009e-05
1.0398e-05
-9.21151e-06
1.74686e-05
1.07662e-05
-1.1134e-05
1.5525e-05
1.66789e-05
-1.47353e-05
1.68579e-05
7.96105e-06
-9.29399e-06
1.37773e-05
1.34697e-05
-1.03891e-05
1.58158e-05
5.97906e-06
-8.01754e-06
1.45277e-05
2.60627e-05
-2.47746e-05
1.6128e-05
3.18306e-05
-3.34309e-05
6.63308e-05
-6.45997e-05
1.43969e-05
1.29182e-05
-4.59876e-07
1.36454e-05
7.62861e-07
1.39064e-05
8.97394e-07
1.42847e-05
-1.63403e-07
1.45586e-05
-7.8442e-09
1.49678e-05
-7.75667e-08
1.62399e-05
-1.37198e-06
1.75858e-05
5.92246e-07
1.95941e-05
-1.50153e-07
2.11031e-05
-1.57674e-06
2.2211e-05
-1.59132e-06
2.4169e-05
-6.36129e-06
2.50866e-05
-1.05731e-05
2.6313e-05
-9.7242e-06
2.7405e-05
-1.14775e-05
2.78763e-05
-1.2887e-05
2.85385e-05
-1.13984e-05
2.89157e-05
-9.06014e-06
2.90632e-05
-8.11623e-06
2.91289e-05
-6.5231e-06
2.92058e-05
-5.93832e-06
2.97793e-05
-1.02955e-05
2.9766e-05
-1.27278e-05
2.97606e-05
-1.38907e-05
2.99487e-05
-1.7998e-05
2.94342e-05
-2.14522e-05
2.87051e-05
-2.40664e-05
2.83291e-05
-2.73653e-05
2.7833e-05
-3.2631e-05
2.76433e-05
-3.69141e-05
2.81426e-05
-3.85181e-05
2.82517e-05
-4.0288e-05
2.83444e-05
-3.80304e-05
2.82421e-05
-3.02461e-05
2.69794e-05
-2.11713e-05
2.56043e-05
-6.82666e-06
2.46878e-05
2.81007e-06
2.38099e-05
1.16681e-05
2.29783e-05
2.57675e-05
2.17328e-05
3.8127e-05
2.04358e-05
3.54026e-05
1.98627e-05
3.34382e-05
2.01908e-05
3.87894e-05
2.09975e-05
4.52765e-05
2.10881e-05
4.47616e-05
2.09152e-05
3.81506e-05
2.06889e-05
3.4033e-05
2.02224e-05
2.76498e-05
2.05953e-05
1.59461e-05
2.1029e-05
1.38157e-06
2.12338e-05
-7.00338e-06
2.03517e-05
-1.64327e-05
1.96482e-05
-3.16395e-05
1.81936e-05
-4.06277e-05
1.74897e-05
-3.67703e-05
1.60925e-05
-3.07317e-05
1.5339e-05
-1.98098e-05
1.54831e-05
-2.48931e-05
1.41732e-05
-3.13988e-05
1.5161e-05
-4.77009e-05
1.65099e-05
-5.35921e-05
1.77963e-05
-3.68825e-05
1.87803e-05
-2.25165e-05
1.85482e-05
-1.32091e-05
1.8625e-05
-9.98743e-07
1.8659e-05
1.36344e-05
1.8947e-05
2.24679e-05
1.90929e-05
3.55554e-05
1.94561e-05
5.05737e-05
1.86453e-05
5.59098e-05
1.68596e-05
4.64386e-05
1.59602e-05
4.0534e-05
1.7333e-05
3.66388e-05
1.85252e-05
3.81337e-05
2.00207e-05
3.07541e-05
2.0724e-05
3.39948e-05
2.06088e-05
2.07105e-05
2.0941e-05
1.57899e-05
2.21783e-05
5.46625e-06
2.27184e-05
1.8182e-08
2.22228e-05
-1.40603e-05
2.0426e-05
-1.03294e-05
1.93645e-05
-2.06137e-05
1.92071e-05
-1.95595e-05
2.01639e-05
-2.68175e-05
1.92844e-05
-2.06818e-05
2.01365e-05
-2.62663e-05
1.87834e-05
-7.32171e-06
1.90893e-05
-7.21096e-06
1.79207e-05
-2.80084e-06
1.92632e-05
-7.16454e-06
1.76543e-05
1.2007e-05
1.83924e-05
1.00281e-05
1.61473e-05
1.89241e-05
1.87678e-05
5.34057e-06
1.52961e-05
1.69414e-05
1.75562e-05
3.71896e-06
1.64864e-05
2.71325e-05
2.18769e-05
2.64401e-05
6.71125e-05
2.10952e-05
1.8312e-05
-7.93015e-07
1.91664e-05
-9.15498e-08
1.95041e-05
5.59731e-07
1.97151e-05
-3.74456e-07
1.99443e-05
-2.36961e-07
2.04437e-05
-5.77038e-07
2.13245e-05
-2.25272e-06
2.20594e-05
-1.42648e-07
2.36909e-05
-1.78164e-06
2.53597e-05
-3.24558e-06
2.68548e-05
-3.08643e-06
2.83578e-05
-7.86426e-06
2.86373e-05
-1.08526e-05
2.99991e-05
-1.10861e-05
3.08366e-05
-1.23151e-05
3.03533e-05
-1.24036e-05
3.03564e-05
-1.14015e-05
3.04866e-05
-9.19037e-06
3.06464e-05
-8.27602e-06
3.08956e-05
-6.77223e-06
3.07754e-05
-5.81814e-06
3.01891e-05
-9.70928e-06
2.93827e-05
-1.19214e-05
2.90238e-05
-1.35318e-05
2.88222e-05
-1.77964e-05
2.80572e-05
-2.06871e-05
2.70474e-05
-2.30567e-05
2.65813e-05
-2.68992e-05
2.62626e-05
-3.23123e-05
2.60547e-05
-3.67063e-05
2.63465e-05
-3.88099e-05
2.62893e-05
-4.02308e-05
2.60253e-05
-3.77665e-05
2.56522e-05
-2.98729e-05
2.42112e-05
-1.97304e-05
2.30031e-05
-5.61857e-06
2.24164e-05
3.3968e-06
2.18217e-05
1.22628e-05
2.1151e-05
2.64382e-05
2.03179e-05
3.89601e-05
1.96306e-05
3.60899e-05
1.96106e-05
3.34582e-05
2.01581e-05
3.82418e-05
2.10853e-05
4.43493e-05
2.1584e-05
4.42629e-05
2.17746e-05
3.796e-05
2.18672e-05
3.39404e-05
2.1731e-05
2.7786e-05
2.22979e-05
1.53792e-05
2.26606e-05
1.01888e-06
2.25763e-05
-6.91912e-06
2.17938e-05
-1.56501e-05
2.08045e-05
-3.06502e-05
1.93551e-05
-3.91783e-05
1.81773e-05
-3.55926e-05
1.60123e-05
-2.85666e-05
1.54593e-05
-1.92568e-05
1.45985e-05
-2.40324e-05
1.38232e-05
-3.06234e-05
1.49887e-05
-4.88665e-05
1.53592e-05
-5.39626e-05
1.62261e-05
-3.77494e-05
1.71063e-05
-2.33968e-05
1.68569e-05
-1.29596e-05
1.68665e-05
-1.00837e-06
1.67716e-05
1.37294e-05
1.7243e-05
2.19965e-05
1.74929e-05
3.53055e-05
1.79956e-05
5.0071e-05
1.77994e-05
5.61059e-05
1.68334e-05
4.74046e-05
1.63113e-05
4.10561e-05
1.7463e-05
3.54872e-05
1.86512e-05
3.69455e-05
2.01902e-05
2.92151e-05
2.19441e-05
3.22409e-05
2.2261e-05
2.03936e-05
2.26064e-05
1.54445e-05
2.39009e-05
4.17172e-06
2.42369e-05
-3.17786e-07
2.28271e-05
-1.26505e-05
2.10359e-05
-8.53819e-06
2.04999e-05
-2.00777e-05
2.0672e-05
-1.97317e-05
2.12396e-05
-2.73851e-05
2.02111e-05
-1.96532e-05
2.0726e-05
-2.67812e-05
1.94251e-05
-6.02083e-06
1.98622e-05
-7.64798e-06
1.84259e-05
-1.36457e-06
1.98463e-05
-8.58496e-06
1.80249e-05
1.38283e-05
1.91711e-05
8.88188e-06
1.73908e-05
2.07044e-05
2.12433e-05
1.48808e-06
1.76466e-05
2.0538e-05
2.02239e-05
1.14164e-06
1.83986e-05
2.89578e-05
2.61793e-05
1.86594e-05
6.70841e-05
2.62077e-05
2.32824e-05
-8.01798e-07
2.38765e-05
-6.85654e-07
2.44181e-05
1.81098e-08
2.46096e-05
-5.65895e-07
2.48544e-05
-4.81764e-07
2.55198e-05
-1.24246e-06
2.59489e-05
-2.68186e-06
2.68507e-05
-1.04443e-06
2.8357e-05
-3.28797e-06
2.9229e-05
-4.11749e-06
3.06603e-05
-4.5178e-06
3.19736e-05
-9.17749e-06
3.20703e-05
-1.09493e-05
3.26614e-05
-1.16771e-05
3.26916e-05
-1.23452e-05
3.23404e-05
-1.20525e-05
3.19773e-05
-1.10384e-05
3.13163e-05
-8.52937e-06
3.12015e-05
-8.16113e-06
3.14627e-05
-7.03347e-06
3.15746e-05
-5.93008e-06
3.09008e-05
-9.03548e-06
2.95133e-05
-1.05339e-05
2.87063e-05
-1.27248e-05
2.80505e-05
-1.71405e-05
2.65886e-05
-1.92253e-05
2.54274e-05
-2.18954e-05
2.52916e-05
-2.67634e-05
2.50268e-05
-3.20475e-05
2.44064e-05
-3.60859e-05
2.41789e-05
-3.85824e-05
2.38726e-05
-3.99245e-05
2.33667e-05
-3.72607e-05
2.27547e-05
-2.92609e-05
2.1237e-05
-1.82126e-05
2.02743e-05
-4.65589e-06
2.00468e-05
3.62429e-06
1.96848e-05
1.26248e-05
1.91285e-05
2.69945e-05
1.86279e-05
3.94607e-05
1.85234e-05
3.61944e-05
1.91127e-05
3.2869e-05
2.00309e-05
3.73236e-05
2.1122e-05
4.32583e-05
2.18516e-05
4.35334e-05
2.23339e-05
3.74777e-05
2.28362e-05
3.3438e-05
2.30904e-05
2.75318e-05
2.37783e-05
1.46913e-05
2.4064e-05
7.33259e-07
2.36767e-05
-6.5319e-06
2.29148e-05
-1.48882e-05
2.18135e-05
-2.95488e-05
2.03698e-05
-3.77347e-05
1.85976e-05
-3.38204e-05
1.59924e-05
-2.59614e-05
1.56343e-05
-1.88987e-05
1.4181e-05
-2.25791e-05
1.41919e-05
-3.06344e-05
1.46158e-05
-4.92905e-05
1.38018e-05
-5.31485e-05
1.44738e-05
-3.84214e-05
1.53404e-05
-2.42634e-05
1.48731e-05
-1.24923e-05
1.4894e-05
-1.02926e-06
1.51459e-05
1.34775e-05
1.59054e-05
2.1237e-05
1.62533e-05
3.49576e-05
1.67333e-05
4.95909e-05
1.68384e-05
5.60009e-05
1.64277e-05
4.78153e-05
1.65353e-05
4.09485e-05
1.76933e-05
3.43291e-05
1.85936e-05
3.60452e-05
2.01147e-05
2.7694e-05
2.30127e-05
2.93429e-05
2.3706e-05
1.97003e-05
2.41373e-05
1.50132e-05
2.48308e-05
3.47824e-06
2.47608e-05
-2.47741e-07
2.32517e-05
-1.11415e-05
2.20657e-05
-7.35212e-06
2.1798e-05
-1.981e-05
2.19913e-05
-1.9925e-05
2.20151e-05
-2.74089e-05
2.09942e-05
-1.86323e-05
2.10962e-05
-2.68832e-05
1.99051e-05
-4.82966e-06
2.03795e-05
-8.12244e-06
1.88989e-05
1.16094e-07
2.01107e-05
-9.79684e-06
1.81211e-05
1.58179e-05
1.9242e-05
7.76096e-06
1.81246e-05
2.18219e-05
2.32879e-05
-3.67527e-06
2.04897e-05
2.33362e-05
2.39982e-05
-2.36688e-06
2.01508e-05
3.28052e-05
2.90681e-05
9.74222e-06
6.58709e-05
3.02812e-05
2.78535e-05
-6.43804e-07
2.80155e-05
-8.47699e-07
2.86707e-05
-6.37037e-07
2.88528e-05
-7.48053e-07
2.88677e-05
-4.96695e-07
2.96049e-05
-1.97958e-06
2.97148e-05
-2.79179e-06
3.0587e-05
-1.91662e-06
3.16726e-05
-4.37364e-06
3.25128e-05
-4.95768e-06
3.38584e-05
-5.86332e-06
3.39474e-05
-9.26656e-06
3.40574e-05
-1.10593e-05
3.4439e-05
-1.20587e-05
3.36747e-05
-1.15809e-05
3.32892e-05
-1.1667e-05
3.27079e-05
-1.04572e-05
3.17382e-05
-7.55965e-06
3.12425e-05
-7.66539e-06
3.08993e-05
-6.69029e-06
3.1077e-05
-6.10777e-06
3.0475e-05
-8.43352e-06
2.91169e-05
-9.17578e-06
2.85569e-05
-1.21648e-05
2.73557e-05
-1.59393e-05
2.54102e-05
-1.72799e-05
2.47079e-05
-2.11931e-05
2.45852e-05
-2.66407e-05
2.36298e-05
-3.1092e-05
2.23691e-05
-3.48252e-05
2.16838e-05
-3.7897e-05
2.11528e-05
-3.93935e-05
2.04586e-05
-3.65665e-05
1.9616e-05
-2.84183e-05
1.81122e-05
-1.67088e-05
1.75179e-05
-4.06163e-06
1.75499e-05
3.59228e-06
1.72596e-05
1.29151e-05
1.68425e-05
2.74116e-05
1.67312e-05
3.95719e-05
1.72339e-05
3.56918e-05
1.83955e-05
3.17073e-05
1.97439e-05
3.59752e-05
2.10257e-05
4.19765e-05
2.19616e-05
4.25975e-05
2.2833e-05
3.66063e-05
2.37833e-05
3.24877e-05
2.43247e-05
2.69904e-05
2.50077e-05
1.40083e-05
2.51713e-05
5.69673e-07
2.45874e-05
-5.94807e-06
2.38385e-05
-1.41392e-05
2.2662e-05
-2.83724e-05
2.10252e-05
-3.60979e-05
1.88032e-05
-3.15984e-05
1.60476e-05
-2.32058e-05
1.55616e-05
-1.84126e-05
1.41735e-05
-2.1191e-05
1.44006e-05
-3.08615e-05
1.3179e-05
-4.80689e-05
1.17118e-05
-5.16813e-05
1.25802e-05
-3.92897e-05
1.33754e-05
-2.50586e-05
1.28872e-05
-1.20042e-05
1.2881e-05
-1.02301e-06
1.31932e-05
1.31653e-05
1.39574e-05
2.04727e-05
1.47121e-05
3.42029e-05
1.55172e-05
4.87858e-05
1.57048e-05
5.58133e-05
1.58416e-05
4.76785e-05
1.63747e-05
4.04154e-05
1.74593e-05
3.32445e-05
1.86042e-05
3.49004e-05
2.01671e-05
2.61312e-05
2.36327e-05
2.58773e-05
2.44169e-05
1.89161e-05
2.52108e-05
1.42193e-05
2.54055e-05
3.28347e-06
2.51076e-05
5.01603e-08
2.32708e-05
-9.30464e-06
2.24598e-05
-6.54107e-06
2.25821e-05
-1.99324e-05
2.28247e-05
-2.01676e-05
2.25377e-05
-2.71219e-05
2.17238e-05
-1.78183e-05
2.12442e-05
-2.64036e-05
1.99939e-05
-3.57933e-06
2.027e-05
-8.39857e-06
1.8789e-05
1.5971e-06
1.99112e-05
-1.0919e-05
1.81645e-05
1.75646e-05
1.87046e-05
7.22092e-06
1.72588e-05
2.32676e-05
2.21105e-05
-8.52697e-06
2.11799e-05
2.42669e-05
2.70481e-05
-8.23509e-06
2.19103e-05
3.7943e-05
3.04642e-05
1.18839e-06
6.33248e-05
3.30103e-05
3.10549e-05
-8.7498e-07
3.12851e-05
-1.07796e-06
3.19058e-05
-1.25769e-06
3.19793e-05
-8.2157e-07
3.21503e-05
-6.67682e-07
3.272e-05
-2.54926e-06
3.2487e-05
-2.55878e-06
3.33511e-05
-2.78074e-06
3.37536e-05
-4.77615e-06
3.43804e-05
-5.58448e-06
3.55614e-05
-7.04427e-06
3.50898e-05
-8.79499e-06
3.51454e-05
-1.11149e-05
3.49177e-05
-1.1831e-05
3.38402e-05
-1.05035e-05
3.33949e-05
-1.12216e-05
3.25014e-05
-9.56377e-06
3.17611e-05
-6.81937e-06
3.10636e-05
-6.96787e-06
3.03014e-05
-5.92805e-06
3.04621e-05
-6.26845e-06
2.96197e-05
-7.59118e-06
2.86107e-05
-8.16674e-06
2.82217e-05
-1.17758e-05
2.64425e-05
-1.41601e-05
2.47948e-05
-1.56321e-05
2.43884e-05
-2.07867e-05
2.34552e-05
-2.57075e-05
2.1646e-05
-2.92828e-05
1.99851e-05
-3.31644e-05
1.89243e-05
-3.68362e-05
1.81176e-05
-3.85869e-05
1.73096e-05
-3.57584e-05
1.64086e-05
-2.75173e-05
1.51497e-05
-1.54499e-05
1.49555e-05
-3.86742e-06
1.50707e-05
3.47714e-06
1.46548e-05
1.3331e-05
1.42306e-05
2.78358e-05
1.45846e-05
3.92179e-05
1.5818e-05
3.44583e-05
1.74795e-05
3.00459e-05
1.92318e-05
3.42229e-05
2.08178e-05
4.03905e-05
2.21247e-05
4.12905e-05
2.33962e-05
3.53347e-05
2.46117e-05
3.12723e-05
2.52772e-05
2.63249e-05
2.59446e-05
1.33409e-05
2.59722e-05
5.42049e-07
2.52773e-05
-5.25316e-06
2.45912e-05
-1.34531e-05
2.34724e-05
-2.72536e-05
2.15075e-05
-3.4133e-05
1.88903e-05
-2.89811e-05
1.60317e-05
-2.03472e-05
1.50665e-05
-1.74474e-05
1.39589e-05
-2.00833e-05
1.38649e-05
-3.07675e-05
1.11262e-05
-4.53302e-05
9.48399e-06
-5.00391e-05
1.08864e-05
-4.06921e-05
1.14528e-05
-2.5625e-05
1.06535e-05
-1.12048e-05
1.05792e-05
-9.48732e-07
1.14493e-05
1.22953e-05
1.21583e-05
1.97637e-05
1.30881e-05
3.32731e-05
1.39025e-05
4.79714e-05
1.43971e-05
5.53187e-05
1.53549e-05
4.67208e-05
1.59656e-05
3.98046e-05
1.69442e-05
3.22659e-05
1.8804e-05
3.30406e-05
2.04584e-05
2.44768e-05
2.37093e-05
2.26264e-05
2.45458e-05
1.80796e-05
2.57676e-05
1.29976e-05
2.56587e-05
3.39236e-06
2.55437e-05
1.65204e-07
2.40483e-05
-7.80927e-06
2.37121e-05
-6.20492e-06
2.40139e-05
-2.02342e-05
2.38378e-05
-1.99914e-05
2.32855e-05
-2.65697e-05
2.27005e-05
-1.72333e-05
2.13333e-05
-2.50365e-05
1.98148e-05
-2.06083e-06
1.99479e-05
-8.53165e-06
1.83928e-05
3.15226e-06
1.91133e-05
-1.16396e-05
1.80064e-05
1.86716e-05
1.9022e-05
6.2053e-06
1.54452e-05
2.68444e-05
1.79534e-05
-1.10351e-05
1.69905e-05
2.52297e-05
2.35495e-05
-1.4794e-05
2.17016e-05
3.97908e-05
2.978e-05
-6.88999e-06
5.87923e-05
3.43125e-05
3.25672e-05
-1.27772e-06
3.31792e-05
-1.68999e-06
3.38582e-05
-1.93666e-06
3.38568e-05
-8.20186e-07
3.40093e-05
-8.20206e-07
3.41156e-05
-2.65553e-06
3.40695e-05
-2.5127e-06
3.47198e-05
-3.43105e-06
3.45103e-05
-4.56661e-06
3.51137e-05
-6.18795e-06
3.57275e-05
-7.65802e-06
3.52194e-05
-8.28691e-06
3.52653e-05
-1.11608e-05
3.45637e-05
-1.11294e-05
3.38201e-05
-9.75989e-06
3.3275e-05
-1.06765e-05
3.21543e-05
-8.44305e-06
3.1751e-05
-6.41602e-06
3.07708e-05
-5.98766e-06
2.99383e-05
-5.09556e-06
3.00864e-05
-6.41655e-06
2.918e-05
-6.68477e-06
2.86915e-05
-7.67823e-06
2.79893e-05
-1.10737e-05
2.57542e-05
-1.1925e-05
2.44926e-05
-1.43705e-05
2.37381e-05
-2.00323e-05
2.17569e-05
-2.37262e-05
1.93438e-05
-2.68698e-05
1.74586e-05
-3.12791e-05
1.60375e-05
-3.54151e-05
1.49243e-05
-3.74737e-05
1.40379e-05
-3.48721e-05
1.3195e-05
-2.66743e-05
1.2402e-05
-1.4657e-05
1.25337e-05
-3.9991e-06
1.2529e-05
3.48182e-06
1.19347e-05
1.39253e-05
1.15554e-05
2.82151e-05
1.24715e-05
3.83018e-05
1.44249e-05
3.25049e-05
1.64601e-05
2.80107e-05
1.85538e-05
3.21292e-05
2.0512e-05
3.84323e-05
2.22578e-05
3.95447e-05
2.38722e-05
3.37203e-05
2.51837e-05
2.99607e-05
2.58979e-05
2.56108e-05
2.65679e-05
1.26708e-05
2.64768e-05
6.33133e-07
2.57424e-05
-4.51868e-06
2.50681e-05
-1.27789e-05
2.39492e-05
-2.61347e-05
2.16686e-05
-3.18524e-05
1.8797e-05
-2.61095e-05
1.59457e-05
-1.7496e-05
1.44713e-05
-1.5973e-05
1.35232e-05
-1.91352e-05
1.2937e-05
-3.01813e-05
9.57147e-06
-4.19646e-05
8.1397e-06
-4.86074e-05
9.8225e-06
-4.23749e-05
9.88615e-06
-2.56887e-05
8.54353e-06
-9.86221e-06
8.45011e-06
-8.55309e-07
9.24832e-06
1.1497e-05
9.8731e-06
1.91389e-05
1.15524e-05
3.15939e-05
1.27325e-05
4.67912e-05
1.35359e-05
5.45153e-05
1.44813e-05
4.57754e-05
1.56162e-05
3.86697e-05
1.68371e-05
3.1045e-05
1.88755e-05
3.10021e-05
2.09028e-05
2.24496e-05
2.36156e-05
1.99135e-05
2.4592e-05
1.71032e-05
2.62431e-05
1.13465e-05
2.62643e-05
3.37116e-06
2.61714e-05
2.58117e-07
2.47798e-05
-6.41769e-06
2.4916e-05
-6.34112e-06
2.51517e-05
-2.04699e-05
2.46551e-05
-1.94948e-05
2.41264e-05
-2.60411e-05
2.34964e-05
-1.66032e-05
2.11604e-05
-2.27005e-05
1.95357e-05
-4.36172e-07
1.99349e-05
-8.93077e-06
1.8192e-05
4.89514e-06
1.81066e-05
-1.15542e-05
1.72744e-05
1.95038e-05
1.96609e-05
3.81873e-06
1.54697e-05
3.10356e-05
1.65518e-05
-1.21172e-05
1.32766e-05
2.85049e-05
1.73339e-05
-1.88513e-05
1.88477e-05
3.8277e-05
2.56577e-05
-1.36999e-05
5.07672e-05
3.36829e-05
3.3948e-05
-1.1264e-06
3.41002e-05
-1.84222e-06
3.42502e-05
-2.08665e-06
3.44093e-05
-9.79236e-07
3.4619e-05
-1.02996e-06
3.40321e-05
-2.06862e-06
3.41748e-05
-2.65543e-06
3.45856e-05
-3.84177e-06
3.4485e-05
-4.466e-06
3.50023e-05
-6.70535e-06
3.4987e-05
-7.64266e-06
3.49182e-05
-8.21816e-06
3.48149e-05
-1.10575e-05
3.40601e-05
-1.03746e-05
3.38706e-05
-9.57032e-06
3.31093e-05
-9.91531e-06
3.21957e-05
-7.52936e-06
3.20201e-05
-6.24047e-06
3.09608e-05
-4.9284e-06
3.03128e-05
-4.44753e-06
2.99937e-05
-6.09748e-06
2.90515e-05
-5.74257e-06
2.87941e-05
-7.4208e-06
2.74993e-05
-9.77879e-06
2.52832e-05
-9.70901e-06
2.42855e-05
-1.33728e-05
2.27519e-05
-1.84986e-05
1.97957e-05
-2.077e-05
1.697e-05
-2.40441e-05
1.48097e-05
-2.91189e-05
1.29232e-05
-3.35286e-05
1.14682e-05
-3.60187e-05
1.05489e-05
-3.39528e-05
9.89514e-06
-2.60205e-05
9.71588e-06
-1.44777e-05
1.00297e-05
-4.31296e-06
9.65442e-06
3.85714e-06
8.87587e-06
1.47038e-05
8.63904e-06
2.84519e-05
1.0188e-05
3.67529e-05
1.28046e-05
2.98883e-05
1.51478e-05
2.56675e-05
1.76499e-05
2.9627e-05
2.00627e-05
3.60196e-05
2.22634e-05
3.7344e-05
2.41023e-05
3.18813e-05
2.52913e-05
2.87718e-05
2.60971e-05
2.4805e-05
2.68653e-05
1.19026e-05
2.66921e-05
8.06309e-07
2.59491e-05
-3.77563e-06
2.54357e-05
-1.22655e-05
2.42981e-05
-2.49972e-05
2.17142e-05
-2.92684e-05
1.85958e-05
-2.29911e-05
1.5829e-05
-1.47292e-05
1.39767e-05
-1.41206e-05
1.30125e-05
-1.81711e-05
1.17868e-05
-2.89556e-05
8.52451e-06
-3.87023e-05
7.1429e-06
-4.72258e-05
8.5223e-06
-4.37543e-05
7.79274e-06
-2.49591e-05
6.46799e-06
-8.53746e-06
6.86287e-06
-1.25019e-06
7.56111e-06
1.07988e-05
8.751e-06
1.7949e-05
1.01028e-05
3.02421e-05
1.12674e-05
4.56266e-05
1.23789e-05
5.34039e-05
1.31571e-05
4.49971e-05
1.53358e-05
3.6491e-05
1.67726e-05
2.96082e-05
1.88155e-05
2.89592e-05
2.12394e-05
2.00257e-05
2.33232e-05
1.78297e-05
2.45597e-05
1.58668e-05
2.66529e-05
9.25324e-06
2.70731e-05
2.95099e-06
2.67636e-05
5.67623e-07
2.55111e-05
-5.16524e-06
2.61812e-05
-7.01121e-06
2.62611e-05
-2.05498e-05
2.56972e-05
-1.89308e-05
2.50372e-05
-2.53811e-05
2.37783e-05
-1.53443e-05
2.08826e-05
-1.98049e-05
1.9542e-05
9.04435e-07
2.01946e-05
-9.5833e-06
1.83511e-05
6.73863e-06
1.75128e-05
-1.07159e-05
1.69557e-05
2.00609e-05
2.04867e-05
2.87707e-07
1.83249e-05
3.31975e-05
2.01026e-05
-1.3895e-05
1.65386e-05
3.20688e-05
1.81106e-05
-2.04233e-05
1.75868e-05
3.88008e-05
2.03873e-05
-1.65005e-05
3.95875e-05
3.1567e-05
3.40249e-05
-1.25791e-06
3.43013e-05
-2.11862e-06
3.37956e-05
-1.58103e-06
3.40784e-05
-1.26201e-06
3.42867e-05
-1.23824e-06
3.37049e-05
-1.48684e-06
3.41063e-05
-3.05681e-06
3.43133e-05
-4.04874e-06
3.45756e-05
-4.72836e-06
3.47978e-05
-6.92748e-06
3.45871e-05
-7.43199e-06
3.48644e-05
-8.49541e-06
3.4443e-05
-1.06361e-05
3.39042e-05
-9.83578e-06
3.39035e-05
-9.56963e-06
3.30385e-05
-9.05029e-06
3.24483e-05
-6.93921e-06
3.21467e-05
-5.9389e-06
3.1276e-05
-4.05764e-06
3.08541e-05
-4.02562e-06
2.9919e-05
-5.16242e-06
2.88104e-05
-4.63399e-06
2.81958e-05
-6.80621e-06
2.6403e-05
-7.98598e-06
2.46667e-05
-7.97263e-06
2.37442e-05
-1.24503e-05
2.13462e-05
-1.61006e-05
1.76299e-05
-1.70537e-05
1.44304e-05
-2.08446e-05
1.19842e-05
-2.66727e-05
9.80057e-06
-3.13449e-05
8.02133e-06
-3.42394e-05
6.93969e-06
-3.28712e-05
6.46354e-06
-2.55444e-05
6.70351e-06
-1.47177e-05
7.09387e-06
-4.70332e-06
6.48068e-06
4.47032e-06
5.56565e-06
1.56188e-05
5.62464e-06
2.8393e-05
8.0769e-06
3.43006e-05
1.1374e-05
2.65911e-05
1.38776e-05
2.3164e-05
1.6521e-05
2.69836e-05
1.91565e-05
3.33841e-05
2.17166e-05
3.4784e-05
2.36772e-05
2.99207e-05
2.47956e-05
2.76534e-05
2.59072e-05
2.36934e-05
2.68869e-05
1.09229e-05
2.66411e-05
1.05219e-06
2.59637e-05
-3.09829e-06
2.55901e-05
-1.18919e-05
2.43346e-05
-2.37416e-05
2.15448e-05
-2.64787e-05
1.81918e-05
-1.96381e-05
1.55516e-05
-1.20891e-05
1.35698e-05
-1.21388e-05
1.25478e-05
-1.71491e-05
1.05826e-05
-2.69904e-05
7.50344e-06
-3.56232e-05
5.33648e-06
-4.50588e-05
5.72352e-06
-4.41414e-05
5.22767e-06
-2.44633e-05
4.49254e-06
-7.80233e-06
5.15165e-06
-1.9093e-06
5.81631e-06
1.01341e-05
7.22122e-06
1.65441e-05
7.65617e-06
2.98071e-05
9.82663e-06
4.34562e-05
1.15956e-05
5.16349e-05
1.25178e-05
4.40749e-05
1.47727e-05
3.42362e-05
1.64239e-05
2.7957e-05
1.90472e-05
2.63359e-05
2.1055e-05
1.80179e-05
2.27117e-05
1.6173e-05
2.47614e-05
1.38171e-05
2.70273e-05
6.98734e-06
2.7336e-05
2.64235e-06
2.64994e-05
1.40422e-06
2.57918e-05
-4.45764e-06
2.719e-05
-8.40947e-06
2.72856e-05
-2.06454e-05
2.70076e-05
-1.86527e-05
2.5822e-05
-2.41956e-05
2.3951e-05
-1.34733e-05
2.08066e-05
-1.66604e-05
1.98718e-05
1.83917e-06
2.0554e-05
-1.02655e-05
1.90205e-05
8.27222e-06
1.7975e-05
-9.67047e-06
1.68381e-05
2.11978e-05
2.07149e-05
-3.58916e-06
1.94241e-05
3.44883e-05
2.21089e-05
-1.65798e-05
2.09382e-05
3.32396e-05
2.10561e-05
-2.05412e-05
2.0185e-05
3.96719e-05
1.76214e-05
-1.39368e-05
2.82712e-05
2.89377e-05
3.38384e-05
-1.3837e-06
3.38286e-05
-2.10883e-06
3.32093e-05
-9.61779e-07
3.36277e-05
-1.68036e-06
3.39006e-05
-1.51114e-06
3.39873e-05
-1.57352e-06
3.45637e-05
-3.6332e-06
3.44523e-05
-3.93743e-06
3.4628e-05
-4.90397e-06
3.45905e-05
-6.89006e-06
3.44813e-05
-7.32278e-06
3.47072e-05
-8.72127e-06
3.41744e-05
-1.01034e-05
3.39605e-05
-9.62187e-06
3.38218e-05
-9.43088e-06
3.29774e-05
-8.20591e-06
3.25578e-05
-6.51957e-06
3.19502e-05
-5.33133e-06
3.11633e-05
-3.27074e-06
3.06177e-05
-3.47999e-06
2.92578e-05
-3.80255e-06
2.81126e-05
-3.48876e-06
2.7102e-05
-5.79567e-06
2.52351e-05
-6.11902e-06
2.40692e-05
-6.80674e-06
2.27945e-05
-1.11757e-05
1.94014e-05
-1.27075e-05
1.51195e-05
-1.27718e-05
1.17947e-05
-1.75198e-05
9.25204e-06
-2.413e-05
6.82657e-06
-2.89194e-05
4.64447e-06
-3.20573e-05
3.22247e-06
-3.14492e-05
2.85984e-06
-2.51817e-05
3.37027e-06
-1.52281e-05
3.6784e-06
-5.01145e-06
2.96442e-06
5.1843e-06
2.27934e-06
1.63039e-05
2.8882e-06
2.77841e-05
6.14873e-06
3.10401e-05
9.7685e-06
2.29714e-05
1.23854e-05
2.05471e-05
1.5168e-05
2.4201e-05
1.79337e-05
3.06184e-05
2.07738e-05
3.19439e-05
2.27487e-05
2.79458e-05
2.38835e-05
2.65186e-05
2.54788e-05
2.20981e-05
2.66751e-05
9.72667e-06