/*--------------------------------*- C++ -*----------------------------------*\
| =========                 |                                                 |
| \\      /  F ield         | OpenFOAM: The Open Source CFD Toolbox           |
|  \\    /   O peration     | Version:  2.4.0                                 |
|   \\  /    A nd           | Web:      www.OpenFOAM.org                      |
|    \\/     M anipulation  |                                                 |
\*---------------------------------------------------------------------------*/
FoamFile
{
    version     2.0;
    format      ascii;
    class       volScalarField;
    location    "0.151";
    object      pMean;
}
// * * * * * * * * * * * * * * * * * * * * * * * * * * * * * * * * * * * * * //

dimensions      [0 2 -2 0 0 0 0];

internalField   nonuniform List<scalar> 
4400
(
129.536
108.216
99.9675
96.075
92.8914
89.7823
86.6569
83.5446
80.2804
76.3972
127.618
108.282
100.004
96.0862
92.8942
89.7827
86.6575
83.5448
80.2954
76.7076
126.413
108.592
100.138
96.1249
92.9146
89.7904
86.6615
83.5424
80.3607
76.8658
125.681
108.966
100.315
96.1824
92.957
89.8179
86.6754
83.5576
80.4343
77.098
125.088
109.309
100.493
96.2411
93.0166
89.8607
86.7068
83.575
80.5346
77.3353
124.577
109.593
100.65
96.2842
93.0726
89.9135
86.7467
83.6099
80.6534
77.6105
124.156
109.819
100.78
96.3088
93.1181
89.9588
86.7872
83.6486
80.744
77.9549
123.833
109.991
100.882
96.3214
93.1493
89.9965
86.821
83.6929
80.7952
78.2697
123.615
110.107
100.952
96.3271
93.1694
90.0245
86.8456
83.7357
80.8695
78.5907
123.505
110.166
100.987
96.3294
93.1807
90.04
86.8692
83.7746
80.9589
78.8266
123.504
110.168
100.987
96.3313
93.182
90.0482
86.8828
83.8159
81.0455
79.0195
123.612
110.111
100.953
96.3307
93.1762
90.0444
86.8944
83.8561
81.1305
79.1695
123.828
109.997
100.884
96.3276
93.1602
90.0309
86.8988
83.8928
81.2165
79.279
124.15
109.828
100.781
96.3182
93.1331
90.0064
86.897
83.9273
81.3034
79.3479
124.571
109.604
100.651
96.2957
93.0936
89.9716
86.8898
83.9563
81.3887
79.384
125.082
109.32
100.495
96.2555
93.0423
89.9305
86.8794
83.9813
81.4597
79.4164
125.675
108.978
100.317
96.1989
92.9873
89.8945
86.8716
84.0038
81.5071
79.4442
126.407
108.603
100.14
96.1429
92.9474
89.8741
86.8706
84.0222
81.5338
79.4781
127.613
108.293
100.007
96.1048
92.9285
89.8682
86.873
84.0328
81.5443
79.5163
129.53
108.228
99.9703
96.0938
92.9257
89.8688
86.8745
84.0364
81.5457
79.6193
74.424
73.8365
72.495
71.1406
69.9336
69.0558
68.6075
68.1964
68.2713
68.439
68.3058
68.0539
67.6681
67.6138
67.7273
67.7306
67.875
68.442
69.2948
70.4073
71.6253
72.9134
74.1595
75.3035
76.3266
77.1649
77.8485
78.3578
78.7031
78.883
78.9256
79.0382
79.2029
79.4986
79.8373
80.2451
80.6357
80.9489
81.1851
81.2248
81.2455
81.2589
81.3345
81.5107
81.8045
82.1507
82.5736
82.9857
83.456
83.9191
84.4212
84.9184
85.3445
85.6987
85.9648
86.1543
86.3558
86.4388
86.6276
86.6604
86.9342
87.1173
87.6121
87.927
88.5229
88.7673
89.2913
89.3103
89.6926
89.5015
89.7363
89.4069
89.6974
89.3803
89.7536
89.4941
90.0658
89.9681
90.774
90.7292
91.555
91.4446
92.1427
91.8753
92.4359
92.0221
92.5002
92.0324
92.3916
91.8073
91.9717
91.1515
91.1406
89.942
89.796
87.6785
87.3756
82.302
81.2776
56.2961
74.6696
73.9885
72.8974
71.7103
70.6145
69.7909
69.3712
69.0799
69.1397
69.3563
69.3059
69.1179
68.7566
68.6464
68.7729
68.8526
68.9691
69.438
70.1882
71.1843
72.2736
73.432
74.554
75.5798
76.483
77.2084
77.7736
78.177
78.41
78.4909
78.4634
78.4969
78.6032
78.877
79.2311
79.689
80.1166
80.4821
80.753
80.7894
80.8629
80.9241
81.0811
81.3469
81.7414
82.1688
82.6575
83.1134
83.6159
84.1149
84.6266
85.0997
85.5175
85.8581
86.1295
86.3145
86.5142
86.5782
86.7499
86.7432
86.9796
87.1119
87.569
87.8714
88.4605
88.7323
89.2529
89.3023
89.7011
89.5274
89.7804
89.439
89.7055
89.337
89.6586
89.3224
89.9145
89.6766
90.538
90.3039
91.2251
90.9142
91.7662
91.2723
92.063
91.4024
92.1433
91.3992
92.0141
91.1121
91.5123
90.3279
90.5068
88.7785
88.8524
85.8067
85.7908
78.4759
76.821
49.1529
75.1088
74.3441
73.3036
72.2248
71.2387
70.4886
70.0922
69.8839
69.9245
70.1401
70.1763
70.0698
69.7852
69.6586
69.7893
69.9432
70.0709
70.4753
71.1344
72.0208
72.9888
74.0127
75.0014
75.8957
76.6622
77.2639
77.7106
78.0061
78.1352
78.1393
78.0693
78.0557
78.1312
78.4017
78.7831
79.3009
79.7647
80.187
80.4763
80.5158
80.6433
80.7474
81.0062
81.3729
81.8743
82.3932
82.9497
83.4434
83.9865
84.5087
85.0305
85.4661
85.8786
86.1974
86.4734
86.6475
86.8349
86.8797
87.0226
86.9851
87.1701
87.263
87.662
87.9567
88.4982
88.806
89.3001
89.3974
89.7957
89.6515
89.8922
89.5435
89.7533
89.3494
89.6353
89.2187
89.8069
89.4276
90.3017
89.8784
90.866
90.3565
91.3201
90.6268
91.6205
90.6958
91.7204
90.6426
91.5909
90.2953
91.0378
89.4111
89.8594
87.5116
87.7544
83.7541
84.0595
75.1236
71.8188
47.3146
75.5029
74.7778
73.8117
72.8008
71.8998
71.2273
70.8649
70.716
70.7466
70.9384
71.0365
70.9979
70.8107
70.7029
70.8307
71.0409
71.201
71.5589
72.1322
72.9124
73.7638
74.6486
75.4935
76.2419
76.8609
77.3323
77.6611
77.8511
77.8992
77.8521
77.7582
77.7287
77.802
78.0893
78.5074
79.0823
79.5799
80.0559
80.3383
80.3969
80.5696
80.7152
81.1002
81.5752
82.1942
82.8081
83.4262
83.9575
84.5494
85.0836
85.619
86.0094
86.4165
86.7028
86.982
87.1422
87.3062
87.3276
87.4316
87.3588
87.4891
87.5474
87.8853
88.1757
88.6558
88.9922
89.4517
89.6003
89.9806
89.8669
90.0704
89.7143
89.8526
89.414
89.6746
89.1738
89.7289
89.2191
90.0728
89.483
90.5025
89.8192
90.8419
89.9926
91.0855
89.9391
91.1684
89.7533
91.0734
89.2705
90.5217
88.2677
89.227
86.1754
86.5763
81.7326
81.8038
72.1356
66.4166
47.3114
75.8453
75.2222
74.4122
73.4463
72.5899
71.9805
71.6689
71.5796
71.6299
71.8044
71.9373
71.9538
71.8597
71.7977
71.9147
72.1546
72.356
72.6767
73.1696
73.8383
74.5697
75.3124
76.0069
76.6034
77.0766
77.4165
77.6315
77.7301
77.7209
77.6445
77.544
77.524
77.6167
77.9371
78.402
79.0254
79.5542
80.067
80.3193
80.4174
80.6198
80.8168
81.3459
81.9288
82.6798
83.3876
84.0616
84.6262
85.2803
85.8183
86.3728
86.7163
87.1165
87.3549
87.6335
87.7706
87.9105
87.8992
87.9722
87.8436
87.9324
87.9421
88.235
88.5018
88.9368
89.2826
89.7078
89.8829
90.236
90.14
90.2985
89.925
90.0073
89.5115
89.7423
89.1569
89.6634
89.0431
89.8627
89.133
90.1595
89.3294
90.3595
89.4229
90.4796
89.2332
90.4166
88.8106
90.1981
88.0416
89.6313
86.7543
88.2929
84.4208
85.5405
79.8818
79.3945
69.781
60.7797
47.0729
76.1614
75.6467
74.9755
74.0711
73.2612
72.7368
72.5034
72.4792
72.5624
72.7272
72.8747
72.9389
72.9263
72.9231
73.0383
73.277
73.5117
73.8028
74.2135
74.7632
75.3684
75.967
76.5129
76.968
77.3019
77.5196
77.6396
77.6665
77.6149
77.5212
77.4275
77.4356
77.569
77.9345
78.4489
79.1105
79.6727
80.1979
80.415
80.5678
80.7911
81.0558
81.7246
82.4038
83.2983
84.1047
84.8306
85.4205
86.1538
86.6892
87.2696
87.5689
87.9659
88.1434
88.4105
88.5046
88.634
88.5676
88.6359
88.4187
88.4994
88.4358
88.7174
88.9325
89.3465
89.655
90.059
90.2226
90.5533
90.4405
90.5633
90.1526
90.2006
89.6294
89.8228
89.1602
89.6075
88.9021
89.6741
88.8329
89.8427
88.8823
89.9105
88.9145
89.8963
88.6563
89.6837
88.0919
89.3055
87.0476
88.4702
85.2242
86.8613
82.2034
83.6995
77.1272
76.1632
67.3083
57.017
47.3821
76.6429
76.0832
75.3892
74.558
73.8681
73.4788
73.3488
73.3812
73.4937
73.6556
73.8105
73.9146
73.9664
74.0218
74.1468
74.3721
74.6175
74.8881
75.2247
75.6539
76.1282
76.5871
76.9982
77.3261
77.5355
77.6539
77.7024
77.6769
77.59
77.4819
77.4033
77.4509
77.6406
78.0652
78.6291
79.3188
79.9177
80.4342
80.622
80.8429
81.084
81.4467
82.2205
82.9788
84.0219
84.9233
85.7
86.3143
87.1498
87.6701
88.2834
88.541
88.9401
89.0555
89.3115
89.3395
89.4671
89.3148
89.3967
89.0625
89.1775
89.0067
89.324
89.4575
89.8815
90.1224
90.5118
90.6329
90.9405
90.777
90.8738
90.4029
90.426
89.7761
89.9202
89.196
89.571
88.8059
89.5054
88.5976
89.5474
88.4891
89.4944
88.4309
89.3323
88.1262
88.9891
87.5243
88.4449
86.3623
87.3438
84.1804
85.2826
80.3711
81.0128
73.9918
72.0941
64.0547
55.0897
47.7467
77.4168
76.7163
75.7387
74.9294
74.4016
74.1673
74.143
74.23
74.3684
74.535
74.6988
74.8337
74.9342
75.0379
75.1815
75.3929
75.6354
75.8874
76.1631
76.4846
76.8353
77.1713
77.4706
77.6889
77.7921
77.838
77.8352
77.7619
77.6422
77.5265
77.4724
77.5628
77.815
78.3082
78.9232
79.6337
80.2588
80.7708
80.9453
81.2362
81.4973
81.9777
82.8194
83.6496
84.8255
85.8067
86.6435
87.2775
88.2367
88.7303
89.3759
89.6068
90.0176
90.0715
90.3191
90.2756
90.4007
90.1684
90.2617
89.795
89.9656
89.6535
90.0502
90.0632
90.5332
90.6825
91.0724
91.13
91.4135
91.174
91.2377
90.7019
90.6859
89.9776
90.0557
89.2922
89.5814
88.7807
89.3731
88.4433
89.2709
88.1973
89.0945
87.9904
88.7573
87.5567
88.2693
86.8551
87.5192
85.5561
86.1264
83.1916
83.5241
78.944
78.2128
72.0021
68.7554
62.1213
54.359
47.6342
77.9773
77.215
76.0872
75.2894
74.8867
74.7905
74.8703
75.0154
75.1806
75.3533
75.5234
75.6796
75.8158
75.9561
76.1205
76.3231
76.5502
76.7786
77.005
77.244
77.4932
77.7351
77.9503
78.0761
78.0936
78.087
78.0391
77.9227
77.7765
77.6618
77.6379
77.7711
78.0852
78.6505
79.3118
80.0367
80.6702
81.1946
81.3817
81.7311
82.0217
82.6163
83.5057
84.4219
85.684
86.7303
87.6207
88.2814
89.3752
89.84
90.5297
90.7327
91.1651
91.1686
91.4215
91.299
91.4343
91.1337
91.239
90.6429
90.8582
90.3696
90.8793
90.7375
91.3108
91.3254
91.7479
91.7207
91.9842
91.6539
91.6709
91.0649
91.0011
90.2472
90.2538
89.4799
89.6602
88.863
89.3011
88.3988
89.0354
88.0382
88.7052
87.6458
88.162
86.9921
87.5218
86.1676
86.5456
84.6515
84.8233
82.1254
81.6789
77.6734
75.6936
71.03
66.8328
61.9294
54.2721
47.704
78.3922
77.6439
76.4765
75.6972
75.3741
75.3819
75.5461
75.741
75.9269
76.1036
76.2781
76.4489
76.6127
76.7826
76.9653
77.1625
77.3692
77.5701
77.7559
77.9352
78.1142
78.2943
78.4469
78.4952
78.4444
78.3978
78.3108
78.1601
77.9958
77.8881
77.8995
78.0769
78.4528
79.0868
79.7849
80.5157
81.1465
81.6936
81.9221
82.3232
82.652
83.3526
84.2679
85.2863
86.5721
87.6688
88.6048
89.3106
90.5275
90.9546
91.7124
91.8793
92.3645
92.3124
92.5851
92.3868
92.5371
92.1876
92.3023
91.598
91.8347
91.1559
91.7863
91.465
92.191
92.0426
92.5383
92.3936
92.6577
92.2211
92.1956
91.5116
91.3965
90.6194
90.547
89.7915
89.8421
89.0903
89.3382
88.5076
88.9014
88.023
88.3757
87.4324
87.5766
86.4936
86.7898
85.572
85.5628
83.8468
83.4953
81.265
80.008
76.6969
74.1638
70.7814
66.2316
62.8471
54.6986
48.5448
78.708
78.006
76.8676
76.126
75.8613
75.9368
76.1602
76.3962
76.6034
76.7891
76.9713
77.1563
77.3423
77.5368
77.7334
77.9265
78.1154
78.2906
78.4463
78.5835
78.7131
78.8522
78.9551
78.9371
78.8312
78.7543
78.6327
78.4595
78.2983
78.2175
78.2735
78.4945
78.935
79.626
80.3415
81.0707
81.6933
82.2715
82.5614
83.016
83.3849
84.182
85.0968
86.2133
87.4653
88.6316
89.5683
90.363
91.6704
92.0678
92.8776
93.03
93.5679
93.4769
93.7855
93.5082
93.6963
93.2935
93.4178
92.6403
92.8759
92.0524
92.7677
92.267
93.1527
92.8292
93.4276
93.145
93.4128
92.8853
92.7997
92.071
91.8724
91.1334
90.94
90.2667
90.1465
89.5063
89.5274
88.8375
88.9571
88.2307
88.235
87.4221
87.1516
86.1838
86.2375
85.2108
84.7627
83.316
82.4433
80.7612
78.882
76.2272
73.5187
71.2482
66.4602
64.0667
55.6876
49.925
78.9226
78.2846
77.2376
76.573
76.3668
76.4859
76.7414
77.0043
77.229
77.4259
77.618
77.8143
78.0177
78.2291
78.4337
78.6232
78.8002
78.9588
79.09
79.1973
79.2965
79.4084
79.4675
79.387
79.2335
79.1373
78.9922
78.8133
78.681
78.6502
78.7618
79.0348
79.5404
80.2683
80.9817
81.6939
82.3171
82.9343
83.3021
83.8103
84.2169
85.0942
85.9876
87.1908
88.3705
89.6238
90.4956
91.4512
92.765
93.1773
94.0077
94.1637
94.7565
94.6204
94.9768
94.6453
94.8552
94.4407
94.5483
93.7615
93.9597
93.0766
93.7811
93.188
94.1623
93.7085
94.3871
93.9832
94.234
93.6639
93.472
92.7757
92.4278
91.8144
91.4248
90.9299
90.5645
90.1433
89.8731
89.4113
89.2312
88.6712
88.3468
87.6552
86.9981
86.1803
86.049
85.2086
84.3861
83.2188
81.9385
80.7944
78.4683
76.5657
73.6399
72.3013
67.2201
65.2131
57.054
51.1867
79.0458
78.4946
77.5992
77.0465
76.898
77.0339
77.2915
77.5601
77.7943
78.002
78.2046
78.412
78.6286
78.8475
79.0532
79.24
79.4044
79.5444
79.6602
79.7492
79.8306
79.9289
79.96
79.8308
79.6454
79.5426
79.3998
79.2451
79.1642
79.1939
79.3657
79.7031
80.2705
81.0105
81.7029
82.3858
83.0195
83.6869
84.1529
84.7044
85.1524
86.0836
86.9529
88.2234
89.3076
90.6659
91.4188
92.5869
93.7965
94.2707
95.0445
95.2852
95.8631
95.7556
96.1265
95.8072
96.0081
95.638
95.6907
94.9926
95.0845
94.2651
94.8195
94.2425
95.182
94.7153
95.3867
94.928
95.1021
94.5557
94.1989
93.6156
93.0487
92.6384
91.984
91.7573
91.0744
90.9698
90.3397
90.1996
89.6509
89.3553
88.6341
88.2242
87.0873
86.5997
86.2091
85.6795
84.4405
83.6949
81.9641
81.4193
78.6876
77.6768
74.3208
73.673
68.2673
66.1509
58.3832
52.1787
79.0668
78.6223
77.9383
77.5271
77.4361
77.5702
77.8058
78.0597
78.2938
78.5086
78.7201
78.9352
79.1557
79.3735
79.5757
79.7567
79.9147
80.048
80.1519
80.2235
80.2914
80.3821
80.399
80.2436
80.0478
79.9512
79.8367
79.74
79.741
79.8494
80.0904
80.4969
81.1085
81.8352
82.4989
83.1526
83.8063
84.5292
85.1064
85.6885
86.1878
87.1285
87.9744
89.2989
90.2744
91.7425
92.3611
93.7852
94.7474
95.3866
96.0109
96.431
96.8979
96.8866
97.2132
96.9773
97.13
96.8622
96.813
96.3016
96.1989
95.6024
95.8617
95.4561
96.1832
95.8375
96.394
95.9734
95.99
95.5277
94.956
94.5326
93.71
93.5339
92.5903
92.6653
91.6437
91.887
90.8757
91.1089
90.1345
90.2288
89.0473
89.1173
87.4814
87.5296
86.5718
86.6273
84.7818
84.7242
82.4017
82.5121
79.375
79.1917
75.3262
74.9847
69.3009
66.8189
59.4847
53.0247
79.0136
78.7029
78.2717
78.0055
77.9477
78.0548
78.2532
78.4824
78.7085
78.9243
79.137
79.3507
79.5659
79.7774
79.9767
80.1569
80.314
80.4449
80.5427
80.6035
80.6633
80.7531
80.7717
80.6219
80.4455
80.374
80.306
80.2879
80.3875
80.5868
80.9071
81.3858
82.0198
82.7041
83.3313
83.9602
84.6498
85.434
86.1224
86.7333
87.2884
88.1954
89.0348
90.3898
91.2467
92.8226
93.288
94.9987
95.6959
96.4887
96.9382
97.601
97.8444
98.0441
98.1939
98.1271
98.1231
98.0499
97.7968
97.6014
97.2179
97.0027
96.8721
96.8218
97.1758
97.0618
97.3706
97.0854
96.851
96.5367
95.7009
95.4819
94.3762
94.4449
93.2124
93.5715
92.2422
92.7952
91.4428
92.0321
90.6505
91.1827
89.5631
90.2
88.0993
88.8865
87.1227
87.9208
85.3497
86.1034
83.0972
83.7788
80.3026
80.6962
76.3806
76.0147
70.1611
67.2226
60.344
53.8291
78.9228
78.7496
78.5673
78.4157
78.3675
78.4421
78.6021
78.8029
79.0147
79.2258
79.4374
79.6501
79.8624
80.0687
80.263
80.4394
80.5962
80.7285
80.8279
80.8891
80.9557
81.0548
81.0851
80.9679
80.8429
80.8169
80.812
80.8929
81.0953
81.3883
81.7911
82.3232
82.9497
83.5822
84.164
84.7749
85.5102
86.3532
87.1377
87.7847
88.3912
89.25
90.1145
91.4604
92.2055
93.8705
94.1599
96.1257
96.5597
97.5539
97.6904
98.7364
98.6456
99.1718
98.9764
99.2072
98.9011
99.129
98.5723
98.7793
98.0646
98.3092
97.7691
98.1663
98.0573
98.3126
98.2344
98.2134
97.634
97.5278
96.3947
96.3992
95.0132
95.302
93.819
94.4085
92.8364
93.6419
92.001
92.9214
91.1614
92.1619
90.1014
91.3569
88.8385
90.3402
87.7979
89.3812
86.128
87.6846
83.8845
85.0794
81.2813
82.0194
77.3121
76.6867
70.8368
67.4502
61.0014
54.6008
78.96
78.8447
78.7743
78.6921
78.6561
78.7101
78.8403
79.0165
79.2145
79.4207
79.631
79.8413
80.0478
80.2479
80.4379
80.6131
80.7723
80.9098
81.0192
81.0976
81.1856
81.3003
81.3542
81.2941
81.241
81.2737
81.348
81.5314
81.8301
82.2127
82.688
83.2503
83.8484
84.4205
84.9593
85.565
86.3329
87.2167
88.0653
88.7559
89.4137
90.2337
91.1328
92.4271
93.0854
94.83
94.9922
97.1279
97.2269
98.6489
98.3497
99.7278
99.3002
100.144
99.5997
100.189
99.5252
100.109
99.1957
99.7939
98.7638
99.4047
98.5176
99.3534
98.7933
99.4944
98.9804
99.2893
98.3255
98.4379
96.9978
97.2221
95.5708
96.0693
94.3565
95.1635
93.3635
94.427
92.5041
93.768
91.6432
93.1066
90.6207
92.4424
89.5223
91.6615
88.4769
90.7644
86.9254
89.2608
84.6153
86.3894
82.2035
83.0733
78.0404
77.0653
71.3769
67.6127
61.5026
55.3241
79.035
78.954
78.908
78.8497
78.8253
78.8693
78.979
79.1366
79.324
79.5259
79.7331
79.9387
80.1396
80.3349
80.5222
80.6984
80.8664
81.0177
81.1439
81.2506
81.3729
81.5121
81.5964
81.6032
81.63
81.7313
81.884
82.1548
82.5312
82.9849
83.5085
84.0721
84.6302
85.145
85.6497
86.2529
87.0226
87.9179
88.7932
89.5333
90.2557
91.066
91.9835
93.1894
93.8143
95.6036
95.6648
97.9481
97.6687
99.5447
98.9388
100.48
99.82
100.975
100.106
101.005
100
100.888
99.6664
100.561
99.2856
100.237
99.0866
100.273
99.345
100.46
99.5386
100.169
98.8302
99.1665
97.4289
97.8749
95.9724
96.6853
94.7475
95.7842
93.754
95.0824
92.8917
94.4731
92.0443
93.8909
91.087
93.3346
90.1029
92.7129
89.0789
91.8796
87.6064
90.443
85.3693
87.7037
82.9786
83.7829
78.5484
77.262
71.7813
67.7679
61.8602
55.959
79.1216
79.0468
78.9809
78.9229
78.9021
78.9386
79.0342
79.1798
79.3604
79.5607
79.7671
79.9723
80.1723
80.3678
80.5586
80.7414
80.9182
81.0839
81.233
81.3718
81.5255
81.6875
81.8056
81.8776
81.9778
82.1399
82.3543
82.6796
83.0925
83.5778
84.1141
84.6586
85.1738
85.6459
86.1283
86.7238
87.4861
88.3676
89.2447
90.029
90.8184
91.652
92.5922
93.7048
94.3341
96.1356
96.0602
98.5039
97.9963
100.013
99.2682
101.018
100.226
101.547
100.46
101.551
100.339
101.355
99.9876
101
99.6236
100.763
99.4734
100.88
99.7368
101.104
99.9034
100.751
99.1511
99.6399
97.6827
98.2918
96.1989
97.0748
94.961
96.1701
93.9705
95.4814
93.1207
94.9031
92.3037
94.3795
91.4093
93.899
90.4702
93.3505
89.5031
92.5651
88.1144
91.1409
85.8689
88.7372
83.5631
84.1631
78.9657
77.3293
72.0986
67.8847
62.0782
56.4119
79.2736
79.1158
79.0065
78.9416
78.9191
78.9511
79.0415
79.1827
79.3601
79.5584
79.7632
79.9679
80.1699
80.3693
80.5662
80.7582
80.9463
81.1252
81.2905
81.4485
81.6178
81.7916
81.929
82.034
82.1679
82.3544
82.5894
82.9271
83.3433
83.8312
84.3623
84.8906
85.3818
85.8403
86.3208
86.9198
87.6761
88.5422
89.408
90.2184
91.0564
91.9098
92.8563
93.9336
94.5732
96.3679
96.2945
98.7522
98.1675
100.192
99.4423
101.319
100.358
101.761
100.605
101.762
100.485
101.525
100.136
101.183
99.7823
100.994
99.6545
101.149
99.9001
101.366
100.023
100.972
99.2432
99.812
97.7477
98.4368
96.2508
97.2054
95.006
96.2945
94.0146
95.6109
93.1694
95.0534
92.3612
94.5575
91.4866
94.1155
90.5674
93.6036
89.6136
92.8523
88.2285
91.378
86.0569
89.1294
83.681
84.2912
79.0681
77.313
72.1572
67.8859
62.1209
56.3851
76.1614
75.7493
74.6009
72.904
71.4571
70.3498
69.6448
69.4103
69.2819
69.3233
69.5971
70.0567
70.5535
71.069
71.6559
72.3976
73.2652
74.1756
75.0376
75.9902
77.2003
78.6467
80.3418
82.1575
84.0676
86.0882
88.1313
90.0861
91.9796
93.6827
95.4057
97.0037
98.5881
99.8726
101.062
101.822
102.598
103.087
103.659
103.803
103.672
103.076
102.368
101.454
100.699
99.9932
99.6006
99.224
99.0824
98.8781
98.858
98.7724
98.8029
98.752
98.7712
98.7345
98.7138
98.6563
98.5904
98.4657
98.3227
98.1428
97.9941
97.826
97.6999
97.5506
97.4691
97.3775
97.3687
97.2926
97.2718
97.1502
97.2131
97.1574
97.398
97.1917
97.1226
96.8567
96.7612
96.7205
96.8695
97.0686
97.3309
97.5956
97.8225
98.0149
98.1726
98.3073
98.4235
98.5293
98.6267
98.7245
98.8188
98.8884
98.9178
98.9934
99.1061
99.3119
99.9998
100.889
76.1069
75.6352
74.4142
72.6769
71.1895
70.0755
69.4089
69.2119
69.0699
69.0969
69.369
69.8226
70.3238
70.83
71.3917
72.1309
73.0059
73.9113
74.7451
75.6783
76.8779
78.3317
79.987
81.7383
83.6232
85.6558
87.7502
89.7394
91.6526
93.3709
95.0919
96.6688
98.2265
99.5075
100.687
101.474
102.242
102.767
103.331
103.554
103.431
102.901
102.204
101.335
100.591
99.904
99.5257
99.1657
99.0396
98.8398
98.8319
98.7423
98.7786
98.7222
98.741
98.6996
98.6807
98.6205
98.5587
98.429
98.2861
98.0962
97.9464
97.7693
97.639
97.4815
97.3979
97.3027
97.2978
97.2205
97.1913
97.0607
97.1249
97.0813
97.2919
97.1248
97.0386
96.7989
96.7138
96.6849
96.8526
97.0614
97.3319
97.5998
97.8269
98.0177
98.1746
98.3076
98.4233
98.5267
98.623
98.7184
98.8143
98.8824
98.9097
98.957
99.0005
99.1527
99.8334
100.707
75.9914
75.418
74.0594
72.2263
70.6666
69.5136
68.9237
68.786
68.6335
68.6434
68.9272
69.3805
69.8533
70.292
70.7684
71.444
72.2853
73.1414
73.9407
74.8782
76.116
77.5876
79.1774
80.8223
82.6633
84.6936
86.8893
88.9458
90.8961
92.6649
94.4074
95.9472
97.4654
98.7501
99.9059
100.743
101.493
102.086
102.619
102.944
102.844
102.418
101.741
100.957
100.246
99.6123
99.2607
98.9436
98.8417
98.6678
98.6867
98.6019
98.654
98.5995
98.6172
98.5693
98.5516
98.4895
98.435
98.3042
98.1625
97.9635
97.8085
97.6215
97.4807
97.3089
97.2145
97.1167
97.1102
97.0396
96.9975
96.8541
96.913
96.8923
97.0414
96.95
96.8322
96.6469
96.578
96.5909
96.7891
97.0272
97.3096
97.5882
97.8144
98.0072
98.1618
98.296
98.4098
98.5152
98.6061
98.6991
98.794
98.8788
98.908
98.919
98.8226
98.8897
99.5298
100.421
75.8102
75.1392
73.6184
71.6788
70.0462
68.8123
68.2826
68.1678
68.004
68.0412
68.3544
68.7906
69.1793
69.4932
69.8525
70.424
71.195
71.9801
72.7319
73.6948
74.9958
76.4968
78.0702
79.6367
81.4558
83.475
85.7586
87.9052
89.8922
91.7184
93.4916
95.0047
96.4633
97.7525
98.898
99.7773
100.505
101.156
101.636
102.031
101.965
101.638
101.016
100.322
99.6657
99.1067
98.7837
98.5207
98.4552
98.3175
98.3727
98.3038
98.3813
98.3437
98.359
98.3158
98.2946
98.2396
98.1909
98.0654
97.9283
97.726
97.568
97.3718
97.2163
97.0286
96.9192
96.8235
96.8117
96.7576
96.7033
96.5549
96.5914
96.5909
96.6885
96.6621
96.5285
96.4029
96.3568
96.4278
96.6544
96.9372
97.2387
97.5392
97.7729
97.9662
98.1234
98.2556
98.3735
98.4768
98.5707
98.6565
98.7612
98.8649
98.9194
98.8842
98.6479
98.6053
99.2036
100.093
75.5858
74.8299
73.1577
71.115
69.3941
68.0628
67.5475
67.4086
67.2038
67.2469
67.5531
67.9569
68.2593
68.4408
68.6924
69.1658
69.8523
70.5784
71.3031
72.3068
73.6582
75.1765
76.7664
78.3001
80.122
82.1745
84.557
86.8099
88.8271
90.6807
92.4648
93.9327
95.3308
96.6041
97.7623
98.6639
99.3601
100.043
100.482
100.914
100.875
100.633
100.076
99.4748
98.8948
98.4164
98.1326
97.9185
97.9129
97.8005
97.8971
97.85
97.9524
97.9415
97.9581
97.9232
97.9032
97.8548
97.8182
97.6955
97.5732
97.3711
97.218
97.0133
96.8479
96.6512
96.5271
96.4381
96.421
96.3849
96.327
96.1753
96.1848
96.1898
96.2514
96.2584
96.135
96.0721
96.0656
96.2046
96.4563
96.8008
97.1219
97.4502
97.6901
97.886
98.0406
98.1756
98.2936
98.4031
98.4969
98.5923
98.6966
98.8291
98.8986
98.8551
98.4841
98.3593
98.9116
99.8206
75.3622
74.5452
72.7434
70.6137
68.7979
67.3495
66.777
66.537
66.2337
66.2325
66.4654
66.8152
67.0832
67.1693
67.368
67.7712
68.3976
69.1088
69.8467
70.8801
72.254
73.7973
75.4207
76.9631
78.8036
80.9246
83.4039
85.7604
87.7905
89.6204
91.4009
92.8002
94.1413
95.3876
96.5539
97.4628
98.1259
98.8247
99.2323
99.6522
99.6319
99.4661
98.986
98.4755
97.9709
97.5752
97.3338
97.1727
97.2273
97.1382
97.2869
97.2674
97.3941
97.4218
97.4472
97.4173
97.4025
97.3499
97.3256
97.2046
97.1046
96.9039
96.7588
96.5573
96.3983
96.2009
96.0751
95.9889
95.967
95.9444
95.8894
95.7359
95.715
95.7102
95.739
95.7558
95.6678
95.6735
95.724
95.9423
96.2275
96.6286
96.9719
97.3216
97.5687
97.7619
97.9117
98.0433
98.1609
98.2729
98.3781
98.483
98.6045
98.7427
98.8447
98.7937
98.386
98.1904
98.7658
99.6471
75.183
74.323
72.4036
70.202
68.2872
66.7124
65.9948
65.5491
65.1025
64.9774
65.1031
65.4002
65.7072
65.7675
65.9661
66.3346
66.9467
67.705
68.5046
69.5685
70.9618
72.5337
74.1934
75.749
77.5976
79.7919
82.3427
84.7636
86.7983
88.5633
90.3431
91.671
92.952
94.1593
95.3099
96.2242
96.8566
97.5418
97.9158
98.2925
98.2856
98.181
97.7826
97.3292
96.8971
96.5803
96.3797
96.281
96.3863
96.3463
96.5449
96.5641
96.7092
96.7786
96.806
96.7857
96.7656
96.7201
96.706
96.6038
96.524
96.3414
96.2202
96.0302
95.8912
95.7007
95.5804
95.4985
95.4759
95.4585
95.4065
95.2528
95.1988
95.1725
95.1763
95.1838
95.1514
95.2285
95.3521
95.6522
95.9802
96.4263
96.7932
97.1553
97.4067
97.5898
97.7337
97.8558
97.9712
98.083
98.1981
98.3198
98.4566
98.6106
98.7197
98.7033
98.3105
98.145
98.6986
99.6296
75.0638
74.1685
72.1384
69.8688
67.8585
66.151
65.2021
64.4898
63.891
63.5908
63.5957
63.8374
64.2307
64.3457
64.5651
64.9462
65.5879
66.4405
67.3489
68.4608
69.8976
71.5012
73.1956
74.7567
76.596
78.8413
81.4196
83.8301
85.8693
87.5488
89.3164
90.5681
91.7772
92.9334
94.0397
94.9747
95.5675
96.2216
96.563
96.8859
96.8838
96.8143
96.4866
96.0651
95.7058
95.4396
95.2813
95.2336
95.3952
95.423
95.6625
95.7302
95.8851
95.9967
96.0032
96.0068
95.9831
95.9636
95.971
95.8982
95.8599
95.7086
95.6191
95.4483
95.3321
95.1617
95.0546
94.9844
94.9542
94.9376
94.8869
94.7291
94.6462
94.5929
94.5783
94.5753
94.6072
94.7587
94.9598
95.3393
95.7111
96.1984
96.5817
96.9513
97.201
97.3771
97.5087
97.624
97.7296
97.8408
97.957
98.0946
98.2431
98.4111
98.5361
98.5504
98.2668
98.1577
98.7906
99.6282
74.9938
74.055
71.9318
69.5971
67.483
65.6406
64.3941
63.424
62.7146
62.2419
62.1036
62.2808
62.7737
63.0111
63.2588
63.6879
64.3899
65.3755
66.4256
67.6122
69.1101
70.7469
72.4722
74.0383
75.849
78.1088
80.6563
83.002
85.0235
86.5944
88.3221
89.4842
90.6119
91.7281
92.7505
93.7013
94.2618
94.8771
95.1862
95.4492
95.4405
95.3837
95.1133
94.73
94.435
94.204
94.0818
94.065
94.2866
94.3678
94.646
94.7734
94.9312
95.0868
95.0796
95.1273
95.1243
95.1424
95.1788
95.1405
95.1351
95.0196
94.9549
94.8204
94.7344
94.6004
94.5077
94.4533
94.416
94.3977
94.3434
94.1743
94.07
93.9808
93.9564
93.9578
94.0562
94.2884
94.5609
95.0101
95.4198
95.939
96.3361
96.7057
96.9575
97.1266
97.2504
97.3541
97.4516
97.5512
97.6667
97.801
97.9615
98.1312
98.2835
98.3417
98.1888
98.1851
98.8261
99.822
74.9351
73.9408
71.7443
69.3502
67.1253
65.1523
63.5994
62.4212
61.6541
61.0314
60.7664
60.8706
61.4666
61.8599
62.1256
62.6194
63.4052
64.5404
65.7428
67.0149
68.5898
70.2652
72.0098
73.5921
75.3601
77.5834
80.0449
82.2839
84.2441
85.704
87.3423
88.4353
89.4657
90.5444
91.4653
92.4025
92.9484
93.5084
93.7792
93.9833
93.9665
93.9068
93.6907
93.3514
93.0951
92.891
92.7967
92.821
93.0853
93.2016
93.5233
93.711
93.872
94.0769
94.0757
94.1788
94.2026
94.2613
94.3146
94.3196
94.3333
94.2709
94.2394
94.1557
94.1014
94.012
93.9361
93.9032
93.8657
93.8395
93.7745
93.5978
93.4764
93.3464
93.3241
93.3424
93.5071
93.8251
94.1615
94.6619
95.1043
95.6424
96.0564
96.4204
96.6778
96.842
96.9583
97.0505
97.1376
97.2247
97.3249
97.454
97.6016
97.7814
97.9513
98.0713
98.0543
98.1959
98.9582
99.8389
74.8393
73.776
71.5375
69.0886
66.7667
64.6888
62.8847
61.5682
60.791
60.0513
59.6996
59.7439
60.4436
60.996
61.2487
61.7984
62.6666
63.9305
65.2802
66.6398
68.2974
70.0267
71.7797
73.3855
75.1065
77.2475
79.5676
81.6613
83.5124
84.8621
86.3545
87.3987
88.3253
89.372
90.2055
91.0905
91.6235
92.1144
92.3434
92.5018
92.4795
92.4189
92.2332
91.9283
91.7052
91.5259
91.463
91.5357
91.8184
91.9707
92.3287
92.5603
92.7276
92.9829
92.9906
93.1495
93.1915
93.2999
93.3775
93.4313
93.4809
93.4698
93.4793
93.4486
93.4324
93.3986
93.3491
93.3346
93.302
93.2593
93.1859
93.0024
92.8651
92.7027
92.6954
92.7364
92.9631
93.3621
93.7588
94.2987
94.7679
95.3139
95.7445
96.1027
96.3595
96.5231
96.6261
96.7093
96.7826
96.8582
96.9398
97.05
97.1852
97.3542
97.5509
97.7166
97.8462
98.1091
98.9295
100.059
74.6533
73.5278
71.2811
68.8134
66.4279
64.2985
62.354
60.9862
60.2425
59.4575
59.0554
59.0427
59.7983
60.4727
60.6943
61.2735
62.206
63.56
65.029
66.4722
68.1969
69.9789
71.7321
73.3654
75.0407
77.073
79.2079
81.1225
82.8169
84.0522
85.3607
86.3695
87.2082
88.2141
88.9847
89.7916
90.3012
90.7121
90.9084
91.0247
90.996
90.9289
90.7557
90.4882
90.2917
90.1397
90.1135
90.2265
90.525
90.7159
91.093
91.3486
91.5394
91.8236
91.8647
92.0555
92.146
92.2881
92.4095
92.4979
92.5907
92.6288
92.6836
92.7145
92.7492
92.7711
92.7555
92.7509
92.7376
92.6777
92.6023
92.4031
92.2576
92.0757
92.0934
92.1674
92.4694
92.912
93.3683
93.9207
94.4181
94.9593
95.4063
95.7546
96.0074
96.1659
96.2602
96.3284
96.3894
96.4483
96.5127
96.5987
96.7138
96.8699
97.0705
97.287
97.5293
97.9763
98.8857
99.8218
74.3647
73.1749
70.9576
68.5355
66.1836
64.0643
62.1162
60.7786
60.114
59.3467
58.9094
58.8252
59.5789
60.3148
60.5007
61.0557
62.0357
63.4236
64.9646
66.4813
68.2479
70.0807
71.8157
73.4676
75.0889
76.9889
78.9221
80.65
82.1666
83.29
84.4119
85.3651
86.1366
87.0682
87.7911
88.5194
88.989
89.3381
89.5084
89.585
89.5403
89.456
89.2861
89.0543
88.8849
88.7693
88.7821
88.9288
89.244
89.4635
89.8542
90.1291
90.3608
90.6598
90.7626
90.9652
91.1074
91.266
91.4253
91.5423
91.6783
91.7702
91.8807
91.9752
92.0611
92.1337
92.1642
92.1731
92.1845
92.1064
92.0251
91.8104
91.6692
91.4909
91.5473
91.6668
92.0389
92.4941
92.9858
93.5344
94.0547
94.5897
95.0439
95.383
95.6275
95.7812
95.8656
95.9189
95.9595
96.0022
96.0434
96.1064
96.1933
96.3222
96.5179
96.7439
97.0626
97.5611
98.4573
99.6485
74.0086
72.7771
70.6341
68.2835
66.0779
64.0409
62.2221
60.9779
60.4234
59.7247
59.2483
59.0902
59.7911
60.5306
60.6742
61.1478
62.1347
63.5096
65.0798
66.6568
68.4298
70.2942
71.9959
73.6421
75.2049
76.954
78.6852
80.235
81.5679
82.5748
83.5305
84.401
85.1169
85.9345
86.6139
87.2728
87.7043
88.0109
88.1507
88.1895
88.1223
88.0314
87.8629
87.6617
87.5188
87.4496
87.5053
87.6831
88.0116
88.2509
88.6526
88.9497
89.2329
89.5529
89.719
89.9227
90.1029
90.2689
90.4644
90.6062
90.7804
90.9233
91.0906
91.2411
91.3894
91.5091
91.5919
91.613
91.6471
91.5467
91.4683
91.2424
91.1238
90.9645
91.0697
91.228
91.6509
92.1021
92.6129
93.1528
93.6905
94.2137
94.6676
94.9942
95.2325
95.3773
95.4473
95.4784
95.4995
95.5214
95.5459
95.5762
95.6362
95.7218
95.8855
96.0989
96.4235
96.9842
97.8936
98.8349
73.6992
72.4249
70.3999
68.139
66.1278
64.2637
62.6492
61.5475
61.124
60.5368
60.0361
59.8115
60.3968
61.0932
61.1916
61.5523
62.4996
63.8256
65.3668
66.9636
68.7131
70.5728
72.2487
73.8699
75.3733
76.9637
78.4958
79.8683
81.0164
81.9023
82.7155
83.4848
84.1453
84.8338
85.4628
86.0637
86.4644
86.733
86.8466
86.8615
86.7829
86.6844
86.5138
86.3393
86.2315
86.2202
86.3197
86.5229
86.8603
87.1194
87.533
87.8616
88.193
88.5345
88.7449
88.9524
89.1621
89.337
89.5567
89.7156
89.9172
90.1091
90.338
90.5412
90.7568
90.9104
91.0496
91.0777
91.1465
91.0311
90.9687
90.7316
90.6521
90.5172
90.6792
90.8501
91.3065
91.7364
92.2627
92.7892
93.3349
93.8361
94.2837
94.5923
94.8243
94.9513
95.0056
95.0112
95.0204
95.0283
95.0311
95.0267
95.0409
95.0756
95.1725