/*--------------------------------*- C++ -*----------------------------------*\
| =========                 |                                                 |
| \\      /  F ield         | OpenFOAM: The Open Source CFD Toolbox           |
|  \\    /   O peration     | Version:  2.4.0                                 |
|   \\  /    A nd           | Web:      www.OpenFOAM.org                      |
|    \\/     M anipulation  |                                                 |
\*---------------------------------------------------------------------------*/
FoamFile
{
    version     2.0;
    format      ascii;
    class       volScalarField;
    location    "0.06";
    object      nuSgs;
}
// * * * * * * * * * * * * * * * * * * * * * * * * * * * * * * * * * * * * * //

dimensions      [0 2 -1 0 0 0 0];

internalField   nonuniform List<scalar> 
17600
(
0.00101283
0.000904765
0.000752395
0.000658804
0.00060789
0.000570767
0.000545659
0.000522757
0.000507678
0.000492772
0.000485599
0.000472324
0.000470971
0.000458801
0.000461402
0.0004518
0.000457641
0.000455426
0.000472387
0.000471574
0.000705423
0.000828046
0.000803394
0.000746422
0.000699174
0.000658478
0.000630671
0.000604844
0.000587389
0.000569183
0.000560522
0.00054411
0.000541518
0.000527617
0.000528211
0.000517432
0.000519269
0.000515935
0.000521028
0.000528773
0.000382119
0.000602332
0.000664553
0.000661164
0.000645587
0.000617725
0.000597286
0.000576277
0.000561992
0.00054495
0.000537743
0.000522043
0.000519119
0.000506658
0.000505597
0.000496291
0.000494563
0.000490993
0.000489226
0.000487964
0.000151429
0.000363263
0.000461688
0.000506022
0.000527521
0.000526699
0.000523054
0.000513611
0.00050687
0.000494487
0.000490335
0.000478938
0.000476516
0.000467116
0.000465398
0.000458921
0.000454768
0.000451119
0.000449417
0.000440202
5.36138e-05
0.00017127
0.000267547
0.000324755
0.000371623
0.000396379
0.00041356
0.000419237
0.00042419
0.000421952
0.000422446
0.000418529
0.000418017
0.000413752
0.000412435
0.000409926
0.000405217
0.000401569
0.000401763
0.000391459
1.74204e-05
6.95705e-05
0.00012782
0.000168341
0.000215765
0.000249327
0.000280132
0.000297882
0.000317224
0.000323535
0.00033462
0.000337216
0.000342322
0.000343903
0.000344635
0.000346999
0.000344562
0.000342554
0.000342815
0.000336165
5.58947e-06
2.64276e-05
5.23463e-05
7.18977e-05
0.000101773
0.000126282
0.000156913
0.000174579
0.000199831
0.000211772
0.000228123
0.000239763
0.000247676
0.000258281
0.000261245
0.000270283
0.000269976
0.000271928
0.00027091
0.000269385
2.36323e-06
9.81716e-06
1.96942e-05
2.72666e-05
3.96893e-05
5.12549e-05
7.17738e-05
8.306e-05
0.000102214
0.000114359
0.00012663
0.000142759
0.000149927
0.000164547
0.000169166
0.000181934
0.000184144
0.000189786
0.000188674
0.000191127
1.75808e-06
3.98226e-06
7.76307e-06
1.01598e-05
1.40534e-05
1.83344e-05
2.71596e-05
3.26994e-05
4.1994e-05
5.02857e-05
5.64372e-05
6.82473e-05
7.38069e-05
8.54959e-05
8.94933e-05
0.000100054
0.000103584
0.000107152
0.000109657
0.000112552
1.6321e-06
2.28822e-06
3.8089e-06
4.60743e-06
5.69805e-06
6.84963e-06
9.65978e-06
1.15553e-05
1.50755e-05
1.82921e-05
2.09628e-05
2.60087e-05
2.89826e-05
3.56822e-05
3.77316e-05
4.42897e-05
4.68138e-05
4.74829e-05
5.19548e-05
5.25482e-05
1.61025e-06
1.93904e-06
2.71675e-06
2.96477e-06
3.3777e-06
3.62967e-06
4.34462e-06
4.80851e-06
5.81227e-06
6.64631e-06
7.48964e-06
8.98362e-06
1.0056e-05
1.25165e-05
1.31018e-05
1.60928e-05
1.66597e-05
1.78549e-05
1.97438e-05
1.94896e-05
1.57979e-06
1.85717e-06
2.38461e-06
2.55812e-06
2.74587e-06
2.84042e-06
3.07734e-06
3.20564e-06
3.36552e-06
3.60771e-06
3.80257e-06
4.10806e-06
4.61157e-06
4.84663e-06
5.36496e-06
5.92182e-06
5.95352e-06
6.99598e-06
7.04805e-06
7.24728e-06
1.55354e-06
1.84147e-06
2.18588e-06
2.38964e-06
2.52944e-06
2.64401e-06
2.72713e-06
2.77958e-06
2.80212e-06
2.91566e-06
2.97502e-06
3.1686e-06
3.24809e-06
3.34955e-06
3.72257e-06
3.71592e-06
4.30461e-06
4.20393e-06
4.22131e-06
4.9172e-06
1.54155e-06
1.79902e-06
2.10186e-06
2.28257e-06
2.38173e-06
2.45856e-06
2.53029e-06
2.58255e-06
2.60109e-06
2.66265e-06
2.67276e-06
2.80113e-06
2.82944e-06
3.12156e-06
3.09947e-06
3.10281e-06
3.67979e-06
3.5574e-06
3.63418e-06
5.09577e-06
1.53103e-06
1.72636e-06
2.06262e-06
2.20322e-06
2.2523e-06
2.30249e-06
2.39122e-06
2.43601e-06
2.47491e-06
2.48082e-06
2.48969e-06
2.51412e-06
2.55181e-06
2.82836e-06
2.8326e-06
3.21697e-06
3.15861e-06
3.13978e-06
3.43825e-06
4.75305e-06
1.52221e-06
1.69083e-06
2.00521e-06
2.13047e-06
2.15724e-06
2.1919e-06
2.27673e-06
2.31521e-06
2.34986e-06
2.34855e-06
2.3588e-06
2.35421e-06
2.47763e-06
2.51187e-06
2.52603e-06
2.89352e-06
2.86471e-06
2.95488e-06
3.4782e-06
3.67894e-06
1.51565e-06
1.6702e-06
1.94542e-06
2.06928e-06
2.09187e-06
2.12499e-06
2.18184e-06
2.20955e-06
2.23154e-06
2.23893e-06
2.23751e-06
2.24028e-06
2.33382e-06
2.38258e-06
2.63773e-06
2.60132e-06
2.61337e-06
2.9495e-06
3.02094e-06
2.94686e-06
1.5111e-06
1.65416e-06
1.90479e-06
2.02945e-06
2.04391e-06
2.06967e-06
2.10114e-06
2.13264e-06
2.15717e-06
2.16396e-06
2.16068e-06
2.19875e-06
2.20466e-06
2.22182e-06
2.414e-06
2.48095e-06
2.67672e-06
2.76586e-06
2.66697e-06
2.63294e-06
1.50823e-06
1.64626e-06
1.87836e-06
1.99716e-06
2.0166e-06
2.03787e-06
2.0585e-06
2.08115e-06
2.10451e-06
2.10895e-06
2.10909e-06
2.12344e-06
2.15773e-06
2.30369e-06
2.28972e-06
2.32016e-06
2.55455e-06
2.50734e-06
2.4612e-06
2.51585e-06
1.50686e-06
1.63977e-06
1.86412e-06
1.99286e-06
2.00709e-06
2.01662e-06
2.03204e-06
2.05289e-06
2.08062e-06
2.08717e-06
2.09841e-06
2.11441e-06
2.11262e-06
2.16398e-06
2.24342e-06
2.39481e-06
2.39727e-06
2.35598e-06
2.36591e-06
2.45e-06
1.50696e-06
1.64139e-06
1.8638e-06
1.9915e-06
2.00308e-06
2.02155e-06
2.03162e-06
2.0505e-06
2.08492e-06
2.08576e-06
2.08835e-06
2.11449e-06
2.14897e-06
2.18526e-06
2.20544e-06
2.29691e-06
2.29189e-06
2.29587e-06
2.34065e-06
2.3679e-06
1.50848e-06
1.64872e-06
1.87212e-06
2.00369e-06
2.02246e-06
2.04019e-06
2.04684e-06
2.07182e-06
2.10726e-06
2.11098e-06
2.14376e-06
2.13684e-06
2.13934e-06
2.20269e-06
2.24871e-06
2.2708e-06
2.2904e-06
2.31709e-06
2.33004e-06
2.34783e-06
1.51135e-06
1.66423e-06
1.89158e-06
2.0267e-06
2.06071e-06
2.07189e-06
2.08281e-06
2.1344e-06
2.14489e-06
2.15923e-06
2.19876e-06
2.19369e-06
2.24504e-06
2.24996e-06
2.25761e-06
2.31537e-06
2.34423e-06
2.34955e-06
2.34887e-06
2.36509e-06
1.51591e-06
1.68414e-06
1.91238e-06
2.0741e-06
2.11624e-06
2.12766e-06
2.16103e-06
2.19642e-06
2.20421e-06
2.27235e-06
2.2681e-06
2.26995e-06
2.33261e-06
2.33059e-06
2.3598e-06
2.42803e-06
2.43016e-06
2.43195e-06
2.44205e-06
2.48342e-06
1.52262e-06
1.70679e-06
1.95155e-06
2.15055e-06
2.18022e-06
2.20554e-06
2.26366e-06
2.27784e-06
2.33803e-06
2.38355e-06
2.37224e-06
2.43838e-06
2.43521e-06
2.44311e-06
2.54585e-06
2.5742e-06
2.57396e-06
2.58575e-06
2.61006e-06
2.67595e-06
1.53183e-06
1.73004e-06
2.01616e-06
2.24013e-06
2.26574e-06
2.32167e-06
2.35391e-06
2.39408e-06
2.52064e-06
2.51546e-06
2.53245e-06
2.58279e-06
2.57215e-06
2.67214e-06
2.77374e-06
2.78539e-06
2.80108e-06
2.82628e-06
2.87457e-06
3.05807e-06
1.5422e-06
1.7566e-06
2.11375e-06
2.32256e-06
2.37226e-06
2.45675e-06
2.49128e-06
2.5909e-06
2.66772e-06
2.67929e-06
2.76095e-06
2.76205e-06
2.79269e-06
3.0088e-06
3.07076e-06
3.11067e-06
3.15996e-06
3.26707e-06
3.56057e-06
4.53808e-06
1.55263e-06
1.79444e-06
2.25651e-06
2.37651e-06
2.55526e-06
2.61015e-06
2.71736e-06
2.82847e-06
2.86325e-06
2.96897e-06
3.05266e-06
3.10534e-06
3.30991e-06
3.53385e-06
3.64307e-06
3.87742e-06
4.21564e-06
5.01384e-06
6.61122e-06
1.01215e-05
1.57743e-06
1.84215e-06
2.4488e-06
2.54816e-06
2.78583e-06
2.87325e-06
3.11931e-06
3.23011e-06
3.43349e-06
3.68614e-06
3.88111e-06
4.34526e-06
4.72275e-06
5.48334e-06
6.12971e-06
7.46658e-06
9.06431e-06
1.21844e-05
1.68251e-05
2.54885e-05
1.60435e-06
1.9194e-06
2.78023e-06
2.98626e-06
3.40718e-06
3.74321e-06
4.19476e-06
4.97495e-06
5.68957e-06
6.84184e-06
7.82791e-06
9.74655e-06
1.10836e-05
1.39536e-05
1.61543e-05
2.06416e-05
2.46564e-05
3.29479e-05
4.15669e-05
6.06041e-05
1.62608e-06
2.27079e-06
3.80609e-06
4.7119e-06
5.59153e-06
7.20577e-06
8.9624e-06
1.21373e-05
1.45899e-05
1.88422e-05
2.18862e-05
2.76461e-05
3.11732e-05
3.86041e-05
4.33736e-05
5.32267e-05
6.02912e-05
7.55134e-05
8.8137e-05
0.000120443
1.75482e-06
3.97601e-06
7.59765e-06
1.04254e-05
1.36201e-05
1.94259e-05
2.51691e-05
3.43347e-05
4.0819e-05
5.15209e-05
5.81531e-05
7.04508e-05
7.68381e-05
9.00545e-05
9.74381e-05
0.000112668
0.000122192
0.000142977
0.000157888
0.000197452
2.37101e-06
9.8138e-06
1.94718e-05
2.74946e-05
3.80753e-05
5.3176e-05
6.95163e-05
8.50798e-05
0.000101123
0.000115936
0.000128765
0.000145084
0.000153642
0.000169959
0.000178515
0.000195185
0.000204904
0.000225409
0.00023879
0.000271471
5.60847e-06
2.63814e-05
5.22708e-05
7.18549e-05
0.000101437
0.000126247
0.000156638
0.000175896
0.000199349
0.000213297
0.00023023
0.000241896
0.000251934
0.000262963
0.00027078
0.000281583
0.000288904
0.000302852
0.000312337
0.000333439
1.74562e-05
6.93612e-05
0.000128016
0.000167958
0.000216186
0.000248809
0.000280729
0.000298284
0.000317292
0.000325007
0.000335994
0.000339306
0.000345314
0.00034782
0.000352521
0.000355303
0.000360293
0.000365493
0.000371818
0.000380829
5.37026e-05
0.000170621
0.000268031
0.000324337
0.000372158
0.000395921
0.000414347
0.00041902
0.00042471
0.000422809
0.000423301
0.000420027
0.000419683
0.000416581
0.000416676
0.000414696
0.00041559
0.000414969
0.000416442
0.000416182
0.000151652
0.000362934
0.000462103
0.000505642
0.000527949
0.000526595
0.000523319
0.000513121
0.000507429
0.000494786
0.000490498
0.000479666
0.000476717
0.000468133
0.000466064
0.00045894
0.000457077
0.000450533
0.000447284
0.000439419
0.000382596
0.000601925
0.000664791
0.000660995
0.000646137
0.00061682
0.000598206
0.000575034
0.000562868
0.000544037
0.000537019
0.000521615
0.000517283
0.000504815
0.000501066
0.000489143
0.000484389
0.000470376
0.000462012
0.000445104
0.000705631
0.000827729
0.000803593
0.000745989
0.000699962
0.000657409
0.000631536
0.000603174
0.000588102
0.000567081
0.000558949
0.000541575
0.00053665
0.000521259
0.000516091
0.000499533
0.000491822
0.000470258
0.000455595
0.000426614
0.00101297
0.000904483
0.000752771
0.000658226
0.000608455
0.00056973
0.000546167
0.00052093
0.000507731
0.000489836
0.000482855
0.00046739
0.000462844
0.000447148
0.000441181
0.000422123
0.000412011
0.000384913
0.000364134
0.0003256
0.000196488
0.000165603
0.000142176
0.000125913
0.000114152
0.000114493
0.000123151
0.000129654
0.000133708
0.000133449
0.00012968
0.000124231
0.000112229
9.43649e-05
7.18756e-05
5.21159e-05
3.84277e-05
2.90554e-05
2.77299e-05
2.49426e-05
2.60992e-05
3.54428e-05
6.16186e-05
8.75489e-05
9.44395e-05
8.94172e-05
7.12585e-05
5.47451e-05
4.34526e-05
3.72973e-05
3.50079e-05
3.44552e-05
3.48956e-05
3.85753e-05
4.3243e-05
4.65906e-05
4.75326e-05
4.72371e-05
4.63743e-05
4.62984e-05
4.66083e-05
4.79995e-05
4.78788e-05
4.63549e-05
4.57792e-05
4.89162e-05
5.26456e-05
5.26372e-05
4.97218e-05
3.78556e-05
2.56988e-05
1.68948e-05
1.23605e-05
1.03299e-05
1.00878e-05
1.15263e-05
1.7727e-05
3.27071e-05
5.67999e-05
6.95433e-05
7.23895e-05
7.13611e-05
6.54566e-05
5.56785e-05
4.93323e-05
4.48416e-05
4.21033e-05
4.04488e-05
4.00676e-05
4.02519e-05
4.11671e-05
4.36691e-05
5.11505e-05
5.55814e-05
5.66144e-05
5.60828e-05
5.23068e-05
4.50887e-05
3.73861e-05
3.05201e-05
2.52948e-05
2.15804e-05
1.88647e-05
1.69369e-05
1.55534e-05
1.45957e-05
1.38965e-05
1.35063e-05
1.31381e-05
1.27624e-05
1.22305e-05
1.16302e-05
1.10425e-05
1.04889e-05
9.98611e-06
9.53608e-06
9.22627e-06
8.9955e-06
8.92767e-06
8.88807e-06
8.89342e-06
8.89902e-06
8.86481e-06
8.85892e-06
8.70776e-06
8.67662e-06
8.58347e-06
8.52489e-06
8.32087e-06
7.94282e-06
7.40958e-06
6.85166e-06
6.23546e-06
5.61525e-06
4.98772e-06
4.39082e-06
3.81337e-06
3.29632e-06
2.81169e-06
2.39601e-06
2.02179e-06
1.70822e-06
1.43529e-06
1.21452e-06
1.02528e-06
8.76527e-07
7.54027e-07
6.56396e-07
5.80367e-07
5.23093e-07
4.77258e-07
4.44403e-07
4.225e-07
4.05377e-07
3.98997e-07
3.9801e-07
3.99234e-07
4.02297e-07
4.12186e-07
4.20833e-07
4.41695e-07
4.5447e-07
4.83415e-07
4.99986e-07
5.38213e-07
5.60374e-07
6.0915e-07
6.35242e-07
6.95875e-07
7.28387e-07
8.07383e-07
8.49274e-07
9.41733e-07
9.93026e-07
1.11104e-06
1.16257e-06
1.29353e-06
1.35537e-06
1.51566e-06
1.56828e-06
1.73844e-06
1.78213e-06
1.9322e-06
1.97062e-06
2.12475e-06
2.13504e-06
2.19026e-06
2.11945e-06
2.07087e-06
1.88841e-06
1.6967e-06
1.46974e-06
1.3487e-06
1.31942e-06
1.35393e-06
1.47926e-06
1.58884e-06
1.9257e-06
1.93079e-06
2.12831e-06
1.99444e-06
1.90846e-06
1.68212e-06
1.67468e-06
1.75371e-06
1.77857e-06
1.99394e-06
1.78256e-06
1.71866e-06
1.87007e-06
1.84744e-06
2.2031e-06
2.09832e-06
2.36627e-06
2.92008e-06
3.90705e-06
6.19933e-06
1.08821e-05
3.15815e-05
0.000121372
0.000254096
0.000219976
0.000193458
0.00018218
0.000171346
0.000159175
0.000155202
0.000150711
0.000142473
0.000137021
0.000128256
0.000115815
9.97526e-05
8.0175e-05
5.82135e-05
3.80573e-05
2.93862e-05
2.34854e-05
2.29256e-05
2.09458e-05
2.1715e-05
2.81624e-05
4.06209e-05
7.14763e-05
9.48495e-05
9.29669e-05
7.43436e-05
5.63425e-05
4.39624e-05
3.7343e-05
3.51753e-05
3.46506e-05
3.50519e-05
3.89688e-05
4.32289e-05
4.65602e-05
4.80259e-05
4.78739e-05
4.73607e-05
4.7582e-05
4.90207e-05
4.92884e-05
4.82603e-05
4.62183e-05
4.63981e-05
5.14616e-05
5.36932e-05
5.30074e-05
4.61476e-05
3.29725e-05
2.18664e-05
1.47339e-05
1.13413e-05
1.00828e-05
1.03127e-05
1.32488e-05
2.26207e-05
4.3386e-05
6.55804e-05
7.32709e-05
7.40915e-05
7.11658e-05
6.0646e-05
5.13952e-05
4.59093e-05
4.24454e-05
4.02503e-05
3.88798e-05
3.86008e-05
3.87467e-05
3.94648e-05
4.13651e-05
4.80612e-05
5.40023e-05
5.59216e-05
5.58467e-05
5.34457e-05
4.63751e-05
3.85686e-05
3.14661e-05
2.59628e-05
2.20176e-05
1.91359e-05
1.71307e-05
1.56642e-05
1.46619e-05
1.38952e-05
1.33901e-05
1.2947e-05
1.25087e-05
1.20238e-05
1.14829e-05
1.09507e-05
1.03511e-05
9.91074e-06
9.45442e-06
9.26015e-06
9.03164e-06
9.03645e-06
8.9812e-06
9.01914e-06
8.96666e-06
8.96646e-06
8.88894e-06
8.8392e-06
8.69844e-06
8.65127e-06
8.54582e-06
8.31825e-06
7.87795e-06
7.3639e-06
6.80894e-06
6.19828e-06
5.59398e-06
4.97535e-06
4.38355e-06
3.81581e-06
3.29186e-06
2.81508e-06
2.39011e-06
2.0175e-06
1.69598e-06
1.42136e-06
1.19206e-06
9.99259e-07
8.4154e-07
7.1511e-07
6.09508e-07
5.31985e-07
4.6557e-07
4.17672e-07
3.75863e-07
3.49181e-07
3.23253e-07
3.11069e-07
2.96545e-07
2.90092e-07
2.82999e-07
2.81804e-07
2.80857e-07
2.82284e-07
2.83599e-07
2.88011e-07
2.91633e-07
3.00338e-07
3.08029e-07
3.16158e-07
3.34495e-07
3.49208e-07
3.63144e-07
3.90494e-07
4.22308e-07
4.41548e-07
4.92044e-07
5.44118e-07
5.94073e-07
7.0741e-07
7.94996e-07
8.83875e-07
1.0882e-06
1.18283e-06
1.41952e-06
1.53675e-06
1.80438e-06
1.91549e-06
2.17864e-06
2.24738e-06
2.49301e-06
2.53166e-06
2.70585e-06
2.66869e-06
2.62719e-06
2.44e-06
2.21166e-06
1.87642e-06
1.71826e-06
1.73047e-06
1.79317e-06
2.01095e-06
2.09521e-06
2.45716e-06
2.33363e-06
2.27879e-06
1.9764e-06
1.86872e-06
1.92971e-06
1.99252e-06
2.30103e-06
2.03394e-06
1.97137e-06
2.01802e-06
2.11977e-06
2.48187e-06
2.69578e-06
3.01454e-06
4.04936e-06
6.40127e-06
1.00787e-05
3.30399e-05
0.00010315
0.000246935
0.000225482
0.000204285
0.000190916
0.000183366
0.000170557
0.000159639
0.00015365
0.000141641
0.000132363
0.000119075
0.000102694
8.51446e-05
6.33348e-05
4.33385e-05
2.84034e-05
2.39276e-05
2.02961e-05
1.99815e-05
1.83802e-05
1.84857e-05
2.27923e-05
3.03571e-05
4.94769e-05
9.07867e-05
9.29191e-05
7.78391e-05
5.80051e-05
4.46128e-05
3.77027e-05
3.54932e-05
3.50582e-05
3.55774e-05
3.9582e-05
4.40212e-05
4.72751e-05
4.91077e-05
4.9199e-05
4.91914e-05
5.00812e-05
5.06668e-05
5.02231e-05
4.73166e-05
4.60608e-05
4.80982e-05
5.39061e-05
5.44173e-05
5.22362e-05
4.08587e-05
2.81326e-05
1.78948e-05
1.24513e-05
1.05188e-05
1.00105e-05
1.09271e-05
1.60698e-05
2.92244e-05
5.50999e-05
7.19562e-05
7.61434e-05
7.48959e-05
6.74552e-05
5.56406e-05
4.83889e-05
4.38574e-05
4.08067e-05
3.9075e-05
3.79596e-05
3.76077e-05
3.76714e-05
3.81717e-05
3.97161e-05
4.53126e-05
5.23868e-05
5.51816e-05
5.55012e-05
5.40378e-05
4.75913e-05
3.95595e-05
3.23294e-05
2.66078e-05
2.23956e-05
1.93268e-05
1.72263e-05
1.57217e-05
1.46999e-05
1.3903e-05
1.33316e-05
1.28081e-05
1.23354e-05
1.18013e-05
1.1289e-05
1.07019e-05
1.02382e-05
9.766e-06
9.49824e-06
9.23114e-06
9.14602e-06
9.02357e-06
8.9993e-06
8.94801e-06
8.94791e-06
8.87441e-06
8.85792e-06
8.78342e-06
8.73618e-06
8.70253e-06
8.61038e-06
8.44038e-06
7.95575e-06
7.46487e-06
6.88366e-06
6.28899e-06
5.6657e-06
5.07839e-06
4.46731e-06
3.9381e-06
3.40282e-06
2.94389e-06
2.5232e-06
2.15426e-06
1.82919e-06
1.57141e-06
1.33021e-06
1.15623e-06
9.99235e-07
8.7286e-07
7.79755e-07
7.05399e-07
6.44149e-07
6.09029e-07
5.76924e-07
5.49522e-07
5.4119e-07
5.26453e-07
5.23204e-07
5.22706e-07
5.24477e-07
5.23724e-07
5.27942e-07
5.30376e-07
5.36782e-07
5.39364e-07
5.51055e-07
5.51951e-07
5.57307e-07
5.5962e-07
5.67023e-07
5.66374e-07
5.72369e-07
5.68369e-07
5.70984e-07
5.68469e-07
5.73066e-07
5.75686e-07
5.82827e-07
5.98848e-07
6.07261e-07
6.28662e-07
6.73466e-07
7.05473e-07
7.78544e-07
8.64798e-07
9.7295e-07
1.16626e-06
1.35427e-06
1.74294e-06
1.93335e-06
2.34608e-06
2.50135e-06
2.92173e-06
2.98592e-06
3.24774e-06
3.18739e-06
3.12624e-06
2.89846e-06
2.51823e-06
2.18397e-06
2.14474e-06
2.20912e-06
2.34698e-06
2.76505e-06
2.61975e-06
2.56794e-06
2.26102e-06
2.14226e-06
2.2296e-06
2.28382e-06
2.74352e-06
2.32853e-06
2.20273e-06
2.36646e-06
2.48833e-06
2.76959e-06
3.20298e-06
3.93067e-06
7.51462e-06
9.85959e-06
3.22472e-05
8.3574e-05
0.000223604
0.000205855
0.000193034
0.000179993
0.000171636
0.000164012
0.000150842
0.000143603
0.000130265
0.000117593
0.000102624
8.47902e-05
6.51228e-05
4.34098e-05
2.96557e-05
2.01766e-05
1.77015e-05
1.6604e-05
1.62486e-05
1.628e-05
1.64225e-05
2.01428e-05
2.45777e-05
3.59601e-05
8.3775e-05
9.19841e-05
8.08973e-05
6.00858e-05
4.59476e-05
3.86928e-05
3.62607e-05
3.56942e-05
3.61098e-05
3.96237e-05
4.4247e-05
4.74288e-05
5.04616e-05
5.12917e-05
5.13805e-05
5.19223e-05
5.17752e-05
4.90238e-05
4.65444e-05
4.64511e-05
5.18336e-05
5.55644e-05
5.50305e-05
4.90043e-05
3.46748e-05
2.28408e-05
1.47991e-05
1.11897e-05
1.01848e-05
1.02149e-05
1.22923e-05
2.02946e-05
3.8515e-05
6.5978e-05
7.69669e-05
7.82577e-05
7.49921e-05
6.27951e-05
5.19033e-05
4.56635e-05
4.23038e-05
3.9793e-05
3.82206e-05
3.7353e-05
3.69913e-05
3.7001e-05
3.73193e-05
3.85338e-05
4.30352e-05
5.08069e-05
5.44058e-05
5.51335e-05
5.42465e-05
4.86398e-05
4.04772e-05
3.31161e-05
2.71269e-05
2.26599e-05
1.94602e-05
1.73306e-05
1.5818e-05
1.47869e-05
1.39173e-05
1.33198e-05
1.26902e-05
1.22438e-05
1.16606e-05
1.12176e-05
1.06124e-05
1.02346e-05
9.76085e-06
9.559e-06
9.30021e-06
9.1723e-06
9.02132e-06
8.86588e-06
8.82488e-06
8.77578e-06
8.76494e-06
8.76883e-06
8.77494e-06
8.78852e-06
8.81231e-06
8.78702e-06
8.69473e-06
8.2488e-06
7.67919e-06
7.07943e-06
6.47904e-06
5.84921e-06
5.28635e-06
4.66193e-06
4.16618e-06
3.60662e-06
3.18574e-06
2.73755e-06
2.42841e-06
2.07661e-06
1.88087e-06
1.60965e-06
1.4849e-06
1.29338e-06
1.21582e-06
1.09387e-06
1.05988e-06
9.87164e-07
9.72084e-07
9.37383e-07
9.3397e-07
9.22271e-07
9.27314e-07
9.23701e-07
9.32067e-07
9.31751e-07
9.39997e-07
9.49073e-07
9.74941e-07
9.81807e-07
9.99651e-07
1.02458e-06
1.03893e-06
1.05824e-06
1.09292e-06
1.10142e-06
1.10925e-06
1.14339e-06
1.15595e-06
1.17834e-06
1.18798e-06
1.18883e-06
1.20336e-06
1.19171e-06
1.16085e-06
1.16383e-06
1.13313e-06
1.10015e-06
1.08805e-06
1.04517e-06
1.00707e-06
1.00796e-06
1.01976e-06
1.05195e-06
1.11885e-06
1.222e-06
1.4141e-06
1.71606e-06
2.01789e-06
2.61105e-06
2.87543e-06
3.44449e-06
3.51235e-06
3.80447e-06
3.69794e-06
3.5327e-06
3.02245e-06
2.63698e-06
2.60261e-06
2.6816e-06
3.19162e-06
3.0326e-06
3.11467e-06
2.74588e-06
2.47393e-06
2.46123e-06
2.59722e-06
3.01046e-06
2.57037e-06
2.55982e-06
3.00256e-06
3.05216e-06
4.16398e-06
4.19482e-06
8.60573e-06
1.01552e-05
3.07594e-05
6.84586e-05
0.00019934
0.000183156
0.000173065
0.000161092
0.00015223
0.000145677
0.000132482
0.00012552
0.000111529
9.83144e-05
8.25477e-05
6.24187e-05
4.36595e-05
2.86295e-05
2.03854e-05
1.51218e-05
1.44772e-05
1.49078e-05
1.35049e-05
1.37867e-05
1.4588e-05
1.86825e-05
2.11299e-05
2.65563e-05
7.5026e-05
9.02207e-05
8.33086e-05
6.25632e-05
4.77477e-05
3.95848e-05
3.70485e-05
3.63137e-05
3.67435e-05
3.99119e-05
4.38878e-05
4.75343e-05
5.18158e-05
5.23533e-05
5.22303e-05
5.23642e-05
5.05629e-05
4.71541e-05
4.63657e-05
4.84105e-05
5.60659e-05
5.66101e-05
5.45154e-05
4.2627e-05
2.86633e-05
1.88527e-05
1.24113e-05
1.04237e-05
1.00908e-05
1.06622e-05
1.46808e-05
2.62195e-05
5.16075e-05
7.3997e-05
8.0301e-05
7.94533e-05
7.13725e-05
5.79296e-05
4.95028e-05
4.418e-05
4.0976e-05
3.88841e-05
3.74514e-05
3.66806e-05
3.64397e-05
3.64541e-05
3.66991e-05
3.77001e-05
4.12521e-05
4.936e-05
5.36422e-05
5.47619e-05
5.42012e-05
4.93952e-05
4.12064e-05
3.37218e-05
2.75331e-05
2.29275e-05
1.96435e-05
1.7494e-05
1.59241e-05
1.48906e-05
1.39114e-05
1.3296e-05
1.26133e-05
1.22109e-05
1.16433e-05
1.12266e-05
1.06359e-05
1.02995e-05
9.85136e-06
9.68331e-06
9.38849e-06
9.15963e-06
8.90968e-06
8.78004e-06
8.75773e-06
8.76263e-06
8.85373e-06
8.9011e-06
9.09695e-06
9.09654e-06
9.21415e-06
9.16735e-06
9.08964e-06
8.74017e-06
8.14135e-06
7.48346e-06
6.91843e-06
6.07034e-06
5.71735e-06
4.90381e-06
4.50845e-06
3.93471e-06
3.48582e-06
3.11077e-06
2.75967e-06
2.38289e-06
2.26958e-06
2.01076e-06
1.88898e-06
1.76566e-06
1.68e-06
1.62453e-06
1.62078e-06
1.57073e-06
1.57359e-06
1.57347e-06
1.55375e-06
1.57467e-06
1.56303e-06
1.58033e-06
1.57255e-06
1.61207e-06
1.58553e-06
1.63097e-06
1.61183e-06
1.64869e-06
1.62726e-06
1.69206e-06
1.6547e-06
1.70546e-06
1.68243e-06
1.74154e-06
1.71036e-06
1.78206e-06
1.74871e-06
1.81068e-06
1.79033e-06
1.84891e-06
1.83725e-06
1.8853e-06
1.88288e-06
1.95726e-06
1.90391e-06
1.93387e-06
1.93391e-06
1.92276e-06
1.88129e-06
1.85736e-06
1.77369e-06
1.67426e-06
1.56985e-06
1.4867e-06
1.47284e-06
1.49292e-06
1.56347e-06
1.71e-06
1.94946e-06
2.37541e-06
3.17091e-06
3.50625e-06
4.20186e-06
4.23983e-06
4.37564e-06
4.10518e-06
3.52923e-06
3.05932e-06
3.12721e-06
3.57543e-06
3.53845e-06
3.9156e-06
3.32067e-06
2.86989e-06
2.85113e-06
2.94059e-06
3.29433e-06
3.00102e-06
3.27258e-06
3.35919e-06
4.73963e-06
4.70011e-06
1.42148e-05
1.18745e-05
2.68095e-05
5.55394e-05
0.000172642
0.000158043
0.000150262
0.000137487
0.000128729
0.00012154
0.00010909
0.000101375
8.67508e-05
7.28958e-05
5.44612e-05
3.955e-05
2.76812e-05
1.81614e-05
1.39707e-05
1.21832e-05
1.21078e-05
1.31698e-05
1.19248e-05
1.19963e-05
1.37233e-05
1.76707e-05
1.87431e-05
2.05611e-05
5.94874e-05
8.72181e-05
8.51438e-05
6.65625e-05
4.96039e-05
4.05723e-05
3.75893e-05
3.72889e-05
3.8378e-05
4.0749e-05
4.33104e-05
4.7348e-05
5.15928e-05
5.17661e-05
5.15942e-05
5.0921e-05
4.78184e-05
4.65166e-05
4.72028e-05
5.44362e-05
5.8293e-05
5.73412e-05
5.06112e-05
3.49856e-05
2.30156e-05
1.485e-05
1.08268e-05
1.01017e-05
1.01963e-05
1.18306e-05
1.85226e-05
3.43462e-05
6.40454e-05
8.04083e-05
8.30983e-05
7.99668e-05
6.72703e-05
5.45427e-05
4.68573e-05
4.27963e-05
4.01835e-05
3.82835e-05
3.69924e-05
3.61961e-05
3.59597e-05
3.59782e-05
3.62038e-05
3.70864e-05
4.00423e-05
4.80935e-05
5.29164e-05
5.43577e-05
5.40596e-05
5.0087e-05
4.18589e-05
3.41979e-05
2.79027e-05
2.32261e-05
1.98471e-05
1.76583e-05
1.60054e-05
1.49707e-05
1.38865e-05
1.32955e-05
1.25622e-05
1.2207e-05
1.16581e-05
1.13026e-05
1.08042e-05
1.05453e-05
1.01784e-05
9.9852e-06
9.49996e-06
9.17527e-06
8.98061e-06
8.85854e-06
9.06918e-06
9.0907e-06
9.66317e-06
9.7113e-06
1.01841e-05
1.00777e-05
1.03252e-05
1.01441e-05
1.00938e-05
9.82476e-06
9.49698e-06
8.72655e-06
8.24654e-06
7.15894e-06
6.85061e-06
6.01335e-06
5.69491e-06
4.93955e-06
4.66193e-06
4.11388e-06
3.94976e-06
3.49985e-06
3.42835e-06
3.18739e-06
3.16214e-06
3.05597e-06
3.03821e-06
2.95854e-06
3.00046e-06
2.94125e-06
3.01494e-06
2.99717e-06
3.05739e-06
3.0554e-06
3.14013e-06
3.1232e-06
3.22576e-06
3.22317e-06
3.29914e-06
3.29324e-06
3.38418e-06
3.35075e-06
3.43031e-06
3.41025e-06
3.46455e-06
3.40029e-06
3.48336e-06
3.4022e-06
3.42857e-06
3.33742e-06
3.38718e-06
3.2434e-06
3.26132e-06
3.10375e-06
3.16708e-06
2.9552e-06
2.99663e-06
2.85144e-06
2.91766e-06
2.7683e-06
2.90268e-06
2.74589e-06
2.84974e-06
2.74593e-06
2.83328e-06
2.73194e-06
2.76025e-06
2.64491e-06
2.5619e-06
2.35226e-06
2.19894e-06
2.01476e-06
1.99556e-06
2.05886e-06
2.2165e-06
2.56356e-06
3.08565e-06
4.12725e-06
4.34705e-06
5.11276e-06
4.9742e-06
4.65339e-06
3.78875e-06
3.71042e-06
3.77541e-06
3.9904e-06
4.49493e-06
3.81644e-06
3.36316e-06
3.38441e-06
3.54235e-06
3.64562e-06
4.11164e-06
3.85924e-06
8.76744e-06
6.78499e-06
1.72677e-05
1.38123e-05
2.48906e-05
4.63576e-05
0.000140511
0.000128469
0.000121804
0.000108729
9.91279e-05
9.0802e-05
7.83552e-05
6.88498e-05
5.4988e-05
4.40224e-05
3.32962e-05
2.43815e-05
1.67435e-05
1.15197e-05
1.02389e-05
1.06595e-05
1.06714e-05
1.11722e-05
1.0266e-05
1.02789e-05
1.36294e-05
1.61231e-05
1.6732e-05
1.79676e-05
4.05679e-05
8.19542e-05
8.36517e-05
7.07779e-05
5.24955e-05
4.23227e-05
3.92584e-05
4.14626e-05
4.27469e-05
4.33937e-05
4.46533e-05
4.725e-05
4.97967e-05
4.9705e-05
4.94519e-05
4.79967e-05
4.69954e-05
4.73823e-05
5.27226e-05
5.93869e-05
5.9341e-05
5.6223e-05
4.22051e-05
2.75009e-05
1.81361e-05
1.2316e-05
1.00768e-05
1.0029e-05
1.06785e-05
1.40326e-05
2.39242e-05
4.51789e-05
7.56199e-05
8.50751e-05
8.49871e-05
7.76308e-05
6.19495e-05
5.19673e-05
4.56328e-05
4.17687e-05
3.94396e-05
3.77236e-05
3.65493e-05
3.58276e-05
3.55865e-05
3.5597e-05
3.58026e-05
3.66255e-05
3.92137e-05
4.70513e-05
5.22696e-05
5.40019e-05
5.38741e-05
5.0476e-05
4.2191e-05
3.45763e-05
2.82664e-05
2.3504e-05
2.00045e-05
1.77976e-05
1.60592e-05
1.50291e-05
1.38443e-05
1.32894e-05
1.25152e-05
1.21997e-05
1.16562e-05
1.13993e-05
1.10158e-05
1.08515e-05
1.05172e-05
1.03144e-05
9.64811e-06
9.30879e-06
9.27945e-06
9.22928e-06
9.56048e-06
9.55126e-06
9.83722e-06
9.89496e-06
1.00458e-05
1.00495e-05
1.00756e-05
1.00666e-05
1.00267e-05
9.85394e-06
9.62726e-06
9.05532e-06
8.66223e-06
7.66489e-06
7.30402e-06
6.41361e-06
6.12865e-06
5.41109e-06
5.15774e-06
4.59149e-06
4.4141e-06
3.9869e-06
3.91127e-06
3.64675e-06
3.63149e-06
3.49293e-06
3.48062e-06
3.38898e-06
3.41271e-06
3.34646e-06
3.41467e-06
3.36847e-06
3.43014e-06
3.40545e-06
3.4715e-06
3.4547e-06
3.54399e-06
3.53325e-06
3.60566e-06
3.60059e-06
3.68659e-06
3.67671e-06
3.76281e-06
3.76107e-06
3.82301e-06
3.80591e-06
3.90135e-06
3.88335e-06
3.92795e-06
3.92619e-06
3.99991e-06
3.9832e-06
4.00784e-06
4.07689e-06
4.09353e-06
4.08471e-06
4.07612e-06
4.17492e-06
4.05148e-06
4.04659e-06
3.94884e-06
4.00612e-06
3.80478e-06
3.87689e-06
3.66975e-06
3.79644e-06
3.5919e-06
3.71169e-06
3.54869e-06
3.62938e-06
3.45705e-06
3.34753e-06
3.05823e-06
2.7754e-06
2.52952e-06
2.53639e-06
2.60634e-06
2.94052e-06
3.74017e-06
4.30646e-06
5.66477e-06
5.63794e-06
5.80635e-06
5.03713e-06
4.36454e-06
4.43069e-06
4.62795e-06
5.38725e-06
4.66024e-06
3.83301e-06
4.21186e-06
4.3579e-06
6.92261e-06
5.55666e-06
1.07474e-05
8.47274e-06
2.38329e-05
1.71545e-05
2.13232e-05
3.86337e-05
0.000100071
9.05288e-05
8.28464e-05
6.96426e-05
6.02898e-05
5.29716e-05
4.48223e-05
3.88881e-05
3.18659e-05
2.59494e-05
1.97105e-05
1.41928e-05
9.61321e-06
7.9335e-06
8.69519e-06
9.93556e-06
9.87808e-06
9.60164e-06
8.75997e-06
8.39731e-06
1.2046e-05
1.50014e-05
1.56102e-05
1.66725e-05
3.19383e-05
7.41686e-05
8.13142e-05
7.37305e-05
5.5933e-05
4.64534e-05
4.48684e-05
4.82083e-05
4.92214e-05
4.98023e-05
4.98905e-05
4.95063e-05
5.02483e-05
5.00444e-05
4.86017e-05
4.82505e-05
4.86872e-05
5.20674e-05
6.04722e-05
6.13873e-05
5.95301e-05
4.95368e-05
3.35018e-05
2.13682e-05
1.42994e-05
1.06638e-05
9.80172e-06
1.01176e-05
1.19195e-05
1.76139e-05
3.12105e-05
6.06645e-05
8.32756e-05
8.83766e-05
8.58959e-05
7.31853e-05
5.89317e-05
4.94904e-05
4.42505e-05
4.10312e-05
3.88128e-05
3.72802e-05
3.62701e-05
3.56335e-05
3.53833e-05
3.53744e-05
3.55333e-05
3.62919e-05
3.87366e-05
4.63848e-05
5.17751e-05
5.37173e-05
5.3735e-05
5.06344e-05
4.24886e-05
3.48851e-05
2.84756e-05
2.3661e-05
2.0104e-05
1.7935e-05
1.60999e-05
1.50753e-05
1.37767e-05
1.32707e-05
1.24348e-05
1.21608e-05
1.16109e-05
1.14157e-05
1.09999e-05
1.09538e-05
1.05312e-05
1.04928e-05
9.80565e-06
9.6834e-06
9.44756e-06
9.227e-06
9.28146e-06
9.35628e-06
9.653e-06
9.85258e-06
1.04902e-05
1.05031e-05
1.1134e-05
1.09133e-05
1.12096e-05
1.09155e-05
1.07889e-05
1.0313e-05
9.97115e-06
9.05301e-06
8.69115e-06
7.71349e-06
7.47881e-06
6.73513e-06
6.49603e-06
5.91147e-06
5.7579e-06
5.31741e-06
5.27677e-06
4.97509e-06
5.03712e-06
4.81739e-06
4.85903e-06
4.71755e-06
4.80079e-06
4.66137e-06
4.82016e-06
4.67969e-06
4.81715e-06
4.71397e-06
4.83956e-06
4.73318e-06
4.90114e-06
4.78447e-06
4.91633e-06
4.82108e-06
4.94995e-06
4.83405e-06
4.99034e-06
4.88726e-06
4.96604e-06
4.88107e-06
5.00616e-06
4.9145e-06
4.99518e-06
4.95934e-06
5.00295e-06
4.94635e-06
5.02641e-06
5.00256e-06
5.01882e-06
4.97624e-06
5.03802e-06
5.05332e-06
5.02347e-06
4.93414e-06
5.00811e-06
4.91714e-06
4.87946e-06
4.74242e-06
4.79676e-06
4.60978e-06
4.66176e-06
4.44737e-06
4.62621e-06
4.38634e-06
4.68351e-06
4.42964e-06
4.64784e-06
4.3476e-06
4.28387e-06
3.82118e-06
3.39925e-06
3.16495e-06
3.25265e-06
3.44121e-06
4.31194e-06
5.3676e-06
6.22513e-06
7.09018e-06
6.50943e-06
5.37205e-06
5.23294e-06
5.40016e-06
7.65951e-06
6.16785e-06
7.52859e-06
6.16024e-06
8.93438e-06
7.04323e-06
1.8813e-05
1.33296e-05
3.33933e-05
2.51554e-05
2.3311e-05
3.22779e-05
5.82313e-05
5.15304e-05
4.50469e-05
3.69972e-05
3.15994e-05
2.74268e-05
2.39169e-05
2.12678e-05
1.80513e-05
1.47146e-05
1.07876e-05
7.68867e-06
5.92515e-06
6.537e-06
8.65406e-06
9.35851e-06
9.27721e-06
8.13115e-06
7.58904e-06
7.34272e-06
9.99136e-06
1.33812e-05
1.43595e-05
1.59143e-05
2.86542e-05
6.73547e-05
7.64385e-05
7.34361e-05
5.98126e-05
5.07343e-05
4.87635e-05
5.03728e-05
5.1619e-05
5.42134e-05
5.47304e-05
5.39463e-05
5.34294e-05
5.1186e-05
5.056e-05
5.12425e-05
5.38761e-05
6.22191e-05
6.37291e-05
6.2386e-05
5.54781e-05
3.88312e-05
2.51751e-05
1.6086e-05
1.17943e-05