/*--------------------------------*- C++ -*----------------------------------*\
| =========                 |                                                 |
| \\      /  F ield         | OpenFOAM: The Open Source CFD Toolbox           |
|  \\    /   O peration     | Version:  2.4.0                                 |
|   \\  /    A nd           | Web:      www.OpenFOAM.org                      |
|    \\/     M anipulation  |                                                 |
\*---------------------------------------------------------------------------*/
FoamFile
{
    version     2.0;
    format      ascii;
    class       volScalarField;
    location    "0.06";
    object      p;
}
// * * * * * * * * * * * * * * * * * * * * * * * * * * * * * * * * * * * * * //

dimensions      [0 2 -2 0 0 0 0];

internalField   nonuniform List<scalar> 
17600
(
73.4213
71.6506
69.0532
66.071
63.1803
60.6597
58.5812
57.009
55.8799
54.9949
54.3307
53.8372
53.3649
52.9238
52.5531
52.1642
51.7509
51.3815
51.0099
50.6095
50.2372
49.8681
49.496
49.1277
48.7571
48.3951
48.0382
47.6662
47.3147
46.9643
46.6058
46.248
45.9001
45.5374
45.1801
44.8221
44.4886
44.1521
43.8944
43.691
71.6808
70.4345
68.3303
65.7002
63.0261
60.6403
58.633
57.0988
55.9881
55.0892
54.4093
53.9054
53.4126
52.9527
52.5786
52.1834
51.7568
51.3875
51.0163
50.6084
50.2372
49.8677
49.4948
49.1257
48.7538
48.3927
48.0388
47.6615
47.3143
46.963
46.605
46.2432
45.9012
45.5325
45.1768
44.8136
44.4794
44.1155
43.7774
43.4811
70.3312
69.3683
67.6916
65.484
63.1492
60.9805
59.0748
57.5349
56.3526
55.3715
54.611
54.0437
53.5067
53.0179
52.6253
52.2209
51.7854
51.4121
51.0361
50.6255
50.2522
49.8816
49.5059
49.14
48.7638
48.4048
48.0472
47.674
47.3238
46.9788
46.612
46.2594
45.9027
45.5407
45.1557
44.7969
44.4229
44.1549
44.0093
44.3486
69.2549
68.4882
67.1493
65.3244
63.2893
61.2976
59.4722
57.9187
56.6713
55.6282
54.8022
54.1734
53.6094
53.1011
52.6841
52.2698
51.8394
51.4525
51.0697
50.6646
50.2839
49.9074
49.5307
49.1587
48.7866
48.4231
48.063
47.6966
47.35
46.9977
46.6362
46.2817
45.9195
45.5518
45.1735
44.8009
44.3674
43.893
43.4952
44.3495
68.4411
67.7852
66.695
65.1602
63.3711
61.5237
59.7812
58.2195
56.9406
55.8523
54.9661
54.2837
53.7087
53.1736
52.7367
52.3182
51.8968
51.4891
51.1101
50.7095
50.319
49.9371
49.5605
49.1758
48.8175
48.4425
48.08
47.7249
47.3862
47.0183
46.6737
46.3117
45.9469
45.5489
45.1869
44.8337
44.697
44.7602
45.1514
44.7819
67.7794
67.2495
66.3219
65.0041
63.3943
61.6792
60.0007
58.458
57.1601
56.0456
55.0999
54.3828
53.784
53.2331
52.7732
52.3625
51.938
51.5227
51.1445
50.7537
50.3449
49.9716
49.582
49.1966
48.839
48.4643
48.0882
47.7627
47.4121
47.0509
46.7033
46.356
45.9714
45.5861
45.207
44.8027
44.402
44.074
43.9479
45.707
67.2675
66.8468
66.0305
64.8688
63.3829
61.776
60.165
58.6455
57.3298
56.2071
55.2186
54.4618
53.8432
53.2805
52.8005
52.3962
51.9709
51.549
51.178
50.7878
50.3713
50.0004
49.6037
49.2112
48.8656
48.4801
48.1065
47.7962
47.4473
47.0818
46.7478
46.4028
46.0056
45.6165
45.2254
44.8231
44.464
44.3518
44.7813
47.2953
66.9222
66.5513
65.8173
64.7562
63.3609
61.8281
60.2902
58.7768
57.4541
56.3387
55.3153
54.514
53.8968
53.3108
52.8184
52.4223
51.9956
51.5672
51.2069
50.8123
50.3925
50.0259
49.621
49.2225
48.8884
48.4923
48.1252
47.8246
47.4823
47.1132
46.7935
46.4437
46.049
45.6641
45.2849
44.893
44.5709
44.4603
44.9754
47.3908
66.6767
66.3623
65.6734
64.6781
63.3346
61.8593
60.3686
58.8667
57.5364
56.4303
55.379
54.5531
53.934
53.3342
52.8257
52.4459
52.0107
51.5805
51.2306
50.8296
50.4053
50.0495
49.6307
49.235
48.9069
48.5113
48.1402
47.8596
47.509
47.1498
46.8412
46.5005
46.1115
45.7431
45.375
44.9984
44.669
44.5762
45.1031
47.5448
66.5819
66.2707
65.6004
64.6309
63.3211
61.8654
60.4077
58.9157
57.5738
56.4732
55.4171
54.5654
53.956
53.3469
52.831
52.4589
52.02
51.5846
51.245
50.824
50.412
50.0643
49.6374
49.2447
48.928
48.5251
48.1619
47.89
47.5388
47.1864
46.8939
46.5617
46.1927
45.8467
45.499
45.1298
44.8085
44.6824
45.1902
47.6104
66.5756
66.2794
65.592
64.6283
63.3177
61.8703
60.4108
58.9278
57.5602
56.4747
55.4187
54.5595
53.9609
53.3595
52.8268
52.4747
52.0248
51.5894
51.2516
50.8254
50.4071
50.078
49.6371
49.2603
48.9451
48.5431
48.1819
47.9211
47.5638
47.2281
46.9435
46.6329
46.2825
45.9778
45.6533
45.3248
44.995
44.8451
45.1244
47.4269
66.7262
66.3542
65.6299
64.647
63.3348
61.8494
60.384
58.8873
57.5044
56.4303
55.3919
54.5283
53.9496
53.3551
52.8157
52.4715
52.0156
51.5774
51.2484
50.8134
50.3982
50.0784
49.6373
49.2615
48.9583
48.5521
48.1998
47.9392
47.5874
47.2623
46.9926
46.6957
46.376
46.1052
45.8318
45.5732
45.3114
45.1238
44.9822
46.2852
67.071
66.5247
65.7351
64.6964
63.3767
61.8036
60.328
58.7943
57.4126
56.3391
55.3422
54.4754
53.9317
53.3377
52.816
52.4563
52.014
51.5612
51.2457
50.7942
50.3993
50.0699
49.6458
49.2617
48.9769
48.5581
48.2331
47.9533
47.6244
47.2966
47.0535
46.7514
46.4833
46.2288
46.0292
45.8336
45.7301
45.7336
45.85
44.8935
67.3767
66.8238
65.9551
64.8211
63.4038
61.7501
60.2095
58.6663
57.2813
56.2226
55.2555
54.4144
53.8842
53.3143
52.7951
52.4384
51.9917
51.5504
51.2275
50.7838
50.3906
50.0693
49.6415
49.2751
48.9782
48.5773
48.2511
47.9781
47.6457
47.3413
47.0958
46.8184
46.5712
46.3584
46.2034
46.0945
46.0524
46.0381
45.8078
43.9918
67.822
67.249
66.2785
64.9872
63.4087
61.6554
60.0325
58.4904
57.1098
56.0656
55.141
54.3395
53.8123
53.2759
52.7651
52.4012
51.9627
51.532
51.1962
50.7703
50.3763
50.0538
49.6381
49.2801
48.9711
48.5939
48.2655
47.9914
47.6671
47.3793
47.131
46.8757
46.6446
46.4618
46.3292
46.2574
46.2173
46.185
45.7679
43.9016
68.4448
67.8005
66.6766
65.1572
63.3774
61.5024
59.7946
58.2528
56.901
55.8688
55.0033
54.2548
53.7226
53.2202
52.7332
52.3449
51.9301
51.511
51.153
50.7499
50.3681
50.02
49.6387
49.2829
48.9577
48.6054
48.2885
47.9933
47.6959
47.4143
47.1673
46.9201
46.7116
46.5288
46.4041
46.321
46.2837
46.2248
45.9285
44.2273
69.2569
68.5045
67.1463
65.3253
63.2871
61.2787
59.4784
57.9395
56.6469
55.6417
54.8314
54.1597
53.6197
53.146
52.6925
52.2838
51.8826
51.4903
51.101
50.7242
50.3591
49.9846
49.6284
49.2911
48.9365
48.6144
48.3074
47.9964
47.7136
47.4488
47.1922
46.9581
46.7575
46.5747
46.4308
46.3255
46.2374
46.167
46.0197
45.0499
70.3281
69.3818
67.6949
65.4884
63.1397
60.9685
59.0825
57.546
56.3348
55.3848
54.6356
54.0433
53.513
53.061
52.6432
52.227
51.8333
51.4637
51.0593
50.6982
50.3452
49.9598
49.6151
49.2923
48.9229
48.6184
48.3165
48.0025
47.7234
47.4724
47.2078
46.985
46.7801
46.6007
46.4347
46.3097
46.1377
45.9452
45.6638
45.6818
71.6796
70.4428
68.3346
65.7079
63.0166
60.6315
58.6439
57.1037
55.9738
55.1034
54.4296
53.9113
53.4185
52.9918
52.6008
52.1907
51.806
51.4437
51.0412
50.6857
50.3346
49.951
49.6107
49.2874
48.9224
48.6191
48.3192
48.0077
47.7308
47.4798
47.2189
46.9943
46.7902
46.604
46.4328
46.2934
46.1475
46.04
45.9471
45.8994
73.4179
71.6589
69.0577
66.0773
63.173
60.6527
58.59
57.0143
55.8676
55.0075
54.3496
53.8449
53.3739
52.9596
52.5753
52.1775
51.796
51.4352
51.0429
50.685
50.3326
49.9574
49.6127
49.2877
48.9303
48.6227
48.3215
48.015
47.7357
47.483
47.2251
46.9991
46.794
46.6051
46.4367
46.2942
46.169
46.0643
46.0044
45.969
43.6958
43.6819
43.5793
43.3693
43.0686
42.6883
42.2378
41.7017
41.0707
40.3353
39.4888
38.5423
37.5207
36.4641
35.4401
34.4738
33.6082
32.9019
32.4307
32.2328
32.3262
32.7326
33.4581
34.4803
35.7648
37.2844
39.0276
40.9812
43.114
45.3935
47.7897
50.2314
52.604
54.7976
56.7306
58.3496
59.6225
60.5405
61.1243
61.4029
61.4691
61.076
60.506
59.7184
58.7112
57.4947
56.078
54.4783
52.7182
50.8108
48.775
46.6393
44.4173
42.1364
39.8377
37.527
35.2075
32.9196
30.7179
28.6249
26.6429
24.6557
22.8457
21.2764
19.9055
18.6849
17.6364
16.7896
16.1623
15.7538
15.5475
15.5457
15.744
16.1337
16.6964
17.4096
18.2919
19.2957
20.3722
21.5606
22.8216
24.0974
25.3883
26.7021
27.9971
29.1604
30.2333
31.2541
32.0882
32.754
33.3155
33.7373
33.9971
34.0484
33.9058
33.6235
33.1773
32.5471
31.7731
30.8714
29.862
28.7517
27.4788
26.1339
24.8398
23.4847
22.0809
20.7523
19.4828
18.2916
17.2087
16.2499
15.4504
14.8369
14.3984
14.1391
14.1861
14.6398
15.473
16.6598
18.1409
19.7764
21.3711
23.4062
25.9065
28.6213
31.3788
34.1765
37.0947
40.1376
43.1317
45.9234
48.5379
51.0546
53.5055
55.8707
58.0515
59.9685
61.6478
63.139
64.4775
65.6795
66.7081
67.5282
68.1831
68.7308
69.173
69.511
69.7716
69.9644
70.0819
70.1462
70.2104
70.3073
70.4265
70.5512
70.6941
70.8776
71.1053
71.367
71.6516
71.9545
72.2775
72.6197
72.9732
73.324
73.6559
73.9518
74.1993
74.3933
74.5398
74.6569
74.7619
74.8587
74.9453
75.0191
75.0853
75.1478
75.1992
75.2331
75.252
75.2667
75.287
75.3174
75.3492
75.3778
75.3961
75.4067
75.4132
75.4224
75.4388
75.4536
75.4743
75.4902
75.5076
75.4988
75.4711
75.4426
75.4449
75.4621
75.4951
75.5097
75.509
75.5019
75.4916
75.5015
75.51
75.5405
75.5108
75.4986
75.4734
75.4668
75.4569
75.4738
75.4739
75.498
75.4966
75.5199
75.4997
75.512
75.4968
75.5002
75.489
75.4871
75.4801
75.4776
75.4741
75.4747
75.4689
75.4721
75.4636
75.469
75.4627
75.4658
75.4602
75.4579
75.4536
75.4512
75.4455
75.4476
75.4424
75.4437
75.4375
75.4412
75.4338
75.4345
75.4301
75.4285
75.427
75.4245
75.4201
75.4206
75.4101
75.4141
75.4035
75.4089
75.4003
75.4008
75.3949
75.3915
75.386
75.385
75.3772
75.38
75.3686
75.3728
75.3608
75.3638
75.3527
75.3545
75.3455
75.3458
75.3367
75.3365
75.3273
75.3272
75.3161
75.3179
75.3027
75.308
75.2931
75.2962
75.2829
75.2834
75.2723
75.2704
75.2584
75.2579
75.2425
75.2435
75.2273
75.2266
75.2126
75.2097
75.194
75.1929
75.173
75.1736
75.1518
75.1512
75.1294
75.1272
75.104
75.1011
75.0762
75.0713
75.0469
75.0377
75.0146
75.0026
74.9779
74.9633
74.9381
74.92
74.8938
74.8728
74.8442
74.8215
74.7896
74.7641
74.73
74.701
74.6644
74.6322
74.5925
74.5574
74.5144
74.475
74.4295
74.3857
74.3378
74.2886
74.2378
74.1818
74.1282
74.0661
74.0083
73.9406
73.8804
73.8048
73.7428
73.6603
73.5957
73.5039
73.439
73.3374
73.272
73.1609
73.096
72.9754
72.9085
72.777
72.7069
72.5652
72.4916
72.343
72.2645
72.1124
72.0271
71.8769
71.782
71.6366
71.5284
71.3896
71.2636
71.1294
70.9865
70.8528
70.6979
70.5574
70.387
70.2513
70.0544
69.922
69.689
69.5559
69.2885
69.1468
68.8664
68.6862
68.4036
68.1389
67.8294
67.4542
67.0576
66.5522
66.0699
65.3457
64.7114
63.7363
62.7171
61.4093
59.7725
57.8369
55.0879
51.9552
46.8353
39.4727
29.201
7.57395
43.5432
43.4314
43.1181
42.7842
42.473
42.1679
41.8145
41.3808
40.838
40.1807
39.4212
38.5816
37.6878
36.7843
35.9119
35.1207
34.4453
33.9371
33.6439
33.5987
33.812
34.2909
35.0459
36.0688
37.3385
38.8317
40.5285
42.4188
44.4775
46.6457
48.8442
50.9868
52.9838
54.7757
56.3432
57.6638
58.7068
59.458
59.9254
60.1522
60.1452
59.9678
59.5
58.7856
57.8572
56.7233
55.3959
53.8913
52.2315
50.443
48.5446
46.5628
44.5189
42.4351
40.3261
38.2128
36.1549
34.1496
32.1454
30.1634
28.3611
26.7952
25.2652
23.8431
22.6241
21.5984
20.7391
20.0376
19.5204
19.211
19.0967
19.1691
19.4059
19.8175
20.4079
21.1203
21.9728
22.9565
24.0059
25.133
26.2955
27.4658
28.6623
29.7908
30.8524
31.8598
32.7075
33.4088
33.9688
34.3581
34.6351
34.7448
34.615
34.3879
34.0517
33.4274
32.6661
31.8464
30.7824
29.5124
28.1284
26.5893
24.8496
22.9646
21.041
19.0507
17.0163
15.057
13.1599
11.3711
9.79872
8.43298
7.2722
6.4422
5.94811
5.56915
5.41187
5.6601
6.26456
7.39565
9.01493
10.8336
13.0237
15.5661
18.4865
21.6335
24.8866
28.3275
31.9537
35.5748
39.0175
42.2973
45.5348
48.6827
51.5945
54.2249
56.5771
58.6989
60.6587
62.4102
63.8538
65.0293
66.0657
66.9898
67.7487
68.3357
68.8069
69.2184
69.5822
69.8768
70.0805
70.2074
70.2995
70.3883
70.4864
70.6021
70.7471
70.9295
71.151
71.4067
71.6862
71.981
72.2861
72.5957
72.9036
73.2046
73.4913
73.7535
73.9819
74.1724
74.3309
74.4654
74.582
74.6863
74.7828
74.8696
74.9442
75.0085
75.0633
75.1033
75.1312
75.1583
75.1921
75.2296
75.2631
75.2884
75.3105
75.3253
75.3395
75.3493
75.3647
75.3788
75.4015
75.4089
75.4121
75.3965
75.4054
75.4115
75.3907
75.383
75.3885
75.3983
75.4155
75.4352
75.4456
75.4588
75.4563
75.4441
75.4556
75.4534
75.4518
75.451
75.4626
75.4554
75.4678
75.4552
75.4645
75.4411
75.4601
75.4521
75.4636
75.4644
75.4649
75.4688
75.4603
75.4674
75.4592
75.464
75.4594
75.4626
75.4608
75.4619
75.4639
75.4597
75.4632
75.454
75.4545
75.4451
75.4438
75.4413
75.4403
75.4369
75.4364
75.4303
75.4321
75.4258
75.4252
75.4199
75.419
75.414
75.4115
75.4071
75.4057
75.4007
75.3969
75.3945
75.3887
75.3847
75.383
75.3781
75.3772
75.3697
75.3687
75.3615
75.3575
75.3529
75.3505
75.3458
75.3431
75.3339
75.3345
75.3229
75.3238
75.3129
75.3131
75.3048
75.3004
75.2925
75.288
75.2785
75.2771
75.2645
75.2647
75.2505
75.2503
75.2355
75.2331
75.2191
75.2152
75.2022
75.1983
75.1843
75.1791
75.1635
75.1595
75.1408
75.1366
75.1178
75.1105
75.0921
75.0836
75.0618
75.0554
75.0297
75.023
74.9951
74.987
74.9569
74.9496
74.914
74.9076
74.8686
74.8599
74.8196
74.8084
74.7645
74.753
74.7045
74.6908
74.6404
74.6232
74.5695
74.5509
74.4914
74.4703
74.4079
74.3822
74.3169
74.2883
74.2181
74.1872
74.1131
74.0768
73.9992
73.9566
73.8747
73.8256
73.742
73.6854
73.6016
73.5367
73.4522
73.3779
73.293
73.2076
73.1215
73.0264
72.9373
72.8347
72.7422
72.6333
72.5376
72.4209
72.3208
72.1917
72.0913
71.946
71.8469
71.6839
71.5894
71.4081
71.3169
71.118
71.0235
70.8102
70.7046
70.4841
70.3619
70.1455
69.995
69.7863
69.6011
69.3997
69.181
68.9694
68.7222
68.4969
68.1919
67.9625
67.5679
67.3127
66.8072
66.4685
65.891
65.396
64.764
64.03
63.2025
62.1701
61.1139
59.5179
58.073
55.8793
53.2863
49.8972
45.2126
39.7679
30.6185
19.8456
5.04582
45.0678
44.5893
43.1999
42.0038
41.2393
40.8674
40.7055
40.5673
40.3336
39.9572
39.4404
38.8167
38.1301
37.4326
36.7803
36.2127
35.7622
35.4598
35.3351
35.4183
35.7238
36.2585
37.0234
38.0078
39.1903
40.5435
42.0479
43.6814
45.4092
47.1843
48.9559
50.6855
52.3315
53.8395
55.1726
56.3169
57.2559
57.9711
58.4703
58.7508
58.7828
58.514
58.0553
57.4154
56.5798
55.5488
54.3532
53.0188
51.5527
49.9669
48.2792
46.5151
44.6936
42.8562
41.0094
39.1311
37.2791
35.4946
33.8213
32.2591
30.7872
29.3874
28.0486
26.8478
25.8311
24.9767
24.2899
23.775
23.417
23.2347
23.2362
23.4092
23.7198
24.1701
24.7721
25.4697
26.2594
27.1528
28.0752
29.0215
30.019
30.9825
31.9107
32.848
33.7035
34.4303
35.0703
35.5835
35.9222
36.0968
36.102
35.9821
35.7039
35.1946
34.5445
33.7179
32.6595
31.4472
30.0439
28.4109
26.5455
24.5065
22.2999
19.8452
17.2847
14.6934
12.0018
9.34314
6.7981
4.36103
2.14525
0.184637
-1.47111
-2.69336
-3.49161
-3.89638
-3.89906
-3.56661
-3.01057
-2.12664
-0.573155
1.74552
4.51683
7.45217
10.5114
13.8645
17.616
21.6117
25.7228
29.8563
33.8475
37.7182
41.5858
45.3048
48.6524
51.6511
54.448
57.0339
59.2801
61.1875
62.8742
64.3808
65.6539
66.6685
67.4702
68.1229
68.6481
69.0336
69.2973
69.4948
69.6738
69.8529
70.0274
70.1874
70.3382
70.4959
70.6737
70.8807
71.1211
71.389
71.6735
71.9642
72.2538
72.5379
72.8125
73.0756
73.3313
73.5792
73.8079
74.0037
74.1622
74.2903
74.402
74.5058
74.6022
74.6947
74.7861
74.8671
74.9283
74.9711
75.0032
75.0423
75.0893
75.1467
75.1943
75.2274
75.2421
75.2535
75.2543
75.2658
75.2744
75.3046
75.3221
75.348
75.3513
75.3594
75.3405
75.3123
75.2978
75.2649
75.2576
75.2764
75.3051
75.3406
75.3818
75.409
75.431
75.4398
75.4495
75.4423
75.4356
75.4224
75.423
75.4219
75.4325
75.4406
75.4534
75.4654
75.4575
75.4367
75.4522
75.4444
75.4509
75.4402
75.4507
75.4367
75.4517
75.4405
75.4542
75.4534
75.4552
75.4601
75.4533
75.4564
75.4504
75.4502
75.4442
75.4407
75.4378
75.4324
75.4324
75.4261
75.4243
75.4204
75.4162
75.4193
75.4151
75.4159
75.4136
75.4083
75.4074
75.396
75.3971
75.3941
75.3926
75.3912
75.3856
75.3797
75.375
75.365
75.3685
75.3589
75.3643
75.3533
75.3544
75.3431
75.3371
75.3333
75.3258
75.3252
75.3186
75.3109
75.3067
75.2957
75.2929
75.2872
75.2805
75.2757
75.2647
75.2596
75.2503
75.245
75.2393
75.2294
75.2251
75.2113
75.2031
75.1934
75.1844
75.1743
75.1659
75.153
75.1456
75.1312
75.1216
75.1073
75.0951
75.0813
75.0656
75.0533
75.035
75.0214
75.0018
74.9877
74.9664
74.9501
74.9278
74.9102
74.8849
74.8658
74.8392
74.8166
74.7893
74.7642
74.7326
74.7067
74.6719
74.6426
74.6054
74.5735
74.5316
74.4979
74.4502
74.415
74.3625
74.3239
74.2654
74.2273
74.1612
74.1221
74.0506
74.0095
73.9307
73.888
73.8
73.7555
73.6578
73.6111
73.5044
73.4563
73.3381
73.2876
73.1598
73.1054
72.9702
72.9118
72.7711
72.7073
72.5638
72.4906
72.3454
72.26
72.1169
72.0168
71.8774
71.7599
71.6221
71.4863
71.3486
71.197
71.0543
70.8901
70.7382
70.557
70.4046
70.1964
70.0489
69.8067
69.6642
69.3808
69.2356
68.9074
68.7502
68.3993
68.2089
67.8629
67.6072
67.2618
66.904
66.5202
66.0663
65.6103
65.0025
64.5084
63.6778
63.0949
61.9949
61.1192
59.8605
58.4535
56.7959
54.7117
52.5653
48.9743
45.7395
40.3314
34.5721
26.7921
17.8378
8.48005
47.292
47.044
44.8149
42.851
41.5446
40.8444
40.5212
40.3461
40.1737
39.9447
39.642
39.2778
38.8761
38.4609
38.0672
37.7277
37.4712
37.323
37.312
37.4643
37.7981
38.323
39.0293
39.8989
40.9212
42.0749
43.3324
44.6765
46.0727
47.5005
48.9486
50.3738
51.7346
52.9865
54.0806
54.9961
55.7419
56.3029
56.6368
56.7862
56.8043
56.7073
56.3663
55.8428
55.1652
54.323
53.33
52.1975
50.9829
49.6808
48.2622
46.7926
45.2888
43.7177
42.1719
40.7024
39.1894
37.6521
36.2247
34.9364
33.6908
32.4821
31.375
30.4139
29.6301
28.9867
28.4479
28.0666
27.8444
27.7446
27.7729
27.9431
28.2366
28.6183
29.0966
29.6943
30.3456
31.0233
31.7953
32.5948
33.3525
34.1444
34.9337
35.629
36.2765
36.8859
37.3984
37.7847
38.0313
38.1657
38.1471
37.8809
37.4047
36.7788
35.9303
34.7656
33.3357
31.6834
29.738
27.5362
25.1181
22.456
19.6083
16.6097
13.4711
10.2347
6.96753
3.75847
0.600947
-2.44552
-5.24132
-7.7841
-10.0202
-11.8255
-13.1412
-13.8887
-14.0377
-13.5781
-12.5997
-11.3734
-9.74886
-7.29561
-4.06018
-0.686672
2.65841
6.31624
10.4721
14.9093
19.3357
23.7386
28.2328
32.7268
37.0297
41.0707
44.9154
48.6223
52.0238
54.9164
57.4297
59.7535
61.7791
63.4048
64.7775
66.0045
67.0038
67.7152
68.2048
68.5577
68.8157
69.013
69.1996
69.4119
69.644
69.8709
70.0834
70.2897
70.5056
70.7471
71.0188
71.3095
71.6045
71.8939
72.1749
72.4475
72.7114
72.9648
73.2129
73.4505
73.6568
73.8212
73.9614
74.0983
74.2358
74.3605
74.4666
74.5567
74.6398
74.7191
74.7895
74.8383
74.8704
74.9035
74.9609
75.0312
75.0931
75.1411
75.1669
75.1868
75.1922
75.2005
75.2188
75.2506
75.2838
75.3123
75.337
75.3425
75.3362
75.3064
75.2998
75.2905
75.2836
75.2787
75.3168
75.3478
75.391
75.4131
75.4231
75.4268
75.4132
75.4173
75.3933
75.402
75.3784
75.4025
75.3922
75.4218
75.4204
75.4445
75.4452
75.4655
75.4414
75.437
75.4287
75.429
75.4298
75.4295
75.4343
75.4373
75.4404
75.4466
75.4451
75.4536
75.4455
75.4506
75.4402
75.4427
75.4337
75.4327
75.4271
75.4246
75.4215
75.4205
75.4181
75.42
75.4079
75.4096
75.3992
75.4025
75.3941
75.3958
75.3919
75.39
75.3839
75.3817
75.3734
75.3736
75.3632
75.369
75.3548
75.3587
75.3451
75.345
75.3371
75.3357
75.33
75.3309
75.3164
75.3177
75.3026
75.3024
75.2908
75.2902
75.2795
75.2778
75.2627
75.2627
75.244
75.2496
75.229
75.2338
75.2131
75.2118
75.1949
75.1926
75.1763
75.1742
75.159
75.1549
75.1384
75.1346
75.1136
75.112
75.0896
75.0871
75.0633
75.0602
75.0329
75.0308
74.9997
74.9987
74.9645
74.962
74.9281
74.9226
74.8881
74.8801
74.8449
74.834
74.7987
74.783
74.7483
74.7289
74.6927
74.671
74.6318
74.6077
74.5662
74.5388
74.4949
74.4644
74.4169
74.3833
74.3321
74.2943
74.2406
74.1979
74.1404
74.0934
74.0331
73.9802
73.9183
73.8583
73.7938
73.7277
73.6609
73.5886
73.5187
73.4376
73.3639
73.2751
73.1976
73.1007
73.0199
72.9121
72.8312
72.7103
72.6283
72.4917
72.4106
72.2557
72.1759
72.0026
71.9253
71.734
71.6593
71.452
71.3715
71.148
71.0562
70.8208
70.7133
70.475
70.3471
70.1166
69.9618
69.7396
69.5481
69.326
69.0928
68.8618
68.5976
68.3498
68.0386
67.7927
67.3986
67.1624
66.6663
66.4147
65.798
65.4924
64.8092
64.3576
63.6654
62.9843
62.2071
61.2796
60.3202
58.9201
57.8907
55.8045
54.4939
51.7109
49.4895
45.8673
42.1351
37.5559
32.1181
26.2695
19.4783
12.7295
42.4857
42.2846
42.9323
43.0642
42.6442
41.9608
41.2937
40.7665
40.4066
40.1998
40.0799
39.9788
39.853
39.6941
39.5115
39.3393
39.2088
39.145
39.1859
39.3488
39.6597
40.1227
40.7254
41.468
42.3258
43.2855
44.3292
45.4244
46.5639
47.7355
48.9053
50.0378
51.0987
52.0596
52.9038
53.6291
54.2287
54.6709
54.9591
55.126
55.2045
55.1505
54.8858
54.4753
53.9499
53.2992
52.5293
51.6435
50.6818
49.6421
48.547
47.3673
46.1527
44.9465
43.6974
42.4479
41.142
39.8949
38.7622
37.7079
36.6672
35.6648
34.806
34.0534
33.415
32.9032
32.4676
32.1414
31.9633
31.8859
31.8777
31.9953
32.227
32.5247
32.8974
33.3497
33.87
34.4218
34.9946
35.6413
36.3305
36.9802
37.6583
38.37
38.9744
39.4993
40.018
40.4405
40.704
40.8055
40.7385
40.4856
39.942
39.0851
37.967
36.5177
34.6933
32.5059
29.9922
27.1825
24.0922
20.7903
17.2758
13.5627
9.70814
5.77942
1.85877
-2.03823
-5.82847
-9.4204
-12.7766
-15.8309
-18.5006
-20.7272
-22.4708
-23.6409
-24.1876
-23.9706
-22.8871
-21.2313
-19.4074
-16.7463
-13.231
-9.35644
-5.39813
-1.20901
3.43295
8.40467
13.3123
18.0427
22.7814
27.6106
32.4359
37.0827
41.4102
45.3657
48.9607
52.2865
55.3586
57.9977
60.1429
61.9862
63.6209
64.9519
65.9798
66.8125
67.4827
67.9709
68.305
68.5545
68.7862
69.0319
69.2833
69.5227
69.7497
69.9767
70.2212
70.4993
70.8158
71.1566
71.4936
71.8085
72.1056
72.3891
72.6486
72.8766
73.0928
73.3132
73.52
73.6895
73.8377
73.9825
74.1233
74.246
74.3514
74.4384
74.5189
74.5976
74.6768
74.7346
74.7806
74.8231
74.8843
74.955
75.0261
75.0781
75.1136
75.1312
75.1443
75.16
75.1869
75.2155
75.2477
75.2825
75.3074
75.3328
75.342
75.3408
75.3093
75.2762
75.2554
75.255
75.2883
75.3315
75.3837
75.4225
75.4512
75.4476
75.4457
75.4274
75.4201
75.3974
75.3947
75.3784
75.3927
75.3964
75.4209
75.4332
75.4427
75.4454
75.4371
75.432
75.4202
75.4225
75.4082
75.4155
75.4138
75.4199
75.433
75.4322
75.4419
75.4361
75.437
75.4328
75.4267
75.4199
75.4174
75.4136
75.4145
75.4093
75.4086
75.3984
75.4022
75.3949
75.3987
75.3955
75.3953
75.3939
75.3918
75.3884
75.3853
75.3804
75.3788
75.3732
75.3713
75.3679
75.361
75.359
75.3496
75.3424
75.3415
75.3356
75.3349
75.3272
75.3233
75.3156
75.3107
75.3012
75.2995
75.2891
75.2845
75.2716
75.2704
75.2573
75.2556
75.244
75.2374
75.228
75.2186
75.2078
75.2021
75.1891
75.1834
75.168
75.1627
75.1464
75.1413
75.1263
75.1179
75.1029
75.0935
75.075
75.0667
75.0491
75.0389
75.0181
75.008
74.9843
74.9726
74.9476
74.9334
74.9068
74.894
74.8635
74.8508
74.8152
74.8031
74.7644
74.7516
74.7089
74.6955
74.6478
74.6339
74.5832
74.5665
74.5128
74.4936
74.4354
74.4155
74.3523
74.3295
74.2626
74.2375
74.1641
74.1387
74.0584
74.0312
73.9445
73.9146
73.8191
73.7871
73.6836
73.6491
73.5395
73.5007
73.386
73.343
73.2224
73.1726
73.0489
72.9911
72.8656
72.7977
72.6718
72.5916
72.4658
72.3709
72.2455
72.1341
72.0086
71.881
71.7536
71.6114
71.4777
71.3233
71.1812
71.0144
70.8688
70.6799
70.5343
70.3139
70.1718
69.9144
69.7832
69.4831
69.3593
69.0113
68.8823
68.4886
68.3422
67.9288
67.7406
67.3291
67.0657
66.6646
66.2922
65.8741
65.392
64.9148
64.3188
63.845
62.9966
62.5616
61.38
60.9186
59.4206
58.7199
56.9268
55.7655
53.669
51.8162
49.4622
46.7536
43.7184
40.0638
36.3916
31.9278
27.4248
22.3101
16.9207
49.9417
49.5635
46.2431
43.2893
41.2404
40.09
39.6805
39.7258
39.9848
40.2875
40.5433
40.7246
40.8114
40.8248
40.7769
40.7028
40.6426
40.621
40.6776
40.8327
41.1018
41.4927
42.0023
42.6257
43.3463
44.1501
45.0205
45.9286
46.8698
47.8252
48.7607
49.6613
50.4979
51.2668
51.9607
52.5689
53.0752
53.467
53.7755
53.9604
54.0189
53.948
53.7487
53.4586
53.0485
52.5705
51.9888
51.3095
50.5641
49.74
48.8908
47.9459
47.0056
46.0284
44.9671
43.9131
42.9074
42.0063
41.0844
40.1988
39.3697
38.5779
37.8989
37.2926
36.7827
36.3376
35.9945
35.7349
35.5308
35.4513
35.4207
35.4513
35.5948
35.8132
36.0926
36.4597
36.8931
37.3648
37.8998
38.4723
39.0949
39.7747
40.4511
41.1377
41.842
42.5021
43.0649
43.5262
43.8736
44.0229
43.914
43.528
42.8416
41.8721
40.5663
38.8193
36.7045
34.2269
31.2996
27.9943
24.3218
20.3063
15.9964
11.4355
6.71323
1.84241
-3.02804
-7.779
-12.3859
-16.726
-20.7039
-24.2406
-27.3127
-29.8224
-31.686
-32.9816
-33.6727
-33.7506
-33.1323
-31.6148
-29.0904
-25.9985
-22.2836
-18.0421
-13.4648
-8.58677
-3.38128
2.01431
7.32254
12.5531
17.9446
23.3879
28.5233
33.2798
37.8171
42.1776
46.2638
49.9405
53.1156
55.8578
58.3208
60.5049
62.3028
63.7454
64.948
65.9167
66.625
67.1452
67.5677
67.9285
68.2539
68.5678
68.8692
69.1532
69.4268
69.7003
69.9854
70.3003
70.6618
71.0569
71.4399
71.7747
72.0689
72.3422
72.5953
72.8239
73.0351
73.2396
73.4327
73.598
73.741
73.8672
73.9941
74.1281
74.2691
74.3867
74.4825
74.5642
74.6529
74.7256
74.7839
74.8259
74.8775
74.942
74.9958
75.0413
75.0686
75.1096
75.1484
75.1952
75.2077
75.2375
75.2369
75.2624
75.258
75.2698
75.2469
75.2421
75.2227
75.2325
75.2384
75.2552
75.2824
75.3056
75.356
75.3825
75.4192
75.4205
75.4296
75.4088
75.4072
75.3819
75.3883
75.3748
75.392
75.3891
75.4129
75.4184
75.4307
75.4317
75.4359
75.4404
75.4333
75.4303
75.4208
75.4177
75.4136
75.4077
75.4121
75.4045
75.4129
75.4031
75.409
75.4071
75.408
75.4096
75.4046
75.4102
75.4085
75.4116
75.4174
75.4114
75.4102
75.3928
75.3941
75.3847
75.3839
75.3855
75.3829
75.3895
75.3831
75.3735
75.3724
75.359
75.3606
75.3544
75.3559
75.3534
75.3509
75.344
75.3331
75.3231
75.3207
75.3152
75.3157
75.3033
75.2999
75.2866
75.2807
75.2733
75.2701
75.26
75.2561
75.2377
75.2327
75.222
75.2146
75.211
75.1973
75.1876
75.1742
75.1627
75.1566
75.1433
75.1383
75.1169
75.1108
75.0904
75.0875
75.0679
75.0627
75.039
75.0308
75.0124
75.0021
74.9825
74.9704
74.9469
74.9277
74.9072
74.8866
74.8654
74.8429
74.8204
74.796
74.771
74.7461
74.7194
74.6906
74.6627
74.6317
74.6014
74.5685
74.5346
74.4988
74.4646
74.4238
74.3867
74.3447
74.3021
74.2576
74.2118
74.1625
74.1145
74.0596
74.007
73.9481
73.892
73.8245
73.7663
73.6918
73.6303
73.5471
73.4836
73.3901
73.3273
73.2206
73.1565
73.0375
72.9749
72.8393
72.7783
72.626
72.567
72.3979
72.3412
72.1534
72.0985
71.8947
71.8387
71.6174
71.5537
71.3164
71.2437
70.9962
70.912
70.6627
70.5627
70.3147
70.1889
69.9473
69.7844
69.5429
69.3328
69.092
68.837
68.5888
68.3022
68.037
67.6991
67.4454
67.0182
66.802
66.2366
66.0594
65.33
65.1603
64.2742
64.0793
63.0535
62.7499
61.6173
61.1232
59.9037
59.0989
57.8202
56.613
55.2192
53.6347
51.92
49.8699
47.8194
45.1421
42.5849
39.4587
36.3499
32.7894
29.0083
24.8793
20.4406
51.1645
50.4457
46.3669
42.6522
40.1758
38.9621
38.8141
39.2777
39.9614
40.6112
41.1367
41.5199
41.751
41.8644
41.8877
41.8629
41.8323
41.8284
41.8829
42.0252
42.2584
42.5901
43.0235
43.5466
44.1562
44.8353
45.5693
46.3305
47.1181
47.9062
48.6786
49.4301
50.1277
50.7907
51.3838
51.9074
52.3449
52.6957
52.9674
53.1033
53.1611
53.11
53.0022
52.8059
52.4889
52.1458
51.6634
51.1503
50.5485
49.8939
49.242
48.4943
47.7718
46.9362
46.1247
45.3559
44.6041
43.9154
43.1317
42.4432
41.7695
41.1527
40.6087
40.0709
39.6835
39.2941
38.997
38.7935
38.6144
38.5205
38.4706
38.4988
38.5524
38.7006
38.9395
39.2051
39.5905
40.0388
40.5297
41.1347
41.7891
42.4754
43.2633
44.0779
44.8605
45.6519
46.3738
46.9481
47.3516
47.5122
47.433
47.1015
46.4114
45.3371
43.9161
42.0841
39.7351
36.8884
33.5784
29.7578
25.4545
20.7661
15.6633
10.178
4.53491
-1.21938
-7.06985
-12.7854
-18.2419
-23.3817
-28.0671
-32.171
-35.6326
-38.4554
-40.6092
-41.9741
-42.5195
-42.4949
-41.8604
-40.1052
-37.3814
-34.0697
-30.1161
-25.5079
-20.4505
-15.0663
-9.43365
-3.68069
2.06126
7.82275
13.6777
19.441
24.8951
30.0985
35.0994
39.7307
43.8872
47.6445
51.0834
54.2046
56.9521
59.2725
61.193
62.7897
64.0915
65.1071
65.9038
66.5593
67.0969
67.5415
67.9496
68.3452
68.7094
69.0399
69.3606
69.6838
70.0082
70.3468
70.7199
71.1205
71.5108
71.8588
72.1672
72.4429
72.6812
72.881
73.0682
73.2551
73.4371
73.5942
73.7251
73.8337
73.9484
74.07
74.2001
74.2976
74.3858
74.4573
74.5516
74.6346
74.721
74.7875
74.8634
74.9157
74.975
75.0073
75.0377
75.0599
75.0813
75.1171
75.1375
75.1784
75.1863
75.2078
75.2088
75.2429
75.2527
75.2891
75.2966
75.3106
75.2808
75.2556
75.2511
75.2794
75.3276
75.3811
75.4109
75.4332
75.4274
75.4372
75.4309
75.4477
75.4438
75.4474
75.4389
75.4342
75.428
75.4195
75.412
75.4064
75.3948
75.4037
75.4016
75.4053
75.4138
75.418
75.4198
75.4243
75.4101
75.4112
75.3918
75.3826
75.3723
75.3587
75.3574
75.3593
75.3549
75.3675
75.3604
75.3715
75.3657
75.3725
75.3705
75.373
75.3728
75.3727
75.3687
75.3691
75.3578
75.3599
75.3536
75.3594
75.3558
75.3564
75.3492
75.3448
75.3385
75.3383
75.331
75.3347
75.3194
75.3133
75.3024
75.3019
75.2915
75.2888
75.2821
75.2759
75.2618
75.2593
75.2417
75.2418
75.2268
75.2228
75.2073
75.203
75.1822
75.1823
75.1614
75.1631
75.1413
75.1383
75.1163
75.1096
75.0926
75.0843
75.0675
75.0611
75.0358
75.0293
75.0092
75.0062
74.9776
74.9723
74.9358
74.9342
74.8978
74.8992
74.861
74.858
74.8189
74.8141
74.771
74.7644
74.7198
74.71
74.6632
74.6531
74.6021
74.5898
74.5359
74.5221
74.466
74.4496
74.3889
74.371
74.306
74.2875
74.2186
74.1948
74.1223
74.0972
74.0195
73.9905
73.9082
73.8749
73.7882
73.7506
73.6594
73.6153
73.5207
73.4705
73.3722
73.3133
73.2132
73.1464
73.0421
72.9647
72.8603
72.7716
72.6633
72.5632
72.4524
72.3392
72.2244
72.0986
71.9757
71.8384
71.7081
71.5589
71.4212
71.2586
71.1177
70.9308
70.7918
70.5776
70.4465
70.1946
70.0836
69.7864
69.6967
69.3388
69.2604
68.8326
68.7636
68.2717
68.2162
67.6629
67.5968
66.9811
66.8832
66.2122
66.0658
65.3605
65.1205
64.3779
64.0032
63.2341
62.6757
61.897
61.1658
60.351
59.4457
58.4976
57.4362
56.3793
55.0689
53.8518
52.2296
50.7334
48.7861
46.9198
44.6374
42.3048
39.6635
36.8564
33.7956
30.5161
27.0143
23.2975
51.3608
50.7367
46.6916
42.9274
40.4032
39.1604
39.0289
39.5817
40.3956
41.184
41.8369
42.3173
42.6227
42.7816
42.8327
42.8229
42.801
42.802
42.8533
42.9853
43.1907
43.4796
43.8502
44.299
44.8187
45.3999
46.022
46.661
47.3336
47.9938
48.6582
49.2952
49.8931
50.4644
50.9523
51.4085
51.7664
52.0668
52.2847
52.4073
52.5106
52.4911
52.4577
52.2959
52.0743
51.8289
51.4507
51.0965
50.5978
50.1274
49.5998
49.0239
48.4989
47.839
47.3247
46.713
46.122
45.5611
44.9188
44.4316
43.8424
43.3971
42.9303
42.4699
42.1905
41.822
41.6168
41.4143
41.2802
41.2335
41.1438
41.2115
41.231
41.2933
41.4886
41.6875
41.9856
42.4213
42.934
43.53
44.2575
45.0495
45.9212