/*--------------------------------*- C++ -*----------------------------------*\
| =========                 |                                                 |
| \\      /  F ield         | OpenFOAM: The Open Source CFD Toolbox           |
|  \\    /   O peration     | Version:  2.4.0                                 |
|   \\  /    A nd           | Web:      www.OpenFOAM.org                      |
|    \\/     M anipulation  |                                                 |
\*---------------------------------------------------------------------------*/
FoamFile
{
    version     2.0;
    format      ascii;
    class       volScalarField;
    location    "0.015";
    object      p;
}
// * * * * * * * * * * * * * * * * * * * * * * * * * * * * * * * * * * * * * //

dimensions      [0 2 -2 0 0 0 0];

internalField   nonuniform List<scalar> 
4400
(
112.407
92.2635
84.6804
81.2699
78.6833
76.8494
75.5296
71.9488
73.0937
68.8136
110.475
92.3321
84.7194
81.2843
78.6827
76.8392
75.5304
71.9561
73.0297
68.7931
109.264
92.6504
84.8553
81.3263
78.6992
76.8439
75.5264
71.9706
72.9145
68.8103
108.532
93.0354
85.0296
81.3887
78.7481
76.8747
75.5136
72.0348
72.7341
68.9452
107.942
93.3822
85.1995
81.4567
78.8256
76.9395
75.4886
72.1654
72.5062
69.1711
107.434
93.6711
85.3361
81.5223
78.9078
77.0185
75.4651
72.3256
72.3059
69.4811
107.018
93.8916
85.4506
81.5665
78.9832
77.098
75.433
72.4871
72.1771
69.6693
106.701
94.0583
85.5356
81.6002
79.0383
77.1558
75.415
72.6414
72.0717
69.778
106.486
94.1726
85.5927
81.6189
79.0763
77.1963
75.405
72.7692
72.0059
69.8177
106.377
94.2304
85.6241
81.6274
79.0964
77.2217
75.3933
72.8889
71.9691
69.8621
106.373
94.2375
85.6175
81.6339
79.101
77.2243
75.391
73.0084
71.9548
69.9496
106.478
94.1868
85.5862
81.6289
79.0878
77.2229
75.3871
73.1053
71.9612
70.028
106.686
94.0845
85.5191
81.6219
79.0589
77.1944
75.3893
73.2048
71.9732
70.13
107
93.9261
85.4263
81.6006
79.0057
77.1627
75.3859
73.2987
72.0162
70.1644
107.412
93.7122
85.3059
81.5667
78.935
77.1102
75.3891
73.386
72.057
70.2426
107.917
93.4328
85.1583
81.5176
78.853
77.0588
75.3873
73.4666
72.1156
70.2732
108.506
93.0892
84.9847
81.4552
78.7792
77.0171
75.3879
73.5299
72.151
70.3148
109.237
92.7061
84.8079
81.3954
78.734
76.9995
75.3891
73.5715
72.1702
70.3596
110.448
92.3873
84.6726
81.3538
78.7186
77.0019
75.3899
73.5917
72.1667
70.4186
112.38
92.319
84.633
81.34
78.7182
77.0076
75.3882
73.5968
72.1548
70.5351
65.6748
69.1813
67.3003
44.9173
20.0645
6.97564
17.3502
41.2762
62.8212
76.0055
83.4626
87.9139
90.5303
92.1917
93.25
93.8699
94.226
94.4358
94.5552
94.6144
94.6333
94.6258
94.6011
94.5653
94.522
94.4737
94.422
94.3681
94.3126
94.256
94.1987
94.1407
94.0824
94.0238
93.9649
93.9059
93.8468
93.7876
93.7283
93.669
93.6096
93.5502
93.4908
93.4313
93.3719
93.3124
93.2529
93.1934
93.1338
93.0743
93.0147
92.9552
92.8956
92.836
92.7764
92.7168
92.6572
92.5975
92.5378
92.4781
92.4183
92.3584
92.2985
92.2384
92.1783
92.1179
92.0574
91.9965
91.9353
91.8735
91.811
91.7475
91.6828
91.6158
91.5473
91.4726
91.3982
91.3046
91.2254
91.083
91.0271
90.7792
90.9163
90.5324
91.3943
90.9841
92.7623
92.1623
93.4983
92.4013
92.5961
91.5644
91.7748
90.3432
90.2965
87.6547
87.1989
80.5715
78.7745
48.8065
60.6123
64.7724
68.3203
50.6539
27.9577
15.5784
24.3555
45.5958
65.322
76.7036
83.5127
87.9786
90.6039
92.1574
93.1585
93.7766
94.1364
94.3495
94.476
94.5446
94.5733
94.575
94.5585
94.5296
94.4922
94.449
94.4016
94.3512
94.2986
94.2444
94.1891
94.1328
94.0759
94.0184
93.9605
93.9023
93.8438
93.7851
93.7263
93.6673
93.6082
93.549
93.4898
93.4304
93.3711
93.3117
93.2522
93.1928
93.1332
93.0737
93.0141
92.9545
92.8948
92.8351
92.7754
92.7156
92.6558
92.5958
92.5358
92.4757
92.4155
92.3551
92.2945
92.2337
92.1725
92.1111
92.0491
91.9866
91.9234
91.8592
91.7939
91.7269
91.658
91.5859
91.5113
91.4285
91.3453
91.237
91.1455
90.9678
90.8959
90.5439
90.6836
90.0182
91.0946
90.235
92.7193
91.6147
93.478
91.8801
92.2251
90.7357
91.3392
89.177
89.5543
85.6667
85.663
76.6528
74.4953
41.207
58.8373
62.0022
66.7818
53.3666
34.6663
25.7033
32.9012
50.5625
67.7138
77.6086
83.5586
87.7855
90.5133
92.0947
93.0619
93.668
94.0357
94.2596
94.3965
94.4754
94.5139
94.5246
94.5161
94.4942
94.4627
94.4245
94.3812
94.3343
94.2847
94.2329
94.1796
94.1249
94.0694
94.013
93.9561
93.8986
93.8408
93.7826
93.7242
93.6655
93.6067
93.5478
93.4887
93.4296
93.3703
93.311
93.2516
93.1922
93.1326
93.0731
93.0135
92.9538
92.8941
92.8343
92.7744
92.7145
92.6544
92.5942
92.5339
92.4734
92.4127
92.3518
92.2905
92.2289
92.1669
92.1043
92.041
91.9768
91.9117
91.8452
91.777
91.7066
91.6337
91.5566
91.4761
91.3855
91.2941
91.1716
91.0694
90.857
90.7712
90.3067
90.4391
89.4313
90.6422
89.2296
92.4262
90.7927
93.5117
91.1649
91.7459
89.7006
90.8645
87.8493
88.4451
83.4028
84.0521
73.3442
69.6514
39.3262
59.4331
61.5587
65.0545
54.8613
40.4261
34.3873
40.5267
55.587
69.9039
78.4811
83.8739
87.7711
90.3472
91.9333
92.9291
93.5453
93.9236
94.1628
94.3148
94.4061
94.455
94.4748
94.4742
94.4592
94.4336
94.4003
94.3612
94.3178
94.271
94.2216
94.1702
94.1172
94.063
94.0078
93.9517
93.895
93.8378
93.7801
93.7221
93.6639
93.6053
93.5466
93.4877
93.4287
93.3696
93.3103
93.251
93.1916
93.1321
93.0725
93.0129
92.9531
92.8933
92.8334
92.7734
92.7133
92.653
92.5926
92.532
92.4711
92.41
92.3485
92.2867
92.2243
92.1613
92.0976
92.033
91.9672
91.9002
91.8314
91.7605
91.6868
91.61
91.528
91.4419
91.3439
91.2448
91.1093
90.9978
90.754
90.6573
90.0821
90.1987
88.8189
90.1197
88.0699
91.8555
89.7377
93.0012
90.2547
91.1161
88.3356
90.277
86.3854
87.1673
80.9829
81.6578
70.1471
64.0919
39.8091
60.9086
62.0018
64.9972
57.0981
45.0328
39.5797
45.7897
59.3792
71.8633
79.1867
84.0363
87.902
90.3434
91.7941
92.7694
93.4063
93.8006
94.0581
94.2291
94.3358
94.3965
94.4257
94.4332
94.4249
94.4052
94.3767
94.3417
94.3016
94.2576
94.2105
94.1611
94.1097
94.0568
94.0026
93.9475
93.8915
93.8349
93.7777
93.7202
93.6622
93.6039
93.5454
93.4867
93.4279
93.3688
93.3097
93.2504
93.191
93.1315
93.0719
93.0122
92.9525
92.8926
92.8326
92.7725
92.7122
92.6517
92.5911
92.5301
92.4689
92.4074
92.3454
92.2829
92.2197
92.1558
92.091
92.0251
91.9579
91.8889
91.8179
91.7444
91.6675
91.5869
91.5004
91.409
91.3041
91.1978
91.0508
90.9315
90.6627
90.558
89.8942
89.9567
88.2699
89.4555
86.9816
91.0033
88.7879
91.9295
88.7257
89.7591
86.4007
89.3903
84.3841
85.9311
78.6488
79.1992
67.8174
57.7718
40.1656
62.4948
62.1591
65.1333
59.3163
48.505
43.6547
50.1947
62.0477
73.1785
79.9467
84.1864
87.8651
90.36
91.7473
92.6691
93.2941
93.6879
93.9549
94.1421
94.2646
94.338
94.3772
94.3928
94.3914
94.3774
94.3537
94.3226
94.2859
94.2446
94.1998
94.1522
94.1024
94.0507
93.9976
93.9433
93.8881
93.8321
93.7754
93.7182
93.6606
93.6026
93.5443
93.4858
93.427
93.3681
93.309
93.2498
93.1904
93.1309
93.0714
93.0117
92.9518
92.8919
92.8318
92.7715
92.7111
92.6504
92.5895
92.5283
92.4668
92.4048
92.3423
92.2792
92.2153
92.1505
92.0847
92.0175
91.9488
91.8781
91.8049
91.7288
91.6489
91.5647
91.4738
91.3774
91.2663
91.1534
90.9965
90.8707
90.585
90.4795
89.771
89.7938
87.9384
88.7524
86.3195
90.1219
88.5986
90.5958
86.8922
87.7316
84.0317
87.2052
81.415
83.2804
74.8306
74.989
64.3344
52.6736
40.8467
63.9044
62.9792
65.813
61.5656
52.3629
48.327
54.678
64.8452
74.1394
80.2724
84.313
87.8085
90.2629
91.6259
92.5579
93.2058
93.6064
93.8741
94.0658
94.1977
94.2817
94.3304
94.3539
94.3591
94.3506
94.3315
94.3043
94.2707
94.2321
94.1895
94.1437
94.0953
94.0449
93.9928
93.9394
93.8848
93.8294
93.7732
93.7164
93.6591
93.6013
93.5432
93.4849
93.4262
93.3674
93.3084
93.2492
93.1899
93.1304
93.0708
93.0111
92.9512
92.8912
92.831
92.7706
92.71
92.6492
92.5881
92.5266
92.4647
92.4023
92.3393
92.2756
92.211
92.1454
92.0786
92.0102
91.94
91.8676
91.7924
91.7139
91.6311
91.5435
91.4486
91.3474
91.2306
91.1115
90.9469
90.815
90.5213
90.4195
89.7213
89.725
87.9092
88.1882
86.0048
88.9875
88.487
89.1312
85.1951
85.3121
82.0466
85.0336
78.6577
79.7159
70.411
69.1807
58.7734
48.9009
40.566
65.2252
64.1481
66.5197
64.2369
57.2217
53.4017
58.4124
67.448
75.6436
80.5396
84.0653
87.6396
90.2341
91.5361
92.3804
93.0249
93.4824
93.7936
94.0016
94.1392
94.2291
94.285
94.3159
94.3277
94.3247
94.3102
94.2867
94.2562
94.2201
94.1796
94.1355
94.0886
94.0394
93.9883
93.9356
93.8817
93.8268
93.771
93.7146
93.6576
93.6001
93.5422
93.484
93.4255
93.3667
93.3078
93.2487
93.1894
93.1299
93.0703
93.0105
92.9506
92.8905
92.8302
92.7697
92.709
92.648
92.5866
92.5249
92.4627
92.3999
92.3364
92.2722
92.2069
92.1405
92.0727
92.0032
91.9316
91.8576
91.7804
91.6996
91.6142
91.5233
91.4247
91.3191
91.1974
91.0724
90.9021
90.7636
90.4688
90.3698
89.7146
89.7402
88.0568
87.9343
85.5866
87.1622
86.8415
86.7641
83.022
82.9396
80.1477
82.4589
76.2599
75.6866
67.5294
64.1911
55.1448
46.844
39.8646
66.4962
65.3255
66.6306
65.7623
61.1772
58.2001
61.6809
68.9902
76.7924
81.3268
84.0654
87.2321
90.0305
91.5517
92.3855
92.8865
93.2995
93.6531
93.9121
94.0786
94.1817
94.2451
94.2818
94.2989
94.3006
94.2902
94.2701
94.2425
94.2088
94.1703
94.1278
94.0823
94.0341
93.9839
93.932
93.8788
93.8244
93.769
93.7129
93.6562
93.5989
93.5412
93.4832
93.4248
93.3661
93.3072
93.2482
93.1889
93.1294
93.0698
93.01
92.9501
92.8899
92.8295
92.7689
92.708
92.6469
92.5853
92.5233
92.4608
92.3976
92.3337
92.2689
92.203
92.1359
92.0671
91.9965
91.9237
91.848
91.7691
91.6861
91.5981
91.5043
91.4023
91.2926
91.1667
91.0361
90.862
90.7161
90.4251
90.3209
89.7192
89.769
88.2769
87.9443
85.1865
84.6413
84.0879
83.6016
80.9505
80.9172
77.8175
79.2382
73.4953
71.1808
65.6289
60.822
54.2742
46.2796
40.5335
67.5363
66.6122
66.3148
66.1972
63.2545
61.5274
64.5973
70.471
76.8367
81.3724
84.3936
87.3517
89.6399
91.1321
92.2767
92.8597
93.2462
93.5794
93.8292
94.0019
94.1199
94.1974
94.2448
94.2696
94.2771
94.271
94.2544
94.2296
94.1982
94.1615
94.1206
94.0763
94.0292
93.9799
93.9287
93.876
93.8221
93.7672
93.7114
93.6549
93.5978
93.5403
93.4824
93.4241
93.3655
93.3067
93.2477
93.1884
93.129
93.0693
93.0095
92.9495
92.8893
92.8288
92.7681
92.7071
92.6458
92.584
92.5218
92.4589
92.3954
92.3311
92.2658
92.1993
92.1315
92.0619
91.9902
91.9161
91.8391
91.7584
91.6735
91.5831
91.4865
91.3814
91.2679
91.1386
91.0027
90.8268
90.6722
90.3897
90.2687
89.724
89.7654
88.5088
88.0881
84.9329
81.9756
80.6988
80.2082
79.6199
79.2796
75.3922
75.4728
71.5116
67.968
64.3067
59.574
55.8948
47.0743
42.2567
68.2834
67.5377
66.8761
67.1354
64.8524
63.6779
66.0035
71.4469
77.2443
80.8972
83.6453
87.3711
89.802
91.02
91.9483
92.5919
93.0984
93.5362
93.809
93.9748
94.0879
94.1658
94.2161
94.2447
94.2561
94.2536
94.24
94.2177
94.1884
94.1534
94.1139
94.0708
94.0247
93.9761
93.9256
93.8735
93.82
93.7654
93.7099
93.6537
93.5968
93.5395
93.4817
93.4235
93.365
93.3062
93.2472
93.188
93.1286
93.0689
93.0091
92.949
92.8887
92.8282
92.7674
92.7063
92.6448
92.5828
92.5204
92.4573
92.3934
92.3287
92.2629
92.1959
92.1273
92.0569
91.9844
91.9091
91.8307
91.7485
91.6617
91.5692
91.47
91.3622
91.2453
91.1131
90.9722
90.7963
90.6323
90.3632
90.2159
89.736
89.7212
88.7243
88.216
84.9565
79.9562
77.6662
77.539
79.0045
78.3327
73.9113
72.4637
70.5136
66.551
64.5416
59.6334
58.399
49.0881
43.8146
68.8517
68.3403
67.6916
66.9508
66.5807
66.1821
67.7641
71.514
76.8065
81.1637
83.7632
86.5688
89.2069
90.9888
92.034
92.5681
93.0211
93.4011
93.6838
93.8852
94.0269
94.1226
94.1839
94.2197
94.236
94.2373
94.2267
94.2067
94.1794
94.146
94.1078
94.0658
94.0205
93.9727
93.9228
93.8712
93.8181
93.7638
93.7086
93.6526
93.5959
93.5387
93.481
93.4229
93.3645
93.3058
93.2468
93.1876
93.1282
93.0685
93.0087
92.9486
92.8882
92.8276
92.7667
92.7055
92.6438
92.5817
92.519
92.4557
92.3916
92.3265
92.2603
92.1927
92.1235
92.0524
91.9789
91.9027
91.823
91.7393
91.6508
91.5564
91.4549
91.3446
91.2247
91.0903
90.9448
90.7702
90.5965
90.3455
90.1667
89.7642
89.6503
88.9278
88.2387
85.4108
79.4001
76.063
75.7737
78.876
78.0145
74.3918
71.0675
70.1743
66.8047
66.7141
60.8466
60.4085
50.9741
44.9021
69.4366
68.6559
68.119
68.726
68.2769
67.7533
69.1578
72.539
76.5805
80.1854
83.4399
86.7487
89.1428
90.5528
91.5498
92.3531
92.9332
93.3684
93.6569
93.8544
93.9955
94.0939
94.159
94.1986
94.2185
94.2228
94.2148
94.1969
94.1713
94.1394
94.1024
94.0613
94.0168
93.9697
93.9203
93.8691
93.8164
93.7624
93.7075
93.6516
93.5951
93.538
93.4804
93.4224
93.3641
93.3054
93.2465
93.1873
93.1278
93.0682
93.0083
92.9482
92.8878
92.8271
92.7661
92.7048
92.643
92.5807
92.5178
92.4543
92.3899
92.3245
92.2578
92.1898
92.1201
92.0482
91.974
91.8968
91.816
91.731
91.6409
91.5447
91.4412
91.3288
91.2061
91.07
90.9204
90.7481
90.565
90.3348
90.1228
89.8061
89.5684
89.1155
88.2077
86.2937
80.5981
76.5978
74.8815
78.9869
78.1117
76.8211
70.865
70.9977
68.4642
69.5144
62.5317
61.874
52.3501
45.6178
69.6888
69.647
69.0391
68.3098
69.063
69.5661
70.5264
72.4999
75.9659
79.9287
83.0681
85.8372
88.6221
90.508
91.6209
92.3288
92.8732
93.2851
93.5827
93.7981
93.9538
94.0623
94.1344
94.179
94.2027
94.2099
94.2042
94.1883
94.1642
94.1335
94.0975
94.0573
94.0136
93.967
93.9181
93.8673
93.8149
93.7612
93.7064
93.6508
93.5944
93.5374
93.4799
93.422
93.3637
93.3051
93.2461
93.187
93.1275
93.0679
93.0079
92.9478
92.8874
92.8266
92.7656
92.7041
92.6422
92.5798
92.5168
92.453
92.3883
92.3226
92.2557
92.1872
92.1169
92.0445
91.9695
91.8915
91.8097
91.7235
91.6321
91.5343
91.429
91.3148
91.1897
91.0521
90.8991
90.7294
90.5378
90.3288
90.0839
89.8518
89.4812
89.2916
88.1652
87.5445
82.8891
79.7528
75.286
79.2546
78.58
79.871
71.858
72.9094
70.5124
71.9688
63.6241
62.458
53.4598
46.2869
70.0097
69.5719
69.3146
70.0826
70.5985
70.562
71.1096
72.7949
75.4229
78.6516
82.3084
85.8174
88.3961
90.1316
91.2116
92.1196
92.7651
93.2143
93.5344
93.7616
93.9242
94.038
94.1145
94.1627
94.1893
94.1989
94.1952
94.1808
94.1581
94.1285
94.0934
94.0539
94.0108
93.9647
93.9162
93.8657
93.8136
93.7601
93.7055
93.6501
93.5938
93.5369
93.4795
93.4216
93.3634
93.3048
93.2459
93.1867
93.1273
93.0676
93.0076
92.9475
92.887
92.8262
92.7651
92.7035
92.6415
92.579
92.5158
92.4518
92.387
92.321
92.2537
92.1849
92.1142
92.0412
91.9656
91.8868
91.8041
91.7169
91.6243
91.5252
91.4183
91.3025
91.1754
91.0367
90.8808
90.7136
90.5147
90.3249
90.0498
89.8953
89.3963
89.489
88.126
88.9235
85.2251
84.6408
77.4314
80.0642
78.8708
82.4158
74.2176
75.1091
71.9637
73.5853
64.2171
62.0421
54.4211
47.1152
70.0345
70.203
70.2512
70.391
71.1383
71.6906
72.0772
72.7163
74.6366
78.1461
81.8365
85.273
87.9961
89.934
91.3209
92.1231
92.7376
93.1738
93.4973
93.7303
93.8985
94.0172
94.0978
94.1492
94.1782
94.1899
94.1877
94.1747
94.153
94.1244
94.09
94.0511
94.0085
93.9628
93.9146
93.8644
93.8125
93.7593
93.7048
93.6495
93.5933
93.5365
93.4791
93.4213
93.3631
93.3045
93.2456
93.1865
93.127
93.0673
93.0074
92.9472
92.8867
92.8258
92.7647
92.7031
92.641
92.5783
92.515
92.4509
92.3858
92.3196
92.252
92.1829
92.1118
92.0384
91.9622
91.8827
91.7993
91.7112
91.6176
91.5173
91.4091
91.2919
91.1632
91.0236
90.8654
90.7004
90.4959
90.3219
90.0221
89.9343
89.3306
89.6937
88.1242
90.117
86.9227
89.4868
81.11
82.2775
78.9322
84.0177
76.5966
77.5935
73.0232
73.9297
64.9571
61.7213
55.3777
48.0894
70.2107
70.2622
70.5553
71.2676
72.061
72.3094
72.3132
72.7645
74.3164
77.1557
81.2972
85.0045
87.8216
89.7908
91.1496
92.0298
92.6483
93.126
93.4647
93.7064
93.8798
94.0021
94.0854
94.1391
94.17
94.1831
94.1822
94.1701
94.1493
94.1213
94.0875
94.049
94.0068
93.9614
93.9135
93.8635
93.8118
93.7586
93.7043
93.649
93.5929
93.5362
93.4789
93.4211
93.3629
93.3043
93.2455
93.1863
93.1269
93.0672
93.0072
92.947
92.8864
92.8255
92.7643
92.7026
92.6405
92.5777
92.5143
92.45
92.3848
92.3184
92.2506
92.1812
92.1097
92.0359
91.9593
91.8793
91.7953
91.7064
91.6119
91.5107
91.4014
91.2831
91.1531
91.0126
90.8528
90.6893
90.4812
90.3184
90.0022
89.9665
89.2994
89.8866
88.1654
90.9876
87.8831
92.9172
84.8001
85.6308
79.5828
84.8764
78.2198
80.2265
73.928
73.504
65.8287
62.0468
56.4065
49.1365
70.3124
70.6105
71.0377
71.6235
72.2971
72.6298
72.6429
72.8713
74.1664
77.0929
81.1054
84.8078
87.6403
89.6637
91.0816
92.0113
92.6407
93.109
93.4491
93.6937
93.8687
93.9928
94.0778
94.1329
94.1649
94.1789
94.1787
94.1673
94.1469
94.1194
94.0859
94.0478
94.0057
93.9605
93.9128
93.8629
93.8113
93.7582
93.704
93.6488
93.5927
93.536
93.4787
93.4209
93.3628
93.3042
93.2453
93.1862
93.1267
93.067
93.007
92.9468
92.8862
92.8253
92.764
92.7023
92.6401
92.5773
92.5137
92.4494
92.384
92.3175
92.2495
92.1798
92.1081
92.034
91.957
91.8765
91.792
91.7026
91.6074
91.5054
91.3952
91.276
91.145
91.0038
90.843
90.6803
90.4703
90.3147
89.9894
89.9897
89.2881
90.0432
88.2336
91.4896
88.2578
94.5656
87.2643
88.9254
80.8896
85.4524
79.3686
82.357
74.6571
72.9298
66.5678
62.8215
57.248
50.0416
70.4913
70.7708
71.1974
71.8028
72.4607
72.7434
72.752
73.0369
74.3109
77.1216
81.0484
84.694
87.5445
89.6001
91.0366
91.9875
92.6301
93.1001
93.4434
93.6904
93.8665
93.9909
94.0763
94.1316
94.1638
94.178
94.178
94.1667
94.1464
94.1189
94.0856
94.0475
94.0055
93.9603
93.9126
93.8628
93.8112
93.7581
93.7039
93.6487
93.5927
93.5359
93.4787
93.4209
93.3627
93.3042
93.2453
93.1861
93.1267
93.067
93.007
92.9467
92.8861
92.8252
92.7639
92.7021
92.6398
92.577
92.5134
92.4489
92.3835
92.3168
92.2488
92.1789
92.1071
92.0327
91.9555
91.8748
91.7899
91.7001
91.6044
91.5019
91.3912
91.2714
91.1399
90.9981
90.8373
90.6737
90.4661
90.3083
89.9926
89.9904
89.3204
90.113
88.3329
91.7055
88.1857
94.9054
87.7798
91.1731
82.3564
86.0075
80.0727
83.4553
75.5175
72.5917
67.2393
63.3321
57.7096
50.6271
70.6964
70.9003
71.2783
71.8344
72.4329
72.7459
72.8046
73.1583
74.4294
77.2177
81.1039
84.6491
87.4852
89.5519
90.9996
91.9666
92.6211
93.094
93.4392
93.6878
93.8649
93.9901
94.0759
94.1315
94.1639
94.1781
94.1782
94.1669
94.1466
94.1191
94.0857
94.0476
94.0056
93.9604
93.9127
93.8628
93.8112
93.7582
93.7039
93.6487
93.5927
93.536
93.4787
93.4209
93.3627
93.3042
93.2453
93.1861
93.1267
93.0669
93.0069
92.9466
92.886
92.8251
92.7638
92.702
92.6397
92.5768
92.5132
92.4488
92.3833
92.3166
92.2484
92.1786
92.1066
92.0322
91.9549
91.874
91.789
91.699
91.6032
91.5005
91.3896
91.2695
91.1379
90.9955
90.8355
90.6702
90.4675
90.3023
90.0087
89.9763
89.363
90.1158
88.4272
91.7057
88.1498
94.7528
87.3864
92.1462
82.9323
86.436
80.3042
83.7489
75.822
72.4633
67.2008
63.3298
57.7062
50.5615
65.521
64.3203
62.3873
60.9975
61.2614
63.7926
68.4728
74.2597
79.9249
84.9041
88.5025
91.2841
93.2174
94.4486
95.173
95.5522
95.7075
95.7249
95.6619
95.5552
95.4278
95.2936
95.1595
95.031
94.9094
94.7952
94.6883
94.5884
94.4946
94.4062
94.3225
94.2429
94.1666
94.0932
94.0221
93.9531
93.8857
93.8198
93.755
93.6911
93.6281
93.5658
93.504
93.4427
93.3818
93.3213
93.2611
93.2012
93.1416
93.0823
93.0232
92.9644
92.906
92.8478
92.7901
92.7328
92.676
92.6199
92.5645
92.51
92.4565
92.4042
92.3535
92.3045
92.2576
92.2134
92.1722
92.1348
92.1018
92.0743
92.0533
92.0401
92.0365
92.0441
92.0654
92.1031
92.1601
92.24
92.3468
92.4846
92.6576
92.8702
93.1261
93.4286
93.7804
94.1834
94.6391
95.1489
95.7142
96.3362
97.0154
97.7512
98.5397
99.3749
100.244
101.131
102.002
102.792
103.394
103.688
65.5327
64.2751
62.1795
60.6181
60.7816
63.343
68.1384
74.0343
79.822
84.9321
88.4545
91.32
93.2554
94.4813
95.1989
95.5719
95.7226
95.7365
95.6709
95.5622
95.4332
95.2974
95.1629
95.0335
94.9112
94.7965
94.6893
94.5891
94.4951
94.4066
94.3229
94.2431
94.1668
94.0933
94.0222
93.9532
93.8858
93.8198
93.755
93.6912
93.6282
93.5658
93.504
93.4427
93.3818
93.3213
93.2611
93.2012
93.1416
93.0822
93.0232
92.9644
92.9059
92.8478
92.79
92.7327
92.6759
92.6198
92.5644
92.5098
92.4563
92.404
92.3531
92.3041
92.2571
92.2128
92.1715
92.1339
92.1008
92.0731
92.0518
92.0384
92.0343
92.0415
92.0624
92.0994
92.1557
92.2349
92.3409
92.4778
92.6501
92.862
93.1172
93.4192
93.7705
94.173
94.6281
95.1372
95.7018
96.3231
97.0026
97.739
98.5309
99.3688
100.248
101.14
102.028
102.818
103.435
103.749
65.3743
64.0261
61.6803
59.8114
59.7877
62.3435
67.3765
73.4926
79.5102
84.762
88.3941
91.3001
93.2512
94.4806
95.1974
95.5687
95.7182
95.7316
95.6659
95.5575
95.429
95.2937
95.1598
95.031
94.9091
94.7949
94.688
94.5881
94.4943
94.406
94.3224
94.2427
94.1665
94.0931
94.022
93.953
93.8857
93.8197
93.7549
93.6911
93.6281
93.5657
93.504
93.4427
93.3818
93.3213
93.2611
93.2011
93.1415
93.0822
93.0231
92.9643
92.9058
92.8476
92.7898
92.7325
92.6757
92.6195
92.564
92.5094
92.4557
92.4033
92.3524
92.3032
92.256
92.2115
92.1699
92.132
92.0985
92.0702
92.0484
92.0342
92.0293
92.0356
92.0552
92.0908
92.1455
92.2229
92.3269
92.4618
92.632
92.8418
93.0951
93.3953
93.7447
94.1451
94.5977
95.104
95.6649
96.2834
96.9595
97.6974
98.49
99.341
100.227
101.151
102.041
102.872
103.472
103.801
64.9994
63.5458
60.8344
58.536
58.2364
60.8021
66.1675
72.6246
78.983
84.4793
88.2252
91.2222
93.2056
94.4479
95.1703
95.5446
95.6963
95.712
95.6487
95.5427
95.4164
95.2833
95.1511
95.0238
94.9033
94.7901
94.6841
94.5849
94.4918
94.4039
94.3207
94.2413
94.1653
94.0922
94.0213
93.9524
93.8852
93.8193
93.7546
93.6908
93.6279
93.5655
93.5038
93.4425
93.3816
93.3211
93.2609
93.201
93.1414
93.082
93.0229
92.9641
92.9056
92.8474
92.7896
92.7322
92.6753
92.619
92.5634
92.5087
92.4549
92.4023
92.3512
92.3017
92.2543
92.2094
92.1674
92.129
92.0949
92.0659
92.0431
92.0279
92.0217
92.0263
92.044
92.0775
92.1297
92.2042
92.305
92.4366
92.6033
92.8097
93.0598
93.3567
93.7029
94.0996
94.5479
95.0481
95.6033
96.2131
96.8852
97.6135
98.412
99.2571
100.173
101.091
102.036
102.844
103.504
103.808
64.4503
62.8065
59.6173
56.6602
55.9972
58.5851
64.4438
71.4137
78.2291
83.9946
88.0307
91.0921
93.1211
94.3866
95.1211
95.5029
95.6603
95.6808
95.6219
95.5199
95.3973
95.2673
95.1378
95.0128
94.8942
94.7827
94.6781
94.58
94.4877
94.4006
94.318
94.2391
94.1635
94.0907
94.0201
93.9515
93.8844
93.8187
93.7541
93.6904
93.6275
93.5652
93.5035
93.4423
93.3814
93.3209
93.2608
93.2009
93.1412
93.0818
93.0227
92.9639
92.9053
92.8471
92.7892
92.7318
92.6748
92.6184
92.5627
92.5078
92.4539
92.4011
92.3497
92.3
92.2522
92.2068
92.1643
92.1253
92.0904
92.0605
92.0366
92.02
92.0121
92.0148
92.0301
92.0608
92.1098
92.1807
92.2775
92.4047
92.567
92.7691
93.0149
93.3078
93.6497
94.0419
94.4838
94.9775
95.5215
96.1235
96.7784
97.5056
98.2818
99.1467
100.034
101.004
101.908
102.791
103.391
103.761
63.7161
61.8177
57.9635
54.0902
52.9395
55.6026
62.1449
69.8563
77.2592
83.3872
87.7424
90.9079
92.9996
94.2994
95.053
95.4468
95.6129
95.6405
95.5877
95.491
95.3729
95.247
95.1209
94.9988
94.8827
94.7731
94.6702
94.5735
94.4824
94.3963
94.3144
94.2363
94.1612
94.0888
94.0185
93.9502
93.8833
93.8178
93.7533
93.6898
93.627
93.5648
93.5032
93.442
93.3812
93.3207
93.2605
93.2006
93.141
93.0816
93.0225
92.9636
92.905
92.8467
92.7888
92.7313
92.6742
92.6177
92.5619
92.5068
92.4527
92.3997
92.348
92.2979
92.2497
92.2038
92.1607
92.1209
92.0851
92.054
92.0288
92.0106
92.0008
92.0011
92.0137
92.041
92.0862
92.1527
92.2447
92.3667
92.5236
92.7203
92.9612
93.2492
93.5865
93.9728
94.4088
94.8916
95.427
96.009
96.6577
97.3534
98.1379
98.9592
99.8812
100.798
101.763
102.589
103.278
103.578
62.7866
60.6486
55.8515
50.7884
49.0022
51.8121
59.1833
67.9247
76.0841
82.6742
87.3692
90.6738
92.8433
94.1872
94.9668
95.3772
95.5552
95.5921
95.5468
95.4566
95.3441
95.2229
95.1009
94.9822
94.8689
94.7618
94.6609
94.5658
94.4761
94.3911
94.3102
94.2328
94.1583
94.0864
94.0166
93.9486
93.882
93.8167
93.7525
93.6891
93.6264
93.5643
93.5027
93.4416
93.3808
93.3204
93.2603
93.2004
93.1407
93.0813
93.0222
92.9633
92.9046
92.8463
92.7883
92.7307
92.6735
92.6169
92.5609
92.5057
92.4513
92.398
92.346
92.2955
92.2468
92.2003
92.1565
92.1158
92.0789
92.0467
92.0199
91.9998
91.9877
91.9853
91.9947
92.0182
92.0589
92.1202
92.2065
92.3223
92.4729
92.6633
92.8982
93.1809
93.5125
93.8936
94.3203
94.7953
95.3116
95.8838
96.4993
97.191
97.9296
98.7587
99.6336
100.564
101.493
102.339
102.975
103.349
61.8413
59.2713
53.4245
46.7573
44.1017
47.0662
55.3481
65.5039
74.691
81.8467
86.9247
90.3998
92.658
94.0527
94.8638
95.295
95.4877
95.5359
95.4997
95.4171
95.3111
95.1953
95.0779
94.9631
94.8531
94.7487
94.6501
94.557
94.4688
94.3851
94.3052
94.2287
94.155
94.0837
94.0143
93.9467
93.8805
93.8155
93.7514
93.6882
93.6257
93.5637
93.5022
93.4412
93.3805
93.3201
93.2599
93.2001
93.1404
93.081
93.0218
92.9629
92.9042
92.8458
92.7877
92.73
92.6728
92.616
92.5598
92.5044
92.4498
92.3961
92.3437
92.2928
92.2435
92.1964
92.1517
92.1101
92.072
92.0383
92.0098
91.9876
91.973
91.9675
91.9732
91.9923
92.0279
92.0833
92.1629
92.2715
92.4147
92.5977
92.8259
93.1022
93.4285
93.8023
94.2223
94.6821
95.1872
95.7296
96.3303
96.9816
97.6996
98.4974
99.3333
100.258
101.135
101.986
102.628
102.956
60.7423
57.8927
50.7936
42.0293
38.0544
41.0296
50.4276
62.4528
73.0521
80.873
86.4157
90.0946
92.4509
93.9004
94.7462
95.2012
95.4112
95.4725
95.4468
95.3729
95.2741
95.1645
95.0522
94.9418
94.8354
94.7341
94.638
94.547
94.4606
94.3783
94.2997
94.2241
94.1512
94.0806
94.0118
93.9446
93.8788
93.814
93.7502
93.6872
93.6248
93.563
93.5016
93.4407
93.38
93.3197
93.2596
93.1997
93.1401
93.0807
93.0215
92.9625
92.9038
92.8453
92.7871
92.7293
92.6719
92.615
92.5586
92.5029
92.448
92.3941
92.3412
92.2898
92.2399
92.192
92.1465
92.1037
92.0644
92.0291
91.9986
91.9741
91.9567
91.9478
91.9494
91.9636
91.9934
92.042
92.1141
92.2143
92.3489
92.5234
92.7438
93.0136
93.3331
93.7017
94.1108
94.5608
95.0428
95.5638
96.1322
96.7426
97.4401
98.1645
99.0067
99.8369
100.715
101.516
102.108
102.484
59.6288
56.4745
47.9834
36.6479
30.8009
33.6078
44.4666
58.7688
71.1945
79.717
85.8548
89.7672
92.2287
93.7352
94.6173
95.0978
95.3267
95.4025
95.3886
95.3242
95.2334
95.1305
95.0239
94.9182
94.8159
94.7179
94.6246
94.5359
94.4515
94.3708
94.2935
94.219
94.147
94.0771
94.0089
93.9423
93.8768
93.8124
93.7489
93.6861
93.6239
93.5622
93.501
93.4401
93.3795
93.3192
93.2592
93.1993
93.1397
93.0803
93.021
92.962
92.9032
92.8447
92.7865
92.7285
92.671
92.6139
92.5573
92.5013
92.4461
92.3918
92.3385
92.2865
92.236
92.1873
92.1407
92.0968
92.056
92.019
91.9865
91.9594
91.9389
91.9263
91.9233
91.9321
91.9555
91.9966
92.0601
92.1507
92.2756
92.4401
92.6522
92.914
93.2281
93.5896
93.9908
94.4265
94.8867
95.3827
95.9035
96.4928
97.1073
97.8274
98.5688
99.3688
100.202
100.896
101.509
101.803
59.0242
55.3884
45.1527
30.8105
22.583
25.0161
37.6954
54.5874
68.9219
78.6708
85.2773
89.4291
91.9989
93.5621
94.4803
94.9869
95.2356
95.3269
95.3255
95.2714
95.1893
95.0937
94.9932
94.8927
94.7946
94.7003
94.61
94.5239
94.4415
94.3626
94.2867
94.2134
94.1424
94.0733
94.0058
93.9397
93.8747
93.8107
93.7475
93.6849
93.6229
93.5614
93.5003
93.4395
93.379
93.3187
93.2587
93.1989
93.1393
93.0798
93.0206
92.9615
92.9027
92.8441
92.7857
92.7277
92.67
92.6127
92.5559
92.4996
92.4441
92.3893
92.3355
92.2829
92.2317
92.1821
92.1346
92.0894
92.047
92.0081
91.9734
91.9435
91.9197
91.903
91.8952
91.8981
91.9144
91.9471
92.0011
92.0809
92.1947
92.3478
92.5502
92.8039
93.112
93.4682
93.8613
94.2819
94.7231
95.1755
95.6718
96.1828
96.7706
97.4082
98.0777
98.8359
99.5363
100.233
100.739
100.953
58.2539
54.9244
42.9947
25.0507
13.9242
15.6525
30.3184
50.0368
66.5589
77.5747
84.6923
89.0872
91.7679
93.3864
94.339
94.8708
95.1392
95.2465
95.2581
95.215
95.142
95.0542
94.9603
94.8653
94.7719
94.6814
94.5944
94.5109
94.4308
94.3537
94.2794
94.2074
94.1374
94.0692
94.0025
93.9369
93.8724
93.8088
93.7459
93.6836
93.6218
93.5605
93.4995
93.4388
93.3784
93.3182
93.2582
93.1984
93.1388
93.0794
93.0201
92.961
92.9021
92.8434
92.7849
92.7268
92.6689
92.6114
92.5543
92.4978
92.4419
92.3867
92.3324
92.2791
92.2271
92.1767
92.128
92.0814
92.0375
91.9966
91.9594
91.9266
91.8992
91.8783
91.8652
91.8617
91.8704
91.8939
91.9374
92.0048
92.1063
92.246
92.4381
92.6822
92.9853
93.3375
93.7216
94.1338
94.5408
94.9677
95.4015
95.8607
96.3896
96.9268
97.5496
98.1777
98.7989
99.3245
99.7488
100.013
58.1254
54.2761
41.2802
19.9406
5.53985
5.95407
22.6923
45.2455
64.1725
76.4777
84.1162
88.7445
91.5362
93.2113
94.1967
94.7518
95.0392
95.1623
95.1873
95.1554
95.0921
95.0124
94.9253
94.8362
94.7477
94.6613
94.5777
94.4971
94.4194
94.3443
94.2716
94.201
94.1322
94.0649
93.9989
93.934
93.87
93.8068
93.7442
93.6822
93.6207
93.5595
93.4987
93.4381
93.3778
93.3177
93.2577
93.198
93.1383
93.0789
93.0196
92.9604
92.9015
92.8427
92.7841
92.7258
92.6677
92.61
92.5527
92.4959
92.4396
92.3839
92.3291
92.2751
92.2223
92.1709
92.121
92.073
92.0273
91.9844
91.9447
91.9088
91.8777
91.8521
91.8335
91.8232
91.8237
91.8371
91.8691
91.9227
92.0103
92.1343
92.3152
92.5479
92.8485
93.1958
93.5778
93.9756
94.3566
94.7436
95.1127
95.5242
95.9454
96.429
96.9297
97.4278
97.9586
98.3355
98.4909
98.5743
59.1109
54.9058
40.5095
16.1274
-1.64339
-3.12543
15.59
40.6733
61.9079
75.4556
83.566
88.4085
91.3031
93.0354
94.0545
94.632
94.9368
95.0752
95.1135
95.0932
95.0397
94.9685
94.8886
94.8055
94.7222
94.6401
94.5602
94.4826
94.4074
94.3344
94.2634
94.1942
94.1266
94.0602
93.9951
93.9308
93.8674
93.8046
93.7424
93.6807
93.6194
93.5585
93.4978
93.4373
93.3771
93.3171
93.2572
93.1974
93.1378
93.0784
93.019
92.9598
92.9008
92.8419
92.7832
92.7248
92.6665
92.6086
92.551
92.4938
92.4371
92.381
92.3256
92.271
92.2173
92.1648
92.1137
92.0643
92.0168
91.9716
91.9292
91.8902
91.8551
91.8248
91.8003
91.7828
91.7746
91.7771
91.7967
91.8346
91.9069
92.0122
92.1811
92.3999
92.7005
93.0449
93.4275
93.8155
94.1688
94.5041
94.8267
95.1248
95.5049
95.8641
96.2082
96.6617
96.9131
97.1452
97.2897
96.7106
60.5698
56.6324
41.0739
14.3482
-6.44524
-9.7494
9.66545
36.9033
59.9809
74.6792
83.0842
88.0892
91.0745
92.8583
93.9115
94.5115
94.8332
94.986
95.0374
95.0287
94.9853
94.9228
94.8504
94.7736
94.6956
94.6181
94.5419
94.4674
94.3948
94.324
94.2548
94.1871
94.1207
94.0554
93.9911
93.9275
93.8647
93.8024
93.7406
93.6792
93.6181
93.5574
93.4969
93.4366
93.3764
93.3164
93.2566
93.1969
93.1373
93.0778
93.0185
92.9592
92.9001
92.8411
92.7823
92.7237
92.6653
92.6071
92.5493
92.4917
92.4346
92.378
92.3219
92.2666
92.2121
92.1585
92.1061
92.0551
92.0058
91.9584
91.9133
91.8709
91.8317
91.7964
91.7659
91.7408
91.7235
91.7143
91.7206
91.7408
91.7965
91.8788
92.0358
92.2355
92.5424
92.8816
93.275
93.6582
93.9684
94.2837
94.4821