/*--------------------------------*- C++ -*----------------------------------*\
| =========                 |                                                 |
| \\      /  F ield         | OpenFOAM: The Open Source CFD Toolbox           |
|  \\    /   O peration     | Version:  2.4.0                                 |
|   \\  /    A nd           | Web:      www.OpenFOAM.org                      |
|    \\/     M anipulation  |                                                 |
\*---------------------------------------------------------------------------*/
FoamFile
{
    version     2.0;
    format      ascii;
    class       volScalarField;
    location    "0.258";
    object      k;
}
// * * * * * * * * * * * * * * * * * * * * * * * * * * * * * * * * * * * * * //

dimensions      [0 2 -2 0 0 0 0];

internalField   nonuniform List<scalar> 
17600
(
9.27389
7.41731
5.11278
3.9409
3.33396
2.96593
2.67398
2.49533
2.32619
2.20372
2.15023
2.0242
2.01287
1.94918
1.91037
1.92284
1.878
1.96253
1.93975
1.94631
4.49284
6.2204
5.83355
5.04977
4.40954
3.9448
3.57446
3.33983
3.11102
2.93606
2.86557
2.68037
2.65875
2.58295
2.49956
2.51711
2.44128
2.51412
2.46146
2.57954
1.30612
3.30286
3.98603
3.95742
3.76198
3.47261
3.20841
3.02674
2.85009
2.68605
2.6301
2.471
2.43619
2.37985
2.28166
2.29271
2.22118
2.24729
2.21114
2.21955
0.204911
1.20471
1.91583
2.3256
2.50581
2.51617
2.471
2.39521
2.32209
2.20745
2.17914
2.08491
2.04236
2.01529
1.93103
1.9288
1.88541
1.85968
1.86088
1.81771
0.0257322
0.276639
0.639073
0.966721
1.23029
1.43527
1.53971
1.58829
1.62909
1.60791
1.61152
1.5948
1.56526
1.56255
1.52774
1.51206
1.49983
1.44737
1.46059
1.42926
0.00272067
0.0455027
0.143897
0.274816
0.40047
0.575826
0.710298
0.790951
0.912597
0.949547
0.996128
1.04227
1.04688
1.06791
1.07444
1.06621
1.07284
1.04242
1.04409
1.02568
0.000275734
0.00654006
0.0226036
0.0554799
0.0858606
0.148986
0.229497
0.269039
0.356617
0.413869
0.45151
0.528441
0.550919
0.585471
0.62949
0.63381
0.650801
0.646605
0.644538
0.632894
4.75563e-05
0.000903744
0.0033011
0.0081929
0.0135022
0.0243998
0.0504949
0.0630649
0.0909592
0.123401
0.140094
0.183847
0.20419
0.227151
0.270615
0.280544
0.29765
0.307927
0.310476
0.303257
2.80991e-05
0.000154654
0.00063019
0.0011699
0.00181945
0.00324051
0.00763333
0.0101238
0.0156681
0.0241618
0.0286893
0.0426501
0.0496975
0.0581753
0.078118
0.0837126
0.0910877
0.0990572
0.101352
0.0991735
2.80145e-05
6.38606e-05
0.000219103
0.00031531
0.000359914
0.000488511
0.000973488
0.00126404
0.00206728
0.0032259
0.00395344
0.00668179
0.00803366
0.0097233
0.0143605
0.0157701
0.0175637
0.0199407
0.0205685
0.0199638
2.65465e-05
4.34253e-05
7.54172e-05
0.000149815
0.000152575
0.000156376
0.000202912
0.000246755
0.000324392
0.000495111
0.000582534
0.000944027
0.00107303
0.00125311
0.00180526
0.00206084
0.00220197
0.00249848
0.0026301
0.00252508
2.20834e-05
2.99711e-05
4.22515e-05
0.00010235
0.000118555
0.000121537
0.00016201
0.000197785
0.000186096
0.000188996
0.000193772
0.000233196
0.000244053
0.000270108
0.000353264
0.000396021
0.000408404
0.000419144
0.000414099
0.000382374
2.13972e-05
2.90304e-05
4.77829e-05
0.000106192
0.000105499
0.000105355
0.000120218
0.000118436
0.000113314
0.000109569
0.000110817
0.00013122
0.000147654
0.000170863
0.000199242
0.000211929
0.00021291
0.000215848
0.000199742
0.000187314
2.31452e-05
2.90514e-05
5.1431e-05
7.79768e-05
7.85288e-05
7.56971e-05
6.41169e-05
6.19375e-05
7.02929e-05
8.30573e-05
9.02997e-05
0.000110678
0.000125522
0.000121098
0.000120366
0.000124741
0.000125639
0.000130158
0.000129408
0.000138239
2.19517e-05
3.06386e-05
3.40976e-05
4.27433e-05
6.43144e-05
6.40361e-05
6.34186e-05
6.52828e-05
7.66205e-05
8.25684e-05
8.30637e-05
8.89114e-05
9.28524e-05
9.17515e-05
9.07053e-05
9.10743e-05
9.25779e-05
9.90529e-05
0.000100992
0.000113595
2.08587e-05
2.81968e-05
3.13442e-05
4.13685e-05
5.95224e-05
6.10271e-05
6.00254e-05
6.13795e-05
6.18624e-05
6.15729e-05
6.04009e-05
6.43442e-05
6.9391e-05
7.54121e-05
7.58357e-05
7.60061e-05
7.67808e-05
7.68887e-05
7.79278e-05
9.80243e-05
2.06889e-05
2.74411e-05
3.18155e-05
4.3184e-05
5.19592e-05
5.41942e-05
5.33542e-05
4.87254e-05
4.78006e-05
4.83077e-05
4.9592e-05
5.35139e-05
6.28063e-05
6.4035e-05
6.4451e-05
6.45238e-05
6.23621e-05
6.08054e-05
6.32514e-05
8.3084e-05
2.07819e-05
2.8018e-05
3.17532e-05
3.27104e-05
4.0646e-05
4.64949e-05
4.70598e-05
4.5989e-05
4.54881e-05
4.56546e-05
4.52561e-05
4.54961e-05
4.96264e-05
5.11927e-05
5.30739e-05
5.30162e-05
5.20912e-05
5.2453e-05
5.3358e-05
5.75262e-05
2.07474e-05
2.85335e-05
3.08086e-05
3.16243e-05
3.71572e-05
4.40687e-05
4.57327e-05
4.57594e-05
4.4757e-05
4.42283e-05
4.27755e-05
4.27682e-05
4.38836e-05
4.72724e-05
4.91666e-05
4.925e-05
4.92227e-05
4.9795e-05
4.91484e-05
5.36443e-05
2.05447e-05
2.74117e-05
3.21733e-05
3.17703e-05
3.44538e-05
4.10238e-05
4.2629e-05
4.24686e-05
4.13686e-05
4.10419e-05
4.05523e-05
4.08654e-05
4.19709e-05
4.50626e-05
4.56743e-05
4.60139e-05
4.70355e-05
4.74996e-05
4.75929e-05
5.29609e-05
2.05743e-05
2.83089e-05
3.06309e-05
3.1028e-05
3.68887e-05
4.21123e-05
4.30502e-05
4.28717e-05
4.21231e-05
4.18701e-05
4.2097e-05
4.3866e-05
4.4191e-05
4.42687e-05
4.44283e-05
4.4724e-05
4.62184e-05
4.65791e-05
4.77264e-05
4.90968e-05
2.06502e-05
2.66086e-05
2.90678e-05
3.55152e-05
4.28878e-05
4.29383e-05
4.16933e-05
4.18777e-05
4.18264e-05
4.27874e-05
4.59994e-05
4.60319e-05
4.51741e-05
4.50942e-05
4.53379e-05
4.55945e-05
4.72453e-05
4.77911e-05
4.96979e-05
5.24488e-05
2.07608e-05
2.52454e-05
3.4551e-05
4.07257e-05
4.04095e-05
3.88293e-05
3.91442e-05
4.30596e-05
4.47082e-05
4.78736e-05
4.8061e-05
4.65972e-05
4.59541e-05
4.684e-05
4.72757e-05
4.81562e-05
5.01858e-05
5.07562e-05
5.12277e-05
5.22383e-05
2.08296e-05
2.77519e-05
3.6782e-05
3.65428e-05
3.55822e-05
3.78899e-05
4.68133e-05
4.82673e-05
4.82694e-05
4.8644e-05
4.73268e-05
4.72043e-05
4.94124e-05
5.16043e-05
5.26237e-05
5.38469e-05
5.38126e-05
5.42618e-05
5.4731e-05
6.32337e-05
2.09594e-05
2.75426e-05
3.52254e-05
3.64102e-05
4.19191e-05
5.03777e-05
5.13603e-05
4.97716e-05
4.99091e-05
5.02808e-05
5.10039e-05
5.73773e-05
5.98494e-05
5.97549e-05
5.9777e-05
5.91359e-05
5.90024e-05
6.03724e-05
6.29294e-05
7.96849e-05
2.11355e-05
2.65758e-05
4.0649e-05
4.38331e-05
5.03893e-05
5.1536e-05
4.9918e-05
5.0186e-05
5.37647e-05
5.83755e-05
6.79893e-05
7.01372e-05
6.74626e-05
6.69481e-05
6.66425e-05
6.60203e-05
6.83169e-05
7.35813e-05
8.1575e-05
0.000103941
2.13519e-05
2.76848e-05
4.75646e-05
4.77532e-05
4.97473e-05
4.96386e-05
5.08224e-05
6.21315e-05
7.30014e-05
7.77248e-05
8.21661e-05
7.93624e-05
7.56695e-05
7.80568e-05
7.94297e-05
8.22616e-05
9.17122e-05
0.000105198
0.000141575
0.000270597
2.17224e-05
2.93239e-05
5.0489e-05
4.89449e-05
5.49298e-05
5.85643e-05
7.47306e-05
8.98241e-05
9.73907e-05
9.9132e-05
0.000101694
9.94839e-05
0.00010028
0.00010827
0.000115181
0.000130541
0.000171258
0.000269714
0.000525791
0.00137332
2.2873e-05
3.20201e-05
5.10031e-05
5.21747e-05
7.40281e-05
8.39076e-05
0.000117903
0.00013136
0.000155159
0.000161016
0.000181005
0.000189933
0.000209916
0.000286444
0.000350124
0.000494713
0.000841093
0.00162552
0.0032565
0.00903385
2.37267e-05
3.8632e-05
4.80445e-05
6.35716e-05
0.000124803
0.000149761
0.000196245
0.000319507
0.00038662
0.000501335
0.00067996
0.000860934
0.00110678
0.00193169
0.00251548
0.0038467
0.00613258
0.0112723
0.018546
0.0454896
2.47157e-05
5.01989e-05
9.32329e-05
0.000181026
0.000355605
0.000493382
0.000768146
0.00170474
0.00224367
0.0033143
0.00492633
0.00671947
0.00862281
0.0144638
0.0180065
0.0259849
0.0354242
0.0570555
0.0797564
0.16042
2.86704e-05
0.000146523
0.000475509
0.00089683
0.00205066
0.00329866
0.00567736
0.0125343
0.0162419
0.0228001
0.035185
0.0428881
0.051841
0.076968
0.0897404
0.115811
0.142604
0.198877
0.246369
0.403127
5.10641e-05
0.000880698
0.00330511
0.00655389
0.0158573
0.0245591
0.0419832
0.0742959
0.090546
0.1198
0.162815
0.182286
0.212153
0.270294
0.295643
0.344934
0.40068
0.479881
0.543098
0.716974
0.000282018
0.00635071
0.0240504
0.0457332
0.100732
0.140338
0.22042
0.295051
0.35107
0.417155
0.490587
0.520315
0.575632
0.639572
0.668449
0.721858
0.781674
0.848901
0.904835
1.04376
0.00273371
0.0438115
0.146644
0.25033
0.435969
0.553666
0.716789
0.819547
0.904517
0.96384
1.02524
1.04098
1.07922
1.10772
1.12561
1.1509
1.19079
1.22103
1.25835
1.33124
0.0259652
0.265325
0.646131
0.951965
1.26383
1.41518
1.55895
1.59736
1.63132
1.62141
1.6218
1.59718
1.59498
1.57716
1.57246
1.55853
1.56263
1.55425
1.55896
1.55095
0.207658
1.19302
1.9306
2.31932
2.5268
2.51212
2.48219
2.38558
2.33124
2.2171
2.17461
2.08426
2.0545
1.98209
1.9589
1.89988
1.87282
1.81225
1.76821
1.68313
1.32386
3.28185
4.00215
3.96085
3.77758
3.44952
3.24215
2.9891
2.86934
2.67734
2.60299
2.46618
2.41369
2.29504
2.25445
2.14811
2.08358
1.96009
1.85689
1.6979
4.50955
6.20644
5.84803
5.04796
4.42395
3.92049
3.61263
3.28394
3.13311
2.90749
2.81609
2.65793
2.59209
2.43939
2.38415
2.23649
2.1352
1.95589
1.79013
1.55321
9.295
7.41202
5.12904
3.93054
3.33993
2.94342
2.70396
2.44729
2.33343
2.17142
2.09897
1.97696
1.92738
1.79468
1.73969
1.60684
1.50547
1.32861
1.16575
0.945141
1.48742
1.18621
0.622396
0.482432
0.444446
0.433266
0.370197
0.277537
0.257995
0.26128
0.280597
0.291172
0.294003
0.298844
0.305706
0.34857
0.345159
0.309841
0.193979
0.0831773
0.0353592
0.0155026
0.0074259
0.0040983
0.00338755
0.00356361
0.00369716
0.00365408
0.00382422
0.00438425
0.00502583
0.0057163
0.00558234
0.00550884
0.00615654
0.00980726
0.0203399
0.106267
0.180059
0.186833
0.198713
0.303815
0.356236
0.328758
0.196955
0.101598
0.0630158
0.054943
0.0578649
0.0656596
0.0675446
0.0707911
0.0842403
0.0883969
0.0879458
0.0870021
0.074957
0.0543648
0.0348076
0.019315
0.0139858
0.0150154
0.0245762
0.0650446
0.126918
0.156348
0.152441
0.104935
0.0611854
0.0444004
0.0395041
0.038836
0.0391811
0.0391194
0.0378464
0.0360573
0.0327563
0.0262306
0.022989
0.0223473
0.0219834
0.0215109
0.021542
0.0217464
0.0222878
0.0235334
0.0288422
0.0351912
0.0401716
0.0447606
0.0474293
0.0477304
0.0445987
0.0396264
0.0377482
0.0376506
0.038964
0.0443282
0.0642158
0.0848886
0.0939026
0.0938117
0.0871856
0.0686186
0.0528388
0.0390064
0.0288756
0.0242922
0.0238338
0.0267677
0.0305458
0.0313114
0.0305048
0.0263527
0.0243987
0.0237486
0.0226542
0.0232645
0.041566
0.0703111
0.0791887
0.0759375
0.0656743
0.0539865
0.0401804
0.0287744
0.0202683
0.0155103
0.0143056
0.0147065
0.0195515
0.0256937
0.0289045
0.0288507
0.0266092
0.0255907
0.0264317
0.0306423
0.0428206
0.079459
0.0970818
0.0962959
0.0799456
0.0514911
0.0396981
0.0374412
0.038721
0.0391429
0.0388855
0.0387387
0.0381466
0.0353215
0.030268
0.0261123
0.0239526
0.0224598
0.0215132
0.0214951
0.0223667
0.0259093
0.0401917
0.0557819
0.0621368
0.0663952
0.0784006
0.0843155
0.0854168
0.087195
0.087357
0.0800799
0.0554725
0.0362238
0.0265545
0.0222072
0.0207049
0.0203282
0.0242694
0.0260668
0.0389984
0.0382102
0.0455586
0.0408339
0.0396433
0.0377987
0.0335111
0.0332872
0.0314081
0.0308956
0.0313512
0.0336642
0.0393008
0.0428816
0.0552645
0.0572686
0.06541
0.0856856
0.226293
0.225693
0.312448
0.400633
2.04127
1.63675
1.16764
0.806379
0.666743
0.568047
0.468347
0.378908
0.344708
0.346891
0.359843
0.353762
0.347066
0.354465
0.389277
0.384731
0.34964
0.238583
0.103608
0.0430436
0.0182078
0.00830766
0.00445019
0.00287957
0.00267404
0.00292563
0.00319858
0.00307817
0.00327506
0.00418038
0.00494542
0.00576961
0.00571187
0.00556125
0.00619161
0.0100848
0.0207976
0.0907838
0.177016
0.191512
0.204409
0.290107
0.347669
0.329749
0.214866
0.114587
0.06936
0.0576507
0.0587299
0.0653502
0.0677913
0.0717947
0.0846763
0.0888296
0.088816
0.0884067
0.0767582
0.0546706
0.0343689
0.0189442
0.0139064
0.0152464
0.0261704
0.0702163
0.136383
0.167277
0.161253
0.105934
0.060975
0.0443795
0.0404745
0.0398676
0.0399185
0.0395127
0.0376768
0.035572
0.0331858
0.0266048
0.0224194
0.0216109
0.0214932
0.020769
0.0206177
0.0208506
0.0217282
0.0231928
0.0271124
0.0326394
0.038089
0.0437926
0.0474405
0.0480853
0.0452621
0.0403397
0.0383748
0.0380392
0.0388898
0.044259
0.0615914
0.0791507
0.0873034
0.0872708
0.0820435
0.0658004
0.0500916
0.0375873
0.0286745
0.0243766
0.0236281
0.0259496
0.0286418
0.0290508
0.0285734
0.0258801
0.0235331
0.0210952
0.0203908
0.0317018
0.0602395
0.0785012
0.0807315
0.0734594
0.0632279
0.0492566
0.0352508
0.0246463
0.0176737
0.0147322
0.0142319
0.0152216
0.0216459
0.0263617
0.0288175
0.0287126
0.0269066
0.0268969
0.0290335
0.0367588
0.0604913
0.0949995
0.103448
0.0978192
0.0681771
0.0450184
0.0365246
0.0355849
0.0382217
0.040084
0.0402002
0.0399942
0.0386586
0.03459
0.0291729
0.0247168
0.0229017
0.0221161
0.0212996
0.0213068
0.0219731
0.024494
0.0358438
0.0523203
0.0594939
0.0640057
0.0759579
0.0831695
0.0839211
0.0844048
0.0846387
0.0798063
0.0584478
0.0384377
0.0269627
0.021365
0.0197596
0.0193384
0.0238914
0.0255711
0.037219
0.0348974
0.0368741
0.036045
0.0338605
0.03329
0.0309192
0.0296109
0.0292439
0.0293127
0.0305248
0.0346908
0.0401694
0.0466282
0.0592343
0.0629353
0.0718568
0.0730094
0.212281
0.260338
0.36332
0.40814
1.88432
1.6095
1.46556
1.16275
1.01721
0.893688
0.715355
0.555046
0.470081
0.46701
0.46568
0.449981
0.452731
0.447686
0.432574
0.391039
0.265122
0.116038
0.0458862
0.0188335
0.0085168
0.00426466
0.00270917
0.00217887
0.00217149
0.00243017
0.00251019
0.00237184
0.00252749
0.003596
0.00463333
0.00564313
0.0056907
0.00559166
0.00645136
0.0110839
0.0242681
0.0773693
0.169201
0.189449
0.205211
0.280211
0.340402
0.327066
0.22943
0.128097
0.0768411
0.0607121
0.0606083
0.0654377
0.0682966
0.072684
0.0846414
0.0892094
0.0901605
0.0901354
0.0784712
0.05442
0.0335257
0.0182946
0.0136516
0.0153391
0.027679
0.0753909
0.145613
0.179336
0.171441
0.108454
0.0611217
0.0447838
0.0414748
0.0411804
0.0408825
0.0399055
0.0370086
0.0345834
0.0327409
0.026783
0.021819
0.0208921
0.0208384
0.020379
0.0200676
0.0202894
0.0216857
0.0235117
0.0261499
0.0296772
0.0357914
0.0428891
0.04749
0.0483893
0.0457522
0.0409237
0.038927
0.038418
0.0390492
0.0452498
0.0594062
0.0740326
0.0810377
0.0810489
0.0769537
0.0638454
0.0476611
0.036084
0.0281153
0.0244083
0.0234782
0.0249894
0.0268648
0.0272531
0.0271614
0.0255472
0.0217944
0.0193371
0.0223383
0.0497064
0.0713627
0.0809523
0.0801321
0.0708006
0.0590338
0.0433037
0.0303234
0.0211718
0.0158364
0.0143459
0.0143477
0.0166181
0.0235041
0.026788
0.0292465
0.0290217
0.0283833
0.0291197
0.033837
0.0475574
0.0821176
0.10611
0.107102
0.0917327
0.057424
0.0423735
0.035861
0.0351013
0.0382715
0.0401708
0.0403199
0.0401492
0.038528
0.0329943
0.0269954
0.0227741
0.0210564
0.0209913
0.0208683
0.0209471
0.0215724
0.0235278
0.0321668
0.048765
0.0567246
0.0616306
0.0729598
0.0812818
0.0824671
0.0823627
0.0822703
0.0789626
0.0612929
0.0396961
0.027372
0.0211768
0.019724
0.0195592
0.0256814
0.0265046
0.0322756
0.0314904
0.0317203
0.0318333
0.0331905
0.0314241
0.029794
0.0287501
0.0296845
0.0303958
0.0340197
0.0402559
0.0477852
0.058235
0.0608114
0.0667737
0.0737179
0.0750268
0.109269
0.220848
0.425671
0.444122
1.56142
1.29237
1.25436
1.17808
1.02434
0.937559
0.898102
0.781792
0.690206
0.644416
0.568561
0.517899
0.495183
0.458828
0.400406
0.262101
0.111475
0.0479655
0.0192742
0.00836826
0.00433394
0.00250951
0.00196511
0.00176586
0.00181874
0.00214835
0.00215064
0.00200879
0.00204647
0.00294461
0.00430272
0.00554191
0.00565664
0.0056798
0.00699502
0.0136014
0.0322854
0.0772235
0.153648
0.182728
0.202741
0.270668
0.331731
0.324147
0.242657
0.141426
0.0846936
0.064681
0.0634291
0.0662535
0.0691154
0.073443
0.0839111
0.0894233
0.0917546
0.0919947
0.0796406
0.0535214
0.0322007
0.0174391
0.0132504
0.0153611
0.0292722
0.0802883
0.15529
0.192753
0.183256
0.113023
0.0622591
0.0448318
0.0423803
0.0425435
0.0420924
0.0399669
0.0354761
0.033038
0.0313457
0.0264904
0.0212948
0.0202973
0.0203041
0.0201031
0.0197851
0.019976
0.0218132
0.0241134
0.0256601
0.0279
0.0335895
0.04225
0.0475765
0.0485564
0.0459157
0.0413464
0.0394486
0.0387034
0.0393057
0.0464319
0.0578675
0.0691716
0.0749712
0.0751312
0.0720567
0.0622472
0.0462836
0.0346166
0.0275062
0.0241716
0.0232496
0.023872
0.0256838
0.0262077
0.0264337
0.0247988
0.0203671
0.0192769
0.0303766
0.0604274
0.0775811
0.081767
0.077287
0.0667739
0.0530688
0.0371195
0.0252868
0.0180024
0.014875
0.0142405
0.0146941
0.0190462
0.0247505
0.0273202
0.0302602
0.0307139
0.0309443
0.0330662
0.0416137
0.0666196
0.0999784
0.112568
0.109262
0.0801038
0.0508648
0.0413689
0.0358048
0.0350094
0.0380451
0.0393425
0.0396567
0.0395248
0.0373352
0.0306649
0.0253974
0.0216349
0.0197149
0.019684
0.0198949
0.0203574
0.0212061
0.0229512
0.0293319
0.0454008
0.0539647
0.0597128
0.0703183
0.0791586
0.0808143
0.0806095
0.0804754
0.0776993
0.0630428
0.0422585
0.0281159
0.0214508
0.0203471
0.0205946
0.0266152
0.0260564
0.0270649
0.02848
0.0276827
0.0280919
0.0319132
0.0307088
0.0306488
0.0307542
0.0332166
0.0370861
0.0418074
0.053496
0.0560236
0.0629969
0.0623153
0.0711052
0.0700412
0.0714357
0.111503
0.156957
0.333392
0.422198
1.26453
1.07216
0.953751
0.931096
0.872747
0.814486
0.803821
0.773707
0.731597
0.645921
0.54043
0.47818
0.420887
0.338734
0.198968
0.0957989
0.0434865
0.0193557
0.0077181
0.00374537
0.00251873
0.00174274
0.0015972
0.00157278
0.00163915
0.00189461
0.00188059
0.0018288
0.00192511
0.0026598
0.00426635
0.00554049
0.00574574
0.0059724
0.00802376
0.0190517
0.0489104
0.0928172
0.137675
0.167056
0.191746
0.260779
0.322095
0.319159
0.253083
0.153722
0.0934089
0.0695072
0.0671964
0.0683516
0.070366
0.0739682
0.0826403
0.0899228
0.0937298
0.0940184
0.0802531
0.0519105
0.0304355
0.0165186
0.012785
0.0153876
0.0310516
0.0851841
0.165623
0.206978
0.19681
0.120116
0.0645137
0.0449562
0.0424231
0.0430907
0.0425275
0.039334
0.0333713
0.030819
0.0292662
0.0256131
0.0208847
0.0197285
0.0200696
0.0199761
0.0196992
0.01985
0.0218425
0.0241928
0.0253118
0.0268586
0.0315182
0.041457
0.0476027
0.0486097
0.0459501
0.0417866
0.0399822
0.039083
0.039871
0.0476899
0.0571649
0.0651603
0.0693273
0.0694991
0.0671751
0.06037
0.0454934
0.0337049
0.0269954
0.0234953
0.0225175
0.022692
0.024201
0.0249628
0.0251072
0.0234355
0.0201011
0.0219039
0.0419904
0.0710778
0.0814868
0.0816464
0.0721403
0.0618309
0.0456395
0.0301883
0.020967
0.0161817
0.0144995
0.0143723
0.0156431
0.022037
0.0260184
0.0282763
0.0325757
0.0335497
0.0347879
0.0391645
0.0533826
0.0878562
0.112834
0.116048
0.10624
0.0679353
0.04626
0.0407144
0.0360543
0.0350259
0.0375285
0.0386299
0.0389194
0.0384115
0.0353328
0.0287847
0.02408
0.0206791
0.0188829
0.0186972
0.0190131
0.0198424
0.0207994
0.0224353
0.0272914
0.0420711
0.0508705
0.0573303
0.0678978
0.0769819
0.0790038
0.0788139
0.0783752
0.0760827
0.0641955
0.0439219
0.0304327
0.0228943
0.0226931
0.0235187
0.0263157
0.0253613
0.0268986
0.0263513
0.0259896
0.0261985
0.0292932
0.0308258
0.0334721
0.0347704
0.0384764
0.0428345
0.0478604
0.0560802
0.0582741
0.0637134
0.0604229
0.0762069
0.0720272
0.0836639
0.107997
0.172842
0.20579
0.328939
0.938135
0.839903
0.728813
0.688918
0.625505
0.589442
0.586298
0.5894
0.579416
0.536846
0.420037
0.345592
0.256238
0.150541
0.0788718
0.0373661
0.0175918
0.00759588
0.00316453
0.00206171
0.00183775
0.0014348
0.00136425
0.00137944
0.0014912
0.00168789
0.00168342
0.00170844
0.00189719
0.00257467
0.00461852
0.00581488
0.0059793
0.00638002
0.00953638
0.0294782
0.0695659
0.101045
0.132787
0.153378
0.17711
0.252073
0.312826
0.312765
0.26037
0.165848
0.103229
0.0755672
0.0714095
0.0714759
0.0719859
0.0745878
0.0810813
0.0907425
0.0959205
0.0960145
0.0797579
0.0495053
0.0284004
0.0154818
0.0123918
0.0155285
0.0329079
0.0898614
0.175526
0.222226
0.212253
0.129807
0.0675811
0.045148
0.0420572
0.0431322
0.0424975
0.0375785
0.0312666
0.0291776
0.0273006
0.0244657
0.0205637
0.0193715
0.0200437
0.0200574
0.0197865
0.0199008
0.0216053
0.0235872
0.0244312
0.0257352
0.0298046
0.0410393
0.0476679
0.0485863
0.0458511
0.042052
0.0404012
0.0394824
0.0405671
0.0486499
0.0562901
0.0615245
0.0645921
0.064563
0.0629062
0.0580593
0.0454818
0.0336192
0.0263963
0.0233733
0.0217764
0.0216521
0.0225195
0.0233985
0.0231921
0.0220969
0.0232541
0.0344215
0.0607795
0.0800067
0.0823588
0.0769228
0.0668967
0.0546891
0.0364874
0.0242803
0.0179477
0.0151915
0.0144188
0.0146611
0.0177317
0.0249635
0.0279799
0.0304154
0.0363529
0.0380823
0.040701
0.0476818
0.0708276
0.103512
0.118891
0.117778
0.0982547
0.0590336
0.0425809
0.0397063
0.036327
0.0348585
0.0372493
0.0390763
0.0392001
0.0384187
0.0339067
0.0270491
0.0226154
0.0198793
0.0183422
0.0180917
0.0183873
0.0193934
0.0205341
0.0219967
0.0257188
0.0391974
0.0480273
0.0553372
0.0656083
0.074494
0.0769248
0.0768424
0.0764932
0.0747327
0.0666018
0.0465728
0.0353124
0.0257632
0.0252914
0.0245672
0.0263237
0.0254037
0.0269279
0.0263826
0.0286245
0.0275381
0.0295892
0.0310239
0.037484
0.0385716
0.0457385
0.0474916
0.0541287
0.0560436
0.0596639
0.0611058
0.0568833
0.0619271
0.0618628
0.0716114
0.109402
0.141304
0.212209
0.262233
0.588825
0.547574
0.487854
0.453988
0.414096
0.374927
0.366609
0.367647
0.359906
0.334972
0.27935
0.202854
0.119802
0.0606539
0.0291925
0.0141871
0.00669894
0.00284094
0.00161742
0.00154866
0.00152657
0.00126547
0.0011182
0.00114439
0.00132142
0.00150197
0.00153003
0.00165624
0.0020037
0.00264449
0.00483108
0.00613501
0.00639783
0.00694895
0.0113608
0.0398382
0.0841202
0.103648
0.131387
0.151416
0.176045
0.24476
0.3016
0.304677
0.266483
0.17909
0.114858
0.0827815
0.0758285
0.0742406
0.0743061
0.0759369
0.0803088
0.0923318
0.0981503
0.097702
0.0779922
0.0463422
0.025881
0.0143496
0.0121178
0.0159364
0.0352691
0.0946094
0.184972
0.2386
0.229818
0.142463
0.0715974
0.0455299
0.0415416
0.0430784
0.0423921
0.036187
0.0305804
0.0289324
0.0267643
0.0240026
0.0204718
0.0191316
0.0202825
0.020664
0.0201886
0.0201785
0.0209279
0.0220831
0.0229265
0.0241399
0.0288802
0.0411268
0.0477182
0.0482928
0.0455457
0.0422272
0.0407944
0.0400641
0.0417473
0.0490783
0.0550303
0.0585444
0.0603024
0.0600974
0.0591711
0.0557742
0.045568
0.0338009
0.026367
0.0231243
0.0214945
0.0208798
0.0213728
0.0218545
0.0218706
0.0225242
0.0390848
0.0542786
0.075549
0.0815737
0.0786413
0.0696134
0.0603753
0.0440069
0.027668
0.0200691
0.0164111
0.0148624
0.0146447
0.0153152
0.0209944
0.028161
0.0312401
0.0346632
0.0426722
0.0451931
0.0488452
0.0576633
0.0861069
0.113819
0.121575
0.117449
0.0878933
0.0520275
0.0393955
0.0379976
0.0362862
0.0347824
0.0376391
0.0410716
0.0411623
0.0396684
0.0329335
0.0256046
0.0214966
0.0193587
0.0181696
0.0179167
0.0181913
0.0191928
0.020359
0.0216843
0.0247205
0.036722
0.0449393
0.0526627
0.063363
0.0727885
0.0748027
0.0747754
0.0748262
0.0735859
0.0686342
0.0506848
0.0386702
0.0293955
0.0278558
0.0254451
0.0272024
0.0264554
0.0266023
0.0271412
0.031877
0.0309029
0.0347878
0.0350953
0.0437717
0.0458523
0.0557886
0.0576306
0.0618812
0.0617423
0.0616189
0.0604906
0.0573006
0.0544967
0.0551552
0.0599239
0.0681082
0.12294
0.188078
0.260575
0.27768
0.256677
0.219455
0.210886
0.205573
0.175738
0.16885
0.168589
0.163765
0.148674
0.108946
0.067548
0.0366988
0.0182556
0.0096063
0.00515845
0.00240696
0.00129697
0.00124329
0.00137876
0.00135097
0.000964423
0.000853703
0.000987157
0.00126945
0.00137013
0.00138374
0.00162316
0.00236182
0.00294982
0.00495872
0.00612531
0.0066409
0.00772907
0.0131767
0.0513741
0.0930261
0.106833
0.133152
0.157416
0.192118
0.243766
0.290954
0.296401
0.266947
0.189672
0.126291
0.0903121
0.0811613
0.0769478
0.0762703
0.0769431
0.0804926
0.0942306
0.100136
0.0989115
0.0752511
0.0433043
0.0238883
0.0136552
0.0120197
0.0165845
0.0380061
0.0988302
0.194086
0.25553
0.249168
0.159021
0.077197
0.046476
0.0414347
0.0431828
0.0422927
0.0353372
0.030431
0.0288865
0.0266983
0.023877
0.0204781
0.0189298
0.0202189
0.0219631
0.0212863
0.0205966
0.0206934
0.021036
0.0217146
0.0229882
0.0287988
0.0416891
0.0476823
0.0478498
0.0449835
0.0422654
0.0411383
0.0407829
0.043397
0.0492583
0.0531961
0.0551586
0.0558896
0.0560073
0.0554488
0.0535127
0.0462306
0.0344112
0.0266663
0.0224893
0.0209083
0.0203584
0.0206458
0.0210995
0.0223706
0.0360584
0.0562028
0.0675521
0.0777143
0.0768779
0.0703861
0.0631067
0.0499559
0.0325812
0.0218464
0.0179637
0.0157488
0.0149403
0.0150838
0.016531
0.0251383
0.0332006
0.0368823
0.0428726
0.0522874
0.0549625
0.0585431
0.0674752
0.0972066
0.119685
0.122729
0.115739
0.0776416
0.0481765
0.0372933
0.0364739
0.036171
0.0360054
0.0406072
0.0454783
0.0450216
0.0407793
0.031565
0.0245579
0.0207526
0.0191436
0.0182566
0.0180206
0.0182651
0.0192527
0.0202927
0.021429
0.0238729
0.0344866
0.0426967
0.0501076
0.0612238
0.0706533
0.0736064
0.0729291
0.0720221
0.0713572
0.0689336
0.0560891
0.0433955
0.0403125
0.0357385
0.0278378
0.0285566
0.0274324
0.0276461
0.0275997
0.0310643
0.0336176
0.0434566
0.0452104
0.0561766
0.0588674
0.0642317
0.0642006
0.0658841
0.0656085
0.0625985
0.0531757
0.0535822
0.0521712
0.0560219
0.0558952
0.0641164
0.100435
0.116771
0.227159
0.09014
0.0811519
0.0643339
0.0627692
0.0627053
0.0542375
0.0515841
0.0504515
0.0488244
0.0439405
0.0299009
0.01755
0.00890086
0.00497501
0.00338988
0.00186222
0.00103907
0.000958652
0.00113021
0.00123954
0.00105483
0.000693163
0.000709124
0.000951756
0.0010996
0.00116483
0.00119319
0.00146195
0.00280043
0.00338795
0.0051348
0.00600665
0.00667621
0.00829399
0.0151522
0.0641413
0.105186
0.118927
0.138594
0.16868
0.210275
0.245563
0.283283
0.287647
0.265188
0.198502
0.136976
0.0986263
0.0867937
0.07958
0.0774379
0.0774682
0.0812286
0.0963824
0.102104
0.0997629
0.0714847
0.0399768
0.0217599
0.0132534
0.0119817
0.0175508
0.0412813
0.102685
0.202098
0.272314
0.270388
0.18041
0.0854776
0.0484061
0.0417613
0.0434679
0.0422209
0.0347504
0.030399
0.0289508
0.026936
0.0239287
0.0208193
0.0189183
0.0196839
0.0235415
0.0233443
0.0215407
0.0207501
0.0208602
0.0213031
0.0225162
0.0295015
0.0427378
0.0473993
0.0470519
0.0443486
0.0423884
0.0414884
0.0416732
0.0447054
0.0488053
0.0510412
0.0519277
0.051892
0.0518253
0.0517921
0.0509811
0.0473898
0.0363225
0.0270313
0.0220533
0.0208824
0.0205108
0.0206696
0.0241312
0.0321002
0.0542125
0.0639568
0.0698185
0.0713944
0.0676957
0.0626605
0.0533406
0.0379114
0.0245845
0.0189945
0.017023
0.0155314
0.0154142
0.0158917
0.0186374
0.0307713
0.0401055
0.0456019
0.05639
0.0646417
0.0655094
0.0671251
0.0756009
0.106803
0.123086
0.123691
0.113305
0.0709279
0.046963
0.036955
0.0364237
0.0368583
0.0389267
0.0473416
0.0495293
0.046447
0.0393854
0.029777
0.0233758
0.0201534
0.0190917
0.0185534
0.0183695
0.018551
0.0194163
0.0203475
0.0212926
0.0233123
0.032768
0.0403978
0.0471572
0.0591888
0.0689582
0.0722011
0.0719085
0.0708601
0.0693621
0.070556
0.0656175
0.0545798
0.042839
0.0410087
0.0327853
0.0325931
0.0292894
0.0321436
0.0298443
0.0330453
0.0360766
0.0496763
0.0544944
0.0637199
0.0670901
0.0672813
0.0698912
0.0682845
0.0644075
0.0525516
0.0476082
0.0448258
0.0480282
0.0474053
0.0600817
0.0594217
0.0785084
0.0892956
0.157762
0.0180852
0.0156614
0.0124022
0.0121418
0.0120058
0.0112618
0.0108299
0.0106156
0.0102726
0.00886757
0.00571753
0.00326757
0.00190619
0.00165919
0.0013781
0.000831004
0.000735277
0.000863662
0.00110688
0.001046
0.000684014
0.000535353
0.000620792
0.000844977
0.000882963
0.00101737
0.00112954
0.00143594
0.00324699
0.00400715
0.00552562
0.00608746
0.00667576
0.0085234
0.0168439
0.0744164
0.120135
0.135219
0.146779
0.181712
0.224075
0.246667
0.27677
0.279758
0.261029
0.206497
0.147201
0.108094
0.0928516
0.0822049
0.0783546
0.0778292
0.0827398
0.0987602
0.103521
0.0993856
0.0666913
0.0368696
0.0205584
0.0130209
0.0121774
0.0189933
0.0453454
0.106239
0.209058
0.288473
0.292883
0.207513
0.0974737
0.0514424
0.0424768
0.0435491
0.0421725
0.0346118
0.0306568
0.029388
0.0278983
0.0245073
0.0215249
0.0192083
0.0194222
0.0237736
0.0252273
0.0238452
0.0214485
0.0211129
0.0213711
0.0224445
0.0315733
0.0439693
0.0468801
0.0462689
0.0439182
0.0424657
0.0420463
0.0427117
0.045911
0.0485148
0.0490049
0.0485022
0.0480699
0.0479249
0.0484514
0.0482527
0.0468992
0.0416153
0.0294093
0.0240974
0.0250408
0.0260148
0.0292691
0.0360536
0.046075
0.0600826
0.0637318
0.0644629
0.0635618
0.0606894
0.054954
0.0415122
0.0288407
0.0204403
0.0179099
0.0167248
0.0159667
0.0161035
0.017217
0.0225336
0.0381985
0.0491246
0.0582323
0.067494
0.0708655
0.0697252
0.070042
0.0804147
0.114248
0.126437
0.125698
0.109571
0.0671646
0.04667
0.0375392
0.037192
0.0386604
0.0449735
0.0515639
0.0502389
0.0448423
0.0358585
0.0274655
0.0221648
0.019665
0.0190739
0.0187962
0.0187227
0.0191022
0.0198091
0.020486
0.0212665
0.0229481
0.031227
0.0387496
0.0447392
0.0564133
0.0669951
0.0706703
0.0711
0.0704934
0.0690938
0.0701986
0.0702813
0.0629494
0.0450663
0.047511
0.0387843
0.0382968
0.0338614
0.0354087
0.0350776
0.0388791
0.0414525
0.0547499
0.0640095
0.066346
0.0713627
0.0683856
0.0670136
0.0591691
0.0497414
0.0456202
0.0440367
0.0443695
0.0435784
0.0427504
0.0502135
0.0573321
0.0709172
0.0732616
0.0946903
0.00224497
0.00179222
0.00157943
0.00157171
0.00189572
0.00213724
0.00207995
0.00199437
0.00188188
0.00152086
0.00110116
0.000848631
0.00087972
0.00091947
0.000745811
0.000575906
0.000649519
0.000955238
0.000975373
0.000742778
0.000454819
0.000436419
0.000541402
0.000757377
0.000830208
0.00100763
0.00127919
0.00162638
0.00363217
0.00455732
0.00613338
0.00652324
0.00685055
0.00868899
0.0180377
0.0773103
0.125145
0.152853
0.168645
0.206864
0.232269
0.248415
0.273173
0.273911
0.260001
0.216426
0.157359
0.117919
0.0984983
0.084556
0.0791771
0.0781341
0.0845304
0.101264
0.105457
0.09831
0.0617667
0.0336849
0.0189243
0.0128437
0.0124373
0.0209408
0.0502226
0.108435
0.21417
0.303021
0.316619
0.240742
0.114054
0.0554603
0.0431723
0.0435031
0.0422317
0.034798
0.0315012
0.0301143
0.029138
0.0257284
0.0222028
0.0201724
0.0196631
0.0228893
0.0258572
0.0255349
0.0235754
0.0221025
0.0216379
0.0231268
0.0350703
0.0448648
0.0461686
0.0454849
0.0435864
0.0426829
0.0425891
0.0438593
0.0462956
0.0476722
0.0470083
0.0457486
0.0451763
0.0450637
0.0455948
0.0457669
0.0455483
0.0432375
0.0356154
0.0315905
0.0321643
0.033977
0.040189
0.044648
0.0522522
0.0590069
0.0595259
0.0593873
0.0587634
0.0549753
0.0448499
0.0335066
0.0238208
0.0187829
0.0176703