/*--------------------------------*- C++ -*----------------------------------*\
| =========                 |                                                 |
| \\      /  F ield         | OpenFOAM: The Open Source CFD Toolbox           |
|  \\    /   O peration     | Version:  2.4.0                                 |
|   \\  /    A nd           | Web:      www.OpenFOAM.org                      |
|    \\/     M anipulation  |                                                 |
\*---------------------------------------------------------------------------*/
FoamFile
{
    version     2.0;
    format      ascii;
    class       volScalarField;
    location    "0.046";
    object      pPrime2Mean;
}
// * * * * * * * * * * * * * * * * * * * * * * * * * * * * * * * * * * * * * //

dimensions      [0 4 -4 0 0 0 0];

internalField   nonuniform List<scalar> 
4400
(
1.38423e+07
1.31304e+07
1.23884e+07
1.16659e+07
1.09649e+07
1.02855e+07
9.62704e+06
8.98809e+06
8.3634e+06
7.72899e+06
1.38426e+07
1.31303e+07
1.23884e+07
1.16659e+07
1.09649e+07
1.02855e+07
9.62708e+06
8.98822e+06
8.36386e+06
7.73123e+06
1.38427e+07
1.31303e+07
1.23884e+07
1.16659e+07
1.09649e+07
1.02855e+07
9.62715e+06
8.98848e+06
8.36475e+06
7.73646e+06
1.38429e+07
1.31302e+07
1.23884e+07
1.16659e+07
1.09649e+07
1.02855e+07
9.62727e+06
8.98885e+06
8.36605e+06
7.7433e+06
1.3843e+07
1.31302e+07
1.23883e+07
1.16659e+07
1.09649e+07
1.02856e+07
9.62741e+06
8.98932e+06
8.3677e+06
7.75102e+06
1.3843e+07
1.31301e+07
1.23883e+07
1.16659e+07
1.09649e+07
1.02856e+07
9.62758e+06
8.98988e+06
8.36963e+06
7.75912e+06
1.38431e+07
1.31301e+07
1.23883e+07
1.16659e+07
1.0965e+07
1.02857e+07
9.62777e+06
8.99051e+06
8.37177e+06
7.76726e+06
1.38431e+07
1.31301e+07
1.23883e+07
1.16659e+07
1.0965e+07
1.02857e+07
9.62798e+06
8.9912e+06
8.37403e+06
7.77521e+06
1.38432e+07
1.31301e+07
1.23883e+07
1.16659e+07
1.0965e+07
1.02858e+07
9.62821e+06
8.99191e+06
8.37635e+06
7.78281e+06
1.38432e+07
1.31301e+07
1.23883e+07
1.16659e+07
1.0965e+07
1.02859e+07
9.62844e+06
8.99265e+06
8.37866e+06
7.78997e+06
1.38432e+07
1.31301e+07
1.23883e+07
1.16659e+07
1.0965e+07
1.0286e+07
9.62868e+06
8.99338e+06
8.38092e+06
7.7966e+06
1.38432e+07
1.31301e+07
1.23883e+07
1.16659e+07
1.09651e+07
1.0286e+07
9.62891e+06
8.99408e+06
8.38307e+06
7.80264e+06
1.38431e+07
1.31301e+07
1.23883e+07
1.16659e+07
1.09651e+07
1.02861e+07
9.62913e+06
8.99476e+06
8.38508e+06
7.80807e+06
1.38431e+07
1.31301e+07
1.23883e+07
1.16659e+07
1.09651e+07
1.02862e+07
9.62933e+06
8.99538e+06
8.38691e+06
7.81285e+06
1.3843e+07
1.31301e+07
1.23883e+07
1.16659e+07
1.09651e+07
1.02862e+07
9.62952e+06
8.99594e+06
8.38852e+06
7.81697e+06
1.3843e+07
1.31302e+07
1.23884e+07
1.16659e+07
1.09652e+07
1.02863e+07
9.62968e+06
8.99642e+06
8.38991e+06
7.82042e+06
1.38429e+07
1.31302e+07
1.23884e+07
1.16659e+07
1.09652e+07
1.02864e+07
9.62982e+06
8.99682e+06
8.39104e+06
7.82318e+06
1.38428e+07
1.31303e+07
1.23884e+07
1.1666e+07
1.09652e+07
1.02864e+07
9.62992e+06
8.99712e+06
8.3919e+06
7.82525e+06
1.38426e+07
1.31303e+07
1.23884e+07
1.1666e+07
1.09652e+07
1.02864e+07
9.62999e+06
8.99733e+06
8.39248e+06
7.82664e+06
1.38423e+07
1.31304e+07
1.23885e+07
1.1666e+07
1.09652e+07
1.02864e+07
9.63003e+06
8.99743e+06
8.39277e+06
7.82732e+06
7.1858e+06
7.05977e+06
6.95903e+06
6.86664e+06
6.77837e+06
6.69281e+06
6.60921e+06
6.52707e+06
6.44602e+06
6.36578e+06
6.2862e+06
6.20721e+06
6.12877e+06
6.0508e+06
5.9733e+06
5.89631e+06
5.81987e+06
5.74401e+06
5.66876e+06
5.59412e+06
5.52007e+06
5.44659e+06
5.37367e+06
5.30129e+06
5.22943e+06
5.15806e+06
5.08718e+06
5.01676e+06
4.94681e+06
4.87735e+06
4.80838e+06
4.73991e+06
4.67197e+06
4.60456e+06
4.53766e+06
4.47126e+06
4.40537e+06
4.33998e+06
4.27507e+06
4.21066e+06
4.14674e+06
4.08331e+06
4.02037e+06
3.95792e+06
3.89596e+06
3.83449e+06
3.77351e+06
3.71302e+06
3.65301e+06
3.5935e+06
3.53447e+06
3.47593e+06
3.41788e+06
3.36032e+06
3.30325e+06
3.24667e+06
3.19057e+06
3.13497e+06
3.07985e+06
3.02523e+06
2.97108e+06
2.91743e+06
2.86426e+06
2.8116e+06
2.7594e+06
2.70771e+06
2.65649e+06
2.60578e+06
2.55553e+06
2.5058e+06
2.45653e+06
2.40777e+06
2.35947e+06
2.31169e+06
2.26435e+06
2.21755e+06
2.17118e+06
2.12535e+06
2.07994e+06
2.03508e+06
1.99063e+06
1.94673e+06
1.90323e+06
1.86028e+06
1.81773e+06
1.7757e+06
1.73407e+06
1.69295e+06
1.6522e+06
1.61193e+06
1.572e+06
1.53249e+06
1.49323e+06
1.45428e+06
1.41539e+06
1.37658e+06
1.33731e+06
1.29746e+06
1.25525e+06
1.20792e+06
7.24383e+06
7.10178e+06
6.98952e+06
6.8899e+06
6.7967e+06
6.70746e+06
6.62101e+06
6.5366e+06
6.45375e+06
6.37206e+06
6.29131e+06
6.21138e+06
6.13216e+06
6.05358e+06
5.97559e+06
5.8982e+06
5.82144e+06
5.74533e+06
5.66988e+06
5.59508e+06
5.5209e+06
5.44731e+06
5.3743e+06
5.30185e+06
5.22993e+06
5.15851e+06
5.08758e+06
5.01711e+06
4.94711e+06
4.87759e+06
4.80856e+06
4.74005e+06
4.67208e+06
4.60464e+06
4.53772e+06
4.47131e+06
4.40541e+06
4.34001e+06
4.2751e+06
4.21068e+06
4.14676e+06
4.08333e+06
4.02039e+06
3.95793e+06
3.89597e+06
3.8345e+06
3.77351e+06
3.71302e+06
3.65301e+06
3.5935e+06
3.53447e+06
3.47593e+06
3.41788e+06
3.36032e+06
3.30324e+06
3.24666e+06
3.19057e+06
3.13496e+06
3.07984e+06
3.02522e+06
2.97107e+06
2.91742e+06
2.86425e+06
2.81157e+06
2.75937e+06
2.70768e+06
2.65645e+06
2.60573e+06
2.55548e+06
2.50573e+06
2.45644e+06
2.40767e+06
2.35934e+06
2.31154e+06
2.26417e+06
2.21734e+06
2.17092e+06
2.12504e+06
2.07957e+06
2.03464e+06
1.9901e+06
1.9461e+06
1.90247e+06
1.85937e+06
1.81663e+06
1.77441e+06
1.7325e+06
1.6911e+06
1.64997e+06
1.60928e+06
1.56881e+06
1.52869e+06
1.48865e+06
1.4488e+06
1.40872e+06
1.36848e+06
1.32723e+06
1.28475e+06
1.23839e+06
1.18357e+06
7.28796e+06
7.13867e+06
7.01815e+06
6.9123e+06
6.81451e+06
6.72179e+06
6.63259e+06
6.54599e+06
6.46137e+06
6.37826e+06
6.29636e+06
6.21548e+06
6.13549e+06
6.0563e+06
5.97783e+06
5.90005e+06
5.82298e+06
5.74663e+06
5.67099e+06
5.59602e+06
5.52172e+06
5.44803e+06
5.37494e+06
5.30242e+06
5.23044e+06
5.15897e+06
5.08799e+06
5.01746e+06
4.94741e+06
4.87783e+06
4.80875e+06
4.74019e+06
4.67218e+06
4.60472e+06
4.53778e+06
4.47136e+06
4.40545e+06
4.34004e+06
4.27512e+06
4.2107e+06
4.14678e+06
4.08334e+06
4.0204e+06
3.95794e+06
3.89598e+06
3.8345e+06
3.77352e+06
3.71302e+06
3.65301e+06
3.5935e+06
3.53447e+06
3.47593e+06
3.41788e+06
3.36031e+06
3.30324e+06
3.24666e+06
3.19056e+06
3.13495e+06
3.07983e+06
3.0252e+06
2.97106e+06
2.9174e+06
2.86423e+06
2.81155e+06
2.75935e+06
2.70765e+06
2.65641e+06
2.60569e+06
2.55542e+06
2.50566e+06
2.45636e+06
2.40757e+06
2.35922e+06
2.3114e+06
2.264e+06
2.21713e+06
2.17067e+06
2.12475e+06
2.07921e+06
2.03421e+06
1.98957e+06
1.94548e+06
1.90171e+06
1.85849e+06
1.81555e+06
1.77314e+06
1.73096e+06
1.68928e+06
1.64777e+06
1.60668e+06
1.56567e+06
1.52497e+06
1.48416e+06
1.44344e+06
1.40224e+06
1.36066e+06
1.31761e+06
1.27288e+06
1.22345e+06
1.16519e+06
7.323e+06
7.1708e+06
7.04452e+06
6.9335e+06
6.83161e+06
6.73564e+06
6.64384e+06
6.55514e+06
6.4688e+06
6.38431e+06
6.30127e+06
6.21947e+06
6.13874e+06
6.05895e+06
5.98001e+06
5.90186e+06
5.82449e+06
5.74791e+06
5.67207e+06
5.59696e+06
5.52253e+06
5.44874e+06
5.37558e+06
5.30299e+06
5.23096e+06
5.15944e+06
5.0884e+06
5.01782e+06
4.9477e+06
4.87807e+06
4.80894e+06
4.74034e+06
4.67229e+06
4.60479e+06
4.53784e+06
4.47141e+06
4.40549e+06
4.34007e+06
4.27515e+06
4.21072e+06
4.14679e+06
4.08335e+06
4.02041e+06
3.95795e+06
3.89598e+06
3.83451e+06
3.77352e+06
3.71302e+06
3.65302e+06
3.5935e+06
3.53447e+06
3.47593e+06
3.41787e+06
3.36031e+06
3.30324e+06
3.24665e+06
3.19055e+06
3.13495e+06
3.07982e+06
3.02519e+06
2.97104e+06
2.91739e+06
2.86421e+06
2.81153e+06
2.75932e+06
2.70761e+06
2.65638e+06
2.60564e+06
2.55537e+06
2.5056e+06
2.45628e+06
2.40747e+06
2.35911e+06
2.31126e+06
2.26383e+06
2.21693e+06
2.17043e+06
2.12445e+06
2.07886e+06
2.03379e+06
1.98907e+06
1.94488e+06
1.90099e+06
1.85763e+06
1.8145e+06
1.77191e+06
1.72946e+06
1.68752e+06
1.64562e+06
1.60416e+06
1.56261e+06
1.52135e+06
1.4798e+06
1.43826e+06
1.39601e+06
1.3532e+06
1.30858e+06
1.26198e+06
1.21049e+06
1.15093e+06
7.35161e+06
7.1987e+06
7.06851e+06
6.95334e+06
6.84786e+06
6.74893e+06
6.65469e+06
6.56399e+06
6.476e+06
6.39016e+06
6.30603e+06
6.22334e+06
6.14189e+06
6.06153e+06
5.98212e+06
5.90361e+06
5.82597e+06
5.74916e+06
5.67314e+06
5.59788e+06
5.52333e+06
5.44945e+06
5.37621e+06
5.30356e+06
5.23147e+06
5.1599e+06
5.0888e+06
5.01816e+06
4.94799e+06
4.8783e+06
4.80912e+06
4.74047e+06
4.67239e+06
4.60487e+06
4.53789e+06
4.47145e+06
4.40552e+06
4.3401e+06
4.27517e+06
4.21074e+06
4.14681e+06
4.08337e+06
4.02042e+06
3.95796e+06
3.89599e+06
3.83451e+06
3.77352e+06
3.71303e+06
3.65302e+06
3.5935e+06
3.53447e+06
3.47593e+06
3.41787e+06
3.36031e+06
3.30323e+06
3.24665e+06
3.19055e+06
3.13494e+06
3.07981e+06
3.02518e+06
2.97103e+06
2.91737e+06
2.86419e+06
2.81151e+06
2.7593e+06
2.70758e+06
2.65634e+06
2.6056e+06
2.55532e+06
2.50553e+06
2.4562e+06
2.40738e+06
2.359e+06
2.31112e+06
2.26367e+06
2.21673e+06
2.17019e+06
2.12417e+06
2.07852e+06
2.03338e+06
1.98858e+06
1.94429e+06
1.90028e+06
1.85679e+06
1.8135e+06
1.77071e+06
1.72802e+06
1.68581e+06
1.64356e+06
1.60173e+06
1.55966e+06
1.5179e+06
1.4756e+06
1.43332e+06
1.39004e+06
1.34613e+06
1.3002e+06
1.25208e+06
1.19938e+06
1.13954e+06
7.3755e+06
7.22296e+06
7.09017e+06
6.97171e+06
6.86315e+06
6.76155e+06
6.66506e+06
6.57247e+06
6.48292e+06
6.39579e+06
6.31062e+06
6.22708e+06
6.14494e+06
6.06402e+06
5.98417e+06
5.90532e+06
5.82741e+06
5.75038e+06
5.67418e+06
5.59877e+06
5.5241e+06
5.45014e+06
5.37682e+06
5.30411e+06
5.23196e+06
5.16034e+06
5.08918e+06
5.01849e+06
4.94826e+06
4.87852e+06
4.80929e+06
4.7406e+06
4.67248e+06
4.60494e+06
4.53795e+06
4.47149e+06
4.40556e+06
4.34012e+06
4.27519e+06
4.21076e+06
4.14682e+06
4.08338e+06
4.02043e+06
3.95797e+06
3.896e+06
3.83452e+06
3.77353e+06
3.71303e+06
3.65302e+06
3.5935e+06
3.53447e+06
3.47592e+06
3.41787e+06
3.36031e+06
3.30323e+06
3.24664e+06
3.19054e+06
3.13493e+06
3.0798e+06
3.02517e+06
2.97102e+06
2.91736e+06
2.86418e+06
2.81149e+06
2.75928e+06
2.70756e+06
2.65631e+06
2.60555e+06
2.55527e+06
2.50547e+06
2.45613e+06
2.40729e+06
2.35889e+06
2.31099e+06
2.26352e+06
2.21654e+06
2.16997e+06
2.12389e+06
2.07819e+06
2.03298e+06
1.98811e+06
1.94372e+06
1.8996e+06
1.85597e+06
1.81252e+06
1.76954e+06
1.72663e+06
1.68415e+06
1.64158e+06
1.59938e+06
1.55686e+06
1.51459e+06
1.47163e+06
1.42866e+06
1.38445e+06
1.33959e+06
1.29253e+06
1.24319e+06
1.18974e+06
1.13013e+06
7.39572e+06
7.24409e+06
7.10963e+06
6.9886e+06
6.87741e+06
6.77343e+06
6.67488e+06
6.58054e+06
6.48953e+06
6.40119e+06
6.31503e+06
6.23068e+06
6.14788e+06
6.06643e+06
5.98616e+06
5.90698e+06
5.8288e+06
5.75155e+06
5.67518e+06
5.59964e+06
5.52486e+06
5.4508e+06
5.37741e+06
5.30463e+06
5.23243e+06
5.16075e+06
5.08954e+06
5.01879e+06
4.94851e+06
4.87872e+06
4.80945e+06
4.74072e+06
4.67257e+06
4.60501e+06
4.538e+06
4.47153e+06
4.40559e+06
4.34015e+06
4.27522e+06
4.21078e+06
4.14684e+06
4.08339e+06
4.02044e+06
3.95797e+06
3.896e+06
3.83452e+06
3.77353e+06
3.71303e+06
3.65302e+06
3.5935e+06
3.53447e+06
3.47592e+06
3.41787e+06
3.3603e+06
3.30322e+06
3.24664e+06
3.19053e+06
3.13492e+06
3.07979e+06
3.02516e+06
2.97101e+06
2.91734e+06
2.86416e+06
2.81147e+06
2.75925e+06
2.70753e+06
2.65628e+06
2.60551e+06
2.55522e+06
2.50541e+06
2.45606e+06
2.4072e+06
2.35879e+06
2.31086e+06
2.26337e+06
2.21635e+06
2.16975e+06
2.12362e+06
2.07788e+06
2.0326e+06
1.98766e+06
1.94317e+06
1.89896e+06
1.85518e+06
1.81159e+06
1.76841e+06
1.7253e+06
1.68254e+06
1.63969e+06
1.5971e+06
1.55418e+06
1.51139e+06
1.46788e+06
1.42424e+06
1.37928e+06
1.33358e+06
1.28562e+06
1.23536e+06
1.18133e+06
1.12219e+06
7.41305e+06
7.26251e+06
7.12703e+06
7.00399e+06
6.89059e+06
6.78452e+06
6.68412e+06
6.58818e+06
6.49582e+06
6.40634e+06
6.31924e+06
6.23413e+06
6.1507e+06
6.06874e+06
5.98808e+06
5.90857e+06
5.83013e+06
5.75268e+06
5.67615e+06
5.60047e+06
5.52558e+06
5.45144e+06
5.37796e+06
5.30512e+06
5.23286e+06
5.16113e+06
5.08986e+06
5.01906e+06
4.94873e+06
4.8789e+06
4.80959e+06
4.74083e+06
4.67265e+06
4.60507e+06
4.53805e+06
4.47157e+06
4.40562e+06
4.34018e+06
4.27524e+06
4.2108e+06
4.14685e+06
4.0834e+06
4.02044e+06
3.95798e+06
3.89601e+06
3.83453e+06
3.77353e+06
3.71303e+06
3.65302e+06
3.5935e+06
3.53447e+06
3.47592e+06
3.41787e+06
3.3603e+06
3.30322e+06
3.24663e+06
3.19053e+06
3.13491e+06
3.07979e+06
3.02514e+06
2.97099e+06
2.91733e+06
2.86415e+06
2.81145e+06
2.75923e+06
2.7075e+06
2.65624e+06
2.60547e+06
2.55517e+06
2.50534e+06
2.45599e+06
2.40711e+06
2.35869e+06
2.31073e+06
2.26322e+06
2.21617e+06
2.16954e+06
2.12337e+06
2.07758e+06
2.03223e+06
1.98723e+06
1.94264e+06
1.89834e+06
1.85443e+06
1.81071e+06
1.76734e+06
1.72404e+06
1.68102e+06
1.6379e+06
1.59495e+06
1.55166e+06
1.50837e+06
1.46438e+06
1.42007e+06
1.3745e+06
1.32799e+06
1.27934e+06
1.22835e+06
1.17397e+06
1.11544e+06
7.42804e+06
7.2786e+06
7.1425e+06
7.01793e+06
6.90269e+06
6.79481e+06
6.69275e+06
6.59535e+06
6.50174e+06
6.41121e+06
6.32323e+06
6.23739e+06
6.15338e+06
6.07095e+06
5.9899e+06
5.91009e+06
5.8314e+06
5.75376e+06
5.67707e+06
5.60126e+06
5.52627e+06
5.45203e+06
5.37847e+06
5.30556e+06
5.23325e+06
5.16146e+06
5.09014e+06
5.01929e+06
4.94892e+06
4.87905e+06
4.8097e+06
4.74092e+06
4.67273e+06
4.60512e+06
4.5381e+06
4.47161e+06
4.40565e+06
4.3402e+06
4.27526e+06
4.21081e+06
4.14686e+06
4.08341e+06
4.02045e+06
3.95799e+06
3.89601e+06
3.83453e+06
3.77354e+06
3.71304e+06
3.65302e+06
3.5935e+06
3.53447e+06
3.47592e+06
3.41786e+06
3.3603e+06
3.30322e+06
3.24663e+06
3.19052e+06
3.1349e+06
3.07978e+06
3.02513e+06
2.97098e+06
2.91731e+06
2.86413e+06
2.81142e+06
2.75921e+06
2.70746e+06
2.65621e+06
2.60542e+06
2.55512e+06
2.50528e+06
2.45592e+06
2.40702e+06
2.35859e+06
2.31061e+06
2.26308e+06
2.216e+06
2.16934e+06
2.12312e+06
2.07729e+06
2.03188e+06
1.98682e+06
1.94214e+06
1.89776e+06
1.85372e+06
1.80988e+06
1.76633e+06
1.72285e+06
1.67959e+06
1.63622e+06
1.59295e+06
1.54931e+06
1.50557e+06
1.46112e+06
1.4162e+06
1.37011e+06
1.32282e+06
1.27361e+06
1.22201e+06
1.16752e+06
1.10961e+06
7.44106e+06
7.29265e+06
7.15619e+06
7.03045e+06
6.9137e+06
6.80425e+06
6.70072e+06
6.60201e+06
6.50726e+06
6.41576e+06
6.32697e+06
6.24046e+06
6.1559e+06
6.07302e+06
5.99161e+06
5.91151e+06
5.8326e+06
5.75477e+06
5.67793e+06
5.602e+06
5.5269e+06
5.45256e+06
5.37892e+06
5.30595e+06
5.23359e+06
5.16174e+06
5.09037e+06
5.01948e+06
4.94907e+06
4.87917e+06
4.80979e+06
4.74099e+06
4.67279e+06
4.60517e+06
4.53814e+06
4.47164e+06
4.40568e+06
4.34022e+06
4.27527e+06
4.21083e+06
4.14688e+06
4.08342e+06
4.02046e+06
3.95799e+06
3.89602e+06
3.83453e+06
3.77354e+06
3.71304e+06
3.65302e+06
3.5935e+06
3.53447e+06
3.47592e+06
3.41786e+06
3.36029e+06
3.30321e+06
3.24662e+06
3.19052e+06
3.1349e+06
3.07977e+06
3.02512e+06
2.97097e+06
2.91729e+06
2.86411e+06
2.8114e+06
2.75918e+06
2.70743e+06
2.65617e+06
2.60538e+06
2.55507e+06
2.50522e+06
2.45585e+06
2.40694e+06
2.35849e+06
2.31049e+06
2.26295e+06
2.21583e+06
2.16915e+06
2.12288e+06
2.07702e+06
2.03154e+06
1.98643e+06
1.94167e+06
1.89721e+06
1.85305e+06
1.8091e+06
1.76539e+06
1.72175e+06
1.67826e+06
1.63466e+06
1.59108e+06
1.54713e+06
1.50296e+06
1.45812e+06
1.41263e+06
1.36604e+06
1.31809e+06
1.26839e+06
1.21633e+06
1.16188e+06
1.10451e+06
7.45238e+06
7.3049e+06
7.16826e+06
7.04161e+06
6.92361e+06
6.81282e+06
6.70801e+06
6.60813e+06
6.51235e+06
6.41997e+06
6.33044e+06
6.24332e+06
6.15824e+06
6.07495e+06
5.9932e+06
5.91284e+06
5.83372e+06
5.75572e+06
5.67873e+06
5.60268e+06
5.52748e+06
5.45304e+06
5.37931e+06
5.30629e+06
5.23387e+06
5.16196e+06
5.09055e+06
5.01962e+06
4.94918e+06
4.87925e+06
4.80986e+06
4.74105e+06
4.67283e+06
4.60522e+06
4.53817e+06
4.47167e+06
4.4057e+06
4.34024e+06
4.27529e+06
4.21084e+06
4.14689e+06
4.08343e+06
4.02047e+06
3.958e+06
3.89602e+06
3.83454e+06
3.77354e+06
3.71304e+06
3.65302e+06
3.5935e+06
3.53447e+06
3.47592e+06
3.41786e+06
3.36029e+06
3.30321e+06
3.24662e+06
3.19051e+06
3.13489e+06
3.07976e+06
3.02511e+06
2.97096e+06
2.91728e+06
2.8641e+06
2.81138e+06
2.75916e+06
2.7074e+06
2.65614e+06
2.60533e+06
2.55502e+06
2.50516e+06
2.45579e+06
2.40685e+06
2.3584e+06
2.31037e+06
2.26281e+06
2.21567e+06
2.16896e+06
2.12265e+06
2.07675e+06
2.03122e+06
1.98606e+06
1.94122e+06
1.89668e+06
1.85242e+06
1.80836e+06
1.7645e+06
1.72072e+06
1.67702e+06
1.63322e+06
1.58934e+06
1.54512e+06
1.50055e+06
1.45534e+06
1.40934e+06
1.36228e+06
1.31377e+06
1.26367e+06
1.21129e+06
1.15694e+06
1.10004e+06
7.46221e+06
7.31553e+06
7.17881e+06
7.05147e+06
6.93244e+06
6.82052e+06
6.71459e+06
6.61369e+06
6.51699e+06
6.42381e+06
6.33361e+06
6.24593e+06
6.16039e+06
6.07672e+06
5.99467e+06
5.91407e+06
5.83475e+06
5.75658e+06
5.67947e+06
5.6033e+06
5.52799e+06
5.45346e+06
5.37965e+06
5.30656e+06
5.23409e+06
5.16213e+06
5.09068e+06
5.01972e+06
4.94925e+06
4.87931e+06
4.80991e+06
4.74109e+06
4.67287e+06
4.60525e+06
4.5382e+06
4.4717e+06
4.40572e+06
4.34026e+06
4.27531e+06
4.21085e+06
4.1469e+06
4.08344e+06
4.02047e+06
3.958e+06
3.89603e+06
3.83454e+06
3.77355e+06
3.71304e+06
3.65303e+06
3.5935e+06
3.53447e+06
3.47592e+06
3.41786e+06
3.36029e+06
3.30321e+06
3.24661e+06
3.19051e+06
3.13488e+06
3.07975e+06
3.0251e+06
2.97095e+06
2.91726e+06
2.86408e+06
2.81136e+06
2.75914e+06
2.70737e+06
2.65611e+06
2.60529e+06
2.55497e+06
2.5051e+06
2.45572e+06
2.40677e+06
2.35831e+06
2.31026e+06
2.26268e+06
2.2155e+06
2.16878e+06
2.12243e+06
2.0765e+06
2.03091e+06
1.9857e+06
1.94079e+06
1.89619e+06
1.85182e+06
1.80767e+06
1.76366e+06
1.71975e+06
1.67585e+06
1.63188e+06
1.58772e+06
1.54325e+06
1.49831e+06
1.45276e+06
1.4063e+06
1.35885e+06
1.30986e+06
1.25947e+06
1.20689e+06
1.15264e+06
1.09618e+06
7.47067e+06
7.32469e+06
7.18796e+06
7.06008e+06
6.94022e+06
6.82734e+06
6.72046e+06
6.61865e+06
6.52115e+06
6.42727e+06
6.33647e+06
6.24829e+06
6.16234e+06
6.07833e+06
5.99601e+06
5.91519e+06
5.83569e+06
5.75738e+06
5.68013e+06
5.60385e+06
5.52845e+06
5.45381e+06
5.37993e+06
5.30678e+06
5.23426e+06
5.16224e+06
5.09075e+06
5.01977e+06
4.94929e+06
4.87933e+06
4.80993e+06
4.74111e+06
4.6729e+06
4.60528e+06
4.53823e+06
4.47172e+06
4.40574e+06
4.34028e+06
4.27532e+06
4.21086e+06
4.14691e+06
4.08345e+06
4.02048e+06
3.95801e+06
3.89603e+06
3.83454e+06
3.77355e+06
3.71304e+06
3.65303e+06
3.5935e+06
3.53446e+06
3.47592e+06
3.41786e+06
3.36029e+06
3.30321e+06
3.24661e+06
3.1905e+06
3.13488e+06
3.07975e+06
3.02509e+06
2.97093e+06
2.91725e+06
2.86406e+06
2.81134e+06
2.75911e+06
2.70734e+06
2.65607e+06
2.60525e+06
2.55493e+06
2.50504e+06
2.45566e+06
2.40669e+06
2.35822e+06
2.31015e+06
2.26256e+06
2.21535e+06
2.16861e+06
2.12222e+06
2.07626e+06
2.03062e+06
1.98537e+06
1.94038e+06
1.89572e+06
1.85125e+06
1.80702e+06
1.76288e+06
1.71885e+06
1.67476e+06
1.63063e+06
1.58621e+06
1.54152e+06
1.49625e+06
1.4504e+06
1.40353e+06
1.35576e+06
1.30639e+06
1.25578e+06
1.2031e+06
1.14893e+06
1.09288e+06
7.47791e+06
7.3325e+06
7.19578e+06
7.06749e+06
6.94695e+06
6.83328e+06
6.72559e+06
6.62302e+06
6.52482e+06
6.43034e+06
6.33901e+06
6.25038e+06
6.16407e+06
6.07977e+06
5.99721e+06
5.91619e+06
5.83653e+06
5.75808e+06
5.68071e+06
5.60433e+06
5.52883e+06
5.45411e+06
5.38015e+06
5.30694e+06
5.23437e+06
5.16231e+06
5.09079e+06
5.01978e+06
4.94929e+06
4.87933e+06
4.80994e+06
4.74113e+06
4.67292e+06
4.6053e+06
4.53825e+06
4.47174e+06
4.40576e+06
4.34029e+06
4.27533e+06
4.21087e+06
4.14691e+06
4.08345e+06
4.02049e+06
3.95801e+06
3.89603e+06
3.83455e+06
3.77355e+06
3.71304e+06
3.65303e+06
3.5935e+06
3.53446e+06
3.47592e+06
3.41786e+06
3.36029e+06
3.3032e+06
3.24661e+06
3.1905e+06
3.13487e+06
3.07974e+06
3.02508e+06
2.97092e+06
2.91723e+06
2.86405e+06
2.81132e+06
2.75909e+06
2.70731e+06
2.65604e+06
2.60521e+06
2.55489e+06
2.50499e+06
2.4556e+06
2.40662e+06
2.35814e+06
2.31005e+06
2.26245e+06
2.21521e+06
2.16846e+06
2.12202e+06
2.07605e+06
2.03034e+06
1.98507e+06
1.94e+06
1.8953e+06
1.85072e+06
1.80643e+06
1.76214e+06
1.71803e+06
1.67375e+06
1.62949e+06
1.58482e+06
1.53995e+06
1.49436e+06
1.44829e+06
1.40106e+06
1.35304e+06
1.30339e+06
1.2526e+06
1.19988e+06
1.14578e+06
1.09006e+06
7.48399e+06
7.33905e+06
7.20236e+06
7.07374e+06
6.95267e+06
6.83836e+06
6.73e+06
6.62679e+06
6.528e+06
6.43299e+06
6.34122e+06
6.25222e+06
6.1656e+06
6.08103e+06
5.99827e+06
5.91707e+06
5.83726e+06
5.75868e+06
5.68121e+06
5.60474e+06
5.52915e+06
5.45435e+06
5.38032e+06
5.30706e+06
5.23444e+06
5.16235e+06
5.09079e+06
5.01977e+06
4.94928e+06
4.87932e+06
4.80994e+06
4.74114e+06
4.67294e+06
4.60532e+06
4.53827e+06
4.47176e+06
4.40577e+06
4.3403e+06
4.27534e+06
4.21088e+06
4.14692e+06
4.08346e+06
4.02049e+06
3.95802e+06
3.89604e+06
3.83455e+06
3.77355e+06
3.71304e+06
3.65303e+06
3.5935e+06
3.53446e+06
3.47592e+06
3.41786e+06
3.36028e+06
3.3032e+06
3.2466e+06
3.1905e+06
3.13487e+06
3.07974e+06
3.02508e+06
2.97092e+06
2.91722e+06
2.86403e+06
2.8113e+06
2.75907e+06
2.70729e+06
2.65602e+06
2.60518e+06
2.55485e+06
2.50494e+06
2.45555e+06
2.40655e+06
2.35807e+06
2.30996e+06
2.26235e+06
2.21509e+06
2.16832e+06
2.12185e+06
2.07585e+06
2.0301e+06
1.98479e+06
1.93965e+06
1.89492e+06
1.85024e+06
1.8059e+06
1.76148e+06
1.7173e+06
1.67284e+06
1.62847e+06
1.58358e+06
1.53857e+06
1.4927e+06
1.44644e+06
1.39893e+06
1.3507e+06
1.30085e+06
1.24992e+06
1.19718e+06
1.14315e+06
1.0877e+06
7.48897e+06
7.34442e+06
7.20775e+06
7.07889e+06
6.9574e+06
6.84258e+06
6.73368e+06
6.62994e+06
6.53067e+06
6.43523e+06
6.34309e+06
6.25377e+06
6.16689e+06
6.08211e+06
5.99916e+06
5.91781e+06
5.83787e+06
5.75918e+06
5.68162e+06
5.60507e+06
5.52941e+06
5.45454e+06
5.38045e+06
5.30714e+06
5.23447e+06
5.16235e+06
5.09078e+06
5.01975e+06
4.94925e+06
4.87931e+06
4.80993e+06
4.74115e+06
4.67295e+06
4.60534e+06
4.53829e+06
4.47177e+06
4.40579e+06
4.34031e+06
4.27535e+06
4.21089e+06
4.14693e+06
4.08346e+06
4.02049e+06
3.95802e+06
3.89604e+06
3.83455e+06
3.77355e+06
3.71305e+06
3.65303e+06
3.5935e+06
3.53446e+06
3.47592e+06
3.41786e+06
3.36028e+06
3.3032e+06
3.2466e+06
3.19049e+06
3.13487e+06
3.07973e+06
3.02507e+06
2.97091e+06
2.91721e+06
2.86402e+06
2.81128e+06
2.75905e+06
2.70727e+06
2.65599e+06
2.60515e+06
2.55482e+06
2.5049e+06
2.4555e+06
2.4065e+06
2.35801e+06
2.30988e+06
2.26226e+06
2.21498e+06
2.1682e+06
2.1217e+06
2.07569e+06
2.02989e+06
1.98456e+06
1.93936e+06
1.89459e+06
1.84983e+06
1.80545e+06
1.76091e+06
1.71666e+06
1.67205e+06
1.6276e+06
1.5825e+06
1.53738e+06
1.49129e+06
1.44488e+06
1.39717e+06
1.34876e+06
1.29877e+06
1.24771e+06
1.19499e+06
1.14101e+06
1.08576e+06
7.4929e+06
7.34864e+06
7.21201e+06
7.08298e+06
6.96117e+06
6.84595e+06
6.73663e+06
6.63248e+06
6.53282e+06
6.43705e+06
6.34461e+06
6.25504e+06
6.16794e+06
6.08299e+06
5.99989e+06
5.91841e+06
5.83837e+06
5.75959e+06
5.68194e+06
5.60532e+06
5.5296e+06
5.45468e+06
5.38055e+06
5.30719e+06
5.23448e+06
5.16234e+06
5.09075e+06
5.01972e+06
4.94923e+06
4.87929e+06
4.80993e+06
4.74115e+06
4.67296e+06
4.60535e+06
4.5383e+06
4.47179e+06
4.4058e+06
4.34032e+06
4.27536e+06
4.21089e+06
4.14693e+06
4.08347e+06
4.0205e+06
3.95802e+06
3.89604e+06
3.83455e+06
3.77355e+06
3.71305e+06
3.65303e+06
3.5935e+06
3.53446e+06
3.47592e+06
3.41785e+06
3.36028e+06
3.3032e+06
3.2466e+06
3.19049e+06
3.13486e+06
3.07973e+06
3.02507e+06
2.9709e+06
2.91721e+06
2.86401e+06
2.81127e+06
2.75904e+06
2.70725e+06
2.65597e+06
2.60513e+06
2.5548e+06
2.50487e+06
2.45547e+06
2.40645e+06
2.35796e+06
2.30982e+06
2.2622e+06
2.21489e+06
2.1681e+06
2.12158e+06
2.07555e+06
2.02972e+06
1.98437e+06
1.93912e+06
1.89433e+06
1.8495e+06
1.80508e+06
1.76044e+06
1.71615e+06
1.67141e+06
1.62688e+06
1.58164e+06
1.53642e+06
1.49016e+06
1.44362e+06
1.39576e+06
1.34721e+06
1.29713e+06
1.24597e+06
1.19325e+06
1.13931e+06
1.08422e+06
7.49581e+06
7.35177e+06
7.21518e+06
7.08603e+06
6.96399e+06
6.84849e+06
6.73885e+06
6.6344e+06
6.53445e+06
6.43842e+06
6.34576e+06
6.256e+06
6.16874e+06
6.08365e+06
6.00044e+06
5.91887e+06
5.83874e+06
5.75988e+06
5.68217e+06
5.6055e+06
5.52972e+06
5.45477e+06
5.38062e+06
5.30721e+06
5.23447e+06
5.16232e+06
5.09073e+06
5.01969e+06
4.94921e+06
4.87928e+06
4.80992e+06
4.74115e+06
4.67297e+06
4.60536e+06
4.53831e+06
4.4718e+06
4.4058e+06
4.34033e+06
4.27536e+06
4.2109e+06
4.14693e+06
4.08347e+06
4.0205e+06
3.95802e+06
3.89604e+06
3.83455e+06
3.77355e+06
3.71305e+06
3.65303e+06
3.5935e+06
3.53446e+06
3.47591e+06
3.41785e+06
3.36028e+06
3.3032e+06
3.2466e+06
3.19049e+06
3.13486e+06
3.07973e+06
3.02507e+06
2.9709e+06
2.9172e+06
2.86401e+06
2.81126e+06
2.75903e+06
2.70724e+06
2.65596e+06
2.60511e+06
2.55478e+06
2.50485e+06
2.45545e+06
2.40642e+06
2.35792e+06
2.30977e+06
2.26215e+06
2.21483e+06
2.16803e+06
2.12149e+06
2.07545e+06
2.02959e+06
1.98423e+06
1.93894e+06
1.89413e+06
1.84925e+06
1.80479e+06
1.76009e+06
1.71575e+06
1.67092e+06
1.62634e+06
1.58099e+06
1.53569e+06
1.48931e+06
1.44268e+06
1.39471e+06
1.34606e+06
1.29591e+06
1.24467e+06
1.19197e+06
1.13806e+06
1.08307e+06
7.49773e+06
7.35384e+06
7.21728e+06
7.08805e+06
6.96587e+06
6.85018e+06
6.74034e+06
6.63568e+06
6.53555e+06
6.43935e+06
6.34654e+06
6.25665e+06
6.16928e+06
6.0841e+06
6.00081e+06
5.91917e+06
5.83898e+06
5.76008e+06
5.68233e+06
5.60561e+06
5.5298e+06
5.45483e+06
5.38066e+06
5.30723e+06
5.23446e+06
5.1623e+06
5.09071e+06
5.01968e+06
4.94919e+06
4.87927e+06
4.80992e+06
4.74116e+06
4.67298e+06
4.60537e+06
4.53832e+06
4.4718e+06
4.40581e+06
4.34033e+06
4.27537e+06
4.2109e+06
4.14694e+06
4.08347e+06
4.0205e+06
3.95803e+06
3.89604e+06
3.83455e+06
3.77355e+06
3.71305e+06
3.65303e+06
3.5935e+06
3.53446e+06
3.47591e+06
3.41785e+06
3.36028e+06
3.3032e+06
3.2466e+06
3.19049e+06
3.13486e+06
3.07972e+06
3.02506e+06
2.9709e+06
2.9172e+06
2.864e+06
2.81126e+06
2.75903e+06
2.70724e+06
2.65596e+06
2.6051e+06
2.55477e+06
2.50484e+06
2.45543e+06
2.4064e+06
2.3579e+06
2.30975e+06
2.26212e+06
2.21479e+06
2.16799e+06
2.12143e+06
2.07539e+06
2.02951e+06
1.98414e+06
1.93883e+06
1.894e+06
1.84908e+06
1.80461e+06
1.75986e+06
1.71549e+06
1.6706e+06
1.62598e+06
1.58056e+06
1.5352e+06
1.48876e+06
1.44206e+06
1.39402e+06
1.34529e+06
1.2951e+06
1.2438e+06
1.19111e+06
1.13723e+06
1.08231e+06
7.49867e+06
7.35486e+06
7.21832e+06
7.08907e+06
6.96681e+06
6.85103e+06
6.74109e+06
6.63633e+06
6.53611e+06
6.43982e+06
6.34693e+06
6.25698e+06
6.16956e+06
6.08433e+06
6.00099e+06
5.91932e+06
5.8391e+06
5.76017e+06
5.6824e+06
5.60566e+06
5.52984e+06
5.45486e+06
5.38068e+06
5.30724e+06
5.23446e+06
5.16229e+06
5.0907e+06
5.01967e+06
4.94919e+06
4.87927e+06
4.80992e+06
4.74116e+06
4.67299e+06
4.60538e+06
4.53832e+06
4.47181e+06
4.40581e+06
4.34034e+06
4.27537e+06
4.2109e+06
4.14694e+06
4.08347e+06
4.0205e+06
3.95803e+06
3.89604e+06
3.83455e+06
3.77355e+06
3.71305e+06
3.65303e+06
3.5935e+06
3.53446e+06
3.47591e+06
3.41785e+06
3.36028e+06
3.3032e+06
3.2466e+06
3.19049e+06
3.13486e+06
3.07972e+06
3.02506e+06
2.9709e+06
2.9172e+06
2.864e+06
2.81126e+06
2.75902e+06
2.70723e+06
2.65595e+06
2.6051e+06
2.55476e+06
2.50483e+06
2.45542e+06
2.40639e+06
2.35789e+06
2.30973e+06
2.2621e+06
2.21477e+06
2.16796e+06
2.1214e+06
2.07536e+06
2.02947e+06
1.9841e+06
1.93877e+06
1.89393e+06
1.849e+06
1.80452e+06
1.75975e+06
1.71536e+06
1.67045e+06
1.6258e+06
1.58035e+06
1.53496e+06
1.48848e+06
1.44175e+06
1.39368e+06
1.34491e+06
1.29471e+06
1.24337e+06
1.19069e+06
1.13682e+06
1.08194e+06
6.63439e+06
6.62456e+06
6.60528e+06
6.57725e+06
6.54135e+06
6.49849e+06
6.44966e+06
6.39582e+06
6.33787e+06
6.27658e+06
6.2126e+06
6.14645e+06
6.07859e+06
6.00941e+06
5.93922e+06
5.86823e+06
5.7967e+06
5.72485e+06
5.65284e+06
5.58085e+06
5.50898e+06
5.43727e+06
5.36581e+06
5.29462e+06
5.22373e+06
5.15319e+06
5.08301e+06
5.01323e+06
4.94386e+06
4.87491e+06
4.80641e+06
4.73834e+06
4.67073e+06
4.60357e+06
4.53687e+06
4.47063e+06
4.40486e+06
4.33957e+06
4.27474e+06
4.2104e+06
4.14653e+06
4.08314e+06
4.02024e+06
3.95782e+06
3.89588e+06
3.83443e+06
3.77346e+06
3.71298e+06
3.65299e+06
3.59349e+06
3.53447e+06
3.47594e+06
3.41791e+06
3.36036e+06
3.3033e+06
3.24673e+06
3.19066e+06
3.13507e+06
3.07998e+06
3.02538e+06
2.97127e+06
2.91766e+06
2.86454e+06
2.81192e+06
2.7598e+06
2.70819e+06
2.65707e+06
2.60647e+06
2.55637e+06
2.50679e+06
2.45773e+06
2.40919e+06
2.36119e+06
2.31373e+06
2.26682e+06
2.22047e+06
2.17471e+06
2.12954e+06
2.08499e+06
2.04108e+06
1.99784e+06
1.95531e+06
1.91353e+06
1.87256e+06
1.83245e+06
1.79328e+06
1.75513e+06
1.71812e+06
1.68237e+06
1.64803e+06
1.61528e+06
1.58434e+06
1.55547e+06
1.52895e+06
1.50512e+06
1.48435e+06
1.46704e+06
1.45359e+06
1.44437e+06
1.43968e+06
6.63614e+06
6.62624e+06
6.60685e+06
6.57867e+06
6.54261e+06
6.49958e+06
6.45059e+06
6.3966e+06
6.33853e+06
6.27715e+06
6.21309e+06
6.14686e+06
6.07895e+06
6.00972e+06
5.93947e+06
5.86844e+06
5.79686e+06
5.72497e+06
5.65295e+06
5.58093e+06
5.50904e+06
5.43732e+06
5.36585e+06
5.29465e+06
5.22376e+06
5.15321e+06
5.08303e+06
5.01325e+06
4.94387e+06
4.87492e+06
4.80641e+06
4.73835e+06
4.67073e+06
4.60357e+06
4.53687e+06
4.47064e+06
4.40487e+06
4.33957e+06
4.27475e+06
4.2104e+06
4.14653e+06
4.08314e+06
4.02024e+06
3.95782e+06
3.89588e+06
3.83443e+06
3.77346e+06
3.71298e+06
3.65299e+06
3.59349e+06
3.53447e+06
3.47594e+06
3.41791e+06
3.36036e+06
3.3033e+06
3.24673e+06
3.19066e+06
3.13507e+06
3.07998e+06
3.02538e+06
2.97127e+06
2.91766e+06
2.86454e+06
2.81192e+06
2.7598e+06
2.70818e+06
2.65707e+06
2.60646e+06
2.55637e+06
2.50678e+06
2.45772e+06
2.40918e+06
2.36118e+06
2.31372e+06
2.2668e+06
2.22046e+06
2.17469e+06
2.12951e+06
2.08496e+06
2.04104e+06
1.9978e+06
1.95526e+06
1.91347e+06
1.87249e+06
1.83236e+06
1.79317e+06
1.75501e+06
1.71797e+06
1.68219e+06
1.64781e+06
1.61502e+06
1.58404e+06
1.5551e+06
1.52852e+06
1.50462e+06
1.48377e+06
1.46639e+06
1.45287e+06
1.4436e+06
1.43888e+06
6.63964e+06
6.62961e+06
6.60997e+06
6.5815e+06
6.54511e+06
6.50176e+06
6.45245e+06
6.39818e+06
6.33989e+06
6.27833e+06
6.21409e+06
6.14772e+06
6.07967e+06
6.01033e+06
5.93998e+06
5.86885e+06
5.79719e+06
5.72523e+06
5.65315e+06
5.5811e+06
5.50917e+06
5.43744e+06
5.36594e+06
5.29473e+06
5.22383e+06
5.15327e+06
5.08308e+06
5.01328e+06
4.9439e+06
4.87495e+06
4.80643e+06
4.73836e+06
4.67075e+06
4.60358e+06
4.53688e+06
4.47064e+06
4.40487e+06
4.33957e+06
4.27475e+06
4.2104e+06
4.14653e+06
4.08315e+06
4.02024e+06
3.95782e+06
3.89588e+06
3.83443e+06
3.77346e+06
3.71298e+06
3.65299e+06
3.59349e+06
3.53447e+06
3.47594e+06