/*--------------------------------*- C++ -*----------------------------------*\
| =========                 |                                                 |
| \\      /  F ield         | OpenFOAM: The Open Source CFD Toolbox           |
|  \\    /   O peration     | Version:  2.4.0                                 |
|   \\  /    A nd           | Web:      www.OpenFOAM.org                      |
|    \\/     M anipulation  |                                                 |
\*---------------------------------------------------------------------------*/
FoamFile
{
    version     2.0;
    format      ascii;
    class       volSymmTensorField;
    location    "0.046";
    object      UPrime2Mean;
}
// * * * * * * * * * * * * * * * * * * * * * * * * * * * * * * * * * * * * * //

dimensions      [0 2 -2 0 0 0 0];

internalField   nonuniform List<symmTensor> 
4400
(
(0.123354 -0.0122275 0 0.00214951 0 0)
(1.36202 -0.00387193 0 0.000183633 0 0)
(1.54001 -0.00232891 0 8.54195e-06 0 0)
(1.72594 -0.00140226 0 4.22326e-06 0 0)
(1.84562 -2.18845e-05 0 1.74421e-06 0 0)
(1.89811 0.000104706 0 2.4905e-06 0 0)
(1.94337 -0.000164268 0 2.83442e-06 0 0)
(2.01438 0.000349362 0 1.01123e-05 0 0)
(2.27787 -0.037369 0 0.000825518 0 0)
(3.6677 0.211111 0 0.0267434 0 0)
(0.0892374 0.0374079 0 0.0222578 0 0)
(0.536474 -0.0425425 0 0.00384454 0 0)
(0.76222 -0.0248802 0 0.000827341 0 0)
(1.06943 -0.0201643 0 0.000486852 0 0)
(1.36957 -0.0118555 0 0.000271961 0 0)
(1.57057 -0.00743058 0 9.73372e-05 0 0)
(1.68217 -0.00612459 0 0.000137015 0 0)
(2.01253 -0.0119932 0 0.000195536 0 0)
(1.80001 -0.0380582 0 0.00225966 0 0)
(5.79251 -0.647565 0 0.153552 0 0)
(0.285252 0.090614 0 0.0304406 0 0)
(0.0903446 -0.0233859 0 0.00923414 0 0)
(0.160099 -0.0204201 0 0.0033382 0 0)
(0.30705 -0.0262571 0 0.00241968 0 0)
(0.536103 -0.0227034 0 0.00152871 0 0)
(0.775045 -0.0165881 0 0.000588228 0 0)
(0.868293 -0.017942 0 0.00092307 0 0)
(1.30547 -0.0066322 0 0.000718021 0 0)
(1.03917 -0.110423 0 0.0183694 0 0)
(3.81126 -0.629041 0 0.2587 0 0)
(0.354017 0.0887644 0 0.0232114 0 0)
(0.0136312 0.00278687 0 0.0116617 0 0)
(0.0542583 0.00728941 0 0.00568686 0 0)
(0.0492333 -0.00176412 0 0.00555207 0 0)
(0.0656763 -0.0106025 0 0.00425039 0 0)
(0.185624 -0.0135356 0 0.00144652 0 0)
(0.168852 -0.0178278 0 0.00289686 0 0)
(0.486862 -0.0011333 0 0.00147519 0 0)
(0.356745 -0.0722953 0 0.0327583 0 0)
(1.12967 -0.215046 0 0.253352 0 0)
(0.339198 0.068731 0 0.0146042 0 0)
(0.0185739 0.00813668 0 0.0091862 0 0)
(0.140139 0.0223081 0 0.0050313 0 0)
(0.186097 0.0274063 0 0.00679794 0 0)
(0.172466 0.0192056 0 0.00641305 0 0)
(0.119768 0.00492705 0 0.00326653 0 0)
(0.118423 0.00214478 0 0.00333894 0 0)
(0.111804 -0.00112684 0 0.004002 0 0)
(0.162911 0.00392721 0 0.0267635 0 0)
(0.232657 0.0638251 0 0.364673 0 0)
(0.342242 0.0546099 0 0.00917399 0 0)
(0.0188351 0.00535246 0 0.0064935 0 0)
(0.155934 0.0181752 0 0.00296122 0 0)
(0.267958 0.0311306 0 0.00552111 0 0)
(0.36537 0.0336315 0 0.00630238 0 0)
(0.327928 0.0220552 0 0.00322836 0 0)
(0.370752 0.0229839 0 0.00534128 0 0)
(0.327292 0.0174752 0 0.00343806 0 0)
(0.320899 0.0842569 0 0.0442849 0 0)
(0.391182 0.239607 0 0.228101 0 0)
(0.339151 0.0417297 0 0.00552167 0 0)
(0.014902 0.00366472 0 0.0043809 0 0)
(0.13679 0.0118962 0 0.0016252 0 0)
(0.270287 0.0236243 0 0.00306616 0 0)
(0.373327 0.0276275 0 0.00368013 0 0)
(0.419384 0.0233334 0 0.00361373 0 0)
(0.504808 0.0228534 0 0.00287912 0 0)
(0.534666 0.0410589 0 0.00771386 0 0)
(0.604927 0.0989097 0 0.0227002 0 0)
(0.69978 0.345309 0 0.26358 0 0)
(0.328946 0.0281071 0 0.00267297 0 0)
(0.0106776 0.00251813 0 0.00298851 0 0)
(0.124538 0.00668971 0 0.000932028 0 0)
(0.260024 0.0175154 0 0.00229699 0 0)
(0.351753 0.0167096 0 0.00270538 0 0)
(0.425511 0.0166829 0 0.00190143 0 0)
(0.492412 0.0214811 0 0.00257278 0 0)
(0.596503 0.0323562 0 0.00375013 0 0)
(0.675569 0.114574 0 0.0282164 0 0)
(0.952888 0.368559 0 0.209758 0 0)
(0.324624 0.0168521 0 0.00100653 0 0)
(0.0111438 0.00129414 0 0.00115603 0 0)
(0.119772 0.00359835 0 0.000337518 0 0)
(0.254893 0.0102327 0 0.000828934 0 0)
(0.337132 0.00976727 0 0.00105025 0 0)
(0.413635 0.0120475 0 0.00152926 0 0)
(0.479298 0.013286 0 0.00161847 0 0)
(0.593097 0.0357628 0 0.00510111 0 0)
(0.694055 0.106219 0 0.0187519 0 0)
(1.00627 0.334439 0 0.14771 0 0)
(0.324754 0.00479067 0 0.000172539 0 0)
(0.0104477 0.000293547 0 0.000400643 0 0)
(0.116657 0.000237616 0 0.000210061 0 0)
(0.250034 0.0049299 0 0.000442209 0 0)
(0.330068 0.00124551 0 0.000706499 0 0)
(0.408455 0.00424672 0 0.000886163 0 0)
(0.474674 0.00895071 0 0.00092849 0 0)
(0.595457 0.0294338 0 0.00335029 0 0)
(0.715252 0.0924486 0 0.0160795 0 0)
(1.05266 0.314314 0 0.133128 0 0)
(0.325662 -0.00625662 0 0.00018107 0 0)
(0.0103496 -0.000570811 0 0.000162156 0 0)
(0.117159 -0.00250705 0 0.0002127 0 0)
(0.24959 -0.00184428 0 0.000256767 0 0)
(0.330921 -0.00566782 0 0.00066114 0 0)
(0.409355 -0.00185543 0 0.000918517 0 0)
(0.477323 0.00315741 0 0.000817719 0 0)
(0.605601 0.0228336 0 0.00299425 0 0)
(0.740935 0.0850957 0 0.0119329 0 0)
(1.11486 0.278228 0 0.0920394 0 0)
(0.325631 -0.0181664 0 0.00112389 0 0)
(0.0105858 -0.0015503 0 0.000771909 0 0)
(0.119462 -0.00582428 0 0.000495125 0 0)
(0.252123 -0.00777525 0 0.000468544 0 0)
(0.336522 -0.0136038 0 0.00113516 0 0)
(0.416158 -0.00948659 0 0.00122063 0 0)
(0.486828 -0.00283057 0 0.00067172 0 0)
(0.621733 0.0170768 0 0.00231015 0 0)
(0.77055 0.0701389 0 0.00824481 0 0)
(1.16765 0.240341 0 0.0652833 0 0)
(0.32535 -0.029667 0 0.0028726 0 0)
(0.0110335 -0.00261716 0 0.00208541 0 0)
(0.124328 -0.00933127 0 0.0011084 0 0)
(0.256832 -0.0143772 0 0.00132977 0 0)
(0.350969 -0.021369 0 0.00236073 0 0)
(0.426705 -0.0160725 0 0.00202393 0 0)
(0.507321 -0.00906462 0 0.000983545 0 0)
(0.6383 0.00941203 0 0.0021421 0 0)
(0.806078 0.0555885 0 0.00538612 0 0)
(1.20695 0.197008 0 0.0444219 0 0)
(0.324087 -0.0415946 0 0.00561304 0 0)
(0.0128256 -0.00393456 0 0.00384032 0 0)
(0.133623 -0.013657 0 0.00195671 0 0)
(0.265375 -0.0215203 0 0.00254026 0 0)
(0.374118 -0.0299627 0 0.00389089 0 0)
(0.429082 -0.0229502 0 0.00311409 0 0)
(0.516298 -0.0155122 0 0.00152473 0 0)
(0.600976 0.00201825 0 0.00194593 0 0)
(0.763127 0.039941 0 0.00343246 0 0)
(1.07245 0.14243 0 0.0254661 0 0)
(0.320799 -0.0534251 0 0.0093379 0 0)
(0.0153108 -0.00602989 0 0.00593357 0 0)
(0.145833 -0.0191221 0 0.00342099 0 0)
(0.270855 -0.0291393 0 0.00445205 0 0)
(0.35133 -0.0354425 0 0.00584938 0 0)
(0.34028 -0.022819 0 0.00414552 0 0)
(0.374439 -0.0151854 0 0.00191774 0 0)
(0.375469 0.000588501 0 0.00188444 0 0)
(0.462644 0.0240428 0 0.00218868 0 0)
(0.637791 0.0836806 0 0.0138398 0 0)
(0.327441 -0.0676786 0 0.0146459 0 0)
(0.0175702 -0.00902514 0 0.00890049 0 0)
(0.132726 -0.0225016 0 0.0055026 0 0)
(0.184725 -0.0263045 0 0.00613695 0 0)
(0.163888 -0.0201602 0 0.0061862 0 0)
(0.112058 -0.00566394 0 0.00371511 0 0)
(0.1142 -0.00247894 0 0.0014823 0 0)
(0.111227 0.0037158 0 0.00129161 0 0)
(0.140465 0.0076575 0 0.00149437 0 0)
(0.224323 0.0285431 0 0.00647762 0 0)
(0.346752 -0.0879553 0 0.0232878 0 0)
(0.0125904 -0.00351982 0 0.011458 0 0)
(0.052859 -0.0069814 0 0.00604071 0 0)
(0.0438027 0.00164949 0 0.00502136 0 0)
(0.0625145 0.0111661 0 0.00395293 0 0)
(0.14719 0.013027 0 0.0020304 0 0)
(0.203904 0.00691848 0 0.000688946 0 0)
(0.269219 0.00253677 0 0.00067216 0 0)
(0.247252 -0.00895413 0 0.00100135 0 0)
(0.21919 -0.00384688 0 0.00282091 0 0)
(0.281874 -0.0900627 0 0.0304753 0 0)
(0.0871094 0.0228107 0 0.00914639 0 0)
(0.163335 0.0211139 0 0.00346971 0 0)
(0.304353 0.0252562 0 0.00222776 0 0)
(0.522579 0.0235987 0 0.00148632 0 0)
(0.759754 0.014456 0 0.000684411 0 0)
(0.850258 0.00612931 0 0.000205021 0 0)
(0.950849 -0.00101637 0 0.000246925 0 0)
(0.855666 -0.0163387 0 0.000548069 0 0)
(0.724644 -0.00332715 0 0.00140254 0 0)
(0.0887348 -0.0371764 0 0.0222721 0 0)
(0.532823 0.0422483 0 0.00382235 0 0)
(0.766591 0.0253372 0 0.000853659 0 0)
(1.06784 0.0194243 0 0.000448044 0 0)
(1.35638 0.0125156 0 0.000260184 0 0)
(1.56995 0.00558746 0 0.000110301 0 0)
(1.62973 0.00167828 0 3.22419e-05 0 0)
(1.69483 -0.00222022 0 5.50875e-05 0 0)
(1.57266 -0.011586 0 0.000166671 0 0)
(1.39295 0.00580508 0 0.000838622 0 0)
(0.123674 0.0122537 0 0.00215142 0 0)
(1.36079 0.00383909 0 0.0001841 0 0)
(1.54135 0.00240131 0 8.62788e-06 0 0)
(1.72537 0.00129841 0 3.85986e-06 0 0)
(1.84103 7.2611e-05 0 1.39538e-06 0 0)
(1.89695 -0.000257174 0 1.32811e-06 0 0)
(1.90373 -0.00033287 0 1.19349e-06 0 0)
(1.90454 -0.000713144 0 1.88657e-06 0 0)
(1.83122 -0.0025654 0 7.34518e-06 0 0)
(1.66232 0.00434366 0 0.000409482 0 0)
(10.9503 -7.24636 0 6.08717 0 0)
(9.36904 -5.08556 0 6.9407 0 0)
(7.76063 -3.70545 0 7.03531 0 0)
(7.99976 -3.28145 0 7.05759 0 0)
(7.1507 -2.59857 0 6.79998 0 0)
(6.57877 -2.34355 0 6.98016 0 0)
(5.69749 -1.78799 0 6.83975 0 0)
(5.28208 -1.44907 0 6.68938 0 0)
(5.11014 -1.24339 0 6.17258 0 0)
(5.05063 -1.0434 0 5.32873 0 0)
(4.94969 -0.8706 0 4.36623 0 0)
(4.93082 -0.834478 0 3.39046 0 0)
(5.29449 -1.29869 0 2.69939 0 0)
(5.9332 -2.21257 0 2.42836 0 0)
(6.49642 -3.20566 0 2.55101 0 0)
(7.31395 -4.18337 0 2.94207 0 0)
(8.65031 -5.25477 0 3.52683 0 0)
(9.99613 -6.24392 0 4.12621 0 0)
(11.1226 -7.00378 0 4.57191 0 0)
(11.5538 -7.29296 0 4.72361 0 0)
(11.1557 -6.96164 0 4.47244 0 0)
(10.6118 -6.35672 0 3.98023 0 0)
(10.3759 -5.77798 0 3.42772 0 0)
(10.3224 -5.15896 0 2.81878 0 0)
(10.1521 -4.33408 0 2.08796 0 0)
(9.66829 -3.3091 0 1.34838 0 0)
(8.82428 -2.15725 0 0.710022 0 0)
(7.68532 -1.02914 0 0.273341 0 0)
(6.35256 -0.0901641 0 0.0983092 0 0)
(5.0014 0.585111 0 0.127146 0 0)
(3.65468 0.935753 0 0.269265 0 0)
(2.39766 0.945134 0 0.389228 0 0)
(1.45111 0.767429 0 0.417152 0 0)
(0.864986 0.568958 0 0.383295 0 0)
(0.521586 0.39681 0 0.311273 0 0)
(0.319201 0.261748 0 0.224525 0 0)
(0.20302 0.172236 0 0.156065 0 0)
(0.137095 0.119962 0 0.115263 0 0)
(0.097375 0.0881296 0 0.0903561 0 0)
(0.0707496 0.0651794 0 0.0707527 0 0)
(0.0517023 0.0468149 0 0.0529857 0 0)
(0.0381141 0.0323651 0 0.037583 0 0)
(0.0290994 0.0218673 0 0.025443 0 0)
(0.0233481 0.0147214 0 0.0168073 0 0)
(0.0201389 0.0101756 0 0.0108493 0 0)
(0.0180461 0.00719911 0 0.00713297 0 0)
(0.017278 0.00539136 0 0.00446108 0 0)
(0.0162317 0.00405309 0 0.00315394 0 0)
(0.0166483 0.00323698 0 0.00172061 0 0)
(0.0153516 0.0025792 0 0.00167307 0 0)
(0.0172306 0.00188779 0 0.000467722 0 0)
(0.0144715 0.0018414 0 0.00150489 0 0)
(0.0196313 8.08319e-05 0 0.000148453 0 0)
(0.013438 0.00115324 0 0.00309755 0 0)
(0.0263594 -0.00473611 0 0.00221334 0 0)
(0.0130473 -0.00127214 0 0.0100779 0 0)
(0.0421463 -0.01784 0 0.0117074 0 0)
(0.0141775 -0.00786947 0 0.0301203 0 0)
(0.0703425 -0.0435225 0 0.0337255 0 0)
(0.0155176 -0.0165575 0 0.0628556 0 0)
(0.110053 -0.0771101 0 0.0615442 0 0)
(0.0158296 -0.0221995 0 0.0898123 0 0)
(0.16542 -0.109255 0 0.0815102 0 0)
(0.0152818 -0.0229674 0 0.102103 0 0)
(0.234475 -0.132086 0 0.0904236 0 0)
(0.0121532 -0.0180338 0 0.107457 0 0)
(0.29033 -0.143538 0 0.0930391 0 0)
(0.0100556 -0.00735734 0 0.112578 0 0)
(0.3222 -0.14741 0 0.09329 0 0)
(0.013768 0.00792151 0 0.119063 0 0)
(0.335738 -0.145105 0 0.091735 0 0)
(0.0249129 0.0244243 0 0.122341 0 0)
(0.335418 -0.134857 0 0.0845502 0 0)
(0.0417815 0.0372271 0 0.118937 0 0)
(0.328369 -0.115505 0 0.0706649 0 0)
(0.0628479 0.0464286 0 0.112272 0 0)
(0.31012 -0.0896664 0 0.0554557 0 0)
(0.0868412 0.0536936 0 0.105037 0 0)
(0.274022 -0.0607105 0 0.0410126 0 0)
(0.10683 0.0532046 0 0.0935984 0 0)
(0.219505 -0.0289674 0 0.0287287 0 0)
(0.107211 0.0448435 0 0.079607 0 0)
(0.152803 -0.00831479 0 0.0207652 0 0)
(0.081567 0.0291386 0 0.0628212 0 0)
(0.0796997 0.00452881 0 0.0159331 0 0)
(0.0400385 0.00911257 0 0.0449291 0 0)
(0.0283647 0.00324783 0 0.011127 0 0)
(0.0128381 -0.00573041 0 0.0301571 0 0)
(0.00698881 -1.427e-05 0 0.00727187 0 0)
(0.0149003 -0.0108581 0 0.022594 0 0)
(0.0184914 -1.9737e-05 0 0.00592062 0 0)
(0.0370969 -0.016508 0 0.0208548 0 0)
(0.0662047 -0.00093905 0 0.00805854 0 0)
(0.109038 -0.0092357 0 0.0233098 0 0)
(0.0662981 -0.00542373 0 0.0183264 0 0)
(0.0406765 -0.0258588 0 0.0361027 0 0)
(0.204519 -0.0380295 0 0.0202507 0 0)
(0.0770799 -0.0349076 0 0.0295305 0 0)
(0.155575 -0.0202877 0 0.0217207 0 0)
(0.361803 0.0291609 0 0.099063 0 0)
(8.19246 -5.24542 0 5.14517 0 0)
(6.92585 -4.29654 0 5.92304 0 0)
(5.8471 -2.85585 0 5.73117 0 0)
(5.87848 -2.48394 0 5.67262 0 0)
(5.41245 -2.1276 0 5.4787 0 0)
(5.05014 -1.98038 0 5.57191 0 0)
(5.1465 -1.75727 0 5.43031 0 0)
(5.29491 -1.65235 0 5.27222 0 0)
(5.31558 -1.50095 0 4.91011 0 0)
(5.1676 -1.21614 0 4.22767 0 0)
(5.14803 -0.990712 0 3.42275 0 0)
(5.64954 -1.1673 0 2.76936 0 0)
(6.67133 -1.85264 0 2.39932 0 0)
(7.79601 -2.85761 0 2.31857 0 0)
(8.8865 -3.96449 0 2.53499 0 0)
(10.2135 -5.13509 0 3.02145 0 0)
(11.4774 -6.25215 0 3.6603 0 0)
(12.2362 -7.06555 0 4.23324 0 0)
(12.5047 -7.50473 0 4.61064 0 0)
(11.9563 -7.34408 0 4.62806 0 0)
(11.1707 -6.79375 0 4.31083 0 0)
(10.8177 -6.30825 0 3.9392 0 0)
(10.8622 -5.8928 0 3.53155 0 0)
(10.8572 -5.26842 0 2.94458 0 0)
(10.4512 -4.2925 0 2.161 0 0)
(9.66284 -3.10191 0 1.36617 0 0)
(8.61751 -1.86139 0 0.709422 0 0)
(7.36032 -0.706197 0 0.295572 0 0)
(6.00468 0.219598 0 0.167794 0 0)
(4.7187 0.848594 0 0.251916 0 0)
(3.44739 1.15548 0 0.440773 0 0)
(2.23785 1.11681 0 0.58573 0 0)
(1.32315 0.876513 0 0.598647 0 0)
(0.753729 0.616612 0 0.519283 0 0)
(0.421679 0.403177 0 0.400413 0 0)
(0.238653 0.250708 0 0.279483 0 0)
(0.144571 0.15784 0 0.189016 0 0)
(0.0959257 0.106658 0 0.135632 0 0)
(0.0682958 0.077048 0 0.10421 0 0)
(0.0505332 0.0567653 0 0.0809604 0 0)
(0.0382003 0.0410088 0 0.0605829 0 0)
(0.0295091 0.0286534 0 0.0429551 0 0)
(0.0237804 0.0196164 0 0.0289444 0 0)
(0.0200754 0.0133558 0 0.0189071 0 0)
(0.0180657 0.00936598 0 0.0120117 0 0)
(0.0166682 0.00666622 0 0.00774242 0 0)
(0.0163237 0.0050905 0 0.00475434 0 0)
(0.0155051 0.00379872 0 0.00329807 0 0)
(0.0161689 0.00313773 0 0.00177166 0 0)
(0.0148615 0.00240114 0 0.00170447 0 0)
(0.0171628 0.00186584 0 0.000460302 0 0)
(0.0140492 0.00159672 0 0.00152254 0 0)
(0.0205164 -8.57541e-05 0 0.00016947 0 0)
(0.0132697 0.000438274 0 0.00317652 0 0)
(0.0305987 -0.00609369 0 0.00260609 0 0)
(0.0147451 -0.00416628 0 0.0106201 0 0)
(0.0575441 -0.0244078 0 0.0140015 0 0)
(0.022332 -0.0181639 0 0.0332188 0 0)
(0.112703 -0.0641243 0 0.0416681 0 0)
(0.034901 -0.0414744 0 0.0735213 0 0)
(0.190988 -0.118413 0 0.0787897 0 0)
(0.0443215 -0.0611882 0 0.111249 0 0)
(0.269246 -0.166982 0 0.108942 0 0)
(0.0446169 -0.0678376 0 0.133807 0 0)
(0.323523 -0.198705 0 0.128094 0 0)
(0.0411599 -0.0619988 0 0.148797 0 0)
(0.356228 -0.21509 0 0.139692 0 0)
(0.0410661 -0.0482763 0 0.162827 0 0)
(0.387241 -0.223649 0 0.147518 0 0)
(0.0398516 -0.0308022 0 0.178006 0 0)
(0.42241 -0.226812 0 0.153986 0 0)
(0.0407374 -0.0109497 0 0.188072 0 0)
(0.457397 -0.227082 0 0.152129 0 0)
(0.0407259 0.00558904 0 0.188152 0 0)
(0.486821 -0.22548 0 0.139518 0 0)
(0.0439141 0.0207933 0 0.184082 0 0)
(0.513201 -0.212414 0 0.12162 0 0)
(0.0632101 0.0394027 0 0.176659 0 0)
(0.528957 -0.183801 0 0.0982101 0 0)
(0.0942359 0.0535172 0 0.162646 0 0)
(0.529465 -0.13842 0 0.070814 0 0)
(0.129025 0.0613412 0 0.145647 0 0)
(0.496486 -0.0824397 0 0.0486408 0 0)
(0.155506 0.0594163 0 0.123027 0 0)
(0.417283 -0.0242725 0 0.0340022 0 0)
(0.142255 0.0440169 0 0.095455 0 0)
(0.278265 0.0134671 0 0.0278522 0 0)
(0.0877833 0.0237709 0 0.0682322 0 0)
(0.113222 0.018414 0 0.023808 0 0)
(0.0310502 0.00532087 0 0.046666 0 0)
(0.0323398 0.0170204 0 0.024274 0 0)
(0.00891601 -0.00241903 0 0.0360602 0 0)
(0.038825 0.0122768 0 0.0323426 0 0)
(0.0602851 -0.00818102 0 0.0340758 0 0)
(0.150868 -0.00554374 0 0.0157274 0 0)
(0.0957371 -0.0404005 0 0.0390372 0 0)
(0.134523 0.0137468 0 0.0472544 0 0)
(0.132881 -0.0794336 0 0.0856823 0 0)
(0.24863 -0.0850367 0 0.0559698 0 0)
(0.362196 -0.142525 0 0.153382 0 0)
(4.43516 -2.2942 0 2.60886 0 0)
(4.48113 -2.79217 0 3.96277 0 0)
(3.67479 -1.81836 0 4.58077 0 0)
(4.12622 -1.27972 0 4.7749 0 0)
(4.41749 -0.971203 0 4.64234 0 0)
(4.72177 -0.892415 0 4.54557 0 0)
(5.12762 -0.93109 0 4.4206 0 0)
(5.4136 -0.957602 0 4.27738 0 0)
(5.58443 -0.881245 0 3.96366 0 0)
(5.82389 -0.70658 0 3.34022 0 0)
(6.58152 -0.828853 0 2.68122 0 0)
(7.84034 -1.44232 0 2.27543 0 0)
(9.24863 -2.38219 0 2.12131 0 0)
(10.5822 -3.51164 0 2.19432 0 0)
(11.8543 -4.74129 0 2.51702 0 0)
(12.9516 -5.95294 0 3.07694 0 0)
(13.4236 -6.89775 0 3.71756 0 0)
(13.3382 -7.43827 0 4.23873 0 0)
(12.8066 -7.53406 0 4.51427 0 0)
(11.7777 -7.10322 0 4.44518 0 0)
(11.2356 -6.67084 0 4.23379 0 0)
(11.2862 -6.44508 0 4.0764 0 0)
(11.3555 -6.0444 0 3.73316 0 0)
(10.9885 -5.19967 0 3.06004 0 0)
(10.1344 -3.98916 0 2.1767 0 0)
(9.00452 -2.66925 0 1.35027 0 0)
(7.79136 -1.41846 0 0.720345 0 0)
(6.50679 -0.318499 0 0.354613 0 0)
(5.21981 0.512942 0 0.28543 0 0)
(4.0624 1.04761 0 0.420981 0 0)
(2.97259 1.29542 0 0.650332 0 0)
(1.92713 1.21864 0 0.818928 0 0)
(1.11495 0.932783 0 0.812838 0 0)
(0.609245 0.632744 0 0.684655 0 0)
(0.324608 0.397074 0 0.513675 0 0)
(0.174437 0.235124 0 0.34732 0 0)
(0.0995114 0.138796 0 0.224932 0 0)
(0.062229 0.0874229 0 0.154289 0 0)
(0.0429001 0.0599471 0 0.114901 0 0)
(0.0320714 0.0431345 0 0.0879386 0 0)
(0.0254779 0.0311886 0 0.0655247 0 0)
(0.0212004 0.0221739 0 0.0464604 0 0)
(0.0185355 0.0156425 0 0.0312964 0 0)
(0.0168132 0.011009 0 0.0203652 0 0)
(0.0159787 0.0080387 0 0.0128509 0 0)
(0.0152992 0.00587206 0 0.00818937 0 0)
(0.015365 0.00466707 0 0.00498042 0 0)
(0.0148024 0.00347895 0 0.00339775 0 0)
(0.0156854 0.00301558 0 0.00181476 0 0)
(0.0144041 0.0021956 0 0.00170762 0 0)
(0.0170903 0.00185229 0 0.000458441 0 0)
(0.0137009 0.00132822 0 0.00149328 0 0)
(0.021422 -0.000201036 0 0.000179276 0 0)
(0.0133926 -0.000264029 0 0.00310924 0 0)
(0.0348263 -0.00720663 0 0.00284722 0 0)
(0.0173925 -0.00665345 0 0.0105494 0 0)
(0.0715399 -0.0296378 0 0.0156278 0 0)
(0.0319012 -0.0258061 0 0.0340574 0 0)
(0.144242 -0.07882 0 0.0479651 0 0)
(0.0520268 -0.0564032 0 0.0783874 0 0)
(0.229304 -0.141647 0 0.0933889 0 0)
(0.0604897 -0.0770776 0 0.122445 0 0)
(0.280781 -0.187062 0 0.13369 0 0)
(0.0604141 -0.076453 0 0.152283 0 0)
(0.302954 -0.204909 0 0.163809 0 0)
(0.0727739 -0.0616411 0 0.175094 0 0)
(0.332202 -0.208567 0 0.183607 0 0)
(0.0876095 -0.0447507 0 0.196037 0 0)
(0.368056 -0.214709 0 0.19726 0 0)
(0.0902256 -0.0310363 0 0.218671 0 0)
(0.405749 -0.226457 0 0.211317 0 0)
(0.0884997 -0.0167655 0 0.23678 0 0)
(0.450453 -0.242146 0 0.216965 0 0)
(0.0842705 -0.00255355 0 0.242634 0 0)
(0.505327 -0.26039 0 0.21172 0 0)
(0.0751325 0.0135241 0 0.245671 0 0)
(0.566041 -0.276299 0 0.204176 0 0)
(0.0751702 0.0381993 0 0.246122 0 0)
(0.629214 -0.279731 0 0.186784 0 0)
(0.0936803 0.0649795 0 0.233947 0 0)
(0.691111 -0.266203 0 0.155015 0 0)
(0.13958 0.0915619 0 0.21781 0 0)
(0.738099 -0.228288 0 0.119533 0 0)
(0.222073 0.114396 0 0.197149 0 0)
(0.748457 -0.16015 0 0.0818511 0 0)
(0.311613 0.120043 0 0.170852 0 0)
(0.674087 -0.0769182 0 0.0574156 0 0)
(0.340576 0.098004 0 0.138826 0 0)
(0.468252 -0.0113175 0 0.0488406 0 0)
(0.234011 0.0393211 0 0.0993164 0 0)
(0.213035 0.00146344 0 0.0453538 0 0)
(0.0771083 -0.0168277 0 0.0706325 0 0)
(0.100744 -0.00126055 0 0.0482704 0 0)
(0.0457324 -0.0276559 0 0.0779929 0 0)
(0.0844825 -0.0362264 0 0.0461658 0 0)
(0.155221 -0.0469463 0 0.0722216 0 0)
(0.238831 -0.0116277 0 0.0504434 0 0)
(0.23769 -0.10688 0 0.0992958 0 0)
(0.342652 -0.0964008 0 0.0719199 0 0)
(0.35971 -0.208413 0 0.230186 0 0)
(1.76591 -0.641084 0 2.1895 0 0)
(3.28191 -0.943308 0 3.28603 0 0)
(3.27119 -0.698792 0 3.69103 0 0)
(3.54498 -0.261091 0 3.87584 0 0)
(4.05539 0.114033 0 3.81751 0 0)
(4.69743 0.248154 0 3.69247 0 0)
(5.31674 0.208818 0 3.56993 0 0)
(5.88835 0.17303 0 3.38205 0 0)
(6.63315 0.109822 0 3.04321 0 0)
(7.81133 -0.12723 0 2.50965 0 0)
(9.27522 -0.778105 0 2.05984 0 0)
(10.7174 -1.73932 0 1.85625 0 0)
(12.0159 -2.83326 0 1.85253 0 0)
(13.1718 -4.04331 0 2.04838 0 0)
(14.091 -5.28995 0 2.45565 0 0)
(14.4985 -6.37403 0 3.04158 0 0)
(14.208 -7.08542 0 3.64015 0 0)
(13.5298 -7.39994 0 4.10134 0 0)
(12.5673 -7.27531 0 4.31478 0 0)
(11.6642 -6.88102 0 4.3079 0 0)
(11.6184 -6.75581 0 4.33559 0 0)
(11.75 -6.61096 0 4.31072 0 0)
(11.3376 -5.91634 0 3.84845 0 0)
(10.3271 -4.72011 0 3.03057 0 0)
(9.0382 -3.34556 0 2.11417 0 0)
(7.72763 -2.03602 0 1.33286 0 0)
(6.4888 -0.886133 0 0.765583 0 0)
(5.27173 0.0685566 0 0.463082 0 0)
(4.13685 0.746964 0 0.450599 0 0)
(3.17421 1.15538 0 0.626206 0 0)
(2.31932 1.32523 0 0.881611 0 0)
(1.50926 1.21976 0 1.06396 0 0)
(0.855714 0.915244 0 1.03806 0 0)
(0.440377 0.593381 0 0.854634 0 0)
(0.217104 0.349568 0 0.622405 0 0)
(0.109686 0.194475 0 0.411001 0 0)
(0.0599223 0.107568 0 0.261749 0 0)
(0.0361342 0.062591 0 0.176003 0 0)
(0.02452 0.0396526 0 0.12808 0 0)
(0.0188934 0.0270452 0 0.0961043 0 0)
(0.0162229 0.0192909 0 0.0705446 0 0)
(0.014934 0.0140556 0 0.0494069 0 0)
(0.0143808 0.0105106 0 0.032892 0 0)
(0.014101 0.0079174 0 0.0211208 0 0)
(0.0141418 0.00625846 0 0.0131547 0 0)
(0.0140584 0.00480861 0 0.00825023 0 0)
(0.0144493 0.00408096 0 0.00497429 0 0)
(0.0141411 0.00305651 0 0.003326 0 0)
(0.0152024 0.00283611 0 0.00179392 0 0)
(0.0139775 0.00193673 0 0.00161544 0 0)
(0.0170422 0.00185532 0 0.000464225 0 0)
(0.0134302 0.00101046 0 0.00133883 0 0)
(0.0226064 -0.000145479 0 0.000151598 0 0)
(0.014031 -0.0010272 0 0.00267707 0 0)
(0.0405786 -0.00775372 0 0.00257645 0 0)
(0.0229223 -0.00939863 0 0.0092708 0 0)
(0.0907282 -0.0337316 0 0.0152754 0 0)
(0.0512745 -0.0356138 0 0.0326407 0 0)
(0.185929 -0.0934791 0 0.0519183 0 0)
(0.0871368 -0.0794796 0 0.0855952 0 0)
(0.279578 -0.169962 0 0.114053 0 0)
(0.0986472 -0.105629 0 0.15129 0 0)
(0.317558 -0.215442 0 0.181291 0 0)
(0.106671 -0.0957724 0 0.203528 0 0)
(0.338943 -0.221512 0 0.233384 0 0)
(0.132095 -0.0737094 0 0.239492 0 0)
(0.366927 -0.224144 0 0.262472 0 0)
(0.14784 -0.0619022 0 0.265831 0 0)
(0.396883 -0.241642 0 0.279826 0 0)
(0.149467 -0.0617986 0 0.293481 0 0)
(0.442122 -0.273553 0 0.298864 0 0)
(0.147237 -0.0628242 0 0.319086 0 0)
(0.49676 -0.306798 0 0.309991 0 0)
(0.143985 -0.0607439 0 0.33118 0 0)
(0.567257 -0.338806 0 0.308224 0 0)
(0.135712 -0.0576685 0 0.343155 0 0)
(0.654752 -0.377796 0 0.309493 0 0)
(0.128007 -0.0428345 0 0.354262 0 0)
(0.753378 -0.412078 0 0.301179 0 0)
(0.116613 -0.0223854 0 0.349512 0 0)
(0.887334 -0.439672 0 0.277759 0 0)
(0.107936 0.00690796 0 0.336576 0 0)
(1.05164 -0.453975 0 0.245781 0 0)
(0.128775 0.0440019 0 0.311053 0 0)
(1.25044 -0.430556 0 0.195249 0 0)
(0.199957 0.0782785 0 0.273208 0 0)
(1.44382 -0.349753 0 0.138653 0 0)
(0.325675 0.103419 0 0.233706 0 0)
(1.49515 -0.196862 0 0.0934202 0 0)
(0.405145 0.09764 0 0.191989 0 0)
(1.15284 -0.0424533 0 0.0776514 0 0)
(0.257273 0.0338117 0 0.145082 0 0)
(0.401673 -0.0260006 0 0.0762324 0 0)
(0.121402 -0.0281265 0 0.11627 0 0)
(0.169158 0.0143636 0 0.164572 0 0)
(0.121117 -0.0561952 0 0.135135 0 0)
(0.384864 -0.158756 0 0.117824 0 0)
(0.502453 -0.252701 0 0.190786 0 0)
(0.513136 -0.192099 0 0.130639 0 0)
(0.243127 -0.194838 0 0.331164 0 0)
(0.672837 0.242377 0 1.12063 0 0)
(1.64087 0.180173 0 1.86576 0 0)
(2.7494 0.217933 0 2.3914 0 0)
(3.46769 0.49019 0 2.76874 0 0)
(4.21445 0.834872 0 2.95147 0 0)
(5.14143 1.03723 0 2.94392 0 0)
(6.16992 1.10069 0 2.77123 0 0)
(7.37327 1.039 0 2.50113 0 0)
(8.81495 0.715316 0 2.18821 0 0)
(10.3963 0.0873633 0 1.82115 0 0)
(11.8409 -0.847702 0 1.56765 0 0)
(13.0764 -1.93577 0 1.50658 0 0)
(14.1131 -3.08684 0 1.6108 0 0)
(14.9161 -4.31804 0 1.88533 0 0)
(15.316 -5.5084 0 2.33424 0 0)
(15.0619 -6.44796 0 2.91967 0 0)
(14.2321 -6.99755 0 3.50019 0 0)
(13.2376 -7.17313 0 3.94794 0 0)
(12.23 -7.00319 0 4.19199 0 0)
(11.8029 -6.85284 0 4.36447 0 0)
(11.9915 -6.90009 0 4.56921 0 0)
(11.5462 -6.42167 0 4.43381 0 0)
(10.3467 -5.25433 0 3.74304 0 0)
(8.81039 -3.82707 0 2.86557 0 0)
(7.33332 -2.47929 0 2.03162 0 0)
(6.04567 -1.31959 0 1.34573 0 0)
(4.91561 -0.370095 0 0.853358 0 0)
(3.86764 0.375789 0 0.611703 0 0)
(2.94457 0.872879 0 0.646979 0 0)
(2.19943 1.14385 0 0.853776 0 0)
(1.57776 1.22755 0 1.12548 0 0)
(1.02167 1.10338 0 1.31383 0 0)
(0.571478 0.815485 0 1.27088 0 0)
(0.283645 0.50959 0 1.03268 0 0)
(0.131433 0.278904 0 0.733009 0 0)
(0.0599961 0.135036 0 0.468641 0 0)
(0.0295412 0.0588048 0 0.288041 0 0)
(0.0175701 0.0241007 0 0.186871 0 0)
(0.0132152 0.0100808 0 0.132048 0 0)
(0.0118242 0.00506847 0 0.097166 0 0)
(0.0115392 0.00379616 0 0.0705635 0 0)
(0.011655 0.00381032 0 0.0492027 0 0)
(0.0119471 0.00416607 0 0.0327591 0 0)
(0.0122979 0.00417835 0 0.0210704 0 0)
(0.0127334 0.00415501 0 0.0131749 0 0)
(0.013036 0.00361056 0 0.0082528 0 0)
(0.0136158 0.0034469 0 0.00500634 0 0)
(0.0135569 0.00263272 0 0.00328664 0 0)
(0.0147182 0.00266689 0 0.00181904 0 0)
(0.0136218 0.00169825 0 0.00152294 0 0)
(0.0169047 0.00189155 0 0.000497312 0 0)
(0.0132668 0.000765513 0 0.00114099 0 0)
(0.0233064 0.000106463 0 0.000109313 0 0)
(0.0146649 -0.00135169 0 0.00209016 0 0)
(0.043749 -0.00718462 0 0.00203181 0 0)
(0.0267593 -0.00995565 0 0.0073901 0 0)
(0.0987086 -0.0333125 0 0.0137658 0 0)
(0.0616824 -0.0377566 0 0.029052 0 0)
(0.195662 -0.0959026 0 0.0534505 0 0)
(0.100459 -0.0849701 0 0.0876341 0 0)
(0.276712 -0.174571 0 0.131728 0 0)
(0.109745 -0.105534 0 0.171226 0 0)
(0.302208 -0.209811 0 0.22218 0 0)
(0.127533 -0.0822501 0 0.239618 0 0)
(0.324811 -0.207002 0 0.288266 0 0)
(0.156102 -0.0565239 0 0.282888 0 0)
(0.346013 -0.214791 0 0.324152 0 0)
(0.165805 -0.0491203 0 0.312883 0 0)
(0.369872 -0.239569 0 0.349247 0 0)
(0.167806 -0.0502194 0 0.346147 0 0)
(0.401147 -0.270077 0 0.382893 0 0)
(0.17168 -0.0470737 0 0.382014 0 0)
(0.438763 -0.296386 0 0.409705 0 0)
(0.176179 -0.0456356 0 0.398381 0 0)
(0.485197 -0.330201 0 0.414689 0 0)
(0.173153 -0.0482746 0 0.413526 0 0)
(0.548339 -0.368334 0 0.426814 0 0)
(0.172932 -0.0407744 0 0.435001 0 0)
(0.634952 -0.410081 0 0.427863 0 0)
(0.168582 -0.0361646 0 0.435196 0 0)
(0.748859 -0.465931 0 0.412532 0 0)
(0.160146 -0.023056 0 0.435624 0 0)
(0.914096 -0.526622 0 0.40109 0 0)
(0.154729 0.00660138 0 0.421967 0 0)
(1.16837 -0.591255 0 0.371093 0 0)
(0.162804 0.0493149 0 0.388534 0 0)
(1.56453 -0.650313 0 0.332281 0 0)
(0.248199 0.107434 0 0.341941 0 0)
(2.15601 -0.653235 0 0.264767 0 0)
(0.478574 0.154576 0 0.289629 0 0)
(2.79458 -0.525508 0 0.191636 0 0)
(0.772229 0.156982 0 0.24757 0 0)
(2.76577 -0.284034 0 0.154231 0 0)
(0.565042 0.0538455 0 0.221461 0 0)
(1.52615 -0.262792 0 0.152052 0 0)
(0.24721 -0.164986 0 0.200355 0 0)
(1.39152 -0.361452 0 0.153635 0 0)
(0.677965 -0.255532 0 0.278421 0 0)
(0.507387 -0.221067 0 0.250595 0 0)
(0.18547 -0.167514 0 0.43274 0 0)
(0.776433 0.651182 0 0.856971 0 0)
(1.57115 1.04703 0 1.64815 0 0)
(3.06038 1.36336 0 2.11768 0 0)
(4.5133 1.51305 0 2.32757 0 0)
(5.67778 1.6596 0 2.41655 0 0)
(6.7805 1.77041 0 2.33105 0 0)
(7.98626 1.74262 0 2.08227 0 0)
(9.32214 1.47608 0 1.81489 0 0)
(10.7213 0.906146 0 1.59106 0 0)
(12.1136 0.100964 0 1.36123 0 0)
(13.3517 -0.921589 0 1.22894 0 0)
(14.3995 -2.02956 0 1.24731 0 0)
(15.1562 -3.19264 0 1.41445 0 0)
(15.5334 -4.40556 0 1.73644 0 0)
(15.4093 -5.5046 0 2.21772 0 0)
(14.6334 -6.30117 0 2.81437 0 0)
(13.5776 -6.72793 0 3.39317 0 0)
(12.6475 -6.84738 0 3.83749 0 0)
(12.0369 -6.80749 0 4.16242 0 0)
(11.9756 -6.86104 0 4.48934 0 0)
(11.6648 -6.66182 0 4.65145 0 0)
(10.2036 -5.57514 0 4.25625 0 0)
(8.42176 -4.08647 0 3.43852 0 0)
(6.74363 -2.6965 0 2.67372 0 0)
(5.37191 -1.5548 0 1.9938 0 0)
(4.2688 -0.644957 0 1.42334 0 0)
(3.3321 0.0559474 0 0.997752 0 0)
(2.51167 0.568129 0 0.797589 0 0)
(1.82247 0.87608 0 0.860165 0 0)
(1.29537 1.00945 0 1.07711 0 0)
(0.874314 1.00635 0 1.35618 0 0)
(0.532554 0.856842 0 1.54777 0 0)
(0.284468 0.604412 0 1.48254 0 0)
(0.134967 0.353527 0 1.19541 0 0)
(0.0601916 0.170418 0 0.842026 0 0)
(0.029896 0.0644726 0 0.535553 0 0)
(0.0196241 0.0143501 0 0.326314 0 0)
(0.0159754 -0.00676087 0 0.207155 0 0)
(0.0145162 -0.0137097 0 0.141633 0 0)
(0.0137633 -0.0133404 0 0.100561 0 0)
(0.0130249 -0.00957536 0 0.070614 0 0)
(0.012314 -0.00516074 0 0.0477571 0 0)
(0.0118414 -0.00146068 0 0.0309591 0 0)
(0.0117866 0.000776962 0 0.0194472 0 0)
(0.012004 0.00212837 0 0.0119599 0 0)
(0.0123594 0.00237013 0 0.00737189 0 0)
(0.0129377 0.00269586 0 0.00448273 0 0)
(0.0130526 0.00211504 0 0.00288257 0 0)
(0.0142516 0.00239467 0 0.00167157 0 0)
(0.0132946 0.00140692 0 0.00128561 0 0)
(0.0168161 0.00190453 0 0.000515202 0 0)
(0.0131925 0.000512654 0 0.000857873 0 0)
(0.0244025 0.000506158 0 8.36608e-05 0 0)
(0.0158793 -0.00158801 0 0.00141306 0 0)
(0.0485344 -0.0060884 0 0.0013487 0 0)
(0.0331101 -0.0103295 0 0.00538944 0 0)
(0.110977 -0.0319737 0 0.0115213 0 0)
(0.078945 -0.0407515 0 0.0256076 0 0)
(0.214984 -0.0988678 0 0.05436 0 0)
(0.127911 -0.0970509 0 0.0944728 0 0)
(0.295016 -0.185718 0 0.155601 0 0)
(0.141354 -0.120976 0 0.211281 0 0)
(0.320417 -0.217211 0 0.278999 0 0)
(0.16809 -0.0896177 0 0.307946 0 0)
(0.351063 -0.208991 0 0.362064 0 0)
(0.200169 -0.0655394 0 0.360578 0 0)
(0.376956 -0.219954 0 0.40692 0 0)
(0.209502 -0.0665745 0 0.39659 0 0)
(0.403028 -0.248694 0 0.446348 0 0)
(0.214992 -0.0711911 0 0.443091 0 0)
(0.432265 -0.275256 0 0.501311 0 0)
(0.225991 -0.066515 0 0.493234 0 0)
(0.468837 -0.300425 0 0.544103 0 0)
(0.233379 -0.0709522 0 0.518844 0 0)
(0.5139 -0.338979 0 0.560917 0 0)
(0.235571 -0.0814316 0 0.544044 0 0)
(0.567391 -0.384335 0 0.587648 0 0)
(0.242554 -0.0843123 0 0.573212 0 0)
(0.637403 -0.431713 0 0.594156 0 0)
(0.245197 -0.0981156 0 0.574549 0 0)
(0.737679 -0.49515 0 0.580529 0 0)
(0.246529 -0.112316 0 0.580702 0 0)
(0.871982 -0.567375 0 0.566393 0 0)
(0.251721 -0.124724 0 0.574944 0 0)
(1.08247 -0.658412 0 0.530365 0 0)
(0.257752 -0.138564 0 0.558599 0 0)
(1.42864 -0.775117 0 0.495512 0 0)
(0.268747 -0.140738 0 0.519701 0 0)
(2.07432 -0.927081 0 0.451183 0 0)
(0.302638 -0.126538 0 0.447985 0 0)
(3.30737 -1.08095 0 0.392563 0 0)
(0.497636 -0.0911716 0 0.369471 0 0)
(5.3199 -1.06948 0 0.309281 0 0)
(1.03692 -0.0916659 0 0.312857 0 0)
(6.77589 -0.781758 0 0.274201 0 0)
(1.06746 -0.143772 0 0.307853 0 0)
(4.58034 -0.484049 0 0.33543 0 0)