/*--------------------------------*- C++ -*----------------------------------*\
| =========                 |                                                 |
| \\      /  F ield         | OpenFOAM: The Open Source CFD Toolbox           |
|  \\    /   O peration     | Version:  2.4.0                                 |
|   \\  /    A nd           | Web:      www.OpenFOAM.org                      |
|    \\/     M anipulation  |                                                 |
\*---------------------------------------------------------------------------*/
FoamFile
{
    version     2.0;
    format      ascii;
    class       volScalarField;
    location    "0.006";
    object      p;
}
// * * * * * * * * * * * * * * * * * * * * * * * * * * * * * * * * * * * * * //

dimensions      [0 2 -2 0 0 0 0];

internalField   nonuniform List<scalar> 
4400
(
126.102
104.012
96.883
95.7464
94.0619
90.8092
87.2229
83.406
77.345
64.6888
124.198
104.1
96.9208
95.75
94.069
90.8138
87.2311
83.4293
77.2998
67.8695
123.053
104.417
97.0446
95.7916
94.0875
90.8202
87.2492
83.3794
77.9793
71.0384
122.359
104.755
97.1942
95.854
94.118
90.8397
87.2598
83.6419
78.6584
73.8278
121.781
105.047
97.3395
95.9223
94.1514
90.8592
87.302
83.7369
79.6431
75.9185
121.289
105.28
97.4613
95.9795
94.1791
90.8944
87.3435
83.9535
80.435
77.6206
120.891
105.457
97.5578
96.0238
94.205
90.9154
87.398
84.2418
80.9649
79.1028
120.592
105.585
97.6302
96.0578
94.2238
90.9449
87.4813
84.3534
81.7915
80.5681
120.393
105.668
97.6789
96.0803
94.24
90.9744
87.549
84.6584
82.2445
81.5552
120.294
105.71
97.7035
96.0928
94.2516
91.0008
87.6451
84.822
82.79
82.6173
120.294
105.71
97.7039
96.0951
94.2586
91.031
87.7263
85.0313
83.2742
83.3331
120.393
105.669
97.68
96.0874
94.2613
91.0593
87.8111
85.2196
83.669
84.0178
120.593
105.586
97.6321
96.0696
94.259
91.0878
87.8922
85.3907
84.0237
84.5739
120.891
105.459
97.5603
96.0414
94.2515
91.116
87.9689
85.5484
84.3178
84.9958
121.289
105.283
97.4647
96.0022
94.2383
91.1437
88.0402
85.69
84.5564
85.3102
121.782
105.05
97.3436
95.9515
94.2197
91.171
88.1057
85.8175
84.7411
85.5185
122.36
104.759
97.1992
95.8892
94.1962
91.1968
88.1638
85.9305
84.8778
85.6288
123.055
104.421
97.051
95.8312
94.1754
91.2181
88.209
86.0186
84.9684
85.6755
124.199
104.104
96.9279
95.7925
94.1636
91.2314
88.2345
86.0685
85.0093
85.7477
126.103
104.017
96.8906
95.7899
94.1592
91.23
88.2426
86.0841
85.0202
85.9632
70.2662
67.1311
78.6656
91.0251
98.0903
102.106
104.787
106.442
107.407
107.984
108.32
108.488
108.546
108.536
108.483
108.401
108.3
108.185
108.062
107.933
107.799
107.663
107.524
107.384
107.243
107.1
106.958
106.815
106.671
106.527
106.384
106.239
106.095
105.951
105.807
105.662
105.518
105.373
105.229
105.084
104.94
104.795
104.651
104.506
104.362
104.217
104.072
103.928
103.783
103.638
103.494
103.349
103.205
103.06
102.915
102.771
102.626
102.481
102.336
102.192
102.047
101.902
101.757
101.612
101.468
101.323
101.178
101.032
100.887
100.742
100.596
100.45
100.304
100.158
100.011
99.8632
99.7149
99.5656
99.4148
99.2622
99.107
98.9484
98.7848
98.6143
98.4344
98.2396
98.0279
97.7785
97.511
97.1302
96.8218
96.1711
96.1916
95.041
96.3518
93.8046
95.0965
87.0522
85.021
53.7354
71.6098
72.2193
80.0043
90.2567
97.5081
101.908
104.727
106.347
107.234
107.773
108.115
108.31
108.396
108.41
108.377
108.313
108.226
108.124
108.011
107.89
107.763
107.633
107.499
107.363
107.225
107.086
106.946
106.804
106.663
106.52
106.378
106.235
106.091
105.948
105.804
105.66
105.516
105.372
105.228
105.083
104.939
104.795
104.65
104.506
104.361
104.216
104.072
103.927
103.783
103.638
103.493
103.349
103.204
103.059
102.915
102.77
102.625
102.48
102.335
102.19
102.045
101.9
101.755
101.61
101.464
101.319
101.173
101.027
100.88
100.733
100.586
100.438
100.289
100.139
99.9885
99.8362
99.6821
99.5257
99.3665
99.2035
99.0358
98.8618
98.6795
98.4861
98.2783
98.0484
97.7942
97.4871
97.1552
96.6554
96.2614
95.2777
95.4045
93.3721
95.6008
91.5548
94.1486
83.3592
80.4077
46.6924
75.4472
77.3265
83.0573
90.3505
96.4258
100.756
103.886
105.924
106.997
107.566
107.918
108.135
108.248
108.285
108.273
108.225
108.153
108.063
107.96
107.847
107.728
107.603
107.474
107.342
107.208
107.071
106.934
106.794
106.654
106.513
106.372
106.23
106.087
105.944
105.801
105.658
105.514
105.37
105.226
105.082
104.938
104.794
104.649
104.505
104.361
104.216
104.072
103.927
103.782
103.638
103.493
103.348
103.204
103.059
102.914
102.769
102.624
102.479
102.334
102.189
102.044
101.899
101.753
101.607
101.461
101.315
101.168
101.021
100.873
100.725
100.576
100.425
100.274
100.121
99.9664
99.8094
99.6496
99.4863
99.3186
99.1454
98.9652
98.776
98.5753
98.3593
98.1238
97.8594
97.5635
97.1996
96.8059
96.1875
95.706
94.3435
94.5263
91.4091
95.0398
89.2746
92.5866
79.8186
75.3874
44.9192
77.6815
79.3366
85.3442
92.4221
97.4552
100.558
103.14
105.274
106.616
107.319
107.716
107.962
108.102
108.163
108.169
108.139
108.08
108.002
107.909
107.805
107.693
107.574
107.45
107.322
107.191
107.057
106.922
106.785
106.646
106.507
106.366
106.225
106.083
105.941
105.798
105.655
105.512
105.369
105.225
105.081
104.937
104.793
104.649
104.504
104.36
104.216
104.071
103.927
103.782
103.637
103.493
103.348
103.203
103.058
102.914
102.769
102.624
102.479
102.333
102.188
102.042
101.897
101.751
101.605
101.458
101.311
101.163
101.015
100.866
100.717
100.566
100.413
100.259
100.103
99.9447
99.783
99.6176
99.4475
99.2715
99.0882
98.8958
98.6917
98.4729
98.2347
97.9721
97.6741
97.3377
96.9189
96.4674
95.7367
95.1807
93.4313
93.4495
89.0955
94.0561
86.7569
90.9581
76.3712
69.9203
45.8858
80.451
81.6672
85.415
92.2916
98.746
101.75
103.336
104.99
106.31
107.074
107.513
107.791
107.958
108.042
108.068
108.054
108.01
107.943
107.86
107.764
107.658
107.545
107.426
107.302
107.174
107.043
106.91
106.775
106.638
106.5
106.361
106.22
106.079
105.938
105.796
105.653
105.51
105.367
105.224
105.08
104.936
104.792
104.648
104.504
104.36
104.215
104.071
103.926
103.782
103.637
103.492
103.348
103.203
103.058
102.913
102.768
102.623
102.478
102.332
102.187
102.041
101.895
101.749
101.602
101.455
101.307
101.159
101.01
100.86
100.708
100.556
100.401
100.245
100.086
99.9235
99.7573
99.5863
99.4095
99.2254
99.0323
98.828
98.6094
98.3729
98.1132
97.8244
97.494
97.1183
96.6479
96.1422
95.3131
94.7157
92.6543
92.4665
86.96
91.8558
84.4806
88.5982
72.6203
63.1801
45.6158
82.6057
84.9494
87.0725
91.5691
97.98
101.796
103.41
104.905
106.163
106.897
107.332
107.626
107.817
107.924
107.97
107.971
107.94
107.885
107.811
107.723
107.624
107.517
107.402
107.282
107.158
107.03
106.899
106.765
106.63
106.493
106.355
106.216
106.076
105.935
105.793
105.651
105.508
105.366
105.222
105.079
104.935
104.791
104.647
104.503
104.359
104.215
104.07
103.926
103.781
103.637
103.492
103.347
103.203
103.058
102.913
102.768
102.622
102.477
102.331
102.186
102.04
101.893
101.747
101.6
101.452
101.304
101.155
101.004
100.853
100.701
100.546
100.39
100.231
100.069
99.9028
99.7323
99.556
99.3727
99.1808
98.9781
98.7622
98.5296
98.276
97.9956
97.6815
97.3203
96.9069
96.3895
95.8306
94.9229
94.2988
92.0812
91.8975
85.6271
88.7105
82.4397
84.4328
68.3338
57.1597
43.8305
84.1305
86.7543
88.6282
92.6835
97.9684
101.009
102.706
104.588
106.012
106.761
107.187
107.482
107.687
107.812
107.875
107.892
107.874
107.829
107.765
107.685
107.592
107.49
107.38
107.263
107.142
107.017
106.888
106.756
106.623
106.487
106.35
106.211
106.072
105.932
105.79
105.649
105.507
105.364
105.221
105.078
104.934
104.791
104.647
104.503
104.359
104.214
104.07
103.926
103.781
103.636
103.492
103.347
103.202
103.057
102.912
102.767
102.622
102.476
102.33
102.185
102.038
101.892
101.745
101.597
101.449
101.3
101.15
100.999
100.847
100.693
100.537
100.379
100.217
100.052
99.883
99.7082
99.5268
99.3373
99.1378
98.926
98.6989
98.4528
98.1829
97.8827
97.5444
97.1542
96.7047
96.1461
95.533
94.5691
93.8921
91.6392
91.5665
84.9606
85.4224
78.7184
77.3458
64.818
53.257
43.4301
85.5954
87.1803
88.901
93.1942
98.7471
101.457
102.915
104.355
105.617
106.454
106.971
107.317
107.553
107.702
107.783
107.815
107.809
107.776
107.72
107.647
107.561
107.463
107.358
107.245
107.127
107.004
106.877
106.747
106.615
106.481
106.345
106.207
106.068
105.929
105.788
105.647
105.505
105.363
105.22
105.077
104.934
104.79
104.646
104.502
104.358
104.214
104.07
103.925
103.781
103.636
103.491
103.347
103.202
103.057
102.912
102.766
102.621
102.475
102.33
102.183
102.037
101.89
101.743
101.595
101.446
101.297
101.146
100.994
100.841
100.686
100.528
100.368
100.204
100.037
99.864
99.6852
99.4989
99.3034
99.0967
98.8761
98.6385
98.3796
98.0941
97.7752
97.414
96.997
96.5133
95.9191
95.2511
94.2548
93.478
91.2744
91.1212
84.5726
82.5084
72.6995
68.5439
63.6171
51.558
45.0972
86.5225
89.1078
90.9268
93.9141
97.5756
100.947
102.929
104.403
105.535
106.323
106.835
107.186
107.434
107.599
107.696
107.742
107.748
107.725
107.677
107.611
107.531
107.439
107.337
107.228
107.112
106.992
106.867
106.739
106.608
106.475
106.34
106.203
106.065
105.926
105.786
105.645
105.503
105.361
105.219
105.076
104.933
104.789
104.646
104.502
104.358
104.214
104.069
103.925
103.78
103.636
103.491
103.346
103.201
103.056
102.911
102.766
102.62
102.475
102.329
102.182
102.036
101.889
101.741
101.593
101.444
101.294
101.142
100.99
100.835
100.679
100.52
100.358
100.192
100.022
99.8461
99.6634
99.4724
99.2713
99.0578
98.829
98.5813
98.3103
98.0102
97.6737
97.2912
96.8494
96.334
95.7092
94.9877
93.9802
93.071
90.9973
90.4545
84.3915
80.3415
67.2351
61.6292
63.7568
52.6086
48.0314
87.5059
89.1196
90.9825
94.2841
98.3274
101.287
102.972
104.174
105.243
106.085
106.657
107.045
107.317
107.501
107.614
107.673
107.69
107.676
107.637
107.578
107.503
107.415
107.317
107.211
107.099
106.98
106.858
106.731
106.602
106.47
106.335
106.199
106.062
105.923
105.784
105.643
105.502
105.36
105.218
105.075
104.932
104.789
104.645
104.501
104.357
104.213
104.069
103.925
103.78
103.636
103.491
103.346
103.201
103.056
102.911
102.765
102.62
102.474
102.328
102.182
102.035
101.887
101.739
101.591
101.441
101.291
101.139
100.985
100.83
100.673
100.512
100.349
100.181
100.008
99.8292
99.643
99.4477
99.2413
99.0214
98.7848
98.5278
98.2455
97.9318
97.579
97.1767
96.7122
96.1678
95.5167
94.7456
93.7397
92.6904
90.7989
89.6801
84.4982
79.2931
65.9568
58.086
63.9342
55.4174
50.7619
87.9245
90.2193
92.326
94.8279
97.8812
100.833
102.763
104.034
105.088
105.928
106.517
106.922
107.21
107.409
107.537
107.608
107.636
107.631
107.599
107.546
107.476
107.393
107.299
107.196
107.086
106.97
106.849
106.724
106.596
106.464
106.331
106.196
106.059
105.921
105.782
105.641
105.5
105.359
105.217
105.074
104.931
104.788
104.645
104.501
104.357
104.213
104.069
103.924
103.78
103.635
103.491
103.346
103.201
103.056
102.91
102.765
102.619
102.473
102.327
102.181
102.034
101.886
101.738
101.589
101.439
101.288
101.135
100.981
100.825
100.667
100.505
100.34
100.17
99.9952
99.8136
99.624
99.4247
99.2134
98.9876
98.7439
98.4782
98.1855
97.8592
97.4914
97.0712
96.5861
96.0158
95.3416
94.5268
93.5258
92.3451
90.6387
88.9373
84.883
79.5516
69.9298
59.7498
65.16
57.9469
52.4009
88.5894
90.6408
92.5006
95.0374
98.1868
100.928
102.727
103.929
104.934
105.767
106.378
106.805
107.11
107.324
107.465
107.548
107.586
107.589
107.564
107.516
107.452
107.373
107.282
107.182
107.074
106.96
106.841
106.717
106.59
106.46
106.327
106.193
106.056
105.919
105.78
105.64
105.499
105.358
105.216
105.073
104.931
104.788
104.644
104.501
104.357
104.213
104.068
103.924
103.78
103.635
103.49
103.346
103.201
103.055
102.91
102.765
102.619
102.473
102.327
102.18
102.033
101.885
101.736
101.587
101.437
101.285
101.132
100.978
100.821
100.661
100.499
100.332
100.161
99.9834
99.7993
99.6067
99.4037
99.188
98.9567
98.7065
98.4329
98.1307
97.793
97.4116
96.9752
96.4716
95.8787
95.1839
94.3328
93.3339
92.044
90.4946
88.339
85.4887
80.4202
76.1468
64.9093
67.2435
59.4414
53.3261
88.8983
90.9709
93.0387
95.4488
98.2146
100.736
102.546
103.789
104.795
105.628
106.253
106.699
107.02
107.247
107.399
107.493
107.54
107.55
107.531
107.49
107.429
107.354
107.266
107.169
107.063
106.951
106.833
106.711
106.585
106.455
106.324
106.19
106.054
105.916
105.778
105.638
105.498
105.357
105.215
105.073
104.93
104.787
104.644
104.5
104.356
104.212
104.068
103.924
103.779
103.635
103.49
103.345
103.2
103.055
102.91
102.764
102.618
102.472
102.326
102.179
102.032
101.884
101.735
101.586
101.435
101.283
101.13
100.974
100.817
100.656
100.493
100.325
100.152
99.9728
99.7865
99.5911
99.3848
99.165
98.9289
98.6728
98.3921
98.0814
97.7335
97.34
96.8893
96.3694
95.7571
95.044
94.1644
93.1638
91.7998
90.3787
87.9771
86.1883
81.3824
81.1749
70.238
69.4074
60.4356
54.0919
89.2011
91.2693
93.3285
95.6674
98.2794
100.66
102.43
103.679
104.677
105.505
106.141
106.603
106.937
107.177
107.34
107.443
107.498
107.515
107.502
107.465
107.409
107.337
107.252
107.157
107.053
106.943
106.826
106.705
106.58
106.451
106.32
106.187
106.052
105.915
105.776
105.637
105.497
105.356
105.214
105.072
104.93
104.787
104.643
104.5
104.356
104.212
104.068
103.924
103.779
103.635
103.49
103.345
103.2
103.055
102.91
102.764
102.618
102.472
102.325
102.178
102.031
101.883
101.734
101.584
101.433
101.281
101.127
100.971
100.813
100.652
100.487
100.318
100.144
99.9635
99.7751
99.5773
99.3681
99.1448
98.9044
98.643
98.3561
98.0379
97.6811
97.277
96.8138
96.2797
95.6512
94.9222
94.022
93.0173
91.618
90.2984
87.8528
86.7998
82.3316
84.012
73.9243
71.027
61.6392
54.8861
89.3733
91.4258
93.5539
95.88
98.3343
100.564
102.295
103.562
104.568
105.396
106.04
106.516
106.864
107.115
107.288
107.399
107.461
107.484
107.476
107.444
107.391
107.322
107.24
107.147
107.045
106.936
106.82
106.7
106.576
106.448
106.317
106.184
106.05
105.913
105.775
105.636
105.496
105.355
105.214
105.072
104.929
104.786
104.643
104.5
104.356
104.212
104.068
103.924
103.779
103.635
103.49
103.345
103.2
103.055
102.909
102.764
102.618
102.472
102.325
102.178
102.03
101.882
101.733
101.583
101.432
101.279
101.125
100.969
100.81
100.648
100.483
100.313
100.137
99.9554
99.7653
99.5655
99.3537
99.1273
98.8832
98.6174
98.3252
98.0005
97.636
97.2228
96.7491
96.203
95.5612
94.8188
93.905
92.8959
91.4934
90.2481
87.8907
87.2337
83.1727
85.1753
75.9458
72.1666
63.0594
55.7402
89.4528
91.5044
93.7097
96.0339
98.3639
100.473
102.169
103.456
104.472
105.301
105.953
106.441
106.8
107.061
107.242
107.361
107.429
107.457
107.454
107.425
107.375
107.309
107.229
107.138
107.037
106.929
106.815
106.696
106.572
106.445
106.315
106.182
106.048
105.912
105.774
105.635
105.495
105.354
105.213
105.071
104.929
104.786
104.643
104.499
104.356
104.212
104.068
103.923
103.779
103.634
103.49
103.345
103.2
103.055
102.909
102.763
102.618
102.471
102.325
102.177
102.03
101.881
101.732
101.582
101.431
101.278
101.123
100.967
100.808
100.645
100.479
100.308
100.132
99.9487
99.7572
99.5556
99.3417
99.1128
98.8656
98.5961
98.2993
97.9693
97.5984
97.1777
96.6954
96.1394
95.4872
94.7339
93.8124
92.7997
91.4147
90.2171
88.0014
87.4769
83.8056
85.3648
77.0169
72.8765
64.3866
56.6636
89.4426
91.5211
93.8275
96.1601
98.3805
100.382
102.049
103.355
104.387
105.221
105.878
106.377
106.747
107.015
107.204
107.329
107.402
107.435
107.435
107.41
107.362
107.298
107.22
107.13
107.031
106.924
106.811
106.692
106.569
106.443
106.313
106.181
106.046
105.91
105.773
105.634
105.494
105.354
105.213
105.071
104.928
104.786
104.643
104.499
104.356
104.212
104.068
103.923
103.779
103.634
103.49
103.345
103.2
103.054
102.909
102.763
102.617
102.471
102.324
102.177
102.029
101.881
101.732
101.581
101.43
101.277
101.122
100.965
100.806
100.643
100.476
100.305
100.128
99.9434
99.7507
99.5477
99.3321
99.1012
98.8515
98.579
98.2787
97.9444
97.5684
97.1418
96.6526
96.0888
95.4287
94.667
93.742
92.727
91.3685
90.1973
88.12
87.5692
84.199
85.0576
77.5934
73.2101
65.4457
57.6475
89.3831
91.4915
93.9079
96.2504
98.3908
100.307
101.949
103.271
104.318
105.157
105.82
106.328
106.706
106.981
107.175
107.304
107.382
107.418
107.421
107.398
107.353
107.29
107.213
107.125
107.026
106.92
106.808
106.69
106.567
106.441
106.311
106.179
106.045
105.91
105.772
105.634
105.494
105.354
105.212
105.071
104.928
104.786
104.642
104.499
104.355
104.212
104.067
103.923
103.779
103.634
103.489
103.345
103.2
103.054
102.909
102.763
102.617
102.471
102.324
102.177
102.029
101.881
101.731
101.581
101.429
101.276
101.121
100.964
100.804
100.641
100.474
100.302
100.124
99.9393
99.7458
99.5417
99.3248
99.0923
98.8408
98.5661
98.263
97.9254
97.5456
97.1144
96.62
96.0503
95.3843
94.6164
93.6901
92.6742
91.3417
90.1823
88.2106
87.5592
84.3833
84.5524
77.8708
73.2954
66.1992
58.5939
89.4824
91.5974
93.9936
96.3181
98.3982
100.252
101.873
103.208
104.27
105.115
105.783
106.296
106.68
106.959
107.157
107.289
107.369
107.407
107.412
107.39
107.346
107.285
107.209
107.121
107.023
106.918
106.806
106.688
106.566
106.44
106.31
106.179
106.045
105.909
105.772
105.633
105.494
105.353
105.212
105.07
104.928
104.785
104.642
104.499
104.355
104.211
104.067
103.923
103.779
103.634
103.489
103.345
103.199
103.054
102.909
102.763
102.617
102.471
102.324
102.177
102.029
101.88
101.731
101.58
101.429
101.275
101.12
100.963
100.803
100.64
100.472
100.3
100.122
99.9365
99.7424
99.5376
99.3199
99.0863
98.8335
98.5572
98.2522
97.9124
97.5298
97.0955
96.5974
96.0236
95.3536
94.5813
93.6549
92.6378
91.3261
90.167
88.264
87.4901
84.4175
84.0289
77.9976
73.2237
66.6514
59.3166
89.798
91.7868
94.0682
96.3524
98.4163
100.255
101.864
103.198
104.262
105.107
105.775
106.289
106.674
106.954
107.152
107.285
107.365
107.404
107.409
107.388
107.344
107.283
107.207
107.12
107.022
106.917
106.805
106.687
106.565
106.439
106.31
106.178
106.045
105.909
105.772
105.633
105.494
105.353
105.212
105.07
104.928
104.785
104.642
104.499
104.355
104.211
104.067
103.923
103.779
103.634
103.489
103.345
103.199
103.054
102.909
102.763
102.617
102.471
102.324
102.177
102.029
101.88
101.731
101.58
101.428
101.275
101.12
100.963
100.802
100.639
100.471
100.299
100.121
99.935
99.7406
99.5354
99.3172
99.0831
98.8296
98.5524
98.2465
97.9054
97.5214
97.0853
96.5853
96.009
95.3372
94.5615
93.6368
92.6136
91.3223
90.139
88.3025
87.3935
84.4218
83.6765
77.9637
73.156
66.7731
59.4107
98.8145
99.7388
101.518
103.978
106.164
108.019
109.399
110.291
110.771
110.942
110.901
110.727
110.477
110.19
109.89
109.592
109.304
109.029
108.77
108.525
108.294
108.076
107.869
107.671
107.482
107.3
107.124
106.953
106.786
106.623
106.463
106.306
106.15
105.997
105.845
105.694
105.544
105.395
105.247
105.1
104.953
104.806
104.66
104.514
104.368
104.223
104.078
103.933
103.788
103.643
103.498
103.354
103.21
103.066
102.922
102.779
102.635
102.493
102.35
102.208
102.067
101.926
101.786
101.647
101.51
101.374
101.24
101.108
100.979
100.853
100.731
100.613
100.502
100.398
100.302
100.216
100.143
100.085
100.045
100.026
100.034
100.072
100.148
100.267
100.438
100.669
100.971
101.351
101.82
102.386
103.054
103.823
104.687
105.629
106.619
107.617
108.566
109.403
110.05
110.412
98.6544
99.5907
101.409
103.935
106.142
108.014
109.399
110.289
110.765
110.931
110.888
110.713
110.464
110.178
109.879
109.583
109.296
109.023
108.765
108.521
108.291
108.073
107.867
107.67
107.481
107.299
107.123
106.952
106.786
106.623
106.463
106.305
106.15
105.997
105.845
105.694
105.544
105.395
105.247
105.1
104.953
104.806
104.66
104.514
104.368
104.223
104.078
103.933
103.788
103.643
103.498
103.354
103.21
103.066
102.922
102.779
102.635
102.492
102.35
102.208
102.067
101.926
101.786
101.647
101.51
101.374
101.239
101.107
100.978
100.852
100.73
100.612
100.501
100.396
100.3
100.214
100.141
100.082
100.041
100.022
100.029
100.066
100.141
100.259
100.428
100.658
100.958
101.337
101.805
102.371
103.039
103.81
104.678
105.626
106.625
107.632
108.588
109.422
110.056
110.407
98.3302
99.2859
101.18
103.84
106.082
107.985
109.38
110.268
110.738
110.9
110.855
110.681
110.434
110.152
109.857
109.564
109.281
109.01
108.754
108.512
108.284
108.068
107.862
107.666
107.477
107.296
107.121
106.95
106.784
106.621
106.462
106.304
106.149
105.996
105.844
105.693
105.544
105.395
105.247
105.099
104.952
104.806
104.66
104.514
104.368
104.223
104.078
103.933
103.788
103.643
103.498
103.354
103.21
103.066
102.922
102.779
102.635
102.492
102.35
102.208
102.066
101.926
101.786
101.647
101.509
101.373
101.239
101.106
100.977
100.851
100.728
100.611
100.499
100.394
100.297
100.21
100.136
100.076
100.034
100.014
100.019
100.054
100.126
100.242
100.408
100.635
100.93
101.306
101.77
102.332
102.997
103.767
104.634
105.584
106.586
107.595
108.553
109.384
110.01
110.35
97.8338
98.8149
100.826
103.685
105.981
107.934
109.349
110.237
110.7
110.857
110.81
110.638
110.394
110.116
109.826
109.538
109.259
108.992
108.739
108.5
108.273
108.059
107.855
107.66
107.473
107.292
107.117
106.948
106.782
106.62
106.46
106.303
106.148
105.995
105.843
105.693
105.543
105.395
105.247
105.099
104.952
104.806
104.66
104.514
104.368
104.223
104.077
103.932
103.788
103.643
103.498
103.354
103.21
103.066
102.922
102.778
102.635
102.492
102.35
102.208
102.066
101.925
101.785
101.646
101.508
101.372
101.238
101.105
100.975
100.849
100.726
100.608
100.495
100.39
100.292
100.205
100.129
100.068
100.024
100.001
100.004
100.036
100.105
100.216
100.377
100.598
100.887
101.255
101.712
102.267
102.925
103.688
104.55
105.496
106.494
107.501
108.455
109.281
109.899
110.232
97.1539
98.1636
100.33
103.459
105.832
107.863
109.307
110.197
110.654
110.805
110.756
110.585
110.345
110.072
109.788
109.505
109.231
108.968
108.719
108.483
108.26
108.048
107.845
107.652
107.466
107.287
107.113
106.944
106.779
106.617
106.458
106.302
106.147
105.994
105.842
105.692
105.543
105.394
105.246
105.099
104.952
104.805
104.659
104.513
104.368
104.223
104.077
103.932
103.787
103.643
103.498
103.354
103.21
103.066
102.922
102.778
102.635
102.492
102.349
102.207
102.066
101.925
101.785
101.645
101.507
101.371
101.236
101.104
100.973
100.846
100.723
100.604
100.491
100.384
100.286
100.197
100.12
100.056
100.01
99.9847
99.9836
100.012
100.075
100.181
100.335
100.548
100.828
101.186
101.632
102.175
102.821
103.572
104.424
105.359
106.348
107.346
108.29
109.108
109.716
110.045
96.2677
97.2804
99.6991
103.134
105.621
107.768
109.253
110.148
110.6
110.745
110.694
110.524
110.289
110.022
109.744
109.467
109.198
108.941
108.696
108.464
108.244
108.034
107.834
107.643
107.459
107.281
107.108
106.94
106.775
106.614
106.456
106.299
106.145
105.993
105.841
105.691
105.542
105.393
105.246
105.098
104.952
104.805
104.659
104.513
104.368
104.222
104.077
103.932
103.787
103.643
103.498
103.354
103.209
103.065
102.922
102.778
102.635
102.492
102.349
102.207
102.065
101.924
101.784
101.644
101.506
101.37
101.234
101.101
100.971
100.843
100.719
100.6
100.486
100.378
100.278
100.187
100.108
100.042
99.993
99.9637
99.9583
99.9814
100.039
100.136
100.282
100.485
100.753
101.098
101.528
102.055
102.684
103.418
104.253
105.171
106.144
107.126
108.057
108.859
109.461
109.779
95.1386
96.1041
98.9936
102.581
105.334
107.643
109.183
110.088
110.534
110.674
110.622
110.455
110.225
109.965
109.694
109.424
109.162
108.91
108.67
108.442
108.226
108.019
107.822
107.632
107.45
107.273
107.102
106.935
106.771
106.611
106.453
106.297
106.143
105.991
105.84
105.69
105.541
105.393
105.245
105.098
104.951
104.805
104.659
104.513
104.367
104.222
104.077
103.932
103.787
103.643
103.498
103.354
103.209
103.065
102.921
102.778
102.634
102.491
102.348
102.206
102.064
101.923
101.783
101.643
101.505
101.368
101.232
101.099
100.968
100.84
100.715
100.594
100.479
100.37
100.268
100.175
100.094
100.025
99.9722
99.9385
99.9277
99.9444
99.994
100.083
100.218
100.407
100.661
100.988
101.4
101.906
102.513
103.225
104.036
104.931
105.881
106.841
107.746
108.537
109.107
109.433
93.7025
94.518
97.976
101.906
104.962
107.479
109.092
110.012
110.456
110.592
110.539
110.376
110.153
109.901
109.638
109.376
109.121
108.875
108.641
108.418
108.205
108.002
107.808
107.62
107.44
107.265
107.095
106.929
106.766
106.607
106.45
106.294
106.141
105.989
105.838
105.689
105.54
105.392
105.244
105.097
104.951
104.804
104.658
104.513
104.367
104.222
104.077
103.932
103.787
103.642
103.498
103.353
103.209
103.065
102.921
102.777
102.634
102.491
102.348
102.206
102.064
101.922
101.782
101.642
101.503
101.366
101.23
101.096
100.964
100.835
100.71
100.588
100.471
100.36
100.257
100.162
100.077
100.005
99.9479
99.909
99.8921
99.9013
99.9419
100.02
100.142
100.317
100.552
100.86
101.249
101.729
102.309
102.992
103.773
104.638
105.559
106.483
107.368
108.108
108.696
108.968
91.8456
92.3731
96.5391
100.996
104.465
107.259
108.97
109.916
110.362
110.496
110.446
110.288
110.073
109.83
109.576
109.323
109.075
108.837
108.609
108.391
108.183
107.983
107.792
107.607
107.429
107.256
107.087
106.923
106.761
106.602
106.446
106.291
106.139
105.987
105.837
105.687
105.539
105.391
105.243
105.096
104.95
104.804
104.658
104.512
104.367
104.222
104.077
103.932
103.787
103.642
103.498
103.353
103.209
103.065
102.921
102.777
102.634
102.49
102.347
102.205
102.063
101.921
101.78
101.64
101.501
101.364
101.227
101.093
100.96
100.83
100.704
100.581
100.463
100.35
100.244
100.146
100.058
99.9821
99.9203
99.8756
99.8516
99.8523
99.8826
99.9482
100.056
100.213
100.428
100.711
101.073
101.523
102.07
102.719
103.464
104.293
105.17
106.064
106.884
107.63
108.099
108.434
89.3339
89.8471
94.4526
99.734
103.786
106.96
108.809
109.793
110.247
110.385
110.339
110.19
109.985
109.752
109.509
109.265
109.026
108.796
108.574
108.362
108.158
107.963
107.775
107.593
107.417
107.246
107.079
106.916
106.755
106.598
106.442
106.288
106.136
105.985
105.835
105.686
105.537
105.39
105.242
105.096
104.949
104.803
104.658
104.512
104.367
104.221
104.076
103.931
103.787
103.642
103.497
103.353
103.209
103.064
102.92
102.777
102.633
102.49
102.347
102.204
102.062
101.92
101.779
101.639
101.499
101.361
101.224
101.089
100.956
100.825
100.697
100.573
100.453
100.338
100.23
100.129
100.037
99.9568
99.8896
99.8384
99.8065
99.7977
99.8165
99.8683
99.9592
100.096
100.288
100.545
100.875
101.29
101.799
102.405
103.108
103.889
104.727
105.55
106.356
106.973
107.526
107.675
85.7681
85.5022
91.1333
98.0387
102.888
106.553
108.595
109.637
110.108
110.255
110.219
110.081
109.888
109.668
109.436
109.203
108.973
108.751
108.536
108.33
108.132
107.941
107.756
107.578
107.404
107.235
107.07
106.908
106.749
106.592
106.438
106.285
106.133
105.982
105.833
105.684
105.536
105.388
105.241
105.095
104.949
104.803
104.657
104.512
104.366
104.221
104.076
103.931
103.786
103.642
103.497
103.353
103.208
103.064
102.92
102.776
102.633
102.489
102.346
102.203
102.061
101.919
101.777
101.637
101.497
101.358
101.221
101.085
100.951
100.819
100.69
100.564
100.442
100.325
100.214
100.11
100.015
99.9291
99.856
99.7977
99.7572
99.7379
99.7441
99.7805
99.853
99.9683
100.134
100.36
100.654
101.029
101.493
102.053
102.703
103.436
104.203
104.99
105.672
106.296
106.601
106.898
80.796
79.7658
86.2653
95.9511
101.829
106.025
108.315
109.44
109.94
110.104
110.084
109.961
109.783
109.577
109.358
109.136
108.917
108.703
108.496
108.296
108.103
107.917
107.736
107.561
107.391
107.224
107.061
106.9
106.743
106.587
106.433
106.281
106.13
105.98
105.831
105.682
105.534
105.387
105.24
105.094
104.948
104.802
104.657
104.511
104.366
104.221
104.076
103.931
103.786
103.641
103.497
103.352
103.208
103.064
102.92
102.776
102.632
102.488
102.345
102.202
102.06
101.917
101.776
101.635
101.495
101.355
101.217
101.081
100.946
100.813
100.682
100.555
100.431
100.312
100.198
100.09
99.9899
99.8992
99.8197
99.7537
99.7038
99.6732
99.6656
99.6854
99.7379
99.8291
99.9661
100.157
100.412
100.741
101.155
101.659
102.254
102.919
103.632
104.314
104.939
105.4
105.692
105.741
74.5302
73.1698
80.6147
93.625
100.747
105.41
107.959
109.196
109.741
109.932
109.933
109.83
109.669
109.479
109.275
109.066
108.857
108.653
108.454
108.261
108.074
107.892
107.716
107.544
107.376
107.212
107.051
106.892
106.736
106.581
106.428
106.277
106.126
105.977
105.828
105.68
105.533
105.386
105.239
105.093
104.947
104.801
104.656
104.511
104.365
104.22
104.075
103.931
103.786
103.641
103.497
103.352
103.208
103.063
102.919
102.775
102.631
102.488
102.344
102.201
102.058
101.916
101.774
101.633
101.492
101.352
101.214
101.076
100.94
100.806
100.674
100.545
100.419
100.297
100.18
100.068
99.9635
99.8673
99.781
99.7067
99.6468
99.604
99.5817
99.5836
99.6145
99.6795
99.7851
99.9387
100.15
100.427
100.784
101.226
101.753
102.353
102.979
103.571
104.083
104.347
104.478
104.365
68.2531
67.1156
76.8554
91.3056
99.7503
104.781
107.538
108.901
109.509
109.737
109.767
109.688
109.548
109.376
109.187
108.991
108.794
108.6
108.41
108.224
108.042
107.866
107.694
107.526
107.361
107.199
107.04
106.883
106.728
106.575
106.423
106.273
106.123
105.974
105.826
105.678
105.531
105.384
105.238
105.092
104.946
104.801
104.655
104.51
104.365
104.22
104.075
103.93
103.785
103.641
103.496
103.352
103.207
103.063
102.919
102.775
102.631
102.487
102.343
102.2
102.057
101.914
101.772
101.63
101.489
101.349
101.21
101.071
100.934
100.799
100.665
100.534
100.406
100.281
100.161
100.045
99.9357
99.8335
99.74
99.657
99.5865
99.5308
99.4928
99.4758
99.4835
99.5205
99.5923
99.705
99.8675
100.088
100.381
100.753
101.207
101.729
102.256
102.765
103.049
103.224
102.915
102.659
63.1626
62.7238
75.0478
89.5818
98.9223
104.225
107.096
108.56
109.244
109.52
109.585
109.535
109.419
109.266
109.095
108.913
108.729
108.545
108.363
108.185
108.01
107.839
107.671
107.507
107.345
107.186
107.029
106.874
106.721
106.569
106.418
106.268
106.119
105.971
105.823
105.676
105.529
105.383
105.237
105.091
104.945
104.8
104.655
104.51
104.365
104.22
104.075
103.93
103.785
103.64
103.496
103.351
103.207
103.063
102.918
102.774
102.63
102.486
102.343
102.199
102.056
101.913
101.77
101.628
101.486
101.345
101.205
101.066
100.928
100.791
100.656
100.523
100.393
100.265
100.141
100.021
99.9066
99.7981
99.6971
99.6049
99.5232
99.454
99.3996
99.3625
99.3459
99.3531
99.3888
99.4574
99.5673
99.7253
99.9475
100.239
100.614
101.042
101.486
101.83
101.977
101.841
101.15
100.299