/*--------------------------------*- C++ -*----------------------------------*\
| =========                 |                                                 |
| \\      /  F ield         | OpenFOAM: The Open Source CFD Toolbox           |
|  \\    /   O peration     | Version:  2.4.0                                 |
|   \\  /    A nd           | Web:      www.OpenFOAM.org                      |
|    \\/     M anipulation  |                                                 |
\*---------------------------------------------------------------------------*/
FoamFile
{
    version     2.0;
    format      ascii;
    class       volVectorField;
    location    "0.006";
    object      U;
}
// * * * * * * * * * * * * * * * * * * * * * * * * * * * * * * * * * * * * * //

dimensions      [0 1 -1 0 0 0 0];

internalField   nonuniform List<vector> 
4400
(
(5.44066 0.310746 0)
(3.46632 0.0669884 0)
(2.75969 0.00555837 0)
(2.55911 -0.00383014 0)
(2.60843 -0.00352929 0)
(2.67235 -0.000234551 0)
(2.67859 -0.000556655 0)
(2.83833 -0.00657373 0)
(3.00385 0.0136884 0)
(1.99702 -0.098317 0)
(8.7277 0.835236 0)
(7.91484 0.333954 0)
(7.20135 0.0957893 0)
(6.83105 0.00722338 0)
(6.84097 -0.0160306 0)
(6.95262 -0.00413861 0)
(6.90825 -0.0150131 0)
(7.35685 -0.0208643 0)
(6.78369 0.0128892 0)
(8.6027 -1.00411 0)
(9.75832 0.879568 0)
(10.334 0.429873 0)
(10.1961 0.149889 0)
(9.84535 0.0193147 0)
(9.78334 -0.0257557 0)
(9.90799 -0.00179602 0)
(9.81346 -0.0423424 0)
(10.4373 -0.00690269 0)
(9.21042 -0.137337 0)
(12.6011 -1.41623 0)
(9.78727 0.728473 0)
(11.2213 0.40253 0)
(11.6544 0.149894 0)
(11.3756 0.023988 0)
(11.1993 -0.0284359 0)
(11.3597 0.00419503 0)
(11.145 -0.0805236 0)
(11.6876 0.080959 0)
(11.5293 -0.40141 0)
(11.3515 -1.40984 0)
(9.71252 0.592581 0)
(11.3408 0.336321 0)
(11.9495 0.124906 0)
(11.6644 0.0272653 0)
(11.4742 -0.0313731 0)
(11.5064 0.0158174 0)
(11.6213 -0.0626724 0)
(11.4557 -0.106175 0)
(11.8454 -0.0328977 0)
(12.0671 -1.48769 0)
(9.69061 0.476087 0)
(11.2868 0.275805 0)
(11.9304 0.104908 0)
(11.6624 0.0243296 0)
(11.4705 -0.0193781 0)
(11.5375 0.00612866 0)
(11.5502 -0.0792101 0)
(11.5639 0.0394501 0)
(11.7859 -0.537454 0)
(11.2016 -1.21349 0)
(9.68214 0.364784 0)
(11.2304 0.216711 0)
(11.8973 0.0825587 0)
(11.6454 0.0231381 0)
(11.4719 -0.020947 0)
(11.5207 0.0133039 0)
(11.5708 -0.0512214 0)
(11.5517 -0.155656 0)
(11.5146 -0.128572 0)
(11.5053 -1.18834 0)
(9.67645 0.257288 0)
(11.1886 0.15575 0)
(11.8723 0.0595889 0)
(11.6337 0.017459 0)
(11.4701 -0.0148828 0)
(11.5122 0.0103726 0)
(11.5849 -0.0778959 0)
(11.4634 -0.0351324 0)
(11.6499 -0.409466 0)
(11.1967 -1.26591 0)
(9.67271 0.152992 0)
(11.161 0.0939244 0)
(11.8559 0.0354752 0)
(11.6256 0.0121688 0)
(11.4686 -0.012937 0)
(11.5092 0.00712988 0)
(11.5733 -0.051976 0)
(11.4719 -0.133506 0)
(11.5042 -0.272354 0)
(11.1708 -0.881732 0)
(9.67086 0.0507103 0)
(11.1473 0.0315181 0)
(11.8478 0.0110926 0)
(11.6213 0.00568071 0)
(11.4683 -0.0104415 0)
(11.5044 0.00732431 0)
(11.5706 -0.0627165 0)
(11.4466 -0.0988654 0)
(11.4732 -0.292142 0)
(11.0648 -1.03768 0)
(9.67088 -0.0509047 0)
(11.1472 -0.0310531 0)
(11.848 -0.0134631 0)
(11.6208 -0.000943446 0)
(11.4686 -0.00793164 0)
(11.5011 0.00432941 0)
(11.564 -0.0551358 0)
(11.4313 -0.110495 0)
(11.42 -0.29497 0)
(11.0126 -0.785018 0)
(9.67277 -0.15318 0)
(11.1608 -0.0934719 0)
(11.8564 -0.0378428 0)
(11.6239 -0.00743296 0)
(11.4698 -0.00552153 0)
(11.4981 0.00326101 0)
(11.5572 -0.0535862 0)
(11.4175 -0.107849 0)
(11.3789 -0.262941 0)
(10.942 -0.725848 0)
(9.67655 -0.257462 0)
(11.1883 -0.155357 0)
(11.8731 -0.0617412 0)
(11.6308 -0.0134195 0)
(11.4719 -0.00264722 0)
(11.4954 0.00207882 0)
(11.5506 -0.0504887 0)
(11.4048 -0.101315 0)
(11.3424 -0.249865 0)
(10.8987 -0.604529 0)
(9.68227 -0.364945 0)
(11.2299 -0.216318 0)
(11.8982 -0.0848551 0)
(11.6415 -0.0185 0)
(11.475 0.000948561 0)
(11.4929 0.0014959 0)
(11.5444 -0.0470983 0)
(11.3934 -0.093685 0)
(11.3133 -0.2274 0)
(10.8624 -0.488706 0)
(9.69078 -0.476209 0)
(11.2862 -0.275596 0)
(11.9319 -0.106463 0)
(11.6561 -0.0222782 0)
(11.4791 0.00544607 0)
(11.4906 0.00138124 0)
(11.5387 -0.0433846 0)
(11.3829 -0.083754 0)
(11.2903 -0.205694 0)
(10.8374 -0.373684 0)
(9.71271 -0.592694 0)
(11.3401 -0.336071 0)
(11.9506 -0.126823 0)
(11.6592 -0.0235144 0)
(11.4749 0.0112436 0)
(11.4803 0.00181047 0)
(11.5236 -0.0387013 0)
(11.3627 -0.072347 0)
(11.2552 -0.183409 0)
(10.7957 -0.256004 0)
(9.78749 -0.728521 0)
(11.2205 -0.402519 0)
(11.6563 -0.150772 0)
(11.3642 -0.0236592 0)
(11.2219 0.0171315 0)
(11.2401 0.00255098 0)
(11.268 -0.0320985 0)
(11.1039 -0.0560242 0)
(10.9525 -0.1577 0)
(10.4289 -0.147561 0)
(9.75844 -0.879607 0)
(10.3336 -0.429906 0)
(10.1961 -0.150484 0)
(9.83969 -0.019511 0)
(9.78168 0.0176792 0)
(9.83272 0.00173475 0)
(9.83332 -0.023953 0)
(9.6703 -0.0372882 0)
(9.50118 -0.118194 0)
(8.76176 -0.0598152 0)
(8.72771 -0.835262 0)
(7.91463 -0.334001 0)
(7.20068 -0.0960788 0)
(6.82687 -0.00771292 0)
(6.8316 0.0123024 0)
(6.89098 0.000121633 0)
(6.86702 -0.0137774 0)
(6.72116 -0.0221847 0)
(6.56147 -0.06055 0)
(5.75791 -0.0247956 0)
(5.4406 -0.310748 0)
(3.46611 -0.0669947 0)
(2.75888 -0.00562316 0)
(2.55624 0.00380542 0)
(2.59806 0.00291538 0)
(2.63748 -0.000415696 0)
(2.6099 -0.00248055 0)
(2.52589 -0.00369789 0)
(2.39749 -0.00672029 0)
(1.96823 0.0101181 0)
(9.49464 -3.80435 0)
(10.2856 -5.58114 0)
(10.1641 -4.76395 0)
(9.99932 -3.53666 0)
(7.9199 -3.66831 0)
(5.95688 -3.74237 0)
(5.45109 -3.10593 0)
(5.51428 -2.4118 0)
(5.53514 -1.93003 0)
(5.4636 -1.58081 0)
(5.37533 -1.29879 0)
(5.30628 -1.06547 0)
(5.25793 -0.87283 0)
(5.2242 -0.714493 0)
(5.20031 -0.584781 0)
(5.1832 -0.478643 0)
(5.17081 -0.391785 0)
(5.16176 -0.320677 0)
(5.1551 -0.262456 0)
(5.15017 -0.214788 0)
(5.14648 -0.175759 0)
(5.14371 -0.143806 0)
(5.14162 -0.117648 0)
(5.14003 -0.0962364 0)
(5.13882 -0.0787124 0)
(5.13788 -0.0643718 0)
(5.13715 -0.0526376 0)
(5.13659 -0.0430371 0)
(5.13615 -0.0351831 0)
(5.1358 -0.0287585 0)
(5.13552 -0.0235036 0)
(5.13531 -0.0192057 0)
(5.13513 -0.0156904 0)
(5.135 -0.0128158 0)
(5.13488 -0.0104642 0)
(5.13479 -0.00853899 0)
(5.13472 -0.00696537 0)
(5.13467 -0.00567832 0)
(5.13462 -0.00462243 0)
(5.13458 -0.00375585 0)
(5.13455 -0.00304468 0)
(5.13453 -0.00245924 0)
(5.13451 -0.00197523 0)
(5.13449 -0.00157287 0)
(5.13448 -0.00123578 0)
(5.13447 -0.000950103 0)
(5.13447 -0.000704202 0)
(5.13446 -0.000488143 0)
(5.13446 -0.000293116 0)
(5.13446 -0.000111314 0)
(5.13446 6.44847e-05 0)
(5.13446 0.000241185 0)
(5.13446 0.00042573 0)
(5.13446 0.000625416 0)
(5.13447 0.000847862 0)
(5.13448 0.00110168 0)
(5.13448 0.00139646 0)
(5.1345 0.00174357 0)
(5.13451 0.00215604 0)
(5.13453 0.0026496 0)
(5.13455 0.00324299 0)
(5.13458 0.00395877 0)
(5.13461 0.004824 0)
(5.13465 0.00587139 0)
(5.1347 0.00714066 0)
(5.13476 0.00867979 0)
(5.13484 0.0105469 0)
(5.13493 0.0128124 0)
(5.13504 0.0155621 0)
(5.13517 0.0188997 0)
(5.13533 0.0229511 0)
(5.13553 0.0278692 0)
(5.13577 0.0338397 0)
(5.13606 0.041088 0)
(5.13641 0.0498873 0)
(5.13683 0.06057 0)
(5.13736 0.0735392 0)
(5.13799 0.0892849 0)
(5.13876 0.108402 0)
(5.13971 0.131615 0)
(5.14087 0.159803 0)
(5.14228 0.194042 0)
(5.14405 0.235635 0)
(5.14618 0.286215 0)
(5.149 0.347644 0)
(5.15202 0.422773 0)
(5.15732 0.513306 0)
(5.16002 0.627411 0)
(5.17351 0.757723 0)
(5.16585 0.945464 0)
(5.21082 1.11261 0)
(5.12622 1.48767 0)
(5.3026 1.58398 0)
(4.92453 2.46752 0)
(5.21744 2.17952 0)
(5.11997 3.55476 0)
(4.85834 3.30087 0)
(4.43225 5.32808 0)
(6.09054 5.39601 0)
(3.71038 9.99435 0)
(12.7986 -3.13474 0)
(11.2782 -4.95088 0)
(8.45092 -5.43294 0)
(8.76284 -4.06736 0)
(9.39381 -2.95523 0)
(8.04016 -2.81786 0)
(6.50223 -2.7269 0)
(5.84844 -2.33939 0)
(5.66133 -1.90637 0)
(5.56522 -1.54783 0)
(5.47267 -1.26425 0)
(5.39196 -1.03728 0)
(5.32973 -0.852077 0)
(5.28339 -0.699554 0)
(5.24888 -0.573933 0)
(5.223 -0.470659 0)
(5.20343 -0.385843 0)
(5.18849 -0.316215 0)
(5.17701 -0.259077 0)
(5.16812 -0.21221 0)
(5.16119 -0.17378 0)
(5.15576 -0.142276 0)
(5.15149 -0.116458 0)
(5.14811 -0.095307 0)
(5.14543 -0.0779824 0)
(5.14329 -0.0637958 0)
(5.14158 -0.0521811 0)
(5.14021 -0.0426741 0)
(5.13911 -0.0348931 0)
(5.13823 -0.0285267 0)
(5.13751 -0.0233168 0)
(5.13693 -0.019056 0)
(5.13646 -0.0155696 0)
(5.13608 -0.0127166 0)
(5.13577 -0.0103857 0)
(5.13552 -0.00847585 0)
(5.13532 -0.00691302 0)
(5.13515 -0.00563601 0)
(5.13502 -0.0045888 0)
(5.13491 -0.00372905 0)
(5.13482 -0.00302323 0)
(5.13475 -0.00244216 0)
(5.13469 -0.00196163 0)
(5.13465 -0.00156215 0)
(5.13461 -0.00122742 0)
(5.13458 -0.000943778 0)
(5.13456 -0.000699575 0)
(5.13455 -0.000484916 0)
(5.13454 -0.00029114 0)
(5.13453 -0.000110475 0)
(5.13453 6.42464e-05 0)
(5.13453 0.000239901 0)
(5.13454 0.000423334 0)
(5.13455 0.000621729 0)
(5.13457 0.000842773 0)
(5.13459 0.00109492 0)
(5.13462 0.00138778 0)
(5.13465 0.0017325 0)
(5.1347 0.00214229 0)
(5.13475 0.00263262 0)
(5.13482 0.00322217 0)
(5.13491 0.00393328 0)
(5.13501 0.00479299 0)
(5.13513 0.00583377 0)
(5.13529 0.00709494 0)
(5.13547 0.00862419 0)
(5.1357 0.0104794 0)
(5.13597 0.0127305 0)
(5.1363 0.0154626 0)
(5.13671 0.0187787 0)
(5.1372 0.0228042 0)
(5.13779 0.0276911 0)
(5.13852 0.0336236 0)
(5.13939 0.0408256 0)
(5.14046 0.0495691 0)
(5.14176 0.060184 0)
(5.14333 0.0730709 0)
(5.14524 0.0887166 0)
(5.14757 0.107712 0)
(5.1504 0.130777 0)
(5.15385 0.158786 0)
(5.15806 0.192805 0)
(5.16322 0.234128 0)
(5.16947 0.284378 0)
(5.17742 0.345385 0)
(5.18642 0.42007 0)
(5.20005 0.509658 0)
(5.21034 0.624124 0)
(5.24074 0.749454 0)
(5.23877 0.947082 0)
(5.32163 1.08623 0)
(5.24122 1.51705 0)
(5.50504 1.522 0)
(4.94661 2.62374 0)
(5.91241 1.94848 0)
(4.49354 4.00279 0)
(5.96475 2.96397 0)
(4.67819 5.54457 0)
(8.10177 4.80456 0)
(5.72507 10.5269 0)
(12.2135 -2.91955 0)
(11.1192 -3.27939 0)
(8.24993 -4.16282 0)
(6.584 -4.63901 0)
(7.67972 -3.77898 0)
(8.34586 -2.70715 0)
(7.51334 -2.2551 0)
(6.51086 -2.0451 0)
(5.96685 -1.78136 0)
(5.71876 -1.48722 0)
(5.57622 -1.22222 0)
(5.47447 -1.00391 0)
(5.39813 -0.826175 0)
(5.34017 -0.679963 0)
(5.29579 -0.559154 0)
(5.26163 -0.459429 0)
(5.2352 -0.377234 0)
(5.2146 -0.309561 0)
(5.19845 -0.253897 0)
(5.18571 -0.208153 0)
(5.17563 -0.170585 0)
(5.1676 -0.139749 0)
(5.16119 -0.114451 0)
(5.15606 -0.0937065 0)
(5.15195 -0.0767021 0)
(5.14863 -0.0627686 0)
(5.14595 -0.051355 0)
(5.14379 -0.042008 0)
(5.14204 -0.0343553 0)
(5.14062 -0.0280912 0)
(5.13947 -0.0229644 0)
(5.13853 -0.0187698 0)
(5.13777 -0.0153366 0)
(5.13716 -0.0125288 0)
(5.13665 -0.0102324 0)
(5.13624 -0.00835027 0)
(5.13591 -0.0068116 0)
(5.13564 -0.00555411 0)
(5.13541 -0.00452196 0)
(5.13523 -0.00367422 0)
(5.13509 -0.00297852 0)
(5.13497 -0.00240602 0)
(5.13488 -0.00193265 0)
(5.1348 -0.0015391 0)
(5.13474 -0.00120931 0)
(5.13469 -0.000929802 0)
(5.13466 -0.000689138 0)
(5.13463 -0.000477591 0)
(5.13462 -0.000286569 0)
(5.13461 -0.000108387 0)
(5.1346 6.39805e-05 0)
(5.13461 0.000237291 0)
(5.13462 0.000418321 0)
(5.13464 0.000614202 0)
(5.13467 0.00083241 0)
(5.1347 0.00108128 0)
(5.13475 0.00137032 0)
(5.13481 0.00171061 0)
(5.13489 0.00211506 0)
(5.13498 0.00259895 0)
(5.13509 0.00318076 0)
(5.13523 0.00388264 0)
(5.1354 0.00473115 0)
(5.13561 0.00575828 0)
(5.13587 0.00700298 0)
(5.13617 0.0085124 0)
(5.13655 0.0103435 0)
(5.137 0.0125654 0)
(5.13756 0.0152621 0)
(5.13823 0.0185355 0)
(5.13905 0.0225091 0)
(5.14004 0.0273328 0)
(5.14124 0.0331888 0)
(5.1427 0.0402981 0)
(5.14447 0.0489291 0)
(5.14663 0.0594072 0)
(5.14924 0.0721281 0)
(5.15242 0.0875723 0)
(5.15629 0.106323 0)
(5.16099 0.12909 0)
(5.16671 0.156735 0)
(5.17368 0.19031 0)
(5.1822 0.231092 0)
(5.19253 0.28067 0)
(5.20555 0.340864 0)
(5.2204 0.414512 0)
(5.24261 0.502702 0)
(5.2588 0.616319 0)
(5.31167 0.735369 0)
(5.29706 0.945442 0)
(5.46434 1.0312 0)
(5.31398 1.5776 0)
(5.7218 1.34957 0)
(5.30649 2.78646 0)
(5.98622 1.73218 0)
(4.69005 4.33532 0)
(6.34949 2.36175 0)
(5.31031 5.64609 0)
(8.71495 4.12869 0)
(6.71091 10.633 0)
(10.6682 -2.78305 0)
(11.6855 -3.26622 0)
(10.6922 -3.03421 0)
(7.18314 -3.4483 0)
(5.70021 -3.64137 0)
(6.4357 -2.90422 0)
(6.94048 -2.17072 0)
(6.68666 -1.80647 0)
(6.23398 -1.59432 0)
(5.90371 -1.38049 0)
(5.69638 -1.16083 0)
(5.56022 -0.962583 0)
(5.46504 -0.795307 0)
(5.39474 -0.656249 0)
(5.34085 -0.540817 0)
(5.29886 -0.445175 0)
(5.26591 -0.366094 0)
(5.2399 -0.300807 0)
(5.21927 -0.246984 0)
(5.20284 -0.202667 0)
(5.1897 -0.166214 0)
(5.17915 -0.136254 0)
(5.17067 -0.111648 0)
(5.16384 -0.0914519 0)
(5.15832 -0.0748847 0)
(5.15385 -0.0613008 0)
(5.15023 -0.0501673 0)
(5.1473 -0.0410457 0)
(5.14491 -0.0335744 0)
(5.14297 -0.0274571 0)
(5.14139 -0.0224488 0)
(5.14011 -0.0183501 0)
(5.13906 -0.0149958 0)
(5.13821 -0.0122504 0)
(5.13751 -0.0100049 0)
(5.13695 -0.0081664 0)
(5.13648 -0.00666189 0)
(5.13611 -0.00543122 0)
(5.1358 -0.0044218 0)
(5.13555 -0.00359312 0)
(5.13535 -0.00291293 0)
(5.13519 -0.00235312 0)
(5.13505 -0.0018902 0)
(5.13495 -0.00150529 0)
(5.13487 -0.00118271 0)
(5.1348 -0.000909323 0)
(5.13475 -0.000673919 0)
(5.13472 -0.000466892 0)
(5.13469 -0.000279849 0)
(5.13468 -0.000105342 0)
(5.13467 6.35219e-05 0)
(5.13468 0.000233394 0)
(5.1347 0.0004109 0)
(5.13472 0.000602921 0)
(5.13476 0.000816803 0)
(5.13481 0.00106076 0)
(5.13488 0.00134411 0)
(5.13496 0.00167763 0)
(5.13507 0.002074 0)
(5.1352 0.00254829 0)
(5.13536 0.00311862 0)
(5.13555 0.00380659 0)
(5.13579 0.00463829 0)
(5.13608 0.00564522 0)
(5.13643 0.00686552 0)
(5.13686 0.0083453 0)
(5.13739 0.0101404 0)
(5.13802 0.0123188 0)
(5.13879 0.0149627 0)
(5.13973 0.018172 0)
(5.14086 0.0220678 0)
(5.14224 0.0267971 0)
(5.14392 0.0325386 0)
(5.14595 0.0395089 0)
(5.14842 0.0479711 0)
(5.15142 0.0582445 0)
(5.15506 0.0707169 0)
(5.15949 0.085859 0)
(5.16487 0.104243 0)
(5.1714 0.126563 0)
(5.17936 0.153665 0)
(5.18904 0.186575 0)
(5.20087 0.226548 0)
(5.21521 0.275115 0)
(5.23319 0.334124 0)
(5.25379 0.406089 0)
(5.28443 0.492753 0)
(5.30574 0.603004 0)
(5.38439 0.719488 0)
(5.33774 0.929391 0)
(5.66009 0.974113 0)
(5.21382 1.63457 0)
(6.34542 1.0461 0)
(5.17952 3.11607 0)
(7.06035 1.22862 0)
(5.153 4.61666 0)
(9.02946 1.8211 0)
(4.88708 5.91242 0)
(10.9295 2.77585 0)
(7.64244 10.1257 0)
(10.803 -2.88858 0)
(9.66045 -3.57609 0)
(10.0431 -3.05589 0)
(9.26684 -2.63417 0)
(6.92236 -2.82398 0)
(5.83349 -2.6704 0)
(5.96525 -2.17017 0)
(6.16925 -1.73723 0)
(6.13021 -1.45557 0)
(5.96307 -1.25405 0)
(5.78477 -1.07393 0)
(5.63882 -0.90559 0)
(5.52924 -0.755841 0)
(5.44715 -0.627258 0)
(5.38402 -0.518702 0)
(5.33454 -0.427947 0)
(5.2954 -0.35252 0)
(5.26425 -0.290042 0)
(5.23935 -0.238405 0)
(5.21938 -0.195803 0)
(5.2033 -0.160705 0)
(5.19034 -0.13182 0)
(5.17986 -0.108072 0)
(5.17138 -0.0885617 0)
(5.16451 -0.0725449 0)
(5.15893 -0.0594036 0)
(5.15439 -0.0486273 0)
(5.15071 -0.0397941 0)
(5.1477 -0.0325565 0)
(5.14526 -0.0266284 0)
(5.14326 -0.021774 0)
(5.14164 -0.0178002 0)
(5.14032 -0.0145472 0)
(5.13924 -0.0118846 0)
(5.13835 -0.00970705 0)
(5.13763 -0.00792373 0)
(5.13705 -0.00646352 0)
(5.13657 -0.00526931 0)
(5.13618 -0.00429035 0)
(5.13586 -0.00348649 0)
(5.1356 -0.00282638 0)
(5.1354 -0.00228311 0)
(5.13523 -0.00183392 0)
(5.13509 -0.00146043 0)
(5.13499 -0.00114742 0)
(5.1349 -0.000882131 0)
(5.13484 -0.000653629 0)
(5.1348 -0.000452569 0)
(5.13477 -0.000270855 0)
(5.13475 -0.000101244 0)
(5.13474 6.29789e-05 0)
(5.13475 0.000228256 0)
(5.13477 0.000400986 0)
(5.13481 0.000587855 0)
(5.13486 0.000796037 0)
(5.13492 0.00103349 0)
(5.13501 0.00130925 0)
(5.13511 0.00163381 0)
(5.13525 0.00201956 0)
(5.13541 0.00248118 0)
(5.13562 0.00303624 0)
(5.13587 0.00370582 0)
(5.13617 0.00451538 0)
(5.13654 0.00549557 0)
(5.13699 0.00668345 0)
(5.13754 0.00812394 0)
(5.1382 0.0098715 0)
(5.13901 0.0119922 0)
(5.14 0.0145661 0)
(5.14119 0.0176903 0)
(5.14264 0.021483 0)
(5.1444 0.0260873 0)
(5.14654 0.031677 0)
(5.14913 0.038463 0)
(5.15228 0.0467015 0)
(5.15611 0.0567035 0)
(5.16075 0.0688462 0)
(5.16639 0.0835878 0)
(5.17325 0.101485 0)
(5.18158 0.123213 0)
(5.19172 0.149595 0)
(5.20404 0.181625 0)
(5.21909 0.220527 0)
(5.23735 0.267756 0)
(5.26012 0.325206 0)
(5.28648 0.394887 0)
(5.32472 0.47989 0)
(5.35258 0.584033 0)
(5.45193 0.704088 0)
(5.38 0.889382 0)
(5.85167 0.954909 0)
(5.02566 1.58139 0)
(7.18533 0.8575 0)
(4.11686 3.34552 0)
(9.20579 0.659224 0)
(4.54784 4.95198 0)
(11.5389 1.14097 0)
(5.19985 6.41562 0)
(11.5574 1.60969 0)
(8.66602 9.42841 0)
(10.6288 -1.50465 0)
(9.6884 -2.20372 0)
(9.75757 -2.86581 0)
(10.8669 -2.95958 0)
(9.95983 -2.67822 0)
(7.83593 -2.45631 0)
(6.52885 -2.2118 0)
(6.04712 -1.87119 0)
(5.92512 -1.51967 0)
(5.87098 -1.24263 0)
(5.78595 -1.03186 0)
(5.67971 -0.860614 0)
(5.57856 -0.716984 0)
(5.49325 -0.595812 0)
(5.42394 -0.493703 0)
(5.36816 -0.408091 0)
(5.32341 -0.336696 0)
(5.28748 -0.277384 0)
(5.25855 -0.228246 0)
(5.23522 -0.187628 0)
(5.21636 -0.154109 0)
(5.20109 -0.126488 0)
(5.1887 -0.103754 0)
(5.17864 -0.0850601 0)
(5.17047 -0.0697016 0)
(5.16382 -0.0570925 0)
(5.1584 -0.046747 0)
(5.15399 -0.0382632 0)
(5.1504 -0.0313092 0)
(5.14746 -0.0256117 0)
(5.14507 -0.020945 0)
(5.14312 -0.0171238 0)
(5.14153 -0.0139954 0)
(5.14023 -0.0114346 0)
(5.13916 -0.00933941 0)
(5.1383 -0.00762381 0)
(5.13759 -0.00621912 0)
(5.13701 -0.00507004 0)
(5.13654 -0.00412809 0)
(5.13616 -0.0033546 0)
(5.13585 -0.00271932 0)
(5.1356 -0.00219652 0)
(5.1354 -0.00176432 0)
(5.13523 -0.00140495 0)
(5.13511 -0.00110376 0)
(5.13501 -0.000848453 0)
(5.13493 -0.000628475 0)
(5.13487 -0.000434817 0)
(5.13484 -0.000259687 0)
(5.13482 -9.61288e-05 0)
(5.13481 6.23221e-05 0)
(5.13482 0.000221874 0)
(5.13485 0.000388685 0)
(5.13489 0.000569178 0)
(5.13495 0.000770268 0)
(5.13503 0.000999629 0)
(5.13513 0.00126599 0)
(5.13526 0.00157949 0)
(5.13542 0.00195208 0)
(5.13562 0.00239798 0)
(5.13587 0.00293416 0)
(5.13617 0.00358101 0)
(5.13654 0.00436315 0)
(5.13698 0.00531019 0)
(5.13753 0.00645794 0)
(5.13819 0.0078498 0)
(5.139 0.0095384 0)
(5.13998 0.0115876 0)
(5.14117 0.0140747 0)
(5.14261 0.0170937 0)
(5.14436 0.0207587 0)
(5.14649 0.025208 0)
(5.14908 0.0306095 0)
(5.15221 0.0371672 0)
(5.15602 0.0451286 0)
(5.16065 0.0547941 0)
(5.16627 0.0665282 0)
(5.17309 0.0807737 0)
(5.18138 0.0980679 0)
(5.19145 0.119063 0)
(5.2037 0.144552 0)
(5.21859 0.175492 0)
(5.23676 0.213069 0)
(5.25882 0.25865 0)
(5.28615 0.314156 0)
(5.31829 0.381073 0)
(5.36297 0.463935 0)
(5.40012 0.560525 0)
(5.50877 0.686834 0)
(5.44439 0.831417 0)
(5.96719 0.969839 0)
(4.98111 1.41134 0)
(7.66823 0.876059 0)
(3.19873 3.24513 0)
(10.3755 0.0550537 0)
(4.14876 5.23185 0)
(10.3093 0.085466 0)
(6.43217 6.72265 0)
(9.80465 1.00419 0)
(9.16413 9.00361 0)
(11.5283 -2.25843 0)
(10.6898 -2.90387 0)
(7.9799 -2.9706 0)
(6.49145 -2.68792 0)
(7.0664 -2.03955 0)
(8.26554 -1.56286 0)
(8.41364 -1.45463 0)
(7.61942 -1.40941 0)
(6.79236 -1.2857 0)
(6.26641 -1.12309 0)
(5.96413 -0.958454 0)
(5.77403 -0.80655 0)
(5.64064 -0.673963 0)
(5.54059 -0.561158 0)
(5.46242 -0.465879 0)
(5.40005 -0.385774 0)
(5.34991 -0.318767 0)
(5.30947 -0.262949 0)
(5.27677 -0.216599 0)
(5.25027 -0.178211 0)
(5.22878 -0.146482 0)
(5.21132 -0.120302 0)
(5.19713 -0.0987294 0)
(5.18557 -0.0809749 0)
(5.17616 -0.0663772 0)
(5.16849 -0.0543852 0)
(5.16224 -0.0445408 0)
(5.15714 -0.0364644 0)
(5.15297 -0.029842 0)
(5.14958 -0.0244145 0)
(5.1468 -0.0199678 0)
(5.14454 -0.0163261 0)
(5.14269 -0.0133442 0)
(5.14118 -0.0109028 0)
(5.13994 -0.00890513 0)
(5.13893 -0.00726968 0)
(5.13811 -0.00593035 0)
(5.13744 -0.00483422 0)
(5.13689 -0.00393589 0)
(5.13645 -0.00319842 0)
(5.13609 -0.00259266 0)
(5.13579 -0.00209409 0)
(5.13556 -0.00168194 0)
(5.13537 -0.00133926 0)
(5.13522 -0.00105206 0)
(5.1351 -0.000808564 0)
(5.13501 -0.000598683 0)
(5.13495 -0.000413797 0)
(5.13491 -0.000246481 0)
(5.13488 -9.0101e-05 0)
(5.13488 6.15106e-05 0)
(5.13489 0.000214268 0)
(5.13492 0.000374045 0)
(5.13497 0.000546976 0)
(5.13504 0.000739664 0)
(5.13513 0.000959439 0)
(5.13525 0.00121466 0)
(5.1354 0.00151503 0)
(5.13559 0.00187203 0)
(5.13582 0.00229928 0)
(5.13611 0.00281307 0)
(5.13646 0.00343295 0)
(5.13689 0.00418255 0)
(5.13741 0.00509028 0)
(5.13805 0.00619043 0)
(5.13882 0.0075246 0)
(5.13976 0.00914327 0)
(5.1409 0.0111076 0)
(5.14229 0.0134919 0)
(5.14398 0.016386 0)
(5.14602 0.0198994 0)
(5.1485 0.0241648 0)
(5.15152 0.0293431 0)
(5.15518 0.0356299 0)
(5.15962 0.0432624 0)
(5.16502 0.0525287 0)
(5.17158 0.0637781 0)
(5.17953 0.0774349 0)
(5.1892 0.0940137 0)
(5.20095 0.114139 0)
(5.21523 0.13857 0)
(5.23259 0.16822 0)
(5.25374 0.204224 0)
(5.27947 0.247865 0)
(5.31111 0.301038 0)
(5.34896 0.364836 0)
(5.39901 0.444701 0)
(5.44777 0.533961 0)
(5.55475 0.663543 0)
(5.53333 0.769902 0)
(5.9921 0.982737 0)
(5.17596 1.21302 0)
(7.64694 0.980386 0)
(3.29756 3.02177 0)
(10.3481 -0.646337 0)
(4.27254 5.75497 0)
(8.19907 -1.2601 0)
(7.30374 6.91371 0)
(9.02843 0.816391 0)
(9.75455 8.36443 0)
(9.74295 -1.46691 0)
(9.70848 -1.16082 0)
(11.1266 -1.43905 0)
(10.3868 -2.42368 0)
(7.4371 -2.87865 0)
(5.85361 -2.51249 0)
(5.75031 -1.91194 0)
(5.98326 -1.43447 0)
(6.08793 -1.15622 0)
(6.04674 -0.993523 0)
(5.9342 -0.863158 0)
(5.80331 -0.739103 0)
(5.68221 -0.624007 0)
(5.58039 -0.522429 0)
(5.49719 -0.435132 0)
(5.42955 -0.361105 0)
(5.37464 -0.298871 0)
(5.33007 -0.246858 0)
(5.29388 -0.203561 0)
(5.26445 -0.16763 0)
(5.24049 -0.137885 0)
(5.22099 -0.113309 0)
(5.20509 -0.0930367 0)
(5.19213 -0.0763373 0)
(5.18155 -0.0625968 0)
(5.17292 -0.0513019 0)
(5.16587 -0.042025 0)
(5.16012 -0.034411 0)
(5.15542 -0.0281655 0)
(5.15158 -0.0230454 0)
(5.14844 -0.0188497 0)
(5.14588 -0.0154128 0)
(5.14379 -0.0125981 0)
(5.14208 -0.0102936 0)
(5.14068 -0.00840746 0)
(5.13954 -0.00686332 0)
(5.13861 -0.00559886 0)
(5.13784 -0.00456378 0)
(5.13723 -0.00371554 0)
(5.13672 -0.00301928 0)
(5.13631 -0.00244727 0)
(5.13598 -0.00197646 0)
(5.13571 -0.0015873 0)
(5.1355 -0.00126378 0)
(5.13533 -0.000992662 0)
(5.13519 -0.000762748 0)
(5.13509 -0.000564455 0)
(5.13502 -0.000389636 0)
(5.13497 -0.000231294 0)
(5.13495 -8.31674e-05 0)
(5.13494 6.05794e-05 0)
(5.13495 0.000205515 0)
(5.13499 0.000357194 0)
(5.13504 0.000521413 0)
(5.13512 0.000704427 0)
(5.13523 0.000913165 0)
(5.13536 0.00115556 0)
(5.13553 0.00144084 0)
(5.13575 0.00177991 0)
(5.13601 0.0021857 0)
(5.13634 0.00267372 0)
(5.13674 0.00326259 0)
(5.13723 0.00397479 0)
(5.13782 0.0048373 0)
(5.13854 0.00588268 0)
(5.13942 0.00715048 0)
(5.14049 0.0086887 0)
(5.14179 0.0105555 0)
(5.14337 0.0128213 0)
(5.14528 0.0155718 0)
(5.1476 0.0189108 0)
(5.15043 0.0229645 0)
(5.15385 0.027886 0)
(5.15801 0.033861 0)
(5.16306 0.0411151 0)
(5.1692 0.049922 0)
(5.17664 0.0606137 0)
(5.18569 0.073593 0)
(5.19667 0.089349 0)
(5.21001 0.108474 0)
(5.22623 0.131688 0)
(5.24595 0.159856 0)
(5.26994 0.194052 0)
(5.29916 0.235478 0)
(5.33487 0.285938 0)
(5.37821 0.346334 0)
(5.43292 0.422194 0)
(5.49407 0.505293 0)
(5.59356 0.631666 0)
(5.63349 0.715629 0)
(5.95981 0.961672 0)
(5.53267 1.06125 0)
(7.24489 1.03976 0)
(4.28554 2.83738 0)
(9.66929 -1.25333 0)
(4.55691 6.57359 0)
(7.68628 -2.19377 0)
(8.19828 6.50481 0)
(9.05367 0.809399 0)
(9.98323 7.43126 0)
(10.7013 -1.51243 0)
(9.98255 -2.39236 0)
(8.7294 -2.64694 0)
(8.47581 -1.81845 0)
(8.64611 -1.16221 0)
(8.33785 -1.15133 0)
(7.67959 -1.30966 0)
(7.04671 -1.28772 0)
(6.57901 -1.13272 0)
(6.26013 -0.962233 0)
(6.03778 -0.81412 0)
(5.86738 -0.686841 0)
(5.73018 -0.576872 0)
(5.61941 -0.482647 0)
(5.52978 -0.402426 0)
(5.45691 -0.334462 0)
(5.39756 -0.277213 0)
(5.34921 -0.22925 0)
(5.30979 -0.189237 0)
(5.27765 -0.155968 0)
(5.25142 -0.128384 0)
(5.23001 -0.105564 0)
(5.21253 -0.0867193 0)
(5.19826 -0.0711821 0)
(5.1866 -0.0583884 0)
(5.17707 -0.0478654 0)
(5.16928 -0.0392181 0)
(5.16291 -0.032118 0)
(5.15771 -0.026292 0)
(5.15346 -0.0215145 0)
(5.14998 -0.0175987 0)
(5.14714 -0.0143904 0)
(5.14482 -0.0117628 0)
(5.14292 -0.00961102 0)
(5.14137 -0.00784976 0)
(5.1401 -0.00640804 0)
(5.13907 -0.00522739 0)
(5.13823 -0.00426056 0)
(5.13754 -0.00346832 0)
(5.13698 -0.00281825 0)
(5.13652 -0.00228418 0)
(5.13615 -0.00184454 0)
(5.13586 -0.00148116 0)
(5.13562 -0.00117914 0)
(5.13543 -0.00092606 0)
(5.13528 -0.000711383 0)
(5.13517 -0.000526096 0)
(5.13509 -0.000362579 0)
(5.13503 -0.000214314 0)
(5.135 -7.54466e-05 0)
(5.135 5.9472e-05 0)
(5.13501 0.000195617 0)
(5.13505 0.000338198 0)
(5.13511 0.000492642 0)
(5.1352 0.000664795 0)
(5.13532 0.000861128 0)
(5.13547 0.00108911 0)
(5.13566 0.00135743 0)
(5.1359 0.00167633 0)
(5.13619 0.002058 0)
(5.13656 0.00251703 0)
(5.137 0.00307103 0)
(5.13755 0.00374117 0)
(5.13821 0.00455284 0)
(5.13901 0.00553665 0)
(5.13999 0.00672984 0)
(5.14118 0.00817761 0)
(5.14263 0.00993467 0)
(5.14438 0.0120674 0)
(5.14651 0.0146563 0)
(5.1491 0.0177992 0)
(5.15224 0.021615 0)
(5.15606 0.0262476 0)
(5.16069 0.031872 0)
(5.16632 0.0387006 0)
(5.17315 0.0469909 0)
(5.18144 0.0570554 0)
(5.19151 0.0692732 0)
(5.20373 0.0841042 0)
(5.21859 0.102105 0)
(5.23664 0.123952 0)
(5.25858 0.150457 0)
(5.28525 0.182622 0)
(5.31776 0.221575 0)
(5.35729 0.268971 0)
(5.40579 0.325695 0)
(5.46479 0.39664 0)
(5.53754 0.47469 0)
(5.62943 0.591532 0)
(5.72836 0.670572 0)
(5.91887 0.898428 0)
(5.90292 0.981285 0)
(6.71427 0.978247 0)
(5.53546 2.70756 0)
(8.68959 -1.67205 0)
(4.94288 7.36182 0)
(8.08036 -2.58023 0)
(9.06116 5.88771 0)
(9.118 1.14796 0)
(9.57202 6.29323 0)
(10.1872 -1.37648 0)
(9.93898 -1.06808 0)
(9.73811 -1.15035 0)
(8.88597 -1.89409 0)
(7.8163 -2.18728 0)
(7.17154 -1.86352 0)
(6.89993 -1.44891 0)
(6.70696 -1.15557 0)
(6.48209 -0.969648 0)
(6.26077 -0.834684 0)
(6.07012 -0.721079 0)
(5.90709 -0.617389 0)
(5.7685 -0.522847 0)
(5.65346 -0.439375 0)
(5.5591 -0.367333 0)
(5.48181 -0.305892 0)
(5.41853 -0.253925 0)
(5.36676 -0.210254 0)
(5.32443 -0.173735 0)
(5.28981 -0.143314 0)
(5.2615 -0.118051 0)
(5.23835 -0.0971235 0)
(5.21942 -0.0798235 0)
(5.20393 -0.0655469 0)
(5.19127 -0.0537827 0)
(5.18091 -0.0441006 0)
(5.17243 -0.0361405 0)
(5.1655 -0.0296018 0)
(5.15984 -0.0242349 0)
(5.1552 -0.0198326 0)
(5.15141 -0.0162237 0)
(5.14831 -0.0132664 0)
(5.14578 -0.0108439 0)
(5.14371 -0.00886022 0)
(5.14201 -0.00723624 0)
(5.14063 -0.0059068 0)
(5.1395 -0.00481827 0)
(5.13858 -0.00392677 0)
(5.13783 -0.00319626 0)
(5.13722 -0.00259695 0)
(5.13672 -0.00210458 0)
(5.13631 -0.00169921 0)
(5.13599 -0.00136421 0)
(5.13573 -0.00108586 0)
(5.13552 -0.000852689 0)
(5.13536 -0.000654819 0)
(5.13524 -0.000483857 0)
(5.13515 -0.000332789 0)
(5.13509 -0.000195626 0)
(5.13506 -6.69621e-05 0)
(5.13505 5.82213e-05 0)
(5.13507 0.000184667 0)
(5.13511 0.000317205 0)
(5.13518 0.000460862 0)
(5.13527 0.000621022 0)
(5.1354 0.000803654 0)
(5.13557 0.00101572 0)
(5.13578 0.00126531 0)
(5.13604 0.00156197 0)
(5.13636 0.00191699 0)
(5.13676 0.00234401 0)
(5.13725 0.00285951 0)
(5.13784 0.00348325 0)
(5.13857 0.0042388 0)
(5.13945 0.00515462 0)
(5.14052 0.00626544 0)
(5.14183 0.00761335 0)
(5.14341 0.00924927 0)
(5.14533 0.011235 0)
(5.14767 0.0136455 0)
(5.1505 0.0165719 0)
(5.15395 0.0201249 0)
(5.15813 0.0244385 0)
(5.1632 0.0296758 0)
(5.16936 0.0360346 0)
(5.17684 0.0437545 0)
(5.18593 0.0531265 0)
(5.19696 0.0645035 0)
(5.21035 0.0783135 0)
(5.22662 0.0950742 0)
(5.24638 0.115413 0)
(5.27039 0.140084 0)
(5.29957 0.170012 0)
(5.33514 0.206248 0)
(5.37824 0.250267 0)
(5.43146 0.303032 0)
(5.49463 0.368388 0)
(5.57727 0.441874 0)
(5.6647 0.545313 0)
(5.80849 0.630023 0)
(5.90108 0.806897 0)
(6.19005 0.951261 0)
(6.29562 0.817881 0)
(6.58658 2.60226 0)
(7.69289 -1.8131 0)
(5.65336 7.6325 0)
(8.73381 -2.77096 0)
(8.95901 5.43093 0)
(9.00383 1.60444 0)
(9.04104 5.24515 0)
(10.231 -1.0555 0)
(9.75332 -1.41451 0)
(9.31825 -1.66895 0)
(8.90479 -1.45611 0)
(8.30606 -1.20703 0)
(7.67087 -1.11167 0)
(7.21318 -1.06903 0)
(6.87659 -0.99481 0)
(6.58117 -0.88138 0)
(6.32733 -0.759806 0)
(6.12055 -0.650526 0)
(5.94898 -0.554433 0)
(5.80454 -0.469286 0)
(5.68444 -0.39479 0)
(5.58555 -0.330569 0)
(5.50426 -0.275714 0)
(5.43746 -0.229201 0)
(5.38265 -0.190014 0)
(5.3377 -0.157171 0)
(5.30086 -0.12976 0)
(5.27068 -0.106961 0)
(5.24595 -0.0880494 0)
(5.22569 -0.0723991 0)
(5.20911 -0.0594724 0)
(5.19553 -0.0488129 0)
(5.18442 -0.0400346 0)
(5.17532 -0.032814 0)
(5.16787 -0.0268806 0)
(5.16178 -0.0220089 0)
(5.1568 -0.0180119 0)
(5.15272 -0.0147346 0)
(5.14938 -0.0120486 0)
(5.14666 -0.00984828 0)
(5.14442 -0.00804631 0)
(5.1426 -0.00657095 0)
(5.14111 -0.00536344 0)
(5.13989 -0.00437476 0)
(5.1389 -0.00356478 0)
(5.13809 -0.00290108 0)
(5.13743 -0.00235681 0)
(5.1369 -0.0019097 0)
(5.13646 -0.00154156 0)
(5.13611 -0.00123734 0)
(5.13583 -0.000984698 0)
(5.13561 -0.000773152 0)
(5.13544 -0.000593531 0)
(5.1353 -0.000438123 0)
(5.13521 -0.000300564 0)
(5.13515 -0.000175446 0)
(5.13511 -5.78505e-05 0)
(5.1351 5.67742e-05 0)
(5.13512 0.000172675 0)
(5.13517 0.000294324 0)
(5.13524 0.000426267 0)
(5.13534 0.000573414 0)
(5.13548 0.000741134 0)
(5.13566 0.000935907 0)
(5.13589 0.00116514 0)
(5.13617 0.00143758 0)
(5.13652 0.00176359 0)
(5.13695 0.00215578 0)
(5.13748 0.0026294 0)
(5.13812 0.00320265 0)
(5.1389 0.00389715 0)
(5.13986 0.00473904 0)
(5.14102 0.00576026 0)
(5.14242 0.00699953 0)
(5.14414 0.00850367 0)
(5.14621 0.0103295 0)
(5.14874 0.0125459 0)
(5.1518 0.0152369 0)
(5.15552 0.0185039 0)
(5.16004 0.0224705 0)
(5.16552 0.0272867 0)
(5.17218 0.0331343 0)
(5.18027 0.0402337 0)
(5.19008 0.0488525 0)
(5.202 0.059315 0)
(5.21647 0.0720146 0)
(5.23405 0.0874267 0)
(5.25539 0.106127 0)
(5.28133 0.128806 0)
(5.31282 0.156306 0)
(5.3512 0.1896 0)
(5.3976 0.229964 0)
(5.45506 0.278472 0)
(5.52231 0.337804 0)
(5.61288 0.40654 0)
(5.69981 0.495367 0)
(5.87212 0.58801 0)
(5.9139 0.705522 0)
(6.37349 0.932637 0)
(6.0907 0.627135 0)
(7.25754 2.4682 0)
(6.94653 -1.69231 0)
(6.67024 7.01177 0)
(9.21397 -2.67929 0)
(7.8776 4.94822 0)
(8.9079 1.83481 0)
(9.00136 4.47422 0)
(10.1578 -1.02171 0)
(9.77646 -1.02367 0)
(9.37738 -1.04222 0)
(8.82679 -1.23177 0)
(8.17875 -1.32959 0)
(7.61982 -1.20424 0)
(7.22402 -1.02882 0)
(6.91384 -0.88686 0)
(6.62633 -0.767608 0)
(6.37097 -0.660853 0)
(6.15959 -0.567691 0)
(5.98382 -0.485802 0)
(5.83552 -0.412684 0)
(5.71152 -0.348124 0)
(5.60887 -0.292112 0)
(5.52413 -0.24407 0)
(5.45429 -0.203198 0)