/*--------------------------------*- C++ -*----------------------------------*\
| =========                 |                                                 |
| \\      /  F ield         | OpenFOAM: The Open Source CFD Toolbox           |
|  \\    /   O peration     | Version:  2.4.0                                 |
|   \\  /    A nd           | Web:      www.OpenFOAM.org                      |
|    \\/     M anipulation  |                                                 |
\*---------------------------------------------------------------------------*/
FoamFile
{
    version     2.0;
    format      ascii;
    class       volScalarField;
    location    "0.035";
    object      epsilon;
}
// * * * * * * * * * * * * * * * * * * * * * * * * * * * * * * * * * * * * * //

dimensions      [0 2 -3 0 0 0 0];

internalField   nonuniform List<scalar> 
17600
(
290.779
447.674
583.298
681.438
740.842
768.083
772.008
760.741
740.589
716.002
689.917
664.178
639.88
617.625
597.698
580.181
565.016
552.054
540.915
533.319
39.5489
60.6407
78.3966
92.336
102.281
108.919
113.256
116.235
118.591
120.845
123.337
126.263
129.712
133.689
138.134
142.939
147.961
153.052
158.259
164.282
18.0559
21.7883
25.1119
27.7893
29.7362
31.0343
31.8557
32.3925
32.8192
33.2795
33.8841
34.7147
35.8295
37.2675
39.0513
41.1887
43.674
46.4943
49.6944
53.6322
14.7345
15.1157
15.6207
16.0697
16.3751
16.5162
16.5138
16.4078
16.2435
16.0647
15.9098
15.8115
15.7966
15.8873
16.1018
16.4556
16.9624
17.6367
18.5143
19.695
14.0476
13.5192
13.1673
12.903
12.6639
12.4158
12.1455
11.8534
11.5469
11.2367
10.9345
10.6513
10.3971
10.1806
10.0095
9.89022
9.82914
9.83309
9.91509
10.0964
13.8917
13.0886
12.4266
11.871
11.3882
10.9523
10.546
10.1595
9.78831
9.43136
9.08965
8.76523
8.46058
8.17825
7.92064
7.69
7.48847
7.31839
7.18386
7.08921
13.8556
12.9703
12.1959
11.5177
10.9188
10.383
9.89683
9.44996
9.03503
8.64709
8.28299
7.94087
7.61971
7.31903
7.03867
6.77868
6.53924
6.32074
6.12419
5.95034
13.8471
12.9381
12.1251
11.3979
10.7463
10.1596
9.62814
9.14339
8.69831
8.28728
7.9059
7.5508
7.21943
6.90984
6.62055
6.35044
6.09864
5.86453
5.64783
5.44838
13.845
12.9294
12.1037
11.3584
10.6846
10.074
9.51901
9.01257
8.54859
8.12177
7.72765
7.36248
7.02317
6.70718
6.4124
6.13711
5.87987
5.6395
5.41513
5.20625
13.8445
12.9269
12.0973
11.3456
10.6631
10.0423
9.47608
8.95843
8.48381
8.04737
7.64488
7.27264
6.92749
6.60669
6.30791
6.02915
5.76871
5.52513
5.2972
5.08428
13.8443
12.9262
12.0953
11.3414
10.6557
10.0307
9.45968
8.93672
8.45668
8.01498
7.60759
7.23095
6.88194
6.55783
6.25624
5.97506
5.71249
5.46694
5.23706
5.02212
13.8443
12.9259
12.0946
11.3399
10.6531
10.0265
9.45347
8.92819
8.44561
8.00129
7.59131
7.2122
6.86091
6.53476
6.23135
5.9486
5.68464
5.43785
5.2068
4.99075
13.8442
12.9257
12.0942
11.3393
10.6521
10.0249
9.45103
8.92479
8.44111
7.99558
7.58434
7.20397
6.85146
6.52417
6.21972
5.93602
5.67122
5.42368
5.19195
4.97527
13.8442
12.9256
12.094
11.3389
10.6515
10.0241
9.44997
8.92334
8.4392
7.99315
7.58133
7.20037
6.84727
6.51939
6.21439
5.93019
5.66493
5.41697
5.18487
4.96786
13.8441
12.9255
12.0938
11.3387
10.6512
10.0237
9.44941
8.92262
8.43829
7.99202
7.57996
7.19874
6.84537
6.51722
6.21196
5.92751
5.66202
5.41386
5.18157
4.9644
13.8441
12.9254
12.0937
11.3385
10.651
10.0234
9.44906
8.9222
8.43779
7.99143
7.57927
7.19794
6.84445
6.51619
6.21081
5.92625
5.66067
5.41241
5.18005
4.96281
13.8441
12.9254
12.0936
11.3384
10.6508
10.0232
9.44881
8.92192
8.43747
7.99107
7.57887
7.19749
6.84396
6.51564
6.21022
5.92562
5.66
5.41172
5.17933
4.96207
13.8441
12.9253
12.0935
11.3383
10.6507
10.023
9.44864
8.92173
8.43726
7.99084
7.57861
7.19722
6.84367
6.51534
6.2099
5.92529
5.65966
5.41137
5.17898
4.96171
13.8441
12.9253
12.0935
11.3382
10.6506
10.0229
9.44853
8.9216
8.43712
7.99069
7.57846
7.19705
6.8435
6.51516
6.20972
5.9251
5.65947
5.41119
5.17879
4.96153
13.8441
12.9253
12.0934
11.3382
10.6506
10.0229
9.44847
8.92154
8.43706
7.99062
7.57839
7.19698
6.84342
6.51508
6.20964
5.92502
5.65939
5.41111
5.17871
4.96144
13.8441
12.9253
12.0934
11.3382
10.6506
10.0229
9.44847
8.92154
8.43706
7.99062
7.57839
7.19698
6.84342
6.51508
6.20964
5.92502
5.65939
5.41111
5.17871
4.96143
13.8441
12.9253
12.0935
11.3382
10.6506
10.0229
9.44853
8.9216
8.43712
7.99069
7.57846
7.19705
6.8435
6.51516
6.20972
5.92511
5.65948
5.41119
5.17879
4.9615
13.8441
12.9253
12.0935
11.3383
10.6507
10.023
9.44864
8.92173
8.43726
7.99084
7.57861
7.19722
6.84367
6.51534
6.2099
5.92529
5.65966
5.41137
5.17896
4.96166
13.8441
12.9254
12.0936
11.3384
10.6508
10.0232
9.44881
8.92192
8.43747
7.99107
7.57887
7.19749
6.84396
6.51565
6.21023
5.92563
5.66001
5.41173
5.17932
4.962
13.8441
12.9254
12.0937
11.3385
10.651
10.0234
9.44906
8.9222
8.43779
7.99143
7.57927
7.19794
6.84445
6.51619
6.21081
5.92626
5.66068
5.41242
5.18003
4.96272
13.8441
12.9255
12.0938
11.3387
10.6512
10.0237
9.44941
8.92262
8.43829
7.99202
7.57996
7.19874
6.84537
6.51723
6.21196
5.92752
5.66203
5.41386
5.18154
4.96428
13.8442
12.9256
12.094
11.3389
10.6515
10.0241
9.44997
8.92334
8.4392
7.99315
7.58133
7.20037
6.84727
6.5194
6.2144
5.9302
5.66494
5.41697
5.18483
4.96771
13.8442
12.9257
12.0942
11.3393
10.6521
10.0249
9.45103
8.92479
8.44111
7.99558
7.58434
7.20397
6.85147
6.52417
6.21972
5.93603
5.67123
5.42367
5.19189
4.97508
13.8443
12.9259
12.0946
11.3399
10.6531
10.0265
9.45347
8.92819
8.44561
8.00129
7.59131
7.2122
6.86091
6.53476
6.23136
5.9486
5.68464
5.43782
5.20669
4.99046
13.8443
12.9262
12.0953
11.3414
10.6557
10.0307
9.45968
8.93672
8.45668
8.01498
7.60759
7.23095
6.88194
6.55783
6.25623
5.97506
5.71247
5.46687
5.23686
5.02164
13.8445
12.9269
12.0973
11.3456
10.6631
10.0423
9.47608
8.95843
8.4838
8.04737
7.64487
7.27264
6.92748
6.60668
6.3079
6.02913
5.76865
5.52497
5.29679
5.08336
13.845
12.9294
12.1037
11.3584
10.6846
10.074
9.51901
9.01257
8.54859
8.12177
7.72764
7.36247
7.02316
6.70716
6.41237
6.13704
5.87973
5.63918
5.41429
5.20434
13.8471
12.9381
12.1251
11.3979
10.7463
10.1596
9.62814
9.14338
8.6983
8.28727
7.90589
7.55078
7.2194
6.9098
6.62048
6.35031
6.09836
5.86385
5.64603
5.44405
13.8556
12.9703
12.1959
11.5177
10.9188
10.383
9.89683
9.44995
9.03502
8.64707
8.28297
7.94084
7.61967
7.31895
7.03853
6.77841
6.53866
6.31932
6.12011
5.93956
13.8917
13.0886
12.4266
11.871
11.3882
10.9523
10.546
10.1595
9.78829
9.43134
9.08961
8.76517
8.46049
8.17809
7.92036
7.68945
7.48723
7.31517
7.17377
7.059
14.0476
13.5192
13.1673
12.9029
12.6639
12.4158
12.1455
11.8534
11.5468
11.2367
10.9344
10.6512
10.3969
10.1803
10.0088
9.88898
9.82626
9.82512
9.88737
10.0001
14.7345
15.1157
15.6206
16.0697
16.3751
16.5162
16.5138
16.4077
16.2434
16.0646
15.9096
15.8112
15.7962
15.8865
16.1003
16.4526
16.9553
17.6162
18.4351
19.3697
18.0559
21.7883
25.1119
27.7892
29.7361
31.0342
31.8555
32.3923
32.819
33.2792
33.8837
34.714
35.8286
37.2658
39.0482
41.1823
43.6595
46.4523
49.5074
52.7093
39.5489
60.6407
78.3964
92.3358
102.281
108.918
113.256
116.234
118.59
120.844
123.337
126.262
129.712
133.688
138.132
142.934
147.951
153.019
157.962
162.66
290.779
447.674
583.298
681.437
740.842
768.082
772.008
760.741
740.59
716.003
689.919
664.182
639.887
617.637
597.72
580.22
565.09
552.197
541.396
532.195
665.613
775.878
852.288
901.639
926.495
930.416
918.883
897.208
869.87
840.234
810.51
781.944
755.105
730.157
707.094
685.817
666.193
648.09
631.389
615.987
601.79
588.705
576.647
565.538
555.308
545.893
537.237
529.285
521.989
515.301
509.174
503.563
498.424
493.712
489.383
485.392
481.694
478.244
475
471.919
468.964
466.1
463.295
460.525
457.768
455.008
452.236
449.446
446.635
443.804
440.956
438.095
435.223
432.342
429.452
426.552
423.638
420.707
417.753
414.767
411.741
408.664
405.522
402.308
399.015
395.634
392.152
388.556
384.83
380.958
376.921
372.701
368.283
363.665
358.844
353.812
348.565
343.096
337.401
331.477
325.32
318.931
312.312
305.467
298.403
291.126
283.647
275.976
268.126
260.112
251.949
243.654
235.244
226.739
218.159
209.525
200.857
192.18
183.515
174.886
166.315
157.827
149.444
141.189
133.085
125.152
117.412
109.884
102.587
95.5357
88.7467
82.233
76.0058
70.0744
64.4459
59.1253
54.1153
49.4163
45.0265
40.9421
37.157
33.6635
30.452
27.5115
24.8295
22.3928
20.1869
18.1972
16.4086
14.8059
13.3742
12.0987
10.9654
9.96075
9.07192
8.28697
7.59482
6.98524
6.44887
5.97722
5.56263
5.19821
4.87781
4.59596
4.34783
4.12915
3.93616
3.76558
3.61455
3.48059
3.36153
3.25553
3.16099
3.07656
3.00106
2.93355
2.87322
2.8194
2.77158
2.72936
2.69246
2.66085
2.6347
2.61401
2.59889
2.58955
2.58632
2.58963
2.60006
2.61832
2.64533
2.6822
2.73032
2.79142
2.86763
2.96162
3.0767
3.21701
3.38778
3.59553
3.8485
4.15706
4.5343
4.99685
5.566
6.26938
7.1436
8.23886
9.62688
11.4161
13.7818
17.0303
21.7444
29.1254
41.8277
65.7328
114.141
213.198
461.211
803.506
172.861
189.994
215.214
248.267
287.769
331.478
376.656
420.403
460.086
493.745
520.307
539.589
552.14
558.967
561.272
560.225
556.827
551.861
545.895
539.331
532.448
525.449
518.482
511.665
505.087
498.818
492.91
487.395
482.295
477.62
473.369
469.537
466.111
463.07
460.388
458.035
455.972
454.157
452.544
451.084
449.731
448.437
447.157
445.851
444.485
443.031
441.468
439.781
437.963
436.014
433.935
431.731
429.41
426.979
424.446
421.818
419.099
416.296
413.411
410.447
407.401
404.274
401.057
397.744
394.333
390.822
387.203
383.467
379.599
375.585
371.406
367.045
362.499
357.762
352.829
347.694
342.35
336.792
331.014
325.014
318.788
312.336
305.661
298.766
291.656
284.339
276.824
269.123
261.249
253.214
245.036
236.731
228.317
219.814
211.242
202.622
193.977
185.329
176.702
168.119
159.603
151.18
142.871
134.701
126.692
118.866
111.243
103.842
96.6829
89.7809
83.1511
76.8063
70.7572
65.0124
59.5782
54.4586
49.6551
45.167
40.9912
37.1226
33.5538
30.2756
27.277
24.5456
22.0679
19.8291
17.8142
16.0074
14.3929
12.955
11.6784
10.5482
9.55021
8.67097
7.89794
7.21945
6.62479
6.10417
5.64874
5.25051
4.90235
4.59788
4.33147
4.09814
3.89353
3.71381
3.55563
3.41609
3.29268
3.18322
3.08584
2.99894
2.92116
2.85134
2.7885
2.73185
2.68071
2.63455
2.59296
2.55565
2.5224
2.49337
2.4687
2.44845
2.43275
2.42181
2.41594
2.41557
2.42121
2.43353
2.45334
2.48166
2.51971
2.56904
2.63151
2.70951
2.80597
2.9246
3.0701
3.24842
3.46713
3.7359
4.06714
4.47681
4.98564
5.62081
6.41874
7.42953
8.72494
10.4133
12.6693
15.7982
20.3825
27.6334
40.259
64.3921
113.938
217.879
458.628
726.639
54.8843
56.6998
59.3966
63.3599
69.229
77.5124
88.6371
102.932
120.545
141.296
164.752
190.19
216.66
243.101
268.471
291.879
312.682
330.53
345.354
357.311
366.714
373.954
379.433
383.524
386.55
388.778
390.422
391.656
392.621
393.432
394.184
394.954
395.802
396.767
397.877
399.139
400.549
402.09
403.732
405.44
407.167
408.867
410.488
411.98
413.296
414.394
415.24
415.809
416.084
416.057
415.727
415.099
414.183
412.99
411.537
409.84
407.917
405.785
403.459
400.956
398.286
395.461
392.487
389.365
386.101
382.699
379.159
375.476
371.642
367.642
363.461
359.095
354.542
349.794
344.848
339.699
334.341
328.77
322.98
316.969
310.735
304.278
297.6
290.705
283.598
276.288
268.784
261.097
253.24
245.227
237.075
228.8
220.422
211.96
203.436
194.87
186.285
177.706
169.155
160.657
152.236
143.916
135.72
127.674
119.799
112.116
104.648
97.4132
90.4296
83.7137
77.2796
71.1396
65.3037
59.7798
54.5729
49.6861
45.1195
40.8711
36.9365
33.3087
29.9791
26.9368
24.1695
21.6633
19.4033
17.374
15.5589
13.9418
12.5063
11.2362
10.1161
9.13109
8.26708
7.51096
6.85055
6.2747
5.77325
5.337
4.95771
4.62804
4.34145
4.09217
3.87515
3.68594
3.52067
3.37597
3.24893
3.13702
3.03806
2.9502
2.87182
2.80157
2.73829
2.68102
2.62895
2.58141
2.53786
2.4979
2.4612
2.42755
2.39686
2.3694
2.34532
2.3247
2.30769
2.29452
2.28551
2.28106
2.28167
2.28794
2.30063
2.32064
2.34908
2.38732
2.43701
2.50025
2.57964
2.67845
2.80087
2.95221
3.13934
3.37112
3.65904
4.0181
4.46806
5.03517
5.75491
6.67651
7.87066
9.4441
11.5687
14.5439
18.9415
25.9568
38.2773
62.0729
111.144
214.787
432.591
653.495
20.0307
20.3915
20.8044
21.3081
21.975
22.8912
24.1598
25.9051
28.273
31.4996
35.7964
41.3828
48.4534
57.1559
67.5712
79.6785
93.3387
108.294
124.187
140.592
157.061
173.173
188.573
203.001
216.306
228.437
239.432
249.39
258.449
266.761
274.476
281.731
288.643
295.308
301.802
308.18
314.479
320.721
326.907
333.027
339.054
344.947
350.658
356.132
361.312
366.141
370.57
374.555
378.063
381.071
383.566
385.544
387.011
387.979
388.469
388.506
388.12
387.34
386.198
384.723
382.946
380.891
378.58
376.034
373.272
370.304
367.137
363.774
360.213
356.443
352.463
348.274
343.874
339.262
334.436
329.393
324.131
318.646
312.935
306.999
300.835
294.446
287.834
281.004
273.962
266.718
259.279
251.66
243.873
235.932
227.856
219.661
211.367
202.994
194.564
186.099
177.623
169.159
160.732
152.366
144.086
135.916
127.882
120.007
112.313
104.822
97.5562
90.5338
83.7727
77.2887
71.0954
65.2044
59.6247
54.363
49.4233
44.807
40.513
36.5376
32.8746
29.5156
26.4501
23.6658
21.1486
18.8836
16.8545
15.0447
13.4371
12.0148
10.7611
9.65986
8.69554
7.85357
7.12032
6.48318
5.93062
5.45218
5.03842
4.6809
4.37213
4.10548
3.87512
3.67594
3.50348
3.35388
3.22377
3.11025
3.01081
2.92329
2.84585
2.7769
2.7151
2.65929
2.60852
2.56197
2.51899
2.47904
2.44169
2.40661
2.37358
2.34245
2.31323
2.28637
2.26197
2.24014
2.22106
2.20498
2.19223
2.18319
2.17836
2.1783
2.18373
2.19546
2.2145
2.24206
2.27965
2.32907
2.39264
2.47323
2.57451
2.70121
2.85944
3.05716
3.30484
3.61632
4.01001
4.51076
5.15248
5.98264
7.06978
8.51747
10.4922
13.2834
17.442
24.1215
35.9189
58.8353
106.037
205.277
398.055
582.745
10.1491
10.2039
10.2627
10.3285
10.4087
10.5129
10.6525
10.8423
11.101
11.4548
11.9357
12.5834
13.4581
14.6321
16.1839
18.206
20.8013
24.0785
28.1436
33.0902
38.9881
45.8728
53.7378
62.5314
72.1589
82.49
93.3709
104.639
116.136
127.723
139.29
150.759
162.086
173.257
184.281
195.179
205.978
216.7
227.357
237.943
248.437
258.801
268.983
278.919
288.538
297.764
306.521
314.739
322.352
329.306
335.561
341.089
345.877
349.925
353.249
355.875
357.838
359.177
359.934
360.156
359.89
359.172
358.054
356.578
354.769
352.648
350.23
347.53
344.554
341.304
337.785
334.005
329.97
325.684
321.15
316.371
311.346
306.079
300.568
294.817
288.826
282.6
276.143
269.462
262.564
255.459
248.158
240.675
233.023
225.219
217.28
209.225
201.074
192.849
184.571
176.265
167.953
159.66
151.412
143.234
135.151
127.188
119.369
111.718
104.26
97.0147
90.0038
83.246
76.7584
70.5563
64.6524
59.0573
53.7788
48.8223
44.1903
39.8826
35.8963
32.2259
28.8634
25.7987
23.0195
20.5117
18.2601
16.2481
14.4587
12.8743
11.4775
10.2511
9.17815
8.24289
7.43019
6.72604
6.1175
5.59276
5.14116
4.75309
4.42003
4.13443
3.88962
3.67978
3.49983
3.34534
3.21249
3.09797
2.99891
2.91286
2.8377
2.7716
2.71301
2.66061
2.61325
2.56998
2.53
2.49263
2.45732
2.42365
2.39126
2.35991
2.32945
2.2998
2.27107
2.24383
2.21818
2.19426
2.17228
2.15252
2.1353
2.12102
2.11017
2.10331
2.10109
2.10431
2.11389
2.13092
2.15674
2.19297
2.24165
2.30528
2.38711
2.49125
2.62309
2.78972
3.00049
3.26792
3.6089
4.04644
4.61237
5.35162
6.32946
7.64487
9.45669
12.04
15.9165
22.1754
33.2635
54.842
99.0976
191.046
359.984
517.178
7.0616
7.03555
7.011
6.98815
6.96793
6.95153
6.94031
6.93604
6.94103
6.95837
6.99197
7.04678
7.12942
7.2504
7.42259
7.6609
7.98391
8.41457
8.98102
9.71736
10.6644
11.8702
13.3901
15.2862
17.626
20.4797
23.9177
28.0063
32.8047
38.3607
44.7085
51.8661
59.8344
68.5965
78.1192
88.354
99.2403
110.708
122.681
135.08
147.821
160.819
173.982
187.211
200.396
213.42
226.156
238.48
250.268
261.408
271.805
281.377
290.065
297.839
304.692
310.631
315.68
319.866
323.23
325.84
327.755
329.038
329.739
329.905
329.574
328.782
327.559
325.929
323.914
321.531
318.788
315.704
312.292
308.567
304.539
300.218
295.61
290.723
285.563
280.135
274.445
268.501
262.309
255.88
249.224
242.351
235.276
228.012
220.577
212.987
205.26
197.418
189.482
181.474
173.417
165.335
157.254
149.198
141.194
133.268
125.444
117.749
110.208
102.844
95.6808
88.74
82.042
75.6053
69.4462
63.5791
58.0158
52.7654
47.8344
43.2265
38.9425
34.9802
31.335
27.9993
24.9632
22.2147
19.7396
17.5226
15.547
13.7952
12.2494
10.8916
9.70423
8.67005
7.77275
6.99697
6.32839
5.75389
5.26151
4.84049
4.48122
4.17516
3.91481
3.69356
3.50569
3.34621
3.21078
3.09568
2.99768
2.914
2.84226
2.78038
2.7266
2.6794
2.63746
2.59967
2.56507
2.53286
2.50234
2.47296
2.44424
2.41583
2.38745
2.35891
2.33009
2.30098
2.27182
2.24327
2.21544
2.18852
2.16274
2.13839
2.11582
2.09545
2.07778
2.06336
2.05285
2.047
2.04668
2.05292
2.06694
2.09019
2.12447
2.172
2.2356
2.31887
2.42653
2.56478
2.74188
2.969
3.26134
3.63984
4.1338
4.78498
5.6545
6.83535
8.47675
10.836
14.3983
20.1713
30.4066
50.2971
90.8438
173.75
320.456
456.39
5.899
5.84929
5.80084
5.75364
5.70786
5.66366
5.62125
5.58084
5.54274
5.50735
5.4752
5.44697
5.42355
5.40652
5.39803
5.40043
5.41667
5.45041
5.50621
5.58969
5.70779
5.86906
6.08407
6.36593
6.73085
7.19898
7.79528
8.55067
9.50332
10.7
12.1976
14.064
16.379
19.2341
22.7313
26.9796
32.0906
38.1701
45.3092
53.5722
62.9854
73.5288
85.1311
97.6728
110.994
124.908
139.204
153.667
168.081
182.238
195.943
209.01
221.3
232.732
243.24
252.779
261.325
268.881
275.476
281.127
285.878
289.781
292.892
295.263
296.945
297.985
298.425
298.304
297.657
296.523
294.913
292.849
290.359
287.467
284.194
280.559
276.577
272.263
267.63
262.689
257.452
251.931
246.138
240.085
233.786
227.256
220.511
213.567
206.443
199.158
191.733
184.19
176.551
168.84
161.083
153.304
145.53
137.786
130.099
122.496
115.003
107.646
100.45
93.4398
86.6375
80.065
73.742
67.6863
61.9135
56.4366
51.2662
46.4098
41.8722
37.6552
33.7575
30.175
26.9008
23.9253
21.2367
18.821
16.6627
14.7449
13.0499
11.5595
10.2556
9.12007
8.13562
7.28567
6.55469
5.92826
5.39323
4.93764
4.55081
4.22323
3.9465
3.71327
3.51712
3.3525
3.21457
3.09918
3.00274
2.92216
2.85478
2.79829
2.75072
2.71035
2.67569
2.64547
2.61859
2.59407
2.57111
2.54899
2.52713
2.50501
2.48223
2.45846
2.43347
2.40708
2.3792
2.34986
2.31947
2.28875
2.25786
2.22699
2.19641
2.16644
2.13745
2.1099
2.08429
2.06123
2.04136
2.02545
2.01436
2.00906
2.01069
2.02061
2.04043
2.07213
2.11817
2.18172
2.26686
2.37898
2.52532
2.71569
2.96355
3.28767
3.71455
4.28232
5.0472
6.09514
7.56407
9.69093
12.9192
18.1628
27.4482
45.4181
81.7843
154.855
280.977
399.476
5.38919
5.33171
5.2754
5.22025
5.16629
5.11355
5.06204
5.01179
4.96281
4.91515
4.86886
4.82402
4.7807
4.73931
4.70016
4.66368
4.63039
4.60097
4.57629
4.55741
4.54565
4.54264
4.55038
4.57129
4.60841
4.66545
4.74708
4.85916
5.00915
5.20665
5.46409
5.79778
6.22913
6.7865
7.50745
8.44164
9.65427
11.2298
13.2754
15.9227
19.3267
23.6596
29.0975
35.7993
43.8782
53.3665
64.1752
76.1739
89.159
102.874
117.037
131.382
145.651
159.579
172.953
185.603
197.403
208.269
218.149
227.017
234.872
241.733
247.636
252.621
256.735
260.026
262.542
264.33
265.437
265.909
265.791
265.084
263.828
262.059
259.81
257.11
253.985
250.458
246.55
242.281
237.669
232.731
227.486
221.95
216.143
210.081
203.785
197.274
190.571
183.696
176.673
169.525
162.279
154.958
147.589
140.2
132.817
125.468
118.179
110.98
103.895
96.9519
90.1757
83.5904
77.2188
71.0819
65.1987
59.5861
54.2585
49.2274
44.5017
40.0872
35.9865
32.1994
28.7224
25.549
22.6702
20.0743
17.7476
15.6746
13.8383
12.221
10.8043
9.56994
8.49985
7.57657
6.78355
6.10528
5.52749
5.03715
4.62254
4.2732
3.9799
3.73453
3.53004
3.36028
3.21997
3.10454
3.01006
2.93314
2.87087
2.82073
2.78054
2.7484
2.72268
2.70195
2.68495
2.67058
2.65789
2.64603
2.63427
2.62196
2.60856
2.59358
2.57664
2.5574
2.53562
2.51113
2.48384
2.45376
2.42152
2.38792
2.35314
2.3174
2.28096
2.24419
2.20749
2.17136
2.13634
2.10308
2.07229
2.04474
2.02134
2.00306
1.99103
1.98654
1.99107
2.00643
2.03482
2.07901
2.14254
2.23011
2.34796
2.50463
2.71191
2.98634
3.35152
3.84166
4.50766
5.42761
6.72699
8.62053
11.5069
16.1996
24.4845
40.4155
72.3895
135.547
242.782
346.196
5.14413
5.08378
5.02456
4.96648
4.90953
4.85369
4.79896
4.74533
4.69277
4.64127
4.59082
4.54139
4.49299
4.44571
4.39958
4.35467
4.31107
4.2689
4.22833
4.18958
4.15294
4.11874
4.08742
4.05954
4.03575
4.01688
4.00393
3.99816
4.00113
4.01479
4.04166
4.08494
4.14884
4.23891
4.36256
4.52989
4.75474
5.0563
5.46136
6.00749
6.74733
7.754
9.12748
11
13.5332
16.9215
21.4193
27.2177
34.4513
43.1687
53.3115
64.715
77.1239
90.2239
103.685
117.194
130.473
143.292
155.466
166.856
177.366
186.935
195.533
203.156
209.815
215.535
220.35
224.3
227.427
229.781
231.416
232.364
232.627
232.253
231.286
229.766
227.728
225.206
222.228
218.824
215.017
210.835
206.299
201.433
196.26
190.804
185.088
179.136
172.973
166.623
160.112
153.468
146.716
139.886
133.004
126.099
119.199
112.334
105.532
98.8205
92.227
85.7781
79.4991
73.4141
67.5453
61.913
56.5352
51.4275
46.6028
42.0709
37.8387
33.9099
30.2848
26.9607
23.9318
21.1894
18.7223
16.5169
14.5578
12.8284
11.3108
9.98689
8.83842
7.84748
6.9968
6.27009
5.65215
5.12905
4.68819
4.31825
4.00925
3.7524
3.54004
3.36555
3.2232
3.10807
3.01592
2.94313
2.88656
2.8435
2.81161
2.78886
2.77346
2.76386
2.75867
2.75668
2.75681
2.75808
2.75963
2.76069
2.76055
2.7586
2.75428
2.74709
2.73661
2.72247
2.70439
2.68213
2.65556
2.62466
2.59031
2.55342
2.51415
2.47271
2.42939
2.38455
2.33865
2.29221
2.24585
2.20027
2.15628
2.11474
2.07661
2.04297
2.01497
1.9939
1.98125
1.97868
1.98823
2.01236
2.05418
2.11775
2.20845
2.33366
2.50356
2.73256
3.04134
3.46016
4.03431
4.83364
5.9705
7.63645
10.1841
14.3247
21.6014
35.4766
63.0675
116.716
206.83
296.713
5.0209
4.95934
4.89893
4.83964
4.78146
4.72437
4.66835
4.61339
4.55945
4.50651
4.45456
4.40354
4.35349
4.30438
4.25622
4.20898
4.16268
4.11733
4.07294
4.02956
3.98724
3.94604
3.90607
3.86744
3.83032
3.79489
3.7614
3.73016
3.70155
3.67603
3.6542
3.63681
3.62482
3.61946
3.62235
3.63562
3.66213
3.70576
3.77189
3.868
4.00473
4.19732
4.46796
4.84927
5.39357
6.18243
7.32194
8.95284
11.2515
14.4219
18.6747
24.1933
31.0928
39.3851
48.965
59.6212
71.0699
82.996
95.0895
107.07
118.701
129.791
140.195
149.812
158.574
166.441
173.401
179.455
184.622
188.932
192.425
195.16
197.124
198.339
198.854
198.713
197.96
196.635
194.774
192.414
189.588
186.326
182.658
178.615
174.224
169.514
164.512
159.248
153.749
148.045
142.163
136.134
129.987
123.752
117.459
111.138
104.819
98.5322
92.3069
86.1717
80.1544
74.2818
68.579
63.0696
57.7751
52.7148
47.9055
43.3611
39.0926
35.1078
31.4113
28.0043
24.8848
22.0474
19.4841
17.184
15.134
13.319
11.7225
10.3272
9.11519
8.06865
7.17012
6.40286
5.75112
5.20033
4.73721
4.34983
4.02756
3.76109
3.54228
3.3641
3.2205
3.10627
3.01695
2.94874
2.89833
2.8629
2.83999
2.82748
2.82347
2.82632
2.83455
2.84686
2.86205
2.87906
2.89692
2.91473
2.93167
2.94698
2.95996
2.96996
2.97638
2.97865
2.97628
2.9688
2.95582
2.93701
2.91211
2.88102
2.84498
2.80498
2.76111
2.71356
2.66256
2.60849
2.55178
2.49302
2.43289
2.37219
2.31184
2.25285
2.19635
2.14356
2.09579
2.05445
2.0211
1.99741
1.98534
1.98715
2.00564
2.04433
2.10789
2.2026
2.33721
2.52411
2.78119
3.13481
3.62465
4.31223
5.29659
6.74603
8.9676
12.5726
18.8695
30.7555
54.1471
98.9927
173.802
251.305
4.95812
4.89599
4.835
4.77515
4.71641
4.65876
4.60218
4.54663
4.4921
4.43856
4.38599
4.33436
4.28367
4.23389
4.185
4.13698
4.08982
4.04351
3.99803
3.95337
3.90955
3.86656
3.8244
3.78312
3.74272
3.70326
3.6648
3.62739
3.59113
3.55615
3.5226
3.49065
3.46056
3.43264
3.40727
3.38499
3.36648
3.35263
3.34468
3.34428
3.35372
3.37623
3.41641
3.48118
3.58301
3.74028
3.97898
4.33742
4.87136
5.66024
6.81354
8.47449
10.817
14.0311
18.2952
23.7396
30.4116
38.255
47.1129
56.7517
66.8966
77.2673
87.6037
97.6817
107.318
116.372
124.738
132.347
139.157
145.148
150.324
154.707
158.345
161.176
163.238
164.569
165.212
165.208
164.597
163.418
161.71
159.507
156.846
153.76
150.284
146.45
142.291
137.838
133.125
128.183
123.045
117.743
112.308
106.774
101.172
95.5346
89.8928
84.2777
78.7196
73.2478
67.8903
62.6736
57.6227
52.7603
48.1069
43.6804
39.4958
35.5652
31.8972
28.4974
25.3677
22.5067
19.9099
17.5697
15.4757
13.6154
11.9742
10.5363
9.28486
8.20279
7.27296
6.47873
5.80427
5.23476
4.75661
4.3575
4.02649
3.7539
3.53132
3.35146
3.20808
3.09581
3.01008
2.947
2.9032
2.87582
2.86236
2.86063
2.86874
2.88498
2.90783
2.93594
2.96804
3.00301
3.03979
3.0774
3.11493
3.15151
3.18632
3.21857
3.24753
3.27246
3.29267
3.30748
3.31626
3.31839
3.31331
3.30051
3.27953
3.25012
3.21404
3.17225
3.12474
3.07154
3.01281
2.9488
2.87992
2.80675
2.73
2.65061
2.56963
2.48832
2.40807
2.33037
2.25685
2.1892
2.12921
2.07875
2.03984
2.01473
2.00599
2.0168
2.05118
2.11452
2.21424
2.36088
2.5697
2.86335
3.2761
3.86132
4.70502
5.95285
7.86815
10.9679
16.342
26.3681
45.8718
82.792
144.121
210.23
4.92641
4.86396
4.80268
4.74254
4.68352
4.62559
4.56873
4.51291
4.45811
4.4043
4.35146
4.29957
4.2486
4.19854
4.14936
4.10105
4.05358
4.00692
3.96108
3.91602
3.87174
3.82823
3.78546
3.74344
3.70217
3.66164
3.62186
3.58284
3.54459
3.50714
3.47053
3.43479
3.4
3.36622
3.33356
3.30215
3.27216
3.24383
3.21747
3.19347
3.17239
3.155
3.14236
3.13613
3.13932
3.15618
3.19283
3.2583
3.36605
3.53597
3.79741
4.19315
4.78443
5.65613
6.92047
8.71592
11.1976
14.517
18.7927
24.0807
30.3542
37.5009
45.3389
53.6438
62.1786
70.7181
79.0632
87.0491
94.5461
101.458
107.72
113.297
118.191
122.4
125.848
128.555
130.549
131.861
132.524
132.574
132.048
130.983
129.415
127.381
124.918
122.061
118.846
115.309
111.485
107.409
103.116
98.6403
94.0173
89.281
84.4651
79.6032
74.7279
69.8711
65.0635
60.3348
55.7128
51.2236
46.8913
42.7375
38.7811
35.0383
31.522
28.2417
25.2037
22.4108
19.8623
17.5543
15.4799
13.6295
11.9912
10.5514
9.29513
8.2066
7.26977
6.46875
5.78817
5.21351
4.7313
4.3293
3.99655
3.72334
3.50122
3.3229
3.18211
3.07351
2.99257
2.93542
2.89877
2.8798
2.87606
2.88543
2.90604
2.93621
2.97445
3.01939
3.06976
3.1244
3.18222
3.24219
3.30335
3.36474
3.42548
3.48469
3.54151
3.5951
3.64462
3.68923
3.72811
3.7604
3.78529
3.80194
3.80954
3.80731
3.79451
3.77063
3.73821
3.69799
3.64969
3.59307
3.52802
3.45458
3.37297
3.28366
3.18736
3.08505
2.97801
2.86778
2.75614
2.64508
2.53674
2.43336
2.33723
2.25067
2.17605
2.11579
2.07251
2.04916
2.04933
2.07763
2.14032
2.24624
2.40826
2.64552
2.98721
3.47893
4.1943
5.25754
6.89128
9.52596
14.0544
22.3922
38.4019
68.3538
117.99
173.662
4.91074
4.84812
4.78667
4.72638
4.66721
4.60914
4.55214
4.49619
4.44126
4.38732
4.33436
4.28235
4.23126
4.18108
4.13178
4.08335
4.03575
3.98897
3.943
3.8978
3.85337
3.80969
3.76673
3.7245
3.68297
3.64213
3.60198
3.56251
3.52371
3.48558
3.44812
3.41134
3.37525
3.33986
3.30519
3.27128
3.23816
3.20591
3.17459
3.1443
3.1152
3.08747
3.06138
3.03735
3.01614
2.99882
2.98689
2.98262
2.98936
3.01207
3.0581
3.13827
3.26844
3.47173
3.78141
4.24458
4.92587
5.91016
7.30197
9.21899
11.7777
15.0723
19.1525
24.006
29.5549
35.6638
42.1597
48.8544
55.5643
62.1241
68.3954
74.2698
79.6757
84.599
88.9412
92.6483
95.7103
98.1303
99.9213
101.104
101.703
101.749
101.274
100.31
98.8935
97.0597
94.8449
92.2855
89.4181
86.2794
82.9057
79.3335
75.5988
71.7371
67.7834
63.7719
59.7361
55.708
51.7184
47.7966
43.9697
40.2629
36.6987
33.2971
30.075
27.0461
24.2208
21.606
19.2051
17.0184
15.0426
13.2718
11.6972
10.308
9.09191
8.03519
7.12361
6.34273
5.67835
5.11687
4.64556
4.25274
3.92789
3.66168
3.44597
3.27373
3.13894
3.03649
2.96207
2.91201
2.88321
2.87304
2.87923
2.89979
2.93299
2.97726
3.0312
3.09349
3.16294
3.2384
3.3188
3.4031
3.49031
3.57946
3.66963
3.75988
3.8493
3.93697
4.02196
4.10335
4.18018
4.25146
4.31617
4.37328
4.4217
4.46032
4.48802
4.50364
4.50605
4.49447
4.47252
4.44027
4.39698
4.34189
4.27441
4.19411
4.10083
3.99471
3.87632
3.74663
3.6071
3.45961
3.3065
3.15046
2.99444
2.84156
2.69504
2.55804
2.43366
2.3249
2.23473
2.16617
2.1226
2.10806
2.12781
2.18917
2.3028
2.48462
2.75907
3.16452
3.76307
4.65919
6.0384
8.25401
12.0256
18.8701
31.8224
55.7779
95.4263
141.651
4.90322
4.8405
4.77897
4.71859
4.65935
4.60121
4.54415
4.48813
4.43314
4.37915
4.32613
4.27407
4.22293
4.1727
4.12335
4.07487
4.02723
3.98041
3.93438
3.88914
3.84466
3.80093
3.75792
3.71562
3.67402
3.6331
3.59284
3.55324
3.51428
3.47596
3.43826
3.40118
3.36471
3.32886
3.29361
3.25898
3.22497
3.19159
3.15887
3.12682
3.09548
3.0649
3.03514
3.00633
2.97865
2.95238
2.92791
2.90582
2.88697
2.87264
2.86475
2.8661
2.88084
2.91502
2.97741
3.08064
3.24273
3.48907
3.85478
4.38704
5.14661
6.20719
7.65094
9.559
11.9977
15.0033
18.5702
22.6458
27.136
31.9164
36.8478
41.7921
46.6259
51.2584
55.6452
59.6448
63.1941
66.2512
68.7922
70.8074
72.2987
73.2768
73.7594
73.7693
73.3333
72.4815
71.2457
69.6594
67.7575
65.5753
63.1486
60.5132
57.7049
54.7592
51.7108
48.5937
45.4407
42.2833
39.1512
36.0726
33.073
30.1756
27.401
24.7665
22.2866
19.972
17.8304
15.8659
14.0793
12.4685
11.0285
9.75189
8.6294
7.65026
6.80274
6.0746
5.45358
4.9277
4.48563
4.11686
3.81186
3.56216
3.36032
3.19993
3.07552
2.98246
2.91685
2.87542
2.85542
2.85455
2.87082
2.90252
2.94814
3.00634
3.07586
3.15556
3.24436
3.34119
3.44507
3.55499
3.67001
3.78916
3.91152
4.03615
4.16211
4.28847
4.41427
4.53852
4.66021
4.77828
4.89164
4.99912
5.09949
5.19145
5.27364
5.3446
5.40281
5.4467
5.47464
5.48566
5.48474
5.47056
5.44156
5.39623
5.33316
5.25116
5.14939
5.02743
4.88548
4.72436
4.54562
4.35151
4.14501
3.9297
3.70963
3.48922
3.27304
3.06562
2.87136
2.69438
2.5385
2.40731
2.30434
2.23337
2.19893
2.20703
2.26631
2.38974
2.59735
2.9209
3.41194
4.15704
5.30874
7.15299
10.2612
15.8147
26.1553
45.0546
76.305
114.111
4.89971
4.83695
4.77537
4.71496
4.65568
4.59751
4.54042
4.48438
4.42936
4.37535
4.32231
4.27023
4.21907
4.16883
4.11947
4.07097
4.02331
3.97648
3.93045
3.8852
3.84071
3.79696
3.75394
3.71163
3.67001
3.62907
3.5888
3.54917
3.51017
3.4718
3.43403
3.39687
3.3603
3.32431
3.2889
3.25406
3.21979
3.18608
3.15294
3.12038
3.08839
3.05698
3.02619
2.99602
2.96654
2.93781
2.90995
2.88309
2.85745
2.83339
2.81138
2.79218
2.77689
2.76711
2.76522
2.7746
2.80015
2.84876
2.93013
3.05768
3.24976
3.53091
3.93308
4.49613
5.26711
6.29724
7.63629
9.32452
11.3838
13.8102
16.5709
19.6056
22.8343
26.1706
29.5606
32.9079
36.1056
39.0699
41.7351
44.0531
45.9915
47.5322
48.6681
49.4022
49.7448
49.7125
49.3269
48.6131
47.599
46.3148
44.7919
43.0628
41.1602
39.1171
36.966