/*--------------------------------*- C++ -*----------------------------------*\
| =========                 |                                                 |
| \\      /  F ield         | OpenFOAM: The Open Source CFD Toolbox           |
|  \\    /   O peration     | Version:  2.4.0                                 |
|   \\  /    A nd           | Web:      www.OpenFOAM.org                      |
|    \\/     M anipulation  |                                                 |
\*---------------------------------------------------------------------------*/
FoamFile
{
    version     2.0;
    format      ascii;
    class       volScalarField;
    location    "0.035";
    object      k;
}
// * * * * * * * * * * * * * * * * * * * * * * * * * * * * * * * * * * * * * //

dimensions      [0 2 -2 0 0 0 0];

internalField   nonuniform List<scalar> 
17600
(
0.590242
0.786978
0.938818
1.04137
1.10105
1.12787
1.13171
1.12067
1.10079
1.07629
1.04999
1.02371
0.99859
0.975299
0.954208
0.935472
0.9191
0.904991
0.89278
0.88441
0.380328
0.378528
0.375866
0.373344
0.371175
0.369843
0.369905
0.371841
0.376008
0.382643
0.391865
0.403678
0.417973
0.434524
0.452991
0.472935
0.493838
0.515151
0.536764
0.556119
0.363748
0.349867
0.334429
0.31855
0.303052
0.288614
0.275769
0.264896
0.256243
0.249955
0.246108
0.244734
0.245832
0.24938
0.255331
0.263606
0.274091
0.286641
0.301243
0.317915
0.361465
0.347537
0.333149
0.318509
0.303939
0.289764
0.276271
0.263688
0.25219
0.241899
0.232901
0.225253
0.218992
0.214146
0.210735
0.208777
0.20829
0.209303
0.211914
0.216245
0.361236
0.3478
0.334532
0.321372
0.308383
0.29568
0.283387
0.271619
0.26047
0.250016
0.240308
0.231387
0.223277
0.215995
0.20955
0.203951
0.199206
0.195329
0.192357
0.190294
0.361254
0.348125
0.335506
0.323265
0.31135
0.299767
0.288544
0.277726
0.267352
0.257461
0.248081
0.239233
0.230934
0.223192
0.216011
0.209393
0.203337
0.197845
0.192921
0.18855
0.361278
0.348296
0.336005
0.324272
0.313005
0.302153
0.291692
0.281615
0.271927
0.262636
0.253751
0.245278
0.237223
0.229588
0.222374
0.215579
0.2092
0.203234
0.197676
0.192522
0.361288
0.348366
0.336226
0.324751
0.313844
0.303433
0.293466
0.283908
0.274736
0.265937
0.257502
0.249425
0.241701
0.234327
0.227296
0.220606
0.21425
0.208223
0.202518
0.19714
0.361291
0.348391
0.336314
0.324959
0.314237
0.304073
0.294403
0.285179
0.276362
0.267923
0.259841
0.252098
0.244681
0.237578
0.23078
0.224279
0.218065
0.212132
0.206472
0.201093
0.361291
0.348398
0.336345
0.325042
0.314408
0.304371
0.294868
0.285843
0.277251
0.269055
0.261224
0.253733
0.246561
0.239691
0.233109
0.226801
0.220757
0.214966
0.20942
0.204126
0.36129
0.348399
0.336353
0.325071
0.314476
0.304501
0.295083
0.286169
0.27771
0.269665
0.262
0.254684
0.247691
0.241
0.234591
0.22845
0.222561
0.216911
0.211492
0.206309
0.361289
0.348397
0.336354
0.325079
0.3145
0.304552
0.295176
0.286319
0.277934
0.269977
0.262414
0.25521
0.248337
0.241772
0.235492
0.229479
0.223715
0.218186
0.212881
0.207805
0.361288
0.348395
0.336352
0.325079
0.314506
0.30457
0.295213
0.286384
0.278036
0.270128
0.262623
0.255487
0.24869
0.242208
0.236015
0.230093
0.224422
0.218986
0.213773
0.208785
0.361288
0.348393
0.336349
0.325076
0.314505
0.304573
0.295224
0.286408
0.278079
0.270196
0.262722
0.255625
0.248874
0.242442
0.236306
0.230444
0.224838
0.219468
0.214322
0.209403
0.361287
0.348392
0.336347
0.325073
0.314502
0.304571
0.295226
0.286415
0.278094
0.270223
0.262766
0.255689
0.248963
0.242562
0.23646
0.230637
0.225071
0.219747
0.214648
0.209776
0.361287
0.348391
0.336345
0.32507
0.314499
0.304568
0.295223
0.286415
0.278098
0.270233
0.262783
0.255717
0.249005
0.24262
0.236538
0.230737
0.225197
0.219901
0.214833
0.209994
0.361286
0.34839
0.336343
0.325068
0.314496
0.304565
0.295221
0.286412
0.278097
0.270234
0.262788
0.255727
0.249022
0.242646
0.236575
0.230787
0.225262
0.219983
0.214934
0.210115
0.361286
0.348389
0.336342
0.325066
0.314494
0.304563
0.295218
0.28641
0.278095
0.270233
0.262789
0.25573
0.249028
0.242656
0.236591
0.23081
0.225294
0.220025
0.214986
0.21018
0.361286
0.348389
0.336341
0.325065
0.314493
0.304561
0.295216
0.286408
0.278093
0.270232
0.262788
0.255731
0.24903
0.24266
0.236598
0.23082
0.225308
0.220044
0.215012
0.210213
0.361286
0.348388
0.336341
0.325065
0.314492
0.30456
0.295215
0.286407
0.278092
0.270231
0.262787
0.25573
0.24903
0.242661
0.2366
0.230824
0.225314
0.220052
0.215022
0.210226
0.361286
0.348388
0.336341
0.325065
0.314492
0.30456
0.295215
0.286407
0.278092
0.270231
0.262787
0.25573
0.24903
0.242661
0.2366
0.230824
0.225314
0.220052
0.215022
0.210225
0.361286
0.348389
0.336341
0.325065
0.314493
0.304561
0.295216
0.286408
0.278093
0.270232
0.262788
0.255731
0.24903
0.24266
0.236598
0.23082
0.225309
0.220044
0.215012
0.210212
0.361286
0.348389
0.336342
0.325066
0.314494
0.304563
0.295218
0.28641
0.278095
0.270233
0.262789
0.25573
0.249028
0.242657
0.236591
0.23081
0.225294
0.220025
0.214986
0.210179
0.361286
0.34839
0.336343
0.325068
0.314496
0.304565
0.295221
0.286412
0.278097
0.270234
0.262788
0.255728
0.249022
0.242646
0.236575
0.230787
0.225263
0.219983
0.214933
0.210114
0.361287
0.348391
0.336345
0.32507
0.314499
0.304568
0.295223
0.286415
0.278098
0.270233
0.262783
0.255717
0.249005
0.24262
0.236538
0.230737
0.225198
0.219902
0.214833
0.209992
0.361287
0.348392
0.336347
0.325073
0.314502
0.304571
0.295226
0.286415
0.278094
0.270223
0.262766
0.255689
0.248964
0.242562
0.23646
0.230637
0.225072
0.219748
0.214648
0.209775
0.361288
0.348393
0.336349
0.325076
0.314505
0.304573
0.295224
0.286408
0.278079
0.270196
0.262722
0.255625
0.248874
0.242442
0.236306
0.230445
0.224838
0.219469
0.214323
0.209402
0.361288
0.348395
0.336352
0.325079
0.314506
0.30457
0.295213
0.286384
0.278036
0.270128
0.262623
0.255487
0.24869
0.242208
0.236016
0.230094
0.224423
0.218988
0.213774
0.208786
0.361289
0.348397
0.336354
0.325079
0.3145
0.304552
0.295176
0.286319
0.277934
0.269977
0.262414
0.25521
0.248338
0.241772
0.235493
0.229479
0.223716
0.218189
0.212883
0.207807
0.36129
0.348399
0.336353
0.325071
0.314476
0.304501
0.295083
0.286169
0.27771
0.269665
0.262
0.254684
0.247691
0.241
0.234592
0.228451
0.222562
0.216914
0.211496
0.206316
0.361291
0.348398
0.336345
0.325042
0.314408
0.304371
0.294868
0.285843
0.277251
0.269055
0.261224
0.253733
0.246561
0.239692
0.23311
0.226803
0.220759
0.21497
0.209425
0.204138
0.361291
0.348391
0.336314
0.324959
0.314237
0.304073
0.294403
0.285179
0.276362
0.267923
0.259841
0.252098
0.244681
0.237579
0.230781
0.22428
0.218068
0.212137
0.206479
0.201111
0.361288
0.348366
0.336226
0.324751
0.313844
0.303434
0.293466
0.283908
0.274737
0.265938
0.257502
0.249425
0.241702
0.234327
0.227297
0.220608
0.214253
0.208227
0.202524
0.197163
0.361278
0.348296
0.336005
0.324272
0.313005
0.302153
0.291692
0.281615
0.271927
0.262636
0.253751
0.245278
0.237223
0.229589
0.222375
0.215581
0.209203
0.203237
0.197674
0.192537
0.361254
0.348125
0.335506
0.323265
0.31135
0.299767
0.288544
0.277726
0.267352
0.257461
0.248081
0.239234
0.230935
0.223193
0.216012
0.209394
0.203338
0.197842
0.192894
0.188513
0.361236
0.3478
0.334532
0.321372
0.308383
0.29568
0.283387
0.271619
0.260471
0.250016
0.240309
0.231388
0.223278
0.215995
0.20955
0.203951
0.199202
0.195308
0.192259
0.190052
0.361465
0.347537
0.333149
0.318509
0.303939
0.289764
0.276271
0.263689
0.25219
0.241899
0.232902
0.225253
0.218993
0.214146
0.210733
0.208772
0.208274
0.209244
0.211651
0.215403
0.363748
0.349867
0.334429
0.31855
0.303052
0.288614
0.275769
0.264896
0.256243
0.249955
0.246108
0.244733
0.245831
0.249378
0.255326
0.263595
0.274062
0.286546
0.300772
0.316402
0.380328
0.378528
0.375866
0.373344
0.371175
0.369843
0.369905
0.371841
0.376008
0.382643
0.391864
0.403677
0.417973
0.434523
0.452991
0.472934
0.493836
0.515138
0.53626
0.556944
0.590242
0.786977
0.938818
1.04137
1.10104
1.12787
1.13171
1.12067
1.10079
1.07629
1.04999
1.02372
0.998596
0.975311
0.954229
0.935511
0.919176
0.905139
0.893294
0.883139
1.12097
1.37809
1.62575
1.85318
2.04825
2.206
2.32948
2.42523
2.5006
2.56207
2.61453
2.66126
2.7043
2.74494
2.78408
2.82243
2.8605
2.8987
2.93739
2.97687
3.01742
3.05923
3.10251
3.14743
3.19417
3.24288
3.29373
3.34688
3.40247
3.46065
3.52156
3.58534
3.65209
3.72191
3.79485
3.87092
3.95011
4.0323
4.11736
4.20506
4.2951
4.38716
4.4808
4.57558
4.67097
4.76643
4.86142
4.95536
5.04769
5.13789
5.22544
5.30987
5.39075
5.46767
5.54029
5.60828
5.67137
5.72931
5.78189
5.82893
5.87026
5.90574
5.93519
5.95847
5.97557
5.98646
5.99108
5.98936
5.98124
5.96663
5.94547
5.9177
5.88339
5.84276
5.79593
5.74302
5.68415
5.61945
5.54904
5.47306
5.39169
5.30509
5.21346
5.11703
5.01602
4.91067
4.80124
4.68801
4.57126
4.45127
4.32835
4.20282
4.07498
3.94516
3.8137
3.68093
3.54719
3.41283
3.27819
3.14361
3.00944
2.87602
2.74369
2.61277
2.4836
2.35648
2.23172
2.10962
1.99045
1.87447
1.76192
1.65304
1.54802
1.44705
1.35028
1.25785
1.16986
1.08639
1.00748
0.933157
0.863411
0.798204
0.737469
0.681113
0.629017
0.58104
0.537018
0.496772
0.460106
0.426813
0.396679
0.369484
0.345009
0.323035
0.303349
0.285745
0.270024
0.256001
0.243501
0.232364
0.22244
0.213595
0.205706
0.198664
0.19237
0.186739
0.181693
0.177166
0.173099
0.169442
0.166151
0.163187
0.16052
0.158121
0.155969
0.154043
0.152329
0.150815
0.149492
0.148354
0.147396
0.146618
0.14603
0.145637
0.145448
0.145473
0.145728
0.146232
0.147006
0.148079
0.149484
0.151262
0.153464
0.156151
0.159396
0.163293
0.167953
0.173514
0.180146
0.188058
0.197504
0.208798
0.222321
0.23854
0.25803
0.281507
0.309876
0.344327
0.386478
0.438664
0.504475
0.589813
0.705068
0.869274
1.11748
1.50734
2.12101
2.99311
4.17905
2.59003
0.579312
0.623908
0.691756
0.784965
0.902422
1.04005
1.19154
1.34923
1.50545
1.65382
1.79001
1.91199
2.01974
2.11458
2.19858
2.27392
2.34254
2.40603
2.46561
2.52225
2.57672
2.62973
2.68188
2.73376
2.78587
2.83869
2.89265
2.94812
3.00545
3.06496
3.12696
3.19173
3.25949
3.33047
3.40483
3.48267
3.56403
3.64889
3.73715
3.82862
3.92303
4.02004
4.11921
4.22005
4.322
4.42447
4.52681
4.6284
4.72859
4.82677
4.92234
5.01478
5.10357
5.18827
5.26848
5.34386
5.41409
5.47894
5.53819
5.59165
5.63917
5.68062
5.71588
5.74477
5.76724
5.78329
5.79286
5.79589
5.79231
5.78202
5.76494
5.74108
5.71061
5.67366
5.63036
5.58082
5.52517
5.46354
5.39605
5.32287
5.24415
5.16009
5.07087
4.97673
4.87789
4.77461
4.66715
4.55579
4.44081
4.32252
4.20123
4.07725
3.95092
3.82256
3.69252
3.56115
3.42879
3.2958
3.16254
3.02935
2.8966
2.76464
2.63381
2.50445
2.3769
2.25148
2.1285
2.00827
1.89106
1.77715
1.66678
1.56019
1.45757
1.35911
1.26497
1.17527
1.09012
1.00958
0.933693
0.86247
0.795885
0.733887
0.67639
0.623285
0.574433
0.529673
0.488821
0.45168
0.418034
0.387661
0.360332
0.335813
0.313876
0.294293
0.276847
0.261329
0.247541
0.235299
0.224432
0.214786
0.206217
0.198599
0.191818
0.185772
0.180373
0.175541
0.171209
0.167317
0.163814
0.160655
0.157803
0.155225
0.152893
0.150785
0.148882
0.147167
0.145628
0.144255
0.143041
0.141982
0.141075
0.140322
0.139734
0.139315
0.139074
0.139021
0.139172
0.139542
0.140152
0.141028
0.142201
0.143707
0.145591
0.147908
0.150725
0.154125
0.158208
0.163101
0.16896
0.175978
0.184397
0.194515
0.206704
0.221425
0.239254
0.260916
0.287339
0.319741
0.359783
0.409851
0.473591
0.556984
0.670562
0.833742
1.08255
1.47753
2.10435
3.01733
4.18461
2.95918
0.323439
0.330972
0.341777
0.357474
0.38035
0.412506
0.455941
0.512398
0.583031
0.667802
0.76568
0.87448
0.991079
1.11183
1.23307
1.35159
1.46497
1.57178
1.67147
1.76425
1.85082
1.93213
2.0092
2.08299
2.15439
2.22416
2.293
2.36154
2.43038
2.50009
2.5712
2.64423
2.71962
2.79776
2.879
2.9636
3.05175
3.14354
3.239
3.33802
3.44043
3.54592
3.65408
3.76444
3.87639
3.98931
4.10249
4.21521
4.32674
4.43637
4.54341
4.64722
4.74722
4.84289
4.93376
5.01946
5.09966
5.17408
5.2425
5.30475
5.36069
5.41021
5.45321
5.48958
5.51925
5.54219
5.55836
5.5677
5.57013
5.56554
5.55386
5.53526
5.50984
5.47771
5.439
5.39384
5.34236
5.2847
5.221
5.15142
5.07614
4.99536
4.90927
4.81811
4.72211
4.62154
4.51667
4.40778
4.29517
4.17915
4.06004
3.93817
3.81387
3.6875
3.55939
3.42992
3.29944
3.16831
3.03691
2.9056
2.77474
2.6447
2.51583
2.38849
2.26302
2.13975
2.01901
1.9011
1.78632
1.67493
1.56719
1.46334
1.36358
1.26809
1.17703
1.09051
1.00864
0.931478
0.859043
0.791333
0.728309
0.669899
0.615999
0.566476
0.52117
0.479898
0.442455
0.408622
0.378165
0.350844
0.326416
0.304639
0.285274
0.268089
0.252866
0.239395
0.227483
0.216952
0.207639
0.199396
0.192091
0.185608
0.179843
0.174704
0.170112
0.165998
0.162303
0.158975
0.15597
0.15325
0.150783
0.148542
0.146502
0.144645
0.142955
0.141419
0.140026
0.138768
0.137641
0.13664
0.135766
0.135023
0.13442
0.133963
0.133661
0.133524
0.133565
0.1338
0.134248
0.134934
0.135884
0.137133
0.138721
0.140696
0.14312
0.146065
0.149623
0.153908
0.15906
0.165257
0.172723
0.181737
0.192653
0.205918
0.222094
0.241904
0.266276
0.296443
0.334083
0.381603
0.442663
0.523239
0.63383
0.793846
1.03937
1.43181
2.05557
2.97417
4.06121
3.25397
0.21758
0.219122
0.220999
0.22341
0.226702
0.231298
0.237732
0.246665
0.258896
0.275592
0.297897
0.32703
0.364121
0.410095
0.465555
0.530605
0.604764
0.686975
0.775691
0.869062
0.965146
1.06214
1.15857
1.25339
1.34601
1.43629
1.52444
1.61091
1.6963
1.78125
1.86644
1.9525
2.04002
2.12953
2.22153
2.31643
2.41461
2.51632
2.62176
2.73097
2.84391
2.96037
3.08003
3.20245
3.32705
3.45317
3.58006
3.70693
3.83294
3.95725
4.07905
4.19757
4.3121
4.42204
4.52683
4.62603
4.71925
4.8062
4.88663
4.96038
5.02731
5.08732
5.14035
5.18637
5.22535
5.25721
5.28189
5.29934
5.30948
5.3122
5.30756
5.29567
5.27663
5.25058
5.21764
5.17797
5.1317
5.079
5.02002
4.95493
4.88394
4.80723
4.72503
4.63759
4.54514
4.44797
4.34635
4.24058
4.13097
4.01784
3.90152
3.78235
3.66068
3.53686
3.41127
3.28427
3.15623
3.02754
2.89856
2.76969
2.64129
2.51374
2.38742
2.26268
2.13987
2.01934
1.90143
1.78644
1.67467
1.56641
1.46191
1.36141
1.2651
1.17318
1.08579
1.00305
0.925036
0.8518
0.783352
0.719668
0.660689
0.606318
0.556429
0.510863
0.469437
0.431941
0.398149
0.36782
0.340703
0.316543
0.295086
0.276082
0.259287
0.244471
0.231416
0.219921
0.209799
0.200882
0.193019
0.186074
0.179928
0.174477
0.169628
0.165303
0.161432
0.157957
0.154826
0.151997
0.149432
0.147099
0.144971
0.143025
0.141242
0.139604
0.1381
0.136718
0.135449
0.134286
0.133227
0.132268
0.131409
0.130661
0.130031
0.129525
0.129151
0.128919
0.128842
0.128936
0.12922
0.129714
0.130444
0.131443
0.132746
0.134398
0.136454
0.138978
0.142053
0.14578
0.150286
0.155732
0.162322
0.170312
0.180035
0.191911
0.206482
0.224449
0.246727
0.274538
0.309552
0.354165
0.412
0.488946
0.595293
0.750052
0.988497
1.37102
1.97804
2.87453
3.88564
3.44204
0.189719
0.189216
0.188793
0.188471
0.188295
0.188319
0.188615
0.189279
0.190438
0.192264
0.194979
0.198859
0.204297
0.21177
0.221816
0.235065
0.252226
0.274051
0.301288
0.334609
0.374541
0.421394
0.475216
0.535779
0.602607
0.675025
0.752255
0.833499
0.918039
1.0053
1.09492
1.18672
1.28075
1.3772
1.4764
1.57873
1.68456
1.79426
1.90808
2.02619
2.14864
2.27533
2.40602
2.54036
2.67781
2.8177
2.95926
3.10159
3.24374
3.38472
3.52356
3.6593
3.79107
3.91812
4.03978
4.15549
4.26479
4.36729
4.4627
4.55085
4.6316
4.70481
4.77055
4.82887
4.87965
4.92279
4.95822
4.9859
5.00579
5.01781
5.02202
5.01853
5.00746
4.98897
4.9632
4.93032
4.8905
4.84392
4.79075
4.73119
4.66546
4.59378
4.51637
4.4335
4.34544
4.25246
4.15487
4.05297
3.94709
3.83756
3.72473
3.60895
3.49058
3.37
3.24758
3.12371
2.99877
2.87316
2.74726
2.62148
2.49619
2.3718
2.24866
2.12717
2.00769
1.89057
1.77614
1.66474
1.55666
1.45219
1.3516
1.2551
1.16291
1.07521
0.992129
0.913775
0.840216
0.771483
0.707566
0.648418
0.593953
0.54405
0.498553
0.457277
0.42001
0.386518
0.356554
0.329855
0.306157
0.285193
0.266702
0.25043
0.236138
0.223599
0.212605
0.202963
0.194503
0.18707
0.180526
0.174753
0.169646
0.165113
0.161077
0.15747
0.154235
0.151323
0.148691
0.146302
0.144126
0.142137
0.140312
0.13863
0.137077
0.135637
0.134299
0.133053
0.131893
0.130812
0.129806
0.128876
0.12802
0.127255
0.126585
0.126016
0.125558
0.125219
0.125014
0.124956
0.125064
0.125358
0.125864
0.12661
0.127631
0.128966
0.130667
0.132791
0.135412
0.138622
0.142533
0.14729
0.153075
0.160124
0.168741
0.179316
0.19236
0.20854
0.228741
0.25415
0.286404
0.327851
0.38203
0.454657
0.555657
0.703292
0.931289
1.29748
1.87707
2.73114
3.67825
3.52867
0.187269
0.186044
0.184867
0.18374
0.182669
0.181661
0.180724
0.179872
0.179124
0.178505
0.178049
0.1778
0.177816
0.178182
0.179004
0.180408
0.182551
0.185628
0.189878
0.195591
0.203116
0.21286
0.225294
0.240946
0.260387
0.284213
0.313021
0.347375
0.387779
0.434654
0.488317
0.548979
0.616745
0.691626
0.773567
0.862463
0.958193
1.06064
1.16969
1.28525
1.40721
1.53542
1.66963
1.80945
1.95435
2.10361
2.25634
2.41151
2.568
2.72459
2.88009
3.0333
3.18309
3.32853
3.46876
3.60305
3.73077
3.85136
3.96436
4.06966
4.16712
4.25668
4.33823
4.41169
4.47695
4.53393
4.58257
4.62283
4.65472
4.67825
4.69337
4.7002
4.69891
4.68967
4.67266
4.64808
4.61611
4.57698
4.53088
4.47806
4.41873
4.35314
4.28156
4.20427
4.12153
4.03367
3.94099
3.84383
3.74252
3.63741
3.52887
3.41726
3.30297
3.18639
3.0679
2.9479
2.82681
2.70502
2.58294
2.46098
2.33954
2.21903
2.09983
1.98233
1.8669
1.75392
1.64372
1.53664
1.43299
1.33304
1.23707
1.1453
1.05794
0.975135
0.897027
0.823703
0.75521
0.691556
0.632705
0.578581
0.52907
0.484019
0.443242
0.406524
0.373625
0.344289
0.318246
0.29522
0.274935
0.257119
0.241511
0.227861
0.215938
0.205528
0.196436
0.188489
0.181531
0.175427
0.170057
0.16532
0.161126
0.1574
0.154078
0.151103
0.148428
0.146014
0.143825
0.141832
0.14001
0.138335
0.136788
0.135353
0.134015
0.132762
0.131583
0.130468
0.12941
0.128405
0.127448
0.126537
0.125677
0.124885
0.124164
0.123521
0.122965
0.122506
0.122156
0.12193
0.121846
0.121925
0.12219
0.122669
0.123396
0.124408
0.125752
0.127481
0.129662
0.132377
0.135728
0.139843
0.144886
0.151068
0.158665
0.168034
0.179648
0.194131
0.212319
0.235349
0.264796
0.302923
0.35314
0.420916
0.515671
0.654626
0.869388
1.21407
1.75814
2.55607
3.44488
3.52048
0.190992
0.189513
0.188069
0.186662
0.185293
0.183961
0.182667
0.181413
0.180201
0.179036
0.177924
0.176872
0.175891
0.174997
0.174211
0.173557
0.173066
0.172776
0.172736
0.173004
0.17365
0.174765
0.176458
0.178865
0.182154
0.186533
0.192262
0.199657
0.209111
0.221097
0.236186
0.255056
0.27849
0.307375
0.342683
0.385436
0.43666
0.497322
0.568247
0.650051
0.74307
0.847327
0.96253
1.08811
1.22325
1.36696
1.51804
1.67515
1.83685
2.0016
2.16782
2.33384
2.4982
2.65978
2.81744
2.97011
3.11687
3.25699
3.38993
3.51506
3.63201
3.74054
3.84046
3.93162
4.0139
4.0872
4.15147
4.20668
4.25284
4.2901
4.31833
4.33757
4.34802
4.34988
4.34337
4.32873
4.30619
4.27599
4.23838
4.19362
4.14196
4.0837
4.01911
3.9485
3.87217
3.79046
3.7037
3.61224
3.51645
3.41669
3.31334
3.2068
3.09746
2.98573
2.87202
2.75674
2.64033
2.52319
2.40575
2.28844
2.17167
2.05585
1.94139
1.8287
1.71815
1.61012
1.50496
1.40301
1.30457
1.20994
1.11937
1.03309
0.95128
0.874097
0.801648
0.734002
0.67118
0.613162
0.55988
0.511227
0.467051
0.427168
0.391359
0.359379
0.330964
0.305836
0.28371
0.264301
0.24733
0.232528
0.21964
0.208432
0.198687
0.19021
0.182827
0.176387
0.170755
0.165816
0.161472
0.157637
0.154241
0.15122
0.148525
0.146109
0.143936
0.141973
0.140191
0.138566
0.137077
0.135704
0.13443
0.133241
0.132121
0.13106
0.130045
0.129068
0.128121
0.127197
0.126292
0.125403
0.124537
0.123714
0.122936
0.122211
0.121545
0.120949
0.120436
0.120021
0.119721
0.119557
0.119553
0.119738
0.120144
0.120808
0.121774
0.123093
0.124826
0.127048
0.129851
0.133351
0.137693
0.143067
0.149718
0.157972
0.168257
0.181149
0.197425
0.218152
0.24482
0.279578
0.325659
0.38822
0.476066
0.605156
0.804564
1.12388
1.62662
2.36024
3.19084
3.42802
0.195533
0.193973
0.192442
0.190941
0.189468
0.188025
0.186609
0.185222
0.183864
0.182534
0.181234
0.179966
0.178732
0.177535
0.176379
0.17527
0.174215
0.173222
0.172304
0.171474
0.170749
0.170149
0.169699
0.16943
0.169379
0.169593
0.170129
0.17106
0.172479
0.174504
0.177289
0.181034
0.186
0.192531
0.201075
0.21222
0.226724
0.245554
0.269909
0.301228
0.341155
0.391455
0.453857
0.529842
0.620388
0.725695
0.844912
0.977011
1.12047
1.2734
1.43377
1.5996
1.76888
1.93939
2.10917
2.2765
2.43987
2.59802
2.74989
2.89459
3.03138
3.15975
3.27928
3.38968
3.49071
3.5822
3.66405
3.73619
3.79863
3.8515
3.89494
3.92863
3.95279
3.96765
3.97346
3.97049
3.95902
3.93933
3.91171
3.87645
3.83385
3.78423
3.7279
3.6652
3.59646
3.52204
3.44231
3.35764
3.26841
3.17502
3.07787
2.97737
2.87395
2.76803
2.66004
2.55042
2.43961
2.32804
2.21615
2.10439
1.99319
1.88297
1.77416
1.66717
1.56238
1.46018
1.36094
1.26498
1.17262
1.08414
0.99979
0.919785
0.844297
0.773456
0.707348
0.64601
0.589434
0.537563
0.490292
0.447476
0.408929
0.374428
0.343724
0.316548
0.292613
0.271628
0.253301
0.237348
0.223496
0.211489
0.20109
0.192085
0.184281
0.17751
0.171623
0.166492
0.162007
0.158076
0.154619
0.151569
0.148869
0.146473
0.144338
0.142432
0.140722
0.139184
0.137795
0.136532
0.135379
0.134317
0.13333
0.132404
0.131525
0.130679
0.129855
0.129041
0.128228
0.127407
0.126572
0.125718
0.124857
0.124009
0.123176
0.122365
0.121581
0.120835
0.120139
0.119507
0.118959
0.118516
0.118203
0.118048
0.118087
0.118355
0.118898
0.119765
0.121014
0.122717
0.124956
0.127838
0.131493
0.13609
0.141849
0.149059
0.158108
0.169517
0.183997
0.202534
0.226513
0.257942
0.299839
0.356995
0.437517
0.555951
0.738578
1.02999
1.48769
2.15295
2.92255
3.26702
0.199479
0.19791
0.196366
0.194845
0.193349
0.191877
0.190428
0.189002
0.1876
0.186221
0.184864
0.183531
0.182222
0.180938
0.179678
0.178444
0.177239
0.176064
0.174922
0.173817
0.172753
0.171736
0.170772
0.16987
0.169039
0.168292
0.167643
0.16711
0.166717
0.166493
0.166473
0.166706
0.167253
0.168194
0.169639
0.171731
0.174671
0.178729
0.184282
0.191847
0.20214
0.216129
0.235109
0.260739
0.294971
0.340031
0.398639
0.472683
0.563321
0.670747
0.7941
0.931617
1.08085
1.23899
1.40318
1.57069
1.73906
1.90611
2.06996
2.229
2.38189
2.52757
2.66518
2.79407
2.91372
3.02375
3.12389
3.21396
3.29388
3.36369
3.42357
3.47347
3.51306
3.54262
3.56242
3.57278
3.57399
3.56637
3.55025
3.52596
3.49384
3.45424
3.4075
3.354
3.2941
3.22819
3.15667
3.07994
2.99841
2.9125
2.82263
2.72926
2.63281
2.53374
2.4325
2.32955
2.22535
2.12035
2.01502
1.9098
1.80515
1.70151
1.59932
1.49899
1.40092
1.30551
1.21311
1.12406
1.03868
0.957222
0.879937
0.807015
0.738608
0.674817
0.615695
0.561246
0.511419
0.466117
0.425195
0.388467
0.355708
0.326666
0.301064
0.278613
0.259017
0.24198
0.227216
0.214452
0.203435
0.193933
0.185735
0.178656
0.172535
0.167231
0.162623
0.158612
0.15511
0.152046
0.149359
0.146998
0.144922
0.143093
0.14148
0.140057
0.1388
0.137688
0.136701
0.135821
0.13503
0.134312
0.133652
0.133033
0.132439
0.131857
0.131272
0.13067
0.130037
0.129363
0.128636
0.127851
0.127022
0.126172
0.125302
0.124414
0.123514
0.12261
0.121713
0.120838
0.120004
0.119233
0.118554
0.117996
0.117596
0.117394
0.117436
0.117774
0.118468
0.119584
0.121205
0.123426
0.126368
0.130183
0.135065
0.141275
0.149155
0.159175
0.171975
0.188451
0.209872
0.238082
0.275856
0.32758
0.400607
0.507985
0.673079
0.935297
1.34609
1.94184
2.64698
3.05499
0.202535
0.200986
0.199458
0.197952
0.196466
0.195001
0.193557
0.192133
0.190729
0.189345
0.187981
0.186637
0.185312
0.184008
0.182722
0.181457
0.180212
0.178988
0.177785
0.176605
0.175448
0.174316
0.173211
0.172136
0.171092
0.170083
0.169114
0.168189
0.167315
0.1665
0.165755
0.165091
0.164526
0.16408
0.163782
0.163668
0.163788
0.164207
0.165017
0.166344
0.168365
0.171328
0.175591
0.181667
0.190341
0.202784
0.220492
0.245379
0.279755
0.32616
0.387036
0.464282
0.558804
0.67024
0.796984
0.936478
1.08564
1.24129
1.40038
1.56019
1.71832
1.87278
2.0219
2.16432
2.29896
2.42498
2.54174
2.64875
2.74571
2.83245
2.90899
2.97556
3.03161
3.07702
3.11206
3.13705
3.15228
3.1581
3.15485
3.14289
3.12259
3.09433
3.05849
3.01548
2.96569
2.90954
2.84745
2.77986
2.70721
2.62994
2.54851
2.46339
2.37503
2.28392
2.19054
2.09535
1.99884
1.90148
1.80377
1.70615
1.60912
1.5131
1.41856
1.32592
1.2356
1.14796
1.06339
0.982213
0.904721
0.831174
0.761789
0.696733
0.636124
0.580028
0.528458
0.481371
0.438674
0.400224
0.365832
0.335273
0.308292
0.28461
0.263934
0.245969
0.23042
0.217005
0.205457
0.195528
0.186995
0.179659
0.173346
0.167904
0.163204
0.159138
0.155614
0.152555
0.149898
0.14759
0.145587
0.143853
0.142355
0.141068
0.139968
0.139035
0.138248
0.137591
0.137046
0.136596
0.136224
0.135913
0.135647
0.135407
0.135176
0.134936
0.134668
0.134356
0.133981
0.133526
0.132977
0.132322
0.131583
0.130782
0.129917
0.128986
0.127991
0.126937
0.125834
0.124694
0.123535
0.122383
0.121265
0.120216
0.119276
0.118492
0.117915
0.117602
0.117615
0.118027
0.118917
0.120381
0.12253
0.125503
0.129476
0.134679
0.141419
0.150109
0.161323
0.175863
0.194872
0.220019
0.253817
0.300221
0.365803
0.462089
0.60952
0.842356
1.20604
1.73313
2.37109
2.80864
0.20475
0.20323
0.20173
0.20025
0.198788
0.197345
0.195921
0.194515
0.193128
0.191758
0.190406
0.189073
0.187756
0.186457
0.185175
0.18391
0.182663
0.181432
0.180219
0.179023
0.177845
0.176685
0.175544
0.174421
0.173318
0.172235
0.171174
0.170136
0.169122
0.168136
0.167179
0.166256
0.165371
0.16453
0.163742
0.163016
0.162367
0.161812
0.161377
0.161095
0.161011
0.16119
0.16172
0.162735
0.164454
0.167196
0.171402
0.177705
0.187005
0.200547
0.219998
0.24746
0.285366
0.336206
0.402089
0.48426
0.582745
0.69627
0.822483
0.958371
1.1007
1.24635
1.3925
1.53673
1.67698
1.81157
1.93916
2.0587
2.16938
2.27065
2.36218
2.44387
2.51588
2.57712
2.62772
2.66788
2.69786
2.71797
2.72855
2.72997
2.72258
2.7068
2.68302
2.65166
2.61315
2.56794
2.51647
2.4592
2.3966
2.32914
2.25731
2.1816
2.10249
2.02049
1.93609
1.8498
1.76212
1.67354
1.58456
1.49567
1.40735
1.32006
1.23426
1.15038
1.06884
0.990015
0.914263
0.841901
0.773209
0.708418
0.647713
0.591225
0.53903
0.491148
0.447542
0.408121
0.372743
0.341218
0.313323
0.288799
0.267371
0.248747
0.232638
0.218755
0.206827
0.196597
0.187833
0.180326
0.173891
0.168369
0.163626
0.159544
0.15603
0.153003
0.150397
0.14816
0.146247
0.144621
0.143252
0.142115
0.141188
0.140452
0.13989
0.139484
0.139219
0.139079
0.139047
0.139109
0.139245
0.139438
0.139668
0.139915
0.140158
0.140376
0.140544
0.140641
0.140641
0.140522
0.140262
0.139841
0.139293
0.138638
0.137864
0.136965
0.135936
0.134774
0.133484
0.132076
0.130564
0.128973
0.127333
0.125683
0.124069
0.122547
0.121176
0.120024
0.119165
0.118679
0.118652
0.119182
0.12038
0.122377
0.125335
0.12946
0.135022
0.14239
0.152067
0.164764
0.181498
0.203756
0.233779
0.275084
0.333456
0.418927
0.549102
0.753296
1.07106
1.53185
2.10132
2.5428
0.206276
0.204787
0.203316
0.201863
0.200428
0.199011
0.197611
0.196228
0.194863
0.193514
0.192182
0.190866
0.189567
0.188283
0.187015
0.185763
0.184527
0.183306
0.1821
0.18091
0.179734
0.178574
0.177429
0.1763
0.175185
0.174086
0.173002
0.171934
0.170882
0.169847
0.168829
0.16783
0.166849
0.165891
0.164955
0.164047
0.163169
0.162326
0.161527
0.160781
0.160101
0.159504
0.159016
0.158674
0.158541
0.158704
0.159287
0.160466
0.162498
0.165751
0.170755
0.178266
0.189335
0.205382
0.228219
0.259982
0.302922
0.359032
0.429608
0.514877
0.613865
0.724538
0.844152
0.96967
1.0981
1.22672
1.35316
1.47545
1.59197
1.70148
1.80304
1.89603
1.98024
2.05533
2.12009
2.17455
2.21885
2.25317
2.27776
2.29293
2.29901
2.29639
2.28545
2.26662
2.24033
2.20704
2.16721
2.12131
2.06984
2.0133
1.95218
1.88699
1.81826
1.74651
1.67225
1.596
1.51829
1.43962
1.36053
1.28149
1.20301
1.12556
1.0496
0.975554
0.903836
0.834818
0.768837
0.706187
0.647117
0.591821
0.54044
0.493059
0.449701
0.410332
0.374863
0.343151
0.31501
0.290216
0.268516
0.24964
0.233308
0.219239
0.207163
0.196824
0.187986
0.180436
0.173985
0.168471
0.163753
0.159714
0.156255
0.153296
0.150772
0.148628
0.146822
0.145318
0.14409
0.143113
0.142368
0.14184
0.141513
0.141373
0.141408
0.141604
0.141947
0.142423
0.143014
0.143705
0.144477
0.145309
0.146179
0.147063
0.147938
0.148774
0.149545
0.15022
0.150767
0.151155
0.151353
0.151332
0.151143
0.150794
0.150265
0.149537
0.148593
0.147421
0.146013
0.144371
0.142503
0.14043
0.138182
0.135803
0.133347
0.13088
0.128478
0.126225
0.124212
0.122537
0.121303
0.120617
0.120599
0.12138
0.123115
0.125991
0.130252
0.136221
0.144339
0.155229
0.169784
0.18931
0.215779
0.252268
0.303803
0.378983
0.492742
0.669773
0.943956
1.34195
1.84332
2.27012
0.207283
0.20582
0.204374
0.202946
0.201536
0.200142
0.198765
0.197405
0.196061
0.194733
0.193421
0.192125
0.190844
0.189579
0.188328
0.187092
0.185871
0.184664
0.183472
0.182293
0.181129
0.179978
0.178841
0.177718
0.176608
0.175511
0.174428
0.173357
0.1723
0.171255
0.170223
0.169205
0.1682
0.167209
0.166232
0.165271
0.164325
0.163398
0.16249
0.161605
0.160747
0.159921
0.159135
0.158398
0.15773
0.157156
0.156713
0.156453
0.156451
0.156816
0.157704
0.159336
0.162031
0.166242
0.172606
0.182001
0.195604
0.214907
0.241671
0.277763
0.324869
0.384129
0.455823
0.539213
0.632628
0.73372
0.839814
0.948218
1.05645
1.16235
1.26413
1.36038
1.45014
1.53309
1.60775
1.6733
1.72951
1.77629
1.81369
1.84186
1.861
1.87142
1.87344
1.86744
1.85382
1.83303
1.80552
1.77177
1.73228
1.68754
1.63808
1.58441
1.52708
1.46662
1.40356
1.33844
1.27179
1.20415
1.13603
1.06795
1.0004
0.933856
0.868768
0.805561
0.744623
0.686306
0.630916
0.57871
0.529891
0.484605
0.442939
0.404917
0.370507
0.339619
0.312115
0.287812
0.266492
0.247914
0.231822
0.217953
0.20605
0.195865
0.18717
0.179754
0.173433
0.168043
0.163447
0.159526
0.156185
0.153344
0.150939
0.148918
0.147242
0.145877
0.1448
0.143991
0.143434
0.143117
0.143029
0.143161
0.143503
0.144045
0.144777
0.145688
0.146765
0.147993
0.149357
0.150837
0.152414
0.154064
0.155763
0.157483
0.159195
0.160865
0.16246
0.163941
0.165269
0.166403
0.167298
0.16792
0.16834
0.168545
0.168498
0.168163
0.167504
0.166492
0.165102
0.163318
0.161138
0.158572
0.155648
0.152412
0.148926
0.145271
0.141541
0.137846
0.134304
0.131039
0.128184
0.125869
0.124234
0.123422
0.123589
0.124917
0.127628
0.132006
0.13844
0.147468
0.159864
0.176763
0.199873
0.231851
0.276999
0.342583