/*--------------------------------*- C++ -*----------------------------------*\
| =========                 |                                                 |
| \\      /  F ield         | OpenFOAM: The Open Source CFD Toolbox           |
|  \\    /   O peration     | Version:  2.4.0                                 |
|   \\  /    A nd           | Web:      www.OpenFOAM.org                      |
|    \\/     M anipulation  |                                                 |
\*---------------------------------------------------------------------------*/
FoamFile
{
    version     2.0;
    format      ascii;
    class       volVectorField;
    location    "0.181";
    object      U;
}
// * * * * * * * * * * * * * * * * * * * * * * * * * * * * * * * * * * * * * //

dimensions      [0 1 -1 0 0 0 0];

internalField   nonuniform List<vector> 
17600
(
(5.32689 0.309524 0)
(2.98622 0.0605112 0)
(2.19436 -0.00145694 0)
(1.84904 -0.00353318 0)
(1.70537 -0.00152057 0)
(1.61372 4.68393e-05 0)
(1.53069 0.00033971 0)
(1.48902 -0.000831738 0)
(1.42848 0.000374314 0)
(1.4045 0.000525271 0)
(1.37249 -0.0014671 0)
(1.35213 0.00145797 0)
(1.33049 -0.000591395 0)
(1.29867 0.000615752 0)
(1.3071 -0.000841428 0)
(1.26039 0.000927846 0)
(1.25563 0.000866478 0)
(1.26398 -0.00285626 0)
(1.23771 0.00088535 0)
(1.07597 -0.029662 0)
(8.59629 0.872136 0)
(6.95304 0.383097 0)
(5.80329 0.122297 0)
(5.06226 0.0506462 0)
(4.64865 0.02762 0)
(4.38403 0.021765 0)
(4.16154 0.0162217 0)
(4.0469 0.0105764 0)
(3.86575 0.0112552 0)
(3.81596 0.00857292 0)
(3.71256 0.00254442 0)
(3.64719 0.00937255 0)
(3.60795 0.00369273 0)
(3.50785 0.00523681 0)
(3.53853 0.00224599 0)
(3.39906 0.00781269 0)
(3.41704 0.00218269 0)
(3.41335 -0.00229837 0)
(3.3014 0.00955991 0)
(3.16389 -0.0503129 0)
(9.85281 1.0224 0)
(9.35232 0.576833 0)
(8.45949 0.242355 0)
(7.65407 0.129321 0)
(7.08518 0.0808228 0)
(6.70559 0.0604385 0)
(6.37758 0.0432194 0)
(6.21599 0.0321526 0)
(5.93239 0.0301203 0)
(5.8679 0.0218006 0)
(5.70658 0.0129658 0)
(5.59173 0.0208592 0)
(5.55726 0.0119503 0)
(5.38178 0.0128324 0)
(5.44941 0.00838294 0)
(5.21803 0.0186864 0)
(5.27416 0.00276543 0)
(5.23747 0.00298722 0)
(5.08288 0.0190586 0)
(4.95517 -0.06641 0)
(10.1538 0.94802 0)
(10.5825 0.668135 0)
(10.235 0.332226 0)
(9.66303 0.208591 0)
(9.1067 0.145997 0)
(8.71048 0.112145 0)
(8.31673 0.0792315 0)
(8.14795 0.0621413 0)
(7.78524 0.0561988 0)
(7.71294 0.0390095 0)
(7.51965 0.0297426 0)
(7.34759 0.0351222 0)
(7.34032 0.0243005 0)
(7.08226 0.0228859 0)
(7.2022 0.0174408 0)
(6.87768 0.032874 0)
(6.98447 0.00368892 0)
(6.90258 0.0108631 0)
(6.72149 0.0328953 0)
(6.62477 -0.0812445 0)
(10.0641 0.805522 0)
(10.9456 0.66965 0)
(11.0967 0.359929 0)
(10.9225 0.253759 0)
(10.5565 0.200617 0)
(10.2801 0.164755 0)
(9.89134 0.117904 0)
(9.77143 0.0958385 0)
(9.37789 0.0873673 0)
(9.30397 0.0577808 0)
(9.1209 0.0513948 0)
(8.89015 0.0512682 0)
(8.93071 0.0392115 0)
(8.59633 0.0348133 0)
(8.77541 0.0284234 0)
(8.3728 0.0494032 0)
(8.52466 0.00414792 0)
(8.41648 0.0246092 0)
(8.19888 0.0399814 0)
(8.12202 -0.0794652 0)
(9.97128 0.690076 0)
(10.9005 0.636798 0)
(11.2616 0.338628 0)
(11.4054 0.248503 0)
(11.2891 0.220286 0)
(11.2516 0.199421 0)
(10.9625 0.147724 0)
(10.962 0.124363 0)
(10.62 0.119327 0)
(10.5589 0.0749094 0)
(10.4367 0.0747235 0)
(10.1679 0.0684852 0)
(10.2654 0.0545793 0)
(9.88629 0.0478063 0)
(10.116 0.0395719 0)
(9.67672 0.0683435 0)
(9.84954 0.00163852 0)
(9.74764 0.0414244 0)
(9.49033 0.0550874 0)
(9.48152 -0.100005 0)
(9.94011 0.598499 0)
(10.802 0.604327 0)
(11.1725 0.31132 0)
(11.431 0.217122 0)
(11.4208 0.204263 0)
(11.6043 0.20478 0)
(11.4388 0.156478 0)
(11.5886 0.134212 0)
(11.3965 0.142327 0)
(11.3713 0.0837735 0)
(11.3616 0.0933554 0)
(11.1103 0.0838391 0)
(11.2652 0.0678122 0)
(10.8941 0.0598923 0)
(11.1603 0.0495078 0)
(10.7377 0.0866945 0)
(10.9235 0.000422992 0)
(10.8322 0.0512482 0)
(10.5556 0.0800934 0)
(10.6733 -0.0868992 0)
(9.91929 0.516461 0)
(10.7262 0.566924 0)
(11.0907 0.297456 0)
(11.3711 0.191627 0)
(11.3248 0.178894 0)
(11.5989 0.192478 0)
(11.5131 0.151772 0)
(11.7057 0.123786 0)
(11.6971 0.150249 0)
(11.6983 0.0795605 0)
(11.8024 0.0992044 0)
(11.6378 0.0916343 0)
(11.8384 0.0729809 0)
(11.5384 0.068271 0)
(11.834 0.0530139 0)
(11.4744 0.102881 0)
(11.7018 -0.00614669 0)
(11.6 0.0751735 0)
(11.3735 0.0658216 0)
(11.5312 0.0171645 0)
(9.92179 0.444605 0)
(10.6128 0.516513 0)
(11.0348 0.286699 0)
(11.3429 0.176433 0)
(11.2737 0.158466 0)
(11.4914 0.172331 0)
(11.4859 0.144747 0)
(11.6048 0.105379 0)
(11.7224 0.147077 0)
(11.7393 0.069914 0)
(11.8622 0.0931202 0)
(11.8164 0.0912042 0)
(11.9921 0.0684956 0)
(11.7973 0.069225 0)
(12.0855 0.0484231 0)
(11.836 0.109256 0)
(12.091 -0.0152714 0)
(12.0299 0.0873997 0)
(11.8673 0.0616003 0)
(11.9608 0.0310554 0)
(9.95837 0.385081 0)
(10.4831 0.462128 0)
(10.9592 0.268372 0)
(11.2845 0.158148 0)
(11.2962 0.146756 0)
(11.4105 0.153981 0)
(11.4413 0.140142 0)
(11.5035 0.0861571 0)
(11.6479 0.137659 0)
(11.7226 0.0586959 0)
(11.7798 0.0842934 0)
(11.8638 0.0850554 0)
(11.943 0.0658175 0)
(11.842 0.0638366 0)
(12.0461 0.0428128 0)
(11.9327 0.101287 0)
(12.1283 -0.0215518 0)
(12.1752 0.0728085 0)
(11.9951 0.0805049 0)
(12.1027 -0.071923 0)
(10.0065 0.331551 0)
(10.4045 0.411748 0)
(10.8615 0.248489 0)
(11.1688 0.136216 0)
(11.3007 0.130122 0)
(11.369 0.143342 0)
(11.4084 0.134352 0)
(11.4531 0.071508 0)
(11.562 0.123077 0)
(11.655 0.0524928 0)
(11.6733 0.0680441 0)
(11.865 0.0817334 0)
(11.8794 0.0603509 0)
(11.8656 0.065396 0)
(11.9573 0.0313415 0)
(11.9259 0.0954884 0)
(12.0859 -0.0368398 0)
(12.1079 0.0728356 0)
(11.892 0.0643328 0)
(12.3304 -0.159906 0)
(10.0472 0.282298 0)
(10.3393 0.366062 0)
(10.7704 0.234026 0)
(11.0796 0.109211 0)
(11.2672 0.11238 0)
(11.3178 0.128938 0)
(11.3873 0.129939 0)
(11.4355 0.0577733 0)
(11.493 0.117555 0)
(11.5545 0.0430271 0)
(11.6061 0.0513763 0)
(11.8181 0.0696757 0)
(11.834 0.0572905 0)
(11.8847 0.0614819 0)
(11.8993 0.0317307 0)
(11.8801 0.0798509 0)
(12.0737 -0.0365038 0)
(11.9435 0.0717578 0)
(11.9068 0.0230426 0)
(12.449 -0.179736 0)
(10.0502 0.238344 0)
(10.2827 0.324408 0)
(10.7326 0.213703 0)
(11.035 0.0856101 0)
(11.2211 0.0946459 0)
(11.2421 0.115339 0)
(11.339 0.118785 0)
(11.4249 0.0486136 0)
(11.4512 0.111944 0)
(11.5153 0.0376328 0)
(11.5779 0.0285523 0)
(11.7314 0.0634696 0)
(11.7826 0.0456109 0)
(11.8459 0.0612411 0)
(11.8415 0.0319621 0)
(11.8625 0.0645515 0)
(12.0265 -0.0336127 0)
(11.8963 0.0584103 0)
(12.0921 -0.0219703 0)
(12.1621 -0.152758 0)
(10.0266 0.201594 0)
(10.2807 0.278531 0)
(10.7139 0.187012 0)
(10.9817 0.0673537 0)
(11.1586 0.0854025 0)
(11.1847 0.101768 0)
(11.2972 0.104674 0)
(11.4017 0.0342633 0)
(11.4374 0.106866 0)
(11.5143 0.0293156 0)
(11.5415 0.0177247 0)
(11.6336 0.055252 0)
(11.72 0.0367732 0)
(11.7988 0.0569245 0)
(11.7765 0.032619 0)
(11.8969 0.0432687 0)
(11.9394 -0.0285486 0)
(11.94 0.0270509 0)
(12.1732 -0.0287182 0)
(11.716 -0.0923414 0)
(10.0187 0.164198 0)
(10.2917 0.234211 0)
(10.6722 0.159022 0)
(10.9138 0.0566529 0)
(11.111 0.0736647 0)
(11.1747 0.0874307 0)
(11.2737 0.0873752 0)
(11.3703 0.0222736 0)
(11.4161 0.0967004 0)
(11.4864 0.0296579 0)
(11.5053 0.00571294 0)
(11.5723 0.0530123 0)
(11.6868 0.0189449 0)
(11.7682 0.0568545 0)
(11.7591 0.021676 0)
(11.9 0.0334733 0)
(11.8449 -0.034504 0)
(11.986 0.0125501 0)
(12.0437 -0.0399442 0)
(11.5392 -0.074545 0)
(10.0256 0.131813 0)
(10.2647 0.188725 0)
(10.6262 0.134144 0)
(10.8883 0.0424575 0)
(11.1059 0.0612014 0)
(11.1498 0.0709352 0)
(11.2383 0.0743197 0)
(11.3514 0.00761962 0)
(11.3756 0.0904921 0)
(11.4571 0.0239892 0)
(11.4959 -0.000576646 0)
(11.5578 0.0415703 0)
(11.6757 0.00980441 0)
(11.7157 0.0443593 0)
(11.781 0.0222729 0)
(11.826 0.0150987 0)
(11.805 -0.0257351 0)
(12.0188 -0.0258278 0)
(11.8426 0.0115172 0)
(11.7387 -0.188893 0)
(10.0157 0.101237 0)
(10.2406 0.146421 0)
(10.6147 0.102412 0)
(10.8961 0.0283116 0)
(11.0701 0.0517521 0)
(11.1021 0.0613708 0)
(11.2311 0.0540186 0)
(11.3398 -0.00348449 0)
(11.3344 0.0787427 0)
(11.4593 0.0214674 0)
(11.4872 -0.0137131 0)
(11.544 0.0388653 0)
(11.6453 -0.00135261 0)
(11.6755 0.0398019 0)
(11.7662 0.0149791 0)
(11.7652 0.0141016 0)
(11.8589 -0.0519719 0)
(11.933 -0.0134011 0)
(11.7681 -0.0168822 0)
(12.0065 -0.139236 0)
(10.0004 0.0749925 0)
(10.2502 0.0987747 0)
(10.6146 0.0712668 0)
(10.8592 0.0181799 0)
(11.0133 0.0471447 0)
(11.1082 0.0448125 0)
(11.2631 0.0324838 0)
(11.3015 -0.0104444 0)
(11.2964 0.0668074 0)
(11.4605 0.0161467 0)
(11.4671 -0.0211015 0)
(11.5181 0.0352807 0)
(11.6123 -0.0124027 0)
(11.685 0.0336666 0)
(11.7297 0.00899635 0)
(11.7742 -0.000318363 0)
(11.8866 -0.060579 0)
(11.7637 -0.00813984 0)
(11.8569 -0.0382933 0)
(12.0849 -0.0868193 0)
(10.0007 0.0483223 0)
(10.2632 0.051254 0)
(10.5834 0.0457351 0)
(10.8073 0.00899582 0)
(11.0227 0.0355671 0)
(11.1466 0.0234569 0)
(11.2551 0.0184034 0)
(11.2447 -0.0142461 0)
(11.278 0.0530675 0)
(11.4546 0.00764697 0)
(11.4644 -0.0242417 0)
(11.5137 0.0241654 0)
(11.5974 -0.0168277 0)
(11.6868 0.0139588 0)
(11.7128 0.0151307 0)
(11.8041 -0.0253381 0)
(11.7898 -0.0390095 0)
(11.7427 -0.0330061 0)
(12.0044 -0.0478149 0)
(11.9713 -0.164745 0)
(10.0086 0.020978 0)
(10.2498 0.00781564 0)
(10.5497 0.0205774 0)
(10.8166 -0.00617372 0)
(11.0623 0.0195871 0)
(11.1384 0.0118141 0)
(11.2075 0.00536665 0)
(11.2271 -0.0176451 0)
(11.2994 0.0316144 0)
(11.4525 0.0028302 0)
(11.4808 -0.0342678 0)
(11.5055 0.0253306 0)
(11.5858 -0.0329289 0)
(11.6703 0.0118913 0)
(11.7174 0.000225029 0)
(11.7856 -0.0160793 0)
(11.7189 -0.0566444 0)
(11.8863 -0.0390506 0)
(11.9967 -0.10259 0)
(11.8069 -0.133632 0)
(10.0077 -0.00389307 0)
(10.2332 -0.0354792 0)
(10.5576 -0.00820658 0)
(10.8507 -0.0256337 0)
(11.056 0.0118766 0)
(11.1104 0.00121405 0)
(11.1914 -0.00757345 0)
(11.2555 -0.0313032 0)
(11.3199 0.0176208 0)
(11.4401 -0.00820564 0)
(11.4883 -0.0334506 0)
(11.4863 0.0142478 0)
(11.5894 -0.0318358 0)
(11.6766 -0.00978502 0)
(11.7258 0.00795324 0)
(11.7339 -0.0396398 0)
(11.7952 -0.0491113 0)
(11.9343 -0.0847515 0)
(11.8559 -0.0638097 0)
(11.7384 -0.173184 0)
(9.99797 -0.0288144 0)
(10.2424 -0.080214 0)
(10.5852 -0.0399407 0)
(10.855 -0.0384584 0)
(11.0295 0.00380792 0)
(11.1169 -0.00811092 0)
(11.2085 -0.0283766 0)
(11.2815 -0.0374668 0)
(11.3121 0.00121459 0)
(11.4321 -0.011773 0)
(11.4929 -0.0395815 0)
(11.493 0.0105288 0)
(11.6094 -0.046937 0)
(11.6839 -0.0154746 0)
(11.7068 0.00117827 0)
(11.7301 -0.0395908 0)
(11.886 -0.0775578 0)
(11.845 -0.065326 0)
(11.7956 -0.0859111 0)
(11.7902 -0.0975316 0)
(9.98815 -0.0558488 0)
(10.2711 -0.125563 0)
(10.5932 -0.0695532 0)
(10.847 -0.0473581 0)
(11.0362 -0.00797214 0)
(11.1447 -0.0227574 0)
(11.225 -0.0449087 0)
(11.2901 -0.0469778 0)
(11.3038 -0.00889445 0)
(11.4432 -0.0237224 0)
(11.5035 -0.0429468 0)
(11.5162 0.00313774 0)
(11.6231 -0.0555462 0)
(11.6765 -0.0225664 0)
(11.6874 -0.00350241 0)
(11.7919 -0.0523719 0)
(11.8649 -0.0865589 0)
(11.8126 -0.0593631 0)
(11.8584 -0.104998 0)
(11.8318 -0.045291 0)
(9.98365 -0.0824179 0)
(10.2917 -0.174092 0)
(10.5963 -0.0934982 0)
(10.8688 -0.0616498 0)
(11.0699 -0.0202107 0)
(11.1555 -0.0382193 0)
(11.2344 -0.0594312 0)
(11.2965 -0.0543241 0)
(11.3188 -0.0209865 0)
(11.4565 -0.036915 0)
(11.522 -0.0425951 0)
(11.5426 -0.0114699 0)
(11.6349 -0.0531931 0)
(11.6716 -0.0368454 0)
(11.7069 -0.0047042 0)
(11.8337 -0.0771365 0)
(11.831 -0.0731042 0)
(11.8495 -0.084894 0)
(11.8913 -0.0972816 0)
(11.8629 -0.125008 0)
(9.97911 -0.116673 0)
(10.31 -0.213415 0)
(10.6222 -0.12777 0)
(10.907 -0.0670419 0)
(11.0911 -0.0389297 0)
(11.1542 -0.0439554 0)
(11.2531 -0.0802537 0)
(11.3117 -0.0586016 0)
(11.353 -0.0366942 0)
(11.4713 -0.0450093 0)
(11.5465 -0.0508861 0)
(11.5744 -0.0148014 0)
(11.6415 -0.0635079 0)
(11.6765 -0.0355687 0)
(11.758 -0.0264767 0)
(11.8291 -0.0713882 0)
(11.844 -0.0932866 0)
(11.893 -0.0807054 0)
(11.9092 -0.117538 0)
(11.8801 -0.161008 0)
(9.97729 -0.145507 0)
(10.3369 -0.266489 0)
(10.6586 -0.148269 0)
(10.9365 -0.0863791 0)
(11.104 -0.0425554 0)
(11.1719 -0.066482 0)
(11.2787 -0.0890043 0)
(11.3437 -0.0745024 0)
(11.3848 -0.0408352 0)
(11.4906 -0.0643085 0)
(11.5798 -0.0468656 0)
(11.5956 -0.0329458 0)
(11.6473 -0.0532476 0)
(11.723 -0.0604485 0)
(11.7901 -0.020534 0)
(11.8313 -0.0952631 0)
(11.8857 -0.0797974 0)
(11.9207 -0.112488 0)
(11.9272 -0.103569 0)
(11.9245 -0.218758 0)
(9.98157 -0.188136 0)
(10.3637 -0.303583 0)
(10.7002 -0.182791 0)
(10.9653 -0.0862917 0)
(11.1302 -0.0676443 0)
(11.2029 -0.0705953 0)
(11.3047 -0.113699 0)
(11.3841 -0.0765342 0)
(11.4192 -0.0567711 0)
(11.522 -0.071547 0)
(11.6157 -0.0562215 0)
(11.6134 -0.0325533 0)
(11.6783 -0.067579 0)
(11.7779 -0.0610157 0)
(11.8077 -0.0392324 0)
(11.8525 -0.0867872 0)
(11.9313 -0.10661 0)
(11.9495 -0.101148 0)
(11.9528 -0.133913 0)
(11.9447 -0.149776 0)
(9.99345 -0.225844 0)
(10.3913 -0.356115 0)
(10.7547 -0.198461 0)
(10.9902 -0.103789 0)
(11.1679 -0.0780341 0)
(11.2373 -0.0907546 0)
(11.3458 -0.126523 0)
(11.4338 -0.0882258 0)
(11.4622 -0.0656621 0)
(11.5612 -0.0844259 0)
(11.646 -0.0589679 0)
(11.6383 -0.0405694 0)
(11.7278 -0.0741069 0)
(11.8162 -0.0688847 0)
(11.8289 -0.0468782 0)
(11.9041 -0.0921386 0)
(11.9665 -0.120498 0)
(11.9791 -0.0974254 0)
(12.0004 -0.162683 0)
(11.9817 -0.0887324 0)
(10.0182 -0.27529 0)
(10.4205 -0.399945 0)
(10.8076 -0.213732 0)
(11.0079 -0.115919 0)
(11.2349 -0.0989654 0)
(11.2725 -0.106284 0)
(11.407 -0.14078 0)
(11.4779 -0.100598 0)
(11.5088 -0.068817 0)
(11.5892 -0.102196 0)
(11.6803 -0.0546054 0)
(11.6777 -0.0569405 0)
(11.7753 -0.0736384 0)
(11.8498 -0.0842615 0)
(11.8802 -0.044525 0)
(11.9502 -0.115161 0)
(11.9975 -0.106285 0)
(12.0255 -0.132733 0)
(12.0455 -0.14077 0)
(12.0267 -0.165262 0)
(10.0506 -0.32917 0)
(10.4355 -0.444087 0)
(10.8641 -0.224725 0)
(11.0416 -0.133209 0)
(11.3317 -0.127922 0)
(11.2933 -0.112977 0)
(11.482 -0.16397 0)
(11.5088 -0.0993105 0)
(11.5611 -0.0856984 0)
(11.6101 -0.104288 0)
(11.7434 -0.0679343 0)
(11.7127 -0.0578651 0)
(11.8315 -0.0881424 0)
(11.8907 -0.0844864 0)
(11.9452 -0.0597128 0)
(11.9758 -0.114219 0)
(12.0524 -0.119517 0)
(12.0697 -0.134212 0)
(12.0831 -0.156751 0)
(12.0587 -0.207111 0)
(10.0614 -0.38756 0)
(10.4566 -0.489846 0)
(10.9299 -0.230248 0)
(11.1191 -0.164721 0)
(11.4176 -0.143548 0)
(11.3108 -0.132438 0)
(11.5723 -0.171838 0)
(11.5278 -0.111445 0)
(11.6243 -0.0872568 0)
(11.6468 -0.120906 0)
(11.8182 -0.0708761 0)
(11.7384 -0.0662577 0)
(11.9118 -0.0976335 0)
(11.9184 -0.0907157 0)
(12.007 -0.0655239 0)
(11.9903 -0.123185 0)
(12.095 -0.121635 0)
(12.0516 -0.142836 0)
(12.076 -0.166005 0)
(11.9951 -0.236003 0)
(10.0442 -0.453804 0)
(10.5032 -0.527733 0)
(11.0179 -0.251035 0)
(11.2347 -0.18706 0)
(11.4543 -0.167773 0)
(11.3672 -0.141806 0)
(11.6495 -0.189636 0)
(11.5467 -0.112816 0)
(11.7008 -0.0988273 0)
(11.6958 -0.132671 0)
(11.8578 -0.0762166 0)
(11.7669 -0.0752023 0)
(11.9489 -0.106129 0)
(11.8769 -0.095529 0)
(11.992 -0.072161 0)
(11.8937 -0.126285 0)
(11.983 -0.118551 0)
(11.8523 -0.15295 0)
(11.8639 -0.14919 0)
(11.6694 -0.269801 0)
(10.0157 -0.521538 0)
(10.5842 -0.572323 0)
(11.1341 -0.269974 0)
(11.3319 -0.214088 0)
(11.4714 -0.18275 0)
(11.4669 -0.161113 0)
(11.6843 -0.197151 0)
(11.5621 -0.119636 0)
(11.7423 -0.110981 0)
(11.6532 -0.137003 0)
(11.7675 -0.083024 0)
(11.6589 -0.0797609 0)
(11.7557 -0.108574 0)
(11.6057 -0.0934147 0)
(11.6899 -0.0750862 0)
(11.5025 -0.116248 0)
(11.5313 -0.118647 0)
(11.3354 -0.132852 0)
(11.2848 -0.156592 0)
(11.0245 -0.211151 0)
(9.99392 -0.602155 0)
(10.6989 -0.605621 0)
(11.2509 -0.295012 0)
(11.4045 -0.236561 0)
(11.4919 -0.203847 0)
(11.5147 -0.178405 0)
(11.5743 -0.196262 0)
(11.4168 -0.125201 0)
(11.5128 -0.114079 0)
(11.2891 -0.130107 0)
(11.328 -0.0806897 0)
(11.16 -0.0759995 0)
(11.1515 -0.0977646 0)
(10.9442 -0.0839591 0)
(10.9836 -0.0672355 0)
(10.732 -0.102152 0)
(10.7193 -0.102591 0)
(10.4754 -0.117531 0)
(10.3943 -0.135304 0)
(10.0796 -0.166781 0)
(10.0048 -0.690954 0)
(10.834 -0.638553 0)
(11.3315 -0.328383 0)
(11.3725 -0.263071 0)
(11.3176 -0.218681 0)
(11.2087 -0.179816 0)
(11.0485 -0.178498 0)
(10.8056 -0.115544 0)
(10.7655 -0.100436 0)
(10.4452 -0.108198 0)
(10.4217 -0.0681972 0)
(10.2132 -0.0620566 0)
(10.1406 -0.078594 0)
(9.91755 -0.0689456 0)
(9.92239 -0.0545407 0)
(9.64953 -0.0821505 0)
(9.61055 -0.0836491 0)
(9.34928 -0.0981622 0)
(9.24556 -0.102771 0)
(8.90504 -0.150382 0)
(10.0867 -0.805763 0)
(10.9026 -0.671286 0)
(11.151 -0.353577 0)
(10.8886 -0.263594 0)
(10.5676 -0.199374 0)
(10.2657 -0.150764 0)
(9.94012 -0.139577 0)
(9.64417 -0.0900082 0)
(9.51807 -0.0743332 0)
(9.17948 -0.0797013 0)
(9.12574 -0.0511176 0)
(8.91261 -0.0442888 0)
(8.81505 -0.0575473 0)
(8.60431 -0.0525638 0)
(8.58446 -0.0398728 0)
(8.32308 -0.0606521 0)
(8.26724 -0.0648888 0)
(8.01306 -0.0718669 0)
(7.89164 -0.0831889 0)
(7.5732 -0.0910133 0)
(10.1683 -0.947691 0)
(10.5549 -0.669636 0)
(10.275 -0.328423 0)
(9.63327 -0.214582 0)
(9.10922 -0.145618 0)
(8.71223 -0.102564 0)
(8.34021 -0.0929865 0)
(8.05342 -0.0600114 0)
(7.90015 -0.0465556 0)
(7.59901 -0.0522285 0)
(7.53469 -0.0339268 0)
(7.34414 -0.0270537 0)
(7.24931 -0.0378428 0)
(7.06443 -0.0364049 0)
(7.03077 -0.0252008 0)
(6.80484 -0.0405794 0)
(6.74074 -0.0449665 0)
(6.50839 -0.0488602 0)
(6.39164 -0.0562155 0)
(6.08965 -0.0578189 0)
(9.86184 -1.022 0)
(9.33582 -0.578098 0)
(8.48575 -0.240108 0)
(7.63255 -0.132494 0)
(7.08339 -0.0812228 0)
(6.71276 -0.0542125 0)
(6.3879 -0.0508025 0)
(6.14988 -0.0328257 0)
(6.01367 -0.0228541 0)
(5.78145 -0.0289151 0)
(5.71884 -0.0187696 0)
(5.57108 -0.0128328 0)
(5.49594 -0.0211086 0)
(5.34456 -0.0216513 0)
(5.3086 -0.0126131 0)
(5.1343 -0.0229938 0)
(5.06895 -0.0266333 0)
(4.8751 -0.0279568 0)
(4.77561 -0.0321636 0)
(4.50569 -0.0322261 0)
(8.60155 -0.871868 0)
(6.94437 -0.383941 0)
(5.81697 -0.121076 0)
(5.05086 -0.0519193 0)
(4.64496 -0.0284843 0)
(4.38946 -0.0182139 0)
(4.16834 -0.0194161 0)
(4.00385 -0.0124198 0)
(3.91251 -0.00649216 0)
(3.76595 -0.0115533 0)
(3.71481 -0.00739299 0)
(3.62234 -0.00328503 0)
(3.5747 -0.00850737 0)
(3.46612 -0.00965559 0)
(3.43709 -0.00372861 0)
(3.32516 -0.00931252 0)
(3.26824 -0.0116663 0)
(3.13043 -0.0115442 0)
(3.05598 -0.0129158 0)
(2.85438 -0.012922 0)
(5.32884 -0.309373 0)
(2.98365 -0.0607712 0)
(2.19765 0.0017898 0)
(1.84693 0.00340453 0)
(1.70179 0.000981875 0)
(1.6153 0.00102316 0)
(1.5364 -0.00081757 0)
(1.47052 -0.000288812 0)
(1.44109 0.0013026 0)
(1.3932 -0.000949675 0)
(1.36653 -0.0003908 0)
(1.33673 0.000987798 0)
(1.32283 -0.000565044 0)
(1.27447 -0.00116957 0)
(1.26012 0.000785986 0)
(1.22247 -0.000517413 0)
(1.19211 -0.00109794 0)
(1.13257 -0.000677124 0)
(1.09798 -0.000504656 0)
(1.01519 0.00574606 0)
(1.65226 -0.326315 0)
(1.74262 -0.475876 0)
(1.63577 -0.502265 0)
(1.29799 -0.302531 0)
(1.18474 0.141753 0)
(1.41502 0.719086 0)
(2.6563 1.1082 0)
(3.98394 1.39047 0)
(5.03612 1.94241 0)
(5.6661 2.33403 0)
(6.58176 1.75889 0)
(6.99866 1.11571 0)
(6.9164 1.50113 0)
(7.46141 2.05994 0)
(8.66029 1.61371 0)
(9.68049 0.714083 0)
(10.3133 -0.0318268 0)
(10.7688 -0.831232 0)
(11.0842 -1.65762 0)
(10.4158 -2.18749 0)
(10.6107 -2.92912 0)
(11.0306 -3.54173 0)
(11.7759 -4.30464 0)
(12.7159 -5.14306 0)
(13.1227 -5.65484 0)
(13.3717 -6.20928 0)
(13.1399 -6.59969 0)
(12.3577 -6.50401 0)
(11.9183 -6.61165 0)
(11.7489 -6.70504 0)
(11.3231 -6.64008 0)
(10.8561 -6.55485 0)
(10.9218 -6.5859 0)
(10.7764 -6.81797 0)
(10.5314 -6.48367 0)
(10.4377 -6.48258 0)
(10.9012 -6.87643 0)
(11.2793 -6.77269 0)
(11.8248 -6.99649 0)
(12.0826 -6.86866 0)
(12.1808 -6.20489 0)
(12.3203 -5.82052 0)
(12.6803 -5.07355 0)
(12.8481 -4.24644 0)
(12.7582 -3.36174 0)
(12.9743 -2.22284 0)
(12.7563 -1.25509 0)
(12.598 -0.0919842 0)
(12.5448 1.06404 0)
(12.2425 1.96179 0)
(11.6261 2.94804 0)
(10.8283 3.21739 0)
(9.88059 3.12622 0)
(9.23154 3.57596 0)
(8.51589 3.31993 0)
(7.92693 2.8133 0)
(7.57233 3.26671 0)
(7.18238 3.36294 0)
(6.68488 2.47117 0)
(6.46019 2.26777 0)
(6.40653 3.05938 0)
(6.19816 3.25616 0)
(5.87865 2.38715 0)
(5.56312 1.43339 0)
(5.39278 1.66696 0)
(5.48106 3.14904 0)
(5.63871 4.58232 0)
(5.53123 5.1534 0)
(5.40861 5.25949 0)
(5.51857 5.25485 0)
(5.70887 5.34858 0)
(6.05702 5.60293 0)
(6.13546 6.24289 0)
(5.5804 7.38278 0)
(5.45356 8.08973 0)
(5.78605 7.98173 0)
(5.87293 7.5071 0)
(6.12443 6.49461 0)
(6.30851 5.23949 0)
(6.21823 4.26681 0)
(6.1425 3.02781 0)
(6.21015 1.26417 0)
(6.29551 -0.965743 0)
(6.14659 -3.28803 0)
(5.91353 -5.06942 0)
(6.08861 -5.99177 0)
(6.11516 -7.35433 0)
(5.75592 -9.49337 0)
(5.12108 -10.6802 0)
(4.73264 -10.042 0)
(4.42749 -8.75395 0)
(4.39472 -7.98994 0)
(4.57815 -7.75598 0)
(4.49744 -7.74192 0)
(5.24866 -7.52729 0)
(5.27384 -8.16745 0)
(6.05104 -8.70186 0)
(6.57853 -8.72532 0)
(7.19992 -8.74768 0)
(7.83743 -8.96691 0)
(8.46087 -8.79534 0)
(8.56675 -7.60364 0)
(8.39203 -5.97244 0)
(8.25135 -4.77408 0)
(8.18841 -4.15351 0)
(8.19904 -3.55765 0)
(8.41649 -2.35875 0)
(8.64311 -0.426097 0)
(8.58361 1.44107 0)
(8.4027 2.66551 0)
(8.2337 3.83454 0)
(7.9179 5.27657 0)
(7.60593 6.20668 0)
(7.41079 6.87443 0)
(7.18058 7.46108 0)
(7.0665 8.42111 0)
(6.6405 9.94025 0)
(6.21202 10.319 0)
(5.89059 8.82537 0)
(5.56943 6.9934 0)
(4.93585 6.23191 0)
(4.28316 6.77943 0)
(4.3738 7.51619 0)
(3.95681 8.19064 0)
(5.07692 8.50624 0)
(4.83544 8.39373 0)
(5.69378 8.06462 0)
(6.13994 7.51964 0)
(6.40929 6.5821 0)
(7.25641 5.24617 0)
(7.36325 4.20679 0)
(7.6763 2.98091 0)
(7.42027 1.91283 0)
(7.39545 1.00379 0)
(6.68738 0.342036 0)
(6.63425 0.093143 0)
(6.02555 -0.203307 0)
(6.2258 -1.33 0)
(6.09963 -2.64599 0)
(6.42323 -4.10983 0)
(6.60635 -4.9888 0)
(6.99925 -5.36973 0)
(7.30442 -5.16928 0)
(7.60207 -4.98034 0)
(7.53125 -4.53924 0)
(7.56671 -4.11204 0)
(7.64439 -3.78672 0)
(7.46032 -3.5302 0)
(7.49742 -3.4865 0)
(7.61303 -2.99331 0)
(7.62449 -2.7943 0)
(7.81505 -2.60552 0)
(7.1586 -2.6787 0)
(7.41968 -2.58157 0)
(6.95101 -2.1679 0)
(7.29625 -1.38708 0)
(6.38956 -1.74716 0)
(6.53958 -1.89209 0)
(5.66643 -2.33849 0)
(6.39106 -2.02374 0)
(5.99863 -2.09263 0)
(7.24685 -2.29431 0)
(7.12485 -3.4373 0)
(7.8319 -3.65872 0)
(7.38538 -4.57184 0)
(8.10074 -4.83774 0)
(7.75739 -5.67649 0)
(7.93207 -5.4158 0)
(7.8356 -5.56911 0)
(7.80768 -5.82566 0)
(7.96924 -5.82446 0)
(8.22849 -5.48803 0)
(8.56732 -5.03094 0)
(8.81813 -4.21233 0)
(8.98399 -3.06319 0)
(9.34723 -2.06098 0)
(9.59219 -1.12771 0)
(9.69567 -0.127026 0)
(9.8701 1.14872 0)
(9.87476 2.66318 0)
(9.62651 3.83219 0)
(9.40185 4.96237 0)
(9.11217 6.29143 0)
(8.67089 7.2312 0)
(8.40115 7.94875 0)
(8.17436 9.1427 0)
(7.74144 10.2971 0)
(7.14318 10.415 0)
(6.46673 9.57087 0)
(5.8919 8.49543 0)
(5.30009 7.66537 0)
(4.89578 7.17526 0)
(4.66914 6.96116 0)
(4.62128 6.70645 0)
(4.28726 6.69255 0)
(4.19709 6.64598 0)
(4.02436 6.64713 0)
(4.11981 7.45928 0)
(4.54558 7.98115 0)
(2.62135 9.48006 0)
(3.52619 -0.294671 0)
(3.41567 -0.427652 0)
(3.51683 -0.387074 0)
(3.07624 -0.201833 0)
(2.8842 0.170075 0)
(2.89025 0.621781 0)
(3.19804 0.672507 0)
(4.0455 0.812574 0)
(5.0275 1.5597 0)
(6.11288 1.99825 0)
(6.99515 1.46077 0)
(7.31705 0.905182 0)
(7.37477 1.32289 0)
(8.21735 1.70424 0)
(9.3288 1.20159 0)
(10.1715 0.43062 0)
(10.5452 -0.187979 0)
(10.8127 -1.01191 0)
(10.8648 -1.58753 0)
(10.7033 -2.12478 0)
(11.5915 -3.08691 0)
(12.2132 -3.79683 0)
(12.9296 -4.61636 0)
(13.534 -5.32995 0)
(13.6058 -5.70868 0)
(13.5002 -6.16088 0)
(13.0071 -6.37566 0)
(12.2942 -6.29003 0)
(12.0672 -6.51896 0)
(11.7757 -6.58019 0)
(11.2241 -6.43431 0)
(10.86 -6.48772 0)
(10.9595 -6.56702 0)
(10.6733 -6.67766 0)
(10.362 -6.41153 0)
(10.5164 -6.56141 0)
(11.0527 -7.10567 0)
(11.3324 -6.9961 0)
(11.7135 -7.09017 0)
(11.8777 -6.96377 0)
(11.9675 -6.2676 0)
(12.1396 -5.90042 0)
(12.5657 -5.19966 0)
(12.7204 -4.29887 0)
(12.6343 -3.37829 0)
(12.8884 -2.18513 0)
(12.6074 -1.15786 0)
(12.3275 -0.0304546 0)
(12.2469 1.12265 0)
(12.0601 2.10515 0)
(11.5947 3.20124 0)
(10.8581 3.56901 0)
(9.8981 3.46384 0)
(9.22753 3.86168 0)
(8.49453 3.6042 0)
(7.84291 3.02663 0)
(7.51916 3.42167 0)
(7.14896 3.53504 0)
(6.6318 2.62306 0)
(6.38626 2.32204 0)
(6.38093 3.10398 0)
(6.18284 3.36008 0)
(5.85203 2.51947 0)
(5.52307 1.53779 0)
(5.36592 1.68079 0)
(5.47218 3.08736 0)
(5.66882 4.55383 0)
(5.6395 5.19658 0)
(5.53893 5.25809 0)
(5.5612 5.19116 0)
(5.65464 5.24018 0)
(5.95847 5.53056 0)
(5.97846 6.34221 0)
(5.50818 7.49818 0)
(5.64472 8.02809 0)
(6.04596 7.92447 0)
(6.23973 7.47133 0)
(6.58302 6.44522 0)
(6.78879 5.24772 0)
(6.77689 4.31816 0)
(6.8209 3.0545 0)
(6.9435 1.27368 0)
(7.02562 -0.916843 0)
(6.82072 -3.21755 0)
(6.46098 -5.05233 0)
(6.48101 -5.98022 0)
(6.46691 -7.24628 0)
(6.0366 -9.29741 0)
(5.34579 -10.5127 0)
(4.91285 -9.89709 0)
(4.57264 -8.66421 0)
(4.5081 -7.98977 0)
(4.60805 -7.76694 0)
(4.4888 -7.81132 0)
(5.29659 -7.72825 0)
(5.26498 -8.39004 0)
(6.01402 -8.89004 0)
(6.52602 -9.0109 0)
(7.09637 -9.05644 0)
(7.64062 -9.19088 0)
(8.14338 -8.83851 0)
(8.16416 -7.55762 0)
(7.9356 -5.88674 0)
(7.7701 -4.71615 0)
(7.61439 -4.10198 0)
(7.53172 -3.54084 0)
(7.6548 -2.36896 0)
(7.83446 -0.441579 0)
(7.81323 1.42459 0)
(7.78846 2.71132 0)
(7.72032 3.95 0)
(7.4459 5.36817 0)
(7.21918 6.28106 0)
(7.02163 6.97583 0)
(6.88073 7.51496 0)
(6.73788 8.53963 0)
(6.34341 10.0828 0)
(5.91915 10.4153 0)
(5.67668 8.93059 0)
(5.32007 7.23086 0)
(4.79483 6.46475 0)
(4.17803 6.89034 0)
(4.27078 7.58565 0)
(3.97845 8.02584 0)
(4.9234 8.36722 0)
(4.99845 8.16009 0)
(5.86375 7.77058 0)
(6.16701 7.34153 0)
(6.58762 6.34593 0)
(7.46513 5.04628 0)
(7.50325 4.11187 0)
(7.83341 3.00029 0)
(7.56426 1.97127 0)
(7.68075 1.11629 0)
(6.95802 0.512132 0)
(6.92647 0.200406 0)
(6.37096 -0.111691 0)
(6.64426 -1.31341 0)
(6.52806 -2.70471 0)
(6.95528 -4.23611 0)
(7.10123 -5.13884 0)
(7.44438 -5.49853 0)
(7.68573 -5.30727 0)
(7.95255 -5.02009 0)
(7.89005 -4.54866 0)
(7.96436 -4.11887 0)
(7.89048 -3.74223 0)
(7.82822 -3.50687 0)
(7.69924 -3.47638 0)
(7.76091 -3.04338 0)
(7.78935 -2.80814 0)
(7.92669 -2.54881 0)
(7.3557 -2.55446 0)
(7.51868 -2.56236 0)
(7.01972 -2.11602 0)
(7.42686 -1.33908 0)
(6.69463 -1.54365 0)
(6.82546 -1.7656 0)
(5.89528 -2.28765 0)
(6.47098 -2.02031 0)
(5.94417 -2.30763 0)
(7.18662 -2.53049 0)
(6.89897 -3.50368 0)
(7.79633 -3.77992 0)
(7.20922 -4.65265 0)
(8.02225 -4.85845 0)
(7.45501 -5.63132 0)
(7.74767 -5.49983 0)
(7.57872 -5.48561 0)
(7.52592 -5.84157 0)
(7.68195 -5.94233 0)
(7.87458 -5.5913 0)
(8.14085 -5.09061 0)
(8.38792 -4.24373 0)
(8.64552 -3.21368 0)
(8.92174 -2.15912 0)
(9.07929 -1.1979 0)
(9.20455 -0.236975 0)
(9.32652 1.23535 0)
(9.361 2.92897 0)
(9.18574 4.08242 0)
(9.04556 5.15111 0)
(8.80584 6.42352 0)
(8.42395 7.35481 0)
(8.18631 8.09954 0)
(7.96758 9.31922 0)
(7.60043 10.4942 0)
(7.10913 10.6382 0)
(6.48932 9.83151 0)
(5.89609 8.75094 0)
(5.40107 7.92346 0)
(4.98466 7.31889 0)
(4.44877 6.99232 0)
(4.57297 6.68821 0)
(4.32264 6.7506 0)
(4.40385 6.74469 0)
(4.22363 6.70903 0)
(4.19714 7.50797 0)
(5.37904 7.76403 0)
(3.8277 10.0845 0)
(5.26951 -0.272321 0)
(5.05818 -0.419464 0)
(5.15861 -0.378163 0)
(5.02132 -0.0616945 0)
(4.71066 0.170084 0)
(4.69309 0.609363 0)
(5.06645 0.733153 0)
(4.82911 0.538908 0)
(4.9719 1.00438 0)
(6.34417 1.53957 0)
(7.25078 1.25959 0)
(7.36938 0.797784 0)
(7.26956 1.01651 0)
(8.29561 1.15882 0)
(9.25961 0.721071 0)
(10.0589 0.153005 0)
(10.2595 -0.281729 0)
(10.8235 -1.06568 0)
(11.2307 -1.60955 0)
(11.6917 -2.29735 0)
(12.7461 -3.34719 0)
(13.1707 -4.03633 0)
(13.7458 -4.80376 0)
(14.0154 -5.35925 0)
(13.7668 -5.66385 0)
(13.4762 -6.0722 0)
(12.9071 -6.15778 0)
(12.3501 -6.13122 0)
(12.1587 -6.40903 0)
(11.6797 -6.35988 0)
(11.0941 -6.23287 0)
(10.9349 -6.45276 0)
(10.949 -6.52634 0)
(10.5213 -6.53493 0)
(10.2576 -6.40046 0)
(10.641 -6.72096 0)
(11.1753 -7.32367 0)
(11.2734 -7.17278 0)
(11.5275 -7.1121 0)
(11.5848 -7.03276 0)
(11.7175 -6.33756 0)
(11.9417 -5.97708 0)
(12.401 -5.33757 0)
(12.5649 -4.3332 0)
(12.4397 -3.37625 0)
(12.7283 -2.16457 0)
(12.4919 -1.0583 0)
(12.1049 0.0772816 0)
(11.9231 1.17899 0)
(11.7743 2.20545 0)
(11.4563 3.42213 0)
(10.7938 3.90208 0)
(9.84851 3.80117 0)
(9.17752 4.14536 0)
(8.45546 3.89091 0)
(7.76254 3.25178 0)
(7.46361 3.56852 0)
(7.11323 3.70644 0)
(6.59011 2.80093 0)
(6.31916 2.3868 0)
(6.34632 3.13506 0)
(6.17893 3.47067 0)
(5.83583 2.67069 0)
(5.50702 1.65202 0)
(5.34399 1.69489 0)
(5.47195 3.01486 0)
(5.70896 4.49938 0)
(5.74285 5.2197 0)
(5.66987 5.29079 0)
(5.61367 5.18232 0)
(5.61918 5.1705 0)
(5.84445 5.48088 0)
(5.79221 6.40565 0)
(5.47116 7.49291 0)
(5.83606 7.86962 0)
(6.29047 7.78794 0)
(6.62601 7.35449 0)
(7.0412 6.3219 0)
(7.27165 5.19921 0)
(7.36408 4.30801 0)
(7.52526 3.03735 0)
(7.67822 1.25282 0)
(7.74888 -0.836985 0)
(7.48498 -3.08332 0)
(7.01263 -4.98867 0)
(6.88028 -5.94536 0)
(6.82449 -7.10092 0)
(6.32617 -9.0657 0)
(5.58904 -10.3184 0)
(5.0975 -9.73122 0)
(4.74614 -8.58913 0)
(4.61138 -7.97173 0)
(4.61871 -7.77099 0)
(4.52391 -7.89534 0)
(5.34332 -7.93387 0)
(5.27743 -8.56897 0)
(5.99876 -9.09262 0)
(6.49785 -9.27257 0)
(6.98624 -9.34576 0)
(7.35507 -9.32548 0)
(7.73929 -8.85041 0)
(7.67645 -7.46889 0)
(7.44573 -5.79504 0)
(7.25061 -4.62225 0)
(7.03114 -4.01288 0)
(6.87282 -3.47737 0)
(6.8881 -2.35406 0)
(6.97567 -0.438566 0)
(7.00291 1.40141 0)
(7.14337 2.74212 0)
(7.15823 4.0578 0)
(6.93518 5.44404 0)
(6.78371 6.3494 0)
(6.61545 7.06861 0)
(6.56391 7.58567 0)
(6.38674 8.69701 0)
(6.0261 10.2206 0)
(5.64298 10.4957 0)
(5.49159 9.03427 0)
(5.05873 7.45661 0)
(4.70267 6.68138 0)
(4.0539 7.00061 0)
(4.25683 7.60048 0)
(4.15249 7.88398 0)
(4.68461 8.21201 0)
(5.28057 7.89289 0)
(5.89282 7.5772 0)
(6.14701 7.14636 0)
(6.78569 6.09238 0)
(7.5785 4.87215 0)
(7.56515 4.02517 0)
(7.9101 2.99946 0)
(7.7023 2.0011 0)
(7.93931 1.20774 0)
(7.19675 0.667554 0)
(7.19578 0.293624 0)
(6.72441 -0.0427297 0)
(7.08995 -1.31438 0)
(6.98334 -2.77318 0)
(7.4894 -4.35437 0)
(7.60502 -5.28516 0)
(7.91245 -5.58326 0)
(8.09252 -5.40103 0)
(8.2855 -5.04966 0)
(8.20988 -4.55504 0)
(8.32022 -4.11891 0)
(8.12113 -3.70307 0)
(8.1732 -3.46877 0)
(7.8952 -3.43445 0)
(7.9146 -3.07565 0)
(7.88373 -2.80356 0)
(7.9713 -2.49818 0)
(7.53117 -2.44004 0)
(7.55985 -2.52656 0)
(7.08834 -2.0582 0)
(7.45544 -1.31817 0)
(6.94606 -1.40422 0)
(7.01422 -1.62832 0)