/*--------------------------------*- C++ -*----------------------------------*\
| =========                 |                                                 |
| \\      /  F ield         | OpenFOAM: The Open Source CFD Toolbox           |
|  \\    /   O peration     | Version:  2.4.0                                 |
|   \\  /    A nd           | Web:      www.OpenFOAM.org                      |
|    \\/     M anipulation  |                                                 |
\*---------------------------------------------------------------------------*/
FoamFile
{
    version     2.0;
    format      ascii;
    class       surfaceScalarField;
    location    "0.17";
    object      phi_0;
}
// * * * * * * * * * * * * * * * * * * * * * * * * * * * * * * * * * * * * * //

dimensions      [0 3 -1 0 0 0 0];

internalField   nonuniform List<scalar> 
8640
(
1.14665e-05
1.35335e-05
7.17196e-06
4.29449e-06
5.92014e-06
1.25182e-06
5.37226e-06
5.47885e-07
5.09653e-06
2.75732e-07
4.93127e-06
1.65256e-07
4.85429e-06
7.69832e-08
4.70432e-06
1.49973e-07
4.69827e-06
6.04492e-09
-5.68781e-07
5.26705e-06
2.10528e-05
1.74807e-05
1.7442e-05
7.90538e-06
1.55182e-05
3.1756e-06
1.42639e-05
1.80219e-06
1.34836e-05
1.05601e-06
1.30173e-05
6.31552e-07
1.2746e-05
3.48291e-07
1.24433e-05
4.52659e-07
1.24003e-05
4.90387e-08
-3.11056e-07
1.21426e-05
2.57081e-05
1.67726e-05
2.40867e-05
9.52677e-06
2.26149e-05
4.64744e-06
2.12514e-05
3.16569e-06
2.02142e-05
2.0932e-06
1.95535e-05
1.2923e-06
1.91379e-05
7.63895e-07
1.87695e-05
8.21026e-07
1.84905e-05
3.28031e-07
-4.071e-07
1.85865e-05
2.74785e-05
1.4294e-05
2.77147e-05
9.29059e-06
2.73667e-05
4.99546e-06
2.65511e-05
3.98129e-06
2.56403e-05
3.00399e-06
2.49754e-05
1.95718e-06
2.45216e-05
1.21776e-06
2.41727e-05
1.16989e-06
2.3724e-05
7.76743e-07
-1.70563e-07
2.34874e-05
2.76955e-05
1.15985e-05
2.88869e-05
8.09921e-06
2.95838e-05
4.29859e-06
2.97198e-05
3.84523e-06
2.93801e-05
3.34366e-06
2.89889e-05
2.34843e-06
2.87033e-05
1.50336e-06
2.84502e-05
1.42297e-06
2.81076e-05
1.11936e-06
5.23303e-07
2.74137e-05
2.75655e-05
9.03299e-06
2.89633e-05
6.70146e-06
2.99418e-05
3.32005e-06
3.0733e-05
3.05409e-06
3.11046e-05
2.97203e-06
3.11896e-05
2.26339e-06
3.13226e-05
1.37041e-06
3.12834e-05
1.4622e-06
3.12485e-05
1.15426e-06
1.26763e-06
3.05042e-05
2.74459e-05
6.58709e-06
2.90012e-05
5.14616e-06
2.98188e-05
2.50249e-06
3.07103e-05
2.16254e-06
3.14175e-05
2.26479e-06
3.17729e-05
1.90801e-06
3.22606e-05
8.82702e-07
3.24961e-05
1.22676e-06
3.27784e-05
8.71926e-07
1.81317e-06
3.22329e-05
2.73685e-05
4.21856e-06
2.90452e-05
3.46945e-06
2.97325e-05
1.81524e-06
3.06131e-05
1.28195e-06
3.13078e-05
1.57007e-06
3.17716e-05
1.44427e-06
3.2344e-05
3.10264e-07
3.27698e-05
8.00978e-07
3.31563e-05
4.85408e-07
4.95644e-07
3.44738e-05
2.72467e-05
1.9719e-06
2.89048e-05
1.81128e-06
2.97514e-05
9.6867e-07
3.04969e-05
5.36442e-07
3.11312e-05
9.35749e-07
3.1809e-05
7.66475e-07
3.23681e-05
-2.48856e-07
3.27194e-05
4.49678e-07
3.31346e-05
7.02209e-08
-9.22721e-07
3.4553e-05
2.71839e-05
-2.1195e-07
2.89295e-05
6.55952e-08
2.97156e-05
1.82581e-07
3.03712e-05
-1.19112e-07
3.11213e-05
1.85595e-07
3.18658e-05
2.19973e-08
3.22593e-05
-6.42383e-07
3.26417e-05
6.72894e-08
3.32832e-05
-5.71288e-07
-2.1381e-06
3.44986e-05
2.72408e-05
-2.45271e-06
2.89345e-05
-1.62814e-06
2.96109e-05
-4.93801e-07
3.04028e-05
-9.11033e-07
3.12083e-05
-6.19906e-07
3.18343e-05
-6.04036e-07
3.22033e-05
-1.01134e-06
3.27273e-05
-4.5668e-07
3.33566e-05
-1.2006e-06
-2.9658e-06
3.41843e-05
2.72685e-05
-4.72124e-06
2.8866e-05
-3.22561e-06
2.96548e-05
-1.28257e-06
3.05327e-05
-1.78892e-06
3.1222e-05
-1.30922e-06
3.18034e-05
-1.18549e-06
3.2278e-05
-1.48595e-06
3.28149e-05
-9.93558e-07
3.33462e-05
-1.7319e-06
-3.52063e-06
3.3901e-05
2.72834e-05
-7.00468e-06
2.88931e-05
-4.83529e-06
2.97787e-05
-2.16813e-06
3.05791e-05
-2.58934e-06
3.12615e-05
-1.9916e-06
3.18859e-05
-1.80989e-06
3.23709e-05
-1.97096e-06
3.28241e-05
-1.44672e-06
3.32874e-05
-2.19527e-06
-3.96278e-06
3.37296e-05
2.73374e-05
-9.34208e-06
2.88249e-05
-6.32278e-06
2.98873e-05
-3.23057e-06
3.06837e-05
-3.38573e-06
3.14022e-05
-2.71009e-06
3.19186e-05
-2.32631e-06
3.22509e-05
-2.30325e-06
3.25349e-05
-1.73068e-06
3.27761e-05
-2.43651e-06
-4.05575e-06
3.28691e-05
2.74309e-05
-1.1773e-05
2.89095e-05
-7.80144e-06
3.00306e-05
-4.35163e-06
3.07065e-05
-4.06165e-06
3.11447e-05
-3.14828e-06
3.12719e-05
-2.45352e-06
3.12228e-05
-2.25415e-06
3.11643e-05
-1.67217e-06
3.09937e-05
-2.2659e-06
-3.71606e-06
3.0654e-05
2.76086e-05
-1.43816e-05
2.89152e-05
-9.10802e-06
2.96354e-05
-5.07185e-06
2.96764e-05
-4.10257e-06
2.94186e-05
-2.89049e-06
2.90084e-05
-2.04333e-06
2.85577e-05
-1.80349e-06
2.82027e-05
-1.31713e-06
2.77362e-05
-1.79944e-06
-2.55243e-06
2.65726e-05
2.74334e-05
-1.6815e-05
2.7755e-05
-9.4296e-06
2.7384e-05
-4.70083e-06
2.65125e-05
-3.23104e-06
2.56656e-05
-2.04361e-06
2.49595e-05
-1.33722e-06
2.43401e-05
-1.18413e-06
2.38897e-05
-8.66724e-07
2.33289e-05
-1.23863e-06
-1.76237e-06
2.25388e-05
2.56837e-05
-1.74987e-05
2.41182e-05
-7.86414e-06
2.26166e-05
-3.19921e-06
2.12214e-05
-1.83581e-06
2.02208e-05
-1.04304e-06
1.95246e-05
-6.4105e-07
1.89391e-05
-5.98555e-07
1.85272e-05
-4.54881e-07
1.79558e-05
-6.67246e-07
-9.50468e-07
1.71439e-05
2.10399e-05
-1.35386e-05
1.74602e-05
-4.28439e-06
1.55169e-05
-1.25599e-06
1.42414e-05
-5.6031e-07
1.34759e-05
-2.77513e-07
1.29926e-05
-1.57758e-07
1.2567e-05
-1.7298e-07
1.22588e-05
-1.46668e-07
1.17917e-05
-2.00077e-07
-3.22091e-07
1.11633e-05
1.14614e-05
7.17698e-06
5.92099e-06
5.36068e-06
5.08317e-06
4.92541e-06
4.75243e-06
4.60576e-06
4.40568e-06
4.08359e-06
6.26175e-06
2.45662e-06
-3.45131e-06
7.68926e-06
6.91866e-07
-2.11938e-06
8.6015e-06
-1.94669e-06
1.03445e-06
9.20719e-06
-1.67266e-06
1.06696e-06
1.00233e-05
-7.58423e-07
-5.76947e-08
1.05702e-05
8.8208e-07
-1.42896e-06
1.13758e-05
1.09586e-06
-1.90148e-06
1.26964e-05
-9.60992e-07
-3.59576e-07
1.39951e-05
-2.60943e-06
1.31074e-06
1.52509e-05
-5.46958e-06
4.21377e-06
1.65722e-05
-8.70355e-06
7.38224e-06
1.70622e-05
-1.00106e-05
9.52055e-06
1.64736e-05
-1.19458e-05
1.25344e-05
1.52699e-05
-1.11002e-05
1.23039e-05
1.34332e-05
-8.7293e-06
1.0566e-05
1.1562e-05
-5.29413e-06
7.16529e-06
1.12155e-05
-1.34732e-07
4.81252e-07
1.41836e-05
9.68677e-06
-1.26549e-05
1.83959e-05
1.06877e-05
-1.48999e-05
2.1123e-05
5.83065e-06
-8.55778e-06
2.3456e-05
4.16067e-07
-2.74907e-06
2.49561e-05
-4.15953e-06
2.65941e-06
2.60376e-05
-9.00416e-06
7.92265e-06
2.76123e-05
-1.45515e-05
1.29768e-05
2.97873e-05
-1.83601e-05
1.61851e-05
3.21796e-05
-2.3409e-05
2.10166e-05
3.42603e-05
-2.95052e-05
2.74245e-05
3.58214e-05
-3.3429e-05
3.18679e-05
3.64475e-05
-3.56034e-05
3.49774e-05
3.64145e-05
-3.72133e-05
3.72463e-05
3.6453e-05
-3.75986e-05
3.75601e-05
3.63493e-05
-3.7279e-05
3.73828e-05
3.59075e-05
-3.38541e-05
3.42959e-05
3.47824e-05
-2.89692e-05
3.00943e-05
3.288e-05
-2.34207e-05
2.53231e-05
3.0757e-05
-1.65079e-05
1.86309e-05
2.8832e-05
-8.43709e-06
1.0362e-05
2.65424e-05
-3.9015e-06
6.19112e-06
2.41808e-05
-1.55204e-07
2.51679e-06
2.27435e-05
-9.35113e-07
2.37242e-06
2.23793e-05
-2.16542e-06
2.52964e-06
2.1891e-05
-4.76861e-06
5.25696e-06
2.11471e-05
-4.051e-06
4.79485e-06
2.27228e-05
-5.36372e-06
3.78801e-06
2.45145e-05
-6.48796e-06
4.69629e-06
2.61706e-05
-8.3296e-06
6.67348e-06
2.70657e-05
-2.43763e-06
1.54253e-06
2.72699e-05
4.05673e-06
-4.26093e-06
2.70007e-05
7.48763e-06
-7.21844e-06
2.67504e-05
1.71541e-05
-1.69038e-05
2.57072e-05
2.61764e-05
-2.51331e-05
2.41824e-05
3.00962e-05
-2.85714e-05
2.31238e-05
3.20821e-05
-3.10236e-05
2.23856e-05
3.48036e-05
-3.40653e-05
2.15124e-05
3.4326e-05
-3.34529e-05
2.02053e-05
3.38247e-05
-3.25176e-05
1.84254e-05
2.71518e-05
-2.53718e-05
1.77014e-05
2.09448e-05
-2.02207e-05
1.83926e-05
1.48077e-05
-1.5499e-05
1.94137e-05
2.01897e-05
-2.12108e-05
1.98675e-05
2.58479e-05
-2.63017e-05
2.10262e-05
2.67641e-05
-2.79228e-05
2.13112e-05
2.06473e-05
-2.09323e-05
2.07349e-05
1.03911e-05
-9.81483e-06
2.02996e-05
-6.85422e-07
1.1208e-06
2.00081e-05
-5.67132e-06
5.96277e-06
1.90337e-05
-2.03984e-05
2.13728e-05
1.82863e-05
-3.50884e-05
3.58359e-05
1.79385e-05
-3.84538e-05
3.88015e-05
1.77366e-05
-3.74661e-05
3.7668e-05
1.76325e-05
-3.79327e-05
3.80369e-05
1.78943e-05
-4.14254e-05
4.11636e-05
1.84781e-05
-4.80028e-05
4.7419e-05
1.89923e-05
-4.07617e-05
4.02475e-05
1.94597e-05
-3.44671e-05
3.39998e-05
1.86896e-05
-2.17417e-05
2.25117e-05
1.99091e-05
-1.36881e-05
1.24686e-05
2.08864e-05
-4.83475e-06
3.85739e-06
2.16944e-05
4.10713e-06
-4.91508e-06
2.25163e-05
1.50037e-05
-1.58257e-05
2.3672e-05
2.3066e-05
-2.42217e-05
2.38502e-05
2.7583e-05
-2.77612e-05
2.28646e-05
3.28253e-05
-3.18397e-05
2.12126e-05
3.56791e-05
-3.40271e-05
1.96999e-05
3.29179e-05
-3.14052e-05
1.79461e-05
3.23011e-05
-3.05473e-05
1.70375e-05
3.01935e-05
-2.92848e-05
1.4416e-05
3.42651e-05
-3.16436e-05
1.40978e-05
3.17884e-05
-3.14702e-05
1.20148e-05
4.10689e-05
-3.89859e-05
1.07673e-05
3.24428e-05
-3.11953e-05
1.16633e-05
3.66399e-05
-3.75359e-05
1.5286e-05
1.78879e-05
-2.15106e-05
1.43716e-05
1.94636e-05
-1.85493e-05
1.44486e-05
-3.31158e-06
3.23461e-06
1.26276e-05
5.76217e-06
-3.94118e-06
1.14459e-05
-8.85226e-06
1.0034e-05
9.47402e-06
3.30423e-06
-1.33233e-06
1.31559e-05
-7.36468e-06
3.6828e-06
1.77472e-05
-1.66917e-05
1.21005e-05
1.25306e-05
2.06856e-06
1.29333e-05
2.89239e-07
1.36933e-05
-2.70677e-06
1.43449e-05
-2.32419e-06
1.522e-05
-1.6336e-06
1.61077e-05
-5.55399e-09
1.66709e-05
5.32672e-07
1.75777e-05
-1.86785e-06
1.88961e-05
-3.92781e-06
1.9896e-05
-6.46944e-06
2.07078e-05
-9.51534e-06
2.13179e-05
-1.06207e-05
2.09847e-05
-1.16126e-05
2.00238e-05
-1.01393e-05
1.84838e-05
-7.18935e-06
1.7194e-05
-4.00432e-06
1.67278e-05
3.3153e-07
1.88173e-05
7.5972e-06
2.16652e-05
7.83985e-06
2.38519e-05
3.64398e-06
2.59758e-05
-1.70789e-06
2.74408e-05
-5.62451e-06
2.86815e-05
-1.02448e-05
3.03048e-05
-1.61748e-05
3.26105e-05
-2.06658e-05
3.47143e-05
-2.55127e-05
3.57216e-05
-3.05125e-05
3.60454e-05
-3.37529e-05
3.6109e-05
-3.5667e-05
3.6244e-05
-3.73483e-05
3.63376e-05
-3.76922e-05
3.56177e-05
-3.65592e-05
3.44237e-05
-3.26601e-05
3.26612e-05
-2.72067e-05
3.0371e-05
-2.11304e-05
2.83345e-05
-1.44713e-05
2.64936e-05
-6.59622e-06
2.42207e-05
-1.62861e-06
2.22522e-05
1.81328e-06
2.12247e-05
9.24211e-08
2.06461e-05
-1.58685e-06
1.97716e-05
-3.89408e-06
1.98023e-05
-4.08172e-06
2.21639e-05
-7.72534e-06
2.41215e-05
-8.4455e-06
2.55019e-05
-9.71002e-06
2.61596e-05
-3.09533e-06
2.64047e-05
3.81162e-06
2.59108e-05
7.98155e-06
2.56889e-05
1.7376e-05
2.5e-05
2.68652e-05
2.36321e-05
3.14642e-05
2.27232e-05
3.2991e-05
2.19478e-05
3.5579e-05
2.12752e-05
3.49987e-05
2.03751e-05
3.47247e-05
1.87458e-05
2.87811e-05
1.828e-05
2.14105e-05
1.88361e-05
1.42517e-05
1.98448e-05
1.9181e-05
2.04735e-05
2.52192e-05
2.19889e-05
2.52487e-05
2.2646e-05
1.99902e-05
2.21219e-05
1.09151e-05
2.13975e-05
3.8984e-08
2.11418e-05
-5.41558e-06
2.03116e-05
-1.95682e-05
1.94107e-05
-3.41875e-05
1.86896e-05
-3.77326e-05
1.77454e-05
-3.65219e-05
1.71936e-05
-3.7381e-05
1.72779e-05
-4.15097e-05
1.71625e-05
-4.78874e-05
1.72966e-05
-4.08959e-05
1.75858e-05
-3.47563e-05
1.67523e-05
-2.09082e-05
1.83827e-05
-1.53184e-05
1.85839e-05
-5.03597e-06
2.03144e-05
2.3766e-06
2.10648e-05
1.42534e-05
2.15653e-05
2.25655e-05
2.18811e-05
2.72672e-05
2.20056e-05
3.27008e-05
2.12599e-05
3.64248e-05
1.99021e-05
3.42757e-05
1.76005e-05
3.46027e-05
1.75043e-05
3.02896e-05
1.47498e-05
3.70195e-05
1.51617e-05
3.13765e-05
1.50294e-05
4.12013e-05
1.28817e-05
3.45905e-05
1.20502e-05
3.74714e-05
1.5199e-05
1.47391e-05
1.5057e-05
1.96057e-05
1.56157e-05
-3.87032e-06
1.39939e-05
7.38394e-06
1.26431e-05
-7.50147e-06
8.96194e-06
6.98543e-06
1.183e-05
-1.02328e-05
1.38459e-05
1.57313e-05
1.91824e-05
1.47275e-06
1.91387e-05
3.32867e-07
1.93294e-05
-2.89748e-06
2.01076e-05
-3.10231e-06
2.0659e-05
-2.18499e-06
2.14057e-05
-7.52327e-07
2.23734e-05
-4.35021e-07
2.27894e-05
-2.28384e-06
2.35162e-05
-4.65456e-06
2.44172e-05
-7.37044e-06
2.46379e-05
-9.73612e-06
2.506e-05
-1.10428e-05
2.49304e-05
-1.14829e-05
2.42839e-05
-9.49284e-06
2.3201e-05
-6.10647e-06
2.19398e-05
-2.74309e-06
2.15905e-05
6.80797e-07
2.34995e-05
5.68828e-06
2.5474e-05
5.86532e-06
2.71239e-05
1.9941e-06
2.89055e-05
-3.48954e-06
3.03551e-05
-7.0741e-06
3.16166e-05
-1.15063e-05
3.3005e-05
-1.75632e-05
3.49387e-05
-2.25995e-05
3.60976e-05
-2.66716e-05
3.57618e-05
-3.01767e-05
3.53395e-05
-3.33305e-05
3.55502e-05
-3.58777e-05
3.57842e-05
-3.75824e-05
3.53278e-05
-3.72357e-05
3.37301e-05
-3.49615e-05
3.16937e-05
-3.06237e-05
2.94524e-05
-2.49655e-05
2.71549e-05
-1.88329e-05
2.52347e-05
-1.25511e-05
2.32617e-05
-4.62327e-06
2.11345e-05
4.98603e-07
1.97751e-05
3.17266e-06
1.89123e-05
9.55227e-07
1.811e-05
-7.84587e-07
1.75938e-05
-3.3778e-06
1.87581e-05
-5.24601e-06
2.1328e-05
-1.02952e-05
2.31269e-05
-1.02444e-05
2.41829e-05
-1.07661e-05
2.44239e-05
-3.33629e-06
2.46944e-05
3.54111e-06
2.43134e-05
8.36252e-06
2.42036e-05
1.74858e-05
2.36397e-05
2.74292e-05
2.24228e-05
3.2681e-05
2.18361e-05
3.35777e-05
2.13157e-05
3.60994e-05
2.07599e-05
3.55544e-05
2.0139e-05
3.53456e-05
1.88888e-05
3.00313e-05
1.87512e-05
2.15481e-05
1.91852e-05
1.38178e-05
2.00447e-05
1.83215e-05
2.08477e-05
2.44163e-05
2.25348e-05
2.35616e-05
2.33142e-05
1.92109e-05
2.29854e-05
1.12439e-05
2.23765e-05
6.47894e-07
2.21065e-05
-5.14555e-06
2.1275e-05
-1.87368e-05
2.01549e-05
-3.30674e-05
1.91164e-05
-3.66941e-05
1.76971e-05
-3.51026e-05
1.6426e-05
-3.61098e-05
1.64042e-05
-4.14879e-05
1.57845e-05
-4.72677e-05
1.55868e-05
-4.06982e-05
1.60156e-05
-3.51851e-05
1.51531e-05
-2.00457e-05
1.63692e-05
-1.65346e-05
1.66944e-05
-5.36119e-06
1.86852e-05
3.85812e-07
1.80197e-05
1.49189e-05
2.10102e-05
1.95749e-05
2.06329e-05
2.76445e-05
2.01281e-05
3.32056e-05
1.94115e-05
3.71414e-05
1.97437e-05
3.39435e-05
1.77762e-05
3.65702e-05
1.80553e-05
3.00105e-05
1.59407e-05
3.91342e-05
1.56695e-05
3.16478e-05
1.64765e-05
4.03942e-05
1.74398e-05
3.36272e-05
1.57104e-05
3.92007e-05
1.69014e-05
1.35481e-05
1.66534e-05
1.98537e-05
1.6619e-05
-3.83591e-06
1.55015e-05
8.5014e-06
1.44206e-05
-6.42054e-06
1.27495e-05
8.65652e-06
1.23961e-05
-9.87936e-06
9.40523e-06
1.68368e-05
2.438e-05
5.80185e-07
2.50191e-05
-3.06206e-07
2.49106e-05
-2.789e-06
2.53556e-05
-3.54726e-06
2.58441e-05
-2.67357e-06
2.60069e-05
-9.15053e-07
2.6832e-05
-1.26015e-06
2.72106e-05
-2.66241e-06
2.73671e-05
-4.81107e-06
2.79165e-05
-7.91987e-06
2.77749e-05
-9.59451e-06
2.79618e-05
-1.12297e-05
2.78984e-05
-1.14195e-05
2.73799e-05
-8.97433e-06
2.7073e-05
-5.79965e-06
2.62097e-05
-1.87977e-06
2.5733e-05
1.15756e-06
2.72304e-05
4.19082e-06
2.87656e-05
4.33018e-06
3.01272e-05
6.32465e-07
3.1427e-05
-4.78932e-06
3.27991e-05
-8.44621e-06
3.39277e-05
-1.26349e-05
3.48256e-05
-1.8461e-05
3.56622e-05
-2.34362e-05
3.54357e-05
-2.64451e-05
3.46343e-05
-2.93753e-05
3.45587e-05
-3.32549e-05
3.49617e-05
-3.62808e-05
3.46983e-05
-3.7319e-05
3.32037e-05
-3.57411e-05
3.07374e-05
-3.24952e-05
2.8275e-05
-2.81613e-05
2.5966e-05
-2.26565e-05
2.37233e-05
-1.65902e-05
2.15951e-05
-1.04228e-05
1.95402e-05
-2.56843e-06
1.77727e-05
2.26611e-06
1.66263e-05
4.31913e-06
1.5735e-05
1.84652e-06
1.53757e-05
-4.25258e-07
1.58238e-05
-3.82599e-06
1.76215e-05
-7.04363e-06
1.9836e-05
-1.25098e-05
2.14888e-05
-1.18972e-05
2.2323e-05
-1.16003e-05
2.22191e-05
-3.23235e-06
2.2478e-05
3.28214e-06
2.21391e-05
8.70147e-06
2.22551e-05
1.73698e-05
2.21911e-05
2.74932e-05
2.13211e-05
3.35511e-05
2.08527e-05
3.40461e-05
2.06445e-05
3.63076e-05
2.02006e-05
3.59983e-05
1.96985e-05
3.58477e-05
1.87807e-05
3.09491e-05
1.89161e-05
2.14127e-05
1.93177e-05
1.34162e-05
2.01592e-05
1.74799e-05
2.13203e-05
2.32552e-05
2.30469e-05
2.1835e-05
2.36867e-05
1.85711e-05
2.36275e-05
1.13031e-05
2.3274e-05
1.00138e-06
2.30642e-05
-4.93574e-06
2.22324e-05
-1.79051e-05
2.0888e-05
-3.1723e-05
1.94725e-05
-3.52786e-05
1.75902e-05
-3.32204e-05
1.57056e-05
-3.42252e-05
1.53161e-05
-4.10984e-05
1.44364e-05
-4.6388e-05
1.43132e-05
-4.05749e-05
1.41631e-05
-3.5035e-05
1.31426e-05
-1.90251e-05
1.45135e-05
-1.79055e-05
1.36168e-05
-4.46443e-06
1.59162e-05
-1.91357e-06
1.54593e-05
1.53757e-05
1.8279e-05
1.67553e-05
1.78314e-05
2.80921e-05
1.98135e-05
3.12235e-05
1.84218e-05
3.85331e-05
1.93251e-05
3.30401e-05
1.80757e-05
3.78197e-05
1.86079e-05
2.94783e-05
1.73752e-05
4.03669e-05
1.80572e-05
3.09657e-05
1.85199e-05
3.99316e-05
2.06404e-05
3.15067e-05
1.8716e-05
4.11251e-05
1.81942e-05
1.40699e-05
1.85669e-05
1.94811e-05
1.75626e-05
-2.83164e-06
1.72792e-05
8.78477e-06
1.62503e-05
-5.39165e-06
1.65357e-05
8.37118e-06
1.48544e-05
-8.19813e-06
6.41402e-06
1.78456e-05
2.79882e-05
5.76025e-09
2.90493e-05
-1.36737e-06
2.93259e-05
-3.0656e-06
2.96656e-05
-3.88696e-06
3.01412e-05
-3.14915e-06
3.00634e-05
-8.37277e-07
3.04557e-05
-1.65242e-06
3.06812e-05
-2.88789e-06
3.06247e-05
-4.75463e-06
3.07093e-05
-8.00449e-06
3.01164e-05
-9.00154e-06
2.98963e-05
-1.10096e-05
2.98363e-05
-1.13595e-05
2.94453e-05
-8.58328e-06
2.93963e-05
-5.75066e-06
2.9156e-05
-1.63953e-06
2.89972e-05
1.31637e-06
2.99825e-05
3.20556e-06
3.12385e-05
3.07416e-06
3.22804e-05
-4.09425e-07
3.29294e-05
-5.43838e-06
3.3966e-05
-9.48274e-06
3.48867e-05
-1.35556e-05
3.5223e-05
-1.87974e-05
3.47459e-05
-2.29591e-05
3.37668e-05
-2.5466e-05
3.36346e-05
-2.92431e-05
3.41963e-05
-3.38166e-05
3.40883e-05
-3.61728e-05
3.25754e-05
-3.58061e-05
3.00147e-05
-3.31804e-05
2.7146e-05
-2.96264e-05
2.45444e-05
-2.55597e-05
2.21714e-05
-2.02834e-05
1.99371e-05
-1.4356e-05
1.76788e-05
-8.16451e-06
1.57675e-05
-6.57121e-07
1.42909e-05
3.74266e-06
1.33145e-05
5.2956e-06
1.28033e-05
2.3577e-06
1.31042e-05
-7.26118e-07
1.41291e-05
-4.85095e-06
1.59836e-05
-8.8981e-06
1.78234e-05
-1.43496e-05
1.9296e-05
-1.33698e-05
1.99287e-05
-1.2233e-05
1.95937e-05
-2.89734e-06
1.98758e-05
3e-06
1.97831e-05
8.79418e-06
2.00249e-05
1.7128e-05
2.00163e-05
2.75018e-05
1.95624e-05
3.4005e-05
1.94199e-05
3.41886e-05
1.96543e-05
3.60732e-05
1.95697e-05
3.60829e-05
1.91707e-05
3.62466e-05
1.84948e-05
3.1625e-05
1.884e-05
2.10676e-05
1.93047e-05
1.29515e-05
2.04827e-05
1.63018e-05
2.21727e-05
2.15652e-05
2.36856e-05
2.03221e-05
2.40885e-05
1.81682e-05
2.43968e-05
1.09948e-05
2.42657e-05
1.13247e-06
2.39537e-05
-4.62373e-06
2.31481e-05
-1.70995e-05
2.168e-05
-3.02548e-05
1.97254e-05
-3.3324e-05
1.71821e-05
-3.06771e-05
1.49465e-05
-3.19895e-05
1.41093e-05
-4.02612e-05
1.29465e-05
-4.52252e-05
1.28084e-05
-4.04369e-05
1.22579e-05
-3.44844e-05
1.16544e-05
-1.84217e-05
1.24937e-05
-1.87448e-05
1.11534e-05
-3.12413e-06
1.32811e-05
-4.04127e-06
1.23934e-05
1.62634e-05
1.75227e-05
1.1626e-05
1.62085e-05
2.94063e-05
1.85875e-05
2.88444e-05
1.68551e-05
4.02655e-05
1.79482e-05
3.1947e-05
1.69929e-05
3.8775e-05
1.75212e-05
2.895e-05
1.74444e-05
4.04437e-05
1.89867e-05
2.94235e-05
1.96621e-05
3.92561e-05
2.28112e-05
2.83577e-05
2.21969e-05
4.17394e-05
1.90777e-05
1.71891e-05
1.93339e-05
1.92248e-05
1.85782e-05
-2.0759e-06
1.84417e-05
8.92131e-06
1.72101e-05
-4.16008e-06
1.74495e-05
8.13181e-06
1.55027e-05
-6.25134e-06
3.74275e-06
1.81739e-05
3.08452e-05
-3.35339e-07
3.179e-05
-2.31211e-06
3.20646e-05
-3.3402e-06
3.23088e-05
-4.13117e-06
3.28246e-05
-3.66497e-06
3.28238e-05
-8.36467e-07
3.29165e-05
-1.74513e-06
3.30933e-05
-3.06467e-06
3.31031e-05
-4.7644e-06
3.29747e-05
-7.87616e-06
3.23141e-05
-8.34091e-06
3.14846e-05
-1.01801e-05
3.09502e-05
-1.08252e-05
3.05308e-05
-8.16387e-06
3.02975e-05
-5.51731e-06
3.03858e-05
-1.72783e-06
3.05578e-05
1.14432e-06
3.13928e-05
2.37062e-06
3.26766e-05
1.79028e-06
3.34011e-05
-1.13389e-06
3.3594e-05
-5.6313e-06
3.4244e-05
-1.01327e-05
3.48084e-05
-1.412e-05
3.42001e-05
-1.81892e-05
3.28852e-05
-2.16442e-05
3.25876e-05
-2.51683e-05
3.33559e-05
-3.00114e-05
3.33854e-05
-3.38461e-05
3.19498e-05
-3.47372e-05
2.93807e-05
-3.3237e-05
2.63255e-05
-3.01252e-05
2.34632e-05
-2.67641e-05
2.08545e-05
-2.29511e-05
1.83436e-05
-1.77726e-05
1.59944e-05
-1.20067e-05
1.36227e-05
-5.79283e-06
1.19133e-05
1.05225e-06
1.07602e-05
4.89582e-06
1.03005e-05
5.75526e-06
1.04594e-05
2.19876e-06
1.12313e-05
-1.49797e-06
1.23808e-05
-6.0005e-06
1.3952e-05
-1.04693e-05
1.55016e-05
-1.58992e-05
1.66778e-05
-1.4546e-05
1.69e-05
-1.24551e-05
1.65269e-05
-2.52423e-06
1.71954e-05
2.33146e-06
1.70818e-05
8.90778e-06
1.73272e-05
1.68826e-05
1.77421e-05
2.70868e-05
1.78909e-05
3.38563e-05
1.78582e-05
3.42213e-05
1.83749e-05
3.55564e-05
1.88587e-05
3.55992e-05
1.86382e-05
3.64671e-05
1.83837e-05
3.18795e-05
1.88231e-05
2.06282e-05
1.89383e-05
1.28363e-05
2.03114e-05
1.49288e-05
2.27605e-05
1.91161e-05
2.43244e-05
1.87582e-05
2.47326e-05
1.776e-05
2.54121e-05
1.03153e-05
2.53428e-05
1.20172e-06
2.47336e-05
-4.01452e-06
2.38484e-05
-1.62143e-05
2.22251e-05
-2.86315e-05
1.9792e-05
-3.08909e-05
1.66872e-05
-2.75723e-05
1.40452e-05
-2.93475e-05
1.26619e-05
-3.88779e-05
1.11642e-05
-4.37276e-05
1.12185e-05
-4.04912e-05
1.02889e-05
-3.35547e-05
9.66475e-06
-1.77976e-05
1.01851e-05
-1.92651e-05
8.61573e-06
-1.55474e-06
1.0631e-05
-6.05656e-06
9.35604e-06
1.75384e-05
1.4312e-05
6.67002e-06
1.18788e-05
3.18395e-05
1.594e-05
2.47833e-05
1.56623e-05
4.05432e-05
1.79854e-05
2.96239e-05
1.77141e-05
3.90463e-05
1.74354e-05
2.92287e-05
1.79151e-05
3.9964e-05
2.01854e-05
2.71532e-05
1.98377e-05
3.96038e-05
2.24207e-05
2.57747e-05
2.4113e-05
4.00471e-05
2.13464e-05
1.99557e-05
2.0526e-05
2.00453e-05
1.92886e-05
-8.38573e-07
1.95308e-05
8.67916e-06
1.85287e-05
-3.15798e-06
1.90248e-05
7.63569e-06
1.70102e-05
-4.23669e-06
1.72385e-06
1.90291e-05
3.27534e-05
-8.55897e-07
3.35086e-05
-3.06725e-06
3.35724e-05
-3.40401e-06
3.33973e-05
-3.95605e-06
3.36607e-05
-3.92844e-06
3.38905e-05
-1.06618e-06
3.38703e-05
-1.72495e-06
3.40786e-05
-3.27299e-06
3.40755e-05
-4.76131e-06
3.37152e-05
-7.51589e-06
3.32339e-05
-7.8596e-06
3.21939e-05
-9.14008e-06
3.13356e-05
-9.96688e-06
3.0632e-05
-7.46023e-06
3.0024e-05
-4.90934e-06
3.01276e-05
-1.8314e-06
3.04106e-05
8.61251e-07
3.14623e-05
1.31894e-06
3.28578e-05
3.94795e-07
3.3387e-05
-1.6631e-06
3.35441e-05
-5.78844e-06
3.39314e-05
-1.052e-05
3.37945e-05
-1.39831e-05
3.24562e-05
-1.68509e-05
3.15326e-05
-2.07206e-05
3.22574e-05
-2.58931e-05
3.27983e-05
-3.05522e-05
3.14752e-05
-3.2523e-05
2.87575e-05
-3.20195e-05
2.56259e-05
-3.01054e-05
2.2698e-05
-2.71972e-05
2.00209e-05
-2.4087e-05
1.7294e-05
-2.02242e-05
1.46053e-05
-1.50839e-05
1.19935e-05
-9.39489e-06
9.55862e-06
-3.35797e-06
8.09494e-06
2.51593e-06
7.31326e-06
5.67751e-06
7.54586e-06
5.52266e-06
8.24005e-06
1.50457e-06
9.13894e-06
-2.39686e-06
1.00982e-05
-6.95976e-06
1.14001e-05
-1.17712e-05
1.27213e-05
-1.72204e-05
1.34721e-05
-1.52968e-05
1.33319e-05
-1.23149e-05
1.32372e-05
-2.42961e-06
1.43502e-05
1.21851e-06
1.43745e-05
8.88349e-06
1.46643e-05
1.65928e-05
1.51104e-05
2.66407e-05
1.57701e-05
3.31966e-05
1.60171e-05
3.39743e-05
1.69001e-05
3.46734e-05
1.78693e-05
3.463e-05
1.79706e-05
3.63658e-05
1.8377e-05
3.14731e-05
1.88039e-05
2.02013e-05
1.84188e-05
1.32214e-05
1.97807e-05
1.35668e-05
2.29473e-05
1.59495e-05
2.49093e-05
1.67963e-05
2.55862e-05
1.70831e-05
2.63956e-05
9.50591e-06
2.61307e-05
1.46661e-06
2.52695e-05
-3.15326e-06
2.43848e-05
-1.53296e-05
2.26719e-05
-2.69187e-05
1.98201e-05
-2.80391e-05
1.63726e-05
-2.41248e-05
1.32156e-05
-2.61905e-05
1.11456e-05
-3.68079e-05
9.32157e-06
-4.19036e-05
8.63579e-06
-3.98055e-05
7.73738e-06
-3.26563e-05
7.76141e-06
-1.78216e-05
7.40389e-06
-1.89076e-05
6.17911e-06
-3.29965e-07
8.27666e-06
-8.1541e-06
6.97743e-06
1.88376e-05
1.27197e-05
9.2771e-07
1.24158e-05
3.21435e-05
1.56831e-05
2.15159e-05
1.33637e-05
4.28626e-05
1.67277e-05
2.62599e-05
1.7737e-05
3.8037e-05
1.81772e-05
2.87885e-05
1.93016e-05
3.88396e-05
2.25745e-05
2.38803e-05
2.14313e-05
4.0747e-05
2.18973e-05
2.53086e-05
2.35521e-05
3.83923e-05
2.2837e-05
2.06708e-05
2.27805e-05
2.01018e-05
2.06071e-05
1.33483e-06
2.0648e-05
8.63828e-06
2.03583e-05
-2.86833e-06
2.11076e-05
6.88642e-06
1.90504e-05
-2.17945e-06
1.73724e-07
2.06005e-05
3.43351e-05
-7.17181e-07
3.40173e-05
-2.74947e-06
3.39119e-05
-3.29858e-06
3.34859e-05
-3.53009e-06
3.33467e-05
-3.78925e-06
3.36543e-05
-1.37376e-06
3.37306e-05
-1.80122e-06
3.41194e-05
-3.66185e-06
3.40592e-05
-4.70105e-06
3.35177e-05
-6.97439e-06
3.31303e-05
-7.47222e-06
3.21208e-05
-8.1306e-06
3.09648e-05
-8.81083e-06
2.9828e-05
-6.32348e-06
2.90418e-05
-4.12307e-06
2.91343e-05
-1.92397e-06
2.98363e-05
1.59281e-07
3.11913e-05
-3.60243e-08
3.23728e-05
-7.86797e-07
3.31248e-05
-2.41503e-06
3.3485e-05
-6.14863e-06
3.31821e-05
-1.02171e-05
3.22995e-05
-1.31005e-05
3.13289e-05
-1.58803e-05
3.14043e-05
-2.0796e-05
3.19385e-05
-2.64273e-05
3.09909e-05
-2.96046e-05
2.82885e-05
-2.98207e-05
2.49615e-05
-2.86925e-05
2.18671e-05
-2.7011e-05
1.91362e-05
-2.44663e-05
1.65205e-05
-2.14713e-05
1.37205e-05
-1.74242e-05
1.08533e-05
-1.22168e-05
8.05336e-06
-6.59491e-06
5.70012e-06
-1.00473e-06
4.3239e-06
3.89215e-06
4.09871e-06
5.90269e-06
5.0778e-06
4.54357e-06
6.03033e-06
5.52037e-07
6.85121e-06
-3.21774e-06
7.5269e-06
-7.63546e-06
8.75188e-06
-1.29962e-05
9.76728e-06
-1.82358e-05
1.00412e-05
-1.55708e-05
9.65187e-06
-1.19255e-05
1.00191e-05
-2.79686e-06
1.13091e-05
-7.14287e-08
1.12056e-05
8.98696e-06
1.16136e-05
1.61848e-05
1.26129e-05
2.56413e-05
1.3577e-05
3.22325e-05
1.41486e-05
3.34027e-05
1.5314e-05
3.35081e-05
1.64832e-05
3.34608e-05
1.71999e-05
3.56491e-05
1.82279e-05
3.0445e-05
1.86041e-05
1.98251e-05
1.84366e-05
1.3389e-05
1.99418e-05
1.20616e-05
2.30549e-05
1.28365e-05
2.50891e-05
1.4762e-05
2.61045e-05
1.60677e-05
2.68897e-05
8.72065e-06
2.63557e-05
2.00061e-06
2.54469e-05
-2.24446e-06
2.464e-05
-1.45227e-05
2.28742e-05
-2.51528e-05
1.96819e-05
-2.48468e-05
1.58173e-05
-2.02601e-05
1.23146e-05
-2.26879e-05
9.34639e-06
-3.38397e-05
6.7803e-06
-3.93375e-05
5.88356e-06
-3.89087e-05
5.69276e-06
-3.24655e-05
6.36141e-06
-1.84902e-05
5.62092e-06
-1.81671e-05
5.43233e-06
-1.41376e-07
6.99405e-06
-9.71582e-06
5.36852e-06
2.04631e-05
9.25964e-06
-2.96341e-06
7.75392e-06
3.36492e-05
1.32665e-05
1.60034e-05
1.43062e-05
4.18229e-05
1.6878e-05
2.36882e-05
1.75511e-05
3.73639e-05
1.89351e-05
2.74045e-05
1.96983e-05
3.80763e-05
2.37518e-05
1.98269e-05
2.38105e-05
4.06883e-05
2.33249e-05
2.57943e-05
2.41473e-05
3.75698e-05
2.35673e-05
2.12508e-05
2.40851e-05
1.9584e-05
2.23047e-05
3.11527e-06
2.23157e-05
8.62728e-06
2.21556e-05
-2.70826e-06
2.3905e-05
5.13697e-06
2.25647e-05
-8.39068e-07
-6.92027e-07
2.34304e-05
3.44751e-05
-6.39272e-07
3.39523e-05
-2.22671e-06
3.38529e-05
-3.19919e-06
3.32655e-05
-2.94271e-06
3.28731e-05
-3.39675e-06
3.33195e-05
-1.82021e-06
3.35151e-05
-1.99684e-06
3.39246e-05
-4.07132e-06
3.38959e-05
-4.67237e-06
3.33486e-05
-6.42702e-06
3.30555e-05
-7.17919e-06
3.20669e-05
-7.142e-06
3.06215e-05
-7.36544e-06
2.95659e-05
-5.26781e-06
2.89784e-05
-3.53559e-06
2.92865e-05
-2.23208e-06
3.04014e-05
-9.55606e-07
3.12844e-05
-9.19058e-07
3.21813e-05
-1.68369e-06
3.32044e-05
-3.43807e-06
3.30212e-05
-5.96544e-06
3.19354e-05
-9.13138e-06
3.12194e-05
-1.23845e-05
3.11673e-05
-1.58281e-05
3.12687e-05
-2.08974e-05
3.02852e-05
-2.54439e-05
2.77034e-05
-2.70228e-05
2.43749e-05
-2.64922e-05
2.11195e-05
-2.54371e-05
1.82064e-05
-2.4098e-05
1.56243e-05
-2.18842e-05
1.29732e-05
-1.88202e-05
9.98927e-06
-1.44403e-05
6.9641e-06
-9.19158e-06
4.1231e-06
-3.75391e-06
1.92177e-06
1.1966e-06
9.95019e-07
4.81891e-06
1.58967e-06
5.30803e-06
2.89796e-06
3.23529e-06
3.82006e-06
-3.70066e-07
4.39967e-06
-3.79735e-06
4.90369e-06
-8.13948e-06
5.90227e-06
-1.39948e-05
6.38575e-06
-1.87193e-05
6.44173e-06
-1.56267e-05
6.14375e-06
-1.16275e-05
6.88975e-06
-3.54287e-06
7.78438e-06
-9.66057e-07
7.7138e-06
9.05754e-06
8.32851e-06
1.55701e-05
9.79657e-06
2.41733e-05
1.10265e-05
3.10025e-05
1.2318e-05
3.21113e-05
1.34778e-05
3.23482e-05
1.47396e-05
3.2199e-05
1.61944e-05
3.41943e-05
1.75747e-05
2.90647e-05
1.82231e-05
1.91767e-05
1.88615e-05
1.27505e-05
2.0406e-05
1.05171e-05
2.27221e-05
1.05204e-05
2.44698e-05
1.30143e-05
2.5917e-05
1.46204e-05
2.67155e-05
7.9222e-06
2.59892e-05
2.7269e-06
2.53667e-05
-1.62199e-06
2.48295e-05
-1.39855e-05
2.29762e-05
-2.32995e-05
1.94944e-05
-2.1365e-05
1.51434e-05
-1.59091e-05
1.12763e-05
-1.88208e-05
7.46759e-06
-3.0031e-05
4.61543e-06
-3.64853e-05
3.80331e-06
-3.80966e-05
4.20857e-06
-3.28708e-05
5.30577e-06
-1.95874e-05
3.61481e-06
-1.64762e-05
4.17509e-06
-7.01657e-07
5.26492e-06
-1.08057e-05
1.05613e-06
2.46719e-05
4.50102e-06
-6.40831e-06
4.90812e-06
3.32421e-05
6.61392e-06
1.42976e-05
1.10128e-05
3.7424e-05
1.48491e-05
1.98519e-05
1.64654e-05
3.57476e-05
1.96312e-05
2.42387e-05
1.94639e-05
3.82436e-05
2.22386e-05
1.70521e-05
2.43307e-05
3.85962e-05
2.46347e-05
2.54903e-05
2.56192e-05
3.65853e-05
2.50089e-05
2.18611e-05
2.5418e-05
1.91749e-05
2.38642e-05
4.66909e-06
2.44388e-05
8.05263e-06
2.42276e-05
-2.49704e-06
2.61473e-05
3.2173e-06
2.60567e-05
-7.48458e-07
-1.64435e-06
2.7009e-05
3.43421e-05
-4.82755e-07
3.3743e-05
-1.6276e-06
3.35878e-05
-3.04404e-06
3.29612e-05
-2.31608e-06
3.25934e-05
-3.02893e-06
3.32785e-05
-2.50533e-06
3.35231e-05
-2.24145e-06
3.37623e-05
-4.31057e-06
3.38169e-05
-4.72695e-06
3.32631e-05
-5.87319e-06
3.2931e-05
-6.84711e-06
3.2012e-05
-6.22302e-06
3.08238e-05
-6.17719e-06
3.03356e-05
-4.77958e-06
2.99604e-05
-3.16045e-06
3.03951e-05
-2.66675e-06
3.12234e-05
-1.78394e-06
3.15273e-05
-1.22291e-06
3.21946e-05
-2.35098e-06
3.24436e-05
-3.68709e-06
3.16289e-05
-5.15078e-06
3.09291e-05
-8.43154e-06
3.07327e-05
-1.21881e-05
3.06803e-05
-1.57757e-05
2.96993e-05
-1.99163e-05
2.7166e-05
-2.29107e-05
2.37625e-05
-2.36192e-05
2.04071e-05
-2.31368e-05
1.73786e-05
-2.24086e-05
1.46188e-05
-2.13382e-05
1.20562e-05
-1.93216e-05
9.34273e-06
-1.61067e-05
6.29248e-06
-1.139e-05
3.2453e-06
-6.14441e-06
5.05863e-07
-1.01447e-06
-1.36211e-06
3.06457e-06
-1.4649e-06
4.9217e-06
-3.63576e-07
4.2067e-06
6.21883e-07
2.24983e-06
1.41427e-06
-1.16245e-06
1.95242e-06
-4.3355e-06
2.42335e-06
-8.61041e-06
2.78268e-06
-1.43541e-05
2.64352e-06
-1.85801e-05
2.63499e-06
-1.56182e-05
2.83014e-06
-1.18227e-05
3.72848e-06
-4.44121e-06
4.06765e-06
-1.30523e-06
4.23792e-06
8.88727e-06
5.00376e-06
1.48043e-05
6.9189e-06