/*--------------------------------*- C++ -*----------------------------------*\
| =========                 |                                                 |
| \\      /  F ield         | OpenFOAM: The Open Source CFD Toolbox           |
|  \\    /   O peration     | Version:  2.4.0                                 |
|   \\  /    A nd           | Web:      www.OpenFOAM.org                      |
|    \\/     M anipulation  |                                                 |
\*---------------------------------------------------------------------------*/
FoamFile
{
    version     2.0;
    format      ascii;
    class       volScalarField;
    location    "0.17";
    object      pMean;
}
// * * * * * * * * * * * * * * * * * * * * * * * * * * * * * * * * * * * * * //

dimensions      [0 2 -2 0 0 0 0];

internalField   nonuniform List<scalar> 
4400
(
125.832
104.639
96.4634
92.6352
89.53
86.5042
83.4669
80.4473
77.2946
73.604
123.912
104.704
96.5
92.6465
89.5328
86.5045
83.4674
80.4472
77.3089
73.8628
122.706
105.015
96.6338
92.6853
89.5532
86.5124
83.4714
80.4448
77.3697
73.9907
121.973
105.391
96.8115
92.7427
89.5958
86.5398
83.4855
80.4586
77.439
74.1947
121.38
105.735
96.9906
92.8014
89.6554
86.583
83.5168
80.4757
77.5336
74.4134
120.869
106.021
97.1474
92.8444
89.7115
86.6358
83.5568
80.5094
77.6468
74.6753
120.448
106.248
97.278
92.8689
89.7569
86.6814
83.597
80.5468
77.7338
75.0124
120.124
106.42
97.3809
92.8815
89.7878
86.7193
83.6302
80.59
77.7797
75.3235
119.906
106.537
97.4507
92.8874
89.8076
86.7473
83.6545
80.6312
77.8505
75.6426
119.797
106.597
97.4856
92.89
89.8185
86.763
83.6774
80.6689
77.9365
75.8738
119.796
106.598
97.4852
92.8921
89.8196
86.7712
83.6907
80.7089
78.0196
76.0616
119.904
106.541
97.4507
92.8919
89.8135
86.7673
83.7017
80.7476
78.1019
76.2065
120.121
106.427
97.3811
92.8893
89.7973
86.7537
83.7058
80.7832
78.1856
76.3105
120.443
106.257
97.2778
92.8804
89.7702
86.7289
83.7035
80.8165
78.2707
76.3742
120.864
106.031
97.1471
92.8583
89.7306
86.6935
83.6958
80.8444
78.3549
76.4055
121.375
105.746
96.9901
92.8182
89.6793
86.652
83.6848
80.8684
78.4248
76.4353
121.968
105.403
96.8112
92.7618
89.6241
86.6155
83.6766
80.8902
78.4708
76.4613
122.701
105.027
96.634
92.7057
89.5842
86.5948
83.6752
80.9081
78.4965
76.4951
123.907
104.716
96.5006
92.6676
89.5651
86.5887
83.6774
80.9185
78.5067
76.5339
125.827
104.65
96.4639
92.6565
89.5623
86.5893
83.6789
80.922
78.5079
76.6366
71.7228
70.9861
69.6471
68.4917
67.5665
66.9072
66.5756
66.2147
66.2692
66.3823
66.2524
66.0286
65.6894
65.6903
65.7304
65.4718
65.1852
65.2115
65.4612
66.1055
67.0245
68.1175
69.2768
70.4488
71.5699
72.5754
73.5099
74.3359
75.0306
75.5597
75.9305
76.2917
76.5794
76.8562
77.0576
77.2184
77.3296
77.3529
77.2954
77.1085
76.9982
76.9778
77.0558
77.3001
77.6746
78.1901
78.8233
79.4657
80.1152
80.7303
81.3465
81.8897
82.3459
82.7252
83.0524
83.2801
83.5134
83.623
83.7951
83.83
84.0313
84.1028
84.4249
84.5717
84.9345
84.97
85.2873
85.1613
85.3488
85.0531
85.2073
84.9089
85.2058
84.9874
85.4413
85.3097
85.9371
85.9002
86.6946
86.6356
87.4058
87.1604
87.8333
87.3833
88.0131
87.5036
87.9973
87.5709
88.0804
87.5324
88.0351
87.3948
87.7743
86.9228
87.1427
85.3754
85.4598
80.7569
80.1101
55.8463
71.9089
71.1399
70.0451
69.0159
68.1682
67.5523
67.2462
67.0056
67.0531
67.2249
67.1726
67.0102
66.6842
66.605
66.6529
66.4919
66.2137
66.1883
66.3952
66.9606
67.7808
68.7726
69.8248
70.8927
71.9101
72.8068
73.6104
74.3113
74.874
75.2762
75.5399
75.7875
75.9842
76.1995
76.3708
76.5419
76.6585
76.6946
76.637
76.4179
76.3376
76.3411
76.4787
76.795
77.2618
77.8858
78.6247
79.3652
80.1116
80.8281
81.5209
82.0986
82.5867
82.9826
83.3318
83.5702
83.8044
83.8935
84.0458
84.0377
84.2035
84.2167
84.4716
84.5557
84.8535
84.8613
85.1227
84.9712
85.1434
84.8441
85.0139
84.709
84.9978
84.7499
85.1878
85.0166
85.7001
85.5596
86.4607
86.2428
87.165
86.7357
87.5709
86.9063
87.7121
86.9844
87.6847
86.973
87.6886
86.84
87.5054
86.5618
87.0696
85.7188
86.1535
83.4559
83.7947
76.9159
75.5647
48.7729
72.2867
71.4894
70.462
69.5047
68.7247
68.1669
67.8811
67.727
67.7641
67.9456
67.9726
67.8822
67.619
67.5001
67.5436
67.4746
67.2506
67.2121
67.3905
67.8862
68.6143
69.5024
70.4414
71.3859
72.2752
73.0472
73.7129
74.2808
74.7172
75.019
75.208
75.3752
75.5121
75.6917
75.8525
76.0502
76.176
76.2349
76.1689
75.9296
75.8851
75.9062
76.1202
76.5105
77.0756
77.8151
78.6544
79.4852
80.3324
81.1397
81.9085
82.5101
83.0345
83.4373
83.806
84.0498
84.2776
84.3511
84.4762
84.4288
84.5417
84.5038
84.6735
84.7031
84.9054
84.8969
85.0856
84.9285
85.0721
84.7839
84.9443
84.6406
84.8922
84.6272
85.0607
84.8414
85.5589
85.2963
86.2906
85.8826
86.9493
86.3208
87.2863
86.4387
87.387
86.4235
87.3698
86.3132
87.2958
86.0909
86.9713
85.6368
86.3329
84.384
84.9779
81.3443
81.961
73.4736
70.3996
46.8103
72.6332
71.9101
70.9752
70.0607
69.322
68.8189
68.5663
68.4754
68.5102
68.6758
68.7619
68.7296
68.5489
68.4292
68.4662
68.4712
68.322
68.2949
68.4532
68.8857
69.5223
70.2992
71.1129
71.9138
72.6538
73.2865
73.8134
74.2491
74.5793
74.8078
74.9462
75.0697
75.1804
75.3499
75.5183
75.7481
75.8845
75.9696
75.8775
75.6403
75.6299
75.6685
75.9813
76.4467
77.1237
77.9776
78.9055
79.8224
80.7706
81.6557
82.4995
83.118
83.6809
84.0787
84.4627
84.7076
84.9177
84.9737
85.0671
84.9793
85.0323
84.9444
85.0254
85.0073
85.108
85.0856
85.1952
85.0403
85.1409
84.869
85.0049
84.6987
84.8998
84.6187
85.0561
84.7827
85.5114
85.124
86.1885
85.5789
86.7921
85.9458
87.0058
86.0162
87.0099
85.8435
86.9711
85.5765
86.8646
85.1995
86.4384
84.5186
85.6009
82.957
83.6727
79.2106
79.5727
70.3754
64.8983
46.6001
72.9475
72.3431
71.5708
70.6849
69.9556
69.4879
69.2815
69.2523
69.3123
69.467
69.5866
69.6018
69.5017
69.4136
69.4429
69.4973
69.4292
69.4248
69.5692
69.9345
70.4734
71.1279
71.804
72.4503
73.0328
73.5204
73.9141
74.2318
74.479
74.6573
74.7688
74.8812
74.9912
75.173
75.3684
75.6285
75.7749
75.8745
75.7406
75.5349
75.5502
75.6197
76.0493
76.5881
77.3948
78.3571
79.3636
80.358
81.4105
82.3611
83.2817
83.9111
84.509
84.8886
85.281
85.5142
85.7039
85.733
85.8024
85.6621
85.6693
85.5181
85.5242
85.4433
85.4659
85.4171
85.4532
85.2829
85.3346
85.0684
85.1745
84.857
85.0208
84.7022
85.1345
84.8047
85.5392
85.0288
86.1672
85.3394
86.7043
85.6294
86.7568
85.6715
86.5901
85.3255
86.4093
84.8249
86.1384
84.1505
85.6182
83.1065
84.6404
81.2141
82.4693
77.2425
76.9546
67.8316
59.2829
46.1816
73.2464
72.7567
72.1243
71.2868
70.5805
70.1685
70.0282
70.0644
70.1627
70.3122
70.4459
70.5031
70.4764
70.437
70.4701
70.5475
70.5501
70.5698
70.6935
70.9852
71.4194
71.9412
72.4764
72.9741
73.4016
73.7515
74.0298
74.2505
74.4317
74.5755
74.6782
74.8032
74.9395
75.1545
75.3873
75.6692
75.8285
75.9244
75.7511
75.6001
75.6364
75.7582
76.3028
76.9072
77.8591
78.929
80.0083
81.0702
82.2314
83.2347
84.2353
84.8718
85.503
85.8527
86.2423
86.4399
86.6188
86.5976
86.6644
86.4479
86.4436
86.2084
86.1736
86.0052
85.9804
85.8662
85.8453
85.6311
85.6425
85.3573
85.4352
85.093
85.2396
84.8617
85.2792
84.8843
85.6215
84.9986
86.203
85.1715
86.6727
85.3627
86.5635
85.3886
86.2105
84.9357
85.8763
84.2985
85.3988
83.3182
84.5759
81.7049
83.2766
79.1236
80.5765
74.5446
73.6192
65.2524
55.4603
46.2355
73.717
73.1853
72.5289
71.7501
71.1467
70.8473
70.7922
70.883
71.0154
71.1661
71.3073
71.3996
71.4326
71.4466
71.4953
71.5841
71.633
71.6755
71.7769
71.9928
72.3176
72.7073
73.1104
73.4724
73.76
73.9926
74.1766
74.3212
74.4483
74.5639
74.6699
74.8246
75.0099
75.28
75.5544
75.8497
76.0276
76.1055
75.9044
75.8281
75.8868
76.0935
76.7222
77.3813
78.4854
79.6581
80.8106
81.9345
83.2151
84.253
85.3358
85.971
86.6335
86.9499
87.3371
87.4745
87.6479
87.5431
87.6219
87.3054
87.3293
86.9872
86.9599
86.6794
86.6405
86.4367
86.3692
86.0866
86.0605
85.7316
85.7927
85.4076
85.5425
85.1011
85.4953
85.0394
85.759
85.0396
86.2642
85.086
86.67
85.1523
86.4203
85.1257
85.8657
84.605
85.3904
83.9255
84.694
82.7623
83.5806
80.7549
81.7931
77.3728
77.9762
71.5427
69.6185
62.1358
53.4588
46.4566
74.4929
73.8155
72.8675
72.096
71.6423
71.4856
71.5194
71.6592
71.8208
71.9799
72.1299
72.2489
72.3295
72.3918
72.4627
72.5591
72.6373
72.6964
72.7789
72.9269
73.1494
73.4226
73.7127
73.9577
74.1259
74.2632
74.37
74.4463
74.5256
74.6224
74.7442
74.9383
75.1849
75.5259
75.8477
76.1527
76.3439
76.4105
76.1998
76.2058
76.2954
76.6086
77.2905
78.0033
79.2448
80.5085
81.7431
82.9191
84.3302
85.3868
86.5449
87.1795
87.8753
88.1539
88.5392
88.6082
88.7724
88.5867
88.6721
88.2401
88.3128
87.8435
87.8667
87.4462
87.4288
87.1169
87.0271
86.6601
86.6039
86.2068
86.2521
85.8217
85.925
85.4385
85.7831
85.2853
85.9559
85.1755
86.3636
85.101
86.6673
85.0449
86.285
84.8852
85.5231
84.2623
84.8927
83.4791
83.9411
82.1093
82.524
79.8822
80.1569
75.9893
75.2932
69.5912
66.3795
60.3006
52.7076
46.4012
75.052
74.3113
73.2103
72.4383
72.0971
72.0706
72.1947
72.3838
72.5727
72.7416
72.8992
73.0368
73.1532
73.2558
73.3518
73.4564
73.5473
73.6128
73.6796
73.7778
73.919
74.1032
74.3072
74.4539
74.5208
74.578
74.6124
74.6271
74.6683
74.7564
74.9016
75.1396
75.4532
75.8757
76.2449
76.5574
76.7517
76.8277
76.6398
76.7237
76.8546
77.2729
77.9937
78.7771
80.1107
81.454
82.7639
83.9921
85.5384
86.6074
87.8414
88.4578
89.1917
89.436
89.8271
89.8173
89.9803
89.724
89.815
89.2681
89.3845
88.7646
88.8684
88.2858
88.3395
87.8827
87.8053
87.3423
87.2776
86.7959
86.8193
86.3488
86.4037
85.8916
86.1622
85.6443
86.2266
85.4449
86.4986
85.2512
86.6607
85.0704
86.1357
84.7045
85.1646
83.9482
84.3764
83.022
83.1557
81.3862
81.4098
78.9473
78.4541
74.7699
72.8781
68.6122
64.5498
60.1136
52.6716
46.5268
75.464
74.7375
73.5951
72.8323
72.5577
72.6269
72.8268
73.0567
73.2657
73.442
73.6066
73.7592
73.9035
74.0401
74.1609
74.2738
74.3676
74.4326
74.4872
74.5527
74.6414
74.7684
74.9072
74.9681
74.9468
74.9342
74.9022
74.8656
74.8786
74.9644
75.1395
75.4257
75.8122
76.3176
76.7284
77.0484
77.2447
77.3462
77.2162
77.3751
77.556
78.0759
78.8211
79.6936
81.0594
82.4666
83.8366
85.1277
86.7997
87.8679
89.1861
89.7637
90.5595
90.7585
91.1608
91.0721
91.2353
90.9251
91.019
90.3749
90.5199
89.7422
89.9306
89.177
89.3408
88.7271
88.704
88.1172
88.0754
87.4959
87.5
86.9877
86.9833
86.4812
86.6588
86.1549
86.5892
85.8955
86.705
85.5848
86.6955
85.2487
85.9738
84.5932
84.8183
83.7134
83.8786
82.6396
82.38
80.7725
80.2875
78.2
76.9198
73.8444
71.4036
68.3526
64.0112
60.9954
53.1323
47.2777
75.7764
75.0941
73.979
73.2502
73.0217
73.1494
73.4029
73.6661
73.8948
74.0824
74.2576
74.428
74.5957
74.7604
74.9038
75.0246
75.1198
75.1836
75.2317
75.2768
75.3322
75.4227
75.5058
75.4875
75.3901
75.3181
75.2256
75.15
75.155
75.2574
75.4724
75.8063
76.2684
76.8466
77.2863
77.6168
77.822
77.9691
77.926
78.1574
78.3844
79.0033
79.7558
80.7219
82.0636
83.5468
84.9315
86.3198
88.0865
89.1513
90.5257
91.0771
91.9291
92.0896
92.5117
92.3393
92.5193
92.1508
92.2465
91.5373
91.6907
90.793
91.0384
90.1285
90.408
89.6397
89.6974
88.9876
88.9806
88.3166
88.2976
87.7732
87.6854
87.2418
87.2769
86.8586
87.0754
86.5835
87.061
86.2701
86.7783
85.5453
85.8806
84.5913
84.617
83.6488
83.5381
82.4523
81.7887
80.4191
79.417
77.7731
75.8952
73.4166
70.8139
68.7958
64.2737
62.1237
54.0535
48.4614
75.9883
75.3676
74.3404
73.6872
73.5069
73.6677
73.9491
74.2328
74.4768
74.6779
74.8661
75.0532
75.2409
75.4265
75.5871
75.7152
75.8143
75.8823
75.9255
75.9579
75.9953
76.0599
76.0906
75.9972
75.8327
75.7133
75.5729
75.4756
75.4972
75.6381
75.9038
76.2912
76.824
77.4535
77.9074
78.2436
78.4767
78.6978
78.7651
79.0642
79.3304
80.0349
80.7793
81.8426
83.1221
84.6864
86.0244
87.5647
89.3569
90.4439
91.833
92.376
93.2777
93.3846
93.8327
93.5974
93.7785
93.3871
93.4603
92.7427
92.8661
91.9148
92.1507
91.1732
91.513
90.6343
90.7557
89.9565
89.9713
89.2672
89.2032
88.7337
88.5116
88.2102
88.0118
87.7743
87.6781
87.4788
87.5636
87.1877
86.9564
86.0126
85.9864
84.9456
84.6597
83.8472
83.5151
82.5786
81.5945
80.4516
79.0366
77.8305
75.5391
73.7526
70.9753
69.8018
65.0188
63.1274
55.2632
49.5395
76.1077
75.5719
74.6921
74.1505
74.021
74.1876
74.4677
74.7528
75.0035
75.218
75.4203
75.6238
75.8288
76.0265
76.1967
76.3315
76.4314
76.4984
76.5413
76.5669
76.5934
76.6431
76.6371
76.4834
76.2691
76.117
75.9553
75.8657
75.9248
76.1153
76.4378
76.8885
77.4826
78.1308
78.583
78.92
79.1935
79.5057
79.7066
80.0691
80.3747
81.1417
81.8835
83.0375
84.2374
85.8965
87.1372
88.8615
90.5753
91.724
93.0482
93.6607
94.537
94.6492
95.0911
94.8492
95.0041
94.6393
94.6552
94.0124
94.0377
93.14
93.2703
92.3214
92.6248
91.7505
91.8652
91.042
91.0226
90.3471
90.1954
89.8336
89.4183
89.3185
88.8343
88.8591
88.3663
88.5342
88.1262
88.0884
87.2857
86.8287
86.3326
85.8817
84.9099
84.4188
83.7981
83.1347
81.7941
80.9868
79.139
78.4372
75.7921
74.8084
71.6715
71.1003
65.986
63.9068
56.4215
50.4033
76.1244
75.6951
75.0231
74.622
74.5448
74.6992
74.954
75.2221
75.4697
75.694
75.9089
76.1249
76.339
76.5401
76.7133
76.8509
76.9545
77.027
77.0688
77.084
77.1006
77.1405
77.1125
76.9231
76.6821
76.5132
76.3589
76.3106
76.4349
76.6924
77.0805
77.599
78.2345
78.8668
79.3031
79.6439
79.9731
80.3801
80.7176
81.1218
81.475
82.2689
83.0192
84.2599
85.3835
87.1436
88.2755
90.2139
91.7206
93.017
94.1845
94.9547
95.7088
95.8841
96.264
96.0747
96.1709
95.8846
95.7999
95.3134
95.1561
94.4603
94.3733
93.5962
93.7196
92.9526
92.9765
92.2332
92.0986
91.5217
91.2439
91.0147
90.3858
90.4865
89.7052
90.0293
89.1261
89.6473
88.712
88.9704
87.6967
87.9846
86.8765
87.2151
85.3969
85.4639
84.2567
84.1391
82.256
82.0139
79.63
79.4984
76.5094
76.2601
72.6649
72.3244
66.9084
64.4502
57.3902
51.1666
76.0656
75.7708
75.3495
75.0923
75.0451
75.1641
75.3783
75.6203
75.8576
76.0848
76.305
76.5238
76.7377
76.9367
77.1118
77.2545
77.3641
77.442
77.4843
77.4926
77.502
77.5373
77.5054
77.3142
77.078
76.9165
76.7944
76.8076
77.0112
77.3476
77.8129
78.4052
79.0626
79.6449
80.0434
80.3827
80.7817
81.2884
81.7553
82.1923
82.597
83.3773
84.153
85.4651
86.5132
88.3761
89.3862
91.5601
92.8512
94.2777
95.263
96.2465
96.7744
97.1129
97.3104
97.2476
97.1908
97.0654
96.7888
96.568
96.1485
95.7972
95.4039
94.9784
94.8106
94.2611
94.0761
93.4924
93.1529
92.7521
92.3008
92.2228
91.3671
91.6721
90.5734
91.192
89.8944
90.7391
89.2918
89.9
88.1991
89.3679
87.5904
88.6032
86.0545
86.9179
84.8807
85.4827
82.9217
83.3618
80.3822
80.7653
77.4791
77.7399
73.6911
73.2736
67.6714
64.783
58.1671
51.9071
75.9668
75.8106
75.6388
75.4951
75.4553
75.5368
75.7097
75.9225
76.1446
76.3685
76.5905
76.8111
77.0254
77.2225
77.3961
77.5396
77.6531
77.7363
77.7835
77.7931
77.8069
77.8486
77.8259
77.6609
77.4638
77.3368
77.2691
77.3664
77.6547
78.0747
78.6236
79.2763
79.9317
80.454
80.798
81.1291
81.5928
82.1855
82.7605
83.2372
83.6956
84.4468
85.2684
86.6168
87.5973
89.5573
90.4209
92.8055
93.8869
95.475
96.1569
97.4736
97.6803
98.2821
98.1468
98.3242
97.987
98.1184
97.5611
97.6815
96.9567
97.0156
96.2863
96.2994
95.7766
95.5998
95.1093
94.7919
94.1423
93.9808
93.2947
93.3848
92.2819
92.767
91.3778
92.2791
90.6572
91.7012
89.8424
90.9483
88.8052
90.807
88.2912
89.9148
86.8246
88.4734
85.6097
86.9943
83.766
84.9142
81.2443
82.1255
78.5133
79.0829
74.5955
73.8974
68.2917
64.9876
58.7814
52.6239
76.0074
75.9051
75.8407
75.7644
75.7361
75.7952
75.9361
76.1238
76.3317
76.5512
76.7736
76.9934
77.2041
77.3974
77.5689
77.7137
77.8317
77.9216
77.9794
78.0048
78.037
78.0918
78.0902
77.9762
77.8415
77.7703
77.7816
77.9738
78.3468
78.8507
79.474
80.1641
80.8001
81.2595
81.5554
81.8837
82.3827
83.0264
83.6694
84.1903
84.7094
85.4415
86.3101
87.6504
88.5748
90.6225
91.3747
93.9099
94.7162
96.6551
96.9298
98.5277
98.4161
99.2763
98.8083
99.2817
98.6162
99.0545
98.1706
98.6248
97.6102
98.0217
97.0039
97.442
96.5636
96.8348
96.0122
96.0649
95.057
95.1644
94.1623
94.4556
93.092
93.7347
92.0489
93.22
91.3106
92.5438
90.3253
92.1884
89.5206
92.0644
88.9191
91.0631
87.5536
89.9114
86.3461
88.4181
84.5987
86.5036
82.0529
83.5394
79.4924
80.1841
75.3068
74.2674
68.8139
65.1562
59.2675
53.3127
76.0818
76.0126
75.9706
75.9172
75.9001
75.9492
76.0682
76.2366
76.4339
76.6489
76.869
77.0852
77.2912
77.4809
77.6509
77.7978
77.9249
78.0284
78.1019
78.1526
78.2151
78.2919
78.3181
78.2638
78.2038
78.2084
78.3112
78.5971
79.0439
79.6142
80.286
80.9803
81.5835
81.9894
82.2538
82.5835
83.0861
83.7407
84.403
84.9675
85.5594
86.2963
87.1985
88.4855
89.3885
91.4875
92.1382
94.8134
95.2936
97.6087
97.5931
99.3186
98.9869
100.107
99.3312
100.063
99.0859
99.7881
98.6215
99.3278
98.0861
98.7775
97.5438
98.3152
97.1363
97.8259
96.6765
97.1134
95.7822
96.1936
94.8146
95.3297
93.6721
94.5262
92.5435
93.9918
91.8012
93.3055
90.6831
93.3675
90.1763
92.9996
89.4397
91.9845
88.185
91.0672
86.9933
89.5578
85.2942
87.7632
82.8411
84.9176
80.3056
80.9555
75.8168
74.4832
69.2131
65.3213
59.625
53.9348
76.1686
76.1044
76.0419
75.9886
75.9749
76.0168
76.1209
76.2767
76.4674
76.6804
76.8997
77.1155
77.3204
77.5104
77.6839
77.8373
77.9734
78.091
78.1863
78.2664
78.3565
78.453
78.5089
78.5134
78.5265
78.607
78.794
79.1492
79.6372
80.2349
80.9095
81.5799
82.1439
82.5139
82.7627
83.0893
83.5821
84.2216
84.8807
85.4858
86.1469
86.9118
87.8524
89.074
89.983
92.1006
92.6142
95.4436
95.7119
98.1306
97.9729
99.8728
99.4141
100.67
99.685
100.577
99.4102
100.223
98.9193
99.7239
98.3901
99.2535
97.9069
98.8903
97.5441
98.4836
97.0981
97.8026
96.2267
96.8963
95.2246
95.9466
94.0172
95.0572
92.8347
94.5105
92.07
93.9651
91.0559
94.0672
90.5939
93.5458
89.804
92.5705
88.6113
91.7469
87.4543
90.2487
85.7912
88.4907
83.317
85.9746
80.9015
81.3892
76.2517
74.5827
69.5286
65.4424
59.8454
54.3839
76.3203
76.1721
76.0669
76.007
75.9914
76.0292
76.128
76.2792
76.4669
76.6777
76.8954
77.1102
77.3166
77.51
77.6889
77.8507
77.9972
78.1268
78.2368
78.3346
78.4395
78.5471
78.6198
78.6542
78.7022
78.8158
79.0344
79.4097
79.9034
80.4999
81.1607
81.8086
82.3524
82.7141
82.9637
83.2964
83.7851
84.4106
85.0601
85.6896
86.3993
87.189
88.1475
89.3467
90.2662
92.3792
92.8849
95.7316
95.9189
98.3335
98.1569
100.166
99.5526
100.875
99.8235
100.769
99.5425
100.375
99.0514
99.8839
98.5273
99.4586
98.0729
99.1454
97.7181
98.754
97.2516
98.0653
96.3733
97.1448
95.3486
96.1887
94.1126
95.2524
92.9185
94.7055
92.1338
94.2511
91.189
94.2919
90.6826
93.742
89.885
92.7986
88.7328
91.9962
87.5845
90.5219
85.9029
88.7361
83.4598
86.3839
81.0194
81.5371
76.3545
74.5821
69.5861
65.4472
59.8915
54.3631
73.4372
73.016
71.8457
70.137
68.7578
67.819
67.251
67.0013
66.9028
67.0427
67.2599
67.3742
67.2986
67.3071
67.7071
68.4361
69.273
70.1636
70.9273
71.6756
72.6204
73.7735
75.1445
76.6513
78.326
80.2482
82.3868
84.6432
87.0038
89.3031
91.71
93.8765
95.9659
97.5761
98.9616
99.8438
100.654
101.141
101.618
101.687
101.484
100.86
100.146
99.2646
98.5362
97.8608
97.4685
97.0872
96.9066
96.6615
96.5778
96.4444
96.424
96.3643
96.3703
96.3479
96.336
96.2908
96.2509
96.1696
96.1056
96.0608
96.0926
96.121
96.1694
96.1284
96.0789
95.973
95.9248
95.8163
95.7673
95.6385
95.6729
95.6026
95.8027
95.6056
95.52
95.2378
95.0622
94.8867
94.8438
94.8409
94.943
95.0442
95.1665
95.2507
95.3234
95.3793
95.4351
95.5094
95.6004
95.7235
95.8713
96.0182
96.1381
96.2991
96.5076
96.8014
97.4702
98.2839
73.3801
72.8991
71.6557
69.8904
68.467
67.5358
67.0362
66.8182
66.6994
66.8144
67.014
67.1041
67.0031
66.9944
67.3959
68.1822
69.0563
69.9317
70.6704
71.4177
72.3548
73.4865
74.7797
76.2045
77.8549
79.797
81.9893
84.277
86.6619
88.9749
91.385
93.5504
95.6212
97.2362
98.6132
99.5241
100.326
100.851
101.319
101.461
101.265
100.7
99.9952
99.1553
98.4378
97.7794
97.3992
97.0319
96.8647
96.6237
96.5508
96.4123
96.396
96.331
96.337
96.311
96.3011
96.2535
96.2169
96.1276
96.059
96.0025
96.0348
96.0592
96.108
96.0625
96.0136
95.9055
95.8611
95.7515
95.6955
95.5586
95.5941
95.5351
95.7099
95.5494
95.4496
95.1892
95.0191
94.8477
94.8117
94.8085
94.9196
95.0242
95.1544
95.2396
95.3152
95.3693
95.4235
95.495
95.5859
95.7067
95.8583
96.0067
96.127
96.2619
96.4071
96.6555
97.323
98.1234
73.2585
72.6762
71.291
69.3982
67.8937
66.9475
66.5718
66.4216
66.2997
66.3813
66.5578
66.6003
66.4095
66.3235
66.7163
67.563
68.472
69.2842
69.9559
70.6772
71.6131
72.716
73.9246
75.2482
76.8714
78.8296
81.1196
83.459
85.8949
88.2591
90.6906
92.8551
94.8895
96.5302
97.8858
98.8452
99.6324
100.22
100.666
100.896
100.724
100.253
99.5687
98.8059
98.1203
97.5093
97.1514
96.8208
96.6752
96.4573
96.4091
96.2735
96.2708
96.2059
96.2115
96.1796
96.1693
96.1185
96.0875
95.9899
95.9122
95.8375
95.8594
95.8735
95.9179
95.8709
95.8235
95.7208
95.6798
95.5788
95.5137
95.3656
95.3949
95.3566
95.4778
95.3844
95.2554
95.0401
94.8773
94.7323
94.7129
94.7205
94.8403
94.9576
95.0984
95.1923
95.2722
95.3319
95.3859
95.4615
95.5513
95.6743
95.8293
95.9939
96.1179
96.2195
96.2377
96.4139
97.0539
97.8725
73.0709
72.3916
70.828
68.7938
67.1925
66.2025
65.9576
65.8846
65.7653
65.8447
66.0009
65.9603
65.6176
65.3981
65.7625
66.6338
67.5453
68.2835
68.8595
69.5415
70.4624
71.5404
72.7362
74.0219
75.6557
77.621
80.0083
82.4147
84.8843
87.3121
89.7663
91.9403
93.9219
95.5862
96.9388
97.9427
98.7096
99.3496
99.7539
100.046
99.9044
99.5255
98.8909
98.212
97.5777
97.0344
96.701
96.417
96.3039
96.1176
96.1023
95.9785
95.998
95.9442
95.9484
95.9191
95.9035
95.8541
95.8246
95.7141
95.6147
95.5166
95.5263
95.5345
95.581
95.5421
95.5027
95.4189
95.3838
95.3026
95.2297
95.0787
95.0883
95.0677
95.1415
95.101
94.9527
94.7833
94.6288
94.5186
94.5167
94.5495
94.6813
94.8316
94.9885
95.0987
95.1873
95.2523
95.3147
95.3936
95.492
95.6142
95.7848
95.9728
96.1242
96.1834
96.0727
96.1564
96.769
97.5871
72.8465
72.0806
70.3401
68.1579
66.4393
65.4094
65.2637
65.2514
65.1133
65.1665
65.2682
65.1302
64.6318
64.269
64.6019
65.4651
66.3471
67.021
67.5149
68.1609
69.0581
70.128
71.3691
72.6774
74.344
76.3376
78.8291
81.3233
83.8033
86.2685
88.7264
90.8871
92.8169
94.4836
95.8581
96.889
97.629
98.2956
98.6701
98.9948
98.8784
98.5783
98.0049
97.413
96.8503
96.3791
96.0791
95.8371
95.7773
95.612
95.6339
95.5246
95.5668
95.5312
95.5365
95.5117
95.4933
95.4359
95.407
95.2674
95.1423
95.0226
95.0396
95.0537
95.1117
95.0878
95.0619
95.0083
94.9853
94.9307
94.8617
94.7126
94.7002
94.6843
94.722
94.7026
94.5514
94.4253
94.2878
94.2127
94.2299
94.3084
94.4579
94.6492
94.8221
94.955
95.0464
95.1222
95.1913
95.2818
95.3877
95.5241
95.7026
95.926
96.0994
96.1581
95.9275
95.9399
96.5167
97.3553
72.6349
71.8048
69.9093
67.5937
65.7541
64.6666
64.5478
64.5351
64.3286
64.3131
64.3086
64.0726
63.4798
63.0185
63.3373
64.1594
64.9966
65.6319
66.0844
66.699
67.5804
68.6827
69.9918
71.361
73.0762
75.1165
77.6945
80.2786
82.7454
85.1965
87.6463
89.7644
91.6473
93.2984
94.6913
95.7359
96.4497
97.1271
97.4783
97.7942
97.6962
97.468
96.9698
96.4632
95.9703
95.5728
95.3089
95.1113
95.104
94.9568
95.0275
94.9373
95.0044
94.9976
95.0056
94.977
94.9567
94.8724
94.8422
94.6703
94.5361
94.4108
94.4531
94.4796
94.5473
94.5401
94.5382
94.5137
94.5083
94.4826
94.4281
94.2866
94.2517
94.227
94.2296
94.2053
94.0666
93.9814
93.877
93.8446
93.8908
94.018
94.1869
94.4113
94.6041
94.7574
94.8508
94.9317
95.0097
95.111
95.2381
95.3887
95.5888
95.823
96.0375
96.1046
95.8497
95.7982
96.3999
97.2115
72.4808
71.6001
69.5719
67.1467
65.194
64.0262
63.8329
63.7142
63.3928
63.2474
63.1235
62.8226
62.2297
61.7449
62.0658
62.8198
63.6115
64.2526
64.719
65.323
66.2211
67.3822
68.7566
70.1804
71.9342
74.0231
76.6547
79.2954
81.7378
84.136
86.5808
88.6377
90.4668
92.0838
93.4721
94.5267
95.2158
95.8777
96.2005
96.4806
96.3984
96.2303
95.8133
95.3642
94.9391
94.6131
94.3838
94.2385
94.2737
94.166
94.2814
94.2149
94.297
94.312
94.319
94.2921
94.2628
94.1578
94.1274
93.9505
93.8282
93.721
93.7871
93.8132
93.8997
93.9188
93.9485
93.9586
93.9776
93.9798
93.9447
93.8156
93.7573
93.7122
93.6849
93.6349
93.5213
93.4711
93.4193
93.4339
93.5136
93.6849
93.877
94.1296
94.3352
94.4999
94.5979
94.6795
94.768
94.8784
95.0282
95.2045
95.4254
95.6788
95.9054
96.0186
95.7913
95.7745
96.3534
97.2146
72.397
71.4691
69.3254
66.8112
64.7618
63.4932
63.121
62.8125
62.3595
62.0491
61.8154
61.4827
60.9758
60.5591
60.8675
61.5503
62.3004
62.9806
63.5129
64.1378
65.1007
66.3349
67.7658
69.2201
70.9937
73.1135
75.7552
78.3859
80.8049
83.1286
85.5572
87.5304
89.2904
90.8569
92.2106
93.2844
93.9387
94.5686
94.8611
95.0962
95.0239
94.8961
94.5521
94.1409
93.7852
93.5055
93.3105
93.2069
93.2861
93.2318
93.3734
93.3325
93.4103
93.4428
93.4299
93.4267
93.3972
93.3085
93.2905
93.134
93.0485
92.9603
93.0302
93.0603
93.1785
93.237
93.3073
93.362
93.4008
93.428
93.4131
93.2946
93.2174
93.1466
93.0938
93.0162
92.9362
92.9167
92.924
92.9879
93.1014
93.3193
93.53
93.8043
94.0181
94.1917
94.2903
94.3747
94.4721
94.5888
94.7523
94.9522
95.1976
95.4719
95.7175
95.8703
95.758
95.7963
96.4569
97.2321
72.3653
71.3805
69.147
66.5679
64.4388
63.0475
62.4097
61.8823
61.3264
60.8608
60.5168
60.1753
59.8169
59.5476
59.8227
60.4416
61.1549
61.9009
62.5344
63.214
64.2697
65.5769
67.0525
68.5255
70.2931
72.4175
75.0142
77.5865
79.9697
82.1911
84.5762
86.4384
88.1147
89.636
90.9145
91.9969
92.6181
93.2076
93.4688
93.6532
93.5825
93.4775
93.1974
92.8307
92.537
92.2893
92.1231
92.042
92.1661
92.1501
92.3107
92.3099
92.3685
92.4296
92.3856
92.4303
92.4225
92.3842
92.3823
92.27
92.2082
92.1417
92.2142
92.2775
92.4235
92.5282
92.6368
92.7355
92.7915
92.8376
92.8381
92.7226
92.6322
92.5286
92.4582
92.366
92.3252
92.3419
92.4048
92.5151
92.656
92.9114
93.1416
93.43
93.6585
93.8309
93.9364
94.02
94.1311
94.2478
94.4243
94.6298
94.8996
95.1873
95.4634
95.669
95.6874
95.8325
96.5033
97.4311
72.3352
71.2828
68.9888
66.384
64.1937
62.6702
61.7304
60.9907
60.3714
59.7745
59.3472
59.0121
58.8521
58.7759
58.9914
59.5525
60.2411
61.0591
61.8041
62.5529
63.714
65.0955
66.598
68.0935
69.833
71.9251
74.4304
76.9064
79.2279
81.328
83.6179
85.3801
86.9526
88.4254
89.605
90.6637
91.2608
91.7928
92.0176
92.1528
92.0837
91.9901
91.7721
91.4554
91.2024
90.9805
90.8357
90.7843
90.9357
90.9419
91.1196
91.1649
91.2025
91.307
91.2457
91.3547
91.3702
91.3915
91.4037
91.3509
91.303
91.2861
91.3732
91.4723
91.6349
91.7885
91.9342
92.0758
92.1507
92.2045
92.2111
92.0998
91.999
91.8582
91.7804
91.6875
91.6906
91.7557
91.867
92.0147
92.1765
92.4563
92.7087
93.0104
93.2572
93.4196
93.5382
93.6121
93.7346
93.8578
94.0417
94.2513
94.521
94.83
95.1363
95.4084
95.566
95.8482
96.6426
97.4695
72.2475
71.1136
68.8014
66.2219
64.011
62.3647
61.1458
60.2253
59.5798
58.8798
58.4101
58.1048
58.1781
58.3084
58.4321
58.9289
59.5949
60.4608
61.3094
62.132
63.39
64.8529
66.3709
67.8928
69.5926
71.6243
73.992
76.3348
78.5608
80.5281
82.6615
84.3385
85.7956
87.2176
88.3013
89.2966
89.8654
90.3245
90.5093
90.6059
90.541
90.46
90.2835
90.0101
89.7974
89.6014
89.4816
89.4664
89.6231
89.6535
89.8389
89.9207
89.9396
90.0979
90.0307
90.2054
90.2346
90.3253
90.3678
90.3767
90.3642
90.3981
90.4986
90.6255
90.8158
91.0261
91.2101
91.3817
91.4743
91.5215
91.5303
91.4215
91.3103
91.1359
91.0626
90.9796
91.0303
91.154
91.3105
91.4919
91.6703
91.9582
92.23
92.5383
92.8042
92.963
93.0951
93.1497
93.2774
93.4117
93.6007
93.8067
94.0772
94.3909
94.7391
95.0712
95.3746
95.7782
96.6293
97.6902
72.0438
70.8319
68.5445
66.0687
63.8868
62.1605
60.7453
59.708
59.0727
58.326
57.8453
57.5711
57.8522
58.1626
58.1886
58.603
59.2428
60.1203
61.0425
61.9402
63.2651
64.7987
66.3236
67.8706
69.535
71.4914
73.688
75.8598
77.9483
79.7772
81.7077
83.3095
84.6611
86.0192
87.0191
87.9208
88.4465
88.8197
88.9709
89.0304
88.9665
88.892
88.7421
88.5174
88.3397
88.1735
88.0904
88.1104
88.2734
88.3315
88.5166
88.6208
88.6457
88.8355
88.7959
89.0067
89.0843
89.2154
89.3079
89.364
89.3973
89.4768
89.6015
89.7693
89.9987
90.255
90.4744
90.6567
90.7696
90.8023
90.8109
90.6914
90.5746
90.3756
90.3183
90.2623
90.3797
90.544
90.75
90.9498
91.1478
91.4271
91.7188
92.0225
92.313
92.4601
92.6107
92.6388
92.7782
92.9106
93.103
93.3024
93.5722
93.8829
94.2636
94.6612
95.086
95.6608
96.6074
97.4976
71.7152
70.4158
68.2002
65.9009
63.832
62.1035
60.613
59.5326
58.9432
58.21
57.726
57.4579
57.886
58.3276
58.2809
58.5737
59.1874
60.0283
60.975
61.9429
63.3012
64.8962
66.413
67.9723
69.5916
71.4584
73.4773
75.4687
77.3948
79.0878
80.8058
82.3131
83.5713
84.8295
85.7505
86.5506
87.0139
87.3142
87.4342
87.4556
87.3818
87.3031
87.1715
86.9928
86.8506
86.7275
86.6923
86.7497
86.9264
87.0066
87.1965
87.3177
87.3771
87.5816
87.6097
87.832
87.9681
88.1122
88.2532
88.3476
88.4332
88.5554
88.7195
88.9284
89.1899
89.4749
89.7283
89.9143
90.0422
90.0509
90.0474
89.9109
89.7965
89.5967
89.573
89.564
89.7495
89.9369
90.1792
90.3948
90.6128
90.8875
91.1958
91.4832
91.7906
91.9209
92.0907
92.1052
92.2445
92.3703
92.556
92.7462
93.0139
93.3063
93.7162
94.1471
94.6574
95.2932
96.2312
97.3623
71.3065
69.9434
67.8388
65.736
63.8753
62.2336
60.7762
59.7253
59.2146
58.5391
58.0445
57.7608
58.2581
58.7898
58.6974
58.8344
59.3993
60.166
61.0914
62.1175
63.4742
65.104
66.6052
68.1549
69.7233
71.4854
73.3339
75.1551
76.9048
78.4585
79.9812
81.3656
82.531
83.6494
84.4909
85.1907
85.5877
85.8298
85.9094
85.8911
85.8002
85.7254
85.6077
85.4672
85.3625
85.2983
85.3192
85.4205
85.6163
85.7195
85.9229
86.0681
86.1785
86.4067
86.5081
86.7274
86.915
87.0668
87.25
87.3734
87.5043
87.6591
87.8604
88.1063
88.407
88.7064
88.9852
89.162
89.2933
89.2671
89.2528
89.097
88.9983
88.8172
88.8432
88.8819
89.1286
89.3319
89.6037
89.8396
90.0876
90.3516
90.6684
90.9301
91.2566
91.3587
91.5413
91.5468
91.6829
91.7997
91.984
92.1452
92.4199
92.6801
93.0966
93.5367
94.0758
94.7731
95.7354
96.6394
70.9457
69.5331
67.5689
65.6517
64.0349
62.5588
61.217
60.2556
59.8505
59.2629
58.7638
58.4571
58.933
59.5097
59.3982
59.3799
59.8609
60.5326
61.3863
62.4292
63.759
65.3795
66.8745
68.4033
69.9211
71.5692
73.2531
74.9065
76.4707
77.8817
79.2344
80.4772
81.5391
82.4978
83.2511
83.8554
84.1894
84.3748
84.4119
84.3623
84.2622
84.188
84.077
83.9706
83.9133
83.921
84.0036
84.1541
84.3757
84.5114
84.7399
84.9237
85.0907
85.3444
85.5046
85.7242
85.956
86.1207
86.3277
86.4677
86.6278
86.81
87.0564
87.3373
87.6718
87.96
88.2572
88.4118
88.5461
88.483
88.4658
88.2886
88.2194
88.0668
88.1559
88.2234
88.5275
88.7399
89.0445
89.3002
89.5806
89.8266
90.1486
90.377
90.7178
90.78
90.9725
90.9704
91.1046
91.2164
91.3992