/*--------------------------------*- C++ -*----------------------------------*\
| =========                 |                                                 |
| \\      /  F ield         | OpenFOAM: The Open Source CFD Toolbox           |
|  \\    /   O peration     | Version:  2.4.0                                 |
|   \\  /    A nd           | Web:      www.OpenFOAM.org                      |
|    \\/     M anipulation  |                                                 |
\*---------------------------------------------------------------------------*/
FoamFile
{
    version     2.0;
    format      ascii;
    class       volSymmTensorField;
    location    "0.071";
    object      UPrime2Mean;
}
// * * * * * * * * * * * * * * * * * * * * * * * * * * * * * * * * * * * * * //

dimensions      [0 2 -2 0 0 0 0];

internalField   nonuniform List<symmTensor> 
17600
(
(0.0547132 -0.00592869 0 0.000897035 0 0)
(0.563225 -0.0023158 0 5.22749e-05 0 0)
(0.730324 -4.24181e-05 0 3.61651e-06 0 0)
(0.809218 -0.000594942 0 2.2639e-06 0 0)
(0.864473 -0.000449651 0 1.08685e-06 0 0)
(0.904216 -0.000182067 0 6.25853e-07 0 0)
(0.930851 -4.46572e-05 0 4.09971e-07 0 0)
(0.952156 7.27565e-06 0 2.46428e-07 0 0)
(0.964953 2.52012e-05 0 2.45577e-07 0 0)
(0.978302 -3.84521e-06 0 2.09603e-07 0 0)
(0.985009 -2.43768e-06 0 1.63697e-07 0 0)
(0.998182 -8.08807e-05 0 2.55921e-07 0 0)
(1.00439 -6.01467e-05 0 2.61087e-07 0 0)
(1.02189 -0.000188856 0 4.92193e-07 0 0)
(1.03213 -0.000207708 0 5.87896e-07 0 0)
(1.06502 -0.000589277 0 3.00459e-06 0 0)
(1.09461 -0.000939349 0 3.13305e-06 0 0)
(1.22511 0.000654627 0 2.98031e-05 0 0)
(1.43032 -0.0409733 0 0.00171796 0 0)
(2.6029 0.206085 0 0.0257778 0 0)
(0.0266533 0.0118939 0 0.00932337 0 0)
(0.228286 -0.0218407 0 0.00220888 0 0)
(0.459519 -0.0122485 0 0.000332135 0 0)
(0.614229 -0.00860082 0 0.000132176 0 0)
(0.747224 -0.00698086 0 0.000102544 0 0)
(0.873313 -0.00565108 0 9.17905e-05 0 0)
(0.973526 -0.0043497 0 7.09942e-05 0 0)
(1.06232 -0.00321485 0 4.34436e-05 0 0)
(1.1189 -0.00240445 0 2.30488e-05 0 0)
(1.18013 -0.00200803 0 1.33503e-05 0 0)
(1.20865 -0.00180558 0 6.68872e-06 0 0)
(1.26755 -0.00199161 0 6.70281e-06 0 0)
(1.28581 -0.00211029 0 1.01236e-05 0 0)
(1.35893 -0.00230071 0 9.90062e-06 0 0)
(1.37519 -0.00356002 0 2.022e-05 0 0)
(1.49813 -0.00322619 0 1.94771e-05 0 0)
(1.49633 -0.0101229 0 0.000107258 0 0)
(1.9854 -0.0144194 0 0.000160398 0 0)
(1.74436 -0.0472934 0 0.00185722 0 0)
(5.42861 -0.634588 0 0.105838 0 0)
(0.0935484 0.0354721 0 0.0146703 0 0)
(0.0375171 -0.0138422 0 0.00628229 0 0)
(0.159475 -0.0154071 0 0.00161912 0 0)
(0.27373 -0.0145689 0 0.000791076 0 0)
(0.399654 -0.0142854 0 0.000597863 0 0)
(0.548115 -0.0133847 0 0.000526647 0 0)
(0.682072 -0.0114603 0 0.00042725 0 0)
(0.813985 -0.00916879 0 0.000278474 0 0)
(0.901814 -0.00722772 0 0.0001628 0 0)
(1.00332 -0.0060684 0 9.17236e-05 0 0)
(1.04792 -0.00540872 0 4.66267e-05 0 0)
(1.14925 -0.00580756 0 4.93275e-05 0 0)
(1.1714 -0.00580901 0 5.07177e-05 0 0)
(1.29669 -0.00687133 0 7.21547e-05 0 0)
(1.30795 -0.0086016 0 8.91625e-05 0 0)
(1.49714 -0.00986557 0 0.000110797 0 0)
(1.49241 -0.0229771 0 0.00041947 0 0)
(2.01146 -0.0282647 0 0.000800971 0 0)
(2.00382 -0.119334 0 0.0104815 0 0)
(4.5182 -0.791684 0 0.231158 0 0)
(0.123741 0.0392859 0 0.0132253 0 0)
(0.00301724 0.00263682 0 0.00977727 0 0)
(0.021047 -0.00573045 0 0.00354287 0 0)
(0.049113 -0.0090772 0 0.00209374 0 0)
(0.0960347 -0.0124335 0 0.00168942 0 0)
(0.182402 -0.0149414 0 0.00150355 0 0)
(0.279777 -0.0149149 0 0.00127583 0 0)
(0.396995 -0.013349 0 0.000870151 0 0)
(0.479249 -0.0111142 0 0.000550059 0 0)
(0.586794 -0.00965806 0 0.00030653 0 0)
(0.629862 -0.00898818 0 0.000180209 0 0)
(0.746248 -0.00871135 0 0.000142999 0 0)
(0.762294 -0.0102508 0 0.000185715 0 0)
(0.907348 -0.00841749 0 0.000188704 0 0)
(0.911371 -0.0162376 0 0.000397795 0 0)
(1.10019 -0.00679913 0 0.000289394 0 0)
(1.14054 -0.0416577 0 0.00201062 0 0)
(1.40484 -0.0156357 0 0.00105045 0 0)
(1.88501 -0.210513 0 0.037043 0 0)
(2.37791 -0.334375 0 0.142272 0 0)
(0.115375 0.0317298 0 0.00926526 0 0)
(0.010988 0.01003 0 0.0101923 0 0)
(0.0147449 0.00531254 0 0.00439798 0 0)
(0.015735 0.0034454 0 0.0032001 0 0)
(0.00933429 0.000123514 0 0.00302593 0 0)
(0.0154303 -0.0052467 0 0.00286157 0 0)
(0.0395475 -0.0084962 0 0.00255349 0 0)
(0.0912605 -0.010426 0 0.0018501 0 0)
(0.133069 -0.00959018 0 0.00122375 0 0)
(0.203629 -0.00961429 0 0.000725486 0 0)
(0.228285 -0.00861941 0 0.000401842 0 0)
(0.315862 -0.0100926 0 0.00040809 0 0)
(0.328213 -0.0093456 0 0.000309772 0 0)
(0.430789 -0.0127989 0 0.000548817 0 0)
(0.457919 -0.0103865 0 0.00044847 0 0)
(0.559339 -0.0214602 0 0.00104547 0 0)
(0.643238 -0.0126182 0 0.00118944 0 0)
(0.78124 -0.0688655 0 0.0105105 0 0)
(1.03187 -0.0723793 0 0.0163209 0 0)
(1.48002 -0.469795 0 0.40445 0 0)
(0.107522 0.025851 0 0.00662299 0 0)
(0.00968938 0.00883973 0 0.00907621 0 0)
(0.0220952 0.00771262 0 0.0037652 0 0)
(0.0407392 0.00967342 0 0.0030494 0 0)
(0.0492179 0.0114755 0 0.00355124 0 0)
(0.0355651 0.008502 0 0.00383272 0 0)
(0.025644 0.0052885 0 0.00373743 0 0)
(0.0165082 7.49254e-05 0 0.0028648 0 0)
(0.0180597 -0.00129536 0 0.00213985 0 0)
(0.0316731 -0.00371575 0 0.0012504 0 0)
(0.0331204 -0.00373902 0 0.000831688 0 0)
(0.0672717 -0.00518087 0 0.000661968 0 0)
(0.0654341 -0.00660207 0 0.000803063 0 0)
(0.11599 -0.00637592 0 0.000777611 0 0)
(0.123389 -0.0112345 0 0.00159883 0 0)
(0.1818 -0.00709436 0 0.00115226 0 0)
(0.206757 -0.0244774 0 0.00587399 0 0)
(0.303164 -0.0152462 0 0.00349948 0 0)
(0.387309 -0.105231 0 0.0606062 0 0)
(0.666924 -0.21195 0 0.198348 0 0)
(0.106864 0.0222707 0 0.0049421 0 0)
(0.00660059 0.00653431 0 0.0080566 0 0)
(0.0190001 0.00630684 0 0.00301164 0 0)
(0.0424397 0.00865246 0 0.00221917 0 0)
(0.070279 0.0133821 0 0.00300642 0 0)
(0.0736271 0.0141934 0 0.00370832 0 0)
(0.0837337 0.0146708 0 0.00405556 0 0)
(0.0667164 0.0100124 0 0.00341785 0 0)
(0.0700746 0.0085515 0 0.00257395 0 0)
(0.0507381 0.00456096 0 0.00179137 0 0)
(0.0537663 0.00480871 0 0.00104957 0 0)
(0.0372375 0.00199811 0 0.00120481 0 0)
(0.0396403 0.00216048 0 0.000764637 0 0)
(0.0285209 -0.000164748 0 0.00151762 0 0)
(0.0348098 -0.000123402 0 0.00118129 0 0)
(0.0304927 -0.00221293 0 0.00288279 0 0)
(0.0365951 -0.00241722 0 0.0027465 0 0)
(0.051901 -0.00978784 0 0.0172987 0 0)
(0.0813467 -0.0258826 0 0.0280797 0 0)
(0.192277 -0.0902762 0 0.275152 0 0)
(0.109188 0.0193739 0 0.00367222 0 0)
(0.00483708 0.0047767 0 0.00707426 0 0)
(0.0154752 0.00504288 0 0.00264396 0 0)
(0.0361683 0.0066587 0 0.00162143 0 0)
(0.0651519 0.0112212 0 0.00228215 0 0)
(0.0729694 0.0130814 0 0.00307302 0 0)
(0.0969253 0.0154835 0 0.00359079 0 0)
(0.0924469 0.0125889 0 0.00301192 0 0)
(0.115349 0.0122306 0 0.00271884 0 0)
(0.106057 0.00886561 0 0.00177766 0 0)
(0.125841 0.0104457 0 0.00129659 0 0)
(0.111002 0.00770336 0 0.00116967 0 0)
(0.122762 0.00972038 0 0.00138117 0 0)
(0.101122 0.00698463 0 0.00144407 0 0)
(0.106454 0.00949382 0 0.00239081 0 0)
(0.0794282 0.00641998 0 0.00226984 0 0)
(0.0742924 0.012124 0 0.00560195 0 0)
(0.0458262 0.0132919 0 0.00975553 0 0)
(0.0394679 0.0152206 0 0.0475295 0 0)
(0.0650779 0.0324422 0 0.294966 0 0)
(0.111349 0.016786 0 0.0027063 0 0)
(0.00405664 0.00355434 0 0.00588969 0 0)
(0.0126325 0.00402419 0 0.00242186 0 0)
(0.0310238 0.00521779 0 0.00117858 0 0)
(0.0563169 0.00904537 0 0.00169061 0 0)
(0.0644077 0.0109792 0 0.00239756 0 0)
(0.0853085 0.0133087 0 0.00302687 0 0)
(0.0869896 0.0112013 0 0.00277765 0 0)
(0.111623 0.0111953 0 0.00204791 0 0)
(0.113771 0.00923988 0 0.00161867 0 0)
(0.142283 0.00989238 0 0.000975604 0 0)
(0.141067 0.0103526 0 0.00135497 0 0)
(0.167612 0.0100084 0 0.00096066 0 0)
(0.159092 0.0132997 0 0.00178727 0 0)
(0.178604 0.0112741 0 0.0018247 0 0)
(0.15839 0.0177329 0 0.00318692 0 0)
(0.162619 0.0189428 0 0.00429516 0 0)
(0.129559 0.0327 0 0.0151793 0 0)
(0.117936 0.0527425 0 0.0488081 0 0)
(0.120832 0.0933678 0 0.215242 0 0)
(0.111895 0.0143238 0 0.00197965 0 0)
(0.00292207 0.00269902 0 0.0048091 0 0)
(0.00982372 0.00311858 0 0.00224428 0 0)
(0.0271685 0.00416184 0 0.000868294 0 0)
(0.0488865 0.00712116 0 0.00123362 0 0)
(0.0582479 0.00931095 0 0.00189847 0 0)
(0.0731112 0.0111554 0 0.00244491 0 0)
(0.0789782 0.00990481 0 0.00204256 0 0)
(0.0956752 0.00929849 0 0.00190327 0 0)
(0.106383 0.00764866 0 0.00139258 0 0)
(0.125195 0.00867827 0 0.000903442 0 0)
(0.138909 0.00875377 0 0.00105258 0 0)
(0.155601 0.00948083 0 0.0010593 0 0)
(0.16847 0.0117747 0 0.00153257 0 0)
(0.179326 0.0120236 0 0.00195179 0 0)
(0.186581 0.0180123 0 0.00309279 0 0)
(0.184182 0.0209214 0 0.00482445 0 0)
(0.181096 0.0450515 0 0.0180111 0 0)
(0.165429 0.059422 0 0.0452045 0 0)
(0.191795 0.145652 0 0.251175 0 0)
(0.111295 0.0120727 0 0.00141665 0 0)
(0.00227222 0.00213057 0 0.00384024 0 0)
(0.00800493 0.00238353 0 0.0021075 0 0)
(0.0242873 0.00338423 0 0.000636033 0 0)
(0.0429028 0.00565742 0 0.000886915 0 0)
(0.0532925 0.00792018 0 0.0014685 0 0)
(0.0641073 0.0094314 0 0.00202754 0 0)
(0.0720796 0.0086239 0 0.00196039 0 0)
(0.083827 0.0073488 0 0.0013767 0 0)
(0.0977196 0.0068997 0 0.00110361 0 0)
(0.110632 0.00650734 0 0.000665904 0 0)
(0.12807 0.00821395 0 0.00105673 0 0)
(0.139543 0.00720125 0 0.000831524 0 0)
(0.156254 0.0112699 0 0.00133713 0 0)
(0.16381 0.0103392 0 0.00168378 0 0)
(0.176841 0.0168244 0 0.00263034 0 0)
(0.174756 0.0222637 0 0.00499027 0 0)
(0.178936 0.0409873 0 0.0151968 0 0)
(0.171428 0.0680847 0 0.0508514 0 0)
(0.204813 0.150102 0 0.209623 0 0)
(0.110787 0.0100679 0 0.00100698 0 0)
(0.00193157 0.00160171 0 0.00300029 0 0)
(0.00679785 0.00169584 0 0.00195069 0 0)
(0.0217847 0.0026218 0 0.000437582 0 0)
(0.0386081 0.00439529 0 0.000625694 0 0)
(0.0487998 0.0065568 0 0.00112949 0 0)
(0.0578611 0.00796831 0 0.00160283 0 0)
(0.0651199 0.00727179 0 0.00139738 0 0)
(0.0758513 0.00631897 0 0.00117593 0 0)
(0.0890732 0.00546706 0 0.00101272 0 0)
(0.100638 0.00567734 0 0.000569144 0 0)
(0.117127 0.00674931 0 0.000811061 0 0)
(0.128504 0.00622191 0 0.000734226 0 0)
(0.142884 0.00993229 0 0.00120681 0 0)
(0.151516 0.00893803 0 0.00143306 0 0)
(0.162649 0.017484 0 0.00298888 0 0)
(0.163586 0.0198353 0 0.00458428 0 0)
(0.168613 0.0445774 0 0.0176392 0 0)
(0.169441 0.068163 0 0.0488348 0 0)
(0.205256 0.149507 0 0.195191 0 0)
(0.110848 0.00837016 0 0.000708407 0 0)
(0.0017739 0.0011831 0 0.00228454 0 0)
(0.00607471 0.00120709 0 0.00176492 0 0)
(0.0196025 0.00209843 0 0.000327334 0 0)
(0.0350265 0.00346156 0 0.000443327 0 0)
(0.0450192 0.00541133 0 0.000829234 0 0)
(0.0525548 0.00671858 0 0.00126834 0 0)
(0.0593945 0.00618267 0 0.00123385 0 0)
(0.0691077 0.00517633 0 0.000860344 0 0)
(0.0813084 0.00471141 0 0.00071021 0 0)
(0.0923881 0.00461813 0 0.000402498 0 0)
(0.108246 0.00607001 0 0.000678459 0 0)
(0.11829 0.00545204 0 0.000586029 0 0)
(0.132714 0.00860954 0 0.000874462 0 0)
(0.139746 0.00864992 0 0.00121652 0 0)
(0.152699 0.0149101 0 0.00229132 0 0)
(0.152962 0.0207744 0 0.00460263 0 0)
(0.162839 0.0427547 0 0.0168113 0 0)
(0.166009 0.0688632 0 0.0473069 0 0)
(0.212157 0.152425 0 0.181941 0 0)
(0.111134 0.00686436 0 0.000484822 0 0)
(0.00168162 0.00084374 0 0.00168232 0 0)
(0.00563646 0.000773976 0 0.00141652 0 0)
(0.0178286 0.00166227 0 0.000229393 0 0)
(0.0321769 0.00271218 0 0.000300264 0 0)
(0.0420171 0.00444549 0 0.00059854 0 0)
(0.0477895 0.00558287 0 0.000944154 0 0)
(0.0550481 0.00519603 0 0.000848944 0 0)
(0.0630339 0.00435135 0 0.000629 0 0)
(0.0752571 0.00386979 0 0.000625598 0 0)
(0.0853628 0.00384571 0 0.000318772 0 0)
(0.100939 0.00520146 0 0.000506999 0 0)
(0.109717 0.00454343 0 0.000456055 0 0)
(0.124454 0.00790244 0 0.000787021 0 0)
(0.130513 0.00755677 0 0.0010039 0 0)
(0.144306 0.0147284 0 0.00234996 0 0)
(0.145027 0.0200674 0 0.00443107 0 0)
(0.158628 0.0416358 0 0.0165605 0 0)
(0.164868 0.0702336 0 0.0464585 0 0)
(0.216925 0.151326 0 0.166757 0 0)
(0.111462 0.00551863 0 0.000325736 0 0)
(0.00154794 0.000582247 0 0.00121421 0 0)
(0.00528471 0.000491347 0 0.00105953 0 0)
(0.0162078 0.00132659 0 0.000193477 0 0)
(0.0301588 0.00211254 0 0.000223834 0 0)
(0.0392019 0.00354794 0 0.000425071 0 0)
(0.0445718 0.00458719 0 0.00070139 0 0)
(0.0511439 0.00423762 0 0.000674645 0 0)
(0.0586233 0.00348212 0 0.000469554 0 0)
(0.0701949 0.00308461 0 0.000435363 0 0)
(0.0803969 0.00304456 0 0.000250828 0 0)
(0.0944196 0.00425932 0 0.000431422 0 0)
(0.103779 0.0037752 0 0.00041129 0 0)
(0.117274 0.00651334 0 0.00061306 0 0)
(0.124454 0.0068437 0 0.000894447 0 0)
(0.136806 0.0134075 0 0.00213259 0 0)
(0.140783 0.0192133 0 0.00442845 0 0)
(0.15532 0.0407732 0 0.0163327 0 0)
(0.166873 0.0704084 0 0.0450315 0 0)
(0.222503 0.148893 0 0.151908 0 0)
(0.111683 0.00433223 0 0.000208171 0 0)
(0.00151382 0.000390122 0 0.000808894 0 0)
(0.00512613 0.000271674 0 0.000711085 0 0)
(0.0150456 0.00101467 0 0.000135725 0 0)
(0.0286848 0.00159112 0 0.000147422 0 0)
(0.0366616 0.00272039 0 0.000282023 0 0)
(0.0424865 0.00363618 0 0.000478107 0 0)
(0.0476515 0.00328167 0 0.000441121 0 0)
(0.0556954 0.00274068 0 0.000308092 0 0)
(0.0658994 0.00232392 0 0.000346818 0 0)
(0.0769405 0.0022683 0 0.000211766 0 0)
(0.0888318 0.0034081 0 0.000338098 0 0)
(0.0999364 0.00294413 0 0.000326872 0 0)
(0.111173 0.00554649 0 0.000519978 0 0)
(0.12017 0.00593189 0 0.000782864 0 0)
(0.130785 0.0123489 0 0.00198247 0 0)
(0.138888 0.0182539 0 0.00432616 0 0)
(0.152668 0.0400651 0 0.0158009 0 0)
(0.171386 0.0696976 0 0.0429731 0 0)
(0.22928 0.147397 0 0.138126 0 0)
(0.111731 0.00325968 0 0.000130011 0 0)
(0.0015112 0.000257118 0 0.000505906 0 0)
(0.00503497 0.000125188 0 0.000456298 0 0)
(0.0142453 0.000765928 0 0.000108569 0 0)
(0.0273375 0.00115274 0 0.000113959 0 0)
(0.0351843 0.00198725 0 0.000186499 0 0)
(0.0407177 0.00274394 0 0.000314618 0 0)
(0.0452242 0.00245748 0 0.000304351 0 0)
(0.0532763 0.00202015 0 0.000214513 0 0)
(0.0629933 0.00168659 0 0.000242726 0 0)
(0.0737708 0.00169064 0 0.000162309 0 0)
(0.0852526 0.00267131 0 0.000267259 0 0)
(0.0965118 0.0022553 0 0.000286449 0 0)
(0.107141 0.00461569 0 0.000442222 0 0)
(0.116347 0.00516806 0 0.000680191 0 0)
(0.127709 0.0114066 0 0.00185165 0 0)
(0.137102 0.0175802 0 0.00416193 0 0)
(0.152656 0.0391657 0 0.0151197 0 0)
(0.176152 0.0688375 0 0.0406645 0 0)
(0.236861 0.144806 0 0.125495 0 0)
(0.111796 0.00228117 0 7.29358e-05 0 0)
(0.00154216 0.000157005 0 0.000270706 0 0)
(0.00503191 3.72227e-05 0 0.000249052 0 0)
(0.0137198 0.000538419 0 6.87394e-05 0 0)
(0.0261319 0.000808034 0 7.32247e-05 0 0)
(0.0343603 0.00135965 0 0.000104411 0 0)
(0.0389193 0.00194989 0 0.000180148 0 0)
(0.0438324 0.00173294 0 0.000169381 0 0)
(0.0510439 0.00143962 0 0.000116661 0 0)
(0.0611148 0.00120001 0 0.000153654 0 0)
(0.0709464 0.00121764 0 0.000111697 0 0)
(0.0832579 0.00206565 0 0.00017518 0 0)
(0.0932862 0.00178901 0 0.000202528 0 0)
(0.104735 0.00375291 0 0.000337284 0 0)
(0.113358 0.00470418 0 0.000566929 0 0)
(0.126297 0.0104075 0 0.00167055 0 0)
(0.135562 0.017324 0 0.00392972 0 0)
(0.154834 0.0378044 0 0.0142883 0 0)
(0.180871 0.068474 0 0.0381184 0 0)
(0.246688 0.140705 0 0.112494 0 0)
(0.111906 0.00136724 0 4.04828e-05 0 0)
(0.00151459 7.64617e-05 0 0.000127601 0 0)
(0.00499101 4.37688e-06 0 0.000120292 0 0)
(0.0133166 0.000311966 0 5.28744e-05 0 0)
(0.0255436 0.000483833 0 6.27967e-05 0 0)
(0.0337159 0.000759448 0 6.66355e-05 0 0)
(0.0377895 0.00119463 0 0.000100232 0 0)
(0.0428749 0.0010126 0 9.62983e-05 0 0)
(0.0497201 0.000862816 0 7.45821e-05 0 0)
(0.0596161 0.000696408 0 0.00010119 0 0)
(0.0694532 0.000720237 0 8.59448e-05 0 0)
(0.0816303 0.00145888 0 0.000122626 0 0)
(0.0912679 0.0012312 0 0.000159879 0 0)
(0.10308 0.00299399 0 0.000266517 0 0)
(0.111999 0.00407029 0 0.000472903 0 0)
(0.125223 0.00961255 0 0.00149636 0 0)
(0.135925 0.0166972 0 0.00368384 0 0)
(0.157736 0.0365847 0 0.0133703 0 0)
(0.187377 0.0674711 0 0.0353318 0 0)
(0.257849 0.136695 0 0.100826 0 0)
(0.111928 0.000494487 0 2.28812e-05 0 0)
(0.00152337 9.1645e-06 0 5.35131e-05 0 0)
(0.00499451 -1.74738e-05 0 4.73412e-05 0 0)
(0.0130869 7.63439e-05 0 3.97762e-05 0 0)
(0.0253747 0.000170256 0 5.21172e-05 0 0)
(0.0331019 0.000171592 0 4.79982e-05 0 0)
(0.0375527 0.000429398 0 5.62016e-05 0 0)
(0.0421672 0.000273256 0 5.80154e-05 0 0)
(0.0492914 0.000285508 0 5.62718e-05 0 0)
(0.0585861 0.000176239 0 6.95983e-05 0 0)
(0.0691784 0.000172704 0 7.91904e-05 0 0)
(0.0802562 0.000802438 0 9.68539e-05 0 0)
(0.0908346 0.000617452 0 0.000132273 0 0)
(0.101991 0.00222895 0 0.000220073 0 0)
(0.111962 0.00329543 0 0.000426321 0 0)
(0.124761 0.00884274 0 0.00133741 0 0)
(0.138158 0.0156431 0 0.00349322 0 0)
(0.161155 0.0354901 0 0.0123532 0 0)
(0.195934 0.0654751 0 0.0326164 0 0)
(0.268803 0.132303 0 0.0897333 0 0)
(0.111839 -0.000364615 0 2.30566e-05 0 0)
(0.00153334 -4.90586e-05 0 6.0333e-05 0 0)
(0.00499899 -2.2092e-05 0 4.30977e-05 0 0)
(0.0131191 -0.000146108 0 4.63432e-05 0 0)
(0.025394 -0.000120395 0 5.81613e-05 0 0)
(0.0330589 -0.000397673 0 5.73793e-05 0 0)
(0.0376482 -0.000320285 0 5.77088e-05 0 0)
(0.0421416 -0.000447058 0 6.763e-05 0 0)
(0.049244 -0.00028319 0 7.44011e-05 0 0)
(0.0586385 -0.000350154 0 6.81049e-05 0 0)
(0.0692598 -0.000354379 0 9.02505e-05 0 0)
(0.0801364 0.00014519 0 9.51247e-05 0 0)
(0.0912045 -3.4589e-06 0 0.000128256 0 0)
(0.102173 0.00140351 0 0.00020527 0 0)
(0.112735 0.00254037 0 0.000405814 0 0)
(0.126015 0.00787201 0 0.00122425 0 0)
(0.141386 0.0146098 0 0.00327542 0 0)
(0.166188 0.0340468 0 0.0113258 0 0)
(0.205498 0.0631579 0 0.029734 0 0)
(0.280409 0.127386 0 0.0793923 0 0)
(0.111787 -0.00124213 0 3.82994e-05 0 0)
(0.0015406 -0.000114251 0 0.00014112 0 0)
(0.00500069 -3.01051e-05 0 0.000100864 0 0)
(0.0133157 -0.000364268 0 6.49872e-05 0 0)
(0.0255214 -0.000402258 0 6.89711e-05 0 0)
(0.0335673 -0.000965659 0 8.68142e-05 0 0)
(0.0379017 -0.0010468 0 9.56262e-05 0 0)
(0.0427251 -0.00115494 0 0.000116194 0 0)
(0.0496006 -0.000827372 0 0.00011582 0 0)
(0.0595775 -0.000876471 0 8.69468e-05 0 0)
(0.0696445 -0.000796438 0 9.74917e-05 0 0)
(0.0813662 -0.000530159 0 0.000100481 0 0)
(0.0919529 -0.000528742 0 0.00011814 0 0)
(0.103711 0.000501258 0 0.000209078 0 0)
(0.114167 0.00195741 0 0.000370895 0 0)
(0.12896 0.00664209 0 0.00115723 0 0)
(0.145247 0.01389 0 0.00296881 0 0)
(0.172996 0.0319352 0 0.0104093 0 0)
(0.215217 0.0610981 0 0.0266108 0 0)
(0.293682 0.121272 0 0.0706908 0 0)
(0.111754 -0.00215945 0 7.1384e-05 0 0)
(0.00150032 -0.000190581 0 0.000299385 0 0)
(0.00498327 -6.70035e-05 0 0.000223968 0 0)
(0.0136751 -0.000590103 0 9.55542e-05 0 0)
(0.0261146 -0.00072319 0 9.16474e-05 0 0)
(0.0343137 -0.00156915 0 0.000143303 0 0)
(0.0387541 -0.0018051 0 0.000176725 0 0)
(0.043722 -0.0018885 0 0.000208804 0 0)
(0.0508862 -0.00141063 0 0.000186237 0 0)
(0.0608746 -0.00139847 0 0.000129017 0 0)
(0.071192 -0.00128955 0 0.000118247 0 0)
(0.083137 -0.00116978 0 0.000119861 0 0)
(0.0938597 -0.00112374 0 0.000125121 0 0)
(0.106009 -0.000310381 0 0.000215014 0 0)
(0.117073 0.00121044 0 0.000376847 0 0)
(0.132865 0.00554626 0 0.0010667 0 0)
(0.150591 0.0128417 0 0.00274004 0 0)
(0.180835 0.0298453 0 0.00938051 0 0)
(0.226316 0.0583932 0 0.023754 0 0)
(0.308881 0.11468 0 0.062157 0 0)
(0.111608 -0.00314024 0 0.000125374 0 0)
(0.00150459 -0.000298453 0 0.000539223 0 0)
(0.00501555 -0.000152231 0 0.000414438 0 0)
(0.0142374 -0.00083367 0 0.000134187 0 0)
(0.0271366 -0.00110356 0 0.000127472 0 0)
(0.0353758 -0.00222962 0 0.000230749 0 0)
(0.0402223 -0.00261972 0 0.000302844 0 0)
(0.0452929 -0.00267886 0 0.000347604 0 0)
(0.0529525 -0.00204199 0 0.000284768 0 0)
(0.0627502 -0.00195472 0 0.000195662 0 0)
(0.0738344 -0.00184148 0 0.000153404 0 0)
(0.0854919 -0.00183957 0 0.000160392 0 0)
(0.0971407 -0.00179796 0 0.000150609 0 0)
(0.109058 -0.00113037 0 0.000239823 0 0)
(0.121663 0.000307354 0 0.000417241 0 0)
(0.137572 0.00450335 0 0.000979896 0 0)
(0.157688 0.0113959 0 0.00258462 0 0)
(0.189552 0.0279018 0 0.00825434 0 0)
(0.239776 0.054675 0 0.0212825 0 0)
(0.325415 0.108476 0 0.0534766 0 0)
(0.111386 -0.00421406 0 0.000204959 0 0)
(0.001514 -0.00044639 0 0.000860025 0 0)
(0.00508866 -0.000281152 0 0.000671936 0 0)
(0.0150845 -0.00109933 0 0.000177449 0 0)
(0.0284094 -0.00153791 0 0.000176584 0 0)
(0.0369672 -0.00295385 0 0.000348147 0 0)
(0.0421197 -0.00348042 0 0.000470203 0 0)
(0.047673 -0.00353534 0 0.00053103 0 0)
(0.0554601 -0.00269176 0 0.000408018 0 0)
(0.0657337 -0.00260854 0 0.00029656 0 0)
(0.0770608 -0.00239635 0 0.000198274 0 0)
(0.0891631 -0.00264928 0 0.000231531 0 0)
(0.101195 -0.00241271 0 0.000170702 0 0)
(0.113701 -0.00219923 0 0.000314567 0 0)
(0.127148 -0.00044373 0 0.000429758 0 0)
(0.143899 0.00307546 0 0.000991695 0 0)
(0.165935 0.0101329 0 0.00233896 0 0)
(0.200173 0.0252971 0 0.00735282 0 0)
(0.254871 0.0508009 0 0.0187105 0 0)
(0.343476 0.101409 0 0.0459274 0 0)
(0.111183 -0.00541209 0 0.000319007 0 0)
(0.00153904 -0.000638225 0 0.00126318 0 0)
(0.00523634 -0.000482586 0 0.000998355 0 0)
(0.0162161 -0.001391 0 0.000225713 0 0)
(0.0300218 -0.00204222 0 0.000244085 0 0)
(0.0390867 -0.00374821 0 0.000499582 0 0)
(0.0446114 -0.00441169 0 0.000682891 0 0)
(0.0507431 -0.00443067 0 0.00074984 0 0)
(0.0587535 -0.0034243 0 0.000564104 0 0)
(0.0697223 -0.00332017 0 0.000421749 0 0)
(0.0811859 -0.0030434 0 0.000260955 0 0)
(0.0940867 -0.00349237 0 0.000319976 0 0)
(0.106323 -0.0031444 0 0.000212235 0 0)
(0.119892 -0.00333446 0 0.000411396 0 0)
(0.133692 -0.0012956 0 0.000470735 0 0)
(0.152093 0.00150233 0 0.00102876 0 0)
(0.17556 0.0087329 0 0.00214428 0 0)
(0.212903 0.022209 0 0.00652772 0 0)
(0.271459 0.0465605 0 0.0162899 0 0)
(0.363582 0.0932391 0 0.0393632 0 0)
(0.110943 -0.00676808 0 0.000479846 0 0)
(0.00159682 -0.00089199 0 0.00175158 0 0)
(0.00551469 -0.000789979 0 0.00137379 0 0)
(0.0176775 -0.00172949 0 0.000284297 0 0)
(0.0321256 -0.00264655 0 0.00033577 0 0)
(0.0417696 -0.00463771 0 0.000689319 0 0)
(0.0478721 -0.00542714 0 0.000938666 0 0)
(0.0545844 -0.0053929 0 0.00100437 0 0)
(0.0631488 -0.00425448 0 0.000750427 0 0)
(0.0746902 -0.00410933 0 0.000569739 0 0)
(0.0865872 -0.00377838 0 0.000333892 0 0)
(0.100204 -0.00439414 0 0.000424251 0 0)
(0.113053 -0.00398729 0 0.000269406 0 0)
(0.127412 -0.00451369 0 0.000522892 0 0)
(0.142109 -0.00229416 0 0.000536368 0 0)
(0.162017 -0.000167362 0 0.0010734 0 0)
(0.187207 0.00706821 0 0.00203366 0 0)
(0.227527 0.0188201 0 0.00571195 0 0)
(0.290228 0.0416729 0 0.014224 0 0)
(0.385959 0.0842469 0 0.0334665 0 0)
(0.110749 -0.00828712 0 0.000700151 0 0)
(0.00171497 -0.00123929 0 0.0023515 0 0)
(0.00598217 -0.00120677 0 0.00171055 0 0)
(0.019527 -0.00216094 0 0.000368007 0 0)
(0.034838 -0.00341258 0 0.000466734 0 0)
(0.0451312 -0.00565486 0 0.000925634 0 0)
(0.0520317 -0.00656489 0 0.00124323 0 0)
(0.05945 -0.00645895 0 0.00129491 0 0)
(0.068725 -0.00520463 0 0.000968006 0 0)
(0.080844 -0.0050017 0 0.000739895 0 0)
(0.0933885 -0.00461352 0 0.000419927 0 0)
(0.107818 -0.00540841 0 0.000550756 0 0)
(0.121368 -0.00488361 0 0.00033085 0 0)
(0.136663 -0.00585344 0 0.000671446 0 0)
(0.152548 -0.00331549 0 0.000593946 0 0)
(0.173865 -0.00211894 0 0.00119186 0 0)
(0.201134 0.00537442 0 0.00191322 0 0)
(0.244402 0.0148498 0 0.00508707 0 0)
(0.311411 0.03649 0 0.0122911 0 0)
(0.411819 0.0737328 0 0.028598 0 0)
(0.111024 -0.010023 0 0.0010003 0 0)
(0.00188745 -0.00167315 0 0.00308082 0 0)
(0.0067444 -0.00173816 0 0.00193365 0 0)
(0.0216913 -0.00271789 0 0.000494969 0 0)
(0.0383743 -0.00440879 0 0.000657185 0 0)
(0.0489481 -0.00679778 0 0.001217 0 0)
(0.0574362 -0.00788088 0 0.00160632 0 0)
(0.0650533 -0.00758748 0 0.0016117 0 0)
(0.0757633 -0.00634374 0 0.00123045 0 0)
(0.0879211 -0.00595774 0 0.000930062 0 0)
(0.101986 -0.00565128 0 0.000537266 0 0)
(0.116585 -0.00647507 0 0.000694244 0 0)
(0.131676 -0.00596596 0 0.000412502 0 0)
(0.147497 -0.00728239 0 0.000858325 0 0)
(0.165313 -0.00450218 0 0.000656102 0 0)
(0.187684 -0.00426581 0 0.00140322 0 0)
(0.217778 0.00354323 0 0.00175717 0 0)
(0.263488 0.0103981 0 0.00474066 0 0)
(0.335225 0.0309918 0 0.0103812 0 0)
(0.441217 0.0613914 0 0.0249811 0 0)
(0.112222 -0.0120764 0 0.00141571 0 0)
(0.00224855 -0.00215655 0 0.00392871 0 0)
(0.00810706 -0.00243614 0 0.00208894 0 0)
(0.0240293 -0.0033777 0 0.000676396 0 0)
(0.0432901 -0.00567219 0 0.000920614 0 0)
(0.0528247 -0.00801948 0 0.00156712 0 0)
(0.0649346 -0.00941929 0 0.00201932 0 0)
(0.0707446 -0.00868023 0 0.00194684 0 0)
(0.0853338 -0.00774611 0 0.00153558 0 0)
(0.0952837 -0.00689588 0 0.00113227 0 0)
(0.113699 -0.0069622 0 0.000686933 0 0)
(0.125814 -0.00750593 0 0.00083734 0 0)
(0.145797 -0.00737356 0 0.000532817 0 0)
(0.159078 -0.00865183 0 0.00104776 0 0)
(0.18232 -0.00604024 0 0.000755614 0 0)
(0.202488 -0.00635649 0 0.00161348 0 0)
(0.238259 0.00137133 0 0.00168508 0 0)
(0.282617 0.00594351 0 0.0043932 0 0)
(0.360052 0.0250713 0 0.00894669 0 0)
(0.466771 0.048244 0 0.0212322 0 0)
(0.113638 -0.014438 0 0.00197881 0 0)
(0.00313169 -0.00273024 0 0.00489735 0 0)
(0.0104867 -0.00334237 0 0.00225352 0 0)
(0.0267632 -0.0041409 0 0.000916374 0 0)
(0.0501918 -0.00728243 0 0.00127076 0 0)
(0.0569317 -0.00932044 0 0.0019838 0 0)
(0.0755448 -0.0113145 0 0.00249186 0 0)
(0.0765006 -0.00971735 0 0.00231424 0 0)
(0.0990919 -0.0095785 0 0.00189705 0 0)
(0.102581 -0.00779783 0 0.00135292 0 0)
(0.130552 -0.00867556 0 0.000878806 0 0)
(0.134565 -0.00851755 0 0.000996582 0 0)
(0.165532 -0.0091869 0 0.000694771 0 0)
(0.168475 -0.00987273 0 0.00125612 0 0)
(0.203223 -0.00784876 0 0.000885074 0 0)
(0.210542 -0.00811422 0 0.00184211 0 0)
(0.255992 -0.000676782 0 0.00164877 0 0)
(0.284413 0.00214951 0 0.00408749 0 0)
(0.364879 0.020299 0 0.00778314 0 0)
(0.450883 0.0365943 0 0.0173402 0 0)
(0.113047 -0.0169191 0 0.00271207 0 0)
(0.00436128 -0.00357481 0 0.00599722 0 0)
(0.0134383 -0.00433095 0 0.00244335 0 0)
(0.0304287 -0.00515652 0 0.00123402 0 0)
(0.0582863 -0.00922856 0 0.0017281 0 0)
(0.0628984 -0.010919 0 0.00249816 0 0)
(0.0884603 -0.0135744 0 0.00304847 0 0)
(0.0841786 -0.0109763 0 0.00274667 0 0)
(0.115428 -0.0117587 0 0.00232097 0 0)
(0.109811 -0.00876013 0 0.00159419 0 0)
(0.147182 -0.0105894 0 0.00112123 0 0)
(0.137384 -0.00923474 0 0.00116327 0 0)
(0.176676 -0.0108306 0 0.000893962 0 0)
(0.159989 -0.00995228 0 0.00143459 0 0)
(0.19963 -0.0088072 0 0.00101757 0 0)
(0.181929 -0.00767134 0 0.00197291 0 0)
(0.22607 -0.00115361 0 0.00156611 0 0)
(0.224392 0.00169153 0 0.00375416 0 0)
(0.292322 0.0186752 0 0.00650365 0 0)
(0.344944 0.029963 0 0.0139643 0 0)
(0.110279 -0.0194759 0 0.00366734 0 0)
(0.00552306 -0.00482813 0 0.00713514 0 0)
(0.0163382 -0.0052898 0 0.0026639 0 0)
(0.0355372 -0.00662709 0 0.00166186 0 0)
(0.0665238 -0.0114158 0 0.0023105 0 0)
(0.0717696 -0.0129928 0 0.00312778 0 0)
(0.0992505 -0.015685 0 0.0036511 0 0)
(0.0900595 -0.0121843 0 0.00322275 0 0)
(0.118743 -0.0128768 0 0.00270349 0 0)
(0.101767 -0.00868548 0 0.00179316 0 0)
(0.130425 -0.0105107 0 0.00130446 0 0)
(0.105381 -0.00764158 0 0.00123958 0 0)
(0.130217 -0.00926852 0 0.00100658 0 0)
(0.0990436 -0.00611241 0 0.00143155 0 0)
(0.120944 -0.00600679 0 0.00100854 0 0)
(0.0939515 -0.00240066 0 0.0018474 0 0)
(0.11822 0.00117027 0 0.00133659 0 0)
(0.111734 0.00635615 0 0.00320914 0 0)
(0.157891 0.0181767 0 0.00507826 0 0)
(0.208983 0.029565 0 0.0106777 0 0)
(0.107624 -0.0223242 0 0.00493333 0 0)
(0.00707803 -0.00652345 0 0.00810456 0 0)
(0.0197732 -0.00647589 0 0.00302633 0 0)
(0.0420819 -0.00862709 0 0.00226717 0 0)
(0.0715131 -0.0134816 0 0.00302728 0 0)
(0.0728218 -0.0140845 0 0.00375727 0 0)
(0.0854013 -0.0147745 0 0.00407626 0 0)
(0.0654395 -0.00972275 0 0.00345578 0 0)
(0.0713712 -0.00888027 0 0.00273594 0 0)
(0.0499081 -0.00414364 0 0.00172032 0 0)
(0.0534307 -0.00502183 0 0.00120805 0 0)
(0.0382114 -0.00146219 0 0.00107142 0 0)
(0.0386179 -0.00244703 0 0.000869344 0 0)
(0.0345717 0.00164339 0 0.00116541 0 0)
(0.034731 0.000320006 0 0.000795792 0 0)
(0.0464762 0.00523992 0 0.00145893 0 0)
(0.0501215 0.00416549 0 0.00100445 0 0)
(0.083494 0.0119079 0 0.00247053 0 0)
(0.11048 0.0149511 0 0.00373755 0 0)
(0.191575 0.0309872 0 0.00750919 0 0)
(0.107982 -0.0258897 0 0.00661293 0 0)
(0.00989231 -0.00880196 0 0.00909355 0 0)
(0.0226517 -0.00781296 0 0.00377354 0 0)
(0.0405652 -0.00960872 0 0.00307335 0 0)
(0.0500591 -0.0115627 0 0.00355912 0 0)
(0.0352731 -0.00836015 0 0.00384751 0 0)
(0.0263706 -0.00536673 0 0.00375381 0 0)
(0.0164591 0.000188861 0 0.00295182 0 0)
(0.01791 0.00119581 0 0.00214225 0 0)
(0.031903 0.00415877 0 0.00125956 0 0)
(0.0322273 0.00341501 0 0.000836976 0 0)
(0.0688844 0.0059522 0 0.000713531 0 0)
(0.061832 0.00516518 0 0.000583352 0 0)
(0.122801 0.00828701 0 0.000768945 0 0)
(0.10959 0.00568391 0 0.000518423 0 0)
(0.187812 0.010145 0 0.000975935 0 0)
(0.174576 0.00476436 0 0.000684884 0 0)
(0.258008 0.0139668 0 0.00165809 0 0)
(0.270951 0.00815975 0 0.00260207 0 0)
(0.364492 0.0277352 0 0.00471992 0 0)
(0.11565 -0.0317436 0 0.00925088 0 0)
(0.0110798 -0.0100004 0 0.0102058 0 0)
(0.0150175 -0.00538643 0 0.00440246 0 0)
(0.0158312 -0.00337832 0 0.00321656 0 0)
(0.00949917 -0.000177891 0 0.00302909 0 0)
(0.0159722 0.00535396 0 0.0028694 0 0)
(0.039193 0.00844592 0 0.00256098 0 0)
(0.0928621 0.0106865 0 0.00187391 0 0)
(0.131606 0.00960746 0 0.00126247 0 0)
(0.206128 0.00975579 0 0.000708468 0 0)
(0.226214 0.00864501 0 0.000446179 0 0)
(0.320194 0.00972854 0 0.00038212 0 0)
(0.319355 0.00893189 0 0.000316724 0 0)
(0.439653 0.010557 0 0.000422774 0 0)
(0.419046 0.00754456 0 0.000282579 0 0)
(0.552283 0.0103521 0 0.000557298 0 0)
(0.521174 0.00302797 0 0.000403536 0 0)
(0.632992 0.0117079 0 0.000992291 0 0)
(0.633539 -0.000107553 0 0.00160095 0 0)
(0.689602 0.0205345 0 0.00300527 0 0)
(0.123904 -0.0392941 0 0.0132123 0 0)
(0.00309412 -0.00262473 0 0.00978749 0 0)
(0.0209382 0.00568923 0 0.0035455 0 0)
(0.0495369 0.00913543 0 0.00210193 0 0)
(0.0956801 0.0124143 0 0.00169077 0 0)
(0.183518 0.0150046 0 0.00150537 0 0)
(0.278825 0.0148936 0 0.00127652 0 0)
(0.399546 0.0135577 0 0.00088678 0 0)
(0.477704 0.0110931 0 0.000561837 0 0)
(0.589972 0.00981661 0 0.000306142 0 0)
(0.628856 0.00866866 0 0.000180756 0 0)
(0.748027 0.00893388 0 0.000161788 0 0)