/*--------------------------------*- C++ -*----------------------------------*\
| =========                 |                                                 |
| \\      /  F ield         | OpenFOAM: The Open Source CFD Toolbox           |
|  \\    /   O peration     | Version:  2.4.0                                 |
|   \\  /    A nd           | Web:      www.OpenFOAM.org                      |
|    \\/     M anipulation  |                                                 |
\*---------------------------------------------------------------------------*/
FoamFile
{
    version     2.0;
    format      ascii;
    class       surfaceScalarField;
    location    "0.148";
    object      phi;
}
// * * * * * * * * * * * * * * * * * * * * * * * * * * * * * * * * * * * * * //

dimensions      [0 3 -1 0 0 0 0];

internalField   nonuniform List<scalar> 
34880
(
5.48999e-06
7.01001e-06
3.12339e-06
2.3666e-06
2.47507e-06
6.48311e-07
2.21602e-06
2.59055e-07
2.07463e-06
1.41394e-07
1.9725e-06
1.02127e-07
1.88427e-06
8.82299e-08
1.82221e-06
6.20548e-08
1.77982e-06
4.23885e-08
1.74026e-06
3.95622e-08
1.72467e-06
1.55924e-08
1.69185e-06
3.28243e-08
1.68599e-06
5.85662e-09
1.70337e-06
-1.73835e-08
1.68286e-06
2.0515e-08
1.74628e-06
-6.34219e-08
1.87587e-06
-1.29593e-07
1.95322e-06
-7.73436e-08
2.24545e-06
-2.92235e-07
-1.23e-06
3.47545e-06
1.01137e-05
9.39628e-06
7.82899e-06
4.65135e-06
6.71301e-06
1.76428e-06
6.05951e-06
9.12564e-07
5.6456e-06
5.55303e-07
5.3568e-06
3.90923e-07
5.11621e-06
3.28816e-07
4.94937e-06
2.28903e-07
4.81564e-06
1.76115e-07
4.70715e-06
1.48053e-07
4.64242e-06
8.0317e-08
4.55469e-06
1.20557e-07
4.53093e-06
2.96153e-08
4.50751e-06
6.03656e-09
4.47941e-06
4.86155e-08
4.5946e-06
-1.78614e-07
4.71726e-06
-2.52249e-07
4.92454e-06
-2.84625e-07
5.5071e-06
-8.7479e-07
-2.31448e-06
6.59158e-06
1.24285e-05
9.46783e-06
1.10045e-05
6.07528e-06
9.98261e-06
2.78619e-06
9.19846e-06
1.69671e-06
8.61799e-06
1.13577e-06
8.20014e-06
8.08774e-07
7.84667e-06
6.82288e-07
7.60204e-06
4.73533e-07
7.39396e-06
3.84195e-07
7.2258e-06
3.16214e-07
7.11923e-06
1.86886e-07
6.98378e-06
2.56005e-07
6.93936e-06
7.40343e-08
6.8726e-06
7.28065e-08
6.82879e-06
9.2418e-08
6.96697e-06
-3.16792e-07
7.02754e-06
-3.12818e-07
7.28782e-06
-5.44903e-07
7.9719e-06
-1.55887e-06
-3.22482e-06
8.88224e-06
1.34137e-05
8.55413e-06
1.28922e-05
6.59679e-06
1.23284e-05
3.34999e-06
1.17133e-05
2.31184e-06
1.11307e-05
1.71831e-06
1.06717e-05
1.26777e-06
1.02608e-05
1.09324e-06
9.96651e-06
7.67793e-07
9.71356e-06
6.37142e-07
9.4969e-06
5.32878e-07
9.36157e-06
3.22214e-07
9.18626e-06
4.31313e-07
9.12581e-06
1.34486e-07
9.02161e-06
1.7701e-07
8.95274e-06
1.61287e-07
9.102e-06
-4.66057e-07
9.10901e-06
-3.19827e-07
9.34465e-06
-7.80541e-07
1.00747e-05
-2.28893e-06
-3.98637e-06
1.08363e-05
1.35866e-05
7.46751e-06
1.36665e-05
6.51693e-06
1.36267e-05
3.38975e-06
1.33996e-05
2.53896e-06
1.30131e-05
2.1048e-06
1.26397e-05
1.64114e-06
1.22614e-05
1.47155e-06
1.19664e-05
1.06279e-06
1.17144e-05
8.8915e-07
1.14788e-05
7.68547e-07
1.13334e-05
4.67532e-07
1.11346e-05
6.30193e-07
1.10715e-05
1.97583e-07
1.09382e-05
3.10316e-07
1.08515e-05
2.47974e-07
1.09965e-05
-6.11078e-07
1.09832e-05
-3.06569e-07
1.11497e-05
-9.47006e-07
1.19018e-05
-3.04104e-06
-4.92038e-06
1.28358e-05
1.34668e-05
6.50067e-06
1.37643e-05
6.21949e-06
1.40026e-05
3.1514e-06
1.4143e-05
2.39856e-06
1.40771e-05
2.17075e-06
1.39102e-05
1.80802e-06
1.36882e-05
1.69352e-06
1.34715e-05
1.27952e-06
1.32822e-05
1.07845e-06
1.30791e-05
9.71637e-07
1.29557e-05
5.90961e-07
1.27581e-05
8.27796e-07
1.2718e-05
2.37634e-07
1.25675e-05
4.60835e-07
1.24802e-05
3.35246e-07
1.26155e-05
-7.46349e-07
1.26025e-05
-2.93566e-07
1.26902e-05
-1.03473e-06
1.34325e-05
-3.78327e-06
-6.0701e-06
1.45822e-05
1.33236e-05
5.67705e-06
1.37105e-05
5.83264e-06
1.39452e-05
2.91662e-06
1.42205e-05
2.12333e-06
1.43883e-05
2.00293e-06
1.44076e-05
1.78873e-06
1.44047e-05
1.69645e-06
1.43345e-05
1.34967e-06
1.42733e-05
1.13967e-06
1.41692e-05
1.07576e-06
1.41197e-05
6.40464e-07
1.39599e-05
9.87598e-07
1.39794e-05
2.18051e-07
1.38384e-05
6.01873e-07
1.37667e-05
4.06967e-07
1.39084e-05
-8.88089e-07
1.38993e-05
-2.84466e-07
1.39311e-05
-1.06651e-06
1.45712e-05
-4.42338e-06
-6.21141e-06
1.47125e-05
1.31995e-05
4.97759e-06
1.36816e-05
5.35051e-06
1.3826e-05
2.77224e-06
1.40911e-05
1.85824e-06
1.43464e-05
1.74764e-06
1.44247e-05
1.71039e-06
1.45516e-05
1.56951e-06
1.45973e-05
1.30405e-06
1.4647e-05
1.08996e-06
1.46645e-05
1.05827e-06
1.47285e-05
5.76397e-07
1.46376e-05
1.07853e-06
1.47481e-05
1.07559e-07
1.46605e-05
6.89457e-07
1.46271e-05
4.40352e-07
1.47944e-05
-1.05537e-06
1.47993e-05
-2.89375e-07
1.4831e-05
-1.09819e-06
1.53067e-05
-4.89906e-06
-5.96551e-06
1.50608e-05
1.31156e-05
4.36196e-06
1.35809e-05
4.8852e-06
1.37248e-05
2.6284e-06
1.39497e-05
1.63332e-06
1.42379e-05
1.45942e-06
1.43268e-05
1.62151e-06
1.44777e-05
1.41855e-06
1.45734e-05
1.20842e-06
1.46495e-05
1.0138e-06
1.47251e-05
9.82662e-07
1.48634e-05
4.38115e-07
1.48508e-05
1.09117e-06
1.50141e-05
-5.57769e-08
1.49928e-05
7.1076e-07
1.50352e-05
3.97966e-07
1.51938e-05
-1.21395e-06
1.52374e-05
-3.32939e-07
1.5355e-05
-1.21582e-06
1.56584e-05
-5.2025e-06
-7.07356e-06
1.67665e-05
1.30838e-05
3.77815e-06
1.34975e-05
4.47154e-06
1.36561e-05
2.46973e-06
1.38459e-05
1.44359e-06
1.41169e-05
1.18835e-06
1.42213e-05
1.51713e-06
1.43855e-05
1.25436e-06
1.4487e-05
1.10691e-06
1.4584e-05
9.16774e-07
1.46448e-05
9.219e-07
1.47495e-05
3.33409e-07
1.48708e-05
9.69927e-07
1.49691e-05
-1.54081e-07
1.50007e-05
6.79117e-07
1.51551e-05
2.43533e-07
1.52228e-05
-1.28166e-06
1.52645e-05
-3.74615e-07
1.55464e-05
-1.49773e-06
1.57048e-05
-5.36087e-06
-7.7309e-06
1.63621e-05
1.30611e-05
3.21706e-06
1.34518e-05
4.08081e-06
1.36151e-05
2.30643e-06
1.37995e-05
1.25917e-06
1.40147e-05
9.73184e-07
1.41271e-05
1.40475e-06
1.43196e-05
1.06186e-06
1.43897e-05
1.03683e-06
1.45722e-05
7.34262e-07
1.45632e-05
9.30851e-07
1.45852e-05
3.11476e-07
1.48658e-05
6.89241e-07
1.47936e-05
-8.18168e-08
1.49511e-05
5.21566e-07
1.51553e-05
3.9376e-08
1.51007e-05
-1.22704e-06
1.51927e-05
-4.66676e-07
1.55581e-05
-1.86313e-06
1.56218e-05
-5.42452e-06
-7.97353e-06
1.58644e-05
1.30111e-05
2.706e-06
1.34107e-05
3.68122e-06
1.3589e-05
2.12809e-06
1.37903e-05
1.05785e-06
1.39532e-05
8.1027e-07
1.408e-05
1.27796e-06
1.42348e-05
9.07094e-07
1.43224e-05
9.49166e-07
1.45658e-05
4.90948e-07
1.4481e-05
1.0156e-06
1.45314e-05
2.61092e-07
1.47965e-05
4.24162e-07
1.46446e-05
7.00682e-08
1.49363e-05
2.29857e-07
1.50441e-05
-6.84089e-08
1.50042e-05
-1.1871e-06
1.5196e-05
-6.58512e-07
1.54894e-05
-2.15649e-06
1.54766e-05
-5.4118e-06
-8.12079e-06
1.56239e-05
1.29457e-05
2.26025e-06
1.33648e-05
3.26218e-06
1.36075e-05
1.88537e-06
1.37754e-05
8.89925e-07
1.39168e-05
6.68931e-07
1.40422e-05
1.15254e-06
1.41308e-05
8.18495e-07
1.43069e-05
7.73082e-07
1.44849e-05
3.12963e-07
1.44516e-05
1.04889e-06
1.45456e-05
1.67033e-07
1.4632e-05
3.37762e-07
1.46072e-05
9.48761e-08
1.48927e-05
-5.55948e-08
1.49033e-05
-7.90221e-08
1.49847e-05
-1.26857e-06
1.51929e-05
-8.66659e-07
1.53538e-05
-2.31743e-06
1.53161e-05
-5.37403e-06
-8.33444e-06
1.55297e-05
1.28959e-05
1.86433e-06
1.33395e-05
2.81864e-06
1.36431e-05
1.58178e-06
1.37245e-05
8.08486e-07
1.3885e-05
5.08423e-07
1.39806e-05
1.05697e-06
1.40862e-05
7.12876e-07
1.42893e-05
5.6999e-07
1.43785e-05
2.23766e-07
1.44713e-05
9.5604e-07
1.44905e-05
1.47877e-07
1.45161e-05
3.12176e-07
1.463e-05
-1.9084e-08
1.48101e-05
-2.35611e-07
1.48235e-05
-9.25109e-08
1.49687e-05
-1.41375e-06
1.51167e-05
-1.01466e-06
1.52195e-05
-2.42019e-06
1.52379e-05
-5.39249e-06
-8.63252e-06
1.5536e-05
1.28666e-05
1.49769e-06
1.33174e-05
2.36788e-06
1.36038e-05
1.29535e-06
1.36664e-05
7.45923e-07
1.3864e-05
3.10848e-07
1.3948e-05
9.72895e-07
1.40899e-05
5.71057e-07
1.42243e-05
4.3554e-07
1.43086e-05
1.39456e-07
1.4474e-05
7.90681e-07
1.44047e-05
2.17181e-07
1.45409e-05
1.75911e-07
1.46246e-05
-1.02745e-07
1.47203e-05
-3.31317e-07
1.48037e-05
-1.75948e-07
1.49145e-05
-1.52455e-06
1.50227e-05
-1.12284e-06
1.51598e-05
-2.55729e-06
1.52124e-05
-5.44506e-06
-8.9258e-06
1.55057e-05
1.28339e-05
1.16374e-06
1.32731e-05
1.92876e-06
1.35537e-05
1.01471e-06
1.36562e-05
6.43456e-07
1.3849e-05
1.18021e-07
1.39363e-05
8.85621e-07
1.40585e-05
4.48836e-07
1.4158e-05
3.35997e-07
1.4286e-05
1.14827e-08
1.44311e-05
6.45564e-07
1.43866e-05
2.61736e-07
1.45889e-05
-2.64144e-08
1.45656e-05
-7.945e-08
1.46427e-05
-4.08386e-07
1.48298e-05
-3.63045e-07
1.48295e-05
-1.52431e-06
1.49655e-05
-1.25886e-06
1.51319e-05
-2.72359e-06
1.51394e-05
-5.45257e-06
-9.21001e-06
1.54236e-05
1.27978e-05
8.65914e-07
1.32454e-05
1.48116e-06
1.35475e-05
7.1263e-07
1.36647e-05
5.26281e-07
1.38058e-05
-2.30974e-08
1.38969e-05
7.94548e-07
1.40103e-05
3.35426e-07
1.416e-05
1.86305e-07
1.42717e-05
-1.00247e-07
1.43551e-05
5.62168e-07
1.44294e-05
1.8745e-07
1.45563e-05
-1.53283e-07
1.44997e-05
-2.29155e-08
1.46373e-05
-5.46008e-07
1.48275e-05
-5.53223e-07
1.47444e-05
-1.4412e-06
1.49351e-05
-1.44959e-06
1.50832e-05
-2.87163e-06
1.50083e-05
-5.37766e-06
-7.91528e-06
1.37135e-05
1.27844e-05
5.81496e-07
1.32434e-05
1.02218e-06
1.35466e-05
4.09418e-07
1.36398e-05
4.33053e-07
1.37526e-05
-1.35821e-07
1.38702e-05
6.76958e-07
1.40141e-05
1.91507e-07
1.41912e-05
9.15045e-09
1.41956e-05
-1.04602e-07
1.43234e-05
4.34312e-07
1.44582e-05
5.27202e-08
1.44853e-05
-1.80429e-07
1.4492e-05
-2.95792e-08
1.46733e-05
-7.27369e-07
1.47171e-05
-5.97005e-07
1.47297e-05
-1.45375e-06
1.4916e-05
-1.63591e-06
1.502e-05
-2.97565e-06
1.50193e-05
-5.37696e-06
-8.0566e-06
1.51606e-05
1.27842e-05
2.97272e-07
1.32279e-05
5.78543e-07
1.35197e-05
1.17562e-07
1.36204e-05
3.32403e-07
1.37396e-05
-2.55038e-07
1.38782e-05
5.38336e-07
1.40472e-05
2.24918e-08
1.41635e-05
-1.07163e-07
1.41196e-05
-6.06655e-08
1.43676e-05
1.86349e-07
1.44432e-05
-2.29336e-08
1.44308e-05
-1.68061e-07
1.45469e-05
-1.45624e-07
1.46201e-05
-8.00537e-07
1.46502e-05
-6.27114e-07
1.47313e-05
-1.53488e-06
1.48872e-05
-1.7918e-06
1.49888e-05
-3.07723e-06
1.49721e-05
-5.3603e-06
-8.0813e-06
1.49968e-05
1.27764e-05
2.08677e-08
1.32063e-05
1.48673e-07
1.35043e-05
-1.80416e-07
1.36391e-05
1.97522e-07
1.37376e-05
-3.53529e-07
1.38931e-05
3.82899e-07
1.40395e-05
-1.23997e-07
1.41065e-05
-1.74068e-07
1.41431e-05
-9.7355e-08
1.44095e-05
-8.00497e-08
1.43802e-05
6.41843e-09
1.44378e-05
-2.2567e-07
1.45584e-05
-2.6625e-07
1.45576e-05
-7.99713e-07
1.46656e-05
-7.35118e-07
1.47416e-05
-1.6109e-06
1.48488e-05
-1.89894e-06
1.49448e-05
-3.17329e-06
1.49334e-05
-5.34891e-06
-8.13243e-06
1.49846e-05
1.27719e-05
-2.51058e-07
1.31993e-05
-2.78693e-07
1.3513e-05
-4.94147e-07
1.36521e-05
5.84134e-08
1.37271e-05
-4.28484e-07
1.39059e-05
2.04096e-07
1.4e-05
-2.18139e-07
1.41011e-05
-2.75184e-07
1.42178e-05
-2.14004e-07
1.43707e-05
-2.32935e-07
1.43509e-05
2.6185e-08
1.44527e-05
-3.2747e-07
1.45444e-05
-3.57916e-07
1.45628e-05
-8.18161e-07
1.46849e-05
-8.57214e-07
1.47312e-05
-1.65722e-06
1.48232e-05
-1.99087e-06
1.48944e-05
-3.24455e-06
1.48955e-05
-5.34999e-06
-8.25182e-06
1.50149e-05
1.2775e-05
-5.2607e-07
1.32015e-05
-7.05221e-07
1.35309e-05
-8.23524e-07
1.36481e-05
-5.87325e-08
1.37272e-05
-5.07595e-07
1.39091e-05
2.21655e-08
1.39836e-05
-2.92655e-07
1.4158e-05
-4.49584e-07
1.42404e-05
-2.96412e-07
1.43171e-05
-3.096e-07
1.43719e-05
-2.85755e-08
1.44572e-05
-4.12792e-07
1.45634e-05
-4.64136e-07
1.45749e-05
-8.29635e-07
1.46908e-05
-9.73114e-07
1.47104e-05
-1.6769e-06
1.47999e-05
-2.08033e-06
1.48836e-05
-3.32827e-06
1.47927e-05
-5.2591e-06
-6.8824e-06
1.34233e-05
1.27799e-05
-8.05946e-07
1.32194e-05
-1.14473e-06
1.35457e-05
-1.14985e-06
1.36493e-05
-1.623e-07
1.37383e-05
-5.96666e-07
1.39111e-05
-1.50634e-07
1.40077e-05
-3.89172e-07
1.421e-05
-6.51919e-07
1.42105e-05
-2.96902e-07
1.43171e-05
-4.16248e-07
1.43973e-05
-1.08762e-07
1.44815e-05
-4.96955e-07
1.45743e-05
-5.56899e-07
1.45964e-05
-8.51768e-07
1.46727e-05
-1.0494e-06
1.4709e-05
-1.71327e-06
1.48013e-05
-2.17261e-06
1.48953e-05
-3.42229e-06
1.4839e-05
-5.20275e-06
-7.01199e-06
1.49686e-05
1.27954e-05
-1.10138e-06
1.32502e-05
-1.59951e-06
1.35529e-05
-1.45254e-06
1.36598e-05
-2.69209e-07
1.37555e-05
-6.92396e-07
1.39309e-05
-3.26027e-07
1.40461e-05
-5.04331e-07
1.42171e-05
-8.22971e-07
1.421e-05
-2.89735e-07
1.43322e-05
-5.38478e-07
1.44355e-05
-2.12083e-07
1.44967e-05
-5.5818e-07
1.45882e-05
-6.48374e-07
1.46105e-05
-8.74028e-07
1.46552e-05
-1.09408e-06
1.47357e-05
-1.79385e-06
1.48173e-05
-2.25421e-06
1.4878e-05
-3.48296e-06
1.48458e-05
-5.17056e-06
-7.10726e-06
1.49411e-05
1.28232e-05
-1.42461e-06
1.32764e-05
-2.0527e-06
1.35617e-05
-1.73784e-06
1.36848e-05
-3.92285e-07
1.37794e-05
-7.87007e-07
1.39623e-05
-5.08938e-07
1.40734e-05
-6.15434e-07
1.42231e-05
-9.72622e-07
1.42386e-05
-3.05239e-07
1.43603e-05
-6.60181e-07
1.44653e-05
-3.17093e-07
1.45129e-05
-6.05761e-07
1.46148e-05
-7.50311e-07
1.46135e-05
-8.72758e-07
1.46778e-05
-1.1583e-06
1.47771e-05
-1.89323e-06
1.48145e-05
-2.29152e-06
1.48713e-05
-3.53984e-06
1.4875e-05
-5.17421e-06
-7.08176e-06
1.48495e-05
1.28528e-05
-1.77744e-06
1.33003e-05
-2.50013e-06
1.35861e-05
-2.02372e-06
1.3717e-05
-5.23132e-07
1.38108e-05
-8.80796e-07
1.39997e-05
-6.97896e-07
1.41003e-05
-7.16059e-07
1.4245e-05
-1.11728e-06
1.42778e-05
-3.37999e-07
1.43912e-05
-7.7365e-07
1.44964e-05
-4.2223e-07
1.45487e-05
-6.58079e-07
1.46333e-05
-8.34923e-07
1.46423e-05
-8.81755e-07
1.47215e-05
-1.23746e-06
1.47928e-05
-1.96455e-06
1.48179e-05
-2.3166e-06
1.48998e-05
-3.62175e-06
1.48901e-05
-5.16456e-06
-6.97463e-06
1.4783e-05
1.28817e-05
-2.15917e-06
1.33414e-05
-2.9598e-06
1.3622e-05
-2.30431e-06
1.3746e-05
-6.47176e-07
1.38505e-05
-9.85291e-07
1.40434e-05
-8.90742e-07
1.41348e-05
-8.07461e-07
1.42709e-05
-1.25339e-06
1.43267e-05
-3.93829e-07
1.44314e-05
-8.78302e-07
1.4544e-05
-5.34843e-07
1.45824e-05
-6.96481e-07
1.46585e-05
-9.11047e-07
1.46916e-05
-9.14803e-07
1.47454e-05
-1.29132e-06
1.4816e-05
-2.03512e-06
1.48523e-05
-2.3529e-06
1.49302e-05
-3.69961e-06
1.48918e-05
-5.12621e-06
-6.78252e-06
1.46997e-05
1.2922e-05
-2.58121e-06
1.34036e-05
-3.44139e-06
1.3626e-05
-2.52672e-06
1.37735e-05
-7.94667e-07
1.39021e-05
-1.11388e-06
1.40888e-05
-1.07742e-06
1.41762e-05
-8.94847e-07
1.43087e-05
-1.38588e-06
1.43905e-05
-4.75678e-07
1.44835e-05
-9.71272e-07
1.45879e-05
-6.39299e-07
1.46167e-05
-7.25231e-07
1.46969e-05
-9.9127e-07
1.47322e-05
-9.50118e-07
1.47831e-05
-1.34222e-06
1.48674e-05
-2.11937e-06
1.48903e-05
-2.37582e-06
1.49582e-05
-3.76755e-06
1.49102e-05
-5.07815e-06
-6.76022e-06
1.48879e-05
1.29787e-05
-3.05988e-06
1.34694e-05
-3.93208e-06
1.36201e-05
-2.67747e-06
1.38091e-05
-9.83624e-07
1.39604e-05
-1.2652e-06
1.41366e-05
-1.25358e-06
1.42342e-05
-9.92488e-07
1.43584e-05
-1.51006e-06
1.44612e-05
-5.78511e-07
1.45262e-05
-1.03625e-06
1.46259e-05
-7.39044e-07
1.46596e-05
-7.5894e-07
1.47393e-05
-1.07097e-06
1.47877e-05
-9.98481e-07
1.4849e-05
-1.40357e-06
1.49227e-05
-2.19299e-06
1.49292e-05
-2.38238e-06
1.49782e-05
-3.81655e-06
1.49358e-05
-5.03573e-06
-6.75248e-06
1.4928e-05
1.30422e-05
-3.60208e-06
1.35359e-05
-4.42575e-06
1.36506e-05
-2.79219e-06
1.38461e-05
-1.17914e-06
1.40216e-05
-1.44066e-06
1.41962e-05
-1.42819e-06
1.43066e-05
-1.10286e-06
1.44099e-05
-1.61343e-06
1.4524e-05
-6.9258e-07
1.45629e-05
-1.07517e-06
1.46708e-05
-8.46934e-07
1.47178e-05
-8.05929e-07
1.48038e-05
-1.15701e-06
1.48637e-05
-1.05837e-06
1.49248e-05
-1.46468e-06
1.4971e-05
-2.23917e-06
1.49592e-05
-2.3705e-06
1.49623e-05
-3.81968e-06
1.48994e-05
-4.97286e-06
-6.70018e-06
1.48471e-05
1.31106e-05
-4.21269e-06
1.36065e-05
-4.92164e-06
1.36776e-05
-2.86331e-06
1.38875e-05
-1.38903e-06
1.41034e-05
-1.65659e-06
1.427e-05
-1.59476e-06
1.43863e-05
-1.21918e-06
1.44661e-05
-1.69325e-06
1.45857e-05
-8.12169e-07
1.46177e-05
-1.10713e-06
1.47373e-05
-9.66521e-07
1.48022e-05
-8.7089e-07
1.48759e-05
-1.23073e-06
1.49339e-05
-1.11629e-06
1.49759e-05
-1.50675e-06
1.49634e-05
-2.22666e-06
1.49235e-05
-2.33059e-06
1.48338e-05
-3.72993e-06
1.46749e-05
-4.81398e-06
-6.57044e-06
1.45451e-05
1.31877e-05
-4.90041e-06
1.36607e-05
-5.39463e-06
1.37063e-05
-2.90893e-06
1.39718e-05
-1.65449e-06
1.42105e-05
-1.89532e-06
1.43531e-05
-1.73737e-06
1.44811e-05
-1.34714e-06
1.45335e-05
-1.74564e-06
1.4655e-05
-9.33675e-07
1.46908e-05
-1.14298e-06
1.47922e-05
-1.06791e-06
1.48483e-05
-9.26983e-07
1.48684e-05
-1.25084e-06
1.48907e-05
-1.13857e-06
1.48693e-05
-1.48536e-06
1.47633e-05
-2.12067e-06
1.46573e-05
-2.2246e-06
1.44153e-05
-3.48789e-06
1.40849e-05
-4.48355e-06
-6.30681e-06
1.38212e-05
1.32658e-05
-5.66616e-06
1.3694e-05
-5.82289e-06
1.37836e-05
-2.99854e-06
1.41064e-05
-1.97726e-06
1.43247e-05
-2.11358e-06
1.44403e-05
-1.853e-06
1.45633e-05
-1.47011e-06
1.45578e-05
-1.74019e-06
1.46463e-05
-1.02215e-06
1.4639e-05
-1.13575e-06
1.46504e-05
-1.07929e-06
1.46406e-05
-9.1712e-07
1.45627e-05
-1.17293e-06
1.45021e-05
-1.07805e-06
1.43826e-05
-1.36587e-06
1.41705e-05
-1.90856e-06
1.39667e-05
-2.02076e-06
1.35798e-05
-3.10102e-06
1.30638e-05
-3.9675e-06
-5.1051e-06
1.18621e-05
1.33517e-05
-6.51791e-06
1.36913e-05
-6.1624e-06
1.3918e-05
-3.22532e-06
1.42426e-05
-2.30187e-06
1.43781e-05
-2.24906e-06
1.44104e-05
-1.88529e-06
1.44288e-05
-1.48852e-06
1.42968e-05
-1.60812e-06
1.42683e-05
-9.93656e-07
1.41495e-05
-1.01697e-06
1.40332e-05
-9.62995e-07
1.393e-05
-8.13961e-07
1.37578e-05
-1.00072e-06
1.36165e-05
-9.3666e-07
1.34174e-05
-1.16678e-06
1.31321e-05
-1.62334e-06
1.28473e-05
-1.73588e-06
1.23718e-05
-2.62555e-06
1.17847e-05
-3.38044e-06
-4.55429e-06
1.12339e-05
1.34706e-05
-7.48853e-06
1.3762e-05
-6.45383e-06
1.39928e-05
-3.45602e-06
1.41641e-05
-2.47321e-06
1.40735e-05
-2.15847e-06
1.38986e-05
-1.71042e-06
1.37151e-05
-1.30498e-06
1.34309e-05
-1.32395e-06
1.32687e-05
-8.31475e-07
1.30544e-05
-8.02647e-07
1.28571e-05
-7.65709e-07
1.26939e-05
-6.50746e-07
1.24746e-05
-7.81387e-07
1.22887e-05
-7.50779e-07
1.20494e-05
-9.27493e-07
1.17272e-05
-1.30109e-06
1.1394e-05
-1.40271e-06
1.08741e-05
-2.10562e-06
1.02141e-05
-2.72053e-06
-3.543e-06
9.20287e-06
1.35828e-05
-8.57131e-06
1.3673e-05
-6.54403e-06
1.36215e-05
-3.40456e-06
1.34145e-05
-2.26616e-06
1.30101e-05
-1.75414e-06
1.26224e-05
-1.32271e-06
1.22866e-05
-9.69129e-07
1.19224e-05
-9.59795e-07
1.16944e-05
-6.03447e-07
1.14477e-05
-5.55984e-07
1.12279e-05
-5.45884e-07
1.10444e-05
-4.67296e-07
1.08172e-05
-5.54173e-07
1.06174e-05
-5.50918e-07
1.03663e-05
-6.76383e-07
1.00337e-05
-9.6852e-07
9.68002e-06
-1.04903e-06
9.14256e-06
-1.56816e-06
8.46517e-06
-2.04314e-06
-2.65661e-06
7.57878e-06
1.3408e-05
-9.47929e-06
1.29017e-05
-6.03777e-06
1.23244e-05
-2.82719e-06
1.17239e-05
-1.66573e-06
1.11266e-05
-1.15681e-06
1.06544e-05
-8.50475e-07
1.02818e-05
-5.9661e-07
9.92169e-06
-5.99637e-07
9.69005e-06
-3.71805e-07
9.46011e-06
-3.26048e-07
9.25466e-06
-3.40432e-07
9.07914e-06
-2.91781e-07
8.87051e-06
-3.45537e-07
8.67792e-06
-3.58326e-07
8.43733e-06
-4.35798e-07
8.1167e-06
-6.47886e-07
7.76604e-06
-6.98368e-07
7.24456e-06
-1.04668e-06
6.57706e-06
-1.37565e-06
-1.86555e-06
5.78601e-06
1.24235e-05
-9.40277e-06
1.10151e-05
-4.62941e-06
9.97819e-06
-1.79026e-06
9.20614e-06
-8.93687e-07
8.61397e-06
-5.64636e-07
8.18347e-06
-4.19977e-07
7.86347e-06
-2.7661e-07
7.56178e-06
-2.97941e-07
7.36765e-06
-1.77674e-07
7.18682e-06
-1.45219e-07
7.01765e-06
-1.71259e-07
6.87046e-06
-1.44594e-07
6.69855e-06
-1.73625e-07
6.52974e-06
-1.89522e-07
6.31989e-06
-2.25948e-07
6.03068e-06
-3.58668e-07
5.7105e-06
-3.78196e-07
5.23765e-06
-5.73834e-07
4.62228e-06
-7.6027e-07
-1.13504e-06
3.89177e-06
1.011e-05
-7.01273e-06
7.83856e-06
-2.35801e-06
6.70726e-06
-6.58968e-07
6.0651e-06
-2.51532e-07
5.64337e-06
-1.42907e-07
5.34017e-06
-1.1677e-07
5.12959e-06
-6.60308e-08
4.91792e-06
-8.6271e-08
4.78846e-06
-4.8214e-08
4.67525e-06
-3.20151e-08
4.55579e-06
-5.17951e-08
4.45316e-06
-4.19693e-08
4.3314e-06
-5.18664e-08
4.20318e-06
-6.12972e-08
4.04666e-06
-6.94241e-08
3.81321e-06
-1.25218e-07
3.56083e-06
-1.25814e-07
3.18124e-06
-1.94247e-07
2.68459e-06
-2.63625e-07
-4.87249e-07
2.0368e-06
5.48727e-06
3.12926e-06
2.47029e-06
2.21876e-06
2.07586e-06
1.95909e-06
1.89306e-06
1.80678e-06
1.75857e-06
1.72656e-06
1.67476e-06
1.63279e-06
1.58092e-06
1.51963e-06
1.4502e-06
1.32498e-06
1.19917e-06
1.00492e-06
7.413e-07
2.54051e-07
4.3835e-06
-9.57183e-08
-8.12323e-07
6.11121e-06
1.4905e-07
-1.87676e-06
7.72612e-06
-1.71673e-06
1.01817e-07
9.00291e-06
-3.79595e-06
2.51916e-06
1.0374e-05
-6.9758e-06
5.60467e-06
1.13279e-05
-9.80268e-06
8.84882e-06
1.16417e-05
-1.26335e-05
1.23196e-05
1.14028e-05
-1.54393e-05
1.56782e-05
1.0892e-05
-1.70197e-05
1.75305e-05
9.99319e-06
-1.83277e-05
1.92266e-05
9.0158e-06
-1.72802e-05
1.82576e-05
8.04476e-06
-1.60981e-05
1.70691e-05
7.35432e-06
-1.42839e-05
1.49743e-05
6.89939e-06
-9.53653e-06
9.99146e-06
5.91204e-06
-7.20644e-06
8.19379e-06
4.57549e-06
-5.58555e-06
6.9221e-06
4.20611e-06
-1.72056e-06
2.08994e-06
5.51299e-06
-3.65221e-08
-1.27036e-06
6.05909e-06
9.05799e-06
-9.60409e-06
7.08863e-06
1.8541e-05
-1.95706e-05
8.14655e-06
2.15645e-05
-2.26225e-05
8.47308e-06
2.21636e-05
-2.24901e-05
9.13592e-06
2.08169e-05
-2.14797e-05
9.8457e-06
1.88424e-05
-1.95521e-05
1.06019e-05
1.76391e-05
-1.83953e-05
1.14875e-05
1.50834e-05
-1.5969e-05
1.20154e-05
1.1544e-05
-1.20719e-05
1.2566e-05
8.44927e-06
-8.99987e-06
1.32936e-05
4.33181e-06
-5.05943e-06
1.40591e-05
-7.06343e-07
-5.92129e-08
1.44132e-05
-4.31558e-06
3.96156e-06
1.42768e-05
-5.99191e-06
6.12822e-06
1.443e-05
-8.14144e-06
7.98823e-06
1.53105e-05
-1.25919e-05
1.17114e-05
1.62328e-05
-1.89514e-05
1.80291e-05
1.66681e-05
-2.40272e-05
2.3592e-05
1.66413e-05
-2.68259e-05
2.68527e-05
1.62089e-05
-2.82642e-05
2.86967e-05
1.56617e-05
-2.78431e-05
2.83903e-05
1.52015e-05
-2.72275e-05
2.76877e-05
1.47606e-05
-2.68248e-05
2.72657e-05
1.43311e-05
-2.58045e-05
2.6234e-05
1.42411e-05
-2.48799e-05
2.49699e-05
1.42467e-05
-2.45023e-05
2.44967e-05
1.40722e-05
-2.37457e-05
2.39201e-05
1.4031e-05
-2.25324e-05
2.25737e-05
1.41591e-05
-2.17194e-05
2.15913e-05
1.41292e-05
-2.09243e-05
2.09542e-05
1.37157e-05
-1.9757e-05
2.01706e-05
1.31374e-05
-1.79702e-05
1.85485e-05
1.27197e-05
-1.63351e-05
1.67529e-05
1.25657e-05
-1.53873e-05
1.55413e-05
1.25986e-05
-1.47031e-05
1.46702e-05
1.27872e-05
-1.3815e-05
1.36264e-05
1.31506e-05
-1.29089e-05
1.25455e-05
1.35016e-05
-1.18174e-05
1.14664e-05
1.37184e-05
-1.00677e-05
9.85091e-06
1.38683e-05
-7.34997e-06
7.20009e-06
1.40382e-05
-4.74736e-06
4.57749e-06
1.42506e-05
-2.59262e-06
2.38015e-06
1.43825e-05
4.33299e-07
-5.65141e-07
1.43616e-05
3.67222e-06
-3.65139e-06
1.41698e-05
6.16682e-06
-5.97498e-06
1.38555e-05
8.16641e-06
-7.85212e-06
1.3581e-05
1.03462e-05
-1.00717e-05
1.33752e-05
1.23348e-05
-1.2129e-05
1.30791e-05
1.35052e-05
-1.32092e-05
1.26464e-05
1.4673e-05
-1.42403e-05
1.21819e-05
1.35618e-05
-1.30972e-05
1.15893e-05
1.25026e-05
-1.191e-05
1.11024e-05
1.35288e-05
-1.30419e-05
1.06026e-05
1.48764e-05
-1.43765e-05
1.01854e-05
1.54733e-05
-1.50562e-05
9.72342e-06
1.54264e-05
-1.49644e-05
9.21056e-06
1.65745e-05
-1.60616e-05
9.06984e-06
1.49081e-05
-1.47674e-05
8.78054e-06
1.36805e-05
-1.33912e-05
8.57243e-06
1.34033e-05
-1.31952e-05
8.62355e-06
1.29356e-05
-1.29867e-05
8.42578e-06
1.42202e-05
-1.40224e-05
8.25128e-06
1.23325e-05
-1.2158e-05
8.4347e-06
9.55832e-06
-9.74175e-06
8.62107e-06
1.06257e-05
-1.08121e-05
8.68647e-06
1.1877e-05
-1.19424e-05
8.76883e-06
1.07291e-05
-1.08114e-05
9.07532e-06
1.05766e-05
-1.08831e-05
9.37607e-06
1.23047e-05
-1.26054e-05
9.17137e-06
1.22174e-05
-1.20127e-05
8.82278e-06
9.20332e-06
-8.85473e-06
9.16915e-06
5.96752e-06
-6.31389e-06
1.02853e-05
5.85594e-06
-6.97212e-06
1.14547e-05
8.36882e-06
-9.53821e-06
1.22817e-05
1.09987e-05
-1.18257e-05
1.26028e-05
1.21452e-05
-1.24662e-05
1.27088e-05
1.17488e-05
-1.18548e-05
1.26985e-05
1.13721e-05
-1.13618e-05
1.25478e-05
1.08552e-05
-1.07045e-05
1.23541e-05
1.03791e-05
-1.01854e-05
1.20406e-05
8.76566e-06
-8.45216e-06
1.1618e-05
6.52245e-06
-6.09982e-06
1.12224e-05
2.27416e-06
-1.87856e-06
1.13502e-05
-1.36068e-06
1.23287e-06
1.12884e-05
-3.55702e-06
3.6188e-06
1.10468e-05
-6.90868e-06
7.15028e-06
1.09282e-05
-1.14771e-05
1.15957e-05
1.10424e-05
-1.40878e-05
1.39736e-05
1.09683e-05
-1.47058e-05
1.47799e-05
1.07948e-05
-1.96107e-05
1.97842e-05
1.05722e-05
-2.72684e-05
2.74911e-05
1.02657e-05
-3.07576e-05
3.1064e-05
1.00796e-05
-3.04845e-05
3.06705e-05
9.84073e-06
-2.89701e-05
2.9209e-05
9.6169e-06
-2.77363e-05
2.79601e-05
9.97887e-06
-2.67171e-05
2.63551e-05
1.06871e-05
-2.67447e-05
2.60364e-05
1.11608e-05
-2.70794e-05
2.66058e-05
1.14633e-05
-2.78557e-05
2.75532e-05
1.16167e-05
-2.66804e-05
2.6527e-05
1.14542e-05
-2.29009e-05
2.30634e-05
1.10789e-05
-1.87863e-05
1.91617e-05
1.07636e-05
-1.61178e-05
1.64331e-05
1.05876e-05
-1.48384e-05
1.50143e-05
1.05222e-05
-1.32209e-05
1.32863e-05
1.04472e-05
-9.87853e-06
9.95358e-06
1.01575e-05
-5.44999e-06
5.73964e-06
9.7521e-06
-1.66297e-06
2.0684e-06
9.36232e-06
1.282e-06
-8.92214e-07
8.98493e-06
4.51041e-06
-4.13302e-06
8.50829e-06
9.15454e-06
-8.67791e-06
8.04807e-06
1.45301e-05
-1.40699e-05
7.80327e-06
1.84712e-05
-1.82264e-05
7.66948e-06
2.007e-05
-1.99362e-05
7.43487e-06
2.07413e-05
-2.05067e-05
7.07512e-06
2.18416e-05
-2.14819e-05
6.65605e-06
2.30486e-05
-2.26296e-05
6.4771e-06
2.31638e-05
-2.29848e-05
6.53242e-06
2.24294e-05
-2.24847e-05
6.55471e-06
2.06413e-05
-2.06636e-05
6.62607e-06
1.84769e-05
-1.85482e-05
6.52712e-06
1.74723e-05
-1.73733e-05
6.48019e-06
1.73535e-05
-1.73066e-05
6.41376e-06
1.79185e-05
-1.78521e-05
6.42104e-06
1.77586e-05
-1.77659e-05
6.54936e-06
1.70188e-05
-1.71471e-05
6.64244e-06
1.59745e-05
-1.60676e-05
6.74699e-06
1.48479e-05
-1.49524e-05
6.87368e-06
1.385e-05
-1.39767e-05
7.01255e-06
1.34726e-05
-1.36115e-05
7.14989e-06
1.29132e-05
-1.30505e-05
7.23203e-06
1.31678e-05
-1.325e-05
7.46322e-06
1.26292e-05
-1.28604e-05
7.766e-06
1.28149e-05
-1.31177e-05
8.0835e-06
1.23621e-05
-1.26796e-05
8.21809e-06
1.31023e-05
-1.32369e-05
8.63943e-06
1.043e-05
-1.08513e-05
8.57855e-06
1.04377e-05
-1.03768e-05
8.84012e-06
7.76865e-06
-8.03022e-06
8.4523e-06
7.18629e-06
-6.79847e-06
8.35847e-06
2.92193e-06
-2.8281e-06
8.0445e-06
1.47911e-06
-1.16514e-06
8.13631e-06
-3.19049e-06
3.09867e-06
8.1438e-06
-3.13606e-06
3.12857e-06
8.58657e-06
-8.24937e-06
7.80661e-06
8.74462e-06
-8.67453e-06
8.51648e-06
9.14851e-06
-1.23501e-05
1.19462e-05
9.1576e-06
-1.15249e-05
1.15158e-05
9.6937e-06
-1.40467e-05
1.35106e-05
9.86003e-06
-1.39793e-05
1.3813e-05
9.98786e-06
-1.42234e-05
1.40956e-05
9.73372e-06
-1.21017e-05
1.23558e-05
9.70339e-06
-1.08044e-05
1.08348e-05
9.61955e-06
-9.17646e-06
9.2603e-06
9.8269e-06
-9.32045e-06
9.11311e-06
9.81421e-06
-9.05396e-06
9.06665e-06
9.92953e-06
-9.31176e-06
9.19643e-06
1.02145e-05
-9.21543e-06
8.93048e-06
1.05012e-05
-8.8686e-06
8.58185e-06
1.06801e-05
-8.44467e-06
8.26576e-06
1.09039e-05
-7.72429e-06
7.50053e-06
1.10942e-05
-6.4175e-06
6.22723e-06
1.10513e-05
-5.19405e-06
5.23693e-06
1.10383e-05
-3.92031e-06
3.9333e-06
1.09565e-05
-2.30981e-06
2.39162e-06
1.0891e-05
-1.06228e-06
1.12775e-06
1.11743e-05
1.82939e-07
-4.66186e-07
1.14303e-05
2.29941e-06
-2.55542e-06
1.16053e-05
4.57908e-06
-4.75407e-06
1.16808e-05
7.50065e-06
-7.57619e-06
1.14162e-05
1.01281e-05
-9.8635e-06
1.10076e-05
1.18582e-05
-1.14496e-05
1.04846e-05
1.32919e-05
-1.27689e-05
1.01738e-05
1.44506e-05
-1.41397e-05
9.74766e-06
1.59646e-05
-1.55385e-05
9.08361e-06
1.70245e-05
-1.63605e-05
8.70463e-06
1.7665e-05
-1.7286e-05
8.49036e-06
1.93407e-05
-1.91264e-05
7.87263e-06
2.18611e-05
-2.12433e-05
6.87212e-06
2.40094e-05
-2.30089e-05
6.41949e-06
2.57567e-05
-2.53041e-05
3.50646e-05
-3.46364e-05
5.99131e-06
7.44044e-06
-9.44584e-07
8.62183e-06
-1.03234e-06
9.77683e-06
-2.87172e-06
1.09602e-05
-4.97935e-06
1.20063e-05
-8.02183e-06
1.25412e-05
-1.03376e-05
1.26585e-05
-1.27508e-05
1.23325e-05
-1.51133e-05
1.16682e-05
-1.63554e-05
1.05685e-05
-1.7228e-05
9.4783e-06
-1.619e-05
8.4785e-06
-1.50983e-05
7.60563e-06
-1.3411e-05
7.13544e-06
-9.06634e-06
6.47874e-06
-6.54975e-06
5.0353e-06
-4.14211e-06
4.27698e-06
-9.62239e-07
5.35658e-06
-1.11612e-06
6.25808e-06
8.15648e-06
7.13429e-06
1.76648e-05
8.43583e-06
2.0263e-05
9.00241e-06
2.1597e-05
9.66872e-06
2.01506e-05
1.0336e-05
1.81751e-05
1.11214e-05
1.68536e-05
1.20021e-05
1.42028e-05
1.25676e-05
1.09785e-05
1.32675e-05
7.74937e-06
1.41329e-05
3.46637e-06
1.49015e-05
-1.47491e-06
1.506e-05
-4.47415e-06
1.48983e-05
-5.8302e-06
1.52292e-05
-8.47232e-06
1.618e-05
-1.35427e-05
1.69905e-05
-1.97618e-05
1.72175e-05
-2.42543e-05
1.69823e-05
-2.65907e-05
1.64126e-05
-2.76945e-05
1.58078e-05
-2.72383e-05
1.53579e-05
-2.67776e-05
1.49127e-05
-2.63796e-05
1.44928e-05
-2.53846e-05
1.44441e-05
-2.48313e-05
1.44419e-05
-2.45e-05
1.42433e-05
-2.3547e-05
1.41908e-05
-2.248e-05
1.41981e-05
-2.17267e-05
1.39126e-05
-2.06388e-05
1.32554e-05
-1.90998e-05
1.25814e-05
-1.72962e-05
1.21567e-05
-1.59104e-05
1.19797e-05
-1.52103e-05
1.20227e-05
-1.47462e-05
1.22986e-05
-1.40909e-05
1.27226e-05
-1.33329e-05
1.30954e-05
-1.21901e-05
1.3321e-05
-1.02933e-05
1.34911e-05
-7.52002e-06
1.36549e-05
-4.91117e-06
1.37961e-05
-2.73385e-06
1.38829e-05
3.46545e-07
1.38883e-05
3.66677e-06
1.37753e-05
6.27982e-06
1.35297e-05
8.41197e-06
1.32863e-05
1.05897e-05
1.31146e-05
1.25065e-05
1.28368e-05
1.3783e-05
1.246e-05
1.50498e-05
1.20432e-05
1.39786e-05
1.14357e-05
1.311e-05
1.09458e-05
1.40187e-05
1.03892e-05
1.5433e-05
9.99159e-06
1.5871e-05
9.50329e-06
1.59147e-05
9.00132e-06
1.70765e-05
8.90551e-06
1.50039e-05
8.61229e-06
1.39737e-05
8.43161e-06
1.3584e-05
8.47055e-06
1.28966e-05
8.30583e-06
1.43849e-05
8.16587e-06
1.24725e-05
8.33105e-06
9.39315e-06
8.55153e-06
1.04052e-05
8.63761e-06
1.17909e-05
8.69083e-06
1.06759e-05
9.00889e-06
1.02586e-05
9.41908e-06
1.18945e-05
9.32264e-06
1.23139e-05
8.93764e-06
9.58832e-06
9.08414e-06
5.82101e-06
1.00646e-05
4.87544e-06
1.12757e-05
7.15779e-06
1.22535e-05
1.00208e-05
1.27353e-05
1.16634e-05
1.29219e-05
1.15621e-05
1.30075e-05
1.12865e-05
1.29436e-05
1.09191e-05
1.28342e-05
1.04885e-05
1.25941e-05
9.00576e-06
1.22146e-05
6.90198e-06
1.17623e-05
2.72641e-06
1.18192e-05
-1.4175e-06
1.18141e-05
-3.55194e-06