/*--------------------------------*- C++ -*----------------------------------*\
| =========                 |                                                 |
| \\      /  F ield         | OpenFOAM: The Open Source CFD Toolbox           |
|  \\    /   O peration     | Version:  2.4.0                                 |
|   \\  /    A nd           | Web:      www.OpenFOAM.org                      |
|    \\/     M anipulation  |                                                 |
\*---------------------------------------------------------------------------*/
FoamFile
{
    version     2.0;
    format      ascii;
    class       volScalarField;
    location    "0.181";
    object      nuSgs;
}
// * * * * * * * * * * * * * * * * * * * * * * * * * * * * * * * * * * * * * //

dimensions      [0 2 -1 0 0 0 0];

internalField   nonuniform List<scalar> 
17600
(
0.00101262
0.000905085
0.000751426
0.000659758
0.000606782
0.000571925
0.000543123
0.000526737
0.000503039
0.000496385
0.000481767
0.000474186
0.000467624
0.000456475
0.000456949
0.000442609
0.000443886
0.000441534
0.000425958
0.000420657
0.00070522
0.000828505
0.000802599
0.000747234
0.000697633
0.000660145
0.000627755
0.000609688
0.000581607
0.000573862
0.000556845
0.000546078
0.000540865
0.000526148
0.000526369
0.000512326
0.000513368
0.000508844
0.000495233
0.000495538
0.000381781
0.000603321
0.000663402
0.000661323
0.000644372
0.000619988
0.000594073
0.00058107
0.000556769
0.000549255
0.000535136
0.000523116
0.000519849
0.000505938
0.000505775
0.000494179
0.000494568
0.000488939
0.000481373
0.00047907
0.000151324
0.000365087
0.000459519
0.000507072
0.000525677
0.000528069
0.00052087
0.000516693
0.000503888
0.000497557
0.000489891
0.000478558
0.000477275
0.000466859
0.000466753
0.000458031
0.000457894
0.000453512
0.000448079
0.000445486
5.35985e-05
0.000176643
0.000264256
0.000326469
0.000367723
0.000400657
0.000409165
0.000422087
0.000423582
0.00042255
0.000422819
0.000418372
0.000418741
0.000413534
0.000414298
0.000409953
0.000409147
0.0004079
0.000403746
0.00040118
1.74145e-05
7.1637e-05
0.000124457
0.000172474
0.000208321
0.000256492
0.000275251
0.000298581
0.000318953
0.00032383
0.000334983
0.000337579
0.0003432
0.000343657
0.000346727
0.000348608
0.000348235
0.000349835
0.000349427
0.000348416
5.54372e-06
2.71141e-05
4.96159e-05
7.46107e-05
9.454e-05
0.000132342
0.00015389
0.000171775
0.0002037
0.000212279
0.000228633
0.000240909
0.000248126
0.000257473
0.000262438
0.000273144
0.000274506
0.000277906
0.000284575
0.000284183
2.28922e-06
1.00494e-05
1.8916e-05
2.69581e-05
3.58471e-05
5.43741e-05
7.10065e-05
8.11715e-05
0.000105103
0.00011424
0.000128476
0.00014491
0.000151053
0.000163214
0.00016941
0.000185402
0.00018875
0.000195806
0.000207064
0.000208686
1.74302e-06
4.30802e-06
7.83728e-06
9.64344e-06
1.22864e-05
1.86803e-05
2.69796e-05
3.17741e-05
4.44604e-05
4.991e-05
5.839e-05
7.14679e-05
7.5837e-05
8.45919e-05
8.95401e-05
0.000104352
0.000107283
0.00011704
0.000124103
0.000130854
1.70012e-06
3.08563e-06
4.58783e-06
4.78653e-06
5.02447e-06
6.30577e-06
9.24263e-06
1.10864e-05
1.65761e-05
1.87386e-05
2.22632e-05
2.87468e-05
3.10446e-05
3.53673e-05
3.8298e-05
4.77446e-05
4.94932e-05
5.67816e-05
6.12644e-05
6.57304e-05
1.67538e-06
2.61196e-06
3.76271e-06
3.80988e-06
3.41679e-06
3.40286e-06
3.7032e-06
4.273e-06
6.59812e-06
7.70584e-06
8.70244e-06
1.05628e-05
1.12056e-05
1.23811e-05
1.35134e-05
1.78193e-05
1.85682e-05
2.28659e-05
2.54898e-05
2.54593e-05
1.59913e-06
2.00841e-06
2.76217e-06
3.14622e-06
3.09535e-06
3.0794e-06
2.99019e-06
2.97817e-06
3.44075e-06
4.13904e-06
4.54438e-06
5.15148e-06
5.20071e-06
5.252e-06
5.3952e-06
6.43419e-06
6.58156e-06
8.17876e-06
8.82264e-06
1.00862e-05
1.54189e-06
1.77739e-06
2.15236e-06
2.88332e-06
3.08671e-06
3.11561e-06
2.97434e-06
2.66351e-06
2.65627e-06
2.77783e-06
3.43855e-06
4.45617e-06
4.50783e-06
4.39351e-06
3.97047e-06
3.7292e-06
3.66109e-06
3.76924e-06
4.0939e-06
8.76901e-06
1.53116e-06
1.73914e-06
2.17326e-06
2.80197e-06
2.87141e-06
2.80162e-06
2.63129e-06
2.499e-06
2.48339e-06
2.57446e-06
3.13481e-06
3.81579e-06
3.83818e-06
3.70099e-06
3.36161e-06
3.17107e-06
3.25429e-06
3.32332e-06
3.74541e-06
5.38643e-06
1.53183e-06
1.71328e-06
2.15015e-06
2.36466e-06
2.35291e-06
2.35941e-06
2.46972e-06
2.50217e-06
2.53144e-06
2.56668e-06
2.59609e-06
2.73175e-06
2.84298e-06
2.93751e-06
2.93272e-06
3.0433e-06
3.16891e-06
3.15015e-06
3.51684e-06
4.04365e-06
1.52026e-06
1.70905e-06
1.9183e-06
2.02968e-06
2.24809e-06
2.41739e-06
2.45703e-06
2.42577e-06
2.42111e-06
2.35452e-06
2.32701e-06
2.36557e-06
2.5965e-06
2.83458e-06
2.83724e-06
2.92653e-06
2.84421e-06
2.81845e-06
2.94456e-06
3.90937e-06
1.51085e-06
1.68215e-06
1.87071e-06
2.08837e-06
2.28041e-06
2.30167e-06
2.30158e-06
2.29825e-06
2.31984e-06
2.30228e-06
2.31282e-06
2.4053e-06
2.57252e-06
2.59641e-06
2.61023e-06
2.60195e-06
2.60857e-06
2.89181e-06
2.92761e-06
3.51485e-06
1.50887e-06
1.6734e-06
1.89352e-06
2.09618e-06
2.13447e-06
2.18487e-06
2.20669e-06
2.34704e-06
2.3778e-06
2.36094e-06
2.34548e-06
2.36214e-06
2.43397e-06
2.45945e-06
2.49963e-06
2.5286e-06
2.64636e-06
2.77033e-06
2.97219e-06
3.2938e-06
1.51064e-06
1.68226e-06
1.79232e-06
2.0069e-06
2.14959e-06
2.18662e-06
2.25978e-06
2.25511e-06
2.26752e-06
2.26389e-06
2.26673e-06
2.31346e-06
2.41712e-06
2.44307e-06
2.44492e-06
2.44546e-06
2.51728e-06
2.68375e-06
2.71439e-06
3.6872e-06
1.50777e-06
1.64402e-06
1.80535e-06
2.09328e-06
2.13281e-06
2.14611e-06
2.1501e-06
2.15078e-06
2.24306e-06
2.2698e-06
2.26691e-06
2.27778e-06
2.29601e-06
2.32993e-06
2.33468e-06
2.35849e-06
2.38839e-06
2.53486e-06
2.79114e-06
3.13668e-06
1.5068e-06
1.64478e-06
1.95177e-06
2.02845e-06
2.01419e-06
2.0086e-06
2.07458e-06
2.19275e-06
2.2195e-06
2.20938e-06
2.16646e-06
2.165e-06
2.19955e-06
2.25501e-06
2.26313e-06
2.28086e-06
2.38391e-06
2.48523e-06
2.65542e-06
2.76994e-06
1.51012e-06
1.73851e-06
1.87677e-06
1.89285e-06
1.97891e-06
2.13359e-06
2.19604e-06
2.18715e-06
2.15917e-06
2.12885e-06
2.12429e-06
2.15615e-06
2.23357e-06
2.23743e-06
2.24182e-06
2.27733e-06
2.29036e-06
2.34797e-06
2.38086e-06
2.81601e-06
1.51247e-06
1.74391e-06
1.81155e-06
1.95895e-06
2.1666e-06
2.20976e-06
2.19807e-06
2.13822e-06
2.12889e-06
2.15015e-06
2.20673e-06
2.26695e-06
2.26547e-06
2.25542e-06
2.2562e-06
2.32452e-06
2.33413e-06
2.36021e-06
2.50151e-06
2.51618e-06
1.51935e-06
1.69396e-06
1.87187e-06
2.14951e-06
2.20128e-06
2.16563e-06
2.15358e-06
2.15274e-06
2.24261e-06
2.31974e-06
2.3528e-06
2.35909e-06
2.32715e-06
2.3125e-06
2.36849e-06
2.3955e-06
2.40451e-06
2.50168e-06
2.51732e-06
2.68558e-06
1.52397e-06
1.73474e-06
1.98513e-06
2.14119e-06
2.13518e-06
2.13637e-06
2.21162e-06
2.37772e-06
2.4669e-06
2.46882e-06
2.45746e-06
2.4113e-06
2.3815e-06
2.43402e-06
2.54993e-06
2.56473e-06
2.61999e-06
2.69164e-06
2.67866e-06
2.79213e-06
1.53237e-06
1.77581e-06
2.00968e-06
2.07841e-06
2.18168e-06
2.3206e-06
2.48742e-06
2.58817e-06
2.59835e-06
2.58342e-06
2.5449e-06
2.50288e-06
2.51746e-06
2.73106e-06
2.77518e-06
2.78928e-06
2.87901e-06
2.90071e-06
2.90643e-06
2.95273e-06
1.54276e-06
1.78066e-06
2.0777e-06
2.13259e-06
2.36755e-06
2.53302e-06
2.70373e-06
2.78939e-06
2.78687e-06
2.75168e-06
2.69347e-06
2.67277e-06
2.77389e-06
3.01887e-06
3.05822e-06
3.13584e-06
3.29602e-06
3.33815e-06
3.45664e-06
3.85585e-06
1.55301e-06
1.85302e-06
2.05596e-06
2.20571e-06
2.72921e-06
2.88081e-06
3.02111e-06
3.02642e-06
2.96929e-06
2.91339e-06
2.89992e-06
2.93485e-06
3.2394e-06
3.60402e-06
3.71729e-06
4.03813e-06
4.32983e-06
4.72662e-06
5.38676e-06
6.5459e-06
1.61685e-06
1.83993e-06
2.12804e-06
2.60267e-06
3.34834e-06
3.32244e-06
3.44118e-06
3.38082e-06
3.36737e-06
3.45208e-06
3.76095e-06
4.05244e-06
4.84219e-06
5.80167e-06
6.21227e-06
7.43094e-06
8.65321e-06
1.08176e-05
1.30073e-05
1.77273e-05
1.6263e-06
1.93604e-06
2.46083e-06
3.56665e-06
4.12819e-06
4.11203e-06
4.65699e-06
4.87962e-06
5.26138e-06
6.70597e-06
8.05653e-06
8.98385e-06
1.13716e-05
1.4435e-05
1.57999e-05
1.97056e-05
2.30369e-05
2.9149e-05
3.39454e-05
4.4765e-05
1.65509e-06
2.36423e-06
3.42875e-06
5.5538e-06
6.25022e-06
6.93072e-06
9.94325e-06
1.17641e-05
1.37062e-05
1.92445e-05
2.27649e-05
2.54583e-05
3.17018e-05
3.92254e-05
4.23991e-05
5.08633e-05
5.70244e-05
6.89453e-05
7.66494e-05
9.72022e-05
1.77049e-06
4.10756e-06
6.73846e-06
1.13814e-05
1.44851e-05
1.78316e-05
2.74945e-05
3.40123e-05
3.92334e-05
5.24296e-05
6.01929e-05
6.56231e-05
7.79527e-05
9.06331e-05
9.57942e-05
0.000108934
0.000117727
0.000134168
0.000143733
0.000170311
2.34716e-06
1.00084e-05
1.739e-05
2.92751e-05
4.05124e-05
4.96814e-05
7.25348e-05
8.60257e-05
9.61347e-05
0.000118973
0.0001301
0.000137945
0.000156156
0.00016997
0.000176161
0.000191091
0.000200906
0.000215402
0.000224058
0.000245766
5.58368e-06
2.67944e-05
4.76849e-05
7.63585e-05
0.000103321
0.000121335
0.000160146
0.000175991
0.000192855
0.000218411
0.000228253
0.00023671
0.000254372
0.000262863
0.000267651
0.000278726
0.000285175
0.00029372
0.000299261
0.000312576
1.74377e-05
7.03646e-05
0.000124074
0.000173619
0.000215687
0.00024469
0.000285009
0.00029647
0.000313891
0.000328135
0.000333489
0.000337478
0.000346277
0.000347835
0.000349908
0.000353331
0.000356245
0.000358469
0.000361281
0.000366029
5.36848e-05
0.000172985
0.000266047
0.000327221
0.000370514
0.00039488
0.000415787
0.000418031
0.000423758
0.000423281
0.000422453
0.00041965
0.000419496
0.000416299
0.000415437
0.000412696
0.000412218
0.000410125
0.000409301
0.000407533
0.000151647
0.000363625
0.0004613
0.00050696
0.000526644
0.000526468
0.000523226
0.000512823
0.000507405
0.000494676
0.000489999
0.000480533
0.000476326
0.000468039
0.000465484
0.000457824
0.000455145
0.000448963
0.000444101
0.000438594
0.000382626
0.000602179
0.000664584
0.000661231
0.000644703
0.000618823
0.000595981
0.000575926
0.000563251
0.000543255
0.000536909
0.000523429
0.000516459
0.000505775
0.00050166
0.000489846
0.000485371
0.000474961
0.000466898
0.000455922
0.000705778
0.000827706
0.000803543
0.000746124
0.000698403
0.000660005
0.000628362
0.000604925
0.000588679
0.000566166
0.000559285
0.000544144
0.000536032
0.000523565
0.00051863
0.000503924
0.000497731
0.00048333
0.000473142
0.000455434
0.00101313
0.000904369
0.000752759
0.000658264
0.000607037
0.000572194
0.000543465
0.00052236
0.000508642
0.000489742
0.000483124
0.000470457
0.00046372
0.000450829
0.000446367
0.000432447
0.000424989
0.000409001
0.000398522
0.000376381
0.000205313
0.000178571
0.000172299
0.000151191
0.000118666
9.45703e-05
9.24172e-05
9.16129e-05
8.61321e-05
8.27727e-05
7.5875e-05
7.29454e-05
7.38804e-05
7.73395e-05
7.68317e-05
7.46203e-05
6.71558e-05
6.19821e-05
6.17198e-05
6.57775e-05
8.59573e-05
9.89302e-05
0.000100228
9.67967e-05
8.22892e-05
5.2772e-05
3.37972e-05
2.17076e-05
1.35102e-05
9.47939e-06
7.94174e-06
6.45575e-06
5.69991e-06
5.68775e-06
5.78262e-06
6.43782e-06
9.15873e-06
1.49864e-05
2.55274e-05
4.41712e-05
5.82677e-05
6.50172e-05
6.66248e-05
6.63818e-05
6.54861e-05
6.39979e-05
6.28572e-05
6.19582e-05
5.94666e-05
5.7244e-05
5.23455e-05
4.63194e-05
3.86379e-05
3.0708e-05
2.6217e-05
2.27287e-05
2.03568e-05
1.99348e-05
1.96e-05
1.8312e-05
1.77575e-05
1.80421e-05
1.96885e-05
2.24992e-05
3.78078e-05
5.26449e-05
5.45654e-05
5.3276e-05
4.57217e-05
3.93059e-05
3.68181e-05
3.71074e-05
4.63632e-05
5.56499e-05
5.62848e-05
4.88956e-05
3.9289e-05
3.34088e-05
3.17158e-05
3.1943e-05
3.17613e-05
3.05281e-05
3.02484e-05
3.09803e-05
3.22815e-05
3.36324e-05
3.73141e-05
4.80557e-05
6.14422e-05
6.848e-05
6.86289e-05
6.4609e-05
5.47234e-05
4.69154e-05
4.3552e-05
4.22995e-05
4.136e-05
4.14548e-05
4.22258e-05
4.22159e-05
4.1372e-05
3.79619e-05
3.40749e-05
3.30889e-05
3.3195e-05
3.25756e-05
2.95138e-05
2.77571e-05
2.75485e-05
2.81489e-05
2.96014e-05
3.02008e-05
3.04692e-05
3.13599e-05
3.21202e-05
3.36091e-05
3.6146e-05
5.21671e-05
7.92255e-05
8.43598e-05
8.26122e-05
7.40583e-05
6.24059e-05
5.32331e-05
4.38915e-05
3.74219e-05
3.50159e-05
3.27106e-05
3.25683e-05
3.30759e-05
3.38976e-05
3.44989e-05
3.51084e-05
3.78658e-05
3.91832e-05
3.89538e-05
3.86836e-05
3.99522e-05
4.15535e-05
4.219e-05
4.24996e-05
4.2905e-05
4.30159e-05
4.29146e-05
4.27883e-05
4.07594e-05
3.53336e-05
3.22538e-05
2.89828e-05
2.62686e-05
2.40239e-05
2.26855e-05
2.21263e-05
2.18009e-05
2.19166e-05
2.51353e-05
2.86566e-05
2.88427e-05
2.83682e-05
2.84299e-05
2.93692e-05
3.07161e-05
3.33669e-05
3.78858e-05
4.3849e-05
4.6883e-05
5.03622e-05
5.13096e-05
5.18185e-05
5.15746e-05
4.88776e-05
4.19451e-05
3.51716e-05
2.93076e-05
2.58754e-05
2.453e-05
2.36345e-05
2.34982e-05
2.37558e-05
2.45762e-05
2.62208e-05
2.82467e-05
2.96557e-05
3.04743e-05
3.17872e-05
3.48422e-05
4.24017e-05
6.10142e-05
6.89816e-05
6.89523e-05
5.84381e-05
4.02649e-05
2.80805e-05
2.19849e-05
2.01275e-05
1.99706e-05
2.13304e-05
2.66162e-05
4.07825e-05
0.00012115
0.000240393
0.000206729
0.000191022
0.000181441
0.000165636
0.000147192
0.000124129
0.000101988
8.73463e-05
8.13298e-05
7.37418e-05
6.89701e-05
6.89253e-05
7.17125e-05
7.18222e-05
6.92483e-05
6.42308e-05
6.42124e-05
6.81206e-05
8.55157e-05
0.000101514
0.000102111
9.91849e-05
8.6194e-05
5.74034e-05
3.70241e-05
2.41443e-05
1.5545e-05
1.00582e-05
8.06004e-06
7.22009e-06
5.92714e-06
5.58936e-06
5.68966e-06
5.95164e-06
7.32347e-06
1.16358e-05
2.02355e-05
3.57032e-05
5.69022e-05
6.59935e-05
6.82555e-05
6.81082e-05
6.70407e-05
6.51514e-05
6.37404e-05
6.27493e-05
6.19289e-05
6.05113e-05
5.88957e-05
5.51238e-05
5.03301e-05
4.27663e-05
3.40726e-05
2.88513e-05
2.41487e-05
2.08054e-05
2.02018e-05
1.99146e-05
1.85809e-05
1.78801e-05
1.80967e-05
1.96241e-05
2.21908e-05
3.60342e-05
5.24254e-05
5.47327e-05
5.34153e-05
4.6366e-05
4.08207e-05
3.91327e-05
4.00138e-05
4.84441e-05
5.48421e-05
5.50085e-05
4.78686e-05
3.89519e-05
3.34228e-05
3.16925e-05
3.15419e-05
3.12002e-05
3.01047e-05
3.00371e-05
3.13332e-05
3.28406e-05
3.41001e-05
3.73891e-05
4.84984e-05
6.18233e-05
6.83621e-05
6.84744e-05
6.45746e-05
5.47835e-05
4.69886e-05
4.3412e-05
4.15574e-05
4.13025e-05
4.14679e-05
4.26066e-05
4.26327e-05
4.16234e-05
3.71511e-05
3.30851e-05
3.23899e-05
3.25616e-05
3.16849e-05
2.85296e-05
2.72376e-05
2.71525e-05
2.7515e-05
2.88414e-05
2.95398e-05
3.00197e-05
3.09692e-05
3.17557e-05
3.34331e-05
3.58849e-05
5.27105e-05
7.8499e-05
8.32789e-05
8.11154e-05
7.10922e-05
5.86209e-05
4.97999e-05
4.18827e-05
3.68296e-05
3.46627e-05
3.29975e-05
3.40225e-05
3.5031e-05
3.51919e-05
3.48383e-05
3.50229e-05
3.75299e-05
3.89221e-05
3.88358e-05
3.879e-05
4.05835e-05
4.23246e-05
4.29654e-05
4.30469e-05
4.31645e-05
4.31334e-05
4.27841e-05
4.24498e-05
4.10376e-05
3.62281e-05
3.28825e-05
2.92861e-05
2.62902e-05
2.36834e-05
2.22575e-05
2.18017e-05
2.1432e-05
2.15384e-05
2.30293e-05
2.67395e-05
2.74877e-05
2.72079e-05
2.70549e-05
2.76125e-05
2.91268e-05
3.30248e-05
3.95241e-05
4.4531e-05
4.78024e-05
5.1599e-05
5.20988e-05
5.27359e-05
5.24812e-05
4.91553e-05
4.18973e-05
3.49822e-05
2.89122e-05
2.48463e-05
2.29283e-05
2.23239e-05
2.23202e-05
2.25972e-05
2.32996e-05
2.49182e-05
2.70464e-05
2.87622e-05
2.97089e-05
3.10899e-05
3.40644e-05
4.10508e-05
5.93357e-05
6.87261e-05
6.89598e-05
6.00712e-05
4.16685e-05
2.88426e-05
2.2237e-05
2.00129e-05
1.9679e-05
2.07426e-05
2.49486e-05
3.84322e-05
0.000101543
0.000239352
0.000213934
0.000192832
0.000187814
0.000179996
0.000165914
0.000160211
0.000147822
0.000112578
9.0394e-05
7.87623e-05
7.39214e-05
7.27112e-05
7.3893e-05
7.37898e-05
7.15097e-05
7.21161e-05
7.78711e-05
9.4682e-05
0.000106343
0.0001061
0.000102444
8.95043e-05
6.08394e-05
4.0287e-05
2.60339e-05
1.72669e-05
1.13111e-05
7.97911e-06
7.29599e-06
6.35136e-06
5.58771e-06
5.56067e-06
5.75101e-06
6.28271e-06
8.7285e-06
1.52506e-05
2.77285e-05
5.05316e-05
6.53776e-05
6.96595e-05
6.98318e-05
6.86699e-05
6.61215e-05
6.28232e-05
6.14803e-05
6.14655e-05
6.11691e-05
6.0384e-05
5.95289e-05
5.69774e-05
5.34353e-05
4.62718e-05
3.7003e-05
3.11626e-05
2.58743e-05
2.15697e-05
2.05833e-05
2.02693e-05
1.88518e-05
1.80015e-05
1.81295e-05
1.95595e-05
2.19544e-05
3.3931e-05
5.19219e-05
5.49028e-05
5.37269e-05
4.72228e-05
4.22883e-05
4.11342e-05
4.25943e-05
4.95821e-05
5.38012e-05
5.3604e-05
4.67687e-05
3.87399e-05
3.35257e-05
3.16913e-05
3.13586e-05
3.05715e-05
2.97655e-05
2.98619e-05
3.17899e-05
3.34017e-05
3.46069e-05
3.76158e-05
4.87471e-05
6.19932e-05
6.82419e-05
6.83855e-05
6.45824e-05
5.49948e-05
4.71995e-05
4.33985e-05
4.1491e-05
4.14506e-05
4.18754e-05
4.33479e-05
4.33741e-05
4.17716e-05
3.58788e-05
3.18483e-05
3.14743e-05
3.17318e-05
3.05278e-05
2.7397e-05
2.65961e-05
2.66719e-05
2.70181e-05
2.81876e-05
2.88857e-05
2.95826e-05
3.05214e-05
3.13867e-05
3.33232e-05
3.58029e-05
5.35276e-05
7.77308e-05
8.18707e-05
7.9435e-05
6.85253e-05
5.60368e-05
4.6516e-05
4.03757e-05
3.65293e-05
3.42135e-05
3.38295e-05
3.58303e-05
3.63937e-05
3.5612e-05
3.45994e-05
3.48342e-05
3.7388e-05
3.87439e-05
3.8713e-05
3.88297e-05
4.12316e-05
4.34175e-05
4.37925e-05
4.34493e-05
4.34631e-05
4.33543e-05
4.28672e-05
4.22706e-05
4.08314e-05
3.66199e-05
3.31978e-05
2.96478e-05
2.64477e-05
2.36363e-05
2.19562e-05
2.13708e-05
2.10827e-05
2.12101e-05
2.15273e-05
2.45902e-05
2.59313e-05
2.59015e-05
2.55692e-05
2.56569e-05
2.70976e-05
3.30903e-05
4.15342e-05
4.59135e-05
4.91421e-05
5.27274e-05
5.33108e-05
5.40136e-05
5.34377e-05
4.96688e-05
4.2307e-05
3.50928e-05
2.87927e-05
2.42784e-05
2.20698e-05
2.15696e-05
2.16306e-05
2.18802e-05
2.24142e-05
2.35681e-05
2.58986e-05
2.77115e-05
2.88466e-05
3.03602e-05
3.33945e-05
3.98646e-05
5.74375e-05
6.8425e-05
6.90173e-05
6.1174e-05
4.3608e-05
3.00636e-05
2.26657e-05
2.00567e-05
1.9543e-05
2.05253e-05
2.34481e-05
3.69293e-05
8.31883e-05
0.000227234
0.00021004
0.000192145
0.000181261
0.000178454
0.000167058
0.000160147
0.000159637
0.00015387
0.000127816
0.000108485
0.000104775
0.00010206
9.57725e-05
9.60037e-05
9.80324e-05
0.000102357
0.000111289
0.000112602
0.000111593
0.000106569
9.2395e-05
6.35756e-05
4.2777e-05
2.80634e-05
1.82791e-05
1.25111e-05
8.51744e-06
6.80911e-06
6.46948e-06
5.81066e-06
5.47583e-06
5.57078e-06
5.88174e-06
6.95408e-06
1.09295e-05
2.05756e-05
3.87205e-05
6.26083e-05
7.06111e-05
7.16918e-05
7.05994e-05
6.70095e-05
6.28377e-05
5.85865e-05
5.7416e-05
5.78399e-05
5.93654e-05
5.95843e-05
5.92614e-05
5.77419e-05
5.55079e-05
4.96179e-05
4.00047e-05
3.35298e-05
2.76353e-05
2.24927e-05
2.10436e-05
2.06792e-05
1.91701e-05
1.81413e-05
1.81804e-05
1.95453e-05
2.18415e-05
3.1837e-05
5.11104e-05
5.5013e-05
5.41535e-05
4.83259e-05
4.37193e-05
4.29426e-05
4.47698e-05
4.99817e-05
5.29272e-05
5.23753e-05
4.58188e-05
3.8698e-05
3.37477e-05
3.18003e-05
3.11427e-05
3.01417e-05
2.96252e-05
2.98359e-05
3.22514e-05
3.40882e-05
3.51708e-05
3.78212e-05
4.91327e-05
6.21856e-05
6.814e-05
6.83068e-05
6.46677e-05
5.54036e-05
4.75838e-05
4.37219e-05
4.18148e-05
4.19662e-05
4.29101e-05
4.46846e-05
4.45093e-05
4.16723e-05
3.40656e-05
3.0291e-05
3.01795e-05
3.05881e-05
2.94343e-05
2.66727e-05
2.59708e-05
2.60914e-05
2.65001e-05
2.75663e-05
2.81982e-05
2.9162e-05
3.01042e-05
3.113e-05
3.32352e-05
3.58445e-05
5.4615e-05
7.68537e-05
8.02714e-05
7.77475e-05
6.65173e-05
5.43517e-05
4.39888e-05
3.89074e-05
3.58093e-05
3.38798e-05
3.46919e-05
3.66681e-05
3.66764e-05
3.50229e-05
3.4245e-05
3.49811e-05
3.74717e-05
3.85961e-05
3.85341e-05
3.89154e-05
4.22938e-05
4.45976e-05
4.47144e-05
4.37745e-05
4.36669e-05
4.35465e-05
4.31056e-05
4.23158e-05
4.05722e-05
3.67497e-05
3.33166e-05
2.99946e-05
2.67414e-05
2.3812e-05
2.19102e-05
2.09592e-05
2.07181e-05
2.08541e-05
2.08178e-05
2.23672e-05
2.42239e-05
2.44133e-05
2.41022e-05
2.41661e-05
2.64056e-05
3.52637e-05
4.36996e-05
4.70309e-05
5.04429e-05
5.41528e-05
5.44485e-05
5.51449e-05
5.4544e-05
5.09661e-05
4.38894e-05
3.59591e-05
2.89024e-05
2.40213e-05
2.17781e-05
2.10401e-05
2.0941e-05
2.11845e-05
2.17671e-05
2.27066e-05
2.487e-05
2.68058e-05
2.80595e-05
2.96252e-05
3.2637e-05
3.86558e-05
5.58617e-05
6.80301e-05
6.9364e-05
6.19848e-05
4.48982e-05
3.21442e-05
2.4079e-05
2.03779e-05
1.9538e-05
2.06199e-05
2.30919e-05
3.42693e-05
6.71453e-05
0.000207003
0.000193591
0.00018363
0.000172577
0.000169768
0.000163712
0.000154694
0.00015474
0.000155637
0.000150545
0.000141338
0.000134013
0.000132815
0.00012858
0.000126739
0.000123972
0.000122888
0.000120067
0.000116027
0.000109384
9.15535e-05
6.48728e-05
4.37319e-05
2.94304e-05
1.91781e-05
1.28668e-05
9.26325e-06
6.76568e-06
6.12184e-06
6.04206e-06
5.60045e-06
5.45116e-06
5.66704e-06
6.12742e-06
8.08776e-06
1.41981e-05
2.81596e-05
5.45312e-05
6.95968e-05
7.33054e-05
7.2645e-05
6.98101e-05
6.27265e-05
5.77883e-05
5.39159e-05
5.28326e-05
5.32272e-05
5.5826e-05
5.79221e-05
5.83652e-05
5.79092e-05
5.66266e-05
5.25279e-05
4.30513e-05
3.60534e-05
2.93358e-05
2.33451e-05
2.15058e-05
2.1166e-05
1.95262e-05
1.82809e-05
1.82564e-05
1.95228e-05
2.17814e-05
3.0284e-05
4.9988e-05
5.49778e-05
5.44944e-05
4.95767e-05
4.50157e-05
4.43729e-05
4.62686e-05
5.02212e-05
5.22329e-05
5.13874e-05
4.53309e-05
3.87828e-05
3.40266e-05
3.206e-05
3.11807e-05
3.01185e-05
2.96767e-05
2.99475e-05
3.27177e-05
3.46955e-05
3.56926e-05
3.80853e-05
4.93372e-05
6.22887e-05
6.80118e-05
6.82037e-05
6.48246e-05
5.60659e-05
4.83971e-05
4.4538e-05
4.27215e-05
4.29447e-05
4.47905e-05
4.64902e-05
4.55786e-05
4.03645e-05
3.21219e-05
2.8712e-05
2.88025e-05
2.93974e-05
2.86217e-05
2.63945e-05
2.5713e-05
2.58128e-05
2.62069e-05
2.69788e-05
2.75996e-05
2.8844e-05
2.97009e-05
3.08668e-05
3.3099e-05
3.59126e-05
5.59964e-05
7.60901e-05
7.86199e-05
7.60604e-05
6.49868e-05
5.30784e-05
4.26068e-05
3.76141e-05
3.42735e-05
3.32213e-05
3.51483e-05
3.64322e-05
3.55382e-05
3.43454e-05
3.44839e-05
3.57208e-05
3.75268e-05
3.82725e-05
3.81605e-05
3.90827e-05
4.36911e-05
4.57557e-05
4.55199e-05
4.4087e-05
4.3945e-05
4.37719e-05
4.33687e-05
4.23932e-05
4.04113e-05
3.67865e-05
3.33345e-05
3.02915e-05
2.7069e-05
2.41442e-05
2.19574e-05
2.06757e-05
2.03367e-05
2.03964e-05
2.02781e-05
2.06781e-05
2.24398e-05
2.28842e-05
2.2794e-05
2.31704e-05
2.71151e-05
3.84825e-05
4.63875e-05
4.8529e-05
5.21131e-05
5.48348e-05
5.56125e-05
5.62896e-05
5.55984e-05
5.25835e-05
4.62145e-05
3.75294e-05
2.94365e-05
2.40053e-05
2.15248e-05
2.08865e-05
2.0727e-05
2.07796e-05
2.11136e-05
2.18812e-05
2.38046e-05
2.59005e-05
2.7278e-05
2.89351e-05
3.21612e-05
3.7844e-05
5.47864e-05
6.78395e-05
6.93846e-05
6.28505e-05
4.6336e-05
3.39121e-05
2.57407e-05
2.13036e-05
2.01273e-05
2.13023e-05
2.3105e-05
3.37041e-05
5.54512e-05
0.000181689
0.00017032
0.000162121
0.000157607
0.000153277
0.000152154
0.000144907
0.000142768
0.000145736
0.000145765
0.000143729
0.000138423
0.000137291
0.000134663
0.000129933
0.000124951
0.000121788
0.000114177
0.000105185
8.60612e-05
6.31221e-05
4.35174e-05
2.92035e-05
1.97176e-05
1.28669e-05
9.28551e-06
7.16981e-06
5.83427e-06
5.81552e-06
5.80319e-06
5.43988e-06
5.43952e-06
5.75829e-06
6.63329e-06
9.94811e-06
1.90292e-05
3.89155e-05
6.54532e-05
7.47103e-05
7.51542e-05
7.29024e-05
6.57701e-05
5.7902e-05
5.4238e-05
5.19779e-05
5.04469e-05
5.03672e-05
5.16669e-05
5.53883e-05
5.71287e-05
5.73391e-05
5.6914e-05
5.47171e-05
4.59179e-05
3.84988e-05
3.11406e-05
2.43353e-05
2.21452e-05
2.16848e-05
1.96965e-05
1.83977e-05
1.82931e-05
1.94652e-05
2.18042e-05
2.89414e-05
4.85659e-05
5.48486e-05
5.47269e-05
5.07441e-05
4.62447e-05
4.56571e-05
4.72311e-05
5.02197e-05
5.16382e-05
5.05724e-05
4.51845e-05
3.91596e-05
3.46253e-05
3.24857e-05
3.13291e-05
3.02229e-05
2.9851e-05
3.017e-05
3.31643e-05
3.52561e-05
3.62123e-05
3.83657e-05
4.96785e-05
6.24581e-05
6.78713e-05
6.80479e-05
6.47988e-05
5.70622e-05
4.97418e-05
4.57086e-05
4.40779e-05
4.44529e-05
4.7205e-05
4.81263e-05
4.58215e-05
3.76924e-05
3.00732e-05
2.74695e-05
2.7585e-05
2.82919e-05
2.7914e-05
2.62954e-05
2.56987e-05
2.57591e-05
2.60055e-05
2.65262e-05
2.71663e-05
2.85214e-05
2.93694e-05
3.06696e-05
3.2925e-05
3.60991e-05
5.69351e-05
7.52436e-05
7.68804e-05
7.43755e-05
6.39477e-05
5.22334e-05
4.22612e-05
3.6577e-05
3.2909e-05
3.2771e-05
3.45875e-05
3.44288e-05
3.36073e-05
3.43171e-05
3.55201e-05
3.62553e-05
3.73439e-05
3.76723e-05
3.75532e-05
3.95454e-05
4.51171e-05
4.68447e-05
4.62111e-05
4.44608e-05
4.42713e-05
4.4102e-05
4.37249e-05
4.25292e-05
4.04079e-05
3.67986e-05
3.33143e-05
3.04549e-05
2.74173e-05
2.45557e-05
2.211e-05
2.04941e-05
2.00867e-05
2.00301e-05
1.98653e-05
1.98719e-05
2.05745e-05
2.12898e-05
2.15061e-05
2.27142e-05
2.93403e-05
4.17711e-05
4.87788e-05
5.0348e-05
5.32207e-05
5.5347e-05
5.63517e-05
5.67257e-05
5.58849e-05
5.40532e-05
4.87064e-05
3.94324e-05
3.03651e-05
2.41592e-05
2.1403e-05
2.06124e-05
2.04821e-05
2.0569e-05
2.08597e-05
2.14765e-05
2.31234e-05
2.51678e-05
2.6594e-05
2.82757e-05
3.16187e-05
3.70294e-05
5.37688e-05
6.74565e-05
6.89614e-05
6.39137e-05
4.75994e-05
3.51785e-05
2.7463e-05
2.31742e-05
2.09368e-05
2.26331e-05
2.37081e-05
3.34817e-05
4.86741e-05
0.000149321
0.000141126
0.000132778
0.000131867
0.000130323
0.000130871
0.000129006
0.000126704
0.000126763
0.000130099
0.000130444
0.000129752
0.00012858
0.000126593
0.000119889
0.000113622
0.000105455
9.57282e-05
8.02384e-05
5.89882e-05
4.12646e-05
2.78017e-05
1.88646e-05
1.28696e-05
8.77064e-06
7.18004e-06
5.99543e-06
5.45614e-06
5.65818e-06
5.61382e-06
5.2905e-06
5.4292e-06
6.01131e-06
7.59516e-06
1.27514e-05
2.58609e-05
5.41611e-05
7.31312e-05
7.71633e-05
7.59273e-05
6.96734e-05
6.00964e-05
5.50092e-05
5.2459e-05
5.11016e-05
4.97293e-05
4.93356e-05
4.96252e-05
5.22663e-05
5.53788e-05
5.65669e-05
5.66495e-05
5.56979e-05
4.85882e-05
4.08636e-05
3.31566e-05
2.56166e-05
2.27261e-05
2.20141e-05
1.97488e-05
1.84609e-05
1.82817e-05
1.93454e-05
2.18645e-05
2.77843e-05
4.66634e-05
5.45411e-05
5.47505e-05
5.16711e-05
4.72816e-05
4.6661e-05
4.77264e-05
4.98258e-05
5.09328e-05
4.99904e-05
4.53011e-05
3.98266e-05
3.5459e-05
3.31508e-05
3.16928e-05
3.05411e-05
3.02081e-05
3.05214e-05
3.35281e-05
3.56914e-05
3.66546e-05
3.86139e-05
4.98156e-05
6.25828e-05
6.76498e-05
6.77799e-05
6.46825e-05
5.83325e-05
5.1564e-05
4.71836e-05
4.55993e-05
4.62146e-05
4.9223e-05
4.88704e-05
4.51357e-05
3.44712e-05
2.85822e-05
2.71568e-05
2.71889e-05
2.74098e-05
2.72522e-05
2.62689e-05
2.58466e-05
2.58464e-05
2.58816e-05
2.6134e-05
2.67974e-05
2.82013e-05
2.9072e-05
3.05402e-05
3.2822e-05
3.6459e-05
5.76332e-05
7.42125e-05
7.53121e-05
7.27391e-05
6.31945e-05
5.20145e-05
4.22994e-05
3.57988e-05
3.21797e-05
3.24665e-05
3.26486e-05
3.19066e-05
3.1821e-05
3.44024e-05
3.60051e-05
3.62859e-05
3.67237e-05
3.68388e-05
3.67754e-05
4.01775e-05
4.61339e-05
4.76917e-05
4.66515e-05
4.47694e-05
4.45573e-05
4.44248e-05
4.41114e-05
4.2827e-05
4.05152e-05
3.68092e-05
3.32621e-05
3.04161e-05
2.76425e-05
2.49494e-05
2.23223e-05
2.05026e-05
2.00326e-05
1.98962e-05
1.95604e-05
1.94864e-05
1.97961e-05
2.01999e-05
2.08462e-05
2.29531e-05
3.27201e-05
4.49851e-05
5.08582e-05
5.19064e-05
5.41505e-05
5.54777e-05
5.62849e-05
5.66192e-05
5.58179e-05
5.49604e-05
5.13598e-05
4.1433e-05
3.13198e-05
2.44083e-05
2.11682e-05
2.01702e-05
2.01631e-05
2.05446e-05
2.0823e-05
2.12203e-05
2.24781e-05
2.44832e-05
2.58971e-05
2.77845e-05
3.1146e-05
3.62706e-05
5.28394e-05
6.66793e-05
6.81243e-05
6.46687e-05
5.02761e-05
3.73026e-05
2.86151e-05
2.65207e-05
2.24478e-05
2.67447e-05
2.52019e-05
3.18525e-05
4.58983e-05
0.000110608
0.000104568
0.000100238
0.000100611
0.000102038
0.000105153
0.000105803
0.000103766
0.000103007
0.000104942
0.000104794
0.000104674
0.000103978
0.000102164
9.65464e-05
9.0613e-05
8.22393e-05
6.74229e-05
5.05144e-05
3.5653e-05
2.48008e-05
1.67758e-05
1.19115e-05
8.56498e-06
6.58219e-06
6.08797e-06
5.43956e-06
5.2851e-06
5.5327e-06
5.32367e-06
5.18522e-06
5.57153e-06
6.52166e-06
9.14156e-06
1.68285e-05
3.56734e-05
6.60649e-05
7.83928e-05
7.90732e-05
7.55472e-05
6.43017e-05
5.72421e-05
5.35678e-05
5.1555e-05
5.06733e-05
4.95706e-05
4.88668e-05
4.89222e-05
4.99876e-05
5.34196e-05
5.54998e-05
5.62846e-05
5.59126e-05
5.08227e-05
4.32284e-05
3.51517e-05
2.68705e-05
2.33991e-05
2.24507e-05
1.98708e-05
1.8532e-05
1.82519e-05
1.92617e-05
2.19648e-05
2.72843e-05
4.49978e-05
5.40289e-05
5.46792e-05
5.22339e-05
4.80816e-05
4.74464e-05
4.8131e-05
4.92735e-05
4.9991e-05
4.92233e-05
4.55491e-05
4.04724e-05
3.62207e-05
3.38e-05
3.2119e-05
3.09928e-05
3.07783e-05
3.10882e-05
3.38853e-05
3.60703e-05
3.70735e-05
3.88887e-05
4.99742e-05
6.27239e-05
6.74182e-05
6.75051e-05
6.45997e-05
5.98016e-05
5.37135e-05
4.87624e-05
4.69431e-05
4.78041e-05
5.01832e-05
4.91137e-05
4.20258e-05
3.18085e-05
2.80475e-05
2.71349e-05
2.72279e-05
2.71647e-05
2.66787e-05
2.59639e-05
2.58461e-05
2.585e-05
2.57932e-05
2.58969e-05
2.65686e-05
2.79838e-05
2.88199e-05
3.03971e-05
3.2681e-05
3.68789e-05
5.85353e-05
7.2883e-05
7.37781e-05
7.11598e-05
6.24208e-05
5.2448e-05
4.2821e-05
3.55013e-05
3.20857e-05
3.22608e-05
3.09565e-05
3.00558e-05
3.04697e-05
3.42338e-05
3.58611e-05
3.58009e-05
3.58993e-05
3.59413e-05
3.60869e-05
4.09635e-05
4.71645e-05
4.83847e-05
4.69501e-05
4.50849e-05
4.48856e-05
4.47873e-05
4.45412e-05
4.33833e-05
4.07443e-05
3.68414e-05
3.31866e-05
3.02395e-05
2.76348e-05
2.51996e-05
2.25381e-05
2.05998e-05
2.00807e-05
1.99167e-05
1.9461e-05
1.93166e-05
1.95379e-05
1.99e-05
2.07477e-05
2.3619e-05
3.67123e-05
4.80803e-05
5.19096e-05
5.27025e-05
5.49528e-05
5.53967e-05
5.58133e-05
5.60921e-05
5.59279e-05
5.59552e-05
5.39519e-05
4.31605e-05
3.17826e-05
2.44824e-05
2.11249e-05
2.00399e-05
1.99577e-05
2.03363e-05
2.06602e-05
2.10298e-05
2.22306e-05
2.40279e-05
2.5276e-05
2.72164e-05
3.07089e-05
3.56664e-05
5.18891e-05
6.56071e-05
6.74413e-05
6.55287e-05
5.38935e-05
3.90395e-05
2.96873e-05
2.81998e-05
2.51768e-05
3.65851e-05
2.84648e-05
3.18443e-05
4.31029e-05
6.96586e-05
6.52637e-05
6.4065e-05
6.52892e-05
6.88474e-05
7.34657e-05
7.59527e-05
7.41746e-05
7.31046e-05
7.32388e-05
7.32124e-05
7.34912e-05
7.31282e-05
7.20119e-05
6.91295e-05
6.3531e-05
5.15525e-05
3.9674e-05
2.87816e-05
2.03307e-05
1.4397e-05
1.01927e-05
8.04823e-06
6.4303e-06
5.67475e-06
5.53875e-06
5.17877e-06
5.14204e-06
5.33305e-06
5.07031e-06
5.09013e-06
5.75846e-06
7.26573e-06
1.14673e-05
2.25678e-05
4.92487e-05
7.5942e-05
8.13089e-05
7.99091e-05
7.09514e-05
6.04838e-05
5.50383e-05
5.2465e-05
5.09393e-05
5.04099e-05
4.95973e-05
4.86678e-05
4.85866e-05
4.9033e-05
5.1507e-05
5.4228e-05
5.56853e-05