/*--------------------------------*- C++ -*----------------------------------*\
| =========                 |                                                 |
| \\      /  F ield         | OpenFOAM: The Open Source CFD Toolbox           |
|  \\    /   O peration     | Version:  2.4.0                                 |
|   \\  /    A nd           | Web:      www.OpenFOAM.org                      |
|    \\/     M anipulation  |                                                 |
\*---------------------------------------------------------------------------*/
FoamFile
{
    version     2.0;
    format      ascii;
    class       volVectorField;
    location    "0.175";
    object      U_0;
}
// * * * * * * * * * * * * * * * * * * * * * * * * * * * * * * * * * * * * * //

dimensions      [0 1 -1 0 0 0 0];

internalField   nonuniform List<vector> 
17600
(
(5.32823 0.309426 0)
(2.98317 0.0606721 0)
(2.20073 -0.0017585 0)
(1.84459 -0.00332988 0)
(1.70695 -0.00117453 0)
(1.61235 -0.000904477 0)
(1.53885 0.000980106 0)
(1.4773 -0.000354256 0)
(1.43799 -0.00059158 0)
(1.40874 0.000440469 0)
(1.36377 0.000427727 0)
(1.37167 -0.00147284 0)
(1.32298 0.00142355 0)
(1.32612 0.000212574 0)
(1.2985 -0.00143739 0)
(1.29843 0.00189374 0)
(1.2846 -0.00115055 0)
(1.28083 0.000833045 0)
(1.23982 0.0030831 0)
(1.48433 0.00341916 0)
(8.60043 0.872097 0)
(6.9426 0.38327 0)
(5.82532 0.121339 0)
(5.04371 0.0520358 0)
(4.65918 0.0279857 0)
(4.37908 0.0187802 0)
(4.17521 0.0188877 0)
(4.02195 0.0113445 0)
(3.89491 0.00752261 0)
(3.81202 0.00996528 0)
(3.69519 0.0060364 0)
(3.70741 0.00127223 0)
(3.55878 0.00899472 0)
(3.59996 0.00308296 0)
(3.49769 -0.000435901 0)
(3.50048 0.00682951 0)
(3.47823 -0.00245019 0)
(3.4573 0.00700729 0)
(3.37271 -0.0166646 0)
(3.85812 0.0791832 0)
(9.86076 1.02254 0)
(9.33106 0.576443 0)
(8.49999 0.240899 0)
(7.61935 0.132448 0)
(7.10559 0.0803838 0)
(6.69812 0.0557162 0)
(6.39369 0.0485332 0)
(6.18221 0.0323469 0)
(5.97626 0.0234669 0)
(5.85661 0.0262411 0)
(5.67611 0.0155149 0)
(5.69563 0.00909883 0)
(5.45474 0.0202335 0)
(5.5386 0.00739867 0)
(5.3679 0.00495693 0)
(5.36438 0.012392 0)
(5.34932 -0.0028995 0)
(5.28727 0.0168565 0)
(5.24142 -0.036779 0)
(5.60463 0.114126 0)
(10.1693 0.948914 0)
(10.5439 0.666673 0)
(10.2959 0.329861 0)
(9.61322 0.214334 0)
(9.13739 0.144153 0)
(8.69903 0.105876 0)
(8.33604 0.0877049 0)
(8.10599 0.0611533 0)
(7.83811 0.0461136 0)
(7.70314 0.0485249 0)
(7.46578 0.0284599 0)
(7.5001 0.0216321 0)
(7.17912 0.0349212 0)
(7.29796 0.0130819 0)
(7.07993 0.0149029 0)
(7.054 0.0182267 0)
(7.06147 -0.000755416 0)
(6.935 0.0244398 0)
(6.99895 -0.0402506 0)
(7.04081 0.0905129 0)
(10.0929 0.807776 0)
(10.8818 0.666567 0)
(11.1801 0.355785 0)
(10.8625 0.263401 0)
(10.596 0.19647 0)
(10.263 0.157116 0)
(9.91564 0.130083 0)
(9.72336 0.0935512 0)
(9.42807 0.0727619 0)
(9.30989 0.074633 0)
(9.03271 0.0437296 0)
(9.09106 0.0373339 0)
(8.71774 0.0527074 0)
(8.85468 0.0189232 0)
(8.62233 0.0288136 0)
(8.56369 0.024491 0)
(8.59806 0.00351261 0)
(8.41481 0.0314608 0)
(8.57884 -0.0421937 0)
(8.34552 0.10043 0)
(10.0226 0.694548 0)
(10.7972 0.631458 0)
(11.3689 0.331317 0)
(11.3431 0.263518 0)
(11.3355 0.213099 0)
(11.2285 0.190706 0)
(10.9943 0.163939 0)
(10.9129 0.121351 0)
(10.6526 0.0985565 0)
(10.5914 0.101065 0)
(10.3123 0.0594084 0)
(10.4027 0.0536993 0)
(10.0256 0.0728312 0)
(10.1602 0.0239487 0)
(9.95075 0.0444983 0)
(9.86626 0.0325098 0)
(9.91374 0.00737569 0)
(9.71968 0.0374148 0)
(9.90807 -0.0326025 0)
(9.57568 0.0647056 0)
(10.0299 0.606522 0)
(10.6468 0.597168 0)
(11.289 0.297397 0)
(11.3872 0.239338 0)
(11.4709 0.193654 0)
(11.5706 0.195266 0)
(11.4813 0.176604 0)
(11.5456 0.132243 0)
(11.3919 0.113517 0)
(11.4357 0.120083 0)
(11.2145 0.0711122 0)
(11.346 0.0660206 0)
(11.0358 0.0933619 0)
(11.1529 0.0265181 0)
(11.0021 0.0600668 0)
(10.9166 0.039932 0)
(10.9623 0.0144089 0)
(10.808 0.0329571 0)
(10.9409 -0.00172023 0)
(10.6993 0.0254206 0)
(10.0655 0.528492 0)
(10.536 0.562402 0)
(11.1556 0.270702 0)
(11.3592 0.220577 0)
(11.3902 0.166601 0)
(11.5473 0.182812 0)
(11.5599 0.173543 0)
(11.6767 0.126018 0)
(11.6337 0.112392 0)
(11.777 0.124086 0)
(11.6665 0.0729868 0)
(11.8257 0.0677127 0)
(11.6628 0.107583 0)
(11.7571 0.0255886 0)
(11.7 0.0679015 0)
(11.6415 0.0504964 0)
(11.7051 0.00976895 0)
(11.5877 0.0500507 0)
(11.6907 -0.0143865 0)
(11.6172 0.127409 0)
(10.0952 0.457562 0)
(10.4749 0.523121 0)
(10.9959 0.244324 0)
(11.3274 0.203201 0)
(11.3701 0.148384 0)
(11.4447 0.166447 0)
(11.5335 0.164755 0)
(11.5959 0.115442 0)
(11.6126 0.102817 0)
(11.7642 0.115208 0)
(11.7732 0.0671453 0)
(11.9079 0.0582312 0)
(11.8957 0.11182 0)
(11.9699 0.0180663 0)
(11.9905 0.0670948 0)
(12.0028 0.0539258 0)
(12.0675 0.003547 0)
(12.0155 0.0516255 0)
(12.1115 -0.0174812 0)
(12.2409 0.120903 0)
(10.0759 0.392318 0)
(10.4737 0.485654 0)
(10.8684 0.221279 0)
(11.218 0.175008 0)
(11.3859 0.133462 0)
(11.3801 0.153886 0)
(11.502 0.156818 0)
(11.5229 0.107805 0)
(11.5676 0.0947368 0)
(11.6526 0.099659 0)
(11.7446 0.0583899 0)
(11.8478 0.0438008 0)
(11.8951 0.110702 0)
(11.961 0.00759127 0)
(11.9997 0.059932 0)
(12.0956 0.0498964 0)
(12.1116 5.64407e-05 0)
(12.1556 0.0318044 0)
(12.2396 -0.0283923 0)
(12.3648 0.0518674 0)
(10.0472 0.330317 0)
(10.4756 0.445478 0)
(10.7857 0.210086 0)
(11.0855 0.145107 0)
(11.3425 0.11171 0)
(11.3227 0.143547 0)
(11.4883 0.14767 0)
(11.5145 0.0998903 0)
(11.5505 0.0894381 0)
(11.5536 0.0888478 0)
(11.6778 0.0458664 0)
(11.7602 0.0330639 0)
(11.8279 0.106107 0)
(11.8997 0.000885468 0)
(11.9681 0.0442306 0)
(12.0839 0.0493784 0)
(12.0948 -0.0156155 0)
(12.1632 0.0218873 0)
(12.1843 -0.0476319 0)
(12.2231 0.0275373 0)
(10.043 0.274206 0)
(10.4103 0.406904 0)
(10.7286 0.203372 0)
(11.0364 0.115867 0)
(11.2611 0.0908578 0)
(11.2561 0.125893 0)
(11.4698 0.133132 0)
(11.508 0.0911713 0)
(11.5184 0.0940968 0)
(11.4883 0.0782921 0)
(11.6318 0.0370544 0)
(11.6965 0.0185085 0)
(11.7763 0.102605 0)
(11.8712 -0.0132167 0)
(11.9306 0.0317391 0)
(12.0101 0.0413538 0)
(12.0702 -0.0195626 0)
(12.1066 0.00426916 0)
(12.0846 -0.0475833 0)
(12.1874 -0.0330691 0)
(10.0187 0.227792 0)
(10.3254 0.366135 0)
(10.7367 0.186516 0)
(11.0267 0.0937638 0)
(11.1989 0.0761203 0)
(11.204 0.105311 0)
(11.3869 0.115886 0)
(11.4539 0.0827828 0)
(11.4845 0.0978499 0)
(11.4708 0.0685937 0)
(11.6342 0.0241588 0)
(11.6721 0.0101235 0)
(11.7495 0.091713 0)
(11.8365 -0.0197323 0)
(11.8245 0.0211014 0)
(11.9026 0.0380923 0)
(12.0123 -0.0349958 0)
(12.0392 -0.00426571 0)
(12.0548 -0.0661903 0)
(12.2392 -0.0834265 0)
(9.98027 0.191247 0)
(10.3191 0.317244 0)
(10.7523 0.159589 0)
(10.9701 0.0800658 0)
(11.1538 0.0668847 0)
(11.1636 0.0891429 0)
(11.2926 0.101692 0)
(11.3958 0.0671878 0)
(11.4642 0.0971709 0)
(11.486 0.0551521 0)
(11.6167 0.0150117 0)
(11.6358 0.00394467 0)
(11.7096 0.0836252 0)
(11.7733 -0.0198568 0)
(11.7372 0.0149048 0)
(11.8459 0.02416 0)
(11.9794 -0.0489344 0)
(12.0023 -0.0194162 0)
(12.0593 -0.0964198 0)
(12.1512 -0.0926502 0)
(9.98233 0.153942 0)
(10.3294 0.266897 0)
(10.7043 0.13489 0)
(10.9015 0.0724869 0)
(11.1223 0.0549171 0)
(11.1431 0.0764376 0)
(11.2579 0.085409 0)
(11.364 0.0487771 0)
(11.4523 0.0901609 0)
(11.4687 0.0475465 0)
(11.5654 0.00721694 0)
(11.5887 0.000264903 0)
(11.6628 0.0753985 0)
(11.7436 -0.0198572 0)
(11.7344 0.00324843 0)
(11.8295 0.0125451 0)
(11.9455 -0.0604769 0)
(11.9662 -0.0350656 0)
(12.0205 -0.105485 0)
(11.9632 -0.100854 0)
(10.0079 0.120507 0)
(10.2767 0.219917 0)
(10.6422 0.111663 0)
(10.8955 0.058212 0)
(11.113 0.0458112 0)
(11.126 0.0589897 0)
(11.2434 0.0725637 0)
(11.3462 0.0283591 0)
(11.412 0.0876244 0)
(11.4172 0.0390156 0)
(11.5483 0.0016213 0)
(11.5688 -0.0059345 0)
(11.6427 0.065352 0)
(11.7514 -0.0277506 0)
(11.742 -0.000350954 0)
(11.8018 -0.00520317 0)
(11.8784 -0.0609203 0)
(11.9249 -0.059883 0)
(11.9602 -0.0861535 0)
(11.9166 -0.179972 0)
(9.99994 0.091162 0)
(10.2276 0.176254 0)
(10.6483 0.0783624 0)
(10.906 0.0447408 0)
(11.0733 0.0383365 0)
(11.1064 0.0472233 0)
(11.2292 0.0541189 0)
(11.3207 0.0149497 0)
(11.3508 0.0822429 0)
(11.4125 0.0310191 0)
(11.5515 -0.0122772 0)
(11.55 -0.00573083 0)
(11.636 0.0481895 0)
(11.7364 -0.0258016 0)
(11.7115 -0.0123905 0)
(11.787 -0.00314609 0)
(11.8309 -0.0821288 0)
(11.8868 -0.0617825 0)
(11.9368 -0.111207 0)
(11.9954 -0.141181 0)
(9.97826 0.0666906 0)
(10.251 0.124471 0)
(10.6599 0.0465644 0)
(10.8473 0.0366246 0)
(11.0173 0.0351095 0)
(11.1232 0.0285699 0)
(11.2328 0.0391126 0)
(11.284 0.00214584 0)
(11.3287 0.0737212 0)
(11.439 0.018797 0)
(11.526 -0.0192457 0)
(11.5005 -0.00643092 0)
(11.618 0.032759 0)
(11.7051 -0.0257474 0)
(11.6999 -0.0203356 0)
(11.7889 -0.010979 0)
(11.8103 -0.0916535 0)
(11.8599 -0.0691362 0)
(11.9408 -0.141133 0)
(11.9582 -0.0868599 0)
(9.98441 0.0402421 0)
(10.2748 0.0729643 0)
(10.6094 0.0242801 0)
(10.784 0.0281455 0)
(11.0308 0.0230667 0)
(11.1671 0.00838985 0)
(11.2144 0.0283177 0)
(11.2502 -0.00885431 0)
(11.332 0.0601451 0)
(11.4299 0.010699 0)
(11.4985 -0.0218451 0)
(11.478 -0.0097739 0)
(11.6135 0.0182645 0)
(11.6988 -0.0333932 0)
(11.7186 -0.025189 0)
(11.7683 -0.0232006 0)
(11.7803 -0.0893704 0)
(11.87 -0.097678 0)
(11.9183 -0.130441 0)
(11.815 -0.140587 0)
(10.0021 0.0127004 0)
(10.2527 0.0288238 0)
(10.5575 0.00162428 0)
(10.8069 0.0108266 0)
(11.0791 0.00728826 0)
(11.1595 -0.00364737 0)
(11.1694 0.0202285 0)
(11.2407 -0.0216516 0)
(11.3344 0.0451003 0)
(11.4128 0.00475972 0)
(11.4995 -0.0288014 0)
(11.4954 -0.0129346 0)
(11.6164 0.00150769 0)
(11.6962 -0.0372374 0)
(11.7127 -0.0319977 0)
(11.7278 -0.0259365 0)
(11.7895 -0.100988 0)
(11.886 -0.10774 0)
(11.8532 -0.136486 0)
(11.8054 -0.192769 0)
(10.0055 -0.0116305 0)
(10.2273 -0.0158463 0)
(10.5639 -0.0260216 0)
(10.8553 -0.0124975 0)
(11.072 0.00169027 0)
(11.1222 -0.0130824 0)
(11.1642 0.00957563 0)
(11.2605 -0.0390853 0)
(11.3436 0.0331294 0)
(11.4115 -0.00376215 0)
(11.5009 -0.0343852 0)
(11.506 -0.0182774 0)
(11.6017 -0.0090365 0)
(11.6849 -0.0457126 0)
(11.6895 -0.0280946 0)
(11.7251 -0.0450465 0)
(11.8384 -0.10013 0)
(11.8604 -0.129956 0)
(11.8179 -0.126346 0)
(11.941 -0.280606 0)
(9.99742 -0.0367337 0)
(10.2282 -0.0602603 0)
(10.5994 -0.0578637 0)
(10.864 -0.0278861 0)
(11.0387 -0.00296579 0)
(11.1287 -0.0252229 0)
(11.1931 -0.00704962 0)
(11.2718 -0.051511 0)
(11.3431 0.0184221 0)
(11.407 -0.00554168 0)
(11.5004 -0.0446253 0)
(11.5212 -0.0171502 0)
(11.5953 -0.026632 0)
(11.6853 -0.0456975 0)
(11.6892 -0.0392491 0)
(11.7655 -0.0505279 0)
(11.8522 -0.118899 0)
(11.8229 -0.120946 0)
(11.8485 -0.158507 0)
(11.946 -0.227367 0)
(9.98729 -0.0610953 0)
(10.2558 -0.109291 0)
(10.6189 -0.0866427 0)
(10.8501 -0.0400863 0)
(11.0351 -0.0114447 0)
(11.1676 -0.0404547 0)
(11.2003 -0.0201274 0)
(11.2744 -0.0615382 0)
(11.3406 0.00394755 0)
(11.4105 -0.0130642 0)
(11.5154 -0.0531719 0)
(11.5455 -0.022973 0)
(11.6024 -0.0326565 0)
(11.6922 -0.0543163 0)
(11.7039 -0.045756 0)
(11.7971 -0.0586129 0)
(11.8283 -0.129202 0)
(11.8159 -0.115433 0)
(11.8942 -0.190317 0)
(11.8769 -0.161957 0)
(9.99053 -0.0894257 0)
(10.2755 -0.157146 0)
(10.6174 -0.111291 0)
(10.8626 -0.053347 0)
(11.0621 -0.0222672 0)
(11.194 -0.0581807 0)
(11.1985 -0.0276714 0)
(11.2962 -0.0770961 0)
(11.349 -0.0041281 0)
(11.4221 -0.0248936 0)
(11.5378 -0.0576418 0)
(11.5654 -0.0305278 0)
(11.6111 -0.0388802 0)
(11.6922 -0.0633839 0)
(11.7256 -0.0511023 0)
(11.8096 -0.0728333 0)
(11.8188 -0.120769 0)
(11.8384 -0.147381 0)
(11.9197 -0.173216 0)
(11.8629 -0.218073 0)
(9.99555 -0.119187 0)
(10.2781 -0.202253 0)
(10.6383 -0.140224 0)
(10.9057 -0.0654547 0)
(11.0868 -0.0383118 0)
(11.2081 -0.0664632 0)
(11.2095 -0.0455247 0)
(11.3227 -0.080742 0)
(11.3628 -0.0247209 0)
(11.4411 -0.0233578 0)
(11.563 -0.07724 0)
(11.5883 -0.0255292 0)
(11.628 -0.0522684 0)
(11.6961 -0.0683054 0)
(11.7656 -0.0602305 0)
(11.8153 -0.0804778 0)
(11.8261 -0.126746 0)
(11.8867 -0.155939 0)
(11.934 -0.185866 0)
(11.8547 -0.276953 0)
(9.99106 -0.151243 0)
(10.2936 -0.249356 0)
(10.6856 -0.168592 0)
(10.9396 -0.0795475 0)
(11.104 -0.0464614 0)
(11.227 -0.0856795 0)
(11.2322 -0.0499065 0)
(11.3509 -0.10149 0)
(11.3902 -0.0246443 0)
(11.4716 -0.0496919 0)
(11.5887 -0.0684545 0)
(11.6126 -0.0471423 0)
(11.6428 -0.0385544 0)
(11.7266 -0.0947558 0)
(11.801 -0.0535078 0)
(11.8201 -0.0981138 0)
(11.86 -0.122724 0)
(11.9225 -0.180465 0)
(11.9183 -0.176218 0)
(11.8764 -0.318922 0)
(9.98756 -0.186304 0)
(10.3221 -0.296193 0)
(10.7332 -0.196839 0)
(10.9731 -0.0884105 0)
(11.1352 -0.0640245 0)
(11.2542 -0.0935521 0)
(11.2614 -0.0712243 0)
(11.383 -0.100369 0)
(11.4315 -0.0505939 0)
(11.5018 -0.0426204 0)
(11.6118 -0.092801 0)
(11.643 -0.035734 0)
(11.669 -0.0612684 0)
(11.7709 -0.0914886 0)
(11.8254 -0.0715322 0)
(11.8383 -0.0902208 0)
(11.9014 -0.146638 0)
(11.9329 -0.168999 0)
(11.9224 -0.207042 0)
(11.9708 -0.278655 0)
(9.98986 -0.225696 0)
(10.3561 -0.345447 0)
(10.7961 -0.21919 0)
(11.0144 -0.102346 0)
(11.1684 -0.0776436 0)
(11.28 -0.110222 0)
(11.2995 -0.0785225 0)
(11.4142 -0.117743 0)
(11.4864 -0.0552399 0)
(11.5312 -0.059405 0)
(11.6456 -0.0926794 0)
(11.6844 -0.0481865 0)
(11.7104 -0.0617391 0)
(11.8085 -0.10415 0)
(11.8484 -0.076325 0)
(11.8757 -0.0933794 0)
(11.9321 -0.163271 0)
(11.9467 -0.162322 0)
(11.9896 -0.24101 0)
(12.0381 -0.237279 0)
(10.0076 -0.269848 0)
(10.3968 -0.397236 0)
(10.8719 -0.234662 0)
(11.0302 -0.115019 0)
(11.2121 -0.0964753 0)
(11.3082 -0.123705 0)
(11.3444 -0.0912678 0)
(11.4541 -0.129198 0)
(11.5494 -0.0674312 0)
(11.5565 -0.0686757 0)
(11.6957 -0.0981124 0)
(11.7235 -0.0607911 0)
(11.7553 -0.056775 0)
(11.8342 -0.126548 0)
(11.8928 -0.0639598 0)
(11.9105 -0.120769 0)
(11.9589 -0.146039 0)
(11.9991 -0.196772 0)
(12.0639 -0.232412 0)
(12.0346 -0.27967 0)
(10.0363 -0.321729 0)
(10.4352 -0.448753 0)
(10.9437 -0.243326 0)
(11.0318 -0.12965 0)
(11.2896 -0.120581 0)
(11.3256 -0.13471 0)
(11.4065 -0.108502 0)
(11.493 -0.133468 0)
(11.6175 -0.0874327 0)
(11.5704 -0.0653345 0)
(11.7695 -0.119515 0)
(11.751 -0.052361 0)
(11.8111 -0.0782761 0)
(11.8639 -0.118305 0)
(11.9574 -0.0852764 0)
(11.9336 -0.111931 0)
(12.0177 -0.159843 0)
(12.0571 -0.209601 0)
(12.1026 -0.235504 0)
(12.0389 -0.333794 0)
(10.05 -0.381647 0)
(10.4885 -0.49772 0)
(10.9978 -0.249259 0)
(11.0599 -0.14949 0)
(11.3776 -0.143115 0)
(11.3381 -0.148715 0)
(11.4817 -0.119404 0)
(11.5396 -0.149008 0)
(11.6787 -0.0884578 0)
(11.603 -0.0847746 0)
(11.8558 -0.117771 0)
(11.7659 -0.0682105 0)
(11.8907 -0.0739999 0)
(11.8899 -0.13462 0)
(12.0214 -0.0860652 0)
(11.9485 -0.117338 0)
(12.0772 -0.169376 0)
(12.0341 -0.215252 0)
(12.0673 -0.235959 0)
(11.9265 -0.376969 0)
(10.0552 -0.448145 0)
(10.5524 -0.543702 0)
(11.0311 -0.255696 0)
(11.1417 -0.173091 0)
(11.4429 -0.168816 0)
(11.3695 -0.155788 0)
(11.5697 -0.141536 0)
(11.5978 -0.152074 0)
(11.7244 -0.10327 0)
(11.6759 -0.0912093 0)
(11.8974 -0.130278 0)
(11.7732 -0.0688217 0)
(11.9382 -0.0843868 0)
(11.8604 -0.13883 0)
(11.9886 -0.0891542 0)
(11.8639 -0.123675 0)
(11.9604 -0.16537 0)
(11.7962 -0.21556 0)
(11.7957 -0.228122 0)
(11.514 -0.385935 0)
(10.0578 -0.522899 0)
(10.6046 -0.582775 0)
(11.0929 -0.265751 0)
(11.256 -0.201342 0)
(11.4867 -0.189786 0)
(11.4426 -0.169411 0)
(11.6547 -0.157202 0)
(11.6225 -0.159006 0)
(11.7282 -0.11132 0)
(11.6769 -0.103054 0)
(11.7853 -0.129606 0)
(11.6423 -0.0738733 0)
(11.7679 -0.0894748 0)
(11.5845 -0.131882 0)
(11.6605 -0.0918605 0)
(11.4758 -0.114846 0)
(11.4817 -0.158713 0)
(11.2325 -0.196052 0)
(11.1549 -0.220496 0)
(10.7864 -0.323187 0)
(10.045 -0.60467 0)
(10.6756 -0.611922 0)
(11.2074 -0.286064 0)
(11.3695 -0.230308 0)
(11.5168 -0.212387 0)
(11.4806 -0.183187 0)
(11.593 -0.167014 0)
(11.453 -0.157129 0)
(11.4776 -0.114645 0)
(11.3422 -0.102596 0)
(11.3125 -0.118286 0)
(11.1338 -0.0718324 0)
(11.176 -0.0816593 0)
(10.9082 -0.116691 0)
(10.9352 -0.0824841 0)
(10.7008 -0.101243 0)
(10.6442 -0.138329 0)
(10.3375 -0.171933 0)
(10.2151 -0.19241 0)
(9.78519 -0.261885 0)
(10.0439 -0.694527 0)
(10.7937 -0.640348 0)
(11.3162 -0.321094 0)
(11.3645 -0.260415 0)
(11.3397 -0.225511 0)
(11.174 -0.183152 0)
(11.089 -0.156876 0)
(10.8153 -0.139676 0)
(10.7259 -0.101815 0)
(10.506 -0.0865606 0)
(10.3843 -0.0965704 0)
(10.1875 -0.0602275 0)
(10.1665 -0.0657203 0)
(9.87012 -0.0946321 0)
(9.86433 -0.0683974 0)
(9.61094 -0.0822458 0)
(9.51726 -0.112663 0)
(9.18838 -0.143234 0)
(9.03424 -0.152592 0)
(8.56994 -0.219557 0)
(10.1109 -0.808431 0)
(10.8675 -0.671337 0)
(11.1536 -0.348758 0)
(10.8897 -0.26243 0)
(10.5839 -0.204284 0)
(10.2336 -0.153589 0)
(9.98552 -0.123822 0)
(9.63891 -0.10705 0)
(9.48315 -0.0770396 0)
(9.23504 -0.062711 0)
(9.07965 -0.0711962 0)
(8.89096 -0.0451599 0)
(8.83544 -0.0470737 0)
(8.55197 -0.0712746 0)
(8.52328 -0.0523714 0)
(8.27676 -0.06097 0)
(8.16284 -0.0859052 0)
(7.84171 -0.108886 0)
(7.65996 -0.118267 0)
(7.21874 -0.154451 0)
(10.1815 -0.949576 0)
(10.5284 -0.669078 0)
(10.2844 -0.325502 0)
(9.63643 -0.214013 0)
(9.1203 -0.148724 0)
(8.68464 -0.105249 0)
(8.38131 -0.0817067 0)
(8.04288 -0.0710914 0)
(7.87182 -0.0502947 0)
(7.6422 -0.0389783 0)
(7.49188 -0.0472467 0)
(7.32559 -0.0299409 0)
(7.26034 -0.0291361 0)
(7.0155 -0.0489183 0)
(6.97062 -0.0358948 0)
(6.75184 -0.0401969 0)
(6.63457 -0.0587807 0)
(6.33945 -0.0757999 0)
(6.15482 -0.0807097 0)
(5.74281 -0.102111 0)
(9.86739 -1.0228 0)
(9.31815 -0.577502 0)
(8.49617 -0.23874 0)
(7.63571 -0.132111 0)
(7.0914 -0.0828898 0)
(6.69043 -0.0566786 0)
(6.41941 -0.0432148 0)
(6.14152 -0.0391535 0)
(5.99053 -0.0267852 0)
(5.80988 -0.0191879 0)
(5.6883 -0.026758 0)
(5.55309 -0.0164576 0)
(5.49782 -0.0141878 0)
(5.30606 -0.0290073 0)
(5.25259 -0.0206844 0)
(5.07884 -0.0217429 0)
(4.97371 -0.0340145 0)
(4.72336 -0.0450606 0)
(4.55429 -0.0459516 0)
(4.20208 -0.0590235 0)
(8.60358 -0.872196 0)
(6.93458 -0.383683 0)
(5.82393 -0.120644 0)
(5.05345 -0.0515929 0)
(4.65116 -0.0291394 0)
(4.3727 -0.0200383 0)
(4.18817 -0.0151426 0)
(4.0013 -0.0151739 0)
(3.894 -0.00953468 0)
(3.78076 -0.00562854 0)
(3.70009 -0.0112055 0)
(3.60472 -0.00631937 0)
(3.57053 -0.00382916 0)
(3.44295 -0.0129404 0)
(3.3914 -0.00856834 0)
(3.27649 -0.00771509 0)
(3.19876 -0.0141143 0)
(3.0157 -0.0196849 0)
(2.88285 -0.0182184 0)
(2.63578 -0.0243126 0)
(5.3289 -0.30939 0)
(2.98083 -0.0606822 0)
(2.19943 0.00171494 0)
(1.84847 0.00359779 0)
(1.70554 0.000966546 0)
(1.60692 0.000280121 0)
(1.54253 0.000400517 0)
(1.47388 -0.000680972 0)
(1.43053 0.00011331 0)
(1.39593 0.000931435 0)
(1.3669 -0.00119737 0)
(1.32499 -0.000157646 0)
(1.31694 0.00112514 0)
(1.2699 -0.00161263 0)
(1.23815 -0.000423039 0)
(1.19634 0.00045601 0)
(1.16599 -0.000749196 0)
(1.08596 -0.00171798 0)
(1.02362 -0.000593403 0)
(0.930385 0.004141 0)
(0.802446 0.24944 0)
(1.66824 0.215484 0)
(1.77463 0.149239 0)
(2.31897 0.137568 0)
(1.95386 0.310519 0)
(2.28597 0.506967 0)
(3.03548 0.653448 0)
(3.77543 0.860759 0)
(4.5985 1.0092 0)
(5.25839 0.961496 0)
(5.84607 0.363372 0)
(6.34882 -0.132779 0)
(7.21391 -0.0742584 0)
(8.1719 -0.166826 0)
(8.8847 -0.545288 0)
(9.44441 -0.725615 0)
(9.89398 -1.25592 0)
(10.1551 -1.67726 0)
(10.617 -1.9825 0)
(11.2335 -2.82872 0)
(12.0736 -3.36536 0)
(12.7792 -4.08674 0)
(13.373 -4.91243 0)
(13.5776 -5.38869 0)
(13.5564 -5.9666 0)
(13.228 -6.08642 0)
(12.896 -6.16701 0)
(12.4339 -6.17289 0)
(12.2359 -5.95311 0)
(12.1982 -5.93323 0)
(11.9798 -5.76982 0)
(12.1139 -5.55882 0)
(11.9993 -5.24757 0)
(12.155 -5.12012 0)
(12.1854 -4.64906 0)
(12.1215 -4.12224 0)
(12.0894 -3.81955 0)
(11.9012 -2.9982 0)
(11.7641 -2.50222 0)
(11.4093 -1.98182 0)
(11.172 -1.10699 0)
(10.4715 -0.916505 0)
(10.1137 -0.552844 0)
(9.45305 0.201213 0)
(9.04272 0.0996646 0)
(8.73547 0.352738 0)
(8.43436 1.02478 0)
(7.74748 1.01899 0)
(7.38583 0.856164 0)
(7.56894 0.973903 0)
(6.99945 1.2278 0)
(6.86981 1.39113 0)
(6.66846 1.84801 0)
(6.47767 2.26602 0)
(6.21585 1.70899 0)
(5.37325 0.773324 0)
(5.27657 1.29889 0)
(6.15384 3.51732 0)
(7.02752 5.9128 0)
(7.58351 7.37632 0)
(7.68937 7.79981 0)
(7.39774 7.67224 0)
(6.94521 7.56154 0)
(6.55113 7.686 0)
(6.22712 7.91263 0)
(6.06349 7.8666 0)
(6.08193 7.19406 0)
(6.1791 5.85764 0)
(6.18816 4.23644 0)
(6.13491 2.61103 0)
(6.05941 0.810397 0)
(5.98403 -1.1979 0)
(6.10669 -2.83699 0)
(6.38166 -3.86347 0)
(6.53366 -4.70704 0)
(6.37196 -5.94228 0)
(6.33918 -7.1204 0)
(6.53093 -8.06314 0)
(6.70696 -9.39766 0)
(6.66712 -10.1642 0)
(6.62571 -9.42062 0)
(6.86321 -7.8402 0)
(6.73251 -6.81508 0)
(6.73481 -6.60017 0)
(6.62355 -6.79326 0)
(6.39569 -7.22527 0)
(6.41373 -7.46659 0)
(6.26937 -8.05449 0)
(6.09407 -8.72176 0)
(6.34562 -8.42928 0)
(6.49467 -7.85887 0)
(6.20087 -8.06604 0)
(6.36427 -7.92469 0)
(6.53844 -6.58832 0)
(6.64446 -4.92367 0)
(6.76576 -3.36162 0)
(7.18708 -2.55406 0)
(7.28682 -1.10492 0)
(7.48133 1.73417 0)
(7.19344 3.5167 0)
(7.17653 4.13889 0)
(7.40125 5.52604 0)
(7.33945 7.40943 0)
(7.10051 8.0866 0)
(6.97682 8.02534 0)
(7.24322 8.85912 0)
(7.48013 10.007 0)
(7.43959 10.5924 0)
(7.33511 10.6426 0)
(7.07615 9.88719 0)
(6.38774 8.78461 0)
(5.79731 7.76519 0)
(5.16237 6.69353 0)
(4.28649 6.03558 0)
(4.32264 5.90027 0)
(4.15966 5.78689 0)
(4.3804 5.57356 0)
(4.43675 5.11282 0)
(4.66874 4.59747 0)
(4.5553 3.93214 0)
(4.95204 3.13069 0)
(4.94477 2.48844 0)
(5.38912 1.78176 0)
(5.58983 1.09158 0)
(5.97766 0.333859 0)
(6.58203 -0.886682 0)
(6.80314 -1.42394 0)
(6.94597 -1.2961 0)
(7.28196 -1.72422 0)
(7.15223 -2.20693 0)
(7.12417 -2.48443 0)
(7.01513 -2.98441 0)
(6.99446 -3.2486 0)
(6.75502 -3.01659 0)
(6.51248 -2.63944 0)
(6.48114 -2.46125 0)
(6.80352 -2.72481 0)
(7.02765 -2.96692 0)
(6.89205 -2.83082 0)
(6.98357 -2.84379 0)
(6.84351 -3.09092 0)
(6.72387 -3.30937 0)
(6.6139 -3.15464 0)
(6.07759 -3.13719 0)
(5.82205 -3.24698 0)
(5.23376 -3.38038 0)
(5.22735 -3.15859 0)
(4.86229 -2.27986 0)
(5.14438 -1.70311 0)
(5.00181 -1.43772 0)
(5.2295 -1.83976 0)
(5.01167 -2.95772 0)
(5.71871 -4.08458 0)
(6.05673 -4.56306 0)
(6.44071 -5.31815 0)
(6.54022 -5.89348 0)
(6.89801 -6.01303 0)
(6.69781 -6.53524 0)
(6.89243 -7.02696 0)
(6.93455 -7.19462 0)
(6.83188 -7.24037 0)
(7.05532 -6.86522 0)
(7.06813 -6.46784 0)
(7.27391 -5.81994 0)
(7.53847 -4.81805 0)
(7.49432 -3.61703 0)
(7.71057 -2.05857 0)
(7.97277 -0.102742 0)
(7.87267 1.62808 0)
(7.55268 2.71503 0)
(7.75802 3.64823 0)
(7.69097 4.84918 0)
(7.85993 6.00952 0)
(7.92466 6.71254 0)
(8.13513 7.08001 0)
(8.52233 7.90511 0)
(8.87491 9.07622 0)
(9.0431 9.96793 0)
(8.99432 10.0052 0)
(8.96422 9.6064 0)
(8.81043 8.93014 0)
(8.58798 8.15066 0)
(8.52053 6.95926 0)
(8.17146 5.54242 0)
(7.28556 3.93383 0)
(6.61834 2.69466 0)
(6.70541 2.28062 0)
(6.43553 2.17482 0)
(6.33544 2.55469 0)
(6.29592 2.83989 0)
(6.44314 2.90185 0)
(6.37567 2.88139 0)
(6.15368 2.91024 0)
(5.80611 3.28557 0)
(5.89542 3.71686 0)
(5.97706 4.10849 0)
(5.50545 5.25599 0)
(5.41706 6.2068 0)
(5.05102 5.51677 0)
(2.96317 7.27517 0)
(2.92963 0.158848 0)
(3.3847 0.0584213 0)
(3.60995 0.0549133 0)
(3.95198 0.0660693 0)
(4.02902 0.222474 0)
(4.08481 0.434446 0)
(4.56782 0.465207 0)
(5.03382 0.492059 0)
(5.5321 0.775945 0)
(6.54021 0.840378 0)
(7.21 0.276066 0)
(7.22317 -0.291316 0)
(7.66755 -0.441959 0)
(8.53174 -0.530614 0)
(8.99684 -0.815567 0)
(9.68921 -0.990827 0)
(10.3424 -1.43558 0)
(10.7277 -1.86064 0)
(11.6118 -2.21252 0)
(12.343 -3.07428 0)
(13.1108 -3.67464 0)
(13.5015 -4.32445 0)
(13.7691 -5.04675 0)
(13.8283 -5.42904 0)
(13.6116 -5.88821 0)
(13.1413 -5.93638 0)
(12.7385 -6.00816 0)
(12.4076 -6.03726 0)
(12.1788 -5.84935 0)
(12.1847 -5.86545 0)
(12.0755 -5.78448 0)
(12.2194 -5.57447 0)
(12.1434 -5.24487 0)
(12.3713 -5.14895 0)
(12.3845 -4.682 0)
(12.3139 -4.11027 0)
(12.2761 -3.78775 0)
(12.0903 -2.90715 0)
(11.9423 -2.40556 0)
(11.5728 -1.87164 0)
(11.4443 -0.889111 0)
(10.7536 -0.687756 0)
(10.3278 -0.335802 0)
(9.6067 0.436101 0)
(9.11507 0.285497 0)
(8.77548 0.458387 0)
(8.49286 1.22837 0)
(7.86585 1.21894 0)
(7.42529 0.929444 0)
(7.59949 1.02248 0)
(7.0989 1.34581 0)
(6.95073 1.49219 0)
(6.81294 1.89611 0)
(6.66373 2.37491 0)
(6.45807 1.97557 0)
(5.55207 0.982506 0)
(5.24894 1.14864 0)
(6.07036 3.13126 0)
(7.07745 5.57768 0)
(7.79931 7.22809 0)
(8.05568 7.83802 0)
(7.86828 7.82097 0)
(7.4445 7.72706 0)
(7.05519 7.82158 0)
(6.75774 7.99951 0)
(6.64906 7.91213 0)
(6.72271 7.2027 0)
(6.83634 5.86107 0)
(6.86706 4.2521 0)
(6.86259 2.65195 0)
(6.83674 0.877222 0)
(6.72287 -1.18338 0)
(6.73205 -2.91957 0)
(6.89943 -3.93138 0)
(7.01674 -4.67515 0)
(6.83906 -5.88994 0)
(6.75827 -7.14297 0)
(6.91799 -8.10829 0)
(7.09026 -9.40372 0)
(7.02078 -10.1803 0)
(6.89737 -9.44415 0)
(7.00316 -7.80072 0)
(6.78967 -6.76098 0)
(6.71023 -6.57317 0)
(6.56606 -6.70888 0)
(6.27372 -7.18237 0)
(6.27997 -7.44036 0)
(6.08511 -7.98136 0)
(5.86061 -8.70644 0)
(6.08238 -8.50059 0)
(6.22654 -7.87659 0)
(5.93741 -7.99822 0)
(5.96749 -7.97966 0)
(6.10482 -6.64066 0)
(6.32204 -5.00077 0)
(6.49494 -3.55972 0)
(6.97179 -2.61648 0)
(7.01979 -1.06217 0)
(7.07505 1.72833 0)
(6.78141 3.48421 0)
(6.81507 4.13497 0)
(7.10008 5.5066 0)
(7.02978 7.35034 0)
(6.81034 8.07048 0)
(6.70556 7.98822 0)
(6.9641 8.76193 0)
(7.24681 9.93408 0)
(7.2843 10.5827 0)
(7.22998 10.7083 0)
(7.0778 10.0566 0)
(6.4863 9.04918 0)
(5.92361 8.03662 0)
(5.36188 6.97763 0)
(4.46023 6.25903 0)
(4.26771 5.9906 0)
(4.11959 5.80206 0)
(4.085 5.5364 0)
(4.24998 5.04915 0)
(4.28516 4.55585 0)
(4.42297 3.84536 0)
(4.80086 3.03875 0)
(4.95123 2.34806 0)
(5.54369 1.63962 0)
(5.77988 0.962972 0)
(6.30029 0.121385 0)
(6.91285 -1.03599 0)
(7.07609 -1.52224 0)
(7.2687 -1.38819 0)
(7.58593 -1.74543 0)
(7.46722 -2.18447 0)
(7.54119 -2.46389 0)
(7.44966 -2.94461 0)
(7.27592 -3.1776 0)
(7.00549 -2.91361 0)
(6.87482 -2.60053 0)
(6.92459 -2.51942 0)
(7.21811 -2.81925 0)
(7.35353 -2.9986 0)
(7.09056 -2.79151 0)
(7.16788 -2.79424 0)
(6.97415 -3.04047 0)
(6.85618 -3.26092 0)
(6.72257 -3.02499 0)
(6.17998 -2.94262 0)
(5.88011 -3.05381 0)
(5.21248 -3.24854 0)
(5.15126 -3.0652 0)
(4.80048 -2.27127 0)
(5.18956 -1.75285 0)
(5.05934 -1.43559 0)
(5.24447 -1.85328 0)
(5.13702 -3.04776 0)
(5.57899 -4.26258 0)
(5.77469 -4.73101 0)
(6.31996 -5.40405 0)
(6.336 -5.99578 0)
(6.72554 -6.06558 0)
(6.50967 -6.53958 0)
(6.58573 -7.07191 0)
(6.66982 -7.16399 0)
(6.43064 -7.26732 0)
(6.70691 -6.87391 0)
(6.74946 -6.54426 0)
(6.8694 -5.88365 0)
(7.10533 -4.67964 0)
(7.00021 -3.57035 0)
(7.14513 -2.05471 0)
(7.26888 -0.0748707 0)
(7.18672 1.65019 0)
(7.30129 2.73602 0)
(7.37193 3.58345 0)
(7.51676 4.56791 0)
(7.83393 5.58884 0)
(7.74067 6.30668 0)
(7.84716 6.86781 0)
(8.12294 7.7053 0)
(8.53186 8.99613 0)
(8.77393 9.89413 0)
(8.8828 10.0596 0)
(8.7599 9.614 0)
(8.74461 8.98857 0)
(8.5039 8.17114 0)
(8.2748 7.10281 0)
(8.13385 5.74004 0)
(7.80746 4.29425 0)
(7.04212 2.85312 0)
(6.83936 2.27153 0)
(6.91941 2.23179 0)
(6.38357 2.63312 0)
(6.44634 2.78071 0)
(6.53807 2.90667 0)
(6.41975 2.90067 0)
(6.58056 3.00604 0)
(5.99963 3.3852 0)
(5.73055 3.70608 0)
(6.22541 4.05152 0)
(5.82551 5.24843 0)
(6.01587 6.63287 0)
(6.18151 5.83976 0)
(3.90482 7.80016 0)
(5.21633 0.139853 0)
(5.36459 -0.00712998 0)
(5.6152 -0.00261449 0)
(5.83659 0.0270131 0)
(5.97419 0.0477529 0)
(5.96176 0.313936 0)
(6.46521 0.397874 0)
(6.87022 0.283944 0)
(6.97267 0.499373 0)
(7.97499 0.488979 0)
(8.78967 0.0896093 0)
(8.80011 -0.332548 0)
(9.14479 -0.64731 0)
(9.77979 -0.70881 0)
(10.0906 -0.994029 0)
(10.7703 -1.27375 0)
(11.4355 -1.6014 0)
(11.8393 -2.12015 0)
(12.7817 -2.56422 0)
(13.3062 -3.3061 0)
(13.8213 -3.90571 0)
(13.9842 -4.44158 0)
(14.0712 -5.03413 0)
(13.9494 -5.34063 0)
(13.4577 -5.70528 0)
(12.9648 -5.74343 0)
(12.6153 -5.8593 0)
(12.4735 -5.9586 0)
(12.2251 -5.83195 0)
(12.2713 -5.84654 0)
(12.2416 -5.83972 0)
(12.3759 -5.6432 0)
(12.3194 -5.26492 0)
(12.5476 -5.1868 0)
(12.5262 -4.70003 0)
(12.5133 -4.07822 0)
(12.4723 -3.76011 0)
(12.3351 -2.83705 0)
(12.1628 -2.30124 0)
(11.6986 -1.78157 0)
(11.6607 -0.729114 0)
(11.0282 -0.471376 0)
(10.6117 -0.105874 0)
(9.85568 0.708469 0)
(9.23169 0.488194 0)
(8.78651 0.573635 0)
(8.53475 1.43527 0)
(7.94634 1.44017 0)
(7.46091 1.03705 0)
(7.59083 1.07057 0)
(7.16475 1.44894 0)
(7.01894 1.57428 0)
(6.95611 1.92025 0)
(6.87897 2.45218 0)
(6.76272 2.22582 0)
(5.84232 1.24779 0)
(5.27538 1.04702 0)
(5.95834 2.73699 0)
(7.07601 5.19215 0)
(7.97898 7.0079 0)
(8.39405 7.81271 0)
(8.33234 7.93732 0)
(7.96394 7.88631 0)
(7.5836 7.95472 0)
(7.31851 8.07385 0)
(7.24667 7.93942 0)
(7.35063 7.19494 0)
(7.46952 5.85087 0)
(7.51406 4.24735 0)
(7.55335 2.66788 0)
(7.57028 0.938464 0)
(7.43547 -1.14502 0)
(7.34167 -2.97038 0)
(7.39218 -3.98216 0)
(7.46136 -4.63731 0)
(7.27272 -5.82443 0)
(7.16045 -7.16486 0)
(7.29898 -8.16451 0)
(7.46086 -9.41382 0)
(7.36616 -10.1813 0)
(7.15363 -9.42893 0)
(7.13865 -7.73124 0)
(6.83565 -6.67401 0)
(6.68343 -6.49733 0)
(6.50305 -6.61175 0)
(6.13722 -7.09687 0)
(6.13296 -7.39643 0)
(5.88177 -7.91613 0)
(5.63511 -8.65629 0)
(5.79504 -8.5543 0)
(5.89713 -7.87698 0)
(5.62297 -7.92011 0)
(5.53401 -7.99221 0)
(5.64396 -6.70692 0)
(5.96945 -5.11823 0)
(6.17403 -3.75178 0)
(6.69553 -2.67216 0)
(6.72885 -0.996176 0)
(6.63453 1.74586 0)
(6.32868 3.47363 0)
(6.41658 4.13395 0)
(6.73945 5.56771 0)
(6.66601 7.40903 0)
(6.4605 8.12997 0)
(6.38857 8.01512 0)
(6.66313 8.67519 0)
(7.00136 9.84904 0)
(7.11648 10.5552 0)
(7.11938 10.743 0)
(7.07432 10.1944 0)
(6.58988 9.28055 0)
(6.07615 8.29514 0)
(5.56393 7.25018 0)
(4.6887 6.51676 0)
(4.31713 6.10656 0)
(4.09701 5.90845 0)
(3.96538 5.53529 0)
(4.15525 5.0491 0)
(4.12618 4.51893 0)
(4.53962 3.74759 0)
(4.81279 2.96416 0)
(5.2031 2.15006 0)
(5.82905 1.47761 0)
(6.21067 0.79856 0)
(6.7233 -0.108572 0)
(7.31606 -1.1781 0)
(7.47759 -1.62973 0)
(7.61402 -1.48338 0)
(7.93346 -1.77039 0)
(7.91993 -2.22419 0)
(8.05456 -2.4645 0)
(7.96482 -2.87926 0)
(7.70084 -3.06789 0)
(7.45914 -2.82603 0)
(7.45216 -2.61685 0)
(7.46115 -2.56514 0)
(7.63462 -2.86697 0)
(7.65148 -2.98968 0)
(7.28422 -2.72448 0)
(7.35411 -2.74447 0)
(7.10615 -2.98812 0)
(6.98761 -3.22401 0)
(6.83864 -2.90328 0)
(6.31075 -2.7475 0)
(5.97828 -2.83481 0)
(5.22435 -3.0784 0)
(5.11471 -2.96251 0)
(4.76786 -2.28743 0)
(5.21846 -1.8098 0)
(5.15518 -1.43706 0)
(5.29575 -1.87826 0)
(5.28437 -3.10027 0)
(5.41375 -4.34872 0)
(5.49999 -4.88185 0)
(6.20899 -5.52537 0)
(6.12856 -6.05771 0)