/*--------------------------------*- C++ -*----------------------------------*\
| =========                 |                                                 |
| \\      /  F ield         | OpenFOAM: The Open Source CFD Toolbox           |
|  \\    /   O peration     | Version:  2.4.0                                 |
|   \\  /    A nd           | Web:      www.OpenFOAM.org                      |
|    \\/     M anipulation  |                                                 |
\*---------------------------------------------------------------------------*/
FoamFile
{
    version     2.0;
    format      ascii;
    class       volSymmTensorField;
    location    "0.175";
    object      UPrime2Mean;
}
// * * * * * * * * * * * * * * * * * * * * * * * * * * * * * * * * * * * * * //

dimensions      [0 2 -2 0 0 0 0];

internalField   nonuniform List<symmTensor> 
17600
(
(0.0161451 0.000790603 0 8.45688e-05 0 0)
(0.00146594 -0.000281735 0 0.00118945 0 0)
(0.0278112 -0.00671408 0 0.00200264 0 0)
(0.0853556 -0.0112411 0 0.00163292 0 0)
(0.162011 -0.0117558 0 0.000908103 0 0)
(0.25459 -0.0093748 0 0.000370727 0 0)
(0.352725 -0.0055407 0 0.000105148 0 0)
(0.44588 -0.00171898 0 1.85179e-05 0 0)
(0.524776 0.00139431 0 1.13895e-05 0 0)
(0.587218 0.00339945 0 2.86076e-05 0 0)
(0.633782 0.00431096 0 4.33084e-05 0 0)
(0.668758 0.00435932 0 4.51923e-05 0 0)
(0.694207 0.00392781 0 3.80984e-05 0 0)
(0.714489 0.00330467 0 2.95018e-05 0 0)
(0.729914 0.00271619 0 2.0962e-05 0 0)
(0.743944 0.00216486 0 1.62121e-05 0 0)
(0.754861 0.00170914 0 1.2357e-05 0 0)
(0.766401 0.00127829 0 7.36065e-06 0 0)
(0.774708 0.000960713 0 6.24822e-06 0 0)
(0.78563 0.000655462 0 4.38655e-06 0 0)
(0.79181 0.00048805 0 4.07315e-06 0 0)
(0.803521 0.000274226 0 3.89074e-06 0 0)
(0.807347 0.000182056 0 4.16198e-06 0 0)
(0.821307 3.40107e-05 0 3.66206e-06 0 0)
(0.821997 -5.86431e-05 0 4.10202e-06 0 0)
(0.840102 -0.00010907 0 4.47142e-06 0 0)
(0.836445 -0.000350301 0 6.45941e-06 0 0)
(0.861129 -0.000194248 0 6.92211e-06 0 0)
(0.85268 -0.000859187 0 1.47641e-05 0 0)
(0.885347 -0.000257215 0 1.37701e-05 0 0)
(0.877603 -0.00192322 0 3.69753e-05 0 0)
(0.911188 -6.80182e-05 0 3.78231e-05 0 0)
(0.931828 -0.00510115 0 0.000120293 0 0)
(0.932115 0.00267829 0 0.000193502 0 0)
(1.06497 -0.0191695 0 0.000792515 0 0)
(0.950093 0.0183446 0 0.00181628 0 0)
(1.37062 -0.0755383 0 0.00650201 0 0)
(1.05744 0.0734773 0 0.0130552 0 0)
(2.08544 -0.289132 0 0.048469 0 0)
(1.86998 0.0961018 0 0.0147667 0 0)
(0.0162598 0.00133038 0 0.000175626 0 0)
(0.00299624 0.00210635 0 0.00154104 0 0)
(0.000288164 0.000802276 0 0.00386803 0 0)
(0.000548334 -0.00101499 0 0.00583636 0 0)
(0.00206569 -0.0028063 0 0.0065242 0 0)
(0.00490595 -0.00508434 0 0.00618996 0 0)
(0.0111736 -0.00762848 0 0.00535584 0 0)
(0.0236017 -0.00993297 0 0.00434465 0 0)
(0.0419138 -0.0112139 0 0.00332392 0 0)
(0.0661229 -0.0114043 0 0.00237759 0 0)
(0.0932277 -0.0107386 0 0.00163004 0 0)
(0.123965 -0.00971411 0 0.00107687 0 0)
(0.154927 -0.00866709 0 0.000721351 0 0)
(0.18844 -0.00772946 0 0.00050024 0 0)
(0.219913 -0.00684061 0 0.000339756 0 0)
(0.254346 -0.00624171 0 0.000271764 0 0)
(0.283215 -0.00545088 0 0.000187717 0 0)
(0.318568 -0.00519576 0 0.000188303 0 0)
(0.34124 -0.004384 0 0.00011565 0 0)
(0.380355 -0.00469194 0 0.000136898 0 0)
(0.392476 -0.00372266 0 8.07503e-05 0 0)
(0.439182 -0.00463955 0 0.000122986 0 0)
(0.437857 -0.003155 0 6.35035e-05 0 0)
(0.495633 -0.00522566 0 0.000144811 0 0)
(0.478826 -0.0023661 0 6.82432e-05 0 0)
(0.550616 -0.00673217 0 0.000203181 0 0)
(0.518215 -0.000994222 0 9.2235e-05 0 0)
(0.603901 -0.00985108 0 0.000341976 0 0)
(0.561269 0.00142759 0 0.000198121 0 0)
(0.654894 -0.0157011 0 0.00067545 0 0)
(0.617024 0.00513045 0 0.000496726 0 0)
(0.705246 -0.0256766 0 0.00149174 0 0)
(0.699101 0.00943242 0 0.00122509 0 0)
(0.766613 -0.0412613 0 0.00337047 0 0)
(0.827477 0.0107858 0 0.00266318 0 0)
(0.879354 -0.0678538 0 0.00790738 0 0)
(1.04342 -0.00354921 0 0.00467667 0 0)
(1.14048 -0.131093 0 0.0227527 0 0)
(1.43171 -0.100582 0 0.010719 0 0)
(1.61161 -0.368343 0 0.145087 0 0)
(0.0163857 0.000980393 0 9.55961e-05 0 0)
(0.00303828 0.00168284 0 0.00102514 0 0)
(0.000854277 0.00129036 0 0.00291222 0 0)
(0.00114456 0.00174514 0 0.00492049 0 0)
(0.00375877 0.00357629 0 0.00599927 0 0)
(0.00697681 0.00522272 0 0.00610971 0 0)
(0.00938366 0.00621042 0 0.00561259 0 0)
(0.00980481 0.00580791 0 0.00494286 0 0)
(0.00946824 0.00491804 0 0.00419611 0 0)
(0.00803313 0.00347914 0 0.00349068 0 0)
(0.00691615 0.00234793 0 0.00280763 0 0)
(0.00538274 0.00119173 0 0.00227861 0 0)
(0.00477248 0.000439804 0 0.00187113 0 0)
(0.00438524 -0.000510513 0 0.00155504 0 0)
(0.00505228 -0.00098963 0 0.00140582 0 0)
(0.006995 -0.00194195 0 0.00121183 0 0)
(0.00868599 -0.00223838 0 0.00117846 0 0)
(0.0138602 -0.00298097 0 0.000915397 0 0)
(0.0155829 -0.00304747 0 0.000934571 0 0)
(0.0251984 -0.00370356 0 0.000790249 0 0)
(0.0252826 -0.00372004 0 0.000753495 0 0)
(0.0402729 -0.00423777 0 0.000656761 0 0)
(0.0378909 -0.00433033 0 0.000660986 0 0)
(0.0585292 -0.00466572 0 0.000585335 0 0)
(0.0532073 -0.00494987 0 0.000617781 0 0)
(0.0798894 -0.00501646 0 0.000575387 0 0)
(0.0716175 -0.00570713 0 0.000609983 0 0)
(0.104073 -0.00546141 0 0.000605061 0 0)
(0.0937122 -0.00678803 0 0.000666582 0 0)
(0.131411 -0.00619543 0 0.00067401 0 0)
(0.121124 -0.00868769 0 0.000866126 0 0)
(0.163922 -0.00797725 0 0.000882493 0 0)
(0.157143 -0.0123813 0 0.00141174 0 0)
(0.207202 -0.0124352 0 0.00146499 0 0)
(0.209464 -0.0201094 0 0.00299271 0 0)
(0.274155 -0.0243924 0 0.00327183 0 0)
(0.297287 -0.0409367 0 0.00903465 0 0)
(0.395846 -0.067978 0 0.0140458 0 0)
(0.454201 -0.120792 0 0.0492588 0 0)
(0.554844 -0.234129 0 0.145499 0 0)
(0.0166556 0.000700004 0 7.86315e-05 0 0)
(0.003079 0.00126921 0 0.000671931 0 0)
(0.00099729 0.000878135 0 0.0018271 0 0)
(0.00095146 0.00107059 0 0.00319061 0 0)
(0.00333437 0.00270084 0 0.00392322 0 0)
(0.00731574 0.00447139 0 0.00412955 0 0)
(0.0127069 0.00628199 0 0.00386228 0 0)
(0.0172976 0.00699498 0 0.00345596 0 0)
(0.0225441 0.00746574 0 0.00305319 0 0)
(0.0258317 0.00708445 0 0.00265694 0 0)
(0.030119 0.00695864 0 0.00242267 0 0)
(0.0318508 0.00640641 0 0.00206567 0 0)
(0.0350444 0.00638707 0 0.00192674 0 0)
(0.03522 0.00585016 0 0.00173228 0 0)
(0.0374759 0.00595269 0 0.001558 0 0)
(0.0365408 0.00520003 0 0.00159763 0 0)
(0.0382077 0.00537155 0 0.00133557 0 0)
(0.0367249 0.0045757 0 0.00157354 0 0)
(0.0380419 0.00474116 0 0.00105224 0 0)
(0.0362523 0.00399613 0 0.00149368 0 0)
(0.0371554 0.00411928 0 0.000895645 0 0)
(0.0351493 0.00354736 0 0.00137261 0 0)
(0.0356613 0.00350404 0 0.000803864 0 0)
(0.0334826 0.003156 0 0.00139209 0 0)
(0.0334623 0.00303746 0 0.0007488 0 0)
(0.0314238 0.00283957 0 0.00146179 0 0)
(0.0309479 0.00254688 0 0.000766081 0 0)
(0.0288582 0.00256616 0 0.00162335 0 0)
(0.0279166 0.00211257 0 0.000863243 0 0)
(0.0259083 0.00243317 0 0.00188334 0 0)
(0.0244694 0.001794 0 0.00114708 0 0)
(0.0224735 0.00237587 0 0.00242111 0 0)
(0.0204523 0.0016085 0 0.00182819 0 0)
(0.018382 0.00223392 0 0.00374236 0 0)
(0.0160293 0.00131454 0 0.00370025 0 0)
(0.014657 0.000834117 0 0.00789837 0 0)
(0.0140347 -0.00133315 0 0.0111873 0 0)
(0.0164701 -0.00631434 0 0.0243893 0 0)
(0.0215819 -0.013068 0 0.0493658 0 0)
(0.0277239 -0.0218722 0 0.101699 0 0)
(0.0163968 0.000638097 0 9.37903e-05 0 0)
(0.00292487 0.000924986 0 0.000441353 0 0)
(0.000771772 0.00062412 0 0.00123309 0 0)
(0.000613311 0.000645949 0 0.00186643 0 0)
(0.002248 0.0016947 0 0.00257976 0 0)
(0.0054295 0.0030637 0 0.00255622 0 0)
(0.00973104 0.00445767 0 0.00261483 0 0)
(0.014443 0.00520483 0 0.00220716 0 0)
(0.0193984 0.00572707 0 0.00202376 0 0)
(0.024237 0.0056412 0 0.00168272 0 0)
(0.0288859 0.00572342 0 0.00160504 0 0)
(0.0334099 0.00552416 0 0.00138705 0 0)
(0.037413 0.00561336 0 0.00135565 0 0)
(0.0413983 0.00555107 0 0.00111558 0 0)
(0.0447556 0.00557764 0 0.00116604 0 0)
(0.0483569 0.00553714 0 0.00105507 0 0)
(0.0512436 0.00560419 0 0.00112271 0 0)
(0.055144 0.0054661 0 0.00097263 0 0)
(0.0576891 0.00550696 0 0.00095943 0 0)
(0.0620239 0.00532627 0 0.000947708 0 0)
(0.0642331 0.00540163 0 0.000823452 0 0)
(0.0688417 0.00529163 0 0.000867263 0 0)
(0.0705728 0.0053644 0 0.000785188 0 0)
(0.0753688 0.00543448 0 0.000909095 0 0)
(0.0764362 0.00551556 0 0.000769458 0 0)
(0.0812891 0.00576114 0 0.000877461 0 0)
(0.0817158 0.00573804 0 0.000857231 0 0)
(0.0861436 0.00629968 0 0.000979252 0 0)
(0.0856837 0.00638535 0 0.000982555 0 0)
(0.089513 0.00736354 0 0.00118661 0 0)
(0.0877745 0.00780145 0 0.00128456 0 0)
(0.0903623 0.00948193 0 0.00170225 0 0)
(0.0865861 0.0106822 0 0.00210002 0 0)
(0.086929 0.0138568 0 0.00322458 0 0)
(0.0800961 0.0164861 0 0.0046199 0 0)
(0.0770531 0.0226815 0 0.00858644 0 0)
(0.0663603 0.0277597 0 0.0146369 0 0)
(0.0608243 0.0388986 0 0.0314564 0 0)
(0.0548045 0.0478038 0 0.0570223 0 0)
(0.075959 0.081832 0 0.121588 0 0)
(0.0162617 0.000296454 0 0.000129883 0 0)
(0.00291698 0.000929373 0 0.000596393 0 0)
(0.000674801 0.000296567 0 0.000669486 0 0)
(0.000515173 0.000472732 0 0.00161235 0 0)
(0.00166018 0.000978645 0 0.00135017 0 0)
(0.00422894 0.00232858 0 0.00229587 0 0)
(0.00756194 0.00282984 0 0.00139244 0 0)
(0.0116824 0.00430159 0 0.00215041 0 0)
(0.0157024 0.00358437 0 0.00103084 0 0)
(0.0203548 0.00503886 0 0.00167614 0 0)
(0.0243182 0.00331317 0 0.000764208 0 0)
(0.0289027 0.00531105 0 0.00147995 0 0)
(0.0324025 0.00298025 0 0.000569898 0 0)
(0.0365852 0.00564679 0 0.00147013 0 0)
(0.0396377 0.00279768 0 0.000332957 0 0)
(0.043465 0.00600452 0 0.00143741 0 0)
(0.0463152 0.0025499 0 0.000277173 0 0)
(0.0504294 0.00641845 0 0.00148787 0 0)
(0.0533341 0.00221489 0 0.000268945 0 0)
(0.0578215 0.00673308 0 0.00133446 0 0)
(0.0608803 0.00182066 0 0.00021871 0 0)
(0.0656476 0.00707504 0 0.00127483 0 0)
(0.0687741 0.00165534 0 0.000221042 0 0)
(0.0736516 0.00760535 0 0.00132294 0 0)
(0.0767226 0.0016982 0 0.000264227 0 0)
(0.0815621 0.00830448 0 0.00128345 0 0)
(0.0845477 0.00199853 0 0.000360886 0 0)
(0.0891259 0.00918387 0 0.00141839 0 0)
(0.0918062 0.00285294 0 0.000464392 0 0)
(0.0959504 0.0106539 0 0.00171211 0 0)
(0.0979637 0.00474799 0 0.000700055 0 0)
(0.101178 0.0133325 0 0.00241169 0 0)
(0.10193 0.00873753 0 0.00139605 0 0)
(0.103524 0.0187744 0 0.00441308 0 0)
(0.102417 0.0171769 0 0.00386699 0 0)
(0.102467 0.0304739 0 0.0109861 0 0)
(0.101135 0.0352016 0 0.0145829 0 0)
(0.103761 0.0575348 0 0.037716 0 0)
(0.109735 0.0761642 0 0.0634741 0 0)
(0.115422 0.109618 0 0.128366 0 0)
(0.0162521 0.000360778 0 5.20405e-05 0 0)
(0.0028282 0.000540281 0 0.000210074 0 0)
(0.000666301 0.000245374 0 0.000419605 0 0)
(0.000454928 0.000195183 0 0.000646471 0 0)
(0.00136236 0.00065564 0 0.000940008 0 0)
(0.00340766 0.00140531 0 0.000993099 0 0)
(0.00621136 0.00216179 0 0.00109238 0 0)
(0.00965704 0.00259319 0 0.000888178 0 0)
(0.0132712 0.00301319 0 0.000859847 0 0)
(0.0173555 0.00287163 0 0.000616734 0 0)
(0.0211452 0.00317082 0 0.000673924 0 0)
(0.025211 0.00274869 0 0.000489324 0 0)
(0.0285791 0.00321821 0 0.00059985 0 0)
(0.0322418 0.00272455 0 0.000365001 0 0)
(0.0351698 0.00331976 0 0.000535261 0 0)
(0.0385696 0.00274124 0 0.000370058 0 0)
(0.0413427 0.00351696 0 0.000536835 0 0)
(0.0448846 0.00272891 0 0.000379945 0 0)
(0.0476801 0.00359125 0 0.00048144 0 0)
(0.0516116 0.00265242 0 0.000352631 0 0)
(0.054642 0.00361196 0 0.000419949 0 0)
(0.0590002 0.00263653 0 0.000306518 0 0)
(0.0620121 0.00377041 0 0.000404323 0 0)
(0.0666031 0.00283744 0 0.000374654 0 0)
(0.069455 0.00408315 0 0.000427624 0 0)
(0.0742507 0.00325743 0 0.000376554 0 0)
(0.0768576 0.00459609 0 0.000449493 0 0)
(0.0817484 0.00399058 0 0.000515596 0 0)
(0.0839917 0.00554062 0 0.000568551 0 0)
(0.0888189 0.00548931 0 0.000731593 0 0)
(0.0904695 0.00743491 0 0.000894598 0 0)
(0.0949995 0.00842991 0 0.00126298 0 0)
(0.0957804 0.0114097 0 0.00182364 0 0)
(0.0998221 0.014602 0 0.00294663 0 0)
(0.0998173 0.0199798 0 0.00496546 0 0)
(0.103906 0.0275078 0 0.00880584 0 0)
(0.104681 0.0379498 0 0.0164627 0 0)
(0.110729 0.052692 0 0.030153 0 0)
(0.113979 0.0703376 0 0.0541378 0 0)
(0.117854 0.0871342 0 0.0821909 0 0)
(0.0163128 0.000162047 0 2.62777e-05 0 0)
(0.00279985 0.000392207 0 0.000137351 0 0)
(0.000698623 0.000102882 0 0.000180559 0 0)
(0.000461997 8.88294e-05 0 0.000381936 0 0)
(0.00123848 0.0003674 0 0.000403476 0 0)
(0.0029412 0.000920276 0 0.000616041 0 0)
(0.00540825 0.0013079 0 0.000465159 0 0)
(0.00838736 0.00184075 0 0.000592129 0 0)
(0.0117851 0.0017683 0 0.000344723 0 0)
(0.0154146 0.00220496 0 0.000440199 0 0)
(0.0191574 0.00173097 0 0.000244502 0 0)
(0.0227869 0.00226068 0 0.000361645 0 0)
(0.0261865 0.00160884 0 0.000204487 0 0)
(0.0294444 0.00235798 0 0.000350176 0 0)
(0.0324192 0.00161976 0 0.000166794 0 0)
(0.0353285 0.00252963 0 0.000334516 0 0)
(0.0381642 0.00156581 0 0.000153505 0 0)
(0.0411842 0.00260326 0 0.000343934 0 0)
(0.0440647 0.00153516 0 0.000195396 0 0)
(0.0474496 0.00268005 0 0.000307759 0 0)
(0.0506006 0.00149454 0 0.000141772 0 0)
(0.0543971 0.00274556 0 0.000297321 0 0)
(0.0576275 0.00151179 0 0.000146071 0 0)
(0.0615598 0.00301343 0 0.000321863 0 0)
(0.0647169 0.00175054 0 0.000209471 0 0)
(0.068789 0.00342233 0 0.000330081 0 0)
(0.0717971 0.00223885 0 0.000233345 0 0)
(0.0760022 0.00412128 0 0.000439208 0 0)
(0.0788814 0.00314916 0 0.000339479 0 0)
(0.0830669 0.00554608 0 0.000625267 0 0)
(0.0856959 0.00509785 0 0.000609747 0 0)
(0.0899252 0.00838051 0 0.00116369 0 0)
(0.0922746 0.00917677 0 0.00141239 0 0)
(0.0966168 0.0144184 0 0.00282765 0 0)
(0.0990561 0.0177483 0 0.00420214 0 0)
(0.104516 0.0268837 0 0.00843437 0 0)
(0.10877 0.0351995 0 0.0138456 0 0)
(0.118013 0.0518171 0 0.0267846 0 0)
(0.125983 0.0690519 0 0.0442091 0 0)
(0.131996 0.0936649 0 0.0767214 0 0)
(0.0162989 0.00013824 0 2.30323e-05 0 0)
(0.00274065 0.000178889 0 7.05195e-05 0 0)
(0.000682964 7.06071e-05 0 0.000103317 0 0)
(0.000444769 2.3976e-05 0 0.000135558 0 0)
(0.00112785 0.000200842 0 0.000196005 0 0)
(0.0026319 0.000482606 0 0.000218495 0 0)
(0.0048292 0.000782785 0 0.000234188 0 0)
(0.00757658 0.000956683 0 0.000209027 0 0)
(0.0107367 0.00112099 0 0.000186181 0 0)
(0.0142248 0.00110516 0 0.000148181 0 0)
(0.0177598 0.0012019 0 0.000150826 0 0)
(0.021292 0.00109232 0 0.000132281 0 0)
(0.0245214 0.00120827 0 0.000136057 0 0)
(0.0277006 0.00110888 0 0.00011008 0 0)
(0.0304424 0.00123759 0 0.00012824 0 0)
(0.0333544 0.00112939 0 0.000116628 0 0)
(0.0359703 0.0012701 0 0.000121618 0 0)
(0.0389512 0.00113803 0 0.000124993 0 0)
(0.0415889 0.00129132 0 0.000124285 0 0)
(0.0449128 0.00116643 0 0.000117046 0 0)
(0.0478022 0.00133224 0 0.000109563 0 0)
(0.0516191 0.0012445 0 0.000122418 0 0)
(0.0546237 0.00142663 0 0.000107523 0 0)
(0.0585849 0.00143775 0 0.00014242 0 0)
(0.0614984 0.00167001 0 0.000146274 0 0)
(0.0656602 0.00183548 0 0.000171533 0 0)
(0.0684261 0.00217656 0 0.000168979 0 0)
(0.0728067 0.00253299 0 0.000245375 0 0)
(0.0755358 0.00310112 0 0.000285803 0 0)
(0.0800732 0.00392141 0 0.000404 0 0)
(0.0826965 0.0050678 0 0.00055329 0 0)
(0.0876092 0.00669453 0 0.000860669 0 0)
(0.0903914 0.00899699 0 0.00134973 0 0)
(0.096058 0.0123935 0 0.0022666 0 0)
(0.0997672 0.0171309 0 0.003949 0 0)
(0.107584 0.0241957 0 0.00692019 0 0)
(0.114428 0.0340417 0 0.0124217 0 0)
(0.127268 0.04833 0 0.0216718 0 0)
(0.137941 0.0664679 0 0.037165 0 0)
(0.142499 0.0852439 0 0.0590206 0 0)
(0.0163274 0.000153489 0 5.62738e-05 0 0)
(0.00269345 -4.17819e-05 0 7.44216e-05 0 0)
(0.000678248 3.67804e-05 0 7.49234e-05 0 0)
(0.00043121 -1.71696e-05 0 6.72168e-05 0 0)
(0.00108071 7.00989e-05 0 0.000102887 0 0)
(0.00249576 9.5796e-05 0 6.07302e-05 0 0)
(0.00463211 0.000324156 0 0.000106494 0 0)
(0.00720282 0.000143689 0 5.8359e-05 0 0)
(0.0103842 0.000533834 0 9.80239e-05 0 0)
(0.0136737 7.5395e-05 0 5.44312e-05 0 0)
(0.0173394 0.00068713 0 9.65193e-05 0 0)
(0.0205733 -2.69538e-05 0 5.98647e-05 0 0)
(0.0240319 0.000766379 0 9.68529e-05 0 0)
(0.0268776 -0.000124551 0 5.57027e-05 0 0)
(0.029887 0.000813745 0 9.59945e-05 0 0)
(0.0323949 -0.000165477 0 5.97177e-05 0 0)
(0.0353115 0.000818352 0 9.43974e-05 0 0)
(0.0378513 -0.000299755 0 6.20247e-05 0 0)
(0.0408909 0.000858758 0 9.35658e-05 0 0)
(0.043707 -0.000320918 0 6.45035e-05 0 0)
(0.0470444 0.00100499 0 9.40468e-05 0 0)
(0.0502708 -0.000241754 0 6.68643e-05 0 0)
(0.0537934 0.00112056 0 9.71664e-05 0 0)
(0.0571507 -0.000157551 0 7.07749e-05 0 0)
(0.0606726 0.00137995 0 0.000112786 0 0)
(0.0641725 0.000153717 0 9.01429e-05 0 0)
(0.0676649 0.00181861 0 0.000141165 0 0)
(0.0713636 0.000817693 0 0.00012842 0 0)
(0.0749673 0.00270078 0 0.000222199 0 0)
(0.0789407 0.00212583 0 0.000232906 0 0)
(0.0826913 0.00457242 0 0.000453195 0 0)
(0.0872208 0.00476723 0 0.000562002 0 0)
(0.091588 0.00825625 0 0.00113548 0 0)
(0.0973743 0.0100123 0 0.00163979 0 0)
(0.103467 0.0156746 0 0.00325147 0 0)
(0.112462 0.0206747 0 0.00523183 0 0)
(0.122814 0.0311581 0 0.0100038 0 0)
(0.137874 0.0427395 0 0.0165671 0 0)
(0.152015 0.06103 0 0.0290305 0 0)
(0.156699 0.0782239 0 0.0456981 0 0)
(0.0162663 1.98797e-06 0 1.50215e-05 0 0)
(0.00271371 -0.000146326 0 5.69242e-05 0 0)
(0.000661252 -1.54694e-05 0 4.35123e-05 0 0)
(0.000434811 -3.40637e-05 0 5.4705e-05 0 0)
(0.00107186 -7.27708e-05 0 6.01229e-05 0 0)
(0.00250411 -0.000192764 0 7.80551e-05 0 0)
(0.00458263 -0.000216749 0 6.05458e-05 0 0)
(0.00726182 -0.000394787 0 8.72009e-05 0 0)
(0.010288 -0.000296683 0 7.11814e-05 0 0)
(0.0138168 -0.000473024 0 8.28664e-05 0 0)
(0.017197 -0.000252635 0 7.2274e-05 0 0)
(0.0207389 -0.000450034 0 9.114e-05 0 0)
(0.023837 -0.000261256 0 7.67893e-05 0 0)
(0.027027 -0.000443098 0 9.46256e-05 0 0)
(0.0296354 -0.000340114 0 8.8418e-05 0 0)
(0.0325691 -0.000475542 0 9.95271e-05 0 0)
(0.035034 -0.000438271 0 9.38745e-05 0 0)
(0.0380932 -0.000497322 0 8.85564e-05 0 0)
(0.0406624 -0.000460516 0 8.61038e-05 0 0)
(0.0440127 -0.000389549 0 8.28067e-05 0 0)
(0.046833 -0.000403664 0 9.02204e-05 0 0)
(0.0506011 -0.000182694 0 9.19845e-05 0 0)
(0.0536021 -0.000367426 0 9.41747e-05 0 0)
(0.0575387 3.1147e-05 0 9.51884e-05 0 0)
(0.0605322 -0.000244761 0 9.16695e-05 0 0)
(0.0646581 0.000464982 0 0.000105383 0 0)
(0.0676719 7.62198e-05 0 0.000113521 0 0)
(0.0720942 0.00126658 0 0.000158149 0 0)
(0.0752634 0.000856061 0 0.00016365 0 0)
(0.080144 0.00270368 0 0.000285263 0 0)
(0.0835748 0.00257105 0 0.000317913 0 0)
(0.0892479 0.00544791 0 0.000638992 0 0)
(0.0935715 0.00593905 0 0.000833687 0 0)
(0.100991 0.010517 0 0.00167604 0 0)
(0.107604 0.012442 0 0.0023855 0 0)
(0.11919 0.0200338 0 0.00459103 0 0)
(0.131414 0.0249399 0 0.00684632 0 0)
(0.150316 0.0385235 0 0.0128031 0 0)
(0.168258 0.0504623 0 0.020329 0 0)
(0.173204 0.0762929 0 0.0409449 0 0)
(0.0162191 8.42552e-05 0 0.000226942 0 0)
(0.00277565 -0.00063083 0 0.000887838 0 0)
(0.000659423 -3.53375e-06 0 0.000316403 0 0)
(0.000446837 -0.000201822 0 0.00072573 0 0)
(0.00109777 -0.000187494 0 0.000442299 0 0)
(0.0026728 -0.000768743 0 0.000912528 0 0)
(0.00483103 -0.000502658 0 0.000385654 0 0)
(0.00770919 -0.00167865 0 0.00100267 0 0)
(0.0108255 -0.000396433 0 0.000345484 0 0)
(0.0145543 -0.00235143 0 0.000894523 0 0)
(0.0179111 4.64077e-05 0 0.000347524 0 0)
(0.0216449 -0.00281455 0 0.000816404 0 0)
(0.0247399 0.000455044 0 0.000350806 0 0)
(0.0280651 -0.00330551 0 0.000853937 0 0)
(0.0307399 0.000703653 0 0.000285141 0 0)
(0.0337708 -0.0037565 0 0.000922279 0 0)
(0.0363183 0.000899823 0 0.000252993 0 0)
(0.0394369 -0.00414496 0 0.000925378 0 0)
(0.0421636 0.00122553 0 0.000246414 0 0)
(0.0455239 -0.00447194 0 0.000868984 0 0)
(0.0485894 0.00168829 0 0.000244283 0 0)
(0.0522397 -0.0047789 0 0.000822524 0 0)
(0.0555609 0.00212635 0 0.000256979 0 0)
(0.0593295 -0.00516569 0 0.00079279 0 0)
(0.0628145 0.00263494 0 0.000267733 0 0)
(0.0667155 -0.00534217 0 0.00072077 0 0)
(0.0703907 0.00332692 0 0.000313294 0 0)
(0.0745062 -0.00512447 0 0.000654903 0 0)
(0.0785482 0.00445881 0 0.000422078 0 0)
(0.0831233 -0.00426403 0 0.000574339 0 0)
(0.0877058 0.00639094 0 0.00070416 0 0)
(0.0931368 -0.00212429 0 0.000554826 0 0)
(0.0989824 0.00987729 0 0.00137768 0 0)
(0.106343 0.00208041 0 0.000917162 0 0)
(0.11492 0.0160265 0 0.00303392 0 0)
(0.126655 0.00958677 0 0.00234901 0 0)
(0.141657 0.0261547 0 0.0065139 0 0)
(0.163366 0.0214214 0 0.00584794 0 0)
(0.191675 0.0422422 0 0.0129827 0 0)
(0.208778 0.0438798 0 0.0154585 0 0)
(0.0162033 -0.000109009 0 6.57308e-05 0 0)
(0.00299024 -0.000665993 0 0.000322098 0 0)
(0.000737073 -5.08744e-05 0 0.000199044 0 0)
(0.000571827 -0.000295039 0 0.000541034 0 0)
(0.00122301 -0.000353127 0 0.000415817 0 0)
(0.00309319 -0.00118097 0 0.000876844 0 0)
(0.00545638 -0.00117684 0 0.00042692 0 0)
(0.00877591 -0.00229519 0 0.000920361 0 0)
(0.0120326 -0.00140381 0 0.000323578 0 0)
(0.0161724 -0.00289101 0 0.000780175 0 0)
(0.0195308 -0.00112109 0 0.00026502 0 0)
(0.023711 -0.00318199 0 0.000681547 0 0)
(0.026612 -0.000757521 0 0.000237045 0 0)
(0.0304438 -0.00351518 0 0.000700535 0 0)
(0.0329147 -0.000543944 0 0.000172703 0 0)
(0.0364223 -0.00387792 0 0.000747606 0 0)
(0.0387838 -0.000368027 0 0.000145706 0 0)
(0.0424786 -0.00417874 0 0.000753613 0 0)
(0.044953 -5.51195e-05 0 0.000137053 0 0)
(0.0489496 -0.00439533 0 0.000700611 0 0)
(0.0517125 0.000363297 0 0.000130712 0 0)
(0.0559753 -0.00461881 0 0.000656581 0 0)
(0.0590042 0.00076355 0 0.00012728 0 0)
(0.0634605 -0.00491522 0 0.000635614 0 0)
(0.06666 0.00124328 0 0.000141759 0 0)
(0.0713031 -0.00502783 0 0.000570166 0 0)
(0.0747687 0.00194256 0 0.000183895 0 0)
(0.0796312 -0.00478902 0 0.000501632 0 0)
(0.0836255 0.00312658 0 0.000287826 0 0)
(0.0889737 -0.00396048 0 0.000408584 0 0)
(0.0937645 0.00510019 0 0.0005585 0 0)
(0.100075 -0.00196509 0 0.000383705 0 0)
(0.106435 0.00860349 0 0.00114707 0 0)
(0.114749 0.00187109 0 0.000652166 0 0)
(0.124214 0.0144398 0 0.00252603 0 0)
(0.136744 0.0082108 0 0.00176888 0 0)
(0.151999 0.0231084 0 0.00520607 0 0)
(0.172319 0.0166416 0 0.00420024 0 0)
(0.198637 0.034971 0 0.00948115 0 0)
(0.253558 0.0325119 0 0.00968485 0 0)
(0.0162132 -0.000336675 0 2.05461e-05 0 0)
(0.00290682 -0.000422045 0 0.00015029 0 0)
(0.000688846 -0.00026776 0 0.000352595 0 0)
(0.000475919 -0.000192021 0 0.000580314 0 0)
(0.00134549 -0.000704948 0 0.00094799 0 0)
(0.00344981 -0.0014141 0 0.000921864 0 0)
(0.00623166 -0.00223034 0 0.00109825 0 0)
(0.00978085 -0.0025601 0 0.00079323 0 0)
(0.0134544 -0.0031215 0 0.000880213 0 0)
(0.0176174 -0.00286548 0 0.000571111 0 0)
(0.0213936 -0.00332731 0 0.000686748 0 0)
(0.0255092 -0.00275793 0 0.000447529 0 0)
(0.0288096 -0.00337065 0 0.00058919 0 0)
(0.032532 -0.00267675 0 0.000358671 0 0)
(0.0354408 -0.00353158 0 0.000539864 0 0)
(0.0388469 -0.00269716 0 0.000297463 0 0)
(0.0416737 -0.0036909 0 0.000542199 0 0)
(0.0452772 -0.00267371 0 0.000276051 0 0)
(0.0482232 -0.00375913 0 0.000514946 0 0)
(0.0521911 -0.00253671 0 0.0002392 0 0)
(0.0553631 -0.00385929 0 0.000478661 0 0)
(0.0596452 -0.00241611 0 0.000171937 0 0)
(0.0630472 -0.00401771 0 0.00045685 0 0)
(0.0675839 -0.00231555 0 0.000154474 0 0)
(0.0711278 -0.0041597 0 0.000460908 0 0)
(0.0760007 -0.00205682 0 0.000127313 0 0)
(0.0797646 -0.00409425 0 0.000441736 0 0)
(0.0850536 -0.00150445 0 0.000121513 0 0)
(0.0892968 -0.00357956 0 0.000403739 0 0)
(0.0952936 -0.000397291 0 0.000119643 0 0)
(0.100375 -0.00228845 0 0.000431627 0 0)
(0.107644 0.00174023 0 0.000240353 0 0)
(0.114312 0.000414031 0 0.000615071 0 0)
(0.123848 0.00555458 0 0.000661795 0 0)
(0.133529 0.00514798 0 0.00131758 0 0)
(0.147418 0.0116978 0 0.00183888 0 0)
(0.163125 0.0127741 0 0.00319796 0 0)
(0.187246 0.0222711 0 0.00482985 0 0)
(0.220663 0.0290271 0 0.00845609 0 0)
(0.296452 0.0549045 0 0.0148622 0 0)
(0.0160425 -0.000407197 0 3.05309e-05 0 0)
(0.00311666 -0.000769283 0 0.000221248 0 0)
(0.000553886 -0.000313196 0 0.000581246 0 0)
(0.000560878 -0.00049675 0 0.00119698 0 0)
(0.00155644 -0.000987237 0 0.00149725 0 0)
(0.00429754 -0.0022775 0 0.00177411 0 0)
(0.00737896 -0.00302639 0 0.00157878 0 0)
(0.0118268 -0.00395166 0 0.00151331 0 0)
(0.015462 -0.00405411 0 0.00121896 0 0)
(0.0205685 -0.00444891 0 0.00114803 0 0)
(0.0240875 -0.0041567 0 0.000930317 0 0)
(0.0291229 -0.00442433 0 0.000922673 0 0)
(0.0320999 -0.00408323 0 0.000754865 0 0)
(0.0367014 -0.00442027 0 0.000765991 0 0)
(0.0392552 -0.00412969 0 0.00062296 0 0)
(0.0435605 -0.00450855 0 0.000690185 0 0)
(0.0460736 -0.00418187 0 0.000579167 0 0)
(0.0505301 -0.00454544 0 0.00065389 0 0)
(0.0532394 -0.00412849 0 0.000533137 0 0)
(0.057988 -0.0045275 0 0.000592689 0 0)
(0.0609771 -0.00409091 0 0.000448131 0 0)
(0.0659602 -0.00455823 0 0.00051062 0 0)
(0.0692201 -0.00410102 0 0.00037134 0 0)
(0.0743849 -0.00463178 0 0.000467757 0 0)
(0.0779121 -0.00407603 0 0.000364318 0 0)
(0.0832724 -0.00460121 0 0.000453685 0 0)
(0.0871795 -0.00387568 0 0.000336616 0 0)
(0.0928643 -0.00430671 0 0.000401468 0 0)
(0.0974191 -0.00329974 0 0.000296465 0 0)
(0.103718 -0.00348067 0 0.000337578 0 0)
(0.109327 -0.00203796 0 0.000276478 0 0)
(0.116842 -0.00171323 0 0.000374438 0 0)
(0.124247 0.000498955 0 0.000388456 0 0)
(0.13394 0.00171797 0 0.000629044 0 0)
(0.144606 0.00521833 0 0.000953209 0 0)
(0.158808 0.00799408 0 0.00160263 0 0)
(0.176284 0.0139017 0 0.00265162 0 0)
(0.201123 0.0197309 0 0.00426436 0 0)
(0.238133 0.0299185 0 0.00681652 0 0)
(0.313579 0.0422848 0 0.0102523 0 0)
(0.0159549 -0.000540991 0 6.16968e-05 0 0)
(0.0039931 -0.000882025 0 0.000351397 0 0)
(0.000648447 -0.000276759 0 0.00116512 0 0)
(0.00118892 -0.000889845 0 0.00178945 0 0)
(0.00211286 -0.00122875 0 0.00268183 0 0)
(0.00634514 -0.00343032 0 0.00246016 0 0)
(0.00889425 -0.00404563 0 0.00266735 0 0)
(0.016061 -0.00539559 0 0.00201624 0 0)
(0.0176415 -0.00544057 0 0.00207999 0 0)
(0.0265172 -0.00572064 0 0.00152498 0 0)
(0.0265101 -0.00563779 0 0.00166723 0 0)
(0.0362009 -0.00550347 0 0.00120884 0 0)
(0.0345523 -0.00560405 0 0.00140605 0 0)
(0.0444063 -0.005384 0 0.000945754 0 0)
(0.0415095 -0.00566886 0 0.00122584 0 0)
(0.0515169 -0.0053242 0 0.000805818 0 0)
(0.0479412 -0.00573631 0 0.00115359 0 0)
(0.0583872 -0.00518536 0 0.000754403 0 0)
(0.0544302 -0.00571072 0 0.00106769 0 0)
(0.065332 -0.00499387 0 0.000671561 0 0)
(0.0610814 -0.00572322 0 0.000947464 0 0)
(0.0722653 -0.0048794 0 0.000542019 0 0)
(0.0678008 -0.00578263 0 0.00083257 0 0)
(0.0790613 -0.00479417 0 0.000480192 0 0)
(0.0745328 -0.00582719 0 0.000811366 0 0)
(0.0856692 -0.00464507 0 0.000475622 0 0)
(0.0813488 -0.0057189 0 0.00076003 0 0)
(0.0922682 -0.00427081 0 0.000431516 0 0)
(0.0886038 -0.00531643 0 0.000670431 0 0)
(0.0993091 -0.00349702 0 0.000349794 0 0)
(0.0968873 -0.00434949 0 0.000574047 0 0)
(0.107701 -0.0019633 0 0.000351387 0 0)
(0.107433 -0.00235562 0 0.000551712 0 0)
(0.119042 0.00105654 0 0.000526757 0 0)
(0.122558 0.00175247 0 0.000837434 0 0)
(0.136913 0.00705982 0 0.00136092 0 0)
(0.147613 0.00982788 0 0.00207888 0 0)
(0.170194 0.0179981 0 0.00357891 0 0)
(0.199477 0.0232133 0 0.0047596 0 0)
(0.266307 0.0328012 0 0.00692687 0 0)
(0.0159301 -0.000737907 0 6.25972e-05 0 0)
(0.00409256 -0.00139172 0 0.000601282 0 0)
(0.000729912 -0.000498808 0 0.00182176 0 0)
(0.00157541 -0.00162746 0 0.00306834 0 0)
(0.00297148 -0.00197591 0 0.00405173 0 0)
(0.00884226 -0.00529289 0 0.00399524 0 0)
(0.0111218 -0.00549745 0 0.00393707 0 0)
(0.0203346 -0.00768548 0 0.00325133 0 0)
(0.0194105 -0.00677229 0 0.00309805 0 0)
(0.0303256 -0.0076543 0 0.00248038 0 0)
(0.0257355 -0.00639255 0 0.00246486 0 0)
(0.0375058 -0.00696832 0 0.00189054 0 0)
(0.0297016 -0.00579763 0 0.00200079 0 0)
(0.0415743 -0.00641523 0 0.00143927 0 0)
(0.0314827 -0.00531347 0 0.0017175 0 0)
(0.0433266 -0.00581179 0 0.00120157 0 0)
(0.0319375 -0.00480241 0 0.00157509 0 0)
(0.0437661 -0.00510204 0 0.00105232 0 0)
(0.031686 -0.00425793 0 0.00143009 0 0)
(0.0433148 -0.00439569 0 0.000875069 0 0)
(0.0309115 -0.00378965 0 0.00125531 0 0)
(0.0420707 -0.00377102 0 0.000693032 0 0)
(0.0297102 -0.0034028 0 0.00110192 0 0)
(0.0402084 -0.00316375 0 0.000589784 0 0)
(0.0282728 -0.00300571 0 0.0010231 0 0)
(0.0379119 -0.00252031 0 0.000560186 0 0)
(0.0267844 -0.00257947 0 0.000922389 0 0)
(0.0355187 -0.00179621 0 0.000496463 0 0)
(0.0255848 -0.00209339 0 0.000777622 0 0)
(0.0334563 -0.000956408 0 0.000409096 0 0)
(0.0251193 -0.00145867 0 0.000628155 0 0)
(0.0324138 0.000149869 0 0.00037226 0 0)
(0.0260931 -0.000524828 0 0.000518231 0 0)
(0.0334314 0.00185657 0 0.000482429 0 0)
(0.0298396 0.00120597 0 0.000571744 0 0)
(0.0386002 0.0050176 0 0.00110347 0 0)
(0.0392761 0.00502125 0 0.00133442 0 0)
(0.0525601 0.0118964 0 0.00335402 0 0)
(0.0633006 0.0140662 0 0.00414053 0 0)
(0.0983775 0.0255248 0 0.00758535 0 0)
(0.015997 -0.000980754 0 9.36022e-05 0 0)
(0.00327514 -0.00175224 0 0.00100332 0 0)
(0.000600519 -0.00109533 0 0.00291367 0 0)
(0.0012854 -0.00206364 0 0.00486136 0 0)
(0.00342165 -0.00312731 0 0.00604312 0 0)
(0.00753452 -0.00578139 0 0.0060563 0 0)
(0.00852545 -0.00564645 0 0.00566352 0 0)
(0.010851 -0.00639292 0 0.00486377 0 0)
(0.00825031 -0.00434665 0 0.00423205 0 0)
(0.00919002 -0.00405594 0 0.00338873 0 0)
(0.00577974 -0.00177114 0 0.00284744 0 0)
(0.00615315 -0.00181822 0 0.00217909 0 0)
(0.00429023 0.000214955 0 0.00190385 0 0)
(0.00413539 -0.000199217 0 0.00147075 0 0)
(0.0058829 0.00176107 0 0.00141403 0 0)
(0.0049632 0.00112165 0 0.00110881 0 0)
(0.011601 0.00299223 0 0.00113668 0 0)
(0.0093695 0.00211208 0 0.000862989 0 0)
(0.0213392 0.0038862 0 0.000912648 0 0)
(0.017279 0.00279349 0 0.00065992 0 0)
(0.0345304 0.00453005 0 0.000722242 0 0)
(0.0284113 0.00326411 0 0.000495178 0 0)
(0.0506349 0.00500255 0 0.000580582 0 0)
(0.0426145 0.0036092 0 0.000396178 0 0)
(0.0691899 0.00534202 0 0.000493285 0 0)
(0.0595785 0.00382048 0 0.00034388 0 0)
(0.0895439 0.00545305 0 0.000408387 0 0)
(0.0787827 0.00381565 0 0.00028331 0 0)
(0.110905 0.00525704 0 0.000313416 0 0)
(0.0992893 0.00351477 0 0.000222316 0 0)
(0.132229 0.00464401 0 0.000231055 0 0)
(0.119801 0.00277889 0 0.000197956 0 0)
(0.151783 0.00336445 0 0.000183991 0 0)
(0.138235 0.00128387 0 0.000273383 0 0)
(0.166563 0.00108093 0 0.000244349 0 0)