/*--------------------------------*- C++ -*----------------------------------*\
| =========                 |                                                 |
| \\      /  F ield         | OpenFOAM: The Open Source CFD Toolbox           |
|  \\    /   O peration     | Version:  2.4.0                                 |
|   \\  /    A nd           | Web:      www.OpenFOAM.org                      |
|    \\/     M anipulation  |                                                 |
\*---------------------------------------------------------------------------*/
FoamFile
{
    version     2.0;
    format      ascii;
    class       volSymmTensorField;
    location    "0.002";
    object      UPrime2Mean;
}
// * * * * * * * * * * * * * * * * * * * * * * * * * * * * * * * * * * * * * //

dimensions      [0 2 -2 0 0 0 0];

internalField   nonuniform List<symmTensor> 
17600
(
(0.0581067 -0.00555832 0 0.00056502 0 0)
(0.170406 -0.00511475 0 0.000260576 0 0)
(0.299342 -0.00657961 0 0.000281005 0 0)
(0.458427 -0.00611558 0 0.000189907 0 0)
(0.610347 -0.00472114 0 0.000116132 0 0)
(0.724883 -0.00326991 0 8.05123e-05 0 0)
(0.807684 -0.00212836 0 6.07927e-05 0 0)
(0.869927 -0.00132895 0 4.76002e-05 0 0)
(0.919836 -0.000793988 0 3.92553e-05 0 0)
(0.962465 -0.000454257 0 3.37344e-05 0 0)
(1.00034 -0.000291886 0 2.94344e-05 0 0)
(1.03511 -0.000251778 0 2.58053e-05 0 0)
(1.06667 -0.000284551 0 2.24264e-05 0 0)
(1.09701 -0.000408971 0 1.94938e-05 0 0)
(1.13055 -0.000673684 0 1.70612e-05 0 0)
(1.16907 -0.0011582 0 1.60376e-05 0 0)
(1.22011 -0.0021809 0 1.885e-05 0 0)
(1.304 -0.00471728 0 4.19399e-05 0 0)
(1.40048 -0.00693144 0 0.000142572 0 0)
(2.97616 -0.0705256 0 0.00336784 0 0)
(0.0878279 0.0046421 0 0.0016671 0 0)
(0.320477 0.0038941 0 0.00158471 0 0)
(0.413826 -0.00285683 0 0.000860253 0 0)
(0.510649 -0.00378562 0 0.000448792 0 0)
(0.600145 -0.00256904 0 0.000306797 0 0)
(0.667144 -0.00120888 0 0.000262862 0 0)
(0.715374 -0.000225547 0 0.000227792 0 0)
(0.750637 0.000324399 0 0.000191456 0 0)
(0.777674 0.000524034 0 0.0001636 0 0)
(0.799498 0.000489409 0 0.000144245 0 0)
(0.817624 0.00026712 0 0.000129609 0 0)
(0.833733 -2.95383e-05 0 0.000116926 0 0)
(0.848229 -0.000357878 0 0.000104387 0 0)
(0.862834 -0.000737002 0 9.36513e-05 0 0)
(0.88036 -0.00127907 0 8.67679e-05 0 0)
(0.901739 -0.00210124 0 8.98423e-05 0 0)
(0.931322 -0.00371822 0 0.00011835 0 0)
(0.981398 -0.00760569 0 0.000258578 0 0)
(1.03269 -0.0245163 0 0.0017825 0 0)
(1.83781 -0.0818516 0 0.00773765 0 0)
(0.0942918 0.0043782 0 0.00112798 0 0)
(0.321101 0.00461161 0 0.00147465 0 0)
(0.391677 -0.00162922 0 0.000850457 0 0)
(0.456629 -0.00260344 0 0.000500726 0 0)
(0.515465 -0.0015549 0 0.00044388 0 0)
(0.560136 -0.00029002 0 0.000441822 0 0)
(0.59335 0.000681239 0 0.000394959 0 0)
(0.61814 0.00125051 0 0.000332095 0 0)
(0.636923 0.00145772 0 0.000288123 0 0)
(0.651259 0.00141315 0 0.000262506 0 0)
(0.661825 0.00116512 0 0.000242242 0 0)
(0.670005 0.000838393 0 0.000221484 0 0)
(0.676235 0.000478807 0 0.000200529 0 0)
(0.681929 7.75781e-05 0 0.000184058 0 0)
(0.689017 -0.000484455 0 0.000177097 0 0)
(0.697926 -0.00129851 0 0.000193753 0 0)
(0.711281 -0.00283432 0 0.000272297 0 0)
(0.735904 -0.00648056 0 0.00062744 0 0)
(0.756468 -0.0201411 0 0.00379838 0 0)
(1.19001 -0.0748597 0 0.0135826 0 0)
(0.0951564 0.00438033 0 0.00101682 0 0)
(0.318961 0.00547117 0 0.00144862 0 0)
(0.378339 -0.000368896 0 0.000895589 0 0)
(0.42641 -0.00167857 0 0.000625567 0 0)
(0.468658 -0.000914011 0 0.000609831 0 0)
(0.500976 0.000245065 0 0.000606622 0 0)
(0.525802 0.00116988 0 0.000531477 0 0)
(0.544925 0.00168913 0 0.000444292 0 0)
(0.55969 0.00184977 0 0.000390844 0 0)
(0.571024 0.00179082 0 0.00036332 0 0)
(0.579282 0.00156671 0 0.000337786 0 0)
(0.585463 0.00128388 0 0.000308466 0 0)
(0.58986 0.000977893 0 0.000279904 0 0)
(0.593569 0.000644307 0 0.000260364 0 0)
(0.597793 0.000174972 0 0.000257339 0 0)
(0.602521 -0.000482144 0 0.000293485 0 0)
(0.609262 -0.00169557 0 0.000437101 0 0)
(0.621299 -0.00457801 0 0.00105736 0 0)
(0.626101 -0.0149797 0 0.00614479 0 0)
(0.852143 -0.0598633 0 0.0198399 0 0)
(0.0950585 0.00413074 0 0.000860383 0 0)
(0.316838 0.00562659 0 0.0013182 0 0)
(0.370871 0.00018793 0 0.00084918 0 0)
(0.410095 -0.00134406 0 0.000617142 0 0)
(0.443279 -0.000743408 0 0.00062662 0 0)
(0.468428 0.00037411 0 0.000632373 0 0)
(0.487903 0.00127074 0 0.000554152 0 0)
(0.503021 0.00175764 0 0.000467337 0 0)
(0.514767 0.00190569 0 0.00042057 0 0)
(0.523844 0.00187027 0 0.000399004 0 0)
(0.530572 0.00169869 0 0.000373687 0 0)
(0.53567 0.00147516 0 0.000341958 0 0)
(0.539337 0.00123131 0 0.00031247 0 0)
(0.542469 0.000971884 0 0.000295453 0 0)
(0.545827 0.000609805 0 0.000300265 0 0)
(0.549215 0.000130953 0 0.000357895 0 0)
(0.553591 -0.000724433 0 0.000570024 0 0)
(0.560504 -0.00278049 0 0.00145745 0 0)
(0.560195 -0.0098863 0 0.00799308 0 0)
(0.693054 -0.0440495 0 0.0251263 0 0)
(0.0948106 0.00379861 0 0.000700107 0 0)
(0.315332 0.00546099 0 0.00114209 0 0)
(0.367107 0.000438336 0 0.000760958 0 0)
(0.401874 -0.00120253 0 0.000562302 0 0)
(0.430233 -0.000711598 0 0.000585087 0 0)
(0.451356 0.000357232 0 0.000597887 0 0)
(0.467583 0.00121588 0 0.00052686 0 0)
(0.480049 0.00168099 0 0.000449802 0 0)
(0.489659 0.00183821 0 0.000412662 0 0)
(0.497078 0.00184037 0 0.000396544 0 0)
(0.502654 0.00172178 0 0.000372712 0 0)
(0.506926 0.00155223 0 0.000341941 0 0)
(0.510041 0.00136448 0 0.000315355 0 0)
(0.512788 0.00117302 0 0.000303781 0 0)
(0.515655 0.000911435 0 0.000318413 0 0)
(0.518373 0.000597353 0 0.00039881 0 0)
(0.521639 6.7313e-05 0 0.00068184 0 0)
(0.52618 -0.00126373 0 0.0018281 0 0)
(0.524439 -0.00573998 0 0.00940857 0 0)
(0.613186 -0.0305553 0 0.0293566 0 0)
(0.0945896 0.00345776 0 0.000560345 0 0)
(0.314442 0.00517408 0 0.000963086 0 0)
(0.365679 0.000546163 0 0.000658677 0 0)
(0.398451 -0.00114984 0 0.000487395 0 0)
(0.424361 -0.000756261 0 0.000513809 0 0)
(0.443328 0.000255816 0 0.000531559 0 0)
(0.457703 0.00108107 0 0.000472116 0 0)
(0.468556 0.00153946 0 0.000407681 0 0)
(0.476791 0.00171953 0 0.000379762 0 0)
(0.483097 0.00176207 0 0.000368506 0 0)
(0.487845 0.00169112 0 0.000347813 0 0)
(0.491479 0.00156844 0 0.000320789 0 0)
(0.494126 0.0014298 0 0.000299541 0 0)
(0.496524 0.00130056 0 0.000294876 0 0)
(0.499013 0.00113183 0 0.000320143 0 0)
(0.5013 0.000966501 0 0.000423485 0 0)
(0.50398 0.000724709 0 0.000776419 0 0)
(0.507411 2.11462e-05 0 0.00216015 0 0)
(0.505481 -0.0023777 0 0.0104342 0 0)
(0.571034 -0.0192806 0 0.0324617 0 0)
(0.0944037 0.00313902 0 0.000446578 0 0)
(0.313904 0.00486295 0 0.000799871 0 0)
(0.365451 0.000606532 0 0.000559048 0 0)
(0.397535 -0.00111406 0 0.000410823 0 0)
(0.422289 -0.00081838 0 0.000434872 0 0)
(0.440169 0.000127257 0 0.000455042 0 0)
(0.453566 0.000920957 0 0.000407578 0 0)
(0.463525 0.0013797 0 0.000355196 0 0)
(0.470965 0.00158592 0 0.000334729 0 0)
(0.476602 0.00166555 0 0.000327543 0 0)
(0.480815 0.00163581 0 0.000310829 0 0)
(0.483997 0.00155426 0 0.000288866 0 0)
(0.486278 0.00146093 0 0.000273754 0 0)
(0.488378 0.00138855 0 0.000276242 0 0)
(0.490572 0.00130523 0 0.000311957 0 0)
(0.492571 0.00127493 0 0.000437204 0 0)
(0.494952 0.00129125 0 0.000855317 0 0)
(0.497942 0.00114437 0 0.00244416 0 0)
(0.496221 0.000425746 0 0.0111169 0 0)
(0.548782 -0.00999163 0 0.0344839 0 0)
(0.0942388 0.00284382 0 0.000355413 0 0)
(0.313525 0.00455077 0 0.000656924 0 0)
(0.365726 0.000649672 0 0.000467739 0 0)
(0.397732 -0.00106936 0 0.000340222 0 0)
(0.421959 -0.000870393 0 0.00035955 0 0)
(0.439292 4.50795e-08 0 0.000380031 0 0)
(0.452186 0.000759321 0 0.00034306 0 0)
(0.461682 0.00121808 0 0.000300913 0 0)
(0.468708 0.00144831 0 0.000286042 0 0)
(0.473992 0.00156058 0 0.000282051 0 0)
(0.477908 0.001568 0 0.00026937 0 0)
(0.480822 0.00152481 0 0.000252684 0 0)
(0.482866 0.00147422 0 0.000243572 0 0)
(0.484753 0.00145641 0 0.000252755 0 0)
(0.486744 0.00145461 0 0.000298084 0 0)
(0.488572 0.00155087 0 0.000443237 0 0)
(0.490846 0.00180414 0 0.000918923 0 0)
(0.493786 0.00216337 0 0.00267383 0 0)
(0.492404 0.00281537 0 0.011507 0 0)
(0.537241 -0.00240492 0 0.0355411 0 0)
(0.0940814 0.00256843 0 0.000282325 0 0)
(0.313202 0.00424056 0 0.000533765 0 0)
(0.366171 0.00068432 0 0.000386166 0 0)
(0.398364 -0.00100746 0 0.000277905 0 0)
(0.422339 -0.000899073 0 0.000292306 0 0)
(0.43936 -0.000109837 0 0.000311738 0 0)
(0.451965 0.000609255 0 0.000283425 0 0)
(0.461203 0.0010633 0 0.000249717 0 0)
(0.468013 0.00131219 0 0.000238909 0 0)
(0.473129 0.00145231 0 0.000237288 0 0)
(0.476908 0.00149389 0 0.000228238 0 0)
(0.479692 0.00148796 0 0.000216427 0 0)
(0.481609 0.00148092 0 0.000212674 0 0)
(0.483374 0.00151718 0 0.000227732 0 0)
(0.485256 0.00159532 0 0.000281475 0 0)
(0.487022 0.00181355 0 0.000443908 0 0)
(0.489341 0.00228884 0 0.000967648 0 0)
(0.492494 0.00311229 0 0.00284664 0 0)
(0.491511 0.00488503 0 0.0116511 0 0)
(0.531592 0.00373622 0 0.035784 0 0)
(0.0939189 0.00230852 0 0.00022345 0 0)
(0.312875 0.00393036 0 0.000428539 0 0)
(0.366645 0.000711027 0 0.000314062 0 0)
(0.399153 -0.000927645 0 0.00022373 0 0)
(0.423004 -0.000900322 0 0.000233882 0 0)
(0.439806 -0.000196025 0 0.000251526 0 0)
(0.452197 0.000476672 0 0.000230327 0 0)
(0.46125 0.000919672 0 0.00020367 0 0)
(0.467919 0.00118114 0 0.000195892 0 0)
(0.472945 0.0013445 0 0.000195967 0 0)
(0.476662 0.0014178 0 0.000189972 0 0)
(0.479395 0.00144883 0 0.000182391 0 0)
(0.481259 0.00148496 0 0.000183211 0 0)
(0.482962 0.0015767 0 0.000203214 0 0)
(0.484806 0.00173524 0 0.00026403 0 0)
(0.486606 0.00207352 0 0.00044078 0 0)
(0.489105 0.00275823 0 0.00100203 0 0)
(0.492672 0.00400598 0 0.00296284 0 0)
(0.492159 0.00668774 0 0.0115888 0 0)
(0.529259 0.00868912 0 0.0353626 0 0)
(0.093751 0.00205985 0 0.000175617 0 0)
(0.312545 0.00361667 0 0.000339168 0 0)
(0.367105 0.000728693 0 0.000250934 0 0)
(0.399998 -0.000831826 0 0.000176929 0 0)
(0.42379 -0.00087297 0 0.00018369 0 0)
(0.440413 -0.000254645 0 0.000199212 0 0)
(0.452613 0.000365856 0 0.000183876 0 0)
(0.461497 0.000791244 0 0.000163274 0 0)
(0.468039 0.00105872 0 0.000157834 0 0)
(0.472993 0.00124059 0 0.000159119 0 0)
(0.476675 0.00134315 0 0.000155648 0 0)
(0.479388 0.00141064 0 0.000151634 0 0)
(0.481217 0.00149155 0 0.000156231 0 0)
(0.482872 0.00164025 0 0.000180244 0 0)
(0.484712 0.00188051 0 0.00024682 0 0)
(0.486629 0.00233779 0 0.000434918 0 0)
(0.489436 0.003221 0 0.00102289 0 0)
(0.493583 0.00485253 0 0.00302522 0 0)
(0.493615 0.00826579 0 0.0113555 0 0)
(0.528897 0.0126451 0 0.034413 0 0)
(0.0935908 0.00181925 0 0.00013619 0 0)
(0.31225 0.00329515 0 0.000263546 0 0)
(0.367561 0.000736286 0 0.000196169 0 0)
(0.400874 -0.000722352 0 0.000136704 0 0)
(0.424652 -0.000818173 0 0.000140849 0 0)
(0.441112 -0.00028538 0 0.000154099 0 0)
(0.453128 0.00027786 0 0.000143593 0 0)
(0.46184 0.000679375 0 0.000128253 0 0)
(0.468249 0.000946789 0 0.000124709 0 0)
(0.473127 0.00114265 0 0.000126852 0 0)
(0.476772 0.00127207 0 0.000125443 0 0)
(0.479469 0.00137519 0 0.000124411 0 0)
(0.481254 0.00150055 0 0.000132074 0 0)
(0.482833 0.00170872 0 0.000159186 0 0)
(0.484645 0.0020338 0 0.000230196 0 0)
(0.486733 0.00261004 0 0.000426845 0 0)
(0.489985 0.00368103 0 0.00103131 0 0)
(0.494869 0.00565704 0 0.00303817 0 0)
(0.495524 0.00965076 0 0.0109825 0 0)
(0.529769 0.0157813 0 0.033052 0 0)
(0.093447 0.00158409 0 0.000103361 0 0)
(0.312 0.00296194 0 0.000199828 0 0)
(0.368039 0.000734005 0 0.000149247 0 0)
(0.40177 -0.000601036 0 0.000102457 0 0)
(0.425564 -0.000736742 0 0.000104599 0 0)
(0.441874 -0.000287481 0 0.000115545 0 0)
(0.453712 0.000213821 0 0.00010895 0 0)
(0.462246 0.000585517 0 9.81718e-05 0 0)
(0.468512 0.000846752 0 9.61742e-05 0 0)
(0.473303 0.0010519 0 9.89021e-05 0 0)
(0.476907 0.00120557 0 9.91826e-05 0 0)
(0.479579 0.00134244 0 0.000100645 0 0)
(0.481294 0.00151303 0 0.000110722 0 0)
(0.482769 0.00178243 0 0.000140036 0 0)
(0.484509 0.00219608 0 0.000214114 0 0)
(0.486735 0.00289267 0 0.000416594 0 0)
(0.490556 0.00414101 0 0.00102829 0 0)
(0.496336 0.00642192 0 0.00300725 0 0)
(0.497704 0.0108643 0 0.0104987 0 0)
(0.531471 0.0182177 0 0.0313803 0 0)
(0.0933225 0.0013523 0 7.59114e-05 0 0)
(0.311802 0.00261366 0 0.000146499 0 0)
(0.368557 0.000721415 0 0.000109628 0 0)
(0.40269 -0.000469038 0 7.37373e-05 0 0)
(0.426518 -0.000630231 0 7.4367e-05 0 0)
(0.442698 -0.000262308 0 8.30326e-05 0 0)
(0.454363 0.000173001 0 7.95185e-05 0 0)
(0.462714 0.00050934 0 7.26018e-05 0 0)
(0.468829 0.000758904 0 7.18703e-05 0 0)
(0.473519 0.000968817 0 7.49376e-05 0 0)
(0.477074 0.00114344 0 7.65757e-05 0 0)
(0.479701 0.00131239 0 8.0074e-05 0 0)
(0.481333 0.00152631 0 9.19523e-05 0 0)
(0.482701 0.00185818 0 0.000122665 0 0)
(0.484347 0.00236219 0 0.000198497 0 0)
(0.486613 0.00318368 0 0.000403852 0 0)
(0.491017 0.00460031 0 0.00101437 0 0)
(0.497861 0.00714701 0 0.00293834 0 0)
(0.500049 0.0119238 0 0.00992929 0 0)
(0.533769 0.0200695 0 0.0294836 0 0)
(0.0932175 0.00112207 0 5.30767e-05 0 0)
(0.311658 0.00224759 0 0.00010244 0 0)
(0.369113 0.0006985 0 7.69168e-05 0 0)
(0.403639 -0.000327049 0 5.02902e-05 0 0)
(0.427515 -0.000498951 0 4.97693e-05 0 0)
(0.443581 -0.000209757 0 5.62596e-05 0 0)
(0.455078 0.000155939 0 5.5033e-05 0 0)
(0.463242 0.000451618 0 5.12759e-05 0 0)
(0.469197 0.000683864 0 5.1515e-05 0 0)
(0.473779 0.00089339 0 5.47004e-05 0 0)
(0.477282 0.00108533 0 5.74021e-05 0 0)
(0.479842 0.0012839 0 6.24638e-05 0 0)
(0.48138 0.0015416 0 7.55433e-05 0 0)
(0.482656 0.00193426 0 0.00010693 0 0)
(0.484211 0.00252775 0 0.000183324 0 0)
(0.48644 0.00347712 0 0.000388474 0 0)
(0.491289 0.00505653 0 0.00098984 0 0)
(0.499324 0.00782796 0 0.00283668 0 0)
(0.502476 0.0128336 0 0.00929724 0 0)
(0.53649 0.0214068 0 0.0274355 0 0)
(0.0931323 0.000891481 0 3.43754e-05 0 0)
(0.311573 0.00186135 0 6.68579e-05 0 0)
(0.369702 0.000665417 0 5.07329e-05 0 0)
(0.404617 -0.000175077 0 3.19136e-05 0 0)
(0.428551 -0.000343861 0 3.05792e-05 0 0)
(0.444519 -0.000131085 0 3.50404e-05 0 0)
(0.455855 0.000161788 0 3.5349e-05 0 0)
(0.463832 0.000411834 0 3.40108e-05 0 0)
(0.469623 0.00062151 0 3.49465e-05 0 0)
(0.47409 0.000825692 0 3.80441e-05 0 0)
(0.477532 0.00103051 0 4.14938e-05 0 0)
(0.480015 0.0012567 0 4.76339e-05 0 0)
(0.481466 0.00155606 0 6.1345e-05 0 0)
(0.482661 0.00200775 0 9.27557e-05 0 0)
(0.484136 0.00268767 0 0.000168531 0 0)
(0.486303 0.00376303 0 0.00037066 0 0)
(0.491413 0.00550071 0 0.000955118 0 0)
(0.500672 0.00846109 0 0.00270623 0 0)
(0.504949 0.0135984 0 0.00862199 0 0)
(0.539534 0.0223014 0 0.0252973 0 0)
(0.0930657 0.000658721 0 1.96185e-05 0 0)
(0.311537 0.00145306 0 3.9217e-05 0 0)
(0.370303 0.000623784 0 3.08012e-05 0 0)
(0.40558 -1.22098e-05 0 1.85295e-05 0 0)
(0.429565 -0.000165197 0 1.67033e-05 0 0)
(0.445449 -2.68208e-05 0 1.93257e-05 0 0)
(0.456648 0.000190003 0 2.04323e-05 0 0)
(0.464459 0.000389566 0 2.07487e-05 0 0)
(0.470093 0.000571586 0 2.20977e-05 0 0)
(0.474449 0.000765125 0 2.49243e-05 0 0)
(0.477822 0.000978798 0 2.87757e-05 0 0)
(0.480224 0.0012293 0 3.55004e-05 0 0)
(0.481593 0.00157008 0 4.93372e-05 0 0)
(0.482724 0.00207705 0 8.01566e-05 0 0)
(0.484138 0.0028399 0 0.000154189 0 0)
(0.486256 0.00403329 0 0.000350749 0 0)
(0.491494 0.00592367 0 0.000910797 0 0)
(0.50198 0.00903422 0 0.00255125 0 0)
(0.507471 0.0142068 0 0.00792063 0 0)
(0.542794 0.0227935 0 0.0231202 0 0)
(0.0930157 0.000422254 0 8.86669e-06 0 0)
(0.311522 0.00102159 0 1.92187e-05 0 0)
(0.370871 0.000575717 0 1.68514e-05 0 0)
(0.406458 0.0001643 0 1.01094e-05 0 0)
(0.430438 3.5935e-05 0 8.20521e-06 0 0)
(0.446245 0.000100315 0 9.16289e-06 0 0)
(0.457342 0.000237144 0 1.03277e-05 0 0)
(0.465044 0.00038146 0 1.14878e-05 0 0)
(0.470563 0.000531986 0 1.29837e-05 0 0)
(0.474834 0.000710438 0 1.53832e-05 0 0)
(0.47813 0.000928548 0 1.92406e-05 0 0)
(0.480457 0.00120167 0 2.60499e-05 0 0)
(0.481768 0.00157977 0 3.95336e-05 0 0)
(0.482852 0.00213969 0 6.92152e-05 0 0)
(0.484226 0.0029802 0 0.000140449 0 0)
(0.486316 0.00428236 0 0.00032894 0 0)
(0.491642 0.00631639 0 0.000857693 0 0)
(0.503249 0.00953949 0 0.00237693 0 0)
(0.509983 0.0146668 0 0.00720735 0 0)
(0.546209 0.0229377 0 0.0209453 0 0)
(0.0929773 0.000181876 0 2.43874e-06 0 0)
(0.311473 0.000568293 0 6.88178e-06 0 0)
(0.371216 0.000524638 0 8.79384e-06 0 0)
(0.407024 0.000356555 0 6.76961e-06 0 0)
(0.430996 0.000257883 0 5.25492e-06 0 0)
(0.446775 0.000246706 0 4.72116e-06 0 0)
(0.457822 0.000298425 0 5.16258e-06 0 0)
(0.465482 0.000382311 0 6.30093e-06 0 0)
(0.470958 0.000498158 0 7.64016e-06 0 0)
(0.475198 0.000657871 0 9.47789e-06 0 0)
(0.478441 0.0008785 0 1.29457e-05 0 0)
(0.480713 0.00117105 0 1.93284e-05 0 0)
(0.481982 0.00158532 0 3.201e-05 0 0)
(0.483039 0.00219324 0 6.00353e-05 0 0)
(0.484402 0.00310674 0 0.00012758 0 0)
(0.486493 0.00450635 0 0.000305679 0 0)
(0.491907 0.00667022 0 0.000797592 0 0)
(0.504352 0.00996786 0 0.00218825 0 0)
(0.512347 0.014979 0 0.00649255 0 0)
(0.549664 0.0227663 0 0.018808 0 0)
(0.0929761 -6.02696e-05 0 7.04142e-07 0 0)
(0.311434 0.000101865 0 2.59111e-06 0 0)
(0.371185 0.000469514 0 6.79994e-06 0 0)
(0.406983 0.000556975 0 8.6e-06 0 0)
(0.430953 0.000491199 0 8.00208e-06 0 0)
(0.446828 0.00040241 0 6.14178e-06 0 0)
(0.457968 0.000365255 0 5.08098e-06 0 0)
(0.465677 0.000384628 0 5.32253e-06 0 0)
(0.471205 0.000462949 0 6.17285e-06 0 0)
(0.475484 0.000602231 0 7.28293e-06 0 0)
(0.478718 0.000824472 0 9.97072e-06 0 0)
(0.480977 0.00113599 0 1.54509e-05 0 0)
(0.482238 0.00158224 0 2.68235e-05 0 0)
(0.483279 0.00223463 0 5.27153e-05 0 0)
(0.484665 0.00321483 0 0.000115838 0 0)
(0.486787 0.00470106 0 0.000281605 0 0)
(0.492311 0.00697372 0 0.000732919 0 0)
(0.505294 0.010313 0 0.0019895 0 0)
(0.514522 0.015155 0 0.00578392 0 0)
(0.553147 0.0223099 0 0.0167371 0 0)
(0.0930179 -0.000300323 0 3.718e-06 0 0)
(0.311426 -0.000362269 0 6.74871e-06 0 0)
(0.370839 0.000406171 0 1.1061e-05 0 0)
(0.406376 0.000748593 0 1.55092e-05 0 0)
(0.430302 0.000717997 0 1.63374e-05 0 0)
(0.446329 0.000553145 0 1.33723e-05 0 0)
(0.457719 0.000427412 0 1.00366e-05 0 0)
(0.465604 0.00038268 0 8.58405e-06 0 0)
(0.47125 0.000421326 0 8.7177e-06 0 0)
(0.475631 0.000537942 0 8.93167e-06 0 0)
(0.478917 0.000763333 0 1.04558e-05 0 0)
(0.481213 0.0010924 0 1.45738e-05 0 0)
(0.482522 0.00157014 0 2.42039e-05 0 0)
(0.483588 0.0022611 0 4.74334e-05 0 0)
(0.485008 0.00330225 0 0.000105518 0 0)
(0.487198 0.00486262 0 0.000257519 0 0)
(0.492849 0.00722035 0 0.000665768 0 0)
(0.506192 0.0105642 0 0.00178446 0 0)
(0.516648 0.0151775 0 0.00509022 0 0)
(0.556612 0.0215808 0 0.0147564 0 0)
(0.0930757 -0.000536619 0 1.12027e-05 0 0)
(0.311431 -0.000810507 0 1.94545e-05 0 0)
(0.37031 0.000338234 0 2.17103e-05 0 0)
(0.405495 0.000923743 0 2.72355e-05 0 0)
(0.429374 0.000923586 0 2.99831e-05 0 0)
(0.44555 0.000685491 0 2.61935e-05 0 0)
(0.457188 0.000475517 0 1.98363e-05 0 0)
(0.465337 0.000370095 0 1.59127e-05 0 0)
(0.471142 0.000371063 0 1.52544e-05 0 0)
(0.475615 0.000462772 0 1.45749e-05 0 0)
(0.479019 0.000690645 0 1.45827e-05 0 0)
(0.48141 0.00103882 0 1.69219e-05 0 0)
(0.482817 0.00154428 0 2.4391e-05 0 0)
(0.483962 0.0022705 0 4.44599e-05 0 0)
(0.485424 0.00336464 0 9.68595e-05 0 0)
(0.487719 0.00498672 0 0.000234157 0 0)
(0.493521 0.00740592 0 0.000597834 0 0)
(0.507163 0.0107196 0 0.00157762 0 0)
(0.518797 0.0150541 0 0.00442143 0 0)
(0.560035 0.0206017 0 0.0128843 0 0)
(0.0931463 -0.000769818 0 2.29468e-05 0 0)
(0.311482 -0.00123799 0 4.07723e-05 0 0)
(0.369731 0.000272753 0 3.89232e-05 0 0)
(0.404537 0.00108233 0 4.36939e-05 0 0)
(0.428375 0.0011024 0 4.86426e-05 0 0)
(0.444687 0.000792603 0 4.43409e-05 0 0)
(0.45655 0.000504392 0 3.43354e-05 0 0)
(0.464938 0.000342903 0 2.71539e-05 0 0)
(0.470933 0.000310625 0 2.56384e-05 0 0)
(0.47549 0.000377046 0 2.42515e-05 0 0)
(0.479022 0.000605439 0 2.2561e-05 0 0)
(0.481568 0.000970887 0 2.26787e-05 0 0)
(0.483098 0.00150443 0 2.76669e-05 0 0)
(0.484378 0.00225985 0 4.4123e-05 0 0)
(0.485916 0.00339971 0 9.02526e-05 0 0)
(0.488342 0.0050696 0 0.000212281 0 0)
(0.494312 0.00752779 0 0.000530956 0 0)
(0.508223 0.0107737 0 0.00137388 0 0)
(0.520959 0.0147755 0 0.00378633 0 0)
(0.563308 0.0193976 0 0.0111346 0 0)
(0.0932344 -0.00100156 0 3.89695e-05 0 0)
(0.311589 -0.00164495 0 7.09966e-05 0 0)
(0.369165 0.000213243 0 6.28584e-05 0 0)
(0.403578 0.00122569 0 6.48425e-05 0 0)
(0.427397 0.00125359 0 7.22432e-05 0 0)
(0.443855 0.000871043 0 6.76765e-05 0 0)
(0.455915 0.000510561 0 5.34207e-05 0 0)
(0.464502 0.000298506 0 4.22884e-05 0 0)
(0.470668 0.000238126 0 3.98035e-05 0 0)
(0.475326 0.000282528 0 3.79374e-05 0 0)
(0.47895 0.000507831 0 3.45183e-05 0 0)
(0.48168 0.000887607 0 3.20829e-05 0 0)
(0.483377 0.00144625 0 3.42081e-05 0 0)
(0.484812 0.00222715 0 4.67804e-05 0 0)
(0.486494 0.0034034 0 8.61112e-05 0 0)
(0.489042 0.00510736 0 0.000192455 0 0)
(0.495208 0.00758216 0 0.00046689 0 0)
(0.50936 0.0107303 0 0.00117808 0 0)
(0.523113 0.014355 0 0.00319259 0 0)
(0.566336 0.0179893 0 0.00951854 0 0)
(0.0933412 -0.00123365 0 5.9505e-05 0 0)
(0.311758 -0.00203333 0 0.000110684 0 0)
(0.368633 0.000162051 0 9.37191e-05 0 0)
(0.40265 0.00135473 0 9.07464e-05 0 0)
(0.426466 0.00137714 0 0.000100808 0 0)
(0.443077 0.000920397 0 9.61898e-05 0 0)
(0.455315 0.000492742 0 7.70983e-05 0 0)
(0.464082 0.000236085 0 6.13708e-05 0 0)
(0.470399 0.000152697 0 5.7833e-05 0 0)
(0.475152 0.000179655 0 5.5645e-05 0 0)
(0.478863 0.000400664 0 5.05691e-05 0 0)
(0.481754 0.000787311 0 4.5348e-05 0 0)
(0.483632 0.00136995 0 4.42884e-05 0 0)
(0.485252 0.00217007 0 5.27941e-05 0 0)
(0.487138 0.00337423 0 8.49393e-05 0 0)
(0.489811 0.00509681 0 0.000175284 0 0)
(0.496188 0.00756706 0 0.000407302 0 0)
(0.510542 0.0105871 0 0.00099432 0 0)
(0.525202 0.0137948 0 0.00264688 0 0)
(0.568818 0.0164074 0 0.00804487 0 0)
(0.0934673 -0.00146813 0 8.51182e-05 0 0)
(0.311987 -0.00240571 0 0.00016065 0 0)
(0.36814 0.000120108 0 0.000131764 0 0)
(0.401764 0.00146994 0 0.000121524 0 0)
(0.425593 0.00147336 0 0.000134559 0 0)
(0.442365 0.000940807 0 0.000130034 0 0)
(0.454776 0.000450945 0 0.000105485 0 0)
(0.463704 0.000155173 0 8.46029e-05 0 0)
(0.470161 5.41689e-05 0 7.98918e-05 0 0)
(0.474995 6.80662e-05 0 7.75092e-05 0 0)
(0.478786 0.000284716 0 7.08356e-05 0 0)
(0.481784 0.000673094 0 6.27477e-05 0 0)
(0.483869 0.00127346 0 5.81636e-05 0 0)
(0.485683 0.00208805 0 6.24745e-05 0 0)
(0.4878 0.00330966 0 8.71936e-05 0 0)
(0.490625 0.00503482 0 0.000161484 0 0)
(0.497225 0.00748031 0 0.000353702 0 0)
(0.511733 0.0103494 0 0.000826284 0 0)
(0.527168 0.0131184 0 0.00215495 0 0)
(0.570268 0.0146754 0 0.00672279 0 0)
(0.0936119 -0.00170698 0 0.000116651 0 0)
(0.31227 -0.00276548 0 0.000222024 0 0)
(0.367679 8.73367e-05 0 0.000177318 0 0)
(0.400919 0.00157055 0 0.000157422 0 0)
(0.424778 0.0015412 0 0.000173789 0 0)
(0.441712 0.00093151 0 0.000169503 0 0)
(0.454287 0.00038411 0 0.000138861 0 0)
(0.463367 5.50959e-05 0 0.000112287 0 0)
(0.469948 -5.86055e-05 0 0.000106288 0 0)
(0.474859 -5.36145e-05 0 0.00010381 0 0)
(0.478707 0.000161056 0 9.5518e-05 0 0)
(0.481786 0.000545805 0 8.44908e-05 0 0)
(0.484059 0.00115639 0 7.61578e-05 0 0)
(0.486089 0.0019786 0 7.60611e-05 0 0)
(0.488457 0.00320789 0 9.33742e-05 0 0)
(0.49151 0.00492009 0 0.000151902 0 0)
(0.498269 0.00732003 0 0.000307193 0 0)
(0.512885 0.0100179 0 0.000676864 0 0)
(0.528872 0.0123265 0 0.00172041 0 0)
(0.570451 0.0128651 0 0.00555848 0 0)
(0.0937717 -0.00195241 0 0.000155414 0 0)
(0.312598 -0.0031161 0 0.000296211 0 0)
(0.367241 6.31238e-05 0 0.000230788 0 0)
(0.400111 0.00165545 0 0.000198822 0 0)
(0.424024 0.0015803 0 0.000219037 0 0)
(0.441129 0.000892418 0 0.000215085 0 0)
(0.45386 0.000292195 0 0.000177662 0 0)
(0.463076 -6.43223e-05 0 0.000144899 0 0)
(0.469769 -0.000185814 0 0.000137448 0 0)
(0.474744 -0.000185725 0 0.000134909 0 0)
(0.478635 2.94343e-05 0 0.000124866 0 0)
(0.481771 0.000407809 0 0.000110845 0 0)
(0.484204 0.00101927 0 9.85653e-05 0 0)
(0.486457 0.00184207 0 9.38121e-05 0 0)
(0.489092 0.00306795 0 0.00010389 0 0)
(0.492437 0.00475203 0 0.000147263 0 0)
(0.4993 0.00708563 0 0.000268649 0 0)
(0.513959 0.00959735 0 0.000548169 0 0)
(0.530213 0.0114188 0 0.00134489 0 0)
(0.569488 0.0110513 0 0.00455145 0 0)
(0.0939371 -0.00220685 0 0.000203172 0 0)
(0.312943 -0.0034617 0 0.000384908 0 0)
(0.366806 4.59773e-05 0 0.000292658 0 0)
(0.399341 0.00172272 0 0.000246304 0 0)
(0.423339 0.00158895 0 0.000271004 0 0)
(0.440621 0.000822745 0 0.00026748 0 0)
(0.453502 0.000174598 0 0.00022252 0 0)
(0.462847 -0.000203228 0 0.00018299 0 0)
(0.469633 -0.000327519 0 0.000173869 0 0)
(0.474669 -0.000327969 0 0.000171187 0 0)
(0.478598 -0.000110064 0 0.000159203 0 0)
(0.481785 0.000260552 0 0.000141967 0 0)
(0.484333 0.000865201 0 0.000125541 0 0)
(0.486834 0.00167875 0 0.000115875 0 0)
(0.489748 0.00289064 0 0.000118882 0 0)
(0.493399 0.0045311 0 0.000148092 0 0)
(0.500402 0.00678005 0 0.000239005 0 0)
(0.514958 0.00908448 0 0.000440703 0 0)
(0.531153 0.0104306 0 0.00103029 0 0)
(0.567481 0.00925293 0 0.00369604 0 0)
(0.094098 -0.00247337 0 0.000262427 0 0)
(0.313281 -0.0038059 0 0.000489999 0 0)
(0.36637 3.39331e-05 0 0.000363528 0 0)
(0.398629 0.00177065 0 0.000300615 0 0)
(0.422766 0.00156701 0 0.000330673 0 0)
(0.440249 0.00072326 0 0.000327568 0 0)
(0.453287 3.25119e-05 0 0.00027411 0 0)
(0.462755 -0.000360086 0 0.000227092 0 0)
(0.469644 -0.000481744 0 0.000215823 0 0)
(0.474745 -0.000477838 0 0.000212774 0 0)
(0.478727 -0.0002555 0 0.000198579 0 0)
(0.481966 0.000108736 0 0.000177729 0 0)
(0.484639 0.000699123 0 0.00015688 0 0)
(0.487388 0.00149388 0 0.000142117 0 0)
(0.49061 0.00267991 0 0.000138135 0 0)
(0.494586 0.00426258 0 0.00015456 0 0)
(0.501801 0.00641021 0 0.000218827 0 0)
(0.516053 0.0084863 0 0.000354693 0 0)
(0.531788 0.00937369 0 0.000776348 0 0)
(0.564713 0.00749442 0 0.0029834 0 0)
(0.0942565 -0.00275592 0 0.000336247 0 0)
(0.313626 -0.00415231 0 0.000613545 0 0)
(0.365971 2.55615e-05 0 0.000443954 0 0)
(0.398069 0.00179762 0 0.000362626 0 0)
(0.422442 0.00151517 0 0.000398703 0 0)
(0.440187 0.000597022 0 0.000395857 0 0)
(0.453429 -0.000130657 0 0.000332716 0 0)
(0.463075 -0.000531822 0 0.000277061 0 0)
(0.470111 -0.000645099 0 0.000262863 0 0)
(0.475341 -0.000631511 0 0.000259011 0 0)
(0.479434 -0.000402399 0 0.000242251 0 0)
(0.482789 -4.27459e-05 0 0.000217225 0 0)
(0.485607 0.000529956 0 0.000191721 0 0)
(0.488634 0.00129453 0 0.000171702 0 0)
(0.492209 0.00244456 0 0.000160785 0 0)
(0.496535 0.00395663 0 0.000165992 0 0)
(0.503976 0.0059888 0 0.000207762 0 0)
(0.517739 0.00782338 0 0.000290537 0 0)
(0.532415 0.00828681 0 0.000581653 0 0)
(0.56142 0.00580157 0 0.00240468 0 0)
(0.0944238 -0.00305857 0 0.000428493 0 0)
(0.314032 -0.00450263 0 0.000757338 0 0)
(0.365745 2.18697e-05 0 0.000534348 0 0)
(0.397922 0.00180614 0 0.000432534 0 0)
(0.422768 0.00143946 0 0.000474867 0 0)
(0.440972 0.000451317 0 0.000471684 0 0)
(0.454592 -0.000307684 0 0.00039732 0 0)
(0.464575 -0.000712786 0 0.000331453 0 0)
(0.47193 -0.000810869 0 0.000312796 0 0)
(0.477431 -0.000781358 0 0.000307537 0 0)
(0.481768 -0.000542314 0 0.000287987 0 0)
(0.485348 -0.000182843 0 0.00025853 0 0)
(0.48841 0.000366813 0 0.000227897 0 0)
(0.491713 0.00109681 0 0.000202672 0 0)
(0.495685 0.0022001 0 0.000185035 0 0)
(0.500366 0.00363039 0 0.000180606 0 0)
(0.507982 0.00553405 0 0.000204259 0 0)
(0.521102 0.00712626 0 0.000247343 0 0)
(0.53398 0.0072137 0 0.000442436 0 0)
(0.558305 0.00420735 0 0.0019484 0 0)
(0.0946116 -0.00338522 0 0.000543727 0 0)
(0.314596 -0.00485471 0 0.000922101 0 0)
(0.36602 3.10899e-05 0 0.000633444 0 0)
(0.398863 0.00180384 0 0.000508315 0 0)
(0.424757 0.00135347 0 0.000554785 0 0)
(0.443905 0.000303677 0 0.000550445 0 0)
(0.458335 -0.000484686 0 0.00046384 0 0)
(0.46905 -0.000893391 0 0.000385923 0 0)
(0.477053 -0.000972821 0 0.00036076 0 0)
(0.483106 -0.000920412 0 0.000353254 0 0)
(0.487885 -0.000666489 0 0.000331024 0 0)
(0.491845 -0.000302234 0 0.000297409 0 0)
(0.495199 0.000226793 0 0.000261578 0 0)
(0.498781 0.000919102 0 0.000231507 0 0)
(0.503131 0.00196593 0 0.000207696 0 0)
(0.508116 0.00330604 0 0.000195229 0 0)
(0.515761 0.00507044 0 0.000205017 0 0)
(0.528087 0.00643614 0 0.000221287 0 0)
(0.538519 0.00620063 0 0.000351106 0 0)
(0.557212 0.00278271 0 0.00159946 0 0)
(0.0948332 -0.00373392 0 0.000685126 0 0)
(0.315509 -0.00518479 0 0.00110345 0 0)
(0.3675 8.32602e-05 0 0.000736003 0 0)
(0.402307 0.00181714 0 0.000582518 0 0)
(0.430517 0.00128915 0 0.000627295 0 0)
(0.451662 0.000187431 0 0.00062086 0 0)
(0.467755 -0.000633016 0 0.000523184 0 0)
(0.479891 -0.00105318 0 0.000432354 0 0)
(0.489101 -0.00111511 0 0.0003981 0 0)
(0.496091 -0.00103359 0 0.000387228 0 0)
(0.501554 -0.000755466 0 0.000363234 0 0)
(0.506014 -0.000379718 0 0.000326891 0 0)
(0.509703 0.000134494 0 0.000286596 0 0)
(0.513465 0.000791182 0 0.000252717 0 0)
(0.518046 0.00177516 0 0.000223902 0 0)
(0.523178 0.003017 0 0.000205105 0 0)
(0.530629 0.00463587 0 0.000204746 0 0)
(0.54189 0.00579902 0 0.000205078 0 0)
(0.549491 0.005316 0 0.000294356 0 0)
(0.561303 0.00165105 0 0.00133487 0 0)
(0.095078 -0.00407444 0 0.000847483 0 0)
(0.317029 -0.005398 0 0.00128338 0 0)
(0.371345 0.000270976 0 0.000825407 0 0)
(0.410652 0.00191503 0 0.000636761 0 0)
(0.443615 0.00130415 0 0.000669116 0 0)
(0.468668 0.000164704 0 0.000660171 0 0)
(0.487869 -0.000692646 0 0.000557338 0 0)
(0.502509 -0.0011429 0 0.000456493 0 0)
(0.513699 -0.00120117 0 0.000411312 0 0)
(0.52216 -0.00109006 0 0.000395492 0 0)
(0.528581 -0.000779913 0 0.000371186 0 0)
(0.533671 -0.000382394 0 0.000335112 0 0)
(0.537647 0.000124981 0 0.000292938 0 0)
(0.541494 0.000751957 0 0.00025738 0 0)
(0.546085 0.00167014 0 0.000225604 0 0)
(0.55119 0.00280862 0 0.000202642 0 0)
(0.558231 0.00428041 0 0.000195278 0 0)
(0.56818 0.00527221 0 0.000188025 0 0)
(0.572872 0.00462056 0 0.000251975 0 0)
(0.575725 0.000966735 0 0.00111885 0 0)
(0.0951622 -0.00433344 0 0.00100635 0 0)
(0.319145 -0.00529521 0 0.00141955 0 0)
(0.378945 0.000756511 0 0.000873952 0 0)
(0.427322 0.00220104 0 0.000643377 0 0)
(0.469503 0.00145813 0 0.000650353 0 0)
(0.501816 0.000301585 0 0.000637548 0 0)