/*--------------------------------*- C++ -*----------------------------------*\
| =========                 |                                                 |
| \\      /  F ield         | OpenFOAM: The Open Source CFD Toolbox           |
|  \\    /   O peration     | Version:  2.4.0                                 |
|   \\  /    A nd           | Web:      www.OpenFOAM.org                      |
|    \\/     M anipulation  |                                                 |
\*---------------------------------------------------------------------------*/
FoamFile
{
    version     2.0;
    format      ascii;
    class       volScalarField;
    location    "0.154";
    object      pMean;
}
// * * * * * * * * * * * * * * * * * * * * * * * * * * * * * * * * * * * * * //

dimensions      [0 2 -2 0 0 0 0];

internalField   nonuniform List<scalar> 
4400
(
129.125
107.829
99.5921
95.7105
92.5412
89.4458
86.3362
83.2418
79.9968
76.1519
127.207
107.894
99.6287
95.7217
92.544
89.4462
86.3367
83.242
80.0118
76.4546
126.002
108.204
99.7623
95.7605
92.5644
89.454
86.3407
83.2395
80.0765
76.609
125.27
108.579
99.9396
95.8179
92.6068
89.4814
86.3547
83.2543
80.1495
76.837
124.677
108.922
100.118
95.8766
92.6663
89.5244
86.386
83.2714
80.249
77.0705
124.166
109.206
100.275
95.9197
92.7223
89.5773
86.4258
83.3059
80.3669
77.342
123.745
109.433
100.405
95.9442
92.7677
89.6227
86.4661
83.3442
80.4567
77.6829
123.421
109.604
100.508
95.9567
92.7988
89.6606
86.4997
83.3881
80.5067
77.9953
123.203
109.72
100.577
95.9624
92.8189
89.6888
86.5241
83.4304
80.5802
78.3145
123.094
109.779
100.612
95.9647
92.83
89.7044
86.5474
83.4689
80.6687
78.5479
123.093
109.781
100.612
95.9666
92.8312
89.7128
86.5608
83.5098
80.7544
78.7382
123.201
109.724
100.578
95.966
92.8253
89.7091
86.5721
83.5494
80.8387
78.8858
123.418
109.61
100.509
95.963
92.8092
89.6958
86.5763
83.5858
80.924
78.9927
123.74
109.441
100.406
95.9537
92.782
89.6714
86.5743
83.6198
81.0104
79.0591
124.16
109.216
100.277
95.9313
92.7423
89.6366
86.567
83.6484
81.0953
79.093
124.671
108.932
100.12
95.8911
92.6909
89.5955
86.5564
83.673
81.1659
79.1239
125.264
108.59
99.942
95.8347
92.6358
89.5594
86.5486
83.6953
81.2129
79.1509
125.997
108.214
99.7652
95.7787
92.5958
89.539
86.5475
83.7136
81.2392
79.1845
127.202
107.904
99.632
95.7406
92.5769
89.533
86.5499
83.7241
81.2495
79.2228
129.12
107.839
99.5954
95.7295
92.5741
89.5336
86.5513
83.7277
81.2508
79.3257
74.1991
73.5994
72.2514
70.91
69.746
68.902
68.4515
68.0335
68.0723
68.1731
68.0025
67.7013
67.2736
67.2443
67.3558
67.3355
67.4961
68.1055
68.9696
70.0692
71.2872
72.5654
73.7937
74.9414
75.9815
76.8439
77.5654
78.1205
78.5049
78.6987
78.7231
78.7761
78.816
78.9445
79.1173
79.3851
79.7171
80.0701
80.3947
80.5716
80.7995
81.0263
81.2335
81.4584
81.7345
82.0248
82.3548
82.6534
83.006
83.3602
83.8068
84.2974
84.7671
85.2235
85.6502
85.9995
86.3079
86.4351
86.6176
86.6103
86.7819
86.7769
87.0526
87.2
87.6749
87.8552
88.4001
88.5027
88.9838
88.9656
89.401
89.2185
89.5632
89.2271
89.5295
89.1501
89.5646
89.3241
90.0135
89.8935
90.6745
90.6126
91.3989
91.2403
91.9061
91.5999
92.1786
91.8259
92.2807
91.7436
91.9507
91.1646
91.1888
89.9808
89.8471
87.698
87.4487
82.378
81.4307
56.3558
74.4323
73.7467
72.6541
71.4749
70.4151
69.6224
69.1952
68.898
68.9234
69.0735
68.9886
68.753
68.3442
68.2537
68.3903
68.4507
68.5771
69.0896
69.8578
70.8411
71.934
73.092
74.2057
75.245
76.1735
76.9281
77.5343
77.9856
78.2572
78.3447
78.2848
78.2429
78.2078
78.2851
78.4408
78.7433
79.1092
79.5119
79.8724
80.0574
80.3548
80.6446
80.9434
81.2678
81.6586
82.0445
82.4568
82.8092
83.2013
83.5964
84.0551
84.5275
84.9877
85.4241
85.8447
86.1793
86.4769
86.5776
86.7386
86.6857
86.8183
86.7542
86.9719
87.0898
87.5538
87.7619
88.3075
88.4402
88.9412
88.947
89.4151
89.2287
89.5619
89.1817
89.4454
89.0074
89.4485
89.0758
89.8244
89.5252
90.3963
90.1345
91.0575
90.6582
91.5382
90.9855
91.8154
91.1847
91.8874
91.0361
91.4751
90.3209
90.5423
88.7975
88.8995
85.7982
85.853
78.529
76.9638
49.1961
74.8575
74.0945
73.0628
71.9872
71.0282
70.306
69.8962
69.6827
69.6921
69.8429
69.8467
69.6985
69.3642
69.249
69.3984
69.5399
69.6696
70.1124
70.7956
71.6725
72.6453
73.6787
74.6704
75.5859
76.3854
77.0223
77.5126
77.8583
78.0274
78.0349
77.9215
77.8161
77.7323
77.7794
77.9333
78.2821
78.6832
79.1399
79.5188
79.7177
80.0845
80.4307
80.8393
81.2733
81.7846
82.2763
82.7718
83.1729
83.6121
84.0367
84.508
84.9472
85.4007
85.8088
86.2215
86.5338
86.8097
86.8858
87.0161
86.9266
87.0053
86.8934
87.0329
87.1253
87.5406
87.7846
88.3087
88.4882
88.9926
89.0348
89.5064
89.3209
89.6091
89.1997
89.4406
88.9369
89.3819
88.8744
89.6385
89.1602
90.0932
89.6313
90.6506
90.0382
91.1067
90.2892
91.3901
90.4241
91.447
90.2063
90.98
89.3786
89.8748
87.502
87.7897
83.7153
84.112
75.1368
71.9205
47.3387
75.2394
74.5184
73.5695
72.5611
71.6774
71.028
70.6505
70.4958
70.4998
70.6287
70.6957
70.6249
70.3899
70.2823
70.4317
70.6371
70.7937
71.1809
71.7808
72.558
73.4156
74.3175
75.1772
75.9547
76.6139
77.1267
77.5031
77.7461
77.8366
77.7922
77.6457
77.5081
77.4036
77.4437
77.6107
78.0062
78.441
78.9476
79.3193
79.5472
79.9738
80.3729
80.9127
81.4619
82.1036
82.7047
83.2764
83.7259
84.2199
84.6646
85.1516
85.5475
85.9937
86.3617
86.7648
87.0511
87.2932
87.3422
87.4337
87.3074
87.3264
87.1733
87.232
87.3039
87.6563
87.9325
88.4236
88.6523
89.1434
89.223
89.6744
89.4897
89.7161
89.2775
89.5054
88.9322
89.355
88.7248
89.4689
88.8296
89.7903
89.1484
90.2129
89.4329
90.5873
89.5467
90.8421
89.5373
90.9147
89.1723
90.4398
88.2112
89.2158
86.1324
86.5861
81.6649
81.8325
72.0891
66.4464
47.2825
75.5748
74.9561
74.1655
73.2031
72.3567
71.7652
71.4389
71.3402
71.369
71.4865
71.5868
71.5795
71.4439
71.3724
71.5078
71.7479
71.9432
72.2837
72.8023
73.4767
74.2172
74.981
75.7014
76.3355
76.855
77.2435
77.5107
77.6658
77.7036
77.6297
77.468
77.3252
77.2225
77.2757
77.4721
77.9091
78.3749
78.9133
79.2543
79.5315
80.0019
80.4603
81.1459
81.8085
82.5941
83.3036
83.9444
84.4376
85.0003
85.4573
85.9653
86.3135
86.7501
87.0637
87.4528
87.7031
87.9101
87.9227
87.9826
87.8021
87.7767
87.5704
87.5668
87.6015
87.9097
88.1974
88.6561
88.9076
89.3769
89.4809
89.9021
89.7083
89.8849
89.3963
89.6034
88.9622
89.349
88.6177
89.3264
88.5476
89.5117
88.7117
89.7712
88.8933
90.0005
88.855
90.102
88.6024
90.0357
87.9401
89.5336
86.6853
88.2568
84.3573
85.5025
79.7916
79.3535
69.6395
60.7209
46.9557
75.8863
75.3772
74.7235
73.8227
73.019
72.5067
72.259
72.2227
72.2895
72.4047
72.5171
72.5628
72.5174
72.4978
72.623
72.8634
73.092
73.3951
73.8291
74.3935
75.0117
75.6343
76.2157
76.7157
77.1025
77.3761
77.5527
77.6419
77.6427
77.551
77.3881
77.2604
77.183
77.2661
77.4995
77.9694
78.4671
79.0126
79.3189
79.6609
80.1659
80.6959
81.5197
82.2827
83.2223
84.0442
84.7486
85.278
85.9267
86.3896
86.9246
87.2262
87.6556
87.9018
88.2662
88.4604
88.6471
88.6007
88.6533
88.3882
88.3546
88.0692
88.0422
88.0153
88.3067
88.5586
88.9949
89.2309
89.6832
89.7812
90.1774
89.9544
90.0984
89.5436
89.7162
89.0157
89.3529
88.5474
89.2076
88.3148
89.2607
88.3183
89.362
88.417
89.4391
88.2913
89.3833
87.8894
89.1434
86.9388
88.3654
85.1489
86.805
82.1285
83.62
77.0227
76.0294
67.0858
56.8432
47.1665
76.3646
75.8124
75.1332
74.3026
73.6167
73.2358
73.0918
73.1107
73.2093
73.3302
73.4496
73.536
73.5627
73.5976
73.7228
73.9487
74.1891
74.4657
74.8226
75.274
75.7668
76.2532
76.7072
77.087
77.3557
77.5361
77.6465
77.6902
77.6611
77.554
77.3995
77.3003
77.2671
77.4002
77.6741
78.1663
78.6962
79.2281
79.5084
79.9303
80.4659
81.0931
82.0174
82.8629
83.9597
84.8894
85.6549
86.2191
86.9777
87.4334
88.0015
88.2572
88.6837
88.8613
89.2018
89.3178
89.4939
89.3587
89.4224
89.0464
89.0459
88.6484
88.6502
88.5382
88.8416
89.0285
89.4456
89.6345
90.0694
90.1294
90.5077
90.2333
90.3502
89.7262
89.8467
89.0992
89.3695
88.5158
89.1051
88.1431
89.0291
87.9771
88.9842
87.9681
88.8992
87.7745
88.7002
87.3226
88.282
86.2408
87.2314
84.0882
85.2027
80.2618
80.9184
73.8568
71.8911
63.8219
54.8354
47.5208
77.1368
76.4446
75.4789
74.6652
74.1409
73.9136
73.8758
73.9488
74.074
74.2083
74.3372
74.4523
74.5336
74.6149
74.7497
74.9589
75.1966
75.4505
75.7438
76.0927
76.4677
76.8356
77.184
77.4606
77.6286
77.7409
77.8056
77.8092
77.7517
77.6355
77.5002
77.4364
77.4588
77.6579
77.9772
78.4824
79.0313
79.5545
79.8271
80.3322
80.9
81.6382
82.6233
83.5434
84.7803
85.8016
86.6361
87.2297
88.1202
88.5567
89.1568
89.3804
89.8121
89.9209
90.2408
90.2735
90.4399
90.2225
90.2979
89.7961
89.8501
89.3133
89.3899
89.155
89.5043
89.6016
90.0193
90.1365
90.5559
90.5501
90.8997
90.5694
90.6405
89.9685
90.0168
89.2372
89.4254
88.5463
89.0326
88.048
88.8137
87.7365
88.6233
87.5637
88.35
87.2212
87.9904
86.6531
87.3544
85.4248
86.0056
83.079
83.4176
78.7904
78.0883
71.8163
68.5074
61.8815
54.0986
47.4898
77.6953
76.9417
75.824
75.0186
74.6183
74.5282
74.5951
74.7266
74.8787
75.0261
75.1627
75.2962
75.4171
75.5342
75.682
75.8789
76.1
76.3273
76.569
76.8379
77.1176
77.3968
77.6662
77.8552
77.9412
78.0044
78.0296
77.9974
77.9168
77.7993
77.6904
77.6668
77.7511
78.0266
78.39
78.9
79.449
79.9822
80.2753
80.8516
81.4563
82.296
83.3198
84.3274
85.6579
86.7554
87.6515
88.2802
89.3135
89.7283
90.3706
90.5601
91.0069
91.0569
91.3706
91.3126
91.4822
91.1958
91.2854
90.6612
90.7646
90.0651
90.2478
89.8505
90.2967
90.2575
90.709
90.7379
91.1557
91.0643
91.3691
90.9776
90.9887
90.2816
90.2512
89.4609
89.5461
88.6778
89.0153
88.0587
88.6356
87.626
88.2725
87.2535
87.7814
86.675
87.2528
85.9633
86.3759
84.5142
84.6898
81.9881
81.5396
77.4795
75.5185
70.7945
66.562
61.6917
54.0661
47.6312
78.1084
77.3686
76.2099
75.4218
75.0992
75.1121
75.2651
75.4467
75.6197
75.7761
75.9195
76.066
76.2158
76.3615
76.5221
76.7087
76.9058
77.1035
77.3034
77.5135
77.7287
77.9521
78.1632
78.2773
78.2971
78.3232
78.314
78.2535
78.1565
78.0433
77.9683
77.991
78.145
78.4991
78.9009
79.4104
79.9482
80.5023
80.8459
81.4842
82.125
83.0526
84.093
85.2039
86.5663
87.7244
88.6734
89.3541
90.5186
90.9018
91.6089
91.7565
92.2485
92.2347
92.5563
92.4118
92.5896
92.2545
92.3568
91.6322
91.7696
90.904
91.1906
90.6053
91.1895
90.9954
91.5226
91.4248
91.868
91.6704
91.9355
91.4761
91.4201
90.6955
90.5819
89.8042
89.7677
88.9478
89.1006
88.2156
88.5515
87.6532
87.9794
87.0711
87.2207
86.1939
86.5289
85.3605
85.3857
83.6999
83.3445
81.0895
79.8303
76.4572
73.9344
70.5171
65.9638
62.6576
54.5556
48.4842
78.4235
77.7287
76.5979
75.848
75.581
75.6605
75.8752
76.0981
76.2932
76.4622
76.6162
76.7772
76.9478
77.1162
77.2867
77.4628
77.6377
77.8085
77.9771
78.1449
78.3155
78.5039
78.6682
78.7173
78.6835
78.6809
78.6403
78.5612
78.4672
78.3786
78.3495
78.4224
78.6544
79.0805
79.5052
80.0146
80.541
81.1246
81.5367
82.2318
82.8971
83.8995
84.9312
86.1407
87.4787
88.7159
89.6736
90.4482
91.7104
92.0681
92.8243
92.9519
93.4885
93.4275
93.7731
93.5406
93.7493
93.3626
93.4779
92.6893
92.8411
91.8545
92.2033
91.4364
92.164
91.8089
92.4368
92.2018
92.6731
92.3757
92.5871
92.0884
91.9338
91.2455
91.013
90.3073
90.1057
89.3969
89.3282
88.582
88.6473
87.8948
87.8701
87.0863
86.8136
85.8957
85.9773
84.9843
84.5751
83.149
82.2694
80.5381
78.6602
75.9455
73.2539
70.9867
66.23
63.9424
55.5766
49.8351
78.6384
78.006
76.9645
76.293
76.0822
76.204
76.4532
76.7037
76.9175
77.0999
77.2673
77.4407
77.6252
77.8088
77.9843
78.1501
78.3085
78.4615
78.6041
78.7421
78.8858
79.0515
79.1744
79.1619
79.0808
79.0582
78.9951
78.9113
78.8444
78.8049
78.8363
78.9722
79.2837
79.7651
80.2009
80.7017
81.2311
81.8585
82.3504
83.0912
83.7648
84.8242
85.8284
87.1257
88.4016
89.7337
90.6356
91.5732
92.8484
93.2234
93.9979
94.1243
94.7083
94.5935
94.9747
94.6805
94.9061
94.5089
94.6125
93.8235
93.9522
92.9174
93.2488
92.3935
93.1967
92.7181
93.4203
93.0786
93.5556
93.1968
93.3163
92.8412
92.5253
91.956
91.5326
90.9921
90.5479
90.0554
89.7033
89.1808
88.9528
88.3616
88.0083
87.3384
86.6695
85.8944
85.7749
84.9571
84.1806
83.0233
81.7302
80.5259
78.2042
76.2597
73.3635
72.0719
67.0421
65.1219
56.9439
51.0615
78.7619
78.2154
77.3227
76.7645
76.6109
76.7473
77.0003
77.2584
77.4828
77.6773
77.859
78.0445
78.2388
78.4283
78.6017
78.7586
78.9008
79.0337
79.1598
79.2796
79.4073
79.563
79.6592
79.5977
79.4836
79.4509
79.3881
79.3271
79.3084
79.3305
79.4311
79.6443
80.0306
80.5433
80.9823
81.4673
82.0088
82.6891
83.2792
84.0487
84.7265
85.8191
86.7957
88.1631
89.3537
90.7972
91.5895
92.7397
93.9172
94.3541
95.0713
95.2774
95.8407
95.7444
96.1292
95.8395
96.0538
95.7018
95.7565
95.0611
95.0947
94.1279
94.3402
93.5024
94.2572
93.7718
94.4588
94.0749
94.4924
94.1376
94.1134
93.7218
93.1798
92.804
92.1196
91.8337
91.0756
90.8951
90.1932
89.9855
89.3974
89.0644
88.3195
87.9181
86.7617
86.3043
85.9052
85.3971
84.2107
83.464
81.7178
81.1125
78.3996
77.3594
74.0636
73.4964
68.1252
66.0645
58.2608
52.0273
78.7827
78.343
77.6594
77.2433
77.1476
77.2796
77.5117
77.7578
77.9828
78.1859
78.3797
78.5736
78.7689
78.9554
79.1223
79.2695
79.4027
79.5271
79.6405
79.7425
79.858
80.008
80.0899
80.0012
79.8731
79.8401
79.8024
79.7966
79.8542
79.9574
80.1398
80.4358
80.8778
81.3933
81.833
82.311
82.878
83.6115
84.3051
85.082
85.773
86.8619
87.8158
89.2431
90.3344
91.8906
92.5562
93.9615
94.8993
95.4975
96.0667
96.4463
96.895
96.8842
97.2149
97.0008
97.1671
96.9175
96.8754
96.3651
96.2114
95.4763
95.4543
94.7942
95.3146
94.9303
95.4964
95.1806
95.4531
95.1658
94.9534
94.6753
93.8754
93.7188
92.7468
92.7515
91.659
91.8202
90.7473
90.9058
89.9025
89.9511
88.7558
88.8128
87.1528
87.2134
86.2247
86.31
84.5286
84.4518
82.1254
82.1866
79.0894
78.8952
75.1098
74.8601
69.1807
66.7269
59.3513
52.8589
78.7288
78.4236
77.9909
77.72
77.6584
77.7613
77.957
78.1808
78.3983
78.6034
78.8006
78.9933
79.1819
79.3606
79.5227
79.6667
79.7974
79.9179
80.0243
80.1153
80.223
80.3717
80.4541
80.3694
80.255
80.2408
80.2476
80.315
80.4631
80.6589
80.9355
81.3206
81.7966
82.281
82.7054
83.181
83.7953
84.5905
85.3814
86.1583
86.8733
87.9212
88.8731
90.3402
91.3197
92.9829
93.5011
95.1914
95.8707
96.618
97.0151
97.6311
97.8547
98.0422
98.1904
98.1371
98.1495
98.0926
97.8513
97.648
97.2187
96.8758
96.5262
96.2418
96.3877
96.2127
96.5125
96.3598
96.3902
96.2396
95.7854
95.6598
94.5781
94.6439
93.3842
93.6638
92.268
92.7327
91.328
91.8383
90.4383
90.916
89.2932
89.893
87.7661
88.5429
86.7257
87.5647
85.073
85.801
82.8103
83.4727
80.0491
80.4681
76.2118
75.9229
70.0546
67.1204
60.2037
53.6575
78.6362
78.469
78.2852
78.1288
78.0773
78.1469
78.3043
78.5012
78.7051
78.9063
79.1035
79.2957
79.4808
79.6533
79.8096
79.9493
80.0787
80.1995
80.3069
80.3975
80.5109
80.6677
80.7604
80.7055
80.637
80.6641
80.7328
80.8922
81.1325
81.4223
81.7966
82.2532
82.7375
83.1796
83.5693
84.0395
84.7052
85.5594
86.4365
87.2246
87.9699
88.9648
89.9463
91.4139
92.2876
94.0389
94.3853
96.3285
96.7504
97.6939
97.7837
98.7733
98.6637
99.1641
98.9661
99.2007
98.9168
99.1563
98.6166
98.804
98.0504
98.1762
97.4669
97.6532
97.3613
97.5474
97.4494
97.5678
97.2426
97.3107
96.5584
96.6119
95.2523
95.5122
94.0013
94.5039
92.8693
93.5809
91.8969
92.7351
90.9664
91.9053
89.85
91.0459
88.5013
89.9716
87.3552
88.9855
85.8273
87.3733
83.6121
84.8308
81.0817
81.8879
77.1849
76.6103
70.742
67.3387
60.8566
54.4272
78.6741
78.5638
78.4909
78.4039
78.365
78.4139
78.5413
78.7143
78.9049
79.1015
79.298
79.4884
79.6679
79.8342
79.9864
80.1253
80.2568
80.3821
80.4991
80.6056
80.7386
80.9089
81.0234
81.023
81.0222
81.1079
81.2572
81.5114
81.8365
82.2145
82.6721
83.1741
83.6477
84.0426
84.3974
84.8646
85.5595
86.4496
87.3835
88.199
88.9853
89.9393
90.9597
92.3843
93.1742
95.0028
95.2238
97.3351
97.4293
98.7908
98.453
99.7655
99.3207
100.127
99.582
100.164
99.5298
100.119
99.2291
99.797
98.736
99.2643
98.2439
98.8878
98.1711
98.7988
98.2612
98.7352
97.9879
98.3196
97.2254
97.4689
95.8461
96.2902
94.5465
95.26
93.403
94.365
92.4089
93.5873
91.462
92.8581
90.3814
92.1252
89.1838
91.2751
88.0005
90.3526
86.6058
88.9554
84.3717
86.2354
82.0535
83.0333
77.9418
76.9899
71.2891
67.4947
61.3554
55.1503
78.7487
78.6722
78.6236
78.5607
78.5333
78.5726
78.6791
78.8335
79.0139
79.2063
79.4
79.5864
79.7607
79.9228
80.0732
80.2138
80.3544
80.4935
80.6263
80.7594
80.9247
81.1177
81.2609
81.3252
81.4032
81.5616
81.7927
82.1271
82.5194
82.9654
83.4756
83.9878
84.4364
84.7916
85.1228
85.5871
86.2796
87.175
88.1247
88.9769
89.824
90.7682
91.8121
93.1541
93.908
95.7787
95.8988
98.1565
97.8799
99.6849
99.0447
100.515
99.8385
100.947
100.081
100.965
99.9948
100.882
99.6891
100.545
99.2431
100.087
98.8305
99.8364
98.7671
99.8117
98.8582
99.6909
98.5388
99.1482
97.7043
98.1504
96.2791
96.9162
94.9428
95.8799
93.7993
95.0199
92.8049
94.2986
91.8723
93.644
90.8507
93.009
89.7617
92.3158
88.5838
91.4793
87.2752
90.1697
85.1502
87.6192
82.8559
83.8031
78.4744
77.1814
71.697
67.6467
61.7125
55.7865
78.8355
78.7643
78.696
78.6336
78.6097
78.6416
78.7338
78.8758
79.0497
79.2403
79.4334
79.6196
79.7935
79.9565
80.1111
80.2593
80.4096
80.5632
80.7185
80.8826
81.0773
81.2913
81.4666
81.5951
81.7485
81.9742
82.2701
82.6534
83.075
83.549
84.0692
84.5647
84.98
85.3085
85.6319
86.0909
86.7723
87.6497
88.5903
89.4757
90.388
91.3544
92.4239
93.6762
94.43
96.3105
96.2954
98.7123
98.2104
100.152
99.375
101.049
100.24
101.51
100.429
101.5
100.326
101.337
99.9988
100.97
99.5705
100.606
99.2271
100.461
99.1888
100.485
99.2452
100.334
98.8973
99.6873
97.9897
98.5869
96.5258
97.3137
95.1594
96.2639
94.0184
95.4175
93.037
94.7309
92.1346
94.1284
91.1692
93.5646
90.1269
92.9469
89.0033
92.1832
87.7751
90.8888
85.651
88.6824
83.458
84.209
78.9151
77.2514
72.0147
67.7618
61.9313
56.2427
78.9876
78.8327
78.7212
78.6523
78.6265
78.6541
78.7409
78.8782
79.0488
79.2374
79.4287
79.6143
79.7907
79.9579
80.1193
80.2773
80.4394
80.6065
80.7778
80.9604
81.17
81.3947
81.5882
81.7491
81.9368
82.1899
82.5076
82.9014
83.3241
83.7977
84.3065
84.7833
85.1816
85.5093
85.8406
86.3065
86.9807
87.839
88.7626
89.6689
90.628
91.613
92.6904
93.908
94.6692
96.5415
96.5267
98.9584
98.3787
100.328
99.5461
101.345
100.371
101.721
100.573
101.708
100.467
101.502
100.142
101.145
99.7218
100.834
99.413
100.741
99.3694
100.763
99.3869
100.584
99.0054
99.8797
98.0655
98.7408
96.5838
97.4465
95.205
96.3868
94.0636
95.5464
93.0844
94.8765
92.1884
94.3019
91.2451
93.7757
90.224
93.1964
89.1214
92.4765
87.8833
91.1315
85.8238
89.0896
83.5828
84.3396
79.0194
77.2393
72.0741
67.7644
61.9764
56.2198
75.881
75.4661
74.3067
72.6109
71.1709
70.0874
69.4042
69.1576
69.028
69.0735
69.3431
69.7513
70.1576
70.5902
71.1504
71.9066
72.7947
73.7214
74.5816
75.5104
76.6926
78.1032
79.7468
81.5131
83.3849
85.3833
87.4444
89.4711
91.462
93.2746
95.114
96.7804
98.4382
99.7893
101.006
101.793
102.575
103.058
103.619
103.754
103.622
103.041
102.353
101.458
100.707
99.9858
99.555
99.1261
98.9214
98.6596
98.6004
98.5109
98.5645
98.5721
98.6401
98.6445
98.6477
98.6009
98.5425
98.438
98.3343
98.2009
98.0844
97.9286
97.7958
97.6256
97.5156
97.3985
97.3662
97.2702
97.2416
97.1228
97.1728
97.104
97.3327
97.1152
97.0107
96.6846
96.4934
96.3514
96.415
96.5735
96.8733
97.183
97.4798
97.7482
97.9688
98.1592
98.3207
98.4655
98.5952
98.7187
98.8327
98.9178
98.9608
99.0479
99.1756
99.3967
100.081
100.957
75.8266
75.3519
74.1208
72.3806
70.8982
69.8075
69.1679
68.9614
68.8176
68.8482
69.1121
69.5117
69.9188
70.3418
70.8811
71.6438
72.5426
73.4648
74.3005
75.2121
76.377
77.7878
79.391
81.0939
82.9417
84.9509
87.0586
89.1172
91.1322
92.9644
94.8011
96.4476
98.0772
99.4268
100.635
101.447
102.225
102.745
103.296
103.51
103.385
102.869
102.192
101.343
100.603
99.8997
99.4807
99.0658
98.8747
98.6167
98.5693
98.4761
98.5363
98.5414
98.6101
98.6112
98.6163
98.5665
98.511
98.3998
98.2958
98.1543
98.0387
97.8755
97.7387
97.559
97.4453
97.3246
97.2962
97.1985
97.1616
97.0345
97.0861
97.0292
97.2298
97.0527
96.9307
96.625
96.4378
96.3046
96.3854
96.5529
96.8662
97.1812
97.4815
97.7504
97.9708
98.1602
98.3214
98.4641
98.5926
98.7133
98.8287
98.9123
98.953
99.0118
99.0714
99.2408
99.9189
100.78
75.7113
75.1343
73.7662
71.9247
70.3635
69.2347
68.681
68.541
68.3866
68.4026
68.671
69.0635
69.4357
69.7906
70.2539
70.969
71.8441
72.7146
73.5084
74.4212
75.6193
77.0435
78.5824
80.1813
81.9875
83.9957
86.194
88.3096
90.371
92.2609
94.1189
95.7326
97.3169
98.6731
99.859
100.721
101.483
102.074
102.595
102.907
102.807
102.394
101.738
100.972
100.265
99.6116
99.2156
98.8398
98.6705
98.4364
98.4154
98.328
98.4056
98.4167
98.4865
98.4836
98.4902
98.4371
98.3867
98.2725
98.169
98.0199
97.9002
97.7271
97.5807
97.3873
97.2635
97.1415
97.1114
97.0182
96.9674
96.8268
96.8731
96.8394
96.9802
96.8757
96.7192
96.4602
96.2814
96.1854
96.2969
96.4943
96.8249
97.1568
97.4616
97.7379
97.9575
98.1493
98.3087
98.4538
98.5774
98.6966
98.8108
98.9098
98.9514
98.9737
98.8963
98.983
99.6215
100.5
75.5308
74.8555
73.3243
71.3699
69.7272
68.5208
68.0384
67.9363
67.7763
67.8169
68.1067
68.4755
68.7572
68.9855
69.3401
69.9617
70.7696
71.5688
72.3113
73.2433
74.4992
75.9515
77.4792
79.0037
80.7877
82.7865
85.0673
87.261
89.3624
91.3184
93.2074
94.7981
96.3172
97.6778
98.8573
99.7609
100.504
101.156
101.626
102.006
101.938
101.625
101.022
100.347
99.6933
99.1108
98.7383
98.4116
98.2751
98.0736
98.0886
98.0171
98.1223
98.1552
98.2263
98.2325
98.2367
98.1901
98.144
98.032
97.9308
97.779
97.6565
97.4733
97.3121
97.1039
96.9672
96.8506
96.8167
96.7372
96.6723
96.5266
96.551
96.5366
96.625
96.5799
96.4009
96.1908
96.0244
95.9778
96.1226
96.3704
96.7222
97.0902
97.408
97.6936
97.9184
98.1097
98.2738
98.4175
98.544
98.6555
98.78
98.8974
98.9631
98.9393
98.7243
98.7051
99.3034
100.18
75.3086
74.5477
72.8625
70.7963
69.058
67.7586
67.3041
67.1964
67.0051
67.0485
67.3243
67.6561
67.8484
67.9398
68.1898
68.7162
69.441
70.1781
70.889
71.8585
73.1644
74.6358
76.1854
77.6816
79.4664
81.4934
83.869
86.1615
88.2932
90.2862
92.1851
93.7335
95.1902
96.5293
97.7253
98.6526
99.366
100.053
100.487
100.903
100.862
100.634
100.097
99.5125
98.9328
98.4249
98.0851
97.8009
97.7192
97.539
97.5962
97.5452
97.6782
97.7442
97.8201
97.8409
97.8493
97.809
97.7729
97.6604
97.5706
97.4194
97.3014
97.1064
96.933
96.7161
96.5684
96.4639
96.4287
96.3671
96.2991
96.1515
96.15
96.1392
96.1866
96.1646
95.984
95.8222
95.6824
95.6914
95.8732
96.1923
96.5662
96.9799
97.3101
97.6084
97.8353
98.0311
98.1963
98.3466
98.4732
98.5934
98.7178
98.8632
98.9429
98.9113
98.5643
98.4656
99.0191
99.9143
75.0897
74.267
72.4485
70.2861
68.4463
67.0347
66.5376
66.3474
66.0687
66.0665
66.2654
66.5418
66.7013
66.7012
66.8933
67.3422
68.001
68.7173
69.4376
70.4376
71.7699
73.2681
74.8538
76.3627
78.1656
80.2541
82.7198
85.1086
87.253
89.2324
91.1261
92.6057
94.0066
95.3123
96.5165
97.4539
98.1372
98.8434
99.2509
99.6567
99.6348
99.4853
99.0259
98.5296
98.0201
97.5873
97.2817
97.0423
97.0151
96.8536
96.9659
96.9426
97.1062
97.2153
97.3021
97.3344
97.3523
97.3099
97.285
97.1695
97.0976
96.9463
96.8341
96.6376
96.4667
96.2484
96.1021
96.0071
95.9747
95.9314
95.87
95.7236
95.6924
95.6682
95.675
95.6485
95.4849
95.3725
95.2814
95.3598
95.5854
95.9733
96.3735
96.8254
97.1706
97.4769
97.7052
97.9
98.0664
98.2204
98.3588
98.4871
98.6281
98.7788
98.8898
98.8522
98.4707
98.3017
98.8791
99.7457
74.9176
74.0511
72.112
69.8702
67.9282
66.3941
65.7641
65.383
64.9702
64.8455
64.9371
65.1647
65.3709
65.3535
65.5395
65.9367
66.569
67.3246
68.1033
69.1351
70.4919
72.0211
73.6436
75.1674
76.9786
79.1358
81.6666
84.1109
86.2569
88.1799
90.0733
91.4807
92.8203
94.0822
95.2684
96.2128
96.8694
97.5654
97.9454
98.3132
98.3072
98.2211
97.8451
97.4036
96.9598
96.5973
96.3223
96.135
96.1511
96.0315
96.1938
96.2065
96.4003
96.5546
96.6518
96.7018
96.7191
96.6863
96.67
96.5695
96.5136
96.3757
96.2822
96.0913
95.9345
95.721
95.5835
95.5008
95.4786
95.451
95.4002
95.2582
95.1951
95.1436
95.1139
95.0604
94.9303
94.866
94.8467
95.0017
95.2744
95.719
96.1506
96.631
96.9894
97.2959
97.5241
97.7124
97.8789
98.0342
98.1841
98.3287
98.4836
98.6494
98.7663
98.7634
98.3986
98.2613
98.8158
99.7309
74.808
73.9049
71.8536
69.5391
67.5003
65.8378
64.9844
64.346
63.7877
63.4895
63.4637
63.6447
63.9507
63.9981
64.1977
64.5865
65.2325
66.0747
66.9597
68.0402
69.4438
71.0067
72.664
74.1938
75.9954
78.2014
80.7548
83.1811
85.3234
87.1677
89.0496
90.3791
91.6443
92.8524
93.9908
94.955
95.5764
96.245
96.5991
96.9214
96.9244
96.8773
96.5745
96.1644
95.7851
95.4624
95.2158
95.0675
95.127
95.0652
95.2598
95.317
95.5319
95.7398
95.8346
95.9216
95.9401
95.9368
95.9398
95.8626
95.8426
95.7296
95.6604
95.4812
95.3413
95.1448
95.0238
94.962
94.9454
94.9335
94.8958
94.7565
94.6652
94.5792
94.5166
94.433
94.3465
94.3303
94.3893
94.623
94.9418
95.4423
95.898
96.3989
96.7644
97.0741
97.2961
97.4798
97.6394
97.7953
97.9487
98.1096
98.2758
98.4529
98.5848
98.6117
98.356
98.2741
98.909
99.7313
74.7491
73.8013
71.6563
69.2756
67.1352
65.3414
64.1941
63.3006
62.6335
62.1646
62.0006
62.1286
62.5506
62.7289
62.9481
63.3657
64.0576
65.0254
66.0509
67.2055
68.6729
70.2696
71.9574
73.4939
75.2662
77.4846
80.0034
82.3598
84.4752
86.2144
88.0568
89.2929
90.4736
91.6387
92.6906
93.6675
94.2595
94.8934
95.2225
95.495
95.4987
95.4694
95.2275
94.8547
94.5291
94.2277
94.0026
93.8713
93.9757
93.9569
94.18
94.2986
94.5209
94.7874
94.8886
95.039
95.0835
95.1226
95.1541
95.1043
95.1101
95.0238
94.9685
94.8161
94.6995
94.5369
94.4338
94.3969
94.3881
94.3922
94.3658
94.2241
94.1121
93.9827
93.8939
93.793
93.7547
93.793
93.9258
94.2311
94.5888
95.1352
95.6138
96.1261
96.5007
96.8118
97.0341
97.2084
97.3623
97.5092
97.6642
97.8242
98.0018
98.1775
98.3339
98.4038
98.2771
98.301
98.9442
99.9238
74.701
73.6969
71.4791
69.0423
66.7985
64.8773
63.4222
62.3173
61.5896
60.971
60.6846
60.7508
61.2905
61.6313
61.8608
62.3284
63.0941
64.2049
65.3824
66.6219
68.1678
69.8044
71.5103
73.0621
74.7935
76.9778
79.4081
81.6557
83.7035
85.3262
87.0773
88.2373
89.3171
90.4407
91.3897
92.349
92.926
93.5085
93.8076
94.0327
94.0372
94.0125
93.8286
93.4968
93.1999
92.9118
92.6992
92.5929
92.7228
92.7305
92.9815
93.1649
93.3948
93.7269
93.855
94.0844
94.1636
94.2485
94.2993
94.2867
94.3014
94.2544
94.2181
94.1049
94.0125
93.8906
93.809
93.8035
93.8088
93.8252
93.8059
93.666
93.5372
93.361
93.2565
93.1499
93.162
93.2653
93.4644
93.8237
94.213
94.7922
95.2976
95.8162
96.2023
96.5113
96.7362
96.9019
97.0473
97.1853
97.3288
97.4866
97.6507
97.8335
98.0035
98.1339
98.141
98.309
99.0742
99.9397
74.613
73.5394
71.2816
68.798
66.4692
64.4465
62.7348
61.4826
60.7378
60.0006
59.6309
59.6448
60.3005
60.8049
61.0141
61.5292
62.3731
63.6087
64.9326
66.2594
67.8878
69.5799
71.2934
72.8686
74.5548
76.6624
78.9529
81.0539
82.9871
84.4872
86.0893
87.1931
88.1657
89.2486
90.1062
91.0096
91.5709
92.0877
92.3539
92.5444
92.554
92.5372
92.3882
92.0887
91.8174
91.54
91.3415
91.2674
91.4002
91.438
91.7077
91.9394
92.1804
92.5776
92.7375
93.0461
93.1545
93.2948
93.3739
93.4052
93.4422
93.4277
93.416
93.344
93.2815
93.2118
93.1607
93.1832
93.2075
93.2272
93.2189
93.0829
92.9388
92.7234
92.6179
92.5137
92.5746
92.7472
93.0063
93.4081
93.8229
94.4187
94.9506
95.4759
95.8683
96.1744
96.3954
96.5584
96.6902
96.8186
96.9482
97.0907
97.2431
97.413
97.6046
97.7814
97.9312
98.2198
99.0424
100.154
74.4308
73.2941
71.0298
68.541
66.1653
64.0942
62.2322
60.9167
60.1946
59.4087
58.9897
58.9503
59.6722
60.3037
60.4748
61.015
61.9245
63.2496
64.6923
66.1031
67.7982
69.5444
71.2568
72.861
74.5037
76.5074
78.6176
80.5385
82.3098
83.6814
85.0936
86.1539
87.0371
88.0691
88.8535
89.6729
90.2063
90.6462
90.888
91.048
91.0638
91.0511
90.9203
90.6579
90.4052
90.1408
89.9653
89.9208
90.0582
90.1304
90.4091
90.6654
90.9328
91.3659
91.5795
91.9393
92.1092
92.2889
92.4161
92.4796
92.5446
92.557
92.573
92.5511
92.5311
92.5141
92.5016
92.5415
92.5971
92.6187
92.6269
92.4861
92.3372
92.0959
92.0025
91.9152
92.0394
92.2537
92.5689
92.9883
93.4293
94.0214
94.5814
95.1062
95.5037
95.8004
96.0186
96.1754
96.2962
96.4069
96.5224
96.6436
96.7775
96.933
97.1266
97.3548
97.6141
98.0825
98.9946
99.9153
74.1414
72.9379
70.7053
68.2791
65.9555
63.899
62.0186
60.7215
60.0662
59.2925
58.8366
58.7261
59.4543
60.1544
60.285
60.7994
61.7607
63.1215
64.6371
66.1212
67.8572
69.6572
71.3501
72.9744
74.5684
76.4443
78.3603
80.0956
81.6833
82.927
84.1421
85.1361
85.9495
86.9
87.6204
88.3492
88.8372
89.2186
89.4424
89.5745
89.5893
89.5719
89.4519
89.2246
88.9909
88.7528
88.6089
88.5919
88.7389
88.8359
89.1257
89.3948
89.7056
90.1551
90.4479
90.8322
91.0689
91.2707
91.4385
91.5298
91.6241
91.6667
91.7189
91.7495
91.7725
91.8019
91.8394
91.901
91.9908
92.0105
92.0306
91.8857
91.7462
91.5052
91.4403
91.3865
91.5682
91.7987
92.1467
92.5723
93.0329
93.6201
94.1981
94.7165
95.1132
95.4019
95.6127
95.7625
95.8679
95.9597
96.0526
96.152
96.2594
96.3866
96.5746
96.8142
97.1487
97.6662
98.5643
99.7382
73.7808
72.5327
70.3751
68.0395
65.8806
63.9095
62.1421
60.9267
60.3701
59.6567
59.1594
58.9732
59.6544
60.3673
60.4538
60.8883
61.8619
63.2133
64.7594
66.305
68.0463
69.8809
71.5395
73.1577
74.701
76.4321
78.1543
79.7159
81.1134
82.2248
83.2614
84.1572
84.9056
85.7378
86.3982
87.0392
87.4807
87.8237
88.0244
88.1303
88.14
88.1308
88.0197
87.8219
87.6101
87.4145
87.3089
87.3212
87.4799
87.595
87.8983
88.1832
88.5417
89.0121
89.3793
89.7713
90.0621
90.2761
90.4803
90.5963
90.7174
90.7868
90.8741
90.9512
91.0289
91.1016
91.1939
91.2736
91.3938
91.4052
91.4445
91.2999
91.1875
90.9658
90.9442
90.9199
91.1426
91.3757
91.7427
92.1715
92.6539
93.2251
93.8091
94.3145
94.7086
94.9843
95.1823
95.317
95.4098
95.4789
95.5546
95.6213
95.7018
95.7847
95.9408
96.1691
96.5129
97.0881
97.9997
98.9256
73.466
72.1744
70.1336
67.9035
65.9557
64.1579
62.5816
61.4951
61.0593
60.4463
59.9222
59.6661
60.2359
60.9176
60.9594
61.2847
62.224
63.5338
65.0529
66.6192
68.3367
70.1701
71.8031
73.3946
74.8859
76.4654
77.996
79.3864
80.5922
81.5685
82.4521
83.2303
83.9026
84.5973
85.1932
85.7546
86.1545
86.4647
86.6462
86.7391
86.7557
86.7558
86.6507
86.4809
86.304
86.1669
86.1031
86.1441
86.315
86.4487
86.7694
87.0803
87.4808
87.9695
88.3859
88.7848
89.1186
89.344
89.5709
89.7047
89.8442
89.9376
90.0652
90.1862
90.3246
90.4273
90.5785
90.6695
90.8283
90.8372
90.9075
90.7629
90.6939
90.4979
90.5308
90.5142
90.7698
90.9904
91.3726
91.7978
92.2949
92.8379
93.4194
93.9047
94.2937
94.5469
94.7294