/*--------------------------------*- C++ -*----------------------------------*\
| =========                 |                                                 |
| \\      /  F ield         | OpenFOAM: The Open Source CFD Toolbox           |
|  \\    /   O peration     | Version:  2.4.0                                 |
|   \\  /    A nd           | Web:      www.OpenFOAM.org                      |
|    \\/     M anipulation  |                                                 |
\*---------------------------------------------------------------------------*/
FoamFile
{
    version     2.0;
    format      ascii;
    class       surfaceScalarField;
    location    "0.06";
    object      phi_0;
}
// * * * * * * * * * * * * * * * * * * * * * * * * * * * * * * * * * * * * * //

dimensions      [0 3 -1 0 0 0 0];

internalField   nonuniform List<scalar> 
34880
(
5.48727e-06
7.01273e-06
3.12636e-06
2.36091e-06
2.47209e-06
6.54264e-07
2.21801e-06
2.54083e-07
2.07564e-06
1.42369e-07
1.96929e-06
1.06356e-07
1.88512e-06
8.41696e-08
1.82203e-06
6.30857e-08
1.77336e-06
4.86678e-08
1.73771e-06
3.56571e-08
1.71198e-06
2.57266e-08
1.68075e-06
3.12318e-08
1.66929e-06
1.14581e-08
1.64923e-06
2.00622e-08
1.64338e-06
5.84891e-09
1.65081e-06
-7.42898e-09
1.6592e-06
-8.39445e-09
1.68219e-06
-2.29863e-08
1.75348e-06
-7.12918e-08
-3.41045e-07
2.09453e-06
1.01099e-05
9.40279e-06
7.83296e-06
4.63789e-06
6.70856e-06
1.77867e-06
6.06285e-06
8.99796e-07
5.64728e-06
5.57939e-07
5.34983e-06
4.03808e-07
5.12211e-06
3.11888e-07
4.94599e-06
2.39201e-07
4.8063e-06
1.88363e-07
4.70478e-06
1.37171e-07
4.61712e-06
1.13387e-07
4.54246e-06
1.05893e-07
4.49018e-06
6.37355e-08
4.43828e-06
7.19652e-08
4.41161e-06
3.25147e-08
4.40096e-06
3.2245e-09
4.41572e-06
-2.31527e-08
4.47534e-06
-8.26116e-08
4.66268e-06
-2.58629e-07
-2.96739e-07
4.61838e-06
1.24242e-05
9.47861e-06
1.10083e-05
6.0538e-06
9.97842e-06
2.80851e-06
9.20159e-06
1.67663e-06
8.62106e-06
1.13847e-06
8.18982e-06
8.35053e-07
7.8575e-06
6.4421e-07
7.59554e-06
5.01155e-07
7.38244e-06
4.01463e-07
7.2272e-06
2.92414e-07
7.08486e-06
2.55725e-07
6.97631e-06
2.14444e-07
6.88472e-06
1.55328e-07
6.80617e-06
1.5051e-07
6.7579e-06
8.07829e-08
6.71951e-06
4.16186e-08
6.7354e-06
-3.90443e-08
6.79277e-06
-1.39984e-07
7.0064e-06
-4.72256e-07
-2.91365e-07
7.00103e-06
1.34099e-05
8.56871e-06
1.2895e-05
6.56868e-06
1.23248e-05
3.37875e-06
1.1715e-05
2.28646e-06
1.11362e-05
1.71724e-06
1.06581e-05
1.31316e-06
1.0273e-05
1.02926e-06
9.9608e-06
8.13375e-07
9.69732e-06
6.64947e-07
9.50561e-06
4.84121e-07
9.32085e-06
4.40489e-07
9.18541e-06
3.49879e-07
9.06371e-06
2.7703e-07
8.95929e-06
2.54933e-07
8.8966e-06
1.43469e-07
8.82648e-06
1.11743e-07
8.83471e-06
-4.72797e-08
8.88937e-06
-1.9464e-07
9.07682e-06
-6.59705e-07
-1.98176e-07
8.98363e-06
1.35861e-05
7.48259e-06
1.36681e-05
6.48669e-06
1.36248e-05
3.42208e-06
1.33991e-05
2.51215e-06
1.30207e-05
2.09563e-06
1.26255e-05
1.70841e-06
1.22706e-05
1.38413e-06
1.19669e-05
1.11707e-06
1.16923e-05
9.39524e-07
1.14927e-05
6.83744e-07
1.12895e-05
6.43703e-07
1.11401e-05
4.99257e-07
1.10046e-05
4.12514e-07
1.08803e-05
3.79271e-07
1.08145e-05
2.09295e-07
1.07191e-05
2.07099e-07
1.07093e-05
-3.7487e-08
1.07835e-05
-2.68846e-07
1.09033e-05
-7.79543e-07
4.97816e-08
1.06554e-05
1.34737e-05
6.50888e-06
1.37613e-05
6.19909e-06
1.40047e-05
3.17867e-06
1.41422e-05
2.37463e-06
1.40831e-05
2.15476e-06
1.39038e-05
1.88775e-06
1.36886e-05
1.59933e-06
1.34792e-05
1.32645e-06
1.32573e-05
1.16143e-06
1.30934e-05
8.47648e-07
1.29102e-05
8.26908e-07
1.27707e-05
6.38779e-07
1.26459e-05
5.37221e-07
1.25154e-05
5.09769e-07
1.24623e-05
2.62471e-07
1.23571e-05
3.12315e-07
1.23227e-05
-3.08577e-09
1.24465e-05
-3.92714e-07
1.2475e-05
-8.0801e-07
5.70162e-07
1.19546e-05
1.33478e-05
5.66104e-06
1.36943e-05
5.85261e-06
1.39488e-05
2.92422e-06
1.42208e-05
2.10256e-06
1.43847e-05
1.9909e-06
1.44206e-05
1.85185e-06
1.43916e-05
1.62836e-06
1.43452e-05
1.37283e-06
1.42495e-05
1.25714e-06
1.41797e-05
9.17381e-07
1.40714e-05
9.35192e-07
1.39807e-05
7.29546e-07
1.3903e-05
6.14939e-07
1.37893e-05
6.23404e-07
1.37731e-05
2.78669e-07
1.36747e-05
4.10749e-07
1.3631e-05
4.06401e-08
1.38087e-05
-5.70409e-07
1.37997e-05
-7.9907e-07
5.38394e-07
1.38315e-05
1.32536e-05
4.90746e-06
1.36782e-05
5.42803e-06
1.38284e-05
2.77399e-06
1.40979e-05
1.83302e-06
1.43237e-05
1.76517e-06
1.44563e-05
1.71922e-06
1.45278e-05
1.55685e-06
1.45997e-05
1.30092e-06
1.46294e-05
1.22744e-06
1.46667e-05
8.80128e-07
1.46697e-05
9.32174e-07
1.46617e-05
7.37563e-07
1.46687e-05
6.0787e-07
1.46051e-05
6.87045e-07
1.46583e-05
2.25421e-07
1.45831e-05
4.8599e-07
1.45796e-05
4.41131e-08
1.47995e-05
-7.90328e-07
1.47384e-05
-7.37967e-07
2.62972e-07
1.50139e-05
1.31831e-05
4.22435e-06
1.36183e-05
4.99281e-06
1.37368e-05
2.65548e-06
1.39833e-05
1.58656e-06
1.42048e-05
1.54365e-06
1.43599e-05
1.56419e-06
1.44581e-05
1.45856e-06
1.45597e-05
1.19941e-06
1.46461e-05
1.141e-06
1.47291e-05
7.97103e-07
1.48045e-05
8.56822e-07
1.48588e-05
6.83282e-07
1.49305e-05
5.3612e-07
1.49297e-05
6.87833e-07
1.5051e-05
1.04091e-07
1.50149e-05
5.22183e-07
1.50936e-05
-3.46475e-08
1.53383e-05
-1.03498e-06
1.52654e-05
-6.65093e-07
-3.12032e-07
1.58404e-05
1.31208e-05
3.60352e-06
1.35668e-05
4.54687e-06
1.36759e-05
2.5464e-06
1.38977e-05
1.3647e-06
1.41082e-05
1.33316e-06
1.42643e-05
1.40811e-06
1.43733e-05
1.34955e-06
1.44709e-05
1.10181e-06
1.45729e-05
1.03904e-06
1.46606e-05
7.09356e-07
1.47562e-05
7.61239e-07
1.4836e-05
6.03456e-07
1.49088e-05
4.63332e-07
1.4965e-05
6.31682e-07
1.50825e-05
-1.34997e-08
1.5077e-05
5.27771e-07
1.52596e-05
-2.17341e-07
1.54151e-05
-1.19043e-06
1.53883e-05
-6.38324e-07
-1.17716e-06
1.62535e-05
1.30539e-05
3.04964e-06
1.35163e-05
4.08446e-06
1.36349e-05
2.42775e-06
1.38383e-05
1.16137e-06
1.4033e-05
1.13844e-06
1.41855e-05
1.25558e-06
1.43036e-05
1.23141e-06
1.44019e-05
1.00351e-06
1.45062e-05
9.34811e-07
1.45869e-05
6.28639e-07
1.46835e-05
6.6464e-07
1.47686e-05
5.18299e-07
1.48247e-05
4.07268e-07
1.494e-05
5.16366e-07
1.49808e-05
-5.43007e-08
1.50551e-05
4.53467e-07
1.52666e-05
-4.28837e-07
1.52566e-05
-1.18041e-06
1.53701e-05
-7.51785e-07
-2.14031e-06
1.63332e-05
1.29869e-05
2.56274e-06
1.34603e-05
3.61103e-06
1.36044e-05
2.28368e-06
1.37914e-05
9.74343e-07
1.39692e-05
9.60662e-07
1.41212e-05
1.10361e-06
1.42437e-05
1.10888e-06
1.43479e-05
8.99327e-07
1.44544e-05
8.28318e-07
1.45252e-05
5.5786e-07
1.4624e-05
5.65857e-07
1.46922e-05
4.50015e-07
1.47625e-05
3.36967e-07
1.48915e-05
3.8736e-07
1.4874e-05
-3.6772e-08
1.50674e-05
2.60074e-07
1.51825e-05
-5.43885e-07
1.51019e-05
-1.09989e-06
1.54175e-05
-1.06734e-06
-2.96643e-06
1.62436e-05
1.29294e-05
2.13339e-06
1.34024e-05
3.138e-06
1.35989e-05
2.08718e-06
1.37526e-05
8.20644e-07
1.39113e-05
8.01924e-07
1.40627e-05
9.522e-07
1.41902e-05
9.81455e-07
1.4304e-05
7.85485e-07
1.44071e-05
7.2525e-07
1.44733e-05
4.91647e-07
1.45732e-05
4.65949e-07
1.46273e-05
3.95949e-07
1.47267e-05
2.37485e-07
1.48084e-05
3.05743e-07
1.48239e-05
-5.23279e-08
1.50614e-05
2.26072e-08
1.50452e-05
-5.27711e-07
1.5067e-05
-1.12169e-06
1.54956e-05
-1.49591e-06
-3.50914e-06
1.60383e-05
1.28832e-05
1.75023e-06
1.33503e-05
2.67083e-06
1.3611e-05
1.82655e-06
1.37202e-05
7.11457e-07
1.38595e-05
6.62574e-07
1.40117e-05
8.0004e-07
1.41438e-05
8.49342e-07
1.42639e-05
6.65318e-07
1.43613e-05
6.27886e-07
1.44338e-05
4.19129e-07
1.45212e-05
3.78563e-07
1.4586e-05
3.31146e-07
1.46866e-05
1.369e-07
1.4725e-05
2.67377e-07
1.48266e-05
-1.5397e-07
1.49885e-05
-1.39298e-07
1.49443e-05
-4.8354e-07
1.51185e-05
-1.29586e-06
1.54857e-05
-1.86309e-06
-3.72784e-06
1.57044e-05
1.28464e-05
1.40387e-06
1.33062e-05
2.21097e-06
1.35886e-05
1.54413e-06
1.36946e-05
6.05487e-07
1.38184e-05
5.38735e-07
1.39694e-05
6.49095e-07
1.41048e-05
7.1396e-07
1.42281e-05
5.42023e-07
1.43239e-05
5.32024e-07
1.44001e-05
3.42982e-07
1.4474e-05
3.04582e-07
1.45663e-05
2.38891e-07
1.46238e-05
7.93777e-08
1.4687e-05
2.04178e-07
1.48255e-05
-2.92429e-07
1.48756e-05
-1.89391e-07
1.49276e-05
-5.35583e-07
1.51598e-05
-1.52809e-06
1.53743e-05
-2.07758e-06
-3.71074e-06
1.53572e-05
1.28167e-05
1.08722e-06
1.32697e-05
1.75793e-06
1.35645e-05
1.24937e-06
1.3675e-05
4.949e-07
1.37876e-05
4.2619e-07
1.39354e-05
5.01247e-07
1.40722e-05
5.7715e-07
1.41955e-05
4.18815e-07
1.4296e-05
4.31474e-07
1.43661e-05
2.72848e-07
1.44472e-05
2.23521e-07
1.45418e-05
1.44291e-07
1.45608e-05
6.03671e-08
1.46956e-05
6.9437e-08
1.47719e-05
-3.68816e-07
1.47939e-05
-2.1137e-07
1.49674e-05
-7.09092e-07
1.51259e-05
-1.68656e-06
1.52186e-05
-2.1703e-06
-3.63673e-06
1.51446e-05
1.27927e-05
7.94541e-07
1.32405e-05
1.31016e-06
1.35431e-05
9.46762e-07
1.36621e-05
3.7588e-07
1.37644e-05
3.239e-07
1.39078e-05
3.57812e-07
1.40458e-05
4.39175e-07
1.41711e-05
2.93472e-07
1.42724e-05
3.30243e-07
1.43375e-05
2.07703e-07
1.44376e-05
1.23426e-07
1.44965e-05
8.53975e-08
1.45392e-05
1.76642e-08
1.47e-05
-9.14215e-08
1.46852e-05
-3.53962e-07
1.47917e-05
-3.17867e-07
1.49852e-05
-9.02578e-07
1.50315e-05
-1.73286e-06
1.51093e-05
-2.24815e-06
-3.64353e-06
1.51161e-05
1.27747e-05
5.19877e-07
1.3219e-05
8.65849e-07
1.35257e-05
6.40058e-07
1.36545e-05
2.47087e-07
1.37476e-05
2.30773e-07
1.38874e-05
2.18035e-07
1.40263e-05
3.00254e-07
1.41531e-05
1.66641e-07
1.42496e-05
2.33752e-07
1.43267e-05
1.30634e-07
1.44219e-05
2.8206e-08
1.44544e-05
5.28736e-08
1.45577e-05
-8.55985e-08
1.46557e-05
-1.89378e-07
1.46392e-05
-3.37478e-07
1.48311e-05
-5.09777e-07
1.49381e-05
-1.00959e-06
1.49547e-05
-1.74946e-06
1.5079e-05
-2.37245e-06
-3.69112e-06
1.51266e-05
1.27628e-05
2.5711e-07
1.32045e-05
4.24074e-07
1.35135e-05
3.31063e-07
1.36519e-05
1.08753e-07
1.37362e-05
1.46489e-07
1.38733e-05
8.08678e-08
1.40147e-05
1.58838e-07
1.41386e-05
4.27481e-08
1.42355e-05
1.36929e-07
1.43273e-05
3.88177e-08
1.43901e-05
-3.46547e-08
1.44512e-05
-8.24375e-09
1.45653e-05
-1.99641e-07
1.45911e-05
-2.15206e-07
1.46619e-05
-4.08279e-07
1.48347e-05
-6.82541e-07
1.4868e-05
-1.04296e-06
1.4941e-05
-1.82238e-06
1.50664e-05
-2.49791e-06
-3.71501e-06
1.50903e-05
1.2757e-05
6.96171e-11
1.31973e-05
-1.61991e-08
1.35074e-05
2.09772e-08
1.36515e-05
-3.53601e-08
1.37298e-05
6.82313e-08
1.38675e-05
-5.69077e-08
1.40094e-05
1.69435e-08
1.41266e-05
-7.44301e-08
1.42362e-05
2.73239e-08
1.43214e-05
-4.63207e-08
1.43676e-05
-8.08798e-08
1.44764e-05
-1.17046e-07
1.45325e-05
-2.55744e-07
1.45707e-05
-2.53441e-07
1.47011e-05
-5.38625e-07
1.47884e-05
-7.69873e-07
1.48382e-05
-1.09274e-06
1.49552e-05
-1.93944e-06
1.50334e-05
-2.57604e-06
-3.76952e-06
1.50879e-05
1.27573e-05
-2.57273e-07
1.31972e-05
-4.56014e-07
1.35077e-05
-2.89607e-07
1.36514e-05
-1.78984e-07
1.37292e-05
-9.61919e-09
1.38697e-05
-1.97384e-07
1.40069e-05
-1.20264e-07
1.4125e-05
-1.9257e-07
1.42446e-05
-9.22574e-08
1.43063e-05
-1.08004e-07
1.43777e-05
-1.52244e-07
1.4487e-05
-2.26341e-07
1.44964e-05
-2.65185e-07
1.46022e-05
-3.59204e-07
1.47005e-05
-6.36914e-07
1.47475e-05
-8.16963e-07
1.48523e-05
-1.19745e-06
1.49555e-05
-2.04271e-06
1.50084e-05
-2.62892e-06
-3.84119e-06
1.50801e-05
1.27635e-05
-5.2078e-07
1.32046e-05
-8.97079e-07
1.35139e-05
-5.98968e-07
1.36511e-05
-3.16169e-07
1.37358e-05
-9.42733e-08
1.3878e-05
-3.39636e-07
1.40089e-05
-2.51097e-07
1.41372e-05
-3.20874e-07
1.42464e-05
-2.01476e-07
1.43043e-05
-1.65954e-07
1.44053e-05
-2.53191e-07
1.44705e-05
-2.91597e-07
1.45028e-05
-2.97429e-07
1.46342e-05
-4.906e-07
1.46722e-05
-6.74973e-07
1.47497e-05
-8.94467e-07
1.48722e-05
-1.31992e-06
1.49418e-05
-2.1123e-06
1.50014e-05
-2.6885e-06
-3.87148e-06
1.50317e-05
1.27755e-05
-7.96327e-07
1.32194e-05
-1.34091e-06
1.35252e-05
-9.04777e-07
1.36536e-05
-4.44602e-07
1.37493e-05
-1.89998e-07
1.38899e-05
-4.802e-07
1.40213e-05
-3.82521e-07
1.41549e-05
-4.54478e-07
1.42449e-05
-2.91415e-07
1.43282e-05
-2.4923e-07
1.44179e-05
-3.42948e-07
1.44627e-05
-3.36362e-07
1.45415e-05
-3.76305e-07
1.46348e-05
-5.83825e-07
1.46624e-05
-7.02621e-07
1.47786e-05
-1.01062e-06
1.48774e-05
-1.41874e-06
1.49298e-05
-2.16466e-06
1.50023e-05
-2.76104e-06
-3.93086e-06
1.50617e-05
1.27938e-05
-1.09016e-06
1.32413e-05
-1.78839e-06
1.35411e-05
-1.20457e-06
1.36608e-05
-5.64296e-07
1.37679e-05
-2.97125e-07
1.39081e-05
-6.20388e-07
1.40457e-05
-5.20063e-07
1.41691e-05
-5.77933e-07
1.42578e-05
-3.80057e-07
1.43599e-05
-3.51339e-07
1.44172e-05
-4.00242e-07
1.44899e-05
-4.09085e-07
1.45714e-05
-4.57848e-07
1.46276e-05
-6.39953e-07
1.46868e-05
-7.61828e-07
1.48038e-05
-1.12768e-06
1.48743e-05
-1.48925e-06
1.49343e-05
-2.22462e-06
1.50156e-05
-2.8423e-06
-4.00209e-06
1.50868e-05
1.28186e-05
-1.40875e-06
1.327e-05
-2.23978e-06
1.35615e-05
-1.4961e-06
1.36736e-05
-6.7637e-07
1.37914e-05
-4.14915e-07
1.39367e-05
-7.65685e-07
1.4074e-05
-6.57359e-07
1.41861e-05
-6.90109e-07
1.42895e-05
-4.83437e-07
1.43803e-05
-4.42129e-07
1.44325e-05
-4.52464e-07
1.45338e-05
-5.10363e-07
1.4582e-05
-5.06088e-07
1.46455e-05
-7.03397e-07
1.47255e-05
-8.41805e-07
1.48181e-05
-1.2203e-06
1.48782e-05
-1.54941e-06
1.49596e-05
-2.30603e-06
1.50359e-05
-2.91855e-06
-4.03988e-06
1.50737e-05
1.28495e-05
-1.75822e-06
1.33055e-05
-2.69583e-06
1.35856e-05
-1.77617e-06
1.36914e-05
-7.82176e-07
1.38225e-05
-5.46034e-07
1.39741e-05
-9.17288e-07
1.41029e-05
-7.86179e-07
1.42174e-05
-8.04568e-07
1.43245e-05
-5.90539e-07
1.43993e-05
-5.16907e-07
1.44736e-05
-5.26773e-07
1.45666e-05
-6.03366e-07
1.45981e-05
-5.37558e-07
1.46901e-05
-7.95421e-07
1.4758e-05
-9.09759e-07
1.48337e-05
-1.29593e-06
1.48998e-05
-1.61556e-06
1.49912e-05
-2.39743e-06
1.5048e-05
-2.9753e-06
-4.0766e-06
1.50847e-05
1.28864e-05
-2.14464e-06
1.33486e-05
-3.15803e-06
1.36094e-05
-2.03693e-06
1.3715e-05
-8.87743e-07
1.38649e-05
-6.9599e-07
1.40157e-05
-1.0681e-06
1.41399e-05
-9.10358e-07
1.42591e-05
-9.23791e-07
1.4356e-05
-6.87427e-07
1.44365e-05
-5.97412e-07
1.45219e-05
-6.12146e-07
1.45901e-05
-6.71594e-07
1.46393e-05
-5.86734e-07
1.47411e-05
-8.97252e-07
1.47866e-05
-9.55226e-07
1.48675e-05
-1.37681e-06
1.49322e-05
-1.68032e-06
1.50125e-05
-2.47769e-06
1.50644e-05
-3.02717e-06
-4.15601e-06
1.51438e-05
1.29313e-05
-2.57598e-06
1.33998e-05
-3.62653e-06
1.36017e-05
-2.23881e-06
1.37464e-05
-1.03242e-06
1.39178e-05
-8.67424e-07
1.40628e-05
-1.21305e-06
1.41911e-05
-1.03867e-06
1.43001e-05
-1.03282e-06
1.43958e-05
-7.8316e-07
1.44906e-05
-6.92218e-07
1.45652e-05
-6.86693e-07
1.46275e-05
-7.33922e-07
1.46996e-05
-6.58861e-07
1.47864e-05
-9.84036e-07
1.48294e-05
-9.98188e-07
1.49175e-05
-1.4649e-06
1.49579e-05
-1.72078e-06
1.50304e-05
-2.55011e-06
1.51001e-05
-3.09691e-06
-4.26225e-06
1.52063e-05
1.29874e-05
-3.06336e-06
1.34568e-05
-4.09594e-06
1.36047e-05
-2.38666e-06
1.37861e-05
-1.21385e-06
1.39766e-05
-1.05792e-06
1.41193e-05
-1.35573e-06
1.42506e-05
-1.16998e-06
1.43418e-05
-1.12408e-06
1.44504e-05
-8.91738e-07
1.45446e-05
-7.86415e-07
1.46144e-05
-7.5647e-07
1.46869e-05
-8.06406e-07
1.47622e-05
-7.34229e-07
1.48336e-05
-1.05541e-06
1.48887e-05
-1.05328e-06
1.49593e-05
-1.53556e-06
1.49781e-05
-1.73954e-06
1.50555e-05
-2.62755e-06
1.51353e-05
-3.17671e-06
-4.3943e-06
1.52674e-05
1.30532e-05
-3.61659e-06
1.35122e-05
-4.55495e-06
1.36348e-05
-2.50922e-06
1.38341e-05
-1.41314e-06
1.4042e-05
-1.2658e-06
1.41849e-05
-1.49863e-06
1.43136e-05
-1.29867e-06
1.43966e-05
-1.20713e-06
1.45119e-05
-1.00707e-06
1.45961e-05
-8.70533e-07
1.46821e-05
-8.42479e-07
1.47538e-05
-8.78102e-07
1.48275e-05
-8.07973e-07
1.48871e-05
-1.115e-06
1.49435e-05
-1.10967e-06
1.4984e-05
-1.57608e-06
1.5005e-05
-1.76049e-06
1.50753e-05
-2.69794e-06
1.51311e-05
-3.23244e-06
-4.53351e-06
1.52703e-05
1.31196e-05
-4.23621e-06
1.35626e-05
-4.99794e-06
1.3676e-05
-2.62265e-06
1.38964e-05
-1.63354e-06
1.41205e-05
-1.48985e-06
1.42602e-05
-1.63833e-06
1.4385e-05
-1.42342e-06
1.44677e-05
-1.28989e-06
1.45779e-05
-1.11721e-06
1.46598e-05
-9.52432e-07
1.47561e-05
-9.38859e-07
1.4817e-05
-9.3894e-07
1.48909e-05
-8.81933e-07
1.49286e-05
-1.15266e-06
1.49744e-05
-1.15547e-06
1.49868e-05
-1.58851e-06
1.49997e-05
-1.77333e-06
1.50092e-05
-2.70747e-06
1.49835e-05
-3.2067e-06
-4.56952e-06
1.50195e-05
1.31817e-05
-4.91792e-06
1.36155e-05
-5.43177e-06
1.37388e-05
-2.7459e-06
1.39823e-05
-1.87707e-06
1.42176e-05
-1.72511e-06
1.4352e-05
-1.77275e-06
1.44684e-05
-1.53986e-06
1.455e-05
-1.37148e-06
1.46472e-05
-1.21438e-06
1.47222e-05
-1.02745e-06
1.47979e-05
-1.01452e-06
1.48356e-05
-9.76699e-07
1.48824e-05
-9.28741e-07
1.48796e-05
-1.14977e-06
1.48857e-05
-1.16164e-06
1.4838e-05
-1.54074e-06
1.47837e-05
-1.71907e-06
1.46625e-05
-2.58628e-06
1.44921e-05
-3.03628e-06
-4.39138e-06
1.43139e-05
1.32514e-05
-5.66931e-06
1.36756e-05
-5.85595e-06
1.38323e-05
-2.90265e-06
1.40958e-05
-2.14051e-06
1.43317e-05
-1.96103e-06
1.44455e-05
-1.88659e-06
1.45337e-05
-1.628e-06
1.45867e-05
-1.42454e-06
1.46295e-05
-1.25717e-06
1.46521e-05
-1.05003e-06
1.46522e-05
-1.01461e-06
1.46229e-05
-9.47372e-07
1.45921e-05
-8.98e-07
1.45114e-05
-1.06903e-06
1.44333e-05
-1.08354e-06
1.42941e-05
-1.40159e-06
1.41406e-05
-1.56553e-06
1.38817e-05
-2.32736e-06
1.35708e-05
-2.7254e-06
-4.00177e-06
1.31812e-05
1.33459e-05
-6.51517e-06
1.36911e-05
-6.20116e-06
1.39517e-05
-3.16325e-06
1.42155e-05
-2.4043e-06
1.4389e-05
-2.13455e-06
1.44126e-05
-1.91016e-06
1.43929e-05
-1.60833e-06
1.43323e-05
-1.36399e-06
1.42464e-05
-1.17122e-06
1.4155e-05
-9.58661e-07
1.40415e-05
-9.01116e-07
1.39208e-05
-8.26663e-07
1.38017e-05
-7.78899e-07
1.3646e-05
-9.13366e-07
1.34932e-05
-9.30692e-07
1.32855e-05
-1.19394e-06
1.30581e-05
-1.33806e-06
1.27096e-05
-1.97884e-06
1.23032e-05
-2.31908e-06
-3.49907e-06
1.18005e-05
1.34719e-05
-7.48703e-06
1.37591e-05
-6.48844e-06
1.40064e-05
-3.41047e-06
1.41367e-05
-2.53466e-06
1.40848e-05
-2.08262e-06
1.38984e-05
-1.72376e-06
1.36858e-05
-1.39572e-06
1.3466e-05
-1.14426e-06
1.32488e-05
-9.54018e-07
1.30602e-05
-7.69984e-07
1.28696e-05
-7.10599e-07
1.26936e-05
-6.50643e-07
1.25263e-05
-6.11551e-07
1.23328e-05
-7.19862e-07
1.21416e-05
-7.3953e-07
1.18982e-05
-9.50542e-07
1.16309e-05
-1.0707e-06
1.12338e-05
-1.58175e-06
1.07697e-05
-1.85497e-06
-2.62849e-06
9.89907e-06
1.35844e-05
-8.5714e-06
1.36662e-05
-6.5703e-06
1.3626e-05
-3.37026e-06
1.33947e-05
-2.30336e-06
1.30205e-05
-1.70841e-06
1.2621e-05
-1.32421e-06
1.22648e-05
-1.03955e-06
1.19533e-05
-8.32798e-07
1.16791e-05
-6.79758e-07
1.14546e-05
-5.45487e-07
1.12415e-05
-4.97486e-07
1.10522e-05
-4.61419e-07
1.08726e-05
-4.31941e-07
1.06713e-05
-5.18494e-07
1.04687e-05
-5.37008e-07
1.0215e-05
-6.96817e-07
9.93298e-06
-7.88674e-07
9.5196e-06
-1.16838e-06
9.04233e-06
-1.37769e-06
-1.89751e-06
8.31135e-06
1.34084e-05
-9.47982e-06
1.28937e-05
-6.05557e-06
1.23259e-05
-2.80242e-06
1.17112e-05
-1.68867e-06
1.11351e-05
-1.13234e-06
1.06538e-05
-8.42909e-07
1.02655e-05
-6.51272e-07
9.94715e-06
-5.14438e-07
9.68063e-06
-4.13236e-07
9.46634e-06
-3.31201e-07
9.26837e-06
-2.99511e-07
9.09348e-06
-2.86534e-07
8.92629e-06
-2.64747e-07
8.73803e-06
-3.30234e-07
8.54439e-06
-3.43364e-07
8.30156e-06
-4.53987e-07
8.02643e-06
-5.13553e-07
7.62856e-06
-7.70503e-07
7.16016e-06
-9.09291e-07
-1.27096e-06
6.53361e-06
1.24232e-05
-9.40298e-06
1.10073e-05
-4.63969e-06
9.9795e-06
-1.77463e-06
9.19812e-06
-9.07295e-07
8.61973e-06
-5.53953e-07
8.18551e-06
-4.08688e-07
7.8496e-06
-3.15357e-07
7.58239e-06
-2.47234e-07
7.36453e-06
-1.95375e-07
7.19035e-06
-1.5702e-07
7.03198e-06
-1.41141e-07
6.88853e-06
-1.43087e-07
6.75146e-06
-1.27676e-07
6.5918e-06
-1.70569e-07
6.42449e-06
-1.76057e-07
6.21126e-06
-2.40761e-07
5.96647e-06
-2.68762e-07
5.61139e-06
-4.15416e-07
5.18601e-06
-4.83919e-07
-7.25057e-07
4.64011e-06
1.01096e-05
-7.01258e-06
7.8319e-06
-2.362e-06
6.70969e-06
-6.5242e-07
6.05965e-06
-2.57249e-07
5.6462e-06
-1.40504e-07
5.3458e-06
-1.08293e-07
5.11562e-06
-8.51714e-08
4.9346e-06
-6.62164e-08
4.79043e-06
-5.12097e-08
4.67488e-06
-4.14676e-08
4.57086e-06
-3.71184e-08
4.47028e-06
-4.25103e-08
4.3773e-06
-3.46992e-08
4.25972e-06
-5.29898e-08
4.13711e-06
-5.34418e-08
3.97396e-06
-7.76134e-08
3.78854e-06
-8.3346e-08
3.50992e-06
-1.36791e-07
3.18068e-06
-1.54678e-07
-2.80202e-07
2.73582e-06
5.48742e-06
3.12542e-06
2.473e-06
2.21576e-06
2.07525e-06
1.96696e-06
1.88179e-06
1.81557e-06
1.76436e-06
1.72289e-06
1.68578e-06
1.64327e-06
1.60857e-06
1.55558e-06
1.50213e-06
1.42452e-06
1.34118e-06
1.20438e-06
1.04971e-06
7.69505e-07
2.63557e-06
9.89051e-07
-1.53009e-06
3.47567e-06
8.98555e-07
-1.73865e-06
4.38007e-06
9.35863e-07
-1.84027e-06
5.36073e-06
7.05479e-07
-1.68614e-06
6.41246e-06
2.85809e-07
-1.33753e-06
7.3189e-06
-3.46275e-07
-5.60172e-07
7.97578e-06
-1.52766e-06
8.70783e-07
8.71898e-06
-2.58136e-06
1.83816e-06
9.55083e-06
-4.3351e-06
3.50325e-06
1.01487e-05
-6.21105e-06
5.61316e-06
1.09779e-05
-7.95361e-06
7.12442e-06
1.16066e-05
-1.01785e-05
9.54977e-06
1.18665e-05
-1.18767e-05
1.16168e-05
1.17278e-05
-1.33321e-05
1.34709e-05
1.12727e-05
-1.56359e-05
1.6091e-05
1.05036e-05
-1.4921e-05
1.56901e-05
9.54303e-06
-1.49966e-05
1.59572e-05
8.72912e-06
-1.33739e-05
1.41878e-05
7.61418e-06
-9.49212e-06
1.06071e-05
7.15271e-06
-9.03482e-06
9.49628e-06
7.12932e-06
-6.23812e-06
6.26151e-06
6.33759e-06
-1.22493e-06
2.01666e-06
5.6099e-06
-1.52471e-06
2.2524e-06
6.00333e-06
-2.94653e-06
2.5531e-06
6.91471e-06
4.00961e-06
-4.921e-06
7.69295e-06
1.25053e-05
-1.32835e-05
8.09523e-06
1.45666e-05
-1.49688e-05
8.27088e-06
1.41765e-05
-1.43522e-05
8.41499e-06
1.27569e-05
-1.2901e-05
8.5496e-06
1.2392e-05
-1.25266e-05
8.81202e-06
1.11416e-05
-1.1404e-05
9.13003e-06
9.07818e-06
-9.39619e-06
9.49488e-06
9.82375e-06
-1.01886e-05
1.00951e-05
9.61784e-06
-1.02181e-05
1.1006e-05
9.57713e-06
-1.0488e-05
1.18411e-05
1.0944e-05
-1.17791e-05
1.25557e-05
9.15591e-06
-9.87057e-06
1.33095e-05
6.09627e-06
-6.85e-06
1.39336e-05
4.28832e-06
-4.91245e-06
1.42814e-05
2.87658e-07
-6.35455e-07
1.45951e-05
-3.83127e-06
3.51755e-06
1.48887e-05
-7.45365e-06
7.16009e-06
1.45418e-05
-1.14391e-05
1.1786e-05
1.3862e-05
-1.23632e-05
1.3043e-05
1.39146e-05
-1.33747e-05
1.33221e-05
1.44817e-05
-1.70767e-05
1.65097e-05
1.48805e-05
-1.99666e-05
1.95678e-05
1.50612e-05
-2.23969e-05
2.22161e-05
1.48275e-05
-2.41674e-05
2.44011e-05
1.42423e-05
-2.37744e-05
2.43597e-05
1.38379e-05
-2.35496e-05
2.3954e-05
1.35086e-05
-2.41174e-05
2.44467e-05
1.29356e-05
-2.3331e-05
2.3904e-05
1.25592e-05
-2.21965e-05
2.25729e-05
1.27215e-05
-2.26086e-05
2.24462e-05
1.29203e-05
-2.36805e-05
2.34818e-05
1.27742e-05
-2.37137e-05
2.38598e-05
1.24817e-05
-2.25285e-05
2.28209e-05
1.23461e-05
-2.14609e-05
2.15966e-05
1.25907e-05
-2.12793e-05
2.10347e-05
1.31812e-05
-2.15073e-05
2.09168e-05
1.37866e-05
-2.15781e-05
2.09727e-05
1.41466e-05
-2.06167e-05
2.02567e-05
1.43404e-05
-1.80777e-05
1.7884e-05
1.45076e-05
-1.50136e-05
1.48464e-05
1.45823e-05
-1.22394e-05
1.21647e-05
1.45468e-05
-8.62244e-06
8.65793e-06
1.43794e-05
-4.1777e-06
4.34516e-06
1.40834e-05
-4.27339e-07
7.23335e-07
1.37618e-05
3.15457e-06
-2.83302e-06
1.335e-05
7.24552e-06
-6.83371e-06
1.27565e-05
1.0706e-05
-1.01125e-05
1.20385e-05
1.27324e-05
-1.20143e-05
1.13132e-05
1.41012e-05
-1.3376e-05
1.06287e-05
1.53021e-05
-1.46175e-05
9.97538e-06
1.58518e-05
-1.51985e-05
9.35239e-06
1.54025e-05
-1.47795e-05
8.78846e-06
1.42963e-05
-1.37324e-05
8.32024e-06
1.30199e-05
-1.25517e-05
7.95363e-06
1.18008e-05
-1.14342e-05
7.67268e-06
1.0606e-05
-1.03251e-05
7.4409e-06
9.51017e-06
-9.27839e-06
7.25397e-06
8.51217e-06
-8.32524e-06
7.0955e-06
7.7371e-06
-7.57864e-06
6.99241e-06
6.99821e-06
-6.89512e-06
6.90528e-06
6.44725e-06
-6.36012e-06
6.86248e-06
5.82168e-06
-5.77888e-06
6.78937e-06
5.46918e-06
-5.39608e-06
6.75098e-06
4.98813e-06
-4.94973e-06
6.66545e-06
4.82844e-06
-4.74292e-06
6.64746e-06
4.36807e-06
-4.35008e-06
6.58909e-06
4.19762e-06
-4.13924e-06
6.62139e-06
3.58525e-06
-3.61755e-06
6.59057e-06
3.33641e-06
-3.30559e-06
6.6472e-06
2.66766e-06
-2.72429e-06
6.61166e-06
2.48522e-06
-2.44968e-06
6.6657e-06
1.98832e-06
-2.04235e-06
6.62682e-06
1.9098e-06
-1.87091e-06
6.66881e-06
1.70391e-06
-1.7459e-06
6.63994e-06
1.58019e-06
-1.55133e-06
6.66298e-06
1.61881e-06
-1.64185e-06
6.63498e-06
1.36874e-06
-1.34074e-06
6.65432e-06
1.45493e-06
-1.47428e-06
6.60417e-06
1.21852e-06
-1.16837e-06
6.65044e-06
1.13559e-06
-1.18187e-06
6.57419e-06
1.06598e-06
-9.89731e-07
6.64612e-06
8.17094e-07
-8.89021e-07
6.5761e-06
8.31105e-07
-7.61082e-07
6.63161e-06
6.51552e-07
-7.07063e-07
6.60429e-06
5.55583e-07
-5.28262e-07
6.6127e-06
5.86509e-07
-5.94923e-07
6.62526e-06
3.86726e-07
-3.99283e-07
6.60642e-06
4.77996e-07
-4.59161e-07
6.61904e-06
3.70243e-07
-3.82857e-07
6.61311e-06
3.27547e-07
-3.21616e-07
6.60348e-06
3.69697e-07
-3.60073e-07
6.61638e-06
2.51041e-07
-2.63939e-07
6.60221e-06
2.90931e-07
-2.76757e-07
6.60828e-06
2.54791e-07
-2.6086e-07
6.60976e-06
2.15012e-07
-2.16496e-07
6.59849e-06
2.36846e-07
-2.25575e-07
6.60901e-06
2.07655e-07
-2.18173e-07
6.59666e-06
1.8512e-07
-1.72769e-07
6.60213e-06
2.0214e-07
-2.0761e-07
6.59829e-06
1.67402e-07
-1.63567e-07
6.60006e-06
1.65042e-07
-1.6681e-07
6.59583e-06
1.73365e-07
-1.69134e-07
6.60026e-06
1.50814e-07
-1.55245e-07
6.59245e-06
1.56807e-07
-1.48999e-07
6.59824e-06
1.58201e-07
-1.63987e-07
6.59102e-06
1.4632e-07
-1.39099e-07
6.59893e-06
1.43406e-07
-1.5132e-07
6.58927e-06
1.6265e-07
-1.52992e-07
6.59911e-06
1.36043e-07
-1.45878e-07
6.5902e-06
1.62947e-07
-1.54035e-07
6.59721e-06
1.57453e-07
-1.64464e-07
6.58919e-06
1.62101e-07
-1.54084e-07
6.60092e-06
1.65816e-07
-1.77543e-07
6.58626e-06
1.84574e-07
-1.69917e-07
6.60106e-06
1.80808e-07
-1.95603e-07
6.58868e-06
1.95645e-07
-1.8327e-07
6.60106e-06
2.07711e-07
-2.2009e-07
6.58622e-06
2.25701e-07
-2.10862e-07
6.6071e-06
2.18593e-07
-2.39468e-07
6.58543e-06
2.60963e-07
-2.39299e-07
6.60717e-06
2.66515e-07
-2.88255e-07
6.58898e-06
2.76143e-07
-2.57954e-07
6.6097e-06
3.06647e-07
-3.27362e-07
6.58969e-06
3.46147e-07
-3.26143e-07
6.61741e-06
3.19854e-07
-3.47569e-07
6.58433e-06
4.06711e-07
-3.73627e-07
6.62946e-06
4.10533e-07
-4.55664e-07
6.592e-06
4.03993e-07
-3.6654e-07
6.62032e-06
5.24891e-07
-5.53208e-07
6.61426e-06
4.97395e-07
-4.91339e-07
6.6319e-06
4.89958e-07
-5.07596e-07
6.59327e-06
7.35995e-07
-6.97362e-07
6.66982e-06
5.0688e-07
-5.83436e-07
6.59379e-06
7.46556e-07
-6.70519e-07
6.66398e-06
8.16451e-07
-8.86648e-07
6.62946e-06
7.17433e-07
-6.82907e-07
6.68012e-06
9.15041e-07
-9.65702e-07
6.63134e-06
9.80439e-07
-9.31658e-07
6.70097e-06
9.81264e-07
-1.0509e-06
6.66141e-06
1.1333e-06
-1.09374e-06
6.71974e-06
1.15007e-06
-1.20839e-06
6.67576e-06
1.33737e-06
-1.29339e-06
6.74427e-06
1.35481e-06
-1.42331e-06
6.72464e-06
1.50438e-06
-1.48475e-06
6.76414e-06
1.56931e-06
-1.6088e-06
6.76905e-06
1.77209e-06
-1.777e-06
6.79349e-06
1.87197e-06
-1.89641e-06
6.84758e-06
1.97352e-06
-2.02761e-06
6.81358e-06
2.15978e-06
-2.12578e-06
6.92065e-06
2.34152e-06
-2.44859e-06
6.85753e-06
2.56276e-06
-2.49963e-06
7.00527e-06
2.63847e-06
-2.78621e-06
6.92686e-06
2.95131e-06
-2.8729e-06
7.05635e-06
3.08413e-06
-3.21361e-06
6.98368e-06
3.49376e-06
-3.4211e-06
7.09187e-06
3.60949e-06
-3.71767e-06
7.09978e-06
3.95089e-06
-3.95881e-06
7.11141e-06
4.23342e-06
-4.24505e-06
7.24656e-06
4.52538e-06
-4.66052e-06
7.14347e-06
5.00149e-06
-4.8984e-06
7.3214e-06
5.24725e-06
-5.42519e-06
7.2314e-06
5.82543e-06
-5.73542e-06
7.30649e-06
6.14734e-06
-6.22243e-06
7.35645e-06
6.72625e-06
-6.77621e-06
7.19284e-06
7.34522e-06
-7.18161e-06
7.2527e-06
7.8651e-06
-7.92495e-06
7.07673e-06
8.72143e-06
-8.54546e-06
6.9487e-06
9.50649e-06
-9.37846e-06
7.01928e-06
1.03554e-05
-1.0426e-05
6.76646e-06
1.19975e-05
-1.17447e-05
6.70517e-06
1.31426e-05
-1.30813e-05
6.89074e-06
1.52613e-05
-1.54469e-05
5.83792e-06
1.89643e-05
-1.79114e-05
5.8133e-06
2.10491e-05
-2.10245e-05
3.25436e-05
-3.2211e-05
5.48064e-06
4.92493e-06
6.82492e-07
5.522e-06
3.01492e-07
6.29507e-06
1.62793e-07
7.15339e-06
-1.52843e-07
7.94795e-06
-5.08753e-07
8.88883e-06
-1.28715e-06
9.70421e-06
-2.34303e-06
1.0339e-05
-3.21614e-06
1.11862e-05
-5.18235e-06
1.17051e-05
-6.72995e-06
1.2265e-05
-8.51344e-06
1.26536e-05
-1.05671e-05
1.26597e-05
-1.18828e-05
1.24015e-05
-1.30739e-05
1.17208e-05
-1.49552e-05
1.09072e-05
-1.41074e-05
9.83573e-06
-1.39252e-05
8.95688e-06
-1.2495e-05
7.92047e-06
-8.4557e-06
7.40662e-06
-8.52097e-06
7.43496e-06
-6.26647e-06
6.92942e-06
-7.19382e-07
6.23119e-06
-8.26486e-07
6.37991e-06
-3.09524e-06
7.18816e-06
3.20136e-06
8.04867e-06
1.16448e-05
8.38264e-06
1.42326e-05
8.46264e-06
1.40965e-05
8.44891e-06
1.27706e-05
8.57904e-06
1.22619e-05
8.86494e-06
1.08557e-05
9.16503e-06
8.77809e-06
9.59918e-06
9.3896e-06
1.02399e-05
8.97711e-06
1.11764e-05
8.64067e-06
1.20789e-05
1.00415e-05
1.2832e-05
8.4028e-06
1.36157e-05
5.31255e-06
1.42785e-05
3.62556e-06
1.46529e-05
-8.67297e-08
1.49856e-05
-4.16402e-06
1.51432e-05
-7.61125e-06
1.4666e-05
-1.09619e-05
1.41315e-05
-1.18287e-05
1.44433e-05
-1.36865e-05
1.50643e-05
-1.76977e-05
1.53441e-05
-2.02464e-05
1.5338e-05
-2.23908e-05
1.49579e-05
-2.37872e-05
1.43486e-05
-2.31652e-05
1.39411e-05
-2.31421e-05
1.35351e-05
-2.37114e-05
1.29378e-05
-2.27337e-05
1.26497e-05
-2.19084e-05
1.28358e-05
-2.27946e-05
1.29122e-05
-2.37569e-05
1.2596e-05
-2.33975e-05
1.22174e-05
-2.21499e-05
1.21175e-05
-2.13611e-05
1.24155e-05
-2.15773e-05
1.2983e-05
-2.20748e-05
1.34903e-05
-2.20853e-05
1.37476e-05
-2.0874e-05
1.38807e-05
-1.82109e-05
1.40066e-05
-1.51395e-05
1.40565e-05
-1.22893e-05
1.39649e-05
-8.53085e-06
1.37657e-05
-3.97846e-06
1.34732e-05
-1.34861e-07
1.31579e-05
3.46988e-06
1.2776e-05
7.62741e-06
1.22444e-05
1.12376e-05
1.15811e-05
1.33957e-05
1.08898e-05
1.47924e-05
1.0236e-05
1.59559e-05
9.61896e-06
1.64688e-05
9.03521e-06
1.59863e-05
8.50942e-06
1.48221e-05
8.07602e-06
1.34533e-05
7.73944e-06
1.21374e-05
7.48505e-06
1.08604e-05
7.2757e-06
9.71952e-06
7.10735e-06
8.68052e-06
6.96059e-06
7.88386e-06
6.86781e-06
7.091e-06
6.78541e-06
6.52965e-06
6.75465e-06
5.85244e-06
6.68799e-06
5.53585e-06
6.67656e-06
4.99956e-06
6.60663e-06
4.89837e-06
6.63425e-06
4.34046e-06
6.58539e-06
4.24647e-06
6.66111e-06
3.50953e-06
6.60403e-06
3.39349e-06
6.68741e-06
2.58429e-06
6.58704e-06
2.58559e-06
6.66126e-06
1.91409e-06
6.54668e-06
2.02438e-06
6.61171e-06
1.63887e-06
6.52893e-06
1.66298e-06
6.5701e-06
1.57764e-06
6.52779e-06
1.41104e-06
6.54872e-06
1.434e-06
6.52244e-06
1.24481e-06