/*--------------------------------*- C++ -*----------------------------------*\
| =========                 |                                                 |
| \\      /  F ield         | OpenFOAM: The Open Source CFD Toolbox           |
|  \\    /   O peration     | Version:  2.4.0                                 |
|   \\  /    A nd           | Web:      www.OpenFOAM.org                      |
|    \\/     M anipulation  |                                                 |
\*---------------------------------------------------------------------------*/
FoamFile
{
    version     2.0;
    format      ascii;
    class       volScalarField;
    location    "0.166";
    object      nuSgs;
}
// * * * * * * * * * * * * * * * * * * * * * * * * * * * * * * * * * * * * * //

dimensions      [0 2 -1 0 0 0 0];

internalField   nonuniform List<scalar> 
4400
(
0.00205245
0.00193576
0.00169645
0.00153183
0.00142749
0.00137015
0.00133139
0.00129716
0.00127779
0.00131382
0.00139634
0.00172731
0.00172436
0.00167121
0.00158305
0.00152376
0.00148074
0.00143902
0.00142734
0.00141621
0.000721848
0.00118076
0.00136178
0.00141854
0.00140559
0.00137524
0.00135146
0.00131716
0.00131231
0.00129181
0.000270283
0.000647922
0.000860581
0.00101685
0.00108621
0.00110976
0.0011257
0.00111933
0.00112231
0.00111783
8.77433e-05
0.000277952
0.000403547
0.000580593
0.000696771
0.000758155
0.000823476
0.000851901
0.000874889
0.000888795
2.55791e-05
9.39108e-05
0.000148344
0.000238573
0.000348325
0.000397404
0.000480165
0.000543622
0.000570715
0.000615905
7.85954e-06
2.852e-05
4.33699e-05
7.21957e-05
0.000125657
0.000154119
0.000193427
0.000263257
0.000287121
0.000341762
4.24675e-06
1.15042e-05
1.36138e-05
1.92112e-05
3.43531e-05
4.24463e-05
5.51732e-05
8.71358e-05
0.000100651
0.000138209
3.84212e-06
8.60604e-06
8.98865e-06
9.57895e-06
1.17082e-05
1.24241e-05
1.42957e-05
2.23197e-05
2.51865e-05
3.44674e-05
3.83018e-06
7.72726e-06
8.56938e-06
9.29959e-06
9.79836e-06
9.86371e-06
9.94482e-06
1.04754e-05
1.06907e-05
1.12213e-05
3.80715e-06
7.38417e-06
9.34844e-06
9.6563e-06
9.61961e-06
9.69483e-06
1.01601e-05
1.043e-05
1.10736e-05
1.40105e-05
3.82573e-06
7.74125e-06
9.7979e-06
1.00564e-05
1.07644e-05
1.4092e-05
1.66371e-05
2.0462e-05
2.77458e-05
4.94531e-05
4.18796e-06
9.40939e-06
1.45985e-05
1.98503e-05
2.86031e-05
4.91324e-05
6.21418e-05
8.31799e-05
0.000107296
0.000168013
7.74518e-06
2.56509e-05
4.69237e-05
7.29684e-05
0.000108406
0.000173147
0.000205577
0.00026011
0.000299356
0.000396438
2.53402e-05
8.60564e-05
0.000164049
0.000235726
0.000324033
0.000430999
0.000478667
0.000544521
0.0005854
0.000674125
8.67942e-05
0.000256789
0.000438919
0.000566103
0.000694277
0.000773261
0.000820712
0.000858198
0.000883275
0.000931734
0.000267339
0.000643231
0.000874893
0.00100651
0.00109084
0.00111267
0.00112619
0.00112472
0.00112757
0.00113636
0.000715109
0.00118342
0.00136708
0.00141337
0.00140778
0.00137291
0.00135332
0.0013185
0.00130873
0.00129075
0.00139345
0.00173082
0.00172557
0.00166599
0.00159097
0.00151258
0.00148214
0.0014313
0.00141434
0.00136689
0.00205077
0.00193887
0.0016951
0.00152823
0.00143365
0.00135816
0.00132881
0.00128003
0.00125911
0.00118209
0.000517367
0.000382715
0.000376799
0.000384121
0.00038944
0.000377642
0.000362398
0.000363781
0.000349865
0.000348776
0.000337746
0.000339238
0.000346113
0.000352644
0.000328647
0.000303253
0.000279564
0.000260892
0.000237437
0.000228708
0.000230187
0.000242239
0.000251852
0.00024909
0.000240044
0.000217109
0.000152076
0.000105849
8.60519e-05
8.38884e-05
8.67646e-05
9.68277e-05
0.000118962
0.000129818
0.000129297
0.000126693
0.000122735
0.000122787
0.000129753
0.000155093
0.000171175
0.000175468
0.000171063
0.000152011
0.000141026
0.00014051
0.000142372
0.000146427
0.00014641
0.000141247
0.000128375
0.000126134
0.00013397
0.000146108
0.00014611
0.000148761
0.000160519
0.000159253
0.000141031
0.000112496
9.63007e-05
9.05664e-05
9.17271e-05
9.62882e-05
0.000105573
0.000120658
0.000136384
0.000173929
0.000206323
0.000203232
0.000161866
0.000122957
0.000110596
0.000103029
0.00010297
0.000104702
0.000112278
0.00012097
0.000124639
0.000134579
0.000147022
0.000153722
0.000165521
0.000178802
0.000177138
0.000148063
0.000143795
0.000118966
0.000119514
0.000110907
0.000104032
9.89529e-05
9.43615e-05
9.74206e-05
0.000107206
0.000118839
0.000137143
0.000157541
0.000235983
0.000301112
0.000667443
0.000564034
0.000505972
0.000461793
0.000451481
0.000435997
0.000407231
0.000399398
0.000375222
0.000355737
0.000337478
0.000324752
0.000328438
0.000353752
0.000356761
0.000351837
0.000314305
0.000276235
0.000257484
0.00025699
0.000260233
0.000260415
0.000257123
0.000244831
0.000213268
0.000146832
0.00010202
8.30976e-05
8.08847e-05
8.50938e-05
0.000101014
0.000129124
0.000151214
0.000154732
0.000152587
0.000145456
0.000138126
0.000138728
0.000153509
0.000171327
0.000176659
0.000176645
0.000166529
0.000144494
0.000131595
0.000130205
0.000131916
0.000138032
0.000142677
0.000140384
0.000130145
0.000127592
0.000132928
0.000142727
0.00014333
0.000145291
0.000154477
0.000155919
0.000145659
0.000118264
9.94552e-05
9.51504e-05
9.63923e-05
0.000101199
0.000110167
0.000123868
0.000141968
0.000187886
0.000215726
0.000208455
0.00015662
0.000110033
9.48403e-05
9.28257e-05
9.35477e-05
9.55067e-05
0.000104619
0.000113155
0.000120977
0.000133064
0.000143282
0.000149901
0.000160833
0.0001731
0.000177601
0.000154983
0.000148268
0.000123572
0.000117706
0.000109708
9.73072e-05
9.33995e-05
9.21352e-05
9.47008e-05
0.000102092
0.000114833
0.000129175
0.000139218
0.00015776
0.000260509
0.000640918
0.000571473
0.000531227
0.000479285
0.000453876
0.00044527
0.000417761
0.00040532
0.000387703
0.000354352
0.000329622
0.000295197
0.000282679
0.000292514
0.000319753
0.00034174
0.000339425
0.00032304
0.000306251
0.000292278
0.000278978
0.00026534
0.000247528
0.000205905
0.000140721
9.73453e-05
7.8877e-05
7.80044e-05
8.36126e-05
0.000105276
0.000147132
0.000175698
0.000183975
0.000182538
0.000177016
0.000163542
0.000156603
0.000159584
0.000177016
0.000178656
0.000178523
0.000176078
0.00016235
0.000141303
0.000127237
0.000125047
0.000125863
0.000130474
0.000137647
0.000137884
0.000131456
0.000128227
0.000132631
0.000140299
0.000141137
0.000142517
0.000150573
0.000152118
0.000145804
0.00012268
0.00010332
0.000100872
0.000102283
0.000107596
0.000114079
0.000127139
0.00015005
0.000202474
0.000223401
0.000212956
0.00015388
0.000105002
8.63431e-05
8.6237e-05
8.80849e-05
9.30317e-05
9.91462e-05
0.000110219
0.000116818
0.000132201
0.000138337
0.000146003
0.000159024
0.000169536
0.000176579
0.000161605
0.000147725
0.000125154
0.000117555
0.000105323
9.59205e-05
9.3371e-05
9.34001e-05
9.56604e-05
0.00010193
0.000119293
0.000130635
0.000136413
0.000139898
0.000193099
0.000571994
0.000525826
0.00048205
0.00044428
0.000397592
0.000385804
0.00038196
0.000372911
0.000366246
0.0003458
0.000320698
0.000283887
0.000244973
0.000238891
0.000243318
0.000274038
0.000305214
0.000306371
0.000300699
0.00028734
0.000266113
0.000240718
0.000189412
0.00013173
9.16304e-05
7.4222e-05
7.42984e-05
8.26655e-05
0.000107897
0.000159392
0.000207533
0.000220235
0.000218839
0.000213332
0.000199965
0.000182211
0.000177494
0.000183303
0.000187409
0.00018113
0.000179237
0.000174668
0.000159824
0.000139288
0.000124176
0.000122029
0.000122483
0.000125598
0.000132994
0.000133703
0.000130839
0.000128169
0.000132299
0.000140142
0.000140465
0.000140927
0.00014918
0.000150739
0.000145551
0.000124745
0.000107708
0.000107235
0.000109368
0.000114278
0.000119343
0.000130597
0.000156723
0.000209701
0.000228942
0.000217338
0.000153403
0.000103136
8.16854e-05
8.08407e-05
8.18725e-05
8.52053e-05
9.36817e-05
0.000109881
0.000115663
0.000129016
0.000137991
0.000143707
0.000154829
0.000165033
0.000173178
0.000164252
0.00014578
0.000127175
0.000116099
0.000103774
9.64865e-05
9.53504e-05
9.70132e-05
9.90105e-05
0.000106808
0.000124965
0.00013742
0.000140068
0.000137046
0.000159505
0.000467458
0.000446773
0.000408613
0.000378229
0.00032212
0.000290999
0.000288259
0.000288565
0.000294563
0.00029409
0.00028576
0.000263127
0.000215437
0.00018542
0.000181425
0.000184851
0.000211978
0.000238344
0.000235969
0.000226737
0.000207402
0.000161141
0.000116487
8.34916e-05
6.87481e-05
6.95596e-05
8.08827e-05
0.000113473
0.00016486
0.000234665
0.00026094
0.000261102
0.000256535
0.0002438
0.000216837
0.00020019
0.000195524
0.000195487
0.000191293
0.000178892
0.000178941
0.000174207
0.000158113
0.000136009
0.000120502
0.000118154
0.000118827
0.00012289
0.000130076
0.000130235
0.0001295
0.000127916
0.000130881
0.00013994
0.000139536
0.000138921
0.000146718
0.000148145
0.000144666
0.000127907
0.000115534
0.000116425
0.000118011
0.000120248
0.000124357
0.0001362
0.000163552
0.000214405
0.000237779
0.00022513
0.000153431
0.000102479
7.98441e-05
7.62532e-05
7.72301e-05
7.97083e-05
8.7468e-05
0.000106783
0.000112715
0.000127561
0.000140217
0.000144151
0.00015507
0.000163407
0.000174481
0.000167781
0.000147339
0.00013156
0.000117001
0.0001025
9.81876e-05
9.9415e-05
0.00010186
0.000105615
0.000115031
0.000130461
0.000147738
0.000141779
0.000141819
0.000149178
0.000332638
0.000327583
0.000307836
0.000283856
0.000223694
0.000180556
0.000173046
0.000172171
0.000190741
0.000204314
0.000203136
0.000198251
0.000167085
0.000127397
0.000112903
0.00010953
0.000115719
0.000141261
0.000141815
0.000136985
0.000125153
9.82295e-05
7.35348e-05
6.24753e-05
6.40265e-05
7.6554e-05
0.000115157
0.000179556
0.000251983
0.000288236
0.000290846
0.000285244
0.000278233
0.0002612
0.000231263
0.000213811
0.000205802
0.000200955
0.000184928
0.000178066
0.000179881
0.000172126
0.000154148
0.000133795
0.000118975
0.000114833
0.000115919
0.000122428
0.000127926
0.000127366
0.000127766
0.000127148
0.000129732
0.000139953
0.000139299
0.000137578
0.00014082
0.000144244
0.000143512
0.000136688
0.000129047
0.000127417
0.000125215
0.000125723
0.000129425
0.000143402
0.000169025
0.000220069
0.000251324
0.000231859
0.000151312
0.000102167
8.03179e-05
7.42701e-05
7.45527e-05
8.02483e-05
8.64493e-05
0.000101243
0.000110202
0.000127659
0.000141503
0.000147586
0.000160969
0.000166103
0.000183707
0.000175016
0.000153392
0.00013179
0.000120826
0.000103017
0.000102714
0.000105174
0.000104872
0.000105112
0.000117016
0.000124627
0.000147252
0.000145695
0.000141075
0.00014395
0.000193202
0.000192524
0.000178566
0.000158307
0.000120236
9.1983e-05
8.61026e-05
8.55842e-05
0.000104031
0.000128682
0.000129496
0.000124573
9.88683e-05
7.45403e-05
6.13877e-05
5.52283e-05
5.58591e-05
6.18606e-05
7.66541e-05
7.78231e-05
7.48839e-05
6.1797e-05
5.53303e-05
5.80092e-05
7.26445e-05
0.00011178
0.000185591
0.000273758
0.000301457
0.000308195
0.000301401
0.000290104
0.000283282
0.000264843
0.000241518
0.000225171
0.000218078
0.000204933
0.000181928
0.000180163
0.00018042
0.000170614
0.000153049
0.000133438
0.000119184
0.000113186
0.000113755
0.000121032
0.000127155
0.000126322
0.000126985
0.000126941
0.000129795
0.000140356
0.000139587
0.000136059
0.000136366
0.000141542
0.000142944
0.000141321
0.000139514
0.000134914
0.000130676
0.000130504
0.000134502
0.000152429
0.000176497
0.000227845
0.000264797
0.00023382
0.000144784
0.00010475
8.48679e-05
7.36412e-05
7.26275e-05
8.13253e-05
8.85035e-05
0.000101413
0.000110387
0.00012846
0.000144512
0.000152845
0.000162802
0.000172563
0.000182967
0.000177447
0.000164955
0.000133572
0.000125248
0.000106957
0.000107588
0.000105498
0.000106429
0.000105767
0.000109815
0.000119263
0.000132352
0.000144185
0.000141264
0.000144439
8.13628e-05
8.07886e-05
7.22669e-05
6.12222e-05
4.6778e-05
3.61623e-05
3.44546e-05
3.56643e-05
5.46895e-05
7.42436e-05
7.41443e-05
6.774e-05
5.23987e-05
4.12576e-05
3.38997e-05
3.03554e-05
3.02211e-05
3.59103e-05
4.88041e-05
4.96731e-05
4.64044e-05
4.6917e-05
5.15636e-05
6.93744e-05
0.000110579
0.000181548
0.000284557
0.00031283
0.000317555
0.000314278
0.000300887
0.000290127
0.00028202
0.000260205
0.000244288
0.00023425
0.000225624
0.000200378
0.000182079
0.000181007
0.000177796
0.000169561
0.000152758
0.000135938
0.000124816
0.000114216
0.000114229
0.000120136
0.000127015
0.000125461
0.000126006
0.000127152
0.000130869
0.000141805
0.000140319
0.000135516
0.000134839
0.000139881
0.000141759
0.000142509
0.000142485
0.000137912
0.000134614
0.000134848
0.000139937
0.000162416
0.00018292
0.000236845
0.00027631
0.000230389
0.000138021
0.000106488
9.36702e-05
7.49693e-05
7.28249e-05
7.95461e-05
8.95488e-05
0.000103199
0.000112446
0.00013106
0.000143003
0.00017033
0.000170291
0.000171932
0.000180032
0.000176894
0.000169877
0.000140207
0.000130582
0.000116537
0.00011268
0.000106867
0.000106049
0.000106875
0.000110646
0.000122285
0.000134778
0.000143492
0.000141631
0.000145943
2.10082e-05
2.07825e-05
1.84349e-05
1.57535e-05
1.46898e-05
1.39944e-05
1.40321e-05
1.50163e-05
2.44341e-05
3.25753e-05
3.23216e-05
2.86262e-05
2.77136e-05
2.76549e-05
2.67231e-05
2.511e-05
2.47855e-05
2.53734e-05
2.90026e-05
3.20429e-05
3.68297e-05
4.68573e-05
6.93422e-05
0.000111521
0.000182034
0.000287661
0.000321935
0.000325053
0.000321455
0.000310973
0.000288774
0.000282015
0.00027222
0.000250419
0.000241461
0.000235086
0.000224226
0.000196646
0.000188456
0.000181193
0.000172319
0.000169037
0.000152926
0.000136134
0.000129568
0.00011586
0.000115828
0.000120336
0.000127355
0.000125021
0.000126093
0.000127983
0.000133988
0.000145167
0.000142692
0.000135976
0.00013502
0.000137283
0.00013857
0.000142049
0.000142555
0.000140285
0.000139289
0.00013989
0.000146548
0.000172903
0.00019055
0.000248712
0.000285323
0.000219241
0.000133936
0.000105392
9.58938e-05
7.81121e-05
7.488e-05
7.98503e-05
8.82578e-05
0.000105987
0.000114789
0.000136615
0.000166326
0.000171819
0.00018755
0.000177972
0.000177237
0.000174401
0.000172059
0.000147118
0.000137846
0.000121256
0.00011783
0.000109791
0.000108685
0.000109196
0.000114223
0.000127197
0.000156014
0.000158617
0.000155392
0.000162286
6.5372e-06
6.72875e-06
7.52465e-06
8.34113e-06
9.48328e-06
1.19845e-05
1.23609e-05
1.2412e-05
1.4654e-05
1.59431e-05
1.69867e-05
1.93256e-05
2.62659e-05
3.31648e-05
3.38674e-05
3.27129e-05
3.15305e-05
3.17168e-05
3.3836e-05
4.05565e-05
5.4672e-05
7.85291e-05
0.000116986
0.000182437
0.000289842
0.000327831
0.000331999
0.000326945
0.000312537
0.000285673
0.000270355
0.000266194
0.000252552
0.000235929
0.00023754
0.000235228
0.000221675
0.000204165
0.000191469
0.000175039
0.000170152
0.000167992
0.00015019
0.000134435
0.000129115
0.000116746
0.00011967
0.00012179
0.000128021
0.000125126
0.000126313
0.000130041
0.000141248
0.00015374
0.000150962
0.00013943
0.000135896
0.000136223
0.00013731
0.000140841
0.000143665
0.000144795
0.000144779
0.000145227
0.000154714
0.00018411
0.000198688
0.000256636
0.000290491
0.000213923
0.000133301
0.000104498
9.3207e-05
9.06078e-05
8.39485e-05
8.35146e-05
9.04183e-05
0.00011087
0.000120684
0.000162324
0.000242853
0.000186522
0.000240097
0.000197406
0.000179257
0.000172286
0.000173215
0.000151049
0.000142856
0.000125458
0.000122165
0.000116353
0.000116527
0.0001168
0.000121174
0.000136397
0.000171378
0.000191376
0.000196233
0.000213438
9.6032e-06
9.7204e-06
1.1186e-05
1.53875e-05
1.82759e-05
2.58066e-05
2.7424e-05
2.67701e-05
2.69021e-05
2.72171e-05
3.00314e-05
3.97939e-05
5.42122e-05
6.186e-05
6.22712e-05
6.05796e-05
6.05015e-05
6.17274e-05
6.63377e-05
7.81433e-05
0.00010038
0.000132612
0.00018675
0.000288791
0.000333487
0.000338265
0.000332654
0.000310257
0.000278818
0.000259226
0.000253581
0.000250158
0.000232898
0.000227246
0.000236677
0.000233978
0.000221696
0.00020933
0.000187881
0.000172324
0.000167291
0.00016367
0.00014596
0.000133219
0.000128581
0.000120762
0.000124323
0.000122446
0.00012931
0.000125776
0.000126227
0.000136235
0.000151269
0.000163943
0.000160093
0.000143319
0.000136942
0.000136021
0.000137555
0.000140939
0.000148344
0.000150646
0.000149434
0.000150098
0.000167024
0.000195468
0.000205819
0.000259099
0.00029335
0.000212661
0.000139802
0.000107957
9.21326e-05
0.000101738
8.95523e-05
9.16104e-05
9.70321e-05
0.000114503
0.000142586
0.00023977
0.000572182
0.000309347
0.000385797
0.000263601
0.000195723
0.000173599
0.000175923
0.000154831
0.000148189
0.000131889
0.000130057
0.000128036
0.000127046
0.000127965
0.000132145
0.000160414
0.000181339
0.000226416
0.000232724
0.000239808
3.46349e-05
3.43779e-05
3.64277e-05
4.56694e-05
5.07982e-05
6.18386e-05
6.56779e-05
6.51597e-05
6.58981e-05
6.75887e-05
7.2547e-05
8.96741e-05
0.000102893
0.000107463
0.000107206
0.000104537
0.000104726
0.00010727
0.000114986
0.000133488
0.000159074
0.000201489
0.000288073
0.000338074
0.000345056
0.000338091
0.000311755
0.000273895
0.000256151
0.000246192
0.000240728
0.000233872
0.000217625
0.000222004
0.000234821
0.000229956
0.00022752
0.000204638
0.000182699
0.000172385
0.000164289
0.000157375
0.000145133
0.000135803
0.000134552
0.000128947
0.000128426
0.000124787
0.000132263
0.000126987
0.000126377
0.000147266
0.000162426
0.000167258
0.000161609
0.000143621
0.000137337
0.000136364
0.000138728
0.00014503
0.000155534
0.000156381
0.000153938
0.000156993
0.000185486
0.000206451
0.000210304
0.000258834
0.000299225
0.00021888
0.000156922
0.000126458
0.000100779
0.000101683
9.21826e-05
0.000107911
0.000101189
0.000116477
0.000144583
0.000248543
0.000351041
0.000301936
0.000314064
0.000281832
0.00022574
0.000178323
0.000184091
0.000160749
0.000157055
0.000146445
0.000144477
0.000139781
0.000137997
0.000140511
0.000145827
0.000171285
0.000188001
0.000227288
0.000230248
0.00022914
0.000103752
0.000103276
0.000105352
0.000116402
0.000121632
0.000131695
0.000135423
0.000134322
0.000135249
0.000137752
0.0001446
0.000162506
0.0001691
0.000169595
0.000168025
0.000164439
0.000165059
0.000168858
0.000178871
0.000196362
0.000227266
0.00029398
0.000339527
0.000350274
0.000343071
0.000312569
0.000274442
0.000255345
0.000242837
0.000229349
0.000218666
0.000209463
0.000205613
0.000219353
0.000228748
0.000225243
0.000220553
0.000198719
0.000190547
0.00018368
0.000163231
0.000154469
0.000148384
0.000141798
0.000138817
0.000132341
0.000129903
0.000129222
0.000135613
0.000129664
0.00012712
0.000162793
0.000171226
0.000165983
0.000159298
0.00014297
0.000138422
0.000138038
0.000141855
0.000155282
0.000162627
0.00016065
0.000159569
0.000169844
0.00020979
0.000216858
0.000212598
0.000253121
0.00031455
0.000238447
0.000184029
0.000154212
0.000115683
0.000102689
9.91396e-05
0.000111586
0.000114524
0.000120815
0.000151434
0.000223453
0.000223275
0.00028027
0.000212946
0.000278443
0.000262342
0.00019374
0.000210647
0.00017706
0.0001714
0.000161793
0.000156225
0.000149243
0.000146878
0.000149193
0.000156553
0.00017868
0.000201404
0.000215166
0.000214087
0.00020559
0.000219274
0.000216502
0.000217193
0.000224611
0.000226019
0.000227628
0.000227417
0.000222448
0.000222119
0.000223602
0.000230049
0.000239434
0.000240579
0.000239621
0.00023484
0.000229496
0.000229806
0.000232806
0.0002412
0.000260509
0.000307692
0.000340133
0.000351344
0.000344773
0.000312904
0.000273349
0.000255388
0.000235962
0.00021168
0.000195878
0.000191113
0.000189884
0.000196488
0.000214118
0.000216216
0.00021574
0.000213682
0.000215265
0.000216372
0.000197497
0.000166315
0.000154874
0.000151968
0.000147233
0.000141277
0.000135646
0.000134187
0.00013473
0.000142553
0.000138331
0.000130607
0.000170081
0.000178262
0.000160986
0.000151941
0.00014072
0.000138961
0.000139939
0.000153304
0.00016618
0.00016695
0.000163642
0.000168108
0.000201897
0.000233803
0.000227677
0.000210241
0.000242041
0.000330311
0.000264092
0.000214673
0.000180183
0.000130104
0.000118995
0.000114414
0.000120523
0.000144283
0.000142428
0.000195539
0.00020635
0.000217443
0.000269749
0.000211203
0.000268167
0.000279101
0.000225741
0.00023688
0.000201604
0.000193596
0.000181015
0.000169044
0.000156993
0.000156366
0.000161782
0.000179684
0.000207344
0.000235178
0.000232865
0.000232113
0.000232176
0.000361789
0.00034939
0.000339229
0.000337494
0.000330901
0.000323735
0.000313774
0.000301514
0.000299854
0.000301362
0.000303458
0.000304152
0.000302863
0.00029706
0.000285286
0.000280354
0.000280662
0.000284129
0.000295293
0.000324295
0.00034481
0.000350065
0.000341991
0.000308348
0.000267234
0.000252586
0.00023616
0.000212703
0.00019255
0.000179635
0.000175484
0.000177863
0.000191912
0.000205146
0.000204306
0.000216369
0.000235983
0.000250165
0.000244161
0.000220902
0.000184675
0.000164343
0.000155953
0.000151654
0.000148058
0.000146966
0.000148024
0.000148533
0.000153627
0.000165125
0.000143875
0.000183917
0.00017937
0.000153617
0.000142412
0.000138248
0.00013844
0.000146931
0.000168655
0.000171938
0.00016862
0.000169654
0.000193369
0.00025126
0.000259467
0.000234154
0.000201295
0.000225741
0.000330649
0.000305658
0.000259358
0.000213703
0.000150177
0.00014201
0.000141193
0.000138337
0.000192086
0.000235248
0.000336763
0.000206104
0.000219162
0.000246597
0.000211219
0.00026073
0.00027682
0.000234712
0.000231711
0.000230547
0.000224742
0.000202453
0.000180902
0.000170932
0.000174254
0.000189997
0.000224376
0.000266183
0.00030891
0.000307725
0.000316965
0.000321283
0.000488994
0.000460973
0.000438892
0.000425786
0.000403382
0.000387683
0.000372743
0.000359496
0.000356831
0.000355698
0.000352948
0.000347877
0.000337791
0.000326292
0.000320199
0.000319252
0.000320826
0.000328035
0.00034072
0.000349922
0.000349467
0.000337056
0.000292929
0.000256079
0.000241048
0.000232963
0.000220996
0.000202448
0.000185174
0.000173311
0.000169404
0.000171887
0.000184631
0.000196358
0.000198857
0.00022607
0.000269743
0.000295239
0.00029142
0.000274565
0.000234053
0.000192287
0.000169458
0.000158958
0.000154996
0.000155031
0.000159499
0.000161359
0.000166777
0.00019517
0.000193299
0.000186626
0.000167993
0.000149572
0.000140255
0.000138581
0.000141068
0.000163139
0.000174199
0.000173601
0.000173845
0.000191375
0.000264446
0.000296314
0.000282046
0.000221144
0.000185798
0.000203723
0.000317969
0.000349591
0.000317394
0.000260033
0.000178345
0.000172045
0.00017259
0.000173805
0.000203122
0.000266348
0.000328731
0.000204086
0.000225476
0.000236622
0.000215744
0.000245852
0.000244696
0.000229411
0.00021577
0.000237217
0.000230282
0.000204657
0.000193547
0.000194615
0.000210184
0.000249555
0.000319661
0.000395707
0.000434571
0.000429181
0.000422769
0.000406076
0.000584247
0.000538366
0.000502206
0.000470378
0.000441468
0.000422759
0.000405955
0.000395428
0.000392011
0.000384842
0.000377217
0.000370519
0.000360263
0.000353435
0.000351465
0.000351422
0.000352521
0.000353249
0.000352553
0.000345606
0.00031785
0.000270493
0.000234323
0.000218564
0.000223333
0.000224126
0.000212338
0.000194334
0.000179982
0.000168488
0.000164688
0.000166045
0.000179881
0.000193905
0.000199036
0.000225695
0.000277321
0.0003229
0.000349551
0.000353355
0.000319716
0.000262638
0.000213437
0.00018263
0.000165146
0.000161156
0.000169213
0.000175418
0.000178192
0.000196601
0.000210403
0.000180562
0.000155342
0.000150513
0.000144847
0.0001459
0.000159664
0.000173263
0.00017812
0.000180572
0.000199373
0.000281673
0.000343188
0.000330323
0.000268696
0.000192618
0.000163582
0.000173866
0.00028065
0.00036105
0.000360353
0.00032708
0.000225195
0.000212432
0.000192961
0.000202103
0.000195188
0.000264498
0.00033092
0.000222357
0.000244254
0.000235895
0.000219729
0.000218931
0.00023157
0.000230002
0.00022242
0.000238421
0.000228698
0.000221851
0.000226733
0.000244077
0.00029903
0.000397614
0.000523835
0.0005336
0.000521548
0.000489227
0.000444672
0.000388826
0.000639576
0.000569235
0.000520455
0.000481104
0.000454521
0.000437284
0.000423302
0.000415389
0.000407628
0.000398472
0.000391956
0.000384633
0.00037636
0.000372367
0.000369372
0.00036419
0.00035788
0.00034604
0.000319431
0.000279445
0.000238673
0.000202009
0.000185009
0.000196121
0.000217498
0.000222805
0.000210873
0.000185107
0.000168715
0.000162226
0.000161629
0.000170716
0.000186537
0.000201501
0.00020608
0.000210001
0.000230299
0.000306581
0.000367344
0.000401168
0.000421254
0.000394534
0.000325215
0.000272957
0.000215744
0.000181591
0.000174459
0.000183394
0.000185586
0.000185597
0.000199346
0.000179622
0.000159115
0.00016217
0.000167132
0.000175519
0.000184744
0.000191159
0.000204131
0.000237356
0.000339342
0.000404663
0.000389394
0.000319795
0.000226548
0.000170109
0.000154906
0.000157833
0.000205645
0.000337391
0.00036768
0.00036897
0.000310922
0.000283058
0.000249305
0.000262021
0.000233322
0.000277325
0.000329565
0.000286363
0.00028652
0.000241425
0.000244244
0.000232704
0.000272054
0.000257939
0.000266769
0.000274098
0.000274064
0.000287234
0.000337992
0.000400236
0.00057426
0.000648712
0.000640459
0.000587938
0.000517589
0.000441081
0.000379534
0.000309176
0.000640507
0.000557815
0.000507976
0.000475839
0.000457161
0.000443001
0.000431047
0.000421319
0.000409721
0.000399369
0.000390323
0.000380689
0.000372239
0.000363908
0.000352199
0.000335486
0.000311105
0.000277551
0.000236642
0.000194687
0.000164513
0.000152589
0.000157853
0.000188174
0.000236789
0.000273818
0.000286633
0.00026464
0.000228943
0.000200284
0.000186612
0.000195418
0.000212182
0.000222734
0.000214286
0.000211546
0.00021381
0.000227137
0.000286185
0.000391254
0.000455056
0.000486626
0.000512512
0.000501736
0.000448497
0.000326339
0.000258288
0.000246149
0.00021482
0.000195607
0.000199045
0.000205631
0.000199408
0.000207549
0.000227807
0.000248818
0.000274062
0.000309138
0.00039651
0.000482381
0.000491622
0.000463424
0.000363643
0.000287112
0.000231424
0.00021838
0.00022158
0.000235348
0.000255479
0.000315801
0.000347798
0.00036663
0.000370957
0.00033688
0.000313222
0.000302321
0.00032753
0.000396712
0.000360631
0.000309886
0.00032955
0.000277053
0.000301449
0.000295979
0.000343057
0.000357522
0.000394802
0.000472471
0.000505749
0.000614433
0.000742695
0.000828944
0.000820221
0.000760809
0.000630467
0.000528189
0.000450413
0.000405787
0.000380889
0.000370505
0.000519913
0.000466351
0.000438791
0.000419324
0.000403312
0.000386254
0.000367216
0.000347265
0.000327009
0.00030875
0.000293197
0.000280459
0.000270308
0.000261173
0.000250501
0.000236805
0.000220209
0.000201785
0.000182953
0.000166915
0.000157555
0.000155819
0.000160751
0.000178328
0.000216363
0.000280948
0.000355772
0.000405873
0.000425177
0.000406104
0.000349591
0.000283381
0.000238925
0.000217567
0.000251232
0.000313907
0.00034897
0.000352931
0.000341214
0.000291349
0.000271851
0.000377615
0.000544796
0.000681058
0.000752604
0.000768281
0.000701254
0.000665541
0.000520576
0.000348272
0.000304065
0.000239589
0.000239352
0.000287137
0.000368721
0.000442272
0.000520851
0.000595299
0.000631964
0.000614391
0.00052506
0.000414122
0.000343631
0.000321725
0.00033228
0.000389695
0.000444922
0.000507011
0.000533098
0.000529719
0.000411421
0.000326119
0.000363958
0.000400269
0.000565166
0.000466327
0.000729602
0.000546897
0.000402981
0.000343114
0.000364427
0.000353274
0.000449649
0.000523733
0.000595024
0.000734393
0.000818166
0.000980315
0.00100645
0.00111969
0.00105903
0.00102321
0.000828233
0.000739548
0.000568183
0.000540877
0.000493572
0.000534788
0.000538249
0.000581638
9.56046e-05
0.000127674
0.00018041
0.000271671
0.00033508
0.00027022
0.000110328
0.000104923
0.000123154
0.000142298
0.000188214
0.000271869
0.000400575
0.000571932
0.000544628
0.000356559
0.000186099
0.000196234
0.000232703
0.000256763
0.000251013
0.000239239
0.000440143
0.000668128
0.000791329
0.000839043
0.000849099
0.000811258
0.000724172
0.000591018
0.000430102
0.000348878
0.000268193
0.000230538
0.000160415
0.000163531
0.000184114
0.000193932
0.000242603
0.00030461
0.000360551
0.00041099
0.000434142
0.000433066
0.000412378
0.000369032
0.000322237
0.000288097
0.000265208
0.000256507
0.000246441
0.000233981
0.000213222
0.00019342
0.000166561
0.000137062
0.000121295
0.000126465
0.000147458
0.000178509
0.000201551
0.000206479
0.000202304
0.000214028
0.000256874
0.000308794
0.000336622
0.000333831
0.000320341
0.000309269
0.000314336
0.000321623
0.000328483
0.000325599
0.000313687
0.000298931
0.000288191
0.00027913
0.000278469
0.000283371
0.000308133
0.000338091
0.000382493
0.000391048
0.000358628
0.000271268
0.000215874
0.00022006
0.000257157
0.00028498
0.000305413
0.000310866
0.00029018
0.000263696
0.000232317
0.000193273
0.000137382
9.80061e-05
6.89207e-05
5.46335e-05
0.000129677
0.000131141
0.000130018
0.000134004
0.000196215
0.000256726
0.000217153
0.000113493
0.00012442
0.000149822
0.000155827
0.000173388
0.0001851
0.000257756
0.000399692
0.000381397
0.000300003
0.000222692
0.0002051
0.000239312
0.000456523
0.00061616
0.000613168
0.000611495
0.000548183
0.000470745
0.000403028
0.000327266
0.000267004
0.000241581
0.000220475
0.000212899
0.000212478
0.000206202
0.000185324
0.000194785
0.000199643
0.000201009
0.000203754
0.000214024
0.000227617
0.000248705
0.000270433
0.000295086
0.000313224
0.000315445
0.000308157
0.000290493
0.000275042
0.000267234
0.000260425
0.000244167
0.000204437
0.000162162
0.000135372
0.000122644
0.000122671
0.000131785
0.000139706
0.000153937
0.000171901
0.000204352
0.000229639
0.000242367
0.000233221
0.000222758
0.000228039
0.00024146
0.000244446
0.000240499
0.000239532
0.00024416
0.000266644
0.000304507
0.000328977
0.000332223
0.000317516
0.000283636
0.000261887
0.000251692
0.000241289
0.00022067
0.000221378
0.00022728
0.000226076
0.000218427
0.00020759
0.000209913
0.000207698
0.000189812
0.000177967
0.000149383
0.000127287
0.000112762
0.000102024
9.24507e-05
8.75698e-05
8.54163e-05
7.38823e-05
6.37732e-05
0.000138321
0.000133269
0.000129562
0.000125149
0.000133808
0.000202225
0.000213372
0.000153267
0.000130589
0.000136721
0.000148459
0.000173641
0.000173632
0.000173611
0.00021897
0.000302867
0.000274743
0.000221423
0.000249849
0.000441157
0.000573098
0.000567665
0.000445858
0.000362786
0.000295284
0.000253412
0.000231366
0.000217796
0.000211976
0.000211378
0.000211849
0.000210155
0.000210153
0.000194903
0.000170076
0.000183858
0.000174774
0.000178639
0.000181019
0.000183937
0.000185059
0.000188163
0.000200366
0.000215256
0.000225696
0.000232707
0.000236043
0.000232736
0.000217509
0.000187311
0.00017463
0.000170768
0.000166532
0.000154072
0.000129092
0.000117669