/*--------------------------------*- C++ -*----------------------------------*\
| =========                 |                                                 |
| \\      /  F ield         | OpenFOAM: The Open Source CFD Toolbox           |
|  \\    /   O peration     | Version:  2.4.0                                 |
|   \\  /    A nd           | Web:      www.OpenFOAM.org                      |
|    \\/     M anipulation  |                                                 |
\*---------------------------------------------------------------------------*/
FoamFile
{
    version     2.0;
    format      ascii;
    class       volScalarField;
    location    "0.031";
    object      nuSgs;
}
// * * * * * * * * * * * * * * * * * * * * * * * * * * * * * * * * * * * * * //

dimensions      [0 2 -1 0 0 0 0];

internalField   nonuniform List<scalar> 
4400
(
0.00205432
0.00193339
0.00170464
0.00152162
0.00143748
0.0013585
0.00132612
0.00131192
0.0012834
0.00115605
0.00139864
0.00172239
0.00173387
0.00166163
0.00159348
0.00151624
0.00147259
0.00145147
0.00142641
0.00137237
0.000727033
0.00116977
0.00137705
0.00141119
0.00140617
0.00137833
0.00134324
0.00131952
0.00131501
0.00130432
0.000271986
0.00062613
0.000883045
0.00101117
0.00108568
0.0011175
0.0011204
0.0011133
0.00112458
0.00114034
8.83615e-05
0.000251541
0.000429469
0.00058518
0.000686683
0.000774343
0.000820868
0.000836287
0.000879865
0.000903987
2.58504e-05
8.45917e-05
0.000150899
0.000260487
0.000324338
0.000429584
0.000479601
0.000513421
0.000589772
0.000620455
7.84432e-06
2.51537e-05
4.29045e-05
8.73028e-05
0.000116575
0.000179137
0.000206179
0.000237181
0.000300326
0.000346705
4.33995e-06
1.01459e-05
1.26393e-05
2.49637e-05
3.32884e-05
5.6343e-05
6.44143e-05
7.69874e-05
0.000104653
0.000141982
3.89973e-06
7.94713e-06
7.9436e-06
1.00094e-05
1.16753e-05
1.71525e-05
1.8171e-05
2.00942e-05
2.85465e-05
3.4991e-05
3.85566e-06
7.911e-06
7.95969e-06
8.69811e-06
9.70387e-06
1.03689e-05
1.02858e-05
1.02913e-05
1.08334e-05
1.17493e-05
3.84581e-06
7.95262e-06
8.00286e-06
8.38261e-06
9.93531e-06
1.02313e-05
1.01479e-05
1.02238e-05
1.03878e-05
1.24383e-05
3.87122e-06
8.14904e-06
8.61079e-06
9.11729e-06
1.37837e-05
1.474e-05
1.58641e-05
1.91245e-05
2.4223e-05
4.25436e-05
4.2108e-06
1.11554e-05
1.36212e-05
1.8026e-05
4.09761e-05
5.04235e-05
5.86933e-05
7.90796e-05
9.9704e-05
0.000155469
7.64101e-06
2.72582e-05
4.44725e-05
6.85557e-05
0.000134253
0.000172868
0.000196397
0.000251169
0.000288669
0.000379324
2.51988e-05
8.97718e-05
0.000155079
0.000225742
0.000357948
0.000424116
0.000461657
0.00053832
0.000577765
0.000658243
8.66874e-05
0.000267866
0.000427006
0.000557405
0.000715252
0.000766587
0.000806697
0.000856556
0.000878669
0.000921588
0.000267552
0.000648822
0.00086534
0.00100887
0.00109686
0.0011075
0.00112036
0.00112279
0.0011257
0.00113399
0.000716391
0.00118459
0.00136148
0.00141833
0.00140724
0.00136992
0.00135276
0.00131824
0.00131051
0.00129518
0.00139508
0.00173053
0.00172314
0.001674
0.00158069
0.00151477
0.00148661
0.00143254
0.00142081
0.00137872
0.00205244
0.001939
0.00169225
0.00153732
0.00142311
0.00136015
0.0013352
0.00128393
0.00126744
0.00119186
0.000530572
0.000508063
0.000400998
0.000274093
0.000212845
0.000202707
0.000207551
0.000210366
0.000200954
0.000185269
0.000184296
0.000209456
0.000256799
0.000273653
0.000270432
0.000254752
0.000208375
0.000141986
9.85497e-05
8.8473e-05
9.07374e-05
9.11697e-05
9.27572e-05
9.23867e-05
8.44389e-05
7.43459e-05
7.19534e-05
7.14815e-05
7.00085e-05
6.16972e-05
4.79e-05
3.6336e-05
2.70462e-05
1.9743e-05
1.41238e-05
9.90274e-06
6.81159e-06
4.60428e-06
3.06503e-06
2.01428e-06
1.31021e-06
8.45775e-07
5.43294e-07
3.48202e-07
2.23224e-07
1.43465e-07
9.26082e-08
6.01188e-08
3.92755e-08
2.58239e-08
1.70822e-08
1.13607e-08
7.59085e-09
5.0923e-09
3.42938e-09
2.31698e-09
1.57865e-09
1.07198e-09
7.74098e-10
5.06986e-10
5.14417e-10
4.86689e-10
1.17295e-09
2.14531e-09
8.13331e-09
1.66496e-08
6.03967e-08
1.06606e-07
3.97016e-07
4.99064e-07
1.83537e-06
1.78692e-06
4.99235e-06
4.11033e-06
9.8466e-06
7.40806e-06
1.52543e-05
1.20949e-05
1.93332e-05
1.54775e-05
2.34458e-05
1.81989e-05
2.40767e-05
1.95217e-05
1.96786e-05
1.54215e-05
1.43914e-05
1.06211e-05
8.93893e-06
5.65459e-06
4.94602e-06
3.76954e-06
4.42763e-06
5.90104e-06
7.76836e-06
9.82977e-06
1.82399e-05
2.66527e-05
7.30499e-05
0.000209288
0.000624909
0.000578803
0.000530537
0.000449327
0.000376096
0.000330067
0.000302385
0.000266671
0.000214231
0.000189104
0.000191277
0.000237783
0.000279608
0.000281641
0.000268428
0.000216153
0.000142408
0.000105185
8.42838e-05
7.79512e-05
7.96118e-05
8.26114e-05
9.00307e-05
9.50778e-05
9.24914e-05
7.9782e-05
7.25152e-05
6.99506e-05
6.66747e-05
5.74135e-05
4.56023e-05
3.50708e-05
2.633e-05
1.93397e-05
1.39022e-05
9.78473e-06
6.74983e-06
4.57129e-06
3.04597e-06
2.00201e-06
1.30162e-06
8.39598e-07
5.38955e-07
3.45315e-07
2.21432e-07
1.42439e-07
9.20711e-08
5.98674e-08
3.9175e-08
2.57943e-08
1.70812e-08
1.13683e-08
7.59901e-09
5.09859e-09
3.43341e-09
2.31966e-09
1.57946e-09
1.07399e-09
7.72237e-10
5.16145e-10
5.24207e-10
5.73037e-10
1.33854e-09
2.97265e-09
1.02863e-08
2.4536e-08
7.80147e-08
1.54406e-07
4.82573e-07
6.63297e-07
2.37521e-06
2.24336e-06
6.34876e-06
5.5947e-06
1.171e-05
1.05867e-05
1.80674e-05
1.65956e-05
2.35645e-05
2.3008e-05
3.07627e-05
2.96645e-05
3.98616e-05
3.86459e-05
4.84941e-05
4.44257e-05
4.98269e-05
3.94319e-05
3.67126e-05
2.51188e-05
2.25172e-05
1.42442e-05
1.29813e-05
8.50814e-06
1.29345e-05
1.1878e-05
1.97692e-05
2.63506e-05
7.22691e-05
0.000181467
0.000629679
0.00054806
0.00052495
0.000494485
0.000454549
0.000428721
0.000411688
0.000376083
0.000277343
0.000227631
0.000242824
0.000288975
0.000289017
0.000277181
0.000222728
0.000140977
9.42888e-05
8.02433e-05
7.83926e-05
7.73808e-05
7.94442e-05
8.16669e-05
8.66812e-05
9.74284e-05
9.75559e-05
8.73034e-05
7.4999e-05
6.995e-05
6.33689e-05
5.38286e-05
4.33826e-05
3.36546e-05
2.53577e-05
1.86468e-05
1.34159e-05
9.45782e-06
6.54115e-06
4.44462e-06
2.97242e-06
1.96076e-06
1.27904e-06
8.27414e-07
5.32417e-07
3.41812e-07
2.19566e-07
1.41461e-07
9.15768e-08
5.96316e-08
3.90725e-08
2.57566e-08
1.70721e-08
1.137e-08
7.60338e-09
5.10277e-09
3.43627e-09
2.32195e-09
1.57954e-09
1.07712e-09
7.67024e-10
5.34075e-10
5.28909e-10
6.63389e-10
1.5741e-09
4.15536e-09
1.29628e-08
3.61558e-08
1.00943e-07
2.37519e-07
5.99509e-07
1.03245e-06
2.66632e-06
3.02752e-06
6.25308e-06
6.6926e-06
7.93017e-06
9.27511e-06
1.26107e-05
1.33282e-05
1.7471e-05
1.87931e-05
2.16936e-05
2.40151e-05
2.85079e-05
3.14571e-05
3.84776e-05
4.14783e-05
6.2291e-05
6.34482e-05
8.79511e-05
8.06614e-05
9.64844e-05
6.58404e-05
5.81077e-05
3.00972e-05
3.05112e-05
2.01354e-05
4.51131e-05
3.21616e-05
7.65001e-05
0.000151299
0.00057821
0.000515216
0.000469751
0.000459157
0.000445304
0.000422757
0.000406933
0.000392113
0.000349784
0.000318338
0.000317232
0.000310089
0.000287926
0.000225962
0.000148156
9.55259e-05
7.22212e-05
6.96031e-05
7.49559e-05
8.41714e-05
9.12113e-05
9.0204e-05
8.95207e-05
9.71886e-05
0.000100388
9.34511e-05
7.82782e-05
6.9681e-05
6.17237e-05
5.23586e-05
4.24047e-05
3.29972e-05
2.48339e-05
1.81754e-05
1.29922e-05
9.10204e-06
6.26683e-06
4.24974e-06
2.84376e-06
1.88116e-06
1.23256e-06
8.01654e-07
5.18811e-07
3.3495e-07
2.16259e-07
1.3994e-07
9.09134e-08
5.9361e-08
3.89731e-08
2.5727e-08
1.70683e-08
1.13739e-08
7.60839e-09
5.1069e-09
3.43877e-09
2.32411e-09
1.57896e-09
1.08111e-09
7.59797e-10
5.5392e-10
5.3676e-10
7.71497e-10
1.80088e-09
5.49455e-09
1.54167e-08
4.81201e-08
1.17666e-07
3.16758e-07
6.63558e-07
1.35664e-06
2.31648e-06
3.71522e-06
4.18316e-06
5.88631e-06
7.28197e-06
7.68545e-06
1.75906e-05
1.54173e-05
2.43559e-05
2.23744e-05
2.77112e-05
2.67296e-05
3.24471e-05
3.26312e-05
3.34575e-05
3.76949e-05
4.09332e-05
4.87422e-05
6.3985e-05
7.29326e-05
0.000119791
0.000116834
0.000165665
0.000113567
0.000121627
6.81736e-05
7.14342e-05
4.66928e-05
7.90026e-05
0.000126853
0.000474019
0.000446939
0.000397866
0.000385086
0.000387661
0.000384761
0.000357575
0.000338511
0.000339501
0.000339036
0.000328986
0.000297852
0.000214244
0.000142601
9.5914e-05
7.07441e-05
6.61026e-05
6.80053e-05
7.6014e-05
9.97654e-05
0.000113061
0.000111769
0.000103875
0.000102687
0.000103054
9.80033e-05
8.16227e-05
7.0712e-05
6.19885e-05
5.26e-05
4.26828e-05
3.32059e-05
2.49213e-05
1.81476e-05
1.2884e-05
8.95414e-06
6.11307e-06
4.1128e-06
2.73473e-06
1.80189e-06
1.17927e-06
7.6826e-07
4.99197e-07
3.24111e-07
2.10612e-07
1.37167e-07
8.96323e-08
5.88079e-08
3.87531e-08
2.56492e-08
1.70462e-08
1.13712e-08
7.61087e-09
5.10993e-09
3.44061e-09
2.32598e-09
1.57773e-09
1.08554e-09
7.51215e-10
5.75463e-10
5.48948e-10
9.05915e-10
2.12151e-09
7.14565e-09
1.91727e-08
6.28123e-08
1.4366e-07
4.0431e-07
7.42505e-07
1.64415e-06
2.16876e-06
3.69578e-06
3.90823e-06
4.72454e-06
9.04236e-06
9.28547e-06
1.62889e-05
1.61821e-05
1.5883e-05
2.01351e-05
1.95097e-05
2.40232e-05
2.35441e-05
2.89448e-05
2.90577e-05
3.5558e-05
3.76504e-05
4.59997e-05
4.91147e-05
5.71117e-05
7.44233e-05
9.3939e-05
0.000178743
0.000165198
0.000307409
0.000221342
0.000233492
0.000116376
0.00010967
0.000121724
0.000333972
0.000327651
0.000293169
0.000277899
0.000290868
0.000299603
0.000285206
0.000265058
0.000277241
0.000284827
0.000272809
0.000208949
0.000132586
8.6881e-05
6.49489e-05
6.06982e-05
6.61325e-05
8.09185e-05
9.62278e-05
0.000121049
0.000134157
0.000134118
0.000125559
0.000113904
0.000109693
0.000100734
8.50246e-05
7.3854e-05
6.48234e-05
5.51621e-05
4.47922e-05
3.47404e-05
2.59126e-05
1.87232e-05
1.31817e-05
9.08363e-06
6.14997e-06
4.10408e-06
2.70808e-06
1.77228e-06
1.15363e-06
7.48855e-07
4.8585e-07
3.15628e-07
2.05589e-07
1.34382e-07
8.81843e-08
5.8102e-08
3.84317e-08
2.55139e-08
1.69947e-08
1.13545e-08
7.60701e-09
5.11022e-09
3.44123e-09
2.32748e-09
1.57578e-09
1.09117e-09
7.38916e-10
6.05398e-10
5.60966e-10
1.0918e-09
2.56576e-09
9.41231e-09
2.4885e-08
8.19589e-08
1.82607e-07
5.02293e-07
8.3616e-07
2.08645e-06
2.12308e-06
3.66854e-06
3.98762e-06
4.82184e-06
8.12917e-06
9.77776e-06
9.70064e-06
1.36268e-05
1.255e-05
1.66541e-05
1.64217e-05
2.06079e-05
2.00767e-05
2.43266e-05
2.39282e-05
3.05174e-05
3.1181e-05
3.97202e-05
4.11808e-05
5.44787e-05
5.98712e-05
7.39643e-05
9.46551e-05
0.000127392
0.00019411
0.000206992
0.000245093
0.000209767
0.000199711
0.000140598
0.000192119
0.00019207
0.000170328
0.000153638
0.000169367
0.00019709
0.000190883
0.000173371
0.000181295
0.000183322
0.000169541
0.000118852
7.80314e-05
5.90019e-05
5.54082e-05
5.84825e-05
8.36419e-05
0.000119003
0.000143414
0.000153519
0.000154879
0.000153938
0.000147359
0.000129136
0.000116252
0.000102224
8.91626e-05
7.96959e-05
7.04743e-05
5.98127e-05
4.83188e-05
3.72108e-05
2.74945e-05
1.96517e-05
1.36873e-05
9.34096e-06
6.27198e-06
4.1572e-06
2.7279e-06
1.777e-06
1.15227e-06
7.45672e-07
4.82696e-07
3.13146e-07
2.03867e-07
1.33292e-07
8.75443e-08
5.77517e-08
3.82528e-08
2.54289e-08
1.69577e-08
1.13401e-08
7.60225e-09
5.10926e-09
3.44094e-09
2.32843e-09
1.57336e-09
1.09697e-09
7.23904e-10
6.37818e-10
5.53699e-10
1.23356e-09
2.78495e-09
1.0567e-08
2.71822e-08
8.39707e-08
1.86232e-07
4.52312e-07
7.33527e-07
1.75793e-06
1.57505e-06
3.16887e-06
3.11589e-06
4.33104e-06
5.93486e-06
9.20539e-06
8.36628e-06
1.06795e-05
1.01018e-05
1.34419e-05
1.28455e-05
1.64779e-05
1.7045e-05
2.07477e-05
2.06917e-05
2.5589e-05
2.78842e-05
3.25283e-05
3.67575e-05
4.53618e-05
6.38492e-05
6.90507e-05
0.000135291
0.00013254
0.000224954
0.000211779
0.000235276
0.000221103
0.000220661
0.000183347
8.25245e-05
8.28032e-05
7.29444e-05
6.62632e-05
8.12657e-05
0.000111703
0.000110061
9.44995e-05
9.2087e-05
9.13305e-05
8.49958e-05
6.30315e-05
5.40661e-05
5.4056e-05
5.77944e-05
7.25495e-05
0.000117907
0.000174078
0.000194985
0.000193184
0.000184185
0.000175237
0.000165669
0.000143653
0.000121014
0.000103301
9.41477e-05
8.75554e-05
7.7893e-05
6.53514e-05
5.20216e-05
3.95435e-05
2.887e-05
2.03864e-05
1.40316e-05
9.47567e-06
6.30975e-06
4.15828e-06
2.71966e-06
1.76929e-06
1.14729e-06
7.43033e-07
4.81488e-07
3.12665e-07
2.03706e-07
1.33253e-07
8.75457e-08
5.77629e-08
3.82643e-08
2.54384e-08
1.69648e-08
1.13451e-08
7.60559e-09
5.11138e-09
3.4418e-09
2.32948e-09
1.57149e-09
1.10117e-09
7.11411e-10
6.6025e-10
5.38005e-10
1.31173e-09
2.86602e-09
1.09697e-08
2.80848e-08
8.15067e-08
1.87569e-07
3.96763e-07
6.93484e-07
1.31293e-06
1.29351e-06
2.39462e-06
2.39894e-06
4.09302e-06
4.85322e-06
8.26272e-06
7.05099e-06
8.84821e-06
8.5341e-06
1.09138e-05
1.10969e-05
1.40914e-05
1.37227e-05
1.70955e-05
1.7136e-05
2.12936e-05
2.22244e-05
2.72653e-05
2.76383e-05
3.60295e-05
3.83666e-05
5.49847e-05
5.85731e-05
0.000110601
0.000123879
0.000183819
0.000231827
0.000223744
0.000226976
0.000202246
2.19353e-05
2.63089e-05
2.61319e-05
2.46746e-05
3.62901e-05
5.27157e-05
5.14783e-05
4.13222e-05
3.50702e-05
3.68676e-05
3.73766e-05
4.12552e-05
5.08553e-05
6.60907e-05
8.53285e-05
0.000115412
0.000176531
0.000231852
0.000241837
0.00023703
0.000221044
0.00019822
0.000179939
0.000154481
0.000125875
0.000105939
9.85685e-05
9.49283e-05
8.61985e-05
7.06446e-05
5.48559e-05
4.07628e-05
2.91471e-05
2.01942e-05
1.36321e-05
9.0226e-06
5.89521e-06
3.82558e-06
2.47768e-06
1.60711e-06
1.04607e-06
6.83751e-07
4.48747e-07
2.9555e-07
1.95216e-07
1.2925e-07
8.57507e-08
5.6999e-08
3.79573e-08
2.53232e-08
1.69255e-08
1.13338e-08
7.60341e-09
5.11168e-09
3.44226e-09
2.32999e-09
1.57054e-09
1.10256e-09
7.053e-10
6.62453e-10
5.24331e-10
1.31101e-09
2.82269e-09
1.08641e-08
2.79035e-08
7.98085e-08
1.86338e-07
3.72529e-07
6.83405e-07
1.02812e-06
1.20427e-06
1.68298e-06
2.03632e-06
3.44254e-06
3.88257e-06
6.64903e-06
6.28859e-06
7.51506e-06
7.74498e-06
9.90435e-06
1.02571e-05
1.22723e-05
1.29983e-05
1.51505e-05
1.63066e-05
1.89214e-05
2.07687e-05
2.54723e-05
2.61719e-05
3.11373e-05
3.30235e-05
4.61868e-05
4.50458e-05
8.46311e-05
7.65613e-05
0.000145698
0.000140144
0.000196606
0.000247557
0.000228624
7.6853e-06
8.70461e-06
9.20393e-06
1.12301e-05
1.25148e-05
1.86588e-05
1.89985e-05
1.82684e-05
1.82781e-05
1.92927e-05
2.49468e-05
3.99485e-05
7.82214e-05
0.000108085
0.000137556
0.000182593
0.000256279
0.00028822
0.000291121
0.000281835
0.000256802
0.000224469
0.00019341
0.000161311
0.000129286
0.000108831
0.000101204
9.87066e-05
9.48092e-05
8.04278e-05
5.85395e-05
4.09174e-05
2.79701e-05
1.88139e-05
1.25073e-05
8.24778e-06
5.40926e-06
3.53714e-06
2.31156e-06
1.5127e-06
9.9263e-07
6.53582e-07
4.31821e-07
2.86172e-07
1.90117e-07
1.26545e-07
8.43556e-08
5.63019e-08
3.76205e-08
2.51663e-08
1.68552e-08
1.13035e-08
7.5909e-09
5.10664e-09
3.44028e-09
2.32889e-09
1.5702e-09
1.10069e-09
7.05981e-10
6.53781e-10
5.05807e-10
1.22112e-09
2.6606e-09
1.02273e-08
2.67242e-08
7.87449e-08
1.83238e-07
3.88666e-07
7.11665e-07
1.03074e-06
1.66486e-06
1.62051e-06
2.19918e-06
2.76399e-06
3.77462e-06
5.20661e-06
6.1743e-06
6.5132e-06
7.70219e-06
8.60606e-06
9.95666e-06
1.05184e-05
1.37137e-05
1.40772e-05
1.62236e-05
1.74544e-05
2.16168e-05
2.28286e-05
2.55894e-05
2.837e-05
3.08679e-05
4.16388e-05
4.05368e-05
6.82989e-05
6.04231e-05
0.000117406
0.000109339
0.000156856
0.000191096
0.000216959
8.1844e-06
1.17425e-05
1.54049e-05
1.61722e-05
1.47247e-05
1.52123e-05
2.27922e-05
2.82649e-05
3.0643e-05
3.46546e-05
4.49156e-05
6.86928e-05
0.000122703
0.000164239
0.00020811
0.000279194
0.000330681
0.000340961
0.000332756
0.000311555
0.000280879
0.000259199
0.000226081
0.000180269
0.000137948
0.000116693
0.000113822
0.000114484
0.000106973
8.22104e-05
6.02945e-05
4.3362e-05
3.07028e-05
2.13238e-05
1.44902e-05
9.64596e-06
6.31609e-06
4.08907e-06
2.63073e-06
1.6894e-06
1.08673e-06
7.0194e-07
4.55858e-07
2.97752e-07
1.95534e-07
1.29009e-07
8.54484e-08
5.67755e-08
3.78223e-08
2.52519e-08
1.68925e-08
1.13213e-08
7.60148e-09
5.11513e-09
3.44958e-09
2.34e-09
1.58665e-09
1.1191e-09
7.42271e-10
6.72301e-10
5.53078e-10
1.12785e-09
2.48151e-09
9.0471e-09
2.46821e-08
7.42486e-08
1.77948e-07
4.10426e-07
7.59678e-07
1.25999e-06
1.99928e-06
2.02047e-06
3.08265e-06
2.82284e-06
5.30296e-06
4.95713e-06
7.43978e-06
7.2004e-06
9.06685e-06
8.91659e-06
1.24024e-05
1.09981e-05
1.68564e-05
1.5017e-05
1.93416e-05
1.80849e-05
2.5464e-05
2.35199e-05
2.91153e-05
2.85081e-05
3.20601e-05
3.82543e-05
3.865e-05
5.64402e-05
5.2943e-05
9.67853e-05
9.10558e-05
0.000134625
0.00013987
0.00017819
2.8823e-05
3.14362e-05
4.25418e-05
4.38766e-05
3.70034e-05
3.34047e-05
4.02818e-05
6.69857e-05
7.3725e-05
7.88043e-05
9.11131e-05
0.000122707
0.000182698
0.000230052
0.000301119
0.000359152
0.000372074
0.000365705
0.000344064
0.000318814
0.000291473
0.000262408
0.000224751
0.000181595
0.000150984
0.000141643
0.000136656
0.000121448
9.87492e-05
7.44101e-05
5.4238e-05
3.87619e-05
2.717e-05
1.86442e-05
1.25385e-05
8.30021e-06
5.43847e-06
3.54596e-06
2.31075e-06
1.50949e-06
9.9001e-07
6.52128e-07
4.31251e-07
2.86091e-07
1.90254e-07
1.26757e-07
8.45889e-08
5.65437e-08
3.78791e-08
2.546e-08
1.72094e-08
1.17514e-08
8.17456e-09
5.8759e-09
4.44397e-09
3.60386e-09
3.11474e-09
2.89225e-09
2.71527e-09
2.72896e-09
2.75278e-09
3.22009e-09
4.38276e-09
9.48296e-09
2.30684e-08
6.32487e-08
1.57461e-07
3.61126e-07
7.15652e-07
1.26843e-06
1.98117e-06
2.4638e-06
3.86862e-06
3.25916e-06
7.56451e-06
5.60914e-06
1.03861e-05
9.03199e-06
1.17964e-05
1.06322e-05
1.68777e-05
1.28132e-05
2.31498e-05
1.82385e-05
2.56824e-05
2.05584e-05
3.28548e-05
2.63306e-05
3.53636e-05
3.04318e-05
4.13034e-05
3.89882e-05
4.11876e-05
4.94545e-05
5.03387e-05
8.0425e-05
7.73681e-05
0.000114383
0.000115847
0.000140543
8.90737e-05
9.12174e-05
0.000104571
0.000111224
0.000100687
9.11953e-05
0.000100519
0.000132044
0.000142367
0.000149921
0.000166614
0.000211941
0.000256034
0.000315765
0.000372293
0.00038884
0.000384546
0.00036927
0.000340918
0.000317416
0.000286974
0.000247994
0.000205461
0.000175021
0.000162258
0.000153455
0.000137504
0.000113641
8.82925e-05
6.72195e-05
5.05613e-05
3.74814e-05
2.7252e-05
1.94191e-05
1.35647e-05
9.29528e-06
6.26146e-06
4.15861e-06
2.7334e-06
1.7845e-06
1.16115e-06
7.55579e-07
4.93279e-07
3.2417e-07
2.15323e-07
1.45436e-07
1.00854e-07
7.28238e-08
5.56377e-08
4.54346e-08
3.95385e-08
3.61544e-08
3.41675e-08
3.29531e-08
3.21531e-08
3.16243e-08
3.11912e-08
3.09582e-08
3.06276e-08
3.0573e-08
3.03957e-08
3.14934e-08
3.18456e-08
4.12691e-08
4.96055e-08
9.05657e-08
1.63116e-07
3.24626e-07
6.27896e-07
1.06388e-06
1.74582e-06
2.54779e-06
4.74221e-06
4.39179e-06
1.20853e-05
7.7736e-06
1.61797e-05
1.32036e-05
1.68847e-05
1.52561e-05
2.48141e-05
1.70435e-05
3.1873e-05
2.46346e-05
3.47337e-05
2.59634e-05
4.32072e-05
3.21963e-05
4.49692e-05
3.54334e-05
5.05282e-05
4.23548e-05
5.00186e-05
5.021e-05
5.23213e-05
6.99331e-05
7.00993e-05
9.64111e-05
9.81186e-05
0.000118894
0.000206108
0.000202002
0.000207288
0.000212263
0.00019997
0.000188296
0.000198221
0.000221346
0.000226236
0.000234143
0.00025733
0.000297576
0.000344898
0.000385272
0.000400109
0.000396907
0.000379281
0.000350942
0.000320787
0.000302791
0.000275076
0.00023522
0.000198633
0.000178338
0.000167407
0.000152298
0.000129642
0.000105121
8.35461e-05
6.54992e-05
5.0561e-05
3.83481e-05
2.85659e-05
2.08688e-05
1.49632e-05
1.05545e-05
7.34529e-06
5.06202e-06
3.47068e-06
2.38329e-06
1.65456e-06
1.17598e-06
8.68658e-07
6.75911e-07
5.57301e-07
4.84674e-07
4.39519e-07
4.10513e-07
3.9109e-07
3.77534e-07
3.67723e-07
3.6042e-07
3.5484e-07
3.50546e-07
3.47084e-07
3.44471e-07
3.41999e-07
3.40594e-07
3.38372e-07
3.37796e-07
3.3571e-07
3.40837e-07
3.35546e-07
3.84637e-07
3.64991e-07
5.35219e-07
5.24387e-07
8.70768e-07
1.02178e-06
1.29029e-06
2.204e-06
2.81668e-06
7.09305e-06
6.66783e-06
1.97803e-05
1.22721e-05
2.60342e-05
2.08922e-05
2.54164e-05
2.29978e-05
3.6198e-05
2.44238e-05
4.62967e-05
3.53116e-05
4.79729e-05
3.57347e-05
5.85061e-05
4.24665e-05
5.92559e-05
4.55518e-05
6.51515e-05
5.05026e-05
6.12859e-05
5.53994e-05
5.95888e-05
7.03819e-05
7.03608e-05
8.52938e-05
8.69213e-05
0.000100463
0.000351121
0.000337443
0.00033517
0.000329203
0.00030141
0.000294569
0.000301447
0.000304219
0.000304122
0.000310859
0.000339058
0.000372575
0.000397553
0.000407196
0.000403418
0.000382064
0.000337646
0.000314203
0.000296822
0.000286942
0.000269358
0.000237957
0.000208995
0.000187688
0.000167481
0.000144924
0.000121211
9.97166e-05
8.12069e-05
6.53669e-05
5.21053e-05
4.12475e-05
3.24265e-05
2.5335e-05
1.97086e-05
1.53196e-05
1.19691e-05
9.47647e-06
7.67278e-06
6.40095e-06
5.52103e-06
4.91697e-06
4.50014e-06
4.20794e-06
3.9988e-06
3.84571e-06
3.73137e-06
3.64454e-06
3.57772e-06
3.52572e-06
3.48481e-06
3.45238e-06
3.42628e-06
3.4054e-06
3.38771e-06
3.37414e-06
3.36013e-06
3.35257e-06
3.33851e-06
3.33471e-06
3.31986e-06
3.32943e-06
3.3017e-06
3.45191e-06
3.33739e-06
3.85034e-06
3.59446e-06
4.59854e-06
4.33795e-06
4.76933e-06
6.35952e-06
5.86075e-06
1.45102e-05
1.25268e-05
3.36855e-05
2.14301e-05
4.38168e-05
3.45579e-05
4.25147e-05
3.74909e-05
5.49445e-05
3.76157e-05
6.65738e-05
5.08695e-05
6.59665e-05
5.18086e-05
7.91406e-05
5.85461e-05
7.7626e-05
6.13663e-05
8.50423e-05
6.5307e-05
7.83692e-05
6.72687e-05
7.62886e-05
7.506e-05
7.48947e-05
8.17983e-05
8.10888e-05
8.49589e-05
0.000483252
0.000458065
0.000438546
0.000409641
0.000382685
0.000373591
0.000373631
0.000370055
0.000366086
0.000369704
0.000390496
0.000407597
0.000411444
0.000406223
0.000378288
0.000324537
0.000299819
0.000286008
0.000276649
0.000273485
0.000263936
0.000240062
0.000213275
0.000187653
0.000162347
0.000137881
0.000116835
9.84508e-05
8.26795e-05
7.01819e-05
6.06437e-05
5.32893e-05
4.74879e-05
4.28073e-05
3.89853e-05
3.58613e-05
3.33229e-05
3.12776e-05
2.96426e-05
2.83431e-05
2.7313e-05
2.64974e-05
2.58509e-05
2.53376e-05
2.49294e-05
2.4604e-05
2.43438e-05
2.41354e-05
2.39678e-05
2.38326e-05
2.37228e-05
2.36331e-05
2.35585e-05
2.3497e-05
2.34421e-05
2.33991e-05
2.33501e-05
2.33243e-05
2.32688e-05
2.32525e-05
2.31884e-05
2.31899e-05
2.3091e-05
2.32292e-05
2.29781e-05
2.35695e-05
2.30212e-05
2.42685e-05
2.36219e-05
2.4158e-05
2.62968e-05
2.37939e-05
3.64801e-05
3.08879e-05
6.13183e-05
4.22713e-05
7.69305e-05
5.9425e-05
7.36708e-05
6.49641e-05
8.40254e-05
6.26786e-05
9.77405e-05
7.46952e-05
9.21221e-05
7.84447e-05
0.000106635
7.95315e-05
0.000103236
8.61485e-05
0.000112214
8.84404e-05
0.000101772
8.61519e-05
9.70238e-05
8.9522e-05
8.91004e-05
8.69904e-05
8.20668e-05
8.22972e-05
0.000582469
0.000538383
0.000500871
0.000461882
0.000436388
0.000428134
0.000417163
0.000405775
0.000404957
0.000409744
0.000415923
0.000416613
0.000406421
0.000368707
0.000300063
0.00026876
0.000257285
0.000251354
0.000248802
0.000250899
0.000249673
0.000232301
0.000206202
0.000179152
0.000155699
0.00013611
0.000119327
0.00010749
0.000101416
9.93839e-05
9.91214e-05
9.91289e-05
9.88851e-05
9.82699e-05
9.74214e-05
9.64441e-05
9.54261e-05
9.44327e-05
9.35082e-05
9.2678e-05
9.19523e-05
9.13317e-05
9.08095e-05
9.03748e-05
9.0016e-05
8.97214e-05
8.94804e-05
8.92829e-05
8.91208e-05
8.89871e-05
8.88754e-05
8.8781e-05
8.86988e-05
8.86275e-05
8.85583e-05
8.85013e-05
8.84275e-05
8.83868e-05
8.82901e-05
8.82594e-05
8.81302e-05
8.81375e-05
8.79215e-05
8.80576e-05
8.75958e-05
8.81266e-05
8.71469e-05
8.84732e-05
8.71867e-05
8.89266e-05
8.96522e-05
8.71213e-05
9.6622e-05
8.38418e-05
0.000118834
9.60366e-05
0.000139197
0.000106976
0.000132027
0.000115711
0.000133298
0.000107663
0.000144683
0.000110357
0.000134243
0.000115738
0.000146064
0.000110278
0.00014147
0.000122242
0.000150135
0.000117747
0.00013601
0.000117383
0.000131826
0.000118042
0.000117095
0.000105172
9.40014e-05
9.08779e-05
0.000643691
0.0005752
0.00052426
0.000486578
0.000463758
0.000452204
0.000442809
0.000434817
0.00043072
0.000427653
0.000420008
0.00039829
0.000336183
0.000266418
0.000244044
0.000242871
0.000238147
0.000227222
0.000220186
0.000218351
0.000218817
0.000209699
0.000194006
0.000177047
0.000162213
0.000154628
0.000154406
0.000159858
0.000170734
0.000179511
0.000185447
0.000189111
0.000191243
0.000192408
0.000192966
0.000193152
0.000193128
0.000192955
0.000192747
0.000192534
0.000192334
0.000192157
0.000192005
0.000191879
0.000191775
0.00019169
0.000191621
0.000191565
0.000191518
0.000191479
0.000191445
0.000191415
0.000191385
0.000191357
0.000191325
0.000191297
0.000191255
0.000191231
0.000191166
0.00019115
0.000191048
0.000191081
0.000190873
0.000191128
0.000190528
0.000191543
0.000189851
0.000192875
0.000188877
0.000196028
0.000189252
0.00020007
0.000194142
0.000192947
0.000205561
0.000178529
0.000227027
0.000185384
0.000223587
0.000192284
0.000204046
0.000175476
0.000205689
0.000170557
0.000199285
0.00017282
0.000201244
0.000165534
0.000204641
0.00017583
0.000209822
0.000168437
0.000199731
0.000174709
0.000196105
0.000174242
0.000173724
0.000154683
0.000149665
0.000150632
0.000651132
0.000569202
0.00052157
0.000493027
0.00047806
0.000470059
0.000459779
0.000448141
0.000434788
0.000408054
0.000358781
0.000284128
0.000217091
0.000203158
0.000221749
0.000238163
0.000246092
0.000239142
0.000222527
0.000211426
0.000211482
0.000210525
0.000208222
0.000209023
0.000216242
0.000227691
0.00024023
0.000251503
0.000259915
0.00026569
0.000269732
0.000272592
0.00027465
0.000276156
0.000277272
0.00027811
0.000278746
0.000279237
0.000279623
0.00027993
0.000280177
0.00028038
0.000280548
0.000280687
0.000280803
0.000280901
0.000280984
0.000281055
0.000281115
0.000281168
0.000281213
0.000281253
0.00028129
0.000281323
0.000281355
0.000281387
0.000281417
0.000281456
0.000281481
0.000281545
0.000281557
0.000281686
0.000281615
0.000281986
0.000281489
0.000282803
0.000280647
0.000285105
0.000278079
0.000291172
0.00027367
0.000304185
0.000271335
0.000322443
0.00027769
0.000322373
0.000297368
0.000292328
0.00030278
0.000298722
0.00029105
0.000301974
0.000303753
0.000284798
0.000311668
0.00029433
0.000311382
0.000283618
0.00032965
0.000297138
0.000330328
0.00028932
0.000341237
0.000314141
0.000349019
0.000329019
0.000342402
0.000345311
0.000366771
0.000404708
0.000531251
0.000481622
0.000459243
0.000446488
0.000437802
0.000423986
0.000397668
0.00036026
0.000313597
0.000253124
0.000188039
0.000142957
0.000139205
0.000171368
0.00022531
0.000290089
0.000351596
0.000383584
0.000389022
0.000348601
0.000285634
0.000233688
0.000202328
0.000189308
0.000194576
0.000209605
0.000226902
0.000242506
0.000254947
0.000264391
0.000271536
0.000277036
0.000281366
0.000284833
0.000287637
0.000289916
0.000291776
0.000293297
0.000294544
0.000295569
0.000296413
0.000297108
0.000297682
0.000298157
0.000298551
0.000298879
0.000299155
0.000299388
0.000299589
0.000299765
0.000299922
0.000300066
0.000300203
0.000300336
0.000300471
0.000300612
0.000300762
0.000300927
0.000301101
0.000301313
0.000301502
0.000301822
0.000301935
0.000302552
0.000302224
0.000303779
0.000301609
0.000306717
0.000298326
0.000314352
0.000290066
0.000330775
0.000277831
0.000358101
0.000269198
0.000404636
0.000280729
0.000464425
0.000323537
0.000494773
0.00036043
0.00051666
0.000380217
0.000534508
0.00042111
0.00054072
0.000434804
0.00055419
0.000482833
0.000553556
0.000496393
0.000566161
0.0005684
0.000615455
0.000621785
0.000669814
0.00069249
0.000784919
0.00082792
0.00093612
8.72793e-05
0.000127715
0.000176975
0.000218564
0.000241673
0.000238765
0.000234348
0.000389193
0.000660259
0.00081866
0.000864421
0.000848547
0.000773498
0.000586105
0.000485406
0.000385358
0.000269975
0.000200988
0.000163114
0.000149166
0.000162681
0.000191933
0.000227325
0.000261008
0.00028834
0.000307984
0.000320307
0.000326456
0.000328019
0.000327341
0.000324894
0.000321789
0.00031866
0.000315723
0.000313105
0.000310843
0.000308929
0.000307331
0.000306007
0.000304916
0.00030402
0.000303284
0.00030268
0.000302183
0.000301773
0.000301433
0.000301149
0.000300909
0.000300703
0.000300523
0.000300361
0.000300212
0.000300068
0.000299924
0.000299776
0.000299616
0.000299439
0.000299238
0.000299006
0.000298731
0.000298405
0.000298012
0.000297539
0.000296964
0.000296273
0.000295432
0.000294429
0.000293224
0.000291809
0.000290152
0.000288245
0.000286086
0.000283653
0.000280972
0.000278
0.000274754
0.000271167
0.000267195
0.000262768
0.000257758
0.000252065
0.000245543
0.000237986
0.000229304
0.000219161
0.00020754
0.000194044
0.000178865
0.000161726
0.00014359
0.000125066
0.00010913
9.98153e-05
9.96403e-05
0.00010429
0.000108071
0.000105054
9.09135e-05
6.70067e-05
4.04831e-05
0.000107747
0.000137348
0.000172407
0.000215975
0.000277445
0.000395879
0.000534945
0.00060811
0.000631875
0.000567476
0.000427031
0.000342656
0.000246424
0.000184958
0.000160333
0.000144244
0.000133606
0.000121916
0.000116673
0.000112548
0.000112386
0.000118573
0.000133466
0.000155372
0.000180913
0.000206288
0.000228776
0.000246799
0.000260047
0.000269034
0.000274898
0.000278563
0.000280689
0.000281861
0.000282454
0.000282705
0.000282757
0.000282705
0.000282606
0.000282476
0.000282343
0.000282214
0.000282096
0.00028199
0.000281895
0.000281812
0.00028174
0.000281677
0.000281622
0.000281574
0.000281531
0.000281493
0.000281459
0.000281426
0.000281395
0.000281365
0.000281334
0.000281301
0.000281267
0.000281228
0.000281185
0.000281135
0.000281076
0.000281004
0.000280919
0.00028081
0.000280676
0.000280503
0.000280284
0.000280007
0.000279651
0.000279221
0.000278677
0.000278046
0.000277272
0.000276399
0.000275377
0.00027426
0.000272946
0.000271556
0.000269839
0.00026813
0.000265848
0.000263717
0.000260628
0.000257944
0.00025358
0.000250189
0.000243824
0.000239278
0.000229785
0.000222843
0.000208459
0.000196188
0.000174953
0.000156103
0.000132672
0.000108759
8.82975e-05
5.69718e-05
0.000113379
0.000149139
0.000202209
0.000266135
0.000353987
0.000466379
0.000520874
0.000526768
0.000403213
0.000266131
0.00019726
0.000178754
0.000172955
0.000170011
0.000159383
0.000155144
0.000136364
0.000131394
0.000118003
0.000108418
9.867e-05
8.99937e-05
8.27566e-05
7.75417e-05
7.68542e-05
7.98829e-05
9.06687e-05
0.000108177
0.000125268
0.000141158
0.000153933
0.00016368
0.000171101
0.000176627
0.00018068
0.000183627
0.00018576
0.000187304
0.000188423
0.000189238
0.000189834
0.000190271
0.000190595
0.000190835
0.000191015
0.00019115
0.000191254
0.000191333
0.000191396
0.000191448
0.00019149
0.000191528
0.000191564
0.0001916
0.000191636
0.000191677
0.000191725