/*--------------------------------*- C++ -*----------------------------------*\
| =========                 |                                                 |
| \\      /  F ield         | OpenFOAM: The Open Source CFD Toolbox           |
|  \\    /   O peration     | Version:  2.4.0                                 |
|   \\  /    A nd           | Web:      www.OpenFOAM.org                      |
|    \\/     M anipulation  |                                                 |
\*---------------------------------------------------------------------------*/
FoamFile
{
    version     2.0;
    format      ascii;
    class       surfaceScalarField;
    location    "0.031";
    object      phi_0;
}
// * * * * * * * * * * * * * * * * * * * * * * * * * * * * * * * * * * * * * //

dimensions      [0 3 -1 0 0 0 0];

internalField   nonuniform List<scalar> 
8640
(
1.14707e-05
1.35293e-05
7.17206e-06
4.29863e-06
5.92791e-06
1.24416e-06
5.35858e-06
5.69324e-07
5.10264e-06
2.55943e-07
4.89706e-06
2.05582e-07
4.83752e-06
5.95421e-08
4.85168e-06
-1.41651e-08
4.15811e-06
6.93573e-07
-3.34714e-06
7.50525e-06
2.10481e-05
1.74812e-05
1.74587e-05
7.88809e-06
1.55385e-05
3.16432e-06
1.42279e-05
1.87997e-06
1.34984e-05
9.85462e-07
1.29376e-05
7.66297e-07
1.27378e-05
2.59429e-07
1.26682e-05
5.53949e-08
1.16693e-05
1.69247e-06
-5.09249e-06
1.34147e-05
2.56835e-05
1.67977e-05
2.41159e-05
9.45564e-06
2.26559e-05
4.62435e-06
2.1197e-05
3.3389e-06
2.02476e-05
1.93484e-06
1.94536e-05
1.56035e-06
1.91146e-05
5.98392e-07
1.8995e-05
1.74957e-07
1.81399e-05
2.54762e-06
-5.02851e-06
1.80759e-05
2.7423e-05
1.43747e-05
2.77385e-05
9.14016e-06
2.74476e-05
4.9152e-06
2.64788e-05
4.30771e-06
2.56972e-05
2.71645e-06
2.48842e-05
2.37335e-06
2.44776e-05
1.00501e-06
2.42853e-05
3.67276e-07
2.39171e-05
2.91581e-06
-3.82529e-06
2.27139e-05
2.7569e-05
1.18057e-05
2.88353e-05
7.87383e-06
2.97211e-05
4.02938e-06
2.96396e-05
4.38921e-06
2.94511e-05
2.90495e-06
2.8936e-05
2.88841e-06
2.86541e-05
1.28696e-06
2.84128e-05
6.08581e-07
2.85021e-05
2.82652e-06
-2.64823e-06
2.7325e-05
2.74078e-05
9.39786e-06
2.87477e-05
6.53399e-06
3.01264e-05
2.65069e-06
3.06985e-05
3.81711e-06
3.11818e-05
2.42166e-06
3.11895e-05
2.8807e-06
3.12869e-05
1.18949e-06
3.11628e-05
7.32697e-07
3.15617e-05
2.42759e-06
-1.6271e-06
3.05406e-05
2.73874e-05
7.0105e-06
2.86856e-05
5.23573e-06
2.98759e-05
1.46042e-06
3.06729e-05
3.02006e-06
3.14801e-05
1.61451e-06
3.1843e-05
2.51775e-06
3.22422e-05
7.90309e-07
3.23963e-05
5.78587e-07
3.29383e-05
1.88556e-06
-5.37879e-07
3.18491e-05
2.73135e-05
4.69697e-06
2.89328e-05
3.61642e-06
2.9733e-05
6.6025e-07
3.04796e-05
2.27345e-06
3.13707e-05
7.23453e-07
3.19248e-05
1.96366e-06
3.232e-05
3.95085e-07
3.26425e-05
2.56117e-07
3.31023e-05
1.4257e-06
-9.71598e-07
3.3536e-05
2.72735e-05
2.42343e-06
2.90535e-05
1.83644e-06
2.96396e-05
7.42255e-08
3.03853e-05
1.5277e-06
3.12976e-05
-1.8883e-07
3.19161e-05
1.34517e-06
3.2211e-05
1.00173e-07
3.26106e-05
-1.43456e-07
3.30913e-05
9.45022e-07
-1.92952e-06
3.40492e-05
2.72382e-05
1.85227e-07
2.90311e-05
4.35732e-08
2.96214e-05
-5.16157e-07
3.03892e-05
7.59895e-07
3.12339e-05
-1.03347e-06
3.18769e-05
7.02114e-07
3.22007e-05
-2.23552e-07
3.26393e-05
-5.82076e-07
3.34388e-05
1.45516e-07
-2.04732e-06
3.35566e-05
2.72268e-05
-2.04153e-06
2.90452e-05
-1.77484e-06
2.96251e-05
-1.09612e-06
3.03763e-05
8.68969e-09
3.12086e-05
-1.86572e-06
3.18985e-05
1.22327e-08
3.22046e-05
-5.29691e-07
3.26837e-05
-1.0612e-06
3.33619e-05
-5.32694e-07
-1.12389e-06
3.24385e-05
2.72551e-05
-4.29661e-06
2.90558e-05
-3.57556e-06
2.96329e-05
-1.6732e-06
3.0427e-05
-7.85385e-07
3.12422e-05
-2.68094e-06
3.19188e-05
-6.64398e-07
3.22448e-05
-8.55704e-07
3.26434e-05
-1.45974e-06
3.3219e-05
-1.10829e-06
-2.07794e-06
3.4173e-05
2.73156e-05
-6.61218e-06
2.90442e-05
-5.30421e-06
2.96761e-05
-2.30509e-06
3.05472e-05
-1.65651e-06
3.13035e-05
-3.43724e-06
3.19505e-05
-1.31132e-06
3.22872e-05
-1.19247e-06
3.26506e-05
-1.82308e-06
3.33567e-05
-1.81443e-06
-3.08413e-06
3.43629e-05
2.74077e-05
-9.01987e-06
2.89036e-05
-6.80014e-06
2.97855e-05
-3.18701e-06
3.07955e-05
-2.66648e-06
3.13642e-05
-4.00592e-06
3.18764e-05
-1.8235e-06
3.21987e-05
-1.51477e-06
3.24635e-05
-2.08786e-06
3.28407e-05
-2.19166e-06
-3.06831e-06
3.28249e-05
2.75326e-05
-1.15525e-05
2.88892e-05
-8.15673e-06
2.99689e-05
-4.26669e-06
3.08768e-05
-3.57441e-06
3.1011e-05
-4.14017e-06
3.12052e-05
-2.01765e-06
3.12678e-05
-1.57737e-06
3.11482e-05
-1.96826e-06
3.10816e-05
-2.1251e-06
-2.85571e-06
3.0869e-05
2.76912e-05
-1.42436e-05
2.88705e-05
-9.33603e-06
2.96113e-05
-5.00754e-06
2.98187e-05
-3.78179e-06
2.92531e-05
-3.57458e-06
2.89671e-05
-1.73167e-06
2.86637e-05
-1.27392e-06
2.82344e-05
-1.53896e-06
2.78869e-05
-1.77764e-06
-2.25356e-06
2.72848e-05
2.74917e-05
-1.67354e-05
2.77133e-05
-9.55755e-06
2.73796e-05
-4.67391e-06
2.66176e-05
-3.01975e-06
2.55124e-05
-2.4694e-06
2.49427e-05
-1.16194e-06
2.4474e-05
-8.05289e-07
2.39532e-05
-1.01808e-06
2.3449e-05
-1.27353e-06
-1.49148e-06
2.2687e-05
2.57244e-05
-1.74597e-05
2.40886e-05
-7.92181e-06
2.26167e-05
-3.20196e-06
2.13004e-05
-1.70349e-06
2.00989e-05
-1.26788e-06
1.95169e-05
-5.79885e-07
1.9075e-05
-3.63479e-07
1.85986e-05
-5.41645e-07
1.80477e-05
-7.22653e-07
-7.60125e-07
1.73164e-05
2.10665e-05
-1.35263e-05
1.74443e-05
-4.29963e-06
1.551e-05
-1.26761e-06
1.43074e-05
-5.009e-07
1.33922e-05
-3.52745e-07
1.29749e-05
-1.62533e-07
1.26852e-05
-7.38176e-08
1.23199e-05
-1.76344e-07
1.18406e-05
-2.43369e-07
-2.48923e-07
1.13294e-05
1.14737e-05
7.17412e-06
5.90651e-06
5.40562e-06
5.05287e-06
4.89034e-06
4.81652e-06
4.64018e-06
4.39681e-06
4.14788e-06
7.26025e-06
-1.0994e-06
1.34441e-06
6.37148e-06
-3.37374e-07
1.22614e-06
7.29447e-06
-8.17136e-07
-1.05861e-07
9.20024e-06
1.91167e-06
-3.81743e-06
1.13521e-05
5.28411e-06
-7.43596e-06
1.40631e-05
5.99096e-06
-8.70193e-06
1.77859e-05
3.19703e-06
-6.9199e-06
2.29255e-05
4.46654e-06
-9.60615e-06
2.61186e-05
5.23331e-06
-8.42639e-06
2.55983e-05
5.73082e-06
-5.21055e-06
2.48924e-05
-9.54935e-07
1.66085e-06
2.45646e-05
-1.36454e-05
1.39733e-05
2.40743e-05
-2.14432e-05
2.19335e-05
2.47128e-05
-2.34303e-05
2.27918e-05
2.74192e-05
-2.58178e-05
2.31114e-05
3.00606e-05
-2.91652e-05
2.65238e-05
3.01537e-05
-3.17325e-05
3.16394e-05
2.93668e-05
-3.27016e-05
3.34885e-05
2.83444e-05
-2.86794e-05
2.97018e-05
2.61643e-05
-2.30141e-05
2.51942e-05
2.40429e-05
-1.79581e-05
2.00795e-05
2.22074e-05
-1.24424e-05
1.42778e-05
2.00623e-05
-9.14888e-06
1.1294e-05
1.82457e-05
-8.01208e-06
9.82873e-06
1.72176e-05
-5.95475e-06
6.98283e-06
1.65511e-05
-2.95132e-06
3.61783e-06
1.58985e-05
-8.04116e-07
1.45664e-06
1.5277e-05
4.508e-08
5.76512e-07
1.47636e-05
2.0564e-07
3.07715e-07
1.43746e-05
1.80334e-07
2.08693e-07
1.40895e-05
1.5148e-07
1.33626e-07
1.38864e-05
1.38706e-07
6.43128e-08
1.37452e-05
1.36053e-07
5.20744e-09
1.36492e-05
1.33976e-07
-3.79811e-08
1.35853e-05
1.31629e-07
-6.77139e-08
1.35427e-05
1.27334e-07
-8.47972e-08
1.35145e-05
1.21549e-07
-9.32625e-08
1.34957e-05
1.14445e-07
-9.57227e-08
1.34834e-05
1.06177e-07
-9.38249e-08
1.34751e-05
9.75207e-08
-8.92834e-08
1.34698e-05
8.86514e-08
-8.33098e-08
1.34663e-05
8.00835e-08
-7.65849e-08
1.34641e-05
7.18962e-08
-6.96491e-08
1.34626e-05
6.43644e-08
-6.29379e-08
1.34617e-05
5.75696e-08
-5.66678e-08
1.34612e-05
5.15877e-08
-5.10491e-08
1.34609e-05
4.64432e-08
-4.6114e-08
1.34607e-05
4.21605e-08
-4.20007e-08
1.34606e-05
3.87404e-08
-3.86719e-08
1.34606e-05
3.6187e-08
-3.61896e-08
1.34607e-05
3.44794e-08
-3.45391e-08
1.34608e-05
3.36851e-08
-3.3795e-08
1.3461e-05
3.369e-08
-3.38509e-08
1.34612e-05
3.48466e-08
-3.50692e-08
1.34615e-05
3.64818e-08
-3.67869e-08
1.34619e-05
4.03456e-08
-4.07424e-08
1.34625e-05
4.28022e-08
-4.34124e-08
1.34631e-05
5.22445e-08
-5.28816e-08
1.34646e-05
5.09828e-08
-5.2429e-08
1.34652e-05
7.72221e-08
-7.78397e-08
1.34695e-05
5.22736e-08
-5.65971e-08
1.34679e-05
1.37261e-07
-1.35639e-07
1.34831e-05
1.34172e-08
-2.85634e-08
1.3469e-05
3.00655e-07
-2.86593e-07
1.35228e-05
-1.66413e-07
1.12587e-07
1.34601e-05
7.53687e-07
-6.90964e-07
1.36342e-05
-7.18577e-07
5.44421e-07
1.34186e-05
1.88779e-06
-1.67214e-06
1.38858e-05
-1.94978e-06
1.4826e-06
1.33056e-05
4.05825e-06
-3.47809e-06
1.42473e-05
-3.70819e-06
2.76649e-06
1.31751e-05
6.41885e-06
-5.34665e-06
1.45022e-05
-4.92614e-06
3.59904e-06
1.33045e-05
6.92438e-06
-5.72662e-06
1.46115e-05
-4.73684e-06
3.42978e-06
1.37199e-05
5.37354e-06
-4.48193e-06
1.46663e-05
-3.01587e-06
2.06945e-06
1.39511e-05
3.87269e-06
-3.15744e-06
1.47188e-05
-1.61269e-06
8.44974e-07
1.36451e-05
4.69336e-06
-3.61968e-06
1.47459e-05
-1.66314e-06
5.62334e-07
1.33483e-05
5.33442e-06
-3.93679e-06
1.43151e-05
-6.23105e-07
-3.43678e-07
1.32787e-05
4.72985e-06
-3.69343e-06
1.38882e-05
8.63149e-07
-1.47264e-06
1.28204e-05
5.33718e-06
-4.26942e-06
1.34901e-05
1.94084e-06
-2.61058e-06
1.28038e-05
5.68545e-06
-4.99915e-06
1.35204e-05
3.19069e-06
-3.90723e-06
1.28939e-05
7.11004e-06
-6.48361e-06
1.37317e-05
5.03883e-06
-5.87659e-06
1.28703e-05
8.96818e-06
-8.10676e-06
1.35231e-05
8.36996e-06
-9.02278e-06
1.22263e-05
1.37368e-05
-1.24399e-05
1.35357e-05
1.10297e-05
-1.23392e-05
1.34455e-05
1.87256e-05
-1.86354e-05
1.50695e-05
1.77707e-05
-1.93947e-05
1.17522e-05
3.25137e-05
-2.91964e-05
1.22783e-05
3.08701e-05
-3.13963e-05
5.94388e-05
-5.82375e-05
1.1077e-05
1.35399e-05
-1.2247e-06
1.25658e-05
6.3678e-07
1.2359e-05
-6.10318e-07
1.35067e-05
7.63914e-07
1.42425e-05
4.54831e-06
1.52007e-05
5.03278e-06
1.81468e-05
2.50903e-07
2.34703e-05
-8.56957e-07
2.58632e-05
2.84045e-06
2.58356e-05
5.75841e-06
2.6765e-05
-1.88434e-06
2.74456e-05
-1.4326e-05
2.77478e-05
-2.17454e-05
2.89218e-05
-2.46043e-05
3.11317e-05
-2.80277e-05
3.30246e-05
-3.10581e-05
3.20001e-05
-3.0708e-05
2.94759e-05
-3.01774e-05
2.80491e-05
-2.72527e-05
2.65455e-05
-2.15105e-05
2.47403e-05
-1.61528e-05
2.30571e-05
-1.07592e-05
2.09023e-05
-6.99409e-06
1.86048e-05
-5.71452e-06
1.69848e-05
-4.33478e-06
1.60384e-05
-2.00496e-06
1.53975e-05
-1.63164e-07
1.49028e-05
5.3974e-07
1.45298e-05
5.78686e-07
1.425e-05
4.60129e-07
1.40349e-05
3.66557e-07
1.38678e-05
3.05846e-07
1.37416e-05
2.62233e-07
1.36499e-05
2.25618e-07
1.35863e-05
1.95276e-07
1.3543e-05
1.70654e-07
1.3514e-05
1.50529e-07
1.34948e-05
1.33607e-07
1.34821e-05
1.18886e-07
1.34739e-05
1.05793e-07
1.34684e-05
9.40662e-08
1.3465e-05
8.35086e-08
1.34628e-05
7.40734e-08
1.34615e-05
6.56899e-08
1.34608e-05
5.83349e-08
1.34603e-05
5.2006e-08
1.34602e-05
4.6618e-08
1.34601e-05
4.21902e-08
1.34602e-05
3.86642e-08
1.34604e-05
3.60363e-08
1.34606e-05
3.42756e-08
1.34608e-05
3.34233e-08
1.34611e-05
3.3374e-08
1.34615e-05
3.44493e-08
1.3462e-05
3.601e-08
1.34626e-05
3.97166e-08
1.34634e-05
4.20364e-08
1.34644e-05
5.12102e-08
1.34659e-05
4.95301e-08
1.34674e-05
7.56963e-08
1.34711e-05
4.86142e-08
1.34719e-05
1.36391e-07
1.34842e-05
1.15875e-09
1.34774e-05
3.07481e-07
1.35225e-05
-2.11499e-07
1.34815e-05
7.94614e-07
1.36342e-05
-8.71198e-07
1.3484e-05
2.03798e-06
1.39044e-05
-2.37022e-06
1.34844e-05
4.47824e-06
1.43315e-05
-4.55531e-06
1.3537e-05
7.21338e-06
1.47501e-05
-6.13922e-06
1.39109e-05
7.76359e-06
1.5308e-05
-6.13395e-06
1.45576e-05
6.12394e-06
1.59779e-05
-4.43613e-06
1.50118e-05
4.83872e-06
1.61841e-05
-2.78501e-06
1.50196e-05
5.85795e-06
1.63116e-05
-2.95514e-06
1.46947e-05
6.95128e-06
1.61996e-05
-2.12802e-06
1.45382e-05
6.3913e-06
1.54541e-05
-5.28169e-08
1.36222e-05
7.16909e-06
1.44984e-05
1.06469e-06
1.2765e-05
7.41883e-06
1.34044e-05
2.55134e-06
1.20387e-05
8.47567e-06
1.33202e-05
3.75737e-06
1.27701e-05
9.51823e-06
1.47681e-05
6.372e-06
1.40297e-05
1.44751e-05
1.44962e-05
1.05633e-05
1.19897e-05
2.12321e-05
1.42378e-05
1.55226e-05
1.4599e-05
3.21525e-05
1.89628e-05
2.65063e-05
6.02346e-05
1.8167e-05
1.83093e-05
-1.4581e-06
1.83216e-05
6.24515e-07
1.80816e-05
-3.70305e-07
1.91799e-05
-3.34398e-07
2.00446e-05
3.68359e-06
1.98782e-05
5.19917e-06
2.09255e-05
-7.96345e-07
2.40593e-05
-3.99081e-06
2.57544e-05
1.14537e-06
2.72613e-05
4.25149e-06
2.99535e-05
-4.5765e-06
3.16409e-05
-1.60134e-05
3.24514e-05
-2.2556e-05
3.30782e-05
-2.52311e-05
3.34621e-05
-2.84116e-05
3.40835e-05
-3.16796e-05
3.33085e-05
-2.99329e-05
3.03964e-05
-2.72653e-05
2.80019e-05
-2.48582e-05
2.63463e-05
-1.98549e-05
2.47428e-05
-1.45493e-05
2.33715e-05
-9.38791e-06
2.15117e-05
-5.13431e-06
1.90449e-05
-3.24773e-06
1.69117e-05
-2.2015e-06
1.5595e-05
-6.88281e-07
1.48788e-05
5.52974e-07
1.44769e-05
9.41629e-07
1.42346e-05
8.20994e-07
1.40685e-05
6.26278e-07
1.39352e-05
4.99841e-07
1.38191e-05
4.21933e-07
1.37204e-05
3.60969e-07
1.36414e-05
3.04602e-07
1.35825e-05
2.54131e-07
1.35407e-05
2.12498e-07
1.35121e-05
1.79141e-07
1.34929e-05
1.52791e-07
1.34803e-05
1.31505e-07
1.3472e-05
1.14036e-07
1.34668e-05
9.93378e-08
1.34635e-05
8.67844e-08
1.34615e-05
7.60962e-08
1.34603e-05
6.68529e-08
1.34597e-05
5.8943e-08
1.34594e-05
5.2267e-08
1.34594e-05
4.66437e-08
1.34595e-05
4.20651e-08
1.34598e-05
3.84416e-08
1.34601e-05
3.57407e-08
1.34604e-05
3.39234e-08
1.34608e-05
3.30094e-08
1.34613e-05
3.29057e-08
1.34619e-05
3.388e-08
1.34625e-05
3.53804e-08
1.34634e-05
3.88553e-08
1.34642e-05
4.11469e-08
1.34657e-05
4.97475e-08
1.3467e-05
4.82056e-08
1.34697e-05
7.30518e-08
1.34721e-05
4.62205e-08
1.34765e-05
1.31991e-07
1.34833e-05
-5.67971e-09
1.34879e-05
3.02931e-07
1.35152e-05
-2.38794e-07
1.35087e-05
8.01095e-07
1.36164e-05
-9.78975e-07
1.35586e-05
2.09585e-06
1.39058e-05
-2.71749e-06
1.36761e-05
4.70798e-06
1.44606e-05
-5.33978e-06
1.39342e-05
7.7398e-06
1.50157e-05
-7.22079e-06
1.44934e-05
8.28589e-06
1.57236e-05
-7.36416e-06
1.50106e-05
6.83694e-06
1.67551e-05
-6.18058e-06
1.54563e-05
6.13746e-06
1.70759e-05
-4.40461e-06
1.58946e-05
7.03928e-06
1.7528e-05
-4.58853e-06
1.59342e-05
8.54508e-06
1.80707e-05
-4.26456e-06
1.65099e-05
7.95214e-06
1.8137e-05
-1.67991e-06
1.6304e-05
9.00206e-06
1.80932e-05
-7.24489e-07
1.56914e-05
9.82064e-06
1.65031e-05
1.73961e-06
1.396e-05
1.10188e-05
1.43229e-05
3.39447e-06
1.23477e-05
1.14934e-05
1.34696e-05
5.25011e-06
1.33042e-05
1.46405e-05
1.64368e-05
7.43074e-06
1.55601e-05
2.21088e-05
1.6418e-05
1.46647e-05
1.39641e-05
3.46063e-05
2.01642e-05
2.03062e-05
5.84876e-05
2.19112e-05
2.22412e-05
-9.85448e-07
2.25924e-05
2.73313e-07
2.31325e-05
-9.10333e-07
2.40259e-05
-1.22786e-06
2.51226e-05
2.58692e-06
2.56763e-05
4.64548e-06
2.59599e-05
-1.07992e-06
2.67108e-05
-4.74178e-06
2.75032e-05
3.52959e-07
2.97578e-05
1.99691e-06
3.27166e-05
-7.53527e-06
3.44757e-05
-1.77725e-05
3.54677e-05
-2.3548e-05
3.55212e-05
-2.52846e-05
3.41839e-05
-2.70743e-05
3.32838e-05
-3.07794e-05
3.30074e-05
-2.96565e-05
3.13743e-05
-2.56323e-05
2.90631e-05
-2.2547e-05
2.692e-05
-1.77118e-05
2.48559e-05
-1.24851e-05
2.33382e-05
-7.87027e-06
2.17363e-05
-3.53236e-06
1.93749e-05
-8.86359e-07
1.69565e-05
2.16917e-07
1.53146e-05
9.53556e-07
1.44845e-05
1.38311e-06
1.41319e-05
1.29427e-06
1.39821e-05
9.70779e-07
1.38961e-05
7.12264e-07
1.38238e-05
5.7213e-07
1.37514e-05
4.94382e-07
1.36822e-05
4.30105e-07
1.36213e-05
3.65498e-07
1.35719e-05
3.03589e-07
1.35345e-05
2.49909e-07
1.35079e-05
2.05738e-07
1.34897e-05
1.70996e-07
1.34775e-05
1.43617e-07
1.34697e-05
1.21885e-07
1.34648e-05
1.0427e-07
1.34617e-05
8.9834e-08
1.34599e-05
7.78596e-08
1.3459e-05
6.78045e-08
1.34586e-05
5.93637e-08
1.34585e-05
5.23394e-08
1.34586e-05
4.65013e-08
1.34589e-05
4.17817e-08
1.34593e-05
3.80644e-08
1.34598e-05
3.52938e-08
1.34603e-05
3.34227e-08
1.34608e-05
3.24452e-08
1.34614e-05
3.22885e-08
1.34622e-05
3.31423e-08
1.3463e-05
3.46014e-08
1.3464e-05
3.77639e-08
1.3465e-05
4.01621e-08
1.34669e-05
4.78349e-08
1.3468e-05
4.71264e-08
1.3472e-05
6.91169e-08
1.34725e-05
4.56247e-08
1.34814e-05
1.23135e-07
1.34803e-05
-4.61707e-09
1.35007e-05
2.82598e-07
1.34985e-05
-2.36642e-07
1.35457e-05
7.53953e-07
1.35583e-05
-9.91615e-07
1.36601e-05
1.99406e-06
1.37688e-05
-2.8262e-06
1.38753e-05
4.60148e-06
1.43142e-05
-5.77872e-06
1.40691e-05
7.98495e-06
1.5011e-05
-8.16273e-06
1.41957e-05
9.10119e-06
1.56433e-05
-8.81174e-06
1.41494e-05
8.33087e-06
1.60118e-05
-8.04298e-06
1.43205e-05
7.82872e-06
1.5724e-05
-5.80813e-06
1.46239e-05
8.13946e-06
1.61371e-05
-6.10182e-06
1.46849e-05
9.99733e-06
1.68889e-05
-6.46853e-06
1.58605e-05
8.98053e-06
1.76594e-05
-3.47888e-06
1.66324e-05
1.00291e-05
1.93391e-05
-3.43116e-06
1.75414e-05
1.16183e-05
1.99576e-05
-6.766e-07
1.77779e-05
1.31985e-05
1.93946e-05
1.77776e-06
1.58791e-05
1.50089e-05
1.58943e-05
5.23489e-06
1.24883e-05
1.80465e-05
1.44577e-05
5.4614e-06
1.54865e-05
2.108e-05
1.95981e-05
1.0553e-05
1.93267e-05
3.48778e-05
2.45388e-05
1.50941e-05
5.73031e-05
2.57233e-05
2.63762e-05
-3.66351e-08
2.62348e-05
4.14748e-07
2.7261e-05
-1.93657e-06
2.81889e-05
-2.1558e-06
2.88082e-05
1.96765e-06
2.96731e-05
3.78055e-06
3.01683e-05
-1.5751e-06
3.01467e-05
-4.72016e-06
3.08677e-05
-3.68079e-07
3.31846e-05
-3.19955e-07
3.50944e-05
-9.44508e-06
3.58646e-05
-1.85427e-05
3.65807e-05
-2.42641e-05
3.65773e-05
-2.52812e-05
3.47597e-05
-2.52567e-05
3.31369e-05
-2.91566e-05
3.28944e-05
-2.9414e-05
3.22594e-05
-2.49973e-05
3.05277e-05
-2.08152e-05
2.82198e-05
-1.5404e-05
2.55672e-05
-9.83253e-06
2.34226e-05
-5.72568e-06
2.171e-05
-1.81978e-06
1.95074e-05
1.31624e-06
1.70548e-05
2.66951e-06
1.52302e-05
2.77818e-06
1.43149e-05
2.29839e-06
1.39901e-05
1.61912e-06
1.38874e-05
1.07345e-06
1.38253e-05
7.74365e-07
1.37603e-05
6.37144e-07
1.3696e-05
5.58624e-07
1.36395e-05
4.86612e-07
1.35923e-05
4.12771e-07
1.35538e-05
3.42008e-07
1.35239e-05
2.79874e-07
1.35013e-05
2.28362e-07
1.34852e-05
1.87065e-07
1.34742e-05
1.54622e-07
1.3467e-05
1.29107e-07
1.34625e-05
1.08768e-07
1.34598e-05
9.25245e-08
1.34583e-05
7.93447e-08
1.34576e-05
6.84935e-08
1.34574e-05
5.95686e-08
1.34575e-05
5.22116e-08
1.34578e-05
4.6181e-08
1.34583e-05
4.13248e-08
1.34588e-05
3.75308e-08
1.34594e-05
3.46966e-08
1.34601e-05
3.27738e-08
1.34608e-05
3.17308e-08
1.34616e-05
3.15251e-08
1.34625e-05
3.22406e-08
1.34634e-05
3.36808e-08
1.34647e-05
3.6448e-08
1.34658e-05
3.91065e-08
1.34681e-05
4.54599e-08
1.34689e-05
4.63905e-08
1.34742e-05
6.3773e-08
1.34727e-05
4.71838e-08
1.34863e-05
1.09435e-07
1.34766e-05
5.16154e-09
1.35126e-05
2.46608e-07
1.34814e-05
-2.05513e-07
1.35738e-05
6.61613e-07
1.35047e-05
-9.22526e-07
1.37195e-05
1.77926e-06
1.36476e-05
-2.75427e-06
1.39435e-05
4.30554e-06
1.41881e-05
-6.02327e-06
1.39027e-05
8.27025e-06
1.5033e-05
-9.29298e-06
1.35502e-05
1.0584e-05
1.53831e-05
-1.06447e-05
1.34234e-05
1.02906e-05
1.48786e-05
-9.49822e-06
1.3506e-05
9.20135e-06
1.45437e-05
-6.84586e-06
1.35355e-05
9.14764e-06
1.48626e-05
-7.42892e-06
1.3757e-05
1.1103e-05
1.55852e-05
-8.29674e-06
1.46001e-05
9.96562e-06
1.62157e-05
-5.09451e-06
1.53e-05
1.09448e-05
1.80608e-05
-6.19198e-06
1.6975e-05
1.27041e-05
2.00285e-05
-3.73005e-06
1.91004e-05
1.41265e-05
2.2554e-05
-1.67578e-06
2.05201e-05
1.70428e-05
2.28355e-05
2.91954e-06
1.9923e-05
2.0959e-05
1.98036e-05
5.58084e-06
1.60553e-05
2.48283e-05
1.80422e-05
8.566e-06
1.74308e-05
3.54892e-05
2.3481e-05
9.04398e-06
5.18867e-05
2.88974e-05
2.99471e-05
5.56876e-07
2.96958e-05
6.66024e-07
3.06939e-05
-2.93467e-06
3.15861e-05
-3.04801e-06
3.17229e-05
1.83093e-06
3.2415e-05
3.08838e-06
3.28083e-05
-1.96835e-06
3.26125e-05
-4.52438e-06
3.3952e-05
-1.70755e-06
3.62084e-05
-2.57642e-06
3.70285e-05
-1.02651e-05
3.67154e-05
-1.82296e-05
3.65931e-05
-2.41418e-05
3.65414e-05
-2.52295e-05
3.50039e-05
-2.37192e-05
3.31712e-05
-2.73239e-05
3.27201e-05
-2.89629e-05
3.25599e-05
-2.4837e-05
3.14718e-05
-1.97271e-05
2.9424e-05
-1.33562e-05
2.65806e-05
-6.98909e-06
2.38189e-05
-2.96397e-06
2.16743e-05
3.24829e-07
1.95041e-05
3.48639e-06
1.71496e-05
5.02399e-06
1.53116e-05
4.61617e-06
1.43742e-05
3.23586e-06
1.40757e-05
1.9176e-06
1.39975e-05
1.1516e-06
1.39197e-05
8.52234e-07
1.38118e-05
7.45031e-07
1.37076e-05
6.62808e-07
1.36274e-05
5.66832e-07
1.3572e-05
4.68137e-07
1.35345e-05
3.79518e-07
1.35086e-05
3.05792e-07
1.34903e-05
2.4663e-07
1.34775e-05
1.99843e-07
1.34688e-05
1.63352e-07
1.34631e-05
1.34832e-07
1.34595e-05
1.12343e-07
1.34575e-05
9.4586e-08
1.34564e-05
8.03769e-08
1.34561e-05
6.88445e-08
1.34561e-05
5.94938e-08
1.34565e-05
5.18583e-08
1.3457e-05
4.5654e-08
1.34577e-05
4.06975e-08
1.34584e-05
3.68298e-08
1.34591e-05
3.39446e-08
1.34599e-05
3.19773e-08
1.34608e-05
3.08696e-08
1.34617e-05
3.06184e-08
1.34627e-05
3.11811e-08
1.34638e-05
3.26251e-08
1.34653e-05
3.49158e-08
1.34664e-05
3.80044e-08
1.34693e-05
4.25979e-08
1.34695e-05
4.61589e-08
1.34766e-05
5.66767e-08
1.34719e-05
5.19211e-08
1.34926e-05
8.87105e-08
1.3469e-05
2.87986e-08
1.35299e-05
1.85634e-07
1.34507e-05
-1.26296e-07
1.36135e-05
4.98852e-07
1.34156e-05
-7.2469e-07
1.37731e-05
1.42177e-06
1.34643e-05
-2.44546e-06
1.39369e-05
3.83295e-06
1.39786e-05
-6.06498e-06
1.37137e-05
8.53521e-06
1.49549e-05
-1.05342e-05
1.32312e-05
1.23077e-05
1.51755e-05
-1.2589e-05
1.35081e-05
1.1958e-05
1.45038e-05
-1.04939e-05
1.39768e-05
9.72833e-06
1.46641e-05
-7.53317e-06
1.40141e-05
9.79766e-06
1.54038e-05
-8.81857e-06
1.44061e-05
1.21006e-05
1.60286e-05
-9.91919e-06
1.51125e-05
1.08817e-05
1.65188e-05
-6.50079e-06
1.5455e-05
1.20087e-05
1.77389e-05
-8.47593e-06
1.66795e-05
1.37635e-05
1.8883e-05
-5.93356e-06
1.83974e-05
1.46122e-05
2.20523e-05
-5.33073e-06
2.14186e-05
1.76765e-05
2.56805e-05
-1.34235e-06
2.49337e-05
2.17058e-05
2.90115e-05
1.50305e-06
2.46727e-05
2.91671e-05
2.70667e-05
6.17204e-06
2.2087e-05
4.04689e-05
2.21928e-05
8.93821e-06
4.56266e-05
2.84529e-05
3.20736e-05
3.32376e-07
3.23174e-05
4.22246e-07
3.30287e-05
-3.64595e-06
3.36079e-05
-3.62726e-06
3.35278e-05
1.9111e-06
3.3953e-05
2.6632e-06
3.39591e-05
-1.97451e-06
3.38931e-05
-4.45839e-06
3.5855e-05
-3.66947e-06
3.79015e-05
-4.6229e-06
3.8162e-05
-1.05256e-05
3.72973e-05
-1.73649e-05
3.60629e-05
-2.29074e-05
3.56452e-05
-2.48118e-05
3.49979e-05
-2.30719e-05
3.34883e-05
-2.58144e-05
3.25543e-05
-2.80289e-05
3.21204e-05
-2.44031e-05
3.12226e-05
-1.88293e-05
2.95734e-05
-1.17071e-05
2.70946e-05
-4.51031e-06
2.4114e-05
1.66841e-08
2.15884e-05
2.85043e-06
1.93754e-05
5.69937e-06
1.72001e-05
7.19932e-06
1.54918e-05
6.32449e-06
1.45907e-05
4.13691e-06
1.43045e-05
2.20376e-06
1.42377e-05
1.21841e-06
1.4141e-05
9.48915e-07
1.39785e-05
9.0759e-07
1.38076e-05
8.33713e-07
1.36736e-05
7.00805e-07
1.35856e-05
5.56119e-07
1.3533e-05
4.32181e-07
1.35021e-05
3.36605e-07
1.34836e-05
2.6518e-07
1.34718e-05
2.11633e-07
1.34643e-05
1.7087e-07
1.34595e-05
1.39586e-07
1.34566e-05
1.15227e-07
1.34551e-05
9.60836e-08
1.34545e-05
8.09927e-08
1.34545e-05
6.88597e-08
1.34549e-05
5.91414e-08
1.34555e-05
5.12675e-08
1.34562e-05
4.49285e-08
1.3457e-05
3.98847e-08
1.34579e-05
3.59654e-08
1.34588e-05
3.3038e-08
1.34597e-05
3.10334e-08
1.34607e-05
2.9864e-08
1.34618e-05
2.95709e-08
1.3463e-05
2.99729e-08
1.34642e-05
3.14337e-08
1.34659e-05
3.3196e-08
1.34671e-05
3.68294e-08
1.34703e-05
3.93511e-08
1.34702e-05
4.62843e-08
1.34787e-05
4.82001e-08
1.34714e-05
5.92225e-08
1.34978e-05
6.22817e-08
1.34627e-05
6.39326e-08
1.35435e-05
1.04785e-07
1.34257e-05
-8.49924e-09
1.36368e-05
2.87798e-07
1.33477e-05
-4.35612e-07
1.37677e-05
1.00174e-06
1.33262e-05
-2.00396e-06
1.38291e-05
3.33008e-06
1.3769e-05
-6.00493e-06
1.35559e-05
8.74831e-06
1.47766e-05
-1.17549e-05
1.31266e-05
1.39577e-05
1.47686e-05
-1.4231e-05
1.35161e-05
1.32105e-05
1.3983e-05
-1.09607e-05
1.38858e-05
9.82552e-06
1.4331e-05
-7.97843e-06
1.34783e-05
1.06504e-05
1.50235e-05
-1.03637e-05
1.36639e-05
1.34602e-05
1.48792e-05
-1.11345e-05
1.40862e-05
1.16746e-05
1.53999e-05
-7.81443e-06
1.40807e-05
1.33279e-05
1.60656e-05
-1.04609e-05
1.48776e-05
1.49516e-05
1.62165e-05
-7.27246e-06
1.51793e-05
1.56494e-05
1.80161e-05
-8.16759e-06
1.66481e-05
1.90445e-05
1.97108e-05
-4.40506e-06
1.93965e-05
2.202e-05
2.5244e-05
-4.34443e-06
2.39004e-05
3.05107e-05
2.88574e-05
1.21506e-06
2.8448e-05
4.08783e-05
2.65599e-05
1.08263e-05
4.26208e-05
2.95657e-05
3.39726e-05
-1.04232e-07
3.41814e-05
2.13472e-07
3.37408e-05
-3.20532e-06
3.33548e-05
-3.2413e-06
3.36849e-05
1.58108e-06
3.42327e-05
2.11536e-06
3.40583e-05
-1.80007e-06
3.44266e-05
-4.82677e-06
3.6219e-05
-5.46183e-06
3.75964e-05
-6.00027e-06
3.80034e-05
-1.09326e-05
3.77408e-05
-1.71023e-05
3.62567e-05
-2.14234e-05
3.54223e-05
-2.39774e-05
3.5507e-05
-2.31566e-05
3.44865e-05
-2.47939e-05
3.29508e-05
-2.64931e-05
3.17842e-05
-2.32365e-05
3.05146e-05
-1.75597e-05
2.88134e-05
-1.00059e-05
2.67927e-05
-2.48965e-06
2.40731e-05
2.73629e-06
2.12463e-05
5.67728e-06
1.89394e-05
8.00624e-06
1.71229e-05
9.01585e-06
1.57953e-05
7.652e-06
1.501e-05
4.92224e-06
1.46321e-05
2.5817e-06
1.44526e-05
1.3979e-06
1.43097e-05
1.09184e-06
1.41377e-05
1.0795e-06
1.39501e-05
1.0214e-06
1.37811e-05
8.69722e-07
1.3652e-05
6.85282e-07
1.35649e-05
5.19226e-07
1.35119e-05
3.89669e-07
1.3482e-05
2.95069e-07
1.34662e-05
2.2743e-07
1.34582e-05
1.78851e-07
1.34544e-05
1.43419e-07
1.34527e-05
1.16915e-07
1.34521e-05
9.66412e-08
1.34523e-05
8.08706e-08
1.34527e-05
6.83723e-08
1.34535e-05
5.84029e-08
1.34544e-05
5.03838e-08
1.34553e-05
4.39732e-08
1.34563e-05
3.88765e-08
1.34574e-05
3.49263e-08
1.34584e-05
3.19749e-08
1.34595e-05
2.99437e-08
1.34607e-05
2.87182e-08
1.34618e-05
2.83848e-08
1.34632e-05
2.86271e-08
1.34645e-05
3.01017e-08
1.34664e-05
3.13301e-08
1.34677e-05
3.55215e-08
1.34711e-05
3.59057e-08
1.3471e-05
4.64128e-08
1.348e-05
3.91844e-08
1.34718e-05
6.74296e-08
1.35006e-05
3.35162e-08
1.34603e-05
1.04191e-07
1.35501e-05
1.50347e-08
1.34131e-05
1.28494e-07
1.36472e-05
5.3709e-08
1.33048e-05
-9.32301e-08
1.37598e-05
5.46727e-07
1.32028e-05
-1.44695e-06
1.37732e-05
2.75964e-06
1.34733e-05
-5.70499e-06
1.35245e-05
8.69708e-06
1.44483e-05
-1.26787e-05
1.31704e-05
1.52356e-05
1.43043e-05
-1.53649e-05
1.36532e-05
1.38616e-05
1.35357e-05
-1.08432e-05
1.37625e-05
9.59878e-06
1.409e-05
-8.30599e-06
1.31396e-05
1.16007e-05
1.47702e-05
-1.19943e-05
1.35911e-05
1.46393e-05
1.43603e-05
-1.19038e-05
1.38791e-05
1.21559e-05
1.50179e-05
-8.95324e-06
1.34157e-05
1.49301e-05
1.54796e-05
-1.25249e-05
1.42922e-05
1.6139e-05
1.54422e-05
-8.42245e-06
1.38689e-05
1.72227e-05
1.6699e-05
-1.09977e-05
1.45146e-05
2.12289e-05
1.72243e-05
-7.11473e-06
1.52225e-05
2.40218e-05
1.90445e-05
-8.16643e-06
1.89095e-05
3.06456e-05
2.29427e-05
-2.81814e-06
2.64293e-05
3.73918e-05
2.77212e-05
9.53435e-06
3.93602e-05
3.09818e-05
3.47734e-05
-8.28454e-07
3.44491e-05
5.37764e-07
3.26469e-05
-1.4031e-06
3.22457e-05
-2.84014e-06
3.36604e-05
1.66404e-07
3.46183e-05
1.1575e-06
3.49481e-05
-2.12995e-06
3.53441e-05
-5.22276e-06
3.56507e-05
-5.76846e-06
3.60283e-05
-6.37777e-06
3.64632e-05
-1.13676e-05
3.68291e-05
-1.74682e-05
3.60774e-05
-2.06717e-05
3.51815e-05
-2.30816e-05
3.53486e-05
-2.33237e-05
3.47269e-05
-2.41722e-05
3.29103e-05
-2.46765e-05
3.1036e-05
-2.13622e-05
2.93579e-05
-1.58815e-05
2.74025e-05
-8.05053e-06
2.55998e-05
-6.86944e-07
2.35234e-05
4.81276e-06
2.08247e-05
8.37599e-06
1.83966e-05
1.04343e-05
1.67804e-05
1.0632e-05
1.59446e-05
8.48777e-06
1.55073e-05
5.35958e-06
1.50666e-05
3.02244e-06
1.45687e-05
1.89579e-06
1.41442e-05
1.51627e-06
1.38638e-05
1.35996e-06
1.37099e-05
1.17527e-06
1.3631e-05
9.48658e-07
1.35842e-05
7.32023e-07
1.35482e-05
5.55274e-07
1.35172e-05
4.20653e-07
1.34921e-05
3.20154e-07
1.34739e-05
2.4563e-07
1.34621e-05
1.90652e-07
1.34554e-05
1.50174e-07
1.3452e-05
1.20257e-07
1.34508e-05
9.79084e-08
1.34507e-05
8.09205e-08
1.34513e-05
6.77867e-08
1.34522e-05
5.74785e-08
1.34533e-05
4.92956e-08
1.34545e-05
4.28101e-08
1.34557e-05
3.76887e-08
1.34569e-05
3.37211e-08
1.34581e-05
3.07564e-08
1.34593e-05
2.87102e-08
1.34606e-05
2.74373e-08
1.34619e-05
2.70629e-08
1.34634e-05
2.71559e-08
1.34649e-05
2.86233e-08
1.34668e-05
2.93622e-08
1.34683e-05
3.40126e-08
1.34718e-05
3.24674e-08
1.34721e-05
4.61376e-08
1.34806e-05
3.05938e-08
1.34735e-05
7.45886e-08
1.35006e-05
6.37636e-09
1.34629e-05
1.41867e-07
1.35488e-05
-7.08255e-08
1.34162e-05
2.6113e-07
1.36439e-05
-1.74052e-07
1.33021e-05
2.48606e-07
1.37457e-05
1.03121e-07
1.31627e-05
-8.639e-07
1.3719e-05
2.20333e-06
1.32631e-05
-5.2491e-06
1.34862e-05
8.47397e-06
1.39985e-05
-1.3191e-05
1.32088e-05
1.60254e-05
1.3932e-05
-1.60881e-05
1.38175e-05
1.3976e-05
1.32398e-05
-1.02656e-05
1.3897e-05
8.94159e-06
1.40393e-05
-8.44829e-06
1.32802e-05
1.23599e-05
1.46417e-05
-1.33558e-05
1.36953e-05
1.55857e-05
1.43302e-05
-1.25386e-05
1.3814e-05
1.2672e-05
1.50113e-05
-1.01505e-05
1.35698e-05
1.63715e-05
1.51844e-05
-1.41394e-05
1.41638e-05
1.71596e-05
1.56116e-05
-9.87024e-06
1.40508e-05
1.87834e-05
1.64678e-05
-1.34146e-05
1.49548e-05
2.27419e-05
1.73932e-05
-9.55308e-06
1.55489e-05
2.58661e-05
1.84771e-05
-1.10946e-05
1.82856e-05
3.08372e-05
2.00026e-05
-4.5352e-06
2.28908e-05
3.45036e-05
2.53989e-05
7.0263e-06
3.41778e-05
3.05813e-05
3.30253e-05
-2.97144e-07
3.29378e-05
6.2522e-07
3.34681e-05
-1.93338e-06
3.37084e-05
-3.08044e-06
3.38226e-05
5.22129e-08
3.47051e-05
2.75032e-07
3.57927e-05
-3.2176e-06
3.54637e-05
-4.89375e-06
3.45931e-05
-4.89784e-06
3.47325e-05
-6.51722e-06
3.48402e-05
-1.14752e-05
3.48033e-05
-1.74313e-05
3.4764e-05
-2.06324e-05
3.44263e-05
-2.27438e-05
3.43198e-05
-2.32172e-05
3.34919e-05
-2.33443e-05
3.15388e-05
-2.27234e-05
2.91488e-05
-1.89723e-05
2.71674e-05
-1.39001e-05
2.5143e-05
-6.0262e-06
2.31442e-05
1.31193e-06
2.18413e-05
6.11567e-06
2.01916e-05
1.00257e-05
1.81264e-05
1.24995e-05
1.69833e-05
1.17751e-05
1.69677e-05
8.50342e-06
1.69359e-05
5.39136e-06
1.61674e-05
3.79099e-06
1.49743e-05
3.08885e-06
1.39698e-05
2.52078e-06
1.34098e-05
1.91996e-06
1.32063e-05
1.37877e-06
1.31909e-05
9.64087e-07
1.32446e-05
6.7827e-07
1.33083e-05
4.9153e-07
1.33602e-05
3.68814e-07
1.33959e-05
2.84406e-07
1.34182e-05
2.23333e-07
1.34313e-05
1.77621e-07
1.34386e-05
1.42833e-07
1.34428e-05
1.1603e-07
1.34455e-05
9.52228e-08
1.34475e-05
7.89695e-08
1.34491e-05
6.61271e-08
1.34507e-05
5.59493e-08
1.34521e-05
4.78222e-08
1.34536e-05
4.13766e-08
1.3455e-05
3.62876e-08
1.34563e-05
3.234e-08
1.34577e-05
2.93829e-08
1.34591e-05
2.7334e-08
1.34605e-05
2.60251e-08
1.3462e-05
2.56084e-08
1.34635e-05
2.55701e-08
1.34652e-05
2.69953e-08
1.34672e-05
2.7331e-08
1.3469e-05
3.22484e-08
1.34722e-05
2.92116e-08
1.34733e-05
4.51135e-08