/*--------------------------------*- C++ -*----------------------------------*\
| =========                 |                                                 |
| \\      /  F ield         | OpenFOAM: The Open Source CFD Toolbox           |
|  \\    /   O peration     | Version:  2.4.0                                 |
|   \\  /    A nd           | Web:      www.OpenFOAM.org                      |
|    \\/     M anipulation  |                                                 |
\*---------------------------------------------------------------------------*/
FoamFile
{
    version     2.0;
    format      ascii;
    class       surfaceScalarField;
    location    "0.165";
    object      phi_0;
}
// * * * * * * * * * * * * * * * * * * * * * * * * * * * * * * * * * * * * * //

dimensions      [0 3 -1 0 0 0 0];

internalField   nonuniform List<scalar> 
34880
(
5.48547e-06
7.01453e-06
3.1261e-06
2.35936e-06
2.47393e-06
6.52169e-07
2.21287e-06
2.61063e-07
2.08297e-06
1.299e-07
1.96556e-06
1.17405e-07
1.87998e-06
8.55844e-08
1.83292e-06
4.70574e-08
1.77614e-06
5.67781e-08
1.72803e-06
4.81179e-08
1.73337e-06
-5.34782e-09
1.68752e-06
4.58592e-08
1.65769e-06
2.98291e-08
1.68708e-06
-2.93945e-08
1.66216e-06
2.49217e-08
1.66637e-06
-4.20717e-09
1.70782e-06
-4.14551e-08
1.81399e-06
-1.06164e-07
1.687e-06
1.26988e-07
-1.47583e-06
3.16283e-06
1.01071e-05
9.40748e-06
7.83236e-06
4.63407e-06
6.70778e-06
1.77674e-06
6.05965e-06
9.09201e-07
5.65539e-06
5.34157e-07
5.34216e-06
4.30634e-07
5.11956e-06
3.08187e-07
4.9611e-06
2.05519e-07
4.80689e-06
2.10986e-07
4.70238e-06
1.52624e-07
4.65207e-06
4.49581e-08
4.54371e-06
1.5422e-07
4.50359e-06
6.99513e-08
4.48862e-06
-1.4424e-08
4.45054e-06
6.30038e-08
4.45469e-06
-8.3573e-09
4.50709e-06
-9.38554e-08
4.70542e-06
-3.04499e-07
4.70298e-06
1.29429e-07
-2.33612e-06
5.56327e-06
1.24211e-05
9.48637e-06
1.10082e-05
6.047e-06
9.97329e-06
2.81163e-06
9.2015e-06
1.68099e-06
8.6275e-06
1.10816e-06
8.18007e-06
8.7806e-07
7.85709e-06
6.31169e-07
7.61116e-06
4.51452e-07
7.38121e-06
4.4093e-07
7.23199e-06
3.01852e-07
7.12585e-06
1.51093e-07
6.97009e-06
3.09984e-07
6.92468e-06
1.15363e-07
6.85186e-06
5.83875e-08
6.80767e-06
1.072e-07
6.80455e-06
-5.23492e-09
6.84315e-06
-1.32455e-07
7.05474e-06
-5.16098e-07
7.17016e-06
1.40171e-08
-2.98638e-06
7.82042e-06
1.3407e-05
8.57936e-06
1.28982e-05
6.55583e-06
1.23139e-05
3.3959e-06
1.17169e-05
2.27799e-06
1.11422e-05
1.68285e-06
1.06444e-05
1.37586e-06
1.02756e-05
1e-06
9.97603e-06
7.50993e-07
9.69337e-06
7.23582e-07
9.51314e-06
4.82082e-07
9.36925e-06
2.94985e-07
9.16674e-06
5.12497e-07
9.12297e-06
1.59135e-07
9.00442e-06
1.76938e-07
8.93951e-06
1.72105e-07
8.93753e-06
-3.25656e-09
8.95339e-06
-1.48311e-07
9.13662e-06
-6.99329e-07
9.32715e-06
-1.76515e-07
-3.3247e-06
9.66547e-06
1.35832e-05
7.49617e-06
1.36787e-05
6.46031e-06
1.36072e-05
3.46737e-06
1.34007e-05
2.48455e-06
1.30287e-05
2.05484e-06
1.26052e-05
1.79938e-06
1.22756e-05
1.32958e-06
1.19816e-05
1.04495e-06
1.16854e-05
1.01986e-06
1.1497e-05
6.70482e-07
1.13469e-05
4.45026e-07
1.11086e-05
7.50839e-07
1.10705e-05
1.9718e-07
1.09339e-05
3.13571e-07
1.0837e-05
2.69022e-07
1.0843e-05
-9.27649e-09
1.08418e-05
-1.47103e-07
1.09876e-05
-8.45127e-07
1.11859e-05
-3.74824e-07
-3.27516e-06
1.11364e-05
1.34696e-05
6.52657e-06
1.37875e-05
6.14238e-06
1.3982e-05
3.2729e-06
1.41378e-05
2.32878e-06
1.4096e-05
2.09662e-06
1.38742e-05
2.02116e-06
1.36931e-05
1.51068e-06
1.34926e-05
1.24545e-06
1.32483e-05
1.26415e-06
1.30878e-05
8.31027e-07
1.2976e-05
5.56828e-07
1.27323e-05
9.94558e-07
1.2702e-05
2.27465e-07
1.25833e-05
4.32253e-07
1.24624e-05
3.89957e-07
1.24738e-05
-2.07446e-08
1.24748e-05
-1.48098e-07
1.25652e-05
-9.35501e-07
1.27942e-05
-6.03867e-07
-3.67625e-06
1.31953e-05
1.33373e-05
5.68929e-06
1.37491e-05
5.73054e-06
1.39323e-05
3.08976e-06
1.42013e-05
2.05972e-06
1.44037e-05
1.89421e-06
1.43832e-05
2.04174e-06
1.43888e-05
1.50507e-06
1.43534e-05
1.28081e-06
1.42421e-05
1.3754e-06
1.41559e-05
9.1728e-07
1.41392e-05
5.73559e-07
1.39458e-05
1.18788e-06
1.39339e-05
2.39435e-07
1.38671e-05
4.99054e-07
1.37542e-05
5.02797e-07
1.37727e-05
-3.92221e-08
1.37946e-05
-1.69985e-07
1.38235e-05
-9.6445e-07
1.4043e-05
-8.23317e-07
-3.1737e-06
1.35405e-05
1.32156e-05
4.97366e-06
1.37511e-05
5.1951e-06
1.38518e-05
2.98906e-06
1.40669e-05
1.84458e-06
1.43529e-05
1.60823e-06
1.44326e-05
1.96199e-06
1.45094e-05
1.42826e-06
1.45972e-05
1.19301e-06
1.46341e-05
1.33858e-06
1.46169e-05
9.3444e-07
1.47207e-05
4.69756e-07
1.46428e-05
1.2658e-06
1.46686e-05
2.13633e-07
1.46782e-05
4.89447e-07
1.46177e-05
5.63313e-07
1.46726e-05
-9.41302e-08
1.47128e-05
-2.1017e-07
1.47278e-05
-9.79452e-07
1.49115e-05
-1.00705e-06
-2.38939e-06
1.41272e-05
1.31145e-05
4.35917e-06
1.36682e-05
4.64134e-06
1.38194e-05
2.83792e-06
1.39545e-05
1.70949e-06
1.42211e-05
1.34166e-06
1.43674e-05
1.81564e-06
1.44332e-05
1.36247e-06
1.4549e-05
1.07719e-06
1.4682e-05
1.20555e-06
1.4673e-05
9.43527e-07
1.48221e-05
3.20605e-07
1.48634e-05
1.22448e-06
1.49148e-05
1.6221e-07
1.49792e-05
4.25048e-07
1.49924e-05
5.50147e-07
1.51056e-05
-2.07297e-07
1.51584e-05
-2.62948e-07
1.52197e-05
-1.04084e-06
1.54359e-05
-1.22322e-06
-2.91961e-06
1.59661e-05
1.30273e-05
3.83187e-06
1.35402e-05
4.12849e-06
1.37762e-05
2.60185e-06
1.39045e-05
1.58126e-06
1.4126e-05
1.12011e-06
1.43158e-05
1.6258e-06
1.43732e-05
1.30509e-06
1.44732e-05
9.77228e-07
1.46405e-05
1.03825e-06
1.46282e-05
9.55845e-07
1.47491e-05
1.99689e-07
1.48693e-05
1.10426e-06
1.49138e-05
1.17687e-07
1.49803e-05
3.58548e-07
1.5036e-05
4.94468e-07
1.51802e-05
-3.515e-07
1.52323e-05
-3.15044e-07
1.5336e-05
-1.14448e-06
1.55936e-05
-1.48083e-06
-3.43702e-06
1.6111e-05
1.29514e-05
3.38051e-06
1.34662e-05
3.61367e-06
1.36974e-05
2.37062e-06
1.38944e-05
1.38424e-06
1.41271e-05
8.87472e-07
1.42584e-05
1.49448e-06
1.43153e-05
1.24819e-06
1.44235e-05
8.68983e-07
1.45457e-05
9.16116e-07
1.45514e-05
9.50064e-07
1.46747e-05
7.64231e-08
1.48315e-05
9.47493e-07
1.48607e-05
8.84425e-08
1.49347e-05
2.84529e-07
1.49865e-05
4.42749e-07
1.51275e-05
-4.92498e-07
1.51865e-05
-3.74048e-07
1.53196e-05
-1.27761e-06
1.56184e-05
-1.77967e-06
-3.75215e-06
1.59336e-05
1.2963e-05
2.91748e-06
1.34562e-05
3.12047e-06
1.35884e-05
2.23848e-06
1.38548e-05
1.1178e-06
1.40663e-05
6.75966e-07
1.41182e-05
1.44265e-06
1.42322e-05
1.13411e-06
1.43696e-05
7.31678e-07
1.44567e-05
8.28925e-07
1.4502e-05
9.04757e-07
1.46104e-05
-3.19065e-08
1.47656e-05
7.92315e-07
1.47935e-05
6.0542e-08
1.48933e-05
1.84656e-07
1.4928e-05
4.08106e-07
1.50374e-05
-6.01919e-07
1.51232e-05
-4.59904e-07
1.52882e-05
-1.44255e-06
1.55709e-05
-2.06243e-06
-3.87819e-06
1.5697e-05
1.29933e-05
2.42413e-06
1.33999e-05
2.71389e-06
1.35146e-05
2.1238e-06
1.37721e-05
8.60306e-07
1.39111e-05
5.36973e-07
1.40036e-05
1.35015e-06
1.41941e-05
9.43597e-07
1.43259e-05
5.99838e-07
1.44322e-05
7.22708e-07
1.44905e-05
8.46422e-07
1.45178e-05
-5.92483e-08
1.46734e-05
6.36721e-07
1.47259e-05
8.02481e-09
1.48394e-05
7.12193e-08
1.48737e-05
3.73752e-07
1.49434e-05
-6.71621e-07
1.50604e-05
-5.76897e-07
1.524e-05
-1.62207e-06
1.54698e-05
-2.29233e-06
-3.86788e-06
1.54595e-05
1.29345e-05
1.98961e-06
1.32971e-05
2.35129e-06
1.35377e-05
1.88326e-06
1.37114e-05
6.86572e-07
1.38178e-05
4.30533e-07
1.40097e-05
1.15833e-06
1.4183e-05
7.70265e-07
1.428e-05
5.02798e-07
1.4404e-05
5.98781e-07
1.44479e-05
8.02472e-07
1.44321e-05
-4.34079e-08
1.45978e-05
4.70978e-07
1.46754e-05
-6.95813e-08
1.47907e-05
-4.40467e-08
1.48205e-05
3.43919e-07
1.48801e-05
-7.3119e-07
1.50238e-05
-7.20635e-07
1.51856e-05
-1.78381e-06
1.53498e-05
-2.45654e-06
-3.79626e-06
1.52781e-05
1.28461e-05
1.64351e-06
1.32566e-05
1.9408e-06
1.3562e-05
1.57787e-06
1.36818e-05
5.66795e-07
1.38233e-05
2.88949e-07
1.40086e-05
9.73074e-07
1.41163e-05
6.62586e-07
1.42216e-05
3.97442e-07
1.43413e-05
4.79147e-07
1.44068e-05
7.36905e-07
1.44084e-05
-4.49607e-08
1.45634e-05
3.15924e-07
1.46313e-05
-1.37434e-07
1.47437e-05
-1.56485e-07
1.47911e-05
2.96524e-07
1.48617e-05
-8.01738e-07
1.49923e-05
-8.51243e-07
1.51025e-05
-1.89406e-06
1.52592e-05
-2.61319e-06
-3.8399e-06
1.53028e-05
1.2823e-05
1.32053e-06
1.32831e-05
1.48064e-06
1.35443e-05
1.31668e-06
1.36691e-05
4.42019e-07
1.38224e-05
1.35679e-07
1.39232e-05
8.72241e-07
1.40313e-05
5.54492e-07
1.41915e-05
2.3727e-07
1.43007e-05
3.69874e-07
1.43888e-05
6.4881e-07
1.44154e-05
-7.14968e-08
1.45417e-05
1.8957e-07
1.45844e-05
-1.80128e-07
1.46922e-05
-2.64294e-07
1.48013e-05
1.87451e-07
1.4833e-05
-8.33417e-07
1.49455e-05
-9.63789e-07
1.5011e-05
-1.95948e-06
1.51754e-05
-2.77766e-06
-4.18762e-06
1.55231e-05
1.28328e-05
9.87757e-07
1.32539e-05
1.05947e-06
1.34988e-05
1.07184e-06
1.3682e-05
2.58765e-07
1.37711e-05
4.66589e-08
1.38497e-05
7.93619e-07
1.40278e-05
3.76384e-07
1.41847e-05
8.03941e-08
1.42642e-05
2.90305e-07
1.43724e-05
5.40653e-07
1.44149e-05
-1.14043e-07
1.45084e-05
9.61544e-08
1.45528e-05
-2.24601e-07
1.46498e-05
-3.61317e-07
1.47807e-05
5.6578e-08
1.47734e-05
-8.26061e-07
1.49114e-05
-1.10186e-06
1.49678e-05
-2.01587e-06
1.50287e-05
-2.83856e-06
-3.19496e-06
1.40361e-05
1.27971e-05
6.90662e-07
1.31655e-05
6.91019e-07
1.35043e-05
7.33068e-07
1.36921e-05
7.10169e-08
1.37157e-05
2.30107e-08
1.38648e-05
6.44487e-07
1.40574e-05
1.83795e-07
1.41433e-05
-5.43475e-09
1.42124e-05
2.21193e-07
1.437e-05
3.83027e-07
1.44091e-05
-1.53152e-07
1.44788e-05
2.64376e-08
1.45224e-05
-2.6821e-07
1.46259e-05
-4.64779e-07
1.47165e-05
-3.40467e-08
1.47604e-05
-8.69904e-07
1.49048e-05
-1.24631e-06
1.49395e-05
-2.05052e-06
1.50806e-05
-2.9797e-06
-3.76991e-06
1.56556e-05
1.27457e-05
4.44953e-07
1.31678e-05
2.68973e-07
1.35595e-05
3.41289e-07
1.36634e-05
-3.28614e-08
1.36954e-05
-8.9501e-09
1.38923e-05
4.47589e-07
1.403e-05
4.60261e-08
1.4086e-05
-6.14197e-08
1.41952e-05
1.11991e-07
1.43787e-05
1.99584e-07
1.4399e-05
-1.73524e-07
1.4453e-05
-2.74784e-08
1.45028e-05
-3.18056e-07
1.46047e-05
-5.66659e-07
1.4697e-05
-1.26347e-07
1.47761e-05
-9.49049e-07
1.48732e-05
-1.34335e-06
1.49243e-05
-2.10163e-06
1.5082e-05
-3.1374e-06
-4.21749e-06
1.55295e-05
1.27498e-05
1.95119e-07
1.32328e-05
-2.14032e-07
1.35504e-05
2.37095e-08
1.36122e-05
-9.46859e-08
1.37043e-05
-1.01058e-07
1.38859e-05
2.66045e-07
1.39859e-05
-5.39307e-08
1.40874e-05
-1.63e-07
1.42205e-05
-2.10452e-08
1.43713e-05
4.87677e-08
1.43765e-05
-1.78784e-07
1.44404e-05
-9.13377e-08
1.45018e-05
-3.79469e-07
1.46e-05
-6.64864e-07
1.47007e-05
-2.26986e-07
1.47627e-05
-1.01104e-06
1.48424e-05
-1.42306e-06
1.49162e-05
-2.1755e-06
1.50717e-05
-3.29291e-06
-4.55349e-06
1.54077e-05
1.27748e-05
-7.9646e-08
1.32225e-05
-6.61785e-07
1.3493e-05
-2.46754e-07
1.36011e-05
-2.02822e-07
1.37342e-05
-2.3416e-07
1.38799e-05
1.20323e-07
1.39865e-05
-1.60507e-07
1.41271e-05
-3.03594e-07
1.423e-05
-1.23963e-07
1.43467e-05
-6.78864e-08
1.4366e-05
-1.98107e-07
1.44396e-05
-1.6496e-07
1.45221e-05
-4.61944e-07
1.46005e-05
-7.43256e-07
1.4695e-05
-3.21467e-07
1.47326e-05
-1.0487e-06
1.48562e-05
-1.54663e-06
1.4913e-05
-2.23234e-06
1.49902e-05
-3.37005e-06
-4.95838e-06
1.53951e-05
1.2777e-05
-3.56644e-07
1.31995e-05
-1.08429e-06
1.34956e-05
-5.42812e-07
1.36351e-05
-3.42369e-07
1.37554e-05
-3.5442e-07
1.38719e-05
3.77564e-09
1.40078e-05
-2.96365e-07
1.41448e-05
-4.40623e-07
1.42069e-05
-1.861e-07
1.4332e-05
-1.92982e-07
1.43787e-05
-2.44727e-07
1.44577e-05
-2.43974e-07
1.45484e-05
-5.52699e-07
1.45929e-05
-7.87731e-07
1.46805e-05
-4.09022e-07
1.47404e-05
-1.10862e-06
1.48785e-05
-1.68476e-06
1.48989e-05
-2.25269e-06
1.48202e-05
-3.29139e-06
-3.97348e-06
1.38353e-05
1.27836e-05
-6.40227e-07
1.32178e-05
-1.51849e-06
1.35344e-05
-8.59382e-07
1.36594e-05
-4.67412e-07
1.37428e-05
-4.37836e-07
1.38727e-05
-1.26149e-07
1.40319e-05
-4.55519e-07
1.41451e-05
-5.53862e-07
1.41979e-05
-2.38836e-07
1.43532e-05
-3.48291e-07
1.43955e-05
-2.87021e-07
1.44871e-05
-3.35613e-07
1.45556e-05
-6.212e-07
1.45939e-05
-8.26022e-07
1.46664e-05
-4.81515e-07
1.47747e-05
-1.21691e-06
1.48804e-05
-1.79045e-06
1.48884e-05
-2.26073e-06
1.48895e-05
-3.29244e-06
-4.54206e-06
1.54581e-05
1.27994e-05
-9.39675e-07
1.32396e-05
-1.95869e-06
1.35627e-05
-1.18241e-06
1.36532e-05
-5.57894e-07
1.37414e-05
-5.26056e-07
1.39039e-05
-2.88674e-07
1.40533e-05
-6.04917e-07
1.41627e-05
-6.63225e-07
1.42256e-05
-3.01823e-07
1.4374e-05
-4.9666e-07
1.44137e-05
-3.26738e-07
1.45062e-05
-4.2808e-07
1.45617e-05
-6.76663e-07
1.46009e-05
-8.65236e-07
1.46809e-05
-5.61552e-07
1.48035e-05
-1.33949e-06
1.48634e-05
-1.8504e-06
1.49028e-05
-2.30009e-06
1.4949e-05
-3.33865e-06
-5.0315e-06
1.54385e-05
1.28215e-05
-1.26114e-06
1.32787e-05
-2.41588e-06
1.3585e-05
-1.48873e-06
1.36507e-05
-6.2357e-07
1.37747e-05
-6.50109e-07
1.39364e-05
-4.50417e-07
1.40753e-05
-7.43742e-07
1.41992e-05
-7.87136e-07
1.4251e-05
-3.53613e-07
1.43834e-05
-6.29096e-07
1.44375e-05
-3.80831e-07
1.45243e-05
-5.14897e-07
1.45867e-05
-7.39e-07
1.4626e-05
-9.04623e-07
1.47161e-05
-6.51622e-07
1.4826e-05
-1.44939e-06
1.48561e-05
-1.88053e-06
1.49212e-05
-2.36513e-06
1.50159e-05
-3.43343e-06
-5.34901e-06
1.53335e-05
1.28583e-05
-1.61939e-06
1.33181e-05
-2.87575e-06
1.35988e-05
-1.76936e-06
1.36705e-05
-6.95292e-07
1.38154e-05
-7.95029e-07
1.39677e-05
-6.02673e-07
1.41108e-05
-8.86892e-07
1.42318e-05
-9.08101e-07
1.42673e-05
-3.89165e-07
1.44092e-05
-7.71014e-07
1.44737e-05
-4.45303e-07
1.45548e-05
-5.95982e-07
1.46243e-05
-8.08499e-07
1.46655e-05
-9.45845e-07
1.47507e-05
-7.36796e-07
1.48359e-05
-1.53463e-06
1.48765e-05
-1.92114e-06
1.49306e-05
-2.41915e-06
1.50736e-05
-3.57649e-06
-5.62707e-06
1.53517e-05
1.28973e-05
-2.01665e-06
1.33551e-05
-3.33355e-06
1.36202e-05
-2.03456e-06
1.36987e-05
-7.73775e-07
1.38603e-05
-9.56638e-07
1.40107e-05
-7.5303e-07
1.41462e-05
-1.02236e-06
1.4259e-05
-1.02096e-06
1.43037e-05
-4.33825e-07
1.44555e-05
-9.22886e-07
1.45199e-05
-5.09666e-07
1.45941e-05
-6.70157e-07
1.46667e-05
-8.81149e-07
1.47079e-05
-9.86966e-07
1.47782e-05
-8.07096e-07
1.48514e-05
-1.60784e-06
1.49075e-05
-1.97731e-06
1.49641e-05
-2.47572e-06
1.50683e-05
-3.68068e-06
-4.50419e-06
1.39454e-05
1.29453e-05
-2.46191e-06
1.34056e-05
-3.79388e-06
1.36111e-05
-2.24005e-06
1.37309e-05
-8.93557e-07
1.39171e-05
-1.14285e-06
1.40515e-05
-8.87409e-07
1.41876e-05
-1.1585e-06
1.43016e-05
-1.13493e-06
1.43587e-05
-4.9095e-07
1.45092e-05
-1.07335e-06
1.4573e-05
-5.73476e-07
1.46354e-05
-7.32555e-07
1.47168e-05
-9.62548e-07
1.47512e-05
-1.02139e-06
1.4801e-05
-8.56872e-07
1.48935e-05
-1.70035e-06
1.49346e-05
-2.01846e-06
1.50342e-05
-2.57528e-06
1.51094e-05
-3.75584e-06
-4.81875e-06
1.54239e-05
1.30048e-05
-2.9667e-06
1.34538e-05
-4.24291e-06
1.36039e-05
-2.39013e-06
1.37755e-05
-1.06519e-06
1.39725e-05
-1.33981e-06
1.40983e-05
-1.01324e-06
1.42494e-05
-1.30955e-06
1.43505e-05
-1.23604e-06
1.44255e-05
-5.66011e-07
1.4567e-05
-1.21477e-06
1.46298e-05
-6.36345e-07
1.46816e-05
-7.84358e-07
1.47725e-05
-1.05339e-06
1.47876e-05
-1.03646e-06
1.48419e-05
-9.11261e-07
1.49438e-05
-1.80221e-06
1.49763e-05
-2.05099e-06
1.50771e-05
-2.67609e-06
1.51084e-05
-3.78708e-06
-5.08676e-06
1.53764e-05
1.3064e-05
-3.53069e-06
1.35026e-05
-4.68156e-06
1.36291e-05
-2.5166e-06
1.38312e-05
-1.26726e-06
1.40291e-05
-1.53777e-06
1.41644e-05
-1.14847e-06
1.4321e-05
-1.46621e-06
1.44084e-05
-1.32346e-06
1.45104e-05
-6.67936e-07
1.46262e-05
-1.33065e-06
1.46897e-05
-6.99837e-07
1.47313e-05
-8.25899e-07
1.48246e-05
-1.14676e-06
1.4828e-05
-1.03986e-06
1.49065e-05
-9.89683e-07
1.49922e-05
-1.88791e-06
1.50177e-05
-2.0765e-06
1.50766e-05
-2.73504e-06
1.50864e-05
-3.79685e-06
-5.30444e-06
1.53041e-05
1.31229e-05
-4.1536e-06
1.35558e-05
-5.11448e-06
1.36709e-05
-2.63166e-06
1.38974e-05
-1.4938e-06
1.4097e-05
-1.73729e-06
1.42567e-05
-1.3082e-06
1.44066e-05
-1.61616e-06
1.44845e-05
-1.40129e-06
1.46037e-05
-7.87203e-07
1.46799e-05
-1.40678e-06
1.47408e-05
-7.60743e-07
1.47876e-05
-8.72716e-07
1.48734e-05
-1.23256e-06
1.48817e-05
-1.04815e-06
1.49662e-05
-1.07423e-06
1.50049e-05
-1.92656e-06
1.49936e-05
-2.06528e-06
1.49757e-05
-2.71712e-06
1.48932e-05
-3.71432e-06
-5.39495e-06
1.49837e-05
1.31839e-05
-4.8375e-06
1.36142e-05
-5.54474e-06
1.3733e-05
-2.75046e-06
1.39847e-05
-1.74557e-06
1.41973e-05
-1.94985e-06
1.43801e-05
-1.49096e-06
1.44941e-05
-1.7302e-06
1.45595e-05
-1.46669e-06
1.46823e-05
-9.09978e-07
1.47073e-05
-1.43177e-06
1.47717e-05
-8.25162e-07
1.48226e-05
-9.23687e-07
1.48566e-05
-1.26651e-06
1.48533e-05
-1.04485e-06
1.48879e-05
-1.10884e-06
1.48282e-05
-1.86687e-06
1.47369e-05
-1.97396e-06
1.45923e-05
-2.57255e-06
1.43453e-05
-3.46726e-06
-5.27744e-06
1.42278e-05
1.32598e-05
-5.59731e-06
1.36731e-05
-5.95803e-06
1.38221e-05
-2.89951e-06
1.4109e-05
-2.03241e-06
1.43216e-05
-2.16245e-06
1.44871e-05
-1.65644e-06
1.4541e-05
-1.78414e-06
1.45777e-05
-1.50335e-06
1.4664e-05
-9.96272e-07
1.46111e-05
-1.37887e-06
1.46386e-05
-8.52671e-07
1.46259e-05
-9.10978e-07
1.45528e-05
-1.19342e-06
1.449e-05
-9.82074e-07
1.44266e-05
-1.04547e-06
1.42476e-05
-1.6878e-06
1.40603e-05
-1.78674e-06
1.37868e-05
-2.29905e-06
1.33736e-05
-3.05401e-06
-4.21441e-06
1.23106e-05
1.33594e-05
-6.4567e-06
1.36816e-05
-6.28023e-06
1.39435e-05
-3.16137e-06
1.4238e-05
-2.32697e-06
1.43717e-05
-2.29615e-06
1.44464e-05
-1.7311e-06
1.43863e-05
-1.72408e-06
1.43125e-05
-1.4295e-06
1.42786e-05
-9.6243e-07
1.41091e-05
-1.20935e-06
1.40386e-05
-7.82179e-07
1.39254e-05
-7.97796e-07
1.37519e-05
-1.01993e-06
1.36226e-05
-8.52749e-07
1.34748e-05
-8.97705e-07
1.32157e-05
-1.42861e-06
1.29555e-05
-1.52661e-06
1.26e-05
-1.94349e-06
1.21173e-05
-2.57137e-06
-3.75526e-06
1.16582e-05
1.34871e-05
-7.44376e-06
1.37542e-05
-6.54733e-06
1.40019e-05
-3.40916e-06
1.41568e-05
-2.48186e-06
1.4061e-05
-2.20035e-06
1.39233e-05
-1.59338e-06
1.3675e-05
-1.47581e-06
1.34438e-05
-1.19826e-06
1.32759e-05
-7.94522e-07
1.30182e-05
-9.51631e-07
1.28698e-05
-6.33806e-07
1.26941e-05
-6.22107e-07
1.24734e-05
-7.99234e-07
1.23058e-05
-6.85109e-07
1.21132e-05
-7.05083e-07
1.18162e-05
-1.13169e-06
1.15151e-05
-1.22547e-06
1.11175e-05
-1.54594e-06
1.05784e-05
-2.03226e-06
-2.86975e-06
9.69292e-06
1.3598e-05
-8.54175e-06
1.36616e-05
-6.61089e-06
1.36235e-05
-3.37113e-06
1.34087e-05
-2.26708e-06
1.29976e-05
-1.78919e-06
1.26395e-05
-1.2353e-06
1.22532e-05
-1.0895e-06
1.19328e-05
-8.77845e-07
1.17004e-05
-5.62148e-07
1.14192e-05
-6.70373e-07
1.12418e-05
-4.56417e-07
1.10483e-05
-4.28662e-07
1.08213e-05
-5.7222e-07
1.06403e-05
-5.04149e-07
1.04339e-05
-4.98633e-07
1.0129e-05
-8.26813e-07
9.81393e-06
-9.10371e-07
9.40013e-06
-1.13214e-06
8.85399e-06
-1.48611e-06
-2.09053e-06
8.07477e-06
1.34199e-05
-9.46169e-06
1.28895e-05
-6.0805e-06
1.23239e-05
-2.80551e-06
1.17199e-05
-1.66304e-06
1.11153e-05
-1.1846e-06
1.06676e-05
-7.87628e-07
1.0255e-05
-6.76843e-07
9.92892e-06
-5.51804e-07
9.69746e-06
-3.30693e-07
9.43856e-06
-4.11464e-07
9.2665e-06
-2.84365e-07
9.08787e-06
-2.50028e-07
8.87917e-06
-3.63522e-07
8.70376e-06
-3.28737e-07
8.50899e-06
-3.03864e-07
8.22014e-06
-5.3796e-07
7.91275e-06
-6.02986e-07
7.51506e-06
-7.34459e-07
6.99027e-06
-9.6132e-07
-1.39285e-06
6.2926e-06
1.24322e-05
-9.39387e-06
1.10037e-05
-4.65203e-06
9.97688e-06
-1.77867e-06
9.20368e-06
-8.89845e-07
8.60356e-06
-5.8448e-07
8.19544e-06
-3.79508e-07
7.84213e-06
-3.23533e-07
7.56588e-06
-2.75545e-07
7.3789e-06
-1.43717e-07
7.16958e-06
-2.02147e-07
7.02618e-06
-1.40964e-07
6.88543e-06
-1.09271e-07
6.7106e-06
-1.88698e-07
6.55681e-06
-1.74948e-07
6.39531e-06
-1.42362e-07
6.14266e-06
-2.85311e-07
5.86619e-06
-3.26519e-07
5.51592e-06
-3.8418e-07
5.05315e-06
-4.98552e-07
-7.82092e-07
4.44239e-06
1.01158e-05
-7.00962e-06
7.82952e-06
-2.3658e-06
6.70601e-06
-6.55156e-07
6.06479e-06
-2.48624e-07
5.63326e-06
-1.52954e-07
5.35253e-06
-9.87794e-08
5.1131e-06
-8.40965e-08
4.91895e-06
-8.13941e-08
4.80425e-06
-2.90229e-08
4.65988e-06
-5.77716e-08
4.56117e-06
-4.22571e-08
4.47379e-06
-2.18953e-08
4.34477e-06
-5.96725e-08
4.2285e-06
-5.86749e-08
4.12024e-06
-3.41113e-08
3.92615e-06
-9.12168e-08
3.70986e-06
-1.1023e-07
3.44496e-06
-1.19275e-07
3.09823e-06
-1.51828e-07
-2.92706e-07
2.60885e-06
5.49038e-06
3.12457e-06
2.46942e-06
2.22079e-06
2.06784e-06
1.96906e-06
1.88496e-06
1.80357e-06
1.77455e-06
1.71677e-06
1.67452e-06
1.65262e-06
1.59295e-06
1.53427e-06
1.50016e-06
1.40895e-06
1.29872e-06
1.17944e-06
1.02761e-06
7.34907e-07
3.55015e-06
-1.35774e-06
9.70428e-07
3.58372e-06
-1.23649e-06
1.20291e-06
3.65876e-06
-9.99033e-07
9.23993e-07
3.73435e-06
-1.14179e-06
1.0662e-06
3.93654e-06
8.85065e-08
-2.90688e-07
5.09109e-06
2.58499e-06
-3.73954e-06
6.50419e-06
1.13525e-06
-2.54835e-06
8.25393e-06
-6.94945e-07
-1.0548e-06
1.01528e-05
1.32587e-06
-3.2247e-06
1.18653e-05
3.25089e-06
-4.96341e-06
1.28115e-05
3.1229e-06
-4.06918e-06
1.30595e-05
1.81388e-06
-2.06182e-06
1.33249e-05
-1.78996e-07
-8.64577e-08
1.31127e-05
-2.26927e-06
2.48152e-06
1.32416e-05
-4.81258e-06
4.68371e-06
1.38642e-05
-6.93736e-06
6.31468e-06
1.44502e-05
-9.70912e-06
9.12322e-06
1.51177e-05
-1.20868e-05
1.14193e-05
1.56718e-05
-1.37995e-05
1.32453e-05
1.61124e-05
-1.51302e-05
1.46896e-05
1.62619e-05
-1.6073e-05
1.59235e-05
1.58877e-05
-1.70829e-05
1.74571e-05
1.51331e-05
-1.74541e-05
1.82087e-05
1.42779e-05
-1.6779e-05
1.76341e-05
1.34349e-05
-1.69388e-05
1.77818e-05
1.27525e-05
-1.62614e-05
1.69439e-05
1.19895e-05
-1.51973e-05
1.59603e-05
1.1479e-05
-1.48937e-05
1.54042e-05
1.0913e-05
-1.3289e-05
1.3855e-05
1.03165e-05
-1.30299e-05
1.36264e-05
1.00238e-05
-1.18393e-05
1.21321e-05
9.54351e-06
-1.03289e-05
1.08092e-05
9.00033e-06
-1.11892e-05
1.17324e-05
8.69176e-06
-1.05011e-05
1.08097e-05
8.39485e-06
-8.66499e-06
8.96191e-06
7.92562e-06
-1.00475e-05
1.05167e-05
7.62974e-06
-1.32182e-05
1.35141e-05
7.55945e-06
-1.19727e-05
1.2043e-05
7.76903e-06
-5.74007e-06
5.53049e-06
8.27491e-06
9.07848e-07
-1.41373e-06
8.4204e-06
7.21831e-06
-7.36379e-06
8.27388e-06
1.55387e-05
-1.53922e-05
8.26834e-06
2.44109e-05
-2.44054e-05
8.2426e-06
3.37119e-05
-3.36861e-05
8.1723e-06
3.83253e-05
-3.8255e-05
8.19332e-06
3.70432e-05
-3.70642e-05
8.26204e-06
3.38749e-05
-3.39436e-05
8.61303e-06
2.68751e-05
-2.72261e-05
8.53355e-06
2.07636e-05
-2.06841e-05
8.12164e-06
1.73724e-05
-1.69605e-05
8.02023e-06
1.34584e-05
-1.3357e-05
8.08283e-06
7.71287e-06
-7.77547e-06
8.10859e-06
1.73494e-07
-1.99253e-07
8.21018e-06
-8.35391e-06
8.25233e-06
8.46949e-06
-1.48659e-05
1.46066e-05
8.60152e-06
-1.87444e-05
1.86123e-05
8.42429e-06
-2.18106e-05
2.19878e-05
8.23147e-06
-2.27352e-05
2.2928e-05
8.06009e-06
-2.06004e-05
2.07717e-05
7.71662e-06
-1.90787e-05
1.94222e-05
7.29392e-06
-1.94345e-05
1.98572e-05
7.00746e-06
-1.89579e-05
1.92443e-05
6.82536e-06
-1.60624e-05
1.62445e-05
6.53411e-06
-1.38638e-05
1.4155e-05
6.09013e-06
-1.498e-05
1.5424e-05
5.7027e-06
-1.95313e-05
1.99188e-05
5.60044e-06
-2.47793e-05
2.48815e-05
5.5909e-06
-2.80937e-05
2.81033e-05
5.67466e-06
-2.88699e-05
2.87861e-05
5.85898e-06
-2.8942e-05
2.87577e-05
5.95808e-06
-2.84013e-05
2.83022e-05
6.13561e-06
-2.73035e-05
2.71259e-05
6.48373e-06
-2.61126e-05
2.57645e-05
6.81159e-06
-2.42982e-05
2.39704e-05
6.94716e-06
-2.19438e-05
2.18082e-05
6.96501e-06
-1.99767e-05
1.99588e-05
7.00482e-06
-1.8388e-05
1.83482e-05
7.20931e-06
-1.61833e-05
1.59788e-05
7.59903e-06
-1.2657e-05
1.22673e-05
7.97267e-06
-7.90763e-06
7.53399e-06
8.20132e-06
-2.65362e-06
2.42497e-06
8.37071e-06
1.74167e-06
-1.91106e-06
8.65631e-06
5.58763e-06
-5.87323e-06
9.01361e-06
8.2227e-06
-8.58e-06
9.17606e-06
1.05646e-05
-1.0727e-05
9.16348e-06
1.42427e-05
-1.42301e-05
9.19127e-06
1.86353e-05
-1.86631e-05
9.29077e-06
2.15618e-05
-2.16613e-05
9.43899e-06
2.12995e-05
-2.14477e-05
9.36864e-06
1.96822e-05
-1.96119e-05
9.43161e-06
1.83914e-05
-1.84544e-05
9.45598e-06
1.98008e-05
-1.98252e-05
9.47169e-06
2.16504e-05
-2.16661e-05
9.3941e-06
2.23739e-05
-2.22963e-05
9.59233e-06
2.16281e-05
-2.18263e-05
9.69741e-06
2.21575e-05
-2.22626e-05
9.64005e-06
2.03411e-05
-2.02838e-05
9.75747e-06
1.78379e-05
-1.79553e-05
1.00462e-05
1.59792e-05
-1.6268e-05
1.03271e-05
1.60834e-05
-1.63642e-05
1.02941e-05
1.56192e-05
-1.55862e-05
1.00096e-05
1.50909e-05
-1.48064e-05
9.65666e-06
1.25959e-05
-1.2243e-05
9.47629e-06
1.14086e-05
-1.12283e-05
9.45497e-06
1.02933e-05
-1.0272e-05
9.0729e-06
9.27297e-06
-8.8909e-06
8.55563e-06
8.48628e-06
-7.96901e-06
7.92811e-06
7.23439e-06
-6.60687e-06
7.60559e-06
5.7017e-06
-5.37918e-06
7.567e-06
4.7389e-06
-4.70032e-06
7.73145e-06
5.3177e-06
-5.48215e-06
8.15524e-06
5.85662e-06
-6.28041e-06
8.53541e-06
5.45215e-06
-5.83232e-06
8.83308e-06
5.93155e-06
-6.22922e-06
9.50684e-06
5.74555e-06
-6.41932e-06
1.04181e-05
4.04219e-06
-4.95344e-06
1.09783e-05
3.38277e-06
-3.94295e-06
1.14549e-05
4.29152e-06
-4.76813e-06
1.21474e-05
3.01707e-06
-3.70955e-06
1.24968e-05
8.78149e-07
-1.22758e-06
1.23133e-05
-1.00524e-06
1.18876e-06
1.1921e-05
-2.3493e-06
2.74159e-06
1.17144e-05
-3.5214e-06
3.72797e-06
1.16768e-05
-6.24912e-06
6.28668e-06
1.16179e-05
-9.41296e-06
9.47192e-06
1.14802e-05
-1.19172e-05
1.20548e-05
1.11761e-05
-1.23199e-05
1.26241e-05
1.07888e-05
-1.16792e-05
1.20665e-05
1.02684e-05
-1.1212e-05
1.17323e-05
9.6088e-06
-1.0589e-05
1.12487e-05
8.89687e-06
-9.92351e-06
1.06354e-05
8.18629e-06
-9.37342e-06
1.0084e-05
7.54029e-06
-8.96356e-06
9.60956e-06
6.92677e-06
-8.68027e-06
9.29379e-06
6.51232e-06
-1.00743e-05
1.04888e-05
6.46463e-06
-1.32972e-05
1.33449e-05
6.27637e-06
-1.66241e-05
1.68123e-05
6.05224e-06
-1.99425e-05
2.01666e-05
6.04125e-06
-2.33937e-05
2.34047e-05
6.24282e-06
-2.61968e-05
2.59952e-05
6.32905e-06
-2.77595e-05
2.76733e-05
6.28767e-06
-2.76809e-05
2.77223e-05
6.32248e-06
-2.54864e-05
2.54516e-05
6.39473e-06
-2.35338e-05
2.34615e-05
6.52753e-06
-2.17357e-05
2.16029e-05
6.83452e-06
-1.90559e-05
1.87489e-05
7.04491e-06
-1.58284e-05
1.5618e-05
7.22641e-06
-1.33209e-05
1.31394e-05
7.56474e-06
-1.11116e-05
1.07733e-05
8.12061e-06
-8.24068e-06
7.68482e-06
8.69475e-06
-4.49148e-06
3.91734e-06
9.18928e-06
-2.2891e-07
-2.65617e-07
9.60552e-06
4.128e-06
-4.54425e-06
9.95239e-06
8.08674e-06
-8.43361e-06
1.01304e-05
1.18852e-05
-1.20633e-05
1.02453e-05
1.50916e-05
-1.52065e-05
1.03963e-05
1.6867e-05
-1.70181e-05
1.04966e-05
1.80671e-05
-1.81673e-05
1.0611e-05
2.00661e-05
-2.01806e-05
1.08093e-05
2.11136e-05
-2.13119e-05
1.07644e-05
2.13792e-05
-2.13343e-05
1.04391e-05
2.25945e-05
-2.22693e-05
1.015e-05
2.23491e-05
-2.206e-05
9.78663e-06
1.99921e-05
-1.96288e-05
9.24571e-06
1.88885e-05
-1.83476e-05
8.81218e-06
1.91694e-05
-1.87358e-05
8.61833e-06
1.69374e-05
-1.67435e-05
8.4115e-06
1.30167e-05
-1.28099e-05
7.89294e-06
1.22428e-05
-1.17242e-05
7.40206e-06
1.49846e-05
-1.44938e-05
7.02577e-06
1.85193e-05
-1.8143e-05
6.71721e-06
2.06996e-05
-2.0391e-05
6.46882e-06
2.13139e-05
-2.10655e-05
6.13342e-06
2.13379e-05
-2.10025e-05
5.67757e-06
2.10773e-05
-2.06215e-05
5.2415e-06
2.01777e-05
-1.97416e-05
5.04282e-06
1.92762e-05
-1.90775e-05
4.59054e-06
1.91817e-05
-1.87294e-05
4.65507e-06
1.68886e-05
-1.69531e-05
2.5181e-06
2.05499e-05
-1.8413e-05
1.68636e-06
1.35726e-05
-1.27409e-05
3.54513e-06
1.56444e-05
-1.75032e-05
5.89882e-06
7.61876e-06
-9.97245e-06
4.80223e-06
1.05416e-05
-9.44505e-06
6.11415e-06
-1.10271e-06
-2.09219e-07
5.65163e-06
5.45431e-06
-4.99178e-06
6.2334e-06
-3.74267e-06
3.1609e-06
5.74523e-06
2.29662e-06
-1.80845e-06
6.92759e-06
-5.6605e-06
4.47814e-06
6.94613e-06
-1.63548e-07
1.45008e-07
7.99828e-06
-5.84855e-06
4.7964e-06
7.97443e-06
-1.13135e-06
1.15521e-06
9.283e-06
-5.64664e-06
4.33807e-06
9.25063e-06
-5.50794e-07
5.83158e-07
1.01109e-05
-4.49125e-06
3.63101e-06
9.53603e-06
-1.31004e-07
7.0585e-07
1.09462e-05
-4.33291e-06
2.92272e-06
9.87784e-06
2.87542e-06
-1.80704e-06
9.47708e-06
1.22097e-06
-8.20212e-07
1.1741e-05
-1.0116e-05
7.85209e-06
5.65573e-06
-1.4502e-06
5.77462e-06
-1.35538e-06
5.89314e-06
-1.11756e-06
5.92151e-06
-1.17015e-06
6.41097e-06
-4.00958e-07
7.47445e-06
1.52151e-06
7.89204e-06
7.17659e-07
8.20103e-06
-1.00393e-06
9.44095e-06
8.59456e-08
1.11921e-05
1.49975e-06
1.21732e-05
2.14175e-06
1.25509e-05
1.43619e-06
1.30795e-05
-7.07578e-07
1.34814e-05
-2.67117e-06
1.4263e-05
-5.59414e-06
1.53605e-05
-8.03492e-06
1.59986e-05
-1.03472e-05
1.65267e-05
-1.26149e-05
1.67784e-05
-1.40512e-05
1.6794e-05
-1.51458e-05
1.64917e-05
-1.57707e-05
1.58319e-05
-1.6423e-05
1.50123e-05
-1.66346e-05
1.42783e-05
-1.6045e-05
1.35357e-05
-1.61961e-05
1.28919e-05
-1.56176e-05
1.21733e-05
-1.44788e-05
1.16609e-05
-1.43814e-05
1.11077e-05
-1.27357e-05
1.04419e-05
-1.23641e-05
1.01356e-05
-1.1533e-05
9.72194e-06
-9.91529e-06
9.17439e-06
-1.06416e-05
8.83231e-06
-1.0159e-05
8.51401e-06
-8.34669e-06
8.03351e-06
-9.56701e-06
7.61322e-06
-1.27979e-05
7.54495e-06
-1.19044e-05
7.82753e-06
-6.02265e-06
8.32223e-06
4.13154e-07
8.39839e-06
7.14215e-06
8.30971e-06
1.56274e-05
8.32759e-06
2.4393e-05
8.36077e-06
3.36787e-05
8.25123e-06
3.84349e-05
8.33404e-06
3.69604e-05
8.6067e-06
3.36023e-05
8.90499e-06
2.65768e-05
8.76728e-06
2.09013e-05
8.41824e-06
1.77214e-05
8.40299e-06
1.34736e-05
8.57159e-06
7.54426e-06
8.6895e-06
5.55839e-08
8.79006e-06
-8.45447e-06
9.01532e-06
-1.50912e-05
9.11475e-06
-1.88438e-05
8.88066e-06
-2.15765e-05
8.59132e-06
-2.24459e-05
8.35443e-06
-2.03635e-05
7.98465e-06
-1.87089e-05
7.55876e-06
-1.90086e-05
7.23656e-06
-1.86357e-05
7.01406e-06
-1.58399e-05
6.66086e-06
-1.35106e-05
6.1373e-06
-1.44564e-05
5.62985e-06
-1.90239e-05
5.43331e-06
-2.45827e-05
5.35625e-06
-2.80167e-05
5.42043e-06
-2.89341e-05
5.50178e-06
-2.90233e-05
5.5082e-06
-2.84077e-05
5.68244e-06
-2.74777e-05
6.02613e-06
-2.64563e-05
6.36176e-06
-2.46339e-05
6.48362e-06
-2.20657e-05
6.44859e-06
-1.99416e-05
6.36895e-06
-1.83084e-05
6.41292e-06
-1.62273e-05
6.71065e-06
-1.29547e-05
7.12772e-06
-8.3247e-06
7.52355e-06
-3.04944e-06
7.84975e-06
1.41547e-06
8.18915e-06
5.24823e-06
8.45264e-06
7.9592e-06
8.47958e-06
1.05376e-05
8.41578e-06
1.43065e-05
8.46029e-06
1.85908e-05
8.61623e-06
2.14059e-05
8.87068e-06
2.1045e-05
8.92471e-06
1.96282e-05
8.97046e-06
1.83457e-05
8.98342e-06
1.97878e-05
9.03233e-06
2.16015e-05
8.93489e-06
2.24714e-05
9.12102e-06
2.1442e-05
9.35187e-06
2.19267e-05
9.31782e-06
2.03752e-05
9.36715e-06
1.77885e-05
9.69682e-06
1.56496e-05
1.00701e-05
1.57101e-05
1.01541e-05
1.55351e-05
1.00065e-05
1.52385e-05
9.65664e-06