/*--------------------------------*- C++ -*----------------------------------*\
| =========                 |                                                 |
| \\      /  F ield         | OpenFOAM: The Open Source CFD Toolbox           |
|  \\    /   O peration     | Version:  2.4.0                                 |
|   \\  /    A nd           | Web:      www.OpenFOAM.org                      |
|    \\/     M anipulation  |                                                 |
\*---------------------------------------------------------------------------*/
FoamFile
{
    version     2.0;
    format      ascii;
    class       volVectorField;
    location    "0.165";
    object      UMean;
}
// * * * * * * * * * * * * * * * * * * * * * * * * * * * * * * * * * * * * * //

dimensions      [0 1 -1 0 0 0 0];

internalField   nonuniform List<vector> 
17600
(
(5.34389 0.307666 0)
(3.03492 0.060745 0)
(2.25801 -0.00143523 0)
(1.91478 -0.00351998 0)
(1.77917 -0.00133659 0)
(1.68691 -0.000155517 0)
(1.62421 -3.2429e-05 0)
(1.56466 1.15278e-06 0)
(1.53279 -0.000173855 0)
(1.49475 6.35873e-06 0)
(1.48093 -0.000134781 0)
(1.45041 0.000162701 0)
(1.44427 -0.000146823 0)
(1.41777 0.000119732 0)
(1.41877 -0.000264517 0)
(1.40212 -0.000118917 0)
(1.41158 -0.000526736 0)
(1.42212 -0.000486624 0)
(1.4592 -0.00143131 0)
(1.44134 -0.0280837 0)
(8.59432 0.865359 0)
(6.98834 0.379453 0)
(5.87963 0.119734 0)
(5.13533 0.0496782 0)
(4.74778 0.0269494 0)
(4.47906 0.0192772 0)
(4.30649 0.0147847 0)
(4.14122 0.0113588 0)
(4.05206 0.00823595 0)
(3.94097 0.00670168 0)
(3.90134 0.00506231 0)
(3.81271 0.00514738 0)
(3.79749 0.00349936 0)
(3.71973 0.00396097 0)
(3.72188 0.00137164 0)
(3.6668 0.00200087 0)
(3.68239 -0.00254135 0)
(3.68825 -0.00386917 0)
(3.71961 -0.0057719 0)
(3.87225 -0.0887712 0)
(9.83787 1.01304 0)
(9.35806 0.569618 0)
(8.52489 0.236522 0)
(7.70147 0.126784 0)
(7.17731 0.0784457 0)
(6.78328 0.0544766 0)
(6.53296 0.0409977 0)
(6.28484 0.0313999 0)
(6.15325 0.0237205 0)
(5.97928 0.0189077 0)
(5.92045 0.0148923 0)
(5.77996 0.0137448 0)
(5.76019 0.0104247 0)
(5.63592 0.01039 0)
(5.64131 0.00534032 0)
(5.54715 0.0055382 0)
(5.57158 -0.00322692 0)
(5.54502 -0.00552115 0)
(5.60239 -0.0210452 0)
(5.72919 -0.112989 0)
(10.1382 0.938879 0)
(10.557 0.658175 0)
(10.2814 0.322886 0)
(9.66662 0.204423 0)
(9.17508 0.14186 0)
(8.73794 0.101544 0)
(8.45937 0.0767493 0)
(8.15579 0.0588355 0)
(8.00288 0.0453179 0)
(7.77891 0.0360197 0)
(7.71049 0.0288005 0)
(7.52557 0.0260215 0)
(7.50615 0.0201091 0)
(7.34126 0.020172 0)
(7.3521 0.0108254 0)
(7.22027 0.0127572 0)
(7.25798 -0.0042433 0)
(7.18258 -0.00305737 0)
(7.28214 -0.0412614 0)
(7.30868 -0.115867 0)
(10.0587 0.798748 0)
(10.897 0.658934 0)
(11.134 0.348191 0)
(10.8823 0.248908 0)
(10.6021 0.195253 0)
(10.2396 0.149024 0)
(10.0112 0.115939 0)
(9.70015 0.0899842 0)
(9.5609 0.0706832 0)
(9.31036 0.0562295 0)
(9.24949 0.04584 0)
(9.03417 0.0402353 0)
(9.02359 0.0325888 0)
(8.82821 0.0305818 0)
(8.84957 0.0200683 0)
(8.68686 0.0177905 0)
(8.73539 0.00311216 0)
(8.63103 -0.00968291 0)
(8.72109 -0.0363195 0)
(8.73332 -0.158766 0)
(9.98039 0.685766 0)
(10.8293 0.626285 0)
(11.3082 0.325858 0)
(11.3357 0.244731 0)
(11.3333 0.21541 0)
(11.147 0.179189 0)
(11.0646 0.146827 0)
(10.8197 0.117914 0)
(10.7462 0.0949993 0)
(10.5099 0.0770545 0)
(10.4812 0.0631241 0)
(10.2625 0.0561862 0)
(10.2703 0.0445414 0)
(10.0673 0.0440832 0)
(10.099 0.0263523 0)
(9.92731 0.0298751 0)
(9.97988 -0.00036406 0)
(9.8636 0.00429982 0)
(9.94333 -0.0597598 0)
(9.92944 -0.148695 0)
(9.97202 0.597131 0)
(10.699 0.593692 0)
(11.2332 0.29718 0)
(11.3395 0.214942 0)
(11.4997 0.202464 0)
(11.4526 0.181717 0)
(11.541 0.157107 0)
(11.4127 0.13091 0)
(11.4579 0.109491 0)
(11.2886 0.09119 0)
(11.3298 0.0771198 0)
(11.1453 0.0687209 0)
(11.194 0.0570957 0)
(11.0076 0.0537901 0)
(11.0655 0.0378409 0)
(10.8974 0.0336364 0)
(10.9701 0.0104042 0)
(10.8422 -0.00239278 0)
(10.9347 -0.054655 0)
(10.8805 -0.147373 0)
(9.99127 0.518564 0)
(10.5929 0.558026 0)
(11.1387 0.279584 0)
(11.2451 0.188288 0)
(11.4516 0.18045 0)
(11.4371 0.170057 0)
(11.6069 0.151222 0)
(11.5552 0.128577 0)
(11.6949 0.108701 0)
(11.6104 0.0937356 0)
(11.7296 0.0798928 0)
(11.6204 0.0748609 0)
(11.7214 0.0607897 0)
(11.596 0.0621042 0)
(11.6846 0.0399329 0)
(11.5605 0.0431783 0)
(11.649 0.00657246 0)
(11.5462 0.00771818 0)
(11.6434 -0.0703431 0)
(11.569 -0.115075 0)
(10.0109 0.448433 0)
(10.5127 0.514577 0)
(11.0549 0.266389 0)
(11.1716 0.165747 0)
(11.3796 0.158766 0)
(11.3732 0.156163 0)
(11.5411 0.140548 0)
(11.5227 0.120342 0)
(11.6733 0.100165 0)
(11.6466 0.0875211 0)
(11.7841 0.0740406 0)
(11.7501 0.0716402 0)
(11.8701 0.057714 0)
(11.826 0.0608059 0)
(11.9295 0.0386776 0)
(11.8824 0.042374 0)
(11.9756 0.00455788 0)
(11.9373 0.00611368 0)
(12.0247 -0.0815837 0)
(11.9745 -0.114201 0)
(10.012 0.385653 0)
(10.4625 0.467825 0)
(10.9664 0.254458 0)
(11.1292 0.144869 0)
(11.3053 0.138072 0)
(11.3356 0.14223 0)
(11.4599 0.129369 0)
(11.4841 0.111547 0)
(11.5929 0.0903659 0)
(11.6172 0.0794576 0)
(11.7155 0.0655835 0)
(11.7417 0.0648797 0)
(11.8274 0.0510036 0)
(11.851 0.0544896 0)
(11.9267 0.0337122 0)
(11.9519 0.0342968 0)
(12.0204 0.00217012 0)
(12.0512 -0.0125313 0)
(12.1103 -0.0797087 0)
(12.0975 -0.176542 0)
(9.99332 0.327886 0)
(10.4312 0.421893 0)
(10.8794 0.242039 0)
(11.0977 0.126355 0)
(11.2382 0.117717 0)
(11.3074 0.129379 0)
(11.391 0.117349 0)
(11.4505 0.103932 0)
(11.5238 0.0802696 0)
(11.5818 0.072697 0)
(11.649 0.0564318 0)
(11.7056 0.0593884 0)
(11.7649 0.0427404 0)
(11.8155 0.0491331 0)
(11.8713 0.025455 0)
(11.9204 0.0285845 0)
(11.9753 -0.00782051 0)
(12.025 -0.0217035 0)
(12.0717 -0.0978229 0)
(12.0567 -0.210401 0)
(9.97943 0.277327 0)
(10.3947 0.374797 0)
(10.8104 0.229788 0)
(11.0548 0.107804 0)
(11.1899 0.0996654 0)
(11.2688 0.114852 0)
(11.3433 0.106425 0)
(11.4071 0.094222 0)
(11.4764 0.0721021 0)
(11.5372 0.0640221 0)
(11.6037 0.0500249 0)
(11.6597 0.0516313 0)
(11.7203 0.0380542 0)
(11.7679 0.0405058 0)
(11.8264 0.0216376 0)
(11.8707 0.0169081 0)
(11.9294 -0.0119248 0)
(11.9713 -0.0397068 0)
(12.0182 -0.110193 0)
(11.984 -0.234328 0)
(9.97818 0.232321 0)
(10.3542 0.328471 0)
(10.7561 0.213026 0)
(11.0073 0.0920597 0)
(11.1521 0.0821868 0)
(11.2293 0.100745 0)
(11.3047 0.0941291 0)
(11.3641 0.0845452 0)
(11.4366 0.0629513 0)
(11.4945 0.0560393 0)
(11.5641 0.0427351 0)
(11.6173 0.0447103 0)
(11.6809 0.0319662 0)
(11.7252 0.0334605 0)
(11.7859 0.0157243 0)
(11.8268 0.00846736 0)
(11.8863 -0.0195854 0)
(11.9241 -0.0536641 0)
(11.967 -0.123256 0)
(11.9204 -0.251174 0)
(9.97723 0.192647 0)
(10.3231 0.282814 0)
(10.7071 0.190866 0)
(10.9681 0.0785795 0)
(11.116 0.0681173 0)
(11.1995 0.0860119 0)
(11.2661 0.0830038 0)
(11.3303 0.0734299 0)
(11.3966 0.055284 0)
(11.4615 0.0470121 0)
(11.5245 0.0369988 0)
(11.5853 0.0365628 0)
(11.6416 0.0273944 0)
(11.6937 0.02493 0)
(11.7457 0.0109262 0)
(11.7947 -0.00144235 0)
(11.8443 -0.0271541 0)
(11.8887 -0.0663117 0)
(11.9168 -0.135954 0)
(11.8727 -0.263493 0)
(9.97357 0.155748 0)
(10.3005 0.239548 0)
(10.665 0.162863 0)
(10.9358 0.0680838 0)
(11.0862 0.0546529 0)
(11.1753 0.072872 0)
(11.2345 0.070324 0)
(11.3028 0.0633132 0)
(11.3644 0.0460903 0)
(11.4347 0.0397114 0)
(11.494 0.0296811 0)
(11.5592 0.0301821 0)
(11.6113 0.0206264 0)
(11.6677 0.0185447 0)
(11.7151 0.00380464 0)
(11.7679 -0.00919319 0)
(11.8115 -0.036037 0)
(11.8579 -0.077615 0)
(11.8761 -0.146667 0)
(11.8321 -0.276756 0)
(9.97481 0.123122 0)
(10.2779 0.195252 0)
(10.6344 0.134215 0)
(10.9051 0.056462 0)
(11.0666 0.043307 0)
(11.1511 0.058282 0)
(11.2145 0.0585603 0)
(11.2768 0.0509948 0)
(11.3438 0.0384537 0)
(11.4091 0.0304289 0)
(11.4748 0.0245529 0)
(11.5337 0.0214504 0)
(11.592 0.0163717 0)
(11.6418 0.00908908 0)
(11.6952 -0.00025771 0)
(11.7405 -0.0206359 0)
(11.789 -0.0409537 0)
(11.8262 -0.0927633 0)
(11.8458 -0.150653 0)
(11.7907 -0.291485 0)
(9.97872 0.0932493 0)
(10.2578 0.151239 0)
(10.6113 0.104813 0)
(10.88 0.0449294 0)
(11.0512 0.0323493 0)
(11.1317 0.044611 0)
(11.1989 0.0456044 0)
(11.2553 0.0395379 0)
(11.3267 0.0294889 0)
(11.3881 0.0229119 0)
(11.4582 0.0176753 0)
(11.5128 0.0151797 0)
(11.5747 0.00956668 0)
(11.6203 0.00332701 0)
(11.6768 -0.00833517 0)
(11.7174 -0.0258898 0)
(11.7683 -0.052888 0)
(11.7987 -0.0973007 0)
(11.8181 -0.166145 0)
(11.7523 -0.276111 0)
(9.97798 0.0646689 0)
(10.2463 0.108176 0)
(10.5913 0.0746757 0)
(10.8642 0.0333952 0)
(11.0355 0.021913 0)
(11.1208 0.0317776 0)
(11.1827 0.0322229 0)
(11.2417 0.0284334 0)
(11.309 0.0204673 0)
(11.3749 0.0156603 0)
(11.4406 0.0109589 0)
(11.4995 0.00866106 0)
(11.5566 0.00289995 0)
(11.6067 -0.00327558 0)
(11.6576 -0.0156254 0)
(11.7024 -0.0326734 0)
(11.7468 -0.0625227 0)
(11.7794 -0.103565 0)
(11.7913 -0.179011 0)
(11.7263 -0.262489 0)
(9.97559 0.0391242 0)
(10.2407 0.0635845 0)
(10.5771 0.0459734 0)
(10.854 0.0192568 0)
(11.0244 0.0139454 0)
(11.1144 0.0173558 0)
(11.171 0.0205048 0)
(11.2334 0.0152255 0)
(11.2969 0.0131186 0)
(11.367 0.00650461 0)
(11.4286 0.00622785 0)
(11.4915 6.3896e-05 0)
(11.5444 -0.00154265 0)
(11.5984 -0.0123994 0)
(11.6443 -0.0199624 0)
(11.6928 -0.0433177 0)
(11.7308 -0.0668631 0)
(11.7661 -0.116139 0)
(11.7702 -0.181056 0)
(11.7061 -0.277779 0)
(9.97662 0.0124756 0)
(10.2361 0.0214537 0)
(10.5715 0.014953 0)
(10.8469 0.00685963 0)
(11.0215 0.00397166 0)
(11.1092 0.00609707 0)
(11.1678 0.00561197 0)
(11.2278 0.00521505 0)
(11.294 0.00217514 0)
(11.3611 0.00129045 0)
(11.4257 -0.00265267 0)
(11.4858 -0.00380794 0)
(11.5414 -0.0108724 0)
(11.5921 -0.0159085 0)
(11.6403 -0.0300065 0)
(11.6848 -0.047233 0)
(11.7245 -0.0776347 0)
(11.7547 -0.121543 0)
(11.7585 -0.187957 0)
(11.6888 -0.295326 0)
(9.97816 -0.0118573 0)
(10.2345 -0.0229067 0)
(10.5727 -0.0138376 0)
(10.8459 -0.00856723 0)
(11.0234 -0.00296835 0)
(11.1079 -0.00826448 0)
(11.1697 -0.00595433 0)
(11.2269 -0.00857963 0)
(11.2957 -0.00464303 0)
(11.3598 -0.00850867 0)
(11.4275 -0.00653743 0)
(11.4845 -0.0134683 0)
(11.5429 -0.0139735 0)
(11.5901 -0.0265535 0)
(11.6405 -0.0323603 0)
(11.6812 -0.0596041 0)
(11.7227 -0.0793341 0)
(11.7477 -0.136075 0)
(11.7507 -0.184495 0)
(11.6766 -0.314787 0)
(9.97789 -0.0381072 0)
(10.2386 -0.0654571 0)
(10.579 -0.0443875 0)
(10.8518 -0.0216418 0)
(11.0279 -0.0122173 0)
(11.1117 -0.0201947 0)
(11.1744 -0.0200718 0)
(11.2315 -0.01943 0)
(11.3004 -0.0145607 0)
(11.3643 -0.0146879 0)
(11.4321 -0.0144701 0)
(11.4885 -0.0182392 0)
(11.5468 -0.0226669 0)
(11.5934 -0.0303718 0)
(11.6433 -0.0425583 0)
(11.683 -0.0621757 0)
(11.7233 -0.0923404 0)
(11.746 -0.13536 0)
(11.7459 -0.199866 0)
(11.6682 -0.28365 0)
(9.97697 -0.0644501 0)
(10.2476 -0.109097 0)
(10.5908 -0.0739293 0)
(10.8641 -0.0348001 0)
(11.0356 -0.0212998 0)
(11.1206 -0.0333222 0)
(11.1826 -0.0331946 0)
(11.2414 -0.0311661 0)
(11.3089 -0.0234955 0)
(11.374 -0.0220226 0)
(11.44 -0.0211391 0)
(11.4975 -0.0243137 0)
(11.5541 -0.0296359 0)
(11.6015 -0.0358558 0)
(11.6496 -0.0506943 0)
(11.6896 -0.0667053 0)
(11.7272 -0.102845 0)
(11.7491 -0.13659 0)
(11.7475 -0.213124 0)
(11.6697 -0.252837 0)
(9.9761 -0.0921012 0)
(10.2606 -0.153318 0)
(10.6092 -0.102944 0)
(10.8818 -0.0475586 0)
(11.0482 -0.0306443 0)
(11.1339 -0.0476013 0)
(11.1955 -0.04504 0)
(11.2562 -0.0440461 0)
(11.3225 -0.0307933 0)
(11.3883 -0.0314231 0)
(11.4526 -0.0253931 0)
(11.5111 -0.0336132 0)
(11.566 -0.0326475 0)
(11.6143 -0.0463068 0)
(11.6605 -0.0523683 0)
(11.7007 -0.079152 0)
(11.7359 -0.102838 0)
(11.7573 -0.151642 0)
(11.7543 -0.207352 0)
(11.6735 -0.270815 0)
(9.97527 -0.122946 0)
(10.278 -0.196257 0)
(10.6343 -0.133363 0)
(10.9051 -0.0578378 0)
(11.0658 -0.0427999 0)
(11.1513 -0.0599417 0)
(11.2134 -0.0591947 0)
(11.276 -0.0541696 0)
(11.3413 -0.0409892 0)
(11.4073 -0.0376418 0)
(11.4706 -0.0334353 0)
(11.5294 -0.0385739 0)
(11.5833 -0.0406001 0)
(11.6319 -0.05084 0)
(11.6767 -0.0606012 0)
(11.7166 -0.0838232 0)
(11.7498 -0.111015 0)
(11.7708 -0.157612 0)
(11.766 -0.212071 0)
(11.6832 -0.282978 0)
(9.97497 -0.155031 0)
(10.2996 -0.24103 0)
(10.6667 -0.161587 0)
(10.934 -0.0697589 0)
(11.0883 -0.0537517 0)
(11.173 -0.0747108 0)
(11.2369 -0.070803 0)
(11.3005 -0.0664931 0)
(11.3657 -0.0486124 0)
(11.4314 -0.0467443 0)
(11.4941 -0.0386856 0)
(11.5524 -0.0465603 0)
(11.6062 -0.0453271 0)
(11.654 -0.0583866 0)
(11.6984 -0.0656173 0)
(11.7369 -0.0910384 0)
(11.7694 -0.11671 0)
(11.7888 -0.164984 0)
(11.7834 -0.218339 0)
(11.6992 -0.288342 0)
(9.975 -0.192138 0)
(10.3261 -0.284253 0)
(10.7064 -0.189563 0)
(10.9688 -0.0803833 0)
(11.1157 -0.0670737 0)
(11.1999 -0.0880634 0)
(11.2658 -0.0832584 0)
(11.3305 -0.0770111 0)
(11.3958 -0.0573067 0)
(11.4608 -0.0547548 0)
(11.5228 -0.0449743 0)
(11.5806 -0.0536512 0)
(11.6343 -0.0505486 0)
(11.6814 -0.0653883 0)
(11.7255 -0.0705922 0)
(11.7624 -0.0980007 0)
(11.7946 -0.122124 0)
(11.8118 -0.172056 0)
(11.8069 -0.226522 0)
(11.7217 -0.288077 0)
(9.9782 -0.232089 0)
(10.357 -0.329523 0)
(10.7543 -0.212159 0)
(11.0092 -0.0933193 0)
(11.1496 -0.0817638 0)
(11.2321 -0.102086 0)
(11.301 -0.0952133 0)
(11.3665 -0.0873737 0)
(11.4316 -0.0658865 0)
(11.4963 -0.0630458 0)
(11.557 -0.0513537 0)
(11.615 -0.0608085 0)
(11.6674 -0.0556511 0)
(11.7149 -0.0723687 0)
(11.7573 -0.0751114 0)
(11.7944 -0.105113 0)
(11.8243 -0.126325 0)
(11.8411 -0.180217 0)
(11.8353 -0.232828 0)
(11.7519 -0.292428 0)
(9.99043 -0.277134 0)
(10.3871 -0.375935 0)
(10.8155 -0.228624 0)
(11.0487 -0.109143 0)
(11.1938 -0.0989866 0)
(11.2642 -0.116282 0)
(11.3459 -0.107353 0)
(11.4029 -0.0970806 0)
(11.4762 -0.0748942 0)
(11.5329 -0.0711923 0)
(11.5993 -0.0582862 0)
(11.651 -0.0676969 0)
(11.7083 -0.0610744 0)
(11.7508 -0.0790383 0)
(11.7963 -0.0795748 0)
(11.8297 -0.112051 0)
(11.8602 -0.129564 0)
(11.8744 -0.188986 0)
(11.8681 -0.236499 0)
(11.7872 -0.306132 0)
(10.0102 -0.328217 0)
(10.4143 -0.422247 0)
(10.8928 -0.24143 0)
(11.0813 -0.126977 0)
(11.2522 -0.117862 0)
(11.291 -0.129966 0)
(11.4053 -0.119346 0)
(11.4342 -0.10566 0)
(11.5352 -0.084217 0)
(11.565 -0.0786683 0)
(11.656 -0.0658046 0)
(11.6835 -0.0738339 0)
(11.7634 -0.0670955 0)
(11.784 -0.0848578 0)
(11.8491 -0.0844036 0)
(11.8623 -0.117962 0)
(11.9067 -0.132511 0)
(11.9026 -0.19625 0)
(11.9006 -0.239163 0)
(11.8058 -0.322675 0)
(10.0224 -0.385481 0)
(10.4487 -0.468477 0)
(10.9795 -0.253588 0)
(11.1139 -0.145965 0)
(11.321 -0.137964 0)
(11.3179 -0.143116 0)
(11.4778 -0.131272 0)
(11.4646 -0.113419 0)
(11.6092 -0.0942074 0)
(11.5954 -0.0855813 0)
(11.7289 -0.0744312 0)
(11.7128 -0.0792842 0)
(11.833 -0.0744165 0)
(11.8087 -0.0895515 0)
(11.9094 -0.0902119 0)
(11.8737 -0.122022 0)
(11.9432 -0.135089 0)
(11.8824 -0.200541 0)
(11.8827 -0.238028 0)
(11.722 -0.337322 0)
(10.0136 -0.448346 0)
(10.5073 -0.515014 0)
(11.0615 -0.265857 0)
(11.1651 -0.166613 0)
(11.3881 -0.158837 0)
(11.3641 -0.156726 0)
(11.5518 -0.142639 0)
(11.5106 -0.12178 0)
(11.6828 -0.104145 0)
(11.6313 -0.0931352 0)
(11.7899 -0.0829179 0)
(11.7262 -0.0849859 0)
(11.8654 -0.0809482 0)
(11.7815 -0.0934223 0)
(11.8923 -0.0938469 0)
(11.7822 -0.123482 0)
(11.8488 -0.132993 0)
(11.6949 -0.199731 0)
(11.6693 -0.225555 0)
(11.396 -0.343601 0)
(9.99187 -0.518226 0)
(10.5916 -0.558607 0)
(11.1413 -0.279108 0)
(11.2435 -0.189071 0)
(11.4544 -0.180501 0)
(11.4338 -0.170529 0)
(11.6102 -0.153229 0)
(11.549 -0.129777 0)
(11.6966 -0.112739 0)
(11.5998 -0.0985984 0)
(11.7247 -0.0887803 0)
(11.5983 -0.0865823 0)
(11.6988 -0.0837208 0)
(11.542 -0.0907107 0)
(11.6136 -0.0933365 0)
(11.4245 -0.114815 0)
(11.4508 -0.128203 0)
(11.2125 -0.181332 0)
(11.1347 -0.214445 0)
(10.7797 -0.306889 0)
(9.97216 -0.596907 0)
(10.699 -0.59421 0)
(11.2339 -0.296795 0)
(11.3394 -0.215665 0)
(11.4997 -0.202458 0)
(11.4518 -0.182306 0)
(11.5403 -0.158711 0)
(11.4089 -0.132327 0)
(11.4546 -0.112771 0)
(11.2781 -0.096021 0)
(11.3165 -0.0845855 0)
(11.1191 -0.0801072 0)
(11.1552 -0.0763513 0)
(10.9382 -0.0811049 0)
(10.9648 -0.0828608 0)
(10.7206 -0.101003 0)
(10.7145 -0.112705 0)
(10.4171 -0.158785 0)
(10.3096 -0.188347 0)
(9.89407 -0.26101 0)
(9.98072 -0.685604 0)
(10.8294 -0.626636 0)
(11.3084 -0.325645 0)
(11.3358 -0.245297 0)
(11.3324 -0.215525 0)
(11.1466 -0.179667 0)
(11.0619 -0.148257 0)
(10.8158 -0.119083 0)
(10.74 -0.0980002 0)
(10.4971 -0.0809424 0)
(10.4629 -0.0700007 0)
(10.23 -0.0653319 0)
(10.2215 -0.0622216 0)
(9.98245 -0.0658827 0)
(9.97933 -0.0678389 0)
(9.71509 -0.0827184 0)
(9.68614 -0.093281 0)
(9.36273 -0.13138 0)
(9.2341 -0.154814 0)
(8.78425 -0.215289 0)
(10.0592 -0.798627 0)
(10.8968 -0.659202 0)
(11.1343 -0.348089 0)
(10.882 -0.249335 0)
(10.6008 -0.195367 0)
(10.239 -0.149424 0)
(10.0073 -0.117034 0)
(9.69619 -0.0910355 0)
(9.5522 -0.0730025 0)
(9.29667 -0.0595446 0)
(9.22683 -0.0511328 0)
(8.99858 -0.0480579 0)
(8.96655 -0.0460077 0)
(8.73588 -0.0492975 0)
(8.71369 -0.0512286 0)
(8.45621 -0.0629396 0)
(8.41008 -0.0722752 0)
(8.08783 -0.100087 0)
(7.94261 -0.122972 0)
(7.49762 -0.152527 0)
(10.1386 -0.938806 0)
(10.5568 -0.658352 0)
(10.2816 -0.322844 0)
(9.66608 -0.204703 0)
(9.17364 -0.14197 0)
(8.73711 -0.101825 0)
(8.45525 -0.0775789 0)
(8.15147 -0.059619 0)
(7.99307 -0.047037 0)
(7.7647 -0.0384104 0)
(7.68607 -0.0328491 0)
(7.48818 -0.031512 0)
(7.44641 -0.0303139 0)
(7.24489 -0.0332613 0)
(7.21121 -0.034701 0)
(6.9808 -0.0435732 0)
(6.92358 -0.0503149 0)
(6.62344 -0.0700533 0)
(6.47764 -0.0869203 0)
(6.04357 -0.10265 0)
(9.83818 -1.01299 0)
(9.3579 -0.569732 0)
(8.52496 -0.236508 0)
(7.7008 -0.126949 0)
(7.17604 -0.0785267 0)
(6.7823 -0.0546446 0)
(6.52916 -0.0415515 0)
(6.28024 -0.0318939 0)
(6.14397 -0.0247982 0)
(5.96515 -0.0204429 0)
(5.89692 -0.0173897 0)
(5.74369 -0.0173508 0)
(5.70267 -0.0167148 0)
(5.54372 -0.0190666 0)
(5.50573 -0.0198221 0)
(5.31837 -0.0258181 0)
(5.25655 -0.0296963 0)
(5.00126 -0.0420969 0)
(4.8648 -0.0524293 0)
(4.46961 -0.0614858 0)
(8.59452 -0.865341 0)
(6.98823 -0.379511 0)
(5.87957 -0.119729 0)
(5.13474 -0.0497496 0)
(4.74682 -0.027002 0)
(4.47797 -0.0193479 0)
(4.30343 -0.0150628 0)
(4.13702 -0.0115864 0)
(4.04459 -0.00874671 0)
(3.92887 -0.00742948 0)
(3.88197 -0.00627307 0)
(3.78226 -0.00679241 0)
(3.74978 -0.00650488 0)
(3.64324 -0.00795411 0)
(3.60885 -0.00813297 0)
(3.47865 -0.011306 0)
(3.42218 -0.012756 0)
(3.23669 -0.018875 0)
(3.12109 -0.0231489 0)
(2.81817 -0.0283146 0)
(5.34397 -0.30766 0)
(3.03488 -0.0607576 0)
(2.25791 0.00144073 0)
(1.91446 0.00351087 0)
(1.77865 0.00132759 0)
(1.68626 0.000158308 0)
(1.62264 -1.4829e-05 0)
(1.56227 -2.09593e-05 0)
(1.5289 0.000117933 0)
(1.48826 -8.44406e-05 0)
(1.47075 2.66891e-06 0)
(1.43429 -0.000323714 0)
(1.41917 -0.000184183 0)
(1.37768 -0.000567184 0)
(1.359 -0.000368229 0)
(1.30519 -0.00101849 0)
(1.27324 -0.000837394 0)
(1.19187 -0.00188117 0)
(1.12763 -0.00213624 0)
(0.992606 0.00239583 0)
(2.11801 -0.183078 0)
(2.61142 -0.0922038 0)
(3.15561 -0.0930882 0)
(3.67391 -0.124712 0)
(4.159 -0.180354 0)
(4.65193 -0.26115 0)
(5.13095 -0.337571 0)
(5.62812 -0.472351 0)
(6.11714 -0.600418 0)
(6.51757 -0.733703 0)
(6.89757 -0.875122 0)
(7.1488 -1.01988 0)
(7.39665 -1.13166 0)
(7.57957 -1.19369 0)
(7.77404 -1.22902 0)
(7.93274 -1.25708 0)
(8.09781 -1.31931 0)
(8.21829 -1.41402 0)
(8.30461 -1.51896 0)
(8.40994 -1.62008 0)
(8.47366 -1.70831 0)
(8.55184 -1.78276 0)
(8.6783 -1.8577 0)
(8.777 -1.93513 0)
(8.89572 -2.0312 0)
(8.97615 -2.12332 0)
(9.03041 -2.19267 0)
(9.07204 -2.24568 0)
(9.08658 -2.27743 0)
(9.09656 -2.3083 0)
(9.09394 -2.33053 0)
(9.10913 -2.3556 0)
(9.1074 -2.37707 0)
(9.0799 -2.39948 0)
(9.03306 -2.4229 0)
(8.9582 -2.45224 0)
(8.87093 -2.47208 0)
(8.80402 -2.4746 0)
(8.7856 -2.4661 0)
(8.79938 -2.4567 0)
(8.80794 -2.45801 0)
(8.79976 -2.45685 0)
(8.77866 -2.46315 0)
(8.75212 -2.48359 0)
(8.73143 -2.49381 0)
(8.71444 -2.50487 0)
(8.69401 -2.50533 0)
(8.66921 -2.50188 0)
(8.57823 -2.45522 0)
(8.46091 -2.38085 0)
(8.36633 -2.31454 0)
(8.26902 -2.22074 0)
(8.17713 -2.1225 0)
(8.10236 -2.02361 0)
(8.0327 -1.90971 0)
(7.96307 -1.79947 0)
(7.91964 -1.6967 0)
(7.85499 -1.57678 0)
(7.80349 -1.45194 0)
(7.72213 -1.33087 0)
(7.63318 -1.17996 0)
(7.51777 -1.01925 0)
(7.4064 -0.87042 0)
(7.31327 -0.73745 0)
(7.21167 -0.619703 0)
(7.11496 -0.509218 0)
(7.02179 -0.399506 0)
(6.94575 -0.290727 0)
(6.86336 -0.191197 0)
(6.78878 -0.0858379 0)
(6.73269 0.0199936 0)
(6.67607 0.114497 0)
(6.64294 0.197014 0)
(6.60802 0.269164 0)
(6.57815 0.334166 0)
(6.56441 0.418587 0)
(6.54342 0.503666 0)
(6.53045 0.585291 0)
(6.50228 0.669376 0)
(6.50756 0.747062 0)
(6.48174 0.813383 0)
(6.46809 0.862931 0)
(6.46537 0.906048 0)
(6.45358 0.927446 0)
(6.44901 0.930504 0)
(6.42968 0.92623 0)
(6.39491 0.924638 0)
(6.36473 0.915655 0)
(6.32391 0.883832 0)
(6.31041 0.867268 0)
(6.26521 0.841932 0)
(6.26829 0.817619 0)
(6.26177 0.786051 0)
(6.25388 0.769052 0)
(6.26435 0.726076 0)
(6.26719 0.694871 0)
(6.29615 0.65395 0)
(6.28739 0.628403 0)
(6.35118 0.582579 0)
(6.34007 0.546274 0)
(6.39185 0.487155 0)
(6.35889 0.465418 0)
(6.41361 0.39847 0)
(6.38653 0.387361 0)
(6.44457 0.323449 0)
(6.38161 0.329555 0)
(6.4602 0.262642 0)
(6.38634 0.278512 0)
(6.50766 0.227234 0)
(6.41392 0.260101 0)
(6.5402 0.199088 0)
(6.42979 0.21363 0)
(6.55282 0.145242 0)
(6.42826 0.165039 0)
(6.5646 0.0775299 0)
(6.39374 0.0945651 0)
(6.56141 0.00555685 0)
(6.33716 0.0268892 0)
(6.50885 -0.0582834 0)
(6.28869 -0.0140665 0)
(6.42658 -0.0898193 0)
(6.24943 -0.022243 0)
(6.3412 -0.0974419 0)
(6.21209 0.00669527 0)
(6.28439 -0.0774103 0)
(6.17057 0.0483615 0)
(6.24991 -0.062129 0)
(6.11942 0.079341 0)
(6.20267 -0.0378527 0)
(6.0878 0.120909 0)
(6.15222 -0.0018025 0)
(6.12492 0.166593 0)
(6.12459 0.0356946 0)
(6.18716 0.199378 0)
(6.12951 0.0681861 0)
(6.27491 0.231071 0)
(6.14008 0.101907 0)
(6.3628 0.264522 0)
(6.15088 0.157593 0)
(6.42099 0.315506 0)
(6.19982 0.225975 0)
(6.43653 0.391115 0)
(6.27825 0.297316 0)
(6.45756 0.457466 0)
(6.32867 0.368522 0)
(6.50191 0.498871 0)
(6.36859 0.436534 0)
(6.52295 0.534811 0)
(6.42923 0.491108 0)
(6.53542 0.561672 0)
(6.47891 0.530113 0)
(6.55676 0.577593 0)
(6.51568 0.552136 0)
(6.56761 0.58016 0)
(6.53423 0.553478 0)
(6.56271 0.56173 0)
(6.53637 0.528914 0)
(6.54886 0.532854 0)
(6.52471 0.496399 0)
(6.5227 0.504205 0)
(6.50275 0.464741 0)
(6.4922 0.476529 0)
(6.47316 0.429617 0)
(6.43781 0.446758 0)
(6.42643 0.405564 0)
(6.35987 0.43031 0)
(6.37321 0.38353 0)
(6.28031 0.420711 0)
(6.32375 0.380527 0)
(6.20806 0.440324 0)
(6.26643 0.409734 0)
(6.15044 0.48597 0)
(6.22019 0.456751 0)
(6.11317 0.552396 0)
(6.17857 0.520456 0)
(6.08633 0.639055 0)
(6.15993 0.599963 0)
(6.07344 0.748498 0)
(6.16819 0.709528 0)
(6.05485 0.891431 0)
(6.20737 0.861221 0)
(6.03354 1.06077 0)
(6.2523 1.04584 0)
(6.0492 1.27437 0)
(6.25842 1.2797 0)
(6.05222 1.54945 0)
(6.24644 1.57488 0)
(6.05958 1.88473 0)
(6.21336 1.94151 0)
(6.04468 2.28597 0)
(6.16015 2.40246 0)
(5.9838 2.78429 0)
(6.05282 3.0104 0)
(5.79493 3.45477 0)
(5.89918 3.8028 0)
(5.72082 4.37749 0)
(5.70008 4.9391 0)
(5.29304 6.01303 0)
(5.827 6.9118 0)
(3.25368 10.1279 0)
(4.06577 -0.218535 0)
(4.24736 -0.212902 0)
(4.5442 -0.258272 0)
(4.89951 -0.308433 0)
(5.27039 -0.36356 0)
(5.66382 -0.444648 0)
(6.01453 -0.525675 0)
(6.36648 -0.647427 0)
(6.70178 -0.772342 0)
(6.98302 -0.894268 0)
(7.28926 -1.02194 0)
(7.52641 -1.14013 0)
(7.71916 -1.23882 0)
(7.90012 -1.29158 0)
(8.0907 -1.32121 0)
(8.27695 -1.34141 0)
(8.44224 -1.37737 0)
(8.56663 -1.45338 0)
(8.65584 -1.54956 0)
(8.7404 -1.65286 0)
(8.80297 -1.73905 0)
(8.89871 -1.81661 0)
(9.02191 -1.89734 0)
(9.13561 -1.97512 0)
(9.22479 -2.06054 0)
(9.28003 -2.14498 0)
(9.30528 -2.21145 0)
(9.33262 -2.26199 0)
(9.35563 -2.28931 0)
(9.37084 -2.31234 0)
(9.36146 -2.33021 0)
(9.36298 -2.35234 0)
(9.34634 -2.36833 0)
(9.31045 -2.38362 0)
(9.25596 -2.39329 0)
(9.17605 -2.4123 0)
(9.08951 -2.43592 0)
(9.01943 -2.45411 0)
(8.99101 -2.46167 0)
(8.99313 -2.45816 0)
(8.97295 -2.45611 0)
(8.94045 -2.44698 0)
(8.89821 -2.44892 0)
(8.85867 -2.46809 0)
(8.82698 -2.48246 0)
(8.78765 -2.49496 0)
(8.75249 -2.48955 0)
(8.6959 -2.47024 0)
(8.57076 -2.4069 0)
(8.44197 -2.33405 0)
(8.33614 -2.27002 0)
(8.22501 -2.18083 0)
(8.12744 -2.09108 0)
(8.04322 -1.99159 0)
(7.96339 -1.87846 0)
(7.89027 -1.7739 0)
(7.83929 -1.67339 0)
(7.76261 -1.54985 0)
(7.69786 -1.42085 0)
(7.60041 -1.29128 0)
(7.50301 -1.13302 0)
(7.38267 -0.975149 0)
(7.27873 -0.828693 0)
(7.19273 -0.697034 0)
(7.09828 -0.580296 0)
(7.00739 -0.471504 0)
(6.91489 -0.362629 0)
(6.83786 -0.256117 0)
(6.75478 -0.15733 0)
(6.67789 -0.0555638 0)
(6.6203 0.0439381 0)
(6.56562 0.132993 0)
(6.53399 0.21001 0)
(6.50177 0.281157 0)
(6.47072 0.344396 0)
(6.45375 0.427672 0)
(6.43356 0.51424 0)
(6.42096 0.593213 0)
(6.38962 0.674926 0)
(6.39189 0.752759 0)
(6.36787 0.821438 0)
(6.34848 0.868452 0)
(6.34733 0.907081 0)
(6.34207 0.929885 0)
(6.33941 0.935956 0)
(6.32763 0.936575 0)
(6.29148 0.938382 0)
(6.26575 0.930476 0)
(6.22933 0.896055 0)
(6.21401 0.882414 0)
(6.17395 0.848238 0)
(6.17446 0.820622 0)
(6.16664 0.786939 0)
(6.1639 0.769412 0)
(6.17458 0.722315 0)
(6.18247 0.690554 0)
(6.21054 0.648005 0)
(6.21144 0.61973 0)
(6.27685 0.567033 0)
(6.28027 0.53929 0)
(6.33332 0.480614 0)
(6.30843 0.463275 0)
(6.37028 0.39032 0)
(6.3429 0.382903 0)
(6.41506 0.322745 0)
(6.34653 0.33156 0)
(6.43969 0.259409 0)
(6.34463 0.274903 0)
(6.46996 0.220967 0)
(6.35899 0.257559 0)
(6.49422 0.19133 0)
(6.37625 0.216603 0)
(6.51247 0.142128 0)
(6.37079 0.166644 0)
(6.54075 0.0796048 0)
(6.34172 0.101064 0)
(6.54163 0.0150998 0)
(6.28982 0.0389025 0)
(6.48706 -0.0456313 0)
(6.24457 0.00123184 0)
(6.40204 -0.0774818 0)
(6.20726 -0.00902533 0)
(6.32414 -0.0824506 0)
(6.15762 0.0141757 0)
(6.2752 -0.0657367 0)
(6.11136 0.0525503 0)
(6.24244 -0.0502465 0)
(6.05497 0.0863838 0)
(6.19247 -0.0262801 0)
(6.00744 0.124494 0)
(6.14477 0.00124558 0)
(6.02985 0.159148 0)
(6.12817 0.0364924 0)
(6.08221 0.184552 0)
(6.1466 0.0633287 0)
(6.15824 0.216953 0)
(6.17176 0.0953653 0)
(6.24787 0.255456 0)
(6.17976 0.150794 0)
(6.32666 0.304026 0)
(6.20656 0.220588 0)
(6.36099 0.374076 0)
(6.27948 0.288943 0)
(6.37254 0.448897 0)
(6.34469 0.356471 0)
(6.41478 0.498386 0)
(6.39219 0.425569 0)
(6.45431 0.528126 0)
(6.45445 0.479353 0)
(6.46633 0.557439 0)
(6.50761 0.519149 0)
(6.49285 0.577261 0)
(6.54093 0.542809 0)
(6.52025 0.582544 0)
(6.56176 0.544692 0)
(6.54374 0.567061 0)
(6.55996 0.52118 0)
(6.56054 0.543352 0)
(6.54053 0.491048 0)
(6.56446 0.517788 0)
(6.51956 0.456435 0)
(6.5566 0.4952 0)
(6.48263 0.424577 0)
(6.52303 0.472586 0)
(6.43771 0.401728 0)
(6.4739 0.45863 0)
(6.39361 0.37935 0)
(6.41763 0.44881 0)
(6.35334 0.376449 0)
(6.35307 0.468229 0)
(6.30563 0.404596 0)
(6.29492 0.506206 0)
(6.28882 0.453302 0)
(6.24717 0.567855 0)
(6.28742 0.519743 0)
(6.19915 0.645876 0)
(6.31881 0.601552 0)
(6.15646 0.750536 0)
(6.36854 0.711522 0)
(6.11854 0.894064 0)
(6.42056 0.854803 0)
(6.11903 1.06971 0)
(6.42872 1.02598 0)
(6.15295 1.29643 0)
(6.41612 1.25868 0)
(6.16539 1.5728 0)
(6.40406 1.55934 0)
(6.15968 1.8983 0)
(6.40919 1.93112 0)
(6.14452 2.30527 0)
(6.39346 2.3878 0)
(6.12674 2.81256 0)
(6.394 2.97099 0)
(6.13099 3.48731 0)
(6.22985 3.80478 0)
(5.963 4.48956 0)
(6.11884 4.98182 0)
(5.55707 6.25226 0)
(7.14422 6.71412 0)
(4.66074 10.923 0)
(5.90092 -0.244468 0)
(5.9849 -0.282363 0)
(6.16425 -0.34804 0)
(6.39307 -0.421779 0)
(6.64233 -0.492803 0)
(6.90342 -0.574306 0)
(7.14382 -0.653103 0)
(7.35405 -0.759268 0)
(7.57187 -0.878817 0)
(7.74733 -0.99648 0)
(7.93884 -1.12017 0)
(8.09702 -1.22188 0)
(8.20997 -1.30944 0)
(8.32398 -1.3668 0)
(8.45597 -1.40449 0)
(8.61893 -1.42625 0)
(8.76632 -1.45372 0)
(8.92226 -1.50416 0)
(9.0374 -1.58419 0)
(9.11622 -1.67864 0)
(9.19172 -1.76577 0)
(9.28327 -1.84686 0)
(9.3728 -1.93574 0)
(9.46528 -2.01599 0)
(9.52414 -2.091 0)
(9.57358 -2.16243 0)
(9.58137 -2.22257 0)
(9.5934 -2.27178 0)
(9.60155 -2.29981 0)
(9.61235 -2.31414 0)
(9.59291 -2.32686 0)
(9.5784 -2.34532 0)
(9.54382 -2.35533 0)
(9.49818 -2.36498 0)
(9.44332 -2.36489 0)
(9.37271 -2.37646 0)
(9.30576 -2.40141 0)
(9.24185 -2.43078 0)
(9.19733 -2.44962 0)
(9.17178 -2.44938 0)
(9.12314 -2.44257 0)
(9.06621 -2.4269 0)
(9.00265 -2.42753 0)
(8.95158 -2.44609 0)
(8.90756 -2.46409 0)
(8.8454 -2.47328 0)
(8.78807 -2.45877 0)
(8.693 -2.4254 0)
(8.54557 -2.35199 0)
(8.41346 -2.28446 0)
(8.29234 -2.22039 0)
(8.16988 -2.13711 0)
(8.06929 -2.05599 0)
(7.97296 -1.95584 0)
(7.88487 -1.84621 0)
(7.80698 -1.74659 0)
(7.7439 -1.64529 0)
(7.65252 -1.5169 0)
(7.56948 -1.38269 0)
(7.45815 -1.24525 0)
(7.3555 -1.08398 0)
(7.23487 -0.932564 0)
(7.14256 -0.789596 0)
(7.06253 -0.659569 0)
(6.97198 -0.543077 0)
(6.88574 -0.434155 0)
(6.79315 -0.325756 0)
(6.71255 -0.220916 0)
(6.63269 -0.123962 0)
(6.5584 -0.0255324 0)
(6.50145 0.0675527 0)
(6.44883 0.151396 0)
(6.41545 0.222092 0)
(6.38763 0.292602 0)
(6.35554 0.356788 0)
(6.33478 0.438004 0)
(6.3134 0.524275 0)
(6.30166 0.60326 0)
(6.26703 0.683303 0)
(6.26612 0.759403 0)
(6.24539 0.82916 0)
(6.22081 0.873687 0)
(6.21922 0.906639 0)
(6.21941 0.929013 0)
(6.21796 0.93909 0)
(6.21354 0.945894 0)
(6.17955 0.951141 0)
(6.15896 0.943787 0)
(6.12955 0.907427 0)
(6.11246 0.895748 0)
(6.08052 0.85337 0)
(6.08049 0.825143 0)
(6.06779 0.788895 0)
(6.0698 0.768533 0)
(6.08382 0.7169 0)
(6.08869 0.684354 0)
(6.12397 0.638318 0)
(6.12288 0.607737 0)
(6.19916 0.548347 0)
(6.19933 0.528529 0)
(6.26938 0.470393 0)
(6.23909 0.457272 0)
(6.319 0.380683 0)
(6.27767 0.375927 0)
(6.37207 0.31788 0)
(6.29124 0.331741 0)
(6.4056 0.254568 0)
(6.29671 0.275563 0)
(6.42569 0.215069 0)
(6.30682 0.2589 0)
(6.44073 0.180911 0)
(6.3202 0.219277 0)
(6.46239 0.136087 0)
(6.31281 0.167257 0)
(6.49275 0.0766283 0)
(6.29519 0.108438 0)
(6.49006 0.0204918 0)
(6.25693 0.0533236 0)
(6.42477 -0.0371872 0)
(6.22429 0.0199502 0)
(6.33785 -0.0691483 0)
(6.1914 0.00647275 0)
(6.26537 -0.0726689 0)
(6.14542 0.0264436 0)
(6.21224 -0.0605869 0)
(6.1042 0.064614 0)
(6.16702 -0.0444578 0)
(6.05341 0.101965 0)
(6.10446 -0.0200821 0)
(6.00605 0.137124 0)
(6.04102 -0.00251299 0)
(6.02794 0.163767 0)
(6.01017 0.0247119 0)
(6.0937 0.184658 0)
(6.01585 0.0446467 0)
(6.18298 0.215916 0)
(6.03631 0.0723814 0)
(6.2863 0.261094 0)
(6.04112 0.125856 0)
(6.38655 0.311974 0)
(6.0478 0.198544 0)
(6.44599 0.377467 0)