/*--------------------------------*- C++ -*----------------------------------*\
| =========                 |                                                 |
| \\      /  F ield         | OpenFOAM: The Open Source CFD Toolbox           |
|  \\    /   O peration     | Version:  2.4.0                                 |
|   \\  /    A nd           | Web:      www.OpenFOAM.org                      |
|    \\/     M anipulation  |                                                 |
\*---------------------------------------------------------------------------*/
FoamFile
{
    version     2.0;
    format      ascii;
    class       volScalarField;
    location    "0.2";
    object      k_0;
}
// * * * * * * * * * * * * * * * * * * * * * * * * * * * * * * * * * * * * * //

dimensions      [0 2 -2 0 0 0 0];

internalField   nonuniform List<scalar> 
17600
(
9.28371
7.41291
5.12253
3.93986
3.33222
2.96694
2.67892
2.4982
2.32096
2.23022
2.11093
2.07874
2.00381
1.94152
2.00451
1.85371
2.0816
1.92935
2.10592
2.49293
4.50279
6.20984
5.83936
5.05738
4.40586
3.95129
3.57614
3.34203
3.10617
2.96888
2.80827
2.75525
2.6363
2.55892
2.60455
2.42403
2.63646
2.46039
2.65452
2.90241
1.32075
3.28773
3.99099
3.96432
3.75943
3.47945
3.20803
3.03023
2.84241
2.72031
2.57877
2.52864
2.41883
2.34202
2.36247
2.21991
2.33036
2.19244
2.3641
2.34616
0.207493
1.19946
1.91471
2.3348
2.50564
2.51878
2.47166
2.4014
2.30969
2.24183
2.14328
2.11352
2.04045
1.97605
1.97783
1.88941
1.90753
1.83408
1.88266
1.87605
0.0260119
0.274971
0.629564
0.972722
1.23544
1.43218
1.54113
1.59735
1.61996
1.62481
1.60036
1.596
1.57684
1.54366
1.53182
1.50913
1.45941
1.4567
1.39787
1.43154
0.00274516
0.0449797
0.130965
0.274701
0.412883
0.565696
0.709306
0.806844
0.892084
0.971638
0.994784
1.02947
1.06085
1.0624
1.05695
1.07271
1.02636
1.05496
0.969721
1.00485
0.000280072
0.00636253
0.0196871
0.0501619
0.0928594
0.138744
0.226365
0.280025
0.343418
0.419498
0.470968
0.499805
0.569737
0.593529
0.600192
0.639343
0.614139
0.646366
0.588638
0.603573
4.75463e-05
0.000837892
0.0026003
0.00622942
0.0144896
0.0233756
0.0463579
0.0642439
0.0885242
0.119445
0.155233
0.168929
0.213131
0.237172
0.247499
0.286308
0.276372
0.297813
0.272528
0.277105
2.63088e-05
0.000129526
0.000361712
0.00075368
0.00179458
0.00298293
0.00629636
0.0103596
0.0142796
0.0227575
0.0347114
0.0381007
0.0527193
0.0627944
0.0678443
0.0866349
0.0840786
0.0921696
0.0833499
0.0863837
2.51449e-05
7.01529e-05
9.00628e-05
0.000159741
0.000305528
0.000417125
0.000794259
0.00134148
0.00179808
0.0032307
0.00539002
0.00584503
0.00922801
0.0111131
0.0122662
0.0168368
0.0164245
0.0178576
0.0161461
0.0163968
2.51871e-05
7.76256e-05
6.99992e-05
0.000109396
0.000123643
0.000130013
0.000177467
0.000220846
0.000266521
0.000464176
0.000676491
0.00075542
0.00138289
0.00163692
0.00173158
0.00233643
0.00218596
0.00227088
0.00212043
0.00207576
2.22126e-05
3.87111e-05
6.85889e-05
8.02387e-05
7.85683e-05
9.37454e-05
9.39336e-05
9.68468e-05
0.000111832
0.000121736
0.000139796
0.000175862
0.000287783
0.000348822
0.000358661
0.000410162
0.000374596
0.000371888
0.00034325
0.000352778
2.20088e-05
3.08919e-05
6.92202e-05
6.50064e-05
6.67815e-05
8.51047e-05
8.3195e-05
9.53796e-05
9.67619e-05
9.35858e-05
0.000109531
0.00011487
0.000126315
0.000161686
0.0001766
0.000178867
0.000179354
0.000193822
0.000176148
0.000184724
2.35114e-05
4.38009e-05
5.60578e-05
5.27578e-05
6.83163e-05
7.06604e-05
7.51216e-05
8.99725e-05
8.74811e-05
8.58618e-05
9.45332e-05
9.1082e-05
9.39733e-05
0.000108008
0.000114325
0.000130934
0.000136959
0.000141546
0.000134099
0.000145174
2.22289e-05
4.12777e-05
4.39721e-05
4.71089e-05
5.43195e-05
5.53505e-05
6.36525e-05
6.99023e-05
7.02809e-05
8.10054e-05
7.82165e-05
7.26824e-05
7.53324e-05
8.11281e-05
8.3288e-05
9.98514e-05
0.000100523
9.92355e-05
0.000103935
0.000122576
2.06951e-05
2.5884e-05
3.71638e-05
4.76226e-05
4.89737e-05
5.14643e-05
5.60752e-05
5.68807e-05
5.95991e-05
6.47885e-05
6.29215e-05
6.34308e-05
6.34278e-05
6.45837e-05
6.76545e-05
7.67085e-05
7.78397e-05
7.88426e-05
8.79351e-05
8.94218e-05
2.06402e-05
2.54523e-05
3.85464e-05
4.24072e-05
4.45636e-05
5.31489e-05
5.20334e-05
5.15065e-05
5.84658e-05
5.82387e-05
6.0893e-05
6.05968e-05
6.08102e-05
6.26412e-05
6.76659e-05
6.90955e-05
6.97989e-05
7.1752e-05
7.90433e-05
7.91848e-05
2.07777e-05
2.61121e-05
3.84452e-05
3.93728e-05
4.51782e-05
4.62306e-05
4.67616e-05
4.76298e-05
5.12422e-05
5.11009e-05
5.28513e-05
5.28708e-05
5.38346e-05
6.02645e-05
6.06536e-05
6.06443e-05
6.09297e-05
6.35904e-05
6.50608e-05
6.8645e-05
2.0637e-05
2.52843e-05
3.53123e-05
3.5263e-05
3.65499e-05
4.10332e-05
4.38535e-05
4.52508e-05
4.52001e-05
4.65117e-05
4.75846e-05
4.78727e-05
5.00381e-05
5.16389e-05
5.07587e-05
5.17958e-05
5.41012e-05
5.84343e-05
5.77782e-05
6.70609e-05
2.05084e-05
2.61199e-05
3.44817e-05
3.48298e-05
3.65383e-05
4.03724e-05
4.27513e-05
4.29542e-05
4.34711e-05
4.45492e-05
4.58042e-05
4.59652e-05
4.59794e-05
4.57657e-05
4.62419e-05
4.98437e-05
5.18546e-05
5.24944e-05
5.25843e-05
7.05495e-05
2.04919e-05
2.72341e-05
3.2241e-05
3.51791e-05
3.67024e-05
3.75816e-05
4.0468e-05
4.22212e-05
4.25074e-05
4.32205e-05
4.36027e-05
4.35232e-05
4.37793e-05
4.47051e-05
4.59652e-05
4.76589e-05
4.79216e-05
4.82725e-05
5.06694e-05
6.19749e-05
2.05918e-05
2.43777e-05
3.32121e-05
3.72463e-05
3.67038e-05
3.73714e-05
4.11274e-05
4.09274e-05
4.09933e-05
4.24808e-05
4.31852e-05
4.36295e-05
4.53975e-05
4.51086e-05
4.50535e-05
4.51592e-05
4.62258e-05
4.71799e-05
5.35429e-05
5.70888e-05
2.06337e-05
2.54315e-05
3.84566e-05
3.84853e-05
3.71334e-05
3.90821e-05
4.0682e-05
4.10369e-05
4.43617e-05
4.63798e-05
4.63306e-05
4.66495e-05
4.65568e-05
4.56056e-05
4.5391e-05
4.69857e-05
4.91358e-05
5.16758e-05
5.33465e-05
5.61937e-05
2.0868e-05
2.82516e-05
3.74675e-05
3.65333e-05
3.79874e-05
4.19497e-05
4.3153e-05
4.48922e-05
4.92403e-05
4.89602e-05
4.76503e-05
4.86961e-05
4.84482e-05
4.84403e-05
4.93127e-05
5.26998e-05
5.32575e-05
5.52182e-05
5.68534e-05
7.08075e-05
2.09382e-05
2.95014e-05
3.3503e-05
3.8235e-05
4.49788e-05
4.65701e-05
4.75767e-05
4.90686e-05
5.00999e-05
4.96359e-05
5.02155e-05
5.44227e-05
5.48447e-05
5.50161e-05
5.62522e-05
5.67798e-05
5.71634e-05
6.00378e-05
6.65392e-05
9.0029e-05
2.12228e-05
2.68763e-05
3.73879e-05
4.86967e-05
5.01544e-05
4.96046e-05
5.00722e-05
5.00695e-05
5.10992e-05
5.5655e-05
6.44877e-05
6.62438e-05
6.50301e-05
6.27991e-05
6.31361e-05
6.37602e-05
6.66326e-05
7.75925e-05
9.64737e-05
0.000160336
2.16123e-05
2.84652e-05
4.77592e-05
5.26643e-05
5.10996e-05
4.98843e-05
5.08075e-05
5.30748e-05
6.54382e-05
7.86128e-05
8.09927e-05
8.00393e-05
7.44689e-05
7.16611e-05
7.35008e-05
8.00127e-05
9.51038e-05
0.000129527
0.000210667
0.00052769
2.18213e-05
3.12163e-05
5.31204e-05
5.29824e-05
5.12725e-05
5.18757e-05
5.77915e-05
6.83875e-05
9.80188e-05
0.000101197
9.91825e-05
9.31336e-05
8.94635e-05
9.20196e-05
0.000115029
0.000153777
0.000229083
0.000420725
0.000891523
0.00252591
2.23245e-05
3.3119e-05
5.68224e-05
5.39982e-05
5.58115e-05
6.23775e-05
9.1203e-05
0.000108832
0.00015225
0.000145053
0.000146268
0.000164291
0.000181195
0.000244217
0.000482381
0.000716845
0.00116615
0.00236811
0.0049847
0.0132064
2.28665e-05
3.99441e-05
6.11848e-05
6.08442e-05
8.10188e-05
0.000115038
0.000213173
0.000255984
0.000409826
0.000445923
0.000527769
0.000899219
0.00113416
0.00179306
0.00339938
0.00490487
0.00741111
0.014404
0.0252796
0.0588237
2.41172e-05
5.97759e-05
8.48283e-05
0.000125438
0.000278897
0.000468083
0.000923277
0.00125651
0.00249391
0.00313471
0.00412564
0.00751942
0.00929137
0.0140153
0.0209686
0.0298146
0.0398126
0.0673321
0.0984037
0.205275
2.72532e-05
0.000163953
0.000335865
0.000716731
0.00194819
0.0033425
0.00674863
0.0095571
0.0182247
0.0232057
0.0293918
0.0476962
0.0557534
0.0731644
0.0996126
0.126062
0.152613
0.220442
0.283036
0.482324
4.88224e-05
0.000972587
0.00244469
0.0057426
0.0158546
0.0250513
0.0465253
0.0617675
0.100953
0.118528
0.143726
0.200106
0.219424
0.258673
0.321251
0.363583
0.409005
0.513973
0.595412
0.807927
0.000283837
0.00717079
0.0187483
0.0433105
0.102781
0.142407
0.223404
0.274412
0.372542
0.405547
0.470805
0.548889
0.576148
0.630508
0.704517
0.73903
0.792047
0.888074
0.958393
1.12644
0.00278407
0.0492768
0.122534
0.262333
0.436239
0.553138
0.71526
0.804587
0.921042
0.95002
1.01888
1.06067
1.07744
1.1098
1.15453
1.16775
1.20293
1.25314
1.30147
1.39205
0.0264283
0.278291
0.6196
0.966825
1.25563
1.41596
1.55327
1.59266
1.63559
1.61526
1.62622
1.60502
1.59875
1.58254
1.58498
1.56876
1.57717
1.57203
1.58253
1.57036
0.210735
1.19625
1.91154
2.33001
2.5177
2.51203
2.47803
2.38889
2.32943
2.21539
2.18034
2.08256
2.05793
1.98958
1.96232
1.89844
1.87577
1.80306
1.75348
1.65069
1.33896
3.26748
3.99279
3.96071
3.76769
3.46544
3.22358
3.00515
2.85686
2.68655
2.60942
2.45022
2.41594
2.29983
2.24293
2.12965
2.06673
1.90995
1.79891
1.60125
4.52007
6.18156
5.84401
5.05055
4.41564
3.93898
3.58779
3.30976
3.11191
2.92185
2.81992
2.63162
2.59194
2.43786
2.3536
2.19515
2.09446
1.8602
1.67579
1.39374
9.30051
7.38383
5.13886
3.9296
3.33575
2.95528
2.68315
2.47152
2.31436
2.17713
2.10409
1.9537
1.9172
1.78761
1.70466
1.55095
1.45371
1.23185
1.04468
0.800321
1.70606
1.29804
0.959219
0.754285
0.612518
0.580414
0.572935
0.567009
0.590757
0.584893
0.531957
0.361288
0.192972
0.0944011
0.0512112
0.0272443
0.020675
0.0256961
0.026003
0.0304623
0.0346953
0.0438482
0.0653428
0.173906
0.330752
0.339347
0.320161
0.287964
0.249921
0.222094
0.190022
0.159403
0.143283
0.139543
0.1405
0.138264
0.131019
0.121737
0.118372
0.116468
0.108099
0.0971744
0.0839245
0.0749353
0.0747265
0.0851695
0.100963
0.100033
0.0995617
0.116858
0.192163
0.211089
0.180062
0.110668
0.088208
0.0837749
0.0752761
0.0639174
0.0509508
0.0426827
0.0389043
0.0361973
0.0347201
0.0342972
0.0334037
0.0305494
0.0285293
0.0283019
0.0294376
0.0360622
0.0617707
0.0744952
0.075922
0.0722785
0.0548564
0.0381449
0.0263578
0.0192265
0.0160629
0.0147246
0.0138228
0.0136646
0.0138901
0.0144757
0.0147498
0.0147853
0.0148132
0.0146551
0.0128547
0.0101137
0.00909336
0.00909098
0.0102054
0.0122449
0.0147971
0.0210253
0.0318856
0.0375864
0.0481198
0.0628785
0.0695605
0.0754936
0.0784982
0.0766767
0.0697655
0.0637378
0.0557301
0.0456636
0.037968
0.0350174
0.0325355
0.0319111
0.0325897
0.0356995
0.0413562
0.055939
0.0677468
0.0744199
0.0806415
0.0820632
0.0824611
0.0810221
0.0812678
0.101377
0.122701
0.115912
0.0804383
0.0699304
0.0698849
0.0641516
0.0405006
0.0273469
0.0190267
0.0139619
0.0114631
0.0102354
0.0100229
0.0104025
0.0129231
0.0148293
0.0155871
0.0167652
0.0179185
0.0196303
0.0267984
0.0458134
0.0531462
0.0540969
0.0520029
0.0515598
0.0515414
0.0544232
0.0575627
0.057621
0.0553391
0.0432649
0.0301738
0.0257899
0.0273509
0.0335679
0.0343359
0.0346933
0.034813
0.0368535
0.0381941
0.0372991
0.0303769
0.0239985
0.0229116
0.0232214
0.0245737
0.0246199
0.024117
0.0231208
0.0224572
0.0221869
0.0223914
0.0257377
0.0470827
0.0711345
0.082491
0.0866229
0.0856681
0.0855131
0.0866602
0.0873252
0.0863691
0.0827318
0.0681064
0.0501451
0.0362107
0.0260139
0.0208453
0.0198507
0.0201755
0.0221913
0.0301255
0.0494047
0.101657
0.566369
2.30725
1.42404
1.07596
0.836567
0.703997
0.673254
0.674963
0.676148
0.663272
0.612434
0.478565
0.254356
0.131037
0.0666309
0.0320213
0.0171665
0.0109363
0.0165756
0.019983
0.0228259
0.0225858
0.0263818
0.0415141
0.0898477
0.22174
0.286565
0.293556
0.281934
0.263142
0.249285
0.217127
0.179972
0.162871
0.161477
0.161699
0.158845
0.150536
0.137242
0.131973
0.127236
0.115529
0.105908
0.0921925
0.0849451
0.0853961
0.0964386
0.102882
0.0973689
0.0952255
0.128418
0.20942
0.212444
0.156593
0.103271
0.0856996
0.0829787
0.0745273
0.0615197
0.0502187
0.0412399
0.0378531
0.0354379
0.0341549
0.033749
0.0329189
0.0301114
0.0279753
0.0276235
0.0284395
0.0330508
0.0564881
0.0726104
0.0752965
0.0730203
0.0583081
0.0412601
0.0297037
0.0223619
0.0184541
0.016295
0.014532
0.0139657
0.0139994
0.0144073
0.0149858
0.0151772
0.0153336
0.0153048
0.0138792
0.0106851
0.00929639
0.00916233
0.00995133
0.0117188
0.0137273
0.0183586
0.0289351
0.0345972
0.0455334
0.0619782
0.0722465
0.079011
0.0805538
0.0769339
0.0711942
0.0651808
0.0580257
0.0495457
0.0416786
0.0378905
0.0359896
0.0360011
0.0375362
0.0421487
0.0475076
0.061963
0.0723809
0.0774806
0.0819101
0.0824269
0.0829047
0.0820624
0.0831765
0.105939
0.126611
0.117182
0.0774995
0.0679036
0.0687628
0.0638598
0.0396987
0.0273706
0.0193608
0.0139386
0.0114581
0.0102567
0.0099405
0.0103095
0.0130565
0.0148991
0.015663
0.0167175
0.0176955
0.0191925
0.0267069
0.0447722
0.0518095
0.0528107
0.0511595
0.0508009
0.0507386
0.0529548
0.055787
0.0558342
0.0540288
0.0434753
0.0312467
0.0265336
0.0275984
0.0321879
0.0329361
0.0339033
0.0344515
0.0366234
0.0381099
0.0372738
0.0308435
0.0247279
0.0242339
0.0256913
0.0276671
0.0273427
0.0253994
0.0235344
0.0226602
0.0222978
0.0226198
0.0272409
0.0508852
0.0758426
0.0841956
0.086757
0.0848006
0.0836075
0.0855421
0.0867658
0.0851081
0.0819281
0.0707043
0.0512415
0.0396849
0.0272264
0.0212623
0.020038
0.0197662
0.0206631
0.0248549
0.0388524
0.0978661
0.432138
2.02135
1.73454
1.37481
1.04069
0.942479
0.904185
0.81246
0.734761
0.675153
0.549026
0.322632
0.164985
0.0828858
0.0438989
0.0183733
0.00976242
0.00643228
0.00757009
0.0138886
0.0167347
0.0169321
0.0182617
0.024249
0.0470624
0.0992037
0.201892
0.251574
0.263372
0.261212
0.253857
0.231937
0.198979
0.188508
0.189018
0.186996
0.179985
0.163461
0.147442
0.141659
0.135648
0.128344
0.118342
0.101745
0.0927762
0.0920173
0.0996191
0.10252
0.0900335
0.0889193
0.148439
0.218146
0.210353
0.132876
0.0984043
0.0848571
0.0827658
0.0737888
0.0604644
0.0495358
0.0399641
0.0370602
0.0351323
0.0338862
0.0334531
0.0327194
0.029917
0.0277473
0.0273382
0.0278586
0.0311106
0.0513613
0.0704458
0.07455
0.0733043
0.0616016
0.0447037
0.033407
0.0257148
0.0210767
0.0179737
0.0153768
0.0142757
0.0142116
0.0144555
0.0153117
0.0156267
0.0158132
0.0158404
0.014786
0.0113806
0.00954999
0.00924956
0.00970797
0.0113119
0.0128689
0.0158452
0.0260373
0.0318864
0.0402902
0.0589406
0.0739945
0.0842602
0.0844341
0.0795554
0.0737362
0.0660449
0.0614208
0.0547419
0.0458692
0.0423108
0.0417581
0.0422798
0.0445943
0.0478667
0.052985
0.0679362
0.0767395
0.0790283
0.0821896
0.0824443
0.0828204
0.0824422
0.0850071
0.111171
0.130007
0.118145
0.0743739
0.0649147
0.0670777
0.0634712
0.0393744
0.0273435
0.0201201
0.0140654
0.0117388
0.0105494
0.0100098
0.0102841
0.0129904
0.0148186
0.0157311
0.0166964
0.0176066
0.0189713
0.0269052
0.0439439
0.0507217
0.0516004
0.0503079
0.0500194
0.0499302
0.0517176
0.0545884
0.0545639
0.0529455
0.0435377
0.0321269
0.0276863
0.0284258
0.0319647
0.0323402
0.0330641
0.0341247
0.0355926
0.0369658
0.0364182
0.0305482
0.0258875
0.0265283
0.0303341
0.0316603
0.0292137
0.0258981
0.023671
0.0227062
0.0224028
0.0228628
0.0292539
0.0558904
0.0797779
0.0862711
0.0878361
0.0845834
0.0826123
0.0830839
0.0837437
0.0839799
0.0808061
0.0734811
0.0524366
0.0401692
0.0327749
0.0227623
0.0205454
0.0208252
0.0213254
0.0256079
0.0355049
0.0837558
0.299467
1.60748
1.54786
1.43446
1.26893
1.12692
0.973006
0.833013
0.696047
0.55077
0.341214
0.185264
0.0956118
0.0436752
0.0203913
0.00923024
0.00617773
0.00476939
0.00484524
0.00741286
0.00983518
0.0122386
0.0143955
0.0166545
0.026012
0.0457488
0.0900913
0.158167
0.214959
0.242364
0.241169
0.227203
0.208127
0.207584
0.20672
0.197896
0.186091
0.165278
0.150357
0.146748
0.146322
0.140616
0.123146
0.103116
0.0932188
0.09273
0.0993084
0.0972438
0.0772885
0.0839758
0.172582
0.224213
0.196106
0.116179
0.0962778
0.0846995
0.0824325
0.0733768
0.0598667
0.0485525
0.0388339
0.0366091
0.0350415
0.0338189
0.0333322
0.0326278
0.0298787
0.0276604
0.0272944
0.0276496
0.0301235
0.0469771
0.0680047
0.0737996
0.0733163
0.0645262
0.0479852
0.0368608
0.0287231
0.0232868
0.0194003
0.0161239
0.0147008
0.0145235
0.0147277
0.0157263
0.0161018
0.0162249
0.0162656
0.0155527
0.0121761
0.00990488
0.00934845
0.00954815
0.0108767
0.0121597
0.0142359
0.0217927
0.0303273
0.0370138
0.0523097
0.0728766
0.0838743
0.0872791
0.0870838
0.0823059
0.0717156
0.0699103
0.0612423
0.0509661
0.0492909
0.0492684
0.0496102
0.0505536
0.0522183
0.0588393
0.0736457
0.0790178
0.0799863
0.082188
0.0824026
0.0825127
0.0823677
0.0873272
0.116288
0.132435
0.118675
0.0716732
0.0612591
0.0648869
0.0624925
0.0394406
0.0271197
0.0210961
0.0145957
0.0119303
0.0112259
0.0104982
0.0105416
0.012556
0.0144435
0.0157157
0.0167115
0.0176228
0.018868
0.0276543
0.0435714
0.0497996
0.0505986
0.0494198
0.0490921
0.0489566
0.0504307
0.0534335
0.053352
0.0518495
0.0436374
0.0328521
0.0286017
0.0295708
0.0320659
0.0322804
0.0327219
0.034072
0.0350855
0.0360984
0.0354801
0.0301293
0.0278025
0.0307769
0.0346654
0.0342395
0.029536
0.0259577
0.0236619
0.0226582
0.0224319
0.0231516
0.0323673
0.061711
0.0833424
0.0880555
0.0898386
0.0853751
0.080549
0.0822592
0.0836038
0.0804098
0.0792401
0.0725895
0.0554717
0.0411571
0.0326247
0.0268797
0.021782
0.0208876
0.0211873
0.0244481
0.0302195
0.075212
0.22368
1.31813
1.21
1.15536
1.10422
1.00585
0.81469
0.670028
0.494811
0.324163
0.187609
0.0925062
0.0425207
0.0187846
0.00988118
0.00568221
0.00460682
0.00436221
0.00423935
0.00473895
0.00485558
0.00646523
0.0109207
0.0121912
0.0158514
0.0225216
0.0406562
0.0620733
0.104143
0.161396
0.186366
0.197342
0.201872
0.213346
0.211661
0.197907
0.179563
0.158916
0.151588
0.150503
0.149594
0.142484
0.121202
0.0992595
0.0895413
0.0899613
0.0919691
0.0841097
0.0631187
0.0804156
0.196898
0.227859
0.173738
0.108065
0.0953557
0.0847867
0.0812424
0.0725705
0.0595538
0.0474148
0.0381553
0.0362215
0.0350325
0.0338042
0.0332912
0.0327028
0.0302028
0.0277432
0.0273153
0.0276056
0.0297649
0.0444843
0.0661215
0.0733243
0.0733643
0.0670458
0.0513701
0.0399652
0.0309165
0.0247834
0.0205264
0.0169377
0.0152171
0.0150018
0.0153112
0.0161753
0.016441
0.0166648
0.0167968
0.0162975
0.0128658
0.0102669
0.00945881
0.00949221
0.0104463
0.0117221
0.0131765
0.0173911
0.0282516
0.0339853
0.0443512
0.0672461
0.0804552
0.086867
0.0905504
0.0885471
0.082075
0.0772421
0.0640641
0.056085
0.0554723
0.0551412
0.0531579
0.0533546
0.0545906
0.0661299
0.07722
0.0800966
0.0803098
0.0814615
0.0817261
0.0814693
0.0817277
0.0905212
0.121119
0.133511
0.119264
0.0698023
0.0573638
0.0618637
0.0612462
0.0400417
0.0266218
0.0223619
0.0156415
0.0120974
0.0117659
0.0114601
0.0111555
0.0122702
0.0140713
0.0156583
0.0167323
0.0176427
0.0188288
0.0289855
0.0437419
0.0486575
0.0493421
0.0483773
0.0483843
0.0481398
0.0492718
0.0521831
0.0522418
0.0508777
0.0436014
0.0333962
0.0291179
0.0302355
0.0324541
0.0324773
0.032736
0.0341203
0.0350698
0.0359918
0.0345884
0.0307899
0.0303678
0.0348711
0.0366848
0.0349891
0.029444
0.0256521
0.0232685
0.0224808
0.0224376
0.0235703
0.0365659
0.0666124
0.0861186
0.0901049
0.0912553
0.0843096
0.0811795
0.0835228
0.0806635
0.0817202
0.076948
0.0725859
0.054708
0.0455843
0.033081
0.0271874
0.0229789
0.0231318
0.0216283
0.0263198
0.0306591
0.0546943
0.149144
0.952756
0.916457
0.824947
0.77607
0.697028
0.556145
0.416705
0.270408
0.151193
0.0731889
0.0341878
0.0164701
0.00758644
0.00475769
0.00410672
0.0039244
0.00434746
0.00428817
0.00427975
0.00373404
0.00377144
0.0062431
0.00831576
0.0118641
0.0174192
0.0250576
0.0298475
0.0416468
0.0609293
0.0938163
0.138107
0.182561
0.198659
0.1928
0.172185
0.156955
0.14899
0.149214
0.149069
0.147027
0.13574
0.109004
0.0861877
0.077449
0.0776002
0.0778213
0.0626296
0.049396
0.0851425
0.221025
0.229588
0.152645
0.103306
0.0949097
0.084518
0.0791029
0.0722401
0.0595854
0.0471548
0.0381498
0.036072
0.0351933
0.0338498
0.0332987
0.0328185
0.0308017
0.028123
0.027426
0.0276855
0.0298784
0.043217
0.0646162
0.0729795
0.0735312
0.0691075
0.0540634
0.0419907
0.0320096
0.0259311
0.0221892
0.0182347
0.016093
0.0159137
0.016176
0.0166261
0.0167682
0.0172748
0.0175847
0.0170838
0.0133099
0.010509
0.00955164
0.00944995
0.0099839
0.0113193
0.0123825
0.0147947
0.0235104
0.0317028
0.0417199
0.0540368
0.0688055
0.0830173
0.0896065
0.0885885
0.0855303
0.0786448
0.0652314
0.0598076
0.0590005
0.056497
0.0541936
0.0546851
0.0586625
0.072752
0.0790515
0.0804048
0.0800024
0.0800617
0.080042
0.0792799
0.0801157
0.0946469
0.123828
0.134142
0.120079
0.068709
0.0533084
0.0582327
0.059859
0.0414677
0.0259229
0.0234252
0.0173532
0.0126673
0.011902
0.01191
0.0116409
0.0121809
0.0138494
0.015522
0.0166985
0.0176377
0.0190474
0.0303823
0.0442262
0.0474017
0.0480334
0.0473957
0.0477214
0.0475682
0.0487611
0.051111
0.0514362
0.0501482
0.0436611
0.0339167
0.0295242
0.0303752
0.0335586
0.0334443
0.0332669
0.0341025
0.0354272
0.0362651
0.0343927
0.0320559
0.0324107
0.0363561
0.0367173
0.0338793
0.0285471
0.0246778
0.0227899
0.0224314
0.0225599
0.024304
0.0413371
0.0720026
0.0890258
0.0922095
0.0915562
0.0851627
0.0835296
0.0816365
0.08262
0.0796674
0.0769469
0.0718164
0.0551991
0.0447511
0.0386138
0.0284976
0.0233778
0.0236756
0.022621
0.0346498
0.0323045
0.0509053
0.110439
0.576704
0.559357
0.518759
0.473564
0.427379
0.319095
0.190654
0.103158
0.0509292
0.0250547
0.0117056
0.0057835
0.00326156
0.00277171
0.0033919
0.00354919
0.00425903
0.0043686
0.00439215
0.00369326
0.00331445
0.00356546
0.00497553
0.0113284
0.0171604
0.0191701
0.0191307
0.0209223
0.0267353
0.037421
0.0843172
0.14524
0.158985
0.14689
0.128515
0.121395
0.124503
0.13298
0.133246
0.129711
0.112398
0.0816599
0.0603496
0.0545735
0.0558374
0.0556663
0.0396684
0.0363282
0.103348
0.236066
0.22805
0.135059
0.100696
0.0941958
0.0830745
0.0764715
0.0717952
0.060217
0.0477026
0.0386058
0.0360216
0.0352587
0.0339308
0.0334835
0.0329793
0.0313609
0.0287844
0.0277478
0.0279304
0.0301594
0.0430991
0.0635356
0.0727692
0.0738941
0.0707428
0.0570558
0.0429605
0.0325327
0.0278731
0.0260106
0.0222705
0.0186698
0.0175278
0.0172985
0.0172192
0.0172729
0.0181164
0.0185216
0.0177654
0.0135903
0.0106579
0.00965721
0.00940153
0.00964285
0.0106479
0.0115839
0.0132888
0.0179948
0.0284914
0.0401777
0.0484728
0.0552154
0.068621
0.0808772
0.0848526
0.0838655
0.078078
0.0650102
0.0612074
0.0593538
0.0555451
0.0547932
0.0566498
0.0656595
0.0758346
0.0796038
0.0796838
0.078078
0.077291
0.0771731
0.0764694
0.0785701
0.0997556
0.12697
0.134844
0.121577
0.068383
0.0492153
0.0539703
0.0585203
0.0431834
0.0255457
0.023523
0.01959
0.0136942
0.0118809
0.0117941
0.0115982
0.0120579
0.0137386
0.0153429
0.0165791
0.0175847
0.0200078
0.0319725
0.0444336
0.0461307
0.0467288
0.0463384
0.0468259
0.04681
0.0480871
0.0506408
0.0510398
0.0498185
0.043896
0.0347661
0.0301103
0.0304816
0.0345164
0.0348855
0.033881
0.034099
0.0357694
0.0364481
0.0345089
0.0328573
0.0335666
0.0357628
0.0353422
0.0319257
0.0271788
0.0241191
0.0226447
0.0224904
0.0228698
0.0255125
0.0467785
0.0772899
0.0942876
0.0938664
0.0922038
0.0889994
0.0817293
0.081923
0.0822124
0.0776298
0.075252
0.0704587
0.0550061
0.0420694
0.0380943
0.0338565
0.0249396
0.0249952
0.0240103
0.0337347
0.0340294
0.0434718
0.0823889
0.260614
0.242715
0.221117
0.202698
0.175822
0.112015
0.063257
0.0329396
0.0158174
0.00805525
0.00392914
0.0023461
0.00196355
0.00194425
0.00270657
0.00279612
0.00335523
0.00363384
0.00395818
0.0039157
0.00338032
0.00318726
0.00418705
0.0106764
0.013068
0.0125506
0.0116278
0.0120658
0.0143537
0.0181368
0.0535777
0.104391
0.109238
0.0904113
0.0696736
0.0679319
0.0879985
0.104268
0.104946
0.0980481
0.0698325
0.0379908
0.0244209
0.0245955
0.0300942
0.0293494
0.0211621
0.0287842
0.130019
0.251324
0.222891
0.121522
0.0988076
0.0919013
0.0812847
0.0734668
0.0712541
0.0624167
0.0497818
0.0396198
0.0360217
0.0355797
0.0341452
0.0339097
0.0333066
0.0318352
0.0293322
0.0281776
0.0283949
0.0309344
0.0432679
0.0619056
0.0723612
0.074726
0.0730308
0.0604224
0.0436548
0.0345142
0.0326887
0.0320532
0.0281225
0.0227418
0.0199943
0.0188664
0.0184152
0.0183798
0.019086
0.0194711
0.018209
0.0136269
0.0106972
0.00977878
0.00938546
0.00945509
0.0100724
0.0109151
0.0122604
0.0151343
0.0223285
0.037089
0.0461649
0.0500766
0.0553031
0.0663775
0.074091
0.0752736
0.0717873
0.0632351
0.0610506
0.0576136
0.0553944
0.0565935
0.0625519
0.0703952
0.0772101
0.0781316
0.0768556
0.0747005
0.0734817
0.0733411
0.0727913
0.0767037
0.103746
0.12931
0.135755
0.123848
0.0687457
0.0462818
0.0495286
0.0564759
0.0443192
0.0251761
0.0231779
0.0215713
0.0153385
0.0123141
0.0113439
0.0112005
0.0118406
0.01375
0.0152965
0.0165161
0.0175731
0.0215458
0.0332413
0.0441505
0.0450124
0.0455576
0.0453602
0.0457667
0.0456817
0.0472328
0.0500655
0.0509537
0.0499189
0.0447195
0.0355127
0.0310685
0.0309243
0.0348512
0.0358592
0.0343889
0.0341533
0.0356415
0.0362783
0.0346686
0.0332812
0.0337961
0.0343474
0.0334807
0.0307451
0.0267385
0.0239983
0.022675
0.0227437
0.023412
0.0272434
0.0520777
0.084268
0.0993172
0.0964955
0.096012
0.0878981
0.0913993
0.0904552
0.0805991
0.0821751
0.0775764
0.0732948
0.0556181
0.0475521
0.0360845
0.0328794
0.0267579
0.029098
0.0255758
0.0580605
0.0401382
0.043776
0.0648674
0.0796106
0.0692569
0.0641433
0.0557221
0.0462568
0.0299721
0.0173068
0.00928918
0.00482242
0.00270668
0.00171138
0.0014095
0.00151227
0.00161162
0.00207123
0.00195793
0.00200243
0.00243774
0.00241695
0.00307935
0.00351264
0.00340753
0.00451835
0.00682712
0.00717075
0.00702234
0.00697077
0.00849775
0.00888509
0.0102536
0.0401675
0.0686482
0.0677507
0.0480803
0.0409515
0.0461154
0.0725326
0.078934
0.0753543
0.0538529
0.0254088
0.011452
0.00790183
0.00930906
0.0128379
0.0128515
0.0132856
0.0264217
0.15965
0.263237
0.212998
0.112713
0.0960619
0.0887869
0.0798162
0.0703771
0.0703311
0.0659736
0.0529558
0.0402332
0.03612
0.0362895
0.0347222
0.0347168
0.0338587
0.0321698
0.0296112
0.0285201
0.0289294
0.0322616
0.04399
0.0594798
0.0712681
0.0761997
0.0757852
0.0661863
0.0485507
0.0417501
0.0405187
0.0399232
0.0341652
0.0271318
0.0229643
0.0209135
0.0200568
0.0198992
0.0203965
0.0205927
0.0183862
0.013631
0.0107213
0.00977601
0.00941104
0.00938999
0.00985065
0.0104319
0.0115725
0.0134822
0.017519
0.0306336
0.0432563
0.0479989
0.0503933
0.0563842
0.0653316
0.0671261
0.0650565
0.060887
0.0593813
0.0568165
0.0563693
0.0614383
0.0667932
0.0724048
0.0756772
0.0744675
0.0724495
0.0705015
0.0685634
0.0685937
0.0685775
0.0755
0.106967
0.132143
0.137457
0.126362
0.0697581
0.0435065
0.0451194
0.0545337
0.0450893
0.0250686
0.022345
0.0227881
0.0173632
0.0137965
0.011588
0.0111439
0.0117846
0.0137987
0.015332
0.0165184
0.0176596
0.0234122
0.0348822
0.0436716
0.0439093
0.0442367
0.0448694
0.0450026
0.0451782
0.0464117
0.0488722
0.0504841
0.0501063
0.0468923
0.0367727
0.0319399
0.0316486
0.0349471
0.0359902
0.0343961
0.0336553
0.0347294
0.0352739
0.0344803
0.0333022
0.0334001
0.0331254
0.0318563
0.0303577
0.0266633
0.0240641
0.023024
0.0233565
0.0242579
0.0297973
0.0585308
0.0920894
0.104034
0.0999857
0.0910487
0.0882711
0.100741
0.0989992
0.0925903
0.0865492
0.0799199
0.0783625
0.05829
0.0566575
0.0421036
0.0331364
0.0288744
0.0324956
0.032002
0.0550859
0.0472048
0.0448362
0.0556998
0.0151334
0.0125991
0.0117376
0.0102161
0.00935428
0.00719216
0.0045462
0.00285848
0.00180242
0.00129214
0.00112178
0.00115607
0.00134679
0.00147882
0.00150975
0.00141173
0.00135131
0.00180626
0.00184064
0.0018345
0.00241258
0.00358548
0.00524199
0.00538123
0.00527118
0.005335
0.0060614
0.00616458
0.00588071
0.00723634
0.0285302
0.0406155
0.0375839
0.0294942
0.0284755
0.0427545
0.0520575
0.0509132
0.038329
0.0209217
0.0103857
0.00576185
0.00523947
0.00638404
0.00747775
0.00761745
0.00991562
0.0311927
0.192246
0.275271
0.202081
0.105094
0.0916259
0.0845657
0.0786454
0.0694421
0.0700352
0.0691139
0.0558692
0.0403912
0.0363297
0.0369841
0.0354395
0.0363207
0.0345308
0.0324227
0.0297001
0.0287967
0.0293582
0.0337324
0.0443882
0.0566604
0.0699057
0.077069
0.0779609
0.0708628
0.0563886
0.0511645
0.050081
0.0481195
0.0393857
0.0307858
0.0260175
0.0229977
0.0219092
0.0218053
0.0219447
0.0216747
0.018463
0.0136943
0.010806
0.00973943
0.00938291
0.00935741
0.00969461
0.0100297
0.010756
0.0120469
0.0147407
0.0232471
0.0379671
0.0444639
0.0466794
0.0514586
0.0590035
0.0613661
0.0606401
0.0590314
0.0582122
0.057441
0.059745
0.0658659
0.0689458
0.0720466
0.071863
0.0684315
0.0669314
0.0654887
0.0626438
0.0629169
0.0635998
0.0757076
0.109491
0.135474
0.139811
0.128699
0.0702318
0.0414999
0.0407398
0.0512078
0.0453201
0.0252106
0.0207965
0.0227792
0.0198201
0.0155796
0.0124033
0.0113889
0.0119121
0.0137864
0.0153598
0.0165169
0.0179484
0.0254098
0.0362134
0.0426361
0.0426403
0.0429548
0.044558
0.0445391
0.045225
0.0460641
0.0486117
0.0494504
0.0498926
0.0483868
0.0394613
0.0331632
0.0321489
0.0345671
0.0350869
0.0333839
0.0324803
0.0328312
0.0334124
0.0337894
0.0330541
0.03236
0.0317533
0.0310911
0.0304004
0.0269379
0.0245466
0.0237825
0.0242893
0.0254578
0.0330484
0.0679009
0.0992583
0.106305
0.101315
0.0891868
0.0921357
0.0890564
0.0960629
0.0979678
0.0902276
0.0811611
0.0812982
0.0645141
0.0616167
0.0454996
0.087891
0.0512363
0.124218
0.0579119
0.0646547
0.0520201
0.0485821
0.0545128
0.00190897
0.00153976
0.00147575
0.0015169
0.00169396
0.00167593
0.00129222
0.00111267
0.000912643
0.000856457
0.000900495
0.000967379
0.00107848
0.00114564
0.00106232
0.00111188
0.00118179
0.00145357
0.00176618
0.00166916
0.00179126
0.00323986
0.00472053
0.00517395
0.00533182
0.00497217
0.00450412
0.00452506
0.00470775
0.00749105
0.0226946
0.0281713
0.0260379
0.0226571
0.0246841
0.0306503
0.0309516
0.0276023
0.0170327
0.00967632
0.00522336
0.00377653
0.00395047
0.00463823
0.00448896
0.00496402
0.00905248
0.0391712
0.220418
0.283641
0.19242
0.0990474
0.086269
0.0831
0.0787878
0.0695056
0.0695708
0.0700209
0.0582958
0.0412899
0.0367419
0.0372173
0.0361727
0.0383274
0.0355388
0.0326649
0.0298756
0.0292222
0.0300475
0.0353728
0.0440272
0.0544563
0.067741
0.0772924
0.0786158
0.073561
0.0633516
0.0601015
0.0583334
0.0539728
0.0430627
0.0337112
0.0285831
0.0250753
0.0238645
0.02368
0.0234818
0.0227236
0.0190597
0.0142883
0.0111243
0.00981298
0.00931411
0.00926721
0.00955378
0.00980777
0.0102124
0.0110071
0.0127951
0.0172061
0.0310872
0.0406694
0.0435397
0.048292
0.0544409
0.0573338
0.0574124
0.0574159
0.0582823
0.059168
0.0623789
0.0675059
0.0690522
0.0686161
0.064888