/*--------------------------------*- C++ -*----------------------------------*\
| =========                 |                                                 |
| \\      /  F ield         | OpenFOAM: The Open Source CFD Toolbox           |
|  \\    /   O peration     | Version:  2.4.0                                 |
|   \\  /    A nd           | Web:      www.OpenFOAM.org                      |
|    \\/     M anipulation  |                                                 |
\*---------------------------------------------------------------------------*/
FoamFile
{
    version     2.0;
    format      ascii;
    class       volScalarField;
    location    "0.2";
    object      pPrime2Mean;
}
// * * * * * * * * * * * * * * * * * * * * * * * * * * * * * * * * * * * * * //

dimensions      [0 4 -4 0 0 0 0];

internalField   nonuniform List<scalar> 
17600
(
3.25559e+06
3.21578e+06
3.17153e+06
3.12732e+06
3.08335e+06
3.0397e+06
2.99635e+06
2.95328e+06
2.91052e+06
2.86806e+06
2.8259e+06
2.78405e+06
2.74251e+06
2.70128e+06
2.66036e+06
2.61975e+06
2.57945e+06
2.53946e+06
2.49978e+06
2.46041e+06
2.42135e+06
2.3826e+06
2.34415e+06
2.30601e+06
2.26816e+06
2.2306e+06
2.19334e+06
2.15635e+06
2.11962e+06
2.08315e+06
2.04689e+06
2.01083e+06
1.97491e+06
1.93906e+06
1.90318e+06
1.86712e+06
1.83061e+06
1.79327e+06
1.75415e+06
1.71086e+06
3.25565e+06
3.21582e+06
3.17156e+06
3.12733e+06
3.08336e+06
3.0397e+06
2.99634e+06
2.95328e+06
2.91052e+06
2.86805e+06
2.8259e+06
2.78405e+06
2.7425e+06
2.70127e+06
2.66035e+06
2.61975e+06
2.57945e+06
2.53946e+06
2.49978e+06
2.46042e+06
2.42136e+06
2.3826e+06
2.34416e+06
2.30601e+06
2.26816e+06
2.23061e+06
2.19335e+06
2.15636e+06
2.11964e+06
2.08317e+06
2.04692e+06
2.01087e+06
1.97497e+06
1.93915e+06
1.90331e+06
1.86732e+06
1.83094e+06
1.79381e+06
1.75527e+06
1.71362e+06
3.2557e+06
3.21586e+06
3.17158e+06
3.12734e+06
3.08336e+06
3.03969e+06
2.99633e+06
2.95327e+06
2.9105e+06
2.86804e+06
2.82589e+06
2.78404e+06
2.7425e+06
2.70127e+06
2.66035e+06
2.61975e+06
2.57945e+06
2.53946e+06
2.49978e+06
2.46042e+06
2.42136e+06
2.38261e+06
2.34416e+06
2.30602e+06
2.26817e+06
2.23062e+06
2.19336e+06
2.15638e+06
2.11967e+06
2.08321e+06
2.04699e+06
2.01096e+06
1.9751e+06
1.93933e+06
1.90357e+06
1.86771e+06
1.83154e+06
1.79481e+06
1.75708e+06
1.71785e+06
3.25574e+06
3.21589e+06
3.1716e+06
3.12734e+06
3.08335e+06
3.03968e+06
2.99631e+06
2.95325e+06
2.91049e+06
2.86804e+06
2.82588e+06
2.78404e+06
2.7425e+06
2.70127e+06
2.66035e+06
2.61974e+06
2.57945e+06
2.53946e+06
2.49979e+06
2.46042e+06
2.42136e+06
2.38261e+06
2.34417e+06
2.30603e+06
2.26819e+06
2.23064e+06
2.19339e+06
2.15642e+06
2.11972e+06
2.08328e+06
2.04708e+06
2.01109e+06
1.97528e+06
1.93959e+06
1.90394e+06
1.86826e+06
1.83239e+06
1.79616e+06
1.75942e+06
1.72221e+06
3.25577e+06
3.21591e+06
3.17162e+06
3.12735e+06
3.08335e+06
3.03967e+06
2.9963e+06
2.95324e+06
2.91048e+06
2.86803e+06
2.82588e+06
2.78403e+06
2.7425e+06
2.70127e+06
2.66035e+06
2.61974e+06
2.57945e+06
2.53946e+06
2.49979e+06
2.46042e+06
2.42137e+06
2.38262e+06
2.34418e+06
2.30604e+06
2.2682e+06
2.23067e+06
2.19342e+06
2.15647e+06
2.11978e+06
2.08337e+06
2.0472e+06
2.01126e+06
1.97551e+06
1.93991e+06
1.90441e+06
1.86894e+06
1.8334e+06
1.79772e+06
1.76192e+06
1.72635e+06
3.25579e+06
3.21593e+06
3.17163e+06
3.12735e+06
3.08335e+06
3.03967e+06
2.9963e+06
2.95323e+06
2.91048e+06
2.86802e+06
2.82587e+06
2.78403e+06
2.74249e+06
2.70127e+06
2.66035e+06
2.61974e+06
2.57945e+06
2.53946e+06
2.49979e+06
2.46043e+06
2.42137e+06
2.38263e+06
2.34419e+06
2.30606e+06
2.26823e+06
2.2307e+06
2.19346e+06
2.15652e+06
2.11986e+06
2.08347e+06
2.04734e+06
2.01146e+06
1.97578e+06
1.9403e+06
1.90496e+06
1.86972e+06
1.83455e+06
1.79944e+06
1.76452e+06
1.73014e+06
3.25581e+06
3.21595e+06
3.17164e+06
3.12736e+06
3.08335e+06
3.03966e+06
2.99629e+06
2.95323e+06
2.91047e+06
2.86802e+06
2.82587e+06
2.78403e+06
2.74249e+06
2.70127e+06
2.66035e+06
2.61974e+06
2.57945e+06
2.53947e+06
2.49979e+06
2.46043e+06
2.42138e+06
2.38264e+06
2.3442e+06
2.30607e+06
2.26825e+06
2.23073e+06
2.19351e+06
2.15658e+06
2.11995e+06
2.08359e+06
2.04751e+06
2.01168e+06
1.97609e+06
1.94072e+06
1.90556e+06
1.87057e+06
1.83576e+06
1.80117e+06
1.767e+06
1.73358e+06
3.25582e+06
3.21596e+06
3.17165e+06
3.12736e+06
3.08335e+06
3.03966e+06
2.99629e+06
2.95322e+06
2.91046e+06
2.86801e+06
2.82587e+06
2.78403e+06
2.74249e+06
2.70127e+06
2.66035e+06
2.61975e+06
2.57945e+06
2.53947e+06
2.4998e+06
2.46044e+06
2.42139e+06
2.38265e+06
2.34422e+06
2.30609e+06
2.26828e+06
2.23077e+06
2.19356e+06
2.15665e+06
2.12004e+06
2.08372e+06
2.04768e+06
2.01192e+06
1.97642e+06
1.94118e+06
1.90619e+06
1.87145e+06
1.83699e+06
1.8029e+06
1.76937e+06
1.73671e+06
3.25583e+06
3.21596e+06
3.17165e+06
3.12737e+06
3.08335e+06
3.03966e+06
2.99628e+06
2.95322e+06
2.91046e+06
2.86801e+06
2.82586e+06
2.78402e+06
2.74249e+06
2.70127e+06
2.66035e+06
2.61975e+06
2.57945e+06
2.53947e+06
2.4998e+06
2.46044e+06
2.42139e+06
2.38266e+06
2.34423e+06
2.30612e+06
2.26831e+06
2.23081e+06
2.19361e+06
2.15673e+06
2.12014e+06
2.08386e+06
2.04787e+06
2.01217e+06
1.97677e+06
1.94166e+06
1.90684e+06
1.87235e+06
1.83822e+06
1.80456e+06
1.77158e+06
1.73953e+06
3.25584e+06
3.21597e+06
3.17165e+06
3.12737e+06
3.08335e+06
3.03966e+06
2.99628e+06
2.95322e+06
2.91046e+06
2.86801e+06
2.82586e+06
2.78402e+06
2.74249e+06
2.70127e+06
2.66035e+06
2.61975e+06
2.57946e+06
2.53947e+06
2.49981e+06
2.46045e+06
2.4214e+06
2.38267e+06
2.34425e+06
2.30614e+06
2.26834e+06
2.23085e+06
2.19367e+06
2.1568e+06
2.12024e+06
2.084e+06
2.04806e+06
2.01243e+06
1.97712e+06
1.94214e+06
1.90749e+06
1.87323e+06
1.8394e+06
1.80613e+06
1.77362e+06
1.74205e+06
3.25584e+06
3.21597e+06
3.17166e+06
3.12737e+06
3.08335e+06
3.03966e+06
2.99628e+06
2.95322e+06
2.91046e+06
2.86801e+06
2.82586e+06
2.78402e+06
2.74249e+06
2.70127e+06
2.66035e+06
2.61975e+06
2.57946e+06
2.53948e+06
2.49981e+06
2.46046e+06
2.42141e+06
2.38268e+06
2.34427e+06
2.30616e+06
2.26837e+06
2.23089e+06
2.19373e+06
2.15688e+06
2.12035e+06
2.08414e+06
2.04825e+06
2.01269e+06
1.97747e+06
1.94261e+06
1.90813e+06
1.87407e+06
1.84052e+06
1.8076e+06
1.77547e+06
1.7443e+06
3.25583e+06
3.21596e+06
3.17165e+06
3.12737e+06
3.08335e+06
3.03966e+06
2.99628e+06
2.95322e+06
2.91046e+06
2.86801e+06
2.82587e+06
2.78403e+06
2.74249e+06
2.70127e+06
2.66036e+06
2.61975e+06
2.57946e+06
2.53948e+06
2.49982e+06
2.46046e+06
2.42142e+06
2.3827e+06
2.34428e+06
2.30618e+06
2.2684e+06
2.23093e+06
2.19378e+06
2.15695e+06
2.12045e+06
2.08428e+06
2.04844e+06
2.01294e+06
1.97781e+06
1.94306e+06
1.90873e+06
1.87487e+06
1.84156e+06
1.80893e+06
1.77714e+06
1.74632e+06
3.25582e+06
3.21596e+06
3.17165e+06
3.12737e+06
3.08335e+06
3.03966e+06
2.99629e+06
2.95322e+06
2.91047e+06
2.86801e+06
2.82587e+06
2.78403e+06
2.7425e+06
2.70127e+06
2.66036e+06
2.61975e+06
2.57946e+06
2.53949e+06
2.49982e+06
2.46047e+06
2.42143e+06
2.38271e+06
2.3443e+06
2.3062e+06
2.26843e+06
2.23097e+06
2.19384e+06
2.15703e+06
2.12055e+06
2.08441e+06
2.04861e+06
2.01318e+06
1.97813e+06
1.94348e+06
1.90929e+06
1.8756e+06
1.8425e+06
1.81011e+06
1.77859e+06
1.74809e+06
3.25581e+06
3.21595e+06
3.17164e+06
3.12736e+06
3.08335e+06
3.03966e+06
2.99629e+06
2.95323e+06
2.91047e+06
2.86802e+06
2.82587e+06
2.78403e+06
2.7425e+06
2.70127e+06
2.66036e+06
2.61976e+06
2.57947e+06
2.53949e+06
2.49983e+06
2.46048e+06
2.42144e+06
2.38272e+06
2.34431e+06
2.30623e+06
2.26846e+06
2.23101e+06
2.19389e+06
2.1571e+06
2.12064e+06
2.08453e+06
2.04878e+06
2.0134e+06
1.97842e+06
1.94387e+06
1.9098e+06
1.87626e+06
1.84335e+06
1.81117e+06
1.77987e+06
1.74961e+06
3.25579e+06
3.21593e+06
3.17163e+06
3.12735e+06
3.08335e+06
3.03967e+06
2.9963e+06
2.95324e+06
2.91048e+06
2.86802e+06
2.82588e+06
2.78403e+06
2.7425e+06
2.70128e+06
2.66036e+06
2.61976e+06
2.57947e+06
2.53949e+06
2.49983e+06
2.46048e+06
2.42145e+06
2.38273e+06
2.34433e+06
2.30624e+06
2.26848e+06
2.23104e+06
2.19393e+06
2.15716e+06
2.12072e+06
2.08464e+06
2.04893e+06
2.0136e+06
1.97868e+06
1.94422e+06
1.91025e+06
1.87684e+06
1.84408e+06
1.81208e+06
1.78097e+06
1.75088e+06
3.25577e+06
3.21591e+06
3.17162e+06
3.12735e+06
3.08335e+06
3.03967e+06
2.99631e+06
2.95324e+06
2.91049e+06
2.86803e+06
2.82588e+06
2.78404e+06
2.7425e+06
2.70128e+06
2.66036e+06
2.61976e+06
2.57947e+06
2.5395e+06
2.49984e+06
2.46049e+06
2.42145e+06
2.38274e+06
2.34434e+06
2.30626e+06
2.2685e+06
2.23107e+06
2.19397e+06
2.15721e+06
2.12079e+06
2.08474e+06
2.04906e+06
2.01377e+06
1.97891e+06
1.94452e+06
1.91064e+06
1.87734e+06
1.8447e+06
1.81284e+06
1.78187e+06
1.75192e+06
3.25574e+06
3.21589e+06
3.1716e+06
3.12734e+06
3.08335e+06
3.03968e+06
2.99632e+06
2.95325e+06
2.91049e+06
2.86804e+06
2.82589e+06
2.78404e+06
2.74251e+06
2.70128e+06
2.66037e+06
2.61977e+06
2.57948e+06
2.5395e+06
2.49984e+06
2.46049e+06
2.42146e+06
2.38275e+06
2.34435e+06
2.30627e+06
2.26852e+06
2.2311e+06
2.19401e+06
2.15725e+06
2.12085e+06
2.08482e+06
2.04916e+06
2.01391e+06
1.9791e+06
1.94476e+06
1.91095e+06
1.87774e+06
1.84521e+06
1.81345e+06
1.78259e+06
1.75272e+06
3.2557e+06
3.21586e+06
3.17158e+06
3.12734e+06
3.08336e+06
3.03969e+06
2.99633e+06
2.95327e+06
2.91051e+06
2.86805e+06
2.82589e+06
2.78405e+06
2.74251e+06
2.70128e+06
2.66037e+06
2.61977e+06
2.57948e+06
2.5395e+06
2.49984e+06
2.4605e+06
2.42147e+06
2.38275e+06
2.34436e+06
2.30628e+06
2.26854e+06
2.23112e+06
2.19403e+06
2.15729e+06
2.1209e+06
2.08488e+06
2.04924e+06
2.01402e+06
1.97924e+06
1.94495e+06
1.91119e+06
1.87805e+06
1.84559e+06
1.81392e+06
1.78315e+06
1.75332e+06
3.25565e+06
3.21582e+06
3.17156e+06
3.12733e+06
3.08336e+06
3.0397e+06
2.99635e+06
2.95328e+06
2.91052e+06
2.86806e+06
2.8259e+06
2.78405e+06
2.74251e+06
2.70129e+06
2.66037e+06
2.61977e+06
2.57948e+06
2.53951e+06
2.49984e+06
2.4605e+06
2.42147e+06
2.38276e+06
2.34436e+06
2.30629e+06
2.26855e+06
2.23113e+06
2.19405e+06
2.15731e+06
2.12093e+06
2.08492e+06
2.0493e+06
2.01409e+06
1.97934e+06
1.94507e+06
1.91136e+06
1.87825e+06
1.84584e+06
1.81423e+06
1.7835e+06
1.75372e+06
3.25559e+06
3.21578e+06
3.17153e+06
3.12732e+06
3.08336e+06
3.0397e+06
2.99635e+06
2.95329e+06
2.91052e+06
2.86806e+06
2.8259e+06
2.78405e+06
2.74252e+06
2.70129e+06
2.66037e+06
2.61977e+06
2.57948e+06
2.53951e+06
2.49985e+06
2.4605e+06
2.42147e+06
2.38276e+06
2.34437e+06
2.30629e+06
2.26855e+06
2.23113e+06
2.19406e+06
2.15732e+06
2.12095e+06
2.08494e+06
2.04933e+06
2.01413e+06
1.97939e+06
1.94514e+06
1.91144e+06
1.87836e+06
1.84597e+06
1.81438e+06
1.78368e+06
1.75392e+06
1.67193e+06
1.65944e+06
1.64949e+06
1.64131e+06
1.63412e+06
1.62745e+06
1.62113e+06
1.61507e+06
1.60921e+06
1.60352e+06
1.59795e+06
1.59249e+06
1.58713e+06
1.58184e+06
1.57663e+06
1.57148e+06
1.56638e+06
1.56133e+06
1.55633e+06
1.55136e+06
1.54643e+06
1.54153e+06
1.53666e+06
1.53181e+06
1.52699e+06
1.5222e+06
1.51742e+06
1.51266e+06
1.50792e+06
1.5032e+06
1.49849e+06
1.4938e+06
1.48913e+06
1.48446e+06
1.47982e+06
1.47518e+06
1.47056e+06
1.46595e+06
1.46136e+06
1.45678e+06
1.45221e+06
1.44765e+06
1.4431e+06
1.43856e+06
1.43404e+06
1.42953e+06
1.42502e+06
1.42053e+06
1.41605e+06
1.41158e+06
1.40711e+06
1.40266e+06
1.39822e+06
1.39378e+06
1.38936e+06
1.38494e+06
1.38053e+06
1.37612e+06
1.37173e+06
1.36734e+06
1.36295e+06
1.35858e+06
1.35421e+06
1.34985e+06
1.34549e+06
1.34114e+06
1.3368e+06
1.33246e+06
1.32813e+06
1.32381e+06
1.31949e+06
1.31518e+06
1.31087e+06
1.30657e+06
1.30228e+06
1.29799e+06
1.29371e+06
1.28943e+06
1.28517e+06
1.2809e+06
1.27665e+06
1.2724e+06
1.26816e+06
1.26392e+06
1.25969e+06
1.25547e+06
1.25126e+06
1.24705e+06
1.24286e+06
1.23867e+06
1.23448e+06
1.23031e+06
1.22614e+06
1.22198e+06
1.21782e+06
1.21368e+06
1.20954e+06
1.20541e+06
1.20128e+06
1.19717e+06
1.19306e+06
1.18895e+06
1.18486e+06
1.18077e+06
1.17669e+06
1.17262e+06
1.16855e+06
1.16449e+06
1.16044e+06
1.1564e+06
1.15236e+06
1.14834e+06
1.14432e+06
1.1403e+06
1.1363e+06
1.1323e+06
1.12831e+06
1.12433e+06
1.12035e+06
1.11639e+06
1.11243e+06
1.10848e+06
1.10453e+06
1.1006e+06
1.09667e+06
1.09275e+06
1.08883e+06
1.08493e+06
1.08103e+06
1.07714e+06
1.07325e+06
1.06938e+06
1.06551e+06
1.06164e+06
1.05779e+06
1.05394e+06
1.0501e+06
1.04627e+06
1.04244e+06
1.03862e+06
1.03481e+06
1.031e+06
1.0272e+06
1.02341e+06
1.01963e+06
1.01585e+06
1.01208e+06
1.00832e+06
1.00457e+06
1.00082e+06
997083
993352
989629
985914
982206
978506
974814
971130
967454
963785
960125
956471
952826
949188
945558
941935
938320
934712
931111
927518
923932
920353
916780
913215
909656
906104
902559
899020
895486
891959
888438
884922
881411
877906
874405
870909
867418
863932
860450
856973
853500
850033
846570
843111
839658
836209
832766
829328
825895
822468
819048
815633
812225
808823
805428
802040
798660
795287
791921
788564
785215
781873
778540
775215
771898
768589
765289
761997
758713
755437
752169
748909
745657
742413
739177
735948
732726
729512
726304
723104
719911
716725
713546
710374
707209
704052
700901
697758
694622
691492
688370
685254
682146
679045
675950
672863
669783
666709
663644
660585
657533
654489
651452
648422
645400
642384
639376
636376
633383
630398
627420
624450
621487
618532
615585
612645
609713
606789
603873
600964
598063
595169
592284
589405
586535
583671
580815
577966
575125
572291
569463
566643
563830
561023
558223
555430
552644
549864
547090
544323
541563
538808
536060
533318
530582
527853
525130
522413
519702
516997
514299
511607
508921
506242
503570
500904
498246
495594
492949
490311
487680
485057
482440
479832
477231
474637
472051
469472
466902
464339
461783
459235
456695
454163
451638
449121
446612
444110
441616
439130
436651
434180
431717
429260
426811
424369
421934
419506
417085
414671
412264
409864
407470
405083
402702
400328
397960
395599
393243
390894
388550
386213
383881
381554
379233
376918
374607
372302
370001
367705
365414
363127
360844
358565
356290
354019
351751
349485
347223
344963
342705
340450
338195
335943
333690
331439
329187
326934
324680
322424
320164
317901
315632
313357
311073
308778
306470
304145
301801
299432
297032
294596
292112
289569
286945
284215
281335
278234
274743
270782
1.68419e+06
1.6725e+06
1.66221e+06
1.65299e+06
1.64472e+06
1.63712e+06
1.63e+06
1.62324e+06
1.61678e+06
1.61055e+06
1.60451e+06
1.59863e+06
1.59289e+06
1.58725e+06
1.58172e+06
1.57627e+06
1.5709e+06
1.5656e+06
1.56036e+06
1.55517e+06
1.55003e+06
1.54494e+06
1.53989e+06
1.53487e+06
1.52989e+06
1.52495e+06
1.52003e+06
1.51514e+06
1.51027e+06
1.50543e+06
1.50061e+06
1.49581e+06
1.49103e+06
1.48628e+06
1.48154e+06
1.47682e+06
1.47212e+06
1.46743e+06
1.46276e+06
1.45811e+06
1.45347e+06
1.44885e+06
1.44424e+06
1.43965e+06
1.43507e+06
1.4305e+06
1.42595e+06
1.42141e+06
1.41688e+06
1.41237e+06
1.40786e+06
1.40337e+06
1.39889e+06
1.39442e+06
1.38996e+06
1.38551e+06
1.38106e+06
1.37663e+06
1.3722e+06
1.36779e+06
1.36338e+06
1.35898e+06
1.35459e+06
1.3502e+06
1.34583e+06
1.34146e+06
1.3371e+06
1.33274e+06
1.3284e+06
1.32406e+06
1.31972e+06
1.3154e+06
1.31108e+06
1.30677e+06
1.30246e+06
1.29816e+06
1.29387e+06
1.28958e+06
1.28531e+06
1.28104e+06
1.27677e+06
1.27252e+06
1.26827e+06
1.26403e+06
1.25979e+06
1.25556e+06
1.25135e+06
1.24713e+06
1.24293e+06
1.23874e+06
1.23455e+06
1.23037e+06
1.22619e+06
1.22203e+06
1.21787e+06
1.21372e+06
1.20958e+06
1.20545e+06
1.20132e+06
1.1972e+06
1.19309e+06
1.18898e+06
1.18489e+06
1.1808e+06
1.17672e+06
1.17265e+06
1.16858e+06
1.16452e+06
1.16047e+06
1.15643e+06
1.15239e+06
1.14837e+06
1.14435e+06
1.14034e+06
1.13633e+06
1.13234e+06
1.12835e+06
1.12437e+06
1.12039e+06
1.11643e+06
1.11247e+06
1.10852e+06
1.10458e+06
1.10064e+06
1.09671e+06
1.09279e+06
1.08888e+06
1.08498e+06
1.08108e+06
1.07719e+06
1.07331e+06
1.06943e+06
1.06556e+06
1.0617e+06
1.05785e+06
1.05401e+06
1.05017e+06
1.04634e+06
1.04251e+06
1.0387e+06
1.03489e+06
1.03109e+06
1.02729e+06
1.0235e+06
1.01972e+06
1.01595e+06
1.01219e+06
1.00843e+06
1.00468e+06
1.00094e+06
997201
993473
989754
986041
982337
978640
974951
971269
967595
963929
960271
956621
952978
949342
945715
942094
938482
934876
931278
927687
924104
920527
916958
913395
909840
906291
902749
899213
895684
892160
888642
885129
881621
878117
874618
871123
867633
864147
860665
857188
853715
850246
846781
843321
839865
836414
832967
829525
826089
822658
819232
815813
812399
808992
805592
802198
798812
795433
792062
788699
785343
781996
778657
775326
772003
768689
765383
762085
758797
755516
752244
748981
745725
742477
739237
736004
732779
729560
726350
723146
719949
716760
713578
710403
707236
704076
700923
697777
694639
691508
688384
685268
682159
679056
675962
672874
669793
666720
663654
660595
657543
654499
651463
648433
645411
642396
639389
636389
633397
630412
627435
624465
621503
618548
615601
612662
609730
606806
603890
600982
598081
595188
592303
589425
586554
583691
580835
577987
575145
572311
569483
566662
563848
561041
558240
555446
552659
549877
547102
544333
541571
538814
536063
533319
530580
527848
525122
522401
519687
516979
514277
511581
508892
506209
503532
500863
498199
495543
492894
490251
487616
484987
482366
479752
477146
474547
471955
469371
466795
464225
461664
459110
456564
454024
451493
448968
446451
443942
441440
438945
436457
433977
431504
429038
426579
424127
421682
419243
416810
414384
411965
409552
407145
404744
402348
399959
397576
395198
392825
390458
388096
385739
383386
381039
378695
376357
374021
371691
369363
367040
364718
362401
360086
357773
355463
353154
350847
348541
346236
343931
341626
339321
337014
334706
332396
330083
327767
325446
323119
320786
318445
316094
313732
311356
308965
306554
304121
301662
299170
296639
294062
291428
288724
285933
283033
279993
276776
273311
269549
265304
1.69253e+06
1.68169e+06
1.67164e+06
1.66228e+06
1.65364e+06
1.64556e+06
1.63795e+06
1.63072e+06
1.6238e+06
1.61714e+06
1.61071e+06
1.60446e+06
1.59838e+06
1.59243e+06
1.5866e+06
1.58089e+06
1.57526e+06
1.56973e+06
1.56426e+06
1.55887e+06
1.55354e+06
1.54826e+06
1.54304e+06
1.53786e+06
1.53273e+06
1.52763e+06
1.52258e+06
1.51756e+06
1.51257e+06
1.50761e+06
1.50268e+06
1.49778e+06
1.49291e+06
1.48806e+06
1.48323e+06
1.47843e+06
1.47365e+06
1.46888e+06
1.46414e+06
1.45942e+06
1.45472e+06
1.45003e+06
1.44537e+06
1.44072e+06
1.43608e+06
1.43147e+06
1.42687e+06
1.42228e+06
1.41771e+06
1.41315e+06
1.4086e+06
1.40407e+06
1.39955e+06
1.39504e+06
1.39055e+06
1.38607e+06
1.38159e+06
1.37713e+06
1.37268e+06
1.36823e+06
1.3638e+06
1.35937e+06
1.35496e+06
1.35055e+06
1.34616e+06
1.34177e+06
1.33739e+06
1.33301e+06
1.32865e+06
1.3243e+06
1.31995e+06
1.31561e+06
1.31127e+06
1.30695e+06
1.30263e+06
1.29832e+06
1.29402e+06
1.28973e+06
1.28544e+06
1.28116e+06
1.27689e+06
1.27263e+06
1.26837e+06
1.26413e+06
1.25989e+06
1.25565e+06
1.25143e+06
1.24721e+06
1.24301e+06
1.23881e+06
1.23461e+06
1.23043e+06
1.22625e+06
1.22209e+06
1.21793e+06
1.21377e+06
1.20963e+06
1.20549e+06
1.20136e+06
1.19724e+06
1.19313e+06
1.18903e+06
1.18493e+06
1.18084e+06
1.17676e+06
1.17269e+06
1.16862e+06
1.16456e+06
1.16052e+06
1.15647e+06
1.15244e+06
1.14841e+06
1.14439e+06
1.14038e+06
1.13638e+06
1.13239e+06
1.1284e+06
1.12442e+06
1.12045e+06
1.11648e+06
1.11252e+06
1.10857e+06
1.10463e+06
1.1007e+06
1.09677e+06
1.09286e+06
1.08894e+06
1.08504e+06
1.08115e+06
1.07726e+06
1.07338e+06
1.06951e+06
1.06564e+06
1.06178e+06
1.05793e+06
1.05409e+06
1.05026e+06
1.04643e+06
1.04261e+06
1.03879e+06
1.03499e+06
1.03119e+06
1.0274e+06
1.02362e+06
1.01984e+06
1.01607e+06
1.01231e+06
1.00855e+06
1.00481e+06
1.00107e+06
997336
993611
989894
986184
982482
978787
975100
971421
967749
964085
960429
956780
953139
949505
945879
942260
938649
935044
931447
927857
924274
920699
917131
913571
910018
906473
902935
899403
895877
892357
888841
885331
881825
878323
874826
871333
867844
864359
860878
857401
853929
850460
846995
843533
840076
836623
833174
829730
826290
822856
819426
816002
812584
809171
805765
802366
798973
795588
792211
788841
785479
782125
778780
775443
772114
768794
765483
762181
758888
755604
752328
749060
745800
742548
739303
736066
732836
729613
726398
723190
719990
716797
713612
710434
707263
704100
700944
697796
694656
691523
688397
685279
682169
679066
675970
672882
669801
666727
663661
660603
657551
654508
651471
648442
645421
642407
639400
636401
633410
630426
627449
624480
621518
618565
615619
612680
609750
606827
603911
601004
598103
595211
592326
589448
586578
583714
580858
578009
575167
572332
569504
566682
563867
561059
558258
555462
552674
549891
547114
544344
541579
538821
536068
533321
530580
527844
525115
522392
519674
516963
514257
511558
508865
506178
503497
500823
498156
495495
492841
490194
487554
484921
482295
479676
477064
474460
471863
469273
466691
464116
461548
458988
456434
453888
451350
448818
446293
443776
441265
438761
436265
433775
431293
428817
426347
423885
421428
418979
416535
414097
411665
409239
406818
404404
401994
399591
397190
394797
392407
390023
387642
385266
382893
380525
378159
375798
373439
371083
368730
366378
364029
361681
359335
356989
354645
352300
349956
347610
345264
342916
340566
338213
335857
333496
331131
328760
326382
323996
321602
319196
316778
314346
311898
309431
306943
304429
301886
299309
296692
294027
291308
288521
285658
282701
279632
276432
273068
269502
265733
261688
1.69892e+06
1.68871e+06
1.67903e+06
1.66981e+06
1.66109e+06
1.65282e+06
1.64493e+06
1.6374e+06
1.63016e+06
1.62319e+06
1.61644e+06
1.6099e+06
1.60353e+06
1.59731e+06
1.59123e+06
1.58528e+06
1.57943e+06
1.57367e+06
1.56801e+06
1.56242e+06
1.55691e+06
1.55146e+06
1.54608e+06
1.54075e+06
1.53547e+06
1.53024e+06
1.52505e+06
1.51991e+06
1.51481e+06
1.50974e+06
1.5047e+06
1.4997e+06
1.49473e+06
1.48979e+06
1.48488e+06
1.48e+06
1.47514e+06
1.4703e+06
1.46549e+06
1.4607e+06
1.45594e+06
1.45119e+06
1.44647e+06
1.44176e+06
1.43708e+06
1.43241e+06
1.42776e+06
1.42312e+06
1.41851e+06
1.41391e+06
1.40932e+06
1.40475e+06
1.4002e+06
1.39565e+06
1.39112e+06
1.38661e+06
1.3821e+06
1.37761e+06
1.37313e+06
1.36866e+06
1.3642e+06
1.35975e+06
1.35532e+06
1.35089e+06
1.34647e+06
1.34206e+06
1.33767e+06
1.33328e+06
1.3289e+06
1.32453e+06
1.32016e+06
1.31581e+06
1.31147e+06
1.30713e+06
1.3028e+06
1.29848e+06
1.29417e+06
1.28987e+06
1.28557e+06
1.28129e+06
1.27701e+06
1.27274e+06
1.26848e+06
1.26423e+06
1.25998e+06
1.25574e+06
1.25152e+06
1.2473e+06
1.24308e+06
1.23888e+06
1.23468e+06
1.2305e+06
1.22632e+06
1.22215e+06
1.21799e+06
1.21383e+06
1.20969e+06
1.20555e+06
1.20142e+06
1.1973e+06
1.19319e+06
1.18908e+06
1.18498e+06
1.1809e+06
1.17682e+06
1.17274e+06
1.16868e+06
1.16462e+06
1.16057e+06
1.15653e+06
1.1525e+06
1.14847e+06
1.14446e+06
1.14045e+06
1.13644e+06
1.13245e+06
1.12846e+06
1.12448e+06
1.12051e+06
1.11655e+06
1.1126e+06
1.10865e+06
1.10471e+06
1.10078e+06
1.09685e+06
1.09294e+06
1.08903e+06
1.08513e+06
1.08123e+06
1.07735e+06
1.07347e+06
1.0696e+06
1.06574e+06
1.06188e+06
1.05804e+06
1.0542e+06
1.05036e+06
1.04654e+06
1.04272e+06
1.03891e+06
1.03511e+06
1.03131e+06
1.02753e+06
1.02374e+06
1.01997e+06
1.01621e+06
1.01245e+06
1.0087e+06
1.00495e+06
1.00122e+06
997486
993763
990048
986341
982640
978947
975262
971583
967912
964249
960593
956944
953303
949668
946041
942421
938808
935203
931605
928014
924431
920856
917290
913732
910182
906639
903104
899575
896053
892535
889023
885515
882011
878511
875016
871525
868038
864555
861077
857601
854130
850662
847197
843736
840279
836825
833376
829930
826489
823051
819618
816190
812767
809349
805937
802531
799133
795741
792357
788980
785611
782251
778899
775556
772222
768897
765582
762276
758978
755690
752410
749138
745874
742617
739368
736126
732892
729664
726445
723233
720028
716831
713642
710460
707286
704119
700961
697810
694667
691532
688404
685285
682173
679069
675973
672884
669803
666729
663663
660605
657554
654511
651475
648447
645426
642413
639408
636410
633419
630436
627461
624493
621533
618580
615636
612698
609769
606847
603933
601026
598126
595234
592349
589471
586600
583737
580880
578030
575187
572351
569522
566700
563884
561075
558272
555476
552685
549902
547124
544352
541586
538825
536071
533322
530578
527841
525109
522383
519663
516948
514239
511537
508840
506149
503465
500787
498115
495450
492792
490140
487495
484858
482227
479604
476987
474377
471775
469180
466591
464011
461436
458870
456310
453757
451211
448672
446140
443614
441095
438583
436077
433578
431085
428599
426119
423646
421178
418718
416261
413812
411367
408929
406495
404067
401643
399224
396809
394399
391993
389591
387192
384797
382405
380016
377630
375245
372864
370483
368104
365726
363350
360973
358597
356220
353843
351463
349083
346700
344314
341925
339532
337134
334730
332320
329903
327477
325041
322596
320137
317665
315177
312673
310147
307599
305026
302423
299787
297111
294393
291622
288795
285900
282929
279870
276710
273436
270034
266479
262796
258967
1.70444e+06
1.69466e+06
1.68518e+06
1.67606e+06
1.66735e+06
1.659e+06
1.65099e+06
1.64329e+06
1.63585e+06
1.62866e+06
1.62168e+06
1.61491e+06
1.60831e+06
1.60187e+06
1.59557e+06
1.58941e+06
1.58336e+06
1.57742e+06
1.57157e+06
1.56581e+06
1.56013e+06
1.55453e+06
1.549e+06
1.54352e+06
1.53811e+06
1.53275e+06
1.52744e+06
1.52218e+06
1.51697e+06
1.51179e+06
1.50666e+06
1.50156e+06
1.4965e+06
1.49148e+06
1.48648e+06
1.48152e+06
1.47659e+06
1.47168e+06
1.4668e+06
1.46195e+06
1.45712e+06
1.45232e+06
1.44754e+06
1.44278e+06
1.43804e+06
1.43332e+06
1.42863e+06
1.42395e+06
1.41929e+06
1.41465e+06
1.41002e+06
1.40541e+06
1.40082e+06
1.39624e+06
1.39168e+06
1.38713e+06
1.3826e+06
1.37808e+06
1.37357e+06
1.36908e+06
1.3646e+06
1.36012e+06
1.35567e+06
1.35122e+06
1.34678e+06
1.34235e+06
1.33794e+06
1.33353e+06
1.32914e+06
1.32475e+06
1.32038e+06
1.31601e+06
1.31166e+06
1.30731e+06
1.30297e+06
1.29864e+06
1.29432e+06
1.29001e+06
1.28571e+06
1.28141e+06
1.27713e+06
1.27285e+06
1.26859e+06
1.26433e+06
1.26008e+06
1.25584e+06
1.25161e+06
1.24738e+06
1.24317e+06
1.23896e+06
1.23476e+06
1.23057e+06
1.22639e+06
1.22222e+06
1.21806e+06
1.2139e+06
1.20976e+06
1.20562e+06
1.20149e+06
1.19737e+06
1.19325e+06
1.18915e+06
1.18505e+06
1.18096e+06
1.17688e+06
1.17281e+06
1.16875e+06
1.16469e+06
1.16064e+06
1.1566e+06
1.15257e+06
1.14855e+06
1.14453e+06
1.14052e+06
1.13652e+06
1.13253e+06
1.12855e+06
1.12457e+06
1.1206e+06
1.11664e+06
1.11268e+06
1.10874e+06
1.1048e+06
1.10087e+06
1.09695e+06
1.09303e+06
1.08913e+06
1.08523e+06
1.08134e+06
1.07745e+06
1.07358e+06
1.06971e+06
1.06585e+06
1.062e+06
1.05815e+06
1.05431e+06
1.05048e+06
1.04666e+06
1.04285e+06
1.03904e+06
1.03524e+06
1.03145e+06
1.02766e+06
1.02389e+06
1.02012e+06
1.01635e+06
1.0126e+06
1.00885e+06
1.00511e+06
1.00137e+06
997644
993923
990208
986501
982801
979107
975421
971742
968069
964404
960746
957095
953451
949814
946184
942561
938946
935338
931738
928146
924563
920989
917423
913867
910318
906778
903244
899718
896198
892683
889173
885667
882166
878669
875176
871688
868204
864724
861248
857775
854306
850841
847378
843919
840462
837010
833560
830114
826671
823231
819795
816362
812934
809511
806094
802682
799277
795879
792488
789105
785729
782362
779004
775656
772317
768987
765668
762358
759057
755765
752482
749206
745938
742677
739423
736177
732939
729707
726484
723267
720058
716857
713663
710477
707300
704130
700968
697814
694669
691531
688402
685281
682168
679063
675966
672877
669796
666723
663657
660599
657549
654506
651471
648444
645425
642413
639408
636412
633423
630441
627467
624501
621543
618592
615649
612713
609785
606864
603951
601045
598146
595254
592368
589490
586619
583755
580897
578047
575203
572366
569536
566713
563896
561086
558282
555485
552694
549909
547130
544356
541589
538827
536071
533321
530576
527836
525102
522374
519651
516934
514222
511516
508816
506122
503434
500752
498077
495408
492745
490089
487440
484798
482163
479534
476913
474298
471691
469090
466497
463910
461330
458757
456191
453632
451079
448532
445992
443459
440932
438411
435896
433388
430885
428389
425899
423415
420936
418463
415996
413534
411077
408625
406178
403735
401297
398863
396434
394008
391585
389166
386749
384336
381925
379515
377108
374702
372298
369894
367491
365088
362685
360281
357876
355469
353060
350649
348234
345816
343393
340965
338531
336091
333642
331186
328720
326244
323756
321255
318739
316207
313658
311087
308495
305876
303231
300551
297839
295084
292286
289437
286531
283563
280524
277407
274204
270907
267512
264005
260411
256730
1.70888e+06
1.69942e+06
1.69027e+06
1.68138e+06
1.67277e+06
1.66443e+06
1.65636e+06
1.64853e+06
1.64095e+06
1.63359e+06
1.62643e+06
1.61948e+06
1.61269e+06
1.60607e+06
1.5996e+06
1.59326e+06
1.58704e+06
1.58093e+06
1.57493e+06
1.56901e+06
1.56319e+06
1.55744e+06
1.55177e+06
1.54617e+06
1.54063e+06
1.53515e+06
1.52973e+06
1.52436e+06
1.51904e+06
1.51377e+06
1.50854e+06
1.50336e+06
1.49821e+06
1.4931e+06
1.48803e+06
1.48299e+06
1.47799e+06
1.47302e+06
1.46807e+06
1.46316e+06
1.45827e+06
1.45341e+06
1.44858e+06
1.44377e+06
1.43898e+06
1.43421e+06
1.42947e+06
1.42475e+06
1.42005e+06
1.41537e+06
1.4107e+06
1.40606e+06
1.40143e+06
1.39682e+06
1.39223e+06
1.38765e+06
1.38309e+06
1.37854e+06
1.37401e+06
1.36949e+06
1.36498e+06
1.36049e+06
1.35601e+06
1.35154e+06
1.34709e+06
1.34264e+06
1.33821e+06
1.33379e+06
1.32938e+06
1.32498e+06
1.32059e+06
1.31622e+06
1.31185e+06
1.30749e+06
1.30314e+06
1.2988e+06
1.29447e+06
1.29016e+06
1.28585e+06
1.28155e+06
1.27725e+06
1.27297e+06
1.2687e+06
1.26444e+06
1.26018e+06
1.25594e+06
1.2517e+06
1.24748e+06
1.24326e+06
1.23905e+06
1.23485e+06
1.23066e+06
1.22648e+06
1.2223e+06
1.21814e+06
1.21398e+06
1.20984e+06
1.2057e+06
1.20157e+06
1.19745e+06
1.19333e+06
1.18923e+06
1.18513e+06
1.18104e+06
1.17697e+06
1.17289e+06
1.16883e+06
1.16478e+06
1.16073e+06
1.15669e+06
1.15266e+06
1.14864e+06
1.14462e+06
1.14062e+06
1.13662e+06
1.13263e+06
1.12864e+06
1.12467e+06
1.1207e+06
1.11674e+06
1.11279e+06
1.10884e+06
1.1049e+06
1.10098e+06
1.09705e+06
1.09314e+06
1.08924e+06
1.08534e+06
1.08145e+06
1.07757e+06
1.07369e+06
1.06983e+06
1.06597e+06
1.06212e+06
1.05828e+06
1.05444e+06
1.05062e+06
1.0468e+06
1.04298e+06
1.03918e+06
1.03538e+06
1.03159e+06
1.02781e+06
1.02403e+06
1.02026e+06
1.0165e+06
1.01275e+06
1.009e+06
1.00526e+06
1.00152e+06
997796
994074
990358
986649
982946
979250
975561
971879
968204
964535
960873
957218
953570
949929
946295
942669
939051
935441
931839
928246