/*--------------------------------*- C++ -*----------------------------------*\
| =========                 |                                                 |
| \\      /  F ield         | OpenFOAM: The Open Source CFD Toolbox           |
|  \\    /   O peration     | Version:  2.4.0                                 |
|   \\  /    A nd           | Web:      www.OpenFOAM.org                      |
|    \\/     M anipulation  |                                                 |
\*---------------------------------------------------------------------------*/
FoamFile
{
    version     2.0;
    format      ascii;
    class       volScalarField;
    location    "0.075";
    object      pPrime2Mean;
}
// * * * * * * * * * * * * * * * * * * * * * * * * * * * * * * * * * * * * * //

dimensions      [0 4 -4 0 0 0 0];

internalField   nonuniform List<scalar> 
17600
(
8.6148e+06
8.39758e+06
8.164e+06
7.93251e+06
7.70431e+06
7.47946e+06
7.25792e+06
7.0397e+06
6.82479e+06
6.6132e+06
6.40489e+06
6.19984e+06
5.99798e+06
5.79922e+06
5.60335e+06
5.40997e+06
5.21836e+06
5.02698e+06
4.83241e+06
4.62307e+06
8.61498e+06
8.39757e+06
8.164e+06
7.93251e+06
7.70431e+06
7.47946e+06
7.25792e+06
7.0397e+06
6.82479e+06
6.6132e+06
6.40489e+06
6.19984e+06
5.99799e+06
5.79923e+06
5.60336e+06
5.41e+06
5.21841e+06
5.02709e+06
4.8327e+06
4.6236e+06
8.61512e+06
8.39754e+06
8.16398e+06
7.93251e+06
7.70431e+06
7.47945e+06
7.25792e+06
7.0397e+06
6.82479e+06
6.6132e+06
6.40489e+06
6.19984e+06
5.998e+06
5.79925e+06
5.60339e+06
5.41005e+06
5.21851e+06
5.02731e+06
4.8332e+06
4.62573e+06
8.61521e+06
8.39751e+06
8.16396e+06
7.9325e+06
7.70431e+06
7.47945e+06
7.25792e+06
7.0397e+06
6.8248e+06
6.6132e+06
6.40489e+06
6.19985e+06
5.99801e+06
5.79927e+06
5.60343e+06
5.41013e+06
5.21867e+06
5.02764e+06
4.83396e+06
4.62873e+06
8.61529e+06
8.39748e+06
8.16394e+06
7.93249e+06
7.7043e+06
7.47945e+06
7.25792e+06
7.0397e+06
6.8248e+06
6.6132e+06
6.4049e+06
6.19986e+06
5.99802e+06
5.7993e+06
5.60348e+06
5.41023e+06
5.21887e+06
5.02807e+06
4.83496e+06
4.63231e+06
8.61536e+06
8.39745e+06
8.16391e+06
7.93249e+06
7.7043e+06
7.47945e+06
7.25791e+06
7.0397e+06
6.8248e+06
6.6132e+06
6.4049e+06
6.19987e+06
5.99804e+06
5.79933e+06
5.60355e+06
5.41036e+06
5.21912e+06
5.02859e+06
4.83618e+06
4.63624e+06
8.61543e+06
8.39742e+06
8.16388e+06
7.93248e+06
7.7043e+06
7.47944e+06
7.25791e+06
7.0397e+06
6.8248e+06
6.61321e+06
6.40491e+06
6.19988e+06
5.99807e+06
5.79937e+06
5.60363e+06
5.41051e+06
5.21941e+06
5.02919e+06
4.83758e+06
4.64035e+06
8.61549e+06
8.3974e+06
8.16386e+06
7.93247e+06
7.7043e+06
7.47944e+06
7.25791e+06
7.03969e+06
6.8248e+06
6.61321e+06
6.40492e+06
6.19989e+06
5.99809e+06
5.79942e+06
5.60372e+06
5.41068e+06
5.21975e+06
5.02988e+06
4.83912e+06
4.64454e+06
8.61555e+06
8.39739e+06
8.16383e+06
7.93246e+06
7.7043e+06
7.47944e+06
7.25791e+06
7.03969e+06
6.8248e+06
6.61321e+06
6.40493e+06
6.19991e+06
5.99812e+06
5.79948e+06
5.60382e+06
5.41087e+06
5.22012e+06
5.03063e+06
4.84079e+06
4.64875e+06
8.6156e+06
8.39737e+06
8.16381e+06
7.93246e+06
7.70429e+06
7.47944e+06
7.25791e+06
7.03969e+06
6.8248e+06
6.61322e+06
6.40493e+06
6.19993e+06
5.99815e+06
5.79954e+06
5.60393e+06
5.41108e+06
5.22052e+06
5.03145e+06
4.84254e+06
4.65291e+06
8.61565e+06
8.39736e+06
8.16379e+06
7.93245e+06
7.70429e+06
7.47944e+06
7.2579e+06
7.03969e+06
6.8248e+06
6.61322e+06
6.40494e+06
6.19995e+06
5.99819e+06
5.7996e+06
5.60405e+06
5.41131e+06
5.22096e+06
5.03231e+06
4.84437e+06
4.657e+06
8.61569e+06
8.39736e+06
8.16377e+06
7.93244e+06
7.7043e+06
7.47944e+06
7.2579e+06
7.03969e+06
6.8248e+06
6.61323e+06
6.40496e+06
6.19997e+06
5.99823e+06
5.79967e+06
5.60418e+06
5.41155e+06
5.22142e+06
5.03322e+06
4.84624e+06
4.66099e+06
8.61572e+06
8.39735e+06
8.16376e+06
7.93243e+06
7.7043e+06
7.47944e+06
7.2579e+06
7.03969e+06
6.8248e+06
6.61323e+06
6.40497e+06
6.19999e+06
5.99827e+06
5.79975e+06
5.60432e+06
5.41181e+06
5.22191e+06
5.03417e+06
4.84815e+06
4.66487e+06
8.61575e+06
8.39735e+06
8.16374e+06
7.93243e+06
7.7043e+06
7.47944e+06
7.2579e+06
7.03969e+06
6.8248e+06
6.61324e+06
6.40498e+06
6.20001e+06
5.99831e+06
5.79982e+06
5.60446e+06
5.41208e+06
5.22242e+06
5.03514e+06
4.85006e+06
4.66861e+06
8.61578e+06
8.39735e+06
8.16373e+06
7.93242e+06
7.7043e+06
7.47945e+06
7.2579e+06
7.03969e+06
6.82481e+06
6.61324e+06
6.40499e+06
6.20004e+06
5.99835e+06
5.7999e+06
5.60461e+06
5.41236e+06
5.22294e+06
5.03614e+06
4.85198e+06
4.67221e+06
8.6158e+06
8.39735e+06
8.16372e+06
7.93241e+06
7.7043e+06
7.47945e+06
7.2579e+06
7.03969e+06
6.82481e+06
6.61325e+06
6.40501e+06
6.20006e+06
5.9984e+06
5.79999e+06
5.60477e+06
5.41264e+06
5.22347e+06
5.03714e+06
4.85388e+06
4.67567e+06
8.61582e+06
8.39735e+06
8.16371e+06
7.93241e+06
7.7043e+06
7.47945e+06
7.25791e+06
7.03969e+06
6.82481e+06
6.61326e+06
6.40502e+06
6.20009e+06
5.99845e+06
5.80008e+06
5.60493e+06
5.41293e+06
5.22402e+06
5.03815e+06
4.85575e+06
4.67898e+06
8.61583e+06
8.39735e+06
8.16371e+06
7.9324e+06
7.7043e+06
7.47945e+06
7.25791e+06
7.03969e+06
6.82482e+06
6.61327e+06
6.40503e+06
6.20011e+06
5.99849e+06
5.80016e+06
5.60509e+06
5.41323e+06
5.22456e+06
5.03916e+06
4.85759e+06
4.68214e+06
8.61584e+06
8.39735e+06
8.1637e+06
7.9324e+06
7.7043e+06
7.47945e+06
7.25791e+06
7.0397e+06
6.82482e+06
6.61327e+06
6.40505e+06
6.20014e+06
5.99854e+06
5.80025e+06
5.60525e+06
5.41353e+06
5.22511e+06
5.04016e+06
4.85939e+06
4.68515e+06
8.61584e+06
8.39735e+06
8.1637e+06
7.9324e+06
7.7043e+06
7.47945e+06
7.25791e+06
7.0397e+06
6.82482e+06
6.61328e+06
6.40506e+06
6.20017e+06
5.99859e+06
5.80034e+06
5.60542e+06
5.41383e+06
5.22566e+06
5.04115e+06
4.86113e+06
4.68801e+06
8.61584e+06
8.39735e+06
8.1637e+06
7.9324e+06
7.7043e+06
7.47945e+06
7.25791e+06
7.0397e+06
6.82483e+06
6.61329e+06
6.40508e+06
6.20019e+06
5.99864e+06
5.80043e+06
5.60558e+06
5.41413e+06
5.2262e+06
5.04212e+06
4.86282e+06
4.69073e+06
8.61584e+06
8.39735e+06
8.1637e+06
7.9324e+06
7.7043e+06
7.47945e+06
7.25791e+06
7.0397e+06
6.82483e+06
6.6133e+06
6.40509e+06
6.20022e+06
5.99869e+06
5.80052e+06
5.60574e+06
5.41442e+06
5.22673e+06
5.04306e+06
4.86444e+06
4.69329e+06
8.61583e+06
8.39735e+06
8.16371e+06
7.9324e+06
7.7043e+06
7.47945e+06
7.25791e+06
7.03971e+06
6.82484e+06
6.61331e+06
6.40511e+06
6.20025e+06
5.99874e+06
5.80061e+06
5.6059e+06
5.41471e+06
5.22725e+06
5.04398e+06
4.866e+06
4.69571e+06
8.61582e+06
8.39735e+06
8.16371e+06
7.93241e+06
7.7043e+06
7.47945e+06
7.25791e+06
7.03971e+06
6.82484e+06
6.61331e+06
6.40512e+06
6.20027e+06
5.99879e+06
5.8007e+06
5.60606e+06
5.415e+06
5.22776e+06
5.04486e+06
4.86748e+06
4.69798e+06
8.6158e+06
8.39735e+06
8.16372e+06
7.93241e+06
7.7043e+06
7.47945e+06
7.25792e+06
7.03971e+06
6.82485e+06
6.61332e+06
6.40514e+06
6.2003e+06
5.99883e+06
5.80078e+06
5.60621e+06
5.41527e+06
5.22824e+06
5.04571e+06
4.86889e+06
4.7001e+06
8.61578e+06
8.39735e+06
8.16373e+06
7.93242e+06
7.7043e+06
7.47945e+06
7.25792e+06
7.03972e+06
6.82485e+06
6.61333e+06
6.40515e+06
6.20032e+06
5.99888e+06
5.80086e+06
5.60636e+06
5.41554e+06
5.22871e+06
5.04652e+06
4.87022e+06
4.70209e+06
8.61576e+06
8.39735e+06
8.16374e+06
7.93243e+06
7.7043e+06
7.47945e+06
7.25792e+06
7.03972e+06
6.82486e+06
6.61334e+06
6.40516e+06
6.20035e+06
5.99892e+06
5.80094e+06
5.6065e+06
5.41579e+06
5.22916e+06
5.04729e+06
4.87147e+06
4.70394e+06
8.61573e+06
8.39736e+06
8.16376e+06
7.93244e+06
7.7043e+06
7.47945e+06
7.25792e+06
7.03972e+06
6.82486e+06
6.61335e+06
6.40518e+06
6.20037e+06
5.99896e+06
5.80102e+06
5.60664e+06
5.41603e+06
5.22959e+06
5.04802e+06
4.87264e+06
4.70564e+06
8.61569e+06
8.39736e+06
8.16378e+06
7.93245e+06
7.7043e+06
7.47945e+06
7.25792e+06
7.03973e+06
6.82487e+06
6.61335e+06
6.40519e+06
6.20039e+06
5.999e+06
5.80109e+06
5.60677e+06
5.41626e+06
5.22999e+06
5.04869e+06
4.87372e+06
4.70722e+06
8.61565e+06
8.39737e+06
8.16379e+06
7.93245e+06
7.7043e+06
7.47945e+06
7.25793e+06
7.03973e+06
6.82487e+06
6.61336e+06
6.4052e+06
6.20041e+06
5.99904e+06
5.80116e+06
5.60689e+06
5.41648e+06
5.23036e+06
5.04932e+06
4.87472e+06
4.70865e+06
8.6156e+06
8.39738e+06
8.16382e+06
7.93246e+06
7.7043e+06
7.47945e+06
7.25793e+06
7.03974e+06
6.82488e+06
6.61337e+06
6.40521e+06
6.20043e+06
5.99907e+06
5.80122e+06
5.607e+06
5.41667e+06
5.2307e+06
5.04989e+06
4.87563e+06
4.70996e+06
8.61555e+06
8.39739e+06
8.16384e+06
7.93247e+06
7.7043e+06
7.47946e+06
7.25793e+06
7.03974e+06
6.82489e+06
6.61337e+06
6.40522e+06
6.20045e+06
5.99911e+06
5.80127e+06
5.6071e+06
5.41685e+06
5.23101e+06
5.05042e+06
4.87645e+06
4.71113e+06
8.6155e+06
8.39741e+06
8.16386e+06
7.93248e+06
7.7043e+06
7.47946e+06
7.25794e+06
7.03975e+06
6.82489e+06
6.61338e+06
6.40523e+06
6.20047e+06
5.99913e+06
5.80133e+06
5.60719e+06
5.41702e+06
5.23129e+06
5.05088e+06
4.87718e+06
4.71217e+06
8.61543e+06
8.39743e+06
8.16389e+06
7.93248e+06
7.70431e+06
7.47946e+06
7.25794e+06
7.03975e+06
6.82489e+06
6.61339e+06
6.40524e+06
6.20048e+06
5.99916e+06
5.80137e+06
5.60727e+06
5.41716e+06
5.23154e+06
5.0513e+06
4.87781e+06
4.71307e+06
8.61536e+06
8.39745e+06
8.16391e+06
7.93249e+06
7.70431e+06
7.47946e+06
7.25794e+06
7.03975e+06
6.8249e+06
6.61339e+06
6.40525e+06
6.20049e+06
5.99918e+06
5.80141e+06
5.60734e+06
5.41729e+06
5.23176e+06
5.05165e+06
4.87836e+06
4.71385e+06
8.61529e+06
8.39748e+06
8.16394e+06
7.9325e+06
7.70431e+06
7.47947e+06
7.25795e+06
7.03976e+06
6.8249e+06
6.61339e+06
6.40525e+06
6.2005e+06
5.9992e+06
5.80144e+06
5.6074e+06
5.41739e+06
5.23194e+06
5.05195e+06
4.87882e+06
4.71449e+06
8.61521e+06
8.39751e+06
8.16397e+06
7.93251e+06
7.70432e+06
7.47947e+06
7.25795e+06
7.03976e+06
6.8249e+06
6.6134e+06
6.40526e+06
6.20051e+06
5.99922e+06
5.80147e+06
5.60745e+06
5.41748e+06
5.23208e+06
5.05219e+06
4.87919e+06
4.71501e+06
8.61512e+06
8.39755e+06
8.16399e+06
7.93251e+06
7.70432e+06
7.47947e+06
7.25795e+06
7.03976e+06
6.8249e+06
6.6134e+06
6.40526e+06
6.20052e+06
5.99923e+06
5.80149e+06
5.60749e+06
5.41754e+06
5.23219e+06
5.05237e+06
4.87947e+06
4.71539e+06
8.61499e+06
8.39757e+06
8.164e+06
7.93252e+06
7.70432e+06
7.47947e+06
7.25795e+06
7.03976e+06
6.82491e+06
6.6134e+06
6.40526e+06
6.20052e+06
5.99923e+06
5.80151e+06
5.60751e+06
5.41758e+06
5.23226e+06
5.05249e+06
4.87965e+06
4.71564e+06
8.61481e+06
8.39758e+06
8.164e+06
7.93252e+06
7.70432e+06
7.47947e+06
7.25795e+06
7.03976e+06
6.82491e+06
6.6134e+06
6.40526e+06
6.20052e+06
5.99924e+06
5.80151e+06
5.60752e+06
5.4176e+06
5.2323e+06
5.05255e+06
4.87975e+06
4.71577e+06
4.42478e+06
4.37722e+06
4.34043e+06
4.30819e+06
4.27798e+06
4.24908e+06
4.22112e+06
4.19383e+06
4.16706e+06
4.1407e+06
4.11467e+06
4.08892e+06
4.06341e+06
4.03812e+06
4.01301e+06
3.98807e+06
3.96327e+06
3.93861e+06
3.91407e+06
3.88963e+06
3.8653e+06
3.84106e+06
3.81691e+06
3.79285e+06
3.76887e+06
3.74497e+06
3.72116e+06
3.69742e+06
3.67377e+06
3.6502e+06
3.62671e+06
3.60332e+06
3.58e+06
3.55677e+06
3.53362e+06
3.51054e+06
3.48755e+06
3.46463e+06
3.44179e+06
3.41903e+06
3.39635e+06
3.37374e+06
3.35121e+06
3.32876e+06
3.30639e+06
3.28409e+06
3.26187e+06
3.23973e+06
3.21766e+06
3.19568e+06
3.17377e+06
3.15193e+06
3.13017e+06
3.10849e+06
3.08689e+06
3.06536e+06
3.04392e+06
3.02255e+06
3.00126e+06
2.98006e+06
2.95894e+06
2.93791e+06
2.91696e+06
2.89609e+06
2.87531e+06
2.8546e+06
2.83398e+06
2.81344e+06
2.79297e+06
2.77258e+06
2.75226e+06
2.73202e+06
2.71185e+06
2.69175e+06
2.67173e+06
2.65178e+06
2.6319e+06
2.61209e+06
2.59234e+06
2.57266e+06
2.55305e+06
2.53349e+06
2.51398e+06
2.49454e+06
2.47516e+06
2.45584e+06
2.43658e+06
2.41739e+06
2.39828e+06
2.37926e+06
2.36031e+06
2.34145e+06
2.32268e+06
2.304e+06
2.2854e+06
2.26689e+06
2.24846e+06
2.23011e+06
2.21183e+06
2.19364e+06
2.17553e+06
2.15749e+06
2.13953e+06
2.12165e+06
2.10385e+06
2.08612e+06
2.06847e+06
2.05089e+06
2.03339e+06
2.01596e+06
1.99861e+06
1.98133e+06
1.96413e+06
1.947e+06
1.92995e+06
1.91298e+06
1.89608e+06
1.87925e+06
1.8625e+06
1.84582e+06
1.82922e+06
1.81269e+06
1.79624e+06
1.77987e+06
1.76357e+06
1.74734e+06
1.73119e+06
1.71511e+06
1.69911e+06
1.68318e+06
1.66733e+06
1.65156e+06
1.63585e+06
1.62023e+06
1.60467e+06
1.5892e+06
1.5738e+06
1.55847e+06
1.54322e+06
1.52804e+06
1.51294e+06
1.49791e+06
1.48296e+06
1.46808e+06
1.45328e+06
1.43855e+06
1.4239e+06
1.40932e+06
1.39481e+06
1.38039e+06
1.36603e+06
1.35175e+06
1.33755e+06
1.32342e+06
1.30936e+06
1.29538e+06
1.28148e+06
1.26764e+06
1.25389e+06
1.2402e+06
1.22659e+06
1.21306e+06
1.1996e+06
1.18621e+06
1.1729e+06
1.15966e+06
1.1465e+06
1.1334e+06
1.12038e+06
1.10744e+06
1.09456e+06
1.08176e+06
1.06903e+06
1.05637e+06
1.04378e+06
1.03126e+06
1.0188e+06
1.00642e+06
994098
981843
969650
957517
945441
933419
921447
909520
897631
885774
873937
862111
850279
838421
826513
814518
802389
790049
777392
764249
750000
734479
4.44724e+06
4.39547e+06
4.35481e+06
4.31994e+06
4.28795e+06
4.2577e+06
4.22864e+06
4.20046e+06
4.17293e+06
4.14592e+06
4.11933e+06
4.09309e+06
4.06716e+06
4.04149e+06
4.01604e+06
3.99079e+06
3.96572e+06
3.94081e+06
3.91605e+06
3.89142e+06
3.86691e+06
3.84251e+06
3.81821e+06
3.79402e+06
3.76993e+06
3.74593e+06
3.72202e+06
3.6982e+06
3.67447e+06
3.65083e+06
3.62728e+06
3.60382e+06
3.58045e+06
3.55717e+06
3.53398e+06
3.51087e+06
3.48784e+06
3.46489e+06
3.44202e+06
3.41924e+06
3.39653e+06
3.3739e+06
3.35135e+06
3.32888e+06
3.3065e+06
3.28419e+06
3.26196e+06
3.23981e+06
3.21774e+06
3.19575e+06
3.17383e+06
3.15199e+06
3.13023e+06
3.10855e+06
3.08695e+06
3.06542e+06
3.04398e+06
3.02261e+06
3.00133e+06
2.98013e+06
2.95901e+06
2.93798e+06
2.91704e+06
2.89617e+06
2.87539e+06
2.85469e+06
2.83407e+06
2.81352e+06
2.79305e+06
2.77266e+06
2.75234e+06
2.7321e+06
2.71193e+06
2.69183e+06
2.67181e+06
2.65185e+06
2.63197e+06
2.61216e+06
2.59241e+06
2.57273e+06
2.55311e+06
2.53354e+06
2.51404e+06
2.49459e+06
2.4752e+06
2.45587e+06
2.4366e+06
2.41741e+06
2.3983e+06
2.37927e+06
2.36032e+06
2.34146e+06
2.32269e+06
2.304e+06
2.2854e+06
2.26689e+06
2.24846e+06
2.23011e+06
2.21183e+06
2.19364e+06
2.17553e+06
2.15749e+06
2.13953e+06
2.12165e+06
2.10385e+06
2.08612e+06
2.06846e+06
2.05089e+06
2.03339e+06
2.01596e+06
1.99861e+06
1.98133e+06
1.96413e+06
1.947e+06
1.92995e+06
1.91297e+06
1.89607e+06
1.87925e+06
1.86249e+06
1.84582e+06
1.82922e+06
1.81269e+06
1.79624e+06
1.77986e+06
1.76356e+06
1.74733e+06
1.73118e+06
1.7151e+06
1.6991e+06
1.68317e+06
1.66732e+06
1.65154e+06
1.63584e+06
1.62021e+06
1.60466e+06
1.58918e+06
1.57378e+06
1.55845e+06
1.54319e+06
1.52802e+06
1.51291e+06
1.49788e+06
1.48293e+06
1.46805e+06
1.45324e+06
1.43851e+06
1.42385e+06
1.40927e+06
1.39476e+06
1.38033e+06
1.36597e+06
1.35168e+06
1.33747e+06
1.32333e+06
1.30927e+06
1.29528e+06
1.28137e+06
1.26752e+06
1.25376e+06
1.24006e+06
1.22644e+06
1.21289e+06
1.19941e+06
1.18601e+06
1.17268e+06
1.15942e+06
1.14623e+06
1.13311e+06
1.12007e+06
1.10709e+06
1.09418e+06
1.08134e+06
1.06858e+06
1.05587e+06
1.04324e+06
1.03066e+06
1.01816e+06
1.00571e+06
993326
980999
968727
956507
944336
932209
920121
908066
896035
884020
872008
859983
847927
835814
823610
811268
798723
785869
772545
758491
742884
724500
4.46499e+06
4.41149e+06
4.36833e+06
4.3313e+06
4.29768e+06
4.26615e+06
4.23606e+06
4.20701e+06
4.17874e+06
4.1511e+06
4.12396e+06
4.09724e+06
4.07088e+06
4.04483e+06
4.01905e+06
3.9935e+06
3.96816e+06
3.94301e+06
3.91802e+06
3.8932e+06
3.86851e+06
3.84395e+06
3.81951e+06
3.79519e+06
3.77098e+06
3.74688e+06
3.72288e+06
3.69897e+06
3.67517e+06
3.65146e+06
3.62784e+06
3.60433e+06
3.58091e+06
3.55758e+06
3.53434e+06
3.51119e+06
3.48813e+06
3.46515e+06
3.44225e+06
3.41944e+06
3.39671e+06
3.37406e+06
3.35149e+06
3.32901e+06
3.30661e+06
3.28429e+06
3.26206e+06
3.23989e+06
3.21781e+06
3.19582e+06
3.1739e+06
3.15206e+06
3.1303e+06
3.10861e+06
3.08701e+06
3.06549e+06
3.04404e+06
3.02268e+06
3.0014e+06
2.9802e+06
2.95909e+06
2.93806e+06
2.91712e+06
2.89626e+06
2.87548e+06
2.85477e+06
2.83415e+06
2.81361e+06
2.79314e+06
2.77274e+06
2.75242e+06
2.73218e+06
2.71201e+06
2.69191e+06
2.67188e+06
2.65193e+06
2.63204e+06
2.61223e+06
2.59247e+06
2.57279e+06
2.55316e+06
2.53359e+06
2.51408e+06
2.49462e+06
2.47523e+06
2.45589e+06
2.43663e+06
2.41743e+06
2.39831e+06
2.37927e+06
2.36032e+06
2.34146e+06
2.32269e+06
2.304e+06
2.2854e+06
2.26689e+06
2.24846e+06
2.23011e+06
2.21183e+06
2.19364e+06
2.17552e+06
2.15749e+06
2.13953e+06
2.12165e+06
2.10385e+06
2.08612e+06
2.06846e+06
2.05089e+06
2.03338e+06
2.01596e+06
1.99861e+06
1.98133e+06
1.96413e+06
1.947e+06
1.92995e+06
1.91297e+06
1.89607e+06
1.87924e+06
1.86249e+06
1.84581e+06
1.82921e+06
1.81269e+06
1.79623e+06
1.77986e+06
1.76355e+06
1.74733e+06
1.73117e+06
1.7151e+06
1.69909e+06
1.68316e+06
1.66731e+06
1.65153e+06
1.63583e+06
1.6202e+06
1.60464e+06
1.58916e+06
1.57376e+06
1.55843e+06
1.54317e+06
1.52799e+06
1.51288e+06
1.49785e+06
1.48289e+06
1.46801e+06
1.4532e+06
1.43847e+06
1.42381e+06
1.40922e+06
1.39471e+06
1.38027e+06
1.3659e+06
1.35161e+06
1.33739e+06
1.32325e+06
1.30918e+06
1.29518e+06
1.28126e+06
1.26741e+06
1.25363e+06
1.23992e+06
1.22628e+06
1.21272e+06
1.19923e+06
1.18581e+06
1.17246e+06
1.15918e+06
1.14596e+06
1.13282e+06
1.11975e+06
1.10674e+06
1.09381e+06
1.08093e+06
1.06812e+06
1.05538e+06
1.0427e+06
1.03008e+06
1.01751e+06
1.00501e+06
992558
980159
967809
955503
943238
931007
918805
906623
894453
882283
870097
857879
845605
833244
820756
808082
795144
781817
767885
753073
736461
716566
4.47955e+06
4.4257e+06
4.38093e+06
4.34216e+06
4.30711e+06
4.27441e+06
4.24333e+06
4.21345e+06
4.18447e+06
4.15622e+06
4.12854e+06
4.10135e+06
4.07457e+06
4.04815e+06
4.02203e+06
3.99619e+06
3.97058e+06
3.94519e+06
3.91999e+06
3.89497e+06
3.8701e+06
3.84539e+06
3.82081e+06
3.79636e+06
3.77204e+06
3.74783e+06
3.72373e+06
3.69974e+06
3.67586e+06
3.65208e+06
3.62841e+06
3.60483e+06
3.58136e+06
3.55799e+06
3.53471e+06
3.51152e+06
3.48842e+06
3.46541e+06
3.44248e+06
3.41964e+06
3.39689e+06
3.37422e+06
3.35164e+06
3.32914e+06
3.30672e+06
3.2844e+06
3.26215e+06
3.23998e+06
3.21789e+06
3.19589e+06
3.17397e+06
3.15213e+06
3.13036e+06
3.10868e+06
3.08707e+06
3.06555e+06
3.04411e+06
3.02275e+06
3.00147e+06
2.98028e+06
2.95917e+06
2.93814e+06
2.9172e+06
2.89634e+06
2.87556e+06
2.85486e+06
2.83423e+06
2.81369e+06
2.79321e+06
2.77282e+06
2.7525e+06
2.73225e+06
2.71208e+06
2.69198e+06
2.67195e+06
2.65199e+06
2.6321e+06
2.61228e+06
2.59253e+06
2.57284e+06
2.55321e+06
2.53363e+06
2.51412e+06
2.49466e+06
2.47525e+06
2.45591e+06
2.43664e+06
2.41744e+06
2.39832e+06
2.37928e+06
2.36033e+06
2.34146e+06
2.32269e+06
2.304e+06
2.28541e+06
2.26689e+06
2.24846e+06
2.23011e+06
2.21183e+06
2.19364e+06
2.17552e+06
2.15749e+06
2.13953e+06
2.12165e+06
2.10384e+06
2.08612e+06
2.06846e+06
2.05089e+06
2.03338e+06
2.01596e+06
1.9986e+06
1.98133e+06
1.96412e+06
1.947e+06
1.92995e+06
1.91297e+06
1.89607e+06
1.87924e+06
1.86249e+06
1.84581e+06
1.82921e+06
1.81268e+06
1.79623e+06
1.77985e+06
1.76355e+06
1.74732e+06
1.73117e+06
1.71509e+06
1.69908e+06
1.68315e+06
1.6673e+06
1.65152e+06
1.63581e+06
1.62018e+06
1.60463e+06
1.58915e+06
1.57374e+06
1.55841e+06
1.54315e+06
1.52797e+06
1.51286e+06
1.49782e+06
1.48286e+06
1.46798e+06
1.45316e+06
1.43843e+06
1.42376e+06
1.40917e+06
1.39465e+06
1.38021e+06
1.36584e+06
1.35154e+06
1.33732e+06
1.32317e+06
1.30909e+06
1.29508e+06
1.28115e+06
1.26729e+06
1.2535e+06
1.23978e+06
1.22613e+06
1.21255e+06
1.19904e+06
1.1856e+06
1.17223e+06
1.15893e+06
1.1457e+06
1.13253e+06
1.11943e+06
1.1064e+06
1.09343e+06
1.08052e+06
1.06768e+06
1.05489e+06
1.04216e+06
1.02949e+06
1.01688e+06
1.00431e+06
991795
979325
966897
954507
942148
929815
917500
905195
892887
880565
868211
855804
843319
830718
817958
804972
791661
777916
763438
748026
730703
710292
4.49195e+06
4.43831e+06
4.39257e+06
4.35248e+06
4.31619e+06
4.28242e+06
4.25042e+06
4.21975e+06
4.1901e+06
4.16125e+06
4.13305e+06
4.1054e+06
4.07821e+06
4.05143e+06
4.02499e+06
3.99885e+06
3.97298e+06
3.94735e+06
3.92194e+06
3.89672e+06
3.87169e+06
3.84682e+06
3.8221e+06
3.79752e+06
3.77308e+06
3.74877e+06
3.72458e+06
3.70051e+06
3.67655e+06
3.6527e+06
3.62897e+06
3.60534e+06
3.58181e+06
3.55839e+06
3.53507e+06
3.51184e+06
3.48871e+06
3.46566e+06
3.44271e+06
3.41985e+06
3.39707e+06
3.37438e+06
3.35178e+06
3.32927e+06
3.30684e+06
3.2845e+06
3.26225e+06
3.24007e+06
3.21798e+06
3.19597e+06
3.17404e+06
3.15219e+06
3.13043e+06
3.10874e+06
3.08714e+06
3.06562e+06
3.04418e+06
3.02282e+06
3.00155e+06
2.98036e+06
2.95925e+06
2.93823e+06
2.91728e+06
2.89642e+06
2.87564e+06
2.85494e+06
2.83431e+06
2.81376e+06
2.79329e+06
2.77289e+06
2.75257e+06
2.73232e+06
2.71214e+06
2.69204e+06
2.67201e+06
2.65205e+06
2.63216e+06
2.61234e+06
2.59258e+06
2.57288e+06
2.55325e+06
2.53367e+06
2.51414e+06
2.49468e+06
2.47527e+06
2.45593e+06
2.43665e+06
2.41745e+06
2.39832e+06
2.37928e+06
2.36033e+06
2.34146e+06
2.32269e+06
2.304e+06
2.2854e+06
2.26689e+06
2.24846e+06
2.23011e+06
2.21183e+06
2.19364e+06
2.17552e+06
2.15749e+06
2.13953e+06
2.12165e+06
2.10384e+06
2.08612e+06
2.06846e+06
2.05088e+06
2.03338e+06
2.01595e+06
1.9986e+06
1.98133e+06
1.96412e+06
1.947e+06
1.92994e+06
1.91297e+06
1.89606e+06
1.87924e+06
1.86248e+06
1.84581e+06
1.8292e+06
1.81268e+06
1.79622e+06
1.77984e+06
1.76354e+06
1.74731e+06
1.73116e+06
1.71508e+06
1.69907e+06
1.68314e+06
1.66729e+06
1.65151e+06
1.6358e+06
1.62017e+06
1.60461e+06
1.58913e+06
1.57372e+06
1.55839e+06
1.54313e+06
1.52794e+06
1.51283e+06
1.4978e+06
1.48283e+06
1.46794e+06
1.45313e+06
1.43839e+06
1.42372e+06
1.40912e+06
1.3946e+06
1.38015e+06
1.36578e+06
1.35147e+06
1.33724e+06
1.32308e+06
1.309e+06
1.29498e+06
1.28104e+06
1.26717e+06
1.25337e+06
1.23964e+06
1.22597e+06
1.21238e+06
1.19886e+06
1.1854e+06
1.17202e+06
1.15869e+06
1.14544e+06
1.13225e+06
1.11912e+06
1.10606e+06
1.09306e+06
1.08011e+06
1.06723e+06
1.0544e+06
1.04163e+06
1.02891e+06
1.01624e+06
1.00362e+06
991038
978499
965994
953520
941069
928635
916210
903783
891341
878870
866352
853763
841073
828245
815222
801950
788288
774181
759225
743357
725596
705143
4.50271e+06
4.44959e+06
4.4033e+06
4.36221e+06
4.32489e+06
4.29016e+06
4.25733e+06
4.22592e+06
4.19561e+06
4.16619e+06
4.13749e+06
4.10939e+06
4.08181e+06
4.05466e+06
4.0279e+06
4.00147e+06
3.97535e+06
3.94948e+06
3.92386e+06
3.89846e+06
3.87326e+06
3.84823e+06
3.82337e+06
3.79867e+06
3.77412e+06
3.74971e+06
3.72542e+06
3.70127e+06
3.67723e+06
3.65332e+06
3.62952e+06
3.60584e+06
3.58226e+06
3.55879e+06
3.53543e+06
3.51216e+06
3.48899e+06
3.46592e+06
3.44294e+06
3.42005e+06
3.39725e+06
3.37455e+06
3.35193e+06
3.3294e+06
3.30696e+06
3.28461e+06
3.26234e+06
3.24016e+06
3.21806e+06
3.19605e+06
3.17412e+06
3.15227e+06
3.1305e+06
3.10881e+06
3.08721e+06
3.06569e+06
3.04425e+06
3.0229e+06
3.00163e+06
2.98044e+06
2.95933e+06
2.93831e+06
2.91737e+06
2.8965e+06
2.87572e+06
2.85501e+06
2.83438e+06
2.81383e+06
2.79336e+06
2.77296e+06
2.75263e+06
2.73238e+06
2.7122e+06
2.6921e+06
2.67206e+06
2.6521e+06
2.6322e+06
2.61238e+06
2.59262e+06
2.57292e+06
2.55327e+06
2.53369e+06
2.51416e+06
2.49469e+06
2.47528e+06
2.45593e+06
2.43665e+06
2.41745e+06
2.39832e+06
2.37928e+06
2.36033e+06
2.34146e+06
2.32269e+06
2.304e+06
2.2854e+06
2.26689e+06
2.24846e+06
2.2301e+06
2.21183e+06
2.19364e+06
2.17552e+06
2.15749e+06
2.13953e+06
2.12165e+06
2.10384e+06
2.08611e+06
2.06846e+06
2.05088e+06
2.03338e+06
2.01595e+06
1.9986e+06
1.98132e+06
1.96412e+06
1.94699e+06
1.92994e+06
1.91296e+06
1.89606e+06
1.87923e+06
1.86248e+06
1.8458e+06
1.8292e+06
1.81267e+06
1.79622e+06
1.77984e+06
1.76353e+06
1.74731e+06
1.73115e+06
1.71507e+06
1.69907e+06
1.68314e+06
1.66728e+06
1.6515e+06
1.63579e+06
1.62016e+06
1.6046e+06
1.58912e+06
1.5737e+06
1.55837e+06
1.54311e+06
1.52792e+06
1.51281e+06
1.49777e+06
1.4828e+06
1.46791e+06
1.45309e+06
1.43835e+06
1.42367e+06
1.40907e+06
1.39455e+06
1.3801e+06
1.36571e+06
1.3514e+06
1.33717e+06
1.323e+06
1.30891e+06
1.29489e+06
1.28093e+06
1.26705e+06
1.25324e+06
1.2395e+06
1.22582e+06
1.21221e+06
1.19868e+06
1.1852e+06
1.1718e+06
1.15846e+06
1.14518e+06
1.13196e+06
1.11881e+06
1.10572e+06
1.09269e+06
1.07971e+06
1.06679e+06
1.05392e+06
1.0411e+06
1.02834e+06
1.01561e+06
1.00293e+06
990289
977680
965100
952543
940003
927470
914936
902389
889817
877203
864524
851760
838871
825832
812554
799027
785033
770622
755263
739052
721065
700778
4.51218e+06
4.45974e+06
4.41319e+06
4.37137e+06
4.33318e+06
4.29762e+06
4.26402e+06
4.23192e+06
4.201e+06
4.17103e+06
4.14185e+06
4.11332e+06
4.08534e+06
4.05785e+06
4.03077e+06
4.00407e+06
3.97768e+06
3.95159e+06
3.92577e+06
3.90018e+06
3.87481e+06
3.84963e+06
3.82463e+06
3.79981e+06
3.77515e+06
3.75063e+06
3.72626e+06
3.70202e+06
3.67791e+06
3.65393e+06
3.63007e+06
3.60633e+06
3.5827e+06
3.55919e+06
3.53578e+06
3.51248e+06
3.48928e+06
3.46617e+06
3.44317e+06
3.42026e+06
3.39744e+06
3.37471e+06
3.35208e+06
3.32953e+06
3.30708e+06
3.28472e+06
3.26244e+06
3.24025e+06
3.21815e+06
3.19613e+06
3.17419e+06
3.15234e+06
3.13057e+06
3.10889e+06
3.08729e+06
3.06577e+06
3.04433e+06
3.02298e+06
3.00171e+06
2.98052e+06
2.95941e+06
2.93839e+06
2.91744e+06
2.89658e+06
2.87579e+06
2.85508e+06
2.83445e+06
2.8139e+06
2.79342e+06
2.77301e+06
2.75268e+06
2.73243e+06
2.71225e+06
2.69214e+06
2.6721e+06
2.65213e+06
2.63224e+06
2.61241e+06
2.59264e+06
2.57294e+06
2.55329e+06
2.53371e+06
2.51417e+06
2.4947e+06
2.47529e+06
2.45593e+06
2.43665e+06
2.41744e+06
2.39832e+06
2.37928e+06
2.36032e+06
2.34146e+06
2.32268e+06
2.304e+06
2.2854e+06
2.26689e+06
2.24846e+06
2.2301e+06
2.21183e+06
2.19364e+06
2.17552e+06
2.15749e+06
2.13953e+06
2.12165e+06
2.10384e+06
2.08611e+06
2.06846e+06
2.05088e+06
2.03338e+06
2.01595e+06
1.9986e+06
1.98132e+06
1.96412e+06
1.94699e+06
1.92994e+06
1.91296e+06
1.89606e+06
1.87923e+06
1.86248e+06
1.8458e+06
1.8292e+06
1.81267e+06
1.79621e+06
1.77983e+06
1.76353e+06
1.7473e+06
1.73114e+06
1.71506e+06
1.69906e+06
1.68313e+06
1.66727e+06
1.65149e+06
1.63578e+06
1.62015e+06
1.60458e+06
1.5891e+06
1.57369e+06
1.55835e+06
1.54309e+06
1.5279e+06
1.51278e+06
1.49774e+06
1.48277e+06
1.46788e+06
1.45305e+06
1.43831e+06
1.42363e+06
1.40903e+06
1.3945e+06
1.38004e+06
1.36565e+06
1.35134e+06
1.33709e+06
1.32292e+06
1.30882e+06
1.29479e+06
1.28083e+06
1.26694e+06
1.25311e+06
1.23936e+06
1.22567e+06
1.21205e+06
1.19849e+06
1.18501e+06
1.17158e+06
1.15822e+06
1.14492e+06
1.13168e+06
1.1185e+06
1.10538e+06
1.09232e+06
1.07931e+06
1.06635e+06
1.05344e+06
1.04058e+06
1.02777e+06
1.01499e+06
1.00225e+06
989548
976871
964217
951579
938950
926321
913680
901019
888317
875565
862729
849802
836718
823487
809961
796210
781909
767237
751561
735087
717030
696983
4.52065e+06
4.46893e+06
4.4223e+06
4.37996e+06
4.34107e+06
4.30478e+06
4.27049e+06
4.23775e+06
4.20625e+06
4.17577e+06
4.14612e+06
4.11717e+06
4.08882e+06
4.06099e+06
4.03361e+06
4.00662e+06
3.97999e+06
3.95368e+06
3.92765e+06
3.90187e+06
3.87634e+06
3.85101e+06
3.82588e+06
3.80093e+06
3.77616e+06
3.75154e+06
3.72708e+06
3.70276e+06
3.67858e+06
3.65453e+06
3.63061e+06
3.60682e+06
3.58314e+06
3.55958e+06
3.53613e+06
3.51279e+06
3.48956e+06
3.46643e+06
3.44339e+06
3.42046e+06
3.39762e+06
3.37488e+06
3.35223e+06
3.32967e+06
3.3072e+06
3.28483e+06
3.26254e+06
3.24035e+06
3.21824e+06
3.19621e+06
3.17427e+06
3.15242e+06
3.13065e+06
3.10897e+06
3.08736e+06
3.06585e+06
3.04441e+06
3.02306e+06
3.00179e+06
2.9806e+06
2.95949e+06
2.93847e+06
2.91752e+06
2.89665e+06
2.87586e+06
2.85515e+06
2.83451e+06
2.81395e+06
2.79347e+06
2.77306e+06
2.75273e+06
2.73247e+06
2.71228e+06
2.69217e+06
2.67213e+06
2.65216e+06
2.63226e+06
2.61243e+06
2.59266e+06
2.57295e+06
2.5533e+06
2.53371e+06
2.51417e+06
2.4947e+06
2.47528e+06
2.45593e+06
2.43664e+06
2.41744e+06
2.39831e+06
2.37927e+06
2.36032e+06
2.34145e+06
2.32268e+06
2.304e+06
2.2854e+06
2.26689e+06
2.24845e+06
2.2301e+06
2.21183e+06
2.19364e+06
2.17552e+06
2.15749e+06
2.13953e+06
2.12165e+06
2.10384e+06
2.08611e+06
2.06846e+06
2.05088e+06
2.03338e+06
2.01595e+06
1.9986e+06
1.98132e+06
1.96412e+06
1.94699e+06
1.92994e+06
1.91296e+06
1.89606e+06
1.87923e+06
1.86247e+06
1.8458e+06
1.82919e+06
1.81266e+06
1.79621e+06
1.77983e+06
1.76352e+06
1.74729e+06
1.73114e+06
1.71506e+06
1.69905e+06
1.68312e+06
1.66726e+06
1.65148e+06
1.63577e+06
1.62013e+06
1.60457e+06
1.58908e+06
1.57367e+06
1.55833e+06
1.54307e+06
1.52788e+06
1.51276e+06
1.49771e+06
1.48274e+06
1.46785e+06
1.45302e+06
1.43827e+06
1.42359e+06
1.40898e+06
1.39444e+06
1.37998e+06
1.36559e+06
1.35127e+06
1.33702e+06
1.32284e+06
1.30873e+06
1.29469e+06
1.28072e+06
1.26682e+06
1.25299e+06
1.23922e+06
1.22552e+06
1.21189e+06
1.19832e+06
1.18481e+06
1.17137e+06
1.15799e+06
1.14467e+06
1.13141e+06
1.1182e+06
1.10505e+06
1.09196e+06
1.07891e+06
1.06592e+06
1.05297e+06
1.04007e+06
1.0272e+06
1.01438e+06
1.00158e+06
988816
976074
963346
950630
937912
925191
912443
899673
886843
873963
860969
847894
834615
821213
807450
793500
778929
764025
748121
731434
713398
693609
4.52832e+06
4.4773e+06
4.43072e+06
4.38802e+06
4.34856e+06
4.31164e+06
4.27672e+06
4.2434e+06
4.21136e+06
4.18038e+06
4.15029e+06
4.12094e+06
4.09223e+06
4.06407e+06
4.03639e+06
4.00914e+06
3.98226e+06
3.95573e+06
3.9295e+06
3.90355e+06
3.87784e+06
3.85237e+06
3.82711e+06
3.80204e+06
3.77715e+06
3.75244e+06
3.72789e+06
3.70349e+06
3.67924e+06
3.65513e+06
3.63115e+06
3.6073e+06
3.58358e+06
3.55997e+06
3.53648e+06
3.51311e+06
3.48984e+06
3.46668e+06
3.44362e+06
3.42066e+06
3.3978e+06
3.37504e+06
3.35238e+06
3.3298e+06
3.30732e+06
3.28494e+06
3.26264e+06
3.24044e+06
3.21833e+06
3.1963e+06
3.17436e+06
3.1525e+06
3.13073e+06
3.10905e+06
3.08745e+06
3.06593e+06
3.0445e+06
3.02314e+06
3.00187e+06
2.98068e+06
2.95957e+06
2.93854e+06
2.91759e+06
2.89672e+06
2.87592e+06
2.85521e+06
2.83457e+06
2.814e+06
2.79351e+06
2.7731e+06
2.75276e+06
2.7325e+06
2.71231e+06
2.69219e+06
2.67215e+06
2.65218e+06
2.63227e+06
2.61244e+06
2.59267e+06
2.57295e+06
2.5533e+06
2.5337e+06
2.51417e+06
2.49469e+06
2.47527e+06
2.45592e+06
2.43663e+06
2.41742e+06
2.3983e+06
2.37926e+06
2.36031e+06
2.34145e+06
2.32268e+06
2.30399e+06
2.2854e+06
2.26689e+06
2.24845e+06
2.2301e+06
2.21183e+06
2.19364e+06
2.17552e+06
2.15749e+06
2.13953e+06
2.12165e+06
2.10384e+06
2.08611e+06
2.06846e+06
2.05088e+06
2.03338e+06
2.01595e+06
1.9986e+06
1.98132e+06
1.96412e+06
1.94699e+06
1.92993e+06
1.91296e+06
1.89605e+06
1.87923e+06
1.86247e+06
1.84579e+06
1.82919e+06
1.81266e+06
1.7962e+06
1.77983e+06
1.76352e+06
1.74729e+06