/*--------------------------------*- C++ -*----------------------------------*\
| =========                 |                                                 |
| \\      /  F ield         | OpenFOAM: The Open Source CFD Toolbox           |
|  \\    /   O peration     | Version:  2.4.0                                 |
|   \\  /    A nd           | Web:      www.OpenFOAM.org                      |
|    \\/     M anipulation  |                                                 |
\*---------------------------------------------------------------------------*/
FoamFile
{
    version     2.0;
    format      ascii;
    class       volScalarField;
    location    "0.022";
    object      p;
}
// * * * * * * * * * * * * * * * * * * * * * * * * * * * * * * * * * * * * * //

dimensions      [0 2 -2 0 0 0 0];

internalField   nonuniform List<scalar> 
17600
(
34.806
34.0432
33.7644
33.5843
33.3935
33.2
33.0109
32.8254
32.6432
32.4642
32.2894
32.119
31.954
31.7953
31.6451
31.5066
31.3864
31.2982
31.2708
31.3692
34.2586
33.8565
33.6786
33.5391
33.3694
33.1871
33.004
32.8218
32.6414
32.4636
32.2895
32.1196
31.9549
31.7965
31.6464
31.508
31.3877
31.299
31.2705
31.327
34.2217
33.9328
33.7325
33.5702
33.3884
33.1989
33.0114
32.8266
32.6448
32.4661
32.2916
32.1215
31.9568
31.7983
31.6482
31.5096
31.3888
31.2989
31.2661
31.3048
34.1987
33.9378
33.7256
33.5591
33.3796
33.1929
33.0075
32.8244
32.6436
32.4657
32.2917
32.1218
31.9572
31.7987
31.6484
31.5094
31.3876
31.2955
31.2565
31.2796
34.1663
33.9312
33.7218
33.5556
33.3783
33.1929
33.008
32.8251
32.6444
32.4666
32.2925
32.1226
31.9579
31.7992
31.6486
31.5089
31.3859
31.2911
31.2447
31.2534
34.1332
33.9245
33.7202
33.5535
33.377
33.1924
33.0079
32.8252
32.6447
32.4669
32.2929
32.123
31.9583
31.7994
31.6483
31.508
31.3835
31.2856
31.2314
31.2264
34.1038
33.9186
33.7192
33.5516
33.3758
33.192
33.0079
32.8254
32.645
32.4674
32.2934
32.1235
31.9586
31.7995
31.648
31.5068
31.3806
31.2793
31.217
31.1987
34.078
33.9124
33.7179
33.5497
33.3747
33.1916
33.0079
32.8256
32.6454
32.4679
32.2939
32.1239
31.9589
31.7995
31.6475
31.5053
31.3774
31.2724
31.2017
31.1705
34.055
33.9061
33.7165
33.5479
33.3737
33.1913
33.008
32.8259
32.6459
32.4683
32.2944
32.1243
31.9591
31.7995
31.6469
31.5037
31.3738
31.265
31.1858
31.142
34.0347
33.8999
33.7151
33.5464
33.3727
33.1911
33.0081
32.8262
32.6463
32.4688
32.2948
32.1247
31.9594
31.7994
31.6462
31.5019
31.3699
31.2572
31.1694
31.1134
34.0168
33.8938
33.7136
33.5449
33.3718
33.1908
33.0082
32.8265
32.6467
32.4693
32.2953
32.1251
31.9595
31.7992
31.6454
31.4999
31.3658
31.249
31.1526
31.0849
34.0011
33.8881
33.7122
33.5436
33.371
33.1906
33.0083
32.8267
32.647
32.4696
32.2956
32.1253
31.9596
31.7989
31.6445
31.4978
31.3614
31.2404
31.1357
31.0565
33.9875
33.8828
33.7108
33.5424
33.3703
33.1904
33.0084
32.827
32.6473
32.47
32.296
32.1255
31.9596
31.7985
31.6434
31.4955
31.3567
31.2316
31.1186
31.0284
33.9758
33.878
33.7095
33.5414
33.3696
33.1902
33.0084
32.8271
32.6476
32.4703
32.2962
32.1257
31.9596
31.7981
31.6422
31.493
31.3519
31.2226
31.1015
31.0007
33.966
33.8738
33.7084
33.5405
33.369
33.19
33.0084
32.8273
32.6478
32.4705
32.2964
32.1258
31.9594
31.7975
31.6409
31.4904
31.3469
31.2135
31.0844
30.9734
33.958
33.8702
33.7074
33.5397
33.3686
33.1899
33.0085
32.8274
32.6479
32.4706
32.2965
32.1258
31.9592
31.7969
31.6395
31.4877
31.3418
31.2042
31.0674
30.9466
33.9516
33.8673
33.7066
33.5391
33.3682
33.1897
33.0085
32.8275
32.648
32.4707
32.2966
32.1257
31.9589
31.7961
31.638
31.4849
31.3366
31.1949
31.0507
30.9204
33.9469
33.8651
33.706
33.5386
33.3679
33.1896
33.0085
32.8275
32.6481
32.4708
32.2966
32.1256
31.9585
31.7953
31.6365
31.4819
31.3313
31.1856
31.0341
30.8949
33.9438
33.8636
33.7055
33.5383
33.3677
33.1896
33.0085
32.8275
32.6481
32.4708
32.2965
32.1254
31.9581
31.7945
31.6348
31.479
31.3259
31.1762
31.0179
30.87
33.9422
33.8629
33.7053
33.5382
33.3676
33.1895
33.0085
32.8275
32.6481
32.4707
32.2964
32.1251
31.9576
31.7935
31.6331
31.4759
31.3206
31.167
31.002
30.8458
33.9422
33.8629
33.7053
33.5382
33.3676
33.1895
33.0084
32.8275
32.6481
32.4706
32.2962
32.1248
31.957
31.7925
31.6314
31.4728
31.3152
31.1578
30.9865
30.8223
33.9438
33.8636
33.7055
33.5383
33.3676
33.1895
33.0084
32.8274
32.6479
32.4705
32.2959
32.1244
31.9564
31.7914
31.6295
31.4697
31.3098
31.1488
30.9715
30.7996
33.9469
33.8651
33.7059
33.5386
33.3678
33.1896
33.0084
32.8273
32.6478
32.4703
32.2956
32.1239
31.9557
31.7903
31.6277
31.4666
31.3045
31.1399
30.9568
30.7777
33.9516
33.8673
33.7066
33.5391
33.3681
33.1896
33.0083
32.8272
32.6476
32.47
32.2953
32.1234
31.9549
31.7892
31.6258
31.4634
31.2993
31.1313
30.9427
30.7565
33.958
33.8702
33.7074
33.5396
33.3685
33.1897
33.0082
32.827
32.6474
32.4697
32.2948
32.1229
31.9541
31.788
31.6239
31.4603
31.2941
31.1228
30.9291
30.7361
33.966
33.8738
33.7084
33.5404
33.3689
33.1898
33.0082
32.8269
32.6471
32.4693
32.2944
32.1223
31.9533
31.7867
31.622
31.4573
31.2891
31.1146
30.9161
30.7166
33.9758
33.878
33.7095
33.5413
33.3695
33.19
33.0081
32.8266
32.6468
32.4689
32.2939
32.1216
31.9524
31.7855
31.62
31.4542
31.2842
31.1067
30.9036
30.6977
33.9875
33.8827
33.7108
33.5423
33.3701
33.1902
33.008
32.8264
32.6464
32.4684
32.2933
32.1209
31.9515
31.7842
31.6181
31.4512
31.2795
31.0991
30.8918
30.6797
34.0011
33.888
33.7121
33.5435
33.3708
33.1903
33.0079
32.8261
32.646
32.4679
32.2927
32.1201
31.9505
31.7829
31.6162
31.4483
31.2749
31.0918
30.8806
30.6624
34.0167
33.8937
33.7135
33.5448
33.3716
33.1905
33.0078
32.8258
32.6455
32.4674
32.292
32.1194
31.9495
31.7815
31.6143
31.4455
31.2705
31.0849
30.87
30.6458
34.0347
33.8998
33.715
33.5462
33.3725
33.1908
33.0077
32.8255
32.6451
32.4668
32.2913
32.1185
31.9485
31.7802
31.6125
31.4428
31.2663
31.0784
30.8602
30.63
34.055
33.9061
33.7164
33.5478
33.3734
33.191
33.0075
32.8252
32.6445
32.4661
32.2906
32.1177
31.9475
31.7789
31.6107
31.4403
31.2624
31.0722
30.8511
30.6149
34.0779
33.9124
33.7178
33.5495
33.3745
33.1913
33.0074
32.8248
32.644
32.4655
32.2898
32.1169
31.9465
31.7777
31.6091
31.4379
31.2588
31.0666
30.8427
30.6005
34.1038
33.9185
33.7191
33.5514
33.3756
33.1916
33.0073
32.8245
32.6435
32.4649
32.2891
32.1161
31.9455
31.7765
31.6075
31.4357
31.2555
31.0615
30.8352
30.5869
34.1331
33.9244
33.7201
33.5533
33.3768
33.192
33.0073
32.8243
32.6431
32.4644
32.2885
32.1153
31.9446
31.7755
31.6061
31.4336
31.2525
31.0569
30.8285
30.574
34.1663
33.9311
33.7217
33.5555
33.378
33.1925
33.0074
32.8241
32.6428
32.4639
32.2879
32.1146
31.9438
31.7744
31.6047
31.4318
31.2499
31.0529
30.8227
30.562
34.1986
33.9377
33.7255
33.5589
33.3794
33.1925
33.0069
32.8234
32.6419
32.463
32.2869
32.1136
31.9427
31.7732
31.6033
31.43
31.2474
31.0492
30.8175
30.5507
34.2216
33.9327
33.7324
33.57
33.3881
33.1985
33.0107
32.8256
32.6431
32.4634
32.2868
32.1131
31.942
31.7723
31.6021
31.4284
31.2453
31.0462
30.8132
30.5412
34.2586
33.8565
33.6785
33.5389
33.3691
33.1867
33.0033
32.8208
32.6397
32.4608
32.2846
32.1111
31.9398
31.77
31.5996
31.4255
31.2419
31.0421
30.8084
30.5333
34.806
34.0432
33.7643
33.5841
33.3932
33.1996
33.0102
32.8244
32.6414
32.4614
32.2844
32.1104
31.9388
31.7687
31.598
31.4238
31.24
31.0399
30.806
30.5299
31.6073
31.7935
31.7128
31.6299
31.5412
31.411
31.2327
31.0106
30.749
30.452
30.1245
29.7712
29.3967
29.0054
28.6013
28.1876
27.7673
27.3424
26.9149
26.4863
26.058
25.6309
25.2063
24.7848
24.3676
23.9552
23.5486
23.1484
22.7554
22.3702
21.9934
21.6257
21.2675
20.9195
20.5821
20.2558
19.941
19.6383
19.348
19.0705
18.8063
18.5553
18.3182
18.0989
17.9014
17.7276
17.5786
17.4566
17.3642
17.304
17.2789
17.2921
17.3468
17.4468
17.5958
17.7981
18.0576
18.3789
18.7661
19.2233
19.7544
20.3628
21.0509
21.8205
22.6721
23.605
24.6168
25.7033
26.8587
28.0753
29.3438
30.6531
31.9913
33.3456
34.7029
36.0503
37.3757
38.6682
39.9181
41.1176
42.2606
43.3425
44.3606
45.3131
46.1999
47.0214
47.7793
48.4754
49.1125
49.6934
50.2211
50.699
51.1304
51.5185
51.8666
52.1777
52.4551
52.7017
52.9202
53.1133
53.2836
53.4335
53.5653
53.681
53.7826
53.872
53.9508
54.0206
54.0828
54.1386
54.1892
54.2356
54.2787
54.3194
54.3583
54.3961
54.4332
54.4701
54.5071
54.5445
54.5825
54.6212
54.6608
54.7013
54.7427
54.7848
54.8273
54.8703
54.9137
54.9572
55.0007
55.0442
55.0873
55.1301
55.1722
55.2135
55.2539
55.2932
55.3312
55.3678
55.4028
55.4361
55.4676
55.4972
55.5248
55.5503
55.5737
55.5948
55.6137
55.6304
55.6448
55.6569
55.6668
55.6744
55.6798
55.683
55.684
55.6829
55.6796
55.674
55.6662
55.656
55.6432
55.6278
55.6095
55.588
55.5631
55.5343
55.5013
55.4634
55.4201
55.3708
55.3146
55.2506
55.1778
55.095
55.0008
54.8937
54.7717
54.6328
54.4746
54.294
54.0877
53.8516
53.5807
53.2687
52.9082
52.4891
51.9988
51.4201
50.7299
49.8954
48.8699
47.5801
45.9236
43.6788
40.6394
35.643
29
5.58925
31.5308
31.6222
31.5915
31.5596
31.51
31.4054
31.2414
31.026
30.7663
30.4688
30.1401
29.7864
29.413
29.0244
28.6243
28.2155
27.8005
27.3814
26.9598
26.5372
26.1147
25.6933
25.2738
24.8571
24.4438
24.0348
23.6307
23.2323
22.8403
22.4554
22.0784
21.7098
21.3503
21.0007
20.6613
20.3329
20.016
19.7111
19.4187
19.1393
18.8732
18.6201
18.3813
18.1621
17.9653
17.7919
17.6437
17.523
17.4323
17.3745
17.3524
17.3692
17.4283
17.5334
17.6882
17.897
18.1638
18.493
18.8886
19.3549
19.8953
20.513
21.2104
21.989
22.8487
23.7886
24.8058
25.8958
27.0523
28.2673
29.5311
30.8326
32.1597
33.4998
34.8401
36.1682
37.4726
38.743
39.9704
41.1476
42.2691
43.3307
44.3299
45.2654
46.1368
46.9448
47.6909
48.3771
49.0059
49.58
50.1024
50.5761
51.0045
51.3905
51.7374
52.0481
52.3257
52.5729
52.7925
52.9871
53.1593
53.3112
53.4453
53.5635
53.6678
53.7599
53.8416
53.9144
53.9796
54.0385
54.0922
54.1418
54.1882
54.2321
54.2743
54.3153
54.3556
54.3958
54.436
54.4766
54.5177
54.5596
54.6023
54.6458
54.6901
54.735
54.7803
54.8259
54.8718
54.9178
54.9637
55.0094
55.0547
55.0994
55.1434
55.1865
55.2284
55.2691
55.3084
55.3461
55.3821
55.4163
55.4485
55.4787
55.5067
55.5325
55.5559
55.577
55.5958
55.6121
55.626
55.6374
55.6464
55.653
55.6572
55.659
55.6584
55.6554
55.65
55.642
55.6315
55.6184
55.6024
55.5834
55.5612
55.5354
55.5058
55.4719
55.4333
55.3893
55.3394
55.2829
55.2188
55.1463
55.0641
54.9711
54.8657
54.7462
54.6107
54.4569
54.2821
54.0831
53.8563
53.597
53.2998
52.9579
52.5627
52.1033
51.5653
50.9296
50.1698
49.2486
48.1126
46.6773
44.8218
42.2883
38.8014
33.0318
24.8822
2.89118
31.4925
31.58
31.5629
31.5197
31.4549
31.3443
31.1832
30.9766
30.7286
30.4433
30.1257
29.7811
29.4148
29.0318
28.6364
28.2321
27.8217
27.4075
26.9912
26.5741
26.1573
25.7416
25.3277
24.9164
24.5083
24.1038
23.7038
23.3089
22.9196
22.5368
22.1611
21.7932
21.434
21.084
20.744
20.4146
20.0966
19.7904
19.4967
19.216
18.9488
18.6943
18.4554
18.237
18.041
17.8686
17.7218
17.6031
17.515
17.4604
17.4421
17.4635
17.5278
17.6389
17.8005
18.0168
18.2919
18.63
19.0351
19.5112
20.0617
20.6895
21.3967
22.1844
23.0524
23.9991
25.0212
26.1138
27.2702
28.4821
29.7394
31.0311
32.3451
33.669
34.9904
36.2975
37.5794
38.8264
40.0304
41.1847
42.2842
43.3252
44.3053
45.2233
46.0791
46.8734
47.6076
48.2836
48.9038
49.4709
49.9876
50.457
50.8821
51.2658
51.6111
51.9211
52.1984
52.446
52.6664
52.8622
53.0358
53.1896
53.3256
53.4461
53.5528
53.6475
53.7319
53.8074
53.8755
53.9374
53.9942
54.0469
54.0964
54.1435
54.1889
54.2331
54.2767
54.3201
54.3635
54.4073
54.4517
54.4967
54.5425
54.5892
54.6364
54.6842
54.7323
54.7807
54.8292
54.8777
54.926
54.974
55.0215
55.0683
55.1142
55.159
55.2026
55.2448
55.2855
55.3244
55.3614
55.3965
55.4294
55.4602
55.4886
55.5147
55.5383
55.5594
55.5779
55.5939
55.6073
55.6181
55.6263
55.6318
55.6348
55.6352
55.6329
55.628
55.6205
55.6102
55.597
55.5809
55.5617
55.5391
55.5129
55.4828
55.4485
55.4095
55.3652
55.3152
55.2586
55.1948
55.1229
55.0417
54.9501
54.8467
54.73
54.5982
54.449
54.2802
54.0887
53.8711
53.6235
53.3408
53.0172
52.645
52.2151
51.7151
51.1295
50.4368
49.6079
48.6015
47.358
45.7835
43.7419
40.9526
37.0952
30.871
22.0002
3.94897
31.4285
31.4934
31.4683
31.4135
31.3402
31.2294
31.074
30.8764
30.6403
30.369
30.0665
29.7372
29.3855
29.0155
28.6312
28.2361
27.8332
27.4253
27.0145
26.6025
26.1906
25.78
25.3713
24.9651
24.5621
24.1628
23.7675
23.377
22.9917
22.6123
22.2394
21.8739
21.5163
21.1675
20.8283
20.4993
20.1813
19.875
19.5811
19.3002
19.0328
18.7785
18.5406
18.3236
18.1289
17.9583
17.8137
17.6979
17.6132
17.5626
17.5491
17.5759
17.6464
17.7645
17.9339
18.1587
18.443
18.7909
19.2064
19.6931
20.2544
20.8929
21.6102
22.4072
23.2832
24.2361
25.2623
26.3564
27.5112
28.7182
29.9671
31.2468
32.5456
33.8512
35.1518
36.4363
37.6944
38.9172
40.0972
41.2281
42.3052
43.3252
44.286
45.1864
46.0265
46.8069
47.529
48.1946
48.8062
49.366
49.8769
50.3417
50.7632
51.1442
51.4877
51.7965
52.0733
52.3209
52.5417
52.7384
52.9132
53.0685
53.2063
53.3288
53.4376
53.5347
53.6216
53.6998
53.7707
53.8354
53.8951
53.9509
54.0034
54.0537
54.1022
54.1496
54.1965
54.2431
54.2898
54.3368
54.3844
54.4326
54.4817
54.5314
54.5817
54.6323
54.6833
54.7345
54.7857
54.8368
54.8877
54.938
54.9878
55.0367
55.0846
55.1313
55.1766
55.2203
55.2624
55.3025
55.3407
55.3766
55.4104
55.4417
55.4706
55.497
55.5207
55.5418
55.5602
55.5759
55.5888
55.5989
55.6062
55.6108
55.6126
55.6115
55.6076
55.6009
55.5912
55.5785
55.5627
55.5436
55.5211
55.4949
55.4648
55.4304
55.3914
55.3472
55.2973
55.2411
55.1779
55.1068
55.0269
54.937
54.836
54.7223
54.5942
54.4499
54.287
54.103
53.8947
53.6585
53.39
53.0839
52.7336
52.3312
51.8664
51.3261
50.693
49.944
49.0475
47.9584
46.6119
44.9073
42.6973
39.6916
35.5458
29.1001
19.8293
3.97436
31.3639
31.4073
31.3787
31.3195
31.2401
31.1263
30.971
30.776
30.5447
30.2804
29.9867
29.6679
29.3278
28.9702
28.5986
28.2159
27.8248
27.4274
27.0257
26.6216
26.2166
25.8118
25.4084
25.0073
24.6091
24.2145
23.824
23.4381
23.0572
22.682
22.313
21.9509
21.5963
21.2501
20.9129
20.5856
20.269
19.9639
19.671
19.3911
19.1249
18.8726
18.6369
18.4219
18.2294
18.0615
17.9202
17.8081
17.7279
17.6823
17.6745
17.7078
17.7855
17.9116
18.0898
18.3241
18.6185
18.9771
19.4037
19.9018
20.4743
21.1237
21.8512
22.6572
23.5406
24.499
25.528
26.622
27.7734
28.9734
30.2117
31.4773
32.7586
34.044
35.3223
36.5828
37.8162
39.0141
40.1694
41.2765
42.3311
43.33
44.2712
45.154
45.9783
46.7447
47.4548
48.1101
48.7128
49.2653
49.7702
50.2301
50.6477
51.0258
51.3672
51.6745
51.9505
52.1977
52.4187
52.6159
52.7917
52.9482
53.0875
53.2116
53.3225
53.4217
53.5109
53.5916
53.6651
53.7325
53.7951
53.8538
53.9094
53.9627
54.0144
54.065
54.115
54.1649
54.2148
54.2651
54.316
54.3675
54.4197
54.4726
54.5259
54.5796
54.6335
54.6875
54.7415
54.7953
54.8487
54.9016
54.9536
55.0047
55.0547
55.1033
55.1504
55.1957
55.2392
55.2807
55.3199
55.3569
55.3914
55.4234
55.4528
55.4795
55.5034
55.5245
55.5428
55.5581
55.5705
55.58
55.5865
55.59
55.5906
55.5881
55.5826
55.5739
55.5621
55.5471
55.5286
55.5066
55.4808
55.4511
55.417
55.3783
55.3345
55.2852
55.2296
55.1673
55.0974
55.019
54.9311
54.8326
54.722
54.5979
54.4585
54.3017
54.1251
53.9259
53.7008
53.4459
53.1564
52.8268
52.45
52.0174
51.5179
50.9375
50.2577
49.4537
48.4914
47.323
45.8799
44.056
41.6979
38.5162
34.1566
27.6245
18.2006
3.70863
31.2992
31.3221
31.2885
31.2245
31.1385
31.0206
30.8649
30.6724
30.4459
30.1881
29.9024
29.5924
29.2618
28.914
28.5523
28.1797
27.7986
27.4113
27.0196
26.6251
26.2291
25.8327
25.4368
25.0425
24.6504
24.2613
23.8759
23.4948
23.1185
22.7477
22.383
22.0249
21.6742
21.3315
20.9976
20.6733
20.3593
20.0567
19.7661
19.4885
19.2249
18.9763
18.7442
18.5321
18.343
18.1789
18.0419
17.9347
17.8599
17.8204
17.8193
17.8601
17.9461
18.0812
18.269
18.5138
18.8192
19.1893
19.6276
20.1375
20.7216
21.3819
22.1194
22.9339
23.8239
24.7864
25.8167
26.9087
28.0545
29.2452
30.4705
31.7197
32.9816
34.2451
35.4996
36.7352
37.9431
39.1156
40.2459
41.3291
42.3609
43.3385
44.2604
45.1256
45.9342
46.6868
47.3848
48.0298
48.6237
49.1688
49.6675
50.1223
50.5358
50.9107
51.2496
51.5551
51.8299
52.0765
52.2973
52.4947
52.6711
52.8285
52.9691
53.0947
53.2073
53.3085
53.3998
53.4828
53.5588
53.6289
53.6942
53.7557
53.8142
53.8706
53.9253
53.9791
54.0324
54.0854
54.1387
54.1923
54.2465
54.3012
54.3567
54.4128
54.4692
54.5259
54.5828
54.6398
54.6966
54.7532
54.8092
54.8646
54.9191
54.9724
55.0245
55.0751
55.124
55.171
55.216
55.2588
55.2993
55.3373
55.3726
55.4053
55.4352
55.4623
55.4864
55.5075
55.5256
55.5406
55.5526
55.5614
55.5671
55.5696
55.5689
55.565
55.5578
55.5473
55.5334
55.5159
55.4948
55.4699
55.4409
55.4075
55.3695
55.3265
55.278
55.2235
55.1623
55.0939
55.0172
54.9316
54.8357
54.7285
54.6085
54.474
54.3232
54.1539
53.9635
53.7491
53.5072
53.2336
52.9233
52.5702
52.167
51.7044
51.1706
50.5508
49.8252
48.9676
47.9422
46.6988
45.1659
43.2351
40.7501
37.4312
32.9251
26.3998
17.0643
3.78752
31.2362
31.2406
31.2014
31.1333
31.0419
30.9206
30.7646
30.5742
30.3517
30.0995
29.8206
29.5182
29.1959
28.8567
28.5038
28.1399
27.7674
27.3884
27.0049
26.6184
26.2303
25.8417
25.4536
25.0668
24.6821
24.3
23.9212
23.5463
23.1758
22.8104
22.4507
22.0974
21.7512
21.4128
21.083
20.7626
20.4524
20.1533
19.8663
19.5924
19.3328
19.0893
18.8623
18.6547
18.4702
18.3111
18.1797
18.0784
18.0102
17.9778
17.9846
18.0339
18.1292
18.2743
18.4728
18.7288
19.046
19.4282
19.8787
20.4006
20.9962
21.6672
22.414
23.236
24.1312
25.0961
26.1257
27.2134
28.3512
29.5302
30.7402
31.9709
33.2116
34.4518
35.6815
36.8914
38.0733
39.2199
40.3251
41.3842
42.3933
43.35
44.2527
45.1006
45.8938
46.6329
47.319
47.9537
48.5388
49.0763
49.5686
50.0182
50.4273
50.7987
51.1348
51.4383
51.7116
51.9572
52.1775
52.3748
52.5515
52.7096
52.8511
52.978
53.0921
53.195
53.2883
53.3735
53.4518
53.5244
53.5923
53.6566
53.718
53.7773
53.8352
53.8921
53.9485
54.0049
54.0614
54.1183
54.1758
54.2339
54.2927
54.352
54.4116
54.4714
54.5314
54.5913
54.6511
54.7104
54.7692
54.8272
54.8841
54.9399
54.9941
55.0468
55.0976
55.1463
55.1929
55.2371
55.2787
55.3178
55.3541
55.3875
55.4179
55.4453
55.4697
55.4908
55.5088
55.5235
55.535
55.5432
55.548
55.5495
55.5476
55.5423
55.5334
55.5211
55.505
55.4852
55.4614
55.4336
55.4013
55.3644
55.3225
55.2751
55.2219
55.1622
55.0955
55.0209
54.9376
54.8446
54.7409
54.625
54.4955
54.3506
54.1885
54.0067
53.8026
53.5731
53.3144
53.0222
52.6911
52.3148
51.8854
51.3932
50.8257
50.1672
49.3971
48.4879
47.4023
46.0887
44.4739
42.4491
39.8586
36.4381
31.8462
25.3993
16.3236
4.16777
31.1752
31.1632
31.1181
31.0461
30.9502
30.8258
30.6693
30.4807
30.2617
30.0145
29.7418
29.4464
29.1316
28.8003
28.4555
28.0997
27.7352
27.3641
26.9882
26.6091
26.228
25.8462
25.4648
25.0845
24.7062
24.3306
23.9583
23.59
23.2261
22.8672
22.5139
22.1668
21.8265
21.4937
21.1693
20.854
20.5487
20.2544
19.9722
19.7031
19.4487
19.2115
18.9913
18.7899
18.6116
18.4589
18.3342
18.2401
18.1796
18.1556
18.1713
18.2302
18.3358
18.4917
18.7018
18.9698
19.2993
19.6939
20.1568
20.6906
21.2974
21.9782
22.7333
23.5613
24.4599
25.4251
26.4516
27.5324
28.6597
29.8246
31.0172
32.2276
33.4457
34.6614
35.8655
37.0492
38.2047
39.3253
40.4055
41.4408
42.4277
43.3639
44.2479
45.079
45.8572
46.583
47.2574
47.8818
48.458
48.9879
49.4738
49.9178
50.3223
50.6899
51.023
51.324
51.5955
51.8398
52.0592
52.2562
52.4329
52.5913
52.7335
52.8615
52.9768
53.0813
53.1765
53.2636
53.3441
53.4191
53.4896
53.5565
53.6208
53.683
53.7439
53.8039
53.8635
53.9231
53.983
54.0432
54.1041
54.1656
54.2277
54.2902
54.353
54.416
54.4791
54.5421
54.6049
54.6671
54.7287
54.7894
54.8489
54.907
54.9636
55.0183
55.071
55.1216
55.1698
55.2154
55.2584
55.2985
55.3357
55.3699
55.4009
55.4288
55.4533
55.4745
55.4924
55.5068
55.5178
55.5254
55.5294
55.5298
55.5267
55.52
55.5095
55.4953
55.4771
55.4549
55.4285
55.3977
55.3622
55.3217
55.2759
55.2243
55.1664
55.1016
55.0293
54.9486
54.8587
54.7585
54.6468
54.5223
54.3833
54.2282
54.0548
53.8606
53.6429
53.3983
53.123
52.8123
52.4607
52.0614
51.6061
51.0847
50.4842
49.7881
48.975
48.0164
46.8742
45.4956
43.8071
41.7013
39.0261
35.5362
30.9105
24.5947
15.8762
4.71787
31.1165
31.0898
31.0388
30.9632
30.8633
30.7363
30.5794
30.3924
30.1767
29.9341
29.6671
29.3782
29.0704
28.7465
28.4091
28.0607
27.7036
27.3398
26.9711
26.5989
26.2247
25.8495
25.4744
25.1003
24.7281
24.3584
23.9919
23.6293
23.2713
22.9184
22.5713
22.2305
21.8968
21.5708
21.2531
20.9446
20.646
20.3584
20.0827
19.8202
19.5726
19.3425
19.1307
18.9378
18.7672
18.6223
18.5056
18.4199
18.3683
18.3537
18.3794
18.4489
18.5657
18.7334
18.9556
19.236
19.5782
19.9854
20.4604
21.0056
21.6227
22.3122
23.0739
23.906
24.8057
25.7688
26.7894
27.8609
28.9753
30.1239
31.2973
32.486
33.6803
34.8708
36.0487
37.2059
38.3351
39.4301
40.4858
41.4979
42.4634
43.3798
44.2458
45.0606
45.8242
46.5369
47.1998
47.8141
48.3814
48.9036
49.3828
49.8211
50.2208
50.5843
50.914
51.2123
51.4816
51.7242
51.9426
52.1388
52.3152
52.4738
52.6165
52.7452
52.8616
52.9675
53.0642
53.1532
53.2358
53.313
53.386
53.4556
53.5226
53.5877
53.6515
53.7147
53.7775
53.8403
53.9035
53.9671
54.0314
54.0962
54.1616
54.2274
54.2935
54.3598
54.4261
54.4923
54.5581
54.6233
54.6878
54.7512
54.8133
54.8739
54.9328
54.9898
55.0445
55.0969
55.1468
55.1939
55.2382
55.2795
55.3177
55.3527
55.3843
55.4126
55.4374
55.4587
55.4765
55.4906
55.5012
55.5081
55.5113
55.5107
55.5064
55.4982
55.4861
55.47
55.4497
55.4252
55.3962
55.3624
55.3237
55.2797
55.23
55.1741
55.1116
55.0417
54.9638
54.8771
54.7806
54.6732
54.5537
54.4206
54.2723
54.107
53.9223
53.7159
53.4846
53.2251
52.9334
52.6044
52.2325
51.8105
51.3299
50.78
50.1473
49.4148
48.5604
47.555
46.3598
44.9219
43.1682
40.9941
38.2537
34.7227
30.1057
23.9575
15.6469
5.37461
31.0602
31.0201
30.9635
30.8845
30.7812
30.6518
30.4946
30.3091
30.0963
29.8581
29.5964
29.3136
29.0124
28.6954
28.3651
28.0238
27.6737
27.3168
26.9547
26.5891
26.2212
25.8522
25.4832
25.1152
24.7488
24.3849
24.0242
23.6674
23.3151
22.968
22.6267
22.2919
21.9643
21.6445
21.3335
21.0319
20.7407
20.4608
20.1931
19.939
19.7001
19.479
19.2772
19.0953
18.9351
18.7999
18.6928
18.617
18.5754
18.5714
18.6081
18.6891
18.8178
18.9978
19.2326
19.5258
19.8805
20.2999
20.7865
21.3422
21.9681
22.6646
23.4308
24.2647
25.163
26.1212
27.1335
28.1933
29.2927
30.4233
31.5761
32.7419
33.9117
35.0767
36.2284
37.3595
38.463
39.5333
40.5654
41.5555
42.5003
43.3978
44.2464
45.0455
45.7949
46.4949
47.1464
47.7506
48.3091
48.8234
49.2958
49.7281
50.1227
50.4818
50.8078
51.1031
51.3699
51.6106
51.8275
52.0228
52.1986
52.357
52.4999
52.6291
52.7465
52.8535
52.9517
53.0425
53.127
53.2064
53.2817
53.3538
53.4235
53.4914
53.5583
53.6245
53.6904
53.7565
53.823
53.89
53.9577
54.026
54.0947
54.1639
54.2333
54.3028
54.3724
54.4418
54.5107
54.579
54.6464
54.7126
54.7775
54.8407
54.902
54.9612
55.018
55.0724
55.124
55.1727
55.2183
55.2608
55.3
55.3358
55.3681
55.3968
55.4219
55.4434
55.4611
55.475
55.4851
55.4913
55.4937
55.4921
55.4866
55.477
55.4633
55.4453
55.4229
55.3961
55.3644
55.3278
55.2859
55.2384
55.1848
55.1247
55.0576
54.9827
54.8993
54.8066
54.7035
54.589
54.4617
54.3202
54.1627
53.9872
53.7914
53.5728
53.3282
53.054
52.746
52.399
52.0071
51.563
51.0576
50.4799
49.816
49.0486
48.1548
47.1054
45.8612
44.3697
42.5591
40.329
37.5413
33.9933
29.4188
23.4624
15.5815
6.10244
31.0062
30.9541
30.8922
30.8098
30.7035
30.5721
30.4145
30.2303
30.0204
29.7861
29.5294
29.2523
28.9574
28.647
28.3235
27.989
27.6456
27.2953
26.9396
26.5802
26.2184
25.8553
25.4921
25.1297
24.769
24.4106
24.0555
23.7044
23.3577
23.0164
22.681
22.3522
22.0308
21.7175
21.4131
21.1185
20.8345
20.5622
20.3027
20.0573
19.8276
19.6161
19.4249
19.2549
19.1068
18.9837
18.8886
18.8249
18.7955
18.8037
18.8529
18.9465
19.088
19.2809
19.5286
19.8344
20.2014
20.6323
21.1292
21.6938
22.3268
23.0281
23.7964
24.6295
25.5238
26.4749
27.4768
28.523
29.6059
30.7173
31.8486
32.9913
34.1367
35.2764
36.4028
37.5087
38.5878
39.6346
40.6443
41.6133
42.5385
43.4179
44.2499
45.0337
45.7693
46.4568
47.0972
47.6913
48.2408
48.7473
49.2126
49.6388
50.028
50.3825
50.7045
50.9964
51.2604
51.4989
51.714
51.908
52.083
52.241
52.3839
52.5135
52.6315
52.7396
52.8391
52.9314
53.0178
53.0992
53.1768
53.2514
53.3237
53.3945
53.4642
53.5335
53.6026
53.6719
53.7417
53.8122
53.8832
53.9549
54.027
54.0995
54.1723
54.2452
54.3181
54.3908
54.4629
54.5343
54.6047
54.6739
54.7415
54.8073
54.8711
54.9327
54.9917
55.048
55.1014
55.1517
55.1988
55.2425
55.2828
55.3194
55.3524
55.3816
55.407
55.4286
55.4462
55.4599
55.4696
55.4752
55.4768
55.4742
55.4675
55.4565
55.4411
55.4213
55.3969
55.3676
55.3334
55.2939
55.2489
55.1979
55.1405
55.0762
55.0045
54.9246
54.8358
54.7372
54.6277
54.5061
54.3712
54.2212
54.0546
53.8691
53.6624
53.4318
53.174
52.8854
52.5614
52.1968
51.7853
51.3194
50.7899
50.1853
49.4914
48.6905
47.7595
46.6689
45.3799
43.8405
41.9813
39.7067
36.8877
33.3432
28.8368
23.0872
15.6388
6.87271
30.9544
30.8915
30.8245
30.7391
30.63
30.4968
30.3389
30.156
29.9486
29.718
29.4659
29.1942
28.9052
28.601
28.2839
27.9559
27.619
27.2751
26.9257
26.5724
26.2165
25.8591
25.5015
25.1445
24.7891
24.4362
24.0864
23.7406
23.3994
23.0636
22.7339
22.4111
22.0959
21.789
21.4914
21.2038
20.9273
20.663
20.4119
20.1755
19.9554
19.7538
19.573
19.4141
19.278
19.1674
19.0852
19.0346
19.0187
19.0406
19.1036
19.211
19.3663
19.5727
19.8335
20.1519
20.5305
20.9719
21.478
22.0499
22.6881
23.3922
24.1607
24.9911
25.8797
26.822
27.8122
28.8438
29.9094
31.0014
32.1115
33.2315
34.3533
35.4691
36.5714
37.6536
38.7097
39.7342
40.7228
41.6718
42.5784
43.4404
44.2563
45.0255
45.7476
46.4229
47.0521
47.6363
48.1768
48.6752
49.1333
49.5531
49.9367
50.2863
50.604
50.8922
51.1532
51.3891
51.6022
51.7947
51.9686
52.126
52.2686
52.3984
52.5169
52.6258
52.7265
52.8203
52.9084
52.9918
53.0716
53.1486
53.2235
53.297
53.3696
53.4419
53.5141
53.5867
53.6598
53.7337
53.8081
53.8832
53.9587
54.0346
54.1108
54.1871
54.2634
54.3393
54.4147
54.4893
54.5629
54.635
54.7055
54.774
54.8403
54.9042
54.9655
55.0238
55.079
55.131
55.1796
55.2246
55.266
55.3035
55.3372
55.367
55.3927
55.4144
55.432
55.4455
55.4547
55.4598
55.4606
55.457
55.4491
55.4367
55.4197
55.398
55.3715
55.34
55.3032
55.2609
55.2127
55.1582
55.097
55.0287
54.9524
54.8676
54.7735
54.669
54.5531
54.4246
54.2821
54.124
53.9483
53.753
53.5356
53.2932
53.0225
52.7196
52.3799
51.9981
51.5675
51.0805
50.5276
49.897
49.1744
48.3416
47.3757
46.247
44.9172
43.3357
41.4357
39.1272
36.2912
32.7668
28.3479
22.8124
15.7867
7.66133
30.9049
30.8321
30.7605
30.6721
30.5605
30.4257
30.2675
30.0857
29.8807
29.6535
29.4056
29.1389
28.8554
28.5571
28.2461
27.9243
27.5937
27.2559
26.9126
26.5652
26.215
25.8633
25.5112
25.1596
24.8094
24.4617
24.1171
23.7764
23.4405
23.1101
22.7859
22.4688
22.1595
21.8589
21.5678
21.2872
21.0181
20.7616
20.5189
20.2914
20.0809
19.8893
19.7189
19.5709
19.4465
19.3483
19.279
19.2418
19.2394
19.2752
19.3522
19.4736
19.6426
19.8624
20.1361
20.4666
20.8563
21.3074
21.8216
22.3997
23.0419
23.7476
24.5151
25.3416
26.2236
27.1565
28.1345
29.1514
30.2002
31.2733
32.3631
33.4618
34.5614
35.6547
36.7345
37.7946
38.8289
39.8326
40.8012
41.7313
42.62
43.4653
44.2658
45.0207
45.7297
46.393
47.0112
47.5854
48.1169
48.6071
49.0579
49.4711
49.8488
50.1932
50.5064
50.7907
51.0483
51.2814
51.4922
51.6829
51.8555
52.012
52.1542
52.2839
52.4029
52.5125
52.6142
52.7094
52.7991
52.8844
52.9663
53.0456
53.1231
53.1992
53.2747
53.35
53.4253
53.5011
53.5776
53.6548
53.7326
53.811
53.8899
53.9692
54.0489
54.1286
54.2083
54.2876
54.3664
54.4442
54.5209
54.596
54.6694
54.7407
54.8097
54.876
54.9395
54.9999
55.0571
55.1108
55.1609
55.2072
55.2497
55.2882
55.3227
55.353
55.3791
55.4009
55.4185
55.4318
55.4406
55.4451
55.4451
55.4406
55.4314
55.4177
55.3991
55.3756
55.347
55.3132
55.2739
55.2287
55.1774
55.1195
55.0546
54.9822
54.9015
54.8118
54.7124
54.6022
54.48
54.3447
54.1948
54.0286
53.8441
53.6391
53.4112
53.1572
52.8739
52.5571
52.2022
51.8035
51.3544
50.8469
50.2714
49.6159
48.8659
48.0031
47.0045
45.8408
44.4744
42.8563
40.9229
38.5902
35.7494
32.2588
27.9407
22.6214
16.0008
8.45167
30.8576
30.7757
30.6998
30.6087
30.4947
30.3585
30.2001
30.0193
29.8164
29.5923
29.3485
29.0864
28.8081
28.5153
28.2101
27.8942
27.5695
27.2376
26.9001
26.5584
26.2139
25.8676
25.5208
25.1745
24.8295
24.4868
24.1473
23.8118
23.481
23.1558
22.837
22.5254
22.2219
21.9273
21.6426
21.3687
21.1067
20.8577
20.6231
20.4043
20.203
20.0211
19.8607
19.7232
19.6102
19.524
19.4673
19.443
19.4539
19.5032
19.5938
19.7287
19.9111
20.1438
20.4298
20.7717
21.1717
21.6318
22.1532
22.7367
23.3821
24.0887
24.8545
25.6769
26.5521
27.4756
28.4419
29.4448
30.4777
31.5333
32.6041
33.6828
34.7618
35.8341
36.893
37.9322
38.9462
39.9301
40.8798
41.7919
42.6636
43.4929
44.2785
45.0195
45.7157
46.3671
46.9745
47.5388
48.0611
48.543
48.9863
49.3927
49.7644
50.1033
50.4117
50.6918
50.9457
51.1758
51.3841
51.5727
51.7438
51.8993
52.0409
52.1705
52.2896
52.3998
52.5025
52.5989
52.6902
52.7774
52.8614
52.9429
53.0229
53.1017
53.18
53.2582
53.3366
53.4156
53.4953
53.5759
53.657
53.7387
53.821
53.9037
53.9868
54.07
54.1532
54.2359
54.318
54.3992
54.479
54.5572
54.6336
54.7077
54.7793
54.8481
54.914
54.9765
55.0356
55.0911
55.1427
55.1904
55.2341
55.2735
55.3088
55.3396
55.3661
55.3882
55.4058
55.4188
55.4273
55.4312
55.4304
55.4249
55.4147
55.3995
55.3794
55.3541
55.3235
55.2874
55.2455
55.1975
55.1432
55.0819
55.0133
54.9369
54.8518
54.7574
54.6527
54.5369
54.4086
54.2666
54.1094
53.9352
53.7421
53.5277
53.2895
53.0243
52.7286
52.3983
52.0285
51.6135
51.1465
50.6193
50.022
49.3428
48.5668
47.6757
46.6468
45.4512
44.0523
42.403
40.4431
38.0949
35.2596
31.8136
27.6054
22.5
16.2619
9.23102
30.8123
30.7222
30.6423
30.5487
30.4326
30.295
30.1364
29.9566
29.7556
29.5344
29.2942
29.0365
28.763
28.4755
28.1757
27.8654
27.5463
27.2201
26.8882
26.552
26.2128
25.8719
25.5303
25.189
24.8491
24.5115
24.1769
23.8464
23.5206
23.2006
22.887
22.5808
22.2829
21.9942
21.7156
21.4482
21.1931
20.9515
20.7247
20.5142
20.3217
20.149
19.9983
19.8709
19.7687
19.6939
19.6492
19.6372
19.6609
19.723
19.8265
19.9743
20.1693
20.4142
20.7117
21.0643
21.4738
21.9421
22.4701
23.0584
23.7066
24.4137
25.1778
25.9961
26.8649
27.7796
28.7349
29.7248
30.7429
31.7822
32.8354
33.8955
34.9554
36.0081
37.0473
38.0669
39.0618
40.0271
40.9588
41.8538
42.7092
43.5232
44.2944
45.0219
45.7055
46.3453
46.9419
47.4962
48.0094
48.483
48.9185