/*--------------------------------*- C++ -*----------------------------------*\
| =========                 |                                                 |
| \\      /  F ield         | OpenFOAM: The Open Source CFD Toolbox           |
|  \\    /   O peration     | Version:  2.4.0                                 |
|   \\  /    A nd           | Web:      www.OpenFOAM.org                      |
|    \\/     M anipulation  |                                                 |
\*---------------------------------------------------------------------------*/
FoamFile
{
    version     2.0;
    format      ascii;
    class       volScalarField;
    location    "0.124";
    object      p;
}
// * * * * * * * * * * * * * * * * * * * * * * * * * * * * * * * * * * * * * //

dimensions      [0 2 -2 0 0 0 0];

internalField   nonuniform List<scalar> 
4400
(
90.4115
70.1947
62.604
59.3154
56.8424
54.4636
52.211
49.9024
47.6865
46.1995
88.4745
70.2628
62.6415
59.3272
56.8456
54.463
52.2111
49.9023
47.6912
46.1948
87.2571
70.5816
62.7768
59.3663
56.8664
54.4709
52.2137
49.9012
47.7138
46.2205
86.5208
70.9693
62.9571
59.424
56.9094
54.496
52.226
49.9024
47.7474
46.2979
85.9262
71.3256
63.1392
59.483
56.9682
54.5389
52.2521
49.9085
47.7911
46.4165
85.413
71.6216
63.2994
59.5257
57.0229
54.5871
52.2895
49.9157
47.8437
46.5712
84.989
71.8581
63.4329
59.55
57.0638
54.629
52.3273
49.9251
47.8675
46.8145
84.6627
72.0376
63.5382
59.5644
57.0872
54.6639
52.3546
49.94
47.8446
46.9861
84.4427
72.1603
63.6095
59.5721
57.0993
54.6862
52.3742
49.9487
47.8495
47.1098
84.3319
72.2235
63.6443
59.5772
57.1017
54.6981
52.3869
49.9505
47.8777
47.0557
84.3306
72.227
63.6427
59.582
57.0952
54.7006
52.3927
49.9546
47.9043
46.9834
84.4394
72.1679
63.6054
59.584
57.0836
54.6915
52.3935
49.9549
47.935
46.8854
84.657
72.049
63.5319
59.5839
57.0632
54.6723
52.3858
49.9532
47.9717
46.7764
84.9809
71.8722
63.4239
59.5766
57.0333
54.6413
52.3708
49.9494
48.0118
46.6596
85.4033
71.6377
63.2888
59.5561
56.9915
54.5988
52.3499
49.9438
48.0573
46.5371
85.9152
71.3437
63.127
59.5163
56.9381
54.5498
52.3258
49.9386
48.0977
46.4445
86.509
70.9899
62.9427
59.459
56.8807
54.5077
52.3053
49.9404
48.1186
46.3777
87.2444
70.6037
62.7609
59.4019
56.8389
54.4838
52.295
49.9471
48.1297
46.3505
88.4609
70.2855
62.6252
59.3628
56.8187
54.4769
52.2921
49.9531
48.1362
46.3464
90.3972
70.2175
62.5877
59.3512
56.8151
54.4781
52.2915
49.9558
48.1392
46.4366
45.7954
45.7382
45.4819
44.7891
42.6917
38.2281
30.4162
23.002
18.3706
15.7301
14.152
15.4564
18.0328
19.1239
21.9831
27.6282
35.4758
49.2601
62.2981
71.0598
78.8743
82.9917
79.0588
71.4611
62.4693
53.0748
45.0952
38.6906
33.3153
30.2684
30.3266
32.348
34.8067
39.2077
44.4454
49.7484
52.3116
51.2984
47.365
37.3409
23.6525
12.6132
6.02095
2.53597
0.410712
2.51521
9.24178
19.4604
32.9914
45.2093
52.9678
59.0138
64.7935
67.4147
68.2071
68.1066
67.1374
63.8922
57.7311
52.3117
44.9552
37.9666
33.8833
33.4101
36.1414
41.2986
47.465
53.9078
58.9789
61.4917
61.6568
60.6019
61.7911
63.1795
65.3297
62.2932
61.6009
57.7806
55.8902
53.1108
50.6281
48.7035
48.4583
50.2679
53.6107
57.6429
61.2983
64.1509
65.8996
66.733
66.9495
66.7995
66.6496
65.703
64.1199
61.2549
57.1216
50.0538
44.5903
33.3847
45.7317
45.6149
45.2331
44.2998
42.3139
38.4165
31.2711
24.2888
19.7832
17.0643
14.946
16.2406
19.4336
20.4026
23.2727
29.4854
36.9574
49.7204
61.7304
69.3014
76.5649
80.4596
76.9585
70.6509
62.8077
54.1871
47.0328
41.3315
36.2955
33.5517
33.9705
36.1232
38.864
43.5165
48.7241
53.3312
55.3878
53.5877
48.9374
36.841
21.4969
9.31331
2.69232
-0.114085
-1.27964
0.96608
7.55833
17.7458
31.7249
44.0563
52.0972
58.5189
64.6846
67.4
68.2421
68.3292
67.3832
64.8185
59.4694
54.6914
48.4139
41.8151
38.2151
37.7873
40.0258
44.7585
50.479
56.2119
60.0783
62.509
62.4716
61.4849
62.0928
63.8875
63.9033
60.5825
59.8878
55.3923
54.1732
50.8578
48.4379
45.7922
45.5645
48.0483
52.0442
56.7001
60.8187
64.0456
65.9852
66.8255
67.143
66.8264
66.7645
65.3747
63.7582
60.6087
56.4641
47.7602
41.4958
30.301
45.6772
45.3903
44.9054
43.7562
41.7503
38.337
31.8628
25.3056
21.0885
18.6381
16.2576
17.1792
20.9391
22.28
24.9984
31.3873
38.4434
49.812
60.6385
67.1362
73.9765
77.4958
74.5928
69.6046
62.9967
55.3473
49.1677
44.142
39.4484
36.9814
37.7589
40.0704
43.1205
47.9156
52.9397
56.8406
58.5151
56.1702
50.7166
37.0754
21.033
7.995
0.72167
-2.08282
-2.43305
0.10945
6.57178
16.6977
30.9395
43.1283
51.4252
58.3592
64.7282
67.6052
68.5021
68.7052
67.8304
65.7629
61.4319
57.1776
51.7354
45.8135
42.6617
42.2394
44.1009
48.4241
53.6573
58.7606
61.4569
63.7381
63.3962
62.3633
62.1898
64.9437
63.2062
59.2341
58.1181
53.1005
52.6362
48.7708
46.6491
42.8543
42.6339
45.7112
50.4382
55.7845
60.3286
63.9256
66.0961
66.7502
67.3889
66.8063
66.7808
64.8674
63.5834
60.0909
55.8343
46.4653
38.3158
29.1204
45.4161
45.0334
44.5269
43.3027
41.1962
38.1484
32.5324
26.6887
22.6706
20.4068
18.3095
18.6296
22.492
24.5696
27.0196
33.1422
39.9136
49.7336
59.1625
64.8572
71.287
74.4044
72.2066
68.4612
63.0498
56.4803
51.3893
47.0469
42.8264
40.6607
41.662
44.1399
47.4609
52.2735
56.8972
60.1675
61.4352
58.8018
52.3065
38.1198
21.9363
8.51902
0.167871
-3.10526
-2.96583
-0.111978
6.19597
16.2758
30.6012
42.4282
50.9835
58.5755
64.8278
67.9393
68.8775
69.1471
68.4528
66.7618
63.7292
59.9183
54.924
49.8807
47.0751
46.7353
48.1791
52.1275
56.9945
61.2512
63.087
64.984
63.9663
63.0698
62.6763
65.8952
63.2148
58.5562
56.4886
51.1221
51.1585
46.9512
45.2438
39.8027
39.9012
43.4428
48.8751
54.9905
59.9543
63.7016
66.3131
66.5049
67.6091
66.7815
66.9723
64.7867
63.6014
59.9559
55.2667
45.6123
35.8584
28.6833
45.1528
44.6544
44.2487
42.9279
40.7363
38.1189
33.304
28.3051
24.5474
22.3689
20.9467
20.7704
24.0949
26.8755
29.1911
34.5617
40.9383
49.5119
57.5889
62.7278
68.6468
71.4616
69.9922
67.3396
63.0061
57.6162
53.6353
50.0023
46.3833
44.4603
45.5734
48.1788
51.6854
56.3926
60.5142
63.2328
64.0231
61.1859
53.9394
39.261
22.3634
8.86637
-0.133685
-3.56856
-2.95603
0.205018
6.33099
16.3779
30.6412
42.0381
50.8317
59.0453
64.9492
68.3356
69.3723
69.7561
69.2761
68.1975
66.2976
62.7548
58.1373
53.8949
51.454
51.0115
52.1353
55.7853
60.3178
63.5138
64.9566
66.2977
64.1208
64.3716
63.8511
66.5287
63.4658
58.6203
55.0151
49.6532
49.8469
45.4798
43.8256
36.7214
37.8136
41.1386
47.3682
54.3026
59.7984
63.3606
66.6119
66.1916
67.8997
67.0544
67.4946
64.9156
63.3822
60.0929
54.3748
44.7485
34.6725
28.518
44.8739
44.2394
44.079
42.7046
40.3632
38.2692
34.199
29.9759
26.6872
24.5471
23.717
23.3667
25.8955
28.9225
31.201
35.7495
41.4312
48.9256
55.9607
60.7768
66.1932
68.8675
68.054
66.2623
62.9392
58.7861
55.7632
52.8677
49.9009
48.2229
49.3641
52.0129
55.6451
60.1287
63.6239
65.8685
66.2279
63.276
55.8231
40.301
22.2027
8.12022
-0.921414
-3.88908
-2.48723
1.06393
7.04819
17.0734
30.9949
41.9452
50.9418
59.6639
65.2173
68.8449
70.0559
70.5946
70.4062
70.1008
68.7262
65.4437
61.3413
57.7379
55.5537
55.0423
55.9593
59.2187
63.4516
65.95
67.133
67.6715
64.4029
64.9016
65.0975
66.4198
63.4718
59.1142
53.5044
48.6629
48.8371
44.3817
42.19
33.9112
36.5967
38.6413
46.2461
53.6235
59.8372
62.9492
67.0202
66.3282
68.4084
67.5794
67.868
65.0973
63.0212
59.7121
53.1552
44.4748
34.6112
28.4381
44.7923
43.8524
43.9015
42.5896
40.0651
38.5482
35.2038
31.5586
28.8941
26.9126
26.345
26.0261
27.8239
30.678
32.8128
36.6297
41.5381
47.9218
54.1488
58.7759
63.7892
66.6111
66.3964
65.2563
62.9427
59.9507
57.6671
55.5457
53.2663
51.8531
52.9382
55.5249
59.1781
63.365
66.1435
67.8752
67.8921
64.9298
57.5138
41.6346
23.1178
8.13263
-0.962791
-3.65946
-1.50889
2.38801
8.35897
18.38
31.5711
42.2339
51.3107
60.3506
65.7253
69.3695
70.8695
71.7961
71.8561
71.9702
70.748
67.8572
64.5395
61.2712
59.2992
58.7655
59.4224
62.3914
66.1599
68.1003
69.1104
69.0542
65.3845
65.6206
65.8538
65.9988
63.0876
59.326
51.6072
47.5765
47.9484
43.5478
40.9822
32.2552
36.0305
35.8269
45.7353
52.7595
60.0547
62.9175
67.8081
67.198
68.9273
68.1926
67.916
65.2783
62.4368
59.0203
52.5282
44.9372
35.1901
28.6194
45.1375
43.7048
43.6056
42.3047
39.8462
38.9118
36.2776
33.0194
30.9773
29.2996
28.7032
28.496
29.7377
32.1382
34.0697
37.2472
41.3256
46.5906
52.1551
56.536
61.2057
64.4578
64.9023
64.3614
63.0326
61.0671
59.3668
57.9794
56.3368
55.1784
56.1679
58.6335
62.2582
66.0385
68.0484
69.2026
68.8687
65.8232
58.8019
43.6301
25.7557
10.4077
1.47976
-1.95559
0.155212
4.05169
10.1743
20.1664
32.3459
42.9831
51.8974
61.1599
66.2652
69.8707
72.0252
73.2332
73.2633
73.4621
72.5066
70.2159
67.5927
64.3794
62.6005
62.0585
62.5676
65.285
68.622
70.0632
70.6914
70.3698
66.9982
66.6492
66.227
66.1027
62.9556
58.7987
49.1814
46.2555
46.9385
42.3697
40.5217
32.6689
35.618
33.1335
45.8891
51.7276
60.5711
63.5578
68.7973
68.4791
69.2483
68.6936
67.8042
65.4025
61.9817
58.9088
52.8009
45.7563
36.1963
29.2895
45.2578
43.7111
43.4215
42.2714
39.8607
39.2604
37.3193
34.3921
32.8753
31.6118
30.8371
30.696
31.5791
33.4126
35.0316
37.6005
40.8925
45.0583
49.963
54.0434
58.3371
62.1701
63.389
63.5861
63.2021
62.0941
60.9064
60.0916
58.9144
58.0838
59.0401
61.3457
64.8757
68.1205
69.3403
69.8971
69.164
65.9238
59.6707
45.9582
29.2287
13.9924
5.60367
0.992105
2.36267
5.95185
12.5145
22.2501
33.283
43.9446
52.9003
62.0548
66.8287
70.8921
73.5684
74.501
74.4036
74.7879
74.246
72.4282
70.1588
67.0307
65.4164
64.9683
65.3533
67.7668
70.7285
71.8224
71.8427
71.3359
68.4677
67.5423
66.447
66.9468
63.9797
58.5724
47.3017
45.7713
45.8058
41.3458
40.3311
34.48
34.8385
31.6331
46.6612
50.9255
61.6436
64.8438
69.7129
69.8734
69.5568
68.9874
67.6944
65.687
62.0696
59.4481
53.4956
46.5796
37.451
30.4397
45.4429
43.9002
43.3927
42.3378
40.0796
39.6045
38.2854
35.7236
34.5696
33.7178
32.8217
32.7267
33.3208
34.5939
35.9023
37.7541
40.2211
43.3994
47.5656
51.3114
55.4887
59.8211
61.911
62.9486
63.4036
62.9982
62.3045
61.8971
61.0809
60.6266
61.5559
63.6437
67.0342
69.64
70.0607
70.0549
68.8772
65.4069
59.955
47.9063
32.3033
17.3038
9.19107
4.09773
4.82772
8.01566
15.2129
24.3842
34.5472
45.1377
54.3813
62.7898
67.8283
72.4174
74.9939
75.4911
75.5341
76.1588
75.8027
74.2664
72.2164
69.3106
67.8908
67.4973
67.786
69.9591
72.4897
73.1463
72.7223
72.0258
69.4828
68.0552
66.6562
67.3443
65.1519
59.8359
47.2891
47.5226
44.9805
41.1684
39.7633
34.2489
34.3684
32.0481
47.869
50.8744
63.14
66.56
70.5721
71.1512
70.1124
69.3585
67.8627
66.3812
62.653
60.1423
54.2663
47.3913
38.9115
31.9582
45.5505
44.1387
43.4256
42.4653
40.4831
39.9802
39.1754
37.0032
36.0778
35.6525
34.7097
34.6344
35.0105
35.7132
36.6771
37.7544
39.3934
41.7142
45.0277
48.5711
52.8344
57.5604
60.586
62.457
63.6631
63.8685
63.6508
63.4901
62.922
62.8141
63.6764
65.5388
68.7472
70.6553
70.2846
69.7381
68.1093
64.4755
59.6379
49.8346
34.7778
20.7476
12.1105
7.17756
7.64076
10.4597
17.9367
26.49
36.2339
46.3987
55.9201
63.5581
69.3525
73.9003
76.0958
76.4458
76.8124
77.4768
77.1432
75.9026
73.9805
71.3461
70.0758
69.6852
69.895
71.7653
73.9165
74.1537
73.3786
72.4382
70.1167
68.1978
66.7949
66.9397
65.138
61.093
48.0079
50.2382
44.6141
42.1661
39.1042
33.7891
34.3459
33.7999
49.5446
51.4134
64.3892
68.0678
71.4373
72.2176
70.9884
70.1182
68.4747
67.3071
63.3886
60.7156
55.1143
48.3543
40.4912
33.6676
45.5605
44.3904
43.5443
42.6527
41.053
40.4202
39.9526
38.2804
37.4858
37.3947
36.5314
36.4144
36.6087
36.8288
37.3924
37.6687
38.526
40.1186
42.562
45.8195
50.4634
55.5478
59.4689
62.1493
64.0906
64.8182
64.9323
64.8328
64.5228
64.6928
65.4132
67.0952
70.0193
71.2098
70.1409
69.1057
67.1317
63.3661
59.1071
52.1876
38.3351
25.3914
15.9487
11.1578
10.954
13.4626
20.5437
28.5985
37.9943
47.1268
57.4919
64.7683
71.0622
75.2095
77.1139
77.5501
78.1615
78.7382
78.4354
77.4178
75.5292
73.1325
71.9966
71.6024
71.6672
73.1783
74.9789
74.892
73.8286
72.596
70.4309
68.3044
66.8887
66.534
64.7961
61.4887
48.3745
51.7108
44.1032
43.8218
39.3809
34.2669
35.2259
35.294
51.0106
52.0394
65.0103
68.7706
72.0582
73.1082
72.2974
71.3474
69.2885
68.1236
64.1487
61.2455
56.0823
49.4818
42.0535
35.383
45.4319
44.577
43.7564
42.8865
41.7307
40.9887
40.6097
39.4991
38.8323
38.8928
38.2425
38.113
38.1271
37.9101
38.0047
37.5681
37.7442
38.7172
40.4903
43.7095
48.4623
53.8957
58.5747
62.0721
64.6245
65.7778
66.1358
66.0479
65.9623
66.2951
66.7996
68.3133
70.848
71.3976
69.8163
68.3627
66.1277
62.3036
58.6977
54.7764
43.6044
31.1401
21.1259
16.0607
14.804
16.9745
23.0923
30.9102
39.5334
47.6744
59.4158
66.0237
72.6991
76.4822
78.2332
78.7649
79.4834
79.9048
79.6035
78.7017
76.8559
74.7258
73.6997
73.208
73.073
74.202
75.6632
75.4056
74.1619
72.6863
70.5962
68.5149
67.0724
66.6105
65.2813
62.813
49.7081
52.2874
44.0148
45.2719
40.6486
36.6024
37.0603
37.3375
50.9404
51.6192
65.2191
68.8167
72.7164
74.098
73.767
72.7582
70.2193
68.7615
64.9965
61.853
57.0211
50.6745
43.551
37.0219
45.1932
44.6608
44.046
43.195
42.4502
41.6441
41.174
40.5741
40.0467
40.1885
39.8348
39.6492
39.4559
38.8696
38.4955
37.5512
37.1761
37.626
38.958
42.1722
46.9836
52.6628
57.923
62.1697
65.1873
66.753
67.3098
67.2159
67.2775
67.6357
67.863
69.1423
71.2328
71.3127
69.4693
67.769
65.3524
61.6406
59.1284
57.1875
49.0247
37.032
26.9348
21.0754
18.7618
20.5404
25.6261
33.6432
40.8976
49.191
61.2629
66.9951
74.3337
77.7271
79.362
79.9026
80.5898
80.8558
80.5677
79.7284
78.0098
76.1239
75.0925
74.5093
74.1553
74.8544
75.9843
75.6666
74.3268
72.7307
70.7129
68.7415
67.3783
67.0402
66.3063
64.4858
53.3362
53.7198
44.76
46.661
41.784
39.9116
38.9134
40.516
49.5443
50.3585
65.2838
68.9254
73.679
75.4707
75.0802
74.0373
71.2142
69.3441
65.8449
62.4337
57.8317
51.8435
44.9269
38.5152
44.9153
44.6458
44.3593
43.6
43.1064
42.2734
41.6746
41.4603
41.1227
41.2939
41.1497
40.8808
40.5205
39.706
38.9065
37.6278
36.8666
36.9247
38.0302
41.2318
46.0764
51.8754
57.5827
62.418
65.8191
67.7049
68.3567
68.3047
68.4372
68.6402
68.543
69.5585
71.2561
71.0641
69.2054
67.4252
64.9789
61.6577
60.0569
59.6466
53.5644
42.3198
32.4753
25.4289
22.4236
23.7804
27.9904
36.4997
41.9814
51.5679
63.3659
68.0065
76.0454
78.8366
80.34
80.8229
81.4084
81.6134
81.3556
80.5384
78.9797
77.2633
76.1864
75.4994
74.913
75.2351
76.0591
75.7056
74.3515
72.7387
70.823
68.963
67.7489
67.5268
67.1931
65.4138
57.2869
56.2062
46.5527
47.9411
42.9737
41.8112
40.6813
43.3142
48.9793
51.7459
65.1328
71.004
75.0088
77.3272
76.2869
75.1344
72.1635
69.8821
66.5602
62.9342
58.531
52.8882
46.1374
39.8507
44.6617
44.5716
44.6662
44.0148
43.5914
42.7853
42.1351
42.138
41.9822
42.1255
42.0905
41.8026
41.3077
40.3441
39.2761
37.8314
36.8167
36.6155
37.6485
40.8482
45.6694
51.534
57.5762
62.7634
66.4149
68.4849
69.2117
69.2233
69.2819
69.2081
68.8497
69.6812
71.0431
70.7397
69.0559
67.3238
65.0066
62.1988
61.1295
61.5991
57.1891
47.2208
37.5637
29.5217
26.0383
26.7456
30.2188
39.0998
43.1851
54.2703
65.0449
69.6049
77.6854
79.7725
81.1551
81.5882
82.0706
82.2371
81.9686
81.1511
79.7371
78.1279
76.975
76.2067
75.4234
75.4139
75.9533
75.5827
74.2801
72.7368
70.9398
69.2361
68.1096
67.9185
67.6686
65.85
60.4058
58.4075
49.149
49.2795
44.3309
43.8297
42.26
45.0733
48.4965
56.9492
65.7327
75.8896
76.2213
79.2878
77.3995
76.0635
72.9978
70.3598
67.0831
63.357
59.144
53.7853
47.2135
41.0504
44.6709
44.6116
44.8026
44.284
43.8779
43.1391
42.5186
42.6004
42.575
42.6802
42.664
42.374
41.8246
40.8202
39.6144
38.1074
36.9712
36.6506
37.69
40.8589
45.6556
51.577
57.7634
63.0891
66.867
69.0167
69.795
69.8526
69.7435
69.4277
68.9337
69.6294
70.8029
70.432
69.0511
67.4658
65.2326
62.7177
61.8727
62.482
59.6594
51.8303
42.6364
34.2351
30.2908
29.8088
32.5679
41.2895
44.7308
56.9093
66.108
71.4373
79.1058
80.6219
81.8622
82.2337
82.5942
82.6902
82.4033
81.6089
80.3036
78.6495
77.4935
76.6595
75.718
75.4544
75.7534
75.3699
74.1683
72.7521
71.0512
69.4381
68.3695
68.1821
67.8806
66.2507
62.2486
59.8351
51.94
50.7473
45.6387
45.4421
43.6006
47.2101
47.7384
64.4823
67.4556
80.7182
76.6587
80.9418
78.3014
76.6803
73.6751
70.7479
67.4278
63.7744
59.6594
54.4889
48.1053
42.0476
44.7538
44.695
44.8759
44.4349
44.0295
43.3681
42.7956
42.8522
42.8887
42.9651
42.9576
42.6735
42.0989
41.1184
39.8809
38.3971
37.2461
36.893
37.988
41.1417
45.9078
51.8136
58.0059
63.3359
67.126
69.2838
70.0789
70.0526
69.8772
69.4634
69.0225
69.718
70.6409
70.2297
69.3509
67.8673
65.47
62.9055
62.0362
62.4538
60.5476
54.9754
47.0797
38.9557
34.302
32.4713
34.4234
42.8587
45.6445
59.4313
67.2081
73.255
80.0892
81.3521
82.453
82.7033
82.9439
82.9763
82.6851
81.9115
80.6701
79.0093
77.7836
76.8969
75.8867
75.4409
75.506
75.1315
74.0727
72.795
71.1858
69.5677
68.4919
68.2594
67.8739
66.4205
63.3607
60.7195
53.7934
51.9169
46.6561
46.5958
44.2607
50.8299
49.5581
70.007
68.7069
83.7738
76.3803
82.106
78.9273
76.9805
74.1332
71.0465
67.6479
64.0945
60.0366
54.9271
48.6917
42.8157
44.8818
44.8093
44.9081
44.5023
44.0815
43.4702
42.9457
42.9509
43
43.0522
43.0292
42.7545
42.1883
41.2461
40.0254
38.6043
37.5052
37.208
38.3806
41.517
46.2391
52.0647
58.2104
63.4497
67.1958
69.3371
70.1301
70.128
69.88
69.4671
69.1445
69.8849
70.6184
70.1663
69.5136
68.3828
65.8651
63.163
61.6392
61.9342
60.4926
56.3262
49.9625
42.5281
37.0776
34.2975
36.0969
43.7082
46.2216
61.627
67.96
74.4291
80.7683
81.832
82.8777
82.9803
83.1259
83.1204
82.8197
82.0414
80.7491
79.1411
77.8768
76.9698
75.9754
75.4747
75.3834
74.9925
74.0268
72.8241
71.2479
69.6405
68.4992
68.2374
67.7475
66.4587
63.9788
61.0409
54.8638
52.6542
47.3432
47.33
45.0863
55.0981
53.1488
72.7937
69.2921
85.2239
76.1512
82.7521
79.3579
77.1078
74.392
71.223
67.7472
64.2099
60.193
55.1055
49.0472
43.3129
45.1058
44.9015
44.8728
44.5066
44.0791
43.4927
43.0068
42.9646
43.0013
43.0409
42.9948
42.7155
42.1455
41.2249
40.0409
38.686
37.6429
37.4286
38.6571
41.8083
46.481
52.2466
58.294
63.47
67.1606
69.2676
70.0703
70.1242
69.8876
69.5086
69.2635
70.0421
70.6575
70.1387
69.5071
68.6877
66.2458
63.4488
61.52
61.7453
60.1759
56.2915
51.3237
44.3696
38.6625
35.5092
37.344
44.3345
46.8675
62.3594
68.3461
74.9952
80.9664
82.0136
82.9943
83.049
83.1526
83.1327
82.8006
82.0226
80.7417
79.1772
77.8924
76.949
76.0087
75.5017
75.3534
74.9558
74.039
72.8391
71.229
69.6473
68.5129
68.264
67.6738
66.3877
63.9558
60.9779
55.3668
52.9972
47.7985
47.7244
45.7285
57.1761
54.6871
74.2285
69.7451
85.3693
76.0379
82.9751
79.4156
77.1042
74.4046
71.2063
67.7032
64.1606
60.1593
55.0607
49.1174
43.1398
38.7099
38.166
37.0592
35.5431
33.9965
32.1315
30.2771
28.7067
27.5392
28.4046
30.9705
33.4319
36.0201
39.713
44.4575
49.7985
55.2668
59.6586
61.998
62.6394
61.2992
58.3164
55.1839
53.3491
54.2519
55.3936
54.7824
51.7195
47.6229
42.2875
35.8587
31.6928
31.9913
38.6346
51.1211
64.7594
82.4106
96.1373
104.55
107.15
103.479
97.3552
90.3222
83.5117
77.505
72.7162
69.2373
66.8667
65.6659
65.5294
65.821
66.2748
67.39
69.4625
71.8169
73.6935
74.4419
74.0241
72.1497
68.1372
61.9539
55.2771
50.0768
48.3341
52.4501
58.5856
67.9818
76.4674
82.348
85.5667
86.4643
85.8542
84.4391
82.7178
80.947
79.2473
77.6681
76.2561
74.9758
73.7231
72.4449
71.1991
70.0762
69.111
68.2908
67.6067
67.0701
66.6881
66.4353
66.2621
66.1055
65.9088
65.6241
65.2555
64.8181
64.3309
63.486
62.9084
63.1089
63.4045
38.7678
38.1133
37.0171
35.5425
33.9996
32.1363
30.2611
28.4803
27.0596
27.8263
30.4086
33.1801
35.8989
39.6394
44.3056
49.622
55.2318
59.6726
61.9515
62.4196
61.0414
58.1238
54.9704
53.2649
54.2433
55.4012
55.0489
52.4233
47.2196
40.6773
33.7688
29.6963
30.2857
36.8635
49.7247
63.8498
81.3693
95.5523
103.816
106.795
103.269
97.141
90.0835
83.2326
77.215
72.4479
69.0183
66.677
65.5083
65.4672
65.819
66.2631
67.3379
69.3944
71.743
73.6839
74.4944
74.3541
72.442
68.0169
61.3185
54.4229
49.1837
47.3366
51.644
57.8831
67.4827
76.2797
82.263
85.6009
86.5091
85.8693
84.4246
82.686
80.9263
79.2351
77.6617
76.2504
74.9745
73.7272
72.445
71.1864
70.0572
69.0914
68.2729
67.5855
67.0463
66.6658
66.4213
66.2596
66.1144
65.9247
65.6425
65.277
64.8372
64.3042
63.2746
62.7094
62.9051
63.2416
38.8258
38.1057
36.9581
35.5613
34.0131
32.1672
30.2731
28.1322
26.2295
26.808
29.6267
32.9546
35.9484
39.5997
44.1878
49.4398
55.3319
59.8633
61.9544
61.9753
60.2567
57.3734
54.5358
53.2427
54.4862
55.5642
54.8218
51.3885
45.0692
37.4445
30.3305
26.476
27.7677
34.0083
47.2316
62.0362
79.2281
94.4413
102.466
105.742
102.514
96.371
89.3694
82.6053
76.5878
71.8591
68.5441
66.3272
65.2893
65.3904
65.8011
66.2289
67.3926
69.4567
71.7839
73.766
74.8394
74.5316
72.5025
67.3735
60.044
52.6651
47.4639
45.4358
49.8148
56.377
66.1929
75.646
81.9452
85.4839
86.4353
85.7728
84.3057
82.5641
80.7966
79.1127
77.546
76.1669
74.9381
73.7127
72.4132
71.1313
69.9904
69.026
68.2052
67.5177
66.9826
66.6158
66.3913
66.256
66.1312
65.9536
65.6739
65.308
64.88
64.2672
62.9862
62.4005
62.5687
62.9885
38.8904
38.1116
36.943
35.6329
34.1033
32.26
30.2113
27.7109
25.3787
25.7625
28.7685
32.5529
35.7295
39.4531
44.0731
49.0587
55.4848
60.1182
61.9372
61.4565
59.2074
56.2275
53.8518
53.3407
54.6429
55.3227
53.6914
48.8375
41.1456
33.1049
26.5221
22.5064
24.5306
31.0421
43.9768
59.4641
76.3596
92.677
100.565
103.962
101.026
94.9441
88.0512
81.3977
75.5117
70.9205
67.7858
65.7529
64.9151
65.2338
65.7262
66.1453
67.4581
69.5967
71.8631
73.838
74.8465
74.54
72.2367
66.0278
58.1066
50.0158
44.9726
42.7256
47.0166
54.0449
63.9858
74.4658
81.3392
85.1939
86.2412
85.5583
84.0561
82.3292
80.6125
78.9134
77.3495
75.989
74.7872
73.5756
72.2743
70.9805
69.8349
68.8756
68.0685
67.3944
66.8776
66.5311
66.3409
66.2501
66.1616
65.9949
65.7276
65.3787
64.9415
64.2109
62.7103
62.0266
62.2142
62.6464
38.9634
38.1403
36.962
35.7618
34.3037
32.4189
30.2174
27.3166
24.5996
24.7809
27.7785
31.7512
34.9538
38.6004
43.2258
48.4884
54.9497
60.0211
61.6292
60.7699
58.035
54.928
52.9121
52.8024
54.4634
54.618
51.5295
45.1725
36.5603
28.4882
23.1921
18.9125
21.1049
27.6394
40.2638
56.3607
73.1636
89.9749
98.0177
101.284
98.6287
92.6066
85.9352
79.543
73.8383
69.4637
66.6718
64.9689
64.3948
64.9671
65.5679
66.0253
67.4421
69.703
71.9504
73.7563
74.747
74.2271
71.3671
64.0794
55.5545
46.6078
41.8258
39.3235
43.3198
50.9221
60.9261
72.615
80.3354
84.6643
85.892
85.207
83.6815
81.9497
80.2401
78.6125
77.0894
75.7471
74.5642
73.3415
72.0164
70.7157
69.5803
68.6397
67.8505
67.1987
66.7127
66.4118
66.2729
66.2358
66.1864
66.0473
65.7936
65.4485
65.0202
64.1407
62.4941
61.6831
61.9042
62.3261
39.065
38.2101
37.0402
35.9894
34.6557
32.6975
30.2345
26.9387
23.9503
23.8565
26.5869
30.3554
33.3874
36.9335
41.4853
47.1141
53.8351
59.1253
60.9597
59.9371
56.8553
53.6018
51.6876
52.0003
53.835
53.2491
48.5728
41.1079
32.2011
24.0099
20.5518
16.3971
18.1609
24.3139
36.2478
52.8696
69.7481
86.3969
94.6663
97.5486
95.1987
89.2371
82.8659
76.8426
71.4459
67.4907
65.2027
63.9049
63.6452
64.5398
65.3724
65.9578
67.4865
69.8363
72.1409
73.8344
74.6104
73.6662
69.8309
61.7152
52.6153
42.7896
38.2976
35.6578
39.2744
47.2705
57.4048
70.1452
78.8661
83.7981
85.3417
84.6882
83.1058
81.4015
79.7704
78.1565
76.645
75.4056
74.2913
73.0532
71.6794
70.357
69.218
68.2876
67.5346
66.9396
66.5169
66.2738
66.1901
66.2073
66.2212
66.1051
65.867
65.5334
65.07
64.0787
62.393
61.5154
61.7237
62.0833
39.2725
38.3657
37.1972
36.3131
35.1033
33.0696
30.246
26.5029
23.3087
22.9323
25.1534
28.3286
31.0429
34.3631
38.7649
44.63
51.5029
57.3416
59.907
59.1324
55.9674
52.6512
50.7115
51.2752
52.8346
51.207
45.3891
37.2804
28.6223
20.0491
18.2532
14.71
15.8225
21.2486
32.2593
49.2099
66.0591
82.0254
90.5133
92.7608
90.6263
84.816
78.7019
73.2673
68.3055
64.873
63.2614
62.5455
62.7033
63.9706
65.1307
65.9583
67.6228
70.0123
72.3882
73.9908
74.4056
72.678
67.8911
58.8985
49.4064
38.8836
34.7491
32.2345
35.3929
43.4945
53.7652
67.3377
77.0239
82.5666
84.5047
83.9731
82.3761
80.6641
79.0878
77.6017
76.1074
74.8933
73.8291
72.6379
71.2605
69.9029
68.7462
67.8471
67.1718
66.6554
66.3008
66.1209
66.0926
66.1652
66.223
66.1589
65.93
65.6061
65.0846
64.0665
62.4275
61.4985
61.6595
61.9429
39.6397
38.7266
37.5337
36.7536
35.6426
33.4318
30.091
25.8493
22.5298
21.9164
23.487
25.7031
27.983
31.0154
35.06
40.8265
47.9229
54.5974
58.4856
58.6239
55.7486
52.5583
50.6519
51.1375
51.7746
48.8556
42.4888
34.0453
26.1413
17.3088
16.4575
13.5841
13.9983
18.6641
28.7731
45.6949
62.2391
76.9999
85.4631
87.1463
84.8246
79.3219
73.507
68.7562
64.3513
61.5809
60.8554
60.8806
61.5373
63.2422
64.8276
66.0048
67.823
70.2282
72.6457
74.2168
74.1292
71.4174
65.7569
55.8143
46.0856
35.2272
31.2689
29.0488
31.6886
39.7666
50.0331
64.5221
74.954
80.9938
83.3958
82.9983
81.4109
79.7449
78.2553
76.7401
75.3532
74.1844
73.1882
72.0659
70.7151
69.3495
68.1965
67.3593
66.7719
66.3431
66.0638
65.9487
65.9761
66.0903
66.2112
66.1857
65.9913
65.6485
65.0886
64.1012
62.5484
61.6064
61.6428
61.8816
40.1639
39.2814
38.1355
37.4069
36.272
33.6647
29.5558
24.8152
21.4701
20.7559
21.6567
22.712
24.471
27.0201
30.6764
36.2989
43.6279
51.2711
56.9151
58.6011
56.3745
53.5854
51.7158
51.8651
51.1291
46.9292
40.0592
31.2831
24.2928
15.875
15.2477
12.9813
12.7206
16.8599
25.9513
42.5477
58.6388
71.8989
79.5911
80.9037
78.1183
72.8254
67.403
63.3014
59.5732
57.6355
57.9321
58.8622
60.1645
62.3913
64.4522
66.0368
68.0156
70.4239
72.8506
74.4249
73.89
70.4278
63.8305
52.8065
42.949
32.1687
28.0025
26.1868
28.4479
36.4626
46.7878
61.4631
72.7728
79.0792
81.9411
81.7518
80.2142
78.5991
77.2211
75.8139
74.4366
73.3053
72.3748
71.303
70.0097
68.6873
67.5648
66.8009
66.3342
66.0076
65.8038
65.7575
65.8503
66.0282
66.1843
66.2085
66.0131
65.6617
65.0899
64.1107
62.6507
61.676
61.617
61.8622
40.7992
40.0057
38.9606
38.2759
36.9796
33.6958
28.4335
23.2433
20.0131
19.4076
19.8212
19.8169
21.0712
23.2489
26.6281
32.2299
39.666
48.2562
55.5285
59.0533
57.9059
55.8405
53.9235
53.6417
51.2527
45.9472
38.3553
29.2499
22.7625
15.3074
14.4301
13.0432
12.0514
15.6607
23.6094
39.6369
55.1957
67.0898
73.4546
74.2392
70.9076
65.6517
60.6637
57.0529
53.9919
53.0163
54.5138
56.4994
58.5773
61.4061
63.9641
65.9902
68.18
70.5398
72.9046
74.4619
73.6402
69.6534
61.9218
50.2405
40.2991
29.7513
24.9964
23.8437
25.6947
33.6339
43.9262
58.3295
70.3672
76.9943
80.1076
80.1449
78.6644
77.2145
76.0036
74.7088
73.3847
72.2691
71.3566
70.3533
69.1416
67.877
66.8145
66.1856
65.8757
65.6542
65.5367
65.5727
65.7315
65.9461
66.1494
66.196
66.0268
65.6614
65.0633
64.1015
62.6896
61.71
61.5875
61.8533
41.4904
40.8292
39.9487
39.2863
37.7056
33.4518
26.6288
21.0766
18.1373
17.731
17.9375
17.3196
18.1645
20.4532
23.5935
29.1902
36.7578
46.1439
54.6523
60.0509
60.425
59.3074
57.4395
56.0471
52.0125
45.5296
37.4051
28.2093
21.5641
15.1017
13.8493
13.5107
11.8738
15.0906
21.96
36.9784
51.7755
62.4653
67.368
67.4332
63.5649
58.234
53.6261
50.2204
47.7751
47.8376
50.6181
53.7662
56.7762
60.2905
63.3746
65.8297
68.2456
70.5418
72.8137
74.2478
73.0849
68.5498
60.1112
48.3077
38.0572
27.8032
22.4131
21.8372
23.5059
31.1535
41.449
55.4472
67.6906
74.7361
77.8865
78.2353
76.7979
75.4809
74.5487
73.4008
72.1874
71.1196
70.1964
69.2209
68.1109
66.9193
65.9603
65.5184
65.3748
65.2975
65.2698
65.3707
65.5882
65.8661
66.1104
66.1994
66.0414
65.6625
65.0316
64.0427
62.7041
61.7196
61.513
61.7742
42.1814
41.6975
41.0267
40.3735
38.3981
33.0774
24.6158
18.7437
16.2743
15.9124
16.0391
15.3708
16.2052
18.4302
21.135
26.6573
34.4101
44.765
54.6429
61.6757
63.9111
63.7445
61.74
58.9143
53.0558
45.3874
36.9624
27.8075
20.7551
15.1518
13.1418
14.1943
12.3525
15.2819
21.4372
34.97
48.5641
58.0662
61.6576
60.7448
56.397
51.0013
46.6857
43.3303
41.1165
42.188
46.325
50.696
54.7447
59.0319
62.6702
65.5441
68.1827
70.3982
72.5979
73.7844
72.0581
67.1306
58.6355
46.7018
36.316
26.5302
20.2681
20.1989
22.1024
29.2816
39.477
53.0072
65.1486
72.256
75.4691
75.7916
74.7196
73.5127
72.8683
71.8948
70.7939
69.873
68.969
67.973
66.8788
65.7836
65.019
64.7672
64.8611
64.9145
64.9769
65.1634
65.4594
65.8024
66.096
66.2004
66.0491
65.6627
64.9878
63.9807
62.6953
61.6966
61.3395
61.5585
42.8265
42.5129
42.0536
41.4514
39.0798
32.8411
22.9577
16.7636
14.7561
14.3154
14.3495
13.953
14.8877
16.9551
19.0953
24.2647
32.2728
43.9474
55.168
63.6897
67.9927
68.6815
66.5432
61.9097
54.3288
45.7204
36.9321
27.786
20.5645
15.6429
13.2871
14.9279
13.5425
16.0377
21.8669
33.9335
45.9132
54.0252
56.6183
54.6957
49.7507
44.3497
40.1528
36.6084
34.3174
36.2947
41.7281
47.2811
52.463
57.6545
61.8472
65.1212
67.9684
70.1563
72.2747
73.0536
70.7999
65.8294
57.4064
45.2137
35.1002
25.7353
18.6826
19.669
21.2782
28.1363
38.0034
50.944
62.9375
69.6214
73.0074
72.9572
72.2961
71.4225
71.052
70.3005
69.3154
68.4794
67.6459
66.6176
65.5166
64.5099
63.8731
63.9144
64.2428
64.4996
64.6738
64.9415
65.3454
65.7495
66.0745
66.1966
66.0797
65.6801
64.9567
63.9046
62.5952
61.494
60.8941
60.9145
43.4038
43.2296
42.9769
42.427
39.759
32.8769
21.9995
15.404
13.6459
13.0642
12.9871
12.8808
14.0379
15.8911
17.9141
22.6022
30.8678
43.4378
55.91
65.7562
72.0254
73.6119
71.2197
64.8102
55.7441
46.4933
37.2693
28.1252
20.9771
16.4458
14.1053
15.6726
15.2415
17.3318
22.9306
33.7223
43.9711
50.5637
52.3769
49.6623
44.0503
38.5266
34.2796
30.3085
27.7408
30.4222
36.8994
43.5619
50.0115
56.1612
60.9164
64.5906
67.5844
69.8315
71.8258
72.1751
69.7596
64.8416
56.3007
44.2859
34.3105
25.324
17.8687
18.6992
21.0784
27.7032
37.1649
49.3503
61.0098
67.2666
70.3646
70.093
69.564
69.2587
69.324
68.7192
67.822
67.0938
66.2217
65.1261
64.0331
63.0512
62.5485
62.8009
63.4747
63.9831
64.3078
64.7327
65.1977
65.7099
66.0998
66.2345
66.122
65.6909
64.9248
63.7801
62.3856
61.0647
60.0845
59.7399
43.8997
43.8374
43.7539
43.2827
40.4542
33.2146
21.8668
14.8227
13.0195
12.1821
11.987
12.3431
13.8147
15.5212
17.5334
22.0814
30.421
43.4139
56.9101
67.7438
75.5885
78.0692
75.2146
67.2669
57.2218
47.3715
37.8351
28.7431
21.7192
17.2664
15.3034
16.5966
17.1573
19.1711
24.5694
34.2391
42.9307
47.9202
49.0696
45.6492
39.4691
33.6089
29.0425
24.6153
21.716
24.7736
32.0115
39.6709
47.4001
54.5486
59.9119
63.9338
67.0963
69.4454
71.2415
71.3009
69.0827
64.0347
55.5012
44.144
33.9079
25.5764
17.9376
18.7318
21.592
27.8183
36.8578
48.3121
59.3082
65.3303
67.8163
67.3415
66.878
67.1879
67.8998
67.3475
66.4993
65.7892
64.8412
63.6094
62.3625
61.3863
60.9828
61.4388
62.4531
63.3131
63.9071
64.4389
65.1287