/*--------------------------------*- C++ -*----------------------------------*\
| =========                 |                                                 |
| \\      /  F ield         | OpenFOAM: The Open Source CFD Toolbox           |
|  \\    /   O peration     | Version:  2.4.0                                 |
|   \\  /    A nd           | Web:      www.OpenFOAM.org                      |
|    \\/     M anipulation  |                                                 |
\*---------------------------------------------------------------------------*/
FoamFile
{
    version     2.0;
    format      ascii;
    class       volScalarField;
    location    "0.124";
    object      pMean;
}
// * * * * * * * * * * * * * * * * * * * * * * * * * * * * * * * * * * * * * //

dimensions      [0 2 -2 0 0 0 0];

internalField   nonuniform List<scalar> 
4400
(
135.514
113.942
105.56
101.529
98.2066
94.9273
91.6403
88.3507
84.9042
80.7092
133.6
114.007
105.596
101.54
98.2093
94.9279
91.6407
88.3519
84.9197
81.102
132.398
114.315
105.729
101.579
98.2294
94.9355
91.6443
88.3502
84.991
81.2921
131.666
114.687
105.905
101.636
98.2713
94.9633
91.657
88.3681
85.0683
81.5492
131.074
115.027
106.082
101.695
98.3301
95.0059
91.6872
88.3854
85.1731
81.7966
130.563
115.309
106.237
101.74
98.3848
95.0595
91.7249
88.4212
85.2932
82.0769
130.142
115.534
106.365
101.765
98.4291
95.1053
91.7636
88.4598
85.3833
82.4244
129.819
115.703
106.466
101.779
98.4591
95.1434
91.7963
88.5028
85.4392
82.7414
129.602
115.819
106.534
101.786
98.4781
95.1719
91.8196
88.545
85.515
83.0623
129.492
115.878
106.568
101.789
98.4886
95.1874
91.8432
88.5827
85.6051
83.3014
129.491
115.88
106.568
101.792
98.4891
95.1958
91.8563
88.6228
85.6928
83.4971
129.599
115.824
106.533
101.792
98.4826
95.1917
91.8679
88.6622
85.7781
83.6493
129.814
115.712
106.465
101.789
98.4658
95.1781
91.8724
88.6981
85.8638
83.761
130.135
115.545
106.363
101.78
98.4383
95.1533
91.8707
88.7322
85.9499
83.8323
130.555
115.323
106.233
101.757
98.3984
95.1183
91.8639
88.7609
86.0338
83.87
131.065
115.042
106.078
101.717
98.3471
95.0774
91.8538
88.7861
86.1041
83.902
131.658
114.703
105.901
101.66
98.2922
95.0416
91.8466
88.8089
86.1518
83.9302
132.39
114.331
105.725
101.604
98.2526
95.0214
91.8459
88.8277
86.1787
83.9625
133.593
114.023
105.592
101.566
98.2338
95.0157
91.8484
88.8386
86.1891
83.9987
135.506
113.958
105.556
101.555
98.231
95.0165
91.8499
88.8424
86.1905
84.1028
78.3088
77.793
76.415
74.9019
73.5476
72.4564
71.8239
71.166
71.0745
71.3115
71.4968
71.7223
71.8105
72.3917
73.2317
73.7826
74.2769
74.9553
75.6168
76.3273
77.0202
77.6645
78.262
78.8635
79.4806
80.1004
80.7279
81.3838
82.0606
82.7496
83.3831
83.9768
84.4786
84.8992
85.1571
85.2998
85.3099
85.2209
85.0817
84.8847
84.9711
85.3144
85.881
86.6189
87.5013
88.353
89.2124
89.9501
90.5754
91.0417
91.3951
91.7407
91.9307
92.1092
92.2442
92.3227
92.4862
92.5
92.7373
92.7936
93.1643
93.3263
93.8542
94.0954
94.636
94.7228
95.1316
94.967
95.235
94.8805
95.1383
94.7738
95.117
94.7229
95.1012
94.6876
95.1574
94.836
95.4224
95.1172
95.7748
95.4354
96.0972
95.6714
96.2499
95.6788
96.1012
95.3879
95.6317
94.7884
94.8566
93.819
93.7336
92.3126
92.144
89.8266
89.6712
84.5247
84.0333
59.0891
78.6645
77.9656
76.8581
75.5348
74.2846
73.248
72.6403
72.1582
72.1021
72.3929
72.6373
72.8891
72.9786
73.4497
74.2359
74.8051
75.2047
75.75
76.3018
76.909
77.5013
78.0624
78.5965
79.1352
79.6847
80.232
80.7802
81.3447
81.9162
82.4965
83.0319
83.525
83.9386
84.2911
84.4896
84.619
84.614
84.5324
84.3866
84.1708
84.3209
84.7305
85.4077
86.2644
87.278
88.242
89.2115
90.0456
90.7486
91.2887
91.6907
92.0425
92.2323
92.403
92.5267
92.5911
92.7534
92.7429
92.9805
92.9875
93.3171
93.4111
93.843
94.0125
94.4603
94.4997
94.8238
94.624
94.8484
94.4767
94.7285
94.3275
94.6606
94.2193
94.6362
94.1349
94.7085
94.2865
95.0075
94.5763
95.413
94.9203
95.8332
95.1785
96.0459
95.178
95.907
94.8555
95.3993
94.1827
94.5182
93.0563
93.182
91.1935
91.2839
88.0006
88.1686
80.7151
79.6053
51.9852
79.2314
78.3841
77.2907
76.0913
74.959
74.0158
73.4361
73.08
73.0489
73.3377
73.636
73.9342
74.0739
74.464
75.1827
75.7761
76.128
76.5728
77.0388
77.5676
78.0756
78.5596
79.0243
79.4875
79.9474
80.4105
80.8742
81.3425
81.8119
82.289
82.7298
83.132
83.4727
83.7714
83.9365
84.0711
84.0582
83.9938
83.8251
83.5953
83.8076
84.2656
85.0645
86.0467
87.1926
88.2764
89.3591
90.2825
91.0749
91.6801
92.1378
92.4829
92.6774
92.8293
92.9429
92.9811
93.1314
93.0936
93.3156
93.2813
93.5542
93.5986
93.9217
94.0313
94.3552
94.3594
94.5844
94.3706
94.539
94.1685
94.3895
93.9647
94.265
93.7859
94.2115
93.6329
94.2803
93.7612
94.5843
94.0228
94.9956
94.3553
95.4574
94.606
95.7331
94.5586
95.6203
94.1678
95.1041
93.4213
94.1382
92.1705
92.5804
89.9472
90.2045
85.9675
86.4548
77.4124
74.5222
50.1247
79.7283
78.9009
77.8417
76.7109
75.6744
74.8332
74.3032
74.0381
74.0289
74.2995
74.6306
74.956
75.1647
75.5043
76.1401
76.7439
77.0826
77.4479
77.8376
78.2995
78.7364
79.1413
79.525
79.8968
80.2573
80.6306
81.0087
81.3831
81.7586
82.1379
82.4891
82.8118
83.0948
83.3547
83.5086
83.6596
83.6467
83.6019
83.3851
83.1617
83.423
83.9212
84.8596
85.9672
87.2474
88.4518
89.6425
90.649
91.5369
92.1997
92.7217
93.0519
93.2559
93.3737
93.4849
93.4889
93.6172
93.5418
93.7347
93.6487
93.8614
93.862
94.0865
94.1429
94.3454
94.3201
94.4499
94.2295
94.3316
93.9689
94.1409
93.7023
93.9605
93.4383
93.8436
93.2041
93.8941
93.2878
94.1755
93.4963
94.5536
93.7902
94.9986
94.0076
95.2783
93.8529
95.1642
93.3061
94.6708
92.384
93.6762
90.9982
91.9636
88.6127
88.9896
83.9656
84.0797
74.4276
68.8928
50.0585
80.1309
79.4157
78.497
77.4029
76.42
75.6655
75.2085
75.0282
75.0631
75.323
75.6639
76.0019
76.2717
76.5928
77.1285
77.7105
78.0637
78.3705
78.6901
79.0777
79.4443
79.7674
80.0639
80.3429
80.6096
80.8928
81.1858
81.4739
81.7626
82.0524
82.3201
82.5751
82.811
83.0465
83.2087
83.3839
83.3793
83.3388
83.0517
82.8628
83.1482
83.6953
84.7873
86.0098
87.4335
88.7567
90.0486
91.1235
92.1177
92.8295
93.4241
93.7333
93.9537
94.0182
94.1339
94.0898
94.2024
94.0709
94.2366
94.0737
94.2448
94.1826
94.3337
94.3254
94.4405
94.3733
94.4222
94.1825
94.2208
93.8576
93.9754
93.5212
93.7491
93.1636
93.5354
92.8448
93.5633
92.8735
93.8024
93.0124
94.1213
93.2587
94.4936
93.4637
94.7045
93.181
94.4469
92.3552
93.7726
91.0811
92.7412
89.3613
90.9513
86.7529
87.9313
82.1407
81.5222
72.1011
62.8353
49.6469
80.4852
79.8895
79.108
78.0751
77.1491
76.5026
76.1465
76.0534
76.1371
76.3897
76.7214
77.0612
77.3714
77.6937
78.1442
78.6665
79.0366
79.3097
79.5617
79.8654
80.1565
80.3963
80.6113
80.813
80.9964
81.1979
81.4143
81.624
81.8302
82.0356
82.2258
82.4262
82.6262
82.8476
83.0285
83.232
83.2478
83.1887
82.8327
82.6939
82.9815
83.5946
84.8331
86.1517
87.7298
89.1754
90.5606
91.6876
92.8036
93.5509
94.2242
94.5071
94.7589
94.7539
94.8745
94.7577
94.8755
94.6508
94.8146
94.5364
94.7106
94.5541
94.6709
94.5748
94.64
94.4982
94.4968
94.2061
94.202
93.8074
93.8842
93.3957
93.6058
92.9516
93.2893
92.5573
93.2906
92.5205
93.4751
92.5733
93.7167
92.7542
94.0014
92.985
94.1212
92.6544
93.724
91.6548
92.8405
90.055
91.4663
87.6888
89.3056
84.3075
85.8931
79.1544
78.0179
69.5411
58.8635
49.9199
80.9816
80.3525
79.5627
78.6116
77.8202
77.3312
77.098
77.0764
77.1961
77.4395
77.7548
78.0904
78.4185
78.7465
79.1351
79.5846
79.9493
80.2106
80.4132
80.6333
80.8441
81.0066
81.1572
81.299
81.4125
81.5468
81.6964
81.8351
81.9606
82.0819
82.2019
82.3605
82.5367
82.7562
82.961
83.1948
83.2416
83.1469
82.7368
82.656
82.936
83.6446
84.9854
86.3806
88.1203
89.6844
91.152
92.3185
93.5789
94.3393
95.0971
95.3447
95.6432
95.569
95.7057
95.4937
95.6258
95.2654
95.4509
95.0233
95.2464
94.9649
95.0946
94.8936
94.9375
94.7064
94.6744
94.3141
94.286
93.8306
93.8822
93.3326
93.5248
92.8032
93.1087
92.3476
93.0684
92.2339
93.1902
92.2012
93.3396
92.2718
93.5311
92.5132
93.5335
92.1859
93.0132
91.1367
91.9385
89.3797
90.2064
86.5811
87.4662
82.3088
82.8375
75.6332
73.5369
65.9218
56.9207
50.2573
81.7562
81.0023
79.9536
79.0398
78.4233
78.1035
77.9883
78.0313
78.1787
78.4161
78.7165
79.0439
79.3743
79.7027
80.0525
80.4347
80.7759
81.0304
81.2041
81.3577
81.4992
81.6053
81.7126
81.8057
81.8583
81.9369
82.0273
82.0952
82.1418
82.1866
82.2469
82.3696
82.5318
82.7608
82.9967
83.2611
83.3311
83.2147
82.7764
82.7553
83.028
83.8481
85.2449
86.7111
88.594
90.2568
91.8055
92.9911
94.4124
95.1626
96.0022
96.222
96.5861
96.4517
96.6074
96.301
96.4384
95.9558
96.1528
95.5635
95.8501
95.4186
95.5988
95.2849
95.3304
95.0026
94.9566
94.5197
94.48
93.9515
93.9807
93.365
93.5213
92.7479
93.0106
92.2378
92.8991
92.0271
92.9475
91.9176
92.9887
91.8738
93.0754
92.0371
92.9251
91.6631
92.2441
90.4804
90.9358
88.5187
88.8103
85.4887
85.4023
80.7751
79.6623
73.4519
69.9204
63.7514
56.233
49.9509
82.3203
81.5154
80.3348
79.4465
78.9656
78.7963
78.7972
78.9067
79.0814
79.3121
79.5947
79.9095
80.2333
80.5554
80.8806
81.2119
81.5144
81.7517
81.909
82.0262
82.1259
82.2058
82.2912
82.3397
82.3365
82.3673
82.3995
82.3978
82.3724
82.3515
82.3611
82.4523
82.6054
82.8501
83.1198
83.4118
83.4901
83.3837
82.9604
82.9898
83.2646
84.1891
85.6206
87.1674
89.1335
90.8779
92.4849
93.6912
95.278
95.9995
96.9204
97.1011
97.5446
97.3769
97.5513
97.1665
97.3092
96.7378
96.9266
96.1924
96.5231
95.921
96.1841
95.7392
95.8157
95.3888
95.3485
94.8298
94.7856
94.181
94.1893
93.512
93.623
92.8201
93.0229
92.2532
92.8015
91.9333
92.763
91.7506
92.6833
91.6209
92.6345
91.621
92.3071
91.136
91.4147
89.7468
89.827
87.512
87.2947
84.2247
83.2411
79.3919
76.8317
72.4583
67.9435
63.5504
56.1149
49.7496
82.7444
81.9577
80.7486
79.8935
79.5014
79.4479
79.5454
79.71
79.9049
80.1261
80.3894
80.6886
81.0025
81.3155
81.6202
81.9111
82.1717
82.3836
82.5316
82.6387
82.7296
82.8118
82.8888
82.8944
82.8399
82.8289
82.8054
82.7398
82.6473
82.5641
82.5318
82.6016
82.7566
83.0219
83.3234
83.6337
83.7143
83.6484
83.2896
83.3645
83.6485
84.6621
86.1052
87.7434
89.7153
91.5275
93.1675
94.4104
96.1444
96.8219
97.8297
97.9693
98.5089
98.3055
98.4968
98.0672
98.2005
97.5867
97.744
96.9012
97.2438
96.4819
96.8331
96.2488
96.3836
95.8543
95.8416
95.2327
95.2039
94.5168
94.5191
93.7901
93.8548
93.0635
93.1842
92.4399
92.8354
92.0213
92.6964
91.7457
92.4784
91.5393
92.2579
91.3439
91.7254
90.6783
90.5639
89.076
88.6577
86.5965
85.7345
83.1336
81.3642
78.3886
75.2175
72.2762
67.4344
64.5651
56.4146
50.3608
83.0717
82.3331
81.1588
80.3544
80.0282
80.0526
80.2216
80.4313
80.6477
80.8671
81.1157
81.401
81.7016
82.0028
82.2865
82.5431
82.7688
82.9576
83.1045
83.2167
83.3134
83.4125
83.4865
83.4513
83.3505
83.3042
83.2276
83.1054
82.9596
82.8311
82.7715
82.829
82.9973
83.286
83.6087
83.9276
84.0146
84.0185
83.762
83.8882
84.1787
85.2649
86.6807
88.4025
90.3167
92.2187
93.8316
95.1667
96.9975
97.6457
98.7034
98.832
99.4408
99.2153
99.4286
98.98
99.0969
98.469
98.5721
97.6806
97.9963
97.118
97.539
96.828
97.0348
96.4029
96.4263
95.7366
95.7158
94.9751
94.9523
94.2264
94.2089
93.5081
93.4887
92.8463
93.0296
92.3546
92.8015
91.9902
92.4616
91.685
92.0797
91.2962
91.3303
90.414
89.8851
88.6376
87.6846
85.9675
84.5124
82.4365
80.2027
78.0167
74.6635
72.8726
67.7692
65.7961
57.2312
51.5425
83.2975
82.6237
81.5432
80.8273
80.5677
80.6451
80.8589
81.0985
81.3314
81.5531
81.7919
82.0612
82.3444
82.6281
82.8872
83.1133
83.3161
83.4938
83.6414
83.765
83.8784
83.9998
84.0672
83.9861
83.8403
83.7675
83.6479
83.4824
83.305
83.1539
83.084
83.1461
83.3359
83.6459
83.9818
84.2964
84.4109
84.5068
84.3797
84.5622
84.852
85.992
87.3442
89.134
90.9497
92.9615
94.4779
95.996
97.8132
98.4878
99.5503
99.6969
100.347
100.102
100.335
99.8904
99.9794
99.3804
99.4037
98.5361
98.7707
97.8509
98.2765
97.4934
97.7357
97.0482
97.0811
96.3598
96.3081
95.5861
95.4799
94.8513
94.6793
94.1633
93.9108
93.4906
93.3623
92.9634
93.0756
92.5267
92.6664
92.0812
92.1543
91.5199
91.2256
90.4602
89.6102
88.5916
87.2176
85.8353
83.9684
82.4201
79.8739
78.4994
74.9339
74.0287
68.5712
66.8014
58.4029
52.5519
83.434
82.8484
81.9184
81.3227
81.1294
81.2303
81.4575
81.7063
81.945
82.1689
82.401
82.6554
82.919
83.1775
83.4082
83.6106
83.7941
83.9596
84.1153
84.2552
84.3888
84.5389
84.6093
84.4889
84.3075
84.2148
84.0736
83.8884
83.6981
83.5423
83.4807
83.563
83.7792
84.111
84.4459
84.7496
84.9204
85.1254
85.1488
85.3848
85.6821
86.8395
88.1168
89.9533
91.6408
93.7807
95.1464
96.9183
98.6076
99.3692
100.332
100.595
101.184
100.987
101.214
100.809
100.854
100.332
100.242
99.4924
99.5554
98.721
99.0347
98.2749
98.4794
97.8059
97.7903
97.1163
96.9655
96.3568
96.0903
95.6535
95.2464
94.9993
94.4303
94.3453
93.802
93.8032
93.4765
93.3304
93.0264
92.7672
92.3794
92.0743
91.3755
90.9368
89.7404
89.0796
87.2806
86.3655
84.0654
83.1825
80.2409
79.7023
75.7322
75.3489
69.5679
67.4764
59.4942
53.2499
83.4678
82.9896
82.2683
81.82
81.6937
81.7988
82.0133
82.2514
82.4845
82.7069
82.9317
83.1693
83.4076
83.6366
83.8407
84.0232
84.1981
84.3659
84.53
84.6784
84.8275
85.0044
85.0859
84.946
84.7466
84.6397
84.501
84.3246
84.1463
84.0096
83.9766
84.0932
84.3449
84.688
85.0122
85.3059
85.5547
85.8752
86.0559
86.3373
86.6667
87.7829
88.9803
90.8474
92.3877
94.6568
95.8547
97.9354
99.3546
100.311
101.081
101.556
101.982
101.902
102.043
101.738
101.698
101.313
101.077
100.531
100.348
99.7182
99.7785
99.1795
99.2253
98.6718
98.5286
97.9909
97.667
97.2487
96.7583
96.5661
95.8802
95.9385
95.0236
95.3159
94.3204
94.7616
93.9469
94.2863
93.4595
93.6982
92.7405
92.9599
91.7436
91.8781
90.171
90.1154
87.7531
87.5396
84.6559
84.5605
81.0725
81.1737
76.7598
76.4268
70.4629
67.8139
60.3411
53.8183
83.4265
83.0832
82.6119
82.3127
82.2278
82.3102
82.4938
82.7103
82.9296
83.1437
83.3546
83.5689
83.7791
83.9805
84.1666
84.3418
84.5168
84.6915
84.8655
85.0218
85.1859
85.3873
85.4869
85.3558
85.1649
85.0567
84.936
84.7863
84.6421
84.5503
84.5702
84.7402
85.0301
85.3786
85.6901
85.9791
86.3124
86.7361
87.0591
87.3812
87.7598
88.7837
89.9163
91.7794
93.1614
95.5577
96.5612
98.983
100.13
101.256
101.848
102.588
102.738
102.877
102.803
102.669
102.475
102.291
101.854
101.611
101.12
100.818
100.516
100.193
99.9579
99.6227
99.2583
98.9409
98.3689
98.2118
97.4374
97.5371
96.5389
96.9163
95.6578
96.3012
94.8973
95.7282
94.4506
95.2651
93.9376
94.7382
93.2201
94.1067
92.2815
93.1762
90.802
91.5151
88.5014
89.0563
85.5495
86.1064
82.0984
82.4728
77.7299
77.1077
71.1258
67.8905
60.9723
54.4014
83.3481
83.1428
82.9177
82.7353
82.6658
82.7191
82.8665
83.0551
83.2547
83.4557
83.654
83.8521
84.0444
84.2277
84.4006
84.5692
84.7462
84.9312
85.1198
85.2905
85.4776
85.7018
85.8165
85.714
85.5581
85.4677
85.3782
85.2758
85.1897
85.1646
85.2541
85.4839
85.8092
86.1598
86.4534
86.749
87.1559
87.6575
88.0964
88.4641
88.8879
89.7995
90.9006
92.7083
93.9492
96.451
97.2324
99.9646
100.838
102.161
102.446
103.608
103.409
103.87
103.438
103.584
103.109
103.215
102.499
102.612
101.78
101.886
101.174
101.228
100.622
100.597
99.9174
99.9078
99.0202
99.1843
98.0867
98.4939
97.1824
97.8482
96.2927
97.22
95.4997
96.6474
94.9632
96.2217
94.43
95.8185
93.7467
95.3631
92.9015
94.5962
91.5346
92.9989
89.3763
90.5926
86.5416
87.5311
83.0869
83.4618
78.5113
77.4273
71.6113
67.8446
61.4612
55.0168
83.3801
83.2385
83.1343
83.0248
82.9687
83.0022
83.1195
83.2823
83.4642
83.6543
83.8445
84.0313
84.2097
84.3806
84.5465
84.7148
84.8975
85.0945
85.3022
85.4998
85.7174
85.9586
86.0883
86.0315
85.9281
85.8715
85.828
85.7883
85.7746
85.8299
85.9943
86.2786
86.6256
86.9631
87.236
87.5432
87.9973
88.5518
89.073
89.4965
89.9655
90.7747
91.8537
93.5597
94.6893
97.2762
97.8913
100.842
101.338
103.129
102.983
104.463
103.958
104.709
103.95
104.444
103.614
104.061
103.012
103.463
102.315
102.787
101.722
102.183
101.192
101.552
100.509
100.85
99.6119
100.097
98.6638
99.3643
97.7508
98.6885
96.8634
98.0583
96.0533
97.5197
95.4483
97.1537
94.9073
96.8709
94.2669
96.5462
93.5218
95.8655
92.2447
94.3108
90.2206
91.9139
87.4611
88.6845
83.917
84.1444
79.099
77.5087
71.9996
67.8132
61.8439
55.6409
83.4546
83.35
83.2758
83.1915
83.1463
83.1698
83.265
83.4083
83.5777
83.7602
83.9437
84.1219
84.2919
84.457
84.6215
84.7936
84.9891
85.2054
85.4356
85.6648
85.9157
86.1714
86.3166
86.3108
86.2657
86.2533
86.2604
86.2854
86.3468
86.4775
86.7047
87.023
87.3713
87.6824
87.9359
88.2467
88.7057
89.2809
89.8564
90.3506
90.8821
91.6353
92.6853
94.2569
95.3289
97.9443
98.4256
101.568
101.629
103.92
103.458
105.049
104.343
105.383
104.338
105.121
103.965
104.694
103.356
104.083
102.689
103.465
102.121
102.938
101.609
102.346
100.936
101.634
100.036
100.835
99.0729
100.059
98.1549
99.3669
97.2794
98.7577
96.4727
98.2627
95.8423
97.9481
95.3197
97.7502
94.7476
97.4969
94.0832
96.8237
92.8497
95.3222
90.9314
92.925
88.1958
89.5311
84.5355
84.5823
79.5136
77.4943
72.3025
67.8409
62.1255
56.2206
83.5401
83.4434
83.3519
83.2686
83.2262
83.2421
83.3223
83.4529
83.6152
83.7952
83.9773
84.1547
84.3242
84.4906
84.6607
84.8422
85.0496
85.2832
85.5361
85.7959
86.0728
86.3374
86.4978
86.5384
86.5459
86.5735
86.6221
86.6943
86.8079
86.9863
87.2454
87.5696
87.8988
88.1825
88.4238
88.7256
89.1726
89.739
90.3396
90.9039
91.5122
92.2705
93.3209
94.7608
95.8125
98.4148
98.7313
102.1
101.885
104.3
103.708
105.458
104.643
105.82
104.573
105.534
104.199
105.044
103.569
104.416
102.908
103.89
102.377
103.438
101.897
102.881
101.222
102.157
100.303
101.317
99.313
100.505
98.3806
99.8005
97.5092
99.1989
96.7108
98.7232
96.0806
98.436
95.5885
98.293
95.0816
98.0782
94.4271
97.367
93.2354
95.9065
91.3991
93.5193
88.6849
90.0231
84.9603
84.8046
79.8761
77.4349
72.5635
67.8838
62.2958
56.6446
83.6943
83.5139
83.3787
83.2886
83.2441
83.2556
83.33
83.4555
83.6143
83.7919
83.9726
84.15
84.3233
84.4962
84.6752
84.8684
85.0885
85.335
85.6013
85.876
86.1616
86.4271
86.5955
86.6588
86.6882
86.7301
86.7915
86.8789
87.008
87.1987
87.4619
87.7794
88.0953
88.3727
88.6187
88.9266
89.3643
89.915
90.5137
91.1162
91.7844
92.5715
93.6264
95.0119
96.0555
98.6379
98.9569
102.351
102.033
104.45
103.848
105.73
104.719
105.969
104.68
105.701
104.299
105.171
103.668
104.553
103.008
104.074
102.486
103.657
101.996
103.105
101.305
102.357
100.376
101.493
99.3723
100.662
98.4303
99.9472
97.5582
99.3454
96.7682
98.8839
96.1355
98.613
95.6433
98.4931
95.1466
98.3018
94.4713
97.5643
93.2841
96.1146
91.4809
93.7334
88.7985
90.1978
85.0739
84.8659
79.956
77.3609
72.6023
67.8593
62.3234
56.6077
80.1141
79.7165
78.6357
77.0026
75.6756
74.5391
73.677
73.2983
72.9593
72.8437
73.1366
73.9229
75.1016
76.3012
77.351
78.3412
79.3064
80.1865
80.9043
81.6039
82.5574
83.7851
85.2193
86.7757
88.3617
89.9476
91.5039
92.9499
94.3819
95.8311
97.5052
99.3003
101.292
102.982
104.524
105.364
105.86
105.858
105.547
104.972
104.374
103.656
103.05
102.383
101.9
101.48
101.333
101.138
101.127
100.968
100.982
100.877
100.918
100.86
100.883
100.828
100.791
100.717
100.658
100.585
100.59
100.664
100.877
101.111
101.391
101.587
101.698
101.695
101.599
101.429
101.227
101
100.777
100.559
100.365
100.187
100.038
99.9103
99.809
99.7285
99.671
99.6334
99.6145
99.6115
99.6221
99.6457
99.6817
99.7293
99.7844
99.845
99.9094
99.9833
100.06
100.103
100.096
100.139
100.234
100.474
101.31
102.363
80.0556
79.6081
78.4492
76.7812
75.426
74.2934
73.4628
73.0943
72.7175
72.5869
72.8813
73.6759
74.8673
76.0604
77.0843
78.0763
79.0589
79.9412
80.6385
81.3383
82.3002
83.5408
84.937
86.4214
87.9719
89.5683
91.1617
92.6314
94.0656
95.5101
97.1958
98.9864
100.983
102.709
104.249
105.139
105.636
105.679
105.366
104.83
104.236
103.561
102.951
102.309
101.828
101.419
101.281
101.1
101.101
100.941
100.963
100.846
100.891
100.825
100.848
100.788
100.752
100.673
100.615
100.534
100.544
100.617
100.842
101.082
101.37
101.573
101.69
101.691
101.595
101.425
101.222
100.994
100.77
100.552
100.358
100.18
100.031
99.9035
99.8026
99.7225
99.6657
99.6284
99.6105
99.6077
99.6194
99.6428
99.6799
99.727
99.7832
99.8426
99.9066
99.9779
100.056
100.099
100.088
100.099
100.124
100.298
101.127
102.159
79.9429
79.3972
78.0896
76.3356
74.9337
73.7672
73.0026
72.6607
72.2486
72.0762
72.3616
73.1563
74.3289
75.4777
76.4488
77.408
78.3792
79.2315
79.906
80.6279
81.6617
82.9352
84.2658
85.623
87.1057
88.7001
90.3687
91.9095
93.3772
94.8281
96.5545
98.3316
100.327
102.131
103.645
104.633
105.124
105.239
104.945
104.444
103.876
103.256
102.656
102.047
101.582
101.197
101.073
100.931
100.951
100.814
100.86
100.739
100.798
100.727
100.743
100.673
100.636
100.549
100.492
100.405
100.424
100.502
100.744
101.002
101.303
101.528
101.657
101.669
101.578
101.408
101.204
100.974
100.751
100.531
100.338
100.16
100.011
99.8834
99.7826
99.7022
99.6446
99.6076
99.5887
99.5867
99.5972
99.6222
99.6583
99.7079
99.7634
99.8261
99.8853
99.955
100.035
100.1
100.094
100.065
99.9451
100.022
100.805
101.845
79.7672
79.1246
77.638
75.7906
74.3447
73.1032
72.3928
72.0349
71.5629
71.3688
71.6579
72.4135
73.4991
74.5801
75.5281
76.4536
77.3866
78.1726
78.8032
79.5576
80.677
81.9888
83.3001
84.5485
85.9669
87.5516
89.3009
90.9268
92.4595
93.941
95.7239
97.5108
99.462
101.349
102.851
103.926
104.428
104.608
104.347
103.879
103.338
102.77
102.188
101.593
101.157
100.8
100.691
100.597
100.649
100.546
100.628
100.515
100.595
100.528
100.527
100.452
100.403
100.315
100.257
100.171
100.204
100.299
100.563
100.853
101.168
101.429
101.579
101.61
101.53
101.364
101.163
100.933
100.712
100.491
100.299
100.118
99.9709
99.841
99.7406
99.6581
99.6007
99.5614
99.543
99.5387
99.5508
99.574
99.6132
99.661
99.7208
99.7817
99.8454
99.9075
99.998
100.087
100.115
100.042
99.7806
99.7388
100.47
101.503
79.5465
78.8134
77.1609
75.2298
73.7285
72.3944
71.6839
71.2601
70.685
70.4268
70.6616
71.356
72.3622
73.398
74.3699
75.2894
76.1798
76.9046
77.5045
78.299
79.4792
80.8161
82.1438
83.3331
84.7081
86.326
88.1794
89.9047
91.5122
93.0214
94.839
96.628
98.5066
100.436
101.937
103.074
103.601
103.828
103.616
103.185
102.666
102.15
101.58
101.011
100.609
100.273
100.19
100.127
100.234
100.151
100.272
100.169
100.266
100.21
100.191
100.113
100.053
99.962
99.9089
99.8233
99.8841
100.008
100.297
100.629
100.96
101.268
101.445
101.502
101.439
101.281
101.086
100.859
100.643
100.423
100.234
100.053
99.9063
99.7744
99.6732
99.588
99.529
99.4879
99.467
99.4611
99.4702
99.4937
99.531
99.5819
99.6418
99.7085
99.7712
99.8415
99.9294
100.051
100.099
100.027
99.6291
99.5026
100.178
101.231
79.3156
78.5175
76.7233
74.7248
73.1611
71.7104
70.9219
70.3517
69.6086
69.2282
69.3371
69.9518
70.9426
71.9878
73.0406
73.9874
74.8694
75.5824
76.1873
77.0065
78.2043
79.5745
80.9369
82.1189
83.4719
85.1641
87.1379
88.9663
90.6339
92.1429
93.9581
95.7273
97.5068
99.4296
100.921
102.08
102.639
102.901
102.752
102.35
101.859
101.395
100.868
100.35
99.9683
99.6639
99.6057
99.5671
99.7242
99.6513
99.8197
99.7305
99.8425
99.8102
99.7799
99.6909
99.6227
99.5166
99.4699
99.3867
99.4779
99.6334
99.9459
100.33
100.689
101.045
101.26
101.348
101.309
101.16
100.973
100.749
100.539
100.322
100.139
99.959
99.8159
99.6841
99.5818
99.4943
99.432
99.3885
99.3632
99.3547
99.3595
99.3805
99.4146
99.4639
99.5236
99.5925
99.6632
99.7392
99.8397
99.9666
100.05
99.9771
99.5478
99.3517
100.053
101.075
79.1156
78.2709
76.3506
74.2951
72.6562
71.0784
70.1182
69.2899
68.3359
67.7617
67.7273
68.2699
69.3329
70.4644
71.6312
72.6366
73.5578
74.3263
74.9792
75.8243
77.0283
78.4337
79.8283
81.0153
82.3542
84.1339
86.2189
88.1225
89.8346
91.3228
93.1063
94.8431
96.5027
98.3676
99.8373
100.981
101.575
101.857
101.767
101.396
100.939
100.527
100.063
99.5835
99.2289
98.9715
98.9344
98.9293
99.1155
99.071
99.2718
99.2069
99.3245
99.319
99.2734
99.178
99.0872
98.9773
98.9356
98.8744
98.992
99.1959
99.5385
99.9743
100.368
100.765
101.025
101.146
101.137
100.999
100.826
100.604
100.404
100.189
100.015
99.8366
99.7
99.5669
99.4688
99.3771
99.3157
99.2658
99.2395
99.2236
99.2259
99.2382
99.2691
99.3097
99.3679
99.4329
99.5107
99.5947
99.7049
99.8423
99.9332
99.9026
99.4955
99.3397
100.015
101.1
78.9628
78.0793
76.0385
73.92
72.1933
70.4763
69.2554
68.1125
66.9546
66.1594
65.9959
66.4761
67.6617
68.9547
70.2278
71.3194
72.3175
73.1942
73.9473
74.8351
76.0609
77.503
78.924
80.1089
81.4296
83.2786
85.4307
87.3535
89.1029
90.5725
92.2976
93.9668
95.5022
97.2673
98.6978
99.815
100.432
100.725
100.684
100.347
99.923
99.5588
99.1569
98.7116
98.3991
98.183
98.1779
98.2043
98.4194
98.419
98.6361
98.6
98.7011
98.7194
98.6333
98.5473
98.4341
98.3431
98.3204
98.2962
98.4656
98.7211
99.097
99.5722
99.9999
100.435
100.74
100.892
100.915
100.793
100.635
100.419
100.231
100.021
99.8579
99.6822
99.5541
99.4225
99.329
99.2376
99.1763
99.1249
99.0947
99.0759
99.0704
99.0781
99.0973
99.132
99.1771
99.2394
99.3108
99.4052
99.5169
99.6623
99.766
99.77
99.4832
99.3975
100.167
101.14
78.8532
77.9189
75.7708
73.575
71.7288
69.8628
68.3142
66.883
65.591
64.6115
64.322
64.7529
66.0572
67.5586
68.9193
70.0991
71.2011
72.2281
73.1318
74.0937
75.352
76.8198
78.2532
79.4325
80.7277
82.6091
84.7619
86.6652
88.4217
89.8634
91.5166
93.069
94.4927
96.1483
97.5239
98.6104
99.2291
99.5224
99.5156
99.209
98.8157
98.4951
98.1549
97.7632
97.5052
97.334
97.3712
97.4147
97.6669
97.6948
97.9202
97.916
97.9825
98.0244
97.9063
97.8538
97.7463
97.6894
97.6949
97.7156
97.9263
98.2229
98.6197
99.1332
99.5987
100.061
100.415
100.593
100.647
100.539
100.399
100.191
100.016
99.8133
99.6608
99.4922
99.3724
99.2472
99.1598
99.0719
99.0134
98.9622
98.9309
98.9087
98.8985
98.8983
98.9091
98.9309
98.9659
99.0122
99.078
99.1615
99.2773
99.4154
99.5426
99.5896
99.4462
99.4815
100.258
101.416
78.7543
77.7562
75.5118
73.221
71.2175
69.1997
67.3227
65.6703
64.3271
63.2185
62.8455
63.2355
64.6449
66.3561
67.7772
69.039
70.272
71.468
72.5436
73.5968
74.9005
76.383
77.8
78.9744
80.2367
82.0958
84.1884
86.0372
87.7496
89.1588
90.7228
92.1606
93.4771
95.0235
96.3292
97.3843
97.9892
98.2704
98.277
97.9993
97.6361
97.3454
97.0713
96.7515
96.5444
96.4321
96.5116
96.5883
96.8713
96.9127
97.1431
97.1659
97.1929
97.264
97.1369
97.1306
97.0364
97.0172
97.0398
97.118
97.3464
97.6942
98.1215
98.6665
99.1698
99.6465
100.044
100.245
100.33
100.234
100.115
99.9155
99.7571
99.5612
99.4233
99.2609
99.1556
99.0364
98.9621
98.8776
98.8273
98.7754
98.7479
98.721
98.7093
98.6998
98.7034
98.7117
98.7323
98.7632
98.8093
98.8814
98.9758
99.1146
99.2492
99.3607
99.3627
99.5653
100.477
101.485
78.6276
77.5477
75.2326
72.829
70.651
68.5007
66.3623
64.5727
63.2518
62.07
61.6757
62.0497
63.5605
65.4515
66.8878
68.2157
69.5791
70.925
72.1609
73.3098
74.6651
76.1637
77.5375
78.6962
79.919
81.6978
83.6676
85.4273
87.0574
88.4294
89.8855
91.2292
92.4517
93.8937
95.1256
96.146
96.7228
96.9788
96.98
96.7288
96.3957
96.1345
95.9116
95.6663
95.5315
95.4854
95.6071
95.7352
96.0323
96.0966
96.3257
96.3583
96.3487
96.4494
96.3131
96.3549
96.2666
96.2999
96.353
96.4924
96.7519
97.1423
97.6026
98.1634
98.7073
99.1941
99.6282
99.8458
99.9593
99.8749
99.7769
99.5877
99.447
99.2606
99.1406
98.9887
98.8986
98.7904
98.7288
98.6553
98.6129
98.5671
98.5417
98.5158
98.4992
98.4855
98.477
98.4761
98.4776
98.493
98.5141
98.563
98.6356
98.7496
98.9002
99.0539
99.2188
99.5528
100.527
101.814
78.4173
77.2625
74.9135
72.4235
70.0862
67.8532
65.5829
63.7437
62.5021
61.3434
60.9756
61.3382
62.9
64.9002
66.3125
67.6744
69.1463
70.6156
71.9779
73.2134
74.5968
76.096
77.4157
78.5534
79.7278
81.3911
83.1825
84.8218
86.3463
87.6649
89.0083
90.2843
91.4446
92.7832
93.9392
94.9101
95.4467
95.6685
95.6486
95.4137
95.1117
94.8831
94.7119
94.5459
94.489
94.5105
94.6841
94.8624
95.1755
95.2729
95.483
95.5072
95.4838
95.5886
95.4734
95.539
95.5005
95.5713
95.6749
95.8553
96.1509
96.5734
97.0634
97.6401
98.2256
98.7145
99.1784
99.4032
99.5404
99.4647
99.386
99.207
99.0865
98.9128
98.8138
98.6758
98.6029
98.5075
98.4609
98.3997
98.3709
98.335
98.3167
98.2927
98.2747
98.2539
98.2371
98.2207
98.2071
98.1975
98.1954
98.2123
98.2551
98.3433
98.4814
98.6837
98.9691
99.5163
100.578
101.611
78.1078
76.8821
74.5466
72.0375
69.6456
67.3888
65.1361
63.3264
62.2114
61.1518
60.8299
61.1596
62.7055
64.7309
66.0981
67.4416
68.9852
70.5372
71.9743
73.2756
74.6516
76.1271
77.3738
78.4847
79.5975
81.114
82.7107
84.2217
85.6377
86.8986
88.1467
89.3614
90.479
91.7105
92.7854
93.6894
94.1736
94.3548
94.3072
94.0853
93.8116
93.6145
93.4906
93.4044
93.4341
93.5365
93.7708
93.9969
94.3274
94.449
94.6404
94.6596
94.6452
94.7428
94.6871
94.7573
94.7824
94.8693
95.0117
95.2248
95.5533
96.0023
96.5302
97.1157
97.7303
98.2146
98.6968
98.9233
99.0788
99.0081
98.9477
98.7764
98.6804
98.5232
98.449
98.3265
98.2727
98.1913
98.1622
98.1162
98.1026
98.0815
98.0734
98.0564
98.0372
98.0121
97.9835
97.9538
97.9182
97.8861
97.851
97.8351
97.8385
97.8856
98.0032
98.2033
98.5722
99.1692
100.211
101.536
77.7339
76.4635
74.2029
71.7154
69.407
67.1961
65.0984
63.3814
62.4109
61.5071
61.2247
61.512
62.9804
64.953
66.2559
67.522
69.0792
70.6649
72.1306
73.4738
74.8092
76.2269
77.3774
78.4408
79.488
80.8413
82.2532
83.6431
84.956
86.1576
87.3282
88.4791
89.5606
90.6824
91.6718
92.4883
92.9126
93.0476
92.9692
92.7514
92.5052
92.353
92.2823
92.2785
92.3976
92.5904
92.8882
93.1641
93.5082
93.6473
93.8258
93.8513
93.8651
93.9711
93.9821
94.0512
94.1321
94.2217
94.4008
94.6408
94.9933
95.4551
96.0139
96.5918
97.231
97.7033
98.1965
98.4146
98.588
98.5107
98.4684
98.2999
98.2371
98.0977
98.0531
97.9474
97.9157
97.8502
97.8392
97.8108
97.8153
97.8097
97.8167
97.8079
97.7934
97.7619
97.7242
97.6753
97.6199
97.5565
97.493
97.4295
97.3938
97.3837
97.455
97.6309
98.002
98.6802
99.7397
100.775
77.4142
76.0983
73.9642
71.5326
69.3918
67.3349
65.4581
63.8887
63.0679
62.3601
62.1216
62.3675
63.6838
65.5337
66.7563
67.9107
69.4206
70.9845
72.4225
73.7607
75.036
76.3622
77.4163
78.4203
79.4012
80.5906
81.8316
83.0991
84.312
85.4535
86.563
87.6514
88.6919
89.7045
90.6001
91.3108
91.6691
91.7581
91.6548
91.4399
91.2269
91.1249
91.1136
91.1944
91.4074
91.7003
92.0611
92.3835
92.7377
92.8964
93.0722
93.1236
93.1722
93.2962
93.3585
93.4359
93.5646
93.66
93.8646
94.1172
94.4824
94.9437
95.5306
96.0898
96.7441
97.1869
97.6865
97.8824
98.0725
97.9767
97.9598
97.7933
97.7761
97.6523
97.6441
97.5482
97.5446
97.4908
97.5038
97.4878
97.5167
97.5241
97.5519
97.5506
97.546
97.5074
97.4622
97.3905
97.315
97.2153