/*--------------------------------*- C++ -*----------------------------------*\
| =========                 |                                                 |
| \\      /  F ield         | OpenFOAM: The Open Source CFD Toolbox           |
|  \\    /   O peration     | Version:  2.4.0                                 |
|   \\  /    A nd           | Web:      www.OpenFOAM.org                      |
|    \\/     M anipulation  |                                                 |
\*---------------------------------------------------------------------------*/
FoamFile
{
    version     2.0;
    format      ascii;
    class       volVectorField;
    location    "0.124";
    object      U;
}
// * * * * * * * * * * * * * * * * * * * * * * * * * * * * * * * * * * * * * //

dimensions      [0 1 -1 0 0 0 0];

internalField   nonuniform List<vector> 
4400
(
(5.40501 0.31675 0)
(3.31451 0.0607068 0)
(2.58523 0.00150323 0)
(2.22937 -0.00218838 0)
(2.08686 -0.00146556 0)
(1.98853 -0.000483823 0)
(1.95499 -0.00054269 0)
(1.88568 0.00123309 0)
(1.89483 0.00179018 0)
(1.61447 -0.0673172 0)
(8.69024 0.857315 0)
(7.53455 0.344546 0)
(6.63746 0.116764 0)
(5.89869 0.0544638 0)
(5.5365 0.027162 0)
(5.25206 0.016231 0)
(5.15398 0.0109413 0)
(4.96305 0.00916683 0)
(5.02618 0.0247563 0)
(4.52269 -0.0963872 0)
(9.90152 0.937196 0)
(9.97719 0.476837 0)
(9.51076 0.214367 0)
(8.72917 0.128402 0)
(8.29832 0.0759831 0)
(7.88407 0.0469177 0)
(7.74902 0.0319155 0)
(7.45839 0.0212076 0)
(7.60034 0.0485748 0)
(6.85768 -0.11232 0)
(10.1439 0.807558 0)
(11.0896 0.497083 0)
(11.3043 0.267909 0)
(10.7889 0.194947 0)
(10.4871 0.131609 0)
(10.0491 0.0867414 0)
(9.92884 0.0612426 0)
(9.56651 0.0337616 0)
(9.81075 0.0839769 0)
(8.94432 -0.118445 0)
(10.0892 0.647951 0)
(11.2807 0.434843 0)
(12.0371 0.249001 0)
(11.9136 0.215061 0)
(11.9203 0.165586 0)
(11.6165 0.121841 0)
(11.593 0.091078 0)
(11.2342 0.046288 0)
(11.5488 0.109842 0)
(10.8012 -0.0738338 0)
(10.0868 0.516872 0)
(11.163 0.356604 0)
(12.1342 0.190781 0)
(12.2069 0.184841 0)
(12.4987 0.155537 0)
(12.4298 0.128998 0)
(12.5724 0.106424 0)
(12.3493 0.0489616 0)
(12.6965 0.126474 0)
(12.2067 -0.0416277 0)
(10.1151 0.400002 0)
(11.0666 0.286391 0)
(12.0637 0.134475 0)
(12.2159 0.143166 0)
(12.5448 0.1173 0)
(12.643 0.110907 0)
(12.8669 0.0940007 0)
(12.8537 0.0440647 0)
(13.1595 0.101957 0)
(13.0101 0.0429299 0)
(10.0549 0.279874 0)
(11.1098 0.216499 0)
(11.9513 0.0803452 0)
(12.1902 0.11114 0)
(12.4648 0.0710708 0)
(12.656 0.0913632 0)
(12.8795 0.0622994 0)
(12.9793 0.0370337 0)
(13.1477 0.0709711 0)
(13.2519 0.0518513 0)
(10.0014 0.171088 0)
(11.1517 0.125546 0)
(11.8572 0.0516832 0)
(12.187 0.0656613 0)
(12.424 0.0362481 0)
(12.6299 0.0487427 0)
(12.8429 0.0478877 0)
(12.9421 0.0191605 0)
(13.0895 0.0584709 0)
(13.2726 -0.0424818 0)
(10.0081 0.0538089 0)
(11.1025 0.046361 0)
(11.8549 0.0108747 0)
(12.2054 0.0298173 0)
(12.4204 -0.00714239 0)
(12.5771 0.0287055 0)
(12.7639 0.016445 0)
(12.9462 0.00989809 0)
(13.1344 0.0223049 0)
(13.2836 -0.0908807 0)
(9.99346 -0.0508634 0)
(11.1088 -0.0463849 0)
(11.8701 -0.0222099 0)
(12.2059 -0.014209 0)
(12.4207 -0.0337524 0)
(12.5604 -0.00520584 0)
(12.744 -0.00435868 0)
(12.9583 -0.0216997 0)
(13.1664 -0.00338381 0)
(13.2923 -0.125265 0)
(9.99903 -0.165799 0)
(11.1338 -0.131144 0)
(11.8841 -0.0602395 0)
(12.2093 -0.0511715 0)
(12.4235 -0.0692233 0)
(12.5695 -0.0292943 0)
(12.7771 -0.035164 0)
(12.9673 -0.0445443 0)
(13.2037 -0.035191 0)
(13.2874 -0.137555 0)
(10.0258 -0.275857 0)
(11.1544 -0.219315 0)
(11.9202 -0.0961673 0)
(12.2055 -0.0919728 0)
(12.4427 -0.0997566 0)
(12.6013 -0.0630632 0)
(12.8332 -0.0600244 0)
(12.9863 -0.0717478 0)
(13.2228 -0.0631068 0)
(13.2359 -0.141969 0)
(10.054 -0.396531 0)
(11.1687 -0.293836 0)
(11.9726 -0.136673 0)
(12.2181 -0.130769 0)
(12.5076 -0.136613 0)
(12.6111 -0.0934413 0)
(12.8591 -0.0866929 0)
(12.9108 -0.0922705 0)
(13.1261 -0.0862518 0)
(12.9492 -0.131767 0)
(10.0444 -0.516587 0)
(11.2266 -0.360876 0)
(12.0296 -0.187997 0)
(12.2543 -0.178027 0)
(12.4561 -0.169262 0)
(12.4318 -0.118129 0)
(12.5647 -0.100859 0)
(12.436 -0.10198 0)
(12.5422 -0.0832973 0)
(12.1758 -0.12948 0)
(10.0628 -0.647535 0)
(11.3134 -0.436524 0)
(11.9723 -0.247068 0)
(11.9715 -0.211981 0)
(11.8755 -0.175194 0)
(11.6359 -0.113536 0)
(11.5793 -0.0919402 0)
(11.3107 -0.0828515 0)
(11.3143 -0.0738499 0)
(10.9095 -0.0941712 0)
(10.1295 -0.80754 0)
(11.1084 -0.497991 0)
(11.2658 -0.266639 0)
(10.837 -0.19337 0)
(10.4451 -0.137326 0)
(10.0713 -0.08206 0)
(9.91681 -0.0634774 0)
(9.60671 -0.0566206 0)
(9.58269 -0.0560773 0)
(9.18005 -0.0579208 0)
(9.89463 -0.937391 0)
(9.98691 -0.476985 0)
(9.48854 -0.213791 0)
(8.76192 -0.127506 0)
(8.26686 -0.0793197 0)
(7.90195 -0.0445594 0)
(7.73864 -0.0339456 0)
(7.46443 -0.0329711 0)
(7.44508 -0.0341441 0)
(7.03721 -0.0376361 0)
(8.68693 -0.857379 0)
(7.53867 -0.344459 0)
(6.62673 -0.116729 0)
(5.91711 -0.053875 0)
(5.51811 -0.0287779 0)
(5.26205 -0.0154682 0)
(5.14481 -0.0118023 0)
(4.95502 -0.0143983 0)
(4.93521 -0.0147464 0)
(4.58855 -0.0155634 0)
(5.40434 -0.316798 0)
(3.31537 -0.0606637 0)
(2.58249 -0.0016163 0)
(2.23536 0.00240929 0)
(2.08056 0.00110158 0)
(1.99032 0.000596299 0)
(1.95021 0.000563017 0)
(1.87789 -0.00149513 0)
(1.85921 3.87288e-05 0)
(1.70372 0.00999684 0)
(2.66576 -0.138568 0)
(2.43256 0.0661371 0)
(2.75297 0.104012 0)
(2.70663 0.390784 0)
(3.70544 0.723868 0)
(4.31621 1.2844 0)
(5.79341 1.26135 0)
(6.75806 0.768349 0)
(7.74975 0.258886 0)
(7.98396 -0.0933771 0)
(7.64352 -0.903764 0)
(8.02185 -1.38715 0)
(8.17054 -1.7042 0)
(8.39175 -2.13799 0)
(9.71317 -2.86861 0)
(10.5249 -3.39862 0)
(10.1997 -4.40822 0)
(10.9056 -4.70053 0)
(8.64531 -3.91003 0)
(8.73487 -2.81533 0)
(7.07696 -2.04133 0)
(6.7543 0.00476395 0)
(5.83807 1.7929 0)
(7.92136 2.86741 0)
(7.36901 3.45758 0)
(8.49438 3.39876 0)
(8.21483 2.9001 0)
(8.83323 1.79261 0)
(9.21393 0.982702 0)
(9.62682 -0.277682 0)
(10.1647 -1.99187 0)
(9.82923 -2.81236 0)
(10.5014 -4.22519 0)
(11.0036 -6.17333 0)
(10.7994 -8.18803 0)
(10.6754 -9.0394 0)
(8.1167 -8.33156 0)
(7.23056 -6.52996 0)
(5.19064 -7.139 0)
(6.25331 -7.75383 0)
(7.6122 -7.48529 0)
(7.37326 -5.28406 0)
(8.45943 -3.11718 0)
(7.13341 -1.90488 0)
(7.37587 -0.655552 0)
(7.19235 1.54679 0)
(8.02261 3.44736 0)
(8.32785 5.10677 0)
(8.74992 6.01286 0)
(7.81561 5.67969 0)
(8.36124 5.06189 0)
(7.12685 5.61553 0)
(7.68092 4.58517 0)
(6.10336 3.68806 0)
(7.51434 3.54951 0)
(6.12388 4.00415 0)
(7.08298 4.89827 0)
(7.61039 6.37224 0)
(6.72958 5.8095 0)
(9.44371 5.80224 0)
(7.34324 4.36653 0)
(9.87617 3.45134 0)
(8.49941 0.888031 0)
(10.3473 -1.07466 0)
(8.33238 -3.00627 0)
(10.6041 -4.4094 0)
(7.67358 -6.42469 0)
(10.4345 -7.33065 0)
(6.60994 -7.33452 0)
(8.29128 -5.95669 0)
(5.55363 -5.34704 0)
(5.72396 -2.11322 0)
(2.45491 -0.755504 0)
(3.58293 0.442552 0)
(3.92029 -3.40513 0)
(6.27092 -2.39322 0)
(7.00305 -2.45715 0)
(8.01345 -1.1642 0)
(8.47188 -0.843481 0)
(8.80925 -0.292384 0)
(9.89678 0.762658 0)
(10.629 1.80294 0)
(10.4908 2.66641 0)
(10.0648 3.45906 0)
(9.9285 4.3858 0)
(10.0806 4.79153 0)
(9.55019 4.52501 0)
(8.89573 4.07898 0)
(8.31038 3.4553 0)
(7.16621 2.89657 0)
(6.92285 2.14924 0)
(5.92209 1.99609 0)
(6.26413 1.8895 0)
(5.48081 2.74577 0)
(4.98637 2.76047 0)
(4.84237 3.70629 0)
(4.30156 3.27919 0)
(3.27199 4.40308 0)
(4.47242 3.62394 0)
(2.05153 4.63712 0)
(5.18834 -0.0520021 0)
(4.67166 0.0856881 0)
(5.02187 0.173116 0)
(4.71283 0.299291 0)
(5.20257 0.393932 0)
(5.48416 0.866898 0)
(6.67969 0.839957 0)
(7.24593 0.367351 0)
(7.91985 -0.120492 0)
(8.51989 -0.222797 0)
(8.82599 -0.910588 0)
(9.27762 -1.63817 0)
(9.55729 -1.81387 0)
(10.0022 -2.34374 0)
(11.1478 -3.30762 0)
(11.5112 -3.55485 0)
(11.2345 -4.44222 0)
(11.4304 -4.63634 0)
(9.33314 -3.48762 0)
(9.29189 -2.47196 0)
(8.16744 -1.73357 0)
(7.4444 0.200496 0)
(7.02504 1.62179 0)
(8.32935 2.58277 0)
(8.28599 3.27528 0)
(9.27295 3.26041 0)
(9.07159 2.73882 0)
(9.66384 1.59647 0)
(9.75196 0.854401 0)
(10.2452 -0.503733 0)
(10.6256 -2.02297 0)
(10.2937 -2.88776 0)
(10.9516 -4.38924 0)
(11.1391 -6.25101 0)
(10.8132 -7.99562 0)
(10.2017 -8.49436 0)
(7.54291 -7.50929 0)
(6.34899 -5.95453 0)
(4.97612 -7.1896 0)
(5.68193 -8.28656 0)
(6.64647 -7.67479 0)
(5.69195 -5.58406 0)
(7.37457 -3.26653 0)
(6.53153 -1.68421 0)
(6.62623 -0.584257 0)
(6.17758 1.45459 0)
(7.06074 3.20793 0)
(7.36825 5.02421 0)
(7.7842 5.98071 0)
(7.18787 5.78106 0)
(7.81104 5.2188 0)
(6.47313 5.76107 0)
(7.641 4.72268 0)
(5.68065 3.7765 0)
(7.2498 3.48502 0)
(6.46782 4.03497 0)
(6.54023 4.65299 0)
(8.11868 6.24157 0)
(6.41557 5.55589 0)
(9.47875 5.53807 0)
(7.71186 4.2451 0)
(9.97684 3.28823 0)
(9.24809 0.798791 0)
(10.5288 -1.10098 0)
(8.89707 -2.95546 0)
(10.599 -4.39461 0)
(7.83963 -6.65327 0)
(10.4092 -7.33246 0)
(6.1094 -7.14142 0)
(8.22618 -5.65299 0)
(4.69651 -4.84474 0)
(5.33528 -1.31005 0)
(1.36226 -0.576114 0)
(4.57581 0.0731023 0)
(3.9719 -4.09329 0)
(6.71234 -2.68243 0)
(6.60523 -2.97359 0)
(7.70383 -1.21371 0)
(7.73531 -1.10407 0)
(8.20403 -0.461428 0)
(9.04554 0.368332 0)
(10.2306 1.602 0)
(10.3544 2.71842 0)
(10.0773 3.61035 0)
(9.55974 4.45897 0)
(9.66373 4.91082 0)
(9.39987 4.78334 0)
(8.60248 4.4133 0)
(8.29003 3.78706 0)
(7.14365 3.22197 0)
(6.91412 2.28587 0)
(6.3413 2.25499 0)
(6.15924 1.76503 0)
(5.70482 3.13325 0)
(5.41872 2.69789 0)
(5.26207 3.9681 0)
(6.21316 3.6846 0)
(2.33082 4.64992 0)
(6.36275 3.21788 0)
(4.37705 4.79168 0)
(7.62769 0.00309801 0)
(7.16945 0.139994 0)
(7.21112 0.128132 0)
(7.1373 0.301733 0)
(7.41097 0.285244 0)
(7.28209 0.536784 0)
(8.24151 0.585519 0)
(8.90524 0.31375 0)
(9.33672 -0.240403 0)
(9.65622 -0.440951 0)
(10.2337 -1.06742 0)
(10.9807 -1.93575 0)
(11.0548 -2.01426 0)
(11.6807 -2.48377 0)
(12.5067 -3.49673 0)
(12.3844 -3.53728 0)
(12.3064 -4.24594 0)
(11.9661 -4.33067 0)
(9.87375 -2.95334 0)
(9.71583 -2.23934 0)
(8.97171 -1.49317 0)
(7.92064 0.378559 0)
(8.07158 1.52836 0)
(8.5534 2.37642 0)
(9.00266 3.06007 0)
(9.91467 3.12503 0)
(9.84296 2.61228 0)
(10.329 1.51654 0)
(10.25 0.828804 0)
(10.8663 -0.653974 0)
(11.0734 -2.04169 0)
(10.7658 -2.91928 0)
(11.314 -4.44408 0)
(11.193 -6.20661 0)
(10.6979 -7.68278 0)
(9.63366 -7.84604 0)
(6.97938 -6.55227 0)
(5.45507 -5.40735 0)
(4.78114 -7.18891 0)
(4.42344 -8.50849 0)
(5.51999 -7.51632 0)
(4.10679 -5.64054 0)
(5.9404 -3.57828 0)
(5.63699 -1.5908 0)
(5.67841 -0.470287 0)
(5.17404 1.4323 0)
(6.0958 2.97333 0)
(6.43481 4.91334 0)
(6.85253 5.82281 0)
(6.48201 5.75101 0)
(7.3645 5.36072 0)
(5.87777 5.75362 0)
(7.33418 4.80322 0)
(5.5542 3.90344 0)
(6.74675 3.33061 0)
(6.70296 4.07022 0)
(6.07873 4.39583 0)
(8.50857 6.12349 0)
(6.45232 5.42525 0)
(9.26566 5.23762 0)
(8.19911 4.05674 0)
(10.1208 3.00435 0)
(9.73751 0.655802 0)
(10.6634 -0.9919 0)
(9.39921 -2.83917 0)
(10.637 -4.28935 0)
(8.33054 -6.39579 0)
(10.3783 -6.7448 0)
(5.82638 -6.59594 0)
(8.34993 -5.22881 0)
(3.83934 -4.24081 0)
(5.29534 -0.621093 0)
(1.00858 -0.541904 0)
(5.93799 -0.576841 0)
(3.50952 -4.59241 0)
(7.06055 -2.8825 0)
(5.98181 -3.3967 0)
(7.39748 -1.12581 0)
(6.72498 -1.43539 0)
(7.47964 -0.567601 0)
(8.01189 -0.11126 0)
(9.56089 1.41787 0)
(9.90833 2.70867 0)
(9.92176 3.7379 0)
(9.32987 4.45185 0)
(9.17681 4.88418 0)
(9.1163 4.92618 0)
(8.27891 4.63183 0)
(8.02386 3.91034 0)
(7.40351 3.6944 0)
(6.61182 2.21491 0)
(6.60417 2.54037 0)
(6.53247 1.7879 0)
(5.39911 3.50575 0)
(7.23905 2.75039 0)
(4.11805 3.90025 0)
(8.24563 3.9442 0)
(3.7653 4.96524 0)
(6.75738 2.66318 0)
(5.80922 4.41583 0)
(9.5031 -0.0183258 0)
(9.39578 0.222193 0)
(9.35816 0.181908 0)
(9.28122 0.237612 0)
(9.61369 0.251861 0)
(9.52393 0.399492 0)
(10.0537 0.335459 0)
(10.5762 0.0674561 0)
(11.171 -0.392217 0)
(11.4556 -0.570903 0)
(11.8857 -1.16827 0)
(12.7041 -2.12769 0)
(12.3871 -2.21482 0)
(12.9134 -2.64383 0)
(13.4184 -3.58001 0)
(12.8036 -3.48798 0)
(12.7348 -4.0237 0)
(12.0266 -3.99098 0)
(10.1499 -2.41855 0)
(10.2003 -1.98501 0)
(9.30026 -1.26807 0)
(8.42762 0.539108 0)
(8.8097 1.47572 0)
(8.63964 2.19583 0)
(9.36549 2.80227 0)
(10.2018 3.00007 0)
(10.3863 2.49012 0)
(10.7776 1.52266 0)
(10.7191 0.799475 0)
(11.4606 -0.807116 0)
(11.4613 -2.02274 0)
(11.119 -2.91187 0)
(11.5012 -4.47967 0)
(11.1152 -6.09042 0)
(10.4368 -7.25967 0)
(9.03858 -7.09079 0)
(6.27356 -5.61852 0)
(4.73799 -5.00739 0)
(4.17383 -7.15372 0)
(3.3767 -8.47199 0)
(4.73859 -7.2441 0)
(3.53613 -5.40256 0)
(4.92599 -3.80285 0)
(4.68227 -1.53709 0)
(4.72244 -0.40694 0)
(4.34307 1.33951 0)
(5.28241 2.68052 0)
(5.44634 4.82222 0)
(5.99035 5.64604 0)
(5.6423 5.68728 0)
(6.83841 5.53193 0)
(5.2329 5.70677 0)
(6.77641 4.81931 0)
(5.59746 3.99325 0)
(6.02602 3.12166 0)
(7.00418 4.12265 0)
(5.62642 4.04066 0)
(8.62963 5.9727 0)
(6.94911 5.31386 0)
(9.25903 4.83695 0)
(8.76057 3.89036 0)
(10.4117 2.68825 0)
(10.0347 0.645295 0)
(10.7802 -1.00197 0)
(9.62431 -2.83476 0)
(10.6065 -4.17633 0)
(8.65577 -6.19454 0)
(9.82061 -6.38132 0)
(5.64962 -6.23977 0)
(8.28091 -4.82863 0)
(3.03886 -3.67065 0)
(5.81078 -0.141159 0)
(1.3904 -0.522732 0)
(7.15311 -1.05272 0)
(2.42236 -4.73298 0)
(7.20442 -3.08859 0)
(5.16998 -3.663 0)
(7.04009 -0.910709 0)
(5.68844 -1.75784 0)
(6.69271 -0.536034 0)
(6.93812 -0.754192 0)
(8.6851 1.08169 0)
(9.32362 2.60367 0)
(9.526 3.87493 0)
(9.05688 4.69375 0)
(8.4818 5.03102 0)
(8.63929 5.02675 0)
(8.10533 5.02228 0)
(7.43612 3.88597 0)
(7.37924 4.05728 0)
(7.16289 2.30426 0)
(6.21569 2.69021 0)
(7.95007 2.01445 0)
(4.38274 3.45812 0)
(9.04696 2.76333 0)
(4.19251 4.01051 0)
(8.49215 3.44402 0)
(5.4159 5.18003 0)
(7.65896 2.72583 0)
(6.52839 3.85638 0)
(11.0726 -0.0439326 0)
(11.0776 0.190774 0)
(10.9856 0.15314 0)
(11.0709 0.169049 0)
(11.3593 0.166118 0)
(11.3308 0.251958 0)
(11.8667 0.195347 0)
(12.2316 -0.0919678 0)
(12.6598 -0.542182 0)
(12.982 -0.78177 0)
(13.2735 -1.3083 0)
(13.9693 -2.16885 0)
(13.5106 -2.32757 0)
(13.7448 -2.68327 0)
(13.9442 -3.40707 0)
(13.0619 -3.33705 0)
(12.9839 -3.74021 0)
(11.7382 -3.53739 0)
(10.1178 -2.01365 0)
(10.5417 -1.74696 0)
(9.3207 -1.06658 0)
(8.88849 0.626193 0)
(9.21111 1.50682 0)
(8.65248 2.06223 0)
(9.47489 2.52234 0)
(10.1077 2.81191 0)
(10.6439 2.26583 0)
(11.0165 1.4676 0)
(11.0814 0.665463 0)
(11.888 -0.93005 0)
(11.679 -1.96213 0)
(11.3099 -2.88596 0)
(11.5706 -4.4297 0)
(10.942 -5.84283 0)
(10.0589 -6.73595 0)
(8.44068 -6.22462 0)
(5.60542 -4.64516 0)
(4.18044 -4.59164 0)
(3.41789 -7.03791 0)
(2.77386 -8.55267 0)
(4.10789 -7.31775 0)
(3.63177 -5.27414 0)
(4.50796 -3.86385 0)
(3.84788 -1.46076 0)
(3.92488 -0.33865 0)
(3.4303 1.29915 0)
(4.41332 2.49655 0)
(4.43178 4.74265 0)
(5.28643 5.43292 0)
(4.77078 5.52825 0)
(6.32905 5.60831 0)
(4.78798 5.61497 0)
(6.13372 4.75356 0)
(5.87604 4.1275 0)
(5.07242 2.87623 0)
(7.19878 4.10891 0)
(5.4031 3.76756 0)
(8.30628 5.60775 0)
(7.39727 5.0609 0)
(9.48096 4.49567 0)
(9.02169 3.70245 0)
(10.6969 2.44197 0)
(10.1278 0.594814 0)
(10.8664 -0.949234 0)
(9.83457 -2.5619 0)
(10.5868 -4.12425 0)
(8.78068 -5.91554 0)
(9.24579 -5.99274 0)
(5.88477 -5.80176 0)
(7.75974 -4.42446 0)
(2.31498 -3.27645 0)
(6.66842 -0.0834245 0)
(1.84656 -0.57602 0)
(7.61044 -1.32688 0)
(1.11908 -4.7317 0)
(7.05695 -3.46689 0)
(4.14499 -3.85033 0)
(6.70092 -0.686575 0)
(4.88402 -2.00063 0)
(5.98056 -0.491874 0)
(5.75929 -1.49344 0)
(7.57254 0.832398 0)
(8.71533 2.33569 0)
(8.80117 3.79001 0)
(8.89557 4.75711 0)
(8.09157 5.15683 0)
(7.86316 4.90819 0)
(7.89103 5.36136 0)
(7.44785 3.83965 0)
(6.51344 4.22965 0)
(8.5873 2.42556 0)
(5.31892 2.71564 0)
(9.33618 2.11903 0)
(4.01196 3.44538 0)
(9.81729 2.40229 0)
(5.36373 4.17375 0)
(8.6024 3.19409 0)
(6.29648 5.22392 0)
(8.64751 2.8744 0)
(7.437 3.41327 0)
(12.2566 -0.0521149 0)
(12.4543 0.191438 0)
(12.2799 0.150273 0)
(12.3133 0.0897512 0)
(12.7406 0.104638 0)
(12.6018 0.113694 0)
(12.9991 0.0199093 0)
(13.5396 -0.236156 0)
(13.7338 -0.588776 0)
(14.0641 -0.896753 0)
(14.2906 -1.43966 0)
(14.5191 -2.11556 0)
(14.1557 -2.34909 0)
(14.0596 -2.72334 0)
(13.978 -3.23739 0)
(13.1187 -3.17856 0)
(13.1116 -3.39651 0)
(11.6889 -2.98319 0)
(10.3992 -1.69654 0)
(10.9311 -1.49493 0)
(9.37361 -0.828081 0)
(9.10481 0.694348 0)
(9.20406 1.60018 0)
(8.77054 1.98998 0)
(9.48406 2.32509 0)
(9.86262 2.58286 0)
(10.75 1.98233 0)
(11.0812 1.37434 0)
(11.3345 0.514658 0)
(12.1153 -1.00551 0)
(11.6947 -1.85861 0)
(11.3621 -2.83407 0)
(11.4999 -4.34594 0)
(10.6302 -5.54014 0)
(9.63992 -6.132 0)
(7.74501 -5.29359 0)
(4.89796 -3.76101 0)
(3.62615 -4.19779 0)
(2.90098 -6.80332 0)
(2.17247 -8.6892 0)
(3.01973 -7.67982 0)
(3.0813 -5.60848 0)
(3.9762 -3.94401 0)
(2.88957 -1.3511 0)
(3.25255 -0.284754 0)
(2.40287 1.25241 0)
(3.50212 2.36773 0)
(3.43081 4.62609 0)
(4.7183 5.19818 0)
(4.02053 5.35544 0)
(5.85164 5.63941 0)
(4.49322 5.53455 0)
(5.33877 4.57708 0)
(6.2955 4.28349 0)
(4.14927 2.61661 0)
(7.01021 3.949 0)
(5.65428 3.65472 0)
(7.7567 5.0744 0)
(7.48168 4.70643 0)
(9.59351 4.1353 0)
(8.91631 3.54221 0)
(10.8331 2.21294 0)
(10.1395 0.595732 0)
(10.8367 -0.848327 0)
(9.76567 -2.58623 0)
(10.6635 -4.03542 0)
(8.70046 -5.34721 0)
(8.82323 -5.40156 0)
(6.24807 -5.13551 0)
(7.01243 -3.74547 0)
(2.15264 -2.88744 0)
(6.69498 -0.223498 0)
(1.96235 -0.532172 0)
(6.92541 -1.35337 0)
(0.360743 -4.62064 0)
(6.91387 -3.86524 0)
(3.35679 -3.99148 0)
(6.56395 -0.544922 0)
(3.97162 -2.05238 0)
(5.62351 -0.232081 0)
(4.2907 -2.3218 0)
(6.41173 0.495193 0)
(7.82045 1.9632 0)
(8.00255 3.95657 0)
(8.24325 4.80228 0)
(7.79084 5.5783 0)
(7.17842 4.77952 0)
(7.30065 5.59105 0)
(8.44137 4.03951 0)
(5.46716 4.28242 0)
(9.80999 2.35428 0)
(4.83326 2.80417 0)
(10.0112 1.97697 0)
(4.79447 3.64098 0)
(9.82034 1.84254 0)
(6.19458 4.24493 0)
(9.33482 3.37022 0)
(7.02563 5.07519 0)
(9.06441 2.78976 0)
(8.57066 3.07578 0)
(12.9381 -0.0921975 0)
(13.1912 0.048236 0)
(13.1366 0.0863548 0)
(13.0519 0.0204492 0)
(13.5442 -0.00825426 0)
(13.4854 0.0501255 0)
(13.6016 -0.121126 0)
(14.2398 -0.432317 0)
(14.2416 -0.632212 0)
(14.5015 -1.05037 0)
(14.8241 -1.4883 0)
(14.5149 -1.99782 0)
(14.3543 -2.35897 0)
(14.107 -2.63048 0)
(13.7835 -3.00195 0)
(13.246 -3.01705 0)
(13.0122 -3.0739 0)
(11.7677 -2.57116 0)
(10.9839 -1.57293 0)
(11.3917 -1.2568 0)
(9.66928 -0.487302 0)
(9.15899 0.838079 0)
(9.07882 1.67239 0)
(9.17021 1.89365 0)
(9.53113 2.19305 0)
(9.83307 2.30341 0)
(10.8489 1.66148 0)
(11.0052 1.26783 0)
(11.4894 0.354634 0)
(12.1044 -1.0202 0)
(11.4796 -1.7229 0)
(11.3007 -2.81874 0)
(11.3288 -4.20771 0)
(10.2496 -5.13297 0)
(9.1106 -5.45832 0)
(7.11222 -4.31816 0)
(4.3025 -2.88087 0)
(2.99019 -3.82656 0)
(2.19807 -6.61676 0)
(1.27968 -8.67883 0)
(1.6819 -7.80043 0)
(1.3878 -5.99836 0)
(2.58348 -4.06862 0)
(1.59099 -1.25674 0)
(2.61209 -0.232483 0)
(1.36936 1.18177 0)
(2.65714 2.13908 0)
(2.47068 4.38614 0)
(4.14165 4.97325 0)
(3.30717 5.14393 0)
(5.26185 5.58421 0)
(4.3851 5.53476 0)
(4.35963 4.20877 0)
(6.50663 4.38312 0)
(3.8265 2.68011 0)
(6.5926 3.51037 0)
(5.91481 3.51584 0)
(7.35654 4.60792 0)
(7.41823 4.2636 0)
(9.50113 3.91216 0)
(8.65672 3.31285 0)
(10.8231 1.94514 0)
(10.0529 0.600322 0)
(10.6739 -0.784439 0)
(9.8593 -2.46704 0)
(10.6543 -3.78617 0)
(8.42433 -5.03111 0)
(8.48662 -5.19095 0)
(5.80986 -4.67082 0)
(5.92161 -3.15271 0)
(2.16884 -2.52775 0)
(5.25451 -0.199123 0)
(2.04569 -0.537986 0)
(5.65297 -1.22002 0)
(0.881497 -4.69236 0)
(6.81041 -4.34094 0)
(3.14027 -4.05697 0)
(6.55926 -0.466739 0)
(3.1434 -2.07523 0)
(5.81182 -0.0312305 0)
(2.9238 -2.61642 0)
(5.15157 0.216481 0)
(6.39678 1.15508 0)
(7.45739 3.92605 0)
(7.38592 4.51878 0)
(7.49468 5.88959 0)
(7.25657 4.69463 0)
(6.11936 5.52571 0)
(9.40468 4.06681 0)
(4.84862 4.27818 0)
(10.4089 2.10345 0)
(5.0427 3.00985 0)
(10.0663 1.63867 0)
(5.68629 3.71731 0)
(9.92516 1.66602 0)
(6.72182 4.30259 0)
(9.67952 3.45746 0)
(8.03911 4.87568 0)
(9.56282 2.71551 0)
(9.5549 2.77077 0)
(13.2171 -0.054691 0)
(13.3603 -0.00406947 0)
(13.3619 -0.00127357 0)
(13.3475 0.0164792 0)
(13.7203 -0.123439 0)
(13.7424 -0.0331798 0)
(13.8447 -0.194285 0)
(14.3412 -0.576096 0)
(14.3701 -0.617806 0)
(14.4607 -1.18048 0)
(14.6599 -1.51282 0)
(14.2965 -1.83497 0)
(14.2143 -2.3766 0)
(14.0232 -2.5211 0)
(13.5884 -2.83164 0)
(13.406 -2.86849 0)
(12.9739 -2.71462 0)
(12.0614 -2.26369 0)
(11.6305 -1.51143 0)
(11.5992 -0.99199 0)
(10.134 -0.09265 0)
(9.51183 1.00109 0)
(9.27474 1.63449 0)
(9.55999 1.76412 0)
(9.47691 2.11271 0)
(9.92381 2.01208 0)
(10.773 1.39244 0)
(10.7692 1.1051 0)
(11.4355 0.158036 0)
(11.8093 -0.97119 0)
(11.1608 -1.60187 0)
(11.2548 -2.78521 0)
(11.0493 -4.00816 0)
(9.78438 -4.66787 0)
(8.54637 -4.73833 0)
(6.42971 -3.37279 0)
(3.84512 -2.04104 0)
(2.53924 -3.36649 0)
(1.45254 -6.3305 0)
(0.310456 -8.50663 0)
(0.600392 -7.62155 0)
(-0.19417 -5.92637 0)
(0.764023 -3.93327 0)
(-0.0393835 -1.2499 0)
(1.9739 -0.254398 0)
(0.364003 1.16559 0)
(1.93941 1.97303 0)
(1.31994 4.02903 0)
(3.71797 4.75344 0)
(2.66388 4.83471 0)
(4.62488 5.43587 0)
(4.47708 5.57395 0)
(3.58737 3.82348 0)
(6.3347 4.40489 0)
(4.00704 2.85364 0)
(6.25476 2.92106 0)
(5.72462 3.33498 0)
(7.25611 4.23679 0)
(7.3596 3.82645 0)
(9.03932 3.68113 0)
(8.51518 2.94168 0)
(10.6665 1.69567 0)
(9.84946 0.577315 0)
(10.4484 -0.725681 0)
(9.93465 -2.49669 0)
(10.507 -3.59293 0)
(8.22957 -4.47218 0)
(8.47766 -4.47801 0)
(5.75386 -3.80994 0)
(5.54272 -2.4745 0)
(2.02134 -2.05614 0)
(3.76688 -0.204149 0)
(1.83347 -0.716192 0)
(4.72577 -1.21931 0)
(2.1545 -4.9283 0)
(6.17576 -4.94953 0)
(2.58416 -4.14172 0)
(6.39422 -0.261242 0)
(2.57206 -2.23515 0)
(6.00586 0.256543 0)
(2.33443 -2.59764 0)
(4.46584 0.124916 0)
(4.22873 0.121857 0)
(6.56789 4.17829 0)
(6.40395 4.17254 0)
(6.71957 6.15153 0)
(7.8796 4.85265 0)
(4.97257 5.39488 0)
(9.90152 3.86408 0)
(4.73254 4.34384 0)
(10.5842 1.7604 0)
(5.65998 3.21831 0)
(9.82962 1.45787 0)
(6.34103 3.71244 0)
(9.97824 1.73185 0)
(7.42075 4.18115 0)
(9.66135 3.3257 0)
(8.8648 4.50423 0)
(10.165 2.62992 0)
(10.3663 2.50177 0)
(13.379 0.0411418 0)
(13.5057 0.114518 0)
(13.3922 -0.0416593 0)
(13.4324 0.049548 0)
(13.6358 -0.197355 0)
(13.5901 -0.165901 0)
(13.8536 -0.243039 0)
(14.0588 -0.703424 0)
(14.2146 -0.655665 0)
(14.2737 -1.17708 0)
(14.215 -1.49523 0)
(14.2142 -1.74403 0)
(14.1218 -2.3587 0)
(13.9046 -2.3811 0)
(13.6187 -2.67918 0)
(13.4706 -2.74622 0)
(12.9039 -2.44175 0)
(12.3796 -2.13583 0)
(12.0327 -1.42294 0)
(11.4039 -0.665086 0)
(10.5713 0.184729 0)
(10.1178 1.12629 0)
(9.56116 1.69059 0)
(9.68091 1.78603 0)
(9.30758 2.06194 0)
(9.91289 1.74369 0)
(10.5225 1.20256 0)
(10.4876 0.917948 0)
(11.2323 -0.00401057 0)
(11.3831 -0.861667 0)
(10.867 -1.52287 0)
(11.1203 -2.78507 0)
(10.6783 -3.74654 0)
(9.18798 -4.13776 0)
(7.93895 -3.97636 0)
(5.80325 -2.4353 0)
(3.4278 -1.29278 0)
(2.24615 -2.8984 0)
(0.926373 -5.83875 0)
(-0.58047 -8.20815 0)
(-0.197666 -7.40073 0)
(-0.611265 -5.66441 0)
(-0.506016 -3.67368 0)
(-1.34828 -1.49683 0)
(1.48895 -0.496719 0)
(-0.485734 1.18994 0)
(1.16914 1.86967 0)
(-0.0435723 3.54678 0)
(3.25641 4.48877 0)
(2.14895 4.60176 0)
(3.72356 5.14991 0)
(4.65101 5.56407 0)
(3.18984 3.71436 0)
(5.70747 4.22713 0)
(4.04925 2.83011 0)
(6.01104 2.57654 0)
(5.27697 3.17171 0)
(7.17547 3.8628 0)
(7.05676 3.44645 0)
(8.39333 3.41365 0)
(8.50238 2.55564 0)
(10.3635 1.46211 0)
(9.60881 0.61271 0)
(10.2629 -0.761121 0)
(10.0429 -2.47428 0)
(10.2565 -3.24138 0)
(8.09157 -4.09484 0)
(7.90132 -4.13515 0)
(5.25515 -3.36259 0)
(5.4667 -1.91985 0)
(1.75229 -1.51783 0)
(3.41572 -0.209197 0)
(1.24586 -0.872042 0)
(4.49346 -1.52306 0)
(2.56981 -4.81124 0)
(4.78579 -5.25552 0)
(0.809622 -4.0504 0)
(5.94117 -0.262676 0)
(2.08264 -2.53063 0)
(5.82688 0.492862 0)
(2.53051 -2.43386 0)
(4.44438 0.222924 0)
(2.33188 -0.72838 0)
(5.57437 4.01909 0)
(5.71144 3.6753 0)
(5.51709 6.11602 0)
(8.81576 4.86307 0)
(4.34416 5.33595 0)
(10.1067 3.51735 0)
(5.08325 4.39164 0)
(10.2839 1.43377 0)
(6.12321 3.42873 0)
(9.55808 1.44825 0)
(6.93126 3.58413 0)
(9.83399 1.72563 0)
(8.00319 3.90745 0)
(9.68015 3.25906 0)
(9.55622 4.11276 0)
(10.6895 2.49711 0)
(10.98 2.25649 0)
(13.335 0.0538994 0)
(13.4758 0.186876 0)
(13.3748 -0.0763499 0)
(13.4032 0.100325 0)
(13.5894 -0.18579 0)
(13.4753 -0.313488 0)
(13.7391 -0.268105 0)
(13.8697 -0.75548 0)
(14.0078 -0.746956 0)
(14.0783 -1.14385 0)
(14.0651 -1.48397 0)
(14.2051 -1.73355 0)
(13.9628 -2.29236 0)
(13.7174 -2.27175 0)
(13.6258 -2.60293 0)
(13.3809 -2.63902 0)
(12.8423 -2.22549 0)
(12.5451 -2.01289 0)
(11.9695 -1.17331 0)
(11.1776 -0.331548 0)
(10.9177 0.315594 0)
(10.1348 1.36387 0)
(9.57069 1.89019 0)
(9.70609 1.85694 0)
(9.09101 2.03726 0)
(9.86143 1.55913 0)
(10.159 1.11718 0)
(10.1936 0.782247 0)
(10.97 -0.11273 0)
(10.8771 -0.767135 0)
(10.6062 -1.52342 0)
(10.9373 -2.75414 0)
(10.1966 -3.37216 0)
(8.5463 -3.54226 0)
(7.32311 -3.23 0)
(5.22798 -1.55344 0)
(3.07138 -0.631453 0)
(2.07186 -2.36831 0)
(0.623983 -5.24959 0)
(-1.14803 -7.96305 0)
(-1.19494 -7.45013 0)
(-0.590393 -5.60483 0)
(-1.09345 -3.68382 0)
(-1.48614 -2.02668 0)
(0.590942 -0.692531 0)
(-1.50643 1.27533 0)
(0.693412 1.83359 0)
(-1.11908 3.01369 0)
(2.68813 4.06674 0)
(1.658 4.55181 0)
(2.47636 4.55909 0)
(4.62492 5.45973 0)
(3.01485 3.76071 0)
(4.93763 3.83513 0)
(3.76491 2.65076 0)
(5.80433 2.41689 0)
(4.90348 2.9807 0)
(6.8479 3.49391 0)
(6.65859 3.21021 0)
(7.98659 3.12711 0)
(8.55242 2.14229 0)
(9.94991 1.34411 0)
(9.43858 0.579426 0)
(10.1363 -0.914093 0)
(10.0718 -2.43014 0)
(9.88079 -2.95404 0)
(8.0671 -3.51425 0)
(7.57837 -3.42891 0)
(5.06303 -2.76417 0)
(5.27884 -1.35993 0)
(1.93259 -1.00253 0)
(3.51155 -0.126691 0)
(1.09305 -0.976167 0)
(4.39327 -1.97232 0)
(1.55629 -4.43049 0)
(2.786 -4.70748 0)
(-1.55455 -3.97773 0)
(5.50488 -0.653173 0)
(1.39321 -2.71875 0)
(5.26668 0.520984 0)
(2.87623 -2.63683 0)
(4.22843 0.602466 0)
(1.64258 -1.08734 0)
(4.11849 4.15863 0)
(5.48827 3.2363 0)
(3.78692 5.84119 0)
(9.13362 4.5479 0)
(4.36255 5.39372 0)
(9.90737 3.11685 0)
(5.76694 4.50816 0)
(9.64348 1.32451 0)
(6.56907 3.53386 0)
(9.22416 1.47015 0)
(7.39016 3.34086 0)
(9.57921 1.73087 0)
(8.46695 3.5792 0)
(9.86802 3.13572 0)
(10.2272 3.71548 0)
(11.1797 2.3476 0)
(11.4751 2.03865 0)
(13.143 0.073796 0)
(13.3695 0.254158 0)
(13.3689 -0.100198 0)
(13.3202 0.11464 0)
(13.6851 -0.187031 0)
(13.5466 -0.42413 0)
(13.7182 -0.325787 0)
(13.9034 -0.80947 0)
(13.9298 -0.796548 0)
(13.9412 -1.13558 0)
(13.9363 -1.50271 0)
(13.9289 -1.66262 0)
(13.613 -2.16423 0)
(13.5986 -2.24276 0)
(13.5212 -2.53975 0)
(13.0668 -2.47806 0)
(12.6232 -2.05121 0)
(12.2532 -1.84355 0)
(11.4194 -0.892155 0)
(10.997 -0.105209 0)
(10.7685 0.506555 0)
(9.58607 1.64424 0)
(9.70169 1.96137 0)
(9.54713 1.97641 0)
(9.00458 2.02389 0)
(9.90956 1.39529 0)
(9.66533 1.07257 0)
(9.96913 0.574247 0)
(10.7034 -0.22557 0)
(10.3913 -0.707072 0)
(10.4152 -1.57841 0)
(10.7153 -2.64986 0)
(9.59343 -2.90899 0)
(7.81508 -2.92076 0)
(6.69905 -2.50548 0)
(4.73357 -0.723765 0)
(2.91477 -0.0160661 0)
(2.03557 -1.82466 0)
(0.602185 -4.69356 0)
(-1.43055 -7.5868 0)
(-2.63013 -7.76977 0)
(-1.33634 -5.7085 0)
(-1.81925 -3.81277 0)
(-1.43732 -2.33574 0)
(-1.0392 -0.611855 0)
(-2.42184 1.2501 0)
(0.481009 1.67102 0)
(-1.63114 2.61078 0)
(1.80939 3.48233 0)
(1.31406 4.48526 0)
(1.31816 3.94578 0)
(4.22886 5.28126 0)
(2.98648 3.80626 0)
(4.35521 3.61411 0)
(3.51126 2.46604 0)
(5.64712 2.25831 0)
(4.64829 2.77071 0)
(6.46708 3.16491 0)
(6.57171 2.96563 0)
(7.88641 2.7337 0)
(8.54872 1.80279 0)
(9.53354 1.20321 0)
(9.36704 0.461764 0)
(10.097 -1.01151 0)
(10.0568 -2.31029 0)
(9.49199 -2.59074 0)
(7.76635 -3.05202 0)
(7.08546 -2.9563 0)
(5.24475 -2.24346 0)
(4.88732 -0.844799 0)
(2.56221 -0.543599 0)
(3.27082 -0.0166986 0)
(1.81688 -1.05524 0)
(3.77735 -2.08803 0)
(0.658112 -3.97453 0)
(1.62151 -4.00593 0)
(-2.31306 -4.46355 0)
(5.53464 -1.53835 0)
(0.70248 -2.5028 0)
(4.83242 0.397136 0)
(2.22058 -2.72404 0)
(3.74166 1.13888 0)
(2.16929 -1.3206 0)
(3.0744 3.57572 0)
(5.54187 2.97831 0)
(2.32117 5.50515 0)
(8.51957 3.7609 0)
(4.4796 5.34895 0)
(8.88737 2.62944 0)
(6.21329 4.55183 0)
(8.96162 1.31212 0)
(6.68926 3.52555 0)
(8.70365 1.46896 0)
(7.73654 2.96989 0)
(9.33032 1.71768 0)
(8.90124 3.17288 0)
(9.90234 2.98219 0)
(10.6048 3.33761 0)
(11.524 2.14874 0)
(11.8911 1.85017 0)
(13.0203 0.0557358 0)
(13.2897 0.250677 0)
(13.3199 -0.0893639 0)
(13.324 0.0877269 0)
(13.7679 -0.207425 0)
(13.6306 -0.494009 0)
(13.8436 -0.370869 0)
(13.8577 -0.767157 0)
(13.8425 -0.839757 0)
(13.7952 -1.08477 0)
(13.5646 -1.3899 0)
(13.5889 -1.60014 0)
(13.3969 -2.10675 0)
(13.4072 -2.2289 0)
(12.9963 -2.40361 0)
(12.3682 -2.27408 0)
(11.9832 -1.85302 0)
(11.3422 -1.5539 0)
(10.577 -0.645066 0)
(10.506 0.0360095 0)
(9.95027 0.77427 0)
(9.1543 1.76279 0)
(9.67292 1.97866 0)
(9.11018 2.14406 0)
(9.23759 1.86489 0)
(9.73661 1.29755 0)
(9.28644 1.04395 0)
(10.0492 0.335031 0)
(10.3399 -0.251263 0)
(9.96658 -0.655526 0)
(10.3135 -1.64016 0)
(10.3588 -2.43747 0)
(8.80495 -2.34326 0)
(7.03084 -2.28394 0)
(6.07751 -1.85063 0)
(4.32717 -0.0350934 0)
(2.90638 0.486672 0)
(2.17373 -1.29976 0)
(0.84419 -4.00847 0)
(-1.52984 -6.72872 0)
(-3.54556 -7.74851 0)
(-2.61191 -5.87778 0)
(-2.94506 -3.83285 0)
(-2.48485 -2.18914 0)
(-2.84082 -0.438292 0)
(-2.8298 0.926317 0)
(-0.360017 1.39835 0)
(-1.95466 2.45019 0)
(0.465279 2.82517 0)
(1.05382 4.56866 0)
(0.161037 3.42691 0)
(3.6452 4.76825 0)
(2.67356 3.70714 0)
(4.0544 3.47629 0)
(3.50382 2.19442 0)
(5.25173 2.09989 0)
(4.38025 2.58056 0)
(6.25085 2.76326 0)
(6.65459 2.59638 0)
(7.81609 2.3286 0)
(8.45529 1.50762 0)
(9.24714 1.07745 0)
(9.38654 0.305847 0)
(10.0205 -1.19123 0)
(9.82738 -2.15603 0)
(9.17687 -2.12721 0)
(7.60974 -2.45804 0)
(6.50799 -2.4502 0)
(5.10953 -1.78378 0)
(4.39711 -0.434858 0)
(3.23532 -0.185919 0)
(3.34037 0.102842 0)
(3.00368 -0.971143 0)
(3.22864 -1.75787 0)
(0.942347 -3.60703 0)
(2.06811 -3.80123 0)
(-0.597554 -5.38822 0)
(4.40875 -2.44674 0)
(-0.626773 -2.16179 0)
(4.30925 0.0746111 0)
(0.906949 -2.47507 0)
(2.81571 0.945847 0)
(3.09188 -1.15133 0)
(0.759377 3.34708 0)
(6.16168 2.58007 0)
(1.76834 5.41852 0)
(7.47492 2.91201 0)
(4.23177 5.50483 0)
(7.59931 2.21982 0)
(6.34081 4.46191 0)
(8.20835 1.40982 0)
(6.62592 3.39658 0)
(8.36511 1.38716 0)
(8.00477 2.53103 0)
(9.13713 1.75409 0)
(8.96879 2.86555 0)
(9.94584 2.77507 0)
(10.9416 2.90827 0)
(11.7758 1.86207 0)
(12.1391 1.62431 0)