/*--------------------------------*- C++ -*----------------------------------*\
| =========                 |                                                 |
| \\      /  F ield         | OpenFOAM: The Open Source CFD Toolbox           |
|  \\    /   O peration     | Version:  2.4.0                                 |
|   \\  /    A nd           | Web:      www.OpenFOAM.org                      |
|    \\/     M anipulation  |                                                 |
\*---------------------------------------------------------------------------*/
FoamFile
{
    version     2.0;
    format      ascii;
    class       volScalarField;
    location    "0.003";
    object      k;
}
// * * * * * * * * * * * * * * * * * * * * * * * * * * * * * * * * * * * * * //

dimensions      [0 2 -2 0 0 0 0];

internalField   nonuniform List<scalar> 
17600
(
0.590243
0.786969
0.938805
1.04139
1.10113
1.12808
1.13212
1.12139
1.10194
1.07799
1.05245
1.02707
1.00314
0.981392
0.961768
0.943989
0.927409
0.911133
0.89417
0.869762
0.380325
0.378521
0.375849
0.373316
0.371132
0.369789
0.369847
0.371784
0.375952
0.382603
0.391881
0.403887
0.418567
0.435673
0.454849
0.475634
0.49752
0.520047
0.54293
0.56866
0.363747
0.349867
0.334428
0.318546
0.303041
0.288595
0.27574
0.264855
0.25618
0.249873
0.246037
0.244769
0.246129
0.250109
0.256676
0.265819
0.277612
0.292451
0.31173
0.342851
0.361465
0.347538
0.33315
0.31851
0.30394
0.289763
0.276266
0.263679
0.252176
0.24189
0.232931
0.225397
0.219362
0.214863
0.211935
0.210656
0.211208
0.214072
0.220582
0.236108
0.361236
0.3478
0.334533
0.321375
0.308387
0.295686
0.283398
0.271638
0.260507
0.25009
0.240462
0.231691
0.223823
0.216887
0.210913
0.20596
0.202133
0.199678
0.199255
0.203759
0.361254
0.348125
0.335507
0.323267
0.311355
0.299775
0.288562
0.27776
0.267419
0.257589
0.24832
0.239661
0.231642
0.224294
0.217651
0.211758
0.206664
0.202471
0.199447
0.199071
0.361278
0.348296
0.336006
0.324273
0.313009
0.302162
0.291711
0.281657
0.272011
0.262798
0.254049
0.245796
0.238067
0.230893
0.224309
0.218346
0.213024
0.208382
0.204528
0.202256
0.361288
0.348367
0.336227
0.324752
0.313848
0.303443
0.293488
0.283955
0.274832
0.266123
0.257844
0.250015
0.242663
0.235817
0.229505
0.223748
0.218552
0.213932
0.209929
0.206995
0.361291
0.348392
0.336315
0.32496
0.314241
0.304082
0.294426
0.285228
0.276465
0.268126
0.260215
0.252747
0.245742
0.239226
0.233221
0.22774
0.222785
0.218358
0.214473
0.211397
0.361291
0.348398
0.336346
0.325043
0.314412
0.304381
0.29489
0.285893
0.277359
0.269269
0.261622
0.254427
0.247701
0.241464
0.235734
0.230519
0.22582
0.221631
0.217951
0.214947
0.36129
0.348399
0.336354
0.325072
0.31448
0.30451
0.295106
0.286221
0.277821
0.269888
0.262416
0.255411
0.248887
0.242863
0.237351
0.232361
0.227889
0.223923
0.220458
0.2176
0.361289
0.348397
0.336354
0.32508
0.314504
0.304561
0.295199
0.286371
0.278047
0.270205
0.262841
0.255958
0.249571
0.243695
0.238345
0.233526
0.229235
0.225455
0.222177
0.219472
0.361288
0.348395
0.336352
0.32508
0.314509
0.304578
0.295235
0.286436
0.27815
0.270358
0.263056
0.256247
0.249945
0.244166
0.238925
0.234228
0.23007
0.226432
0.223302
0.220727
0.361288
0.348394
0.33635
0.325077
0.314508
0.304582
0.295246
0.28646
0.278192
0.270427
0.263157
0.256389
0.250137
0.244418
0.239247
0.234631
0.230565
0.227027
0.224005
0.221526
0.361287
0.348392
0.336347
0.325074
0.314505
0.30458
0.295247
0.286466
0.278207
0.270454
0.263201
0.256454
0.250229
0.244544
0.239414
0.234848
0.230841
0.227371
0.224421
0.222007
0.361287
0.348391
0.336345
0.325072
0.314502
0.304577
0.295245
0.286466
0.278211
0.270463
0.263217
0.25648
0.250268
0.244601
0.239494
0.234957
0.230986
0.227558
0.224654
0.222277
0.361286
0.34839
0.336344
0.325069
0.314499
0.304574
0.295242
0.286463
0.278209
0.270463
0.26322
0.256488
0.250282
0.244622
0.239527
0.235006
0.231056
0.227653
0.224774
0.222415
0.361286
0.348389
0.336342
0.325068
0.314497
0.304571
0.295239
0.286461
0.278207
0.270461
0.263219
0.256487
0.250283
0.244627
0.239537
0.235024
0.231084
0.227695
0.224829
0.222474
0.361286
0.348389
0.336342
0.325067
0.314496
0.304569
0.295237
0.286458
0.278204
0.270459
0.263216
0.256485
0.250281
0.244626
0.239538
0.235028
0.231093
0.227711
0.224849
0.222488
0.361286
0.348389
0.336341
0.325066
0.314495
0.304569
0.295236
0.286457
0.278203
0.270457
0.263215
0.256483
0.250279
0.244624
0.239536
0.235027
0.231094
0.227714
0.22485
0.222478
0.361286
0.348389
0.336341
0.325066
0.314495
0.304569
0.295236
0.286457
0.278203
0.270457
0.263215
0.256483
0.250279
0.244624
0.239535
0.235026
0.231093
0.227711
0.224841
0.222454
0.361286
0.348389
0.336342
0.325067
0.314496
0.30457
0.295237
0.286459
0.278205
0.270459
0.263217
0.256485
0.250282
0.244626
0.239537
0.235026
0.23109
0.227703
0.224824
0.222419
0.361286
0.348389
0.336343
0.325068
0.314497
0.304571
0.295239
0.286461
0.278207
0.270461
0.263219
0.256488
0.250284
0.244628
0.239537
0.235023
0.231081
0.227685
0.224792
0.222366
0.361286
0.34839
0.336344
0.32507
0.3145
0.304574
0.295242
0.286464
0.27821
0.270464
0.263221
0.256489
0.250283
0.244624
0.239529
0.235008
0.231055
0.227646
0.224732
0.222278
0.361287
0.348391
0.336346
0.325072
0.314502
0.304577
0.295245
0.286466
0.278211
0.270463
0.263218
0.256482
0.250271
0.244605
0.239499
0.234964
0.230993
0.227559
0.224616
0.222126
0.361287
0.348392
0.336348
0.325075
0.314506
0.30458
0.295248
0.286467
0.278208
0.270455
0.263202
0.256457
0.250233
0.244549
0.239423
0.234861
0.230857
0.227385
0.224397
0.221859
0.361288
0.348394
0.33635
0.325078
0.314509
0.304582
0.295246
0.28646
0.278193
0.270428
0.263159
0.256392
0.250141
0.244425
0.239259
0.23465
0.230592
0.227059
0.224006
0.221403
0.361288
0.348396
0.336353
0.325081
0.31451
0.304579
0.295235
0.286436
0.27815
0.27036
0.263057
0.256249
0.249949
0.244174
0.238939
0.234253
0.23011
0.226487
0.223341
0.220647
0.361289
0.348397
0.336355
0.325081
0.314504
0.304562
0.295199
0.286372
0.278047
0.270206
0.262842
0.25596
0.249575
0.243703
0.23836
0.233555
0.229287
0.225534
0.222261
0.219449
0.36129
0.348399
0.336355
0.325073
0.314481
0.304511
0.295107
0.286221
0.277822
0.269889
0.262417
0.255412
0.24889
0.242869
0.237367
0.232394
0.227951
0.224027
0.22059
0.217631
0.361291
0.348399
0.336346
0.325044
0.314413
0.304382
0.294891
0.285894
0.277359
0.26927
0.261622
0.254427
0.247702
0.241469
0.235748
0.230553
0.22589
0.221754
0.218124
0.215002
0.361291
0.348392
0.336315
0.324961
0.314242
0.304083
0.294426
0.285229
0.276466
0.268126
0.260214
0.252745
0.245741
0.239228
0.233233
0.227773
0.222858
0.218491
0.214662
0.211389
0.361288
0.348367
0.336228
0.324753
0.313849
0.303444
0.293489
0.283956
0.274833
0.266123
0.257843
0.250013
0.24266
0.235816
0.229513
0.223775
0.218618
0.21405
0.210073
0.206723
0.361278
0.348296
0.336007
0.324274
0.31301
0.302163
0.291712
0.281658
0.272013
0.262799
0.254049
0.245795
0.238064
0.23089
0.224312
0.218362
0.213065
0.208435
0.204485
0.201277
0.361254
0.348126
0.335508
0.323268
0.311356
0.299776
0.288562
0.27776
0.26742
0.25759
0.248322
0.239662
0.231641
0.224289
0.217643
0.211746
0.206635
0.202342
0.198895
0.196393
0.361236
0.347801
0.334534
0.321376
0.308388
0.295686
0.283397
0.271637
0.260506
0.250089
0.240462
0.231693
0.223822
0.216876
0.21088
0.205876
0.201924
0.199099
0.197466
0.19719
0.361465
0.347539
0.333151
0.31851
0.303938
0.289758
0.276258
0.263668
0.252163
0.241875
0.232916
0.225385
0.21934
0.21482
0.211831
0.210401
0.210606
0.212566
0.216383
0.222279
0.363749
0.349869
0.334428
0.31854
0.303031
0.288576
0.275711
0.264814
0.256133
0.249818
0.245973
0.244716
0.246045
0.249986
0.25644
0.26532
0.276581
0.290143
0.305834
0.323653
0.380318
0.378504
0.375822
0.37327
0.371092
0.369738
0.369784
0.371708
0.375878
0.382529
0.391811
0.403844
0.418495
0.435597
0.454741
0.475507
0.49742
0.519987
0.54255
0.564872
0.590248
0.786997
0.938869
1.04149
1.10127
1.12825
1.13231
1.1216
1.10216
1.07823
1.05268
1.02731
1.00342
0.981813
0.962553
0.9455
0.930279
0.916589
0.904625
0.893069
1.07976
1.42766
1.78634
2.04212
2.16951
2.21095
2.20277
2.16239
2.09692
1.97319
1.75245
1.46076
1.15654
0.896949
0.713911
0.6118
0.576217
0.583989
0.611707
0.641822
0.664588
0.676538
0.677875
0.670373
0.656164
0.637197
0.615069
0.591025
0.566015
0.540753
0.515775
0.491478
0.468149
0.44599
0.425135
0.405658
0.387591
0.37093
0.355642
0.341675
0.32896
0.317421
0.306976
0.297539
0.289026
0.281355
0.274448
0.268231
0.262636
0.257599
0.253063
0.248976
0.24529
0.241962
0.238954
0.236232
0.233767
0.23153
0.229497
0.227649
0.225965
0.224429
0.223028
0.221747
0.220575
0.219502
0.218519
0.217619
0.216793
0.216036
0.215342
0.214706
0.214122
0.213587
0.213096
0.212647
0.212236
0.211859
0.211515
0.2112
0.210912
0.210649
0.210409
0.21019
0.20999
0.209808
0.209643
0.209492
0.209355
0.20923
0.209117
0.209014
0.20892
0.208835
0.208758
0.208688
0.208624
0.208566
0.208513
0.208465
0.208421
0.208381
0.208345
0.208312
0.208281
0.208254
0.208229
0.208206
0.208185
0.208166
0.208148
0.208133
0.208118
0.208105
0.208093
0.208082
0.208071
0.208062
0.208053
0.208045
0.208037
0.20803
0.208023
0.208016
0.20801
0.208004
0.207998
0.207994
0.207991
0.207991
0.207992
0.207994
0.207998
0.208003
0.208009
0.208016
0.208024
0.208033
0.208044
0.208055
0.208068
0.208082
0.208098
0.208116
0.208135
0.208157
0.208181
0.208208
0.208238
0.208271
0.208308
0.20835
0.208397
0.208449
0.208508
0.208574
0.208648
0.208732
0.208827
0.208934
0.209056
0.209195
0.209353
0.209533
0.20974
0.209977
0.21025
0.210565
0.210929
0.211351
0.211842
0.212414
0.213082
0.213866
0.214787
0.215875
0.217163
0.218695
0.220525
0.222719
0.225363
0.228568
0.232477
0.237277
0.243219
0.250645
0.26003
0.272054
0.287712
0.30851
0.336803
0.376402
0.433692
0.519579
0.653219
0.865078
1.20478
1.68388
2.39919
1.27838
0.606299
0.718856
0.933145
1.2336
1.54127
1.77486
1.90365
1.93873
1.89007
1.71727
1.45391
1.15942
0.893987
0.695378
0.574306
0.521861
0.518849
0.543475
0.577295
0.608312
0.63075
0.643103
0.646116
0.641397
0.630683
0.615524
0.597207
0.576763
0.555012
0.532606
0.51006
0.487783
0.466092
0.44523
0.425371
0.406637
0.389101
0.372797
0.357728
0.34387
0.331183
0.31961
0.309085
0.29954
0.290899
0.28309
0.276042
0.269685
0.263955
0.258791
0.254136
0.249939
0.246152
0.242734
0.239646
0.236853
0.234323
0.23203
0.229948
0.228056
0.226334
0.224765
0.223334
0.222027
0.220833
0.21974
0.21874
0.217823
0.216983
0.216213
0.215507
0.21486
0.214266
0.213722
0.213223
0.212766
0.212346
0.211963
0.211611
0.21129
0.210995
0.210727
0.210481
0.210257
0.210052
0.209865
0.209695
0.20954
0.209399
0.209271
0.209154
0.209048
0.208951
0.208863
0.208783
0.20871
0.208644
0.208584
0.208529
0.208479
0.208433
0.208392
0.208354
0.20832
0.208288
0.208259
0.208233
0.208209
0.208187
0.208167
0.208149
0.208133
0.208117
0.208103
0.208091
0.208079
0.208068
0.208058
0.208049
0.20804
0.208032
0.208024
0.208017
0.20801
0.208003
0.207997
0.207991
0.207986
0.207984
0.207983
0.207984
0.207986
0.20799
0.207995
0.208001
0.208009
0.208017
0.208027
0.208038
0.20805
0.208063
0.208078
0.208094
0.208113
0.208133
0.208156
0.208181
0.208209
0.208241
0.208276
0.208315
0.208359
0.208408
0.208463
0.208524
0.208593
0.208671
0.208759
0.208858
0.20897
0.209098
0.209242
0.209406
0.209594
0.209808
0.210053
0.210335
0.21066
0.211035
0.211468
0.21197
0.212554
0.213236
0.214032
0.214967
0.216068
0.217369
0.218913
0.220753
0.222955
0.225606
0.228814
0.232723
0.237518
0.24345
0.25086
0.260222
0.272212
0.28782
0.308544
0.336729
0.37618
0.433313
0.519242
0.653878
0.870628
1.22509
1.75046
2.49763
1.50166
0.362195
0.40357
0.484261
0.625358
0.825272
1.04412
1.22442
1.32265
1.30132
1.16414
0.967909
0.768837
0.60835
0.504566
0.456692
0.452735
0.476203
0.511481
0.547185
0.576854
0.597904
0.610123
0.61445
0.612209
0.604721
0.593155
0.578495
0.561563
0.543044
0.523516
0.503463
0.483293
0.463342
0.443881
0.425125
0.407234
0.39032
0.374454
0.359673
0.345984
0.333371
0.3218
0.311226
0.301592
0.292838
0.2849
0.277715
0.271219
0.265351
0.260055
0.255275
0.250962
0.247068
0.243552
0.240375
0.237502
0.234901
0.232544
0.230406
0.228464
0.226698
0.22509
0.223624
0.222286
0.221065
0.219948
0.218926
0.21799
0.217133
0.216348
0.215627
0.214967
0.214361
0.213806
0.213297
0.21283
0.212402
0.21201
0.21165
0.211321
0.21102
0.210744
0.210492
0.210262
0.210051
0.209859
0.209684
0.209524
0.209379
0.209246
0.209125
0.209015
0.208915
0.208824
0.208741
0.208665
0.208596
0.208533
0.208476
0.208424
0.208377
0.208333
0.208294
0.208257
0.208224
0.208194
0.208167
0.208142
0.208119
0.208098
0.208078
0.208061
0.208045
0.20803
0.208016
0.208004
0.207993
0.207982
0.207972
0.207963
0.207954
0.207946
0.207939
0.207931
0.207924
0.207917
0.207911
0.207906
0.207903
0.207902
0.207902
0.207905
0.207908
0.207913
0.207919
0.207927
0.207935
0.207945
0.207956
0.207968
0.207982
0.207997
0.208014
0.208033
0.208053
0.208077
0.208102
0.208131
0.208164
0.208199
0.20824
0.208285
0.208335
0.208391
0.208455
0.208526
0.208606
0.208696
0.208798
0.208913
0.209044
0.209192
0.209361
0.209553
0.209773
0.210025
0.210313
0.210645
0.211027
0.211469
0.211981
0.212575
0.213266
0.214074
0.21502
0.216131
0.217443
0.218997
0.220845
0.223054
0.225707
0.228915
0.232817
0.237599
0.24351
0.250889
0.260205
0.272129
0.287641
0.308223
0.336193
0.37532
0.431977
0.517331
0.651615
0.870208
1.23101
1.78445
2.50619
1.71969
0.246658
0.265262
0.296207
0.348522
0.429409
0.531576
0.628191
0.68206
0.664971
0.60495
0.524222
0.449209
0.39822
0.377949
0.385549
0.412554
0.449049
0.486767
0.520324
0.547027
0.566109
0.577915
0.583294
0.583228
0.578647
0.570376
0.55913
0.545534
0.530141
0.513448
0.495896
0.477879
0.45974
0.441772
0.424216
0.407267
0.391069
0.37573
0.361317
0.347866
0.335388
0.32387
0.313287
0.303599
0.294758
0.286712
0.279405
0.272781
0.266784
0.26136
0.256458
0.252029
0.248028
0.244413
0.241146
0.23819
0.235516
0.233092
0.230895
0.2289
0.227087
0.225438
0.223935
0.222565
0.221315
0.220172
0.219128
0.218172
0.217296
0.216494
0.21576
0.215086
0.214468
0.213901
0.213382
0.212905
0.212468
0.212068
0.2117
0.211364
0.211056
0.210773
0.210515
0.210279
0.210063
0.209866
0.209686
0.209521
0.209371
0.209235
0.20911
0.208996
0.208893
0.208798
0.208712
0.208634
0.208562
0.208497
0.208438
0.208383
0.208334
0.208289
0.208247
0.20821
0.208175
0.208143
0.208115
0.208088
0.208064
0.208042
0.208022
0.208003
0.207987
0.207971
0.207957
0.207944
0.207931
0.20792
0.20791
0.2079
0.207891
0.207882
0.207874
0.207866
0.207859
0.207852
0.207845
0.20784
0.207836
0.207835
0.207835
0.207837
0.207841
0.207845
0.207852
0.207859
0.207867
0.207877
0.207888
0.2079
0.207914
0.207929
0.207946
0.207965
0.207986
0.20801
0.208036
0.208066
0.208098
0.208135
0.208176
0.208222
0.208273
0.20833
0.208395
0.208468
0.208549
0.208642
0.208746
0.208863
0.208997
0.209148
0.20932
0.209517
0.209741
0.209998
0.210292
0.21063
0.21102
0.211469
0.211989
0.212592
0.213294
0.214112
0.215069
0.216193
0.217516
0.219081
0.220939
0.223156
0.225815
0.229022
0.232918
0.237686
0.243571
0.250909
0.260164
0.271997
0.287376
0.307757
0.335417
0.374052
0.429923
0.514069
0.646584
0.863696
1.22287
1.78595
2.47319
1.90737
0.208462
0.216457
0.228495
0.246838
0.273824
0.307563
0.338067
0.350024
0.341866
0.326593
0.311308
0.303866
0.309379
0.328671
0.358771
0.394757
0.431712
0.465895
0.49505
0.518203
0.535267
0.546647
0.552952
0.554822
0.552853
0.547579
0.539483
0.529015
0.516604
0.502661
0.487578
0.471726
0.455443
0.439031
0.422753
0.406826
0.391428
0.376693
0.362719
0.349569
0.33728
0.325862
0.315308
0.305595
0.296691
0.288553
0.281137
0.274393
0.268271
0.262722
0.257698
0.253153
0.249042
0.245325
0.241963
0.238923
0.23617
0.233677
0.231417
0.229367
0.227504
0.22581
0.224269
0.222864
0.221582
0.220413
0.219344
0.218366
0.217471
0.216652
0.215902
0.215214
0.214584
0.214006
0.213476
0.212989
0.212543
0.212135
0.21176
0.211416
0.211101
0.210813
0.210549
0.210307
0.210086
0.209884
0.209699
0.20953
0.209376
0.209236
0.209107
0.20899
0.208884
0.208786
0.208698
0.208617
0.208543
0.208475
0.208414
0.208358
0.208306
0.208259
0.208216
0.208177
0.208141
0.208109
0.208079
0.208051
0.208026
0.208003
0.207982
0.207963
0.207945
0.207929
0.207914
0.2079
0.207887
0.207875
0.207864
0.207854
0.207844
0.207835
0.207827
0.207819
0.207811
0.207803
0.207796
0.207791
0.207787
0.207785
0.207785
0.207787
0.20779
0.207795
0.207801
0.207808
0.207816
0.207826
0.207837
0.207849
0.207863
0.207878
0.207896
0.207915
0.207936
0.20796
0.207986
0.208016
0.208049
0.208086
0.208127
0.208173
0.208225
0.208284
0.208349
0.208423
0.208506
0.208599
0.208705
0.208824
0.20896
0.209114
0.209289
0.209489
0.209717
0.209977
0.210277
0.21062
0.211016
0.211472
0.212
0.212612
0.213323
0.214151
0.21512
0.216255
0.217591
0.219168
0.221038
0.223265
0.225931
0.229141
0.233033
0.237786
0.243643
0.250932
0.260113
0.271834
0.287042
0.307164
0.334416
0.372394
0.427173
0.509497
0.638905
0.851375
1.20236
1.75857
2.41469
2.05678
0.201066
0.204581
0.209594
0.216488
0.225528
0.235786
0.244157
0.247084
0.24792
0.250494
0.257474
0.271125
0.292303
0.320039
0.351958
0.385157
0.417037
0.445746
0.470247
0.490156
0.505516
0.516599
0.523757
0.527345
0.527689
0.525094
0.519853
0.512268
0.502653
0.491336
0.478655
0.464946
0.450533
0.435719
0.420776
0.405942
0.391415
0.377355
0.363887
0.3511
0.339054
0.327781
0.317294
0.307588
0.298643
0.290432
0.282919
0.276064
0.269822
0.26415
0.259004
0.25434
0.250116
0.246294
0.242834
0.239703
0.236869
0.234302
0.231975
0.229865
0.227949
0.226208
0.224624
0.223182
0.221867
0.220668
0.219573
0.218572
0.217657
0.216819
0.216053
0.21535
0.214706
0.214116
0.213575
0.213079
0.212624
0.212207
0.211824
0.211474
0.211152
0.210858
0.210588
0.210341
0.210115
0.209909
0.20972
0.209547
0.209389
0.209245
0.209114
0.208994
0.208884
0.208785
0.208693
0.20861
0.208534
0.208465
0.208401
0.208343
0.20829
0.208242
0.208198
0.208157
0.20812
0.208086
0.208055
0.208027
0.208001
0.207977
0.207955
0.207935
0.207917
0.2079
0.207884
0.20787
0.207857
0.207844
0.207833
0.207822
0.207812
0.207803
0.207794
0.207785
0.207777
0.207769
0.207762
0.207756
0.207752
0.20775
0.20775
0.207751
0.207754
0.207759
0.207765
0.207772
0.20778
0.20779
0.207801
0.207813
0.207827
0.207842
0.207859
0.207878
0.2079
0.207924
0.20795
0.20798
0.208013
0.20805
0.208092
0.208138
0.20819
0.208249
0.208315
0.20839
0.208473
0.208568
0.208674
0.208795
0.208932
0.209088
0.209265
0.209467
0.209698
0.209962
0.210265
0.210613
0.211014
0.211477
0.212011
0.212631
0.21335
0.214189
0.215168
0.216316
0.217664
0.219255
0.221138
0.223378
0.226054
0.229269
0.233159
0.237899
0.243727
0.250966
0.260062
0.271651
0.286657
0.306464
0.333218
0.370384
0.423789
0.503734
0.628862
0.833919
1.17146
1.70746
2.3353
2.16131
0.203157
0.204936
0.207476
0.21084
0.214956
0.219464
0.223724
0.22766
0.233222
0.241708
0.254321
0.271796
0.293991
0.319805
0.347497
0.375217
0.401434
0.425125
0.445744
0.463091
0.477176
0.488112
0.496046
0.50112
0.503464
0.503209
0.500504
0.495523
0.488482
0.479631
0.469247
0.457627
0.445072
0.431875
0.418309
0.404622
0.391029
0.377711
0.364814
0.35245
0.3407
0.329619
0.319239
0.309571
0.300613
0.292348
0.284753
0.277795
0.271439
0.265647
0.260379
0.255595
0.251256
0.247323
0.243761
0.240536
0.237615
0.234969
0.232572
0.230397
0.228424
0.226632
0.225003
0.22352
0.22217
0.220939
0.219816
0.21879
0.217853
0.216996
0.216211
0.215493
0.214835
0.214233
0.21368
0.213174
0.212709
0.212283
0.211893
0.211535
0.211207
0.210907
0.210632
0.21038
0.210149
0.209938
0.209745
0.209569
0.209408
0.20926
0.209126
0.209003
0.208891
0.208789
0.208696
0.20861
0.208532
0.208461
0.208396
0.208337
0.208283
0.208233
0.208188
0.208146
0.208108
0.208073
0.208041
0.208012
0.207985
0.207961
0.207938
0.207917
0.207899
0.207881
0.207865
0.20785
0.207837
0.207824
0.207812
0.207801
0.207791
0.207781
0.207772
0.207763
0.207754
0.207746
0.207739
0.207733
0.207728
0.207726
0.207725
0.207727
0.20773
0.207734
0.20774
0.207747
0.207755
0.207765
0.207776
0.207788
0.207801
0.207817
0.207834
0.207853
0.207874
0.207898
0.207924
0.207954
0.207987
0.208024
0.208066
0.208113
0.208165
0.208224
0.20829
0.208365
0.208449
0.208544
0.208651
0.208773
0.208911
0.209068
0.209246
0.20945
0.209683
0.20995
0.210255
0.210607
0.211012
0.211479
0.212019
0.212645
0.213372
0.214219
0.215209
0.216368
0.217729
0.219334
0.221232
0.223485
0.226173
0.229398
0.23329
0.238021
0.243823
0.25101
0.260018
0.271462
0.286238
0.305683
0.331859
0.368073
0.419857
0.496941
0.616816
0.812199
1.1322
1.63837
2.23774
2.21705
0.20747
0.208563
0.21021
0.212499
0.215427
0.218943
0.223096
0.228375
0.235627
0.245561
0.25877
0.27547
0.295293
0.317304
0.340267
0.362982
0.384524
0.404301
0.421991
0.437449
0.450625
0.461512
0.470112
0.476422
0.48044
0.482176
0.481667
0.478991
0.474276
0.467698
0.459476
0.449863
0.439127
0.427542
0.415376
0.402879
0.390273
0.377756
0.365489
0.353605
0.342206
0.331365
0.321133
0.311539
0.302595
0.294299
0.286637
0.279588
0.273125
0.267217
0.261828
0.256922
0.252465
0.248419
0.24475
0.241425
0.238413
0.235683
0.23321
0.230967
0.228933
0.227086
0.225408
0.223882
0.222493
0.221228
0.220075
0.219022
0.218061
0.217182
0.216379
0.215644
0.214971
0.214355
0.21379
0.213273
0.212799
0.212364
0.211965
0.2116
0.211265
0.210959
0.210678
0.210421
0.210186
0.20997
0.209773
0.209593
0.209429
0.209279
0.209142
0.209016
0.208902
0.208797
0.208702
0.208615
0.208535
0.208463
0.208396
0.208336
0.20828
0.208229
0.208183
0.20814
0.208101
0.208066
0.208033
0.208003
0.207976
0.207951
0.207928
0.207906
0.207887
0.207869
0.207853
0.207838
0.207823
0.20781
0.207798
0.207787
0.207776
0.207766
0.207757
0.207748
0.207739
0.207731
0.207723
0.207717
0.207712
0.207709
0.207709
0.20771
0.207713
0.207717
0.207723
0.20773
0.207738
0.207747
0.207758
0.20777
0.207784
0.207799
0.207816
0.207835
0.207856
0.20788
0.207906
0.207936
0.207969
0.208006
0.208047
0.208094
0.208146
0.208205
0.208271
0.208346
0.20843
0.208525
0.208633
0.208754
0.208893
0.20905
0.20923
0.209434
0.209668
0.209936
0.210244
0.210598
0.211005
0.211475
0.212019
0.21265
0.213384
0.214238
0.215236
0.216405
0.217778
0.219396
0.221308
0.223576
0.226279
0.229515
0.233413
0.23814
0.243921
0.25106
0.259978
0.271271
0.2858
0.304847
0.330376
0.365522
0.415476
0.48931
0.603178
0.787189
1.08662
1.55677
2.12498
2.22495
0.211715
0.212522
0.213805
0.2157
0.218286
0.221641
0.225951
0.231646
0.239173
0.248942
0.261236
0.276057
0.293023
0.311417
0.330386
0.349158
0.367165
0.384047
0.399594
0.413674
0.426187
0.437047
0.446165
0.453451
0.458818
0.462195
0.46354
0.462856
0.4602
0.455682
0.449464
0.441748
0.432767
0.422771
0.41201
0.400728
0.389153
0.377487
0.365907
0.354559
0.343564
0.333012
0.322971
0.313486
0.304586
0.296281
0.288572
0.281445
0.274884
0.268864
0.263356
0.258328
0.25375
0.249587
0.245807
0.242377
0.239268
0.236449
0.233894
0.231578
0.229478
0.227572
0.225841
0.224269
0.222839
0.221537
0.220351
0.219269
0.218282
0.217381
0.216557
0.215804
0.215115
0.214484
0.213907
0.213378
0.212893
0.212449
0.212042
0.211669
0.211327
0.211014
0.210727
0.210465
0.210225
0.210005
0.209804
0.209621
0.209453
0.2093
0.20916
0.209032
0.208915
0.208809
0.208712
0.208623
0.208542
0.208467
0.2084
0.208338
0.208281
0.208229
0.208182
0.208139
0.208099
0.208062
0.208029
0.207999
0.207971
0.207945
0.207922
0.2079
0.20788
0.207862
0.207845
0.20783
0.207815
0.207802
0.207789
0.207778
0.207767
0.207757
0.207747
0.207738
0.207729
0.207721
0.207713
0.207706
0.207701
0.207699
0.207698
0.207699
0.207702
0.207706
0.207711
0.207718
0.207726
0.207736
0.207746
0.207758
0.207772
0.207787
0.207804
0.207823
0.207844
0.207867
0.207893
0.207923
0.207955
0.207992
0.208033
0.20808
0.208132
0.20819
0.208256
0.208331
0.208414
0.208509
0.208617
0.208738
0.208877
0.209034
0.209214
0.209418
0.209653
0.209921
0.21023
0.210584
0.210993
0.211465
0.212012
0.212646
0.213383
0.214242
0.215247
0.216424
0.217806
0.219435
0.22136
0.223642
0.226359
0.229608
0.233514
0.238241
0.244005
0.251102
0.259934
0.271075
0.285347
0.303971
0.328805
0.362791
0.410755
0.481045
0.588371
0.759881
1.03671
1.46744
2.0005
2.1897
0.215222
0.2159
0.216998
0.218674
0.221039
0.224211
0.228386
0.23389
0.240994
0.249933
0.260828
0.273604
0.287939
0.303313
0.319148
0.334938
0.350325
0.365077
0.379037
0.392073
0.404055
0.41485
0.424319
0.432322
0.438725
0.443406
0.446272
0.447272
0.446402
0.443718
0.439325
0.433378
0.42607
0.417617
0.408248
0.398196
0.387682
0.37691
0.366066
0.355307
0.344766
0.334551
0.324745
0.315409
0.306584
0.298298
0.29056
0.283371
0.276721
0.270595
0.26497
0.259821
0.25512
0.250836
0.246939
0.243399
0.240187
0.237273
0.234631
0.232237
0.230065
0.228095
0.226308
0.224684
0.223209
0.221867
0.220646
0.219533
0.218518
0.217592
0.216747
0.215975
0.215268
0.214622
0.214031
0.213489
0.212993
0.212539
0.212123
0.211742
0.211392
0.211073
0.21078
0.210512
0.210267
0.210043
0.209838
0.209651
0.209479
0.209323
0.20918
0.20905
0.208931
0.208822
0.208723
0.208633
0.20855
0.208474
0.208405
0.208342
0.208285
0.208232
0.208184
0.208139
0.208099
0.208062
0.208028
0.207997
0.207968
0.207942
0.207918
0.207896
0.207876
0.207858
0.207841
0.207825
0.20781
0.207797
0.207784
0.207772
0.207761
0.207751
0.207741
0.207731
0.207723
0.207714
0.207706
0.207699
0.207694
0.207691
0.20769
0.207691
0.207694
0.207698
0.207703
0.20771
0.207718
0.207728
0.207738
0.20775
0.207763
0.207778
0.207795
0.207814
0.207834
0.207858
0.207884
0.207913
0.207945
0.207982
0.208023
0.208069
0.20812
0.208179
0.208244
0.208318
0.208401
0.208496
0.208603
0.208724
0.208862
0.209019
0.209198
0.209402
0.209636
0.209905
0.210213
0.210568
0.210976
0.211449
0.211996
0.212631
0.21337
0.214233
0.215241
0.216422
0.217811
0.219448
0.221382
0.223675
0.226404
0.229664
0.233578
0.238306
0.244058
0.251116
0.259868
0.27086
0.284874
0.303062
0.32717
0.359934
0.405798
0.472352
0.572812
0.731214
0.98435
1.37433
1.86822
2.11815
0.217875
0.218487
0.219466
0.220963
0.223092
0.225972
0.229786
0.234777
0.241131
0.248988
0.258397
0.269273
0.281372
0.294329
0.307747
0.321288
0.334712
0.347856
0.360589
0.372778
0.38428
0.394936
0.404586
0.413065
0.420216
0.425892
0.429968
0.432354
0.433004
0.431922
0.429168
0.424848
0.419111
0.41214
0.404136
0.395312
0.385878
0.376035
0.36597
0.355848
0.345812
0.335982
0.326455
0.317306
0.308592
0.300351
0.292607
0.285372
0.278645
0.272421
0.266683
0.261412
0.256586
0.252177
0.248158
0.244502
0.24118
0.238165
0.235429
0.232949
0.2307
0.228661
0.226811
0.225133
0.223608
0.222223
0.220963
0.219816
0.218771
0.217819
0.21695
0.216156
0.215431
0.214768
0.214162
0.213608
0.2131
0.212635
0.212209
0.211819
0.211462
0.211136
0.210836
0.210563
0.210312
0.210083
0.209874
0.209683
0.209508
0.209349
0.209203
0.20907
0.208949
0.208838
0.208737
0.208645
0.20856
0.208484
0.208413
0.208349
0.20829
0.208236
0.208187
0.208142
0.208101
0.208063
0.208029
0.207997
0.207968
0.207942
0.207917
0.207895
0.207875
0.207856
0.207838
0.207822
0.207807
0.207793
0.207781
0.207769
0.207757
0.207747
0.207737
0.207727
0.207718
0.20771
0.207702
0.207695
0.20769
0.207686
0.207685
0.207686
0.207689
0.207693
0.207698
0.207705
0.207713
0.207722
0.207732
0.207744
0.207757
0.207772
0.207789
0.207807
0.207828
0.207851
0.207877
0.207905
0.207938
0.207974
0.208014
0.20806
0.208111
0.208169
0.208234
0.208307
0.20839
0.208484
0.20859
0.208711
0.208848
0.209005
0.209183
0.209387
0.20962
0.209887
0.210195
0.210548
0.210956
0.211428
0.211975
0.21261
0.213349
0.214211
0.21522
0.216403
0.217795
0.219436
0.221375
0.223675
0.226411
0.229678
0.233597
0.238324
0.244062
0.251084
0.25976
0.270608
0.284366
0.302116
0.325483
0.356993
0.400697
0.46342
0.556885
0.70203
0.931208
1.28064
1.73219
2.0182
0.21976
0.22033
0.221215
0.222547
0.224426
0.226958
0.23031
0.234668
0.240171
0.246917
0.254935
0.264158
0.274415
0.285453
0.296996
0.308807
0.320714
0.332589
0.344317
0.355768
0.366791
0.377224
0.386896
0.395639
0.403286
0.409683
0.414687
0.418185
0.4201
0.420396
0.41909
0.416246
0.411969
0.406405
0.399724
0.392114
0.383768
0.37488
0.365631
0.35619
0.346705
0.337307
0.328103
0.319182
0.310614
0.302448
0.294723
0.28746
0.28067
0.274356
0.268509
0.263118
0.258164
0.253626
0.249481
0.245701
0.242262
0.239137
0.2363
0.233726
0.231393
0.229278
0.22736
0.22562
0.224041
0.222608
0.221305
0.220121
0.219043
0.218062
0.217167
0.216351
0.215606
0.214925
0.214303
0.213734
0.213213
0.212737
0.212301
0.211902
0.211537
0.211202
0.210897
0.210617
0.210361
0.210127
0.209913
0.209718
0.20954
0.209377
0.209228
0.209093
0.208969
0.208856
0.208753
0.208659
0.208573
0.208494
0.208423
0.208357
0.208297
0.208243
0.208193
0.208147
0.208105
0.208067
0.208031
0.207999
0.20797
0.207943
0.207918
0.207895
0.207874
0.207855
0.207838
0.207821
0.207806
0.207792
0.207779
0.207767
0.207755
0.207745
0.207734
0.207725
0.207716
0.207707
0.207699
0.207692
0.207687
0.207683
0.207682
0.207683
0.207685
0.207689
0.207695
0.207701
0.207709
0.207718
0.207729
0.20774
0.207753
0.207768
0.207784
0.207803
0.207823
0.207846
0.207871
0.2079
0.207932
0.207968
0.208008
0.208053
0.208104
0.208161
0.208226
0.208298
0.208381
0.208474
0.20858
0.208699
0.208836
0.208991
0.209169
0.209371
0.209604
0.20987
0.210176
0.210528
0.210935
0.211405
0.21195
0.212583
0.21332
0.214181
0.215189
0.216371
0.217762
0.219402
0.221342
0.223643
0.226381
0.229649
0.233567
0.238288
0.244008
0.250991
0.259591
0.270297
0.283804
0.301121
0.323748
0.353997
0.395529
0.454414
0.540928
0.673043
0.87872
1.1889
1.59626
1.89806
0.221026
0.221564
0.222367
0.223546
0.225182
0.227365
0.230248
0.233974
0.238659
0.244384
0.25118
0.259012
0.267768
0.277274
0.287333
0.297771
0.308455
0.319279
0.330138
0.340905
0.351434
0.361561
0.371122
0.379949
0.387882
0.394765
0.400452
0.404817
0.407762
0.409222
0.409179
0.407655
0.404719
0.400477
0.395065
0.388644
0.381385
0.373468
0.365066
0.356344
0.347455
0.338534
0.329699
0.321047
0.312661
0.304604
0.296923
0.289652
0.282814
0.27642
0.27047
0.26496
0.259877
0.255206
0.250927
0.247016
0.243451
0.240207
0.237259
0.234584
0.232157
0.229957
0.227963
0.226155
0.224516
0.223029
0.22168
0.220453
0.219339
0.218325
0.217401
0.21656
0.215793
0.215092
0.214453
0.213868
0.213334
0.212846
0.212399
0.21199
0.211616
0.211274
0.210961
0.210675
0.210413
0.210174
0.209955
0.209756