/*--------------------------------*- C++ -*----------------------------------*\
| =========                 |                                                 |
| \\      /  F ield         | OpenFOAM: The Open Source CFD Toolbox           |
|  \\    /   O peration     | Version:  2.4.0                                 |
|   \\  /    A nd           | Web:      www.OpenFOAM.org                      |
|    \\/     M anipulation  |                                                 |
\*---------------------------------------------------------------------------*/
FoamFile
{
    version     2.0;
    format      ascii;
    class       volVectorField;
    location    "0.124";
    object      UMean;
}
// * * * * * * * * * * * * * * * * * * * * * * * * * * * * * * * * * * * * * //

dimensions      [0 1 -1 0 0 0 0];

internalField   nonuniform List<vector> 
17600
(
(5.34906 0.307089 0)
(3.05155 0.0607764 0)
(2.27821 -0.0013856 0)
(1.93706 -0.00350052 0)
(1.80287 -0.00135388 0)
(1.71264 -0.000162078 0)
(1.6514 -3.17707e-05 0)
(1.59354 4.8855e-06 0)
(1.56337 -0.000186989 0)
(1.52559 4.87695e-05 0)
(1.51319 -0.000138285 0)
(1.48213 0.000168211 0)
(1.47663 -9.42939e-05 0)
(1.4488 0.000126133 0)
(1.44888 -0.00019551 0)
(1.43015 -9.41418e-05 0)
(1.43426 -0.000329846 0)
(1.44124 -0.000364611 0)
(1.47021 -0.00193342 0)
(1.4268 -0.0239026 0)
(8.59229 0.863176 0)
(7.00227 0.378109 0)
(5.9011 0.119072 0)
(5.16227 0.0492737 0)
(4.77819 0.0265041 0)
(4.51429 0.0188552 0)
(4.34542 0.014404 0)
(4.18452 0.0109586 0)
(4.09992 0.00793117 0)
(3.98974 0.00657407 0)
(3.95505 0.00488944 0)
(3.86491 0.00511739 0)
(3.85268 0.00362708 0)
(3.77262 0.0041869 0)
(3.77357 0.00176246 0)
(3.71547 0.00286213 0)
(3.71982 -0.00131527 0)
(3.7222 -0.0022309 0)
(3.72683 -0.00229398 0)
(3.85858 -0.0962711 0)
(9.83042 1.01002 0)
(9.36471 0.567075 0)
(8.53916 0.234937 0)
(7.72285 0.125672 0)
(7.20308 0.0773246 0)
(6.81543 0.053405 0)
(6.57021 0.040011 0)
(6.32787 0.0303232 0)
(6.2032 0.0229399 0)
(6.03017 0.0183783 0)
(5.9797 0.0143951 0)
(5.83672 0.0135407 0)
(5.82231 0.0105205 0)
(5.6955 0.0107109 0)
(5.70011 0.00609248 0)
(5.60266 0.0071041 0)
(5.61462 -0.000650468 0)
(5.58187 -0.00215098 0)
(5.61166 -0.0142038 0)
(5.70176 -0.119596 0)
(10.1285 0.935854 0)
(10.5571 0.654748 0)
(10.2854 0.320407 0)
(9.67692 0.202498 0)
(9.18909 0.139952 0)
(8.75828 0.0996909 0)
(8.48534 0.0750206 0)
(8.18748 0.0568719 0)
(8.04351 0.0439223 0)
(7.81964 0.0349115 0)
(7.76252 0.0277787 0)
(7.57418 0.0256479 0)
(7.56204 0.019948 0)
(7.39459 0.0207734 0)
(7.40571 0.0116797 0)
(7.26974 0.0156065 0)
(7.2975 -0.000815034 0)
(7.21041 0.00316426 0)
(7.28909 -0.0326469 0)
(7.26747 -0.111648 0)
(10.0492 0.796335 0)
(10.8948 0.655333 0)
(11.1305 0.34535 0)
(10.8819 0.246397 0)
(10.6028 0.192662 0)
(10.2446 0.146423 0)
(10.0212 0.113523 0)
(9.71391 0.0870558 0)
(9.58496 0.0686497 0)
(9.33261 0.0544259 0)
(9.2849 0.0442553 0)
(9.06523 0.0394831 0)
(9.06315 0.0322917 0)
(8.86477 0.0309241 0)
(8.88826 0.0216997 0)
(8.71979 0.0205247 0)
(8.76104 0.00963654 0)
(8.64518 -0.00442135 0)
(8.70913 -0.0184326 0)
(8.68893 -0.154769 0)
(9.97056 0.683803 0)
(10.8282 0.622873 0)
(11.3028 0.323312 0)
(11.3302 0.242242 0)
(11.3253 0.212579 0)
(11.1394 0.176151 0)
(11.0601 0.143979 0)
(10.815 0.114208 0)
(10.7515 0.0923436 0)
(10.5112 0.074711 0)
(10.4949 0.0607733 0)
(10.2719 0.0553191 0)
(10.2869 0.0436567 0)
(10.0819 0.0447641 0)
(10.1148 0.0275155 0)
(9.939 0.0344147 0)
(9.98354 0.00510933 0)
(9.85832 0.0153626 0)
(9.91299 -0.0458368 0)
(9.86627 -0.12139 0)
(9.96115 0.595579 0)
(10.6986 0.590236 0)
(11.2287 0.295154 0)
(11.3335 0.212845 0)
(11.4899 0.199999 0)
(11.4396 0.178684 0)
(11.5295 0.154372 0)
(11.396 0.126803 0)
(11.4489 0.106618 0)
(11.2732 0.0884765 0)
(11.3233 0.074365 0)
(11.1344 0.0674754 0)
(11.1876 0.0563714 0)
(10.9998 0.0538729 0)
(11.057 0.0402385 0)
(10.8863 0.0374515 0)
(10.9507 0.0190856 0)
(10.8155 0.00732647 0)
(10.8872 -0.0356172 0)
(10.8021 -0.116877 0)
(9.9801 0.517377 0)
(10.5921 0.554506 0)
(11.1351 0.277747 0)
(11.2402 0.186492 0)
(11.4423 0.178422 0)
(11.4237 0.167314 0)
(11.5943 0.148789 0)
(11.5359 0.124697 0)
(11.679 0.105755 0)
(11.5893 0.0913976 0)
(11.7098 0.0767352 0)
(11.5987 0.074005 0)
(11.6973 0.0596276 0)
(11.5739 0.0627633 0)
(11.6548 0.0418962 0)
(11.534 0.0483028 0)
(11.6085 0.0156078 0)
(11.5063 0.0183623 0)
(11.5781 -0.0461809 0)
(11.4909 -0.0965957 0)
(9.99856 0.447765 0)
(10.5128 0.511025 0)
(11.0501 0.264747 0)
(11.1691 0.164097 0)
(11.3697 0.157328 0)
(11.3613 0.153552 0)
(11.5279 0.138557 0)
(11.5057 0.11673 0)
(11.6543 0.0975082 0)
(11.6272 0.0855209 0)
(11.7599 0.0712187 0)
(11.726 0.0709456 0)
(11.8399 0.0571468 0)
(11.7982 0.0613803 0)
(11.8919 0.041654 0)
(11.8471 0.0473891 0)
(11.9286 0.0150564 0)
(11.8896 0.0178197 0)
(11.9575 -0.0571327 0)
(11.9011 -0.0926084 0)
(9.99992 0.385222 0)
(10.462 0.464576 0)
(10.9615 0.25269 0)
(11.1268 0.143457 0)
(11.2966 0.137093 0)
(11.3236 0.140002 0)
(11.4479 0.127553 0)
(11.4677 0.108603 0)
(11.5746 0.0876584 0)
(11.5976 0.0781015 0)
(11.6935 0.062873 0)
(11.7159 0.06483 0)
(11.7997 0.0505821 0)
(11.8208 0.0557441 0)
(11.8922 0.03713 0)
(11.9134 0.0400009 0)
(11.9783 0.013278 0)
(12.0018 0.000176191 0)
(12.0536 -0.0545858 0)
(12.0313 -0.149191 0)
(9.98474 0.328057 0)
(10.4281 0.418824 0)
(10.8763 0.240334 0)
(11.0933 0.124814 0)
(11.2309 0.117274 0)
(11.2955 0.127222 0)
(11.381 0.115822 0)
(11.4347 0.101336 0)
(11.5078 0.0778169 0)
(11.5622 0.071532 0)
(11.629 0.0541021 0)
(11.6798 0.0595737 0)
(11.7391 0.0426254 0)
(11.7861 0.0505995 0)
(11.839 0.0293705 0)
(11.8837 0.0347833 0)
(11.936 0.00358511 0)
(11.9791 -0.00697598 0)
(12.0212 -0.072491 0)
(11.9974 -0.177097 0)
(9.97287 0.277451 0)
(10.3912 0.372456 0)
(10.8094 0.227705 0)
(11.0505 0.106644 0)
(11.1827 0.0991921 0)
(11.2589 0.113083 0)
(11.3327 0.104839 0)
(11.393 0.0923259 0)
(11.4608 0.069569 0)
(11.5192 0.0635175 0)
(11.5837 0.047823 0)
(11.6362 0.0523292 0)
(11.6948 0.0381196 0)
(11.7407 0.0423794 0)
(11.7943 0.0259824 0)
(11.8363 0.0234025 0)
(11.8902 -0.000162136 0)
(11.9287 -0.0242438 0)
(11.968 -0.083726 0)
(11.9291 -0.197425 0)
(9.9704 0.233014 0)
(10.3529 0.325996 0)
(10.7563 0.211303 0)
(11.0043 0.0907988 0)
(11.1452 0.0821714 0)
(11.2207 0.0990514 0)
(11.2923 0.0930476 0)
(11.3512 0.0829134 0)
(11.4209 0.0608785 0)
(11.4779 0.0557666 0)
(11.545 0.0410276 0)
(11.596 0.0456052 0)
(11.6563 0.0323578 0)
(11.6996 0.0357814 0)
(11.7544 0.0203507 0)
(11.794 0.0158903 0)
(11.8476 -0.00773709 0)
(11.8829 -0.0368397 0)
(11.9166 -0.0953627 0)
(11.8687 -0.212115 0)
(9.96915 0.192923 0)
(10.3231 0.281059 0)
(10.7075 0.188807 0)
(10.9649 0.078134 0)
(11.11 0.0675344 0)
(11.1899 0.0855345 0)
(11.2542 0.0812828 0)
(11.318 0.0730378 0)
(11.3827 0.0525695 0)
(11.4453 0.0478424 0)
(11.5082 0.0347982 0)
(11.5646 0.038471 0)
(11.619 0.0275833 0)
(11.6681 0.0280361 0)
(11.7168 0.0154795 0)
(11.7623 0.00657157 0)
(11.8086 -0.0151746 0)
(11.8479 -0.0482104 0)
(11.8706 -0.107344 0)
(11.8226 -0.222033 0)
(9.96635 0.156508 0)
(10.3006 0.237421 0)
(10.6642 0.161773 0)
(10.9333 0.0670083 0)
(11.08 0.0548568 0)
(11.1663 0.071952 0)
(11.2233 0.0693759 0)
(11.2921 0.0623291 0)
(11.3511 0.0444986 0)
(11.4199 0.0397146 0)
(11.4781 0.0289118 0)
(11.5396 0.0313001 0)
(11.5889 0.0224588 0)
(11.6438 0.0208671 0)
(11.6869 0.00988015 0)
(11.738 -0.00157203 0)
(11.7775 -0.023102 0)
(11.8203 -0.058775 0)
(11.8331 -0.118153 0)
(11.7852 -0.230829 0)
(9.96604 0.123494 0)
(10.2789 0.193996 0)
(10.6324 0.132856 0)
(10.9051 0.0561122 0)
(11.0591 0.0429025 0)
(11.1448 0.0584489 0)
(11.2026 0.0567296 0)
(11.2677 0.0513181 0)
(11.3289 0.0361402 0)
(11.3962 0.0317102 0)
(11.4572 0.0229245 0)
(11.5161 0.0240815 0)
(11.569 0.016967 0)
(11.6207 0.0133201 0)
(11.6666 0.00415434 0)
(11.714 -0.0102679 0)
(11.7549 -0.030153 0)
(11.7928 -0.0704691 0)
(11.8034 -0.125414 0)
(11.7483 -0.240339 0)
(9.96928 0.0937109 0)
(10.2585 0.150128 0)
(10.6109 0.103765 0)
(10.8794 0.0445234 0)
(11.0446 0.0322485 0)
(11.1251 0.0447372 0)
(11.1879 0.0443237 0)
(11.245 0.0398432 0)
(11.313 0.0280615 0)
(11.3744 0.0237598 0)
(11.4417 0.0172924 0)
(11.4947 0.0169893 0)
(11.554 0.0116508 0)
(11.5987 0.0063635 0)
(11.6506 -0.00197653 0)
(11.6905 -0.017394 0)
(11.7365 -0.0392046 0)
(11.7657 -0.077705 0)
(11.7782 -0.137291 0)
(11.7111 -0.236239 0)
(9.97038 0.0653777 0)
(10.2457 0.107053 0)
(10.5928 0.0740035 0)
(10.8608 0.0330635 0)
(11.0313 0.0218457 0)
(11.1122 0.0320075 0)
(11.1736 0.0312713 0)
(11.2298 0.0289071 0)
(11.2982 0.0194134 0)
(11.3598 0.0165345 0)
(11.4268 0.0111088 0)
(11.4806 0.0104018 0)
(11.5387 0.00563961 0)
(11.5836 -0.000216722 0)
(11.6346 -0.00838216 0)
(11.6739 -0.024612 0)
(11.7188 -0.0469985 0)
(11.7451 -0.0856776 0)
(11.7551 -0.146679 0)
(11.6818 -0.23426 0)
(9.96829 0.0393385 0)
(10.2404 0.0632228 0)
(10.5777 0.0451771 0)
(10.8512 0.0195976 0)
(11.0205 0.0132614 0)
(11.1061 0.0183194 0)
(11.1619 0.0192459 0)
(11.2229 0.0164163 0)
(11.2862 0.0118989 0)
(11.3527 0.00802931 0)
(11.4147 0.00609222 0)
(11.4739 0.00251207 0)
(11.5261 0.000727198 0)
(11.5767 -0.00809447 0)
(11.6214 -0.0137677 0)
(11.6657 -0.0331316 0)
(11.7039 -0.0530447 0)
(11.7331 -0.095673 0)
(11.7355 -0.150904 0)
(11.6634 -0.24446 0)
(9.96843 0.0131606 0)
(10.2363 0.0208268 0)
(10.5713 0.014949 0)
(10.846 0.00671099 0)
(11.0169 0.0038645 0)
(11.1019 0.00649846 0)
(11.1582 0.00536162 0)
(11.2184 0.00579997 0)
(11.282 0.00232552 0)
(11.3481 0.00196835 0)
(11.4108 -0.00138285 0)
(11.4696 -0.00238246 0)
(11.5221 -0.00725413 0)
(11.572 -0.0124453 0)
(11.6165 -0.0228971 0)
(11.6598 -0.0373367 0)
(11.6968 -0.0638454 0)
(11.7239 -0.0998271 0)
(11.7237 -0.160032 0)
(11.6496 -0.252083 0)
(9.97009 -0.0117288 0)
(10.2342 -0.022611 0)
(10.5732 -0.0143014 0)
(10.8448 -0.00779875 0)
(11.0186 -0.00380215 0)
(11.1 -0.00692003 0)
(11.1601 -0.00671374 0)
(11.2167 -0.00688999 0)
(11.2838 -0.00491606 0)
(11.3465 -0.00676265 0)
(11.4129 -0.00580023 0)
(11.468 -0.0108714 0)
(11.5236 -0.0108865 0)
(11.5694 -0.0217435 0)
(11.6173 -0.0257619 0)
(11.6559 -0.0485327 0)
(11.6954 -0.0655486 0)
(11.717 -0.113441 0)
(11.7177 -0.156781 0)
(11.6377 -0.26722 0)
(9.96939 -0.0375889 0)
(10.2386 -0.0653382 0)
(10.5794 -0.0442407 0)
(10.8509 -0.0210963 0)
(11.0222 -0.0125844 0)
(11.1042 -0.0193125 0)
(11.1641 -0.0200043 0)
(11.2218 -0.0181979 0)
(11.288 -0.0138446 0)
(11.3514 -0.0135772 0)
(11.4167 -0.0127066 0)
(11.4722 -0.0163704 0)
(11.5266 -0.0184646 0)
(11.5731 -0.0262447 0)
(11.6198 -0.0348144 0)
(11.658 -0.0518522 0)
(11.6957 -0.077017 0)
(11.7164 -0.11424 0)
(11.7134 -0.169738 0)
(11.6304 -0.242355 0)
(9.96846 -0.064149 0)
(10.2477 -0.108494 0)
(10.5913 -0.0738292 0)
(10.8626 -0.0337953 0)
(11.0299 -0.0218923 0)
(11.1131 -0.0320887 0)
(11.1724 -0.0330819 0)
(11.2318 -0.0295281 0)
(11.2963 -0.0226195 0)
(11.361 -0.0205491 0)
(11.4242 -0.0192702 0)
(11.4811 -0.0221236 0)
(11.5337 -0.0254008 0)
(11.5817 -0.0314256 0)
(11.6259 -0.0428323 0)
(11.6651 -0.0561861 0)
(11.6998 -0.0870669 0)
(11.7206 -0.115767 0)
(11.7146 -0.18165 0)
(11.633 -0.217357 0)
(9.96844 -0.0917883 0)
(10.2599 -0.152465 0)
(10.6102 -0.102604 0)
(10.8791 -0.0463788 0)
(11.0434 -0.0312045 0)
(11.1255 -0.0461672 0)
(11.1863 -0.0448124 0)
(11.2453 -0.0420303 0)
(11.3106 -0.0297251 0)
(11.374 -0.0294382 0)
(11.4377 -0.0235317 0)
(11.4934 -0.0307049 0)
(11.5469 -0.0287281 0)
(11.5935 -0.040879 0)
(11.6381 -0.0450428 0)
(11.6751 -0.0673702 0)
(11.7098 -0.0876415 0)
(11.728 -0.129475 0)
(11.7225 -0.176277 0)
(11.6363 -0.233633 0)
(9.96746 -0.122514 0)
(10.2773 -0.195305 0)
(10.635 -0.132621 0)
(10.9025 -0.0567006 0)
(11.0607 -0.0431542 0)
(11.143 -0.0585121 0)
(11.2038 -0.0585772 0)
(11.2647 -0.0520123 0)
(11.3289 -0.0395446 0)
(11.3931 -0.0354664 0)
(11.4553 -0.0314147 0)
(11.5117 -0.0353941 0)
(11.5638 -0.0367787 0)
(11.6108 -0.0448861 0)
(11.6538 -0.0535745 0)
(11.6907 -0.0712204 0)
(11.7236 -0.0964749 0)
(11.7413 -0.133913 0)
(11.7342 -0.182374 0)
(11.6461 -0.2401 0)
(9.96701 -0.154645 0)
(10.2988 -0.239784 0)
(10.6672 -0.160592 0)
(10.9313 -0.0685389 0)
(11.0828 -0.053989 0)
(11.1646 -0.0731303 0)
(11.2266 -0.0698167 0)
(11.289 -0.0641873 0)
(11.3529 -0.0467566 0)
(11.4168 -0.0444583 0)
(11.478 -0.0362026 0)
(11.5342 -0.0433744 0)
(11.5856 -0.0409836 0)
(11.6325 -0.0525613 0)
(11.6746 -0.057889 0)
(11.7108 -0.0787171 0)
(11.7426 -0.101465 0)
(11.7593 -0.141057 0)
(11.751 -0.188292 0)
(11.6628 -0.241685 0)
(9.96695 -0.191653 0)
(10.3253 -0.282799 0)
(10.7067 -0.188319 0)
(10.9657 -0.0790466 0)
(11.1099 -0.0673095 0)
(11.1909 -0.0861535 0)
(11.2552 -0.0822552 0)
(11.3184 -0.0742538 0)
(11.3825 -0.0554798 0)
(11.4452 -0.051862 0)
(11.5062 -0.0425975 0)
(11.5613 -0.0498545 0)
(11.6133 -0.0464134 0)
(11.6589 -0.0590734 0)
(11.7012 -0.0628647 0)
(11.7356 -0.0855341 0)
(11.7675 -0.106365 0)
(11.7813 -0.148536 0)
(11.7745 -0.19406 0)
(11.6852 -0.243745 0)
(9.96902 -0.231478 0)
(10.3567 -0.327915 0)
(10.7537 -0.210661 0)
(11.0061 -0.0919571 0)
(11.1428 -0.0817638 0)
(11.2233 -0.100006 0)
(11.2893 -0.0939218 0)
(11.3541 -0.084366 0)
(11.417 -0.0637549 0)
(11.4799 -0.0597731 0)
(11.5393 -0.0488218 0)
(11.5951 -0.0565795 0)
(11.6456 -0.0515661 0)
(11.6918 -0.0655757 0)
(11.7321 -0.0674662 0)
(11.767 -0.0921708 0)
(11.7961 -0.110639 0)
(11.81 -0.156137 0)
(11.8026 -0.199459 0)
(11.7152 -0.248612 0)
(9.97906 -0.27636 0)
(10.3886 -0.374125 0)
(10.813 -0.226998 0)
(11.0464 -0.1077 0)
(11.1852 -0.0986986 0)
(11.2562 -0.114019 0)
(11.3321 -0.105647 0)
(11.3912 -0.0939503 0)
(11.4594 -0.0723165 0)
(11.5169 -0.0677598 0)
(11.5798 -0.0554106 0)
(11.6315 -0.0632962 0)
(11.6845 -0.0567293 0)
(11.7277 -0.0720716 0)
(11.7694 -0.0717222 0)
(11.8021 -0.098863 0)
(11.8306 -0.113961 0)
(11.8435 -0.164123 0)
(11.8351 -0.203716 0)
(11.7508 -0.258556 0)
(9.99679 -0.327285 0)
(10.4182 -0.420165 0)
(10.8877 -0.239818 0)
(11.0808 -0.125304 0)
(11.2411 -0.117413 0)
(11.2844 -0.127327 0)
(11.3886 -0.117441 0)
(11.4242 -0.102197 0)
(11.5152 -0.0814854 0)
(11.5508 -0.0748282 0)
(11.6334 -0.0628799 0)
(11.6655 -0.0689761 0)
(11.7364 -0.06277 0)
(11.7622 -0.0775004 0)
(11.8189 -0.0765321 0)
(11.8359 -0.104462 0)
(11.8747 -0.117036 0)
(11.8737 -0.171132 0)
(11.8682 -0.206515 0)
(11.775 -0.273004 0)
(10.0095 -0.384299 0)
(10.4532 -0.466273 0)
(10.9725 -0.251692 0)
(11.1141 -0.144306 0)
(11.3081 -0.136967 0)
(11.3116 -0.140414 0)
(11.4592 -0.128825 0)
(11.4553 -0.109957 0)
(11.5867 -0.0909546 0)
(11.5823 -0.0817021 0)
(11.7035 -0.0710379 0)
(11.6957 -0.0743133 0)
(11.803 -0.0697082 0)
(11.7882 -0.0821804 0)
(11.8764 -0.0819517 0)
(11.8503 -0.108669 0)
(11.9107 -0.119589 0)
(11.861 -0.175738 0)
(11.8582 -0.206144 0)
(11.713 -0.287534 0)
(10.0031 -0.447171 0)
(10.5096 -0.512327 0)
(11.0549 -0.26386 0)
(11.1637 -0.164726 0)
(11.3754 -0.157443 0)
(11.356 -0.153758 0)
(11.5338 -0.139901 0)
(11.4994 -0.118071 0)
(11.6607 -0.100598 0)
(11.6168 -0.0890067 0)
(11.7645 -0.0792211 0)
(11.7083 -0.0797574 0)
(11.8368 -0.0760852 0)
(11.7625 -0.0859596 0)
(11.8636 -0.0855796 0)
(11.7658 -0.110431 0)
(11.8272 -0.117993 0)
(11.6917 -0.175975 0)
(11.6703 -0.195844 0)
(11.4284 -0.296461 0)
(9.98256 -0.516822 0)
(10.5919 -0.555591 0)
(11.1353 -0.276953 0)
(11.2405 -0.187077 0)
(11.442 -0.178616 0)
(11.4244 -0.167432 0)
(11.5932 -0.150135 0)
(11.536 -0.125876 0)
(11.6765 -0.10889 0)
(11.5851 -0.0943209 0)
(11.7037 -0.0848214 0)
(11.5839 -0.0814076 0)
(11.6798 -0.0787903 0)
(11.5318 -0.0836212 0)
(11.6016 -0.0852757 0)
(11.4253 -0.102877 0)
(11.4562 -0.113877 0)
(11.2381 -0.160426 0)
(11.178 -0.186498 0)
(10.8586 -0.269102 0)
(9.9634 -0.59526 0)
(10.6982 -0.590975 0)
(11.2282 -0.294516 0)
(11.3352 -0.213429 0)
(11.4873 -0.200105 0)
(11.4424 -0.179029 0)
(11.525 -0.155309 0)
(11.3985 -0.128313 0)
(11.4411 -0.108865 0)
(11.2713 -0.0918174 0)
(11.3082 -0.0807905 0)
(11.1191 -0.0753022 0)
(11.1556 -0.0718618 0)
(10.9483 -0.0746665 0)
(10.9794 -0.075749 0)
(10.7485 -0.0903449 0)
(10.7543 -0.100257 0)
(10.4782 -0.14061 0)
(10.3971 -0.16423 0)
(10.0182 -0.232217 0)
(9.97238 -0.683629 0)
(10.8274 -0.623238 0)
(11.3028 -0.323033 0)
(11.3313 -0.242659 0)
(11.3228 -0.212828 0)
(11.1418 -0.176385 0)
(11.055 -0.144878 0)
(10.8167 -0.115387 0)
(10.7418 -0.0944901 0)
(10.5077 -0.0773085 0)
(10.4756 -0.0667774 0)
(10.2521 -0.0613275 0)
(10.2473 -0.0584613 0)
(10.0183 -0.0605203 0)
(10.0235 -0.0619414 0)
(9.77246 -0.0737851 0)
(9.76011 -0.0831625 0)
(9.45781 -0.116063 0)
(9.36068 -0.136277 0)
(8.94934 -0.190282 0)
(10.0505 -0.796189 0)
(10.894 -0.655583 0)
(11.131 -0.345249 0)
(10.8823 -0.246684 0)
(10.6006 -0.192886 0)
(10.246 -0.146617 0)
(10.016 -0.114203 0)
(9.71452 -0.0880957 0)
(9.574 -0.070266 0)
(9.32809 -0.0567682 0)
(9.26221 -0.0487029 0)
(9.0434 -0.0450176 0)
(9.01664 -0.0431256 0)
(8.79575 -0.0451878 0)
(8.78367 -0.0466646 0)
(8.53881 -0.0560274 0)
(8.51186 -0.0644861 0)
(8.20911 -0.0883085 0)
(8.09938 -0.109128 0)
(7.68836 -0.132553 0)
(10.1293 -0.935767 0)
(10.5565 -0.654898 0)
(10.2858 -0.320396 0)
(9.67692 -0.202652 0)
(9.1872 -0.140156 0)
(8.75886 -0.0998014 0)
(8.48081 -0.0755697 0)
(8.18676 -0.0576026 0)
(8.03279 -0.0451798 0)
(7.81361 -0.0365478 0)
(7.73938 -0.0312376 0)
(7.55014 -0.0294475 0)
(7.51394 -0.0283389 0)
(7.32144 -0.0304252 0)
(7.298 -0.0315133 0)
(7.07934 -0.0387206 0)
(7.04146 -0.0449 0)
(6.75881 -0.0617739 0)
(6.64919 -0.0776139 0)
(6.24336 -0.0877845 0)
(9.83091 -1.00996 0)
(9.3644 -0.567166 0)
(8.53947 -0.23496 0)
(7.72256 -0.125738 0)
(7.20163 -0.07748 0)
(6.81535 -0.0534518 0)
(6.56656 -0.0403964 0)
(6.32601 -0.0307636 0)
(6.19396 -0.023763 0)
(6.02285 -0.0194114 0)
(5.95845 -0.0165091 0)
(5.81241 -0.0161681 0)
(5.77629 -0.0155771 0)
(5.6251 -0.0174085 0)
(5.59606 -0.017929 0)
(5.41926 -0.022919 0)
(5.37456 -0.02648 0)
(5.13451 -0.0371369 0)
(5.03128 -0.0471728 0)
(4.65574 -0.0515342 0)
(8.59258 -0.863152 0)
(7.00217 -0.378157 0)
(5.90118 -0.119094 0)
(5.16192 -0.0492819 0)
(4.77722 -0.0266017 0)
(4.51378 -0.0188612 0)
(4.34278 -0.0146075 0)
(4.18226 -0.0111506 0)
(4.09297 -0.0083497 0)
(3.98257 -0.00703424 0)
(3.93834 -0.00594443 0)
(3.84365 -0.00630388 0)
(3.81475 -0.00603734 0)
(3.71395 -0.0072523 0)
(3.68615 -0.00731395 0)
(3.56434 -0.0100348 0)
(3.52057 -0.0113465 0)
(3.34723 -0.0167347 0)
(3.25687 -0.0209741 0)
(2.96455 -0.0231779 0)
(5.34915 -0.30708 0)
(3.05157 -0.0607861 0)
(2.27812 0.00138104 0)
(1.93684 0.00351317 0)
(1.80244 0.00132711 0)
(1.71221 0.000178226 0)
(1.65017 -8.74005e-06 0)
(1.59206 -1.57165e-05 0)
(1.55995 0.000123224 0)
(1.52134 -7.46586e-05 0)
(1.50484 1.2763e-07 0)
(1.47034 -0.000289602 0)
(1.4568 -0.00016453 0)
(1.41783 -0.000517614 0)
(1.40204 -0.00031239 0)
(1.35232 -0.0009026 0)
(1.32602 -0.000717971 0)
(1.25075 -0.00170239 0)
(1.19732 -0.001901 0)
(1.06627 0.00401047 0)
(2.15797 -0.250272 0)
(2.56519 -0.122298 0)
(3.08353 -0.0940889 0)
(3.58792 -0.0820351 0)
(4.05835 -0.10018 0)
(4.55433 -0.155181 0)
(5.05805 -0.19765 0)
(5.5758 -0.314194 0)
(6.07334 -0.45602 0)
(6.49987 -0.613377 0)
(6.85384 -0.778451 0)
(7.13299 -0.9531 0)
(7.3969 -1.09758 0)
(7.56181 -1.18978 0)
(7.75261 -1.26458 0)
(7.89022 -1.31277 0)
(8.00948 -1.37666 0)
(8.10756 -1.45991 0)
(8.17586 -1.55758 0)
(8.24969 -1.656 0)
(8.29059 -1.74661 0)
(8.33272 -1.81265 0)
(8.41228 -1.87494 0)
(8.47657 -1.93024 0)
(8.54108 -1.99647 0)
(8.59585 -2.0586 0)
(8.63026 -2.09727 0)
(8.6721 -2.12436 0)
(8.69529 -2.13833 0)
(8.7258 -2.14724 0)
(8.7321 -2.14755 0)
(8.74915 -2.15858 0)
(8.75295 -2.16853 0)
(8.72793 -2.18327 0)
(8.67997 -2.20553 0)
(8.59168 -2.24266 0)
(8.48563 -2.2799 0)
(8.38357 -2.29909 0)
(8.34724 -2.29791 0)
(8.34962 -2.28455 0)
(8.36154 -2.26834 0)
(8.36217 -2.25113 0)
(8.35235 -2.24485 0)
(8.33701 -2.24414 0)
(8.30916 -2.22986 0)
(8.30265 -2.21676 0)
(8.28551 -2.20837 0)
(8.26083 -2.22276 0)
(8.19314 -2.2152 0)
(8.10754 -2.19809 0)
(8.07669 -2.2101 0)
(8.03358 -2.20055 0)
(8.0076 -2.18564 0)
(7.98396 -2.16332 0)
(7.95163 -2.11472 0)
(7.91077 -2.06877 0)
(7.89887 -2.02467 0)
(7.83951 -1.94176 0)
(7.78427 -1.82942 0)
(7.68728 -1.70753 0)
(7.5813 -1.53937 0)
(7.43351 -1.36 0)
(7.30518 -1.19674 0)
(7.19471 -1.04646 0)
(7.09977 -0.913469 0)
(7.01222 -0.799223 0)
(6.95075 -0.693881 0)
(6.91694 -0.605175 0)
(6.88319 -0.531823 0)
(6.85415 -0.452816 0)
(6.83907 -0.367113 0)
(6.81954 -0.285231 0)
(6.81367 -0.202357 0)
(6.7988 -0.112777 0)
(6.7853 -0.0156059 0)
(6.77494 0.105916 0)
(6.74251 0.227957 0)
(6.71539 0.34483 0)
(6.66205 0.464449 0)
(6.64117 0.576093 0)
(6.59238 0.690585 0)
(6.55194 0.790552 0)
(6.51257 0.882615 0)
(6.47231 0.954191 0)
(6.44188 0.998269 0)
(6.38648 1.0268 0)
(6.3269 1.04894 0)
(6.25724 1.06577 0)
(6.20432 1.05373 0)
(6.15472 1.05059 0)
(6.10057 1.03487 0)
(6.08249 0.999667 0)
(6.05731 0.973275 0)
(6.03108 0.94839 0)
(6.01709 0.917234 0)
(5.99196 0.871701 0)
(5.99037 0.82535 0)
(5.95102 0.788416 0)
(5.98181 0.729879 0)
(5.93007 0.679851 0)
(5.96505 0.615476 0)
(5.8712 0.584552 0)
(5.91327 0.514232 0)
(5.82832 0.491691 0)
(5.89687 0.431031 0)
(5.79522 0.437787 0)
(5.89175 0.378052 0)
(5.76898 0.373987 0)
(5.89299 0.309339 0)
(5.74943 0.319156 0)
(5.89075 0.250037 0)
(5.7406 0.260709 0)
(5.88928 0.191492 0)
(5.75324 0.218855 0)
(5.91302 0.141596 0)
(5.78152 0.171673 0)
(5.95845 0.109961 0)
(5.83493 0.141702 0)
(5.99244 0.0788899 0)
(5.91035 0.103289 0)
(6.00281 0.0359588 0)
(5.98733 0.0572179 0)
(6.01829 -0.011128 0)
(6.0362 0.0175876 0)
(6.04931 -0.0528943 0)
(6.07198 -0.0100923 0)
(6.07603 -0.0911668 0)
(6.10063 -0.0384784 0)
(6.09327 -0.12621 0)
(6.14023 -0.0659792 0)
(6.1001 -0.144477 0)
(6.19774 -0.0712139 0)
(6.10892 -0.131771 0)
(6.25358 -0.0410726 0)
(6.12284 -0.103233 0)
(6.2981 0.00948433 0)
(6.11254 -0.055863 0)
(6.33589 0.0519232 0)
(6.0973 -0.00158316 0)
(6.33622 0.097334 0)
(6.11731 0.0511911 0)
(6.28982 0.158412 0)
(6.14677 0.102546 0)
(6.2586 0.203505 0)
(6.14783 0.159454 0)
(6.24795 0.232526 0)
(6.1412 0.211622 0)
(6.22273 0.265406 0)
(6.13332 0.262698 0)
(6.18529 0.29735 0)
(6.11536 0.305563 0)
(6.14997 0.326986 0)
(6.09209 0.338868 0)
(6.1154 0.345393 0)
(6.07409 0.363243 0)
(6.07366 0.371124 0)
(6.05056 0.394068 0)
(6.02965 0.401087 0)
(6.02152 0.429207 0)
(5.97733 0.437763 0)
(5.98509 0.468068 0)
(5.92152 0.476133 0)
(5.93962 0.509148 0)
(5.85727 0.519946 0)
(5.8828 0.555754 0)
(5.78201 0.573266 0)
(5.8155 0.610036 0)
(5.69848 0.634817 0)
(5.73853 0.66639 0)
(5.61615 0.698662 0)
(5.65646 0.720177 0)
(5.54431 0.762018 0)
(5.57738 0.770339 0)
(5.49154 0.824082 0)
(5.50662 0.817115 0)
(5.45535 0.886833 0)
(5.45092 0.866418 0)
(5.42988 0.95405 0)
(5.41887 0.933946 0)
(5.40755 1.04466 0)
(5.41884 1.03946 0)
(5.3877 1.16986 0)
(5.44892 1.18463 0)
(5.37752 1.33696 0)
(5.49264 1.36684 0)
(5.39819 1.56193 0)
(5.52837 1.60246 0)
(5.45964 1.8563 0)
(5.55321 1.92594 0)
(5.51012 2.22975 0)
(5.55846 2.37494 0)
(5.52845 2.73059 0)
(5.49832 3.0052 0)
(5.37587 3.41988 0)
(5.43172 3.83005 0)
(5.42898 4.37947 0)
(5.32283 4.98003 0)
(5.10853 6.08922 0)
(5.63217 7.07865 0)
(3.16507 10.3234 0)
(4.05127 -0.2739 0)
(4.17053 -0.231951 0)
(4.42475 -0.251732 0)
(4.74939 -0.264119 0)
(5.10504 -0.284032 0)
(5.49527 -0.340699 0)
(5.86821 -0.398747 0)
(6.23443 -0.502324 0)
(6.59624 -0.63855 0)
(6.92338 -0.781726 0)
(7.2322 -0.932078 0)
(7.48947 -1.08185 0)
(7.71565 -1.20724 0)
(7.87883 -1.28559 0)
(8.04689 -1.34842 0)
(8.19845 -1.38511 0)
(8.32578 -1.42829 0)
(8.43317 -1.49568 0)
(8.49561 -1.58199 0)
(8.55527 -1.67801 0)
(8.6045 -1.76687 0)
(8.64706 -1.8374 0)
(8.71992 -1.90222 0)
(8.79983 -1.95537 0)
(8.85645 -2.01332 0)
(8.90191 -2.07338 0)
(8.91752 -2.11354 0)
(8.9542 -2.14266 0)
(8.97699 -2.15432 0)
(9.00377 -2.15535 0)
(9.00688 -2.15222 0)
(9.01166 -2.1589 0)
(8.99382 -2.16054 0)
(8.96391 -2.16707 0)
(8.91032 -2.1765 0)
(8.81491 -2.19769 0)
(8.70319 -2.23116 0)
(8.59881 -2.26529 0)
(8.55219 -2.28615 0)
(8.54555 -2.28393 0)
(8.52781 -2.26881 0)
(8.50127 -2.24646 0)
(8.46444 -2.23287 0)
(8.42777 -2.22916 0)
(8.38698 -2.22074 0)
(8.35899 -2.20803 0)
(8.32736 -2.19612 0)
(8.28602 -2.19981 0)
(8.1994 -2.18234 0)
(8.11787 -2.17342 0)
(8.08143 -2.19256 0)
(8.02893 -2.18635 0)
(7.99759 -2.17793 0)
(7.95831 -2.14857 0)
(7.91164 -2.09674 0)
(7.86605 -2.05391 0)
(7.84042 -2.00647 0)
(7.76275 -1.91386 0)
(7.6902 -1.79358 0)
(7.57159 -1.66031 0)
(7.45463 -1.48182 0)
(7.30233 -1.30598 0)
(7.18381 -1.14823 0)
(7.081 -1.00377 0)
(6.9921 -0.87764 0)
(6.90652 -0.77028 0)
(6.84242 -0.670844 0)
(6.8016 -0.589184 0)
(6.76096 -0.517843 0)
(6.72752 -0.440115 0)
(6.70904 -0.358439 0)
(6.69151 -0.280095 0)
(6.68933 -0.19961 0)
(6.67518 -0.108165 0)
(6.66072 -0.00859466 0)
(6.6492 0.11739 0)
(6.61772 0.243863 0)
(6.5912 0.359931 0)
(6.53672 0.480066 0)
(6.50926 0.591975 0)
(6.45924 0.708336 0)
(6.41739 0.808321 0)
(6.38383 0.894905 0)
(6.35218 0.967464 0)
(6.33065 1.01562 0)
(6.2833 1.05005 0)
(6.22734 1.07673 0)
(6.16097 1.09192 0)
(6.11209 1.0771 0)
(6.06032 1.07344 0)
(6.00742 1.0475 0)
(5.99357 1.01098 0)
(5.96488 0.984506 0)
(5.94344 0.958484 0)
(5.93196 0.921314 0)
(5.91425 0.879368 0)
(5.90988 0.830907 0)
(5.88119 0.793981 0)
(5.91428 0.727207 0)
(5.87496 0.687329 0)
(5.91205 0.623134 0)
(5.83 0.600498 0)
(5.87695 0.518017 0)
(5.78975 0.499855 0)
(5.86497 0.435346 0)
(5.75581 0.443469 0)
(5.86716 0.378905 0)
(5.73708 0.376147 0)
(5.87275 0.3104 0)
(5.72283 0.323768 0)
(5.87384 0.248438 0)
(5.71945 0.264986 0)
(5.87387 0.187147 0)
(5.72416 0.215794 0)
(5.90729 0.13536 0)
(5.74676 0.16438 0)
(5.94617 0.100748 0)
(5.7985 0.130827 0)
(5.97743 0.0705539 0)
(5.87074 0.093238 0)
(5.99083 0.0282569 0)
(5.93277 0.0462178 0)
(6.01894 -0.0153756 0)
(5.9702 0.00610995 0)
(6.05578 -0.0543242 0)
(6.0001 -0.0215327 0)
(6.0935 -0.0916198 0)
(6.02358 -0.0492682 0)
(6.12374 -0.125586 0)
(6.04495 -0.0756605 0)
(6.14215 -0.145612 0)
(6.07955 -0.0841134 0)
(6.1608 -0.131652 0)
(6.12028 -0.0576227 0)
(6.19074 -0.0991007 0)
(6.15052 -0.00313485 0)
(6.19757 -0.0507787 0)
(6.19158 0.0454954 0)
(6.17707 0.00465015 0)
(6.21854 0.0900822 0)
(6.17111 0.0627179 0)
(6.19337 0.149394 0)
(6.2009 0.111159 0)
(6.15299 0.201915 0)
(6.21624 0.161955 0)
(6.14034 0.234245 0)
(6.20971 0.215277 0)
(6.12519 0.26587 0)
(6.19881 0.269761 0)
(6.09804 0.298731 0)
(6.18241 0.313296 0)
(6.07385 0.331939 0)
(6.15696 0.345701 0)
(6.06242 0.350862 0)
(6.12692 0.367442 0)
(6.04652 0.378956 0)
(6.09352 0.395687 0)
(6.0262 0.414273 0)
(6.04884 0.429578 0)
(6.0029 0.454741 0)
(6.00051 0.466638 0)
(5.97453 0.497856 0)
(5.94082 0.507449 0)
(5.9372 0.54673 0)
(5.87341 0.555089 0)
(5.88537 0.603966 0)
(5.79695 0.610582 0)
(5.81981 0.666546 0)
(5.71552 0.668686 0)
(5.74786 0.727954 0)
(5.63816 0.725948 0)
(5.67381 0.784236 0)
(5.57654 0.779983 0)
(5.6039 0.836368 0)
(5.53939 0.832147 0)
(5.53626 0.8874 0)
(5.52895 0.886756 0)
(5.47322 0.94575 0)
(5.54006 0.954047 0)
(5.42535 1.03546 0)
(5.56283 1.04809 0)
(5.4115 1.16975 0)
(5.58597 1.17509 0)
(5.43551 1.34837 0)
(5.60863 1.34412 0)
(5.48003 1.57142 0)
(5.64484 1.58225 0)
(5.531 1.84796 0)
(5.71427 1.91106 0)
(5.58648 2.22422 0)
(5.74759 2.35524 0)
(5.64815 2.72931 0)
(5.83458 2.95349 0)
(5.7398 3.42302 0)
(5.7162 3.82251 0)
(5.64816 4.48076 0)
(5.66406 5.03452 0)
(5.28608 6.30545 0)
(6.89768 6.84443 0)
(4.52442 11.1222 0)
(5.84346 -0.267778 0)
(5.86799 -0.281968 0)
(6.01236 -0.323299 0)
(6.20755 -0.366691 0)
(6.44295 -0.408377 0)
(6.69425 -0.468353 0)
(6.94079 -0.532615 0)
(7.1608 -0.625847 0)
(7.39973 -0.75625 0)
(7.61917 -0.89816 0)
(7.84438 -1.04204 0)
(8.01627 -1.17029 0)
(8.14479 -1.28132 0)
(8.24925 -1.35667 0)
(8.34501 -1.42201 0)
(8.47027 -1.46169 0)
(8.59508 -1.49864 0)
(8.73795 -1.54187 0)
(8.82892 -1.61209 0)
(8.89617 -1.69618 0)
(8.96402 -1.78188 0)
(9.00577 -1.85187 0)
(9.05328 -1.92469 0)
(9.11594 -1.98356 0)
(9.1651 -2.03533 0)
(9.21494 -2.08677 0)
(9.22036 -2.12437 0)
(9.2436 -2.15611 0)
(9.24502 -2.16611 0)
(9.2508 -2.1595 0)
(9.2443 -2.15214 0)
(9.23253 -2.15336 0)
(9.19271 -2.14762 0)
(9.15399 -2.14784 0)
(9.10173 -2.14829 0)
(9.01355 -2.1556 0)
(8.91834 -2.18332 0)
(8.82299 -2.22861 0)
(8.75926 -2.26882 0)
(8.72509 -2.27429 0)
(8.67842 -2.25784 0)
(8.62287 -2.22933 0)
(8.55832 -2.21005 0)
(8.50488 -2.20652 0)
(8.45583 -2.20407 0)
(8.40722 -2.18814 0)
(8.35812 -2.17255 0)
(8.29857 -2.16871 0)
(8.20366 -2.14877 0)
(8.12915 -2.1503 0)
(8.07918 -2.17086 0)
(8.01819 -2.16842 0)
(7.97992 -2.16462 0)
(7.9213 -2.12706 0)
(7.864 -2.07446 0)
(7.81178 -2.03487 0)
(7.76702 -1.98176 0)
(7.66755 -1.87814 0)
(7.57228 -1.74895 0)
(7.43576 -1.60491 0)
(7.31323 -1.42173 0)
(7.1628 -1.25436 0)
(7.05832 -1.10303 0)
(6.96268 -0.9644 0)
(6.87579 -0.843507 0)
(6.79104 -0.739786 0)
(6.72239 -0.645443 0)
(6.66909 -0.569649 0)
(6.62457 -0.502153 0)
(6.59114 -0.426645 0)
(6.57108 -0.350192 0)
(6.55394 -0.275723 0)
(6.5511 -0.198219 0)
(6.54159 -0.104542 0)
(6.52509 -0.000701833 0)
(6.512 0.128866 0)
(6.48156 0.258847 0)
(6.45644 0.376188 0)
(6.40148 0.498166 0)
(6.37069 0.610165 0)
(6.32019 0.726533 0)
(6.27475 0.825412 0)
(6.2466 0.905846 0)
(6.22118 0.976928 0)
(6.20646 1.02952 0)
(6.1676 1.07046 0)
(6.11856 1.10167 0)
(6.05833 1.1155 0)
(6.0157 1.09992 0)
(5.96364 1.0956 0)
(5.91379 1.05872 0)
(5.90223 1.02239 0)
(5.86972 0.994679 0)
(5.85209 0.967547 0)
(5.8457 0.923798 0)
(5.82653 0.885699 0)
(5.8313 0.833776 0)
(5.79883 0.795712 0)
(5.84848 0.721556 0)
(5.80236 0.691624 0)
(5.85857 0.627176 0)
(5.7735 0.612113 0)
(5.84169 0.521272 0)
(5.74012 0.507371 0)
(5.8341 0.438819 0)
(5.71008 0.448324 0)
(5.83875 0.37643 0)
(5.70375 0.379481 0)
(5.84353 0.307906 0)
(5.69838 0.330261 0)
(5.84486 0.243461 0)
(5.70128 0.270951 0)
(5.84693 0.182087 0)
(5.7008 0.214845 0)
(5.87673 0.126499 0)
(5.72801 0.16199 0)
(5.90281 0.0892241 0)
(5.78318 0.1252 0)
(5.92205 0.0573115 0)
(5.86046 0.0897105 0)
(5.93635 0.0169478 0)
(5.91427 0.0422817 0)
(5.96563 -0.0269196 0)
(5.95566 0.00255058 0)
(5.99637 -0.0651469 0)
(5.99514 -0.024181 0)
(6.0285 -0.101611 0)
(6.03113 -0.0497619 0)
(6.05149 -0.135082 0)
(6.05699 -0.0729452 0)
(6.05769 -0.157948 0)
(6.09523 -0.0801488 0)
(6.05607 -0.147725 0)
(6.14974 -0.0548991 0)
(6.06595 -0.114261 0)
(6.19632 0.00445703 0)
(6.06416 -0.0682833 0)
(6.25414 0.0626176 0)
(6.03417 -0.0149248 0)
(6.30686 0.109938 0)
(6.00442 0.0483757 0)
(6.3113 0.163974 0)