/*--------------------------------*- C++ -*----------------------------------*\
| =========                 |                                                 |
| \\      /  F ield         | OpenFOAM: The Open Source CFD Toolbox           |
|  \\    /   O peration     | Version:  2.4.0                                 |
|   \\  /    A nd           | Web:      www.OpenFOAM.org                      |
|    \\/     M anipulation  |                                                 |
\*---------------------------------------------------------------------------*/
FoamFile
{
    version     2.0;
    format      ascii;
    class       volVectorField;
    location    "0.101";
    object      U_0;
}
// * * * * * * * * * * * * * * * * * * * * * * * * * * * * * * * * * * * * * //

dimensions      [0 1 -1 0 0 0 0];

internalField   nonuniform List<vector> 
17600
(
(5.32877 0.309363 0)
(2.98564 0.0607372 0)
(2.19577 -0.00162327 0)
(1.84829 -0.00357493 0)
(1.70714 -0.00131201 0)
(1.6091 -3.2025e-05 0)
(1.54264 -0.000179405 0)
(1.47465 0.000109514 0)
(1.44139 -0.000186164 0)
(1.39556 -0.000144273 0)
(1.38552 -0.000169249 0)
(1.34457 0.000235024 0)
(1.35486 -0.0011247 0)
(1.29954 0.00178656 0)
(1.34232 -0.00305505 0)
(1.30673 0.000475793 0)
(1.33285 3.8107e-05 0)
(1.37381 -0.00317705 0)
(1.49203 -0.0079128 0)
(1.63726 -0.0345582 0)
(8.60087 0.871711 0)
(6.94917 0.383893 0)
(5.81154 0.121642 0)
(5.05627 0.0508122 0)
(4.65468 0.0283134 0)
(4.37247 0.0207079 0)
(4.19188 0.0158719 0)
(4.00206 0.0128804 0)
(3.91206 0.00935492 0)
(3.77736 0.00701637 0)
(3.74626 0.00584777 0)
(3.62861 0.00553251 0)
(3.6493 0.00183206 0)
(3.49493 0.00811864 0)
(3.61052 -0.00734872 0)
(3.4529 0.00540445 0)
(3.53376 -0.00719605 0)
(3.61147 -0.0123921 0)
(3.70706 -0.0459379 0)
(3.95236 -0.0551097 0)
(9.86017 1.02162 0)
(9.34331 0.578146 0)
(8.47716 0.241158 0)
(7.6399 0.129939 0)
(7.09823 0.0819553 0)
(6.68491 0.0577208 0)
(6.42706 0.0442602 0)
(6.14132 0.0351523 0)
(6.0113 0.0267161 0)
(5.80092 0.0203439 0)
(5.75456 0.0172726 0)
(5.568 0.0146806 0)
(5.60489 0.00944124 0)
(5.35217 0.0168622 0)
(5.54847 -0.00917003 0)
(5.2544 0.0159976 0)
(5.39801 -0.0181881 0)
(5.4623 -0.0181698 0)
(5.57911 -0.0757174 0)
(5.55986 -0.101891 0)
(10.1645 0.94692 0)
(10.5651 0.669826 0)
(10.2648 0.330309 0)
(9.63804 0.209819 0)
(9.1336 0.148057 0)
(8.6712 0.106781 0)
(8.39284 0.0826992 0)
(8.04133 0.0654535 0)
(7.89451 0.0507351 0)
(7.62447 0.0390272 0)
(7.57349 0.0337191 0)
(7.32381 0.0268149 0)
(7.39202 0.0220747 0)
(7.03109 0.0267742 0)
(7.32869 -0.0080897 0)
(6.8899 0.0316345 0)
(7.10011 -0.0306419 0)
(7.11681 -0.026715 0)
(7.31717 -0.0881278 0)
(6.98614 -0.137773 0)
(10.0796 0.80445 0)
(10.9138 0.671428 0)
(11.1416 0.356806 0)
(10.8834 0.255711 0)
(10.6058 0.203938 0)
(10.2135 0.156068 0)
(9.99881 0.124393 0)
(9.63543 0.0997055 0)
(9.50928 0.0786774 0)
(9.20538 0.0610382 0)
(9.17286 0.053977 0)
(8.86631 0.0403049 0)
(8.9932 0.039205 0)
(8.51551 0.0371501 0)
(8.92919 -0.00544114 0)
(8.36984 0.0527924 0)
(8.61422 -0.0437807 0)
(8.61164 -0.0380272 0)
(8.85185 -0.0900742 0)
(8.4131 -0.1497 0)
(9.99523 0.689828 0)
(10.8435 0.638516 0)
(11.3255 0.334125 0)
(11.3468 0.250909 0)
(11.3709 0.225158 0)
(11.1531 0.18715 0)
(11.1008 0.15672 0)
(10.8078 0.130262 0)
(10.7583 0.105486 0)
(10.4621 0.0829139 0)
(10.4851 0.0761464 0)
(10.1341 0.0528441 0)
(10.3531 0.0592828 0)
(9.77079 0.0480901 0)
(10.2878 -0.00478289 0)
(9.67702 0.0801424 0)
(9.89842 -0.0571299 0)
(9.93085 -0.0530155 0)
(10.1364 -0.0836003 0)
(9.73124 -0.153734 0)
(9.98545 0.600149 0)
(10.6997 0.604861 0)
(11.2601 0.305217 0)
(11.3397 0.219722 0)
(11.5533 0.2116 0)
(11.4726 0.189531 0)
(11.6042 0.166385 0)
(11.437 0.144797 0)
(11.5227 0.12135 0)
(11.2843 0.0970389 0)
(11.415 0.0953085 0)
(11.0499 0.060917 0)
(11.3864 0.0784912 0)
(10.7537 0.0596307 0)
(11.3354 -0.00907855 0)
(10.7519 0.110811 0)
(10.9335 -0.0686658 0)
(11.0143 -0.069872 0)
(11.1446 -0.0796294 0)
(10.8065 -0.137282 0)
(10.0153 0.522555 0)
(10.5656 0.566991 0)
(11.1763 0.28728 0)
(11.2259 0.191692 0)
(11.4994 0.187963 0)
(11.46 0.177626 0)
(11.68 0.159134 0)
(11.5901 0.141821 0)
(11.8005 0.122142 0)
(11.6173 0.0965521 0)
(11.8769 0.1047 0)
(11.5448 0.0591747 0)
(11.9833 0.0897529 0)
(11.4032 0.0688899 0)
(12.0003 -0.0205622 0)
(11.5005 0.140992 0)
(11.685 -0.0845493 0)
(11.8069 -0.082752 0)
(11.833 -0.0789267 0)
(11.6199 -0.106843 0)
(10.0644 0.453602 0)
(10.4578 0.52219 0)
(11.0862 0.271878 0)
(11.1508 0.170942 0)
(11.3996 0.162352 0)
(11.3704 0.16237 0)
(11.618 0.146302 0)
(11.5346 0.132289 0)
(11.8171 0.113848 0)
(11.6521 0.0886432 0)
(11.9416 0.102361 0)
(11.7274 0.0509743 0)
(12.1002 0.0881183 0)
(11.7249 0.0724744 0)
(12.2442 -0.0402039 0)
(11.8518 0.164244 0)
(12.0873 -0.106781 0)
(12.2615 -0.0954863 0)
(12.1778 -0.0743379 0)
(12.1008 -0.139168 0)
(10.083 0.391945 0)
(10.4116 0.476937 0)
(10.9713 0.256527 0)
(11.1243 0.150491 0)
(11.3279 0.143459 0)
(11.2845 0.14391 0)
(11.5354 0.133515 0)
(11.4372 0.118113 0)
(11.7594 0.10282 0)
(11.6429 0.0811227 0)
(11.7955 0.0933299 0)
(11.8638 0.0418589 0)
(11.8808 0.0849962 0)
(11.9019 0.0614454 0)
(12.1844 -0.0494347 0)
(11.8841 0.16479 0)
(12.2296 -0.121217 0)
(12.36 -0.1209 0)
(12.2433 -0.0641766 0)
(12.1774 -0.206605 0)
(10.0482 0.332569 0)
(10.4186 0.435009 0)
(10.8678 0.241403 0)
(11.0876 0.130676 0)
(11.303 0.126866 0)
(11.2441 0.130334 0)
(11.479 0.120256 0)
(11.3151 0.106305 0)
(11.7252 0.0821291 0)
(11.5909 0.0861978 0)
(11.6633 0.0709861 0)
(11.9455 0.044149 0)
(11.6463 0.0774891 0)
(12.0258 0.0430599 0)
(12.0122 -0.0463488 0)
(11.8199 0.15495 0)
(12.2851 -0.146277 0)
(12.2221 -0.133434 0)
(12.1442 -0.055875 0)
(12.0825 -0.271748 0)
(10.0172 0.279365 0)
(10.414 0.389977 0)
(10.7778 0.231274 0)
(11.0459 0.106445 0)
(11.2824 0.111427 0)
(11.233 0.115946 0)
(11.4332 0.116553 0)
(11.2465 0.0890935 0)
(11.6973 0.0632978 0)
(11.4488 0.0909309 0)
(11.7141 0.0462212 0)
(11.835 0.0476969 0)
(11.616 0.0703936 0)
(12.0346 0.0224528 0)
(11.8392 -0.0294441 0)
(11.8213 0.123818 0)
(12.2607 -0.154589 0)
(12.0322 -0.138884 0)
(11.9877 -0.0646647 0)
(12.1467 -0.341715 0)
(10.0047 0.231988 0)
(10.3709 0.347766 0)
(10.7157 0.214889 0)
(11.0273 0.0838875 0)
(11.2194 0.0944015 0)
(11.233 0.103823 0)
(11.3698 0.11087 0)
(11.2906 0.0714696 0)
(11.5792 0.0537998 0)
(11.3859 0.083426 0)
(11.7841 0.0243775 0)
(11.6244 0.056083 0)
(11.7131 0.0537475 0)
(11.9397 0.0163587 0)
(11.6956 -0.0190837 0)
(11.9422 0.0872841 0)
(12.1434 -0.153245 0)
(11.8563 -0.134904 0)
(12.0053 -0.104002 0)
(12.2257 -0.409537 0)
(9.98897 0.190509 0)
(10.3303 0.304802 0)
(10.7011 0.18942 0)
(11.0006 0.0673684 0)
(11.1303 0.0820481 0)
(11.2394 0.0900605 0)
(11.3022 0.0998582 0)
(11.3522 0.0608048 0)
(11.4255 0.0476786 0)
(11.4723 0.0653187 0)
(11.6727 0.0180593 0)
(11.5342 0.0566091 0)
(11.7855 0.033579 0)
(11.7724 0.0244336 0)
(11.6941 -0.0277444 0)
(12.0345 0.0527467 0)
(11.9517 -0.129667 0)
(11.8208 -0.155014 0)
(12.0967 -0.147786 0)
(12.1017 -0.437291 0)
(9.98044 0.155442 0)
(10.3231 0.258516 0)
(10.6823 0.157726 0)
(10.933 0.0614788 0)
(11.0874 0.0655775 0)
(11.2367 0.0763527 0)
(11.2525 0.0862639 0)
(11.3659 0.0529072 0)
(11.3348 0.0366394 0)
(11.5578 0.051237 0)
(11.4824 0.0202714 0)
(11.6003 0.0406443 0)
(11.7508 0.0277995 0)
(11.6495 0.0255842 0)
(11.8138 -0.046981 0)
(11.9441 0.0375905 0)
(11.824 -0.112745 0)
(11.9214 -0.188882 0)
(12.0436 -0.165156 0)
(11.9446 -0.441674 0)
(9.99357 0.11761 0)
(10.3057 0.215873 0)
(10.6296 0.130781 0)
(10.8813 0.0517001 0)
(11.103 0.0496039 0)
(11.1974 0.0621493 0)
(11.2327 0.0731954 0)
(11.3342 0.0445919 0)
(11.3373 0.0225504 0)
(11.5142 0.0448395 0)
(11.4201 0.0174384 0)
(11.671 0.020549 0)
(11.6297 0.0322746 0)
(11.658 0.0119184 0)
(11.8751 -0.0586842 0)
(11.7663 0.035444 0)
(11.8429 -0.118078 0)
(11.9865 -0.21006 0)
(11.9058 -0.182366 0)
(11.8779 -0.43497 0)
(10.0051 0.0897535 0)
(10.257 0.170458 0)
(10.6085 0.103039 0)
(10.8783 0.0366191 0)
(11.1026 0.0350146 0)
(11.1327 0.0528863 0)
(11.2382 0.0573001 0)
(11.2932 0.0328825 0)
(11.3747 0.0127551 0)
(11.4031 0.0396136 0)
(11.5005 0.00579866 0)
(11.619 0.0133373 0)
(11.5342 0.031993 0)
(11.7553 -0.0076678 0)
(11.7844 -0.0579026 0)
(11.6827 0.0292488 0)
(11.9333 -0.13419 0)
(11.9222 -0.218667 0)
(11.812 -0.191459 0)
(11.8595 -0.448079 0)
(9.99328 0.0570314 0)
(10.2436 0.1321 0)
(10.6187 0.0660617 0)
(10.8627 0.0271985 0)
(11.0611 0.0277488 0)
(11.1076 0.0393789 0)
(11.245 0.0408888 0)
(11.2879 0.01987 0)
(11.3519 0.00770472 0)
(11.3609 0.0291119 0)
(11.563 -0.00538745 0)
(11.4912 0.0156203 0)
(11.5585 0.0191988 0)
(11.8102 -0.0244679 0)
(11.6403 -0.0437391 0)
(11.7339 0.000538586 0)
(11.9585 -0.14144 0)
(11.8056 -0.212286 0)
(11.7932 -0.213533 0)
(11.856 -0.470852 0)
(9.98362 0.0352496 0)
(10.2684 0.07984 0)
(10.5879 0.0405566 0)
(10.8415 0.0143009 0)
(11.0334 0.0200007 0)
(11.1337 0.0213588 0)
(11.2295 0.0246638 0)
(11.2967 0.00834841 0)
(11.2802 0.00584912 0)
(11.4135 0.0099254 0)
(11.5241 -0.00430743 0)
(11.4342 0.0114584 0)
(11.6551 -0.00386536 0)
(11.7325 -0.0225874 0)
(11.6036 -0.0447561 0)
(11.7995 -0.0241456 0)
(11.8872 -0.143307 0)
(11.771 -0.210748 0)
(11.8022 -0.237108 0)
(11.8315 -0.4807 0)
(9.99322 0.00266806 0)
(10.2642 0.0425299 0)
(10.5482 0.00830841 0)
(10.8606 0.00411424 0)
(11.032 0.00655229 0)
(11.1436 0.0084853 0)
(11.2114 0.00836687 0)
(11.2751 0.00355037 0)
(11.2639 -0.00778116 0)
(11.4747 -0.000384592 0)
(11.4505 -0.00590247 0)
(11.4707 0.00256196 0)
(11.6957 -0.0202381 0)
(11.6164 -0.0153833 0)
(11.6645 -0.0567243 0)
(11.797 -0.0416478 0)
(11.8302 -0.139511 0)
(11.7938 -0.223258 0)
(11.7961 -0.238281 0)
(11.7565 -0.484176 0)
(10.0077 -0.0206185 0)
(10.2304 -0.001853 0)
(10.5631 -0.0219556 0)
(10.8822 -0.0143996 0)
(11.021 0.00273675 0)
(11.1326 -0.00858557 0)
(11.2175 -0.00191975 0)
(11.242 -0.0102153 0)
(11.328 -0.0177638 0)
(11.4594 -0.0141794 0)
(11.4093 0.000755415 0)
(11.5346 -0.0199435 0)
(11.6484 -0.0175016 0)
(11.5925 -0.0261662 0)
(11.7153 -0.0577074 0)
(11.7767 -0.0661781 0)
(11.8234 -0.130568 0)
(11.7777 -0.234131 0)
(11.804 -0.242894 0)
(11.6983 -0.474779 0)
(10.0133 -0.0482324 0)
(10.2076 -0.0427603 0)
(10.6107 -0.0584685 0)
(10.8675 -0.0228096 0)
(11.0111 -0.00558913 0)
(11.1531 -0.0248718 0)
(11.2189 -0.0137778 0)
(11.2403 -0.0246241 0)
(11.3851 -0.0319379 0)
(11.3904 -0.0124125 0)
(11.4242 -0.0112302 0)
(11.5844 -0.0265326 0)
(11.588 -0.0267661 0)
(11.637 -0.0259715 0)
(11.7297 -0.078638 0)
(11.7679 -0.0654731 0)
(11.8034 -0.14328 0)
(11.7833 -0.227202 0)
(11.803 -0.266446 0)
(11.6846 -0.426294 0)
(10.002 -0.0736837 0)
(10.2253 -0.0882121 0)
(10.6416 -0.0914964 0)
(10.8445 -0.0312915 0)
(11.0317 -0.0163651 0)
(11.1849 -0.0421245 0)
(11.1942 -0.0230197 0)
(11.2807 -0.0424024 0)
(11.3849 -0.038645 0)
(11.357 -0.014688 0)
(11.4878 -0.0267011 0)
(11.5863 -0.0306014 0)
(11.5691 -0.0331028 0)
(11.6753 -0.0341471 0)
(11.7293 -0.0877564 0)
(11.7552 -0.068387 0)
(11.8023 -0.156108 0)
(11.8155 -0.221457 0)
(11.7807 -0.283399 0)
(11.6882 -0.36627 0)
(9.98604 -0.0986128 0)
(10.2726 -0.1386 0)
(10.6429 -0.117987 0)
(10.8478 -0.0423228 0)
(11.0742 -0.0296104 0)
(11.1882 -0.0567765 0)
(11.1746 -0.0309439 0)
(11.3475 -0.0649346 0)
(11.3577 -0.0365824 0)
(11.3779 -0.0287851 0)
(11.5519 -0.0336854 0)
(11.5472 -0.038544 0)
(11.5873 -0.0328648 0)
(11.702 -0.0544618 0)
(11.7326 -0.0795022 0)
(11.7545 -0.091936 0)
(11.8369 -0.146741 0)
(11.8125 -0.240414 0)
(11.7903 -0.271917 0)
(11.6746 -0.367869 0)
(9.98996 -0.135048 0)
(10.3073 -0.178373 0)
(10.6297 -0.14888 0)
(10.894 -0.0505777 0)
(11.1076 -0.0461653 0)
(11.1595 -0.064512 0)
(11.2209 -0.0498092 0)
(11.388 -0.077633 0)
(11.3331 -0.0425507 0)
(11.4409 -0.0362492 0)
(11.5613 -0.0483759 0)
(11.5321 -0.0315069 0)
(11.6335 -0.052898 0)
(11.7244 -0.0557178 0)
(11.7372 -0.0888482 0)
(11.7849 -0.0989869 0)
(11.8489 -0.154399 0)
(11.8193 -0.242923 0)
(11.7987 -0.271613 0)
(11.684 -0.386855 0)
(10.0092 -0.163519 0)
(10.3078 -0.228807 0)
(10.6515 -0.171562 0)
(10.9566 -0.0707322 0)
(11.1077 -0.0511223 0)
(11.1617 -0.081931 0)
(11.3022 -0.066183 0)
(11.3759 -0.0904154 0)
(11.3578 -0.0441225 0)
(11.49 -0.0535995 0)
(11.5557 -0.0489733 0)
(11.5701 -0.0393343 0)
(11.6715 -0.0630018 0)
(11.7408 -0.0630732 0)
(11.7598 -0.092995 0)
(11.8074 -0.106402 0)
(11.8623 -0.163863 0)
(11.8445 -0.241081 0)
(11.8041 -0.277039 0)
(11.7113 -0.403952 0)
(10.0156 -0.207256 0)
(10.3143 -0.264499 0)
(10.7098 -0.206243 0)
(10.9972 -0.0794567 0)
(11.1043 -0.0599772 0)
(11.2245 -0.103188 0)
(11.3381 -0.0781082 0)
(11.3704 -0.0992725 0)
(11.4171 -0.054148 0)
(11.5104 -0.0624969 0)
(11.5857 -0.0556865 0)
(11.6119 -0.0469685 0)
(11.7 -0.0696535 0)
(11.7649 -0.0733257 0)
(11.7928 -0.0907134 0)
(11.8293 -0.123488 0)
(11.8928 -0.163127 0)
(11.8677 -0.244682 0)
(11.8364 -0.28984 0)
(11.7403 -0.402953 0)
(10.0116 -0.242546 0)
(10.3502 -0.315107 0)
(10.7671 -0.228978 0)
(11.0201 -0.0908632 0)
(11.1436 -0.0765002 0)
(11.2896 -0.120404 0)
(11.3368 -0.0888839 0)
(11.4183 -0.109793 0)
(11.4603 -0.0631464 0)
(11.5429 -0.071866 0)
(11.6257 -0.0642202 0)
(11.6465 -0.0509481 0)
(11.7343 -0.0794188 0)
(11.8058 -0.0809443 0)
(11.8278 -0.0920167 0)
(11.8641 -0.135464 0)
(11.9229 -0.164767 0)
(11.9073 -0.250656 0)
(11.8669 -0.300293 0)
(11.757 -0.379119 0)
(10.0235 -0.291545 0)
(10.3889 -0.360297 0)
(10.8148 -0.243811 0)
(11.0555 -0.108324 0)
(11.2132 -0.092636 0)
(11.3158 -0.138932 0)
(11.3741 -0.0979794 0)
(11.4703 -0.121366 0)
(11.497 -0.0722519 0)
(11.5848 -0.0811054 0)
(11.6635 -0.0703659 0)
(11.6874 -0.0594513 0)
(11.783 -0.0862215 0)
(11.8519 -0.0905846 0)
(11.8678 -0.0931454 0)
(11.9033 -0.143712 0)
(11.9645 -0.171663 0)
(11.9365 -0.252736 0)
(11.8983 -0.299437 0)
(11.7955 -0.391791 0)
(10.0541 -0.341608 0)
(10.4029 -0.407253 0)
(10.8835 -0.256626 0)
(11.1034 -0.127997 0)
(11.2834 -0.114991 0)
(11.3334 -0.152672 0)
(11.4454 -0.109964 0)
(11.4925 -0.131734 0)
(11.5549 -0.0799518 0)
(11.6181 -0.0898451 0)
(11.7231 -0.0806821 0)
(11.7346 -0.0641219 0)
(11.8451 -0.0977113 0)
(11.8921 -0.0953933 0)
(11.9205 -0.0960675 0)
(11.943 -0.152009 0)
(12.0061 -0.174965 0)
(11.9601 -0.253342 0)
(11.9387 -0.302258 0)
(11.8185 -0.419144 0)
(10.0723 -0.399914 0)
(10.4131 -0.453438 0)
(10.9864 -0.268586 0)
(11.1487 -0.15147 0)
(11.3527 -0.133992 0)
(11.3543 -0.166064 0)
(11.5181 -0.123228 0)
(11.5135 -0.135744 0)
(11.6335 -0.0939426 0)
(11.66 -0.0976076 0)
(11.8042 -0.0901397 0)
(11.7748 -0.0718426 0)
(11.9216 -0.105479 0)
(11.9117 -0.102128 0)
(11.9847 -0.0969599 0)
(11.9512 -0.161502 0)
(12.0362 -0.17171 0)
(11.9346 -0.259942 0)
(11.9156 -0.293357 0)
(11.718 -0.438375 0)
(10.0563 -0.461225 0)
(10.46 -0.50068 0)
(11.1005 -0.28497 0)
(11.192 -0.173231 0)
(11.4155 -0.153409 0)
(11.3939 -0.181911 0)
(11.5954 -0.134299 0)
(11.5587 -0.143765 0)
(11.7203 -0.107218 0)
(11.7123 -0.106884 0)
(11.8589 -0.0980582 0)
(11.7977 -0.0808772 0)
(11.9517 -0.109842 0)
(11.8643 -0.108641 0)
(11.9672 -0.097704 0)
(11.844 -0.163511 0)
(11.9201 -0.168079 0)
(11.714 -0.254177 0)
(11.6734 -0.275886 0)
(11.3374 -0.442624 0)
(10.0195 -0.528821 0)
(10.5548 -0.549293 0)
(11.202 -0.30011 0)
(11.2444 -0.193606 0)
(11.4908 -0.176276 0)
(11.4626 -0.195061 0)
(11.661 -0.148947 0)
(11.6009 -0.149233 0)
(11.7421 -0.120314 0)
(11.6805 -0.111884 0)
(11.7694 -0.104207 0)
(11.6695 -0.0834942 0)
(11.7544 -0.112455 0)
(11.5872 -0.103607 0)
(11.6589 -0.099149 0)
(11.4445 -0.149675 0)
(11.4576 -0.164432 0)
(11.1716 -0.223819 0)
(11.0613 -0.26984 0)
(10.6317 -0.374451 0)
(9.98672 -0.605943 0)
(10.6838 -0.590066 0)
(11.2923 -0.316549 0)
(11.3245 -0.219849 0)
(11.5579 -0.20116 0)
(11.4706 -0.205431 0)
(11.5933 -0.157965 0)
(11.4507 -0.150143 0)
(11.4855 -0.122256 0)
(11.327 -0.108692 0)
(11.3192 -0.0976658 0)
(11.1534 -0.0799583 0)
(11.1506 -0.100106 0)
(10.9196 -0.0937297 0)
(10.9476 -0.0874271 0)
(10.6667 -0.132652 0)
(10.6328 -0.143174 0)
(10.2916 -0.197428 0)
(10.1371 -0.234726 0)
(9.64902 -0.309736 0)
(9.9893 -0.693569 0)
(10.834 -0.62776 0)
(11.3514 -0.343264 0)
(11.3205 -0.250638 0)
(11.3932 -0.217512 0)
(11.1421 -0.199571 0)
(11.0956 -0.150349 0)
(10.8195 -0.1342 0)
(10.7276 -0.107316 0)
(10.4867 -0.0913311 0)
(10.4046 -0.0808789 0)
(10.1994 -0.0658211 0)
(10.1412 -0.0809766 0)
(9.88736 -0.0769609 0)
(9.88389 -0.0715481 0)
(9.57837 -0.109019 0)
(9.51314 -0.118507 0)
(9.14897 -0.164904 0)
(8.96503 -0.189435 0)
(8.4404 -0.263223 0)
(10.07 -0.806945 0)
(10.9124 -0.664615 0)
(11.1578 -0.363016 0)
(10.8581 -0.255479 0)
(10.6345 -0.198438 0)
(10.1946 -0.164945 0)
(9.99722 -0.120072 0)
(9.64375 -0.102482 0)
(9.48199 -0.0805596 0)
(9.21771 -0.0671932 0)
(9.10451 -0.0594197 0)
(8.898 -0.0483282 0)
(8.81462 -0.0598227 0)
(8.57013 -0.0584369 0)
(8.54536 -0.054023 0)
(8.24672 -0.0831081 0)
(8.15937 -0.0931149 0)
(7.80076 -0.125829 0)
(7.59083 -0.151944 0)
(7.08486 -0.189944 0)
(10.1554 -0.948463 0)
(10.567 -0.66557 0)
(10.2751 -0.334072 0)
(9.61689 -0.20993 0)
(9.16118 -0.144266 0)
(8.64985 -0.112612 0)
(8.39449 -0.0802913 0)
(8.045 -0.0671168 0)
(7.87133 -0.0523334 0)
(7.62818 -0.0432842 0)
(7.51438 -0.0386672 0)
(7.33176 -0.0312388 0)
(7.24435 -0.039606 0)
(7.02942 -0.0403636 0)
(6.99147 -0.0363621 0)
(6.72326 -0.0580173 0)
(6.62359 -0.066027 0)
(6.28826 -0.0894159 0)
(6.07593 -0.108115 0)
(5.58426 -0.133301 0)
(9.8533 -1.02247 0)
(9.3463 -0.575758 0)
(8.48392 -0.243167 0)
(7.62414 -0.130393 0)
(7.11998 -0.0793999 0)
(6.66609 -0.0611271 0)
(6.42992 -0.0433333 0)
(6.14038 -0.0358149 0)
(5.99326 -0.0278845 0)
(5.7983 -0.0229304 0)
(5.70435 -0.0210063 0)
(5.56057 -0.0166054 0)
(5.48498 -0.0221674 0)
(5.31166 -0.0240539 0)
(5.26849 -0.0204564 0)
(5.04954 -0.0349087 0)
(4.94636 -0.0403569 0)
(4.6549 -0.0550367 0)
(4.45453 -0.0660288 0)
(4.00422 -0.0863602 0)
(8.59664 -0.87209 0)
(6.95116 -0.382832 0)
(5.81616 -0.122392 0)
(5.0459 -0.051384 0)
(4.66826 -0.0267999 0)
(4.36007 -0.0222902 0)
(4.19336 -0.0158161 0)
(3.99849 -0.0128883 0)
(3.89968 -0.0100354 0)
(3.77115 -0.0082117 0)
(3.70773 -0.00806396 0)
(3.61308 -0.00594265 0)
(3.55967 -0.00896551 0)
(3.43804 -0.01084 0)
(3.39839 -0.00810536 0)
(3.24523 -0.0157633 0)
(3.15181 -0.018638 0)
(2.93014 -0.0258 0)
(2.75881 -0.0304242 0)
(2.40709 -0.0441131 0)
(5.32724 -0.309493 0)
(2.9859 -0.0605603 0)
(2.19849 0.00155487 0)
(1.84366 0.00328682 0)
(1.71142 0.00180514 0)
(1.60557 -0.000302975 0)
(1.54193 4.89771e-05 0)
(1.47134 7.50706e-05 0)
(1.43601 8.70515e-06 0)
(1.3902 5.01581e-05 0)
(1.36572 -0.000418443 0)
(1.33088 0.000183417 0)
(1.30988 -0.000539535 0)
(1.25715 -0.00130284 0)
(1.23406 -6.28708e-05 0)
(1.17011 -0.00174426 0)
(1.11507 -0.00205025 0)
(1.00655 -0.00327481 0)
(0.90832 -0.00361538 0)
(0.739316 -0.00369505 0)
(2.11925 0.0265713 0)
(2.49885 0.33725 0)
(3.70023 0.19536 0)
(4.97774 -0.662761 0)
(5.12677 -1.62122 0)
(6.06593 -2.12977 0)
(6.04552 -2.86041 0)
(6.25859 -3.38185 0)
(6.10295 -3.59849 0)
(5.2386 -3.53877 0)
(4.99884 -3.33004 0)
(3.43581 -2.83392 0)
(3.51479 -2.25562 0)
(1.51106 -1.68735 0)
(0.966133 0.210573 0)
(2.09627 1.47818 0)
(3.74208 3.62762 0)
(2.62679 5.69198 0)
(5.76289 4.05385 0)
(5.38445 2.89089 0)
(5.69433 3.82102 0)
(6.86247 3.76334 0)
(7.36329 3.10614 0)
(7.37527 2.52518 0)
(7.62247 1.68197 0)
(7.81428 0.8265 0)
(8.13919 0.00206609 0)
(8.99659 -1.21256 0)
(9.29286 -1.91526 0)
(9.68727 -2.35583 0)
(10.7406 -3.27772 0)
(11.3535 -3.8803 0)
(11.9711 -4.38701 0)
(12.7834 -5.24265 0)
(13.2997 -5.80547 0)
(13.2107 -6.17998 0)
(12.8144 -6.43337 0)
(12.298 -6.36833 0)
(11.8123 -6.38836 0)
(11.2908 -6.39673 0)
(10.7145 -6.1614 0)
(10.2541 -6.08613 0)
(9.88028 -6.1153 0)
(9.29261 -5.87202 0)
(8.81279 -5.72517 0)
(8.56651 -5.83429 0)
(8.07303 -5.9988 0)
(7.88731 -6.33861 0)
(7.26614 -6.05426 0)
(6.19308 -5.46529 0)
(6.11285 -5.73949 0)
(6.02403 -6.72485 0)
(5.91604 -7.79736 0)
(6.0124 -8.12015 0)
(6.16432 -7.97172 0)
(6.15536 -8.00451 0)
(6.33734 -7.75725 0)
(6.85491 -6.85623 0)
(7.0898 -5.78581 0)
(7.06379 -4.78482 0)
(7.74211 -3.22016 0)
(8.06513 -1.50222 0)
(8.13244 -0.184721 0)
(8.53454 1.49286 0)
(8.85051 3.37802 0)
(8.95534 4.80744 0)
(8.94642 5.87385 0)
(8.95034 6.58001 0)
(8.77846 7.1068 0)
(8.53344 7.58652 0)
(8.15362 7.39538 0)
(7.81851 6.76981 0)
(7.68232 6.62825 0)
(7.37833 6.48364 0)
(6.82432 5.80904 0)
(6.95172 5.30124 0)
(6.82661 5.40173 0)
(7.05327 4.96199 0)
(6.36326 4.60824 0)
(6.70769 4.64376 0)
(6.69418 4.7886 0)
(6.55187 4.6955 0)
(6.82238 4.71085 0)
(6.92397 4.8461 0)
(7.16811 4.86425 0)
(7.23834 4.79036 0)
(7.37901 4.77196 0)
(7.49875 4.85369 0)
(7.82201 4.92973 0)
(8.0531 4.94749 0)
(8.38555 4.89102 0)
(8.61885 4.6029 0)
(9.03828 4.08784 0)
(9.16149 3.54642 0)
(9.22966 2.79126 0)
(9.08507 1.80068 0)
(8.94111 0.967924 0)
(8.90797 0.566695 0)
(8.80773 0.361013 0)
(8.32742 -0.291392 0)
(7.88875 -1.44892 0)
(7.39914 -2.19334 0)
(7.40411 -2.42106 0)
(6.93103 -2.73551 0)
(6.32878 -3.39123 0)
(5.52543 -4.17746 0)
(5.27825 -4.23635 0)
(5.08701 -3.77824 0)
(5.32283 -3.40713 0)
(4.84455 -3.21859 0)
(5.02051 -3.82009 0)
(4.05165 -4.31222 0)
(4.21365 -5.4212 0)
(3.33997 -5.43395 0)
(4.28327 -6.04119 0)
(3.95075 -5.79267 0)
(4.35834 -6.14536 0)
(4.09485 -5.91412 0)
(4.68544 -6.20177 0)
(4.66304 -6.01312 0)
(5.27361 -6.36855 0)
(5.73514 -6.63594 0)
(5.92262 -7.24909 0)
(6.30667 -7.24105 0)
(6.84214 -6.68124 0)
(7.13258 -6.18613 0)
(7.52744 -4.96237 0)
(7.94636 -3.13393 0)
(8.29455 -1.89824 0)
(8.67893 -0.624282 0)
(9.12258 1.24493 0)
(9.33968 2.85058 0)
(9.63706 4.12027 0)
(10.0245 5.59215 0)
(10.1685 6.80411 0)
(10.0198 7.2717 0)
(9.92213 7.46304 0)
(10.1359 7.85098 0)
(10.4218 8.30361 0)
(10.5711 8.49871 0)
(10.5191 8.28383 0)
(10.6422 7.78674 0)
(10.6317 7.28418 0)
(10.7404 6.9676 0)
(11.2225 6.54448 0)
(11.5435 5.63946 0)
(11.6344 4.56334 0)
(11.9174 3.56612 0)
(11.8356 2.23248 0)
(11.9427 0.794219 0)
(11.485 -0.479721 0)
(11.08 -1.43228 0)
(10.4992 -2.33184 0)
(10.2759 -3.14713 0)
(9.6254 -3.8412 0)
(9.31265 -4.01636 0)
(8.43928 -3.76972 0)
(8.01451 -3.03906 0)
(7.28835 -2.32179 0)
(6.96112 -1.60266 0)
(6.52939 -1.17065 0)
(6.38929 -0.829049 0)
(6.13185 -0.659698 0)
(6.08325 -0.468367 0)
(5.87513 -0.340955 0)
(5.8762 -0.17855 0)
(5.69751 -0.062572 0)
(5.75272 0.0997908 0)
(5.58211 0.183186 0)
(5.70672 0.328549 0)
(5.48611 0.381363 0)
(5.74722 0.518033 0)
(5.43364 0.499761 0)
(5.86024 0.67358 0)
(5.35177 0.623628 0)
(5.98705 0.823648 0)
(5.33578 0.742938 0)
(6.0683 0.931859 0)
(5.43482 0.932223 0)
(6.02074 1.04444 0)
(5.62967 1.18703 0)
(5.88823 1.12406 0)
(5.89114 1.4517 0)
(5.72654 1.3192 0)
(6.0643 1.67113 0)
(5.71578 1.65646 0)
(6.07128 1.8265 0)
(5.92211 2.0859 0)
(5.91313 2.08587 0)
(6.14092 2.43838 0)
(5.81436 2.58107 0)
(6.18933 2.75182 0)
(5.86804 3.25879 0)
(5.7069 3.39836 0)
(5.85461 3.83245 0)
(5.72713 4.43841 0)
(5.60417 4.78069 0)
(5.53981 5.81911 0)
(6.01244 6.86168 0)
(3.33163 9.96402 0)
(4.40821 0.0898126 0)
(4.43414 0.0624403 0)
(5.02455 -0.217014 0)
(6.52055 -0.856327 0)
(6.66502 -1.75885 0)
(7.39601 -2.26146 0)
(7.61846 -2.86584 0)
(7.37225 -3.3005 0)
(7.54642 -3.35461 0)
(6.26067 -3.29573 0)
(6.3807 -2.97664 0)
(4.48523 -2.55165 0)
(4.7708 -1.8688 0)
(3.20953 -1.19755 0)
(1.63984 0.190454 0)
(3.25903 0.872827 0)
(4.28915 3.23887 0)
(3.83307 5.45201 0)
(6.76193 3.96502 0)
(5.87318 2.77768 0)
(5.88924 3.47609 0)
(7.13094 3.5466 0)
(7.40365 2.97579 0)
(7.23948 2.51897 0)
(7.85789 1.62132 0)
(8.35744 0.608105 0)
(8.758 -0.247979 0)
(9.69483 -1.40427 0)
(10.1355 -2.14794 0)
(10.6927 -2.67856 0)
(11.6749 -3.56025 0)
(12.2549 -4.12277 0)
(12.9304 -4.69131 0)
(13.4929 -5.45702 0)
(13.5872 -5.8124 0)
(13.2403 -6.06073 0)
(12.7994 -6.25267 0)
(12.3309 -6.16166 0)
(11.8404 -6.18385 0)
(11.3031 -6.18519 0)
(10.7692 -5.94307 0)
(10.3015 -5.88908 0)
(9.89353 -5.91882 0)
(9.30862 -5.66709 0)
(8.85537 -5.55493 0)
(8.54275 -5.66736 0)
(8.01588 -5.86982 0)
(7.8519 -6.16078 0)
(6.98217 -5.69644 0)
(6.03049 -5.19595 0)
(6.06302 -5.68403 0)
(5.74612 -6.67713 0)
(5.557 -7.78597 0)
(5.64019 -8.13515 0)
(5.78034 -7.99227 0)
(5.74916 -8.06202 0)
(5.89536 -7.86332 0)
(6.3174 -6.99096 0)
(6.54308 -5.88983 0)
(6.55045 -4.90403 0)
(7.22897 -3.3605 0)
(7.49477 -1.63819 0)
(7.57467 -0.292484 0)
(7.9858 1.40038 0)
(8.25737 3.29993 0)
(8.33319 4.77812 0)
(8.37852 5.89666 0)
(8.46099 6.63479 0)
(8.35066 7.19224 0)
(8.15523 7.69074 0)
(7.81489 7.52867 0)
(7.52672 6.88778 0)
(7.43167 6.7284 0)
(7.21775 6.60979 0)
(6.63351 5.91277 0)
(6.79653 5.30234 0)
(6.69772 5.39633 0)
(7.02353 5.0343 0)
(6.32158 4.66013 0)
(6.52899 4.61516 0)
(6.65641 4.77477 0)
(6.49032 4.68662 0)
(6.75266 4.63395 0)
(6.90406 4.74066 0)
(7.18186 4.7863 0)
(7.32309 4.74513 0)
(7.4956 4.716 0)
(7.5591 4.77128 0)
(7.88795 4.83357 0)
(8.12969 4.81879 0)
(8.43378 4.76812 0)
(8.6972 4.49139 0)
(9.04001 3.97809 0)
(9.247 3.50436 0)
(9.3244 2.81214 0)
(9.20091 1.86137 0)
(9.00312 1.00195 0)
(8.94956 0.590949 0)
(8.96225 0.448084 0)
(8.61944 -0.0953839 0)
(8.25407 -1.27288 0)
(7.76921 -2.08901 0)
(7.75464 -2.32817 0)
(7.31474 -2.50578 0)
(6.72112 -3.1154 0)
(5.90484 -3.92658 0)
(5.49988 -4.15309 0)
(5.34528 -3.78304 0)
(5.47323 -3.32922 0)
(5.16925 -3.16849 0)
(5.20693 -3.61727 0)
(4.33266 -4.17445 0)
(4.45108 -5.233 0)
(3.36605 -5.4537 0)
(4.42133 -6.16523 0)
(3.86263 -5.76659 0)
(4.42701 -6.17177 0)
(4.00329 -5.9677 0)
(4.51735 -6.28992 0)
(4.45651 -6.1495 0)
(5.14993 -6.60794 0)
(5.44073 -6.75139 0)
(5.61137 -7.34993 0)
(5.95302 -7.42241 0)
(6.45543 -6.8439 0)
(6.68202 -6.29011 0)
(7.02561 -5.11463 0)
(7.514 -3.34704 0)
(7.92192 -2.04575 0)
(8.30708 -0.741505 0)
(8.64081 1.0937 0)
(8.86706 2.70714 0)
(9.16169 4.00992 0)
(9.60849 5.44976 0)
(9.79387 6.74703 0)
(9.73684 7.30539 0)
(9.62291 7.45617 0)
(9.88504 7.7499 0)
(10.1868 8.2455 0)
(10.5227 8.49385 0)
(10.5436 8.28192 0)
(10.4317 7.73996 0)
(10.6757 7.23899 0)
(10.9471 6.88006 0)
(11.0209 6.37147 0)
(11.5973 5.52065 0)
(11.7557 4.52309 0)
(11.7763 3.50236 0)
(12.0567 2.24459 0)
(11.8106 0.854588 0)
(11.6731 -0.287674 0)
(10.9729 -1.26587 0)
(10.8098 -2.14726 0)
(10.2217 -3.01034 0)
(9.98386 -3.61251 0)
(9.23451 -3.80456 0)
(8.63785 -3.47354 0)
(8.01205 -2.80944 0)
(7.28872 -2.07535 0)
(7.05507 -1.45359 0)
(6.42866 -1.03077 0)
(6.54483 -0.761837 0)
(5.99166 -0.576566 0)
(6.26555 -0.434571 0)
(5.71467 -0.271725 0)
(6.05357 -0.169376 0)
(5.55715 -0.00299756 0)
(5.89537 0.0802446 0)
(5.49422 0.24812 0)
(5.76945 0.283742 0)
(5.50998 0.437929 0)
(5.7028 0.436083 0)
(5.59843 0.587704 0)
(5.65048 0.578542 0)
(5.72109 0.700762 0)
(5.60741 0.694815 0)
(5.86102 0.847047 0)
(5.56397 0.839765 0)
(6.03725 0.987685 0)
(5.56554 0.968992 0)
(6.12958 1.15316 0)
(5.66265 1.2017 0)
(6.05599 1.33712 0)
(5.90703 1.4669 0)
(5.89904 1.48685 0)
(6.19367 1.77677 0)
(5.79388 1.7567 0)
(6.28541 2.02194 0)
(5.96285 2.16917 0)
(6.10562 2.29056 0)
(6.23805 2.6355 0)
(5.93288 2.75019 0)
(6.41891 3.0187 0)
(6.25093 3.46259 0)
(6.04503 3.77132 0)
(6.25216 4.3117 0)
(5.97547 4.96106 0)
(5.49601 6.15543 0)
(7.25643 6.57015 0)
(4.74929 10.7771 0)
(6.31075 -0.0599768 0)
(6.74217 -0.125581 0)
(6.80338 -0.521112 0)
(8.13851 -1.13038 0)
(8.32891 -1.90806 0)
(8.62882 -2.42734 0)
(9.10134 -2.88581 0)
(8.30324 -3.26439 0)
(8.70427 -3.18924 0)
(7.30276 -3.04362 0)
(7.50461 -2.69589 0)
(5.69618 -2.13986 0)
(5.66031 -1.67604 0)
(5.10949 -0.719435 0)
(2.77121 0.341726 0)
(4.48942 0.457801 0)
(4.43076 2.54952 0)
(4.99288 5.02147 0)
(7.80276 3.94031 0)
(6.85193 2.86031 0)
(6.23424 3.3149 0)
(7.38129 3.46641 0)
(7.73133 2.93182 0)
(7.58765 2.46219 0)
(8.60953 1.39345 0)
(9.3266 0.275088 0)
(9.71171 -0.522954 0)
(10.5799 -1.62189 0)
(11.1072 -2.4161 0)
(11.7821 -3.00956 0)
(12.6237 -3.82074 0)
(13.1242 -4.34254 0)
(13.6817 -4.89799 0)
(13.8536 -5.49844 0)
(13.6056 -5.70769 0)
(13.2194 -5.92672 0)
(12.8229 -6.06829 0)
(12.3229 -5.94212 0)
(11.841 -5.98267 0)
(11.3181 -5.97649 0)
(10.7794 -5.74166 0)
(10.3401 -5.71034 0)
(9.94938 -5.70989 0)
(9.32585 -5.44214 0)
(8.89027 -5.38396 0)
(8.53777 -5.49735 0)
(8.01833 -5.71549 0)
(7.78604 -5.91816 0)
(6.66984 -5.3299 0)
(5.97381 -4.99697 0)
(5.92585 -5.59698 0)
(5.45844 -6.58612 0)
(5.29553 -7.77567 0)
(5.36097 -8.15786 0)
(5.45248 -8.02536 0)
(5.37659 -8.11819 0)
(5.48723 -7.93145 0)
(5.76149 -7.09661 0)
(5.98075 -5.98245 0)
(6.01054 -5.00364 0)
(6.67082 -3.49243 0)
(6.86957 -1.78486 0)
(6.97662 -0.391218 0)
(7.41071 1.33983 0)
(7.64948 3.2065 0)
(7.73177 4.65861 0)
(7.82998 5.82061 0)
(7.93543 6.63702 0)
(7.84554 7.25734 0)
(7.70648 7.77974 0)
(7.44862 7.63837 0)
(7.23276 6.9807 0)
(7.16953 6.80811 0)
(7.04727 6.71789 0)
(6.44804 6.00227 0)
(6.64442 5.28882 0)
(6.56993 5.36883 0)
(6.97375 5.09806 0)
(6.32179 4.74285 0)
(6.35766 4.59268 0)
(6.57768 4.72922 0)
(6.41796 4.67491 0)
(6.65693 4.55246 0)
(6.81556 4.61714 0)
(7.16048 4.6898 0)
(7.3808 4.68087 0)
(7.59434 4.66551 0)
(7.67739 4.69504 0)
(7.91681 4.74122 0)
(8.2072 4.7046 0)
(8.47004 4.63922 0)
(8.73604 4.38044 0)
(9.06296 3.87207 0)
(9.30291 3.4272 0)
(9.43397 2.82136 0)
(9.28213 1.92937 0)
(9.01286 1.05764 0)
(8.92307 0.583993 0)
(9.03003 0.497579 0)
(8.86463 0.0419653 0)
(8.59059 -1.10439 0)
(8.13095 -2.00943 0)
(8.10246 -2.22727 0)
(7.65286 -2.30605 0)
(7.12658 -2.80999 0)
(6.22461 -3.65198 0)
(5.78443 -4.05237 0)
(5.53709 -3.75357 0)
(5.62621 -3.30217 0)
(5.45057 -3.07607 0)
(5.35393 -3.45317 0)
(4.66929 -3.99185 0)
(4.60133 -5.02119 0)
(3.59629 -5.48829 0)
(4.44245 -6.21964 0)
(3.79181 -5.78269 0)
(4.54313 -6.17752 0)
(3.82682 -5.9557 0)
(4.44186 -6.3754 0)
(4.26121 -6.28008 0)
(4.99597 -6.81232 0)
(5.12014 -6.84583 0)
(5.34409 -7.45648 0)
(5.59292 -7.56494 0)
(6.05481 -7.00898 0)
(6.22427 -6.37404 0)
(6.55553 -5.27226 0)
(7.03256 -3.57673 0)
(7.534 -2.20735 0)
(7.90446 -0.850109 0)
(8.17581 0.982381 0)
(8.36257 2.57027 0)
(8.6853 3.87055 0)
(9.13116 5.32641 0)
(9.39349 6.64574 0)
(9.40618 7.28282 0)
(9.35049 7.41003 0)
(9.57467 7.6035 0)
(9.95909 8.04326 0)
(10.3108 8.39389 0)
(10.5333 8.29112 0)
(10.5623 7.73943 0)
(10.4639 7.13566 0)
(10.9008 6.78371 0)
(11.1846 6.26461 0)
(11.3568 5.37479 0)
(11.8158 4.46318 0)
(11.7881 3.46358 0)
(11.9416 2.2109 0)
(11.95 0.962451 0)
(11.4775 -0.148426 0)
(11.197 -1.07188 0)
(10.728 -2.02544 0)
(10.5078 -2.82713 0)
(9.99823 -3.41879 0)
(9.31489 -3.5277 0)
(8.76859 -3.19652 0)
(7.82935 -2.54726 0)
(7.55411 -1.84856 0)