/*--------------------------------*- C++ -*----------------------------------*\
| =========                 |                                                 |
| \\      /  F ield         | OpenFOAM: The Open Source CFD Toolbox           |
|  \\    /   O peration     | Version:  2.4.0                                 |
|   \\  /    A nd           | Web:      www.OpenFOAM.org                      |
|    \\/     M anipulation  |                                                 |
\*---------------------------------------------------------------------------*/
FoamFile
{
    version     2.0;
    format      ascii;
    class       volScalarField;
    location    "0.082";
    object      nut;
}
// * * * * * * * * * * * * * * * * * * * * * * * * * * * * * * * * * * * * * //

dimensions      [0 2 -1 0 0 0 0];

internalField   nonuniform List<scalar> 
17600
(
0.00010783
0.00012451
0.000135993
0.000143228
0.000147274
0.000149058
0.000149311
0.000148581
0.000147257
0.000145609
0.000143819
0.000142008
0.000140254
0.000138609
0.000137102
0.00013575
0.000134557
0.000133522
0.000132621
0.000131995
0.000329173
0.000212655
0.000162185
0.00013586
0.000121229
0.000113025
0.000108733
0.000107059
0.000107297
0.000109044
0.000112053
0.000116155
0.000121216
0.000127109
0.000133698
0.000140832
0.000148345
0.000156059
0.000163855
0.000169551
0.000659514
0.000505622
0.000400841
0.000328642
0.000277966
0.000241566
0.000214856
0.000194963
0.000180061
0.000168963
0.00016088
0.000155282
0.000151804
0.000150191
0.000150253
0.000151841
0.00015482
0.000159054
0.000164362
0.000169673
0.000798066
0.000719144
0.000639471
0.000568171
0.000507729
0.000457533
0.000415973
0.000381395
0.000352386
0.000327824
0.000306848
0.000288811
0.000273239
0.00025979
0.00024823
0.000238403
0.000230211
0.000223579
0.000218348
0.000213799
0.000836034
0.000805282
0.000764927
0.000720395
0.00067586
0.000633741
0.000595094
0.00056017
0.000528805
0.000500655
0.000475318
0.0004524
0.000431542
0.000412439
0.000394837
0.000378535
0.000363381
0.000349255
0.000335944
0.000322967
0.000845497
0.000833333
0.000815252
0.00079227
0.0007661
0.00073842
0.000710527
0.000683286
0.000657208
0.000632544
0.000609371
0.000587658
0.000567312
0.000548205
0.000530201
0.000513159
0.000496942
0.000481414
0.000466361
0.000451506
0.000847815
0.000841759
0.000833143
0.000821665
0.000807553
0.000791359
0.000773738
0.000755308
0.000736577
0.00071793
0.000699633
0.000681855
0.000664689
0.000648172
0.000632302
0.000617047
0.000602357
0.000588158
0.000574324
0.000560751
0.000848382
0.000844198
0.000839116
0.000832753
0.00082492
0.000815628
0.000805039
0.000793399
0.000780981
0.000768051
0.000754838
0.000741534
0.000728281
0.000715187
0.000702322
0.000689728
0.000677423
0.000665402
0.000653622
0.000642091
0.00084852
0.000844889
0.000841035
0.000836725
0.000831764
0.000826029
0.000819477
0.000812137
0.00080409
0.00079545
0.00078634
0.000776887
0.000767202
0.000757385
0.000747518
0.000737664
0.000727872
0.00071817
0.000708569
0.000699132
0.000848553
0.000845082
0.000841635
0.000838096
0.000834345
0.000830269
0.000825787
0.000820851
0.000815449
0.000809598
0.000803336
0.000796716
0.000789798
0.000782644
0.000775312
0.000767856
0.000760321
0.000752745
0.000745157
0.000737639
0.00084856
0.000845133
0.000841817
0.000838556
0.000835284
0.000831931
0.000828429
0.000824725
0.000820777
0.000816564
0.000812078
0.000807326
0.000802327
0.000797104
0.000791688
0.000786109
0.000780398
0.000774583
0.000768693
0.000762807
0.00084856
0.000845146
0.000841871
0.000838706
0.000835616
0.000832561
0.000829497
0.000826382
0.000823178
0.000819856
0.000816392
0.000812773
0.000808994
0.000805056
0.000800965
0.000796734
0.000792375
0.000787905
0.000783343
0.000778757
0.00084856
0.000845148
0.000841885
0.000838752
0.000835729
0.000832792
0.000829914
0.000827067
0.000824224
0.000821357
0.000818445
0.000815468
0.000812413
0.00080927
0.000806034
0.000802703
0.000799279
0.000795767
0.000792176
0.000788562
0.000848559
0.000845147
0.000841887
0.000838765
0.000835766
0.000832874
0.000830072
0.000827342
0.000824664
0.000822019
0.00081939
0.000816758
0.000814109
0.00081143
0.000808712
0.000805947
0.000803131
0.000800261
0.000797339
0.00079441
0.000848558
0.000845146
0.000841887
0.000838767
0.000835776
0.000832901
0.000830129
0.000827448
0.000824844
0.000822303
0.000819811
0.000817356
0.000814923
0.000812503
0.000810084
0.000807657
0.000805215
0.000802752
0.000800267
0.000797799
0.000848557
0.000845145
0.000841885
0.000838767
0.000835778
0.000832908
0.000830148
0.000827487
0.000824914
0.00082242
0.000819993
0.000817625
0.000815304
0.00081302
0.000810766
0.000808531
0.00080631
0.000804094
0.000801882
0.000799707
0.000848557
0.000845144
0.000841884
0.000838765
0.000835777
0.00083291
0.000830153
0.0008275
0.00082494
0.000822466
0.00082007
0.000817742
0.000815476
0.000813262
0.000811095
0.000808966
0.000806869
0.000804797
0.000802746
0.00080075
0.000848557
0.000845143
0.000841883
0.000838764
0.000835776
0.000832909
0.000830154
0.000827504
0.000824949
0.000822484
0.0008201
0.000817791
0.000815551
0.000813372
0.000811249
0.000809175
0.000807145
0.000805152
0.000803194
0.000801302
0.000848556
0.000845143
0.000841883
0.000838763
0.000835775
0.000832908
0.000830154
0.000827504
0.000824952
0.000822489
0.000820111
0.000817811
0.000815582
0.00081342
0.000811318
0.000809271
0.000807275
0.000805323
0.000803412
0.000801576
0.000848556
0.000845143
0.000841882
0.000838763
0.000835774
0.000832908
0.000830153
0.000827504
0.000824952
0.000822491
0.000820115
0.000817817
0.000815593
0.000813437
0.000811344
0.000809308
0.000807325
0.00080539
0.0008035
0.000801688
0.000848556
0.000845143
0.000841882
0.000838763
0.000835774
0.000832908
0.000830153
0.000827504
0.000824952
0.000822491
0.000820115
0.000817817
0.000815593
0.000813437
0.000811344
0.000809308
0.000807325
0.00080539
0.0008035
0.000801687
0.000848556
0.000845143
0.000841883
0.000838763
0.000835775
0.000832908
0.000830154
0.000827504
0.000824952
0.000822489
0.000820111
0.000817811
0.000815582
0.00081342
0.000811318
0.000809271
0.000807274
0.000805322
0.000803411
0.000801573
0.000848557
0.000845143
0.000841883
0.000838764
0.000835776
0.000832909
0.000830154
0.000827504
0.000824949
0.000822484
0.0008201
0.000817791
0.000815551
0.000813372
0.000811249
0.000809176
0.000807145
0.000805152
0.000803192
0.000801297
0.000848557
0.000845144
0.000841884
0.000838765
0.000835777
0.00083291
0.000830153
0.0008275
0.00082494
0.000822466
0.00082007
0.000817742
0.000815476
0.000813263
0.000811095
0.000808966
0.000806869
0.000804796
0.000802744
0.000800743
0.000848557
0.000845145
0.000841885
0.000838767
0.000835778
0.000832908
0.000830148
0.000827487
0.000824914
0.00082242
0.000819993
0.000817625
0.000815304
0.00081302
0.000810766
0.000808532
0.00080631
0.000804094
0.000801879
0.000799698
0.000848558
0.000845146
0.000841887
0.000838767
0.000835776
0.000832901
0.000830129
0.000827448
0.000824844
0.000822303
0.000819811
0.000817356
0.000814923
0.000812503
0.000810084
0.000807657
0.000805215
0.000802753
0.000800265
0.00079779
0.000848559
0.000845147
0.000841887
0.000838765
0.000835766
0.000832874
0.000830072
0.000827342
0.000824664
0.000822019
0.00081939
0.000816758
0.000814109
0.00081143
0.000808712
0.000805948
0.000803132
0.000800262
0.000797337
0.000794403
0.00084856
0.000845148
0.000841885
0.000838752
0.000835729
0.000832792
0.000829914
0.000827067
0.000824224
0.000821357
0.000818445
0.000815468
0.000812413
0.00080927
0.000806034
0.000802704
0.000799281
0.00079577
0.000792178
0.000788562
0.00084856
0.000845146
0.000841871
0.000838706
0.000835616
0.000832561
0.000829497
0.000826382
0.000823178
0.000819856
0.000816392
0.000812773
0.000808994
0.000805056
0.000800966
0.000796735
0.000792378
0.000787912
0.000783352
0.000778774
0.00084856
0.000845133
0.000841817
0.000838556
0.000835284
0.000831931
0.000828429
0.000824725
0.000820777
0.000816564
0.000812078
0.000807326
0.000802327
0.000797105
0.000791689
0.000786111
0.000780403
0.000774595
0.000768715
0.000762861
0.000848553
0.000845082
0.000841635
0.000838096
0.000834345
0.000830269
0.000825787
0.000820851
0.000815449
0.000809598
0.000803336
0.000796716
0.000789798
0.000782645
0.000775314
0.00076786
0.00076033
0.000752766
0.000745201
0.000737761
0.00084852
0.000844889
0.000841035
0.000836725
0.000831764
0.000826029
0.000819477
0.000812137
0.00080409
0.000795449
0.00078634
0.000776887
0.000767203
0.000757386
0.000747521
0.00073767
0.000727885
0.000718204
0.000708652
0.000699383
0.000848382
0.000844198
0.000839116
0.000832753
0.00082492
0.000815628
0.000805039
0.000793399
0.000780981
0.00076805
0.000754838
0.000741534
0.000728282
0.000715188
0.000702325
0.000689736
0.000677443
0.000665455
0.000653769
0.000642572
0.000847815
0.000841759
0.000833143
0.000821665
0.000807553
0.000791359
0.000773738
0.000755308
0.000736577
0.00071793
0.000699633
0.000681855
0.00066469
0.000648174
0.000632307
0.000617059
0.000602385
0.000588238
0.00057457
0.000561629
0.000845497
0.000833333
0.000815252
0.00079227
0.0007661
0.00073842
0.000710527
0.000683286
0.000657208
0.000632544
0.000609371
0.000587659
0.000567313
0.000548208
0.000530208
0.000513174
0.00049698
0.000481525
0.000466738
0.000452989
0.000836034
0.000805282
0.000764927
0.000720394
0.00067586
0.000633741
0.000595094
0.000560169
0.000528804
0.000500655
0.000475318
0.0004524
0.000431544
0.000412443
0.000394844
0.000378552
0.000363424
0.000349381
0.000336403
0.000324986
0.000798066
0.000719144
0.00063947
0.00056817
0.000507729
0.000457532
0.000415973
0.000381395
0.000352386
0.000327824
0.000306848
0.000288812
0.00027324
0.000259792
0.000248235
0.000238415
0.00023024
0.000223663
0.000218662
0.000215542
0.000659514
0.000505622
0.000400841
0.000328641
0.000277966
0.000241566
0.000214856
0.000194963
0.000180061
0.000168962
0.00016088
0.000155282
0.000151805
0.000150191
0.000150254
0.000151844
0.000154829
0.000159079
0.000164448
0.000170925
0.000329173
0.000212655
0.000162185
0.00013586
0.000121229
0.000113025
0.000108733
0.000107059
0.000107297
0.000109044
0.000112053
0.000116155
0.000121216
0.000127109
0.000133698
0.000140833
0.000148349
0.000156076
0.000163843
0.000171616
0.00010783
0.00012451
0.000135993
0.000143228
0.000147274
0.000149058
0.000149311
0.000148581
0.000147257
0.000145609
0.000143819
0.000142008
0.000140254
0.000138609
0.000137103
0.000135751
0.00013456
0.000133527
0.000132649
0.000131889
0.000169807
0.000217352
0.000271264
0.000329118
0.000387924
0.000445567
0.000501177
0.000554779
0.000606837
0.000657919
0.000708487
0.000758835
0.00080912
0.000859424
0.000909816
0.000960373
0.00101117
0.0010623
0.00111381
0.00116579
0.00121827
0.00127132
0.001325
0.00137936
0.00143446
0.00149035
0.00154711
0.00160477
0.0016634
0.00172304
0.00178373
0.00184549
0.00190835
0.00197232
0.00203741
0.00210361
0.00217092
0.00223929
0.00230871
0.00237911
0.00245046
0.00252268
0.00259572
0.00266951
0.00274396
0.00281901
0.00289458
0.00297058
0.00304694
0.00312358
0.00320042
0.00327738
0.00335438
0.00343136
0.00350826
0.00358499
0.00366151
0.00373776
0.00381369
0.00388925
0.00396441
0.00403913
0.00411337
0.00418711
0.00426032
0.00433298
0.00440507
0.00447658
0.00454748
0.00461775
0.00468737
0.00475632
0.00482458
0.0048921
0.00495887
0.00502483
0.00508995
0.00515416
0.00521742
0.00527966
0.0053408
0.00540077
0.00545949
0.00551686
0.00557281
0.00562721
0.00567999
0.00573103
0.00578023
0.0058275
0.00587272
0.0059158
0.00595665
0.00599517
0.00603129
0.00606493
0.00609602
0.00612451
0.00615035
0.00617352
0.00619397
0.00621171
0.00622674
0.00623907
0.00624874
0.00625577
0.00626022
0.00626217
0.00626169
0.00625887
0.00625381
0.00624663
0.00623746
0.00622643
0.00621369
0.00619941
0.00618376
0.00616692
0.00614909
0.00613048
0.00611132
0.00609184
0.00607231
0.006053
0.00603422
0.00601627
0.00599951
0.00598432
0.00597112
0.00596035
0.00595253
0.00594821
0.00594801
0.00595263
0.00596282
0.00597946
0.0060035
0.00603602
0.00607818
0.0061313
0.00619675
0.00627605
0.00637072
0.00648234
0.00661237
0.00676217
0.0069328
0.00712492
0.0073387
0.00757363
0.00782852
0.00810139
0.00838956
0.00868969
0.00899799
0.00931036
0.00962265
0.00993085
0.0102313
0.0105207
0.0107966
0.0110568
0.0113001
0.0115255
0.0117329
0.0119224
0.0120946
0.0122503
0.0123906
0.0125167
0.0126301
0.0127323
0.012825
0.0129098
0.0129884
0.0130626
0.0131343
0.0132053
0.0132777
0.0133538
0.0134361
0.0135272
0.0136306
0.01375
0.0138898
0.0140546
0.0142492
0.0144774
0.0147403
0.0150339
0.0153449
0.0156453
0.0158865
0.0159901
0.0158356
0.0152408
0.0139282
0.0114866
0.00744124
0.00133516
0.000174585
0.000183706
0.000198294
0.000219568
0.000247885
0.000282923
0.000323741
0.000369006
0.000417246
0.000467111
0.000517555
0.000567924
0.000617929
0.000667556
0.000716945
0.000766279
0.000815711
0.000865336
0.000915194
0.000965297
0.00101565
0.00106628
0.00111723
0.00116857
0.00122035
0.00127264
0.0013255
0.00137899
0.00143315
0.00148803
0.00154367
0.00160011
0.00165739
0.00171552
0.00177455
0.00183448
0.00189533
0.00195709
0.00201975
0.0020833
0.00214771
0.00221294
0.00227897
0.00234574
0.00241322
0.00248135
0.00255007
0.00261932
0.00268906
0.00275921
0.00282971
0.00290051
0.00297154
0.00304275
0.00311407
0.00318546
0.00325685
0.00332821
0.00339949
0.00347064
0.00354163
0.00361242
0.00368299
0.00375329
0.00382332
0.00389304
0.00396243
0.00403148
0.00410015
0.00416844
0.00423631
0.00430375
0.00437073
0.0044372
0.00450315
0.00456852
0.00463327
0.00469735
0.0047607
0.00482325
0.00488493
0.00494567
0.00500538
0.00506396
0.00512133
0.00517738
0.005232
0.0052851
0.00533657
0.00538629
0.00543415
0.00548006
0.0055239
0.00556559
0.00560502
0.00564211
0.00567679
0.00570898
0.00573863
0.00576569
0.00579013
0.00581191
0.00583103
0.00584748
0.00586129
0.00587248
0.00588109
0.00588716
0.00589078
0.005892
0.00589093
0.00588767
0.00588232
0.00587502
0.00586589
0.0058551
0.0058428
0.00582915
0.00581435
0.00579859
0.00578209
0.00576505
0.00574773
0.00573039
0.00571329
0.00569674
0.00568106
0.00566659
0.00565373
0.00564289
0.00563454
0.00562918
0.0056274
0.00562982
0.00563715
0.00565021
0.00566988
0.00569717
0.00573322
0.00577926
0.00583667
0.00590694
0.00599167
0.00609251
0.00621113
0.0063491
0.00650783
0.00668843
0.00689155
0.00711727
0.00736495
0.00763317
0.00791971
0.00822156
0.0085351
0.00885624
0.00918063
0.00950394
0.00982204
0.0101312
0.0104283
0.0107108
0.0109767
0.0112249
0.0114547
0.011666
0.0118592
0.012035
0.0121944
0.0123385
0.0124688
0.0125868
0.0126942
0.0127926
0.012884
0.0129702
0.013053
0.0131345
0.0132169
0.0133023
0.0133935
0.0134934
0.0136052
0.013733
0.0138812
0.0140547
0.0142585
0.014497
0.0147716
0.015079
0.0154063
0.0157262
0.0159903
0.0161203
0.0159962
0.0154377
0.0141749
0.0118356
0.00798499
0.00222665
0.000171572
0.000173846
0.000176866
0.000181161
0.000187214
0.000195822
0.000207848
0.00022407
0.000245103
0.000271273
0.000302567
0.000338633
0.00037884
0.000422367
0.000468332
0.000515904
0.000564398
0.000613327
0.000662406
0.000711523
0.000760683
0.000809955
0.000859422
0.000909154
0.000959195
0.00100957
0.00106029
0.00111136
0.00116282
0.00121468
0.00126699
0.0013198
0.00137315
0.00142708
0.00148163
0.00153683
0.00159269
0.00164924
0.00170649
0.00176444
0.00182308
0.00188242
0.00194245
0.00200314
0.00206449
0.00212645
0.00218901
0.00225212
0.00231576
0.00237988
0.00244445
0.00250941
0.00257474
0.00264038
0.00270629
0.00277244
0.00283879
0.00290529
0.00297191
0.00303861
0.00310537
0.00317215
0.00323893
0.00330568
0.00337237
0.00343899
0.00350552
0.00357193
0.0036382
0.00370432
0.00377025
0.00383598
0.00390148
0.0039667
0.00403163
0.00409621
0.00416041
0.00422416
0.0042874
0.00435009
0.00441213
0.00447346
0.00453398
0.00459361
0.00465225
0.00470979
0.00476614
0.00482117
0.00487478
0.00492686
0.00497728
0.00502594
0.00507272
0.00511753
0.00516024
0.00520078
0.00523906
0.00527498
0.00530848
0.0053395
0.00536799
0.00539391
0.00541724
0.00543796
0.00545607
0.00547159
0.00548453
0.00549494
0.00550286
0.00550837
0.00551153
0.00551244
0.0055112
0.00550791
0.0055027
0.00549571
0.00548708
0.00547697
0.00546555
0.005453
0.00543952
0.00542531
0.0054106
0.00539562
0.00538063
0.00536591
0.00535175
0.00533847
0.00532643
0.00531601
0.00530764
0.00530177
0.00529894
0.00529972
0.00530477
0.00531482
0.00533069
0.00535332
0.00538377
0.0054232
0.00547295
0.00553446
0.00560933
0.00569926
0.00580601
0.00593135
0.00607698
0.00624439
0.00643472
0.00664861
0.00688606
0.00714629
0.00742765
0.00772766
0.00804302
0.00836978
0.00870356
0.00903978
0.00937393
0.00970179
0.0100196
0.0103242
0.0106133
0.0108849
0.0111382
0.0113725
0.0115881
0.0117854
0.0119653
0.0121288
0.0122773
0.0124124
0.0125358
0.0126491
0.0127543
0.0128534
0.0129483
0.013041
0.013134
0.0132294
0.0133301
0.013439
0.0135596
0.0136959
0.0138525
0.0140345
0.0142473
0.0144954
0.0147809
0.0151008
0.015443
0.0157808
0.0160662
0.0162219
0.0161293
0.0156133
0.0144178
0.0122127
0.00862276
0.00341144
0.000212805
0.000212017
0.000211423
0.00021104
0.000210838
0.00021085
0.000211176
0.000211944
0.000213531
0.000216464
0.000221375
0.000228962
0.000239909
0.00025481
0.000274094
0.000297981
0.000326462
0.000359299
0.00039606
0.000436169
0.000478974
0.00052382
0.000570113
0.000617368
0.000665232
0.000713481
0.000762004
0.000810771
0.000859796
0.000909118
0.000958774
0.00100879
0.00105919
0.00110999
0.00116119
0.0012128
0.00126485
0.00131734
0.0013703
0.00142374
0.0014777
0.00153217
0.00158718
0.00164272
0.0016988
0.0017554
0.00181254
0.00187018
0.00192833
0.00198697
0.00204607
0.00210562
0.0021656
0.00222598
0.00228674
0.00234785
0.00240929
0.00247103
0.00253306
0.00259534
0.00265785
0.00272058
0.0027835
0.00284659
0.00290984
0.00297323
0.00303673
0.00310034
0.00316403
0.00322778
0.00329157
0.00335538
0.00341918
0.00348294
0.00354662
0.00361018
0.00367359
0.00373678
0.0037997
0.00386229
0.00392446
0.00398616
0.00404728
0.00410774
0.00416744
0.00422628
0.00428414
0.00434092
0.0043965
0.00445076
0.00450359
0.00455486
0.00460445
0.00465226
0.00469817
0.00474207
0.00478387
0.00482347
0.00486079
0.00489576
0.00492832
0.0049584
0.00498598
0.00501102
0.00503351
0.00505345
0.00507084
0.00508572
0.00509811
0.00510807
0.00511565
0.00512094
0.00512402
0.00512498
0.00512394
0.00512101
0.00511634
0.00511006
0.00510233
0.00509332
0.0050832
0.00507218
0.00506045
0.00504823
0.00503576
0.0050233
0.00501111
0.0049995
0.00498878
0.0049793
0.00497146
0.00496567
0.00496241
0.0049622
0.00496563
0.00497338
0.00498619
0.00500492
0.00503054
0.00506414
0.00510696
0.0051604
0.00522599
0.00530544
0.00540054
0.0055132
0.0056453
0.00579866
0.00597484
0.00617503
0.00639985
0.00664922
0.00692219
0.00721688
0.00753049
0.00785941
0.00819938
0.0085457
0.00889356
0.00923829
0.00957557
0.00990165
0.0102135
0.0105087
0.0107858
0.0110439
0.0112826
0.0115025
0.0117039
0.011888
0.0120559
0.0122092
0.0123495
0.0124787
0.0125987
0.0127114
0.0128191
0.0129238
0.0130279
0.0131338
0.0132444
0.0133626
0.0134921
0.013637
0.013802
0.0139923
0.0142135
0.0144705
0.0147657
0.0150968
0.0154523
0.0158062
0.0161115
0.0162922
0.0162328
0.0157655
0.0146532
0.0126084
0.00933881
0.00479565
0.000319366
0.000316005
0.000312872
0.000309964
0.000307217
0.000304555
0.000301904
0.000299181
0.000296316
0.000293169
0.000289761
0.000286161
0.000282534
0.000279168
0.000276485
0.000275025
0.000275412
0.0002783
0.000284305
0.000293953
0.000307634
0.000325574
0.000347826
0.000374275
0.000404653
0.000438571
0.000475558
0.000515103
0.000556702
0.000599896
0.000644296
0.0006896
0.000735592
0.000782131
0.000829136
0.000876572
0.000924426
0.000972697
0.00102139
0.00107051
0.00112006
0.00117004
0.00122045
0.00127129
0.00132256
0.00137428
0.00142644
0.00147906
0.00153213
0.00158566
0.00163964
0.00169408
0.00174898
0.00180432
0.00186009
0.0019163
0.00197293
0.00202998
0.00208742
0.00214526
0.00220347
0.00226206
0.00232101
0.0023803
0.00243993
0.00249989
0.00256016
0.00262073
0.00268159
0.00274272
0.00280409
0.0028657
0.00292752
0.00298951
0.00305165
0.00311389
0.0031762
0.00323852
0.0033008
0.00336298
0.00342498
0.00348673
0.00354815
0.00360914
0.00366961
0.00372946
0.00378857
0.00384683
0.00390412
0.00396033
0.00401532
0.00406899
0.00412119
0.00417181
0.00422074
0.00426785
0.00431304
0.0043562
0.00439725
0.00443608
0.00447264
0.00450685
0.00453867
0.00456803
0.00459493
0.00461933
0.00464124
0.00466067
0.00467763
0.00469216
0.00470431
0.00471414
0.00472171
0.00472712
0.00473046
0.00473183
0.00473136
0.00472918
0.00472542
0.00472024
0.0047138
0.00470629
0.00469789
0.00468879
0.00467923
0.00466943
0.00465964
0.00465014
0.00464121
0.00463318
0.00462639
0.00462123
0.00461813
0.00461755
0.00462004
0.0046262
0.00463669
0.00465229
0.00467388
0.00470247
0.0047392
0.00478537
0.00484244
0.00491206
0.00499601
0.00509624
0.00521477
0.00535363
0.00551474
0.00569977
0.00590995
0.00614588
0.00640737
0.00669326
0.00700144
0.00732877
0.00767129
0.00802439
0.00838308
0.00874232
0.00909728
0.00944358
0.00977751
0.0100961
0.0103972
0.0106794
0.0109421
0.0111853
0.0114094
0.0116151
0.0118035
0.011976
0.0121344
0.0122804
0.0124161
0.0125434
0.0126647
0.012782
0.0128979
0.0130148
0.0131357
0.0132636
0.0134023
0.0135558
0.0137291
0.0139275
0.0141567
0.0144217
0.0147257
0.0150667
0.0154338
0.0158021
0.0161257
0.0163307
0.0163059
0.015893
0.014877
0.0130117
0.0100943
0.00625238
0.000447165
0.000443018
0.000439046
0.00043526
0.00043164
0.000428149
0.000424751
0.000421402
0.000418054
0.000414639
0.000411048
0.000407207
0.000403035
0.000398452
0.000393388
0.000387802
0.000381696
0.000375143
0.00036831
0.000361469
0.000355006
0.000349408
0.000345227
0.000343043
0.000343413
0.000346828
0.00035368
0.000364235
0.00037863
0.000396874
0.000418855
0.00044436
0.000473098
0.000504722
0.000538863
0.000575148
0.000613229
0.000652796
0.000693588
0.000735397
0.000778065
0.000821477
0.000865554
0.000910244
0.000955514
0.00100134
0.00104771
0.00109461
0.00114204
0.00118999
0.00123845
0.00128742
0.0013369
0.00138689
0.00143739
0.00148841
0.00153993
0.00159197
0.00164452
0.00169758
0.00175116
0.00180524
0.00185984
0.00191495
0.00197056
0.00202667
0.00208328
0.00214037
0.00219794
0.00225598
0.00231447
0.0023734
0.00243275
0.00249249
0.00255259
0.00261302
0.00267374
0.00273471
0.00279586
0.00285715
0.0029185
0.00297984
0.00304109
0.00310216
0.00316296
0.00322338
0.00328331
0.00334264
0.00340126
0.00345903
0.00351583
0.00357154
0.00362603
0.00367916
0.00373082
0.00378087
0.00382921
0.00387571
0.00392028
0.00396282
0.00400323
0.00404144
0.00407738
0.004111
0.00414224
0.00417108
0.0041975
0.00422149
0.00424306
0.00426223
0.00427902
0.00429349
0.00430569
0.00431568
0.00432356
0.00432942
0.00433335
0.00433547
0.00433592
0.00433483
0.00433235
0.00432864
0.00432387
0.00431823
0.00431192
0.00430515
0.00429815
0.00429117
0.00428447
0.00427835
0.00427311
0.00426911
0.00426672
0.00426638
0.00426856
0.00427379
0.00428269
0.00429593
0.00431431
0.00433874
0.00437025
0.00441003
0.00445945
0.00452004
0.00459355
0.00468189
0.00478713
0.00491144
0.005057
0.00522587
0.0054198
0.00564008
0.00588726
0.00616103
0.00646003
0.00678182
0.00712294
0.00747903
0.00784513
0.00821594
0.0085862
0.00895095
0.0093058
0.00964708
0.00997197
0.0102785
0.0105657
0.0108331
0.0110807
0.011309
0.011519
0.0117119
0.0118894
0.0120533
0.0122057
0.0123485
0.0124841
0.0126149
0.0127432
0.0128717
0.0130033
0.0131413
0.0132894
0.0134518
0.0136333
0.0138395
0.0140762
0.0143488
0.0146604
0.0150099
0.0153871
0.015768
0.0161084
0.0163371
0.0163481
0.0159942
0.0150835
0.01341
0.0108503
0.00765894
0.000556709
0.00055282
0.000549047
0.0005454
0.000541873
0.000538454
0.00053513
0.000531885
0.000528706
0.000525576
0.000522448
0.000519292
0.000516073
0.000512753
0.000509282
0.000505605
0.000501656
0.000497367
0.000492664
0.000487478
0.00048175
0.000475444
0.000468559
0.000461146
0.00045332
0.000445273
0.000437279
0.000429688
0.000422912
0.0004174
0.000413607
0.000411962
0.000412842
0.000416549
0.000423297
0.00043321
0.000446321
0.000462582
0.000481876
0.000504034
0.000528844
0.000556074
0.000585482
0.000616832
0.000649901
0.000684491
0.000720429
0.000757567
0.000795788
0.000834998
0.000875123
0.000916109
0.000957912
0.0010005
0.00104386
0.00108796
0.00113279
0.00117834
0.00122462
0.0012716
0.00131929
0.00136768
0.00141678
0.00146658
0.00151708
0.00156828
0.00162018
0.00167277
0.00172606
0.00178002
0.00183465
0.00188995
0.00194589
0.00200244
0.0020596
0.00211732
0.00217557
0.00223431
0.00229349
0.00235306
0.00241294
0.00247308
0.00253338
0.00259378
0.00265416
0.00271444
0.00277451
0.00283425
0.00289354
0.00295226
0.00301028
0.00306747
0.0031237
0.00317884
0.00323274
0.00328529
0.00333636
0.00338581
0.00343355
0.00347945
0.00352342
0.00356536
0.0036052
0.00364285
0.00367827
0.0037114
0.00374221
0.00377068
0.00379679
0.00382056
0.00384199
0.00386111
0.00387798
0.00389263
0.00390514
0.00391559
0.00392406
0.00393065
0.00393548
0.00393868
0.00394037
0.0039407
0.00393983
0.00393792
0.00393516
0.00393175
0.00392788
0.00392379
0.00391971
0.00391591
0.00391268
0.00391031
0.00390917
0.00390961
0.00391208
0.00391703
0.00392502
0.00393664
0.0039526
0.0039737
0.00400088
0.00403519
0.00407789
0.00413039
0.00419433
0.00427153
0.00436406
0.00447413
0.00460406
0.0047562
0.00493275
0.00513559
0.00536601
0.00562456
0.00591075
0.00622298
0.00655848
0.00691338
0.00728294
0.00766181
0.00804439
0.00842523
0.00879925
0.00916208
0.00951018
0.00984095
0.0101528
0.010445
0.010717
0.0109689
0.0112014
0.0114158
0.0116135
0.0117964
0.0119664
0.0121258
0.0122767
0.0124216
0.012563
0.0127037
0.0128467
0.0129952
0.013153
0.0133243
0.0135142
0.0137281
0.0139719
0.0142512
0.0145697
0.0149263
0.015312
0.0157039
0.0160596
0.0163112
0.0163588
0.0160669
0.015267
0.0137895
0.0115744
0.00893906
0.000638631
0.000635293
0.000632029
0.000628847
0.000625745
0.000622718
0.000619761
0.00061687
0.000614038
0.000611267
0.00060853
0.000605822
0.000603135
0.000600459
0.000597781
0.000595088
0.00059236
0.000589575
0.000586703
0.000583712
0.000580563
0.00057721
0.000573605
0.000569696
0.000565428
0.000560753
0.000555626
0.000550021
0.000543929
0.000537374
0.000530415
0.000523157
0.000515752
0.000508404
0.000501361
0.000494907
0.00048935
0.000485004
0.000482172
0.000481131
0.000482119
0.000485322
0.000490877
0.000498866
0.00050932
0.000522226
0.000537533
0.000555162
0.000575011
0.000596963
0.000620897
0.000646688
0.000674217
0.000703372
0.000734051
0.000766161
0.000799625
0.000834375
0.000870353
0.000907513
0.000945817
0.000985233
0.00102574
0.00106731
0.00110993
0.00115359
0.00119826
0.00124396
0.00129065
0.00133832
0.00138697
0.00143658
0.00148713
0.0015386
0.00159096
0.00164419
0.00169825
0.00175309
0.00180868
0.00186497
0.00192187
0.00197935
0.0020373
0.00209567
0.00215434
0.00221322
0.00227222
0.0023312
0.00239006
0.00244867
0.0025069
0.00256461
0.00262167
0.00267794
0.00273328
0.00278755
0.00284061
0.00289234
0.00294261
0.00299129
0.00303827
0.00308345
0.00312672
0.00316801
0.00320723
0.00324432
0.00327923
0.00331192
0.00334236
0.00337054
0.00339646
0.00342013
0.00344158
0.00346084
0.00347796
0.00349301
0.00350605
0.00351718
0.00352649
0.00353408
0.00354008
0.00354462
0.00354783
0.00354987
0.0035509
0.00355109
0.00355064
0.00354975
0.00354863
0.00354752
0.00354668
0.00354638
0.00354693
0.00354866
0.00355195
0.00355722
0.00356493
0.00357563
0.00358992
0.00360851
0.00363221
0.00366198
0.00369892
0.00374432
0.00379966
0.00386667
0.00394728
0.0040437
0.00415831
0.0042936
0.00445211
0.00463621
0.00484787
0.00508845
0.00535841
0.00565711
0.00598264
0.00633186
0.00670047
0.00708328
0.00747458
0.00786848
0.00825933
0.00864201
0.00901221
0.00936662
0.00970316
0.0100204
0.0103174
0.0105937
0.0108499
0.0110867
0.0113058
0.0115087
0.0116975
0.0118742
0.0120414
0.0122013
0.0123567
0.0125103
0.0126651
0.0128246
0.0129924
0.013173
0.0133712
0.0135927
0.0138433
0.0141289
0.0144532
0.0148159
0.0152086
0.0156098
0.0159794
0.016253
0.0163374
0.0161091
0.0154215
0.0141377
0.0122419
0.0100612
0.000696287
0.000693539
0.000690835
0.00068818
0.000685575
0.000683018
0.000680507
0.000678041
0.000675617
0.000673237
0.000670887
0.000668567
0.000666275
0.00066401
0.00066177
0.000659554
0.000657359
0.00065518
0.000653013
0.000650851
0.000648684
0.000646504
0.000644294
0.00064204
0.000639721
0.000637315
0.000634795
0.000632131
0.000629293
0.000626248
0.000622961
0.000619402
0.000615545
0.000611368
0.000606863
0.000602036
0.000596908
0.000591526
0.000585957
0.000580295
0.000574662
0.0005692
0.000564077
0.000559472
0.000555576
0.000552581
0.000550674
0.000550029
0.000550804
0.000553136
0.000557138
0.000562897
0.000570481
0.00057993
0.000591268
0.000604503
0.000619625
0.000636618
0.000655454
0.000676101
0.000698524
0.000722685
0.000748549
0.000776077
0.000805235
0.00083599
0.000868311
0.000902169
0.000937538
0.000974389
0.0010127
0.00105244
0.00109359
0.00113611
0.00117998
0.00122516
0.00127162
0.0013193
0.00136817
0.00141816
0.00146921
0.00152126
0.00157423
0.00162803
0.00168258
0.00173777
0.00179349
0.00184963
0.00190606
0.00196267
0.0020193
0.00207583
0.00213211
0.00218798
0.00224332
0.00229795
0.00235175
0.00240456
0.00245625
0.00250667
0.0025557
0.00260321
0.00264909
0.00269324
0.00273556
0.00277597
0.0028144
0.00285078
0.00288508
0.00291727
0.00294731
0.0029752
0.00300096
0.00302459
0.00304613
0.00306562
0.00308313
0.00309871
0.00311244
0.00312443
0.00313476
0.00314355
0.00315092
0.00315701
0.00316196
0.00316593
0.00316909
0.00317162
0.00317371
0.00317557
0.00317744
0.00317955
0.00318218
0.00318563
0.00319021
0.00319631
0.00320432
0.00321471
0.00322801
0.00324484
0.00326589
0.00329201
0.00332414
0.00336344
0.00341122
0.00346905
0.00353874
0.00362236
0.00372225
0.00384098
0.00398126
0.00414581
0.00433719
0.00455751
0.00480816
0.00508952
0.00540073
0.00573955
0.0061024
0.00648451
0.00688026
0.00728352
0.00768813
0.0080883
0.00847894
0.0088559
0.00921671
0.00955911
0.00988141
0.0101828
0.0104634
0.0107238
0.0109652
0.0111892
0.0113978
0.0115931
0.0117774
0.0119533
0.0121234
0.0122906
0.0124579
0.0126289
0.0128072
0.0129972
0.0132039
0.0134329
0.0136902
0.0139814
0.0143108
0.0146784
0.0150768
0.0154858
0.0158678
0.0161623
0.0162832
0.0161186
0.0155419