/*--------------------------------*- C++ -*----------------------------------*\
| =========                 |                                                 |
| \\      /  F ield         | OpenFOAM: The Open Source CFD Toolbox           |
|  \\    /   O peration     | Version:  2.4.0                                 |
|   \\  /    A nd           | Web:      www.OpenFOAM.org                      |
|    \\/     M anipulation  |                                                 |
\*---------------------------------------------------------------------------*/
FoamFile
{
    version     2.0;
    format      ascii;
    class       volVectorField;
    location    "0.188";
    object      U_0;
}
// * * * * * * * * * * * * * * * * * * * * * * * * * * * * * * * * * * * * * //

dimensions      [0 1 -1 0 0 0 0];

internalField   nonuniform List<vector> 
17600
(
(5.32768 0.309465 0)
(2.98542 0.0606237 0)
(2.19419 -0.00159159 0)
(1.85072 -0.00345079 0)
(1.70626 -0.00166005 0)
(1.60961 0.000547204 0)
(1.53986 -0.000613923 0)
(1.47814 5.12762e-05 0)
(1.44131 0.000196388 0)
(1.39422 -0.000348107 0)
(1.38876 -0.000247344 0)
(1.35035 -0.000180413 0)
(1.34245 0.000650492 0)
(1.33109 -0.00192121 0)
(1.32856 0.000312841 0)
(1.33201 -0.000861116 0)
(1.37997 -0.00390607 0)
(1.43112 -0.00390916 0)
(1.64568 -0.00240304 0)
(1.56096 -0.0939554 0)
(8.59778 0.871998 0)
(6.95091 0.383595 0)
(5.80301 0.121534 0)
(5.06519 0.0509773 0)
(4.65015 0.0275399 0)
(4.37358 0.022471 0)
(4.1893 0.0143929 0)
(4.00595 0.012559 0)
(3.91205 0.0108132 0)
(3.77452 0.00591483 0)
(3.75463 0.0056083 0)
(3.63488 0.00513971 0)
(3.62183 0.00524327 0)
(3.57428 -0.0017941 0)
(3.53408 0.00324024 0)
(3.53558 -0.00438263 0)
(3.6063 -0.0119554 0)
(3.59119 -0.0295932 0)
(4.01382 -0.0195792 0)
(4.03077 -0.258801 0)
(9.85481 1.02221 0)
(9.34975 0.577914 0)
(8.45866 0.240729 0)
(7.65671 0.129907 0)
(7.09 0.0811553 0)
(6.68468 0.0604616 0)
(6.42798 0.0416552 0)
(6.14125 0.0346457 0)
(6.01461 0.0292758 0)
(5.79387 0.0180609 0)
(5.76857 0.0168023 0)
(5.57572 0.0153305 0)
(5.55706 0.0123466 0)
(5.48495 0.00263395 0)
(5.39689 0.00964641 0)
(5.39714 -0.00827286 0)
(5.47839 -0.0140906 0)
(5.37188 -0.0539121 0)
(5.85532 -0.0612542 0)
(6.03829 -0.374447 0)
(10.1549 0.947633 0)
(10.5806 0.669944 0)
(10.2338 0.329731 0)
(9.66252 0.209086 0)
(9.12193 0.14764 0)
(8.66803 0.110095 0)
(8.40124 0.0791979 0)
(8.03224 0.064766 0)
(7.90624 0.0544707 0)
(7.60934 0.0355199 0)
(7.59165 0.0323712 0)
(7.34099 0.0304914 0)
(7.30809 0.0211323 0)
(7.23336 0.0111645 0)
(7.09111 0.0195609 0)
(7.09181 -0.0127803 0)
(7.18122 -0.0118632 0)
(7.00169 -0.0731518 0)
(7.43695 -0.115104 0)
(7.83258 -0.486951 0)
(10.0622 0.805023 0)
(10.9439 0.672113 0)
(11.0955 0.356636 0)
(10.9132 0.253419 0)
(10.5932 0.204653 0)
(10.204 0.159447 0)
(10.0194 0.120182 0)
(9.61192 0.0988842 0)
(9.53429 0.0834237 0)
(9.18182 0.0568864 0)
(9.18614 0.0501552 0)
(8.91036 0.0499981 0)
(8.85041 0.030553 0)
(8.80397 0.0223909 0)
(8.60641 0.0333167 0)
(8.61403 -0.0179326 0)
(8.70687 -0.00731627 0)
(8.48262 -0.0833437 0)
(8.83932 -0.170399 0)
(9.34364 -0.615896 0)
(9.96373 0.6897 0)
(10.8989 0.64017 0)
(11.2615 0.33522 0)
(11.3768 0.245888 0)
(11.3619 0.227888 0)
(11.1314 0.189862 0)
(11.1365 0.151786 0)
(10.768 0.129727 0)
(10.7965 0.110595 0)
(10.4367 0.0796342 0)
(10.4765 0.0670715 0)
(10.2289 0.0724001 0)
(10.1301 0.0397501 0)
(10.1471 0.0339374 0)
(9.90117 0.0502241 0)
(9.93487 -0.0237812 0)
(10.0136 -0.00167802 0)
(9.78113 -0.087222 0)
(10.0657 -0.223801 0)
(10.599 -0.712673 0)
(9.92599 0.598461 0)
(10.7956 0.607178 0)
(11.1849 0.310415 0)
(11.3539 0.209878 0)
(11.5585 0.217429 0)
(11.4326 0.191146 0)
(11.6535 0.160312 0)
(11.3835 0.145026 0)
(11.5697 0.125412 0)
(11.2708 0.0974442 0)
(11.3627 0.0773446 0)
(11.2146 0.0938704 0)
(11.0786 0.0472469 0)
(11.1919 0.0425938 0)
(10.9162 0.0687091 0)
(11.0129 -0.0309931 0)
(11.0461 0.00518091 0)
(10.8448 -0.0883392 0)
(11.1155 -0.274573 0)
(11.501 -0.751363 0)
(9.90705 0.518678 0)
(10.6968 0.566789 0)
(11.1344 0.302015 0)
(11.2136 0.175692 0)
(11.5262 0.196698 0)
(11.4037 0.177877 0)
(11.7378 0.151707 0)
(11.5329 0.144051 0)
(11.8475 0.122272 0)
(11.6368 0.104849 0)
(11.7636 0.0738336 0)
(11.7729 0.107454 0)
(11.622 0.0486509 0)
(11.8447 0.0449287 0)
(11.5804 0.0820062 0)
(11.7793 -0.0382029 0)
(11.7405 0.00784257 0)
(11.6291 -0.0862785 0)
(11.8936 -0.332815 0)
(12.0659 -0.722984 0)
(9.92046 0.44982 0)
(10.5675 0.512395 0)
(11.1068 0.299184 0)
(11.1323 0.151708 0)
(11.4394 0.173803 0)
(11.3303 0.161661 0)
(11.658 0.136137 0)
(11.5 0.137187 0)
(11.853 0.107793 0)
(11.715 0.108735 0)
(11.8107 0.0584885 0)
(11.9302 0.111901 0)
(11.8122 0.0416437 0)
(12.0425 0.039495 0)
(11.8814 0.0839312 0)
(12.1545 -0.0486751 0)
(12.0361 0.00769691 0)
(12.0955 -0.099491 0)
(12.3139 -0.364663 0)
(12.3162 -0.72019 0)
(9.9576 0.393109 0)
(10.4515 0.453405 0)
(11.0183 0.291151 0)
(11.1351 0.131246 0)
(11.3442 0.155613 0)
(11.3137 0.145402 0)
(11.5263 0.121747 0)
(11.4366 0.124353 0)
(11.7557 0.0896958 0)
(11.7194 0.109999 0)
(11.7729 0.0458072 0)
(11.8807 0.106355 0)
(11.9008 0.0399958 0)
(11.8943 0.026549 0)
(12.0139 0.0770736 0)
(12.1584 -0.0599476 0)
(12.0268 0.00453004 0)
(12.2832 -0.130365 0)
(12.4201 -0.377888 0)
(12.2812 -0.728375 0)
(9.98009 0.34016 0)
(10.4021 0.401774 0)
(10.9031 0.273957 0)
(11.1336 0.114833 0)
(11.2491 0.135881 0)
(11.3472 0.134654 0)
(11.4125 0.10969 0)
(11.3903 0.114182 0)
(11.6309 0.0653565 0)
(11.6846 0.108623 0)
(11.7047 0.0364367 0)
(11.8298 0.0945281 0)
(11.9141 0.0460697 0)
(11.7601 0.0166617 0)
(12.1111 0.055396 0)
(11.9343 -0.0495824 0)
(12.0007 -0.0225963 0)
(12.3356 -0.165095 0)
(12.3024 -0.375006 0)
(12.0895 -0.721443 0)
(9.99661 0.29289 0)
(10.3788 0.350733 0)
(10.8056 0.259686 0)
(11.0851 0.0962053 0)
(11.1942 0.11661 0)
(11.3642 0.119653 0)
(11.3397 0.105679 0)
(11.3642 0.101442 0)
(11.5544 0.0476143 0)
(11.5842 0.101434 0)
(11.6356 0.0285513 0)
(11.8228 0.0773965 0)
(11.775 0.0561842 0)
(11.8964 -0.00687409 0)
(11.9875 0.0601019 0)
(11.7972 -0.0481724 0)
(12.0577 -0.0616406 0)
(12.2292 -0.190316 0)
(12.1279 -0.363627 0)
(11.9657 -0.709897 0)
(10.0088 0.247515 0)
(10.3504 0.305522 0)
(10.7257 0.241288 0)
(11.0358 0.0803771 0)
(11.1845 0.0909634 0)
(11.3225 0.110875 0)
(11.2824 0.0979102 0)
(11.3467 0.0904057 0)
(11.5109 0.0317765 0)
(11.5039 0.0988431 0)
(11.6259 0.00897937 0)
(11.7252 0.073236 0)
(11.7054 0.0462062 0)
(11.9673 -0.0202583 0)
(11.7803 0.0762164 0)
(11.8769 -0.0641865 0)
(12.0394 -0.090802 0)
(12.0247 -0.195928 0)
(12.0753 -0.374181 0)
(11.8835 -0.701072 0)
(10.0106 0.207958 0)
(10.3213 0.261074 0)
(10.6768 0.218599 0)
(11.0002 0.0609734 0)
(11.1523 0.0756056 0)
(11.2632 0.102457 0)
(11.2376 0.0895815 0)
(11.357 0.0735504 0)
(11.4512 0.0233904 0)
(11.4891 0.0854923 0)
(11.6231 0.00681319 0)
(11.5575 0.0604442 0)
(11.7563 0.0379633 0)
(11.8361 -0.0270744 0)
(11.7377 0.0762193 0)
(11.9555 -0.0787227 0)
(11.9517 -0.103737 0)
(11.8939 -0.200226 0)
(12.0338 -0.381418 0)
(11.7997 -0.693899 0)
(10.0044 0.169819 0)
(10.3037 0.220147 0)
(10.6559 0.186296 0)
(10.949 0.0508477 0)
(11.1015 0.0587436 0)
(11.2279 0.0971281 0)
(11.2282 0.0710031 0)
(11.363 0.0652599 0)
(11.3833 0.00995325 0)
(11.4948 0.0776213 0)
(11.5617 0.00602378 0)
(11.4896 0.0518081 0)
(11.7857 0.0210297 0)
(11.6935 -0.0239063 0)
(11.7978 0.0580706 0)
(11.9436 -0.0824293 0)
(11.8471 -0.105936 0)
(11.8702 -0.221106 0)
(11.9729 -0.378147 0)
(11.7134 -0.64153 0)
(10.0006 0.136875 0)
(10.2997 0.174682 0)
(10.6166 0.158533 0)
(10.9033 0.0395666 0)
(11.0918 0.0444448 0)
(11.1922 0.0838273 0)
(11.2282 0.0568623 0)
(11.3196 0.0544897 0)
(11.3625 0.0013925 0)
(11.4938 0.0618975 0)
(11.4721 0.0139816 0)
(11.5623 0.0247008 0)
(11.6992 0.0237315 0)
(11.6603 -0.0398027 0)
(11.8264 0.0495653 0)
(11.8697 -0.0908023 0)
(11.7976 -0.102742 0)
(11.9112 -0.24896 0)
(11.8985 -0.366694 0)
(11.6249 -0.608707 0)
(10.003 0.104269 0)
(10.2829 0.13335 0)
(10.5698 0.128835 0)
(10.9088 0.0261098 0)
(11.0795 0.0303467 0)
(11.1366 0.07512 0)
(11.2237 0.0409105 0)
(11.2858 0.0442172 0)
(11.3832 -0.0137428 0)
(11.4474 0.059268 0)
(11.4577 0.00880726 0)
(11.5891 0.011645 0)
(11.5857 0.0216175 0)
(11.7185 -0.0472509 0)
(11.7736 0.027919 0)
(11.7875 -0.0719937 0)
(11.8647 -0.13637 0)
(11.881 -0.240229 0)
(11.8053 -0.362614 0)
(11.5707 -0.558122 0)
(10.003 0.0746757 0)
(10.2598 0.0929449 0)
(10.5611 0.0945102 0)
(10.9196 0.0131278 0)
(11.0199 0.0230011 0)
(11.1089 0.0658363 0)
(11.2402 0.0184033 0)
(11.2928 0.0339679 0)
(11.363 -0.0234801 0)
(11.3692 0.0544229 0)
(11.5128 0.00116599 0)
(11.5109 0.00770402 0)
(11.5882 0.0108105 0)
(11.7419 -0.0588342 0)
(11.6834 0.0221354 0)
(11.7863 -0.0801057 0)
(11.8898 -0.152547 0)
(11.7803 -0.227485 0)
(11.7527 -0.378529 0)
(11.5633 -0.481461 0)
(10.0022 0.0482422 0)
(10.2576 0.0488517 0)
(10.562 0.0615549 0)
(10.8884 0.00295353 0)
(10.9799 0.0188154 0)
(11.1341 0.0436765 0)
(11.2525 0.00289556 0)
(11.2853 0.0212904 0)
(11.2965 -0.0211562 0)
(11.3622 0.0334019 0)
(11.5288 0.00390667 0)
(11.4736 -0.00949481 0)
(11.6467 0.00634994 0)
(11.6682 -0.070457 0)
(11.6402 0.0235867 0)
(11.8362 -0.100493 0)
(11.8203 -0.147626 0)
(11.7319 -0.234648 0)
(11.7402 -0.363487 0)
(11.6071 -0.497557 0)
(10.0071 0.0190872 0)
(10.2558 0.00910535 0)
(10.5491 0.0284715 0)
(10.858 -0.00390699 0)
(11.0055 0.00386917 0)
(11.1501 0.030036 0)
(11.2301 -0.0176515 0)
(11.2593 0.0228221 0)
(11.2694 -0.0352839 0)
(11.4189 0.0232208 0)
(11.4885 -0.00452221 0)
(11.5203 -0.0128471 0)
(11.6209 -0.00828659 0)
(11.6019 -0.0553108 0)
(11.6935 -0.0121311 0)
(11.8238 -0.0861193 0)
(11.7698 -0.15872 0)
(11.7543 -0.243612 0)
(11.754 -0.342027 0)
(11.6103 -0.550588 0)
(10.0061 -0.00638351 0)
(10.2482 -0.0339737 0)
(10.5507 -0.000678537 0)
(10.8606 -0.0202722 0)
(11.0383 -0.00454801 0)
(11.1225 0.0135922 0)
(11.217 -0.0265946 0)
(11.2495 0.00795539 0)
(11.3093 -0.0383665 0)
(11.418 0.00167892 0)
(11.4809 0.00313804 0)
(11.5433 -0.0341799 0)
(11.5504 0.00473992 0)
(11.6431 -0.0826433 0)
(11.7407 -0.0138864 0)
(11.7431 -0.106659 0)
(11.7968 -0.150975 0)
(11.7765 -0.252618 0)
(11.7337 -0.343644 0)
(11.565 -0.547795 0)
(9.99606 -0.0346778 0)
(10.2567 -0.073541 0)
(10.5671 -0.0354199 0)
(10.8722 -0.0309564 0)
(11.0369 -0.0140225 0)
(11.1014 0.00304233 0)
(11.2358 -0.0449761 0)
(11.2653 -0.00230598 0)
(11.3367 -0.049517 0)
(11.383 -0.00616457 0)
(11.5117 -0.00836769 0)
(11.5112 -0.0294606 0)
(11.5565 -0.0140708 0)
(11.7058 -0.0819681 0)
(11.695 -0.0329867 0)
(11.7232 -0.091498 0)
(11.8235 -0.177355 0)
(11.7807 -0.241072 0)
(11.7065 -0.346736 0)
(11.5199 -0.464887 0)
(9.99198 -0.0615471 0)
(10.276 -0.118484 0)
(10.5755 -0.0659516 0)
(10.8783 -0.0424722 0)
(11.0324 -0.0217432 0)
(11.1169 -0.0133201 0)
(11.2563 -0.0617602 0)
(11.2901 -0.0150739 0)
(11.3148 -0.0516366 0)
(11.4064 -0.0233065 0)
(11.5135 -0.00929203 0)
(11.5025 -0.0370354 0)
(11.6174 -0.0252344 0)
(11.7022 -0.0851073 0)
(11.6533 -0.0409437 0)
(11.7609 -0.0980672 0)
(11.8308 -0.187781 0)
(11.7662 -0.233953 0)
(11.7045 -0.350785 0)
(11.5341 -0.398571 0)
(9.99968 -0.0913379 0)
(10.2842 -0.160057 0)
(10.5863 -0.0960191 0)
(10.8928 -0.0535167 0)
(11.0527 -0.0305864 0)
(11.1365 -0.0330525 0)
(11.2673 -0.0740533 0)
(11.2984 -0.0282501 0)
(11.3182 -0.0529544 0)
(11.4532 -0.0427549 0)
(11.5006 -0.0057256 0)
(11.5381 -0.0531817 0)
(11.6484 -0.0284681 0)
(11.6793 -0.0922628 0)
(11.6721 -0.0428694 0)
(11.7725 -0.119326 0)
(11.8476 -0.181127 0)
(11.7594 -0.240621 0)
(11.716 -0.338197 0)
(11.5564 -0.404097 0)
(10.0064 -0.125609 0)
(10.2898 -0.200073 0)
(10.6155 -0.1299 0)
(10.9202 -0.0612018 0)
(11.0738 -0.0455978 0)
(11.149 -0.0438539 0)
(11.2837 -0.0925611 0)
(11.3068 -0.0340744 0)
(11.3665 -0.0660573 0)
(11.471 -0.0481683 0)
(11.5079 -0.0174222 0)
(11.5752 -0.0525346 0)
(11.6509 -0.0478637 0)
(11.6826 -0.0784084 0)
(11.7031 -0.0696866 0)
(11.7925 -0.112602 0)
(11.8533 -0.194196 0)
(11.7737 -0.242251 0)
(11.7387 -0.314829 0)
(11.5593 -0.43833 0)
(10.0037 -0.155861 0)
(10.3124 -0.245889 0)
(10.6552 -0.157358 0)
(10.947 -0.0754583 0)
(11.0946 -0.0508949 0)
(11.1724 -0.0688521 0)
(11.303 -0.0978401 0)
(11.3455 -0.0572625 0)
(11.3998 -0.0616479 0)
(11.4789 -0.0696516 0)
(11.5411 -0.0113663 0)
(11.598 -0.0741963 0)
(11.6531 -0.0403905 0)
(11.7187 -0.0968578 0)
(11.7368 -0.0641115 0)
(11.8114 -0.140751 0)
(11.8668 -0.178296 0)
(11.7997 -0.255413 0)
(11.7518 -0.299682 0)
(11.5737 -0.446267 0)
(10.0027 -0.198932 0)
(10.3448 -0.284561 0)
(10.6964 -0.190244 0)
(10.975 -0.0809837 0)
(11.1259 -0.0690481 0)
(11.202 -0.0798456 0)
(11.334 -0.117795 0)
(11.388 -0.0643581 0)
(11.4194 -0.0724148 0)
(11.5088 -0.0734719 0)
(11.5809 -0.0259858 0)
(11.6128 -0.0698552 0)
(11.6781 -0.0589179 0)
(11.7647 -0.0894661 0)
(11.7749 -0.0862669 0)
(11.83 -0.130732 0)
(11.8956 -0.199106 0)
(11.8292 -0.236215 0)
(11.7683 -0.316677 0)
(11.6116 -0.368815 0)
(10.0136 -0.237531 0)
(10.3772 -0.330241 0)
(10.7386 -0.212448 0)
(11.0091 -0.0943695 0)
(11.1651 -0.0818943 0)
(11.2391 -0.100273 0)
(11.3808 -0.128588 0)
(11.4295 -0.0792646 0)
(11.44 -0.0746466 0)
(11.5566 -0.0874451 0)
(11.6084 -0.0310407 0)
(11.6341 -0.0744861 0)
(11.7298 -0.0726386 0)
(11.8154 -0.0904221 0)
(11.8079 -0.09652 0)
(11.8696 -0.135614 0)
(11.9259 -0.206478 0)
(11.8591 -0.227606 0)
(11.7982 -0.323669 0)
(11.6509 -0.310391 0)
(10.0419 -0.28676 0)
(10.3976 -0.375216 0)
(10.7855 -0.22645 0)
(11.0467 -0.112539 0)
(11.2251 -0.0975148 0)
(11.2857 -0.12034 0)
(11.4337 -0.138171 0)
(11.4565 -0.091038 0)
(11.475 -0.0755764 0)
(11.5949 -0.103869 0)
(11.6403 -0.0303394 0)
(11.684 -0.0896965 0)
(11.7909 -0.0748457 0)
(11.8589 -0.105733 0)
(11.853 -0.0882618 0)
(11.9103 -0.160095 0)
(11.9498 -0.186464 0)
(11.8929 -0.249963 0)
(11.8353 -0.29952 0)
(11.6887 -0.326438 0)
(10.0738 -0.342179 0)
(10.399 -0.413129 0)
(10.8525 -0.242959 0)
(11.0987 -0.130783 0)
(11.3104 -0.123219 0)
(11.3141 -0.133034 0)
(11.4877 -0.152913 0)
(11.4718 -0.094997 0)
(11.5285 -0.0886009 0)
(11.6275 -0.107164 0)
(11.7097 -0.0482142 0)
(11.7377 -0.0871815 0)
(11.8561 -0.0962511 0)
(11.8997 -0.0974407 0)
(11.9083 -0.103665 0)
(11.9414 -0.156295 0)
(11.9857 -0.19438 0)
(11.9254 -0.244555 0)
(11.8745 -0.293078 0)
(11.7213 -0.362345 0)
(10.0812 -0.396491 0)
(10.4029 -0.460625 0)
(10.9523 -0.254403 0)
(11.1747 -0.160638 0)
(11.3795 -0.1393 0)
(11.3284 -0.149847 0)
(11.5567 -0.159124 0)
(11.486 -0.104855 0)
(11.608 -0.0954805 0)
(11.6769 -0.120792 0)
(11.8006 -0.0557519 0)
(11.7788 -0.0961813 0)
(11.9349 -0.104795 0)
(11.9214 -0.101469 0)
(11.9662 -0.105725 0)
(11.9509 -0.162375 0)
(12.0098 -0.192816 0)
(11.9029 -0.240761 0)
(11.8535 -0.288865 0)
(11.6433 -0.391488 0)
(10.0502 -0.461993 0)
(10.4497 -0.500736 0)
(11.0823 -0.277195 0)
(11.2482 -0.182168 0)
(11.4094 -0.155507 0)
(11.3807 -0.166269 0)
(11.6239 -0.167496 0)
(11.5225 -0.112107 0)
(11.7153 -0.110431 0)
(11.7247 -0.130033 0)
(11.8622 -0.0669257 0)
(11.8026 -0.101645 0)
(11.9572 -0.112673 0)
(11.8696 -0.104366 0)
(11.9458 -0.104759 0)
(11.8406 -0.168398 0)
(11.8844 -0.17801 0)
(11.6908 -0.244932 0)
(11.6132 -0.263835 0)
(11.294 -0.387145 0)
(10.0034 -0.525319 0)
(10.554 -0.549884 0)
(11.2079 -0.298641 0)
(11.2914 -0.201006 0)
(11.4567 -0.174612 0)
(11.4755 -0.184603 0)
(11.6639 -0.175609 0)
(11.5749 -0.122828 0)
(11.7598 -0.123527 0)
(11.6693 -0.133476 0)
(11.7828 -0.0760875 0)
(11.6697 -0.101699 0)
(11.7453 -0.115396 0)
(11.5923 -0.0978993 0)
(11.6371 -0.106858 0)
(11.4378 -0.151795 0)
(11.4217 -0.175138 0)
(11.153 -0.212186 0)
(11.0156 -0.257379 0)
(10.6188 -0.321395 0)
(9.96793 -0.603529 0)
(10.6973 -0.591912 0)
(11.3013 -0.317493 0)
(11.3471 -0.223294 0)
(11.5232 -0.198235 0)
(11.5018 -0.198401 0)
(11.5712 -0.178042 0)
(11.4448 -0.12932 0)
(11.5087 -0.12482 0)
(11.2961 -0.126117 0)
(11.3437 -0.0753633 0)
(11.1486 -0.0939474 0)
(11.1331 -0.103181 0)
(10.9281 -0.0887837 0)
(10.9263 -0.0936437 0)
(10.6593 -0.134901 0)
(10.6 -0.15122 0)
(10.2767 -0.18719 0)
(10.1063 -0.22163 0)
(9.65417 -0.265095 0)
(9.97527 -0.690952 0)
(10.8522 -0.629173 0)
(11.352 -0.344536 0)
(11.3305 -0.252086 0)
(11.3678 -0.215504 0)
(11.1761 -0.19483 0)
(11.0612 -0.16495 0)
(10.8284 -0.11927 0)
(10.746 -0.108355 0)
(10.4504 -0.105486 0)
(10.4342 -0.0640442 0)
(10.1909 -0.0756412 0)
(10.1216 -0.0842796 0)
(9.89846 -0.0730369 0)
(9.86278 -0.0763177 0)
(9.57136 -0.110935 0)
(9.48288 -0.124888 0)
(9.13711 -0.156616 0)
(8.94503 -0.176143 0)
(8.46232 -0.227182 0)
(10.0621 -0.804967 0)
(10.9278 -0.666399 0)
(11.153 -0.36419 0)
(10.8634 -0.256008 0)
(10.6161 -0.197308 0)
(10.2253 -0.161219 0)
(9.96051 -0.130646 0)
(9.65919 -0.0922529 0)
(9.49454 -0.0800153 0)
(9.18424 -0.0787014 0)
(9.13333 -0.0471777 0)
(8.88763 -0.0544752 0)
(8.79689 -0.0633199 0)
(8.58127 -0.0555321 0)
(8.52467 -0.0572991 0)
(8.24036 -0.0847786 0)
(8.13154 -0.0984764 0)
(7.79017 -0.118365 0)
(7.58024 -0.142615 0)
(7.11661 -0.158885 0)
(10.1519 -0.947171 0)
(10.5781 -0.666871 0)
(10.2689 -0.334744 0)
(9.61968 -0.209994 0)
(9.14781 -0.143826 0)
(8.67452 -0.109523 0)
(8.36233 -0.0878516 0)
(8.0607 -0.0606036 0)
(7.87924 -0.0506107 0)
(7.60178 -0.0524841 0)
(7.5375 -0.0301618 0)
(7.32219 -0.0345199 0)
(7.23048 -0.0431168 0)
(7.03717 -0.0382724 0)
(6.97247 -0.0383655 0)
(6.71749 -0.0595561 0)
(6.59741 -0.0700908 0)
(6.27794 -0.0842379 0)
(6.07066 -0.100937 0)
(5.62146 -0.11088 0)
(9.85261 -1.02184 0)
(9.3536 -0.576647 0)
(8.47796 -0.243501 0)
(7.62554 -0.130321 0)
(7.11045 -0.0794474 0)
(6.68435 -0.0586365 0)
(6.40593 -0.0484314 0)
(6.15172 -0.0321263 0)
(5.99916 -0.0256887 0)
(5.78025 -0.0297944 0)
(5.71852 -0.015548 0)
(5.5545 -0.0179207 0)
(5.47461 -0.0252521 0)
(5.31421 -0.0225986 0)
(5.25287 -0.0215567 0)
(5.04333 -0.0361724 0)
(4.92133 -0.0433731 0)
(4.64286 -0.0519066 0)
(4.45041 -0.0619531 0)
(4.03812 -0.0722346 0)
(8.59687 -0.871824 0)
(6.95527 -0.383238 0)
(5.81194 -0.122502 0)
(5.04644 -0.0513139 0)
(4.66168 -0.0270234 0)
(4.37246 -0.0206399 0)
(4.17847 -0.0186948 0)
(4.0034 -0.0112481 0)
(3.90528 -0.00821362 0)
(3.76091 -0.0124476 0)
(3.71275 -0.00520613 0)
(3.61128 -0.00610134 0)
(3.55213 -0.0111247 0)
(3.43549 -0.0100016 0)
(3.38669 -0.00856617 0)
(3.23754 -0.0166394 0)
(3.12806 -0.0205981 0)
(2.91375 -0.0245659 0)
(2.74962 -0.029065 0)
(2.4229 -0.0375339 0)
(5.32765 -0.309446 0)
(2.98723 -0.0606556 0)
(2.19686 0.00159052 0)
(1.84368 0.00329595 0)
(1.70819 0.0016262 0)
(1.611 0.000306288 0)
(1.53733 -0.000790525 0)
(1.47004 0.000358401 0)
(1.44046 0.000749664 0)
(1.38731 -0.00130956 0)
(1.3636 0.000365642 0)
(1.33192 0.000312852 0)
(1.30611 -0.00126078 0)
(1.2517 -0.00105742 0)
(1.22656 -0.000176035 0)
(1.16205 -0.00200664 0)
(1.09614 -0.00279677 0)
(0.986164 -0.00335142 0)
(0.88857 -0.00391384 0)
(0.724818 -0.00282835 0)
(3.39573 -0.692526 0)
(4.53678 -1.39517 0)
(5.40543 -2.16976 0)
(4.86584 -2.76308 0)
(5.07826 -3.27001 0)
(3.86002 -3.565 0)
(3.58614 -3.54632 0)
(2.4831 -3.18467 0)
(1.28157 -2.88297 0)
(0.178873 -2.14052 0)
(0.532157 0.280265 0)
(1.29058 2.83389 0)
(2.40369 4.94212 0)
(3.37833 7.91503 0)
(3.34702 8.02425 0)
(5.90591 5.01189 0)
(4.60108 4.30652 0)
(5.48344 3.628 0)
(5.63177 2.87632 0)
(6.32731 2.36583 0)
(7.42383 1.23661 0)
(8.17299 -0.0942354 0)
(9.01063 -1.16531 0)
(10.1027 -2.34687 0)
(10.7687 -3.28394 0)
(11.1808 -4.05218 0)
(11.6306 -4.94492 0)
(11.9761 -5.45342 0)
(12.8111 -6.04555 0)
(13.5928 -6.7945 0)
(13.6318 -7.00363 0)
(13.3513 -7.13603 0)
(12.9676 -7.24913 0)
(12.4692 -7.09299 0)
(12.1383 -7.10855 0)
(11.8153 -7.15907 0)
(11.3465 -6.96372 0)
(10.9817 -6.76398 0)
(10.8238 -6.89642 0)
(10.5819 -6.81627 0)
(10.1064 -6.3448 0)
(10.0676 -6.39511 0)
(10.2594 -6.83542 0)
(10.2237 -6.67542 0)
(9.82629 -6.25818 0)
(9.4185 -5.97097 0)
(9.25317 -5.56998 0)
(9.15453 -5.41363 0)
(9.33108 -5.81504 0)
(9.86289 -6.24104 0)
(10.1673 -6.07146 0)
(10.586 -5.2103 0)
(10.8457 -4.42548 0)
(11.1101 -3.37214 0)
(11.1795 -1.72935 0)
(11.2225 -0.416364 0)
(11.1569 0.797805 0)
(11.1511 2.3851 0)
(10.961 3.56753 0)
(10.5232 4.44622 0)
(9.88268 5.03636 0)
(9.42827 5.25481 0)
(9.05554 5.70745 0)
(8.46715 5.91089 0)
(8.02357 5.54207 0)
(7.6373 4.98931 0)
(7.1227 4.75837 0)
(6.79291 4.75665 0)
(6.774 4.06797 0)
(6.55058 3.21499 0)
(6.45099 3.50438 0)
(6.30401 4.12686 0)
(6.25822 3.64569 0)
(6.1802 2.74204 0)
(6.55667 2.34164 0)
(6.77687 2.37444 0)
(6.87379 2.49965 0)
(6.77959 2.92767 0)
(6.79617 3.60832 0)
(7.09341 3.56614 0)
(7.60181 3.36143 0)
(8.24774 4.40666 0)
(8.74847 5.99273 0)
(8.89296 6.42959 0)
(9.08799 5.74541 0)
(9.37251 5.53517 0)
(9.85183 6.02803 0)
(10.1783 6.45857 0)
(10.1038 6.13139 0)
(9.88889 5.00744 0)
(9.6223 3.82952 0)
(9.304 3.25391 0)
(9.31077 2.68633 0)
(9.49473 1.30203 0)
(9.53719 -0.579066 0)
(9.33982 -2.11986 0)
(9.03877 -3.47621 0)
(8.78315 -5.08684 0)
(8.66619 -6.551 0)
(8.57557 -7.6036 0)
(8.37391 -8.21979 0)
(8.22677 -8.68726 0)
(8.01191 -8.74336 0)
(8.11458 -8.37832 0)
(7.78115 -8.55224 0)
(7.89909 -8.6535 0)
(7.79883 -8.76308 0)
(8.07892 -8.86608 0)
(8.41717 -9.05773 0)
(8.64509 -9.24447 0)
(8.75542 -9.0586 0)
(8.65696 -8.36176 0)
(8.62544 -7.27747 0)
(8.64123 -6.40093 0)
(8.54762 -5.58936 0)
(8.53126 -4.4096 0)
(8.52294 -3.02879 0)
(8.4455 -1.71048 0)
(8.56979 -0.506542 0)
(8.60032 0.875088 0)
(8.19603 2.43637 0)
(7.80446 3.91921 0)
(7.86144 5.29598 0)
(8.03507 6.73565 0)
(8.12492 7.91415 0)
(7.84387 8.38161 0)
(7.55055 7.81917 0)
(7.19796 7.31 0)
(7.15079 8.18422 0)
(6.86034 8.70558 0)
(6.51191 7.64986 0)
(5.95765 6.66673 0)
(6.08996 6.62565 0)
(5.99112 7.55166 0)
(6.26486 8.45765 0)
(6.26537 8.51032 0)
(5.86107 8.01276 0)
(5.43605 7.20898 0)
(4.70925 6.6373 0)
(4.55132 6.0618 0)
(4.06466 5.35457 0)
(4.03388 4.59254 0)
(3.92945 3.74819 0)
(4.3038 2.74886 0)
(4.38759 1.60567 0)
(4.98073 0.436506 0)
(5.18526 -0.663534 0)
(5.71886 -1.92615 0)
(6.12755 -3.10659 0)
(6.85945 -3.67442 0)
(7.40009 -3.47701 0)
(7.8805 -3.12534 0)
(7.73488 -3.16474 0)
(8.14443 -4.20115 0)
(8.003 -5.21809 0)
(8.31541 -6.00933 0)
(7.88501 -6.60145 0)
(8.34158 -6.24575 0)
(7.13248 -5.83828 0)
(8.29218 -4.93529 0)
(6.61359 -4.60611 0)
(8.07519 -3.42741 0)
(6.37449 -3.05576 0)
(7.84455 -2.12361 0)
(6.49496 -1.96896 0)
(7.31703 -1.14882 0)
(6.3608 -1.87014 0)
(7.15966 -1.08379 0)
(6.27425 -1.28868 0)
(6.6088 -0.694261 0)
(6.80594 -0.74441 0)
(6.76376 -0.842254 0)
(6.79223 -1.22576 0)
(7.30132 -1.3213 0)
(7.70295 -1.55466 0)
(8.03106 -2.0073 0)
(8.31499 -2.1785 0)
(8.57587 -2.14054 0)
(8.69489 -1.97188 0)
(9.0214 -1.96531 0)
(9.3352 -2.20876 0)
(9.86069 -2.14873 0)
(9.91236 -1.83051 0)
(10.1183 -1.34765 0)
(10.4185 -0.929509 0)
(10.4951 -0.335263 0)
(10.5002 0.74108 0)
(10.8366 1.92835 0)
(11.2175 3.52246 0)
(11.1497 4.81528 0)
(10.7862 5.29471 0)
(10.3243 6.26937 0)
(10.1014 7.49283 0)
(9.54217 8.32858 0)
(9.05917 9.35341 0)
(8.56723 10.4574 0)
(7.79862 11.2437 0)
(7.17493 11.951 0)
(6.4536 13.7928 0)
(3.28081 17.1419 0)
(5.40154 -0.955987 0)
(5.9466 -1.53727 0)
(6.73571 -2.17923 0)
(6.08256 -2.63423 0)
(6.25412 -3.15022 0)
(5.17441 -3.33091 0)
(4.91894 -3.24307 0)
(3.80461 -2.83274 0)
(2.93499 -2.30532 0)
(1.58611 -1.8677 0)
(1.05488 0.0442548 0)
(1.76433 2.43107 0)
(3.30835 4.44192 0)
(3.61652 7.57624 0)
(4.85326 7.66196 0)
(6.4401 5.12114 0)
(5.5326 4.40471 0)
(6.03128 3.64639 0)
(6.12349 2.76911 0)
(6.75891 2.12961 0)
(8.04789 0.876458 0)
(9.33292 -0.567678 0)
(10.1001 -1.59212 0)
(10.8957 -2.6846 0)
(11.2831 -3.53634 0)
(11.6867 -4.29593 0)
(12.37 -5.18596 0)
(12.9906 -5.75019 0)
(13.721 -6.31377 0)
(14.0349 -6.85279 0)
(13.7106 -6.91141 0)
(13.3027 -6.99628 0)
(12.874 -7.06404 0)
(12.4139 -6.91912 0)
(12.1413 -6.97381 0)
(11.8255 -7.00896 0)
(11.3726 -6.80464 0)
(11.0551 -6.67458 0)
(10.8649 -6.79639 0)
(10.5907 -6.67088 0)
(10.1391 -6.27711 0)
(10.1708 -6.41945 0)
(10.3428 -6.86396 0)
(10.1473 -6.58877 0)
(9.62695 -6.06565 0)
(9.15251 -5.83801 0)
(9.04232 -5.52838 0)
(9.04356 -5.44872 0)
(9.18939 -5.96536 0)
(9.68167 -6.40089 0)
(9.97886 -6.19409 0)
(10.3338 -5.35342 0)
(10.5058 -4.51635 0)
(10.6917 -3.40138 0)
(10.6972 -1.73879 0)
(10.7158 -0.391677 0)
(10.6396 0.808845 0)
(10.6411 2.40018 0)
(10.5443 3.69254 0)
(10.1818 4.65339 0)
(9.56193 5.20487 0)
(9.08534 5.43906 0)
(8.75233 5.93561 0)
(8.15201 6.11937 0)
(7.76161 5.71065 0)
(7.43695 5.18455 0)
(6.90782 4.94297 0)
(6.64019 4.81688 0)
(6.67092 4.11087 0)
(6.38809 3.30055 0)
(6.33033 3.55214 0)
(6.24186 4.15856 0)
(6.14771 3.68733 0)
(6.09613 2.66863 0)
(6.59413 2.19207 0)
(6.80536 2.30535 0)
(6.79201 2.52658 0)
(6.6875 2.96441 0)
(6.73943 3.52386 0)
(7.10945 3.38329 0)
(7.60774 3.10817 0)
(8.20446 4.17215 0)
(8.73953 5.85683 0)
(8.92967 6.34693 0)
(9.14684 5.64853 0)
(9.40237 5.39011 0)
(9.85853 5.89268 0)
(10.2121 6.41149 0)
(10.222 6.17992 0)
(10.0731 5.10428 0)
(9.85183 3.92117 0)
(9.556 3.30625 0)
(9.60628 2.67814 0)
(9.81709 1.28992 0)
(9.84245 -0.569657 0)
(9.59576 -2.04608 0)
(9.37097 -3.39093 0)
(9.16732 -5.0355 0)
(9.04443 -6.51032 0)
(8.89242 -7.54829 0)
(8.61169 -8.13585 0)
(8.42493 -8.60231 0)
(8.14247 -8.68124 0)
(8.21292 -8.32349 0)
(7.80342 -8.49245 0)
(7.92169 -8.64758 0)
(7.76611 -8.83817 0)
(7.99712 -8.97397 0)
(8.26079 -9.16487 0)
(8.43597 -9.31344 0)
(8.54057 -9.04362 0)
(8.42147 -8.30856 0)
(8.3048 -7.2604 0)
(8.29788 -6.37824 0)
(8.19819 -5.5475 0)
(8.16295 -4.41434 0)
(8.20297 -3.00814 0)
(8.14451 -1.70925 0)
(8.22805 -0.513797 0)
(8.29819 0.95041 0)
(7.93617 2.55521 0)
(7.49827 3.97212 0)
(7.5158 5.25119 0)
(7.64821 6.6767 0)
(7.79842 7.92203 0)
(7.57449 8.46563 0)
(7.36417 7.92954 0)
(7.06163 7.39559 0)
(7.04015 8.27271 0)
(6.77924 8.82877 0)
(6.44835 7.79194 0)
(5.95501 6.7716 0)
(6.11959 6.61854 0)
(6.08734 7.45778 0)
(6.41301 8.40846 0)
(6.57477 8.58008 0)
(6.23829 8.20114 0)
(5.92999 7.45662 0)
(5.16527 6.84301 0)
(5.00184 6.21684 0)
(4.51202 5.48782 0)
(4.48054 4.62475 0)
(4.37315 3.68405 0)
(4.78948 2.65054 0)
(4.93994 1.46823 0)
(5.54082 0.278578 0)
(5.67544 -0.777913 0)
(6.08185 -2.09086 0)
(6.45584 -3.35537 0)
(7.03705 -3.92868 0)
(7.55245 -3.65732 0)
(7.85751 -3.18278 0)
(7.82469 -3.21607 0)
(8.27204 -4.2836 0)
(8.24462 -5.2386 0)
(8.54757 -6.03716 0)
(8.25069 -6.53514 0)
(8.41985 -6.17589 0)
(7.53901 -5.72665 0)
(8.41576 -4.88815 0)
(6.82534 -4.50928 0)
(8.21614 -3.37749 0)
(6.39991 -3.01358 0)
(8.03497 -2.1185 0)
(6.33537 -1.90558 0)
(7.53121 -1.06791 0)
(6.34769 -1.90037 0)
(7.31547 -0.960647 0)
(6.07048 -1.2754 0)
(6.7469 -0.70909 0)
(6.68248 -0.841261 0)
(6.59582 -0.744884 0)
(6.73343 -1.42184 0)
(7.37859 -1.55864 0)
(7.6721 -1.69293 0)
(7.84289 -2.06672 0)
(8.16806 -2.31715 0)
(8.45243 -2.18667 0)
(8.70456 -2.12402 0)
(8.98884 -2.08761 0)
(9.36935 -2.37668 0)
(9.92533 -2.2608 0)
(9.92959 -1.86345 0)
(10.0517 -1.44483 0)
(10.3602 -1.01835 0)
(10.5952 -0.356731 0)
(10.5989 0.690243 0)
(10.7187 1.81272 0)
(11.0913 3.45967 0)
(11.1734 4.89869 0)
(10.8391 5.45171 0)
(10.4671 6.35001 0)
(10.2825 7.58527 0)
(9.76426 8.50582 0)
(9.28047 9.55381 0)
(8.88084 10.7117 0)
(8.17153 11.6148 0)
(7.69084 12.2965 0)
(7.73788 13.8924 0)
(4.62386 18.2036 0)
(7.03642 -1.17086 0)
(7.27843 -1.67742 0)
(7.94142 -2.25551 0)
(7.27934 -2.51805 0)
(7.61884 -2.92055 0)
(6.34508 -3.08521 0)
(6.24054 -2.95512 0)
(5.13798 -2.59594 0)
(4.38423 -1.81386 0)
(3.41921 -1.43644 0)
(1.94308 -0.0112117 0)
(2.50018 1.9087 0)
(4.20481 3.91968 0)
(3.90852 6.98257 0)
(6.14454 7.35047 0)
(7.35992 5.27823 0)
(6.74437 4.45408 0)
(7.1139 3.58907 0)
(7.51814 2.55906 0)
(7.89626 1.78425 0)
(9.31591 0.426245 0)
(10.5178 -0.985101 0)
(10.9619 -1.91272 0)
(11.4851 -2.9011 0)
(11.8895 -3.70133 0)
(12.5655 -4.49994 0)
(13.3872 -5.41165 0)
(13.9227 -5.97541 0)
(14.2321 -6.43493 0)
(14.098 -6.76642 0)
(13.6156 -6.76022 0)
(13.2244 -6.86382 0)
(12.8079 -6.8954 0)
(12.41 -6.74931 0)
(12.1658 -6.83075 0)
(11.8393 -6.8539 0)
(11.4038 -6.66666 0)
(11.1125 -6.60245 0)
(10.8965 -6.69023 0)
(10.5988 -6.50132 0)
(10.2072 -6.20344 0)
(10.2718 -6.44167 0)
(10.3597 -6.82061 0)
(9.98876 -6.44501 0)
(9.37353 -5.86229 0)
(8.88691 -5.73368 0)
(8.86422 -5.53522 0)
(8.94888 -5.51499 0)
(9.05794 -6.10376 0)
(9.48402 -6.54644 0)
(9.76141 -6.2927 0)
(10.018 -5.43739 0)
(10.1103 -4.55766 0)
(10.2201 -3.36591 0)
(10.1616 -1.71886 0)
(10.1429 -0.375001 0)
(10.0608 0.830663 0)
(10.0811 2.39799 0)
(10.0634 3.77686 0)
(9.7458 4.85125 0)
(9.1757 5.39105 0)
(8.75303 5.59761 0)
(8.45722 6.11122 0)
(7.839 6.27554 0)
(7.50095 5.83663 0)
(7.20739 5.36474 0)
(6.67324 5.10975 0)
(6.48028 4.85771 0)
(6.54092 4.16204 0)
(6.23234 3.38256 0)
(6.19624 3.58401 0)
(6.15416 4.16403 0)
(6.05956 3.71647 0)
(6.03463 2.58007 0)
(6.57014 2.03691 0)
(6.80269 2.24697 0)
(6.69575 2.5748 0)
(6.55684 2.9881 0)
(6.684 3.41214 0)
(7.19825 3.18394 0)
(7.69321 2.88548 0)
(8.1511 3.96246 0)
(8.65961 5.70353 0)
(8.90622 6.23901 0)
(9.15987 5.54306 0)
(9.4157 5.24204 0)
(9.84215 5.73831 0)
(10.2159 6.33395 0)
(10.3011 6.19774 0)
(10.2249 5.17116 0)
(10.0463 3.9917 0)
(9.77664 3.33729 0)
(9.89029 2.64525 0)
(10.0968 1.25185 0)
(10.1135 -0.55164 0)
(9.85165 -1.93368 0)
(9.71334 -3.25957 0)
(9.54332 -4.95131 0)
(9.40218 -6.44688 0)
(9.17861 -7.44813 0)
(8.81557 -8.02263 0)
(8.60412 -8.50195 0)
(8.24701 -8.59296 0)
(8.29519 -8.25577 0)
(7.80949 -8.42089 0)
(7.92678 -8.60934 0)
(7.70446 -8.88031 0)
(7.88409 -9.05958 0)
(8.0555 -9.24246 0)
(8.20735 -9.36788 0)
(8.30407 -9.04662 0)
(8.15997 -8.23087 0)
(7.96189 -7.22601 0)
(7.92533 -6.35399 0)
(7.83958 -5.51159 0)
(7.75197 -4.39593 0)
(7.79839 -2.99822 0)
(7.81075 -1.73141 0)
(7.86493 -0.513505 0)
(7.92583 1.04057 0)
(7.58634 2.71696 0)
(7.13777 4.08878 0)
(7.14896 5.24127 0)
(7.25298 6.6259 0)
(7.45486 7.90376 0)
(7.27964 8.51914 0)
(7.14624 8.00955 0)
(6.91573 7.46823 0)
(6.93116 8.34735 0)
(6.68908 8.93832 0)
(6.37972 7.92066 0)
(5.93553 6.84948 0)
(6.13417 6.59628 0)
(6.17897 7.33475 0)
(6.53463 8.30903 0)
(6.86241 8.60187 0)
(6.60992 8.3417 0)
(6.43967 7.68867 0)
(5.70114 7.04844 0)
(5.52656 6.37038 0)
(5.06226 5.62169 0)
(5.07754 4.66187 0)
(4.90194 3.63252 0)
(5.35416 2.53281 0)
(5.55405 1.29166 0)
(6.14062 0.133092 0)
(6.1523 -0.8501 0)
(6.47531 -2.22725 0)
(6.77575 -3.56397 0)
(7.22329 -4.14426 0)
(7.63366 -3.80133 0)
(7.79849 -3.23736 0)
(7.89776 -3.29169 0)
(8.40462 -4.41229 0)
(8.45325 -5.26988 0)
(8.82155 -6.1059 0)
(8.50794 -6.42573 0)
(8.54877 -6.13501 0)