/*--------------------------------*- C++ -*----------------------------------*\
| =========                 |                                                 |
| \\      /  F ield         | OpenFOAM: The Open Source CFD Toolbox           |
|  \\    /   O peration     | Version:  2.4.0                                 |
|   \\  /    A nd           | Web:      www.OpenFOAM.org                      |
|    \\/     M anipulation  |                                                 |
\*---------------------------------------------------------------------------*/
FoamFile
{
    version     2.0;
    format      ascii;
    class       volScalarField;
    location    "0.082";
    object      k_0;
}
// * * * * * * * * * * * * * * * * * * * * * * * * * * * * * * * * * * * * * //

dimensions      [0 2 -2 0 0 0 0];

internalField   nonuniform List<scalar> 
17600
(
9.29567
7.40086
5.1334
3.92455
3.3487
2.94609
2.70049
2.46655
2.33328
2.2099
2.08866
2.06461
1.92956
1.94113
1.81696
1.83928
1.75631
1.70984
1.6972
1.88194
4.51386
6.19569
5.84694
5.04254
4.4304
3.92408
3.60411
3.30758
3.12064
2.95659
2.78238
2.74872
2.56869
2.5743
2.43641
2.43823
2.35332
2.28935
2.28916
2.27835
1.33259
3.27374
4.00108
3.95788
3.7745
3.45454
3.22999
3.01019
2.84546
2.72531
2.55639
2.52854
2.3785
2.37131
2.26765
2.25229
2.18945
2.13104
2.14302
2.04641
0.209538
1.19193
1.93035
2.31951
2.51947
2.51222
2.47611
2.40005
2.29974
2.25437
2.1322
2.11624
2.0229
2.00956
1.94341
1.92472
1.88395
1.83909
1.84852
1.76533
0.0262654
0.265432
0.643537
0.95868
1.24819
1.4248
1.54064
1.61121
1.60876
1.63246
1.60011
1.60185
1.57591
1.56753
1.54377
1.52826
1.51851
1.49206
1.48767
1.45111
0.00277545
0.0438419
0.140365
0.263208
0.418126
0.565901
0.697464
0.831956
0.876134
0.977495
1.00535
1.03133
1.07105
1.07727
1.09686
1.09327
1.11148
1.10976
1.09864
1.09664
0.000287571
0.00633617
0.0202858
0.0505541
0.0901163
0.147258
0.208765
0.302341
0.338089
0.416765
0.482292
0.507785
0.575515
0.597518
0.650358
0.65812
0.696216
0.71819
0.716549
0.737367
5.12438e-05
0.000869617
0.00264875
0.00714052
0.0132819
0.025276
0.039293
0.0741336
0.0885367
0.116623
0.159983
0.175101
0.217735
0.236763
0.284102
0.297639
0.332066
0.369278
0.373977
0.410991
2.76526e-05
0.000138808
0.000387502
0.000985394
0.00170509
0.00329974
0.00537707
0.011851
0.0152465
0.0214975
0.0351363
0.0403604
0.0550008
0.0627556
0.0833716
0.0915126
0.106901
0.133749
0.138088
0.168304
2.44799e-05
4.57408e-05
0.000113304
0.000209724
0.000287405
0.00046261
0.000680334
0.00149477
0.00194008
0.00281616
0.00516392
0.00615014
0.00921371
0.0109516
0.0160003
0.0184056
0.0223225
0.0315693
0.0333636
0.044407
2.47336e-05
3.68753e-05
4.94721e-05
7.54598e-05
0.000125637
0.000142026
0.000163573
0.000265431
0.000309875
0.00039211
0.000671016
0.000799749
0.001212
0.00142074
0.00219795
0.00258241
0.00317026
0.00487502
0.00530211
0.00703009
2.22807e-05
3.84427e-05
3.94232e-05
5.26461e-05
8.77596e-05
9.60101e-05
0.0001069
0.000145299
0.000146201
0.000150406
0.000190254
0.000203787
0.000232815
0.000252367
0.000353342
0.000394573
0.000448205
0.000656676
0.000696738
0.000800998
2.12911e-05
3.15525e-05
3.6288e-05
5.63491e-05
7.11928e-05
7.73561e-05
9.72886e-05
0.000109938
0.000106795
0.000108332
0.000114703
0.000110216
0.000111695
0.000122263
0.000131615
0.000137144
0.000151838
0.000171947
0.000172001
0.000190692
2.12967e-05
2.89636e-05
4.67294e-05
6.14812e-05
6.27471e-05
6.91491e-05
7.57641e-05
7.55769e-05
7.69367e-05
8.38182e-05
8.42448e-05
8.40619e-05
9.39004e-05
9.78166e-05
9.85319e-05
0.000103049
0.000112616
0.000113399
0.000113408
0.000136234
2.20487e-05
3.15525e-05
5.22506e-05
5.14288e-05
4.97931e-05
5.35277e-05
5.46461e-05
5.72422e-05
6.71284e-05
7.03185e-05
7.14332e-05
7.63542e-05
8.29402e-05
8.23184e-05
8.33395e-05
8.87054e-05
8.99915e-05
9.01832e-05
9.18012e-05
0.000118962
2.12787e-05
3.1826e-05
3.94783e-05
3.84791e-05
4.22837e-05
4.86279e-05
5.14275e-05
5.95181e-05
6.58054e-05
6.6049e-05
6.89822e-05
7.36674e-05
7.28953e-05
7.26775e-05
7.58617e-05
7.68684e-05
7.65879e-05
7.72617e-05
8.41136e-05
9.14673e-05
2.06026e-05
2.7807e-05
3.23064e-05
3.90373e-05
4.64322e-05
4.91833e-05
5.1036e-05
5.79227e-05
5.68672e-05
5.61121e-05
6.01796e-05
6.00794e-05
6.02411e-05
6.22288e-05
6.34154e-05
6.3316e-05
6.35494e-05
6.61853e-05
6.89942e-05
6.90238e-05
2.05006e-05
2.81062e-05
3.33129e-05
4.27387e-05
4.32482e-05
4.3493e-05
4.59547e-05
4.75886e-05
4.83753e-05
5.12722e-05
5.36997e-05
5.37973e-05
5.45177e-05
5.57587e-05
5.57448e-05
5.57975e-05
5.66455e-05
5.9502e-05
5.90392e-05
6.19138e-05
2.06685e-05
2.7906e-05
3.47676e-05
3.67695e-05
3.99744e-05
4.21445e-05
4.29519e-05
4.57777e-05
4.80102e-05
4.88293e-05
4.97387e-05
4.96938e-05
5.05953e-05
5.07221e-05
5.0964e-05
5.09392e-05
5.21719e-05
5.2672e-05
5.40212e-05
5.71949e-05
2.06644e-05
2.52753e-05
3.04576e-05
4.11918e-05
4.19917e-05
4.18148e-05
4.20781e-05
4.26169e-05
4.42307e-05
4.58235e-05
4.78315e-05
4.81234e-05
4.82692e-05
4.82116e-05
4.79409e-05
4.78729e-05
4.80934e-05
4.96942e-05
5.03244e-05
6.56371e-05
2.04992e-05
2.45044e-05
3.7171e-05
4.02336e-05
3.88523e-05
3.78839e-05
3.80741e-05
3.973e-05
4.26136e-05
4.52405e-05
4.58113e-05
4.54519e-05
4.5302e-05
4.48721e-05
4.46994e-05
4.46247e-05
4.49804e-05
4.73624e-05
5.00744e-05
6.10234e-05
2.05408e-05
2.76433e-05
3.6092e-05
3.52299e-05
3.47599e-05
3.80075e-05
4.07795e-05
4.34319e-05
4.54903e-05
4.55198e-05
4.46508e-05
4.35416e-05
4.36894e-05
4.37534e-05
4.46635e-05
4.49785e-05
4.72802e-05
4.80926e-05
5.26906e-05
8.95697e-05
2.06036e-05
2.80408e-05
3.08914e-05
3.31244e-05
4.08722e-05
4.46696e-05
4.44702e-05
4.46227e-05
4.45407e-05
4.31037e-05
4.25896e-05
4.33791e-05
4.53608e-05
4.70394e-05
4.78125e-05
4.79745e-05
4.92873e-05
4.92793e-05
5.00219e-05
5.59268e-05
2.07072e-05
2.53455e-05
3.20981e-05
4.41204e-05
4.61118e-05
4.52587e-05
4.27729e-05
4.27679e-05
4.29509e-05
4.35878e-05
4.80003e-05
5.16754e-05
5.19199e-05
5.20396e-05
5.16402e-05
5.12791e-05
5.31206e-05
5.31085e-05
5.35206e-05
7.6824e-05
2.09347e-05
2.61921e-05
4.07755e-05
4.56803e-05
4.38076e-05
4.20784e-05
4.24194e-05
4.64516e-05
5.01568e-05
5.46103e-05
5.69204e-05
5.63771e-05
5.56747e-05
5.54714e-05
5.47221e-05
5.5817e-05
6.0651e-05
6.11479e-05
6.76783e-05
6.98929e-05
2.12107e-05
2.92826e-05
4.21632e-05
4.20852e-05
4.13781e-05
4.56089e-05
5.40179e-05
5.69441e-05
5.9324e-05
6.07991e-05
5.94941e-05
5.83924e-05
5.92188e-05
6.02592e-05
6.22779e-05
7.30829e-05
7.34422e-05
7.34756e-05
8.18527e-05
8.55034e-05
2.13617e-05
3.09388e-05
3.82484e-05
4.15799e-05
5.20764e-05
6.11106e-05
6.19806e-05
6.21665e-05
6.3683e-05
6.35455e-05
6.31103e-05
6.60759e-05
7.36751e-05
7.65846e-05
8.59116e-05
9.15159e-05
9.00007e-05
9.31441e-05
0.000108734
0.000128642
2.16184e-05
2.87887e-05
4.27099e-05
5.48857e-05
6.5641e-05
6.64943e-05
6.65922e-05
6.78181e-05
7.25455e-05
7.4517e-05
8.04483e-05
9.80571e-05
0.000101945
0.000106904
0.000121367
0.00012834
0.00014144
0.000188454
0.00026068
0.000422175
2.21431e-05
3.02324e-05
5.84487e-05
6.36437e-05
7.44529e-05
7.6433e-05
8.12986e-05
9.13053e-05
0.000109697
0.000117549
0.0001425
0.00018031
0.000197001
0.000249177
0.000314376
0.000436945
0.00060166
0.00103751
0.0015614
0.00279052
2.28313e-05
3.39059e-05
7.87538e-05
8.49303e-05
0.000102584
0.000123661
0.000149245
0.000208095
0.000299324
0.000374224
0.000569843
0.000891051
0.00107505
0.0016224
0.00217582
0.00337228
0.00457088
0.00765399
0.0106184
0.0185933
2.44041e-05
5.02601e-05
0.000142707
0.00017844
0.000255395
0.000470117
0.000688019
0.00124712
0.00204309
0.00281626
0.00443353
0.00715058
0.0086218
0.0126639
0.0160187
0.0233393
0.0289706
0.0431885
0.0540973
0.0875069
2.82701e-05
0.000150151
0.000533511
0.000873235
0.00159477
0.00364895
0.00556171
0.0100506
0.0167256
0.0213698
0.0313235
0.0456926
0.0525894
0.0701988
0.0828183
0.108544
0.12486
0.16423
0.190061
0.269743
5.02336e-05
0.000881795
0.00346991
0.00650497
0.013136
0.0280568
0.0402239
0.0652373
0.0968932
0.114581
0.152008
0.190935
0.210458
0.254854
0.286737
0.331585
0.360254
0.424918
0.462257
0.561536
0.000283702
0.00636551
0.0253273
0.0456918
0.0939088
0.149513
0.209246
0.285771
0.360596
0.403876
0.481709
0.530872
0.565346
0.62246
0.662005
0.697996
0.729634
0.789625
0.822204
0.902001
0.00276236
0.0442375
0.151785
0.245902
0.427506
0.562802
0.703695
0.812701
0.907722
0.952742
1.02254
1.04265
1.07176
1.09352
1.11803
1.1261
1.14648
1.17218
1.19301
1.22962
0.0261523
0.268121
0.648482
0.947252
1.25782
1.41809
1.54949
1.5939
1.62957
1.61862
1.6212
1.59676
1.59146
1.56883
1.56443
1.54173
1.54122
1.5307
1.52933
1.52067
0.208442
1.19625
1.9284
2.31421
2.52404
2.50965
2.47899
2.38456
2.32885
2.22099
2.17701
2.08289
2.05634
1.98413
1.96161
1.90252
1.88314
1.82993
1.80196
1.75735
1.32615
3.28283
3.99648
3.95615
3.77874
3.44376
3.24418
2.99124
2.8669
2.68912
2.60587
2.46895
2.42618
2.31245
2.27616
2.18278
2.14339
2.04032
1.98546
1.887
4.50818
6.20462
5.84207
5.04415
4.42982
3.91293
3.61668
3.29087
3.13266
2.92259
2.82403
2.66735
2.61773
2.47737
2.43073
2.30799
2.25174
2.10209
2.02185
1.85755
9.28955
7.40847
5.12531
3.92881
3.34776
2.93913
2.7044
2.45755
2.33623
2.18147
2.11304
1.9919
1.95526
1.84194
1.79873
1.68728
1.63698
1.49323
1.40653
1.23154
0.885317
0.652799
0.660121
0.691773
0.706455
0.596219
0.375321
0.300486
0.26001
0.193007
0.145228
0.12174
0.118119
0.118816
0.119263
0.121933
0.135033
0.160783
0.1951
0.219278
0.25157
0.264961
0.257383
0.236561
0.186746
0.0972269
0.0437901
0.0199102
0.00944891
0.00458462
0.00245295
0.00149376
0.00107056
0.000936684
0.000949924
0.000992642
0.00109989
0.00132965
0.00151732
0.00191312
0.00242466
0.00348313
0.00517675
0.00675521
0.00983109
0.0262026
0.092893
0.114958
0.121772
0.13833
0.140919
0.125253
0.101784
0.10033
0.0957356
0.0899386
0.0927997
0.127949
0.159057
0.162213
0.118304
0.0796321
0.0756606
0.0860454
0.0858445
0.0725079
0.0697467
0.0773458
0.0842696
0.0843434
0.0768154
0.0522902
0.03275
0.0192829
0.0125915
0.0117139
0.0157327
0.0475665
0.0747902
0.0776704
0.0703217
0.0601698
0.058169
0.0580002
0.0554247
0.0534434
0.0536823
0.0524182
0.0457661
0.0418354
0.0412069
0.0411098
0.0363182
0.0270494
0.0214484
0.0190155
0.0187895
0.0196275
0.019921
0.019759
0.0192918
0.0193212
0.019779
0.0223765
0.028065
0.0323417
0.0404615
0.052075
0.0595166
0.0602121
0.0566002
0.0445246
0.0375244
0.0358198
0.0380113
0.0475799
0.0521864
0.0521976
0.0457877
0.0325612
0.0242619
0.0182937
0.0151741
0.0124669
0.0108728
0.00921649
0.00798542
0.00692067
0.00606259
0.00525874
0.00456598
0.00390336
0.0033036
0.00286603
0.00248728
0.00223615
0.00205214
0.00191874
0.0018183
0.00174316
0.0017008
0.0016683
0.00166421
0.00165838
0.00166443
0.00166169
0.00165812
0.00163162
0.00155847
0.00137319
0.00126257
0.00108008
0.000970797
0.000804249
0.000712846
0.000577638
0.00049274
0.000393281
0.000326438
0.000259558
0.000207382
0.000168266
0.000136936
0.00012234
0.000107289
0.000110122
0.000110972
0.000125321
0.000128264
0.0001536
0.000153773
0.00016976
0.000155524
0.000145069
0.000109431
9.12825e-05
7.70231e-05
8.02774e-05
9.34424e-05
0.000101426
0.00013852
0.000126492
0.000124577
9.01794e-05
7.74815e-05
7.11473e-05
7.63524e-05
0.000108851
8.72808e-05
9.73755e-05
9.41946e-05
0.000108138
0.000192504
0.000207002
0.000263181
0.000455442
0.000978352
0.00371319
0.040267
0.47115
1.73226
1.21589
1.0081
0.941872
0.861144
0.791724
0.714851
0.578902
0.394585
0.280533
0.200251
0.151455
0.141193
0.143847
0.150067
0.163091
0.202992
0.227664
0.2689
0.294709
0.295568
0.285502
0.257738
0.19296
0.0900551
0.0418482
0.0185834
0.00867369
0.00423917
0.0021917
0.0013135
0.000941235
0.000804973
0.00080545
0.000832643
0.000904977
0.00108555
0.00136137
0.00161336
0.0020106
0.00276594
0.00421907
0.00583153
0.00750938
0.0108582
0.0304219
0.10096
0.120117
0.125765
0.142061
0.142404
0.117552
0.0917764
0.0914597
0.0896376
0.0876746
0.0927852
0.131723
0.158651
0.158803
0.112164
0.0774566
0.0748238
0.0871808
0.0863589
0.0737549
0.0721463
0.0813032
0.0874841
0.0870944
0.0764596
0.0505626
0.0311373
0.0183064
0.012656
0.0122988
0.0182042
0.0553379
0.0788669
0.0799651
0.0694455
0.0586435
0.056779
0.0571115
0.0557652
0.0549999
0.055261
0.0526069
0.0446341
0.0412329
0.0404944
0.0408971
0.0372041
0.0273983
0.0216507
0.0188944
0.018519
0.0196831
0.0203663
0.0200668
0.019271
0.0192182
0.0196893
0.022529
0.0266931
0.030639
0.039118
0.0519955
0.0597575
0.0603379
0.0564674
0.044186
0.0374418
0.0359244
0.0386052
0.0478709
0.0518384
0.0512432
0.0441096
0.0318485
0.023751
0.0183247
0.0148278
0.0125412
0.0104151
0.00911555
0.00759521
0.00678466
0.00578526
0.00506623
0.00428814
0.00366556
0.00309021
0.00267551
0.00234009
0.002095
0.0019194
0.00177974
0.00168264
0.00161004
0.00156435
0.00154467
0.00154397
0.00154534
0.001557
0.00156348
0.00157258
0.00155807
0.0014912
0.00133095
0.00120667
0.00107375
0.000947074
0.000847849
0.000720655
0.000649541
0.000545113
0.000495376
0.000409979
0.000373424
0.000304278
0.000271291
0.000218636
0.000188226
0.000153349
0.000133344
0.000122166
0.000120872
0.000126661
0.000134482
0.000161324
0.000173566
0.00022384
0.000226475
0.000247992
0.000218558
0.000193626
0.000137074
0.000118838
0.000114419
0.000121268
0.000161699
0.000157944
0.000179743
0.000135003
0.000108793
8.90954e-05
9.72912e-05
0.000133697
0.000114908
0.00012078
0.000118464
0.000154774
0.000312657
0.000304319
0.000433064
0.0011019
0.00291066
0.0357721
0.327662
1.7104
1.38323
1.13583
1.01977
0.98615
0.869882
0.821032
0.774914
0.672501
0.499106
0.324266
0.222908
0.207025
0.21769
0.248312
0.280021
0.325065
0.346689
0.344144
0.32974
0.311373
0.274194
0.195207
0.0927939
0.0419617
0.0187411
0.00834866
0.00407855
0.00208532
0.00118096
0.000822396
0.000694472
0.000678104
0.000689577
0.000744162
0.000856539
0.00111059
0.00150062
0.00189392
0.00227013
0.00341732
0.00504232
0.00658889
0.00850771
0.0123268
0.0347667
0.110443
0.126451
0.129302
0.144002
0.142159
0.108511
0.0877212
0.0883233
0.0866556
0.0865109
0.0949342
0.135281
0.157843
0.155501
0.107268
0.0757912
0.0743809
0.0878239
0.0863469
0.0750431
0.0747513
0.0857855
0.0909554
0.0899335
0.0753395
0.048386
0.0293732
0.0175168
0.0129011
0.012961
0.0216208
0.0635444
0.0827128
0.0822757
0.0681782
0.0567695
0.0551791
0.0565999
0.0574487
0.0571489
0.0567145
0.0517499
0.0434871
0.0406133
0.0397524
0.0406481
0.0382547
0.0283733
0.0222545
0.0189319
0.0183291
0.0194533
0.0207263
0.0204453
0.0193835
0.0192612
0.0197926
0.022796
0.0261321
0.0295763
0.0378091
0.0521434
0.0601261
0.0605671
0.055839
0.0436357
0.0372222
0.0360515
0.0393458
0.0479591
0.0509748
0.0504952
0.0426874
0.0312888
0.0232431
0.0181073
0.0147808
0.012242
0.0104085
0.00870407
0.00754649
0.00641182
0.00566291
0.00473566
0.00413776
0.00344471
0.00299782
0.00257166
0.00231464
0.00207193
0.00191267
0.00176791
0.00166834
0.00159159
0.00154437
0.0015227
0.00151021
0.00150933
0.00150772
0.00150959
0.00149888
0.00144801
0.00132117
0.00117456
0.00105004
0.000914251
0.000825315
0.000699489
0.000643397
0.000544448
0.000510799
0.000443278
0.000419265
0.000367172
0.000356245
0.000326498
0.000319649
0.000296353
0.000284845
0.000250808
0.000231566
0.000193207
0.000164073
0.000150778
0.000153915
0.000170191
0.000188225
0.000237602
0.000260964
0.000339721
0.000347018
0.000342953
0.000277027
0.000211405
0.000154885
0.000161166
0.000194132
0.000194186
0.000252558
0.000199461
0.000149097
0.000113836
0.000124747
0.000186105
0.000152879
0.000175178
0.000174451
0.000244284
0.000433852
0.000476834
0.00125896
0.00247685
0.0304533
0.207632
1.52189
1.28914
1.11
0.972771
0.927347
0.891313
0.80935
0.755363
0.738458
0.697774
0.58283
0.445096
0.413627
0.41856
0.433975
0.434083
0.411963
0.395382
0.360612
0.325406
0.281023
0.190203
0.0939177
0.0429637
0.0190476
0.00851462
0.0040031
0.00209256
0.00114794
0.00074427
0.000612642
0.000586249
0.00059798
0.000629328
0.000700454
0.000818986
0.00108917
0.00163696
0.00221453
0.00266014
0.00402974
0.00602072
0.00764379
0.00989341
0.0142756
0.0395502
0.121271
0.13464
0.132468
0.144518
0.142499
0.100717
0.0859413
0.0880378
0.0864451
0.0862171
0.098587
0.137534
0.155333
0.151357
0.10277
0.073792
0.0742682
0.0878715
0.0853236
0.0764552
0.078059
0.0907502
0.0947287
0.0926636
0.0733221
0.0459931
0.0274834
0.0168689
0.0132495
0.0138468
0.0266576
0.0716075
0.086411
0.0841202
0.0661165
0.054344
0.053046
0.0562409
0.0594228
0.0593236
0.0577661
0.0500823
0.042434
0.0392993
0.0385022
0.0403701
0.0397473
0.0302214
0.0230758
0.019198
0.0183166
0.0189887
0.0209065
0.0209319
0.0198621
0.0194572
0.0201414
0.0234634
0.0260003
0.0288577
0.0373378
0.0533274
0.0610117
0.061046
0.0553179
0.0431851
0.0370761
0.0361055
0.0401585
0.0481604
0.0506787
0.0498746
0.041571
0.0302418
0.0228772
0.0176508
0.0145925
0.0119885
0.0101459
0.00856196
0.00725002
0.00629657
0.00530327
0.00459264
0.00381056
0.00335334
0.00283803
0.0025669
0.00227717
0.00211474
0.00191692
0.00183192
0.00171247
0.00167694
0.00163221
0.00162622
0.00161104
0.00161437
0.00160808
0.00160471
0.00158665
0.00150637
0.00134462
0.00118677
0.00104815
0.000907562
0.000777544
0.000667154
0.000562135
0.000483351
0.000409113
0.000356847
0.000317764
0.000293022
0.000279179
0.000283904
0.00028664
0.000307343
0.000306879
0.000332451
0.000332676
0.000352484
0.000329136
0.000311482
0.000266066
0.000233887
0.000214667
0.000219443
0.000249587
0.000280001
0.000389763
0.000419632
0.000533399
0.00049966
0.000431843
0.000279201
0.000242855
0.000228286
0.000242327
0.000337539
0.000271813
0.000206142
0.000150474
0.000173653
0.00023251
0.000204784
0.00025099
0.000301717
0.000500145
0.000516891
0.00208028
0.00266899
0.0236246
0.13085
1.29266
1.13971
0.98443
0.883346
0.807099
0.782795
0.741084
0.674391
0.667961
0.662775
0.635074
0.586738
0.541875
0.502311
0.48871
0.465023
0.414321
0.374555
0.311474
0.257751
0.172149
0.0873664
0.0418178
0.0186337
0.0084434
0.00399216
0.00207577
0.00117319
0.000731883
0.000562829
0.000522254
0.000523011
0.000533617
0.00055493
0.000618127
0.00076896
0.00106921
0.0017945
0.00250142
0.00304665
0.00430958
0.00715523
0.00920107
0.0120548
0.0170153
0.0449699
0.132776
0.144914
0.134164
0.143335
0.140221
0.0949923
0.0861055
0.0879224
0.0869043
0.0865627
0.104149
0.138909
0.1517
0.145888
0.0970905
0.0712841
0.0739539
0.0872115
0.0839135
0.0784896
0.0827972
0.0959076
0.0988994
0.0948715
0.0704807
0.0432044
0.0258192
0.0162598
0.0136669
0.0149702
0.0335362
0.0790419
0.0902265
0.0853493
0.063329
0.051743
0.0507303
0.0567456
0.0617739
0.0607261
0.0580384
0.0486527
0.0420868
0.0378494
0.0370313
0.0400381
0.0410849
0.0326102
0.0239722
0.0198655
0.0184008
0.0185883
0.0207014
0.0209425
0.0204393
0.0200629
0.0207959
0.0240266
0.0260601
0.0286238
0.0374057
0.0543187
0.0613305
0.0610696
0.0538699
0.0421183
0.0367246
0.0361538
0.0410923
0.0484714
0.050177
0.0487717
0.03966
0.029309
0.0220936
0.0174847
0.0140992
0.0117688
0.00972593
0.00830959
0.00700996
0.00597574
0.00505125
0.00424432
0.00361973
0.00313868
0.00279561
0.00247106
0.00229027
0.00205226
0.00194671
0.00181435
0.00178689
0.00175486
0.00177735
0.00177955
0.00183398
0.0018372
0.0018618
0.00184607
0.00181344
0.00168008
0.00149721
0.00136359
0.00122794
0.00106083
0.000906846
0.000787499
0.000665243
0.000550268
0.000455138
0.000378421
0.000321864
0.000269882
0.000238761
0.000216191
0.000210693
0.00021768
0.000232207
0.000266484
0.000301948
0.000338952
0.000413113
0.000435201
0.000490915
0.00048134
0.000456346
0.000376754
0.000325098
0.000307687
0.000324107
0.000396011
0.00044316
0.000657781
0.000674576
0.000742095
0.000572461
0.000399984
0.000293215
0.00031744
0.000457202
0.000377582
0.000345201
0.000236258
0.000256334
0.000303193
0.000297895
0.000314839
0.000830893
0.000708999
0.00467589
0.00338331
0.0176963
0.0817162
1.00752
0.91089
0.812292
0.709739
0.675804
0.644427
0.615982
0.577292
0.536966
0.529586
0.524098
0.516825
0.497261
0.462303
0.417009
0.375042
0.321211
0.255653
0.203442
0.131237
0.0724283
0.0362311
0.017166
0.00766071
0.00385772
0.00204303
0.00119902
0.000758124
0.000555905
0.000486737
0.000473503
0.000460283
0.000469101
0.000503683
0.000592727
0.000775027
0.00110279
0.00212666
0.00304849
0.00362259
0.00446015
0.00781265
0.0109333
0.0146765
0.020162
0.052825
0.145623
0.154364
0.133965
0.137382
0.130507
0.0919974
0.0872029
0.0874509
0.0888475
0.0893367
0.112291
0.140639
0.148093
0.139212
0.0906929
0.0689267
0.0727824
0.0857187
0.0831706
0.0808918
0.0888338
0.101324
0.103269
0.0965361
0.0667533
0.0403175
0.0238608
0.0158928
0.014182
0.0164263
0.0423448
0.0860317
0.0939439
0.0860936
0.0606534
0.0488064
0.048247
0.0574776
0.063725
0.061145
0.0576376
0.0480428
0.0421887
0.0366281
0.0354753
0.0392023
0.0421571
0.035434
0.0250868
0.0209456
0.0187297
0.0185605
0.0202199
0.0210365
0.0207908
0.0206914
0.0222185
0.0246998
0.0262071
0.0286723
0.0382274
0.0552093
0.0610712
0.0602531
0.0515193
0.0408853
0.0365244
0.0364044
0.0420479
0.0483048
0.0494788
0.0478017
0.0383937
0.0286458
0.0217288
0.0171626
0.013857
0.0113288
0.00953734
0.0079822
0.00672481
0.00559546
0.00475111
0.0039771
0.0034864
0.0030637
0.00274602
0.00244979
0.00223187
0.00203179
0.00189634
0.00182643
0.00179799
0.00181208
0.00182216
0.00189041
0.00189439
0.00191497
0.00189643
0.00184257
0.0017826
0.00166187
0.00160545
0.00147391
0.00143393
0.00130381
0.00125156
0.00110195
0.0010538
0.000904333
0.000845652
0.000705873
0.000657785
0.000557383
0.000474403
0.000421041
0.000349287
0.000326385
0.000272103
0.000275016
0.000277478
0.000306891
0.000334689
0.000396656
0.000468284
0.000586701
0.000631909
0.000745954
0.000730988
0.000678116
0.000538941
0.000458587
0.000457857
0.000503621
0.000685139
0.000751237
0.00107317
0.000950743
0.000695614
0.000427603
0.000451277
0.000498616
0.000528711
0.000525758
0.000400189
0.000337249
0.000612939
0.00046748
0.00172606
0.00109895
0.00744376
0.00470224
0.0136119
0.0536171
0.687994
0.620122
0.568295
0.493414
0.469035
0.468872
0.453562
0.446023
0.42788
0.39377
0.377274
0.362013
0.33692
0.312325
0.264053
0.223406
0.170055
0.123323
0.079373
0.0467521
0.0269573
0.0136223
0.00654634
0.00318684
0.00197385
0.00119594
0.000806715
0.000576464
0.000477897
0.000448955
0.000422085
0.000424207
0.000447389
0.000497568
0.0006127
0.000871169
0.00136461
0.00286037
0.00408459
0.00464806
0.00509045
0.0079845
0.0123628
0.0169484
0.0232654
0.0620219
0.156795
0.159228
0.132433
0.124654
0.115538
0.0899114
0.0853844
0.0857835
0.0900309
0.0939171
0.120461
0.142162
0.145675
0.13249
0.0853257
0.0677892
0.0716603
0.0841118
0.0832432
0.0839844
0.0958505
0.107008
0.107607
0.0959769
0.0624016
0.0369048
0.0221103
0.0156654
0.0148139
0.0184547
0.0526374
0.092784
0.0976591
0.0856991
0.0570092
0.045582
0.0455841
0.0588
0.0647526
0.0609703
0.0564502
0.0477212
0.0425199
0.035952
0.0338325
0.0383122
0.0423544
0.0386436
0.0270057
0.0221959
0.0194862
0.0189613
0.0197581
0.0212421
0.0215839
0.022129
0.0233947
0.025059
0.0264993
0.0288173
0.0403432
0.0566861
0.0611394
0.0597762
0.0496606
0.0399036
0.0363702
0.0368422
0.0433077
0.0483644
0.0491786
0.0472766
0.0374762
0.0278841
0.0211464
0.0166239
0.013397
0.0110887
0.00918471
0.00770535
0.0062549
0.00531462
0.00447887
0.00387604
0.00341769
0.00305795
0.00272665
0.002432
0.00222318
0.00203736
0.0019496
0.00191926
0.00192959
0.00197675
0.00199004
0.00199047
0.00198327
0.00193915
0.00190846
0.00183982
0.00182534
0.00181289
0.00178802
0.00177539
0.00172988
0.00169928
0.00154275
0.00147315
0.00128094
0.00123458
0.00108078
0.00105907
0.000963011
0.000973512
0.000897979
0.000906768
0.00083344
0.000817413
0.000724912
0.000676423
0.000623999
0.000514554
0.000487051
0.00043682
0.000479672
0.000503471
0.000629862
0.000681012
0.00087927
0.000945521
0.00112095
0.00104252
0.000922153
0.0006754
0.000686073
0.000728629
0.000852217
0.0013443
0.00130745
0.0013132
0.000889786
0.000635359
0.000688668
0.000672566
0.000848947
0.000596576
0.00126015
0.000780532
0.00345704
0.00216957
0.0209588
0.00891345
0.011574
0.0350008
0.387858
0.35117
0.309514
0.262338
0.252253
0.261398
0.266363
0.27341
0.275879
0.262603
0.24784
0.221241
0.191488
0.166034
0.12674
0.0903453
0.0604976
0.0404166
0.0259302
0.0157693
0.009307
0.00468331
0.00247814
0.00157851
0.00120799
0.000815962
0.000622615
0.000487931
0.000441979
0.000415265
0.000409641
0.000418164
0.000450583
0.000530701
0.000725586
0.00117769
0.00214276
0.00456629
0.00622389
0.00671258
0.00683574
0.00870908
0.0136149
0.0193001
0.0265392
0.0704197
0.168297
0.164369
0.133533
0.111564
0.099044
0.0850957
0.0838116
0.0865679
0.0927454
0.0995572
0.126596
0.144123
0.14483
0.127663
0.0821762
0.0676792
0.0715818
0.0826936
0.0844106
0.0889865
0.10378
0.112543
0.111494
0.092831
0.0579906
0.0336511
0.0205474
0.0156274
0.0154673
0.0213177
0.0642458
0.0996386
0.10133
0.0835467
0.0531425
0.0422572
0.0430689
0.0599478
0.0652013
0.0593517
0.054929
0.0478041
0.0430756
0.0360774
0.0323423
0.0374019
0.0421741
0.0416114
0.0304911
0.0234537
0.0205052
0.0196712
0.0200197
0.02154
0.0222982
0.0237425
0.0243706
0.0252006
0.0266517
0.0299444
0.045474
0.0595548
0.0617154
0.0588647
0.0468099
0.0385361
0.0360353
0.0370712
0.044206
0.0485397
0.0487956
0.0458695
0.035676
0.0267067
0.0203786
0.0161603
0.01297
0.0108023
0.0087835
0.0072989
0.0058949
0.00507411
0.00440326
0.00383364
0.00342934
0.00302756
0.00273848
0.00240117
0.00226974
0.00214201
0.00213886
0.00214042
0.00216026
0.00215032
0.00214196
0.00211305
0.00214489
0.00212255
0.0021759
0.00216216
0.00229204
0.00228777
0.00232544
0.00226102
0.00228614
0.00215506
0.00207574
0.00180594
0.00174298
0.00152097
0.00145942
0.00125754
0.001233
0.00111884
0.00112682
0.00105818
0.00110514
0.00103733
0.00108842
0.00102609
0.00106738
0.000990515
0.000977133
0.000857284
0.000807694
0.000710739
0.000670853
0.000696482
0.000738333
0.000917158
0.00101184
0.00137234
0.0014433
0.00155061
0.00138033
0.00104103
0.000939828
0.00105574
0.00138389
0.00148773
0.0021882
0.00144291
0.00148439
0.00113202
0.00183317
0.00113217
0.00296175
0.00191078
0.0212202
0.00862758
0.0261471
0.020238
0.0152232
0.0256999
0.161224
0.146259
0.120415
0.0972927
0.0923637
0.098879
0.10497
0.119611
0.126679
0.123052
0.117468
0.100293
0.0769727
0.0575293
0.0398063
0.0258758
0.0166658
0.0115145
0.00758647
0.00496011
0.0028041
0.00158135
0.00117516
0.00104582
0.000865255
0.000634062
0.000515573
0.0004481
0.000420963
0.000412793
0.000415128
0.000433902
0.000496443
0.000656737
0.00103529
0.00186818
0.00375788
0.00749508
0.0100213
0.0104641
0.0102112
0.0109632
0.014864
0.0215408
0.0294492
0.0783031
0.18192
0.168527
0.136311
0.101257
0.0852166
0.0780046
0.0840616
0.0940296
0.0997989
0.106162
0.13094
0.145345
0.145081
0.125157
0.0803796
0.0681796
0.0718333
0.0824297
0.0872721
0.0959063
0.111763
0.11796
0.114623
0.088185
0.0529275
0.0301886
0.0191287
0.0158625
0.0164031
0.0255653
0.0769472
0.105641
0.105208
0.0811188
0.0492247
0.039
0.0408984
0.0608739
0.0654077
0.0575701
0.0536349
0.0489387
0.0442381
0.0368885
0.0314721
0.0360606
0.0413982
0.0425996
0.03532
0.0253572
0.0216998
0.0207757
0.0204202
0.0218338
0.0227094
0.0242767
0.0251155
0.0255379
0.0268749
0.0313818
0.0499448
0.0613629
0.0619961
0.0567045
0.0443016
0.0375668
0.0358662
0.0377714
0.0448512
0.0483799
0.0483717
0.0442815
0.0337979
0.025685
0.0195242
0.0158549
0.0125193
0.0104007
0.00830438
0.00695346
0.00564128
0.00495844
0.00438382
0.00380723
0.00338434
0.00297927
0.00272354
0.00243418
0.00236826
0.00231493
0.00231828
0.00232623
0.00235738
0.00234692
0.00240972
0.00239434
0.00255529
0.00255395
0.00269983
0.00266488
0.00284265
0.00278647
0.00285962
0.00276772
0.00287242
0.00273025
0.00272153
0.00252664
0.00253945
0.00230716
0.00221015
0.00185782
0.00182306
0.00164534
0.00158803
0.00143144
0.00142898
0.00141646
0.00134749
0.00134312
0.00133773
0.00136625
0.00133692
0.00132518
0.00130639
0.00124662
0.00117764
0.00102934
0.000954936
0.000960429
0.00105363
0.00113888
0.00163552
0.00165429
0.00272006
0.00220834
0.00234789
0.00169067
0.00179366
0.00178203
0.00295997
0.00246816
0.0031513
0.00205685
0.00617944
0.00385499
0.0331874
0.0125098
0.0335443
0.0172117
0.0229561
0.02236
0.0210363
0.0259176
0.0432364
0.0399232
0.031337
0.0247087
0.0232298
0.0249741
0.0291149
0.0375789
0.0418832
0.0403816
0.0370641
0.0288933
0.0196991
0.0130406
0.00865398
0.00547242
0.00391397
0.00292073
0.00214982
0.00146467
0.00087061
0.000790735
0.000844352
0.000831313
0.000678043
0.000534615
0.000470779
0.000438804
0.00042492
0.000429088
0.000447397
0.000506079
0.000661732
0.00101233
0.00175866
0.00327444
0.00657054
0.0116917
0.0153538
0.0158916
0.0152891
0.0152835
0.017901
0.0243353
0.0327946
0.0816193
0.193647
0.172549
0.136241
0.100169
0.0772427
0.0716647
0.0823927
0.0927144
0.099749
0.111544
0.134274
0.144887
0.144441
0.122658
0.0792904
0.0697118
0.0732598
0.0841615
0.091713
0.104038
0.119448
0.123437
0.116714
0.081619
0.0474601
0.0269461
0.0182466
0.0163573
0.0177707
0.031923
0.0893134
0.111296
0.108713
0.0778859
0.0450665
0.0360893
0.0398607
0.0620413
0.0654007
0.0557044
0.0532348
0.0509216
0.0458304
0.0381213
0.0314885
0.0341845
0.039924
0.0426484
0.0410268
0.0288119
0.0230854
0.0223072
0.0210572
0.0226867
0.0230285
0.0241813
0.0255291
0.0259834
0.0269322
0.0350783
0.0542051
0.0620088
0.0617096
0.053306
0.0421809
0.0367405
0.0358563
0.0392221
0.0456875
0.0480419
0.0480541
0.0435099
0.0327238
0.0247602
0.0186432
0.01529
0.012102
0.00993283
0.0078705
0.00665086
0.00552817
0.0048871
0.00434699
0.00371359
0.00332321
0.00291588
0.0027402
0.00251757
0.00249312
0.00245492
0.00248617
0.00248075
0.00255714
0.00255029
0.00268573
0.00267923
0.00291348
0.00291636
0.00308362
0.00306134
0.00330292
0.00325024
0.00338598
0.0033204
0.00352431
0.00338321
0.00347224
0.00328119
0.00342458
0.00315254
0.00326069
0.0029835
0.00331332
0.00296279
0.00324832
0.00285955
0.0034751
0.0029196
0.00333477
0.00275601
0.00355313
0.00294059
0.00357233
0.00285917
0.00363511
0.00297983
0.00354019
0.00266389
0.00285565
0.00225999
0.00234165
0.00190943
0.0022411
0.00210778
0.00347802
0.00325077
0.00519953
0.0041108
0.00599827
0.00419289
0.00938215
0.00587496
0.034922
0.0162398
0.109226
0.0489196
0.0893108
0.0485198
0.0518596
0.0363179
0.033513
0.025582
0.0240801
0.0269162
0.00678044
0.0062387
0.00484258
0.00404991
0.0038719
0.00439775
0.00610213
0.0082053
0.00920902