/*--------------------------------*- C++ -*----------------------------------*\
| =========                 |                                                 |
| \\      /  F ield         | OpenFOAM: The Open Source CFD Toolbox           |
|  \\    /   O peration     | Version:  2.4.0                                 |
|   \\  /    A nd           | Web:      www.OpenFOAM.org                      |
|    \\/     M anipulation  |                                                 |
\*---------------------------------------------------------------------------*/
FoamFile
{
    version     2.0;
    format      ascii;
    class       volScalarField;
    location    "0.156";
    object      pMean;
}
// * * * * * * * * * * * * * * * * * * * * * * * * * * * * * * * * * * * * * //

dimensions      [0 2 -2 0 0 0 0];

internalField   nonuniform List<scalar> 
4400
(
128.792
107.51
99.282
95.4073
92.2472
89.1607
86.0608
82.9779
79.7401
75.9146
126.874
107.576
99.3185
95.4186
92.25
89.1611
86.0613
82.978
79.755
76.2123
125.669
107.886
99.4521
95.4573
92.2704
89.169
86.0653
82.9756
79.8194
76.3646
124.937
108.261
99.6295
95.5148
92.3128
89.1964
86.0794
82.9902
79.8922
76.5908
124.344
108.604
99.8082
95.5735
92.3723
89.2394
86.1107
83.0074
79.9914
76.8237
123.833
108.889
99.9647
95.6166
92.4283
89.2923
86.1506
83.0418
80.1093
77.0952
123.412
109.115
100.095
95.641
92.4736
89.3379
86.1909
83.0799
80.1995
77.4366
123.088
109.286
100.198
95.6536
92.5046
89.3759
86.2244
83.1236
80.2494
77.7498
122.87
109.402
100.268
95.6593
92.5245
89.4042
86.2488
83.1657
80.323
78.0695
122.761
109.462
100.303
95.6617
92.5356
89.4199
86.2721
83.204
80.4116
78.303
122.76
109.463
100.302
95.6636
92.5367
89.4284
86.2854
83.2446
80.4973
78.4935
122.868
109.406
100.268
95.6631
92.5307
89.4248
86.2968
83.284
80.5817
78.6412
123.085
109.292
100.199
95.6602
92.5144
89.4116
86.301
83.3201
80.6671
78.7482
123.407
109.123
100.097
95.651
92.4871
89.3872
86.2991
83.3539
80.7535
78.8149
123.828
108.897
99.9666
95.6287
92.4473
89.3523
86.2918
83.3823
80.8385
78.849
124.338
108.614
99.8101
95.5886
92.3959
89.3112
86.2812
83.4067
80.9091
78.8802
124.931
108.271
99.6318
95.5321
92.3407
89.2751
86.2734
83.4289
80.9561
78.9072
125.664
107.896
99.455
95.4762
92.3008
89.2546
86.2723
83.4471
80.9824
78.941
126.87
107.586
99.3217
95.4381
92.2818
89.2486
86.2746
83.4576
80.9928
78.9792
128.788
107.52
99.2851
95.427
92.279
89.2493
86.2761
83.4612
80.9942
79.0822
74.0149
73.4064
72.0464
70.7225
69.5869
68.7792
68.353
67.9236
67.9553
68.0289
67.8149
67.4874
67.024
66.9551
67.0262
66.9652
67.0963
67.6808
68.5502
69.6848
70.9186
72.2086
73.4693
74.6436
75.6978
76.5795
77.3313
77.9214
78.3422
78.5716
78.6206
78.6707
78.6871
78.771
78.8466
78.9798
79.1881
79.4395
79.7207
79.9333
80.2246
80.547
80.8992
81.2684
81.628
81.9567
82.2842
82.5459
82.8215
83.0875
83.4553
83.8718
84.3141
84.7766
85.2349
85.646
86.0524
86.2826
86.5365
86.5537
86.7145
86.6921
86.8969
86.8962
87.2367
87.3208
87.7816
87.8649
88.3834
88.4165
88.9199
88.8692
89.3373
89.082
89.4028
89.0066
89.3638
89.0146
89.5867
89.3705
90.0811
89.9605
90.7429
90.6441
91.3863
91.1523
91.7926
91.4847
92.0108
91.5688
91.8553
91.1039
91.163
89.9732
89.8464
87.6848
87.413
82.3323
81.3757
56.2953
74.2426
73.5546
72.4479
71.2841
70.2465
69.4876
69.0876
68.7754
68.793
68.9191
68.7874
68.5272
68.085
67.9528
68.0523
68.0795
68.1806
68.6668
69.4407
70.4604
71.5689
72.7391
73.8852
74.9526
75.901
76.6808
77.3204
77.8087
78.1196
78.244
78.2078
78.1592
78.0919
78.1147
78.1615
78.3089
78.5338
78.8289
79.1446
79.3642
79.7259
80.1174
80.5699
81.0469
81.5261
81.9568
82.3744
82.6981
83.0277
83.3419
83.7271
84.1283
84.5601
85.0061
85.4577
85.8511
86.2405
86.4377
86.6639
86.6349
86.753
86.6735
86.8175
86.7734
87.0876
87.1908
87.6515
87.7658
88.3046
88.3623
88.9043
88.8561
89.3197
89.0246
89.313
88.8623
89.2567
88.786
89.4234
89.0355
89.8355
89.5193
90.4344
90.0892
91.0346
90.5482
91.4314
90.8449
91.6088
90.8513
91.3659
90.2495
90.5075
88.7798
88.8919
85.7819
85.8081
78.4707
76.898
49.1356
74.6618
73.9011
72.8567
71.7951
70.8512
70.1584
69.7783
69.5482
69.5486
69.6787
69.6336
69.4614
69.0985
68.9408
69.0535
69.169
69.2801
69.6967
70.3816
71.2933
72.2831
73.3283
74.3514
75.2979
76.1231
76.7902
77.3175
77.703
77.9134
77.9595
77.869
77.7537
77.6303
77.6133
77.6479
77.8249
78.0696
78.4139
78.749
78.9802
79.4104
79.8634
80.433
81.0268
81.6309
82.1724
82.6812
83.0618
83.4523
83.8053
84.2069
84.5782
85.002
85.4217
85.8656
86.2335
86.594
86.7606
86.9484
86.8828
86.9458
86.8182
86.8815
86.8008
87.0516
87.1843
87.6221
87.7825
88.3247
88.4185
88.9701
88.9291
89.3571
89.0355
89.3058
88.7949
89.2038
88.6108
89.2661
88.7051
89.5673
89.0548
90.0625
89.4987
90.6214
89.8668
91.0124
90.0924
91.1646
90.0151
90.85
89.2877
89.8143
87.4623
87.7711
83.6916
84.0604
75.0612
71.8399
47.2757
75.0384
74.321
73.3608
72.3677
71.4934
70.8666
70.5196
70.3486
70.3423
70.4551
70.4737
70.3766
70.1194
69.9719
70.0836
70.2673
70.4118
70.7753
71.3712
72.1782
73.0551
73.969
74.8577
75.6695
76.3601
76.9073
77.3244
77.61
77.7436
77.7398
77.6162
77.4667
77.3169
77.2833
77.3212
77.532
77.7988
78.1907
78.5208
78.7778
79.2652
79.7753
80.4824
81.1964
81.9345
82.5889
83.1818
83.6199
84.0771
84.4602
84.881
85.213
85.6292
86.0091
86.442
86.7805
87.1005
87.2332
87.3746
87.2695
87.2747
87.1023
87.084
86.9725
87.1503
87.3096
87.7152
87.9228
88.4495
88.5808
89.1194
89.0844
89.4601
89.1114
89.3739
88.7989
89.1925
88.4869
89.1243
88.4102
89.3026
88.6125
89.6605
88.9255
90.1238
89.1414
90.4739
89.218
90.6348
88.9821
90.295
88.1013
89.1201
86.0486
86.5433
81.61
81.771
71.9994
66.3499
47.2182
75.3695
74.7539
73.953
73.0075
72.1675
71.5904
71.2935
71.1811
71.1966
71.3028
71.3591
71.3215
71.1691
71.0639
71.161
71.3802
71.5675
71.8885
72.398
73.0942
73.8562
74.6336
75.3803
76.052
76.6083
77.0349
77.3467
77.547
77.6303
77.6006
77.4632
77.3059
77.1512
77.1214
77.18
77.4226
77.7122
78.1363
78.4394
78.7418
79.2702
79.8443
80.702
81.5315
82.4151
83.1801
83.8502
84.3422
84.878
85.2826
85.7282
86.0171
86.4235
86.7474
87.1646
87.4637
87.742
87.8308
87.9333
87.7707
87.7341
87.5034
87.4202
87.2637
87.3887
87.5587
87.9339
88.1627
88.6631
88.8176
89.3351
89.2979
89.6322
89.2348
89.4821
88.8423
89.2051
88.4071
89.0136
88.1676
89.0659
88.2203
89.2575
88.4192
89.562
88.4674
89.7465
88.2968
89.765
87.7558
89.3855
86.5709
88.1391
84.2448
85.4228
79.686
79.2564
69.5214
60.6178
46.8817
75.6767
75.1699
74.5079
73.624
72.8264
72.3202
72.0984
72.0528
72.1027
72.2101
72.2866
72.2988
72.2382
72.1924
72.2814
72.4991
72.7205
73.0078
73.4288
74.007
74.6483
75.2865
75.8925
76.4326
76.8607
77.1765
77.4013
77.5385
77.589
77.5454
77.4071
77.2618
77.1258
77.1181
77.2074
77.4755
77.7913
78.2238
78.4956
78.8594
79.4214
80.0726
81.0718
82.0015
83.0392
83.9187
84.6599
85.1983
85.8273
86.2456
86.7226
86.9695
87.3686
87.6235
88.0132
88.2528
88.5042
88.5268
88.6154
88.3657
88.3229
88.0094
87.8985
87.6722
87.7715
87.9093
88.2662
88.4792
88.9577
89.1038
89.6048
89.546
89.8569
89.3924
89.6112
88.9139
89.2332
88.37
88.9335
87.9793
88.8604
87.8754
88.8895
87.9769
89.0265
87.9208
89.0393
87.594
88.8789
86.756
88.2132
85.027
86.6747
82.0127
83.5113
76.8869
75.9015
66.9349
56.7252
47.0595
76.15
75.5998
74.915
74.0997
73.42
73.0397
72.9163
72.9304
73.0103
73.1246
73.2172
73.2695
73.2795
73.2959
73.3887
73.5884
73.8195
74.0832
74.4252
74.8835
75.3987
75.903
76.3811
76.8024
77.1168
77.3431
77.5046
77.6001
77.6252
77.5691
77.4394
77.3201
77.2234
77.2594
77.3859
77.6714
78.0153
78.4347
78.6818
79.1237
79.7184
80.4724
81.5743
82.584
83.7773
84.7667
85.5759
86.1589
86.9029
87.3203
87.8347
88.0406
88.4366
88.6206
88.9833
89.1413
89.3761
89.3025
89.3975
89.0347
89.0259
88.601
88.5144
88.191
88.2949
88.3722
88.7161
88.8812
89.3372
89.446
89.9406
89.8345
90.1262
89.5906
89.7614
89.021
89.2777
88.3741
88.8739
87.8544
88.6749
87.5857
88.5549
87.5624
88.5133
87.4211
88.368
87.0338
88.0203
86.0535
87.0689
83.9491
85.0607
80.132
80.7801
73.7023
71.7399
63.6657
54.7127
47.4114
76.9188
76.2274
75.2573
74.4574
73.9389
73.7097
73.6871
73.7589
73.8661
73.9922
74.1029
74.1864
74.248
74.3161
74.4223
74.6028
74.8286
75.0701
75.3477
75.6976
76.0928
76.481
76.8537
77.1725
77.39
77.5517
77.6704
77.7294
77.73
77.6679
77.5579
77.4727
77.4278
77.5258
77.6976
77.9947
78.3547
78.7637
79.0006
79.5253
80.1579
81.0293
82.1929
83.2727
84.6033
85.6862
86.5699
87.1915
88.0711
88.4739
89.0247
89.2035
89.6044
89.7167
90.0558
90.1264
90.345
90.1824
90.285
89.7963
89.8412
89.2818
89.2635
88.8083
88.9509
88.9433
89.2927
89.3873
89.8207
89.8644
90.3468
90.1889
90.4396
89.8553
89.9529
89.1859
89.359
88.4376
88.8436
87.804
88.5024
87.3939
88.2358
87.1922
87.992
86.8844
87.6697
86.3717
87.0954
85.2342
85.8315
82.925
83.2654
78.6376
77.9152
71.6301
68.3308
61.7341
53.9898
47.4151
77.4732
76.7195
75.5999
74.8069
74.4108
74.3181
74.3961
74.5284
74.6638
74.8013
74.9264
75.0321
75.1307
75.2376
75.3609
75.5281
75.7337
75.9475
76.1734
76.4385
76.7341
77.0345
77.3295
77.5617
77.7002
77.816
77.8974
77.9233
77.9047
77.8447
77.7619
77.7166
77.7311
77.9033
78.122
78.429
78.7877
79.2028
79.4562
80.0522
80.7295
81.7078
82.9085
84.0689
85.4892
86.6502
87.6005
88.2658
89.2912
89.675
90.2723
90.4219
90.8373
90.8871
91.2162
91.1925
91.4074
91.1696
91.2821
90.6722
90.7663
90.0482
90.1272
89.5092
89.7462
89.6051
89.9884
89.9935
90.4213
90.3805
90.8344
90.623
90.8142
90.1969
90.2104
89.4372
89.5003
88.5973
88.8636
87.8536
88.3624
87.3271
87.9243
86.9136
87.4499
86.3533
86.9419
85.6892
86.119
84.3172
84.5067
81.8171
81.3763
77.2972
75.3172
70.5974
66.3869
61.5703
53.984
47.5763
77.8833
77.1428
75.9833
75.2064
74.8871
74.897
75.0576
75.241
75.3996
75.5453
75.6811
75.804
75.9311
76.0675
76.2065
76.3642
76.5424
76.7236
76.907
77.1094
77.3351
77.5795
77.8179
77.9765
78.051
78.1317
78.1802
78.1799
78.1486
78.0959
78.0485
78.0501
78.1331
78.3828
78.6456
78.9627
79.314
79.7446
80.0423
80.7021
81.4246
82.4933
83.7057
84.9599
86.4077
87.6314
88.6397
89.3642
90.5226
90.8765
91.543
91.6551
92.114
92.0967
92.4294
92.3154
92.5313
92.2388
92.36
91.6505
91.7802
90.8966
91.0736
90.2768
90.6543
90.3553
90.8113
90.6872
91.1396
90.9958
91.4257
91.1559
91.271
90.6455
90.567
89.8075
89.7414
88.8933
88.9802
88.0437
88.3112
87.3917
87.6663
86.7604
86.9144
85.8874
86.2273
85.0922
85.129
83.4901
83.1525
80.8981
79.6509
76.2522
73.7105
70.3267
65.8168
62.5745
54.4915
48.4219
78.1954
77.4997
76.3687
75.6293
75.3652
75.4409
75.6608
75.886
76.0689
76.2273
76.3754
76.5175
76.6674
76.8253
76.9766
77.1256
77.2774
77.4275
77.5786
77.7357
77.9117
78.1198
78.3131
78.4079
78.4297
78.4825
78.5007
78.4833
78.4575
78.4315
78.4317
78.4847
78.6462
78.9682
79.2621
79.5923
79.9431
80.4005
80.7603
81.478
82.2332
83.375
84.5699
85.9113
87.3307
88.6356
89.6588
90.4821
91.7395
92.0692
92.7892
92.8844
93.3859
93.3179
93.6699
93.4636
93.7036
93.3538
93.4846
92.7107
92.8563
91.8495
92.0944
91.1345
91.6551
91.1847
91.7364
91.4774
91.9579
91.7199
92.114
91.8104
91.809
91.2333
91.0236
90.3356
90.1016
89.3676
89.2348
88.4373
88.4338
87.6631
87.5863
86.8021
86.5286
85.6069
85.685
84.7186
84.3138
82.9233
82.0631
80.3246
78.4625
75.7371
73.0345
70.8108
66.1139
63.8738
55.5099
49.7499
78.4071
77.7743
76.7333
76.0709
75.8629
75.9808
76.2333
76.4854
76.6896
76.8627
77.0246
77.184
77.3508
77.5219
77.6793
77.8196
77.9515
78.0798
78.2028
78.3274
78.4725
78.6562
78.8092
78.8435
78.8177
78.8501
78.8462
78.8243
78.8269
78.8505
78.912
79.0292
79.2729
79.6524
79.9674
80.305
80.674
81.1788
81.6187
82.3808
83.1472
84.3382
85.4924
86.9079
88.2624
89.6654
90.6404
91.6286
92.9003
93.2481
93.9911
94.0868
94.6332
94.5088
94.8914
94.6183
94.8685
94.5027
94.6195
93.8438
93.9657
92.9099
93.1541
92.1281
92.7163
92.1119
92.7346
92.3703
92.8568
92.5673
92.8871
92.6071
92.4275
91.978
91.566
91.0431
90.5668
90.0466
89.6315
89.0561
88.76
88.1512
87.7469
87.0771
86.4004
85.6247
85.4901
84.6867
83.9085
82.7737
81.5079
80.2833
77.9921
76.0573
73.1723
71.9278
66.9452
65.0461
56.8582
50.9559
78.5273
77.9808
77.0895
76.539
76.388
76.5215
76.7761
77.0346
77.2524
77.4393
77.6153
77.7909
77.9705
78.146
78.3018
78.434
78.5475
78.6522
78.7557
78.86
78.9867
79.1583
79.2854
79.2711
79.2105
79.232
79.227
79.226
79.2771
79.3613
79.4914
79.6874
80.0107
80.4256
80.753
81.0955
81.4924
82.0585
82.6012
83.3935
84.158
85.3689
86.4807
87.9529
89.2215
90.7397
91.6137
92.8131
93.9885
94.3994
95.0903
95.2652
95.7895
95.6802
96.0613
95.7866
96.0193
95.6933
95.7602
95.0757
95.1014
94.1163
94.2594
93.274
93.8035
93.1859
93.7941
93.3899
93.8162
93.5416
93.7317
93.5314
93.1132
92.8537
92.1764
91.9045
91.1134
90.8978
90.1373
89.8739
89.2212
88.8678
88.0754
87.673
86.5043
86.0489
85.6239
85.1125
83.9228
83.183
81.4809
80.8475
78.1795
77.1702
73.9059
73.3864
68.0345
65.9711
58.1544
51.9122
78.5451
78.1054
77.4247
77.015
76.9214
77.0523
77.2843
77.5292
77.7502
77.9474
78.1357
78.3226
78.5061
78.6782
78.8272
78.9495
79.0524
79.1461
79.2345
79.3199
79.4328
79.597
79.7099
79.6674
79.5906
79.6102
79.627
79.6789
79.8055
79.9675
80.176
80.4576
80.8451
81.2687
81.6033
81.9577
82.3981
83.0286
83.6783
84.4747
85.2443
86.4381
87.5132
89.0345
90.2046
91.8416
92.5987
94.0487
94.9865
95.5599
96.1075
96.4534
96.8632
96.8354
97.1582
96.9519
97.1303
96.9016
96.8723
96.37
96.2096
95.4596
95.383
94.5946
94.8995
94.3743
94.8581
94.5259
94.8061
94.6114
94.6257
94.524
93.8392
93.7921
92.8284
92.8371
91.7123
91.8281
90.7042
90.802
89.7405
89.7617
88.5254
88.5771
86.9051
86.9645
85.9423
86.0056
84.2209
84.1413
81.8766
81.9149
78.8745
78.7154
74.9792
74.7638
69.0851
66.6173
59.2322
52.7438
78.4886
78.1833
77.7549
77.4894
77.4294
77.5327
77.727
77.9484
78.1637
78.3648
78.5571
78.7445
78.9235
79.0879
79.2311
79.3503
79.4501
79.5385
79.6183
79.6918
79.7959
79.9576
80.0705
80.0299
79.9645
80.0004
80.0577
80.1808
80.3963
80.6455
80.9418
81.3164
81.7493
82.1517
82.4757
82.8396
83.3428
84.0479
84.7978
85.5883
86.3708
87.513
88.5743
90.1299
91.1912
92.9432
93.5603
95.2876
95.9697
96.6942
97.0721
97.6506
97.838
98.0035
98.1411
98.0871
98.1071
98.0654
97.8396
97.6404
97.2084
96.8499
96.457
96.0594
96.0264
95.704
95.9105
95.7346
95.7755
95.7336
95.5179
95.54
94.5702
94.7359
93.4868
93.7598
92.3354
92.7438
91.2955
91.738
90.288
90.7296
89.075
89.6606
87.5267
88.2935
86.4354
87.2417
84.7489
85.465
82.557
83.2119
79.8546
80.2966
76.097
75.8294
69.9517
67.0042
60.0827
53.5451
78.3937
78.2265
78.0478
77.8962
77.8462
77.9168
78.0724
78.2664
78.469
78.6675
78.8605
79.0481
79.2249
79.3836
79.5207
79.6355
79.7341
79.8223
79.9023
79.9751
80.0843
80.2531
80.3751
80.3621
80.3401
80.4142
80.5293
80.7442
81.0501
81.3859
81.7723
82.2218
82.6746
83.0486
83.3438
83.7079
84.271
85.0439
85.881
86.6781
87.4812
88.5643
89.6464
91.2017
92.1635
94.01
94.4576
96.4295
96.8585
97.7795
97.8527
98.8001
98.6585
99.1303
98.9221
99.1459
98.8673
99.1159
98.5955
98.7827
98.0312
98.1349
97.3908
97.4774
97.0473
97.0907
96.8981
96.9817
96.6701
96.8587
96.3486
96.5218
95.2725
95.6151
94.1181
94.6074
92.948
93.5939
91.871
92.6358
90.8254
91.7191
89.6447
90.8135
88.2676
89.7185
87.054
88.6482
85.4938
87.0305
83.3671
84.6095
80.9104
81.7284
77.0792
76.514
70.635
67.2274
60.7424
54.3163
78.4312
78.3204
78.2521
78.1696
78.1322
78.1825
78.3081
78.478
78.6677
78.8623
79.0551
79.2411
79.4131
79.5661
79.6993
79.8134
79.9146
80.0077
80.097
80.1857
80.314
80.4955
80.6379
80.6771
80.7202
80.8496
81.0434
81.3556
81.745
82.1603
82.6232
83.1193
83.5694
83.9107
84.1811
84.5462
85.1395
85.951
86.8444
87.6651
88.5032
89.5425
90.6571
92.1711
93.0552
94.9826
95.3033
97.4368
97.5444
98.8795
98.5297
99.7964
99.3236
100.095
99.5401
100.102
99.4725
100.064
99.1981
99.7622
98.7062
99.2053
98.157
98.7134
97.8889
98.3828
97.7604
98.1982
97.4728
97.9307
97.0549
97.4127
95.8955
96.3978
94.6724
95.3665
93.4891
94.3785
92.3861
93.4879
91.3282
92.6708
90.1877
91.8932
88.9526
91.0163
87.6908
90.008
86.2661
88.6483
84.1404
86.0556
81.9072
82.8848
77.8393
76.8915
71.1823
67.3943
61.2487
55.0397
78.5054
78.4284
78.3839
78.3253
78.2996
78.3402
78.4449
78.5963
78.7757
78.9665
79.1568
79.3388
79.506
79.6552
79.7868
79.9031
80.014
80.1216
80.2271
80.3423
80.5025
80.706
80.8759
80.9776
81.0973
81.2979
81.5745
81.9712
82.4261
82.9006
83.4115
83.9169
84.3449
84.6576
84.9178
85.2851
85.8761
86.6927
87.5996
88.4534
89.3487
90.3742
91.5079
92.9424
93.7945
95.765
95.9817
98.2563
97.9999
99.7742
99.1252
100.548
99.8454
100.912
100.038
100.895
99.931
100.815
99.6496
100.499
99.2028
100.014
98.7371
99.6621
98.5047
99.4237
98.3963
99.1987
98.0755
98.8308
97.5543
98.1369
96.3596
97.0277
95.0751
95.9857
93.8909
95.0333
92.783
94.1987
91.7462
93.4574
90.6637
92.7757
89.529
92.0499
88.2698
91.1371
86.9329
89.9089
84.9255
87.4688
82.734
83.6719
78.3663
77.0811
71.592
67.5516
61.6096
55.6758
78.592
78.5205
78.4559
78.3976
78.3755
78.4085
78.4991
78.6383
78.811
78.9999
79.1897
79.3714
79.538
79.6884
79.8246
79.9488
80.07
80.1931
80.3216
80.468
80.6575
80.8815
81.0823
81.2463
81.4401
81.7089
82.0543
82.5027
82.9843
83.48
83.9969
84.4843
84.8804
85.1716
85.4336
85.8041
86.3863
87.1836
88.0787
88.9639
89.9219
90.9637
92.1206
93.468
94.3211
96.3022
96.3798
98.8099
98.3322
100.243
99.4576
101.08
100.247
101.473
100.384
101.425
100.258
101.263
99.9531
100.916
99.5243
100.524
99.1278
100.285
98.9357
100.112
98.8072
99.8688
98.45
99.4264
97.8607
98.6137
96.6318
97.4298
95.2955
96.3675
94.1125
95.4312
93.0149
94.629
92.0121
93.9421
90.9834
93.3275
89.8905
92.6724
88.6918
91.8489
87.4276
90.6438
85.4223
88.5504
83.3467
84.0986
78.8078
77.1494
71.9124
67.6669
61.8297
56.1318
78.7439
78.5891
78.481
78.4159
78.3921
78.4206
78.506
78.6408
78.8099
78.9967
79.1848
79.3657
79.5344
79.689
79.8321
79.9663
80.0996
80.2368
80.3818
80.547
80.7516
80.9862
81.2042
81.3995
81.627
81.9234
82.2926
82.7527
83.2337
83.7266
84.2317
84.6994
85.0764
85.3658
85.6432
86.0276
86.6047
87.3832
88.2601
89.1646
90.1677
91.2249
92.3883
93.7019
94.5626
96.5359
96.6098
99.0538
98.4996
100.418
99.6274
101.372
100.378
101.682
100.527
101.63
100.399
101.425
100.094
101.088
99.6729
100.747
99.3085
100.562
99.1201
100.398
98.962
100.129
98.5719
99.6435
97.9455
98.7864
96.6973
97.5641
95.3414
96.4881
94.1568
95.5593
93.0629
94.7745
92.0659
94.1115
91.0572
93.5351
89.9859
92.9168
88.8162
92.1443
87.5349
90.8887
85.5806
88.9686
83.4682
84.2393
78.9135
77.1361
71.9721
67.6679
61.875
56.1104
75.6694
75.2529
74.0865
72.3894
70.9554
69.8871
69.2134
68.9558
68.8221
68.8686
69.1212
69.4803
69.8189
70.1983
70.7475
71.5164
72.412
73.3442
74.2017
75.1169
76.2842
77.6802
79.3026
81.0468
82.9025
84.8977
86.9772
89.0407
91.0839
92.9692
94.8869
96.6088
98.3208
99.698
100.916
101.702
102.473
102.943
103.489
103.617
103.477
102.898
102.223
101.351
100.622
99.9214
99.5008
99.0718
98.8511
98.5609
98.4599
98.3281
98.3532
98.3578
98.4403
98.4798
98.5102
98.4828
98.433
98.3293
98.2248
98.1012
98.0129
97.8936
97.7897
97.6345
97.5228
97.3904
97.3397
97.2314
97.187
97.0578
97.1097
97.0463
97.2731
97.0628
96.9661
96.6392
96.4199
96.2183
96.2016
96.2907
96.5445
96.8304
97.1448
97.4401
97.6925
97.92
98.1156
98.2935
98.4529
98.6018
98.7368
98.8385
98.894
98.9889
99.1244
99.3527
100.033
100.899
75.6148
75.1384
73.9008
72.1573
70.6803
69.6053
68.9787
68.7612
68.6123
68.6438
68.8881
69.2372
69.5738
69.9426
70.4737
71.2552
72.1649
73.0913
73.9254
74.8264
75.9749
77.3661
78.9467
80.6286
82.4605
84.4658
86.5905
88.6849
90.7522
92.657
94.5742
96.2786
97.9614
99.3382
100.548
101.359
102.126
102.633
103.169
103.375
103.242
102.728
102.064
101.237
100.519
99.8361
99.428
99.0132
98.8054
98.5178
98.4274
98.2908
98.3217
98.3238
98.4079
98.4462
98.4793
98.4496
98.4028
98.2921
98.186
98.053
97.9657
97.8404
97.7339
97.5705
97.4553
97.3178
97.2698
97.1605
97.1079
96.9692
97.023
96.9726
97.1719
97.0017
96.8896
96.5851
96.3684
96.1687
96.1645
96.261
96.53
96.8228
97.143
97.4397
97.6934
97.9206
98.1163
98.2925
98.4509
98.5969
98.7334
98.8336
98.8868
98.9534
99.0212
99.1988
99.873
100.724
75.499
74.92
73.5455
71.6975
70.1395
69.0274
68.4927
68.3442
68.1853
68.2021
68.4466
68.784
69.0802
69.3798
69.8419
70.5883
71.4808
72.3559
73.142
74.0408
75.2203
76.6223
78.139
79.7193
81.5118
83.5152
85.7248
87.8732
89.9877
91.9506
93.8937
95.5704
97.204
98.59
99.7781
100.638
101.389
101.966
102.475
102.778
102.669
102.257
101.613
100.869
100.184
99.5511
99.1654
98.7887
98.6018
98.3365
98.2708
98.1378
98.1856
98.1934
98.28
98.3175
98.3536
98.3221
98.2807
98.1661
98.0589
97.916
97.8244
97.6909
97.5755
97.3989
97.2743
97.1353
97.0858
96.9823
96.9155
96.7609
96.8086
96.7825
96.9231
96.8248
96.6793
96.4212
96.2101
96.0394
96.0603
96.1831
96.4738
96.7873
97.1148
97.4228
97.6774
97.9087
98.1034
98.2826
98.4366
98.5816
98.7173
98.8325
98.8861
98.9159
98.8479
98.9444
99.5795
100.449
75.3182
74.6405
73.1016
71.1378
69.4941
68.3073
67.8515
67.7493
67.5876
67.626
67.8873
68.1958
68.3954
68.5676
68.9269
69.5905
70.4191
71.2212
71.9526
72.8653
74.0984
75.529
77.0376
78.5468
80.3194
82.3142
84.6037
86.8243
88.9753
91.0045
92.9837
94.6447
96.21
97.6004
98.7839
99.6847
100.416
101.052
101.512
101.884
101.808
101.494
100.903
100.25
99.6184
99.0544
98.6912
98.3623
98.2065
97.9718
97.9397
97.8193
97.894
97.9218
98.0125
98.0625
98.0991
98.0764
98.0408
97.9286
97.8208
97.6717
97.5762
97.4346
97.3051
97.1128
96.9761
96.8428
96.7904
96.7026
96.6223
96.4595
96.4845
96.4791
96.568
96.5271
96.3592
96.1484
95.9444
95.8132
95.8615
96.0304
96.3484
96.7047
97.0478
97.3721
97.6343
97.8675
98.0681
98.2467
98.4045
98.542
98.6883
98.8223
98.8993
98.8826
98.678
98.6704
99.2666
100.133
75.0964
74.3326
72.6374
70.5577
68.8141
67.5393
67.1206
67.0246
66.8357
66.874
67.1172
67.3847
67.4895
67.522
67.7791
68.3506
69.0978
69.8358
70.5324
71.4797
72.7623
74.2149
75.7499
77.2339
79.0073
81.0299
83.4137
85.7277
87.9026
89.9675
91.9619
93.5885
95.0892
96.4567
97.6587
98.5824
99.2841
99.9548
100.379
100.788
100.741
100.511
99.9838
99.4222
98.8652
98.3742
98.0416
97.7532
97.6501
97.4338
97.4405
97.3365
97.4389
97.497
97.5961
97.6644
97.7085
97.6966
97.673
97.5595
97.4607
97.3072
97.2152
97.0638
96.9226
96.7199
96.5711
96.4506
96.3984
96.3312
96.2499
96.085
96.084
96.0836
96.1319
96.1109
95.9377
95.7711
95.5856
95.4984
95.58
95.8188
96.1657
96.5749
96.9331
97.2785
97.5465
97.7868
97.9903
98.1763
98.3352
98.4815
98.6283
98.7907
98.8811
98.8564
98.521
98.4348
98.9869
99.872
74.8794
74.053
72.222
70.0407
68.1921
66.8103
66.3591
66.1938
65.9237
65.9137
66.0783
66.2888
66.3577
66.2955
66.4916
66.981
67.6603
68.3739
69.0782
70.0575
71.3697
72.8519
74.4275
75.9275
77.719
79.8013
82.2742
84.6799
86.8592
88.9062
90.8999
92.4674
93.9105
95.2426
96.4552
97.3874
98.0599
98.749
99.1471
99.5493
99.5236
99.3707
98.9219
98.4484
97.9618
97.5438
97.2426
96.9957
96.943
96.7417
96.8004
96.7196
96.8532
96.9536
97.0652
97.1488
97.2059
97.1976
97.1899
97.0745
96.9897
96.8317
96.7434
96.5902
96.4507
96.244
96.0939
95.9831
95.9357
95.8905
95.8197
95.6591
95.6307
95.6183
95.6255
95.5955
95.432
95.3065
95.1572
95.1277
95.2537
95.5636
95.941
96.3973
96.7748
97.1361
97.4103
97.653
97.86
98.051
98.2231
98.3775
98.5409
98.7087
98.8306
98.7999
98.4307
98.2742
98.8507
99.7061
74.7109
73.8399
71.8864
69.6208
67.6682
66.1678
65.5925
65.2487
64.8498
64.7176
64.7756
64.9389
65.0551
64.9758
65.1584
65.5842
66.2296
66.9777
67.74
68.7547
70.0964
71.6124
73.2278
74.7461
76.5465
78.696
81.2329
83.69
85.8606
87.846
89.8391
91.3443
92.7264
94.0124
95.2099
96.1471
96.7933
97.4735
97.8432
98.2101
98.2046
98.1166
97.7516
97.3343
96.9134
96.5632
96.2884
96.0888
96.075
95.9128
96.0187
95.9648
96.123
96.2657
96.3934
96.5014
96.5651
96.5727
96.5802
96.4814
96.4091
96.259
96.1851
96.0364
95.9087
95.7042
95.5589
95.4594
95.4248
95.3996
95.3459
95.1968
95.1412
95.1033
95.0736
95.0107
94.8693
94.7784
94.6881
94.7227
94.8975
95.2692
95.682
96.1784
96.5737
96.9427
97.2226
97.462
97.6721
97.8656
98.0507
98.2227
98.3996
98.5825
98.7104
98.7137
98.3613
98.2367
98.789
99.6925
74.6064
73.6978
71.6313
69.2899
67.2403
65.6149
64.8229
64.2301
63.6897
63.3857
63.3294
63.4514
63.6735
63.6625
63.8495
64.2494
64.8966
65.7258
66.5941
67.6606
69.0537
70.6066
72.2587
73.786
75.5771
77.7747
80.334
82.7719
84.9314
86.8311
88.8083
90.2397
91.5488
92.7783
93.9322
94.8874
95.4973
96.1527
96.4957
96.8188
96.8277
96.7825
96.4929
96.1088
95.7531
95.4401
95.1892
95.0232
95.0482
94.9376
95.0676
95.0441
95.2133
95.4035
95.5406
95.698
95.7759
95.8207
95.8548
95.7816
95.7395
95.6055
95.552
95.4142
95.3008
95.1095
94.9768
94.8964
94.8708
94.8662
94.8333
94.6972
94.6214
94.5509
94.4881
94.3893
94.2781
94.217
94.1935
94.2943
94.5177
94.9506
95.3926
95.9209
96.3294
96.7069
96.9871
97.2257
97.4324
97.6275
97.8178
98.0079
98.1967
98.3904
98.5327
98.5649
98.3201
98.2497
98.8822
99.6932
74.5538
73.5994
71.4391
69.0305
66.8824
65.1276
64.0458
63.201
62.5536
62.081
61.8916
61.9685
62.3173
62.441
62.6373
63.0475
63.7277
64.6765
65.6851
66.8275
68.2879
69.8773
71.5619
73.0986
74.8604
77.0708
79.595
81.9631
84.094
85.8827
87.8139
89.1485
90.3742
91.5566
92.6278
93.5961
94.1735
94.7958
95.1138
95.3884
95.4037
95.3823
95.1572
94.8134
94.5127
94.2193
93.9843
93.8287
93.8907
93.8138
93.961
93.9884
94.1569
94.406
94.5487
94.7859
94.9051
95.0027
95.0728
95.0311
95.0112
94.8969
94.8495
94.734
94.6398
94.4766
94.3576
94.3012
94.2869
94.304
94.2909
94.1645
94.0775
93.9675
93.8778
93.7565
93.6804
93.654
93.6926
93.8557
94.1206
94.6021
95.0717
95.6226
96.0473
96.4293
96.715
96.9497
97.1549
97.3428
97.5359
97.7275
97.9291
98.1212
98.2853
98.3601
98.2415
98.2759
98.9159
99.8835
74.5119
73.5002
71.2679
68.8051
66.5593
64.679
63.2894
62.2324
61.524
60.9033
60.5962
60.6201
61.0984
61.3864
61.5826
62.0266
62.7701
63.8559
65.0175
66.2462
67.7869
69.419
71.1235
72.6773
74.3984
76.5768
79.0134
81.2712
83.3346
85.0012
86.8343
88.0875
89.2142
90.3504
91.3184
92.2708
92.8297
93.4003
93.6887
93.9168
93.9385
93.9293
93.768
93.4696
93.1998
92.9179
92.6896
92.5507
92.6301
92.5691
92.7314
92.8172
92.9827
93.3014
93.4661
93.7982
93.9669
94.1235
94.221
94.2221
94.2108
94.13
94.0915
94.0065
93.9302
93.8006
93.6975
93.6715
93.6754
93.7101
93.7132
93.602
93.5093
93.3576
93.2508
93.1194
93.0817
93.1021
93.1947
93.4076
93.7048
94.2177
94.7175
95.2864
95.7314
96.1135
96.4046
96.6372
96.8393
97.0198
97.2031
97.395
97.5858
97.7848
97.9602
98.0935
98.1057
98.2815
99.0428
99.8975
74.4284
73.3465
71.0755
68.5718
66.2497
64.2691
62.6203
61.4112
60.6832
59.9441
59.5572
59.5358
60.139
60.5927
60.7596
61.2378
62.0524
63.2582
64.5672
65.8861
67.5095
69.1991
70.9139
72.493
74.1683
76.2723
78.5724
80.6822
82.6306
84.1702
85.8475
87.0376
88.0589
89.1523
90.0252
90.921
91.4596
91.9624
92.2186
92.4133
92.4449
92.4522
92.3336
92.073
91.8321
91.5607
91.3421
91.2261
91.2982
91.2541
91.4186
91.5523
91.7171
92.1094
92.3042
92.7248
92.937
93.1633
93.2977
93.3488
93.3621
93.309
93.2846
93.2289
93.1744
93.0883
93.0094
93.0098
93.0372
93.0808
93.1029
93.0098
92.9144
92.728
92.6185
92.4858
92.4856
92.5594
92.7003
92.9543
93.2764
93.8029
94.3303
94.917
95.3799
95.7624
96.0516
96.2853
96.4822
96.6544
96.8248
97.0036
97.1856
97.3729
97.5682
97.7456
97.8962
98.19
99.0074
100.105
74.248
73.1019
70.8259
68.3276
65.9698
63.941
62.1367
60.8563
60.1468
59.3579
58.9238
58.8533
59.5294
60.1117
60.2329
60.7268
61.6038
62.8964
64.3245
65.7312
67.421
69.1668
70.8836
72.4934
74.1248
76.1259
78.2509
80.1809
81.9685
83.3774
84.8577
85.9951
86.9234
87.9651
88.7612
89.5693
90.0732
90.4955
90.7283
90.895
90.9369
90.9572
90.8664
90.6501
90.4323
90.1756
89.9763
89.8791
89.9432
89.9203
90.078
90.2404
90.4287
90.8625
91.1115
91.5839
91.8715
92.1505
92.3399
92.4286
92.4733
92.4452
92.4379
92.4173
92.3963
92.3549
92.3072
92.3251
92.3875
92.4373
92.483
92.399
92.3115
92.1031
92.0042
91.8845
91.9377
92.0384
92.2263
92.4989
92.8467
93.3696
93.9243
94.519
94.9992
95.3769
95.6641
95.8914
96.0879
96.2454
96.4022
96.5604
96.7263
96.9009
97.0987
97.324
97.5806
98.0492
98.9553
99.864
73.9573
72.7424
70.5002
68.0779
65.7837
63.7711
61.9395
60.6696
60.0215
59.2421
58.7719
58.6314
59.318
59.9716
60.0467
60.508
61.4358
62.7634
64.2657
65.7503
67.4801
69.2811
70.9829
72.6139
74.1965
76.0705
78.0053
79.7517
81.3571
82.637
83.9137
84.9773
85.828
86.7835
87.5122
88.225
88.6747
89.0324
89.2476
89.3902
89.4366
89.4613
89.3918
89.2194
89.0269
88.7983
88.6276
88.5488
88.6098
88.6011
88.7588
88.9379
89.173
89.6227
89.9551
90.4474
90.8136
91.1246
91.3605
91.4807
91.5587
91.5608
91.579
91.5954
91.608
91.6055
91.6005
91.6397
91.74
91.7911
91.8555
91.78
91.7125
91.5083
91.4382
91.3484
91.4521
91.5574
91.7706
92.0511
92.4193
92.9395
93.5153
94.1056
94.5939
94.9678
95.2486
95.467
95.6567
95.8016
95.9368
96.0728
96.2128
96.3619
96.5541
96.7885
97.1172
97.6317
98.522
99.6811
73.5928
72.3301
70.1651
67.8481
65.7282
63.8046
62.0745
60.8811
60.3252
59.6022
59.09
58.8731
59.5147
60.184
60.2129
60.5903
61.5299
62.8479
64.3819
65.9345
67.6695
69.5053
71.1788
72.805
74.3372
76.0674
77.8103
79.385
80.8013
81.9486
83.0406
84.0005
84.7782
85.6058
86.2666
86.887
87.2815
87.592
87.7843
87.9061
87.9531
87.9946
87.9461
87.8136
87.6487
87.4637
87.3307
87.2756
87.3362
87.3392
87.5061
87.7032
87.9935
88.4618
88.8706
89.3648
89.7922
90.1207
90.3975
90.5452
90.655
90.685
90.7305
90.7781
90.8337
90.8671
90.9092
90.9653
91.0997
91.1464
91.2346
91.1692
91.139
90.9594
90.9328
90.8703
91.0121
91.113
91.3394
91.6248
92.0153
92.5234
93.1082
93.6837
94.1767
94.5413
94.8104
95.0108
95.1934
95.3238
95.4437
95.5466
95.6589
95.7658
95.9259
96.1478
96.4841
97.0525
97.9545
98.866
73.2732
71.9658
69.9192
67.7184
65.8188
64.0691
62.521
61.4506
61.0111
60.3835
59.8428
59.5551
60.0864
60.7263
60.7115
60.9785
61.8826
63.1591
64.6674
66.2484
67.9606
69.7941
71.4483
73.0506
74.532
76.1126
77.6636
79.068
80.2942
81.308
82.2398
83.074
83.7708
84.4515
85.0351
85.569
85.9139
86.1804
86.3516
86.4668
86.5262
86.5849
86.5555
86.4623
86.3374
86.2126
86.1229
86.0931
86.1559
86.1764
86.3622
86.5865
86.9278
87.4119
87.8707
88.3642
88.8363
89.1804
89.483
89.6494
89.7828
89.8402
89.9206
89.9951
90.0972
90.1533
90.247
90.3143
90.4904
90.5368
90.6596
90.6036
90.6258
90.4767
90.5052
90.4495
90.6227
90.708
90.9494
91.2333
91.6395
92.123
92.708
93.2605
93.7532
94.098
94.3528
94.5295
94.7106
94.8332