/*--------------------------------*- C++ -*----------------------------------*\
| =========                 |                                                 |
| \\      /  F ield         | OpenFOAM: The Open Source CFD Toolbox           |
|  \\    /   O peration     | Version:  2.4.0                                 |
|   \\  /    A nd           | Web:      www.OpenFOAM.org                      |
|    \\/     M anipulation  |                                                 |
\*---------------------------------------------------------------------------*/
FoamFile
{
    version     2.0;
    format      ascii;
    class       volScalarField;
    location    "0.089";
    object      pPrime2Mean;
}
// * * * * * * * * * * * * * * * * * * * * * * * * * * * * * * * * * * * * * //

dimensions      [0 4 -4 0 0 0 0];

internalField   nonuniform List<scalar> 
4400
(
7.15658e+06
6.78846e+06
6.40489e+06
6.03136e+06
5.66897e+06
5.3177e+06
4.97729e+06
4.64694e+06
4.32397e+06
3.99589e+06
7.15674e+06
6.78845e+06
6.40489e+06
6.03136e+06
5.66897e+06
5.3177e+06
4.97731e+06
4.64701e+06
4.3242e+06
3.99709e+06
7.15684e+06
6.78843e+06
6.40488e+06
6.03135e+06
5.66898e+06
5.31771e+06
4.97735e+06
4.64714e+06
4.32466e+06
3.99981e+06
7.15689e+06
6.78839e+06
6.40487e+06
6.03135e+06
5.66898e+06
5.31773e+06
4.9774e+06
4.64734e+06
4.32534e+06
4.00336e+06
7.15694e+06
6.78837e+06
6.40485e+06
6.03135e+06
5.66898e+06
5.31775e+06
4.97748e+06
4.64758e+06
4.3262e+06
4.00737e+06
7.15698e+06
6.78834e+06
6.40484e+06
6.03135e+06
5.66899e+06
5.31777e+06
4.97756e+06
4.64787e+06
4.3272e+06
4.01156e+06
7.15702e+06
6.78832e+06
6.40483e+06
6.03135e+06
5.66899e+06
5.3178e+06
4.97766e+06
4.6482e+06
4.3283e+06
4.01577e+06
7.15704e+06
6.78831e+06
6.40483e+06
6.03135e+06
5.669e+06
5.31784e+06
4.97777e+06
4.64855e+06
4.32947e+06
4.01989e+06
7.15706e+06
6.7883e+06
6.40482e+06
6.03136e+06
5.66901e+06
5.31787e+06
4.97789e+06
4.64892e+06
4.33067e+06
4.02382e+06
7.15707e+06
6.7883e+06
6.40482e+06
6.03136e+06
5.66902e+06
5.31791e+06
4.97801e+06
4.6493e+06
4.33187e+06
4.02752e+06
7.15707e+06
6.7883e+06
6.40482e+06
6.03136e+06
5.66904e+06
5.31795e+06
4.97813e+06
4.64968e+06
4.33304e+06
4.03095e+06
7.15706e+06
6.7883e+06
6.40483e+06
6.03137e+06
5.66905e+06
5.31799e+06
4.97825e+06
4.65004e+06
4.33415e+06
4.03407e+06
7.15704e+06
6.78831e+06
6.40483e+06
6.03137e+06
5.66906e+06
5.31803e+06
4.97836e+06
4.65039e+06
4.33519e+06
4.03688e+06
7.15702e+06
6.78833e+06
6.40484e+06
6.03138e+06
5.66908e+06
5.31806e+06
4.97847e+06
4.65071e+06
4.33613e+06
4.03935e+06
7.15698e+06
6.78835e+06
6.40485e+06
6.03138e+06
5.66909e+06
5.3181e+06
4.97857e+06
4.651e+06
4.33697e+06
4.04148e+06
7.15694e+06
6.78837e+06
6.40487e+06
6.03139e+06
5.6691e+06
5.31813e+06
4.97865e+06
4.65125e+06
4.33768e+06
4.04326e+06
7.1569e+06
6.7884e+06
6.40488e+06
6.03139e+06
5.66911e+06
5.31815e+06
4.97872e+06
4.65145e+06
4.33827e+06
4.04469e+06
7.15684e+06
6.78843e+06
6.4049e+06
6.0314e+06
5.66912e+06
5.31817e+06
4.97877e+06
4.65161e+06
4.33871e+06
4.04576e+06
7.15674e+06
6.78846e+06
6.40491e+06
6.0314e+06
5.66913e+06
5.31818e+06
4.97881e+06
4.65172e+06
4.33901e+06
4.04648e+06
7.15659e+06
6.78846e+06
6.40491e+06
6.03141e+06
5.66913e+06
5.31819e+06
4.97883e+06
4.65177e+06
4.33916e+06
4.04683e+06
3.71498e+06
3.64988e+06
3.59784e+06
3.55011e+06
3.50452e+06
3.4603e+06
3.41703e+06
3.37452e+06
3.33259e+06
3.29115e+06
3.25011e+06
3.2094e+06
3.16899e+06
3.12883e+06
3.08893e+06
3.04928e+06
3.00989e+06
2.97074e+06
2.93185e+06
2.89323e+06
2.8549e+06
2.81687e+06
2.77912e+06
2.74166e+06
2.7045e+06
2.66762e+06
2.63102e+06
2.59469e+06
2.55861e+06
2.5228e+06
2.48723e+06
2.45191e+06
2.41683e+06
2.38201e+06
2.34744e+06
2.31311e+06
2.27903e+06
2.24519e+06
2.2116e+06
2.17826e+06
2.14517e+06
2.11233e+06
2.07974e+06
2.04741e+06
2.01532e+06
1.9835e+06
1.95193e+06
1.92062e+06
1.88956e+06
1.85876e+06
1.8282e+06
1.7979e+06
1.76782e+06
1.738e+06
1.70842e+06
1.67908e+06
1.64999e+06
1.62116e+06
1.5926e+06
1.56431e+06
1.53628e+06
1.50852e+06
1.48102e+06
1.45379e+06
1.4268e+06
1.40007e+06
1.37358e+06
1.34735e+06
1.32136e+06
1.29564e+06
1.27014e+06
1.24492e+06
1.21993e+06
1.19522e+06
1.17073e+06
1.14652e+06
1.12254e+06
1.09884e+06
1.07536e+06
1.05217e+06
1.02919e+06
1.0065e+06
984009
961805
939807
918084
896564
875308
854248
833431
812794
792369
772080
751945
731844
711773
691468
670838
649000
624468
3.74503e+06
3.67161e+06
3.61362e+06
3.56216e+06
3.51401e+06
3.46788e+06
3.42315e+06
3.37947e+06
3.33661e+06
3.29441e+06
3.25275e+06
3.21155e+06
3.17072e+06
3.13023e+06
3.09006e+06
3.0502e+06
3.01063e+06
2.97134e+06
2.93234e+06
2.89364e+06
2.85524e+06
2.81715e+06
2.77936e+06
2.74187e+06
2.70468e+06
2.66778e+06
2.63116e+06
2.59481e+06
2.55873e+06
2.5229e+06
2.48733e+06
2.452e+06
2.41692e+06
2.3821e+06
2.34753e+06
2.3132e+06
2.27912e+06
2.24528e+06
2.21168e+06
2.17834e+06
2.14524e+06
2.1124e+06
2.0798e+06
2.04746e+06
2.01537e+06
1.98354e+06
1.95197e+06
1.92066e+06
1.8896e+06
1.8588e+06
1.82823e+06
1.79793e+06
1.76785e+06
1.73803e+06
1.70844e+06
1.6791e+06
1.65e+06
1.62117e+06
1.5926e+06
1.5643e+06
1.53626e+06
1.50851e+06
1.481e+06
1.45377e+06
1.42678e+06
1.40005e+06
1.37355e+06
1.34732e+06
1.32133e+06
1.2956e+06
1.2701e+06
1.24487e+06
1.21987e+06
1.19514e+06
1.17064e+06
1.14642e+06
1.12241e+06
1.09869e+06
1.07517e+06
1.05195e+06
1.02892e+06
1.00617e+06
983612
961342
939239
917418
895753
874352
853091
832062
811143
790405
769711
749107
728393
707581
686255
664270
640296
611890
3.7679e+06
3.69072e+06
3.62844e+06
3.57374e+06
3.52322e+06
3.47529e+06
3.42914e+06
3.38434e+06
3.34056e+06
3.29762e+06
3.25536e+06
3.21366e+06
3.17243e+06
3.13161e+06
3.09117e+06
3.05109e+06
3.01135e+06
2.97193e+06
2.93283e+06
2.89405e+06
2.85559e+06
2.81744e+06
2.77962e+06
2.74209e+06
2.70488e+06
2.66795e+06
2.63131e+06
2.59495e+06
2.55885e+06
2.52301e+06
2.48743e+06
2.4521e+06
2.41701e+06
2.38219e+06
2.34761e+06
2.31328e+06
2.27919e+06
2.24535e+06
2.21176e+06
2.17841e+06
2.1453e+06
2.11246e+06
2.07985e+06
2.0475e+06
2.0154e+06
1.98357e+06
1.95199e+06
1.92068e+06
1.88961e+06
1.85881e+06
1.82825e+06
1.79794e+06
1.76786e+06
1.73805e+06
1.70845e+06
1.67911e+06
1.65e+06
1.62116e+06
1.59259e+06
1.56429e+06
1.53625e+06
1.50849e+06
1.48099e+06
1.45375e+06
1.42675e+06
1.40002e+06
1.37353e+06
1.34729e+06
1.32129e+06
1.29556e+06
1.27005e+06
1.24482e+06
1.21981e+06
1.19507e+06
1.17055e+06
1.14631e+06
1.12228e+06
1.09854e+06
1.07499e+06
1.05173e+06
1.02865e+06
1.00586e+06
983226
960888
938682
916765
894956
873416
851953
830720
809520
788479
767390
746337
725042
703538
681283
658127
632574
602391
3.78605e+06
3.70737e+06
3.64209e+06
3.58472e+06
3.53206e+06
3.48245e+06
3.43497e+06
3.38908e+06
3.34443e+06
3.30076e+06
3.2579e+06
3.21572e+06
3.1741e+06
3.13296e+06
3.09226e+06
3.05197e+06
3.01206e+06
2.97251e+06
2.93331e+06
2.89445e+06
2.85593e+06
2.81774e+06
2.77988e+06
2.74233e+06
2.70508e+06
2.66814e+06
2.63148e+06
2.5951e+06
2.55898e+06
2.52313e+06
2.48753e+06
2.45219e+06
2.4171e+06
2.38226e+06
2.34768e+06
2.31335e+06
2.27926e+06
2.24541e+06
2.21181e+06
2.17846e+06
2.14534e+06
2.11249e+06
2.07988e+06
2.04752e+06
2.01542e+06
1.98358e+06
1.95199e+06
1.92068e+06
1.88961e+06
1.85881e+06
1.82825e+06
1.79794e+06
1.76786e+06
1.73805e+06
1.70844e+06
1.67911e+06
1.64999e+06
1.62116e+06
1.59258e+06
1.56427e+06
1.53623e+06
1.50847e+06
1.48096e+06
1.45373e+06
1.42673e+06
1.4e+06
1.3735e+06
1.34726e+06
1.32126e+06
1.29552e+06
1.27001e+06
1.24477e+06
1.21975e+06
1.195e+06
1.17046e+06
1.14621e+06
1.12216e+06
1.09839e+06
1.07481e+06
1.05152e+06
1.02839e+06
1.00555e+06
982851
960445
938143
916131
894181
872506
850842
829418
807935
786613
765131
743658
721816
699677
676619
652488
625876
595030
3.80088e+06
3.72182e+06
3.65451e+06
3.59498e+06
3.54046e+06
3.48932e+06
3.44058e+06
3.39367e+06
3.34816e+06
3.3038e+06
3.26037e+06
3.21771e+06
3.17571e+06
3.13427e+06
3.09332e+06
3.05282e+06
3.01275e+06
2.97308e+06
2.93378e+06
2.89485e+06
2.85627e+06
2.81804e+06
2.78014e+06
2.74257e+06
2.7053e+06
2.66834e+06
2.63166e+06
2.59525e+06
2.55912e+06
2.52325e+06
2.48764e+06
2.45228e+06
2.41718e+06
2.38233e+06
2.34774e+06
2.3134e+06
2.2793e+06
2.24545e+06
2.21185e+06
2.17849e+06
2.14537e+06
2.11251e+06
2.07988e+06
2.04753e+06
2.01541e+06
1.98357e+06
1.95198e+06
1.92067e+06
1.8896e+06
1.8588e+06
1.82823e+06
1.79793e+06
1.76784e+06
1.73804e+06
1.70843e+06
1.6791e+06
1.64997e+06
1.62114e+06
1.59256e+06
1.56426e+06
1.53621e+06
1.50845e+06
1.48094e+06
1.4537e+06
1.42671e+06
1.39997e+06
1.37347e+06
1.34723e+06
1.32123e+06
1.29548e+06
1.26997e+06
1.24471e+06
1.21969e+06
1.19493e+06
1.17038e+06
1.14611e+06
1.12204e+06
1.09825e+06
1.07464e+06
1.05131e+06
1.02814e+06
1.00525e+06
982491
960012
937625
915513
893439
871627
849781
828165
806415
784826
762964
741103
718728
696021
672281
647363
620130
589145
3.81324e+06
3.73438e+06
3.66573e+06
3.60448e+06
3.54837e+06
3.49584e+06
3.44595e+06
3.39806e+06
3.35176e+06
3.30673e+06
3.26275e+06
3.21964e+06
3.17727e+06
3.13553e+06
3.09434e+06
3.05365e+06
3.01342e+06
2.97363e+06
2.93424e+06
2.89524e+06
2.85661e+06
2.81834e+06
2.78041e+06
2.74281e+06
2.70553e+06
2.66854e+06
2.63184e+06
2.59541e+06
2.55925e+06
2.52336e+06
2.48773e+06
2.45235e+06
2.41724e+06
2.38238e+06
2.34778e+06
2.31343e+06
2.27933e+06
2.24546e+06
2.21186e+06
2.17849e+06
2.14537e+06
2.11251e+06
2.07987e+06
2.04751e+06
2.01539e+06
1.98354e+06
1.95195e+06
1.92065e+06
1.88956e+06
1.85877e+06
1.82819e+06
1.7979e+06
1.76781e+06
1.73801e+06
1.70839e+06
1.67908e+06
1.64994e+06
1.62113e+06
1.59254e+06
1.56423e+06
1.53619e+06
1.50842e+06
1.48092e+06
1.45367e+06
1.42668e+06
1.39994e+06
1.37345e+06
1.3472e+06
1.3212e+06
1.29544e+06
1.26993e+06
1.24467e+06
1.21963e+06
1.19486e+06
1.1703e+06
1.14601e+06
1.12193e+06
1.09811e+06
1.07447e+06
1.0511e+06
1.0279e+06
1.00496e+06
982144
959591
937126
914910
892724
870768
848760
826948
804966
783114
760913
738695
715839
692643
668317
642772
615130
584272
3.8237e+06
3.74531e+06
3.6758e+06
3.61322e+06
3.55574e+06
3.50199e+06
3.45104e+06
3.40226e+06
3.3552e+06
3.30955e+06
3.26504e+06
3.2215e+06
3.17878e+06
3.13675e+06
3.09533e+06
3.05446e+06
3.01409e+06
2.97418e+06
2.9347e+06
2.89564e+06
2.85695e+06
2.81864e+06
2.78068e+06
2.74305e+06
2.70575e+06
2.66874e+06
2.63201e+06
2.59556e+06
2.55938e+06
2.52346e+06
2.48781e+06
2.45241e+06
2.41728e+06
2.38241e+06
2.3478e+06
2.31344e+06
2.27933e+06
2.24546e+06
2.21185e+06
2.17847e+06
2.14535e+06
2.11248e+06
2.07984e+06
2.04748e+06
2.01535e+06
1.9835e+06
1.95191e+06
1.92061e+06
1.88952e+06
1.85873e+06
1.82814e+06
1.79786e+06
1.76777e+06
1.73798e+06
1.70835e+06
1.67905e+06
1.64991e+06
1.62111e+06
1.59251e+06
1.56421e+06
1.53616e+06
1.50839e+06
1.48089e+06
1.45365e+06
1.42665e+06
1.39991e+06
1.37342e+06
1.34717e+06
1.32116e+06
1.29541e+06
1.26989e+06
1.24462e+06
1.21958e+06
1.19479e+06
1.17023e+06
1.14592e+06
1.12182e+06
1.09797e+06
1.07431e+06
1.05091e+06
1.02767e+06
1.00468e+06
981812
959186
936647
914328
892037
869937
847781
825770
803583
781463
758976
736408
713170
689535
664736
638718
610762
580168
3.83266e+06
3.75484e+06
3.6848e+06
3.62119e+06
3.56257e+06
3.50774e+06
3.45583e+06
3.40622e+06
3.35847e+06
3.31223e+06
3.26723e+06
3.22328e+06
3.18022e+06
3.13792e+06
3.09629e+06
3.05524e+06
3.01473e+06
2.97471e+06
2.93515e+06
2.89602e+06
2.85729e+06
2.81894e+06
2.78094e+06
2.74329e+06
2.70596e+06
2.66892e+06
2.63217e+06
2.59569e+06
2.55949e+06
2.52355e+06
2.48787e+06
2.45245e+06
2.4173e+06
2.38242e+06
2.3478e+06
2.31343e+06
2.27931e+06
2.24543e+06
2.21183e+06
2.17843e+06
2.14532e+06
2.11243e+06
2.07979e+06
2.04743e+06
2.01529e+06
1.98345e+06
1.95186e+06
1.92057e+06
1.88946e+06
1.85868e+06
1.82808e+06
1.79781e+06
1.76771e+06
1.73793e+06
1.70831e+06
1.67902e+06
1.64987e+06
1.62108e+06
1.59247e+06
1.56418e+06
1.53613e+06
1.50836e+06
1.48086e+06
1.45362e+06
1.42663e+06
1.39989e+06
1.37339e+06
1.34714e+06
1.32113e+06
1.29537e+06
1.26985e+06
1.24457e+06
1.21953e+06
1.19473e+06
1.17016e+06
1.14583e+06
1.12171e+06
1.09784e+06
1.07416e+06
1.05072e+06
1.02745e+06
1.00441e+06
981497
958802
936193
913778
891386
869152
846856
824659
802280
779902
757163
734250
710699
686633
661475
635081
606945
576683
3.84041e+06
3.76316e+06
3.6928e+06
3.62841e+06
3.56883e+06
3.51306e+06
3.4603e+06
3.40994e+06
3.36155e+06
3.31476e+06
3.26931e+06
3.22498e+06
3.1816e+06
3.13904e+06
3.0972e+06
3.05599e+06
3.01535e+06
2.97523e+06
2.93559e+06
2.89639e+06
2.85761e+06
2.81922e+06
2.78119e+06
2.74351e+06
2.70616e+06
2.66909e+06
2.63231e+06
2.59581e+06
2.55958e+06
2.52361e+06
2.48791e+06
2.45248e+06
2.41731e+06
2.38241e+06
2.34778e+06
2.3134e+06
2.27927e+06
2.24539e+06
2.21178e+06
2.17838e+06
2.14527e+06
2.11237e+06
2.07974e+06
2.04737e+06
2.01524e+06
1.98338e+06
1.95181e+06
1.92051e+06
1.8894e+06
1.85862e+06
1.82803e+06
1.79776e+06
1.76766e+06
1.73789e+06
1.70826e+06
1.67898e+06
1.64982e+06
1.62106e+06
1.59243e+06
1.56416e+06
1.5361e+06
1.50834e+06
1.48084e+06
1.45359e+06
1.4266e+06
1.39986e+06
1.37336e+06
1.34711e+06
1.3211e+06
1.29533e+06
1.26981e+06
1.24452e+06
1.21947e+06
1.19466e+06
1.17008e+06
1.14574e+06
1.12161e+06
1.09772e+06
1.07402e+06
1.05055e+06
1.02724e+06
1.00415e+06
981200
958438
935767
913260
890776
868417
845990
823622
801064
778449
755479
732243
708417
683946
658494
631799
603612
573676
3.84714e+06
3.77042e+06
3.69989e+06
3.63489e+06
3.57453e+06
3.51795e+06
3.46443e+06
3.4134e+06
3.36442e+06
3.31713e+06
3.27125e+06
3.22657e+06
3.1829e+06
3.1401e+06
3.09807e+06
3.0567e+06
3.01594e+06
2.97572e+06
2.936e+06
2.89675e+06
2.85792e+06
2.81948e+06
2.78142e+06
2.74371e+06
2.70633e+06
2.66924e+06
2.63243e+06
2.5959e+06
2.55965e+06
2.52366e+06
2.48794e+06
2.45248e+06
2.4173e+06
2.38238e+06
2.34774e+06
2.31335e+06
2.27922e+06
2.24534e+06
2.21172e+06
2.17832e+06
2.14521e+06
2.11231e+06
2.07968e+06
2.0473e+06
2.01517e+06
1.98332e+06
1.95176e+06
1.92046e+06
1.88934e+06
1.85856e+06
1.82797e+06
1.79771e+06
1.76761e+06
1.73784e+06
1.70821e+06
1.67895e+06
1.64979e+06
1.62104e+06
1.5924e+06
1.56414e+06
1.53607e+06
1.50831e+06
1.48081e+06
1.45356e+06
1.42657e+06
1.39983e+06
1.37333e+06
1.34707e+06
1.32107e+06
1.29529e+06
1.26977e+06
1.24447e+06
1.21942e+06
1.1946e+06
1.17001e+06
1.14565e+06
1.12151e+06
1.09759e+06
1.07388e+06
1.05037e+06
1.02705e+06
1.00391e+06
980920
958094
935368
912773
890210
867730
845189
822655
799939
777097
753919
730387
706296
681485
655781
628860
600700
571045
3.853e+06
3.77676e+06
3.70613e+06
3.64066e+06
3.57966e+06
3.52239e+06
3.4682e+06
3.41657e+06
3.36706e+06
3.31932e+06
3.27306e+06
3.22805e+06
3.18411e+06
3.14109e+06
3.09888e+06
3.05737e+06
3.01649e+06
2.97618e+06
2.93639e+06
2.89708e+06
2.8582e+06
2.81972e+06
2.78162e+06
2.74388e+06
2.70648e+06
2.66936e+06
2.63253e+06
2.59597e+06
2.55969e+06
2.52368e+06
2.48794e+06
2.45247e+06
2.41727e+06
2.38234e+06
2.34769e+06
2.31329e+06
2.27916e+06
2.24527e+06
2.21165e+06
2.17825e+06
2.14514e+06
2.11223e+06
2.07961e+06
2.04723e+06
2.01511e+06
1.98325e+06
1.95171e+06
1.9204e+06
1.88929e+06
1.8585e+06
1.82792e+06
1.79765e+06
1.76756e+06
1.73779e+06
1.70817e+06
1.6789e+06
1.64975e+06
1.62101e+06
1.59236e+06
1.56412e+06
1.53604e+06
1.50828e+06
1.48078e+06
1.45353e+06
1.42655e+06
1.3998e+06
1.3733e+06
1.34704e+06
1.32103e+06
1.29525e+06
1.26973e+06
1.24442e+06
1.21937e+06
1.19454e+06
1.16994e+06
1.14556e+06
1.12142e+06
1.09747e+06
1.07375e+06
1.05021e+06
1.02686e+06
1.00368e+06
980652
957768
934992
912316
889681
867087
844445
821754
798896
775844
752469
728674
704341
679245
653341
626264
598153
568739
3.85808e+06
3.78226e+06
3.71159e+06
3.64576e+06
3.58423e+06
3.52637e+06
3.47161e+06
3.41945e+06
3.36947e+06
3.32132e+06
3.27471e+06
3.22941e+06
3.18522e+06
3.142e+06
3.09962e+06
3.05799e+06
3.017e+06
2.97661e+06
2.93675e+06
2.89738e+06
2.85845e+06
2.81993e+06
2.78179e+06
2.74403e+06
2.7066e+06
2.66945e+06
2.6326e+06
2.59602e+06
2.55971e+06
2.52368e+06
2.48792e+06
2.45243e+06
2.41722e+06
2.38228e+06
2.34762e+06
2.31322e+06
2.27908e+06
2.24519e+06
2.21157e+06
2.17818e+06
2.14506e+06
2.11216e+06
2.07954e+06
2.04715e+06
2.01505e+06
1.98319e+06
1.95166e+06
1.92033e+06
1.88923e+06
1.85843e+06
1.82786e+06
1.79758e+06
1.76751e+06
1.73773e+06
1.70813e+06
1.67886e+06
1.64972e+06
1.62098e+06
1.59233e+06
1.5641e+06
1.536e+06
1.50825e+06
1.48075e+06
1.4535e+06
1.42652e+06
1.39977e+06
1.37327e+06
1.34701e+06
1.321e+06
1.29522e+06
1.26969e+06
1.24438e+06
1.21932e+06
1.19447e+06
1.16987e+06
1.14548e+06
1.12132e+06
1.09736e+06
1.07361e+06
1.05004e+06
1.02667e+06
1.00345e+06
980396
957457
934634
911883
889182
866484
843748
820913
797922
774681
751129
727098
702560
677229
651172
623999
595932
566744
3.86246e+06
3.787e+06
3.71631e+06
3.65021e+06
3.58825e+06
3.52991e+06
3.47465e+06
3.42203e+06
3.37163e+06
3.32312e+06
3.2762e+06
3.23063e+06
3.18623e+06
3.14283e+06
3.1003e+06
3.05855e+06
3.01747e+06
2.977e+06
2.93708e+06
2.89765e+06
2.85868e+06
2.82011e+06
2.78194e+06
2.74415e+06
2.70669e+06
2.66952e+06
2.63264e+06
2.59604e+06
2.55971e+06
2.52366e+06
2.48788e+06
2.45238e+06
2.41715e+06
2.38221e+06
2.34754e+06
2.31313e+06
2.27899e+06
2.24511e+06
2.21148e+06
2.1781e+06
2.14498e+06
2.11208e+06
2.07946e+06
2.04707e+06
2.01499e+06
1.98312e+06
1.95161e+06
1.92025e+06
1.88917e+06
1.85836e+06
1.82781e+06
1.79751e+06
1.76747e+06
1.73767e+06
1.70809e+06
1.6788e+06
1.64969e+06
1.62093e+06
1.5923e+06
1.56407e+06
1.53598e+06
1.50823e+06
1.48073e+06
1.45348e+06
1.42649e+06
1.39974e+06
1.37325e+06
1.34698e+06
1.32097e+06
1.29518e+06
1.26965e+06
1.24433e+06
1.21927e+06
1.19441e+06
1.16981e+06
1.1454e+06
1.12123e+06
1.09724e+06
1.07349e+06
1.04989e+06
1.0265e+06
1.00324e+06
980155
957160
934299
911473
888715
865917
843099
820130
797024
773606
749904
725664
700962
675444
649269
622045
594019
565034
3.8662e+06
3.79104e+06
3.72036e+06
3.65404e+06
3.59174e+06
3.53298e+06
3.47732e+06
3.4243e+06
3.37354e+06
3.32471e+06
3.27752e+06
3.23172e+06
3.18713e+06
3.14357e+06
3.10091e+06
3.05905e+06
3.01789e+06
2.97734e+06
2.93736e+06
2.89789e+06
2.85887e+06
2.82026e+06
2.78206e+06
2.74424e+06
2.70676e+06
2.66956e+06
2.63266e+06
2.59604e+06
2.5597e+06
2.52363e+06
2.48783e+06
2.45232e+06
2.41708e+06
2.38213e+06
2.34745e+06
2.31304e+06
2.2789e+06
2.24501e+06
2.21139e+06
2.17801e+06
2.14489e+06
2.112e+06
2.07939e+06
2.04699e+06
2.01492e+06
1.98305e+06
1.95155e+06
1.92016e+06
1.88911e+06
1.85828e+06
1.82776e+06
1.79744e+06
1.76741e+06
1.7376e+06
1.70804e+06
1.67874e+06
1.64965e+06
1.62088e+06
1.59227e+06
1.56403e+06
1.53595e+06
1.5082e+06
1.48071e+06
1.45345e+06
1.42647e+06
1.39971e+06
1.37322e+06
1.34695e+06
1.32094e+06
1.29514e+06
1.26961e+06
1.24429e+06
1.21922e+06
1.19435e+06
1.16975e+06
1.14532e+06
1.12115e+06
1.09714e+06
1.07337e+06
1.04974e+06
1.02634e+06
1.00303e+06
979932
956881
933990
911089
888287
865389
842506
819407
796210
772631
748809
724392
699558
673898
647630
620382
592395
563580
3.86935e+06
3.79442e+06
3.72376e+06
3.65728e+06
3.59469e+06
3.53561e+06
3.4796e+06
3.42625e+06
3.37519e+06
3.32609e+06
3.27866e+06
3.23267e+06
3.18791e+06
3.14422e+06
3.10145e+06
3.05949e+06
3.01825e+06
2.97764e+06
2.93761e+06
2.89809e+06
2.85903e+06
2.82039e+06
2.78215e+06
2.7443e+06
2.70679e+06
2.66958e+06
2.63266e+06
2.59602e+06
2.55967e+06
2.52358e+06
2.48778e+06
2.45225e+06
2.41701e+06
2.38205e+06
2.34736e+06
2.31295e+06
2.27881e+06
2.24492e+06
2.2113e+06
2.17793e+06
2.14481e+06
2.11192e+06
2.07931e+06
2.04692e+06
2.01486e+06
1.98298e+06
1.95148e+06
1.92007e+06
1.88905e+06
1.8582e+06
1.8277e+06
1.79736e+06
1.76735e+06
1.73753e+06
1.708e+06
1.67868e+06
1.64962e+06
1.62082e+06
1.59225e+06
1.56398e+06
1.53594e+06
1.50818e+06
1.48069e+06
1.45343e+06
1.42645e+06
1.39969e+06
1.3732e+06
1.34692e+06
1.32091e+06
1.29511e+06
1.26958e+06
1.24425e+06
1.21918e+06
1.1943e+06
1.16969e+06
1.14525e+06
1.12107e+06
1.09704e+06
1.07327e+06
1.04961e+06
1.0262e+06
1.00285e+06
979733
956628
933714
910741
887905
864912
841979
818762
795491
771775
747854
723300
698355
672593
646247
618991
591037
562359
3.87192e+06
3.7972e+06
3.72655e+06
3.65994e+06
3.59714e+06
3.5378e+06
3.48151e+06
3.42789e+06
3.37658e+06
3.32725e+06
3.27963e+06
3.23347e+06
3.18858e+06
3.14477e+06
3.1019e+06
3.05987e+06
3.01856e+06
2.9779e+06
2.93781e+06
2.89825e+06
2.85916e+06
2.82049e+06
2.78222e+06
2.74434e+06
2.70681e+06
2.66958e+06
2.63265e+06
2.596e+06
2.55963e+06
2.52353e+06
2.48772e+06
2.45218e+06
2.41693e+06
2.38197e+06
2.34728e+06
2.31287e+06
2.27872e+06
2.24484e+06
2.21121e+06
2.17785e+06
2.14473e+06
2.11185e+06
2.07924e+06
2.04684e+06
2.0148e+06
1.98291e+06
1.95143e+06
1.92e+06
1.88899e+06
1.85814e+06
1.82766e+06
1.79729e+06
1.7673e+06
1.73746e+06
1.70796e+06
1.67862e+06
1.64959e+06
1.62076e+06
1.59223e+06
1.56394e+06
1.53592e+06
1.50816e+06
1.48067e+06
1.45342e+06
1.42644e+06
1.39967e+06
1.37318e+06
1.3469e+06
1.32089e+06
1.29509e+06
1.26956e+06
1.24421e+06
1.21915e+06
1.19426e+06
1.16965e+06
1.14519e+06
1.12101e+06
1.09696e+06
1.07318e+06
1.0495e+06
1.02607e+06
1.0027e+06
979562
956411
933477
910441
887576
864502
841527
818210
794879
771054
747052
722394
697357
671522
645111
617855
589929
561356
3.87395e+06
3.79938e+06
3.72876e+06
3.66206e+06
3.5991e+06
3.53954e+06
3.48304e+06
3.4292e+06
3.3777e+06
3.32819e+06
3.28042e+06
3.23413e+06
3.18912e+06
3.14521e+06
3.10227e+06
3.06017e+06
3.01881e+06
2.9781e+06
2.93798e+06
2.89838e+06
2.85925e+06
2.82056e+06
2.78227e+06
2.74437e+06
2.70682e+06
2.66957e+06
2.63262e+06
2.59596e+06
2.55958e+06
2.52348e+06
2.48766e+06
2.45212e+06
2.41687e+06
2.3819e+06
2.34722e+06
2.3128e+06
2.27865e+06
2.24477e+06
2.21114e+06
2.17777e+06
2.14466e+06
2.11179e+06
2.07917e+06
2.04678e+06
2.01474e+06
1.98284e+06
1.95137e+06
1.91994e+06
1.88895e+06
1.85807e+06
1.82762e+06
1.79723e+06
1.76726e+06
1.7374e+06
1.70792e+06
1.67856e+06
1.64957e+06
1.62072e+06
1.59222e+06
1.5639e+06
1.53591e+06
1.50814e+06
1.48066e+06
1.45341e+06
1.42642e+06
1.39966e+06
1.37317e+06
1.34688e+06
1.32088e+06
1.29507e+06
1.26953e+06
1.24419e+06
1.21912e+06
1.19423e+06
1.16961e+06
1.14514e+06
1.12096e+06
1.09689e+06
1.07311e+06
1.0494e+06
1.02597e+06
1.00257e+06
979422
956234
933282
910196
887306
864169
841157
817765
794383
770477
746407
721675
696562
670678
644211
616959
589056
560561
3.87546e+06
3.801e+06
3.73039e+06
3.66364e+06
3.60056e+06
3.54085e+06
3.48419e+06
3.4302e+06
3.37854e+06
3.32891e+06
3.28102e+06
3.23463e+06
3.18953e+06
3.14556e+06
3.10256e+06
3.0604e+06
3.019e+06
2.97825e+06
2.9381e+06
2.89847e+06
2.85932e+06
2.8206e+06
2.7823e+06
2.74438e+06
2.70681e+06
2.66955e+06
2.6326e+06
2.59593e+06
2.55955e+06
2.52344e+06
2.48762e+06
2.45208e+06
2.41682e+06
2.38185e+06
2.34717e+06
2.31275e+06
2.2786e+06
2.24471e+06
2.21109e+06
2.17772e+06
2.1446e+06
2.11174e+06
2.07912e+06
2.04674e+06
2.0147e+06
1.9828e+06
1.95133e+06
1.91989e+06
1.88894e+06
1.85802e+06
1.82759e+06
1.7972e+06
1.76724e+06
1.73736e+06
1.7079e+06
1.67852e+06
1.64955e+06
1.62068e+06
1.5922e+06
1.56388e+06
1.5359e+06
1.50813e+06
1.48066e+06
1.4534e+06
1.42641e+06
1.39965e+06
1.37316e+06
1.34687e+06
1.32086e+06
1.29505e+06
1.26952e+06
1.24417e+06
1.2191e+06
1.1942e+06
1.16958e+06
1.14511e+06
1.12092e+06
1.09684e+06
1.07305e+06
1.04933e+06
1.0259e+06
1.00247e+06
979315
956100
933132
910012
887099
863918
840875
817431
794008
770045
745924
721139
695969
670051
643542
616293
588410
559969
3.87645e+06
3.80207e+06
3.73148e+06
3.66468e+06
3.60153e+06
3.54173e+06
3.48496e+06
3.43086e+06
3.37911e+06
3.32939e+06
3.28142e+06
3.23496e+06
3.18981e+06
3.14579e+06
3.10275e+06
3.06056e+06
3.01912e+06
2.97835e+06
2.93817e+06
2.89853e+06
2.85936e+06
2.82063e+06
2.78231e+06
2.74438e+06
2.7068e+06
2.66953e+06
2.63257e+06
2.5959e+06
2.55952e+06
2.52341e+06
2.48758e+06
2.45205e+06
2.41679e+06
2.38182e+06
2.34714e+06
2.31272e+06
2.27857e+06
2.24468e+06
2.21105e+06
2.17768e+06
2.14457e+06
2.11171e+06
2.07909e+06
2.04672e+06
2.01468e+06
1.98277e+06
1.95131e+06
1.91986e+06
1.88892e+06
1.858e+06
1.82757e+06
1.79717e+06
1.76721e+06
1.73733e+06
1.70788e+06
1.6785e+06
1.64953e+06
1.62066e+06
1.59219e+06
1.56387e+06
1.5359e+06
1.50813e+06
1.48065e+06
1.45339e+06
1.42641e+06
1.39964e+06
1.37315e+06
1.34686e+06
1.32086e+06
1.29504e+06
1.26951e+06
1.24416e+06
1.21909e+06
1.19418e+06
1.16957e+06
1.14509e+06
1.1209e+06
1.09681e+06
1.07302e+06
1.04929e+06
1.02585e+06
1.00241e+06
979245
956013
933033
909891
886961
863753
840687
817211
793757
769760
745601
720785
695572
669637
643096
615851
587983
559576
3.87694e+06
3.8026e+06
3.73202e+06
3.66521e+06
3.60202e+06
3.54217e+06
3.48534e+06
3.4312e+06
3.3794e+06
3.32963e+06
3.28162e+06
3.23513e+06
3.18995e+06
3.14591e+06
3.10284e+06
3.06064e+06
3.01918e+06
2.9784e+06
2.93821e+06
2.89855e+06
2.85938e+06
2.82064e+06
2.78232e+06
2.74438e+06
2.70679e+06
2.66952e+06
2.63256e+06
2.59589e+06
2.5595e+06
2.5234e+06
2.48757e+06
2.45203e+06
2.41678e+06
2.38181e+06
2.34712e+06
2.31271e+06
2.27856e+06
2.24467e+06
2.21104e+06
2.17767e+06
2.14455e+06
2.11169e+06
2.07907e+06
2.0467e+06
2.01467e+06
1.98275e+06
1.9513e+06
1.91985e+06
1.8889e+06
1.85799e+06
1.82755e+06
1.79715e+06
1.76721e+06
1.73732e+06
1.70787e+06
1.67849e+06
1.64952e+06
1.62065e+06
1.59219e+06
1.56387e+06
1.53589e+06
1.50813e+06
1.48065e+06
1.45339e+06
1.42641e+06
1.39964e+06
1.37315e+06
1.34686e+06
1.32085e+06
1.29504e+06
1.26951e+06
1.24415e+06
1.21909e+06
1.19418e+06
1.16956e+06
1.14507e+06
1.12088e+06
1.0968e+06
1.073e+06
1.04927e+06
1.02582e+06
1.00238e+06
979213
955971
932988
909833
886897
863673
840598
817103
793635
769619
745443
720609
695376
669432
642877
615633
587773
559388
3.43009e+06
3.425e+06
3.41503e+06
3.40053e+06
3.38194e+06
3.35978e+06
3.33457e+06
3.30678e+06
3.27687e+06
3.24524e+06
3.2122e+06
3.17804e+06
3.14302e+06
3.10733e+06
3.07113e+06
3.03455e+06
2.99768e+06
2.96063e+06
2.92351e+06
2.88636e+06
2.84921e+06
2.81213e+06
2.77516e+06
2.73834e+06
2.70165e+06
2.66512e+06
2.62877e+06
2.59262e+06
2.5567e+06
2.52098e+06
2.48548e+06
2.45021e+06
2.41517e+06
2.38038e+06
2.34582e+06
2.31152e+06
2.27745e+06
2.24366e+06
2.21011e+06
2.17684e+06
2.14382e+06
2.11106e+06
2.07855e+06
2.04629e+06
2.01428e+06
1.98252e+06
1.951e+06
1.91974e+06
1.88873e+06
1.85796e+06
1.82745e+06
1.7972e+06
1.76719e+06
1.73744e+06
1.70794e+06
1.67869e+06
1.6497e+06
1.62096e+06
1.59248e+06
1.56425e+06
1.53627e+06
1.50855e+06
1.48109e+06
1.45388e+06
1.42693e+06
1.40024e+06
1.37381e+06
1.34764e+06
1.32173e+06
1.29609e+06
1.27071e+06
1.24561e+06
1.22078e+06
1.19624e+06
1.17198e+06
1.14802e+06
1.12435e+06
1.101e+06
1.07796e+06
1.05526e+06
1.03291e+06
1.01092e+06
989324
968143
947409
927161
907445
888315
869838
852093
835171
819186
804267
790570
778267
767549
758622
751685
746914
744464
3.43099e+06
3.42587e+06
3.41584e+06
3.40126e+06
3.38259e+06
3.36035e+06
3.33506e+06
3.30719e+06
3.27722e+06
3.24553e+06
3.21244e+06
3.17825e+06
3.14319e+06
3.10749e+06
3.07127e+06
3.03466e+06
2.99777e+06
2.96072e+06
2.92358e+06
2.88641e+06
2.84925e+06
2.81217e+06
2.77521e+06
2.73839e+06
2.7017e+06
2.66516e+06
2.6288e+06
2.59266e+06
2.55673e+06
2.52102e+06
2.48552e+06
2.45024e+06
2.4152e+06
2.3804e+06
2.34584e+06
2.31153e+06
2.27746e+06
2.24366e+06
2.21012e+06
2.17684e+06
2.14382e+06
2.11106e+06
2.07855e+06
2.04629e+06
2.01428e+06
1.98252e+06
1.951e+06
1.91974e+06
1.88873e+06
1.85796e+06
1.82745e+06
1.7972e+06
1.76719e+06
1.73744e+06
1.70794e+06
1.67869e+06
1.6497e+06
1.62096e+06
1.59248e+06
1.56425e+06
1.53627e+06
1.50855e+06
1.48109e+06
1.45388e+06
1.42693e+06
1.40024e+06
1.37381e+06
1.34764e+06
1.32173e+06
1.29608e+06
1.27071e+06
1.2456e+06
1.22078e+06
1.19623e+06
1.17197e+06
1.14801e+06
1.12434e+06
1.10098e+06
1.07795e+06
1.05524e+06
1.03289e+06
1.01089e+06
989292
968104
947363
927106
907379
888237
869744
851980
835038
819027
804079
790348
778008
767253
758289
751318
746520
744055
3.4328e+06
3.42761e+06
3.41746e+06
3.40273e+06
3.38389e+06
3.36148e+06
3.33603e+06
3.30801e+06
3.27791e+06
3.24611e+06
3.21293e+06
3.17867e+06
3.14356e+06
3.10781e+06
3.07156e+06
3.03491e+06
2.99799e+06
2.96089e+06
2.92373e+06
2.88653e+06
2.84935e+06
2.81225e+06
2.77529e+06
2.73848e+06
2.7018e+06
2.66525e+06
2.62888e+06
2.59273e+06
2.5568e+06
2.52109e+06
2.48558e+06
2.4503e+06
2.41525e+06
2.38044e+06
2.34587e+06
2.31156e+06
2.27749e+06
2.24368e+06
2.21013e+06
2.17685e+06
2.14383e+06
2.11107e+06
2.07856e+06
2.0463e+06
2.01429e+06
1.98252e+06
1.95101e+06
1.91974e+06
1.88873e+06
1.85797e+06
1.82745e+06
1.7972e+06
1.76719e+06
1.73744e+06
1.70794e+06
1.67869e+06
1.6497e+06
1.62096e+06
1.59248e+06
1.56425e+06
1.53627e+06
1.50855e+06
1.48109e+06
1.45388e+06
1.42693e+06
1.40024e+06
1.3738e+06
1.34763e+06
1.32172e+06
1.29608e+06
1.2707e+06
1.2456e+06
1.22077e+06
1.19622e+06
1.17196e+06
1.14799e+06
1.12432e+06
1.10096e+06
1.07792e+06
1.05521e+06
1.03284e+06
1.01084e+06
989229
968028
947272
926997
907249
888081
869558
851757
834771
818710
803702
789903
777490
766658
757622
750581
745729
743233
3.43553e+06
3.43024e+06
3.4199e+06
3.40493e+06
3.38583e+06
3.36317e+06
3.33747e+06
3.30923e+06
3.27894e+06
3.24698e+06
3.21367e+06
3.1793e+06
3.14412e+06
3.1083e+06
3.07199e+06
3.03528e+06
2.9983e+06
2.96116e+06
2.92395e+06
2.88671e+06
2.84949e+06
2.81238e+06
2.77541e+06
2.73861e+06
2.70193e+06
2.66538e+06
2.629e+06
2.59284e+06
2.5569e+06
2.52118e+06
2.48566e+06
2.45037e+06
2.41531e+06
2.38049e+06
2.34592e+06
2.31159e+06
2.27752e+06
2.24371e+06
2.21016e+06
2.17687e+06
2.14385e+06
2.11109e+06
2.07857e+06
2.04631e+06
2.0143e+06
1.98253e+06
1.95101e+06
1.91975e+06
1.88873e+06
1.85797e+06
1.82746e+06
1.7972e+06
1.76719e+06
1.73744e+06
1.70794e+06
1.67869e+06
1.6497e+06
1.62096e+06
1.59248e+06
1.56425e+06
1.53627e+06
1.50855e+06
1.48109e+06
1.45388e+06
1.42693e+06
1.40023e+06
1.3738e+06
1.34763e+06
1.32172e+06
1.29607e+06
1.27069e+06
1.24558e+06
1.22075e+06
1.1962e+06
1.17194e+06
1.14796e+06
1.12429e+06
1.10092e+06
1.07787e+06
1.05515e+06
1.03278e+06
1.01076e+06
989135
967916
947137
926835
907055
887848
869280
851424
834374
818236
803140
789240
776714
765766
756615
749469
744532
741989
3.4392e+06
3.43376e+06
3.42317e+06
3.40787e+06
3.38841e+06
3.3654e+06
3.33938e+06
3.31086e+06
3.28032e+06
3.24814e+06
3.21466e+06
3.18014e+06
3.14485e+06
3.10894e+06
3.07253e+06
3.03575e+06
2.99869e+06
2.96149e+06
2.92422e+06
2.88694e+06
2.84969e+06
2.81255e+06
2.77557e+06
2.73876e+06
2.70209e+06
2.66553e+06
2.62913e+06
2.59295e+06
2.557e+06
2.52127e+06
2.48575e+06