/*--------------------------------*- C++ -*----------------------------------*\
| =========                 |                                                 |
| \\      /  F ield         | OpenFOAM: The Open Source CFD Toolbox           |
|  \\    /   O peration     | Version:  2.4.0                                 |
|   \\  /    A nd           | Web:      www.OpenFOAM.org                      |
|    \\/     M anipulation  |                                                 |
\*---------------------------------------------------------------------------*/
FoamFile
{
    version     2.0;
    format      ascii;
    class       surfaceScalarField;
    location    "0.007";
    object      phi;
}
// * * * * * * * * * * * * * * * * * * * * * * * * * * * * * * * * * * * * * //

dimensions      [0 3 -1 0 0 0 0];

internalField   nonuniform List<scalar> 
34880
(
5.48414e-06
7.01586e-06
3.1514e-06
2.33275e-06
2.5425e-06
6.08897e-07
2.26117e-06
2.81329e-07
2.13996e-06
1.21205e-07
2.18665e-06
-4.66845e-08
2.26661e-06
-7.99658e-08
2.28226e-06
-1.56492e-08
2.2658e-06
1.64596e-08
2.25696e-06
8.84624e-09
2.26429e-06
-7.33058e-09
2.26413e-06
1.63058e-10
2.27662e-06
-1.24955e-08
2.2786e-06
-1.97669e-09
2.29376e-06
-1.51617e-08
2.32693e-06
-3.31675e-08
2.36053e-06
-3.35995e-08
2.39787e-06
-3.73395e-08
2.83489e-06
-4.37018e-07
-1.56216e-06
4.39705e-06
1.00992e-05
9.41669e-06
7.88467e-06
4.54724e-06
6.86951e-06
1.62407e-06
6.23289e-06
9.17948e-07
5.93627e-06
4.1782e-07
5.97467e-06
-8.50805e-08
6.09417e-06
-1.99466e-07
6.1265e-06
-4.7982e-08
6.10645e-06
3.65107e-08
6.09386e-06
2.14381e-08
6.10242e-06
-1.58927e-08
6.10309e-06
-5.08424e-10
6.12719e-06
-3.65911e-08
6.1196e-06
5.61284e-09
6.17909e-06
-7.46549e-08
6.19425e-06
-4.83262e-08
6.28067e-06
-1.20021e-07
6.26596e-06
-2.2626e-08
7.50462e-06
-1.67568e-06
2.84171e-07
5.65829e-06
1.24008e-05
9.51591e-06
1.10529e-05
5.89517e-06
1.01677e-05
2.50917e-06
9.44181e-06
1.64388e-06
9.03885e-06
8.20779e-07
9.02414e-06
-7.03663e-08
9.13193e-06
-3.07256e-07
9.16945e-06
-8.55001e-08
9.15291e-06
5.3051e-08
9.1398e-06
3.45463e-08
9.14839e-06
-2.44877e-08
9.14595e-06
1.9363e-09
9.18088e-06
-7.15185e-08
9.1573e-06
2.91907e-08
9.25254e-06
-1.69891e-07
9.23859e-06
-3.43801e-08
9.35852e-06
-2.39949e-07
9.3536e-06
-1.77055e-08
1.06048e-05
-2.92693e-06
1.77033e-06
9.11868e-06
1.33758e-05
8.64007e-06
1.28966e-05
6.3744e-06
1.24649e-05
2.94086e-06
1.1936e-05
2.17278e-06
1.15533e-05
1.20353e-06
1.1485e-05
-2.12876e-09
1.15484e-05
-3.70628e-07
1.15744e-05
-1.11495e-07
1.15612e-05
6.6221e-08
1.15498e-05
4.59688e-08
1.15548e-05
-2.94774e-08
1.15572e-05
-4.46279e-10
1.15736e-05
-8.79727e-08
1.15865e-05
1.63305e-08
1.16151e-05
-1.98464e-07
1.16868e-05
-1.06065e-07
1.17193e-05
-2.72483e-07
1.1886e-05
-1.84404e-07
1.25276e-05
-3.56852e-06
1.52269e-06
1.27752e-05
1.35709e-05
7.56917e-06
1.36267e-05
6.31857e-06
1.36517e-05
2.91587e-06
1.34994e-05
2.32506e-06
1.32827e-05
1.42025e-06
1.31857e-05
9.48737e-08
1.31815e-05
-3.66404e-07
1.31799e-05
-1.09901e-07
1.31651e-05
8.09993e-08
1.31566e-05
5.44377e-08
1.31556e-05
-2.84779e-08
1.31551e-05
4.27036e-11
1.31827e-05
-1.15575e-07
1.31405e-05
5.85413e-08
1.32542e-05
-3.12097e-07
1.32109e-05
-6.27915e-08
1.32278e-05
-2.89417e-07
1.35358e-05
-4.92362e-07
1.37521e-05
-3.78483e-06
1.23934e-06
1.40354e-05
1.34871e-05
6.58207e-06
1.37353e-05
6.07035e-06
1.39786e-05
2.67261e-06
1.41202e-05
2.1834e-06
1.40743e-05
1.46621e-06
1.39519e-05
2.17257e-07
1.38655e-05
-2.79997e-07
1.38208e-05
-6.52012e-08
1.3801e-05
1.00749e-07
1.37816e-05
7.39211e-08
1.37864e-05
-3.333e-08
1.37745e-05
1.1947e-08
1.37714e-05
-1.12466e-07
1.38264e-05
3.48914e-09
1.37262e-05
-2.11829e-07
1.38798e-05
-2.16382e-07
1.38585e-05
-2.6813e-07
1.41035e-05
-7.37398e-07
1.3821e-05
-3.50227e-06
1.15269e-06
1.39076e-05
1.33742e-05
5.70785e-06
1.36997e-05
5.74491e-06
1.39485e-05
2.42376e-06
1.41767e-05
1.95523e-06
1.42015e-05
1.44137e-06
1.40735e-05
3.45264e-07
1.39577e-05
-1.64143e-07
1.39024e-05
-9.94293e-09
1.38811e-05
1.22105e-07
1.38684e-05
8.65342e-08
1.38625e-05
-2.74053e-08
1.3861e-05
1.34878e-08
1.38534e-05
-1.04872e-07
1.38861e-05
-2.92187e-08
1.38059e-05
-1.3166e-07
1.40065e-05
-4.16951e-07
1.38538e-05
-1.15386e-07
1.40506e-05
-9.3426e-07
1.36473e-05
-3.09892e-06
-8.99675e-07
1.56996e-05
1.32788e-05
4.92901e-06
1.36587e-05
5.36503e-06
1.38572e-05
2.22527e-06
1.40798e-05
1.73263e-06
1.4136e-05
1.38517e-06
1.40369e-05
4.44377e-07
1.39368e-05
-6.39872e-08
1.3892e-05
3.48013e-08
1.38766e-05
1.37558e-07
1.38709e-05
9.21954e-08
1.38583e-05
-1.47915e-08
1.38732e-05
-1.44438e-09
1.38418e-05
-7.34438e-08
1.38845e-05
-7.198e-08
1.386e-05
-1.0708e-07
1.38623e-05
-4.19267e-07
1.3989e-05
-2.42099e-07
1.40049e-05
-9.502e-07
1.41533e-05
-3.24732e-06
-2.11424e-06
1.53679e-05
1.31952e-05
4.23379e-06
1.36098e-05
4.95048e-06
1.37767e-05
2.05837e-06
1.39807e-05
1.52855e-06
1.40578e-05
1.30806e-06
1.39917e-05
5.10548e-07
1.3913e-05
1.47186e-08
1.38794e-05
6.83657e-08
1.38716e-05
1.45347e-07
1.38663e-05
9.75561e-08
1.38622e-05
-1.07407e-08
1.38642e-05
-3.40591e-09
1.3848e-05
-5.73275e-08
1.39021e-05
-1.26017e-07
1.38054e-05
-1.04096e-08
1.39921e-05
-6.05966e-07
1.38599e-05
-1.09921e-07
1.41947e-05
-1.28495e-06
1.40732e-05
-3.12586e-06
-1.29344e-06
1.32524e-05
1.31193e-05
3.61454e-06
1.35545e-05
4.51519e-06
1.37096e-05
1.9033e-06
1.38963e-05
1.34187e-06
1.3988e-05
1.21634e-06
1.39508e-05
5.47749e-07
1.38917e-05
7.38756e-08
1.38686e-05
9.13826e-08
1.38653e-05
1.48675e-07
1.3866e-05
9.68914e-08
1.3859e-05
-3.72935e-09
1.38664e-05
-1.08763e-08
1.38547e-05
-4.55679e-08
1.38655e-05
-1.36858e-07
1.38753e-05
-2.01915e-08
1.389e-05
-6.20616e-07
1.3968e-05
-1.87989e-07
1.4077e-05
-1.3939e-06
1.38676e-05
-2.91646e-06
-2.79448e-06
1.53686e-05
1.30506e-05
3.06398e-06
1.34976e-05
4.06812e-06
1.36523e-05
1.74863e-06
1.38238e-05
1.1703e-06
1.39263e-05
1.11392e-06
1.39144e-05
5.59646e-07
1.38728e-05
1.15405e-07
1.38586e-05
1.05626e-07
1.38607e-05
1.46581e-07
1.38637e-05
9.38879e-08
1.38571e-05
2.82688e-09
1.38695e-05
-2.32063e-08
1.38429e-05
-1.89726e-08
1.38996e-05
-1.93589e-07
1.3839e-05
4.04573e-08
1.39264e-05
-7.08043e-07
1.39526e-05
-2.14236e-07
1.40419e-05
-1.48316e-06
1.43352e-05
-3.20979e-06
-2.97379e-06
1.45145e-05
1.29893e-05
2.57467e-06
1.34424e-05
3.61499e-06
1.36027e-05
1.58839e-06
1.37614e-05
1.01163e-06
1.38718e-05
1.00343e-06
1.38821e-05
5.49433e-07
1.38562e-05
1.4127e-07
1.38498e-05
1.12036e-07
1.38561e-05
1.40308e-07
1.38616e-05
8.83872e-08
1.38584e-05
5.93723e-09
1.38638e-05
-2.85124e-08
1.38564e-05
-1.16386e-08
1.38707e-05
-2.07846e-07
1.38672e-05
4.39063e-08
1.39183e-05
-7.59132e-07
1.39558e-05
-2.51747e-07
1.40922e-05
-1.6195e-06
1.39439e-05
-3.06157e-06
-3.08615e-06
1.40563e-05
1.29356e-05
2.13911e-06
1.33912e-05
3.1594e-06
1.356e-05
1.41955e-06
1.37078e-05
8.63797e-07
1.38244e-05
8.86887e-07
1.38537e-05
5.20105e-07
1.38417e-05
1.533e-07
1.3842e-05
1.11748e-07
1.3852e-05
1.30249e-07
1.38602e-05
8.02185e-08
1.38567e-05
9.43748e-09
1.38663e-05
-3.81005e-08
1.38522e-05
2.3885e-09
1.38792e-05
-2.34806e-07
1.38708e-05
5.23494e-08
1.38986e-05
-7.86989e-07
1.39745e-05
-3.27614e-07
1.40139e-05
-1.65893e-06
1.40132e-05
-3.06084e-06
-4.09852e-06
1.50256e-05
1.28892e-05
1.7499e-06
1.3345e-05
2.70358e-06
1.35237e-05
1.24084e-06
1.36625e-05
7.24986e-07
1.37836e-05
7.6588e-07
1.38292e-05
4.74492e-07
1.38292e-05
1.53304e-07
1.38352e-05
1.05741e-07
1.38485e-05
1.16925e-07
1.38584e-05
7.03438e-08
1.3857e-05
1.07663e-08
1.38638e-05
-4.48352e-08
1.38563e-05
9.87929e-09
1.38736e-05
-2.5217e-07
1.38762e-05
4.97891e-08
1.38992e-05
-8.09931e-07
1.39602e-05
-3.88707e-07
1.40279e-05
-1.72659e-06
1.40916e-05
-3.12451e-06
-3.88676e-06
1.38798e-05
1.285e-05
1.39986e-06
1.33048e-05
2.24886e-06
1.34935e-05
1.05212e-06
1.36249e-05
5.93556e-07
1.37491e-05
6.41665e-07
1.38083e-05
4.15268e-07
1.38186e-05
1.43062e-07
1.38294e-05
9.49363e-08
1.38454e-05
1.00878e-07
1.3857e-05
5.87852e-08
1.38568e-05
1.09259e-08
1.38632e-05
-5.11814e-08
1.3858e-05
1.50407e-08
1.38709e-05
-2.65034e-07
1.38817e-05
3.89993e-08
1.38911e-05
-8.1935e-07
1.39608e-05
-4.58417e-07
1.39971e-05
-1.76288e-06
1.39239e-05
-3.05129e-06
-4.28715e-06
1.43243e-05
1.28179e-05
1.082e-06
1.32708e-05
1.79588e-06
1.34689e-05
8.54115e-07
1.35944e-05
4.68035e-07
1.37208e-05
5.15206e-07
1.37911e-05
3.44962e-07
1.38099e-05
1.24323e-07
1.38246e-05
8.02117e-08
1.38429e-05
8.25744e-08
1.38558e-05
4.59354e-08
1.38568e-05
9.85544e-09
1.38623e-05
-5.66398e-08
1.38598e-05
1.74891e-08
1.38685e-05
-2.73688e-07
1.38851e-05
2.24317e-08
1.38855e-05
-8.19744e-07
1.39507e-05
-5.23627e-07
1.3966e-05
-1.77819e-06
1.39828e-05
-3.06809e-06
-4.39124e-06
1.40869e-05
1.27925e-05
7.89542e-07
1.32435e-05
1.3448e-06
1.34495e-05
6.48093e-07
1.35705e-05
3.47087e-07
1.36985e-05
3.87228e-07
1.37775e-05
2.65967e-07
1.3803e-05
9.88133e-08
1.38208e-05
6.23994e-08
1.38409e-05
6.24791e-08
1.38547e-05
3.20963e-08
1.38569e-05
7.67725e-09
1.38614e-05
-6.11768e-08
1.38615e-05
1.74489e-08
1.38662e-05
-2.7843e-07
1.38871e-05
1.52969e-09
1.38792e-05
-8.11811e-07
1.39403e-05
-5.84713e-07
1.3948e-05
-1.78591e-06
1.39271e-05
-3.04715e-06
-4.47882e-06
1.40146e-05
1.27736e-05
5.15937e-07
1.3223e-05
8.95455e-07
1.34353e-05
4.35745e-07
1.35529e-05
2.29478e-07
1.36819e-05
2.58272e-07
1.37673e-05
1.80565e-07
1.37978e-05
6.82413e-08
1.38179e-05
4.23004e-08
1.38394e-05
4.10372e-08
1.38539e-05
1.75614e-08
1.3857e-05
4.5567e-09
1.38607e-05
-6.48453e-08
1.38629e-05
1.53011e-08
1.38642e-05
-2.79752e-07
1.38878e-05
-2.20937e-08
1.38735e-05
-7.97541e-07
1.39302e-05
-6.41335e-07
1.39246e-05
-1.78039e-06
1.3878e-05
-3.0005e-06
-4.47932e-06
1.38785e-05
1.27611e-05
2.54794e-07
1.32092e-05
4.4739e-07
1.34259e-05
2.19036e-07
1.35413e-05
1.14053e-07
1.36709e-05
1.2874e-07
1.37605e-05
9.09444e-08
1.37944e-05
3.42997e-08
1.3816e-05
2.06949e-08
1.38384e-05
1.86803e-08
1.38533e-05
2.62045e-09
1.38572e-05
6.65851e-10
1.38601e-05
-6.76873e-08
1.38639e-05
1.14418e-08
1.38624e-05
-2.78175e-07
1.38875e-05
-4.72352e-08
1.38682e-05
-7.782e-07
1.39176e-05
-6.90827e-07
1.38973e-05
-1.76004e-06
1.386e-05
-2.96318e-06
-4.52232e-06
1.3903e-05
1.27549e-05
-1.49121e-10
1.32023e-05
8.53234e-12
1.34213e-05
1.04382e-10
1.35356e-05
-2.92459e-10
1.36654e-05
-1.05777e-09
1.37571e-05
-7.66201e-10
1.37927e-05
-1.32756e-09
1.38151e-05
-1.65066e-09
1.38379e-05
-4.16967e-09
1.3853e-05
-1.24438e-08
1.38575e-05
-3.80475e-09
1.38595e-05
-6.97476e-08
1.38647e-05
6.24037e-09
1.38607e-05
-2.74166e-07
1.38863e-05
-7.27771e-08
1.38626e-05
-7.54582e-07
1.39053e-05
-7.33471e-07
1.38781e-05
-1.73282e-06
1.38178e-05
-2.90291e-06
-4.41279e-06
1.37083e-05
1.27549e-05
-2.55092e-07
1.32023e-05
-4.47374e-07
1.34213e-05
-2.18828e-07
1.35356e-05
-1.14637e-07
1.36654e-05
-1.30854e-07
1.37571e-05
-9.24707e-08
1.37927e-05
-3.6962e-08
1.38151e-05
-2.39792e-08
1.3838e-05
-2.70903e-08
1.38529e-05
-2.73523e-08
1.38577e-05
-8.65919e-09
1.38591e-05
-7.10808e-08
1.38653e-05
6.80703e-11
1.38592e-05
-2.68125e-07
1.38843e-05
-9.78754e-08
1.38574e-05
-7.27698e-07
1.38929e-05
-7.68964e-07
1.38535e-05
-1.69337e-06
1.37805e-05
-2.82999e-06
-4.35126e-06
1.3719e-05
1.27611e-05
-5.16233e-07
1.32092e-05
-8.95441e-07
1.34259e-05
-4.35539e-07
1.35413e-05
-2.3006e-07
1.36709e-05
-2.60382e-07
1.37605e-05
-1.82074e-07
1.37944e-05
-7.09242e-08
1.3816e-05
-4.55335e-08
1.38386e-05
-4.96582e-08
1.3853e-05
-4.18279e-08
1.38581e-05
-1.36961e-08
1.38587e-05
-7.17389e-08
1.38655e-05
-6.72815e-09
1.38578e-05
-2.60434e-07
1.38818e-05
-1.21855e-07
1.38522e-05
-6.98087e-07
1.38802e-05
-7.96995e-07
1.38324e-05
-1.64553e-06
1.37506e-05
-2.74818e-06
-4.21384e-06
1.36132e-05
1.27736e-05
-7.89835e-07
1.3223e-05
-1.34479e-06
1.34353e-05
-6.4789e-07
1.35529e-05
-3.47666e-07
1.36819e-05
-3.89331e-07
1.37672e-05
-2.67446e-07
1.37978e-05
-1.0153e-07
1.38179e-05
-6.55508e-08
1.38396e-05
-7.14424e-08
1.38534e-05
-5.55955e-08
1.38584e-05
-1.87149e-08
1.38585e-05
-7.17652e-08
1.38656e-05
-1.38394e-08
1.38566e-05
-2.5142e-07
1.38789e-05
-1.44165e-07
1.38471e-05
-6.66276e-07
1.3868e-05
-8.17984e-07
1.38111e-05
-1.58858e-06
1.3716e-05
-2.65312e-06
-4.06411e-06
1.35663e-05
1.27925e-05
-1.08229e-06
1.32435e-05
-1.79587e-06
1.34496e-05
-8.53914e-07
1.35705e-05
-4.68612e-07
1.36985e-05
-5.17298e-07
1.37774e-05
-3.46399e-07
1.3803e-05
-1.27085e-07
1.38207e-05
-8.32541e-08
1.38412e-05
-9.19994e-08
1.3854e-05
-6.83793e-08
1.38588e-05
-2.35157e-08
1.38583e-05
-7.11995e-08
1.38654e-05
-2.09893e-08
1.38554e-05
-2.41376e-07
1.38756e-05
-1.64385e-07
1.3842e-05
-6.32666e-07
1.38561e-05
-8.32127e-07
1.37907e-05
-1.52317e-06
1.36873e-05
-2.54967e-06
-3.88754e-06
1.35107e-05
1.28179e-05
-1.40015e-06
1.32709e-05
-2.24887e-06
1.34689e-05
-1.05192e-06
1.35944e-05
-5.94129e-07
1.37208e-05
-6.4374e-07
1.37911e-05
-4.16653e-07
1.38099e-05
-1.45879e-07
1.38245e-05
-9.78471e-08
1.38433e-05
-1.10869e-07
1.38549e-05
-7.99047e-08
1.38592e-05
-2.79053e-08
1.38581e-05
-7.00725e-08
1.38651e-05
-2.79348e-08
1.38542e-05
-2.30557e-07
1.3872e-05
-1.82181e-07
1.3837e-05
-5.97592e-07
1.38447e-05
-8.39887e-07
1.37713e-05
-1.44969e-06
1.36595e-05
-2.43794e-06
-3.69021e-06
1.34622e-05
1.285e-05
-1.75018e-06
1.33048e-05
-2.7036e-06
1.34935e-05
-1.24064e-06
1.36249e-05
-7.25555e-07
1.37491e-05
-7.67932e-07
1.38083e-05
-4.75818e-07
1.38186e-05
-1.56183e-07
1.38292e-05
-1.08502e-07
1.38459e-05
-1.27567e-07
1.38559e-05
-8.9895e-08
1.38597e-05
-3.16955e-08
1.3858e-05
-6.84117e-08
1.38646e-05
-3.44632e-08
1.38532e-05
-2.19194e-07
1.38683e-05
-1.97291e-07
1.38321e-05
-5.61362e-07
1.38339e-05
-8.41714e-07
1.37527e-05
-1.36845e-06
1.36349e-05
-2.32015e-06
-3.47557e-06
1.34203e-05
1.28892e-05
-2.13937e-06
1.3345e-05
-3.15943e-06
1.35237e-05
-1.41936e-06
1.36626e-05
-8.64363e-07
1.37835e-05
-8.88904e-07
1.38291e-05
-5.21365e-07
1.38291e-05
-1.56241e-07
1.3835e-05
-1.14353e-07
1.3849e-05
-1.41586e-07
1.38572e-05
-9.80748e-08
1.38602e-05
-3.47088e-08
1.3858e-05
-6.62373e-08
1.38639e-05
-4.039e-08
1.38523e-05
-2.07498e-07
1.38645e-05
-2.09495e-07
1.38274e-05
-5.24284e-07
1.38237e-05
-8.38067e-07
1.37351e-05
-1.27983e-06
1.36132e-05
-2.19829e-06
-3.24519e-06
1.33829e-05
1.29356e-05
-2.57493e-06
1.33912e-05
-3.61505e-06
1.356e-05
-1.5882e-06
1.37078e-05
-1.01219e-06
1.38243e-05
-1.00541e-06
1.38536e-05
-5.50625e-07
1.38416e-05
-1.44272e-07
1.38418e-05
-1.14484e-07
1.38526e-05
-1.52384e-07
1.38586e-05
-1.04167e-07
1.38607e-05
-3.67762e-08
1.3858e-05
-6.35658e-08
1.38632e-05
-4.55578e-08
1.38514e-05
-1.95663e-07
1.38605e-05
-2.18598e-07
1.38229e-05
-4.867e-07
1.38142e-05
-8.29335e-07
1.37186e-05
-1.18426e-06
1.35949e-05
-2.07463e-06
-3.00102e-06
1.33508e-05
1.29893e-05
-3.06422e-06
1.34425e-05
-4.06821e-06
1.36027e-05
-1.74844e-06
1.37614e-05
-1.17086e-06
1.38718e-05
-1.11583e-06
1.38819e-05
-5.60771e-07
1.38561e-05
-1.1846e-07
1.38496e-05
-1.07917e-07
1.38566e-05
-1.59388e-07
1.38603e-05
-1.07897e-07
1.38613e-05
-3.77417e-08
1.38581e-05
-6.04081e-08
1.38624e-05
-4.98334e-08
1.38506e-05
-1.8388e-07
1.38564e-05
-2.24412e-07
1.38187e-05
-4.49012e-07
1.38052e-05
-8.15785e-07
1.37032e-05
-1.08226e-06
1.35803e-05
-1.95175e-06
-2.74398e-06
1.33232e-05
1.30505e-05
-3.61476e-06
1.34976e-05
-4.51531e-06
1.36523e-05
-1.9031e-06
1.38239e-05
-1.34243e-06
1.39262e-05
-1.21817e-06
1.39142e-05
-5.48821e-07
1.38727e-05
-7.69536e-08
1.38584e-05
-9.35996e-08
1.3861e-05
-1.61989e-07
1.38621e-05
-1.0899e-07
1.38618e-05
-3.74599e-08
1.38582e-05
-5.67711e-08
1.38615e-05
-5.3109e-08
1.38499e-05
-1.72332e-07
1.38523e-05
-2.26738e-07
1.3815e-05
-4.11708e-07
1.37967e-05
-7.97492e-07
1.36889e-05
-9.74546e-07
1.35695e-05
-1.83234e-06
-2.47408e-06
1.32996e-05
1.31192e-05
-4.234e-06
1.35546e-05
-4.95065e-06
1.37096e-05
-2.05816e-06
1.38963e-05
-1.52912e-06
1.39879e-05
-1.30978e-06
1.39507e-05
-5.11564e-07
1.38916e-05
-1.78396e-08
1.38684e-05
-7.03942e-08
1.38659e-05
-1.59536e-07
1.38641e-05
-1.07179e-07
1.38624e-05
-3.58004e-08
1.38583e-05
-5.26556e-08
1.38605e-05
-5.52995e-08
1.38494e-05
-1.61203e-07
1.3848e-05
-2.25356e-07
1.38117e-05
-3.75385e-07
1.37884e-05
-7.7424e-07
1.36761e-05
-8.62209e-07
1.35629e-05
-1.71918e-06
-2.18952e-06
1.32784e-05
1.31952e-05
-4.92919e-06
1.36098e-05
-5.36524e-06
1.37767e-05
-2.22504e-06
1.39808e-05
-1.7332e-06
1.40577e-05
-1.38676e-06
1.39916e-05
-4.45383e-07
1.39128e-05
6.09543e-08
1.38794e-05
-3.70518e-08
1.38712e-05
-1.51318e-07
1.38662e-05
-1.02192e-07
1.38631e-05
-3.26444e-08
1.38585e-05
-4.80583e-08
1.38595e-05
-5.63434e-08
1.3849e-05
-1.50666e-07
1.38436e-05
-2.20017e-07
1.3809e-05
-3.40759e-07
1.37801e-05
-7.45327e-07
1.36648e-05
-7.46892e-07
1.35606e-05
-1.61499e-06
-1.8862e-06
1.32573e-05
1.32788e-05
-5.70802e-06
1.36588e-05
-5.74517e-06
1.38572e-05
-2.42352e-06
1.40798e-05
-1.9558e-06
1.41359e-05
-1.44281e-06
1.40368e-05
-3.46257e-07
1.39366e-05
1.61143e-07
1.38917e-05
7.79568e-09
1.38769e-05
-1.36531e-07
1.38684e-05
-9.36825e-08
1.38636e-05
-2.7852e-08
1.38585e-05
-4.29631e-08
1.38584e-05
-5.61608e-08
1.38485e-05
-1.40851e-07
1.38389e-05
-2.1036e-07
1.38067e-05
-3.08576e-07
1.37707e-05
-7.09344e-07
1.36544e-05
-6.30525e-07
1.35609e-05
-1.52152e-06
-1.56441e-06
1.32391e-05
1.33742e-05
-6.58223e-06
1.36997e-05
-6.07065e-06
1.39485e-05
-2.67236e-06
1.41767e-05
-2.18397e-06
1.42014e-05
-1.46748e-06
1.40734e-05
-2.18283e-07
1.39573e-05
2.77189e-07
1.39023e-05
6.28172e-08
1.38804e-05
-1.14628e-07
1.3868e-05
-8.12255e-08
1.38614e-05
-2.12594e-08
1.38557e-05
-3.73153e-08
1.38539e-05
-5.43852e-08
1.38444e-05
-1.31332e-07
1.38297e-05
-1.95627e-07
1.37991e-05
-2.77952e-07
1.37529e-05
-6.63131e-07
1.36365e-05
-5.1419e-07
1.35461e-05
-1.43108e-06
-1.2503e-06
1.3232e-05
1.34871e-05
-7.56933e-06
1.37353e-05
-6.31887e-06
1.39786e-05
-2.91563e-06
1.41202e-05
-2.32559e-06
1.4074e-05
-1.42128e-06
1.39517e-05
-9.59886e-08
1.38647e-05
3.64175e-07
1.3821e-05
1.0653e-07
1.37977e-05
-9.13036e-08
1.37835e-05
-6.70687e-08
1.37764e-05
-1.41363e-08
1.37701e-05
-3.10218e-08
1.37657e-05
-4.99266e-08
1.37524e-05
-1.18116e-07
1.37308e-05
-1.74018e-07
1.36929e-05
-2.40066e-07
1.36239e-05
-5.94074e-07
1.35071e-05
-3.97401e-07
1.33755e-05
-1.29946e-06
-9.76589e-07
1.31018e-05
1.35709e-05
-8.64022e-06
1.36266e-05
-6.37461e-06
1.36517e-05
-2.94068e-06
1.34993e-05
-2.1732e-06
1.32823e-05
-1.20434e-06
1.31852e-05
1.15693e-09
1.31807e-05
3.68687e-07
1.31784e-05
1.08862e-07
1.31628e-05
-7.5753e-08
1.31507e-05
-5.49138e-08
1.31455e-05
-9.01771e-09
1.31385e-05
-2.39603e-08
1.31305e-05
-4.19576e-08
1.3108e-05
-9.56318e-08
1.30767e-05
-1.42699e-07
1.30249e-05
-1.88243e-07
1.29119e-05
-4.81066e-07
1.28038e-05
-2.89284e-07
1.25771e-05
-1.0728e-06
-7.30131e-07
1.23306e-05
1.33758e-05
-9.51604e-06
1.28965e-05
-5.89527e-06
1.24649e-05
-2.50908e-06
1.19358e-05
-1.64416e-06
1.15529e-05
-8.21351e-07
1.14844e-05
6.96206e-08
1.15472e-05
3.05838e-07
1.15725e-05
8.35813e-08
1.15568e-05
-6.00691e-08
1.15428e-05
-4.08605e-08
1.15384e-05
-4.65141e-09
1.15307e-05
-1.62209e-08
1.15193e-05
-3.0592e-08
1.14906e-05
-6.69678e-08
1.14504e-05
-1.02404e-07
1.13921e-05
-1.2998e-07
1.12454e-05
-3.34369e-07
1.11518e-05
-1.95736e-07
1.08481e-05
-7.69049e-07
-4.78583e-07
1.05965e-05
1.24007e-05
-9.41676e-06
1.10527e-05
-4.54729e-06
1.01677e-05
-1.62403e-06
9.44162e-06
-9.18091e-07
9.03843e-06
-4.1816e-07
9.02343e-06
8.46238e-08
9.13066e-06
1.98605e-07
9.16732e-06
4.69234e-08
9.14807e-06
-4.08208e-08
9.13208e-06
-2.48682e-08
9.12854e-06
-1.11222e-09
9.12121e-06
-8.89348e-09
9.1085e-06
-1.78818e-08
9.07915e-06
-3.76167e-08
9.03658e-06
-5.98303e-08
8.97805e-06
-7.14481e-08
8.82962e-06
-1.85942e-07
8.74767e-06
-1.13785e-07
8.41337e-06
-4.34751e-07
-2.41827e-07
8.17661e-06
1.00991e-05
-7.01588e-06
7.88459e-06
-2.33277e-06
6.86945e-06
-6.08893e-07
6.23273e-06
-2.81368e-07
5.93591e-06
-1.21336e-07
5.97402e-06
4.65108e-08
6.09301e-06
7.96171e-08
6.12459e-06
1.53374e-08
6.102e-06
-1.82312e-08
6.08687e-06
-9.73818e-09
6.08521e-06
5.53682e-10
6.07931e-06
-2.99902e-09
6.06792e-06
-6.48252e-09
6.0432e-06
-1.28967e-08
6.00557e-06
-2.21993e-08
5.95712e-06
-2.30026e-08
5.8351e-06
-6.39223e-08
5.76492e-06
-4.36086e-08
5.47442e-06
-1.44247e-07
-8.90392e-08
5.32163e-06
5.48412e-06
3.15136e-06
2.54246e-06
2.2611e-06
2.13976e-06
2.18627e-06
2.26589e-06
2.28123e-06
2.26299e-06
2.25326e-06
2.25381e-06
2.25081e-06
2.24433e-06
2.23143e-06
2.20923e-06
2.18623e-06
2.12231e-06
2.0787e-06
1.93445e-06
1.84541e-06
8.60482e-06
-6.09035e-06
1.88258e-06
1.22075e-05
6.97956e-06
-1.05823e-05
1.29291e-05
1.50241e-05
-1.57457e-05
1.41396e-05
4.3885e-06
-5.59896e-06
1.47946e-05
-1.27505e-05
1.20955e-05
1.41569e-05
-2.23787e-05
2.30163e-05
1.2589e-05
-2.38637e-05
2.54316e-05
1.09207e-05
-2.19365e-05
2.36047e-05
9.43012e-06
-1.96325e-05
2.11231e-05
8.47319e-06
-1.78758e-05
1.88328e-05
8.19598e-06
-1.57292e-05
1.60064e-05
8.01622e-06
-1.36008e-05
1.37806e-05
7.69358e-06
-1.21184e-05
1.24411e-05
7.36626e-06
-1.09291e-05
1.12564e-05
7.11582e-06
-9.83236e-06
1.00828e-05
6.9573e-06
-8.8709e-06
9.02942e-06
6.86245e-06
-7.99406e-06
8.08891e-06
6.79264e-06
-7.1854e-06
7.25522e-06
6.7315e-06
-6.4638e-06
6.52493e-06
6.67832e-06
-5.82594e-06
5.87912e-06
6.6338e-06
-5.25709e-06
5.30162e-06
6.59706e-06
-4.74695e-06
4.78369e-06
6.5668e-06
-4.28874e-06
4.31899e-06
6.54183e-06
-3.87672e-06
3.90169e-06
6.52113e-06
-3.5058e-06
3.52651e-06
6.50388e-06
-3.17156e-06
3.18881e-06
6.48944e-06
-2.87009e-06
2.88453e-06
6.47732e-06
-2.59796e-06
2.61008e-06
6.46711e-06
-2.35214e-06
2.36236e-06
6.45847e-06
-2.12996e-06
2.13859e-06
6.45116e-06
-1.92905e-06
1.93637e-06
6.44495e-06
-1.74729e-06
1.75351e-06
6.43966e-06
-1.58281e-06
1.5881e-06
6.43515e-06
-1.43392e-06
1.43843e-06
6.4313e-06
-1.29911e-06
1.30296e-06
6.428e-06
-1.17703e-06
1.18033e-06
6.42517e-06
-1.06646e-06
1.06928e-06
6.42274e-06
-9.66299e-07
9.68727e-07
6.42065e-06
-8.75568e-07
8.77656e-07
6.41886e-06
-7.93366e-07
7.95165e-07
6.4173e-06
-7.18883e-07
7.20435e-07
6.41596e-06
-6.51399e-07
6.5274e-07
6.4148e-06
-5.90256e-07
5.91415e-07
6.4138e-06
-5.3485e-07
5.35856e-07
6.41293e-06
-4.84641e-07
4.85514e-07
6.41217e-06
-4.39146e-07
4.39904e-07
6.41151e-06
-3.97925e-07
3.98585e-07
6.41093e-06
-3.6057e-07
3.61146e-07
6.41043e-06
-3.26716e-07
3.27218e-07
6.40999e-06
-2.9604e-07
2.96479e-07
6.40961e-06
-2.68247e-07
2.68631e-07
6.40927e-06
-2.43059e-07
2.43397e-07
6.40897e-06
-2.2023e-07
2.20527e-07
6.40871e-06
-1.99545e-07
1.99806e-07
6.40848e-06
-1.80806e-07
1.81036e-07
6.40828e-06
-1.63822e-07
1.64025e-07
6.4081e-06
-1.48427e-07
1.48607e-07
6.40794e-06
-1.34479e-07
1.34638e-07
6.4078e-06
-1.21845e-07
1.21985e-07
6.40767e-06
-1.10394e-07
1.10519e-07
6.40756e-06
-1.00013e-07
1.00124e-07
6.40746e-06
-9.0608e-08
9.07066e-08
6.40738e-06
-8.20901e-08
8.21777e-08
6.4073e-06
-7.43701e-08
7.44484e-08
6.40723e-06
-6.73697e-08
6.74396e-08
6.40717e-06
-6.10278e-08
6.109e-08
6.40711e-06
-5.5285e-08
5.53404e-08
6.40706e-06
-5.00793e-08
5.01291e-08
6.40702e-06
-4.53571e-08
4.54018e-08
6.40698e-06
-4.10789e-08
4.11187e-08
6.40694e-06
-3.72057e-08
3.72414e-08
6.40691e-06
-3.36933e-08
3.37256e-08
6.40688e-06
-3.05046e-08
3.05337e-08
6.40685e-06
-2.76155e-08
2.76415e-08
6.40683e-06
-2.50005e-08
2.50237e-08
6.40681e-06
-2.26275e-08
2.26486e-08
6.40679e-06
-2.04707e-08
2.04898e-08
6.40677e-06
-1.85154e-08
1.85324e-08
6.40676e-06
-1.67455e-08
1.67606e-08
6.40674e-06
-1.51373e-08
1.5151e-08
6.40673e-06
-1.36725e-08
1.3685e-08
6.40672e-06
-1.23431e-08
1.2354e-08
6.40671e-06
-1.11385e-08
1.11483e-08
6.4067e-06
-1.00412e-08
1.00502e-08
6.40669e-06
-9.0375e-09
9.04564e-09
6.40669e-06
-8.12406e-09
8.13121e-09
6.40668e-06
-7.29446e-09
7.30068e-09
6.40667e-06
-6.53474e-09
6.5405e-09
6.40667e-06
-5.83477e-09
5.84002e-09
6.40666e-06
-5.19385e-09
5.19831e-09
6.40666e-06
-4.60842e-09
4.61229e-09
6.40666e-06
-4.06649e-09
4.07015e-09
6.40665e-06
-3.56023e-09
3.56359e-09
6.40665e-06
-3.09107e-09
3.09381e-09
6.40665e-06
-2.65702e-09
2.65931e-09
6.40665e-06
-2.24765e-09
2.24983e-09
6.40664e-06
-1.85642e-09
1.85833e-09
6.40664e-06
-1.48564e-09
1.487e-09
6.40664e-06
-1.13435e-09
1.13531e-09
6.40664e-06
-7.93323e-10
7.94143e-10
6.40664e-06
-4.56757e-10
4.57453e-10
6.40664e-06
-1.27081e-10
1.27055e-10
6.40664e-06
1.96833e-10
-1.97029e-10
6.40664e-06
5.22936e-10
-5.23192e-10
6.40664e-06
8.57214e-10
-8.57721e-10
6.40664e-06
1.19673e-09
-1.19769e-09
6.40664e-06
1.54231e-09
-1.54367e-09
6.40665e-06
1.90318e-09
-1.90457e-09
6.40665e-06
2.28518e-09
-2.28679e-09
6.40665e-06
2.68587e-09
-2.68801e-09
6.40665e-06
3.10645e-09
-3.10902e-09
6.40665e-06
3.55691e-09
-3.55961e-09
6.40666e-06
4.04388e-09
-4.04686e-09
6.40666e-06
4.56582e-09
-4.56942e-09
6.40667e-06
5.12526e-09
-5.12943e-09
6.40667e-06
5.7332e-09
-5.73758e-09
6.40667e-06
6.39785e-09
-6.40274e-09
6.40668e-06
7.11924e-09
-7.12485e-09
6.40669e-06
7.90174e-09
-7.90819e-09
6.40669e-06
8.75815e-09
-8.76505e-09
6.4067e-06
9.69891e-09
-9.70649e-09
6.40671e-06
1.07269e-08
-1.07355e-08
6.40672e-06
1.18491e-08
-1.18587e-08
6.40673e-06
1.30817e-08
-1.3092e-08
6.40674e-06
1.44386e-08
-1.44499e-08
6.40675e-06
1.59261e-08
-1.59387e-08
6.40677e-06
1.75557e-08
-1.75697e-08
6.40678e-06
1.93481e-08
-1.93632e-08
6.4068e-06
2.13222e-08
-2.13389e-08
6.40682e-06
2.34904e-08
-2.35089e-08
6.40684e-06
2.58703e-08
-2.5891e-08
6.40686e-06
2.84894e-08
-2.85119e-08
6.40689e-06
3.1374e-08
-3.13988e-08
6.40691e-06
3.45451e-08
-3.45725e-08
6.40694e-06
3.80296e-08
-3.806e-08
6.40698e-06
4.18649e-08
-4.18981e-08
6.40701e-06
4.60885e-08
-4.61251e-08
6.40705e-06
5.07339e-08
-5.07743e-08
6.4071e-06
5.58413e-08
-5.5886e-08
6.40715e-06
6.14633e-08
-6.15122e-08
6.4072e-06
6.76535e-08
-6.77074e-08
6.40726e-06
7.44636e-08
-7.45231e-08
6.40733e-06
8.19539e-08
-8.20197e-08
6.4074e-06
9.01986e-08
-9.02709e-08
6.40748e-06
9.92755e-08
-9.93554e-08
6.40757e-06
1.09263e-07
-1.09351e-07
6.40766e-06
1.20251e-07
-1.20348e-07
6.40777e-06
1.32345e-07
-1.32453e-07
6.40789e-06
1.45659e-07
-1.45778e-07
6.40802e-06
1.60311e-07
-1.60442e-07
6.40817e-06
1.76432e-07
-1.76578e-07
6.40833e-06
1.94178e-07
-1.94339e-07
6.40851e-06
2.13713e-07
-2.13891e-07
6.4087e-06
2.35213e-07
-2.3541e-07
6.40892e-06
2.58874e-07
-2.59094e-07
6.40917e-06
2.84921e-07
-2.85164e-07
6.40944e-06
3.13596e-07
-3.13867e-07
6.40974e-06
3.45162e-07
-3.45462e-07
6.41007e-06
3.79909e-07
-3.80244e-07
6.41045e-06
4.18167e-07
-4.1854e-07
6.41086e-06
4.60295e-07
-4.60712e-07
6.41133e-06
5.06687e-07
-5.07152e-07
6.41185e-06
5.57775e-07
-5.58297e-07
6.41243e-06
6.14053e-07
-6.14636e-07
6.41308e-06
6.76059e-07
-6.76712e-07
6.41381e-06
7.44388e-07
-7.45119e-07
6.41463e-06
8.19703e-07
-8.20522e-07
6.41555e-06
9.02752e-07
-9.03668e-07
6.41657e-06
9.94368e-07
-9.95391e-07
6.41771e-06
1.09548e-06
-1.09662e-06
6.41897e-06
1.20713e-06
-1.20839e-06
6.42034e-06
1.33054e-06
-1.33191e-06
6.42183e-06
1.46701e-06
-1.4685e-06
6.42337e-06
1.6182e-06
-1.61975e-06
6.42497e-06
1.78565e-06
-1.78725e-06
6.42636e-06
1.97195e-06
-1.97333e-06
6.42761e-06
2.17846e-06
-2.17971e-06
6.42773e-06
2.4099e-06
-2.41002e-06
6.42711e-06
2.66605e-06
-2.66542e-06
6.42304e-06
2.95532e-06
-2.95125e-06
6.41611e-06
3.27412e-06
-3.26719e-06
6.40305e-06
3.62997e-06
-3.61691e-06
6.38026e-06
4.02243e-06
-3.99963e-06
6.35777e-06
4.43348e-06
-4.411e-06
6.31721e-06
4.88761e-06
-4.84705e-06
6.27651e-06
5.3589e-06
-5.3182e-06
6.29764e-06
5.78567e-06
-5.8068e-06
6.14144e-06
6.47287e-06
-6.31666e-06
6.34459e-06
6.81777e-06
-7.02092e-06
6.15545e-06
7.73471e-06
-7.54557e-06
6.1547e-06
8.45485e-06
-8.45409e-06
6.33682e-06
9.31789e-06
-9.50001e-06
6.04555e-06
1.06673e-05
-1.0376e-05
6.27706e-06
1.15446e-05
-1.17761e-05
5.7939e-06
1.37847e-05
-1.33015e-05
5.51216e-06
1.51787e-05
-1.4897e-05
5.87454e-06
1.77074e-05
-1.80698e-05
5.35287e-06
2.12739e-05
-2.07522e-05
5.56534e-06
2.38127e-05
-2.40251e-05
3.52866e-05
-3.51448e-05
5.42349e-06
7.70427e-06
-8.13634e-06
1.07114e-05
3.97242e-06
1.22148e-05
1.35206e-05
1.47847e-05
1.81859e-06
1.57008e-05
-1.36666e-05
1.47879e-05
-2.14658e-05
1.29307e-05
-2.20065e-05
1.11447e-05
-2.01504e-05
9.75926e-06
-1.8247e-05
8.64167e-06
-1.67582e-05
8.0792e-06
-1.51667e-05
7.91958e-06
-1.34412e-05
7.81688e-06
-1.20157e-05
7.64147e-06
-1.07537e-05
7.40232e-06
-9.59322e-06
7.18018e-06
-8.64876e-06
7.0251e-06
-7.83898e-06
6.92152e-06
-7.08182e-06
6.84275e-06
-6.38503e-06
6.77761e-06
-5.76079e-06
6.72299e-06
-5.20248e-06
6.67722e-06
-4.70118e-06
6.63885e-06
-4.25037e-06
6.60662e-06
-3.84449e-06
6.57946e-06
-3.47864e-06
6.55645e-06
-3.14856e-06
6.53688e-06
-2.85052e-06
6.52015e-06
-2.58124e-06
6.50581e-06
-2.3378e-06
6.49346e-06
-2.11762e-06
6.48281e-06
-1.9184e-06
6.47358e-06
-1.73807e-06
6.46558e-06
-1.5748e-06
6.45861e-06
-1.42695e-06
6.45254e-06
-1.29304e-06
6.44724e-06
-1.17173e-06
6.4426e-06
-1.06182e-06
6.43853e-06
-9.62231e-07
6.43496e-06
-8.71996e-07
6.43182e-06
-7.90223e-07
6.42905e-06
-7.16113e-07
6.4266e-06
-6.48956e-07
6.42445e-06
-5.88098e-07
6.42254e-06
-5.3294e-07
6.42084e-06
-4.82948e-07
6.41934e-06
-4.37645e-07
6.41801e-06
-3.96593e-07
6.41682e-06
-3.59384e-07
6.41577e-06
-3.2566e-07
6.41483e-06
-2.951e-07
6.41399e-06
-2.67409e-07
6.41324e-06
-2.4231e-07
6.41257e-06
-2.1956e-07
6.41197e-06
-1.98947e-07
6.41144e-06
-1.8027e-07
6.41096e-06
-1.63341e-07
6.41052e-06
-1.47996e-07
6.41014e-06
-1.34093e-07
6.40979e-06
-1.21498e-07
6.40948e-06
-1.10082e-07
6.4092e-06
-9.97317e-08
6.40895e-06
-9.03561e-08
6.40872e-06
-8.18641e-08
6.40852e-06
-7.41655e-08
6.40833e-06
-6.71851e-08
6.40817e-06
-6.08623e-08
6.40802e-06
-5.51365e-08
6.40788e-06
-4.99443e-08
6.40776e-06
-4.52348e-08
6.40765e-06
-4.09695e-08
6.40755e-06
-3.71075e-08
6.40746e-06
-3.36035e-08
6.40738e-06
-3.0423e-08
6.40731e-06
-2.75428e-08
6.40724e-06
-2.49355e-08
6.40718e-06
-2.25679e-08
6.40713e-06
-2.04165e-08
6.40708e-06
-1.84674e-08
6.40704e-06
-1.67026e-08
6.407e-06
-1.50976e-08
6.40696e-06
-1.36362e-08
6.40693e-06
-1.23112e-08
6.4069e-06
-1.11103e-08
6.40688e-06
-1.00148e-08
6.40685e-06
-9.01333e-09
6.40683e-06
-8.10323e-09
6.40681e-06
-7.27635e-09
6.4068e-06
-6.5176e-09
6.40678e-06
-5.819e-09
6.40677e-06
-5.18074e-09
6.40676e-06
-4.59719e-09
6.40674e-06
-4.05555e-09
6.40673e-06
-3.5501e-09
6.40673e-06
-3.08315e-09
6.40672e-06
-2.65067e-09
6.40671e-06
-2.24144e-09
6.40671e-06
-1.85082e-09
6.4067e-06
-1.48198e-09
6.4067e-06
-1.13192e-09
6.4067e-06