/*--------------------------------*- C++ -*----------------------------------*\
| =========                 |                                                 |
| \\      /  F ield         | OpenFOAM: The Open Source CFD Toolbox           |
|  \\    /   O peration     | Version:  2.4.0                                 |
|   \\  /    A nd           | Web:      www.OpenFOAM.org                      |
|    \\/     M anipulation  |                                                 |
\*---------------------------------------------------------------------------*/
FoamFile
{
    version     2.0;
    format      ascii;
    class       volSymmTensorField;
    location    "0.007";
    object      UPrime2Mean;
}
// * * * * * * * * * * * * * * * * * * * * * * * * * * * * * * * * * * * * * //

dimensions      [0 2 -2 0 0 0 0];

internalField   nonuniform List<symmTensor> 
17600
(
(0.431301 -0.0463146 0 0.00755399 0 0)
(4.44276 -0.025854 0 0.000525761 0 0)
(5.54017 -0.00560401 0 2.21188e-05 0 0)
(5.99548 -0.00611241 0 2.17283e-05 0 0)
(6.19682 -0.00212417 0 5.59031e-06 0 0)
(6.16733 0.000820984 0 1.15735e-06 0 0)
(6.09255 0.000249763 0 4.87284e-07 0 0)
(6.07272 -0.000394291 0 5.2823e-08 0 0)
(6.08484 -0.00028077 0 5.21818e-08 0 0)
(6.09405 -5.13647e-05 0 6.12837e-09 0 0)
(6.09456 3.44971e-05 0 1.09964e-08 0 0)
(6.09798 -0.000140243 0 2.01795e-08 0 0)
(6.10108 -0.000157276 0 4.98258e-08 0 0)
(6.11355 3.82679e-05 0 5.37623e-07 0 0)
(6.15085 -0.00138615 0 1.13927e-06 0 0)
(6.15012 0.00194367 0 8.50587e-06 0 0)
(6.43746 -0.00911783 0 1.81807e-05 0 0)
(6.45681 0.0156445 0 0.00026894 0 0)
(7.5378 -0.275832 0 0.0144996 0 0)
(14.7928 1.36508 0 0.21225 0 0)
(0.254403 0.101961 0 0.0726055 0 0)
(1.44041 -0.136838 0 0.0141986 0 0)
(2.50393 -0.0642216 0 0.00167749 0 0)
(3.10034 -0.0367143 0 0.000508085 0 0)
(3.44199 -0.00926048 0 9.44418e-05 0 0)
(3.44108 0.00833719 0 2.43408e-05 0 0)
(3.31712 0.00571074 0 1.92181e-05 0 0)
(3.26581 -0.000303981 0 8.70885e-07 0 0)
(3.27711 -0.00143376 0 1.0809e-06 0 0)
(3.29198 -0.000373821 0 1.98487e-07 0 0)
(3.29146 0.000370467 0 9.05576e-08 0 0)
(3.29354 -0.000567678 0 3.17322e-07 0 0)
(3.29115 0.00073796 0 3.76219e-07 0 0)
(3.28969 -0.0035941 0 7.70701e-06 0 0)
(3.35226 0.00202168 0 4.78539e-06 0 0)
(3.218 -0.0133989 0 7.25735e-05 0 0)
(3.73409 -0.00652229 0 0.000148827 0 0)
(3.42755 -0.0190124 0 0.000251634 0 0)
(4.07991 -0.133198 0 0.0076895 0 0)
(10.5838 -2.04499 0 0.579345 0 0)
(0.71698 0.260938 0 0.106617 0 0)
(0.199967 -0.0675237 0 0.0340843 0 0)
(0.60366 -0.0564732 0 0.00647145 0 0)
(0.879578 -0.0454389 0 0.002421 0 0)
(1.1367 -0.0183575 0 0.000451914 0 0)
(1.20117 0.00778212 0 6.96365e-05 0 0)
(1.1357 0.00833601 0 7.06637e-05 0 0)
(1.09083 0.000610334 0 3.03715e-06 0 0)
(1.09256 -0.00166622 0 2.99455e-06 0 0)
(1.10375 -0.000576659 0 6.76134e-07 0 0)
(1.10438 0.000348613 0 1.28202e-07 0 0)
(1.10577 -3.07769e-05 0 9.11736e-08 0 0)
(1.10552 0.000264954 0 3.68058e-07 0 0)
(1.09675 -0.000242846 0 8.07419e-07 0 0)
(1.16066 -0.0010233 0 1.28516e-05 0 0)
(1.02541 0.000538435 0 2.50059e-05 0 0)
(1.47405 -0.027068 0 0.000667475 0 0)
(1.08097 -0.00436536 0 0.00221582 0 0)
(2.30526 -0.254985 0 0.0412437 0 0)
(3.43859 -2.05274 0 1.35151 0 0)
(0.8889 0.274065 0 0.0918067 0 0)
(0.0261761 0.0151875 0 0.0452684 0 0)
(0.0958585 -0.00526202 0 0.0111247 0 0)
(0.0980247 -0.0132068 0 0.00531331 0 0)
(0.132244 -0.011671 0 0.00119903 0 0)
(0.172672 0.00139405 0 0.000100478 0 0)
(0.16926 0.00445374 0 0.000141446 0 0)
(0.15462 0.00084571 0 7.15164e-06 0 0)
(0.152413 -0.000750239 0 4.56031e-06 0 0)
(0.156256 -0.000439761 0 1.7432e-06 0 0)
(0.157176 0.000333608 0 8.02712e-07 0 0)
(0.158116 -0.000692015 0 3.95678e-06 0 0)
(0.157662 0.00139488 0 1.47739e-05 0 0)
(0.159435 -0.00357673 0 0.000108458 0 0)
(0.164745 0.00357083 0 0.000214841 0 0)
(0.176389 -0.00551353 0 0.000972531 0 0)
(0.201226 -0.0144797 0 0.00321192 0 0)
(0.277816 0.00814231 0 0.00524072 0 0)
(0.780015 -0.186524 0 0.11146 0 0)
(0.791705 -0.327963 0 0.859035 0 0)
(0.867557 0.2311 0 0.0666623 0 0)
(0.0496918 0.0422518 0 0.0435386 0 0)
(0.124727 0.0274577 0 0.0111897 0 0)
(0.149175 0.0228534 0 0.00662637 0 0)
(0.0882468 0.00662071 0 0.0018801 0 0)
(0.0573276 -0.00163776 0 8.10317e-05 0 0)
(0.0590096 -0.00115184 0 0.000168127 0 0)
(0.0626148 4.52489e-05 0 1.09014e-05 0 0)
(0.0619303 0.000265768 0 6.25625e-06 0 0)
(0.0606078 6.58461e-05 0 1.79389e-06 0 0)
(0.0604111 -4.1646e-05 0 2.08267e-07 0 0)
(0.0596508 6.61717e-05 0 8.86129e-07 0 0)
(0.0618023 4.34574e-05 0 1.13321e-05 0 0)
(0.0553076 2.44347e-05 0 2.72387e-05 0 0)
(0.0676212 0.0015635 0 0.000339865 0 0)
(0.0443053 -0.0020308 0 0.000635026 0 0)
(0.0853578 0.0105771 0 0.00609557 0 0)
(0.0569074 -0.0084582 0 0.0274881 0 0)
(0.159913 0.0177599 0 0.0846863 0 0)
(0.4055 -0.219282 0 2.02915 0 0)
(0.841162 0.196341 0 0.049588 0 0)
(0.0448112 0.038535 0 0.0389211 0 0)
(0.143448 0.031211 0 0.00902619 0 0)
(0.240157 0.0339956 0 0.00590757 0 0)
(0.192238 0.0170112 0 0.00207099 0 0)
(0.122624 -0.000464157 0 4.14037e-05 0 0)
(0.106142 -0.00256967 0 0.000111315 0 0)
(0.109487 -0.000131936 0 5.91485e-06 0 0)
(0.108433 0.000770501 0 9.38379e-06 0 0)
(0.105315 0.000427916 0 4.73019e-06 0 0)
(0.102445 -0.000244728 0 1.54942e-06 0 0)
(0.104398 0.000821637 0 1.32013e-05 0 0)
(0.0983754 -0.00169986 0 6.46354e-05 0 0)
(0.105378 0.00508052 0 0.00040386 0 0)
(0.0900797 -0.0076909 0 0.00100504 0 0)
(0.0908638 0.0153508 0 0.00351233 0 0)
(0.0739595 -0.0104959 0 0.00931753 0 0)
(0.0539585 0.0180069 0 0.0184265 0 0)
(0.0790657 -0.0664681 0 0.197472 0 0)
(0.314089 -0.0264508 0 0.762577 0 0)
(0.835145 0.170385 0 0.0375205 0 0)
(0.032893 0.0303731 0 0.0349557 0 0)
(0.126927 0.0268623 0 0.00726326 0 0)
(0.239171 0.0318715 0 0.0048482 0 0)
(0.202615 0.0185844 0 0.00207533 0 0)
(0.129828 0.00141549 0 6.15843e-05 0 0)
(0.111725 -0.00171774 0 4.4894e-05 0 0)
(0.115523 0.000219401 0 2.04538e-06 0 0)
(0.114825 0.00097634 0 1.42448e-05 0 0)
(0.110879 0.000482664 0 4.56193e-06 0 0)
(0.109543 9.71871e-05 0 6.34102e-07 0 0)
(0.107213 2.54131e-05 0 1.49479e-06 0 0)
(0.110726 0.00158542 0 6.00102e-05 0 0)
(0.0996822 -0.00185762 0 0.000120262 0 0)
(0.112115 0.0104887 0 0.0016944 0 0)
(0.0790358 -0.00768425 0 0.00184756 0 0)
(0.0951204 0.0257897 0 0.0118312 0 0)
(0.0399799 -0.00134915 0 0.0372412 0 0)
(0.038375 0.0251239 0 0.0456663 0 0)
(0.135952 0.174633 0 0.981391 0 0)
(0.836775 0.147907 0 0.0281373 0 0)
(0.0238598 0.0230515 0 0.0307898 0 0)
(0.108226 0.0224008 0 0.0060041 0 0)
(0.217158 0.0277628 0 0.00397099 0 0)
(0.185592 0.0178068 0 0.00202723 0 0)
(0.121071 0.00274191 0 0.000125147 0 0)
(0.108518 -0.000830642 0 1.12329e-05 0 0)
(0.11452 0.000526189 0 3.11269e-06 0 0)
(0.114478 0.00103653 0 1.62234e-05 0 0)
(0.110608 0.000683507 0 9.83748e-06 0 0)
(0.109932 -0.000245577 0 1.63424e-06 0 0)
(0.106379 0.00120018 0 2.55528e-05 0 0)
(0.113626 -0.00213303 0 8.2124e-05 0 0)
(0.0948935 0.00527403 0 0.000511618 0 0)
(0.123255 -0.00713291 0 0.000583486 0 0)
(0.0703591 0.0114123 0 0.00303103 0 0)
(0.104639 0.00149837 0 0.00621318 0 0)
(0.0515075 0.00798849 0 0.00328778 0 0)
(0.0512526 -0.00241126 0 0.150441 0 0)
(0.167401 0.268381 0 0.834748 0 0)
(0.839774 0.127691 0 0.0208582 0 0)
(0.0175854 0.0168774 0 0.0264159 0 0)
(0.0930186 0.0187491 0 0.00505929 0 0)
(0.196925 0.0240452 0 0.00324814 0 0)
(0.169304 0.0166181 0 0.00191601 0 0)
(0.112866 0.0035738 0 0.000194425 0 0)
(0.105426 -0.00015657 0 6.00755e-07 0 0)
(0.113454 0.0007334 0 6.19407e-06 0 0)
(0.113927 0.00113245 0 2.03421e-05 0 0)
(0.110474 0.000589252 0 6.39532e-06 0 0)
(0.109313 0.00028353 0 2.32072e-06 0 0)
(0.107905 1.55238e-05 0 3.29649e-06 0 0)
(0.10952 0.00191486 0 8.37934e-05 0 0)
(0.103191 -0.00173766 0 0.000132803 0 0)
(0.107134 0.00869993 0 0.00129795 0 0)
(0.0886968 -0.00381699 0 0.000566488 0 0)
(0.086793 0.0177671 0 0.00620164 0 0)
(0.0605738 0.0200832 0 0.0269594 0 0)
(0.0363413 0.0212894 0 0.0410133 0 0)
(0.132902 0.15057 0 0.517531 0 0)
(0.842655 0.109591 0 0.0153079 0 0)
(0.0133646 0.0118203 0 0.0221694 0 0)
(0.0810291 0.0157229 0 0.00429708 0 0)
(0.180053 0.0208011 0 0.00263693 0 0)
(0.155796 0.0152608 0 0.00174742 0 0)
(0.105944 0.00403899 0 0.000250944 0 0)
(0.102695 0.000342782 0 2.13535e-06 0 0)
(0.112458 0.000888753 0 9.93514e-06 0 0)
(0.113509 0.00111722 0 1.97243e-05 0 0)
(0.110045 0.000744346 0 1.10886e-05 0 0)
(0.109741 -4.04708e-05 0 2.95047e-07 0 0)
(0.106729 0.0011199 0 2.07536e-05 0 0)
(0.112708 -0.000803968 0 1.71118e-05 0 0)
(0.0979962 0.00394275 0 0.000261561 0 0)
(0.116733 -0.000377783 0 1.4327e-05 0 0)
(0.0805122 0.00604936 0 0.000701724 0 0)
(0.0971501 0.0163808 0 0.0070119 0 0)
(0.0650962 0.00609906 0 0.00188026 0 0)
(0.0433804 0.0373952 0 0.0992205 0 0)
(0.188309 0.271916 0 0.616108 0 0)
(0.845227 0.0934563 0 0.0111145 0 0)
(0.0106839 0.00779779 0 0.0181893 0 0)
(0.071658 0.0131358 0 0.00362629 0 0)
(0.165962 0.0179288 0 0.00211234 0 0)
(0.144575 0.0138079 0 0.00153891 0 0)
(0.100088 0.00421694 0 0.000284669 0 0)
(0.100272 0.00070123 0 9.02224e-06 0 0)
(0.111561 0.000969071 0 1.25688e-05 0 0)
(0.113066 0.0011349 0 2.09303e-05 0 0)
(0.109872 0.000663865 0 8.00562e-06 0 0)
(0.109439 0.000317222 0 2.25307e-06 0 0)
(0.107334 0.000277391 0 2.7618e-06 0 0)
(0.111429 0.00149487 0 4.53354e-05 0 0)
(0.100685 -6.9092e-06 0 3.88925e-05 0 0)
(0.11388 0.00667827 0 0.000714693 0 0)
(0.0845654 0.0023326 0 9.9351e-05 0 0)
(0.0974116 0.0150556 0 0.00392741 0 0)
(0.0661239 0.0253391 0 0.0190185 0 0)
(0.0561724 0.0435789 0 0.0674593 0 0)
(0.171927 0.207439 0 0.340598 0 0)
(0.847486 0.0790816 0 0.00796148 0 0)
(0.00913721 0.00470488 0 0.014545 0 0)
(0.0644187 0.0108906 0 0.0030085 0 0)
(0.154186 0.0153662 0 0.0016629 0 0)
(0.135249 0.0123095 0 0.00130777 0 0)
(0.095142 0.0041775 0 0.000293512 0 0)
(0.098139 0.000923072 0 1.61627e-05 0 0)
(0.110742 0.00100455 0 1.42138e-05 0 0)
(0.112693 0.00108323 0 1.90393e-05 0 0)
(0.109622 0.00070999 0 9.42355e-06 0 0)
(0.109468 0.000194757 0 5.3083e-07 0 0)
(0.107278 0.000832191 0 9.28159e-06 0 0)
(0.111715 0.000560385 0 4.39775e-06 0 0)
(0.101023 0.00211963 0 5.72041e-05 0 0)
(0.113105 0.00430635 0 0.000262744 0 0)
(0.0879618 0.00202683 0 6.65435e-05 0 0)
(0.0973082 0.0215774 0 0.00829954 0 0)
(0.0753693 0.0156769 0 0.00788972 0 0)
(0.0608725 0.0494524 0 0.0653681 0 0)
(0.18012 0.212228 0 0.389256 0 0)
(0.849442 0.0662574 0 0.00560111 0 0)
(0.00839373 0.0024254 0 0.0112865 0 0)
(0.0589046 0.00893122 0 0.00243122 0 0)
(0.144388 0.0130585 0 0.00127864 0 0)
(0.127533 0.0107976 0 0.00106877 0 0)
(0.0909931 0.00396894 0 0.000278589 0 0)
(0.0962795 0.00103761 0 2.11393e-05 0 0)
(0.110013 0.000989212 0 1.42657e-05 0 0)
(0.112351 0.00102994 0 1.7367e-05 0 0)
(0.109443 0.000661775 0 7.76289e-06 0 0)
(0.109382 0.00034165 0 2.02261e-06 0 0)
(0.107452 0.000537308 0 3.56824e-06 0 0)
(0.111656 0.00129101 0 2.71308e-05 0 0)
(0.101773 0.00120052 0 2.18182e-05 0 0)
(0.113399 0.00581123 0 0.00050478 0 0)
(0.0895703 0.00423479 0 0.000305043 0 0)
(0.0991412 0.0177053 0 0.00517766 0 0)
(0.0801536 0.0225147 0 0.0122379 0 0)
(0.0723258 0.0576252 0 0.0680402 0 0)
(0.211873 0.220239 0 0.280253 0 0)
(0.851109 0.0547838 0 0.00384349 0 0)
(0.0081884 0.000838213 0 0.0084389 0 0)
(0.0547689 0.00721922 0 0.0018934 0 0)
(0.136304 0.0109571 0 0.000951844 0 0)
(0.1212 0.00929197 0 0.000834573 0 0)
(0.0875468 0.00363335 0 0.000244752 0 0)
(0.0946812 0.00106289 0 2.28505e-05 0 0)
(0.109371 0.000938588 0 1.31893e-05 0 0)
(0.112055 0.000946168 0 1.46307e-05 0 0)
(0.109281 0.000635617 0 7.03578e-06 0 0)
(0.109329 0.000343171 0 1.72676e-06 0 0)
(0.107615 0.000628038 0 4.36106e-06 0 0)
(0.111558 0.00128304 0 2.33291e-05 0 0)
(0.102672 0.00131122 0 1.97596e-05 0 0)
(0.112848 0.00596895 0 0.000503555 0 0)
(0.0923564 0.00298165 0 0.00013917 0 0)
(0.1004 0.0201221 0 0.00652349 0 0)
(0.0861962 0.0237088 0 0.0122242 0 0)
(0.0858063 0.0613305 0 0.0593363 0 0)
(0.198577 0.193405 0 0.242195 0 0)
(0.852502 0.0444629 0 0.00254384 0 0)
(0.00831425 -0.000175488 0 0.00601176 0 0)
(0.0517203 0.00572298 0 0.00140124 0 0)
(0.129722 0.00902091 0 0.000677122 0 0)
(0.116067 0.00780521 0 0.000616258 0 0)
(0.0847257 0.00320244 0 0.000198337 0 0)
(0.0933328 0.00101592 0 2.14014e-05 0 0)
(0.108819 0.000855162 0 1.11502e-05 0 0)
(0.111803 0.000847442 0 1.16972e-05 0 0)
(0.10915 0.000586126 0 5.75627e-06 0 0)
(0.109285 0.000385786 0 2.19294e-06 0 0)
(0.107784 0.000604061 0 4.05267e-06 0 0)
(0.11152 0.0014419 0 2.96256e-05 0 0)
(0.103481 0.00133932 0 2.10748e-05 0 0)
(0.112656 0.00615135 0 0.000532142 0 0)
(0.0947357 0.00367913 0 0.00021766 0 0)
(0.102099 0.0199881 0 0.00616779 0 0)
(0.0922584 0.0249347 0 0.0121163 0 0)
(0.094838 0.0636664 0 0.0551116 0 0)
(0.214187 0.185617 0 0.196089 0 0)
(0.853636 0.0351027 0 0.00159393 0 0)
(0.00861389 -0.000726797 0 0.00400438 0 0)
(0.0495192 0.00441409 0 0.000965423 0 0)
(0.124472 0.00721623 0 0.000451282 0 0)
(0.111989 0.00634214 0 0.000422563 0 0)
(0.0824656 0.00270145 0 0.00014629 0 0)
(0.0922245 0.000910715 0 1.75315e-05 0 0)
(0.108358 0.000745671 0 8.57157e-06 0 0)
(0.111594 0.000733001 0 8.66802e-06 0 0)
(0.109049 0.000529036 0 4.49158e-06 0 0)
(0.10925 0.000407688 0 2.36589e-06 0 0)
(0.107964 0.000586933 0 3.81033e-06 0 0)
(0.111479 0.00154552 0 3.34524e-05 0 0)
(0.104296 0.00129906 0 1.98128e-05 0 0)
(0.112521 0.00628149 0 0.000548951 0 0)
(0.0970856 0.00394838 0 0.000253805 0 0)
(0.103907 0.0200076 0 0.00595233 0 0)
(0.097658 0.0260374 0 0.011843 0 0)
(0.106605 0.0654535 0 0.0497331 0 0)
(0.226312 0.178125 0 0.163335 0 0)
(0.854524 0.0265176 0 0.000914339 0 0)
(0.00897103 -0.000917412 0 0.00241157 0 0)
(0.0479746 0.00326263 0 0.000597971 0 0)
(0.120421 0.00551271 0 0.000272126 0 0)
(0.108853 0.00490287 0 0.000260239 0 0)
(0.0807161 0.00214971 0 9.53136e-05 0 0)
(0.0913483 0.000760113 0 1.23612e-05 0 0)
(0.10799 0.000615229 0 5.85199e-06 0 0)
(0.11143 0.000606161 0 5.82295e-06 0 0)
(0.108976 0.000464084 0 3.27243e-06 0 0)
(0.109228 0.00041924 0 2.42461e-06 0 0)
(0.108147 0.000576194 0 3.67171e-06 0 0)
(0.111454 0.00160854 0 3.58074e-05 0 0)
(0.105084 0.00129833 0 1.97081e-05 0 0)
(0.112474 0.00630125 0 0.000548468 0 0)
(0.0993356 0.00421605 0 0.000287487 0 0)
(0.10582 0.0198342 0 0.00561856 0 0)
(0.103309 0.0271207 0 0.0116514 0 0)
(0.117169 0.0667322 0 0.04608 0 0)
(0.229805 0.166528 0 0.141869 0 0)
(0.85518 0.0185274 0 0.000448352 0 0)
(0.00930265 -0.00083904 0 0.00122578 0 0)
(0.0469392 0.00223741 0 0.000310627 0 0)
(0.117467 0.00388479 0 0.000138509 0 0)
(0.106572 0.0034851 0 0.000134447 0 0)
(0.0794374 0.00156263 0 5.13821e-05 0 0)
(0.0906977 0.000575445 0 7.09949e-06 0 0)
(0.107715 0.00046874 0 3.36968e-06 0 0)
(0.11131 0.0004693 0 3.38206e-06 0 0)
(0.108932 0.000391955 0 2.17102e-06 0 0)
(0.109219 0.000423354 0 2.40266e-06 0 0)
(0.108331 0.000561365 0 3.49237e-06 0 0)
(0.111448 0.00164758 0 3.72369e-05 0 0)
(0.105837 0.00130346 0 1.9758e-05 0 0)
(0.112511 0.00623788 0 0.00053384 0 0)
(0.101483 0.00448533 0 0.00032078 0 0)
(0.107902 0.0196339 0 0.00531238 0 0)
(0.108622 0.027905 0 0.011301 0 0)
(0.126583 0.0659365 0 0.0406679 0 0)
(0.236351 0.150191 0 0.107149 0 0)
(0.855611 0.0109584 0 0.000157358 0 0)
(0.00955226 -0.000575396 0 0.000440111 0 0)
(0.0463063 0.00130383 0 0.000113131 0 0)
(0.115537 0.00230825 0 4.97005e-05 0 0)
(0.105085 0.00208347 0 4.87185e-05 0 0)
(0.0786014 0.000952306 0 1.92487e-05 0 0)
(0.090268 0.000367017 0 2.83677e-06 0 0)
(0.107534 0.000311158 0 1.44059e-06 0 0)
(0.111235 0.000324974 0 1.52383e-06 0 0)
(0.108917 0.000315068 0 1.27376e-06 0 0)
(0.109223 0.000419017 0 2.28655e-06 0 0)
(0.108515 0.00054578 0 3.3126e-06 0 0)
(0.111456 0.0016603 0 3.75492e-05 0 0)
(0.106553 0.0013065 0 1.97958e-05 0 0)
(0.112628 0.00611489 0 0.000509721 0 0)
(0.103529 0.00475925 0 0.000355356 0 0)
(0.110033 0.019233 0 0.00491238 0 0)
(0.113652 0.0282469 0 0.0106584 0 0)
(0.135916 0.0650796 0 0.0363493 0 0)
(0.244102 0.145334 0 0.0973388 0 0)
(0.855825 0.00363958 0 1.73797e-05 0 0)
(0.00968528 -0.000203055 0 4.87884e-05 0 0)
(0.0460068 0.000426608 0 1.26163e-05 0 0)
(0.114584 0.000762264 0 5.45782e-06 0 0)
(0.104353 0.000692359 0 5.38612e-06 0 0)
(0.0781893 0.000329021 0 2.24187e-06 0 0)
(0.090056 0.000144713 0 3.95909e-07 0 0)
(0.107447 0.000146726 0 2.88342e-07 0 0)
(0.111206 0.000175923 0 3.84484e-07 0 0)
(0.108929 0.000234708 0 6.29252e-07 0 0)
(0.109241 0.000407433 0 2.09946e-06 0 0)
(0.108696 0.000528826 0 3.12356e-06 0 0)
(0.111479 0.00164854 0 3.67969e-05 0 0)
(0.107229 0.00131048 0 1.99249e-05 0 0)
(0.112814 0.00594024 0 0.000478213 0 0)
(0.105461 0.00498189 0 0.000381037 0 0)
(0.112228 0.0187332 0 0.00449715 0 0)
(0.118553 0.0285292 0 0.0100914 0 0)
(0.14436 0.0638289 0 0.0325117 0 0)
(0.246691 0.130843 0 0.0764988 0 0)
(0.855824 -0.00359575 0 1.69895e-05 0 0)
(0.00968491 0.000204778 0 4.891e-05 0 0)
(0.0460062 -0.000432101 0 1.27148e-05 0 0)
(0.114584 -0.000774088 0 5.65206e-06 0 0)
(0.104355 -0.000695716 0 5.54585e-06 0 0)
(0.078192 -0.000298874 0 2.05457e-06 0 0)
(0.09006 -8.24098e-05 0 2.16182e-07 0 0)
(0.107454 -2.04474e-05 0 3.49979e-08 0 0)
(0.111221 2.43878e-05 0 3.82856e-08 0 0)
(0.10897 0.00015256 0 2.69067e-07 0 0)
(0.109272 0.000389472 0 1.86379e-06 0 0)
(0.108872 0.000509994 0 2.92114e-06 0 0)
(0.111515 0.00161626 0 3.52048e-05 0 0)
(0.107864 0.00131123 0 2.00093e-05 0 0)
(0.11306 0.0057174 0 0.000440335 0 0)
(0.10729 0.00517198 0 0.000401457 0 0)
(0.114453 0.0181441 0 0.0040758 0 0)
(0.123149 0.028486 0 0.00939149 0 0)
(0.152026 0.0615545 0 0.0283574 0 0)
(0.252202 0.122653 0 0.0650031 0 0)
(0.855609 -0.0109146 0 0.000156179 0 0)
(0.00955146 0.000577074 0 0.000440515 0 0)
(0.0463049 -0.00130926 0 0.000113418 0 0)
(0.115538 -0.00232005 0 5.02756e-05 0 0)
(0.105091 -0.00208714 0 4.92037e-05 0 0)
(0.0786095 -0.000922322 0 1.8695e-05 0 0)
(0.0902801 -0.000305319 0 2.31171e-06 0 0)
(0.107556 -0.000186134 0 6.9464e-07 0 0)
(0.11128 -0.000127566 0 5.0864e-07 0 0)
(0.109038 6.98582e-05 0 2.02142e-07 0 0)
(0.109316 0.000366216 0 1.6026e-06 0 0)
(0.109045 0.00048922 0 2.70598e-06 0 0)
(0.111564 0.00156528 0 3.28961e-05 0 0)
(0.108457 0.00130577 0 1.99701e-05 0 0)
(0.113357 0.00545841 0 0.000399012 0 0)
(0.10901 0.00531399 0 0.000413963 0 0)
(0.116673 0.0174466 0 0.00364401 0 0)
(0.127531 0.0282249 0 0.00865156 0 0)
(0.159196 0.0593556 0 0.0249379 0 0)
(0.255578 0.113292 0 0.0541605 0 0)
(0.855174 -0.0184843 0 0.000446365 0 0)
(0.00930115 0.000840339 0 0.00122641 0 0)
(0.0469367 -0.00224313 0 0.000311084 0 0)
(0.117469 -0.00389716 0 0.000139499 0 0)
(0.106582 -0.00348933 0 0.000135282 0 0)
(0.0794509 -0.00153297 0 5.04942e-05 0 0)
(0.0907176 -0.00051464 0 6.26925e-06 0 0)
(0.107752 -0.000345656 0 2.16759e-06 0 0)
(0.111385 -0.000277124 0 1.76181e-06 0 0)
(0.109133 -1.14605e-05 0 4.16835e-07 0 0)
(0.109372 0.000338693 0 1.33778e-06 0 0)
(0.10921 0.000466323 0 2.47853e-06 0 0)
(0.111621 0.00149805 0 3.00495e-05 0 0)
(0.109009 0.00129256 0 1.9747e-05 0 0)
(0.113694 0.00516708 0 0.000355518 0 0)
(0.110624 0.00540277 0 0.00041796 0 0)
(0.118876 0.0166651 0 0.00321903 0 0)
(0.131668 0.0277753 0 0.00790126 0 0)
(0.165629 0.0566256 0 0.0216024 0 0)
(0.259168 0.104441 0 0.0448083 0 0)
(0.854517 -0.026475 0 0.000911525 0 0)
(0.00896922 0.000918376 0 0.00241257 0 0)
(0.0479714 -0.00326834 0 0.000598589 0 0)
(0.120423 -0.00552541 0 0.000273523 0 0)
(0.108868 -0.00490768 0 0.000261433 0 0)
(0.0807349 -0.00212025 0 9.41112e-05 0 0)
(0.0913762 -0.000700832 0 1.12904e-05 0 0)
(0.108041 -0.000494837 0 4.25204e-06 0 0)
(0.111533 -0.000421949 0 3.70705e-06 0 0)
(0.109253 -9.01523e-05 0 8.79908e-07 0 0)
(0.109441 0.000308084 0 1.08714e-06 0 0)
(0.109369 0.000441163 0 2.24063e-06 0 0)
(0.111687 0.00141706 0 2.68481e-05 0 0)
(0.109518 0.00126952 0 1.92712e-05 0 0)
(0.114063 0.00484898 0 0.000311383 0 0)
(0.112132 0.00543641 0 0.000413603 0 0)
(0.121038 0.0157991 0 0.00280431 0 0)
(0.135564 0.0271217 0 0.00713391 0 0)
(0.171522 0.0537114 0 0.0185968 0 0)
(0.262443 0.0964662 0 0.0373512 0 0)
(0.853626 -0.0350608 0 0.00159021 0 0)
(0.00861163 0.000727009 0 0.00400562 0 0)
(0.0495153 -0.00442015 0 0.000966165 0 0)
(0.124475 -0.00722976 0 0.000453135 0 0)
(0.112008 -0.00634803 0 0.000424183 0 0)
(0.0824897 -0.00267254 0 0.000144852 0 0)
(0.0922597 -0.000853425 0 1.63089e-05 0 0)
(0.108422 -0.000628756 0 6.65241e-06 0 0)
(0.111726 -0.000559268 0 6.19646e-06 0 0)
(0.1094 -0.000164366 0 1.53773e-06 0 0)
(0.109521 0.000275424 0 8.63775e-07 0 0)
(0.109519 0.000413714 0 1.9954e-06 0 0)
(0.111759 0.00132438 0 2.34517e-05 0 0)
(0.109986 0.00123525 0 1.84992e-05 0 0)
(0.114454 0.0045085 0 0.000267831 0 0)
(0.113532 0.00541213 0 0.000401015 0 0)
(0.123144 0.0148542 0 0.0024055 0 0)
(0.139225 0.0263044 0 0.00637845 0 0)
(0.176842 0.0505773 0 0.0158499 0 0)
(0.265493 0.0886845 0 0.0308492 0 0)
(0.852491 -0.0444222 0 0.00253922 0 0)
(0.00831203 0.000175033 0 0.00601352 0 0)
(0.0517161 -0.0057291 0 0.00140209 0 0)
(0.129726 -0.00903526 0 0.000679446 0 0)
(0.11609 -0.00781219 0 0.000618313 0 0)
(0.0847551 -0.00317387 0 0.000196697 0 0)
(0.0933756 -0.000961004 0 2.01169e-05 0 0)
(0.108895 -0.000742698 0 9.01259e-06 0 0)
(0.111963 -0.000686441 0 9.03351e-06 0 0)
(0.109571 -0.000232776 0 2.32259e-06 0 0)
(0.109611 0.000241903 0 6.75614e-07 0 0)
(0.109661 0.000383962 0 1.74664e-06 0 0)
(0.111835 0.00122212 0 2.00086e-05 0 0)
(0.110411 0.00118858 0 1.74081e-05 0 0)
(0.114862 0.00414952 0 0.000225877 0 0)
(0.114824 0.0053292 0 0.000380866 0 0)
(0.125181 0.013836 0 0.00202742 0 0)
(0.142648 0.0253325 0 0.00564174 0 0)
(0.181647 0.0472535 0 0.0133477 0 0)
(0.268459 0.0814077 0 0.0254317 0 0)
(0.851095 -0.0547445 0 0.00383791 0 0)
(0.00818625 -0.000839861 0 0.00844078 0 0)
(0.0547646 -0.00722569 0 0.00189415 0 0)
(0.136308 -0.0109728 0 0.000954701 0 0)
(0.121228 -0.00930089 0 0.000837196 0 0)
(0.0875812 -0.00360561 0 0.000243037 0 0)
(0.0947307 -0.00101104 0 2.16185e-05 0 0)
(0.109458 -0.000831371 0 1.09434e-05 0 0)
(0.112242 -0.000800582 0 1.19791e-05 0 0)
(0.109765 -0.000293643 0 3.15233e-06 0 0)
(0.10971 0.000208474 0 5.24795e-07 0 0)
(0.109794 0.000351964 0 1.49898e-06 0 0)
(0.111913 0.00111201 0 1.66429e-05 0 0)
(0.110796 0.00112856 0 1.59955e-05 0 0)
(0.115277 0.00377572 0 0.000186375 0 0)
(0.116006 0.0051874 0 0.000354016 0 0)
(0.12714 0.0127488 0 0.00167387 0 0)
(0.145834 0.0242258 0 0.00493508 0 0)
(0.185965 0.0437675 0 0.0110838 0 0)
(0.271361 0.0744731 0 0.0208468 0 0)
(0.849427 -0.0662199 0 0.0055946 0 0)
(0.0083923 -0.00242823 0 0.011289 0 0)
(0.0589005 -0.00893761 0 0.00243188 0 0)
(0.144392 -0.0130754 0 0.00128205 0 0)
(0.127566 -0.0108078 0 0.00107185 0 0)
(0.0910327 -0.00394187 0 0.000276844 0 0)
(0.0963358 -0.000988925 0 2.00413e-05 0 0)
(0.110109 -0.000888977 0 1.20672e-05 0 0)
(0.112565 -0.000898541 0 1.47576e-05 0 0)
(0.109982 -0.000345525 0 3.93967e-06 0 0)
(0.109817 0.000176294 0 4.09562e-07 0 0)
(0.109916 0.000317826 0 1.25754e-06 0 0)
(0.111992 0.00099589 0 1.34616e-05 0 0)
(0.111138 0.00105456 0 1.42884e-05 0 0)
(0.115693 0.00339072 0 0.000150014 0 0)
(0.117076 0.00498683 0 0.000321519 0 0)
(0.129011 0.0115983 0 0.00134838 0 0)
(0.14878 0.0229997 0 0.00426617 0 0)
(0.189831 0.0401209 0 0.00904057 0 0)
(0.274278 0.0678725 0 0.0169932 0 0)
(0.847467 -0.0790455 0 0.00795394 0 0)
(0.0091369 -0.0047095 0 0.0145479 0 0)
(0.0644156 -0.0108973 0 0.00300908 0 0)
(0.15419 -0.0153851 0 0.00166702 0 0)
(0.135287 -0.0123217 0 0.00131145 0 0)
(0.0951864 -0.00415096 0 0.000291816 0 0)
(0.0982009 -0.000878507 0 1.53239e-05 0 0)
(0.110848 -0.0009094 0 1.20869e-05 0 0)
(0.112929 -0.000977093 0 1.70811e-05 0 0)
(0.110221 -0.000386734 0 4.59388e-06 0 0)
(0.109931 0.000146299 0 3.24058e-07 0 0)
(0.110026 0.00028168 0 1.02779e-06 0 0)
(0.112069 0.00087523 0 1.05463e-05 0 0)
(0.11144 0.000965992 0 1.23338e-05 0 0)
(0.116106 0.00299813 0 0.000117331 0 0)
(0.118032 0.00472785 0 0.000284574 0 0)
(0.130791 0.0103908 0 0.00105407 0 0)
(0.151482 0.0216677 0 0.00364053 0 0)
(0.193276 0.0363192 0 0.00721034 0 0)
(0.277277 0.0615718 0 0.0137746 0 0)
(0.845208 -0.0934225 0 0.0111061 0 0)
(0.0106856 -0.00780425 0 0.0181929 0 0)
(0.0716562 -0.0131421 0 0.00362654 0 0)
(0.165967 -0.0179492 0 0.00211705 0 0)
(0.144618 -0.0138227 0 0.00154325 0 0)
(0.100138 -0.00419072 0 0.000283078 0 0)
(0.10034 -0.000660342 0 8.44473e-06 0 0)
(0.111671 -0.000886484 0 1.08716e-05 0 0)
(0.113334 -0.00103345 0 1.86908e-05 0 0)
(0.11048 -0.000416158 0 5.04034e-06 0 0)
(0.11005 0.000119338 0 2.60522e-07 0 0)
(0.110126 0.000243724 0 8.15247e-07 0 0)
(0.112143 0.000751609 0 7.96157e-06 0 0)
(0.1117 0.000862534 0 1.02093e-05 0 0)
(0.116508 0.00260179 0 8.87174e-05 0 0)
(0.118869 0.0044105 0 0.000244445 0 0)
(0.132476 0.00913469 0 0.000793857 0 0)
(0.15393 0.0202379 0 0.00306097 0 0)
(0.196331 0.0323567 0 0.00558479 0 0)
(0.280413 0.0555735 0 0.0111298 0 0)
(0.842633 -0.109559 0 0.0152987 0 0)
(0.0133693 -0.0118291 0 0.0221735 0 0)
(0.0810296 -0.015729 0 0.00429681 0 0)
(0.180058 -0.0208236 0 0.00264237 0 0)
(0.155844 -0.0152784 0 0.00175236 0 0)
(0.105999 -0.00401416 0 0.000249673 0 0)
(0.102767 -0.000306625 0 1.93464e-06 0 0)
(0.112577 -0.000807974 0 8.40366e-06 0 0)
(0.113779 -0.0010621 0 1.92615e-05 0 0)
(0.110758 -0.000431612 0 5.19656e-06 0 0)
(0.110173 9.63998e-05 0 2.11081e-07 0 0)
(0.110213 0.000204125 0 6.25289e-07 0 0)
(0.112212 0.000626317 0 5.74775e-06 0 0)
(0.11192 0.000743864 0 8.01328e-06 0 0)
(0.116896 0.00220563 0 6.4406e-05 0 0)
(0.119585 0.00403434 0 0.000202474 0 0)
(0.134066 0.00784116 0 0.000570295 0 0)
(0.156111 0.0187148 0 0.00252892 0 0)
(0.199033 0.0282043 0 0.00415388 0 0)
(0.283743 0.049942 0 0.00902695 0 0)
(0.839752 -0.127662 0 0.0208485 0 0)
(0.0175941 -0.0168887 0 0.0264209 0 0)
(0.0930215 -0.0187543 0 0.00505825 0 0)
(0.196929 -0.0240709 0 0.00325457 0 0)
(0.169359 -0.016638 0 0.00192136 0 0)
(0.112925 -0.00355191 0 0.000193684 0 0)
(0.105505 0.000191072 0 7.23885e-07 0 0)
(0.113564 -0.000671014 0 5.33067e-06 0 0)
(0.114263 -0.00106098 0 1.86822e-05 0 0)
(0.111052 -0.000432391 0 5.03344e-06 0 0)
(0.110298 7.82048e-05 0 1.69545e-07 0 0)
(0.110287 0.000163079 0 4.63082e-07 0 0)
(0.112275 0.000500315 0 3.92631e-06 0 0)
(0.1121 0.00060959 0 5.86786e-06 0 0)
(0.117265 0.00181359 0 4.44605e-05 0 0)
(0.120175 0.0035966 0 0.000159919 0 0)
(0.135558 0.00652188 0 0.000384922 0 0)
(0.158002 0.0171059 0 0.00204694 0 0)
(0.201426 0.0238055 0 0.00291042 0 0)
(0.287292 0.0446561 0 0.0074045 0 0)
(0.83675 -0.147881 0 0.0281273 0 0)
(0.0238739 -0.023066 0 0.0307963 0 0)
(0.108233 -0.0224049 0 0.00600201 0 0)
(0.217161 -0.0277902 0 0.00397801 0 0)
(0.185654 -0.0178301 0 0.00203312 0 0)
(0.121136 -0.00272035 0 0.000124681 0 0)
(0.108599 0.000858426 0 1.16192e-05 0 0)
(0.114642 -0.000466443 0 2.63811e-06 0 0)
(0.114786 -0.0010266 0 1.68992e-05 0 0)
(0.111362 -0.000417129 0 4.53867e-06 0 0)
(0.110424 6.50123e-05 0 1.32778e-07 0 0)
(0.110347 0.000120611 0 3.32867e-07 0 0)
(0.112328 0.000374324 0 2.50197e-06 0 0)
(0.112237 0.00045786 0 3.90358e-06 0 0)
(0.117606 0.0014282 0 2.87676e-05 0 0)
(0.120632 0.00309084 0 0.000118147 0 0)
(0.136941 0.00518193 0 0.000237563 0 0)
(0.159561 0.0153836 0 0.00160867 0 0)
(0.203482 0.0191833 0 0.00188111 0 0)
(0.291026 0.0393186 0 0.00612955 0 0)
(0.835124 -0.170363 0 0.0375107 0 0)
(0.0329129 -0.0303896 0 0.0349619 0 0)
(0.126937 -0.0268658 0 0.0072604 0 0)
(0.23917 -0.0319012 0 0.00485613 0 0)
(0.202681 -0.0186111 0 0.00208162 0 0)
(0.129896 -0.00139418 0 6.15477e-05 0 0)
(0.11181 0.00174225 0 4.55849e-05 0 0)
(0.115636 -0.000177951 0 2.04837e-06 0 0)
(0.115175 -0.000952458 0 1.39619e-05 0 0)
(0.111531 -0.000383933 0 3.7475e-06 0 0)
(0.110404 5.8336e-05 0 1.04213e-07 0 0)
(0.110248 7.7173e-05 0 2.41626e-07 0 0)
(0.112216 0.000248814 0 1.4864e-06 0 0)
(0.112171 0.000288321 0 2.34143e-06 0 0)
(0.1177 0.00104865 0 1.71063e-05 0 0)
(0.120756 0.00251182 0 7.96345e-05 0 0)
(0.13772 0.00384048 0 0.000129921 0 0)
(0.160394 0.0134788 0 0.00120754 0 0)
(0.204021 0.0142027 0 0.00106912 0 0)
(0.292883 0.0338169 0 0.0052108 0 0)
(0.841151 -0.196324 0 0.0495795 0 0)
(0.044834 -0.0385519 0 0.0389285 0 0)
(0.143461 -0.0312142 0 0.00902167 0 0)
(0.240144 -0.0340278 0 0.00591745 0 0)
(0.192295 -0.0170362 0 0.00207734 0 0)
(0.122683 0.000484953 0 4.18367e-05 0 0)
(0.106226 0.00259035 0 0.000112275 0 0)
(0.109549 0.000160272 0 6.32415e-06 0 0)
(0.108884 -0.000777702 0 9.88185e-06 0 0)
(0.105474 -0.000305556 0 2.72866e-06 0 0)
(0.104403 5.67824e-05 0 9.75316e-08 0 0)
(0.104219 3.54429e-05 0 2.01367e-07 0 0)
(0.105968 0.000127024 0 9.33912e-07 0 0)
(0.105893 0.000112236 0 1.49387e-06 0 0)
(0.110722 0.000676346 0 1.01988e-05 0 0)
(0.113788 0.0018127 0 4.97342e-05 0 0)
(0.128248 0.00251515 0 6.51061e-05 0 0)
(0.150076 0.0111929 0 0.000899299 0 0)
(0.188063 0.0086199 0 0.000511206 0 0)
(0.266308 0.0273881 0 0.00463997 0 0)
(0.86757 -0.231089 0 0.0666551 0 0)
(0.0497041 -0.0422623 0 0.0435448 0 0)
(0.124728 -0.027464 0 0.0111833 0 0)
(0.149142 -0.0228783 0 0.00663758 0 0)
(0.0882744 -0.00663236 0 0.00188637 0 0)
(0.0573591 0.00165267 0 8.18402e-05 0 0)
(0.0590369 0.00116203 0 0.00016927 0 0)
(0.0626699 -3.72817e-05 0 1.11447e-05 0 0)
(0.0620696 -0.000264549 0 6.31804e-06 0 0)
(0.0608422 -5.19042e-05 0 1.75367e-06 0 0)
(0.0606709 2.37887e-05 0 1.1168e-07 0 0)
(0.0607245 -9.3794e-06 0 1.8592e-07 0 0)
(0.0612084 -8.76504e-06 0 6.84355e-07 0 0)
(0.0610022 -2.92554e-05 0 1.2304e-06 0 0)
(0.0624386 0.000155551 0 6.50393e-06 0 0)
(0.0632158 0.000597074 0 3.34347e-05 0 0)
(0.0683957 0.00102401 0 3.30256e-05 0 0)
(0.0777209 0.00594015 0 0.000680082 0 0)
(0.0984029 0.00355121 0 0.000287426 0 0)
(0.128571 0.0183044 0 0.00435824 0 0)
(0.888923 -0.27406 0 0.0918014 0 0)
(0.0261748 -0.0151858 0 0.0452753 0 0)
(0.0958016 0.00524387 0 0.0111173 0 0)
(0.0980044 0.0132149 0 0.0053235 0 0)
(0.132291 0.0117022 0 0.00120435 0 0)
(0.172671 -0.0014009 0 0.000101548 0 0)
(0.169252 -0.00446491 0 0.000142386 0 0)
(0.154618 -0.000854631 0 7.39516e-06 0 0)
(0.152432 0.000783473 0 4.86255e-06 0 0)
(0.156105 0.0003751 0 1.15023e-06 0 0)
(0.157191 -7.85634e-05 0 9.65038e-08 0 0)
(0.157428 -1.8278e-05 0 1.46592e-07 0 0)
(0.156213 -6.91169e-05 0 4.5117e-07 0 0)
(0.156021 -1.06231e-05 0 9.5904e-07 0 0)
(0.15506 -0.000408382 0 3.82897e-06 0 0)