/*--------------------------------*- C++ -*----------------------------------*\
| =========                 |                                                 |
| \\      /  F ield         | OpenFOAM: The Open Source CFD Toolbox           |
|  \\    /   O peration     | Version:  2.4.0                                 |
|   \\  /    A nd           | Web:      www.OpenFOAM.org                      |
|    \\/     M anipulation  |                                                 |
\*---------------------------------------------------------------------------*/
FoamFile
{
    version     2.0;
    format      ascii;
    class       volScalarField;
    location    "0.049";
    object      nuSgs;
}
// * * * * * * * * * * * * * * * * * * * * * * * * * * * * * * * * * * * * * //

dimensions      [0 2 -1 0 0 0 0];

internalField   nonuniform List<scalar> 
17600
(
0.00101282
0.000904624
0.000752631
0.000658819
0.000607671
0.000571149
0.000544705
0.000523218
0.000506803
0.000491873
0.00048426
0.000471691
0.000467223
0.000456182
0.000453478
0.000443062
0.000442836
0.00043119
0.000443948
0.000420482
0.000705425
0.000827929
0.000803438
0.000746614
0.000698888
0.000659046
0.000629768
0.000605389
0.000586687
0.000568537
0.000559624
0.000544029
0.000539013
0.000526399
0.000523002
0.000511311
0.000509561
0.000496622
0.000501811
0.000490552
0.000382127
0.000602251
0.000664413
0.000661363
0.000645335
0.000618404
0.000596716
0.000576621
0.000561777
0.000544578
0.00053717
0.00052238
0.000517992
0.000506605
0.000503486
0.000493249
0.000491115
0.000480732
0.000479126
0.000474485
0.000151433
0.000363394
0.000460885
0.000506756
0.000527248
0.000526907
0.000523239
0.000513639
0.000507182
0.000494369
0.00049004
0.000479386
0.000476332
0.000467764
0.000465459
0.000457954
0.000455972
0.000450048
0.000443342
0.000440954
5.36123e-05
0.000172745
0.000265473
0.000326065
0.000371005
0.000396869
0.000414143
0.000418883
0.000424814
0.000422268
0.000422354
0.000419014
0.000418472
0.000414853
0.000414048
0.000410481
0.000409324
0.000407108
0.000401476
0.000397527
1.74171e-05
7.00174e-05
0.000123882
0.000170687
0.000215141
0.000249654
0.000281708
0.000296986
0.000318293
0.000324573
0.000334317
0.000337625
0.000343421
0.000345183
0.000348168
0.000349172
0.000350049
0.000351263
0.000349633
0.000345921
5.57081e-06
2.64726e-05
4.89191e-05
7.15587e-05
0.000101779
0.000125008
0.000159545
0.00017399
0.000200527
0.000213729
0.000227783
0.000239874
0.000249379
0.000259563
0.000265617
0.000273452
0.000276607
0.000283118
0.000283716
0.000282849
2.32605e-06
9.77157e-06
1.80482e-05
2.63606e-05
3.95059e-05
5.12293e-05
7.25585e-05
8.3153e-05
0.000101928
0.000117528
0.000126228
0.000142555
0.000150743
0.000165938
0.000173317
0.000186323
0.000191807
0.000201894
0.000205924
0.000207785
1.73978e-06
3.98405e-06
7.09257e-06
9.58611e-06
1.37346e-05
1.83539e-05
2.7355e-05
3.26745e-05
4.14502e-05
5.24667e-05
5.76742e-05
6.82653e-05
7.40384e-05
8.56972e-05
9.21928e-05
0.000104383
0.000110771
0.000119814
0.000125336
0.000128381
1.63763e-06
2.34688e-06
3.6718e-06
4.2444e-06
5.31519e-06
6.69146e-06
9.79483e-06
1.1663e-05
1.47459e-05
1.9389e-05
2.17317e-05
2.6446e-05
2.93212e-05
3.52168e-05
3.91831e-05
4.66482e-05
5.13563e-05
5.74521e-05
6.14484e-05
6.3794e-05
1.59962e-06
1.98243e-06
2.80606e-06
2.92742e-06
3.16817e-06
3.43824e-06
4.34035e-06
4.87309e-06
5.89994e-06
7.11539e-06
7.79228e-06
9.20731e-06
1.0143e-05
1.21136e-05
1.37733e-05
1.69882e-05
1.91823e-05
2.24573e-05
2.37317e-05
2.51595e-05
1.57749e-06
1.87081e-06
2.49116e-06
2.6294e-06
2.73491e-06
2.77166e-06
2.96371e-06
3.11024e-06
3.45653e-06
3.82573e-06
3.97648e-06
4.25848e-06
4.4137e-06
4.77086e-06
5.24431e-06
6.21965e-06
7.25384e-06
8.09403e-06
8.30133e-06
8.77426e-06
1.5562e-06
1.80824e-06
2.28495e-06
2.48764e-06
2.55097e-06
2.56912e-06
2.62856e-06
2.69117e-06
2.86611e-06
3.075e-06
3.13699e-06
3.16167e-06
3.16813e-06
3.20265e-06
3.35657e-06
3.75852e-06
4.15955e-06
4.24643e-06
4.25565e-06
4.33649e-06
1.5421e-06
1.75478e-06
2.13685e-06
2.38237e-06
2.41755e-06
2.42167e-06
2.44263e-06
2.51021e-06
2.66503e-06
2.77545e-06
2.79331e-06
2.79361e-06
2.78457e-06
2.78909e-06
2.85109e-06
3.08919e-06
3.30339e-06
3.34975e-06
3.36129e-06
3.39208e-06
1.53014e-06
1.71521e-06
2.05646e-06
2.26878e-06
2.29095e-06
2.29224e-06
2.30976e-06
2.37928e-06
2.49468e-06
2.56413e-06
2.57431e-06
2.57344e-06
2.56262e-06
2.56166e-06
2.58228e-06
2.69773e-06
2.86802e-06
2.90796e-06
2.94412e-06
3.00562e-06
1.52175e-06
1.68713e-06
1.98769e-06
2.17233e-06
2.19757e-06
2.19852e-06
2.20908e-06
2.25231e-06
2.34605e-06
2.40343e-06
2.41673e-06
2.41814e-06
2.41043e-06
2.40269e-06
2.40695e-06
2.45305e-06
2.56174e-06
2.60357e-06
2.70919e-06
2.73424e-06
1.5152e-06
1.6669e-06
1.93651e-06
2.0873e-06
2.11519e-06
2.12271e-06
2.14354e-06
2.16867e-06
2.22506e-06
2.27039e-06
2.28583e-06
2.28995e-06
2.28633e-06
2.27801e-06
2.27886e-06
2.29779e-06
2.34899e-06
2.43286e-06
2.48783e-06
2.45259e-06
1.51089e-06
1.65647e-06
1.88966e-06
2.03432e-06
2.07422e-06
2.08168e-06
2.0858e-06
2.09308e-06
2.12699e-06
2.17546e-06
2.19612e-06
2.20237e-06
2.19963e-06
2.18573e-06
2.18392e-06
2.18887e-06
2.21464e-06
2.30397e-06
2.30059e-06
2.31314e-06
1.50816e-06
1.64648e-06
1.87059e-06
2.00365e-06
2.03668e-06
2.04299e-06
2.04596e-06
2.05058e-06
2.07648e-06
2.11798e-06
2.13741e-06
2.14244e-06
2.13949e-06
2.12442e-06
2.12091e-06
2.12166e-06
2.14268e-06
2.20094e-06
2.19375e-06
2.27387e-06
1.50685e-06
1.64763e-06
1.85124e-06
1.9843e-06
2.02539e-06
2.03393e-06
2.0329e-06
2.03159e-06
2.0412e-06
2.0812e-06
2.10714e-06
2.11568e-06
2.1137e-06
2.09886e-06
2.09044e-06
2.09077e-06
2.11192e-06
2.13848e-06
2.14578e-06
2.32191e-06
1.50696e-06
1.6456e-06
1.85416e-06
1.98699e-06
2.02474e-06
2.0322e-06
2.03155e-06
2.03064e-06
2.03973e-06
2.08018e-06
2.10727e-06
2.11671e-06
2.1152e-06
2.10146e-06
2.09365e-06
2.09343e-06
2.10806e-06
2.13268e-06
2.14425e-06
2.27638e-06
1.5084e-06
1.65429e-06
1.86292e-06
1.9953e-06
2.0413e-06
2.05476e-06
2.05505e-06
2.05354e-06
2.05977e-06
2.10019e-06
2.13378e-06
2.14971e-06
2.14931e-06
2.13973e-06
2.13304e-06
2.13059e-06
2.14536e-06
2.16792e-06
2.21e-06
2.2467e-06
1.51136e-06
1.66339e-06
1.88653e-06
2.02502e-06
2.07493e-06
2.09158e-06
2.09519e-06
2.09697e-06
2.1058e-06
2.15279e-06
2.19208e-06
2.2155e-06
2.21619e-06
2.21332e-06
2.20586e-06
2.20454e-06
2.23222e-06
2.24819e-06
2.27441e-06
2.43816e-06
1.51594e-06
1.68041e-06
1.92221e-06
2.06848e-06
2.12549e-06
2.15108e-06
2.15977e-06
2.16563e-06
2.17805e-06
2.23168e-06
2.28116e-06
2.31603e-06
2.32276e-06
2.32372e-06
2.31698e-06
2.32098e-06
2.35175e-06
2.36365e-06
2.39373e-06
2.53873e-06
1.52261e-06
1.69884e-06
1.96891e-06
2.14333e-06
2.20502e-06
2.23324e-06
2.24442e-06
2.25361e-06
2.27253e-06
2.34422e-06
2.40499e-06
2.45542e-06
2.4694e-06
2.47143e-06
2.4686e-06
2.48876e-06
2.49961e-06
2.52712e-06
2.64769e-06
2.75646e-06
1.5318e-06
1.72533e-06
2.02778e-06
2.24997e-06
2.31877e-06
2.34216e-06
2.34838e-06
2.35616e-06
2.37952e-06
2.49157e-06
2.58512e-06
2.65193e-06
2.66377e-06
2.66635e-06
2.67022e-06
2.69368e-06
2.71133e-06
2.83554e-06
2.88932e-06
2.98545e-06
1.54255e-06
1.76466e-06
2.09786e-06
2.38083e-06
2.4566e-06
2.46845e-06
2.46576e-06
2.46671e-06
2.49878e-06
2.69908e-06
2.86358e-06
2.93934e-06
2.94202e-06
2.94429e-06
2.95403e-06
2.97901e-06
3.06291e-06
3.26544e-06
3.29733e-06
3.42283e-06
1.55346e-06
1.80258e-06
2.22486e-06
2.50935e-06
2.59017e-06
2.59026e-06
2.59433e-06
2.60735e-06
2.69657e-06
3.07692e-06
3.31442e-06
3.41683e-06
3.42177e-06
3.43847e-06
3.48228e-06
3.63802e-06
3.96644e-06
4.47329e-06
4.88485e-06
5.91511e-06
1.57111e-06
1.85285e-06
2.45244e-06
2.62991e-06
2.72171e-06
2.74117e-06
2.86661e-06
3.01886e-06
3.36502e-06
4.05488e-06
4.3436e-06
4.7404e-06
4.88386e-06
5.23954e-06
5.67712e-06
6.87238e-06
7.95876e-06
1.01175e-05
1.18073e-05
1.55093e-05
1.59942e-06
1.9365e-06
2.74436e-06
2.89669e-06
3.11143e-06
3.3749e-06
4.26401e-06
4.88794e-06
5.99381e-06
7.64503e-06
8.45174e-06
1.01067e-05
1.10327e-05
1.31954e-05
1.4988e-05
1.90388e-05
2.18653e-05
2.76549e-05
3.15474e-05
4.07534e-05
1.62454e-06
2.26743e-06
3.5036e-06
4.23745e-06
5.16171e-06
6.60973e-06
9.92103e-06
1.19101e-05
1.49731e-05
2.02278e-05
2.27542e-05
2.78042e-05
3.06445e-05
3.70154e-05
4.12299e-05
5.0203e-05
5.54384e-05
6.63757e-05
7.28186e-05
9.05183e-05
1.74164e-06
3.91967e-06
6.888e-06
9.80606e-06
1.32084e-05
1.81892e-05
2.78442e-05
3.3163e-05
4.12928e-05
5.35752e-05
5.90216e-05
7.00218e-05
7.56612e-05
8.78992e-05
9.4566e-05
0.000108475
0.000115554
0.000130784
0.000138948
0.000160053
2.36248e-06
9.71604e-06
1.83544e-05
2.69409e-05
3.76934e-05
5.09907e-05
7.32343e-05
8.34632e-05
0.000101413
0.000119056
0.000127658
0.000144311
0.000152262
0.000168033
0.00017541
0.000190147
0.000197147
0.0002125
0.000219828
0.000238006
5.61963e-06
2.62936e-05
5.07308e-05
7.14552e-05
9.9376e-05
0.000126534
0.000158714
0.000173488
0.000200771
0.000215807
0.000227605
0.000242147
0.000250269
0.000261541
0.000267167
0.000276842
0.000281697
0.00029189
0.00029659
0.000307629
1.74776e-05
6.93188e-05
0.000126175
0.000168264
0.000214814
0.000249935
0.000281312
0.000297045
0.000318744
0.000325788
0.000334341
0.000339323
0.00034393
0.00034667
0.000349476
0.000351707
0.000354387
0.000357814
0.000360396
0.000363634
5.37645e-05
0.00017072
0.000267176
0.000324349
0.000371556
0.000396832
0.000414264
0.000418833
0.000425344
0.000422774
0.000422747
0.000419792
0.000419006
0.000415636
0.000414992
0.000412208
0.00041219
0.000410734
0.000410394
0.000408828
0.000151843
0.000362723
0.000461854
0.000505664
0.000527885
0.000526916
0.000523374
0.000513406
0.000507648
0.000494506
0.000490334
0.000479582
0.000476502
0.000468084
0.000465783
0.000458783
0.000457024
0.000450977
0.000448363
0.000443435
0.000383017
0.000601563
0.000664748
0.000661032
0.000646169
0.00061727
0.000597785
0.000575962
0.000562546
0.000543917
0.00053742
0.000521888
0.000517802
0.000506075
0.000502844
0.000492253
0.00048898
0.000478032
0.000473531
0.00046371
0.000705784
0.000827473
0.000803588
0.000746124
0.000700144
0.000657668
0.000631176
0.000604416
0.000587455
0.000567325
0.000560016
0.000542459
0.000538251
0.000524235
0.000520571
0.000506639
0.000502016
0.000486021
0.000479681
0.000462789
0.00101305
0.000904304
0.000752896
0.000658298
0.000608724
0.000569861
0.000545933
0.000522162
0.000507366
0.000490333
0.000484348
0.000469168
0.000465564
0.000451537
0.00044812
0.000432712
0.00042711
0.000407685
0.000398836
0.000374399
0.000184996
0.000163267
0.00015171
0.000148812
0.000144496
0.000142387
0.000138004
0.0001373
0.000134019
0.00013719
0.000140503
0.00014865
0.0001274
0.000100386
9.72269e-05
9.71068e-05
9.36629e-05
8.57407e-05
8.1159e-05
7.45707e-05
7.18265e-05
6.97136e-05
6.43149e-05
6.21063e-05
5.67242e-05
5.47212e-05
5.27886e-05
4.92346e-05
4.64543e-05
4.48655e-05
4.47037e-05
4.50051e-05
4.76201e-05
5.0587e-05
5.49146e-05
6.35037e-05
6.94383e-05
6.92649e-05
6.59168e-05
5.30228e-05
3.57144e-05
2.25381e-05
1.43168e-05
9.45315e-06
6.86858e-06
5.79127e-06
5.60293e-06
5.71594e-06
6.17607e-06
7.29354e-06
9.59607e-06
1.30923e-05
1.60012e-05
1.68907e-05
1.86286e-05
1.92191e-05
1.89381e-05
1.7773e-05
1.71664e-05
1.7292e-05
1.74654e-05
1.73022e-05
1.64621e-05
1.5293e-05
1.46657e-05
1.42442e-05
1.37615e-05
1.3234e-05
1.27896e-05
1.25087e-05
1.23582e-05
1.21849e-05
1.1686e-05
1.098e-05
1.04009e-05
1.00083e-05
9.78463e-06
9.65986e-06
9.59021e-06
9.54766e-06
9.51345e-06
9.49499e-06
9.49682e-06
9.51848e-06
9.54515e-06
9.55437e-06
9.55324e-06
9.53849e-06
9.47676e-06
9.21203e-06
8.63175e-06
7.9709e-06
7.24793e-06
6.48591e-06
5.71255e-06
4.95578e-06
4.23907e-06
3.57923e-06
2.98703e-06
2.46681e-06
2.0192e-06
1.63985e-06
1.32401e-06
1.06365e-06
8.51675e-07
6.819e-07
5.43311e-07
4.38661e-07
3.48031e-07
2.87083e-07
2.29317e-07
1.92782e-07
1.62994e-07
1.36245e-07
1.3168e-07
1.18883e-07
1.24791e-07
1.31117e-07
1.39706e-07
1.59233e-07
1.56276e-07
1.57731e-07
1.58003e-07
1.61642e-07
1.71713e-07
1.89654e-07
2.23641e-07
2.37174e-07
2.69164e-07
2.77597e-07
2.96646e-07
3.02771e-07
3.17057e-07
3.23881e-07
3.3876e-07
3.4815e-07
3.71375e-07
3.81531e-07
4.0684e-07
4.19825e-07
4.52222e-07
4.68012e-07
5.07997e-07
5.25057e-07
5.69449e-07
5.88509e-07
6.34204e-07
6.53904e-07
7.02992e-07
7.28089e-07
7.89942e-07
8.19106e-07
8.89947e-07
9.24576e-07
1.01174e-06
1.05358e-06
1.1601e-06
1.20525e-06
1.32527e-06
1.37295e-06
1.51614e-06
1.56325e-06
1.7242e-06
1.77014e-06
1.94959e-06
1.98388e-06
2.14531e-06
2.16581e-06
2.26134e-06
2.18055e-06
2.17693e-06
1.99159e-06
1.84838e-06
1.56665e-06
1.45203e-06
1.34403e-06
1.3754e-06
1.45613e-06
1.56763e-06
1.88828e-06
1.94334e-06
2.25139e-06
2.0987e-06
2.07132e-06
1.80607e-06
1.75986e-06
1.81009e-06
1.90421e-06
2.32556e-06
2.04803e-06
2.05767e-06
2.3323e-06
2.56939e-06
3.13257e-06
3.67203e-06
5.15561e-06
8.00479e-06
1.25772e-05
3.10873e-05
0.000129707
0.000232737
0.000202596
0.000181903
0.000170124
0.000158517
0.000152716
0.000143479
0.00014046
0.000135597
0.000135853
0.00013619
0.000142939
0.000148336
0.000129491
0.000100638
9.46913e-05
9.01528e-05
8.58527e-05
7.92882e-05
6.84167e-05
6.70916e-05
6.59146e-05
6.34677e-05
6.1336e-05
5.68199e-05
5.40707e-05
5.08188e-05
4.77728e-05
4.5992e-05
4.59134e-05
4.63038e-05
4.83195e-05
5.17209e-05
5.60269e-05
6.43066e-05
7.0782e-05
7.13697e-05
6.93475e-05
5.951e-05
4.01927e-05
2.52068e-05
1.59783e-05
1.05749e-05
7.45268e-06
5.991e-06
5.55368e-06
5.57022e-06
5.94669e-06
7.14225e-06
9.27173e-06
1.37659e-05
1.7513e-05
2.15254e-05
2.32036e-05
2.37752e-05
2.35463e-05
2.29079e-05
2.10901e-05
1.88733e-05
1.8124e-05
1.80953e-05
1.7991e-05
1.75298e-05
1.61643e-05
1.50727e-05
1.42919e-05
1.36525e-05
1.32023e-05
1.28986e-05
1.27116e-05
1.25792e-05
1.23496e-05
1.17287e-05
1.10169e-05
1.04596e-05
1.0089e-05
9.82545e-06
9.60884e-06
9.4474e-06
9.3734e-06
9.37113e-06
9.49321e-06
9.68989e-06
9.80863e-06
9.88678e-06
9.935e-06
9.95213e-06
9.93991e-06
9.80585e-06
9.304e-06
8.66946e-06
7.98093e-06
7.24285e-06
6.47609e-06
5.70514e-06
4.95406e-06
4.24347e-06
3.58905e-06
3.00059e-06
2.48246e-06
2.0354e-06
1.65548e-06
1.33859e-06
1.07653e-06
8.63399e-07
6.92299e-07
5.52728e-07
4.4934e-07
3.56419e-07
3.0199e-07
2.39348e-07
2.14356e-07
1.79065e-07
1.6663e-07
1.54706e-07
1.47666e-07
1.47069e-07
1.42466e-07
1.37869e-07
1.34005e-07
1.27892e-07
1.23557e-07
1.24035e-07
1.30133e-07
1.42957e-07
1.60127e-07
1.8555e-07
1.90297e-07
2.02068e-07
2.03556e-07
2.07536e-07
2.09676e-07
2.1428e-07
2.21187e-07
2.23977e-07
2.28429e-07
2.36073e-07
2.4041e-07
2.47537e-07
2.53576e-07
2.6e-07
2.68824e-07
2.82521e-07
2.89417e-07
3.03293e-07
3.11464e-07
3.29901e-07
3.40852e-07
3.63994e-07
3.77127e-07
4.04903e-07
4.21997e-07
4.60037e-07
4.83846e-07
5.25288e-07
5.76681e-07
6.23494e-07
7.10574e-07
7.76015e-07
8.99382e-07
9.82772e-07
1.1542e-06
1.24846e-06
1.46546e-06
1.56949e-06
1.8149e-06
1.93268e-06
2.20662e-06
2.26733e-06
2.53075e-06
2.5863e-06
2.83564e-06
2.82854e-06
2.86206e-06
2.66098e-06
2.50964e-06
2.08837e-06
1.84909e-06
1.72098e-06
1.76927e-06
1.94173e-06
2.07788e-06
2.54428e-06
2.37763e-06
2.451e-06
2.12403e-06
2.00343e-06
2.05181e-06
2.18503e-06
2.65233e-06
2.34066e-06
2.41076e-06
2.73952e-06
3.13804e-06
3.88889e-06
5.29698e-06
8.00314e-06
1.18826e-05
3.3657e-05
0.000109985
0.000236182
0.000210829
0.00018999
0.00017719
0.000162962
0.000155441
0.000145775
0.000140136
0.000136107
0.000133385
0.000134284
0.000134541
0.000142364
0.000143408
0.000130765
0.000102334
9.01859e-05
8.3982e-05
7.21713e-05
6.32658e-05
6.00501e-05
5.79244e-05
5.80767e-05
5.756e-05
5.61315e-05
5.35605e-05
5.01704e-05
4.84211e-05
4.8337e-05
4.88488e-05
5.03312e-05
5.42011e-05
5.85077e-05
6.66794e-05
7.29025e-05
7.33641e-05
7.18011e-05
6.47763e-05
4.37828e-05
2.76584e-05
1.76448e-05
1.17078e-05
8.19963e-06
6.31671e-06
5.62545e-06
5.51543e-06
5.7732e-06
6.85716e-06
9.26721e-06
1.30717e-05
1.95353e-05
2.42444e-05
2.90462e-05
3.08461e-05
3.05489e-05
2.93841e-05
2.77802e-05
2.51549e-05
2.17557e-05
1.94779e-05
1.87947e-05
1.8558e-05
1.817e-05
1.7156e-05
1.56285e-05
1.44437e-05
1.36607e-05
1.31992e-05
1.29776e-05
1.28551e-05
1.27304e-05
1.24432e-05
1.1808e-05
1.1124e-05
1.05367e-05
1.01064e-05
9.79681e-06
9.52511e-06
9.30119e-06
9.18488e-06
9.17713e-06
9.30909e-06
9.82102e-06
1.02549e-05
1.04659e-05
1.05315e-05
1.05361e-05
1.05041e-05
1.03027e-05
9.64491e-06
8.89622e-06
8.12206e-06
7.32717e-06
6.52487e-06
5.73355e-06
4.97205e-06
4.25706e-06
3.6011e-06
3.0125e-06
2.49455e-06
2.04758e-06
1.66722e-06
1.35e-06
1.08668e-06
8.73473e-07
7.00971e-07
5.6193e-07
4.58527e-07
3.65723e-07
3.14131e-07
2.5094e-07
2.3003e-07
1.95472e-07
1.85992e-07
1.76195e-07
1.70224e-07
1.71376e-07
1.67801e-07
1.63977e-07
1.68943e-07
1.7565e-07
1.96125e-07
2.17595e-07
2.73772e-07
2.85547e-07
3.11434e-07
3.17401e-07
3.15367e-07
3.20084e-07
3.29074e-07
3.33049e-07
3.30696e-07
3.38617e-07
3.40509e-07
3.48781e-07
3.50705e-07
3.58016e-07
3.62054e-07
3.7385e-07
3.76215e-07
3.86362e-07
3.90063e-07
3.99636e-07
4.05377e-07
4.17931e-07
4.25357e-07
4.42941e-07
4.54267e-07
4.62962e-07
4.79795e-07
4.87895e-07
5.03615e-07
5.12235e-07
5.31177e-07
5.39304e-07
5.61289e-07
5.70063e-07
5.91911e-07
6.01648e-07
6.26964e-07
6.45083e-07
6.84739e-07
7.19287e-07
7.94941e-07
8.5978e-07
1.0043e-06
1.13529e-06
1.31194e-06
1.68371e-06
1.89713e-06
2.30469e-06
2.50088e-06
2.92953e-06
3.00335e-06
3.33386e-06
3.32198e-06
3.40794e-06
3.13928e-06
2.89599e-06
2.3254e-06
2.14897e-06
2.17808e-06
2.30252e-06
2.73319e-06
2.66272e-06
2.86011e-06
2.49774e-06
2.31399e-06
2.46156e-06
2.5582e-06
3.0267e-06
2.71692e-06
2.80296e-06
3.24076e-06
3.86147e-06
5.00828e-06
9.40836e-06
1.18608e-05
3.30914e-05
8.92619e-05
0.000224584
0.00020629
0.000187193
0.000175849
0.00016345
0.000153078
0.000146155
0.000136078
0.000132739
0.000127262
0.000127107
0.000128123
0.000131837
0.000139024
0.000138169
0.000129296
0.000103451
8.83003e-05
7.39054e-05
6.52614e-05
6.00887e-05
5.70868e-05
5.63895e-05
5.6274e-05
5.58354e-05
5.42401e-05
5.19833e-05
5.18922e-05
5.25191e-05
5.44125e-05
5.80429e-05
6.39341e-05
7.15422e-05
7.59601e-05
7.56252e-05
7.38247e-05
6.69677e-05
4.63052e-05
2.96475e-05
1.90075e-05
1.2664e-05
8.92139e-06
6.71365e-06
5.75309e-06
5.52894e-06
5.65526e-06
6.528e-06
8.88245e-06
1.30443e-05
1.9314e-05
2.73518e-05
3.36806e-05
3.81849e-05
3.89474e-05
3.83678e-05
3.66503e-05
3.35809e-05
3.00219e-05
2.55881e-05
2.16804e-05
1.98362e-05
1.92206e-05
1.87411e-05
1.78646e-05
1.62435e-05
1.47468e-05
1.37474e-05
1.32384e-05
1.30352e-05
1.29325e-05
1.2799e-05
1.24195e-05
1.18705e-05
1.12967e-05
1.07058e-05
1.01559e-05
9.69e-06
9.36376e-06
9.15335e-06
9.03626e-06
9.00868e-06
9.06694e-06
9.50355e-06
1.01177e-05
1.05019e-05
1.06763e-05
1.07121e-05
1.07e-05
1.06161e-05
1.02182e-05
9.34503e-06
8.44121e-06
7.54264e-06
6.66467e-06
5.82246e-06
5.02817e-06
4.29334e-06
3.62553e-06
3.03023e-06
2.50841e-06
2.05943e-06
1.67759e-06
1.35992e-06
1.09536e-06
8.82827e-07
7.09226e-07
5.71778e-07
4.69384e-07
3.77868e-07
3.30294e-07
2.72282e-07
2.51452e-07
2.3463e-07
2.28842e-07
2.47546e-07
2.52478e-07
2.9455e-07
3.17072e-07
3.34993e-07
3.92953e-07
3.88408e-07
3.96734e-07
4.11159e-07
4.13813e-07
4.3091e-07
4.38049e-07
4.65422e-07
4.76659e-07
5.00163e-07
5.17399e-07
5.5988e-07
5.70914e-07
6.0299e-07
6.05699e-07
6.21475e-07
6.32698e-07
6.56238e-07
6.74711e-07
7.1789e-07
7.30596e-07
7.59851e-07
7.70903e-07
7.95343e-07
8.13864e-07
8.50905e-07
8.66081e-07
8.99767e-07
9.13666e-07
9.41752e-07
9.59341e-07
9.96037e-07
1.00794e-06
1.03743e-06
1.04989e-06
1.07996e-06
1.08423e-06
1.10624e-06
1.09645e-06
1.1003e-06
1.08547e-06
1.07922e-06
1.04792e-06
1.04195e-06
1.02146e-06
1.01864e-06
1.02155e-06
1.04284e-06
1.06337e-06
1.12533e-06
1.20197e-06
1.35476e-06
1.54143e-06
1.87614e-06
2.46465e-06
2.78512e-06
3.37227e-06
3.48251e-06
3.94529e-06
3.87317e-06
3.83726e-06
3.38911e-06
2.85619e-06
2.56727e-06
2.647e-06
3.00376e-06
3.01432e-06
3.2493e-06
2.82885e-06
2.66797e-06
2.75695e-06
2.93528e-06
3.49112e-06
3.25502e-06
3.374e-06
4.99497e-06
5.29216e-06
1.01773e-05
1.20254e-05
3.20927e-05
7.28022e-05
0.000204195
0.000189907
0.000175162
0.00016337
0.000154913
0.000144036
0.000137335
0.000128418
0.000122287
0.000118131
0.000117084
0.000117677
0.000120317
0.000125961
0.00013232
0.000131966
0.000127025
0.000111104
9.29507e-05
8.2226e-05
7.35941e-05
6.67161e-05
6.19256e-05
6.06177e-05
5.98325e-05
5.82191e-05
5.8277e-05
5.92223e-05
6.16759e-05
6.69321e-05
7.35406e-05
7.92121e-05
7.95353e-05
7.8575e-05
7.5671e-05
6.77499e-05
4.60914e-05
3.05091e-05
1.98274e-05
1.31932e-05
9.54192e-06
7.1906e-06
5.9152e-06
5.55928e-06
5.5977e-06
6.13266e-06
8.19401e-06
1.24551e-05
1.91189e-05
2.90459e-05
3.75099e-05
4.51375e-05
4.80338e-05
4.78453e-05
4.67296e-05
4.42369e-05
3.99148e-05
3.54761e-05
3.03441e-05
2.48783e-05
2.13063e-05
1.98693e-05
1.91975e-05
1.8422e-05
1.68597e-05
1.5155e-05
1.39583e-05
1.33548e-05
1.31151e-05
1.29987e-05
1.2816e-05
1.23343e-05
1.18101e-05
1.13664e-05
1.0854e-05
1.02466e-05
9.70551e-06
9.28198e-06
9.02084e-06
8.90562e-06
8.87605e-06
8.8818e-06
8.95636e-06
9.2944e-06
9.91973e-06
1.02891e-05
1.04318e-05
1.04469e-05
1.04149e-05
1.02764e-05
9.75714e-06
8.80667e-06
7.83206e-06
6.87865e-06
5.97323e-06
5.13039e-06
4.36116e-06
3.66997e-06
3.05981e-06
2.52856e-06
2.07411e-06
1.68865e-06
1.36982e-06
1.10319e-06
8.93044e-07
7.17044e-07
5.86912e-07
4.83029e-07
4.0274e-07
3.58816e-07
3.14655e-07
2.98836e-07
3.04925e-07
3.06268e-07
3.5463e-07
3.48749e-07
4.22859e-07
4.05904e-07
4.74254e-07
4.5798e-07
5.21959e-07
5.0681e-07
5.77305e-07
5.70464e-07
6.35292e-07
6.74416e-07
6.91464e-07
8.1051e-07
7.83759e-07
8.42665e-07
8.44493e-07
8.51729e-07
8.90392e-07
9.36172e-07
9.3237e-07
1.01121e-06
9.96712e-07
1.06176e-06
1.05341e-06
1.10646e-06
1.10151e-06
1.16632e-06
1.15173e-06
1.2119e-06
1.19865e-06
1.24164e-06
1.2362e-06
1.28856e-06
1.27884e-06
1.32873e-06
1.32192e-06
1.3692e-06
1.37231e-06
1.45043e-06
1.4479e-06
1.51177e-06
1.5322e-06
1.64677e-06
1.66404e-06
1.77704e-06
1.79541e-06
1.90903e-06
1.9089e-06
1.986e-06
1.94529e-06
1.97081e-06
1.90159e-06
1.89205e-06
1.7366e-06
1.68856e-06
1.57191e-06
1.58003e-06
1.60859e-06
1.68824e-06
1.85295e-06
2.22702e-06
2.90985e-06
3.37411e-06
4.06117e-06
4.19925e-06
4.57685e-06
4.27819e-06
3.96342e-06
3.21865e-06
3.13414e-06
3.43848e-06
3.39248e-06
3.86834e-06
3.24682e-06
3.08944e-06
3.19275e-06
3.41539e-06
4.00001e-06
3.93842e-06
5.32761e-06
5.53768e-06
1.33869e-05
1.29328e-05
2.90475e-05
5.95396e-05
0.000178829
0.000166788
0.000154746
0.000144793
0.000136504
0.000128092
0.000122142
0.000114424
0.000108016
0.000103602
0.000103001
0.00010363
0.000105851
0.000111409
0.000115533
0.000124994
0.000125361
0.000122287
0.000114248
0.000106158
0.000102301
9.66846e-05
8.90026e-05
8.36924e-05
7.88868e-05
7.6062e-05
7.62528e-05
7.77568e-05
8.18206e-05
8.53321e-05
8.55866e-05
8.41233e-05
8.13409e-05
7.61575e-05
6.51435e-05
4.42356e-05
2.97881e-05
2.02691e-05
1.33395e-05
9.64336e-06
7.64664e-06
6.16485e-06
5.58303e-06
5.53776e-06
5.83989e-06
7.29561e-06
1.12665e-05
1.80402e-05
2.87622e-05
4.12458e-05
5.07504e-05
5.73117e-05
5.82366e-05
5.74848e-05
5.51398e-05
5.17047e-05
4.65173e-05
4.09256e-05
3.51516e-05
2.87903e-05
2.37993e-05
2.10858e-05
1.98636e-05
1.88547e-05
1.73316e-05
1.5721e-05
1.44249e-05
1.36299e-05
1.3284e-05
1.31129e-05
1.27207e-05
1.21185e-05
1.16848e-05
1.12997e-05
1.08565e-05
1.03551e-05
9.81063e-06
9.36178e-06
9.06414e-06
8.87936e-06
8.75172e-06
8.66731e-06
8.6403e-06
8.65296e-06
8.73302e-06
9.07459e-06
9.45081e-06
9.66033e-06
9.72999e-06
9.72446e-06
9.6201e-06
9.09385e-06
8.08157e-06
7.07749e-06
6.12451e-06
5.24131e-06
4.44e-06
3.72482e-06
3.09746e-06
2.55442e-06
2.09228e-06
1.70163e-06
1.3806e-06
1.11105e-06
9.0367e-07
7.23608e-07
6.03995e-07
4.934e-07
4.32289e-07
3.81763e-07
3.59391e-07
3.46814e-07
3.82504e-07
3.75276e-07
5.02531e-07
4.66368e-07
7.23177e-07
6.34076e-07
9.56434e-07
8.50645e-07
1.09751e-06
1.01645e-06
1.35376e-06
1.25478e-06
1.74432e-06
1.60752e-06
1.95067e-06
1.84981e-06
1.95452e-06
1.91716e-06
2.02715e-06
1.92582e-06
2.14363e-06
2.02047e-06
2.19925e-06
2.10863e-06
2.22105e-06
2.13136e-06
2.27385e-06
2.15722e-06
2.29692e-06
2.19845e-06
2.27136e-06
2.19248e-06
2.23748e-06
2.14486e-06
2.19138e-06
2.10622e-06
2.11344e-06
2.04129e-06
2.05083e-06
1.9669e-06
1.97989e-06
1.91258e-06
1.92126e-06
1.86015e-06
1.90507e-06
1.85924e-06
1.88934e-06
1.88532e-06
1.96493e-06
1.97241e-06
2.03903e-06
2.08263e-06
2.22487e-06
2.24108e-06
2.36346e-06
2.40707e-06
2.58319e-06
2.56797e-06
2.62393e-06
2.47002e-06
2.43201e-06
2.21453e-06
2.12585e-06
2.16614e-06
2.25698e-06
2.49119e-06
2.94403e-06
3.92698e-06
4.31837e-06
5.19455e-06
5.15985e-06
4.90658e-06
3.99096e-06
3.66316e-06
3.70163e-06
3.8137e-06
4.33253e-06
3.71372e-06
3.71387e-06
4.04196e-06
4.37777e-06
4.21485e-06
7.15542e-06
6.68667e-06
1.76083e-05
1.47784e-05
2.7222e-05
4.97896e-05
0.000148158
0.000139831
0.000128288
0.00011989
0.000112496
0.000104325
9.99343e-05
9.366e-05
8.71379e-05
8.28166e-05
8.28171e-05
8.41477e-05
8.73597e-05
9.3416e-05
9.80235e-05
0.000105053
0.00011545
0.000117319
0.00011554
0.000110873
0.000108995
0.00010796
0.000106722
0.000104113
0.000100093
9.91731e-05
9.69097e-05
9.50164e-05
9.245e-05
9.04428e-05
8.78412e-05
8.20047e-05
7.42848e-05
5.82852e-05
4.0785e-05
2.77774e-05
1.94193e-05
1.34514e-05
9.28261e-06
7.65798e-06
6.47039e-06
5.65674e-06
5.50739e-06
5.69455e-06
6.63351e-06
9.67993e-06
1.62738e-05
2.63861e-05
4.21754e-05
5.60313e-05
6.49956e-05
6.89759e-05
6.90262e-05
6.77635e-05
6.36603e-05
5.89614e-05
5.28276e-05
4.63907e-05
4.03841e-05
3.31976e-05
2.65535e-05
2.2445e-05
2.05929e-05
1.9273e-05
1.77157e-05
1.61061e-05
1.47722e-05
1.39664e-05
1.3622e-05
1.33027e-05
1.26996e-05
1.20222e-05
1.15126e-05
1.11424e-05
1.07676e-05
1.03161e-05
9.88307e-06
9.49736e-06
9.14967e-06
8.85328e-06
8.64391e-06
8.54587e-06
8.52522e-06
8.53744e-06
8.65212e-06
9.03631e-06
9.32999e-06
9.47474e-06
9.51511e-06
9.51054e-06
9.44316e-06
9.04105e-06
8.07362e-06
7.09172e-06
6.1501e-06
5.27082e-06
4.46801e-06
3.74934e-06
3.11729e-06
2.57034e-06
2.10471e-06
1.71154e-06
1.38975e-06
1.11792e-06
9.15434e-07
7.29749e-07
6.27756e-07
5.04815e-07
4.75972e-07
4.16974e-07
4.35979e-07
4.25096e-07
5.40607e-07
5.22676e-07
8.93777e-07
8.0455e-07
1.50149e-06
1.30772e-06
1.92544e-06
1.77021e-06
2.02118e-06
1.99091e-06
2.15077e-06
2.06799e-06
2.38447e-06
2.27746e-06
2.64513e-06
2.58592e-06
2.77132e-06
2.73503e-06
2.90114e-06
2.81616e-06
3.06053e-06
2.97971e-06
3.20954e-06
3.1581e-06
3.3509e-06
3.29449e-06
3.51349e-06
3.44655e-06
3.65783e-06
3.60614e-06
3.7917e-06
3.73261e-06
3.92242e-06
3.83362e-06
4.01805e-06
3.92054e-06
4.04155e-06
3.94257e-06
4.02018e-06
3.86681e-06
3.90839e-06
3.78617e-06
3.72196e-06
3.53079e-06
3.53694e-06
3.42566e-06
3.2089e-06
3.16201e-06
3.04794e-06
2.94326e-06
2.7345e-06
2.74112e-06
2.68713e-06
2.66455e-06
2.67572e-06
2.71146e-06
2.822e-06
2.84514e-06
3.00324e-06
2.99179e-06
3.11785e-06
3.10094e-06
3.06542e-06
2.97205e-06
2.69602e-06
2.6599e-06
2.72188e-06
2.91218e-06
3.53675e-06
4.12609e-06
5.53509e-06
5.52365e-06
5.79804e-06
4.91597e-06
4.31022e-06
4.23587e-06
4.43384e-06
4.96326e-06
4.48966e-06
4.30075e-06
5.97029e-06
5.2457e-06
1.03773e-05
8.12833e-06
2.17792e-05
1.70661e-05
2.28616e-05
4.17984e-05
0.000109684
0.000104239
9.44015e-05
8.61288e-05
7.99429e-05
7.28605e-05
6.91908e-05
6.60925e-05
5.93142e-05
5.58455e-05
5.59282e-05
5.76368e-05
6.29108e-05
6.96192e-05
7.62208e-05
8.27702e-05
9.23388e-05
9.97885e-05
0.000105761
0.00010561
0.000105488
0.000105705
0.000105499
0.000104553
0.000102335
0.000100717
9.82021e-05
9.56802e-05
9.0433e-05
8.64404e-05
7.76837e-05
6.64372e-05
4.83119e-05
3.4954e-05
2.49465e-05
1.75206e-05
1.28562e-05
9.15285e-06
7.09023e-06
6.58827e-06
5.78345e-06
5.47519e-06
5.58638e-06
6.16198e-06
8.22086e-06
1.35855e-05
2.37026e-05
3.89153e-05
5.92946e-05
7.18198e-05
7.73004e-05
7.83457e-05
7.71922e-05
7.52232e-05
7.15557e-05
6.58845e-05
5.92654e-05
5.18636e-05
4.49141e-05
3.75313e-05
3.00802e-05
2.45662e-05
2.15849e-05
1.97083e-05
1.79797e-05
1.64497e-05
1.53398e-05
1.46405e-05
1.41523e-05
1.35391e-05
1.27669e-05
1.20251e-05
1.14469e-05
1.10249e-05
1.06385e-05
1.02463e-05
9.85888e-06
9.47821e-06
9.09344e-06
8.75551e-06
8.55985e-06
8.51518e-06
8.55416e-06
8.88757e-06
9.45421e-06
9.81785e-06
9.98566e-06
1.00277e-05
1.0022e-05
9.94665e-06
9.53947e-06
8.733e-06
7.85078e-06
6.94659e-06
6.05782e-06
5.21444e-06
4.43384e-06
3.7302e-06
3.10692e-06
2.56621e-06
2.10407e-06
1.7136e-06
1.39421e-06
1.12253e-06
9.27717e-07
7.36628e-07
6.58324e-07
5.27502e-07
5.22469e-07
4.8712e-07
5.65067e-07
5.56324e-07
7.85172e-07
7.99295e-07
1.24125e-06
1.2908e-06
1.75358e-06
1.76273e-06
1.97722e-06
2.06776e-06
2.3404e-06
2.38044e-06
2.87307e-06
2.84364e-06
3.56903e-06
3.43637e-06
4.17482e-06
4.00681e-06
4.27801e-06
4.16943e-06
4.24702e-06
4.13216e-06
4.35126e-06
4.1868e-06
4.50007e-06
4.37242e-06
4.5189e-06
4.42552e-06
4.58984e-06
4.49032e-06
4.70101e-06
4.63343e-06
4.7869e-06
4.7371e-06
4.89645e-06
4.85227e-06
5.04168e-06
5.02476e-06
5.18718e-06
5.21077e-06
5.40023e-06
5.45047e-06
5.66347e-06
5.84102e-06
5.93223e-06
6.1165e-06
6.38424e-06
6.46763e-06
6.50414e-06
6.73591e-06
6.79702e-06
6.81168e-06
6.75842e-06
6.73281e-06
6.68271e-06
6.28462e-06
6.09276e-06
5.55527e-06
5.30864e-06
4.59419e-06
4.46763e-06
4.04001e-06
4.05813e-06
3.93547e-06
3.81427e-06
3.82311e-06
3.66925e-06
3.5515e-06
3.29019e-06
3.13626e-06
3.21171e-06
3.3899e-06
4.06979e-06
5.43649e-06
5.91835e-06
7.00556e-06
6.20737e-06
4.9838e-06
5.18285e-06
5.22153e-06
8.2317e-06
6.54849e-06
9.11437e-06
6.86271e-06
1.49448e-05
1.14278e-05
3.47538e-05
2.27276e-05
2.34023e-05
3.45761e-05
6.78888e-05
6.43107e-05
5.70389e-05
5.09054e-05
4.62709e-05
4.19314e-05
4.01502e-05
3.86666e-05
3.46546e-05
3.28204e-05
3.28925e-05
3.40081e-05
3.71775e-05
4.45883e-05
5.08175e-05
5.6565e-05
6.68507e-05
7.41572e-05
8.06636e-05
8.60677e-05
8.93352e-05
9.2406e-05
9.39776e-05
9.36503e-05
9.21397e-05
8.94337e-05
8.65077e-05
8.10263e-05
7.4359e-05
6.489e-05
5.1481e-05
3.96635e-05
2.91574e-05
2.17656e-05
1.55238e-05
1.14768e-05
8.87117e-06
6.74435e-06
6.09882e-06
5.95243e-06
5.44659e-06
5.44172e-06
5.79773e-06
6.9641e-06
1.09137e-05
1.94969e-05
3.48882e-05
5.80837e-05
7.57329e-05
8.24388e-05
8.29052e-05
8.1557e-05