/*--------------------------------*- C++ -*----------------------------------*\
| =========                 |                                                 |
| \\      /  F ield         | OpenFOAM: The Open Source CFD Toolbox           |
|  \\    /   O peration     | Version:  2.4.0                                 |
|   \\  /    A nd           | Web:      www.OpenFOAM.org                      |
|    \\/     M anipulation  |                                                 |
\*---------------------------------------------------------------------------*/
FoamFile
{
    version     2.0;
    format      ascii;
    class       volVectorField;
    location    "0.076";
    object      U_0;
}
// * * * * * * * * * * * * * * * * * * * * * * * * * * * * * * * * * * * * * //

dimensions      [0 1 -1 0 0 0 0];

internalField   nonuniform List<vector> 
4400
(
(5.40515 0.316742 0)
(3.31406 0.0607699 0)
(2.58601 0.00139785 0)
(2.23237 -0.00208948 0)
(2.08377 -0.00139225 0)
(1.9955 -0.000882191 0)
(1.9515 0.000182653 0)
(1.90106 0.000217761 0)
(1.93031 0.00183759 0)
(1.48628 -0.079532 0)
(8.68895 0.857319 0)
(7.53455 0.344587 0)
(6.63761 0.116077 0)
(5.90663 0.0551125 0)
(5.52853 0.0270579 0)
(5.26743 0.0149083 0)
(5.14504 0.0126593 0)
(5.00254 0.0032619 0)
(5.0565 0.034119 0)
(4.43345 -0.149656 0)
(9.89809 0.937364 0)
(9.97896 0.476977 0)
(9.50728 0.212716 0)
(8.74396 0.129948 0)
(8.28527 0.0756441 0)
(7.90343 0.0444054 0)
(7.73447 0.0342054 0)
(7.53144 0.0114077 0)
(7.55838 0.0563888 0)
(6.98787 -0.156263 0)
(10.1348 0.807747 0)
(11.0946 0.49751 0)
(11.293 0.265002 0)
(10.8126 0.197254 0)
(10.4723 0.13145 0)
(10.067 0.0831895 0)
(9.90219 0.0614675 0)
(9.69617 0.0263061 0)
(9.66224 0.0779786 0)
(9.21128 -0.148119 0)
(10.0703 0.648214 0)
(11.2886 0.43543 0)
(12.0087 0.244659 0)
(11.9441 0.217884 0)
(11.9121 0.166331 0)
(11.6266 0.118404 0)
(11.5481 0.0845224 0)
(11.4134 0.0464802 0)
(11.3635 0.0940532 0)
(11.0134 -0.107074 0)
(10.054 0.518485 0)
(11.1883 0.358959 0)
(12.0656 0.183828 0)
(12.2327 0.185523 0)
(12.5061 0.157951 0)
(12.4186 0.128208 0)
(12.517 0.0907664 0)
(12.531 0.0540048 0)
(12.5636 0.109262 0)
(12.3006 -0.0513965 0)
(10.0715 0.400437 0)
(11.1361 0.29039 0)
(11.9411 0.129902 0)
(12.2186 0.139061 0)
(12.5873 0.12211 0)
(12.5731 0.112755 0)
(12.7985 0.0670936 0)
(12.9893 0.04992 0)
(13.1252 0.0920654 0)
(12.9765 0.0365209 0)
(10.0264 0.279601 0)
(11.1182 0.227013 0)
(11.8297 0.0816667 0)
(12.2902 0.0891371 0)
(12.529 0.0856682 0)
(12.5143 0.102796 0)
(12.796 0.0246246 0)
(13.0557 0.0317747 0)
(13.2024 0.0677214 0)
(13.1457 0.0273251 0)
(9.94401 0.174355 0)
(11.1248 0.140482 0)
(11.915 0.0356866 0)
(12.2472 0.0422705 0)
(12.3785 0.0690743 0)
(12.5588 0.0698505 0)
(12.868 -0.00486588 0)
(12.9509 0.00625896 0)
(13.1124 0.0595077 0)
(13.1666 -0.0530094 0)
(9.94485 0.0634482 0)
(11.1836 0.0437523 0)
(11.9012 0.00131967 0)
(12.1214 0.0201506 0)
(12.3656 0.0243215 0)
(12.6483 0.0334654 0)
(12.8311 -0.0290419 0)
(12.8652 0.00250034 0)
(13.1158 0.0180185 0)
(13.1937 -0.0777116 0)
(10.0037 -0.0505908 0)
(11.1505 -0.0445206 0)
(11.8246 -0.0189741 0)
(12.1786 -0.0233637 0)
(12.3775 -0.0219516 0)
(12.6309 0.000151828 0)
(12.8321 -0.0372026 0)
(12.8911 -0.0262091 0)
(13.1284 -0.0128652 0)
(13.1727 -0.0907166 0)
(10.0126 -0.162897 0)
(11.0958 -0.125522 0)
(11.9002 -0.0621647 0)
(12.2282 -0.059825 0)
(12.3592 -0.0554336 0)
(12.6537 -0.0368109 0)
(12.8571 -0.0607269 0)
(12.8919 -0.0394163 0)
(13.1235 -0.040557 0)
(13.1948 -0.117557 0)
(10.0178 -0.271507 0)
(11.1317 -0.217652 0)
(11.9765 -0.101652 0)
(12.2102 -0.0906705 0)
(12.4147 -0.0973622 0)
(12.6797 -0.0752963 0)
(12.841 -0.0690496 0)
(12.9136 -0.0599121 0)
(13.1663 -0.0752356 0)
(13.2297 -0.15112 0)
(10.0365 -0.390849 0)
(11.182 -0.294116 0)
(12.0118 -0.143694 0)
(12.2162 -0.126736 0)
(12.5066 -0.136157 0)
(12.6507 -0.104198 0)
(12.8337 -0.0889751 0)
(12.8799 -0.0835018 0)
(13.0895 -0.0999696 0)
(12.9975 -0.17365 0)
(10.0258 -0.511996 0)
(11.263 -0.363876 0)
(12.0396 -0.193406 0)
(12.2487 -0.172402 0)
(12.4664 -0.171721 0)
(12.441 -0.126197 0)
(12.5324 -0.101017 0)
(12.434 -0.0926017 0)
(12.5155 -0.105617 0)
(12.2217 -0.172456 0)
(10.0554 -0.644475 0)
(11.3432 -0.439332 0)
(11.9628 -0.249699 0)
(11.9705 -0.208121 0)
(11.8849 -0.17734 0)
(11.6287 -0.119143 0)
(11.5516 -0.09039 0)
(11.3209 -0.0792428 0)
(11.2941 -0.0924011 0)
(10.8887 -0.134472 0)
(10.1271 -0.805733 0)
(11.1266 -0.499894 0)
(11.2522 -0.268116 0)
(10.8389 -0.19087 0)
(10.4515 -0.138953 0)
(10.0581 -0.0853882 0)
(9.89583 -0.0630256 0)
(9.62141 -0.0549494 0)
(9.55433 -0.0701424 0)
(9.11457 -0.0853746 0)
(9.89442 -0.93648 0)
(9.99808 -0.478117 0)
(9.47641 -0.21447 0)
(8.76528 -0.126267 0)
(8.27036 -0.0801186 0)
(7.88906 -0.0463619 0)
(7.72341 -0.0344744 0)
(7.47654 -0.0317878 0)
(7.40832 -0.0433028 0)
(6.97283 -0.0496841 0)
(8.68746 -0.857066 0)
(7.54484 -0.344908 0)
(6.61867 -0.117011 0)
(5.9195 -0.0534573 0)
(5.5194 -0.028888 0)
(5.25336 -0.0162879 0)
(5.13334 -0.0127072 0)
(4.96004 -0.0135178 0)
(4.90354 -0.0187379 0)
(4.53842 -0.0235606 0)
(5.40471 -0.316756 0)
(3.31743 -0.0606994 0)
(2.57978 -0.00164243 0)
(2.23552 0.00239592 0)
(2.08093 0.0012628 0)
(1.98762 0.000442358 0)
(1.94307 3.45265e-05 0)
(1.87564 -0.000954578 0)
(1.844 -0.000660699 0)
(1.67079 0.00863976 0)
(3.02758 -0.347129 0)
(2.34825 -0.107932 0)
(2.59064 -0.00646917 0)
(3.32546 0.619961 0)
(4.17676 0.993093 0)
(5.25688 1.21026 0)
(6.12365 1.55256 0)
(7.01606 1.44483 0)
(7.98322 0.930293 0)
(8.93165 -0.0796471 0)
(9.44682 -1.14829 0)
(9.43291 -1.98612 0)
(9.02682 -2.46094 0)
(9.66826 -2.61715 0)
(10.8175 -2.94706 0)
(11.3737 -3.29578 0)
(11.9289 -3.8735 0)
(12.4114 -4.07565 0)
(11.6561 -3.38844 0)
(11.3173 -2.85674 0)
(11.1081 -1.76399 0)
(10.3904 0.226806 0)
(10.9109 1.12022 0)
(11.4612 1.7043 0)
(12.1223 2.24458 0)
(13.026 1.31563 0)
(12.8784 0.402788 0)
(12.5554 -0.499268 0)
(12.4852 -1.98852 0)
(11.486 -2.37304 0)
(10.7996 -2.45426 0)
(10.5632 -3.31533 0)
(9.67138 -3.32644 0)
(8.78906 -2.91691 0)
(8.34996 -3.61416 0)
(7.67603 -3.97516 0)
(6.45065 -2.92528 0)
(5.8438 -2.24754 0)
(5.05314 -4.29083 0)
(5.21414 -6.77454 0)
(4.77319 -8.16463 0)
(6.13875 -7.28065 0)
(6.07714 -6.45576 0)
(6.47299 -4.74118 0)
(6.9474 -3.09113 0)
(7.25233 -1.35362 0)
(7.78645 0.635425 0)
(7.98339 3.14564 0)
(8.01437 4.56166 0)
(7.95677 5.2445 0)
(8.62429 6.22464 0)
(8.58972 7.79479 0)
(9.13362 8.26339 0)
(8.05408 8.10673 0)
(8.17869 6.33354 0)
(6.54087 5.62745 0)
(7.07435 3.75783 0)
(5.69155 4.2343 0)
(6.83814 2.27745 0)
(5.91791 2.86366 0)
(6.77341 0.0467344 0)
(6.01951 -0.0578783 0)
(6.80084 -2.74621 0)
(6.09578 -2.08874 0)
(6.59299 -3.95181 0)
(5.96082 -2.13994 0)
(6.24533 -3.28569 0)
(5.86416 -1.3202 0)
(6.155 -2.15046 0)
(5.67994 -0.484862 0)
(5.94715 -1.56885 0)
(5.68858 0.0799973 0)
(5.94183 -0.993102 0)
(5.71335 0.281136 0)
(6.09983 -0.721409 0)
(5.78378 0.54319 0)
(6.07304 -0.483349 0)
(5.84015 0.563639 0)
(6.17218 -0.272305 0)
(5.86424 0.698644 0)
(6.05029 -0.0553409 0)
(5.90871 0.699956 0)
(6.10304 0.112614 0)
(5.87698 0.844305 0)
(5.9737 0.377906 0)
(5.90284 0.893591 0)
(5.97527 0.554897 0)
(5.96189 1.09089 0)
(5.98984 0.865946 0)
(6.0203 1.29435 0)
(5.97792 1.09653 0)
(6.13214 1.61449 0)
(6.02757 1.52273 0)
(5.88475 2.13097 0)
(5.99665 1.96369 0)
(5.91133 2.97739 0)
(6.5476 2.69955 0)
(6.23003 4.3993 0)
(7.23588 4.83961 0)
(4.11316 8.88937 0)
(5.33803 -0.201017 0)
(4.8238 -0.00776927 0)
(4.78588 0.0451243 0)
(4.84932 0.37631 0)
(5.27707 0.522113 0)
(6.11931 0.75426 0)
(7.01064 1.11456 0)
(7.88848 0.938379 0)
(8.70644 0.478856 0)
(9.34668 -0.340299 0)
(9.9122 -1.31785 0)
(10.5695 -2.06227 0)
(10.6636 -2.54039 0)
(11.3034 -2.88562 0)
(12.4338 -3.31196 0)
(12.6332 -3.53993 0)
(13.0098 -3.87744 0)
(13.1694 -4.00982 0)
(12.4361 -3.251 0)
(11.9813 -2.70817 0)
(11.6971 -1.67882 0)
(11.1062 0.2303 0)
(11.4744 0.958778 0)
(11.9055 1.48415 0)
(12.4289 2.049 0)
(13.3001 1.21462 0)
(13.0675 0.475407 0)
(12.711 -0.352277 0)
(12.6374 -1.79395 0)
(11.5753 -2.06762 0)
(10.792 -2.19228 0)
(10.548 -3.05117 0)
(9.66738 -2.96695 0)
(8.75722 -2.64465 0)
(8.38564 -3.3911 0)
(7.69748 -3.598 0)
(6.40489 -2.49145 0)
(5.66587 -1.98661 0)
(4.89618 -4.12785 0)
(4.68518 -6.79229 0)
(4.43599 -8.22586 0)
(5.31366 -7.49203 0)
(4.84531 -6.57675 0)
(5.52983 -4.85963 0)
(6.02611 -3.36903 0)
(6.38782 -1.4195 0)
(6.81114 0.53834 0)
(7.14203 3.04267 0)
(7.22648 4.42437 0)
(7.05362 5.21968 0)
(7.98879 6.07238 0)
(8.06764 7.72193 0)
(8.80734 8.30517 0)
(7.78209 8.42933 0)
(8.28737 6.69196 0)
(6.63323 6.0588 0)
(7.30922 4.00168 0)
(5.94503 4.42707 0)
(7.10008 2.18373 0)
(6.34474 2.89237 0)
(7.18894 0.0195664 0)
(6.49629 -0.0594958 0)
(7.13623 -2.83807 0)
(6.525 -2.01011 0)
(6.97188 -3.92349 0)
(6.31546 -1.92556 0)
(6.40078 -3.32682 0)
(5.89591 -1.20602 0)
(6.28052 -2.28511 0)
(5.72926 -0.288815 0)
(6.06143 -1.67936 0)
(5.65137 0.268173 0)
(5.93083 -1.16486 0)
(5.53242 0.454102 0)
(5.97608 -0.91835 0)
(5.6127 0.725686 0)
(5.97264 -0.739256 0)
(5.69685 0.730588 0)
(6.14908 -0.506608 0)
(5.83185 0.892165 0)
(6.12431 -0.33344 0)
(6.00203 0.891209 0)
(6.24324 -0.112815 0)
(6.11224 1.07767 0)
(6.12774 0.0941499 0)
(6.17951 1.10914 0)
(6.10345 0.341414 0)
(6.18849 1.31506 0)
(5.95744 0.601897 0)
(6.06887 1.51582 0)
(6.04829 0.889257 0)
(6.11434 1.802 0)
(6.26902 1.31505 0)
(6.15302 2.40321 0)
(6.46413 1.81756 0)
(5.94936 3.43595 0)
(6.42601 2.68266 0)
(4.99928 4.79728 0)
(8.57645 4.14595 0)
(6.513 9.28535 0)
(7.48564 -0.111628 0)
(7.22445 -0.00650641 0)
(6.97871 0.0164188 0)
(7.09513 0.355113 0)
(7.37292 0.371112 0)
(7.59364 0.504641 0)
(8.3018 0.822337 0)
(9.21072 0.575728 0)
(9.78578 0.179475 0)
(10.4906 -0.488451 0)
(11.2531 -1.45142 0)
(11.9042 -2.3538 0)
(12.2123 -2.84168 0)
(12.7181 -3.14081 0)
(13.5625 -3.55575 0)
(13.5289 -3.64383 0)
(13.6257 -3.80319 0)
(13.6164 -3.79374 0)
(12.8139 -2.98376 0)
(12.4813 -2.51001 0)
(12.2279 -1.57258 0)
(11.6335 0.265959 0)
(11.8009 0.871417 0)
(11.9779 1.32616 0)
(12.4312 1.86737 0)
(13.246 1.07993 0)
(12.9272 0.549854 0)
(12.6648 -0.229024 0)
(12.5275 -1.52534 0)
(11.2903 -1.72653 0)
(10.6095 -1.97207 0)
(10.3928 -2.77458 0)
(9.45049 -2.59924 0)
(8.65354 -2.38194 0)
(8.41636 -3.17869 0)
(7.73587 -3.25382 0)
(6.40766 -2.04793 0)
(5.54655 -1.63845 0)
(4.68357 -3.90502 0)
(4.1568 -6.75968 0)
(4.02904 -8.13514 0)
(4.44551 -7.53404 0)
(3.70363 -6.63892 0)
(4.57764 -4.99153 0)
(4.9159 -3.63867 0)
(5.37288 -1.50969 0)
(5.84383 0.487818 0)
(5.9561 2.95045 0)
(6.3736 4.30722 0)
(6.47756 5.14956 0)
(7.32782 5.89471 0)
(7.3593 7.52467 0)
(8.34556 8.13044 0)
(7.39734 8.50396 0)
(8.20715 6.73325 0)
(6.72218 6.24546 0)
(7.44655 3.98367 0)
(6.40439 4.44581 0)
(7.4049 2.07188 0)
(6.73417 2.89659 0)
(7.50969 0.0505915 0)
(6.97299 -0.0436896 0)
(7.51152 -2.847 0)
(6.92862 -1.97754 0)
(7.1384 -3.95544 0)
(6.63109 -1.78719 0)
(6.67299 -3.20054 0)
(6.02799 -1.06559 0)
(6.2967 -2.32622 0)
(5.73063 -0.168146 0)
(6.13519 -1.83066 0)
(5.70859 0.385342 0)
(6.14281 -1.26537 0)
(5.57859 0.579004 0)
(6.1983 -1.10118 0)
(5.61265 0.896371 0)
(6.18676 -0.911117 0)
(5.6411 0.866468 0)
(6.39352 -0.7316 0)
(5.74094 1.08661 0)
(6.42351 -0.559969 0)
(5.95217 1.03481 0)
(6.72231 -0.360892 0)
(6.08771 1.26772 0)
(6.83569 -0.0957543 0)
(6.28504 1.2945 0)
(7.02059 0.121804 0)
(6.38077 1.5219 0)
(6.95727 0.543538 0)
(6.21923 1.69405 0)
(6.77389 0.66478 0)
(6.13998 1.98604 0)
(6.55135 1.03404 0)
(6.10888 2.43823 0)
(7.13675 1.27949 0)
(6.39174 3.34329 0)
(8.85259 2.41183 0)
(5.7819 5.10427 0)
(9.44184 3.51585 0)
(7.1776 9.49932 0)
(9.36329 -0.0394164 0)
(9.47941 0.0232316 0)
(9.10577 0.0412138 0)
(9.12361 0.307939 0)
(9.60498 0.257417 0)
(9.50629 0.370334 0)
(10.0407 0.610749 0)
(10.9941 0.321512 0)
(11.3835 -0.100354 0)
(11.978 -0.799713 0)
(12.805 -1.62677 0)
(13.361 -2.51217 0)
(13.4972 -3.05439 0)
(13.7953 -3.23587 0)
(14.1872 -3.62545 0)
(13.9394 -3.71348 0)
(13.8104 -3.69377 0)
(13.5892 -3.63269 0)
(12.9453 -2.8545 0)
(12.6878 -2.35728 0)
(12.2948 -1.46488 0)
(11.8545 0.322183 0)
(12.1262 0.859838 0)
(12.1039 1.28741 0)
(12.3619 1.68405 0)
(12.9167 1.0249 0)
(12.4581 0.636399 0)
(12.3546 -0.151728 0)
(12.0768 -1.22741 0)
(10.7891 -1.37127 0)
(10.3186 -1.7733 0)
(10.1115 -2.51728 0)
(9.12738 -2.29614 0)
(8.53914 -2.20043 0)
(8.55055 -2.95139 0)
(7.79957 -2.81793 0)
(6.4152 -1.50741 0)
(5.34371 -1.27919 0)
(4.44588 -3.67934 0)
(3.71267 -6.643 0)
(3.57467 -7.99734 0)
(3.64112 -7.4771 0)
(2.87569 -6.61375 0)
(3.70078 -5.1369 0)
(3.74302 -3.88851 0)
(4.26206 -1.50891 0)
(4.70899 0.289686 0)
(5.05709 2.90352 0)
(5.32323 3.98154 0)
(5.48903 4.97914 0)
(6.80199 5.69325 0)
(6.76174 7.46029 0)
(8.05793 8.04549 0)
(7.0953 8.6239 0)
(7.99974 6.7684 0)
(6.73615 6.5049 0)
(7.53067 3.97266 0)
(6.7992 4.49017 0)
(7.52476 1.97511 0)
(6.97693 2.86182 0)
(7.68584 -0.0201599 0)
(7.44138 -0.0746519 0)
(7.8604 -2.8765 0)
(7.36022 -1.84447 0)
(7.28885 -3.93957 0)
(6.73881 -1.67899 0)
(6.81706 -3.19564 0)
(6.15928 -0.869103 0)
(6.42664 -2.31565 0)
(5.68193 0.0464878 0)
(5.96619 -1.93404 0)
(5.57643 0.564104 0)
(5.96934 -1.41017 0)
(5.3621 0.754861 0)
(6.04214 -1.30262 0)
(5.48987 1.0896 0)
(6.08426 -1.1374 0)
(5.41754 1.04854 0)
(6.36122 -0.991621 0)
(5.56035 1.32528 0)
(6.4465 -0.899627 0)
(5.68147 1.23231 0)
(6.88794 -0.691691 0)
(5.89964 1.52145 0)
(7.11131 -0.536819 0)
(6.1903 1.50551 0)
(7.66198 -0.254848 0)
(6.55507 1.79377 0)
(7.85017 0.130203 0)
(6.8371 2.05469 0)
(7.9976 0.46356 0)
(6.73564 2.43944 0)
(7.53912 0.943186 0)
(6.06054 2.94889 0)
(7.27694 1.15307 0)
(4.90013 3.59542 0)
(8.95182 1.66926 0)
(5.84044 5.17278 0)
(11.3772 2.21629 0)
(8.96047 8.64002 0)
(10.8808 -0.00318416 0)
(11.2352 -0.045873 0)
(10.9709 0.0395479 0)
(10.8684 0.263962 0)
(11.5002 0.142871 0)
(11.3492 0.316822 0)
(11.7255 0.380785 0)
(12.5811 0.0215004 0)
(12.9989 -0.287743 0)
(13.4648 -1.03257 0)
(14.0095 -1.80233 0)
(14.4047 -2.6178 0)
(14.386 -3.20402 0)
(14.3475 -3.30129 0)
(14.3686 -3.57762 0)
(13.9989 -3.6544 0)
(13.8459 -3.53099 0)
(13.573 -3.34642 0)
(13.1283 -2.7049 0)
(13.1472 -2.22869 0)
(12.5489 -1.26848 0)
(12.0309 0.338994 0)
(12.3301 0.827269 0)
(12.0533 1.27859 0)
(12.1928 1.60833 0)
(12.6109 1.03719 0)
(12.0829 0.679813 0)
(11.9511 -0.0443343 0)
(11.3986 -0.873992 0)
(10.2914 -1.09524 0)
(10.0562 -1.71223 0)
(9.82095 -2.27128 0)
(8.87469 -1.95978 0)
(8.54873 -2.11102 0)
(8.64364 -2.83455 0)
(7.78857 -2.42396 0)
(6.28933 -0.983167 0)
(5.13148 -0.898728 0)
(4.23879 -3.36011 0)
(3.30305 -6.42848 0)
(3.02796 -7.86826 0)
(2.93675 -7.35138 0)
(2.27617 -6.56921 0)
(2.89568 -5.18484 0)
(2.59569 -4.07311 0)
(3.20851 -1.58627 0)
(3.55299 0.172288 0)
(3.76592 2.72481 0)
(4.67272 3.87111 0)
(4.81862 4.81306 0)
(5.98063 5.35462 0)
(6.00238 7.12577 0)
(7.41718 7.7375 0)
(6.83456 8.57272 0)
(7.78915 6.75447 0)
(6.88067 6.57824 0)
(7.58057 3.90281 0)
(6.89501 4.52528 0)
(7.48748 1.92675 0)
(7.23754 2.80666 0)
(7.93685 -0.0631022 0)
(7.90558 -0.112541 0)
(8.18139 -2.86285 0)
(7.76189 -1.70501 0)
(7.57517 -3.75006 0)
(6.92867 -1.48389 0)
(6.8126 -3.13024 0)
(6.2645 -0.777823 0)
(6.47993 -2.35097 0)
(5.92824 0.207287 0)
(6.09306 -2.01597 0)
(5.69511 0.660963 0)
(6.04362 -1.46662 0)
(5.42218 0.875104 0)
(5.97807 -1.46773 0)
(5.49199 1.24042 0)
(5.98449 -1.26702 0)
(5.34807 1.16868 0)
(6.18669 -1.20247 0)
(5.47684 1.50684 0)
(6.29139 -1.10506 0)
(5.46355 1.37843 0)
(6.72723 -0.991516 0)
(5.68266 1.74098 0)
(7.13482 -0.860537 0)
(5.80043 1.65211 0)
(8.03484 -0.756131 0)
(6.26469 2.01396 0)
(9.00985 -0.361056 0)
(6.63016 2.1294 0)
(10.473 -0.122462 0)
(7.14316 2.52367 0)
(11.7069 0.646052 0)
(6.95239 3.09824 0)
(12.1937 1.29527 0)
(5.80993 3.91583 0)
(11.0432 1.56342 0)
(5.38759 5.70985 0)
(9.36337 1.32238 0)
(9.06307 8.10173 0)
(12.1216 -0.000509307 0)
(12.5032 -0.179991 0)
(12.3001 0.0145612 0)
(12.2158 0.250761 0)
(12.746 -0.0190831 0)
(12.6277 0.226692 0)
(13.1298 0.232963 0)
(13.7806 -0.178673 0)
(14.1265 -0.450577 0)
(14.5537 -1.21913 0)
(14.8325 -1.89079 0)
(15.0337 -2.64596 0)
(14.815 -3.23226 0)
(14.4146 -3.21282 0)
(14.2574 -3.4781 0)
(13.9507 -3.58631 0)
(13.7452 -3.44045 0)
(13.5976 -3.26065 0)
(13.404 -2.69821 0)
(13.4509 -2.1522 0)
(12.7798 -1.12808 0)
(12.385 0.35312 0)
(12.6476 0.926161 0)
(12.1301 1.39669 0)
(12.2988 1.5571 0)
(12.3336 1.08905 0)
(11.6653 0.803342 0)
(11.4271 0.15657 0)
(10.8478 -0.524133 0)
(10.1329 -0.91259 0)
(10.0102 -1.64397 0)
(9.55145 -2.00424 0)
(8.75553 -1.73867 0)
(8.68315 -2.07182 0)
(8.79198 -2.65149 0)
(7.81608 -1.93986 0)
(6.22874 -0.400303 0)
(4.95658 -0.446884 0)
(4.04409 -3.01873 0)
(2.86721 -6.20116 0)
(2.4296 -7.73649 0)
(2.23937 -7.22336 0)
(1.73968 -6.45085 0)
(2.07664 -5.24091 0)
(1.43045 -4.10683 0)
(2.09783 -1.63977 0)
(2.36557 -0.0642266 0)
(2.7524 2.64941 0)
(3.51037 3.18196 0)
(3.94199 4.62807 0)
(5.55281 5.20155 0)
(5.40908 7.05263 0)
(6.82712 7.51168 0)
(6.47761 8.52311 0)
(7.43308 6.67674 0)
(6.79467 6.71231 0)
(7.58168 3.90486 0)
(7.05592 4.7073 0)
(7.669 1.91239 0)
(7.58978 2.69642 0)
(8.24994 -0.180404 0)
(8.25955 -0.167558 0)
(8.43639 -2.88904 0)
(7.92966 -1.60312 0)
(7.80249 -3.64617 0)
(7.12142 -1.26679 0)
(6.94751 -2.99054 0)
(6.2389 -0.53763 0)
(6.29523 -2.3811 0)
(5.82757 0.424892 0)
(5.96806 -2.10453 0)
(5.58146 0.804281 0)
(6.03668 -1.58068 0)
(5.37153 1.06317 0)
(5.94342 -1.67734 0)
(5.43585 1.39945 0)
(6.05493 -1.42397 0)
(5.23976 1.3422 0)
(6.19578 -1.46369 0)
(5.36749 1.71164 0)
(6.3221 -1.3228 0)
(5.234 1.58445 0)
(6.63604 -1.28912 0)
(5.3607 1.98802 0)
(6.99581 -1.10128 0)
(5.16927 1.95015 0)
(7.61035 -1.0829 0)
(5.30743 2.34094 0)
(8.62111 -0.727399 0)
(5.21043 2.43487 0)
(10.0112 -0.629704 0)
(5.56333 2.82357 0)
(12.0457 -0.0424518 0)
(6.47739 3.29868 0)
(13.712 0.46423 0)
(7.76423 4.20401 0)
(13.9869 0.86715 0)
(8.68774 5.81642 0)
(11.4559 1.50274 0)
(9.03722 7.13472 0)
(13.0409 -0.0231861 0)
(13.3343 -0.302664 0)
(12.9316 -0.0947696 0)
(13.0459 0.198694 0)
(13.4128 -0.0978076 0)
(13.1957 0.0952758 0)
(13.8683 0.0374413 0)
(14.3521 -0.345719 0)
(14.6558 -0.582906 0)
(15.0097 -1.34888 0)
(15.0685 -1.93799 0)
(15.1554 -2.58522 0)
(14.7158 -3.14515 0)
(14.1489 -3.08161 0)
(14.0753 -3.37298 0)
(14.0286 -3.54211 0)
(13.8831 -3.34966 0)
(13.776 -3.1909 0)
(13.6922 -2.75489 0)
(13.7465 -2.10012 0)
(12.9223 -0.935736 0)
(12.5845 0.374053 0)
(12.7669 0.941533 0)
(12.2851 1.44336 0)
(12.2402 1.62126 0)
(11.9372 1.31204 0)
(11.3561 0.977731 0)
(11.0864 0.345899 0)
(10.5063 -0.2812 0)
(10.1153 -0.848186 0)
(9.96164 -1.50837 0)
(9.41134 -1.72179 0)
(8.80605 -1.57667 0)
(8.86181 -2.07427 0)
(8.81847 -2.49384 0)
(7.77624 -1.45915 0)
(6.15276 0.210687 0)
(4.79783 0.00704591 0)
(3.84863 -2.60747 0)
(2.53446 -5.8812 0)
(1.75453 -7.51516 0)
(1.52147 -7.10346 0)
(1.12577 -6.32877 0)
(1.08941 -5.18026 0)
(0.430596 -4.08523 0)
(1.01714 -1.67807 0)
(1.18924 -0.343618 0)
(1.75312 2.54295 0)
(2.97638 3.08267 0)
(3.10102 4.33022 0)
(4.44142 4.48811 0)
(4.79179 6.73523 0)
(6.21647 7.07621 0)
(6.11841 8.43019 0)
(7.17906 6.53072 0)
(6.79269 6.69356 0)
(7.30326 3.7289 0)
(7.192 4.57477 0)
(7.78008 1.73854 0)
(7.94582 2.50918 0)
(8.41927 -0.265464 0)
(8.67166 -0.215687 0)
(8.5544 -2.77764 0)
(8.23626 -1.44273 0)
(7.77056 -3.49343 0)
(7.33743 -1.12312 0)
(7.07104 -2.86914 0)
(6.53383 -0.385077 0)
(6.39805 -2.32513 0)
(5.98883 0.539889 0)
(5.96867 -2.11318 0)
(5.63928 0.89421 0)
(5.87917 -1.64113 0)
(5.44038 1.18018 0)
(5.74072 -1.79777 0)
(5.43014 1.50884 0)
(5.86511 -1.52698 0)
(5.25065 1.4582 0)
(5.89318 -1.63749 0)
(5.36083 1.83745 0)
(6.06377 -1.47439 0)
(5.23221 1.67876 0)
(6.20692 -1.5056 0)
(5.37895 2.07456 0)
(6.5173 -1.28056 0)
(5.21674 1.97432 0)
(6.69612 -1.35139 0)
(5.39811 2.32471 0)
(7.19062 -0.949509 0)
(5.09946 2.52878 0)
(7.25296 -1.04807 0)
(5.26266 3.02087 0)
(8.16108 -0.586438 0)
(5.76899 3.72628 0)
(9.03564 -0.364833 0)
(7.11398 4.72412 0)
(11.2885 0.217524 0)
(9.08392 5.95893 0)
(13.1292 2.05212 0)
(10.063 6.39737 0)
(13.424 -0.0395223 0)
(13.6588 -0.240612 0)
(13.0645 -0.0843657 0)
(13.2698 0.148981 0)
(13.5764 -0.111216 0)
(13.4811 -0.0645035 0)
(14.1257 -0.151404 0)
(14.3171 -0.450123 0)
(14.6044 -0.722939 0)
(14.8708 -1.45734 0)
(14.7996 -1.99626 0)
(14.7481 -2.52883 0)
(14.2753 -2.99407 0)
(13.9521 -2.98734 0)
(14.0489 -3.32848 0)
(14.0251 -3.52224 0)
(13.8518 -3.37435 0)
(13.8431 -3.19424 0)
(13.7323 -2.72489 0)
(13.4828 -1.97087 0)
(12.8441 -0.766346 0)
(12.658 0.398639 0)
(12.6441 1.04232 0)
(12.2003 1.63577 0)
(12.0514 1.78268 0)
(11.6774 1.47722 0)
(11.1662 1.11382 0)
(10.7895 0.544608 0)
(10.5022 -0.0871864 0)
(10.2225 -0.730279 0)
(9.80843 -1.34393 0)
(9.22569 -1.46189 0)
(8.85839 -1.466 0)
(8.96588 -2.04397 0)
(8.77312 -2.22655 0)
(7.58618 -0.904732 0)
(5.934 0.819515 0)
(4.60889 0.494948 0)
(3.6905 -2.17564 0)
(2.19536 -5.42317 0)
(1.06318 -7.20495 0)
(0.626728 -6.97592 0)
(0.340027 -6.21502 0)
(0.259886 -5.04328 0)
(-0.541506 -3.98635 0)
(0.141361 -1.83334 0)
(0.362256 -0.522893 0)
(0.819523 2.1671 0)
(1.82047 2.03516 0)
(2.6814 4.44273 0)
(3.94267 4.26258 0)
(4.02502 6.76972 0)
(5.51078 6.58942 0)
(5.64201 8.18658 0)
(6.88196 6.28791 0)
(6.64604 6.66592 0)
(7.23741 3.63999 0)
(7.47507 4.53583 0)
(7.91705 1.6755 0)
(8.29229 2.36881 0)
(8.57495 -0.379463 0)
(8.97462 -0.255039 0)
(8.71632 -2.69527 0)
(8.46526 -1.28021 0)
(7.78379 -3.26151 0)
(7.33705 -0.907247 0)
(6.89003 -2.73727 0)
(6.47495 -0.182065 0)
(6.33728 -2.31399 0)
(6.00299 0.71405 0)
(6.03849 -2.14164 0)
(5.62864 1.0118 0)
(5.93768 -1.73961 0)
(5.46889 1.33655 0)
(5.83602 -1.94464 0)
(5.36818 1.61831 0)
(5.9397 -1.66118 0)
(5.25841 1.62629 0)
(5.92284 -1.87919 0)
(5.28188 1.97702 0)
(6.12499 -1.65571 0)
(5.16647 1.89188 0)
(6.17866 -1.82036 0)
(5.25581 2.24235 0)
(6.53411 -1.52582 0)
(5.13662 2.23939 0)
(6.61438 -1.74783 0)
(5.2795 2.47163 0)
(7.16401 -1.25708 0)
(5.32605 2.80139 0)
(7.08238 -1.47889 0)
(5.67521 3.00466 0)
(7.56454 -1.15983 0)
(6.31528 3.91733 0)
(7.52399 -1.08817 0)
(6.91598 4.92402 0)
(8.97765 -0.479265 0)
(8.12542 5.65683 0)
(11.8596 1.74898 0)
(10.8434 5.84315 0)
(13.3414 -0.0450209 0)
(13.5253 -0.108788 0)
(13.1733 -0.0271623 0)
(13.4289 0.0836239 0)
(13.7967 -0.185291 0)
(13.776 -0.23357 0)
(13.9479 -0.232037 0)
(13.9656 -0.489109 0)
(14.3788 -0.843698 0)
(14.5676 -1.49187 0)
(14.4661 -1.98152 0)
(14.3977 -2.38922 0)
(14.0487 -2.85724 0)
(13.9896 -2.9958 0)
(13.9922 -3.33032 0)
(13.8897 -3.51119 0)
(13.6793 -3.3493 0)
(13.4864 -3.14943 0)
(13.2488 -2.60378 0)
(12.76 -1.77644 0)
(12.2161 -0.61254 0)
(12.1664 0.470385 0)
(12.1994 1.12297 0)
(11.9359 1.68499 0)
(11.7091 1.87861 0)
(11.3887 1.67432 0)
(10.8714 1.31081 0)
(10.5132 0.680691 0)
(10.4025 0.0164383 0)
(10.0753 -0.586263 0)
(9.52807 -1.0932 0)
(9.00515 -1.27646 0)
(8.75201 -1.46363 0)
(8.8595 -2.00189 0)
(8.57143 -1.89461 0)
(7.30623 -0.341143 0)
(5.64907 1.41625 0)
(4.45833 0.969262 0)
(3.56692 -1.70671 0)
(1.97047 -4.85478 0)
(0.393907 -6.7632 0)
(-0.272504 -6.84759 0)
(-0.553249 -6.04424 0)
(-0.589281 -4.92622 0)
(-1.01873 -3.9368 0)
(-0.344442 -1.96829 0)
(-0.39287 -0.728093 0)
(0.139464 2.16531 0)
(1.48402 1.92632 0)
(1.66994 3.88625 0)
(2.85543 3.26686 0)
(3.66852 6.57295 0)
(5.01431 6.05063 0)
(5.17406 8.02339 0)
(6.50291 6.02608 0)
(6.48815 6.61119 0)
(7.16037 3.41601 0)
(7.88781 4.33159 0)
(7.90712 1.55101 0)
(8.58434 2.13041 0)
(8.69796 -0.445971 0)
(9.25917 -0.320394 0)
(8.79927 -2.53025 0)
(8.6066 -1.15128 0)
(7.88624 -2.98326 0)
(7.48433 -0.721167 0)
(6.83839 -2.50115 0)
(6.5483 -0.0486609 0)
(6.11697 -2.18427 0)
(6.03242 0.788235 0)
(5.82571 -2.05912 0)
(5.66846 1.08702 0)
(5.69982 -1.74715 0)
(5.52773 1.39705 0)
(5.62625 -1.97322 0)
(5.39169 1.69491 0)
(5.69303 -1.76247 0)
(5.31408 1.7129 0)
(5.69046 -1.96999 0)
(5.2793 2.07821 0)
(5.85012 -1.80896 0)
(5.25257 1.98632 0)
(5.87894 -1.97347 0)
(5.27034 2.3396 0)
(6.14652 -1.74105 0)
(5.24216 2.36831 0)
(6.18331 -1.98289 0)
(5.35333 2.61374 0)
(6.54506 -1.58165 0)
(5.42478 3.02764 0)
(6.51705 -1.85955 0)
(5.70938 3.26625 0)
(7.04258 -1.60356 0)
(6.40241 4.14577 0)
(7.38731 -1.27038 0)
(6.94313 4.73151 0)
(8.05884 -0.585099 0)
(7.81984 5.19439 0)
(9.53522 1.19182 0)
(10.6593 5.21221 0)
(13.1796 -0.0404907 0)
(13.3621 -0.0628565 0)
(13.3195 -0.0686199 0)
(13.599 0.00837115 0)
(13.8656 -0.222308 0)
(13.581 -0.234318 0)
(13.558 -0.17939 0)
(13.891 -0.597829 0)
(14.3079 -1.00997 0)
(14.3248 -1.47991 0)
(14.2295 -1.92269 0)
(14.1813 -2.28384 0)
(13.9836 -2.78775 0)
(13.9298 -3.01914 0)
(13.7278 -3.2388 0)
(13.444 -3.42656 0)
(13.1771 -3.30693 0)
(12.7744 -2.98688 0)
(12.2486 -2.3326 0)
(11.6489 -1.53399 0)
(11.3694 -0.541945 0)
(11.4248 0.433524 0)
(11.4334 1.16322 0)
(11.2403 1.80879 0)
(11.0311 2.03941 0)
(10.8015 1.84599 0)
(10.4019 1.43536 0)
(10.1907 0.75667 0)
(10.0471 0.128699 0)
(9.58964 -0.391918 0)
(9.09034 -0.905134 0)
(8.72238 -1.16758 0)
(8.54895 -1.44301 0)
(8.5736 -1.89704 0)
(8.15229 -1.54023 0)
(6.88417 0.226338 0)
(5.29471 1.94568 0)
(4.32903 1.39454 0)
(3.56596 -1.19147 0)
(1.87033 -4.19609 0)
(0.0556895 -6.2403 0)
(-1.01844 -6.63934 0)
(-1.35298 -6.00316 0)
(-1.07896 -4.94901 0)
(-1.24905 -3.98918 0)
(-0.289347 -2.09271 0)
(-1.1182 -0.713644 0)
(-0.692914 1.51514 0)
(0.209798 0.920785 0)
(1.19596 4.1708 0)
(2.31197 2.92068 0)
(2.76801 6.55719 0)
(4.024 5.28967 0)
(4.99214 7.7666 0)
(6.12725 5.67473 0)
(6.45376 6.41161 0)
(7.01421 3.11404 0)
(7.94941 4.14729 0)
(7.95602 1.47892 0)
(8.79488 1.97643 0)
(8.86781 -0.556402 0)
(9.4112 -0.354542 0)
(8.80539 -2.38588 0)
(8.56847 -0.95489 0)
(7.80612 -2.7683 0)
(7.4777 -0.522799 0)
(6.88471 -2.32599 0)
(6.63462 0.0986175 0)
(6.26259 -2.07702 0)
(6.05448 0.884018 0)
(5.97504 -1.97921 0)
(5.7028 1.1585 0)
(5.75262 -1.717 0)
(5.55079 1.48794 0)
(5.72805 -1.96948 0)
(5.37776 1.74832 0)
(5.72089 -1.77758 0)
(5.32488 1.81536 0)
(5.73483 -2.07372 0)
(5.26422 2.14386 0)
(5.85307 -1.94758 0)
(5.22922 2.15136 0)
(5.89207 -2.19657 0)
(5.22112 2.48223 0)
(6.12074 -1.98077 0)
(5.2899 2.59995 0)
(6.21475 -2.30149 0)
(5.35732 2.80357 0)
(6.43683 -1.93808 0)
(5.66685 3.32066 0)
(6.62392 -2.16141 0)
(5.97459 3.38594 0)
(6.771 -1.94627 0)
(6.61439 4.14371 0)
(7.13676 -1.29728 0)
(7.11177 4.56621 0)
(7.48667 -0.567435 0)
(7.9839 4.6126 0)
(8.42464 0.98662 0)
(10.0232 4.39253 0)
(13.1368 -0.0459142 0)
(13.3748 -0.0610437 0)
(13.3731 -0.13809 0)
(13.4838 -0.0352478 0)
(13.6241 -0.143008 0)
(13.4589 -0.238267 0)
(13.7197 -0.330386 0)
(14.0975 -0.737563 0)
(14.1589 -1.02606 0)
(14.0693 -1.39349 0)
(14.0168 -1.87947 0)
(13.9583 -2.24116 0)
(13.7498 -2.69967 0)
(13.4884 -2.97522 0)
(13.1319 -3.13995 0)
(12.7651 -3.26511 0)
(12.1605 -3.0902 0)
(11.3849 -2.67516 0)
(10.8146 -2.0721 0)
(10.4029 -1.41378 0)
(10.1908 -0.515172 0)
(10.1182 0.45658 0)
(10.195 1.22054 0)
(10.1382 1.85488 0)
(10.0712 2.10735 0)
(10.0477 1.95873 0)
(9.79781 1.50319 0)
(9.63548 0.817915 0)
(9.38367 0.2896 0)
(8.96415 -0.213676 0)
(8.64293 -0.773376 0)
(8.40751 -1.08264 0)
(8.22482 -1.3893 0)
(8.10984 -1.73985 0)
(7.58008 -1.1291 0)
(6.3387 0.767307 0)
(4.90629 2.39892 0)
(4.26063 1.74375 0)
(3.65018 -0.691613 0)
(2.0241 -3.49641 0)
(0.0155317 -5.61515 0)
(-1.2927 -6.31721 0)
(-1.80084 -5.93466 0)
(-1.44121 -5.2022 0)
(-1.2861 -4.32785 0)
(-0.110895 -2.09304 0)
(-2.23136 -0.495888 0)
(-0.825706 1.49211 0)
(-0.58873 0.862148 0)
(0.441269 3.62999 0)
(0.928312 1.89426 0)
(2.35273 6.50133 0)
(3.05446 4.42701 0)
(4.70101 7.6571 0)
(5.33432 5.23991 0)
(6.40182 6.12025 0)
(6.97639 2.92921 0)
(7.90446 3.90564 0)
(7.82653 1.3039 0)
(9.06866 1.69707 0)
(8.84375 -0.623279 0)
(9.60896 -0.377477 0)
(8.62139 -2.09852 0)
(8.66574 -0.804101 0)
(7.56522 -2.43979 0)
(7.46438 -0.366052 0)
(6.55454 -2.0896 0)
(6.62288 0.179926 0)
(5.99282 -1.87807 0)
(6.08374 0.884301 0)
(5.72405 -1.84896 0)
(5.78202 1.18462 0)
(5.54536 -1.64773 0)
(5.61058 1.44155 0)
(5.54199 -1.84961 0)
(5.43356 1.76407 0)
(5.49393 -1.73169 0)
(5.40734 1.81444 0)
(5.5344 -1.96775 0)
(5.29571 2.19882 0)
(5.60191 -1.90985 0)
(5.31827 2.18692 0)
(5.6798 -2.17335 0)
(5.28016 2.52001 0)
(5.82191 -2.08068 0)
(5.39842 2.65724 0)
(5.97706 -2.36676 0)
(5.45123 2.92225 0)
(6.11125 -2.15511 0)
(5.77721 3.356 0)
(6.42631 -2.25493 0)
(6.07589 3.42496 0)
(6.6193 -2.00008 0)
(6.65244 4.12906 0)
(7.1526 -1.25373 0)
(7.26368 4.2219 0)
(7.65433 -0.421107 0)
(8.14499 3.96842 0)
(8.72325 1.08096 0)
(9.67564 3.54726 0)
(13.2259 -0.0807002 0)
(13.4148 -0.059579 0)
(13.3302 -0.111257 0)
(13.3472 -0.00229809 0)
(13.5696 -0.139376 0)
(13.6854 -0.379201 0)
(13.8499 -0.42571 0)
(13.8638 -0.685992 0)
(13.8084 -1.0035 0)
(13.808 -1.36268 0)
(13.7664 -1.80788 0)
(13.6023 -2.17593 0)
(13.2656 -2.58321 0)
(12.851 -2.79948 0)
(12.2227 -2.91773 0)
(11.4117 -2.97588 0)
(10.4856 -2.73068 0)
(9.65124 -2.33919 0)
(9.15324 -1.85118 0)
(8.7889 -1.24346 0)
(8.46785 -0.386054 0)
(8.44571 0.495677 0)
(8.73205 1.17837 0)
(8.83741 1.79671 0)
(9.03724 2.07487 0)
(9.11272 1.95106 0)
(8.94558 1.52745 0)
(8.91663 0.931462 0)
(8.66582 0.439103 0)
(8.36619 -0.0911628 0)
(8.10992 -0.663116 0)
(7.79605 -1.00685 0)
(7.52607 -1.33053 0)
(7.32644 -1.52402 0)
(6.77082 -0.714594 0)
(5.65534 1.2456 0)
(4.49981 2.72965 0)
(4.25839 1.98991 0)
(3.88751 -0.235765 0)
(2.37753 -2.77063 0)
(0.343228 -4.92333 0)
(-1.21683 -5.78681 0)
(-1.89911 -5.76139 0)
(-1.78252 -5.53884 0)
(-1.83571 -4.70648 0)
(-0.856702 -2.03503 0)
(-3.29815 -0.2422 0)
(-1.44261 0.886327 0)
(-2.11997 0.477782 0)
(-0.262463 3.4495 0)
(-0.0234138 1.52411 0)
(1.66052 6.48388 0)
(1.45284 3.37258 0)
(4.36442 7.46484 0)
(4.61658 4.56273 0)
(6.28892 5.70461 0)
(6.62533 2.6831 0)
(7.8886 3.66132 0)
(7.83209 1.15918 0)
(9.26512 1.46424 0)
(8.88899 -0.652136 0)
(9.5815 -0.37491 0)
(8.49967 -1.88991 0)
(8.57725 -0.661426 0)
(7.57283 -2.17105 0)
(7.42829 -0.218283 0)
(6.62268 -1.84147 0)
(6.67511 0.211103 0)
(6.00656 -1.69566 0)
(6.11526 0.875395 0)
(5.76736 -1.71234 0)
(5.80944 1.1388 0)
(5.56485 -1.51436 0)
(5.63643 1.41175 0)
(5.53557 -1.76632 0)
(5.46233 1.74197 0)
(5.49468 -1.66364 0)
(5.43087 1.79558 0)
(5.52264 -1.92366 0)
(5.30438 2.17937 0)
(5.58983 -1.8935 0)
(5.34766 2.19978 0)
(5.66417 -2.13305 0)
(5.29348 2.57687 0)
(5.80221 -2.05704 0)
(5.43571 2.72951 0)
(5.99267 -2.36641 0)
(5.48992 2.98408 0)
(6.09939 -2.16022 0)
(5.86473 3.42009 0)
(6.45785 -2.19985 0)
(6.20877 3.42206 0)
(6.69893 -1.94849 0)