/*--------------------------------*- C++ -*----------------------------------*\
| =========                 |                                                 |
| \\      /  F ield         | OpenFOAM: The Open Source CFD Toolbox           |
|  \\    /   O peration     | Version:  2.4.0                                 |
|   \\  /    A nd           | Web:      www.OpenFOAM.org                      |
|    \\/     M anipulation  |                                                 |
\*---------------------------------------------------------------------------*/
FoamFile
{
    version     2.0;
    format      ascii;
    class       volSymmTensorField;
    location    "0.076";
    object      UPrime2Mean;
}
// * * * * * * * * * * * * * * * * * * * * * * * * * * * * * * * * * * * * * //

dimensions      [0 2 -2 0 0 0 0];

internalField   nonuniform List<symmTensor> 
4400
(
(0.0771087 -0.00765466 0 0.00132734 0 0)
(0.845841 -0.00218481 0 0.000112322 0 0)
(0.958346 -0.00139531 0 5.18379e-06 0 0)
(1.07533 -0.000869989 0 2.59384e-06 0 0)
(1.15564 -3.45423e-05 0 1.09738e-06 0 0)
(1.19584 7.63778e-05 0 1.58829e-06 0 0)
(1.22399 -6.64689e-05 0 1.82286e-06 0 0)
(1.28294 0.000204842 0 6.38429e-06 0 0)
(1.43621 -0.0232205 0 0.000506878 0 0)
(2.316 0.132235 0 0.0164507 0 0)
(0.0543383 0.023006 0 0.0138826 0 0)
(0.339931 -0.0268035 0 0.00240007 0 0)
(0.489409 -0.015868 0 0.000524086 0 0)
(0.68314 -0.0129739 0 0.00031134 0 0)
(0.883897 -0.00845562 0 0.000194531 0 0)
(1.03355 -0.00509053 0 6.40987e-05 0 0)
(1.09856 -0.00490981 0 0.000102469 0 0)
(1.37131 -0.00722989 0 0.000128434 0 0)
(1.15693 -0.0245284 0 0.0014607 0 0)
(3.92761 -0.431431 0 0.0975084 0 0)
(0.177469 0.0567293 0 0.0191633 0 0)
(0.0574799 -0.0150079 0 0.00585883 0 0)
(0.107428 -0.0134805 0 0.0021416 0 0)
(0.199511 -0.0169525 0 0.0015471 0 0)
(0.352669 -0.0159601 0 0.00110035 0 0)
(0.525673 -0.0113673 0 0.000390406 0 0)
(0.57897 -0.0136917 0 0.000714791 0 0)
(0.925594 -0.00281638 0 0.000486328 0 0)
(0.680344 -0.0728894 0 0.0119946 0 0)
(2.6312 -0.415372 0 0.161052 0 0)
(0.221246 0.0558476 0 0.0146982 0 0)
(0.00866297 0.00197709 0 0.00750291 0 0)
(0.03351 0.0041355 0 0.00371007 0 0)
(0.0302846 -0.0011395 0 0.00352961 0 0)
(0.0422345 -0.00743085 0 0.00306333 0 0)
(0.123667 -0.00915862 0 0.000962077 0 0)
(0.114884 -0.0131826 0 0.00222279 0 0)
(0.34017 -5.51802e-05 0 0.00100487 0 0)
(0.244917 -0.0496346 0 0.0214027 0 0)
(0.773706 -0.148033 0 0.158081 0 0)
(0.210084 0.0429062 0 0.00920527 0 0)
(0.0137767 0.00581972 0 0.00595536 0 0)
(0.0863572 0.0139886 0 0.00333473 0 0)
(0.122245 0.0178247 0 0.00431221 0 0)
(0.109306 0.0132953 0 0.00460266 0 0)
(0.0781182 0.00376689 0 0.00219938 0 0)
(0.0732191 0.00167153 0 0.00262135 0 0)
(0.0701928 -0.000874436 0 0.0026678 0 0)
(0.105503 0.00130404 0 0.0174303 0 0)
(0.164239 0.0342959 0 0.228873 0 0)
(0.209687 0.0337635 0 0.00578369 0 0)
(0.0147761 0.00398876 0 0.00415764 0 0)
(0.0962827 0.0114543 0 0.0020166 0 0)
(0.178852 0.0198569 0 0.0034358 0 0)
(0.237063 0.0236241 0 0.00457933 0 0)
(0.227509 0.0150601 0 0.00214659 0 0)
(0.248162 0.0182051 0 0.00419578 0 0)
(0.227889 0.0106203 0 0.00244853 0 0)
(0.226106 0.057105 0 0.0292922 0 0)
(0.292558 0.148995 0 0.144774 0 0)
(0.208834 0.0259591 0 0.00350263 0 0)
(0.0106432 0.00248424 0 0.00278441 0 0)
(0.0849805 0.00764839 0 0.00114689 0 0)
(0.17596 0.0146366 0 0.00190989 0 0)
(0.246827 0.0196497 0 0.00273881 0 0)
(0.286628 0.0155767 0 0.00240359 0 0)
(0.352075 0.0181179 0 0.00238595 0 0)
(0.377271 0.0266032 0 0.00540961 0 0)
(0.443436 0.0652848 0 0.0157033 0 0)
(0.526171 0.224328 0 0.16959 0 0)
(0.204926 0.0177707 0 0.00175385 0 0)
(0.00734422 0.00146908 0 0.00187096 0 0)
(0.0780768 0.00440164 0 0.000766041 0 0)
(0.169914 0.0103679 0 0.00149424 0 0)
(0.231632 0.0122717 0 0.00214794 0 0)
(0.289987 0.00989804 0 0.00148017 0 0)
(0.3408 0.0158591 0 0.00228965 0 0)
(0.421977 0.0194128 0 0.00321387 0 0)
(0.490485 0.0728991 0 0.0192998 0 0)
(0.6983 0.240353 0 0.137207 0 0)
(0.204278 0.0108327 0 0.000694149 0 0)
(0.0077745 0.000633563 0 0.000743368 0 0)
(0.0752402 0.00231733 0 0.000384739 0 0)
(0.165312 0.00554332 0 0.000667267 0 0)
(0.222419 0.00731213 0 0.00103678 0 0)
(0.280224 0.00642291 0 0.00127366 0 0)
(0.329813 0.00882716 0 0.00151558 0 0)
(0.415911 0.0208281 0 0.00399924 0 0)
(0.499053 0.066013 0 0.0132023 0 0)
(0.726664 0.214216 0 0.0958966 0 0)
(0.204839 0.00328866 0 0.000137576 0 0)
(0.00702583 8.94041e-05 0 0.000295559 0 0)
(0.0730584 0.000421407 0 0.00025351 0 0)
(0.162164 0.0021905 0 0.000398139 0 0)
(0.219722 0.00193487 0 0.000622279 0 0)
(0.275612 0.00139623 0 0.000762307 0 0)
(0.325737 0.00585543 0 0.000780496 0 0)
(0.413598 0.0171517 0 0.00257402 0 0)
(0.508965 0.0568196 0 0.0108659 0 0)
(0.752889 0.200461 0 0.0856083 0 0)
(0.205305 -0.00366676 0 0.000117219 0 0)
(0.00654792 -0.000389778 0 0.000201795 0 0)
(0.0731731 -0.00121921 0 0.000190273 0 0)
(0.161475 -0.00209269 0 0.000292368 0 0)
(0.21923 -0.00282974 0 0.000461312 0 0)
(0.27452 -0.00265426 0 0.000747113 0 0)
(0.326313 0.00110683 0 0.00062499 0 0)
(0.418329 0.0120671 0 0.0022513 0 0)
(0.524414 0.050719 0 0.00819281 0 0)
(0.790166 0.174621 0 0.0596339 0 0)
(0.205285 -0.0111817 0 0.000692457 0 0)
(0.00662145 -0.00109514 0 0.000696769 0 0)
(0.0746844 -0.00332465 0 0.000349366 0 0)
(0.162752 -0.00602434 0 0.000484561 0 0)
(0.222569 -0.00837792 0 0.00073841 0 0)
(0.279386 -0.00810278 0 0.00102731 0 0)
(0.333433 -0.00380766 0 0.000611301 0 0)
(0.43006 0.00728691 0 0.00191659 0 0)
(0.546088 0.0395401 0 0.00600621 0 0)
(0.826482 0.145994 0 0.0429776 0 0)
(0.20832 -0.0185487 0 0.00177461 0 0)
(0.0069005 -0.00169749 0 0.0016381 0 0)
(0.0788664 -0.00552097 0 0.000697967 0 0)
(0.164252 -0.0101971 0 0.00108447 0 0)
(0.233471 -0.0139482 0 0.00152333 0 0)
(0.284277 -0.01245 0 0.00155783 0 0)
(0.349237 -0.00857439 0 0.000866199 0 0)
(0.440818 0.00120887 0 0.00190456 0 0)
(0.570974 0.0294134 0 0.00419399 0 0)
(0.84658 0.115001 0 0.0300706 0 0)
(0.210947 -0.0264607 0 0.00351247 0 0)
(0.00798823 -0.0022661 0 0.00276599 0 0)
(0.0860907 -0.00829069 0 0.00119596 0 0)
(0.167931 -0.0144587 0 0.00184949 0 0)
(0.250437 -0.0201885 0 0.00256005 0 0)
(0.283492 -0.0169697 0 0.00232393 0 0)
(0.357487 -0.0137442 0 0.00137516 0 0)
(0.409593 -0.00350494 0 0.00185808 0 0)
(0.531671 0.0193744 0 0.00301884 0 0)
(0.726221 0.0809972 0 0.0185215 0 0)
(0.208439 -0.0341646 0 0.00588842 0 0)
(0.00956561 -0.00349984 0 0.00403754 0 0)
(0.0935561 -0.0119156 0 0.00210174 0 0)
(0.171358 -0.0193298 0 0.00311611 0 0)
(0.234035 -0.0241744 0 0.00390813 0 0)
(0.223146 -0.0168585 0 0.00308481 0 0)
(0.253423 -0.0129066 0 0.00170556 0 0)
(0.24471 -0.00266915 0 0.00186519 0 0)
(0.302408 0.0121399 0 0.0021389 0 0)
(0.404082 0.0496627 0 0.0111759 0 0)
(0.211328 -0.0432734 0 0.00927256 0 0)
(0.0108875 -0.00536338 0 0.00588987 0 0)
(0.0843414 -0.0142767 0 0.00344692 0 0)
(0.115625 -0.0172503 0 0.00421943 0 0)
(0.105958 -0.0138881 0 0.00418366 0 0)
(0.0695157 -0.00428362 0 0.00276766 0 0)
(0.0699732 -0.00206153 0 0.00132661 0 0)
(0.0687412 0.00301244 0 0.00129658 0 0)
(0.0880075 0.00578166 0 0.00143327 0 0)
(0.151898 0.0227488 0 0.00595812 0 0)
(0.221992 -0.056109 0 0.0147777 0 0)
(0.00816573 -0.00167107 0 0.00744677 0 0)
(0.0321447 -0.0043367 0 0.00381345 0 0)
(0.0272482 0.0014936 0 0.00341118 0 0)
(0.0396971 0.00749335 0 0.00268959 0 0)
(0.100375 0.00968482 0 0.00152009 0 0)
(0.14363 0.00621232 0 0.000629914 0 0)
(0.203017 0.00466709 0 0.000672628 0 0)
(0.206926 -0.00275679 0 0.000866336 0 0)
(0.215547 0.00605293 0 0.00295699 0 0)
(0.177517 -0.056782 0 0.0191923 0 0)
(0.0583502 0.0150848 0 0.00583041 0 0)
(0.1056 0.0135222 0 0.00218239 0 0)
(0.201781 0.016943 0 0.00150501 0 0)
(0.34508 0.0161082 0 0.00101627 0 0)
(0.514695 0.0110488 0 0.000512399 0 0)
(0.590092 0.00588603 0 0.000191313 0 0)
(0.679883 0.00226746 0 0.00024306 0 0)
(0.652497 -0.00814604 0 0.00042172 0 0)
(0.588229 0.00578528 0 0.00147797 0 0)
(0.0543144 -0.0230009 0 0.0138928 0 0)
(0.340878 0.0267918 0 0.00239473 0 0)
(0.488301 0.0159613 0 0.000532887 0 0)
(0.686286 0.012864 0 0.000302064 0 0)
(0.877326 0.00864583 0 0.00017804 0 0)
(1.03231 0.00444521 0 8.10561e-05 0 0)
(1.08697 0.00196781 0 2.98412e-05 0 0)
(1.14886 -0.000157446 0 4.93517e-05 0 0)
(1.09955 -0.00656431 0 0.000120644 0 0)
(0.98786 0.00773776 0 0.000686996 0 0)
(0.0771672 0.00765967 0 0.00132771 0 0)
(0.846095 0.0021724 0 0.000112448 0 0)
(0.958257 0.00141525 0 5.28416e-06 0 0)
(1.07626 0.000841867 0 2.45214e-06 0 0)
(1.15352 5.22984e-05 0 8.59643e-07 0 0)
(1.19565 -0.000171245 0 8.39877e-07 0 0)
(1.20487 -0.000200405 0 7.74735e-07 0 0)
(1.21132 -0.000427686 0 1.33306e-06 0 0)
(1.17257 -0.00155912 0 5.00812e-06 0 0)
(1.06517 0.00354805 0 0.000263812 0 0)
(6.97685 -4.62189 0 3.84718 0 0)
(6.30493 -3.41314 0 4.40453 0 0)
(5.24236 -2.57683 0 4.56332 0 0)
(5.12351 -2.19093 0 4.81414 0 0)
(4.66971 -1.57034 0 4.70538 0 0)
(4.6566 -1.31976 0 4.76132 0 0)
(4.75786 -1.10241 0 4.71028 0 0)
(5.1607 -1.07391 0 4.71191 0 0)
(5.36174 -1.30365 0 4.62123 0 0)
(5.6562 -1.75195 0 4.65446 0 0)
(5.24354 -2.08493 0 4.95619 0 0)
(4.89995 -2.268 0 5.21987 0 0)
(4.75495 -2.21928 0 5.13018 0 0)
(5.0377 -2.49455 0 5.0183 0 0)
(5.47321 -2.9305 0 5.07798 0 0)
(5.81726 -3.31043 0 5.26299 0 0)
(6.54643 -3.80538 0 5.49022 0 0)
(7.32023 -4.20219 0 5.77683 0 0)
(8.13892 -4.62311 0 6.10043 0 0)
(9.03273 -5.10395 0 6.61808 0 0)
(9.58943 -5.40198 0 7.03858 0 0)
(9.95493 -5.46938 0 7.28387 0 0)
(10.1783 -5.43015 0 7.39677 0 0)
(10.6953 -5.6944 0 7.57495 0 0)
(11.1605 -6.03922 0 7.75674 0 0)
(11.1515 -6.21163 0 7.8136 0 0)
(10.4831 -5.88379 0 7.78754 0 0)
(9.46525 -5.14817 0 7.57798 0 0)
(8.24377 -4.05748 0 7.23161 0 0)
(7.11076 -2.85192 0 6.81092 0 0)
(6.23345 -1.75546 0 6.5203 0 0)
(5.48768 -0.835679 0 6.41603 0 0)
(4.85964 0.0382754 0 6.46378 0 0)
(4.348 0.677995 0 6.52912 0 0)
(3.98898 1.41797 0 6.8258 0 0)
(3.61194 1.77708 0 6.77108 0 0)
(3.45915 2.46116 0 7.2056 0 0)
(3.1444 2.45692 0 7.25175 0 0)
(3.1378 3.04946 0 7.89746 0 0)
(2.80463 2.71976 0 7.44486 0 0)
(2.88901 3.07597 0 6.89952 0 0)
(2.6262 2.86804 0 6.02853 0 0)
(2.79712 3.0349 0 5.3068 0 0)
(2.5664 3.14586 0 5.20798 0 0)
(2.84931 3.26713 0 4.68053 0 0)
(2.47612 3.4115 0 5.36785 0 0)
(3.01407 3.57297 0 5.23778 0 0)
(2.11067 3.347 0 5.93936 0 0)
(2.84153 3.3782 0 5.81025 0 0)
(1.82468 2.95647 0 6.03325 0 0)
(1.96966 2.47037 0 5.45409 0 0)
(1.38327 2.02058 0 5.10661 0 0)
(1.29791 1.41281 0 3.89799 0 0)
(0.744535 0.751602 0 2.96945 0 0)
(0.786378 0.367412 0 1.82913 0 0)
(0.458628 0.111427 0 1.43232 0 0)
(0.527659 -0.134049 0 0.928609 0 0)
(0.319412 -0.0972401 0 0.735664 0 0)
(0.424406 -0.297086 0 0.666016 0 0)
(0.223139 -0.146184 0 0.42554 0 0)
(0.354006 -0.391747 0 0.695999 0 0)
(0.156065 -0.155694 0 0.393399 0 0)
(0.290404 -0.354927 0 0.789087 0 0)
(0.106701 -0.108286 0 0.41731 0 0)
(0.248291 -0.257524 0 0.622269 0 0)
(0.0759713 -0.0416209 0 0.271763 0 0)
(0.224708 -0.172633 0 0.361725 0 0)
(0.0620318 0.00144354 0 0.155923 0 0)
(0.217801 -0.130058 0 0.196216 0 0)
(0.056214 0.0264327 0 0.114415 0 0)
(0.217209 -0.111726 0 0.123496 0 0)
(0.0590271 0.0395116 0 0.0977746 0 0)
(0.21791 -0.0990338 0 0.0867488 0 0)
(0.0686829 0.0480498 0 0.0922334 0 0)
(0.217515 -0.0849109 0 0.0608575 0 0)
(0.0827712 0.0546673 0 0.0857235 0 0)
(0.213979 -0.0675333 0 0.0429774 0 0)
(0.102487 0.0581544 0 0.0784681 0 0)
(0.207231 -0.0457341 0 0.0278641 0 0)
(0.122232 0.0583463 0 0.0698211 0 0)
(0.198374 -0.0221123 0 0.0181666 0 0)
(0.138188 0.0535226 0 0.0592161 0 0)
(0.190998 0.00288565 0 0.0137834 0 0)
(0.141097 0.0445005 0 0.0472477 0 0)
(0.185101 0.0265651 0 0.014522 0 0)
(0.13499 0.0344195 0 0.0356795 0 0)
(0.174273 0.0408623 0 0.0168446 0 0)
(0.134189 0.0269345 0 0.0259822 0 0)
(0.133894 0.0340777 0 0.0138998 0 0)
(0.144204 0.0232027 0 0.0204158 0 0)
(0.0790938 0.0131006 0 0.00655608 0 0)
(0.122738 0.00758324 0 0.0163982 0 0)
(0.0743562 0.000548075 0 0.00611718 0 0)
(0.140563 -0.01071 0 0.0146278 0 0)
(0.218384 -0.00817799 0 0.0114226 0 0)
(0.130944 -0.0414421 0 0.0306627 0 0)
(0.240582 -0.0898767 0 0.0511492 0 0)
(0.278786 -0.148588 0 0.0882664 0 0)
(0.307491 -0.130017 0 0.0811215 0 0)
(0.254033 -0.0437555 0 0.203026 0 0)
(5.1209 -3.33717 0 3.28505 0 0)
(4.52161 -2.85442 0 3.80595 0 0)
(3.84522 -1.96946 0 3.72915 0 0)
(3.80822 -1.71565 0 3.803 0 0)
(3.53796 -1.41911 0 3.73382 0 0)
(3.47219 -1.3118 0 3.79189 0 0)
(3.84695 -1.29966 0 3.76162 0 0)
(4.28074 -1.38791 0 3.75885 0 0)
(4.60367 -1.56897 0 3.7269 0 0)
(5.02932 -1.8122 0 3.69833 0 0)
(5.26654 -2.00561 0 3.82144 0 0)
(5.5869 -2.32678 0 4.12149 0 0)
(5.89525 -2.49023 0 4.3287 0 0)
(6.38866 -2.77151 0 4.45741 0 0)
(7.00116 -3.21592 0 4.66459 0 0)
(7.66041 -3.74167 0 4.9535 0 0)
(8.5316 -4.33527 0 5.25075 0 0)
(9.1267 -4.7056 0 5.55355 0 0)
(9.72852 -5.09958 0 5.91921 0 0)
(10.2089 -5.41063 0 6.40609 0 0)
(10.3419 -5.44267 0 6.75231 0 0)
(10.5127 -5.44165 0 7.02905 0 0)
(10.8107 -5.5324 0 7.30428 0 0)
(11.3171 -5.84825 0 7.59894 0 0)
(11.374 -5.92954 0 7.68851 0 0)
(10.8652 -5.72372 0 7.53254 0 0)
(9.8177 -5.11261 0 7.33606 0 0)
(8.63306 -4.26847 0 7.04384 0 0)
(7.3908 -3.20055 0 6.70949 0 0)
(6.27933 -2.10802 0 6.41736 0 0)
(5.42666 -1.15515 0 6.3163 0 0)
(4.6784 -0.324538 0 6.35209 0 0)
(4.01664 0.471634 0 6.48213 0 0)
(3.47328 1.08911 0 6.64674 0 0)
(3.07372 1.73239 0 6.98625 0 0)
(2.69408 2.05973 0 7.00882 0 0)
(2.53976 2.64454 0 7.47151 0 0)
(2.2701 2.57674 0 7.56165 0 0)
(2.29388 3.10035 0 8.18217 0 0)
(1.98551 2.69759 0 7.69442 0 0)
(2.09438 3.00389 0 7.12558 0 0)
(1.84131 2.65752 0 6.20315 0 0)
(2.02318 2.78892 0 5.37328 0 0)
(1.81232 2.79206 0 5.27426 0 0)
(2.19254 2.88733 0 4.57048 0 0)
(1.76081 2.89553 0 5.32723 0 0)
(2.57727 3.20524 0 5.06802 0 0)
(1.6946 2.96515 0 5.90638 0 0)
(2.46894 3.04213 0 5.70109 0 0)
(1.85759 2.91191 0 6.18796 0 0)
(1.88021 2.40735 0 5.49598 0 0)
(1.42622 2.01628 0 5.29594 0 0)
(1.45868 1.51887 0 4.06862 0 0)
(0.916478 0.90043 0 3.21339 0 0)
(0.900561 0.405099 0 1.91415 0 0)
(0.625012 0.224045 0 1.51992 0 0)
(0.660631 -0.111545 0 0.950982 0 0)
(0.451393 -0.0441483 0 0.740235 0 0)
(0.535034 -0.333307 0 0.668745 0 0)
(0.348073 -0.16764 0 0.433446 0 0)
(0.437777 -0.450487 0 0.711671 0 0)
(0.245702 -0.216242 0 0.406946 0 0)
(0.345683 -0.420898 0 0.807767 0 0)
(0.163133 -0.164844 0 0.433637 0 0)
(0.287003 -0.310675 0 0.651761 0 0)
(0.104655 -0.0735622 0 0.293594 0 0)
(0.258661 -0.212788 0 0.414219 0 0)
(0.0775045 -0.0214404 0 0.194147 0 0)
(0.261169 -0.171582 0 0.25147 0 0)
(0.060987 0.00574848 0 0.158744 0 0)
(0.272678 -0.157396 0 0.182208 0 0)
(0.0536634 0.0197957 0 0.148835 0 0)
(0.288158 -0.152201 0 0.146773 0 0)
(0.0521494 0.0301587 0 0.145872 0 0)
(0.304816 -0.14863 0 0.118014 0 0)
(0.0569076 0.0403785 0 0.139896 0 0)
(0.319496 -0.138732 0 0.0949855 0 0)
(0.0712157 0.0504683 0 0.131133 0 0)
(0.330389 -0.120195 0 0.0701094 0 0)
(0.0939231 0.0591005 0 0.119569 0 0)
(0.334242 -0.0913668 0 0.0484058 0 0)
(0.126338 0.064682 0 0.105315 0 0)
(0.325646 -0.0544773 0 0.0310814 0 0)
(0.158959 0.0641476 0 0.0878158 0 0)
(0.300229 -0.0150718 0 0.0213165 0 0)
(0.188303 0.0592626 0 0.0693002 0 0)
(0.250448 0.0161611 0 0.018161 0 0)
(0.208233 0.0545663 0 0.0524208 0 0)
(0.194756 0.0282435 0 0.0169284 0 0)
(0.212893 0.0464193 0 0.0381217 0 0)
(0.191331 0.0337788 0 0.018347 0 0)
(0.148154 0.0216519 0 0.0258556 0 0)
(0.202545 0.0222092 0 0.0222911 0 0)
(0.0996958 -0.00598945 0 0.0220611 0 0)
(0.177444 -0.0259525 0 0.0160656 0 0)
(0.193291 -0.0337907 0 0.0245646 0 0)
(0.176656 -0.0217759 0 0.0424285 0 0)
(0.085209 -0.0612368 0 0.0985826 0 0)
(0.23612 -0.137234 0 0.124902 0 0)
(0.329475 -0.222653 0 0.26473 0 0)
(2.79644 -1.4815 0 1.67872 0 0)
(2.8308 -1.80927 0 2.57375 0 0)
(2.36525 -1.22264 0 2.99365 0 0)
(2.69033 -0.891907 0 3.176 0 0)
(2.97736 -0.694573 0 3.13096 0 0)
(3.33666 -0.684944 0 3.09713 0 0)
(3.82536 -0.825491 0 3.08351 0 0)
(4.23644 -0.975029 0 3.09507 0 0)
(4.59525 -1.12793 0 3.08821 0 0)
(5.09806 -1.29437 0 3.03989 0 0)
(5.88848 -1.62788 0 3.09914 0 0)
(6.96886 -2.21046 0 3.31391 0 0)
(7.66257 -2.67931 0 3.5747 0 0)
(8.21058 -3.07419 0 3.83992 0 0)
(8.87558 -3.53933 0 4.18382 0 0)
(9.54421 -4.0746 0 4.6063 0 0)
(10.1901 -4.61823 0 4.99821 0 0)
(10.4973 -4.9682 0 5.34069 0 0)
(10.8384 -5.29922 0 5.71252 0 0)
(10.8804 -5.42608 0 6.09967 0 0)
(10.7825 -5.37518 0 6.41001 0 0)
(10.9577 -5.49401 0 6.83449 0 0)
(11.2631 -5.68759 0 7.22865 0 0)
(11.4257 -5.80132 0 7.46742 0 0)
(10.9471 -5.48385 0 7.36784 0 0)
(10.0541 -4.95948 0 7.05557 0 0)
(8.84353 -4.19363 0 6.78041 0 0)
(7.6491 -3.33892 0 6.47108 0 0)
(6.44427 -2.34859 0 6.22375 0 0)
(5.40105 -1.4015 0 6.09142 0 0)
(4.60508 -0.557314 0 6.12888 0 0)
(3.85377 0.201586 0 6.27795 0 0)
(3.18337 0.941425 0 6.49748 0 0)
(2.66811 1.49819 0 6.74908 0 0)
(2.31213 2.06266 0 7.10091 0 0)
(1.95422 2.34056 0 7.22088 0 0)
(1.82129 2.81743 0 7.67605 0 0)
(1.5642 2.67447 0 7.84321 0 0)
(1.63357 3.1248 0 8.38133 0 0)
(1.3296 2.64171 0 7.91975 0 0)
(1.47429 2.90346 0 7.28027 0 0)
(1.20612 2.40849 0 6.34319 0 0)
(1.4112 2.54913 0 5.3868 0 0)
(1.21083 2.3836 0 5.27052 0 0)
(1.57501 2.44796 0 4.45365 0 0)
(1.20641 2.35159 0 5.19113 0 0)
(2.00147 2.68672 0 4.84387 0 0)
(1.40024 2.5621 0 5.80853 0 0)
(1.92676 2.56195 0 5.43573 0 0)
(1.7886 2.73187 0 6.19845 0 0)
(1.73549 2.27703 0 5.48192 0 0)
(1.42616 1.93409 0 5.39151 0 0)
(1.39729 1.47446 0 4.10327 0 0)
(1.1277 1.0545 0 3.37374 0 0)
(0.966701 0.467603 0 1.94937 0 0)
(0.794635 0.306817 0 1.55119 0 0)
(0.743716 -0.0775648 0 0.926488 0 0)
(0.625453 0.00787826 0 0.7273 0 0)
(0.61597 -0.332995 0 0.648315 0 0)
(0.487116 -0.1599 0 0.428335 0 0)
(0.49875 -0.480004 0 0.701663 0 0)
(0.349841 -0.237906 0 0.410163 0 0)
(0.383215 -0.461282 0 0.804185 0 0)
(0.228973 -0.17965 0 0.440458 0 0)
(0.297035 -0.336291 0 0.662098 0 0)
(0.149828 -0.0737245 0 0.308326 0 0)
(0.254936 -0.226429 0 0.446914 0 0)
(0.111277 -0.0140548 0 0.226042 0 0)
(0.254826 -0.183689 0 0.299107 0 0)
(0.0940443 0.0114902 0 0.198434 0 0)
(0.271823 -0.174914 0 0.236635 0 0)
(0.0861878 0.023996 0 0.193053 0 0)
(0.29509 -0.176906 0 0.203928 0 0)
(0.0806192 0.0331034 0 0.194362 0 0)
(0.326171 -0.183197 0 0.178808 0 0)
(0.0774492 0.0442752 0 0.191842 0 0)
(0.361693 -0.189058 0 0.159181 0 0)
(0.0808119 0.057551 0 0.184998 0 0)
(0.401869 -0.18827 0 0.133726 0 0)
(0.0955362 0.0727408 0 0.173596 0 0)
(0.44282 -0.177204 0 0.106909 0 0)
(0.131443 0.0881174 0 0.158212 0 0)
(0.478914 -0.148975 0 0.077512 0 0)
(0.187502 0.1011 0 0.141345 0 0)
(0.499949 -0.103466 0 0.0520602 0 0)
(0.25174 0.104398 0 0.121028 0 0)
(0.481272 -0.045153 0 0.0357599 0 0)
(0.280644 0.0899257 0 0.0975291 0 0)
(0.404076 0.00369679 0 0.0313675 0 0)
(0.240559 0.0520191 0 0.0691555 0 0)
(0.324801 0.0231773 0 0.0307021 0 0)
(0.174382 0.0147691 0 0.0484351 0 0)
(0.262866 0.00813565 0 0.0302877 0 0)
(0.174617 -0.00848859 0 0.0491066 0 0)
(0.133293 -0.0594877 0 0.0478631 0 0)
(0.178832 -0.0635917 0 0.0589666 0 0)
(0.46659 -0.0556661 0 0.0393206 0 0)
(0.281075 -0.130978 0 0.0934583 0 0)
(0.266688 -0.108329 0 0.099111 0 0)
(0.241789 -0.172141 0 0.24284 0 0)
(1.13347 -0.443179 0 1.419 0 0)
(2.0454 -0.599971 0 2.15178 0 0)
(2.09437 -0.4396 0 2.43259 0 0)
(2.35627 -0.173471 0 2.57437 0 0)
(2.82347 0.0353418 0 2.56012 0 0)
(3.43073 0.0538418 0 2.51638 0 0)
(4.06233 -0.0746056 0 2.51015 0 0)
(4.6335 -0.217976 0 2.50098 0 0)
(5.31953 -0.403849 0 2.46815 0 0)
(6.26679 -0.699943 0 2.44001 0 0)
(7.31683 -1.22459 0 2.57348 0 0)
(8.44427 -1.94893 0 2.83436 0 0)
(9.26418 -2.5882 0 3.0872 0 0)
(9.89914 -3.13101 0 3.34421 0 0)
(10.4557 -3.65753 0 3.68871 0 0)
(10.9392 -4.18826 0 4.14098 0 0)
(11.2635 -4.65125 0 4.60149 0 0)
(11.3474 -4.99121 0 5.01404 0 0)
(11.404 -5.23161 0 5.40671 0 0)
(11.1396 -5.24236 0 5.77318 0 0)
(11.0903 -5.32764 0 6.19029 0 0)
(11.2833 -5.55635 0 6.73703 0 0)
(11.3012 -5.62614 0 7.07394 0 0)
(10.8874 -5.37357 0 7.11626 0 0)
(9.97734 -4.72179 0 6.84106 0 0)
(8.89459 -4.02732 0 6.46863 0 0)
(7.70262 -3.22216 0 6.18935 0 0)
(6.56803 -2.41135 0 5.94333 0 0)
(5.45884 -1.52766 0 5.81224 0 0)
(4.53044 -0.709132 0 5.8138 0 0)
(3.79808 0.0392242 0 5.9729 0 0)
(3.06883 0.74154 0 6.21356 0 0)
(2.47871 1.39021 0 6.50291 0 0)
(2.0465 1.87666 0 6.82079 0 0)
(1.74879 2.32903 0 7.19028 0 0)
(1.4336 2.5678 0 7.34584 0 0)
(1.35047 2.92978 0 7.79017 0 0)
(1.11258 2.73578 0 7.98824 0 0)
(1.24154 3.10479 0 8.46926 0 0)
(0.926215 2.57113 0 8.0327 0 0)
(1.11344 2.76046 0 7.30768 0 0)
(0.822838 2.16696 0 6.4027 0 0)
(1.0351 2.27018 0 5.3117 0 0)
(0.809492 1.92756 0 5.23617 0 0)
(1.16774 2.01826 0 4.27016 0 0)
(0.77871 1.72385 0 5.0227 0 0)
(1.51313 2.10544 0 4.48278 0 0)
(1.14301 2.12784 0 5.69472 0 0)
(1.47562 2.02266 0 5.09269 0 0)
(1.58535 2.42145 0 6.10143 0 0)
(1.59218 2.12022 0 5.34595 0 0)
(1.46032 1.9207 0 5.49318 0 0)
(1.33624 1.41211 0 4.103 0 0)
(1.20724 1.1352 0 3.53443 0 0)
(1.09933 0.550819 0 2.01891 0 0)
(0.949247 0.436504 0 1.62961 0 0)
(0.844455 -0.0604703 0 0.936423 0 0)
(0.778273 0.0553943 0 0.731121 0 0)
(0.702615 -0.345173 0 0.647656 0 0)
(0.618288 -0.157292 0 0.435593 0 0)
(0.579771 -0.509093 0 0.718118 0 0)
(0.460965 -0.269555 0 0.434558 0 0)
(0.439677 -0.494797 0 0.820872 0 0)
(0.29549 -0.207055 0 0.464879 0 0)
(0.325189 -0.358139 0 0.700325 0 0)
(0.187655 -0.0873093 0 0.346122 0 0)
(0.273351 -0.248166 0 0.501967 0 0)
(0.140094 -0.0277618 0 0.278723 0 0)
(0.27018 -0.202853 0 0.371392 0 0)
(0.120053 -0.00542662 0 0.261959 0 0)
(0.288472 -0.199365 0 0.317601 0 0)
(0.114592 -0.0015084 0 0.263316 0 0)
(0.318407 -0.210062 0 0.28745 0 0)
(0.109817 -0.000587036 0 0.268791 0 0)
(0.358802 -0.229604 0 0.263232 0 0)
(0.105645 0.00200407 0 0.27043 0 0)
(0.409674 -0.250956 0 0.245848 0 0)
(0.101605 0.00867227 0 0.267108 0 0)
(0.477232 -0.273425 0 0.221843 0 0)
(0.0970668 0.0209543 0 0.257904 0 0)
(0.565334 -0.2916 0 0.197655 0 0)
(0.10094 0.0397097 0 0.24137 0 0)
(0.678876 -0.298049 0 0.164871 0 0)
(0.124744 0.0626685 0 0.217977 0 0)
(0.817774 -0.282164 0 0.128111 0 0)
(0.191731 0.0865201 0 0.189183 0 0)
(0.958227 -0.226624 0 0.0876601 0 0)
(0.297284 0.103421 0 0.159025 0 0)
(1.01557 -0.127528 0 0.0578186 0 0)
(0.38993 0.103137 0 0.130346 0 0)
(0.838866 -0.0288017 0 0.047672 0 0)
(0.333595 0.0639812 0 0.0989432 0 0)
(0.426005 -0.0134713 0 0.0465915 0 0)
(0.223694 0.0117386 0 0.0761726 0 0)
(0.331383 0.0134522 0 0.102948 0 0)
(0.0748896 -0.0346067 0 0.0914417 0 0)
(0.300449 -0.146403 0 0.109491 0 0)
(0.348487 -0.1897 0 0.150596 0 0)
(0.406447 -0.187343 0 0.14493 0 0)
(0.24976 -0.244569 0 0.360002 0 0)
(0.452473 0.139222 0 0.737369 0 0)
(1.06478 0.122008 0 1.22808 0 0)
(1.83038 0.170751 0 1.58759 0 0)
(2.41097 0.344189 0 1.84832 0 0)
(3.06481 0.527599 0 1.97987 0 0)
(3.85856 0.585518 0 2.00746 0 0)
(4.73817 0.532705 0 1.97072 0 0)
(5.67216 0.394067 0 1.91203 0 0)
(6.71943 0.099234 0 1.87812 0 0)
(7.79023 -0.359673 0 1.91061 0 0)
(8.7323 -0.9447 0 2.09941 0 0)
(9.63046 -1.64559 0 2.42902 0 0)
(10.3878 -2.30966 0 2.73102 0 0)
(11.0372 -2.93404 0 2.98534 0 0)
(11.4873 -3.5179 0 3.28659 0 0)
(11.7726 -4.06338 0 3.6922 0 0)
(11.829 -4.51525 0 4.15825 0 0)
(11.7152 -4.83392 0 4.61817 0 0)
(11.513 -5.00894 0 5.05592 0 0)
(11.2599 -5.07063 0 5.4942 0 0)
(11.3004 -5.32048 0 6.03864 0 0)
(11.2264 -5.42297 0 6.54824 0 0)
(10.6933 -5.15059 0 6.68771 0 0)
(9.79735 -4.5605 0 6.5395 0 0)
(8.71403 -3.74966 0 6.19256 0 0)
(7.61968 -3.03935 0 5.84746 0 0)
(6.529 -2.26651 0 5.63165 0 0)
(5.49383 -1.53019 0 5.46093 0 0)
(4.54964 -0.751246 0 5.43686 0 0)
(3.76523 -0.0490596 0 5.56503 0 0)
(3.11069 0.623519 0 5.82355 0 0)
(2.52041 1.24263 0 6.12065 0 0)
(2.0772 1.80611 0 6.45669 0 0)
(1.76351 2.19976 0 6.83755 0 0)
(1.50667 2.56505 0 7.21384 0 0)
(1.22631 2.75802 0 7.43672 0 0)
(1.19347 2.99849 0 7.8545 0 0)
(0.973318 2.76257 0 8.07891 0 0)
(1.18116 3.03807 0 8.45278 0 0)
(0.817931 2.45259 0 8.05202 0 0)
(1.09808 2.60014 0 7.23656 0 0)
(0.721434 1.87495 0 6.38729 0 0)
(0.9834 1.99204 0 5.14221 0 0)
(0.689416 1.44286 0 5.13439 0 0)
(0.957429 1.55784 0 4.08466 0 0)
(0.625836 1.12139 0 4.80209 0 0)
(1.06006 1.40925 0 4.06447 0 0)
(1.02177 1.66932 0 5.5006 0 0)
(1.0001 1.46907 0 4.66405 0 0)
(1.37909 2.0147 0 5.90274 0 0)
(1.25938 1.76859 0 5.07337 0 0)
(1.43659 1.8042 0 5.46152 0 0)
(1.23963 1.32604 0 3.98873 0 0)
(1.27758 1.18475 0 3.58285 0 0)
(1.051 0.546996 0 1.97779 0 0)
(1.12836 0.56643 0 1.64312 0 0)
(0.893041 0.01118 0 0.928918 0 0)
(0.948039 0.127096 0 0.735303 0 0)
(0.763345 -0.313022 0 0.628312 0 0)
(0.79155 -0.132107 0 0.429313 0 0)
(0.641884 -0.494712 0 0.704841 0 0)
(0.599628 -0.273563 0 0.44261 0 0)
(0.469382 -0.48774 0 0.810537 0 0)
(0.372763 -0.200489 0 0.475784 0 0)
(0.319327 -0.34001 0 0.713393 0 0)
(0.229985 -0.0710115 0 0.377007 0 0)
(0.257157 -0.231103 0 0.550052 0 0)
(0.169391 -0.00832105 0 0.327379 0 0)
(0.246958 -0.18376 0 0.434175 0 0)
(0.143613 0.0144308 0 0.316991 0 0)
(0.254085 -0.176009 0 0.393632 0 0)
(0.135595 0.0186686 0 0.323453 0 0)
(0.272845 -0.18462 0 0.369377 0 0)
(0.130727 0.0158906 0 0.331813 0 0)
(0.301361 -0.204766 0 0.350606 0 0)
(0.127936 0.0133234 0 0.336288 0 0)
(0.338578 -0.229742 0 0.337679 0 0)
(0.125139 0.011721 0 0.335364 0 0)
(0.3911 -0.261382 0 0.316668 0 0)
(0.122421 0.0132987 0 0.330104 0 0)
(0.464353 -0.297943 0 0.298457 0 0)
(0.121552 0.0212112 0 0.318297 0 0)
(0.575499 -0.339078 0 0.273932 0 0)
(0.122696 0.0383157 0 0.299009 0 0)
(0.752209 -0.384931 0 0.250239 0 0)
(0.140799 0.0657505 0 0.268136 0 0)
(1.04787 -0.425082 0 0.216389 0 0)
(0.210762 0.101077 0 0.230076 0 0)
(1.51651 -0.432381 0 0.170089 0 0)
(0.381627 0.126015 0 0.188803 0 0)
(2.11227 -0.351843 0 0.120185 0 0)
(0.580608 0.118207 0 0.155511 0 0)
(2.37541 -0.191031 0 0.094473 0 0)
(0.473792 0.0450443 0 0.135913 0 0)
(1.76548 -0.142941 0 0.0945672 0 0)
(0.311864 -0.109282 0 0.121989 0 0)
(1.05625 -0.245959 0 0.0970459 0 0)
(0.476322 -0.176542 0 0.184853 0 0)
(0.424311 -0.082046 0 0.179485 0 0)
(0.117467 -0.125042 0 0.381122 0 0)
(0.561441 0.414696 0 0.566791 0 0)
(1.09407 0.681003 0 1.08308 0 0)
(2.10701 0.903649 0 1.40234 0 0)
(3.15363 1.00684 0 1.55478 0 0)
(4.05938 1.06873 0 1.62086 0 0)
(4.94028 1.07598 0 1.59489 0 0)
(5.89942 0.978751 0 1.50481 0 0)
(6.86272 0.745286 0 1.43291 0 0)
(7.81779 0.343301 0 1.43566 0 0)
(8.70904 -0.181007 0 1.51816 0 0)
(9.54831 -0.763978 0 1.70948 0 0)
(10.3339 -1.40752 0 2.036 0 0)
(11.0055 -2.03706 0 2.36537 0 0)
(11.5397 -2.67247 0 2.6577 0 0)
(11.8708 -3.27664 0 2.96745 0 0)
(11.9321 -3.79206 0 3.36137 0 0)
(11.8154 -4.21547 0 3.82843 0 0)
(11.6102 -4.51637 0 4.30325 0 0)
(11.4112 -4.7235 0 4.77122 0 0)
(11.2896 -4.91559 0 5.29261 0 0)
(11.1393 -5.08908 0 5.84371 0 0)
(10.5296 -4.82495 0 6.17892 0 0)
(9.55255 -4.22614 0 6.11422 0 0)
(8.47524 -3.4764 0 5.86847 0 0)
(7.44684 -2.67877 0 5.53452 0 0)
(6.43032 -2.04264 0 5.27148 0 0)
(5.49883 -1.32895 0 5.11931 0 0)
(4.60927 -0.691934 0 5.0349 0 0)
(3.88664 -0.0275839 0 5.12247 0 0)
(3.24612 0.565918 0 5.35456 0 0)
(2.77088 1.14246 0 5.69089 0 0)
(2.33286 1.66692 0 6.04648 0 0)
(2.07623 2.11838 0 6.43019 0 0)
(1.88532 2.45199 0 6.81545 0 0)
(1.68835 2.75427 0 7.16913 0 0)
(1.44846 2.90047 0 7.41664 0 0)
(1.44951 3.02168 0 7.81539 0 0)
(1.24545 2.75169 0 8.01662 0 0)
(1.52824 2.92691 0 8.32437 0 0)
(1.09422 2.32217 0 7.93897 0 0)
(1.49407 2.4106 0 7.06538 0 0)
(0.978846 1.59054 0 6.27692 0 0)
(1.28296 1.68561 0 4.89439 0 0)
(0.871268 0.924698 0 4.98454 0 0)
(1.07523 1.10488 0 3.8161 0 0)
(0.711878 0.54323 0 4.59268 0 0)
(0.828443 0.75263 0 3.52991 0 0)
(0.938542 1.17438 0 5.37161 0 0)
(0.714858 0.892727 0 4.15421 0 0)
(1.17433 1.59677 0 5.66428 0 0)
(0.986338 1.43369 0 4.70771 0 0)
(1.32345 1.64613 0 5.44081 0 0)
(1.0977 1.1881 0 3.865 0 0)
(1.34482 1.25049 0 3.67205 0 0)
(1.01996 0.549623 0 1.95405 0 0)
(1.2095 0.622301 0 1.66821 0 0)
(0.952991 0.0490057 0 0.910349 0 0)
(1.09001 0.191694 0 0.749513 0 0)
(0.844973 -0.298305 0 0.624454 0 0)
(0.920028 -0.115898 0 0.439352 0 0)
(0.711883 -0.491891 0 0.712702 0 0)
(0.678621 -0.273904 0 0.471654 0 0)
(0.512712 -0.483125 0 0.824059 0 0)
(0.406273 -0.189371 0 0.503718 0 0)
(0.350128 -0.340996 0 0.74516 0 0)
(0.25282 -0.0642289 0 0.426306 0 0)
(0.276618 -0.229436 0 0.614066 0 0)
(0.187717 -0.00567553 0 0.398493 0 0)
(0.265112 -0.18773 0 0.523766 0 0)
(0.16811 0.00999458 0 0.402023 0 0)
(0.274622 -0.184116 0 0.497426 0 0)
(0.164287 0.0103623 0 0.418909 0 0)
(0.293704 -0.196016 0 0.480171 0 0)
(0.162193 0.0035359 0 0.43286 0 0)
(0.319885 -0.217746 0 0.469134 0 0)
(0.163237 -0.00343993 0 0.441699 0 0)
(0.35231 -0.245012 0 0.460727 0 0)
(0.163996 -0.0129981 0 0.441535 0 0)
(0.396582 -0.279738 0 0.440891 0 0)
(0.165101 -0.0225118 0 0.437351 0 0)
(0.456306 -0.319501 0 0.420751 0 0)
(0.166588 -0.0328195 0 0.426417 0 0)
(0.544606 -0.366675 0 0.388664 0 0)
(0.16915 -0.0436121 0 0.411853 0 0)
(0.681747 -0.42369 0 0.356153 0 0)
(0.17354 -0.0551943 0 0.387847 0 0)
(0.917902 -0.497728 0 0.321246 0 0)
(0.178986 -0.0621986 0 0.35109 0 0)
(1.35254 -0.593567 0 0.288542 0 0)
(0.198294 -0.0604542 0 0.291216 0 0)
(2.18416 -0.687455 0 0.246365 0 0)
(0.327018 -0.0411349 0 0.232746 0 0)
(3.50852 -0.685178 0 0.194133 0 0)
(0.723508 -0.0470469 0 0.190667 0 0)
(4.45605 -0.504719 0 0.173202 0 0)
(0.982044 -0.100506 0 0.187273 0 0)
(3.08754 -0.324196 0 0.210482 0 0)
(0.4982 -0.188086 0 0.262638 0 0)
(0.835442 -0.036893 0 0.180138 0 0)
(0.186606 -0.0255915 0 0.451778 0 0)
(0.919866 0.536201 0 0.465014 0 0)
(1.4142 0.71849 0 0.712465 0 0)
(2.23345 0.851286 0 0.940936 0 0)
(3.26569 0.957538 0 1.09486 0 0)
(4.26893 1.06056 0 1.13859 0 0)
(5.20744 1.10099 0 1.10898 0 0)
(6.13031 0.991916 0 1.05263 0 0)
(7.01052 0.732475 0 1.03438 0 0)
(7.8901 0.328142 0 1.08068 0 0)
(8.75594 -0.177889 0 1.19079 0 0)
(9.59137 -0.735695 0 1.37238 0 0)
(10.3418 -1.33551 0 1.66188 0 0)
(10.9095 -1.9242 0 1.99123 0 0)
(11.3437 -2.52217 0 2.32626 0 0)
(11.5726 -3.07714 0 2.67694 0 0)
(11.5643 -3.53521 0 3.07973 0 0)
(11.4622 -3.91788 0 3.52798 0 0)
(11.3221 -4.23902 0 4.01537 0 0)
(11.2092 -4.49627 0 4.53521 0 0)
(10.938 -4.62425 0 5.07543 0 0)
(10.3009 -4.45143 0 5.49866 0 0)
(9.2964 -3.81203 0 5.60283 0 0)
(8.21611 -3.07126 0 5.41108 0 0)
(7.2256 -2.31924 0 5.18168 0 0)
(6.3422 -1.63148 0 4.92441 0 0)