/*--------------------------------*- C++ -*----------------------------------*\
| =========                 |                                                 |
| \\      /  F ield         | OpenFOAM: The Open Source CFD Toolbox           |
|  \\    /   O peration     | Version:  2.4.0                                 |
|   \\  /    A nd           | Web:      www.OpenFOAM.org                      |
|    \\/     M anipulation  |                                                 |
\*---------------------------------------------------------------------------*/
FoamFile
{
    version     2.0;
    format      ascii;
    class       volScalarField;
    location    "0.099";
    object      pPrime2Mean;
}
// * * * * * * * * * * * * * * * * * * * * * * * * * * * * * * * * * * * * * //

dimensions      [0 4 -4 0 0 0 0];

internalField   nonuniform List<scalar> 
4400
(
6.43391e+06
6.10295e+06
5.75813e+06
5.42231e+06
5.09652e+06
4.78072e+06
4.47468e+06
4.17769e+06
3.88733e+06
3.59237e+06
6.43405e+06
6.10295e+06
5.75812e+06
5.42231e+06
5.09652e+06
4.78072e+06
4.4747e+06
4.17776e+06
3.88754e+06
3.59345e+06
6.43414e+06
6.10293e+06
5.75811e+06
5.42231e+06
5.09653e+06
4.78073e+06
4.47474e+06
4.17788e+06
3.88796e+06
3.5959e+06
6.43419e+06
6.1029e+06
5.7581e+06
5.42231e+06
5.09653e+06
4.78075e+06
4.47479e+06
4.17805e+06
3.88857e+06
3.5991e+06
6.43424e+06
6.10287e+06
5.75809e+06
5.4223e+06
5.09653e+06
4.78077e+06
4.47485e+06
4.17827e+06
3.88934e+06
3.6027e+06
6.43427e+06
6.10285e+06
5.75808e+06
5.4223e+06
5.09653e+06
4.78079e+06
4.47493e+06
4.17853e+06
3.89024e+06
3.60648e+06
6.4343e+06
6.10283e+06
5.75807e+06
5.42231e+06
5.09654e+06
4.78081e+06
4.47502e+06
4.17882e+06
3.89123e+06
3.61026e+06
6.43433e+06
6.10282e+06
5.75806e+06
5.42231e+06
5.09655e+06
4.78084e+06
4.47512e+06
4.17914e+06
3.89229e+06
3.61396e+06
6.43434e+06
6.10281e+06
5.75806e+06
5.42231e+06
5.09656e+06
4.78088e+06
4.47522e+06
4.17948e+06
3.89337e+06
3.6175e+06
6.43435e+06
6.10281e+06
5.75806e+06
5.42231e+06
5.09657e+06
4.78091e+06
4.47533e+06
4.17982e+06
3.89444e+06
3.62083e+06
6.43435e+06
6.10281e+06
5.75806e+06
5.42232e+06
5.09658e+06
4.78094e+06
4.47544e+06
4.18016e+06
3.89549e+06
3.62391e+06
6.43434e+06
6.10281e+06
5.75806e+06
5.42232e+06
5.09659e+06
4.78098e+06
4.47555e+06
4.18049e+06
3.8965e+06
3.62672e+06
6.43433e+06
6.10282e+06
5.75807e+06
5.42233e+06
5.0966e+06
4.78101e+06
4.47565e+06
4.1808e+06
3.89743e+06
3.62925e+06
6.4343e+06
6.10284e+06
5.75808e+06
5.42233e+06
5.09661e+06
4.78105e+06
4.47575e+06
4.18109e+06
3.89828e+06
3.63147e+06
6.43427e+06
6.10285e+06
5.75809e+06
5.42233e+06
5.09663e+06
4.78108e+06
4.47583e+06
4.18135e+06
3.89903e+06
3.63339e+06
6.43424e+06
6.10287e+06
5.7581e+06
5.42234e+06
5.09664e+06
4.78111e+06
4.47591e+06
4.18157e+06
3.89967e+06
3.63499e+06
6.4342e+06
6.1029e+06
5.75811e+06
5.42234e+06
5.09665e+06
4.78113e+06
4.47597e+06
4.18176e+06
3.9002e+06
3.63627e+06
6.43414e+06
6.10293e+06
5.75813e+06
5.42235e+06
5.09666e+06
4.78115e+06
4.47602e+06
4.1819e+06
3.9006e+06
3.63724e+06
6.43406e+06
6.10295e+06
5.75814e+06
5.42235e+06
5.09666e+06
4.78116e+06
4.47605e+06
4.18199e+06
3.90087e+06
3.63788e+06
6.43391e+06
6.10296e+06
5.75814e+06
5.42236e+06
5.09666e+06
4.78116e+06
4.47607e+06
4.18204e+06
3.901e+06
3.63819e+06
3.33983e+06
3.28131e+06
3.23454e+06
3.19163e+06
3.15065e+06
3.11088e+06
3.07196e+06
3.03372e+06
2.99601e+06
2.95875e+06
2.92186e+06
2.88528e+06
2.84899e+06
2.81294e+06
2.77711e+06
2.74152e+06
2.70615e+06
2.67099e+06
2.63606e+06
2.60137e+06
2.5669e+06
2.53268e+06
2.49871e+06
2.46499e+06
2.43153e+06
2.39834e+06
2.3654e+06
2.33272e+06
2.30028e+06
2.26808e+06
2.23611e+06
2.20438e+06
2.17287e+06
2.14159e+06
2.11053e+06
2.07969e+06
2.04907e+06
2.01866e+06
1.98847e+06
1.9585e+06
1.92873e+06
1.89919e+06
1.86986e+06
1.84076e+06
1.81188e+06
1.78325e+06
1.75484e+06
1.72667e+06
1.69874e+06
1.67104e+06
1.64357e+06
1.61633e+06
1.58931e+06
1.56253e+06
1.53597e+06
1.50965e+06
1.48354e+06
1.45768e+06
1.43203e+06
1.40662e+06
1.38142e+06
1.35645e+06
1.33169e+06
1.30716e+06
1.28286e+06
1.25879e+06
1.23495e+06
1.21137e+06
1.188e+06
1.16488e+06
1.14197e+06
1.11931e+06
1.09685e+06
1.07464e+06
1.05263e+06
1.03086e+06
1.00929e+06
987977
966858
945992
925320
904905
884680
864709
844926
825392
806042
786930
767996
749281
730728
712365
694126
676024
657953
639908
621654
603104
583471
561408
3.36685e+06
3.30086e+06
3.24873e+06
3.20247e+06
3.15917e+06
3.1177e+06
3.07747e+06
3.03818e+06
2.99963e+06
2.96168e+06
2.92424e+06
2.88721e+06
2.85055e+06
2.8142e+06
2.77813e+06
2.74233e+06
2.7068e+06
2.67152e+06
2.63649e+06
2.60171e+06
2.56719e+06
2.53292e+06
2.49891e+06
2.46517e+06
2.43169e+06
2.39848e+06
2.36554e+06
2.33285e+06
2.30041e+06
2.26821e+06
2.23624e+06
2.2045e+06
2.17299e+06
2.1417e+06
2.11063e+06
2.07978e+06
2.04914e+06
2.01872e+06
1.98852e+06
1.95854e+06
1.92877e+06
1.89922e+06
1.86989e+06
1.84079e+06
1.81191e+06
1.78327e+06
1.75487e+06
1.7267e+06
1.69877e+06
1.67107e+06
1.64359e+06
1.61636e+06
1.58934e+06
1.56256e+06
1.536e+06
1.50968e+06
1.48357e+06
1.45771e+06
1.43205e+06
1.40664e+06
1.38144e+06
1.35646e+06
1.3317e+06
1.30717e+06
1.28285e+06
1.25878e+06
1.23493e+06
1.21134e+06
1.18797e+06
1.16484e+06
1.14193e+06
1.11926e+06
1.09679e+06
1.07456e+06
1.05254e+06
1.03076e+06
1.00917e+06
987836
966686
945790
925074
904615
884325
864293
844418
824794
805314
786071
766957
748051
729244
710600
691996
673472
654850
636139
616968
597199
575647
550101
3.38741e+06
3.31803e+06
3.26205e+06
3.21289e+06
3.16746e+06
3.12436e+06
3.08286e+06
3.04256e+06
3.00319e+06
2.96458e+06
2.92659e+06
2.88912e+06
2.85209e+06
2.81545e+06
2.77913e+06
2.74314e+06
2.70744e+06
2.67204e+06
2.63691e+06
2.60206e+06
2.56747e+06
2.53316e+06
2.49912e+06
2.46535e+06
2.43186e+06
2.39864e+06
2.36569e+06
2.33299e+06
2.30055e+06
2.26834e+06
2.23638e+06
2.20463e+06
2.17311e+06
2.14181e+06
2.11073e+06
2.07986e+06
2.04921e+06
2.01878e+06
1.98856e+06
1.95857e+06
1.92879e+06
1.89924e+06
1.8699e+06
1.8408e+06
1.81192e+06
1.78329e+06
1.75488e+06
1.72672e+06
1.69878e+06
1.67108e+06
1.64361e+06
1.61637e+06
1.58935e+06
1.56258e+06
1.53601e+06
1.50969e+06
1.48358e+06
1.45772e+06
1.43206e+06
1.40666e+06
1.38145e+06
1.35647e+06
1.3317e+06
1.30716e+06
1.28284e+06
1.25877e+06
1.23491e+06
1.21131e+06
1.18793e+06
1.1648e+06
1.14188e+06
1.1192e+06
1.09673e+06
1.07449e+06
1.05246e+06
1.03066e+06
1.00906e+06
987697
966518
945592
924833
904331
883978
863885
843919
824208
804599
785230
765934
746844
727784
708869
689909
670983
651838
632505
612498
591676
568705
541561
3.40374e+06
3.33301e+06
3.27433e+06
3.22275e+06
3.17541e+06
3.1308e+06
3.08811e+06
3.04683e+06
3.00667e+06
2.96741e+06
2.92889e+06
2.89098e+06
2.8536e+06
2.81666e+06
2.78011e+06
2.74392e+06
2.70807e+06
2.67254e+06
2.63732e+06
2.60239e+06
2.56775e+06
2.5334e+06
2.49933e+06
2.46554e+06
2.43204e+06
2.39881e+06
2.36585e+06
2.33314e+06
2.30069e+06
2.26849e+06
2.23651e+06
2.20477e+06
2.17323e+06
2.14192e+06
2.11082e+06
2.07993e+06
2.04927e+06
2.01882e+06
1.98859e+06
1.95859e+06
1.9288e+06
1.89925e+06
1.86991e+06
1.8408e+06
1.81192e+06
1.78329e+06
1.75488e+06
1.72672e+06
1.69878e+06
1.67108e+06
1.6436e+06
1.61637e+06
1.58935e+06
1.56258e+06
1.53601e+06
1.5097e+06
1.48358e+06
1.45773e+06
1.43207e+06
1.40667e+06
1.38145e+06
1.35648e+06
1.3317e+06
1.30715e+06
1.28283e+06
1.25875e+06
1.23489e+06
1.21128e+06
1.1879e+06
1.16476e+06
1.14184e+06
1.11915e+06
1.09667e+06
1.07442e+06
1.05237e+06
1.03056e+06
1.00894e+06
987560
966354
945397
924599
904053
883642
863487
843436
823637
803905
784413
764937
745674
726361
707192
687879
668574
648938
629034
608305
586606
562683
534945
3.41707e+06
3.346e+06
3.28549e+06
3.23198e+06
3.18297e+06
3.13698e+06
3.09316e+06
3.05096e+06
3.01004e+06
2.97015e+06
2.93111e+06
2.89278e+06
2.85505e+06
2.81783e+06
2.78106e+06
2.74468e+06
2.70868e+06
2.67304e+06
2.63772e+06
2.60272e+06
2.56803e+06
2.53364e+06
2.49954e+06
2.46574e+06
2.43222e+06
2.39898e+06
2.36601e+06
2.3333e+06
2.30084e+06
2.26863e+06
2.23665e+06
2.20489e+06
2.17335e+06
2.14201e+06
2.1109e+06
2.07999e+06
2.04931e+06
2.01884e+06
1.98861e+06
1.95859e+06
1.9288e+06
1.89924e+06
1.86989e+06
1.84079e+06
1.81191e+06
1.78327e+06
1.75486e+06
1.72671e+06
1.69876e+06
1.67107e+06
1.64359e+06
1.61636e+06
1.58934e+06
1.56257e+06
1.536e+06
1.50969e+06
1.48357e+06
1.45773e+06
1.43206e+06
1.40667e+06
1.38144e+06
1.35647e+06
1.33168e+06
1.30714e+06
1.28281e+06
1.25872e+06
1.23486e+06
1.21125e+06
1.18787e+06
1.16473e+06
1.14179e+06
1.1191e+06
1.09661e+06
1.07435e+06
1.05229e+06
1.03047e+06
1.00883e+06
987426
966196
945207
924372
903780
883317
863097
842970
823081
803238
783622
763985
744548
724996
705586
685931
666278
646162
625747
604405
581998
557515
529654
3.42819e+06
3.3573e+06
3.29558e+06
3.24053e+06
3.19008e+06
3.14285e+06
3.09799e+06
3.05493e+06
3.01329e+06
2.9728e+06
2.93327e+06
2.89453e+06
2.85646e+06
2.81897e+06
2.78197e+06
2.74542e+06
2.70928e+06
2.67352e+06
2.63812e+06
2.60305e+06
2.56831e+06
2.53389e+06
2.49977e+06
2.46594e+06
2.43241e+06
2.39916e+06
2.36618e+06
2.33346e+06
2.30099e+06
2.26876e+06
2.23677e+06
2.205e+06
2.17344e+06
2.14209e+06
2.11096e+06
2.08003e+06
2.04934e+06
2.01885e+06
1.98861e+06
1.95858e+06
1.92878e+06
1.89922e+06
1.86987e+06
1.84077e+06
1.81188e+06
1.78324e+06
1.75484e+06
1.72669e+06
1.69874e+06
1.67105e+06
1.64356e+06
1.61633e+06
1.58931e+06
1.56255e+06
1.53598e+06
1.50967e+06
1.48355e+06
1.45772e+06
1.43204e+06
1.40667e+06
1.38142e+06
1.35646e+06
1.33167e+06
1.30712e+06
1.28279e+06
1.2587e+06
1.23483e+06
1.21122e+06
1.18783e+06
1.16469e+06
1.14175e+06
1.11905e+06
1.09655e+06
1.07428e+06
1.05222e+06
1.03037e+06
1.00872e+06
987296
966044
945022
924154
903515
883003
862717
842520
822538
802594
782849
763067
743453
723694
704046
684089
664112
643566
622710
600841
577871
553018
525272
3.4376e+06
3.36713e+06
3.30463e+06
3.24838e+06
3.19671e+06
3.14838e+06
3.10257e+06
3.0587e+06
3.01639e+06
2.97534e+06
2.93534e+06
2.89621e+06
2.85782e+06
2.82007e+06
2.78286e+06
2.74614e+06
2.70986e+06
2.674e+06
2.63851e+06
2.60338e+06
2.5686e+06
2.53414e+06
2.49999e+06
2.46615e+06
2.4326e+06
2.39933e+06
2.36633e+06
2.3336e+06
2.30112e+06
2.26889e+06
2.23688e+06
2.2051e+06
2.17352e+06
2.14215e+06
2.111e+06
2.08006e+06
2.04934e+06
2.01885e+06
1.98859e+06
1.95855e+06
1.92875e+06
1.89918e+06
1.86983e+06
1.84073e+06
1.81184e+06
1.7832e+06
1.7548e+06
1.72665e+06
1.6987e+06
1.67101e+06
1.64351e+06
1.6163e+06
1.58927e+06
1.56252e+06
1.53594e+06
1.50965e+06
1.48352e+06
1.4577e+06
1.43201e+06
1.40665e+06
1.3814e+06
1.35645e+06
1.33164e+06
1.30711e+06
1.28276e+06
1.25867e+06
1.2348e+06
1.21119e+06
1.1878e+06
1.16464e+06
1.14171e+06
1.119e+06
1.0965e+06
1.07422e+06
1.05214e+06
1.03028e+06
1.00862e+06
987170
965898
944844
923945
903261
882703
862352
842088
822015
801976
782102
762186
742394
722450
702560
682347
662055
641166
619914
597621
574226
549089
521582
3.44565e+06
3.37569e+06
3.31273e+06
3.25555e+06
3.20285e+06
3.15355e+06
3.10688e+06
3.06228e+06
3.01934e+06
2.97776e+06
2.93732e+06
2.89782e+06
2.85913e+06
2.82112e+06
2.78372e+06
2.74684e+06
2.71043e+06
2.67446e+06
2.6389e+06
2.60371e+06
2.56888e+06
2.53438e+06
2.50021e+06
2.46634e+06
2.43278e+06
2.39949e+06
2.36648e+06
2.33373e+06
2.30123e+06
2.26899e+06
2.23697e+06
2.20517e+06
2.17358e+06
2.1422e+06
2.11102e+06
2.08006e+06
2.04933e+06
2.01882e+06
1.98856e+06
1.95851e+06
1.92871e+06
1.89913e+06
1.86978e+06
1.84068e+06
1.81179e+06
1.78315e+06
1.75475e+06
1.72662e+06
1.69865e+06
1.67097e+06
1.64347e+06
1.61626e+06
1.58922e+06
1.56248e+06
1.53589e+06
1.50961e+06
1.48348e+06
1.45767e+06
1.43198e+06
1.40664e+06
1.38137e+06
1.35644e+06
1.33161e+06
1.30708e+06
1.28272e+06
1.25864e+06
1.23477e+06
1.21115e+06
1.18776e+06
1.1646e+06
1.14167e+06
1.11895e+06
1.09644e+06
1.07415e+06
1.05207e+06
1.0302e+06
1.00852e+06
987049
965758
944673
923746
903018
882418
862005
841678
821520
801390
781396
761354
741395
721278
701157
680717
660114
638943
617303
594686
570952
545655
518449
3.45262e+06
3.38317e+06
3.31993e+06
3.26204e+06
3.20848e+06
3.15834e+06
3.1109e+06
3.06563e+06
3.02211e+06
2.98005e+06
2.93919e+06
2.89935e+06
2.86037e+06
2.82213e+06
2.78454e+06
2.7475e+06
2.71098e+06
2.67491e+06
2.63927e+06
2.60403e+06
2.56915e+06
2.53462e+06
2.50041e+06
2.46652e+06
2.43294e+06
2.39963e+06
2.3666e+06
2.33384e+06
2.30133e+06
2.26907e+06
2.23703e+06
2.20522e+06
2.17361e+06
2.14221e+06
2.11102e+06
2.08005e+06
2.0493e+06
2.01878e+06
1.98852e+06
1.95845e+06
1.92865e+06
1.89907e+06
1.86972e+06
1.84063e+06
1.81173e+06
1.7831e+06
1.75471e+06
1.72657e+06
1.6986e+06
1.67092e+06
1.64342e+06
1.61621e+06
1.58918e+06
1.56243e+06
1.53585e+06
1.50957e+06
1.48343e+06
1.45763e+06
1.43194e+06
1.40661e+06
1.38134e+06
1.35642e+06
1.33157e+06
1.30706e+06
1.28268e+06
1.25861e+06
1.23473e+06
1.21111e+06
1.18772e+06
1.16456e+06
1.14162e+06
1.1189e+06
1.09639e+06
1.07409e+06
1.052e+06
1.03011e+06
1.00842e+06
986932
965625
944510
923557
902787
882148
861677
841293
821053
800840
780735
760575
740463
720184
699850
679203
658309
636889
614885
592003
568001
542659
515746
3.45867e+06
3.38971e+06
3.3263e+06
3.26786e+06
3.21361e+06
3.16274e+06
3.11462e+06
3.06874e+06
3.0247e+06
2.98219e+06
2.94095e+06
2.90079e+06
2.86155e+06
2.82309e+06
2.78531e+06
2.74814e+06
2.7115e+06
2.67534e+06
2.63963e+06
2.60433e+06
2.56941e+06
2.53484e+06
2.5006e+06
2.46669e+06
2.43308e+06
2.39976e+06
2.3667e+06
2.33392e+06
2.3014e+06
2.26912e+06
2.23707e+06
2.20525e+06
2.17363e+06
2.14221e+06
2.11101e+06
2.08002e+06
2.04926e+06
2.01873e+06
1.98846e+06
1.95839e+06
1.92859e+06
1.899e+06
1.86966e+06
1.84056e+06
1.81168e+06
1.78304e+06
1.75467e+06
1.72653e+06
1.69855e+06
1.67087e+06
1.64337e+06
1.61617e+06
1.58913e+06
1.56238e+06
1.5358e+06
1.50952e+06
1.48339e+06
1.45758e+06
1.4319e+06
1.40658e+06
1.3813e+06
1.3564e+06
1.33153e+06
1.30704e+06
1.28264e+06
1.25858e+06
1.23469e+06
1.21107e+06
1.18768e+06
1.16452e+06
1.14158e+06
1.11885e+06
1.09633e+06
1.07403e+06
1.05193e+06
1.03003e+06
1.00833e+06
986819
965496
944353
923377
902567
881894
861366
840933
820615
800329
780116
759853
739592
719172
698634
677798
656638
634980
612671
589562
565358
540041
513381
3.46394e+06
3.3954e+06
3.33191e+06
3.27306e+06
3.21822e+06
3.16673e+06
3.11802e+06
3.0716e+06
3.02709e+06
2.98417e+06
2.94258e+06
2.90213e+06
2.86264e+06
2.82398e+06
2.78604e+06
2.74873e+06
2.71199e+06
2.67575e+06
2.63997e+06
2.60462e+06
2.56965e+06
2.53504e+06
2.50077e+06
2.46684e+06
2.43321e+06
2.39986e+06
2.36679e+06
2.33398e+06
2.30144e+06
2.26915e+06
2.23709e+06
2.20525e+06
2.17361e+06
2.14218e+06
2.11097e+06
2.07997e+06
2.04921e+06
2.01868e+06
1.98839e+06
1.95832e+06
1.92853e+06
1.89893e+06
1.8696e+06
1.84049e+06
1.81163e+06
1.78299e+06
1.75463e+06
1.72648e+06
1.69851e+06
1.67082e+06
1.64333e+06
1.61611e+06
1.58908e+06
1.56233e+06
1.53575e+06
1.50946e+06
1.48334e+06
1.45753e+06
1.43185e+06
1.40653e+06
1.38126e+06
1.35636e+06
1.33149e+06
1.30701e+06
1.2826e+06
1.25855e+06
1.23465e+06
1.21104e+06
1.18765e+06
1.16448e+06
1.14153e+06
1.1188e+06
1.09628e+06
1.07396e+06
1.05186e+06
1.02994e+06
1.00824e+06
986708
965371
944202
923204
902357
881653
861073
840593
820203
799852
779538
759182
738781
718232
697506
676492
655097
633221
610657
587368
563026
537752
511308
3.46851e+06
3.40035e+06
3.33682e+06
3.27764e+06
3.22233e+06
3.17032e+06
3.12109e+06
3.0742e+06
3.02926e+06
2.98597e+06
2.94407e+06
2.90335e+06
2.86364e+06
2.8248e+06
2.78671e+06
2.74928e+06
2.71244e+06
2.67612e+06
2.64028e+06
2.60488e+06
2.56987e+06
2.53522e+06
2.50092e+06
2.46696e+06
2.43331e+06
2.39994e+06
2.36684e+06
2.33402e+06
2.30147e+06
2.26916e+06
2.23708e+06
2.20522e+06
2.17358e+06
2.14214e+06
2.11091e+06
2.07991e+06
2.04914e+06
2.01861e+06
1.98832e+06
1.95825e+06
1.92846e+06
1.89886e+06
1.86954e+06
1.84042e+06
1.81157e+06
1.78293e+06
1.75459e+06
1.72642e+06
1.69846e+06
1.67076e+06
1.64328e+06
1.61606e+06
1.58904e+06
1.56227e+06
1.5357e+06
1.50941e+06
1.48329e+06
1.45747e+06
1.43181e+06
1.40647e+06
1.38122e+06
1.35632e+06
1.33145e+06
1.30698e+06
1.28256e+06
1.25852e+06
1.23461e+06
1.211e+06
1.18761e+06
1.16443e+06
1.14149e+06
1.11875e+06
1.09623e+06
1.0739e+06
1.05179e+06
1.02986e+06
1.00815e+06
986600
965250
944056
923038
902156
881422
860794
840272
819814
799403
778996
758554
738025
717355
696459
675285
653679
631619
608845
585418
560991
535756
509515
3.47245e+06
3.40461e+06
3.34107e+06
3.28164e+06
3.22595e+06
3.17349e+06
3.12382e+06
3.07652e+06
3.03121e+06
2.9876e+06
2.94542e+06
2.90446e+06
2.86455e+06
2.82554e+06
2.78732e+06
2.74978e+06
2.71285e+06
2.67646e+06
2.64057e+06
2.60511e+06
2.57006e+06
2.53538e+06
2.50105e+06
2.46706e+06
2.43339e+06
2.39999e+06
2.36688e+06
2.33404e+06
2.30146e+06
2.26914e+06
2.23705e+06
2.20518e+06
2.17352e+06
2.14208e+06
2.11084e+06
2.07983e+06
2.04906e+06
2.01853e+06
1.98824e+06
1.95818e+06
1.92838e+06
1.89879e+06
1.86947e+06
1.84035e+06
1.81152e+06
1.78288e+06
1.75455e+06
1.72635e+06
1.69841e+06
1.6707e+06
1.64324e+06
1.616e+06
1.58899e+06
1.56221e+06
1.53566e+06
1.50934e+06
1.48324e+06
1.4574e+06
1.43176e+06
1.40639e+06
1.38117e+06
1.35625e+06
1.33142e+06
1.30693e+06
1.28252e+06
1.25848e+06
1.23457e+06
1.21096e+06
1.18757e+06
1.16439e+06
1.14145e+06
1.1187e+06
1.09618e+06
1.07384e+06
1.05173e+06
1.02979e+06
1.00806e+06
986496
965137
943916
922883
901965
881206
860530
839971
819448
798984
778487
757971
737321
716547
695493
674184
652390
630183
607241
583709
559235
534037
507978
3.47581e+06
3.40824e+06
3.34471e+06
3.28509e+06
3.22908e+06
3.17626e+06
3.12622e+06
3.07856e+06
3.03293e+06
2.98903e+06
2.94661e+06
2.90544e+06
2.86536e+06
2.8262e+06
2.78786e+06
2.75023e+06
2.71322e+06
2.67677e+06
2.64082e+06
2.60532e+06
2.57023e+06
2.53552e+06
2.50115e+06
2.46715e+06
2.43345e+06
2.40003e+06
2.3669e+06
2.33404e+06
2.30144e+06
2.2691e+06
2.237e+06
2.20512e+06
2.17346e+06
2.142e+06
2.11076e+06
2.07975e+06
2.04898e+06
2.01844e+06
1.98815e+06
1.9581e+06
1.9283e+06
1.89872e+06
1.8694e+06
1.84029e+06
1.81146e+06
1.78281e+06
1.75449e+06
1.72628e+06
1.69836e+06
1.67064e+06
1.6432e+06
1.61593e+06
1.58894e+06
1.56214e+06
1.5356e+06
1.50928e+06
1.48319e+06
1.45733e+06
1.4317e+06
1.40631e+06
1.38112e+06
1.35618e+06
1.33138e+06
1.30687e+06
1.28249e+06
1.25844e+06
1.23454e+06
1.21093e+06
1.18754e+06
1.16435e+06
1.14141e+06
1.11865e+06
1.09613e+06
1.07378e+06
1.05167e+06
1.02971e+06
1.00799e+06
986401
965033
943786
922740
901786
881008
860282
839695
819105
798600
778014
757438
736672
715815
694617
673199
651248
628921
605854
582236
557741
532577
506671
3.47864e+06
3.41129e+06
3.34777e+06
3.288e+06
3.23174e+06
3.17863e+06
3.12828e+06
3.08032e+06
3.03442e+06
2.99028e+06
2.94765e+06
2.9063e+06
2.86607e+06
2.82679e+06
2.78834e+06
2.75062e+06
2.71354e+06
2.67703e+06
2.64103e+06
2.6055e+06
2.57038e+06
2.53563e+06
2.50124e+06
2.46721e+06
2.43349e+06
2.40005e+06
2.3669e+06
2.33402e+06
2.30141e+06
2.26905e+06
2.23694e+06
2.20505e+06
2.17338e+06
2.14192e+06
2.11068e+06
2.07967e+06
2.04889e+06
2.01836e+06
1.98807e+06
1.95803e+06
1.92823e+06
1.89865e+06
1.86934e+06
1.84022e+06
1.81141e+06
1.78276e+06
1.75444e+06
1.7262e+06
1.69831e+06
1.67057e+06
1.64314e+06
1.61586e+06
1.58889e+06
1.56208e+06
1.53555e+06
1.50921e+06
1.48313e+06
1.45725e+06
1.43165e+06
1.40622e+06
1.38106e+06
1.35609e+06
1.33134e+06
1.3068e+06
1.28246e+06
1.2584e+06
1.23452e+06
1.21089e+06
1.18751e+06
1.16432e+06
1.14138e+06
1.11861e+06
1.09609e+06
1.07373e+06
1.05162e+06
1.02965e+06
1.00792e+06
986316
964941
943671
922614
901627
880832
860060
839449
818796
798257
777588
756965
736093
715169
693849
672341
650269
627841
604682
580994
556491
531357
505573
3.48096e+06
3.41378e+06
3.35027e+06
3.2904e+06
3.23394e+06
3.18059e+06
3.12999e+06
3.08179e+06
3.03567e+06
2.99133e+06
2.94852e+06
2.90703e+06
2.86667e+06
2.82728e+06
2.78875e+06
2.75095e+06
2.71381e+06
2.67726e+06
2.64122e+06
2.60564e+06
2.57049e+06
2.53572e+06
2.50131e+06
2.46725e+06
2.43351e+06
2.40006e+06
2.36689e+06
2.334e+06
2.30137e+06
2.269e+06
2.23687e+06
2.20497e+06
2.1733e+06
2.14184e+06
2.1106e+06
2.07959e+06
2.04881e+06
2.01828e+06
1.988e+06
1.95796e+06
1.92816e+06
1.89859e+06
1.86927e+06
1.84016e+06
1.81136e+06
1.7827e+06
1.75439e+06
1.72614e+06
1.69825e+06
1.67052e+06
1.6431e+06
1.6158e+06
1.58884e+06
1.56201e+06
1.53551e+06
1.50915e+06
1.48309e+06
1.45719e+06
1.4316e+06
1.40615e+06
1.38102e+06
1.35601e+06
1.3313e+06
1.30674e+06
1.28244e+06
1.25835e+06
1.23449e+06
1.21086e+06
1.18748e+06
1.16429e+06
1.14135e+06
1.11858e+06
1.09606e+06
1.07369e+06
1.05157e+06
1.0296e+06
1.00786e+06
986244
964862
943573
922506
901491
880681
859869
839237
818529
797963
777221
756559
735600
714620
693204
671621
649456
626944
603721
579973
555470
530361
504671
3.48278e+06
3.41575e+06
3.35226e+06
3.2923e+06
3.2357e+06
3.18217e+06
3.13137e+06
3.08298e+06
3.03668e+06
2.99218e+06
2.94923e+06
2.90762e+06
2.86715e+06
2.82768e+06
2.78908e+06
2.75123e+06
2.71404e+06
2.67744e+06
2.64136e+06
2.60576e+06
2.57058e+06
2.53578e+06
2.50135e+06
2.46728e+06
2.43352e+06
2.40005e+06
2.36687e+06
2.33396e+06
2.30132e+06
2.26894e+06
2.2368e+06
2.20489e+06
2.17322e+06
2.14176e+06
2.11052e+06
2.07952e+06
2.04875e+06
2.01822e+06
1.98793e+06
1.95789e+06
1.9281e+06
1.89854e+06
1.86922e+06
1.84011e+06
1.81131e+06
1.78264e+06
1.75434e+06
1.72608e+06
1.69822e+06
1.67046e+06
1.64307e+06
1.61575e+06
1.5888e+06
1.56196e+06
1.53548e+06
1.5091e+06
1.48306e+06
1.45714e+06
1.43156e+06
1.4061e+06
1.38098e+06
1.35596e+06
1.33127e+06
1.30669e+06
1.28242e+06
1.25831e+06
1.23448e+06
1.21084e+06
1.18747e+06
1.16427e+06
1.14133e+06
1.11855e+06
1.09603e+06
1.07366e+06
1.05154e+06
1.02955e+06
1.00781e+06
986185
964798
943492
922418
901379
880558
859712
839064
818311
797721
776923
756228
735202
714175
692687
671043
648812
626231
602963
579164
554664
529577
503957
3.48414e+06
3.4172e+06
3.35373e+06
3.29372e+06
3.23701e+06
3.18334e+06
3.13241e+06
3.08387e+06
3.03744e+06
2.99282e+06
2.94977e+06
2.90807e+06
2.86753e+06
2.82799e+06
2.78933e+06
2.75143e+06
2.71421e+06
2.67757e+06
2.64147e+06
2.60584e+06
2.57064e+06
2.53583e+06
2.50138e+06
2.46729e+06
2.43352e+06
2.40004e+06
2.36684e+06
2.33393e+06
2.30128e+06
2.26888e+06
2.23674e+06
2.20483e+06
2.17315e+06
2.1417e+06
2.11047e+06
2.07946e+06
2.04869e+06
2.01816e+06
1.98788e+06
1.95785e+06
1.92805e+06
1.8985e+06
1.86917e+06
1.84007e+06
1.81128e+06
1.7826e+06
1.7543e+06
1.72604e+06
1.6982e+06
1.67041e+06
1.64304e+06
1.61572e+06
1.58878e+06
1.56193e+06
1.53545e+06
1.50906e+06
1.48304e+06
1.4571e+06
1.43154e+06
1.40606e+06
1.38095e+06
1.35592e+06
1.33124e+06
1.30666e+06
1.2824e+06
1.25828e+06
1.23447e+06
1.21083e+06
1.18745e+06
1.16425e+06
1.14131e+06
1.11853e+06
1.09601e+06
1.07363e+06
1.05151e+06
1.02952e+06
1.00778e+06
986139
964750
943431
922351
901293
880463
859591
838931
818145
797537
776699
755976
734903
713839
692300
670610
648331
625698
602400
578563
554065
528996
503425
3.48503e+06
3.41816e+06
3.35471e+06
3.29466e+06
3.23789e+06
3.18413e+06
3.1331e+06
3.08447e+06
3.03795e+06
2.99325e+06
2.95013e+06
2.90837e+06
2.86778e+06
2.8282e+06
2.7895e+06
2.75157e+06
2.71432e+06
2.67766e+06
2.64154e+06
2.60589e+06
2.57068e+06
2.53585e+06
2.5014e+06
2.46729e+06
2.43351e+06
2.40002e+06
2.36682e+06
2.3339e+06
2.30124e+06
2.26884e+06
2.23669e+06
2.20478e+06
2.17311e+06
2.14165e+06
2.11043e+06
2.07943e+06
2.04866e+06
2.01813e+06
1.98785e+06
1.95782e+06
1.92802e+06
1.89847e+06
1.86914e+06
1.84005e+06
1.81125e+06
1.78257e+06
1.75429e+06
1.72602e+06
1.69819e+06
1.67039e+06
1.64302e+06
1.6157e+06
1.58876e+06
1.5619e+06
1.53543e+06
1.50904e+06
1.48302e+06
1.45708e+06
1.43152e+06
1.40604e+06
1.38093e+06
1.3559e+06
1.33123e+06
1.30664e+06
1.28239e+06
1.25827e+06
1.23446e+06
1.21082e+06
1.18745e+06
1.16425e+06
1.1413e+06
1.11852e+06
1.09599e+06
1.07362e+06
1.05149e+06
1.0295e+06
1.00775e+06
986110
964719
943390
922307
901236
880401
859512
838843
818036
797414
776551
755807
734706
713614
692045
670320
648014
625341
602027
578163
553669
528613
503073
3.48547e+06
3.41864e+06
3.35519e+06
3.29513e+06
3.23832e+06
3.18453e+06
3.13345e+06
3.08477e+06
3.03821e+06
2.99347e+06
2.95031e+06
2.90852e+06
2.8679e+06
2.8283e+06
2.78959e+06
2.75164e+06
2.71438e+06
2.67771e+06
2.64157e+06
2.60592e+06
2.57069e+06
2.53586e+06
2.50141e+06
2.46729e+06
2.4335e+06
2.40001e+06
2.36681e+06
2.33388e+06
2.30122e+06
2.26882e+06
2.23667e+06
2.20476e+06
2.17308e+06
2.14163e+06
2.11041e+06
2.07941e+06
2.04864e+06
2.01812e+06
1.98784e+06
1.9578e+06
1.92801e+06
1.89846e+06
1.86913e+06
1.84004e+06
1.81124e+06
1.78256e+06
1.75427e+06
1.726e+06
1.69817e+06
1.67038e+06
1.64301e+06
1.61568e+06
1.58875e+06
1.5619e+06
1.53542e+06
1.50903e+06
1.48301e+06
1.45708e+06
1.43151e+06
1.40604e+06
1.38092e+06
1.3559e+06
1.33122e+06
1.30664e+06
1.28238e+06
1.25827e+06
1.23446e+06
1.21082e+06
1.18744e+06
1.16424e+06
1.1413e+06
1.11851e+06
1.09599e+06
1.07361e+06
1.05149e+06
1.02949e+06
1.00774e+06
986096
964705
943370
922287
901209
880373
859474
838803
817984
797357
776479
755727
734609
713505
691919
670178
647857
625166
601843
577967
553472
528424
502903
3.08373e+06
3.07916e+06
3.07019e+06
3.05716e+06
3.04046e+06
3.02053e+06
2.99786e+06
2.97288e+06
2.946e+06
2.91757e+06
2.88789e+06
2.8572e+06
2.82572e+06
2.79365e+06
2.76114e+06
2.72827e+06
2.69516e+06
2.66191e+06
2.62857e+06
2.59519e+06
2.56179e+06
2.52841e+06
2.49512e+06
2.46193e+06
2.42889e+06
2.396e+06
2.3633e+06
2.33081e+06
2.29852e+06
2.26642e+06
2.23452e+06
2.20282e+06
2.17135e+06
2.1401e+06
2.10907e+06
2.07827e+06
2.04769e+06
2.01734e+06
1.9872e+06
1.95729e+06
1.92759e+06
1.89811e+06
1.86884e+06
1.8398e+06
1.81098e+06
1.78239e+06
1.75402e+06
1.72589e+06
1.698e+06
1.67034e+06
1.6429e+06
1.6157e+06
1.58872e+06
1.56197e+06
1.53545e+06
1.50915e+06
1.48309e+06
1.45725e+06
1.43164e+06
1.40626e+06
1.38112e+06
1.3562e+06
1.33151e+06
1.30706e+06
1.28284e+06
1.25885e+06
1.23509e+06
1.21157e+06
1.18828e+06
1.16524e+06
1.14243e+06
1.11987e+06
1.09756e+06
1.0755e+06
1.05369e+06
1.03215e+06
1.01087e+06
989870
969156
948742
928640
908869
889448
870402
851759
833553
815826
798628
782016
766062
750850
736479
723068
710753
699694
690059
682033
675800
671513
669310
3.08455e+06
3.07994e+06
3.07092e+06
3.05783e+06
3.04104e+06
3.02104e+06
2.9983e+06
2.97324e+06
2.94631e+06
2.91783e+06
2.8881e+06
2.85738e+06
2.82588e+06
2.79379e+06
2.76126e+06
2.72838e+06
2.69525e+06
2.66198e+06
2.62864e+06
2.59525e+06
2.56184e+06
2.52846e+06
2.49516e+06
2.46198e+06
2.42894e+06
2.39605e+06
2.36334e+06
2.33084e+06
2.29855e+06
2.26645e+06
2.23455e+06
2.20285e+06
2.17137e+06
2.14012e+06
2.10909e+06
2.07829e+06
2.04771e+06
2.01735e+06
1.98722e+06
1.9573e+06
1.9276e+06
1.89812e+06
1.86884e+06
1.83981e+06
1.81098e+06
1.78239e+06
1.75402e+06
1.72589e+06
1.698e+06
1.67034e+06
1.6429e+06
1.6157e+06
1.58872e+06
1.56197e+06
1.53545e+06
1.50915e+06
1.48309e+06
1.45725e+06
1.43164e+06
1.40626e+06
1.38112e+06
1.3562e+06
1.33151e+06
1.30706e+06
1.28283e+06
1.25884e+06
1.23509e+06
1.21157e+06
1.18828e+06
1.16524e+06
1.14243e+06
1.11987e+06
1.09756e+06
1.07549e+06
1.05368e+06
1.03214e+06
1.01086e+06
989858
969142
948725
928620
908845
889419
870367
851717
833504
815767
798557
781932
765961
750730
736336
722898
710554
699461
689792
681734
675470
671159
668943
3.08617e+06
3.08151e+06
3.07239e+06
3.05915e+06
3.04221e+06
3.02205e+06
2.99916e+06
2.97397e+06
2.94692e+06
2.91835e+06
2.88854e+06
2.85776e+06
2.82621e+06
2.79408e+06
2.76151e+06
2.7286e+06
2.69545e+06
2.66215e+06
2.62878e+06
2.59537e+06
2.56194e+06
2.52855e+06
2.49525e+06
2.46208e+06
2.42903e+06
2.39613e+06
2.36342e+06
2.33091e+06
2.29862e+06
2.26651e+06
2.2346e+06
2.2029e+06
2.17141e+06
2.14015e+06
2.10912e+06
2.07832e+06
2.04774e+06
2.01738e+06
1.98725e+06
1.95733e+06
1.92762e+06
1.89813e+06
1.86886e+06
1.83982e+06
1.81099e+06
1.7824e+06
1.75403e+06
1.7259e+06
1.698e+06
1.67034e+06
1.6429e+06
1.6157e+06
1.58872e+06
1.56197e+06
1.53545e+06
1.50915e+06
1.48309e+06
1.45725e+06
1.43164e+06
1.40626e+06
1.38112e+06
1.3562e+06
1.33151e+06
1.30706e+06
1.28283e+06
1.25884e+06
1.23509e+06
1.21156e+06
1.18828e+06
1.16523e+06
1.14242e+06
1.11986e+06
1.09755e+06
1.07548e+06
1.05367e+06
1.03212e+06
1.01084e+06
989835
969115
948692
928580
908797
889362
870299
851635
833406
815650
798417
781764
765760
750490
736051
722560
710155
698995
689257
681133
674809
670448
668205
3.08863e+06
3.08387e+06
3.07459e+06
3.06114e+06
3.04396e+06
3.02357e+06
3.00045e+06
2.97507e+06
2.94785e+06
2.91913e+06
2.8892e+06
2.85832e+06
2.8267e+06
2.79451e+06
2.76189e+06
2.72893e+06
2.69573e+06
2.6624e+06
2.629e+06
2.59555e+06
2.56209e+06
2.52869e+06
2.49538e+06
2.46221e+06
2.42916e+06
2.39626e+06
2.36353e+06
2.33101e+06
2.2987e+06
2.26659e+06
2.23467e+06
2.20296e+06
2.17146e+06
2.1402e+06
2.10916e+06
2.07836e+06
2.04778e+06
2.01742e+06
1.98728e+06
1.95737e+06
1.92765e+06
1.89816e+06
1.86888e+06
1.83984e+06
1.81101e+06
1.78241e+06
1.75404e+06
1.72591e+06
1.69801e+06
1.67034e+06
1.64291e+06
1.6157e+06
1.58872e+06
1.56197e+06
1.53545e+06
1.50915e+06
1.48309e+06
1.45725e+06
1.43164e+06
1.40626e+06
1.38112e+06
1.3562e+06
1.33151e+06
1.30706e+06
1.28283e+06
1.25884e+06
1.23508e+06
1.21156e+06
1.18827e+06
1.16522e+06
1.14242e+06
1.11985e+06
1.09753e+06
1.07547e+06
1.05365e+06
1.0321e+06
1.01081e+06
989801
969074
948643
928521
908726
889277
870197
851514
833260
815475
798207
781513
765461
750133
735625
722054
709558
698297
688454
680228
673809
669374
667087
3.09193e+06
3.08704e+06
3.07753e+06
3.06378e+06
3.04627e+06
3.02557e+06
3.00216e+06
2.97652e+06
2.94908e+06
2.92017e+06
2.89008e+06
2.85907e+06
2.82735e+06
2.79508e+06
2.76238e+06
2.72935e+06
2.6961e+06
2.66272e+06
2.62927e+06
2.59578e+06
2.56229e+06
2.52886e+06
2.49554e+06
2.46236e+06
2.42932e+06
2.3964e+06
2.36365e+06
2.33112e+06
2.29879e+06
2.26668e+06
2.23475e+06
2.20303e+06
2.17153e+06
2.14026e+06
2.10922e+06
2.07841e+06
2.04783e+06
2.01747e+06
1.98733e+06
1.95741e+06
1.9277e+06
1.8982e+06
1.86892e+06
1.83987e+06
1.81103e+06
1.78243e+06
1.75406e+06
1.72592e+06
1.69802e+06
1.67035e+06
1.64291e+06
1.61571e+06
1.58873e+06
1.56198e+06
1.53545e+06
1.50916e+06
1.48309e+06
1.45725e+06
1.43164e+06
1.40626e+06
1.38112e+06
1.3562e+06
1.33151e+06
1.30705e+06
1.28283e+06
1.25884e+06
1.23508e+06
1.21155e+06
1.18826e+06
1.16521e+06
1.1424e+06
1.11984e+06
1.09752e+06
1.07545e+06
1.05363e+06
1.03207e+06
1.01078e+06
989757
969020