/*--------------------------------*- C++ -*----------------------------------*\
| =========                 |                                                 |
| \\      /  F ield         | OpenFOAM: The Open Source CFD Toolbox           |
|  \\    /   O peration     | Version:  2.4.0                                 |
|   \\  /    A nd           | Web:      www.OpenFOAM.org                      |
|    \\/     M anipulation  |                                                 |
\*---------------------------------------------------------------------------*/
FoamFile
{
    version     2.0;
    format      ascii;
    class       volScalarField;
    location    "0.03";
    object      p;
}
// * * * * * * * * * * * * * * * * * * * * * * * * * * * * * * * * * * * * * //

dimensions      [0 2 -2 0 0 0 0];

internalField   nonuniform List<scalar> 
4400
(
106.586
86.2288
78.7866
75.3919
72.9416
70.5
68.3359
66.154
63.429
61.8822
104.649
86.297
78.8234
75.4051
72.9445
70.4999
68.3317
66.1588
63.4241
61.9618
103.43
86.617
78.9579
75.445
72.9651
70.5094
68.3295
66.1642
63.4515
62.0882
102.694
87.0081
79.1357
75.5034
73.0065
70.5401
68.3388
66.1666
63.5187
62.2597
102.097
87.3659
79.3134
75.5657
73.0621
70.5933
68.3651
66.1654
63.6285
62.4241
101.585
87.6642
79.4632
75.6129
73.1116
70.6573
68.4049
66.1577
63.7653
62.5599
101.163
87.9003
79.5851
75.6497
73.144
70.7149
68.4501
66.1507
63.8682
62.6926
100.842
88.0827
79.6768
75.6731
73.1606
70.7656
68.4797
66.1567
63.9269
62.7527
100.626
88.207
79.7388
75.695
73.1607
70.7981
68.5138
66.1539
63.9917
62.8034
100.517
88.2741
79.764
75.7139
73.1542
70.8153
68.5406
66.147
64.0632
62.8222
100.516
88.2811
79.7542
75.7324
73.138
70.817
68.5627
66.1521
64.12
62.8459
100.623
88.2265
79.7095
75.7523
73.1139
70.8016
68.5835
66.1619
64.1699
62.8363
100.839
88.1131
79.6289
75.7667
73.0818
70.7735
68.5954
66.1766
64.2162
62.8248
101.16
87.9399
79.5163
75.7773
73.0418
70.7286
68.6023
66.1952
64.2562
62.782
101.582
87.7101
79.3749
75.7684
72.9951
70.6735
68.5998
66.2127
64.2966
62.7302
102.093
87.4186
79.2075
75.7389
72.9411
70.6151
68.5891
66.2288
64.3335
62.6943
102.686
87.0684
79.0187
75.6869
72.8861
70.5679
68.5774
66.2438
64.3617
62.6841
103.418
86.6853
78.8343
75.6317
72.8465
70.5434
68.5713
66.2569
64.3803
62.7009
104.633
86.369
78.6981
75.5923
72.8271
70.5387
68.5696
66.2647
64.3876
62.7382
106.568
86.3012
78.6611
75.5804
72.8222
70.5428
68.5697
66.2665
64.3879
62.8418
61.7704
63.557
65.1177
62.3304
57.3621
53.5374
48.1532
37.981
25.6585
16.9515
13.4362
15.0109
21.4671
28.8819
34.7491
41.2785
50.5712
60.9951
69.9576
76.6756
81.4131
84.9424
87.5834
89.2762
90.3495
91.1836
91.8219
92.2345
92.4815
92.6312
92.7217
92.7736
92.7999
92.8088
92.8057
92.7938
92.774
92.7526
92.7269
92.6989
92.6691
92.6379
92.6059
92.5731
92.5398
92.5061
92.4721
92.4379
92.4035
92.369
92.3343
92.2994
92.2644
92.2292
92.1938
92.158
92.122
92.0848
92.048
92.0075
91.97
91.921
91.8846
91.8129
91.7831
91.6528
91.6497
91.3857
91.486
91.0047
91.4571
90.8513
91.9543
91.4599
92.7506
92.1858
92.8063
92.1498
92.3717
91.6695
92.3351
91.8367
92.5794
91.9721
92.335
91.7451
92.2112
91.7824
92.0262
91.3518
91.468
90.8187
90.6455
89.2677
89.115
86.6075
86.2718
79.8016
78.6713
49.2792
61.2989
62.9724
65.2835
62.6317
56.3843
52.9175
49.2679
40.5449
28.395
19.775
15.9635
17.5698
23.432
30.3809
36.2066
42.6651
50.8899
60.0654
68.6591
75.3492
80.1596
83.9044
86.879
88.777
89.8724
90.6901
91.3779
91.8761
92.2034
92.4173
92.5567
92.6451
92.6988
92.7285
92.7413
92.7417
92.7334
92.7195
92.7003
92.6774
92.6517
92.6239
92.5945
92.5638
92.5322
92.4999
92.467
92.4336
92.3998
92.3657
92.3313
92.2966
92.2617
92.2264
92.1909
92.1547
92.1184
92.0807
92.0434
92.0019
91.9639
91.913
91.8764
91.8001
91.7713
91.6281
91.6247
91.3204
91.4068
90.8187
91.24
90.4827
91.6363
91.1101
92.5075
91.9626
92.574
91.803
92.1165
91.1985
92.1499
91.3565
92.4828
91.4885
92.225
91.1953
92.1043
91.2985
91.9095
90.7348
91.1329
90.1245
90.0361
88.0172
88.3336
84.8465
84.8193
75.6495
74.5891
41.9355
60.9864
62.2798
65.1318
62.7784
55.4532
51.9332
50.2738
42.7732
30.6598
21.5406
19.0755
20.6479
25.6901
32.31
38.1831
44.312
51.6039
59.2063
66.9319
73.5971
78.6052
82.6634
86.0438
88.2493
89.4382
90.2529
90.9707
91.5379
91.939
92.2128
92.3974
92.5205
92.6008
92.6512
92.6797
92.6924
92.6939
92.6874
92.6744
92.6565
92.6348
92.6102
92.5833
92.5548
92.5248
92.4938
92.4619
92.4293
92.3961
92.3624
92.3283
92.2938
92.259
92.2237
92.188
92.1516
92.115
92.0768
92.039
91.9967
91.9582
91.9057
91.8691
91.7896
91.7619
91.6104
91.6063
91.2766
91.337
90.6805
91.0022
90.1839
91.2583
90.8818
92.2497
91.8187
92.2144
91.2847
91.6044
90.5834
91.7362
90.732
92.1423
90.653
91.8691
90.341
91.9077
90.4849
91.7621
89.9531
90.8345
89.4094
89.5004
86.6668
87.2021
82.7955
83.3798
72.2694
69.8441
40.3908
60.6327
61.485
64.7568
62.8545
55.04
51.5611
51.2352
44.7346
33.1092
25.1634
23.347
24.4859
28.3782
34.4047
40.2362
45.7942
52.1612
58.7318
65.4443
71.7154
76.8604
81.2479
85.035
87.6088
88.974
89.8342
90.591
91.2271
91.6967
92.0249
92.2505
92.4047
92.5089
92.5776
92.6205
92.6449
92.6556
92.6564
92.6493
92.6361
92.6183
92.5968
92.5725
92.5459
92.5176
92.4878
92.4569
92.4251
92.3925
92.3593
92.3255
92.2911
92.2563
92.221
92.1852
92.1486
92.1117
92.073
92.0349
91.9918
91.953
91.8993
91.8627
91.7813
91.7552
91.6005
91.5976
91.2607
91.2956
90.6232
90.8032
90.0262
90.8673
90.7705
91.934
91.6697
91.6675
90.5407
90.8609
89.837
91.1624
90.0978
91.5269
89.5073
91.2168
89.2503
91.4023
89.1677
91.3235
88.5104
90.509
88.1442
89.1947
85.4097
85.7246
80.655
81.0595
69.3053
64.4134
41.5437
60.3378
60.7514
64.2257
62.8458
55.0673
51.6675
52.1699
46.417
35.7488
29.2119
28.1173
28.7484
31.5337
36.6232
41.9193
46.8098
52.0209
57.9662
64.1593
69.9297
75.0505
79.7188
83.8627
86.8077
88.423
89.3919
90.2224
90.9382
91.4772
91.8547
92.1156
92.2971
92.4229
92.5087
92.5652
92.6002
92.6195
92.627
92.6254
92.6167
92.6025
92.584
92.5621
92.5374
92.5106
92.4821
92.4521
92.4211
92.389
92.3562
92.3227
92.2885
92.2538
92.2184
92.1825
92.1457
92.1085
92.0695
92.031
91.9874
91.9481
91.8937
91.8572
91.7754
91.7507
91.5991
91.5978
91.2766
91.287
90.6587
90.6749
89.993
90.4766
90.5677
91.3974
91.1436
90.8165
89.5617
89.9818
89.0649
90.5779
89.4918
90.7463
88.5923
90.3001
88.3238
90.5128
87.8135
90.112
86.4877
89.5549
85.9578
88.3095
83.1893
85.1555
79.1604
78.6622
66.9777
57.484
41.752
60.2745
60.2497
63.4389
62.6432
55.4209
52.0942
52.9933
48.0194
38.6826
33.4367
32.7902
33.1072
34.9721
39.0739
43.5562
47.5605
51.4705
56.4762
62.3827
67.9959
73.1729
78.1293
82.5792
85.8509
87.7567
88.9123
89.8631
90.6748
91.2836
91.7053
91.996
92.1999
92.3435
92.4438
92.5124
92.5573
92.5847
92.5987
92.6024
92.5981
92.5874
92.5717
92.5521
92.5293
92.5039
92.4766
92.4476
92.4172
92.3857
92.3532
92.32
92.286
92.2513
92.2159
92.1799
92.1429
92.1055
92.0662
92.0273
91.9833
91.9437
91.889
91.8524
91.7717
91.7483
91.6047
91.607
91.3187
91.3146
90.7675
90.6263
90.0228
90.0411
90.1195
90.4873
90.1607
89.7234
88.5564
89.1828
88.4174
89.9551
88.9644
89.8769
87.8359
89.3026
87.5775
89.4975
86.8064
88.7359
84.9334
87.9258
83.5418
86.5122
79.8689
83.5863
75.9338
75.1909
65.027
52.5263
42.1627
60.5859
60.2235
62.4789
62.1447
55.9995
52.7567
53.673
49.6887
42.1484
37.6972
37.1693
37.3055
38.3368
41.2846
45.0636
48.0474
50.7305
54.5712
59.7691
65.3955
70.9624
76.3979
81.2495
84.8169
87.0118
88.4069
89.5239
90.4479
91.1203
91.5751
91.8886
92.1124
92.2728
92.3866
92.4657
92.5192
92.5533
92.573
92.5814
92.5808
92.5733
92.5602
92.5427
92.5216
92.4976
92.4714
92.4432
92.4135
92.3825
92.3504
92.3174
92.2836
92.249
92.2135
92.1775
92.1403
92.1027
92.0631
92.0239
91.9797
91.9397
91.8851
91.8482
91.7697
91.7466
91.6152
91.62
91.3781
91.3666
90.9243
90.6498
90.0956
89.569
89.5013
89.3057
88.9916
88.6524
87.8492
88.6121
87.9926
89.251
88.4411
88.9262
87.0926
88.3479
86.8934
88.3863
85.9498
87.4275
83.9772
86.2433
81.9134
84.0439
77.0734
80.196
70.8621
69.979
60.7011
49.9971
42.9542
61.7819
60.7089
61.7056
61.5999
56.7429
53.6264
54.232
51.4674
45.5952
41.854
41.1415
41.1331
41.5176
43.2889
46.4133
48.4839
49.8074
52.4984
56.7424
62.0649
68.2494
74.4552
79.8284
83.7433
86.2518
87.9198
89.2271
90.267
90.9964
91.4728
91.7989
92.035
92.2071
92.3315
92.4199
92.4815
92.5227
92.5481
92.5612
92.5645
92.56
92.5494
92.5339
92.5144
92.4917
92.4665
92.4391
92.41
92.3795
92.3478
92.315
92.2813
92.2468
92.2113
92.1752
92.1379
92.1001
92.0603
92.0208
91.9764
91.936
91.882
91.8443
91.7689
91.7449
91.6268
91.6319
91.4377
91.428
91.0927
90.7407
90.2197
89.1527
88.856
88.0563
87.8664
87.9456
87.5451
88.2803
87.6729
88.4641
87.7003
87.929
86.4273
87.4694
86.1125
87.1
84.78
86.0738
83.0935
84.5674
80.3612
81.1269
75.1206
76.4444
67.3862
64.9724
57.175
49.0936
42.4398
62.1962
61.1933
61.2406
61.2499
57.6624
54.7577
54.7689
53.011
48.923
45.9153
44.8973
44.7007
44.6942
45.4959
47.7498
48.9529
48.9224
50.3761
53.6691
58.4667
65.0816
72.1904
78.3058
82.7014
85.5501
87.5048
89.0113
90.1468
90.9065
91.3886
91.7221
91.9701
92.1542
92.2882
92.3841
92.4515
92.4975
92.527
92.5436
92.5499
92.548
92.5396
92.5258
92.5078
92.4863
92.462
92.4353
92.4068
92.3768
92.3453
92.3128
92.2792
92.2447
92.2092
92.173
92.1356
92.0976
92.0577
92.0179
91.9736
91.9327
91.8795
91.8408
91.7691
91.742
91.6372
91.6364
91.4883
91.477
91.2579
90.874
90.4132
88.9125
88.3612
86.9112
87.0458
87.6278
87.6258
88.1638
87.434
87.5984
86.9402
86.8905
85.8723
86.604
85.1695
85.6209
83.4347
84.577
81.8413
82.5853
78.4103
78.199
73.4255
72.1267
65.79
61.9163
56.4
48.7137
41.4332
62.5705
61.6835
61.0074
60.8566
58.4807
56.1012
55.6111
54.3789
51.7237
49.4533
48.3938
48.0428
47.8003
47.9468
49.2637
49.3863
48.0006
48.3219
50.6466
54.9802
62.0417
69.8626
76.655
81.6712
84.9981
87.2559
88.917
90.1035
90.8668
91.3342
91.657
91.9061
92.0987
92.2419
92.3458
92.42
92.4718
92.5061
92.5267
92.5362
92.5369
92.5305
92.5185
92.5017
92.4813
92.4578
92.4319
92.4039
92.3742
92.3431
92.3107
92.2772
92.2428
92.2073
92.171
92.1335
92.0953
92.0553
92.0153
91.9711
91.9297
91.8776
91.8376
91.7699
91.7383
91.6458
91.6334
91.5241
91.5059
91.3999
91.025
90.6513
88.924
88.1855
86.0929
86.646
87.5168
87.9721
88.1931
87.4154
86.7809
86.2523
86.1032
85.45
85.7056
84.2057
84.0998
82.2865
82.9141
80.3858
80.2446
76.6222
75.5245
71.8628
69.0564
65.3041
60.9089
57.421
48.5612
41.624
62.7183
61.9736
61.0589
60.6766
59.1482
57.4043
56.5583
55.7419
54.2261
52.4188
51.5061
51.14
50.5819
50.3014
50.8294
49.8419
47.152
46.3992
47.8834
51.8347
59.437
67.8893
75.1843
80.7801
84.6464
87.2281
88.9547
90.0879
90.8069
91.2701
91.602
91.8612
92.0625
92.2121
92.3204
92.398
92.4528
92.4899
92.5129
92.5247
92.5274
92.5227
92.512
92.4964
92.4769
92.4542
92.4288
92.4013
92.3719
92.341
92.3088
92.2755
92.241
92.2055
92.1692
92.1316
92.0933
92.0532
92.0129
91.969
91.9271
91.8763
91.8347
91.7715
91.7342
91.654
91.6254
91.5497
91.5094
91.5147
91.1535
90.9302
89.1908
88.411
85.7936
86.595
87.4354
88.4252
88.4149
87.746
86.3753
85.803
85.7316
85.2608
85.0596
83.4971
82.7203
81.5065
81.3294
79.1687
77.9793
75.4248
73.6719
70.7866
67.568
65.8656
61.1388
58.8796
49.1666
43.137
62.8887
62.2946
61.1411
60.5651
60.1879
58.692
57.4297
57.0464
56.5688
55.1783
54.215
53.9682
53.3213
52.5775
52.2662
50.1969
46.5533
44.9328
45.5992
49.2944
57.4023
66.4834
74.2312
80.2345
84.4115
87.1222
88.872
90.007
90.7453
91.2335
91.5763
91.8348
92.0322
92.1808
92.2917
92.3736
92.4328
92.4737
92.4999
92.5142
92.5188
92.5157
92.5062
92.4917
92.473
92.451
92.4261
92.399
92.3699
92.3392
92.3072
92.2739
92.2394
92.204
92.1675
92.1299
92.0914
92.0513
92.0108
91.9672
91.9248
91.8755
91.8323
91.7739
91.7309
91.6636
91.6176
91.5722
91.4968
91.547
91.2377
91.225
89.656
89.0179
86.1644
86.9216
87.3672
88.8952
88.7095
88.556
86.4051
85.8136
85.6239
85.3956
84.7097
83.3549
81.9584
81.1998
80.3848
78.548
76.5704
74.9789
72.9544
71.0514
67.3793
67.1404
61.8669
60.2135
50.6077
44.7191
62.9529
62.4473
61.2129
60.6551
60.6216
59.719
58.4965
58.4244
58.5826
57.842
56.881
56.5064
55.9615
54.8133
53.567
50.64
46.2567
44.0119
44.128
47.443
55.9269
65.5807
73.6919
79.8194
84.1218
86.9704
88.7918
89.9433
90.6816
91.1756
91.5293
91.7966
92.0011
92.1566
92.2726
92.358
92.4195
92.4623
92.4901
92.5059
92.5119
92.5099
92.5015
92.4878
92.4698
92.4482
92.4238
92.397
92.3682
92.3377
92.3057
92.2725
92.2381
92.2025
92.166
92.1283
92.0897
92.0497
92.0089
91.9657
91.9228
91.8751
91.8304
91.7771
91.729
91.6754
91.6135
91.5977
91.4833
91.6105
91.2717
91.5143
90.1867
89.9537
87.1574
87.7
87.3676
89.2884
88.9161
89.4384
86.9055
86.4534
85.5609
85.8593
84.9022
83.9364
81.9728
81.559
80.1691
78.9715
76.2819
75.6444
73.2002
72.576
68.3319
68.8926
62.9951
61.3119
52.1697
45.7916
62.9597
62.5684
61.2613
60.733
61.5667
61.1047
59.6007
59.3732
60.3678
60.3864
59.6273
58.9181
58.0448
56.7072
54.7709
51.2393
46.5148
43.6747
43.3928
46.5478
55.0286
64.9612
73.2972
79.5058
83.8997
86.8415
88.7238
89.9092
90.6649
91.1656
91.5185
91.7824
91.9838
92.1378
92.2546
92.3421
92.4063
92.4515
92.4814
92.4988
92.5061
92.5052
92.4976
92.4846
92.4671
92.446
92.4219
92.3954
92.3667
92.3363
92.3045
92.2713
92.2368
92.2013
92.1647
92.127
92.0883
92.0482
92.0073
91.9644
91.9212
91.875
91.8291
91.7807
91.7286
91.6886
91.6141
91.6271
91.4744
91.6601
91.2697
91.7545
90.6641
91.011
88.5487
88.9312
87.6024
89.6033
89.0008
90.1798
87.7413
87.7662
85.6293
86.5961
85.4794
85.4046
82.3999
82.6467
80.596
80.5548
76.9172
77.4264
74.063
74.7672
69.7702
70.6522
64.2423
62.0916
53.4082
46.4886
62.8744
62.5899
61.4404
61.0993
62.0222
61.9736
60.617
60.7016
61.9662
62.0117
61.4532
61.0393
59.9517
58.2163
55.7938
51.8118
47.0705
43.9951
43.4031
46.4225
54.7383
64.7253
73.118
79.3739
83.812
86.7997
88.712
89.9037
90.6544
91.1515
91.504
91.7682
91.9712
92.1272
92.2456
92.3342
92.3991
92.4451
92.4758
92.4939
92.502
92.5017
92.4947
92.4822
92.4651
92.4443
92.4205
92.3941
92.3656
92.3353
92.3035
92.2703
92.2358
92.2003
92.1636
92.1258
92.087
92.0469
92.0059
91.9633
91.9199
91.8749
91.8283
91.784
91.7295
91.7012
91.6185
91.6561
91.4737
91.7038
91.2522
91.9273
90.9932
91.9898
89.9866
90.4909
88.2131
89.986
88.948
90.7669
88.4989
89.2993
86.1888
87.4823
86.0739
87.2753
83.2561
84.4056
81.528
82.8118
78.0567
79.8528
75.3798
76.9374
71.3347
71.9854
65.1946
62.4831
54.3954
47.1446
62.7335
62.5861
61.6729
61.3964
62.6775
62.8298
61.5333
61.4227
62.9632
63.4361
62.8169
62.3017
61.2286
59.3333
56.6811
52.5228
47.7821
44.6501
44.0051
47.0365
55.0329
64.9467
73.1933
79.412
83.8271
86.8031
88.7137
89.908
90.6613
91.158
91.5073
91.7672
91.9664
92.12
92.2379
92.3271
92.393
92.44
92.4715
92.4905
92.4991
92.4994
92.4928
92.4806
92.4637
92.4432
92.4195
92.3932
92.3648
92.3345
92.3027
92.2695
92.235
92.1994
92.1627
92.1248
92.086
92.0459
92.0048
91.9624
91.9189
91.8749
91.828
91.7867
91.7313
91.7112
91.6243
91.6801
91.4796
91.7433
91.2411
92.0356
91.1456
92.6766
91.1313
92.029
89.1546
90.5091
88.8605
91.0807
88.9742
90.8264
87.2441
88.4798
86.4922
89.0156
84.6434
86.4034
82.4213
85.2032
79.4649
82.18
76.9003
78.6925
72.5597
72.817
65.9647
62.6033
55.1677
47.8553
62.6731
62.5733
61.8906
61.7509
62.6366
63.1537
62.2096
62.2053
63.5401
64.0641
63.5897
63.084
62.0165
60.079
57.2978
53.1776
48.6177
45.5407
45.0024
48.1645
55.6824
65.5328
73.4257
79.5269
83.8793
86.8255
88.7285
89.9215
90.6722
91.1651
91.511
91.7686
91.9665
92.1196
92.2371
92.3258
92.3915
92.4383
92.4699
92.489
92.4978
92.4982
92.4918
92.4797
92.463
92.4425
92.4189
92.3926
92.3642
92.334
92.3022
92.2689
92.2344
92.1987
92.1619
92.124
92.0851
92.045
92.0038
91.9616
91.9181
91.8748
91.828
91.7887
91.7331
91.7178
91.6288
91.695
91.4865
91.7744
91.247
92.1036
91.1603
92.977
91.657
93.209
90.3628
91.2935
88.9178
91.3016
89.0412
91.9122
88.5145
89.8212
86.8104
90.2404
85.9857
88.4868
83.2134
87.0892
81.0523
84.1043
78.1053
80.0037
73.454
73.0837
66.5192
62.639
55.8143
48.606
62.6726
62.6028
62.0834
61.9941
62.8831
63.3491
62.6178
62.6274
63.8076
64.322
63.8957
63.3655
62.317
60.4132
57.6335
53.646
49.4122
46.5351
46.2094
49.547
56.8359
65.9367
73.666
79.6313
83.9089
86.8234
88.7194
89.9161
90.673
91.1697
91.5159
91.7718
91.9678
92.1194
92.2361
92.3246
92.3903
92.4373
92.469
92.4882
92.4971
92.4977
92.4913
92.4793
92.4626
92.4422
92.4186
92.3923
92.3639
92.3337
92.3018
92.2685
92.234
92.1982
92.1614
92.1234
92.0844
92.0443
92.0032
91.961
91.9177
91.8747
91.8282
91.7898
91.735
91.72
91.6328
91.6963
91.4942
91.7817
91.2705
92.1334
91.1612
93.0234
91.4899
93.637
91.078
92.1713
89.4437
91.5699
89.134
92.3795
89.3408
91.3879
87.5463
90.8935
86.798
90.4386
84.3464
88.2416
82.293
85.7856
78.9024
80.7368
74.1739
73.0804
67.0432
62.8088
56.2924
49.2761
62.7316
62.6416
62.2102
62.1878
62.9267
63.3225
62.8182
62.8503
63.7825
64.2707
63.9327
63.3824
62.3266
60.4552
57.7235
53.9352
50.0176
47.3817
47.2559
50.7138
57.7563
66.2969
73.8095
79.6638
83.8773
86.7766
88.6745
89.8825
90.6519
91.1575
91.509
91.7676
91.9649
92.1172
92.2344
92.3233
92.3892
92.4363
92.4682
92.4875
92.4966
92.4972
92.4909
92.479
92.4624
92.4419
92.4183
92.3921
92.3637
92.3335
92.3016
92.2683
92.2337
92.198
92.1611
92.1231
92.0841
92.044
92.0028
91.9608
91.9175
91.8747
91.8287
91.7902
91.7371
91.7196
91.6384
91.6902
91.5076
91.7692
91.3049
92.12
91.2028
92.9179
91.3869
93.6133
90.7835
92.7207
89.719
91.8563
89.3889
92.6032
89.5685
92.3573
88.1384
91.3662
87.1423
91.5574
85.2576
88.9083
82.9242
86.945
79.6148
80.9617
74.7125
73.0289
67.5179
62.996
56.6046
49.754
62.8542
62.6756
62.2739
62.2864
62.9171
63.2489
62.875
62.9456
63.7104
64.113
63.8329
63.2602
62.1618
60.3292
57.6928
54.067
50.3657
47.8968
47.8917
51.3917
58.2514
66.4806
73.8295
79.6187
83.8108
86.7104
88.6171
89.842
90.6275
91.144
91.5015
91.763
91.9616
92.1146
92.2322
92.3215
92.3877
92.4351
92.4672
92.4867
92.4959
92.4966
92.4904
92.4786
92.462
92.4417
92.4181
92.3919
92.3636
92.3333
92.3014
92.2681
92.2336
92.1978
92.161
92.123
92.084
92.0439
92.0027
91.9607
91.9175
91.8747
91.8294
91.7899
91.7394
91.7171
91.6447
91.683
91.5204
91.7629
91.3255
92.1258
91.2162
92.9061
91.3427
93.515
90.8994
92.7097
89.7359
92.1447
89.425
92.7242
89.5404
92.5388
88.215
91.6527
87.1894
91.8509
85.4659
89.2524
83.0726
87.3188
79.8813
81.0606
74.8838
72.9384
67.6102
63.0068
56.6321
49.7115
57.2751
56.0372
53.7202
50.7221
47.3843
44.2164
41.4105
37.916
33.0821
29.6183
28.9691
31.2886
37.4094
46.2755
53.8205
62.2425
70.7425
77.9125
84.1157
88.9315
92.4072
94.7104
96.1044
96.794
96.9831
96.8442
96.5125
96.085
95.6346
95.1964
94.7945
94.4392
94.1327
93.8721
93.6521
93.467
93.3109
93.1788
93.0662
92.9692
92.8848
92.8106
92.7446
92.685
92.6308
92.5808
92.5343
92.4906
92.4494
92.4101
92.3726
92.3367
92.3022
92.2692
92.2376
92.2076
92.1793
92.1529
92.1289
92.1076
92.0896
92.0757
92.0667
92.0636
92.0678
92.0804
92.1028
92.136
92.181
92.238
92.3066
92.3863
92.4753
92.5726
92.6766
92.7873
92.9053
93.0321
93.171
93.3253
93.4983
93.6958
93.9184
94.1733
94.4602
94.7829
95.1405
95.5324
95.9506
96.39
96.8302
97.2678
97.6888
98.1063
98.546
99.0587
99.6938
100.463
101.235
101.672
57.1744
55.9399
53.6607
50.6717
47.3459
44.2872
41.3942
37.2965
31.92
28.1929
27.7288
30.352
36.6067
45.6036
53.3716
61.9428
70.4391
77.7699
84.0585
88.9428
92.4304
94.7569
96.1505
96.8339
97.0145
96.8667
96.5266
96.0953
95.6355
95.1937
94.7905
94.435
94.1287
93.8684
93.6489
93.4643
93.3088
93.1771
93.0647
92.9681
92.8839
92.8099
92.744
92.6846
92.6304
92.5805
92.534
92.4904
92.4492
92.4099
92.3724
92.3365
92.302
92.269
92.2374
92.2073
92.179
92.1525
92.1284
92.107
92.0889
92.0748
92.0657
92.0624
92.0664
92.0788
92.1011
92.1343
92.1793
92.2365
92.3054
92.3855
92.4748
92.5723
92.6765
92.7867
92.9045
93.0302
93.1689
93.3215
93.4946
93.6898
93.9132
94.1649
94.4537
94.7725
95.1332
95.5214
95.9444
96.3806
96.8282
97.2647
97.6934
98.1056
98.5429
99.0393
99.667
100.426
101.213
101.66
57.2182
56.0238
53.8354
50.8743
47.554
44.3599
40.9832
36.0448
29.7273
25.3786
25.2576
28.5885
34.9305
44.1883
52.4491
61.2539
69.809
77.395
83.8496
88.8478
92.3888
94.7475
96.1517
96.8354
97.0116
96.8584
96.5146
96.0808
95.6233
95.1825
94.7805
94.4268
94.1221
93.8633
93.645
93.4613
93.3065
93.1753
93.0634
92.967
92.8831
92.8093
92.7435
92.6842
92.6301
92.5802
92.5338
92.4902
92.4489
92.4097
92.3722
92.3362
92.3017
92.2685
92.2369
92.2067
92.1782
92.1516
92.1272
92.1055
92.0871
92.0726
92.063
92.0591
92.0626
92.0744
92.0962
92.129
92.174
92.2316
92.301
92.382
92.4718
92.5701
92.6738
92.7839
92.8996
93.0244
93.1592
93.3115
93.4784
93.675
93.8893
94.1434
94.421
94.7421
95.0905
95.4825
95.8928
96.3377
96.7757
97.228
97.6542
98.0857
98.5252
99.0361
99.6583
100.443
101.254
101.714
57.4543
56.3612
54.3312
51.5914
48.2423
44.5136
40.12
34.1625
26.8381
21.5551
21.7063
26.1391
32.8763
42.3101
51.1428
60.1456
68.929
76.8035
83.4973
88.6481
92.277
94.6804
96.105
96.7964
96.9738
96.8194
96.4748
96.0414
95.5865
95.151
94.755
94.4065
94.1065
93.8515
93.6362
93.4548
93.3018
93.1719
93.0609
92.9651
92.8817
92.8082
92.7427
92.6835
92.6296
92.5798
92.5334
92.4898
92.4485
92.4093
92.3717
92.3357
92.3011
92.2678
92.236
92.2056
92.1768
92.1499
92.1252
92.103
92.084
92.0688
92.0583
92.0535
92.0559
92.0666
92.0876
92.1198
92.1646
92.2223
92.2926
92.3746
92.4656
92.5642
92.6682
92.7757
92.8907
93.0086
93.1431
93.2839
93.4527
93.6335
93.8508
94.0854
94.3656
94.6635
95.0147
95.3802
95.7974
96.2174
96.6737
97.1164
97.5769
98.0263
98.5146
99.0621
99.7433
100.546
101.389
101.855
57.8618
56.9165
55.1217
52.632
49.2586
44.6911
38.8585
31.8603
23.5605
17.0138
17.0972
22.893
30.385
40.0454
49.5041
58.6098
67.8163
76.0234
83.0182
88.3548
92.0998
94.5606
96.0137
96.7191
96.9031
96.7518
96.4096
95.9802
95.5314
95.1036
94.7158
94.3751
94.0819
93.8326
93.622
93.4442
93.2938
93.1659
93.0564
92.9617
92.8791
92.8062
92.7411
92.6823
92.6286
92.5789
92.5327
92.4891
92.4479
92.4086
92.371
92.3349
92.3002
92.2668
92.2348
92.2042
92.1751
92.1478
92.1226
92.0998
92.08
92.0638
92.0522
92.0461
92.0472
92.0564
92.0762
92.1073
92.1518
92.2099
92.281
92.3648
92.4566
92.5572
92.6592
92.7672
92.875
92.9925
93.1145
93.2564
93.4074
93.5915
93.786
94.023
94.277
94.5728
94.8957
95.2564
95.6434
96.0658
96.4983
96.9646
97.4276
97.9347
98.466
99.1103
99.8385
100.753
101.507
102.072
58.4137
57.6013
56.0521
53.8267
50.4073
44.8548
37.3406
29.3149
20.086
11.9756
11.434
18.5714
27.2707
37.4058
47.5263
56.7332
66.4374
75.0937
82.4442
87.9838
91.8621
94.3906
95.8806
96.6072
96.8031
96.6587
96.3223
95.8997
95.4597
95.0415
94.6638
94.3328
94.0481
93.8063
93.6017
93.4285
93.2818
93.1567
93.0493
92.9563
92.8749
92.8029
92.7385
92.6802
92.6269
92.5776
92.5315
92.4881
92.447
92.4077
92.3701
92.334
92.2991
92.2656
92.2334
92.2025
92.1731
92.1453
92.1195
92.096
92.0753
92.058
92.0452
92.0375
92.037
92.0443
92.0627
92.0924
92.1367
92.1948
92.2675
92.3529
92.4471
92.5484
92.6514
92.7555
92.8625
92.9694
93.0914
93.2165
93.3687
93.5337
93.7239
93.9449
94.1827
94.4674
94.7646
95.1108
95.4763
95.8755
96.3051
96.7553
97.2472
97.7753
98.3844
99.0838
99.9469
100.85
101.871
102.235
59.0076
58.3963
57.032
54.9984
51.4848
44.9923
35.7941
26.6808
16.6221
6.70606
4.99285
13.2783
23.7115
34.5868
45.1754
54.5452
64.7318
74.0025
81.8085
87.5681
91.5817
94.1744
95.7035
96.4583
96.673
96.5408
96.2138
95.801
95.372
94.9657
94.6
94.2805
94.0061
93.7728
93.5752
93.4081
93.266
93.1443
93.0397
92.9488
92.869
92.7983
92.7349
92.6773
92.6245
92.5756
92.5299
92.4867
92.4457
92.4065
92.369
92.3328
92.2979
92.2642
92.2317
92.2005
92.1707
92.1425
92.116
92.0917
92.0701
92.0514
92.0372
92.0276
92.0253
92.0304
92.0471
92.0751
92.119
92.1772
92.2516
92.3397
92.4359
92.5406
92.6416
92.7468
92.8455
92.95
93.0601
93.1789
93.3211
93.4727
93.6587
93.8534
94.0933
94.3372
94.6367
94.9435
95.2946
95.6765
96.0798
96.5317
97.0242
97.5721
98.2314
98.9988
99.9111
100.954
101.714
102.6
59.5565
59.0683
57.9599
56.0358
52.4091
45.0932
34.4276
24.1034
13.2158
1.67757
-1.33903
8.01948
20.4445
32.0823
42.6581
52.1259
62.6582
72.6856
81.0805
87.1573
91.2871
93.925
95.4857
96.2709
96.5108
96.3967
96.0834
95.6836
95.2683
94.8763
94.5249
94.2187
93.9561
93.7328
93.5435
93.383
93.2464
93.129
93.0276
92.9393
92.8615
92.7924
92.7301
92.6735
92.6215
92.5731
92.5278
92.4849
92.4441
92.4051
92.3675
92.3313
92.2963
92.2625
92.2298
92.1983
92.1681
92.1393
92.1122
92.087
92.0643
92.0442
92.0284
92.0167
92.0123
92.0147
92.0295
92.055
92.0987
92.1565
92.2337
92.3242
92.4244
92.5317
92.6334
92.7367
92.8299
92.9272
93.0278
93.1384
93.2662
93.4152
93.5736
93.7763
93.9717
94.2243
94.4807
94.7762
95.104
95.4561
95.844
96.2886
96.7542
97.3478
97.9848
98.8408
99.7707
100.906
102.058
102.174
60.0401
59.6572
58.8011
56.9219
53.199
45.2202
33.2833
21.6148
9.91801
-2.66731
-6.51548
3.64417
17.6828
30.0492
40.4285
49.723
60.3803
71.1645
80.2475
86.7327
90.9897
93.6539
95.232
96.0456
96.3154
96.2251
95.9304
95.5471
95.1486
94.7737
94.4387
94.1477
93.8985
93.6865
93.5066
93.3536
93.2228
93.1108
93.0133
92.928
92.8526
92.7852
92.7245
92.669
92.6178
92.5701
92.5252
92.4828
92.4422
92.4034
92.3659
92.3297
92.2946
92.2607
92.2278
92.1959
92.1653
92.1359
92.1081
92.0819
92.058
92.0364
92.0187
92.0046
91.9979
91.997
92.0096
92.032
92.0755
92.1326
92.2132
92.3068
92.4118
92.5236
92.625
92.7283
92.8135
92.9034
92.9952
93.0893
93.2167
93.3389
93.5027
93.6706
93.8664
94.086
94.3283
94.5993
94.8992
95.2262
95.5945
96.0056
96.4839
97.0283
97.7364
98.5153
99.5963
100.558
101.433
102.559
60.4539
60.1856
59.4604
57.6222
53.8239
45.4061
32.4414
19.3562
6.9186
-6.15947
-10.6527
-0.435387
15.0086
28.2931
38.581
47.4754
58.1884
69.595
79.3405
86.2729
90.6799
93.3626
94.9451
95.7824
96.0854
96.0247
95.7536
95.3912
95.0129
94.6578
94.3416
94.0677
93.8335
93.6342
93.4648
93.3204
93.1965
93.0899
92.9968
92.9149
92.8422
92.7769
92.7178
92.6636
92.6135
92.5665
92.5223
92.4803
92.44
92.4014
92.364
92.3279
92.2928
92.2586
92.2255
92.1933
92.1623
92.1323
92.1037
92.0764
92.0513
92.0279
92.0084
91.9914
91.9822
91.9773
91.9877
92.0056
92.0495
92.1045
92.1904
92.2865
92.3993
92.5156
92.6182
92.7222
92.7959
92.8819
92.9556
93.0433
93.1554
93.2679
93.4166
93.5716
93.7459
93.9499
94.1656
94.4103
94.6901
94.9807
95.3262
95.7127
96.1506
96.7071
97.3449
98.2103
99.1211
100.467
101.289
101.629
60.8164
60.6841
60.0313
58.205
54.299
45.6139
32.0162
17.6397
4.44941
-8.81164
-14.2812
-4.24231
12.5356
26.7928
36.9318
45.291
56.1291
68.0694
78.4252
85.7658
90.3277
93.0357
94.6206
95.4796
95.8189
95.7939
95.5523
95.2153
94.8609
94.5287
94.234
93.9793
93.7616
93.5764
93.4185
93.2835
93.1672
93.0665
92.9784
92.9002
92.8304
92.7676
92.7103
92.6576
92.6086
92.5625
92.519
92.4774
92.4376
92.3992
92.362
92.3258
92.2907
92.2564
92.2231
92.1906
92.159
92.1284
92.099
92.0706
92.0442
92.0189
91.9974
91.9773
91.9654
91.9556
91.9635
91.9757
92.0203
92.0716
92.1651
92.2627
92.3873
92.5077
92.6145
92.7178
92.7796
92.8599
92.9138
92.9945
93.0902
93.1937
93.3275
93.4666
93.6224
93.8053
93.9955
94.2183
94.4643
94.7243
95.0446
95.3871
95.792
96.3275
96.9129
97.725
98.699
99.4893
100.677
101.562
61.153
61.1542
60.5679
58.7229
54.8429
45.968
32.036
16.5819
2.67653
-10.572
-16.7951
-7.09962
10.6911
25.5814
35.2849
43.3519
54.0982
66.5633
77.5155
85.195
89.8905
92.6394
94.2424
95.1303
95.5119
95.53
95.3248
95.0186
94.6925
94.3867
94.1161
93.8827
93.6833
93.5133
93.368
93.2432
93.1351
93.0409
92.9582
92.884
92.8175
92.7573
92.7021
92.6509
92.6032
92.5581
92.5153
92.4743
92.4349
92.3967
92.3597
92.3237
92.2885
92.2541
92.2205
92.1876
92.1556
92.1243
92.0941
92.0645
92.0368
92.0095
91.986
91.9622
91.9475
91.9318
91.9373
91.9416
91.988
92.0326
92.1375
92.2341
92.377
92.4996
92.6159
92.7153
92.766
92.8363
92.8716
92.9371
93.029
93.106
93.2438
93.3516
93.4942
93.6594
93.8108
94.0246
94.2268
94.4539
94.7513
95.0125
95.4451
95.8285
96.4668
97.1342
98.0633
99.2424
99.7614
100.359
61.455
61.6086
61.0438
59.1762
55.3774
46.4877
32.5133
16.3195
1.75224
-11.1807
-17.3291
-8.5427
9.44968
24.5971
33.9476
41.6629
52.2593
65.1351
76.6032
84.5293
89.3215
92.1288
93.7816
94.7202
95.1571
95.229
95.069
94.8005
94.5076
94.2321
93.9885
93.7786
93.5991
93.4456
93.3138
93.1999
93.1006
93.0134
92.9364
92.8664
92.8035
92.7461
92.6931
92.6437
92.5973
92.5533
92.5113
92.4709
92.432
92.3941
92.3573
92.3213
92.2861
92.2516
92.2178
92.1846
92.152
92.1201
92.089
92.0583
92.0292
91.9997
91.9741
91.9463
91.9288
91.9059
91.9091
91.9028
91.9523
91.9861
92.1074
92.1986
92.3696
92.4903
92.6245
92.7167
92.7529
92.8188
92.8157
92.892
92.9451
93.0329
93.1462
93.2323
93.375
93.4873
93.6397
93.815
93.9678
94.198
94.3972
94.675
94.9704
95.385
95.8394
96.5373
97.2417
97.915
98.7427
99.3777
61.7549
62.0274
61.5129
59.6781
55.902
47.195
33.4774
16.9051
1.85929
-10.2716
-15.9792
-8.48941
8.96383
23.9151
32.9032
40.2869
50.7775
63.883
75.6952
83.7476
88.5829
91.4658
93.2059
94.2278
94.7427
94.8843
94.7818
94.5597
94.3061
94.0651
93.8517
93.6676
93.5096
93.3737
93.2563
93.1539
93.0639
92.984
92.9124
92.8476
92.7885
92.7341
92.6834
92.6359
92.5909
92.5481
92.507
92.4673
92.4288
92.3913
92.3547
92.3188
92.2836
92.249
92.215
92.1814
92.1484
92.1157
92.0838
92.0518
92.0214
91.9896
91.962
91.9297
91.9094
91.8779
91.8791
91.8586
91.9131
91.9297
92.0748
92.1525
92.3671
92.4761
92.6468
92.715
92.7542
92.7905
92.7687
92.8294
92.868
92.9522
93.043
93.1262
93.2307
93.3295
93.4563
93.5832
93.732
93.8916
94.0616
94.2684
94.5123
94.8192
95.2404
95.7034
96.3812
96.9384
97.2334
97.7747
62.0168
62.4285
61.9874
60.1608
56.5521
48.231
35.0289
18.2755
3.0759
-7.99726
-12.9029
-6.76729
9.40083
23.6383
32.0102
39.0595
49.595
62.8121
74.7668
82.8537
87.6753
90.6349
92.4954
93.6331
94.2544
94.4877
94.4589
94.2946
94.0878
93.8863
93.7065
93.5503
93.4153
93.2982
93.1959
93.1057
93.0254
92.9532
92.8877
92.8279
92.7727
92.7214
92.6732
92.6277
92.5842
92.5426
92.5024
92.4635
92.4255
92.3884
92.352
92.3163
92.281
92.2463
92.212
92.1781
92.1446
92.1113
92.0786
92.0453
92.0136
91.9794
91.9498
91.9125
91.8897
91.848
91.8475
91.8084
91.8701
91.8607
92.0387
92.0912
92.3691
92.4536
92.6834
92.7117
92.7662
92.7586
92.7208
92.762
92.7858
92.8693
92.9439
93.0074
93.0948
93.1611
93.2603
93.3668
93.4709
93.5784
93.7168
93.83
94.0341
94.2035
94.4887
94.8517
95.1747