/*--------------------------------*- C++ -*----------------------------------*\
| =========                 |                                                 |
| \\      /  F ield         | OpenFOAM: The Open Source CFD Toolbox           |
|  \\    /   O peration     | Version:  2.4.0                                 |
|   \\  /    A nd           | Web:      www.OpenFOAM.org                      |
|    \\/     M anipulation  |                                                 |
\*---------------------------------------------------------------------------*/
FoamFile
{
    version     2.0;
    format      ascii;
    class       volScalarField;
    location    "0.03";
    object      pPrime2Mean;
}
// * * * * * * * * * * * * * * * * * * * * * * * * * * * * * * * * * * * * * //

dimensions      [0 4 -4 0 0 0 0];

internalField   nonuniform List<scalar> 
4400
(
2.12181e+07
2.0127e+07
1.89897e+07
1.7882e+07
1.68075e+07
1.57661e+07
1.47568e+07
1.37774e+07
1.28199e+07
1.18477e+07
2.12185e+07
2.0127e+07
1.89897e+07
1.7882e+07
1.68075e+07
1.57661e+07
1.47568e+07
1.37776e+07
1.28206e+07
1.1851e+07
2.12188e+07
2.01269e+07
1.89896e+07
1.7882e+07
1.68076e+07
1.57661e+07
1.47569e+07
1.3778e+07
1.28219e+07
1.18589e+07
2.1219e+07
2.01268e+07
1.89896e+07
1.7882e+07
1.68076e+07
1.57662e+07
1.47571e+07
1.37785e+07
1.28239e+07
1.18694e+07
2.12191e+07
2.01268e+07
1.89896e+07
1.7882e+07
1.68076e+07
1.57662e+07
1.47573e+07
1.37793e+07
1.28264e+07
1.18812e+07
2.12192e+07
2.01267e+07
1.89895e+07
1.7882e+07
1.68076e+07
1.57663e+07
1.47576e+07
1.37801e+07
1.28294e+07
1.18936e+07
2.12193e+07
2.01267e+07
1.89895e+07
1.7882e+07
1.68076e+07
1.57664e+07
1.47579e+07
1.37811e+07
1.28327e+07
1.1906e+07
2.12194e+07
2.01266e+07
1.89895e+07
1.7882e+07
1.68076e+07
1.57665e+07
1.47582e+07
1.37821e+07
1.28361e+07
1.19182e+07
2.12195e+07
2.01266e+07
1.89895e+07
1.7882e+07
1.68077e+07
1.57666e+07
1.47586e+07
1.37832e+07
1.28397e+07
1.19299e+07
2.12195e+07
2.01266e+07
1.89895e+07
1.78821e+07
1.68077e+07
1.57667e+07
1.47589e+07
1.37843e+07
1.28432e+07
1.19408e+07
2.12195e+07
2.01266e+07
1.89895e+07
1.78821e+07
1.68077e+07
1.57668e+07
1.47593e+07
1.37855e+07
1.28467e+07
1.1951e+07
2.12195e+07
2.01266e+07
1.89895e+07
1.78821e+07
1.68078e+07
1.57669e+07
1.47596e+07
1.37866e+07
1.285e+07
1.19602e+07
2.12194e+07
2.01266e+07
1.89895e+07
1.78821e+07
1.68078e+07
1.5767e+07
1.476e+07
1.37876e+07
1.2853e+07
1.19685e+07
2.12193e+07
2.01267e+07
1.89896e+07
1.78821e+07
1.68079e+07
1.57671e+07
1.47603e+07
1.37885e+07
1.28558e+07
1.19759e+07
2.12192e+07
2.01267e+07
1.89896e+07
1.78821e+07
1.68079e+07
1.57672e+07
1.47606e+07
1.37894e+07
1.28583e+07
1.19822e+07
2.12191e+07
2.01268e+07
1.89896e+07
1.78821e+07
1.68079e+07
1.57673e+07
1.47608e+07
1.37901e+07
1.28604e+07
1.19874e+07
2.1219e+07
2.01269e+07
1.89897e+07
1.78822e+07
1.6808e+07
1.57674e+07
1.4761e+07
1.37907e+07
1.28622e+07
1.19917e+07
2.12188e+07
2.01269e+07
1.89897e+07
1.78822e+07
1.6808e+07
1.57675e+07
1.47612e+07
1.37912e+07
1.28635e+07
1.19949e+07
2.12185e+07
2.0127e+07
1.89897e+07
1.78822e+07
1.6808e+07
1.57675e+07
1.47613e+07
1.37915e+07
1.28644e+07
1.1997e+07
2.12181e+07
2.0127e+07
1.89897e+07
1.78822e+07
1.6808e+07
1.57675e+07
1.47614e+07
1.37917e+07
1.28648e+07
1.1998e+07
1.10155e+07
1.08222e+07
1.06679e+07
1.05264e+07
1.03912e+07
1.02599e+07
1.01315e+07
1.00051e+07
9.8802e+06
9.75638e+06
9.63349e+06
9.51155e+06
9.39064e+06
9.27079e+06
9.15197e+06
9.03415e+06
8.91732e+06
8.80145e+06
8.6865e+06
8.57243e+06
8.4592e+06
8.34679e+06
8.23518e+06
8.12436e+06
8.01431e+06
7.90503e+06
7.79651e+06
7.68875e+06
7.58175e+06
7.47551e+06
7.37002e+06
7.26529e+06
7.1613e+06
7.05807e+06
6.95559e+06
6.85386e+06
6.75288e+06
6.65265e+06
6.55317e+06
6.45445e+06
6.35647e+06
6.25924e+06
6.16276e+06
6.06703e+06
5.97205e+06
5.87783e+06
5.78435e+06
5.69161e+06
5.59963e+06
5.5084e+06
5.41792e+06
5.32819e+06
5.2392e+06
5.15097e+06
5.06348e+06
4.97675e+06
4.89076e+06
4.80552e+06
4.72103e+06
4.63729e+06
4.5543e+06
4.47206e+06
4.39057e+06
4.30983e+06
4.22983e+06
4.15058e+06
4.07209e+06
3.99434e+06
3.91733e+06
3.84108e+06
3.76557e+06
3.69082e+06
3.6168e+06
3.54354e+06
3.471e+06
3.39924e+06
3.32817e+06
3.2579e+06
3.18831e+06
3.11952e+06
3.0514e+06
2.98409e+06
2.91743e+06
2.85157e+06
2.78635e+06
2.72192e+06
2.65811e+06
2.59506e+06
2.5326e+06
2.47086e+06
2.40965e+06
2.34907e+06
2.28889e+06
2.22918e+06
2.16956e+06
2.11007e+06
2.04987e+06
1.9888e+06
1.92411e+06
1.85162e+06
1.11043e+07
1.08866e+07
1.07146e+07
1.0562e+07
1.04191e+07
1.02822e+07
1.01494e+07
1.00196e+07
9.89198e+06
9.766e+06
9.64141e+06
9.5181e+06
9.39606e+06
9.27528e+06
9.1557e+06
9.03726e+06
8.91991e+06
8.8036e+06
8.68828e+06
8.5739e+06
8.46042e+06
8.34779e+06
8.23601e+06
8.12504e+06
8.01487e+06
7.90549e+06
7.79689e+06
7.68906e+06
7.58201e+06
7.47572e+06
7.37019e+06
7.26543e+06
7.16142e+06
7.05816e+06
6.95567e+06
6.85392e+06
6.75293e+06
6.6527e+06
6.55321e+06
6.45448e+06
6.35649e+06
6.25926e+06
6.16278e+06
6.06705e+06
5.97206e+06
5.87783e+06
5.78435e+06
5.69162e+06
5.59964e+06
5.5084e+06
5.41792e+06
5.32818e+06
5.2392e+06
5.15096e+06
5.06348e+06
4.97674e+06
4.89075e+06
4.80551e+06
4.72102e+06
4.63728e+06
4.55428e+06
4.47203e+06
4.39054e+06
4.30979e+06
4.22978e+06
4.15053e+06
4.07202e+06
3.99426e+06
3.91724e+06
3.84097e+06
3.76543e+06
3.69066e+06
3.6166e+06
3.54331e+06
3.47072e+06
3.39891e+06
3.32777e+06
3.25742e+06
3.18774e+06
3.11884e+06
3.05058e+06
2.98312e+06
2.91625e+06
2.85018e+06
2.78466e+06
2.71993e+06
2.65571e+06
2.59222e+06
2.52918e+06
2.4668e+06
2.40476e+06
2.34325e+06
2.28186e+06
2.22077e+06
2.15933e+06
2.09765e+06
2.03442e+06
1.96933e+06
1.89827e+06
1.81429e+06
1.11718e+07
1.0943e+07
1.07584e+07
1.05962e+07
1.04463e+07
1.0304e+07
1.0167e+07
1.00339e+07
9.9036e+06
9.7755e+06
9.64922e+06
9.52456e+06
9.40141e+06
9.27972e+06
9.15939e+06
9.04034e+06
8.92248e+06
8.80574e+06
8.69005e+06
8.57536e+06
8.46162e+06
8.34878e+06
8.23682e+06
8.1257e+06
8.01542e+06
7.90594e+06
7.79726e+06
7.68937e+06
7.58226e+06
7.47593e+06
7.37036e+06
7.26557e+06
7.16153e+06
7.05826e+06
6.95574e+06
6.85399e+06
6.75299e+06
6.65274e+06
6.55324e+06
6.4545e+06
6.35652e+06
6.25928e+06
6.16279e+06
6.06706e+06
5.97207e+06
5.87784e+06
5.78436e+06
5.69162e+06
5.59964e+06
5.5084e+06
5.41792e+06
5.32818e+06
5.2392e+06
5.15096e+06
5.06347e+06
4.97673e+06
4.89074e+06
4.8055e+06
4.721e+06
4.63726e+06
4.55426e+06
4.47201e+06
4.3905e+06
4.30975e+06
4.22974e+06
4.15047e+06
4.07195e+06
3.99417e+06
3.91714e+06
3.84085e+06
3.7653e+06
3.6905e+06
3.61641e+06
3.54308e+06
3.47044e+06
3.39858e+06
3.32737e+06
3.25696e+06
3.18717e+06
3.11818e+06
3.04978e+06
2.98217e+06
2.9151e+06
2.84882e+06
2.78301e+06
2.71798e+06
2.65334e+06
2.58943e+06
2.5258e+06
2.46281e+06
2.39995e+06
2.33754e+06
2.27499e+06
2.21257e+06
2.14939e+06
2.08567e+06
2.01967e+06
1.95113e+06
1.87536e+06
1.78608e+06
1.12253e+07
1.09921e+07
1.07987e+07
1.06286e+07
1.04724e+07
1.03251e+07
1.01842e+07
1.00478e+07
9.91494e+06
9.78478e+06
9.65686e+06
9.53087e+06
9.40665e+06
9.28407e+06
9.16302e+06
9.04337e+06
8.92501e+06
8.80785e+06
8.6918e+06
8.5768e+06
8.46281e+06
8.34976e+06
8.23762e+06
8.12636e+06
8.01596e+06
7.90638e+06
7.79763e+06
7.68967e+06
7.58251e+06
7.47613e+06
7.37053e+06
7.2657e+06
7.16165e+06
7.05835e+06
6.95582e+06
6.85405e+06
6.75304e+06
6.65278e+06
6.55328e+06
6.45453e+06
6.35654e+06
6.2593e+06
6.16281e+06
6.06707e+06
5.97208e+06
5.87785e+06
5.78436e+06
5.69163e+06
5.59964e+06
5.5084e+06
5.41792e+06
5.32818e+06
5.23919e+06
5.15095e+06
5.06346e+06
4.97672e+06
4.89073e+06
4.80548e+06
4.72099e+06
4.63724e+06
4.55424e+06
4.47198e+06
4.39047e+06
4.30971e+06
4.22969e+06
4.15041e+06
4.07188e+06
3.9941e+06
3.91704e+06
3.84074e+06
3.76516e+06
3.69033e+06
3.61622e+06
3.54285e+06
3.47017e+06
3.39825e+06
3.32699e+06
3.25649e+06
3.18662e+06
3.11752e+06
3.04899e+06
2.98123e+06
2.91397e+06
2.84748e+06
2.7814e+06
2.71608e+06
2.65104e+06
2.58672e+06
2.52251e+06
2.45894e+06
2.39525e+06
2.332e+06
2.2683e+06
2.20463e+06
2.13984e+06
2.07424e+06
2.00583e+06
1.93442e+06
1.85549e+06
1.76422e+06
1.12691e+07
1.10348e+07
1.08353e+07
1.06589e+07
1.04972e+07
1.03453e+07
1.02007e+07
1.00613e+07
9.92594e+06
9.79379e+06
9.66428e+06
9.53702e+06
9.41176e+06
9.28833e+06
9.16658e+06
9.04635e+06
8.92749e+06
8.80991e+06
8.69351e+06
8.57822e+06
8.46397e+06
8.35071e+06
8.2384e+06
8.12701e+06
8.01649e+06
7.90682e+06
7.79798e+06
7.68996e+06
7.58275e+06
7.47633e+06
7.37069e+06
7.26584e+06
7.16176e+06
7.05844e+06
6.9559e+06
6.85411e+06
6.75309e+06
6.65282e+06
6.55331e+06
6.45456e+06
6.35656e+06
6.25932e+06
6.16282e+06
6.06708e+06
5.97209e+06
5.87785e+06
5.78437e+06
5.69163e+06
5.59964e+06
5.50841e+06
5.41792e+06
5.32818e+06
5.23919e+06
5.15095e+06
5.06346e+06
4.97671e+06
4.89072e+06
4.80547e+06
4.72097e+06
4.63722e+06
4.55421e+06
4.47195e+06
4.39044e+06
4.30967e+06
4.22964e+06
4.15036e+06
4.07182e+06
3.99402e+06
3.91695e+06
3.84063e+06
3.76503e+06
3.69017e+06
3.61603e+06
3.54263e+06
3.46991e+06
3.39793e+06
3.32661e+06
3.25604e+06
3.18609e+06
3.11688e+06
3.04823e+06
2.98032e+06
2.91288e+06
2.84618e+06
2.77985e+06
2.71423e+06
2.64882e+06
2.58409e+06
2.51935e+06
2.4552e+06
2.39074e+06
2.32669e+06
2.26187e+06
2.19704e+06
2.1307e+06
2.06341e+06
1.99297e+06
1.91925e+06
1.83845e+06
1.74676e+06
1.13056e+07
1.10719e+07
1.08684e+07
1.06869e+07
1.05205e+07
1.03646e+07
1.02164e+07
1.00742e+07
9.93654e+06
9.8025e+06
9.67146e+06
9.54298e+06
9.41673e+06
9.29248e+06
9.17004e+06
9.04924e+06
8.92991e+06
8.81192e+06
8.69518e+06
8.57959e+06
8.4651e+06
8.35164e+06
8.23917e+06
8.12763e+06
8.017e+06
7.90724e+06
7.79833e+06
7.69025e+06
7.58298e+06
7.47652e+06
7.37085e+06
7.26597e+06
7.16186e+06
7.05853e+06
6.95597e+06
6.85417e+06
6.75314e+06
6.65286e+06
6.55335e+06
6.45459e+06
6.35658e+06
6.25933e+06
6.16284e+06
6.06709e+06
5.9721e+06
5.87786e+06
5.78437e+06
5.69163e+06
5.59964e+06
5.50841e+06
5.41792e+06
5.32818e+06
5.23919e+06
5.15094e+06
5.06345e+06
4.97671e+06
4.89071e+06
4.80546e+06
4.72096e+06
4.6372e+06
4.55419e+06
4.47193e+06
4.39041e+06
4.30963e+06
4.2296e+06
4.15031e+06
4.07175e+06
3.99394e+06
3.91686e+06
3.84052e+06
3.7649e+06
3.69002e+06
3.61585e+06
3.5424e+06
3.46965e+06
3.39762e+06
3.32625e+06
3.2556e+06
3.18558e+06
3.11626e+06
3.0475e+06
2.97943e+06
2.91183e+06
2.84491e+06
2.77835e+06
2.71243e+06
2.64668e+06
2.58153e+06
2.51631e+06
2.45159e+06
2.38643e+06
2.3216e+06
2.25578e+06
2.18988e+06
2.12213e+06
2.05337e+06
1.98123e+06
1.90565e+06
1.8237e+06
1.73235e+06
1.13366e+07
1.11042e+07
1.08982e+07
1.07127e+07
1.05422e+07
1.03827e+07
1.02314e+07
1.00865e+07
9.94668e+06
9.81086e+06
9.67837e+06
9.54872e+06
9.42152e+06
9.29648e+06
9.17339e+06
9.05204e+06
8.93225e+06
8.81387e+06
8.6968e+06
8.58093e+06
8.4662e+06
8.35254e+06
8.23991e+06
8.12824e+06
8.0175e+06
7.90765e+06
7.79867e+06
7.69052e+06
7.58321e+06
7.47671e+06
7.371e+06
7.26609e+06
7.16197e+06
7.05862e+06
6.95604e+06
6.85423e+06
6.75318e+06
6.6529e+06
6.55338e+06
6.45461e+06
6.3566e+06
6.25935e+06
6.16285e+06
6.0671e+06
5.97211e+06
5.87787e+06
5.78438e+06
5.69164e+06
5.59965e+06
5.50841e+06
5.41792e+06
5.32818e+06
5.23918e+06
5.15094e+06
5.06345e+06
4.9767e+06
4.8907e+06
4.80545e+06
4.72094e+06
4.63719e+06
4.55417e+06
4.4719e+06
4.39038e+06
4.3096e+06
4.22956e+06
4.15026e+06
4.07169e+06
3.99387e+06
3.91677e+06
3.84041e+06
3.76477e+06
3.68987e+06
3.61567e+06
3.54219e+06
3.4694e+06
3.39732e+06
3.32591e+06
3.25519e+06
3.18509e+06
3.11566e+06
3.04679e+06
2.97857e+06
2.91082e+06
2.8437e+06
2.77691e+06
2.71069e+06
2.64463e+06
2.57906e+06
2.51339e+06
2.44809e+06
2.38232e+06
2.31669e+06
2.25002e+06
2.18308e+06
2.1142e+06
2.04412e+06
1.97064e+06
1.89364e+06
1.81083e+06
1.72021e+06
1.13631e+07
1.11324e+07
1.09247e+07
1.07362e+07
1.05623e+07
1.03996e+07
1.02455e+07
1.00982e+07
9.95633e+06
9.81883e+06
9.68498e+06
9.55422e+06
9.42611e+06
9.30032e+06
9.1766e+06
9.05473e+06
8.93451e+06
8.81576e+06
8.69836e+06
8.58222e+06
8.46726e+06
8.35341e+06
8.24061e+06
8.12882e+06
8.01797e+06
7.90804e+06
7.79898e+06
7.69079e+06
7.58343e+06
7.47688e+06
7.37115e+06
7.26621e+06
7.16206e+06
7.0587e+06
6.9561e+06
6.85428e+06
6.75323e+06
6.65294e+06
6.55341e+06
6.45464e+06
6.35662e+06
6.25937e+06
6.16286e+06
6.06712e+06
5.97212e+06
5.87787e+06
5.78438e+06
5.69164e+06
5.59965e+06
5.50841e+06
5.41792e+06
5.32817e+06
5.23918e+06
5.15094e+06
5.06344e+06
4.97669e+06
4.89069e+06
4.80544e+06
4.72093e+06
4.63717e+06
4.55415e+06
4.47188e+06
4.39035e+06
4.30956e+06
4.22952e+06
4.15021e+06
4.07163e+06
3.9938e+06
3.91669e+06
3.84031e+06
3.76465e+06
3.68972e+06
3.6155e+06
3.54198e+06
3.46917e+06
3.39704e+06
3.32558e+06
3.25479e+06
3.18462e+06
3.11509e+06
3.04612e+06
2.97776e+06
2.90987e+06
2.84254e+06
2.77554e+06
2.70904e+06
2.64268e+06
2.57672e+06
2.51064e+06
2.44479e+06
2.37844e+06
2.31206e+06
2.24463e+06
2.17669e+06
2.10686e+06
2.03555e+06
1.96102e+06
1.88287e+06
1.79956e+06
1.70984e+06
1.13861e+07
1.1157e+07
1.09484e+07
1.07574e+07
1.05808e+07
1.04153e+07
1.02587e+07
1.01092e+07
9.96543e+06
9.82638e+06
9.69124e+06
9.55943e+06
9.43046e+06
9.30396e+06
9.17965e+06
9.0573e+06
8.93667e+06
8.81757e+06
8.69987e+06
8.58346e+06
8.46827e+06
8.35423e+06
8.24129e+06
8.12937e+06
8.01842e+06
7.90841e+06
7.79929e+06
7.69103e+06
7.58363e+06
7.47705e+06
7.37129e+06
7.26633e+06
7.16216e+06
7.05877e+06
6.95617e+06
6.85433e+06
6.75327e+06
6.65297e+06
6.55344e+06
6.45466e+06
6.35664e+06
6.25938e+06
6.16288e+06
6.06713e+06
5.97213e+06
5.87788e+06
5.78439e+06
5.69164e+06
5.59965e+06
5.50841e+06
5.41792e+06
5.32817e+06
5.23918e+06
5.15093e+06
5.06344e+06
4.97669e+06
4.89068e+06
4.80543e+06
4.72092e+06
4.63715e+06
4.55413e+06
4.47186e+06
4.39032e+06
4.30953e+06
4.22948e+06
4.15016e+06
4.07158e+06
3.99373e+06
3.91661e+06
3.84021e+06
3.76454e+06
3.68958e+06
3.61533e+06
3.54179e+06
3.46894e+06
3.39677e+06
3.32526e+06
3.2544e+06
3.18417e+06
3.11454e+06
3.04548e+06
2.97699e+06
2.90896e+06
2.84144e+06
2.77425e+06
2.70749e+06
2.64086e+06
2.57453e+06
2.50806e+06
2.4417e+06
2.37482e+06
2.30776e+06
2.23964e+06
2.17078e+06
2.10013e+06
2.02765e+06
1.95224e+06
1.87316e+06
1.78966e+06
1.70085e+06
1.1406e+07
1.11785e+07
1.09693e+07
1.07766e+07
1.05975e+07
1.04297e+07
1.02708e+07
1.01194e+07
9.97392e+06
9.83344e+06
9.69711e+06
9.56432e+06
9.43454e+06
9.30738e+06
9.18253e+06
9.05973e+06
8.93871e+06
8.81928e+06
8.7013e+06
8.58464e+06
8.46923e+06
8.35501e+06
8.24192e+06
8.12988e+06
8.01884e+06
7.90875e+06
7.79957e+06
7.69127e+06
7.58382e+06
7.47721e+06
7.37142e+06
7.26643e+06
7.16225e+06
7.05885e+06
6.95623e+06
6.85438e+06
6.75331e+06
6.653e+06
6.55346e+06
6.45468e+06
6.35666e+06
6.2594e+06
6.16289e+06
6.06713e+06
5.97213e+06
5.87789e+06
5.78439e+06
5.69165e+06
5.59965e+06
5.50841e+06
5.41792e+06
5.32817e+06
5.23918e+06
5.15093e+06
5.06343e+06
4.97668e+06
4.89068e+06
4.80542e+06
4.72091e+06
4.63714e+06
4.55412e+06
4.47184e+06
4.3903e+06
4.3095e+06
4.22944e+06
4.15012e+06
4.07153e+06
3.99367e+06
3.91653e+06
3.84012e+06
3.76443e+06
3.68945e+06
3.61518e+06
3.5416e+06
3.46873e+06
3.39651e+06
3.32496e+06
3.25404e+06
3.18374e+06
3.11402e+06
3.04487e+06
2.97625e+06
2.90811e+06
2.84041e+06
2.77304e+06
2.70603e+06
2.63915e+06
2.57248e+06
2.50566e+06
2.43883e+06
2.37148e+06
2.30376e+06
2.23503e+06
2.16531e+06
2.0939e+06
2.02041e+06
1.94424e+06
1.86443e+06
1.78098e+06
1.693e+06
1.14233e+07
1.11973e+07
1.09878e+07
1.07936e+07
1.06127e+07
1.04428e+07
1.0282e+07
1.01287e+07
9.98176e+06
9.83997e+06
9.70255e+06
9.56885e+06
9.43833e+06
9.31057e+06
9.18522e+06
9.062e+06
8.94062e+06
8.82089e+06
8.70264e+06
8.58574e+06
8.47013e+06
8.35574e+06
8.24251e+06
8.13036e+06
8.01923e+06
7.90907e+06
7.79983e+06
7.69148e+06
7.584e+06
7.47736e+06
7.37154e+06
7.26653e+06
7.16233e+06
7.05891e+06
6.95628e+06
6.85443e+06
6.75335e+06
6.65304e+06
6.55349e+06
6.4547e+06
6.35668e+06
6.25941e+06
6.1629e+06
6.06714e+06
5.97214e+06
5.87789e+06
5.78439e+06
5.69165e+06
5.59965e+06
5.50841e+06
5.41792e+06
5.32817e+06
5.23917e+06
5.15093e+06
5.06343e+06
4.97667e+06
4.89067e+06
4.80541e+06
4.7209e+06
4.63713e+06
4.5541e+06
4.47182e+06
4.39028e+06
4.30947e+06
4.22941e+06
4.15008e+06
4.07148e+06
3.99361e+06
3.91646e+06
3.84004e+06
3.76433e+06
3.68933e+06
3.61503e+06
3.54143e+06
3.46852e+06
3.39626e+06
3.32468e+06
3.25368e+06
3.18333e+06
3.11352e+06
3.04429e+06
2.97556e+06
2.9073e+06
2.83943e+06
2.77191e+06
2.70466e+06
2.63756e+06
2.57056e+06
2.50344e+06
2.43616e+06
2.36839e+06
2.30007e+06
2.23077e+06
2.16026e+06
2.08814e+06
2.01379e+06
1.93701e+06
1.8567e+06
1.77338e+06
1.68617e+06
1.14384e+07
1.12135e+07
1.10039e+07
1.08087e+07
1.06262e+07
1.04545e+07
1.02921e+07
1.01373e+07
9.9889e+06
9.84594e+06
9.70753e+06
9.57301e+06
9.44182e+06
9.3135e+06
9.18769e+06
9.06409e+06
8.94238e+06
8.82236e+06
8.70386e+06
8.58674e+06
8.47094e+06
8.3564e+06
8.24305e+06
8.1308e+06
8.01959e+06
7.90937e+06
7.80008e+06
7.69168e+06
7.58416e+06
7.47749e+06
7.37165e+06
7.26662e+06
7.1624e+06
7.05897e+06
6.95633e+06
6.85447e+06
6.75338e+06
6.65306e+06
6.55351e+06
6.45472e+06
6.35669e+06
6.25942e+06
6.16291e+06
6.06715e+06
5.97215e+06
5.8779e+06
5.7844e+06
5.69165e+06
5.59966e+06
5.50841e+06
5.41791e+06
5.32817e+06
5.23917e+06
5.15092e+06
5.06342e+06
4.97667e+06
4.89066e+06
4.8054e+06
4.72088e+06
4.63711e+06
4.55409e+06
4.4718e+06
4.39025e+06
4.30945e+06
4.22938e+06
4.15004e+06
4.07143e+06
3.99356e+06
3.9164e+06
3.83996e+06
3.76424e+06
3.68922e+06
3.6149e+06
3.54126e+06
3.46833e+06
3.39603e+06
3.3244e+06
3.25335e+06
3.18294e+06
3.11305e+06
3.04375e+06
2.9749e+06
2.90653e+06
2.83851e+06
2.77084e+06
2.70338e+06
2.63607e+06
2.56878e+06
2.50137e+06
2.43368e+06
2.36551e+06
2.29664e+06
2.22682e+06
2.15561e+06
2.08288e+06
2.0078e+06
1.93056e+06
1.84995e+06
1.76678e+06
1.68026e+06
1.14513e+07
1.12275e+07
1.10179e+07
1.08218e+07
1.06381e+07
1.0465e+07
1.0301e+07
1.01449e+07
9.99532e+06
9.85131e+06
9.71203e+06
9.57677e+06
9.44497e+06
9.31616e+06
9.18994e+06
9.06598e+06
8.94397e+06
8.82369e+06
8.70496e+06
8.58764e+06
8.47167e+06
8.35699e+06
8.24353e+06
8.1312e+06
8.01992e+06
7.90963e+06
7.80029e+06
7.69186e+06
7.58431e+06
7.47761e+06
7.37175e+06
7.26671e+06
7.16247e+06
7.05903e+06
6.95638e+06
6.85451e+06
6.75341e+06
6.65309e+06
6.55353e+06
6.45474e+06
6.35671e+06
6.25943e+06
6.16292e+06
6.06716e+06
5.97215e+06
5.8779e+06
5.7844e+06
5.69165e+06
5.59966e+06
5.50841e+06
5.41791e+06
5.32817e+06
5.23917e+06
5.15092e+06
5.06342e+06
4.97666e+06
4.89066e+06
4.80539e+06
4.72088e+06
4.6371e+06
4.55407e+06
4.47178e+06
4.39023e+06
4.30942e+06
4.22935e+06
4.15001e+06
4.07139e+06
3.99351e+06
3.91634e+06
3.83989e+06
3.76416e+06
3.68912e+06
3.61478e+06
3.54111e+06
3.46815e+06
3.39581e+06
3.32415e+06
3.25304e+06
3.18258e+06
3.11262e+06
3.04325e+06
2.97428e+06
2.90583e+06
2.83765e+06
2.76985e+06
2.70218e+06
2.63469e+06
2.56711e+06
2.49945e+06
2.43137e+06
2.36287e+06
2.29347e+06
2.22321e+06
2.15137e+06
2.07814e+06
2.00247e+06
1.92489e+06
1.84413e+06
1.76111e+06
1.6752e+06
1.14624e+07
1.12395e+07
1.10299e+07
1.08332e+07
1.06483e+07
1.04741e+07
1.03089e+07
1.01516e+07
1.0001e+07
9.85607e+06
9.71601e+06
9.58011e+06
9.44777e+06
9.31851e+06
9.19193e+06
9.06765e+06
8.94538e+06
8.82486e+06
8.70593e+06
8.58844e+06
8.47231e+06
8.35752e+06
8.24396e+06
8.13155e+06
8.02021e+06
7.90987e+06
7.80049e+06
7.69202e+06
7.58444e+06
7.47772e+06
7.37184e+06
7.26678e+06
7.16253e+06
7.05908e+06
6.95642e+06
6.85454e+06
6.75344e+06
6.65311e+06
6.55355e+06
6.45475e+06
6.35672e+06
6.25944e+06
6.16293e+06
6.06716e+06
5.97216e+06
5.8779e+06
5.7844e+06
5.69166e+06
5.59966e+06
5.50841e+06
5.41791e+06
5.32817e+06
5.23917e+06
5.15092e+06
5.06341e+06
4.97666e+06
4.89065e+06
4.80539e+06
4.72087e+06
4.63709e+06
4.55406e+06
4.47177e+06
4.39022e+06
4.3094e+06
4.22932e+06
4.14998e+06
4.07136e+06
3.99346e+06
3.91629e+06
3.83983e+06
3.76408e+06
3.68903e+06
3.61467e+06
3.54098e+06
3.46799e+06
3.39561e+06
3.32391e+06
3.25276e+06
3.18226e+06
3.11222e+06
3.04279e+06
2.97371e+06
2.90518e+06
2.83686e+06
2.76895e+06
2.70107e+06
2.63344e+06
2.56557e+06
2.49771e+06
2.42926e+06
2.36047e+06
2.29059e+06
2.21997e+06
2.14759e+06
2.07397e+06
1.99786e+06
1.92001e+06
1.8392e+06
1.75629e+06
1.67089e+06
1.14717e+07
1.12495e+07
1.10399e+07
1.08427e+07
1.06571e+07
1.04818e+07
1.03157e+07
1.01574e+07
1.00059e+07
9.8602e+06
9.71948e+06
9.58301e+06
9.45021e+06
9.32056e+06
9.19364e+06
9.06908e+06
8.94657e+06
8.82585e+06
8.70674e+06
8.58911e+06
8.47286e+06
8.35797e+06
8.24433e+06
8.13185e+06
8.02045e+06
7.91007e+06
7.80066e+06
7.69216e+06
7.58456e+06
7.47782e+06
7.37192e+06
7.26684e+06
7.16258e+06
7.05912e+06
6.95645e+06
6.85457e+06
6.75346e+06
6.65313e+06
6.55357e+06
6.45477e+06
6.35673e+06
6.25945e+06
6.16293e+06
6.06717e+06
5.97216e+06
5.87791e+06
5.78441e+06
5.69166e+06
5.59966e+06
5.50841e+06
5.41791e+06
5.32817e+06
5.23917e+06
5.15092e+06
5.06341e+06
4.97666e+06
4.89064e+06
4.80538e+06
4.72086e+06
4.63708e+06
4.55405e+06
4.47176e+06
4.3902e+06
4.30938e+06
4.2293e+06
4.14995e+06
4.07133e+06
3.99343e+06
3.91625e+06
3.83978e+06
3.76402e+06
3.68895e+06
3.61458e+06
3.54087e+06
3.46785e+06
3.39543e+06
3.32371e+06
3.25251e+06
3.18197e+06
3.11186e+06
3.04238e+06
2.97321e+06
2.90461e+06
2.83615e+06
2.76815e+06
2.70008e+06
2.63232e+06
2.56419e+06
2.49616e+06
2.42736e+06
2.35835e+06
2.28806e+06
2.21713e+06
2.14433e+06
2.07038e+06
1.99397e+06
1.91591e+06
1.83507e+06
1.75226e+06
1.66726e+06
1.14793e+07
1.12577e+07
1.10482e+07
1.08506e+07
1.06643e+07
1.04883e+07
1.03213e+07
1.01622e+07
1.001e+07
9.86367e+06
9.7224e+06
9.58546e+06
9.45226e+06
9.32228e+06
9.19507e+06
9.07027e+06
8.94755e+06
8.82666e+06
8.70741e+06
8.58966e+06
8.47332e+06
8.35834e+06
8.24463e+06
8.1321e+06
8.02066e+06
7.91024e+06
7.8008e+06
7.69228e+06
7.58465e+06
7.47789e+06
7.37198e+06
7.2669e+06
7.16263e+06
7.05916e+06
6.95648e+06
6.85459e+06
6.75348e+06
6.65315e+06
6.55358e+06
6.45478e+06
6.35674e+06
6.25946e+06
6.16294e+06
6.06718e+06
5.97217e+06
5.87791e+06
5.78441e+06
5.69166e+06
5.59966e+06
5.50841e+06
5.41791e+06
5.32816e+06
5.23916e+06
5.15091e+06
5.06341e+06
4.97665e+06
4.89064e+06
4.80538e+06
4.72085e+06
4.63708e+06
4.55404e+06
4.47175e+06
4.39019e+06
4.30937e+06
4.22928e+06
4.14993e+06
4.0713e+06
3.99339e+06
3.91621e+06
3.83973e+06
3.76396e+06
3.68888e+06
3.6145e+06
3.54077e+06
3.46773e+06
3.39529e+06
3.32353e+06
3.25229e+06
3.18173e+06
3.11156e+06
3.04204e+06
2.97278e+06
2.90412e+06
2.83554e+06
2.76747e+06
2.69922e+06
2.63136e+06
2.563e+06
2.49483e+06
2.42574e+06
2.35653e+06
2.28591e+06
2.21474e+06
2.14162e+06
2.06741e+06
1.99078e+06
1.91253e+06
1.83171e+06
1.74897e+06
1.66428e+06
1.14853e+07
1.12642e+07
1.10547e+07
1.08569e+07
1.06701e+07
1.04934e+07
1.03258e+07
1.01661e+07
1.00133e+07
9.86648e+06
9.72476e+06
9.58743e+06
9.4539e+06
9.32364e+06
9.1962e+06
9.0712e+06
8.94831e+06
8.82728e+06
8.70792e+06
8.59008e+06
8.47367e+06
8.35863e+06
8.24488e+06
8.1323e+06
8.02083e+06
7.91038e+06
7.80091e+06
7.69237e+06
7.58473e+06
7.47796e+06
7.37203e+06
7.26694e+06
7.16266e+06
7.05919e+06
6.95651e+06
6.85461e+06
6.7535e+06
6.65316e+06
6.55359e+06
6.45479e+06
6.35675e+06
6.25947e+06
6.16294e+06
6.06718e+06
5.97217e+06
5.87791e+06
5.78441e+06
5.69166e+06
5.59966e+06
5.50841e+06
5.41791e+06
5.32816e+06
5.23916e+06
5.15091e+06
5.06341e+06
4.97665e+06
4.89064e+06
4.80537e+06
4.72085e+06
4.63707e+06
4.55403e+06
4.47174e+06
4.39018e+06
4.30936e+06
4.22927e+06
4.14991e+06
4.07128e+06
3.99337e+06
3.91618e+06
3.83969e+06
3.76392e+06
3.68883e+06
3.61444e+06
3.54069e+06
3.46764e+06
3.39517e+06
3.3234e+06
3.25212e+06
3.18153e+06
3.11132e+06
3.04176e+06
2.97244e+06
2.90372e+06
2.83504e+06
2.76691e+06
2.69853e+06
2.63058e+06
2.56203e+06
2.49374e+06
2.42442e+06
2.35506e+06
2.28418e+06
2.21282e+06
2.13947e+06
2.06504e+06
1.98827e+06
1.90985e+06
1.82905e+06
1.74637e+06
1.66192e+06
1.14898e+07
1.1269e+07
1.10596e+07
1.08615e+07
1.06744e+07
1.04973e+07
1.03292e+07
1.01691e+07
1.00158e+07
9.8686e+06
9.72654e+06
9.58892e+06
9.45514e+06
9.32466e+06
9.19704e+06
9.07188e+06
8.94887e+06
8.82774e+06
8.70829e+06
8.59039e+06
8.47393e+06
8.35885e+06
8.24506e+06
8.13246e+06
8.02095e+06
7.91049e+06
7.801e+06
7.69244e+06
7.58479e+06
7.478e+06
7.37207e+06
7.26697e+06
7.16269e+06
7.05921e+06
6.95653e+06
6.85463e+06
6.75351e+06
6.65317e+06
6.5536e+06
6.45479e+06
6.35675e+06
6.25947e+06
6.16295e+06
6.06718e+06
5.97217e+06
5.87792e+06
5.78441e+06
5.69166e+06
5.59966e+06
5.50841e+06
5.41791e+06
5.32816e+06
5.23916e+06
5.15091e+06
5.06341e+06
4.97665e+06
4.89064e+06
4.80537e+06
4.72085e+06
4.63707e+06
4.55403e+06
4.47173e+06
4.39017e+06
4.30935e+06
4.22926e+06
4.1499e+06
4.07126e+06
3.99335e+06
3.91615e+06
3.83967e+06
3.76389e+06
3.68879e+06
3.61439e+06
3.54064e+06
3.46758e+06
3.39509e+06
3.3233e+06
3.25199e+06
3.18138e+06
3.11114e+06
3.04155e+06
2.97218e+06
2.90343e+06
2.83467e+06
2.76648e+06
2.698e+06
2.62998e+06
2.5613e+06
2.49291e+06
2.42343e+06
2.35395e+06
2.28289e+06
2.21138e+06
2.13786e+06
2.06328e+06
1.9864e+06
1.90785e+06
1.82707e+06
1.74445e+06
1.66016e+06
1.14927e+07
1.12721e+07
1.10628e+07
1.08646e+07
1.06773e+07
1.04999e+07
1.03315e+07
1.0171e+07
1.00175e+07
9.87002e+06
9.72773e+06
9.58991e+06
9.45596e+06
9.32534e+06
9.19759e+06
9.07233e+06
8.94923e+06
8.82803e+06
8.70853e+06
8.59059e+06
8.47411e+06
8.359e+06
8.24519e+06
8.13256e+06
8.02104e+06
7.91056e+06
7.80105e+06
7.69249e+06
7.58483e+06
7.47804e+06
7.3721e+06
7.26699e+06
7.16271e+06
7.05922e+06
6.95654e+06
6.85464e+06
6.75352e+06
6.65318e+06
6.5536e+06
6.4548e+06
6.35675e+06
6.25947e+06
6.16295e+06
6.06718e+06
5.97217e+06
5.87792e+06
5.78441e+06
5.69166e+06
5.59966e+06
5.50841e+06
5.41791e+06
5.32816e+06
5.23916e+06
5.15091e+06
5.0634e+06
4.97665e+06
4.89063e+06
4.80537e+06
4.72084e+06
4.63706e+06
4.55402e+06
4.47173e+06
4.39017e+06
4.30934e+06
4.22925e+06
4.14989e+06
4.07125e+06
3.99334e+06
3.91614e+06
3.83965e+06
3.76387e+06
3.68876e+06
3.61436e+06
3.5406e+06
3.46753e+06
3.39504e+06
3.32324e+06
3.25192e+06
3.18129e+06
3.11102e+06
3.04142e+06
2.97201e+06
2.90324e+06
2.83443e+06
2.7662e+06
2.69766e+06
2.62959e+06
2.56082e+06
2.49237e+06
2.42278e+06
2.35321e+06
2.28204e+06
2.21042e+06
2.1368e+06
2.06209e+06
1.98516e+06
1.90652e+06
1.82576e+06
1.74318e+06
1.65899e+06
1.14942e+07
1.12737e+07
1.10644e+07
1.08662e+07
1.06787e+07
1.05012e+07
1.03327e+07
1.0172e+07
1.00184e+07
9.87074e+06
9.72833e+06
9.59042e+06
9.45638e+06
9.32568e+06
9.19787e+06
9.07255e+06
8.94941e+06
8.82818e+06
8.70865e+06
8.59069e+06
8.4742e+06
8.35908e+06
8.24525e+06
8.13261e+06
8.02108e+06
7.91059e+06
7.80108e+06
7.69251e+06
7.58485e+06
7.47805e+06
7.37211e+06
7.267e+06
7.16271e+06
7.05923e+06
6.95654e+06
6.85464e+06
6.75352e+06
6.65318e+06
6.55361e+06
6.4548e+06
6.35676e+06
6.25947e+06
6.16295e+06
6.06718e+06
5.97217e+06
5.87792e+06
5.78441e+06
5.69166e+06
5.59966e+06
5.50841e+06
5.41791e+06
5.32816e+06
5.23916e+06
5.15091e+06
5.0634e+06
4.97665e+06
4.89063e+06
4.80537e+06
4.72084e+06
4.63706e+06
4.55402e+06
4.47172e+06
4.39016e+06
4.30934e+06
4.22925e+06
4.14988e+06
4.07125e+06
3.99333e+06
3.91613e+06
3.83964e+06
3.76385e+06
3.68875e+06
3.61435e+06
3.54058e+06
3.46751e+06
3.39501e+06
3.3232e+06
3.25188e+06
3.18124e+06
3.11097e+06
3.04136e+06
2.97193e+06
2.90314e+06
2.83431e+06
2.76607e+06
2.69749e+06
2.6294e+06
2.56059e+06
2.49211e+06
2.42246e+06
2.35285e+06
2.28162e+06
2.20995e+06
2.13627e+06
2.06151e+06
1.98455e+06
1.90587e+06
1.82512e+06
1.74255e+06
1.65843e+06
1.01692e+07
1.01541e+07
1.01244e+07
1.00812e+07
1.00258e+07
9.95989e+06
9.88489e+06
9.80228e+06
9.71332e+06
9.61909e+06
9.52055e+06
9.41864e+06
9.31419e+06
9.20786e+06
9.10018e+06
8.99158e+06
8.88233e+06
8.77269e+06
8.66286e+06
8.55298e+06
8.44319e+06
8.33362e+06
8.22434e+06
8.11543e+06
8.00696e+06
7.89898e+06
7.79154e+06
7.68466e+06
7.57839e+06
7.47274e+06
7.36775e+06
7.26342e+06
7.15977e+06
7.05681e+06
6.95455e+06
6.85301e+06
6.75218e+06
6.65208e+06
6.55271e+06
6.45406e+06
6.35616e+06
6.25899e+06
6.16256e+06
6.06687e+06
5.97193e+06
5.87773e+06
5.78427e+06
5.69156e+06
5.5996e+06
5.50839e+06
5.41793e+06
5.32821e+06
5.23925e+06
5.15103e+06
5.06357e+06
4.97686e+06
4.8909e+06
4.80569e+06
4.72124e+06
4.63754e+06
4.55461e+06
4.47243e+06
4.39101e+06
4.31035e+06
4.23046e+06
4.15134e+06
4.07299e+06
3.99541e+06
3.91862e+06
3.84262e+06
3.76742e+06
3.69302e+06
3.61943e+06
3.54668e+06
3.47478e+06
3.40373e+06
3.33358e+06
3.26434e+06
3.19605e+06
3.12874e+06
3.06246e+06
2.99727e+06
2.93323e+06
2.87042e+06
2.80893e+06
2.74889e+06
2.69041e+06
2.63367e+06
2.57886e+06
2.52621e+06
2.476e+06
2.42856e+06
2.38427e+06
2.3436e+06
2.30705e+06
2.27519e+06
2.24865e+06
2.22803e+06
2.21391e+06
2.20673e+06
1.01719e+07
1.01566e+07
1.01268e+07
1.00833e+07
1.00277e+07
9.96154e+06
9.88632e+06
9.80351e+06
9.71437e+06
9.61997e+06
9.52128e+06
9.41923e+06
9.31467e+06
9.20824e+06
9.1005e+06
8.99184e+06
8.88254e+06
8.77286e+06
8.66299e+06
8.55309e+06
8.44329e+06
8.33369e+06
8.2244e+06
8.11548e+06
8.007e+06
7.89902e+06
7.79156e+06
7.68469e+06
7.57841e+06
7.47276e+06
7.36776e+06
7.26343e+06
7.15977e+06
7.05681e+06
6.95456e+06
6.85301e+06
6.75219e+06
6.65208e+06
6.55271e+06
6.45407e+06
6.35616e+06
6.25899e+06
6.16256e+06
6.06687e+06
5.97193e+06
5.87773e+06
5.78427e+06
5.69156e+06
5.5996e+06
5.50839e+06
5.41793e+06
5.32821e+06
5.23925e+06
5.15103e+06
5.06357e+06
4.97686e+06
4.8909e+06
4.80569e+06
4.72124e+06
4.63754e+06
4.5546e+06
4.47242e+06
4.391e+06
4.31035e+06
4.23046e+06
4.15133e+06
4.07298e+06
3.99541e+06
3.91862e+06
3.84261e+06
3.76741e+06
3.693e+06
3.61942e+06
3.54666e+06
3.47475e+06
3.40371e+06
3.33355e+06
3.2643e+06
3.196e+06
3.12868e+06
3.0624e+06
2.99719e+06
2.93314e+06
2.87031e+06
2.8088e+06
2.74872e+06
2.69022e+06
2.63344e+06
2.57858e+06
2.52588e+06
2.4756e+06
2.42809e+06
2.38371e+06
2.34294e+06
2.30628e+06
2.27431e+06
2.24765e+06
2.22693e+06
2.21272e+06
2.2055e+06
1.01772e+07
1.01618e+07
1.01316e+07
1.00876e+07
1.00315e+07
9.96484e+06
9.88917e+06
9.80597e+06
9.71646e+06
9.62174e+06
9.52275e+06
9.42043e+06
9.31564e+06
9.20902e+06
9.10113e+06
8.99235e+06
8.88296e+06
8.7732e+06
8.66327e+06
8.55332e+06
8.44347e+06
8.33385e+06
8.22452e+06
8.11558e+06
8.00709e+06
7.89909e+06
7.79162e+06
7.68473e+06
7.57845e+06
7.47279e+06
7.36779e+06
7.26345e+06
7.15979e+06
7.05683e+06
6.95457e+06
6.85302e+06
6.7522e+06
6.65209e+06
6.55271e+06
6.45407e+06
6.35616e+06
6.25899e+06
6.16256e+06
6.06687e+06
5.97193e+06
5.87773e+06
5.78427e+06
5.69156e+06