/*--------------------------------*- C++ -*----------------------------------*\
| =========                 |                                                 |
| \\      /  F ield         | OpenFOAM: The Open Source CFD Toolbox           |
|  \\    /   O peration     | Version:  2.4.0                                 |
|   \\  /    A nd           | Web:      www.OpenFOAM.org                      |
|    \\/     M anipulation  |                                                 |
\*---------------------------------------------------------------------------*/
FoamFile
{
    version     2.0;
    format      ascii;
    class       volScalarField;
    location    "0.052";
    object      nuSgs;
}
// * * * * * * * * * * * * * * * * * * * * * * * * * * * * * * * * * * * * * //

dimensions      [0 2 -1 0 0 0 0];

internalField   nonuniform List<scalar> 
17600
(
0.00101297
0.000904345
0.000752578
0.000659151
0.000607185
0.000571678
0.000544937
0.000522515
0.000508187
0.000491462
0.000484408
0.000472121
0.000467738
0.000457296
0.000455124
0.000444898
0.000448005
0.00043669
0.000452689
0.000440925
0.000705669
0.000827653
0.000803262
0.000746864
0.000698453
0.000659506
0.000630123
0.000604462
0.000588338
0.000567879
0.000559612
0.000544524
0.000539208
0.000527053
0.000523894
0.000512216
0.000512842
0.000500305
0.000507222
0.000502218
0.000382607
0.000602128
0.000664111
0.000661327
0.000645195
0.000618424
0.000597332
0.000575657
0.000563069
0.000544304
0.000537055
0.000522805
0.000517964
0.000506797
0.000503736
0.000493454
0.000492313
0.00048278
0.000480818
0.000478471
0.000151659
0.000363774
0.00046032
0.000506649
0.000527276
0.000526581
0.000523454
0.00051318
0.000507552
0.000494927
0.000490166
0.000479662
0.000476149
0.000467611
0.000465248
0.000457822
0.000455759
0.000450905
0.000442506
0.000440156
5.37006e-05
0.000174101
0.000264773
0.000325372
0.000371947
0.000395044
0.000415138
0.000418536
0.000424614
0.000422935
0.000422674
0.000419345
0.000418318
0.000414379
0.000413473
0.000410155
0.000408003
0.000406284
0.000400125
0.000394554
1.74459e-05
7.05657e-05
0.000124244
0.000168253
0.000217959
0.00024626
0.000282446
0.000297673
0.00031653
0.000325829
0.00033492
0.000338163
0.000343366
0.000344545
0.000347215
0.000348502
0.000348467
0.000349389
0.000347318
0.000341924
5.57408e-06
2.66719e-05
4.95412e-05
7.0201e-05
0.00010417
0.0001236
0.000157931
0.000175367
0.000197365
0.000214909
0.000229164
0.000240256
0.000250298
0.000258305
0.000264566
0.000272203
0.000274608
0.00028093
0.000280289
0.000278118
2.32377e-06
9.85861e-06
1.81409e-05
2.58811e-05
4.02329e-05
5.09852e-05
7.08012e-05
8.56727e-05
9.76712e-05
0.000117659
0.00012829
0.000143055
0.000152619
0.000164731
0.000172002
0.000184434
0.000189018
0.000199908
0.00020209
0.000201683
1.7458e-06
4.0419e-06
7.13727e-06
9.40917e-06
1.37342e-05
1.79941e-05
2.56922e-05
3.46481e-05
4.02906e-05
5.16286e-05
5.78529e-05
6.92601e-05
7.56421e-05
8.5856e-05
9.15107e-05
0.000102231
0.000106899
0.000117419
0.000122563
0.000122029
1.64067e-06
2.3626e-06
3.77185e-06
4.2877e-06
5.40641e-06
6.53051e-06
8.71643e-06
1.21809e-05
1.44149e-05
1.88997e-05
2.17039e-05
2.71107e-05
3.06167e-05
3.5777e-05
3.95773e-05
4.50975e-05
4.80028e-05
5.45863e-05
5.96017e-05
5.91588e-05
1.59618e-06
1.96063e-06
2.83462e-06
2.98896e-06
3.41086e-06
3.58435e-06
4.00784e-06
4.78886e-06
5.43182e-06
6.80559e-06
7.75301e-06
9.59566e-06
1.09939e-05
1.26899e-05
1.42576e-05
1.62443e-05
1.73494e-05
1.9769e-05
2.2819e-05
2.28248e-05
1.5792e-06
1.85654e-06
2.45038e-06
2.58066e-06
2.88725e-06
2.9416e-06
3.05104e-06
3.14616e-06
3.25209e-06
3.53055e-06
3.77141e-06
4.24451e-06
4.81022e-06
5.09909e-06
5.599e-06
5.91565e-06
6.09287e-06
6.69169e-06
7.94879e-06
8.33645e-06
1.55669e-06
1.80067e-06
2.22247e-06
2.42142e-06
2.61972e-06
2.66932e-06
2.74842e-06
2.80633e-06
2.82303e-06
2.85343e-06
2.91797e-06
3.11462e-06
3.35141e-06
3.43198e-06
3.48847e-06
3.50436e-06
3.51649e-06
3.68811e-06
4.12877e-06
4.51588e-06
1.54228e-06
1.78127e-06
2.10227e-06
2.27084e-06
2.41322e-06
2.49353e-06
2.56492e-06
2.60348e-06
2.60746e-06
2.61845e-06
2.66374e-06
2.80388e-06
2.92475e-06
2.95396e-06
2.95813e-06
2.95188e-06
2.94758e-06
3.0208e-06
3.25358e-06
3.38692e-06
1.53138e-06
1.74499e-06
2.02534e-06
2.16601e-06
2.28116e-06
2.35514e-06
2.40918e-06
2.42995e-06
2.43289e-06
2.44349e-06
2.49036e-06
2.59422e-06
2.66817e-06
2.68414e-06
2.69109e-06
2.68159e-06
2.67204e-06
2.7294e-06
2.82182e-06
2.87146e-06
1.52215e-06
1.71126e-06
1.97298e-06
2.09099e-06
2.18119e-06
2.24225e-06
2.28841e-06
2.3019e-06
2.30336e-06
2.30927e-06
2.33717e-06
2.41427e-06
2.4718e-06
2.4936e-06
2.50481e-06
2.49023e-06
2.48652e-06
2.54084e-06
2.52431e-06
2.64869e-06
1.51548e-06
1.68233e-06
1.92859e-06
2.04268e-06
2.11221e-06
2.14595e-06
2.1821e-06
2.19774e-06
2.20146e-06
2.20857e-06
2.22899e-06
2.27855e-06
2.31711e-06
2.3428e-06
2.34912e-06
2.3388e-06
2.35541e-06
2.36193e-06
2.34801e-06
2.91642e-06
1.51084e-06
1.66894e-06
1.90596e-06
2.00429e-06
2.04427e-06
2.07669e-06
2.11921e-06
2.1367e-06
2.1389e-06
2.13968e-06
2.14249e-06
2.15951e-06
2.20182e-06
2.2345e-06
2.23683e-06
2.23508e-06
2.25286e-06
2.23724e-06
2.25265e-06
2.96948e-06
1.50803e-06
1.65975e-06
1.87998e-06
1.97903e-06
2.0144e-06
2.03911e-06
2.07481e-06
2.08999e-06
2.09124e-06
2.08945e-06
2.08889e-06
2.0963e-06
2.133e-06
2.15994e-06
2.1643e-06
2.17193e-06
2.16779e-06
2.17115e-06
2.35771e-06
2.50557e-06
1.50656e-06
1.65486e-06
1.87733e-06
1.97094e-06
1.98975e-06
2.01459e-06
2.05528e-06
2.07232e-06
2.07298e-06
2.0691e-06
2.06429e-06
2.06618e-06
2.08794e-06
2.12031e-06
2.13104e-06
2.13893e-06
2.13549e-06
2.13407e-06
2.31437e-06
2.47458e-06
1.50659e-06
1.65606e-06
1.87474e-06
1.96905e-06
1.99205e-06
2.01793e-06
2.05492e-06
2.07202e-06
2.07262e-06
2.06878e-06
2.06345e-06
2.0647e-06
2.08399e-06
2.12084e-06
2.13165e-06
2.13263e-06
2.14109e-06
2.18664e-06
2.20394e-06
2.54025e-06
1.50801e-06
1.65495e-06
1.8919e-06
1.98903e-06
2.00811e-06
2.02966e-06
2.072e-06
2.09771e-06
2.09887e-06
2.09744e-06
2.09219e-06
2.09209e-06
2.11135e-06
2.1501e-06
2.16084e-06
2.18208e-06
2.17614e-06
2.21381e-06
2.27276e-06
2.43413e-06
1.51091e-06
1.66187e-06
1.91625e-06
2.01762e-06
2.04258e-06
2.06824e-06
2.10953e-06
2.14503e-06
2.14837e-06
2.15077e-06
2.14754e-06
2.14824e-06
2.17739e-06
2.20805e-06
2.23965e-06
2.265e-06
2.26446e-06
2.26812e-06
2.37309e-06
2.78273e-06
1.51551e-06
1.67251e-06
1.95194e-06
2.06796e-06
2.09669e-06
2.12498e-06
2.16866e-06
2.21748e-06
2.22705e-06
2.2342e-06
2.23182e-06
2.23678e-06
2.2659e-06
2.30968e-06
2.37503e-06
2.3732e-06
2.37342e-06
2.45514e-06
2.45878e-06
2.79496e-06
1.52228e-06
1.69869e-06
1.99762e-06
2.12501e-06
2.16649e-06
2.20853e-06
2.26667e-06
2.32442e-06
2.33515e-06
2.34391e-06
2.34282e-06
2.35452e-06
2.38387e-06
2.47766e-06
2.53718e-06
2.53155e-06
2.56443e-06
2.61252e-06
2.64874e-06
2.74391e-06
1.53172e-06
1.74436e-06
2.05588e-06
2.19523e-06
2.2516e-06
2.32236e-06
2.40591e-06
2.47352e-06
2.47899e-06
2.48103e-06
2.47788e-06
2.49039e-06
2.54564e-06
2.71333e-06
2.74266e-06
2.75556e-06
2.84297e-06
2.83165e-06
2.84907e-06
3.18704e-06
1.54249e-06
1.78499e-06
2.12294e-06
2.28039e-06
2.36738e-06
2.47249e-06
2.58397e-06
2.65068e-06
2.64802e-06
2.6363e-06
2.63029e-06
2.65213e-06
2.80706e-06
3.03051e-06
3.06756e-06
3.16116e-06
3.18696e-06
3.22182e-06
3.39417e-06
3.9943e-06
1.55302e-06
1.79531e-06
2.23844e-06
2.40118e-06
2.57413e-06
2.66641e-06
2.77823e-06
2.83206e-06
2.8279e-06
2.82552e-06
2.83819e-06
2.93851e-06
3.31764e-06
3.64872e-06
3.80482e-06
4.00631e-06
4.14904e-06
4.60636e-06
5.52069e-06
7.3649e-06
1.57031e-06
1.84447e-06
2.4564e-06
2.57196e-06
2.85717e-06
2.91765e-06
3.03591e-06
3.10547e-06
3.18609e-06
3.39922e-06
3.64585e-06
4.30705e-06
4.86819e-06
5.87799e-06
6.42638e-06
7.41296e-06
8.36624e-06
1.08167e-05
1.34038e-05
1.88904e-05
1.59134e-06
1.93663e-06
2.81255e-06
2.94919e-06
3.33875e-06
3.51455e-06
3.90435e-06
4.67115e-06
5.32439e-06
6.75928e-06
7.78607e-06
9.99117e-06
1.14775e-05
1.43837e-05
1.61943e-05
1.97246e-05
2.26091e-05
2.92353e-05
3.45545e-05
4.69225e-05
1.62918e-06
2.30165e-06
3.70962e-06
4.21322e-06
5.33078e-06
6.45981e-06
8.45328e-06
1.19837e-05
1.43484e-05
1.90933e-05
2.20041e-05
2.79555e-05
3.1592e-05
3.87324e-05
4.28316e-05
5.11099e-05
5.66286e-05
6.92573e-05
7.7534e-05
9.85678e-05
1.74263e-06
3.96977e-06
7.1494e-06
9.44813e-06
1.37644e-05
1.79565e-05
2.47805e-05
3.47978e-05
4.03818e-05
5.19039e-05
5.81544e-05
7.0493e-05
7.69617e-05
8.96945e-05
9.62724e-05
0.000109751
0.000117484
0.000134918
0.00014471
0.000169454
2.34726e-06
9.7804e-06
1.83697e-05
2.61778e-05
4.03213e-05
5.08897e-05
6.95227e-05
8.66421e-05
9.7365e-05
0.000117662
0.000127749
0.000145196
0.000153658
0.000169361
0.000176983
0.000192114
0.000199783
0.000216562
0.000225188
0.000246166
5.60685e-06
2.64573e-05
5.00632e-05
7.069e-05
0.000104054
0.00012334
0.000157186
0.000176084
0.000195962
0.000215745
0.000229037
0.00024222
0.000251713
0.000262266
0.000268875
0.000278761
0.000283947
0.000294928
0.00030068
0.000313627
1.74841e-05
6.98428e-05
0.000125032
0.000168603
0.000217502
0.000245992
0.000282299
0.00029769
0.000316008
0.000326452
0.000335219
0.000339634
0.000344897
0.000347175
0.000350816
0.00035308
0.000355794
0.0003599
0.000363168
0.000367536
5.37945e-05
0.000172106
0.000266191
0.000325229
0.00037194
0.000394888
0.000415196
0.000418389
0.000424682
0.00042316
0.000423143
0.000420243
0.000419493
0.000416025
0.000415668
0.000412956
0.000413012
0.000411743
0.000411773
0.000410554
0.000151917
0.000363151
0.00046131
0.000506328
0.000527431
0.000526481
0.000523447
0.000512888
0.000507736
0.000494975
0.000490538
0.00048001
0.000476745
0.000468157
0.00046595
0.000458756
0.000457027
0.000450837
0.000448134
0.000442809
0.000383158
0.00060168
0.000664559
0.000661206
0.000645489
0.000617807
0.0005977
0.000575094
0.000563751
0.000543614
0.000537162
0.00052235
0.000517811
0.000505778
0.000502356
0.000491352
0.000487925
0.000476147
0.000470711
0.000459396
0.000705846
0.000827485
0.000803507
0.000746384
0.000699158
0.000658738
0.000630628
0.000603706
0.000589049
0.000566553
0.000559525
0.000542759
0.000537919
0.000523504
0.000519263
0.000504742
0.000499621
0.000482017
0.000473688
0.000453946
0.00101309
0.0009043
0.000752851
0.000658498
0.000607834
0.000570907
0.000545393
0.000521595
0.000508546
0.000489727
0.000483851
0.000468875
0.000464902
0.000450491
0.000446047
0.000429826
0.000423244
0.000401527
0.000389479
0.000360974
0.000195446
0.000159788
0.000138398
0.000132198
0.000133304
0.000135956
0.000137448
0.000134782
0.000129936
0.000124056
0.000123921
0.000126634
0.000134546
0.000158866
0.00014322
0.000118845
0.000100164
7.95953e-05
7.40211e-05
6.3835e-05
6.14227e-05
6.09698e-05
5.90846e-05
5.82115e-05
5.79423e-05
5.80309e-05
6.099e-05
6.10691e-05
6.01288e-05
5.86224e-05
5.8509e-05
5.76189e-05
5.48477e-05
5.1941e-05
5.20409e-05
5.40236e-05
6.1695e-05
6.88142e-05
6.98037e-05
6.73704e-05
5.71568e-05
3.64749e-05
2.35077e-05
1.5772e-05
1.0445e-05
7.62139e-06
6.77463e-06
6.73714e-06
7.07108e-06
8.87185e-06
1.34094e-05
2.106e-05
3.34147e-05
4.5849e-05
5.47743e-05
5.91147e-05
5.91354e-05
5.82398e-05
5.56144e-05
5.2449e-05
4.92647e-05
4.35762e-05
3.56624e-05
2.88921e-05
2.51737e-05
2.2653e-05
2.00642e-05
1.77837e-05
1.63395e-05
1.57003e-05
1.51767e-05
1.43213e-05
1.33827e-05
1.26645e-05
1.22836e-05
1.20811e-05
1.17847e-05
1.13496e-05
1.08354e-05
1.0346e-05
9.97121e-06
9.75923e-06
9.66158e-06
9.5697e-06
9.44249e-06
9.3199e-06
9.2496e-06
9.23004e-06
9.2273e-06
9.22434e-06
9.21248e-06
9.18974e-06
9.15741e-06
9.09864e-06
8.95736e-06
8.50851e-06
7.89551e-06
7.22863e-06
6.51843e-06
5.79406e-06
5.07259e-06
4.38523e-06
3.73686e-06
3.15519e-06
2.6282e-06
2.17669e-06
1.78625e-06
1.45531e-06
1.19371e-06
9.59366e-07
8.04539e-07
6.47689e-07
5.58895e-07
4.73076e-07
4.0642e-07
3.57603e-07
3.09403e-07
2.73099e-07
2.51654e-07
2.42171e-07
2.43467e-07
2.48657e-07
2.6039e-07
2.61811e-07
2.68627e-07
2.70392e-07
2.76225e-07
2.78123e-07
2.82736e-07
2.87283e-07
2.97687e-07
3.04436e-07
3.20848e-07
3.28605e-07
3.46821e-07
3.56577e-07
3.79667e-07
3.9081e-07
4.18249e-07
4.29895e-07
4.58283e-07
4.71427e-07
5.01518e-07
5.15864e-07
5.50251e-07
5.68689e-07
6.12932e-07
6.34931e-07
6.87765e-07
7.14418e-07
7.81136e-07
8.15304e-07
8.97891e-07
9.37294e-07
1.03408e-06
1.08034e-06
1.19586e-06
1.24525e-06
1.37094e-06
1.42044e-06
1.56829e-06
1.61226e-06
1.76323e-06
1.81474e-06
1.99601e-06
2.02476e-06
2.19836e-06
2.19692e-06
2.23316e-06
2.16167e-06
2.11291e-06
1.88455e-06
1.73016e-06
1.47893e-06
1.36769e-06
1.33454e-06
1.37656e-06
1.51532e-06
1.63704e-06
1.99514e-06
2.02008e-06
2.23318e-06
2.04634e-06
1.94229e-06
1.68756e-06
1.74832e-06
1.96223e-06
1.95343e-06
2.22202e-06
1.94921e-06
1.92333e-06
2.23819e-06
2.45925e-06
2.94409e-06
3.36996e-06
4.66126e-06
7.3122e-06
1.2009e-05
3.09423e-05
0.000127109
0.000240659
0.000208744
0.000186151
0.000171685
0.00016303
0.000153987
0.000146025
0.000138214
0.000130398
0.000124704
0.000118091
0.000119661
0.000123441
0.000145905
0.000152881
0.000137055
0.000108814
8.63353e-05
7.94832e-05
6.60955e-05
6.66694e-05
6.60986e-05
6.17643e-05
6.27124e-05
6.30631e-05
6.41905e-05
6.66045e-05
6.66073e-05
6.59406e-05
6.43332e-05
6.24268e-05
5.80805e-05
5.39979e-05
5.36052e-05
5.49693e-05
6.17036e-05
6.98449e-05
7.15257e-05
7.0066e-05
6.20219e-05
4.03523e-05
2.58043e-05
1.71202e-05
1.16922e-05
8.1094e-06
6.65723e-06
6.52398e-06
6.6726e-06
7.73888e-06
1.11231e-05
1.81566e-05
2.97003e-05
4.63712e-05
5.85029e-05
6.54068e-05
6.77718e-05
6.76317e-05
6.63378e-05
6.23954e-05
5.73665e-05
5.36506e-05
4.8736e-05
4.09444e-05
3.27411e-05
2.72687e-05
2.40864e-05
2.13484e-05
1.87905e-05
1.70343e-05
1.61033e-05
1.53335e-05
1.43867e-05
1.34128e-05
1.26792e-05
1.23007e-05
1.21128e-05
1.18121e-05
1.13555e-05
1.08752e-05
1.04464e-05
1.00956e-05
9.83789e-06
9.64003e-06
9.46488e-06
9.31585e-06
9.2233e-06
9.18708e-06
9.18981e-06
9.22603e-06
9.27132e-06
9.31377e-06
9.33398e-06
9.33343e-06
9.29868e-06
9.09123e-06
8.52685e-06
7.8933e-06
7.21524e-06
6.50456e-06
5.78452e-06
5.07006e-06
4.39164e-06
3.74779e-06
3.17685e-06
2.64846e-06
2.20954e-06
1.81236e-06
1.49638e-06
1.22522e-06
1.00491e-06
8.36781e-07
6.86198e-07
5.78996e-07
4.83389e-07
4.06127e-07
3.49743e-07
2.99324e-07
2.66944e-07
2.38881e-07
2.28954e-07
2.28391e-07
2.2789e-07
2.2513e-07
2.2056e-07
2.16611e-07
2.12057e-07
2.1348e-07
2.12788e-07
2.11554e-07
2.13434e-07
2.15037e-07
2.16273e-07
2.19333e-07
2.21302e-07
2.24418e-07
2.29319e-07
2.32021e-07
2.37524e-07
2.44824e-07
2.48394e-07
2.57609e-07
2.63404e-07
2.76422e-07
2.8209e-07
2.95092e-07
3.02523e-07
3.19456e-07
3.29576e-07
3.49852e-07
3.62903e-07
3.87931e-07
4.06111e-07
4.39095e-07
4.73877e-07
5.16889e-07
5.62936e-07
6.23245e-07
7.11314e-07
7.80255e-07
9.21572e-07
1.00723e-06
1.18544e-06
1.29406e-06
1.52662e-06
1.63346e-06
1.89057e-06
2.00192e-06
2.28181e-06
2.34923e-06
2.62517e-06
2.65459e-06
2.83953e-06
2.77661e-06
2.73454e-06
2.49007e-06
2.23171e-06
1.87972e-06
1.71527e-06
1.72209e-06
1.7992e-06
2.05996e-06
2.15402e-06
2.59302e-06
2.37638e-06
2.33714e-06
2.01914e-06
2.01335e-06
2.15883e-06
2.20409e-06
2.46029e-06
2.20523e-06
2.2855e-06
2.73305e-06
3.04223e-06
3.67352e-06
4.95265e-06
7.48106e-06
1.12754e-05
3.329e-05
0.000107896
0.000239867
0.000215843
0.000197161
0.000182201
0.000170507
0.000158638
0.000147634
0.000139033
0.000128304
0.000120726
0.000112559
0.000111891
0.000114419
0.000122334
0.000145364
0.000146528
0.000120576
9.49173e-05
8.67103e-05
7.08097e-05
7.11627e-05
7.32214e-05
7.14383e-05
7.24383e-05
7.03454e-05
7.04096e-05
6.98446e-05
6.85436e-05
6.73591e-05
6.53488e-05
6.04031e-05
5.6083e-05
5.50029e-05
5.63123e-05
6.20698e-05
7.18629e-05
7.3317e-05
7.21792e-05
6.56754e-05
4.47689e-05
2.85529e-05
1.8452e-05
1.27937e-05
8.91895e-06
6.75632e-06
6.25682e-06
6.35389e-06
6.83873e-06
9.13728e-06
1.4643e-05
2.54743e-05
4.32413e-05
6.05451e-05
6.99743e-05
7.33006e-05
7.34182e-05
7.25239e-05
7.09579e-05
6.84331e-05
6.24451e-05
5.77553e-05
5.32322e-05
4.57105e-05
3.68046e-05
3.00611e-05
2.59013e-05
2.27104e-05
1.98992e-05
1.78238e-05
1.65159e-05
1.5475e-05
1.4412e-05
1.34299e-05
1.27296e-05
1.23841e-05
1.2217e-05
1.19101e-05
1.13838e-05
1.08647e-05
1.04548e-05
1.01563e-05
9.89016e-06
9.60289e-06
9.33105e-06
9.15588e-06
9.09796e-06
9.11488e-06
9.30886e-06
9.54429e-06
9.696e-06
9.79088e-06
9.82801e-06
9.83079e-06
9.7584e-06
9.34655e-06
8.67291e-06
7.99198e-06
7.27338e-06
6.54403e-06
5.80694e-06
5.08842e-06
4.40685e-06
3.76365e-06
3.19612e-06
2.66748e-06
2.23559e-06
1.83583e-06
1.52794e-06
1.25376e-06
1.03812e-06
8.70132e-07
7.17523e-07
6.10001e-07
5.20649e-07
4.3599e-07
4.06395e-07
3.61202e-07
3.63444e-07
3.61652e-07
3.72081e-07
3.67541e-07
3.5431e-07
3.53878e-07
3.51964e-07
3.48381e-07
3.46843e-07
3.47094e-07
3.43046e-07
3.4879e-07
3.48713e-07
3.54836e-07
3.57315e-07
3.62798e-07
3.65125e-07
3.75369e-07
3.77691e-07
3.86646e-07
3.90225e-07
3.99101e-07
4.04907e-07
4.18718e-07
4.25109e-07
4.42229e-07
4.49407e-07
4.60007e-07
4.72608e-07
4.79596e-07
4.88935e-07
4.96195e-07
5.10468e-07
5.14076e-07
5.232e-07
5.28445e-07
5.42213e-07
5.48722e-07
5.69005e-07
5.76517e-07
5.9622e-07
6.06489e-07
6.36605e-07
6.56269e-07
6.95661e-07
7.45967e-07
8.13483e-07
8.92452e-07
1.07475e-06
1.19615e-06
1.41139e-06
1.8324e-06
2.02203e-06
2.45357e-06
2.62441e-06
3.08081e-06
3.1383e-06
3.43734e-06
3.36643e-06
3.29223e-06
2.93568e-06
2.55463e-06
2.13978e-06
2.14499e-06
2.22469e-06
2.38966e-06
2.83538e-06
2.648e-06
2.6095e-06
2.32738e-06
2.29199e-06
2.62197e-06
2.56006e-06
2.81753e-06
2.6012e-06
2.73277e-06
3.27187e-06
3.73217e-06
4.70357e-06
9.09246e-06
1.13318e-05
3.27281e-05
8.75196e-05
0.000225376
0.000208159
0.000192337
0.000178625
0.000167137
0.000155436
0.000143694
0.000133621
0.00012269
0.000111724
0.000100468
9.86591e-05
0.000100624
0.000108377
0.000124691
0.000142929
0.000134529
0.000113392
9.63142e-05
8.01185e-05
7.47375e-05
7.51947e-05
7.70772e-05
7.72213e-05
7.43666e-05
7.24729e-05
6.84783e-05
6.63981e-05
6.34606e-05
5.99493e-05
5.64644e-05
5.60549e-05
5.79074e-05
6.46267e-05
7.43234e-05
7.57984e-05
7.43388e-05
6.80944e-05
4.76617e-05
3.10893e-05
1.98017e-05
1.34454e-05
9.78159e-06
7.158e-06
6.08226e-06
6.08813e-06
6.27967e-06
7.44432e-06
1.14615e-05
2.01763e-05
3.6709e-05
5.95126e-05
7.22322e-05
7.6318e-05
7.64636e-05
7.52532e-05
7.32283e-05
7.16032e-05
7.03555e-05
6.6687e-05
6.1204e-05
5.68371e-05
5.01294e-05
4.10752e-05
3.30601e-05
2.77362e-05
2.40189e-05
2.09575e-05
1.86099e-05
1.69577e-05
1.56347e-05
1.44396e-05
1.346e-05
1.2814e-05
1.25311e-05
1.23713e-05
1.20039e-05
1.14195e-05
1.08548e-05
1.04224e-05
1.01192e-05
9.84595e-06
9.54172e-06
9.23506e-06
9.01944e-06
8.95266e-06
8.98524e-06
9.26929e-06
9.74188e-06
1.00371e-05
1.01762e-05
1.02078e-05
1.02044e-05
1.01462e-05
9.85586e-06
9.08015e-06
8.29682e-06
7.47297e-06
6.68549e-06
5.89268e-06
5.15177e-06
4.44742e-06
3.79791e-06
3.22413e-06
2.69657e-06
2.26177e-06
1.87677e-06
1.55461e-06
1.32305e-06
1.07765e-06
9.73631e-07
8.09904e-07
7.40704e-07
6.69917e-07
5.97641e-07
5.71839e-07
5.31117e-07
4.87873e-07
4.88831e-07
4.75368e-07
4.89333e-07
4.87902e-07
5.01534e-07
5.08248e-07
5.28994e-07
5.38541e-07
5.73786e-07
5.77539e-07
6.04177e-07
6.0539e-07
6.18139e-07
6.291e-07
6.59124e-07
6.73114e-07
7.10614e-07
7.17598e-07
7.40477e-07
7.49823e-07
7.70248e-07
7.85111e-07
8.16603e-07
8.27983e-07
8.53221e-07
8.67881e-07
8.8757e-07
9.12065e-07
9.40022e-07
9.55554e-07
9.8504e-07
1.00634e-06
1.04202e-06
1.05854e-06
1.09717e-06
1.10801e-06
1.13303e-06
1.14242e-06
1.16338e-06
1.15565e-06
1.15258e-06
1.1292e-06
1.11601e-06
1.0711e-06
1.05614e-06
1.03157e-06
1.01954e-06
1.02658e-06
1.04322e-06
1.07961e-06
1.16628e-06
1.25857e-06
1.49378e-06
1.7309e-06
2.07075e-06
2.70271e-06
2.99544e-06
3.5928e-06
3.66588e-06
4.0353e-06
3.86832e-06
3.63666e-06
3.01231e-06
2.61788e-06
2.6006e-06
2.69548e-06
3.14904e-06
2.97817e-06
2.96587e-06
2.63355e-06
2.67449e-06
2.97913e-06
2.92415e-06
3.23772e-06
3.12985e-06
3.28771e-06
4.86175e-06
4.99931e-06
9.75017e-06
1.15341e-05
3.17131e-05
7.15678e-05
0.000203074
0.000189622
0.000177503
0.000164938
0.000154345
0.000143926
0.000131305
0.000121057
0.000109483
0.00010056
8.71002e-05
8.23053e-05
8.30826e-05
9.13713e-05
0.00010236
0.000127146
0.000134356
0.000129965
0.000115456
9.54132e-05
8.23617e-05
7.8129e-05
7.84131e-05
7.79186e-05
7.48185e-05
7.08459e-05
6.5864e-05
6.26598e-05
5.85215e-05
5.76685e-05
5.84015e-05
6.19713e-05
7.16403e-05
7.78319e-05
7.81648e-05
7.66262e-05
7.0201e-05
4.9266e-05
3.24746e-05
2.15795e-05
1.39175e-05
1.02801e-05
7.85648e-06
6.13938e-06
5.79695e-06
5.95853e-06
6.39115e-06
8.72153e-06
1.52415e-05
2.8645e-05
5.35707e-05
7.25599e-05
7.86652e-05
7.90914e-05
7.78599e-05
7.49248e-05
7.28991e-05
7.15578e-05
7.03951e-05
6.86305e-05
6.37913e-05
5.97526e-05
5.39762e-05
4.51255e-05
3.62808e-05
2.98477e-05
2.54103e-05
2.20424e-05
1.94621e-05
1.74764e-05
1.58342e-05
1.44823e-05
1.34739e-05
1.29207e-05
1.26827e-05
1.24574e-05
1.2063e-05
1.14919e-05
1.09155e-05
1.0414e-05
9.98113e-06
9.61969e-06
9.30558e-06
9.05428e-06
8.89384e-06
8.83078e-06
8.83696e-06
9.0004e-06
9.51344e-06
9.8994e-06
1.01003e-05
1.01578e-05
1.01593e-05
1.012e-05
9.98695e-06
9.47746e-06
8.65454e-06
7.75954e-06
6.91301e-06
6.05316e-06
5.27506e-06
4.52952e-06
3.86715e-06
3.27765e-06
2.7512e-06
2.31593e-06
1.94624e-06
1.61681e-06
1.42925e-06
1.15668e-06
1.08768e-06
8.99389e-07
8.76014e-07
7.62783e-07
7.73848e-07
7.06769e-07
7.3917e-07
6.8752e-07
7.49098e-07
7.20701e-07
7.84569e-07
8.22608e-07
8.10406e-07
8.86897e-07
8.71937e-07
8.84168e-07
9.42555e-07
9.32737e-07
9.73068e-07
1.02511e-06
1.02052e-06
1.09249e-06
1.08043e-06
1.12764e-06
1.13567e-06
1.1774e-06
1.1722e-06
1.23371e-06
1.2144e-06
1.26267e-06
1.25081e-06
1.28644e-06
1.27627e-06
1.32533e-06
1.30436e-06
1.35001e-06
1.33443e-06
1.38003e-06
1.36814e-06
1.43307e-06
1.41582e-06
1.46604e-06
1.46535e-06
1.53461e-06
1.53234e-06
1.60762e-06
1.61477e-06
1.69507e-06
1.71224e-06
1.82223e-06
1.83629e-06
1.92343e-06
1.93133e-06
2.01856e-06
1.95746e-06
1.9655e-06
1.90458e-06
1.85046e-06
1.69591e-06
1.63593e-06
1.57981e-06
1.59428e-06
1.65326e-06
1.78731e-06
2.00641e-06
2.47213e-06
3.24105e-06
3.66396e-06
4.3111e-06
4.40128e-06
4.54601e-06
4.15376e-06
3.49706e-06
3.05388e-06
3.11268e-06
3.77085e-06
3.45615e-06
3.63318e-06
3.09497e-06
3.09426e-06
3.26982e-06
3.32139e-06
3.70448e-06
3.68819e-06
5.09904e-06
5.24949e-06
1.32575e-05
1.24905e-05
2.82903e-05
5.83395e-05
0.000176477
0.000165124
0.000155004
0.0001443
0.000133668
0.000124883
0.000112929
0.000103242
9.30105e-05
8.3129e-05
7.15886e-05
6.38541e-05
6.39918e-05
6.93178e-05
8.09117e-05
9.73154e-05
0.000126951
0.00012876
0.00012488
0.000113594
9.8639e-05
8.71085e-05
8.35397e-05
7.99323e-05
7.53544e-05
7.10172e-05
6.66327e-05
6.59845e-05
6.63141e-05
6.86989e-05
7.37849e-05
7.99181e-05
8.17507e-05
8.1018e-05
7.83709e-05
7.06213e-05
4.90576e-05
3.23402e-05
2.2285e-05
1.49528e-05
1.00868e-05
8.32095e-06
6.57043e-06
5.60345e-06
5.66804e-06
5.93484e-06
6.94863e-06
1.09807e-05
2.11206e-05
4.10926e-05
6.94885e-05
8.02379e-05
8.17675e-05
8.03013e-05
7.71042e-05
7.24176e-05
7.0168e-05
7.01386e-05
6.98113e-05
6.8727e-05
6.55602e-05
6.1875e-05
5.69658e-05
4.86231e-05
3.93171e-05
3.20145e-05
2.70341e-05
2.34261e-05
2.04867e-05
1.79952e-05
1.60285e-05
1.45397e-05
1.35288e-05
1.30394e-05
1.27848e-05
1.24855e-05
1.20565e-05
1.15674e-05
1.10345e-05
1.04705e-05
9.92314e-06
9.44015e-06
9.09158e-06
8.88482e-06
8.75778e-06
8.681e-06
8.65662e-06
8.66843e-06
8.75207e-06
9.00916e-06
9.30019e-06
9.49567e-06
9.57251e-06
9.5805e-06
9.54983e-06
9.41393e-06
8.9343e-06
8.02823e-06
7.13563e-06
6.22802e-06
5.413e-06
4.62815e-06
3.95514e-06
3.33804e-06
2.82666e-06
2.36339e-06
2.04468e-06
1.66027e-06
1.55741e-06
1.24996e-06
1.27004e-06
1.09905e-06
1.31983e-06
1.13736e-06
1.38221e-06
1.24598e-06
1.49401e-06
1.37145e-06
1.75715e-06
1.63629e-06
2.03009e-06
1.91015e-06
2.09117e-06
2.05418e-06
2.1187e-06
2.07647e-06
2.23562e-06
2.13237e-06
2.36054e-06
2.26883e-06
2.41741e-06
2.36296e-06
2.48398e-06
2.40537e-06
2.57232e-06
2.47718e-06
2.61902e-06
2.55066e-06
2.63144e-06
2.56594e-06
2.64247e-06
2.54911e-06
2.62469e-06
2.53996e-06
2.56662e-06
2.48816e-06
2.52381e-06
2.42078e-06
2.44824e-06
2.36095e-06
2.36631e-06
2.26182e-06
2.29807e-06
2.19707e-06
2.19882e-06
2.11822e-06
2.16967e-06
2.08612e-06
2.11771e-06
2.07946e-06
2.16648e-06
2.14603e-06
2.21663e-06
2.23626e-06
2.34632e-06
2.36247e-06
2.51339e-06
2.52734e-06
2.63035e-06
2.58068e-06
2.55467e-06
2.39836e-06
2.3426e-06
2.1243e-06
2.11973e-06
2.20583e-06
2.3329e-06
2.65479e-06
3.19964e-06
4.34043e-06
4.56348e-06
5.16056e-06
4.97052e-06
4.46314e-06
3.59647e-06
3.69169e-06
4.00747e-06
3.89051e-06
4.0259e-06
3.53838e-06
3.6298e-06
4.06797e-06
4.24452e-06
4.02034e-06
7.23882e-06
6.5332e-06
1.70712e-05
1.42362e-05
2.65142e-05
4.87708e-05
0.000144991
0.00013661
0.000127712
0.000117244
0.000107548
9.79781e-05
8.77375e-05
7.73518e-05
6.7829e-05
5.86319e-05
4.833e-05
4.12328e-05
4.10503e-05
4.44657e-05
5.52404e-05
6.94095e-05
0.000100927
0.000119718
0.000121609
0.000118519
0.000111628
0.000103088
9.89949e-05
9.00501e-05
8.14347e-05
7.74103e-05
7.71653e-05
7.94612e-05
8.24194e-05
8.52443e-05
8.52142e-05
8.47369e-05
8.3073e-05
7.87539e-05
6.76105e-05
4.74398e-05
3.24682e-05
2.18359e-05
1.55281e-05
1.05086e-05
7.7922e-06
7.04154e-06
5.74684e-06
5.37158e-06
5.62461e-06
6.1157e-06
8.0503e-06
1.45301e-05
2.98476e-05
5.93351e-05
8.00688e-05
8.43086e-05
8.33341e-05
7.94458e-05
7.34619e-05
6.71613e-05
6.48646e-05
6.54974e-05
6.76247e-05
6.77389e-05
6.63275e-05
6.3218e-05
5.92404e-05
5.17845e-05
4.24495e-05
3.43081e-05
2.84963e-05
2.43842e-05
2.11309e-05
1.84855e-05
1.63494e-05
1.46877e-05
1.36641e-05
1.31605e-05
1.28275e-05
1.2468e-05
1.20368e-05
1.15666e-05
1.1059e-05
1.05022e-05
9.92805e-06
9.43446e-06
9.08014e-06
8.83218e-06
8.66333e-06
8.54781e-06
8.47079e-06
8.43156e-06
8.42723e-06
8.47295e-06
8.7174e-06
8.98496e-06
9.12707e-06
9.17976e-06
9.18091e-06
9.1481e-06
8.91524e-06
8.09587e-06
7.1827e-06
6.28122e-06
5.46249e-06
4.67273e-06
4.01878e-06
3.37897e-06
2.9218e-06
2.40674e-06
2.19152e-06
1.74852e-06
1.7376e-06
1.50007e-06
1.79174e-06
1.5892e-06
2.01859e-06
1.82432e-06
2.03889e-06
1.96134e-06
2.01647e-06
1.98796e-06
2.12391e-06
2.0437e-06
2.33288e-06
2.30195e-06
2.55432e-06
2.52207e-06
2.61755e-06
2.59896e-06
2.73666e-06
2.68449e-06
2.88679e-06
2.84783e-06
3.02239e-06
2.99255e-06
3.13469e-06
3.09237e-06
3.26695e-06
3.21845e-06
3.39681e-06
3.36293e-06
3.53014e-06
3.5005e-06
3.68535e-06
3.65124e-06
3.83699e-06
3.81324e-06
3.96441e-06
3.93694e-06
4.08532e-06
4.03273e-06
4.15537e-06
4.1136e-06
4.16818e-06
4.08653e-06
4.16036e-06
4.0582e-06
3.99696e-06
3.9079e-06
3.85218e-06
3.59992e-06
3.44305e-06
3.4068e-06
3.24126e-06
3.12375e-06
2.92984e-06
2.96261e-06
2.85395e-06
2.8576e-06
2.84309e-06
2.89313e-06
2.99044e-06
3.02449e-06
3.14097e-06
3.13375e-06
3.16952e-06
3.09578e-06
3.00863e-06
2.83291e-06
2.57348e-06
2.59304e-06
2.74315e-06
3.12498e-06
4.18709e-06
4.6011e-06
5.98053e-06
5.82158e-06
5.55063e-06
4.50354e-06
4.32558e-06
4.58872e-06
4.54138e-06
4.51698e-06
4.22323e-06
4.2989e-06
6.16328e-06
5.28167e-06
1.0402e-05
8.09972e-06
2.22558e-05
1.68993e-05
2.24489e-05
4.09799e-05
0.00010557
9.95127e-05
9.22159e-05
8.2503e-05
7.26874e-05
6.35536e-05
5.43347e-05
4.66294e-05
4.04264e-05
3.46811e-05
2.92926e-05
2.5623e-05
2.55297e-05
2.74267e-05
3.31821e-05
4.38484e-05
6.5604e-05
9.093e-05
0.000108223
0.000112836
0.000111268
0.000106495
0.0001048
0.000100503
9.63475e-05
9.10928e-05
8.99744e-05
8.90645e-05
8.86042e-05
8.7793e-05
8.59672e-05
8.20129e-05
7.54743e-05
6.12335e-05
4.34868e-05
3.09578e-05
2.12599e-05
1.48005e-05
1.08943e-05
7.64718e-06
6.5026e-06
6.11761e-06
5.27679e-06
5.27918e-06
5.71399e-06
6.55043e-06
9.81321e-06
1.99852e-05
4.24848e-05
7.469e-05
8.66107e-05
8.68217e-05
8.37278e-05
7.4437e-05
6.62396e-05
5.99937e-05
5.84562e-05
5.92164e-05
6.33592e-05
6.58187e-05
6.56747e-05
6.40431e-05
6.09185e-05
5.44721e-05
4.52858e-05
3.65042e-05
2.99293e-05
2.53405e-05
2.19312e-05
1.91353e-05
1.67257e-05
1.48962e-05
1.38426e-05
1.33014e-05
1.28897e-05
1.24262e-05
1.19781e-05
1.15347e-05
1.10382e-05
1.04826e-05
9.94802e-06
9.50087e-06
9.13863e-06
8.8421e-06
8.59929e-06
8.438e-06
8.37522e-06
8.37389e-06
8.42874e-06
8.68778e-06
9.03971e-06
9.27932e-06
9.39043e-06
9.41441e-06
9.40156e-06
9.30657e-06
8.7847e-06
7.95315e-06
7.06617e-06
6.22674e-06
5.43031e-06
4.65778e-06
4.05346e-06
3.3878e-06
3.03125e-06
2.4693e-06
2.32952e-06
1.94041e-06
1.97202e-06
1.86047e-06
1.99392e-06
1.91651e-06
1.9626e-06
1.95286e-06
2.11145e-06
2.15574e-06
2.70577e-06
2.65548e-06
3.36787e-06
3.18016e-06
4.09515e-06
3.83831e-06
4.37968e-06
4.21046e-06
4.3426e-06
4.28146e-06
4.38203e-06
4.24162e-06
4.53218e-06
4.34263e-06
4.61857e-06
4.48223e-06
4.59408e-06
4.49548e-06
4.66043e-06
4.50988e-06
4.72517e-06
4.59019e-06
4.72112e-06
4.61742e-06
4.75745e-06
4.66265e-06
4.83708e-06
4.76422e-06
4.89283e-06
4.8481e-06
4.97134e-06
4.93393e-06
5.07189e-06
5.06991e-06
5.1423e-06
5.13533e-06
5.26744e-06
5.2866e-06
5.33596e-06
5.51039e-06
5.6786e-06
5.74769e-06
5.82793e-06
6.06511e-06
6.09975e-06
6.06591e-06
6.05795e-06
6.0688e-06
5.99668e-06
5.63618e-06
5.59959e-06
5.16097e-06
5.02418e-06
4.49014e-06
4.45367e-06
4.18396e-06
4.24759e-06
4.07677e-06
4.04768e-06
3.95194e-06
3.6494e-06
3.42542e-06
3.13523e-06
3.14863e-06
3.30134e-06
3.6141e-06
4.51847e-06
6.07915e-06
6.34523e-06
6.66647e-06
5.89031e-06
5.05428e-06
5.70173e-06
5.27366e-06
7.8893e-06
6.34439e-06
9.05747e-06
6.85233e-06
1.56338e-05
1.18124e-05
3.46439e-05
2.33876e-05
2.35992e-05
3.40984e-05
6.34446e-05
5.92621e-05
5.4168e-05
4.73018e-05
4.09543e-05
3.55047e-05
3.03367e-05
2.62064e-05
2.28888e-05
1.97993e-05
1.69252e-05
1.51716e-05
1.51186e-05
1.60304e-05
1.90539e-05
2.56526e-05
3.81141e-05
5.86639e-05
7.35592e-05
9.12351e-05
0.000101445
0.000101697
0.000101438
9.97596e-05
9.78703e-05
9.30958e-05
9.16478e-05
8.82805e-05
8.57775e-05
8.01368e-05
7.54102e-05
6.59447e-05
5.11664e-05
3.84146e-05
2.7623e-05
2.01794e-05
1.38981e-05
1.02858e-05
7.87123e-06
6.0365e-06
5.83409e-06
5.54618e-06
5.04372e-06
5.24055e-06
5.88823e-06
7.31059e-06
1.26091e-05
2.79907e-05
6.08216e-05
8.56825e-05
9.0235e-05