/*--------------------------------*- C++ -*----------------------------------*\
| =========                 |                                                 |
| \\      /  F ield         | OpenFOAM: The Open Source CFD Toolbox           |
|  \\    /   O peration     | Version:  2.4.0                                 |
|   \\  /    A nd           | Web:      www.OpenFOAM.org                      |
|    \\/     M anipulation  |                                                 |
\*---------------------------------------------------------------------------*/
FoamFile
{
    version     2.0;
    format      ascii;
    class       volSymmTensorField;
    location    "0.052";
    object      UPrime2Mean;
}
// * * * * * * * * * * * * * * * * * * * * * * * * * * * * * * * * * * * * * //

dimensions      [0 2 -2 0 0 0 0];

internalField   nonuniform List<symmTensor> 
17600
(
(0.0740407 -0.00802072 0 0.0012165 0 0)
(0.762187 -0.0031746 0 7.13517e-05 0 0)
(0.987114 -8.60082e-05 0 4.85907e-06 0 0)
(1.09273 -0.000816155 0 3.08918e-06 0 0)
(1.16651 -0.000609412 0 1.48142e-06 0 0)
(1.21831 -0.000240966 0 8.49628e-07 0 0)
(1.25277 -6.00167e-05 0 5.58513e-07 0 0)
(1.27866 1.67228e-05 0 3.31081e-07 0 0)
(1.29479 2.4769e-05 0 3.25737e-07 0 0)
(1.31002 -6.54759e-06 0 2.70659e-07 0 0)
(1.31918 -2.43516e-05 0 1.79301e-07 0 0)
(1.33444 -0.000100463 0 2.99686e-07 0 0)
(1.34427 -0.000111857 0 2.76579e-07 0 0)
(1.36527 -0.000234912 0 5.59255e-07 0 0)
(1.38131 -0.000308175 0 6.25963e-07 0 0)
(1.42318 -0.000769596 0 3.87977e-06 0 0)
(1.4663 -0.00131037 0 3.79833e-06 0 0)
(1.64053 0.000886084 0 3.98876e-05 0 0)
(1.91617 -0.0551819 0 0.00232792 0 0)
(3.49451 0.27734 0 0.0346618 0 0)
(0.0363039 0.0161378 0 0.0126119 0 0)
(0.306975 -0.0293631 0 0.00297158 0 0)
(0.615878 -0.0163842 0 0.000443476 0 0)
(0.820952 -0.0114596 0 0.000175905 0 0)
(0.997649 -0.00921605 0 0.000135595 0 0)
(1.16172 -0.00733589 0 0.00012061 0 0)
(1.29239 -0.00551899 0 9.21394e-05 0 0)
(1.40128 -0.00392784 0 5.49755e-05 0 0)
(1.47351 -0.00291313 0 2.89327e-05 0 0)
(1.54338 -0.0023904 0 1.63215e-05 0 0)
(1.5818 -0.00225447 0 8.29841e-06 0 0)
(1.64814 -0.00248278 0 8.01742e-06 0 0)
(1.67909 -0.00282885 0 1.33759e-05 0 0)
(1.76297 -0.00297009 0 1.21679e-05 0 0)
(1.79559 -0.00483711 0 2.60729e-05 0 0)
(1.94634 -0.00444078 0 2.37847e-05 0 0)
(1.95844 -0.0137779 0 0.000140688 0 0)
(2.60397 -0.0197136 0 0.000198548 0 0)
(2.29475 -0.0630795 0 0.00246238 0 0)
(7.1823 -0.851416 0 0.141956 0 0)
(0.126461 0.0478971 0 0.0198041 0 0)
(0.0502286 -0.018502 0 0.00841839 0 0)
(0.212488 -0.0204793 0 0.00215152 0 0)
(0.362586 -0.0192951 0 0.00104808 0 0)
(0.529655 -0.0188227 0 0.000787204 0 0)
(0.722528 -0.0174115 0 0.000690155 0 0)
(0.89846 -0.0146219 0 0.000551247 0 0)
(1.06104 -0.0113216 0 0.000351727 0 0)
(1.17466 -0.00879934 0 0.000202076 0 0)
(1.29096 -0.00722117 0 0.000110686 0 0)
(1.35159 -0.00662271 0 5.59608e-05 0 0)
(1.46466 -0.00711971 0 5.98072e-05 0 0)
(1.5058 -0.0075769 0 6.67855e-05 0 0)
(1.64715 -0.00864066 0 9.06617e-05 0 0)
(1.68093 -0.0116156 0 0.000117559 0 0)
(1.90929 -0.0129618 0 0.000138682 0 0)
(1.92254 -0.0314099 0 0.000552607 0 0)
(2.60831 -0.0384924 0 0.00102595 0 0)
(2.60491 -0.158614 0 0.0139436 0 0)
(5.9536 -1.06073 0 0.310863 0 0)
(0.166924 0.0529606 0 0.0178297 0 0)
(0.00410929 0.00355967 0 0.0130619 0 0)
(0.0282591 -0.00755982 0 0.00468892 0 0)
(0.0644072 -0.0119005 0 0.00276625 0 0)
(0.126659 -0.0163541 0 0.00221953 0 0)
(0.237975 -0.0194439 0 0.00196984 0 0)
(0.367317 -0.0191608 0 0.00164285 0 0)
(0.511924 -0.0165904 0 0.00109895 0 0)
(0.620263 -0.0136309 0 0.000680831 0 0)
(0.74378 -0.0115129 0 0.000369261 0 0)
(0.804003 -0.0109205 0 0.000213024 0 0)
(0.933113 -0.0106187 0 0.000173856 0 0)
(0.968742 -0.0131358 0 0.00024115 0 0)
(1.13069 -0.0104754 0 0.000239986 0 0)
(1.15748 -0.0215343 0 0.000531216 0 0)
(1.38216 -0.00901948 0 0.000368622 0 0)
(1.45148 -0.0560621 0 0.00269409 0 0)
(1.80625 -0.0223562 0 0.0012806 0 0)
(2.43119 -0.277356 0 0.0493493 0 0)
(3.11497 -0.448475 0 0.190201 0 0)
(0.155783 0.0428165 0 0.0125036 0 0)
(0.0147815 0.0134357 0 0.0136029 0 0)
(0.0198721 0.0070289 0 0.00580403 0 0)
(0.0214667 0.00470316 0 0.00421701 0 0)
(0.0127159 0.000139312 0 0.003967 0 0)
(0.0199024 -0.00674429 0 0.00374959 0 0)
(0.0526658 -0.011096 0 0.0032862 0 0)
(0.116165 -0.012985 0 0.00233843 0 0)
(0.172934 -0.0119308 0 0.00151352 0 0)
(0.253579 -0.011448 0 0.000873729 0 0)
(0.290451 -0.0104861 0 0.000470813 0 0)
(0.386166 -0.0121874 0 0.000497402 0 0)
(0.415248 -0.0119331 0 0.000398173 0 0)
(0.525602 -0.0157629 0 0.000687549 0 0)
(0.579273 -0.0140246 0 0.000598171 0 0)
(0.692011 -0.0274169 0 0.00133296 0 0)
(0.816545 -0.0186222 0 0.0014797 0 0)
(0.997267 -0.0907173 0 0.0139756 0 0)
(1.3271 -0.0972486 0 0.0210604 0 0)
(1.93149 -0.623174 0 0.542862 0 0)
(0.14521 0.0348995 0 0.00894406 0 0)
(0.0131099 0.0119011 0 0.0121218 0 0)
(0.0293881 0.0101647 0 0.00496551 0 0)
(0.0550937 0.0129395 0 0.0040207 0 0)
(0.064663 0.0149595 0 0.00464757 0 0)
(0.0479778 0.01128 0 0.0050281 0 0)
(0.0330872 0.00647858 0 0.00480867 0 0)
(0.022387 0.000227405 0 0.00362309 0 0)
(0.0244464 -0.00190451 0 0.00265043 0 0)
(0.0398899 -0.00429041 0 0.00151108 0 0)
(0.043905 -0.00468541 0 0.000974974 0 0)
(0.0805199 -0.0060535 0 0.000807613 0 0)
(0.0850927 -0.00847535 0 0.00102358 0 0)
(0.138579 -0.00763835 0 0.000978881 0 0)
(0.159181 -0.0147795 0 0.00213505 0 0)
(0.222892 -0.00907409 0 0.00148959 0 0)
(0.266176 -0.0325845 0 0.00786477 0 0)
(0.388073 -0.0210454 0 0.00442477 0 0)
(0.498031 -0.137934 0 0.0805439 0 0)
(0.864977 -0.283232 0 0.264366 0 0)
(0.144092 0.0300469 0 0.00667596 0 0)
(0.0089618 0.00887876 0 0.0107612 0 0)
(0.0249882 0.00825302 0 0.00397178 0 0)
(0.0575526 0.0116342 0 0.00293606 0 0)
(0.0914919 0.0174169 0 0.00393902 0 0)
(0.0985988 0.0187868 0 0.00487437 0 0)
(0.106805 0.0185215 0 0.00523174 0 0)
(0.0887853 0.0128017 0 0.00432437 0 0)
(0.0886045 0.0101765 0 0.00318754 0 0)
(0.0681319 0.00574055 0 0.00216492 0 0)
(0.0683898 0.00562917 0 0.00122624 0 0)
(0.050349 0.00275489 0 0.00146522 0 0)
(0.0510856 0.00264397 0 0.000967065 0 0)
(0.0381341 6.09392e-05 0 0.00186448 0 0)
(0.0457929 -4.69223e-05 0 0.00156937 0 0)
(0.0401786 -0.00255005 0 0.00366798 0 0)
(0.0479431 -0.00267645 0 0.00344365 0 0)
(0.0681451 -0.0125608 0 0.0228755 0 0)
(0.0990292 -0.032305 0 0.0360611 0 0)
(0.230391 -0.122388 0 0.365907 0 0)
(0.146719 0.0260859 0 0.00495676 0 0)
(0.00644977 0.00661673 0 0.0094626 0 0)
(0.0199299 0.00649441 0 0.00347452 0 0)
(0.0492556 0.00903499 0 0.00215573 0 0)
(0.0841728 0.0145428 0 0.00298789 0 0)
(0.0979636 0.0173877 0 0.0040563 0 0)
(0.123397 0.0195814 0 0.00462891 0 0)
(0.12237 0.0161235 0 0.00381107 0 0)
(0.144795 0.0146481 0 0.00337422 0 0)
(0.139439 0.0109686 0 0.00216263 0 0)
(0.155826 0.0123637 0 0.00151817 0 0)
(0.145457 0.0096741 0 0.00140781 0 0)
(0.150012 0.0120962 0 0.00174658 0 0)
(0.131057 0.0087356 0 0.00175258 0 0)
(0.127802 0.0125224 0 0.00316288 0 0)
(0.100636 0.00826677 0 0.00285923 0 0)
(0.0839709 0.0173718 0 0.00732393 0 0)
(0.0511432 0.0180298 0 0.0124691 0 0)
(0.0295204 0.0226499 0 0.0624488 0 0)
(0.0455461 0.038895 0 0.387873 0 0)
(0.148503 0.0225115 0 0.00364772 0 0)
(0.00511763 0.00505729 0 0.0078915 0 0)
(0.0160191 0.00511453 0 0.00318302 0 0)
(0.0423097 0.00711813 0 0.00156536 0 0)
(0.0727101 0.0117625 0 0.00222473 0 0)
(0.0864201 0.0145766 0 0.00315763 0 0)
(0.109079 0.0169408 0 0.00392641 0 0)
(0.11468 0.0142377 0 0.00351466 0 0)
(0.140903 0.0135708 0 0.00253257 0 0)
(0.148252 0.0113217 0 0.00194719 0 0)
(0.177178 0.0119013 0 0.00114254 0 0)
(0.180978 0.0127941 0 0.00160133 0 0)
(0.206107 0.0128656 0 0.00118736 0 0)
(0.199019 0.0164609 0 0.00211124 0 0)
(0.215294 0.0154929 0 0.0023427 0 0)
(0.191826 0.022688 0 0.00396148 0 0)
(0.187901 0.0276338 0 0.00534536 0 0)
(0.14329 0.0438272 0 0.0195537 0 0)
(0.116004 0.0724134 0 0.0637466 0 0)
(0.100259 0.120687 0 0.278814 0 0)
(0.149016 0.0191816 0 0.00266498 0 0)
(0.00373051 0.00382238 0 0.00645193 0 0)
(0.0128272 0.00400657 0 0.00295047 0 0)
(0.0369952 0.00563843 0 0.00115298 0 0)
(0.0641168 0.00936145 0 0.00163313 0 0)
(0.0772168 0.0122612 0 0.00249914 0 0)
(0.0948831 0.0143491 0 0.00317148 0 0)
(0.102334 0.012432 0 0.00255446 0 0)
(0.122847 0.0114274 0 0.00236696 0 0)
(0.136648 0.00921413 0 0.00168069 0 0)
(0.158662 0.0107728 0 0.00106367 0 0)
(0.175623 0.010682 0 0.00117602 0 0)
(0.19443 0.0126139 0 0.0012874 0 0)
(0.207426 0.0145598 0 0.00174985 0 0)
(0.218901 0.0168896 0 0.0024318 0 0)
(0.223068 0.023303 0 0.00378723 0 0)
(0.216538 0.0308497 0 0.00591278 0 0)
(0.203571 0.0600716 0 0.0232195 0 0)
(0.17625 0.0825611 0 0.0584561 0 0)
(0.188375 0.190583 0 0.328439 0 0)
(0.149227 0.0162271 0 0.00190922 0 0)
(0.00305427 0.002933 0 0.00515006 0 0)
(0.0107616 0.00313119 0 0.00277116 0 0)
(0.0329057 0.00455561 0 0.00083954 0 0)
(0.0567884 0.00752433 0 0.00118049 0 0)
(0.0703397 0.0104037 0 0.00192173 0 0)
(0.0834057 0.0122325 0 0.00264275 0 0)
(0.0927637 0.0107922 0 0.00245656 0 0)
(0.108167 0.00915288 0 0.00168792 0 0)
(0.124482 0.00836044 0 0.00129621 0 0)
(0.141184 0.00829655 0 0.000756957 0 0)
(0.161447 0.0101823 0 0.00114654 0 0)
(0.174847 0.0100354 0 0.000944953 0 0)
(0.192767 0.0142467 0 0.00146804 0 0)
(0.19998 0.0149973 0 0.00201812 0 0)
(0.21207 0.0222589 0 0.00317613 0 0)
(0.205993 0.0326928 0 0.00608472 0 0)
(0.204778 0.0555224 0 0.0195251 0 0)
(0.185853 0.0942705 0 0.0659812 0 0)
(0.211726 0.198873 0 0.273616 0 0)
(0.149454 0.0135847 0 0.00135923 0 0)
(0.00259516 0.00214837 0 0.00402348 0 0)
(0.00921735 0.00226897 0 0.00255698 0 0)
(0.0293563 0.00352585 0 0.000576279 0 0)
(0.0510956 0.00590956 0 0.000834821 0 0)
(0.064382 0.00865226 0 0.00147038 0 0)
(0.0747351 0.0103786 0 0.00209509 0 0)
(0.0843327 0.0091523 0 0.00170807 0 0)
(0.0969961 0.00796124 0 0.00146047 0 0)
(0.113421 0.00660743 0 0.00119973 0 0)
(0.128039 0.00737732 0 0.000668445 0 0)
(0.147689 0.00832529 0 0.000855113 0 0)
(0.159886 0.00893706 0 0.000846095 0 0)
(0.177058 0.0125665 0 0.001349 0 0)
(0.18382 0.0133177 0 0.00170292 0 0)
(0.196007 0.0230628 0 0.00373595 0 0)
(0.192135 0.0294978 0 0.00556056 0 0)
(0.195047 0.0599425 0 0.0229901 0 0)
(0.184161 0.0949268 0 0.063351 0 0)
(0.217476 0.199337 0 0.255515 0 0)
(0.149956 0.0113114 0 0.000955728 0 0)
(0.00231016 0.00155744 0 0.00306898 0 0)
(0.00825049 0.00165985 0 0.00230563 0 0)
(0.0263208 0.00280566 0 0.000433756 0 0)
(0.0467416 0.00466969 0 0.000594411 0 0)
(0.059015 0.00713641 0 0.00108604 0 0)
(0.068125 0.00877727 0 0.00166274 0 0)
(0.0767245 0.00775678 0 0.00153351 0 0)
(0.088536 0.00647152 0 0.00107497 0 0)
(0.103785 0.00567056 0 0.000841839 0 0)
(0.118023 0.00591342 0 0.000485487 0 0)
(0.136201 0.00744051 0 0.000766474 0 0)
(0.147999 0.00765035 0 0.000705052 0 0)
(0.164434 0.0109562 0 0.00101086 0 0)
(0.17077 0.0125823 0 0.00149436 0 0)
(0.183627 0.0201017 0 0.00290718 0 0)
(0.181513 0.0300105 0 0.00577259 0 0)
(0.188173 0.0582461 0 0.0219564 0 0)
(0.183264 0.095509 0 0.061783 0 0)
(0.22779 0.204538 0 0.23849 0 0)
(0.150373 0.00928072 0 0.000654923 0 0)
(0.00215467 0.0010998 0 0.00225831 0 0)
(0.00760271 0.00107989 0 0.00185561 0 0)
(0.0238559 0.00220292 0 0.000301831 0 0)
(0.0431392 0.00365553 0 0.000406313 0 0)
(0.0547069 0.00579717 0 0.000786304 0 0)
(0.062613 0.00730412 0 0.00124527 0 0)
(0.0706159 0.00640265 0 0.00104453 0 0)
(0.0814864 0.00545366 0 0.00080034 0 0)
(0.0960438 0.00451854 0 0.000755917 0 0)
(0.109729 0.00495993 0 0.000402092 0 0)
(0.126755 0.00627321 0 0.000580427 0 0)
(0.138611 0.00642838 0 0.000556879 0 0)
(0.153854 0.0100283 0 0.000948189 0 0)
(0.160859 0.0110935 0 0.00122436 0 0)
(0.173345 0.0200183 0 0.00304214 0 0)
(0.174196 0.0289289 0 0.00554454 0 0)
(0.18293 0.0575511 0 0.0216437 0 0)
(0.185962 0.0971425 0 0.0608124 0 0)
(0.235548 0.204916 0 0.218527 0 0)
(0.150698 0.00745718 0 0.000440085 0 0)
(0.00207859 0.000766001 0 0.00162818 0 0)
(0.00720172 0.000671996 0 0.00139557 0 0)
(0.0219245 0.00176124 0 0.000250436 0 0)
(0.0403073 0.00284938 0 0.000302281 0 0)
(0.0512539 0.00463185 0 0.000558583 0 0)
(0.0583226 0.00599712 0 0.00092687 0 0)
(0.0656598 0.00522417 0 0.000840418 0 0)
(0.0759573 0.00435903 0 0.000593609 0 0)
(0.0897705 0.00365795 0 0.000522639 0 0)
(0.103181 0.0040429 0 0.000299242 0 0)
(0.119198 0.00528465 0 0.000483675 0 0)
(0.131035 0.00553475 0 0.000483459 0 0)
(0.145562 0.00852135 0 0.000727634 0 0)
(0.15298 0.0103099 0 0.00105277 0 0)
(0.165722 0.01863 0 0.00272275 0 0)
(0.168759 0.0281569 0 0.00545902 0 0)
(0.180618 0.0569471 0 0.0212908 0 0)
(0.190021 0.0978772 0 0.0588449 0 0)
(0.246771 0.203399 0 0.199044 0 0)
(0.150944 0.00584981 0 0.000280667 0 0)
(0.00204006 0.00051981 0 0.00108373 0 0)
(0.00696963 0.000371189 0 0.000939691 0 0)
(0.0204339 0.00137008 0 0.000171209 0 0)
(0.0380615 0.00218323 0 0.000196241 0 0)
(0.0485418 0.00358842 0 0.000365287 0 0)
(0.0549745 0.0047875 0 0.000631135 0 0)
(0.0617689 0.00412891 0 0.000539036 0 0)
(0.0716028 0.0034991 0 0.000378234 0 0)
(0.0847949 0.00287781 0 0.000413 0 0)
(0.0980724 0.0031816 0 0.000233423 0 0)
(0.113239 0.0044365 0 0.00035749 0 0)
(0.125151 0.00458885 0 0.00035229 0 0)
(0.139085 0.00754699 0 0.000598819 0 0)
(0.147061 0.00932995 0 0.000861026 0 0)
(0.160113 0.0175885 0 0.00247529 0 0)
(0.165478 0.0274731 0 0.00523305 0 0)
(0.180226 0.0562533 0 0.0205105 0 0)
(0.19633 0.098066 0 0.05594 0 0)
(0.260209 0.202285 0 0.180839 0 0)
(0.151106 0.00439861 0 0.000174608 0 0)
(0.00203527 0.000335381 0 0.000678482 0 0)
(0.0068552 0.000182663 0 0.000604464 0 0)
(0.0193281 0.00102902 0 0.000136535 0 0)
(0.0363187 0.00159949 0 0.000150117 0 0)
(0.0465108 0.00264429 0 0.000239722 0 0)
(0.0524078 0.00365642 0 0.000415335 0 0)
(0.0588302 0.00311918 0 0.000370571 0 0)
(0.06827 0.0026204 0 0.000259831 0 0)
(0.0810661 0.00215688 0 0.00028742 0 0)
(0.0941505 0.00244397 0 0.000171099 0 0)
(0.108727 0.00357891 0 0.000277261 0 0)
(0.120722 0.00371415 0 0.000298373 0 0)
(0.134229 0.00650241 0 0.000495708 0 0)
(0.142841 0.00839838 0 0.000706646 0 0)
(0.15629 0.0166471 0 0.00226073 0 0)
(0.16386 0.0267579 0 0.00500105 0 0)
(0.181634 0.0553313 0 0.0195175 0 0)
(0.20437 0.0977212 0 0.0528676 0 0)
(0.271986 0.199614 0 0.164108 0 0)
(0.151218 0.00307455 0 9.75124e-05 0 0)
(0.00204117 0.000199387 0 0.000362774 0 0)
(0.00680499 6.41573e-05 0 0.000330461 0 0)
(0.0185442 0.000706003 0 8.68003e-05 0 0)
(0.035054 0.0011051 0 9.75444e-05 0 0)
(0.0450426 0.00178762 0 0.000136322 0 0)
(0.0505698 0.00260457 0 0.000238789 0 0)
(0.0566969 0.00217257 0 0.000208477 0 0)
(0.0658776 0.0018662 0 0.000143357 0 0)
(0.0783425 0.00152277 0 0.000189686 0 0)
(0.0913421 0.00173724 0 0.000127685 0 0)
(0.10549 0.00279394 0 0.000193154 0 0)
(0.117562 0.0029778 0 0.000209824 0 0)
(0.130825 0.0054914 0 0.000374367 0 0)
(0.140161 0.00759458 0 0.000579895 0 0)
(0.154 0.0156366 0 0.00200154 0 0)
(0.163751 0.0260587 0 0.00473216 0 0)
(0.184924 0.0541023 0 0.0183242 0 0)
(0.21316 0.0971117 0 0.0495043 0 0)
(0.285128 0.195711 0 0.146894 0 0)
(0.15128 0.00183628 0 5.35823e-05 0 0)
(0.00204895 9.8016e-05 0 0.000169773 0 0)
(0.00678691 8.86197e-06 0 0.000159695 0 0)
(0.0180422 0.000404725 0 6.6016e-05 0 0)
(0.0342181 0.000663389 0 8.22838e-05 0 0)
(0.0440991 0.00099066 0 8.68235e-05 0 0)
(0.0493761 0.00160591 0 0.000131484 0 0)
(0.0553048 0.00126557 0 0.000120958 0 0)
(0.0643253 0.00112646 0 9.42904e-05 0 0)
(0.0765788 0.000894971 0 0.000129751 0 0)
(0.0895564 0.00108008 0 0.000101069 0 0)
(0.103419 0.00203164 0 0.000141064 0 0)
(0.115586 0.00219753 0 0.000163903 0 0)
(0.128794 0.00456356 0 0.000293481 0 0)
(0.138878 0.0067254 0 0.000467255 0 0)
(0.153048 0.0146783 0 0.0017644 0 0)
(0.165329 0.0251618 0 0.00439232 0 0)
(0.189715 0.0528464 0 0.0170403 0 0)
(0.222386 0.096036 0 0.0456603 0 0)
(0.301173 0.191557 0 0.131595 0 0)
(0.151296 0.000651141 0 2.97249e-05 0 0)
(0.00205357 1.5083e-05 0 7.00518e-05 0 0)
(0.00678068 -1.70202e-05 0 6.14586e-05 0 0)
(0.017799 0.000107645 0 4.88061e-05 0 0)
(0.0337998 0.000258836 0 6.54971e-05 0 0)
(0.0436458 0.000235525 0 6.01179e-05 0 0)
(0.0487868 0.000625307 0 6.9093e-05 0 0)
(0.0546208 0.000388487 0 7.15633e-05 0 0)
(0.0635717 0.00042004 0 6.89637e-05 0 0)
(0.0757156 0.000321003 0 8.47152e-05 0 0)
(0.088725 0.000446683 0 8.32804e-05 0 0)
(0.102449 0.00128127 0 0.00010004 0 0)
(0.114741 0.00147267 0 0.000116901 0 0)
(0.128081 0.0036415 0 0.000222326 0 0)
(0.138825 0.00588107 0 0.000378248 0 0)
(0.153539 0.0136971 0 0.00152606 0 0)
(0.168542 0.0242116 0 0.00403511 0 0)
(0.195524 0.0514618 0 0.0156336 0 0)
(0.232911 0.0944662 0 0.041718 0 0)
(0.319105 0.186101 0 0.117101 0 0)
(0.151269 -0.000515473 0 3.01469e-05 0 0)
(0.00205119 -6.05428e-05 0 7.87945e-05 0 0)
(0.00677615 -2.68086e-05 0 5.6024e-05 0 0)
(0.0177998 -0.000184445 0 5.78151e-05 0 0)
(0.0337878 -0.000132087 0 7.24186e-05 0 0)
(0.0436587 -0.000514106 0 7.14601e-05 0 0)
(0.0487858 -0.000337106 0 6.76412e-05 0 0)
(0.0546114 -0.000495996 0 8.02595e-05 0 0)
(0.06359 -0.000278591 0 8.87611e-05 0 0)
(0.075712 -0.00027406 0 7.25956e-05 0 0)
(0.0888394 -0.000174391 0 8.47735e-05 0 0)
(0.102521 0.000517864 0 8.24478e-05 0 0)
(0.115034 0.000751222 0 9.33784e-05 0 0)
(0.128614 0.00269378 0 0.000174111 0 0)
(0.139932 0.00504325 0 0.000318161 0 0)
(0.155631 0.0125946 0 0.00130901 0 0)
(0.173099 0.0231699 0 0.00366616 0 0)
(0.202164 0.0498601 0 0.0141147 0 0)
(0.245868 0.0922582 0 0.0376552 0 0)
(0.338576 0.179787 0 0.10315 0 0)
(0.151199 -0.00170389 0 5.1187e-05 0 0)
(0.00204151 -0.000144148 0 0.000186096 0 0)
(0.00677226 -4.90769e-05 0 0.000133884 0 0)
(0.0180462 -0.000482248 0 8.2968e-05 0 0)
(0.0341806 -0.000541339 0 8.92269e-05 0 0)
(0.0441444 -0.00126882 0 0.000112571 0 0)
(0.0493632 -0.00131449 0 0.000119229 0 0)
(0.0552879 -0.00138039 0 0.000139351 0 0)
(0.0643701 -0.000984006 0 0.000142219 0 0)
(0.0765845 -0.000869187 0 8.6769e-05 0 0)
(0.089883 -0.000788316 0 9.64177e-05 0 0)
(0.103647 -0.000250977 0 8.20156e-05 0 0)
(0.116476 2.33886e-05 0 7.98091e-05 0 0)
(0.130334 0.00174437 0 0.000141422 0 0)
(0.142318 0.00417934 0 0.000275819 0 0)
(0.159344 0.0114274 0 0.00110713 0 0)
(0.178667 0.0220659 0 0.00327314 0 0)
(0.210421 0.0480245 0 0.0125597 0 0)
(0.260986 0.089384 0 0.0336186 0 0)
(0.357183 0.173066 0 0.0904137 0 0)
(0.151084 -0.00294508 0 9.62441e-05 0 0)
(0.00202886 -0.000247498 0 0.000397094 0 0)
(0.00678071 -0.000100591 0 0.000296838 0 0)
(0.0185517 -0.000787093 0 0.00012208 0 0)
(0.0349876 -0.000986986 0 0.000120529 0 0)
(0.0451213 -0.00206267 0 0.000187217 0 0)
(0.0505438 -0.00231848 0 0.000225671 0 0)
(0.0566736 -0.0022893 0 0.000249889 0 0)
(0.0659414 -0.00171526 0 0.000232378 0 0)
(0.0783584 -0.00149443 0 0.000131571 0 0)
(0.0918818 -0.00142145 0 0.000123548 0 0)
(0.105869 -0.00105399 0 0.000105342 0 0)
(0.119098 -0.000725607 0 8.21404e-05 0 0)
(0.133238 0.000755069 0 0.000132675 0 0)
(0.1462 0.0032739 0 0.000258691 0 0)
(0.164465 0.0101782 0 0.000932069 0 0)
(0.185343 0.0208838 0 0.00287339 0 0)
(0.221027 0.0457821 0 0.0110113 0 0)
(0.277236 0.0860021 0 0.0296147 0 0)
(0.375019 0.166101 0 0.0782568 0 0)
(0.15092 -0.00427676 0 0.000169837 0 0)
(0.00201897 -0.000386683 0 0.000715857 0 0)
(0.00682068 -0.000207307 0 0.000548361 0 0)
(0.0193419 -0.00110944 0 0.000170569 0 0)
(0.0362277 -0.001493 0 0.000167871 0 0)
(0.0466261 -0.00291712 0 0.000300078 0 0)
(0.0523679 -0.00337602 0 0.000390553 0 0)
(0.058816 -0.00324958 0 0.000412898 0 0)
(0.0683623 -0.00248867 0 0.000358168 0 0)
(0.0810798 -0.00216612 0 0.000205723 0 0)
(0.0949021 -0.00208736 0 0.000165348 0 0)
(0.109259 -0.00190906 0 0.000152283 0 0)
(0.122926 -0.0015036 0 9.91851e-05 0 0)
(0.137486 -0.000322027 0 0.000152318 0 0)
(0.151651 0.00233742 0 0.000263943 0 0)
(0.170808 0.00881059 0 0.000786481 0 0)
(0.193857 0.0195543 0 0.00249074 0 0)
(0.2337 0.0431112 0 0.00948022 0 0)
(0.2937 0.0823628 0 0.0256805 0 0)
(0.395986 0.158518 0 0.0668866 0 0)
(0.150698 -0.0057329 0 0.000278348 0 0)
(0.00202296 -0.000575378 0 0.00114337 0 0)
(0.00692538 -0.000389718 0 0.000889094 0 0)
(0.0204585 -0.00145799 0 0.000226195 0 0)
(0.0379304 -0.00207684 0 0.000234294 0 0)
(0.0487155 -0.00385496 0 0.00045203 0 0)
(0.0548986 -0.00450789 0 0.000611831 0 0)
(0.0617918 -0.0042724 0 0.000624847 0 0)
(0.071709 -0.00332534 0 0.000516975 0 0)
(0.0848342 -0.00289874 0 0.00030795 0 0)
(0.0990418 -0.00280685 0 0.000220913 0 0)
(0.113915 -0.0028206 0 0.000220181 0 0)
(0.128041 -0.0023344 0 0.000128987 0 0)
(0.143311 -0.00149129 0 0.00019886 0 0)
(0.158573 0.00135335 0 0.000284719 0 0)
(0.178648 0.00732466 0 0.000671927 0 0)
(0.204662 0.0180001 0 0.00213916 0 0)
(0.247628 0.0401619 0 0.0079876 0 0)
(0.311622 0.0782937 0 0.0218743 0 0)
(0.420753 0.149904 0 0.056473 0 0)
(0.150406 -0.00735232 0 0.000433368 0 0)
(0.00205596 -0.000831532 0 0.00168317 0 0)
(0.00713957 -0.000673307 0 0.00131846 0 0)
(0.0219557 -0.00184846 0 0.000290082 0 0)
(0.0401402 -0.0027618 0 0.000326326 0 0)
(0.0514672 -0.00489018 0 0.00064901 0 0)
(0.0582207 -0.00573774 0 0.000893869 0 0)
(0.0657133 -0.00536645 0 0.000883962 0 0)
(0.0760776 -0.00425732 0 0.000717272 0 0)
(0.0897573 -0.00370147 0 0.000440542 0 0)
(0.104415 -0.0036125 0 0.000295219 0 0)
(0.119983 -0.00379897 0 0.000311651 0 0)
(0.134615 -0.00324693 0 0.00017317 0 0)
(0.150888 -0.00277757 0 0.000279012 0 0)
(0.166966 0.000311593 0 0.000317707 0 0)
(0.188677 0.00563175 0 0.000604938 0 0)
(0.217463 0.0162694 0 0.00181848 0 0)
(0.262797 0.0369198 0 0.00655431 0 0)
(0.332867 0.0734571 0 0.0182782 0 0)
(0.447943 0.140395 0 0.0469338 0 0)
(0.150038 -0.00918309 0 0.000651472 0 0)
(0.00213992 -0.00117559 0 0.00233806 0 0)
(0.00752192 -0.00107938 0 0.00180753 0 0)
(0.0239037 -0.00230253 0 0.000367912 0 0)
(0.0429292 -0.00357691 0 0.00045079 0 0)
(0.0549925 -0.00604417 0 0.0008941 0 0)
(0.0624584 -0.00707266 0 0.00123365 0 0)
(0.0707374 -0.00655015 0 0.00118678 0 0)
(0.0816077 -0.00529433 0 0.000956807 0 0)
(0.096036 -0.00459797 0 0.000598348 0 0)
(0.111187 -0.00451378 0 0.000383235 0 0)
(0.127695 -0.00485799 0 0.000422811 0 0)
(0.142905 -0.00425202 0 0.000233677 0 0)
(0.160353 -0.00419864 0 0.000394961 0 0)
(0.177244 -0.000778234 0 0.000360569 0 0)
(0.201258 0.00365451 0 0.000593041 0 0)
(0.231896 0.0145042 0 0.00152257 0 0)
(0.28066 0.0331147 0 0.00522491 0 0)
(0.357284 0.0679024 0 0.0149899 0 0)
(0.477042 0.130094 0 0.0381196 0 0)
(0.149655 -0.0112337 0 0.000950305 0 0)
(0.00230125 -0.00164428 0 0.00314039 0 0)
(0.00814734 -0.00161899 0 0.00224674 0 0)
(0.0263855 -0.00287771 0 0.000479012 0 0)
(0.0464514 -0.00459083 0 0.000626594 0 0)
(0.0594272 -0.00736393 0 0.00119958 0 0)
(0.067828 -0.0085472 0 0.00163468 0 0)
(0.0770321 -0.0078585 0 0.00153532 0 0)
(0.0885349 -0.00646654 0 0.00123385 0 0)
(0.103869 -0.00562143 0 0.000779662 0 0)
(0.119645 -0.00553929 0 0.000487888 0 0)
(0.137312 -0.0060297 0 0.000554944 0 0)
(0.153239 -0.00537625 0 0.000309858 0 0)
(0.171915 -0.00575998 0 0.000545148 0 0)
(0.190044 -0.00198747 0 0.00041584 0 0)
(0.216203 0.00143444 0 0.000636729 0 0)
(0.248609 0.0126383 0 0.00126673 0 0)
(0.302084 0.0286149 0 0.00405619 0 0)
(0.384181 0.061792 0 0.0120006 0 0)
(0.509263 0.118706 0 0.0300068 0 0)
(0.1495 -0.0135577 0 0.0013565 0 0)
(0.00256197 -0.00226102 0 0.00411435 0 0)
(0.00913133 -0.00229668 0 0.00254493 0 0)
(0.0293543 -0.00362945 0 0.00064643 0 0)
(0.050886 -0.00589179 0 0.000880191 0 0)
(0.0646429 -0.00887118 0 0.00157805 0 0)
(0.0745499 -0.0102192 0 0.00210873 0 0)
(0.0844622 -0.00927364 0 0.00192037 0 0)
(0.097126 -0.00785985 0 0.00156643 0 0)
(0.113215 -0.00674948 0 0.000980979 0 0)
(0.130126 -0.00680848 0 0.000631104 0 0)
(0.148853 -0.00726334 0 0.000696436 0 0)
(0.165932 -0.0067606 0 0.000417019 0 0)
(0.185763 -0.00737524 0 0.000719901 0 0)
(0.205712 -0.00348384 0 0.000498321 0 0)
(0.233425 -0.000863272 0 0.000733722 0 0)
(0.268882 0.0103877 0 0.0010531 0 0)
(0.326547 0.0236718 0 0.00309855 0 0)
(0.413916 0.0550413 0 0.00926191 0 0)
(0.545987 0.105627 0 0.0226925 0 0)
(0.14996 -0.0162691 0 0.00191657 0 0)
(0.00300307 -0.00300973 0 0.0052469 0 0)
(0.0107164 -0.00315459 0 0.00275832 0 0)
(0.0326716 -0.00454995 0 0.000884833 0 0)
(0.0567236 -0.00751574 0 0.00122882 0 0)
(0.0702934 -0.0105302 0 0.00203473 0 0)
(0.0834148 -0.0121247 0 0.00264463 0 0)
(0.0925892 -0.0107381 0 0.00234015 0 0)
(0.108472 -0.00953326 0 0.00195022 0 0)
(0.123702 -0.00796504 0 0.00120826 0 0)
(0.143983 -0.00834222 0 0.000807266 0 0)
(0.161898 -0.00857427 0 0.000850206 0 0)
(0.182513 -0.00840612 0 0.000555003 0 0)
(0.201604 -0.00908779 0 0.000925029 0 0)
(0.22557 -0.00516726 0 0.000590123 0 0)
(0.252891 -0.00340101 0 0.000908573 0 0)
(0.293607 0.00801387 0 0.000870706 0 0)
(0.351985 0.0181482 0 0.00235162 0 0)
(0.446056 0.048003 0 0.00691681 0 0)
(0.582953 0.0890928 0 0.015941 0 0)
(0.150725 -0.0193664 0 0.00267314 0 0)
(0.00395763 -0.00391355 0 0.00654394 0 0)
(0.0132933 -0.00425003 0 0.00297572 0 0)
(0.0364981 -0.00564412 0 0.00120377 0 0)
(0.0646877 -0.0095335 0 0.00168585 0 0)
(0.0764721 -0.01235 0 0.00258539 0 0)
(0.0958411 -0.0144233 0 0.00324914 0 0)
(0.101251 -0.0122304 0 0.00281553 0 0)
(0.12472 -0.0116901 0 0.00239734 0 0)
(0.134639 -0.00923583 0 0.00146877 0 0)
(0.16373 -0.0103068 0 0.00102711 0 0)
(0.174726 -0.00991989 0 0.00102745 0 0)
(0.205171 -0.0104528 0 0.000733991 0 0)
(0.21544 -0.010702 0 0.00115717 0 0)
(0.249388 -0.00710128 0 0.000707308 0 0)
(0.266061 -0.0058656 0 0.00113402 0 0)
(0.315316 0.00568239 0 0.000736965 0 0)
(0.360393 0.0122191 0 0.00180041 0 0)
(0.459388 0.0406876 0 0.00509105 0 0)
(0.581858 0.0681317 0 0.0100344 0 0)
(0.149992 -0.0226876 0 0.00366268 0 0)
(0.00553808 -0.00511778 0 0.00800844 0 0)
(0.0168049 -0.00550004 0 0.00322385 0 0)
(0.0415142 -0.00705589 0 0.00162538 0 0)
(0.0745369 -0.0119769 0 0.00227785 0 0)
(0.0848968 -0.0145402 0 0.00326669 0 0)
(0.111797 -0.0172057 0 0.00395748 0 0)
(0.112066 -0.0139692 0 0.0033819 0 0)
(0.144854 -0.0142926 0 0.00291646 0 0)
(0.14479 -0.010514 0 0.00176056 0 0)
(0.183896 -0.0125128 0 0.00130061 0 0)
(0.179152 -0.0108597 0 0.0012158 0 0)
(0.218823 -0.0123561 0 0.000952998 0 0)
(0.206569 -0.010995 0 0.00136028 0 0)
(0.246726 -0.00838426 0 0.000842644 0 0)
(0.234943 -0.00632513 0 0.00128915 0 0)
(0.284894 0.00386724 0 0.000647952 0 0)
(0.295247 0.00777766 0 0.00142482 0 0)
(0.38432 0.0325714 0 0.00373834 0 0)
(0.464702 0.0446359 0 0.00566616 0 0)
(0.14713 -0.0261662 0 0.00495393 0 0)
(0.00730068 -0.00677199 0 0.00952165 0 0)
(0.0207894 -0.00679718 0 0.00351735 0 0)
(0.0484968 -0.00902019 0 0.00219173 0 0)
(0.0854043 -0.0147927 0 0.00303444 0 0)
(0.0968145 -0.0172919 0 0.00409789 0 0)
(0.125709 -0.019835 0 0.00472357 0 0)
(0.119931 -0.015548 0 0.0040011 0 0)
(0.149305 -0.0156042 0 0.00337852 0 0)
(0.134589 -0.0104739 0 0.00200256 0 0)
(0.164168 -0.0124169 0 0.00150531 0 0)
(0.13908 -0.00909638 0 0.00130785 0 0)
(0.164514 -0.0106993 0 0.00108383 0 0)
(0.131451 -0.00692665 0 0.00137618 0 0)
(0.155461 -0.00602619 0 0.000852451 0 0)
(0.126853 -0.00214786 0 0.00124647 0 0)
(0.15811 0.00330262 0 0.000518914 0 0)
(0.150959 0.0070189 0 0.00115486 0 0)
(0.212647 0.021973 0 0.00265366 0 0)
(0.262364 0.0247503 0 0.00317907 0 0)
(0.144323 -0.0300426 0 0.00666206 0 0)
(0.00959292 -0.00897568 0 0.0108235 0 0)
(0.025668 -0.00842592 0 0.00399978 0 0)
(0.0572699 -0.011643 0 0.00298858 0 0)
(0.0925306 -0.0175004 0 0.0039686 0 0)
(0.0980054 -0.01869 0 0.00491997 0 0)
(0.10846 -0.0185995 0 0.00525657 0 0)
(0.0876493 -0.0124513 0 0.0043078 0 0)
(0.09056 -0.0106252 0 0.00340125 0 0)
(0.0675058 -0.00515077 0 0.00193383 0 0)
(0.0696816 -0.00594329 0 0.00138747 0 0)
(0.0521359 -0.00203429 0 0.00113291 0 0)
(0.0521166 -0.00295447 0 0.000938135 0 0)
(0.0457532 0.0014206 0 0.00112002 0 0)
(0.0469519 3.52351e-06 0 0.000668388 0 0)
(0.0551269 0.00425973 0 0.000982145 0 0)
(0.0596623 0.00275752 0 0.000378598 0 0)
(0.0820259 0.00733164 0 0.000870159 0 0)
(0.104309 0.00832926 0 0.0019401 0 0)
(0.148919 0.0116225 0 0.00186906 0 0)
(0.145318 -0.0348912 0 0.00892968 0 0)
(0.0134662 -0.0119515 0 0.0121468 0 0)
(0.0297867 -0.0102298 0 0.00498073 0 0)
(0.0550726 -0.0129055 0 0.00404008 0 0)
(0.0653448 -0.0150198 0 0.00465949 0 0)
(0.0478402 -0.0111589 0 0.00503012 0 0)
(0.0338254 -0.00653485 0 0.00483036 0 0)
(0.0222617 -1.60818e-06 0 0.00368498 0 0)
(0.0243823 0.00174295 0 0.00265174 0 0)
(0.0397807 0.00461111 0 0.00141716 0 0)
(0.0418889 0.00403275 0 0.000954169 0 0)
(0.0819165 0.00647914 0 0.000749454 0 0)
(0.0748832 0.00578249 0 0.000626886 0 0)
(0.14176 0.00845122 0 0.00072991 0 0)
(0.124385 0.00512106 0 0.000424522 0 0)
(0.205028 0.00793083 0 0.000639757 0 0)
(0.177039 0.000304063 0 0.000269643 0 0)
(0.245862 0.00573332 0 0.000552376 0 0)
(0.219584 -0.00629053 0 0.00145972 0 0)
(0.249095 0.001902 0 0.00116044 0 0)
(0.155836 -0.0427873 0 0.012482 0 0)
(0.0150135 -0.0134751 0 0.0136235 0 0)
(0.0200632 -0.00706149 0 0.00580952 0 0)
(0.0215776 -0.00467304 0 0.00423106 0 0)
(0.0129119 -0.000165225 0 0.00397118 0 0)
(0.0202597 0.00680326 0 0.00375023 0 0)
(0.052422 0.0110627 0 0.00329293 0 0)
(0.117065 0.0131316 0 0.00233893 0 0)
(0.170859 0.0119096 0 0.00155766 0 0)
(0.254694 0.0111772 0 0.000795047 0 0)
(0.283715 0.0101792 0 0.000503585 0 0)
(0.388353 0.010832 0 0.00039766 0 0)
(0.389048 0.0100958 0 0.000338171 0 0)
(0.523967 0.0107124 0 0.00039443 0 0)
(0.492097 0.00675784 0 0.000222764 0 0)
(0.635065 0.00724576 0 0.000352239 0 0)
(0.569119 -0.00294629 0 0.000168555 0 0)
(0.66609 0.00198566 0 0.000327665 0 0)
(0.589393 -0.0176019 0 0.00101662 0 0)
(0.564578 -0.00467011 0 0.00116706 0 0)
(0.166967 -0.0529416 0 0.0178115 0 0)
(0.00421869 -0.00359273 0 0.0130774 0 0)
(0.0282535 0.00754648 0 0.00469126 0 0)
(0.0645592 0.0119293 0 0.00277341 0 0)
(0.126567 0.0163545 0 0.00222115 0 0)
(0.238433 0.0194521 0 0.00196697 0 0)
(0.366617 0.0191448 0 0.00164209 0 0)
(0.512987 0.0166609 0 0.0011053 0 0)
(0.61781 0.0135451 0 0.000692186 0 0)
(0.744007 0.0112494 0 0.000342286 0 0)
(0.796482 0.0101711 0 0.000201828 0 0)
(0.929024 0.00998909 0 0.000167353 0 0)
(0.940987 0.00922617 0 0.000142995 0 0)
(1.09872 0.00875607 0 0.000170278 0 0)
(1.06179 0.00517515 0 9.26763e-05 0 0)
(1.22111 0.00407449 0 0.00015506 0 0)
(1.12463 -0.00509364 0 9.22901e-05 0 0)