/*--------------------------------*- C++ -*----------------------------------*\
| =========                 |                                                 |
| \\      /  F ield         | OpenFOAM: The Open Source CFD Toolbox           |
|  \\    /   O peration     | Version:  2.4.0                                 |
|   \\  /    A nd           | Web:      www.OpenFOAM.org                      |
|    \\/     M anipulation  |                                                 |
\*---------------------------------------------------------------------------*/
FoamFile
{
    version     2.0;
    format      ascii;
    class       volScalarField;
    location    "0.032";
    object      nut;
}
// * * * * * * * * * * * * * * * * * * * * * * * * * * * * * * * * * * * * * //

dimensions      [0 2 -1 0 0 0 0];

internalField   nonuniform List<scalar> 
17600
(
0.00010783
0.00012451
0.000135993
0.000143228
0.000147274
0.000149058
0.000149311
0.000148581
0.000147258
0.00014561
0.000143819
0.000142008
0.000140254
0.000138609
0.000137101
0.000135747
0.00013455
0.000133508
0.000132594
0.000131943
0.000329173
0.000212655
0.000162185
0.000135859
0.000121229
0.000113025
0.000108733
0.000107058
0.000107297
0.000109044
0.000112052
0.000116154
0.000121214
0.000127106
0.000133694
0.000140824
0.000148331
0.000156032
0.000163802
0.000169334
0.000659514
0.000505622
0.00040084
0.00032864
0.000277965
0.000241565
0.000214854
0.000194962
0.000180059
0.00016896
0.000160877
0.000155278
0.000151798
0.000150182
0.00015024
0.000151821
0.00015479
0.000159007
0.000164284
0.000169489
0.000798066
0.000719143
0.00063947
0.00056817
0.000507728
0.000457531
0.000415971
0.000381393
0.000352383
0.00032782
0.000306842
0.000288802
0.000273225
0.000259768
0.000248195
0.000238347
0.000230117
0.000223422
0.000218075
0.000213279
0.000836034
0.000805282
0.000764926
0.000720394
0.000675859
0.00063374
0.000595093
0.000560167
0.000528802
0.000500651
0.000475312
0.000452389
0.000431526
0.000412412
0.000394791
0.000378455
0.000363241
0.000349002
0.000335473
0.000322045
0.000845497
0.000833333
0.000815252
0.00079227
0.000766099
0.00073842
0.000710526
0.000683284
0.000657206
0.000632541
0.000609366
0.00058765
0.000567297
0.000548181
0.000530159
0.000513083
0.000496806
0.000481162
0.000465878
0.00045055
0.000847815
0.000841759
0.000833143
0.000821665
0.000807553
0.000791359
0.000773738
0.000755307
0.000736576
0.000717928
0.000699629
0.000681849
0.000664678
0.000648153
0.000632268
0.000616986
0.000602246
0.000587951
0.000573926
0.000559967
0.000848382
0.000844198
0.000839116
0.000832753
0.00082492
0.000815628
0.000805039
0.000793398
0.00078098
0.000768049
0.000754836
0.000741529
0.000728273
0.000715173
0.000702297
0.000689682
0.000677339
0.000665244
0.000653318
0.000641499
0.00084852
0.000844889
0.000841035
0.000836725
0.000831764
0.000826029
0.000819477
0.000812136
0.00080409
0.000795449
0.000786339
0.000776884
0.000767197
0.000757376
0.0007475
0.000737631
0.00072781
0.000718054
0.000708345
0.0006987
0.000848553
0.000845082
0.000841635
0.000838096
0.000834345
0.000830269
0.000825787
0.000820851
0.000815449
0.000809597
0.000803335
0.000796714
0.000789795
0.000782638
0.0007753
0.000767833
0.000760278
0.000752663
0.000744997
0.000737331
0.00084856
0.000845133
0.000841817
0.000838556
0.000835284
0.000831931
0.000828429
0.000824725
0.000820777
0.000816563
0.000812077
0.000807325
0.000802325
0.0007971
0.00079168
0.000786094
0.000780368
0.000774526
0.000768581
0.000762593
0.00084856
0.000845146
0.000841871
0.000838706
0.000835616
0.000832561
0.000829497
0.000826382
0.000823178
0.000819856
0.000816392
0.000812773
0.000808993
0.000805053
0.00080096
0.000796724
0.000792356
0.000787867
0.000783268
0.000778612
0.00084856
0.000845148
0.000841885
0.000838752
0.000835729
0.000832792
0.000829914
0.000827067
0.000824224
0.000821357
0.000818445
0.000815468
0.000812413
0.000809269
0.000806031
0.000802697
0.000799266
0.000795742
0.000792126
0.000788465
0.000848559
0.000845147
0.000841887
0.000838765
0.000835766
0.000832874
0.000830072
0.000827342
0.000824664
0.000822019
0.00081939
0.000816757
0.000814108
0.000811429
0.00080871
0.000805943
0.000803123
0.000800244
0.000797306
0.000794348
0.000848558
0.000845146
0.000841887
0.000838767
0.000835776
0.000832901
0.000830129
0.000827448
0.000824844
0.000822303
0.000819811
0.000817356
0.000814923
0.000812502
0.000810082
0.000807654
0.00080521
0.000802742
0.000800247
0.00079776
0.000848557
0.000845145
0.000841885
0.000838767
0.000835778
0.000832908
0.000830148
0.000827487
0.000824914
0.00082242
0.000819994
0.000817625
0.000815303
0.00081302
0.000810765
0.00080853
0.000806307
0.000804088
0.000801869
0.000799683
0.000848557
0.000845144
0.000841884
0.000838765
0.000835777
0.00083291
0.000830154
0.0008275
0.00082494
0.000822466
0.00082007
0.000817742
0.000815476
0.000813262
0.000811095
0.000808965
0.000806867
0.000804793
0.000802739
0.000800737
0.000848557
0.000845143
0.000841883
0.000838764
0.000835776
0.000832909
0.000830154
0.000827504
0.000824949
0.000822484
0.0008201
0.000817791
0.000815551
0.000813372
0.000811249
0.000809175
0.000807144
0.00080515
0.00080319
0.000801295
0.000848556
0.000845143
0.000841883
0.000838763
0.000835775
0.000832908
0.000830154
0.000827504
0.000824952
0.00082249
0.000820111
0.000817811
0.000815582
0.00081342
0.000811318
0.000809271
0.000807274
0.000805322
0.000803411
0.000801574
0.000848556
0.000845143
0.000841882
0.000838763
0.000835774
0.000832908
0.000830153
0.000827504
0.000824952
0.000822491
0.000820115
0.000817818
0.000815593
0.000813437
0.000811344
0.000809308
0.000807325
0.000805391
0.000803501
0.000801689
0.000848556
0.000845143
0.000841882
0.000838763
0.000835774
0.000832908
0.000830153
0.000827504
0.000824952
0.000822491
0.000820115
0.000817818
0.000815594
0.000813437
0.000811344
0.000809308
0.000807326
0.000805392
0.000803503
0.000801691
0.000848556
0.000845143
0.000841883
0.000838763
0.000835775
0.000832908
0.000830154
0.000827504
0.000824952
0.00082249
0.000820111
0.000817811
0.000815582
0.00081342
0.000811318
0.000809272
0.000807276
0.000805325
0.000803416
0.000801581
0.000848557
0.000845143
0.000841883
0.000838764
0.000835776
0.000832909
0.000830154
0.000827504
0.000824949
0.000822484
0.0008201
0.000817791
0.000815551
0.000813373
0.00081125
0.000809177
0.000807147
0.000805156
0.000803199
0.000801309
0.000848557
0.000845144
0.000841884
0.000838765
0.000835777
0.00083291
0.000830154
0.0008275
0.00082494
0.000822466
0.00082007
0.000817742
0.000815476
0.000813263
0.000811096
0.000808968
0.000806872
0.000804802
0.000802754
0.000800761
0.000848557
0.000845145
0.000841885
0.000838767
0.000835778
0.000832908
0.000830148
0.000827487
0.000824914
0.00082242
0.000819994
0.000817625
0.000815304
0.000813021
0.000810767
0.000808534
0.000806314
0.000804102
0.000801893
0.000799724
0.000848558
0.000845146
0.000841887
0.000838767
0.000835776
0.000832901
0.000830129
0.000827448
0.000824844
0.000822303
0.000819811
0.000817356
0.000814924
0.000812504
0.000810086
0.00080766
0.000805221
0.000802764
0.000800286
0.000797827
0.000848559
0.000845147
0.000841887
0.000838765
0.000835766
0.000832874
0.000830072
0.000827342
0.000824664
0.00082202
0.00081939
0.000816758
0.000814109
0.000811432
0.000808715
0.000805952
0.000803141
0.000800278
0.000797368
0.000794457
0.00084856
0.000845148
0.000841885
0.000838752
0.000835729
0.000832792
0.000829914
0.000827068
0.000824224
0.000821357
0.000818445
0.000815469
0.000812414
0.000809272
0.000806038
0.000802711
0.000799294
0.000795794
0.000792223
0.00078864
0.00084856
0.000845146
0.000841871
0.000838706
0.000835616
0.000832561
0.000829497
0.000826382
0.000823178
0.000819856
0.000816393
0.000812774
0.000808996
0.000805059
0.000800971
0.000796746
0.000792398
0.000787947
0.000783417
0.000778888
0.00084856
0.000845133
0.000841817
0.000838556
0.000835284
0.000831931
0.00082843
0.000824725
0.000820777
0.000816564
0.000812079
0.000807328
0.00080233
0.000797109
0.000791698
0.000786127
0.000780431
0.000774646
0.000768807
0.00076302
0.000848553
0.000845082
0.000841635
0.000838097
0.000834345
0.000830269
0.000825787
0.000820852
0.00081545
0.000809599
0.000803337
0.000796718
0.000789802
0.000782652
0.000775327
0.000767882
0.000760371
0.000752839
0.000745331
0.000737982
0.00084852
0.000844889
0.000841035
0.000836725
0.000831764
0.000826029
0.000819477
0.000812137
0.000804091
0.000795451
0.000786343
0.00077689
0.000767209
0.000757397
0.000747539
0.000737702
0.000727942
0.000718305
0.000708828
0.000699681
0.000848382
0.000844198
0.000839116
0.000832753
0.00082492
0.000815629
0.00080504
0.000793399
0.000780982
0.000768053
0.000754842
0.000741539
0.000728291
0.000715203
0.000702351
0.000689781
0.000677521
0.00066559
0.000654002
0.000642966
0.000847815
0.000841759
0.000833144
0.000821666
0.000807553
0.000791359
0.000773739
0.000755309
0.000736579
0.000717933
0.000699638
0.000681863
0.000664702
0.000648194
0.000632341
0.000617117
0.000602487
0.000588413
0.000574869
0.000562129
0.000845497
0.000833333
0.000815252
0.00079227
0.000766101
0.000738421
0.000710528
0.000683288
0.000657211
0.000632548
0.000609378
0.000587668
0.000567328
0.000548233
0.00053025
0.000513246
0.000497103
0.000481736
0.000467091
0.000453572
0.000836034
0.000805283
0.000764927
0.000720395
0.000675861
0.000633742
0.000595096
0.000560172
0.000528808
0.00050066
0.000475325
0.000452411
0.000431561
0.00041247
0.000394889
0.000378626
0.000363548
0.000349588
0.000336739
0.000325524
0.000798066
0.000719144
0.000639471
0.000568172
0.00050773
0.000457534
0.000415975
0.000381397
0.000352389
0.000327828
0.000306854
0.00028882
0.000273253
0.000259813
0.000248267
0.000238466
0.00023032
0.000223789
0.000218853
0.000215829
0.000659514
0.000505623
0.000400842
0.000328642
0.000277967
0.000241567
0.000214857
0.000194964
0.000180063
0.000168964
0.000160882
0.000155285
0.000151809
0.000150198
0.000150264
0.00015186
0.000154852
0.000159114
0.0001645
0.000171003
0.000329173
0.000212655
0.000162186
0.00013586
0.000121229
0.000113025
0.000108733
0.000107059
0.000107297
0.000109044
0.000112053
0.000116155
0.000121216
0.00012711
0.000133701
0.000140839
0.000148359
0.000156095
0.000163877
0.000171679
0.00010783
0.00012451
0.000135993
0.000143228
0.000147274
0.000149058
0.000149311
0.000148581
0.000147258
0.00014561
0.00014382
0.000142009
0.000140256
0.000138612
0.000137107
0.000135757
0.000134569
0.000133543
0.000132674
0.000131933
0.000169933
0.000220884
0.000280709
0.000345725
0.000411872
0.000476461
0.000538532
0.000598327
0.000656586
0.000714093
0.000771437
0.000828984
0.000886958
0.000945554
0.001005
0.00106558
0.00112764
0.00119151
0.00125754
0.00132606
0.00139741
0.00147197
0.00155014
0.00163235
0.00171903
0.00181065
0.00190765
0.00201047
0.00211953
0.00223523
0.00235791
0.00248787
0.00262534
0.00277048
0.00292335
0.00308392
0.00325204
0.00342746
0.00360981
0.00379858
0.00399315
0.00419275
0.00439651
0.00460344
0.00481246
0.0050224
0.00523204
0.00544012
0.00564538
0.00584655
0.00604243
0.00623182
0.00641365
0.0065865
0.00674957
0.00690206
0.00704322
0.00717238
0.00728895
0.00739247
0.00748252
0.00755875
0.00762083
0.0076685
0.00770158
0.00772038
0.00772535
0.00771679
0.00769501
0.00766034
0.00761314
0.00755376
0.00748261
0.0074001
0.00730666
0.00720277
0.00708891
0.0069656
0.00683336
0.00669273
0.00654426
0.00638853
0.00622612
0.00605761
0.00588361
0.00570473
0.00552159
0.00533481
0.00514504
0.0049529
0.00475903
0.00456409
0.0043687
0.00417352
0.00397918
0.00378632
0.00359556
0.00340753
0.00322283
0.00304207
0.00286583
0.00269468
0.00252914
0.00236975
0.00221698
0.00207128
0.00193305
0.00180264
0.00168035
0.0015664
0.00146096
0.0013641
0.00127583
0.00119608
0.0011247
0.00106143
0.00100597
0.00095794
0.000916883
0.000882297
0.00085363
0.00083029
0.000811664
0.000797124
0.000786046
0.00077782
0.000771872
0.00076767
0.000764744
0.000762685
0.000761156
0.00075989
0.000758687
0.000757406
0.000755961
0.000754309
0.000752442
0.000750377
0.000748149
0.000745808
0.000743407
0.000741004
0.000738655
0.000736416
0.000734335
0.000732459
0.000730829
0.00072948
0.000728442
0.000727743
0.000727403
0.000727441
0.000727873
0.000728707
0.000729912
0.000731518
0.000733539
0.000735988
0.000738877
0.000742216
0.000746013
0.000750277
0.000755016
0.000760241
0.000765964
0.0007722
0.000778968
0.000786295
0.000794216
0.000802777
0.000812039
0.000822079
0.000832999
0.000844925
0.000858016
0.000872471
0.000888534
0.000906506
0.000926748
0.000949701
0.000975891
0.00100595
0.00104063
0.00108083
0.00112764
0.00118235
0.0012466
0.00132246
0.0014127
0.00152125
0.00165392
0.0018197
0.00203231
0.00231003
0.00266853
0.00309742
0.00352674
0.00374217
0.00336052
0.0007379
0.000174589
0.000184385
0.000200393
0.000224176
0.000256451
0.000296957
0.000344492
0.000397292
0.000453446
0.000511237
0.000569417
0.000627321
0.000684812
0.000742116
0.000799627
0.000857745
0.000916795
0.00097703
0.00103867
0.00110195
0.00116716
0.00123466
0.00130487
0.00137821
0.00145516
0.00153616
0.00162168
0.00171219
0.00180816
0.00191004
0.00201827
0.00213323
0.00225529
0.00238472
0.00252174
0.00266645
0.00281888
0.00297896
0.00314648
0.00332113
0.00350246
0.00368989
0.00388271
0.00408008
0.00428105
0.00448456
0.00468947
0.00489456
0.00509858
0.00530026
0.00549831
0.0056915
0.00587862
0.00605847
0.00622983
0.00639173
0.00654322
0.00668346
0.00681172
0.00692735
0.00702979
0.00711856
0.00719318
0.00725321
0.00729865
0.00732982
0.0073469
0.00735014
0.00733981
0.00731621
0.00727968
0.00723057
0.00716926
0.00709617
0.00701175
0.00691645
0.00681077
0.00669523
0.00657036
0.00643672
0.00629488
0.00614542
0.00598895
0.00582606
0.0056574
0.00548358
0.00530526
0.00512307
0.00493769
0.00474976
0.00455996
0.00436895
0.00417741
0.00398601
0.00379541
0.00360628
0.00341928
0.00323506
0.00305427
0.00287753
0.00270547
0.00253869
0.00237775
0.00222319
0.00207554
0.00193524
0.00180273
0.00167835
0.0015624
0.0014551
0.00135657
0.00126689
0.00118599
0.00111376
0.00104998
0.000994328
0.000946423
0.000905794
0.000871905
0.000844159
0.000821916
0.000804501
0.00079122
0.000781383
0.000774317
0.000769389
0.000766021
0.000763706
0.000762014
0.000760602
0.000759207
0.000757645
0.0007558
0.000753613
0.000751072
0.0007482
0.000745044
0.00074167
0.000738147
0.000734553
0.000730962
0.000727443
0.000724062
0.000720878
0.000717942
0.000715298
0.000712984
0.000711033
0.000709469
0.000708316
0.000707591
0.000707307
0.000707476
0.000708102
0.000709149
0.00071065
0.000712618
0.000715064
0.000717998
0.000721428
0.000725359
0.000729799
0.000734752
0.000740224
0.000746223
0.000752757
0.000759837
0.000767481
0.000775712
0.000784562
0.000794075
0.000804311
0.000815348
0.000827291
0.000840271
0.000854458
0.000870066
0.000887362
0.000906678
0.000928423
0.000953099
0.000981316
0.00101382
0.00105152
0.00109552
0.00114719
0.00120823
0.00128083
0.00136792
0.00147359
0.00160396
0.00176843
0.00198144
0.00226237
0.00262775
0.00306736
0.00350871
0.00375061
0.00340822
0.00107257
0.000171392
0.000173671
0.000176731
0.000181207
0.000187892
0.000197779
0.000211939
0.000231446
0.000257143
0.000289463
0.000328348
0.000373257
0.000423264
0.000477223
0.000533909
0.000592051
0.000650966
0.000710356
0.00077027
0.000830998
0.000892959
0.000956586
0.0010223
0.00109046
0.00116145
0.00123562
0.00131341
0.00139525
0.00148164
0.00157309
0.00167007
0.00177306
0.00188248
0.00199871
0.00212207
0.00225279
0.00239106
0.00253693
0.0026904
0.0028513
0.00301937
0.00319422
0.00337531
0.00356199
0.00375345
0.0039488
0.004147
0.00434695
0.00454746
0.00474729
0.00494518
0.00513983
0.00533003
0.00551456
0.0056922
0.00586171
0.00602194
0.00617189
0.00631065
0.00643742
0.0065515
0.00665225
0.00673899
0.00681128
0.00686925
0.00691288
0.00694227
0.0069576
0.00695908
0.00694698
0.00692161
0.0068833
0.00683242
0.00676937
0.00669458
0.00660852
0.00651168
0.00640458
0.00628777
0.0061618
0.00602726
0.00588474
0.00573487
0.00557827
0.00541559
0.00524747
0.00507459
0.00489761
0.00471721
0.0045341
0.00434895
0.00416246
0.00397535
0.0037883
0.00360202
0.00341721
0.00323456
0.00305478
0.00287853
0.00270648
0.00253931
0.00237762
0.00222205
0.00207315
0.00193146
0.00179747
0.0016716
0.00155422
0.00144559
0.00134592
0.0012553
0.00117373
0.00110111
0.00103725
0.000981828
0.00093445
0.000894624
0.000861777
0.000835265
0.000814389
0.000798406
0.000786552
0.000778063
0.000772199
0.00076827
0.000765653
0.00076381
0.000762301
0.000760785
0.000759015
0.000756834
0.00075416
0.000750971
0.000747294
0.000743188
0.000738733
0.000734023
0.000729155
0.000724225
0.000719323
0.000714533
0.000709927
0.00070557
0.000701516
0.000697812
0.000694494
0.000691595
0.000689137
0.00068714
0.000685619
0.000684586
0.000684048
0.000684012
0.000684477
0.000685405
0.000686835
0.000688777
0.000691241
0.000694237
0.00069777
0.000701847
0.000706474
0.000711655
0.000717393
0.000723694
0.000730563
0.000738006
0.000746033
0.000754659
0.000763906
0.000773804
0.000784398
0.000795746
0.000807929
0.000821056
0.000835266
0.000850743
0.000867718
0.000886486
0.000907419
0.000930979
0.000957745
0.000988432
0.00102393
0.00106535
0.00111406
0.00117183
0.0012409
0.00132433
0.00142634
0.00155322
0.00171466
0.00192552
0.00220585
0.00257266
0.00301592
0.0034618
0.00372558
0.00342482
0.00145198
0.000212208
0.000211279
0.000210452
0.000209724
0.00020908
0.000208589
0.000208446
0.000209018
0.000210884
0.000214827
0.000221778
0.000232707
0.000248513
0.00026992
0.000297411
0.000331257
0.00037133
0.00041717
0.000468069
0.000523191
0.000581661
0.00064258
0.000705508
0.000770307
0.000837113
0.000906272
0.000978258
0.0010536
0.0011328
0.00121635
0.00130473
0.00139837
0.00149769
0.00160312
0.00171505
0.00183383
0.00195976
0.00209303
0.00223376
0.00238195
0.00253751
0.00270019
0.00286965
0.0030454
0.0032268
0.00341311
0.00360346
0.00379687
0.00399226
0.00418848
0.0043843
0.00457844
0.00476974
0.00495712
0.00513913
0.00531439
0.00548162
0.00563967
0.0057875
0.00592414
0.00604877
0.00616059
0.00625876
0.006343
0.00641308
0.0064689
0.00651045
0.00653781
0.00655116
0.0065507
0.0065367
0.00650946
0.00646932
0.00641668
0.00635194
0.00627557
0.00618805
0.0060899
0.00598167
0.00586391
0.00573724
0.00560224
0.00545956
0.00530985
0.00515375
0.00499194
0.00482512
0.00465398
0.00447922
0.00430157
0.00412174
0.00394046
0.00375847
0.0035765
0.0033953
0.0032156
0.00303813
0.00286364
0.00269284
0.00252644
0.00236514
0.00220962
0.00206051
0.00191842
0.00178389
0.00165744
0.00153947
0.00143034
0.00133029
0.00123948
0.00115795
0.00108562
0.0010223
0.000967697
0.000921394
0.000882875
0.000851524
0.000826646
0.000807472
0.000793187
0.00078295
0.000775921
0.000771294
0.000768321
0.000766343
0.000764804
0.000763264
0.000761398
0.000758991
0.000755925
0.000752161
0.000747724
0.000742685
0.000737143
0.000731215
0.000725023
0.00071869
0.00071233
0.000706048
0.000699935
0.000694073
0.000688527
0.000683353
0.000678596
0.000674289
0.00067046
0.000667129
0.000664308
0.000662009
0.000660237
0.000658996
0.000658289
0.000658118
0.000658471
0.000659321
0.000660706
0.000662636
0.000665122
0.000668171
0.000671792
0.000675992
0.000680778
0.000686157
0.000692132
0.000698708
0.000705891
0.000713685
0.000722098
0.000731139
0.000740822
0.000751169
0.000762209
0.000773989
0.000786568
0.000800031
0.000814493
0.000830105
0.000847064
0.000865627
0.000886122
0.000908967
0.000934693
0.000963971
0.000997649
0.0010368
0.00108279
0.00113737
0.00120284
0.00128228
0.00138001
0.0015024
0.00165927
0.00186564
0.00214185
0.00250502
0.00294555
0.00339048
0.00367213
0.0034325
0.00183571
0.000318267
0.000314639
0.00031111
0.000307649
0.000304166
0.00030056
0.000296738
0.000292618
0.00028815
0.000283345
0.000278316
0.000273316
0.000268775
0.000265298
0.000263636
0.000264631
0.000269191
0.000278207
0.000292469
0.000312618
0.000339111
0.000372259
0.0004121
0.000458419
0.000510801
0.000568723
0.000631646
0.000699112
0.00077075
0.000846514
0.000926565
0.00101124
0.00110099
0.00119631
0.00129767
0.00140549
0.00152012
0.00164182
0.0017708
0.00190716
0.00205093
0.00220202
0.00236023
0.00252521
0.00269649
0.00287344
0.00305538
0.00324148
0.00343078
0.00362224
0.00381476
0.00400728
0.00419854
0.00438723
0.00457195
0.00475129
0.00492389
0.00508851
0.00524397
0.0053892
0.00552322
0.00564515
0.00575415
0.00584966
0.00593134
0.00599894
0.00605236
0.0060916
0.00611675
0.00612795
0.00612542
0.00610943
0.00608028
0.00603834
0.005984
0.00591771
0.00583994
0.00575121
0.00565205
0.00554304
0.00542477
0.00529787
0.00516297
0.00502074
0.00487185
0.004717
0.0045569
0.00439227
0.00422384
0.00405236
0.00387859
0.00370328
0.00352722
0.00335116
0.0031759
0.00300221
0.00283087
0.00266267
0.00249837
0.00233872
0.00218447
0.00203632
0.00189494
0.00176096
0.00163495
0.00151739
0.0014087
0.00130918
0.00121904
0.00113835
0.00106707
0.00100503
0.000951913
0.000907305
0.000870651
0.000841291
0.000818464
0.000801331
0.000788996
0.000780536
0.000775035
0.000771621
0.000769501
0.000767992
0.000766533
0.000764703
0.00076221
0.000758885
0.000754661
0.000749556
0.000743646
0.00073705
0.000729911
0.00072238
0.00071461
0.000706744
0.000698915
0.000691238
0.000683811
0.000676719
0.000670027
0.000663789
0.000658043
0.000652821
0.00064814
0.000644014
0.000640448
0.000637446
0.000635005
0.000633122
0.000631793
0.000631014
0.000630779
0.000631077
0.000631883
0.00063324
0.000635157
0.000637644
0.000640711
0.00064437
0.00064863
0.000653502
0.000658995
0.000665118
0.00067188
0.000679288
0.00068735
0.000696072
0.000705464
0.000715538
0.000726308
0.000737797
0.000750038
0.000763077
0.000776979
0.000791835
0.000807767
0.000824942
0.000843575
0.000863953
0.000886445
0.000911527
0.000939815
0.000972095
0.00100938
0.001053
0.00110464
0.0011666
0.00124194
0.00133499
0.00145212
0.0016031
0.00180287
0.00207168
0.00242655
0.00285862
0.0032984
0.00359448
0.00343051
0.00219246
0.000446008
0.00044158
0.000437213
0.000432899
0.000428593
0.000424239
0.000419779
0.000415152
0.000410285
0.000405101
0.000399513
0.000393438
0.000386805
0.000379575
0.000371762
0.000363454
0.000354851
0.000346293
0.000338279
0.000331463
0.000326631
0.00032465
0.000326476
0.000333086
0.000345409
0.000364269
0.000390351
0.000424163
0.000466054
0.000516131
0.000574303
0.000640322
0.000713869
0.000794634
0.000882397
0.000977075
0.00107873
0.00118754
0.00130372
0.00142746
0.00155887
0.00169798
0.00184466
0.00199868
0.00215971
0.0023273
0.00250077
0.00267939
0.0028623
0.00304854
0.00323711
0.00342692
0.00361677
0.00380537
0.00399134
0.00417328
0.0043498
0.00451957
0.00468132
0.00483388
0.00497617
0.00510721
0.00522625
0.00533236
0.00542504
0.00550396
0.0055689
0.00561977
0.00565657
0.00567937
0.00568835
0.0056837
0.00566572
0.00563472
0.00559107
0.0055352
0.00546758
0.00538869
0.00529908
0.00519932
0.00509
0.00497176
0.00484524
0.00471112
0.00457009
0.00442287
0.00427018
0.00411279
0.00395145
0.00378693
0.00362003
0.00345155
0.0032823
0.00311309
0.00294475
0.00277811
0.002614
0.00245324
0.00229664
0.00214502
0.00199914
0.00185975
0.00172754
0.00160315
0.00148714
0.00137998
0.00128203
0.00119355
0.00111464
0.0010453
0.000985354
0.000934498
0.000892278
0.000858106
0.000831265
0.000810924
0.000796163
0.000786
0.000779428
0.000775459
0.000773168
0.00077173
0.000770454
0.0007688
0.000766382
0.000762964
0.000758436
0.000752797
0.000746123
0.000738551
0.000730248
0.000721399
0.000712191
0.000702802
0.000693397
0.000684118
0.000675091
0.000666418
0.000658182
0.000650446
0.000643258
0.000636652
0.000630647
0.000625255
0.000620477
0.000616311
0.000612748
0.000609776
0.000607382
0.000605552
0.000604273
0.000603532
0.000603319
0.000603609
0.000604415
0.000605759
0.000607652
0.000610106
0.000613134
0.000616751
0.000620971
0.000625809
0.000631283
0.000637407
0.000644197
0.000651667
0.00065983
0.0006687
0.000678289
0.00068861
0.000699679
0.000711514
0.000724143
0.0007376
0.000751938
0.000767226
0.000783563
0.000801086
0.000819975
0.000840475
0.000862906
0.000887689
0.000915374
0.000946679
0.000982544
0.0010242
0.00107328
0.00113199
0.00120332
0.00129153
0.00140288
0.00154695
0.00173835
0.00199687
0.00233928
0.0027579
0.00318888
0.00349642
0.0034132
0.00249652
0.000555759
0.000551644
0.000547565
0.000543516
0.000539479
0.000535429
0.000531342
0.000527193
0.000522956
0.000518602
0.000514096
0.000509395
0.000504448
0.000499193
0.00049356
0.000487473
0.00048085
0.000473614
0.000465701
0.000457075
0.000447746
0.00043779
0.000427386
0.000416856
0.000406698
0.000397615
0.000390521
0.000386515
0.000386832
0.000392799
0.000405742
0.000426905
0.000457374
0.000498017
0.000549425
0.000611889
0.000685398
0.000769695
0.000864359
0.000968914
0.00108291
0.00120599
0.00133783
0.00147814
0.00162655
0.0017826
0.00194569
0.0021151
0.00229002
0.00246954
0.00265266
0.00283831
0.00302531
0.00321238
0.00339818
0.0035813
0.00376033
0.00393388
0.00410063
0.0042593
0.00440873
0.00454788
0.004676
0.00479202
0.00489512
0.00498486
0.00506091
0.0051231
0.00517134
0.00520563
0.00522607
0.00523283
0.00522613
0.00520625
0.00517355
0.00512842
0.0050713
0.00500267
0.00492307
0.00483305
0.00473323
0.00462422
0.00450669
0.00438133
0.00424884
0.00410997
0.00396546
0.00381609
0.00366266
0.00350598
0.00334687
0.00318617
0.00302474
0.00286344
0.00270316
0.00254476
0.00238913
0.00223713
0.00208965
0.00194751
0.00181154
0.00168248
0.00156106
0.00144789
0.0013435
0.00124832
0.00116264
0.00108661
0.00102022
0.000963319
0.000915578
0.000876515
0.000845491
0.000821721
0.000804295
0.000792205
0.000784381
0.000779735
0.000777221
0.000775875
0.000774867
0.000773525
0.000771353
0.000768028
0.000763382
0.000757381
0.000750095
0.000741669
0.000732294
0.000722189
0.000711578
0.000700678
0.000689691
0.000678796
0.000668147
0.000657873
0.000648078
0.00063884
0.00063022
0.000622255
0.000614972
0.000608379
0.000602477
0.000597256
0.0005927
0.000588789
0.000585499
0.000582803
0.000580676
0.000579092
0.000578028
0.000577461
0.000577376
0.000577739
0.000578595
0.000579949
0.000581812
0.000584197
0.000587119
0.000590597
0.00059465
0.000599301
0.000604574
0.000610494
0.000617087
0.000624378
0.00063239
0.000641149
0.000650675
0.000660991
0.000672117
0.000684077
0.000696896
0.000710606
0.000725249
0.000740883
0.000757587
0.000775472
0.000794689
0.000815441
0.000838004
0.000862745
0.000890147
0.000920854
0.000955717
0.000995868
0.00104283
0.00109867
0.00116627
0.00124972
0.00135505
0.00149151
0.00167316
0.00191903
0.00224549
0.0026464
0.0030651
0.0033813
0.00337611
0.00273269
0.000637913
0.000634409
0.000630927
0.000627462
0.000624007
0.000620549
0.000617076
0.000613579
0.000610048
0.000606475
0.00060285
0.000599161
0.000595396
0.000591534
0.000587552
0.000583419
0.000579097
0.000574538
0.000569686
0.000564473
0.000558822
0.000552642
0.000545836
0.000538299
0.000529931
0.000520652
0.000510423
0.000499293
0.000487445
0.000475267
0.000463427
0.000452929
0.000445127
0.000441692
0.00044451
0.000455542
0.000476679
0.000509594
0.000555617
0.000615636
0.000690021
0.00077862
0.000880831
0.000995741
0.00112229
0.00125939
0.00140602
0.00156118
0.00172387
0.00189305
0.00206762
0.0022464
0.00242816
0.00261157
0.00279523
0.00297772
0.00315757
0.00333334
0.00350361
0.00366705
0.0038224
0.00396852
0.00410451
0.00422969
0.00434258
0.00444259
0.00452932
0.00460248
0.00466189
0.0047075
0.00473934
0.00475749
0.00476215
0.00475355
0.00473201
0.0046979
0.00465162
0.00459365
0.00452451
0.00444475
0.00435497
0.0042558
0.0041479
0.00403199
0.00390877
0.00377902
0.00364351
0.00350304
0.00335844
0.00321056
0.00306027
0.00290845
0.00275601
0.00260386
0.00245293
0.00230416
0.00215847
0.00201679
0.00188004
0.00174908
0.00162474
0.0015078
0.00139895
0.00129877
0.00120774
0.00112617
0.00105424
0.000991954
0.000939149
0.000895471
0.000860392
0.000833207
0.000813053
0.000798931
0.00078974
0.000784326
0.000781539
0.00078029
0.000779613
0.0007787
0.000776935
0.000773892
0.00076933
0.000763169
0.000755458
0.000746342
0.000736031
0.000724775
0.000712835
0.00070047
0.000687924
0.000675417
0.00066314
0.000651254
0.000639888
0.000629146
0.0006191
0.000609803
0.000601285
0.00059356
0.000586626
0.000580472
0.000575073
0.000570403
0.000566425
0.000563102
0.000560395
0.000558263
0.000556665
0.000555563
0.000554922
0.00055471
0.0005549
0.000555467
0.00055646
0.000557882
0.000559739
0.000562043
0.000564808
0.000568056
0.00057181
0.0005761
0.000580959
0.000586423
0.00059253
0.000599321
0.000606837
0.000615118
0.000624203
0.000634131
0.000644936
0.000656652
0.000669315
0.00068296
0.000697627
0.000713369
0.000730253
0.000748369
0.000767842
0.000788843
0.000811605
0.000836442
0.000863776
0.000894175
0.000928396
0.000967463
0.00101276
0.00106621
0.00113049
0.00120945
0.00130881
0.00143733
0.0016083
0.00183975
0.0021475
0.00252719
0.00293023
0.00325201
0.00331692
0.0028968
0.000695764
0.000692898
0.000690041
0.000687192
0.000684347
0.000681499
0.000678643
0.000675773
0.000672887
0.000669982
0.000667053
0.0006641
0.000661119
0.000658107
0.000655058
0.000651965
0.000648816
0.000645598
0.000642291
0.000638873
0.000635313
0.000631571
0.0006276
0.000623341
0.00061872
0.000613648
0.000608018
0.000601702
0.000594555
0.00058642
0.000577144
0.000566608
0.000554781
0.000541802
0.00052809
0.000514467
0.000502262
0.000493342
0.000490042
0.000494979
0.000510809
0.000539961
0.000584412
0.000645498
0.000723783
0.000819014
0.000930202
0.00105583
0.00119409
0.00134313
0.00150119
0.00166658
0.00183768
0.0020129
0.00219061
0.0023692
0.00254705
0.00272257
0.00289423
0.00306054
0.00322013
0.00337174
0.00351433
0.00364713
0.00376907
0.0038787
0.00397554
0.00405921
0.00412946
0.00418614
0.00422921
0.0042587
0.00427475
0.00427754
0.00426735
0.00424451
0.0042094
0.00416249
0.00410426
0.00403527
0.0039561
0.0038674
0.00376982
0.0036641
0.00355096
0.00343118
0.00330558
0.00317499
0.00304027
0.00290231
0.00276203
0.00262036
0.00247826
0.00233671
0.00219667
0.00205915
0.00192513
0.00179557
0.00167142
0.00155356
0.00144283
0.00133997
0.00124562
0.00116028
0.00108429
0.00101784
0.000960941
0.000913383
0.000874775
0.000844524
0.000821848
0.000805793
0.000795263
0.000789071
0.000785997
0.000784853
0.000784549
0.000784154
0.000782927
0.000780336
0.000776057
0.000769947
0.000762023
0.000752417
0.000741349