/*--------------------------------*- C++ -*----------------------------------*\
| =========                 |                                                 |
| \\      /  F ield         | OpenFOAM: The Open Source CFD Toolbox           |
|  \\    /   O peration     | Version:  2.4.0                                 |
|   \\  /    A nd           | Web:      www.OpenFOAM.org                      |
|    \\/     M anipulation  |                                                 |
\*---------------------------------------------------------------------------*/
FoamFile
{
    version     2.0;
    format      ascii;
    class       volScalarField;
    location    "0.122";
    object      pMean;
}
// * * * * * * * * * * * * * * * * * * * * * * * * * * * * * * * * * * * * * //

dimensions      [0 2 -2 0 0 0 0];

internalField   nonuniform List<scalar> 
4400
(
136.311
114.718
106.322
102.279
98.9429
95.6485
92.3448
89.0392
85.567
81.3348
134.398
114.782
106.358
102.29
98.9456
95.6492
92.3452
89.0404
85.5827
81.7343
133.196
115.09
106.491
102.329
98.9657
95.6568
92.3488
89.0388
85.6549
81.9275
132.465
115.462
106.667
102.386
99.0075
95.6847
92.3615
89.0571
85.733
82.1879
131.872
115.802
106.844
102.445
99.0663
95.7272
92.3918
89.0746
85.8391
82.4379
131.361
116.084
106.998
102.49
99.1211
95.781
92.4295
89.111
85.9607
82.7206
130.94
116.308
107.127
102.516
99.1654
95.8268
92.4682
89.1501
86.0523
83.0703
130.617
116.477
107.228
102.529
99.1955
95.8649
92.5011
89.1936
86.1098
83.3899
130.4
116.593
107.296
102.536
99.2146
95.8935
92.5245
89.2363
86.1873
83.7142
130.291
116.652
107.33
102.539
99.2252
95.909
92.5484
89.2747
86.279
83.9582
130.289
116.654
107.329
102.542
99.2259
95.9175
92.5616
89.3153
86.3681
84.1588
130.397
116.598
107.295
102.542
99.2194
95.9135
92.5734
89.3552
86.4547
84.3156
130.613
116.486
107.226
102.539
99.2028
95.8999
92.5782
89.3917
86.5416
84.4317
130.934
116.319
107.124
102.529
99.1753
95.8752
92.5768
89.4263
86.6288
84.5069
131.354
116.097
106.995
102.507
99.1354
95.8403
92.5702
89.4556
86.7136
84.5479
131.864
115.817
106.84
102.467
99.0841
95.7995
92.5604
89.4812
86.7847
84.5823
132.456
115.478
106.663
102.41
99.0293
95.7638
92.5534
89.5042
86.833
84.612
133.188
115.106
106.487
102.354
98.9897
95.7438
92.5529
89.5232
86.8604
84.645
134.391
114.798
106.355
102.316
98.9709
95.7381
92.5555
89.5342
86.8711
84.6815
136.304
114.733
106.318
102.305
98.9682
95.7388
92.557
89.538
86.8725
84.7857
78.903
78.3806
76.982
75.4512
74.1125
73.0895
72.5754
72.0223
72.0049
72.2856
72.4765
72.6727
72.7413
73.3084
74.0887
74.5266
74.845
75.3079
75.8069
76.3933
76.9979
77.666
78.3745
79.1277
79.9148
80.6908
81.4401
82.2076
82.97
83.6932
84.3266
84.9056
85.3669
85.7121
85.8942
85.9744
85.9782
85.925
85.8718
85.8571
86.1238
86.6097
87.2763
88.071
88.9444
89.7132
90.4395
91.0036
91.444
91.7704
92.0229
92.2846
92.4109
92.5703
92.6999
92.7905
92.9967
93.0811
93.4362
93.5904
94.0869
94.3416
94.9022
95.1247
95.6083
95.5938
95.9108
95.6496
95.8585
95.4873
95.7534
95.3826
95.6907
95.2721
95.6381
95.2907
95.7973
95.5294
96.166
95.9075
96.609
96.273
96.9255
96.4405
96.9614
96.3144
96.6935
95.9338
96.1639
95.3003
95.3652
94.3159
94.2408
92.8323
92.6971
90.4129
90.3258
85.22
84.7597
59.5202
79.2681
78.5591
77.4367
76.1015
74.8645
73.8903
73.392
73.0088
73.0262
73.3663
73.6226
73.8405
73.9045
74.3605
75.0803
75.5357
75.7714
76.1135
76.5201
77.0152
77.5243
78.1046
78.736
79.4048
80.1067
80.7975
81.4545
82.1208
82.7716
83.3792
83.9067
84.378
84.7442
85.0199
85.1489
85.2275
85.2268
85.1903
85.1474
85.138
85.4986
86.0649
86.8377
87.7425
88.7451
89.6325
90.4706
91.1297
91.6427
92.0411
92.3354
92.5969
92.7194
92.8688
92.9843
93.0569
93.2583
93.3065
93.6447
93.7424
94.1801
94.3581
94.8174
94.9715
95.3697
95.3149
95.5573
95.2761
95.4565
95.0677
95.3265
94.9238
95.2358
94.7606
95.1909
94.766
95.372
95.0097
95.775
95.4004
96.2844
95.7978
96.6998
95.9699
96.7741
95.8179
96.5029
95.3952
95.927
94.6848
95.018
93.5401
93.6776
91.7027
91.8274
88.5718
88.8141
81.374
80.3098
52.3422
79.8467
78.9885
77.8816
76.6754
75.5562
74.6702
74.1914
73.9283
73.9658
74.3017
74.6187
74.8842
74.9887
75.36
76.0113
76.4943
76.6966
76.9564
77.2944
77.7224
78.1502
78.6511
79.1967
79.7663
80.3596
80.9503
81.5091
82.0693
82.6107
83.1085
83.5339
83.9068
84.1932
84.4166
84.5192
84.6156
84.6143
84.6041
84.5569
84.5615
85.0101
85.6368
86.5274
87.5474
88.6775
89.6887
90.6424
91.3914
91.9919
92.4555
92.7989
93.0455
93.1721
93.2983
93.4019
93.445
93.6287
93.6381
93.9398
93.9901
94.359
94.4754
94.824
94.9202
95.1989
95.1188
95.2723
94.9896
95.131
94.7409
94.969
94.5467
94.8404
94.3152
94.7807
94.2885
94.9675
94.5127
95.3709
94.8786
95.8969
95.2726
96.3626
95.4192
96.4765
95.2
96.2177
94.6993
95.6251
93.9123
94.6288
92.6409
93.0646
90.4408
90.7291
86.5131
87.089
78.03
75.19
50.4711
80.3564
79.5191
78.4469
77.3129
76.2912
75.5012
75.0597
74.8795
74.9357
75.2476
75.5995
75.9
76.0649
76.3792
76.9509
77.4509
77.6564
77.8586
78.1356
78.5071
78.8674
79.2854
79.732
80.1868
80.6619
81.1448
81.603
82.0581
82.4965
82.8916
83.2214
83.5073
83.7308
83.9192
84.0197
84.1441
84.1481
84.1655
84.0875
84.1204
84.6323
85.3086
86.344
87.4845
88.7453
89.8787
90.9429
91.7771
92.4736
92.9961
93.3976
93.6211
93.7594
93.8453
93.9449
93.9506
94.1042
94.0636
94.3162
94.3094
94.6093
94.6703
94.9175
94.9625
95.124
95.0234
95.0901
94.8133
94.9053
94.5226
94.7074
94.2666
94.5237
93.9509
94.4228
93.8785
94.6026
94.0631
94.9801
94.3808
95.4766
94.75
95.9383
94.8406
96.0341
94.4932
95.7581
93.8277
95.1807
92.8612
94.1563
91.4493
92.4323
89.0821
89.4932
84.4779
84.6936
75.0081
69.4967
50.411
80.7707
80.047
79.1172
78.0238
77.0548
76.3454
75.9651
75.8581
75.9556
76.2511
76.6097
76.9339
77.1574
77.4457
77.9234
78.4109
78.6467
78.8131
79.032
79.3371
79.6331
79.9625
80.3039
80.646
81.0084
81.381
81.7392
82.0952
82.438
82.7395
82.9809
83.1929
83.3666
83.5361
83.6559
83.8142
83.8311
83.8596
83.7256
83.8025
84.3448
85.0766
86.2795
87.5374
88.9382
90.1908
91.3599
92.265
93.0711
93.6437
94.1127
94.3082
94.4661
94.4914
94.5936
94.5479
94.6766
94.5657
94.7794
94.6873
94.9373
94.9258
95.0964
95.0798
95.1571
95.0222
95.0165
94.735
94.7728
94.3933
94.5388
94.0641
94.284
93.6582
94.1244
93.5311
94.2898
93.6664
94.6244
93.9195
95.0585
94.2658
95.4588
94.3181
95.4685
93.8199
95.0296
92.866
94.2624
91.538
93.1987
89.7811
91.3969
87.1864
88.4195
82.6237
82.1154
72.6498
63.3471
49.9972
81.1358
80.5324
79.7393
78.7135
77.8006
77.1913
76.9024
76.8703
77.0111
77.2955
77.6395
77.975
78.2435
78.5283
78.9274
79.3668
79.6348
79.7868
79.9467
80.1728
80.3995
80.6376
80.8826
81.1312
81.3902
81.6607
81.9287
82.1925
82.4436
82.6571
82.818
82.9711
83.1081
83.2711
83.4212
83.6159
83.6583
83.6726
83.4784
83.6104
84.1634
84.9673
86.3298
87.6853
89.2356
90.6084
91.8751
92.8353
93.7713
94.379
94.9238
95.0872
95.2779
95.2283
95.3332
95.2091
95.3339
95.1187
95.3257
95.1064
95.3501
95.2373
95.3713
95.2681
95.2985
95.0952
95.0465
94.7278
94.7266
94.325
94.4459
93.9215
94.1125
93.4375
93.8897
93.2449
94.0343
93.3249
94.3104
93.4927
94.6689
93.8091
94.9775
93.864
94.8874
93.294
94.2924
92.1572
93.3051
90.4869
91.8928
88.0743
89.7218
84.6944
86.3536
79.5953
78.5665
70.043
59.3051
50.2789
81.6434
81.0068
80.2027
79.2652
78.4873
78.0258
77.8525
77.881
78.0485
78.322
78.6464
78.983
79.2772
79.5685
79.9119
80.2899
80.5679
80.7251
80.8409
80.987
81.1362
81.2885
81.4578
81.6328
81.8011
81.9868
82.1752
82.3537
82.5144
82.6408
82.7304
82.8399
82.9538
83.1247
83.3109
83.5432
83.6209
83.6017
83.354
83.5526
84.1075
85.0185
86.4895
87.918
89.6217
91.1105
92.4618
93.4651
94.5585
95.1755
95.8057
95.9282
96.167
96.0457
96.1618
95.933
96.0683
95.7109
95.9349
95.5528
95.8366
95.5946
95.7398
95.5323
95.5447
95.2561
95.1855
94.8077
94.7833
94.3304
94.4333
93.8445
94.014
93.2904
93.7182
93.0247
93.8319
93.0486
94.0347
93.1216
94.3077
93.3646
94.5051
93.4239
94.2929
92.8277
93.5646
91.6254
92.3732
89.7839
90.6038
86.9409
87.8548
82.6605
83.2571
76.0171
74.009
66.3531
57.3183
50.622
82.4235
81.6662
80.6026
79.7064
79.104
78.8017
78.7399
78.8251
79.0092
79.2753
79.585
79.9151
80.2198
80.5163
80.8275
81.1487
81.4187
81.5843
81.6761
81.7601
81.84
81.925
82.041
82.1538
82.2417
82.3572
82.475
82.5692
82.6424
82.6888
82.7184
82.7917
82.8945
83.0866
83.3163
83.5864
83.6911
83.6516
83.3672
83.6321
84.1813
85.2156
86.7434
88.2446
90.084
91.6731
93.1042
94.1307
95.4012
96.0021
96.7155
96.8078
97.115
96.9276
97.0552
96.7281
96.8687
96.3839
96.6117
96.0564
96.3987
96.0026
96.1976
95.8759
95.8922
95.5107
95.4369
94.9894
94.9537
94.433
94.5124
93.8632
94.0077
93.2423
93.6262
92.9014
93.6888
92.8545
93.8017
92.8401
93.9648
92.9668
94.0405
92.9826
93.6682
92.3049
92.7712
90.942
91.3376
88.8884
89.1795
85.8258
85.7625
81.1012
80.0333
73.7876
70.3189
64.1339
56.6028
50.3034
82.9923
82.1866
80.9919
80.122
79.6562
79.4976
79.5444
79.6905
79.8915
80.149
80.4428
80.7603
81.0664
81.3634
81.6568
81.9374
82.1835
82.3463
82.4279
82.4813
82.518
82.564
82.6462
82.7009
82.7159
82.7715
82.8209
82.8352
82.828
82.8037
82.783
82.8258
82.9244
83.1453
83.421
83.7267
83.8437
83.8162
83.5291
83.8387
84.3819
85.525
87.0833
88.6781
90.6047
92.2827
93.7663
94.8211
96.2718
96.8386
97.6329
97.691
98.0753
97.8439
97.9889
97.5859
97.7302
97.1518
97.3647
96.6568
97.0396
96.4668
96.7446
96.2891
96.3394
95.8632
95.8041
95.2799
95.2435
94.6476
94.7032
94.0018
94.1172
93.3204
93.6379
92.9131
93.6219
92.7732
93.6308
92.6836
93.66
92.686
93.5947
92.59
93.0251
91.7706
91.9088
90.1713
90.1955
87.8458
87.6341
84.5376
83.5683
79.689
77.1496
72.7599
68.2907
63.9164
56.4639
50.0843
83.4185
82.6323
81.4128
80.5748
80.1988
80.1524
80.2875
80.4844
80.6973
80.9417
81.2185
81.5202
81.8236
82.1184
82.3988
82.6508
82.8682
83.0198
83.1005
83.1483
83.1723
83.2084
83.2693
83.2681
83.217
83.2196
83.2044
83.1474
83.0646
82.9732
82.9118
82.9355
83.0426
83.2981
83.6171
83.9492
84.0737
84.0873
83.8438
84.1769
84.7147
85.9489
87.5173
89.2154
91.1599
92.9191
94.4284
95.53
97.1344
97.6564
98.539
98.5631
99.0337
98.7611
98.9276
98.4818
98.612
97.9899
98.1675
97.3443
97.7348
96.9954
97.3614
96.7645
96.8766
96.303
96.2794
95.6694
95.6541
94.9759
95.0219
94.2815
94.3593
93.5655
93.789
93.0983
93.6793
92.8564
93.579
92.6907
93.4574
92.5849
93.2172
92.3097
92.4114
91.2974
91.0238
89.4628
88.9933
86.8999
86.0406
83.4203
81.6548
78.6558
75.4968
72.5583
67.7525
64.9325
56.7474
50.6857
83.747
83.0093
81.8291
81.0393
80.7295
80.7598
80.9578
81.1962
81.4243
81.6627
81.9269
82.2144
82.5109
82.8006
83.0678
83.2992
83.4936
83.6357
83.7248
83.7784
83.8039
83.8459
83.8902
83.8358
83.7255
83.6817
83.6067
83.4887
83.3453
83.2047
83.1185
83.1325
83.2609
83.5537
83.9045
84.2534
84.3898
84.4724
84.3124
84.6654
85.1943
86.5012
88.0474
89.8382
91.7344
93.5897
95.0713
96.2752
97.9774
98.4788
99.4087
99.4223
99.9542
99.6619
99.8548
99.3888
99.4984
98.8633
98.9835
98.1062
98.4663
97.605
98.0413
97.3161
97.5047
96.8334
96.8523
96.1662
96.1636
95.434
95.4508
94.7284
94.7237
94.0139
94.0812
93.4912
93.8804
93.1662
93.6931
92.9311
93.446
92.7243
93.037
92.2357
91.9823
91.0181
90.3192
88.9976
87.9926
86.2481
84.7857
82.6945
80.4614
78.262
74.9199
73.1503
68.0707
66.1654
57.5552
51.8639
83.9733
83.3001
82.2184
81.5148
81.2706
81.355
81.5892
81.8535
82.0943
82.3307
82.586
82.8574
83.1418
83.4205
83.6713
83.8863
84.0685
84.2125
84.3115
84.3749
84.4128
84.4666
84.4906
84.3778
84.2114
84.1323
84.0104
83.8458
83.6644
83.4998
83.4061
83.4281
83.5876
83.9142
84.2872
84.6405
84.8099
84.982
84.935
85.3048
85.8227
87.1784
88.6661
90.5283
92.3355
94.3025
95.696
97.0917
98.782
99.3261
100.245
100.277
100.848
100.541
100.755
100.292
100.371
99.7669
99.8045
98.9487
99.2238
98.3169
98.7578
97.961
98.1904
97.4687
97.5013
96.7883
96.7584
96.0514
95.9807
95.3656
95.2021
94.6794
94.4959
94.119
94.2114
93.7505
93.974
93.4493
93.6478
93.117
93.0864
92.428
91.859
91.0621
90.0318
88.9403
87.5064
86.0999
84.2147
82.6552
80.111
78.7379
75.1794
74.3124
68.864
67.1666
58.7241
52.8665
84.1107
83.5242
82.5972
82.0123
81.8321
81.9421
82.1829
82.4508
82.6962
82.9305
83.1776
83.435
83.7045
83.9645
84.1954
84.3992
84.5713
84.7142
84.8291
84.9065
84.9608
85.0347
85.049
84.8848
84.6733
84.5677
84.422
84.235
84.0366
83.868
83.7859
83.833
84.0289
84.3874
84.7654
85.1149
85.3468
85.6249
85.7113
86.0848
86.596
87.9646
89.3831
91.2942
92.9843
95.083
96.3425
97.9984
99.5663
100.209
101.006
101.168
101.674
101.419
101.626
101.203
101.238
100.714
100.635
99.8975
99.9953
99.1722
99.5003
98.7301
98.9264
98.2243
98.2105
97.5487
97.4212
96.8319
96.597
96.1776
95.7763
95.5297
95.0078
94.9603
94.646
94.5812
94.3833
94.231
93.9846
93.7769
93.2894
92.9549
92.0223
91.5655
90.1603
89.4307
87.5545
86.6187
84.2929
83.408
80.4664
79.9465
75.9743
75.6421
69.8571
67.8312
59.8121
53.5532
84.1457
83.6649
82.9491
82.511
82.3952
82.5116
82.7351
82.9859
83.225
83.4541
83.6916
83.9344
84.1823
84.4186
84.6305
84.8239
84.9954
85.1491
85.2777
85.3612
85.4286
85.5237
85.5383
85.3437
85.106
84.9809
84.8366
84.6567
84.4687
84.322
84.2734
84.3613
84.6017
84.9775
85.3477
85.6924
86.008
86.397
86.6231
86.9936
87.5076
88.8296
90.1771
92.1279
93.685
95.92
97.0302
98.9945
100.303
101.139
101.735
102.126
102.459
102.327
102.449
102.129
102.079
101.693
101.466
100.933
100.778
100.162
100.234
99.6301
99.6712
99.0962
98.9543
98.4319
98.1307
97.736
97.2719
97.1005
96.4166
96.481
95.5902
95.9191
95.1379
95.5394
94.8501
95.1721
94.395
94.6588
93.6363
93.8203
92.418
92.5428
90.5972
90.4701
88.0167
87.7866
84.8723
84.7891
81.2945
81.4292
77.003
76.7265
70.7492
68.1541
60.6532
54.1103
84.1064
83.7591
83.2935
83.0042
82.9282
83.0232
83.2124
83.4357
83.6605
83.8789
84.1005
84.3222
84.5441
84.7578
84.9581
85.1502
85.3282
85.4944
85.6354
85.7258
85.8071
85.9236
85.9472
85.7524
85.5175
85.3879
85.2606
85.106
84.9541
84.8576
84.868
85.0159
85.3012
85.6845
86.0415
86.3842
86.7871
87.2723
87.6263
88.0015
88.5292
89.7483
91.0372
93.0021
94.417
96.7874
97.7191
100.017
101.069
102.066
102.482
103.155
103.199
103.298
103.204
103.06
102.855
102.674
102.242
102.016
101.545
101.261
100.966
100.646
100.408
100.059
99.6937
99.3947
98.8419
98.7127
97.9581
98.0831
97.0806
97.4679
96.2133
96.8984
95.6637
96.4958
95.3356
96.1411
94.8548
95.668
94.1048
94.9567
92.9772
93.8316
91.2349
91.851
88.7568
89.2999
85.7601
86.3432
82.3212
82.739
77.9753
77.4077
71.4079
68.2145
61.2765
54.6839
84.0309
83.8202
83.5992
83.4268
83.3656
83.4312
83.5821
83.7732
83.9777
84.1822
84.3894
84.5964
84.802
85.0008
85.1919
85.3805
85.5652
85.7449
85.9009
86.0061
86.1111
86.248
86.28
86.1083
85.9056
85.7921
85.695
85.5885
85.4991
85.4753
85.5603
85.7739
86.0993
86.4833
86.8194
87.1693
87.6436
88.2004
88.6608
89.0576
89.5999
90.6926
91.9511
93.881
95.1673
97.6525
98.3717
100.972
101.761
102.951
103.065
104.167
103.852
104.29
103.835
103.977
103.489
103.602
102.887
103.021
102.202
102.333
101.623
101.689
101.078
101.049
100.364
100.377
99.5031
99.699
98.6143
99.0509
97.7287
98.408
96.8426
97.8176
96.2111
97.3954
95.8207
97.0892
95.3308
96.7311
94.6196
96.2063
93.6156
95.1724
91.9631
93.2873
89.6302
90.8348
86.7498
87.7773
83.3119
83.7357
78.7591
77.7222
71.8886
68.1526
61.7571
55.2925
84.0628
83.9164
83.8163
83.7168
83.6686
83.7129
83.8325
83.9957
84.1816
84.3752
84.5733
84.7696
84.9618
85.1498
85.3358
85.5254
85.7185
85.9112
86.0864
86.2201
86.3564
86.5084
86.5524
86.4244
86.2735
86.1932
86.1421
86.1007
86.0886
86.1496
86.3132
86.5855
86.9361
87.3033
87.6142
87.9744
88.4933
89.0979
89.6375
90.0776
90.6368
91.6029
92.8382
94.6798
95.8592
98.4472
99.0063
101.826
102.248
103.9
103.593
105.009
104.386
105.127
104.342
104.839
103.993
104.453
103.399
103.878
102.737
103.24
102.172
102.653
101.656
102.021
100.969
101.336
100.104
100.624
99.1973
99.9312
98.3018
99.2574
97.4143
98.6616
96.7296
98.2527
96.2737
98.0128
95.7924
97.771
95.14
97.3591
94.2382
96.3417
92.6685
94.554
90.4829
92.1563
87.6694
88.9407
84.1445
84.4226
79.3489
77.7958
72.2739
68.1087
62.1335
55.9139
84.1375
84.0289
83.9587
83.8838
83.8461
83.8789
83.9763
84.1194
84.2921
84.4783
84.6689
84.8567
85.0405
85.223
85.408
85.6012
85.8081
86.02
86.2177
86.3847
86.5554
86.7218
86.7807
86.7041
86.6123
86.5767
86.5772
86.6029
86.6692
86.8073
87.0346
87.3443
87.6991
88.0359
88.3221
88.684
89.2095
89.8338
90.428
90.9365
91.5348
92.4122
93.6099
95.3204
96.447
99.0869
99.5223
102.537
102.531
104.667
104.056
105.58
104.759
105.798
104.727
105.52
104.344
105.092
103.744
104.503
103.111
103.924
102.574
103.418
102.079
102.832
101.407
102.135
100.535
101.373
99.6105
100.635
98.7102
99.9454
97.8349
99.3698
97.129
98.9895
96.6447
98.8009
96.1952
98.6401
95.6231
98.2461
94.7645
97.2381
93.2789
95.5366
91.2069
93.1691
88.4056
89.7964
84.7656
84.8624
79.7654
77.775
72.5755
68.1292
62.4103
56.4917
84.2225
84.1229
84.0354
83.9609
83.926
83.95
84.0327
84.1634
84.3287
84.5126
84.7014
84.8884
85.0713
85.2548
85.4452
85.6472
85.8655
86.0937
86.3138
86.5133
86.7112
86.8871
86.9625
86.9341
86.8962
86.9014
86.944
87.0184
87.1379
87.3235
87.5825
87.8997
88.2371
88.5444
88.8136
89.1636
89.6755
90.2969
90.9264
91.5067
92.1654
93.0236
94.2029
95.7757
96.894
99.5403
99.8097
103.061
102.783
105.023
104.299
105.977
105.053
106.234
104.958
105.935
104.579
105.445
103.958
104.839
103.332
104.354
102.833
103.925
102.371
103.377
101.701
102.669
100.807
101.862
99.8531
101.087
98.9399
100.387
98.0698
99.8185
97.356
99.4478
96.8697
99.2841
96.4584
99.1715
95.9358
98.7585
95.0708
97.7554
93.6719
96.1053
91.6821
93.7649
88.8952
90.2941
85.1934
85.0859
80.1321
77.7123
72.8375
68.1688
62.5778
56.9166
84.3762
84.1939
84.0628
83.9808
83.9438
83.9629
84.04
84.1662
84.3278
84.5096
84.6971
84.884
85.0707
85.2604
85.4593
85.672
85.9025
86.1426
86.3755
86.5908
86.7987
86.9766
87.0612
87.0566
87.0418
87.0615
87.1167
87.2059
87.3408
87.538
87.8005
88.1117
88.4375
88.7396
89.0102
89.3624
89.8632
90.4726
91.1052
91.7276
92.4513
93.321
94.4872
95.9997
97.1163
99.7502
100.018
103.305
102.927
105.166
104.434
106.243
105.127
106.384
105.065
106.104
104.68
105.573
104.059
104.979
103.433
104.54
102.944
104.147
102.472
103.605
101.786
102.872
100.88
102.04
99.9134
101.246
98.9901
100.536
98.1228
99.9694
97.4109
99.6082
96.918
99.4583
96.5081
99.3673
95.9845
98.9447
95.1022
97.9395
93.7216
96.3088
91.7661
93.9798
89.0096
90.4719
85.309
85.1486
80.214
77.6379
72.8772
68.1442
62.6056
56.8822
80.8412
80.4445
79.3611
77.7226
76.3947
75.2656
74.4155
74.0569
73.7378
73.6143
73.8735
74.6213
75.767
76.9214
77.9106
78.8376
79.748
80.5918
81.2957
82.0005
82.9934
84.2891
85.7896
87.3825
88.9779
90.5888
92.207
93.7392
95.2739
96.85
98.6419
100.5
102.481
104.054
105.379
106.009
106.268
106.08
105.663
105.065
104.526
103.89
103.378
102.798
102.39
102.025
101.918
101.744
101.741
101.578
101.587
101.468
101.485
101.391
101.381
101.306
101.271
101.219
101.211
101.224
101.342
101.511
101.771
101.996
102.177
102.252
102.224
102.109
101.945
101.743
101.536
101.32
101.117
100.922
100.752
100.599
100.473
100.367
100.287
100.228
100.192
100.173
100.169
100.179
100.2
100.232
100.275
100.329
100.389
100.455
100.525
100.607
100.694
100.749
100.754
100.81
100.927
101.182
102.028
103.094
80.7808
80.3351
79.1723
77.4975
76.1409
75.0155
74.1972
73.8523
73.4991
73.3624
73.6228
74.3749
75.5303
76.6766
77.6397
78.5694
79.4963
80.3421
81.0269
81.7346
82.7356
84.0438
85.5051
87.0231
88.5812
90.2008
91.8496
93.4129
94.9682
96.5497
98.3579
100.21
102.191
103.804
105.121
105.792
106.052
105.906
105.487
104.924
104.387
103.796
103.281
102.727
102.321
101.966
101.868
101.709
101.717
101.551
101.568
101.437
101.459
101.356
101.346
101.265
101.229
101.171
101.167
101.18
101.307
101.479
101.749
101.98
102.167
102.247
102.221
102.106
101.941
101.738
101.53
101.314
101.11
100.915
100.745
100.592
100.466
100.36
100.281
100.222
100.187
100.168
100.165
100.175
100.197
100.229
100.274
100.327
100.388
100.452
100.522
100.601
100.69
100.744
100.745
100.771
100.818
101.007
101.846
102.89
80.6654
80.1208
78.8078
77.0444
75.6403
74.4796
73.7282
73.4156
73.0351
72.8592
73.1077
73.8508
74.9804
76.0818
76.9916
77.8892
78.8029
79.6169
80.2831
81.0207
82.0989
83.4387
84.8277
86.2086
87.6953
89.3172
91.0551
92.7041
94.3106
95.9056
97.7553
99.5954
101.564
103.257
104.545
105.302
105.558
105.473
105.074
104.543
104.03
103.496
102.99
102.47
102.08
101.749
101.663
101.541
101.566
101.423
101.463
101.329
101.363
101.256
101.239
101.146
101.108
101.045
101.048
101.065
101.208
101.393
101.677
101.928
102.127
102.222
102.202
102.09
101.926
101.722
101.514
101.296
101.092
100.896
100.727
100.572
100.447
100.34
100.261
100.203
100.166
100.148
100.144
100.155
100.176
100.209
100.253
100.308
100.368
100.435
100.5
100.577
100.667
100.744
100.751
100.737
100.641
100.732
101.525
102.576
80.4857
79.8436
78.349
76.4894
75.0401
73.8028
73.1078
72.7843
72.3502
72.1564
72.4063
73.1019
74.1385
75.1682
76.0527
76.9181
77.7892
78.5336
79.1614
79.9418
81.116
82.4943
83.8547
85.1172
86.5375
88.1607
89.9997
91.7565
93.4423
95.0652
96.9624
98.8214
100.738
102.51
103.788
104.617
104.888
104.856
104.49
103.989
103.502
103.02
102.532
102.026
101.663
101.358
101.285
101.208
101.262
101.152
101.229
101.101
101.154
101.05
101.017
100.921
100.872
100.813
100.825
100.855
101.02
101.232
101.535
101.819
102.036
102.154
102.148
102.041
101.882
101.68
101.475
101.257
101.056
100.858
100.69
100.533
100.408
100.3
100.22
100.16
100.125
100.104
100.1
100.108
100.13
100.162
100.208
100.261
100.324
100.389
100.458
100.528
100.629
100.731
100.772
100.715
100.479
100.451
101.192
102.235
80.2601
79.5267
77.8638
75.9174
74.4106
73.0798
72.3862
72.0016
71.4687
71.2141
71.4092
72.0392
72.9928
73.9743
74.8827
75.7391
76.5601
77.2397
77.8431
78.6735
79.9183
81.3227
82.6944
83.8904
85.2666
86.9398
88.9066
90.7813
92.5491
94.1967
96.1084
97.9776
99.8239
101.636
102.917
103.792
104.088
104.102
103.78
103.316
102.85
102.419
101.942
101.46
101.129
100.842
100.79
100.741
100.846
100.753
100.87
100.751
100.818
100.725
100.675
100.576
100.52
100.465
100.496
100.543
100.741
100.992
101.316
101.646
101.885
102.036
102.048
101.951
101.799
101.601
101.401
101.187
100.991
100.794
100.629
100.471
100.346
100.235
100.156
100.093
100.056
100.033
100.027
100.032
100.051
100.083
100.126
100.181
100.244
100.314
100.381
100.459
100.558
100.693
100.755
100.701
100.329
100.217
100.901
101.965
80.0237
79.2248
77.418
75.4008
73.8288
72.3801
71.6119
71.0851
70.3852
70.0109
70.0814
70.6329
71.5721
72.5627
73.5517
74.4281
75.2324
75.8984
76.51
77.372
78.6413
80.08
81.4834
82.6696
84.03
85.7974
87.9041
89.8917
91.7197
93.3703
95.2525
97.1013
98.8582
100.667
101.945
102.829
103.155
103.208
102.95
102.516
102.075
101.696
101.257
100.824
100.51
100.247
100.216
100.186
100.337
100.249
100.412
100.305
100.386
100.316
100.254
100.148
100.091
100.032
100.083
100.151
100.381
100.674
101.021
101.403
101.676
101.865
101.907
101.823
101.682
101.487
101.294
101.083
100.894
100.698
100.538
100.382
100.26
100.148
100.067
100.003
99.9635
99.9382
99.9268
99.9292
99.9428
99.9709
100.01
100.062
100.124
100.196
100.27
100.354
100.465
100.605
100.705
100.652
100.249
100.068
100.778
101.812
79.8171
78.9719
77.0371
74.9597
73.3097
71.7335
70.7978
70.0165
69.1052
68.5366
68.4672
68.9541
69.9714
71.051
72.1543
73.0808
73.9174
74.6341
75.2916
76.1809
77.459
78.9331
80.3666
81.5611
82.9219
84.7966
87.0259
89.0906
90.957
92.5928
94.4221
96.2316
97.8808
99.6377
100.906
101.767
102.122
102.206
102.01
101.611
101.202
100.874
100.494
100.094
99.8002
99.5768
99.5576
99.5554
99.7296
99.6654
99.8569
99.7716
99.8569
99.814
99.7356
99.626
99.5573
99.5115
99.5792
99.6881
99.9432
100.293
100.668
101.098
101.412
101.64
101.718
101.652
101.528
101.338
101.155
100.946
100.766
100.573
100.422
100.265
100.15
100.036
99.9591
99.891
99.8525
99.8209
99.8079
99.8017
99.8116
99.8297
99.8645
99.9072
99.9667
100.033
100.114
100.206
100.327
100.478
100.586
100.577
100.196
100.057
100.743
101.842
79.6562
78.7717
76.7154
74.5726
72.8327
71.1195
69.9295
68.8373
67.7203
66.9278
66.7335
67.171
68.3213
69.5682
70.7802
71.7876
72.6929
73.5071
74.2537
75.1797
76.4766
77.9853
79.4443
80.6462
82.0112
83.9716
86.2744
88.3584
90.2496
91.8683
93.628
95.3614
96.9015
98.5657
99.8039
100.64
101.017
101.123
100.983
100.625
100.249
99.967
99.6435
99.2684
99.0096
98.8168
98.8186
98.8402
99.0367
99.0104
99.2127
99.1522
99.2202
99.2021
99.0824
98.9855
98.9051
98.8933
98.9931
99.1582
99.463
99.8677
100.277
100.743
101.1
101.364
101.478
101.433
101.328
101.146
100.976
100.772
100.605
100.415
100.274
100.12
100.013
99.8996
99.8264
99.7582
99.7199
99.6864
99.6685
99.6578
99.6587
99.6708
99.6925
99.7283
99.7737
99.8368
99.9107
100.012
100.134
100.294
100.416
100.443
100.182
100.114
100.899
101.885
79.5367
78.6004
76.4346
74.2131
72.3536
70.4978
68.9904
67.6145
66.3612
65.3794
65.0618
65.4661
66.7476
68.2138
69.518
70.61
71.6102
72.5584
73.4334
74.4202
75.7408
77.2705
78.7441
79.9543
81.3183
83.3241
85.6337
87.7013
89.5862
91.1695
92.8542
94.4648
95.9046
97.4658
98.6587
99.4711
99.856
99.9774
99.8817
99.5651
99.2202
98.9789
98.7106
98.3788
98.1646
98.0041
98.035
98.0631
98.2891
98.284
98.488
98.4552
98.4878
98.4939
98.3436
98.2857
98.218
98.2516
98.3982
98.6196
98.9654
99.4106
99.8502
100.346
100.747
101.04
101.195
101.17
101.085
100.911
100.755
100.559
100.404
100.22
100.089
99.9415
99.8421
99.7345
99.6668
99.6016
99.5653
99.5312
99.5107
99.495
99.4895
99.4924
99.5044
99.5258
99.5599
99.6059
99.6737
99.7633
99.8901
100.043
100.189
100.26
100.144
100.2
100.993
102.168
79.4265
78.424
76.1591
73.8414
71.8264
69.8305
68.0119
66.4197
65.112
63.9943
63.5938
63.9718
65.3736
67.0603
68.4286
69.5999
70.7233
71.8206
72.8389
73.8969
75.2489
76.7867
78.2504
79.473
80.8261
82.824
85.0777
87.0933
88.9265
90.4634
92.0616
93.545
94.8898
96.3518
97.4864
98.2754
98.6578
98.7868
98.7203
98.443
98.1327
97.9177
97.7081
97.4379
97.2628
97.1465
97.2037
97.2526
97.5007
97.5013
97.7028
97.6925
97.6841
97.7211
97.5648
97.5596
97.5117
97.5965
97.7745
98.0537
98.4218
98.9152
99.3938
99.9104
100.355
100.669
100.865
100.858
100.795
100.629
100.49
100.301
100.162
99.9835
99.8651
99.7232
99.6382
99.5367
99.4815
99.4183
99.3894
99.3533
99.3347
99.3118
99.3029
99.295
99.2982
99.3048
99.3234
99.3532
99.4005
99.4781
99.5829
99.7367
99.8912
100.028
100.06
100.286
101.218
102.241
79.2872
78.1995
75.86
73.4289
71.2432
69.1308
67.0747
65.3498
64.0593
62.8624
62.4411
62.814
64.3274
66.1991
67.5839
68.8195
70.067
71.2955
72.4467
73.5743
74.9591
76.5056
77.9383
79.1679
80.5029
82.4342
84.5665
86.491
88.2417
89.726
91.2215
92.5956
93.8566
95.2249
96.2996
97.065
97.4319
97.5574
97.5056
97.2668
96.9933
96.8046
96.6388
96.4337
96.318
96.2514
96.333
96.419
96.6709
96.6863
96.8786
96.8738
96.8269
96.8952
96.7325
96.7824
96.7506
96.8999
97.1117
97.4505
97.8582
98.3882
98.9085
99.4352
99.9212
100.252
100.484
100.494
100.453
100.297
100.176
99.9956
99.8739
99.7017
99.5988
99.4657
99.3953
99.3053
99.2627
99.2094
99.1869
99.1555
99.1362
99.1116
99.0958
99.0817
99.0712
99.0673
99.0656
99.0788
99.1001
99.1537
99.2363
99.3654
99.5371
99.7179
99.9139
100.275
101.272
102.578
79.0631
77.8967
75.5197
73.0012
70.6615
68.4837
66.321
64.5513
63.3323
62.157
61.7637
62.1272
63.6952
65.6808
67.044
68.3099
69.6612
70.9971
72.2494
73.4338
74.8248
76.366
77.7577
78.9946
80.3036
82.1283
84.0841
85.8844
87.531
88.9475
90.3369
91.629
92.8306
94.1046
95.1192
95.8543
96.1958
96.3077
96.2558
96.0474
95.8131
95.6549
95.5353
95.4035
95.3523
95.3344
95.4494
95.57
95.826
95.8661
96.0311
96.0132
95.9513
96.0251
95.8855
95.9665
95.9958
96.1877
96.451
96.8315
97.2801
97.8344
98.398
98.9318
99.4555
99.7989
100.064
100.084
100.066
99.9177
99.814
99.6413
99.5384
99.3765
99.291
99.1705
99.1156
99.0375
99.0107
98.9696
98.9598
98.9357
98.9204
98.8945
98.8744
98.8514
98.8307
98.8095
98.7914
98.7783
98.7756
98.7965
98.8487
98.9521
99.1121
99.3429
99.6611
100.239
101.328
102.377
78.7392
77.498
75.1317
72.5934
70.2056
68.0186
65.8962
64.1616
63.0631
61.9887
61.6431
61.9703
63.524
65.5393
66.8635
68.1057
69.522
70.9238
72.2262
73.4461
74.8071
76.321
77.6518
78.8919
80.1604
81.8435
83.608
85.277
86.8132
88.1601
89.4577
90.6821
91.8347
93.0095
93.956
94.6507
94.9599
95.0509
94.9899
94.8106
94.6129
94.486
94.4108
94.3561
94.3802
94.4238
94.5813
94.733
94.9928
95.0476
95.1862
95.1587
95.1049
95.1726
95.0958
95.1879
95.2851
95.4955
95.8005
96.2122
96.6974
97.2713
97.8799
98.4176
98.9685
99.3166
99.6054
99.6311
99.6349
99.4936
99.4086
99.2431
99.1599
99.0117
98.9471
98.8395
98.8027
98.7382
98.729
98.7038
98.7087
98.698
98.6896
98.6662
98.6416
98.6111
98.5765
98.5399
98.4981
98.4617
98.425
98.4123
98.4242
98.4864
98.6266
98.8565
99.2605
99.891
100.963
102.311
78.3511
77.0624
74.7687
72.2517
69.9542
67.8244
65.8738
64.2393
63.2836
62.3697
62.0666
62.3473
63.8224
65.789
67.0524
68.216
69.6339
71.0519
72.3614
73.5952
74.8938
76.3452
77.5973
78.8147
80.0348
81.5596
83.1418
84.6866
86.1152
87.3942
88.6127
89.7735
90.8772
91.949
92.8183
93.4545
93.7291
93.7935
93.7164
93.5573
93.3962
93.3157
93.2955
93.3245
93.4285
93.5451
93.749
93.9332
94.1912
94.2538
94.3719
94.3464
94.3206
94.3971
94.3923
94.4867
94.6371
94.8551
95.197
95.6283
96.1453
96.7235
97.3654
97.8981
98.4684
98.8104
99.1191
99.144
99.171
99.0289
98.9639
98.8027
98.7471
98.6109
98.5714
98.4784
98.4627
98.4143
98.4252
98.4184
98.4416
98.4456
98.4495
98.43
98.4045
98.3637
98.3165
98.2585
98.1956
98.126
98.0598
97.9987
97.9711
97.9759
98.0703
98.2774
98.6861
99.4031
100.498
101.556
78.0194
76.6826
74.5147
72.053
69.9288
67.9617
66.2413
64.7626
63.9601
63.2495
62.9936
63.2265
64.5452
66.3916
67.5752
68.6274
69.9871
71.3688
72.6344
73.8406
75.0571
76.4143
77.5893
78.7636
79.9302
81.2962
82.7075
84.1272
85.4512
86.6649
87.8153
88.9155
89.9647
90.9296
91.7112
92.2685
92.505
92.5436
92.4525
92.3107
92.1927
92.1669
92.212
92.3304
92.5215
92.7242
92.976
93.19
93.4416
93.5132
93.6216
93.6182
93.6261
93.7219
93.7741
93.8772
94.0711
94.2994
94.6621
95.0967
95.6335
96.2012
96.8699
97.3864
97.9694
98.2884
98.6144
98.6276
98.6782
98.5241
98.4896
98.3318
98.3171
98.1881
98.1779
98.0942
98.1066
98.0709
98.1084
98.1172
98.1667
98.183
98.2059
98.1887
98.1668
98.1126
98.0541
97.9706
97.8847
97.7782
97.6749