/*--------------------------------*- C++ -*----------------------------------*\
| =========                 |                                                 |
| \\      /  F ield         | OpenFOAM: The Open Source CFD Toolbox           |
|  \\    /   O peration     | Version:  2.4.0                                 |
|   \\  /    A nd           | Web:      www.OpenFOAM.org                      |
|    \\/     M anipulation  |                                                 |
\*---------------------------------------------------------------------------*/
FoamFile
{
    version     2.0;
    format      ascii;
    class       volVectorField;
    location    "0.054";
    object      U;
}
// * * * * * * * * * * * * * * * * * * * * * * * * * * * * * * * * * * * * * //

dimensions      [0 1 -1 0 0 0 0];

internalField   nonuniform List<vector> 
4400
(
(5.40311 0.316858 0)
(3.31958 0.0606915 0)
(2.57958 0.00151401 0)
(2.2425 -0.00232022 0)
(2.07721 -0.0011481 0)
(2.01334 -0.00134896 0)
(1.96188 -0.000137665 0)
(1.9533 -0.00166855 0)
(2.00205 -0.00103228 0)
(1.80185 -0.0490489 0)
(8.67855 0.857141 0)
(7.55652 0.34438 0)
(6.61106 0.116605 0)
(5.93651 0.0536944 0)
(5.50418 0.0277235 0)
(5.31005 0.0118793 0)
(5.15079 0.0103503 0)
(5.09964 -0.00461447 0)
(5.1449 0.00286372 0)
(4.87264 -0.0528692 0)
(9.87559 0.936784 0)
(10.022 0.477183 0)
(9.46025 0.214007 0)
(8.79361 0.127193 0)
(8.23964 0.0770285 0)
(7.96584 0.0378919 0)
(7.72554 0.0298454 0)
(7.65678 -0.00208102 0)
(7.64315 0.00621624 0)
(7.29268 -0.0674369 0)
(10.0889 0.8056 0)
(11.1641 0.497845 0)
(11.2294 0.267639 0)
(10.8825 0.192734 0)
(10.4056 0.133965 0)
(10.1448 0.0730921 0)
(9.87281 0.0545167 0)
(9.84488 0.00567087 0)
(9.73032 0.0195856 0)
(9.34105 -0.110193 0)
(9.98741 0.644844 0)
(11.393 0.435542 0)
(11.9336 0.249932 0)
(12.035 0.211885 0)
(11.8318 0.170782 0)
(11.7117 0.10425 0)
(11.5021 0.0754798 0)
(11.5836 0.0171039 0)
(11.3691 0.0423429 0)
(11.0715 -0.177591 0)
(9.92564 0.514044 0)
(11.3051 0.355737 0)
(11.994 0.191937 0)
(12.3447 0.178138 0)
(12.4312 0.166569 0)
(12.4857 0.109736 0)
(12.4777 0.0782734 0)
(12.7194 0.0216373 0)
(12.4533 0.0624156 0)
(12.4116 -0.221101 0)
(9.94525 0.399694 0)
(11.1881 0.279104 0)
(11.9232 0.141966 0)
(12.3127 0.128799 0)
(12.5512 0.138162 0)
(12.5849 0.0877872 0)
(12.8357 0.0477743 0)
(13.1353 0.0203175 0)
(12.9118 0.0489826 0)
(13.2651 -0.225377 0)
(9.98604 0.284615 0)
(11.1298 0.20641 0)
(11.8642 0.0881071 0)
(12.2693 0.0809424 0)
(12.4933 0.112634 0)
(12.5331 0.0668778 0)
(12.9381 0.00131164 0)
(13.0182 0.0207924 0)
(13.0193 0.00299694 0)
(13.6406 -0.277538 0)
(9.99777 0.177324 0)
(11.1275 0.116918 0)
(11.8543 0.0550212 0)
(12.2143 0.0383493 0)
(12.3691 0.0841337 0)
(12.6347 0.0176737 0)
(12.9041 -0.0143836 0)
(12.815 0.00753755 0)
(13.2121 -0.0554934 0)
(13.5235 -0.330938 0)
(9.99628 0.062417 0)
(11.1223 0.0350626 0)
(11.8619 0.0132259 0)
(12.1601 0.00591134 0)
(12.3645 0.0388689 0)
(12.6819 -0.0101246 0)
(12.7632 -0.0259173 0)
(12.8742 -0.0258348 0)
(13.2814 -0.105141 0)
(13.136 -0.308306 0)
(9.98606 -0.0456153 0)
(11.1301 -0.0576481 0)
(11.876 -0.0117874 0)
(12.1385 -0.0306709 0)
(12.3958 -0.00928913 0)
(12.6438 -0.0406021 0)
(12.7552 -0.0476421 0)
(12.9628 -0.0605408 0)
(13.1373 -0.117652 0)
(13.103 -0.318614 0)
(9.98938 -0.159341 0)
(11.157 -0.143134 0)
(11.8761 -0.0484656 0)
(12.1623 -0.0683575 0)
(12.4292 -0.0501549 0)
(12.6288 -0.0641199 0)
(12.7972 -0.0726739 0)
(12.9355 -0.0832896 0)
(13.0718 -0.141939 0)
(13.2637 -0.376306 0)
(10.0306 -0.272242 0)
(11.1627 -0.229579 0)
(11.9135 -0.0806614 0)
(12.1964 -0.106045 0)
(12.493 -0.096365 0)
(12.6102 -0.0902345 0)
(12.8249 -0.0943881 0)
(12.879 -0.101429 0)
(13.1089 -0.173279 0)
(13.2215 -0.375979 0)
(10.0735 -0.392063 0)
(11.1654 -0.302391 0)
(11.9936 -0.126983 0)
(12.228 -0.148404 0)
(12.5511 -0.133755 0)
(12.5709 -0.108538 0)
(12.8314 -0.114403 0)
(12.7858 -0.123728 0)
(13.025 -0.195854 0)
(12.92 -0.383899 0)
(10.0779 -0.515153 0)
(11.2198 -0.36909 0)
(12.0628 -0.180248 0)
(12.2366 -0.189417 0)
(12.4755 -0.167824 0)
(12.3761 -0.127402 0)
(12.542 -0.127015 0)
(12.3275 -0.129641 0)
(12.4295 -0.198963 0)
(12.0382 -0.349427 0)
(10.0987 -0.64779 0)
(11.2917 -0.441198 0)
(11.994 -0.240646 0)
(11.9414 -0.221087 0)
(11.8878 -0.174598 0)
(11.5819 -0.120524 0)
(11.5587 -0.112785 0)
(11.2034 -0.111638 0)
(11.1727 -0.17305 0)
(10.5834 -0.275621 0)
(10.1525 -0.808121 0)
(11.0839 -0.50062 0)
(11.2824 -0.262466 0)
(10.8088 -0.200064 0)
(10.4521 -0.137191 0)
(10.023 -0.086993 0)
(9.89328 -0.0801966 0)
(9.49818 -0.0808288 0)
(9.40035 -0.131667 0)
(8.73108 -0.195273 0)
(9.90705 -0.937495 0)
(9.96759 -0.478518 0)
(9.50122 -0.211274 0)
(8.73995 -0.131799 0)
(8.26816 -0.0792355 0)
(7.86228 -0.047869 0)
(7.71006 -0.04572 0)
(7.35826 -0.0493549 0)
(7.23279 -0.0845151 0)
(6.57407 -0.118611 0)
(8.69309 -0.857467 0)
(7.52665 -0.345211 0)
(6.634 -0.115517 0)
(5.90312 -0.0560701 0)
(5.51484 -0.0287545 0)
(5.23353 -0.0171635 0)
(5.11318 -0.0183866 0)
(4.86081 -0.0224205 0)
(4.73288 -0.0397824 0)
(4.19704 -0.0562458 0)
(5.40569 -0.316724 0)
(3.31134 -0.0607719 0)
(2.58439 -0.0013303 0)
(2.23065 0.00192916 0)
(2.07616 0.00121657 0)
(1.97684 0.000384088 0)
(1.92657 -0.000788134 0)
(1.82186 -0.0018897 0)
(1.73707 -0.00435899 0)
(1.48099 0.00192914 0)
(2.61801 0.111788 0)
(3.36291 0.172791 0)
(4.43857 -0.0501079 0)
(5.44357 -0.878373 0)
(5.86547 -1.78786 0)
(5.79105 -2.38367 0)
(5.386 -2.47749 0)
(4.40624 -2.03874 0)
(3.85192 -1.73228 0)
(2.67857 -1.14436 0)
(2.83199 1.98384 0)
(3.68905 4.42672 0)
(6.64118 3.40352 0)
(7.90888 2.65503 0)
(8.4013 2.0187 0)
(9.90975 0.0348602 0)
(10.2567 -1.85765 0)
(10.5545 -3.12936 0)
(10.8901 -3.86646 0)
(11.4441 -4.37593 0)
(12.46 -5.48456 0)
(13.0001 -6.42811 0)
(12.2919 -6.51211 0)
(12.1876 -6.68486 0)
(12.3466 -7.11381 0)
(11.7867 -7.25175 0)
(10.6896 -6.92816 0)
(9.92845 -6.15008 0)
(9.53442 -5.56836 0)
(9.75428 -4.99056 0)
(10.1758 -3.8728 0)
(10.2799 -2.74641 0)
(10.8025 -1.35523 0)
(11.0071 0.290609 0)
(10.4276 1.41746 0)
(10.3835 2.41759 0)
(10.9481 3.73771 0)
(10.9361 4.78382 0)
(10.3028 5.03999 0)
(9.6445 4.70472 0)
(9.22819 4.06023 0)
(8.795 3.39669 0)
(8.42506 2.55455 0)
(7.84537 1.93465 0)
(7.54 1.16575 0)
(6.91316 1.05435 0)
(6.94727 0.421699 0)
(6.23997 0.870474 0)
(6.67472 -0.0133791 0)
(5.71652 0.942613 0)
(6.57191 -0.389086 0)
(5.32521 1.00938 0)
(6.57118 -0.605676 0)
(5.08806 0.900029 0)
(6.61895 -0.611166 0)
(5.00862 0.680813 0)
(6.55501 -0.55044 0)
(5.19343 0.584447 0)
(6.19995 -0.557423 0)
(5.55594 0.635854 0)
(5.73768 -0.60457 0)
(5.77072 0.718417 0)
(5.45258 -0.661813 0)
(5.79878 0.754699 0)
(5.35545 -0.669144 0)
(5.75621 0.683069 0)
(5.45686 -0.55682 0)
(5.65805 0.608842 0)
(5.59655 -0.496687 0)
(5.65943 0.677366 0)
(5.62596 -0.569433 0)
(5.71554 0.724776 0)
(5.71854 -0.472553 0)
(5.73216 0.642194 0)
(5.86426 -0.361656 0)
(5.75287 0.75868 0)
(5.96998 -0.401325 0)
(5.88831 0.733424 0)
(6.06581 -0.138044 0)
(5.95172 0.73259 0)
(6.22556 -0.0858768 0)
(6.09032 0.809811 0)
(6.21829 0.18956 0)
(6.12767 0.821043 0)
(6.30402 0.333575 0)
(6.07116 0.931284 0)
(6.10781 0.676668 0)
(5.81028 1.02136 0)
(5.85783 0.827279 0)
(5.55395 1.17553 0)
(5.46405 1.10044 0)
(5.39052 1.50016 0)
(5.39761 1.35693 0)
(5.68908 2.08902 0)
(6.06501 2.03798 0)
(5.42287 2.91451 0)
(6.29306 2.83932 0)
(5.42528 4.77142 0)
(6.12476 5.20687 0)
(3.42819 9.4145 0)
(5.53919 -0.0564526 0)
(5.92332 -0.137143 0)
(6.70061 -0.347358 0)
(7.46175 -1.06139 0)
(7.63248 -1.85706 0)
(7.76091 -2.23691 0)
(7.38452 -2.17334 0)
(6.09952 -1.81872 0)
(6.04471 -1.3325 0)
(4.77122 -0.678668 0)
(3.46461 1.52654 0)
(4.86553 3.4071 0)
(7.77179 2.60064 0)
(9.07164 2.14135 0)
(9.81085 1.62522 0)
(11.0061 -0.218911 0)
(11.2139 -2.028 0)
(11.4751 -3.31482 0)
(11.907 -4.10607 0)
(12.6728 -4.72247 0)
(13.5335 -5.70459 0)
(13.2811 -6.3445 0)
(12.3916 -6.31139 0)
(12.2926 -6.60396 0)
(12.0396 -6.98134 0)
(11.178 -6.80763 0)
(9.74969 -6.40291 0)
(8.96595 -5.91318 0)
(8.77833 -5.60055 0)
(9.03323 -5.12757 0)
(9.52174 -3.99478 0)
(9.6299 -2.84556 0)
(10.0082 -1.46505 0)
(10.2666 0.309146 0)
(9.72367 1.53095 0)
(9.52837 2.39278 0)
(10.0324 3.62441 0)
(10.1553 4.80601 0)
(9.69904 5.19869 0)
(9.12517 4.89302 0)
(8.72956 4.22762 0)
(8.31511 3.55933 0)
(8.01344 2.73141 0)
(7.49852 2.13607 0)
(7.32954 1.3453 0)
(6.71744 1.21967 0)
(6.89758 0.53371 0)
(6.06208 0.987512 0)
(6.7443 0.041225 0)
(5.48191 1.04338 0)
(6.76106 -0.386908 0)
(5.04923 1.12073 0)
(6.75944 -0.666621 0)
(4.92198 1.04033 0)
(6.52953 -0.742904 0)
(5.14322 0.861467 0)
(6.01318 -0.745323 0)
(5.55109 0.791827 0)
(5.43464 -0.753131 0)
(5.794 0.817589 0)
(5.14394 -0.749238 0)
(5.77773 0.858358 0)
(5.16977 -0.778255 0)
(5.67746 0.86809 0)
(5.37699 -0.770899 0)
(5.56389 0.782929 0)
(5.66843 -0.651954 0)
(5.40296 0.744808 0)
(5.85909 -0.64047 0)
(5.42122 0.842204 0)
(5.81718 -0.725303 0)
(5.55956 0.860045 0)
(5.89214 -0.635294 0)
(5.48123 0.822186 0)
(6.01674 -0.555499 0)
(5.5442 0.923923 0)
(5.9894 -0.603942 0)
(5.64433 0.921872 0)
(6.13679 -0.363699 0)
(5.64869 0.912103 0)
(6.17667 -0.307149 0)
(5.85839 1.0216 0)
(6.23005 -0.0717986 0)
(5.94516 0.998678 0)
(6.33429 0.10494 0)
(6.11589 1.17734 0)
(6.27551 0.38851 0)
(6.19702 1.26007 0)
(6.18614 0.586654 0)
(6.16956 1.50073 0)
(5.89092 0.85237 0)
(5.83954 1.80382 0)
(5.7238 1.11892 0)
(5.45586 2.28598 0)
(6.13923 1.83947 0)
(5.76328 3.41141 0)
(5.95075 2.63914 0)
(4.92381 4.8884 0)
(8.49744 4.31799 0)
(5.87376 9.82054 0)
(8.16059 -0.312545 0)
(8.47914 -0.432661 0)
(8.95895 -0.55957 0)
(9.60359 -1.14776 0)
(9.48698 -1.84949 0)
(9.42746 -2.18023 0)
(9.09469 -1.94434 0)
(8.10415 -1.55117 0)
(7.70299 -1.07918 0)
(7.01329 -0.209899 0)
(5.61998 1.40139 0)
(6.32168 2.46053 0)
(8.81031 1.79719 0)
(9.97345 1.55072 0)
(10.8631 1.13677 0)
(11.9398 -0.483777 0)
(12.3588 -2.11931 0)
(12.7811 -3.37681 0)
(13.2989 -4.2287 0)
(13.6819 -4.98658 0)
(13.8691 -5.77146 0)
(13.1492 -6.02654 0)
(12.164 -6.03917 0)
(12.2094 -6.39641 0)
(11.6475 -6.64775 0)
(10.3497 -6.29443 0)
(8.88011 -5.89703 0)
(8.14132 -5.7487 0)
(7.9979 -5.68704 0)
(8.20044 -5.27302 0)
(8.63047 -4.16698 0)
(8.84901 -2.93429 0)
(9.103 -1.51014 0)
(9.3246 0.315648 0)
(8.91443 1.6021 0)
(8.66273 2.43193 0)
(9.0185 3.60044 0)
(9.21173 4.8179 0)
(8.92652 5.32292 0)
(8.47366 5.08032 0)
(8.1768 4.39531 0)
(7.82214 3.71705 0)
(7.58303 2.89057 0)
(7.12745 2.2923 0)
(7.04332 1.46775 0)
(6.43826 1.32587 0)
(6.7335 0.604119 0)
(5.82583 1.05907 0)
(6.70104 0.0791651 0)
(5.27234 1.10858 0)
(6.78929 -0.388154 0)
(4.9171 1.20371 0)
(6.70259 -0.728424 0)
(4.99909 1.15475 0)
(6.21475 -0.867923 0)
(5.45775 1.00312 0)
(5.52154 -0.898724 0)
(5.8648 0.933235 0)
(5.15132 -0.876256 0)
(5.87654 0.932955 0)
(5.3062 -0.839883 0)
(5.62801 0.951192 0)
(5.70223 -0.856267 0)
(5.42892 0.951253 0)
(5.98535 -0.860741 0)
(5.44231 0.867588 0)
(6.04864 -0.752853 0)
(5.4354 0.832329 0)
(6.11269 -0.7844 0)
(5.44859 0.998461 0)
(6.02702 -0.935059 0)
(5.61675 1.00515 0)
(6.01532 -0.785369 0)
(5.56728 0.914477 0)
(6.18742 -0.753865 0)
(5.59363 1.1062 0)
(6.22828 -0.847037 0)
(5.72429 1.04699 0)
(6.37766 -0.568425 0)
(5.77219 1.09456 0)
(6.49166 -0.616004 0)
(5.99887 1.19298 0)
(6.57214 -0.304969 0)
(6.12636 1.22285 0)
(6.71093 -0.196812 0)
(6.33123 1.38827 0)
(6.76764 0.20113 0)
(6.35207 1.50928 0)
(6.81347 0.395857 0)
(6.35174 1.71261 0)
(6.6868 0.853415 0)
(5.91093 1.94312 0)
(6.52522 1.05868 0)
(5.6282 2.29045 0)
(6.76737 1.34212 0)
(5.85154 3.45887 0)
(8.4165 2.63298 0)
(4.89384 5.45661 0)
(8.82868 3.74021 0)
(6.68773 9.91958 0)
(10.3343 -0.492939 0)
(10.5799 -0.640708 0)
(10.8302 -0.68247 0)
(11.4575 -1.12266 0)
(11.0178 -1.79319 0)
(10.9217 -2.0302 0)
(10.5273 -1.67919 0)
(9.81314 -1.29326 0)
(9.20416 -0.784569 0)
(8.72026 0.0714389 0)
(7.99673 1.41184 0)
(8.32493 1.98583 0)
(10.1494 1.34224 0)
(11.0279 1.17952 0)
(11.951 0.753316 0)
(13.0569 -0.691621 0)
(13.5567 -2.22587 0)
(13.8542 -3.51786 0)
(14.1731 -4.31996 0)
(14.1354 -4.95027 0)
(13.608 -5.5665 0)
(12.7098 -5.66561 0)
(11.9826 -5.82277 0)
(12.0157 -6.29723 0)
(11.2397 -6.26147 0)
(9.51117 -5.70521 0)
(7.98479 -5.41719 0)
(7.40575 -5.59068 0)
(7.198 -5.72972 0)
(7.36792 -5.32985 0)
(7.61929 -4.25801 0)
(7.81487 -2.99022 0)
(8.00421 -1.54755 0)
(8.14769 0.328171 0)
(7.86885 1.68354 0)
(7.74814 2.42688 0)
(8.06761 3.48137 0)
(8.23536 4.75868 0)
(8.03445 5.38731 0)
(7.74392 5.19411 0)
(7.55761 4.51867 0)
(7.26112 3.84271 0)
(7.10537 3.00303 0)
(6.69407 2.39826 0)
(6.73551 1.57457 0)
(6.11752 1.41219 0)
(6.60079 0.688606 0)
(5.55734 1.10889 0)
(6.69621 0.134948 0)
(5.00851 1.15233 0)
(6.8444 -0.394437 0)
(4.71237 1.30916 0)
(6.69439 -0.857706 0)
(4.97679 1.36718 0)
(6.03722 -1.10064 0)
(5.59095 1.24955 0)
(5.32287 -1.10119 0)
(5.916 1.0933 0)
(5.22209 -0.960401 0)
(5.69469 0.991868 0)
(5.63805 -0.864393 0)
(5.31706 0.997291 0)
(5.94096 -0.928205 0)
(5.25823 1.0636 0)
(5.78926 -1.02888 0)
(5.47062 1.01134 0)
(5.58954 -0.920576 0)
(5.42841 0.956675 0)
(5.67217 -0.942907 0)
(5.40415 1.15402 0)
(5.55224 -1.1176 0)
(5.57003 1.15663 0)
(5.63194 -0.941892 0)
(5.34378 1.07795 0)
(5.92932 -0.942321 0)
(5.40437 1.2836 0)
(5.94569 -1.05654 0)
(5.46363 1.24776 0)
(6.29185 -0.814846 0)
(5.43385 1.30131 0)
(6.49382 -0.904529 0)
(5.68988 1.42971 0)
(6.8614 -0.636336 0)
(5.76973 1.41632 0)
(7.32375 -0.553129 0)
(6.14322 1.63109 0)
(7.67942 -0.187481 0)
(6.40497 1.73144 0)
(8.10571 0.0825369 0)
(6.64096 2.05757 0)
(8.04823 0.600861 0)
(6.55523 2.41727 0)
(7.55104 0.870285 0)
(5.85437 2.89267 0)
(6.92695 0.956249 0)
(4.76947 3.57923 0)
(8.78785 1.68534 0)
(5.89594 5.32106 0)
(11.5441 2.59762 0)
(8.28739 9.28795 0)
(11.9787 -0.666372 0)
(12.1336 -0.788931 0)
(12.2228 -0.758611 0)
(12.7381 -1.08371 0)
(12.279 -1.63051 0)
(11.9107 -1.88628 0)
(11.4668 -1.4893 0)
(10.9943 -1.09304 0)
(10.4673 -0.556361 0)
(10.0867 0.235925 0)
(9.85468 1.29876 0)
(10.1965 1.61521 0)
(11.5195 1.04641 0)
(12.1582 0.905696 0)
(13.0779 0.359058 0)
(14.0888 -0.965578 0)
(14.4095 -2.37136 0)
(14.438 -3.5677 0)
(14.2524 -4.29821 0)
(13.8225 -4.84756 0)
(13.1829 -5.26419 0)
(12.3756 -5.37527 0)
(12.0755 -5.70701 0)
(11.8823 -6.07961 0)
(10.5998 -5.68356 0)
(8.50965 -5.01305 0)
(6.94549 -5.00982 0)
(6.50176 -5.47702 0)
(6.23751 -5.75686 0)
(6.39588 -5.36608 0)
(6.56415 -4.29614 0)
(6.67555 -2.97588 0)
(6.72427 -1.51172 0)
(6.80372 0.297447 0)
(6.67369 1.6897 0)
(6.69563 2.48907 0)
(6.98911 3.49957 0)
(7.15657 4.73647 0)
(7.08206 5.39493 0)
(6.92499 5.25592 0)
(6.85176 4.59616 0)
(6.64402 3.91144 0)
(6.57582 3.09173 0)
(6.22091 2.49969 0)
(6.39709 1.68198 0)
(5.82301 1.4823 0)
(6.42854 0.770607 0)
(5.33523 1.1418 0)
(6.58746 0.199719 0)
(4.81882 1.18454 0)
(6.74695 -0.3891 0)
(4.62252 1.398 0)
(6.53533 -0.95486 0)
(5.06099 1.52878 0)
(5.77876 -1.24099 0)
(5.76108 1.39054 0)
(5.10832 -1.17127 0)
(5.98492 1.14177 0)
(5.15609 -0.965081 0)
(5.65351 0.991888 0)
(5.56074 -0.903943 0)
(5.35663 1.04474 0)
(5.63066 -1.06182 0)
(5.45481 1.17972 0)
(5.38848 -1.2007 0)
(5.60861 1.12488 0)
(5.41338 -1.00906 0)
(5.46579 1.01859 0)
(5.65497 -1.01422 0)
(5.38117 1.27702 0)
(5.62101 -1.27433 0)
(5.54625 1.27755 0)
(5.70208 -1.03654 0)
(5.33009 1.14663 0)
(5.99193 -1.0906 0)
(5.35859 1.4697 0)
(5.87485 -1.28309 0)
(5.45912 1.37145 0)
(6.13675 -0.980256 0)
(5.33343 1.48424 0)
(6.2536 -1.21111 0)
(5.56219 1.62061 0)
(6.56101 -0.892906 0)
(5.52073 1.61914 0)
(7.03225 -0.996151 0)
(5.8824 1.874 0)
(7.72021 -0.646392 0)
(6.13493 1.91826 0)
(8.7476 -0.546905 0)
(6.76912 2.2362 0)
(9.92308 0.058156 0)
(7.16141 2.57941 0)
(11.0439 0.622623 0)
(6.97909 3.18828 0)
(11.2943 1.47309 0)
(5.09207 3.97195 0)
(10.2846 1.68374 0)
(4.38334 5.9156 0)
(10.0842 1.33957 0)
(8.99351 8.57344 0)
(13.1956 -0.800221 0)
(13.0934 -0.927914 0)
(13.0536 -0.839872 0)
(13.4369 -1.03035 0)
(13.015 -1.44114 0)
(12.5396 -1.68206 0)
(11.9948 -1.28598 0)
(11.6353 -0.936868 0)
(11.1924 -0.417001 0)
(10.938 0.340671 0)
(11.1044 1.11946 0)
(11.5695 1.27325 0)
(12.5617 0.817829 0)
(13.0559 0.65458 0)
(14 0.00691078 0)
(14.7278 -1.18442 0)
(14.824 -2.42982 0)
(14.5603 -3.4985 0)
(14.0097 -4.13292 0)
(13.407 -4.65128 0)
(12.8435 -5.03891 0)
(12.314 -5.21745 0)
(12.1175 -5.56265 0)
(11.37 -5.65825 0)
(9.40309 -4.93027 0)
(7.25209 -4.22787 0)
(5.85213 -4.58367 0)
(5.42741 -5.34777 0)
(5.07482 -5.75449 0)
(5.18882 -5.38636 0)
(5.30491 -4.30164 0)
(5.40759 -2.94729 0)
(5.34779 -1.44212 0)
(5.34399 0.301364 0)
(5.38479 1.60671 0)
(5.60104 2.40502 0)
(5.90175 3.42448 0)
(6.03736 4.67176 0)
(6.03157 5.35789 0)
(6.01707 5.23854 0)
(6.08195 4.61502 0)
(5.96057 3.97932 0)
(5.99539 3.1734 0)
(5.75304 2.53795 0)
(6.06516 1.70913 0)
(5.48258 1.46402 0)
(6.20889 0.807543 0)
(5.00288 1.11436 0)
(6.45467 0.239441 0)
(4.53803 1.16678 0)
(6.67258 -0.412152 0)
(4.44562 1.45865 0)
(6.4521 -1.09592 0)
(4.99905 1.71229 0)
(5.66794 -1.42757 0)
(5.77342 1.57064 0)
(5.03576 -1.2615 0)
(5.95804 1.19931 0)
(5.20208 -0.964692 0)
(5.52738 0.999618 0)
(5.69979 -0.939842 0)
(5.24152 1.13364 0)
(5.77379 -1.18138 0)
(5.39606 1.31945 0)
(5.61723 -1.30006 0)
(5.43975 1.21788 0)
(5.77672 -1.0683 0)
(5.28346 1.12647 0)
(5.85333 -1.17322 0)
(5.37788 1.46203 0)
(5.63747 -1.47641 0)
(5.44523 1.39935 0)
(5.79529 -1.14962 0)
(5.21053 1.27796 0)
(5.95577 -1.32819 0)
(5.38034 1.6625 0)
(5.8142 -1.47188 0)
(5.30063 1.48432 0)
(6.25469 -1.19343 0)
(5.22857 1.69206 0)
(6.29328 -1.4693 0)
(5.32642 1.79262 0)
(6.74556 -1.14702 0)
(5.23704 1.86041 0)
(7.10162 -1.28434 0)
(5.30447 2.12711 0)
(7.87063 -0.943873 0)
(5.2191 2.22197 0)
(8.90838 -0.964832 0)
(5.32135 2.52637 0)
(10.63 -0.491655 0)
(5.7123 2.81238 0)
(12.7103 -0.144827 0)
(6.62839 3.2501 0)
(14.7126 0.649262 0)
(7.42211 4.27732 0)
(14.581 1.05387 0)
(7.89478 6.0961 0)
(10.9329 1.33711 0)
(8.71319 7.80447 0)
(13.7721 -0.809208 0)
(13.3951 -0.955808 0)
(13.2625 -0.897641 0)
(13.4587 -1.00863 0)
(13.1925 -1.26149 0)
(12.7335 -1.43486 0)
(12.0947 -1.08719 0)
(11.8452 -0.801953 0)
(11.4095 -0.328498 0)
(11.364 0.330212 0)
(11.7451 0.878807 0)
(12.3287 0.92124 0)
(13.0654 0.558003 0)
(13.5902 0.396594 0)
(14.5178 -0.253406 0)
(14.8638 -1.28657 0)
(14.826 -2.37289 0)
(14.3281 -3.32303 0)
(13.6942 -3.92533 0)
(13.2564 -4.40599 0)
(12.7436 -4.79483 0)
(12.2689 -5.03305 0)
(11.7998 -5.2116 0)
(10.5005 -4.91222 0)
(7.91812 -4.04188 0)
(5.82064 -3.61681 0)
(4.74916 -4.28486 0)
(4.36572 -5.19657 0)
(3.94089 -5.69239 0)
(3.95549 -5.36911 0)
(3.96428 -4.28085 0)
(4.02961 -2.88007 0)
(3.94975 -1.39152 0)
(3.93276 0.275861 0)
(4.08732 1.53691 0)
(4.39917 2.38524 0)
(4.69152 3.4287 0)
(4.85067 4.62415 0)
(4.95693 5.276 0)
(5.07314 5.19584 0)
(5.24393 4.6291 0)
(5.23583 3.98559 0)
(5.43437 3.16261 0)
(5.26783 2.51026 0)
(5.72483 1.75399 0)
(5.15452 1.48556 0)
(6.03419 0.911794 0)
(4.81295 1.12782 0)
(6.32972 0.335985 0)
(4.44303 1.17048 0)
(6.50017 -0.372557 0)
(4.44345 1.50252 0)
(6.25879 -1.141 0)
(5.05542 1.81851 0)
(5.52687 -1.49491 0)
(5.83695 1.64939 0)
(4.96159 -1.2528 0)
(5.98065 1.17729 0)
(5.20819 -0.901986 0)
(5.47213 0.977153 0)
(5.73492 -0.959991 0)
(5.23092 1.2212 0)
(5.64885 -1.322 0)
(5.52643 1.443 0)
(5.30853 -1.41791 0)
(5.55532 1.27691 0)
(5.37523 -1.15489 0)
(5.38948 1.20187 0)
(5.33522 -1.30011 0)
(5.52117 1.54719 0)
(5.2107 -1.56652 0)
(5.45106 1.47544 0)
(5.4658 -1.21762 0)
(5.25612 1.35815 0)
(5.52375 -1.46454 0)
(5.37362 1.82402 0)
(5.5252 -1.61242 0)
(5.26168 1.57904 0)
(5.87953 -1.31172 0)
(5.18961 1.86474 0)
(5.78972 -1.7033 0)
(5.29509 1.91168 0)
(6.23807 -1.30218 0)
(5.10853 1.9918 0)
(6.3272 -1.54683 0)
(5.24938 2.21568 0)
(6.86247 -1.1535 0)
(5.03171 2.3115 0)
(7.13178 -1.24996 0)
(4.98106 2.66255 0)
(7.95317 -0.85516 0)
(4.84723 3.13807 0)
(8.61073 -0.798449 0)
(5.33041 3.74712 0)
(10.4438 -0.250055 0)
(7.13411 4.82013 0)
(12.4203 0.311413 0)
(9.20856 6.22116 0)
(13.4553 1.89947 0)
(9.67276 6.8551 0)
(13.6308 -0.723608 0)
(13.1643 -0.852004 0)
(13.1041 -0.86717 0)
(13.1284 -0.949533 0)
(13.0532 -1.10844 0)
(12.6332 -1.18247 0)
(12.0196 -0.885566 0)
(11.8245 -0.657226 0)
(11.4641 -0.271205 0)
(11.652 0.230749 0)
(12.046 0.639411 0)
(12.7045 0.624936 0)
(13.1669 0.356379 0)
(13.7496 0.149684 0)
(14.404 -0.463707 0)
(14.5282 -1.31599 0)
(14.4364 -2.34276 0)
(13.8944 -3.16958 0)
(13.4813 -3.65118 0)
(13.2794 -4.13698 0)
(12.7288 -4.55709 0)
(11.9256 -4.80558 0)
(10.9469 -4.82295 0)
(9.20617 -4.12321 0)
(6.61569 -3.08626 0)
(4.7019 -3.01023 0)
(3.7169 -4.00219 0)
(3.34473 -5.03818 0)
(2.84978 -5.59609 0)
(2.7062 -5.30929 0)
(2.59979 -4.25925 0)
(2.65717 -2.82942 0)
(2.58507 -1.35409 0)
(2.63809 0.160823 0)
(2.88874 1.35284 0)
(3.23519 2.26576 0)
(3.49737 3.36367 0)
(3.64147 4.54176 0)
(3.81435 5.17486 0)
(4.06311 5.09412 0)
(4.39555 4.54056 0)
(4.52662 3.91464 0)
(4.86497 3.13878 0)
(4.82186 2.47216 0)
(5.41166 1.74783 0)
(4.87519 1.40773 0)
(5.76891 0.919658 0)
(4.47212 1.03274 0)
(6.04192 0.359853 0)
(4.08764 1.08494 0)
(6.3023 -0.396727 0)
(4.18033 1.47722 0)
(6.16726 -1.24703 0)
(4.86101 1.89902 0)
(5.51895 -1.64209 0)
(5.69706 1.73684 0)
(4.9855 -1.29038 0)
(5.89269 1.13185 0)
(5.20266 -0.826933 0)
(5.42014 0.921652 0)
(5.68606 -0.978292 0)
(5.21723 1.3206 0)
(5.55991 -1.45242 0)
(5.57535 1.54622 0)
(5.26977 -1.45926 0)
(5.56436 1.29108 0)
(5.4687 -1.1709 0)
(5.33327 1.2844 0)
(5.56643 -1.42461 0)
(5.42618 1.68601 0)
(5.54964 -1.65384 0)
(5.34154 1.53542 0)
(5.75107 -1.32932 0)
(5.21874 1.50619 0)
(5.74365 -1.68466 0)
(5.32441 1.94797 0)
(5.80951 -1.73176 0)
(5.18341 1.66961 0)
(6.00459 -1.56404 0)
(5.22884 2.05687 0)
(5.97999 -1.9194 0)
(5.18689 1.98209 0)
(6.4337 -1.53298 0)
(5.07568 2.23279 0)
(6.42102 -1.88574 0)
(5.19495 2.29042 0)
(6.97753 -1.43251 0)
(5.09383 2.52575 0)
(7.00317 -1.63071 0)
(5.16216 2.68148 0)
(7.53531 -1.24279 0)
(5.4538 3.27501 0)
(7.27887 -1.28347 0)
(5.82122 3.86202 0)
(7.68789 -1.1544 0)
(6.86071 5.15507 0)
(9.31097 -0.444553 0)
(8.13254 6.14087 0)
(12.631 1.88316 0)
(10.6188 6.34156 0)
(13.0243 -0.616985 0)
(12.9305 -0.751156 0)
(13.0705 -0.799293 0)
(12.9656 -0.887025 0)
(12.8807 -1.02023 0)
(12.5069 -0.967149 0)
(12.1104 -0.738768 0)
(11.9503 -0.595491 0)
(11.8327 -0.328897 0)
(12.0956 0.0599264 0)
(12.4718 0.364492 0)
(12.9739 0.364847 0)
(13.0505 0.221413 0)
(13.4861 -0.0347325 0)
(13.8542 -0.529088 0)
(14.0443 -1.32595 0)
(14.0259 -2.28853 0)
(13.6646 -2.94513 0)
(13.3552 -3.47225 0)
(13.0467 -3.99692 0)
(12.4298 -4.29348 0)
(11.462 -4.35699 0)
(10.1091 -4.08279 0)
(7.81849 -3.17539 0)
(5.25591 -2.23718 0)
(3.63995 -2.46933 0)
(2.77523 -3.71095 0)
(2.36842 -4.82899 0)
(1.77245 -5.422 0)
(1.42717 -5.1914 0)
(1.22441 -4.20495 0)
(1.30337 -2.83305 0)
(1.26985 -1.34791 0)
(1.3956 0.080811 0)
(1.66173 1.23349 0)
(1.94657 2.22462 0)
(2.14865 3.36454 0)
(2.34501 4.46677 0)
(2.68463 5.00226 0)
(3.10392 4.91162 0)
(3.57177 4.42001 0)
(3.82896 3.81523 0)
(4.34699 3.03858 0)
(4.42262 2.32482 0)
(5.09039 1.705 0)
(4.50187 1.35069 0)
(5.46347 1.02411 0)
(4.21322 1.02068 0)
(5.87124 0.466412 0)
(4.15356 1.04762 0)
(6.18299 -0.34062 0)
(4.44 1.4264 0)
(6.02671 -1.22215 0)
(5.03213 1.88757 0)
(5.4775 -1.63308 0)
(5.71424 1.72634 0)
(5.01304 -1.21634 0)
(5.91263 1.03026 0)
(5.14273 -0.686521 0)
(5.50198 0.802887 0)
(5.60643 -0.920085 0)
(5.24687 1.35927 0)
(5.56782 -1.51119 0)
(5.58385 1.65854 0)
(5.23941 -1.4408 0)
(5.61202 1.31496 0)
(5.34238 -1.12675 0)
(5.37872 1.33332 0)
(5.3711 -1.46933 0)
(5.49179 1.74349 0)
(5.18433 -1.70984 0)
(5.42734 1.57702 0)
(5.30141 -1.39251 0)
(5.28875 1.5647 0)
(5.30186 -1.76149 0)
(5.36944 2.02839 0)
(5.35776 -1.82875 0)
(5.20189 1.76256 0)
(5.54449 -1.68193 0)
(5.22885 2.1802 0)
(5.59493 -2.05647 0)
(5.15896 2.09774 0)
(5.92124 -1.70975 0)
(5.10135 2.36835 0)
(5.96393 -2.11047 0)
(5.14739 2.44216 0)
(6.41351 -1.70584 0)
(5.0868 2.75626 0)
(6.38173 -1.98204 0)
(5.21436 2.92761 0)
(6.99032 -1.65386 0)
(5.51217 3.54571 0)
(7.04911 -1.78784 0)
(5.92932 4.01873 0)
(7.62578 -1.57541 0)
(6.95477 5.06377 0)
(8.50893 -0.70291 0)
(7.70634 5.66536 0)
(10.1704 1.22571 0)
(10.7364 5.70623 0)
(12.9013 -0.576573 0)
(13.2418 -0.793868 0)
(13.2366 -0.744241 0)
(12.9148 -0.732978 0)
(12.7522 -0.859352 0)
(12.5833 -0.828889 0)
(12.4621 -0.682506 0)
(12.3188 -0.584739 0)
(12.3203 -0.413556 0)
(12.4736 -0.113022 0)
(12.413 0.201964 0)
(12.4371 0.361665 0)
(12.6434 0.205755 0)
(13.2042 -0.139962 0)
(13.5336 -0.604453 0)
(13.7731 -1.3762 0)
(13.7473 -2.19721 0)
(13.4644 -2.79423 0)
(13.1278 -3.34693 0)
(12.6089 -3.78209 0)
(11.8241 -3.93311 0)
(10.6437 -3.85774 0)
(8.93306 -3.2977 0)
(6.38259 -2.14763 0)
(3.89099 -1.42082 0)
(2.55317 -2.0709 0)
(1.84559 -3.49283 0)
(1.3007 -4.60381 0)
(0.628646 -5.19879 0)
(0.144543 -5.03562 0)
(-0.101804 -4.13585 0)
(-0.0559343 -2.84392 0)
(-0.0346673 -1.40475 0)
(0.154557 -0.0244383 0)
(0.396232 1.11065 0)
(0.625037 2.15348 0)
(0.836041 3.29658 0)
(1.11893 4.31031 0)
(1.58907 4.77859 0)
(2.15563 4.69324 0)
(2.7704 4.22869 0)
(3.19478 3.60729 0)
(3.89128 2.87513 0)
(4.02948 2.18677 0)
(4.72509 1.70952 0)
(4.2063 1.29624 0)
(5.17605 1.06199 0)
(4.15615 0.894181 0)
(5.62006 0.459176 0)
(4.2072 0.88804 0)
(5.87751 -0.348298 0)
(4.40951 1.33346 0)
(5.8126 -1.26591 0)
(4.86267 1.89244 0)
(5.49027 -1.70643 0)
(5.46282 1.76013 0)
(5.12082 -1.22153 0)
(5.76601 0.964434 0)
(5.12058 -0.578491 0)
(5.52068 0.66138 0)
(5.5056 -0.826659 0)
(5.25965 1.31852 0)
(5.48274 -1.52965 0)
(5.59548 1.70636 0)
(5.06545 -1.42066 0)
(5.72208 1.27919 0)
(5.11872 -1.09152 0)
(5.45937 1.34851 0)
(5.25486 -1.53729 0)
(5.50308 1.82399 0)
(5.23604 -1.67096 0)
(5.40889 1.56955 0)
(5.43925 -1.33669 0)
(5.2834 1.64008 0)
(5.45369 -1.83695 0)
(5.33519 2.07837 0)
(5.5993 -1.81147 0)
(5.15968 1.80754 0)
(5.69832 -1.81917 0)
(5.23473 2.27911 0)
(5.7755 -2.17802 0)
(5.13801 2.14929 0)
(5.97025 -1.90773 0)
(5.12686 2.55771 0)
(6.07228 -2.33428 0)
(5.12866 2.54939 0)
(6.32639 -1.98505 0)
(5.26275 3.02423 0)
(6.37091 -2.28654 0)
(5.43846 3.01433 0)
(6.62455 -2.09921 0)
(5.79371 3.86235 0)
(6.7137 -2.01474 0)
(6.19408 4.11374 0)
(6.98366 -1.7901 0)
(7.04552 4.89103 0)
(7.60967 -0.639937 0)
(7.80915 5.17784 0)
(8.29137 0.894559 0)
(10.0636 4.93952 0)
(13.2697 -0.653692 0)
(13.2939 -0.753067 0)
(12.9632 -0.522996 0)
(12.8435 -0.589629 0)
(12.8744 -0.828475 0)
(12.7958 -0.82624 0)
(12.6797 -0.697442 0)
(12.4468 -0.589462 0)
(12.2844 -0.400926 0)
(12.0184 -0.0210589 0)
(11.8547 0.344347 0)
(12.3906 0.274435 0)
(12.9697 -0.0780259 0)
(13.1692 -0.338375 0)
(13.1863 -0.67396 0)
(13.4214 -1.31231 0)
(13.3589 -2.08353 0)
(13.0255 -2.68496 0)
(12.6681 -3.12944 0)
(11.9644 -3.47336 0)
(10.8675 -3.53227 0)
(9.44864 -3.19831 0)
(7.4384 -2.34008 0)
(4.82981 -1.14536 0)
(2.72841 -0.75365 0)
(1.73875 -1.7249 0)
(0.98651 -3.19349 0)
(0.301225 -4.32878 0)
(-0.424693 -4.94685 0)
(-1.04206 -4.84989 0)
(-1.36277 -4.05152 0)
(-1.41659 -2.79291 0)
(-1.40573 -1.42269 0)
(-1.20489 -0.116887 0)
(-0.991894 1.0204 0)
(-0.785994 2.10077 0)
(-0.544615 3.2275 0)
(-0.137586 4.14595 0)
(0.554677 4.50645 0)
(1.31011 4.3921 0)
(2.05903 3.96951 0)
(2.6428 3.35908 0)
(3.46425 2.6966 0)
(3.67311 2.01939 0)
(4.34763 1.64992 0)
(3.98625 1.17119 0)
(4.84121 1.05637 0)
(4.1379 0.765597 0)
(5.31392 0.502901 0)
(4.33531 0.776813 0)
(5.64387 -0.269502 0)
(4.57916 1.22309 0)
(5.69709 -1.17279 0)
(4.92117 1.76991 0)
(5.52083 -1.6159 0)
(5.37513 1.6777 0)
(5.20984 -1.13951 0)
(5.7331 0.874281 0)
(5.02315 -0.443912 0)
(5.6979 0.495512 0)
(5.24049 -0.662387 0)
(5.431 1.17941 0)
(5.36056 -1.46583 0)
(5.57194 1.6975 0)
(5.08632 -1.3946 0)
(5.77717 1.26097 0)
(5.0725 -1.00752 0)
(5.53334 1.29827 0)
(5.29311 -1.4506 0)
(5.44006 1.80523 0)
(5.24089 -1.60352 0)
(5.45079 1.56502 0)
(5.21681 -1.32931 0)
(5.36665 1.63762 0)
(5.2266 -1.77011 0)
(5.36002 2.06183 0)
(5.2776 -1.74266 0)
(5.24291 1.85671 0)
(5.32157 -1.78713 0)
(5.2645 2.31072 0)
(5.4773 -2.10678 0)
(5.16314 2.22627 0)
(5.58938 -1.95753 0)
(5.18853 2.59519 0)
(5.79049 -2.39825 0)
(5.20526 2.65118 0)
(5.97827 -2.21646 0)
(5.28552 3.1366 0)
(6.18477 -2.5191 0)
(5.48923 3.25859 0)
(6.40453 -2.34038 0)
(5.96496 3.92451 0)
(6.77436 -2.18325 0)
(6.45797 4.05485 0)
(7.09535 -1.82162 0)
(7.16964 4.61281 0)
(7.64333 -0.591658 0)
(8.09709 4.58013 0)
(8.40667 0.982292 0)
(9.56061 3.97243 0)
(13.1739 -0.582817 0)
(12.9653 -0.545575 0)
(12.9116 -0.432272 0)
(12.9941 -0.62403 0)
(12.9961 -0.799371 0)
(12.8142 -0.723881 0)
(12.4822 -0.614406 0)
(12.1524 -0.4583 0)
(12.0722 -0.227089 0)
(11.9782 -0.010197 0)
(12.3094 0.0143972 0)
(12.778 -0.0702903 0)
(12.7365 -0.0703623 0)
(12.6551 -0.207187 0)
(12.8424 -0.646579 0)
(13.1376 -1.32849 0)
(12.893 -2.04757 0)
(12.3985 -2.55206 0)
(11.8267 -2.88664 0)
(10.8628 -3.05324 0)
(9.4397 -2.95226 0)
(7.82524 -2.43881 0)
(5.82255 -1.38545 0)
(3.44733 -0.257403 0)
(1.88815 -0.221666 0)
(1.06991 -1.39372 0)
(0.257993 -2.89874 0)
(-0.470453 -4.04798 0)
(-1.26627 -4.65298 0)
(-2.05767 -4.60874 0)
(-2.53808 -3.91473 0)
(-2.70643 -2.73699 0)
(-2.77578 -1.4391 0)
(-2.61478 -0.18575 0)
(-2.42812 0.96702 0)
(-2.19216 2.0339 0)
(-1.81042 3.07479 0)
(-1.17686 3.85268 0)
(-0.307529 4.13437 0)
(0.518086 4.04671 0)
(1.40924 3.65772 0)
(2.18816 3.03118 0)
(3.07131 2.45053 0)
(3.33558 1.82523 0)
(3.93752 1.58151 0)
(3.82805 1.0601 0)
(4.50732 1.03998 0)
(4.29881 0.633329 0)
(5.01522 0.495371 0)
(4.71888 0.625564 0)
(5.32567 -0.236971 0)
(4.9277 1.07288 0)
(5.46525 -1.09245 0)
(4.96231 1.65462 0)
(5.53753 -1.55079 0)
(5.14323 1.62788 0)
(5.36941 -1.11393 0)
(5.55301 0.837328 0)
(5.02022 -0.381167 0)
(5.78796 0.384131 0)
(5.03022 -0.534506 0)
(5.59237 1.04402 0)
(5.27849 -1.37066 0)
(5.49892 1.64283 0)
(5.07311 -1.31414 0)
(5.81639 1.15515 0)
(4.80326 -0.866802 0)
(5.71342 1.15989 0)
(4.97953 -1.37987 0)
(5.50635 1.76313 0)
(5.03324 -1.54751 0)
(5.53241 1.49351 0)
(4.97845 -1.20742 0)
(5.46107 1.54981 0)
(5.12764 -1.69612 0)
(5.34868 2.02937 0)
(5.24354 -1.66123 0)
(5.31926 1.7844 0)
(5.35132 -1.73836 0)
(5.21377 2.27758 0)
(5.51758 -2.04557 0)
(5.21135 2.21172 0)
(5.57156 -1.90179 0)
(5.24355 2.62879 0)
(5.77844 -2.33591 0)
(5.19717 2.71926 0)
(5.847 -2.17546 0)
(5.40515 3.25145 0)
(6.12251 -2.49356 0)
(5.63859 3.19457 0)
(6.25538 -2.38715 0)
(6.02824 3.98649 0)
(6.57296 -2.04335 0)
(6.55193 3.98949 0)
(7.04536 -1.67003 0)
(7.18309 4.187 0)
(7.81364 -0.410936 0)
(8.14295 3.95202 0)
(8.91553 1.12593 0)