/*--------------------------------*- C++ -*----------------------------------*\
| =========                 |                                                 |
| \\      /  F ield         | OpenFOAM: The Open Source CFD Toolbox           |
|  \\    /   O peration     | Version:  2.4.0                                 |
|   \\  /    A nd           | Web:      www.OpenFOAM.org                      |
|    \\/     M anipulation  |                                                 |
\*---------------------------------------------------------------------------*/
FoamFile
{
    version     2.0;
    format      ascii;
    class       volVectorField;
    location    "0.04";
    object      UMean;
}
// * * * * * * * * * * * * * * * * * * * * * * * * * * * * * * * * * * * * * //

dimensions      [0 1 -1 0 0 0 0];

internalField   nonuniform List<vector> 
17600
(
(5.39279 0.302197 0)
(3.19219 0.0610223 0)
(2.44864 -0.000896091 0)
(2.12552 -0.00347851 0)
(2.00269 -0.001364 0)
(1.93057 -0.000305018 0)
(1.88109 -3.07108e-05 0)
(1.84302 -8.55673e-05 0)
(1.82064 -6.38515e-05 0)
(1.79935 1.53696e-05 0)
(1.78832 6.80988e-05 0)
(1.76979 0.000106297 0)
(1.76204 9.34197e-05 0)
(1.74573 -5.64767e-05 0)
(1.74356 5.17404e-06 0)
(1.73579 -0.000380692 0)
(1.73572 -2.0161e-05 0)
(1.76063 -0.000102137 0)
(1.80422 -0.00827093 0)
(1.79805 0.00383059 0)
(8.57597 0.84472 0)
(7.11932 0.366732 0)
(6.0829 0.113679 0)
(5.39059 0.045505 0)
(5.03288 0.0231251 0)
(4.81425 0.0149772 0)
(4.67202 0.010774 0)
(4.56298 0.00730554 0)
(4.49742 0.0052752 0)
(4.4348 0.00401397 0)
(4.40468 0.00352902 0)
(4.35383 0.0035177 0)
(4.33623 0.00283541 0)
(4.29155 0.00283637 0)
(4.28587 0.000961124 0)
(4.26223 0.00240447 0)
(4.25241 -0.00256133 0)
(4.3134 -0.00270284 0)
(4.25949 -0.0075914 0)
(4.65509 -0.172983 0)
(9.76921 0.984491 0)
(9.41881 0.545551 0)
(8.66062 0.221801 0)
(7.90529 0.115795 0)
(7.41652 0.0685026 0)
(7.09167 0.043864 0)
(6.87833 0.0306105 0)
(6.71095 0.0209897 0)
(6.60971 0.015391 0)
(6.50988 0.0113632 0)
(6.46445 0.00996668 0)
(6.3849 0.00859536 0)
(6.36155 0.00783127 0)
(6.29119 0.00605731 0)
(6.28563 0.00390221 0)
(6.23907 0.00307978 0)
(6.24105 -0.00327744 0)
(6.26249 -0.00434938 0)
(6.27142 -0.0303334 0)
(6.50856 -0.220319 0)
(10.0509 0.91028 0)
(10.554 0.625849 0)
(10.3196 0.299612 0)
(9.76751 0.185734 0)
(9.30019 0.124633 0)
(8.93974 0.0835254 0)
(8.69139 0.0584964 0)
(8.48372 0.0404055 0)
(8.35923 0.0298316 0)
(8.22835 0.022063 0)
(8.1723 0.0185591 0)
(8.06777 0.0168637 0)
(8.04175 0.0136489 0)
(7.9484 0.0136854 0)
(7.94603 0.00545953 0)
(7.87025 0.0116241 0)
(7.9026 -0.0104442 0)
(7.83491 0.00584295 0)
(7.97831 -0.0746781 0)
(7.91179 -0.16568 0)
(9.97653 0.775862 0)
(10.8716 0.625215 0)
(11.1004 0.321208 0)
(10.8847 0.224799 0)
(10.5967 0.171682 0)
(10.3034 0.124094 0)
(10.0826 0.09008 0)
(9.87005 0.0631682 0)
(9.74565 0.0476058 0)
(9.5979 0.0346891 0)
(9.541 0.0302516 0)
(9.41836 0.0246325 0)
(9.39638 0.0236899 0)
(9.28138 0.0168937 0)
(9.29112 0.0168437 0)
(9.18483 0.00512584 0)
(9.23351 0.0119197 0)
(9.14566 -0.0289815 0)
(9.23584 -0.0206556 0)
(9.2129 -0.274644 0)
(9.90028 0.667033 0)
(10.8134 0.594907 0)
(11.2528 0.300916 0)
(11.2943 0.221036 0)
(11.2391 0.189654 0)
(11.1009 0.150461 0)
(10.9877 0.115675 0)
(10.8276 0.0845737 0)
(10.7403 0.0647973 0)
(10.6054 0.0490662 0)
(10.5594 0.0408083 0)
(10.4411 0.0364222 0)
(10.4188 0.0290395 0)
(10.31 0.0293943 0)
(10.3096 0.0135859 0)
(10.2151 0.0241616 0)
(10.2414 -0.0131151 0)
(10.1692 0.0158865 0)
(10.2201 -0.0963733 0)
(10.1618 -0.173462 0)
(9.88593 0.581468 0)
(10.6961 0.563744 0)
(11.1771 0.27565 0)
(11.302 0.195156 0)
(11.3781 0.17982 0)
(11.3651 0.153555 0)
(11.3836 0.125808 0)
(11.3159 0.0944177 0)
(11.3094 0.0766697 0)
(11.2213 0.0576584 0)
(11.2177 0.0522543 0)
(11.1205 0.042165 0)
(11.1228 0.0425227 0)
(11.0205 0.029469 0)
(11.0374 0.0329227 0)
(10.9393 0.011087 0)
(10.9816 0.0185154 0)
(10.8918 -0.0244242 0)
(10.961 -0.0608811 0)
(10.8486 -0.199231 0)
(9.89752 0.504944 0)
(10.6023 0.530101 0)
(11.0819 0.258926 0)
(11.224 0.171954 0)
(11.3294 0.161487 0)
(11.3552 0.145265 0)
(11.4322 0.122079 0)
(11.4332 0.094057 0)
(11.4878 0.0757996 0)
(11.4675 0.0610338 0)
(11.5049 0.0529113 0)
(11.4683 0.0491414 0)
(11.4879 0.0416076 0)
(11.4401 0.0403792 0)
(11.4527 0.0266934 0)
(11.4047 0.0279289 0)
(11.426 0.00328921 0)
(11.3831 -0.0082106 0)
(11.4163 -0.0734661 0)
(11.3309 -0.234298 0)
(9.9013 0.437064 0)
(10.5369 0.488932 0)
(10.9958 0.247182 0)
(11.164 0.150786 0)
(11.2613 0.144391 0)
(11.3028 0.133191 0)
(11.3736 0.115989 0)
(11.4067 0.0868494 0)
(11.4664 0.0722326 0)
(11.4909 0.0548803 0)
(11.5396 0.0523698 0)
(11.5525 0.0443399 0)
(11.5864 0.0452299 0)
(11.5855 0.0348032 0)
(11.6111 0.033633 0)
(11.604 0.0198876 0)
(11.6321 0.0100922 0)
(11.6243 -0.0140266 0)
(11.6483 -0.0906165 0)
(11.5863 -0.214801 0)
(9.90051 0.375605 0)
(10.4798 0.44551 0)
(10.9235 0.235471 0)
(11.1111 0.132347 0)
(11.208 0.126913 0)
(11.2539 0.122199 0)
(11.3187 0.107619 0)
(11.3569 0.0812484 0)
(11.4159 0.065118 0)
(11.4488 0.0506672 0)
(11.5015 0.0467698 0)
(11.5258 0.0415822 0)
(11.5678 0.0410368 0)
(11.5819 0.0333801 0)
(11.6182 0.0305657 0)
(11.6297 0.0162938 0)
(11.6676 0.00884633 0)
(11.679 -0.034657 0)
(11.7061 -0.0836126 0)
(11.6492 -0.255378 0)
(9.90034 0.320645 0)
(10.4283 0.401279 0)
(10.8587 0.224383 0)
(11.0628 0.114283 0)
(11.1617 0.110627 0)
(11.2129 0.110261 0)
(11.2709 0.100071 0)
(11.3152 0.0744653 0)
(11.3696 0.0599941 0)
(11.4094 0.0449194 0)
(11.4572 0.0425848 0)
(11.4893 0.0369857 0)
(11.5269 0.0371417 0)
(11.5498 0.0297292 0)
(11.5822 0.0259524 0)
(11.6038 0.0151688 0)
(11.6371 -0.0012076 0)
(11.6586 -0.031298 0)
(11.6767 -0.103467 0)
(11.618 -0.259702 0)
(9.90086 0.271866 0)
(10.3834 0.356768 0)
(10.8008 0.211944 0)
(11.0182 0.0976778 0)
(11.1216 0.0949427 0)
(11.1757 0.0980448 0)
(11.2302 0.0916848 0)
(11.2773 0.0674648 0)
(11.3309 0.0543678 0)
(11.3742 0.0396557 0)
(11.4211 0.0390451 0)
(11.4558 0.032525 0)
(11.4915 0.035015 0)
(11.5176 0.0241306 0)
(11.5483 0.025099 0)
(11.5725 0.00483625 0)
(11.6033 -0.00201332 0)
(11.624 -0.0481345 0)
(11.6344 -0.111225 0)
(11.5678 -0.263969 0)
(9.9028 0.228374 0)
(10.3444 0.312696 0)
(10.7511 0.196293 0)
(10.976 0.0827812 0)
(11.0882 0.0799636 0)
(11.1417 0.0860089 0)
(11.1957 0.0824962 0)
(11.2421 0.0600841 0)
(11.2985 0.0485419 0)
(11.3421 0.0345634 0)
(11.3914 0.0346962 0)
(11.4254 0.0283995 0)
(11.4632 0.0303135 0)
(11.4882 0.0214661 0)
(11.5208 0.0198 0)
(11.5434 0.00385944 0)
(11.5747 -0.00988531 0)
(11.5911 -0.0547602 0)
(11.5972 -0.117702 0)
(11.5177 -0.26866 0)
(9.90374 0.189419 0)
(10.3129 0.269384 0)
(10.7071 0.175856 0)
(10.9397 0.0704063 0)
(11.0585 0.0669229 0)
(11.1134 0.0739156 0)
(11.1649 0.0729736 0)
(11.2128 0.0524106 0)
(11.2689 0.0426995 0)
(11.3155 0.0292693 0)
(11.3645 0.0305521 0)
(11.4007 0.0239953 0)
(11.4372 0.0269035 0)
(11.4643 0.0161729 0)
(11.4955 0.0162571 0)
(11.5197 -0.00270354 0)
(11.5482 -0.0161611 0)
(11.5638 -0.060887 0)
(11.5623 -0.125477 0)
(11.4762 -0.269105 0)
(9.90416 0.153904 0)
(10.2871 0.227294 0)
(10.67 0.151488 0)
(10.9086 0.0595125 0)
(11.034 0.0549554 0)
(11.0897 0.0621539 0)
(11.1396 0.0629344 0)
(11.1874 0.0444745 0)
(11.2445 0.0366597 0)
(11.2925 0.0244004 0)
(11.3423 0.0262233 0)
(11.3792 0.0198149 0)
(11.416 0.0226261 0)
(11.4434 0.0126393 0)
(11.4746 0.0120954 0)
(11.4985 -0.00727919 0)
(11.526 -0.0211341 0)
(11.539 -0.0676232 0)
(11.5321 -0.131259 0)
(11.4389 -0.266839 0)
(9.9044 0.121848 0)
(10.2663 0.185188 0)
(10.6394 0.125342 0)
(10.8827 0.0490743 0)
(11.0139 0.0439903 0)
(11.0704 0.0501675 0)
(11.1189 0.0524148 0)
(11.1667 0.0362786 0)
(11.2244 0.0306304 0)
(11.2736 0.0191593 0)
(11.3242 0.0218473 0)
(11.3616 0.0152678 0)
(11.3986 0.0179807 0)
(11.4263 0.00832882 0)
(11.4573 0.00721771 0)
(11.4809 -0.011489 0)
(11.507 -0.0269371 0)
(11.5174 -0.0734431 0)
(11.5058 -0.13645 0)
(11.406 -0.262788 0)
(9.90433 0.0923557 0)
(10.2503 0.14328 0)
(10.615 0.0985286 0)
(10.8623 0.0384198 0)
(10.9978 0.0335269 0)
(11.0555 0.0384177 0)
(11.1024 0.0415697 0)
(11.1505 0.0278624 0)
(11.2084 0.0243192 0)
(11.2589 0.0144023 0)
(11.3097 0.0171293 0)
(11.3479 0.0110694 0)
(11.3846 0.0137582 0)
(11.4129 0.0043092 0)
(11.4431 0.00266977 0)
(11.4666 -0.0158847 0)
(11.4909 -0.0326864 0)
(11.4994 -0.0779574 0)
(11.4828 -0.139866 0)
(11.3782 -0.257992 0)
(9.90424 0.0648334 0)
(10.2385 0.101645 0)
(10.5969 0.0711182 0)
(10.8469 0.0275053 0)
(10.9858 0.0238092 0)
(11.0444 0.0268261 0)
(11.0902 0.0304244 0)
(11.1383 0.0194488 0)
(11.1964 0.0180873 0)
(11.2478 0.00941504 0)
(11.299 0.0125299 0)
(11.3376 0.00676696 0)
(11.3741 0.00891785 0)
(11.4026 0.000281523 0)
(11.4324 -0.0020375 0)
(11.4554 -0.0202829 0)
(11.4781 -0.0377089 0)
(11.4843 -0.0823818 0)
(11.4635 -0.142322 0)
(11.3543 -0.253056 0)
(9.90409 0.0387402 0)
(10.231 0.0602101 0)
(10.5849 0.0435241 0)
(10.8368 0.0160527 0)
(10.9778 0.0145596 0)
(11.0372 0.015366 0)
(11.082 0.0192309 0)
(11.1303 0.010866 0)
(11.1885 0.011747 0)
(11.2405 0.00449809 0)
(11.2918 0.00785036 0)
(11.3307 0.00221197 0)
(11.3671 0.00433528 0)
(11.3956 -0.00379676 0)
(11.4248 -0.00676802 0)
(11.4473 -0.0244132 0)
(11.4683 -0.042618 0)
(11.4723 -0.0858606 0)
(11.4476 -0.144298 0)
(11.3346 -0.246759 0)
(9.90391 0.0134419 0)
(10.2273 0.0190439 0)
(10.5788 0.0154951 0)
(10.8318 0.00434003 0)
(10.9737 0.00568709 0)
(11.0337 0.00413421 0)
(11.0779 0.00771158 0)
(11.1264 0.00237959 0)
(11.1844 0.00527742 0)
(11.2369 -0.000222644 0)
(11.2881 0.00305215 0)
(11.3273 -0.00205739 0)
(11.3634 -0.000270283 0)
(11.3919 -0.0078536 0)
(11.4203 -0.0113501 0)
(11.4422 -0.0283161 0)
(11.4616 -0.0472118 0)
(11.4634 -0.0887843 0)
(11.4352 -0.145741 0)
(11.3186 -0.239457 0)
(9.90371 -0.0115273 0)
(10.2276 -0.0221276 0)
(10.5787 -0.0125377 0)
(10.832 -0.00756367 0)
(10.9736 -0.00307126 0)
(11.0339 -0.0071622 0)
(11.0778 -0.00378962 0)
(11.1265 -0.00626155 0)
(11.1843 -0.00123856 0)
(11.2369 -0.00504974 0)
(11.288 -0.00174156 0)
(11.3272 -0.00653171 0)
(11.363 -0.00495374 0)
(11.3913 -0.0119987 0)
(11.419 -0.0159229 0)
(11.4401 -0.0322939 0)
(11.4578 -0.0515685 0)
(11.4575 -0.0915106 0)
(11.4261 -0.146428 0)
(11.3061 -0.231914 0)
(9.90349 -0.0368562 0)
(10.2317 -0.0632458 0)
(10.5845 -0.0405645 0)
(10.8373 -0.0192466 0)
(10.9775 -0.0120398 0)
(11.0377 -0.0183261 0)
(11.0816 -0.015342 0)
(11.1306 -0.0146889 0)
(11.1881 -0.00779354 0)
(11.2406 -0.00979512 0)
(11.2913 -0.00647311 0)
(11.3305 -0.0109563 0)
(11.3659 -0.00942465 0)
(11.394 -0.0161525 0)
(11.4208 -0.0202322 0)
(11.441 -0.0360847 0)
(11.4571 -0.0554026 0)
(11.4547 -0.0938929 0)
(11.4203 -0.146305 0)
(11.298 -0.224436 0)
(9.90325 -0.0629955 0)
(10.2397 -0.104598 0)
(10.5963 -0.0682883 0)
(10.8478 -0.0305551 0)
(10.9853 -0.0214299 0)
(11.0452 -0.0296064 0)
(11.0895 -0.0268303 0)
(11.1388 -0.0229947 0)
(11.1958 -0.0144117 0)
(11.2479 -0.0145004 0)
(11.2981 -0.0112497 0)
(11.3372 -0.0153393 0)
(11.3721 -0.0139176 0)
(11.3998 -0.0202371 0)
(11.4258 -0.0244646 0)
(11.4449 -0.0396998 0)
(11.4594 -0.0590556 0)
(11.4549 -0.0958612 0)
(11.4181 -0.145868 0)
(11.2935 -0.216437 0)
(9.90297 -0.0905766 0)
(10.2518 -0.146173 0)
(10.6142 -0.0957225 0)
(10.8634 -0.0413529 0)
(10.9971 -0.0313782 0)
(11.0565 -0.0409718 0)
(11.1015 -0.0382378 0)
(11.1512 -0.0311563 0)
(11.2074 -0.0210467 0)
(11.2591 -0.0191987 0)
(11.3086 -0.0160299 0)
(11.3473 -0.0197152 0)
(11.3817 -0.0182917 0)
(11.4089 -0.0243384 0)
(11.434 -0.028486 0)
(11.452 -0.0432103 0)
(11.4649 -0.0623143 0)
(11.4583 -0.0976471 0)
(11.4193 -0.144976 0)
(11.2928 -0.208239 0)
(9.90264 -0.120139 0)
(10.2683 -0.187993 0)
(10.6384 -0.122751 0)
(10.8842 -0.0517514 0)
(11.013 -0.0419743 0)
(11.0717 -0.0524536 0)
(11.1176 -0.0495081 0)
(11.1677 -0.0391031 0)
(11.2231 -0.0277292 0)
(11.2741 -0.023836 0)
(11.3226 -0.0208037 0)
(11.3611 -0.0240117 0)
(11.3948 -0.0225918 0)
(11.4214 -0.0283822 0)
(11.4456 -0.0322736 0)
(11.4624 -0.0465498 0)
(11.4736 -0.0651765 0)
(11.465 -0.0992296 0)
(11.424 -0.143732 0)
(11.2963 -0.200011 0)
(9.90219 -0.152319 0)
(10.2893 -0.22994 0)
(10.669 -0.149052 0)
(10.9103 -0.062018 0)
(11.033 -0.0532502 0)
(11.0911 -0.0639689 0)
(11.1381 -0.0605368 0)
(11.1885 -0.0467858 0)
(11.243 -0.0344407 0)
(11.2931 -0.0284182 0)
(11.3405 -0.0256095 0)
(11.3786 -0.0281784 0)
(11.4114 -0.0269104 0)
(11.4375 -0.0322986 0)
(11.4605 -0.0359648 0)
(11.4761 -0.0496508 0)
(11.4855 -0.0677115 0)
(11.475 -0.100664 0)
(11.4324 -0.142348 0)
(11.3038 -0.191582 0)
(9.90151 -0.187853 0)
(10.3154 -0.272004 0)
(10.7061 -0.173702 0)
(10.9416 -0.072569 0)
(11.0574 -0.0653462 0)
(11.1149 -0.075424 0)
(11.1632 -0.0711891 0)
(11.2139 -0.0541012 0)
(11.2671 -0.041129 0)
(11.3163 -0.0329158 0)
(11.3623 -0.030384 0)
(11.4 -0.0321337 0)
(11.4319 -0.0311896 0)
(11.4574 -0.036078 0)
(11.479 -0.0394577 0)
(11.4935 -0.0525763 0)
(11.5008 -0.0697195 0)
(11.4887 -0.10214 0)
(11.4445 -0.140637 0)
(11.3155 -0.183702 0)
(9.90052 -0.227054 0)
(10.3473 -0.314976 0)
(10.7497 -0.194538 0)
(10.9782 -0.0845921 0)
(11.0865 -0.0787462 0)
(11.1434 -0.0869422 0)
(11.1933 -0.0813791 0)
(11.244 -0.0611615 0)
(11.2958 -0.0477319 0)
(11.3438 -0.0373885 0)
(11.3883 -0.0351285 0)
(11.4257 -0.0358994 0)
(11.4563 -0.0353796 0)
(11.4813 -0.0397036 0)
(11.5013 -0.0426912 0)
(11.5147 -0.0553309 0)
(11.5197 -0.0712312 0)
(11.5063 -0.103578 0)
(11.4606 -0.13884 0)
(11.332 -0.176408 0)
(9.8995 -0.270549 0)
(10.3854 -0.359073 0)
(10.8003 -0.210441 0)
(11.0191 -0.0990695 0)
(11.1205 -0.093794 0)
(11.1761 -0.0986561 0)
(11.2284 -0.0911614 0)
(11.2782 -0.067995 0)
(11.3291 -0.0543852 0)
(11.3754 -0.0418425 0)
(11.4188 -0.0400173 0)
(11.4555 -0.0393741 0)
(11.4852 -0.0397455 0)
(11.5093 -0.042806 0)
(11.5278 -0.0461023 0)
(11.5398 -0.0574214 0)
(11.5426 -0.0728057 0)
(11.5278 -0.104393 0)
(11.4809 -0.137515 0)
(11.3537 -0.169911 0)
(9.89914 -0.319562 0)
(10.4295 -0.403282 0)
(10.8584 -0.223107 0)
(11.0625 -0.11538 0)
(11.1607 -0.10992 0)
(11.212 -0.110248 0)
(11.2699 -0.100311 0)
(11.3154 -0.0743414 0)
(11.3688 -0.0609954 0)
(11.4102 -0.0461597 0)
(11.4559 -0.0450238 0)
(11.4888 -0.0425154 0)
(11.5205 -0.0441829 0)
(11.5407 -0.0453963 0)
(11.5601 -0.0494861 0)
(11.5682 -0.058953 0)
(11.5706 -0.0740878 0)
(11.5519 -0.104872 0)
(11.5047 -0.135895 0)
(11.3779 -0.166819 0)
(9.89895 -0.374559 0)
(10.4799 -0.447393 0)
(10.9243 -0.234524 0)
(11.1083 -0.132913 0)
(11.2089 -0.126554 0)
(11.2506 -0.121692 0)
(11.3208 -0.108691 0)
(11.355 -0.0805192 0)
(11.4189 -0.0673465 0)
(11.4473 -0.0508575 0)
(11.5033 -0.0499485 0)
(11.5227 -0.0458537 0)
(11.564 -0.048404 0)
(11.5698 -0.0478235 0)
(11.5965 -0.0524432 0)
(11.5892 -0.060295 0)
(11.5955 -0.0743107 0)
(11.5604 -0.105336 0)
(11.5135 -0.132254 0)
(11.3758 -0.168333 0)
(9.89568 -0.435688 0)
(10.5394 -0.491107 0)
(10.9961 -0.245778 0)
(11.1612 -0.151819 0)
(11.2645 -0.14371 0)
(11.2975 -0.133173 0)
(11.3805 -0.116538 0)
(11.3997 -0.0869426 0)
(11.476 -0.0736794 0)
(11.482 -0.0560067 0)
(11.5493 -0.0549042 0)
(11.5398 -0.0491623 0)
(11.5906 -0.0521806 0)
(11.5621 -0.0493922 0)
(11.5956 -0.0545777 0)
(11.5494 -0.05995 0)
(11.5594 -0.0731116 0)
(11.4833 -0.103279 0)
(11.4355 -0.125686 0)
(11.265 -0.169727 0)
(9.88747 -0.503846 0)
(10.6129 -0.531842 0)
(11.0749 -0.257946 0)
(11.2301 -0.172456 0)
(11.3257 -0.161344 0)
(11.3578 -0.144624 0)
(11.4324 -0.123421 0)
(11.432 -0.0931317 0)
(11.4917 -0.078723 0)
(11.461 -0.060086 0)
(11.5109 -0.057883 0)
(11.4541 -0.0503514 0)
(11.4909 -0.0531409 0)
(11.4098 -0.0478341 0)
(11.4364 -0.0537798 0)
(11.3361 -0.0552918 0)
(11.3468 -0.0698994 0)
(11.2168 -0.0946118 0)
(11.1711 -0.118064 0)
(10.9567 -0.161602 0)
(9.881 -0.580335 0)
(10.7051 -0.565493 0)
(11.1691 -0.274342 0)
(11.3099 -0.196162 0)
(11.3707 -0.17923 0)
(11.3714 -0.153721 0)
(11.3785 -0.126149 0)
(11.3193 -0.0947633 0)
(11.3074 -0.0777212 0)
(11.2189 -0.0585838 0)
(11.2169 -0.0545158 0)
(11.11 -0.0463637 0)
(11.1168 -0.0481175 0)
(10.9916 -0.0421716 0)
(11.0089 -0.0478837 0)
(10.8653 -0.0476454 0)
(10.8823 -0.0626443 0)
(10.7046 -0.0823286 0)
(10.6701 -0.106525 0)
(10.4101 -0.145649 0)
(9.89831 -0.666499 0)
(10.8183 -0.595882 0)
(11.2472 -0.300178 0)
(11.3004 -0.221693 0)
(11.2323 -0.189377 0)
(11.1073 -0.150423 0)
(10.9818 -0.116222 0)
(10.8317 -0.0844581 0)
(10.7366 -0.0663683 0)
(10.6031 -0.0488821 0)
(10.5575 -0.0444773 0)
(10.4276 -0.0375328 0)
(10.4133 -0.0389079 0)
(10.2712 -0.033908 0)
(10.2829 -0.03923 0)
(10.1176 -0.0385975 0)
(10.142 -0.0530588 0)
(9.92966 -0.0678409 0)
(9.90932 -0.0920773 0)
(9.60625 -0.121085 0)
(9.97594 -0.775346 0)
(10.8743 -0.625863 0)
(11.0972 -0.320712 0)
(10.8893 -0.225331 0)
(10.5912 -0.171417 0)
(10.3094 -0.124205 0)
(10.0764 -0.0902801 0)
(9.87508 -0.0634067 0)
(9.73941 -0.0483953 0)
(9.59825 -0.0353228 0)
(9.53421 -0.0320798 0)
(9.40801 -0.0274719 0)
(9.38258 -0.0286565 0)
(9.24498 -0.0252804 0)
(9.25013 -0.0296538 0)
(9.08386 -0.0293517 0)
(9.10868 -0.0420432 0)
(8.87964 -0.0518345 0)
(8.87107 -0.0763763 0)
(8.53345 -0.0864621 0)
(10.0511 -0.909994 0)
(10.5556 -0.626264 0)
(10.3179 -0.299349 0)
(9.77059 -0.186073 0)
(9.29598 -0.124461 0)
(8.9445 -0.0835857 0)
(8.68583 -0.0586677 0)
(8.48824 -0.0405551 0)
(8.35258 -0.0305124 0)
(8.22882 -0.0223574 0)
(8.1641 -0.020463 0)
(8.05685 -0.0180529 0)
(8.02638 -0.0188954 0)
(7.90746 -0.0171149 0)
(7.90436 -0.0200974 0)
(7.75464 -0.0205279 0)
(7.7714 -0.0299665 0)
(7.54759 -0.0362158 0)
(7.54655 -0.0579021 0)
(7.18463 -0.0523063 0)
(9.76962 -0.984328 0)
(9.41964 -0.545784 0)
(8.65977 -0.22167 0)
(7.90705 -0.11597 0)
(7.41362 -0.0684119 0)
(7.09496 -0.0438899 0)
(6.87405 -0.0307246 0)
(6.71423 -0.0211228 0)
(6.60393 -0.0157759 0)
(6.50969 -0.0116852 0)
(6.45607 -0.0108636 0)
(6.37455 -0.0100513 0)
(6.34443 -0.010495 0)
(6.25234 -0.00989829 0)
(6.24159 -0.0114803 0)
(6.12194 -0.0124618 0)
(6.12477 -0.0179531 0)
(5.93178 -0.0221399 0)
(5.9291 -0.0373394 0)
(5.56684 -0.0252071 0)
(8.57632 -0.844651 0)
(7.11979 -0.366836 0)
(6.08252 -0.11364 0)
(5.39138 -0.045562 0)
(5.03113 -0.0230924 0)
(4.81626 -0.0149808 0)
(4.66918 -0.0108457 0)
(4.56486 -0.00737015 0)
(4.49316 -0.00545704 0)
(4.43395 -0.00416932 0)
(4.39786 -0.00402512 0)
(4.34507 -0.0040437 0)
(4.32066 -0.00417614 0)
(4.25984 -0.00420037 0)
(4.24566 -0.0047415 0)
(4.16496 -0.00569218 0)
(4.15498 -0.00778967 0)
(4.01748 -0.010472 0)
(4.00202 -0.0173544 0)
(3.69988 -0.00867076 0)
(5.39297 -0.302179 0)
(3.1924 -0.0610461 0)
(2.44848 0.000903124 0)
(2.12565 0.00348069 0)
(2.00215 0.00136309 0)
(1.93124 0.000310881 0)
(1.88003 1.12171e-05 0)
(1.84347 7.95206e-05 0)
(1.81875 4.62806e-05 0)
(1.79847 -3.9628e-05 0)
(1.78492 -9.49659e-05 0)
(1.76494 -0.000237862 0)
(1.75318 -0.000183932 0)
(1.72938 -0.000305094 0)
(1.71984 -0.000245806 0)
(1.68728 -0.000564288 0)
(1.67516 -0.000506198 0)
(1.61705 -0.00121589 0)
(1.59344 -0.00156031 0)
(1.45281 0.00992646 0)
(2.84411 -0.685146 0)
(3.34908 -0.572125 0)
(3.75122 -0.586851 0)
(4.17741 -0.656662 0)
(4.49023 -0.713724 0)
(4.80335 -0.74801 0)
(5.1528 -0.770648 0)
(5.47485 -0.798321 0)
(5.85601 -0.789122 0)
(6.18112 -0.767732 0)
(6.54443 -0.781841 0)
(6.9211 -0.822875 0)
(7.30719 -0.919707 0)
(7.61961 -1.02206 0)
(7.86151 -1.15225 0)
(8.04911 -1.32251 0)
(8.17973 -1.51382 0)
(8.26038 -1.71065 0)
(8.31011 -1.91317 0)
(8.33574 -2.12173 0)
(8.32641 -2.31839 0)
(8.27112 -2.48663 0)
(8.16746 -2.61759 0)
(8.02888 -2.70822 0)
(7.88528 -2.76451 0)
(7.75982 -2.79867 0)
(7.67158 -2.82012 0)
(7.62689 -2.83192 0)
(7.60629 -2.82883 0)
(7.58746 -2.80435 0)
(7.55625 -2.75839 0)
(7.50209 -2.69238 0)
(7.42184 -2.60522 0)
(7.31737 -2.49789 0)
(7.18785 -2.37361 0)
(7.03356 -2.23478 0)
(6.86382 -2.08512 0)
(6.69648 -1.93153 0)
(6.54495 -1.78073 0)
(6.41248 -1.63585 0)
(6.29419 -1.49719 0)
(6.18364 -1.36328 0)
(6.07895 -1.23407 0)
(5.97963 -1.11146 0)
(5.8866 -0.995608 0)
(5.80076 -0.887349 0)
(5.72183 -0.788928 0)
(5.65063 -0.70015 0)
(5.58672 -0.619938 0)
(5.52917 -0.548459 0)
(5.47824 -0.48545 0)
(5.43349 -0.429555 0)
(5.39404 -0.37948 0)
(5.35925 -0.335174 0)
(5.3288 -0.29726 0)
(5.30308 -0.265183 0)
(5.2825 -0.237068 0)
(5.26621 -0.211383 0)
(5.25243 -0.187802 0)
(5.24012 -0.166562 0)
(5.22947 -0.147751 0)
(5.22084 -0.131306 0)
(5.21407 -0.117137 0)
(5.20864 -0.10502 0)
(5.20426 -0.0945283 0)
(5.20096 -0.085201 0)
(5.19883 -0.0767274 0)
(5.19781 -0.0689762 0)
(5.19761 -0.0619073 0)
(5.19783 -0.0554845 0)
(5.19814 -0.0496482 0)
(5.19828 -0.0443312 0)
(5.19816 -0.0394804 0)
(5.1978 -0.0350624 0)
(5.19724 -0.031057 0)
(5.19659 -0.027448 0)
(5.19591 -0.0242168 0)
(5.19526 -0.0213397 0)
(5.19466 -0.0187883 0)
(5.19413 -0.0165315 0)
(5.19367 -0.0145373 0)
(5.19328 -0.0127748 0)
(5.19296 -0.0112157 0)
(5.19268 -0.00983449 0)
(5.19246 -0.0086089 0)
(5.19227 -0.00751939 0)
(5.19212 -0.00654903 0)
(5.19199 -0.00568333 0)
(5.19188 -0.00490898 0)
(5.1918 -0.00421491 0)
(5.19173 -0.00359098 0)
(5.19167 -0.00302813 0)
(5.19162 -0.00251821 0)
(5.19158 -0.00205412 0)
(5.19155 -0.00162916 0)
(5.19152 -0.00123763 0)
(5.1915 -0.000874154 0)
(5.19149 -0.000533582 0)
(5.19147 -0.000211593 0)
(5.19146 9.61276e-05 0)
(5.19146 0.000393248 0)
(5.19145 0.000684071 0)
(5.19145 0.000971121 0)
(5.19145 0.00125966 0)
(5.19145 0.00154965 0)
(5.19145 0.00185055 0)
(5.19146 0.00215512 0)
(5.19146 0.00248514 0)
(5.19148 0.00281294 0)
(5.19147 0.00319506 0)
(5.1915 0.00354792 0)
(5.19147 0.00401983 0)
(5.19155 0.00438325 0)
(5.19147 0.00501405 0)
(5.19162 0.00533876 0)
(5.19144 0.0062574 0)
(5.1917 0.00642958 0)
(5.19137 0.0078628 0)
(5.19177 0.0076707 0)
(5.19122 0.00996771 0)
(5.19173 0.00909118 0)
(5.19094 0.0126807 0)
(5.1914 0.0107495 0)
(5.19042 0.0159765 0)
(5.19058 0.0127127 0)
(5.18951 0.0196175 0)
(5.18917 0.014991 0)
(5.1881 0.0232174 0)
(5.18729 0.0175468 0)
(5.18622 0.0263416 0)
(5.18532 0.0205727 0)
(5.18387 0.0285029 0)
(5.18409 0.0246908 0)
(5.1804 0.0295344 0)
(5.18509 0.0301366 0)
(5.17453 0.0305785 0)
(5.1892 0.0356849 0)
(5.16618 0.0336935 0)
(5.19477 0.0400216 0)
(5.15792 0.0393915 0)
(5.19826 0.0437979 0)
(5.15305 0.0461314 0)
(5.19746 0.0489972 0)
(5.15224 0.0526681 0)
(5.19354 0.0563409 0)
(5.15312 0.0596871 0)
(5.18909 0.0650679 0)
(5.1539 0.0683923 0)
(5.18447 0.0747805 0)
(5.15545 0.079257 0)
(5.17857 0.0858501 0)
(5.15837 0.0923641 0)
(5.17184 0.0990861 0)
(5.16142 0.107566 0)
(5.16567 0.115516 0)
(5.16366 0.125056 0)
(5.16034 0.135369 0)
(5.16544 0.146221 0)
(5.15531 0.158531 0)
(5.16706 0.171899 0)
(5.15099 0.186367 0)
(5.1675 0.201855 0)
(5.14843 0.220472 0)
(5.16632 0.237184 0)
(5.14796 0.261101 0)
(5.16263 0.279622 0)
(5.15128 0.309814 0)
(5.15519 0.329587 0)
(5.1594 0.368663 0)
(5.14313 0.389236 0)
(5.17403 0.438827 0)
(5.1254 0.460839 0)
(5.19599 0.522659 0)
(5.10298 0.54774 0)
(5.22361 0.622235 0)
(5.07998 0.654246 0)
(5.25227 0.740025 0)
(5.06405 0.787931 0)
(5.27237 0.876428 0)
(5.06589 0.958984 0)
(5.26733 1.03584 0)
(5.10188 1.17183 0)
(5.21724 1.23171 0)
(5.17608 1.42693 0)
(5.1275 1.48602 0)
(5.26243 1.72255 0)
(5.05597 1.83094 0)
(5.28578 2.0551 0)
(5.08406 2.28723 0)
(5.16104 2.47707 0)
(5.21348 2.80824 0)
(5.05915 3.1167 0)
(5.12616 3.45044 0)
(4.97231 3.96474 0)
(4.88931 4.44388 0)
(5.12536 4.90933 0)
(4.93733 5.8075 0)
(4.77855 6.86977 0)
(5.28628 7.8848 0)
(3.01054 11.2586 0)
(4.75061 -0.733026 0)
(4.92266 -0.69125 0)
(5.07471 -0.730511 0)
(5.2821 -0.774944 0)
(5.44453 -0.81069 0)
(5.65056 -0.866155 0)
(5.84118 -0.895733 0)
(5.98805 -0.913887 0)
(6.16914 -0.916769 0)
(6.34855 -0.917789 0)
(6.62671 -0.959951 0)
(6.97379 -1.01132 0)
(7.3219 -1.08344 0)
(7.61685 -1.15762 0)
(7.86305 -1.26157 0)
(8.06551 -1.40598 0)
(8.21295 -1.57189 0)
(8.31506 -1.74614 0)
(8.39221 -1.93312 0)
(8.43999 -2.12405 0)
(8.43973 -2.29825 0)
(8.38206 -2.44469 0)
(8.27808 -2.56275 0)
(8.15665 -2.65346 0)
(8.04938 -2.71995 0)
(7.9779 -2.7686 0)
(7.94647 -2.80476 0)
(7.93271 -2.82537 0)
(7.90869 -2.82125 0)
(7.86134 -2.78919 0)
(7.78743 -2.73292 0)
(7.68777 -2.65498 0)
(7.56598 -2.55637 0)
(7.42251 -2.43928 0)
(7.2573 -2.30698 0)
(7.07899 -2.16373 0)
(6.90331 -2.0153 0)
(6.74372 -1.86757 0)
(6.60301 -1.72392 0)
(6.47616 -1.58458 0)
(6.35741 -1.44923 0)
(6.24263 -1.31769 0)
(6.13226 -1.19042 0)
(6.02735 -1.06979 0)
(5.9288 -0.956606 0)
(5.83804 -0.851179 0)
(5.75429 -0.755649 0)
(5.67756 -0.670155 0)
(5.6083 -0.593185 0)
(5.54599 -0.524599 0)
(5.49077 -0.464378 0)
(5.44276 -0.411212 0)
(5.40136 -0.363571 0)
(5.3658 -0.321278 0)
(5.33516 -0.285202 0)
(5.30899 -0.255133 0)
(5.28748 -0.229059 0)
(5.2704 -0.204953 0)
(5.25648 -0.182327 0)
(5.24451 -0.161785 0)
(5.23429 -0.143778 0)
(5.22621 -0.128209 0)
(5.22023 -0.114754 0)
(5.21567 -0.103096 0)
(5.2118 -0.0929225 0)
(5.20831 -0.0839253 0)
(5.20527 -0.0758439 0)
(5.20291 -0.0684906 0)
(5.20135 -0.0617371 0)
(5.20047 -0.0554941 0)
(5.20004 -0.0497037 0)
(5.19977 -0.0443387 0)
(5.19948 -0.0393965 0)
(5.19905 -0.0348855 0)
(5.19847 -0.0308106 0)
(5.19779 -0.0271639 0)
(5.19705 -0.0239239 0)
(5.19632 -0.0210588 0)
(5.19563 -0.0185317 0)
(5.195 -0.0163047 0)
(5.19445 -0.0143411 0)
(5.19398 -0.0126076 0)
(5.19357 -0.0110745 0)
(5.19323 -0.00971615 0)
(5.19294 -0.00851014 0)
(5.1927 -0.00743719 0)
(5.1925 -0.00648065 0)
(5.19233 -0.0056267 0)
(5.19219 -0.00486207 0)
(5.19207 -0.00417619 0)
(5.19197 -0.00355886 0)
(5.19189 -0.00300153 0)
(5.19182 -0.00249624 0)
(5.19177 -0.00203598 0)
(5.19172 -0.00161415 0)
(5.19168 -0.00122543 0)
(5.19165 -0.000864328 0)
(5.19163 -0.000525722 0)
(5.19161 -0.000205411 0)
(5.19159 0.000100818 0)
(5.19158 0.000396504 0)
(5.19157 0.000686203 0)
(5.19157 0.000972068 0)
(5.19157 0.00125962 0)
(5.19157 0.00154831 0)
(5.19157 0.00184867 0)
(5.19159 0.0021516 0)
(5.19159 0.00248189 0)
(5.19162 0.00280633 0)
(5.19162 0.00319145 0)
(5.19168 0.00353647 0)
(5.19165 0.00401903 0)
(5.19176 0.00436178 0)
(5.19167 0.00502431 0)
(5.19188 0.00529583 0)
(5.19167 0.00629911 0)
(5.19205 0.00634006 0)
(5.19162 0.0079809 0)
(5.19224 0.00748791 0)
(5.19149 0.0102502 0)
(5.19235 0.00873983 0)
(5.19124 0.0132725 0)
(5.19216 0.0101296 0)
(5.19081 0.0170688 0)
(5.19133 0.0117023 0)
(5.19018 0.0214124 0)
(5.18957 0.0134106 0)
(5.18948 0.0259249 0)
(5.18658 0.0151001 0)
(5.18932 0.0302012 0)
(5.18206 0.0168803 0)
(5.19065 0.0336499 0)
(5.17585 0.0196324 0)
(5.19392 0.0356392 0)
(5.16842 0.0243625 0)
(5.19842 0.0366519 0)
(5.16058 0.0305983 0)
(5.20297 0.0383439 0)
(5.1533 0.0369462 0)
(5.20597 0.041734 0)
(5.14832 0.0431851 0)
(5.20548 0.0464636 0)
(5.14724 0.049783 0)
(5.20126 0.0526729 0)
(5.14887 0.0566236 0)
(5.19575 0.0610765 0)
(5.1505 0.0639337 0)
(5.19062 0.0711393 0)
(5.15212 0.0731514 0)
(5.18452 0.0817765 0)
(5.15562 0.0853313 0)
(5.1764 0.0934699 0)
(5.16092 0.100124 0)
(5.16759 0.10767 0)
(5.1663 0.117132 0)
(5.15941 0.125159 0)
(5.17167 0.137087 0)
(5.15121 0.146074 0)
(5.17784 0.160984 0)
(5.14311 0.171037 0)
(5.18396 0.189245 0)
(5.13617 0.201301 0)
(5.18983 0.222456 0)
(5.13064 0.237646 0)
(5.19478 0.262143 0)
(5.12805 0.281094 0)
(5.1978 0.30884 0)
(5.12939 0.334014 0)
(5.19765 0.36367 0)
(5.13721 0.397824 0)
(5.19176 0.428622 0)
(5.15407 0.475189 0)
(5.1786 0.505308 0)
(5.18155 0.568911 0)
(5.15644 0.597855 0)
(5.22272 0.680306 0)
(5.12573 0.712208 0)
(5.27275 0.812712 0)
(5.0971 0.855033 0)
(5.32052 0.968553 0)
(5.08776 1.03885 0)
(5.34314 1.14795 0)
(5.12106 1.2768 0)
(5.30944 1.35995 0)
(5.21215 1.5691 0)
(5.21044 1.63575 0)
(5.33577 1.90503 0)
(5.12761 2.02278 0)
(5.38677 2.27882 0)
(5.17629 2.54816 0)
(5.22818 2.7652 0)
(5.35306 3.11629 0)
(5.24651 3.49656 0)
(5.42532 3.82721 0)
(5.31583 4.46422 0)
(5.198 5.09607 0)
(5.27189 5.71419 0)
(5.14247 6.97652 0)
(6.52085 7.7352 0)
(4.29714 12.0675 0)
(6.49646 -0.605633 0)
(6.44756 -0.699416 0)
(6.53383 -0.757823 0)
(6.63751 -0.806203 0)
(6.71729 -0.850587 0)
(6.79622 -0.901205 0)
(6.84686 -0.923947 0)
(6.8445 -0.935896 0)
(6.8873 -0.954543 0)
(7.00698 -0.984806 0)
(7.20363 -1.04949 0)
(7.39571 -1.11014 0)
(7.57338 -1.17883 0)
(7.75021 -1.25441 0)
(7.93996 -1.3524 0)
(8.12189 -1.47684 0)
(8.27013 -1.62224 0)
(8.39014 -1.78238 0)
(8.48562 -1.95534 0)
(8.54275 -2.12515 0)
(8.54404 -2.27752 0)
(8.49395 -2.40923 0)
(8.41997 -2.52462 0)
(8.35363 -2.62266 0)
(8.3138 -2.69989 0)
(8.30005 -2.75753 0)
(8.29051 -2.79666 0)
(8.25598 -2.8114 0)
(8.18598 -2.79673 0)
(8.08592 -2.75414 0)
(7.96238 -2.68747 0)
(7.82105 -2.59943 0)
(7.66241 -2.49232 0)
(7.48634 -2.36887 0)
(7.29934 -2.23321 0)
(7.11589 -2.09119 0)
(6.94863 -1.94801 0)
(6.8005 -1.80686 0)
(6.66654 -1.66859 0)
(6.53951 -1.53269 0)
(6.41624 -1.39921 0)
(6.29558 -1.26935 0)
(6.17909 -1.14433 0)
(6.06902 -1.02595 0)
(5.9656 -0.915444 0)
(5.8701 -0.81314 0)
(5.78232 -0.720668 0)
(5.70153 -0.638326 0)
(5.62845 -0.564572 0)
(5.56304 -0.499118 0)
(5.50506 -0.441986 0)
(5.45468 -0.391844 0)
(5.41182 -0.347091 0)
(5.37602 -0.307337 0)
(5.34604 -0.273297 0)
(5.32042 -0.245001 0)
(5.29859 -0.220714 0)
(5.28061 -0.198257 0)
(5.26614 -0.176853 0)
(5.25424 -0.157175 0)
(5.24435 -0.139999 0)
(5.23656 -0.125332 0)
(5.23091 -0.112653 0)
(5.22684 -0.101445 0)
(5.22343 -0.0914137 0)
(5.21993 -0.0824389 0)
(5.21616 -0.0744477 0)
(5.21236 -0.0673193 0)
(5.20895 -0.0608732 0)
(5.20622 -0.0549249 0)
(5.20421 -0.0493461 0)
(5.20277 -0.0440891 0)
(5.20168 -0.0391709 0)
(5.20077 -0.0346363 0)
(5.19991 -0.0305243 0)
(5.19905 -0.0268495 0)
(5.19819 -0.0235997 0)
(5.19735 -0.020743 0)
(5.19656 -0.0182377 0)
(5.19585 -0.0160403 0)
(5.19521 -0.014109 0)
(5.19465 -0.0124072 0)
(5.19417 -0.0109034 0)
(5.19377 -0.00957114 0)
(5.19342 -0.00838773 0)
(5.19313 -0.00733399 0)
(5.19288 -0.00639408 0)
(5.19267 -0.00555375 0)
(5.19249 -0.00480103 0)
(5.19234 -0.00412493 0)
(5.19222 -0.00351587 0)
(5.19211 -0.00296546 0)
(5.19202 -0.00246614 0)
(5.19195 -0.00201084 0)
(5.19189 -0.00159344 0)
(5.19184 -0.00120842 0)
(5.1918 -0.000850439 0)
(5.19176 -0.000514637 0)
(5.19174 -0.000196831 0)
(5.19172 0.000107148 0)
(5.1917 0.000400822 0)
(5.19169 0.000688694 0)
(5.19169 0.000972743 0)
(5.19169 0.00125876 0)
(5.1917 0.00154567 0)
(5.1917 0.00184488 0)
(5.19172 0.0021455 0)
(5.19173 0.00247553 0)
(5.19177 0.00279591 0)
(5.19177 0.00318358 0)
(5.19185 0.0035193 0)
(5.19182 0.00401285 0)
(5.19197 0.00433178 0)
(5.19186 0.00502895 0)
(5.19215 0.00523849 0)
(5.19187 0.00633768 0)
(5.19242 0.00622387 0)