/*--------------------------------*- C++ -*----------------------------------*\
| =========                 |                                                 |
| \\      /  F ield         | OpenFOAM: The Open Source CFD Toolbox           |
|  \\    /   O peration     | Version:  2.4.0                                 |
|   \\  /    A nd           | Web:      www.OpenFOAM.org                      |
|    \\/     M anipulation  |                                                 |
\*---------------------------------------------------------------------------*/
FoamFile
{
    version     2.0;
    format      ascii;
    class       surfaceScalarField;
    location    "0.253";
    object      phi;
}
// * * * * * * * * * * * * * * * * * * * * * * * * * * * * * * * * * * * * * //

dimensions      [0 3 -1 0 0 0 0];

internalField   nonuniform List<scalar> 
34880
(
5.48634e-06
7.01366e-06
3.1246e-06
2.36173e-06
2.4707e-06
6.539e-07
2.22636e-06
2.44347e-07
2.06938e-06
1.56979e-07
1.96933e-06
1.00048e-07
1.89406e-06
7.52717e-08
1.81786e-06
7.62016e-08
1.77718e-06
4.0675e-08
1.7533e-06
2.38783e-08
1.70768e-06
4.56262e-08
1.69488e-06
1.27968e-08
1.69444e-06
4.40757e-10
1.65951e-06
3.49249e-08
1.67775e-06
-1.82334e-08
1.70806e-06
-3.03095e-08
1.70014e-06
7.91886e-09
1.835e-06
-1.34865e-07
1.54995e-06
2.85055e-07
-1.79375e-06
3.3437e-06
1.01089e-05
9.40477e-06
7.82541e-06
4.64521e-06
6.70981e-06
1.76951e-06
6.07119e-06
8.82965e-07
5.6385e-06
5.89663e-07
5.35658e-06
3.81968e-07
5.12984e-06
3.0202e-07
4.94367e-06
2.62366e-07
4.81926e-06
1.65088e-07
4.72465e-06
1.18484e-07
4.61811e-06
1.52171e-07
4.57964e-06
5.12644e-08
4.52758e-06
5.25062e-08
4.47514e-06
8.7357e-08
4.49236e-06
-3.54461e-08
4.51078e-06
-4.87345e-08
4.52785e-06
-9.15267e-09
4.76158e-06
-3.68592e-07
4.67247e-06
3.74167e-07
-2.41661e-06
5.29533e-06
1.24252e-05
9.47958e-06
1.0994e-05
6.0764e-06
9.98219e-06
2.78131e-06
9.20885e-06
1.65631e-06
8.60994e-06
1.18858e-06
8.20174e-06
7.9017e-07
7.86208e-06
6.4168e-07
7.59552e-06
5.28921e-07
7.40181e-06
3.58798e-07
7.246e-06
2.7429e-07
7.09134e-06
3.06833e-07
7.02699e-06
1.15614e-07
6.92456e-06
1.54938e-07
6.86113e-06
1.50786e-07
6.86607e-06
-4.03874e-08
6.85356e-06
-3.62159e-08
6.9012e-06
-5.67924e-08
7.12009e-06
-5.87488e-07
7.25259e-06
2.41671e-07
-2.60548e-06
7.44145e-06
1.34159e-05
8.56373e-06
1.28743e-05
6.61795e-06
1.23286e-05
3.327e-06
1.17228e-05
2.26217e-06
1.11194e-05
1.79195e-06
1.06764e-05
1.23314e-06
1.02743e-05
1.04383e-06
9.9598e-06
8.43373e-07
9.72335e-06
5.95254e-07
9.52126e-06
4.76379e-07
9.32891e-06
4.99177e-07
9.24524e-06
1.99288e-07
9.10184e-06
2.98336e-07
9.02163e-06
2.31003e-07
9.01907e-06
-3.78331e-08
8.96727e-06
1.55867e-08
9.03934e-06
-1.28868e-07
9.20223e-06
-7.5037e-07
9.45169e-06
-7.79711e-09
-2.67422e-06
9.52044e-06
1.35997e-05
7.46406e-06
1.36415e-05
6.57611e-06
1.36239e-05
3.34457e-06
1.34096e-05
2.47652e-06
1.29944e-05
2.20716e-06
1.26497e-05
1.57779e-06
1.2271e-05
1.42254e-06
1.19607e-05
1.15365e-06
1.17247e-05
8.31289e-07
1.15055e-05
6.95618e-07
1.12947e-05
7.0993e-07
1.12048e-05
2.89191e-07
1.10381e-05
4.65004e-07
1.09436e-05
3.25574e-07
1.09366e-05
-3.08323e-08
1.0856e-05
9.61213e-08
1.0935e-05
-2.07796e-07
1.10469e-05
-8.62339e-07
1.13071e-05
-2.67999e-07
-2.66082e-06
1.12937e-05
1.35004e-05
6.46362e-06
1.37319e-05
6.34462e-06
1.39896e-05
3.08686e-06
1.41578e-05
2.30831e-06
1.40427e-05
2.32229e-06
1.39292e-05
1.69135e-06
1.36907e-05
1.66096e-06
1.34656e-05
1.37877e-06
1.32924e-05
1.00449e-06
1.31055e-05
8.82553e-07
1.29098e-05
9.056e-07
1.28348e-05
3.64232e-07
1.26721e-05
6.27686e-07
1.25775e-05
4.2018e-07
1.25701e-05
-2.34164e-08
1.24811e-05
1.8511e-07
1.25533e-05
-2.79983e-07
1.26328e-05
-9.41874e-07
1.28866e-05
-5.21839e-07
-2.4486e-06
1.26744e-05
1.33932e-05
5.57045e-06
1.36875e-05
6.05029e-06
1.39103e-05
2.86409e-06
1.42429e-05
1.97571e-06
1.43312e-05
2.23392e-06
1.44356e-05
1.58695e-06
1.43963e-05
1.70033e-06
1.43261e-05
1.44899e-06
1.42765e-05
1.05409e-06
1.41933e-05
9.65697e-07
1.40657e-05
1.03318e-06
1.40362e-05
3.93768e-07
1.39188e-05
7.45055e-07
1.38476e-05
4.91408e-07
1.3854e-05
-2.98241e-08
1.378e-05
2.59109e-07
1.38499e-05
-3.49897e-07
1.38893e-05
-9.81298e-07
1.41841e-05
-8.16625e-07
-3.06038e-06
1.47959e-05
1.32989e-05
4.77151e-06
1.36976e-05
5.65163e-06
1.37798e-05
2.78191e-06
1.41349e-05
1.62064e-06
1.42816e-05
2.08717e-06
1.44509e-05
1.41768e-06
1.45354e-05
1.61586e-06
1.45885e-05
1.3958e-06
1.46289e-05
1.01374e-06
1.46795e-05
9.15107e-07
1.46621e-05
1.05054e-06
1.46949e-05
3.60951e-07
1.467e-05
7.69978e-07
1.46542e-05
5.07232e-07
1.47016e-05
-7.72355e-08
1.46735e-05
2.87223e-07
1.47542e-05
-4.30609e-07
1.47722e-05
-9.99291e-07
1.50155e-05
-1.05994e-06
-2.57424e-06
1.45294e-05
1.32067e-05
4.06481e-06
1.36638e-05
5.19448e-06
1.36729e-05
2.77284e-06
1.40171e-05
1.27644e-06
1.42038e-05
1.90047e-06
1.43464e-05
1.27513e-06
1.44712e-05
1.49099e-06
1.45923e-05
1.27469e-06
1.46204e-05
9.85666e-07
1.47306e-05
8.04911e-07
1.48035e-05
9.77664e-07
1.48541e-05
3.10293e-07
1.4912e-05
7.12133e-07
1.495e-05
4.69252e-07
1.50516e-05
-1.78876e-07
1.51046e-05
2.34226e-07
1.51735e-05
-4.995e-07
1.52478e-05
-1.07359e-06
1.55793e-05
-1.39141e-06
-3.22694e-06
1.6232e-05
1.31183e-05
3.44654e-06
1.36431e-05
4.66965e-06
1.3604e-05
2.81192e-06
1.39204e-05
9.60103e-07
1.41542e-05
1.6666e-06
1.42379e-05
1.19151e-06
1.4367e-05
1.36181e-06
1.45534e-05
1.08831e-06
1.45563e-05
9.82742e-07
1.46582e-05
7.03056e-07
1.47856e-05
8.50256e-07
1.48029e-05
2.92951e-07
1.48931e-05
6.22012e-07
1.49325e-05
4.29858e-07
1.50499e-05
-2.96362e-07
1.51703e-05
1.13909e-07
1.52146e-05
-5.43812e-07
1.53729e-05
-1.23189e-06
1.57636e-05
-1.78216e-06
-3.49509e-06
1.60318e-05
1.30647e-05
2.88187e-06
1.35974e-05
4.13695e-06
1.3574e-05
2.8353e-06
1.38624e-05
6.71658e-07
1.40632e-05
1.46578e-06
1.41386e-05
1.11612e-06
1.42739e-05
1.22657e-06
1.44662e-05
8.9595e-07
1.45255e-05
9.23494e-07
1.46176e-05
6.10971e-07
1.47454e-05
7.22476e-07
1.4759e-05
2.79313e-07
1.48428e-05
5.3825e-07
1.4889e-05
3.83588e-07
1.49669e-05
-3.74215e-07
1.50858e-05
-4.9763e-09
1.51739e-05
-6.31944e-07
1.53712e-05
-1.42915e-06
1.56548e-05
-2.06576e-06
-3.5242e-06
1.56839e-05
1.30283e-05
2.35355e-06
1.34781e-05
3.68719e-06
1.35458e-05
2.76754e-06
1.37663e-05
4.51249e-07
1.39427e-05
1.28937e-06
1.41167e-05
9.42135e-07
1.42201e-05
1.12317e-06
1.43512e-05
7.64807e-07
1.45119e-05
7.62778e-07
1.45802e-05
5.42687e-07
1.46439e-05
6.58815e-07
1.47155e-05
2.07662e-07
1.4802e-05
4.51798e-07
1.48443e-05
3.41271e-07
1.49017e-05
-4.3164e-07
1.50162e-05
-1.19472e-07
1.51289e-05
-7.44613e-07
1.53234e-05
-1.6237e-06
1.55046e-05
-2.24693e-06
-3.47716e-06
1.54575e-05
1.29395e-05
1.91402e-06
1.3389e-05
3.23768e-06
1.35454e-05
2.61117e-06
1.36628e-05
3.33891e-07
1.3909e-05
1.04316e-06
1.41327e-05
7.18388e-07
1.41505e-05
1.10537e-06
1.42782e-05
6.37088e-07
1.44707e-05
5.70341e-07
1.44928e-05
5.20546e-07
1.45463e-05
6.05345e-07
1.46407e-05
1.13293e-07
1.4739e-05
3.53446e-07
1.47879e-05
2.9233e-07
1.4847e-05
-4.90652e-07
1.49949e-05
-2.67444e-07
1.50811e-05
-8.30769e-07
1.52231e-05
-1.76567e-06
1.54014e-05
-2.42524e-06
-3.60621e-06
1.55304e-05
1.28494e-05
1.56459e-06
1.33823e-05
2.7048e-06
1.36008e-05
2.39263e-06
1.3637e-05
2.97764e-07
1.39165e-05
7.63607e-07
1.40688e-05
5.6613e-07
1.4072e-05
1.10211e-06
1.42488e-05
4.60316e-07
1.43988e-05
4.20351e-07
1.44214e-05
4.97914e-07
1.45206e-05
5.0614e-07
1.45727e-05
6.11997e-08
1.46681e-05
2.58071e-07
1.47557e-05
2.04746e-07
1.48139e-05
-5.48881e-07
1.49668e-05
-4.20364e-07
1.50489e-05
-9.12809e-07
1.51549e-05
-1.87165e-06
1.53175e-05
-2.58792e-06
-3.979e-06
1.56903e-05
1.28349e-05
1.22967e-06
1.33567e-05
2.18297e-06
1.359e-05
2.15936e-06
1.36541e-05
2.33689e-07
1.3852e-05
5.65667e-07
1.39637e-05
4.54488e-07
1.40637e-05
1.00204e-06
1.42215e-05
3.02599e-07
1.43377e-05
3.04071e-07
1.44083e-05
4.27327e-07
1.4514e-05
4.00495e-07
1.45376e-05
3.75547e-08
1.46129e-05
1.82811e-07
1.47322e-05
8.54387e-08
1.47865e-05
-6.03239e-07
1.49166e-05
-5.50449e-07
1.50145e-05
-1.01064e-06
1.50944e-05
-1.95155e-06
1.52781e-05
-2.77162e-06
-4.63002e-06
1.59291e-05
1.2831e-05
8.98662e-07
1.3272e-05
1.74196e-06
1.3558e-05
1.87341e-06
1.36602e-05
1.31512e-07
1.37669e-05
4.58902e-07
1.39253e-05
2.96058e-07
1.40846e-05
8.42791e-07
1.41805e-05
2.06687e-07
1.43004e-05
1.84148e-07
1.44032e-05
3.24543e-07
1.44805e-05
3.2319e-07
1.45049e-05
1.31443e-08
1.45822e-05
1.05583e-07
1.46953e-05
-2.77234e-08
1.47482e-05
-6.56117e-07
1.48681e-05
-6.70344e-07
1.49722e-05
-1.11469e-06
1.50183e-05
-1.99766e-06
1.52425e-05
-2.99582e-06
-5.47312e-06
1.60856e-05
1.27738e-05
6.24848e-07
1.32064e-05
1.30937e-06
1.3572e-05
1.5078e-06
1.36546e-05
4.89087e-08
1.37459e-05
3.67573e-07
1.39247e-05
1.17254e-07
1.40554e-05
7.12171e-07
1.41432e-05
1.18864e-07
1.42763e-05
5.10155e-08
1.43598e-05
2.41021e-07
1.44497e-05
2.33371e-07
1.44769e-05
-1.41394e-08
1.45634e-05
1.91466e-08
1.46576e-05
-1.21975e-07
1.4723e-05
-7.21525e-07
1.48152e-05
-7.62506e-07
1.49191e-05
-1.21855e-06
1.50021e-05
-2.08072e-06
1.5185e-05
-3.17872e-06
-4.5012e-06
1.42131e-05
1.27295e-05
3.95311e-07
1.3191e-05
8.47959e-07
1.35841e-05
1.11468e-06
1.3648e-05
-1.49734e-08
1.37529e-05
2.62616e-07
1.38857e-05
-1.55788e-08
1.40152e-05
5.82746e-07
1.41383e-05
-4.24241e-09
1.42388e-05
-4.94677e-08
1.43346e-05
1.45213e-07
1.44329e-05
1.35063e-07
1.44762e-05
-5.74547e-08
1.45353e-05
-4.00032e-08
1.4649e-05
-2.35653e-07
1.46924e-05
-7.64887e-07
1.47812e-05
-8.51367e-07
1.48919e-05
-1.32926e-06
1.50103e-05
-2.1991e-06
1.52272e-05
-3.39563e-06
-4.83592e-06
1.5562e-05
1.27358e-05
1.5953e-07
1.31871e-05
3.96666e-07
1.3553e-05
7.48745e-07
1.36531e-05
-1.15055e-07
1.37376e-05
1.78122e-07
1.38424e-05
-1.20392e-07
1.40219e-05
4.03222e-07
1.41342e-05
-1.16479e-07
1.422e-05
-1.35334e-07
1.43332e-05
3.20279e-08
1.44201e-05
4.81915e-08
1.44749e-05
-1.12231e-07
1.4524e-05
-8.91276e-08
1.46406e-05
-3.52304e-07
1.46648e-05
-7.89053e-07
1.47688e-05
-9.55417e-07
1.48839e-05
-1.44428e-06
1.50132e-05
-2.32844e-06
1.5127e-05
-3.50938e-06
-5.02037e-06
1.53114e-05
1.27426e-05
-8.31144e-08
1.31718e-05
-3.25178e-08
1.35361e-05
3.845e-07
1.36668e-05
-2.45816e-07
1.37177e-05
1.27254e-07
1.38409e-05
-2.43567e-07
1.4038e-05
2.06133e-07
1.41283e-05
-2.06811e-07
1.42197e-05
-2.26764e-07
1.43274e-05
-7.56731e-08
1.43957e-05
-2.00356e-08
1.44611e-05
-1.77704e-07
1.45273e-05
-1.55301e-07
1.46284e-05
-4.53356e-07
1.46516e-05
-8.1233e-07
1.47656e-05
-1.06942e-06
1.48684e-05
-1.54703e-06
1.49808e-05
-2.44083e-06
1.50657e-05
-3.5943e-06
-5.26539e-06
1.53107e-05
1.27352e-05
-3.18305e-07
1.31668e-05
-4.64169e-07
1.35533e-05
-1.94742e-09
1.36483e-05
-3.40796e-07
1.37114e-05
6.41173e-08
1.38623e-05
-3.94483e-07
1.40361e-05
3.23754e-08
1.41259e-05
-2.96676e-07
1.42275e-05
-3.28348e-07
1.4311e-05
-1.591e-07
1.43673e-05
-7.63456e-08
1.44671e-05
-2.77582e-07
1.45367e-05
-2.24898e-07
1.46055e-05
-5.22091e-07
1.46607e-05
-8.67601e-07
1.47633e-05
-1.17199e-06
1.48579e-05
-1.64159e-06
1.49537e-05
-2.53669e-06
1.50208e-05
-3.66137e-06
-5.70757e-06
1.5463e-05
1.27448e-05
-5.63119e-07
1.31914e-05
-9.10797e-07
1.35483e-05
-3.58837e-07
1.36191e-05
-4.11548e-07
1.37309e-05
-4.76949e-08
1.38812e-05
-5.4476e-07
1.40369e-05
-1.23339e-07
1.41348e-05
-3.94583e-07
1.42364e-05
-4.29963e-07
1.42994e-05
-2.22066e-07
1.43741e-05
-1.51043e-07
1.44829e-05
-3.86429e-07
1.4537e-05
-2.78958e-07
1.46004e-05
-5.8554e-07
1.46876e-05
-9.54744e-07
1.47588e-05
-1.24322e-06
1.48529e-05
-1.73567e-06
1.49439e-05
-2.62766e-06
1.49276e-05
-3.64512e-06
-4.68995e-06
1.391e-05
1.2774e-05
-8.37075e-07
1.32054e-05
-1.34221e-06
1.35288e-05
-6.82261e-07
1.36341e-05
-5.16841e-07
1.37662e-05
-1.79778e-07
1.38916e-05
-6.70212e-07
1.40425e-05
-2.74193e-07
1.41592e-05
-5.11293e-07
1.42367e-05
-5.07447e-07
1.43107e-05
-2.96061e-07
1.43973e-05
-2.3768e-07
1.44994e-05
-4.88545e-07
1.45239e-05
-3.03455e-07
1.46392e-05
-7.00806e-07
1.46893e-05
-1.00487e-06
1.47636e-05
-1.31754e-06
1.48535e-05
-1.82555e-06
1.49473e-05
-2.72148e-06
1.5001e-05
-3.69876e-06
-5.21334e-06
1.55244e-05
1.27945e-05
-1.13154e-06
1.32038e-05
-1.75154e-06
1.35468e-05
-1.02525e-06
1.36638e-05
-6.33876e-07
1.37869e-05
-3.02823e-07
1.3896e-05
-7.79319e-07
1.40567e-05
-4.34895e-07
1.41794e-05
-6.33978e-07
1.4249e-05
-5.77076e-07
1.43382e-05
-3.85275e-07
1.44209e-05
-3.20402e-07
1.45002e-05
-5.67797e-07
1.45453e-05
-3.48578e-07
1.46583e-05
-8.13827e-07
1.46894e-05
-1.03593e-06
1.4781e-05
-1.40921e-06
1.48465e-05
-1.89106e-06
1.4967e-05
-2.84194e-06
1.50546e-05
-3.7864e-06
-5.6398e-06
1.54811e-05
1.28095e-05
-1.44102e-06
1.32337e-05
-2.17574e-06
1.35872e-05
-1.37873e-06
1.36754e-05
-7.22075e-07
1.3794e-05
-4.2149e-07
1.39136e-05
-8.98899e-07
1.40909e-05
-6.12239e-07
1.42045e-05
-7.4753e-07
1.42751e-05
-6.47705e-07
1.43766e-05
-4.86771e-07
1.44304e-05
-3.74168e-07
1.4515e-05
-6.5239e-07
1.45838e-05
-4.1737e-07
1.46638e-05
-8.93818e-07
1.47097e-05
-1.0819e-06
1.48173e-05
-1.51676e-06
1.48499e-05
-1.92364e-06
1.49711e-05
-2.96313e-06
1.51019e-05
-3.91728e-06
-5.96677e-06
1.54289e-05
1.28444e-05
-1.78546e-06
1.32852e-05
-2.61646e-06
1.3604e-05
-1.69762e-06
1.36781e-05
-7.96154e-07
1.38199e-05
-5.63303e-07
1.39605e-05
-1.03952e-06
1.41366e-05
-7.88334e-07
1.42309e-05
-8.41754e-07
1.43099e-05
-7.26729e-07
1.44017e-05
-5.78561e-07
1.44488e-05
-4.21242e-07
1.45499e-05
-7.53564e-07
1.46242e-05
-4.91592e-07
1.46758e-05
-9.45512e-07
1.47586e-05
-1.16467e-06
1.48394e-05
-1.59752e-06
1.48737e-05
-1.95799e-06
1.49841e-05
-3.0735e-06
1.5098e-05
-4.03122e-06
-6.3266e-06
1.54579e-05
1.28889e-05
-2.17431e-06
1.33215e-05
-3.04906e-06
1.36104e-05
-1.98655e-06
1.37041e-05
-8.8986e-07
1.38722e-05
-7.31378e-07
1.40166e-05
-1.18394e-06
1.41752e-05
-9.46904e-07
1.42578e-05
-9.24394e-07
1.4346e-05
-8.14961e-07
1.44268e-05
-6.59282e-07
1.44973e-05
-4.91767e-07
1.45936e-05
-8.49858e-07
1.46575e-05
-5.55528e-07
1.47134e-05
-1.00144e-06
1.4805e-05
-1.25626e-06
1.48531e-05
-1.64556e-06
1.49121e-05
-2.01701e-06
1.50159e-05
-3.17733e-06
1.50062e-05
-4.02149e-06
-5.18504e-06
1.38646e-05
1.2928e-05
-2.60231e-06
1.33597e-05
-3.48081e-06
1.36054e-05
-2.23222e-06
1.37508e-05
-1.03524e-06
1.39294e-05
-9.1002e-07
1.40688e-05
-1.32325e-06
1.42119e-05
-1.09002e-06
1.42988e-05
-1.01131e-06
1.43918e-05
-9.07942e-07
1.44724e-05
-7.39858e-07
1.45539e-05
-5.73323e-07
1.46419e-05
-9.37897e-07
1.46869e-05
-6.00501e-07
1.47726e-05
-1.08708e-06
1.48338e-05
-1.31749e-06
1.4897e-05
-1.70881e-06
1.49472e-05
-2.0672e-06
1.50413e-05
-3.27145e-06
1.5117e-05
-4.09716e-06
-5.58261e-06
1.55146e-05
1.29706e-05
-3.07292e-06
1.34149e-05
-3.92509e-06
1.36233e-05
-2.44063e-06
1.37975e-05
-1.20946e-06
1.39882e-05
-1.10073e-06
1.41312e-05
-1.46623e-06
1.42648e-05
-1.22359e-06
1.43508e-05
-1.09732e-06
1.44466e-05
-1.00378e-06
1.45176e-05
-8.10818e-07
1.46101e-05
-6.65826e-07
1.46765e-05
-1.0043e-06
1.47443e-05
-6.68308e-07
1.48209e-05
-1.16373e-06
1.4883e-05
-1.37952e-06
1.49546e-05
-1.78045e-06
1.49716e-05
-2.08414e-06
1.50656e-05
-3.36548e-06
1.51461e-05
-4.17765e-06
-5.94559e-06
1.55091e-05
1.30163e-05
-3.58926e-06
1.34841e-05
-4.39281e-06
1.36709e-05
-2.62747e-06
1.38494e-05
-1.38792e-06
1.40689e-05
-1.32029e-06
1.42069e-05
-1.60422e-06
1.43215e-05
-1.33815e-06
1.44082e-05
-1.18406e-06
1.44932e-05
-1.08876e-06
1.45564e-05
-8.74036e-07
1.46659e-05
-7.75316e-07
1.47237e-05
-1.0621e-06
1.48174e-05
-7.61969e-07
1.48778e-05
-1.22421e-06
1.49543e-05
-1.45599e-06
1.49922e-05
-1.81835e-06
1.50002e-05
-2.09216e-06
1.5069e-05
-3.43427e-06
1.51158e-05
-4.22447e-06
-6.1436e-06
1.53138e-05
1.30712e-05
-4.16048e-06
1.35735e-05
-4.89512e-06
1.37311e-05
-2.78506e-06
1.39174e-05
-1.57417e-06
1.41636e-05
-1.56651e-06
1.42774e-05
-1.71808e-06
1.43746e-05
-1.43527e-06
1.4466e-05
-1.27546e-06
1.45389e-05
-1.16172e-06
1.46124e-05
-9.47515e-07
1.47371e-05
-9.00017e-07
1.4793e-05
-1.11798e-06
1.48884e-05
-8.57341e-07
1.4936e-05
-1.27185e-06
1.49908e-05
-1.51082e-06
1.4984e-05
-1.81148e-06
1.49804e-05
-2.08857e-06
1.49514e-05
-3.40525e-06
1.4872e-05
-4.14513e-06
-6.0848e-06
1.48132e-05
1.31508e-05
-4.81124e-06
1.36702e-05
-5.41459e-06
1.37897e-05
-2.90454e-06
1.40022e-05
-1.78665e-06
1.42542e-05
-1.81857e-06
1.43417e-05
-1.80554e-06
1.44409e-05
-1.53445e-06
1.45368e-05
-1.37134e-06
1.45999e-05
-1.22487e-06
1.46887e-05
-1.03626e-06
1.47944e-05
-1.00574e-06
1.48184e-05
-1.14196e-06
1.48862e-05
-9.25142e-07
1.48859e-05
-1.27153e-06
1.48689e-05
-1.49382e-06
1.48003e-05
-1.7429e-06
1.47197e-05
-2.00796e-06
1.45218e-05
-3.20734e-06
1.42444e-05
-3.86776e-06
-5.81375e-06
1.39733e-05
1.32556e-05
-5.56683e-06
1.37378e-05
-5.89683e-06
1.38511e-05
-3.0178e-06
1.41095e-05
-2.04504e-06
1.43418e-05
-2.05092e-06
1.44177e-05
-1.88146e-06
1.45109e-05
-1.62764e-06
1.45709e-05
-1.43126e-06
1.45972e-05
-1.25118e-06
1.46389e-05
-1.07801e-06
1.46532e-05
-1.02003e-06
1.4601e-05
-1.08976e-06
1.45872e-05
-9.11383e-07
1.44929e-05
-1.17716e-06
1.43746e-05
-1.37554e-06
1.42144e-05
-1.58267e-06
1.40219e-05
-1.8155e-06
1.36695e-05
-2.85496e-06
1.32171e-05
-3.41534e-06
-4.68091e-06
1.20843e-05
1.3371e-05
-6.43788e-06
1.37252e-05
-6.25101e-06
1.39432e-05
-3.23578e-06
1.42277e-05
-2.32951e-06
1.43795e-05
-2.20273e-06
1.43938e-05
-1.89576e-06
1.43842e-05
-1.61802e-06
1.43178e-05
-1.36486e-06
1.42313e-05
-1.16466e-06
1.41479e-05
-9.94667e-07
1.40354e-05
-9.07491e-07
1.38918e-05
-9.46208e-07
1.37821e-05
-8.01671e-07
1.36039e-05
-9.98921e-07
1.34054e-05
-1.17706e-06
1.31718e-05
-1.34907e-06
1.28961e-05
-1.53976e-06
1.24496e-05
-2.40855e-06
1.19099e-05
-2.87559e-06
-4.07214e-06
1.13011e-05
1.34973e-05
-7.43517e-06
1.37747e-05
-6.5284e-06
1.39932e-05
-3.45429e-06
1.41511e-05
-2.48747e-06
1.40713e-05
-2.12291e-06
1.38898e-05
-1.71427e-06
1.36819e-05
-1.4101e-06
1.34527e-05
-1.1357e-06
1.32421e-05
-9.54064e-07
1.30513e-05
-8.03822e-07
1.28565e-05
-7.12741e-07
1.26601e-05
-7.49732e-07
1.24939e-05
-6.35525e-07
1.22748e-05
-7.79809e-07
1.2036e-05
-9.38223e-07
1.17618e-05
-1.0749e-06
1.14405e-05
-1.21848e-06
1.09473e-05
-1.91529e-06
1.03436e-05
-2.27197e-06
-3.10446e-06
9.37596e-06
1.36033e-05
-8.53849e-06
1.36724e-05
-6.59744e-06
1.3616e-05
-3.39791e-06
1.34053e-05
-2.27681e-06
1.30085e-05
-1.72605e-06
1.2617e-05
-1.32276e-06
1.22594e-05
-1.05256e-06
1.19423e-05
-8.186e-07
1.16759e-05
-6.87615e-07
1.14424e-05
-5.70404e-07
1.12249e-05
-4.95181e-07
1.10159e-05
-5.4073e-07
1.08313e-05
-4.50944e-07
1.06051e-05
-5.53619e-07
1.03549e-05
-6.87973e-07
1.00669e-05
-7.86907e-07
9.73194e-06
-8.83554e-07
9.22346e-06
-1.4068e-06
8.6081e-06
-1.65661e-06
-2.23554e-06
7.73919e-06
1.34225e-05
-9.46103e-06
1.28962e-05
-6.07106e-06
1.23185e-05
-2.82026e-06
1.17166e-05
-1.67484e-06
1.11263e-05
-1.13579e-06
1.06512e-05
-8.47651e-07
1.0258e-05
-6.59372e-07
9.93989e-06
-5.00493e-07
9.67746e-06
-4.2519e-07
9.45236e-06
-3.45304e-07
9.25189e-06
-2.94705e-07
9.05568e-06
-3.4452e-07
8.88099e-06
-2.76259e-07
8.67198e-06
-3.44605e-07
8.43166e-06
-4.47652e-07
8.15472e-06
-5.09963e-07
7.83419e-06
-5.63028e-07
7.34595e-06
-9.18559e-07
6.7566e-06
-1.06726e-06
-1.45795e-06
5.979e-06
1.24333e-05
-9.39434e-06
1.10083e-05
-4.64607e-06
9.97348e-06
-1.78542e-06
9.19948e-06
-9.00838e-07
8.61494e-06
-5.51248e-07
8.18279e-06
-4.15509e-07
7.84181e-06
-3.18385e-07
7.57874e-06
-2.37425e-07
7.35981e-06
-2.06257e-07
7.1771e-06
-1.62602e-07
7.01803e-06
-1.35628e-07
6.85211e-06
-1.78605e-07
6.70849e-06
-1.32638e-07
6.53443e-06
-1.70546e-07
6.32337e-06
-2.36589e-07
6.08116e-06
-2.67754e-07
5.80342e-06
-2.85291e-07
5.37105e-06
-4.86184e-07
4.85679e-06
-5.5301e-07
-7.90081e-07
4.18893e-06
1.01159e-05
-7.01024e-06
7.83308e-06
-2.36325e-06
6.7044e-06
-6.56747e-07
6.0589e-06
-2.55331e-07
5.64513e-06
-1.37476e-07
5.34254e-06
-1.12923e-07
5.10964e-06
-8.54861e-08
4.93369e-06
-6.14722e-08
4.78464e-06
-5.72124e-08
4.66448e-06
-4.24409e-08
4.56166e-06
-3.28091e-08
4.44004e-06
-5.6979e-08
4.34353e-06
-3.61256e-08
4.22031e-06
-4.73316e-08
4.05994e-06
-7.62157e-08
3.87772e-06
-8.55415e-08
3.67501e-06
-8.2577e-08
3.34322e-06
-1.54392e-07
2.96166e-06
-1.71456e-07
-2.73412e-07
2.445e-06
5.48976e-06
3.12651e-06
2.46976e-06
2.21443e-06
2.07695e-06
1.96403e-06
1.87854e-06
1.81707e-06
1.75986e-06
1.71742e-06
1.68461e-06
1.62763e-06
1.5915e-06
1.54417e-06
1.46796e-06
1.38242e-06
1.29984e-06
1.14545e-06
9.7399e-07
7.00578e-07
3.315e-06
-9.7749e-07
1.00619e-06
3.22205e-06
3.63335e-07
-2.70388e-07
4.69356e-06
2.26792e-06
-3.73942e-06
6.96755e-06
1.22844e-06
-3.50243e-06
9.22321e-06
1.83842e-06
-4.09408e-06
1.09615e-05
4.18277e-06
-5.92103e-06
1.182e-05
3.94659e-06
-4.80511e-06
1.26158e-05
1.65584e-06
-2.45163e-06
1.32787e-05
-1.03337e-06
3.70437e-07
1.32966e-05
-2.50447e-06
2.48659e-06
1.33472e-05
-4.29191e-06
4.2413e-06
1.33919e-05
-7.00769e-06
6.96304e-06
1.34293e-05
-9.44052e-06
9.40308e-06
1.40798e-05
-1.21957e-05
1.15453e-05
1.48279e-05
-1.47712e-05
1.40231e-05
1.50778e-05
-1.69122e-05
1.66623e-05
1.46208e-05
-1.8221e-05
1.8678e-05
1.36582e-05
-1.90996e-05
2.00622e-05
1.25917e-05
-1.85374e-05
1.96039e-05
1.17352e-05
-1.81804e-05
1.90369e-05
1.08465e-05
-1.75221e-05
1.84107e-05
9.89877e-06
-1.60194e-05
1.69672e-05
8.93767e-06
-1.51045e-05
1.60656e-05
8.11411e-06
-1.43943e-05
1.52178e-05
7.16163e-06
-1.32674e-05
1.42199e-05
6.59909e-06
-1.25136e-05
1.30761e-05
5.86073e-06
-1.15618e-05
1.23001e-05
4.97937e-06
-1.21553e-05
1.30367e-05
4.39839e-06
-1.09515e-05
1.15325e-05
4.22532e-06
-5.23401e-06
5.40707e-06
4.3969e-06
2.82841e-06
-2.99998e-06
4.31141e-06
1.12747e-05
-1.11892e-05
3.64527e-06
2.09099e-05
-2.02438e-05
3.95095e-06
2.90201e-05
-2.93258e-05
5.02924e-06
3.21197e-05
-3.3198e-05
6.33767e-06
3.24088e-05
-3.37172e-05
7.3376e-06
2.99711e-05
-3.09711e-05
8.11971e-06
2.5328e-05
-2.61102e-05
8.85619e-06
2.08719e-05
-2.16084e-05
9.85061e-06
1.42889e-05
-1.52833e-05
1.04334e-05
7.93728e-06
-8.52009e-06
1.11909e-05
3.25677e-06
-4.01426e-06
1.17888e-05
-3.33762e-06
2.73977e-06
1.14472e-05
-8.20659e-06
8.54815e-06
1.09255e-05
-9.78389e-06
1.03056e-05
1.14442e-05
-1.12938e-05
1.07751e-05
1.25472e-05
-1.45005e-05
1.33975e-05
1.30896e-05
-1.77707e-05
1.72283e-05
1.28923e-05
-1.92818e-05
1.94791e-05
1.24257e-05
-1.93736e-05
1.98402e-05
1.19672e-05
-2.0058e-05
2.05165e-05
1.12726e-05
-2.04233e-05
2.11179e-05
1.03887e-05
-1.8899e-05
1.97829e-05
9.78532e-06
-1.79421e-05
1.85455e-05
9.48351e-06
-1.95476e-05
1.98494e-05
9.00385e-06
-2.10648e-05
2.15444e-05
8.2587e-06
-2.00589e-05
2.0804e-05
7.5552e-06
-1.77913e-05
1.84948e-05
7.09335e-06
-1.67855e-05
1.72474e-05
6.83818e-06
-1.68563e-05
1.71115e-05
6.9284e-06
-1.80019e-05
1.79117e-05
7.17569e-06
-1.9349e-05
1.91017e-05
7.60668e-06
-2.04322e-05
2.00012e-05
8.12529e-06
-2.14491e-05
2.09305e-05
8.708e-06
-2.2643e-05
2.20603e-05
9.36104e-06
-2.30618e-05
2.24088e-05
9.91286e-06
-2.33174e-05
2.27656e-05
1.03151e-05
-2.24692e-05
2.20671e-05
1.06549e-05
-2.02077e-05
1.98678e-05
1.09178e-05
-1.77427e-05
1.74799e-05
1.09969e-05
-1.50754e-05
1.49962e-05
1.09482e-05
-1.11618e-05
1.12106e-05
1.09916e-05
-7.09265e-06
7.04918e-06
1.11468e-05
-3.98214e-06
3.82695e-06
1.11827e-05
-1.24739e-06
1.21149e-06
1.09518e-05
2.36546e-06
-2.13457e-06
1.06079e-05
6.98527e-06
-6.64134e-06
1.03775e-05
1.09987e-05
-1.07683e-05
1.0305e-05
1.27349e-05
-1.26624e-05
1.01747e-05
1.30822e-05
-1.2952e-05
9.85506e-06
1.41853e-05
-1.38656e-05
9.42321e-06
1.7199e-05
-1.67671e-05
9.03628e-06
2.09897e-05
-2.06028e-05
8.749e-06
2.36732e-05
-2.33859e-05
8.54624e-06
2.47968e-05
-2.4594e-05
8.43154e-06
2.50227e-05
-2.4908e-05
8.42143e-06
2.4336e-05
-2.43259e-05
8.38966e-06
2.25802e-05
-2.25484e-05
8.3431e-06
2.05755e-05
-2.0529e-05
8.34759e-06
1.94232e-05
-1.94277e-05
8.28441e-06
1.84882e-05
-1.8425e-05
8.1834e-06
1.74739e-05
-1.73729e-05
8.19027e-06
1.73655e-05
-1.73723e-05
8.12098e-06
1.79656e-05
-1.78963e-05
7.64098e-06
1.78404e-05
-1.73604e-05
6.85331e-06
1.6359e-05
-1.55713e-05
6.26342e-06
1.46108e-05
-1.40209e-05
6.15584e-06
1.34071e-05
-1.32996e-05
6.42229e-06
1.28951e-05
-1.31616e-05
6.84067e-06
1.25813e-05
-1.29997e-05
7.26445e-06
1.23281e-05
-1.27519e-05
7.62823e-06
1.18963e-05
-1.226e-05
8.02243e-06
1.12081e-05
-1.16023e-05
8.37895e-06
1.06491e-05
-1.10056e-05
8.79e-06
9.69951e-06
-1.01106e-05
9.30459e-06
8.84536e-06
-9.35995e-06
9.88206e-06
8.04391e-06
-8.62139e-06
1.04473e-05
6.71946e-06
-7.2847e-06
1.0931e-05
5.87793e-06
-6.36159e-06
1.15403e-05
4.16353e-06
-4.77288e-06
1.21953e-05
2.42192e-06
-3.07686e-06
1.27869e-05
2.10561e-06
-2.69722e-06
1.32653e-05
-3.77874e-07
-1.00525e-07
1.38301e-05
-2.20887e-06
1.64398e-06
1.44456e-05
-2.97866e-06
2.36324e-06
1.48924e-05
-5.80834e-06
5.36147e-06
1.52224e-05
-7.20551e-06
6.87555e-06
1.55241e-05
-8.39152e-06
8.08986e-06
1.55516e-05
-1.05816e-05
1.05541e-05
1.5421e-05
-1.14074e-05
1.1538e-05
1.53681e-05
-1.24131e-05
1.2466e-05
1.50806e-05
-1.35086e-05
1.37961e-05
1.46642e-05
-1.35766e-05
1.3993e-05
1.43004e-05
-1.3946e-05
1.43098e-05
1.38338e-05
-1.3993e-05
1.44596e-05
1.32507e-05
-1.33905e-05
1.39736e-05
1.26172e-05
-1.34264e-05
1.406e-05
1.19607e-05
-1.20024e-05
1.26589e-05
1.15361e-05
-1.14865e-05
1.19111e-05
1.13039e-05
-1.36863e-05
1.39185e-05
1.081e-05
-1.51925e-05
1.56863e-05
1.01153e-05
-1.41054e-05
1.48001e-05
9.59585e-06
-1.39608e-05
1.44802e-05
9.42138e-06
-1.53846e-05
1.5559e-05
9.4422e-06
-1.79477e-05
1.79268e-05
9.34713e-06
-1.88941e-05
1.89891e-05
9.37558e-06
-1.90106e-05
1.89821e-05
9.31572e-06
-1.85022e-05
1.85621e-05
9.25071e-06
-1.78808e-05
1.79458e-05
9.22777e-06
-1.72109e-05
1.72338e-05
9.25137e-06
-1.65276e-05
1.6504e-05
9.39646e-06
-1.53081e-05
1.5163e-05
9.55855e-06
-1.39631e-05
1.3801e-05
9.89202e-06
-1.23398e-05
1.20064e-05
1.0392e-05
-9.07359e-06
8.57358e-06
1.08859e-05
-5.376e-06
4.88214e-06
1.12725e-05
-1.28969e-06
9.03082e-07
1.1518e-05
3.10787e-06
-3.35333e-06
1.17167e-05
6.84047e-06
-7.03918e-06
1.19065e-05
9.77415e-06
-9.96395e-06
1.20594e-05
1.27064e-05
-1.28594e-05
1.21918e-05
1.61118e-05
-1.62442e-05
1.20829e-05
1.92912e-05
-1.91823e-05
1.17778e-05
2.09736e-05
-2.06686e-05
1.16197e-05
2.24657e-05
-2.23076e-05
1.15364e-05
2.65488e-05
-2.64655e-05
1.12509e-05
3.08563e-05
-3.05708e-05
1.04456e-05
3.24428e-05
-3.16375e-05
9.41863e-06
3.05418e-05
-2.95148e-05
8.54371e-06
2.74201e-05
-2.65451e-05
7.77329e-06
2.43343e-05
-2.35639e-05
7.38025e-06
2.19104e-05
-2.15173e-05
7.55279e-06
1.95747e-05
-1.97472e-05
8.00001e-06
1.81432e-05
-1.85904e-05
8.78922e-06
1.75675e-05
-1.83567e-05
9.41751e-06
1.84216e-05
-1.90499e-05
1.03503e-05
1.67154e-05
-1.76482e-05
1.06915e-05
1.68599e-05
-1.7201e-05
1.11347e-05
1.38108e-05
-1.42541e-05
1.10995e-05
1.37934e-05
-1.37583e-05
1.13959e-05
1.06731e-05
-1.09695e-05
1.13238e-05
1.19695e-05
-1.18974e-05
1.18862e-05
7.97542e-06
-8.53784e-06
1.17791e-05
9.57871e-06
-9.47165e-06
1.18116e-05
5.11393e-06
-5.14641e-06
1.16769e-05
5.92586e-06
-5.79115e-06
1.20751e-05
1.88945e-06
-2.2877e-06
1.19254e-05
2.45679e-06
-2.30708e-06
1.23768e-05
-2.1648e-06
1.71344e-06
1.21198e-05
-2.83303e-06
3.09e-06
1.22562e-05
-6.99416e-06
6.85777e-06
1.18584e-05
-7.51336e-06
7.91119e-06
1.18525e-05
-9.93872e-06
9.94454e-06
1.11026e-05
-8.72097e-06
9.47096e-06
1.08244e-05
-1.01243e-05
1.04024e-05
1.0108e-05
-9.24479e-06
9.96116e-06
9.68967e-06
-1.00282e-05
1.04465e-05
8.96629e-06
-8.71211e-06
9.43549e-06
8.4815e-06
-8.65919e-06
9.14398e-06
8.13633e-06
-7.2977e-06
7.64288e-06
8.30954e-06
-5.65906e-06
5.48585e-06
8.09711e-06
-2.45052e-06
2.66295e-06
7.47542e-06
-1.37154e-06
1.99323e-06
6.65518e-06
-5.40402e-07
1.36064e-06
6.47632e-06
1.18766e-06
-1.0088e-06
6.34192e-06
4.84357e-06
-4.70917e-06
7.27303e-06
8.92899e-06
-9.86011e-06
6.50579e-06
1.60362e-05
-1.5269e-05
6.60446e-06
1.82879e-05
-1.83866e-05
3.11327e-05
-3.07822e-05
6.25391e-06
5.43504e-06
-1.1172e-06
5.71785e-06
8.0526e-08
6.28658e-06
1.69919e-06
7.16162e-06
3.534e-07
8.53699e-06
4.63056e-07
1.01157e-05
2.60405e-06
1.12299e-05
2.83238e-06
1.20092e-05
8.76513e-07
1.25862e-05
-1.61032e-06
1.28891e-05
-2.8074e-06
1.33994e-05
-4.80215e-06
1.41046e-05
-7.71294e-06
1.47725e-05
-1.01084e-05
1.54426e-05
-1.28659e-05
1.57422e-05
-1.50708e-05
1.54624e-05
-1.66324e-05
1.48073e-05
-1.75658e-05
1.37877e-05
-1.808e-05
1.28003e-05
-1.755e-05
1.19427e-05
-1.73229e-05
1.11043e-05
-1.66836e-05
1.01925e-05
-1.51077e-05
9.26716e-06
-1.41791e-05
8.44861e-06
-1.35757e-05
7.45265e-06
-1.22714e-05
6.74555e-06
-1.18065e-05
6.077e-06
-1.08932e-05
5.10869e-06
-1.1187e-05
4.48576e-06
-1.03286e-05
4.31025e-06
-5.05849e-06
4.46772e-06
2.67094e-06
4.23603e-06
1.15064e-05
3.52931e-06
2.16166e-05
4.21443e-06
2.8335e-05
5.38735e-06
3.09468e-05
6.64988e-06
3.11463e-05
7.77409e-06
2.88469e-05
8.68505e-06
2.44171e-05
9.47866e-06
2.00783e-05
1.03494e-05
1.34182e-05
1.09314e-05
7.35529e-06
1.17274e-05
2.46082e-06
1.20612e-05
-3.67145e-06
1.15122e-05
-7.65756e-06
1.13046e-05
-9.57627e-06
1.22148e-05
-1.2204e-05
1.32258e-05
-1.55115e-05
1.34275e-05
-1.79724e-05
1.30082e-05
-1.88625e-05
1.24721e-05
-1.88375e-05
1.19326e-05
-1.95185e-05
1.1142e-05
-1.96328e-05
1.02468e-05
-1.80037e-05
9.70133e-06
-1.73967e-05
9.4041e-06
-1.92504e-05
8.88889e-06
-2.05496e-05
8.0962e-06
-1.92662e-05
7.37872e-06
-1.70738e-05
6.87198e-06
-1.62788e-05
6.6253e-06
-1.66096e-05
6.70961e-06
-1.80863e-05
7.00601e-06
-1.96454e-05
7.38783e-06
-2.0814e-05
7.89582e-06
-2.19571e-05
8.38446e-06
-2.31316e-05
8.99669e-06
-2.36741e-05
9.47063e-06
-2.37914e-05
9.76914e-06
-2.27678e-05
1.00446e-05
-2.04831e-05
1.02514e-05
-1.79495e-05
1.02842e-05
-1.51082e-05
1.02248e-05
-1.11024e-05
1.02851e-05
-7.153e-06
1.04422e-05
-4.13919e-06
1.04316e-05
-1.23682e-06
1.01789e-05
2.61815e-06
9.84047e-06
7.32374e-06
9.66143e-06
1.11778e-05
9.66533e-06
1.2731e-05
9.60052e-06
1.3147e-05
9.31042e-06
1.44754e-05
8.89211e-06
1.76173e-05
8.52342e-06
2.13584e-05
8.28543e-06
2.39112e-05
8.13038e-06
2.49518e-05
8.06833e-06
2.50848e-05
8.11691e-06
2.42874e-05
8.1407e-06
2.25564e-05
8.13078e-06
2.05854e-05
8.18361e-06
1.93704e-05
8.17984e-06
1.84919e-05
8.14477e-06
1.7509e-05
8.18168e-06
1.73286e-05
8.23194e-06
1.79154e-05
7.99893e-06
1.80734e-05
7.40046e-06
1.69575e-05
6.74842e-06
1.52628e-05
6.4397e-06
1.37158e-05
6.56264e-06
1.27722e-05
6.96248e-06
1.21815e-05
7.49859e-06
1.1792e-05
8.03153e-06
1.13633e-05
8.60392e-06
1.06357e-05
9.11602e-06