/*--------------------------------*- C++ -*----------------------------------*\
| =========                 |                                                 |
| \\      /  F ield         | OpenFOAM: The Open Source CFD Toolbox           |
|  \\    /   O peration     | Version:  2.4.0                                 |
|   \\  /    A nd           | Web:      www.OpenFOAM.org                      |
|    \\/     M anipulation  |                                                 |
\*---------------------------------------------------------------------------*/
FoamFile
{
    version     2.0;
    format      ascii;
    class       volScalarField;
    location    "0.253";
    object      pMean;
}
// * * * * * * * * * * * * * * * * * * * * * * * * * * * * * * * * * * * * * //

dimensions      [0 2 -2 0 0 0 0];

internalField   nonuniform List<scalar> 
17600
(
98.9881
83.0466
78.3948
77.0739
75.9293
74.7823
73.7093
72.7043
71.7413
70.7815
69.8301
68.8735
67.9332
66.9825
66.0458
65.0564
64.0392
62.8795
61.5029
59.368
97.0866
83.0961
78.4355
77.0834
75.9326
74.7829
73.7096
72.7046
71.7415
70.7816
69.8301
68.8736
67.9333
66.9829
66.046
65.0574
64.04
62.8814
61.5102
59.5208
95.6782
83.3505
78.5783
77.1213
75.9464
74.7873
73.7118
72.7062
71.7429
70.7823
69.8306
68.8738
67.9338
66.9832
66.0472
65.0578
64.0437
62.8822
61.5514
59.6351
94.7053
83.6894
78.7965
77.1858
75.9756
74.8025
73.7205
72.7126
71.7474
70.7854
69.8323
68.8753
67.935
66.986
66.0497
65.0644
64.0498
62.8989
61.5995
59.8039
93.8855
84.0215
79.0579
77.2667
76.0175
74.8314
73.74
72.7271
71.7581
70.793
69.8372
68.8784
67.9384
66.9892
66.056
65.0699
64.0656
62.9189
61.6767
60.0151
93.1139
84.3115
79.3325
77.3479
76.059
74.868
73.769
72.7504
71.776
70.8066
69.846
68.8858
67.9439
66.9979
66.0643
65.085
64.0836
62.9545
61.7759
60.2653
92.3877
84.5564
79.606
77.4239
76.0906
74.902
73.8019
72.7791
71.7993
70.8248
69.8589
68.8954
67.953
67.0081
66.0775
65.1027
64.1084
63.0018
61.8905
60.5725
91.7168
84.7594
79.8719
77.4968
76.1118
74.9281
73.8339
72.8097
71.8245
70.845
69.8734
68.9073
67.9635
67.0217
66.0942
65.1259
64.1414
63.0573
62.0045
60.9517
91.1068
84.924
80.1224
77.5722
76.1246
74.9459
73.8627
72.8402
71.8501
70.8654
69.8878
68.9197
67.974
67.0372
66.1097
65.1557
64.1708
63.1309
62.09
61.3206
90.5595
85.0515
80.3544
77.6521
76.1312
74.9557
73.8874
72.8694
71.8751
70.8848
69.9016
68.9312
67.9852
67.0522
66.1286
65.185
64.2094
63.205
62.2071
61.726
90.0735
85.1442
80.567
77.7369
76.1327
74.9588
73.9078
72.8971
71.8991
70.9032
69.914
68.9422
67.9951
67.0676
66.1464
65.2157
64.2526
63.2816
62.3567
62.0797
89.6461
85.2063
80.7601
77.8262
76.1305
74.9562
73.9244
72.923
71.9224
70.9205
69.9254
68.9522
68.0056
67.0825
66.1664
65.2468
64.2995
63.3646
62.515
62.3925
89.2745
85.2435
80.9334
77.9182
76.1258
74.949
73.9376
72.9468
71.9444
70.9365
69.9359
68.9614
68.0157
67.0975
66.1875
65.2786
64.3518
63.4511
62.6776
62.674
88.9561
85.2628
81.086
78.0079
76.1208
74.9388
73.948
72.9681
71.9651
70.9511
69.9455
68.9698
68.0263
67.1123
66.2096
65.3122
64.4066
63.5418
62.8395
62.929
88.6877
85.2715
81.217
78.0886
76.1172
74.9275
73.9561
72.9871
71.9838
70.9642
69.9541
68.9777
68.0365
67.1279
66.2322
65.3478
64.4629
63.6356
63.0003
63.1613
88.467
85.2745
81.3251
78.1578
76.1155
74.9162
73.9622
73.0033
72.0003
70.9758
69.962
68.9852
68.0471
67.143
66.2567
65.3829
64.5235
63.727
63.1694
63.3689
88.2928
85.2743
81.4105
78.2143
76.1159
74.9054
73.9668
73.0164
72.0144
70.9853
69.9696
68.9918
68.0586
67.1582
66.2828
65.4191
64.5856
63.8179
63.3333
63.599
88.1633
85.2727
81.4732
78.2579
76.117
74.8969
73.9698
73.0271
72.0253
70.9939
69.9754
68.9997
68.0682
67.1756
66.3061
65.4603
64.6435
63.9152
63.4524
63.7744
88.078
85.2707
81.5144
78.2874
76.1191
74.8905
73.9721
73.0343
72.0337
71.0001
69.9816
69.0065
68.0792
67.1922
66.3321
65.5002
64.7039
64.0097
63.5734
63.9789
88.0357
85.2694
81.5348
78.3027
76.1203
74.8874
73.9733
73.0387
72.0385
71.0049
69.9865
69.0137
68.0899
67.2091
66.3581
65.5407
64.7653
64.1017
63.7071
64.1578
88.0361
85.2691
81.5348
78.3029
76.1206
74.8879
73.9737
73.0399
72.0402
71.0079
69.9908
69.0206
68.101
67.2258
66.3855
65.5804
64.829
64.1888
63.8571
64.3135
88.0793
85.2698
81.5148
78.2878
76.1203
74.8915
73.974
73.0376
72.0391
71.0086
69.9952
69.027
68.1129
67.242
66.4137
65.6203
64.893
64.2747
63.9998
64.4987
88.1653
85.2713
81.4737
78.2586
76.119
74.8989
73.9728
73.0328
72.0338
71.0086
69.9972
69.035
68.1225
67.2612
66.4388
65.6648
64.9508
64.3676
64.0925
64.6221
88.2956
85.2723
81.4113
78.2153
76.1186
74.908
73.9712
73.0244
72.0264
71.0058
69.9999
69.0415
68.1338
67.2787
66.4661
65.7077
65.0107
64.4564
64.184
64.7861
88.4706
85.2719
81.3262
78.159
76.1192
74.919
73.9681
73.0131
72.0159
71.0015
70.0015
69.0481
68.1449
67.2961
66.4941
65.7497
65.0729
64.5403
64.2908
64.928
88.692
85.2682
81.2182
78.0902
76.1217
74.9307
73.9635
72.9988
72.0028
70.9954
70.0024
69.0541
68.156
67.3135
66.5223
65.7917
65.1362
64.6223
64.4076
65.0453
88.9613
85.2589
81.0875
78.0097
76.1263
74.9423
73.9571
72.9817
71.9877
70.9875
70.0028
69.0594
68.167
67.3307
66.5506
65.8342
65.1994
64.7062
64.5173
65.1679
89.2803
85.2394
80.9347
77.9204
76.1322
74.953
73.9481
72.9621
71.9703
70.9783
70.0016
69.0646
68.1769
67.3488
66.5774
65.879
65.2601
64.7957
64.6008
65.2522
89.6526
85.2018
80.7615
77.828
76.1382
74.9605
73.9365
72.9399
71.9519
70.9673
70.0001
69.0681
68.1875
67.3655
66.6055
65.9222
65.3236
64.8849
64.6866
65.3379
90.0804
85.1395
80.5684
77.7386
76.1414
74.9638
73.9211
72.9157
71.9322
70.9548
69.9974
69.0703
68.1979
67.3812
66.634
65.9638
65.3897
64.9727
64.788
65.394
90.5668
85.0464
80.3559
77.6538
76.1404
74.9617
73.9018
72.8898
71.9113
70.9413
69.9932
69.0716
68.2076
67.3962
66.6621
66.0043
65.4566
65.0609
64.9047
65.4207
91.1145
84.9184
80.124
77.5739
76.1343
74.9529
73.8783
72.8624
71.8897
70.9264
69.9878
69.0716
68.2165
67.4098
66.6896
66.0424
65.5236
65.1464
65.0332
65.4264
91.7248
84.7538
79.8735
77.4989
76.1217
74.9362
73.8508
72.8338
71.8674
70.9105
69.9811
69.0708
68.2243
67.4223
66.7149
66.0778
65.5858
65.2268
65.1523
65.4399
92.3959
84.551
79.6076
77.4262
76.1008
74.911
73.8201
72.8051
71.8452
70.8946
69.9739
69.0695
68.2306
67.4335
66.7365
66.1094
65.6386
65.2983
65.2444
65.434
93.1221
84.3063
79.3345
77.3504
76.0694
74.8778
73.7886
72.778
71.8249
70.8801
69.9674
69.0683
68.2359
67.4429
66.7544
66.1353
65.6811
65.3546
65.3151
65.4596
93.8937
84.0166
79.0602
77.2692
76.0281
74.8419
73.7607
72.7561
71.8091
70.8695
69.9633
69.0683
68.2407
67.4506
66.7681
66.155
65.7122
65.3954
65.3629
65.4784
94.7134
83.6847
78.799
77.1883
75.9863
74.8135
73.7421
72.7425
71.7998
70.8639
69.9617
69.0693
68.2445
67.4563
66.7775
66.1683
65.7321
65.4222
65.3897
65.4989
95.6863
83.346
78.581
77.1239
75.9572
74.7985
73.7338
72.7367
71.7961
70.8619
69.9617
69.0706
68.247
67.4599
66.7828
66.1757
65.7427
65.4364
65.403
65.5207
97.0947
83.0917
78.4382
77.086
75.9434
74.7942
73.7317
72.7351
71.795
70.8615
69.9619
69.0713
68.248
67.4612
66.7847
66.1783
65.7461
65.4411
65.4067
65.5446
98.9962
83.0423
78.3975
77.0764
75.9402
74.7937
73.7315
72.7349
71.7948
70.8615
69.9619
69.0714
68.248
67.4612
66.7848
66.1782
65.7461
65.4407
65.4054
65.5793
58.0033
57.2961
56.0557
54.8037
53.6462
52.7192
51.9233
51.2641
50.706
50.1643
49.6184
49.0305
48.3976
47.6681
46.9363
46.2043
45.4619
44.8474
44.3718
44.0667
43.9516
44.0234
44.3107
44.7929
45.3667
46.0303
46.7838
47.6025
48.4566
49.2922
50.0877
50.8454
51.5634
52.2382
52.8724
53.5008
54.1443
54.7978
55.4521
56.0996
56.7065
57.248
57.7299
58.171
58.5632
58.8847
59.1385
59.323
59.416
59.4196
59.3704
59.2809
59.1327
58.9173
58.648
58.3445
58.0207
57.6801
57.3377
57.0058
56.693
56.4009
56.1234
55.8787
55.6874
55.5567
55.4846
55.4727
55.5156
55.6017
55.7279
55.8865
56.0629
56.2425
56.4243
56.6226
56.8559
57.1289
57.4323
57.7675
58.1355
58.527
58.9298
59.3205
59.6888
60.0293
60.3364
60.6167
60.8725
61.1083
61.3211
61.5037
61.6584
61.7784
61.8726
61.9355
61.9735
61.9909
61.9971
61.9803
61.9449
61.8968
61.8418
61.7855
61.7353
61.698
61.6744
61.6604
61.6612
61.6747
61.7057
61.7409
61.7908
61.8439
61.9009
61.9465
61.9999
62.0533
62.1294
62.2354
62.3591
62.5003
62.6496
62.8138
62.9939
63.1718
63.3642
63.5239
63.6861
63.8296
63.9508
64.0621
64.1384
64.2187
64.2887
64.3759
64.4748
64.5967
64.7375
64.8915
65.0594
65.2254
65.4042
65.5716
65.7484
65.9107
66.0824
66.2357
66.3919
66.5301
66.665
66.788
66.8929
66.9801
67.0365
67.0793
67.0931
67.0899
67.0818
67.0574
67.0288
66.9688
66.9218
66.8471
66.7971
66.7328
66.717
66.7006
66.754
66.8059
66.931
67.0407
67.2183
67.3707
67.5925
67.7591
68.0226
68.185
68.5081
68.6412
69.0159
69.1196
69.5144
69.5872
69.9202
69.9743
70.1956
70.1698
70.2565
70.0805
69.954
69.54
69.0912
68.2814
67.2494
65.6245
63.2334
59.0702
53.5835
29.5174
58.2317
57.5673
56.5229
55.4453
54.4383
53.6302
52.9555
52.3931
51.9084
51.4312
50.9199
50.3525
49.7228
48.9759
48.2163
47.474
46.7233
46.0902
45.6151
45.315
45.2049
45.2855
45.5745
46.0602
46.6539
47.3212
48.0567
48.8354
49.6461
50.4475
51.2138
51.9362
52.6148
53.2469
53.8289
54.392
54.9645
55.5439
56.1159
56.6786
57.2067
57.6683
58.0604
58.4035
58.6984
58.9267
59.1014
59.2293
59.2788
59.2393
59.1465
59.0143
58.8247
58.5716
58.2646
57.9219
57.5575
57.1774
56.797
56.4308
56.0904
55.7745
55.4757
55.2205
55.0292
54.9056
54.8457
54.851
54.915
55.0243
55.1748
55.3573
55.5577
55.764
55.9773
56.2145
56.4904
56.8068
57.1562
57.5408
57.9608
58.4041
58.8573
59.2972
59.7089
60.0869
60.4275
60.736
61.0152
61.2706
61.4991
61.6934
61.8552
61.9786
62.0729
62.1324
62.1702
62.1918
62.2041
62.1966
62.1716
62.1307
62.0805
62.0256
61.9733
61.9297
61.8994
61.876
61.8678
61.8693
61.8875
61.9084
61.9443
61.982
62.0253
62.0566
62.0957
62.1346
62.1912
62.2795
62.3879
62.5147
62.6481
62.7935
62.9564
63.1207
63.3021
63.4601
63.6157
63.763
63.8808
63.994
64.0732
64.1551
64.2302
64.3195
64.4201
64.5422
64.6828
64.8386
65.0058
65.1729
65.3506
65.5182
65.6925
65.8482
66.0154
66.1634
66.3169
66.4474
66.58
66.6969
66.8027
66.89
66.9479
66.9936
67.0114
67.0132
67.0064
66.9816
66.9479
66.8861
66.8342
66.7501
66.6931
66.6105
66.5799
66.536
66.5646
66.581
66.6813
66.7525
66.9067
67.0171
67.2195
67.3397
67.5941
67.7085
68.0305
68.1179
68.4819
68.5511
68.9138
68.9712
69.2555
69.2957
69.4823
69.4308
69.4767
69.2618
69.0782
68.5858
68.0265
67.0595
65.8044
63.7954
61.0808
55.5207
49.5507
22.3939
58.5037
57.8936
56.9709
56.0058
55.1116
54.3883
53.8088
53.3345
52.9153
52.4965
52.021
51.4884
50.8895
50.1588
49.3959
48.6573
47.9235
47.3002
46.8424
46.5497
46.4557
46.5517
46.8428
47.3233
47.9229
48.5911
49.3128
50.063
50.8358
51.6062
52.3453
53.0347
53.6761
54.2688
54.8033
55.304
55.8037
56.3076
56.8002
57.2777
57.7246
58.106
58.4112
58.66
58.8614
59.0012
59.0996
59.1712
59.1777
59.0999
58.9692
58.7964
58.567
58.2785
57.9377
57.5597
57.1585
56.742
56.3272
55.9299
55.5645
55.2253
54.909
54.647
54.4585
54.3433
54.2972
54.3209
54.4077
54.5434
54.7217
54.931
55.1579
55.3942
55.6423
55.9206
56.24
56.5995
56.9935
57.4257
57.8956
58.3882
58.8883
59.3747
59.8284
60.2425
60.6154
60.9505
61.2504
61.5214
61.7609
61.9631
62.1294
62.2545
62.3488
62.4056
62.4447
62.4722
62.4913
62.4932
62.4802
62.4486
62.4056
62.3525
62.2993
62.2491
62.211
62.1765
62.1582
62.1454
62.1483
62.1523
62.1725
62.1918
62.2185
62.2338
62.2559
62.2776
62.3145
62.383
62.4751
62.5845
62.7021
62.8287
62.9752
63.1254
63.2943
63.4509
63.6002
63.751
63.8669
63.9833
64.068
64.1551
64.2361
64.3306
64.4335
64.5562
64.6952
64.8504
65.0147
65.1822
65.356
65.523
65.6934
65.844
66.0045
66.1472
66.2954
66.4185
66.5462
66.6565
66.7606
66.8475
66.9071
66.9553
66.9779
66.988
66.9809
66.9535
66.9128
66.8501
66.7925
66.6989
66.6356
66.5321
66.4896
66.4179
66.4232
66.4014
66.4764
66.5056
66.637
66.6998
66.8835
66.9554
67.1972
67.2646
67.5767
67.6242
67.9637
68.0057
68.3192
68.3662
68.6033
68.6255
68.7714
68.6956
68.6867
68.4362
68.1834
67.6182
66.9349
65.7942
64.3558
61.8805
59.0866
51.9845
45.7435
20.3967
58.775
58.2368
57.4418
56.5446
55.7132
55.0468
54.5465
54.1543
53.7972
53.4332
52.9988
52.4985
51.9388
51.2491
50.5083
49.7935
49.0948
48.4986
48.067
47.7936
47.72
47.8301
48.1159
48.5814
49.1726
49.8359
50.5463
51.2771
52.0156
52.7529
53.4638
54.1246
54.7311
55.2873
55.7811
56.225
56.6548
57.0828
57.4967
57.8904
58.2547
58.556
58.7786
58.9403
59.0542
59.1126
59.1385
59.1511
59.1129
59.0012
58.839
58.6288
58.3627
58.042
57.67
57.2599
56.8258
56.3778
55.9331
55.508
55.1199
54.7591
54.4294
54.1657
53.9821
53.8767
53.8448
53.8884
53.9994
54.1639
54.3738
54.6136
54.8698
55.1387
55.4243
55.7456
56.1085
56.5108
56.9482
57.4257
57.942
58.4802
59.0233
59.5523
60.0446
60.4918
60.8952
61.2548
61.573
61.8566
62.1031
62.3096
62.4784
62.6033
62.6977
62.7531
62.7963
62.8313
62.8584
62.8689
62.868
62.8458
62.8112
62.7603
62.7073
62.6505
62.6033
62.556
62.5268
62.4984
62.4847
62.4707
62.4734
62.4728
62.4813
62.4791
62.4824
62.4845
62.5018
62.5484
62.6228
62.7126
62.8153
62.9236
63.0549
63.1902
63.3461
63.4995
63.6442
63.7955
63.9128
64.0326
64.1238
64.2187
64.3059
64.4065
64.5123
64.636
64.773
64.9263
65.0864
65.2527
65.4213
65.5863
65.7516
65.8973
66.0502
66.1874
66.3292
66.4448
66.5667
66.6696
66.7715
66.8559
66.918
66.9672
66.9961
67.0135
67.0058
66.9736
66.9272
66.8634
66.7992
66.6941
66.6231
66.4973
66.4427
66.3438
66.3288
66.269
66.3138
66.2984
66.4063
66.4215
66.5832
66.6091
66.834
66.8549
67.1475
67.1579
67.4615
67.4808
67.7342
67.7737
67.9632
67.9678
68.0712
67.9646
67.8989
67.6013
67.2756
66.6261
65.8438
64.4907
62.9801
59.8841
57.2682
48.7431
42.246
20.8666
59.0766
58.6088
57.9278
57.0816
56.2813
55.6594
55.2239
54.9065
54.6161
54.3017
53.9091
53.4366
52.9156
52.2828
51.5828
50.9075
50.2639
49.7091
49.3113
49.0659
49.0088
49.1226
49.3928
49.8331
50.4035
51.0527
51.7497
52.4634
53.173
53.8747
54.5546
55.19
55.767
56.2894
56.7466
57.1407
57.5066
57.8607
58.1972
58.5102
58.793
59.0161
59.1612
59.244
59.2783
59.263
59.2189
59.1702
59.0859
58.9447
58.7559
58.5136
58.2156
57.8656
57.4647
57.0255
56.562
56.0878
55.6183
55.1691
54.7611
54.3816
54.0438
53.7824
53.605
53.5101
53.4933
53.5576
53.695
53.8913
54.1351
54.4084
54.6971
55.001
55.3263
55.6907
56.0969
56.5413
57.0212
57.5412
58.1002
58.6798
59.2621
59.8287
60.3544
60.831
61.2615
61.6429
61.9773
62.2707
62.5219
62.73
62.8995
63.0232
63.1175
63.1732
63.2232
63.2675
63.3034
63.3217
63.3319
63.3185
63.2921
63.2431
63.1898
63.1269
63.0704
63.0094
62.9685
62.9239
62.894
62.8613
62.8457
62.8236
62.8135
62.792
62.7763
62.7567
62.7546
62.7769
62.8324
62.9013
62.9904
63.0812
63.1989
63.3185
63.4619
63.6097
63.7515
63.8997
64.0212
64.1425
64.2414
64.3433
64.4376
64.5435
64.6532
64.779
64.9145
65.0646
65.2208
65.383
65.5455
65.706
65.8659
66.0062
66.1514
66.2817
66.4181
66.5266
66.6429
66.7378
66.8378
66.9176
66.9827
67.0325
67.068
67.09
67.0803
67.0431
66.9934
66.9264
66.8532
66.7343
66.6521
66.5051
66.4389
66.3111
66.2779
66.1795
66.194
66.1319
66.2143
66.1797
66.3185
66.295
66.5028
66.4767
66.7389
66.7184
66.9729
66.976
67.168
67.1962
67.3389
67.3269
67.3875
67.2394
67.1295
66.7606
66.3861
65.6003
64.7896
63.1098
61.7139
57.8232
55.5817
45.977
38.9951
21.5927
59.453
59.0353
58.4101
57.5908
56.8065
56.223
55.8506
55.6075
55.387
55.1224
54.7758
54.3395
53.8563
53.288
52.6444
52.0175
51.4359
50.9349
50.5746
50.3586
50.3117
50.4223
50.6722
51.0784
51.6162
52.2398
52.9167
53.612
54.2981
54.9644
55.6107
56.2199
56.7726
57.2654
57.6869
58.0349
58.3439
58.6295
58.8926
59.131
59.3365
59.4861
59.5604
59.5714
59.5353
59.4528
59.3403
59.2301
59.1011
58.9333
58.722
58.453
58.128
57.752
57.3243
56.8594
56.3704
55.8755
55.3862
54.9171
54.4921
54.0986
53.7578
53.5017
53.3315
53.2462
53.2452
53.3325
53.4984
53.7282
54.0081
54.3178
54.6422
54.9831
55.349
55.7559
56.204
56.6888
57.21
57.7709
58.3693
58.9859
59.6032
60.201
60.7544
61.256
61.7093
62.1093
62.4578
62.7593
63.0138
63.2217
63.391
63.5121
63.6064
63.6641
63.7233
63.7773
63.8221
63.8471
63.8669
63.8608
63.8425
63.7957
63.7412
63.671
63.6059
63.5315
63.4789
63.4183
63.3733
63.3219
63.2873
63.2432
63.2144
63.1734
63.1384
63.096
63.0747
63.0712
63.1068
63.1542
63.2311
63.3047
63.41
63.5132
63.645
63.7841
63.9241
64.0662
64.1931
64.3143
64.4205
64.527
64.6301
64.7391
64.8543
64.9824
65.1177
65.2639
65.4173
65.5728
65.7288
65.8803
66.0336
66.167
66.3067
66.4301
66.5624
66.6645
66.7767
66.8623
66.9608
67.0333
67.1033
67.1511
67.195
67.2167
67.2048
67.1625
67.1144
67.0372
66.9548
66.8183
66.7233
66.5541
66.4784
66.3206
66.2681
66.1301
66.1138
66.008
66.0629
65.9757
66.0923
66.0147
66.2039
66.1326
66.3526
66.3064
66.5016
66.4861
66.6273
66.6329
66.7374
66.696
66.7232
66.5087
66.3884
65.8974
65.5408
64.5194
63.8273
61.6435
60.5573
55.7725
53.8443
43.7141
35.9006
21.7732
59.9057
59.5178
58.872
58.0343
57.2591
56.722
56.4225
56.2565
56.1084
55.8989
55.6034
55.2163
54.7756
54.2717
53.6967
53.1264
52.605
52.1622
51.8383
51.6474
51.6086
51.716
51.948
52.3161
52.8114
53.3988
54.0474
54.7208
55.3832
56.0193
56.6314
57.2103
57.7378
58.2036
58.5919
58.8955
59.1524
59.3781
59.5756
59.7464
59.8811
59.9639
59.9754
59.9209
59.8239
59.6802
59.5022
59.3328
59.1626
58.9701
58.7382
58.4465
58.0994
57.7007
57.2501
56.7646
56.2558
55.7445
55.239
54.7537
54.3167
53.915
53.5761
53.3268
53.1631
53.0869
53.1019
53.2148
53.4111
53.6756
53.9932
54.342
54.7046
55.0836
55.4902
55.9379
56.4259
56.9493
57.5108
58.1115
58.7457
59.3957
60.0434
60.6659
61.2415
61.7627
62.2338
62.6487
63.0092
63.3173
63.5746
63.782
63.9507
64.0681
64.1625
64.2242
64.2945
64.3568
64.4089
64.4396
64.4665
64.4659
64.4549
64.4108
64.3554
64.2773
64.2041
64.1178
64.0528
63.9771
63.9186
63.849
63.7954
63.7298
63.6831
63.6226
63.5696
63.5046
63.4649
63.4353
63.4511
63.4762
63.5411
63.597
63.6903
63.776
63.8972
64.0246
64.1625
64.295
64.4272
64.5456
64.6585
64.766
64.8798
64.9898
65.1145
65.2416
65.3803
65.521
65.6738
65.8181
65.9704
66.1069
66.255
66.3758
66.5147
66.6276
66.7614
66.8536
66.968
67.041
67.1411
67.201
67.2806
67.3209
67.3775
67.3911
67.3809
67.331
67.2913
67.1935
67.1031
66.9427
66.8383
66.647
66.5586
66.3692
66.2967
66.121
66.0747
65.9232
65.9511
65.8076
65.9064
65.7672
65.9355
65.8187
65.9925
65.9173
66.0542
66.0089
66.114
66.082
66.1648
66.0648
66.0889
65.7531
65.6907
64.9766
64.7546
63.333
62.921
60.1084
59.421
53.824
51.9193
41.8923
32.9358
21.5147
60.5447
60.0992
59.2769
58.3494
57.5943
57.1339
56.9246
56.8415
56.7674
56.6227
56.3863
56.0564
55.6644
55.2243
54.726
54.2189
53.7542
53.3647
53.077
52.9092
52.8793
52.9844
53.2037
53.5379
53.9881
54.5329
55.143
55.7854
56.4222
57.0326
57.6128
58.1587
58.6556
59.0911
59.4478
59.7116
59.9218
60.097
60.237
60.3479
60.4209
60.4444
60.3994
60.2882
60.1389
59.9413
59.7027
59.4788
59.2712
59.0542
58.8016
58.4905
58.126
57.71
57.2429
56.7431
56.2209
55.6973
55.1778
54.681
54.2376
53.8337
53.5008
53.2584
53.0999
53.0324
53.0645
53.2048
53.4326
53.7328
54.0893
54.4783
54.8802
55.2984
55.7446
56.231
56.7566
57.3172
57.9176
58.5574
59.2238
59.9037
60.5774
61.2195
61.8115
62.3475
62.831
63.2568
63.6268
63.9404
64.2012
64.4076
64.5759
64.6895
64.784
64.8506
64.9323
65.0013
65.058
65.0918
65.1236
65.1272
65.1215
65.0803
65.025
64.9394
64.8593
64.762
64.6854
64.5952
64.5244
64.4378
64.3664
64.2809
64.2176
64.1384
64.07
63.9831
63.9254
63.8711
63.868
63.8698
63.9215
63.9591
64.0396
64.1072
64.2183
64.3312
64.4662
64.5863
64.7209
64.833
64.9526
65.0573
65.1817
65.2937
65.4308
65.5535
65.6989
65.8324
65.9864
66.1149
66.2662
66.3825
66.5277
66.6303
66.7719
66.869
67.0093
67.088
67.2111
67.2686
67.3752
67.418
67.5124
67.5391
67.6133
67.6093
67.61
67.5464
67.5231
67.3906
67.2981
67.1056
66.9977
66.7787
66.684
66.4557
66.3628
66.1403
66.0773
65.8729
65.8825
65.6728
65.7629
65.5533
65.6997
65.5322
65.6622
65.5457
65.6393
65.5422
65.638
65.5274
65.6278
65.4034
65.4821
64.9447
65.0247
63.9764
63.9963
62.0735
62.0136
58.5496
58.2029
52.0486
49.5345
40.3544
30.4833
21.2602
61.4906
60.9118
59.6561
58.5639
57.837
57.4744
57.3658
57.3682
57.368
57.2929
57.1194
56.8502
56.5116
56.1316
55.7088
55.2691
54.8595
54.5167
54.2668
54.1246
54.1052
54.2087
54.4188
54.7279
55.1388
55.6398
56.2044
56.8053
57.4114
57.9973
58.5484
59.0589
59.5202
59.9207
60.244
60.4721
60.6424
60.7741
60.8672
60.9263
60.9474
60.9204
60.8252
60.665
60.4715
60.2286
59.9364
59.665
59.4237
59.1819
58.9081
58.5803
58.2046
57.7795
57.3047
56.7984
56.2678
55.7341
55.2027
54.7
54.2561
53.8552
53.5314
53.2963
53.1423
53.0831
53.1333
53.3021
53.5617
53.8974
54.2927
54.7221
55.1642
55.6218
56.1056
56.6276
57.1885
57.7851
58.4228
59.0997
59.7961
60.5028
61.1992
61.8561
62.4594
63.0055
63.4963
63.9293
64.3059
64.6239
64.889
65.0943
65.2623
65.373
65.4682
65.54
65.6317
65.7048
65.7627
65.7966
65.8298
65.8356
65.8345
65.7962
65.7428
65.6509
65.5647
65.4576
65.3709
65.2671
65.1853
65.0838
64.9969
64.8933
64.8151
64.7185
64.6371
64.5302
64.455
64.3779
64.357
64.335
64.3715
64.3896
64.4568
64.5054
64.6057
64.702
64.8319
64.9375
65.0719
65.1747
65.3008
65.399
65.5346
65.6489
65.799
65.9158
66.0706
66.1942
66.3502
66.4609
66.6128
66.7054
66.848
66.9284
67.0735
67.1507
67.299
67.3618
67.4992
67.5398
67.6586
67.6813
67.794
67.8005
67.8975
67.8658
67.8904
67.803
67.8035
67.6224
67.5383
67.3026
67.2051
66.9444
66.8534
66.5724
66.4718
66.1863
66.1241
65.8491
65.8599
65.5677
65.6627
65.3699
65.5057
65.2625
65.3688
65.1781
65.2666
65.0772
65.2069
64.9597
65.1296
64.6988
64.8833
64.0765
64.3092
62.9052
63.1533
60.7575
61.0296
57.0429
56.6524
50.5086
46.6242
38.9363
29.0053
21.464
62.254
61.6057
60.0534
58.8153
58.0788
57.7836
57.7626
57.8468
57.9197
57.9123
57.7994
57.5888
57.3052
56.9798
56.6249
56.2526
55.8969
55.5979
55.3865
55.272
55.2664
55.3724
55.5772
55.8698
56.249
56.7083
57.2262
57.7818
58.3507
58.9068
59.4292
59.9031
60.3241
60.6873
60.9767
61.1718
61.305
61.3995
61.4557
61.4732
61.4534
61.3867
61.2487
61.0466
60.8142
60.534
60.1971
59.8861
59.6162
59.3493
59.0539
58.7137
58.3337
57.9081
57.4359
56.9308
56.396
55.8533
55.3128
54.8111
54.3722
53.9786
53.6655
53.4378
53.2899
53.2396
53.3085
53.5057
53.796
54.1663
54.5992
55.0678
55.5512
56.0472
56.5654
57.1193
57.7132
58.3436
59.017
59.7284
60.4534
61.1845
61.9
62.5679
63.1796
63.7315
64.2246
64.6614
65.0422
65.3625
65.6317
65.8367
66.0048
66.1135
66.2101
66.2865
66.3853
66.4599
66.5153
66.5449
66.5771
66.5826
66.5862
66.5507
66.5007
66.4046
66.3131
66.1982
66.1032
65.9881
65.8961
65.7817
65.6822
65.5624
65.4701
65.3579
65.2653
65.1407
65.0494
64.9515
64.9136
64.8681
64.8874
64.8854
64.9384
64.9671
65.0561
65.1344
65.2558
65.3444
65.4755
65.5678
65.6998
65.7909
65.9382
66.054
66.217
66.3275
66.4922
66.6033
66.7608
66.8529
67.0052
67.0745
67.2148
67.2701
67.4159
67.4703
67.6252
67.6708
67.823
67.8465
67.9824
67.9844
68.1171
68.0993
68.2205
68.1554
68.2142
68.0921
68.1209
67.8808
67.8154
67.5245
67.4521
67.1347
67.0588
66.7073
66.6195
66.2542
66.2166
65.8442
65.8786
65.4821
65.6012
65.2064
65.3453
65.0017
65.1084
64.8109
64.9268
64.6052
64.795
64.3662
64.63
63.95
64.2576
63.1459
63.5199
61.8105
62.2229
59.511
59.7941
55.6807
54.5024
49.0066
43.9381
37.7691
28.5176
22.1391
62.8698
62.1992
60.4786
59.1236
58.3477
58.0824
58.1265
58.2827
58.4229
58.4786
58.4246
58.2701
58.0399
57.7641
57.4647
57.1539
56.8516
56.5964
56.4225
56.3376
56.3484
56.4609
56.665
56.9472
57.302
57.7248
58.1998
58.7092
59.2359
59.7562
60.246
60.6834
61.0627
61.3856
61.6408
61.8084
61.9094
61.971
61.9975
61.9831
61.9327
61.8374
61.6667
61.4307
61.1643
60.8532
60.4801
60.1379
59.8441
59.5533
59.2369
58.8896
58.5123
58.094
57.6333
57.1378
56.6026
56.0521
55.5066
55.0136
54.5852
54.2022
53.9007
53.6807
53.5393
53.4999
53.5895
53.8143
54.1333
54.5366
55.0047
55.5108
56.0354
56.568
57.1173
57.6991
58.3228
58.9846
59.6903
60.4331
61.1851
61.9384
62.6692
63.346
63.9636
64.518
65.0109
65.4479
65.8296
66.1497
66.4222
66.6277
66.7967
66.904
67.0023
67.0824
67.1844
67.257
67.3072
67.3281
67.3573
67.3621
67.3701
67.3374
67.2912
67.1934
67.0981
66.9777
66.8763
66.7521
66.6509
66.5259
66.4159
66.2828
66.1772
66.0505
65.9476
65.8078
65.7029
65.5866
65.5325
65.4632
65.4645
65.4419
65.4804
65.4882
65.5643
65.6231
65.7334
65.8028
65.927
66.0072
66.1441
66.2299
66.3887
66.505
66.6808
66.7857
66.9582
67.0577
67.2165
67.2901
67.4388
67.4866
67.6233
67.6539
67.7966
67.8277
67.9847
68.0132
68.1757
68.184
68.3357
68.3208
68.4703
68.4317
68.5703
68.4751
68.5668
68.4084
68.4607
68.158
68.1182
67.7672
67.7218
67.3371
67.2919
66.857
66.7947
66.327
66.3326
65.8418
65.9215
65.4011
65.561
65.0518
65.2057
64.7458
64.8739
64.4432
64.5993
64.1199
64.3642
63.7328
64.0712
63.1522
63.5499
62.206
62.6478
60.7956
61.1315
58.4732
58.1526
54.3601
52.0824
47.3893
42.0622
37.1888
28.8837
23.0927
63.3543
62.7042
60.9087
59.478
58.6577
58.3902
58.4685
58.6776
58.8766
58.9926
58.9979
58.8983
58.7183
58.4886
58.2346
57.975
57.7254
57.5139
57.3753
57.3198
57.3502
57.4706
57.6747
57.9491
58.2848
58.6776
59.1157
59.583
60.0668
60.5473
60.9981
61.3962
61.7347
62.0174
62.2383
62.3829
62.459
62.4944
62.4962
62.4573
62.384
62.2693
62.0782
61.8156
61.5213
61.1819
60.7816
60.4169
60.1043
59.7907
59.4559
59.1063
58.7395
58.336
57.8927
57.4128
56.882
56.3267
55.7821
55.3055
54.8933
54.5228
54.233
54.021
53.888
53.8614
53.9735
54.2256
54.5716
55.0053
55.5059
56.047
56.6107
57.1783
57.7551
58.3605
59.011
59.7008
60.4337
61.2038
61.981
62.7537
63.4965
64.1806
64.802
65.3564
65.8482
66.2825
66.6627
66.9787
67.2526
67.4592
67.6293
67.7359
67.8358
67.9166
68.0183
68.0854
68.129
68.1395
68.1643
68.1673
68.1802
68.1498
68.1075
68.0098
67.9131
67.7884
67.684
67.5521
67.4435
67.3096
67.1915
67.0474
66.9296
66.7898
66.6764
66.5249
66.4085
66.2752
66.2059
66.1142
66.0961
66.053
66.0768
66.0643
66.1249
66.1629
66.2594
66.3079
66.4214
66.4881
66.6282
66.711
66.8802
66.9975
67.185
67.2863
67.4627
67.5515
67.7102
67.7686
67.9101
67.9389
68.0677
68.0752
68.2108
68.2216
68.3747
68.387
68.5522
68.5481
68.7098
68.6839
68.8455
68.793
68.9388
68.8229
68.9366
68.7481
68.8106
68.4532
68.4269
68.025
67.9957
67.5502
67.5235
67.0074
66.9706
66.4011
66.4484
65.8301
65.9628
65.3101
65.5131
64.877
65.0624
64.4623
64.6484
64.0577
64.2728
63.6242
63.9086
63.1265
63.4715
62.4215
62.7787
61.3933
61.6727
59.9213
59.818
57.44
56.2749
52.901
50.0132
46.0585
40.9995
37.2107
29.7816
24.1512
63.7459
63.1338
61.3293
59.8628
59.0026
58.7088
58.7916
59.0352
59.2859
59.4605
59.525
59.4793
59.3469
59.1593
58.9448
58.7281
58.5266
58.3587
58.2534
58.225
58.275
58.4038
58.6076
58.8744
59.1946
59.5629
59.9681
60.3971
60.8399
61.2784
61.6868
62.0437
62.3429
62.588
62.7782
62.9021
62.9585
62.9726
62.9547
62.8983
62.8095
62.6816
62.4808
62.1998
61.8812
61.5167
61.098
60.7192
60.3942
60.0594
59.7102
59.3628
59.0123
58.6306
58.2105
57.7495
57.2272
56.6723
56.1365
55.6832
55.2926
54.9369
54.6584
54.4548
54.3323
54.3216
54.4568
54.7349
55.1066
55.5693
56.0992
56.6721
57.2721
57.8724
58.4729
59.0979
59.7717
60.4849
61.2392
62.0312
62.8302
63.6194
64.3709
65.0604
65.6838
66.2375
66.7286
67.1579
67.5348
67.8426
68.1151
68.3224
68.4925
68.5985
68.6993
68.7776
68.8766
68.9355
68.9723
68.972
68.993
68.9931
69.0112
68.9816
68.9438
68.8462
68.7506
68.6225
68.5186
68.3802
68.2687
68.126
68.0023
67.8495
67.7206
67.5688
67.4461
67.2853
67.1594
67.0086
66.9245
66.8126
66.7758
66.7114
66.7202
66.6876
66.7323
66.749
66.8286
66.8548
66.9551
67.0063
67.1468
67.2285
67.4074
67.526
67.7245
67.8239
68.0028
68.0822
68.2386
68.2837
68.414
68.426
68.5433
68.5304
68.6559
68.6488
68.7936
68.7902
68.9497
68.9342
69.0988
69.0663
69.235
69.1742
69.3206
69.1918
69.3151
69.1064
69.1652
68.7652
68.7372
68.2984
68.2627
67.7782
67.7545
67.1726
67.1315
66.4925
66.5433
65.8349
65.9651
65.2323
65.403
64.7023
64.8566
64.1787
64.3657
63.684
63.8939
63.143
63.4062
62.5431
62.8153
61.6947
61.9209
60.5513
60.5645
58.9393
58.3925
56.1617
54.5771
51.5246
48.559
45.4007
40.7092
37.6489
30.8755
25.2126
64.0613
63.4975
61.7331
60.2623
59.371
59.0388
59.1081
59.3715
59.6638
59.8911
60.0108
60.0172
59.9304
59.7825
59.6041
59.4234
59.2624
59.1353
59.0618
59.0576
59.1261
59.2646
59.4685
59.7283
60.0342
60.3803
60.7557
61.1476
61.549
61.9439
62.3086
62.6256
62.8894
63.1015
63.2648
63.3701
63.4115
63.4089
63.3759
63.3065
63.2073
63.0718
62.8698
62.5817
62.2417
61.8553
61.425
61.0427
60.7095
60.3572
59.9981
59.6578
59.3275
58.9704
58.5788
58.1419
57.6323
57.0839
56.5647
56.1412
55.7763
55.4374
55.172
54.9795
54.8698
54.8761
55.0342
55.3369
55.7338
56.2237
56.7795
57.381
58.0137
58.6431
59.2645
59.9063
60.5986
61.3304
62.1003
62.908
63.7239
64.5247
65.2819
65.9748
66.5987
67.1506
67.6425
68.0654
68.4381
68.7343
69.0029
69.209
69.3755
69.4797
69.5808
69.6525
69.7495
69.7978
69.8287
69.818
69.8372
69.8323
69.8584
69.8271
69.7947
69.6943
69.6026
69.4715
69.3722
69.2275
69.1189
68.9678
68.8421
68.6816
68.5438
68.3812
68.2504
68.0818
67.947
67.7784
67.6802
67.5497
67.4964
67.4097
67.4032
67.351
67.3793
67.3746
67.4363
67.4397
67.5252
67.5596
67.6974
67.7776
67.9669
68.0882
68.2961
68.3937
68.575
68.6442
68.7981
68.8324
68.9484
68.9432
69.0459
69.0155
69.1291
69.105
69.2391
69.2198
69.3678
69.3411
69.5025
69.464
69.6347
69.5684
69.7117
69.5745
69.6985
69.4764
69.5243
69.0876
69.0444
68.579
68.5257
68.0158
67.9814
67.3604
67.2975
66.6175
66.6398
65.8864
65.9718
65.2114
65.2981
64.5791
64.6574
63.9589
64.0797
63.3648
63.4924
62.6919
62.8565
61.9274
62.0662
60.8668
60.9492
59.5214
59.3412
57.677
56.9509
54.7764
53.1545
50.4962
47.7336
45.3403
40.9813
38.239
31.9555
26.2607
64.3108
63.8018
62.1224
60.6735
59.7599
59.3827
59.4251
59.6944
60.0174
60.2892
60.4592
60.5154
60.4735
60.3638
60.2193
60.0703
59.9418
59.8488
59.8047
59.8229
59.9078
60.0557
60.2604
60.5139
60.8064
61.1307
61.4778
61.8342
62.193
62.5426
62.8637
63.1431
63.3747
63.5588
63.6983
63.7859
63.8164
63.8031
63.7593
63.6823
63.5756
63.4374
63.2415
62.9572
62.6027
62.1956
61.7598
61.3823
61.0442
60.681
60.3162
59.986
59.6789
59.3475
58.9875
58.5802
58.0908
57.5569
57.0616
56.6742
56.3383
56.0171
55.7677
55.5911
55.4967
55.5203
55.6992
56.0242
56.4465
56.9615
57.5403
58.1677
58.8286
59.4822
60.1223
60.7786
61.485
62.2305
63.0093
63.8272
64.6538
65.4604
66.2194
66.9132
67.5363
68.0852
68.5784
68.9938
69.3643
69.6456
69.9086