/*--------------------------------*- C++ -*----------------------------------*\
| =========                 |                                                 |
| \\      /  F ield         | OpenFOAM: The Open Source CFD Toolbox           |
|  \\    /   O peration     | Version:  2.4.0                                 |
|   \\  /    A nd           | Web:      www.OpenFOAM.org                      |
|    \\/     M anipulation  |                                                 |
\*---------------------------------------------------------------------------*/
FoamFile
{
    version     2.0;
    format      ascii;
    class       surfaceScalarField;
    location    "0.27";
    object      phi_0;
}
// * * * * * * * * * * * * * * * * * * * * * * * * * * * * * * * * * * * * * //

dimensions      [0 3 -1 0 0 0 0];

internalField   nonuniform List<scalar> 
34880
(
5.48735e-06
7.01265e-06
3.12516e-06
2.36219e-06
2.47219e-06
6.52971e-07
2.21966e-06
2.52525e-07
2.07387e-06
1.45788e-07
1.96641e-06
1.07466e-07
1.89113e-06
7.52814e-08
1.8162e-06
7.49268e-08
1.76984e-06
4.63569e-08
1.7426e-06
2.72424e-08
1.69527e-06
4.73353e-08
1.67915e-06
1.61202e-08
1.65057e-06
2.85778e-08
1.6261e-06
2.44694e-08
1.59485e-06
3.12517e-08
1.58969e-06
5.15411e-09
1.5498e-06
3.98941e-08
1.52081e-06
2.89814e-08
1.41257e-06
1.0825e-07
-4.30927e-07
1.84349e-06
1.01098e-05
9.40282e-06
7.82997e-06
4.64205e-06
6.71028e-06
1.77267e-06
6.06361e-06
8.99188e-07
5.64423e-06
5.65168e-07
5.34837e-06
4.03333e-07
5.12888e-06
2.94772e-07
4.93528e-06
2.68528e-07
4.8068e-06
1.74829e-07
4.70415e-06
1.29894e-07
4.59823e-06
1.53253e-07
4.53625e-06
7.81038e-08
4.46236e-06
1.02465e-07
4.39854e-06
8.82943e-08
4.33046e-06
9.93258e-08
4.30604e-06
2.95752e-08
4.21425e-06
1.3168e-07
4.17897e-06
6.42676e-08
4.10682e-06
1.80401e-07
-3.64213e-07
4.0401e-06
1.24243e-05
9.47856e-06
1.10031e-05
6.06327e-06
9.98216e-06
2.79356e-06
9.20126e-06
1.68009e-06
8.61729e-06
1.14914e-06
8.18989e-06
8.3073e-07
7.86374e-06
6.2092e-07
7.5824e-06
5.49875e-07
7.38703e-06
3.70195e-07
7.22074e-06
2.96188e-07
7.06995e-06
3.04037e-07
6.96596e-06
1.821e-07
6.85714e-06
2.1128e-07
6.7613e-06
1.84137e-07
6.6659e-06
1.94718e-07
6.61813e-06
7.73521e-08
6.50608e-06
2.43727e-07
6.43647e-06
1.33877e-07
6.41527e-06
2.01599e-07
-2.57314e-07
6.30837e-06
1.34113e-05
8.56727e-06
1.28863e-05
6.58824e-06
1.23307e-05
3.34919e-06
1.17137e-05
2.29705e-06
1.11315e-05
1.73142e-06
1.06603e-05
1.30192e-06
1.02787e-05
1.00245e-06
9.94501e-06
8.83604e-07
9.70626e-06
6.0894e-07
9.49429e-06
5.0816e-07
9.30917e-06
4.89152e-07
9.17485e-06
3.16425e-07
9.03673e-06
3.49403e-07
8.91707e-06
3.03793e-07
8.80279e-06
3.08997e-07
8.72744e-06
1.52703e-07
8.6144e-06
3.56763e-07
8.51688e-06
2.31395e-07
8.45175e-06
2.66736e-07
-3.35484e-07
8.52992e-06
1.35904e-05
7.4769e-06
1.36542e-05
6.52442e-06
1.36323e-05
3.37104e-06
1.33979e-05
2.5315e-06
1.30144e-05
2.11487e-06
1.26298e-05
1.6866e-06
1.22769e-05
1.35526e-06
1.19481e-05
1.21243e-06
1.17047e-05
8.52353e-07
1.14781e-05
7.34794e-07
1.12782e-05
6.89062e-07
1.11324e-05
4.62191e-07
1.09775e-05
5.04262e-07
1.08443e-05
4.36977e-07
1.07256e-05
4.27754e-07
1.06259e-05
2.52375e-07
1.05074e-05
4.75251e-07
1.04311e-05
3.07729e-07
1.02904e-05
4.07439e-07
-2.18434e-07
1.01733e-05
1.3483e-05
6.4939e-06
1.37399e-05
6.26755e-06
1.40111e-05
3.09979e-06
1.41423e-05
2.40031e-06
1.40745e-05
2.18266e-06
1.39089e-05
1.85222e-06
1.36965e-05
1.56764e-06
1.34589e-05
1.45008e-06
1.32709e-05
1.04036e-06
1.30779e-05
9.27783e-07
1.28955e-05
8.71427e-07
1.27676e-05
5.90124e-07
1.26179e-05
6.53921e-07
1.24876e-05
5.67343e-07
1.2381e-05
5.34277e-07
1.2278e-05
3.55442e-07
1.21387e-05
6.14509e-07
1.21078e-05
3.38634e-07
1.1972e-05
5.43192e-07
2.67902e-07
1.14857e-05
1.33674e-05
5.62648e-06
1.36725e-05
5.9625e-06
1.39469e-05
2.8254e-06
1.42244e-05
2.12279e-06
1.43733e-05
2.03375e-06
1.4425e-05
1.80054e-06
1.44006e-05
1.592e-06
1.43255e-05
1.52524e-06
1.42601e-05
1.1057e-06
1.41652e-05
1.02276e-06
1.40497e-05
9.8691e-07
1.39817e-05
6.58063e-07
1.38727e-05
7.62976e-07
1.37722e-05
6.67851e-07
1.36983e-05
6.0816e-07
1.36208e-05
4.3294e-07
1.34735e-05
7.61796e-07
1.3458e-05
3.54108e-07
1.3471e-05
5.30243e-07
2.49949e-07
1.34889e-05
1.32889e-05
4.83761e-06
1.36502e-05
5.60112e-06
1.38069e-05
2.66879e-06
1.41034e-05
1.82629e-06
1.43122e-05
1.82493e-06
1.44633e-05
1.64943e-06
1.45433e-05
1.51199e-06
1.45858e-05
1.48275e-06
1.46294e-05
1.06204e-06
1.46517e-05
1.00045e-06
1.46347e-05
1.00392e-06
1.46601e-05
6.32713e-07
1.46343e-05
7.88741e-07
1.46007e-05
7.01494e-07
1.45894e-05
6.19465e-07
1.4564e-05
4.58315e-07
1.44635e-05
8.62267e-07
1.44479e-05
3.69717e-07
1.44849e-05
4.93279e-07
1.13447e-06
1.36004e-05
1.32254e-05
4.11218e-06
1.36202e-05
5.20637e-06
1.37084e-05
2.58054e-06
1.3976e-05
1.55873e-06
1.41807e-05
1.62017e-06
1.43645e-05
1.46565e-06
1.44838e-05
1.39268e-06
1.45712e-05
1.39542e-06
1.46384e-05
9.9485e-07
1.47147e-05
9.24107e-07
1.47543e-05
9.64358e-07
1.48385e-05
5.48493e-07
1.4886e-05
7.41196e-07
1.49308e-05
6.5677e-07
1.4987e-05
5.6318e-07
1.5033e-05
4.12326e-07
1.50106e-05
8.84707e-07
1.50664e-05
3.139e-07
1.51828e-05
3.7687e-07
9.4955e-07
1.53677e-05
1.3151e-05
3.46114e-06
1.3599e-05
4.75841e-06
1.36772e-05
2.50231e-06
1.38797e-05
1.35622e-06
1.40513e-05
1.44858e-06
1.42351e-05
1.28191e-06
1.43886e-05
1.23914e-06
1.45217e-05
1.26229e-06
1.45842e-05
9.32431e-07
1.46554e-05
8.52859e-07
1.4702e-05
9.17793e-07
1.47886e-05
4.61865e-07
1.48568e-05
6.73018e-07
1.49368e-05
5.76782e-07
1.50286e-05
4.71309e-07
1.51112e-05
3.29768e-07
1.5172e-05
8.23934e-07
1.5319e-05
1.66878e-07
1.53532e-05
3.42667e-07
8.94529e-07
1.54082e-05
1.30538e-05
2.90733e-06
1.35193e-05
4.29292e-06
1.36625e-05
2.35914e-06
1.38592e-05
1.15949e-06
1.39849e-05
1.32285e-06
1.41194e-05
1.14742e-06
1.42894e-05
1.06919e-06
1.44598e-05
1.09191e-06
1.45266e-05
8.65589e-07
1.45944e-05
7.85072e-07
1.46542e-05
8.58014e-07
1.47284e-05
3.8763e-07
1.47851e-05
6.16283e-07
1.48634e-05
4.98567e-07
1.49475e-05
3.87148e-07
1.50269e-05
2.50431e-07
1.51425e-05
7.08265e-07
1.5285e-05
2.4407e-08
1.53406e-05
2.87033e-07
8.60729e-07
1.53744e-05
1.29614e-05
2.44594e-06
1.3435e-05
3.81935e-06
1.36415e-05
2.15256e-06
1.38476e-05
9.53489e-07
1.39646e-05
1.20584e-06
1.40488e-05
1.06319e-06
1.41927e-05
9.25247e-07
1.4377e-05
9.07649e-07
1.4476e-05
7.66556e-07
1.4564e-05
6.97096e-07
1.46238e-05
7.9824e-07
1.46707e-05
3.40661e-07
1.47299e-05
5.57078e-07
1.48024e-05
4.26093e-07
1.48583e-05
3.31235e-07
1.49448e-05
1.63928e-07
1.51006e-05
5.52484e-07
1.52095e-05
-8.45007e-08
1.53004e-05
1.96143e-07
6.16833e-07
1.55443e-05
1.2913e-05
2.03291e-06
1.34011e-05
3.33133e-06
1.36185e-05
1.93515e-06
1.3778e-05
7.93942e-07
1.39353e-05
1.04853e-06
1.40147e-05
9.83784e-07
1.41118e-05
8.28219e-07
1.43049e-05
7.14463e-07
1.44619e-05
6.09623e-07
1.4543e-05
6.15926e-07
1.45624e-05
7.78928e-07
1.45942e-05
3.08791e-07
1.46727e-05
4.78571e-07
1.476e-05
3.3879e-07
1.48257e-05
2.65604e-07
1.49001e-05
8.95158e-08
1.50993e-05
3.53228e-07
1.51646e-05
-1.49746e-07
1.5195e-05
1.6569e-07
2.99008e-07
1.55129e-05
1.28897e-05
1.64324e-06
1.3352e-05
2.86898e-06
1.35862e-05
1.70093e-06
1.37237e-05
6.56443e-07
1.39142e-05
8.58088e-07
1.39937e-05
9.04317e-07
1.40692e-05
7.52675e-07
1.42459e-05
5.37757e-07
1.44162e-05
4.39358e-07
1.44896e-05
5.42448e-07
1.4509e-05
7.5957e-07
1.45422e-05
2.75564e-07
1.46335e-05
3.87328e-07
1.47442e-05
2.28016e-07
1.48023e-05
2.07552e-07
1.48542e-05
3.75967e-08
1.50479e-05
1.59534e-07
1.50975e-05
-1.99356e-07
1.51007e-05
1.62494e-07
-5.36133e-08
1.54533e-05
1.28521e-05
1.29114e-06
1.32811e-05
2.43995e-06
1.35426e-05
1.43945e-06
1.37179e-05
4.81194e-07
1.38906e-05
6.8533e-07
1.39712e-05
8.2375e-07
1.40539e-05
6.69975e-07
1.41892e-05
4.02466e-07
1.43366e-05
2.91899e-07
1.44345e-05
4.44595e-07
1.44967e-05
6.97387e-07
1.4535e-05
2.37197e-07
1.46098e-05
3.12539e-07
1.47175e-05
1.20358e-07
1.47545e-05
1.70514e-07
1.4821e-05
-2.89277e-08
1.49711e-05
9.47473e-09
1.50273e-05
-2.55515e-07
1.51263e-05
6.34776e-08
-4.38035e-07
1.55107e-05
1.28075e-05
9.83619e-07
1.32503e-05
1.99721e-06
1.35468e-05
1.14288e-06
1.36924e-05
3.35646e-07
1.38285e-05
5.49232e-07
1.39513e-05
7.00878e-07
1.40481e-05
5.73214e-07
1.41542e-05
2.96386e-07
1.4294e-05
1.52061e-07
1.43976e-05
3.41012e-07
1.44792e-05
6.15832e-07
1.45135e-05
2.02855e-07
1.45793e-05
2.46764e-07
1.46675e-05
3.21229e-08
1.4735e-05
1.02996e-07
1.47987e-05
-9.25524e-08
1.49459e-05
-1.37785e-07
1.49464e-05
-2.56027e-07
1.51722e-05
-1.62257e-07
-9.23296e-07
1.56574e-05
1.27824e-05
7.01216e-07
1.32404e-05
1.53924e-06
1.35351e-05
8.48201e-07
1.36486e-05
2.22134e-07
1.37789e-05
4.18939e-07
1.39398e-05
5.39923e-07
1.40492e-05
4.63863e-07
1.41442e-05
2.01324e-07
1.42644e-05
3.18688e-08
1.43471e-05
2.58371e-07
1.44502e-05
5.12705e-07
1.44744e-05
1.78653e-07
1.45683e-05
1.52809e-07
1.46397e-05
-3.92074e-08
1.47261e-05
1.65433e-08
1.47814e-05
-1.47839e-07
1.49099e-05
-2.66276e-07
1.48869e-05
-2.32999e-07
1.49941e-05
-2.69447e-07
5.15184e-09
1.40656e-05
1.27644e-05
4.36769e-07
1.32221e-05
1.08159e-06
1.35125e-05
5.57837e-07
1.36427e-05
9.19241e-08
1.3758e-05
3.03623e-07
1.39219e-05
3.75988e-07
1.4049e-05
3.36784e-07
1.41313e-05
1.18995e-07
1.422e-05
-5.67895e-08
1.43103e-05
1.68018e-07
1.44265e-05
3.96579e-07
1.44698e-05
1.35283e-07
1.45669e-05
5.57534e-08
1.46429e-05
-1.15212e-07
1.46904e-05
-3.09703e-08
1.4787e-05
-2.44442e-07
1.48353e-05
-3.14556e-07
1.49058e-05
-3.03547e-07
1.51665e-05
-5.30144e-07
-3.32791e-07
1.55045e-05
1.275e-05
1.86732e-07
1.32153e-05
6.16353e-07
1.35132e-05
2.59892e-07
1.36466e-05
-4.14255e-08
1.37256e-05
2.24617e-07
1.39003e-05
2.01241e-07
1.40429e-05
1.94259e-07
1.41194e-05
4.2473e-08
1.42098e-05
-1.47178e-07
1.42992e-05
7.85353e-08
1.4412e-05
2.83817e-07
1.44698e-05
7.7536e-08
1.45657e-05
-4.02271e-08
1.46153e-05
-1.64793e-07
1.46769e-05
-9.25507e-08
1.4782e-05
-3.49504e-07
1.48005e-05
-3.33062e-07
1.49555e-05
-4.58625e-07
1.50949e-05
-6.69481e-07
-5.32503e-07
1.52946e-05
1.2746e-05
-5.92369e-08
1.3219e-05
1.43298e-07
1.35138e-05
-3.49126e-08
1.36301e-05
-1.57737e-07
1.37029e-05
1.5187e-07
1.38998e-05
4.36097e-09
1.40357e-05
5.82962e-08
1.41221e-05
-4.38918e-08
1.42207e-05
-2.45795e-07
1.42907e-05
8.59366e-09
1.43895e-05
1.84977e-07
1.44725e-05
-5.46779e-09
1.45524e-05
-1.20157e-07
1.45887e-05
-2.01087e-07
1.46852e-05
-1.8903e-07
1.47662e-05
-4.30481e-07
1.48096e-05
-3.7647e-07
1.49624e-05
-6.11407e-07
1.50047e-05
-7.11792e-07
-9.23009e-07
1.53952e-05
1.27519e-05
-3.11145e-07
1.32213e-05
-3.26135e-07
1.34955e-05
-3.09074e-07
1.36214e-05
-2.83607e-07
1.37236e-05
4.96832e-08
1.39081e-05
-1.80181e-07
1.40214e-05
-5.50118e-08
1.41253e-05
-1.47733e-07
1.42261e-05
-3.46686e-07
1.42783e-05
-4.36026e-08
1.43872e-05
7.61306e-08
1.44876e-05
-1.05864e-07
1.45422e-05
-1.74749e-07
1.45838e-05
-2.42719e-07
1.47043e-05
-3.09556e-07
1.47472e-05
-4.73307e-07
1.4843e-05
-4.72306e-07
1.49116e-05
-6.80035e-07
1.50096e-05
-8.09723e-07
-1.62498e-06
1.57115e-05
1.27613e-05
-5.72409e-07
1.32144e-05
-7.79242e-07
1.34911e-05
-5.85851e-07
1.36433e-05
-4.35759e-07
1.37448e-05
-5.18445e-08
1.38993e-05
-3.3467e-07
1.40168e-05
-1.72489e-07
1.41362e-05
-2.67097e-07
1.42378e-05
-4.48319e-07
1.42871e-05
-9.28597e-08
1.44047e-05
-4.15451e-08
1.44934e-05
-1.94575e-07
1.4529e-05
-2.10276e-07
1.45955e-05
-3.09293e-07
1.47238e-05
-4.37811e-07
1.4743e-05
-4.92508e-07
1.48634e-05
-5.9274e-07
1.48851e-05
-7.01685e-07
1.49512e-05
-8.75816e-07
-8.01513e-07
1.41277e-05
1.27687e-05
-8.41125e-07
1.32139e-05
-1.22445e-06
1.3519e-05
-8.90907e-07
1.36658e-05
-5.82561e-07
1.37392e-05
-1.2527e-07
1.38979e-05
-4.93402e-07
1.40378e-05
-3.12321e-07
1.41595e-05
-3.88814e-07
1.4252e-05
-5.40813e-07
1.43048e-05
-1.45674e-07
1.44056e-05
-1.42353e-07
1.45008e-05
-2.89733e-07
1.45235e-05
-2.33016e-07
1.46394e-05
-4.25149e-07
1.4719e-05
-5.17418e-07
1.4772e-05
-5.45514e-07
1.48494e-05
-6.7012e-07
1.49325e-05
-7.84826e-07
1.51553e-05
-1.09857e-06
-1.15088e-06
1.55046e-05
1.27807e-05
-1.12178e-06
1.3241e-05
-1.68483e-06
1.35535e-05
-1.20338e-06
1.36603e-05
-6.89389e-07
1.37437e-05
-2.08654e-07
1.39275e-05
-6.77144e-07
1.40624e-05
-4.47285e-07
1.41755e-05
-5.01842e-07
1.42679e-05
-6.33228e-07
1.43168e-05
-1.94585e-07
1.44154e-05
-2.40979e-07
1.45198e-05
-3.94133e-07
1.45579e-05
-2.71062e-07
1.46696e-05
-5.36854e-07
1.47153e-05
-5.63179e-07
1.47939e-05
-6.24074e-07
1.48473e-05
-7.23569e-07
1.5003e-05
-9.40496e-07
1.51237e-05
-1.21931e-06
-1.28702e-06
1.52599e-05
1.28063e-05
-1.4281e-06
1.32814e-05
-2.15994e-06
1.35706e-05
-1.49254e-06
1.36522e-05
-7.7098e-07
1.37772e-05
-3.33694e-07
1.39649e-05
-8.64762e-07
1.40822e-05
-5.64588e-07
1.41952e-05
-6.14855e-07
1.42919e-05
-7.29952e-07
1.4348e-05
-2.50699e-07
1.44384e-05
-3.31355e-07
1.45504e-05
-5.06142e-07
1.45919e-05
-3.12573e-07
1.46789e-05
-6.23879e-07
1.47274e-05
-6.11636e-07
1.48167e-05
-7.13354e-07
1.48838e-05
-7.90748e-07
1.5032e-05
-1.08861e-06
1.50948e-05
-1.28216e-06
-1.51663e-06
1.53244e-05
1.28443e-05
-1.77243e-06
1.33125e-05
-2.6281e-06
1.35764e-05
-1.75649e-06
1.36725e-05
-8.67076e-07
1.38264e-05
-4.87566e-07
1.39937e-05
-1.03207e-06
1.41183e-05
-6.89172e-07
1.42292e-05
-7.25744e-07
1.43223e-05
-8.23058e-07
1.43867e-05
-3.15064e-07
1.44685e-05
-4.13247e-07
1.45726e-05
-6.10155e-07
1.46226e-05
-3.62613e-07
1.46977e-05
-6.99025e-07
1.47736e-05
-6.87541e-07
1.48448e-05
-7.84498e-07
1.49439e-05
-8.89883e-07
1.50208e-05
-1.16544e-06
1.51016e-05
-1.36299e-06
-1.98491e-06
1.55699e-05
1.28853e-05
-2.15776e-06
1.33404e-05
-3.08316e-06
1.35942e-05
-2.01033e-06
1.37168e-05
-9.89617e-07
1.38739e-05
-6.4464e-07
1.40328e-05
-1.19101e-06
1.41725e-05
-8.28908e-07
1.426e-05
-8.13225e-07
1.43504e-05
-9.13449e-07
1.44253e-05
-3.89965e-07
1.45022e-05
-4.90156e-07
1.46082e-05
-7.16097e-07
1.46719e-05
-4.26371e-07
1.47418e-05
-7.68922e-07
1.48233e-05
-7.6902e-07
1.48844e-05
-8.45613e-07
1.49816e-05
-9.87064e-07
1.50084e-05
-1.19229e-06
1.49974e-05
-1.35194e-06
-1.1009e-06
1.41134e-05
1.29291e-05
-2.58686e-06
1.33824e-05
-3.53647e-06
1.35995e-05
-2.22746e-06
1.37645e-05
-1.15459e-06
1.39276e-05
-8.07708e-07
1.40855e-05
-1.34895e-06
1.42175e-05
-9.60855e-07
1.42855e-05
-8.81263e-07
1.43836e-05
-1.0116e-06
1.44761e-05
-4.82397e-07
1.45485e-05
-5.62544e-07
1.46729e-05
-8.40556e-07
1.47248e-05
-4.78241e-07
1.4801e-05
-8.45102e-07
1.48501e-05
-8.1814e-07
1.49329e-05
-9.28463e-07
1.4982e-05
-1.03612e-06
1.50644e-05
-1.27464e-06
1.52232e-05
-1.5108e-06
-1.63582e-06
1.57581e-05
1.29804e-05
-3.06729e-06
1.34367e-05
-3.99274e-06
1.36189e-05
-2.40962e-06
1.38109e-05
-1.34661e-06
1.39871e-05
-9.83913e-07
1.41324e-05
-1.49425e-06
1.4255e-05
-1.08343e-06
1.43165e-05
-9.42741e-07
1.44364e-05
-1.13155e-06
1.45363e-05
-5.82279e-07
1.4618e-05
-6.44232e-07
1.47338e-05
-9.56414e-07
1.47854e-05
-5.29789e-07
1.48462e-05
-9.05879e-07
1.48912e-05
-8.63202e-07
1.49696e-05
-1.00687e-06
1.49958e-05
-1.06233e-06
1.51473e-05
-1.42613e-06
1.52779e-05
-1.6414e-06
-1.99024e-06
1.56323e-05
1.30361e-05
-3.6034e-06
1.34982e-05
-4.45489e-06
1.36676e-05
-2.57901e-06
1.38599e-05
-1.53886e-06
1.40409e-05
-1.16488e-06
1.41796e-05
-1.63301e-06
1.43033e-05
-1.20708e-06
1.4371e-05
-1.01046e-06
1.45097e-05
-1.27031e-06
1.46044e-05
-6.76976e-07
1.4694e-05
-7.33772e-07
1.47879e-05
-1.0503e-06
1.48463e-05
-5.88238e-07
1.4887e-05
-9.46609e-07
1.49474e-05
-9.23541e-07
1.50069e-05
-1.06644e-06
1.50473e-05
-1.1027e-06
1.51882e-05
-1.56701e-06
1.5288e-05
-1.7412e-06
-2.317e-06
1.56148e-05
1.30943e-05
-4.19769e-06
1.35747e-05
-4.93534e-06
1.37285e-05
-2.73279e-06
1.39048e-05
-1.71512e-06
1.41021e-05
-1.36214e-06
1.42528e-05
-1.78378e-06
1.43674e-05
-1.32161e-06
1.4456e-05
-1.09908e-06
1.45922e-05
-1.4065e-06
1.46744e-05
-7.59215e-07
1.47639e-05
-8.23244e-07
1.48374e-05
-1.1238e-06
1.48984e-05
-6.49291e-07
1.49283e-05
-9.76462e-07
1.4996e-05
-9.91219e-07
1.50344e-05
-1.10485e-06
1.50752e-05
-1.14355e-06
1.51488e-05
-1.64053e-06
1.52052e-05
-1.79762e-06
-2.59337e-06
1.54815e-05
1.31695e-05
-4.86717e-06
1.36576e-05
-5.42347e-06
1.37827e-05
-2.85784e-06
1.39569e-05
-1.88932e-06
1.41991e-05
-1.60436e-06
1.43464e-05
-1.93108e-06
1.44468e-05
-1.422e-06
1.45613e-05
-1.21363e-06
1.46549e-05
-1.50012e-06
1.47282e-05
-8.32518e-07
1.48082e-05
-9.03217e-07
1.48433e-05
-1.15885e-06
1.48922e-05
-6.98214e-07
1.48971e-05
-9.81413e-07
1.49246e-05
-1.01871e-06
1.49098e-05
-1.09e-06
1.48994e-05
-1.13321e-06
1.48494e-05
-1.59049e-06
1.47999e-05
-1.74815e-06
-2.79307e-06
1.49996e-05
1.32612e-05
-5.62839e-06
1.37179e-05
-5.88018e-06
1.38382e-05
-2.97813e-06
1.40551e-05
-2.10617e-06
1.43294e-05
-1.87868e-06
1.44319e-05
-2.03363e-06
1.45181e-05
-1.50814e-06
1.46134e-05
-1.30899e-06
1.46174e-05
-1.50403e-06
1.46581e-05
-8.73211e-07
1.4674e-05
-9.19193e-07
1.46206e-05
-1.1054e-06
1.46144e-05
-6.92031e-07
1.45472e-05
-9.14206e-07
1.44827e-05
-9.54257e-07
1.43899e-05
-9.97144e-07
1.42973e-05
-1.0406e-06
1.41293e-05
-1.42257e-06
1.39333e-05
-1.5521e-06
-1.97564e-06
1.31159e-05
1.33628e-05
-6.49119e-06
1.37098e-05
-6.22715e-06
1.39339e-05
-3.20222e-06
1.41897e-05
-2.36202e-06
1.43984e-05
-2.08734e-06
1.43925e-05
-2.0278e-06
1.43913e-05
-1.50694e-06
1.43627e-05
-1.28035e-06
1.42239e-05
-1.36526e-06
1.41687e-05
-8.18005e-07
1.40692e-05
-8.19709e-07
1.39137e-05
-9.49891e-07
1.38343e-05
-6.12663e-07
1.36939e-05
-7.73739e-07
1.35517e-05
-8.12094e-07
1.34038e-05
-8.49267e-07
1.32458e-05
-8.82616e-07
1.30144e-05
-1.1911e-06
1.27898e-05
-1.3275e-06
-1.90039e-06
1.27145e-05
1.34847e-05
-7.47589e-06
1.37634e-05
-6.50584e-06
1.39891e-05
-3.42791e-06
1.41292e-05
-2.50218e-06
1.40966e-05
-2.05471e-06
1.38789e-05
-1.8101e-06
1.36932e-05
-1.32125e-06
1.34923e-05
-1.07942e-06
1.32262e-05
-1.09911e-06
1.30784e-05
-6.70258e-07
1.28966e-05
-6.37931e-07
1.26875e-05
-7.40722e-07
1.25645e-05
-4.89649e-07
1.23871e-05
-5.96424e-07
1.22095e-05
-6.34448e-07
1.20336e-05
-6.73393e-07
1.18429e-05
-6.91864e-07
1.15835e-05
-9.31785e-07
1.1306e-05
-1.04992e-06
-1.31951e-06
1.07251e-05
1.35913e-05
-8.56721e-06
1.36647e-05
-6.57922e-06
1.36149e-05
-3.37807e-06
1.33958e-05
-2.28308e-06
1.30307e-05
-1.68964e-06
1.26045e-05
-1.38392e-06
1.22756e-05
-9.92308e-07
1.19748e-05
-7.78686e-07
1.16601e-05
-7.84421e-07
1.1473e-05
-4.83135e-07
1.12663e-05
-4.31184e-07
1.10506e-05
-5.25019e-07
1.09129e-05
-3.51929e-07
1.07289e-05
-4.12472e-07
1.05457e-05
-4.51243e-07
1.03619e-05
-4.89557e-07
1.01635e-05
-4.93493e-07
9.89746e-06
-6.65759e-07
9.61789e-06
-7.70348e-07
-8.87706e-07
9.18608e-06
1.34116e-05
-9.47879e-06
1.28912e-05
-6.0588e-06
1.23196e-05
-2.80648e-06
1.1715e-05
-1.67854e-06
1.11429e-05
-1.11753e-06
1.06407e-05
-8.81716e-07
1.02754e-05
-6.27018e-07
9.96554e-06
-4.68783e-07
9.66621e-06
-4.85093e-07
9.48168e-06
-2.98603e-07
9.29229e-06
-2.41789e-07
9.09728e-06
-3.30016e-07
8.96491e-06
-2.19557e-07
8.79782e-06
-2.45386e-07
8.62887e-06
-2.82293e-07
8.45404e-06
-3.14726e-07
8.2668e-06
-3.06246e-07
8.02076e-06
-4.19724e-07
7.74983e-06
-4.99417e-07
-5.43659e-07
7.40578e-06
1.24242e-05
-9.40303e-06
1.10054e-05
-4.63994e-06
9.97613e-06
-1.77723e-06
9.20157e-06
-9.03983e-07
8.6263e-06
-5.42264e-07
8.17577e-06
-4.31182e-07
7.85618e-06
-3.07427e-07
7.59979e-06
-2.12396e-07
7.35398e-06
-2.39275e-07
7.20048e-06
-1.4511e-07
7.05647e-06
-9.77793e-08
6.89641e-06
-1.69958e-07
6.78521e-06
-1.08358e-07
6.65276e-06
-1.12936e-07
6.51201e-06
-1.41539e-07
6.36091e-06
-1.6363e-07
6.20368e-06
-1.4902e-07
5.99662e-06
-2.12658e-07
5.75426e-06
-2.57056e-07
-2.62794e-07
5.47339e-06
1.01098e-05
-7.01282e-06
7.83127e-06
-2.36143e-06
6.70771e-06
-6.53669e-07
6.06109e-06
-2.57364e-07
5.65278e-06
-1.33952e-07
5.33862e-06
-1.17021e-07
5.11717e-06
-8.59741e-08
4.95252e-06
-4.7745e-08
4.78238e-06
-6.91351e-08
4.6788e-06
-4.15339e-08
4.59579e-06
-1.4774e-08
4.47941e-06
-5.35725e-08
4.40289e-06
-3.18398e-08
4.31688e-06
-2.69316e-08
4.21659e-06
-4.12442e-08
4.10439e-06
-5.14352e-08
3.99574e-06
-4.03685e-08
3.84545e-06
-6.23693e-08
3.66412e-06
-7.57253e-08
-7.56268e-08
3.47696e-06
5.48718e-06
3.12576e-06
2.47209e-06
2.21472e-06
2.08077e-06
1.96375e-06
1.87778e-06
1.83003e-06
1.7609e-06
1.71936e-06
1.70459e-06
1.65101e-06
1.61918e-06
1.59224e-06
1.551e-06
1.49956e-06
1.4592e-06
1.39683e-06
1.3211e-06
1.24547e-06
2.1567e-06
2.63292e-07
-5.76501e-07
1.98042e-06
2.8768e-07
-1.11394e-07
1.87222e-06
3.49958e-07
-2.41757e-07
2.31618e-06
1.37761e-06
-1.82157e-06
3.23707e-06
1.42083e-06
-2.34171e-06
4.75053e-06
7.07426e-07
-2.22089e-06
6.52022e-06
2.75527e-06
-4.52495e-06
8.13369e-06
5.36538e-06
-6.97885e-06
9.20028e-06
5.52373e-06
-6.59032e-06
9.8053e-06
4.92683e-06
-5.53185e-06
1.05784e-05
3.328e-06
-4.10111e-06
1.13085e-05
1.64214e-06
-2.37223e-06
1.18672e-05
8.82622e-07
-1.44127e-06
1.23589e-05
-3.25591e-07
-1.66161e-07
1.25495e-05
-1.47811e-06
1.28753e-06
1.27886e-05
-2.64744e-06
2.40829e-06
1.30875e-05
-4.13452e-06
3.83563e-06
1.32094e-05
-5.55357e-06
5.43164e-06
1.33094e-05
-6.61386e-06
6.51393e-06
1.35544e-05
-8.18664e-06
7.94158e-06
1.40806e-05
-1.0482e-05
9.95587e-06
1.4783e-05
-1.27128e-05
1.20104e-05
1.55966e-05
-1.49386e-05
1.41249e-05
1.63054e-05
-1.68331e-05
1.61242e-05
1.65273e-05
-1.81358e-05
1.7914e-05
1.63696e-05
-1.893e-05
1.90876e-05
1.59868e-05
-1.95145e-05
1.98973e-05
1.55449e-05
-1.96148e-05
2.00566e-05
1.52079e-05
-1.93821e-05
1.97192e-05
1.49956e-05
-1.95884e-05
1.98006e-05
1.49424e-05
-1.92696e-05
1.93228e-05
1.49838e-05
-1.87877e-05
1.87462e-05
1.50389e-05
-1.84606e-05
1.84056e-05
1.50788e-05
-1.75847e-05
1.75449e-05
1.51214e-05
-1.66335e-05
1.65908e-05
1.52344e-05
-1.52265e-05
1.51136e-05
1.53009e-05
-1.37734e-05
1.37069e-05
1.52286e-05
-1.18707e-05
1.19429e-05
1.51361e-05
-9.82175e-06
9.91432e-06
1.48437e-05
-7.25699e-06
7.54932e-06
1.43019e-05
-5.07889e-06
5.6207e-06
1.36727e-05
-2.74375e-06
3.37298e-06
1.29518e-05
-5.61719e-07
1.28263e-06
1.22082e-05
1.03806e-06
-2.94494e-07
1.14523e-05
2.50082e-06
-1.74489e-06
1.05981e-05
3.48973e-06
-2.63555e-06
9.89016e-06
3.68635e-06
-2.97839e-06
9.3553e-06
4.30441e-06
-3.76955e-06
8.77691e-06
4.83818e-06
-4.2598e-06
8.25554e-06
4.47281e-06
-3.95144e-06
7.91746e-06
4.21528e-06
-3.8772e-06
7.68536e-06
5.16273e-06
-4.93063e-06
7.21248e-06
6.73661e-06
-6.26374e-06
6.42442e-06
5.96211e-06
-5.17405e-06
6.01153e-06
3.54003e-06
-3.12714e-06
6.36346e-06
4.07301e-06
-4.42495e-06
7.06578e-06
8.13147e-06
-8.83379e-06
7.73087e-06
1.32245e-05
-1.38896e-05
7.90188e-06
1.6572e-05
-1.6743e-05
7.59427e-06
1.74392e-05
-1.71316e-05
7.41277e-06
1.74109e-05
-1.72294e-05
7.62938e-06
1.77021e-05
-1.79187e-05
7.98288e-06
1.88472e-05
-1.92007e-05
8.2519e-06
2.03575e-05
-2.06265e-05
8.50059e-06
2.14291e-05
-2.16777e-05
8.66778e-06
2.18708e-05
-2.2038e-05
8.62149e-06
2.25684e-05
-2.25221e-05
8.56889e-06
2.29347e-05
-2.28821e-05
8.60488e-06
2.11466e-05
-2.11826e-05
8.57459e-06
1.78209e-05
-1.77906e-05
8.56947e-06
1.42779e-05
-1.42728e-05
8.68997e-06
1.01974e-05
-1.03179e-05
8.75422e-06
5.38882e-06
-5.45307e-06
8.65863e-06
-2.92855e-07
3.88438e-07
8.56842e-06
-6.09837e-06
6.18859e-06
8.54819e-06
-1.06655e-05
1.06857e-05
8.43617e-06
-1.46276e-05
1.47397e-05
8.35574e-06
-1.85684e-05
1.86488e-05
8.33692e-06
-2.0233e-05
2.02518e-05
8.12233e-06
-2.10266e-05
2.12412e-05
7.66977e-06
-2.48016e-05
2.52542e-05
7.33605e-06
-2.95252e-05
2.98589e-05
7.14768e-06
-3.00713e-05
3.02597e-05
7.04107e-06
-2.62844e-05
2.63911e-05
6.87087e-06
-2.25277e-05
2.26979e-05
6.69482e-06
-2.20678e-05
2.22438e-05
6.75929e-06
-2.26724e-05
2.2608e-05
6.90158e-06
-2.46263e-05
2.4484e-05
7.03697e-06
-2.68004e-05
2.66651e-05
7.19822e-06
-2.71454e-05
2.69842e-05
7.21036e-06
-2.73814e-05
2.73693e-05
7.31409e-06
-2.72971e-05
2.71934e-05
7.47008e-06
-2.61339e-05
2.59779e-05
7.53582e-06
-2.63309e-05
2.62651e-05
7.75596e-06
-2.55168e-05
2.52967e-05
7.86772e-06
-2.12649e-05
2.11531e-05
7.63083e-06
-1.71725e-05
1.74094e-05
7.44613e-06
-1.36146e-05
1.37993e-05
7.64649e-06
-8.91052e-06
8.71016e-06
7.9932e-06
-4.18205e-06
3.83534e-06
8.19945e-06
7.7382e-07
-9.80066e-07
8.37927e-06
6.23073e-06
-6.41055e-06
8.49864e-06
9.40439e-06
-9.52377e-06
8.54864e-06
1.07817e-05
-1.08317e-05
8.67768e-06
1.41379e-05
-1.42669e-05
8.86352e-06
1.95096e-05
-1.96955e-05
8.9169e-06
2.30064e-05
-2.30598e-05
8.94351e-06
2.31214e-05
-2.3148e-05
9.18169e-06
2.22506e-05
-2.24887e-05
9.75651e-06
2.24819e-05
-2.30567e-05
1.03834e-05
2.40493e-05
-2.46762e-05
1.0723e-05
2.56649e-05
-2.60044e-05
1.06651e-05
2.5346e-05
-2.52881e-05
1.0362e-05
2.32929e-05
-2.29898e-05
9.84615e-06
2.16704e-05
-2.11545e-05
9.01792e-06
1.94958e-05
-1.86675e-05
7.67896e-06
1.5555e-05
-1.4216e-05
5.99159e-06
1.02941e-05
-8.60673e-06
4.93739e-06
5.60805e-06
-4.55385e-06
4.56345e-06
5.97863e-06
-5.60469e-06
4.20461e-06
1.34343e-05
-1.30755e-05
4.12304e-06
2.30161e-05
-2.29345e-05
4.91864e-06
2.7367e-05
-2.81626e-05
5.73822e-06
2.67141e-05
-2.75337e-05
6.36506e-06
2.40337e-05
-2.46605e-05
7.1697e-06
2.04325e-05
-2.12371e-05
7.90632e-06
1.6385e-05
-1.71216e-05
8.63557e-06
1.399e-05
-1.47192e-05
9.364e-06
1.11223e-05
-1.18507e-05
1.00173e-05
7.31697e-06
-7.97027e-06
1.06207e-05
3.06003e-06
-3.66344e-06
1.12115e-05
-1.45588e-06
8.65068e-07
1.18265e-05
-4.11234e-06
3.49736e-06
1.22617e-05
-5.18188e-06
4.74663e-06
1.2554e-05
-8.06685e-06
7.7746e-06
1.27635e-05
-1.16349e-05
1.14254e-05
1.2861e-05
-1.22119e-05
1.21143e-05
1.26408e-05
-1.21804e-05
1.24006e-05
1.23265e-05
-1.3639e-05
1.39533e-05
1.19931e-05
-1.34856e-05
1.3819e-05
1.14471e-05
-1.28073e-05
1.33532e-05
1.07917e-05
-1.33959e-05
1.40513e-05
1.02797e-05
-1.23659e-05
1.28779e-05
9.79123e-06
-1.1233e-05
1.17214e-05
9.24216e-06
-1.26571e-05
1.32061e-05
8.90075e-06
-1.47161e-05
1.50575e-05
8.52449e-06
-1.52722e-05
1.56485e-05
8.25229e-06
-1.568e-05
1.59522e-05
7.67326e-06
-1.64153e-05
1.69943e-05
7.49277e-06
-1.35144e-05
1.36949e-05
6.9903e-06
-1.34212e-05
1.39236e-05
6.65018e-06
-7.8574e-06
8.19752e-06
6.39692e-06
-1.03977e-05
1.06509e-05
6.11347e-06
-9.70847e-06
9.99192e-06
6.15038e-06
-1.36482e-05
1.36113e-05
5.99679e-06
-1.28546e-05
1.30082e-05
5.26746e-06
-1.40246e-05
1.4754e-05
4.97615e-06
-1.18415e-05
1.21329e-05
6.01946e-06
-1.65616e-05
1.55183e-05
5.96126e-06
-1.15696e-05
1.16278e-05
7.16747e-06
-1.31361e-05
1.19299e-05
7.9921e-06
-1.19533e-05
1.11286e-05
8.26489e-06
-1.08785e-05
1.06057e-05
8.38323e-06
-1.14551e-05
1.13367e-05
8.60882e-06
-1.1315e-05
1.10895e-05
9.02478e-06
-7.82207e-06
7.4061e-06
9.42437e-06
-4.26578e-06
3.86619e-06
9.64069e-06
-1.13413e-06
9.17811e-07
1.01201e-05
-5.27988e-08
-4.26582e-07
1.07931e-05
2.76056e-06
-3.43356e-06
1.12335e-05
4.26411e-06
-4.70451e-06
1.138e-05
6.1706e-06
-6.31718e-06
1.12282e-05
8.47174e-06
-8.31993e-06
1.09449e-05
9.75341e-06
-9.47006e-06
1.0321e-05
1.18433e-05
-1.12194e-05
9.69913e-06
1.26685e-05
-1.20466e-05
9.21386e-06
1.20784e-05
-1.15931e-05
8.83964e-06
1.23361e-05
-1.19619e-05
8.65158e-06
1.28579e-05
-1.26698e-05
8.31168e-06
1.33388e-05
-1.29989e-05
7.92501e-06
1.42074e-05
-1.38207e-05
7.64482e-06
1.45138e-05
-1.42336e-05
7.05691e-06
1.28905e-05
-1.23026e-05
6.74775e-06
1.21182e-05
-1.18091e-05
6.39748e-06
1.32962e-05
-1.29459e-05
6.18459e-06
1.369e-05
-1.34771e-05
6.5279e-06
1.78582e-05
-1.82015e-05
6.86346e-06
2.2899e-05
-2.32346e-05
6.73388e-06
2.45309e-05
-2.44013e-05
6.31596e-06
2.28861e-05
-2.24682e-05
6.45344e-06
2.29617e-05
-2.30991e-05
6.63132e-06
2.30955e-05
-2.32733e-05
6.41233e-06
2.3077e-05
-2.2858e-05
6.03095e-06
2.17004e-05
-2.1319e-05
5.72138e-06
1.55308e-05
-1.52213e-05
5.06479e-06
1.33296e-05
-1.2673e-05
4.02041e-06
1.10969e-05
-1.00525e-05
3.33033e-06
9.30362e-06
-8.61354e-06
2.60948e-06
8.35047e-06
-7.62962e-06
5.70538e-06
-5.56305e-06
2.46715e-06
4.15564e-06
1.47756e-07
4.00792e-06
4.35401e-07
3.9144e-06
4.4348e-07
4.45529e-06
8.36714e-07
4.82073e-06
1.05538e-06
4.89321e-06
6.3495e-07
6.0521e-06
1.59637e-06
7.68828e-06
3.7292e-06
8.55582e-06
4.65619e-06
9.12577e-06
4.35688e-06
1.0002e-05
2.45176e-06
1.07773e-05
8.66812e-07
1.13593e-05
3.00634e-07
1.17913e-05
-7.57599e-07
1.19958e-05
-1.6826e-06
1.23244e-05
-2.976e-06
1.26691e-05
-4.4792e-06
1.29939e-05
-5.87837e-06
1.34463e-05
-7.06624e-06
1.41247e-05
-8.86507e-06
1.51138e-05
-1.14711e-05
1.59603e-05
-1.35594e-05
1.64824e-05
-1.54606e-05
1.67662e-05
-1.71168e-05
1.66121e-05
-1.79817e-05
1.62298e-05
-1.85477e-05
1.57585e-05
-1.90432e-05
1.53387e-05
-1.91949e-05
1.50473e-05
-1.90907e-05
1.49225e-05
-1.94636e-05
1.49167e-05
-1.92638e-05
1.49892e-05
-1.88602e-05
1.5062e-05
-1.85335e-05
1.51191e-05
-1.76418e-05
1.52933e-05
-1.68076e-05
1.54788e-05
-1.5412e-05
1.56762e-05
-1.39708e-05
1.56889e-05
-1.18834e-05
1.55576e-05
-9.69045e-06
1.52906e-05
-6.98995e-06
1.47337e-05
-4.52205e-06
1.40234e-05
-2.03335e-06
1.32022e-05
2.59392e-07
1.23474e-05
1.89287e-06
1.16001e-05
3.24816e-06
1.08099e-05
4.27989e-06
1.00871e-05
4.40923e-06
9.52255e-06
4.86892e-06
8.89907e-06
5.46166e-06
8.2984e-06
5.07348e-06
7.90336e-06
4.61033e-06
7.72352e-06
5.34257e-06
7.37653e-06
7.0836e-06
6.58773e-06
6.75091e-06
6.00674e-06
4.12102e-06
6.28592e-06
3.79383e-06
7.04812e-06
7.36927e-06
7.83574e-06
1.24369e-05
8.18898e-06
1.62188e-05
8.00096e-06
1.76272e-05
7.75131e-06
1.76606e-05
7.84864e-06
1.76048e-05
8.21128e-06
1.84845e-05
8.58742e-06
1.99814e-05
8.9383e-06
2.10782e-05
9.16166e-06
2.16475e-05
9.18383e-06
2.25462e-05
9.21961e-06
2.28989e-05
9.29918e-06
2.1067e-05
9.29872e-06
1.78214e-05
9.37623e-06
1.42004e-05
9.55276e-06
1.00209e-05
9.64817e-06
5.29341e-06
9.51342e-06
-1.58099e-07
9.32186e-06
-5.90682e-06
9.20693e-06
-1.05505e-05
9.02408e-06
-1.44448e-05
8.85831e-06
-1.84026e-05
8.77786e-06
-2.01526e-05
8.53417e-06
-2.07829e-05
8.06528e-06
-2.43327e-05
7.67891e-06
-2.91388e-05
7.42643e-06
-2.98188e-05
7.22541e-06
-2.60834e-05
6.97091e-06
-2.22732e-05
6.70914e-06
-2.1806e-05
6.70642e-06
-2.26697e-05
6.74126e-06
-2.46611e-05
6.8011e-06
-2.68603e-05
6.90248e-06
-2.72468e-05
6.85019e-06
-2.73291e-05
6.90372e-06
-2.73506e-05
7.02691e-06
-2.62571e-05
7.00344e-06
-2.63074e-05
7.1542e-06
-2.56676e-05
7.24525e-06
-2.13559e-05
6.93833e-06
-1.68656e-05
6.69775e-06
-1.33741e-05
6.86965e-06
-9.08241e-06
7.20288e-06
-4.51529e-06
7.4143e-06
5.62401e-07
7.63925e-06
6.00579e-06
7.84443e-06
9.19921e-06
7.95954e-06
1.06666e-05
8.07994e-06
1.40175e-05
8.26764e-06