/*--------------------------------*- C++ -*----------------------------------*\
| =========                 |                                                 |
| \\      /  F ield         | OpenFOAM: The Open Source CFD Toolbox           |
|  \\    /   O peration     | Version:  2.4.0                                 |
|   \\  /    A nd           | Web:      www.OpenFOAM.org                      |
|    \\/     M anipulation  |                                                 |
\*---------------------------------------------------------------------------*/
FoamFile
{
    version     2.0;
    format      ascii;
    class       volVectorField;
    location    "0.138";
    object      UMean;
}
// * * * * * * * * * * * * * * * * * * * * * * * * * * * * * * * * * * * * * //

dimensions      [0 1 -1 0 0 0 0];

internalField   nonuniform List<vector> 
17600
(
(5.34698 0.307322 0)
(3.04468 0.060763 0)
(2.27008 -0.00140243 0)
(1.92781 -0.00351814 0)
(1.79325 -0.00133105 0)
(1.70205 -0.000180651 0)
(1.64019 -7.66436e-06 0)
(1.58206 -2.51519e-05 0)
(1.55016 -0.000140988 0)
(1.5138 -1.14684e-05 0)
(1.49839 -8.40942e-05 0)
(1.47033 0.000127459 0)
(1.46092 -7.50798e-05 0)
(1.4367 0.000134668 0)
(1.43327 -0.000216858 0)
(1.41671 -1.53267e-05 0)
(1.41958 -0.000389644 0)
(1.42607 -0.000266655 0)
(1.45036 -0.00147301 0)
(1.429 -0.0228812 0)
(8.59332 0.864069 0)
(6.9962 0.378657 0)
(5.89288 0.11935 0)
(5.1508 0.0494294 0)
(4.76596 0.026721 0)
(4.4998 0.0189812 0)
(4.32908 0.0145931 0)
(4.16792 0.0110948 0)
(4.0782 0.00812391 0)
(3.97266 0.00658269 0)
(3.92836 0.00507483 0)
(3.84795 0.00508646 0)
(3.82327 0.00373928 0)
(3.75445 0.00415593 0)
(3.74481 0.00183789 0)
(3.69343 0.00286036 0)
(3.69482 -0.00134443 0)
(3.69613 -0.0017053 0)
(3.69654 -0.00322886 0)
(3.85218 -0.0838132 0)
(9.8339 1.01125 0)
(9.36116 0.568097 0)
(8.53436 0.235592 0)
(7.71338 0.126134 0)
(7.19277 0.0778189 0)
(6.80241 0.0537965 0)
(6.55395 0.0404186 0)
(6.31248 0.0307907 0)
(6.17885 0.0232899 0)
(6.01469 0.0186227 0)
(5.9475 0.0147301 0)
(5.82139 0.0136014 0)
(5.78618 0.0108103 0)
(5.6776 0.0106257 0)
(5.66554 0.00639762 0)
(5.57845 0.00699574 0)
(5.5858 -0.000663518 0)
(5.55272 -0.00113246 0)
(5.57879 -0.0156229 0)
(5.68885 -0.103853 0)
(10.1335 0.93712 0)
(10.5556 0.65612 0)
(10.2851 0.321397 0)
(9.67185 0.203339 0)
(9.18338 0.140735 0)
(8.75076 0.100446 0)
(8.47252 0.0756449 0)
(8.17845 0.0578248 0)
(8.02063 0.0444101 0)
(7.81123 0.0355369 0)
(7.72995 0.0283032 0)
(7.56556 0.0258044 0)
(7.52533 0.0205638 0)
(7.38159 0.0204703 0)
(7.37178 0.0124647 0)
(7.24836 0.0150712 0)
(7.27033 -0.000485318 0)
(7.18357 0.00411626 0)
(7.26094 -0.0332919 0)
(7.24883 -0.0983634 0)
(10.0549 0.797376 0)
(10.8935 0.656789 0)
(11.1336 0.346416 0)
(10.8814 0.247576 0)
(10.6019 0.193643 0)
(10.2446 0.147582 0)
(10.0131 0.114277 0)
(9.71462 0.0885906 0)
(9.56605 0.069233 0)
(9.33474 0.0555002 0)
(9.25628 0.0450003 0)
(9.06628 0.0397591 0)
(9.03141 0.0332833 0)
(8.85964 0.0304987 0)
(8.86048 0.0227972 0)
(8.7049 0.0200301 0)
(8.7408 0.00949719 0)
(8.62322 -0.00231966 0)
(8.6924 -0.0207681 0)
(8.66906 -0.141473 0)
(9.9776 0.684672 0)
(10.8258 0.624307 0)
(11.3064 0.324091 0)
(11.3325 0.243574 0)
(11.3267 0.213522 0)
(11.1464 0.177655 0)
(11.0556 0.144721 0)
(10.8259 0.116261 0)
(10.7376 0.0930309 0)
(10.5242 0.0761182 0)
(10.4736 0.0619085 0)
(10.2827 0.0554855 0)
(10.2647 0.0453266 0)
(10.0852 0.0438566 0)
(10.0978 0.0294831 0)
(9.93206 0.0331512 0)
(9.97404 0.00611888 0)
(9.84452 0.0159299 0)
(9.90704 -0.0452495 0)
(9.85495 -0.11538 0)
(9.96987 0.596238 0)
(10.6961 0.591915 0)
(11.2305 0.295384 0)
(11.3377 0.214237 0)
(11.4896 0.200534 0)
(11.4515 0.180419 0)
(11.5251 0.154858 0)
(11.4143 0.129185 0)
(11.4393 0.107336 0)
(11.2939 0.0900142 0)
(11.3106 0.0758914 0)
(11.1524 0.0674943 0)
(11.1769 0.0585077 0)
(11.0103 0.0528119 0)
(11.0524 0.0423174 0)
(10.888 0.0365311 0)
(10.9523 0.0193168 0)
(10.8119 0.00928944 0)
(10.8916 -0.0359508 0)
(10.8003 -0.110163 0)
(9.9893 0.517703 0)
(10.5919 0.556702 0)
(11.134 0.277524 0)
(11.2466 0.188064 0)
(11.4388 0.178419 0)
(11.438 0.169162 0)
(11.5885 0.148993 0)
(11.556 0.127017 0)
(11.6727 0.106617 0)
(11.6106 0.0925601 0)
(11.7052 0.0788334 0)
(11.6177 0.0734074 0)
(11.6974 0.0625467 0)
(11.5874 0.0610415 0)
(11.6615 0.0446886 0)
(11.542 0.0468592 0)
(11.6197 0.0162758 0)
(11.5114 0.020324 0)
(11.5921 -0.0467193 0)
(11.4973 -0.0848337 0)
(10.0064 0.447477 0)
(10.5159 0.513807 0)
(11.0481 0.264175 0)
(11.1763 0.165928 0)
(11.3661 0.15685 0)
(11.3746 0.155459 0)
(11.524 0.138605 0)
(11.522 0.118755 0)
(11.6534 0.0985975 0)
(11.6429 0.0861486 0)
(11.7622 0.0737203 0)
(11.7408 0.0697802 0)
(11.847 0.06034 0)
(11.8106 0.0594418 0)
(11.9041 0.0441968 0)
(11.8589 0.0463783 0)
(11.9438 0.0150316 0)
(11.9006 0.0202886 0)
(11.9762 -0.0573481 0)
(11.9138 -0.0811976 0)
(10.0047 0.384486 0)
(10.4667 0.467542 0)
(10.9607 0.252078 0)
(11.1322 0.145367 0)
(11.2962 0.136383 0)
(11.333 0.141773 0)
(11.4483 0.12765 0)
(11.4783 0.110071 0)
(11.5795 0.0891891 0)
(11.6081 0.0780751 0)
(11.7004 0.0658509 0)
(11.7269 0.0630069 0)
(11.8096 0.0540854 0)
(11.8318 0.0534464 0)
(11.9046 0.0394873 0)
(11.9264 0.0390081 0)
(11.993 0.0130815 0)
(12.0154 0.00243963 0)
(12.0719 -0.0540877 0)
(12.0465 -0.140737 0)
(9.98683 0.326865 0)
(10.4322 0.421806 0)
(10.877 0.239742 0)
(11.0963 0.126809 0)
(11.2339 0.116402 0)
(11.3012 0.128932 0)
(11.3842 0.115998 0)
(11.4414 0.102267 0)
(11.5152 0.0796252 0)
(11.5706 0.0710109 0)
(11.6378 0.0573677 0)
(11.6898 0.0573749 0)
(11.7499 0.0462002 0)
(11.797 0.0483317 0)
(11.851 0.0313231 0)
(11.8966 0.0339753 0)
(11.9509 0.00309341 0)
(11.9923 -0.0051845 0)
(12.0392 -0.0715901 0)
(12.0129 -0.170356 0)
(9.97383 0.276265 0)
(10.3945 0.374973 0)
(10.8095 0.227405 0)
(11.0523 0.108303 0)
(11.1868 0.0984419 0)
(11.2632 0.114533 0)
(11.337 0.105257 0)
(11.3987 0.092642 0)
(11.468 0.071642 0)
(11.5274 0.0624408 0)
(11.5922 0.0512953 0)
(11.6464 0.0498152 0)
(11.7052 0.0415465 0)
(11.7524 0.0403341 0)
(11.806 0.0272592 0)
(11.8502 0.0230346 0)
(11.9049 -0.00111167 0)
(11.942 -0.0224859 0)
(11.9868 -0.0828923 0)
(11.9451 -0.192014 0)
(9.97171 0.231643 0)
(10.3552 0.328495 0)
(10.7551 0.210935 0)
(11.0061 0.0923774 0)
(11.1485 0.0812545 0)
(11.2248 0.100449 0)
(11.2973 0.0934053 0)
(11.3566 0.0829571 0)
(11.4272 0.0629065 0)
(11.4861 0.0544605 0)
(11.5525 0.0443666 0)
(11.6058 0.0431142 0)
(11.6655 0.035449 0)
(11.7111 0.0340656 0)
(11.7656 0.0210988 0)
(11.8082 0.0156064 0)
(11.8613 -0.00877045 0)
(11.898 -0.0356772 0)
(11.9341 -0.0945951 0)
(11.8863 -0.207875 0)
(9.97142 0.191659 0)
(10.3235 0.283277 0)
(10.7071 0.18866 0)
(10.9662 0.0791726 0)
(11.1131 0.0670782 0)
(11.1936 0.086155 0)
(11.2598 0.0823078 0)
(11.3223 0.0722118 0)
(11.3885 0.0552224 0)
(11.4526 0.0457304 0)
(11.5148 0.0386143 0)
(11.573 0.0355358 0)
(11.6277 0.0306628 0)
(11.6783 0.0263222 0)
(11.7281 0.0158859 0)
(11.7749 0.00653024 0)
(11.8219 -0.016307 0)
(11.8628 -0.0473883 0)
(11.8853 -0.106706 0)
(11.8416 -0.218478 0)
(9.96907 0.155239 0)
(10.2999 0.239606 0)
(10.6654 0.161344 0)
(10.9335 0.0681986 0)
(11.083 0.0541804 0)
(11.1694 0.0726307 0)
(11.2287 0.0702592 0)
(11.2954 0.061684 0)
(11.3564 0.0466069 0)
(11.4262 0.0380408 0)
(11.4839 0.0318429 0)
(11.5473 0.0291791 0)
(11.5975 0.0240507 0)
(11.6529 0.0202415 0)
(11.6983 0.00874632 0)
(11.7484 -0.000733106 0)
(11.7912 -0.0249148 0)
(11.8325 -0.0579373 0)
(11.8473 -0.117636 0)
(11.8039 -0.229562 0)
(9.96906 0.122351 0)
(10.2787 0.195756 0)
(10.6334 0.132615 0)
(10.9046 0.0569374 0)
(11.0618 0.042571 0)
(11.1479 0.0583831 0)
(11.2072 0.0583439 0)
(11.2714 0.0498759 0)
(11.3341 0.0387389 0)
(11.4025 0.0293944 0)
(11.4627 0.0263419 0)
(11.5244 0.021418 0)
(11.5771 0.0190756 0)
(11.6295 0.0120526 0)
(11.6775 0.00384774 0)
(11.7238 -0.0108875 0)
(11.7687 -0.0303675 0)
(11.8033 -0.0716375 0)
(11.8199 -0.122828 0)
(11.7658 -0.243481 0)
(9.97245 0.0926121 0)
(10.2588 0.151664 0)
(10.6105 0.103627 0)
(10.8797 0.0451683 0)
(11.0471 0.0318785 0)
(11.1284 0.044497 0)
(11.1919 0.0459123 0)
(11.2499 0.0383057 0)
(11.3178 0.0302106 0)
(11.3812 0.0218058 0)
(11.4468 0.0198142 0)
(11.5038 0.0151627 0)
(11.561 0.0125502 0)
(11.608 0.00632507 0)
(11.6605 -0.00371364 0)
(11.7014 -0.0165963 0)
(11.7486 -0.0410187 0)
(11.7774 -0.0772002 0)
(11.7955 -0.137207 0)
(11.727 -0.232383 0)
(9.97379 0.0642173 0)
(10.2453 0.108553 0)
(10.5923 0.0738314 0)
(10.8621 0.0335198 0)
(11.0332 0.0216267 0)
(11.115 0.0316414 0)
(11.1776 0.0328583 0)
(11.235 0.027227 0)
(11.3024 0.0213783 0)
(11.366 0.0147589 0)
(11.4318 0.0130143 0)
(11.4892 0.00900144 0)
(11.5452 0.00581152 0)
(11.5931 3.66283e-05 0)
(11.6441 -0.0106315 0)
(11.6851 -0.0236071 0)
(11.7291 -0.049245 0)
(11.7591 -0.0848454 0)
(11.7704 -0.147928 0)
(11.6985 -0.224949 0)
(9.97201 0.0384267 0)
(10.239 0.0643128 0)
(10.5783 0.045152 0)
(10.8518 0.0195751 0)
(11.0221 0.0135969 0)
(11.1084 0.0173973 0)
(11.1663 0.0211391 0)
(11.2273 0.0143318 0)
(11.2902 0.0140616 0)
(11.3581 0.0060457 0)
(11.4201 0.00799726 0)
(11.4816 0.00106584 0)
(11.5329 0.00104902 0)
(11.5857 -0.0083783 0)
(11.631 -0.0152607 0)
(11.676 -0.0335376 0)
(11.714 -0.0537473 0)
(11.748 -0.0969046 0)
(11.748 -0.149954 0)
(11.6815 -0.240271 0)
(9.97192 0.0122078 0)
(10.2352 0.0218909 0)
(10.5722 0.0146558 0)
(10.8458 0.00682471 0)
(11.0184 0.00401917 0)
(11.1045 0.00578282 0)
(11.1627 0.00667969 0)
(11.2225 0.00425461 0)
(11.2861 0.00353045 0)
(11.3535 0.000818461 0)
(11.4168 -0.000829755 0)
(11.4766 -0.00253783 0)
(11.5292 -0.00841963 0)
(11.5808 -0.0115096 0)
(11.6261 -0.0255997 0)
(11.6693 -0.0366997 0)
(11.7083 -0.0655502 0)
(11.7374 -0.100427 0)
(11.7366 -0.159577 0)
(11.6689 -0.251558 0)
(9.97331 -0.0124154 0)
(10.2338 -0.0220892 0)
(10.5736 -0.0142528 0)
(10.8447 -0.00826086 0)
(11.0204 -0.0030991 0)
(11.1032 -0.00831105 0)
(11.1645 -0.00495948 0)
(11.2208 -0.00898234 0)
(11.2885 -0.00347329 0)
(11.3522 -0.00843455 0)
(11.4191 -0.00500921 0)
(11.4744 -0.011553 0)
(11.5316 -0.0116792 0)
(11.5781 -0.0217294 0)
(11.6269 -0.0275292 0)
(11.6658 -0.0490992 0)
(11.7076 -0.0665468 0)
(11.7294 -0.114894 0)
(11.7322 -0.15604 0)
(11.6572 -0.269444 0)
(9.97291 -0.0383104 0)
(10.2381 -0.064865 0)
(10.5794 -0.0443403 0)
(10.8509 -0.0214957 0)
(11.0245 -0.012105 0)
(11.1074 -0.0204219 0)
(11.1684 -0.0187384 0)
(11.2258 -0.0197562 0)
(11.2931 -0.0132266 0)
(11.3568 -0.014506 0)
(11.423 -0.0128051 0)
(11.4782 -0.0162111 0)
(11.5355 -0.0202553 0)
(11.5812 -0.0256546 0)
(11.6297 -0.0371862 0)
(11.6685 -0.0522704 0)
(11.7076 -0.0785447 0)
(11.729 -0.115156 0)
(11.7286 -0.170206 0)
(11.6498 -0.241011 0)
(9.97199 -0.0647426 0)
(10.247 -0.108328 0)
(10.591 -0.0737838 0)
(10.8631 -0.0345724 0)
(11.0323 -0.0211801 0)
(11.1162 -0.0334592 0)
(11.1762 -0.0317637 0)
(11.2361 -0.0312244 0)
(11.3013 -0.0221979 0)
(11.3663 -0.0214336 0)
(11.4304 -0.0195675 0)
(11.4873 -0.0219332 0)
(11.5427 -0.027336 0)
(11.5894 -0.0309078 0)
(11.6364 -0.0452235 0)
(11.6753 -0.0567809 0)
(11.7115 -0.0887604 0)
(11.7337 -0.116597 0)
(11.7302 -0.182836 0)
(11.6528 -0.213438 0)
(9.97186 -0.0922896 0)
(10.2593 -0.152467 0)
(10.61 -0.102643 0)
(10.8801 -0.0472585 0)
(11.0454 -0.0305104 0)
(11.1284 -0.0475185 0)
(11.1898 -0.0437079 0)
(11.2502 -0.0437098 0)
(11.3154 -0.0296155 0)
(11.3797 -0.0303075 0)
(11.4436 -0.0240595 0)
(11.5004 -0.0307119 0)
(11.5553 -0.030576 0)
(11.6017 -0.0408597 0)
(11.6482 -0.0469648 0)
(11.6855 -0.0687306 0)
(11.7215 -0.088857 0)
(11.7418 -0.13131 0)
(11.7384 -0.176783 0)
(11.6562 -0.232812 0)
(9.97094 -0.122978 0)
(10.2767 -0.195459 0)
(10.6351 -0.132784 0)
(10.9035 -0.0576187 0)
(11.0626 -0.0424786 0)
(11.146 -0.0598308 0)
(11.2077 -0.0578044 0)
(11.2697 -0.0535154 0)
(11.334 -0.0398386 0)
(11.3987 -0.0361253 0)
(11.4614 -0.032233 0)
(11.5188 -0.0353724 0)
(11.5721 -0.0386326 0)
(11.6195 -0.0451282 0)
(11.6638 -0.0553132 0)
(11.7017 -0.0729431 0)
(11.7358 -0.097704 0)
(11.7554 -0.136095 0)
(11.7505 -0.183088 0)
(11.6665 -0.241528 0)
(9.97043 -0.155052 0)
(10.2984 -0.240092 0)
(10.6672 -0.160864 0)
(10.9323 -0.0694698 0)
(11.0848 -0.0533366 0)
(11.1678 -0.0745232 0)
(11.2308 -0.0692965 0)
(11.2941 -0.0656218 0)
(11.3582 -0.0473431 0)
(11.4224 -0.0450278 0)
(11.4846 -0.0373212 0)
(11.5415 -0.0433692 0)
(11.5944 -0.0429311 0)
(11.6415 -0.053012 0)
(11.6849 -0.059635 0)
(11.7225 -0.0806426 0)
(11.755 -0.102979 0)
(11.7738 -0.143331 0)
(11.7679 -0.189913 0)
(11.6835 -0.243811 0)
(9.97037 -0.192008 0)
(10.3251 -0.283281 0)
(10.7067 -0.188656 0)
(10.9668 -0.0800182 0)
(11.1122 -0.0666949 0)
(11.1944 -0.0876162 0)
(11.2596 -0.0819084 0)
(11.3237 -0.0757028 0)
(11.388 -0.056181 0)
(11.4511 -0.0525557 0)
(11.5134 -0.0438099 0)
(11.5687 -0.0500396 0)
(11.6225 -0.0482896 0)
(11.6681 -0.0597786 0)
(11.7121 -0.0645886 0)
(11.7476 -0.0876019 0)
(11.7801 -0.108167 0)
(11.7964 -0.150851 0)
(11.7919 -0.196676 0)
(11.7062 -0.24586 0)
(9.97281 -0.23187 0)
(10.3565 -0.328495 0)
(10.7538 -0.211066 0)
(11.0075 -0.0929414 0)
(11.1454 -0.0812766 0)
(11.2269 -0.101493 0)
(11.2942 -0.0938255 0)
(11.3594 -0.0857906 0)
(11.4229 -0.0646227 0)
(11.4863 -0.0606109 0)
(11.5468 -0.0500665 0)
(11.6027 -0.0570608 0)
(11.6551 -0.053218 0)
(11.7013 -0.0667437 0)
(11.7435 -0.0689368 0)
(11.7791 -0.0946624 0)
(11.8096 -0.112404 0)
(11.8256 -0.158957 0)
(11.8206 -0.202528 0)
(11.7369 -0.251592 0)
(9.98376 -0.27677 0)
(10.3879 -0.374822 0)
(10.8137 -0.227441 0)
(11.0479 -0.108713 0)
(11.1884 -0.098386 0)
(11.26 -0.115536 0)
(11.3376 -0.105844 0)
(11.3963 -0.0952698 0)
(11.4659 -0.0734692 0)
(11.5234 -0.0685792 0)
(11.5876 -0.0568747 0)
(11.6395 -0.0638641 0)
(11.6945 -0.058472 0)
(11.7379 -0.0734233 0)
(11.7813 -0.0732511 0)
(11.8147 -0.101517 0)
(11.8448 -0.115913 0)
(11.8594 -0.167299 0)
(11.8538 -0.207206 0)
(11.7732 -0.262868 0)
(10.0023 -0.327743 0)
(10.4165 -0.420987 0)
(10.8895 -0.240277 0)
(11.0818 -0.12642 0)
(11.2452 -0.117159 0)
(11.2878 -0.128981 0)
(11.3948 -0.117718 0)
(11.4286 -0.103612 0)
(11.5226 -0.0826653 0)
(11.5567 -0.0758656 0)
(11.6422 -0.0643054 0)
(11.6734 -0.0698937 0)
(11.7475 -0.0643753 0)
(11.7725 -0.0792091 0)
(11.8317 -0.0779445 0)
(11.8489 -0.107435 0)
(11.8898 -0.118996 0)
(11.8898 -0.174749 0)
(11.8874 -0.210209 0)
(11.7972 -0.278884 0)
(10.0146 -0.38486 0)
(10.4513 -0.467108 0)
(10.9752 -0.252379 0)
(11.1149 -0.145319 0)
(11.3128 -0.137017 0)
(11.3148 -0.141948 0)
(11.4658 -0.129428 0)
(11.4593 -0.111259 0)
(11.595 -0.092417 0)
(11.5881 -0.0827713 0)
(11.7136 -0.0726612 0)
(11.7034 -0.0753975 0)
(11.8155 -0.0714169 0)
(11.7982 -0.0840093 0)
(11.8903 -0.0835261 0)
(11.8625 -0.111686 0)
(11.9263 -0.121772 0)
(11.8756 -0.179544 0)
(11.876 -0.209997 0)
(11.7312 -0.294708 0)
(10.0073 -0.447681 0)
(10.5089 -0.513431 0)
(11.0576 -0.264608 0)
(11.165 -0.165793 0)
(11.3796 -0.157642 0)
(11.3597 -0.155346 0)
(11.54 -0.140663 0)
(11.5043 -0.119445 0)
(11.6689 -0.102218 0)
(11.6235 -0.0902432 0)
(11.7747 -0.080933 0)
(11.7164 -0.0810691 0)
(11.8488 -0.077799 0)
(11.7717 -0.0879261 0)
(11.8764 -0.087197 0)
(11.7757 -0.113489 0)
(11.8398 -0.120208 0)
(11.701 -0.179879 0)
(11.6815 -0.199354 0)
(11.4359 -0.304135 0)
(9.98646 -0.517455 0)
(10.5918 -0.556827 0)
(11.1377 -0.277786 0)
(11.2419 -0.188069 0)
(11.4461 -0.179052 0)
(11.4286 -0.169019 0)
(11.5991 -0.15109 0)
(11.5419 -0.127338 0)
(11.6839 -0.110622 0)
(11.5922 -0.0956991 0)
(11.712 -0.0865676 0)
(11.5908 -0.0828204 0)
(11.6881 -0.0804942 0)
(11.5375 -0.08553 0)
(11.6085 -0.0869484 0)
(11.429 -0.105644 0)
(11.4597 -0.116231 0)
(11.2381 -0.163616 0)
(11.176 -0.190421 0)
(10.8525 -0.273675 0)
(9.96719 -0.595983 0)
(10.6984 -0.592304 0)
(11.2305 -0.295398 0)
(11.3367 -0.214441 0)
(11.4919 -0.200816 0)
(11.4465 -0.180629 0)
(11.5305 -0.156463 0)
(11.4036 -0.129836 0)
(11.4459 -0.1106 0)
(11.2753 -0.0932387 0)
(11.3112 -0.0824099 0)
(11.1203 -0.076682 0)
(11.1561 -0.073376 0)
(10.946 -0.0764232 0)
(10.9763 -0.0772146 0)
(10.742 -0.0928223 0)
(10.7454 -0.102267 0)
(10.4658 -0.143365 0)
(10.3803 -0.167591 0)
(9.99728 -0.234523 0)
(9.97597 -0.68449 0)
(10.828 -0.624629 0)
(11.3052 -0.32406 0)
(11.3328 -0.243795 0)
(11.3267 -0.213755 0)
(11.1439 -0.177919 0)
(11.0573 -0.14608 0)
(10.8172 -0.116793 0)
(10.7404 -0.0960358 0)
(10.5045 -0.0785601 0)
(10.47 -0.0681211 0)
(10.2444 -0.0624916 0)
(10.2377 -0.059691 0)
(10.0058 -0.0619722 0)
(10.0088 -0.0631239 0)
(9.75466 -0.0758343 0)
(9.73838 -0.0846996 0)
(9.433 -0.118434 0)
(9.33003 -0.138363 0)
(8.91436 -0.192992 0)
(10.0542 -0.79723 0)
(10.8949 -0.65706 0)
(11.1324 -0.346372 0)
(10.8818 -0.247802 0)
(10.6009 -0.193778 0)
(10.2431 -0.147898 0)
(10.0122 -0.115235 0)
(9.70784 -0.0892087 0)
(9.56458 -0.0714719 0)
(9.31636 -0.0577241 0)
(9.24751 -0.0496991 0)
(9.02648 -0.0458934 0)
(8.99719 -0.0440332 0)
(8.77367 -0.0462783 0)
(8.75884 -0.0475432 0)
(8.5112 -0.0575584 0)
(8.47953 -0.0656167 0)
(8.17457 -0.0900118 0)
(8.05767 -0.110586 0)
(7.64433 -0.134435 0)
(10.1332 -0.937042 0)
(10.5564 -0.656305 0)
(10.2841 -0.321365 0)
(9.67222 -0.203515 0)
(9.18192 -0.140817 0)
(8.74988 -0.100716 0)
(8.47022 -0.0763129 0)
(8.17302 -0.0583524 0)
(8.01622 -0.0460063 0)
(7.79458 -0.0371785 0)
(7.71749 -0.03189 0)
(7.52619 -0.0300248 0)
(7.48747 -0.0289315 0)
(7.29268 -0.031156 0)
(7.26647 -0.0320843 0)
(7.04544 -0.0397465 0)
(7.00288 -0.0456154 0)
(6.71876 -0.0628873 0)
(6.60183 -0.0784183 0)
(6.19533 -0.0891245 0)
(9.8339 -1.01122 0)
(9.36156 -0.568209 0)
(8.53359 -0.23557 0)
(7.71349 -0.126252 0)
(7.19143 -0.0778579 0)
(6.80174 -0.0539895 0)
(6.55123 -0.0408294 0)
(6.30785 -0.0311681 0)
(6.17336 -0.024235 0)
(6.00005 -0.0197465 0)
(5.93336 -0.0168626 0)
(5.78556 -0.0164792 0)
(5.74741 -0.015896 0)
(5.59431 -0.0178181 0)
(5.563 -0.0182282 0)
(5.38424 -0.0234898 0)
(5.33565 -0.0268443 0)
(5.09466 -0.0377221 0)
(4.98504 -0.047461 0)
(4.61074 -0.0524315 0)
(8.59336 -0.864054 0)
(6.99635 -0.378708 0)
(5.89238 -0.119341 0)
(5.15071 -0.0494864 0)
(4.76498 -0.0267386 0)
(4.49909 -0.019083 0)
(4.32669 -0.0147816 0)
(4.16416 -0.0112922 0)
(4.07317 -0.0085417 0)
(3.96118 -0.00714918 0)
(3.91547 -0.00607592 0)
(3.81955 -0.00641567 0)
(3.78934 -0.00615233 0)
(3.68719 -0.00741258 0)
(3.6579 -0.00741008 0)
(3.53469 -0.0102524 0)
(3.48837 -0.0114597 0)
(3.3145 -0.0169114 0)
(3.21983 -0.0209821 0)
(2.93018 -0.0235411 0)
(5.34702 -0.307319 0)
(3.0447 -0.0607731 0)
(2.26989 0.00140807 0)
(1.92766 0.00350639 0)
(1.79279 0.00133525 0)
(1.70161 0.000165338 0)
(1.63892 -1.29229e-05 0)
(1.58006 -6.14306e-06 0)
(1.54731 0.000110148 0)
(1.50807 -6.64801e-05 0)
(1.49107 -2.63727e-06 0)
(1.45613 -0.000287139 0)
(1.44215 -0.000161972 0)
(1.40264 -0.000524457 0)
(1.38637 -0.000297266 0)
(1.33615 -0.000909118 0)
(1.30903 -0.000700467 0)
(1.23375 -0.00167333 0)
(1.17919 -0.0018556 0)
(1.05023 0.00387225 0)
(2.06125 -0.194028 0)
(2.53339 -0.115381 0)
(3.03103 -0.113675 0)
(3.47846 -0.113386 0)
(3.90087 -0.124886 0)
(4.33822 -0.15341 0)
(4.7965 -0.172241 0)
(5.31322 -0.250901 0)
(5.80626 -0.331827 0)
(6.28654 -0.451482 0)
(6.72396 -0.586596 0)
(7.05445 -0.73777 0)
(7.38797 -0.890151 0)
(7.60796 -0.995972 0)
(7.84553 -1.09317 0)
(8.02808 -1.17461 0)
(8.19044 -1.27713 0)
(8.3228 -1.40261 0)
(8.42338 -1.54719 0)
(8.5209 -1.69335 0)
(8.58758 -1.83322 0)
(8.66358 -1.95374 0)
(8.78801 -2.07196 0)
(8.90769 -2.18859 0)
(9.02502 -2.31341 0)
(9.09731 -2.42208 0)
(9.12737 -2.49537 0)
(9.12779 -2.53908 0)
(9.10058 -2.55428 0)
(9.08862 -2.56127 0)
(9.06344 -2.55489 0)
(9.04308 -2.54974 0)
(9.02384 -2.54333 0)
(8.98434 -2.53989 0)
(8.92067 -2.53597 0)
(8.81882 -2.53953 0)
(8.71377 -2.54648 0)
(8.61774 -2.53766 0)
(8.58195 -2.50485 0)
(8.57526 -2.45743 0)
(8.57252 -2.40643 0)
(8.56025 -2.35013 0)
(8.53193 -2.28719 0)
(8.49521 -2.22022 0)
(8.44984 -2.13664 0)
(8.4189 -2.05291 0)
(8.376 -1.96823 0)
(8.3243 -1.90033 0)
(8.22943 -1.81336 0)
(8.12511 -1.72663 0)
(8.06678 -1.67522 0)
(8.00626 -1.61028 0)
(7.96101 -1.54993 0)
(7.92159 -1.49438 0)
(7.88074 -1.43117 0)
(7.83763 -1.38189 0)
(7.81789 -1.33719 0)
(7.75825 -1.26717 0)
(7.7065 -1.18673 0)
(7.61629 -1.1085 0)
(7.5147 -0.992196 0)
(7.37598 -0.860897 0)
(7.24957 -0.743349 0)
(7.1365 -0.645138 0)
(7.03019 -0.56874 0)
(6.92176 -0.508095 0)
(6.83168 -0.450295 0)
(6.76047 -0.401204 0)
(6.68706 -0.365799 0)
(6.62224 -0.326024 0)
(6.57884 -0.28527 0)
(6.53882 -0.25617 0)
(6.51623 -0.236919 0)
(6.49296 -0.223672 0)
(6.47705 -0.208668 0)
(6.47237 -0.171901 0)
(6.4574 -0.12805 0)
(6.45422 -0.0852539 0)
(6.43032 -0.0382692 0)
(6.43942 0.00559626 0)
(6.42469 0.0537031 0)
(6.41813 0.0917319 0)
(6.40782 0.130867 0)
(6.39069 0.16313 0)
(6.37266 0.18281 0)
(6.33297 0.206274 0)
(6.28676 0.243058 0)
(6.22826 0.288563 0)
(6.18902 0.315027 0)
(6.15057 0.360244 0)
(6.10795 0.409711 0)
(6.09769 0.448477 0)
(6.08458 0.493266 0)
(6.07065 0.531893 0)
(6.06925 0.556809 0)
(6.0605 0.574266 0)
(6.07351 0.600238 0)
(6.05445 0.638283 0)
(6.0992 0.658834 0)
(6.07101 0.690394 0)
(6.11883 0.709345 0)
(6.05175 0.760173 0)
(6.10723 0.769916 0)
(6.04483 0.822743 0)
(6.11617 0.829923 0)
(6.02806 0.895644 0)
(6.12835 0.890984 0)
(6.02254 0.943968 0)
(6.16776 0.927029 0)
(6.02569 0.969035 0)
(6.18367 0.915489 0)
(6.01451 0.93516 0)
(6.17218 0.85537 0)
(5.99677 0.874465 0)
(6.16929 0.762563 0)
(5.95612 0.770022 0)
(6.16103 0.645537 0)
(5.90027 0.639044 0)
(6.1184 0.495526 0)
(5.87604 0.493842 0)
(6.06627 0.349333 0)
(5.884 0.378794 0)
(6.0225 0.239005 0)
(5.91354 0.314949 0)
(6.03417 0.17194 0)
(5.95072 0.279934 0)
(6.0799 0.111203 0)
(5.99472 0.225407 0)
(6.12237 0.0498182 0)
(6.08646 0.177451 0)
(6.14578 0.00211327 0)
(6.21587 0.145485 0)
(6.18142 -0.0183667 0)
(6.33781 0.123894 0)
(6.23202 -0.0322232 0)
(6.45503 0.111897 0)
(6.26364 -0.0420073 0)
(6.55984 0.0911677 0)
(6.28956 -0.0489479 0)
(6.62344 0.066046 0)
(6.34631 -0.0668298 0)
(6.6192 0.0524927 0)
(6.41816 -0.0893616 0)
(6.60667 0.0298151 0)
(6.44088 -0.0994053 0)
(6.61203 -0.0112187 0)
(6.4437 -0.103612 0)
(6.58434 -0.0398778 0)
(6.45444 -0.10472 0)
(6.53715 -0.05577 0)
(6.44074 -0.0929339 0)
(6.48723 -0.059163 0)
(6.41407 -0.0734703 0)
(6.43076 -0.0447968 0)
(6.37793 -0.0378023 0)
(6.37334 -0.0132152 0)
(6.34182 0.00901643 0)
(6.31598 0.0322799 0)
(6.30005 0.0698006 0)
(6.25182 0.096076 0)
(6.2527 0.13946 0)
(6.19264 0.1657 0)
(6.20591 0.212018 0)
(6.13477 0.238413 0)
(6.16161 0.285214 0)
(6.07957 0.314725 0)
(6.12023 0.361836 0)
(6.02238 0.399624 0)
(6.07347 0.445236 0)
(5.97067 0.493392 0)
(6.02119 0.53422 0)
(5.92777 0.595239 0)
(5.97113 0.63029 0)
(5.90027 0.709456 0)
(5.92328 0.736974 0)
(5.87953 0.834994 0)
(5.87961 0.855079 0)
(5.85727 0.971734 0)
(5.84336 0.991619 0)
(5.82476 1.12546 0)
(5.82483 1.15622 0)
(5.78294 1.30302 0)
(5.82259 1.348 0)
(5.74014 1.51517 0)
(5.82217 1.56994 0)
(5.71486 1.77482 0)
(5.80118 1.82939 0)
(5.70864 2.08462 0)
(5.76002 2.15327 0)
(5.68411 2.45359 0)
(5.70488 2.57018 0)
(5.63049 2.9184 0)
(5.60664 3.14796 0)
(5.44019 3.55319 0)
(5.49444 3.9209 0)
(5.443 4.45951 0)
(5.34305 5.02629 0)
(5.0861 6.09647 0)
(5.58019 7.05058 0)
(3.13412 10.2306 0)
(3.97025 -0.228874 0)
(4.13153 -0.226107 0)
(4.39448 -0.264017 0)
(4.69686 -0.280121 0)
(5.01435 -0.292772 0)
(5.37529 -0.324952 0)
(5.70646 -0.357339 0)
(6.07113 -0.432563 0)
(6.40969 -0.519215 0)
(6.75528 -0.635035 0)
(7.11645 -0.762912 0)
(7.417 -0.890458 0)
(7.70344 -1.01953 0)
(7.91801 -1.11019 0)
(8.13487 -1.19443 0)
(8.3274 -1.26338 0)
(8.49874 -1.3453 0)
(8.64197 -1.45444 0)
(8.74512 -1.58637 0)
(8.84165 -1.72772 0)
(8.93536 -1.86616 0)
(9.0317 -1.99228 0)
(9.15877 -2.11516 0)
(9.28196 -2.22883 0)
(9.3631 -2.33845 0)
(9.39577 -2.43554 0)
(9.38416 -2.50082 0)
(9.36836 -2.53974 0)
(9.34629 -2.55273 0)
(9.33812 -2.55437 0)
(9.31047 -2.54536 0)
(9.28269 -2.53898 0)
(9.24943 -2.52848 0)
(9.20388 -2.51805 0)
(9.13391 -2.50129 0)
(9.02987 -2.49305 0)
(8.92583 -2.50054 0)
(8.82853 -2.50611 0)
(8.78228 -2.49202 0)
(8.76419 -2.45193 0)
(8.73272 -2.4005 0)
(8.6939 -2.33742 0)
(8.63869 -2.26675 0)
(8.58329 -2.19785 0)
(8.52639 -2.11927 0)
(8.47543 -2.03492 0)
(8.42053 -1.9455 0)
(8.35135 -1.8676 0)
(8.2417 -1.77078 0)
(8.13918 -1.69337 0)
(8.07541 -1.64857 0)
(8.00624 -1.58865 0)
(7.95559 -1.53481 0)
(7.90149 -1.47558 0)
(7.84838 -1.41117 0)
(7.79914 -1.36482 0)
(7.76709 -1.3179 0)
(7.69188 -1.24028 0)
(7.62549 -1.15325 0)
(7.51765 -1.06421 0)
(7.40722 -0.937993 0)
(7.2661 -0.809615 0)
(7.15063 -0.695439 0)
(7.04809 -0.600435 0)
(6.95125 -0.527118 0)
(6.84966 -0.469327 0)
(6.76209 -0.413663 0)
(6.68858 -0.369356 0)
(6.61181 -0.336383 0)
(6.54383 -0.300297 0)
(6.49802 -0.266383 0)
(6.45988 -0.243179 0)
(6.44087 -0.22858 0)
(6.41821 -0.216389 0)
(6.39984 -0.202185 0)
(6.39177 -0.16444 0)
(6.37374 -0.119764 0)
(6.36756 -0.0798319 0)
(6.33889 -0.0333305 0)
(6.33837 0.00978717 0)
(6.31818 0.0591305 0)
(6.30469 0.0979564 0)
(6.2936 0.13452 0)
(6.27868 0.169572 0)
(6.26416 0.194099 0)
(6.22831 0.224489 0)
(6.1808 0.266418 0)
(6.12207 0.310648 0)
(6.08344 0.334316 0)
(6.04027 0.379222 0)
(5.99598 0.419007 0)
(5.98644 0.455427 0)
(5.96775 0.500037 0)
(5.95411 0.53713 0)
(5.95244 0.556566 0)
(5.94748 0.576714 0)
(5.95745 0.599746 0)
(5.94757 0.636982 0)
(5.9953 0.650124 0)
(5.97901 0.690585 0)
(6.02874 0.709052 0)
(5.97276 0.768041 0)
(6.03456 0.767177 0)
(5.97232 0.825451 0)
(6.05379 0.830429 0)
(5.95834 0.898273 0)
(6.07413 0.886643 0)
(5.95734 0.938946 0)
(6.12211 0.920446 0)
(5.97445 0.969318 0)
(6.153 0.910943 0)
(5.98143 0.942091 0)
(6.1589 0.854283 0)
(5.9636 0.878847 0)
(6.18051 0.765534 0)
(5.93116 0.777846 0)
(6.18043 0.653746 0)
(5.88814 0.648278 0)
(6.13974 0.50337 0)
(5.87302 0.50171 0)
(6.08541 0.353227 0)
(5.87969 0.381946 0)
(6.04811 0.241091 0)
(5.89225 0.307193 0)
(6.06302 0.169422 0)
(5.92246 0.265233 0)
(6.11376 0.105731 0)
(5.96715 0.209406 0)
(6.15633 0.0405442 0)
(6.04711 0.16104 0)
(6.18915 -0.00996721 0)
(6.15688 0.122008 0)
(6.24342 -0.0283221 0)
(6.2694 0.0970514 0)
(6.31518 -0.0415437 0)
(6.37085 0.0905868 0)
(6.3646 -0.0507425 0)
(6.47338 0.0761452 0)
(6.38516 -0.0549891 0)
(6.55709 0.052194 0)
(6.41291 -0.0654332 0)
(6.57219 0.0370615 0)
(6.47451 -0.0873366 0)
(6.54558 0.0246042 0)
(6.51544 -0.10306 0)
(6.54542 -0.00826734 0)
(6.5196 -0.103965 0)
(6.53397 -0.0370691 0)
(6.52301 -0.0992492 0)
(6.48787 -0.0491857 0)
(6.51228 -0.0867517 0)
(6.44116 -0.0489329 0)
(6.47933 -0.0657191 0)
(6.39895 -0.0332908 0)
(6.4385 -0.0334052 0)
(6.36245 -0.000581141 0)
(6.38907 0.0123732 0)
(6.32286 0.0494453 0)
(6.32949 0.0731941 0)
(6.28155 0.114521 0)
(6.27343 0.139621 0)
(6.24576 0.186358 0)
(6.21486 0.210326 0)
(6.21466 0.261109 0)
(6.16152 0.281384 0)
(6.18454 0.338758 0)
(6.1107 0.358197 0)
(6.14426 0.423611 0)
(6.06042 0.442486 0)
(6.09978 0.515068 0)
(6.01283 0.534778 0)
(6.05385 0.610199 0)
(5.97894 0.635206 0)
(6.00977 0.716516 0)
(5.96296 0.748652 0)
(5.96173 0.833639 0)
(5.96063 0.873842 0)
(5.90725 0.965339 0)
(5.9644 1.01268 0)
(5.8515 1.12158 0)
(5.96638 1.16809 0)
(5.81648 1.3106 0)
(5.95684 1.34613 0)
(5.80566 1.53416 0)
(5.93677 1.55845 0)
(5.80175 1.79336 0)
(5.92252 1.82356 0)
(5.78506 2.09173 0)
(5.92373 2.15142 0)
(5.76626 2.46576 0)
(5.90602 2.56229 0)
(5.75699 2.93234 0)
(5.93608 3.10863 0)
(5.78528 3.56938 0)
(5.78229 3.91709 0)
(5.66382 4.56362 0)
(5.69719 5.07768 0)
(5.29282 6.31634 0)
(6.84814 6.83279 0)
(4.48057 11.0179 0)
(5.8011 -0.233617 0)
(5.85036 -0.272981 0)
(6.0019 -0.33175 0)
(6.19144 -0.376192 0)
(6.3986 -0.407702 0)
(6.63712 -0.445835 0)
(6.85657 -0.481863 0)
(7.07842 -0.551588 0)
(7.30398 -0.640567 0)
(7.53279 -0.75718 0)
(7.78403 -0.8857 0)
(7.98633 -1.00033 0)
(8.16596 -1.11392 0)
(8.31976 -1.20036 0)
(8.46656 -1.28521 0)
(8.63366 -1.35578 0)
(8.80531 -1.43142 0)
(8.9843 -1.51675 0)
(9.12069 -1.63229 0)
(9.23336 -1.76174 0)
(9.35287 -1.89892 0)
(9.4473 -2.02455 0)
(9.5356 -2.15293 0)
(9.61683 -2.26521 0)
(9.65972 -2.35925 0)
(9.67443 -2.43963 0)
(9.64278 -2.49535 0)
(9.61613 -2.53384 0)
(9.58343 -2.54804 0)
(9.55949 -2.54478 0)
(9.52313 -2.53313 0)
(9.48608 -2.52518 0)
(9.43628 -2.50991 0)
(9.38 -2.49269 0)
(9.31274 -2.46772 0)
(9.22124 -2.4515 0)
(9.13715 -2.45705 0)
(9.04675 -2.47202 0)
(8.98206 -2.47285 0)
(8.9352 -2.43707 0)
(8.87548 -2.38323 0)
(8.80864 -2.31292 0)
(8.72657 -2.23735 0)
(8.65712 -2.16902 0)
(8.59095 -2.09473 0)
(8.52158 -2.00622 0)
(8.45098 -1.91227 0)
(8.36286 -1.82781 0)
(8.24864 -1.72721 0)
(8.15107 -1.66094 0)
(8.07599 -1.61785 0)
(7.99906 -1.5635 0)
(7.9429 -1.51516 0)
(7.8711 -1.45048 0)
(7.80867 -1.38742 0)
(7.75123 -1.34397 0)
(7.70232 -1.29284 0)
(7.60923 -1.20683 0)
(7.52296 -1.11209 0)
(7.40063 -1.01309 0)
(7.28606 -0.882232 0)
(7.14824 -0.761176 0)
(7.04792 -0.651452 0)
(6.95492 -0.559814 0)
(6.86365 -0.488884 0)
(6.7678 -0.431714 0)
(6.68076 -0.377229 0)
(6.60117 -0.335952 0)
(6.52488 -0.30627 0)
(6.45889 -0.274246 0)
(6.41266 -0.248077 0)
(6.37488 -0.230771 0)
(6.35552 -0.221525 0)
(6.33644 -0.209446 0)
(6.31485 -0.193645 0)
(6.3031 -0.155393 0)
(6.28202 -0.110879 0)
(6.27244 -0.0716196 0)
(6.23835 -0.0245176 0)
(6.23044 0.0176849 0)
(6.20495 0.0666171 0)
(6.18192 0.105933 0)
(6.17016 0.139232 0)
(6.15572 0.174447 0)
(6.14343 0.204213 0)
(6.11141 0.242159 0)
(6.06564 0.289147 0)
(6.00925 0.331969 0)
(5.97343 0.354368 0)
(5.92715 0.398757 0)
(5.88325 0.428092 0)
(5.87315 0.463833 0)
(5.84895 0.507218 0)
(5.83458 0.542677 0)
(5.83496 0.555688 0)
(5.82505 0.578396 0)
(5.84187 0.596834 0)
(5.82797 0.632215 0)
(5.89119 0.638573 0)
(5.86933 0.687565 0)
(5.93711 0.705099 0)
(5.87874 0.77172 0)
(5.96187 0.763029 0)
(5.88778 0.826345 0)
(5.99127 0.829119 0)
(5.8818 0.900296 0)
(6.01704 0.879641 0)
(5.88978 0.934542 0)
(6.06684 0.908467 0)
(5.92328 0.969075 0)
(6.10776 0.899982 0)
(5.94538 0.946958 0)
(6.13368 0.850161 0)
(5.93256 0.882876 0)
(6.165 0.762961 0)
(5.91681 0.7863 0)
(6.16558 0.656661 0)
(5.89553 0.660243 0)
(6.11605 0.505161 0)
(5.90128 0.514117 0)
(6.05819 0.353967 0)
(5.90892 0.3893 0)
(6.02498 0.239412 0)
(5.92292 0.307105 0)
(6.03023 0.159921 0)
(5.95995 0.259118 0)
(6.06989 0.0920773 0)
(6.01885 0.202825 0)
(6.10012 0.0233523 0)
(6.10274 0.154087 0)
(6.12168 -0.0317175 0)
(6.21275 0.11124 0)
(6.16369 -0.0543898 0)
(6.34086 0.0867086 0)
(6.22412 -0.0672886 0)
(6.45541 0.0852494 0)
(6.26873 -0.0774941 0)