/*--------------------------------*- C++ -*----------------------------------*\
| =========                 |                                                 |
| \\      /  F ield         | OpenFOAM: The Open Source CFD Toolbox           |
|  \\    /   O peration     | Version:  2.4.0                                 |
|   \\  /    A nd           | Web:      www.OpenFOAM.org                      |
|    \\/     M anipulation  |                                                 |
\*---------------------------------------------------------------------------*/
FoamFile
{
    version     2.0;
    format      ascii;
    class       volScalarField;
    location    "0.164";
    object      nuSgs;
}
// * * * * * * * * * * * * * * * * * * * * * * * * * * * * * * * * * * * * * //

dimensions      [0 2 -1 0 0 0 0];

internalField   nonuniform List<scalar> 
17600
(
0.00101262
0.000904826
0.000751734
0.000659039
0.000608507
0.000569005
0.000547883
0.000520945
0.000510087
0.000491257
0.000489209
0.00047064
0.000474571
0.000462923
0.00046083
0.000463582
0.00045844
0.000474451
0.000483101
0.000459493
0.000705252
0.000828239
0.000802783
0.000746328
0.000699866
0.000656118
0.000633919
0.000601858
0.000589994
0.000567986
0.000562807
0.00054275
0.000544565
0.000532034
0.000526206
0.000528986
0.000519081
0.000528372
0.000528383
0.000538425
0.000381944
0.000602952
0.000663771
0.000660627
0.000646504
0.000615363
0.000600312
0.000573406
0.00056384
0.000544201
0.000538858
0.000521437
0.000520293
0.000511291
0.0005024
0.000503816
0.000495098
0.000495953
0.0004925
0.000496957
0.000151424
0.000364405
0.000460967
0.000504667
0.000528466
0.000525414
0.000523458
0.00051261
0.000507417
0.0004943
0.000490957
0.000479146
0.000476168
0.000470941
0.000462039
0.000461083
0.000456924
0.000450803
0.000447446
0.000440125
5.36791e-05
0.000173935
0.000268163
0.000321187
0.000373973
0.000394644
0.000413591
0.0004186
0.000424265
0.000421281
0.000422456
0.000419787
0.000415836
0.000415209
0.00041164
0.000406753
0.000406005
0.000399876
0.000396144
0.000384992
1.74495e-05
7.06233e-05
0.000130973
0.000163912
0.000217742
0.000249447
0.000276812
0.000298636
0.000317534
0.000322142
0.000332643
0.00034047
0.000339595
0.000343089
0.000344941
0.000341765
0.000342782
0.000338858
0.000335542
0.000324991
5.56062e-06
2.66679e-05
5.39778e-05
7.0747e-05
9.99316e-05
0.000132222
0.00014849
0.000176119
0.000201597
0.000209652
0.000223831
0.000244606
0.000246589
0.000253619
0.000263723
0.000263328
0.000266265
0.00026441
0.000263319
0.00025409
2.30299e-06
9.87954e-06
2.01307e-05
2.64759e-05
3.71687e-05
5.70889e-05
6.65916e-05
8.2766e-05
0.000105519
0.000112972
0.000122488
0.000147053
0.0001508
0.000158958
0.000172259
0.000174195
0.000180117
0.000180477
0.000180426
0.00017286
1.69672e-06
4.0823e-06
7.88274e-06
9.50203e-06
1.28459e-05
2.06385e-05
2.50106e-05
3.15856e-05
4.50869e-05
4.98586e-05
5.51543e-05
7.19058e-05
7.52117e-05
8.2194e-05
9.26465e-05
9.44936e-05
9.98001e-05
0.0001023
0.000101823
9.6482e-05
1.5753e-06
2.31192e-06
4.05905e-06
4.27883e-06
4.94807e-06
7.28266e-06
8.81552e-06
1.09363e-05
1.65358e-05
1.86575e-05
2.07456e-05
2.87633e-05
3.03991e-05
3.4679e-05
4.05283e-05
4.14096e-05
4.46046e-05
4.66845e-05
4.62652e-05
4.3329e-05
1.59088e-06
2.13299e-06
4.07032e-06
3.92537e-06
3.83829e-06
4.60537e-06
4.97196e-06
5.40171e-06
7.21831e-06
7.99143e-06
8.45876e-06
1.10835e-05
1.15568e-05
1.30298e-05
1.53712e-05
1.56487e-05
1.67659e-05
1.7457e-05
1.73239e-05
1.66441e-05
1.79052e-06
2.56008e-06
4.56007e-06
4.27913e-06
3.90149e-06
4.00293e-06
3.8263e-06
3.8693e-06
4.49343e-06
4.8128e-06
5.14002e-06
5.98725e-06
5.88254e-06
5.99876e-06
6.55999e-06
6.70468e-06
6.9542e-06
6.8663e-06
6.89219e-06
6.73343e-06
1.65794e-06
2.3699e-06
3.21701e-06
3.37065e-06
3.39896e-06
3.25099e-06
3.19904e-06
3.47363e-06
3.72575e-06
4.00834e-06
4.66776e-06
4.81435e-06
4.64729e-06
4.56084e-06
4.68466e-06
4.75367e-06
4.74273e-06
4.67378e-06
4.71031e-06
4.4625e-06
1.53335e-06
1.79138e-06
2.06914e-06
2.80666e-06
2.98463e-06
3.0719e-06
3.3072e-06
3.53562e-06
3.54554e-06
3.58135e-06
3.63196e-06
3.90357e-06
3.92556e-06
3.92455e-06
3.97421e-06
3.96024e-06
3.97063e-06
4.08508e-06
4.0734e-06
3.95053e-06
1.51827e-06
1.71078e-06
2.08111e-06
2.75145e-06
2.83424e-06
3.06799e-06
3.28367e-06
3.17714e-06
3.11939e-06
3.05218e-06
3.03781e-06
3.26551e-06
3.49495e-06
3.50432e-06
3.47991e-06
3.47205e-06
3.6204e-06
3.75913e-06
3.66672e-06
3.71609e-06
1.5305e-06
1.72034e-06
2.32567e-06
2.48736e-06
2.51028e-06
2.75296e-06
2.70516e-06
2.6356e-06
2.68115e-06
2.67063e-06
2.67345e-06
2.81232e-06
3.0475e-06
3.06307e-06
3.07039e-06
3.10087e-06
3.23444e-06
3.24225e-06
3.27356e-06
3.51625e-06
1.52868e-06
1.68455e-06
2.02072e-06
2.08778e-06
2.31041e-06
2.412e-06
2.47597e-06
2.6389e-06
2.7322e-06
2.70311e-06
2.68387e-06
2.76067e-06
2.9233e-06
2.9487e-06
3.03713e-06
3.01601e-06
3.00137e-06
3.02409e-06
3.14418e-06
3.60057e-06
1.50739e-06
1.65995e-06
1.98742e-06
2.23973e-06
2.29883e-06
2.37589e-06
2.43775e-06
2.64516e-06
2.64832e-06
2.61914e-06
2.60014e-06
2.66797e-06
2.75493e-06
2.78723e-06
2.8352e-06
2.81305e-06
2.81019e-06
2.93538e-06
3.01236e-06
3.07873e-06
1.5067e-06
1.70667e-06
2.0207e-06
2.30686e-06
2.29488e-06
2.32533e-06
2.43961e-06
2.51117e-06
2.59134e-06
2.58539e-06
2.56523e-06
2.56686e-06
2.58486e-06
2.62389e-06
2.66706e-06
2.68594e-06
2.71458e-06
2.74465e-06
2.73028e-06
2.84591e-06
1.51075e-06
1.71433e-06
1.84868e-06
2.03958e-06
2.27999e-06
2.3354e-06
2.3331e-06
2.36384e-06
2.41103e-06
2.44211e-06
2.42228e-06
2.43073e-06
2.46396e-06
2.5074e-06
2.55256e-06
2.55614e-06
2.52849e-06
2.5111e-06
2.52775e-06
2.62717e-06
1.51256e-06
1.65343e-06
1.80165e-06
2.18619e-06
2.29239e-06
2.27018e-06
2.21948e-06
2.22731e-06
2.25308e-06
2.27614e-06
2.32222e-06
2.39816e-06
2.41042e-06
2.39835e-06
2.40389e-06
2.3848e-06
2.38349e-06
2.38694e-06
2.43151e-06
2.45856e-06
1.5116e-06
1.64115e-06
1.97918e-06
2.1461e-06
2.11734e-06
2.06476e-06
2.07977e-06
2.12608e-06
2.17666e-06
2.28639e-06
2.32526e-06
2.32971e-06
2.30763e-06
2.26888e-06
2.27621e-06
2.29643e-06
2.32311e-06
2.35793e-06
2.38915e-06
2.46633e-06
1.51781e-06
1.70433e-06
2.00526e-06
2.00511e-06
1.97937e-06
2.0342e-06
2.19266e-06
2.2235e-06
2.2828e-06
2.31309e-06
2.2868e-06
2.26674e-06
2.23094e-06
2.22818e-06
2.26866e-06
2.33171e-06
2.3385e-06
2.3469e-06
2.36701e-06
2.41655e-06
1.51896e-06
1.74289e-06
1.93713e-06
1.94081e-06
2.06067e-06
2.27156e-06
2.2818e-06
2.29732e-06
2.30613e-06
2.28119e-06
2.25279e-06
2.25878e-06
2.2791e-06
2.3723e-06
2.44235e-06
2.44468e-06
2.4213e-06
2.42301e-06
2.45466e-06
2.6576e-06
1.52467e-06
1.7558e-06
1.87891e-06
2.02795e-06
2.29762e-06
2.32419e-06
2.30745e-06
2.32044e-06
2.30121e-06
2.30582e-06
2.36458e-06
2.46038e-06
2.54991e-06
2.5867e-06
2.58247e-06
2.53219e-06
2.5098e-06
2.56168e-06
2.65639e-06
3.1366e-06
1.53175e-06
1.72616e-06
1.9542e-06
2.24972e-06
2.37259e-06
2.36475e-06
2.34291e-06
2.35218e-06
2.37376e-06
2.57062e-06
2.68647e-06
2.70541e-06
2.72e-06
2.70971e-06
2.64732e-06
2.62685e-06
2.66424e-06
2.84757e-06
3.08503e-06
3.55325e-06
1.54972e-06
1.7401e-06
2.12878e-06
2.32126e-06
2.43929e-06
2.42997e-06
2.43714e-06
2.52276e-06
2.7344e-06
2.93435e-06
2.92762e-06
2.88381e-06
2.86907e-06
2.82614e-06
2.8163e-06
2.88805e-06
3.20994e-06
3.5648e-06
4.29065e-06
5.943e-06
1.5698e-06
1.76698e-06
2.29267e-06
2.3804e-06
2.63258e-06
2.65556e-06
2.81334e-06
2.96253e-06
3.13213e-06
3.22711e-06
3.18797e-06
3.16488e-06
3.19814e-06
3.23891e-06
3.36269e-06
4.04555e-06
4.81341e-06
5.99247e-06
8.22024e-06
1.22894e-05
1.59755e-06
1.81468e-06
2.53944e-06
2.66601e-06
3.01888e-06
3.08272e-06
3.5444e-06
3.63868e-06
3.82059e-06
4.05269e-06
4.06919e-06
4.19282e-06
4.74585e-06
5.16218e-06
5.96618e-06
8.59105e-06
1.0783e-05
1.4144e-05
1.96948e-05
2.96617e-05
1.62042e-06
1.93168e-06
2.92732e-06
3.13854e-06
3.69017e-06
3.9688e-06
5.08842e-06
5.49745e-06
5.95054e-06
7.3582e-06
7.88678e-06
9.10161e-06
1.19896e-05
1.343e-05
1.59393e-05
2.29868e-05
2.78704e-05
3.53325e-05
4.59144e-05
6.69775e-05
1.6635e-06
2.40765e-06
3.98533e-06
4.63735e-06
6.11126e-06
7.32277e-06
1.0517e-05
1.26106e-05
1.42486e-05
1.97093e-05
2.20203e-05
2.62193e-05
3.38902e-05
3.73098e-05
4.2736e-05
5.70564e-05
6.52249e-05
7.9234e-05
9.43539e-05
0.000132178
1.79912e-06
4.20172e-06
7.77361e-06
1.01813e-05
1.52565e-05
1.92519e-05
2.80563e-05
3.46941e-05
3.95742e-05
5.32738e-05
5.87284e-05
6.73614e-05
8.16683e-05
8.78966e-05
9.67574e-05
0.000118194
0.000128621
0.000147084
0.000164968
0.000211878
2.36563e-06
1.00982e-05
1.97872e-05
2.7298e-05
4.25253e-05
5.25105e-05
7.26272e-05
8.60478e-05
9.67699e-05
0.000120357
0.000127986
0.00014104
0.000159905
0.000167349
0.000179257
0.00020118
0.000210789
0.000228756
0.000245104
0.000282455
5.55365e-06
2.68651e-05
5.32382e-05
7.1635e-05
0.000106338
0.000124707
0.000158236
0.000176816
0.000195394
0.000218172
0.000226132
0.000241092
0.000256316
0.000261727
0.000272212
0.000286172
0.000292787
0.000305354
0.000316828
0.000340774
1.73523e-05
7.0443e-05
0.000129819
0.000165097
0.000220823
0.000245857
0.000282679
0.00029853
0.000315497
0.000327386
0.000332891
0.000340397
0.000347022
0.000348344
0.000353184
0.000358257
0.000361655
0.000367143
0.00037445
0.000384444
5.34978e-05
0.000173137
0.000267348
0.000323916
0.000374153
0.000394344
0.000415575
0.00041857
0.000424271
0.00042309
0.000422508
0.000420712
0.000420147
0.000416803
0.000417125
0.000415525
0.00041565
0.000414996
0.000416217
0.000415185
0.000151249
0.000364067
0.0004613
0.00050618
0.000528039
0.00052635
0.000523514
0.0005125
0.000507314
0.000494637
0.000490112
0.000480327
0.000476381
0.000468339
0.000465629
0.00045811
0.000455415
0.000448523
0.000443002
0.000432529
0.000381918
0.000602865
0.00066438
0.000661331
0.000645434
0.000617305
0.000598205
0.000573834
0.000563495
0.000543065
0.000536731
0.000522069
0.000516054
0.000504978
0.000499483
0.000486356
0.000480536
0.000466452
0.000453307
0.000433927
0.000705614
0.0008283
0.000803254
0.000746812
0.000698027
0.000658565
0.000630938
0.000601852
0.000589181
0.000565527
0.000558852
0.000541691
0.00053441
0.000521109
0.00051338
0.000495282
0.000486001
0.000464876
0.000443185
0.000412564
0.00101314
0.000904967
0.000751944
0.000659234
0.000606415
0.000571
0.000545415
0.000519686
0.000508918
0.000488253
0.000482716
0.000467345
0.000459936
0.000446195
0.000438284
0.000417975
0.000405025
0.000379893
0.000352544
0.000314392
0.000224693
0.000211983
0.000197785
0.000180112
0.000166807
0.00014671
0.000119956
9.85421e-05
8.77665e-05
8.48297e-05
8.71476e-05
9.80104e-05
0.000106966
0.000111393
0.000113368
0.000111189
0.000105359
0.00010179
9.90386e-05
9.18548e-05
7.07981e-05
4.50127e-05
2.89927e-05
1.90854e-05
1.36263e-05
1.18465e-05
1.12644e-05
1.14485e-05
1.2557e-05
1.29052e-05
1.45496e-05
1.65998e-05
1.72202e-05
1.89188e-05
2.56142e-05
4.48683e-05
7.35791e-05
9.1336e-05
9.41011e-05
9.42312e-05
0.000103515
0.000108592
0.000101228
7.35255e-05
5.58475e-05
4.70505e-05
4.67577e-05
4.86583e-05
4.94505e-05
5.17315e-05
5.47374e-05
5.569e-05
5.53261e-05
5.51489e-05
5.3729e-05
4.59254e-05
3.7888e-05
3.01342e-05
2.39597e-05
2.25013e-05
2.4754e-05
3.19859e-05
4.94521e-05
7.58931e-05
8.50638e-05
8.24693e-05
6.31715e-05
4.58002e-05
3.85347e-05
3.51299e-05
3.21758e-05
3.09346e-05
3.01283e-05
2.86057e-05
2.71897e-05
2.65576e-05
2.65778e-05
2.66149e-05
2.64687e-05
2.59319e-05
2.53954e-05
2.50801e-05
2.50225e-05
2.51807e-05
2.57189e-05
3.03552e-05
3.77569e-05
3.97971e-05
3.96823e-05
3.92102e-05
3.90988e-05
4.00929e-05
4.26185e-05
4.37092e-05
4.35434e-05
4.19366e-05
3.6205e-05
3.24635e-05
3.10631e-05
3.09061e-05
3.29698e-05
3.49082e-05
3.51834e-05
3.5117e-05
3.55269e-05
3.8667e-05
4.20891e-05
4.25793e-05
4.1622e-05
3.79699e-05
3.7144e-05
3.7136e-05
3.75475e-05
4.0901e-05
4.40177e-05
4.59341e-05
4.79399e-05
4.8296e-05
4.77643e-05
4.57901e-05
4.58094e-05
4.98873e-05
5.08621e-05
4.7431e-05
3.81124e-05
3.26012e-05
3.05708e-05
3.03322e-05
3.13552e-05
3.74583e-05
4.39124e-05
4.72669e-05
5.11042e-05
5.24768e-05
5.2704e-05
5.20049e-05
5.34997e-05
5.66992e-05
5.69342e-05
5.15801e-05
3.86032e-05
2.96435e-05
2.48518e-05
2.31476e-05
2.24979e-05
2.22655e-05
2.24844e-05
2.35197e-05
2.39979e-05
2.38949e-05
2.36452e-05
2.37593e-05
2.43066e-05
2.58101e-05
2.80209e-05
2.90466e-05
2.9634e-05
3.02986e-05
3.12831e-05
3.34107e-05
4.13458e-05
4.70531e-05
4.81453e-05
4.78365e-05
4.77188e-05
4.7372e-05
4.91968e-05
6.44754e-05
7.1037e-05
6.76507e-05
5.08405e-05
3.72815e-05
3.13311e-05
2.81117e-05
2.66365e-05
2.70086e-05
3.14235e-05
3.50855e-05
3.46657e-05
3.95966e-05
7.18653e-05
6.29267e-05
5.92852e-05
6.14388e-05
4.89686e-05
4.56736e-05
4.26656e-05
4.2431e-05
4.58867e-05
4.65295e-05
5.46099e-05
5.54755e-05
6.31325e-05
6.40226e-05
7.28736e-05
7.33006e-05
7.77184e-05
9.73378e-05
0.000111163
0.000170298
0.00026009
0.000225669
0.000207403
0.000189425
0.000180582
0.000174217
0.000154866
0.000117871
0.000101324
9.72516e-05
9.97241e-05
0.000112105
0.000118702
0.000121114
0.000119477
0.000113499
0.000106133
0.000101859
9.27627e-05
7.04967e-05
4.52813e-05
2.96838e-05
1.96062e-05
1.35866e-05
1.07157e-05
1.01032e-05
1.01035e-05
1.04741e-05
1.18896e-05
1.22555e-05
1.39105e-05
1.69667e-05
1.80989e-05
1.98713e-05
2.60141e-05
4.66414e-05
7.21421e-05
8.89422e-05
9.3972e-05
9.5836e-05
0.000105417
0.00010795
9.95631e-05
7.34328e-05
5.65453e-05
4.9174e-05
4.79714e-05
4.87152e-05
4.90702e-05
5.13775e-05
5.35677e-05
5.49917e-05
5.51589e-05
5.52084e-05
5.40761e-05
4.65646e-05
3.81461e-05
2.94713e-05
2.30516e-05
2.16256e-05
2.36427e-05
3.04529e-05
4.88097e-05
7.74079e-05
8.72064e-05
8.40469e-05
6.30106e-05
4.54456e-05
3.83751e-05
3.47892e-05
3.1762e-05
3.0704e-05
3.0125e-05
2.88918e-05
2.73912e-05
2.64822e-05
2.62794e-05
2.65308e-05
2.66251e-05
2.63016e-05
2.55658e-05
2.51326e-05
2.50586e-05
2.51808e-05
2.56962e-05
3.06941e-05
3.76621e-05
3.93804e-05
3.92178e-05
3.87543e-05
3.85897e-05
3.99159e-05
4.29788e-05
4.39315e-05
4.35376e-05
4.16155e-05
3.62194e-05
3.15886e-05
3.02524e-05
2.96448e-05
3.07392e-05
3.30448e-05
3.36447e-05
3.36011e-05
3.37231e-05
3.49969e-05
3.96268e-05
4.33957e-05
4.35172e-05
4.16309e-05
3.90343e-05
3.90282e-05
3.95122e-05
4.14973e-05
4.32565e-05
4.48396e-05
4.67071e-05
4.77082e-05
4.75441e-05
4.64828e-05
4.86889e-05
5.21535e-05
5.15589e-05
4.35921e-05
3.55326e-05
3.19404e-05
3.07463e-05
3.07668e-05
3.21736e-05
3.78526e-05
4.35545e-05
4.80689e-05
5.13803e-05
5.23452e-05
5.25873e-05
5.20537e-05
5.37411e-05
5.74953e-05
5.76366e-05
5.21729e-05
3.91393e-05
2.98894e-05
2.48857e-05
2.31293e-05
2.24824e-05
2.223e-05
2.23041e-05
2.32059e-05
2.38595e-05
2.38751e-05
2.37167e-05
2.36584e-05
2.38504e-05
2.48764e-05
2.71959e-05
2.84793e-05
2.90912e-05
2.98792e-05
3.0734e-05
3.25678e-05
4.02785e-05
4.61919e-05
4.75685e-05
4.75971e-05
4.76265e-05
4.73283e-05
4.95221e-05
6.42605e-05
6.98034e-05
6.64466e-05
5.01547e-05
3.69761e-05
3.07917e-05
2.71698e-05
2.57752e-05
2.70367e-05
3.16519e-05
3.51241e-05
5.1294e-05
5.08614e-05
6.52246e-05
6.25456e-05
5.49497e-05
5.22969e-05
3.92163e-05
3.69518e-05
3.57415e-05
3.63518e-05
3.84489e-05
4.12011e-05
4.77177e-05
5.5677e-05
6.90298e-05
7.57305e-05
9.04696e-05
8.86991e-05
8.39983e-05
8.37067e-05
8.77995e-05
0.00012761
0.000249339
0.000223298
0.000205042
0.000193784
0.000176465
0.000170829
0.00017101
0.000161963
0.000142773
0.000133195
0.00013464
0.000135538
0.000133041
0.000128513
0.000119764
0.000112014
0.000100974
8.87691e-05
6.33358e-05
4.28481e-05
2.87214e-05
1.94308e-05
1.33258e-05
1.00558e-05
8.91064e-06
8.99406e-06
9.15538e-06
9.85455e-06
1.1295e-05
1.13694e-05
1.26343e-05
1.66158e-05
1.81169e-05
2.02953e-05
2.65031e-05
4.83794e-05
7.1143e-05
8.51728e-05
9.26903e-05
9.94762e-05
0.000107204
0.000107524
9.75154e-05
7.36756e-05
5.69711e-05
5.03904e-05
4.85553e-05
4.82829e-05
4.8585e-05
5.03925e-05
5.2291e-05
5.41473e-05
5.51e-05
5.54534e-05
5.45048e-05
4.71136e-05
3.80189e-05
2.88938e-05
2.26298e-05
2.12876e-05
2.32802e-05
3.00905e-05
4.83741e-05
7.89429e-05
8.94684e-05
8.57289e-05
6.30005e-05
4.51987e-05
3.81434e-05
3.43046e-05
3.17583e-05
3.07053e-05
3.03948e-05
2.96031e-05
2.80929e-05
2.67166e-05
2.60852e-05
2.62571e-05
2.67904e-05
2.68147e-05
2.6311e-05
2.55005e-05
2.52523e-05
2.52594e-05
2.58252e-05
3.13921e-05
3.77239e-05
3.90342e-05
3.87551e-05
3.83045e-05
3.82396e-05
3.99343e-05
4.32422e-05
4.41843e-05
4.3485e-05
4.10253e-05
3.61932e-05
3.10497e-05
2.96198e-05
2.86099e-05
2.89876e-05
3.10292e-05
3.20543e-05
3.2053e-05
3.21037e-05
3.26312e-05
3.46711e-05
4.14945e-05
4.44053e-05
4.42932e-05
4.30758e-05
4.08147e-05
4.0899e-05
4.19997e-05
4.33035e-05
4.44776e-05
4.64697e-05
4.79494e-05
4.72995e-05
4.74542e-05
5.23645e-05
5.31981e-05
4.92182e-05
3.90105e-05
3.38975e-05
3.17172e-05
3.13507e-05
3.1537e-05
3.33857e-05
3.80075e-05
4.3368e-05
4.83687e-05
5.14405e-05
5.23172e-05
5.26456e-05
5.24794e-05
5.43136e-05
5.81862e-05
5.82913e-05
5.31042e-05
4.02316e-05
3.05097e-05
2.51604e-05
2.31557e-05
2.25266e-05
2.22533e-05
2.22926e-05
2.31434e-05
2.37832e-05
2.38666e-05
2.38182e-05
2.36557e-05
2.36614e-05
2.45321e-05
2.67747e-05
2.80112e-05
2.85084e-05
2.92025e-05
3.01212e-05
3.18578e-05
3.95361e-05
4.57111e-05
4.70583e-05
4.72012e-05
4.75769e-05
4.72517e-05
4.96267e-05
6.42816e-05
6.88877e-05
6.5352e-05
4.95166e-05
3.68754e-05
3.00938e-05
2.64212e-05
2.57179e-05
2.95005e-05
3.21727e-05
3.52912e-05
5.70585e-05
5.30056e-05
5.44738e-05
5.51121e-05
4.62598e-05
4.4118e-05
3.56731e-05
3.4855e-05
3.4232e-05
3.63505e-05
3.79156e-05
3.84069e-05
3.94872e-05
4.41741e-05
4.49398e-05
5.94538e-05
6.07219e-05
8.00617e-05
8.84455e-05
8.60583e-05
8.47217e-05
9.59817e-05
0.00022294
0.000204522
0.000188611
0.000183208
0.000170706
0.000160927
0.000163583
0.000164949
0.00016246
0.000154768
0.000148521
0.000138456
0.000130357
0.000119471
0.00010527
9.40867e-05
7.73265e-05
5.62573e-05
3.96397e-05
2.70167e-05
1.85511e-05
1.28767e-05
9.43717e-06
8.03326e-06
7.81754e-06
7.9146e-06
8.14038e-06
8.85431e-06
1.03181e-05
1.01856e-05
1.06566e-05
1.52297e-05
1.74442e-05
2.01809e-05
2.70274e-05
5.0339e-05
7.00583e-05
8.2701e-05
9.23723e-05
0.000102658
0.000108357
0.000107631
9.58131e-05
7.38798e-05
5.75465e-05
5.05596e-05
4.85918e-05
4.75174e-05
4.79634e-05
4.91061e-05
5.0989e-05
5.35569e-05
5.51359e-05
5.58388e-05
5.51057e-05
4.74212e-05
3.74246e-05
2.81724e-05
2.19793e-05
2.06283e-05
2.2619e-05
2.97292e-05
4.81354e-05
8.04087e-05
9.17492e-05
8.76615e-05
6.32296e-05
4.51321e-05
3.77032e-05
3.4144e-05
3.20536e-05
3.08711e-05
3.07999e-05
3.05451e-05
2.92502e-05
2.74977e-05
2.61667e-05
2.60055e-05
2.6738e-05
2.7271e-05
2.71817e-05
2.6512e-05
2.57062e-05
2.54324e-05
2.62935e-05
3.27265e-05
3.78939e-05
3.86603e-05
3.8314e-05
3.79565e-05
3.81053e-05
4.02014e-05
4.33715e-05
4.43919e-05
4.34464e-05
4.0004e-05
3.59584e-05
3.0595e-05
2.8982e-05
2.79437e-05
2.79146e-05
2.92358e-05
3.05964e-05
3.06306e-05
3.06746e-05
3.09017e-05
3.18119e-05
3.67051e-05
4.29648e-05
4.46067e-05
4.47231e-05
4.41702e-05
4.25098e-05
4.26843e-05
4.34773e-05
4.40822e-05
4.5907e-05
4.65741e-05
4.64995e-05
5.17121e-05
5.40416e-05
5.25408e-05
4.22356e-05
3.5977e-05
3.31949e-05
3.2234e-05
3.21514e-05
3.23199e-05
3.42449e-05
3.7404e-05
4.30666e-05
4.84297e-05
5.13215e-05
5.22609e-05
5.29085e-05
5.32307e-05
5.46692e-05
5.84545e-05
5.86718e-05
5.43369e-05
4.19389e-05
3.13617e-05
2.56139e-05
2.32734e-05
2.27612e-05
2.24023e-05
2.23824e-05
2.32227e-05
2.38724e-05
2.39744e-05
2.3915e-05
2.37085e-05
2.36781e-05
2.45794e-05
2.6818e-05
2.7787e-05
2.82985e-05
2.87545e-05
2.95741e-05
3.13739e-05
3.93107e-05
4.55103e-05
4.68269e-05
4.70264e-05
4.76159e-05
4.72883e-05
4.98991e-05
6.37318e-05
6.77631e-05
6.41436e-05
4.87799e-05
3.66316e-05
2.99485e-05
2.63254e-05
2.74817e-05
3.24733e-05
3.48905e-05
4.0724e-05
5.62715e-05
5.37625e-05
4.93674e-05
4.90682e-05
4.13818e-05
3.88923e-05
3.39627e-05
3.32514e-05
3.31102e-05
3.49356e-05
3.66411e-05
3.68018e-05
3.74078e-05
4.14132e-05
4.13289e-05
4.85237e-05
4.64067e-05
5.27507e-05
5.11184e-05
6.93513e-05
7.55774e-05
8.67142e-05
0.00019475
0.000181421
0.000166575
0.000159386
0.000154503
0.000145582
0.00014542
0.000149992
0.000150317
0.000147726
0.000140082
0.000127099
0.000115765
0.000100321
8.54243e-05
6.8474e-05
5.10141e-05
3.63057e-05
2.51921e-05
1.72488e-05
1.2092e-05
8.85005e-06
7.24396e-06
6.97172e-06
7.08846e-06
7.26189e-06
7.75416e-06
8.31499e-06
9.90019e-06
9.90374e-06
9.93773e-06
1.31412e-05
1.60029e-05
1.96483e-05
2.78282e-05
5.31629e-05
7.00663e-05
8.14242e-05
9.40616e-05
0.000104787
0.000108625
0.00010751
9.3912e-05
7.37341e-05
5.81436e-05
5.06467e-05
4.80692e-05
4.68177e-05
4.73822e-05
4.80005e-05
4.97789e-05
5.31647e-05
5.5353e-05
5.63293e-05
5.56322e-05
4.76267e-05
3.6893e-05
2.72529e-05
2.10141e-05
1.97095e-05
2.18803e-05
2.95099e-05
4.78507e-05
8.19128e-05
9.40563e-05
8.98314e-05
6.39155e-05
4.51409e-05
3.72863e-05
3.40881e-05
3.25942e-05
3.12604e-05
3.1151e-05
3.13005e-05
3.05675e-05
2.88615e-05
2.68022e-05
2.59427e-05
2.63528e-05
2.74582e-05
2.76455e-05
2.71915e-05
2.61776e-05
2.57412e-05
2.74188e-05
3.40313e-05
3.80617e-05
3.83466e-05
3.79308e-05
3.76683e-05
3.82457e-05
4.06749e-05
4.34569e-05
4.4498e-05
4.3421e-05
3.89406e-05
3.51628e-05
3.02049e-05
2.80491e-05
2.73699e-05
2.72026e-05
2.7651e-05
2.9236e-05
2.94739e-05
2.94863e-05
2.95367e-05
2.98833e-05
3.17629e-05
3.77609e-05
4.29657e-05
4.43057e-05
4.50401e-05
4.5285e-05
4.52487e-05
4.54134e-05
4.46873e-05
4.49126e-05
4.57672e-05
5.14974e-05
5.42508e-05
5.32985e-05
4.40541e-05
3.69579e-05
3.45159e-05
3.31693e-05
3.24369e-05
3.22781e-05
3.24009e-05
3.43242e-05
3.71999e-05
4.26951e-05
4.84005e-05
5.09744e-05
5.21403e-05
5.34485e-05
5.40961e-05
5.50245e-05
5.828e-05
5.89493e-05
5.60612e-05
4.41503e-05
3.23865e-05
2.61091e-05
2.35017e-05
2.29442e-05
2.26051e-05
2.25803e-05
2.34537e-05
2.44735e-05
2.4296e-05
2.4054e-05
2.38262e-05
2.3797e-05
2.48674e-05
2.70529e-05
2.78216e-05
2.81433e-05
2.85029e-05
2.90688e-05
3.07526e-05
3.91247e-05
4.51533e-05
4.65561e-05
4.70056e-05
4.76177e-05
4.7344e-05
5.02256e-05
6.33619e-05
6.68253e-05
6.29468e-05
4.79789e-05
3.61946e-05
2.95811e-05
2.66014e-05
2.7954e-05
3.2771e-05
4.77662e-05
4.73503e-05
5.2748e-05
5.23356e-05
4.67916e-05
4.53293e-05
3.91166e-05
3.58455e-05
3.28247e-05
3.22738e-05
3.28861e-05
3.50836e-05
3.73616e-05
3.65516e-05
3.79967e-05
3.70239e-05
3.90749e-05
4.21895e-05
4.11139e-05
4.43146e-05
4.33248e-05
5.35916e-05
5.58031e-05
6.65625e-05
0.000165095
0.000152985
0.000142696
0.00013371
0.000129278
0.000122728
0.000122444
0.000124429
0.00012442
0.00012249
0.000116042
0.000104055
9.06934e-05
7.74354e-05
6.22406e-05
4.69779e-05
3.26009e-05
2.27085e-05
1.57373e-05
1.10136e-05
8.1144e-06
6.60731e-06
6.11432e-06
6.36871e-06
6.72229e-06
6.92236e-06
7.66501e-06
8.14534e-06
9.58269e-06
9.8708e-06
1.00132e-05
1.21057e-05
1.44246e-05
1.873e-05
2.80823e-05
5.55174e-05
7.12855e-05
8.09727e-05
9.54091e-05
0.000106093
0.000108599
0.000107035
9.24306e-05
7.28026e-05
5.84175e-05
5.07199e-05
4.75795e-05
4.65879e-05
4.70673e-05
4.74434e-05
4.91295e-05
5.29763e-05
5.57611e-05
5.69932e-05
5.61263e-05
4.7383e-05
3.5983e-05
2.60844e-05
2.00979e-05
1.91763e-05
2.16393e-05
2.95316e-05
4.76032e-05
8.32444e-05
9.6332e-05
9.21969e-05
6.51017e-05
4.53199e-05
3.72528e-05
3.41462e-05
3.31684e-05
3.1624e-05
3.1422e-05
3.17429e-05
3.16502e-05
3.05787e-05
2.82276e-05
2.61527e-05
2.59459e-05
2.69067e-05
2.74975e-05
2.71524e-05
2.63989e-05
2.62653e-05
2.96445e-05
3.53783e-05
3.80726e-05
3.79892e-05
3.76089e-05
3.75183e-05
3.85412e-05
4.16667e-05
4.36161e-05
4.44864e-05
4.32788e-05
3.81143e-05
3.42496e-05
2.98826e-05
2.73805e-05
2.69375e-05
2.66456e-05
2.67338e-05
2.74415e-05
2.81011e-05
2.82792e-05
2.82775e-05
2.84142e-05
2.91831e-05
3.14874e-05
3.73492e-05
4.17355e-05
4.3799e-05
4.53319e-05
4.63559e-05
4.64842e-05
4.59393e-05
4.60531e-05
5.06008e-05
5.29557e-05
5.23186e-05
4.37399e-05
3.63155e-05
3.43773e-05
3.38274e-05
3.28992e-05
3.21701e-05
3.1925e-05
3.2062e-05
3.41725e-05
3.70067e-05
4.22555e-05
4.80769e-05
5.07251e-05
5.20823e-05
5.4308e-05
5.49168e-05
5.51381e-05
5.73125e-05
5.92298e-05
5.78931e-05
4.67515e-05
3.34905e-05
2.65455e-05
2.38257e-05
2.31668e-05
2.27484e-05
2.26466e-05
2.34339e-05
2.54352e-05
2.51312e-05
2.43037e-05
2.40832e-05
2.41834e-05
2.59299e-05
2.75887e-05
2.79902e-05
2.81652e-05
2.83191e-05
2.86507e-05
3.01766e-05
3.8651e-05
4.4657e-05
4.59812e-05
4.69691e-05
4.75181e-05
4.7136e-05
5.02091e-05
6.32067e-05
6.59091e-05
6.19076e-05
4.71655e-05
3.56589e-05
2.93127e-05
2.69195e-05
2.78176e-05
3.20335e-05
5.19303e-05
4.77482e-05
5.1267e-05
5.01982e-05
4.51901e-05
4.31371e-05
3.74265e-05
3.49004e-05
3.23818e-05
3.24204e-05
3.36747e-05
3.74875e-05
3.90323e-05
3.96685e-05
3.9177e-05
3.77998e-05
3.90692e-05
3.98911e-05
4.01042e-05
4.05824e-05
4.05224e-05
4.56454e-05
4.7607e-05
5.31012e-05
0.00012912
0.000117577
0.000107994
0.000101344
9.82354e-05
9.41377e-05
9.41618e-05
9.52011e-05
9.46966e-05
9.20572e-05
8.17098e-05
6.81541e-05
5.56345e-05
4.44223e-05
3.41934e-05
2.55145e-05
1.8189e-05
1.34727e-05
9.66265e-06
7.15241e-06
5.86672e-06
5.45363e-06
5.50247e-06
6.06392e-06
6.24883e-06
6.44379e-06
7.55027e-06
8.29646e-06
9.52802e-06
1.02823e-05
1.06238e-05
1.23183e-05
1.4173e-05
1.7785e-05
2.7975e-05
5.63087e-05
7.35341e-05
8.13761e-05
9.56263e-05
0.000106181
0.000108535
0.000106724
9.1378e-05
7.18471e-05
5.83422e-05
5.08713e-05
4.74598e-05
4.66386e-05
4.70299e-05
4.72691e-05
4.88747e-05
5.31631e-05
5.64854e-05
5.77773e-05
5.64859e-05
4.68048e-05
3.53908e-05
2.55489e-05
1.97677e-05
1.89827e-05
2.16072e-05
2.98881e-05
4.75329e-05
8.438e-05
9.86363e-05
9.47701e-05
6.68615e-05
4.57434e-05
3.72964e-05
3.4376e-05
3.33221e-05
3.19296e-05
3.17275e-05
3.18852e-05
3.21449e-05
3.22049e-05
3.04319e-05
2.71995e-05
2.59482e-05
2.61779e-05
2.68066e-05
2.67868e-05
2.65203e-05
2.75164e-05
3.21255e-05
3.63621e-05
3.79324e-05
3.77332e-05
3.7443e-05
3.75051e-05
3.89797e-05
4.26842e-05
4.4092e-05
4.44214e-05
4.29775e-05
3.75262e-05
3.36769e-05
2.96859e-05
2.72795e-05
2.66423e-05
2.65432e-05
2.61836e-05
2.62519e-05
2.64257e-05
2.67501e-05
2.6905e-05
2.70105e-05
2.74754e-05
2.85524e-05
3.17722e-05
3.54143e-05
3.88219e-05
4.29808e-05
4.45814e-05
4.49003e-05
4.5337e-05
4.84114e-05
5.01112e-05
4.93111e-05
4.18834e-05
3.4156e-05
3.30672e-05
3.33103e-05
3.30165e-05
3.16995e-05
3.08204e-05
3.0617e-05
3.09282e-05
3.39109e-05
3.67942e-05
4.17639e-05
4.74266e-05
4.99855e-05
5.2187e-05
5.51405e-05
5.56265e-05
5.50118e-05
5.58057e-05
5.97306e-05
5.96376e-05
4.93126e-05
3.4347e-05
2.67669e-05
2.42993e-05
2.35118e-05
2.29333e-05
2.26607e-05
2.3268e-05
2.59664e-05
2.64157e-05
2.54243e-05
2.51038e-05
2.62122e-05
2.79372e-05
2.88823e-05
2.86298e-05
2.83847e-05
2.8253e-05
2.83831e-05
2.98704e-05
3.85888e-05
4.41446e-05
4.52798e-05
4.67269e-05
4.73277e-05
4.69163e-05
5.02565e-05
6.26465e-05
6.49775e-05
6.07146e-05
4.66315e-05
3.52407e-05
3.05039e-05
2.7886e-05
3.08074e-05
3.91365e-05
5.14973e-05
4.9413e-05
4.92307e-05
4.82695e-05
4.49153e-05
4.19321e-05
3.6657e-05
3.3684e-05
3.25363e-05
3.30998e-05
3.43563e-05
3.67881e-05
3.77115e-05
3.99232e-05
4.08495e-05
3.93524e-05
4.34452e-05
4.06922e-05
4.19235e-05
4.11236e-05
4.19627e-05
4.64869e-05
4.62698e-05
4.68014e-05
8.63289e-05
7.6713e-05
6.8697e-05
6.38597e-05
6.07411e-05
5.85061e-05
5.9038e-05
5.97938e-05
5.87728e-05
5.35434e-05
4.45751e-05
3.66784e-05
2.97904e-05
2.40977e-05
1.86341e-05
1.39343e-05
1.04121e-05
8.24069e-06
6.1913e-06
5.0428e-06
4.73948e-06
4.84283e-06
4.91992e-06
5.2895e-06
5.34141e-06
5.50477e-06
7.20022e-06
8.55898e-06
9.52279e-06
1.14027e-05
1.21486e-05
1.36003e-05
1.47576e-05
1.75917e-05
2.76432e-05
5.60885e-05
7.62097e-05
8.27334e-05
9.52207e-05
0.000105725
0.000107962
0.000105695
9.05989e-05
7.14409e-05
5.78966e-05
5.11355e-05
4.76184e-05
4.68565e-05
4.71314e-05
4.74885e-05
4.91617e-05
5.3728e-05
5.74204e-05
5.84494e-05
5.66016e-05
4.57818e-05
3.40411e-05
2.44472e-05
1.92841e-05
1.8912e-05
2.20099e-05
3.09081e-05
4.79437e-05
8.51298e-05
0.000100846
9.75993e-05
6.9342e-05
4.6363e-05
3.75321e-05
3.44095e-05
3.31206e-05
3.24525e-05
3.23766e-05
3.21195e-05
3.21763e-05
3.28447e-05
3.27253e-05
2.93955e-05
2.67792e-05
2.60259e-05
2.62301e-05
2.65494e-05
2.69614e-05
3.00409e-05
3.42716e-05
3.70935e-05
3.76734e-05
3.7486e-05
3.73561e-05
3.77081e-05
3.95366e-05
4.34506e-05
4.47003e-05
4.4444e-05
4.23383e-05
3.70542e-05
3.33668e-05
2.95181e-05
2.74023e-05
2.65291e-05
2.66017e-05
2.62233e-05
2.55963e-05
2.52545e-05
2.52664e-05
2.53552e-05
2.56724e-05
2.63196e-05
2.69276e-05
2.82686e-05
3.08419e-05
3.34262e-05
3.62043e-05
3.71899e-05
3.79987e-05
4.25465e-05
4.48899e-05
4.41105e-05
3.84366e-05
3.20496e-05
3.08224e-05
3.186e-05
3.24802e-05
3.10613e-05
2.81345e-05
2.77616e-05
2.80003e-05
2.90529e-05
3.37688e-05
3.65782e-05
4.11134e-05
4.68115e-05
4.91968e-05
5.24398e-05
5.57992e-05
5.60456e-05
5.41792e-05
5.39662e-05
6.00623e-05
6.11369e-05
5.15052e-05
3.49332e-05
2.6849e-05
2.48743e-05
2.38763e-05
2.31356e-05
2.25875e-05
2.30102e-05
2.57948e-05
2.74809e-05
2.68442e-05
2.63533e-05
2.74303e-05
2.93433e-05
2.97072e-05
2.9337e-05
2.85226e-05
2.82063e-05
2.82035e-05
2.98015e-05
3.87585e-05
4.3971e-05
4.49946e-05
4.66884e-05
4.73199e-05
4.68729e-05
5.03796e-05
6.21418e-05
6.45495e-05
5.99455e-05
4.61033e-05
3.52781e-05
3.22734e-05
3.00671e-05
4.41175e-05
4.45088e-05
5.0834e-05
5.0163e-05
4.71348e-05
4.60837e-05
4.27732e-05
4.01487e-05
3.58729e-05
3.31336e-05
3.30951e-05
3.44825e-05
3.62997e-05
3.81299e-05
4.0729e-05
4.01453e-05
4.08646e-05
4.11368e-05
4.39667e-05
4.34346e-05
4.51998e-05
4.45558e-05
4.50605e-05
4.5606e-05
4.61445e-05
4.48974e-05
4.78133e-05
4.30781e-05
3.86342e-05
3.55498e-05
3.28465e-05
3.07865e-05
3.07616e-05
3.06195e-05
2.92377e-05
2.57726e-05
2.13267e-05
1.80797e-05
1.49081e-05
1.21917e-05
9.45865e-06
7.32533e-06
6.2587e-06
5.34916e-06
4.4451e-06
4.10474e-06
4.16486e-06
4.17853e-06
4.17159e-06
4.375e-06
4.60236e-06
4.97496e-06
6.88943e-06
8.50334e-06
9.41068e-06
1.18727e-05
1.42373e-05
1.56101e-05
1.61693e-05
1.80428e-05
2.67971e-05
5.38768e-05
7.70685e-05
8.54157e-05
9.44995e-05
0.000104096
0.000106819
0.000104312
9.00806e-05
7.16693e-05
5.76562e-05
5.18233e-05
4.82748e-05
4.75435e-05
4.78067e-05
4.84693e-05
5.001e-05
5.47332e-05
5.8302e-05