/*--------------------------------*- C++ -*----------------------------------*\
| =========                 |                                                 |
| \\      /  F ield         | OpenFOAM: The Open Source CFD Toolbox           |
|  \\    /   O peration     | Version:  2.4.0                                 |
|   \\  /    A nd           | Web:      www.OpenFOAM.org                      |
|    \\/     M anipulation  |                                                 |
\*---------------------------------------------------------------------------*/
FoamFile
{
    version     2.0;
    format      ascii;
    class       volScalarField;
    location    "0.129";
    object      k;
}
// * * * * * * * * * * * * * * * * * * * * * * * * * * * * * * * * * * * * * //

dimensions      [0 2 -2 0 0 0 0];

internalField   nonuniform List<scalar> 
17600
(
9.29802
7.41259
5.13363
3.90897
3.37257
2.9137
2.72576
2.46217
2.33079
2.22489
2.0933
2.08243
1.93018
1.99834
1.83216
1.92207
1.83138
1.84752
1.91333
2.39714
4.51511
6.20253
5.85288
5.02644
4.46019
3.88026
3.63743
3.30346
3.10428
2.98524
2.77818
2.75673
2.57343
2.6268
2.43698
2.51407
2.41034
2.40384
2.48968
2.53429
1.33563
3.27235
4.01306
3.95105
3.7863
3.42711
3.24797
3.01578
2.82338
2.74636
2.55245
2.53033
2.37749
2.40156
2.25821
2.29118
2.21002
2.18864
2.2323
2.15144
0.210063
1.18583
1.95476
2.30056
2.52927
2.51111
2.46785
2.41212
2.28419
2.25537
2.13439
2.11935
2.01327
2.01947
1.93235
1.93247
1.8816
1.85514
1.85338
1.78255
0.0263438
0.250271
0.67428
0.938241
1.25079
1.44009
1.51669
1.61913
1.60925
1.62988
1.59579
1.60339
1.56379
1.56196
1.53734
1.51846
1.49992
1.47832
1.44245
1.42015
0.00278738
0.0417913
0.157013
0.250869
0.405819
0.597027
0.672403
0.829688
0.885786
0.971554
0.994031
1.03977
1.06081
1.0624
1.08865
1.07059
1.08765
1.07396
1.03919
1.04231
0.000293292
0.00614192
0.02615
0.0485286
0.0818371
0.166099
0.205624
0.290763
0.348737
0.410209
0.472391
0.508851
0.576149
0.585322
0.641138
0.637187
0.670862
0.668945
0.653335
0.661297
5.3789e-05
0.000858972
0.00366153
0.00687823
0.0123002
0.0305153
0.0419736
0.0671191
0.0956055
0.113736
0.153304
0.173514
0.221096
0.231842
0.277482
0.283699
0.313459
0.325842
0.323615
0.331199
2.7971e-05
0.000138364
0.000579311
0.000918477
0.00155079
0.00421165
0.00610772
0.0106839
0.0175933
0.0217649
0.0319971
0.0390228
0.056617
0.061713
0.0814338
0.0855699
0.0980999
0.110671
0.110519
0.116235
2.39749e-05
4.51493e-05
0.000155641
0.000183003
0.000237928
0.000572679
0.000827656
0.00149637
0.00256078
0.00319537
0.00470153
0.0059964
0.00954334
0.010591
0.0156054
0.0166084
0.0197688
0.0242603
0.0243362
0.0255895
2.27811e-05
3.45159e-05
8.64943e-05
8.80567e-05
8.99272e-05
0.000127667
0.000168938
0.000282056
0.000458234
0.000535508
0.000724938
0.000849939
0.00124589
0.00131603
0.0020055
0.00215241
0.00265807
0.00333796
0.00343747
0.0035916
2.17149e-05
3.02895e-05
5.39132e-05
8.25975e-05
8.12768e-05
8.33692e-05
8.98848e-05
0.000109254
0.000119701
0.000131961
0.000196894
0.000228633
0.000299374
0.000310364
0.000390665
0.000425435
0.000450269
0.000448569
0.000456896
0.000501904
2.11752e-05
2.91167e-05
4.87352e-05
9.76698e-05
9.00152e-05
8.36735e-05
8.24536e-05
7.68305e-05
7.64342e-05
8.7134e-05
0.000146424
0.000184873
0.000250274
0.000257209
0.000268509
0.000253995
0.000208775
0.000202715
0.000208465
0.000232838
2.15447e-05
3.04053e-05
6.41514e-05
9.355e-05
7.93746e-05
6.68416e-05
6.40479e-05
6.67017e-05
7.92734e-05
0.000116842
0.000152613
0.000178295
0.000190132
0.000179609
0.000166935
0.000147132
0.000145985
0.000164357
0.000201099
0.000213073
2.24153e-05
3.04975e-05
6.06046e-05
6.11813e-05
5.22294e-05
5.12791e-05
5.41986e-05
6.57392e-05
9.84632e-05
0.000101113
0.000103581
0.000102593
0.000100576
9.6962e-05
9.83278e-05
0.000105912
0.000139655
0.000162239
0.000169669
0.000170545
2.12085e-05
2.97821e-05
3.39884e-05
4.07708e-05
5.42064e-05
5.93427e-05
6.07291e-05
6.88491e-05
7.30881e-05
6.81343e-05
6.68395e-05
6.72016e-05
7.40997e-05
8.03212e-05
8.98584e-05
0.000114253
0.000118266
0.000114887
0.000117111
0.000115432
2.06341e-05
2.58037e-05
3.1909e-05
4.8911e-05
5.91496e-05
5.81326e-05
5.38646e-05
5.55761e-05
5.55143e-05
5.62545e-05
6.30484e-05
6.84497e-05
7.77446e-05
7.85783e-05
8.27114e-05
8.42744e-05
8.26542e-05
8.32077e-05
8.92784e-05
0.000103392
2.05968e-05
2.68082e-05
3.31472e-05
5.14308e-05
5.20281e-05
5.14214e-05
4.9594e-05
4.96166e-05
5.04264e-05
5.6799e-05
6.19713e-05
6.78451e-05
6.81097e-05
6.52406e-05
6.54065e-05
6.47367e-05
6.43462e-05
7.20363e-05
7.48841e-05
7.68817e-05
2.08543e-05
2.61667e-05
3.04802e-05
4.14523e-05
4.86041e-05
4.87132e-05
4.76978e-05
4.64211e-05
4.6959e-05
4.88802e-05
5.23978e-05
5.47692e-05
5.7336e-05
5.71386e-05
5.77172e-05
5.81726e-05
5.97121e-05
6.52747e-05
6.42786e-05
7.50229e-05
2.07416e-05
2.49831e-05
2.87521e-05
4.49505e-05
4.73761e-05
4.73896e-05
4.5723e-05
4.55926e-05
4.69233e-05
4.81874e-05
5.13293e-05
5.25579e-05
5.30934e-05
5.40584e-05
5.39968e-05
5.45093e-05
5.69337e-05
5.71442e-05
5.74483e-05
7.02615e-05
2.05847e-05
2.42094e-05
3.30573e-05
4.25333e-05
4.25319e-05
4.20641e-05
4.19135e-05
4.62522e-05
4.8452e-05
4.83892e-05
4.85114e-05
4.82875e-05
4.83752e-05
4.89063e-05
5.19223e-05
5.4681e-05
5.50065e-05
5.46619e-05
5.44661e-05
6.44603e-05
2.06484e-05
2.57294e-05
3.47841e-05
3.50265e-05
3.52243e-05
3.77338e-05
4.73391e-05
4.93979e-05
4.84775e-05
4.49028e-05
4.43136e-05
4.41243e-05
4.52847e-05
5.13753e-05
5.62092e-05
5.60039e-05
5.39965e-05
5.17523e-05
5.23434e-05
6.3419e-05
2.06717e-05
2.76912e-05
3.1009e-05
3.18535e-05
3.56845e-05
4.7989e-05
5.01067e-05
4.79835e-05
4.34352e-05
4.24594e-05
4.32581e-05
4.76223e-05
5.34603e-05
5.63774e-05
5.56706e-05
5.27089e-05
5.02437e-05
5.03324e-05
5.17773e-05
5.61489e-05
2.08028e-05
2.733e-05
2.97999e-05
3.49125e-05
4.59505e-05
5.02923e-05
4.85326e-05
4.34805e-05
4.28042e-05
4.51527e-05
5.40436e-05
5.73021e-05
5.75184e-05
5.62843e-05
5.21783e-05
5.15501e-05
5.20737e-05
5.76666e-05
6.06413e-05
6.74222e-05
2.09947e-05
2.68367e-05
3.12372e-05
4.37534e-05
4.90587e-05
4.87927e-05
4.534e-05
4.48631e-05
4.87153e-05
5.73668e-05
6.03555e-05
5.92413e-05
5.60145e-05
5.55171e-05
5.55362e-05
5.71407e-05
6.45995e-05
6.77552e-05
6.81576e-05
6.95596e-05
2.12332e-05
2.77957e-05
3.44914e-05
4.69843e-05
4.88504e-05
4.85345e-05
4.84435e-05
5.24611e-05
6.01802e-05
6.14179e-05
6.05802e-05
5.823e-05
5.91875e-05
6.626e-05
6.84565e-05
7.12688e-05
7.2987e-05
7.29128e-05
7.46403e-05
8.24697e-05
2.15236e-05
3.07502e-05
3.49508e-05
4.53637e-05
5.34804e-05
5.60192e-05
5.99008e-05
6.4633e-05
6.51314e-05
6.50323e-05
6.5076e-05
6.6726e-05
7.90833e-05
8.24797e-05
8.11159e-05
8.21404e-05
8.46273e-05
9.17963e-05
0.000113042
0.000175321
2.18592e-05
3.09012e-05
3.58797e-05
5.25527e-05
6.75434e-05
6.9911e-05
7.28509e-05
7.39592e-05
7.60986e-05
7.9788e-05
8.87699e-05
9.82658e-05
0.000102845
0.000105044
0.000109175
0.000125912
0.000160512
0.000234282
0.00039654
0.000832295
2.33888e-05
2.98074e-05
4.2674e-05
7.47044e-05
8.83805e-05
8.98623e-05
9.90314e-05
0.000104144
0.000117411
0.000127005
0.00015353
0.000163702
0.000188009
0.000269457
0.000338872
0.000542368
0.000814342
0.00137863
0.0024359
0.00530198
2.40356e-05
3.22885e-05
7.20574e-05
0.000117084
0.000129353
0.000147904
0.000204932
0.000239657
0.000298375
0.000427025
0.000624609
0.000742063
0.00103972
0.00192984
0.00247212
0.00404017
0.00575267
0.00964516
0.014757
0.0310332
2.43794e-05
4.67543e-05
0.000159151
0.00027241
0.000328687
0.000521671
0.000948048
0.0012877
0.00188951
0.00331248
0.0047401
0.00595281
0.0085784
0.0145727
0.0174988
0.0259448
0.033438
0.0505579
0.0674611
0.124617
2.8797e-05
0.000143337
0.0005592
0.00123646
0.00179461
0.00358829
0.00722096
0.00993045
0.0154572
0.0243327
0.032356
0.0401569
0.0540606
0.0764777
0.0867096
0.114593
0.13626
0.182195
0.219544
0.339575
5.18772e-05
0.000859193
0.00319353
0.00837412
0.0132315
0.0268402
0.0484122
0.0626663
0.0942514
0.120784
0.154101
0.177136
0.219553
0.266056
0.288275
0.343491
0.383663
0.453592
0.505482
0.643886
0.000286847
0.00612618
0.023286
0.0544621
0.0846122
0.154313
0.224101
0.273513
0.362303
0.41164
0.480298
0.516477
0.582762
0.631924
0.658542
0.719157
0.761259
0.820171
0.867035
0.980111
0.00276193
0.0420537
0.148458
0.267214
0.402728
0.579637
0.708903
0.804303
0.910808
0.957043
1.01975
1.03774
1.08339
1.10064
1.11841
1.1459
1.17448
1.19842
1.23215
1.29043
0.0260532
0.25433
0.658597
0.957268
1.24267
1.43397
1.54608
1.59529
1.62861
1.61944
1.62022
1.59538
1.59566
1.57445
1.56941
1.55443
1.55665
1.54662
1.55046
1.54489
0.20742
1.187
1.94218
2.3125
2.52366
2.51351
2.47759
2.39187
2.31865
2.22254
2.17675
2.08213
2.05588
1.98494
1.96237
1.90222
1.88073
1.82442
1.79018
1.7273
1.31989
3.27973
4.0075
3.95303
3.78435
3.44069
3.23585
3.00613
2.84979
2.69335
2.60282
2.46865
2.4191
2.30516
2.26691
2.16073
2.11141
1.99801
1.91549
1.78557
4.50168
6.20436
5.85209
5.0261
4.4527
3.90079
3.61002
3.30387
3.11363
2.92744
2.81537
2.66742
2.6007
2.45656
2.40729
2.26036
2.18237
2.01509
1.88605
1.67733
9.28221
7.40598
5.13732
3.9104
3.36451
2.93008
2.70108
2.46088
2.32563
2.18372
2.09861
1.99205
1.93447
1.81066
1.76727
1.63398
1.55014
1.38745
1.25863
1.04952
0.674856
0.644621
0.797067
0.84177
0.886596
0.861818
0.792572
0.77451
0.575697
0.371555
0.264879
0.198613
0.172497
0.166704
0.184535
0.245753
0.287176
0.309114
0.305888
0.297824
0.285333
0.270855
0.239364
0.196199
0.149781
0.07824
0.0351863
0.0163342
0.00809382
0.00439935
0.00287542
0.00219991
0.00184951
0.00181586
0.0018791
0.00202643
0.00233107
0.00300252
0.0033577
0.00401213
0.00573564
0.00613893
0.00681505
0.00766335
0.00798723
0.00834893
0.00912397
0.0115775
0.0172922
0.0620758
0.101425
0.129793
0.152572
0.160074
0.168825
0.182669
0.18049
0.167309
0.122854
0.0933027
0.0772005
0.0603536
0.0516595
0.0521402
0.0687298
0.0831727
0.0801214
0.0692337
0.0634909
0.0525139
0.0396843
0.0334538
0.0363244
0.0574794
0.0662321
0.066022
0.064556
0.0650092
0.067758
0.0902285
0.264867
0.335615
0.269115
0.117296
0.0599128
0.0407397
0.031979
0.0296578
0.0287115
0.0288638
0.0298536
0.0302776
0.03003
0.0282485
0.0264772
0.0268141
0.0270741
0.0277638
0.0289847
0.0300188
0.0365256
0.0454687
0.0468637
0.0451332
0.0417973
0.041548
0.0421046
0.044769
0.0558688
0.094015
0.136496
0.151768
0.150695
0.144792
0.127729
0.109791
0.0977949
0.0781171
0.069874
0.0676763
0.0701408
0.0827067
0.0802919
0.0745833
0.0628854
0.0591883
0.0539708
0.0473526
0.0384662
0.0366203
0.0365373
0.040468
0.0420752
0.0445119
0.0434409
0.041506
0.0399107
0.0390328
0.0381378
0.0382705
0.0384071
0.0379874
0.0356271
0.0339366
0.031484
0.0302308
0.0272408
0.0268205
0.0264287
0.0262842
0.0251572
0.0254721
0.0263616
0.029028
0.0301843
0.0307204
0.0292488
0.0277838
0.0281523
0.0292665
0.0271613
0.0224267
0.019812
0.0167517
0.0147232
0.0142881
0.0143632
0.0142768
0.0137605
0.0134962
0.0135
0.0138292
0.015128
0.0188594
0.025094
0.0320543
0.043909
0.0493603
0.0529404
0.0552758
0.0581829
0.0603371
0.0613852
0.0654717
0.0716763
0.0749849
0.0766387
0.0744722
0.0671083
0.0466811
0.0326205
0.0250117
0.022444
0.0205978
0.0171318
0.0174975
0.0190609
0.0246547
0.0507979
0.518951
1.88332
1.38438
1.20375
1.04427
0.980385
0.947519
0.804483
0.818977
0.821587
0.707151
0.492872
0.334823
0.254713
0.249387
0.307641
0.368105
0.38523
0.373085
0.33336
0.312863
0.288161
0.245188
0.18512
0.1133
0.0531838
0.0256582
0.0129214
0.00673524
0.00385996
0.00259179
0.00203964
0.00178691
0.00165606
0.00167986
0.00181147
0.00199209
0.00243018
0.00317436
0.00356374
0.00438139
0.00616445
0.0066357
0.00762709
0.00848319
0.00885946
0.00933035
0.0100111
0.0125748
0.0189583
0.0591213
0.0935411
0.123353
0.151187
0.161641
0.175089
0.181575
0.177427
0.166191
0.122957
0.094356
0.0817193
0.0638114
0.0528983
0.0523392
0.0648245
0.0811729
0.0801299
0.0694322
0.06549
0.0587338
0.0450533
0.0349837
0.033865
0.0486142
0.0614113
0.0630338
0.0627566
0.0635121
0.0679437
0.0855923
0.250183
0.33983
0.280243
0.121403
0.0606963
0.0413534
0.0319001
0.0291386
0.028387
0.029143
0.0307005
0.0306531
0.0299433
0.0281816
0.0261359
0.0265302
0.0270882
0.0274466
0.0281729
0.0288148
0.0342587
0.044346
0.0464046
0.0452905
0.0417884
0.0409836
0.041316
0.0431108
0.0495283
0.0729344
0.1145
0.133838
0.133501
0.129714
0.116274
0.101271
0.0894541
0.0738809
0.0620183
0.0595251
0.0593174
0.0702224
0.0711844
0.070967
0.0626186
0.058131
0.0546559
0.0500449
0.0411156
0.0372872
0.0357525
0.0370394
0.0374235
0.0393797
0.0386543
0.0367778
0.0370319
0.0406864
0.0407905
0.0405304
0.0398361
0.0384235
0.0350234
0.0328638
0.0295476
0.0277441
0.025669
0.0255127
0.0252462
0.0254964
0.024446
0.0246678
0.0254349
0.028507
0.030003
0.0303143
0.0288804
0.0278869
0.0287347
0.0302485
0.0283755
0.0234059
0.0202888
0.0167377
0.0150133
0.0148737
0.015002
0.0147494
0.014471
0.0145179
0.01497
0.0165588
0.0207341
0.0336569
0.0512945
0.0653142
0.074896
0.077271
0.0771237
0.0741729
0.0726427
0.0698518
0.0691483
0.0696309
0.0731098
0.0761443
0.0778629
0.0763251
0.0676754
0.0534115
0.0346858
0.0270333
0.0231243
0.0223589
0.0196073
0.0175479
0.0192912
0.0228887
0.0520441
0.368262
1.86754
1.5429
1.2887
1.10565
0.959913
0.917904
0.811195
0.754739
0.791229
0.768352
0.666088
0.596404
0.518546
0.504709
0.478596
0.442098
0.42231
0.374863
0.323084
0.286198
0.225582
0.149565
0.0754696
0.037679
0.0194333
0.00986145
0.00552689
0.00334336
0.00232634
0.00190083
0.00166648
0.00159116
0.00151538
0.00155335
0.00175432
0.00197121
0.00247707
0.00333613
0.00378584
0.00492198
0.00664507
0.00708564
0.00834752
0.00925879
0.00965906
0.0103719
0.0111949
0.0141909
0.0213568
0.0568796
0.0874148
0.114737
0.147519
0.160172
0.179471
0.181837
0.175507
0.163076
0.120675
0.095611
0.0857214
0.0673498
0.0545638
0.052792
0.0613359
0.0788163
0.0795406
0.069791
0.0655856
0.0634346
0.0517464
0.0376089
0.0330399
0.0399595
0.0550123
0.0593223
0.0601242
0.0616486
0.067706
0.0827885
0.23397
0.347898
0.294251
0.126437
0.0618513
0.0422096
0.03208
0.0288335
0.028268
0.0292534
0.031719
0.0311635
0.0294602
0.0277935
0.0259866
0.0265025
0.0274698
0.0275783
0.0278237
0.0279696
0.0322784
0.0435764
0.0461903
0.0455006
0.0419761
0.0405777
0.0406856
0.0419969
0.0460407
0.0591712
0.0948515
0.118396
0.11889
0.117063
0.107357
0.0956613
0.0811522
0.068963
0.0554435
0.0521764
0.0508084
0.0583437
0.0615566
0.0646287
0.0607812
0.0554281
0.0534043
0.0502945
0.0437635
0.0378726
0.0359151
0.0347324
0.0338285
0.0343228
0.0338437
0.0331084
0.0330434
0.0386084
0.0400519
0.0400554
0.0390506
0.0370879
0.0323179
0.0294839
0.0263088
0.0248438
0.0243791
0.024795
0.0249258
0.0253029
0.0243093
0.0244089
0.0248311
0.0279103
0.0297555
0.0301578
0.0287479
0.0282572
0.0297385
0.0313468
0.0292347
0.0243126
0.020514
0.0169013
0.0153885
0.0154323
0.0155495
0.0154139
0.0154948
0.0161145
0.0179334
0.0227779
0.0372162
0.0602299
0.0778832
0.0898876
0.0939564
0.0946609
0.0932579
0.0906497
0.085384
0.0808421
0.0762811
0.0749496
0.0757929
0.0777109
0.0785589
0.0781903
0.0691769
0.055555
0.0380101
0.0282009
0.0238186
0.0225002
0.0221913
0.0220953
0.0208137
0.0228368
0.0408621
0.247289
1.5792
1.36126
1.11946
0.984104
0.832987
0.759488
0.707604
0.643465
0.651536
0.65609
0.630699
0.619106
0.598947
0.577422
0.511486
0.43114
0.36756
0.294213
0.23348
0.175417
0.1003
0.0552862
0.0294398
0.0146855
0.0076746
0.00433132
0.00290272
0.00212461
0.00175271
0.00160409
0.00147739
0.00142101
0.001352
0.00142986
0.0017313
0.0020136
0.00269196
0.00397545
0.00451843
0.00601075
0.00757204
0.00790864
0.0093453
0.0100912
0.0104312
0.0112369
0.0123615
0.0158622
0.023914
0.0569207
0.0798408
0.104155
0.141575
0.158129
0.180492
0.182267
0.17464
0.160187
0.118463
0.096964
0.0889073
0.0714332
0.0566118
0.0535765
0.058806
0.0761682
0.0786223
0.0706809
0.0654454
0.0652437
0.0584199
0.0414323
0.0329447
0.0342231
0.0477445
0.0545561
0.0566528
0.0597137
0.0671116
0.0816252
0.220283
0.351437
0.304983
0.131734
0.0631642
0.0434559
0.0328622
0.0288051
0.0282962
0.0292081
0.032958
0.0316714
0.0287856
0.0273531
0.0259745
0.0264258
0.0280718
0.0279997
0.0276843
0.0274416
0.0307723
0.04297
0.046226
0.0457649
0.0423683
0.0402929
0.0401736
0.0411274
0.04394
0.0520699
0.0784594
0.106184
0.108106
0.107643
0.100403
0.0902419
0.0741373
0.0630767
0.0500849
0.0459723
0.0438174
0.047808
0.0520311
0.0585299
0.057217
0.0528124
0.0513087
0.0495095
0.0452536
0.0383369
0.0363067
0.0337069
0.0322766
0.0320617
0.0326337
0.0323419
0.0324207
0.0348123
0.0352977
0.0348732
0.0326608
0.0306159
0.0265076
0.0248598
0.0241677
0.0238989
0.0239462
0.0246716
0.0248629
0.0253346
0.0243946
0.0244507
0.0247852
0.0276682
0.0295944
0.0301146
0.0289113
0.028736
0.0310079
0.032698
0.0303468
0.0250211
0.020814
0.017211
0.015877
0.0159307
0.0160267
0.0162244
0.0169856
0.0187783
0.0231735
0.0376442
0.0653459
0.0855262
0.0989227
0.103648
0.103342
0.102533
0.0994266
0.0960341
0.090549
0.0866673
0.0813473
0.0791868
0.0792339
0.0798088
0.0797244
0.0801728
0.0733358
0.0547898
0.0425621
0.0308771
0.0264456
0.0252175
0.0258769
0.0271255
0.0280275
0.0241636
0.0379588
0.167121
1.28473
1.14844
0.94631
0.812911
0.682095
0.60855
0.556894
0.512595
0.498281
0.498508
0.495397
0.498268
0.500071
0.482202
0.411757
0.32956
0.253302
0.191939
0.127903
0.0735195
0.0410871
0.022277
0.0116638
0.00589197
0.0034832
0.00245886
0.00196008
0.00165157
0.00151025
0.00145054
0.00131643
0.00125159
0.00128307
0.00141333
0.00188601
0.00238828
0.00336534
0.00559493
0.0063755
0.00819281
0.00966535
0.00995658
0.0114141
0.0116668
0.0118975
0.0124932
0.0139649
0.0176124
0.0253886
0.0575436
0.0749018
0.0949303
0.133723
0.158093
0.180579
0.182175
0.173954
0.158077
0.117787
0.098138
0.091261
0.0757124
0.059239
0.0547197
0.0580642
0.0736271
0.0775807
0.0716548
0.0658264
0.0660611
0.0628002
0.0461022
0.0337298
0.0320554
0.0410595
0.050071
0.0532836
0.0580801
0.066486
0.0806706
0.204636
0.357275
0.317353
0.1385
0.0649165
0.0449846
0.0339632
0.028913
0.0285445
0.0290339
0.0343545
0.0325281
0.0287905
0.0265404
0.0257489
0.0262833
0.0281543
0.0280601
0.0275299
0.0271437
0.0304106
0.0430044
0.0463973
0.0459983
0.0427457
0.0402941
0.0397305
0.0404084
0.0425219
0.0484878
0.0674811
0.0972889
0.101225
0.101549
0.0958488
0.084748
0.0686106
0.0572977
0.0456204
0.041293
0.0388535
0.0405469
0.0427226
0.0522456
0.052778
0.0511856
0.0498051
0.048713
0.0464272
0.0389539
0.0367325
0.033593
0.0325065
0.03155
0.032974
0.0332551
0.0330848
0.0328039
0.0315492
0.0302533
0.027608
0.0257632
0.024351
0.0237235
0.0237077
0.023719
0.023817
0.0247513
0.0249362
0.0254747
0.0246564
0.0247896
0.0250301
0.02776
0.029552
0.0301296
0.0292151
0.029192
0.0317292
0.0335139
0.0313526
0.0258126
0.0214621
0.0177915
0.0166925
0.0167031
0.0169869
0.0177429
0.0192963
0.0227094
0.033254
0.0619541
0.0831154
0.0978933
0.105883
0.106824
0.106251
0.103766
0.0994805
0.0952675
0.091636
0.0869126
0.0834489
0.0815579
0.0815777
0.0815563
0.0806763
0.0808834
0.076279
0.0548466
0.0446306
0.0337813
0.0306775
0.0281908
0.0293605
0.0292081
0.0343709
0.0297078
0.0436301
0.130365
0.958125
0.871897
0.728288
0.609866
0.516732
0.435064
0.391826
0.368495
0.347515
0.346174
0.345951
0.341535
0.338028
0.318753
0.259979
0.192229
0.130576
0.079039
0.0457912
0.0266853
0.0156013
0.00856822
0.00461359
0.00272953
0.00211659
0.00179681
0.00156765
0.00144445
0.00139458
0.00128871
0.00117353
0.00118935
0.00127223
0.00154654
0.00241124
0.00339619
0.00514341
0.00894759
0.0100928
0.0118499
0.0120754
0.0122049
0.0140252
0.0139998
0.0141427
0.0144814
0.0160174
0.0194198
0.0265022
0.0579207
0.0734052
0.0908018
0.126597
0.15702
0.179865
0.181824
0.173432
0.156798
0.118257
0.0986755
0.0924004
0.0789238
0.0619903
0.0561497
0.0582883
0.071926
0.0763439
0.0725019
0.0667757
0.0668577
0.0655489
0.050959
0.0354538
0.031073
0.0356902
0.0459872
0.0506896
0.0570227
0.0656549
0.0791364
0.190825
0.359202
0.328358
0.146156
0.0671221
0.0469503
0.0353227
0.0291931
0.0290522
0.0289112
0.0356335
0.0335496
0.0291694
0.026067
0.0253208
0.0259584
0.0278965
0.0277559
0.0271703
0.0268894
0.0304823
0.0433362
0.0468026
0.0462719
0.0428401
0.0403503
0.0393781
0.0398536
0.0416357
0.0467137
0.0604018
0.0911253
0.0965484
0.0969047
0.0930518
0.0800381
0.0642948
0.0527154
0.0428417
0.0381409
0.0354612
0.0359297
0.0365954
0.0440326
0.048315
0.0491379
0.0484528
0.0479471
0.0472229
0.0411792
0.0377568
0.034319
0.0329449
0.0314277
0.0322321
0.0344746
0.0337962
0.032532
0.0296438
0.0276179
0.0254601
0.0244178
0.0238709
0.0235682
0.0236652
0.0237499
0.023906
0.0250586
0.025248
0.0257479
0.0251808
0.0253261
0.025677
0.0283684
0.0295626
0.0303443
0.0296688
0.0297353
0.0321705
0.0337503
0.0318582
0.026658
0.022278
0.0186864
0.0178476
0.0179294
0.018633
0.0199353
0.0224567
0.0287757
0.0565971
0.0822067
0.095041
0.103109
0.10499
0.104379
0.10389
0.102463
0.0973459
0.0927601
0.0905495
0.0863868
0.0834004
0.0821938
0.0820828
0.0831796
0.0822706
0.081495
0.0792633
0.0571644
0.0445124
0.0353907
0.0316571
0.0308616
0.0332884
0.0314498
0.0365009
0.0333236
0.0440229
0.108112
0.612643
0.563565
0.479164
0.377533
0.322935
0.257656
0.220541
0.211625
0.194185
0.195487
0.19678
0.192113
0.187558
0.172334
0.124965
0.0765869
0.0446381
0.0263386
0.0158876
0.0100191
0.00610165
0.00328188
0.00209768
0.00176503
0.00167967
0.00152144
0.00139507
0.00135133
0.00125737
0.00111
0.00111467
0.00117503
0.00139872
0.00211746
0.00388564
0.00578523
0.00952178
0.0152346
0.0174239
0.018576
0.0177539
0.0166455
0.0170054
0.0166032
0.0166659
0.0165751
0.017474
0.0207547
0.0273977
0.0572318
0.0717637
0.0882063
0.120629
0.154896
0.179
0.180877
0.172719
0.155624
0.119425
0.0987705
0.0925642
0.0816261
0.0645895
0.0575887
0.0588217
0.0705357
0.075501
0.0731199
0.0678253
0.0678545
0.0675123
0.0555294
0.0380086
0.030604
0.0313417
0.0412274
0.0486736
0.0558741
0.0648
0.0787891
0.178136
0.360667
0.340487
0.156068
0.0700816
0.0493519
0.0366751
0.0296184
0.0296197
0.0289085
0.0358229
0.0351507
0.0296864
0.0262199
0.0242899
0.0248664
0.026546
0.0264184
0.0263369
0.0264593
0.0311374
0.0439214
0.0472327
0.0463586
0.0427319
0.0403559
0.0390875
0.0394183
0.0410782
0.0459063
0.0574304
0.0866039
0.092939
0.0927635
0.0898566
0.0761734
0.061591
0.0501097
0.0416422
0.0361575
0.0327056
0.0324834
0.0322222
0.0363148
0.0416215
0.0468619
0.0466662
0.0469001
0.046865
0.0446374
0.0398505
0.0365901
0.033766
0.0313098
0.0310366
0.0331846
0.0329419
0.0313036
0.0284796
0.026546
0.0246817
0.0242639
0.0238522
0.0238438
0.0240674
0.0243233
0.0245959
0.0258606
0.0259343
0.0263902
0.0260016
0.0260836
0.0267532
0.0291181
0.029793
0.0307254
0.0301822
0.0304663
0.032798
0.0339565
0.0321111
0.0272492
0.0231357
0.0197886
0.0192419
0.0194942
0.0208823
0.0228828
0.0266151
0.041878
0.0822323
0.101292
0.10635
0.105925
0.104098
0.102777
0.101936
0.100658
0.0961031
0.0919459
0.0887265
0.0852859
0.0829218
0.0821282
0.0820463
0.0836007
0.0833587
0.0820478
0.0807715
0.0613063
0.0431096
0.0379775
0.0352991
0.0362442
0.0383455
0.0379772
0.0394457
0.0355689
0.0393967
0.075167
0.304559
0.277583
0.227678
0.166521
0.133374
0.0983923
0.0806029
0.0781757
0.0723404
0.0739022
0.0758862
0.0740763
0.0710867
0.0588168
0.0378824
0.0220181
0.0133287
0.008608
0.00595069
0.00407421
0.00237092
0.00146765
0.00144439
0.00154237
0.00151677
0.00140386
0.00131716
0.00122155
0.00106514
0.00104956
0.001098
0.00131211
0.00191813
0.00401577
0.00718665
0.0113013
0.0191254
0.0264967
0.028433
0.0281634
0.0257908
0.0234783
0.0226464
0.0211611
0.0204185
0.019105
0.0193395
0.0220715
0.0288708
0.05605
0.0692009
0.0841882
0.114926
0.151559
0.177608
0.180102
0.17121
0.154104
0.119639
0.0986774
0.0921994
0.0839793
0.0670185
0.0590663
0.0596373
0.0697744
0.0750023
0.0735225
0.0689475
0.0689425
0.0690432
0.0591227
0.0406853
0.030777
0.0292534
0.0363009
0.0464444
0.0555113
0.0647868
0.0782212
0.164271
0.359057
0.351076
0.169291
0.0739148
0.0522255
0.0382279
0.0301599
0.0298259
0.0291289
0.0352347
0.0375154
0.0304286
0.0275046
0.0238794
0.0233875
0.0240837
0.0245574
0.0251263
0.0259236
0.0329174
0.0450585
0.0478338
0.0464197
0.0421722
0.0402235
0.0388662
0.0390914
0.0407155
0.0457871
0.0567764
0.0824035
0.0889297
0.0876799
0.0841899
0.0699946
0.0588525
0.0478012
0.0408249
0.0348036
0.0307227
0.0296391
0.0286303
0.0306902
0.0343603
0.0428435
0.0437345
0.0448175
0.0456875
0.0453793
0.0426652
0.0392081
0.0354886
0.0321934
0.029634
0.0302617
0.0302562
0.029028
0.0269795
0.0258627
0.0244479
0.0244912
0.0244312
0.0247619
0.0255685
0.0258586
0.0261372
0.0270472
0.0270803
0.0274247
0.0271784
0.0271424
0.0281276
0.0296727
0.0299629
0.0310313
0.0307307
0.031409
0.0336008
0.0344185
0.032293
0.0279346
0.0245369
0.0214933
0.0212624
0.0219236
0.0242152
0.0268609
0.0327562
0.0640811
0.104208
0.115613
0.116007
0.113262
0.108539
0.105862
0.103459
0.100045
0.0952626
0.091443
0.0877246
0.0842876
0.082109
0.0817407
0.0818672
0.0833074
0.0840073
0.0822432
0.0808913
0.0649044
0.0438375
0.0422684
0.0399595
0.0399349
0.0411677
0.0416075
0.0407267
0.0361142
0.035852
0.0640023
0.106523
0.0959887
0.0755516
0.0529095
0.0410133
0.0291095
0.0231204
0.0224134
0.0214248
0.0220728
0.0227843
0.0222292
0.0201302
0.0144651
0.00916623
0.00596433
0.0045447
0.00340621
0.00257083
0.00167963
0.00109208
0.00111309
0.00136927
0.0015118
0.00140755
0.001277
0.00114565
0.00105218
0.00101896
0.00104288
0.00121833
0.00185294
0.00346558
0.008965
0.0141373
0.0249797
0.0361696
0.0431398
0.0431595
0.0416405
0.0360565
0.0308159
0.0288564
0.0272991
0.02549
0.0224853
0.0223171
0.0247631
0.0320294
0.0558232
0.0677186
0.0811539
0.112124
0.145689
0.175651
0.179033
0.170196
0.151571
0.118799
0.0979563
0.0916873
0.0854779
0.069247
0.0602018
0.0603686
0.0695348
0.0746683
0.07378
0.0701698
0.0702169
0.0706699
0.062285
0.0433135
0.0318845
0.0288692
0.032569
0.0445458
0.0554918
0.0652859
0.0776468
0.147145
0.35704
0.363033
0.184205
0.0779684
0.0551246
0.0398936
0.0309177
0.0298395
0.0296242
0.0334512
0.0400793
0.0319306
0.0280475
0.024251
0.0221505
0.0222596
0.0227089
0.0237291
0.0256802
0.03582
0.0467369
0.0484725
0.0461843
0.0412344
0.0396265
0.0385611
0.0388332
0.0405597
0.0461663
0.0573664
0.0785911
0.0857761
0.0825724
0.0779105
0.0622201
0.0546464
0.044351
0.0399161
0.0338544
0.029793
0.0276593
0.0260938
0.0266853
0.0284632
0.037382
0.0393674
0.0409242
0.0430586
0.0446953
0.0434311
0.0412448
0.0392246
0.034524
0.0300547
0.0286144
0.0284353
0.0272687
0.0261304
0.0254575
0.0250062
0.025321
0.0258914
0.0274668
0.0280306
0.0281524
0.0283021
0.0286378
0.0287184
0.0287586
0.0287174
0.0285928
0.0293557
0.0300355
0.030042
0.0310046
0.0310952
0.032318
0.0341406
0.034864
0.032428
0.0289961
0.0267151
0.0241631
0.0244521
0.0259622
0.0288912
0.0322883
0.0434524
0.0883246
0.113877
0.118879
0.118957
0.119066
0.118585
0.11375
0.105806
0.0997913
0.0944281
0.0907341
0.0867885
0.0831449
0.0811465
0.0806929
0.0812329
0.0825442
0.0840238
0.0822736
0.0793424
0.0705173
0.0478929
0.0446632
0.0424148
0.0422199
0.0434291
0.0443175
0.0429975
0.036525
0.0501477
0.0669447
0.0238038
0.021655
0.01724
0.0116526
0.00873877
0.00620814
0.00500631
0.00504865
0.00511466
0.00524934
0.005406
0.00515969
0.00413343
0.00300532
0.00242084
0.0023425
0.00212279
0.00159912
0.00112965
0.000805109
0.000847847
0.00119113
0.00150806
0.00140722
0.00114581
0.00111028
0.00104157
0.0010201
0.00102475
0.00115141
0.00172634
0.00351666
0.00777485
0.0197981
0.0304041
0.0509773
0.0636614
0.0665002
0.0650493
0.0604444
0.0509329
0.0418793
0.0364141
0.0342093
0.0307314
0.0258135
0.0254734
0.0281957
0.0371689
0.0582107
0.0687945
0.0816575
0.111385
0.141626
0.17191
0.176697
0.168658
0.149407
0.117031
0.0973035
0.0915853
0.0863427
0.070449
0.0611139
0.0609876
0.0694018
0.0745757
0.0742293
0.0715671
0.0715628
0.071941
0.0643981
0.0459203
0.0335399
0.0291183
0.0307626
0.0432945
0.0562853
0.0665879
0.0778346
0.134124
0.350103
0.374167
0.20218
0.0819588
0.0575557
0.0417208
0.0320328
0.0299975
0.0305141
0.0311338
0.0403557
0.0344542
0.0276556
0.024149
0.0213592
0.0209487
0.0213439
0.0226484
0.0265275
0.0396875
0.0485938
0.0491886
0.0456913
0.0403059
0.0387037
0.0380798
0.0387966
0.0405385
0.0465754
0.0590651
0.0745253
0.0830439
0.0786166
0.0732377
0.056552
0.0502523
0.0411563
0.0385449
0.033448
0.0299808
0.0269654
0.024867
0.024652
0.0249614
0.0310837
0.0344672
0.0360398
0.0382448
0.0428682
0.0426958
0.0409534
0.0400587
0.0387805
0.0326602
0.0288681
0.028106
0.0266519
0.0260268
0.0261474
0.0266326
0.0278531
0.0300911
0.0319383
0.0314932
0.0309499
0.030778
0.0305933
0.0307976
0.0304261
0.0304015
0.0299997
0.0303934
0.0303929
0.0299807
0.0308526
0.0313167
0.0335148
0.0350069
0.0354968
0.0326619
0.0300457
0.029067
0.0274308
0.0290287
0.0308076
0.0346114
0.0397414
0.0649802
0.105093
0.118503
0.119187
0.119028
0.120093
0.12089
0.118727
0.107197
0.0973203
0.0917328
0.0883593
0.0844581
0.0815689
0.0799814
0.0798032
0.0803188
0.0820191
0.0837301
0.082502
0.0790177
0.0712826
0.0500217
0.0450897
0.0455591
0.0464074
0.0585657
0.0549259
0.061265
0.0437106
0.0674505
0.0776836
0.00338473
0.00311468
0.00257752
0.00178809
0.00141935
0.00114059
0.00102233
0.00104362
0.00107719
0.00112495
0.00113511
0.00101597
0.000999224
0.00100596
0.00120315
0.00130993
0.00104721
0.000733548
0.000555859
0.000608674
0.00100871
0.00148728
0.00137517
0.00100086
0.00103441
0.00105751
0.00101577
0.00101663
0.00109616
0.00157459
0.00326781
0.00786378
0.0193321
0.0422874
0.0637315
0.0924236
0.10066
0.0991716
0.0944519
0.0826971
0.069686
0.0551953
0.0450317
0.0421282
0.0376079
0.0294615
0.0287616
0.0315329
0.0415201
0.0607777
0.0710365
0.0859817
0.112641
0.139523
0.167683
0.172739
0.16579
0.146731
0.114755
0.0965466
0.0915264
0.0864731
0.0709143
0.0618854
0.0614903
0.0689838
0.0745885
0.0747367
0.0731433
0.0731641
0.0732656
0.0657308
0.0479245
0.0352953
0.0299676
0.0303491
0.0422723
0.057687
0.0683857
0.0786589
0.12116
0.340694
0.387653
0.220821
0.085225
0.0591031
0.043652
0.0334806
0.030543
0.0317512
0.0301014
0.0391202
0.0386828
0.0268293
0.0232631
0.0208478
0.0203426
0.0208106
0.0222809
0.0296504
0.0449585
0.0513376
0.0507983
0.0447699
0.0392686
0.0378984
0.0375011
0.0389961
0.0406739
0.0467807
0.0616461
0.0705701
0.0805844
0.0759513
0.0709755
0.054139
0.0475286
0.0392857
0.0373924
0.0332883
0.0301835
0.0269802
0.0241059
0.0229087