/*--------------------------------*- C++ -*----------------------------------*\
| =========                 |                                                 |
| \\      /  F ield         | OpenFOAM: The Open Source CFD Toolbox           |
|  \\    /   O peration     | Version:  2.4.0                                 |
|   \\  /    A nd           | Web:      www.OpenFOAM.org                      |
|    \\/     M anipulation  |                                                 |
\*---------------------------------------------------------------------------*/
FoamFile
{
    version     2.0;
    format      ascii;
    class       volVectorField;
    location    "0.005";
    object      U;
}
// * * * * * * * * * * * * * * * * * * * * * * * * * * * * * * * * * * * * * //

dimensions      [0 1 -1 0 0 0 0];

internalField   nonuniform List<vector> 
17600
(
(10.0128 0.107047 0)
(9.18142 0.428184 0)
(7.90895 0.443477 0)
(6.78101 0.303098 0)
(5.97182 0.201813 0)
(5.27928 0.129721 0)
(4.74232 0.0421162 0)
(4.48692 -0.0170595 0)
(4.4571 -0.0237916 0)
(4.49501 -0.00894571 0)
(4.51549 -0.0014316 0)
(4.52232 -0.00179574 0)
(4.53062 -0.00173005 0)
(4.53864 -0.000524472 0)
(4.5425 0.000159044 0)
(4.54333 0.000178553 0)
(4.54341 3.43908e-05 0)
(4.54361 -4.16747e-05 0)
(4.54399 -8.12915e-05 0)
(4.54451 -0.000123002 0)
(4.54527 -0.000175674 0)
(4.54636 -0.000248279 0)
(4.54767 -0.000327193 0)
(4.55033 -0.000467681 0)
(4.55115 -0.000660959 0)
(4.56064 -0.000702781 0)
(4.55206 -0.00255421 0)
(4.59009 0.000996289 0)
(4.53969 -0.0112839 0)
(4.65578 0.0141342 0)
(4.53592 -0.0451319 0)
(4.70175 0.0488259 0)
(4.69248 -0.090888 0)
(4.58642 0.0645789 0)
(5.05452 -0.0848532 0)
(4.60536 0.00518144 0)
(5.26449 -0.100867 0)
(4.95974 0.0592926 0)
(6.07291 -0.290873 0)
(4.92744 0.0623388 0)
(9.98358 0.147266 0)
(10.138 0.483304 0)
(10.1907 0.680694 0)
(10.1119 0.624396 0)
(10.0503 0.533853 0)
(9.92363 0.476258 0)
(9.69056 0.325582 0)
(9.5012 0.118495 0)
(9.45302 0.00109918 0)
(9.48269 -0.0155254 0)
(9.50556 -0.00834726 0)
(9.50963 -0.00813336 0)
(9.51266 -0.00823781 0)
(9.51784 -0.0050538 0)
(9.52108 -0.00188615 0)
(9.52184 -0.00051724 0)
(9.52183 -0.000257065 0)
(9.52196 -0.000263435 0)
(9.52232 -0.000343441 0)
(9.52289 -0.000459112 0)
(9.52364 -0.000707447 0)
(9.52512 -0.000886696 0)
(9.52573 -0.0013872 0)
(9.53115 -0.00183628 0)
(9.52566 -0.00185303 0)
(9.55147 -0.00637353 0)
(9.50817 0.0045115 0)
(9.61827 -0.0330176 0)
(9.44023 0.0516279 0)
(9.76035 -0.135945 0)
(9.3644 0.19147 0)
(9.83277 -0.313367 0)
(9.60566 0.277222 0)
(9.53292 -0.252501 0)
(10.2053 -0.0478176 0)
(9.47124 0.0279797 0)
(10.3044 -0.181802 0)
(10.1775 -0.322555 0)
(10.6159 -0.190329 0)
(10.6902 -0.611362 0)
(9.9716 0.107504 0)
(10.0913 0.386024 0)
(10.307 0.581768 0)
(10.4644 0.54242 0)
(10.7124 0.474976 0)
(10.9387 0.437363 0)
(10.9345 0.298705 0)
(10.8089 0.100812 0)
(10.7495 -0.00837605 0)
(10.7466 -0.0197342 0)
(10.7312 -0.00950626 0)
(10.7047 -0.00763397 0)
(10.6902 -0.0071549 0)
(10.6876 -0.00401076 0)
(10.6877 -0.00113186 0)
(10.6873 -0.000100071 0)
(10.6871 -8.0737e-05 0)
(10.6873 -0.000265171 0)
(10.6877 -0.000486928 0)
(10.6881 -0.000710932 0)
(10.6892 -0.00116721 0)
(10.6893 -0.00124996 0)
(10.6929 -0.00284767 0)
(10.6897 -0.000963586 0)
(10.7036 -0.00875446 0)
(10.6838 0.00518686 0)
(10.7328 -0.0295643 0)
(10.6646 0.0311243 0)
(10.7836 -0.0824375 0)
(10.6659 0.0826384 0)
(10.7837 -0.149945 0)
(10.8206 0.0970192 0)
(10.6384 -0.153879 0)
(11.0739 0.00889616 0)
(10.7579 -0.143281 0)
(10.9273 -0.105983 0)
(11.2894 -0.166714 0)
(11.23 -0.398065 0)
(11.1794 -0.475994 0)
(11.3609 -0.899704 0)
(9.97174 0.089183 0)
(10.0745 0.28747 0)
(10.2339 0.434993 0)
(10.3506 0.431894 0)
(10.6387 0.388013 0)
(10.9386 0.353785 0)
(10.9702 0.257358 0)
(10.8577 0.123013 0)
(10.8131 0.0369449 0)
(10.8181 0.0121914 0)
(10.799 0.00889087 0)
(10.7676 0.00344894 0)
(10.7524 -0.000968315 0)
(10.7507 -0.00137887 0)
(10.7511 -0.000486992 0)
(10.7506 -0.000157671 0)
(10.7503 -0.000273979 0)
(10.7505 -0.000484931 0)
(10.751 -0.000701077 0)
(10.7514 -0.00106288 0)
(10.752 -0.00133503 0)
(10.7529 -0.00232017 0)
(10.7539 -0.00195354 0)
(10.7563 -0.00597733 0)
(10.7564 -8.42858e-05 0)
(10.7642 -0.0192587 0)
(10.7595 0.0151624 0)
(10.779 -0.0634266 0)
(10.7726 0.0660048 0)
(10.7867 -0.161135 0)
(10.8271 0.13616 0)
(10.7714 -0.232959 0)
(10.9271 0.0455829 0)
(10.8084 -0.0980408 0)
(10.9812 -0.254186 0)
(11.0124 -0.0727066 0)
(11.04 -0.313708 0)
(11.1831 -0.551752 0)
(11.2549 -0.587469 0)
(11.2186 -1.12524 0)
(9.96883 0.0708934 0)
(10.0692 0.211361 0)
(10.1865 0.333407 0)
(10.248 0.354142 0)
(10.5285 0.322083 0)
(10.8398 0.293229 0)
(10.8711 0.231295 0)
(10.7713 0.132565 0)
(10.7605 0.0535091 0)
(10.796 0.0205198 0)
(10.7904 0.0118174 0)
(10.763 0.00577086 0)
(10.7506 0.000862724 0)
(10.7508 -0.000549673 0)
(10.7518 -0.000255167 0)
(10.7511 -8.32845e-05 0)
(10.7507 -0.000269749 0)
(10.7509 -0.000547683 0)
(10.7513 -0.000852245 0)
(10.7516 -0.00122398 0)
(10.7524 -0.00176513 0)
(10.7526 -0.0023133 0)
(10.7548 -0.00363811 0)
(10.7537 -0.00374996 0)
(10.7608 -0.00849155 0)
(10.7534 -0.00373687 0)
(10.7747 -0.022579 0)
(10.7513 0.00297241 0)
(10.7951 -0.0561313 0)
(10.7665 0.0141132 0)
(10.8027 -0.0968723 0)
(10.8239 -0.0143903 0)
(10.8221 -0.0999791 0)
(10.8556 -0.141413 0)
(10.9779 -0.104126 0)
(10.8538 -0.301946 0)
(11.0728 -0.29954 0)
(11.0993 -0.545248 0)
(10.9751 -0.756931 0)
(10.896 -1.12083 0)
(9.96669 0.0551844 0)
(10.0665 0.158863 0)
(10.1559 0.254318 0)
(10.1755 0.28147 0)
(10.4459 0.262193 0)
(10.7612 0.238765 0)
(10.7903 0.193192 0)
(10.7005 0.119961 0)
(10.7165 0.0572401 0)
(10.7762 0.026844 0)
(10.7818 0.0159177 0)
(10.758 0.00887621 0)
(10.7478 0.00336601 0)
(10.7499 0.000816216 0)
(10.7515 0.000229016 0)
(10.751 7.84523e-06 0)
(10.7506 -0.000301234 0)
(10.7507 -0.000645563 0)
(10.7511 -0.000981106 0)
(10.7514 -0.00145757 0)
(10.752 -0.0019111 0)
(10.7525 -0.0029809 0)
(10.7536 -0.00328071 0)
(10.7544 -0.0065117 0)
(10.7565 -0.00432678 0)
(10.7582 -0.0161626 0)
(10.7618 -0.0010509 0)
(10.7653 -0.0413537 0)
(10.7735 0.0117451 0)
(10.7743 -0.0835 0)
(10.8007 0.003214 0)
(10.7867 -0.0951064 0)
(10.8398 -0.110379 0)
(10.8329 -0.055835 0)
(10.8835 -0.270958 0)
(10.8968 -0.239324 0)
(10.9529 -0.338205 0)
(10.9493 -0.612053 0)
(10.9112 -0.82035 0)
(10.796 -0.985306 0)
(9.96534 0.0415972 0)
(10.0639 0.116285 0)
(10.1356 0.185475 0)
(10.1259 0.21265 0)
(10.3861 0.203052 0)
(10.7029 0.183839 0)
(10.7319 0.150955 0)
(10.6492 0.100459 0)
(10.6825 0.0536989 0)
(10.7591 0.0270674 0)
(10.7737 0.0156495 0)
(10.7534 0.00886371 0)
(10.7452 0.00378058 0)
(10.7488 0.00112808 0)
(10.7512 0.000277724 0)
(10.7508 -5.51218e-05 0)
(10.7504 -0.000383836 0)
(10.7506 -0.00073912 0)
(10.7509 -0.00111222 0)
(10.7512 -0.00159852 0)
(10.7516 -0.0021913 0)
(10.752 -0.00309871 0)
(10.753 -0.00413856 0)
(10.7532 -0.00587921 0)
(10.7559 -0.00785258 0)
(10.7552 -0.010848 0)
(10.7615 -0.0155777 0)
(10.7593 -0.0190105 0)
(10.77 -0.0319568 0)
(10.771 -0.0348748 0)
(10.7812 -0.058943 0)
(10.79 -0.0750591 0)
(10.8158 -0.0980117 0)
(10.7936 -0.155249 0)
(10.8787 -0.200352 0)
(10.8256 -0.29108 0)
(10.8642 -0.408323 0)
(10.8799 -0.596008 0)
(10.8052 -0.752468 0)
(10.5862 -1.06168 0)
(9.96448 0.0289739 0)
(10.0616 0.079361 0)
(10.1225 0.126094 0)
(10.0932 0.148388 0)
(10.3444 0.144342 0)
(10.6617 0.130473 0)
(10.6915 0.108488 0)
(10.6132 0.0754875 0)
(10.6573 0.042852 0)
(10.7455 0.0223434 0)
(10.7671 0.012817 0)
(10.7496 0.00737006 0)
(10.743 0.00337312 0)
(10.7477 0.00112706 0)
(10.7508 0.000254881 0)
(10.7506 -0.000126379 0)
(10.7502 -0.000463738 0)
(10.7504 -0.000824665 0)
(10.7507 -0.00121158 0)
(10.7509 -0.0017361 0)
(10.7512 -0.00233941 0)
(10.7515 -0.00338528 0)
(10.7522 -0.00428883 0)
(10.7526 -0.00667338 0)
(10.754 -0.00751129 0)
(10.7545 -0.0135332 0)
(10.7574 -0.0125777 0)
(10.7579 -0.027342 0)
(10.7638 -0.0223404 0)
(10.7639 -0.049234 0)
(10.7758 -0.0525764 0)
(10.7723 -0.0724959 0)
(10.7968 -0.127709 0)
(10.7791 -0.130377 0)
(10.8234 -0.222186 0)
(10.7832 -0.319006 0)
(10.8049 -0.383751 0)
(10.775 -0.58193 0)
(10.672 -0.786361 0)
(10.4838 -1.02749 0)
(9.96398 0.01706 0)
(10.0599 0.046284 0)
(10.1146 0.0732403 0)
(10.0733 0.0875439 0)
(10.3182 0.0863213 0)
(10.6354 0.0780953 0)
(10.6659 0.0653264 0)
(10.5902 0.0465589 0)
(10.6408 0.0273653 0)
(10.7362 0.0146134 0)
(10.7625 0.00835866 0)
(10.747 0.00480563 0)
(10.7414 0.00222877 0)
(10.747 0.000704409 0)
(10.7505 4.33269e-05 0)
(10.7504 -0.000281468 0)
(10.75 -0.000576879 0)
(10.7502 -0.000909994 0)
(10.7504 -0.00129729 0)
(10.7506 -0.00182351 0)
(10.7508 -0.00247759 0)
(10.751 -0.00349059 0)
(10.7514 -0.00461502 0)
(10.7516 -0.00667919 0)
(10.7525 -0.00847973 0)
(10.7527 -0.012834 0)
(10.7545 -0.0155014 0)
(10.7549 -0.0244925 0)
(10.7579 -0.0289599 0)
(10.7584 -0.0454596 0)
(10.7649 -0.0573292 0)
(10.7593 -0.0811435 0)
(10.7795 -0.118032 0)
(10.7506 -0.148053 0)
(10.7854 -0.225888 0)
(10.7414 -0.300932 0)
(10.7297 -0.398256 0)
(10.6868 -0.568826 0)
(10.582 -0.733338 0)
(10.4025 -0.914426 0)
(9.96376 0.00563185 0)
(10.059 0.015218 0)
(10.1109 0.0240184 0)
(10.0639 0.0289215 0)
(10.3055 0.0287241 0)
(10.6225 0.0259911 0)
(10.6535 0.0217641 0)
(10.5791 0.0156785 0)
(10.6326 0.00939556 0)
(10.7315 0.00508802 0)
(10.7601 0.00286434 0)
(10.7456 0.00156617 0)
(10.7405 0.000627942 0)
(10.7465 4.5512e-05 0)
(10.7503 -0.000250613 0)
(10.7503 -0.000461396 0)
(10.7499 -0.000691581 0)
(10.75 -0.000982764 0)
(10.7502 -0.00135488 0)
(10.7503 -0.0018783 0)
(10.7504 -0.00254489 0)
(10.7504 -0.00356446 0)
(10.7506 -0.00473087 0)
(10.7506 -0.00679794 0)
(10.7509 -0.00870702 0)
(10.751 -0.0130168 0)
(10.7515 -0.0160004 0)
(10.7515 -0.0246489 0)
(10.7526 -0.0303102 0)
(10.7513 -0.044919 0)
(10.7551 -0.0608129 0)
(10.746 -0.0796556 0)
(10.7591 -0.120598 0)
(10.7275 -0.151138 0)
(10.7478 -0.216941 0)
(10.6947 -0.299069 0)
(10.67 -0.38666 0)
(10.6114 -0.525401 0)
(10.4939 -0.678901 0)
(10.318 -0.842506 0)
(9.96376 -0.00563431 0)
(10.059 -0.0152321 0)
(10.1109 -0.0240172 0)
(10.0639 -0.0289297 0)
(10.3055 -0.0287499 0)
(10.6225 -0.0260424 0)
(10.6535 -0.0218879 0)
(10.5791 -0.0158026 0)
(10.6326 -0.00939882 0)
(10.7314 -0.00505183 0)
(10.76 -0.00298133 0)
(10.7456 -0.00189585 0)
(10.7405 -0.00112099 0)
(10.7465 -0.000689364 0)
(10.7502 -0.000584739 0)
(10.7502 -0.000652586 0)
(10.7498 -0.000800839 0)
(10.7498 -0.00103826 0)
(10.75 -0.00138484 0)
(10.75 -0.00189062 0)
(10.75 -0.00255997 0)
(10.7499 -0.00354981 0)
(10.7498 -0.00476591 0)
(10.7496 -0.00671805 0)
(10.7494 -0.00884592 0)
(10.7491 -0.0127477 0)
(10.7486 -0.0164169 0)
(10.7479 -0.0240494 0)
(10.7472 -0.0309744 0)
(10.7443 -0.0444118 0)
(10.7453 -0.0604354 0)
(10.7326 -0.0800689 0)
(10.7403 -0.117453 0)
(10.7042 -0.148079 0)
(10.7127 -0.210633 0)
(10.6538 -0.282261 0)
(10.6162 -0.362405 0)
(10.5441 -0.483618 0)
(10.4209 -0.614765 0)
(10.2576 -0.747561 0)
(9.96398 -0.0170635 0)
(10.0599 -0.0462988 0)
(10.1146 -0.0732399 0)
(10.0733 -0.0875501 0)
(10.3182 -0.0863438 0)
(10.6354 -0.078142 0)
(10.6659 -0.065453 0)
(10.5902 -0.0466836 0)
(10.6408 -0.0273519 0)
(10.7361 -0.0145597 0)
(10.7623 -0.00847131 0)
(10.7468 -0.00513575 0)
(10.7413 -0.00271834 0)
(10.7468 -0.00134519 0)
(10.7503 -0.000879939 0)
(10.7502 -0.000816271 0)
(10.7497 -0.000884364 0)
(10.7497 -0.00106629 0)
(10.7498 -0.00138122 0)
(10.7497 -0.00186132 0)
(10.7496 -0.00251436 0)
(10.7493 -0.00346506 0)
(10.749 -0.00467738 0)
(10.7486 -0.00653088 0)
(10.7479 -0.00871412 0)
(10.7472 -0.0123389 0)
(10.7458 -0.0162582 0)
(10.7443 -0.0231941 0)
(10.7421 -0.0306971 0)
(10.7374 -0.0428735 0)
(10.7357 -0.0590503 0)
(10.72 -0.0777092 0)
(10.7223 -0.111948 0)
(10.6823 -0.142098 0)
(10.6817 -0.197683 0)
(10.6166 -0.260331 0)
(10.5694 -0.332982 0)
(10.4879 -0.433577 0)
(10.3594 -0.543019 0)
(10.2023 -0.653494 0)
(9.96448 -0.0289813 0)
(10.0616 -0.0793679 0)
(10.1225 -0.126097 0)
(10.0932 -0.148411 0)
(10.3444 -0.144347 0)
(10.6617 -0.130503 0)
(10.6914 -0.108632 0)
(10.6132 -0.0756108 0)
(10.6574 -0.0428046 0)
(10.7454 -0.0222614 0)
(10.7668 -0.0129217 0)
(10.7494 -0.00769714 0)
(10.7428 -0.00385909 0)
(10.7475 -0.00175449 0)
(10.7505 -0.00106575 0)
(10.7502 -0.000926638 0)
(10.7496 -0.000931759 0)
(10.7496 -0.00106281 0)
(10.7496 -0.00134328 0)
(10.7494 -0.00178951 0)
(10.7492 -0.00241103 0)
(10.7488 -0.00330524 0)
(10.7483 -0.00448036 0)
(10.7476 -0.00620974 0)
(10.7465 -0.0083683 0)
(10.7453 -0.0117005 0)
(10.7432 -0.0156527 0)
(10.7408 -0.0219607 0)
(10.7371 -0.0294808 0)
(10.7308 -0.0406106 0)
(10.7266 -0.0560527 0)
(10.7082 -0.073395 0)
(10.7059 -0.104554 0)
(10.6625 -0.131907 0)
(10.6544 -0.181392 0)
(10.5842 -0.234518 0)
(10.5298 -0.296919 0)
(10.4413 -0.379128 0)
(10.3089 -0.468137 0)
(10.1581 -0.555681 0)
(9.96534 -0.041609 0)
(10.0639 -0.116277 0)
(10.1356 -0.185466 0)
(10.1259 -0.212705 0)
(10.3861 -0.203057 0)
(10.7028 -0.18386 0)
(10.7318 -0.151123 0)
(10.6492 -0.100563 0)
(10.6826 -0.0535847 0)
(10.7589 -0.02695 0)
(10.7733 -0.0157567 0)
(10.753 -0.00919327 0)
(10.7449 -0.00426105 0)
(10.7485 -0.00174685 0)
(10.7508 -0.00105616 0)
(10.7503 -0.000938987 0)
(10.7496 -0.000918928 0)
(10.7495 -0.00101644 0)
(10.7494 -0.0012668 0)
(10.7492 -0.00167467 0)
(10.7488 -0.00225108 0)
(10.7483 -0.00307394 0)
(10.7475 -0.00417784 0)
(10.7467 -0.00576222 0)
(10.7452 -0.0078152 0)
(10.7435 -0.0108364 0)
(10.7407 -0.0146379 0)
(10.7374 -0.0202983 0)
(10.7326 -0.0275025 0)
(10.7246 -0.0374513 0)
(10.7182 -0.0517846 0)
(10.6974 -0.0672752 0)
(10.6913 -0.0952152 0)
(10.6448 -0.118739 0)
(10.6311 -0.162356 0)
(10.557 -0.205171 0)
(10.4974 -0.257128 0)
(10.4042 -0.321712 0)
(10.2693 -0.390115 0)
(10.1217 -0.456657 0)
(9.9667 -0.0552053 0)
(10.0665 -0.158837 0)
(10.1559 -0.254292 0)
(10.1755 -0.281516 0)
(10.446 -0.262162 0)
(10.7611 -0.238799 0)
(10.7902 -0.193444 0)
(10.7007 -0.120055 0)
(10.7166 -0.05701 0)
(10.7759 -0.0266471 0)
(10.7812 -0.0160233 0)
(10.7575 -0.00923068 0)
(10.7475 -0.00385549 0)
(10.7495 -0.00142075 0)
(10.751 -0.000957774 0)
(10.7503 -0.000914296 0)
(10.7496 -0.000874054 0)
(10.7494 -0.000938928 0)
(10.7493 -0.00115703 0)
(10.749 -0.00151981 0)
(10.7485 -0.00203818 0)
(10.7478 -0.00277483 0)
(10.7469 -0.00377819 0)
(10.7458 -0.00519304 0)
(10.744 -0.00707413 0)
(10.7419 -0.0097514 0)
(10.7384 -0.0132543 0)
(10.7344 -0.018223 0)
(10.7284 -0.0248343 0)
(10.719 -0.0334741 0)
(10.7108 -0.0463962 0)
(10.6878 -0.0595481 0)
(10.6787 -0.0843419 0)
(10.6297 -0.103059 0)
(10.6117 -0.141428 0)
(10.5353 -0.173331 0)
(10.4718 -0.215459 0)
(10.3764 -0.262605 0)
(10.2399 -0.309715 0)
(10.0936 -0.356749 0)
(9.96885 -0.0709248 0)
(10.0693 -0.211282 0)
(10.1864 -0.333403 0)
(10.248 -0.354242 0)
(10.5286 -0.321972 0)
(10.8397 -0.293177 0)
(10.8709 -0.231601 0)
(10.7716 -0.13274 0)
(10.7606 -0.0531769 0)
(10.7956 -0.0201764 0)
(10.7897 -0.0118262 0)
(10.7624 -0.0060919 0)
(10.7501 -0.00135477 0)
(10.7504 -2.47819e-05 0)
(10.7512 -0.000418575 0)
(10.7504 -0.000718349 0)
(10.7496 -0.000758605 0)
(10.7494 -0.000826083 0)
(10.7491 -0.00101913 0)
(10.7487 -0.00133164 0)
(10.7482 -0.00178015 0)
(10.7474 -0.00241632 0)
(10.7463 -0.00329412 0)
(10.745 -0.00451553 0)
(10.7429 -0.00617052 0)
(10.7404 -0.00846651 0)
(10.7365 -0.0115563 0)
(10.7317 -0.0157755 0)
(10.7248 -0.0215857 0)
(10.7141 -0.0287954 0)
(10.7045 -0.0400771 0)
(10.6794 -0.0505174 0)
(10.6683 -0.0723399 0)
(10.6169 -0.0852873 0)
(10.5963 -0.119789 0)
(10.5188 -0.139419 0)
(10.4528 -0.174401 0)
(10.3582 -0.203024 0)
(10.2209 -0.228308 0)
(10.0742 -0.256003 0)
(9.97177 -0.0892271 0)
(10.0745 -0.287353 0)
(10.2338 -0.435044 0)
(10.3506 -0.432018 0)
(10.6389 -0.387814 0)
(10.9384 -0.3538 0)
(10.9699 -0.257652 0)
(10.858 -0.123058 0)
(10.8133 -0.0365649 0)
(10.8176 -0.0118867 0)
(10.7981 -0.00898436 0)
(10.7668 -0.00383501 0)
(10.7519 0.000458921 0)
(10.7502 0.000868565 0)
(10.7505 -3.22514e-05 0)
(10.7497 -0.000504256 0)
(10.7491 -0.000580145 0)
(10.7488 -0.000655458 0)
(10.7485 -0.000834284 0)
(10.7481 -0.00110049 0)
(10.7474 -0.00147516 0)
(10.7466 -0.0020013 0)
(10.7453 -0.00273351 0)
(10.7438 -0.00374007 0)
(10.7415 -0.00512303 0)
(10.7387 -0.00700379 0)
(10.7342 -0.0095809 0)
(10.7288 -0.0130099 0)
(10.7212 -0.0178178 0)
(10.7093 -0.023577 0)
(10.6986 -0.0328628 0)
(10.6715 -0.0406726 0)
(10.6593 -0.0590511 0)
(10.6052 -0.0664249 0)
(10.5832 -0.0972683 0)
(10.5053 -0.104455 0)
(10.4377 -0.135665 0)
(10.3477 -0.144713 0)
(10.2097 -0.152328 0)
(10.064 -0.143702 0)
(9.97159 -0.107557 0)
(10.0913 -0.385779 0)
(10.3069 -0.581896 0)
(10.4644 -0.542715 0)
(10.7126 -0.474648 0)
(10.9385 -0.437233 0)
(10.9342 -0.299282 0)
(10.8092 -0.100904 0)
(10.7498 0.00897281 0)
(10.7461 0.0203917 0)
(10.7304 0.00964448 0)
(10.704 0.00722826 0)
(10.6896 0.00652095 0)
(10.6871 0.00341122 0)
(10.687 0.000610838 0)
(10.6863 -0.000430956 0)
(10.6856 -0.000551956 0)
(10.6852 -0.000569621 0)
(10.6849 -0.000673509 0)
(10.6843 -0.000850295 0)
(10.6836 -0.00111895 0)
(10.6826 -0.00150533 0)
(10.6811 -0.00205626 0)
(10.6793 -0.00280445 0)
(10.6766 -0.00385005 0)
(10.6733 -0.00524388 0)
(10.6681 -0.00717195 0)
(10.6618 -0.00972274 0)
(10.6529 -0.013215 0)
(10.6395 -0.0175245 0)
(10.6265 -0.0241552 0)
(10.5976 -0.0294312 0)
(10.5806 -0.0439786 0)
(10.5258 -0.0442223 0)
(10.4961 -0.0752359 0)
(10.419 -0.0620061 0)
(10.3477 -0.103869 0)
(10.2562 -0.0809525 0)
(10.1352 -0.0957581 0)
(9.97152 -0.0244848 0)
(9.98342 -0.147325 0)
(10.1382 -0.483071 0)
(10.1908 -0.680758 0)
(10.1115 -0.624636 0)
(10.0506 -0.533662 0)
(9.92368 -0.476127 0)
(9.69021 -0.325881 0)
(9.50124 -0.118656 0)
(9.45335 -0.000750246 0)
(9.48298 0.0161404 0)
(9.50593 0.00867637 0)
(9.50999 0.00792729 0)
(9.51272 0.00773085 0)
(9.51742 0.0045193 0)
(9.52018 0.00142302 0)
(9.5205 0.000131997 0)
(9.51997 -0.000155446 0)
(9.51943 -0.000261746 0)
(9.51887 -0.0003789 0)
(9.51818 -0.000510579 0)
(9.51726 -0.000686391 0)
(9.51607 -0.000925763 0)
(9.51439 -0.00127222 0)
(9.51222 -0.00172737 0)
(9.50905 -0.00238146 0)
(9.50503 -0.00322505 0)
(9.49908 -0.00440646 0)
(9.49157 -0.00596908 0)
(9.48092 -0.00800928 0)
(9.46654 -0.010667 0)
(9.44875 -0.0145111 0)
(9.42146 -0.0171643 0)
(9.39351 -0.0269616 0)
(9.34456 -0.0226335 0)
(9.30518 -0.0473189 0)
(9.21827 -0.0268492 0)
(9.18455 -0.0603465 0)
(9.02416 -0.0366552 0)
(9.03872 -0.0424987 0)
(8.75832 -0.0103505 0)
(10.0126 -0.107048 0)
(9.18155 -0.428145 0)
(7.90923 -0.443512 0)
(6.78082 -0.303142 0)
(5.97184 -0.20176 0)
(5.27939 -0.129716 0)
(4.74232 -0.0421841 0)
(4.48679 0.0170186 0)
(4.45704 0.0239758 0)
(4.49549 0.00911636 0)
(4.51659 0.00139513 0)
(4.52344 0.00160112 0)
(4.53117 0.00154709 0)
(4.53847 0.000416464 0)
(4.54174 -0.000212753 0)
(4.5421 -0.000239195 0)
(4.5417 -0.000117583 0)
(4.54133 -7.83296e-05 0)
(4.54091 -9.28297e-05 0)
(4.54034 -0.000121509 0)
(4.53957 -0.000163878 0)
(4.53854 -0.000221506 0)
(4.53712 -0.00030598 0)
(4.53521 -0.000411301 0)
(4.53256 -0.000567601 0)
(4.52901 -0.000755137 0)
(4.52413 -0.00102835 0)
(4.51761 -0.00136942 0)
(4.50885 -0.00178418 0)
(4.4972 -0.00241228 0)
(4.48191 -0.00291672 0)
(4.46246 -0.00390442 0)
(4.43707 -0.00453514 0)
(4.40613 -0.00483692 0)
(4.37328 -0.00723174 0)
(4.31349 -0.00155082 0)
(4.3117 -0.0108083 0)
(4.16449 0.0110544 0)
(4.27118 -0.0199389 0)
(3.90925 0.034419 0)
(6.89209 -1.07002 0)
(7.47634 -1.35541 0)
(7.84878 -1.69828 0)
(8.47789 -1.82544 0)
(9.25057 -2.08508 0)
(10.1252 -2.67789 0)
(11.2375 -3.12182 0)
(11.9323 -3.70445 0)
(12.495 -4.72174 0)
(12.5651 -5.59587 0)
(11.6309 -6.35607 0)
(11.1212 -7.02027 0)
(10.5193 -6.7296 0)
(8.97844 -5.81434 0)
(7.99552 -5.22841 0)
(8.19149 -5.07904 0)
(8.46197 -5.29486 0)
(8.20506 -5.79387 0)
(7.8918 -6.31306 0)
(7.70394 -6.50572 0)
(7.38055 -6.07552 0)
(6.98178 -5.09746 0)
(6.70427 -4.0105 0)
(6.53086 -3.20657 0)
(6.37296 -2.78701 0)
(6.21125 -2.64458 0)
(6.05891 -2.62693 0)
(5.92282 -2.62859 0)
(5.80524 -2.60445 0)
(5.70685 -2.54707 0)
(5.62582 -2.46383 0)
(5.55878 -2.36482 0)
(5.50249 -2.25836 0)
(5.45446 -2.15017 0)
(5.41289 -2.04374 0)
(5.37653 -1.941 0)
(5.3445 -1.84288 0)
(5.31612 -1.74974 0)
(5.29089 -1.66158 0)
(5.26838 -1.57825 0)
(5.24827 -1.49952 0)
(5.23023 -1.42511 0)
(5.21404 -1.35476 0)
(5.19946 -1.28821 0)
(5.1863 -1.2252 0)
(5.17441 -1.16552 0)
(5.16364 -1.10895 0)
(5.15386 -1.05531 0)
(5.14497 -1.00441 0)
(5.13687 -0.956098 0)
(5.12948 -0.910218 0)
(5.12272 -0.866635 0)
(5.11654 -0.825218 0)
(5.11087 -0.785849 0)
(5.10566 -0.748417 0)
(5.10088 -0.712818 0)
(5.09648 -0.678955 0)
(5.09242 -0.646738 0)
(5.08869 -0.61608 0)
(5.08523 -0.586904 0)
(5.08204 -0.559131 0)
(5.0791 -0.532693 0)
(5.07637 -0.507521 0)
(5.07384 -0.483554 0)
(5.0715 -0.46073 0)
(5.06933 -0.438995 0)
(5.06731 -0.418293 0)
(5.06544 -0.398576 0)
(5.0637 -0.379795 0)
(5.06208 -0.361904 0)
(5.06058 -0.344861 0)
(5.05917 -0.328624 0)
(5.05787 -0.313156 0)
(5.05665 -0.298418 0)
(5.05551 -0.284376 0)
(5.05445 -0.270998 0)
(5.05347 -0.25825 0)
(5.05254 -0.246103 0)
(5.05168 -0.234529 0)
(5.05087 -0.2235 0)
(5.05012 -0.212991 0)
(5.04941 -0.202977 0)
(5.04875 -0.193433 0)
(5.04813 -0.18434 0)
(5.04755 -0.175674 0)
(5.04701 -0.167415 0)
(5.0465 -0.159545 0)
(5.04602 -0.152046 0)
(5.04557 -0.144898 0)
(5.04515 -0.138088 0)
(5.04475 -0.131597 0)
(5.04438 -0.125412 0)
(5.04403 -0.119517 0)
(5.0437 -0.113898 0)
(5.04339 -0.108544 0)
(5.0431 -0.103442 0)
(5.04283 -0.0985786 0)
(5.04257 -0.0939441 0)
(5.04233 -0.0895277 0)
(5.04209 -0.0853192 0)
(5.04188 -0.0813083 0)
(5.04167 -0.0774857 0)
(5.04148 -0.0738427 0)
(5.0413 -0.070371 0)
(5.04113 -0.0670624 0)
(5.04097 -0.0639092 0)
(5.04082 -0.0609043 0)
(5.04067 -0.0580404 0)
(5.04054 -0.0553113 0)
(5.04041 -0.0527102 0)
(5.04028 -0.0502316 0)
(5.04017 -0.047869 0)
(5.04006 -0.045618 0)
(5.03996 -0.0434722 0)
(5.03986 -0.0414276 0)
(5.03977 -0.0394789 0)
(5.03968 -0.0376217 0)
(5.0396 -0.0358519 0)
(5.03952 -0.0341649 0)
(5.03944 -0.0325577 0)
(5.03937 -0.0310255 0)
(5.03931 -0.0295655 0)
(5.03924 -0.0281741 0)
(5.03918 -0.026848 0)
(5.03913 -0.0255841 0)
(5.03907 -0.0243796 0)
(5.03902 -0.023232 0)
(5.03897 -0.0221376 0)
(5.03893 -0.0210955 0)
(5.03888 -0.020102 0)
(5.03884 -0.0191548 0)
(5.0388 -0.0182531 0)
(5.03876 -0.0173938 0)
(5.03873 -0.0165741 0)
(5.03869 -0.0157926 0)
(5.03866 -0.0150476 0)
(5.03864 -0.0143372 0)
(5.03861 -0.01366 0)
(5.03858 -0.0130148 0)
(5.03856 -0.0124001 0)
(5.03853 -0.0118145 0)
(5.0385 -0.0112561 0)
(5.03848 -0.0107237 0)
(5.03846 -0.0102161 0)
(5.03844 -0.00973233 0)
(5.03842 -0.00927108 0)
(5.0384 -0.00883145 0)
(5.03838 -0.00841225 0)
(5.03837 -0.00801275 0)
(5.03835 -0.00763172 0)
(5.03834 -0.00726869 0)
(5.03832 -0.00692227 0)
(5.03831 -0.00659232 0)
(5.0383 -0.00627724 0)
(5.03828 -0.00597726 0)
(5.03827 -0.00569066 0)
(5.03826 -0.00541771 0)
(5.03825 -0.00515704 0)
(5.03824 -0.00490843 0)
(5.03823 -0.00467141 0)
(5.03822 -0.00444477 0)
(5.03821 -0.00422907 0)
(5.03821 -0.00402251 0)
(5.0382 -0.00382595 0)
(5.03819 -0.00363764 0)
(5.03818 -0.00345839 0)
(5.03818 -0.0032865 0)
(5.03817 -0.00312283 0)
(5.03816 -0.00296618 0)
(5.03816 -0.00281595 0)
(5.03815 -0.00267345 0)
(5.03815 -0.00253619 0)
(5.03814 -0.00240532 0)
(5.03814 -0.00228014 0)
(5.03813 -0.00216176 0)
(5.03812 -0.00204567 0)
(5.03812 -0.00193659 0)
(5.03812 -0.00182863 0)
(5.03812 -0.00172797 0)
(5.03812 -0.00162795 0)
(5.03812 -0.00153526 0)
(5.03811 -0.00144279 0)
(5.03811 -0.00135767 0)
(5.0381 -0.00127229 0)
(5.0381 -0.00119292 0)
(5.0381 -0.00111314 0)
(5.03809 -0.00103877 0)
(5.03809 -0.000964526 0)
(5.03809 -0.000894543 0)
(5.03809 -0.000825442 0)
(5.03809 -0.000759083 0)
(5.03809 -0.000694719 0)
(5.03808 -0.000631544 0)
(5.03809 -0.000570581 0)
(5.03809 -0.000510097 0)
(5.03808 -0.000451857 0)
(5.03808 -0.000392451 0)
(5.03808 -0.00033782 0)
(5.03808 -0.000280504 0)
(5.03807 -0.000226736 0)
(5.03807 -0.000169145 0)
(5.03808 -0.000116402 0)
(5.03808 -6.08776e-05 0)
(5.03808 -9.1715e-06 0)
(5.03808 4.68506e-05 0)
(5.03808 0.000100121 0)
(5.03808 0.00015479 0)
(5.03808 0.000207729 0)
(5.03808 0.000263455 0)
(5.03808 0.000319734 0)
(5.03808 0.000375566 0)
(5.03808 0.000432032 0)
(5.03808 0.000490201 0)
(5.03808 0.000550993 0)
(5.03809 0.000610811 0)
(5.03808 0.000672475 0)
(5.03808 0.00073582 0)
(5.03809 0.000802934 0)
(5.03809 0.000869002 0)
(5.03809 0.000938173 0)
(5.03809 0.00100854 0)
(5.0381 0.00108415 0)
(5.0381 0.00115823 0)
(5.0381 0.00123702 0)
(5.0381 0.00131672 0)
(5.03811 0.00140262 0)
(5.03811 0.00148768 0)
(5.03811 0.00157818 0)
(5.03811 0.00167104 0)
(5.03812 0.00177003 0)
(5.03812 0.00187034 0)
(5.03812 0.00197594 0)
(5.03812 0.00208619 0)
(5.03813 0.00220219 0)
(5.03814 0.00232172 0)
(5.03814 0.00244613 0)
(5.03814 0.00257729 0)
(5.03815 0.00271398 0)
(5.03816 0.00285625 0)
(5.03816 0.00300369 0)
(5.03817 0.00316009 0)
(5.03818 0.00332275 0)
(5.03819 0.0034931 0)
(5.03819 0.00366979 0)
(5.03819 0.00385759 0)
(5.03821 0.00405316 0)
(5.03822 0.00425818 0)
(5.03822 0.00447105 0)
(5.03823 0.00469689 0)
(5.03824 0.00493249 0)
(5.03825 0.00517927 0)
(5.03826 0.00543602 0)
(5.03826 0.00570769 0)
(5.03828 0.00599173 0)
(5.03829 0.00628894 0)
(5.0383 0.00659891 0)
(5.03831 0.006926 0)
(5.03833 0.00726871 0)
(5.03835 0.00762698 0)
(5.03836 0.00800152 0)
(5.03837 0.00839576 0)
(5.03839 0.00880959 0)
(5.03841 0.00924183 0)
(5.03842 0.00969468 0)
(5.03844 0.0101703 0)
(5.03846 0.0106703 0)
(5.03849 0.0111922 0)
(5.0385 0.0117398 0)
(5.03852 0.0123142 0)
(5.03855 0.0129184 0)
(5.03858 0.013549 0)
(5.0386 0.0142112 0)
(5.03863 0.0149053 0)
(5.03866 0.0156353 0)
(5.03869 0.0163979 0)
(5.03872 0.0171984 0)
(5.03875 0.0180379 0)
(5.03879 0.0189198 0)
(5.03883 0.0198426 0)
(5.03886 0.0208099 0)
(5.0389 0.0218259 0)
(5.03895 0.022891 0)
(5.03899 0.0240079 0)
(5.03904 0.0251769 0)
(5.03908 0.0264064 0)
(5.03914 0.0276936 0)
(5.0392 0.0290449 0)
(5.03925 0.0304587 0)
(5.0393 0.0319454 0)
(5.03937 0.0335026 0)
(5.03944 0.0351362 0)
(5.0395 0.0368473 0)
(5.03957 0.0386443 0)
(5.03965 0.0405288 0)
(5.03974 0.0425036 0)
(5.03981 0.0445748 0)
(5.0399 0.0467472 0)
(5.04 0.0490277 0)
(5.04009 0.0514157 0)
(5.04019 0.0539224 0)
(5.04029 0.0565491 0)
(5.04041 0.059309 0)
(5.04053 0.0621964 0)
(5.04065 0.0652305 0)
(5.04077 0.0684059 0)
(5.04091 0.0717458 0)
(5.04106 0.0752366 0)
(5.0412 0.078908 0)
(5.04136 0.0827473 0)
(5.04153 0.0867872 0)
(5.04171 0.0910091 0)
(5.04189 0.0954496 0)
(5.04208 0.100094 0)
(5.04228 0.10498 0)
(5.0425 0.110088 0)
(5.04271 0.115459 0)
(5.04295 0.12108 0)
(5.0432 0.126987 0)
(5.04346 0.13317 0)
(5.04373 0.139665 0)
(5.04401 0.146467 0)
(5.04432 0.153612 0)
(5.04464 0.161094 0)
(5.04497 0.168949 0)
(5.04532 0.177181 0)
(5.0457 0.185823 0)
(5.0461 0.194879 0)
(5.0465 0.204383 0)
(5.04693 0.214348 0)
(5.0474 0.224805 0)
(5.04788 0.235768 0)
(5.04838 0.24727 0)
(5.04892 0.259334 0)
(5.04949 0.271993 0)
(5.05009 0.285266 0)
(5.05072 0.299191 0)
(5.05138 0.313801 0)
(5.05209 0.329128 0)
(5.05284 0.345206 0)
(5.05361 0.362072 0)
(5.05444 0.379772 0)
(5.05533 0.398342 0)
(5.05626 0.417829 0)
(5.05724 0.438271 0)
(5.05828 0.459733 0)
(5.05939 0.482251 0)
(5.06057 0.505892 0)
(5.0618 0.530695 0)
(5.06311 0.55675 0)
(5.06452 0.58409 0)
(5.06601 0.612813 0)
(5.06757 0.642955 0)
(5.06924 0.674641 0)
(5.07102 0.707903 0)
(5.07292 0.742877 0)
(5.07492 0.779599 0)
(5.07704 0.818237 0)
(5.07932 0.858828 0)
(5.08173 0.901555 0)
(5.08428 0.946464 0)
(5.08699 0.993775 0)
(5.08987 1.04354 0)
(5.09292 1.09601 0)
(5.09612 1.15125 0)
(5.0995 1.20953 0)
(5.10299 1.27101 0)
(5.10678 1.33585 0)
(5.11027 1.40454 0)
(5.1147 1.47657 0)
(5.11726 1.55408 0)
(5.12371 1.63297 0)
(5.12185 1.72314 0)
(5.13559 1.80455 0)
(5.11885 1.91791 0)
(5.15607 1.98712 0)
(5.09894 2.14612 0)
(5.19535 2.17926 0)
(5.05502 2.39721 0)
(5.25891 2.42193 0)
(5.00605 2.5836 0)
(5.32158 2.85929 0)
(5.02859 2.53587 0)
(5.31075 3.60483 0)
(5.20155 2.3787 0)
(5.23048 4.19935 0)
(5.2871 2.93515 0)
(5.4576 3.91395 0)
(4.84221 4.30721 0)
(6.0177 3.52715 0)
(4.3371 5.46012 0)
(6.03136 3.8905 0)
(4.37413 6.3958 0)
(5.5575 5.01448 0)
(4.8006 7.18928 0)
(4.99018 6.7682 0)
(5.70148 7.47098 0)
(4.90961 9.10674 0)
(5.85982 8.16982 0)
(6.31692 11.6607 0)
(5.32024 13.3409 0)
(10.8995 -0.983684 0)
(11.3019 -1.13347 0)
(11.8035 -1.92844 0)
(12.0755 -2.14198 0)
(12.6438 -2.30863 0)
(12.699 -2.60096 0)
(12.727 -2.711 0)
(13.0039 -3.21141 0)
(12.4894 -3.82515 0)
(11.7905 -4.58757 0)
(10.8977 -4.96026 0)
(9.97139 -4.46654 0)
(9.53663 -4.0039 0)
(8.82483 -4.04963 0)
(8.21988 -4.36484 0)
(8.50087 -4.81554 0)
(8.69865 -5.09671 0)
(8.0865 -4.95828 0)
(7.10654 -4.63348 0)
(6.03032 -4.37302 0)
(4.92817 -4.12517 0)
(4.14028 -3.79399 0)
(3.89578 -3.44858 0)
(4.0777 -3.17046 0)
(4.46003 -2.97018 0)
(4.87193 -2.8307 0)
(5.21927 -2.73034 0)
(5.46575 -2.64724 0)
(5.61342 -2.56514 0)
(5.68378 -2.47641 0)
(5.70191 -2.3802 0)
(5.6884 -2.27886 0)
(5.65768 -2.17556 0)
(5.619 -2.07299 0)
(5.57784 -1.97307 0)
(5.53725 -1.87691 0)
(5.49876 -1.78505 0)
(5.46304 -1.69767 0)
(5.43028 -1.61473 0)
(5.4004 -1.53608 0)
(5.37323 -1.46151 0)
(5.34853 -1.3908 0)
(5.32606 -1.32373 0)
(5.30559 -1.26007 0)
(5.28691 -1.19964 0)
(5.26983 -1.14225 0)
(5.25418 -1.08772 0)
(5.23982 -1.0359 0)
(5.22661 -0.986631 0)
(5.21443 -0.939781 0)
(5.20319 -0.895217 0)
(5.19279 -0.852821 0)
(5.18317 -0.812478 0)
(5.17424 -0.774083 0)
(5.16596 -0.737536 0)
(5.15825 -0.702742 0)
(5.15108 -0.669614 0)
(5.14439 -0.638068 0)
(5.13816 -0.608026 0)
(5.13234 -0.579414 0)
(5.1269 -0.55216 0)
(5.12181 -0.526198 0)
(5.11705 -0.501466 0)
(5.11258 -0.477904 0)
(5.1084 -0.455454 0)
(5.10448 -0.434065 0)
(5.1008 -0.413683 0)
(5.09734 -0.394263 0)
(5.09409 -0.375756 0)
(5.09104 -0.358122 0)
(5.08817 -0.341315 0)
(5.08546 -0.3253 0)
(5.08292 -0.310036 0)
(5.08052 -0.29549 0)
(5.07826 -0.281625 0)
(5.07613 -0.268413 0)
(5.07412 -0.25582 0)
(5.07223 -0.243818 0)
(5.07044 -0.232379 0)
(5.06875 -0.221477 0)
(5.06715 -0.211085 0)
(5.06565 -0.201182 0)
(5.06422 -0.191742 0)
(5.06288 -0.182745 0)
(5.0616 -0.17417 0)
(5.0604 -0.165997 0)
(5.05926 -0.158207 0)
(5.05818 -0.150782 0)
(5.05716 -0.143706 0)
(5.0562 -0.136961 0)
(5.05528 -0.130532 0)
(5.05441 -0.124405 0)
(5.05359 -0.118564 0)
(5.05282 -0.112998 0)
(5.05208 -0.107693 0)
(5.05138 -0.102636 0)
(5.05072 -0.0978168 0)