/*--------------------------------*- C++ -*----------------------------------*\
| =========                 |                                                 |
| \\      /  F ield         | OpenFOAM: The Open Source CFD Toolbox           |
|  \\    /   O peration     | Version:  2.4.0                                 |
|   \\  /    A nd           | Web:      www.OpenFOAM.org                      |
|    \\/     M anipulation  |                                                 |
\*---------------------------------------------------------------------------*/
FoamFile
{
    version     2.0;
    format      ascii;
    class       volSymmTensorField;
    location    "0.005";
    object      UPrime2Mean;
}
// * * * * * * * * * * * * * * * * * * * * * * * * * * * * * * * * * * * * * //

dimensions      [0 2 -2 0 0 0 0];

internalField   nonuniform List<symmTensor> 
17600
(
(0.454477 0.0283497 0 0.00293174 0 0)
(0.0396581 -0.0233891 0 0.025455 0 0)
(0.707144 -0.123905 0 0.0233969 0 0)
(1.48828 -0.138382 0 0.0130294 0 0)
(2.16728 -0.120496 0 0.00706548 0 0)
(2.94176 -0.0797734 0 0.00259644 0 0)
(3.549 -0.0224763 0 0.000267798 0 0)
(3.76908 0.00964414 0 2.92037e-05 0 0)
(3.75142 0.0108145 0 3.62279e-05 0 0)
(3.70598 0.0042676 0 5.79298e-06 0 0)
(3.6884 0.00196562 0 1.68323e-06 0 0)
(3.67853 0.00174031 0 8.67479e-07 0 0)
(3.66745 0.00102332 0 3.15999e-07 0 0)
(3.65994 0.000249308 0 1.97552e-08 0 0)
(3.65735 -6.1538e-05 0 2.52233e-09 0 0)
(3.65717 -8.74714e-05 0 3.02773e-09 0 0)
(3.65751 -6.62272e-05 0 1.49921e-09 0 0)
(3.6579 -6.73742e-05 0 2.043e-09 0 0)
(3.65838 -8.21909e-05 0 3.49175e-09 0 0)
(3.65901 -0.000106433 0 6.24674e-09 0 0)
(3.65983 -0.000141634 0 1.13771e-08 0 0)
(3.6609 -0.000191553 0 2.0978e-08 0 0)
(3.66245 -0.000265113 0 3.88144e-08 0 0)
(3.66414 -0.000355106 0 7.16418e-08 0 0)
(3.66793 -0.000493107 0 1.33668e-07 0 0)
(3.66847 -0.000707689 0 2.49329e-07 0 0)
(3.68192 -0.000652614 0 5.19343e-07 0 0)
(3.66889 -0.0020066 0 1.34117e-06 0 0)
(3.72053 0.00119489 0 6.12928e-06 0 0)
(3.65774 -0.00881634 0 2.75063e-05 0 0)
(3.78799 0.0153317 0 0.000144941 0 0)
(3.69822 -0.0376539 0 0.000449316 0 0)
(3.75232 0.0616895 0 0.00130136 0 0)
(4.06498 -0.116242 0 0.00381899 0 0)
(3.54046 0.12294 0 0.0081175 0 0)
(4.60117 -0.19815 0 0.0331852 0 0)
(4.54767 -0.0905284 0 0.0686263 0 0)
(4.18615 0.0141565 0 0.229078 0 0)
(9.54281 -1.8846 0 0.53839 0 0)
(7.73143 0.377247 0 0.314466 0 0)
(0.50322 0.0434619 0 0.00584554 0 0)
(0.0671152 0.0528039 0 0.0416281 0 0)
(0.00249779 0.00716426 0 0.0622212 0 0)
(0.0118746 -0.00487705 0 0.0501408 0 0)
(0.017376 0.00249906 0 0.0395546 0 0)
(0.00882551 -0.00462836 0 0.0274171 0 0)
(0.0169913 -0.0119523 0 0.00992297 0 0)
(0.0342931 -0.00563751 0 0.00100849 0 0)
(0.0367623 2.96307e-05 0 1.41396e-05 0 0)
(0.0319767 0.000591415 0 1.80365e-05 0 0)
(0.0299152 0.00033591 0 7.26487e-06 0 0)
(0.0299309 0.000406189 0 7.42386e-06 0 0)
(0.0297601 0.00038175 0 5.53036e-06 0 0)
(0.0293484 0.000207024 0 1.6219e-06 0 0)
(0.0291445 6.65944e-05 0 1.72237e-07 0 0)
(0.0291403 1.28429e-05 0 7.6011e-09 0 0)
(0.0291788 1.58214e-06 0 4.5088e-09 0 0)
(0.0292035 -1.22282e-06 0 8.83407e-09 0 0)
(0.0292195 -2.11561e-06 0 1.58134e-08 0 0)
(0.0292345 -2.93056e-06 0 2.80874e-08 0 0)
(0.0292545 -1.35701e-06 0 4.93641e-08 0 0)
(0.0292563 -5.18247e-06 0 9.14884e-08 0 0)
(0.0293461 -9.50747e-07 0 1.60991e-07 0 0)
(0.0291761 -7.54772e-06 0 3.02706e-07 0 0)
(0.0298267 -2.82824e-05 0 5.82674e-07 0 0)
(0.0283395 8.09588e-05 0 1.1983e-06 0 0)
(0.0323269 -0.000392957 0 7.8408e-06 0 0)
(0.0243095 0.000917628 0 3.98806e-05 0 0)
(0.0421623 -0.00327732 0 0.000285614 0 0)
(0.0149071 0.00400782 0 0.00115768 0 0)
(0.0636655 -0.0166834 0 0.00463388 0 0)
(0.011788 0.00825868 0 0.0105327 0 0)
(0.0577513 -0.0346879 0 0.0235268 0 0)
(0.0656251 0.00762317 0 0.0274291 0 0)
(0.0100272 -0.0199905 0 0.0534056 0 0)
(0.239999 -0.0860066 0 0.0777066 0 0)
(0.0386063 -0.00850933 0 0.13623 0 0)
(0.352194 -0.256694 0 0.260843 0 0)
(0.261581 -0.0429623 0 0.104073 0 0)
(0.459833 -0.579649 0 1.77059 0 0)
(0.498024 0.0288145 0 0.00248021 0 0)
(0.066218 0.0402798 0 0.0247168 0 0)
(0.00835272 0.0158712 0 0.0428816 0 0)
(0.0226839 0.0225137 0 0.0371299 0 0)
(0.0891792 0.0472523 0 0.0304146 0 0)
(0.12619 0.0491124 0 0.0213536 0 0)
(0.0986648 0.0248095 0 0.00749805 0 0)
(0.071983 0.00507664 0 0.000612129 0 0)
(0.0675943 -0.000820662 0 1.49986e-05 0 0)
(0.0671348 -0.000901086 0 2.25381e-05 0 0)
(0.0631344 -0.000438586 0 4.6222e-06 0 0)
(0.0594328 -0.000401201 0 3.7998e-06 0 0)
(0.0581201 -0.000312639 0 3.01351e-06 0 0)
(0.0579871 -0.000127897 0 7.36847e-07 0 0)
(0.0579519 -5.12236e-06 0 3.71256e-08 0 0)
(0.0578615 3.05795e-05 0 1.67212e-08 0 0)
(0.0578015 3.36353e-05 0 2.05023e-08 0 0)
(0.0577647 3.57762e-05 0 2.58497e-08 0 0)
(0.0577232 4.18739e-05 0 3.99197e-08 0 0)
(0.0576492 5.34052e-05 0 6.85722e-08 0 0)
(0.0575813 6.62479e-05 0 1.18147e-07 0 0)
(0.0574035 9.89893e-05 0 2.2848e-07 0 0)
(0.0573834 0.000101687 0 3.80095e-07 0 0)
(0.0568115 0.000227305 0 1.04199e-06 0 0)
(0.0573351 6.61123e-05 0 1.87494e-06 0 0)
(0.0551052 0.000682532 0 1.05782e-05 0 0)
(0.058402 -0.000490674 0 2.64604e-05 0 0)
(0.0504245 0.00223904 0 0.000143453 0 0)
(0.0623218 -0.00298275 0 0.000313819 0 0)
(0.0419408 0.00609984 0 0.00117259 0 0)
(0.0645197 -0.00835156 0 0.00157799 0 0)
(0.0395731 0.0127661 0 0.00450291 0 0)
(0.0458721 -0.0109297 0 0.00315628 0 0)
(0.0653101 0.0176862 0 0.010477 0 0)
(0.0163159 -0.00669819 0 0.00527715 0 0)
(0.0581718 0.0135915 0 0.0219247 0 0)
(0.0241462 0.0123604 0 0.031238 0 0)
(0.0181605 0.00570481 0 0.0334184 0 0)
(0.0282422 -0.0121774 0 0.274706 0 0)
(0.0308987 0.00884132 0 0.532022 0 0)
(0.498748 0.0210421 0 0.00127569 0 0)
(0.0606736 0.0278986 0 0.0131225 0 0)
(0.00519556 0.00607913 0 0.0253209 0 0)
(0.0142983 0.0123052 0 0.0247993 0 0)
(0.0748786 0.0358171 0 0.0203688 0 0)
(0.119781 0.0404921 0 0.0144033 0 0)
(0.0983772 0.023817 0 0.00618239 0 0)
(0.0748646 0.00879634 0 0.00123125 0 0)
(0.0737763 0.00270385 0 0.000119323 0 0)
(0.074984 0.00114607 0 2.06559e-05 0 0)
(0.0705998 0.000644043 0 8.09911e-06 0 0)
(0.0663969 0.000179273 0 9.23577e-07 0 0)
(0.0650818 -4.20065e-05 0 4.54145e-08 0 0)
(0.0650561 -3.52586e-05 0 6.81315e-08 0 0)
(0.0650421 1.35546e-05 0 8.99784e-09 0 0)
(0.0649394 3.28006e-05 0 1.76431e-08 0 0)
(0.0648772 3.81358e-05 0 2.61209e-08 0 0)
(0.0648445 4.51955e-05 0 4.11154e-08 0 0)
(0.0648021 5.78823e-05 0 7.08126e-08 0 0)
(0.0647331 7.38503e-05 0 1.22891e-07 0 0)
(0.0646434 0.000103117 0 2.27662e-07 0 0)
(0.0645156 0.000124211 0 3.88107e-07 0 0)
(0.0643413 0.000209375 0 8.37821e-07 0 0)
(0.0641432 0.000170755 0 1.27178e-06 0 0)
(0.0637135 0.000528158 0 4.83423e-06 0 0)
(0.0635992 -2.70844e-05 0 8.47883e-06 0 0)
(0.062321 0.00170048 0 5.73991e-05 0 0)
(0.0628817 -0.00154241 0 0.000135276 0 0)
(0.0597881 0.00560809 0 0.000671788 0 0)
(0.0606159 -0.00663673 0 0.00133055 0 0)
(0.0576771 0.0145598 0 0.00408418 0 0)
(0.0519009 -0.0131341 0 0.00434172 0 0)
(0.0585165 0.0218292 0 0.00935767 0 0)
(0.0350952 -0.00610621 0 0.00403405 0 0)
(0.050831 0.00873542 0 0.0147297 0 0)
(0.0220024 0.0172006 0 0.0211204 0 0)
(0.0203791 0.00450094 0 0.0146145 0 0)
(0.0171955 0.022137 0 0.0673949 0 0)
(0.00480867 0.0135855 0 0.125474 0 0)
(0.0285698 0.0559609 0 0.273259 0 0)
(0.499123 0.0155566 0 0.000690631 0 0)
(0.0581094 0.0200378 0 0.00724805 0 0)
(0.00467531 0.00138209 0 0.0156755 0 0)
(0.00992303 0.00543366 0 0.0170259 0 0)
(0.057653 0.0257526 0 0.0141691 0 0)
(0.0972615 0.0311641 0 0.0103832 0 0)
(0.0792134 0.0199367 0 0.00531726 0 0)
(0.0626647 0.00886415 0 0.00149799 0 0)
(0.0674997 0.00361358 0 0.000238137 0 0)
(0.0724973 0.0016315 0 4.27213e-05 0 0)
(0.0696189 0.000869614 0 1.36017e-05 0 0)
(0.0659164 0.00035622 0 2.72237e-06 0 0)
(0.0649356 7.59712e-05 0 1.0949e-07 0 0)
(0.0650963 1.85321e-05 0 1.9139e-08 0 0)
(0.065114 3.66582e-05 0 2.32713e-08 0 0)
(0.0649948 4.78511e-05 0 3.59316e-08 0 0)
(0.0649262 5.10426e-05 0 4.4295e-08 0 0)
(0.0648967 5.86229e-05 0 6.5365e-08 0 0)
(0.0648616 7.36274e-05 0 1.1014e-07 0 0)
(0.0647958 9.6313e-05 0 1.94003e-07 0 0)
(0.0647272 0.000127819 0 3.47635e-07 0 0)
(0.0645796 0.000175398 0 6.37845e-07 0 0)
(0.0645092 0.000226973 0 1.13099e-06 0 0)
(0.064114 0.000342516 0 2.25431e-06 0 0)
(0.0642372 0.000366611 0 3.60401e-06 0 0)
(0.0630101 0.000754613 0 9.97807e-06 0 0)
(0.0641056 0.000400292 0 1.31886e-05 0 0)
(0.0605171 0.00187816 0 6.41347e-05 0 0)
(0.0640103 -0.000159607 0 7.23963e-05 0 0)
(0.0567127 0.00446304 0 0.000380369 0 0)
(0.0611174 -0.00120761 0 0.000241997 0 0)
(0.0542046 0.00814205 0 0.00125068 0 0)
(0.0516408 0.000734237 0 0.000277792 0 0)
(0.0488028 0.00936028 0 0.00258226 0 0)
(0.0450276 0.0112793 0 0.00320042 0 0)
(0.0264911 0.00960367 0 0.00541147 0 0)
(0.0392383 0.0283908 0 0.0216678 0 0)
(0.0175089 0.0211089 0 0.0306264 0 0)
(0.0190981 0.042252 0 0.0998946 0 0)
(0.0527541 0.109978 0 0.243493 0 0)
(0.499332 0.0115694 0 0.000383806 0 0)
(0.0567223 0.0145929 0 0.00402137 0 0)
(0.00512119 -0.000671518 0 0.00930577 0 0)
(0.00845203 0.00168298 0 0.0109551 0 0)
(0.0464329 0.0183998 0 0.0094137 0 0)
(0.0813394 0.0233962 0 0.00697092 0 0)
(0.0655509 0.0154329 0 0.00382624 0 0)
(0.0536993 0.00762016 0 0.00128857 0 0)
(0.0624066 0.00380296 0 0.000285209 0 0)
(0.0701674 0.00200234 0 6.75111e-05 0 0)
(0.0685702 0.00111544 0 2.25973e-05 0 0)
(0.0653465 0.000544612 0 6.21281e-06 0 0)
(0.0646666 0.000211974 0 9.39197e-07 0 0)
(0.0650146 8.72015e-05 0 1.29892e-07 0 0)
(0.0650991 6.27232e-05 0 6.14415e-08 0 0)
(0.0649915 5.9091e-05 0 5.46964e-08 0 0)
(0.0649287 5.98224e-05 0 6.05483e-08 0 0)
(0.0649085 6.83877e-05 0 8.83926e-08 0 0)
(0.0648813 8.69769e-05 0 1.50588e-07 0 0)
(0.0648288 0.000113072 0 2.64137e-07 0 0)
(0.0647633 0.000155709 0 4.8718e-07 0 0)
(0.0646564 0.000199802 0 8.50275e-07 0 0)
(0.0645465 0.00029916 0 1.69652e-06 0 0)
(0.0643299 0.000337523 0 2.68756e-06 0 0)
(0.06415 0.000626755 0 6.80004e-06 0 0)
(0.0637206 0.000465995 0 8.50856e-06 0 0)
(0.0634114 0.00148496 0 3.70443e-05 0 0)
(0.0626049 0.000287001 0 3.58592e-05 0 0)
(0.0621147 0.00368643 0 0.00023689 0 0)
(0.0603434 -0.000454193 0 0.000145413 0 0)
(0.0602594 0.0074636 0 0.000944846 0 0)
(0.0554703 0.000649357 0 0.000176197 0 0)
(0.0569766 0.00907331 0 0.00183079 0 0)
(0.0481073 0.00979163 0 0.00237044 0 0)
(0.0486616 0.00727176 0 0.00302655 0 0)
(0.038945 0.0217945 0 0.012714 0 0)
(0.0384715 0.0217117 0 0.0135556 0 0)
(0.0330982 0.0314948 0 0.0359423 0 0)
(0.0418613 0.0598362 0 0.0871303 0 0)
(0.0737479 0.111299 0 0.177061 0 0)
(0.499439 0.00841119 0 0.00020502 0 0)
(0.0558598 0.0103766 0 0.00209978 0 0)
(0.00574713 -0.00137238 0 0.0050661 0 0)
(0.00818764 -0.000107705 0 0.00637669 0 0)
(0.0391716 0.0127866 0 0.00564454 0 0)
(0.0705192 0.0169052 0 0.00418385 0 0)
(0.0564354 0.0114024 0 0.00241447 0 0)
(0.0475039 0.00610558 0 0.000939069 0 0)
(0.0584471 0.0034532 0 0.000254095 0 0)
(0.0680908 0.00193875 0 6.59586e-05 0 0)
(0.0675767 0.0010808 0 2.13653e-05 0 0)
(0.0648081 0.000552516 0 6.28823e-06 0 0)
(0.0643935 0.000240614 0 1.19582e-06 0 0)
(0.0649146 0.000105971 0 1.96831e-07 0 0)
(0.0650753 6.9073e-05 0 7.46777e-08 0 0)
(0.0649887 6.23195e-05 0 6.12288e-08 0 0)
(0.0649345 6.4578e-05 0 7.171e-08 0 0)
(0.0649236 7.57276e-05 0 1.08819e-07 0 0)
(0.0649063 9.72117e-05 0 1.87401e-07 0 0)
(0.0648647 0.000128362 0 3.33129e-07 0 0)
(0.0648142 0.000174274 0 6.07732e-07 0 0)
(0.0647235 0.000233052 0 1.09379e-06 0 0)
(0.0646477 0.000323261 0 2.03953e-06 0 0)
(0.0644433 0.000428065 0 3.63015e-06 0 0)
(0.0643658 0.000603951 0 6.93405e-06 0 0)
(0.0638802 0.000791976 0 1.21497e-05 0 0)
(0.0638946 0.00111544 0 2.35614e-05 0 0)
(0.0628195 0.00150087 0 4.20907e-05 0 0)
(0.0629568 0.00200149 0 7.89452e-05 0 0)
(0.0611736 0.00287928 0 0.000151298 0 0)
(0.060764 0.00365167 0 0.00027001 0 0)
(0.0586104 0.0052222 0 0.000516226 0 0)
(0.0575265 0.00731781 0 0.00104624 0 0)
(0.0518754 0.00910653 0 0.00176318 0 0)
(0.0557985 0.0143857 0 0.00407601 0 0)
(0.0421051 0.0174795 0 0.00760312 0 0)
(0.0507679 0.0273835 0 0.0155915 0 0)
(0.048698 0.038546 0 0.0326435 0 0)
(0.0597006 0.0623049 0 0.0655899 0 0)
(0.0898448 0.0940755 0 0.101509 0 0)
(0.499488 0.00573125 0 9.61315e-05 0 0)
(0.0553074 0.00694518 0 0.000961872 0 0)
(0.0062877 -0.00133448 0 0.00238471 0 0)
(0.00834256 -0.000719628 0 0.0031493 0 0)
(0.0345641 0.00837724 0 0.00285771 0 0)
(0.0633667 0.0114406 0 0.00212816 0 0)
(0.0504767 0.00783809 0 0.00127256 0 0)
(0.043321 0.00441302 0 0.000541025 0 0)
(0.0555316 0.00268839 0 0.000163201 0 0)
(0.0664275 0.00157354 0 4.46428e-05 0 0)
(0.066756 0.000885724 0 1.44028e-05 0 0)
(0.0643646 0.000468699 0 4.4712e-06 0 0)
(0.0641589 0.000220752 0 9.93587e-07 0 0)
(0.0648188 0.000105368 0 1.95765e-07 0 0)
(0.0650477 6.90244e-05 0 7.46632e-08 0 0)
(0.0649846 6.24614e-05 0 6.23811e-08 0 0)
(0.0649414 6.68333e-05 0 7.85512e-08 0 0)
(0.064941 8.05146e-05 0 1.2432e-07 0 0)
(0.064934 0.00010485 0 2.17679e-07 0 0)
(0.0649059 0.000139222 0 3.8934e-07 0 0)
(0.0648682 0.000190388 0 7.14943e-07 0 0)
(0.0648059 0.000253053 0 1.28019e-06 0 0)
(0.0647422 0.000357206 0 2.42546e-06 0 0)
(0.0646127 0.000457633 0 4.18905e-06 0 0)
(0.0645144 0.000687067 0 8.52324e-06 0 0)
(0.064244 0.000806024 0 1.33995e-05 0 0)
(0.0641091 0.00135766 0 3.16275e-05 0 0)
(0.0635617 0.00138357 0 4.18435e-05 0 0)
(0.0633908 0.00267462 0 0.000119664 0 0)
(0.0623229 0.00251311 0 0.000134075 0 0)
(0.062186 0.00478238 0 0.000395581 0 0)
(0.0600181 0.0054659 0 0.000547672 0 0)
(0.0604629 0.00740815 0 0.0010939 0 0)
(0.0557636 0.0117593 0 0.00254131 0 0)
(0.059065 0.0134439 0 0.00347282 0 0)
(0.0507256 0.0199412 0 0.00833922 0 0)
(0.0598486 0.030527 0 0.0159268 0 0)
(0.059772 0.0384213 0 0.0261043 0 0)
(0.0759331 0.0610678 0 0.0494537 0 0)
(0.110267 0.0902388 0 0.0754942 0 0)
(0.499509 0.00333917 0 3.28622e-05 0 0)
(0.0549717 0.00399866 0 0.000323237 0 0)
(0.00665872 -0.000917547 0 0.000813416 0 0)
(0.00856307 -0.000657161 0 0.00110723 0 0)
(0.0318437 0.00474184 0 0.0010238 0 0)
(0.0589971 0.00662556 0 0.000765856 0 0)
(0.0468572 0.00457738 0 0.000466818 0 0)
(0.0407326 0.0026546 0 0.000208823 0 0)
(0.0536254 0.00169533 0 6.73554e-05 0 0)
(0.0652767 0.00102326 0 1.92153e-05 0 0)
(0.0661721 0.000581593 0 6.22783e-06 0 0)
(0.0640486 0.000314494 0 1.99073e-06 0 0)
(0.063988 0.000156279 0 4.84833e-07 0 0)
(0.0647456 8.07043e-05 0 1.10505e-07 0 0)
(0.065027 5.75173e-05 0 5.16383e-08 0 0)
(0.0649849 5.65187e-05 0 5.34801e-08 0 0)
(0.0649521 6.51794e-05 0 7.843e-08 0 0)
(0.0649615 8.22486e-05 0 1.32728e-07 0 0)
(0.064965 0.000109172 0 2.37578e-07 0 0)
(0.0649503 0.0001466 0 4.29684e-07 0 0)
(0.0649282 0.000200217 0 7.8839e-07 0 0)
(0.0648906 0.000269267 0 1.42572e-06 0 0)
(0.064853 0.000373448 0 2.65557e-06 0 0)
(0.0647742 0.000494677 0 4.72407e-06 0 0)
(0.0647161 0.000703423 0 9.06873e-06 0 0)
(0.0645559 0.000903458 0 1.55515e-05 0 0)
(0.0644713 0.00133631 0 3.15362e-05 0 0)
(0.0641731 0.0016459 0 5.09755e-05 0 0)
(0.0640302 0.00253256 0 0.00011049 0 0)
(0.0635132 0.00304214 0 0.000169643 0 0)
(0.0633757 0.00466718 0 0.000374974 0 0)
(0.0621084 0.00584256 0 0.000601133 0 0)
(0.0630768 0.00822797 0 0.00118651 0 0)
(0.0591163 0.0114055 0 0.00228672 0 0)
(0.0641637 0.0148229 0 0.00373256 0 0)
(0.0576688 0.0210135 0 0.00793894 0 0)
(0.0677426 0.0297968 0 0.0134277 0 0)
(0.0714804 0.0396356 0 0.0229572 0 0)
(0.089924 0.0593069 0 0.0393152 0 0)
(0.123369 0.0824124 0 0.0561705 0 0)
(0.499516 0.00110259 0 3.61375e-06 0 0)
(0.0548107 0.00130646 0 3.47283e-05 0 0)
(0.00684394 -0.00032301 0 8.78545e-05 0 0)
(0.00869984 -0.000252397 0 0.000121336 0 0)
(0.0305797 0.00153459 0 0.000113305 0 0)
(0.0569213 0.00216787 0 8.48969e-05 0 0)
(0.0451455 0.0015042 0 5.21915e-05 0 0)
(0.0394979 0.000889417 0 2.40585e-05 0 0)
(0.052686 0.000587491 0 8.16468e-06 0 0)
(0.0646885 0.00036488 0 2.44482e-06 0 0)
(0.0658675 0.000210456 0 8.06373e-07 0 0)
(0.0638845 0.000117177 0 2.64759e-07 0 0)
(0.0639001 6.45914e-05 0 7.45788e-08 0 0)
(0.0647096 4.22666e-05 0 2.81541e-08 0 0)
(0.0650202 3.98867e-05 0 2.70839e-08 0 0)
(0.0649914 4.71659e-05 0 4.19651e-08 0 0)
(0.0649669 6.09014e-05 0 7.37705e-08 0 0)
(0.0649849 8.13464e-05 0 1.33929e-07 0 0)
(0.0649983 0.000110437 0 2.4563e-07 0 0)
(0.064997 0.000149759 0 4.4873e-07 0 0)
(0.064991 0.000205073 0 8.25444e-07 0 0)
(0.0649793 0.000276831 0 1.49747e-06 0 0)
(0.064968 0.00038291 0 2.7799e-06 0 0)
(0.0649432 0.000509878 0 4.9667e-06 0 0)
(0.0649246 0.000719499 0 9.44136e-06 0 0)
(0.0648796 0.00093416 0 1.63574e-05 0 0)
(0.0648521 0.0013591 0 3.24295e-05 0 0)
(0.0647792 0.00171155 0 5.37e-05 0 0)
(0.0647547 0.00254684 0 0.000110844 0 0)
(0.0645935 0.00319509 0 0.000179735 0 0)
(0.0647791 0.00461904 0 0.00036217 0 0)
(0.0640574 0.00614758 0 0.000633692 0 0)
(0.0655971 0.00817226 0 0.0011242 0 0)
(0.0628579 0.0116347 0 0.00223529 0 0)
(0.068641 0.0152791 0 0.0036259 0 0)
(0.06414 0.0208541 0 0.00704591 0 0)
(0.0759395 0.0299357 0 0.0120405 0 0)
(0.0812061 0.0392735 0 0.0196074 0 0)
(0.100936 0.055588 0 0.0307477 0 0)
(0.134578 0.0748048 0 0.0422637 0 0)
(0.499515 -0.00108519 0 3.44774e-06 0 0)
(0.0548094 -0.00130629 0 3.47134e-05 0 0)
(0.0068435 0.000323354 0 8.81246e-05 0 0)
(0.0086996 0.000255948 0 0.000121862 0 0)
(0.0305801 -0.00153593 0 0.000113939 0 0)
(0.0569221 -0.00217404 0 8.55381e-05 0 0)
(0.0451483 -0.00150547 0 5.25864e-05 0 0)
(0.0395021 -0.000874952 0 2.37955e-05 0 0)
(0.0526877 -0.000556434 0 7.58092e-06 0 0)
(0.0646852 -0.000329386 0 2.05713e-06 0 0)
(0.0658631 -0.000183383 0 6.42809e-07 0 0)
(0.0638842 -9.48965e-05 0 2.02762e-07 0 0)
(0.0639045 -3.67626e-05 0 4.37177e-08 0 0)
(0.0647172 -1.77024e-06 0 9.32288e-09 0 0)
(0.0650307 1.86677e-05 0 1.39695e-08 0 0)
(0.0650056 3.54024e-05 0 3.19613e-08 0 0)
(0.0649862 5.44619e-05 0 6.61673e-08 0 0)
(0.065011 7.80313e-05 0 1.28404e-07 0 0)
(0.0650334 0.000108644 0 2.41354e-07 0 0)
(0.065045 0.000148913 0 4.45517e-07 0 0)
(0.0650553 0.00020433 0 8.21098e-07 0 0)
(0.0650685 0.000277197 0 1.49574e-06 0 0)
(0.0650862 0.000381448 0 2.76036e-06 0 0)
(0.0651108 0.000512586 0 4.97161e-06 0 0)
(0.0651412 0.000713128 0 9.29158e-06 0 0)
(0.0651956 0.000944373 0 1.64228e-05 0 0)
(0.0652488 0.00133601 0 3.13961e-05 0 0)
(0.0653692 0.0017384 0 5.39851e-05 0 0)
(0.0654884 0.00248926 0 0.000105419 0 0)
(0.0656656 0.00322716 0 0.000178437 0 0)
(0.0661548 0.00454514 0 0.000342668 0 0)
(0.0659736 0.00610042 0 0.000605552 0 0)
(0.0681295 0.00815198 0 0.00106447 0 0)
(0.0663844 0.0114852 0 0.00206212 0 0)
(0.0730285 0.0151396 0 0.00332656 0 0)
(0.0703176 0.0207248 0 0.00631536 0 0)
(0.0832969 0.0291378 0 0.0103828 0 0)
(0.0897084 0.0377985 0 0.0163786 0 0)
(0.110322 0.0519916 0 0.0245997 0 0)
(0.143236 0.0678618 0 0.0326228 0 0)
(0.499506 -0.00332196 0 3.23546e-05 0 0)
(0.0549696 -0.00399869 0 0.000323237 0 0)
(0.00665817 0.000917821 0 0.000814288 0 0)
(0.00856268 0.000660398 0 0.0011088 0 0)
(0.0318441 -0.00474372 0 0.00102579 0 0)
(0.0589987 -0.00663248 0 0.000767934 0 0)
(0.0468658 -0.00457957 0 0.000468158 0 0)
(0.0407465 -0.00263987 0 0.000208044 0 0)
(0.053632 -0.00166242 0 6.55334e-05 0 0)
(0.0652675 -0.00098687 0 1.80555e-05 0 0)
(0.0661596 -0.000555396 0 5.76502e-06 0 0)
(0.0640481 -0.000293627 0 1.82452e-06 0 0)
(0.0640008 -0.000130034 0 4.03699e-07 0 0)
(0.0647681 -4.23806e-05 0 6.18842e-08 0 0)
(0.0650584 -1.55076e-06 0 1.74984e-08 0 0)
(0.0650274 2.34547e-05 0 2.65093e-08 0 0)
(0.0650096 4.70081e-05 0 5.76495e-08 0 0)
(0.0650391 7.28712e-05 0 1.17527e-07 0 0)
(0.0650692 0.000104085 0 2.25704e-07 0 0)
(0.0650927 0.000144095 0 4.20467e-07 0 0)
(0.0651192 0.000198248 0 7.76661e-07 0 0)
(0.0651563 0.000269826 0 1.41834e-06 0 0)
(0.0652033 0.000370355 0 2.60832e-06 0 0)
(0.0652744 0.000499973 0 4.71454e-06 0 0)
(0.0653563 0.000690463 0 8.72486e-06 0 0)
(0.0655006 0.000923092 0 1.55587e-05 0 0)
(0.0656442 0.00128703 0 2.91402e-05 0 0)
(0.0659317 0.00170266 0 5.10168e-05 0 0)
(0.0662177 0.00238586 0 9.63559e-05 0 0)
(0.0666866 0.00315769 0 0.000167242 0 0)
(0.0674949 0.004361 0 0.000309814 0 0)
(0.067832 0.00592604 0 0.000555077 0 0)
(0.0705424 0.00790562 0 0.000961365 0 0)
(0.0697697 0.0110847 0 0.00182956 0 0)
(0.0772485 0.0147277 0 0.00296054 0 0)
(0.0759728 0.020079 0 0.00547171 0 0)
(0.0900782 0.0278361 0 0.00875875 0 0)
(0.0972856 0.0359554 0 0.0136263 0 0)
(0.118108 0.0482319 0 0.0197674 0 0)
(0.149988 0.0613957 0 0.0254696 0 0)
(0.499482 -0.005714 0 9.52248e-05 0 0)
(0.0553034 -0.00694559 0 0.000962065 0 0)
(0.00628623 0.00133444 0 0.00238679 0 0)
(0.00834141 0.000722414 0 0.00315228 0 0)
(0.034565 -0.00837992 0 0.00286089 0 0)
(0.0633696 -0.0114504 0 0.00213254 0 0)
(0.0504923 -0.00784308 0 0.00127566 0 0)
(0.0433458 -0.0043969 0 0.000539529 0 0)
(0.0555415 -0.00265209 0 0.000159976 0 0)
(0.0664082 -0.00153595 0 4.27666e-05 0 0)
(0.0667324 -0.000861158 0 1.37159e-05 0 0)
(0.0643628 -0.000450504 0 4.24991e-06 0 0)
(0.0641797 -0.000197621 0 8.93123e-07 0 0)
(0.0648556 -7.0401e-05 0 1.34013e-07 0 0)
(0.0650996 -1.70005e-05 0 2.93268e-08 0 0)
(0.0650551 1.28212e-05 0 2.48452e-08 0 0)
(0.0650359 3.92211e-05 0 4.90614e-08 0 0)
(0.0650681 6.6196e-05 0 1.02605e-07 0 0)
(0.0651046 9.69541e-05 0 2.00471e-07 0 0)
(0.065139 0.000135502 0 3.76406e-07 0 0)
(0.065181 0.000186963 0 6.96771e-07 0 0)
(0.0652403 0.000255164 0 1.27472e-06 0 0)
(0.065316 0.000349559 0 2.33729e-06 0 0)
(0.0654299 0.000473493 0 4.23395e-06 0 0)
(0.0655633 0.000650277 0 7.77422e-06 0 0)
(0.0657886 0.00087509 0 1.39407e-05 0 0)
(0.0660241 0.00120795 0 2.57228e-05 0 0)
(0.0664603 0.00161489 0 4.55123e-05 0 0)
(0.0669141 0.00223379 0 8.41303e-05 0 0)
(0.0676474 0.0029911 0 0.000147899 0 0)
(0.0687674 0.0040917 0 0.000268441 0 0)
(0.0695833 0.00559913 0 0.000483557 0 0)
(0.0728291 0.00746439 0 0.000829154 0 0)
(0.0729459 0.0104823 0 0.00156611 0 0)
(0.0812194 0.01394 0 0.00251918 0 0)
(0.0811977 0.0190595 0 0.00460696 0 0)
(0.0963015 0.0261824 0 0.00724761 0 0)
(0.104073 0.0337281 0 0.0111956 0 0)
(0.124842 0.0445223 0 0.0159342 0 0)
(0.155599 0.055832 0 0.0202914 0 0)
(0.499431 -0.00839462 0 0.000203682 0 0)
(0.0558548 -0.0103772 0 0.00210023 0 0)
(0.00574488 0.00137166 0 0.00506978 0 0)
(0.00818521 0.000109591 0 0.00638215 0 0)
(0.0391708 -0.0127903 0 0.00564908 0 0)
(0.0705203 -0.0169193 0 0.00419198 0 0)
(0.0564612 -0.011412 0 0.00242065 0 0)
(0.0475438 -0.00608572 0 0.000936194 0 0)
(0.0584596 -0.00341058 0 0.000249139 0 0)
(0.0680588 -0.00190054 0 6.35431e-05 0 0)
(0.0675404 -0.00106004 0 2.06134e-05 0 0)
(0.0648045 -0.000538848 0 6.08868e-06 0 0)
(0.0644219 -0.000222315 0 1.11599e-06 0 0)
(0.0649654 -7.6584e-05 0 1.46669e-07 0 0)
(0.0651469 -2.32045e-05 0 3.31775e-08 0 0)
(0.0650852 5.82527e-06 0 2.3467e-08 0 0)
(0.0650634 3.23699e-05 0 4.07101e-08 0 0)
(0.0650969 5.87111e-05 0 8.53605e-08 0 0)
(0.0651385 8.76621e-05 0 1.68435e-07 0 0)
(0.0651826 0.000123482 0 3.18017e-07 0 0)
(0.0652387 0.000170809 0 5.89503e-07 0 0)
(0.0653185 0.000233634 0 1.07974e-06 0 0)
(0.0654211 0.000319653 0 1.9749e-06 0 0)
(0.0655737 0.000433924 0 3.58071e-06 0 0)
(0.0657561 0.0005937 0 6.53608e-06 0 0)
(0.0660535 0.000802295 0 1.17538e-05 0 0)
(0.0663776 0.00110021 0 2.14592e-05 0 0)
(0.0669448 0.00148126 0 3.82071e-05 0 0)
(0.067561 0.00203162 0 6.95713e-05 0 0)
(0.068529 0.00274479 0 0.000123399 0 0)
(0.069947 0.0037294 0 0.000220602 0 0)
(0.0711945 0.00514225 0 0.000399851 0 0)
(0.0749546 0.00684087 0 0.000678647 0 0)
(0.0758607 0.00966645 0 0.00128286 0 0)
(0.0849191 0.0128228 0 0.0020424 0 0)
(0.086005 0.0177049 0 0.00375227 0 0)
(0.102027 0.0241533 0 0.0058261 0 0)
(0.110303 0.0312599 0 0.0090764 0 0)
(0.130926 0.0410057 0 0.0128915 0 0)
(0.160475 0.0509994 0 0.0164225 0 0)
(0.499322 -0.0115526 0 0.000381908 0 0)
(0.0567162 -0.014592 0 0.00402147 0 0)
(0.0051177 0.000669785 0 0.00931027 0 0)
(0.00844822 -0.00168405 0 0.0109618 0 0)
(0.0464296 -0.0184069 0 0.00942082 0 0)
(0.0813374 -0.0234188 0 0.00698643 0 0)
(0.0655932 -0.0154519 0 0.00383836 0 0)
(0.0537601 -0.00759571 0 0.00128433 0 0)
(0.062416 -0.0037489 0 0.00027839 0 0)
(0.0701124 -0.00196113 0 6.47379e-05 0 0)
(0.0685168 -0.00110027 0 2.19456e-05 0 0)
(0.0653403 -0.000538451 0 6.13003e-06 0 0)
(0.0647019 -0.000200674 0 9.11622e-07 0 0)
(0.0650784 -6.47526e-05 0 1.02489e-07 0 0)
(0.0651896 -2.3976e-05 0 3.04782e-08 0 0)
(0.0651129 4.78802e-07 0 2.20203e-08 0 0)
(0.0650894 2.57078e-05 0 3.24912e-08 0 0)
(0.0651236 5.02679e-05 0 6.68731e-08 0 0)
(0.0651694 7.63705e-05 0 1.32501e-07 0 0)
(0.0652221 0.000108339 0 2.51045e-07 0 0)
(0.0652909 0.000150251 0 4.65738e-07 0 0)
(0.0653887 0.000205856 0 8.53297e-07 0 0)
(0.0655156 0.000281409 0 1.55742e-06 0 0)
(0.0657023 0.000382546 0 2.82361e-06 0 0)
(0.0659294 0.000522006 0 5.13017e-06 0 0)
(0.0662895 0.000707479 0 9.23782e-06 0 0)
(0.066695 0.000965875 0 1.67344e-05 0 0)
(0.0673758 0.00130725 0 2.99139e-05 0 0)
(0.0681425 0.00178287 0 5.38871e-05 0 0)
(0.0693145 0.00242757 0 9.62751e-05 0 0)
(0.0710115 0.00328044 0 0.000170046 0 0)
(0.0726324 0.00456836 0 0.000311135 0 0)
(0.0768866 0.0060435 0 0.000520935 0 0)
(0.0784687 0.00865775 0 0.000997777 0 0)
(0.0883079 0.0113807 0 0.00155707 0 0)
(0.0904041 0.0160388 0 0.00293248 0 0)
(0.107323 0.0217155 0 0.00448648 0 0)
(0.116243 0.0285962 0 0.00722134 0 0)
(0.13668 0.0377358 0 0.0104634 0 0)
(0.165094 0.0468801 0 0.0135162 0 0)
(0.499113 -0.0155412 0 0.000688125 0 0)
(0.0581047 -0.0200395 0 0.00724953 0 0)
(0.00467268 -0.00138795 0 0.0156852 0 0)
(0.00991803 -0.00543602 0 0.0170296 0 0)
(0.0576402 -0.0257577 0 0.0141722 0 0)
(0.0972486 -0.0311974 0 0.0104086 0 0)
(0.0792811 -0.019972 0 0.00533968 0 0)
(0.0627605 -0.00883729 0 0.0014944 0 0)
(0.0675058 -0.00354253 0 0.000230154 0 0)
(0.0724094 -0.00158047 0 3.9903e-05 0 0)
(0.0695413 -0.000854825 0 1.29906e-05 0 0)
(0.0659065 -0.000357598 0 2.7159e-06 0 0)
(0.064979 -7.45827e-05 0 1.19485e-07 0 0)
(0.065174 -5.17459e-06 0 1.21391e-08 0 0)
(0.0652225 -6.91454e-06 0 9.67827e-09 0 0)
(0.0651381 1.08554e-06 0 1.5427e-08 0 0)
(0.0651141 2.04425e-05 0 2.41105e-08 0 0)
(0.0651478 4.11323e-05 0 4.84711e-08 0 0)
(0.0651965 6.32014e-05 0 9.57441e-08 0 0)
(0.0652563 9.03301e-05 0 1.81683e-07 0 0)
(0.0653359 0.000125655 0 3.37089e-07 0 0)
(0.0654491 0.000172457 0 6.17521e-07 0 0)
(0.0655969 0.000235581 0 1.1245e-06 0 0)
(0.0658125 0.000320596 0 2.03748e-06 0 0)
(0.0660783 0.000436543 0 3.68677e-06 0 0)
(0.0664913 0.000593098 0 6.64255e-06 0 0)
(0.0669683 0.000807082 0 1.19584e-05 0 0)
(0.067744 0.00109758 0 2.14445e-05 0 0)
(0.0686454 0.00149072 0 3.83106e-05 0 0)
(0.0699866 0.00204689 0 6.89646e-05 0 0)
(0.0719417 0.0027504 0 0.000120475 0 0)
(0.0738619 0.00388625 0 0.000223786 0 0)
(0.0785993 0.00508121 0 0.000367238 0 0)
(0.0807072 0.00747277 0 0.000726085 0 0)
(0.091353 0.00959858 0 0.0010878 0 0)
(0.0943543 0.0140981 0 0.00217536 0 0)
(0.112226 0.018727 0 0.00320829 0 0)
(0.122204 0.0257293 0 0.00558258 0 0)
(0.142452 0.0345099 0 0.00840196 0 0)
(0.169931 0.0436981 0 0.0114653 0 0)
(0.498739 -0.0210285 0 0.00127247 0 0)
(0.0606701 -0.0279004 0 0.0131244 0 0)
(0.00519494 -0.0060923 0 0.0253419 0 0)
(0.014291 -0.0123126 0 0.0248024 0 0)
(0.0748426 -0.0358186 0 0.0203693 0 0)
(0.119737 -0.0405366 0 0.0144439 0 0)
(0.0984754 -0.0238523 0 0.00620586 0 0)
(0.075015 -0.00875767 0 0.00122545 0 0)
(0.0737832 -0.00262894 0 0.000113279 0 0)
(0.0748534 -0.00110553 0 1.89462e-05 0 0)
(0.0704864 -0.000642052 0 7.81797e-06 0 0)
(0.0663739 -0.000190135 0 9.67874e-07 0 0)
(0.0651298 3.64261e-05 0 3.28622e-08 0 0)
(0.065147 4.50602e-05 0 6.25014e-08 0 0)
(0.0651674 1.08608e-05 0 6.35891e-09 0 0)
(0.0651019 4.89357e-06 0 8.79393e-09 0 0)
(0.065088 1.76112e-05 0 1.58429e-08 0 0)
(0.0651238 3.27182e-05 0 3.16741e-08 0 0)
(0.0651755 4.92618e-05 0 6.18023e-08 0 0)
(0.0652411 7.03019e-05 0 1.16774e-07 0 0)
(0.065329 9.77854e-05 0 2.16006e-07 0 0)
(0.0654538 0.000134303 0 3.95085e-07 0 0)
(0.0656178 0.000183211 0 7.1707e-07 0 0)
(0.0658553 0.000249489 0 1.29729e-06 0 0)
(0.0661515 0.000339043 0 2.33799e-06 0 0)
(0.0666044 0.000461659 0 4.21145e-06 0 0)
(0.0671379 0.000626743 0 7.54307e-06 0 0)
(0.067985 0.000856209 0 1.35567e-05 0 0)
(0.0689958 0.00116032 0 2.4084e-05 0 0)
(0.0704609 0.00160685 0 4.36392e-05 0 0)
(0.072638 0.00215059 0 7.5685e-05 0 0)
(0.074759 0.00309239 0 0.000142972 0 0)
(0.0799509 0.00398457 0 0.000230019 0 0)
(0.0823741 0.00608746 0 0.000476268 0 0)
(0.093836 0.00752537 0 0.000672416 0 0)
(0.0975305 0.011844 0 0.00149027 0 0)
(0.116437 0.0150527 0 0.0020238 0 0)
(0.128021 0.0224467 0 0.00408427 0 0)
(0.148409 0.0306034 0 0.00634788 0 0)
(0.175502 0.0420879 0 0.0103505 0 0)
(0.498012 -0.0287949 0 0.00247512 0 0)
(0.0662198 -0.0402846 0 0.0247198 0 0)
(0.00835485 -0.0158935 0 0.0429233 0 0)
(0.0226796 -0.0225255 0 0.0371236 0 0)
(0.0891346 -0.0472652 0 0.0304124 0 0)
(0.126151 -0.0491975 0 0.0214351 0 0)
(0.0988021 -0.0248668 0 0.00755388 0 0)
(0.0721607 -0.00499149 0 0.000609469 0 0)
(0.0676054 0.000931598 0 1.81896e-05 0 0)
(0.0670092 0.000952773 0 2.54796e-05 0 0)
(0.0630347 0.000430914 0 4.97782e-06 0 0)
(0.0594207 0.000370256 0 3.47845e-06 0 0)
(0.0581729 0.000288271 0 2.64641e-06 0 0)
(0.0580777 0.000121495 0 6.26207e-07 0 0)
(0.0580703 1.54612e-05 0 2.696e-08 0 0)
(0.0580163 -5.00357e-06 0 9.22012e-09 0 0)
(0.0580063 5.91274e-06 0 1.06713e-08 0 0)
(0.0580373 1.90523e-05 0 1.71917e-08 0 0)
(0.0580851 3.20617e-05 0 3.31838e-08 0 0)
(0.0581479 4.75865e-05 0 6.31156e-08 0 0)
(0.0582325 6.69325e-05 0 1.17035e-07 0 0)
(0.058352 9.23302e-05 0 2.14383e-07 0 0)
(0.0585092 0.000125792 0 3.88194e-07 0 0)
(0.0587353 0.000171475 0 7.02184e-07 0 0)
(0.0590186 0.000232415 0 1.26177e-06 0 0)
(0.0594469 0.000317344 0 2.27614e-06 0 0)
(0.0599556 0.000429878 0 4.06372e-06 0 0)
(0.0607543 0.00058951 0 7.32907e-06 0 0)
(0.0617128 0.000800108 0 1.30171e-05 0 0)
(0.0631025 0.00111178 0 2.36875e-05 0 0)
(0.0651441 0.0014964 0 4.12793e-05 0 0)
(0.0672121 0.00217381 0 7.89761e-05 0 0)
(0.0720175 0.00276483 0 0.000125324 0 0)
(0.0745613 0.00447449 0 0.000281358 0 0)
(0.0851694 0.00504041 0 0.00034938 0 0)
(0.0892126 0.00934869 0 0.000995726 0 0)
(0.107433 0.00993825 0 0.000987227 0 0)
(0.119185 0.018635 0 0.00298445 0 0)
(0.141946 0.0231571 0 0.00380013 0 0)