/*--------------------------------*- C++ -*----------------------------------*\
| =========                 |                                                 |
| \\      /  F ield         | OpenFOAM: The Open Source CFD Toolbox           |
|  \\    /   O peration     | Version:  2.4.0                                 |
|   \\  /    A nd           | Web:      www.OpenFOAM.org                      |
|    \\/     M anipulation  |                                                 |
\*---------------------------------------------------------------------------*/
FoamFile
{
    version     2.0;
    format      ascii;
    class       volScalarField;
    location    "0.075";
    object      nut;
}
// * * * * * * * * * * * * * * * * * * * * * * * * * * * * * * * * * * * * * //

dimensions      [0 2 -1 0 0 0 0];

internalField   nonuniform List<scalar> 
17600
(
0.00010783
0.00012451
0.000135993
0.000143228
0.000147274
0.000149058
0.000149311
0.000148581
0.000147257
0.000145609
0.000143819
0.000142008
0.000140254
0.000138609
0.000137102
0.00013575
0.000134558
0.000133522
0.000132622
0.000131997
0.000329173
0.000212655
0.000162185
0.00013586
0.000121229
0.000113025
0.000108733
0.000107059
0.000107297
0.000109044
0.000112053
0.000116155
0.000121216
0.000127109
0.000133698
0.000140832
0.000148345
0.00015606
0.000163856
0.000169544
0.000659514
0.000505622
0.000400841
0.000328641
0.000277966
0.000241566
0.000214856
0.000194963
0.000180061
0.000168963
0.00016088
0.000155282
0.000151804
0.000150191
0.000150253
0.000151841
0.00015482
0.000159055
0.000164363
0.000169671
0.000798066
0.000719144
0.00063947
0.000568171
0.000507729
0.000457532
0.000415973
0.000381395
0.000352386
0.000327824
0.000306848
0.000288811
0.000273239
0.00025979
0.00024823
0.000238404
0.000230212
0.000223581
0.000218351
0.000213801
0.000836034
0.000805282
0.000764927
0.000720395
0.00067586
0.000633741
0.000595094
0.00056017
0.000528805
0.000500655
0.000475318
0.0004524
0.000431543
0.00041244
0.000394837
0.000378536
0.000363384
0.000349258
0.00033595
0.000322975
0.000845497
0.000833333
0.000815252
0.00079227
0.0007661
0.00073842
0.000710527
0.000683286
0.000657208
0.000632544
0.000609371
0.000587658
0.000567312
0.000548206
0.000530202
0.00051316
0.000496945
0.000481418
0.000466368
0.000451517
0.000847815
0.000841759
0.000833143
0.000821665
0.000807553
0.000791359
0.000773738
0.000755308
0.000736577
0.00071793
0.000699633
0.000681855
0.000664689
0.000648172
0.000632302
0.000617048
0.000602359
0.000588162
0.00057433
0.00056076
0.000848382
0.000844198
0.000839116
0.000832753
0.00082492
0.000815628
0.000805039
0.000793399
0.000780981
0.000768051
0.000754838
0.000741534
0.000728281
0.000715187
0.000702322
0.000689729
0.000677424
0.000665404
0.000653626
0.000642099
0.00084852
0.000844889
0.000841035
0.000836725
0.000831764
0.000826029
0.000819477
0.000812137
0.00080409
0.00079545
0.00078634
0.000776887
0.000767202
0.000757385
0.000747518
0.000737665
0.000727873
0.000718172
0.000708572
0.000699138
0.000848553
0.000845082
0.000841635
0.000838096
0.000834345
0.000830269
0.000825787
0.000820851
0.000815449
0.000809598
0.000803336
0.000796716
0.000789798
0.000782644
0.000775312
0.000767856
0.000760322
0.000752747
0.000745159
0.000737643
0.00084856
0.000845133
0.000841817
0.000838556
0.000835284
0.000831931
0.000828429
0.000824725
0.000820777
0.000816564
0.000812078
0.000807326
0.000802327
0.000797104
0.000791688
0.000786109
0.000780398
0.000774584
0.000768695
0.000762811
0.00084856
0.000845146
0.000841871
0.000838706
0.000835616
0.000832561
0.000829497
0.000826382
0.000823178
0.000819856
0.000816392
0.000812773
0.000808994
0.000805056
0.000800965
0.000796734
0.000792376
0.000787906
0.000783344
0.00077876
0.00084856
0.000845148
0.000841885
0.000838752
0.000835729
0.000832792
0.000829914
0.000827067
0.000824224
0.000821357
0.000818445
0.000815468
0.000812413
0.00080927
0.000806034
0.000802703
0.000799279
0.000795767
0.000792177
0.000788563
0.000848559
0.000845147
0.000841887
0.000838765
0.000835766
0.000832874
0.000830072
0.000827342
0.000824664
0.000822019
0.00081939
0.000816758
0.000814109
0.00081143
0.000808712
0.000805947
0.000803131
0.000800261
0.000797339
0.000794412
0.000848558
0.000845146
0.000841887
0.000838767
0.000835776
0.000832901
0.000830129
0.000827448
0.000824844
0.000822303
0.000819811
0.000817356
0.000814923
0.000812503
0.000810084
0.000807657
0.000805215
0.000802753
0.000800268
0.0007978
0.000848557
0.000845145
0.000841885
0.000838767
0.000835778
0.000832908
0.000830148
0.000827487
0.000824914
0.00082242
0.000819993
0.000817625
0.000815304
0.00081302
0.000810766
0.000808531
0.00080631
0.000804095
0.000801882
0.000799707
0.000848557
0.000845144
0.000841884
0.000838765
0.000835777
0.00083291
0.000830153
0.0008275
0.00082494
0.000822466
0.00082007
0.000817742
0.000815476
0.000813262
0.000811095
0.000808966
0.000806869
0.000804797
0.000802746
0.000800751
0.000848557
0.000845143
0.000841883
0.000838764
0.000835776
0.000832909
0.000830154
0.000827504
0.000824949
0.000822484
0.0008201
0.000817791
0.000815551
0.000813372
0.000811249
0.000809175
0.000807145
0.000805152
0.000803194
0.000801302
0.000848556
0.000845143
0.000841883
0.000838763
0.000835775
0.000832908
0.000830154
0.000827504
0.000824952
0.000822489
0.000820111
0.000817811
0.000815582
0.00081342
0.000811318
0.000809271
0.000807275
0.000805323
0.000803412
0.000801576
0.000848556
0.000845143
0.000841882
0.000838763
0.000835774
0.000832908
0.000830153
0.000827504
0.000824952
0.000822491
0.000820115
0.000817817
0.000815593
0.000813437
0.000811344
0.000809308
0.000807325
0.00080539
0.0008035
0.000801688
0.000848556
0.000845143
0.000841882
0.000838763
0.000835774
0.000832908
0.000830153
0.000827504
0.000824952
0.000822491
0.000820115
0.000817817
0.000815593
0.000813437
0.000811344
0.000809308
0.000807325
0.00080539
0.0008035
0.000801687
0.000848556
0.000845143
0.000841883
0.000838763
0.000835775
0.000832908
0.000830154
0.000827504
0.000824952
0.000822489
0.000820111
0.000817811
0.000815582
0.00081342
0.000811318
0.000809271
0.000807274
0.000805322
0.000803411
0.000801573
0.000848557
0.000845143
0.000841883
0.000838764
0.000835776
0.000832909
0.000830154
0.000827504
0.000824949
0.000822484
0.0008201
0.000817791
0.000815551
0.000813372
0.000811249
0.000809176
0.000807145
0.000805152
0.000803192
0.000801296
0.000848557
0.000845144
0.000841884
0.000838765
0.000835777
0.00083291
0.000830153
0.0008275
0.00082494
0.000822466
0.00082007
0.000817742
0.000815476
0.000813263
0.000811095
0.000808966
0.000806869
0.000804796
0.000802744
0.000800743
0.000848557
0.000845145
0.000841885
0.000838767
0.000835778
0.000832908
0.000830148
0.000827487
0.000824914
0.00082242
0.000819993
0.000817625
0.000815304
0.00081302
0.000810766
0.000808532
0.00080631
0.000804094
0.000801879
0.000799698
0.000848558
0.000845146
0.000841887
0.000838767
0.000835776
0.000832901
0.000830129
0.000827448
0.000824844
0.000822303
0.000819811
0.000817356
0.000814923
0.000812503
0.000810084
0.000807657
0.000805215
0.000802752
0.000800265
0.000797789
0.000848559
0.000845147
0.000841887
0.000838765
0.000835766
0.000832874
0.000830072
0.000827342
0.000824664
0.000822019
0.00081939
0.000816758
0.000814109
0.00081143
0.000808712
0.000805948
0.000803132
0.000800262
0.000797337
0.000794402
0.00084856
0.000845148
0.000841885
0.000838752
0.000835729
0.000832792
0.000829914
0.000827067
0.000824224
0.000821357
0.000818445
0.000815468
0.000812413
0.00080927
0.000806034
0.000802704
0.000799281
0.00079577
0.000792177
0.00078856
0.00084856
0.000845146
0.000841871
0.000838706
0.000835616
0.000832561
0.000829497
0.000826382
0.000823178
0.000819856
0.000816392
0.000812773
0.000808994
0.000805056
0.000800966
0.000796735
0.000792378
0.000787911
0.000783351
0.000778772
0.00084856
0.000845133
0.000841817
0.000838556
0.000835284
0.000831931
0.000828429
0.000824725
0.000820777
0.000816564
0.000812078
0.000807326
0.000802327
0.000797105
0.000791689
0.000786111
0.000780402
0.000774594
0.000768713
0.000762857
0.000848553
0.000845082
0.000841635
0.000838096
0.000834345
0.000830269
0.000825787
0.000820851
0.000815449
0.000809598
0.000803336
0.000796716
0.000789798
0.000782645
0.000775314
0.000767859
0.000760329
0.000752764
0.000745199
0.000737757
0.00084852
0.000844889
0.000841035
0.000836725
0.000831764
0.000826029
0.000819477
0.000812137
0.00080409
0.000795449
0.000786341
0.000776887
0.000767203
0.000757386
0.00074752
0.00073767
0.000727884
0.000718202
0.000708649
0.000699377
0.000848382
0.000844198
0.000839116
0.000832753
0.00082492
0.000815628
0.000805039
0.000793399
0.000780981
0.00076805
0.000754839
0.000741534
0.000728282
0.000715188
0.000702325
0.000689736
0.000677442
0.000665452
0.000653764
0.000642564
0.000847815
0.000841759
0.000833143
0.000821665
0.000807553
0.000791359
0.000773738
0.000755308
0.000736577
0.00071793
0.000699633
0.000681855
0.00066469
0.000648174
0.000632307
0.000617058
0.000602384
0.000588235
0.000574565
0.000561619
0.000845497
0.000833333
0.000815252
0.00079227
0.0007661
0.00073842
0.000710527
0.000683286
0.000657208
0.000632544
0.000609371
0.000587659
0.000567313
0.000548208
0.000530207
0.000513173
0.000496978
0.000481522
0.000466732
0.000452977
0.000836034
0.000805282
0.000764927
0.000720395
0.00067586
0.000633741
0.000595094
0.000560169
0.000528805
0.000500655
0.000475318
0.0004524
0.000431544
0.000412442
0.000394844
0.000378551
0.000363421
0.000349377
0.000336396
0.000324975
0.000798066
0.000719144
0.00063947
0.000568171
0.000507729
0.000457532
0.000415973
0.000381395
0.000352386
0.000327824
0.000306848
0.000288812
0.00027324
0.000259792
0.000248235
0.000238414
0.000230238
0.000223661
0.000218658
0.000215536
0.000659514
0.000505622
0.000400841
0.000328641
0.000277966
0.000241566
0.000214856
0.000194963
0.000180061
0.000168963
0.00016088
0.000155282
0.000151804
0.000150191
0.000150254
0.000151844
0.000154828
0.000159078
0.000164447
0.000170924
0.000329173
0.000212655
0.000162185
0.00013586
0.000121229
0.000113025
0.000108733
0.000107059
0.000107297
0.000109044
0.000112053
0.000116155
0.000121216
0.000127109
0.000133698
0.000140833
0.000148349
0.000156075
0.000163842
0.000171615
0.00010783
0.00012451
0.000135993
0.000143228
0.000147274
0.000149058
0.000149311
0.000148581
0.000147257
0.000145609
0.000143819
0.000142008
0.000140255
0.000138609
0.000137103
0.000135751
0.00013456
0.000133527
0.000132648
0.000131888
0.000169818
0.000217554
0.000271782
0.000329997
0.000389154
0.000447113
0.000503003
0.000556861
0.00060917
0.000660512
0.000711358
0.000762011
0.00081263
0.000863304
0.000914106
0.00096512
0.00101643
0.00106811
0.00112024
0.00117288
0.0012261
0.00127995
0.0013345
0.0013898
0.00144591
0.00150288
0.00156079
0.00161968
0.0016796
0.0017406
0.0018027
0.00186594
0.00193034
0.00199589
0.00206261
0.00213048
0.00219948
0.00226958
0.00234074
0.00241293
0.00248607
0.00256011
0.00263499
0.00271064
0.00278699
0.00286397
0.0029415
0.00301951
0.00309792
0.00317666
0.00325565
0.00333483
0.00341412
0.00349345
0.00357275
0.00365194
0.00373096
0.00380975
0.00388821
0.0039663
0.00404393
0.00412102
0.0041975
0.00427329
0.00434829
0.00442242
0.00449558
0.00456767
0.00463858
0.0047082
0.00477641
0.0048431
0.00490812
0.00497136
0.00503269
0.00509197
0.00514907
0.00520386
0.00525621
0.00530601
0.00535314
0.0053975
0.00543898
0.00547751
0.005513
0.00554542
0.0055747
0.00560083
0.0056238
0.00564362
0.00566031
0.00567391
0.0056845
0.00569215
0.00569697
0.00569907
0.00569859
0.0056957
0.00569055
0.00568335
0.00567431
0.00566364
0.0056516
0.00563845
0.00562447
0.00560997
0.00559526
0.0055807
0.00556667
0.00555356
0.00554183
0.00553193
0.00552441
0.00551982
0.00551879
0.00552203
0.00553031
0.00554448
0.0055655
0.00559443
0.00563247
0.0056809
0.00574115
0.00581475
0.00590331
0.00600849
0.00613193
0.00627517
0.00643952
0.00662594
0.00683489
0.00706621
0.00731898
0.00759147
0.00788113
0.00818469
0.00849826
0.00881756
0.00913814
0.00945564
0.00976597
0.0100655
0.0103511
0.0106205
0.0108717
0.0111037
0.0113159
0.0115081
0.0116806
0.0118339
0.0119691
0.012087
0.0121887
0.0122755
0.0123484
0.0124087
0.0124574
0.0124957
0.0125247
0.0125453
0.0125586
0.0125654
0.0125666
0.0125629
0.0125551
0.0125438
0.0125297
0.0125133
0.0124953
0.0124762
0.0124565
0.0124368
0.0124176
0.0123996
0.0123833
0.0123694
0.0123588
0.0123521
0.0123504
0.0123548
0.0123666
0.0123875
0.0124195
0.0124649
0.012527
0.0126095
0.0127169
0.012854
0.0130254
0.0132332
0.013474
0.0137328
0.0139754
0.0141368
0.0141077
0.0137145
0.0126876
0.0106222
0.00702497
0.00131518
0.000174595
0.000183753
0.000198414
0.000219808
0.000248296
0.000283548
0.000324609
0.000370126
0.000418616
0.000468718
0.000519388
0.000569977
0.000620205
0.00067007
0.00071972
0.000769345
0.000819102
0.00086909
0.00091935
0.000969898
0.00102074
0.00107192
0.00112347
0.00117546
0.00122796
0.00128103
0.00133474
0.00138914
0.00144428
0.0015002
0.00155695
0.00161455
0.00167305
0.00173248
0.00179284
0.00185416
0.00191645
0.00197969
0.00204388
0.00210899
0.00217501
0.00224189
0.00230961
0.00237811
0.00244736
0.00251731
0.0025879
0.00265909
0.00273081
0.00280301
0.00287563
0.00294862
0.00302191
0.00309545
0.00316918
0.00324303
0.00331695
0.00339087
0.00346473
0.00353847
0.00361202
0.0036853
0.00375824
0.00383077
0.0039028
0.00397424
0.004045
0.00411498
0.00418408
0.00425218
0.00431916
0.00438492
0.00444931
0.00451221
0.00457349
0.004633
0.00469062
0.0047462
0.00479962
0.00485075
0.00489945
0.00494562
0.00498915
0.00502993
0.00506788
0.00510293
0.00513503
0.00516412
0.00519017
0.00521319
0.00523318
0.00525017
0.00526419
0.00527532
0.00528363
0.00528922
0.00529222
0.00529275
0.00529098
0.00528707
0.00528122
0.00527363
0.00526451
0.00525413
0.00524273
0.00523059
0.00521802
0.00520533
0.00519288
0.00518102
0.00517018
0.00516079
0.00515331
0.00514829
0.00514629
0.00514796
0.005154
0.00516522
0.00518248
0.00520679
0.00523926
0.00528112
0.00533376
0.00539866
0.00547747
0.0055719
0.00568373
0.0058147
0.00596644
0.00614031
0.00633729
0.00655777
0.00680147
0.00706727
0.00735316
0.00765628
0.00797302
0.00829917
0.00863018
0.0089614
0.0092883
0.00960676
0.00991314
0.0102045
0.0104784
0.0107334
0.0109683
0.0111828
0.0113769
0.0115509
0.0117057
0.0118421
0.0119611
0.0120641
0.0121521
0.0122263
0.012288
0.0123383
0.0123784
0.0124094
0.0124322
0.0124478
0.0124571
0.012461
0.0124602
0.0124554
0.0124474
0.0124368
0.0124241
0.0124101
0.0123952
0.0123801
0.0123654
0.0123517
0.0123396
0.0123298
0.0123232
0.0123205
0.0123227
0.0123311
0.0123469
0.0123719
0.0124081
0.0124579
0.0125246
0.0126121
0.012725
0.0128685
0.0130473
0.0132643
0.0135167
0.0137903
0.0140515
0.0142361
0.0142354
0.0138779
0.0129008
0.0109353
0.00753004
0.00219796
0.000171572
0.000173849
0.000176877
0.000181186
0.000187266
0.000195921
0.00020802
0.000224346
0.000245517
0.000271855
0.00030334
0.000339613
0.000380032
0.000423772
0.000469945
0.000517722
0.000566424
0.000615569
0.000664882
0.000714259
0.000763712
0.000813316
0.000863158
0.00091331
0.000963821
0.00101471
0.00106601
0.00111771
0.00116985
0.00122245
0.00127557
0.00132924
0.00138351
0.00143842
0.00149402
0.00155031
0.00160734
0.0016651
0.00172361
0.00178288
0.00184291
0.00190368
0.0019652
0.00202744
0.00209039
0.00215403
0.00221832
0.00228324
0.00234875
0.00241483
0.00248143
0.00254851
0.00261603
0.00268395
0.00275223
0.00282081
0.00288966
0.00295872
0.00302794
0.00309726
0.00316663
0.00323598
0.00330524
0.00337435
0.00344323
0.00351179
0.00357995
0.00364761
0.00371468
0.00378103
0.00384658
0.00391118
0.00397472
0.00403706
0.00409808
0.00415763
0.00421557
0.00427177
0.00432609
0.00437839
0.00442853
0.0044764
0.00452187
0.00456483
0.00460518
0.00464284
0.00467773
0.00470979
0.00473897
0.00476526
0.00478863
0.0048091
0.00482669
0.00484144
0.00485342
0.00486271
0.0048694
0.00487361
0.00487547
0.00487514
0.00487278
0.00486857
0.00486273
0.00485547
0.00484703
0.00483766
0.00482763
0.00481725
0.00480683
0.0047967
0.00478725
0.00477886
0.00477198
0.00476708
0.00476469
0.00476538
0.0047698
0.00477867
0.00479281
0.00481312
0.00484063
0.00487649
0.00492201
0.00497862
0.00504791
0.00513163
0.0052316
0.00534972
0.00548784
0.00564769
0.0058307
0.00603785
0.0062695
0.00652521
0.00680366
0.00710256
0.00741874
0.00774825
0.00808656
0.00842887
0.0087703
0.00910623
0.00943247
0.00974543
0.0100422
0.0103206
0.0105792
0.0108171
0.011034
0.01123
0.0114058
0.0115621
0.0116999
0.0118204
0.0119248
0.0120143
0.0120902
0.0121537
0.012206
0.0122483
0.0122815
0.0123068
0.0123251
0.0123373
0.0123442
0.0123466
0.0123453
0.0123409
0.0123342
0.0123257
0.0123161
0.012306
0.0122961
0.012287
0.0122794
0.0122739
0.0122715
0.012273
0.0122794
0.0122919
0.0123119
0.0123411
0.0123814
0.0124356
0.0125068
0.012599
0.012717
0.0128661
0.0130515
0.0132764
0.0135387
0.013825
0.0141026
0.0143086
0.0143361
0.0140182
0.0131053
0.0112678
0.00811618
0.00334991
0.000212809
0.000212022
0.000211431
0.00021105
0.000210851
0.000210867
0.000211192
0.000211962
0.000213561
0.000216519
0.000221472
0.000229123
0.000240158
0.000255171
0.00027459
0.000298631
0.000327278
0.00036029
0.00039723
0.000437521
0.000480512
0.000525551
0.000572051
0.000619532
0.000667648
0.000716186
0.000765037
0.000814176
0.000863624
0.000913418
0.0009636
0.0010142
0.00106524
0.00111672
0.00116867
0.0012211
0.00127401
0.00132743
0.00138138
0.00143588
0.00149096
0.00154662
0.00160288
0.00165975
0.00171723
0.00177531
0.001834
0.00189328
0.00195315
0.0020136
0.0020746
0.00213615
0.00219821
0.00226078
0.00232381
0.00238729
0.00245117
0.00251543
0.00258002
0.00264491
0.00271005
0.00277538
0.00284085
0.0029064
0.00297197
0.00303747
0.00310283
0.00316796
0.00323277
0.00329715
0.003361
0.0034242
0.00348664
0.00354817
0.00360868
0.00366802
0.00372605
0.00378263
0.00383762
0.00389088
0.00394227
0.00399165
0.00403889
0.00408388
0.0041265
0.00416665
0.00420425
0.00423921
0.00427148
0.00430101
0.00432777
0.00435176
0.00437297
0.00439143
0.00440718
0.00442029
0.00443082
0.00443889
0.00444458
0.00444805
0.00444944
0.0044489
0.00444663
0.00444282
0.00443767
0.00443144
0.00442436
0.0044167
0.00440875
0.00440083
0.00439326
0.00438642
0.00438069
0.0043765
0.00437434
0.00437472
0.00437822
0.0043855
0.00439728
0.00441439
0.00443776
0.00446845
0.00450767
0.00455676
0.00461725
0.00469082
0.00477931
0.00488469
0.00500897
0.00515414
0.00532202
0.00551413
0.00573144
0.00597425
0.00624198
0.00653305
0.0068449
0.00717401
0.00751607
0.00786625
0.00821945
0.00857063
0.00891508
0.00924857
0.00956758
0.0098693
0.0101517
0.0104135
0.0106539
0.0108728
0.0110706
0.0112479
0.0114056
0.0115448
0.0116667
0.0117725
0.0118637
0.0119414
0.0120068
0.0120613
0.0121058
0.0121415
0.0121695
0.0121907
0.0122059
0.0122161
0.012222
0.0122245
0.0122241
0.0122216
0.0122177
0.012213
0.0122082
0.012204
0.012201
0.0122002
0.0122022
0.0122081
0.0122187
0.0122355
0.0122596
0.0122929
0.0123375
0.0123959
0.0124713
0.0125679
0.0126904
0.0128444
0.0130353
0.0132667
0.0135371
0.0138339
0.0141258
0.0143513
0.0144069
0.0141327
0.0132969
0.01161
0.00876577
0.00466499
0.000319376
0.000316018
0.000312889
0.000309985
0.000307244
0.000304589
0.000301946
0.000299232
0.000296363
0.000293211
0.000289798
0.000286191
0.000282561
0.000279198
0.000276526
0.00027509
0.000275518
0.000278464
0.000284545
0.000294286
0.000308074
0.000326133
0.000348514
0.000375099
0.000405621
0.000439693
0.000476845
0.000516573
0.000558377
0.000601805
0.000646474
0.000692087
0.000738434
0.000785379
0.000832844
0.000880797
0.000929227
0.000978139
0.00102754
0.00107743
0.00112782
0.00117871
0.00123011
0.00128202
0.00133445
0.0013874
0.00144089
0.00149492
0.00154951
0.00160465
0.00166035
0.00171662
0.00177344
0.00183081
0.00188872
0.00194717
0.00200613
0.00206559
0.00212553
0.00218591
0.00224671
0.00230788
0.00236939
0.00243119
0.00249322
0.00255542
0.00261772
0.00268004
0.0027423
0.0028044
0.00286625
0.00292773
0.00298873
0.00304913
0.0031088
0.0031676
0.0032254
0.00328205
0.00333741
0.00339134
0.00344369
0.00349431
0.00354309
0.00358988
0.00363456
0.00367702
0.00371716
0.00375489
0.00379012
0.00382281
0.0038529
0.00388036
0.00390519
0.00392737
0.00394694
0.00396394
0.00397842
0.00399046
0.00400015
0.0040076
0.00401293
0.00401629
0.00401784
0.00401775
0.00401622
0.00401344
0.00400966
0.00400511
0.00400005
0.00399476
0.00398955
0.00398474
0.00398069
0.00397778
0.00397645
0.00397715
0.00398041
0.00398681
0.00399699
0.00401171
0.00403178
0.00405817
0.00409197
0.00413442
0.00418694
0.00425112
0.00432876
0.00442182
0.00453238
0.0046626
0.00481463
0.0049904
0.00519148
0.00541888
0.00567279
0.00595248
0.00625612
0.00658079
0.00692263
0.00727695
0.0076386
0.00800222
0.00836262
0.00871499
0.00905513
0.00937959
0.0096857
0.00997158
0.0102361
0.0104787
0.0106994
0.0108987
0.0110773
0.0112362
0.0113768
0.0115
0.0116075
0.0117004
0.01178
0.0118476
0.0119043
0.0119513
0.0119898
0.0120206
0.0120449
0.0120634
0.0120772
0.0120869
0.0120934
0.0120973
0.0120994
0.0121005
0.0121012
0.0121022
0.0121043
0.0121082
0.0121149
0.0121253
0.0121403
0.0121614
0.0121898
0.0122273
0.0122759
0.0123384
0.0124179
0.0125185
0.012645
0.0128031
0.0129984
0.0132349
0.0135116
0.0138169
0.0141207
0.014364
0.0144476
0.0142206
0.0134718
0.0119515
0.00944047
0.00601701
0.000447178
0.000443034
0.000439065
0.000435285
0.000431671
0.000428189
0.000424802
0.000421467
0.000418135
0.000414724
0.000411139
0.000407304
0.000403137
0.000398559
0.000393499
0.000387915
0.000381811
0.000375261
0.000368433
0.000361602
0.000355157
0.000349585
0.00034544
0.000343302
0.000343729
0.00034721
0.000354135
0.00036477
0.000379254
0.000397594
0.000419682
0.000445309
0.000474187
0.000505978
0.000540316
0.000576836
0.000615198
0.000655097
0.00069628
0.000738544
0.000781735
0.000825746
0.0008705
0.000915952
0.000962071
0.00100884
0.00105625
0.00110429
0.00115296
0.00120226
0.00125218
0.00130273
0.00135391
0.00140571
0.00145813
0.00151118
0.00156485
0.00161914
0.00167402
0.0017295
0.00178555
0.00184214
0.00189925
0.00195684
0.00201487
0.00207328
0.00213203
0.00219104
0.00225024
0.00230954
0.00236887
0.00242811
0.00248717
0.00254591
0.00260423
0.00266199
0.00271906
0.0027753
0.00283056
0.0028847
0.00293758
0.00298904
0.00303895
0.00308717
0.00313357
0.00317802
0.00322041
0.00326064
0.00329861
0.00333425
0.00336749
0.00339829
0.00342662
0.00345245
0.00347579
0.00349666
0.0035151
0.00353116
0.00354491
0.00355644
0.00356585
0.00357327
0.00357883
0.00358268
0.003585
0.00358597
0.00358578
0.00358467
0.00358285
0.00358058
0.00357814
0.00357582
0.00357393
0.00357282
0.00357287
0.00357449
0.00357815
0.00358434
0.00359366
0.00360675
0.00362435
0.0036473
0.00367658
0.00371332
0.00375879
0.00381447
0.00388206
0.00396345
0.00406071
0.00417609
0.00431193
0.0044705
0.00465387
0.00486371
0.00510101
0.00536589
0.0056574
0.00597344
0.00631073
0.006665
0.00703119
0.00740383
0.00777731
0.0081463
0.00850593
0.00885206
0.00918134
0.00949125
0.00978009
0.0100469
0.0102913
0.0105135
0.010714
0.0108939
0.0110541
0.0111959
0.0113208
0.01143
0.0115248
0.0116064
0.0116762
0.0117354
0.0117851
0.0118264
0.0118604
0.011888
0.0119102
0.0119278
0.0119416
0.0119524
0.0119611
0.0119683
0.0119748
0.0119813
0.0119887
0.0119977
0.0120093
0.0120243
0.012044
0.0120694
0.0121021
0.0121438
0.0121966
0.012263
0.0123463
0.0124506
0.0125806
0.0127422
0.0129409
0.013181
0.0134622
0.0137738
0.0140874
0.0143467
0.0144578
0.0142804
0.0136251
0.0122804
0.0101033
0.00729389
0.000556721
0.000552835
0.000549065
0.000545422
0.0005419
0.000538489
0.000535173
0.000531941
0.000528776
0.000525658
0.000522541
0.000519397
0.000516192
0.000512887
0.000509432
0.000505772
0.000501842
0.000497572
0.000492888
0.000487722
0.000482015
0.000475731
0.00046887
0.000461481
0.000453683
0.000445666
0.000437706
0.000430153
0.000423418
0.000417949
0.000414202
0.000412605
0.000413535
0.000417295
0.000424103
0.000434084
0.000447277
0.00046364
0.000483064
0.000505387
0.000530406
0.000557899
0.000587632
0.000619379
0.000652926
0.000688081
0.000724678
0.000762579
0.00080167
0.000841864
0.00088309
0.000925299
0.00096845
0.00101251
0.00105747
0.0011033
0.00114998
0.0011975
0.00124585
0.00129501
0.00134496
0.00139568
0.00144714
0.00149931
0.00155216
0.00160565
0.00165973
0.00171433
0.00176941
0.00182488
0.00188066
0.00193666
0.00199279
0.00204893
0.00210498
0.0021608
0.00221627
0.00227125
0.00232559
0.00237917
0.00243182
0.0024834
0.00253376
0.00258277
0.00263027
0.00267615
0.00272026
0.0027625
0.00280276
0.00284094
0.00287697
0.00291078
0.00294232
0.00297155
0.00299846
0.00302304
0.00304531
0.00306529
0.00308305
0.00309864
0.00311215
0.00312368
0.00313333
0.00314125
0.00314757
0.00315246
0.00315609
0.00315865
0.00316036
0.00316143
0.0031621
0.00316264
0.00316332
0.00316446
0.00316638
0.00316945
0.00317407
0.00318069
0.00318981
0.003202
0.0032179
0.00323825
0.0032639
0.00329584
0.00333522
0.00338337
0.00344183
0.00351237
0.003597
0.00369795
0.00381764
0.00395856
0.00412318
0.00431372
0.00453194
0.00477883
0.00505441
0.0053575
0.00568566
0.00603523
0.00640151
0.00677907
0.00716209
0.00754476
0.00792162
0.00828779
0.00863921
0.00897265
0.00928578
0.00957707
0.00984574
0.0100916
0.010315
0.0105167
0.0106977
0.0108592
0.0110026
0.0111292
0.0112402
0.011337
0.0114208
0.0114931
0.0115549
0.0116075
0.0116519
0.0116893
0.0117205
0.0117466
0.0117683
0.0117866
0.0118022
0.011816
0.0118287
0.0118411
0.0118541
0.0118685
0.0118851
0.0119051
0.0119295
0.0119594
0.0119965
0.0120424
0.0120992
0.0121695
0.0122564
0.0123641
0.0124972
0.0126614
0.0128626
0.0131051
0.0133891
0.013705
0.0140261
0.0142997
0.0144376
0.0143108
0.0137518
0.0125843
0.0107248
0.00843156
0.00063864
0.000635304
0.000632043
0.000628864
0.000625766
0.000622745
0.000619795
0.000616912
0.000614091
0.000611328
0.000608602
0.000605905
0.00060323
0.000600568
0.000597908
0.000595233
0.000592526
0.000589762
0.000586915
0.000583951
0.00058083
0.000577507
0.000573935
0.00057006
0.00056583
0.000561193
0.000556108
0.000550548
0.000544504
0.000537999
0.000531094
0.000523892
0.000516545
0.000509256
0.000502272
0.000495875
0.000490373
0.000486081
0.000483301
0.000482314
0.000483361
0.000486634
0.000492277
0.000500381
0.000510987
0.000524092
0.000539658
0.000557617
0.000577878
0.000600337
0.000624881
0.000651396
0.000679771
0.0007099
0.000741685
0.000775039
0.000809883
0.000846148
0.000883773
0.000922704
0.000962893
0.00100429
0.00104686
0.00109056
0.00113533
0.00118114
0.00122792
0.00127563
0.00132419
0.00137354
0.00142359
0.00147426
0.00152546
0.00157708
0.001629
0.00168112
0.0017333
0.0017854
0.0018373
0.00188883
0.00193986
0.00199023
0.00203979
0.00208839
0.00213589
0.00218213
0.00222698
0.00227031
0.002312
0.00235194
0.00239003
0.00242618
0.00246033
0.00249241
0.00252239
0.00255024
0.00257596
0.00259955
0.00262104
0.00264046
0.00265789
0.00267339
0.00268706
0.00269899
0.00270931
0.00271815
0.00272567
0.00273203
0.00273741
0.002742
0.00274601
0.00274968
0.00275324
0.00275696
0.00276114
0.00276609
0.00277215
0.00277972
0.00278922
0.00280115
0.00281604
0.00283455
0.00285739
0.00288542
0.00291964
0.00296122
0.00301152
0.00307216
0.003145
0.00323218
0.00333607
0.00345928
0.00360454
0.0037745
0.00397156
0.00419758
0.00445355
0.00473938
0.00505361
0.00539346
0.00575482
0.00613256
0.00652083
0.00691351
0.00730459
0.00768852
0.00806046
0.00841642
0.00875336
0.00906912
0.00936236
0.0096325
0.00987954
0.010104
0.0103067
0.010489
0.0106521
0.0107971
0.0109254
0.0110384
0.0111373
0.0112236
0.0112984
0.0113631
0.0114188
0.0114667
0.0115077
0.0115428
0.0115731
0.0115993
0.0116224
0.0116432
0.0116626
0.0116813
0.0117002
0.0117202
0.0117422
0.0117673
0.0117965
0.0118312
0.0118728
0.0119229
0.0119838
0.0120578
0.0121482
0.0122589
0.0123946
0.0125609
0.0127636
0.0130073
0.0132926
0.0136108
0.0139375
0.0142233
0.0143868
0.0143105
0.0138475
0.0128526
0.0112838
0.00940756
0.000696294
0.000693548
0.000690846
0.000688193
0.000685591
0.000683038
0.000680532
0.000678072
0.000675659
0.000673284
0.000670941
0.000668628
0.000666346
0.000664092
0.000661865
0.000659663
0.000657484
0.000655323
0.000653175
0.000651035
0.000648893
0.000646738
0.000644557
0.000642333
0.000640047
0.000637675
0.000635193
0.00063257
0.000629775
0.000626776
0.000623539
0.000620033
0.000616233
0.000612117
0.000607677
0.000602918
0.000597862
0.000592553
0.000587059
0.000581472
0.000575912
0.000570522
0.000565467
0.000560928
0.000557096
0.000554167
0.000552333
0.000551774
0.000552656
0.000555126
0.000559309
0.000565305
0.000573192
0.000583028
0.000594849
0.000608673
0.000624503
0.000642332
0.000662139
0.000683895
0.000707566
0.000733111
0.000760484
0.000789635
0.000820511
0.000853055
0.000887205
0.000922896
0.000960056
0.000998608
0.00103847
0.00107955
0.00112175
0.00116497
0.00120909
0.00125399
0.00129954
0.00134561
0.00139204
0.00143868
0.00148539
0.00153201
0.00157836
0.00162429
0.00166964
0.00171425
0.00175796
0.00180063
0.00184211
0.00188228
0.00192102
0.00195821
0.00199376
0.00202758
0.00205962
0.00208982
0.00211815
0.00214458
0.00216913
0.00219179
0.0022126
0.00223161
0.00224889
0.0022645
0.00227854
0.00229112
0.00230236
0.0023124
0.00232138
0.00232948
0.00233686
0.00234373
0.00235029
0.00235677
0.00236342
0.00237051
0.00237833
0.00238722
0.00239753
0.00240968
0.00242413
0.00244141
0.00246214
0.00248704
0.00251694
0.00255285
0.00259596
0.00264767
0.00270965
0.00278386
0.00287257
0.00297835
0.00310401
0.00325252
0.00342678
0.0036294
0.00386235
0.00412664
0.00442202
0.00474676
0.00509764
0.00547011
0.00585854
0.0062567
0.00665818
0.00705678
0.00744691
0.00782378
0.00818353
0.00852328
0.00884108
0.0091358
0.00940706
0.00965507
0.00988047
0.0100846
0.0102683
0.0104329
0.0105796
0.0107098
0.0108249
0.0109261
0.011015
0.0110927
0.0111605
0.0112196
0.0112711
0.0113161
0.0113555
0.0113902
0.0114214
0.0114497
0.0114761
0.0115014
0.0115266
0.0115526
0.0115803
0.0116108
0.0116451
0.0116846
0.0117307
0.0117852
0.0118501
0.0119278
0.0120215
0.012135
0.012273
0.0124408
0.0126442
0.012888
0.013173
0.0134918
0.013822
0.0141182
0.0143056
0.0142783
0.0139083
0.0130764
0.0117669
0.0102227
0.000735371
0.000733174
0.000731
0.000728853
0.000726733
0.000724641
0.000722577
0.000720541
0.000718535
0.00071655
0.000714585
0.000712641