/*--------------------------------*- C++ -*----------------------------------*\
| =========                 |                                                 |
| \\      /  F ield         | OpenFOAM: The Open Source CFD Toolbox           |
|  \\    /   O peration     | Version:  2.4.0                                 |
|   \\  /    A nd           | Web:      www.OpenFOAM.org                      |
|    \\/     M anipulation  |                                                 |
\*---------------------------------------------------------------------------*/
FoamFile
{
    version     2.0;
    format      ascii;
    class       volScalarField;
    location    "0.211";
    object      k;
}
// * * * * * * * * * * * * * * * * * * * * * * * * * * * * * * * * * * * * * //

dimensions      [0 2 -2 0 0 0 0];

internalField   nonuniform List<scalar> 
17600
(
9.28103
7.41476
5.11705
3.93578
3.34503
2.93868
2.71637
2.4405
2.36957
2.15446
2.17422
1.97838
2.04002
1.88124
1.90923
1.81938
1.85483
1.73541
1.95836
1.37371
4.49929
6.21481
5.83639
5.04606
4.42664
3.90484
3.64086
3.256
3.16886
2.8841
2.87644
2.65549
2.68776
2.51907
2.51508
2.42703
2.42822
2.32482
2.40736
2.38209
1.31406
3.29573
3.98924
3.95431
3.78241
3.42748
3.27384
2.9513
2.89037
2.65757
2.63412
2.46163
2.45484
2.34728
2.31027
2.25044
2.21596
2.19082
2.10502
2.34422
0.206267
1.20239
1.92075
2.31195
2.52894
2.49147
2.49084
2.36337
2.33979
2.20299
2.1836
2.08407
2.0577
2.0048
1.94878
1.93166
1.87046
1.89241
1.77091
1.92014
0.0258947
0.274806
0.646319
0.939173
1.27542
1.39006
1.57371
1.58122
1.63185
1.60428
1.61295
1.59971
1.56839
1.56871
1.53642
1.53234
1.49312
1.51207
1.4409
1.45958
0.00273444
0.0451981
0.153338
0.243343
0.443822
0.53914
0.724648
0.798613
0.909144
0.95435
0.994028
1.05333
1.05077
1.08208
1.08269
1.08916
1.08735
1.0916
1.0892
1.05694
0.000277353
0.00643601
0.0259111
0.0452877
0.100991
0.140428
0.217711
0.288477
0.347731
0.419062
0.453916
0.536991
0.553669
0.602888
0.637431
0.648129
0.678255
0.681366
0.713069
0.696623
4.76046e-05
0.000878699
0.00362409
0.0064604
0.0154151
0.0258457
0.0395231
0.0713677
0.0894883
0.124597
0.141745
0.189632
0.20464
0.240165
0.279189
0.290785
0.321115
0.331301
0.369465
0.375252
2.63324e-05
0.000147896
0.000563396
0.000845647
0.00192779
0.0034407
0.00554309
0.0115507
0.0157278
0.0244001
0.0293329
0.0445218
0.0501273
0.0642235
0.0827469
0.088619
0.101745
0.115507
0.130607
0.145045
2.31854e-05
4.86441e-05
0.000158657
0.000180315
0.000305832
0.000472835
0.000784071
0.00162036
0.00223495
0.00350951
0.00423438
0.00692246
0.00799364
0.0112053
0.0156999
0.0172551
0.0207148
0.0262368
0.0303629
0.034004
2.43427e-05
4.29562e-05
0.000139204
0.00012272
0.000124494
0.000136882
0.000173102
0.000281802
0.000431664
0.000596601
0.000651299
0.000976313
0.00110393
0.00144224
0.00210898
0.00236654
0.00293984
0.00371971
0.00461951
0.00490494
2.69992e-05
5.70756e-05
0.000119218
0.000107773
8.85524e-05
7.63384e-05
7.58512e-05
9.38105e-05
0.000166999
0.000211567
0.00022682
0.000291844
0.000299915
0.000312682
0.000364162
0.000397161
0.000460036
0.000542324
0.000608438
0.000604199
2.30007e-05
4.26636e-05
5.24009e-05
7.05416e-05
7.61856e-05
7.44511e-05
7.48616e-05
9.33862e-05
0.000106836
0.000114635
0.000137113
0.000152327
0.000149052
0.000150713
0.000170906
0.000177488
0.000184136
0.000208029
0.000212703
0.000200584
2.12104e-05
2.70411e-05
3.71715e-05
6.84592e-05
7.56633e-05
7.61857e-05
7.73616e-05
7.89454e-05
7.6079e-05
7.65398e-05
8.57285e-05
0.000102716
0.000106191
0.000113063
0.000129666
0.000129147
0.000129981
0.00013724
0.000139396
0.000141358
2.0993e-05
2.68226e-05
4.40007e-05
6.50996e-05
6.55318e-05
6.64933e-05
6.06562e-05
5.5646e-05
5.60671e-05
6.50475e-05
7.25386e-05
8.90868e-05
0.000103754
0.000106295
0.000105615
0.000100892
9.59259e-05
9.54964e-05
9.5585e-05
0.000112352
2.21108e-05
2.68662e-05
4.57694e-05
4.99549e-05
4.90711e-05
4.93434e-05
4.82812e-05
4.87325e-05
5.23996e-05
6.08361e-05
6.37371e-05
7.04089e-05
7.35399e-05
7.22975e-05
7.17609e-05
7.10892e-05
7.03432e-05
7.02872e-05
7.26254e-05
8.36584e-05
2.09473e-05
2.51501e-05
3.25202e-05
4.09483e-05
4.78463e-05
4.94395e-05
4.97918e-05
5.12453e-05
5.34933e-05
5.45102e-05
5.40558e-05
5.38454e-05
5.41433e-05
5.6016e-05
6.26807e-05
6.36608e-05
6.45135e-05
6.53225e-05
6.96689e-05
9.12607e-05
2.07382e-05
2.54538e-05
3.34023e-05
4.21898e-05
4.58869e-05
4.70587e-05
4.64212e-05
4.64488e-05
4.64376e-05
4.65958e-05
4.67157e-05
4.77705e-05
5.03356e-05
5.6077e-05
5.88705e-05
5.87581e-05
5.82933e-05
6.1431e-05
6.37703e-05
6.51084e-05
2.0614e-05
2.57791e-05
3.30072e-05
3.66481e-05
4.09413e-05
4.41142e-05
4.39093e-05
4.29411e-05
4.27556e-05
4.29175e-05
4.35262e-05
4.57783e-05
4.8661e-05
4.92807e-05
4.9752e-05
4.98334e-05
5.00179e-05
5.20723e-05
5.27419e-05
5.84303e-05
2.07845e-05
2.51088e-05
2.99177e-05
3.61783e-05
4.02953e-05
4.3119e-05
4.30497e-05
4.18914e-05
4.11638e-05
4.14385e-05
4.21709e-05
4.44482e-05
4.49605e-05
4.57204e-05
4.62242e-05
4.71043e-05
4.71886e-05
4.70526e-05
4.72137e-05
5.2814e-05
2.06022e-05
2.43817e-05
3.55246e-05
3.7861e-05
3.73356e-05
3.83897e-05
4.02857e-05
4.04099e-05
4.05693e-05
4.21385e-05
4.26029e-05
4.29782e-05
4.38247e-05
4.44436e-05
4.45555e-05
4.47901e-05
4.46854e-05
4.49292e-05
4.54917e-05
4.94345e-05
2.06722e-05
2.71667e-05
3.42003e-05
3.32625e-05
3.39624e-05
4.04942e-05
4.24423e-05
4.21272e-05
4.21769e-05
4.27492e-05
4.21709e-05
4.21127e-05
4.3352e-05
4.3849e-05
4.47616e-05
4.48501e-05
4.59899e-05
4.5789e-05
4.65536e-05
5.50464e-05
2.07547e-05
2.74214e-05
3.02804e-05
3.22871e-05
4.10662e-05
4.51398e-05
4.42724e-05
4.31921e-05
4.26352e-05
4.27517e-05
4.24617e-05
4.38541e-05
4.76626e-05
4.81745e-05
4.82791e-05
4.87491e-05
4.84047e-05
4.80242e-05
4.80191e-05
4.97161e-05
2.08639e-05
2.62569e-05
3.07111e-05
4.00677e-05
4.4672e-05
4.44696e-05
4.28321e-05
4.32175e-05
4.38273e-05
4.62112e-05
4.75993e-05
5.17126e-05
5.26869e-05
5.188e-05
5.19666e-05
5.19997e-05
5.15328e-05
5.20521e-05
5.28954e-05
6.70389e-05
2.10545e-05
2.58551e-05
3.54846e-05
4.24336e-05
4.28086e-05
4.28122e-05
4.38219e-05
4.91357e-05
5.08166e-05
5.30758e-05
5.41712e-05
5.51903e-05
5.47433e-05
5.47926e-05
5.64685e-05
5.85565e-05
5.90075e-05
6.05455e-05
6.11673e-05
7.39379e-05
2.12583e-05
2.66331e-05
3.84563e-05
4.04522e-05
4.32264e-05
5.02012e-05
5.54421e-05
5.68109e-05
5.60904e-05
5.67324e-05
5.76477e-05
5.8024e-05
5.96387e-05
6.66356e-05
7.16975e-05
7.23342e-05
7.1707e-05
7.06977e-05
7.1617e-05
7.99573e-05
2.16686e-05
2.82678e-05
3.79338e-05
4.17804e-05
5.48209e-05
6.06645e-05
6.2309e-05
6.2311e-05
6.13796e-05
6.40631e-05
6.64399e-05
7.07446e-05
8.49361e-05
9.04874e-05
9.04679e-05
8.75692e-05
8.68459e-05
8.84389e-05
0.000101653
0.000155664
2.26177e-05
2.83952e-05
4.18939e-05
5.10687e-05
7.01153e-05
7.03416e-05
7.3053e-05
7.3073e-05
7.40786e-05
8.59172e-05
9.28994e-05
0.000108215
0.000124484
0.00012399
0.000124216
0.000127769
0.000141628
0.000185851
0.000307272
0.000688312
2.36814e-05
2.99188e-05
5.36098e-05
6.61902e-05
8.82708e-05
8.72804e-05
9.88683e-05
0.000101934
0.000114075
0.000164497
0.000183513
0.000229527
0.000276172
0.000293001
0.000334723
0.000437131
0.000640506
0.00111395
0.00200379
0.00511058
2.44003e-05
3.33623e-05
6.77289e-05
0.000102469
0.000117219
0.000126077
0.000194735
0.000233993
0.000322327
0.000633071
0.000732987
0.00104152
0.00139027
0.00169085
0.00220566
0.00352054
0.004991
0.00847805
0.0128929
0.0287434
2.48189e-05
4.89661e-05
0.000134841
0.000238172
0.000291097
0.000416403
0.000996886
0.00138218
0.00207147
0.00425875
0.00501939
0.00733483
0.00973954
0.0127677
0.016017
0.0242145
0.0309452
0.046621
0.061839
0.115548
2.89277e-05
0.000146221
0.000511267
0.00108534
0.00166621
0.00299692
0.00778582
0.0107986
0.0153841
0.0281255
0.0327083
0.0441224
0.0574031
0.0693384
0.0815679
0.111034
0.130795
0.173499
0.207808
0.320844
5.15041e-05
0.000869856
0.00311445
0.00771248
0.0128579
0.0233394
0.0520656
0.0658878
0.0897469
0.135741
0.150473
0.184166
0.226045
0.24794
0.280975
0.339689
0.373063
0.439778
0.487696
0.619657
0.000284044
0.00621417
0.0232162
0.0520888
0.0842984
0.144078
0.238021
0.276347
0.356253
0.437861
0.465632
0.526888
0.585988
0.609938
0.656366
0.710893
0.745635
0.804685
0.847464
0.955415
0.00274288
0.0427168
0.147944
0.261076
0.408646
0.568313
0.727794
0.792549
0.919656
0.977111
1.00067
1.04857
1.08143
1.08891
1.11422
1.1348
1.16003
1.18491
1.2123
1.2699
0.0259801
0.258384
0.653856
0.954059
1.24579
1.43099
1.55849
1.58636
1.64066
1.62249
1.61602
1.59986
1.59184
1.56613
1.56325
1.54612
1.54677
1.5358
1.53732
1.53316
0.20742
1.18885
1.93822
2.31426
2.52435
2.51656
2.48118
2.38921
2.334
2.20978
2.17499
2.08732
2.05004
1.98634
1.95976
1.89697
1.87713
1.82294
1.789
1.73536
1.32157
3.2805
4.00649
3.95684
3.78309
3.45068
3.22982
3.01127
2.86047
2.67036
2.61486
2.46704
2.41235
2.31785
2.26932
2.16466
2.12191
2.01792
1.93869
1.8218
4.50559
6.20658
5.85187
5.03615
4.44291
3.91587
3.59906
3.31468
3.11872
2.90147
2.83918
2.66071
2.59704
2.47957
2.41708
2.27964
2.21342
2.06351
1.94286
1.75148
9.28945
7.41103
5.13466
3.91938
3.35555
2.94176
2.69278
2.4687
2.33018
2.1654
2.11935
1.99012
1.93619
1.83217
1.78445
1.66356
1.59247
1.44931
1.32631
1.12677
1.15524
1.06486
0.612555
0.34112
0.26935
0.209963
0.184243
0.182178
0.164469
0.148805
0.148411
0.146599
0.145601
0.149849
0.164378
0.195009
0.274107
0.304079
0.292448
0.238762
0.11813
0.0503896
0.0196469
0.0100475
0.00670178
0.00551633
0.00505631
0.00459235
0.00429357
0.00652615
0.00865817
0.0120322
0.0129222
0.0134055
0.0162045
0.0973333
0.264572
0.262271
0.244315
0.279143
0.326235
0.309683
0.209844
0.122196
0.0851062
0.0737317
0.0664199
0.0601613
0.0580956
0.0582403
0.0592284
0.0610829
0.0694374
0.0807146
0.084708
0.0797246
0.0536136
0.0303729
0.0169068
0.0123022
0.00957889
0.00672251
0.00563477
0.0057628
0.00730059
0.0131241
0.0659495
0.159916
0.169244
0.120687
0.0676116
0.053676
0.0501239
0.0443942
0.0358122
0.0295614
0.0236803
0.0215994
0.0224413
0.0242894
0.0233654
0.0214117
0.0191713
0.0175116
0.0172323
0.0173224
0.0174674
0.0183575
0.0200036
0.0220788
0.0278948
0.0409344
0.0488313
0.049719
0.0477717
0.0475818
0.0489966
0.0520882
0.0573901
0.0708269
0.105164
0.122946
0.124216
0.12111
0.113294
0.093591
0.0718601
0.055283
0.0461226
0.0388676
0.0304706
0.0241282
0.0206983
0.0185556
0.0174409
0.0167888
0.0165609
0.0165774
0.016865
0.0211411
0.0245566
0.023774
0.0203548
0.0185034
0.0187283
0.0248386
0.0319972
0.0365443
0.0411744
0.0440223
0.0468206
0.0507218
0.0544567
0.0555728
0.0551534
0.0490832
0.04172
0.0402551
0.0415929
0.0573278
0.0782497
0.0838307
0.0822099
0.0708167
0.0551605
0.0438303
0.0400363
0.037086
0.0301041
0.0223182
0.0164448
0.0139792
0.0135938
0.0125198
0.0116802
0.0117423
0.0116709
0.0115295
0.0118622
0.0130971
0.0153848
0.0228735
0.0315189
0.0376927
0.0461828
0.0789514
0.111677
0.115608
0.10242
0.0618728
0.0396184
0.0339496
0.0355813
0.0434275
0.0472262
0.048672
0.0484449
0.04205
0.0348607
0.024066
0.0263949
0.0278425
0.0387454
0.0384601
0.0405622
0.0462866
0.0404683
0.0412078
0.0348442
0.034606
0.0299243
0.0301772
0.0275892
0.0306324
0.0315718
0.0335681
0.0475201
0.0528961
0.0703856
0.651577
1.74209
1.46149
1.03628
0.564718
0.361587
0.243573
0.219509
0.213284
0.190315
0.178889
0.181973
0.185748
0.189767
0.201425
0.2285
0.293714
0.325083
0.316899
0.274857
0.152408
0.0632911
0.0251772
0.0104692
0.00619141
0.00501456
0.00437924
0.00428418
0.00442633
0.00436764
0.0054125
0.00797203
0.0108914
0.0119872
0.0118149
0.0126847
0.0450803
0.22406
0.256864
0.252675
0.275049
0.31774
0.30717
0.225403
0.133797
0.0906435
0.0750251
0.067351
0.0620064
0.0592994
0.0592788
0.0599819
0.0615066
0.0698748
0.0818528
0.0854601
0.0792084
0.0513909
0.0289191
0.0165086
0.0119355
0.00920786
0.00664646
0.00569498
0.00588755
0.00769817
0.0146966
0.0767896
0.168916
0.173891
0.114093
0.0637232
0.0528246
0.0498113
0.0447615
0.0354132
0.0295775
0.0236991
0.02162
0.0228096
0.0251862
0.0240117
0.0213948
0.0196981
0.0177641
0.0173091
0.0181026
0.018264
0.0186322
0.0195864
0.0214518
0.0266746
0.0400498
0.0486212
0.0497298
0.0476605
0.0465407
0.0473885
0.0500548
0.0543467
0.0629022
0.0905325
0.110089
0.112393
0.110122
0.104342
0.0880577
0.0684672
0.0529851
0.0434036
0.0368674
0.0295381
0.0231542
0.0196471
0.0171709
0.0157226
0.0152499
0.0152405
0.015363
0.0161233
0.0193937
0.0199572
0.018797
0.0165675
0.0157265
0.0161283
0.0214789
0.0279216
0.0322453
0.0377355
0.0412387
0.0462162
0.0510558
0.0546038
0.0549135
0.0536485
0.0450034
0.0392762
0.0387107
0.0412682
0.0621398
0.0820807
0.0860265
0.0821939
0.0701746
0.0562686
0.0449596
0.0412828
0.0375895
0.0292579
0.0213952
0.0158961
0.0133121
0.0131627
0.0128699
0.0119091
0.0119147
0.0118519
0.0117028
0.0119436
0.0130611
0.0149277
0.0210409
0.0290534
0.0354
0.0438928
0.0756212
0.110073
0.116882
0.106884
0.0675305
0.0422725
0.0351676
0.0360625
0.0429174
0.0462166
0.0470044
0.0472849
0.0412949
0.0375006
0.0276565
0.0337344
0.0318683
0.0392824
0.0399873
0.0379482
0.0397389
0.0359531
0.0361354
0.0319241
0.0302238
0.0256712
0.0259566
0.0256167
0.0264028
0.0297506
0.0313961
0.0363214
0.0658555
0.0898546
0.300938
1.89388
1.47867
1.29986
1.01622
0.633351
0.394239
0.329999
0.296197
0.249157
0.247246
0.252781
0.257739
0.264603
0.282917
0.32807
0.349402
0.341488
0.299454
0.181163
0.0701408
0.0293594
0.0124019
0.00581118
0.00426571
0.00419283
0.00391826
0.00392396
0.00426182
0.00462659
0.00499447
0.00719357
0.00993749
0.0110086
0.010414
0.0110027
0.020981
0.154427
0.24057
0.250224
0.273503
0.312204
0.303806
0.237477
0.146857
0.0980834
0.0775012
0.0681764
0.063776
0.0613308
0.0606555
0.0611515
0.0625795
0.0716128
0.083529
0.0864827
0.0786148
0.0495204
0.0278948
0.0159218
0.0117037
0.00911118
0.00667799
0.00592101
0.00622732
0.00848121
0.0169516
0.087683
0.177755
0.179566
0.10862
0.0618859
0.0521732
0.049582
0.0446563
0.0350145
0.0299618
0.024022
0.0217303
0.0231979
0.0258476
0.0247443
0.0213852
0.019782
0.0181767
0.0177347
0.0189638
0.0195382
0.0193756
0.0197139
0.0210124
0.0259576
0.0399748
0.0486814
0.0499025
0.0478204
0.0457013
0.0460296
0.048006
0.0518389
0.0581352
0.0799582
0.0996128
0.10292
0.101181
0.0965455
0.0820108
0.0647105
0.0504359
0.0408291
0.034607
0.0283211
0.0221414
0.0186013
0.0162539
0.0147346
0.0139705
0.0138028
0.0140186
0.0159226
0.0174956
0.017596
0.0162625
0.0150263
0.0147946
0.015388
0.0190331
0.0211462
0.0240911
0.0310494
0.0382264
0.0455503
0.0509975
0.0532049
0.0531102
0.0502674
0.0407466
0.0372965
0.0373669
0.0416705
0.0669396
0.0853013
0.0883947
0.081271
0.0705711
0.0574421
0.0453331
0.0413384
0.0374564
0.0277991
0.0199858
0.0152796
0.0129191
0.0128142
0.0128181
0.0120004
0.0119356
0.0118733
0.0117978
0.0121184
0.013095
0.0145521
0.0194868
0.0269818
0.0332831
0.0417295
0.0725884
0.108712
0.117634
0.109612
0.0712915
0.0442537
0.0359199
0.0362453
0.0415358
0.0457227
0.0461854
0.0471065
0.0413462
0.0391839
0.0330911
0.0368618
0.0337583
0.037841
0.0384219
0.0360828
0.0359545
0.0342367
0.0332401
0.0303413
0.0282846
0.0247066
0.024103
0.0254728
0.0257374
0.0291806
0.0317231
0.0385693
0.0865673
0.0949298
0.177361
1.66786
1.39403
1.27561
1.15066
1.00622
0.792773
0.634333
0.49599
0.416962
0.394016
0.361884
0.362809
0.374128
0.385364
0.381102
0.367071
0.318552
0.190557
0.0772636
0.0311059
0.0139522
0.00630384
0.00360173
0.00324531
0.00349123
0.00336591
0.00333149
0.0037565
0.00496011
0.00529672
0.00664046
0.00873067
0.00974314
0.00958588
0.0103505
0.0152258
0.103807
0.22076
0.244091
0.270033
0.307402
0.300776
0.247606
0.159685
0.106449
0.0807638
0.0693346
0.0654781
0.0640419
0.0626005
0.0628257
0.0640894
0.0738064
0.0852317
0.0874817
0.0767447
0.0465891
0.0262622
0.0152284
0.0115056
0.00909597
0.00690759
0.00631124
0.00679247
0.00971398
0.0199204
0.0987787
0.187739
0.184784
0.104503
0.0601715
0.0515706
0.0490893
0.043933
0.0349098
0.0303901
0.0246534
0.0219288
0.0235774
0.026386
0.0252151
0.0214296
0.0196316
0.0183747
0.0180908
0.0192586
0.0201495
0.0200762
0.0201058
0.0210181
0.0260012
0.0402121
0.0489768
0.0502075
0.0482545
0.0450126
0.0449472
0.0462933
0.0498129
0.0551598
0.0728722
0.0916236
0.0954515
0.0941028
0.0896678
0.0766735
0.0610301
0.0477586
0.0382517
0.0322943
0.0269988
0.0212175
0.0174514
0.0154048
0.0142116
0.0130724
0.0126782
0.0131739
0.0151879
0.0160018
0.0159588
0.0147988
0.0142509
0.0142316
0.0152901
0.0162231
0.0171318
0.0203045
0.0288336
0.0372333
0.0449671
0.0492749
0.0505118
0.0501123
0.0448893
0.0372154
0.0353948
0.0361166
0.0427437
0.0714626
0.088196
0.0903157
0.0806582
0.0714342
0.0582767
0.0452925
0.0410514
0.0364331
0.0260334
0.0184279
0.0145976
0.0125404
0.0124769
0.0125479
0.0117691
0.0117275
0.0117703
0.0117636
0.0122823
0.0131612
0.0143783
0.0183369
0.0251211
0.0312762
0.0393987
0.0685705
0.106372
0.116868
0.111156
0.0772074
0.0478679
0.0373461
0.0367404
0.0404258
0.0445954
0.0447256
0.0473169
0.0418554
0.0426902
0.0413858
0.0441973
0.039464
0.0377308
0.037121
0.0354563
0.0344707
0.0339472
0.0317902
0.0298794
0.0266952
0.0245323
0.0237152
0.0259426
0.0277801
0.0312451
0.0362631
0.0468038
0.059332
0.109119
0.147438
1.3203
1.14562
1.07257
1.05561
1.01882
0.930078
0.813249
0.697072
0.620605
0.558146
0.496123
0.473822
0.445716
0.419464
0.389827
0.327752
0.178058
0.0760567
0.0311697
0.0133942
0.00663093
0.00344384
0.00255047
0.00266167
0.00306185
0.00286946
0.00271728
0.0030098
0.00486961
0.00559146
0.00688471
0.00801487
0.00848623
0.0086545
0.00970546
0.0149104
0.0644534
0.214766
0.248544
0.270876
0.300354
0.296133
0.25671
0.171748
0.114561
0.083881
0.0711803
0.0679126
0.0671425
0.0648367
0.0646456
0.0658928
0.0766093
0.0872793
0.0886564
0.0742685
0.044112
0.0250453
0.0147537
0.0112806
0.00924564
0.00730824
0.0068787
0.00763452
0.0114834
0.0235538
0.110301
0.197878
0.189979
0.102107
0.0587686
0.0505707
0.0481143
0.0425357
0.0350976
0.0306944
0.0255318
0.0221917
0.0240362
0.0273714
0.0257946
0.0214974
0.0192463
0.0181743
0.0180794
0.0192195
0.0201376
0.0202759
0.0203808
0.0211439
0.0264251
0.0409585
0.0497146
0.0508266
0.0487663
0.0446003
0.0440281
0.0448982
0.048358
0.0527465
0.068128
0.0854998
0.0896529
0.0883265
0.0839707
0.0720733
0.0576428
0.0458582
0.0362585
0.030452
0.0258015
0.0203703
0.0162561
0.0144522
0.0138469
0.012551
0.0118824
0.0121948
0.0136834
0.014256
0.0141875
0.0135376
0.0134435
0.0137004
0.0146941
0.0156197
0.0167109
0.020062
0.0288308
0.037354
0.0434857
0.0461649
0.0467487
0.0459493
0.0395344
0.0344244
0.0337789
0.035408
0.0447565
0.0752857
0.0899727
0.0910154
0.0798889
0.0728139
0.0589488
0.0452459
0.0405131
0.0359802
0.0249292
0.0170427
0.0139946
0.012169
0.0119171
0.0120225
0.011253
0.0111581
0.011345
0.0115964
0.0123983
0.0132425
0.0142212
0.0173405
0.0234527
0.0296049
0.0376866
0.0657714
0.103395
0.116682
0.113189
0.0850049
0.0525662
0.0394261
0.0371945
0.0385879
0.0437363
0.0439846
0.0479594
0.0442719
0.0496668
0.0435594
0.0487125
0.0446067
0.0396669
0.0377671
0.0350672
0.0341091
0.0312001
0.0300991
0.0293068
0.0260556
0.0242984
0.0237914
0.0257286
0.0282488
0.0342449
0.0352869
0.0650712
0.0609151
0.0690732
0.107692
0.964352
0.864361
0.803052
0.810804
0.837148
0.835059
0.801469
0.714505
0.665463
0.60033
0.526374
0.490647
0.440564
0.387902
0.29255
0.146918
0.0659953
0.0290478
0.0122015
0.00585994
0.00346086
0.00220428
0.00205965
0.00227721
0.00253706
0.00237101
0.00216441
0.00227262
0.00408862
0.00544124
0.00740263
0.00796371
0.00774772
0.007799
0.00921221
0.0156017
0.044285
0.194602
0.26372
0.278439
0.292109
0.288592
0.259828
0.182325
0.121923
0.0871327
0.0740925
0.0714389
0.0705059
0.0671619
0.0666573
0.0682265
0.080306
0.0893097
0.0895131
0.0709529
0.0406363
0.0229686
0.0136621
0.0107114
0.00945063
0.00789306
0.00763433
0.00874569
0.0137759
0.0282299
0.12308
0.208719
0.196279
0.10026
0.0570416
0.0490356
0.0467549
0.0421595
0.0362653
0.0310823
0.0266975
0.0225693
0.0241311
0.0289175
0.0265221
0.0215204
0.0190844
0.0178514
0.0177918
0.0185662
0.0198601
0.0202244
0.0205752
0.0214994
0.0274211
0.0426768
0.0507557
0.0515867
0.0488943
0.044329
0.0433011
0.0439066
0.0470454
0.0508071
0.0653891
0.081111
0.0852098
0.0838038
0.080074
0.0678636
0.0549648
0.0445639
0.034941
0.0290445
0.0246427
0.0196044
0.0152185
0.0131603
0.012945
0.0122417
0.0112785
0.0112793
0.0122502
0.0128352
0.0127413
0.0123046
0.0124239
0.0131811
0.0142588
0.0152269
0.0164776
0.0206236
0.0293278
0.0365895
0.0405261
0.0420972
0.0424069
0.0408168
0.0344445
0.0319521
0.0324144
0.0353726
0.0477973
0.0779918
0.0906875
0.0912265
0.0795955
0.0732624
0.0602361
0.0454085
0.0405449
0.036041
0.0248796
0.0162538
0.0134389
0.0120929
0.0113869
0.0113946
0.0106126
0.0104273
0.0106358
0.011269
0.0123964
0.0132159
0.0141126
0.0167428
0.0221792
0.0280021
0.0363275
0.0644038
0.101975
0.116622
0.115484
0.0901376
0.0571107
0.0409217
0.0378017
0.038433
0.0439859
0.0442946
0.0493935
0.0520663
0.0521242
0.0447564
0.045964
0.0442644
0.0406743
0.0382275
0.0348474
0.0333128
0.029212
0.0285913
0.0264398
0.0245168
0.024347
0.0241851
0.0268044
0.0280395
0.0393509
0.0387145
0.0637212
0.0659672
0.0652144
0.0755842
0.645238
0.586563
0.54011
0.543187
0.554767
0.596209
0.612004
0.601274
0.578826
0.524442
0.455082
0.390933
0.332566
0.21948
0.113351
0.0536701
0.0246939
0.0109372
0.00483923
0.00288814
0.00215107
0.00165869
0.00168006
0.00201833
0.00207075
0.00198116
0.00192741
0.00205481
0.002823
0.00485361
0.00735233
0.00799334
0.00749005
0.00733678
0.008985
0.0169736
0.0455067
0.177667
0.26405
0.289431
0.291725
0.282302
0.256645
0.191295
0.129526
0.0915381
0.0783419
0.0760641
0.0739919
0.0697656
0.0690535
0.0712163
0.0844228
0.0915008
0.0904044
0.0666402
0.0372419
0.020982
0.0127524
0.0102398
0.00954342
0.00845228
0.0084005
0.010021
0.0165623
0.0335947
0.135814
0.220255
0.202557
0.0987564
0.0545641
0.0471802
0.0455608
0.0422362
0.0378185
0.0315432
0.0280884
0.0230287
0.0241725
0.0309592
0.0273923
0.0212487
0.0190591
0.0179733
0.017645
0.0178306
0.0188373
0.0199543
0.0207013
0.0218822
0.0298531
0.044763
0.0521111
0.0524315
0.0488233
0.0440906
0.0427357
0.0432605
0.0456115
0.0493596
0.063132
0.0782154
0.0820044
0.0807933
0.0766113
0.0631039
0.0525641
0.0426289
0.033596
0.0278768
0.0233838
0.0187936
0.0145382
0.0122714
0.0120191
0.0113654
0.0105194
0.0104868
0.0110721
0.0114802
0.011507
0.0114813
0.0119304
0.0129543
0.0140196
0.0148908
0.0161425
0.0216186
0.0294069
0.0340546
0.0362434
0.0374357
0.0375931
0.0348897
0.030545
0.0300988
0.0317488
0.0361876
0.0509839
0.0792686
0.090911
0.0910474
0.0792492
0.0734294
0.0611917
0.0462319
0.0413383
0.0368768
0.0250649
0.0159947
0.012903
0.012091
0.0111168
0.0107984
0.00998202
0.00972628
0.00989994
0.0105883
0.0122164
0.0131624
0.0139943
0.0161124
0.0210353
0.0265338
0.034592
0.0617646
0.0993063
0.115949
0.115531
0.0948335
0.0599336
0.0428091
0.0388544
0.0389176
0.0451535
0.0457642
0.0532223
0.0543891
0.056595
0.0484271
0.0432774
0.0420416
0.0377067
0.0368609
0.0348328
0.0311417
0.0307748
0.0273055
0.0248997
0.0240312
0.0253339
0.0252818
0.0291886
0.030104
0.0385964
0.0446041
0.0455055
0.0586952
0.0646775
0.0694589
0.354186
0.324327
0.294453
0.295297
0.305079
0.334511
0.370395
0.37605
0.37125
0.349541
0.305292
0.25087
0.158676
0.0838214
0.0394492
0.0188208
0.0087866
0.00397004
0.00221432
0.00179439
0.00158309
0.00131774
0.00137757
0.00170777
0.00178229
0.00177248
0.00180099
0.00207944
0.00266444
0.00419033
0.0069677
0.00794965
0.00739495
0.00722306
0.0091845
0.0173054
0.0664952
0.196153
0.264993
0.293779
0.292369
0.278763
0.254718
0.198819
0.137155
0.0969822
0.0834646
0.0812217
0.0766807
0.0722334
0.0717659
0.0752702
0.0889974
0.0937926
0.0903911
0.061312
0.0337693
0.019204
0.0121692
0.010045
0.00968544
0.00910359
0.00927968
0.0116672
0.0200281
0.0397669
0.149592
0.23225
0.208631
0.0984026
0.0521952
0.0454506
0.0448675
0.0432899
0.0387252
0.0321155
0.0294665
0.0236469
0.0241469
0.032073
0.0285017
0.0206555
0.0194493
0.0185602
0.0178559
0.0177713
0.018287
0.0196383
0.0207959
0.0226464
0.0331088
0.0476102
0.0535818
0.0531727
0.048594
0.043618
0.0423054
0.0427252
0.0441731
0.0488244
0.0622543
0.0769317
0.0793746
0.078436
0.0710683
0.0583397
0.0488331
0.0394594
0.0321219
0.0266665
0.0222778
0.0181743
0.0140068
0.0118935
0.0110769
0.00996935
0.00962508
0.0097747
0.0106289
0.0113208
0.0115958
0.0117037
0.0123491
0.0130064
0.0134855
0.0140233
0.0154015
0.0221205
0.0282423
0.0305982
0.031948
0.0328784
0.0327033
0.0296366
0.0279951
0.0290235
0.0324607
0.038131
0.0535807
0.0798779
0.0909074
0.0905316
0.0786475
0.0735095
0.0624918
0.0479559
0.0432127
0.0386468
0.0255838
0.0158283
0.0126385
0.0121421
0.0111886
0.0104207
0.00971136
0.0092955
0.00936005
0.0098631
0.0116415
0.0128682
0.0138058
0.0159188
0.0201949
0.025413
0.0332575
0.0595012
0.0966258
0.114076
0.115073
0.101004
0.0656197
0.0458396
0.041907
0.0401577
0.0477068
0.0497008
0.060174
0.0544495
0.0570298
0.0507107
0.0441396
0.0409517
0.0380125
0.0346719
0.0328812
0.0300044
0.0310826
0.0282064
0.0256512
0.0247403
0.0270343
0.0264689
0.0313348
0.033831
0.039157
0.0450309
0.0484328
0.0526341
0.0572923
0.0667063
0.137836
0.128319
0.113006
0.112695
0.119178
0.131351
0.165064
0.183768
0.183151
0.173851
0.148127
0.0994578
0.0545997
0.0258246
0.0124752
0.00646435
0.00307619
0.00174326
0.00145878
0.0014172
0.00132558
0.00103448
0.00113986
0.00141612
0.00143233
0.00143836
0.0015427
0.00225036
0.00293633
0.00376987
0.00667599
0.00786935
0.00742024
0.0072895
0.00926729
0.0168825
0.0718272
0.207175
0.2683
0.295754
0.293104
0.274532
0.251442
0.204812
0.143221
0.102443
0.0890423
0.0854081
0.0786523
0.075071
0.0748907
0.0807495
0.0932022
0.0961881
0.0891339
0.0553947
0.0301471
0.017318
0.0115523
0.00997937
0.00998612
0.00993836
0.0104717
0.0140536
0.0245419
0.0472126
0.164813
0.244641
0.216212
0.0992566
0.0502856
0.0443829
0.0442978
0.0436494
0.0388293
0.033046
0.0305765
0.0246504
0.0238605
0.0321013
0.0301782
0.02048
0.0198067
0.0196906
0.0186401
0.017943
0.0183509
0.0196433
0.0208809
0.0257235
0.0378929
0.050758
0.0547583
0.0534039
0.0479925
0.0430207
0.0419628
0.0420013
0.0432598
0.0489378
0.0628148
0.075085
0.0766083
0.0751649
0.0634473
0.0535108
0.0434893
0.0360947
0.0307151
0.0256294
0.0214511
0.0175517
0.0137221
0.0113033
0.00961525
0.00879317
0.00869455
0.0091733
0.0106512
0.0120443
0.0126872
0.0133506
0.0133656
0.013074
0.0130329
0.0131984
0.0143333
0.0215375
0.02588
0.0271627
0.0283039
0.0287554
0.0280422
0.0258345
0.025679
0.0288602
0.0346273
0.0399492
0.0548483
0.0800873
0.0903094
0.0892724
0.0779877
0.0736793
0.0648648
0.0504471
0.0455065
0.0404886
0.0259276
0.0155999
0.0124526
0.0121909
0.011673
0.0102899
0.00959529
0.00919626
0.00921508
0.00954559
0.0110179
0.0125991
0.0136296
0.0157352
0.0195538
0.0243745
0.0322831
0.058332
0.0954478
0.113066
0.115165
0.105679
0.071036
0.0478561
0.0457686
0.0437039
0.0540022
0.0601159
0.0687925
0.0564247
0.0561161
0.0504567
0.0477114
0.0419455
0.0402039
0.0352615
0.0332672
0.0300139
0.0299434
0.0286334
0.0281426
0.0258198
0.0284936
0.028492
0.0310658
0.0382983
0.039256
0.047988
0.0537555
0.0645577
0.063443
0.0671455
0.033103
0.0318722
0.0279302
0.0271301
0.0292499
0.0323082
0.0457719
0.0624993
0.0648026
0.0621355
0.0493401
0.0293935
0.0141728
0.00681734
0.00435425
0.002492
0.00142186
0.00121931
0.0012697
0.00125817
0.00104505
0.000826081
0.00093288
0.00110739
0.00111816
0.0011744
0.00142401
0.00255559
0.00354512
0.0038719
0.00619924
0.0077249
0.00763315
0.007587
0.00933668
0.0156876
0.0553094
0.183127
0.263655
0.294486
0.293265
0.270219
0.247492
0.206196
0.147454
0.106186
0.0942081
0.0878167
0.0802696
0.077984
0.0783479
0.0873296
0.097492
0.0986046
0.0856343
0.0490615
0.0262726
0.0156001
0.0112879
0.0103495
0.0108147
0.0112936
0.0125591
0.0177661
0.0301889
0.0548379
0.178463
0.25687
0.225254
0.102236
0.0491594
0.0432321
0.0435733
0.0432166
0.0388654
0.03432
0.031675
0.0261961
0.0235391
0.0317779
0.0334297
0.0212392
0.0198418
0.0201175
0.0194448
0.018525
0.0187866
0.0197732
0.0215111
0.031499
0.0428544
0.0537858
0.0557366
0.0530911
0.0467403
0.0425348
0.0415185
0.0415159
0.043253
0.0503242
0.0639375
0.0723155
0.0736653
0.0702611
0.0571051
0.0487274
0.0382597
0.0332953
0.0297087
0.0250266
0.0209713
0.0170729
0.0134493
0.0107389
0.00889723
0.00805882
0.00796898
0.00866881
0.0113163
0.0136127
0.0143941
0.0143889
0.013815
0.0130614
0.0130106
0.0132188
0.013978
0.0190586
0.0225206
0.0237962
0.024442
0.024566
0.0237618
0.022979
0.024235
0.0305632
0.0365887
0.0415458
0.0558488
0.0791987
0.0887452
0.0870925
0.0770839
0.073859
0.0678001
0.0528455
0.0467848
0.0413466
0.0258214
0.0152434
0.0122215
0.0122967
0.0122776
0.0105476
0.00954034
0.00924403
0.00928133
0.00956822
0.0106449
0.0122379
0.0133876
0.0155532
0.019161
0.0237254
0.0314138
0.0563424
0.0942247
0.11283
0.114948
0.108114
0.0759605
0.0520801
0.0538068
0.051646
0.0667518
0.062314
0.0736252
0.0627542
0.0602414
0.0518511
0.049121
0.0424836
0.0396749
0.0355245
0.0331332
0.0298413
0.0297779
0.0293053
0.0304223
0.0291848
0.0310362
0.0329853
0.0325034
0.0435722
0.0438593
0.0539368
0.0560565
0.0724929
0.0678604
0.0676885
0.00475775
0.00461585
0.00397877
0.00382465
0.00413955
0.00457552
0.00872421
0.0149275
0.0161519
0.0154287
0.0107189
0.00590858
0.00293978
0.00240533
0.00212762
0.00129948
0.00103007
0.00112444
0.00121279
0.00111145
0.000770212
0.00068052
0.000767224
0.000909912
0.000896375
0.00105887
0.00138911
0.00300749
0.00447381
0.00463361
0.00583136
0.00740985
0.00778475
0.00800786
0.00954204
0.0143878
0.0454511
0.15098
0.251326
0.290886
0.29219
0.265938
0.241816
0.205024
0.147848
0.108587
0.0985706
0.088921
0.0822913
0.0817118
0.0832931
0.0945452
0.101591
0.100723
0.0792158
0.0431174
0.0229941
0.0142337
0.0111886
0.0108982
0.0124979
0.0137832
0.0157574
0.0230233
0.0365257
0.0627792
0.190981
0.269653
0.236368
0.107421
0.0490911
0.041974
0.0428143
0.0426353
0.0390885
0.0353985
0.0328908
0.0279304
0.0236339
0.0307991
0.0362385
0.0240291
0.0197633
0.0198327
0.0194262
0.0189309
0.0192852
0.0198978
0.02599
0.0385929
0.0487218
0.0564528
0.0563916
0.0517377
0.045334
0.0422906
0.0411734
0.0416225
0.0440204
0.052875
0.0636631
0.0695361
0.0707849
0.0651124
0.0531842
0.042993
0.0342656
0.0316587
0.0289035
0.0242993
0.02041
0.016645
0.0134675
0.0109203
0.00912245
0.00803739
0.0078321