/*--------------------------------*- C++ -*----------------------------------*\
| =========                 |                                                 |
| \\      /  F ield         | OpenFOAM: The Open Source CFD Toolbox           |
|  \\    /   O peration     | Version:  2.4.0                                 |
|   \\  /    A nd           | Web:      www.OpenFOAM.org                      |
|    \\/     M anipulation  |                                                 |
\*---------------------------------------------------------------------------*/
FoamFile
{
    version     2.0;
    format      ascii;
    class       surfaceScalarField;
    location    "0.211";
    object      phi_0;
}
// * * * * * * * * * * * * * * * * * * * * * * * * * * * * * * * * * * * * * //

dimensions      [0 3 -1 0 0 0 0];

internalField   nonuniform List<scalar> 
34880
(
5.48574e-06
7.01426e-06
3.12638e-06
2.35937e-06
2.47394e-06
6.52435e-07
2.21479e-06
2.59156e-07
2.08174e-06
1.33043e-07
1.96108e-06
1.20664e-07
1.88802e-06
7.30626e-08
1.82348e-06
6.45366e-08
1.76705e-06
5.64327e-08
1.74015e-06
2.68939e-08
1.71115e-06
2.90031e-08
1.67072e-06
4.04329e-08
1.65714e-06
1.35778e-08
1.64916e-06
7.98447e-09
1.60372e-06
4.5437e-08
1.62356e-06
-1.98379e-08
1.58666e-06
3.68995e-08
1.64631e-06
-5.96524e-08
1.3774e-06
2.68915e-07
-1.47231e-06
2.8497e-06
1.0108e-05
9.40623e-06
7.83207e-06
4.63532e-06
6.70924e-06
1.77527e-06
6.0618e-06
9.06591e-07
5.65141e-06
5.43438e-07
5.34232e-06
4.29751e-07
5.12345e-06
2.91938e-07
4.94828e-06
2.39701e-07
4.79754e-06
2.07175e-07
4.71007e-06
1.14364e-07
4.61513e-06
1.2394e-07
4.52431e-06
1.31259e-07
4.48305e-06
5.48341e-08
4.42254e-06
6.84977e-08
4.35053e-06
1.17443e-07
4.36318e-06
-3.24857e-08
4.27195e-06
1.28126e-07
4.38816e-06
-1.75863e-07
4.13401e-06
5.23067e-07
-2.02005e-06
4.68176e-06
1.24231e-05
9.4831e-06
1.10068e-05
6.0516e-06
9.97629e-06
2.80582e-06
9.2045e-06
1.67838e-06
8.62019e-06
1.12775e-06
8.18647e-06
8.63471e-07
7.85421e-06
6.24192e-07
7.60075e-06
4.93163e-07
7.37263e-06
4.35299e-07
7.23322e-06
2.53777e-07
7.08571e-06
2.71447e-07
6.95162e-06
2.65353e-07
6.88883e-06
1.17623e-07
6.77823e-06
1.7909e-07
6.69281e-06
2.02865e-07
6.68471e-06
-2.43824e-08
6.57601e-06
2.36824e-07
6.65004e-06
-2.4989e-07
6.60315e-06
5.69959e-07
-2.01397e-06
6.59706e-06
1.34098e-05
8.57333e-06
1.28958e-05
6.56562e-06
1.2318e-05
3.38361e-06
1.17233e-05
2.27302e-06
1.11291e-05
1.72199e-06
1.06588e-05
1.33377e-06
1.02682e-05
1.01479e-06
9.96573e-06
7.95608e-07
9.68987e-06
7.11159e-07
9.50763e-06
4.36024e-07
9.32812e-06
4.50957e-07
9.15277e-06
4.40703e-07
9.08042e-06
1.8997e-07
8.92583e-06
3.33686e-07
8.83178e-06
2.96912e-07
8.79456e-06
1.28331e-08
8.7056e-06
3.25791e-07
8.68539e-06
-2.29688e-07
8.75061e-06
5.04742e-07
-1.84346e-06
8.5801e-06
1.35859e-05
7.48738e-06
1.36743e-05
6.47727e-06
1.361e-05
3.44795e-06
1.34146e-05
2.46839e-06
1.30073e-05
2.1293e-06
1.2628e-05
1.7131e-06
1.22683e-05
1.37442e-06
1.19648e-05
1.09915e-06
1.16916e-05
9.84363e-07
1.14874e-05
6.40202e-07
1.13052e-05
6.33176e-07
1.11e-05
6.45941e-07
1.10318e-05
2.5813e-07
1.08482e-05
5.17249e-07
1.07521e-05
3.93003e-07
1.06856e-05
7.94121e-08
1.06283e-05
3.83054e-07
1.05316e-05
-1.33009e-07
1.06082e-05
4.28203e-07
-1.47962e-06
1.02443e-05
1.34728e-05
6.51457e-06
1.378e-05
6.17009e-06
1.39779e-05
3.25003e-06
1.41658e-05
2.28052e-06
1.4065e-05
2.23004e-06
1.39002e-05
1.87797e-06
1.36954e-05
1.57915e-06
1.34641e-05
1.33048e-06
1.32653e-05
1.18318e-06
1.30795e-05
8.2603e-07
1.29347e-05
7.77931e-07
1.27263e-05
8.54388e-07
1.26762e-05
3.0822e-07
1.2493e-05
7.00437e-07
1.24008e-05
4.8518e-07
1.23231e-05
1.57062e-07
1.22837e-05
4.22475e-07
1.21634e-05
-1.26346e-08
1.21858e-05
4.05792e-07
-1.01237e-06
1.17185e-05
1.33431e-05
5.6715e-06
1.3745e-05
5.76812e-06
1.39036e-05
3.09146e-06
1.42468e-05
1.93738e-06
1.43694e-05
2.10741e-06
1.44013e-05
1.84607e-06
1.44141e-05
1.56638e-06
1.43159e-05
1.42866e-06
1.42674e-05
1.23167e-06
1.41559e-05
9.37568e-07
1.41022e-05
8.31579e-07
1.39386e-05
1.01805e-06
1.39239e-05
3.2284e-07
1.37841e-05
8.40307e-07
1.37098e-05
5.59486e-07
1.36487e-05
2.18167e-07
1.36171e-05
4.53985e-07
1.35108e-05
9.37439e-08
1.3495e-05
4.21601e-07
-4.2468e-07
1.29073e-05
1.3231e-05
4.94048e-06
1.37498e-05
5.2493e-06
1.37811e-05
3.06022e-06
1.41123e-05
1.60618e-06
1.43244e-05
1.89529e-06
1.44187e-05
1.75178e-06
1.45661e-05
1.41898e-06
1.45669e-05
1.42782e-06
1.46554e-05
1.14313e-06
1.46341e-05
9.58905e-07
1.46995e-05
7.66206e-07
1.46311e-05
1.0864e-06
1.46706e-05
2.83397e-07
1.46187e-05
8.92127e-07
1.45969e-05
5.81332e-07
1.45765e-05
2.38565e-07
1.45657e-05
4.64774e-07
1.44956e-05
1.63895e-07
1.44846e-05
4.32559e-07
3.16394e-07
1.37435e-05
1.31317e-05
4.30877e-06
1.36983e-05
4.68272e-06
1.37158e-05
3.04271e-06
1.39678e-05
1.35415e-06
1.42211e-05
1.64203e-06
1.43142e-05
1.65871e-06
1.44997e-05
1.23344e-06
1.45511e-05
1.37648e-06
1.46866e-05
1.00757e-06
1.46963e-05
9.49224e-07
1.48254e-05
6.3715e-07
1.48475e-05
1.06431e-06
1.49099e-05
2.20961e-07
1.49542e-05
8.47799e-07
1.50073e-05
5.28273e-07
1.50326e-05
2.13215e-07
1.5054e-05
4.43363e-07
1.50648e-05
1.53099e-07
1.52058e-05
2.91602e-07
-3.21407e-08
1.55543e-05
1.30416e-05
3.7672e-06
1.36163e-05
4.108e-06
1.37088e-05
2.95022e-06
1.39003e-05
1.16262e-06
1.41439e-05
1.39843e-06
1.42174e-05
1.58524e-06
1.43692e-05
1.08161e-06
1.44607e-05
1.28493e-06
1.46161e-05
8.52262e-07
1.46258e-05
9.3946e-07
1.4775e-05
4.87983e-07
1.48519e-05
9.87409e-07
1.48842e-05
1.88677e-07
1.49852e-05
7.46798e-07
1.50751e-05
4.38355e-07
1.51148e-05
1.73467e-07
1.51817e-05
3.76527e-07
1.52813e-05
5.34679e-08
1.54579e-05
1.15004e-07
-1.75591e-07
1.56014e-05
1.30036e-05
3.26356e-06
1.35434e-05
3.56821e-06
1.36727e-05
2.82094e-06
1.38888e-05
9.46561e-07
1.40838e-05
1.20337e-06
1.41164e-05
1.55267e-06
1.42536e-05
9.44411e-07
1.4368e-05
1.17049e-06
1.45124e-05
7.07866e-07
1.456e-05
8.91945e-07
1.47116e-05
3.36332e-07
1.47942e-05
9.04852e-07
1.48114e-05
1.71398e-07
1.49479e-05
6.10302e-07
1.50103e-05
3.76044e-07
1.50561e-05
1.27641e-07
1.51628e-05
2.6976e-07
1.52906e-05
-7.43245e-08
1.54484e-05
-4.27953e-08
-1.55537e-07
1.54284e-05
1.29972e-05
2.76637e-06
1.34301e-05
3.1353e-06
1.35892e-05
2.66184e-06
1.38397e-05
6.96093e-07
1.40008e-05
1.04222e-06
1.40616e-05
1.49182e-06
1.42355e-05
7.7055e-07
1.43141e-05
1.09195e-06
1.44275e-05
5.9444e-07
1.45271e-05
7.92292e-07
1.46293e-05
2.34179e-07
1.46942e-05
8.39937e-07
1.47282e-05
1.37401e-07
1.49026e-05
4.35919e-07
1.49233e-05
3.55291e-07
1.497e-05
8.10031e-08
1.51027e-05
1.37061e-07
1.52369e-05
-2.08604e-07
1.535e-05
-1.55895e-07
-3.04428e-07
1.54989e-05
1.29488e-05
2.31756e-06
1.3315e-05
2.76914e-06
1.3557e-05
2.41984e-06
1.37692e-05
4.83867e-07
1.39437e-05
8.677e-07
1.40651e-05
1.37041e-06
1.42106e-05
6.25121e-07
1.42591e-05
1.04342e-06
1.43875e-05
4.66018e-07
1.44777e-05
7.02155e-07
1.453e-05
1.81802e-07
1.46343e-05
7.35664e-07
1.46792e-05
9.25031e-08
1.4843e-05
2.72142e-07
1.48603e-05
3.38015e-07
1.49125e-05
2.87837e-08
1.50433e-05
6.23373e-09
1.51387e-05
-3.03987e-07
1.52987e-05
-3.15916e-07
-7.51275e-07
1.57456e-05
1.28744e-05
1.94317e-06
1.32802e-05
2.36332e-06
1.36078e-05
2.09224e-06
1.37334e-05
3.58265e-07
1.39119e-05
6.89235e-07
1.40375e-05
1.24476e-06
1.41302e-05
5.32401e-07
1.41998e-05
9.73808e-07
1.43591e-05
3.06743e-07
1.44309e-05
6.30389e-07
1.44582e-05
1.54466e-07
1.4617e-05
5.76933e-07
1.46609e-05
4.85098e-08
1.47797e-05
1.53438e-07
1.48118e-05
3.05822e-07
1.48713e-05
-3.07085e-08
1.49785e-05
-1.00965e-07
1.50669e-05
-3.92367e-07
1.52698e-05
-5.18756e-07
-1.25951e-06
1.5778e-05
1.28363e-05
1.60692e-06
1.32969e-05
1.90266e-06
1.36027e-05
1.78647e-06
1.36981e-05
2.62884e-07
1.38641e-05
5.23159e-07
1.3967e-05
1.14195e-06
1.40767e-05
4.2267e-07
1.41879e-05
8.62579e-07
1.43313e-05
1.63375e-07
1.44141e-05
5.47607e-07
1.44306e-05
1.37928e-07
1.45884e-05
4.19168e-07
1.46098e-05
2.71015e-08
1.47168e-05
4.63842e-08
1.47667e-05
2.55995e-07
1.48269e-05
-9.0919e-08
1.49271e-05
-2.01202e-07
1.50377e-05
-5.02983e-07
1.52417e-05
-7.22779e-07
-1.72956e-06
1.57118e-05
1.28447e-05
1.26219e-06
1.32657e-05
1.48164e-06
1.35428e-05
1.50938e-06
1.36656e-05
1.40133e-07
1.3805e-05
3.83773e-07
1.39131e-05
1.03384e-06
1.40714e-05
2.6438e-07
1.41977e-05
7.3627e-07
1.4309e-05
5.20162e-08
1.44004e-05
4.56258e-07
1.44033e-05
1.35016e-07
1.45346e-05
2.87918e-07
1.45533e-05
8.32477e-09
1.46669e-05
-6.71876e-08
1.47458e-05
1.77077e-07
1.47813e-05
-1.26372e-07
1.49192e-05
-3.39087e-07
1.499e-05
-5.73813e-07
1.52343e-05
-9.67138e-07
-2.29481e-06
1.57996e-05
1.28206e-05
9.41619e-07
1.3203e-05
1.09923e-06
1.35268e-05
1.1856e-06
1.36576e-05
9.33598e-09
1.37631e-05
2.78185e-07
1.39021e-05
8.94913e-07
1.4064e-05
1.02477e-07
1.41782e-05
6.22047e-07
1.42755e-05
-4.53224e-08
1.43635e-05
3.68253e-07
1.43645e-05
1.34081e-07
1.44976e-05
1.54775e-07
1.45479e-05
-4.19705e-08
1.46368e-05
-1.56058e-07
1.47334e-05
8.04582e-08
1.47487e-05
-1.41638e-07
1.49199e-05
-5.10291e-07
1.49581e-05
-6.12056e-07
1.50119e-05
-1.02096e-06
-1.38673e-06
1.41039e-05
1.27667e-05
6.74891e-07
1.32049e-05
6.61013e-07
1.35572e-05
8.33332e-07
1.36396e-05
-7.30387e-08
1.37395e-05
1.7827e-07
1.39021e-05
7.32347e-07
1.40379e-05
-3.33954e-08
1.41534e-05
5.06628e-07
1.42342e-05
-1.26135e-07
1.43397e-05
2.62756e-07
1.43551e-05
1.18678e-07
1.4508e-05
1.84726e-09
1.45395e-05
-7.34489e-08
1.46079e-05
-2.24484e-07
1.46976e-05
-9.28027e-09
1.4759e-05
-2.03025e-07
1.48865e-05
-6.37741e-07
1.49508e-05
-6.76334e-07
1.51648e-05
-1.23495e-06
-1.71683e-06
1.54949e-05
1.27666e-05
4.08277e-07
1.32298e-05
1.97856e-07
1.35338e-05
5.29281e-07
1.36117e-05
-1.50917e-07
1.37252e-05
6.48063e-08
1.38886e-05
5.68923e-07
1.40231e-05
-1.67868e-07
1.41456e-05
3.84085e-07
1.42157e-05
-1.96227e-07
1.43416e-05
1.36818e-07
1.43686e-05
9.1671e-08
1.45028e-05
-1.32357e-07
1.4512e-05
-8.25999e-08
1.45721e-05
-2.84603e-07
1.46844e-05
-1.21556e-07
1.47728e-05
-2.91428e-07
1.48469e-05
-7.11807e-07
1.49374e-05
-7.66868e-07
1.51107e-05
-1.40827e-06
-1.92856e-06
1.53224e-05
1.2783e-05
1.25308e-07
1.3202e-05
-2.21204e-07
1.34983e-05
2.3303e-07
1.36231e-05
-2.75741e-07
1.37222e-05
-3.42783e-08
1.38762e-05
4.14872e-07
1.40259e-05
-3.17489e-07
1.41491e-05
2.60837e-07
1.42046e-05
-2.51755e-07
1.43427e-05
-1.29453e-09
1.43633e-05
7.11257e-08
1.44749e-05
-2.43934e-07
1.44974e-05
-1.05133e-07
1.45724e-05
-3.59565e-07
1.46964e-05
-2.45625e-07
1.47624e-05
-3.5739e-07
1.48207e-05
-7.7013e-07
1.49295e-05
-8.75663e-07
1.50899e-05
-1.56865e-06
-2.25471e-06
1.54161e-05
1.27651e-05
-1.39833e-07
1.31782e-05
-6.34276e-07
1.35243e-05
-1.13057e-07
1.36486e-05
-3.99998e-07
1.37114e-05
-9.71533e-08
1.38785e-05
2.47819e-07
1.40315e-05
-4.70505e-07
1.41422e-05
1.50165e-07
1.41966e-05
-3.06159e-07
1.43451e-05
-1.49817e-07
1.43608e-05
5.54013e-08
1.44616e-05
-3.44665e-07
1.45161e-05
-1.59696e-07
1.45828e-05
-4.26286e-07
1.46995e-05
-3.62293e-07
1.47366e-05
-3.94446e-07
1.48366e-05
-8.7013e-07
1.49278e-05
-9.6693e-07
1.50732e-05
-1.71398e-06
-2.78392e-06
1.56024e-05
1.27637e-05
-4.03506e-07
1.3206e-05
-1.07665e-06
1.35491e-05
-4.56088e-07
1.36337e-05
-4.84605e-07
1.37021e-05
-1.65553e-07
1.38927e-05
5.71583e-08
1.40299e-05
-6.07703e-07
1.41401e-05
4.00415e-08
1.4211e-05
-3.77121e-07
1.43536e-05
-2.92367e-07
1.43697e-05
3.92411e-08
1.44657e-05
-4.40625e-07
1.45392e-05
-2.33185e-07
1.45783e-05
-4.65421e-07
1.46921e-05
-4.76061e-07
1.4737e-05
-4.39362e-07
1.4863e-05
-9.96162e-07
1.49314e-05
-1.03525e-06
1.49104e-05
-1.69303e-06
-1.87211e-06
1.39986e-05
1.27875e-05
-6.91004e-07
1.3234e-05
-1.52314e-06
1.35418e-05
-7.63948e-07
1.36212e-05
-5.63989e-07
1.37249e-05
-2.69191e-07
1.39171e-05
-1.35027e-07
1.40308e-05
-7.21481e-07
1.41579e-05
-8.69912e-08
1.42304e-05
-4.49683e-07
1.43621e-05
-4.24061e-07
1.43673e-05
3.40762e-08
1.44813e-05
-5.54627e-07
1.45519e-05
-3.03776e-07
1.45926e-05
-5.06188e-07
1.46827e-05
-5.66134e-07
1.47767e-05
-5.33323e-07
1.48609e-05
-1.0804e-06
1.49477e-05
-1.12206e-06
1.5029e-05
-1.77426e-06
-2.34061e-06
1.54975e-05
1.28087e-05
-9.99714e-07
1.32473e-05
-1.96175e-06
1.35465e-05
-1.0631e-06
1.36442e-05
-6.61754e-07
1.37601e-05
-3.85036e-07
1.39329e-05
-3.07877e-07
1.40421e-05
-8.30676e-07
1.4181e-05
-2.25856e-07
1.42486e-05
-5.17248e-07
1.43674e-05
-5.42903e-07
1.43868e-05
1.46592e-08
1.45043e-05
-6.7207e-07
1.45753e-05
-3.74834e-07
1.46155e-05
-5.46408e-07
1.4694e-05
-6.44585e-07
1.48044e-05
-6.43717e-07
1.4852e-05
-1.12796e-06
1.49823e-05
-1.25242e-06
1.50458e-05
-1.83773e-06
-2.76405e-06
1.54692e-05
1.28334e-05
-1.3331e-06
1.32736e-05
-2.40192e-06
1.35707e-05
-1.3603e-06
1.36716e-05
-7.62647e-07
1.37805e-05
-4.93899e-07
1.39463e-05
-4.73662e-07
1.40649e-05
-9.49241e-07
1.42093e-05
-3.70341e-07
1.42717e-05
-5.79633e-07
1.4385e-05
-6.56151e-07
1.44258e-05
-2.61202e-08
1.45342e-05
-7.80478e-07
1.45972e-05
-4.37865e-07
1.46398e-05
-5.88967e-07
1.47204e-05
-7.25192e-07
1.48245e-05
-7.47836e-07
1.48711e-05
-1.1746e-06
1.5003e-05
-1.38431e-06
1.50788e-05
-1.9135e-06
-3.1571e-06
1.54718e-05
1.2865e-05
-1.69806e-06
1.33105e-05
-2.84743e-06
1.35991e-05
-1.64888e-06
1.3688e-05
-8.51609e-07
1.38014e-05
-6.07289e-07
1.398e-05
-6.52303e-07
1.41039e-05
-1.07308e-06
1.42406e-05
-5.0705e-07
1.43005e-05
-6.39492e-07
1.44131e-05
-7.68807e-07
1.44731e-05
-8.6152e-08
1.45489e-05
-8.56272e-07
1.46275e-05
-5.16424e-07
1.46718e-05
-6.33288e-07
1.4762e-05
-8.15349e-07
1.48455e-05
-8.31344e-07
1.49187e-05
-1.24783e-06
1.50027e-05
-1.46833e-06
1.50918e-05
-2.00255e-06
-3.63054e-06
1.55652e-05
1.29055e-05
-2.10358e-06
1.33557e-05
-3.29761e-06
1.36166e-05
-1.90979e-06
1.3704e-05
-9.38993e-07
1.38449e-05
-7.48207e-07
1.4028e-05
-8.35399e-07
1.41463e-05
-1.19133e-06
1.42726e-05
-6.33429e-07
1.43356e-05
-7.02493e-07
1.4449e-05
-8.82205e-07
1.4516e-05
-1.53141e-07
1.45749e-05
-9.15189e-07
1.46776e-05
-6.19056e-07
1.4719e-05
-6.7473e-07
1.48033e-05
-8.99594e-07
1.48824e-05
-9.1045e-07
1.49501e-05
-1.31557e-06
1.50107e-05
-1.52891e-06
1.5019e-05
-2.01086e-06
-2.67681e-06
1.40653e-05
1.29575e-05
-2.56108e-06
1.34012e-05
-3.74129e-06
1.36008e-05
-2.10936e-06
1.37372e-05
-1.07544e-06
1.3905e-05
-9.15987e-07
1.40767e-05
-1.00714e-06
1.41916e-05
-1.3062e-06
1.43087e-05
-7.50509e-07
1.43792e-05
-7.73059e-07
1.44945e-05
-9.9743e-07
1.45584e-05
-2.17084e-07
1.46317e-05
-9.88511e-07
1.47325e-05
-7.19858e-07
1.47852e-05
-7.27413e-07
1.48286e-05
-9.43003e-07
1.49332e-05
-1.01501e-06
1.49589e-05
-1.3413e-06
1.50601e-05
-1.63007e-06
1.52141e-05
-2.16485e-06
-3.15308e-06
1.56903e-05
1.3014e-05
-3.07506e-06
1.34411e-05
-4.1684e-06
1.35895e-05
-2.25773e-06
1.37872e-05
-1.27319e-06
1.39691e-05
-1.09789e-06
1.41273e-05
-1.16528e-06
1.42478e-05
-1.4267e-06
1.43464e-05
-8.49178e-07
1.44367e-05
-8.63352e-07
1.45412e-05
-1.10193e-06
1.4625e-05
-3.00887e-07
1.46979e-05
-1.06138e-06
1.47977e-05
-8.19687e-07
1.48353e-05
-7.65004e-07
1.48664e-05
-9.74089e-07
1.49679e-05
-1.11648e-06
1.49705e-05
-1.34397e-06
1.5136e-05
-1.79558e-06
1.52754e-05
-2.30421e-06
-3.46522e-06
1.55875e-05
1.30704e-05
-3.64544e-06
1.34851e-05
-4.5831e-06
1.36189e-05
-2.39159e-06
1.38493e-05
-1.50356e-06
1.40318e-05
-1.28035e-06
1.41873e-05
-1.3208e-06
1.4309e-05
-1.54846e-06
1.43903e-05
-9.30434e-07
1.45086e-05
-9.81683e-07
1.46055e-05
-1.19885e-06
1.47096e-05
-4.04989e-07
1.47648e-05
-1.11649e-06
1.48577e-05
-9.12619e-07
1.48734e-05
-7.80749e-07
1.49138e-05
-1.01441e-06
1.50016e-05
-1.20432e-06
1.50248e-05
-1.36722e-06
1.51857e-05
-1.95646e-06
1.52797e-05
-2.39821e-06
-3.70568e-06
1.55202e-05
1.31239e-05
-4.26933e-06
1.3529e-05
-4.98823e-06
1.36759e-05
-2.53844e-06
1.39228e-05
-1.75052e-06
1.40936e-05
-1.4511e-06
1.42649e-05
-1.49214e-06
1.43736e-05
-1.6571e-06
1.44584e-05
-1.01529e-06
1.46063e-05
-1.12958e-06
1.4685e-05
-1.27757e-06
1.47891e-05
-5.09049e-07
1.48243e-05
-1.15166e-06
1.48971e-05
-9.85492e-07
1.49134e-05
-7.96998e-07
1.49608e-05
-1.06184e-06
1.50277e-05
-1.27116e-06
1.50599e-05
-1.39947e-06
1.51264e-05
-2.02294e-06
1.51421e-05
-2.41393e-06
-3.87084e-06
1.53073e-05
1.31749e-05
-4.94424e-06
1.35886e-05
-5.4019e-06
1.37621e-05
-2.71193e-06
1.39895e-05
-1.97799e-06
1.41745e-05
-1.63612e-06
1.43715e-05
-1.68914e-06
1.44533e-05
-1.73886e-06
1.4562e-05
-1.12394e-06
1.47033e-05
-1.27095e-06
1.47323e-05
-1.30653e-06
1.48264e-05
-6.03134e-07
1.48356e-05
-1.16086e-06
1.4871e-05
-1.02093e-06
1.48851e-05
-8.11101e-07
1.48943e-05
-1.07099e-06
1.48942e-05
-1.27107e-06
1.4867e-05
-1.37227e-06
1.47881e-05
-1.94404e-06
1.46773e-05
-2.30318e-06
-3.91486e-06
1.47214e-05
1.32413e-05
-5.68557e-06
1.3663e-05
-5.82356e-06
1.38526e-05
-2.90155e-06
1.40735e-05
-2.19887e-06
1.4308e-05
-1.87066e-06
1.44818e-05
-1.86294e-06
1.45182e-05
-1.77524e-06
1.46188e-05
-1.22456e-06
1.46765e-05
-1.32863e-06
1.46312e-05
-1.26123e-06
1.46846e-05
-6.56491e-07
1.46192e-05
-1.09545e-06
1.45758e-05
-9.77583e-07
1.45383e-05
-7.7357e-07
1.44574e-05
-9.90073e-07
1.43585e-05
-1.17224e-06
1.42422e-05
-1.2559e-06
1.40372e-05
-1.73913e-06
1.37809e-05
-2.04685e-06
-2.97654e-06
1.28426e-05
1.33358e-05
-6.52133e-06
1.3684e-05
-6.17176e-06
1.39591e-05
-3.17669e-06
1.41952e-05
-2.435e-06
1.43956e-05
-2.07101e-06
1.44422e-05
-1.90959e-06
1.43754e-05
-1.70842e-06
1.43681e-05
-1.21727e-06
1.42687e-05
-1.22915e-06
1.41218e-05
-1.11433e-06
1.40813e-05
-6.16035e-07
1.39159e-05
-9.3006e-07
1.37875e-05
-8.49196e-07
1.36854e-05
-6.71479e-07
1.35291e-05
-8.33684e-07
1.336e-05
-1.00319e-06
1.31755e-05
-1.07142e-06
1.29e-05
-1.46365e-06
1.25931e-05
-1.73993e-06
-2.74654e-06
1.23631e-05
1.34644e-05
-7.48569e-06
1.37625e-05
-6.46993e-06
1.40106e-05
-3.42472e-06
1.41269e-05
-2.55137e-06
1.41e-05
-2.04406e-06
1.39134e-05
-1.72303e-06
1.36706e-05
-1.46564e-06
1.34969e-05
-1.04358e-06
1.32546e-05
-9.86829e-07
1.30292e-05
-8.88945e-07
1.29104e-05
-4.97234e-07
1.26897e-05
-7.09384e-07
1.25174e-05
-6.76837e-07
1.23773e-05
-5.31434e-07
1.21866e-05
-6.42898e-07
1.19823e-05
-7.9889e-07
1.17621e-05
-8.51266e-07
1.14543e-05
-1.15584e-06
1.10951e-05
-1.38072e-06
-2.0353e-06
1.03839e-05
1.35815e-05
-8.56715e-06
1.36724e-05
-6.56085e-06
1.36285e-05
-3.38089e-06
1.339e-05
-2.31279e-06
1.3034e-05
-1.68805e-06
1.26278e-05
-1.31687e-06
1.22536e-05
-1.09141e-06
1.19769e-05
-7.66938e-07
1.16781e-05
-6.88045e-07
1.14301e-05
-6.4089e-07
1.12788e-05
-3.45929e-07
1.1052e-05
-4.82594e-07
1.08697e-05
-4.9449e-07
1.07164e-05
-3.78172e-07
1.05215e-05
-4.48028e-07
1.03071e-05
-5.84519e-07
1.00769e-05
-6.20999e-07
9.75944e-06
-8.38399e-07
9.3942e-06
-1.01549e-06
-1.44838e-06
8.80729e-06
1.34086e-05
-9.47574e-06
1.28995e-05
-6.0518e-06
1.23272e-05
-2.80858e-06
1.17089e-05
-1.69448e-06
1.11441e-05
-1.12328e-06
1.06576e-05
-8.30313e-07
1.02574e-05
-6.91221e-07
9.96361e-06
-4.73152e-07
9.67977e-06
-4.04201e-07
9.4471e-06
-4.08224e-07
9.29992e-06
-1.98752e-07
9.09971e-06
-2.82383e-07
8.92734e-06
-3.2212e-07
8.7815e-06
-2.32326e-07
8.6047e-06
-2.71228e-07
8.39997e-06
-3.79794e-07
8.17859e-06
-3.99616e-07
7.87981e-06
-5.3962e-07
7.5249e-06
-6.60575e-07
-9.39766e-07
7.01628e-06
1.24247e-05
-9.40047e-06
1.10117e-05
-4.63875e-06
9.98024e-06
-1.77714e-06
9.19672e-06
-9.10957e-07
8.62438e-06
-5.50945e-07
8.1897e-06
-3.95634e-07
7.84251e-06
-3.44024e-07
7.5931e-06
-2.23746e-07
7.36827e-06
-1.79368e-07
7.17315e-06
-2.13102e-07
7.05716e-06
-8.27676e-08
6.9026e-06
-1.27822e-07
6.75341e-06
-1.72928e-07
6.63285e-06
-1.11769e-07
6.49021e-06
-1.2858e-07
6.31122e-06
-2.00811e-07
6.11853e-06
-2.06924e-07
5.86048e-06
-2.81569e-07
5.54295e-06
-3.43048e-07
-5.03394e-07
5.10658e-06
1.01112e-05
-7.01165e-06
7.83456e-06
-2.36212e-06
6.71027e-06
-6.52852e-07
6.05813e-06
-2.58813e-07
5.64763e-06
-1.40445e-07
5.352e-06
-1.00004e-07
5.10743e-06
-9.94549e-08
4.94138e-06
-5.76916e-08
4.8005e-06
-3.84935e-08
4.65725e-06
-6.98531e-08
4.58986e-06
-1.53754e-08
4.49089e-06
-2.88548e-08
4.37675e-06
-5.87823e-08
4.2958e-06
-3.08149e-08
4.19988e-06
-3.26654e-08
4.06359e-06
-6.45178e-08
3.92114e-06
-6.44743e-08
3.72743e-06
-8.78558e-08
3.48778e-06
-1.03406e-07
-1.75579e-07
3.15997e-06
5.48835e-06
3.12622e-06
2.47337e-06
2.21456e-06
2.07411e-06
1.97411e-06
1.87465e-06
1.81696e-06
1.77847e-06
1.70862e-06
1.69324e-06
1.66439e-06
1.6056e-06
1.57479e-06
1.54212e-06
1.47761e-06
1.41313e-06
1.32528e-06
1.22187e-06
1.04629e-06
2.28225e-06
-1.47228e-06
2.03974e-06
2.10683e-06
-1.11455e-06
1.28997e-06
3.17578e-06
-4.98396e-07
-5.70557e-07
4.89598e-06
2.55407e-06
-4.27427e-06
6.72894e-06
5.77998e-06
-7.61293e-06
8.02994e-06
7.19593e-06
-8.49693e-06
9.49334e-06
8.24136e-06
-9.70477e-06
1.10371e-05
6.59531e-06
-8.13909e-06
1.20725e-05
6.06628e-06
-7.10168e-06
1.32104e-05
5.47642e-06
-6.61425e-06
1.38996e-05
1.24979e-06
-1.93901e-06
1.43984e-05
-1.33709e-06
8.38225e-07
1.508e-05
-2.45886e-06
1.77728e-06
1.54406e-05
-5.71204e-06
5.35142e-06
1.50058e-05
-8.27791e-06
8.71271e-06
1.45268e-05
-9.65726e-06
1.01363e-05
1.46475e-05
-1.19126e-05
1.1792e-05
1.53169e-05
-1.43752e-05
1.37058e-05
1.5839e-05
-1.67689e-05
1.62467e-05
1.59238e-05
-1.9533e-05
1.94483e-05
1.53676e-05
-1.99806e-05
2.05368e-05
1.45373e-05
-1.97329e-05
2.05632e-05
1.36518e-05
-1.97923e-05
2.06779e-05
1.26249e-05
-1.89081e-05
1.9935e-05
1.17402e-05
-1.78782e-05
1.87629e-05
1.09969e-05
-1.5902e-05
1.66453e-05
1.0255e-05
-1.47933e-05
1.55352e-05
9.88478e-06
-1.4111e-05
1.44812e-05
9.45828e-06
-1.16646e-05
1.20911e-05
8.75169e-06
-1.07699e-05
1.14765e-05
8.33327e-06
-1.04304e-05
1.08488e-05
7.86783e-06
-7.60662e-06
8.07207e-06
7.38033e-06
-5.0355e-06
5.523e-06
7.00251e-06
-4.90492e-06
5.28274e-06
6.42137e-06
-6.14964e-06
6.73078e-06
6.94441e-06
-5.2723e-06
4.74926e-06
8.53137e-06
1.43733e-06
-3.02429e-06
9.59542e-06
8.06438e-06
-9.12843e-06
1.01854e-05
1.14708e-05
-1.20608e-05
1.08165e-05
1.94646e-05
-2.00957e-05
1.15422e-05
2.81723e-05
-2.8898e-05
1.15263e-05
3.40423e-05
-3.40264e-05
1.10096e-05
3.43162e-05
-3.37996e-05
1.03811e-05
2.95662e-05
-2.89377e-05
9.87242e-06
2.54484e-05
-2.49397e-05
9.33959e-06
2.22188e-05
-2.1686e-05
8.94595e-06
1.76871e-05
-1.72935e-05
8.79727e-06
1.18114e-05
-1.16627e-05
8.85262e-06
6.23912e-06
-6.29447e-06
9.09831e-06
9.69327e-07
-1.21501e-06
9.35242e-06
-4.31122e-06
4.0571e-06
9.44609e-06
-1.0816e-05
1.07224e-05
9.47783e-06
-1.74896e-05
1.74579e-05
9.41209e-06
-2.13579e-05
2.14236e-05
9.17987e-06
-2.2593e-05
2.28253e-05
8.9659e-06
-2.26522e-05
2.28662e-05
8.91498e-06
-2.1386e-05
2.14369e-05
8.78664e-06
-1.95969e-05
1.97252e-05
8.53813e-06
-1.87503e-05
1.89988e-05
8.39022e-06
-1.75457e-05
1.76936e-05
8.29374e-06
-1.4693e-05
1.47895e-05
8.08955e-06
-1.31191e-05
1.33233e-05
7.88105e-06
-1.37009e-05
1.39094e-05
7.63382e-06
-1.41238e-05
1.4371e-05
7.41035e-06
-1.24478e-05
1.26713e-05
7.26839e-06
-1.02616e-05
1.04035e-05
7.2138e-06
-1.13557e-05
1.14103e-05
7.22598e-06
-1.6024e-05
1.60118e-05
7.19631e-06
-2.08637e-05
2.08934e-05
7.16578e-06
-2.27657e-05
2.27962e-05
7.22106e-06
-2.37982e-05
2.3743e-05
7.22764e-06
-2.5062e-05
2.50555e-05
7.18804e-06
-2.55716e-05
2.56112e-05
7.15047e-06
-2.54387e-05
2.54763e-05
7.16714e-06
-2.4841e-05
2.48243e-05
7.22002e-06
-2.35176e-05
2.34648e-05
7.27201e-06
-2.08431e-05
2.07911e-05
7.43882e-06
-1.73346e-05
1.71678e-05
7.84611e-06
-1.48055e-05
1.43982e-05
8.29991e-06
-1.37627e-05
1.33089e-05
8.56466e-06
-1.17325e-05
1.14677e-05
8.66619e-06
-7.86597e-06
7.76444e-06
8.67555e-06
-3.77642e-06
3.76706e-06
8.6473e-06
-5.27263e-08
8.09734e-08
8.84111e-06
3.93698e-06
-4.13078e-06
9.2396e-06
8.27172e-06
-8.67022e-06
9.64641e-06
1.25889e-05
-1.29957e-05
9.98803e-06
1.64861e-05
-1.68277e-05
1.02644e-05
1.97438e-05
-2.00201e-05
1.04214e-05
2.25614e-05
-2.27185e-05
1.0623e-05
2.43298e-05
-2.45313e-05
1.08802e-05
2.50299e-05
-2.52872e-05
1.10529e-05
2.42295e-05
-2.44021e-05
1.10738e-05
2.22641e-05
-2.2285e-05
1.11992e-05
2.09885e-05
-2.11139e-05
1.17134e-05
2.07758e-05
-2.12901e-05
1.24747e-05
2.22317e-05
-2.2993e-05
1.33116e-05
2.39671e-05
-2.4804e-05
1.39179e-05
2.45539e-05
-2.51602e-05
1.42386e-05
2.38016e-05
-2.41224e-05
1.42444e-05
2.2067e-05
-2.20728e-05
1.39832e-05
1.90424e-05
-1.87812e-05
1.36609e-05
1.54337e-05
-1.51114e-05
1.32664e-05
1.27578e-05
-1.23633e-05
1.27423e-05
1.0228e-05
-9.7039e-06
1.23302e-05
7.71945e-06
-7.30739e-06
1.20275e-05
5.70103e-06
-5.39834e-06
1.18556e-05
4.18632e-06
-4.0144e-06
1.16186e-05
3.58377e-06
-3.34679e-06
1.11931e-05
2.5926e-06
-2.16704e-06
1.0865e-05
1.17884e-06
-8.50823e-07
1.09302e-05
1.24271e-06
-1.30789e-06
1.12777e-05
1.84973e-06
-2.19721e-06
1.14588e-05
2.18661e-06
-2.36769e-06
1.1359e-05
2.50084e-06
-2.40104e-06
1.13703e-05
1.845e-06
-1.85635e-06
1.14245e-05
1.0145e-06
-1.06871e-06
1.14094e-05
1.85675e-06
-1.84156e-06
1.14053e-05
1.77074e-06
-1.76673e-06
1.12623e-05
7.14408e-07
-5.71369e-07
1.11173e-05
-7.64194e-07
9.09193e-07
1.10479e-05
-3.03585e-06
3.10521e-06
1.08965e-05
-4.46353e-06
4.615e-06
1.08666e-05
-5.71059e-06
5.74046e-06
1.0836e-05
-7.30213e-06
7.3327e-06
1.08895e-05
-8.60282e-06
8.54931e-06
1.10332e-05
-1.00345e-05
9.89082e-06
1.11091e-05
-1.05941e-05
1.05183e-05
1.10421e-05
-1.04044e-05
1.04714e-05
1.09458e-05
-9.87783e-06
9.97409e-06
1.0851e-05
-8.75926e-06
8.85409e-06
1.05561e-05
-8.35686e-06
8.65176e-06
1.00359e-05
-7.44423e-06
7.96434e-06
9.5907e-06
-6.21688e-06
6.66212e-06
9.3229e-06
-6.67828e-06
6.94608e-06
9.21705e-06
-8.37153e-06
8.47738e-06
8.89655e-06
-8.92581e-06
9.24631e-06
8.53654e-06
-8.60969e-06
8.96971e-06
8.11714e-06
-8.87321e-06
9.2926e-06
7.82625e-06
-9.402e-06
9.6929e-06
7.72154e-06
-1.21155e-05
1.22202e-05
7.95978e-06
-1.44933e-05
1.4255e-05
8.24902e-06
-1.73231e-05
1.70339e-05
8.53795e-06
-2.00148e-05
1.97258e-05
8.9242e-06
-2.12706e-05
2.08843e-05
9.23335e-06
-2.04759e-05
2.01668e-05
9.58332e-06
-2.07436e-05
2.03936e-05
9.85186e-06
-2.06638e-05
2.03953e-05
1.00022e-05
-1.89219e-05
1.87715e-05
1.00519e-05
-1.59728e-05
1.59232e-05
9.99999e-06
-1.31972e-05
1.32491e-05
1.00471e-05
-1.04949e-05
1.04479e-05
1.02877e-05
-6.54144e-06
6.30079e-06
1.05571e-05
-2.70795e-06
2.43853e-06
1.06159e-05
6.67262e-08
-1.2554e-07
1.05736e-05
3.85482e-06
-3.81248e-06
1.05056e-05
8.68478e-06
-8.61676e-06
1.04378e-05
1.14157e-05
-1.1348e-05
1.04679e-05
1.39751e-05
-1.40051e-05
1.05582e-05
1.8894e-05
-1.89843e-05
1.05711e-05
2.28204e-05
-2.28332e-05
1.05025e-05
2.39636e-05
-2.38949e-05
1.03324e-05
2.47669e-05
-2.45968e-05
1.00924e-05
2.64235e-05
-2.61835e-05
9.77388e-06
2.81498e-05
-2.78312e-05
9.22726e-06
2.83566e-05
-2.781e-05
8.49954e-06
2.66359e-05
-2.59082e-05
7.94207e-06
2.35249e-05
-2.29674e-05
7.61721e-06
2.08919e-05
-2.0567e-05
7.38806e-06
1.88491e-05
-1.862e-05
7.23748e-06
1.70717e-05
-1.69211e-05
7.22084e-06
1.62001e-05
-1.61835e-05
7.23228e-06
1.69604e-05
-1.69718e-05
7.34489e-06
1.81008e-05
-1.82134e-05
7.46178e-06
1.94081e-05
-1.9525e-05
7.5277e-06
2.03763e-05
-2.04423e-05
7.9836e-06
2.05407e-05
-2.09966e-05
7.84168e-06
2.12444e-05
-2.11025e-05
8.7282e-06
1.77246e-05
-1.86111e-05
8.37938e-06
1.96422e-05
-1.92933e-05
8.93488e-06
1.26969e-05
-1.32524e-05
9.25008e-06
1.47917e-05
-1.51069e-05
1.02047e-05
6.99824e-06
-7.95288e-06
9.06631e-06
1.18381e-05
-1.06997e-05
1.06822e-05
-8.83647e-07
-7.32209e-07
1.025e-05
8.3168e-06
-7.88461e-06
1.02653e-05
-4.65132e-06
4.63603e-06
1.00774e-05
3.62941e-06
-3.44157e-06
1.02678e-05
-8.48115e-06
8.29078e-06
1.00709e-05
-3.92616e-07
5.89527e-07
1.05989e-05
-9.75151e-06
9.22352e-06
9.69855e-06
-2.39275e-06
3.29308e-06
1.01546e-05
-1.1767e-05
1.13109e-05
8.95047e-06
-2.98276e-06
4.18687e-06
9.02748e-06
-1.11125e-05
1.10354e-05
8.16464e-06
-3.03147e-06
3.89431e-06
7.82272e-06
-7.80787e-06
8.14979e-06
6.99491e-06
-1.03807e-07
9.31609e-07
8.21337e-06
-1.1699e-06
-4.85561e-08
1.23446e-05
-1.07219e-05
6.5907e-06
4.42261e-06
-1.21313e-06
4.00598e-06
-6.9792e-07
3.83019e-06
-3.22604e-07
4.94771e-06
1.43655e-06
6.66288e-06
4.0648e-06
8.03714e-06
5.82168e-06
9.84587e-06
6.43262e-06
1.13014e-05
5.13981e-06
1.23304e-05
5.03723e-06
1.36339e-05
4.17289e-06
1.42426e-05
6.41154e-07
1.45331e-05
-1.62757e-06
1.51575e-05
-3.08335e-06
1.53129e-05
-5.8674e-06
1.48599e-05
-7.82488e-06
1.48339e-05
-9.63127e-06
1.55285e-05
-1.26073e-05
1.6299e-05
-1.51457e-05
1.66222e-05
-1.70921e-05
1.63471e-05
-1.92579e-05
1.55288e-05
-1.91623e-05
1.46066e-05
-1.88107e-05
1.37084e-05
-1.88941e-05
1.27498e-05
-1.79496e-05
1.19075e-05
-1.70359e-05
1.12251e-05
-1.52196e-05
1.05109e-05
-1.4079e-05
1.00301e-05
-1.36302e-05
9.67563e-06
-1.13101e-05
8.97975e-06
-1.0074e-05
8.53032e-06
-9.98094e-06
8.17517e-06
-7.25147e-06
7.62773e-06
-4.48806e-06
7.3294e-06
-4.60659e-06
6.99342e-06
-5.81366e-06
7.36149e-06
-5.64037e-06
8.68558e-06
1.13249e-07
9.87521e-06
6.87474e-06
1.041e-05
1.09361e-05
1.10335e-05
1.8841e-05
1.17889e-05
2.74169e-05
1.18833e-05
3.39479e-05
1.1494e-05
3.47056e-05
1.09301e-05
3.01302e-05
1.0499e-05
2.58794e-05
1.00648e-05
2.26531e-05
9.7765e-06
1.79754e-05
9.66551e-06
1.19224e-05
9.68818e-06
6.21644e-06
9.8448e-06
8.12707e-07
1.00532e-05
-4.51964e-06
1.01311e-05
-1.08939e-05
1.01168e-05
-1.74753e-05
9.99892e-06
-2.124e-05
9.70685e-06
-2.2301e-05
9.43544e-06
-2.23808e-05
9.3301e-06
-2.12806e-05
9.17067e-06
-1.94374e-05
8.88016e-06
-1.84598e-05
8.67074e-06
-1.73363e-05
8.53013e-06
-1.45524e-05
8.27992e-06
-1.28689e-05
8.02921e-06
-1.34501e-05
7.74583e-06
-1.38404e-05
7.45713e-06
-1.21591e-05
7.23287e-06
-1.00373e-05
7.08362e-06
-1.12065e-05
7.01184e-06
-1.59522e-05
6.89117e-06
-2.07431e-05
6.841e-06
-2.27155e-05
6.85968e-06
-2.38169e-05
6.81498e-06
-2.50173e-05
6.70619e-06
-2.54628e-05
6.59087e-06
-2.53234e-05
6.58336e-06
-2.48335e-05
6.62861e-06
-2.35629e-05
6.68605e-06
-2.09006e-05
6.83879e-06
-1.74874e-05
7.18101e-06
-1.51477e-05
7.57871e-06
-1.41604e-05
7.82795e-06
-1.19817e-05
7.91821e-06
-7.95622e-06
7.86668e-06
-3.7249e-06
7.72455e-06
8.94053e-08
7.87041e-06
3.79113e-06
8.32931e-06
7.81281e-06
8.82333e-06
1.20948e-05
9.24305e-06
1.60664e-05
9.54758e-06
1.94393e-05
9.73694e-06
2.23721e-05
9.99538e-06
2.40714e-05
1.03066e-05
2.47187e-05
1.05779e-05
2.39581e-05
1.06955e-05
2.21465e-05
1.0831e-05
2.0853e-05
1.12364e-05
2.03705e-05
1.18937e-05
2.15744e-05
1.27037e-05
2.31571e-05
1.33662e-05
2.38914e-05
1.3796e-05
2.33718e-05
1.39345e-05
2.19285e-05
1.3789e-05
1.91879e-05
1.35647e-05
1.5658e-05
1.3263e-05
1.30594e-05
1.27893e-05
1.07018e-05
1.23804e-05