/*--------------------------------*- C++ -*----------------------------------*\
| =========                 |                                                 |
| \\      /  F ield         | OpenFOAM: The Open Source CFD Toolbox           |
|  \\    /   O peration     | Version:  2.4.0                                 |
|   \\  /    A nd           | Web:      www.OpenFOAM.org                      |
|    \\/     M anipulation  |                                                 |
\*---------------------------------------------------------------------------*/
FoamFile
{
    version     2.0;
    format      ascii;
    class       volScalarField;
    location    "0.211";
    object      pPrime2Mean;
}
// * * * * * * * * * * * * * * * * * * * * * * * * * * * * * * * * * * * * * //

dimensions      [0 4 -4 0 0 0 0];

internalField   nonuniform List<scalar> 
17600
(
3.06274e+06
2.98551e+06
2.90247e+06
2.82017e+06
2.73904e+06
2.6591e+06
2.58034e+06
2.50276e+06
2.42636e+06
2.35113e+06
2.27708e+06
2.20418e+06
2.13242e+06
2.06176e+06
1.99212e+06
1.92337e+06
1.85525e+06
1.78722e+06
1.71805e+06
1.64361e+06
3.0628e+06
2.9855e+06
2.90246e+06
2.82017e+06
2.73904e+06
2.6591e+06
2.58034e+06
2.50276e+06
2.42636e+06
2.35114e+06
2.27708e+06
2.20418e+06
2.13242e+06
2.06176e+06
1.99212e+06
1.92338e+06
1.85527e+06
1.78726e+06
1.71815e+06
1.64381e+06
3.06285e+06
2.9855e+06
2.90246e+06
2.82017e+06
2.73904e+06
2.6591e+06
2.58034e+06
2.50276e+06
2.42636e+06
2.35114e+06
2.27708e+06
2.20418e+06
2.13242e+06
2.06176e+06
1.99213e+06
1.9234e+06
1.85531e+06
1.78734e+06
1.71832e+06
1.64457e+06
3.06289e+06
2.98548e+06
2.90245e+06
2.82016e+06
2.73904e+06
2.6591e+06
2.58034e+06
2.50276e+06
2.42636e+06
2.35114e+06
2.27708e+06
2.20418e+06
2.13243e+06
2.06177e+06
1.99215e+06
1.92343e+06
1.85536e+06
1.78745e+06
1.7186e+06
1.64564e+06
3.06291e+06
2.98547e+06
2.90244e+06
2.82016e+06
2.73904e+06
2.6591e+06
2.58034e+06
2.50276e+06
2.42636e+06
2.35114e+06
2.27708e+06
2.20419e+06
2.13243e+06
2.06178e+06
1.99217e+06
1.92347e+06
1.85543e+06
1.7876e+06
1.71896e+06
1.64692e+06
3.06294e+06
2.98546e+06
2.90243e+06
2.82016e+06
2.73904e+06
2.6591e+06
2.58034e+06
2.50276e+06
2.42636e+06
2.35114e+06
2.27708e+06
2.20419e+06
2.13244e+06
2.06179e+06
1.99219e+06
1.92351e+06
1.85552e+06
1.78779e+06
1.71939e+06
1.64831e+06
3.06296e+06
2.98545e+06
2.90242e+06
2.82016e+06
2.73904e+06
2.6591e+06
2.58034e+06
2.50276e+06
2.42636e+06
2.35114e+06
2.27709e+06
2.20419e+06
2.13245e+06
2.06181e+06
1.99222e+06
1.92356e+06
1.85563e+06
1.788e+06
1.71988e+06
1.64977e+06
3.06299e+06
2.98544e+06
2.90241e+06
2.82015e+06
2.73904e+06
2.6591e+06
2.58034e+06
2.50276e+06
2.42636e+06
2.35114e+06
2.27709e+06
2.2042e+06
2.13246e+06
2.06183e+06
1.99225e+06
1.92362e+06
1.85575e+06
1.78825e+06
1.72043e+06
1.65127e+06
3.06301e+06
2.98544e+06
2.9024e+06
2.82015e+06
2.73904e+06
2.6591e+06
2.58034e+06
2.50276e+06
2.42636e+06
2.35114e+06
2.27709e+06
2.2042e+06
2.13247e+06
2.06184e+06
1.99229e+06
1.92369e+06
1.85588e+06
1.78851e+06
1.72102e+06
1.65276e+06
3.06303e+06
2.98543e+06
2.9024e+06
2.82015e+06
2.73904e+06
2.6591e+06
2.58034e+06
2.50276e+06
2.42636e+06
2.35114e+06
2.27709e+06
2.20421e+06
2.13248e+06
2.06187e+06
1.99233e+06
1.92377e+06
1.85602e+06
1.7888e+06
1.72165e+06
1.65424e+06
3.06304e+06
2.98543e+06
2.90239e+06
2.82015e+06
2.73904e+06
2.6591e+06
2.58034e+06
2.50276e+06
2.42636e+06
2.35114e+06
2.2771e+06
2.20422e+06
2.13249e+06
2.06189e+06
1.99237e+06
1.92385e+06
1.85618e+06
1.78911e+06
1.7223e+06
1.65569e+06
3.06306e+06
2.98543e+06
2.90238e+06
2.82014e+06
2.73904e+06
2.6591e+06
2.58034e+06
2.50276e+06
2.42636e+06
2.35114e+06
2.2771e+06
2.20422e+06
2.1325e+06
2.06191e+06
1.99241e+06
1.92393e+06
1.85634e+06
1.78943e+06
1.72296e+06
1.65711e+06
3.06307e+06
2.98543e+06
2.90238e+06
2.82014e+06
2.73904e+06
2.6591e+06
2.58034e+06
2.50276e+06
2.42636e+06
2.35115e+06
2.2771e+06
2.20423e+06
2.13252e+06
2.06194e+06
1.99246e+06
1.92402e+06
1.85651e+06
1.78977e+06
1.72364e+06
1.65849e+06
3.06308e+06
2.98543e+06
2.90237e+06
2.82014e+06
2.73904e+06
2.6591e+06
2.58034e+06
2.50276e+06
2.42636e+06
2.35115e+06
2.27711e+06
2.20424e+06
2.13253e+06
2.06197e+06
1.99251e+06
1.92412e+06
1.85669e+06
1.79012e+06
1.72432e+06
1.65981e+06
3.06309e+06
2.98542e+06
2.90237e+06
2.82013e+06
2.73904e+06
2.6591e+06
2.58034e+06
2.50276e+06
2.42636e+06
2.35115e+06
2.27711e+06
2.20425e+06
2.13255e+06
2.062e+06
1.99257e+06
1.92422e+06
1.85688e+06
1.79047e+06
1.725e+06
1.6611e+06
3.0631e+06
2.98542e+06
2.90236e+06
2.82013e+06
2.73904e+06
2.6591e+06
2.58034e+06
2.50276e+06
2.42637e+06
2.35115e+06
2.27712e+06
2.20426e+06
2.13256e+06
2.06203e+06
1.99262e+06
1.92432e+06
1.85707e+06
1.79082e+06
1.72567e+06
1.66232e+06
3.0631e+06
2.98542e+06
2.90236e+06
2.82013e+06
2.73904e+06
2.6591e+06
2.58034e+06
2.50276e+06
2.42637e+06
2.35116e+06
2.27712e+06
2.20427e+06
2.13258e+06
2.06206e+06
1.99268e+06
1.92442e+06
1.85726e+06
1.79118e+06
1.72634e+06
1.6635e+06
3.06311e+06
2.98542e+06
2.90236e+06
2.82013e+06
2.73904e+06
2.6591e+06
2.58034e+06
2.50276e+06
2.42637e+06
2.35116e+06
2.27713e+06
2.20428e+06
2.1326e+06
2.06209e+06
1.99274e+06
1.92453e+06
1.85745e+06
1.79154e+06
1.72699e+06
1.66462e+06
3.06311e+06
2.98542e+06
2.90236e+06
2.82013e+06
2.73904e+06
2.6591e+06
2.58034e+06
2.50276e+06
2.42637e+06
2.35116e+06
2.27713e+06
2.20428e+06
2.13261e+06
2.06212e+06
1.99279e+06
1.92463e+06
1.85765e+06
1.7919e+06
1.72763e+06
1.66569e+06
3.06311e+06
2.98542e+06
2.90236e+06
2.82013e+06
2.73904e+06
2.6591e+06
2.58034e+06
2.50276e+06
2.42637e+06
2.35116e+06
2.27714e+06
2.20429e+06
2.13263e+06
2.06215e+06
1.99285e+06
1.92474e+06
1.85784e+06
1.79225e+06
1.72825e+06
1.66671e+06
3.06311e+06
2.98542e+06
2.90236e+06
2.82013e+06
2.73904e+06
2.6591e+06
2.58034e+06
2.50276e+06
2.42637e+06
2.35117e+06
2.27714e+06
2.2043e+06
2.13265e+06
2.06218e+06
1.99291e+06
1.92485e+06
1.85803e+06
1.79259e+06
1.72885e+06
1.66767e+06
3.06311e+06
2.98542e+06
2.90236e+06
2.82013e+06
2.73904e+06
2.6591e+06
2.58034e+06
2.50276e+06
2.42637e+06
2.35117e+06
2.27715e+06
2.20431e+06
2.13267e+06
2.06221e+06
1.99297e+06
1.92495e+06
1.85822e+06
1.79293e+06
1.72942e+06
1.66858e+06
3.06311e+06
2.98542e+06
2.90236e+06
2.82013e+06
2.73904e+06
2.6591e+06
2.58034e+06
2.50277e+06
2.42638e+06
2.35117e+06
2.27715e+06
2.20432e+06
2.13268e+06
2.06225e+06
1.99302e+06
1.92505e+06
1.85841e+06
1.79325e+06
1.72998e+06
1.66944e+06
3.0631e+06
2.98542e+06
2.90236e+06
2.82013e+06
2.73904e+06
2.6591e+06
2.58034e+06
2.50277e+06
2.42638e+06
2.35117e+06
2.27716e+06
2.20433e+06
2.1327e+06
2.06228e+06
1.99308e+06
1.92515e+06
1.85859e+06
1.79356e+06
1.7305e+06
1.67025e+06
3.0631e+06
2.98542e+06
2.90236e+06
2.82013e+06
2.73904e+06
2.6591e+06
2.58034e+06
2.50277e+06
2.42638e+06
2.35118e+06
2.27716e+06
2.20434e+06
2.13272e+06
2.06231e+06
1.99313e+06
1.92525e+06
1.85876e+06
1.79387e+06
1.731e+06
1.671e+06
3.06309e+06
2.98543e+06
2.90237e+06
2.82014e+06
2.73904e+06
2.6591e+06
2.58034e+06
2.50277e+06
2.42638e+06
2.35118e+06
2.27717e+06
2.20435e+06
2.13273e+06
2.06233e+06
1.99319e+06
1.92534e+06
1.85893e+06
1.79415e+06
1.73148e+06
1.67171e+06
3.06308e+06
2.98543e+06
2.90237e+06
2.82014e+06
2.73904e+06
2.6591e+06
2.58034e+06
2.50277e+06
2.42638e+06
2.35118e+06
2.27717e+06
2.20436e+06
2.13275e+06
2.06236e+06
1.99324e+06
1.92543e+06
1.85908e+06
1.79443e+06
1.73192e+06
1.67236e+06
3.06307e+06
2.98543e+06
2.90238e+06
2.82014e+06
2.73904e+06
2.6591e+06
2.58035e+06
2.50277e+06
2.42639e+06
2.35119e+06
2.27718e+06
2.20437e+06
2.13276e+06
2.06239e+06
1.99328e+06
1.92552e+06
1.85924e+06
1.79468e+06
1.73233e+06
1.67297e+06
3.06306e+06
2.98543e+06
2.90238e+06
2.82014e+06
2.73904e+06
2.6591e+06
2.58035e+06
2.50277e+06
2.42639e+06
2.35119e+06
2.27718e+06
2.20437e+06
2.13278e+06
2.06241e+06
1.99333e+06
1.9256e+06
1.85938e+06
1.79492e+06
1.73272e+06
1.67352e+06
3.06304e+06
2.98543e+06
2.90239e+06
2.82015e+06
2.73904e+06
2.6591e+06
2.58035e+06
2.50277e+06
2.42639e+06
2.35119e+06
2.27719e+06
2.20438e+06
2.13279e+06
2.06244e+06
1.99337e+06
1.92568e+06
1.85951e+06
1.79514e+06
1.73307e+06
1.67403e+06
3.06303e+06
2.98543e+06
2.9024e+06
2.82015e+06
2.73904e+06
2.6591e+06
2.58035e+06
2.50278e+06
2.42639e+06
2.35119e+06
2.27719e+06
2.20439e+06
2.1328e+06
2.06246e+06
1.99341e+06
1.92575e+06
1.85963e+06
1.79535e+06
1.73339e+06
1.6745e+06
3.06301e+06
2.98544e+06
2.90241e+06
2.82015e+06
2.73904e+06
2.6591e+06
2.58035e+06
2.50278e+06
2.42639e+06
2.3512e+06
2.27719e+06
2.20439e+06
2.13281e+06
2.06248e+06
1.99345e+06
1.92581e+06
1.85974e+06
1.79553e+06
1.73368e+06
1.67491e+06
3.06299e+06
2.98545e+06
2.90241e+06
2.82016e+06
2.73904e+06
2.6591e+06
2.58035e+06
2.50278e+06
2.42639e+06
2.3512e+06
2.2772e+06
2.2044e+06
2.13282e+06
2.0625e+06
1.99348e+06
1.92587e+06
1.85984e+06
1.7957e+06
1.73394e+06
1.67528e+06
3.06297e+06
2.98545e+06
2.90242e+06
2.82016e+06
2.73904e+06
2.65911e+06
2.58035e+06
2.50278e+06
2.4264e+06
2.3512e+06
2.2772e+06
2.20441e+06
2.13283e+06
2.06251e+06
1.99351e+06
1.92592e+06
1.85993e+06
1.79584e+06
1.73417e+06
1.6756e+06
3.06294e+06
2.98546e+06
2.90243e+06
2.82016e+06
2.73904e+06
2.65911e+06
2.58035e+06
2.50278e+06
2.4264e+06
2.3512e+06
2.2772e+06
2.20441e+06
2.13284e+06
2.06253e+06
1.99353e+06
1.92596e+06
1.86e+06
1.79597e+06
1.73436e+06
1.67588e+06
3.06291e+06
2.98547e+06
2.90244e+06
2.82016e+06
2.73904e+06
2.65911e+06
2.58035e+06
2.50278e+06
2.4264e+06
2.3512e+06
2.27721e+06
2.20441e+06
2.13285e+06
2.06254e+06
1.99355e+06
1.926e+06
1.86007e+06
1.79608e+06
1.73453e+06
1.6761e+06
3.06289e+06
2.98548e+06
2.90245e+06
2.82017e+06
2.73904e+06
2.65911e+06
2.58035e+06
2.50278e+06
2.4264e+06
2.35121e+06
2.27721e+06
2.20442e+06
2.13285e+06
2.06255e+06
1.99357e+06
1.92603e+06
1.86012e+06
1.79616e+06
1.73466e+06
1.67629e+06
3.06285e+06
2.9855e+06
2.90246e+06
2.82017e+06
2.73905e+06
2.65911e+06
2.58035e+06
2.50278e+06
2.4264e+06
2.35121e+06
2.27721e+06
2.20442e+06
2.13286e+06
2.06256e+06
1.99358e+06
1.92605e+06
1.86016e+06
1.79622e+06
1.73475e+06
1.67642e+06
3.06281e+06
2.98551e+06
2.90247e+06
2.82017e+06
2.73905e+06
2.65911e+06
2.58036e+06
2.50278e+06
2.4264e+06
2.35121e+06
2.27721e+06
2.20442e+06
2.13286e+06
2.06256e+06
1.99359e+06
1.92607e+06
1.86018e+06
1.79627e+06
1.73482e+06
1.67651e+06
3.06274e+06
2.98551e+06
2.90247e+06
2.82017e+06
2.73905e+06
2.65911e+06
2.58036e+06
2.50278e+06
2.4264e+06
2.35121e+06
2.27721e+06
2.20442e+06
2.13286e+06
2.06256e+06
1.9936e+06
1.92608e+06
1.8602e+06
1.79629e+06
1.73485e+06
1.67656e+06
1.57311e+06
1.55624e+06
1.54319e+06
1.53176e+06
1.52106e+06
1.51083e+06
1.50094e+06
1.4913e+06
1.48185e+06
1.47257e+06
1.4634e+06
1.45433e+06
1.44534e+06
1.43641e+06
1.42753e+06
1.4187e+06
1.40991e+06
1.40116e+06
1.39244e+06
1.38376e+06
1.37511e+06
1.36649e+06
1.35789e+06
1.34932e+06
1.34076e+06
1.33222e+06
1.3237e+06
1.31521e+06
1.30675e+06
1.29832e+06
1.28993e+06
1.28156e+06
1.27323e+06
1.26493e+06
1.25667e+06
1.24844e+06
1.24025e+06
1.23209e+06
1.22396e+06
1.21586e+06
1.2078e+06
1.19977e+06
1.19178e+06
1.18381e+06
1.17587e+06
1.16795e+06
1.16007e+06
1.15221e+06
1.14438e+06
1.13658e+06
1.12881e+06
1.12107e+06
1.11335e+06
1.10568e+06
1.09803e+06
1.09041e+06
1.08283e+06
1.07527e+06
1.06774e+06
1.06025e+06
1.05278e+06
1.04533e+06
1.03792e+06
1.03053e+06
1.02317e+06
1.01583e+06
1.00852e+06
1.00123e+06
993960
986720
979507
972321
965163
958034
950933
943861
936812
929785
922780
915795
908826
901874
894939
888023
881127
874254
867404
860578
853776
846999
840249
833526
826832
820168
813535
806932
800359
793817
787305
780825
774375
767955
761563
755198
748860
742548
736261
730000
723766
717556
711372
705213
699081
692975
686897
680847
674825
668834
662871
656938
651035
645161
639317
633502
627715
621956
616223
610519
604841
599187
593560
587956
582377
576821
571291
565784
560302
554845
549413
544007
538626
533272
527945
522646
517375
512131
506915
501727
496565
491430
486320
481236
476178
471145
466138
461157
456203
451277
446379
441509
436666
431851
427064
422305
417572
412865
408184
403528
398896
394289
389705
385147
380612
376105
371619
367164
362723
358320
353921
349566
345205
340892
336568
332293
328007
323762
319507
315286
311051
306840
302610
298388
294132
289858
285521
281115
276578
271867
266765
261198
1.58111e+06
1.56273e+06
1.5483e+06
1.53593e+06
1.52459e+06
1.51388e+06
1.50359e+06
1.49363e+06
1.48391e+06
1.47439e+06
1.46503e+06
1.45578e+06
1.44663e+06
1.43757e+06
1.42857e+06
1.41963e+06
1.41074e+06
1.4019e+06
1.3931e+06
1.38435e+06
1.37564e+06
1.36696e+06
1.35831e+06
1.34969e+06
1.34109e+06
1.33252e+06
1.32397e+06
1.31546e+06
1.30697e+06
1.29852e+06
1.2901e+06
1.28172e+06
1.27337e+06
1.26506e+06
1.25678e+06
1.24854e+06
1.24033e+06
1.23216e+06
1.22403e+06
1.21592e+06
1.20786e+06
1.19982e+06
1.19182e+06
1.18385e+06
1.17591e+06
1.168e+06
1.16011e+06
1.15225e+06
1.14442e+06
1.13662e+06
1.12885e+06
1.12111e+06
1.1134e+06
1.10572e+06
1.09807e+06
1.09046e+06
1.08287e+06
1.07532e+06
1.06779e+06
1.0603e+06
1.05283e+06
1.04539e+06
1.03798e+06
1.03059e+06
1.02323e+06
1.01589e+06
1.00857e+06
1.00128e+06
994013
986773
979559
972372
965214
958085
950985
943912
936862
929834
922827
915839
908867
901911
894971
888051
881152
874276
867424
860595
853790
847012
840261
833537
826842
820177
813543
806939
800366
793824
787312
780831
774380
767960
761567
755202
748862
742549
736262
730002
723767
717558
711374
705216
699085
692979
686902
680852
674831
668839
662878
656945
651042
645168
639324
633509
627722
621963
616231
610526
604847
599193
593565
587961
582381
576825
571294
565786
560303
554845
549412
544005
538623
533269
527941
522640
517368
512123
506906
501717
496554
491417
486306
481220
476159
471124
466113
461128
456171
451241
446338
441463
436614
431794
427001
422236
417495
412781
408092
403428
398787
394170
389575
385007
380457
375938
371434
366963
362502
358079
353655
349275
344886
340542
336185
331870
327544
323252
318947
314667
310369
306086
301775
297460
293098
288698
284211
279620
274846
269805
264229
257665
1.58743e+06
1.56843e+06
1.5531e+06
1.53996e+06
1.52804e+06
1.51687e+06
1.50621e+06
1.49594e+06
1.48596e+06
1.47621e+06
1.46664e+06
1.45722e+06
1.44792e+06
1.43872e+06
1.4296e+06
1.42055e+06
1.41156e+06
1.40264e+06
1.39376e+06
1.38494e+06
1.37616e+06
1.36742e+06
1.35872e+06
1.35005e+06
1.34142e+06
1.33281e+06
1.32424e+06
1.3157e+06
1.30719e+06
1.29872e+06
1.29028e+06
1.28188e+06
1.27351e+06
1.26518e+06
1.25689e+06
1.24864e+06
1.24042e+06
1.23224e+06
1.2241e+06
1.21599e+06
1.20791e+06
1.19988e+06
1.19187e+06
1.1839e+06
1.17596e+06
1.16805e+06
1.16016e+06
1.1523e+06
1.14447e+06
1.13667e+06
1.1289e+06
1.12116e+06
1.11345e+06
1.10577e+06
1.09812e+06
1.0905e+06
1.08292e+06
1.07536e+06
1.06784e+06
1.06035e+06
1.05288e+06
1.04544e+06
1.03803e+06
1.03064e+06
1.02328e+06
1.01594e+06
1.00862e+06
1.00133e+06
994061
986820
979605
972418
965259
958129
951030
943956
936905
929876
922867
915875
908900
901940
894996
888072
881170
874291
867435
860604
853798
847018
840266
833542
826846
820181
813546
806942
800369
793826
787314
780833
774382
767961
761568
755201
748861
742547
736260
729999
723765
717556
711373
705216
699085
692980
686904
680855
674834
668843
662882
656949
651047
645174
639330
633514
627727
621968
616236
610530
604852
599197
593568
587963
582382
576826
571293
565785
560301
554842
549408
544000
538617
533261
527933
522631
517358
512112
506895
501705
496541
491403
486290
481203
476139
471101
466087
461099
456137
451202
446295
441415
436562
431736
426937
422165
417417
412696
407998
403326
398676
394050
389444
384864
380301
375768
371248
366761
362280
357837
353390
348984
344568
340191
335804
331450
327085
322745
318391
314054
309696
305340
300952
296545
292082
287561
282933
278171
273186
267866
261938
254848
1.59261e+06
1.57348e+06
1.55758e+06
1.54382e+06
1.53138e+06
1.51979e+06
1.50878e+06
1.49821e+06
1.48797e+06
1.478e+06
1.46824e+06
1.45865e+06
1.4492e+06
1.43986e+06
1.43062e+06
1.42146e+06
1.41238e+06
1.40336e+06
1.39441e+06
1.38552e+06
1.37667e+06
1.36788e+06
1.35913e+06
1.35042e+06
1.34175e+06
1.33311e+06
1.3245e+06
1.31594e+06
1.30741e+06
1.29891e+06
1.29045e+06
1.28203e+06
1.27365e+06
1.26531e+06
1.257e+06
1.24874e+06
1.24051e+06
1.23232e+06
1.22417e+06
1.21605e+06
1.20798e+06
1.19993e+06
1.19193e+06
1.18396e+06
1.17601e+06
1.1681e+06
1.16021e+06
1.15236e+06
1.14452e+06
1.13672e+06
1.12895e+06
1.12121e+06
1.11349e+06
1.10581e+06
1.09816e+06
1.09055e+06
1.08296e+06
1.07541e+06
1.06789e+06
1.0604e+06
1.05293e+06
1.04549e+06
1.03808e+06
1.03069e+06
1.02333e+06
1.01598e+06
1.00867e+06
1.00137e+06
994103
986860
979644
972456
965297
958167
951067
943992
936940
929909
922898
915903
908924
901960
895013
888085
881179
874297
867439
860605
853798
847018
840265
833541
826845
820180
813544
806940
800366
793824
787312
780830
774379
767957
761563
755195
748855
742541
736254
729993
723759
717551
711368
705212
699081
692978
686902
680854
674835
668844
662883
656951
651049
645176
639333
633518
627730
621971
616239
610533
604853
599198
593568
587962
582380
576823
571290
565780
560295
554835
549400
543991
538608
533251
527921
522619
517345
512099
506880
501689
496524
491386
486271
481183
476117
471076
466059
461067
456101
451163
446251
441366
436507
431676
426871
422092
417338
412609
407903
403223
398563
393928
389310
384720
380143
375597
371060
366558
362057
357594
353125
348693
344252
339842
335426
331032
326629
322242
317841
313447
309031
304605
300144
295648
291089
286452
281694
276774
271605
266058
259881
252611
1.59703e+06
1.57796e+06
1.56172e+06
1.54747e+06
1.5346e+06
1.52262e+06
1.51129e+06
1.50043e+06
1.48995e+06
1.47976e+06
1.46981e+06
1.46005e+06
1.45045e+06
1.44098e+06
1.43162e+06
1.42236e+06
1.41318e+06
1.40408e+06
1.39505e+06
1.38609e+06
1.37718e+06
1.36833e+06
1.35953e+06
1.35078e+06
1.34207e+06
1.3334e+06
1.32477e+06
1.31617e+06
1.30762e+06
1.2991e+06
1.29063e+06
1.28219e+06
1.27379e+06
1.26543e+06
1.25712e+06
1.24884e+06
1.2406e+06
1.2324e+06
1.22425e+06
1.21613e+06
1.20804e+06
1.2e+06
1.19199e+06
1.18401e+06
1.17607e+06
1.16816e+06
1.16027e+06
1.15241e+06
1.14458e+06
1.13677e+06
1.129e+06
1.12125e+06
1.11354e+06
1.10586e+06
1.09821e+06
1.09059e+06
1.08301e+06
1.07546e+06
1.06793e+06
1.06044e+06
1.05298e+06
1.04554e+06
1.03813e+06
1.03074e+06
1.02337e+06
1.01603e+06
1.00871e+06
1.00141e+06
994139
986895
979677
972487
965327
958197
951096
944020
936967
929934
922920
915923
908940
901972
895021
888089
881181
874296
867435
860600
853791
847010
840257
833533
826838
820173
813537
806932
800359
793816
787305
780823
774371
767949
761554
755186
748845
742531
736244
729984
723750
717542
711360
705204
699074
692972
686897
680850
674832
668842
662882
656950
651049
645176
639333
633518
627731
621971
616239
610532
604852
599195
593565
587957
582375
576816
571282
565772
560286
554825
549389
543979
538595
533237
527907
522604
517329
512082
506863
501671
496506
491366
486250
481160
476093
471049
466029
461034
456064
451121
446205
441315
436451
431615
426803
422018
417257
412521
407807
403118
398449
393805
389176
384575
379985
375425
370873
366353
361834
357350
352860
348401
343937
339495
335049
330617
326177
321744
317297
312848
308376
303881
299349
294768
290118
285373
280496
275436
270108
264388
258053
250771
1.60085e+06
1.58198e+06
1.56553e+06
1.55093e+06
1.53768e+06
1.52536e+06
1.51373e+06
1.5026e+06
1.49188e+06
1.48149e+06
1.47135e+06
1.46143e+06
1.45168e+06
1.44208e+06
1.4326e+06
1.42324e+06
1.41397e+06
1.40479e+06
1.39568e+06
1.38665e+06
1.37769e+06
1.36878e+06
1.35993e+06
1.35114e+06
1.34239e+06
1.33369e+06
1.32503e+06
1.31641e+06
1.30783e+06
1.2993e+06
1.2908e+06
1.28235e+06
1.27394e+06
1.26556e+06
1.25723e+06
1.24894e+06
1.2407e+06
1.23249e+06
1.22433e+06
1.2162e+06
1.20812e+06
1.20007e+06
1.19205e+06
1.18408e+06
1.17613e+06
1.16822e+06
1.16033e+06
1.15247e+06
1.14463e+06
1.13683e+06
1.12905e+06
1.1213e+06
1.11359e+06
1.1059e+06
1.09825e+06
1.09064e+06
1.08305e+06
1.0755e+06
1.06798e+06
1.06049e+06
1.05302e+06
1.04558e+06
1.03817e+06
1.03078e+06
1.02341e+06
1.01606e+06
1.00874e+06
1.00144e+06
994169
986922
979702
972511
965350
958219
951117
944039
936984
929950
922934
915933
908947
901975
895020
888085
881174
874287
867424
860587
853778
846996
840243
833520
826825
820160
813524
806920
800347
793804
787292
780811
774359
767936
761540
755172
748831
742517
736231
729971
723737
717529
711348
705192
699064
692962
686889
680842
674825
668836
662876
656946
651045
645173
639330
633515
627728
621968
616236
610528
604847
599189
593558
587949
582366
576806
571271
565760
560274
554811
549375
543963
538578
533220
527889
522585
517310
512062
506843
501650
496484
491343
486227
481135
476066
471020
465997
460998
456025
451078
446157
441262
436394
431552
426734
421943
417175
412432
407711
403013
398334
393681
389041
384428
379826
375252
370685
366148
361611
357105
352595
348111
343623
339151
334674
330205
325729
321251
316760
312256
307729
303169
298570
293907
289173
284327
279342
274158
268697
262849
256428
249210
1.60423e+06
1.58559e+06
1.56903e+06
1.55418e+06
1.54062e+06
1.528e+06
1.51609e+06
1.50472e+06
1.49378e+06
1.48318e+06
1.47287e+06
1.46278e+06
1.45289e+06
1.44317e+06
1.43358e+06
1.42411e+06
1.41475e+06
1.40549e+06
1.39631e+06
1.38721e+06
1.37819e+06
1.36923e+06
1.36033e+06
1.35149e+06
1.34271e+06
1.33397e+06
1.32528e+06
1.31664e+06
1.30804e+06
1.29949e+06
1.29097e+06
1.28251e+06
1.27408e+06
1.26569e+06
1.25735e+06
1.24905e+06
1.2408e+06
1.23258e+06
1.22441e+06
1.21629e+06
1.2082e+06
1.20014e+06
1.19212e+06
1.18414e+06
1.1762e+06
1.16828e+06
1.16039e+06
1.15252e+06
1.14469e+06
1.13688e+06
1.1291e+06
1.12135e+06
1.11363e+06
1.10595e+06
1.0983e+06
1.09068e+06
1.08309e+06
1.07554e+06
1.06802e+06
1.06053e+06
1.05306e+06
1.04562e+06
1.03821e+06
1.03081e+06
1.02344e+06
1.01609e+06
1.00877e+06
1.00147e+06
994191
986941
979720
972527
965365
958233
951129
944050
936994
929957
922939
915935
908945
901970
895011
888073
881159
874270
867405
860568
853758
846976
840223
833500
826806
820142
813507
806903
800330
793787
787276
780794
774342
767919
761522
755154
748813
742500
736214
729955
723721
717513
711332
705177
699050
692949
686876
680831
674814
668826
662867
656937
651037
645166
639323
633508
627721
621961
616228
610519
604838
599179
593546
587937
582353
576792
571257
565745
560258
554794
549357
543945
538559
533200
527868
522564
517288
512040
506820
501627
496460
491317
486200
481106
476035
470988
465962
460961
455983
451032
446107
441208
436335
431488
426664
421867
417093
412343
407614
402908
398220
393556
388906
384282
379667
375079
370497
365943
361389
356861
352332
347822
343310
338808
334302
329797
325285
320764
316231
311674
307094
302470
297806
293067
288253
283315
278232
272942
267372
261431
254978
247853
1.60724e+06
1.58885e+06
1.57227e+06
1.55723e+06
1.54342e+06
1.53054e+06
1.51838e+06
1.50677e+06
1.49562e+06
1.48483e+06
1.47435e+06
1.46411e+06
1.45409e+06
1.44423e+06
1.43454e+06
1.42497e+06
1.41552e+06
1.40618e+06
1.39693e+06
1.38777e+06
1.37868e+06
1.36967e+06
1.36073e+06
1.35185e+06
1.34303e+06
1.33426e+06
1.32554e+06
1.31687e+06
1.30825e+06
1.29968e+06
1.29115e+06
1.28266e+06
1.27422e+06
1.26582e+06
1.25747e+06
1.24916e+06
1.2409e+06
1.23268e+06
1.22451e+06
1.21637e+06
1.20828e+06
1.20022e+06
1.1922e+06
1.18421e+06
1.17626e+06
1.16834e+06
1.16045e+06
1.15258e+06
1.14474e+06
1.13693e+06
1.12915e+06
1.1214e+06
1.11368e+06
1.10599e+06
1.09834e+06
1.09072e+06
1.08313e+06
1.07558e+06
1.06806e+06
1.06056e+06
1.0531e+06
1.04566e+06
1.03824e+06
1.03084e+06
1.02347e+06
1.01612e+06
1.00879e+06
1.00149e+06
994206
986954
979729
972535
965372
958238
951133
944052
936994
929956
922935
915927
908934
901955
894992
888052
881136
874245
867380
860542
853732
846950
840198
833475
826782
820118
813484
806881
800308
793766
787255
780774
774322
767897
761501
755133
748793
742480
736195
729935
723702
717494
711313
705159
699032
692932
686860
680815
674799
668811
662854
656924
651025
645154
639311
633496
627710
621949
616216
610506
604824
599164
593531
587920
582336
576775
571239
565726
560239
554774
549337
543923
538537
533177
527845
522540
517264
512015
506795
501601
496432
491289
486170
481074
476002
470952
465925
460921
455940
450985
446055
441152
436274
431422
426594
421791
417010
412253
407516
402802
398105
393432
388771
384135
379508
374906
370310
365738
361168
356618
352070
347534
342999
338468
333933
329394
324847
320284
315709
311101
306471
301786
297061
292250
287361
282338
277169
271787
266131
260126
253676
246650
1.60996e+06
1.59182e+06
1.57526e+06
1.56009e+06
1.54608e+06
1.53297e+06
1.52058e+06
1.50877e+06
1.49742e+06
1.48645e+06
1.4758e+06
1.46542e+06
1.45526e+06
1.44529e+06
1.43548e+06
1.42582e+06
1.41628e+06
1.40686e+06
1.39754e+06
1.38832e+06
1.37917e+06
1.37011e+06
1.36112e+06
1.3522e+06
1.34334e+06
1.33454e+06
1.3258e+06
1.3171e+06
1.30846e+06
1.29987e+06
1.29132e+06
1.28282e+06
1.27437e+06
1.26596e+06
1.2576e+06
1.24928e+06
1.24101e+06
1.23278e+06
1.2246e+06
1.21646e+06
1.20836e+06
1.2003e+06
1.19228e+06
1.18429e+06
1.17633e+06
1.16841e+06
1.16051e+06
1.15264e+06
1.1448e+06
1.13698e+06
1.1292e+06
1.12144e+06
1.11372e+06
1.10603e+06
1.09838e+06
1.09076e+06
1.08317e+06
1.07561e+06
1.06809e+06
1.06059e+06
1.05313e+06
1.04569e+06
1.03827e+06
1.03087e+06
1.02349e+06
1.01614e+06
1.00881e+06
1.0015e+06
994215
986959
979732
972535
965371
958236
951129
944047
936987
929947
922923
915911
908914
901932
894966
888023
881105
874213
867348
860510
853700
846918
840167
833445
826752
820090
813456
806854
800282
793740
787230
780749
774298
767873
761477
755108
748769
742457
736172
729913
723680
717472
711291
705137
699011
692911
686840
680795
674780
668793
662836
656907
651008
645137
639295
633480
627694
621933
616199
610489
604806
599145
593511
587900
582316
576754
571218
565704
560217
554752
549313
543899
538513
533151
527819
522513
517237
511988
506767
501572
496403
491258
486137
481040
475966
470914
465885
460878
455894
450935
446001
441094
436212
431355
426522
421713
416927
412163
407419
402697
397990
393307
388637
383988
379350
374734
370123
365534
360948
356376
351810
347249
342691
338131
333568
328995
324415
319811
315196
310539
305860
301117
296334
291455
286498
281398
276153
270694
264975
258925
252491
245561
1.61244e+06
1.59455e+06
1.57803e+06
1.56277e+06
1.54859e+06
1.53529e+06
1.5227e+06
1.5107e+06
1.49916e+06
1.48803e+06
1.47722e+06
1.4667e+06
1.45641e+06
1.44632e+06
1.43641e+06
1.42666e+06
1.41704e+06
1.40754e+06
1.39815e+06
1.38886e+06
1.37966e+06
1.37055e+06
1.36152e+06
1.35255e+06
1.34366e+06
1.33482e+06
1.32605e+06
1.31733e+06
1.30867e+06
1.30006e+06
1.29149e+06
1.28298e+06
1.27451e+06
1.2661e+06
1.25772e+06
1.2494e+06
1.24112e+06
1.23289e+06
1.2247e+06
1.21656e+06
1.20846e+06
1.20039e+06
1.19236e+06
1.18437e+06
1.1764e+06
1.16847e+06
1.16057e+06
1.1527e+06
1.14485e+06
1.13703e+06
1.12924e+06
1.12149e+06
1.11377e+06
1.10607e+06
1.09842e+06
1.09079e+06
1.0832e+06
1.07564e+06
1.06812e+06
1.06062e+06
1.05315e+06
1.04571e+06
1.03829e+06
1.03089e+06
1.02351e+06
1.01615e+06
1.00882e+06
1.0015e+06
994216
986957
979727
972529
965363
958227
951118
944034
936973
929930
922903
915888
908887
901901
894932
887987
881068
874176
867311
860473
853663
846882
840131
833410
826718
820056
813424
806823
800251
793711
787202
780722
774271
767847
761450
755081
748742
742430
736146
729888
723654
717447
711266
705112
698986
692887
686816
680772
674757
668770
662813
656885
650986
645115
639274
633459
627673
621912
616178
610467
604783
599122
593488
587876
582291
576729
571193
565679
560192
554726
549287
543872
538485
533124
527791
522484
517208
511958
506737
501541
496371
491224
486103
481003
475927
470873
465841
460832
455846
450883
445946
441034
436148
431287
426449
421635
416843
412073
407321
402591
397876
393183
388502
383842
379193
374562
369938
365331
360730
356138
351553
346967
342387
337798
333209
328602
323990
319347
314692
309989
305263
300466
295627
290687
285665
280499
275186
269662
263898
257817
251403
244563
1.61474e+06
1.59705e+06
1.5806e+06
1.56528e+06
1.55097e+06
1.53751e+06
1.52474e+06
1.51256e+06
1.50086e+06
1.48956e+06
1.47861e+06
1.46795e+06
1.45754e+06
1.44734e+06
1.43733e+06
1.42748e+06
1.41778e+06
1.40821e+06
1.39875e+06
1.3894e+06
1.38015e+06
1.37099e+06
1.36191e+06
1.3529e+06
1.34397e+06
1.33511e+06
1.32631e+06
1.31757e+06
1.30888e+06
1.30025e+06
1.29167e+06
1.28314e+06
1.27466e+06
1.26624e+06
1.25786e+06
1.24952e+06
1.24124e+06
1.233e+06
1.22481e+06
1.21666e+06
1.20855e+06
1.20048e+06
1.19244e+06
1.18444e+06
1.17648e+06
1.16854e+06
1.16063e+06
1.15275e+06
1.1449e+06
1.13708e+06
1.12929e+06
1.12153e+06
1.1138e+06
1.10611e+06
1.09845e+06
1.09082e+06
1.08323e+06
1.07567e+06
1.06814e+06
1.06064e+06
1.05317e+06
1.04573e+06
1.0383e+06
1.0309e+06
1.02352e+06
1.01616e+06
1.00882e+06
1.0015e+06
994210
986948
979715
972515
965347
958210
951099
944014
936951
929907
922876
915858
908854
901864
894892
887945
881025
874133
867269
860432
853623
846843
840092
833371
826679
820019
813388
806788
800217
793678
787170
780692
774242
767817
761420
755052
748712
742401
736118
729859
723626
717418
711238
705084
698958
692859
686788
680745
674731
668745
662788
656859
650960
645089
639248
633434
627648
621886
616152
610441
604757
599095
593461
587849
582264
576702
571166
565651
560164
554698
549259
543843
538456
533093
527760
522454
517177
511927
506705
501508
496337
491189
486065
480964
475886
470829
465796
460783
455795
450828
445888
440972
436083
431217
426376
421556
416759
411982
407223
402484
397762
393059
388369
383697
379037
374392
369755
365130
360513
355901
351297
346688
342086
337469
332854
328215
323572
318891
314198
309452
304680
299834
294941
289946
284865
279640
274269
268692
262891
256791
250399
243643
1.61686e+06
1.59937e+06
1.58298e+06
1.56762e+06
1.55321e+06
1.53961e+06
1.52669e+06
1.51435e+06
1.50249e+06
1.49105e+06
1.47996e+06
1.46917e+06
1.45864e+06
1.44834e+06
1.43823e+06
1.4283e+06
1.41851e+06
1.40886e+06
1.39934e+06
1.38993e+06
1.38063e+06
1.37142e+06
1.36229e+06
1.35325e+06
1.34429e+06
1.33539e+06
1.32656e+06
1.3178e+06
1.30909e+06
1.30044e+06
1.29185e+06
1.2833e+06
1.27482e+06
1.26638e+06
1.25799e+06
1.24965e+06
1.24136e+06
1.23311e+06
1.22491e+06
1.21676e+06
1.20864e+06
1.20057e+06
1.19253e+06
1.18452e+06
1.17655e+06
1.16861e+06
1.16069e+06
1.15281e+06