/*--------------------------------*- C++ -*----------------------------------*\
| =========                 |                                                 |
| \\      /  F ield         | OpenFOAM: The Open Source CFD Toolbox           |
|  \\    /   O peration     | Version:  2.4.0                                 |
|   \\  /    A nd           | Web:      www.OpenFOAM.org                      |
|    \\/     M anipulation  |                                                 |
\*---------------------------------------------------------------------------*/
FoamFile
{
    version     2.0;
    format      ascii;
    class       volScalarField;
    location    "0.191146";
    object      k;
}
// * * * * * * * * * * * * * * * * * * * * * * * * * * * * * * * * * * * * * //

dimensions      [0 2 -2 0 0 0 0];

internalField   nonuniform List<scalar> 
17600
(
0.554934
0.712129
0.829589
0.905069
0.945278
0.959904
0.958033
0.946795
0.931191
0.914418
0.89833
0.883856
0.871332
0.860735
0.851842
0.844348
0.837898
0.832225
0.826652
0.822822
0.373575
0.372987
0.3741
0.377977
0.384549
0.393699
0.405541
0.420119
0.437258
0.456538
0.477341
0.498922
0.5205
0.541347
0.560865
0.578632
0.594434
0.608237
0.620782
0.630286
0.362707
0.350022
0.335542
0.320396
0.305535
0.291752
0.279768
0.270155
0.263292
0.259372
0.258437
0.260406
0.265102
0.272271
0.281601
0.292741
0.305331
0.318995
0.333751
0.348257
0.36123
0.347631
0.333733
0.319561
0.305371
0.291441
0.278052
0.265467
0.25391
0.243559
0.234549
0.226975
0.220901
0.216363
0.213375
0.211929
0.212001
0.213569
0.216658
0.221416
0.361178
0.347822
0.33476
0.321858
0.309125
0.296638
0.284497
0.272805
0.261658
0.251138
0.241312
0.23223
0.223933
0.216447
0.209791
0.20398
0.199024
0.194934
0.191747
0.189545
0.361235
0.348123
0.335583
0.323464
0.311697
0.300265
0.289179
0.278467
0.268162
0.258297
0.248899
0.239993
0.231596
0.223721
0.216376
0.209566
0.203294
0.197559
0.192373
0.187742
0.361267
0.348283
0.336018
0.324336
0.313144
0.302382
0.292015
0.282028
0.272416
0.263182
0.254329
0.245863
0.237788
0.230105
0.222816
0.21592
0.209416
0.203297
0.197565
0.192216
0.36128
0.34835
0.336212
0.324754
0.313879
0.303514
0.293602
0.284103
0.27499
0.266244
0.257852
0.249805
0.242096
0.234719
0.227669
0.22094
0.214526
0.20842
0.202618
0.197121
0.361284
0.348374
0.336291
0.324936
0.314223
0.304077
0.294434
0.285242
0.276461
0.268059
0.260012
0.252299
0.244905
0.237818
0.231025
0.224516
0.218283
0.212317
0.206609
0.201166
0.361284
0.348381
0.336319
0.325009
0.314373
0.304338
0.294843
0.285831
0.277256
0.26908
0.26127
0.253801
0.246648
0.239795
0.233224
0.226922
0.220876
0.215074
0.209508
0.204184
0.361284
0.348382
0.336327
0.325035
0.314432
0.304451
0.295031
0.286118
0.277663
0.269625
0.261968
0.254662
0.24768
0.241
0.2346
0.228466
0.22258
0.21693
0.211503
0.206309
0.361284
0.348382
0.336328
0.325042
0.314453
0.304496
0.295112
0.286249
0.277859
0.2699
0.262336
0.255133
0.248263
0.241701
0.235425
0.229415
0.223653
0.218125
0.212818
0.207737
0.361284
0.348381
0.336327
0.325043
0.314458
0.304511
0.295144
0.286305
0.277948
0.270032
0.26252
0.255378
0.248578
0.242092
0.235898
0.229974
0.224302
0.218865
0.213649
0.208659
0.361284
0.34838
0.336325
0.325041
0.314458
0.304514
0.295154
0.286326
0.277985
0.270091
0.262607
0.255499
0.248739
0.2423
0.236158
0.23029
0.224678
0.219305
0.214155
0.209232
0.361283
0.348379
0.336323
0.325039
0.314456
0.304513
0.295155
0.286332
0.277998
0.270115
0.262645
0.255556
0.248818
0.242406
0.236294
0.230461
0.224888
0.219556
0.21445
0.209575
0.361283
0.348378
0.336322
0.325037
0.314453
0.304511
0.295153
0.286332
0.278001
0.270122
0.262659
0.255579
0.248854
0.242456
0.236362
0.23055
0.225
0.219694
0.214617
0.209772
0.361283
0.348378
0.336321
0.325035
0.314451
0.304508
0.295151
0.28633
0.278
0.270124
0.262664
0.255588
0.248869
0.242478
0.236394
0.230593
0.225057
0.219767
0.214708
0.209882
0.361283
0.348377
0.33632
0.325034
0.31445
0.304506
0.295149
0.286328
0.277999
0.270123
0.262664
0.255591
0.248874
0.242488
0.236408
0.230614
0.225085
0.219804
0.214754
0.20994
0.361283
0.348377
0.33632
0.325033
0.314448
0.304505
0.295147
0.286326
0.277997
0.270121
0.262663
0.255591
0.248875
0.242491
0.236414
0.230622
0.225097
0.219821
0.214777
0.209969
0.361283
0.348377
0.336319
0.325033
0.314448
0.304504
0.295146
0.286325
0.277996
0.270121
0.262662
0.25559
0.248875
0.242492
0.236415
0.230625
0.225102
0.219828
0.214786
0.209981
0.361283
0.348377
0.336319
0.325033
0.314448
0.304504
0.295146
0.286325
0.277996
0.270121
0.262663
0.25559
0.248875
0.242492
0.236416
0.230626
0.225102
0.219828
0.214786
0.209981
0.361283
0.348377
0.33632
0.325033
0.314448
0.304505
0.295147
0.286326
0.277997
0.270121
0.262663
0.255591
0.248875
0.242491
0.236414
0.230623
0.225098
0.219821
0.214777
0.209969
0.361283
0.348377
0.33632
0.325034
0.31445
0.304506
0.295149
0.286328
0.277999
0.270123
0.262664
0.255591
0.248874
0.242488
0.236408
0.230614
0.225085
0.219804
0.214755
0.20994
0.361283
0.348378
0.336321
0.325035
0.314451
0.304508
0.295151
0.28633
0.278
0.270124
0.262664
0.255588
0.248869
0.242479
0.236394
0.230594
0.225058
0.219768
0.214709
0.209883
0.361283
0.348378
0.336322
0.325037
0.314453
0.304511
0.295153
0.286332
0.278001
0.270122
0.262659
0.255579
0.248854
0.242456
0.236362
0.23055
0.225001
0.219696
0.214619
0.209774
0.361283
0.348379
0.336323
0.325039
0.314456
0.304513
0.295155
0.286332
0.277998
0.270115
0.262645
0.255556
0.248818
0.242406
0.236294
0.230462
0.224889
0.219559
0.214453
0.209578
0.361284
0.34838
0.336325
0.325041
0.314458
0.304514
0.295154
0.286326
0.277985
0.270091
0.262607
0.255499
0.24874
0.2423
0.236158
0.230291
0.22468
0.219308
0.214159
0.209237
0.361284
0.348381
0.336327
0.325043
0.314458
0.304511
0.295144
0.286305
0.277948
0.270032
0.26252
0.255378
0.248578
0.242093
0.235899
0.229976
0.224305
0.218869
0.213655
0.208667
0.361284
0.348382
0.336328
0.325042
0.314453
0.304496
0.295112
0.286249
0.277859
0.2699
0.262336
0.255133
0.248264
0.241702
0.235426
0.229417
0.223657
0.218131
0.212827
0.20775
0.361284
0.348382
0.336327
0.325035
0.314432
0.304451
0.295031
0.286118
0.277663
0.269625
0.261968
0.254662
0.247681
0.241
0.234602
0.228468
0.222584
0.216938
0.211516
0.206328
0.361284
0.348381
0.336319
0.325009
0.314373
0.304338
0.294843
0.285831
0.277256
0.26908
0.261271
0.253801
0.246649
0.239796
0.233226
0.226925
0.220881
0.215084
0.209525
0.204212
0.361284
0.348374
0.336291
0.324936
0.314223
0.304077
0.294434
0.285242
0.276461
0.268059
0.260012
0.252299
0.244906
0.237819
0.231027
0.22452
0.21829
0.21233
0.20663
0.201202
0.36128
0.34835
0.336212
0.324754
0.313879
0.303514
0.293602
0.284103
0.27499
0.266244
0.257852
0.249806
0.242097
0.234721
0.227671
0.220944
0.214534
0.208435
0.202642
0.197164
0.361267
0.348283
0.336018
0.324336
0.313144
0.302382
0.292015
0.282028
0.272416
0.263182
0.254329
0.245864
0.237789
0.230107
0.222819
0.215925
0.209424
0.203311
0.197584
0.19225
0.361235
0.348123
0.335583
0.323464
0.311697
0.300265
0.289179
0.278467
0.268162
0.258297
0.2489
0.239994
0.231597
0.223723
0.216379
0.20957
0.203299
0.197566
0.192368
0.187716
0.361178
0.347822
0.33476
0.321858
0.309125
0.296638
0.284497
0.272805
0.261658
0.251138
0.241312
0.232231
0.223934
0.216448
0.209792
0.20398
0.199019
0.194913
0.191665
0.189283
0.36123
0.347631
0.333733
0.319561
0.305371
0.291441
0.278052
0.265467
0.25391
0.243559
0.234549
0.226975
0.2209
0.216361
0.213369
0.211914
0.211964
0.21347
0.216365
0.220569
0.362707
0.350022
0.335542
0.320396
0.305535
0.291752
0.279768
0.270155
0.263292
0.259371
0.258436
0.260403
0.265096
0.272259
0.281578
0.292697
0.305237
0.318814
0.33307
0.347633
0.373575
0.372987
0.3741
0.377977
0.384549
0.393699
0.405541
0.420119
0.437256
0.456534
0.477335
0.498911
0.52048
0.541311
0.560801
0.578518
0.594217
0.607829
0.619441
0.62919
0.554934
0.712129
0.829589
0.905069
0.945278
0.959904
0.958034
0.946796
0.931193
0.914422
0.898337
0.883868
0.871353
0.860772
0.851908
0.844461
0.838116
0.832586
0.82763
0.823062
1.16631
1.50908
1.83681
2.12699
2.36484
2.54779
2.68194
2.7779
2.84653
2.8967
2.93478
2.965
2.98996
3.01134
3.0303
3.04772
3.0643
3.08062
3.09714
3.11422
3.13213
3.15101
3.17097
3.19208
3.21435
3.23779
3.26238
3.28805
3.31475
3.34238
3.37085
3.40005
3.42987
3.46019
3.4909
3.52187
3.553
3.58416
3.61524
3.64613
3.67672
3.70691
3.73658
3.76564
3.794
3.82156
3.84825
3.87398
3.89868
3.92227
3.94469
3.96589
3.9858
4.00438
4.02159
4.03737
4.0517
4.06454
4.07586
4.08563
4.09384
4.10046
4.10547
4.10885
4.11059
4.11068
4.10909
4.10581
4.10082
4.09412
4.08568
4.07549
4.06353
4.04978
4.03421
4.01682
3.99757
3.97645
3.95343
3.92849
3.90161
3.87276
3.84194
3.80911
3.77426
3.73738
3.69845
3.65748
3.61444
3.56936
3.52222
3.47305
3.42185
3.36867
3.31351
3.25643
3.19747
3.13668
3.07412
3.00987
2.944
2.87659
2.80776
2.73759
2.66621
2.59373
2.52029
2.44603
2.3711
2.29565
2.21984
2.14385
2.06784
1.992
1.91651
1.84156
1.76734
1.69402
1.6218
1.55084
1.48134
1.41345
1.34734
1.28314
1.221
1.16102
1.10332
1.04798
0.995053
0.944602
0.896653
0.851214
0.80828
0.767825
0.729808
0.694174
0.660855
0.62977
0.60083
0.573938
0.54899
0.525881
0.504499
0.484735
0.466477
0.449619
0.434053
0.41968
0.406402
0.394129
0.38278
0.372281
0.362566
0.353583
0.345291
0.337664
0.330692
0.324382
0.318763
0.313885
0.30982
0.306667
0.304548
0.303609
0.304014
0.30594
0.309572
0.315175
0.323118
0.333567
0.346629
0.362334
0.380647
0.401489
0.424782
0.450504
0.47875
0.509795
0.544142
0.582558
0.626096
0.676095
0.734162
0.802153
0.882153
0.976491
1.08781
1.21928
1.37501
1.56079
1.78545
2.06277
2.41424
2.87134
3.47658
4.27424
5.30187
6.46729
7.84351
4.84784
0.656216
0.704273
0.779957
0.886414
1.02292
1.18336
1.35902
1.53971
1.71563
1.87893
2.02469
2.15101
2.25838
2.34893
2.42549
2.4909
2.54763
2.59763
2.64237
2.683
2.72041
2.75532
2.78835
2.82001
2.85073
2.88086
2.91063
2.94024
2.96981
2.99941
3.02909
3.05887
3.08874
3.11869
3.14868
3.17866
3.20858
3.23837
3.26796
3.29727
3.32623
3.35477
3.3828
3.41024
3.43704
3.46311
3.48838
3.51279
3.53627
3.55877
3.58023
3.60059
3.61981
3.63783
3.65463
3.67017
3.68439
3.69729
3.70882
3.71896
3.72769
3.73499
3.74082
3.74517
3.74803
3.74937
3.74917
3.74742
3.74408
3.73915
3.7326
3.7244
3.71453
3.70297
3.68968
3.67465
3.65783
3.63922
3.61876
3.59644
3.57222
3.54608
3.51798
3.48792
3.45585
3.42177
3.38565
3.34748
3.30725
3.26497
3.22062
3.17423
3.12581
3.07537
3.02295
2.96859
2.91233
2.85422
2.79434
2.73275
2.66954
2.6048
2.53863
2.47114
2.40245
2.3327
2.26202
2.19057
2.1185
2.04597
1.97317
1.90026
1.82744
1.75489
1.68281
1.61139
1.54082
1.4713
1.40301
1.33615
1.27087
1.20735
1.14574
1.08618
1.02879
0.973684
0.920939
0.870626
0.822794
0.777469
0.73466
0.694353
0.656519
0.621111
0.588068
0.557313
0.528761
0.502317
0.477876
0.455333
0.434575
0.41549
0.397966
0.381893
0.367162
0.353671
0.341319
0.330014
0.31967
0.310209
0.301559
0.29366
0.286462
0.279928
0.274032
0.268765
0.264136
0.260174
0.256929
0.254477
0.25292
0.252385
0.25303
0.255032
0.258581
0.263871
0.271088
0.280552
0.292536
0.307091
0.324153
0.343554
0.365044
0.388339
0.413181
0.439406
0.467015
0.496234
0.527566
0.561836
0.600204
0.644176
0.695585
0.75656
0.829503
0.917088
1.02232
1.14872
1.30075
1.48462
1.70961
1.99024
2.34907
2.8194
3.44615
4.27848
5.35451
6.63246
8.0602
5.49193
0.35367
0.361036
0.371968
0.388478
0.412871
0.448342
0.497346
0.56194
0.643307
0.741351
0.854453
0.979108
1.11094
1.24515
1.37712
1.50306
1.62035
1.72763
1.82466
1.91202
1.99077
2.06211
2.12725
2.18721
2.24285
2.29486
2.34381
2.39016
2.4343
2.47656
2.51723
2.55656
2.59473
2.6319
2.66818
2.70365
2.73835
2.77232
2.80557
2.83811
2.86992
2.90099
2.93129
2.96081
2.9895
3.01733
3.04426
3.07026
3.09529
3.1193
3.14226
3.16415
3.18491
3.20453
3.22297
3.24021
3.25622
3.27096
3.28443
3.2966
3.30744
3.31694
3.32507
3.33182
3.33717
3.3411
3.34357
3.34459
3.34411
3.34211
3.33858
3.33347
3.32677
3.31844
3.30845
3.29677
3.28336
3.26819
3.25122
3.23242
3.21176
3.18919
3.16469
3.13823
3.10978
3.07931
3.04681
3.01225
2.97563
2.93693
2.89617
2.85334
2.80846
2.76155
2.71264
2.66177
2.60899
2.55435
2.49793
2.4398
2.38005
2.31877
2.25609
2.1921
2.12696
2.06079
1.99374
1.92598
1.85768
1.78901
1.72015
1.65129
1.58264
1.51438
1.44673
1.37988
1.31403
1.24937
1.18611
1.12441
1.06445
1.0064
0.950377
0.896524
0.844943
0.795722
0.748924
0.704595
0.662755
0.623405
0.586526
0.552078
0.520006
0.490238
0.46269
0.437266
0.413863
0.392372
0.37268
0.354671
0.338232
0.323248
0.30961
0.297213
0.285956
0.275746
0.266497
0.258127
0.250568
0.243755
0.237638
0.232174
0.227334
0.223101
0.219475
0.216473
0.214133
0.212517
0.211711
0.211833
0.213029
0.215475
0.219373
0.224936
0.232377
0.241884
0.253619
0.267928
0.284854
0.30425
0.325831
0.349199
0.373895
0.399456
0.425487
0.451721
0.478091
0.504785
0.532299
0.561484
0.593575
0.630205
0.673403
0.725561
0.789405
0.867976
0.964674
1.08342
1.22907
1.40818
1.63047
1.91098
2.27303
2.75115
3.39155
4.24626
5.34846
6.69193
8.0825
6.09779
0.223075
0.224827
0.226839
0.229347
0.232711
0.237455
0.244254
0.253948
0.26755
0.286238
0.311291
0.344453
0.387118
0.440325
0.504584
0.579599
0.664151
0.756469
0.854254
0.954953
1.05606
1.15537
1.25118
1.34236
1.42832
1.50892
1.58437
1.65504
1.72142
1.78398
1.84317
1.89936
1.95288
2.00399
2.05292
2.09986
2.14497
2.18841
2.2303
2.27072
2.30978
2.34753
2.38402
2.41928
2.45335
2.48623
2.51793
2.54846
2.57782
2.60601
2.63301
2.65881
2.68342
2.70682
2.72899
2.74993
2.76962
2.78806
2.80522
2.82109
2.83567
2.84893
2.86086
2.87146
2.88069
2.88854
2.89499
2.90003
2.90362
2.90574
2.90636
2.90546
2.903
2.89895
2.89327
2.88593
2.87689
2.86612
2.85357
2.8392
2.82298
2.80486
2.78482
2.76282
2.73882
2.7128
2.68473
2.6546
2.62239
2.58809
2.55171
2.51324
2.47271
2.43013
2.38554
2.33898
2.29051
2.24017
2.18805
2.13422
2.07879
2.02186
1.96355
1.90398
1.8433
1.78166
1.71921
1.65614
1.59261
1.52882
1.46496
1.40124
1.33785
1.27501
1.21292
1.15179
1.09183
1.03322
0.976149
0.920799
0.867325
0.815871
0.766561
0.719498
0.674765
0.632419
0.592495
0.555005
0.519939
0.487265
0.456931
0.428869
0.402997
0.379218
0.357428
0.337516
0.319367
0.302862
0.287885
0.274321
0.262059
0.250994
0.241025
0.232061
0.224015
0.216811
0.210381
0.204665
0.199614
0.195187
0.191358
0.188108
0.185438
0.183362
0.181911
0.181143
0.181135
0.181997
0.183868
0.18692
0.191353
0.197392
0.205271
0.215217
0.227422
0.242019
0.259146
0.278984
0.301305
0.325729
0.351752
0.378792
0.406242
0.433536
0.4602
0.485918
0.510578
0.534327
0.557625
0.581296
0.606573
0.635139
0.669139
0.711174
0.764266
0.831829
0.917688
1.02621
1.16267
1.33403
1.55035
1.82704
2.18785
2.66788
3.31359
4.17777
5.28709
6.65056
8.01403
6.60955
0.188994
0.188495
0.188052
0.187689
0.187452
0.187407
0.187639
0.188264
0.189432
0.19134
0.194241
0.198479
0.204473
0.212731
0.223852
0.238621
0.258039
0.282906
0.313966
0.351802
0.396723
0.448688
0.507275
0.571693
0.640853
0.713474
0.788206
0.863755
0.938978
1.01295
1.08501
1.15469
1.22178
1.28619
1.34796
1.40718
1.46399
1.51853
1.57093
1.6213
1.66977
1.71641
1.76131
1.80455
1.84618
1.88625
1.92482
1.96193
1.99761
2.03189
2.06479
2.09634
2.12654
2.1554
2.18295
2.20917
2.23408
2.25767
2.27995
2.30091
2.32056
2.33888
2.35586
2.37151
2.38579
2.39871
2.41024
2.42037
2.42906
2.43631
2.44207
2.44633
2.44905
2.45019
2.44972
2.4476
2.4438
2.43826
2.43096
2.42184
2.41087
2.398
2.38321
2.36645
2.34768
2.32689
2.30404
2.27911
2.25209
2.22298
2.19176
2.15845
2.12307
2.08563
2.04618
2.00476
1.96143
1.91624
1.8693
1.82067
1.77047
1.71882
1.66584
1.61166
1.55645
1.50035
1.44356
1.38624
1.32859
1.27082
1.21311
1.15569
1.09877
1.04255
0.987257
0.933083
0.880228
0.828881
0.779214
0.731384
0.68553
0.641768
0.600194
0.560878
0.523865
0.489177
0.456809
0.426736
0.398911
0.373267
0.349722
0.328182
0.308541
0.290686
0.274502
0.259871
0.246675
0.234802
0.224141
0.214589
0.206051
0.198438
0.19167
0.185676
0.180394
0.175769
0.17176
0.168332
0.165463
0.163141
0.16137
0.160165
0.15956
0.159609
0.160388
0.162001
0.164579
0.168285
0.173313
0.179885
0.188242
0.198626
0.211264
0.226339
0.243959
0.264153
0.28707
0.31248
0.339948
0.368907
0.398705
0.428656
0.458095
0.48642
0.513144
0.537934
0.560652
0.581399
0.600566
0.618892
0.637524
0.658083
0.682715
0.714112
0.755509
0.810653
0.883795
0.979781
1.10437
1.26496
1.47194
1.74095
2.09586
2.57174
3.21439
4.07561
5.17685
6.52516
7.87963
7.00959
0.186394
0.185101
0.183852
0.182651
0.181502
0.180414
0.179396
0.178463
0.177636
0.176943
0.176422
0.176125
0.176115
0.176475
0.177307
0.178741
0.180946
0.184176
0.188713
0.194879
0.20305
0.213648
0.227129
0.24396
0.264582
0.289367
0.318577
0.352323
0.390541
0.432985
0.479241
0.528757
0.58089
0.634952
0.690265
0.746198
0.802198
0.857807
0.912667
0.966511
1.01915
1.07048
1.1204
1.1689
1.21595
1.26156
1.30573
1.34847
1.38979
1.42972
1.46825
1.50541
1.5412
1.57564
1.60873
1.64049
1.67093
1.70005
1.72784
1.75433
1.7795
1.80335
1.82588
1.84709
1.86695
1.88546
1.9026
1.91835
1.9327
1.94561
1.95707
1.96703
1.97548
1.98237
1.98766
1.99132
1.99331
1.99358
1.99209
1.9888
1.98366
1.97664
1.96769
1.95678
1.94386
1.92892
1.91193
1.89285
1.87169
1.84844
1.82309
1.79565
1.76615
1.73461
1.70108
1.66559
1.62823
1.58905
1.54815
1.50562
1.46159
1.41617
1.3695
1.32174
1.27304
1.22358
1.17354
1.12312
1.07252
1.02194
0.971598
0.921705
0.872474
0.824114
0.776828
0.730809
0.68624
0.643285
0.602092
0.562787
0.525472
0.490225
0.4571
0.426122
0.397294
0.370594
0.345975
0.323376
0.302716
0.283901
0.266829
0.251389
0.237469
0.224954
0.213732
0.203696
0.194743
0.186778
0.179712
0.173467
0.167972
0.163164
0.158993
0.155413
0.152391
0.149903
0.147934
0.14648
0.145549
0.145164
0.145361
0.146196
0.147742
0.150098
0.15339
0.157769
0.163418
0.170546
0.179384
0.190175
0.203155
0.218536
0.236477
0.25706
0.280268
0.306028
0.334438
0.364834
0.396635
0.429174
0.461741
0.493634
0.524195
0.55285
0.579136
0.60273
0.62348
0.641442
0.65692
0.670528
0.683259
0.696575
0.712487
0.733628
0.763298
0.80546
0.864731
0.946436
1.05685
1.20385
1.39819
1.65565
1.99997
2.46567
3.09721
3.94407
5.02464
6.33421
7.67818
7.28257
0.190628
0.189091
0.187589
0.186123
0.184694
0.183301
0.181945
0.180627
0.179352
0.178123
0.176948
0.175834
0.174794
0.173842
0.172998
0.172286
0.171734
0.171387
0.171299
0.171533
0.172164
0.173284
0.175
0.177441
0.180761
0.185133
0.190757
0.197855
0.206664
0.217431
0.2304
0.245795
0.263805
0.284564
0.308139
0.33452
0.363613
0.395248
0.429187
0.465139
0.502777
0.54176
0.581747
0.622414
0.663463
0.70463
0.745687
0.786442
0.826738
0.866444
0.905456
0.943692
0.981082
1.01757
1.05312
1.08768
1.12122
1.15372
1.18515
1.21548
1.2447
1.27278
1.2997
1.32544
1.34998
1.3733
1.39537
1.41616
1.43564
1.45379
1.47057
1.48594
1.49987
1.51232
1.52324
1.53259
1.54033
1.54641
1.55079
1.55341
1.55423
1.55322
1.55032
1.54549
1.53871
1.52994
1.51915
1.50633
1.49145
1.47452
1.45554
1.43451
1.41147
1.38644
1.35947
1.33061
1.29994
1.26753
1.23349
1.19791
1.16092
1.12266
1.08327
1.04292
1.00177
0.960008
0.917824
0.875418
0.832994
0.790759
0.748922
0.707691
0.667265
0.62784
0.589595
0.552698
0.517298
0.483522
0.451476
0.42124
0.392869
0.366392
0.341813
0.319112
0.298248
0.279162
0.261778
0.246008
0.231756
0.218921
0.207398
0.197084
0.187879
0.179687
0.172419
0.165992
0.160334
0.155378
0.151068
0.147355
0.1442
0.14157
0.139445
0.13781
0.136661
0.136003
0.135851
0.136234
0.137194
0.138786
0.141087
0.14419
0.148213
0.153299
0.159614
0.167351
0.176723
0.187955
0.201276
0.216902
0.235012
0.255732
0.279106
0.305086
0.333535
0.36446
0.397411
0.431702
0.466664
0.501603
0.535823
0.568663
0.599525
0.627889
0.65334
0.675583
0.694462
0.70999
0.722382
0.732117
0.740005
0.74728
0.755718
0.767747
0.786547
0.816114
0.861286
0.92778
1.02238
1.15346
1.33216
1.5744
1.90358
2.3533
2.96622
3.78862
4.83754
6.09439
7.41382
7.41239
0.195478
0.193882
0.192314
0.190774
0.189263
0.187779
0.186323
0.184894
0.183492
0.182119
0.180775
0.179462
0.178183
0.17694
0.175739
0.174584
0.173484
0.172446
0.171482
0.170608
0.16984
0.169198
0.168707
0.168396
0.168297
0.168451
0.168902
0.169704
0.170917
0.17261
0.174864
0.177769
0.181425
0.185942
0.191437
0.198034
0.205858
0.215033
0.225672
0.237878
0.251728
0.267275
0.284542
0.303516
0.324151
0.346366
0.370051
0.395073
0.421277
0.448499
0.476565
0.505304
0.534547
0.564133
0.593913
0.623747
0.653509
0.683084
0.712368
0.741268
0.769696
0.797577
0.824837
0.851411
0.877234
0.902246
0.92639
0.949609
0.971846
0.993048
1.01316
1.03212
1.04988
1.06638
1.08157
1.09538
1.10777
1.11867
1.12803
1.13579
1.1419
1.14631
1.14898
1.14984
1.14887
1.14603
1.14129
1.13463
1.12602
1.11547
1.10298
1.08856
1.07224
1.05404
1.03402
1.01224
0.988775
0.963705
0.937134
0.909177
0.879961
0.849627
0.818329
0.78623
0.753505
0.720337
0.686915
0.653433
0.620087
0.587073
0.554579
0.52279
0.491879
0.462004
0.433308
0.405911
0.379916
0.355399
0.332413
0.310988
0.291127
0.272817
0.25602
0.240686
0.226747
0.21413
0.202751
0.192524
0.183362
0.175179
0.167895
0.161431
0.155718
0.150692
0.146297
0.142485
0.139217
0.136458
0.134186
0.132382
0.131036
0.130148
0.129724
0.129779
0.130338
0.131436
0.13312
0.135451
0.138504
0.142372
0.147168
0.153023
0.160089
0.16854
0.178564
0.190364
0.204143
0.220099
0.238406
0.2592
0.282561
0.308493
0.336917
0.367671
0.400566
0.43563
0.471905
0.508782
0.545613
0.581745
0.616548
0.64944
0.679897
0.707472
0.731806
0.752632
0.769799
0.783282
0.79322
0.799961
0.804131
0.806722
0.809222
0.813748
0.823204
0.841411
0.873211
0.924532
1.00255
1.11613
1.27679
1.50056
1.81044
2.23883
2.82628
3.6155
4.62318
5.81962
7.09812
7.39861
0.199533
0.197944
0.196378
0.194837
0.193318
0.191822
0.190349
0.188899
0.18747
0.186063
0.184679
0.183317
0.181979
0.180664
0.179375
0.178113
0.176879
0.175675
0.174505
0.173372
0.17228
0.171234
0.170243
0.169312
0.168452
0.167673
0.166987
0.166407
0.16595
0.165633
0.165477
0.165505
0.165741
0.166216
0.166961
0.168012
0.169409
0.171197
0.173424
0.176143
0.17941
0.183285
0.187829
0.193106
0.199178
0.206105
0.213941
0.222737
0.23253
0.24335
0.255211
0.268116
0.282049
0.296983
0.312873
0.329662
0.347281
0.36565
0.38468
0.404277
0.424342
0.444773
0.465469
0.486325
0.50724
0.528115
0.54885
0.569349
0.589518
0.609264
0.628498
0.64713
0.665073
0.682243
0.698554
0.713925
0.728275
0.741525
0.753599
0.764421
0.773922
0.782034
0.788693
0.793842
0.797428
0.799403
0.79973
0.798376
0.795319
0.790546
0.784054
0.775852
0.76596
0.754411
0.74125
0.726537
0.710344
0.692758
0.673878
0.653816
0.632699
0.610664
0.587858
0.564438
0.540568
0.516418
0.492159
0.467963
0.443998
0.420428
0.397405
0.375071
0.353554
0.332961
0.313384
0.294891
0.277533
0.261337
0.246312
0.232449
0.219723
0.208094
0.197514
0.187926
0.179268
0.171478
0.16449
0.158242
0.152678
0.147741
0.143385
0.139566
0.136249
0.133403
0.131008
0.129046
0.127508
0.126392
0.125701
0.125447
0.125649
0.126332
0.127531
0.12929
0.131664
0.134719
0.138533
0.143201
0.148829
0.155541
0.163477
0.172788
0.18364
0.196201
0.210644
0.227131
0.24581
0.266799
0.290179
0.315979
0.344168
0.374642
0.407232
0.44172
0.478103
0.515766
0.553954
0.592078
0.629549
0.665793
0.700271
0.732488
0.762004
0.788442
0.811492
0.830921
0.846576
0.858406
0.866485
0.871048
0.872556
0.871776
0.869901
0.868697
0.870692
0.879363
0.899319
0.936459
0.998148
1.09358
1.23463
1.4374
1.72444
2.12679
2.6828
3.43155
4.38973
5.52136
6.74525
7.25868
0.202584
0.201025
0.199487
0.19797
0.196473
0.194996
0.193539
0.192101
0.190682
0.189283
0.187902
0.186541
0.185199
0.183877
0.182575
0.181293
0.180032
0.178792
0.177573
0.176377
0.175204
0.174057
0.172938
0.171848
0.17079
0.169767
0.168784
0.167844
0.166952
0.166114
0.165335
0.164624
0.163986
0.163432
0.16297
0.162611
0.162366
0.162248
0.162271
0.162449
0.1628
0.163342
0.164094
0.165078
0.166317
0.167837
0.169665
0.171828
0.174358
0.177284
0.18064
0.184456
0.188766
0.193599
0.198984
0.204946
0.211507
0.218684
0.226488
0.234921
0.243982
0.253659
0.26393
0.274768
0.286136
0.297986
0.310264
0.322909
0.335852
0.349018
0.362325
0.375689
0.38902
0.402226
0.415214
0.427889
0.440153
0.451912
0.463072
0.47354
0.483226
0.492044
0.499912
0.506754
0.512499
0.517084
0.520452
0.522556
0.52336
0.522835
0.520965
0.517746
0.513186
0.507306
0.500139
0.491733
0.482147
0.471456
0.459745
0.447112
0.433665
0.419522
0.404809
0.389658
0.374202
0.358579
0.342924
0.327367
0.312034
0.29704
0.28249
0.268473
0.255067
0.242333
0.230315
0.219042
0.20853
0.19878
0.18978
0.181512
0.173946
0.16705
0.160787
0.155118
0.150005
0.14541
0.1413
0.137644
0.134414
0.131589
0.129151
0.127089
0.125396
0.124074
0.123125
0.122564
0.122406
0.122677
0.123407
0.124634
0.126405
0.128774
0.131806
0.135574
0.140163
0.145669
0.1522
0.159871
0.168811
0.179152
0.191032
0.204587
0.219948
0.237235
0.256552
0.27798
0.301575
0.327358
0.355313
0.385377
0.417439
0.451334
0.486859
0.523846
0.562288
0.601129
0.639883
0.678041
0.715103
0.750589
0.784049
0.815074
0.843299
0.868406
0.89013
0.908259
0.922642
0.933205
0.939967
0.943076
0.942853
0.939872
0.935059
0.929841
0.926334
0.927569
0.937744
0.962471
1.00903
1.08673
1.20762
1.38782
1.64935
2.02189
2.54149
3.24387
4.14573
5.20949
6.36908
7.01934
0.204745
0.203222
0.201718
0.200233
0.198766
0.197318
0.195887
0.194474
0.193079
0.191701
0.190341
0.188998
0.187673
0.186364
0.185074
0.183801
0.182545
0.181306
0.180085
0.178882
0.177697
0.17653
0.175382
0.174254
0.173146
0.17206
0.170997
0.169957
0.168942
0.167955
0.166998
0.166071
0.165179
0.164324
0.163509
0.162738
0.162013
0.161341
0.160724
0.160169
0.15968
0.159263
0.158924
0.158671
0.158509
0.158449
0.158497
0.158663
0.158957
0.15939
0.159974
0.16072
0.161642
0.162753
0.164069
0.165604
0.167375
0.169397
0.171688
0.174262
0.177137
0.180325
0.18384
0.187694
0.191895
0.196447
0.201352
0.206608
0.212204
0.218127
0.224357
0.230866
0.237621
0.24458
0.251698
0.258918
0.266183
0.273427
0.280581
0.287571
0.294323
0.30076
0.306806
0.312384
0.317423
0.321853
0.32561
0.328638
0.330886
0.332313
0.332888
0.332588
0.331403
0.329334
0.326393
0.322606
0.318007
0.312644
0.306575
0.299866
0.292593
0.284838
0.276688
0.268234
0.259568
0.250781
0.241961
0.233192
0.224551
0.216108
0.207923
0.200046
0.192519
0.185372
0.178625
0.172292
0.166376
0.160875
0.155782
0.151084
0.146768
0.142818
0.139218
0.135951
0.133005
0.130368
0.12803
0.125988
0.124239
0.122787
0.12164
0.120812
0.120322
0.120193
0.120456
0.121149
0.122316
0.124008
0.126285
0.129213
0.132868
0.137336
0.142709
0.14909
0.156588
0.165316
0.175392
0.18693
0.200042
0.214829
0.231376
0.249755
0.270018
0.292194
0.316295
0.342311
0.370212
0.399945
0.431431
0.464562
0.499195
0.535158
0.572304
0.610727
0.649512
0.688211
0.726386
0.763611
0.799474
0.833581
0.865567
0.895095
0.921861
0.945594
0.966058
0.983058
0.996443
1.00612
1.01206
1.01435
1.01319
1.00901
1.00251
0.994813
0.987645
0.983566
0.986256
1.00084
1.03424
1.09559
1.19688
1.35406
1.58856
1.92863
2.40811
3.05964
3.89986
4.89316
5.98225
6.70941
0.206207
0.204717
0.203245
0.20179
0.200353
0.198934
0.197531
0.196145
0.194776
0.193424
0.192087
0.190767
0.189464
0.188176
0.186905
0.185649
0.184409
0.183185
0.181976
0.180783
0.179605
0.178444
0.177298
0.176168
0.175054
0.173956
0.172876
0.171812
0.170767
0.169739
0.16873
0.167741
0.166773
0.165826
0.164902
0.164001
0.163125
0.162276
0.161456
0.160665
0.159905
0.15918
0.15849
0.157839
0.157228
0.156661
0.156141
0.15567
0.155252
0.15489
0.154589
0.154353
0.154185
0.154091
0.154077
0.154147
0.154307
0.154563
0.154923
0.155392
0.155978
0.156689
0.157531
0.158512
0.159639
0.16092
0.16236
0.163966
0.165741
0.167688
0.169809
0.172103
0.174565
0.17719
0.179966
0.18288
0.185913
0.189044
0.192246
0.195489
0.198736
0.201952
0.205093
0.208116
0.210977
0.213629
0.216027
0.218126
0.219887
0.221271
0.222246
0.222786
0.222869
0.222484
0.221624
0.220294
0.218503
0.216271
0.213623
0.210592
0.207217
0.203542
0.199612
0.195477
0.191188
0.186793
0.182342
0.177879
0.173446
0.169081
0.164816
0.16068
0.156693
0.152874
0.149236
0.145788
0.142534
0.139479
0.136622
0.133963
0.131502
0.129237
0.12717
0.125302
0.123638
0.122185
0.120954
0.119959
0.11922
0.11876
0.118611
0.118808
0.119393
0.120417
0.121937
0.124018
0.126733
0.130165
0.134403
0.139547
0.145701
0.152977
0.16149
0.171353
0.182676
0.195558
0.210084
0.22632
0.244307
0.264063
0.28558
0.30883
0.333768
0.360338
0.388474
0.418108
0.449166
0.481567
0.515218
0.55001
0.585816
0.622517
0.660164
0.698337
0.736364
0.773921
0.810674
0.846286
0.88043
0.91279
0.94307
0.970989
0.996286
1.01872
1.03809
1.05419
1.06688
1.07604
1.08161
1.08363
1.08222
1.07768
1.07055
1.06169
1.05249
1.04506
1.04255
1.04948
1.0722
1.11937
1.20264
1.33753
1.54475
1.85106
2.2881
2.88584
3.66071
4.5813
5.59617
6.35594
0.207157
0.205693
0.204247
0.202819
0.201407
0.200012
0.198634
0.197273
0.195927
0.194598
0.193284
0.191986
0.190704
0.189437
0.188185
0.186948
0.185726
0.184518
0.183326
0.182147
0.180983
0.179834
0.178698
0.177577
0.176471
0.175378
0.1743
0.173237
0.172188
0.171153
0.170134
0.16913
0.168141
0.167168
0.166211
0.165271
0.164347
0.163441
0.162553
0.161684
0.160834
0.160004
0.159194
0.158407
0.157641
0.156899
0.156182
0.15549
0.154824
0.154187
0.153579
0.153002
0.152457
0.151946
0.151471
0.151033
0.150636
0.15028
0.149969
0.149704
0.149489
0.149326
0.149217
0.149167
0.149178
0.149253
0.149395
0.149607
0.149892
0.150252
0.15069
0.151206
0.151802
0.152478
0.153232
0.154062
0.154964
0.155933
0.156961
0.158039
0.159155
0.160296
0.161447
0.16259
0.163706
0.164775
0.165774
0.166682
0.167478
0.168138
0.168644
0.168977
0.169121
0.169063
0.168794
0.168308
0.167604
0.166685
0.165557
0.164231
0.162721
0.161044
0.15922
0.157269
0.155213
0.153077
0.150881
0.148649
0.1464
0.144153
0.141926
0.139733
0.137589
0.135504
0.133488
0.13155
0.129696
0.127934
0.126271
0.124714
0.123272
0.121954
0.120772
0.119742
0.118882
0.118214
0.117766
0.11757
0.117665
0.118097
0.118919
0.120192
0.121988
0.124385
0.127472
0.131347
0.136118
0.141899
0.148811
0.156978
0.166525
0.177568
0.190214
0.204548
0.220632
0.238496
0.258136
0.279517
0.302569
0.327201
0.353306
0.380769
0.409478
0.439331
0.470236
0.502114
0.534897
0.568519
0.60291
0.637996
0.673702
0.710039
0.74697
0.783729
0.820078
0.855767
0.890538
0.924131
0.956289
0.986758
1.01529
1.04164