/*--------------------------------*- C++ -*----------------------------------*\
| =========                 |                                                 |
| \\      /  F ield         | OpenFOAM: The Open Source CFD Toolbox           |
|  \\    /   O peration     | Version:  2.4.0                                 |
|   \\  /    A nd           | Web:      www.OpenFOAM.org                      |
|    \\/     M anipulation  |                                                 |
\*---------------------------------------------------------------------------*/
FoamFile
{
    version     2.0;
    format      ascii;
    class       volScalarField;
    location    "0.191146";
    object      p;
}
// * * * * * * * * * * * * * * * * * * * * * * * * * * * * * * * * * * * * * //

dimensions      [0 2 -2 0 0 0 0];

internalField   nonuniform List<scalar> 
17600
(
41.046
40.3001
39.9497
39.79
39.6214
39.4405
39.2687
39.1087
38.9562
38.809
38.6662
38.5273
38.3916
38.2585
38.1276
37.999
37.873
37.7536
37.6386
37.5587
40.3819
40.0262
39.8725
39.7607
39.6112
39.4392
39.2711
39.1126
38.9607
38.8134
38.6703
38.531
38.395
38.2614
38.1301
38.0013
37.8748
37.755
37.6353
37.5465
40.4005
40.1874
39.9536
39.7903
39.6252
39.4473
39.276
39.1158
38.963
38.8151
38.6718
38.5324
38.3963
38.2628
38.1316
38.0027
37.8761
37.7557
37.6337
37.5312
40.3825
40.1719
39.9291
39.7726
39.6168
39.4443
39.2753
39.1162
38.9638
38.8161
38.6727
38.5332
38.397
38.2634
38.1319
38.0029
37.8761
37.7549
37.6306
37.5189
40.3514
40.1564
39.9259
39.7708
39.6164
39.4452
39.2765
39.1173
38.9649
38.8172
38.6736
38.534
38.3976
38.2639
38.1323
38.0032
37.8761
37.7539
37.6276
37.5092
40.3207
40.1468
39.9279
39.7701
39.6155
39.4456
39.2774
39.1182
38.9658
38.818
38.6743
38.5346
38.3981
38.2642
38.1325
38.0032
37.8758
37.7528
37.6249
37.5012
40.2939
40.1394
39.9295
39.7688
39.6144
39.4459
39.2783
39.1191
38.9667
38.8187
38.675
38.5351
38.3985
38.2645
38.1327
38.0032
37.8755
37.7515
37.6223
37.4946
40.2703
40.1318
39.9301
39.7674
39.6133
39.4463
39.2792
39.1201
38.9675
38.8195
38.6757
38.5356
38.3989
38.2648
38.1328
38.0032
37.8751
37.7503
37.6201
37.4894
40.2493
40.1243
39.9301
39.7662
39.6123
39.4467
39.2801
39.121
38.9684
38.8203
38.6763
38.5362
38.3993
38.2651
38.133
38.0032
37.8748
37.7492
37.6182
37.4852
40.2308
40.1169
39.93
39.7653
39.6114
39.447
39.2809
39.1218
38.9692
38.8211
38.677
38.5367
38.3997
38.2654
38.1332
38.0032
37.8745
37.7482
37.6165
37.482
40.2144
40.1099
39.9297
39.7644
39.6105
39.4472
39.2816
39.1226
38.9699
38.8218
38.6776
38.5372
38.4001
38.2657
38.1334
38.0031
37.8742
37.7473
37.6151
37.4794
40.2
40.1034
39.9292
39.7637
39.6098
39.4474
39.2823
39.1232
38.9706
38.8224
38.6782
38.5377
38.4005
38.2659
38.1335
38.0031
37.874
37.7464
37.6138
37.4774
40.1876
40.0975
39.9287
39.7631
39.609
39.4476
39.2829
39.1239
38.9712
38.823
38.6787
38.5381
38.4008
38.2662
38.1336
38.0031
37.8737
37.7456
37.6128
37.4759
40.1769
40.0922
39.9281
39.7626
39.6084
39.4477
39.2834
39.1244
38.9717
38.8235
38.6791
38.5385
38.4011
38.2664
38.1337
38.003
37.8734
37.7448
37.6119
37.4748
40.1679
40.0877
39.9276
39.7622
39.6079
39.4478
39.2839
39.1248
38.9721
38.8239
38.6795
38.5388
38.4013
38.2665
38.1338
38.0029
37.8731
37.7441
37.6111
37.474
40.1606
40.0838
39.927
39.7618
39.6074
39.4479
39.2842
39.1252
38.9725
38.8243
38.6798
38.539
38.4015
38.2666
38.1338
38.0028
37.8728
37.7435
37.6104
37.4734
40.1547
40.0807
39.9266
39.7616
39.607
39.448
39.2845
39.1255
38.9728
38.8245
38.68
38.5392
38.4017
38.2667
38.1338
38.0027
37.8725
37.7429
37.6098
37.4731
40.1504
40.0783
39.9262
39.7614
39.6067
39.448
39.2848
39.1257
38.973
38.8247
38.6802
38.5394
38.4018
38.2668
38.1338
38.0026
37.8722
37.7423
37.6093
37.4729
40.1475
40.0767
39.926
39.7612
39.6066
39.448
39.2849
39.1259
38.9731
38.8249
38.6803
38.5394
38.4018
38.2668
38.1338
38.0024
37.8719
37.7418
37.6089
37.4728
40.1461
40.0759
39.9258
39.7612
39.6065
39.448
39.285
39.126
38.9732
38.8249
38.6804
38.5395
38.4018
38.2667
38.1337
38.0022
37.8716
37.7413
37.6085
37.4728
40.1461
40.0759
39.9258
39.7612
39.6065
39.448
39.285
39.126
38.9732
38.8249
38.6804
38.5395
38.4018
38.2667
38.1335
38.002
37.8713
37.7408
37.6082
37.473
40.1475
40.0767
39.926
39.7612
39.6066
39.448
39.2849
39.1259
38.9731
38.8248
38.6803
38.5394
38.4017
38.2666
38.1334
38.0018
37.871
37.7404
37.6079
37.4732
40.1504
40.0783
39.9262
39.7614
39.6067
39.448
39.2848
39.1257
38.973
38.8247
38.6801
38.5392
38.4016
38.2664
38.1332
38.0015
37.8707
37.74
37.6077
37.4734
40.1547
40.0807
39.9266
39.7616
39.607
39.4479
39.2845
39.1255
38.9728
38.8245
38.6799
38.5391
38.4014
38.2662
38.133
38.0013
37.8703
37.7396
37.6075
37.4736
40.1606
40.0838
39.927
39.7618
39.6074
39.4479
39.2842
39.1252
38.9725
38.8242
38.6797
38.5388
38.4012
38.266
38.1328
38.001
37.87
37.7392
37.6073
37.4739
40.1679
40.0877
39.9276
39.7622
39.6079
39.4478
39.2839
39.1248
38.9721
38.8238
38.6793
38.5385
38.4009
38.2658
38.1325
38.0007
37.8697
37.7389
37.6071
37.4742
40.1769
40.0922
39.9281
39.7626
39.6084
39.4477
39.2834
39.1244
38.9716
38.8234
38.6789
38.5382
38.4006
38.2655
38.1322
38.0004
37.8693
37.7385
37.607
37.4745
40.1876
40.0975
39.9287
39.7631
39.609
39.4476
39.2829
39.1238
38.9711
38.8229
38.6785
38.5378
38.4002
38.2651
38.1319
38.0001
37.869
37.7382
37.6068
37.4747
40.2
40.1034
39.9292
39.7637
39.6097
39.4474
39.2823
39.1232
38.9705
38.8223
38.678
38.5373
38.3998
38.2648
38.1316
37.9997
37.8687
37.7379
37.6067
37.475
40.2144
40.1099
39.9297
39.7644
39.6105
39.4472
39.2816
39.1225
38.9699
38.8217
38.6774
38.5368
38.3994
38.2644
38.1312
37.9994
37.8683
37.7376
37.6066
37.4753
40.2308
40.1169
39.93
39.7653
39.6114
39.447
39.2809
39.1218
38.9691
38.821
38.6768
38.5363
38.399
38.264
38.1309
37.999
37.868
37.7373
37.6064
37.4755
40.2493
40.1242
39.9301
39.7662
39.6123
39.4466
39.28
39.1209
38.9683
38.8202
38.6761
38.5357
38.3985
38.2636
38.1305
37.9987
37.8677
37.737
37.6064
37.4758
40.2703
40.1318
39.93
39.7674
39.6133
39.4463
39.2792
39.12
38.9674
38.8194
38.6754
38.5351
38.398
38.2632
38.1302
37.9984
37.8674
37.7368
37.6063
37.476
40.2939
40.1394
39.9295
39.7688
39.6144
39.4459
39.2782
39.1191
38.9666
38.8186
38.6747
38.5346
38.3975
38.2628
38.1299
37.9981
37.8672
37.7366
37.6063
37.4763
40.3207
40.1468
39.9279
39.7701
39.6155
39.4455
39.2774
39.1182
38.9657
38.8178
38.674
38.534
38.3971
38.2625
38.1296
37.9979
37.867
37.7365
37.6062
37.4765
40.3514
40.1564
39.9259
39.7708
39.6164
39.4452
39.2765
39.1173
38.9648
38.817
38.6733
38.5335
38.3966
38.2621
38.1293
37.9976
37.8667
37.7362
37.6062
37.4766
40.3825
40.1719
39.9291
39.7726
39.6168
39.4443
39.2753
39.1161
38.9637
38.8159
38.6724
38.5326
38.396
38.2615
38.1288
37.9972
37.8663
37.7359
37.6059
37.4767
40.4005
40.1874
39.9536
39.7903
39.6251
39.4473
39.276
39.1157
38.9629
38.8149
38.6714
38.5318
38.3953
38.261
38.1283
37.9967
37.8659
37.7355
37.6056
37.4767
40.3819
40.0262
39.8725
39.7607
39.6112
39.4392
39.2711
39.1126
38.9606
38.8132
38.67
38.5304
38.3939
38.2596
38.1268
37.9952
37.8643
37.7339
37.604
37.4756
41.046
40.3001
39.9497
39.79
39.6214
39.4405
39.2687
39.1086
38.9561
38.8088
38.6658
38.5267
38.3906
38.2566
38.1242
37.9929
37.8623
37.7321
37.6025
37.4743
37.3754
37.3143
37.1394
37.0509
37.0287
37.0118
36.9899
36.963
36.93
36.8898
36.8431
36.7916
36.7374
36.6818
36.626
36.5711
36.5179
36.4669
36.4186
36.3732
36.3309
36.2921
36.257
36.2259
36.1991
36.177
36.1599
36.1481
36.142
36.142
36.1485
36.1618
36.1823
36.2102
36.2461
36.29
36.3424
36.4034
36.4733
36.5522
36.6403
36.7376
36.8443
36.9603
37.0857
37.2205
37.3645
37.5176
37.6798
37.8508
38.0304
38.2185
38.4147
38.6188
38.8305
39.0494
39.2752
39.5075
39.746
39.9904
40.2401
40.4948
40.7541
41.0176
41.2849
41.5556
41.8293
42.1057
42.3843
42.6648
42.947
43.2304
43.5147
43.7998
44.0852
44.3708
44.6564
44.9417
45.2265
45.5108
45.7943
46.077
46.3587
46.6394
46.9191
47.1976
47.4749
47.751
48.0259
48.2996
48.5721
48.8434
49.1135
49.3823
49.65
49.9165
50.1818
50.4459
50.7087
50.9702
51.2303
51.489
51.7461
52.0017
52.2555
52.5073
52.7572
53.0047
53.2498
53.4923
53.7318
53.9683
54.2013
54.4306
54.656
54.8771
55.0938
55.3056
55.5124
55.7138
55.9096
56.0996
56.2835
56.4613
56.6326
56.7974
56.9556
57.1072
57.252
57.3902
57.5217
57.6467
57.7653
57.8777
57.984
58.0845
58.1795
58.2692
58.3539
58.434
58.5098
58.5816
58.6499
58.7148
58.7769
58.8364
58.8937
58.9491
59.0029
59.0553
59.1066
59.157
59.2068
59.2559
59.3046
59.3529
59.4009
59.4485
59.4958
59.5425
59.5887
59.6343
59.679
59.7228
59.7655
59.8069
59.847
59.8857
59.9229
59.9588
59.9932
60.0264
60.0582
60.0887
60.1176
60.1447
60.1692
60.1901
60.2055
60.2131
60.2096
60.1905
60.1503
60.0818
59.9761
59.8221
59.6065
59.3124
58.9188
58.3992
57.7187
56.8297
55.6682
54.1312
52.0938
49.2273
45.4212
38.7905
32.0604
3.23823
37.2717
37.1424
37.0698
37.077
37.0891
37.086
37.0707
37.0444
37.0072
36.9607
36.9075
36.8498
36.7909
36.732
36.6741
36.618
36.5641
36.5129
36.4646
36.4193
36.3773
36.3388
36.3042
36.2736
36.2474
36.226
36.2095
36.1985
36.1932
36.1939
36.2012
36.2152
36.2364
36.265
36.3015
36.346
36.3989
36.4603
36.5305
36.6097
36.698
36.7954
36.9021
37.018
37.1432
37.2777
37.4214
37.574
37.7357
37.9061
38.085
38.2723
38.4677
38.6709
38.8815
39.0994
39.3242
39.5554
39.7928
40.0359
40.2844
40.5379
40.7959
41.0581
41.3242
41.5936
41.8661
42.1412
42.4186
42.6979
42.9789
43.2611
43.5444
43.8283
44.1127
44.3973
44.6819
44.9663
45.2503
45.5338
45.8165
46.0985
46.3796
46.6597
46.9388
47.2167
47.4936
47.7692
48.0437
48.3171
48.5892
48.8602
49.1299
49.3985
49.6659
49.9321
50.1971
50.4608
50.7233
50.9844
51.2441
51.5023
51.759
52.0139
52.267
52.5181
52.7671
53.0137
53.2578
53.4991
53.7374
53.9724
54.2039
54.4316
54.6552
54.8745
55.0891
55.2988
55.5033
55.7024
55.8958
56.0832
56.2646
56.4397
56.6083
56.7703
56.9258
57.0745
57.2166
57.352
57.4808
57.6031
57.7191
57.8289
57.9327
58.0307
58.1233
58.2107
58.2932
58.3712
58.4449
58.5148
58.581
58.6441
58.7044
58.7621
58.8176
58.8711
58.9231
58.9736
59.023
59.0713
59.1188
59.1656
59.2116
59.257
59.3018
59.3458
59.389
59.4312
59.4723
59.5121
59.5503
59.5869
59.6215
59.654
59.6842
59.712
59.7375
59.7606
59.7812
59.7996
59.8156
59.8293
59.8406
59.8491
59.854
59.8544
59.8485
59.8339
59.8071
59.7637
59.6977
59.6015
59.4657
59.2783
59.0246
58.686
58.2393
57.6542
56.8913
55.896
54.5938
52.8652
50.5576
47.2918
42.8442
35.0935
25.5409
-1.9542
37.2932
37.2077
37.1665
37.1461
37.1249
37.1041
37.083
37.0574
37.0251
36.986
36.9409
36.8897
36.8356
36.7796
36.7227
36.6663
36.6112
36.5589
36.5095
36.4636
36.4213
36.383
36.3488
36.3189
36.2935
36.2728
36.2573
36.2471
36.2427
36.2443
36.2524
36.2673
36.2893
36.3188
36.3559
36.4011
36.4546
36.5165
36.5872
36.6667
36.7551
36.8527
36.9595
37.0754
37.2005
37.3347
37.478
37.6303
37.7914
37.9612
38.1395
38.326
38.5205
38.7228
38.9326
39.1494
39.3731
39.6032
39.8394
40.0813
40.3286
40.5808
40.8376
41.0986
41.3634
41.6316
41.9028
42.1766
42.4528
42.731
43.0108
43.2919
43.5741
43.857
44.1404
44.4241
44.7078
44.9913
45.2745
45.5573
45.8393
46.1207
46.4012
46.6808
46.9593
47.2369
47.5133
47.7887
48.0629
48.3359
48.6078
48.8785
49.1481
49.4165
49.6836
49.9496
50.2144
50.4778
50.74
51.0008
51.2601
51.5179
51.774
52.0284
52.2808
52.5312
52.7793
53.0249
53.2679
53.5079
53.7449
53.9784
54.2083
54.4343
54.656
54.8733
55.0858
55.2933
55.4954
55.692
55.8828
56.0677
56.2463
56.4186
56.5844
56.7436
56.8961
57.042
57.1812
57.3137
57.4397
57.5593
57.6725
57.7797
57.8809
57.9765
58.0666
58.1517
58.232
58.3077
58.3793
58.4471
58.5115
58.5727
58.631
58.6869
58.7406
58.7923
58.8424
58.891
58.9384
58.9847
59.03
59.0743
59.1178
59.1603
59.2018
59.2422
59.2813
59.319
59.355
59.389
59.4208
59.4501
59.4767
59.5003
59.5207
59.5379
59.5517
59.5621
59.5691
59.5727
59.5731
59.5702
59.5638
59.5535
59.5388
59.5185
59.491
59.4536
59.4031
59.3347
59.2423
59.118
58.9517
58.7307
58.4389
58.0563
57.5572
56.9082
56.0655
54.968
53.5318
51.6231
49.0654
45.4489
40.4528
32.0825
20.8046
-1.39483
37.3128
37.2288
37.1732
37.136
37.1114
37.0937
37.0755
37.0521
37.0218
36.9848
36.9421
36.8966
36.8476
36.7967
36.7455
36.6948
36.6448
36.5967
36.5506
36.5069
36.4659
36.4282
36.3942
36.3643
36.339
36.3186
36.3034
36.2939
36.2902
36.2927
36.3017
36.3176
36.3405
36.3708
36.4088
36.4547
36.5088
36.5713
36.6425
36.7224
36.8112
36.909
37.0158
37.1317
37.2567
37.3908
37.5338
37.6857
37.8463
38.0156
38.1932
38.379
38.5727
38.7741
38.9829
39.1987
39.4213
39.6503
39.8854
40.1261
40.3722
40.6232
40.8788
41.1385
41.402
41.669
41.939
42.2117
42.4867
42.7637
43.0424
43.3224
43.6036
43.8855
44.168
44.4508
44.7337
45.0165
45.299
45.581
45.8625
46.1434
46.4234
46.7025
46.9807
47.2579
47.5341
47.8092
48.0832
48.3561
48.6278
48.8984
49.1678
49.4361
49.7032
49.969
50.2336
50.4969
50.7588
51.0193
51.2783
51.5357
51.7913
52.0451
52.2969
52.5465
52.7937
53.0383
53.2801
53.519
53.7545
53.9865
54.2147
54.4389
54.6586
54.8738
55.0841
55.2892
55.4889
55.6829
55.871
56.0531
56.2289
56.3983
56.5611
56.7174
56.867
57.0099
57.1462
57.2758
57.3989
57.5157
57.6261
57.7306
57.8292
57.9222
58.0099
58.0926
58.1705
58.244
58.3135
58.3792
58.4415
58.5008
58.5572
58.6112
58.663
58.7129
58.7612
58.8079
58.8533
58.8975
58.9406
58.9825
59.0234
59.063
59.1013
59.1382
59.1733
59.2065
59.2374
59.2658
59.2913
59.3136
59.3323
59.3471
59.358
59.3647
59.367
59.365
59.3586
59.3479
59.3328
59.3135
59.2896
59.2608
59.2265
59.1853
59.1358
59.0753
59.0005
58.9065
58.7872
58.6342
58.437
58.182
57.8523
57.4262
56.8759
56.1653
55.2462
54.0522
52.4912
50.4185
47.6384
43.7323
38.307
29.7158
17.485
-1.4258
37.325
37.243
37.187
37.1517
37.1283
37.1081
37.0855
37.0583
37.0256
36.9876
36.9453
36.9003
36.8522
36.8026
36.7528
36.704
36.6571
36.6118
36.5689
36.5287
36.4917
36.458
36.4279
36.4015
36.3793
36.3614
36.3482
36.3401
36.3376
36.341
36.3507
36.3672
36.3907
36.4216
36.4602
36.5067
36.5614
36.6245
36.6962
36.7765
36.8656
36.9636
37.0706
37.1866
37.3115
37.4454
37.5882
37.7397
37.8999
38.0686
38.2455
38.4306
38.6236
38.8241
39.0319
39.2468
39.4684
39.6963
39.9302
40.1698
40.4147
40.6645
40.9189
41.1774
41.4397
41.7055
41.9743
42.2458
42.5197
42.7957
43.0733
43.3524
43.6326
43.9136
44.1952
44.4772
44.7594
45.0415
45.3234
45.605
45.886
46.1664
46.446
46.7249
47.0028
47.2798
47.5559
47.8308
48.1047
48.3775
48.6493
48.9198
49.1892
49.4575
49.7245
49.9903
50.2548
50.518
50.7798
51.0401
51.2988
51.5558
51.811
52.0642
52.3153
52.5641
52.8104
53.054
53.2947
53.5322
53.7663
53.9967
54.2231
54.4454
54.6631
54.8761
55.084
55.2867
55.4838
55.6752
55.8605
56.0398
56.2127
56.3791
56.539
56.6922
56.8388
56.9787
57.112
57.2386
57.3588
57.4727
57.5803
57.682
57.7779
57.8683
57.9535
58.0337
58.1092
58.1805
58.2477
58.3113
58.3715
58.4288
58.4833
58.5353
58.5853
58.6333
58.6796
58.7245
58.7679
58.81
58.8509
58.8905
58.9288
58.9657
59.0009
59.0343
59.0655
59.0944
59.1205
59.1433
59.1627
59.1781
59.1891
59.1955
59.1971
59.1936
59.1849
59.1708
59.1515
59.1268
59.0969
59.0615
59.0206
58.9735
58.9196
58.8577
58.786
58.7021
58.6025
58.4824
58.3354
58.1531
57.9245
57.6355
57.268
56.799
56.199
55.4293
54.4383
53.1548
51.4803
49.2627
46.2927
42.1609
36.4209
27.8009
15.1135
-2.06356
37.3336
37.2565
37.2022
37.1661
37.1385
37.113
37.0865
37.0574
37.0245
36.9874
36.9466
36.9031
36.8571
36.8098
36.7624
36.7158
36.6707
36.627
36.5856
36.5469
36.5113
36.479
36.4504
36.4259
36.4057
36.3902
36.3796
36.3743
36.3745
36.3807
36.393
36.4117
36.4372
36.4698
36.5098
36.5574
36.6129
36.6766
36.7487
36.8294
36.9187
37.0169
37.124
37.2399
37.3647
37.4984
37.6409
37.792
37.9518
38.1199
38.2962
38.4806
38.6727
38.8724
39.0793
39.2932
39.5138
39.7406
39.9735
40.2119
40.4557
40.7043
40.9575
41.2149
41.476
41.7407
42.0084
42.2788
42.5517
42.8266
43.1033
43.3814
43.6608
43.941
44.2219
44.5032
44.7848
45.0664
45.3478
45.6289
45.9095
46.1896
46.4691
46.7477
47.0256
47.3025
47.5785
47.8535
48.1274
48.4003
48.6721
48.9427
49.2123
49.4806
49.7477
50.0136
50.2781
50.5412
50.8029
51.0631
51.3215
51.5782
51.833
52.0857
52.3362
52.5842
52.8296
53.0721
53.3116
53.5478
53.7804
54.0091
54.2337
54.454
54.6696
54.8804
55.0859
55.286
55.4805
55.6692
55.8517
56.0281
56.198
56.3614
56.5183
56.6684
56.8119
56.9488
57.079
57.2026
57.3198
57.4307
57.5354
57.6343
57.7274
57.8151
57.8976
57.9753
58.0484
58.1173
58.1822
58.2436
58.3017
58.3568
58.4093
58.4595
58.5075
58.5536
58.5981
58.641
58.6825
58.7226
58.7613
58.7987
58.8345
58.8687
58.9009
58.931
58.9586
58.9833
59.0046
59.0222
59.0356
59.0444
59.0481
59.0464
59.0391
59.0259
59.0065
58.981
58.9492
58.9112
58.8669
58.8161
58.7585
58.6935
58.6205
58.538
58.4443
58.3369
58.2122
58.0654
57.8903
57.678
57.4176
57.0942
56.6891
56.1781
55.5301
54.7042
53.6462
52.2812
50.506
48.1645
45.0396
40.7424
34.7934
26.2434
13.537
-2.24746
37.3403
37.2684
37.2152
37.1774
37.1467
37.1183
37.0901
37.0601
37.0269
36.9902
36.9503
36.9078
36.8634
36.8179
36.7724
36.7276
36.6842
36.6423
36.6028
36.5659
36.5321
36.5016
36.4747
36.4518
36.4331
36.4191
36.4099
36.4059
36.4075
36.4149
36.4286
36.4488
36.4759
36.5101
36.5516
36.6009
36.658
36.7231
36.7965
36.8783
36.9686
37.0674
37.1749
37.2911
37.416
37.5496
37.6919
37.8427
38.002
38.1695
38.3452
38.5289
38.7202
38.919
39.125
39.338
39.5575
39.7833
40.015
40.2524
40.495
40.7425
40.9946
41.2508
41.5109
41.7744
42.0411
42.3105
42.5824
42.8564
43.1322
43.4096
43.6881
43.9677
44.2479
44.5287
44.8097
45.0909
45.3719
45.6527
45.9332
46.2131
46.4924
46.7711
47.0489
47.3259
47.602
47.8771
48.1512
48.4243
48.6963
48.9672
49.237
49.5055
49.7728
50.0388
50.3034
50.5666
50.8283
51.0884
51.3467
51.6031
51.8575
52.1097
52.3595
52.6068
52.8513
53.0928
53.331
53.5658
53.7969
54.0239
54.2467
54.465
54.6785
54.8869
55.09
55.2876
55.4794
55.6652
55.8449
56.0183
56.1852
56.3456
56.4993
56.6463
56.7867
56.9203
57.0474
57.1679
57.282
57.3898
57.4916
57.5875
57.6778
57.7627
57.8425
57.9175
57.988
58.0545
58.117
58.1761
58.232
58.2851
58.3356
58.3837
58.4298
58.4741
58.5167
58.5577
58.5973
58.6355
58.6722
58.7074
58.7409
58.7725
58.8019
58.8289
58.8529
58.8736
58.8905
58.9031
58.9108
58.9133
58.91
58.9007
58.8848
58.8624
58.833
58.7966
58.753
58.7023
58.6442
58.5785
58.5048
58.4225
58.3307
58.228
58.1126
57.9818
57.832
57.6585
57.4548
57.2122
56.9194
56.5615
56.119
55.5668
54.8725
53.9937
52.874
51.4362
49.574
47.1305
43.886
39.4791
33.4188
25.0154
12.6234
-1.87499
37.3459
37.2786
37.2265
37.1874
37.1546
37.1242
37.0942
37.063
37.0294
36.9928
36.9535
36.9122
36.8693
36.8255
36.7818
36.7388
36.6971
36.6572
36.6194
36.5843
36.5522
36.5235
36.4983
36.4772
36.4602
36.4478
36.4403
36.438
36.4412
36.4502
36.4653
36.4869
36.5152
36.5506
36.5932
36.6433
36.7012
36.7671
36.8412
36.9236
37.0144
37.1138
37.2217
37.3383
37.4635
37.5973
37.7396
37.8904
38.0495
38.2167
38.392
38.5751
38.7658
38.9639
39.1691
39.3811
39.5996
39.8244
40.0551
40.2914
40.5329
40.7794
41.0303
41.2855
41.5445
41.807
42.0727
42.3411
42.6121
42.8852
43.1603
43.4368
43.7147
43.9937
44.2734
44.5537
44.8343
45.1152
45.396
45.6766
45.957
46.2369
46.5162
46.795
47.0729
47.3501
47.6265
47.9019
48.1763
48.4497
48.7221
48.9933
49.2634
49.5323
49.7999
50.0661
50.331
50.5943
50.8561
51.1161
51.3743
51.6305
51.8846
52.1363
52.3856
52.6321
52.8757
53.1161
53.3532
53.5866
53.8161
54.0414
54.2624
54.4786
54.6898
54.8959
55.0965
55.2915
55.4806
55.6636
55.8403
56.0106
56.1744
56.3316
56.4821
56.6259
56.763
56.8934
57.0172
57.1345
57.2454
57.3501
57.4488
57.5416
57.6289
57.7109
57.788
57.8603
57.9282
57.9921
58.0523
58.1091
58.1628
58.2137
58.2621
58.3083
58.3525
58.3949
58.4356
58.4749
58.5126
58.549
58.5837
58.6169
58.6482
58.6774
58.7042
58.7282
58.7489
58.7659
58.7785
58.7864
58.7888
58.7853
58.7755
58.7588
58.7351
58.7039
58.665
58.6183
58.5636
58.5007
58.4295
58.3495
58.2604
58.1614
58.0514
57.9291
57.7923
57.6385
57.464
57.2638
57.0314
56.7583
56.433
56.0404
55.5608
54.9684
54.2298
53.3014
52.1256
50.6238
48.6886
46.1648
42.835
38.3684
32.2835
24.0891
12.2073
-1.17505
37.3506
37.2872
37.2363
37.1964
37.1621
37.1299
37.0985
37.0663
37.0322
36.9959
36.9573
36.9171
36.8755
36.8333
36.7913
36.7499
36.71
36.6717
36.6357
36.6023
36.5719
36.5448
36.5213
36.5017
36.4864
36.4757
36.4698
36.4691
36.4739
36.4845
36.5011
36.5242
36.5539
36.5906
36.6345
36.6858
36.7448
36.8117
36.8865
36.9696
37.061
37.1608
37.269
37.3857
37.5109
37.6446
37.7867
37.9371
38.0958
38.2626
38.4373
38.6198
38.8099
39.0072
39.2116
39.4228
39.6404
39.8643
40.094
40.3293
40.5699
40.8153
41.0652
41.3194
41.5774
41.8389
42.1036
42.3712
42.6413
42.9137
43.1879
43.4638
43.7411
44.0195
44.2988
44.5787
44.8591
45.1397
45.4204
45.701
45.9813
46.2613
46.5408
46.8198
47.098
47.3755
47.6522
47.9281
48.2029
48.4768
48.7496
49.0213
49.2919
49.5612
49.8292
50.0958
50.361
50.6246
50.8865
51.1466
51.4047
51.6608
51.9145
52.1659
52.4145
52.6604
52.9031
53.1425
53.3783
53.6103
53.8382
54.0618
54.2808
54.4949
54.7039
54.9076
55.1056
55.2979
55.4841
55.6641
55.8378
56.005
56.1656
56.3195
56.4667
56.6072
56.7409
56.8679
56.9884
57.1024
57.21
57.3114
57.4069
57.4966
57.5809
57.66
57.7341
57.8037
57.8689
57.9303
57.988
58.0424
58.0939
58.1427
58.189
58.2333
58.2756
58.3162
58.3552
58.3927
58.4288
58.4633
58.4963
58.5276
58.5569
58.5839
58.6082
58.6295
58.6471
58.6605
58.6692
58.6725
58.67
58.661
58.645
58.6216
58.5904
58.551
58.5033
58.4469
58.3816
58.3072
58.2234
58.1299
58.0259
57.9108
57.7833
57.6419
57.4845
57.3083
57.1094
56.8829
56.6223
56.3188
55.9611
55.5339
55.0176
54.3859
53.605
52.6305
51.4041
49.8471
47.8526
45.2695
41.8864
37.4042
31.3664
23.4277
12.1554
-0.253686
37.3546
37.2948
37.245
37.2046
37.169
37.1355
37.1029
37.0699
37.0355
36.9994
36.9615
36.9222
36.8819
36.8411
36.8006
36.7609
36.7225
36.6859
36.6515
36.6197
36.5909
36.5654
36.5435
36.5256
36.5119
36.5027
36.4984
36.4992
36.5055
36.5175
36.5356
36.5601
36.5912
36.6292
36.6743
36.7268
36.7869
36.8548
36.9306
37.0145
37.1066
37.207
37.3157
37.4328
37.5582
37.6921
37.8342
37.9845
38.143
38.3094
38.4837
38.6656
38.8549
39.0515
39.255
39.4653
39.682
39.9049
40.1336
40.3678
40.6073
40.8516
41.1005
41.3536
41.6107
41.8712
42.135
42.4017
42.671
42.9426
43.2162
43.4915
43.7682
44.0461
44.325
44.6046
44.8848
45.1652
45.4459
45.7265
46.0069
46.2871
46.5668
46.8461
47.1247
47.4027
47.6799
47.9562
48.2316
48.506
48.7794
49.0517
49.3228
49.5927
49.8612
50.1282
50.3938
50.6577
50.9198
51.18
51.4382
51.6941
51.9476
52.1986
52.4467
52.6918
52.9336
53.1719
53.4065
53.637
53.8633
54.0851
54.302
54.514
54.7206
54.9217
55.1171
55.3065
55.4898
55.6667
55.8372
56.0012
56.1584
56.309
56.4528
56.5898
56.7201
56.8437
56.9607
57.0712
57.1755
57.2736
57.3659
57.4524
57.5336
57.6097
57.6809
57.7477
57.8103
57.869
57.9243
57.9763
58.0255
58.0722
58.1165
58.1588
58.1993
58.2382
58.2756
58.3115
58.3459
58.3789
58.4103
58.4398
58.4673
58.4922
58.5143
58.5329
58.5476
58.5578
58.5628
58.5621
58.5549
58.5407
58.519
58.4893
58.4511
58.4042
58.3481
58.2825
58.2073
58.122
58.0264
57.9198
57.8018
57.6712
57.5269
57.3672
57.1898
56.9918
56.7692
56.5171
56.2287
55.8954
55.5056
55.0444
54.492
53.8222
53.001
51.9839
50.7123
49.1087
47.0678
44.4447
41.0372
36.5772
30.6432
22.9947
12.3767
0.856831
37.3582
37.3013
37.2528
37.212
37.1754
37.1409
37.1073
37.0737
37.0392
37.0032
36.9659
36.9275
36.8883
36.8489
36.8098
36.7716
36.7348
36.6998
36.6669
36.6367
36.6094
36.5855
36.5651
36.5487
36.5365
36.5288
36.526
36.5283
36.536
36.5495
36.569
36.5948
36.6272
36.6664
36.7127
36.7663
36.8274
36.8962
36.9729
37.0576
37.1504
37.2514
37.3606
37.4781
37.6039
37.738
37.8802
38.0306
38.189
38.3553
38.5293
38.7108
38.8998
39.0958
39.2988
39.5084
39.7244
39.9464
40.1743
40.4077
40.6462
40.8896
41.1375
41.3897
41.6458
41.9054
42.1683
42.4341
42.7026
42.9734
43.2463
43.521
43.7972
44.0747
44.3532
44.6325
44.9124
45.1928
45.4734
45.7541
46.0347
46.3151
46.5951
46.8747
47.1538
47.4323
47.71
47.9869
48.2629
48.538
48.812
49.0849
49.3567
49.6271
49.8962
50.1637
50.4297
50.6939
50.9563
51.2167
51.4748
51.7307
51.9839
52.2344
52.4819
52.7262
52.967
53.2042
53.4374
53.6664
53.8909
54.1107
54.3256
54.5352
54.7393
54.9378
55.1304
55.3169
55.4971
55.6709
55.8381
55.9987
56.1526
56.2997
56.44
56.5735
56.7003
56.8204
56.934
57.0411
57.1419
57.2367
57.3257
57.4091
57.4871
57.5601
57.6285
57.6924
57.7522
57.8084
57.8612
57.9109
57.9578
58.0024
58.0448
58.0853
58.124
58.1613
58.1971
58.2316
58.2646
58.2961
58.326
58.354
58.3797
58.4028
58.4227
58.4391
58.4511
58.4583
58.4599
58.4553
58.4439
58.4249
58.3979
58.3623
58.3176
58.2636
58.1997
58.1256
58.0409
57.9454
57.8385
57.7196
57.588
57.4427
57.2823
57.1049
56.9083
56.6894
56.444
56.1671
55.8518
55.4894
55.0684
54.5739
53.9863
53.2797
52.4203
51.3638
50.0525
48.4101
46.3349
43.6891
40.2825
35.876
30.0891
22.7555
12.8037
2.1156
37.3614
37.307
37.2596
37.2187
37.1814
37.1461
37.1118
37.0777
37.043
37.0073
36.9705
36.9329
36.8948
36.8567
36.819
36.7822
36.7468
36.7132
36.6819
36.6532
36.6274
36.6049
36.586
36.5711
36.5603
36.5541
36.5527
36.5564
36.5655
36.5804
36.6012
36.6283
36.6619
36.7023
36.7497
36.8044
36.8665
36.9362
37.0137
37.0991
37.1925
37.2941
37.4038
37.5217
37.6478
37.782
37.9244
38.0748
38.2331
38.3993
38.5731
38.7543
38.9429
39.1386
39.341
39.5501
39.7655
39.987
40.2142
40.4469
40.6847
40.9274
41.1747
41.4261
41.6814
41.9404
42.2026
42.4677
42.7356
43.0058
43.2782
43.5524
43.8282
44.1053
44.3835
44.6626
44.9424
45.2227
45.5033
45.7841
46.0649
46.3456
46.626
46.906
47.1856
47.4645
47.7428
48.0204
48.297
48.5728
48.8475
49.1211
49.3934
49.6645
49.9341
50.2021
50.4685
50.7331
50.9957
51.2561
51.5143
51.7699
52.0228
52.2727
52.5196
52.763
53.0027
53.2386
53.4704
53.6977
53.9204
54.1381
54.3508
54.558
54.7596
54.9553
55.145
55.3285
55.5056
55.6762
55.8402
55.9974
56.1479
56.2915
56.4283
56.5583
56.6815
56.7981
56.9082
57.0119
57.1093
57.2007
57.2864
57.3665
57.4414
57.5114
57.5768
57.6378
57.695
57.7485
57.7988
57.8462
57.891
57.9336
57.9741
58.0128
58.05
58.0858
58.1202
58.1533
58.1851
58.2153
58.2439
58.2704
58.2946
58.316
58.334
58.3482
58.3578
58.3622
58.3607
58.3526
58.3372
58.3138
58.2818
58.2408
58.1902
58.1295
58.0582
57.9761
57.8826
57.7773
57.6597
57.5292
57.3848
57.2254
57.0496
56.8554
56.6404
56.4013
56.1341
55.8333
55.4921
55.1016
54.6505
54.1238
53.5022
52.7603
51.8648
50.7724
49.4262
47.7525
45.6536
43.0002
39.6155
35.2878
29.6793
22.6767
13.3808
3.47173
37.3643
37.3121
37.2657
37.2248
37.1871
37.1511
37.1163
37.0818
37.047
37.0115
36.9753
36.9385
36.9014
36.8644
36.8279
36.7925
36.7585
36.7263
36.6964
36.6691
36.6448
36.6237
36.6062
36.5927
36.5834
36.5785
36.5785
36.5836
36.5941
36.6102
36.6323
36.6606
36.6954
36.7369
36.7854
36.8411
36.9041
36.9747
37.053
37.1391
37.2331
37.3352
37.4454
37.5636
37.69
37.8244
37.9668
38.1173
38.2755
38.4415
38.6151
38.7961
38.9844
39.1796
39.3816
39.5902
39.8051
40.026
40.2526
40.4847
40.7219
40.964
41.2106
41.4614
41.7161
41.9745
42.2361
42.5008
42.7682
43.038
43.31
43.5839
43.8594
44.1363
44.4144
44.6935
44.9733
45.2537
45.5345
45.8155
46.0966
46.3776
46.6585
46.939
47.2191
47.4986
47.7776
48.0558
48.3331
48.6095
48.8849
49.1592
49.4322
49.7038
49.974
50.2425
50.5093
50.7741
51.0369
51.2974
51.5554
51.8108
52.0633
52.3127
52.5587
52.8012
53.0398
53.2744
53.5046
53.7302
53.951
54.1667
54.377
54.5818
54.7808
54.9738
55.1606
55.3411
55.5151
55.6825
55.8432
55.9971
56.1441
56.2843
56.4176
56.5441
56.6638
56.7769
56.8834
56.9836
57.0776
57.1657
57.248
57.3249
57.3966
57.4635
57.5259
57.5842
57.6386
57.6896
57.7375
57.7826
57.8254
57.866
57.9048
57.942
57.9777
58.0122
58.0453
58.0773
58.1078
58.1369
58.1643
58.1895
58.2123
58.2322
58.2485
58.2607
58.2681
58.27
58.2656
58.2542
58.2351
58.2076
58.1711
58.1251
58.0688
58.0019
57.9238
57.8341
57.7323
57.6178
57.4901
57.3485
57.1919
57.0191
56.8287
56.6185
56.3859
56.1277
55.8395
55.5158
55.1499
54.7326
54.2526
53.6952
53.0411
52.2657
51.3364
50.2111
48.8347
47.1363
45.023
42.3746
39.0289
34.7994
29.3903
22.7265
14.0622
4.87917
37.3669
37.3167
37.2712
37.2303
37.1923
37.1559
37.1207
37.0859
37.0511
37.0159
36.9801
36.944
36.9079
36.872
36.8367
36.8025
36.7698
36.739
36.7105
36.6845
36.6616
36.6419
36.6258
36.6136
36.6056
36.6021
36.6034
36.6098
36.6216
36.6389
36.6623
36.6917
36.7277
36.7703
36.8198
36.8764
36.9403
37.0118
37.0908
37.1776
37.2722
37.3748
37.4854
37.604
37.7306
37.8652
38.0078
38.1582
38.3164
38.4823
38.6557
38.8364
39.0243
39.2192
39.4208
39.6289
39.8432
40.0636
40.2896
40.5211
40.7577
40.9992
41.2452
41.4954
41.7496
42.0074
42.2686
42.5328
42.7998
43.0693
43.3409
43.6146
43.8899
44.1667
44.4448
44.7239
45.0038
45.2844
45.5654
45.8468
46.1283
46.4098
46.6911
46.9722
47.2529
47.5332
47.8128
48.0917
48.3698
48.6469
48.923
49.198
49.4717
49.7439
50.0146
50.2837
50.5508
50.816
51.0789
51.3394
51.5974
51.8525
52.1045
52.3533
52.5986
52.8401
53.0776
53.3108
53.5395
53.7634
53.9823
54.1959
54.404
54.6064
54.8028
54.9931
55.1771
55.3546
55.5256
55.6898
55.8472
55.9977
56.1413
56.278
56.4078
56.5308
56.647
56.7566
56.8596
56.9563
57.0469
57.1316
57.2106
57.2842
57.3528
57.4166
57.4761
57.5315
57.5833
57.6318
57.6774
57.7205
57.7613
57.8001
57.8373
57.8731
57.9075
57.9407
57.9728
58.0037
58.0333
58.0613
58.0876
58.1117
58.1332
58.1517
58.1664
58.1768
58.1822
58.1817
58.1746
58.1602
58.1378
58.1065
58.0659
58.0151
57.9536
57.8809
57.7964
57.6995
57.5899
57.4668
57.3296
57.1774
57.0093
56.8238
56.6195
56.394
56.1447
55.8683
55.5602
55.2149
54.8253
54.3826
53.8752
53.2886
52.6039
51.7969
50.8362
49.681
48.2787
46.5615
44.4418
41.8088
38.515
34.3974
29.2
22.8754
14.8098
6.30046
37.3693
37.3207
37.2761
37.2354
37.1972
37.1606
37.125
37.0901
37.0553
37.0203
36.985
36.9496
36.9143
36.8794
36.8453
36.8123
36.7808
36.7513
36.7241
36.6994
36.6778
36.6594
36.6446
36.6338
36.6271
36.6249
36.6274
36.6351
36.648
36.6666
36.6911
36.7217
36.7588
36.8024
36.8529
36.9104
36.9752
37.0474
37.1272
37.2146
37.3099
37.4129
37.5239
37.6429
37.7697
37.9045
38.0472
38.1976
38.3558
38.5215
38.6947
38.8752
39.0628
39.2573
39.4585
39.6661
39.88
40.0998
40.3254
40.5563
40.7924
41.0333
41.2787
41.5284
41.7821
42.0394
42.3001
42.5639
42.8305
43.0996
43.3711
43.6445
43.9197
44.1964
44.4745
44.7537
45.0337
45.3145
45.5959
45.8776
46.1595
46.4415
46.7234
47.0051
47.2865
47.5674
47.8478
48.1274
48.4063
48.6842
48.9611