/*--------------------------------*- C++ -*----------------------------------*\
| =========                 |                                                 |
| \\      /  F ield         | OpenFOAM: The Open Source CFD Toolbox           |
|  \\    /   O peration     | Version:  2.4.0                                 |
|   \\  /    A nd           | Web:      www.OpenFOAM.org                      |
|    \\/     M anipulation  |                                                 |
\*---------------------------------------------------------------------------*/
FoamFile
{
    version     2.0;
    format      ascii;
    class       volScalarField;
    location    "0.278";
    object      p;
}
// * * * * * * * * * * * * * * * * * * * * * * * * * * * * * * * * * * * * * //

dimensions      [0 2 -2 0 0 0 0];

internalField   nonuniform List<scalar> 
17600
(
109.409
93.727
89.2944
88.2118
87.1902
86.2719
85.4317
84.5774
83.8857
83.1987
82.4021
81.749
81.1493
80.41
79.9021
79.3532
78.9061
78.5861
77.8449
78.0555
107.501
93.7769
89.335
88.2216
87.1937
86.2718
85.4327
84.5776
83.8851
83.1998
82.4019
81.7481
81.1503
80.41
79.9014
79.3543
78.9056
78.5915
77.846
78.1108
106.088
94.0326
89.4788
88.2601
87.2075
86.2757
85.4358
84.5788
83.8861
83.2016
82.4013
81.7473
81.1511
80.409
79.9002
79.354
78.9041
78.5979
77.8506
78.2007
105.112
94.3731
89.6993
88.3252
87.2366
86.2906
85.4451
84.5842
83.8907
83.205
82.4016
81.7471
81.1511
80.4071
79.8977
79.3517
78.8998
78.6003
77.8621
78.3025
104.29
94.7068
89.9646
88.4065
87.2787
86.3194
85.464
84.5982
83.9019
83.2114
82.4054
81.7484
81.1503
80.4053
79.8937
79.3474
78.8919
78.596
77.8797
78.393
103.516
94.9983
90.2436
88.4874
87.3208
86.3561
85.491
84.6217
83.9207
83.2217
82.4146
81.7521
81.1488
80.4051
79.8882
79.3413
78.8787
78.5844
77.8922
78.47
102.787
95.2449
90.5216
88.563
87.3532
86.39
85.5202
84.6515
83.9447
83.2345
82.4291
81.758
81.1468
80.407
79.8814
79.3338
78.8598
78.5622
77.9023
78.424
102.113
95.4491
90.7922
88.6356
87.3757
86.4157
85.5477
84.6842
83.9704
83.2472
82.4472
81.7642
81.1441
80.4103
79.8735
79.3255
78.8345
78.5289
77.9089
78.5668
101.499
95.6148
91.0473
88.7108
87.39
86.4327
85.5714
84.7179
83.9961
83.259
82.466
81.7705
81.1392
80.4153
79.8627
79.3183
78.8003
78.4892
77.8913
78.4832
100.949
95.7438
91.2832
88.7904
87.3986
86.4408
85.5919
84.7498
84.021
83.2703
82.4839
81.7758
81.1336
80.4198
79.8508
79.3111
78.7624
78.4478
77.8724
78.4983
100.461
95.8384
91.4993
88.8746
87.4026
86.4416
85.6083
84.7795
84.0454
83.2807
82.5003
81.7806
81.1268
80.4238
79.8401
79.2982
78.7332
78.4133
77.8647
78.5294
100.031
95.9021
91.6951
88.9633
87.4028
86.4361
85.621
84.8069
84.0686
83.2902
82.5147
81.7851
81.1186
80.4278
79.8289
79.2853
78.7098
78.3796
77.8758
78.5493
99.6579
95.9404
91.8709
89.0551
87.4006
86.4256
85.6307
84.8319
84.0904
83.299
82.5268
81.7898
81.1084
80.4328
79.8166
79.2738
78.6896
78.3432
77.8972
78.5355
99.3384
95.9605
92.0262
89.1448
87.3981
86.4118
85.638
84.8547
84.11
83.3064
82.5381
81.7927
81.0989
80.4355
79.8092
79.2561
78.6769
78.3141
77.8902
78.496
99.0691
95.97
92.1596
89.2255
87.3969
86.3972
85.6429
84.8752
84.1271
83.3131
82.5475
81.795
81.0903
80.4376
79.8004
79.243
78.6612
78.2895
77.8685
78.4439
98.8474
95.9738
92.27
89.2942
87.3975
86.3829
85.6456
84.8938
84.1412
83.319
82.5548
81.7977
81.0808
80.4406
79.7904
79.2305
78.6497
78.2622
77.8876
78.3142
98.6725
95.974
92.3572
89.3499
87.4002
86.3687
85.6473
84.9097
84.153
83.3221
82.5619
81.798
81.0739
80.4394
79.7929
79.2037
78.6513
78.2336
77.9257
78.2606
98.5423
95.9729
92.4212
89.3927
87.4033
86.3581
85.6474
84.9237
84.16
83.3259
82.5642
81.8004
81.066
80.4401
79.7665
79.1997
78.6302
78.2102
77.8645
78.1791
98.4567
95.9713
92.4633
89.4212
87.407
86.3498
85.6468
84.9343
84.1642
83.3274
82.5678
81.8005
81.06
80.4385
79.7717
79.1849
78.6234
78.1802
77.8143
78.2298
98.4141
95.9703
92.4841
89.4352
87.4098
86.3455
85.6455
84.9417
84.1647
83.3275
82.57
81.8006
81.0556
80.4358
79.7711
79.166
78.6356
78.1571
77.7821
78.1812
98.4146
95.9705
92.484
89.4341
87.4118
86.3449
85.6433
84.9466
84.1611
83.3263
82.5708
81.8025
81.0516
80.4342
79.7635
79.1642
78.5852
78.1437
77.7734
77.946
98.4581
95.9715
92.4634
89.4176
87.4129
86.3475
85.6421
84.9476
84.1554
83.3203
82.5719
81.7958
81.0515
80.4253
79.7693
79.1464
78.6062
78.1148
77.8417
78.0144
98.5445
95.9736
92.4211
89.387
87.4129
86.3537
85.6381
84.9469
84.1442
83.3173
82.5704
81.7969
81.0447
80.4365
79.7626
79.1437
78.5776
78.1025
77.7214
77.9595
98.6756
95.9749
92.3571
89.3417
87.4141
86.3619
85.635
84.9412
84.1318
83.309
82.5696
81.7937
81.0473
80.4252
79.7637
79.1338
78.5685
78.074
77.6931
77.9947
98.8513
95.9753
92.2693
89.2837
87.4157
86.3723
85.6303
84.9329
84.1156
83.3008
82.5666
81.7932
81.0442
80.4222
79.7615
79.1289
78.558
78.0526
77.6652
77.9664
99.0742
95.9722
92.1578
89.2128
87.4199
86.3828
85.6247
84.9209
84.0978
83.2901
82.5631
81.7913
81.0424
80.4177
79.7599
79.1254
78.546
78.0506
77.607
77.7749
99.3448
95.9638
92.0233
89.1302
87.4264
86.3931
85.618
84.9051
84.0784
83.2771
82.5594
81.7874
81.0425
80.4103
79.7633
79.1184
78.5428
78.0176
77.7171
77.7504
99.6651
95.946
91.866
89.0398
87.4338
86.4031
85.6087
84.8869
84.056
83.265
82.5518
81.786
81.0385
80.4084
79.7599
79.1219
78.5237
78.0239
77.5592
77.699
100.039
95.9098
91.6881
88.9453
87.4422
86.4089
85.5976
84.8654
84.0339
83.2496
82.5445
81.7817
81.0368
80.4026
79.7622
79.1203
78.5173
78.0006
77.5328
77.7317
100.469
95.8489
91.4897
88.8547
87.4475
86.4104
85.5829
84.8416
84.0113
83.2332
82.5349
81.7766
81.0351
80.3957
79.7664
79.1181
78.5144
77.9892
77.5175
77.5895
100.957
95.7562
91.2712
88.7685
87.4483
86.4064
85.5648
84.8156
83.9875
83.2168
82.5224
81.7714
81.0318
80.3895
79.7686
79.1192
78.5068
78.0001
77.4794
77.4924
101.508
95.6274
91.0327
88.6873
87.4441
86.3944
85.5435
84.7875
83.9623
83.1992
82.509
81.7644
81.0291
80.3806
79.7739
79.1163
78.5105
77.9992
77.5072
77.2948
102.122
95.461
90.7747
88.6116
87.4341
86.3739
85.5175
84.7592
83.9362
83.1808
82.4948
81.7568
81.0259
80.3715
79.7781
79.1138
78.5143
77.9995
77.5501
77.1645
102.796
95.2564
90.5013
88.5385
87.4166
86.345
85.4872
84.7311
83.9103
83.1623
82.4805
81.7493
81.022
80.3641
79.7797
79.1137
78.5136
78.0082
77.5365
77.0471
103.524
95.0103
90.2218
88.4612
87.3885
86.3089
85.4552
84.7043
83.8871
83.1454
82.4679
81.7427
81.019
80.3582
79.7809
79.1133
78.5153
78.0108
77.54
77.0033
104.298
94.7197
89.9427
88.3777
87.3496
86.2713
85.4264
84.6818
83.8694
83.1328
82.4588
81.7383
81.0177
80.3549
79.7817
79.1134
78.5175
78.0123
77.5382
76.9448
105.119
94.3868
89.6781
88.2942
87.3088
86.2424
85.4074
84.6669
83.8591
83.1261
82.4539
81.7361
81.0177
80.3537
79.7819
79.114
78.519
78.0146
77.5274
76.9303
106.094
94.047
89.458
88.2283
87.2796
86.2276
85.3992
84.6596
83.8549
83.1239
82.4518
81.7352
81.0183
80.3539
79.7815
79.1142
78.5207
78.0155
77.5212
76.9267
107.506
93.7916
89.3143
88.1902
87.265
86.2235
85.3977
84.6567
83.8536
83.124
82.4511
81.7347
81.0188
80.3546
79.7807
79.1141
78.5222
78.016
77.5176
76.9376
109.414
93.7417
89.2734
88.1813
87.2611
86.2228
85.3983
84.6556
83.8531
83.1246
82.4509
81.7342
81.019
80.355
79.7803
79.1136
78.5231
78.016
77.5166
76.9849
79.0477
80.2831
81.494
82.6449
82.6112
80.477
75.8188
68.8086
60.9913
53.3411
47.5659
43.8628
42.3693
40.4021
35.2059
29.1498
25.2031
22.8393
21.0263
19.0362
18.1436
18.6054
19.6729
21.918
24.2456
26.6982
30.5195
35.0047
39.8891
44.6044
48.985
53.4797
57.1112
60.1484
62.5419
64.5381
66.0874
66.5142
66.7553
66.1822
64.3425
62.0769
59.6745
56.374
52.6055
49.1729
46.188
43.7492
42.2249
42.2683
43.4438
45.7226
49.6025
54.2781
58.8015
63.7216
69.3224
74.3402
78.2499
81.4628
83.7551
85.2694
86.6357
87.7587
88.4167
88.7107
88.5842
88.1226
87.5982
87.0641
86.9997
86.7114
86.5567
86.0933
84.3179
82.1259
79.8534
75.932
69.9171
63.0828
56.3745
50.1913
44.0236
37.0981
30.2086
25.0133
21.9743
20.2342
20.1874
22.2532
26.7631
33.0755
39.984
47.1755
54.9242
62.142
68.5874
74.5105
78.4884
80.4782
81.525
81.6363
80.4368
77.979
74.2895
69.1672
62.5685
55.163
47.9375
41.8314
37.4273
34.0358
30.7106
27.2053
24.8141
24.3003
24.9382
27.6181
33.8702
41.0972
47.5492
54.1443
61.2779
67.6911
73.1474
78.0614
82.0158
84.6007
86.1814
86.9512
87.7846
88.384
87.4389
84.5189
80.6208
76.3494
70.8185
63.8945
57.2927
50.4128
42.7989
37.5088
33.9967
30.6347
28.6541
29.108
31.1867
35.3048
39.9625
43.9064
48.3089
54.9144
61.72
67.5862
72.9056
77.8113
81.108
84.1436
85.9763
87.8555
89.1453
89.3542
90.2646
91.2243
91.1382
91.0675
90.4495
88.8951
87.4298
85.6247
82.7331
79.4321
75.8028
72.0675
69.7758
69.4248
69.2936
68.828
68.7528
69.3631
70.6253
71.9629
73.2361
74.9062
76.6613
78.4107
79.9294
80.9887
82.1125
83.3099
84.1891
84.4101
84.0944
83.0478
81.6693
79.3456
74.6955
67.0519
53.7751
14.8805
79.3647
80.5864
81.7542
82.8888
82.8475
80.4995
75.8743
69.2626
61.8152
54.5611
48.8435
44.7349
42.4521
40.5338
36.1612
30.8773
26.8607
24.4856
23.0598
21.1851
20.2207
20.6187
21.4255
23.6381
26.1735
28.6175
32.4648
36.9723
41.6935
46.2076
50.1939
54.4297
58.0347
60.908
63.229
65.1061
66.5674
66.8937
66.8356
66.0401
63.9728
61.2656
58.3801
54.5424
50.0504
46.0956
42.6972
39.7179
37.913
38.0282
39.3005
41.702
46.0249
51.2693
56.1728
61.4828
67.55
72.9298
77.1822
80.7509
83.232
84.8322
86.2956
87.5124
88.196
88.5122
88.407
87.9906
87.4842
87.0321
87.0292
86.7546
86.6579
86.2313
84.5452
82.5022
80.3695
76.7468
71.159
64.6094
57.9488
51.7578
45.6279
38.8936
32.3136
27.4117
24.5787
22.9662
23.0208
25.0403
29.3107
35.2833
42.0189
48.9687
56.3819
63.4854
69.7119
75.2953
79.1772
81.1228
82.0462
82.0973
80.9413
78.5513
74.8662
69.7527
63.1867
55.7284
48.3354
41.9848
37.2395
33.601
30.2272
26.7744
24.2509
23.4051
23.749
26.5016
32.9408
40.1329
46.64
53.1552
60.4203
66.883
72.3872
77.3283
81.3993
84.101
85.7875
86.6613
87.5995
88.3977
87.825
85.161
81.4825
77.1559
71.3497
64.4756
58.0652
51.2258
43.724
38.4201
34.8474
31.4907
29.5178
30.0193
32.0077
35.7901
40.3993
44.1325
48.4135
54.8598
61.6806
67.4599
72.7352
77.4892
80.8947
83.8855
85.7931
87.3822
88.7919
89.0421
90.0145
90.9612
90.9294
91.0817
90.2235
88.6152
87.2104
85.1637
82.0012
78.1754
74.1347
70.075
67.4872
67.2074
67.2632
66.7723
66.6867
67.3935
68.8486
70.233
71.5259
73.325
75.1962
77.0972
78.6823
79.7765
80.8557
82.0922
82.7588
82.8621
82.3372
81.1122
79.3844
76.703
71.4565
62.8488
49.618
5.82301
79.7069
80.7963
81.834
82.8957
82.813
80.4038
75.7435
69.4319
62.4643
55.6116
50.141
45.7171
42.6915
40.7347
37.0394
32.3897
28.4464
26.019
24.9606
23.256
22.2263
22.6843
23.4189
25.5102
28.3529
30.9858
34.6438
38.9629
43.4588
47.751
51.4475
55.3541
58.9193
61.7217
63.9971
65.7749
67.1276
67.3969
67.0749
65.9665
63.7094
60.6298
57.1596
52.6986
47.4898
42.9425
39.1196
35.6509
33.5921
33.7803
35.1409
37.6428
42.4091
48.2411
53.5697
59.2939
65.7966
71.5411
76.1744
80.0812
82.7377
84.4253
85.9903
87.2847
87.9957
88.3306
88.2606
87.9111
87.4369
87.0863
87.1007
86.8346
86.7818
86.3781
84.776
82.8917
80.9256
77.6209
72.4793
66.2282
59.7092
53.5614
47.4854
40.9516
34.7152
30.0668
27.4438
26.2673
26.158
28.0857
32.1247
37.7314
44.2325
50.9859
58.0422
64.9652
70.9732
76.2284
79.9631
81.8631
82.7149
82.6614
81.4593
79.1467
75.5507
70.4379
63.9488
56.5272
49.0062
42.4443
37.3597
33.4147
29.9045
26.4599
23.8354
22.7084
22.8437
25.7841
32.3007
39.4843
45.9752
52.3869
59.7502
66.274
71.7521
76.729
80.8518
83.6537
85.4258
86.4147
87.4483
88.4123
88.192
85.8381
82.3694
78.037
71.9355
65.1769
58.9887
52.1741
44.8367
39.5595
35.8879
32.5728
30.6884
31.167
33.1168
36.5142
40.9617
44.5095
48.7118
54.9563
61.7577
67.3661
72.6609
77.1974
80.7475
83.54
85.6088
87.0158
88.3667
88.8386
89.6189
90.5907
90.6968
91.037
90.1209
88.269
87.032
84.7909
81.3727
77.1169
72.711
68.3629
65.4749
65.0098
65.2098
64.8018
64.5863
65.3999
67.0929
68.4911
69.8167
71.7278
73.7723
75.7911
77.4567
78.5632
79.628
80.826
81.3608
81.4159
80.678
79.2592
77.2793
74.3174
68.6187
58.9189
46.5136
4.20478
79.9986
80.8912
81.754
82.6612
82.4094
79.998
75.2725
69.3027
62.8314
56.2189
51.139
46.5245
42.9623
40.9861
37.7314
33.707
30.0289
27.5241
26.7424
25.3882
24.3695
24.9031
25.743
27.6756
30.6636
33.4846
36.8723
40.8834
45.0989
49.1983
52.7113
56.3144
59.7845
62.5896
64.842
66.5409
67.7861
68.0343
67.4849
66.0473
63.5393
60.1383
56.0457
50.862
44.9609
39.8296
35.5672
31.681
29.3992
29.641
31.0758
33.6562
38.8357
45.223
50.9905
57.1516
64.1037
70.2111
75.2083
79.4481
82.2707
84.0313
85.7063
87.0869
87.8316
88.1745
88.1418
87.8772
87.4586
87.1877
87.1864
86.9405
86.9422
86.5485
85.0495
83.3436
81.5463
78.54
73.8326
67.9436
61.6592
55.5848
49.5613
43.2717
37.3997
32.964
30.4791
29.5423
29.4852
31.2834
35.1093
40.3796
46.6
53.1905
59.9049
66.5822
72.362
77.2806
80.849
82.6724
83.469
83.3481
82.0706
79.7411
76.2318
71.2008
64.8106
57.4996
49.9739
43.2039
37.7977
33.5199
29.8002
26.3064
23.5887
22.2178
22.2924
25.4732
31.9505
39.1895
45.4961
51.8876
59.2824
65.8605
71.2391
76.2813
80.3885
83.2597
85.0534
86.1798
87.3004
88.3852
88.5296
86.5574
83.3002
79.0235
72.7184
66.0458
60.1
53.3352
46.1404
40.9372
37.1325
33.8809
32.12
32.5203
34.3973
37.5013
41.6662
45.0285
49.1466
55.2288
61.9266
67.3351
72.6278
76.9837
80.5509
83.2261
85.2777
86.6848
87.862
88.643
89.3233
90.1934
90.4867
90.9052
90.117
88.003
86.6948
84.4583
80.7806
76.1988
71.4012
66.8182
63.6711
62.8971
63.0946
62.861
62.5702
63.4505
65.3375
66.7398
68.1473
70.1741
72.3631
74.5174
76.2427
77.3198
78.496
79.6635
80.1226
80.0422
79.1867
77.5662
75.3024
72.1496
66.4199
55.4572
44.3877
7.01425
80.2347
80.8924
81.5369
82.1777
81.6895
79.3247
74.577
68.9926
62.9949
56.5992
51.9257
47.3352
43.5041
41.4766
38.4177
35.0322
31.841
29.2737
28.5536
27.6473
26.7286
27.2757
28.3149
30.1016
33.0114
35.935
39.0772
42.7541
46.6357
50.5403
53.958
57.3191
60.6532
63.4974
65.7485
67.4092
68.5796
68.8307
68.0812
66.298
63.5187
59.7801
55.0373
49.0624
42.4858
36.8026
32.1268
27.9172
25.4802
25.739
27.2185
29.8286
35.382
42.2791
48.4804
55.1271
62.5162
68.9188
74.2753
78.868
81.8234
83.6599
85.4653
86.929
87.689
88.0318
88.0445
87.8714
87.5246
87.3034
87.2667
87.078
87.1629
86.791
85.4339
83.9173
82.2602
79.5059
75.2382
69.7735
63.7775
57.812
51.8802
45.8779
40.3676
36.0845
33.6342
32.8799
32.9327
34.55
38.1872
43.19
49.1135
55.5301
61.9567
68.3251
73.8734
78.4349
81.8161
83.5732
84.2685
84.1056
82.785
80.3979
76.8919
72.0165
65.7913
58.6022
51.1757
44.2932
38.5536
33.9368
29.9725
26.379
23.5648
22.0297
22.1812
25.5483
31.9392
39.2322
45.2337
51.6438
58.9653
65.5795
70.8641
75.9678
80.0795
82.8712
84.649
85.9147
87.1246
88.3217
88.8111
87.3017
84.2903
80.1185
73.7329
67.1184
61.4081
54.7177
47.6114
42.4673
38.6187
35.453
33.761
34.0693
35.8161
38.7114
42.5144
45.717
49.7133
55.7186
62.1762
67.4467
72.6081
76.9006
80.2661
82.9285
84.919
86.2904
87.3269
88.3223
89.1146
89.8598
90.3346
90.8821
90.0789
87.9375
86.3427
84.06
80.2437
75.3453
70.094
65.2994
61.9407
60.8353
61.0079
60.8535
60.5813
61.6224
63.6205
65.0306
66.536
68.6964
70.9695
73.3023
75.114
76.2073
77.4616
78.6775
78.9584
78.6961
77.774
76.0636
73.4682
70.0616
64.8839
52.5079
42.9452
11.1016
80.4736
80.8358
81.1817
81.537
80.7337
78.4963
73.882
68.5906
63.1043
57.1072
52.7082
48.2746
44.4148
42.3246
39.3629
36.4546
33.8618
31.3663
30.4923
29.9867
29.3268
29.8448
31.0127
32.6848
35.383
38.2796
41.204
44.5469
48.1093
51.7982
55.1775
58.3531
61.5382
64.4319
66.7251
68.368
69.5138
69.7653
68.8809
66.7591
63.6783
59.5782
54.1631
47.352
40.1383
33.9436
28.8937
24.4346
21.9025
22.142
23.6304
26.2616
32.1302
39.4425
46.0789
53.2442
61.0178
67.6897
73.4283
78.3518
81.4185
83.3364
85.2407
86.7624
87.5386
87.8919
87.9641
87.8813
87.6172
87.4111
87.3603
87.2939
87.4554
87.1207
85.941
84.5907
83.0426
80.53
76.7097
71.7047
66.0469
60.2423
54.446
48.7263
43.5656
39.3695
36.9018
36.304
36.4345
37.8373
41.3236
46.1351
51.7575
57.9649
64.1411
70.182
75.4813
79.6957
82.8404
84.5465
85.1379
84.8772
83.5656
81.1204
77.6092
72.855
66.8718
59.8641
52.5487
45.6589
39.6631
34.6927
30.4851
26.7563
23.8606
22.2443
22.5551
26.0021
32.3584
39.5656
45.2115
51.6119
58.8758
65.4318
70.6091
75.7491
79.9012
82.4494
84.3025
85.6302
86.9238
88.2319
89.0313
88.0689
85.3318
81.2712
74.9371
68.383
62.8647
56.2483
49.1865
44.0886
40.2937
37.2692
35.6285
35.7946
37.3386
40.0895
43.4956
46.5659
50.4087
56.4121
62.5029
67.6691
72.5922
76.898
80.0421
82.5628
84.5531
85.8685
86.8056
87.9504
88.8706
89.5746
90.1909
91.0076
90.03
87.9189
86.171
83.6349
79.6911
74.5585
68.9358
63.8483
60.2444
58.7666
58.934
58.8677
58.6117
59.8814
61.9993
63.4017
64.9291
67.1902
69.6161
72.1418
74.0734
75.2285
76.4451
77.698
77.8642
77.5048
76.4526
74.62
71.8772
68.1052
63.9508
50.0155
41.6239
14.5796
80.7542
80.7602
80.6943
80.8199
79.6604
77.5392
73.2771
68.207
63.2649
57.8459
53.6108
49.3491
45.695
43.5053
40.6381
38.0291
35.9986
33.7147
32.5832
32.3554
32.056
32.4917
33.6573
35.2758
37.7162
40.4244
43.1411
46.2274
49.5527
53.0171
56.3211
59.3759
62.4471
65.4048
67.7649
69.4062
70.5542
70.8383
69.8637
67.4464
64.0167
59.5167
53.4175
45.7799
37.9663
31.3189
25.9225
21.2939
18.6993
18.8694
20.1163
23.0112
29.1613
36.7926
43.828
51.4835
59.6251
66.5835
72.7094
77.9331
81.0798
83.0276
84.9967
86.5979
87.4147
87.7753
87.9044
87.907
87.721
87.5181
87.4995
87.5978
87.8179
87.5203
86.5125
85.2967
83.8439
81.5859
78.207
73.699
68.423
62.8183
57.1861
51.7683
46.9325
42.7781
40.2883
39.8197
39.9679
41.1346
44.5052
49.1956
54.517
60.482
66.4125
72.1201
77.1538
81.0456
83.9314
85.5431
86.0641
85.6709
84.3438
81.9012
78.3989
73.7412
67.9821
61.2636
54.1321
47.2532
41.1142
35.8317
31.3819
27.5289
24.5853
22.9422
23.4053
26.8588
33.2343
40.1072
45.4311
51.7595
58.9957
65.3636
70.4768
75.6798
79.7642
82.1073
84.0699
85.3327
86.6642
88.1004
89.2535
88.8657
86.4047
82.4376
76.2221
69.7789
64.4597
57.8628
50.8596
45.7723
42.0725
39.2899
37.6596
37.6428
38.9713
41.6184
44.6411
47.5358
51.2461
57.2135
63.0226
67.9525
72.6694
76.9061
79.8834
82.1827
84.1714
85.4477
86.2856
87.6366
88.5988
89.3093
90.0919
91.1416
90.0556
87.826
86.113
83.3285
79.0428
73.6849
67.9007
62.4174
58.4801
56.6266
56.8915
56.9584
56.7138
58.1887
60.4558
61.9042
63.4641
65.757
68.3617
71.0648
73.0739
74.2764
75.5652
76.7791
76.9314
76.4274
75.32
73.2984
70.598
66.2229
63.4516
48.1254
39.8901
16.6594
80.7937
80.615
80.1387
79.9969
78.5122
76.478
72.7841
67.9836
63.4739
58.7163
54.6569
50.565
47.1086
44.9461
42.225
39.7933
38.1882
36.1763
34.8451
34.7501
34.7211
35.0929
36.2136
37.7659
39.9101
42.3854
44.9424
47.8324
50.93
54.1973
57.406
60.3723
63.3614
66.3967
68.8444
70.5364
71.7347
72.056
71.0188
68.3425
64.5417
59.5915
52.7954
44.3854
36.001
28.9779
23.255
18.4861
15.8526
15.9385
17.1428
20.1495
26.5107
34.3616
41.7549
49.894
58.3882
65.6132
72.1171
77.5915
80.7678
82.7419
84.8102
86.497
87.3286
87.6779
87.8595
87.9463
87.8253
87.6481
87.725
88.0035
88.2447
87.9487
87.0782
86.0019
84.6536
82.6582
79.6976
75.6923
70.8287
65.4802
60.0687
54.9643
50.386
46.2807
43.808
43.4091
43.509
44.4526
47.7439
52.3505
57.3688
63.0579
68.7429
74.1138
78.8532
82.4527
85.0765
86.56
86.9824
86.5102
85.094
82.7147
79.2459
74.6744
69.1132
62.6883
55.879
49.0941
42.8455
37.3335
32.6825
28.7311
25.7722
24.1742
24.7284
28.1669
34.5095
40.8346
45.9288
52.0981
59.2974
65.4217
70.5265
75.7618
79.6186
81.9336
83.8754
85.0163
86.3075
87.903
89.4881
89.6444
87.4548
83.5587
77.5057
71.3012
66.1562
59.5866
52.7122
47.6395
44.0101
41.4653
39.8153
39.5945
40.6934
43.2364
45.9841
48.6112
52.3234
58.0555
63.7638
68.2982
72.9011
76.9588
79.8152
81.7804
83.8054
85.0519
85.7731
87.349
88.3933
89.0631
90.1296
91.2901
90.1725
87.7029
85.975
83.0678
78.4671
72.6962
66.864
60.9322
56.5214
54.3187
54.6851
55.0109
54.904
56.5478
58.9782
60.5648
62.2011
64.4899
67.1838
70.1111
72.1833
73.3955
74.8334
76.0337
76.0652
75.4532
74.2483
72.2067
69.857
64.2574
63.0691
46.7625
37.3465
17.3419
81.1213
80.748
79.6527
79.0793
77.3414
75.3783
72.3408
67.9394
63.7589
59.6109
55.8128
51.9225
48.6545
46.5406
44.0426
41.7249
40.3725
38.6304
37.2298
37.0913
37.2181
37.6326
38.6553
40.0327
41.9367
44.2519
46.6639
49.3272
52.2086
55.3253
58.4815
61.3708
64.2903
67.3983
69.9825
71.7744
73.0668
73.4289
72.3228
69.4161
65.25
59.7947
52.2958
43.1761
34.2833
26.9197
20.923
16.017
13.3375
13.328
14.5337
17.6857
24.2207
32.1893
39.908
48.53
57.3069
64.768
71.6328
77.3146
80.522
82.5529
84.6905
86.4131
87.2427
87.5939
87.8277
88.0001
87.9449
87.8224
88.0289
88.4737
88.6811
88.3741
87.6366
86.7155
85.5008
83.7442
81.1579
77.6433
73.2213
68.1667
63.009
58.202
53.8552
49.8654
47.4568
47.0634
47.0705
47.8328
51.0583
55.5782
60.2702
65.658
71.0933
76.1393
80.5587
83.8798
86.2535
87.5968
87.8881
87.3409
85.8606
83.499
80.128
75.6329
70.2857
64.1249
57.611
51.0449
44.797
39.1646
34.3757
30.3534
27.407
25.8572
26.4843
29.9153
36.0404
41.7546
46.6223
52.6324
59.7837
65.663
70.7707
76.0416
79.5444
81.9208
83.6641
84.6373
85.8399
87.6491
89.6666
90.2872
88.365
84.5759
78.7821
72.9034
67.9252
61.459
54.8255
49.7877
46.1595
43.8053
42.0777
41.6049
42.5286
44.9311
47.5511
49.8092
53.5894
59.0338
64.6313
68.7857
73.2463
77.0422
79.8646
81.4504
83.4292
84.6384
85.332
87.023
88.261
88.9013
90.2573
91.5045
90.3483
87.6152
85.7257
82.8036
78.0473
71.8372
65.7981
59.6336
54.5031
51.9456
52.4311
52.9609
53.0572
54.9816
57.6172
59.3035
60.9493
63.2529
66.0939
69.2829
71.4063
72.6492
74.171
75.3717
75.2988
74.7113
73.2491
71.1777
69.5579
62.3082
62.4521
45.6562
33.9804
17.1069
81.149
80.731
79.2
78.1931
76.3117
74.3855
71.898
67.9909
64.1373
60.494
57.0275
53.5121
50.2885
48.2114
45.9204
43.7261
42.5093
41.0117
39.6173
39.3276
39.5683
40.0556
40.8903
42.1033
43.8677
46.0287
48.3054
50.7365
53.4174
56.4327
59.5508
62.3679
65.2355
68.4074
71.1539
73.1309
74.5583
74.9594
73.7626
70.6321
66.0968
60.1236
51.934
42.1694
32.8352
25.1818
18.94
13.8954
11.1313
11.0201
12.2615
15.615
22.2864
30.309
38.3551
47.4051
56.3746
64.0797
71.3145
77.1691
80.375
82.4093
84.5684
86.3297
87.177
87.5443
87.8227
88.0728
88.0829
88.0512
88.3914
88.9526
89.0847
88.7806
88.1925
87.4299
86.368
84.8083
82.5625
79.526
75.5277
70.7722
65.9287
61.4409
57.3329
53.5302
51.2139
50.7478
50.6609
51.3114
54.4527
58.843
63.1944
68.2478
73.4321
78.1492
82.2598
85.2967
87.4459
88.643
88.8079
88.1487
86.6489
84.2625
80.9919
76.6271
71.4818
65.5992
59.3083
52.9727
46.8785
41.2641
36.3973
32.3307
29.4411
27.9337
28.6112
32.0283
37.716
42.8719
47.4587
53.3854
60.4158
66.1072
71.3193
76.5808
79.6565
82.0182
83.4362
84.2149
85.3511
87.377
89.7055
90.6873
89.0439
85.479
80.0592
74.5401
69.7242
63.4167
57.0788
52.0772
48.4667
46.2423
44.4132
43.671
44.517
46.7234
49.2617
51.2528
54.983
60.2112
65.5689
69.4712
73.6479
77.2231
79.9087
81.2537
83.0644
84.2212
84.9141
86.6889
88.1248
88.8532
90.454
91.7451
90.4606
87.6072
85.488
82.7351
77.6813
71.1154
64.6533
58.3603
52.7033
49.7625
50.2177
50.9486
51.31
53.5873
56.4111
58.2004
59.861
62.1587
65.1775
68.5248
70.7054
72.0056
73.6325
74.8076
74.7148
74.1881
72.6213
69.9842
69.5347
60.418
61.0621
44.5984
30.419
17.0239
81.0704
80.602
78.7777
77.4329
75.499
73.6004
71.4818
68.0819
64.5959
61.3594
58.2265
55.0038
51.9747
49.9173
47.7403
45.6888
44.5506
43.2568
41.909
41.4777
41.7809
42.3049
42.9987
44.0916
45.723
47.7164
49.869
52.1151
54.5811
57.4714
60.5316
63.3112
66.1838
69.4504
72.343
74.545
76.1826
76.654
75.3355
71.9667
67.0415
60.5493
51.7116
41.3864
31.6582
23.7706
17.3391
12.1427
9.24948
9.01284
10.3262
13.9195
20.702
28.7559
37.1069
46.4904
55.6269
63.5911
71.166
77.0943
80.2355
82.2699
84.4818
86.2627
87.1195
87.5055
87.829
88.1558
88.2395
88.3288
88.8056
89.4221
89.4734
89.1841
88.7508
88.1456
87.2204
85.8238
83.8926
81.2959
77.6861
73.2606
68.7969
64.6412
60.7653
57.2299
55.048
54.6057
54.2996
54.8984
57.913
62.0871
66.106
70.8116
75.7371
80.1251
83.9248
86.6965
88.6322
89.7006
89.7322
88.955
87.4439
85.0551
81.8428
77.6416
72.6941
67.0684
61.0322
54.9345
49.0248
43.5241
38.6668
34.5632
31.7849
30.4077
31.0484
34.3605
39.4767
44.1163
48.4094
54.3577
61.243
66.7586
72.2526
77.2658
80.068
82.1933
83.2566
83.8325
84.8911
87.0657
89.5903
90.8355
89.4858
86.2858
81.3211
76.1452
71.5069
65.3942
59.3025
54.3916
50.8205
48.6827
46.8258
45.8071
46.6171
48.7107
51.0733
52.9632
56.5219
61.5765
66.556
70.3521
74.0953
77.5251
79.9617
81.1595
82.6819
83.8879
84.4684
86.374
87.987
88.8503
90.7229
91.9886
90.4534
87.6921
85.3638
82.7879
77.3662
70.3558
63.3644
56.7265
50.8839
47.7317
48.0616
48.9476
49.6821
52.3723
55.416
57.3409
58.9635
61.205
64.3889
67.9443
70.1514
71.4392
73.2918
74.3819
74.2029
73.7315
72.3856
68.6183
69.7746
58.8123
58.5765
43.4685
27.8236
17.8675
80.9278
80.4005
78.3775
76.8105
74.8879
73.0259
71.128
68.1745
65.09
62.19
59.3609
56.4111
53.6278
51.5939
49.467
47.536
46.4667
45.358
44.1007
43.5708
43.8531
44.4157
45.0527
46.0136
47.4612
49.3157
51.3642
53.4289
55.6704
58.4269
61.4394
64.2255
67.1469
70.5074
73.5671
76.0261
77.9037
78.4647
77.012
73.399
68.0593
61.0439
51.6283
40.8093
30.746
22.6675
16.114
10.7854
7.72231
7.33913
8.76226
12.6219
19.4905
27.5505
36.1652
45.834
55.0995
63.3025
71.1401
77.0744
80.1714
82.2315
84.4011
86.1134
87.0103
87.4623
87.846
88.2383
88.4189
88.6534
89.2405
89.8377
89.8358
89.6034
89.3274
88.8644
88.0426
86.7959
85.1574
82.9485
79.6785
75.603
71.5636
67.7533
64.1139
60.9316
58.8932
58.2778
57.9698
58.5576
61.3875
65.2623
68.9565
73.334
77.9783
82.0589
85.5331
88.0635
89.7976
90.7527
90.6743
89.7408
88.2148
85.8834
82.724
78.6563
73.9186
68.5301
62.7123
56.8745
51.1549
45.8146
41.0531
36.9732
34.3306
33.2496
33.6712
36.7488
41.2449
45.4173
49.4614
55.4742
62.2367
67.6481
73.4823
78.0308
80.7071
82.4157
83.1979
83.5387
84.5127
86.7398
89.3548
90.7903
89.7886
87.0063
82.496
77.6883
73.3013
67.3868
61.5529
56.7719
53.234
51.1583
49.3183
48.1146
48.8508
50.9064
52.9972
54.8787
58.2113
63.0972
67.6355
71.326
74.6902
77.8778
80.0547
81.1547
82.2724
83.5571
84.0391
86.0497
87.8831
88.8987
91.032
92.1817
90.3778
87.7559
85.3384
82.691
77.0546
69.6579
62.0137
54.875
48.9687
45.6804
45.8607
46.9097
48.1051
51.1866
54.5272
56.5877
58.1757
60.4638
63.8245
67.5333
69.6725
71.0458
73.0763
73.9924
73.8494
73.208
72.5182
67.2382
69.8177
57.5785
54.8033
42.2904
27.0492
19.7294
80.7568
80.1685
78.0366
76.3242
74.4036
72.5776
70.8239
68.2774
65.5671
62.9838
60.4034
57.6783
55.1289
53.1684
51.1185
49.2759
48.2739
47.3338
46.2149
45.632
45.7984
46.3608
47.0145
47.8449
49.0894
50.8147
52.7739
54.6741
56.706
59.3339
62.2971
65.0819
68.0827
71.5556
74.8172
77.573
79.7151
80.3678
78.7757
74.9164
69.135
61.6052
51.7005
40.4886
30.1248
21.8964
15.2494
9.82777
6.60792
6.07408
7.58775
11.7358
18.6682
26.7047
35.5722
45.4435
54.7559
63.2224
71.3069
77.224
80.2825
82.3111
84.3412
85.9803
86.9355
87.4466
87.8733
88.331
88.6285
89.0172
89.6856
90.2114
90.1843
90.0456
89.9079
89.5657
88.8416
87.7415
86.3611
84.4705
81.5008
77.7999
74.2255
70.7488
67.3693
64.5898
62.6898
61.9199
61.6432
62.225
64.8036
68.3257
71.7166
75.7878
80.1367
83.92
87.0908
89.3822
90.947
91.7732
91.6208
90.5385
88.9158
86.6875
83.6165
79.6674
75.1131
69.9677
64.3464
58.7216
53.1639
48.0231
43.425
39.4458
36.9255
35.839
36.3054
39.0734
42.9978
46.724
50.5989
56.7035
63.3189
68.8561
74.8299
78.9509
81.4262
82.7951
83.3903
83.4438
84.3165
86.4896
89.0809
90.6498
90.0234
87.6077
83.547
79.2235
75.1149
69.4427
63.9788
59.352
55.8618
53.7856
51.9715
50.6902
51.268
53.2552
55.0923
56.9699
60.1031
64.6775
68.8743
72.3409
75.4389
78.3044
80.2155
81.189
81.9224
83.1427
83.6428
85.7131
87.7952
89.0015
91.3526
92.3211
90.3306
87.6275
85.2272
82.5464
76.688
69.1326
60.8223
53.2125
47.3321
43.8747
43.8448
44.9175
46.6535
50.2315
53.862
55.9722
57.5835
59.9026
63.4152
67.1875
69.2683
70.831
72.8257
73.7787
73.7947
72.7613
72.9863
65.9102
69.0563
56.4653
49.9319
40.9498
27.9831
22.2515
80.5413
79.9455
77.8312
75.9873
74.0137
72.1679
70.54
68.373
65.9867
63.68
61.324
58.8149
56.4775
54.6641
52.7134
50.9469
50.0203
49.2132
48.2335
47.6059
47.604
48.1334
48.8591
49.6121
50.6436
52.225
54.119
55.8715
57.6798
60.1631
63.0815
65.8696
68.9438
72.5522
76.0684
79.1791
81.6011
82.3272
80.5955
76.4705
70.2675
62.2707
51.9598
40.4231
29.8145
21.4764
14.7633
9.28811
5.92012
5.26947
6.89485
11.256
18.2071
26.2288
35.3143
45.279
54.6118
63.3468
71.6248
77.4324
80.4266
82.4437
84.4265
86.0452
86.9887
87.4684
87.9029
88.4325
88.8599
89.3876
90.1022
90.5474
90.5372
90.5211
90.5151
90.2983
89.6754
88.6893
87.5233
85.895
83.1966
79.8744
76.7486
73.5784
70.5197
68.1629
66.3819
65.4779
65.2529
65.8232
68.0955
71.2394
74.3693
78.1539
82.2078
85.6824
88.586
90.6465
92.0615
92.7754
92.5163
91.3719
89.5887
87.399
84.4731
80.641
76.2635
71.3341
65.9561
60.5598
55.1307
50.1491
45.7099
41.8629
39.4553
38.2992
38.8262
41.2629
44.69
47.9381
51.8011
58.0536
64.46
70.3036
76.2482
80.1324
82.3055
83.5109
83.9156
83.6071
84.2927
86.3303
88.8501
90.5024
90.1722
88.063
84.5012
80.7828
76.9315
71.5921
66.631
62.2184
58.7787
56.6649
54.8404
53.5077
53.9066
55.7432
57.348
59.1793
62.2072
66.3357
70.2557
73.465
76.2959
78.7911
80.4721
81.2504
81.6818
82.7193
83.2865
85.3909
87.6993
89.1283
91.6647
92.3833
90.365
87.4233
84.9932
82.4013
76.3314
68.7474
59.9976
52.0062
46.2194
42.6094
42.347
43.2919
45.4546
49.4292
53.3561
55.5655
57.2161
59.4916
63.2073
67.0099
68.9584
70.7182
72.6316
73.7927
73.9068
72.3085
73.5378
64.7019
67.3036
55.5942
45.6432
40.0051
30.1936
25.1252
80.2649
79.6949
77.675
75.7824
73.7908
71.9112
70.3591
68.4487
66.3207
64.2428
62.1682
59.8732
57.7237
56.0899
54.2928
52.6222
51.7129
50.984
50.0897
49.421
49.3205
49.8394
50.6362
51.3347
52.1613
53.5739
55.3863
56.9967
58.5921
60.9282
63.769
66.5634
69.7365
73.5032
77.298
80.7767
83.4821
84.2633
82.3936
77.9741
71.4263
63.0521
52.4561
40.6408
29.8333
21.383
14.6505
9.16728
5.7179
4.9576
6.69426
11.2515
18.1487
26.1149
35.3721
45.3716
54.6959
63.6489
71.9958
77.6247
80.5501
82.5781
84.5432
86.0968
86.968
87.4397
87.9371
88.5413
89.0799
89.7112
90.4384
90.8277
90.8992
91.0228
91.1498
91.0663
90.5281
89.6292
88.661
87.2489
84.7628
81.8098
79.1081
76.2591
73.5565
71.5646
69.8889
68.9206
68.7507
69.2797
71.215
73.9876
76.8942
80.4134
84.1751
87.3441
89.9856