/*--------------------------------*- C++ -*----------------------------------*\
| =========                 |                                                 |
| \\      /  F ield         | OpenFOAM: The Open Source CFD Toolbox           |
|  \\    /   O peration     | Version:  2.4.0                                 |
|   \\  /    A nd           | Web:      www.OpenFOAM.org                      |
|    \\/     M anipulation  |                                                 |
\*---------------------------------------------------------------------------*/
FoamFile
{
    version     2.0;
    format      ascii;
    class       volVectorField;
    location    "0.02";
    object      U;
}
// * * * * * * * * * * * * * * * * * * * * * * * * * * * * * * * * * * * * * //

dimensions      [0 1 -1 0 0 0 0];

internalField   nonuniform List<vector> 
17600
(
(9.95438 0.109865 0)
(9.19706 0.384411 0)
(8.06106 0.441698 0)
(6.91422 0.363306 0)
(5.8735 0.252913 0)
(5.01067 0.143105 0)
(4.31934 0.0640977 0)
(3.82869 0.00983118 0)
(3.44401 -0.0178803 0)
(3.19956 -0.0297645 0)
(2.99848 -0.0350912 0)
(2.88729 -0.0315767 0)
(2.77426 -0.0298151 0)
(2.72619 -0.0255866 0)
(2.65647 -0.0195263 0)
(2.64913 -0.0186432 0)
(2.59538 -0.0109252 0)
(2.59644 -0.00394468 0)
(2.55002 -0.00739807 0)
(2.5533 -0.00157463 0)
(2.49498 0.00285846 0)
(2.50146 -0.00360645 0)
(2.46147 0.00252083 0)
(2.47483 0.00486774 0)
(2.43165 0.000148537 0)
(2.44585 0.0052481 0)
(2.40752 0.00520653 0)
(2.43625 -0.00609069 0)
(2.43809 0.00314537 0)
(2.43908 0.00578698 0)
(2.45804 -0.00797851 0)
(2.45649 0.0015511 0)
(2.49848 0.0014123 0)
(2.44728 -0.000504809 0)
(2.54384 -0.0029089 0)
(2.43764 0.00818726 0)
(2.55367 0.0089852 0)
(2.39051 0.00124896 0)
(2.48959 0.0483015 0)
(2.23423 -0.00658904 0)
(9.99756 0.175382 0)
(10.1226 0.437334 0)
(10.1697 0.61252 0)
(10.1369 0.664677 0)
(9.93517 0.654781 0)
(9.73456 0.58323 0)
(9.3594 0.495886 0)
(9.12925 0.393527 0)
(8.74305 0.308511 0)
(8.52925 0.244708 0)
(8.20669 0.172396 0)
(8.01884 0.141986 0)
(7.76207 0.113033 0)
(7.60685 0.0687234 0)
(7.39502 0.0696562 0)
(7.32437 0.0350249 0)
(7.10997 0.0368858 0)
(7.08194 0.037978 0)
(6.92868 0.00879165 0)
(6.88647 0.0337401 0)
(6.74957 0.0396157 0)
(6.72642 -0.00715476 0)
(6.6194 0.0212744 0)
(6.63394 0.0122339 0)
(6.54584 0.0025703 0)
(6.5312 0.010137 0)
(6.51038 0.0161047 0)
(6.50454 -0.0407335 0)
(6.5283 0.00865112 0)
(6.49837 0.00292359 0)
(6.58878 -0.0272592 0)
(6.48669 -0.0107782 0)
(6.67315 0.00995937 0)
(6.48282 -0.0214843 0)
(6.73693 -0.0152015 0)
(6.49476 0.0198647 0)
(6.74966 -0.00383038 0)
(6.51817 0.0221636 0)
(6.6906 0.0106093 0)
(6.47483 -0.000139549 0)
(9.98597 0.122236 0)
(10.1243 0.358466 0)
(10.2182 0.527594 0)
(10.5166 0.600731 0)
(10.566 0.617793 0)
(10.8632 0.563912 0)
(10.7645 0.508547 0)
(10.9474 0.408147 0)
(10.7934 0.34878 0)
(10.8325 0.291778 0)
(10.7216 0.239391 0)
(10.6694 0.20677 0)
(10.5567 0.198129 0)
(10.5236 0.151363 0)
(10.3157 0.14083 0)
(10.3932 0.111987 0)
(10.1534 0.106548 0)
(10.1827 0.109574 0)
(10.0834 0.0631273 0)
(10.0034 0.0911063 0)
(9.92453 0.108521 0)
(9.89452 0.0360823 0)
(9.75768 0.05564 0)
(9.80942 0.0553244 0)
(9.70331 0.0289936 0)
(9.65863 0.0397128 0)
(9.64543 0.0376749 0)
(9.62924 -0.0481185 0)
(9.5936 0.0107422 0)
(9.59786 0.0128408 0)
(9.65348 -0.053065 0)
(9.543 -0.0153244 0)
(9.7267 -0.00037924 0)
(9.57915 -0.0202101 0)
(9.75497 -0.0525367 0)
(9.60387 0.0390942 0)
(9.80283 -0.0395825 0)
(9.62368 0.0229476 0)
(9.72968 0.00108878 0)
(9.54521 0.0912928 0)
(9.98785 0.109712 0)
(10.1031 0.270575 0)
(10.1721 0.426408 0)
(10.4442 0.488097 0)
(10.5127 0.504148 0)
(10.8645 0.453447 0)
(10.8859 0.444326 0)
(11.1585 0.32949 0)
(11.1513 0.336548 0)
(11.2814 0.250648 0)
(11.3045 0.224856 0)
(11.359 0.208926 0)
(11.3621 0.190357 0)
(11.4243 0.167972 0)
(11.3159 0.168345 0)
(11.469 0.0929391 0)
(11.331 0.153455 0)
(11.4152 0.107244 0)
(11.4117 0.07312 0)
(11.3872 0.11721 0)
(11.3828 0.135001 0)
(11.4047 0.034427 0)
(11.31 0.0950216 0)
(11.4331 0.0525698 0)
(11.3497 0.0525415 0)
(11.3455 0.0478817 0)
(11.3517 0.0718908 0)
(11.3716 -0.0781065 0)
(11.2937 0.0547913 0)
(11.3765 -0.0102082 0)
(11.3451 -0.0303087 0)
(11.3147 -0.0531659 0)
(11.4032 0.0279695 0)
(11.3859 -0.0694134 0)
(11.4072 -0.0202309 0)
(11.4036 -0.0209882 0)
(11.4653 0.00482724 0)
(11.4289 -0.111898 0)
(11.4596 -0.0786849 0)
(11.3131 -0.2796 0)
(10.0088 0.058944 0)
(10.057 0.231277 0)
(10.1702 0.328228 0)
(10.3287 0.39017 0)
(10.4851 0.426582 0)
(10.6938 0.342387 0)
(10.8382 0.391999 0)
(11.0189 0.254742 0)
(11.1126 0.299157 0)
(11.2386 0.207669 0)
(11.2829 0.178605 0)
(11.3734 0.179127 0)
(11.4139 0.156085 0)
(11.4523 0.14299 0)
(11.4571 0.151735 0)
(11.5685 0.0711711 0)
(11.5013 0.138487 0)
(11.6109 0.0812952 0)
(11.6315 0.0570835 0)
(11.6314 0.117885 0)
(11.6988 0.100322 0)
(11.685 0.0491225 0)
(11.6582 0.0567082 0)
(11.8193 0.068019 0)
(11.7493 0.0200034 0)
(11.7376 0.071129 0)
(11.8209 0.0283196 0)
(11.8079 -0.0437731 0)
(11.7448 0.024573 0)
(11.8581 0.0118527 0)
(11.7893 -0.062811 0)
(11.7793 -0.0294274 0)
(11.8306 -0.0218478 0)
(11.8624 -0.0504084 0)
(11.8101 -0.0569025 0)
(11.8489 -0.00717338 0)
(11.8357 -0.0283526 0)
(11.7954 -0.0323799 0)
(11.6962 -0.0320351 0)
(11.7108 -0.0855983 0)
(10.0202 0.0702032 0)
(10.0208 0.153369 0)
(10.1679 0.257945 0)
(10.2548 0.307741 0)
(10.4435 0.31914 0)
(10.6057 0.300575 0)
(10.7405 0.290724 0)
(10.9306 0.238017 0)
(11.0193 0.223458 0)
(11.16 0.188898 0)
(11.2144 0.127328 0)
(11.2843 0.165226 0)
(11.3558 0.107625 0)
(11.3592 0.135851 0)
(11.3994 0.110738 0)
(11.5043 0.0743006 0)
(11.4518 0.0969656 0)
(11.5485 0.0813283 0)
(11.5969 0.0208963 0)
(11.5917 0.132911 0)
(11.6577 0.0470047 0)
(11.6351 0.0747086 0)
(11.6426 0.0079351 0)
(11.797 0.0833068 0)
(11.7358 -0.011502 0)
(11.7173 0.085661 0)
(11.8017 -0.0179546 0)
(11.7841 0.00872647 0)
(11.7534 -0.0220769 0)
(11.8414 0.0410549 0)
(11.7794 -0.0925117 0)
(11.7663 0.0135803 0)
(11.8188 -0.0797001 0)
(11.8168 -0.00778421 0)
(11.7799 -0.098599 0)
(11.8183 0.0229632 0)
(11.8105 -0.0724402 0)
(11.811 0.055433 0)
(11.7758 0.0125195 0)
(11.6205 0.153506 0)
(10.0088 0.0349996 0)
(10.0344 0.120094 0)
(10.138 0.198818 0)
(10.2298 0.211599 0)
(10.4041 0.279912 0)
(10.5312 0.195583 0)
(10.7001 0.264797 0)
(10.8282 0.161753 0)
(10.9798 0.190772 0)
(11.0782 0.143197 0)
(11.1587 0.100674 0)
(11.2252 0.118945 0)
(11.2923 0.10519 0)
(11.2894 0.0722442 0)
(11.3511 0.128441 0)
(11.4282 0.0250823 0)
(11.4095 0.0995455 0)
(11.4747 0.0421665 0)
(11.549 0.0358752 0)
(11.5329 0.0765864 0)
(11.6002 0.0723136 0)
(11.5576 0.0113906 0)
(11.5996 0.0548936 0)
(11.7358 0.00795182 0)
(11.6796 0.0471326 0)
(11.6489 0.000914955 0)
(11.7379 0.0427553 0)
(11.7132 -0.0521665 0)
(11.72 0.0295726 0)
(11.7708 -0.0210677 0)
(11.7229 -0.0242738 0)
(11.711 -0.0628094 0)
(11.7656 -0.00999885 0)
(11.7435 -0.0848122 0)
(11.725 -0.0357607 0)
(11.7533 -0.0655856 0)
(11.7591 -0.0212547 0)
(11.7324 -0.0796234 0)
(11.6744 -0.0715181 0)
(11.4642 -0.202987 0)
(10.0129 0.0342347 0)
(10.0214 0.0823808 0)
(10.1318 0.12471 0)
(10.2058 0.168419 0)
(10.3641 0.163103 0)
(10.5033 0.177777 0)
(10.6369 0.151301 0)
(10.797 0.143014 0)
(10.9229 0.118502 0)
(11.0258 0.110516 0)
(11.1229 0.0678164 0)
(11.1749 0.0849664 0)
(11.254 0.0702847 0)
(11.2522 0.0577377 0)
(11.2932 0.0836644 0)
(11.3949 0.0303783 0)
(11.3686 0.0537516 0)
(11.4178 0.0515643 0)
(11.5253 -0.00552856 0)
(11.4932 0.0882303 0)
(11.5415 0.023709 0)
(11.5234 0.0270868 0)
(11.5511 0.0220034 0)
(11.6982 0.0153275 0)
(11.6406 0.0141879 0)
(11.6018 0.0255516 0)
(11.6801 -0.0084862 0)
(11.675 -0.0014756 0)
(11.6813 -0.0174313 0)
(11.7214 0.0035466 0)
(11.6843 -0.0493744 0)
(11.6767 -0.0305937 0)
(11.7151 -0.0528745 0)
(11.6954 -0.0518886 0)
(11.688 -0.0780029 0)
(11.7091 -0.0498405 0)
(11.7046 -0.0901945 0)
(11.6901 -0.0806496 0)
(11.6437 -0.103605 0)
(11.4492 -0.0878696 0)
(10.0044 0.0177408 0)
(10.0324 0.0416008 0)
(10.1174 0.0873757 0)
(10.1976 0.0786503 0)
(10.3482 0.122568 0)
(10.4681 0.083549 0)
(10.621 0.108866 0)
(10.7517 0.0797189 0)
(10.9003 0.0673745 0)
(10.9967 0.0736868 0)
(11.0808 0.0355518 0)
(11.1656 0.0475716 0)
(11.211 0.057196 0)
(11.2319 0.00825502 0)
(11.2704 0.0756817 0)
(11.3561 0.00254932 0)
(11.3527 0.0365927 0)
(11.3819 0.0315129 0)
(11.5014 -0.00460413 0)
(11.4758 0.0408099 0)
(11.5056 0.0373812 0)
(11.4939 -0.0183169 0)
(11.5272 0.0413648 0)
(11.6717 -0.0153375 0)
(11.6159 0.013543 0)
(11.5665 0.00936593 0)
(11.6518 -0.01235 0)
(11.6439 -0.00871707 0)
(11.6579 -0.0153001 0)
(11.6965 -0.0116438 0)
(11.6473 -0.0323097 0)
(11.651 -0.0483308 0)
(11.6897 -0.0407444 0)
(11.661 -0.0663592 0)
(11.6552 -0.0774334 0)
(11.6771 -0.0877403 0)
(11.6772 -0.0996659 0)
(11.6653 -0.117966 0)
(11.62 -0.120587 0)
(11.4229 -0.131815 0)
(10.0068 0.005913 0)
(10.0277 0.0203799 0)
(10.115 0.0182256 0)
(10.1924 0.0403096 0)
(10.3319 0.0259408 0)
(10.4629 0.0385112 0)
(10.5996 0.0279565 0)
(10.7423 0.0289813 0)
(10.883 0.0262199 0)
(10.9762 0.0163543 0)
(11.0732 0.0188069 0)
(11.1483 0.0057148 0)
(11.1981 0.0300577 0)
(11.2221 -0.00905202 0)
(11.2533 0.0340785 0)
(11.3411 -0.00315108 0)
(11.3451 0.00522207 0)
(11.3593 0.0205998 0)
(11.4941 -0.0155027 0)
(11.4713 0.0105393 0)
(11.4764 0.030799 0)
(11.4894 -0.0478405 0)
(11.5148 0.0509739 0)
(11.6488 -0.040958 0)
(11.6151 0.0131616 0)
(11.5459 -0.0051264 0)
(11.6308 -0.0141792 0)
(11.6354 -0.0187728 0)
(11.6435 -0.00566216 0)
(11.6786 -0.03698 0)
(11.6334 -0.0183779 0)
(11.6386 -0.0502713 0)
(11.6685 -0.0438764 0)
(11.6375 -0.071326 0)
(11.638 -0.0827633 0)
(11.6584 -0.114898 0)
(11.6521 -0.123511 0)
(11.6476 -0.165798 0)
(11.6111 -0.156661 0)
(11.4187 -0.154234 0)
(10.0035 -0.00377701 0)
(10.0315 -0.0192497 0)
(10.114 -0.0208364 0)
(10.1918 -0.0367325 0)
(10.3362 -0.0307369 0)
(10.4567 -0.0356063 0)
(10.6063 -0.0328131 0)
(10.7386 -0.0249416 0)
(10.8816 -0.0326517 0)
(10.9833 -0.0142775 0)
(11.0617 -0.0148546 0)
(11.1603 -0.0264442 0)
(11.1913 0.00593629 0)
(11.2201 -0.0423273 0)
(11.2623 0.00880305 0)
(11.3299 -0.0213473 0)
(11.352 -0.0190007 0)
(11.36 0.0107056 0)
(11.4842 -0.0240463 0)
(11.4851 -0.0199671 0)
(11.4649 0.0187273 0)
(11.4928 -0.0569059 0)
(11.518 0.0301352 0)
(11.6406 -0.0303926 0)
(11.6235 -0.0168053 0)
(11.5363 9.66331e-05 0)
(11.6333 -0.0254245 0)
(11.6361 -0.0161709 0)
(11.6367 -0.0155692 0)
(11.6785 -0.0322966 0)
(11.6315 -0.0279753 0)
(11.6268 -0.0335703 0)
(11.6676 -0.0609056 0)
(11.629 -0.050282 0)
(11.6225 -0.104236 0)
(11.6446 -0.111091 0)
(11.6417 -0.17164 0)
(11.6401 -0.187102 0)
(11.6192 -0.241395 0)
(11.4365 -0.145746 0)
(10.0048 -0.0179095 0)
(10.0316 -0.0434051 0)
(10.1163 -0.0827799 0)
(10.1993 -0.0872006 0)
(10.3439 -0.110296 0)
(10.4728 -0.0983344 0)
(10.6165 -0.0964392 0)
(10.7546 -0.0875278 0)
(10.8986 -0.0680985 0)
(10.9987 -0.0704798 0)
(11.0769 -0.0382888 0)
(11.172 -0.0574023 0)
(11.2028 -0.0313534 0)
(11.2351 -0.0540184 0)
(11.2769 -0.0293413 0)
(11.3388 -0.0361393 0)
(11.3721 -0.0371506 0)
(11.3707 -0.0160271 0)
(11.4898 -0.0181873 0)
(11.5071 -0.0588512 0)
(11.4687 0.0145131 0)
(11.5089 -0.0839032 0)
(11.5398 0.037359 0)
(11.6353 -0.056709 0)
(11.6481 -0.00912124 0)
(11.5498 -0.0433981 0)
(11.6406 0.0169643 0)
(11.6508 -0.0852721 0)
(11.6502 0.0466265 0)
(11.6811 -0.10482 0)
(11.6479 0.0311907 0)
(11.6315 -0.0944509 0)
(11.6765 0.00867332 0)
(11.627 -0.131868 0)
(11.627 -0.0267145 0)
(11.6382 -0.201412 0)
(11.6318 -0.113047 0)
(11.6251 -0.320837 0)
(11.646 -0.25926 0)
(11.5295 -0.422133 0)
(10.0043 -0.0282415 0)
(10.0335 -0.0819438 0)
(10.1245 -0.131545 0)
(10.2116 -0.158244 0)
(10.3656 -0.177595 0)
(10.4971 -0.165919 0)
(10.6472 -0.162392 0)
(10.7885 -0.136911 0)
(10.9239 -0.124908 0)
(11.0357 -0.107396 0)
(11.1019 -0.0733917 0)
(11.2019 -0.0869011 0)
(11.2307 -0.0604396 0)
(11.2586 -0.0808193 0)
(11.3086 -0.0593934 0)
(11.3627 -0.0487004 0)
(11.3965 -0.0619641 0)
(11.4098 -0.0286179 0)
(11.4996 -0.031298 0)
(11.5415 -0.0787007 0)
(11.4898 -0.0138086 0)
(11.5415 -0.0759232 0)
(11.5673 0.0012829 0)
(11.6537 -0.0388525 0)
(11.6708 -0.0393741 0)
(11.5896 -0.0426629 0)
(11.6546 0.00500402 0)
(11.6905 -0.0747235 0)
(11.6649 0.0239308 0)
(11.7034 -0.0820213 0)
(11.6738 0.00794716 0)
(11.6495 -0.0705651 0)
(11.6893 -0.00309481 0)
(11.6527 -0.113522 0)
(11.6343 -0.0316299 0)
(11.645 -0.186309 0)
(11.6261 -0.122692 0)
(11.6052 -0.30572 0)
(11.6004 -0.257615 0)
(11.6589 -0.440654 0)
(10.005 -0.0433717 0)
(10.0374 -0.116195 0)
(10.135 -0.19217 0)
(10.234 -0.227405 0)
(10.3981 -0.249298 0)
(10.5392 -0.235189 0)
(10.6919 -0.221051 0)
(10.8355 -0.198913 0)
(10.9731 -0.168741 0)
(11.0858 -0.14838 0)
(11.1473 -0.109588 0)
(11.2428 -0.112404 0)
(11.2719 -0.0995473 0)
(11.3013 -0.102212 0)
(11.3569 -0.0834204 0)
(11.4005 -0.0748057 0)
(11.4426 -0.0726094 0)
(11.454 -0.0514718 0)
(11.5311 -0.0436145 0)
(11.5835 -0.09098 0)
(11.5383 -0.0468897 0)
(11.579 -0.0642255 0)
(11.6211 -0.0362749 0)
(11.6804 -0.0184286 0)
(11.7102 -0.0825594 0)
(11.6502 -0.0228533 0)
(11.6883 -0.0279075 0)
(11.7358 -0.0384438 0)
(11.7049 -0.0314758 0)
(11.7342 -0.016291 0)
(11.7111 -0.0629473 0)
(11.6898 0.00370496 0)
(11.7172 -0.062905 0)
(11.6894 -0.0435152 0)
(11.6624 -0.0942075 0)
(11.671 -0.0945578 0)
(11.6413 -0.183457 0)
(11.623 -0.176615 0)
(11.6359 -0.247717 0)
(11.7688 -0.159101 0)
(10.0045 -0.0579193 0)
(10.0438 -0.160724 0)
(10.1534 -0.257553 0)
(10.2672 -0.305495 0)
(10.4426 -0.323996 0)
(10.598 -0.302001 0)
(10.758 -0.285535 0)
(10.9092 -0.248527 0)
(11.0376 -0.216592 0)
(11.1517 -0.186706 0)
(11.2088 -0.145074 0)
(11.3018 -0.138861 0)
(11.3365 -0.137131 0)
(11.3652 -0.118941 0)
(11.4176 -0.114437 0)
(11.4605 -0.0850032 0)
(11.498 -0.0979655 0)
(11.5219 -0.0675289 0)
(11.579 -0.0570306 0)
(11.6395 -0.105378 0)
(11.6037 -0.0757411 0)
(11.6407 -0.0653247 0)
(11.6818 -0.0513035 0)
(11.7262 -0.0336363 0)
(11.764 -0.0795497 0)
(11.7241 -0.0583218 0)
(11.7465 -0.0051458 0)
(11.7906 -0.0641929 0)
(11.7647 -0.0156086 0)
(11.7747 -0.0354285 0)
(11.7674 -0.0454089 0)
(11.7405 -0.0162346 0)
(11.7601 -0.0336898 0)
(11.7452 -0.069407 0)
(11.7176 -0.0550397 0)
(11.713 -0.100628 0)
(11.6877 -0.122526 0)
(11.6665 -0.140757 0)
(11.6844 -0.148762 0)
(11.8108 -0.155873 0)
(10.0018 -0.0769643 0)
(10.0576 -0.213029 0)
(10.1785 -0.334068 0)
(10.3177 -0.393201 0)
(10.4995 -0.404399 0)
(10.6818 -0.37703 0)
(10.8504 -0.346471 0)
(11.0091 -0.299454 0)
(11.1215 -0.262447 0)
(11.2334 -0.225784 0)
(11.2842 -0.178593 0)
(11.3773 -0.167295 0)
(11.4108 -0.165714 0)
(11.4451 -0.150995 0)
(11.4813 -0.126871 0)
(11.5246 -0.110367 0)
(11.5453 -0.112844 0)
(11.5872 -0.0916761 0)
(11.6091 -0.0688745 0)
(11.6831 -0.117874 0)
(11.6411 -0.0989552 0)
(11.6884 -0.0691666 0)
(11.6956 -0.07713 0)
(11.7537 -0.0284449 0)
(11.7562 -0.101626 0)
(11.7622 -0.0623756 0)
(11.7478 -0.0136219 0)
(11.7961 -0.0557 0)
(11.7578 -0.0291402 0)
(11.7743 -0.0165762 0)
(11.7501 -0.0579073 0)
(11.7517 -0.00786779 0)
(11.7465 -0.0282245 0)
(11.7543 -0.0611792 0)
(11.7215 -0.049958 0)
(11.7203 -0.0655247 0)
(11.6861 -0.0840835 0)
(11.664 -0.0751156 0)
(11.6599 -0.0892111 0)
(11.7759 -0.14411 0)
(9.99829 -0.0992214 0)
(10.079 -0.27936 0)
(10.2101 -0.424773 0)
(10.391 -0.491782 0)
(10.5771 -0.500025 0)
(10.7948 -0.467279 0)
(10.9499 -0.423609 0)
(11.1091 -0.358342 0)
(11.1772 -0.309301 0)
(11.2788 -0.269188 0)
(11.2898 -0.222405 0)
(11.3752 -0.200187 0)
(11.3577 -0.202436 0)
(11.4008 -0.171316 0)
(11.3591 -0.150867 0)
(11.4171 -0.122709 0)
(11.3549 -0.139272 0)
(11.4269 -0.105188 0)
(11.3499 -0.0969387 0)
(11.454 -0.113882 0)
(11.3141 -0.125859 0)
(11.4206 -0.069993 0)
(11.296 -0.0965673 0)
(11.4201 -0.030287 0)
(11.2948 -0.119689 0)
(11.3725 -0.0519983 0)
(11.259 -0.0435876 0)
(11.3567 -0.0256799 0)
(11.2304 -0.0541638 0)
(11.3252 0.0097175 0)
(11.2012 -0.0810034 0)
(11.2915 0.0160279 0)
(11.1983 -0.059113 0)
(11.2706 -0.0269205 0)
(11.1767 -0.0776216 0)
(11.2321 -0.00947741 0)
(11.1342 -0.0932523 0)
(11.1671 0.0243488 0)
(11.0979 -0.0259135 0)
(11.213 0.0808518 0)
(9.99846 -0.127877 0)
(10.0982 -0.356305 0)
(10.2584 -0.526272 0)
(10.4641 -0.604375 0)
(10.6331 -0.61157 0)
(10.7878 -0.569954 0)
(10.8406 -0.50239 0)
(10.8818 -0.413667 0)
(10.8365 -0.345117 0)
(10.8141 -0.293794 0)
(10.7153 -0.239872 0)
(10.6802 -0.208919 0)
(10.5518 -0.194166 0)
(10.4982 -0.160855 0)
(10.3593 -0.133539 0)
(10.334 -0.113962 0)
(10.1822 -0.11941 0)
(10.1791 -0.093145 0)
(10.0298 -0.0803745 0)
(10.0561 -0.0955223 0)
(9.84822 -0.0969981 0)
(9.91556 -0.0589687 0)
(9.70568 -0.0658 0)
(9.81708 -0.0317892 0)
(9.60968 -0.0815676 0)
(9.67647 -0.0403058 0)
(9.52892 -0.0239174 0)
(9.59851 -0.0131407 0)
(9.46217 -0.0284036 0)
(9.55576 0.00565347 0)
(9.41338 -0.0458013 0)
(9.5019 0.00353139 0)
(9.40168 -0.0366814 0)
(9.44453 -0.0248783 0)
(9.35868 -0.0497498 0)
(9.38797 -0.0096382 0)
(9.30602 -0.0554417 0)
(9.33885 0.0186928 0)
(9.29714 -0.0151933 0)
(9.24486 0.0451777 0)
(10.0011 -0.17101 0)
(10.1174 -0.440794 0)
(10.1783 -0.60923 0)
(10.1232 -0.668704 0)
(9.95447 -0.651955 0)
(9.70652 -0.586437 0)
(9.39304 -0.49433 0)
(9.09072 -0.394011 0)
(8.77791 -0.311098 0)
(8.49887 -0.239879 0)
(8.22392 -0.178946 0)
(8.00669 -0.138719 0)
(7.76477 -0.110769 0)
(7.59531 -0.077996 0)
(7.40588 -0.0585431 0)
(7.29626 -0.0436945 0)
(7.12434 -0.0411449 0)
(7.05751 -0.025585 0)
(6.92094 -0.0258649 0)
(6.87876 -0.0304729 0)
(6.71589 -0.0333987 0)
(6.72252 -0.0118513 0)
(6.56732 -0.0181181 0)
(6.62963 -0.00703774 0)
(6.46399 -0.0280026 0)
(6.51533 -0.0133544 0)
(6.40561 -0.00444453 0)
(6.45434 0.000112069 0)
(6.38221 -0.0137154 0)
(6.42807 0.00260272 0)
(6.35502 -0.0224189 0)
(6.38356 -0.00506359 0)
(6.3425 -0.0149536 0)
(6.31155 -0.0211296 0)
(6.30576 -0.0172271 0)
(6.23727 -0.0149972 0)
(6.25302 -0.0132597 0)
(6.15284 -0.0391641 0)
(6.18978 -0.0564061 0)
(5.98935 -0.180918 0)
(9.95559 -0.110845 0)
(9.19773 -0.385143 0)
(8.06366 -0.441333 0)
(6.91167 -0.364235 0)
(5.87734 -0.251511 0)
(5.00526 -0.144507 0)
(4.32521 -0.0628055 0)
(3.82073 -0.0106168 0)
(3.45092 0.0181005 0)
(3.19133 0.0302135 0)
(3.00365 0.0337462 0)
(2.87929 0.0331142 0)
(2.77829 0.0287499 0)
(2.71625 0.0249088 0)
(2.66027 0.0204398 0)
(2.63673 0.0177413 0)
(2.59618 0.00957825 0)
(2.58252 0.00617998 0)
(2.54697 0.00380292 0)
(2.53638 0.00218752 0)
(2.48563 -0.00179098 0)
(2.48261 0.000903198 0)
(2.43618 -0.00402877 0)
(2.45284 -0.000335968 0)
(2.39508 -0.00717491 0)
(2.40242 -0.00539994 0)
(2.3552 -0.00131336 0)
(2.37856 -0.00235146 0)
(2.34305 -0.00411407 0)
(2.36002 0.000513419 0)
(2.3238 -0.00537735 0)
(2.32842 6.71067e-05 0)
(2.30402 -0.00163626 0)
(2.28969 -0.00138369 0)
(2.27701 -0.00178121 0)
(2.23895 0.00305155 0)
(2.25363 -0.0076062 0)
(2.18025 -0.000330596 0)
(2.20764 -0.0301686 0)
(1.98261 0.00621276 0)
(2.41306 -0.192222 0)
(2.51363 -0.234884 0)
(2.64968 -0.223639 0)
(2.76784 -0.161324 0)
(2.8844 -0.0679212 0)
(2.99976 0.0369578 0)
(3.1121 0.142552 0)
(3.22398 0.251576 0)
(3.36805 0.363635 0)
(3.56132 0.47353 0)
(3.78452 0.575567 0)
(4.03091 0.665753 0)
(4.29579 0.741453 0)
(4.57535 0.797614 0)
(4.86609 0.817671 0)
(5.16307 0.813168 0)
(5.46802 0.791665 0)
(5.78378 0.730834 0)
(6.10249 0.626395 0)
(6.42725 0.492237 0)
(6.76088 0.348293 0)
(7.10393 0.200171 0)
(7.4572 0.0145808 0)
(7.79057 -0.182226 0)
(8.09171 -0.357222 0)
(8.37658 -0.611551 0)
(8.67743 -0.955662 0)
(8.97065 -1.21259 0)
(9.21317 -1.43803 0)
(9.47558 -1.77797 0)
(9.76531 -2.07146 0)
(10.0112 -2.29859 0)
(10.2776 -2.61746 0)
(10.5429 -2.93144 0)
(10.7298 -3.18837 0)
(10.9217 -3.47828 0)
(11.0745 -3.73079 0)
(11.1556 -3.90013 0)
(11.2597 -4.09291 0)
(11.2448 -4.27546 0)
(11.0838 -4.36383 0)
(10.9768 -4.43874 0)
(10.9149 -4.49773 0)
(10.846 -4.54385 0)
(10.6805 -4.64727 0)
(10.3872 -4.69985 0)
(10.1246 -4.65782 0)
(9.77834 -4.56429 0)
(9.34452 -4.43392 0)
(9.03404 -4.37873 0)
(8.61234 -4.30021 0)
(8.01961 -3.92505 0)
(7.55576 -3.37311 0)
(7.24164 -3.11761 0)
(7.06577 -3.30476 0)
(7.07354 -3.48094 0)
(7.12261 -3.30944 0)
(7.05392 -3.10775 0)
(6.86391 -3.14386 0)
(6.64481 -3.07882 0)
(6.49483 -2.64121 0)
(6.40821 -2.13288 0)
(6.2969 -1.96996 0)
(6.15567 -2.18645 0)
(6.08399 -2.46951 0)
(6.14019 -2.51843 0)
(6.24771 -2.31887 0)
(6.27437 -2.09038 0)
(6.17855 -2.01162 0)
(6.03477 -2.04519 0)
(5.93014 -2.03458 0)
(5.88148 -1.91171 0)
(5.85014 -1.76101 0)
(5.79923 -1.71078 0)
(5.72945 -1.80198 0)
(5.68139 -1.94777 0)
(5.70801 -1.99453 0)
(5.83058 -1.83209 0)
(6.01348 -1.47257 0)
(6.18238 -1.03794 0)
(6.26936 -0.673041 0)
(6.24738 -0.460968 0)
(6.13379 -0.400809 0)
(5.97001 -0.441609 0)
(5.79761 -0.526169 0)
(5.64449 -0.613523 0)
(5.52289 -0.681769 0)
(5.43373 -0.723275 0)
(5.37198 -0.739115 0)
(5.33077 -0.734538 0)
(5.30372 -0.715873 0)
(5.28589 -0.68876 0)
(5.27378 -0.657437 0)
(5.26512 -0.624703 0)
(5.25852 -0.592201 0)
(5.25313 -0.560775 0)
(5.24847 -0.530784 0)
(5.24425 -0.502326 0)
(5.24032 -0.475374 0)
(5.23659 -0.449856 0)
(5.233 -0.425691 0)
(5.22952 -0.402802 0)
(5.22614 -0.381121 0)
(5.22286 -0.36059 0)
(5.21968 -0.341154 0)
(5.21659 -0.322762 0)
(5.21361 -0.305368 0)
(5.21073 -0.288923 0)
(5.20798 -0.273383 0)
(5.20534 -0.2587 0)
(5.20282 -0.244832 0)
(5.20044 -0.231734 0)
(5.19817 -0.219365 0)
(5.19604 -0.207684 0)
(5.19402 -0.19665 0)
(5.19213 -0.186229 0)
(5.19036 -0.176383 0)
(5.18871 -0.167079 0)
(5.18716 -0.158286 0)
(5.18572 -0.149974 0)
(5.18438 -0.142114 0)
(5.18313 -0.13468 0)
(5.18198 -0.127647 0)
(5.1809 -0.120992 0)
(5.17991 -0.114695 0)
(5.17899 -0.108732 0)
(5.17813 -0.103088 0)
(5.17734 -0.0977414 0)
(5.17661 -0.0926787 0)
(5.17594 -0.0878808 0)
(5.17531 -0.0833367 0)
(5.17473 -0.079029 0)
(5.1742 -0.074948 0)
(5.17371 -0.0710779 0)
(5.17325 -0.0674113 0)
(5.17283 -0.063933 0)
(5.17244 -0.060637 0)
(5.17208 -0.0575097 0)
(5.17175 -0.0545459 0)
(5.17144 -0.0517333 0)
(5.17115 -0.0490669 0)
(5.17089 -0.0465372 0)
(5.17065 -0.044138 0)
(5.17042 -0.0418621 0)
(5.17021 -0.0397028 0)
(5.17001 -0.0376553 0)
(5.16983 -0.0357119 0)
(5.16966 -0.0338695 0)
(5.16951 -0.0321199 0)
(5.16936 -0.0304619 0)
(5.16923 -0.0288865 0)
(5.16911 -0.0273939 0)
(5.16899 -0.0259751 0)
(5.16888 -0.0246315 0)
(5.16878 -0.0233541 0)
(5.16869 -0.0221445 0)
(5.1686 -0.0209943 0)
(5.16852 -0.0199047 0)
(5.16844 -0.018869 0)
(5.16837 -0.0178872 0)
(5.16831 -0.0169546 0)
(5.16825 -0.0160699 0)
(5.16819 -0.01523 0)
(5.16813 -0.0144326 0)
(5.16808 -0.0136764 0)
(5.16804 -0.0129572 0)
(5.168 -0.0122756 0)
(5.16795 -0.0116273 0)
(5.16792 -0.0110129 0)
(5.16788 -0.0104282 0)
(5.16785 -0.00987417 0)
(5.16782 -0.00934648 0)
(5.16779 -0.00884658 0)
(5.16776 -0.0083703 0)
(5.16773 -0.00791908 0)
(5.16771 -0.00748854 0)
(5.16769 -0.00708115 0)
(5.16766 -0.00669195 0)
(5.16764 -0.00632341 0)
(5.16762 -0.00597125 0)
(5.16761 -0.00563766 0)
(5.16759 -0.00531841 0)
(5.16758 -0.00501579 0)
(5.16756 -0.00472623 0)
(5.16755 -0.00445098 0)
(5.16754 -0.00418823 0)
(5.16752 -0.00393749 0)
(5.16751 -0.00369841 0)
(5.1675 -0.00346998 0)
(5.16749 -0.00325201 0)
(5.16748 -0.00304293 0)
(5.16747 -0.00284348 0)
(5.16746 -0.00265159 0)
(5.16746 -0.00246826 0)
(5.16745 -0.00229142 0)
(5.16745 -0.00212252 0)
(5.16744 -0.00195915 0)
(5.16743 -0.00180283 0)
(5.16743 -0.00165103 0)
(5.16742 -0.00150539 0)
(5.16742 -0.00136326 0)
(5.16741 -0.00122643 0)
(5.16741 -0.00109277 0)
(5.16741 -0.000963573 0)
(5.1674 -0.000836779 0)
(5.1674 -0.000713899 0)
(5.1674 -0.000593122 0)
(5.16739 -0.000475016 0)
(5.16739 -0.000358329 0)
(5.16739 -0.000244033 0)
(5.16739 -0.000130877 0)
(5.16739 -1.90021e-05 0)
(5.16739 9.20455e-05 0)
(5.16739 0.000202458 0)
(5.16738 0.000312398 0)
(5.16738 0.00042243 0)
(5.16739 0.00053222 0)
(5.16739 0.000643141 0)
(5.16739 0.000754279 0)
(5.16739 0.000867126 0)
(5.16739 0.00098044 0)
(5.16739 0.00109624 0)
(5.16739 0.0012128 0)
(5.16739 0.00133256 0)
(5.16739 0.00145373 0)
(5.1674 0.0015784 0)
(5.1674 0.00170484 0)
(5.1674 0.00183564 0)
(5.1674 0.00196947 0)
(5.16741 0.00210726 0)
(5.16741 0.00224839 0)
(5.16742 0.0023945 0)
(5.16742 0.00254616 0)
(5.16742 0.00270195 0)
(5.16743 0.0028634 0)
(5.16743 0.00303008 0)
(5.16744 0.00320505 0)
(5.16744 0.00338446 0)
(5.16745 0.00357194 0)
(5.16746 0.00376527 0)
(5.16746 0.00396895 0)
(5.16747 0.00417851 0)
(5.16748 0.00439761 0)
(5.16749 0.00462483 0)
(5.1675 0.00486333 0)
(5.16751 0.00511114 0)
(5.16752 0.00536898 0)
(5.16753 0.005639 0)
(5.16754 0.00592049 0)
(5.16755 0.0062158 0)
(5.16756 0.00652136 0)
(5.16757 0.00684371 0)
(5.16759 0.00717787 0)
(5.1676 0.00753061 0)
(5.16762 0.00789423 0)
(5.16763 0.00827978 0)
(5.16765 0.00867782 0)
(5.16766 0.00910018 0)
(5.16768 0.00953422 0)
(5.1677 0.00999647 0)
(5.16772 0.0104721 0)
(5.16774 0.0109786 0)
(5.16777 0.0114983 0)
(5.16779 0.0120526 0)
(5.16781 0.0126231 0)
(5.16784 0.0132299 0)
(5.16787 0.0138547 0)
(5.1679 0.0145184 0)
(5.16793 0.0152051 0)
(5.16796 0.0159317 0)
(5.168 0.0166844 0)
(5.16803 0.0174795 0)
(5.16807 0.0183069 0)
(5.16811 0.019178 0)
(5.16815 0.0200851 0)
(5.1682 0.0210392 0)
(5.16824 0.0220362 0)
(5.16829 0.0230822 0)
(5.16834 0.0241757 0)
(5.1684 0.0253221 0)
(5.16846 0.0265241 0)
(5.16852 0.0277817 0)
(5.16858 0.0291007 0)
(5.16865 0.03048 0)
(5.16872 0.0319303 0)
(5.1688 0.0334444 0)
(5.16888 0.0350368 0)
(5.16896 0.036699 0)
(5.16905 0.0384507 0)
(5.16915 0.0402769 0)
(5.16924 0.042202 0)
(5.16935 0.0442088 0)
(5.16945 0.0463279 0)
(5.16957 0.0485352 0)
(5.16968 0.0508665 0)
(5.16981 0.0532954 0)
(5.16993 0.055864 0)
(5.17006 0.0585393 0)
(5.17019 0.0613687 0)
(5.17033 0.0643171 0)
(5.17046 0.0674379 0)
(5.1706 0.0706898 0)
(5.17073 0.0741322 0)
(5.17085 0.0777186 0)
(5.17098 0.0815224 0)
(5.17106 0.0854721 0)
(5.17119 0.0896834 0)
(5.17118 0.0940093 0)
(5.17135 0.0987013 0)
(5.17109 0.103376 0)
(5.1715 0.108667 0)
(5.17056 0.113573 0)
(5.17189 0.119673 0)
(5.16898 0.124563 0)
(5.17332 0.131749 0)
(5.16495 0.13633 0)
(5.17785 0.144689 0)
(5.15534 0.149203 0)
(5.19013 0.157583 0)
(5.13394 0.164569 0)
(5.21859 0.168027 0)
(5.09062 0.185888 0)
(5.27518 0.171479 0)
(5.01359 0.218798 0)
(5.36954 0.162672 0)
(4.89946 0.26763 0)
(5.49438 0.141987 0)
(4.77314 0.325606 0)
(5.60549 0.126434 0)
(4.70699 0.36294 0)
(5.61619 0.154181 0)
(4.80373 0.333226 0)
(5.438 0.263387 0)
(5.10794 0.221783 0)
(5.08143 0.439808 0)
(5.48962 0.105989 0)
(4.74353 0.580985 0)
(5.69003 0.11471 0)
(4.67966 0.571506 0)
(5.58462 0.268328 0)
(4.8781 0.473522 0)
(5.38345 0.391177 0)
(5.00066 0.523182 0)
(5.41862 0.288152 0)
(4.84468 0.788488 0)
(5.6359 0.0968275 0)
(4.69268 0.99705 0)
(5.63649 0.138787 0)
(4.86656 0.930423 0)
(5.36571 0.386577 0)
(5.13813 0.803904 0)
(5.21751 0.539572 0)
(5.16045 0.868495 0)
(5.31263 0.499439 0)
(5.06643 1.07925 0)
(5.36833 0.445549 0)
(5.09215 1.22406 0)
(5.31699 0.563394 0)
(5.14005 1.17623 0)
(5.3116 0.830309 0)
(5.13706 1.11008 0)
(5.30701 0.998115 0)
(5.1925 1.19574 0)
(5.21703 1.1313 0)
(5.3228 1.17707 0)
(5.08377 1.42737 0)
(5.43306 1.16541 0)
(5.01886 1.57984 0)
(5.45698 1.28463 0)
(4.97211 1.8519 0)
(5.48831 1.25147 0)
(4.93282 2.15182 0)
(5.43819 1.40316 0)
(4.93661 2.43203 0)
(5.38739 1.49213 0)
(4.92735 2.72593 0)
(5.29055 1.85071 0)
(4.98568 2.84148 0)
(5.16164 2.26102 0)
(5.11554 2.97829 0)
(5.0211 2.77945 0)
(5.27575 2.99913 0)
(4.93444 3.35879 0)
(5.42817 2.99251 0)
(4.91447 3.93893 0)
(5.45713 3.07548 0)
(5.0205 4.45084 0)
(5.32684 3.47125 0)
(5.20884 4.79865 0)
(5.10383 4.29126 0)
(5.41251 4.91646 0)
(4.91241 5.52405 0)
(5.43047 5.09144 0)
(5.04554 6.75355 0)
(5.02591 5.88763 0)
(5.38695 7.68773 0)
(4.68364 8.13832 0)
(5.31138 8.09737 0)
(5.79459 11.1485 0)
(4.53785 12.1594 0)
(6.50623 -0.227918 0)
(6.59791 -0.342508 0)
(6.73162 -0.368924 0)
(6.85126 -0.303437 0)
(6.94225 -0.194781 0)
(6.997 -0.0735987 0)
(7.04401 0.050713 0)
(7.09514 0.160203 0)
(7.1566 0.25179 0)
(7.24219 0.328917 0)
(7.35993 0.385993 0)
(7.50154 0.417536 0)
(7.65938 0.431751 0)
(7.84816 0.432839 0)
(8.05882 0.41609 0)
(8.27501 0.378753 0)
(8.51788 0.303601 0)
(8.78511 0.205198 0)
(9.04891 0.113656 0)
(9.31897 -0.026279 0)
(9.59916 -0.216985 0)
(9.87598 -0.381288 0)
(10.1524 -0.557024 0)
(10.4211 -0.760661 0)
(10.6896 -0.949183 0)
(10.9796 -1.17036 0)
(11.2531 -1.40192 0)
(11.4626 -1.61306 0)
(11.682 -1.84578 0)
(11.9165 -2.06436 0)
(12.0612 -2.26634 0)
(12.2028 -2.50128 0)
(12.3668 -2.74279 0)
(12.4068 -2.96997 0)
(12.4144 -3.19413 0)
(12.4453 -3.40376 0)
(12.3342 -3.56567 0)
(12.1453 -3.69916 0)
(11.9669 -3.82807 0)
(11.7227 -3.88941 0)
(11.5097 -3.91101 0)
(11.2852 -3.95495 0)
(10.9034 -3.94962 0)
(10.5991 -3.96098 0)
(10.3752 -4.05531 0)
(9.92942 -4.01665 0)
(9.42538 -3.85593 0)
(9.03526 -3.82845 0)
(8.61022 -3.86485 0)
(8.19153 -3.76203 0)
(7.82617 -3.53593 0)
(7.46903 -3.30047 0)
(7.23807 -3.11909 0)
(7.18296 -3.04161 0)
(7.21256 -3.15286 0)
(7.23299 -3.39334 0)
(7.13549 -3.47048 0)
(6.91777 -3.27571 0)
(6.71268 -3.0298 0)
(6.5832 -2.81603 0)
(6.51187 -2.49345 0)
(6.50703 -2.10334 0)
(6.56964 -1.91662 0)
(6.65792 -2.06777 0)
(6.71722 -2.35836 0)
(6.71568 -2.4688 0)
(6.63782 -2.29356 0)
(6.47402 -2.01409 0)
(6.2598 -1.86741 0)
(6.08024 -1.88648 0)
(5.99455 -1.89561 0)
(5.97642 -1.75263 0)
(5.93491 -1.5184 0)
(5.78771 -1.36934 0)
(5.52397 -1.41917 0)
(5.21355 -1.6376 0)
(4.96342 -1.87925 0)
(4.85955 -1.97642 0)
(4.93152 -1.83801 0)
(5.14744 -1.49051 0)
(5.43303 -1.04634 0)
(5.70383 -0.637831 0)
(5.89625 -0.359278 0)
(5.98413 -0.239991 0)
(5.9767 -0.251837 0)
(5.90393 -0.338751 0)
(5.79957 -0.446994 0)
(5.69017 -0.541387 0)
(5.59165 -0.606776 0)
(5.51071 -0.641884 0)
(5.44807 -0.652226 0)
(5.40143 -0.645099 0)
(5.36746 -0.627008 0)
(5.34286 -0.602798 0)
(5.32489 -0.575687 0)
(5.31142 -0.547638 0)
(5.30094 -0.51976 0)
(5.29238 -0.492638 0)
(5.28505 -0.466551 0)
(5.2785 -0.441618 0)
(5.27248 -0.417871 0)
(5.2668 -0.395307 0)
(5.26139 -0.373902 0)
(5.25619 -0.353622 0)
(5.25119 -0.334428 0)
(5.24637 -0.316281 0)
(5.24175 -0.299135 0)
(5.23731 -0.282947 0)
(5.23307 -0.267668 0)
(5.22902 -0.253253 0)
(5.22517 -0.239655 0)
(5.22153 -0.226828 0)
(5.21808 -0.214727 0)
(5.21483 -0.203311 0)
(5.21176 -0.192536 0)
(5.20889 -0.182366 0)
(5.20619 -0.172762 0)
(5.20366 -0.163691 0)
(5.20129 -0.15512 0)
(5.19908 -0.147018 0)
(5.19701 -0.139357 0)
(5.19508 -0.132112 0)
(5.19328 -0.125256 0)
(5.1916 -0.118768 0)
(5.19003 -0.112625 0)