/*--------------------------------*- C++ -*----------------------------------*\
| =========                 |                                                 |
| \\      /  F ield         | OpenFOAM: The Open Source CFD Toolbox           |
|  \\    /   O peration     | Version:  2.4.0                                 |
|   \\  /    A nd           | Web:      www.OpenFOAM.org                      |
|    \\/     M anipulation  |                                                 |
\*---------------------------------------------------------------------------*/
FoamFile
{
    version     2.0;
    format      ascii;
    class       volScalarField;
    location    "0.002";
    object      omega;
}
// * * * * * * * * * * * * * * * * * * * * * * * * * * * * * * * * * * * * * //

dimensions      [0 0 -1 0 0 0 0];

internalField   nonuniform List<scalar> 
4400
(
396.912
868.581
1411.37
1898.14
2255.17
2480.99
2607.93
2671.32
2691.29
2720
176.482
320.539
497.723
684.183
852.488
988.993
1092.41
1167.76
1226.56
1325.86
81.1491
144.788
217.059
295.938
374.784
448.013
512.805
568.727
620.38
699.971
46.2922
77.6203
112.342
150.118
189.306
228.091
265.25
300.326
335.481
386.253
32.4833
49.1491
67.84
88.1317
109.452
131.149
152.756
174.105
196.325
226.55
26.3909
35.8789
46.8805
58.9307
71.7045
84.8949
98.2896
111.826
126.093
144.35
23.4636
29.1864
36.1754
44.0034
52.4145
61.2067
70.2466
79.4908
89.2327
100.986
21.9907
25.6522
30.4406
35.9924
42.0759
48.5211
55.2157
62.1088
69.3348
77.6013
21.2584
23.8139
27.414
31.7536
36.6117
41.8264
47.2878
52.9318
58.8046
65.2182
20.9533
23.0219
26.0952
29.9021
34.2261
38.906
43.829
48.9168
54.1641
59.6687
20.9533
23.0219
26.0952
29.9019
34.2252
38.9024
43.8164
48.8724
54.0332
59.2588
21.2584
23.8139
27.4139
31.7529
36.6089
41.8155
47.2495
52.7948
58.3831
63.8613
21.9907
25.6521
30.4403
35.9911
42.0706
48.5008
55.1438
61.8514
68.5305
74.849
23.4636
29.1863
36.1749
44.0012
52.4055
61.172
70.1231
79.0469
87.821
95.8205
26.3909
35.8788
46.8797
58.927
71.6894
84.8364
98.0808
111.073
123.64
134.662
32.4833
49.1488
67.8387
88.1254
109.426
131.05
152.405
172.842
192.106
208.304
46.2921
77.6199
112.34
150.107
189.263
227.93
264.686
298.319
328.585
352.906
81.149
144.788
217.055
295.922
374.719
447.778
512.016
566.001
610.579
643.38
176.481
320.538
497.718
684.164
852.42
988.77
1091.71
1165.43
1217.12
1249.26
396.911
868.581
1411.37
1898.15
2255.22
2481.17
2608.61
2673.07
2700.45
2709.88
2527.62
2345.86
2122.23
1919.79
1750.12
1609.18
1490.9
1390.05
1302.72
1226.07
1157.97
1096.86
1041.55
991.164
945.032
902.651
863.641
827.703
794.592
764.095
736.017
710.168
686.359
664.397
644.09
625.246
607.677
591.203
575.657
560.888
546.764
533.168
520.005
507.197
494.682
482.414
470.358
458.493
446.807
435.297
423.968
412.828
401.894
391.184
380.716
370.513
360.593
350.976
341.676
332.706
324.075
315.788
307.847
300.25
292.991
286.063
279.455
273.156
267.151
261.428
255.972
250.767
245.799
241.054
236.519
232.181
228.027
224.047
220.231
216.569
213.055
209.68
206.438
203.326
200.34
197.476
194.735
192.117
189.625
187.264
185.039
182.953
181.022
179.27
177.731
176.452
175.502
174.981
175.045
175.934
178.036
182.011
189.005
201.06
221.773
257.154
316.545
415.135
607.273
1167.4
1370.61
1442.79
1490.34
1497.52
1465.44
1408.09
1338.75
1266.34
1195.69
1129.04
1067.15
1010.12
957.735
909.69
865.662
825.345
788.464
754.768
724.025
696.013
670.517
647.321
626.208
606.959
589.356
573.184
558.232
544.3
531.205
518.78
506.88
495.381
484.184
473.209
462.399
451.713
441.13
430.636
420.235
409.934
399.751
389.705
379.822
370.127
360.646
351.404
342.422
333.721
325.316
317.22
309.44
301.981
294.842
288.021
281.51
275.301
269.383
263.743
258.368
253.244
248.355
243.689
239.23
234.966
230.883
226.97
223.215
219.609
216.143
212.808
209.598
206.507
203.529
200.661
197.9
195.244
192.694
190.25
187.917
185.698
183.6
181.628
179.799
178.135
176.669
175.447
174.536
174.031
174.081
174.913
176.9
180.67
187.331
198.875
218.844
253.185
311.053
407.566
587.163
1032
726.461
765.687
806.642
850.009
889.461
915.53
925.413
920.322
903.533
878.758
849.223
817.373
784.908
752.952
722.213
693.12
665.911
640.7
617.514
596.316
577.024
559.524
543.674
529.313
516.268
504.359
493.405
483.228
473.662
464.553
455.766
447.187
438.723
430.304
421.881
413.425
404.924
396.38
387.807
379.227
370.669
362.165
353.749
345.455
337.316
329.362
321.62
314.111
306.855
299.863
293.145
286.704
280.542
274.654
269.034
263.674
258.563
253.689
249.039
244.599
240.357
236.3
232.413
228.686
225.106
221.664
218.35
215.154
212.07
209.091
206.21
203.424
200.728
198.119
195.597
193.159
190.807
188.542
186.369
184.292
182.319
180.458
178.725
177.143
175.743
174.572
173.691
173.196
173.228
174.004
175.878
179.447
185.77
196.761
215.838
248.705
303.921
394.966
554.462
892.328
402.006
420.581
439.323
457.961
479.688
503.036
525.413
544.27
557.826
565.366
567.118
563.916
556.862
547.073
535.543
523.085
510.33
497.74
485.64
474.244
463.672
453.978
445.159
437.169
429.931
423.346
417.298
411.665
406.325
401.161
396.066
390.949
385.736
380.371
374.819
369.063
363.102
356.95
350.631
344.18
337.635
331.04
324.436
317.866
311.369
304.982
298.736
292.656
286.763
281.073
275.595
270.337
265.299
260.479
255.872
251.472
247.267
243.249
239.406
235.725
232.196
228.807
225.547
222.405
219.372
216.44
213.599
210.845
208.169
205.568
203.037
200.572
198.171
195.832
193.555
191.339
189.186
187.098
185.081
183.139
181.282
179.519
177.869
176.352
175.001
173.86
172.991
172.485
172.478
173.179
174.923
178.276
184.238
194.625
212.672
243.711
295.478
379.139
517.542
765.865
235.898
245.698
254.996
263.35
271.641
281.063
291.614
302.94
314.401
325.24
334.773
342.524
348.275
352.053
354.06
354.604
354.027
352.668
350.822
348.736
346.598
344.541
342.648
340.959
339.476
338.172
336.997
335.888
334.769
333.565
332.201
330.612
328.744
326.557
324.026
321.145
317.92
314.372
310.531
306.439
302.139
297.681
293.114
288.484
283.837
279.211
274.643
270.16
265.788
261.544
257.44
253.485
249.682
246.031
242.529
239.17
235.948
232.854
229.878
227.012
224.246
221.57
218.976
216.455
214
211.605
209.264
206.97
204.721
202.513
200.342
198.207
196.107
194.04
192.008
190.011
188.051
186.131
184.256
182.433
180.672
178.987
177.395
175.917
174.584
173.441
172.548
171.994
171.912
172.501
174.081
177.184
182.747
192.469
209.365
238.318
286.144
361.566
479.823
660.636
150.014
155.672
160.96
165.578
169.628
173.753
178.12
182.861
188.033
193.603
199.454
205.412
211.288
216.91
222.154
226.953
231.295
235.213
238.767
242.034
245.089
247.996
250.808
253.556
256.25
258.884
261.432
263.857
266.11
268.139
269.889
271.311
272.362
273.008
273.232
273.025
272.394
271.36
269.951
268.207
266.172
263.892
261.418
258.796
256.072
253.287
250.477
247.672
244.897
242.173
239.513
236.926
234.42
231.995
229.65
227.382
225.187
223.057
220.987
218.969
216.995
215.06
213.156
211.278
209.42
207.578
205.748
203.927
202.112
200.301
198.494
196.689
194.886
193.087
191.291
189.5
187.718
185.946
184.191
182.458
180.765
179.124
177.553
176.073
174.714
173.52
172.551
171.895
171.68
172.1
173.458
176.254
181.361
190.348
205.988
232.678
276.317
343.366
443.242
575.668
104.641
108.219
111.594
114.605
117.231
119.727
122.154
124.589
127.113
129.798
132.695
135.836
139.226
142.849
146.675
150.667
154.79
159.012
163.309
167.665
172.069
176.513
180.987
185.48
189.973
194.44
198.849
203.158
207.322
211.29
215.012
218.44
221.53
224.246
226.563
228.468
229.957
231.04
231.736
232.074
232.088
231.818
231.305
230.591
229.716
228.717
227.626
226.473
225.281
224.069
222.851
221.637
220.433
219.243
218.065
216.899
215.741
214.588
213.434
212.274
211.103
209.916
208.709
207.479
206.222
204.935
203.617
202.266
200.881
199.463
198.01
196.525
195.007
193.458
191.879
190.272
188.64
186.986
185.314
183.632
181.962
180.318
178.716
177.176
175.727
174.413
173.293
172.454
172.023
172.188
173.239
175.645
180.213
188.38
202.663
226.982
266.364
325.37
409.079
507.513
80.1767
82.6775
85.0739
87.287
89.2962
91.1996
93.0156
94.7729
96.5094
98.2682
100.094
102.03
104.114
106.376
108.84
111.519
114.421
117.547
120.894
124.454
128.216
132.168
136.294
140.574
144.983
149.494
154.072
158.679
163.27
167.799
172.218
176.477
180.53
184.339
187.867
191.091
193.994
196.572
198.827
200.771
202.425
203.812
204.96
205.898
206.655
207.26
207.737
208.108
208.393
208.606
208.757
208.855
208.905
208.908
208.864
208.772
208.629
208.432
208.176
207.859
207.477
207.026
206.504
205.909
205.239
204.493
203.672
202.775
201.802
200.756
199.637
198.447
197.186
195.857
194.462
193.002
191.478
189.895
188.254
186.564
184.858
183.146
181.439
179.757
178.13
176.598
175.222
174.088
173.322
173.11
173.73
175.626
179.539
186.773
199.595
221.467
256.646
308.194
378.106
452.751
67.2205
69.1606
71.0497
72.8508
74.5596
76.2149
77.8228
79.3948
80.9479
82.5032
84.0849
85.7187
87.4303
89.2443
91.1826
93.2639
95.5034
97.9124
100.499
103.267
106.218
109.351
112.661
116.142
119.783
123.571
127.488
131.514
135.621
139.78
143.957
148.118
152.226
156.245
160.142
163.888
167.46
170.841
174.022
176.998
179.773
182.354
184.751
186.978
189.05
190.981
192.784
194.472
196.053
197.534
198.921
200.216
201.419
202.529
203.544
204.46
205.274
205.981
206.577
207.06
207.425
207.671
207.796
207.799
207.679
207.437
207.075
206.593
205.993
205.277
204.448
203.506
202.455
201.295
200.028
198.655
197.177
195.596
193.913
192.137
190.314
188.441
186.53
184.597
182.669
180.786
179.009
177.425
176.16
175.4
175.416
176.629
179.722
185.872
197.103
216.459
247.544
292.315
350.708
408.582
61.3898
63.0598
64.7088
66.3233
67.9137
69.4942
71.0699
72.648
74.2382
75.8522
77.5032
79.2049
80.9713
82.8153
84.7489
86.782
88.9224
91.1757
93.5453
96.0327
98.6381
101.36
104.197
107.146
110.205
113.369
116.636
119.998
123.451
126.984
130.586
134.243
137.941
141.66
145.381
149.087
152.758
156.379
159.936
163.417
166.815
170.124
173.342
176.466
179.496
182.432
185.274
188.02
190.668
193.216
195.657
197.988
200.2
202.288
204.244
206.06
207.731
209.249
210.609
211.806
212.837
213.7
214.393
214.915
215.268
215.452
215.47
215.323
215.015
214.548
213.925
213.148
212.22
211.141
209.913
208.536
207.009
205.332
203.505
201.547
199.495
197.342
195.093
192.764
190.378
187.973
185.608
183.371
181.392
179.856
179.032
179.326
181.371
186.227
195.688
212.43
239.523
278.177
327.061
372.921
60.8926
62.4842
64.0744
65.6682
67.2828
68.9244
70.5999
72.3173
74.0849
75.9114
77.8053
79.7746
81.8262
83.9655
86.1959
88.519
90.9338
93.4375
96.025
98.6901
101.425
104.223
107.077
109.979
112.926
115.914
118.942
122.011
125.123
128.282
131.491
134.754
138.074
141.452
144.888
148.379
151.923
155.514
159.144
162.805
166.49
170.188
173.889
177.583
181.257
184.9
188.499
192.04
195.509
198.89
202.169
205.33
208.358
211.238
213.957
216.503
218.863
221.028
222.99
224.743
226.282
227.604
228.707
229.592
230.26
230.713
230.955
230.988
230.816
230.444
229.875
229.112
228.157
227.013
225.68
224.156
222.442
220.533
218.427
216.163
213.743
211.163
208.424
205.533
202.51
199.388
196.225
193.106
190.162
187.58
185.63
184.706
185.405
188.684
196.129
210.09
233.228
266.309
307.328
344.382
65.571
67.246
68.9373
70.6719
72.4598
74.3112
76.2368
78.2469
80.351
82.5577
84.874
87.3053
89.8544
92.5216
95.3042
98.1965
101.19
104.273
107.432
110.652
113.916
117.21
120.518
123.827
127.127
130.412
133.678
136.928
140.164
143.396
146.634
149.891
153.18
156.516
159.911
163.376
166.922
170.553
174.274
178.082
181.975
185.945
189.98
194.065
198.185
202.319
206.446
210.542
214.582
218.543
222.398
226.124
229.697
233.096
236.3
239.292
242.057
244.582
246.857
248.874
250.628
252.117
253.341
254.299
254.996
255.435
255.622
255.561
255.259
254.722
253.955
252.962
251.748
250.315
248.665
246.795
244.704
242.387
239.84
237.114
234.178
231.023
227.643
224.041
220.226
216.227
212.091
207.898
203.772
199.897
196.542
194.091
193.113
194.481
199.596
210.528
229.631
257.489
291.869
322.256
76.8152
78.757
80.7438
82.8151
84.9757
87.2425
89.6314
92.1564
94.8298
97.6612
100.657
103.821
107.153
110.648
114.296
118.085
121.997
126.011
130.104
134.25
138.423
142.599
146.752
150.865
154.92
158.907
162.82
166.661
170.434
174.151
177.827
181.48
185.128
188.795
192.498
196.258
200.09
204.006
208.015
212.12
216.319
220.606
224.968
229.39
233.849
238.321
242.779
247.193
251.532
255.765
259.86
263.788
267.52
271.031
274.299
277.303
280.028
282.461
284.592
286.416
287.93
289.134
290.03
290.624
290.92
290.928
290.655
290.111
289.305
288.245
286.94
285.398
283.623
281.62
279.392
276.938
274.254
271.336
268.179
264.838
261.25
257.4
253.279
248.879
244.203
239.264
234.097
228.767
223.381
218.107
213.198
209.021
206.114
205.276
207.749
215.355
230.225
252.973
281.494
306.57
98.3005
100.777
103.363
106.058
108.891
111.887
115.068
118.454
122.058
125.891
129.958
134.259
138.789
143.534
148.475
153.589
158.845
164.21
169.645
175.113
180.575
185.994
191.337
196.576
201.691
206.667
211.498
216.185
220.737
225.17
229.501
233.756
237.96
242.139
246.318
250.519
254.761
259.058
263.419
267.847
272.338
276.881
281.462
286.059
290.648
295.198
299.677
304.052
308.289
312.353
316.212
319.834
323.193
326.264
329.026
331.463
333.562
335.316
336.72
337.774
338.481
338.846
338.877
338.585
337.982
337.08
335.892
334.434
332.717
330.754
328.557
326.136
323.499
320.652
317.597
314.336
310.866
307.178
303.279
299.205
294.874
290.272
285.383
280.194
274.693
268.883
262.779
256.422
249.894
243.332
236.954
231.091
226.232
223.096
222.771
226.846
237.261
254.807
277.811
298.317
138.07
141.561
145.18
148.957
152.934
157.147
161.625
166.389
171.457
176.836
182.525
188.514
194.786
201.313
208.06
214.984
222.035
229.161
236.305
243.412
250.428
257.303
263.996
270.473
276.708
282.688
288.41
293.879
299.111
304.128
308.957
313.63
318.181
322.64
327.039
331.403
335.753
340.104
344.463
348.83
353.198
357.555
361.879
366.145
370.325
374.386
378.292
382.01
385.505
388.743
391.694
394.332
396.633
398.579
400.156
401.354
402.169
402.601
402.653
402.334
401.655
400.628
399.27
397.597
395.627
393.38
390.873
388.126
385.154
381.974
378.6
375.044
371.317
367.424
363.369
359.153
354.771
350.214
345.533
340.659
335.564
330.227
324.625
318.737
312.542
306.025
299.183
292.035
284.631
277.07
269.525
262.271
255.726
250.507
247.538
248.16
254.089
266.318
283.823
300.005
213.346
218.509
223.824
229.338
235.113
241.194
247.616
254.4
261.558
269.084
276.964
285.169
293.656
302.374
311.261
320.247
329.258
338.217
347.046
355.672
364.03
372.062
379.722
386.977
393.807
400.205
406.179
411.748
416.94
421.79
426.341
430.635
434.716
438.625
442.4
446.071
449.663
453.192
456.664
460.079
463.428
466.695
469.857
472.887
475.753
478.424
480.863
483.039
484.918
486.473
487.679
488.515
488.965
489.02
488.675
487.931
486.791
485.266
483.369
481.117
478.53
475.628
472.434
468.973
465.267
461.341
457.216
452.915
448.457
443.859
439.138
434.306
429.373
424.345
419.224
414.009
408.692
403.263
397.791
392.181
386.409
380.449
374.274
367.853
361.155
354.155
346.832
339.184
331.232
323.04
314.733
306.524
298.751
291.918
286.773
284.391
286.198
293.266
305.252
317.071
360.301
367.815
375.469
383.307
391.406
399.82
408.579
417.695
427.161
436.952
447.024
457.316
467.756
478.26
488.734
499.083
509.208
519.014
528.414
537.329
545.693
553.458
560.589
567.069
572.901
578.099
582.695
586.732
590.261
593.339
596.027
598.386
600.472
602.338
604.029
605.582
607.024
608.371
609.63
610.799
611.865
612.809
613.607
614.229
614.641
614.812
614.708
614.299
613.558
612.462
610.994
609.141
606.899
604.266
601.25
597.86
594.113
590.027
585.627
580.937
575.984
570.797
565.405
559.836
554.117
548.276
542.336
536.321
530.25
524.141
518.01
511.867
505.72
499.574
493.43
487.281
481.118
474.932
468.806
462.628
456.369
449.997
443.481
436.782
429.864
422.691
415.23
407.46
399.381
391.022
382.465
373.864
365.475
357.693
351.095
346.5
345.007
347.602
354.442
362.028
653.115
662.855
672.543
682.222
691.991
701.907
711.994
722.245
732.63
743.093
753.56
763.939
774.129
784.022
793.509
802.482
810.844
818.506
825.396
831.46
836.663
840.99
844.446
847.056
848.861
849.92
850.299
850.075
849.331
848.147
846.606
844.78
842.738
840.537
838.222
835.827
833.373
830.869
828.312
825.69
822.98
820.155
817.181
814.025
810.649
807.021
803.11
798.889
794.338
789.444
784.2
778.605
772.667
766.399
759.818
752.949
745.818
738.455
730.893
723.165
715.305
707.347
699.323
691.264
683.199
675.156
667.159
659.229
651.386
643.645
636.02
628.52
621.152
613.919
606.82
599.85
592.998
586.29
579.74
573.252
566.796
560.345
553.869
547.334
540.708
533.956
527.043
519.943
512.64
505.139
497.483
489.771
482.182
474.999
468.646
463.712
460.982
461.243
464.904
469.943
1258.43
1267.32
1275.79
1283.88
1291.68
1299.26
1306.58
1313.62
1320.31
1326.56
1332.26
1337.31
1341.61
1345.06
1347.57
1349.08
1349.54
1348.93
1347.22
1344.46
1340.67
1335.93
1330.3
1323.87
1316.76
1309.06
1300.89
1292.35
1283.54
1274.56
1265.48
1256.37
1247.27
1238.23
1229.27
1220.37
1211.55
1202.77
1194
1185.2
1176.34
1167.36
1158.23
1148.9
1139.34
1129.52
1119.42
1109.02
1098.33
1087.34
1076.07
1064.55
1052.8
1040.84
1028.73
1016.49
1004.17
991.812
979.458
967.149
954.924
942.821
930.874
919.116
907.577
896.281
885.255
874.517
864.086
853.979
844.209
834.789
825.729
817.039
808.727
800.799
793.256
786.14
779.305
772.74
766.446
760.432
754.705
749.278
744.157
739.352
734.871
730.725
726.927
723.506
720.51
718.021
716.176
715.188
715.371
717.162
721.155
728.038
738.551
752.199
2711.97
2713.28
2713.64
2712.91
2711.01
2707.8
2703.14
2696.87
2688.86
2679
2667.23
2653.51
2637.85
2620.29
2600.91
2579.83
2557.21
2533.21
2508.05
2481.92
2455.04
2427.63
2399.9
2372.04
2344.23
2316.63
2289.36
2262.52
2236.18
2210.38
2185.11
2160.37
2136.11
2112.26
2088.76
2065.52
2042.43
2019.41
1996.37
1973.23
1949.91
1926.36
1902.54
1878.42
1853.99
1829.27
1804.27
1779.04
1753.61
1728.05
1702.42
1676.79
1651.22
1625.8
1600.59
1575.67
1551.1
1526.94
1503.25
1480.09
1457.5
1435.52
1414.2
1393.56
1373.65
1354.48
1336.07
1318.46
1301.66
1285.7
1270.59
1256.38
1243.07
1230.72
1219.36
1209.05
1199.83
1191.53
1183.93
1177.22
1171.55
1167.09
1163.99
1162.43
1162.62
1164.77
1169.15
1176.04
1185.8
1198.84
1215.64
1236.81
1263.06
1295.29
1334.65
1382.56
1440.92
1512.25
1600.2
1708.48
399.578
475.709
556.055
635.766
715.641
788.855
854.062
910.648
958.774
998.944
1031.87
1058.31
1078.91
1094.06
1104.35
1110.34
1112.54
1111.38
1107.28
1100.64
1091.87
1081.38
1069.57
1056.85
1043.6
1030.16
1016.84
1003.88
991.463
979.674
968.533
958.007
947.966
938.232
928.62
918.876
908.752
898.018
886.437
873.831
860.158
846.932
844.897
848.054
851.11
853.458
855.053
855.928
856.134
855.73
854.781
853.357
851.53
849.373
846.956
844.347
841.609
838.801
835.975
833.177
830.448
827.819
825.318
822.965
820.775
818.756
816.91
815.236
813.726
812.367
811.14
810.022
808.985
807.993
807.005
805.974
804.844
803.549
802.014
800.151
797.85
794.802
790.657
785.304
778.566
770.211
759.958
747.48
732.409
714.346
692.878
667.603
638.171
604.341
565.98
523.386
477.005
432.06
386.324
350.369
175.468
420.785
504.855
551.076
587.758
616.001
637.827
654.81
668.165
678.756
687.188
693.907
699.367
703.417
705.987
707.204
707.2
706.105
704.049
701.161
697.573
693.415
688.823
683.926
678.848
673.699
668.574
663.544
658.656
653.929
649.355
644.903
640.515
636.119
631.63
626.953
621.992
616.658
610.854
604.541
597.694
591.296
588.628
588.183
588.043
587.741
587.168
586.31
585.178
583.798
582.202
580.421
578.492
576.449
574.325
572.153
569.962
567.78
565.632
563.54
561.524
559.599
557.78
556.078
554.501
553.056
551.746
550.575
549.541
548.645
547.882
547.248
546.737
546.343
546.056
545.868
545.768
545.745
545.785
545.874
545.992
546.059
546.016
545.811
545.39
544.688
543.62
542.072
539.887
536.85
532.666
526.922
519.052
508.29
493.589
473.776
447.129
413.02
346.67
157.754
181.737
391.409
466.181
491.734
506.689
516.09
522.846
528.372
533.316
537.908
542.212
546.258
550.315
553.635
556.11
557.765
558.655
558.845
558.403
557.403
555.921
554.036
551.83
549.383
546.767
544.05
541.287
538.518
535.768
533.047
530.347
527.645
524.909
522.092
519.146
516.018
512.643
508.985
504.957
500.592
495.931
491.441
488.329
486.243
484.407
482.521
480.485
478.271
475.882
473.334
470.649
467.85
464.964
462.017
459.034
456.039
453.053
450.097
447.189
444.346
441.583
438.91
436.339
433.879
431.538
429.32
427.231
425.275
423.454
421.771
420.228
418.827
417.57
416.459
415.497
414.688
414.039
413.557
413.253
413.14
413.239
413.585
414.236
415.204
416.517
418.212
420.332
422.918
425.995
429.552
433.5
437.608
441.409
444.075
444.221
439.946
428.079
404.397
336.268
168.938
187.425
368.991
433.328
447.132
451.989
454.555
457.349
460.946
465.251
469.97
474.843
479.713
484.539
488.65
491.943
494.439
496.187
497.249
497.689
497.572
496.97
495.955
494.602
492.981
491.159
489.196
487.141
485.029
482.885
480.718
478.524
476.288
473.988
471.588
469.054
466.349
463.403
460.237
456.78
453.037
449.059
445.086
441.625
438.622
435.753
432.844
429.819
426.656
423.356
419.931
416.401
412.786
409.111
405.397
401.668
397.944
394.243
390.584
386.983
383.452
380.005
376.652
373.4
370.259
367.233
364.329
361.55
358.901
356.383
354.001
351.758
349.655
347.699
345.893
344.244
342.759
341.45
340.33
339.418
338.736
338.317
338.235
338.577
339.399
340.776
342.806
345.608
349.327
354.121
360.151
367.535
376.288
386.19
396.61
406.223
412.924
412.707
399.105
336.195
182.56
192.402
350.168
405.417
412.951
413.748
414.848
417.986
422.912
428.967
435.541
442.217
448.756
454.916
460.18
464.47
467.826
470.316
472.013
472.992
473.332
473.109
472.409
471.314
469.9
468.239
466.399
464.433
462.378
460.265
458.109
455.906
453.649
451.323
448.887
446.326
443.612
440.688
437.546
434.151
430.499
426.626
422.66
418.838
415.175
411.542
407.845
404.04
400.111
396.062
391.909
387.669
383.364
379.016
374.648
370.281
365.935
361.627
357.375
353.192
349.091
345.082
341.176
337.378
333.697
330.136
326.7
323.392
320.215
317.172
314.265
311.497
308.87
306.389
304.057
301.883
299.873
298.039
296.395
294.961
293.76
292.829
292.243
292.092
292.449
293.41
295.1
297.681
301.352
306.359
312.985
321.525
332.224
345.159
360.03
375.806
390.525
399.803
395.812
341.187
198.628
196.631
333.671
381.464
386.074
386.112
388.355
393.71
401.263
409.971
419.046
427.996
436.543
444.304
450.886
456.252
460.469
463.63
465.83
467.163
467.726
467.617
466.936
465.783
464.249
462.419
460.374
458.178
455.872
453.498
451.077
448.599
446.074
443.491
440.811
438.006
435.054
431.912
428.559
424.973
421.145
417.097
412.898
408.665
404.427
400.138
395.756
391.259
386.644
381.92
377.105
372.217
367.281
362.32
357.355
352.408
347.499
342.645
337.863
333.166
328.565
324.071
319.691
315.432
311.3
307.298
303.43
299.697
296.102
292.646
289.331
286.159
283.13
280.249
277.519
274.945
272.535
270.299
268.249
266.404
264.787
263.431
262.405
261.789
261.662
262.124
263.308
265.391
268.599
273.223
279.623
288.217
299.448
313.67
330.96
350.72
371.371
388.529
393.685
348.955
217.264
200.131
318.865
360.666
364.49
365.728
370.551
379.087
389.912
401.725
413.644
425.15
435.924
445.46
453.471
459.962
465.035
468.812
471.419
472.968
473.585
473.394
472.519
471.082
469.199
466.964
464.487
461.841
459.065
456.232
453.362
450.451
447.497
444.492
441.403
438.201
434.861
431.346
427.63
423.694
419.527
415.137
410.561
405.86
401.06
396.153
391.126
385.976
380.71
375.343
369.895
364.39
358.852
353.306
347.775
342.281
336.843
331.48
326.206
321.036
315.98
311.047
306.244
301.578
297.052
292.669
288.431
284.339
280.395
276.598
272.949
269.449
266.098
262.899
259.853
256.965
254.241
251.689
249.321
247.152
245.202
243.504
242.113
241.103
240.548
240.544
241.225
242.765
245.4
249.437
255.278
263.421
274.45
288.962
307.395
329.645
354.674
378.415
392.234
358.324
238.655
202.975
305.41
342.468
347.001
350.764
359.107
371.438
385.937
401.144
416.146
430.427
443.583
455.016
464.521
472.152
478.053
482.38
485.29
486.919
487.43
486.979
485.714
483.793
481.359
478.509
475.405
472.126
468.727
465.27
461.786
458.28
454.748
451.18
447.547
443.819
439.967
435.956
431.759
427.353
422.725
417.873
412.817
407.59
402.211
396.689
391.028
385.239
379.336
373.34
367.276
361.17
355.048
348.937
342.861
336.842
330.901
325.055
319.319
313.708
308.229
302.893
297.706
292.671
287.792
283.071
278.509
274.105
269.86
265.773
261.843
258.07
254.452
250.991
247.688
244.546
241.569
238.763
236.139
233.71
231.495
229.519
227.831
226.494
225.576
225.17
225.399
226.432
228.5
231.914
237.088
244.569
255.037
269.277
288.054
311.759
339.987
369.239
391.212
368.659
263.044
205.315
293.182
326.606
333.069
340.435
353.045
369.639
388.105
406.905
425.162
442.399
458.001
471.379
482.376
491.106
497.757
502.524
505.603
507.15
507.378
506.478
504.616
502.013
498.833
495.209
491.298
487.204
483
478.749
474.489
470.231
465.974
461.706
457.399
453.023
448.543
443.926
439.14
434.16
428.969
423.56
417.941
412.128
406.14
399.989
393.691
387.264
380.729
374.113
367.443
360.749
354.059
347.401
340.8
334.279
327.859
321.557
315.388
309.365
303.497
297.791
292.252
286.884
281.69
276.669
271.821
267.146
262.641
258.305
254.136
250.131
246.291
242.613
239.098
235.748
232.565
229.555
226.724
224.086
221.655
219.455
217.526
215.921
214.702
213.955
213.795
214.381
215.932
218.753
223.258
230.014
239.765
253.435
272.064
296.514
327.048
360.926
390.538
379.648
290.739
207.425
282.28
313.184
322.817
334.857
352.421
373.665
396.298
418.794
440.386
460.676
478.649
493.904
506.282
515.973
523.212
528.24
531.29
532.545
532.276
530.717
528.08
524.605
520.485
515.889
510.979
505.88
500.685
495.462
490.257
485.089
479.958
474.849
469.737
464.588
459.366
454.033
448.556
442.905
437.06
431.01
424.754
418.302
411.668
404.868
397.922
390.855
383.691
376.463
369.2
361.933
354.694
347.511
340.41
333.414
326.544
319.817
313.247
306.846
300.622
294.581
288.728
283.065
277.592
272.309
267.214
262.305
257.579
253.032
248.663
244.467
240.443
236.587
232.901
229.382
226.034
222.859
219.864
217.059
214.456
212.077
209.953
208.131
206.666
205.637
205.148
205.349
206.447
208.731
212.611
218.654
227.642
240.6
258.794
283.51
315.685
353.466
390.228
391.176
322.151
209.77
273.127
302.889
317.231
335.147
358.298
384.466
411.329
437.477
462.343
485.528
505.644
522.53
536.007
546.368
553.905
558.904
561.634
562.36
561.367
558.927
555.294
550.727
545.452
539.67
533.556
527.256
520.878
514.504
508.184
501.944
495.785
489.694
483.644
477.599
471.519
465.363
459.095
452.681
446.099
439.331
432.374
425.233
417.919
410.449
402.845
395.136
387.351
379.522
371.682
363.866
356.103
348.423
340.854
333.417
326.133
319.019
312.087
305.348
298.809
292.475
286.349
280.432
274.722
269.217
263.915
258.813
253.905
249.188
244.657
240.308
236.137
232.143
228.321
224.672
221.195
217.894
214.772
211.838
209.102
206.584
204.307
202.313
200.65
199.39
198.63
198.507
199.215
201.029
204.344
209.722
217.961
230.16
247.763
272.435
305.764
346.874
390.344
403.257
357.833
213.133
266.728
297.453
318.583
343.721
372.911
404.047
434.958
464.479
492.35
517.888
539.587
557.453
571.543
582.139
589.567
594.154
596.217
596.073
594.038
590.422
585.516
579.602
572.935
565.74
558.213
550.514
542.769
535.067
527.466
519.997
512.664
505.454
498.337
491.277
484.228
477.148
469.995
462.735
455.339
447.789
440.077
432.205
424.183
416.027
407.762
399.417
391.023
382.613
374.224
365.888
357.636
349.499
341.503
333.669
326.017
318.562
311.316
304.287
297.481
290.902
284.551
278.425
272.525
266.844
261.38
256.127
251.08
246.234
241.582
237.119
232.842
228.745
224.826
221.083
217.514
214.122
210.909
207.882
205.05
202.429
200.039
197.913
196.096
194.654
193.674
193.284
193.663
195.072
197.89
202.666
210.203
221.649
238.593
263.033
297.171
341.168
390.968
415.992
398.544
218.802
265.165
300.468
331.059
364.679
399.913
435.34
469.539
501.866
532.243
559.06
581.451
599.503
613.422
623.526
630.177
633.748
634.603
633.101
629.593
624.42
617.905
610.352
602.035
593.199
584.054
574.771
565.488
556.3
547.273
538.438
529.802
521.352
513.057
504.875
496.762
488.67
480.555
472.378
464.109
455.727
447.221
438.591
429.845
421.001
412.082
403.117
394.139
385.182
376.281
367.468
358.776
350.232
341.862
333.686
325.722
317.983
310.48
303.218
296.202
289.434
282.911
276.632
270.592
264.786
259.209
253.853
248.713
243.781
239.051
234.516
230.172
226.013
222.034
218.233
214.609
211.161
207.892
204.807
201.913
199.224
196.756
194.537
192.608
191.026
189.875
189.269
189.378
190.447
192.834
197.078
203.975
214.707
230.978
255.08
289.795
336.356
392.18
429.56
445.351
228.802
272.508
318.522
361.11
402.877
443.549
482.412
518.934
553.06
584.561
611.125
632.765
649.69
662.217
670.72
675.606
677.287
676.169
672.648
667.102
659.898
651.378
641.857
631.622
620.923
609.975
598.953
587.997
577.206
566.645
556.346
546.316
536.541
526.986
517.611
508.367
499.202
490.072
480.934
471.756
462.515
453.199
443.805
434.342
424.825
415.278
405.728
396.209
386.753
377.394
368.164
359.093
350.208
341.53
333.08
324.873
316.918
309.225
301.797
294.636
287.741
281.109
274.735
268.614
262.738
257.101
251.694
246.51
241.54
236.777
232.214
227.844
223.662
219.663
215.842
212.198
208.73
205.439
202.329
199.408
196.685
194.173
191.896
189.891
188.212
186.933
186.161
186.054
186.841
188.865
192.645
198.971
209.044
224.663
248.382
283.523
332.425
394.046
444.236
499.794
246.102
296.356
361.053
416.292
465.777
510.547
551.194
588.304
622.572
652.293
676.293
695.018
708.862
718.244
723.593
725.354
723.972
719.882
713.501
705.225
695.429
684.459
672.626
660.21
647.454
634.561
621.699
608.997
596.548
584.411
572.614
561.161
550.034
539.197
528.606
518.21
507.958
497.801
487.698
477.613
467.522
457.413
447.282
437.136
426.99
416.866
406.79
396.795
386.91
377.168
367.598
358.229
349.083
340.181
331.538
323.168
315.078
307.274
299.755
292.523
285.573
278.9
272.498
266.359
260.473
254.834
249.43
244.254
239.296
234.547
230.001
225.649
221.485
217.503
213.7
210.072
206.619
203.34
200.238
197.32
194.595
192.072
189.771
187.726
185.987
184.621
183.728
183.454
184.016
185.738
189.122
194.946
204.422
219.429
242.756
278.232
329.336
396.602