/*--------------------------------*- C++ -*----------------------------------*\
| =========                 |                                                 |
| \\      /  F ield         | OpenFOAM: The Open Source CFD Toolbox           |
|  \\    /   O peration     | Version:  2.4.0                                 |
|   \\  /    A nd           | Web:      www.OpenFOAM.org                      |
|    \\/     M anipulation  |                                                 |
\*---------------------------------------------------------------------------*/
FoamFile
{
    version     2.0;
    format      ascii;
    class       surfaceScalarField;
    location    "0.002";
    object      phi;
}
// * * * * * * * * * * * * * * * * * * * * * * * * * * * * * * * * * * * * * //

dimensions      [0 3 -1 0 0 0 0];

internalField   nonuniform List<scalar> 
8640
(
2.44548e-05
5.4514e-07
2.39853e-05
4.69486e-07
2.35429e-05
4.42425e-07
2.31032e-05
4.39724e-07
2.26788e-05
4.24345e-07
2.2276e-05
4.02787e-07
2.18965e-05
3.79412e-07
2.15393e-05
3.5723e-07
2.11906e-05
3.48528e-07
5.71143e-07
2.06194e-05
2.50162e-05
5.28957e-07
2.49747e-05
5.1093e-07
2.49213e-05
4.95792e-07
2.48504e-05
5.10633e-07
2.47635e-05
5.1122e-07
2.4663e-05
5.0327e-07
2.45504e-05
4.9193e-07
2.44259e-05
4.81719e-07
2.42786e-05
4.95799e-07
6.52235e-07
2.41975e-05
2.50635e-05
4.6546e-07
2.51071e-05
4.67326e-07
2.51444e-05
4.58407e-07
2.51785e-05
4.76575e-07
2.52069e-05
4.82765e-07
2.52291e-05
4.81035e-07
2.52444e-05
4.76646e-07
2.52513e-05
4.74767e-07
2.52473e-05
4.99741e-07
6.19784e-07
2.52797e-05
2.5072e-05
3.93468e-07
2.5133e-05
4.0632e-07
2.51901e-05
4.01241e-07
2.52479e-05
4.18758e-07
2.53043e-05
4.26379e-07
2.53582e-05
4.27082e-07
2.54089e-05
4.25961e-07
2.54552e-05
4.28428e-07
2.54983e-05
4.56619e-07
5.54938e-07
2.55631e-05
2.50716e-05
3.21835e-07
2.51375e-05
3.40413e-07
2.52012e-05
3.3757e-07
2.52668e-05
3.53139e-07
2.53325e-05
3.60673e-07
2.53971e-05
3.6245e-07
2.54598e-05
3.63226e-07
2.55198e-05
3.68443e-07
2.55794e-05
3.96946e-07
4.81663e-07
2.56527e-05
2.50689e-05
2.52944e-07
2.51365e-05
2.7281e-07
2.52028e-05
2.7124e-07
2.52717e-05
2.84237e-07
2.53414e-05
2.90966e-07
2.54106e-05
2.93204e-07
2.54786e-05
2.95209e-07
2.55446e-05
3.02394e-07
2.56114e-05
3.30124e-07
4.0592e-07
2.56872e-05
2.5066e-05
1.86974e-07
2.51341e-05
2.04646e-07
2.52015e-05
2.03815e-07
2.52719e-05
2.13862e-07
2.53435e-05
2.19352e-07
2.5415e-05
2.21675e-07
2.54857e-05
2.24509e-07
2.55549e-05
2.33147e-07
2.56253e-05
2.59708e-07
3.29826e-07
2.57014e-05
2.50636e-05
1.23336e-07
2.51319e-05
1.36383e-07
2.51997e-05
1.35984e-07
2.52707e-05
1.42845e-07
2.53432e-05
1.4681e-07
2.54159e-05
1.48979e-07
2.5488e-05
1.52347e-07
2.55591e-05
1.62079e-07
2.56313e-05
1.87428e-07
2.5431e-07
2.57069e-05
2.50621e-05
6.12708e-08
2.51303e-05
6.81687e-08
2.51982e-05
6.8029e-08
2.52695e-05
7.15785e-08
2.53424e-05
7.38463e-08
2.54157e-05
7.56924e-08
2.54886e-05
7.93978e-08
2.55607e-05
8.99394e-08
2.56339e-05
1.14165e-07
1.79919e-07
2.57083e-05
2.50613e-05
-1.08334e-11
2.51294e-05
2.03395e-12
2.51974e-05
4.58911e-11
2.52687e-05
2.2153e-10
2.53419e-05
7.07973e-10
2.54154e-05
2.14703e-09
2.54887e-05
6.04887e-09
2.55614e-05
1.72088e-08
2.56351e-05
4.05083e-08
1.07019e-07
2.5708e-05
2.50613e-05
-6.12907e-08
2.51294e-05
-6.81626e-08
2.51974e-05
-6.79368e-08
2.52687e-05
-7.1136e-08
2.53419e-05
-7.24424e-08
2.54155e-05
-7.14495e-08
2.54889e-05
-6.74098e-08
2.55619e-05
-5.5773e-08
2.56355e-05
-3.31714e-08
3.59378e-08
2.57066e-05
2.50621e-05
-1.23357e-07
2.51303e-05
-1.36379e-07
2.51982e-05
-1.35897e-07
2.52695e-05
-1.42424e-07
2.53425e-05
-1.4546e-07
2.54159e-05
-1.44875e-07
2.54892e-05
-1.40711e-07
2.5562e-05
-1.2866e-07
2.56353e-05
-1.06476e-07
-3.29924e-08
2.57043e-05
2.50636e-05
-1.86993e-07
2.51319e-05
-2.04642e-07
2.51997e-05
-2.03734e-07
2.52707e-05
-2.13464e-07
2.53433e-05
-2.18079e-07
2.54163e-05
-2.17811e-07
2.5489e-05
-2.13444e-07
2.55613e-05
-2.01005e-07
2.56338e-05
-1.78948e-07
-9.93188e-08
2.57001e-05
2.5066e-05
-2.52963e-07
2.51341e-05
-2.72809e-07
2.52015e-05
-2.7117e-07
2.52719e-05
-2.8388e-07
2.53437e-05
-2.89809e-07
2.54155e-05
-2.89657e-07
2.5487e-05
-2.84958e-07
2.55581e-05
-2.72084e-07
2.56289e-05
-2.49817e-07
-1.62382e-07
2.5692e-05
2.50689e-05
-3.21853e-07
2.51365e-05
-3.40414e-07
2.52028e-05
-3.37511e-07
2.52717e-05
-3.52825e-07
2.53416e-05
-3.59654e-07
2.54112e-05
-3.59315e-07
2.54803e-05
-3.54006e-07
2.55487e-05
-3.40588e-07
2.56166e-05
-3.17743e-07
-2.21027e-07
2.56753e-05
2.50716e-05
-3.93486e-07
2.51375e-05
-4.06325e-07
2.52012e-05
-4.01198e-07
2.52669e-05
-4.185e-07
2.53327e-05
-4.25525e-07
2.53978e-05
-4.2442e-07
2.54618e-05
-4.18025e-07
2.5525e-05
-4.03738e-07
2.5587e-05
-3.79846e-07
-2.72854e-07
2.56389e-05
2.5072e-05
-4.65474e-07
2.5133e-05
-4.67332e-07
2.51902e-05
-4.58377e-07
2.5248e-05
-4.76375e-07
2.53046e-05
-4.82096e-07
2.53591e-05
-4.7894e-07
2.54113e-05
-4.70237e-07
2.54617e-05
-4.54188e-07
2.55104e-05
-4.28563e-07
-3.11941e-07
2.55495e-05
2.50635e-05
-5.28969e-07
2.51071e-05
-5.10938e-07
2.51445e-05
-4.95776e-07
2.51786e-05
-5.10498e-07
2.52073e-05
-5.10764e-07
2.52301e-05
-5.01826e-07
2.52473e-05
-4.87424e-07
2.52599e-05
-4.6679e-07
2.52695e-05
-4.38158e-07
-3.18085e-07
2.52756e-05
2.50162e-05
-5.45149e-07
2.49747e-05
-4.69494e-07
2.49214e-05
-4.42424e-07
2.48505e-05
-4.39662e-07
2.47639e-05
-4.24134e-07
2.46641e-05
-4.02115e-07
2.4554e-05
-3.77257e-07
2.44371e-05
-3.49939e-07
2.43198e-05
-3.20866e-07
-2.29758e-07
2.42315e-05
2.44549e-05
2.39854e-05
2.35429e-05
2.31033e-05
2.26791e-05
2.2277e-05
2.18998e-05
2.15498e-05
2.1229e-05
2.09992e-05
2.0108e-05
1.1255e-07
3.98813e-07
1.94929e-05
8.02892e-08
5.34824e-07
1.88513e-05
-2.92221e-09
6.44567e-07
1.83073e-05
-9.9527e-08
6.43449e-07
1.78825e-05
-1.92547e-07
6.17348e-07
1.75723e-05
-2.84042e-07
5.94162e-07
1.73599e-05
-3.71468e-07
5.83854e-07
1.72232e-05
-4.54452e-07
5.91194e-07
1.7141e-05
-5.33856e-07
6.1599e-07
1.70959e-05
-6.11628e-07
6.56779e-07
1.70745e-05
-6.90041e-07
7.11448e-07
1.70676e-05
-7.71595e-07
7.78459e-07
1.70694e-05
-8.58693e-07
8.56916e-07
1.70766e-05
-9.52813e-07
9.45632e-07
1.70874e-05
-1.05513e-06
1.04429e-06
1.7101e-05
-1.16655e-06
1.15295e-06
1.71169e-05
-1.28761e-06
1.2717e-06
1.71347e-05
-1.41877e-06
1.40094e-06
1.7154e-05
-1.56018e-06
1.5408e-06
1.71745e-05
-1.71173e-06
1.69113e-06
1.7196e-05
-1.87314e-06
1.85165e-06
1.72179e-05
-2.04406e-06
2.02203e-06
1.724e-05
-2.22413e-06
2.20205e-06
1.72614e-05
-2.41297e-06
2.39144e-06
1.72814e-05
-2.60955e-06
2.5898e-06
1.72986e-05
-2.813e-06
2.79593e-06
1.73116e-05
-3.02132e-06
3.00837e-06
1.73188e-05
-3.232e-06
3.2248e-06
1.73186e-05
-3.44182e-06
3.44206e-06
1.73093e-05
-3.64688e-06
3.65628e-06
1.72891e-05
-3.84281e-06
3.86304e-06
1.72566e-05
-4.02489e-06
4.05754e-06
1.72102e-05
-4.18832e-06
4.23482e-06
1.71487e-05
-4.32846e-06
4.39005e-06
1.70711e-05
-4.44106e-06
4.51877e-06
1.69766e-05
-4.52254e-06
4.61716e-06
1.68648e-05
-4.57017e-06
4.68221e-06
1.67353e-05
-4.58219e-06
4.71187e-06
1.65884e-05
-4.55796e-06
4.70506e-06
1.64248e-05
-4.49794e-06
4.66167e-06
1.62462e-05
-4.40351e-06
4.58234e-06
1.6055e-05
-4.27682e-06
4.4682e-06
1.58549e-05
-4.12035e-06
4.32064e-06
1.56507e-05
-3.93659e-06
4.14101e-06
1.54477e-05
-3.72769e-06
3.93077e-06
1.52517e-05
-3.49542e-06
3.69151e-06
1.50677e-05
-3.24151e-06
3.42559e-06
1.48995e-05
-2.96813e-06
3.13631e-06
1.47495e-05
-2.67834e-06
2.82831e-06
1.46184e-05
-2.37632e-06
2.50727e-06
1.45059e-05
-2.06731e-06
2.17975e-06
1.44106e-05
-1.75727e-06
1.85251e-06
1.43306e-05
-1.45232e-06
1.53224e-06
1.42639e-05
-1.15834e-06
1.22491e-06
1.42087e-05
-8.80549e-07
9.35707e-07
1.41632e-05
-6.23206e-07
6.68605e-07
1.41261e-05
-3.89423e-07
4.26483e-07
1.40961e-05
-1.81069e-07
2.1097e-07
1.40722e-05
1.57363e-09
2.23603e-08
1.40531e-05
1.5878e-07
-1.39801e-07
1.40383e-05
2.90694e-07
-2.75923e-07
1.40271e-05
3.97867e-07
-3.86744e-07
1.40191e-05
4.81349e-07
-4.73408e-07
1.40139e-05
5.42602e-07
-5.37459e-07
1.40111e-05
5.83395e-07
-5.80701e-07
1.40105e-05
6.05704e-07
-6.05139e-07
1.40117e-05
6.11635e-07
-6.12887e-07
1.40144e-05
6.03363e-07
-6.06122e-07
1.40183e-05
5.83094e-07
-5.87056e-07
1.40231e-05
5.53041e-07
-5.57893e-07
1.40284e-05
5.15425e-07
-5.2086e-07
1.40341e-05
4.72473e-07
-4.78166e-07
1.40396e-05
4.26426e-07
-4.32067e-07
1.40448e-05
3.79554e-07
-3.84817e-07
1.40493e-05
3.34194e-07
-3.38766e-07
1.40528e-05
2.9278e-07
-2.96318e-07
1.40549e-05
2.57867e-07
-2.60044e-07
1.40553e-05
2.32168e-07
-2.32627e-07
1.40536e-05
2.1861e-07
-2.17009e-07
1.40494e-05
2.20374e-07
-2.1631e-07
1.40424e-05
2.4098e-07
-2.3406e-07
1.40321e-05
2.84363e-07
-2.74122e-07
1.4018e-05
3.55026e-07
-3.40978e-07
1.39996e-05
4.58226e-07
-4.39753e-07
1.3976e-05
6.00157e-07
-5.76595e-07
1.39466e-05
7.88204e-07
-7.58732e-07
1.39103e-05
1.03131e-06
-9.95001e-07
1.3866e-05
1.34046e-06
-1.29615e-06
1.38124e-05
1.72946e-06
-1.67573e-06
1.37475e-05
2.21593e-06
-2.151e-06
1.36691e-05
2.82315e-06
-2.74473e-06
1.35742e-05
3.58299e-06
-3.48801e-06
1.34585e-05
4.54127e-06
-4.42557e-06
1.33162e-05
5.76714e-06
-5.62483e-06
1.31382e-05
7.36856e-06
-7.19051e-06
1.29099e-05
9.50866e-06
-9.28038e-06
1.25996e-05
1.24155e-05
-1.21051e-05
1.21799e-05
1.6333e-05
-1.59133e-05
1.16406e-05
2.17153e-05
-2.11761e-05
3.11752e-05
-3.55443e-05
1.60096e-05
2.41316e-05
1.784e-07
2.40338e-05
1.78163e-07
2.38766e-05
1.54197e-07
2.3664e-05
1.13118e-07
2.34035e-05
6.79284e-08
2.31059e-05
1.35457e-08
2.27867e-05
-5.2305e-08
2.24608e-05
-1.28579e-07
2.21415e-05
-2.14514e-07
2.18393e-05
-3.0947e-07
2.15617e-05
-4.12414e-07
2.13124e-05
-5.22269e-07
2.10919e-05
-6.38215e-07
2.08986e-05
-7.59536e-07
2.07295e-05
-8.86033e-07
2.05809e-05
-1.01803e-06
2.04495e-05
-1.15616e-06
2.03319e-05
-1.30126e-06
2.02258e-05
-1.45407e-06
2.01291e-05
-1.61507e-06
2.00403e-05
-1.78445e-06
1.99584e-05
-1.96215e-06
1.98822e-05
-2.14793e-06
1.98104e-05
-2.34116e-06
1.97419e-05
-2.54098e-06
1.96749e-05
-2.74602e-06
1.96079e-05
-2.95421e-06
1.95388e-05
-3.16289e-06
1.94658e-05
-3.36877e-06
1.93869e-05
-3.56799e-06
1.93004e-05
-3.75626e-06
1.92046e-05
-3.929e-06
1.90979e-05
-4.08163e-06
1.89793e-05
-4.20971e-06
1.88475e-05
-4.30923e-06
1.87019e-05
-4.37683e-06
1.85419e-05
-4.40996e-06
1.83669e-05
-4.40708e-06
1.81768e-05
-4.36775e-06
1.79718e-05
-4.29273e-06
1.77523e-05
-4.18389e-06
1.75198e-05
-4.04411e-06
1.72766e-05
-3.87698e-06
1.70264e-05
-3.6863e-06
1.67744e-05
-3.47552e-06
1.65264e-05
-3.24738e-06
1.62888e-05
-3.00378e-06
1.60669e-05
-2.74625e-06
1.5865e-05
-2.47645e-06
1.56855e-05
-2.19684e-06
1.55291e-05
-1.91095e-06
1.53951e-05
-1.62334e-06
1.52819e-05
-1.33919e-06
1.51874e-05
-1.06386e-06
1.51092e-05
-8.02442e-07
1.50452e-05
-5.59288e-07
1.49935e-05
-3.37714e-07
1.49522e-05
-1.3977e-07
1.49194e-05
3.42987e-08
1.48937e-05
1.84524e-07
1.48737e-05
3.10585e-07
1.48588e-05
4.12811e-07
1.4848e-05
4.92104e-07
1.48407e-05
5.49814e-07
1.48365e-05
5.87628e-07
1.48347e-05
6.07462e-07
1.48349e-05
6.11375e-07
1.48367e-05
6.01508e-07
1.48398e-05
5.80042e-07
1.48436e-05
5.49167e-07
1.48479e-05
5.11088e-07
1.48523e-05
4.68015e-07
1.48566e-05
4.22176e-07
1.48603e-05
3.75825e-07
1.48631e-05
3.31286e-07
1.48649e-05
2.90984e-07
1.48653e-05
2.57467e-07
1.4864e-05
2.33437e-07
1.48607e-05
2.21821e-07
1.48552e-05
2.25807e-07
1.48472e-05
2.48922e-07
1.48365e-05
2.95123e-07
1.48225e-05
3.68956e-07
1.4805e-05
4.75723e-07
1.47835e-05
6.21675e-07
1.47575e-05
8.14262e-07
1.47263e-05
1.06251e-06
1.46893e-05
1.37752e-06
1.46455e-05
1.77319e-06
1.45942e-05
2.26732e-06
1.4534e-05
2.88332e-06
1.44639e-05
3.65314e-06
1.43827e-05
4.62242e-06
1.42905e-05
5.85933e-06
1.41897e-05
7.46943e-06
1.40892e-05
9.60909e-06
1.40103e-05
1.24943e-05
1.4042e-05
1.63013e-05
1.44325e-05
2.13247e-05
2.80292e-05
1.75783e-05
2.52809e-05
1.77205e-07
2.5284e-05
1.75053e-07
2.52809e-05
1.57377e-07
2.5269e-05
1.24999e-07
2.52481e-05
8.88352e-08
2.52133e-05
4.82695e-08
2.51597e-05
1.28852e-09
2.50842e-05
-5.30133e-08
2.49846e-05
-1.14965e-07
2.48604e-05
-1.85214e-07
2.47123e-05
-2.64343e-07
2.45429e-05
-3.52842e-07
2.43559e-05
-4.51152e-07
2.41558e-05
-5.595e-07
2.39479e-05
-6.78053e-07
2.37368e-05
-8.06954e-07
2.35269e-05
-9.4624e-07
2.33214e-05
-1.09584e-06
2.31228e-05
-1.25547e-06
2.29324e-05
-1.42467e-06
2.27508e-05
-1.60277e-06
2.25777e-05
-1.78906e-06
2.24126e-05
-1.98273e-06
2.22543e-05
-2.18289e-06
2.21015e-05
-2.38815e-06
2.19527e-05
-2.5971e-06
2.1806e-05
-2.80751e-06
2.16598e-05
-3.01663e-06
2.15122e-05
-3.22116e-06
2.13615e-05
-3.41729e-06
2.12062e-05
-3.60085e-06
2.10446e-05
-3.76745e-06
2.08757e-05
-3.9127e-06
2.06985e-05
-4.03242e-06
2.05121e-05
-4.12283e-06
2.03161e-05
-4.18075e-06
2.011e-05
-4.20379e-06
1.98934e-05
-4.19047e-06
1.96661e-05
-4.14038e-06
1.94277e-05
-4.05425e-06
1.9178e-05
-3.93403e-06
1.89168e-05
-3.78287e-06
1.8645e-05
-3.60502e-06
1.83642e-05
-3.40545e-06
1.80779e-05
-3.18918e-06
1.77912e-05
-2.96064e-06
1.75104e-05
-2.723e-06
1.72422e-05
-2.47813e-06
1.69927e-05
-2.22701e-06
1.67663e-05
-1.97054e-06
1.65656e-05
-1.71033e-06
1.63913e-05
-1.44906e-06
1.62424e-05
-1.19039e-06
1.61172e-05
-9.38707e-07
1.60132e-05
-6.98564e-07
1.59281e-05
-4.74195e-07
1.58593e-05
-2.68963e-07
1.58044e-05
-8.4893e-08
1.57608e-05
7.78188e-08
1.57265e-05
2.18772e-07
1.57e-05
3.37069e-07
1.56799e-05
4.32805e-07
1.56653e-05
5.06695e-07
1.56551e-05
5.5994e-07
1.56486e-05
5.94097e-07
1.5645e-05
6.10982e-07
1.56437e-05
6.12571e-07
1.56443e-05
6.00936e-07
1.56461e-05
5.782e-07
1.56487e-05
5.4651e-07
1.56517e-05
5.08028e-07
1.56547e-05
4.64927e-07
1.56574e-05
4.19401e-07
1.56595e-05
3.73673e-07
1.56607e-05
3.30038e-07
1.56608e-05
2.90895e-07
1.56594e-05
2.58764e-07
1.56565e-05
2.36325e-07
1.56517e-05
2.26486e-07
1.56451e-05
2.32427e-07
1.56363e-05
2.57664e-07
1.56252e-05
3.06154e-07
1.56117e-05
3.82458e-07
1.55956e-05
4.91893e-07
1.55765e-05
6.40722e-07
1.55544e-05
8.36407e-07
1.5529e-05
1.08798e-06
1.55e-05
1.40655e-06
1.54673e-05
1.80599e-06
1.54306e-05
2.30401e-06
1.53903e-05
2.92377e-06
1.53468e-05
3.69664e-06
1.53024e-05
4.66684e-06
1.52626e-05
5.89924e-06
1.52399e-05
7.49214e-06
1.52628e-05
9.58631e-06
1.53895e-05
1.23676e-05
1.57516e-05
1.59393e-05
1.66448e-05
2.04315e-05
2.51547e-05
1.95192e-05
2.55798e-05
1.60574e-07
2.55999e-05
1.54892e-07
2.56191e-05
1.38146e-07
2.56345e-05
1.09623e-07
2.56471e-05
7.62396e-08
2.56567e-05
3.86426e-08
2.56624e-05
-4.41477e-09
2.5663e-05
-5.36178e-08
2.56574e-05
-1.09372e-07
2.56443e-05
-1.72137e-07
2.56224e-05
-2.42374e-07
2.559e-05
-3.20509e-07
2.55459e-05
-4.06978e-07
2.54885e-05
-5.0216e-07
2.54169e-05
-6.06473e-07
2.53304e-05
-7.20403e-07
2.52285e-05
-8.44441e-07
2.51117e-05
-9.79015e-07
2.49805e-05
-1.12438e-06
2.48364e-05
-1.28054e-06
2.46808e-05
-1.44723e-06
2.45157e-05
-1.62392e-06
2.43427e-05
-1.80982e-06
2.41636e-05
-2.00371e-06
2.39796e-05
-2.20413e-06
2.37915e-05
-2.409e-06
2.35998e-05
-2.61576e-06
2.34045e-05
-2.82127e-06
2.32053e-05
-3.02193e-06
2.30018e-05
-3.21377e-06
2.27935e-05
-3.39255e-06
2.25801e-05
-3.55392e-06
2.23611e-05
-3.69362e-06
2.21363e-05
-3.80761e-06
2.19059e-05
-3.8923e-06
2.16699e-05
-3.94465e-06
2.14286e-05
-3.96234e-06
2.11821e-05
-3.94385e-06
2.09305e-05
-3.88863e-06
2.06736e-05
-3.79712e-06
2.04107e-05
-3.6709e-06
2.01408e-05
-3.51279e-06
1.98629e-05
-3.32692e-06
1.95763e-05
-3.11867e-06
1.92815e-05
-2.89424e-06
1.89809e-05
-2.65999e-06
1.86794e-05
-2.42136e-06
1.83833e-05
-2.18204e-06
1.81e-05
-1.94374e-06
1.78362e-05
-1.70676e-06
1.75968e-05
-1.47103e-06
1.73848e-05
-1.23709e-06
1.72009e-05
-1.00656e-06
1.70443e-05
-7.82186e-07
1.69132e-05
-5.6749e-07
1.68051e-05
-3.66165e-07
1.67174e-05
-1.81377e-07
1.6647e-05
-1.44815e-08
1.65906e-05
1.34161e-07
1.65461e-05
2.63276e-07
1.65114e-05
3.71659e-07
1.64851e-05
4.59143e-07
1.64655e-05
5.26224e-07
1.64515e-05
5.73905e-07
1.6442e-05
6.03578e-07
1.6436e-05
6.16911e-07
1.64328e-05
6.15756e-07
1.64316e-05
6.02083e-07
1.64319e-05
5.77927e-07
1.6433e-05
5.45357e-07
1.64345e-05
5.06469e-07
1.64361e-05
4.63378e-07
1.64372e-05
4.18221e-07
1.64377e-05
3.73172e-07
1.64372e-05
3.30482e-07
1.64356e-05
2.92504e-07
1.64326e-05
2.61713e-07
1.64281e-05
2.40747e-07
1.6422e-05
2.32483e-07
1.64144e-05
2.4007e-07
1.6405e-05
2.66996e-07
1.63939e-05
3.17199e-07
1.63812e-05
3.95225e-07
1.63667e-05
5.06368e-07
1.63506e-05
6.56861e-07
1.63329e-05
8.54118e-07
1.63138e-05
1.10711e-06
1.62936e-05
1.42683e-06
1.62726e-05
1.82698e-06
1.62517e-05
2.32494e-06
1.62322e-05
2.94327e-06
1.62167e-05
3.71214e-06
1.62103e-05
4.6733e-06
1.62231e-05
5.88644e-06
1.62761e-05
7.43916e-06
1.64111e-05
9.45132e-06
1.67082e-05
1.20705e-05
1.73083e-05
1.53392e-05
1.8517e-05
1.92228e-05
2.25285e-05
2.1143e-05
2.56736e-05
1.39576e-07
2.56968e-05
1.317e-07
2.57197e-05
1.15285e-07
2.57399e-05
8.93865e-08
2.57581e-05
5.81103e-08
2.57742e-05
2.25051e-08
2.57879e-05
-1.81652e-08
2.57988e-05
-6.44668e-08
2.58062e-05
-1.168e-07
2.58097e-05
-1.75568e-07
2.58085e-05
-2.41189e-07
2.5802e-05
-3.14055e-07
2.57896e-05
-3.94557e-07
2.57705e-05
-4.83052e-07
2.5744e-05
-5.79923e-07
2.57092e-05
-6.856e-07
2.56653e-05
-8.00523e-07
2.56114e-05
-9.25077e-07
2.55465e-05
-1.05952e-06
2.54699e-05
-1.20392e-06
2.53808e-05
-1.35812e-06
2.52787e-05
-1.52174e-06
2.5163e-05
-1.69412e-06
2.50337e-05
-1.87439e-06
2.48907e-05
-2.06102e-06
2.4734e-05
-2.25231e-06
2.45641e-05
-2.44583e-06
2.43815e-05
-2.63862e-06
2.41869e-05
-2.82723e-06
2.3981e-05
-3.00782e-06
2.37647e-05
-3.17627e-06
2.35392e-05
-3.32837e-06
2.33056e-05
-3.45996e-06
2.30651e-05
-3.56713e-06
2.28192e-05
-3.64635e-06
2.25692e-05
-3.69465e-06
2.23166e-05
-3.70969e-06
2.20626e-05
-3.68984e-06
2.18084e-05
-3.63432e-06
2.15545e-05
-3.54316e-06
2.13011e-05
-3.41736e-06
2.10473e-05
-3.25895e-06
2.07916e-05
-3.07115e-06
2.05316e-05
-2.85855e-06
2.02645e-05
-2.62712e-06
1.99886e-05
-2.38407e-06
1.97042e-05
-2.13704e-06
1.9415e-05
-1.89283e-06
1.91272e-05
-1.656e-06
1.88487e-05
-1.42839e-06
1.85872e-05
-1.20964e-06
1.83487e-05
-9.98644e-07
1.81367e-05
-7.9469e-07
1.79527e-05
-5.98265e-07
1.77963e-05
-4.11134e-07
1.76659e-05
-2.35812e-07
1.7559e-05
-7.45283e-08
1.7472e-05
7.24558e-08
1.74017e-05
2.04432e-07
1.73457e-05
3.19167e-07
1.73019e-05
4.15401e-07
1.72683e-05
4.92751e-07
1.7243e-05
5.51482e-07
1.72245e-05
5.92374e-07
1.72114e-05
6.1661e-07
1.72026e-05
6.25676e-07
1.7197e-05
6.21261e-07
1.71938e-05
6.05193e-07
1.71923e-05
5.79386e-07
1.71918e-05
5.45804e-07
1.71918e-05
5.06449e-07
1.71918e-05
4.63353e-07
1.71914e-05
4.18577e-07
1.71903e-05
3.74226e-07
1.71882e-05
3.32486e-07
1.7185e-05
2.95646e-07
1.71806e-05
2.66122e-07
1.71748e-05
2.46493e-07
1.71676e-05
2.39581e-07
1.71592e-05
2.48484e-07
1.71495e-05
2.76647e-07
1.71387e-05
3.27965e-07
1.7127e-05
4.06936e-07
1.71146e-05
5.18795e-07
1.71017e-05
6.69697e-07
1.70889e-05
8.66953e-07
1.70767e-05
1.11938e-06
1.70658e-05
1.43778e-06
1.70573e-05
1.83551e-06
1.70529e-05
2.32941e-06
1.70551e-05
2.94109e-06
1.70683e-05
3.69902e-06
1.71e-05
4.64163e-06
1.71644e-05
5.82214e-06
1.72882e-05
7.31542e-06
1.75214e-05
9.21812e-06
1.79543e-05
1.16376e-05
1.87253e-05
1.45683e-05
2.01051e-05
1.7843e-05
2.01544e-05
2.24791e-05
2.57097e-05
1.17031e-07
2.57336e-05
1.07779e-07
2.57573e-05
9.15736e-08
2.5779e-05
6.76833e-08
2.57986e-05
3.84771e-08
2.58162e-05
4.93211e-09
2.58314e-05
-3.33744e-08
2.58439e-05
-7.69383e-08
2.58532e-05
-1.2614e-07
2.5859e-05
-1.81352e-07
2.58608e-05
-2.42955e-07
2.5858e-05
-3.11315e-07
2.58503e-05
-3.86789e-07
2.58369e-05
-4.6972e-07
2.58175e-05
-5.60461e-07
2.57912e-05
-6.59397e-07
2.57576e-05
-7.6691e-07
2.57159e-05
-8.83331e-07
2.56652e-05
-1.00887e-06
2.56048e-05
-1.14359e-06
2.5534e-05
-1.28731e-06
2.54519e-05
-1.43969e-06
2.53579e-05
-1.60012e-06
2.52513e-05
-1.76763e-06
2.51313e-05
-1.94104e-06
2.49976e-05
-2.11857e-06
2.48498e-05
-2.29803e-06
2.46879e-05
-2.47668e-06
2.45121e-05
-2.65138e-06
2.43228e-05
-2.81858e-06
2.41211e-05
-2.97449e-06
2.3908e-05
-3.11523e-06
2.3685e-05
-3.23692e-06
2.34539e-05
-3.33593e-06
2.32166e-05
-3.40894e-06
2.29751e-05
-3.45312e-06
2.27317e-05
-3.46619e-06
2.24886e-05
-3.44653e-06
2.22476e-05
-3.39321e-06
2.20106e-05
-3.30603e-06
2.1779e-05
-3.18556e-06
2.15534e-05
-3.03319e-06
2.13337e-05
-2.85122e-06
2.11183e-05
-2.64297e-06
2.09042e-05
-2.41291e-06
2.06871e-05
-2.16692e-06
2.04624e-05
-1.91225e-06
2.02268e-05
-1.65716e-06
1.99805e-05
-1.40974e-06
1.97282e-05
-1.17613e-06
1.94777e-05
-9.5919e-07
1.92376e-05
-7.58656e-07
1.90154e-05
-5.72558e-07
1.88161e-05
-3.99034e-07
1.86423e-05
-2.37429e-07
1.84946e-05
-8.81906e-08
1.83708e-05
4.91871e-08
1.8268e-05
1.75216e-07
1.81841e-05
2.88304e-07
1.81167e-05
3.86489e-07
1.80635e-05
4.68554e-07
1.80222e-05
5.33988e-07
1.79908e-05
5.82854e-07
1.79674e-05
6.15712e-07
1.79505e-05
6.3352e-07
1.79386e-05
6.3755e-07
1.79305e-05
6.29299e-07
1.79252e-05
6.10422e-07
1.79219e-05
5.82681e-07
1.79198e-05
5.47903e-07
1.79182e-05
5.07974e-07
1.79168e-05
4.64816e-07
1.79149e-05
4.20394e-07
1.79124e-05
3.76723e-07
1.79089e-05
3.35908e-07
1.79044e-05
3.00151e-07
1.78986e-05
2.71793e-07
1.78918e-05
2.53338e-07
1.78838e-05
2.47532e-07
1.78748e-05
2.57401e-07
1.78651e-05
2.86327e-07
1.78549e-05
3.38137e-07
1.78446e-05
4.1725e-07
1.78346e-05
5.28802e-07
1.78255e-05
6.78824e-07
1.7818e-05
8.74463e-07
1.78131e-05
1.12432e-06
1.78121e-05
1.43888e-06
1.78166e-05
1.83102e-06
1.78292e-05
2.31684e-06
1.78536e-05
2.91673e-06
1.78956e-05
3.65701e-06
1.7965e-05
4.57226e-06
1.80787e-05
5.70847e-06
1.82671e-05
7.12703e-06
1.8584e-05
8.9013e-06
1.91208e-05
1.11007e-05
2.0006e-05
1.36831e-05
2.14513e-05
1.63977e-05
1.80106e-05
2.3595e-05
2.57243e-05
9.40664e-08
2.57482e-05
8.39415e-08
2.57718e-05
6.79685e-08
2.57937e-05
4.57327e-08
2.58137e-05
1.85292e-08
2.58315e-05
-1.29072e-08
2.5847e-05
-4.8822e-08
2.58597e-05
-8.96387e-08
2.58692e-05
-1.35714e-07
2.58753e-05
-1.8739e-07
2.58774e-05
-2.45021e-07
2.5875e-05
-3.0895e-07
2.58677e-05
-3.79512e-07
2.58551e-05
-4.57029e-07
2.58364e-05
-5.41831e-07
2.58113e-05
-6.34262e-07
2.57791e-05
-7.34656e-07
2.5739e-05
-8.43292e-07
2.56905e-05
-9.60347e-07
2.56328e-05
-1.08584e-06
2.55651e-05
-1.21962e-06
2.54868e-05
-1.36133e-06
2.53972e-05
-1.51036e-06
2.52954e-05
-1.6659e-06
2.5181e-05
-1.82661e-06
2.50535e-05
-1.99099e-06
2.49125e-05
-2.15696e-06
2.47578e-05
-2.32202e-06
2.45898e-05
-2.48326e-06
2.44087e-05
-2.63745e-06
2.42153e-05
-2.78114e-06
2.40109e-05
-2.91076e-06
2.37967e-05
-3.02278e-06
2.35747e-05
-3.11384e-06
2.33466e-05
-3.1809e-06
2.31148e-05
-3.2213e-06
2.28816e-05
-3.23292e-06
2.26493e-05
-3.21419e-06
2.24202e-05
-3.16416e-06
2.21968e-05
-3.08254e-06
2.1981e-05
-2.96971e-06
2.17746e-05
-2.82674e-06
2.15789e-05
-2.65542e-06
2.13943e-05
-2.45834e-06
2.12203e-05
-2.23887e-06
2.10546e-05
-2.00133e-06
2.08934e-05
-1.75106e-06
2.07308e-05
-1.4946e-06
2.05605e-05
-1.2395e-06
2.03781e-05
-9.93873e-07
2.01838e-05
-7.64976e-07
1.99825e-05
-5.57525e-07
1.97825e-05
-3.72677e-07
1.95924e-05
-2.08938e-07
1.94189e-05
-6.40191e-08
1.92651e-05
6.5516e-08
1.91314e-05
1.82825e-07
1.90179e-05
2.88683e-07
1.89237e-05
3.82489e-07
1.8847e-05
4.63143e-07
1.87857e-05
5.29803e-07
1.87376e-05
5.82039e-07
1.87005e-05
6.19839e-07
1.86726e-05
6.43605e-07
1.86519e-05
6.54094e-07
1.86371e-05
6.5237e-07
1.86266e-05
6.39725e-07
1.86194e-05
6.17621e-07
1.86144e-05
5.87645e-07
1.86107e-05
5.51468e-07
1.86078e-05
5.10832e-07
1.86051e-05
4.67531e-07
1.8602e-05
4.23412e-07
1.85983e-05
3.80383e-07
1.85937e-05
3.40446e-07
1.85881e-05
3.05703e-07
1.85814e-05
2.78397e-07
1.85738e-05
2.60943e-07
1.85653e-05
2.5599e-07
1.85562e-05
2.66474e-07
1.85468e-05
2.95687e-07
1.85375e-05
3.4736e-07
1.8529e-05
4.25801e-07
1.85218e-05
5.36011e-07
1.85168e-05
6.8385e-07
1.8515e-05
8.76246e-07
1.85179e-05
1.12151e-06
1.85271e-05
1.4297e-06
1.85451e-05
1.81311e-06
1.85751e-05
2.2869e-06
1.86218e-05
2.87003e-06
1.86925e-05
3.58637e-06
1.87985e-05
4.4663e-06
1.89586e-05
5.54838e-06
1.9205e-05
6.88071e-06
1.95913e-05
8.51499e-06
2.02046e-05
1.04875e-05
2.11577e-05
1.273e-05
2.26024e-05
1.4953e-05
1.60711e-05
2.45418e-05
2.57297e-05
7.11861e-08
2.57532e-05
6.04824e-08
2.57764e-05
4.47828e-08
2.57981e-05
2.39822e-08
2.58179e-05
-1.29443e-09
2.58356e-05
-3.05919e-08
2.58509e-05
-6.40736e-08
2.58633e-05
-1.02097e-07
2.58726e-05
-1.44996e-07
2.58783e-05
-1.93093e-07
2.588e-05
-2.46717e-07
2.58773e-05
-3.06189e-07
2.58696e-05
-3.71822e-07
2.58565e-05
-4.4392e-07
2.58374e-05
-5.22788e-07
2.58119e-05
-6.08733e-07
2.57793e-05
-7.02048e-07
2.57389e-05
-8.02969e-07
2.56902e-05
-9.1164e-07
2.56324e-05
-1.02806e-06
2.55649e-05
-1.15208e-06
2.54869e-05
-1.28333e-06
2.53978e-05
-1.42127e-06
2.52969e-05
-1.565e-06
2.51838e-05
-1.71346e-06
2.50579e-05
-1.86511e-06
2.49191e-05
-2.01805e-06
2.47671e-05
-2.17001e-06
2.46021e-05
-2.31832e-06
2.44248e-05
-2.46005e-06
2.42357e-05
-2.59204e-06
2.4036e-05
-2.71106e-06
2.38272e-05
-2.81389e-06
2.36109e-05
-2.89746e-06
2.3389e-05
-2.95896e-06
2.31637e-05
-2.99597e-06
2.29373e-05
-3.00648e-06
2.27123e-05
-2.98901e-06
2.24909e-05
-2.94266e-06
2.22756e-05
-2.86708e-06
2.20686e-05
-2.76255e-06
2.1872e-05
-2.62998e-06
2.16876e-05
-2.4709e-06
2.15169e-05
-2.28752e-06
2.13608e-05
-2.08266e-06
2.12194e-05
-1.85984e-06
2.10916e-05
-1.62326e-06
2.09748e-05
-1.3778e-06
2.08643e-05
-1.12907e-06
2.07538e-05
-8.83411e-07
2.06365e-05
-6.47756e-07
2.05079e-05
-4.29038e-07
2.03681e-05
-2.33021e-07
2.02222e-05
-6.31038e-08
2.00765e-05
8.16152e-08
1.9937e-05
2.04913e-07
1.98092e-05
3.10556e-07
1.96964e-05
4.01434e-07
1.95999e-05
4.78947e-07
1.95194e-05
5.4352e-07
1.94539e-05
5.95243e-07
1.94017e-05
6.34177e-07
1.9361e-05
6.60516e-07
1.93299e-05
6.74677e-07
1.93066e-05
6.77326e-07
1.92895e-05
6.69376e-07
1.92773e-05
6.51938e-07
1.92685e-05
6.26295e-07
1.92623e-05
5.93851e-07
1.92576e-05
5.56111e-07
1.92538e-05
5.1466e-07
1.92501e-05
4.71147e-07
1.92462e-05
4.27284e-07
1.92417e-05
3.84857e-07
1.92363e-05
3.45747e-07
1.92301e-05
3.11943e-07
1.92228e-05
2.85571e-07
1.92148e-05
2.6894e-07
1.92061e-05
2.64585e-07
1.91972e-05
2.75331e-07
1.91886e-05
3.04352e-07
1.91807e-05
3.55258e-07
1.91742e-05
4.3221e-07
1.91702e-05
5.40039e-07
1.91697e-05
6.84386e-07
1.91741e-05
8.71908e-07
1.91851e-05
1.11055e-06
1.9205e-05
1.40987e-06
1.92367e-05
1.78144e-06
1.92843e-05
2.23938e-06
1.93534e-05
2.80099e-06
1.94522e-05
3.48757e-06
1.95933e-05
4.32517e-06
1.97967e-05
5.34509e-06
2.00943e-05
6.58309e-06
2.05375e-05
8.0718e-06
2.12046e-05
9.8205e-06
2.21909e-05
1.17437e-05
2.35974e-05
1.35465e-05
1.43118e-05
2.53566e-05
2.57309e-05
4.86418e-08
2.57538e-05
3.75354e-08
2.57765e-05
2.21457e-08
2.57978e-05
2.65357e-09
2.58172e-05
-2.07498e-08
2.58345e-05
-4.7886e-08
2.58494e-05
-7.88915e-08
2.58613e-05
-1.14077e-07
2.58701e-05
-1.53749e-07
2.58752e-05
-1.98218e-07
2.58763e-05
-2.47784e-07
2.58729e-05
-3.02755e-07
2.58645e-05
-3.63412e-07
2.58506e-05
-4.30051e-07
2.58308e-05
-5.02939e-07
2.58044e-05
-5.82366e-07
2.5771e-05
-6.68573e-07
2.57298e-05
-7.61778e-07
2.56803e-05
-8.6208e-07
2.56217e-05
-9.69486e-07
2.55535e-05
-1.08381e-06
2.54749e-05
-1.20475e-06
2.53855e-05
-1.33171e-06
2.52845e-05
-1.46399e-06
2.51715e-05
-1.60041e-06
2.5046e-05
-1.73965e-06
2.4908e-05
-1.87997e-06
2.47573e-05
-2.01928e-06
2.45941e-05
-2.15515e-06
2.4419e-05
-2.28492e-06
2.42328e-05
-2.40575e-06
2.40364e-05
-2.51468e-06
2.38313e-05
-2.60879e-06
2.36191e-05
-2.6853e-06
2.34018e-05
-2.74163e-06
2.31814e-05
-2.77554e-06
2.29601e-05
-2.78518e-06
2.27402e-05
-2.76916e-06
2.25242e-05
-2.7266e-06
2.23143e-05
-2.65713e-06
2.21128e-05
-2.56098e-06
2.19217e-05
-2.43891e-06
2.17431e-05
-2.29229e-06
2.15787e-05
-2.12307e-06
2.14298e-05
-1.93377e-06
2.12974e-05
-1.72747e-06
2.11819e-05
-1.50778e-06
2.10827e-05
-1.27877e-06
2.09985e-05
-1.04493e-06
2.09261e-05
-8.11096e-07
2.08607e-05
-5.82463e-07
2.07961e-05
-3.64578e-07
2.07262e-05
-1.6325e-07
2.06465e-05
1.65052e-08
2.05564e-05
1.71644e-07
2.04596e-05
3.01631e-07
2.03618e-05
4.08254e-07
2.02686e-05
4.94548e-07
2.01841e-05
5.63416e-07
2.01105e-05
6.17097e-07
2.00485e-05
6.57181e-07
1.99978e-05
6.8479e-07
1.99575e-05
7.00767e-07
1.99263e-05
7.05877e-07
1.99026e-05
7.00918e-07
1.98851e-05
6.868e-07
1.98725e-05
6.64549e-07
1.98634e-05
6.35316e-07
1.98568e-05
6.00358e-07
1.98519e-05
5.61023e-07
1.98478e-05
5.18742e-07
1.98438e-05
4.75013e-07
1.98397e-05
4.31409e-07
1.98349e-05
3.89578e-07
1.98293e-05
3.51274e-07
1.98228e-05
3.18353e-07
1.98155e-05
2.9282e-07
1.98076e-05
2.76849e-07
1.97992e-05
2.72856e-07
1.9791e-05
2.83522e-07
1.97834e-05
3.11887e-07
1.97773e-05
3.61404e-07
1.97734e-05
4.36064e-07
1.9773e-05
5.40479e-07
1.97774e-05
6.80037e-07
1.97883e-05
8.61063e-07
1.98078e-05
1.09108e-06
1.98386e-05
1.37905e-06
1.98843e-05
1.73576e-06
1.99496e-05
2.17415e-06
2.00408e-05
2.7098e-06
2.01671e-05
3.36131e-06
2.03418e-05
4.15051e-06
2.05851e-05
5.10189e-06
2.09278e-05
6.24033e-06
2.14172e-05
7.58248e-06
2.21208e-05
9.11695e-06
2.31158e-05
1.07487e-05
2.44643e-05
1.21979e-05
1.271e-05
2.6066e-05
2.573e-05
2.65825e-08
2.57524e-05
1.51536e-08
2.57744e-05
9.01213e-11
2.57953e-05
-1.81553e-08
2.58142e-05
-3.97186e-08
2.5831e-05
-6.46683e-08
2.58453e-05
-9.31602e-08
2.58566e-05
-1.25459e-07
2.58648e-05
-1.61858e-07
2.58692e-05
-2.02647e-07
2.58695e-05
-2.48112e-07
2.58653e-05
-2.98529e-07
2.58561e-05
-3.5417e-07
2.58413e-05
-4.15298e-07
2.58205e-05
-4.82169e-07
2.57932e-05
-5.55031e-07
2.57587e-05
-6.34109e-07
2.57165e-05
-7.19575e-07
2.5666e-05
-8.11525e-07
2.56064e-05
-9.09935e-07
2.55373e-05
-1.01465e-06
2.54579e-05
-1.12534e-06
2.53677e-05
-1.24152e-06
2.52662e-05
-1.3624e-06
2.51529e-05
-1.48707e-06
2.50274e-05
-1.61421e-06
2.48897e-05
-1.74224e-06
2.47398e-05
-1.86928e-06
2.45778e-05
-1.99313e-06
2.44043e-05
-2.11139e-06
2.422e-05
-2.22149e-06
2.40262e-05
-2.32077e-06
2.3824e-05
-2.40657e-06
2.36151e-05
-2.47637e-06
2.34013e-05
-2.52782e-06
2.31847e-05
-2.55886e-06
2.29674e-05
-2.56777e-06
2.27515e-05
-2.55326e-06
2.25395e-05
-2.51447e-06
2.23335e-05
-2.45104e-06
2.21358e-05
-2.3631e-06
2.19484e-05
-2.25134e-06
2.17732e-05
-2.11697e-06
2.16119e-05
-1.96175e-06
2.14662e-05
-1.78793e-06
2.13371e-05
-1.59832e-06
2.12254e-05
-1.39613e-06
2.11316e-05
-1.18498e-06
2.10553e-05
-9.68751e-07
2.09957e-05
-7.51545e-07
2.09507e-05
-5.37554e-07
2.0917e-05
-3.31065e-07
2.08901e-05
-1.3636e-07
2.08637e-05