/*--------------------------------*- C++ -*----------------------------------*\
| =========                 |                                                 |
| \\      /  F ield         | OpenFOAM: The Open Source CFD Toolbox           |
|  \\    /   O peration     | Version:  2.4.0                                 |
|   \\  /    A nd           | Web:      www.OpenFOAM.org                      |
|    \\/     M anipulation  |                                                 |
\*---------------------------------------------------------------------------*/
FoamFile
{
    version     2.0;
    format      ascii;
    class       volSymmTensorField;
    location    "0.002";
    object      UPrime2Mean;
}
// * * * * * * * * * * * * * * * * * * * * * * * * * * * * * * * * * * * * * //

dimensions      [0 2 -2 0 0 0 0];

internalField   nonuniform List<symmTensor> 
4400
(
(0.293245 -0.062463 0 0.0201951 0 0)
(1.66104 -0.0964013 0 0.0243639 0 0)
(3.91967 -0.0325329 0 0.00426586 0 0)
(3.83004 0.00644645 0 0.00351781 0 0)
(3.84286 -0.000446036 0 0.00162984 0 0)
(3.80518 0.00269236 0 0.000471561 0 0)
(3.79243 0.00369743 0 0.00027162 0 0)
(3.70418 0.00607377 0 0.000289802 0 0)
(4.2719 0.00258981 0 0.000775565 0 0)
(4.72351 -0.053744 0 0.011206 0 0)
(0.3658 0.00280005 0 0.0238555 0 0)
(1.20338 -0.0351184 0 0.0267011 0 0)
(1.90039 0.00297378 0 0.00691296 0 0)
(2.1393 0.0244456 0 0.00499143 0 0)
(2.26605 0.0162957 0 0.00185906 0 0)
(2.30302 0.0105773 0 0.000650608 0 0)
(2.28901 0.00898189 0 0.000400117 0 0)
(2.24409 0.0121763 0 0.00047357 0 0)
(2.52237 0.0107602 0 0.00228248 0 0)
(2.99736 -0.0442826 0 0.0174719 0 0)
(0.344693 0.0178079 0 0.0244673 0 0)
(0.830951 0.0119028 0 0.0272994 0 0)
(1.06607 0.0163616 0 0.00751411 0 0)
(1.18079 0.0210923 0 0.00516766 0 0)
(1.2601 0.0139171 0 0.00181349 0 0)
(1.28978 0.00895013 0 0.000780937 0 0)
(1.29229 0.00866442 0 0.000492356 0 0)
(1.27275 0.0130998 0 0.000730229 0 0)
(1.39279 0.0190935 0 0.00486805 0 0)
(1.68311 -0.0495274 0 0.0263363 0 0)
(0.331776 0.0187173 0 0.0190278 0 0)
(0.6417 0.0251113 0 0.0209073 0 0)
(0.725079 0.016453 0 0.00663788 0 0)
(0.785572 0.0172392 0 0.00449257 0 0)
(0.828107 0.0107098 0 0.00161774 0 0)
(0.844609 0.00664322 0 0.000770399 0 0)
(0.84833 0.00677661 0 0.000501495 0 0)
(0.847153 0.01032 0 0.000940334 0 0)
(0.90497 0.0150533 0 0.00768074 0 0)
(1.09371 -0.0510747 0 0.0318062 0 0)
(0.32605 0.0158207 0 0.0127228 0 0)
(0.544392 0.025556 0 0.0145704 0 0)
(0.580756 0.0144671 0 0.00520292 0 0)
(0.630393 0.0151168 0 0.00356689 0 0)
(0.657704 0.00899022 0 0.00133834 0 0)
(0.668581 0.00530329 0 0.000661182 0 0)
(0.671199 0.00488518 0 0.000456956 0 0)
(0.679914 0.00654314 0 0.00109515 0 0)
(0.708561 0.00498716 0 0.00993097 0 0)
(0.844621 -0.053743 0 0.0350376 0 0)
(0.323259 0.0125467 0 0.00788552 0 0)
(0.494177 0.0221827 0 0.00950579 0 0)
(0.517489 0.0125592 0 0.00369073 0 0)
(0.574908 0.0138364 0 0.00261481 0 0)
(0.600964 0.00820091 0 0.00101954 0 0)
(0.612971 0.00470581 0 0.000508381 0 0)
(0.615768 0.00340875 0 0.000396368 0 0)
(0.629212 0.00312985 0 0.00120387 0 0)
(0.64019 -0.00578643 0 0.0113923 0 0)
(0.736102 -0.0563911 0 0.0361801 0 0)
(0.321558 0.00938089 0 0.00452711 0 0)
(0.468913 0.0176919 0 0.00567345 0 0)
(0.489241 0.0105082 0 0.00233831 0 0)
(0.559198 0.0122372 0 0.00172573 0 0)
(0.591022 0.00744882 0 0.000697033 0 0)
(0.608168 0.00432018 0 0.000353708 0 0)
(0.612838 0.00228317 0 0.00034223 0 0)
(0.627946 0.00054852 0 0.00127098 0 0)
(0.625395 -0.0145328 0 0.012082 0 0)
(0.682709 -0.0569408 0 0.0354111 0 0)
(0.320379 0.0064777 0 0.00226044 0 0)
(0.456819 0.012771 0 0.00289674 0 0)
(0.476722 0.00805404 0 0.00125589 0 0)
(0.557943 0.0098725 0 0.000971156 0 0)
(0.597447 0.00630143 0 0.000410658 0 0)
(0.620891 0.00381111 0 0.000223231 0 0)
(0.628124 0.00143249 0 0.000306987 0 0)
(0.642912 -0.00107849 0 0.00130755 0 0)
(0.629308 -0.0201343 0 0.0121005 0 0)
(0.650046 -0.054472 0 0.0330812 0 0)
(0.319574 0.00382533 0 0.000834267 0 0)
(0.451448 0.00762216 0 0.00106903 0 0)
(0.47139 0.00519454 0 0.000497911 0 0)
(0.560417 0.00679527 0 0.000412457 0 0)
(0.606381 0.0046912 0 0.000191857 0 0)
(0.635091 0.00308302 0 0.000132439 0 0)
(0.644608 0.000790178 0 0.00029413 0 0)
(0.65774 -0.00179289 0 0.00131888 0 0)
(0.635676 -0.0224479 0 0.0115607 0 0)
(0.625443 -0.0491505 0 0.0296931 0 0)
(0.319109 0.00133847 0 0.000118305 0 0)
(0.449401 0.00235693 0 0.000142133 0 0)
(0.46935 0.00205521 0 8.81811e-05 0 0)
(0.562291 0.00325076 0 8.81977e-05 0 0)
(0.611961 0.00274588 0 6.08819e-05 0 0)
(0.643678 0.00217337 0 8.83008e-05 0 0)
(0.654441 0.00038152 0 0.000303496 0 0)
(0.665054 -0.00168633 0 0.0013116 0 0)
(0.637389 -0.0217976 0 0.0106083 0 0)
(0.60485 -0.0417151 0 0.0257611 0 0)
(0.319106 -0.00108911 0 6.11043e-05 0 0)
(0.449315 -0.00295819 0 9.78332e-05 0 0)
(0.469074 -0.00120499 0 3.90241e-05 0 0)
(0.562103 -0.000498388 0 1.619e-05 0 0)
(0.612128 0.000641342 0 2.68119e-05 0 0)
(0.644141 0.00121963 0 9.33168e-05 0 0)
(0.654859 0.00022335 0 0.000331174 0 0)
(0.662435 -0.000862395 0 0.0012887 0 0)
(0.631921 -0.0186893 0 0.00939125 0 0)
(0.587267 -0.0329458 0 0.0217229 0 0)
(0.319559 -0.00357103 0 0.000660651 0 0)
(0.451127 -0.00824705 0 0.000932778 0 0)
(0.470447 -0.00443353 0 0.000355349 0 0)
(0.559731 -0.00420106 0 0.000203497 0 0)
(0.606686 -0.00143494 0 9.22214e-05 0 0)
(0.636202 0.0003368 0 0.00014521 0 0)
(0.645521 0.000388969 0 0.000372344 0 0)
(0.650005 0.00054889 0 0.00125185 0 0)
(0.619219 -0.0136737 0 0.00803434 0 0)
(0.573373 -0.0235522 0 0.0179182 0 0)
(0.320372 -0.00622069 0 0.00196345 0 0)
(0.456119 -0.0134575 0 0.00265698 0 0)
(0.474728 -0.00748877 0 0.00103661 0 0)
(0.556333 -0.0076058 0 0.000646657 0 0)
(0.597186 -0.00329115 0 0.000252869 0 0)
(0.621722 -0.000306142 0 0.000238783 0 0)
(0.62876 0.000872749 0 0.000420068 0 0)
(0.630603 0.00238824 0 0.00120083 0 0)
(0.602295 -0.0073384 0 0.00664664 0 0)
(0.566317 -0.0142721 0 0.0145882 0 0)
(0.32156 -0.00912799 0 0.00408405 0 0)
(0.467547 -0.018503 0 0.00530899 0 0)
(0.485581 -0.0102748 0 0.00207231 0 0)
(0.555699 -0.0104908 0 0.00132588 0 0)
(0.588671 -0.0047889 0 0.000493794 0 0)
(0.60681 -0.00066719 0 0.000362194 0 0)
(0.611419 0.00169019 0 0.000466829 0 0)
(0.611982 0.00444883 0 0.00113285 0 0)
(0.589503 -0.000371694 0 0.00529228 0 0)
(0.574025 -0.00601456 0 0.0119096 0 0)
(0.323268 -0.0123303 0 0.00727345 0 0)
(0.491777 -0.0232186 0 0.00898732 0 0)
(0.511395 -0.0128235 0 0.00342461 0 0)
(0.567961 -0.0127653 0 0.002193 0 0)
(0.593951 -0.00590142 0 0.000782935 0 0)
(0.606373 -0.000759424 0 0.000497105 0 0)
(0.610072 0.00273123 0 0.000503639 0 0)
(0.611633 0.00646799 0 0.00104791 0 0)
(0.599056 0.00643273 0 0.00404122 0 0)
(0.61347 5.71683e-05 0 0.0100095 0 0)
(0.325991 -0.0156801 0 0.0118799 0 0)
(0.540689 -0.0269981 0 0.0138822 0 0)
(0.571449 -0.0154282 0 0.00498769 0 0)
(0.617794 -0.0148305 0 0.00318677 0 0)
(0.642504 -0.00701951 0 0.0010816 0 0)
(0.652886 -0.000910272 0 0.000615823 0 0)
(0.659004 0.00371354 0 0.000517935 0 0)
(0.665031 0.00801995 0 0.00094114 0 0)
(0.666802 0.0119631 0 0.00293098 0 0)
(0.718122 0.00250953 0 0.00896686 0 0)
(0.33136 -0.0187687 0 0.0179701 0 0)
(0.636702 -0.0271342 0 0.0200955 0 0)
(0.711607 -0.0184374 0 0.00650947 0 0)
(0.763928 -0.0178762 0 0.00420494 0 0)
(0.80048 -0.00901615 0 0.00134532 0 0)
(0.815121 -0.00174691 0 0.000682579 0 0)
(0.829781 0.00404665 0 0.000496786 0 0)
(0.843437 0.00845997 0 0.000811352 0 0)
(0.86305 0.0147421 0 0.00202006 0 0)
(0.954286 -0.00132053 0 0.00879124 0 0)
(0.343193 -0.0182953 0 0.023327 0 0)
(0.82437 -0.0144329 0 0.0265716 0 0)
(1.04448 -0.0201235 0 0.00751988 0 0)
(1.14349 -0.0232456 0 0.00502375 0 0)
(1.21516 -0.0127827 0 0.00153513 0 0)
(1.24085 -0.00434707 0 0.000651222 0 0)
(1.27322 0.00280835 0 0.000429744 0 0)
(1.29554 0.00663642 0 0.000654426 0 0)
(1.33147 0.0123255 0 0.00133766 0 0)
(1.46044 -0.0171475 0 0.00920527 0 0)
(0.364915 -0.00444737 0 0.0226813 0 0)
(1.1923 0.0316228 0 0.026071 0 0)
(1.84569 -0.00940354 0 0.00699879 0 0)
(2.05714 -0.0290307 0 0.00507732 0 0)
(2.18566 -0.0170938 0 0.00162405 0 0)
(2.21462 -0.00925594 0 0.000514454 0 0)
(2.28535 -0.00102649 0 0.000328381 0 0)
(2.30658 0.00100544 0 0.000488236 0 0)
(2.35274 0.00133621 0 0.000916552 0 0)
(2.49449 -0.0548405 0 0.00967445 0 0)
(0.287569 0.0607072 0 0.0195458 0 0)
(1.63084 0.0923462 0 0.0243435 0 0)
(3.82433 0.0226426 0 0.00427497 0 0)
(3.72542 -0.016653 0 0.00369733 0 0)
(3.74272 -0.00686847 0 0.00149213 0 0)
(3.70865 -0.0128934 0 0.000372085 0 0)
(3.80118 -0.00869786 0 0.000219687 0 0)
(3.80489 -0.0157024 0 0.000376738 0 0)
(3.85671 -0.032237 0 0.000941738 0 0)
(3.81468 -0.139188 0 0.00960016 0 0)
(2.28748 -0.612637 0 1.23089 0 0)
(0.993514 -0.256885 0 1.48827 0 0)
(0.802344 -0.266301 0 1.63838 0 0)
(0.786288 -0.238278 0 1.62863 0 0)
(0.775776 -0.215799 0 1.53523 0 0)
(0.767315 -0.180228 0 1.39976 0 0)
(0.764923 -0.143312 0 1.25175 0 0)
(0.76921 -0.112185 0 1.10586 0 0)
(0.780247 -0.0903677 0 0.970507 0 0)
(0.796268 -0.0790152 0 0.849977 0 0)
(0.815068 -0.0774324 0 0.745741 0 0)
(0.834392 -0.0839972 0 0.657463 0 0)
(0.852326 -0.0967091 0 0.583796 0 0)
(0.867411 -0.113596 0 0.522897 0 0)
(0.878647 -0.132878 0 0.472795 0 0)
(0.885451 -0.153103 0 0.431603 0 0)
(0.887571 -0.173107 0 0.397616 0 0)
(0.885009 -0.192048 0 0.369383 0 0)
(0.877941 -0.209303 0 0.345673 0 0)
(0.866655 -0.224487 0 0.325499 0 0)
(0.851524 -0.237351 0 0.30804 0 0)
(0.832988 -0.247806 0 0.292665 0 0)
(0.811654 -0.255864 0 0.278865 0 0)
(0.788114 -0.261689 0 0.266274 0 0)
(0.762514 -0.265351 0 0.254601 0 0)
(0.735502 -0.26691 0 0.24358 0 0)
(0.707937 -0.266605 0 0.233085 0 0)
(0.680116 -0.264644 0 0.223006 0 0)
(0.65225 -0.261226 0 0.213269 0 0)
(0.624538 -0.256538 0 0.203827 0 0)
(0.597165 -0.250759 0 0.194653 0 0)
(0.570283 -0.244051 0 0.185734 0 0)
(0.544021 -0.236564 0 0.177066 0 0)
(0.5185 -0.228432 0 0.168643 0 0)
(0.493834 -0.219783 0 0.160466 0 0)
(0.470114 -0.210727 0 0.152528 0 0)
(0.44742 -0.201367 0 0.144821 0 0)
(0.425832 -0.191793 0 0.137333 0 0)
(0.405417 -0.182094 0 0.130053 0 0)
(0.38621 -0.172348 0 0.122966 0 0)
(0.368223 -0.162632 0 0.116062 0 0)
(0.351445 -0.153009 0 0.109331 0 0)
(0.335844 -0.143552 0 0.10277 0 0)
(0.321342 -0.13432 0 0.0963799 0 0)
(0.30786 -0.125372 0 0.0901657 0 0)
(0.295324 -0.116747 0 0.0841342 0 0)
(0.283679 -0.108493 0 0.0782969 0 0)
(0.272851 -0.100634 0 0.0726656 0 0)
(0.262776 -0.0932007 0 0.0672551 0 0)
(0.253423 -0.0861939 0 0.0620775 0 0)
(0.244774 -0.0796261 0 0.0571456 0 0)
(0.236809 -0.0734873 0 0.0524687 0 0)
(0.229498 -0.0677718 0 0.0480547 0 0)
(0.222832 -0.0624552 0 0.043907 0 0)
(0.216795 -0.0575219 0 0.0400273 0 0)
(0.211352 -0.0529449 0 0.0364127 0 0)
(0.206451 -0.0487029 0 0.0330592 0 0)
(0.202037 -0.0447652 0 0.0299584 0 0)
(0.19805 -0.0411154 0 0.0271014 0 0)
(0.194399 -0.0377296 0 0.0244762 0 0)
(0.191003 -0.0345967 0 0.022071 0 0)
(0.187797 -0.0316916 0 0.0198715 0 0)
(0.184748 -0.0290091 0 0.0178644 0 0)
(0.18181 -0.0265284 0 0.0160352 0 0)
(0.178952 -0.0242426 0 0.0143704 0 0)
(0.176177 -0.022126 0 0.0128565 0 0)
(0.173503 -0.0201692 0 0.0114811 0 0)
(0.170943 -0.01835 0 0.0102323 0 0)
(0.168495 -0.0166561 0 0.00909939 0 0)
(0.166182 -0.0150636 0 0.00807262 0 0)
(0.164018 -0.0135581 0 0.00714318 0 0)
(0.162007 -0.0121199 0 0.00630334 0 0)
(0.160135 -0.0107333 0 0.00554668 0 0)
(0.158394 -0.00937834 0 0.00486798 0 0)
(0.156778 -0.00803834 0 0.00426346 0 0)
(0.15527 -0.00669451 0 0.00373096 0 0)
(0.153843 -0.00533047 0 0.00327005 0 0)
(0.152462 -0.00392628 0 0.00288226 0 0)
(0.151094 -0.00246961 0 0.00257072 0 0)
(0.149676 -0.000943317 0 0.00234111 0 0)
(0.148158 0.000662061 0 0.00220076 0 0)
(0.146492 0.00236557 0 0.00216193 0 0)
(0.144657 0.00417005 0 0.00223999 0 0)
(0.142623 0.00608361 0 0.00245739 0 0)
(0.140383 0.00809352 0 0.00283923 0 0)
(0.137978 0.0101838 0 0.003415 0 0)
(0.135508 0.0123082 0 0.00420674 0 0)
(0.133163 0.0144394 0 0.00526525 0 0)
(0.131241 0.0166571 0 0.00688153 0 0)
(0.130081 0.0193094 0 0.0102387 0 0)
(0.129766 0.022894 0 0.0180039 0 0)
(0.129876 0.0275821 0 0.0331332 0 0)
(0.129549 0.0329616 0 0.0555091 0 0)
(0.127818 0.0385894 0 0.0793677 0 0)
(0.123932 0.0449119 0 0.0946381 0 0)
(0.117808 0.0534615 0 0.0936154 0 0)
(0.110706 0.0651303 0 0.083982 0 0)
(0.1057 0.0775658 0 0.0987429 0 0)
(0.115465 0.0884403 0 0.159579 0 0)
(0.224433 0.199382 0 0.334957 0 0)
(1.38107 -0.293669 0 0.967115 0 0)
(0.745759 0.096906 0 1.35895 0 0)
(0.674063 0.236291 0 1.53765 0 0)
(0.743097 0.293069 0 1.51505 0 0)
(0.8113 0.293872 0 1.4058 0 0)
(0.87488 0.28313 0 1.26435 0 0)
(0.936537 0.26871 0 1.11776 0 0)
(0.997287 0.249914 0 0.979144 0 0)
(1.0579 0.225237 0 0.854196 0 0)
(1.1169 0.194059 0 0.745178 0 0)
(1.17231 0.157014 0 0.652322 0 0)
(1.22202 0.115493 0 0.574651 0 0)
(1.26431 0.0712324 0 0.51054 0 0)
(1.29798 0.025957 0 0.458074 0 0)
(1.32239 -0.0187815 0 0.41533 0 0)
(1.33734 -0.0617355 0 0.380512 0 0)
(1.34307 -0.101936 0 0.352036 0 0)
(1.34008 -0.138725 0 0.32856 0 0)
(1.32904 -0.171662 0 0.308967 0 0)
(1.31077 -0.20054 0 0.292361 0 0)
(1.28612 -0.225285 0 0.278008 0 0)
(1.25599 -0.245976 0 0.265347 0 0)
(1.22137 -0.262772 0 0.253927 0 0)
(1.18322 -0.275988 0 0.24343 0 0)
(1.14214 -0.285901 0 0.233634 0 0)
(1.09903 -0.292573 0 0.224275 0 0)
(1.05489 -0.296428 0 0.21527 0 0)
(1.01028 -0.297804 0 0.20654 0 0)
(0.965592 -0.297001 0 0.198029 0 0)
(0.921169 -0.29429 0 0.189707 0 0)
(0.87732 -0.289925 0 0.181558 0 0)
(0.834292 -0.284137 0 0.173582 0 0)
(0.792298 -0.27713 0 0.165781 0 0)
(0.751526 -0.269094 0 0.15816 0 0)
(0.71214 -0.260198 0 0.150723 0 0)
(0.674276 -0.250601 0 0.143472 0 0)
(0.63805 -0.24044 0 0.136405 0 0)
(0.603566 -0.229844 0 0.129513 0 0)
(0.570908 -0.218933 0 0.122791 0 0)
(0.540123 -0.207825 0 0.116227 0 0)
(0.511225 -0.196624 0 0.109816 0 0)
(0.484199 -0.185426 0 0.103551 0 0)
(0.459001 -0.17433 0 0.0974315 0 0)
(0.435536 -0.163426 0 0.0914589 0 0)
(0.413707 -0.152791 0 0.0856392 0 0)
(0.393418 -0.142488 0 0.0799808 0 0)
(0.374582 -0.132573 0 0.0744943 0 0)
(0.3571 -0.123099 0 0.0691933 0 0)
(0.340881 -0.114093 0 0.0640914 0 0)
(0.325863 -0.105575 0 0.0592022 0 0)
(0.311998 -0.0975542 0 0.0545379 0 0)
(0.299236 -0.0900366 0 0.0501089 0 0)
(0.287521 -0.0830109 0 0.0459231 0 0)
(0.276816 -0.0764599 0 0.0419851 0 0)
(0.267074 -0.0703633 0 0.0382968 0 0)
(0.258235 -0.0647025 0 0.0348568 0 0)
(0.250221 -0.0594498 0 0.0316613 0 0)
(0.242952 -0.0545768 0 0.0287035 0 0)
(0.236341 -0.0500605 0 0.0259749 0 0)
(0.230273 -0.0458841 0 0.0234653 0 0)
(0.224649 -0.0420235 0 0.0211631 0 0)
(0.219386 -0.0384561 0 0.0190557 0 0)
(0.21443 -0.0351622 0 0.0171303 0 0)
(0.209723 -0.0321299 0 0.0153737 0 0)
(0.205225 -0.0293348 0 0.0137732 0 0)
(0.200928 -0.0267542 0 0.0123164 0 0)
(0.196838 -0.0243647 0 0.0109917 0 0)
(0.192962 -0.0221518 0 0.00978795 0 0)
(0.189292 -0.020091 0 0.00869508 0 0)
(0.185844 -0.0181606 0 0.00770396 0 0)
(0.182623 -0.0163383 0 0.00680627 0 0)
(0.17963 -0.0146082 0 0.00599453 0 0)
(0.176843 -0.0129488 0 0.00526279 0 0)
(0.174252 -0.01134 0 0.00460616 0 0)
(0.171844 -0.00976135 0 0.00402122 0 0)
(0.169596 -0.0081964 0 0.00350583 0 0)
(0.167476 -0.00662456 0 0.00305991 0 0)
(0.165445 -0.0050269 0 0.00268508 0 0)
(0.163457 -0.00338722 0 0.00238472 0 0)
(0.161446 -0.0016937 0 0.00216391 0 0)
(0.159355 7.15413e-05 0 0.00203076 0 0)
(0.15713 0.00192391 0 0.00199754 0 0)
(0.154738 0.00387386 0 0.0020817 0 0)
(0.152145 0.00591924 0 0.00230532 0 0)
(0.149334 0.00805333 0 0.00269726 0 0)
(0.146327 0.0102432 0 0.00328684 0 0)
(0.1432 0.0124224 0 0.00409262 0 0)
(0.140117 0.0144997 0 0.00513563 0 0)
(0.137377 0.0164889 0 0.0066521 0 0)
(0.135396 0.0187224 0 0.00978965 0 0)
(0.134435 0.0218786 0 0.0173304 0 0)
(0.134288 0.0264868 0 0.03245 0 0)
(0.134242 0.0324838 0 0.0550952 0 0)
(0.133386 0.0395234 0 0.0792049 0 0)
(0.13102 0.0478223 0 0.0942476 0 0)
(0.12721 0.0585663 0 0.0926086 0 0)
(0.123543 0.0728906 0 0.0832582 0 0)
(0.124262 0.0912127 0 0.100328 0 0)
(0.140078 0.114615 0 0.161227 0 0)
(0.272154 0.188869 0 0.266016 0 0)
(0.88845 -0.18241 0 0.679575 0 0)
(0.600439 0.147722 0 1.11383 0 0)
(0.651491 0.407919 0 1.34505 0 0)
(0.819586 0.584165 0 1.36917 0 0)
(0.990366 0.660759 0 1.2853 0 0)
(1.14564 0.673307 0 1.15562 0 0)
(1.28344 0.645713 0 1.01412 0 0)
(1.40533 0.595365 0 0.879655 0 0)
(1.51414 0.532213 0 0.760044 0 0)
(1.61066 0.461763 0 0.657641 0 0)
(1.69472 0.387499 0 0.572094 0 0)
(1.76554 0.311924 0 0.501826 0 0)
(1.82238 0.237054 0 0.444783 0 0)
(1.86481 0.164523 0 0.398815 0 0)
(1.89282 0.0956463 0 0.361903 0 0)
(1.90684 0.031396 0 0.332246 0 0)
(1.90765 -0.0275383 0 0.308303 0 0)
(1.8963 -0.0807556 0 0.288795 0 0)
(1.87399 -0.128059 0 0.272678 0 0)
(1.84201 -0.169454 0 0.259121 0 0)
(1.80168 -0.205067 0 0.247457 0 0)
(1.75429 -0.235152 0 0.237178 0 0)
(1.7012 -0.260027 0 0.227883 0 0)
(1.64367 -0.28014 0 0.219291 0 0)
(1.58271 -0.295881 0 0.211204 0 0)
(1.51942 -0.30748 0 0.203407 0 0)
(1.45494 -0.315429 0 0.195828 0 0)
(1.39001 -0.320172 0 0.188407 0 0)
(1.32519 -0.322095 0 0.181106 0 0)
(1.26097 -0.321545 0 0.173904 0 0)
(1.19775 -0.318839 0 0.166798 0 0)
(1.13587 -0.314263 0 0.159793 0 0)
(1.07561 -0.308071 0 0.152898 0 0)
(1.0172 -0.300496 0 0.146124 0 0)
(0.960859 -0.291748 0 0.139481 0 0)
(0.90675 -0.282021 0 0.132973 0 0)
(0.855017 -0.271487 0 0.126603 0 0)
(0.805778 -0.260304 0 0.120369 0 0)
(0.759127 -0.248627 0 0.114266 0 0)
(0.715112 -0.236598 0 0.108289 0 0)
(0.67375 -0.224352 0 0.102434 0 0)
(0.635013 -0.212012 0 0.0966976 0 0)
(0.598838 -0.1997 0 0.0910806 0 0)
(0.565115 -0.187532 0 0.0855864 0 0)
(0.533727 -0.175601 0 0.0802214 0 0)
(0.50455 -0.16399 0 0.0749941 0 0)
(0.477463 -0.152769 0 0.0699157 0 0)
(0.452337 -0.142005 0 0.0649997 0 0)
(0.429054 -0.131737 0 0.0602597 0 0)
(0.407518 -0.121991 0 0.0557096 0 0)
(0.387641 -0.112785 0 0.0513616 0 0)
(0.369343 -0.10413 0 0.0472265 0 0)
(0.352537 -0.096019 0 0.0433126 0 0)
(0.337152 -0.0884379 0 0.0396252 0 0)
(0.323108 -0.0813688 0 0.0361667 0 0)
(0.310314 -0.074795 0 0.0329368 0 0)
(0.298668 -0.0686891 0 0.0299324 0 0)
(0.288059 -0.0630225 0 0.027148 0 0)
(0.27837 -0.0577715 0 0.0245762 0 0)
(0.269465 -0.0529182 0 0.0222078 0 0)
(0.261225 -0.0484354 0 0.0200324 0 0)
(0.253548 -0.0442968 0 0.0180387 0 0)
(0.246357 -0.0404789 0 0.0162148 0 0)
(0.239581 -0.0369664 0 0.0145489 0 0)
(0.23317 -0.0337302 0 0.0130292 0 0)
(0.227103 -0.0307434 0 0.0116447 0 0)
(0.221371 -0.0279789 0 0.0103844 0 0)
(0.215971 -0.0254196 0 0.00923831 0 0)
(0.210889 -0.0230383 0 0.00819693 0 0)
(0.206131 -0.0208107 0 0.00725186 0 0)
(0.201694 -0.0187125 0 0.00639532 0 0)
(0.19757 -0.0167264 0 0.00562032 0 0)
(0.193734 -0.014829 0 0.00492127 0 0)
(0.190169 -0.0129985 0 0.00429369 0 0)
(0.186855 -0.0112139 0 0.00373443 0 0)
(0.183764 -0.00945758 0 0.0032416 0 0)
(0.180861 -0.00770795 0 0.00281524 0 0)
(0.178096 -0.00594491 0 0.00245707 0 0)
(0.175417 -0.00415185 0 0.00217043 0 0)
(0.172754 -0.00231566 0 0.0019603 0 0)
(0.170044 -0.000416526 0 0.00183483 0 0)
(0.167227 0.0015628 0 0.00180673 0 0)
(0.164262 0.00363347 0 0.00189416 0 0)
(0.161107 0.00579396 0 0.00212024 0 0)
(0.157737 0.00803639 0 0.0025157 0 0)
(0.154154 0.0103207 0 0.0031114 0 0)
(0.150398 0.0125559 0 0.00392171 0 0)
(0.146588 0.0145949 0 0.00494095 0 0)
(0.142992 0.0163615 0 0.00633464 0 0)
(0.140066 0.0181432 0 0.00917216 0 0)
(0.138254 0.0207748 0 0.0162927 0 0)
(0.137618 0.0251689 0 0.0310996 0 0)
(0.137669 0.0316335 0 0.0536965 0 0)
(0.137626 0.039912 0 0.0778706 0 0)
(0.136881 0.0499269 0 0.0927195 0 0)
(0.135695 0.0624457 0 0.0905787 0 0)
(0.136021 0.0787924 0 0.0807862 0 0)
(0.143442 0.10138 0 0.0965498 0 0)
(0.167469 0.131381 0 0.155068 0 0)
(0.281154 0.172031 0 0.226006 0 0)
(0.666001 -0.140393 0 0.49274 0 0)
(0.510957 0.108734 0 0.88492 0 0)
(0.599383 0.383619 0 1.11785 0 0)
(0.820962 0.61791 0 1.17487 0 0)
(1.08376 0.767479 0 1.12723 0 0)
(1.34714 0.840381 0 1.0279 0 0)
(1.59026 0.85101 0 0.908493 0 0)
(1.80262 0.815777 0 0.788907 0 0)
(1.98324 0.750318 0 0.679454 0 0)
(2.13356 0.666591 0 0.584611 0 0)
(2.25595 0.573309 0 0.505295 0 0)
(2.3526 0.476528 0 0.440543 0 0)
(2.42531 0.380387 0 0.388529 0 0)
(2.47573 0.287654 0 0.347169 0 0)
(2.50543 0.20017 0 0.314449 0 0)
(2.51606 0.119086 0 0.288573 0 0)
(2.50936 0.0450851 0 0.268019 0 0)
(2.48714 -0.0215229 0 0.251539 0 0)
(2.45126 -0.0806728 0 0.238128 0 0)
(2.40353 -0.132512 0 0.226994 0 0)
(2.34574 -0.177306 0 0.217511 0 0)
(2.27957 -0.215435 0 0.209205 0 0)
(2.20667 -0.247339 0 0.201707 0 0)
(2.12863 -0.273549 0 0.194759 0 0)
(2.04679 -0.294549 0 0.188179 0 0)
(1.96243 -0.310701 0 0.181787 0 0)
(1.8768 -0.322547 0 0.175516 0 0)
(1.79081 -0.330599 0 0.169319 0 0)
(1.70519 -0.335305 0 0.163167 0 0)
(1.62051 -0.337067 0 0.157046 0 0)
(1.5373 -0.336249 0 0.15096 0 0)
(1.45595 -0.33318 0 0.144917 0 0)
(1.37681 -0.328152 0 0.138932 0 0)
(1.30017 -0.32143 0 0.133017 0 0)
(1.22627 -0.313254 0 0.127185 0 0)
(1.15533 -0.303846 0 0.121445 0 0)
(1.08751 -0.293406 0 0.115802 0 0)
(1.02294 -0.282118 0 0.110258 0 0)
(0.961717 -0.270159 0 0.104811 0 0)
(0.903904 -0.257699 0 0.0994587 0 0)
(0.849514 -0.244893 0 0.0941995 0 0)
(0.798509 -0.231888 0 0.0890328 0 0)
(0.750809 -0.218827 0 0.0839602 0 0)
(0.706287 -0.205844 0 0.0789863 0 0)
(0.66481 -0.19305 0 0.0741177 0 0)
(0.626225 -0.180543 0 0.0693633 0 0)
(0.590379 -0.168408 0 0.0647339 0 0)
(0.557117 -0.156723 0 0.0602432 0 0)
(0.526291 -0.145537 0 0.0559046 0 0)
(0.497775 -0.134886 0 0.0517316 0 0)
(0.471442 -0.124793 0 0.0477365 0 0)
(0.447182 -0.115277 0 0.0439304 0 0)
(0.424878 -0.106335 0 0.0403217 0 0)
(0.404427 -0.097957 0 0.0369163 0 0)
(0.385713 -0.0901298 0 0.0337173 0 0)
(0.368617 -0.082838 0 0.0307252 0 0)
(0.353011 -0.0760567 0 0.027938 0 0)
(0.338752 -0.0697583 0 0.0253512 0 0)
(0.325694 -0.0639203 0 0.0229585 0 0)
(0.313678 -0.0585231 0 0.020752 0 0)
(0.302566 -0.0535385 0 0.0187225 0 0)
(0.292234 -0.0489375 0 0.01686 0 0)
(0.282582 -0.0446948 0 0.0151539 0 0)
(0.273525 -0.0407907 0 0.0135937 0 0)
(0.265002 -0.0371938 0 0.0121687 0 0)
(0.25698 -0.0338734 0 0.010869 0 0)
(0.249433 -0.0308008 0 0.00968486 0 0)
(0.242348 -0.0279555 0 0.00860702 0 0)
(0.235707 -0.0253088 0 0.00762695 0 0)
(0.229505 -0.0228342 0 0.00673692 0 0)
(0.223728 -0.0205066 0 0.00592975 0 0)
(0.218363 -0.0183062 0 0.00519908 0 0)
(0.21338 -0.016209 0 0.00453976 0 0)
(0.208754 -0.0141915 0 0.00394774 0 0)
(0.20446 -0.0122325 0 0.00342019 0 0)
(0.200464 -0.0103124 0 0.00295553 0 0)
(0.196724 -0.00840929 0 0.00255396 0 0)
(0.193184 -0.0065016 0 0.00221734 0 0)
(0.189784 -0.00457236 0 0.00194898 0 0)
(0.186449 -0.00260596 0 0.00175393 0 0)
(0.183111 -0.00058077 0 0.00164045 0 0)
(0.179705 0.00152284 0 0.00162178 0 0)
(0.176181 0.00371731 0 0.00171667 0 0)
(0.172492 0.00600432 0 0.00194968 0 0)
(0.168601 0.00837698 0 0.00235353 0 0)
(0.164491 0.0107926 0 0.00296169 0 0)
(0.160162 0.0131413 0 0.00378694 0 0)
(0.155671 0.0152237 0 0.00480109 0 0)
(0.151213 0.0168577 0 0.00609034 0 0)
(0.147238 0.0182413 0 0.00859955 0 0)
(0.144361 0.0203245 0 0.0151566 0 0)
(0.142961 0.0244082 0 0.0293907 0 0)
(0.142862 0.0312041 0 0.0516682 0 0)
(0.143482 0.0405487 0 0.0757884 0 0)
(0.144346 0.0520231 0 0.0905786 0 0)
(0.145929 0.0658819 0 0.0881467 0 0)
(0.150599 0.0834558 0 0.077417 0 0)
(0.16524 0.108378 0 0.0897252 0 0)
(0.199176 0.141692 0 0.1445 0 0)
(0.296594 0.170759 0 0.205185 0 0)
(0.570626 -0.12208 0 0.36763 0 0)
(0.461933 0.0612316 0 0.691519 0 0)
(0.541449 0.306758 0 0.90133 0 0)
(0.759701 0.543595 0 0.972876 0 0)
(1.05004 0.720051 0 0.952109 0 0)
(1.36895 0.829554 0 0.881098 0 0)
(1.68728 0.877567 0 0.787331 0 0)
(1.98433 0.874469 0 0.688971 0 0)
(2.24828 0.832155 0 0.596018 0 0)
(2.47331 0.762118 0 0.513572 0 0)
(2.65792 0.674329 0 0.443467 0 0)
(2.80325 0.576866 0 0.385631 0 0)
(2.91189 0.475903 0 0.33895 0 0)
(2.98708 0.375896 0 0.301845 0 0)
(3.03226 0.279911 0 0.272636 0 0)
(3.05081 0.18992 0 0.249742 0 0)
(3.04599 0.107113 0 0.231778 0 0)
(3.02083 0.0320913 0 0.217586 0 0)
(2.97819 -0.0349318 0 0.206223 0 0)
(2.92067 -0.0940356 0 0.196941 0 0)
(2.85071 -0.145473 0 0.189152 0 0)
(2.77051 -0.189637 0 0.182408 0 0)
(2.68214 -0.226992 0 0.176364 0 0)
(2.58751 -0.258087 0 0.170775 0 0)
(2.48834 -0.28344 0 0.165468 0 0)
(2.38614 -0.303493 0 0.160289 0 0)
(2.2823 -0.318802 0 0.155171 0 0)
(2.17791 -0.329908 0 0.150071 0 0)
(2.07385 -0.337288 0 0.144966 0 0)
(1.97084 -0.341374 0 0.139847 0 0)
(1.86952 -0.342559 0 0.134717 0 0)
(1.77037 -0.341195 0 0.129588 0 0)
(1.67383 -0.337596 0 0.124475 0 0)
(1.58025 -0.332048 0 0.119393 0 0)
(1.48994 -0.32481 0 0.114355 0 0)
(1.40314 -0.316124 0 0.109374 0 0)
(1.32005 -0.306207 0 0.104455 0 0)
(1.24085 -0.29526 0 0.0996017 0 0)
(1.16565 -0.283481 0 0.094816 0 0)
(1.09451 -0.271056 0 0.0900976 0 0)
(1.02748 -0.258159 0 0.0854465 0 0)
(0.964494 -0.244953 0 0.0808639 0 0)
(0.905484 -0.2316 0 0.0763523 0 0)
(0.850311 -0.218246 0 0.0719168 0 0)
(0.798833 -0.205019 0 0.067564 0 0)
(0.750876 -0.192027 0 0.0633028 0 0)
(0.706266 -0.17937 0 0.0591438 0 0)
(0.664825 -0.167133 0 0.0551001 0 0)
(0.626387 -0.155377 0 0.0511848 0 0)
(0.590794 -0.144144 0 0.047411 0 0)
(0.557892 -0.133467 0 0.0437909 0 0)
(0.527539 -0.123369 0 0.0403354 0 0)
(0.499597 -0.113854 0 0.037053 0 0)
(0.473928 -0.104918 0 0.0339501 0 0)
(0.450389 -0.0965515 0 0.0310303 0 0)
(0.42883 -0.0887422 0 0.0282949 0 0)
(0.4091 -0.0814692 0 0.0257427 0 0)
(0.391029 -0.0747069 0 0.0233704 0 0)
(0.374443 -0.068435 0 0.0211728 0 0)
(0.35916 -0.0626332 0 0.0191432 0 0)
(0.345026 -0.0572733 0 0.0172736 0 0)
(0.331896 -0.052325 0 0.0155555 0 0)
(0.319648 -0.047762 0 0.0139795 0 0)
(0.308185 -0.0435611 0 0.0125364 0 0)
(0.297436 -0.0396894 0 0.0112167 0 0)
(0.287352 -0.0361141 0 0.0100119 0 0)
(0.277894 -0.0328053 0 0.00891308 0 0)
(0.269038 -0.0297398 0 0.00791213 0 0)
(0.260757 -0.0268882 0 0.0070013 0 0)
(0.253039 -0.0242225 0 0.00617368 0 0)
(0.245859 -0.0217173 0 0.00542272 0 0)
(0.239197 -0.0193508 0 0.00474271 0 0)
(0.233019 -0.0170987 0 0.00412896 0 0)
(0.227293 -0.0149365 0 0.00357789 0 0)
(0.221986 -0.0128427 0 0.00308698 0 0)
(0.217058 -0.0107963 0 0.002655 0 0)
(0.212464 -0.00877472 0 0.00228226 0 0)
(0.208139 -0.00675569 0 0.00197075 0 0)
(0.204017 -0.00472146 0 0.0017237 0 0)
(0.200018 -0.00265388 0 0.00154628 0 0)
(0.196072 -0.000529449 0 0.00144678 0 0)
(0.192108 0.00167361 0 0.00143881 0 0)
(0.188071 0.0039697 0 0.00154146 0 0)
(0.183909 0.00636485 0 0.00178047 0 0)
(0.179579 0.00885527 0 0.00219009 0 0)
(0.175044 0.0113998 0 0.00280662 0 0)
(0.170265 0.013878 0 0.00364351 0 0)
(0.165228 0.016047 0 0.00465584 0 0)
(0.160023 0.0176115 0 0.00584795 0 0)
(0.15503 0.0186325 0 0.00799575 0 0)
(0.150999 0.0201141 0 0.0138348 0 0)
(0.148673 0.0237381 0 0.0272044 0 0)
(0.148279 0.0306606 0 0.0488506 0 0)
(0.14951 0.0408382 0 0.0727745 0 0)
(0.152047 0.0534792 0 0.0876577 0 0)
(0.156539 0.0682096 0 0.0852201 0 0)
(0.165689 0.086083 0 0.0733788 0 0)
(0.187305 0.111228 0 0.0811432 0 0)
(0.230781 0.144976 0 0.130293 0 0)
(0.321478 0.172872 0 0.18648 0 0)
(0.529637 -0.109632 0 0.278256 0 0)
(0.437451 0.0257578 0 0.533187 0 0)
(0.496454 0.231386 0 0.712069 0 0)
(0.688674 0.447381 0 0.78722 0 0)
(0.966952 0.622891 0 0.784623 0 0)
(1.29175 0.743781 0 0.735715 0 0)
(1.63357 0.810229 0 0.663781 0 0)
(1.96972 0.82886 0 0.585082 0 0)
(2.28428 0.808543 0 0.508972 0 0)
(2.56631 0.758505 0 0.440374 0 0)
(2.80923 0.687337 0 0.381305 0 0)
(3.00992 0.60255 0 0.332054 0 0)
(3.16802 0.510385 0 0.291951 0 0)
(3.28518 0.41577 0 0.259863 0 0)
(3.36433 0.322418 0 0.234506 0 0)
(3.40915 0.232968 0 0.21462 0 0)
(3.42357 0.149194 0 0.199065 0 0)
(3.41152 0.0721815 0 0.186861 0 0)
(3.37672 0.00250623 0 0.177191 0 0)
(3.32266 -0.0596387 0 0.169396 0 0)
(3.2525 -0.114319 0 0.162948 0 0)
(3.16908 -0.161788 0 0.157438 0 0)
(3.07499 -0.202419 0 0.152551 0 0)
(2.97264 -0.236686 0 0.148058 0 0)
(2.86415 -0.265066 0 0.143797 0 0)
(2.75136 -0.288005 0 0.13963 0 0)
(2.63587 -0.306028 0 0.135491 0 0)
(2.51901 -0.319657 0 0.13134 0 0)
(2.40188 -0.329364 0 0.127154 0 0)
(2.28539 -0.335581 0 0.122926 0 0)
(2.17031 -0.3387 0 0.118659 0 0)
(2.05728 -0.339078 0 0.114364 0 0)
(1.94686 -0.337034 0 0.110055 0 0)
(1.83949 -0.33286 0 0.105749 0 0)
(1.73556 -0.326822 0 0.101458 0 0)
(1.6354 -0.319166 0 0.097195 0 0)
(1.53927 -0.310119 0 0.0929668 0 0)
(1.44739 -0.299893 0 0.0887787 0 0)
(1.35992 -0.288695 0 0.0846334 0 0)
(1.27697 -0.27672 0 0.0805325 0 0)
(1.1986 -0.264156 0 0.0764776 0 0)
(1.12477 -0.251178 0 0.0724705 0 0)
(1.05542 -0.237958 0 0.0685145 0 0)
(0.990432 -0.224653 0 0.0646147 0 0)
(0.929656 -0.211399 0 0.0607775 0 0)
(0.87292 -0.198317 0 0.0570114 0 0)
(0.820038 -0.185515 0 0.0533266 0 0)
(0.770825 -0.173085 0 0.0497354 0 0)
(0.725104 -0.161098 0 0.0462503 0 0)
(0.682701 -0.149603 0 0.0428838 0 0)
(0.643438 -0.13864 0 0.0396474 0 0)
(0.607156 -0.128239 0 0.0365521 0 0)
(0.573695 -0.11841 0 0.0336061 0 0)
(0.542896 -0.109155 0 0.0308161 0 0)
(0.514588 -0.10047 0 0.0281861 0 0)
(0.488601 -0.0923473 0 0.0257179 0 0)
(0.464764 -0.08477 0 0.0234113 0 0)
(0.442882 -0.0777162 0 0.0212638 0 0)
(0.422756 -0.0711689 0 0.0192712 0 0)
(0.404189 -0.0651072 0 0.0174282 0 0)
(0.38701 -0.0595046 0 0.0157279 0 0)
(0.371057 -0.0543302 0 0.0141631 0 0)
(0.356189 -0.049558 0 0.0127257 0 0)
(0.342295 -0.0451614 0 0.0114079 0 0)
(0.329297 -0.0411077 0 0.0102014 0 0)
(0.317132 -0.0373623 0 0.00909882 0 0)
(0.305746 -0.0338957 0 0.0080923 0 0)
(0.295105 -0.0306819 0 0.0071748 0 0)
(0.285176 -0.027692 0 0.00633942 0 0)
(0.275937 -0.024897 0 0.00558003 0 0)
(0.267354 -0.0222717 0 0.00489075 0 0)
(0.2594 -0.0197927 0 0.00426653 0 0)
(0.252035 -0.0174359 0 0.00370321 0 0)
(0.245224 -0.0151761 0 0.00319761 0 0)
(0.238924 -0.0129918 0 0.00274759 0 0)
(0.23309 -0.0108601 0 0.00235225 0 0)
(0.227672 -0.00875907 0 0.00201203 0 0)
(0.2226 -0.00666524 0 0.00172897 0 0)
(0.2178 -0.00456044 0 0.00150624 0 0)
(0.213189 -0.00242321 0 0.00134914 0 0)
(0.208697 -0.000228778 0 0.00126598 0 0)
(0.204248 0.00204697 0 0.00127066 0 0)
(0.199783 0.00442052 0 0.00138233 0 0)
(0.195247 0.00690378 0 0.00162764 0 0)
(0.190595 0.0094975 0 0.0020419 0 0)
(0.185774 0.0121666 0 0.00266409 0 0)