/*--------------------------------*- C++ -*----------------------------------*\
| =========                 |                                                 |
| \\      /  F ield         | OpenFOAM: The Open Source CFD Toolbox           |
|  \\    /   O peration     | Version:  2.4.0                                 |
|   \\  /    A nd           | Web:      www.OpenFOAM.org                      |
|    \\/     M anipulation  |                                                 |
\*---------------------------------------------------------------------------*/
FoamFile
{
    version     2.0;
    format      ascii;
    class       volScalarField;
    location    "0.13";
    object      nuSgs;
}
// * * * * * * * * * * * * * * * * * * * * * * * * * * * * * * * * * * * * * //

dimensions      [0 2 -1 0 0 0 0];

internalField   nonuniform List<scalar> 
17600
(
0.000292938
0.000698925
0.00090743
0.000960261
0.000947332
0.000906647
0.000849451
0.00079577
0.000751661
0.000714359
0.000686104
0.000661472
0.000643309
0.00062582
0.000613337
0.000599643
0.000590574
0.00057909
0.000572414
0.000562308
0.000557545
0.000548292
0.000544782
0.000536533
0.000533867
0.000526273
0.000524397
0.000517248
0.000516029
0.000509193
0.000508554
0.000501776
0.000501632
0.000494727
0.000494701
0.000487264
0.000486518
0.000477501
0.00047547
0.000459611
3.8145e-05
0.000179002
0.000339174
0.000471806
0.000545158
0.000580591
0.000594607
0.000594166
0.000591572
0.000585254
0.000580056
0.000572212
0.000567281
0.000559423
0.000554927
0.000547329
0.000543601
0.000536329
0.000533114
0.000526421
0.000523649
0.000517577
0.000515152
0.000509577
0.000507469
0.000502257
0.000500407
0.000495613
0.000493964
0.000489504
0.000488089
0.000483909
0.000482665
0.000478796
0.000477707
0.000474181
0.000473329
0.000470259
0.000468565
0.000464858
3.24641e-06
2.83171e-05
7.1965e-05
0.000126032
0.000193046
0.00023988
0.000275252
0.000297747
0.000312959
0.000321653
0.000329511
0.000332955
0.000337921
0.000341229
0.000344888
0.000347604
0.000351009
0.000353051
0.000355943
0.000358043
0.00036008
0.000362294
0.0003638
0.000365678
0.000366864
0.000368669
0.000369328
0.000370941
0.00037141
0.000372722
0.000373005
0.000374245
0.000374325
0.000375513
0.00037558
0.000376872
0.000377297
0.000379515
0.000381028
0.00038058
1.51347e-06
4.01362e-06
1.22576e-05
2.59475e-05
4.55727e-05
6.95572e-05
8.9584e-05
0.000111129
0.000124385
0.000136227
0.000145243
0.000152686
0.000157812
0.000164282
0.00016746
0.000172618
0.000175624
0.000179927
0.000182348
0.000186393
0.0001883
0.000192191
0.000194056
0.000197823
0.000199696
0.000203606
0.00020536
0.000209205
0.000210936
0.000214596
0.000216248
0.000219971
0.000221606
0.000225442
0.000227287
0.000231412
0.000233264
0.000237503
0.0002387
0.000241481
1.49517e-06
1.58448e-06
2.38365e-06
4.7613e-06
8.92183e-06
1.53781e-05
2.11387e-05
3.08497e-05
3.55471e-05
4.35448e-05
4.70508e-05
5.31439e-05
5.58049e-05
6.09564e-05
6.32055e-05
6.7627e-05
6.96579e-05
7.35994e-05
7.53285e-05
7.86893e-05
8.0074e-05
8.29575e-05
8.42579e-05
8.69631e-05
8.82328e-05
9.0918e-05
9.20848e-05
9.46185e-05
9.57637e-05
9.80939e-05
9.92179e-05
0.000101607
0.000102764
0.000105229
0.000106661
0.00010952
0.000110935
0.000113869
0.000114849
0.000116806
1.49122e-06
1.51696e-06
1.58078e-06
1.762e-06
2.24145e-06
3.34441e-06
4.53554e-06
7.05237e-06
8.32106e-06
1.08542e-05
1.19248e-05
1.4157e-05
1.5074e-05
1.7164e-05
1.80126e-05
2.00318e-05
2.08795e-05
2.28894e-05
2.36807e-05
2.5561e-05
2.61906e-05
2.78314e-05
2.84092e-05
2.99754e-05
3.05441e-05
3.21574e-05
3.26997e-05
3.42954e-05
3.48231e-05
3.63184e-05
3.67911e-05
3.82492e-05
3.86546e-05
4.00517e-05
4.0515e-05
4.20179e-05
4.26809e-05
4.50099e-05
4.61497e-05
4.92071e-05
1.48991e-06
1.5156e-06
1.54429e-06
1.65056e-06
1.72377e-06
1.89933e-06
2.01257e-06
2.37008e-06
2.56756e-06
3.04532e-06
3.24871e-06
3.71514e-06
3.89124e-06
4.35948e-06
4.55532e-06
5.08157e-06
5.31488e-06
5.93009e-06
6.16111e-06
6.74193e-06
6.91025e-06
7.39091e-06
7.55349e-06
8.07542e-06
8.27544e-06
8.87716e-06
9.08189e-06
9.69283e-06
9.88517e-06
1.04351e-05
1.05951e-05
1.11189e-05
1.12446e-05
1.17461e-05
1.19229e-05
1.25504e-05
1.2775e-05
1.35191e-05
1.38322e-05
1.4941e-05
1.48819e-06
1.50098e-06
1.53273e-06
1.59099e-06
1.6448e-06
1.76723e-06
1.86934e-06
1.94133e-06
2.02036e-06
2.07875e-06
2.10037e-06
2.14678e-06
2.19188e-06
2.24535e-06
2.26891e-06
2.32367e-06
2.36677e-06
2.41105e-06
2.43627e-06
2.50703e-06
2.54143e-06
2.60204e-06
2.6444e-06
2.74048e-06
2.77737e-06
2.85349e-06
2.88755e-06
2.96367e-06
3.00953e-06
3.09724e-06
3.16737e-06
3.25746e-06
3.29307e-06
3.34985e-06
3.41797e-06
3.48757e-06
3.56606e-06
3.64196e-06
3.70159e-06
4.02611e-06
1.48677e-06
1.5065e-06
1.52435e-06
1.60223e-06
1.64886e-06
1.78318e-06
1.82645e-06
1.92239e-06
1.94686e-06
2.0135e-06
2.03173e-06
2.0819e-06
2.09534e-06
2.10605e-06
2.10301e-06
2.11088e-06
2.11382e-06
2.12873e-06
2.14194e-06
2.16996e-06
2.17131e-06
2.17589e-06
2.17449e-06
2.17555e-06
2.17389e-06
2.18201e-06
2.19285e-06
2.22239e-06
2.23028e-06
2.24868e-06
2.24931e-06
2.2537e-06
2.25342e-06
2.26131e-06
2.26145e-06
2.27206e-06
2.27671e-06
2.2937e-06
2.32495e-06
2.61816e-06
1.48652e-06
1.49593e-06
1.51816e-06
1.57421e-06
1.61676e-06
1.72501e-06
1.81296e-06
1.84662e-06
1.87814e-06
1.96162e-06
2.00427e-06
2.0148e-06
2.01254e-06
2.00635e-06
2.00643e-06
2.03111e-06
2.05645e-06
2.06137e-06
2.06141e-06
2.05951e-06
2.05722e-06
2.0568e-06
2.06575e-06
2.07264e-06
2.07867e-06
2.08521e-06
2.0903e-06
2.08904e-06
2.08948e-06
2.08897e-06
2.08956e-06
2.0886e-06
2.09114e-06
2.09612e-06
2.11624e-06
2.12724e-06
2.15377e-06
2.16564e-06
2.19767e-06
2.45439e-06
1.48653e-06
1.51723e-06
1.53157e-06
1.61196e-06
1.65574e-06
1.79629e-06
1.82282e-06
1.91859e-06
1.94585e-06
2.03296e-06
2.0468e-06
2.09232e-06
2.0921e-06
2.11423e-06
2.11559e-06
2.13321e-06
2.13051e-06
2.14911e-06
2.15376e-06
2.1823e-06
2.18502e-06
2.20149e-06
2.20125e-06
2.21415e-06
2.21424e-06
2.22958e-06
2.22834e-06
2.24061e-06
2.24362e-06
2.26872e-06
2.27478e-06
2.29912e-06
2.29882e-06
2.31282e-06
2.31179e-06
2.33431e-06
2.33532e-06
2.38059e-06
2.41882e-06
2.87072e-06
1.48741e-06
1.50169e-06
1.52473e-06
1.61234e-06
1.65668e-06
1.7632e-06
1.80133e-06
1.93597e-06
1.97772e-06
2.0665e-06
2.07564e-06
2.09698e-06
2.09304e-06
2.12403e-06
2.13152e-06
2.1571e-06
2.16248e-06
2.20208e-06
2.20728e-06
2.22412e-06
2.22096e-06
2.23466e-06
2.23516e-06
2.26382e-06
2.2713e-06
2.30671e-06
2.31245e-06
2.3447e-06
2.34903e-06
2.37703e-06
2.37746e-06
2.40453e-06
2.4034e-06
2.43536e-06
2.4433e-06
2.50905e-06
2.53485e-06
2.67756e-06
2.74385e-06
3.12335e-06
1.49864e-06
1.50669e-06
1.58275e-06
1.60336e-06
1.7404e-06
1.78713e-06
1.96718e-06
2.00893e-06
2.12431e-06
2.13837e-06
2.2084e-06
2.23336e-06
2.3214e-06
2.3644e-06
2.4165e-06
2.4466e-06
2.50293e-06
2.56352e-06
2.59147e-06
2.65482e-06
2.69017e-06
2.78439e-06
2.83912e-06
2.9677e-06
3.0072e-06
3.10615e-06
3.13545e-06
3.24363e-06
3.29284e-06
3.44182e-06
3.50171e-06
3.68072e-06
3.74868e-06
3.97829e-06
4.10105e-06
4.4309e-06
4.61628e-06
5.13114e-06
5.39217e-06
6.13559e-06
1.49486e-06
1.50612e-06
1.5607e-06
1.61361e-06
1.76411e-06
1.85801e-06
2.10427e-06
2.27038e-06
2.66002e-06
2.86716e-06
3.32339e-06
3.55438e-06
4.03355e-06
4.25272e-06
4.72679e-06
4.96568e-06
5.4683e-06
5.70529e-06
6.19705e-06
6.44113e-06
6.97072e-06
7.24012e-06
7.81986e-06
8.0729e-06
8.60563e-06
8.87285e-06
9.41513e-06
9.7004e-06
1.03352e-05
1.06437e-05
1.11113e-05
1.16238e-05
1.20638e-05
1.28479e-05
1.34479e-05
1.42825e-05
1.48476e-05
1.59942e-05
1.66663e-05
1.83378e-05
1.50891e-06
1.53279e-06
1.60343e-06
1.80233e-06
2.30321e-06
3.21025e-06
5.135e-06
6.47897e-06
8.94647e-06
1.01645e-05
1.24774e-05
1.35596e-05
1.57245e-05
1.66986e-05
1.87146e-05
1.96408e-05
2.14828e-05
2.23289e-05
2.40762e-05
2.48798e-05
2.66074e-05
2.74175e-05
2.91162e-05
2.98514e-05
3.14594e-05
3.21947e-05
3.37057e-05
3.44402e-05
3.60126e-05
3.67096e-05
3.82994e-05
3.91014e-05
4.07206e-05
4.18036e-05
4.34789e-05
4.4682e-05
4.60741e-05
4.78115e-05
4.87182e-05
5.05819e-05
1.50231e-06
1.59417e-06
2.39541e-06
4.8028e-06
9.12449e-06
1.45345e-05
2.37379e-05
2.8815e-05
3.76627e-05
4.1552e-05
4.86935e-05
5.16725e-05
5.75936e-05
5.99457e-05
6.48351e-05
6.68208e-05
7.09208e-05
7.26028e-05
7.62999e-05
7.77653e-05
8.11456e-05
8.24948e-05
8.56412e-05
8.6824e-05
8.98227e-05
9.09684e-05
9.37788e-05
9.49299e-05
9.78719e-05
9.8964e-05
0.000102041
0.000103278
0.000106496
0.000107809
0.00011121
0.000112354
0.000115421
0.000116423
0.000117896
0.000119885
1.50853e-06
3.96929e-06
1.22535e-05
2.63058e-05
4.68394e-05
6.68305e-05
9.35169e-05
0.000108606
0.0001256
0.000135219
0.000146081
0.000151432
0.000159706
0.000162852
0.000169137
0.000171645
0.000176725
0.000178856
0.000183526
0.000185386
0.000189747
0.000191519
0.00019574
0.000197381
0.00020169
0.000203317
0.000207495
0.000209196
0.000213631
0.000215234
0.000219856
0.000221558
0.000226148
0.000227807
0.000232399
0.000233577
0.000237254
0.000237353
0.000237916
0.000239931
3.25812e-06
2.82442e-05
7.17908e-05
0.000129209
0.00019019
0.000241293
0.000274502
0.000298628
0.000311571
0.000323402
0.000327968
0.000334467
0.000337072
0.00034199
0.000344182
0.000348497
0.000350226
0.000353901
0.000355614
0.000358559
0.000360194
0.000362747
0.000364163
0.000365987
0.000367853
0.000369065
0.000370486
0.00037188
0.000373137
0.000373909
0.000375361
0.000376024
0.000376805
0.000377622
0.000377907
0.000377822
0.000377301
0.00037643
0.000374283
0.000376215
3.82154e-05
0.000179077
0.000338369
0.000472692
0.000543959
0.000581612
0.000594255
0.000594224
0.000590735
0.000586868
0.000578057
0.000574182
0.000565238
0.000561478
0.000552722
0.000549426
0.000541309
0.000538412
0.000531023
0.000528488
0.000521707
0.000519542
0.000513255
0.000511402
0.000505684
0.000503965
0.000498683
0.000497145
0.000492117
0.000490708
0.000486007
0.000484553
0.000480028
0.000478504
0.00047396
0.000472333
0.000467878
0.000467013
0.000464982
0.000464297
0.000292819
0.000699597
0.00090692
0.000960558
0.000947245
0.000907334
0.000848146
0.000797085
0.00074988
0.000716161
0.000683825
0.000663648
0.000640561
0.000628442
0.000610109
0.000602551
0.000587108
0.00058174
0.000568974
0.000564979
0.000553879
0.000550833
0.000540934
0.000538618
0.000529512
0.000527622
0.000519296
0.000517492
0.000509718
0.000507889
0.000500585
0.000498388
0.000491799
0.000488893
0.000483745
0.000479334
0.000477521
0.0004724
0.000473077
0.000463265
0.000217201
0.000189095
0.000170252
0.000156466
0.000146312
0.000138463
0.000132357
0.000127809
0.000124555
0.000122267
0.000120982
0.000120253
0.000120283
0.000120524
0.000121067
0.000122008
0.000123056
0.00012429
0.000125703
0.000127059
0.000128001
0.000128816
0.000129315
0.000129743
0.000130067
0.000130335
0.000130408
0.000130334
0.000129894
0.000128891
0.000127281
0.000124102
0.000117075
0.000107381
9.58949e-05
8.62214e-05
7.89319e-05
7.36395e-05
6.96392e-05
6.65989e-05
6.40441e-05
6.18915e-05
5.9916e-05
5.81817e-05
5.6482e-05
5.48622e-05
5.33546e-05
5.19561e-05
5.06893e-05
4.95519e-05
4.86199e-05
4.77092e-05
4.70411e-05
4.64812e-05
4.58743e-05
4.53663e-05
4.49379e-05
4.42384e-05
4.38103e-05
4.31916e-05
4.25551e-05
4.21973e-05
4.17417e-05
4.16618e-05
4.17775e-05
4.21323e-05
4.27648e-05
4.43617e-05
4.57439e-05
4.77635e-05
5.13682e-05
5.44473e-05
5.91958e-05
6.35322e-05
6.7106e-05
7.11278e-05
7.41976e-05
7.63235e-05
7.84019e-05
7.98055e-05
8.0522e-05
8.13052e-05
8.17375e-05
8.20673e-05
8.21309e-05
8.20362e-05
8.17351e-05
8.11197e-05
8.00455e-05
7.88801e-05
7.68661e-05
7.48452e-05
7.21141e-05
6.85603e-05
6.4512e-05
5.95065e-05
5.43849e-05
4.87466e-05
4.26704e-05
3.72038e-05
3.23352e-05
2.80798e-05
2.43308e-05
2.10875e-05
1.83148e-05
1.59395e-05
1.39372e-05
1.22411e-05
1.08133e-05
9.61921e-06
8.61943e-06
7.82044e-06
7.10795e-06
6.58401e-06
6.14159e-06
5.82403e-06
5.59687e-06
5.43728e-06
5.37773e-06
5.33474e-06
5.3439e-06
5.37744e-06
5.47537e-06
5.65745e-06
5.85482e-06
6.27588e-06
6.59983e-06
7.27573e-06
7.7036e-06
8.49143e-06
9.06238e-06
9.93546e-06
1.07325e-05
1.16461e-05
1.24947e-05
1.35755e-05
1.44248e-05
1.55615e-05
1.64432e-05
1.75649e-05
1.84213e-05
1.94932e-05
2.03489e-05
2.12705e-05
2.20807e-05
2.28109e-05
2.34894e-05
2.39939e-05
2.44258e-05
2.47159e-05
2.49149e-05
2.49639e-05
2.49419e-05
2.48675e-05
2.47337e-05
2.45425e-05
2.4363e-05
2.41277e-05
2.39243e-05
2.36895e-05
2.34479e-05
2.31849e-05
2.29438e-05
2.26534e-05
2.23911e-05
2.21086e-05
2.18607e-05
2.16161e-05
2.1391e-05
2.11694e-05
2.0998e-05
2.08421e-05
2.072e-05
2.06031e-05
2.05417e-05
2.0535e-05
2.05483e-05
2.05828e-05
2.06539e-05
2.07787e-05
2.09092e-05
2.10888e-05
2.13022e-05
2.1492e-05
2.17148e-05
2.19325e-05
2.20891e-05
2.22565e-05
2.23487e-05
2.23962e-05
2.24333e-05
2.24126e-05
2.24159e-05
2.23988e-05
2.2358e-05
2.23363e-05
2.23204e-05
2.22903e-05
2.22409e-05
2.21901e-05
2.20754e-05
2.1953e-05
2.17334e-05
2.15454e-05
2.1277e-05
2.10508e-05
2.087e-05
2.0726e-05
2.0668e-05
2.06561e-05
2.06614e-05
2.07321e-05
2.06698e-05
2.04776e-05
2.04821e-05
2.04623e-05
2.04756e-05
2.05681e-05
2.08724e-05
2.14328e-05
2.19857e-05
2.26266e-05
2.35777e-05
2.43081e-05
2.46384e-05
2.47985e-05
2.49008e-05
2.51883e-05
2.51962e-05
2.51988e-05
2.51853e-05
2.53178e-05
2.52651e-05
2.50515e-05
2.49952e-05
2.59123e-05
2.65226e-05
2.64992e-05
2.62677e-05
2.67149e-05
2.81316e-05
2.85821e-05
2.7936e-05
2.54709e-05
2.35779e-05
2.25473e-05
2.22264e-05
2.26833e-05
2.47257e-05
2.6125e-05
2.66634e-05
2.64921e-05
2.45263e-05
2.21165e-05
2.03278e-05
1.87787e-05
1.77552e-05
1.71672e-05
1.71122e-05
1.74318e-05
1.78734e-05
1.80386e-05
1.80096e-05
1.77062e-05
1.73933e-05
1.67162e-05
1.62539e-05
1.61689e-05
1.59016e-05
1.59564e-05
1.63639e-05
1.83708e-05
2.19794e-05
2.61135e-05
4.10637e-05
5.58703e-05
6.52365e-05
7.11047e-05
7.38654e-05
7.46881e-05
7.46215e-05
7.40728e-05
7.27978e-05
7.03618e-05
6.67233e-05
6.30483e-05
5.9209e-05
5.6249e-05
5.32807e-05
5.13192e-05
4.94306e-05
4.82003e-05
4.6904e-05
4.64248e-05
4.62786e-05
4.64156e-05
4.68427e-05
4.76028e-05
4.90918e-05
5.09424e-05
5.28935e-05
5.83035e-05
6.30481e-05
6.43638e-05
6.41798e-05
6.22041e-05
6.0971e-05
6.11616e-05
6.64649e-05
7.32672e-05
7.80451e-05
7.7216e-05
7.07209e-05
5.21603e-05
4.04461e-05
3.40917e-05
3.05654e-05
2.84916e-05
2.73492e-05
2.68535e-05
2.64991e-05
2.65171e-05
2.63025e-05
2.61342e-05
2.55426e-05
2.48185e-05
2.42674e-05
2.35111e-05
2.32627e-05
2.2651e-05
2.24499e-05
2.19415e-05
2.18662e-05
2.16507e-05
2.16964e-05
2.16837e-05
2.18803e-05
2.21136e-05
2.24029e-05
2.29383e-05
2.33071e-05
2.38731e-05
2.39898e-05
2.42435e-05
2.4207e-05
2.43572e-05
2.42692e-05
2.43297e-05
2.41043e-05
2.37589e-05
2.27929e-05
2.203e-05
2.13646e-05
2.05145e-05
1.99236e-05
1.93885e-05
1.93017e-05
1.92835e-05
1.95145e-05
1.99776e-05
2.13465e-05
2.22643e-05
2.36387e-05
2.44661e-05
2.54979e-05
2.59058e-05
2.6214e-05
2.61383e-05
2.60832e-05
2.5845e-05
2.58341e-05
2.59122e-05
2.6263e-05
2.74191e-05
2.82318e-05
3.00695e-05
3.08907e-05
3.27152e-05
3.34323e-05
3.50619e-05
3.59095e-05
3.92621e-05
4.11615e-05
4.53963e-05
4.62347e-05
4.80797e-05
4.74277e-05
4.79738e-05
4.6198e-05
4.60224e-05
4.36188e-05
4.30614e-05
4.10417e-05
4.035e-05
3.99483e-05
3.90401e-05
4.40584e-05
4.86652e-05
8.63452e-05
0.00016332
0.000241774
0.000227721
0.0002154
0.000205413
0.000197041
0.00018967
0.00018305
0.000176973
0.000171496
0.000166504
0.000161996
0.00015786
0.000154179
0.000150814
0.00014784
0.000145077
0.000142566
0.00014023
0.000138059
0.000136083
0.000134317
0.00013272
0.000131386
0.000130248
0.00012943
0.000128735
0.000128736
0.000128936
0.00012952
0.000130435
0.000131486
0.000132848
0.000133404
0.000133266
0.000132646
0.000131093
0.000128038
0.000123682
0.000118897
0.000113355
0.00010768
0.00010173
9.61126e-05
9.04811e-05
8.54226e-05
8.06302e-05
7.61757e-05
7.22017e-05
6.90899e-05
6.61217e-05
6.38262e-05
6.17729e-05
5.97343e-05
5.85038e-05
5.69542e-05
5.59215e-05
5.51365e-05
5.42834e-05
5.42799e-05
5.46162e-05
5.52844e-05
5.63875e-05
5.82793e-05
5.9624e-05
6.23343e-05
6.46798e-05
6.69749e-05
6.97563e-05
7.24827e-05
7.45597e-05
7.69704e-05
7.84675e-05
7.93427e-05
8.03963e-05
8.09247e-05
8.12331e-05
8.20588e-05
8.21165e-05
8.20872e-05
8.19417e-05
8.14007e-05
8.07185e-05
7.98406e-05
7.8034e-05
7.65719e-05
7.42254e-05
7.13369e-05
6.78204e-05
6.40862e-05
5.95541e-05
5.51134e-05
5.01011e-05
4.47981e-05
3.99492e-05
3.54905e-05
3.14094e-05
2.77622e-05
2.44289e-05
2.14876e-05
1.88861e-05
1.65833e-05
1.46036e-05
1.28988e-05
1.13948e-05
1.01334e-05
9.02491e-06
8.12099e-06
7.34948e-06
6.72394e-06
6.20991e-06
5.84721e-06
5.58767e-06
5.37714e-06
5.30108e-06
5.23086e-06
5.21914e-06
5.23535e-06
5.27681e-06
5.40714e-06
5.57157e-06
5.90017e-06
6.19167e-06
6.81268e-06
7.25385e-06
8.0038e-06
8.67798e-06
9.40891e-06
1.05001e-05
1.1265e-05
1.23504e-05
1.35078e-05
1.44627e-05
1.60649e-05
1.70795e-05
1.87799e-05
2.015e-05
2.16681e-05
2.33328e-05
2.4707e-05
2.64009e-05
2.77346e-05
2.92305e-05
3.05219e-05
3.17729e-05
3.28528e-05
3.38053e-05
3.45723e-05
3.51015e-05
3.55374e-05
3.56996e-05
3.56749e-05
3.55687e-05
3.53227e-05
3.49059e-05
3.44921e-05
3.39669e-05
3.34633e-05
3.28811e-05
3.23752e-05
3.17816e-05
3.12729e-05
3.06934e-05
3.02265e-05
2.96804e-05
2.92176e-05
2.87544e-05
2.83787e-05
2.79842e-05
2.77007e-05
2.74858e-05
2.7347e-05
2.72217e-05
2.72117e-05
2.7221e-05
2.72679e-05
2.73632e-05
2.7464e-05
2.76895e-05
2.78335e-05
2.8095e-05
2.83675e-05
2.86712e-05
2.90315e-05
2.93895e-05
2.97257e-05
3.00456e-05
3.03091e-05
3.05173e-05
3.06555e-05
3.07413e-05
3.07688e-05
3.07818e-05
3.07497e-05
3.06844e-05
3.05971e-05
3.04947e-05
3.02986e-05
3.013e-05
2.98862e-05
2.96123e-05
2.93067e-05
2.89454e-05
2.84809e-05
2.80488e-05
2.74853e-05
2.6994e-05
2.64586e-05
2.59567e-05
2.55548e-05
2.5173e-05
2.49135e-05
2.46222e-05
2.43819e-05
2.41944e-05
2.37777e-05
2.36738e-05
2.37127e-05
2.39885e-05
2.42766e-05
2.45767e-05
2.48806e-05
2.52648e-05
2.53807e-05
2.56039e-05
2.65601e-05
2.71736e-05
2.72245e-05
2.7285e-05
2.70492e-05
2.65842e-05
2.60407e-05
2.53138e-05
2.42557e-05
2.37134e-05
2.37189e-05
2.42243e-05
2.42739e-05
2.37649e-05
2.33616e-05
2.35587e-05
2.4931e-05
2.5442e-05
2.52226e-05
2.36164e-05
2.20334e-05
2.11513e-05
2.08285e-05
2.09172e-05
2.21186e-05
2.34166e-05
2.4142e-05
2.43333e-05
2.38859e-05
2.18916e-05
1.97719e-05
1.79021e-05
1.6588e-05
1.59267e-05
1.58342e-05
1.62787e-05
1.72311e-05
1.76138e-05
1.76425e-05
1.75643e-05
1.73354e-05
1.65901e-05
1.60047e-05
1.61046e-05
1.71315e-05
2.14902e-05
2.90814e-05
4.24127e-05
5.75108e-05
6.58801e-05
7.16457e-05
7.46648e-05
7.6372e-05
7.64273e-05
7.61112e-05
7.48404e-05
7.25546e-05
6.8421e-05
6.47932e-05
6.08787e-05
5.80383e-05
5.50207e-05
5.28282e-05
5.05745e-05
4.89571e-05
4.71884e-05
4.60609e-05
4.49637e-05
4.41953e-05
4.34726e-05
4.33198e-05
4.33151e-05
4.35896e-05
4.40007e-05
4.49546e-05
4.61451e-05
4.82368e-05
4.9864e-05
5.47784e-05
6.00805e-05
6.2493e-05
6.2224e-05
6.1128e-05
6.07567e-05
6.15842e-05
6.69539e-05
7.47654e-05
7.86966e-05
7.91432e-05
7.67928e-05
6.79478e-05
5.15644e-05
4.09907e-05
3.51954e-05
3.16693e-05
2.96097e-05
2.81856e-05
2.73347e-05
2.69248e-05
2.62657e-05
2.58622e-05
2.48961e-05
2.44516e-05
2.35871e-05
2.3129e-05
2.26571e-05
2.21081e-05
2.18819e-05
2.15453e-05
2.15678e-05
2.15058e-05
2.16103e-05
2.15916e-05
2.18084e-05
2.18459e-05
2.21177e-05
2.22096e-05
2.24781e-05
2.2744e-05
2.2857e-05
2.31121e-05
2.30709e-05
2.33362e-05
2.31871e-05
2.35253e-05
2.31237e-05
2.32895e-05
2.25655e-05
2.25932e-05
2.16833e-05
2.19162e-05
2.14613e-05
2.23925e-05
2.23432e-05
2.38999e-05
2.39435e-05
2.51266e-05
2.48214e-05
2.57427e-05
2.54011e-05
2.63845e-05
2.60139e-05
2.67943e-05
2.61729e-05
2.65389e-05
2.58905e-05
2.63213e-05
2.59918e-05
2.68417e-05
2.67875e-05
2.83511e-05
2.86417e-05
3.08926e-05
3.12522e-05
3.31793e-05
3.34289e-05
3.50734e-05
3.56251e-05
3.90739e-05
4.06786e-05
4.53411e-05
4.66637e-05
5.10101e-05
5.11897e-05
5.27279e-05
5.06143e-05
5.13756e-05
4.8118e-05
5.01613e-05
4.65714e-05
5.07377e-05
4.72275e-05
5.34412e-05
5.25727e-05
5.94709e-05
8.86535e-05
0.000202547
0.000195554
0.000188318
0.000182089
0.000176545
0.000171648
0.000167139
0.000163004
0.000159091
0.000155449
0.000151982
0.000148684
0.00014553
0.00014254
0.000139627
0.000136909
0.000134246
0.000131719
0.000129323
0.000127015
0.000124903
0.000122882
0.000121092
0.000119408
0.000117975
0.000116709
0.00011568
0.000114873
0.000114367
0.000113947
0.000113953
0.00011411
0.000114515
0.000115291
0.000116239
0.000117237
0.000118266
0.000118375
0.000118137
0.00011754
0.00011668
0.000115648
0.000114182
0.000113016
0.000111302
0.000109719
0.000108299
0.000106442
0.000104696
0.000103214
0.000101171
9.98198e-05
9.83825e-05
9.66553e-05
9.57578e-05
9.45563e-05
9.33883e-05
9.28752e-05
9.19882e-05
9.09885e-05
9.04616e-05
8.94148e-05
8.87058e-05
8.82551e-05
8.72912e-05
8.68719e-05
8.63428e-05
8.5559e-05
8.51919e-05
8.44155e-05
8.36108e-05
8.31276e-05
8.18553e-05
8.09912e-05
7.99218e-05
7.81215e-05
7.68669e-05
7.42284e-05
7.15432e-05
6.8768e-05
6.50599e-05
6.1683e-05
5.76445e-05
5.36105e-05
4.91885e-05
4.48394e-05
4.0751e-05
3.70627e-05
3.35409e-05
3.02745e-05
2.73027e-05
2.45291e-05
2.19678e-05
1.96862e-05
1.75873e-05
1.57052e-05
1.40252e-05
1.2503e-05
1.11881e-05
1.00004e-05
8.93542e-06
8.07689e-06
7.29232e-06
6.64354e-06
6.11776e-06
5.70508e-06
5.41587e-06
5.19847e-06
5.09211e-06
5.04429e-06
5.04425e-06
5.0635e-06
5.10898e-06
5.22573e-06
5.35918e-06
5.60838e-06
5.97302e-06
6.27246e-06
7.01364e-06
7.49305e-06
8.20333e-06
9.12306e-06
9.94439e-06
1.09076e-05
1.19928e-05
1.32714e-05
1.43014e-05
1.59226e-05
1.70037e-05
1.88539e-05
2.03736e-05
2.21552e-05
2.443e-05
2.61648e-05
2.88004e-05
3.08812e-05
3.32122e-05
3.57215e-05
3.77597e-05
4.01987e-05
4.18812e-05
4.37952e-05
4.56114e-05
4.70328e-05
4.8296e-05
4.91366e-05
4.97455e-05
5.012e-05
5.01179e-05
5.00103e-05
4.97325e-05
4.93194e-05
4.86733e-05
4.80303e-05
4.72707e-05
4.65407e-05
4.56858e-05
4.49537e-05
4.41508e-05
4.33458e-05
4.25255e-05
4.17964e-05
4.09538e-05
4.01827e-05
3.94235e-05
3.88002e-05
3.81258e-05
3.75614e-05
3.72295e-05
3.69734e-05
3.68171e-05
3.68078e-05
3.68271e-05
3.69094e-05
3.70234e-05
3.7201e-05
3.74389e-05
3.77068e-05
3.79835e-05
3.84387e-05
3.88871e-05
3.93175e-05
3.98492e-05
4.04814e-05
4.09059e-05
4.13434e-05
4.176e-05
4.20866e-05
4.24271e-05
4.26635e-05
4.27606e-05
4.28086e-05
4.28125e-05
4.277e-05
4.26788e-05
4.25248e-05
4.2214e-05
4.19887e-05
4.15208e-05
4.12158e-05
4.05965e-05
4.0173e-05
3.94739e-05
3.88411e-05
3.80573e-05
3.72515e-05
3.6097e-05
3.53611e-05
3.40634e-05
3.31421e-05
3.2118e-05
3.10712e-05
3.02384e-05
2.95082e-05
2.87325e-05
2.8012e-05
2.74868e-05
2.72794e-05
2.71924e-05
2.72078e-05
2.72864e-05
2.75545e-05
2.78803e-05
2.81877e-05
2.89881e-05
3.0403e-05
3.14895e-05
3.17747e-05
3.14163e-05
2.97987e-05
2.84951e-05
2.65231e-05
2.4858e-05
2.36891e-05
2.34662e-05
2.34133e-05
2.34494e-05
2.26798e-05
2.16665e-05
2.13101e-05
2.14413e-05
2.14525e-05
2.13883e-05
2.09543e-05
2.06272e-05
2.03752e-05
2.02948e-05
2.03482e-05
2.10403e-05
2.18745e-05
2.26784e-05
2.29291e-05
2.28326e-05
2.1242e-05
1.90348e-05
1.70962e-05
1.60113e-05
1.56023e-05
1.56333e-05
1.59848e-05
1.73174e-05
1.79257e-05
1.83723e-05
1.84807e-05
1.809e-05
1.77736e-05
1.83741e-05
2.23025e-05
3.04109e-05
4.93023e-05
6.07637e-05
6.80825e-05
7.19023e-05
7.44572e-05
7.49318e-05
7.49163e-05
7.41503e-05
7.20486e-05
6.90401e-05
6.60841e-05
6.32508e-05
6.04576e-05
5.80335e-05
5.54258e-05
5.36069e-05
5.13441e-05
4.98154e-05
4.78328e-05
4.65639e-05
4.47693e-05
4.37112e-05
4.2404e-05
4.16677e-05
4.07471e-05
4.05127e-05
4.04673e-05
4.06885e-05
4.09575e-05
4.17893e-05
4.24434e-05
4.39306e-05
4.5656e-05
4.74195e-05
5.16414e-05
5.74535e-05
6.03144e-05
6.03179e-05
6.01611e-05
6.00136e-05
6.10534e-05
6.48296e-05
7.38219e-05
7.77625e-05
7.84382e-05
7.77918e-05
7.48152e-05
6.67828e-05
5.3666e-05
4.36468e-05
3.71022e-05
3.34163e-05
3.04961e-05
2.89273e-05
2.74887e-05
2.65171e-05
2.57074e-05
2.4748e-05
2.43525e-05
2.34286e-05
2.31654e-05
2.24026e-05
2.20923e-05
2.1635e-05
2.14651e-05
2.1345e-05
2.13392e-05
2.14779e-05
2.15164e-05
2.18887e-05
2.19396e-05
2.24458e-05
2.24851e-05
2.31808e-05
2.313e-05
2.38944e-05
2.37594e-05
2.45634e-05
2.43263e-05
2.50949e-05
2.47215e-05
2.53569e-05
2.48601e-05
2.52349e-05
2.4751e-05
2.50987e-05
2.48079e-05
2.51206e-05
2.49203e-05
2.50772e-05
2.48166e-05
2.4785e-05
2.44022e-05
2.4178e-05
2.38156e-05
2.38381e-05
2.40789e-05
2.4551e-05
2.48325e-05
2.49655e-05
2.50751e-05
2.5442e-05
2.55209e-05
2.62953e-05
2.63495e-05
2.76118e-05
2.77735e-05
2.98512e-05
3.01467e-05
3.26536e-05
3.28649e-05
3.5301e-05
3.54691e-05
3.7729e-05
3.83877e-05
4.27067e-05
4.48531e-05
5.12759e-05
5.31075e-05
5.77867e-05
5.76808e-05
6.03649e-05
5.86004e-05
5.97079e-05
5.71056e-05
5.68956e-05
5.5422e-05
5.42187e-05
5.56314e-05
5.5441e-05
6.13584e-05
0.000130738
0.000128993
0.000126369
0.000123829
0.000120869
0.000118079
0.000115495
0.000113074
0.000110943
0.000108844
0.000106958
0.000105027
0.000103153
0.000101293
9.93469e-05
9.75286e-05
9.55804e-05
9.37898e-05
9.194e-05
9.02215e-05
8.85168e-05
8.69662e-05
8.54404e-05
8.41534e-05
8.28783e-05
8.19401e-05
8.10142e-05
8.04663e-05
7.9994e-05
7.9873e-05
7.99526e-05
8.01705e-05
8.06754e-05
8.12732e-05
8.21824e-05
8.31229e-05
8.4268e-05
8.57964e-05
8.76702e-05
8.94621e-05
9.11588e-05
9.25396e-05
9.37662e-05
9.47515e-05
9.54411e-05
9.5989e-05
9.62365e-05
9.62119e-05
9.609e-05
9.576e-05
9.54689e-05
9.47878e-05
9.43042e-05
9.37611e-05
9.28689e-05
9.23683e-05
9.14871e-05
9.05033e-05
8.98875e-05
8.84367e-05
8.75506e-05
8.63735e-05
8.46549e-05
8.3675e-05
8.14839e-05
7.97901e-05
7.79357e-05
7.52412e-05
7.32167e-05
7.03732e-05
6.7469e-05
6.46818e-05
6.12185e-05
5.79432e-05
5.44962e-05
5.04986e-05
4.69279e-05
4.32517e-05
3.99572e-05
3.69096e-05
3.38967e-05
3.1189e-05
2.86691e-05
2.62047e-05
2.40026e-05
2.19568e-05
1.99522e-05
1.82239e-05
1.65698e-05
1.49894e-05
1.36499e-05
1.23398e-05
1.11417e-05
1.01133e-05
9.11249e-06
8.26396e-06
7.49638e-06
6.80845e-06
6.24914e-06
5.75125e-06
5.37796e-06
5.11185e-06
4.89165e-06
4.79336e-06
4.7535e-06
4.75791e-06
4.77757e-06
4.82407e-06
4.95815e-06
5.09093e-06
5.37654e-06
5.71131e-06
6.06664e-06
6.73514e-06
7.17803e-06
7.97867e-06
8.67445e-06
9.54935e-06
1.06692e-05
1.13973e-05
1.27765e-05
1.40306e-05
1.50528e-05
1.69346e-05
1.79685e-05
2.00852e-05
2.1511e-05
2.35373e-05
2.56074e-05
2.79462e-05
3.04797e-05
3.3421e-05
3.63975e-05
3.97162e-05
4.33117e-05
4.6136e-05
4.98072e-05
5.30072e-05
5.57913e-05
5.78784e-05
5.95629e-05
6.05828e-05
6.09468e-05
6.08977e-05
6.07084e-05
6.03212e-05
5.97677e-05
5.92732e-05
5.8565e-05
5.79951e-05
5.73101e-05
5.6702e-05
5.59451e-05
5.5379e-05
5.46213e-05
5.40318e-05
5.32552e-05
5.27233e-05
5.1972e-05
5.14356e-05
5.07319e-05
5.02064e-05
4.94456e-05
4.88682e-05
4.81779e-05
4.77543e-05
4.7166e-05
4.67362e-05
4.65046e-05
4.63796e-05
4.63206e-05
4.63465e-05
4.64123e-05
4.64932e-05
4.66637e-05
4.69019e-05
4.70514e-05
4.76407e-05
4.80544e-05
4.87151e-05
4.98858e-05
5.06472e-05
5.15478e-05
5.27091e-05
5.37305e-05
5.47797e-05
5.58468e-05
5.65797e-05
5.71566e-05
5.76385e-05
5.77974e-05
5.77873e-05
5.77023e-05
5.7533e-05
5.71422e-05
5.67561e-05
5.61277e-05
5.55586e-05
5.47767e-05
5.408e-05
5.31799e-05
5.24458e-05
5.15175e-05
5.0737e-05
4.98189e-05
4.89469e-05
4.79614e-05
4.69184e-05
4.59263e-05
4.47472e-05
4.36644e-05
4.24452e-05
4.11639e-05
3.97268e-05
3.87391e-05
3.68771e-05
3.55433e-05
3.42685e-05
3.36201e-05
3.26391e-05
3.20651e-05
3.16897e-05
3.15752e-05
3.14691e-05
3.15402e-05
3.18084e-05
3.26922e-05
3.33854e-05
3.36043e-05
3.35567e-05
3.23927e-05
2.98346e-05
2.71456e-05
2.49815e-05
2.34145e-05
2.27246e-05
2.25208e-05
2.23176e-05
2.1515e-05
2.12343e-05
2.12293e-05
2.12194e-05
2.10509e-05
2.08231e-05
2.07323e-05
2.0674e-05
2.06403e-05
2.06394e-05
2.06762e-05
2.10872e-05
2.16714e-05
2.1901e-05
2.1556e-05
1.96478e-05
1.7498e-05
1.60866e-05
1.55072e-05
1.54855e-05
1.57385e-05
1.68289e-05
1.80934e-05
1.93069e-05
1.98081e-05
2.01311e-05
2.0364e-05
2.18758e-05
2.67887e-05
4.30446e-05
5.76894e-05
6.51155e-05
6.9293e-05
7.15314e-05
7.22199e-05
7.22731e-05
7.191e-05
7.08367e-05
6.86704e-05
6.67634e-05
6.39363e-05
6.20344e-05
5.93229e-05
5.73522e-05
5.47481e-05
5.28252e-05
5.03927e-05
4.83895e-05
4.60553e-05
4.42265e-05
4.21237e-05
4.04937e-05
3.90027e-05
3.78854e-05
3.67758e-05
3.62125e-05
3.60656e-05
3.61782e-05
3.6446e-05
3.7281e-05
3.78862e-05
3.92276e-05
4.00653e-05
4.19848e-05
4.34676e-05
4.53976e-05
4.91733e-05
5.5152e-05
5.79374e-05
5.84703e-05
5.85238e-05
5.85989e-05
5.9492e-05
6.24908e-05
7.02706e-05
7.52655e-05
7.67857e-05
7.65007e-05
7.52471e-05
7.20104e-05
6.43245e-05
5.56559e-05
4.62915e-05
4.03093e-05
3.48875e-05
3.20458e-05
2.91022e-05
2.78702e-05
2.61624e-05
2.52287e-05
2.43802e-05
2.35746e-05
2.32652e-05
2.25592e-05
2.24778e-05
2.21087e-05
2.23447e-05
2.22154e-05
2.2647e-05
2.25474e-05
2.28854e-05
2.27198e-05
2.30339e-05
2.28955e-05
2.31992e-05
2.31522e-05
2.34618e-05
2.34851e-05
2.3722e-05
2.37717e-05
2.39137e-05
2.39797e-05
2.4005e-05
2.40208e-05
2.37892e-05
2.36259e-05
2.30291e-05
2.2693e-05
2.23736e-05
2.17852e-05
2.14489e-05
2.058e-05
2.03708e-05
2.00296e-05
2.02291e-05
2.02871e-05
2.10142e-05
2.12215e-05
2.19155e-05
2.20117e-05
2.2547e-05
2.27082e-05
2.3277e-05
2.34456e-05
2.39126e-05
2.40973e-05
2.46325e-05
2.49336e-05
2.57754e-05
2.62636e-05
2.73462e-05
2.77339e-05
2.86174e-05
2.90122e-05
3.01349e-05
3.08684e-05
3.19514e-05
3.49606e-05
3.66089e-05
4.166e-05
4.33844e-05
4.85381e-05
4.98099e-05
5.32487e-05
5.35416e-05
5.4817e-05
5.43732e-05
5.50285e-05
5.39692e-05
5.48046e-05
5.39098e-05
5.46833e-05
6.34524e-05
6.28028e-05
6.16846e-05
6.07815e-05
5.98604e-05
5.89948e-05
5.82095e-05
5.73732e-05
5.67505e-05
5.59493e-05
5.53572e-05
5.46071e-05
5.39005e-05
5.31953e-05
5.23586e-05
5.16412e-05
5.07703e-05
4.99783e-05
4.91777e-05
4.83267e-05
4.76321e-05
4.68191e-05
4.62174e-05
4.55543e-05
4.50471e-05
4.4596e-05
4.42337e-05
4.39955e-05
4.38549e-05
4.38777e-05
4.40004e-05
4.42467e-05
4.47113e-05
4.53857e-05
4.59213e-05
4.70683e-05
4.77755e-05
4.88786e-05
5.00918e-05
5.09234e-05
5.25416e-05
5.33569e-05
5.46339e-05
5.58625e-05
5.65565e-05
5.78202e-05
5.84055e-05
5.93422e-05
6.01609e-05
6.05041e-05
6.11416e-05