/*--------------------------------*- C++ -*----------------------------------*\
| =========                 |                                                 |
| \\      /  F ield         | OpenFOAM: The Open Source CFD Toolbox           |
|  \\    /   O peration     | Version:  2.4.0                                 |
|   \\  /    A nd           | Web:      www.OpenFOAM.org                      |
|    \\/     M anipulation  |                                                 |
\*---------------------------------------------------------------------------*/
FoamFile
{
    version     2.0;
    format      ascii;
    class       volVectorField;
    location    "0.154";
    object      UMean;
}
// * * * * * * * * * * * * * * * * * * * * * * * * * * * * * * * * * * * * * //

dimensions      [0 1 -1 0 0 0 0];

internalField   nonuniform List<vector> 
17600
(
(5.34505 0.307538 0)
(3.03855 0.0607573 0)
(2.26233 -0.00142806 0)
(1.91962 -0.00351397 0)
(1.78419 -0.00133936 0)
(1.69254 -0.000160012 0)
(1.62997 -3.07516e-05 0)
(1.5709 3.97972e-06 0)
(1.53917 -0.000177649 0)
(1.5016 1.79241e-06 0)
(1.48725 -0.00010205 0)
(1.45762 0.000120572 0)
(1.45018 -0.00010286 0)
(1.42457 0.000125447 0)
(1.42387 -0.00028099 0)
(1.40757 -6.98378e-05 0)
(1.41498 -0.000527444 0)
(1.42394 -0.000405642 0)
(1.45915 -0.00162429 0)
(1.45284 -0.0256511 0)
(8.59394 0.864873 0)
(6.99145 0.379187 0)
(5.88415 0.11958 0)
(5.14123 0.0496016 0)
(4.75409 0.0268508 0)
(4.4869 0.0191795 0)
(4.31455 0.0147173 0)
(4.15063 0.0112848 0)
(4.06185 0.00815776 0)
(3.95204 0.00667294 0)
(3.91122 0.00510809 0)
(3.82541 0.00506466 0)
(3.80614 0.0036503 0)
(3.73229 0.00404862 0)
(3.72932 0.0014528 0)
(3.67604 0.00234303 0)
(3.68724 -0.00224055 0)
(3.6897 -0.00315791 0)
(3.71597 -0.00633991 0)
(3.88117 -0.0835953 0)
(9.83632 1.01235 0)
(9.35969 0.569123 0)
(8.52779 0.236156 0)
(7.70623 0.126571 0)
(7.1825 0.0781932 0)
(6.79057 0.0542378 0)
(6.54048 0.0408163 0)
(6.29429 0.0311954 0)
(6.16319 0.0235122 0)
(5.99124 0.0188437 0)
(5.93048 0.0148835 0)
(5.7949 0.0136352 0)
(5.76838 0.0106763 0)
(5.65112 0.0105089 0)
(5.6488 0.00563474 0)
(5.55715 0.00609226 0)
(5.57742 -0.00241049 0)
(5.54383 -0.00409405 0)
(5.6007 -0.0213616 0)
(5.72101 -0.105619 0)
(10.1361 0.938163 0)
(10.5574 0.657522 0)
(10.282 0.322315 0)
(9.66908 0.204056 0)
(9.17764 0.141426 0)
(8.74278 0.101138 0)
(8.46431 0.0764255 0)
(8.16295 0.0584656 0)
(8.01045 0.044924 0)
(7.78925 0.0359242 0)
(7.71793 0.0286462 0)
(7.54 0.0259235 0)
(7.51154 0.0204316 0)
(7.35589 0.0203102 0)
(7.35807 0.0114012 0)
(7.22805 0.0135642 0)
(7.26368 -0.00288098 0)
(7.17719 -0.000739233 0)
(7.28228 -0.0412728 0)
(7.28677 -0.105992 0)
(10.0564 0.798134 0)
(10.8971 0.658277 0)
(11.1329 0.347521 0)
(10.8826 0.248439 0)
(10.6017 0.194658 0)
(10.2412 0.148461 0)
(10.0126 0.11548 0)
(9.70364 0.0894491 0)
(9.56449 0.0700691 0)
(9.31731 0.056114 0)
(9.2525 0.0455036 0)
(9.04568 0.0400961 0)
(9.02491 0.0330684 0)
(8.83924 0.0305276 0)
(8.85293 0.021168 0)
(8.69038 0.0185117 0)
(8.73839 0.00555417 0)
(8.62289 -0.007508 0)
(8.71651 -0.0335039 0)
(8.71041 -0.151821 0)
(9.97765 0.685222 0)
(10.8299 0.625712 0)
(11.3067 0.325232 0)
(11.335 0.244294 0)
(11.331 0.214742 0)
(11.1459 0.178537 0)
(11.0629 0.146275 0)
(10.8193 0.117272 0)
(10.7454 0.0941488 0)
(10.5127 0.0769669 0)
(10.4792 0.0625719 0)
(10.2695 0.0560012 0)
(10.2673 0.0451656 0)
(10.0729 0.0438861 0)
(10.0986 0.0277059 0)
(9.92617 0.0310005 0)
(9.97808 0.00213803 0)
(9.85291 0.00794298 0)
(9.93323 -0.0576397 0)
(9.90517 -0.137395 0)
(9.96846 0.596651 0)
(10.6999 0.593129 0)
(11.232 0.296654 0)
(11.3388 0.214642 0)
(11.4973 0.201854 0)
(11.4502 0.181083 0)
(11.5381 0.156564 0)
(11.4098 0.130261 0)
(11.4542 0.108474 0)
(11.2879 0.0911558 0)
(11.3239 0.0764727 0)
(11.1471 0.0683495 0)
(11.1877 0.0580804 0)
(11.0072 0.0532437 0)
(11.0613 0.0397057 0)
(10.8915 0.0347629 0)
(10.9639 0.0136884 0)
(10.8283 0.00140253 0)
(10.9209 -0.0516908 0)
(10.854 -0.135729 0)
(9.98735 0.518196 0)
(10.593 0.55739 0)
(11.1378 0.279079 0)
(11.2444 0.188088 0)
(11.45 0.179925 0)
(11.4341 0.169505 0)
(11.6049 0.150728 0)
(11.5514 0.128074 0)
(11.6906 0.107571 0)
(11.608 0.0938613 0)
(11.7226 0.0792485 0)
(11.6182 0.0743417 0)
(11.7139 0.0620744 0)
(11.5913 0.0614152 0)
(11.6773 0.0419541 0)
(11.5518 0.0446277 0)
(11.6394 0.0102155 0)
(11.5313 0.0116773 0)
(11.6261 -0.0655081 0)
(11.5442 -0.10815 0)
(10.0071 0.448272 0)
(10.5121 0.513878 0)
(11.0536 0.265828 0)
(11.1702 0.165589 0)
(11.379 0.158368 0)
(11.3688 0.155636 0)
(11.5409 0.140091 0)
(11.5182 0.120008 0)
(11.6704 0.099017 0)
(11.6432 0.0877534 0)
(11.7792 0.0736227 0)
(11.7452 0.0709127 0)
(11.8642 0.0594151 0)
(11.8193 0.0600013 0)
(11.922 0.0409163 0)
(11.8726 0.0440735 0)
(11.9657 0.00837296 0)
(11.9232 0.0106818 0)
(12.0079 -0.0766522 0)
(11.9528 -0.107084 0)
(10.0087 0.385667 0)
(10.4614 0.467192 0)
(10.9649 0.253864 0)
(11.1262 0.144605 0)
(11.3052 0.137881 0)
(11.3294 0.14172 0)
(11.4604 0.128868 0)
(11.478 0.11144 0)
(11.5915 0.089169 0)
(11.6118 0.079776 0)
(11.7131 0.0654043 0)
(11.7354 0.0640636 0)
(11.8231 0.0529901 0)
(11.8444 0.053734 0)
(11.9198 0.0361274 0)
(11.9431 0.0361898 0)
(12.0113 0.0061987 0)
(12.0397 -0.0077794 0)
(12.0957 -0.0741821 0)
(12.0808 -0.168501 0)
(9.99185 0.328074 0)
(10.4293 0.421403 0)
(10.8784 0.241501 0)
(11.0944 0.126001 0)
(11.2364 0.117638 0)
(11.3031 0.128867 0)
(11.389 0.116787 0)
(11.4457 0.103885 0)
(11.5218 0.0790857 0)
(11.5759 0.0729821 0)
(11.6464 0.0564095 0)
(11.7 0.0584874 0)
(11.7596 0.0449159 0)
(11.8107 0.0484039 0)
(11.864 0.0279444 0)
(11.913 0.030779 0)
(11.9667 -0.00393702 0)
(12.0155 -0.0162619 0)
(12.0582 -0.0920726 0)
(12.0435 -0.200936 0)
(9.97879 0.277532 0)
(10.3928 0.374557 0)
(10.8111 0.229131 0)
(11.0519 0.107618 0)
(11.1877 0.0994204 0)
(11.2672 0.114413 0)
(11.339 0.105821 0)
(11.4046 0.0941861 0)
(11.4732 0.0709555 0)
(11.5318 0.0643706 0)
(11.6008 0.0499743 0)
(11.6542 0.0507817 0)
(11.7149 0.0402097 0)
(11.7637 0.0399109 0)
(11.8192 0.0240438 0)
(11.8635 0.0194285 0)
(11.9216 -0.0082709 0)
(11.9617 -0.0340522 0)
(12.0057 -0.103675 0)
(11.9706 -0.224898 0)
(9.97593 0.232624 0)
(10.3541 0.328194 0)
(10.7575 0.212443 0)
(11.0049 0.0920489 0)
(11.1516 0.0818018 0)
(11.2269 0.100563 0)
(11.301 0.0935456 0)
(11.3617 0.0845196 0)
(11.433 0.0620642 0)
(11.4899 0.0563019 0)
(11.5612 0.042836 0)
(11.6114 0.0439068 0)
(11.6758 0.0340705 0)
(11.7208 0.0330769 0)
(11.7785 0.0180891 0)
(11.8197 0.0112893 0)
(11.8784 -0.0158989 0)
(11.9137 -0.0479313 0)
(11.9548 -0.115748 0)
(11.9058 -0.242158 0)
(9.97447 0.192887 0)
(10.3241 0.282539 0)
(10.7078 0.190394 0)
(10.9664 0.0786816 0)
(11.116 0.067693 0)
(11.1957 0.0861614 0)
(11.264 0.0822427 0)
(11.3274 0.0736594 0)
(11.3933 0.0543632 0)
(11.4578 0.0473594 0)
(11.5211 0.0371953 0)
(11.5798 0.0358647 0)
(11.6362 0.0294421 0)
(11.6891 0.0247367 0)
(11.7381 0.0132916 0)
(11.788 0.00151863 0)
(11.8355 -0.023208 0)
(11.8787 -0.0604932 0)
(11.9044 -0.127907 0)
(11.8582 -0.253663 0)
(9.972 0.156035 0)
(10.3011 0.239247 0)
(10.6646 0.162593 0)
(10.9357 0.0681087 0)
(11.0845 0.0543476 0)
(11.1731 0.073074 0)
(11.2319 0.0695118 0)
(11.3003 0.0636256 0)
(11.3611 0.0452278 0)
(11.4315 0.0400337 0)
(11.4897 0.0300727 0)
(11.5548 0.0294898 0)
(11.6051 0.0226415 0)
(11.6633 0.0185884 0)
(11.7074 0.00602746 0)
(11.7612 -0.00584875 0)
(11.803 -0.0322358 0)
(11.8487 -0.0712682 0)
(11.8634 -0.138966 0)
(11.818 -0.26482 0)
(9.97292 0.123238 0)
(10.2784 0.195246 0)
(10.6339 0.133801 0)
(10.9056 0.0566852 0)
(11.0643 0.0428708 0)
(11.1506 0.0586274 0)
(11.2113 0.0576854 0)
(11.2743 0.0514766 0)
(11.3411 0.0375389 0)
(11.4053 0.0309404 0)
(11.4711 0.0249171 0)
(11.5294 0.0209442 0)
(11.5858 0.0182929 0)
(11.6374 0.0094009 0)
(11.6882 0.00176949 0)
(11.7339 -0.0169166 0)
(11.7815 -0.0373 0)
(11.8172 -0.086052 0)
(11.8339 -0.143004 0)
(11.7764 -0.278725 0)
(9.97619 0.0933894 0)
(10.2581 0.151256 0)
(10.612 0.104418 0)
(10.8791 0.0452011 0)
(11.0507 0.031893 0)
(11.1302 0.0450091 0)
(11.1965 0.044864 0)
(11.2528 0.0400009 0)
(11.3246 0.0287286 0)
(11.3836 0.0234338 0)
(11.4558 0.0181109 0)
(11.5079 0.0147782 0)
(11.5696 0.0115057 0)
(11.6159 0.00369568 0)
(11.6708 -0.00619078 0)
(11.7108 -0.0222511 0)
(11.7616 -0.0487328 0)
(11.7897 -0.0910424 0)
(11.8072 -0.157466 0)
(11.7377 -0.265176 0)
(9.97629 0.0648374 0)
(10.2463 0.108207 0)
(10.592 0.0743724 0)
(10.8624 0.0337446 0)
(11.036 0.0213498 0)
(11.118 0.0323786 0)
(11.181 0.0314093 0)
(11.2394 0.0289962 0)
(11.3062 0.0198255 0)
(11.3713 0.0161696 0)
(11.4382 0.0114233 0)
(11.4949 0.00839831 0)
(11.5521 0.00476254 0)
(11.6025 -0.00276985 0)
(11.6517 -0.0133598 0)
(11.6961 -0.0290131 0)
(11.7402 -0.0579819 0)
(11.771 -0.09754 0)
(11.7804 -0.169504 0)
(11.7116 -0.253342 0)
(9.97392 0.0391496 0)
(10.2411 0.0638211 0)
(10.5764 0.0457027 0)
(10.854 0.0196061 0)
(11.0238 0.0133972 0)
(11.1122 0.0180095 0)
(11.1695 0.0196972 0)
(11.231 0.0158752 0)
(11.2938 0.0126828 0)
(11.364 0.00686409 0)
(11.4256 0.0068997 0)
(11.4874 -0.000212202 0)
(11.5398 0.000362267 0)
(11.5939 -0.0117902 0)
(11.6384 -0.0176437 0)
(11.6866 -0.0396689 0)
(11.7244 -0.0620802 0)
(11.7581 -0.110123 0)
(11.7592 -0.171189 0)
(11.6919 -0.26784 0)
(9.97448 0.0125102 0)
(10.2363 0.0218336 0)
(10.5713 0.0146168 0)
(10.8477 0.00725743 0)
(11.02 0.00342665 0)
(11.108 0.00677867 0)
(11.1662 0.00480629 0)
(11.2251 0.00608154 0)
(11.2915 0.00166534 0)
(11.3581 0.00183787 0)
(11.4228 -0.00215056 0)
(11.4819 -0.00369372 0)
(11.5368 -0.00937759 0)
(11.5875 -0.0147184 0)
(11.6348 -0.0282742 0)
(11.6786 -0.0428876 0)
(11.7181 -0.0734658 0)
(11.7466 -0.114552 0)
(11.748 -0.178885 0)
(11.6749 -0.282134 0)
(9.97644 -0.0118982 0)
(10.2341 -0.0224067 0)
(10.5739 -0.014282 0)
(10.8453 -0.00801358 0)
(11.0225 -0.0034914 0)
(11.1064 -0.00767547 0)
(11.1677 -0.00647436 0)
(11.2244 -0.00784514 0)
(11.2934 -0.00484872 0)
(11.3568 -0.00812903 0)
(11.4245 -0.00574397 0)
(11.4807 -0.013474 0)
(11.5383 -0.0122223 0)
(11.5854 -0.0254287 0)
(11.6354 -0.0303629 0)
(11.6749 -0.055282 0)
(11.7164 -0.0748823 0)
(11.7398 -0.128973 0)
(11.7408 -0.17508 0)
(11.663 -0.300414 0)
(9.97606 -0.0381371 0)
(10.2387 -0.0649116 0)
(10.5797 -0.0447924 0)
(10.851 -0.0209141 0)
(11.0271 -0.0128492 0)
(11.1102 -0.0195243 0)
(11.1722 -0.0205869 0)
(11.2295 -0.0186459 0)
(11.2976 -0.0147159 0)
(11.3614 -0.0142171 0)
(11.4286 -0.0137278 0)
(11.4851 -0.0180945 0)
(11.542 -0.0209868 0)
(11.589 -0.0291575 0)
(11.6382 -0.0404297 0)
(11.6767 -0.0580051 0)
(11.7172 -0.0875048 0)
(11.7387 -0.128549 0)
(11.7362 -0.1897 0)
(11.6553 -0.26962 0)
(9.97511 -0.0645434 0)
(10.2478 -0.108444 0)
(10.591 -0.0743058 0)
(10.8636 -0.0340325 0)
(11.0349 -0.0219143 0)
(11.1189 -0.0327267 0)
(11.1807 -0.0335296 0)
(11.2393 -0.0304737 0)
(11.3062 -0.0234551 0)
(11.3707 -0.0215054 0)
(11.4369 -0.0204687 0)
(11.4939 -0.0239183 0)
(11.5494 -0.0281546 0)
(11.5972 -0.0343969 0)
(11.6443 -0.0486515 0)
(11.6834 -0.062413 0)
(11.7214 -0.0979766 0)
(11.7418 -0.129644 0)
(11.7382 -0.202493 0)
(11.6571 -0.23928 0)
(9.97489 -0.0922708 0)
(10.26 -0.152504 0)
(10.6098 -0.103334 0)
(10.8809 -0.0467323 0)
(11.0478 -0.0312307 0)
(11.1317 -0.0470116 0)
(11.1939 -0.0452055 0)
(11.2538 -0.0434558 0)
(11.3198 -0.0304647 0)
(11.385 -0.0310081 0)
(11.4498 -0.0246025 0)
(11.5071 -0.0331252 0)
(11.5617 -0.031165 0)
(11.6096 -0.0447195 0)
(11.6554 -0.0502186 0)
(11.6947 -0.0748928 0)
(11.7301 -0.0977129 0)
(11.75 -0.144749 0)
(11.7454 -0.195949 0)
(11.6609 -0.25754 0)
(9.97398 -0.123081 0)
(10.2773 -0.195381 0)
(10.6351 -0.133748 0)
(10.9044 -0.0569911 0)
(11.0651 -0.0433486 0)
(11.1492 -0.0593291 0)
(11.2117 -0.0593188 0)
(11.2735 -0.0534852 0)
(11.3385 -0.0407235 0)
(11.4044 -0.0369444 0)
(11.4673 -0.0329468 0)
(11.5257 -0.0376078 0)
(11.5787 -0.03953 0)
(11.6271 -0.0487476 0)
(11.6716 -0.0588234 0)
(11.7107 -0.0791355 0)
(11.7438 -0.106247 0)
(11.7637 -0.150073 0)
(11.7572 -0.201017 0)
(11.6708 -0.267382 0)
(9.97349 -0.155212 0)
(10.2991 -0.240085 0)
(10.6675 -0.161934 0)
(10.9333 -0.0689566 0)
(11.0873 -0.0540603 0)
(11.171 -0.0743436 0)
(11.2351 -0.0704985 0)
(11.298 -0.0661674 0)
(11.3631 -0.0479199 0)
(11.4281 -0.0462589 0)
(11.4907 -0.037951 0)
(11.5485 -0.0456776 0)
(11.6014 -0.0440379 0)
(11.6493 -0.0564587 0)
(11.6934 -0.063571 0)
(11.731 -0.0864556 0)
(11.7634 -0.111964 0)
(11.7818 -0.156857 0)
(11.7748 -0.20793 0)
(11.6868 -0.269721 0)
(9.97361 -0.192307 0)
(10.3257 -0.28322 0)
(10.707 -0.189941 0)
(10.968 -0.0794857 0)
(11.1146 -0.0674007 0)
(11.1979 -0.0876208 0)
(11.2639 -0.0829526 0)
(11.328 -0.076595 0)
(11.393 -0.0566716 0)
(11.4573 -0.0539663 0)
(11.5195 -0.0444945 0)
(11.5764 -0.0523789 0)
(11.6295 -0.0495013 0)
(11.6765 -0.0632737 0)
(11.7205 -0.0685023 0)
(11.7564 -0.0935191 0)
(11.7884 -0.117072 0)
(11.8047 -0.164323 0)
(11.7984 -0.214579 0)
(11.7094 -0.271643 0)
(9.97639 -0.232245 0)
(10.3569 -0.328476 0)
(10.7545 -0.212469 0)
(11.0088 -0.0924968 0)
(11.148 -0.0818687 0)
(11.2305 -0.101814 0)
(11.2986 -0.0945893 0)
(11.364 -0.0871438 0)
(11.4285 -0.0650306 0)
(11.4926 -0.0621888 0)
(11.5533 -0.0508839 0)
(11.6107 -0.0593801 0)
(11.6626 -0.0546337 0)
(11.7099 -0.0701987 0)
(11.7523 -0.0729386 0)
(11.7881 -0.100596 0)
(11.818 -0.121268 0)
(11.834 -0.172341 0)
(11.8267 -0.220314 0)
(11.7407 -0.277047 0)
(9.98798 -0.277298 0)
(10.3878 -0.374795 0)
(10.8147 -0.228946 0)
(11.049 -0.108307 0)
(11.1912 -0.0989651 0)
(11.2637 -0.116095 0)
(11.3423 -0.106429 0)
(11.4012 -0.0970393 0)
(11.472 -0.0738223 0)
(11.5296 -0.0702742 0)
(11.5949 -0.0578572 0)
(11.6473 -0.0661027 0)
(11.7028 -0.0601052 0)
(11.7463 -0.0768333 0)
(11.7908 -0.0772767 0)
(11.8233 -0.107489 0)
(11.8539 -0.124673 0)
(11.8674 -0.180551 0)
(11.8602 -0.224873 0)
(11.7772 -0.287904 0)
(10.0075 -0.328338 0)
(10.4155 -0.421084 0)
(10.8911 -0.24171 0)
(11.0824 -0.126155 0)
(11.2485 -0.117745 0)
(11.2914 -0.129811 0)
(11.4002 -0.118196 0)
(11.4336 -0.105671 0)
(11.5294 -0.083084 0)
(11.5629 -0.0775626 0)
(11.6503 -0.0655341 0)
(11.681 -0.0720024 0)
(11.7566 -0.0662348 0)
(11.7805 -0.0825613 0)
(11.8422 -0.0820007 0)
(11.8569 -0.113438 0)
(11.8997 -0.127557 0)
(11.8968 -0.188027 0)
(11.8936 -0.227238 0)
(11.7984 -0.30403 0)
(10.02 -0.38562 0)
(10.4494 -0.467206 0)
(10.9775 -0.253805 0)
(11.1149 -0.145178 0)
(11.317 -0.137684 0)
(11.3183 -0.143041 0)
(11.4719 -0.129819 0)
(11.4643 -0.113535 0)
(11.6027 -0.0929504 0)
(11.5939 -0.0844381 0)
(11.7227 -0.0741375 0)
(11.7107 -0.0774456 0)
(11.8255 -0.0733839 0)
(11.8058 -0.0874381 0)
(11.9016 -0.0875326 0)
(11.8697 -0.117704 0)
(11.9363 -0.130143 0)
(11.8794 -0.192532 0)
(11.8787 -0.226213 0)
(11.7228 -0.319273 0)
(10.0119 -0.44843 0)
(10.5067 -0.513644 0)
(11.0603 -0.26606 0)
(11.1652 -0.16585 0)
(11.3845 -0.158417 0)
(11.3635 -0.156651 0)
(11.5463 -0.14108 0)
(11.5099 -0.12185 0)
(11.6767 -0.102918 0)
(11.6297 -0.0918989 0)
(11.7841 -0.082622 0)
(11.7235 -0.0830539 0)
(11.8589 -0.0798807 0)
(11.7786 -0.0913572 0)
(11.8861 -0.0910951 0)
(11.7802 -0.119395 0)
(11.8455 -0.128167 0)
(11.6972 -0.192135 0)
(11.6738 -0.214357 0)
(11.4108 -0.326919 0)
(9.99015 -0.518211 0)
(10.5902 -0.557228 0)
(11.141 -0.279275 0)
(11.2423 -0.188303 0)
(11.4517 -0.179942 0)
(11.4323 -0.170421 0)
(11.6057 -0.151669 0)
(11.5479 -0.129728 0)
(11.691 -0.111529 0)
(11.5985 -0.097341 0)
(11.7196 -0.0883632 0)
(11.5963 -0.0847089 0)
(11.6949 -0.0826451 0)
(11.5408 -0.0887217 0)
(11.6119 -0.0907325 0)
(11.4269 -0.110999 0)
(11.4549 -0.123777 0)
(11.2225 -0.174335 0)
(11.1517 -0.204453 0)
(10.809 -0.29223 0)
(9.96999 -0.596738 0)
(10.6978 -0.592914 0)
(11.234 -0.296865 0)
(11.3374 -0.214882 0)
(11.498 -0.20184 0)
(11.4495 -0.18207 0)
(11.5371 -0.157251 0)
(11.4078 -0.132114 0)
(11.4505 -0.111619 0)
(11.2786 -0.0948286 0)
(11.3138 -0.084088 0)
(11.1204 -0.0784447 0)
(11.1557 -0.0753297 0)
(10.9414 -0.0793235 0)
(10.9696 -0.0805205 0)
(10.7296 -0.0976582 0)
(10.7273 -0.108784 0)
(10.4363 -0.152757 0)
(10.3389 -0.179659 0)
(9.93618 -0.249231 0)
(9.97825 -0.68527 0)
(10.8287 -0.625486 0)
(11.3081 -0.325525 0)
(11.3338 -0.2445 0)
(11.3317 -0.214874 0)
(11.1447 -0.179304 0)
(11.0611 -0.146983 0)
(10.8167 -0.118779 0)
(10.7393 -0.0970049 0)
(10.5013 -0.0799218 0)
(10.4646 -0.0695309 0)
(10.2363 -0.0639773 0)
(10.2278 -0.0613397 0)
(9.99144 -0.064388 0)
(9.991 -0.0658946 0)
(9.73103 -0.0799192 0)
(9.70714 -0.0900572 0)
(9.39032 -0.126361 0)
(9.27352 -0.147896 0)
(8.83733 -0.205711 0)
(10.0566 -0.798135 0)
(10.8965 -0.658166 0)
(11.1341 -0.347782 0)
(10.8813 -0.248602 0)
(10.6021 -0.194777 0)
(10.2394 -0.149054 0)
(10.0102 -0.116041 0)
(9.70041 -0.0907476 0)
(9.55614 -0.0722465 0)
(9.30518 -0.0587556 0)
(9.23355 -0.0507592 0)
(9.00988 -0.0470475 0)
(8.97812 -0.045304 0)
(8.75021 -0.0481454 0)
(8.73125 -0.0497303 0)
(8.47791 -0.0607585 0)
(8.43753 -0.0698129 0)
(8.12169 -0.096182 0)
(7.98933 -0.117959 0)
(7.5571 -0.144668 0)
(10.1361 -0.938165 0)
(10.5572 -0.657456 0)
(10.2827 -0.322509 0)
(9.66791 -0.20416 0)
(9.17771 -0.141532 0)
(8.74075 -0.101547 0)
(8.46185 -0.0768967 0)
(8.15908 -0.0594021 0)
(8.00118 -0.0465408 0)
(7.77665 -0.0378584 0)
(7.6969 -0.032602 0)
(7.50313 -0.030835 0)
(7.46174 -0.0298049 0)
(7.26291 -0.0324705 0)
(7.23245 -0.033659 0)
(7.00595 -0.0420401 0)
(6.95452 -0.0486066 0)
(6.66025 -0.0673498 0)
(6.52737 -0.083581 0)
(6.10396 -0.096989 0)
(9.8363 -1.01235 0)
(9.35969 -0.569097 0)
(8.5282 -0.23628 0)
(7.70517 -0.126638 0)
(7.18239 -0.0782569 0)
(6.7886 -0.0544909 0)
(6.53817 -0.0411575 0)
(6.29001 -0.0317657 0)
(6.15452 -0.0245367 0)
(5.97863 -0.0201094 0)
(5.90983 -0.017268 0)
(5.75984 -0.0169646 0)
(5.71928 -0.0164 0)
(5.56274 -0.0186166 0)
(5.52749 -0.0192094 0)
(5.34367 -0.0249024 0)
(5.28697 -0.0286952 0)
(5.03673 -0.0405245 0)
(4.91198 -0.0505817 0)
(4.52398 -0.0579665 0)
(8.59393 -0.864872 0)
(6.9915 -0.379183 0)
(5.8843 -0.119636 0)
(5.14041 -0.0496342 0)
(4.7539 -0.0268817 0)
(4.48518 -0.0193022 0)
(4.31256 -0.0148965 0)
(4.14669 -0.0115366 0)
(4.05493 -0.00865912 0)
(3.94112 -0.007277 0)
(3.89402 -0.00624508 0)
(3.79642 -0.00663078 0)
(3.76442 -0.00636087 0)
(3.65967 -0.00777826 0)
(3.62721 -0.00787449 0)
(3.49981 -0.0109069 0)
(3.44713 -0.0123328 0)
(3.26549 -0.018245 0)
(3.15851 -0.0224368 0)
(2.85911 -0.0267079 0)
(5.34504 -0.307538 0)
(3.03857 -0.0607588 0)
(2.26233 0.00142141 0)
(1.91918 0.00351004 0)
(1.78399 0.00134146 0)
(1.6917 0.000142568 0)
(1.6288 2.45502e-06 0)
(1.5687 -2.45572e-05 0)
(1.53557 0.000109665 0)
(1.49566 -6.15334e-05 0)
(1.47815 -1.60173e-05 0)
(1.4424 -0.00030831 0)
(1.42762 -0.000170469 0)
(1.3869 -0.00056605 0)
(1.36897 -0.000353707 0)
(1.31649 -0.00098426 0)
(1.2862 -0.000810376 0)
(1.20653 -0.00186077 0)
(1.14567 -0.00208753 0)
(1.01153 0.0027681 0)
(2.08689 -0.165932 0)
(2.60954 -0.0809763 0)
(3.17353 -0.116242 0)
(3.67052 -0.182858 0)
(4.11037 -0.269365 0)
(4.54883 -0.366519 0)
(4.96698 -0.440944 0)
(5.41899 -0.564772 0)
(5.87973 -0.667565 0)
(6.25757 -0.762451 0)
(6.63093 -0.85782 0)
(6.87474 -0.952046 0)
(7.12813 -1.01238 0)
(7.329 -1.02363 0)
(7.54429 -1.01526 0)
(7.72342 -1.00663 0)
(7.90573 -1.04483 0)
(8.0503 -1.12785 0)
(8.16737 -1.23304 0)
(8.30354 -1.34327 0)
(8.41064 -1.44753 0)
(8.54018 -1.54533 0)
(8.71996 -1.65612 0)
(8.86992 -1.7757 0)
(9.03325 -1.90909 0)
(9.16104 -2.03814 0)
(9.25259 -2.15091 0)
(9.30903 -2.26182 0)
(9.32597 -2.3568 0)
(9.34482 -2.44659 0)
(9.34903 -2.52678 0)
(9.34715 -2.60267 0)
(9.33564 -2.66877 0)
(9.29632 -2.73028 0)
(9.23491 -2.78508 0)
(9.13375 -2.83673 0)
(9.02399 -2.88679 0)
(8.92537 -2.92159 0)
(8.87631 -2.93383 0)
(8.86226 -2.9272 0)
(8.84628 -2.91434 0)
(8.81643 -2.88089 0)
(8.77236 -2.83763 0)
(8.72744 -2.79132 0)
(8.68636 -2.71771 0)
(8.6513 -2.64107 0)
(8.61452 -2.55478 0)
(8.57011 -2.46535 0)
(8.46616 -2.33791 0)
(8.34911 -2.18993 0)
(8.26732 -2.06424 0)
(8.19315 -1.92746 0)
(8.13811 -1.80032 0)
(8.10142 -1.68312 0)
(8.07021 -1.56209 0)
(8.04081 -1.45333 0)
(8.03206 -1.34972 0)
(7.98435 -1.22121 0)
(7.94034 -1.07989 0)
(7.85929 -0.936238 0)
(7.76049 -0.760994 0)
(7.62551 -0.578057 0)
(7.49404 -0.412127 0)
(7.37828 -0.266144 0)
(7.25792 -0.146464 0)
(7.14046 -0.0506069 0)
(7.02884 0.0300489 0)
(6.94069 0.092636 0)
(6.84429 0.136304 0)
(6.76238 0.181106 0)
(6.69912 0.224634 0)
(6.63928 0.254514 0)
(6.59948 0.272564 0)
(6.5569 0.279383 0)
(6.51981 0.281549 0)
(6.49888 0.308642 0)
(6.47601 0.342333 0)
(6.46116 0.378183 0)
(6.43699 0.424204 0)
(6.44525 0.469914 0)
(6.42415 0.511608 0)
(6.41487 0.543268 0)
(6.41532 0.573156 0)
(6.40631 0.585049 0)
(6.40302 0.581822 0)
(6.38582 0.575241 0)
(6.3522 0.576525 0)
(6.31921 0.577604 0)
(6.28162 0.556727 0)
(6.26264 0.550234 0)
(6.22033 0.539017 0)
(6.21811 0.521477 0)
(6.20714 0.502739 0)
(6.19296 0.494353 0)
(6.19862 0.4675 0)
(6.19971 0.445984 0)
(6.22128 0.420591 0)
(6.21545 0.404751 0)
(6.26818 0.370097 0)
(6.25517 0.340333 0)
(6.30476 0.296409 0)
(6.26055 0.283491 0)
(6.31458 0.234096 0)
(6.27293 0.234842 0)
(6.33856 0.188834 0)
(6.27094 0.225097 0)
(6.36085 0.17814 0)
(6.27911 0.220529 0)
(6.39815 0.188324 0)
(6.27867 0.244383 0)
(6.39966 0.199841 0)
(6.25942 0.24075 0)
(6.38286 0.193862 0)
(6.23306 0.245704 0)
(6.37309 0.184088 0)
(6.18331 0.23701 0)
(6.36038 0.17763 0)
(6.1245 0.235523 0)
(6.31489 0.181304 0)
(6.09659 0.259775 0)
(6.26576 0.206752 0)
(6.09683 0.304517 0)
(6.21447 0.246827 0)
(6.09676 0.382277 0)
(6.18275 0.319582 0)
(6.07113 0.477194 0)
(6.16963 0.37137 0)
(6.05047 0.52374 0)
(6.16527 0.389726 0)
(6.06963 0.550467 0)
(6.15168 0.409663 0)
(6.1385 0.583648 0)
(6.13811 0.43857 0)
(6.21262 0.602546 0)
(6.14415 0.452677 0)
(6.29824 0.610859 0)
(6.14432 0.451277 0)
(6.38298 0.590257 0)
(6.14769 0.433227 0)
(6.44046 0.552125 0)
(6.19512 0.398496 0)
(6.44733 0.517134 0)
(6.2707 0.355862 0)
(6.45533 0.468045 0)
(6.30826 0.314818 0)
(6.48635 0.397541 0)
(6.33619 0.276613 0)
(6.49739 0.329777 0)
(6.39065 0.234144 0)
(6.50003 0.266932 0)
(6.43587 0.1966 0)
(6.51816 0.215997 0)
(6.4754 0.162578 0)
(6.53514 0.172797 0)
(6.50584 0.129085 0)
(6.54316 0.128369 0)
(6.5189 0.0879199 0)
(6.54018 0.0850807 0)
(6.51405 0.0446006 0)
(6.51632 0.0493165 0)
(6.49474 0.00952975 0)
(6.48525 0.0214315 0)
(6.46139 -0.0146576 0)
(6.42937 0.00837511 0)
(6.40638 -0.0119378 0)
(6.35159 0.0267891 0)
(6.35204 0.0176889 0)
(6.27951 0.07304 0)
(6.30861 0.0735017 0)
(6.22228 0.149732 0)
(6.26206 0.165667 0)
(6.17573 0.257165 0)
(6.22001 0.278407 0)
(6.15402 0.381627 0)
(6.17755 0.40982 0)
(6.14335 0.528164 0)
(6.15057 0.556114 0)
(6.13884 0.68815 0)
(6.12748 0.733643 0)
(6.11594 0.890673 0)
(6.11459 0.956693 0)
(6.08075 1.1299 0)
(6.11142 1.2116 0)
(6.03843 1.40425 0)
(6.10482 1.4929 0)
(6.00168 1.71849 0)
(6.07225 1.8087 0)
(5.97903 2.08081 0)
(6.01573 2.18614 0)
(5.93786 2.49882 0)
(5.94586 2.653 0)
(5.86391 3.00653 0)
(5.83096 3.26397 0)
(5.67047 3.68208 0)
(5.6879 4.05871 0)
(5.62795 4.60545 0)
(5.51324 5.19469 0)
(5.23771 6.24014 0)
(5.69083 7.17986 0)
(3.18214 10.3512 0)
(4.03683 -0.210513 0)
(4.22594 -0.211049 0)
(4.55095 -0.280644 0)
(4.90372 -0.354192 0)
(5.24897 -0.433681 0)
(5.60675 -0.528032 0)
(5.91446 -0.606966 0)
(6.2251 -0.721098 0)
(6.52238 -0.825956 0)
(6.76776 -0.913978 0)
(7.05629 -1.0002 0)
(7.28083 -1.07024 0)
(7.4698 -1.12041 0)
(7.65551 -1.12476 0)
(7.85118 -1.1131 0)
(8.0519 -1.10059 0)
(8.23527 -1.11373 0)
(8.39016 -1.17937 0)
(8.51549 -1.27734 0)
(8.63777 -1.39295 0)
(8.75265 -1.49881 0)
(8.90236 -1.60127 0)
(9.08059 -1.71713 0)
(9.24278 -1.83473 0)
(9.37252 -1.95643 0)
(9.46838 -2.07726 0)
(9.53055 -2.18056 0)
(9.57844 -2.28188 0)
(9.60012 -2.36979 0)
(9.62014 -2.45122 0)
(9.61737 -2.525 0)
(9.60107 -2.59597 0)
(9.56921 -2.65477 0)
(9.51858 -2.70872 0)
(9.4474 -2.74977 0)
(9.3387 -2.78904 0)
(9.22874 -2.83945 0)
(9.12795 -2.88907 0)
(9.06966 -2.91739 0)
(9.04318 -2.91706 0)
(8.99518 -2.9017 0)
(8.93747 -2.86091 0)
(8.86822 -2.81467 0)
(8.80718 -2.76823 0)
(8.7524 -2.70013 0)
(8.69465 -2.62515 0)
(8.64469 -2.53267 0)
(8.5736 -2.42943 0)
(8.44388 -2.28841 0)
(8.32292 -2.14664 0)
(8.23513 -2.02844 0)
(8.15261 -1.90048 0)
(8.09394 -1.78419 0)
(8.04861 -1.66767 0)
(8.00887 -1.54795 0)
(7.97626 -1.44246 0)
(7.95673 -1.33596 0)
(7.89465 -1.19889 0)
(7.83724 -1.04948 0)
(7.73983 -0.89391 0)
(7.6327 -0.708106 0)
(7.49545 -0.526268 0)
(7.37476 -0.362167 0)
(7.27008 -0.217883 0)
(7.16096 -0.10036 0)
(7.05191 -0.00640695 0)
(6.94544 0.0732355 0)
(6.8569 0.132083 0)
(6.76054 0.173751 0)
(6.67621 0.214078 0)
(6.61342 0.250764 0)
(6.55628 0.274915 0)
(6.51987 0.288121 0)
(6.48079 0.294644 0)
(6.44256 0.295134 0)
(6.4165 0.320367 0)
(6.39251 0.354309 0)
(6.37661 0.386374 0)
(6.34717 0.429086 0)
(6.35051 0.474216 0)
(6.32914 0.518183 0)
(6.31227 0.547368 0)
(6.31315 0.572879 0)
(6.30992 0.586452 0)
(6.30782 0.586549 0)
(6.29552 0.585552 0)
(6.25993 0.59119 0)
(6.22848 0.592914 0)
(6.19405 0.5704 0)
(6.17163 0.565882 0)
(6.13251 0.545968 0)
(6.12973 0.526195 0)
(6.11729 0.507197 0)
(6.1049 0.497645 0)
(6.10793 0.464908 0)
(6.11268 0.443933 0)
(6.1317 0.416541 0)
(6.13417 0.398173 0)
(6.19108 0.357272 0)
(6.18733 0.335759 0)
(6.24058 0.292011 0)
(6.20372 0.285578 0)
(6.26456 0.22857 0)
(6.21879 0.234402 0)
(6.29215 0.188054 0)
(6.21367 0.225007 0)
(6.31607 0.173057 0)
(6.21828 0.217179 0)
(6.35232 0.18536 0)
(6.22163 0.248518 0)
(6.35878 0.198261 0)
(6.21298 0.250527 0)
(6.35006 0.195688 0)
(6.17994 0.252231 0)
(6.35617 0.189428 0)
(6.13342 0.246633 0)
(6.34667 0.187217 0)
(6.08155 0.245942 0)
(6.29997 0.189715 0)
(6.05986 0.267886 0)
(6.24852 0.2117 0)
(6.0591 0.310399 0)
(6.20421 0.254739 0)
(6.04436 0.384867 0)
(6.17813 0.328341 0)
(6.01657 0.476493 0)
(6.17463 0.376134 0)
(5.99903 0.520813 0)
(6.17524 0.391252 0)
(6.00535 0.545317 0)
(6.16611 0.406607 0)
(6.06037 0.571936 0)
(6.16742 0.437037 0)
(6.12744 0.58574 0)
(6.19121 0.447957 0)
(6.2038 0.597179 0)
(6.21022 0.444574 0)
(6.29393 0.580461 0)
(6.21243 0.426472 0)
(6.37281 0.540974 0)
(6.23527 0.395093 0)
(6.40008 0.502112 0)
(6.30625 0.349985 0)
(6.40116 0.461974 0)
(6.36458 0.302696 0)
(6.43171 0.397024 0)
(6.39938 0.265661 0)
(6.4571 0.32617 0)
(6.45167 0.22605 0)
(6.45865 0.265144 0)
(6.49747 0.185299 0)
(6.47771 0.215411 0)
(6.52767 0.150628 0)
(6.50618 0.172606 0)
(6.55416 0.116829 0)
(6.53913 0.131485 0)
(6.5568 0.0775928 0)
(6.56353 0.0945582 0)
(6.5392 0.0389946 0)
(6.56573 0.0636853 0)
(6.51409 0.00240146 0)
(6.55313 0.0416699 0)
(6.46527 -0.0185068 0)
(6.51399 0.035889 0)
(6.40559 -0.0140637 0)
(6.46133 0.0547715 0)
(6.35277 0.0138172 0)
(6.40972 0.0979773 0)
(6.31236 0.0680547 0)
(6.35651 0.173107 0)
(6.2714 0.162326 0)
(6.30955 0.272285 0)
(6.2505 0.278337 0)
(6.27455 0.389754 0)
(6.23883 0.41562 0)
(6.24171 0.526069 0)
(6.2492 0.56889 0)
(6.20512 0.682469 0)
(6.25771 0.751274 0)
(6.15572 0.887085 0)
(6.26134 0.967513 0)
(6.12485 1.13658 0)
(6.2498 1.21099 0)
(6.11317 1.42248 0)
(6.22414 1.48581 0)
(6.0985 1.73755 0)
(6.19571 1.80858 0)
(6.06586 2.08939 0)
(6.18034 2.19121 0)
(6.02718 2.51246 0)
(6.148 2.64986 0)
(5.99992 3.02757 0)
(6.14494 3.23175 0)
(6.00966 3.70349 0)
(5.98186 4.06631 0)
(5.85753 4.70565 0)
(5.88015 5.24581 0)
(5.47057 6.46515 0)
(6.97437 6.98288 0)
(4.54493 11.1568 0)
(5.88163 -0.238468 0)
(5.96029 -0.284 0)
(6.15878 -0.370402 0)
(6.39186 -0.463085 0)
(6.62808 -0.552282 0)
(6.86128 -0.64471 0)
(7.06915 -0.720301 0)
(7.24402 -0.817274 0)
(7.42425 -0.917619 0)
(7.55948 -1.00477 0)
(7.72163 -1.09126 0)
(7.85773 -1.14773 0)
(7.95373 -1.18997 0)
(8.05866 -1.20362 0)
(8.19074 -1.20483 0)
(8.37361 -1.19744 0)
(8.54853 -1.20386 0)
(8.74676 -1.245 0)
(8.90646 -1.32878 0)
(9.03146 -1.43786 0)
(9.16419 -1.54687 0)
(9.30681 -1.65326 0)
(9.4488 -1.77579 0)
(9.58373 -1.89347 0)
(9.68019 -2.00316 0)
(9.76364 -2.11134 0)
(9.80872 -2.20349 0)
(9.84758 -2.29765 0)
(9.85955 -2.38008 0)
(9.86297 -2.45222 0)
(9.84679 -2.518 0)
(9.81464 -2.58338 0)
(9.76153 -2.63482 0)
(9.69811 -2.68166 0)
(9.62573 -2.71335 0)
(9.52457 -2.74485 0)
(9.43207 -2.79439 0)
(9.33644 -2.85345 0)
(9.26051 -2.89364 0)
(9.20437 -2.89703 0)
(9.12496 -2.8768 0)
(9.03965 -2.82959 0)
(8.94594 -2.7833 0)
(8.87163 -2.73781 0)
(8.80388 -2.67486 0)
(8.72476 -2.59735 0)
(8.65598 -2.497 0)
(8.55418 -2.38267 0)
(8.40999 -2.23481 0)
(8.29111 -2.10291 0)
(8.19244 -1.98916 0)
(8.10246 -1.87105 0)
(8.04157 -1.76546 0)
(7.98484 -1.6483 0)
(7.93794 -1.53163 0)
(7.89933 -1.42852 0)
(7.86396 -1.31695 0)
(7.78543 -1.17081 0)
(7.70972 -1.0124 0)
(7.59844 -0.845602 0)
(7.48717 -0.653988 0)
(7.35289 -0.477386 0)
(7.24753 -0.316456 0)
(7.15276 -0.174365 0)
(7.05119 -0.0579087 0)
(6.94973 0.0362963 0)
(6.84739 0.115241 0)
(6.75562 0.171316 0)
(6.66361 0.21042 0)
(6.58218 0.246692 0)
(6.52175 0.275971 0)
(6.46705 0.294531 0)
(6.43065 0.302 0)
(6.39737 0.308881 0)
(6.35872 0.310811 0)
(6.32759 0.333775 0)
(6.30098 0.366117 0)
(6.28467 0.396959 0)
(6.24942 0.437288 0)
(6.24737 0.480446 0)
(6.22706 0.525678 0)
(6.20253 0.552343 0)
(6.20161 0.572141 0)
(6.2022 0.58551 0)
(6.20063 0.590079 0)
(6.19306 0.595549 0)
(6.15914 0.605414 0)
(6.13046 0.606963 0)
(6.10116 0.583647 0)
(6.0762 0.580456 0)
(6.04214 0.551591 0)
(6.03912 0.532002 0)
(6.02427 0.513035 0)
(6.01484 0.501677 0)
(6.01763 0.461852 0)
(6.01625 0.440044 0)
(6.04159 0.409344 0)
(6.03854 0.388393 0)
(6.11023 0.341417 0)
(6.09877 0.328159 0)
(6.17032 0.284141 0)
(6.12817 0.283919 0)
(6.20913 0.222405 0)
(6.14856 0.233252 0)
(6.24097 0.18659 0)
(6.14548 0.225502 0)
(6.26433 0.16715 0)
(6.15065 0.216094 0)
(6.29426 0.179078 0)
(6.16121 0.253353 0)
(6.30298 0.191847 0)
(6.16164 0.259029 0)
(6.3051 0.195124 0)
(6.12771 0.258452 0)
(6.31444 0.19 0)
(6.09184 0.257198 0)
(6.30094 0.192387 0)
(6.05526 0.259032 0)
(6.24362 0.193023 0)
(6.04989 0.279925 0)
(6.18825 0.213175 0)
(6.05002 0.318734 0)
(6.14935 0.257733 0)
(6.03715 0.393111 0)
(6.11746 0.329147 0)
(6.02008 0.482488 0)
(6.10912 0.372785 0)
(6.01686 0.525998 0)
(6.10283 0.386423 0)
(6.02612 0.549424 0)
(6.07785 0.395528 0)
(6.08321 0.572076 0)
(6.06738 0.421052 0)
(6.1684 0.583757 0)
(6.08105 0.427653 0)
(6.26192 0.596661 0)
(6.09893 0.420554 0)
(6.36952 0.586854 0)
(6.09881 0.400511 0)
(6.47111 0.550237 0)
(6.09875 0.372173 0)
(6.52692 0.506254 0)
(6.15433 0.327851 0)
(6.53528 0.46917 0)
(6.23446 0.275836 0)