/*--------------------------------*- C++ -*----------------------------------*\
| =========                 |                                                 |
| \\      /  F ield         | OpenFOAM: The Open Source CFD Toolbox           |
|  \\    /   O peration     | Version:  2.4.0                                 |
|   \\  /    A nd           | Web:      www.OpenFOAM.org                      |
|    \\/     M anipulation  |                                                 |
\*---------------------------------------------------------------------------*/
FoamFile
{
    version     2.0;
    format      ascii;
    class       volVectorField;
    location    "0.177";
    object      UMean;
}
// * * * * * * * * * * * * * * * * * * * * * * * * * * * * * * * * * * * * * //

dimensions      [0 1 -1 0 0 0 0];

internalField   nonuniform List<vector> 
17600
(
(5.34285 0.307784 0)
(3.03143 0.0607407 0)
(2.25399 -0.00145267 0)
(1.91008 -0.00351439 0)
(1.77444 -0.00133583 0)
(1.68155 -0.000164184 0)
(1.61875 -1.58951e-05 0)
(1.55854 -6.70085e-06 0)
(1.52668 -0.000174039 0)
(1.4884 -5.90215e-07 0)
(1.474 -0.000105801 0)
(1.44446 0.000103945 0)
(1.4368 -8.53471e-05 0)
(1.4122 7.80018e-05 0)
(1.41114 -0.000246967 0)
(1.39702 -0.00011898 0)
(1.40456 -0.000511736 0)
(1.41633 -0.000468227 0)
(1.45254 -0.0012096 0)
(1.436 -0.0282409 0)
(8.5948 0.865809 0)
(6.98525 0.379731 0)
(5.87562 0.119847 0)
(5.12934 0.0497942 0)
(4.74202 0.0270229 0)
(4.47151 0.0193407 0)
(4.29881 0.0149165 0)
(4.13194 0.0114131 0)
(4.04261 0.00827932 0)
(3.93087 0.00676644 0)
(3.88964 0.00511871 0)
(3.80372 0.00503723 0)
(3.78357 0.00364604 0)
(3.71211 0.00382236 0)
(3.70733 0.00140197 0)
(3.65989 0.00184145 0)
(3.67016 -0.00242694 0)
(3.67962 -0.00412266 0)
(3.71238 -0.00555603 0)
(3.86256 -0.0851231 0)
(9.83953 1.01366 0)
(9.35627 0.570131 0)
(8.5227 0.236817 0)
(7.6962 0.127071 0)
(7.17283 0.0786266 0)
(6.77617 0.0546733 0)
(6.52574 0.0412887 0)
(6.27555 0.0315699 0)
(6.14341 0.0238395 0)
(5.96884 0.0191199 0)
(5.90706 0.0149423 0)
(5.77136 0.013676 0)
(5.7429 0.010628 0)
(5.62949 0.0101735 0)
(5.62305 0.0054134 0)
(5.541 0.00515714 0)
(5.55694 -0.00297756 0)
(5.53683 -0.00619344 0)
(5.59426 -0.0207939 0)
(5.72283 -0.108732 0)
(10.1404 0.939529 0)
(10.5563 0.658847 0)
(10.2817 0.323359 0)
(9.66319 0.204912 0)
(9.17333 0.142159 0)
(8.73305 0.101915 0)
(8.45449 0.0772169 0)
(8.14886 0.0591699 0)
(7.99481 0.045526 0)
(7.77094 0.0364614 0)
(7.6977 0.0288098 0)
(7.52019 0.0260686 0)
(7.48815 0.0203627 0)
(7.33828 0.019833 0)
(7.33326 0.0110355 0)
(7.21672 0.0119612 0)
(7.2435 -0.00370531 0)
(7.17726 -0.00445374 0)
(7.27426 -0.0404226 0)
(7.30696 -0.114138 0)
(10.0611 0.799303 0)
(10.8963 0.659608 0)
(11.1364 0.348727 0)
(10.8807 0.249575 0)
(10.6033 0.195619 0)
(10.2377 0.149583 0)
(10.0095 0.11656 0)
(9.69711 0.0905127 0)
(9.55576 0.0709569 0)
(9.30694 0.0569748 0)
(9.23891 0.045756 0)
(9.03387 0.0404833 0)
(9.00734 0.0328711 0)
(8.82993 0.0301687 0)
(8.83308 0.0203553 0)
(8.68703 0.0168002 0)
(8.72381 0.00345012 0)
(8.62886 -0.01093 0)
(8.71796 -0.0370124 0)
(8.7322 -0.154796 0)
(9.98323 0.686269 0)
(10.8276 0.626864 0)
(11.3116 0.326318 0)
(11.335 0.245487 0)
(11.3364 0.215717 0)
(11.1478 0.179903 0)
(11.0656 0.147528 0)
(10.8208 0.118619 0)
(10.7441 0.0953026 0)
(10.5117 0.0781099 0)
(10.4739 0.0629655 0)
(10.2676 0.0565637 0)
(10.2581 0.0450128 0)
(10.0735 0.0433844 0)
(10.0875 0.0270307 0)
(9.93144 0.0282988 0)
(9.97312 0.000548822 0)
(9.86554 0.00181908 0)
(9.94467 -0.0593158 0)
(9.93299 -0.14875 0)
(9.97573 0.597632 0)
(10.6961 0.594186 0)
(11.2368 0.297481 0)
(11.339 0.215774 0)
(11.5028 0.202552 0)
(11.455 0.182535 0)
(11.5431 0.157752 0)
(11.4168 0.131741 0)
(11.4578 0.109712 0)
(11.2949 0.0925277 0)
(11.3258 0.0768496 0)
(11.1546 0.0691974 0)
(11.1869 0.0577103 0)
(11.0174 0.0529127 0)
(11.0598 0.0386051 0)
(10.9054 0.031955 0)
(10.9682 0.0110802 0)
(10.8492 -0.0048841 0)
(10.9386 -0.0543079 0)
(10.8906 -0.149224 0)
(9.99601 0.519091 0)
(10.5892 0.558508 0)
(11.1413 0.279648 0)
(11.2455 0.189254 0)
(11.4535 0.180262 0)
(11.44 0.170948 0)
(11.6087 0.151733 0)
(11.5604 0.129462 0)
(11.6954 0.10879 0)
(11.6185 0.0951781 0)
(11.7284 0.0795994 0)
(11.6307 0.0751774 0)
(11.7198 0.0617363 0)
(11.6068 0.0608247 0)
(11.6847 0.0410288 0)
(11.5702 0.0411389 0)
(11.6526 0.00722739 0)
(11.5557 0.00541518 0)
(11.6511 -0.0713667 0)
(11.5812 -0.112164 0)
(10.016 0.448916 0)
(10.5101 0.515175 0)
(11.0552 0.26614 0)
(11.1732 0.16685 0)
(11.3807 0.158389 0)
(11.3759 0.157093 0)
(11.5429 0.140885 0)
(11.5272 0.121271 0)
(11.6742 0.100097 0)
(11.6536 0.0889238 0)
(11.7856 0.0737701 0)
(11.7582 0.0716917 0)
(11.8729 0.0588728 0)
(11.8354 0.0592169 0)
(11.9337 0.03986 0)
(11.8918 0.0402154 0)
(11.9826 0.0049893 0)
(11.9474 0.00371192 0)
(12.034 -0.0826116 0)
(11.9865 -0.111469 0)
(10.0154 0.386024 0)
(10.4625 0.468615 0)
(10.9646 0.254007 0)
(11.131 0.145917 0)
(11.3067 0.13766 0)
(11.3378 0.143173 0)
(11.4627 0.129587 0)
(11.4873 0.112539 0)
(11.5952 0.090223 0)
(11.6218 0.0806578 0)
(11.7196 0.0654282 0)
(11.7469 0.0645884 0)
(11.8332 0.0523223 0)
(11.8585 0.0526114 0)
(11.933 0.0349286 0)
(11.9603 0.0320868 0)
(12.0287 0.00228375 0)
(12.0609 -0.014742 0)
(12.1195 -0.0810225 0)
(12.1082 -0.175121 0)
(9.9952 0.3281 0)
(10.4319 0.422848 0)
(10.8779 0.241556 0)
(11.0981 0.127253 0)
(11.2401 0.117233 0)
(11.3091 0.130264 0)
(11.3952 0.117456 0)
(11.453 0.104927 0)
(11.5282 0.0800952 0)
(11.5847 0.0736714 0)
(11.6545 0.0564074 0)
(11.709 0.0587696 0)
(11.7719 0.0441391 0)
(11.822 0.0470615 0)
(11.8788 0.0265973 0)
(11.9285 0.0263618 0)
(11.9845 -0.00802937 0)
(12.0343 -0.0239586 0)
(12.0807 -0.0991999 0)
(12.068 -0.21019 0)
(9.98061 0.277521 0)
(10.3954 0.375779 0)
(10.81 0.229379 0)
(11.0545 0.108566 0)
(11.1919 0.0990494 0)
(11.2705 0.115574 0)
(11.3472 0.106477 0)
(11.4096 0.0951345 0)
(11.4809 0.0719804 0)
(11.5396 0.0648262 0)
(11.6087 0.0501544 0)
(11.6628 0.0506733 0)
(11.7266 0.0395083 0)
(11.7741 0.0382547 0)
(11.8336 0.0226495 0)
(11.8784 0.0147913 0)
(11.9382 -0.0124932 0)
(11.9801 -0.0417813 0)
(12.027 -0.111684 0)
(11.9957 -0.234966 0)
(9.9789 0.232462 0)
(10.3552 0.329381 0)
(10.7564 0.212706 0)
(11.0073 0.092775 0)
(11.1542 0.0814848 0)
(11.2307 0.101372 0)
(11.3073 0.094207 0)
(11.3664 0.0853114 0)
(11.4403 0.0629517 0)
(11.4967 0.0566269 0)
(11.5689 0.0429731 0)
(11.6203 0.0435191 0)
(11.6861 0.0333697 0)
(11.7309 0.0311554 0)
(11.7918 0.0164578 0)
(11.8336 0.00663506 0)
(11.894 -0.0207153 0)
(11.9318 -0.0553387 0)
(11.9754 -0.125494 0)
(11.9312 -0.251679 0)
(9.97805 0.192803 0)
(10.3242 0.283565 0)
(10.7076 0.190606 0)
(10.9678 0.079234 0)
(11.1182 0.0674293 0)
(11.1998 0.0866217 0)
(11.2685 0.0830701 0)
(11.3323 0.0740419 0)
(11.4001 0.0553428 0)
(11.4639 0.0473735 0)
(11.5296 0.0373203 0)
(11.5881 0.0352903 0)
(11.6463 0.0286888 0)
(11.6987 0.0226875 0)
(11.751 0.0113798 0)
(11.8005 -0.00305142 0)
(11.8516 -0.0286194 0)
(11.8957 -0.0679661 0)
(11.9254 -0.138581 0)
(11.8831 -0.264336 0)
(9.97527 0.155823 0)
(10.3007 0.240242 0)
(10.6657 0.162591 0)
(10.9352 0.0687198 0)
(11.0883 0.0539818 0)
(11.1754 0.0734475 0)
(11.2375 0.0703095 0)
(11.3045 0.063743 0)
(11.3682 0.0461826 0)
(11.4368 0.0398554 0)
(11.4989 0.030128 0)
(11.5617 0.0288612 0)
(11.6159 0.0218512 0)
(11.6722 0.0163274 0)
(11.7205 0.00405298 0)
(11.7732 -0.0108139 0)
(11.819 -0.0375889 0)
(11.8645 -0.0796104 0)
(11.8848 -0.148999 0)
(11.8426 -0.279139 0)
(9.97673 0.12321 0)
(10.2776 0.195852 0)
(10.6353 0.13398 0)
(10.9047 0.0570053 0)
(11.0686 0.0427463 0)
(11.1521 0.0586353 0)
(11.2173 0.0586603 0)
(11.2784 0.0511431 0)
(11.3473 0.0386841 0)
(11.411 0.0303091 0)
(11.4792 0.0251463 0)
(11.5365 0.0200064 0)
(11.5964 0.0175483 0)
(11.6465 0.00686689 0)
(11.7003 -0.000157208 0)
(11.746 -0.0223196 0)
(11.796 -0.0424721 0)
(11.8325 -0.0951601 0)
(11.8542 -0.15234 0)
(11.801 -0.295468 0)
(9.97983 0.0932991 0)
(10.2581 0.151788 0)
(10.612 0.104491 0)
(10.8799 0.0454972 0)
(11.0531 0.0317311 0)
(11.1331 0.044975 0)
(11.2009 0.0456917 0)
(11.2574 0.0396316 0)
(11.3295 0.0296609 0)
(11.3902 0.0227689 0)
(11.4621 0.0181282 0)
(11.516 0.0138968 0)
(11.5787 0.0103487 0)
(11.6252 0.00149458 0)
(11.6813 -0.00883245 0)
(11.7231 -0.0270497 0)
(11.7744 -0.0550347 0)
(11.8052 -0.0991536 0)
(11.8257 -0.168573 0)
(11.7627 -0.277575 0)
(9.97898 0.0647829 0)
(10.247 0.108526 0)
(10.5916 0.0744411 0)
(10.8639 0.0338287 0)
(11.0372 0.0214225 0)
(11.1217 0.0320005 0)
(11.1847 0.0324311 0)
(11.2441 0.0282334 0)
(11.3116 0.0207703 0)
(11.377 0.0153021 0)
(11.4444 0.0114408 0)
(11.5026 0.00739507 0)
(11.5606 0.00348781 0)
(11.6113 -0.00491104 0)
(11.6622 -0.016446 0)
(11.7077 -0.0336125 0)
(11.7528 -0.0649679 0)
(11.7858 -0.105204 0)
(11.7989 -0.181985 0)
(11.7374 -0.261753 0)
(9.977 0.0391378 0)
(10.2412 0.0639443 0)
(10.577 0.0457248 0)
(10.8538 0.0196579 0)
(11.0261 0.0134768 0)
(11.1153 0.0175582 0)
(11.1735 0.0206254 0)
(11.2358 0.0149682 0)
(11.2994 0.0133848 0)
(11.3687 0.00613367 0)
(11.4325 0.00655656 0)
(11.4943 -0.0010391 0)
(11.5485 -0.00124287 0)
(11.6025 -0.0138364 0)
(11.6492 -0.0210193 0)
(11.6976 -0.0442768 0)
(11.7369 -0.0692243 0)
(11.7722 -0.118185 0)
(11.7784 -0.183723 0)
(11.7168 -0.278791 0)
(9.97803 0.0125454 0)
(10.2362 0.0216956 0)
(10.5717 0.0147586 0)
(10.8471 0.0070531 0)
(11.0231 0.00366194 0)
(11.1105 0.00610214 0)
(11.1702 0.00583879 0)
(11.23 0.00477196 0)
(11.2961 0.00254703 0)
(11.3631 0.000717839 0)
(11.4295 -0.00230404 0)
(11.4888 -0.00497719 0)
(11.5454 -0.010603 0)
(11.5961 -0.0174664 0)
(11.6452 -0.0310071 0)
(11.6893 -0.0484703 0)
(11.7305 -0.0797207 0)
(11.7609 -0.124093 0)
(11.767 -0.190417 0)
(11.6986 -0.298642 0)
(9.97954 -0.0118378 0)
(10.2347 -0.0226901 0)
(10.573 -0.0141173 0)
(10.8462 -0.00841775 0)
(11.0247 -0.00320617 0)
(11.1092 -0.00833236 0)
(11.1716 -0.00568144 0)
(11.229 -0.00912756 0)
(11.2979 -0.0043104 0)
(11.3622 -0.00915302 0)
(11.4311 -0.00630727 0)
(11.4877 -0.0144893 0)
(11.5465 -0.0139512 0)
(11.5943 -0.0279432 0)
(11.6454 -0.0335753 0)
(11.6857 -0.0608293 0)
(11.7287 -0.0813953 0)
(11.7542 -0.138993 0)
(11.7589 -0.186692 0)
(11.6865 -0.319646 0)
(9.97948 -0.0380675 0)
(10.2387 -0.0653403 0)
(10.5794 -0.0446529 0)
(10.852 -0.0215772 0)
(11.0291 -0.0123613 0)
(11.1132 -0.0203837 0)
(11.1763 -0.0197877 0)
(11.2339 -0.0200752 0)
(11.3028 -0.0143315 0)
(11.3668 -0.015275 0)
(11.4354 -0.0144546 0)
(11.4919 -0.018993 0)
(11.5503 -0.023001 0)
(11.5978 -0.0314883 0)
(11.6481 -0.0441039 0)
(11.6878 -0.0631902 0)
(11.7293 -0.0947764 0)
(11.7527 -0.138035 0)
(11.7537 -0.202665 0)
(11.6789 -0.287184 0)
(9.97835 -0.0644214 0)
(10.2478 -0.109053 0)
(10.5912 -0.0742228 0)
(10.8642 -0.0348 0)
(11.037 -0.0213778 0)
(11.1224 -0.0336348 0)
(11.1844 -0.0328328 0)
(11.2441 -0.0319565 0)
(11.3112 -0.0232723 0)
(11.3765 -0.0226639 0)
(11.4432 -0.0211943 0)
(11.5011 -0.0251191 0)
(11.5576 -0.0299708 0)
(11.6063 -0.0371413 0)
(11.6541 -0.0520991 0)
(11.6946 -0.0679239 0)
(11.733 -0.105317 0)
(11.7557 -0.139263 0)
(11.7554 -0.21641 0)
(11.681 -0.254986 0)
(9.97744 -0.0921219 0)
(10.2609 -0.153307 0)
(10.6094 -0.103281 0)
(10.882 -0.0475932 0)
(11.0496 -0.0306848 0)
(11.1358 -0.0480078 0)
(11.1971 -0.044614 0)
(11.2591 -0.0450206 0)
(11.3245 -0.0304979 0)
(11.391 -0.0321869 0)
(11.4558 -0.0254963 0)
(11.5149 -0.0344041 0)
(11.5696 -0.0331337 0)
(11.6191 -0.0475319 0)
(11.665 -0.0539509 0)
(11.7059 -0.0802933 0)
(11.7416 -0.105515 0)
(11.7641 -0.154392 0)
(11.7626 -0.21074 0)
(11.6846 -0.274492 0)
(9.97681 -0.122898 0)
(10.278 -0.196384 0)
(10.6346 -0.133681 0)
(10.9056 -0.0579934 0)
(11.0671 -0.0427799 0)
(11.1533 -0.060434 0)
(11.215 -0.0588032 0)
(11.279 -0.0551483 0)
(11.3434 -0.0408961 0)
(11.4103 -0.0381991 0)
(11.4738 -0.033968 0)
(11.5333 -0.0389885 0)
(11.587 -0.041542 0)
(11.6366 -0.051744 0)
(11.6814 -0.0624866 0)
(11.7218 -0.0848344 0)
(11.7557 -0.113862 0)
(11.7777 -0.160491 0)
(11.7746 -0.215372 0)
(11.6941 -0.289884 0)
(9.97639 -0.155111 0)
(10.2996 -0.241089 0)
(10.6672 -0.162075 0)
(10.9346 -0.0698758 0)
(11.0896 -0.0536966 0)
(11.1752 -0.0753505 0)
(11.2385 -0.070254 0)
(11.3036 -0.0677926 0)
(11.368 -0.048249 0)
(11.4344 -0.0477379 0)
(11.4974 -0.0388022 0)
(11.5564 -0.0476701 0)
(11.6098 -0.0454259 0)
(11.6588 -0.0604437 0)
(11.7033 -0.0661615 0)
(11.7424 -0.0937207 0)
(11.7753 -0.117803 0)
(11.796 -0.169998 0)
(11.7916 -0.219465 0)
(11.7105 -0.298892 0)
(9.97653 -0.19211 0)
(10.3263 -0.284486 0)
(10.7069 -0.190061 0)
(10.9696 -0.0805651 0)
(11.117 -0.0670065 0)
(11.2022 -0.0887189 0)
(11.2675 -0.0828764 0)
(11.3336 -0.0781389 0)
(11.3982 -0.0573512 0)
(11.4638 -0.0552213 0)
(11.5263 -0.0458939 0)
(11.5848 -0.0539005 0)
(11.638 -0.0517361 0)
(11.6864 -0.066302 0)
(11.7305 -0.0726098 0)
(11.7681 -0.0989963 0)
(11.8005 -0.125463 0)
(11.8193 -0.174467 0)
(11.8148 -0.231044 0)
(11.7334 -0.292502 0)
(9.98043 -0.232192 0)
(10.3569 -0.329741 0)
(10.7553 -0.212758 0)
(11.01 -0.0935067 0)
(11.151 -0.08164 0)
(11.2344 -0.10289 0)
(11.3028 -0.0946963 0)
(11.3694 -0.0887846 0)
(11.4344 -0.0657241 0)
(11.4992 -0.0637837 0)
(11.5608 -0.0521247 0)
(11.6192 -0.061379 0)
(11.6715 -0.0565671 0)
(11.7201 -0.0737119 0)
(11.7627 -0.0768288 0)
(11.8 -0.10638 0)
(11.8305 -0.129878 0)
(11.8485 -0.182044 0)
(11.8438 -0.239152 0)
(11.7643 -0.292274 0)
(9.99386 -0.277261 0)
(10.3862 -0.376225 0)
(10.8174 -0.229259 0)
(11.0486 -0.109305 0)
(11.1957 -0.0989089 0)
(11.2661 -0.117129 0)
(11.348 -0.106849 0)
(11.4056 -0.0986296 0)
(11.4795 -0.0747501 0)
(11.5355 -0.0719987 0)
(11.6037 -0.0590943 0)
(11.6552 -0.0684906 0)
(11.7128 -0.0616485 0)
(11.756 -0.0810957 0)
(11.8021 -0.0803021 0)
(11.8352 -0.114737 0)
(11.8669 -0.13136 0)
(11.8819 -0.19334 0)
(11.8775 -0.239928 0)
(11.7992 -0.311086 0)
(10.0144 -0.328423 0)
(10.4127 -0.422625 0)
(10.8956 -0.242034 0)
(11.0801 -0.127118 0)
(11.255 -0.11787 0)
(11.292 -0.130804 0)
(11.4081 -0.118942 0)
(11.4364 -0.107162 0)
(11.5393 -0.0843815 0)
(11.5671 -0.0790989 0)
(11.6614 -0.0672694 0)
(11.6874 -0.073959 0)
(11.7688 -0.0685739 0)
(11.789 -0.0859546 0)
(11.8556 -0.0863607 0)
(11.8678 -0.119279 0)
(11.914 -0.135879 0)
(11.9102 -0.199389 0)
(11.9101 -0.243513 0)
(11.8166 -0.329568 0)
(10.0261 -0.385793 0)
(10.4474 -0.468872 0)
(10.9819 -0.254173 0)
(11.1124 -0.1461 0)
(11.324 -0.138054 0)
(11.3187 -0.144025 0)
(11.4807 -0.130827 0)
(11.467 -0.115166 0)
(11.6136 -0.0942352 0)
(11.5978 -0.0863384 0)
(11.7351 -0.0756451 0)
(11.7167 -0.0799146 0)
(11.8391 -0.075348 0)
(11.8136 -0.0913775 0)
(11.9165 -0.0915123 0)
(11.8788 -0.123958 0)
(11.9508 -0.13809 0)
(11.8886 -0.203885 0)
(11.8906 -0.242453 0)
(11.7286 -0.344851 0)
(10.017 -0.448709 0)
(10.5064 -0.515463 0)
(11.063 -0.266389 0)
(11.1643 -0.166812 0)
(11.3908 -0.159054 0)
(11.3653 -0.15759 0)
(11.5546 -0.14244 0)
(11.5141 -0.123422 0)
(11.6869 -0.104478 0)
(11.6351 -0.0937303 0)
(11.7956 -0.0844314 0)
(11.7306 -0.0854023 0)
(11.8711 -0.0821089 0)
(11.7863 -0.0951038 0)
(11.898 -0.0952179 0)
(11.7864 -0.125372 0)
(11.8538 -0.135864 0)
(11.6975 -0.203007 0)
(11.6719 -0.229738 0)
(11.3946 -0.350761 0)
(9.9952 -0.518679 0)
(10.5901 -0.559028 0)
(11.1427 -0.279629 0)
(11.243 -0.189358 0)
(11.4573 -0.180804 0)
(11.4354 -0.171431 0)
(11.6137 -0.153197 0)
(11.5529 -0.131417 0)
(11.7001 -0.113152 0)
(11.6043 -0.0993113 0)
(11.7286 -0.0901873 0)
(11.6021 -0.0871098 0)
(11.7024 -0.0848234 0)
(11.5448 -0.0923359 0)
(11.6156 -0.0946374 0)
(11.4255 -0.116576 0)
(11.4499 -0.130887 0)
(11.2091 -0.18426 0)
(11.1287 -0.218427 0)
(10.7691 -0.312269 0)
(9.97481 -0.597376 0)
(10.6976 -0.59462 0)
(11.2358 -0.297373 0)
(11.3394 -0.216047 0)
(11.5031 -0.202912 0)
(11.4533 -0.183189 0)
(11.544 -0.158908 0)
(11.4116 -0.13382 0)
(11.4567 -0.1133 0)
(11.281 -0.0967257 0)
(11.3171 -0.0858444 0)
(11.12 -0.0806556 0)
(11.1547 -0.0773317 0)
(10.9365 -0.0825598 0)
(10.9612 -0.0840029 0)
(10.7161 -0.102582 0)
(10.7064 -0.115013 0)
(10.4066 -0.161331 0)
(10.2947 -0.19175 0)
(9.87424 -0.264835 0)
(9.98271 -0.686076 0)
(10.8288 -0.627126 0)
(11.3105 -0.326316 0)
(11.3359 -0.245789 0)
(11.3354 -0.216066 0)
(11.1469 -0.180494 0)
(11.0641 -0.148569 0)
(10.8158 -0.120359 0)
(10.739 -0.0985257 0)
(10.4962 -0.0815431 0)
(10.4589 -0.0710306 0)
(10.2264 -0.0658202 0)
(10.2158 -0.0630146 0)
(9.97532 -0.0670845 0)
(9.9697 -0.0687825 0)
(9.70467 -0.0840349 0)
(9.67102 -0.0951155 0)
(9.34533 -0.133528 0)
(9.21126 -0.157305 0)
(8.75622 -0.218646 0)
(10.061 -0.799151 0)
(10.8969 -0.659813 0)
(11.1357 -0.348781 0)
(10.8813 -0.249839 0)
(10.6018 -0.195872 0)
(10.2367 -0.150104 0)
(10.0065 -0.117341 0)
(9.69229 -0.0920179 0)
(9.54721 -0.0734369 0)
(9.29123 -0.0599802 0)
(9.21827 -0.051908 0)
(8.99022 -0.0484427 0)
(8.95579 -0.046587 0)
(8.72376 -0.0502142 0)
(8.69885 -0.0519567 0)
(8.44061 -0.0639312 0)
(8.38935 -0.0736346 0)
(8.06524 -0.101729 0)
(7.91374 -0.124695 0)
(7.46458 -0.155246 0)
(10.1404 -0.939437 0)
(10.5567 -0.658983 0)
(10.2813 -0.323423 0)
(9.66337 -0.205096 0)
(9.17163 -0.142339 0)
(8.73188 -0.102311 0)
(8.45094 -0.0778041 0)
(8.14393 -0.0602892 0)
(7.98453 -0.0473476 0)
(7.75539 -0.0386706 0)
(7.67406 -0.033382 0)
(7.47616 -0.0317753 0)
(7.43214 -0.0306826 0)
(7.22935 -0.0338931 0)
(7.19307 -0.0352067 0)
(6.9619 -0.0442255 0)
(6.89979 -0.0512198 0)
(6.59819 -0.0711711 0)
(6.44598 -0.0879763 0)
(6.00904 -0.104576 0)
(9.83962 -1.01362 0)
(9.35657 -0.570218 0)
(8.52236 -0.236871 0)
(7.696 -0.127182 0)
(7.17135 -0.0787346 0)
(6.77488 -0.0549377 0)
(6.52227 -0.0416716 0)
(6.27054 -0.0322775 0)
(6.13343 -0.0249823 0)
(5.9538 -0.0205533 0)
(5.88354 -0.0177084 0)
(5.73006 -0.0174956 0)
(5.68732 -0.0169011 0)
(5.52724 -0.0194384 0)
(5.48705 -0.0201172 0)
(5.29896 -0.0261595 0)
(5.23311 -0.0302009 0)
(4.97664 -0.0427268 0)
(4.83445 -0.052922 0)
(4.43823 -0.0626462 0)
(8.59489 -0.865789 0)
(6.98542 -0.379774 0)
(5.87534 -0.119878 0)
(5.12897 -0.0498395 0)
(4.74094 -0.0270766 0)
(4.47018 -0.019477 0)
(4.2959 -0.0150957 0)
(4.12751 -0.0117453 0)
(4.03445 -0.00882551 0)
(3.91815 -0.00744304 0)
(3.86999 -0.00641828 0)
(3.76992 -0.00684332 0)
(3.7364 -0.00655842 0)
(3.629 -0.00811414 0)
(3.59304 -0.00825451 0)
(3.46226 -0.0114116 0)
(3.40316 -0.0129516 0)
(3.21674 -0.0191074 0)
(3.09713 -0.0232663 0)
(2.79482 -0.0287756 0)
(5.3429 -0.307779 0)
(3.03149 -0.0607506 0)
(2.25383 0.00145009 0)
(1.90979 0.00351151 0)
(1.77391 0.00133207 0)
(1.68076 0.00014304 0)
(1.6172 1.74585e-07 0)
(1.55611 -3.41852e-05 0)
(1.52241 0.000111131 0)
(1.48161 -6.25686e-05 0)
(1.46368 -2.03638e-05 0)
(1.42695 -0.000318347 0)
(1.41156 -0.000171601 0)
(1.36972 -0.000582026 0)
(1.35036 -0.00037315 0)
(1.29635 -0.000999754 0)
(1.26357 -0.000841418 0)
(1.18182 -0.00187497 0)
(1.11633 -0.00210536 0)
(0.982315 0.00229595 0)
(2.08328 -0.166835 0)
(2.59826 -0.0970234 0)
(3.11543 -0.100535 0)
(3.61244 -0.124011 0)
(4.06118 -0.16515 0)
(4.54399 -0.22896 0)
(5.02424 -0.282353 0)
(5.53399 -0.392552 0)
(6.05291 -0.506788 0)
(6.48985 -0.632593 0)
(6.90586 -0.770338 0)
(7.19618 -0.918287 0)
(7.47624 -1.04498 0)
(7.68791 -1.13024 0)
(7.90261 -1.19483 0)
(8.07852 -1.2558 0)
(8.25623 -1.35 0)
(8.39595 -1.47622 0)
(8.5078 -1.61229 0)
(8.64449 -1.74515 0)
(8.74353 -1.86673 0)
(8.85324 -1.97458 0)
(8.99279 -2.07863 0)
(9.09037 -2.17582 0)
(9.19016 -2.27964 0)
(9.23997 -2.36952 0)
(9.25954 -2.42908 0)
(9.27126 -2.47067 0)
(9.26327 -2.48905 0)
(9.25456 -2.50345 0)
(9.23248 -2.50865 0)
(9.22836 -2.51117 0)
(9.21019 -2.50926 0)
(9.16784 -2.50894 0)
(9.10941 -2.50604 0)
(9.02319 -2.50763 0)
(8.92709 -2.50309 0)
(8.84649 -2.48402 0)
(8.81346 -2.45362 0)
(8.8059 -2.41401 0)
(8.79863 -2.38147 0)
(8.77403 -2.34277 0)
(8.74097 -2.30669 0)
(8.69972 -2.2776 0)
(8.66821 -2.23503 0)
(8.6409 -2.19402 0)
(8.61143 -2.14736 0)
(8.5782 -2.10495 0)
(8.4879 -2.02994 0)
(8.37318 -1.93744 0)
(8.28149 -1.85823 0)
(8.18566 -1.75949 0)
(8.0986 -1.66263 0)
(8.02921 -1.57114 0)
(7.96744 -1.47071 0)
(7.90493 -1.38434 0)
(7.86328 -1.31479 0)
(7.80128 -1.23128 0)
(7.75344 -1.13833 0)
(7.67718 -1.0461 0)
(7.58901 -0.934844 0)
(7.46957 -0.827084 0)
(7.35011 -0.734616 0)
(7.25026 -0.652603 0)
(7.14474 -0.580242 0)
(7.046 -0.516057 0)
(6.94961 -0.458452 0)
(6.86979 -0.407271 0)
(6.78592 -0.367975 0)
(6.71056 -0.324241 0)
(6.65527 -0.280709 0)
(6.60165 -0.245477 0)
(6.57135 -0.217014 0)
(6.54037 -0.193021 0)
(6.5154 -0.166828 0)
(6.50638 -0.110454 0)
(6.48907 -0.0442288 0)
(6.47912 0.0258496 0)
(6.45416 0.10379 0)
(6.46157 0.181139 0)
(6.44508 0.253727 0)
(6.43567 0.321913 0)
(6.43649 0.396978 0)
(6.42997 0.457626 0)
(6.42943 0.505449 0)
(6.41631 0.544626 0)
(6.38957 0.589018 0)
(6.37176 0.62932 0)
(6.34328 0.652336 0)
(6.34587 0.686333 0)
(6.31228 0.713543 0)
(6.33109 0.744821 0)
(6.33408 0.768889 0)
(6.33929 0.8103 0)
(6.36125 0.825696 0)
(6.377 0.855416 0)
(6.42255 0.872522 0)
(6.42158 0.903777 0)
(6.49833 0.904318 0)
(6.48373 0.908431 0)
(6.5369 0.884127 0)
(6.50839 0.888547 0)
(6.56542 0.844428 0)
(6.54693 0.847617 0)
(6.60842 0.79912 0)
(6.55243 0.806994 0)
(6.61993 0.734631 0)
(6.53633 0.72913 0)
(6.62688 0.652365 0)
(6.50999 0.645721 0)
(6.59916 0.541913 0)
(6.46305 0.508538 0)
(6.55696 0.400185 0)
(6.4141 0.381936 0)
(6.5405 0.277927 0)
(6.37598 0.279939 0)
(6.54898 0.183302 0)
(6.34631 0.184878 0)
(6.52995 0.0861935 0)
(6.33509 0.10326 0)
(6.48731 0.00519287 0)
(6.33266 0.0394084 0)
(6.43589 -0.060564 0)
(6.31829 0.00498246 0)
(6.39539 -0.103638 0)
(6.28561 -0.0164526 0)
(6.36473 -0.151983 0)
(6.2329 -0.0500269 0)
(6.3099 -0.183985 0)
(6.18907 -0.0545175 0)
(6.24333 -0.183818 0)
(6.20191 -0.0375348 0)
(6.19672 -0.166601 0)
(6.2408 -0.019819 0)
(6.18348 -0.143472 0)
(6.30791 0.00294789 0)
(6.18501 -0.123244 0)
(6.38125 0.0175841 0)
(6.18362 -0.0922212 0)
(6.42248 0.0343423 0)
(6.21387 -0.0613801 0)
(6.41217 0.0784236 0)
(6.26563 -0.0260515 0)
(6.41375 0.113837 0)
(6.29544 0.0197364 0)
(6.44156 0.137991 0)
(6.31849 0.0730969 0)
(6.45202 0.167747 0)
(6.36985 0.124458 0)
(6.4672 0.194817 0)
(6.42926 0.166134 0)
(6.50662 0.215901 0)
(6.49193 0.198742 0)
(6.54497 0.238936 0)
(6.53028 0.234505 0)
(6.5678 0.26708 0)
(6.55858 0.269623 0)
(6.5835 0.312437 0)
(6.57294 0.320947 0)
(6.58599 0.378834 0)
(6.57423 0.390546 0)
(6.57751 0.453983 0)
(6.5668 0.460926 0)
(6.54104 0.526504 0)
(6.53109 0.533918 0)
(6.46757 0.600826 0)
(6.47479 0.598185 0)
(6.38278 0.667652 0)
(6.41791 0.656565 0)
(6.30264 0.73561 0)
(6.35198 0.730722 0)
(6.23757 0.826584 0)
(6.29797 0.822974 0)
(6.19679 0.932729 0)
(6.2582 0.917974 0)
(6.16829 1.03563 0)
(6.23188 1.00345 0)
(6.14503 1.14023 0)
(6.22007 1.09606 0)
(6.09612 1.25305 0)
(6.22922 1.20437 0)
(6.04162 1.38057 0)
(6.23602 1.32653 0)
(6.00246 1.53149 0)
(6.22766 1.48209 0)
(5.96473 1.72842 0)
(6.19403 1.7004 0)
(5.95484 2.00084 0)
(6.14376 2.00156 0)
(5.9293 2.35268 0)
(6.09276 2.40451 0)
(5.87954 2.80307 0)
(5.98921 2.94331 0)
(5.70157 3.40284 0)
(5.84849 3.66117 0)
(5.64798 4.2468 0)
(5.65496 4.69198 0)
(5.20256 5.7691 0)
(5.75303 6.52849 0)
(3.27029 9.7312 0)
(4.04076 -0.206788 0)
(4.24207 -0.213477 0)
(4.53011 -0.258335 0)
(4.87532 -0.299999 0)
(5.22424 -0.341079 0)
(5.60416 -0.406863 0)
(5.9554 -0.469099 0)
(6.31085 -0.571647 0)
(6.66164 -0.685576 0)
(6.9675 -0.802426 0)
(7.30105 -0.928424 0)
(7.57021 -1.05046 0)
(7.79491 -1.16233 0)
(8.00521 -1.23724 0)
(8.22063 -1.29461 0)
(8.43148 -1.34701 0)
(8.62246 -1.41508 0)
(8.77838 -1.52273 0)
(8.90242 -1.65135 0)
(9.02126 -1.78778 0)
(9.11098 -1.90732 0)
(9.2207 -2.01549 0)
(9.33957 -2.11879 0)
(9.43565 -2.20961 0)
(9.49624 -2.29838 0)
(9.51658 -2.3784 0)
(9.5124 -2.43586 0)
(9.51656 -2.47664 0)
(9.51882 -2.49201 0)
(9.51531 -2.49951 0)
(9.48703 -2.50053 0)
(9.47169 -2.50078 0)
(9.44189 -2.4943 0)
(9.39286 -2.48722 0)
(9.32739 -2.47176 0)
(9.23739 -2.46392 0)
(9.14167 -2.46243 0)
(9.05773 -2.45762 0)
(9.01489 -2.44142 0)
(8.99651 -2.40813 0)
(8.96283 -2.37286 0)
(8.91564 -2.32709 0)
(8.86213 -2.28661 0)
(8.80929 -2.25736 0)
(8.76698 -2.21895 0)
(8.71946 -2.18003 0)
(8.67575 -2.12845 0)
(8.61351 -2.07262 0)
(8.49206 -1.9824 0)
(8.36701 -1.89236 0)
(8.26598 -1.815 0)
(8.15786 -1.72107 0)
(8.06637 -1.63291 0)
(7.98798 -1.54192 0)
(7.91789 -1.44257 0)
(7.85427 -1.36057 0)
(7.80745 -1.29215 0)
(7.73575 -1.20545 0)
(7.67743 -1.10909 0)
(7.58833 -1.00822 0)
(7.49488 -0.887525 0)
(7.37328 -0.780008 0)
(7.26234 -0.689403 0)
(7.16871 -0.609471 0)
(7.06929 -0.538947 0)
(6.975 -0.476545 0)
(6.8785 -0.419794 0)
(6.79676 -0.370989 0)
(6.71068 -0.332917 0)
(6.63148 -0.293237 0)
(6.57285 -0.256385 0)
(6.51845 -0.227042 0)
(6.48676 -0.204488 0)
(6.45486 -0.181819 0)
(6.42503 -0.157531 0)
(6.40909 -0.102129 0)
(6.38887 -0.0341086 0)
(6.37603 0.0338753 0)
(6.34486 0.109287 0)
(6.34692 0.185732 0)
(6.32869 0.259959 0)
(6.3106 0.326158 0)
(6.31083 0.396974 0)
(6.30781 0.458945 0)
(6.30673 0.509713 0)
(6.29613 0.553127 0)
(6.26498 0.600695 0)
(6.24739 0.640353 0)
(6.22057 0.659549 0)
(6.22145 0.695716 0)
(6.19347 0.71494 0)
(6.21246 0.742717 0)
(6.21526 0.763648 0)
(6.22622 0.805546 0)
(6.25013 0.815977 0)
(6.26995 0.845295 0)
(6.31698 0.860694 0)
(6.3248 0.89038 0)
(6.40545 0.887133 0)
(6.40711 0.900639 0)
(6.46053 0.876875 0)
(6.44122 0.883804 0)
(6.5071 0.832621 0)
(6.49003 0.839735 0)
(6.56759 0.795018 0)
(6.51185 0.808153 0)
(6.60085 0.73485 0)
(6.50434 0.732612 0)
(6.60509 0.656295 0)
(6.47628 0.655288 0)
(6.5766 0.547424 0)
(6.43337 0.52289 0)
(6.54014 0.406598 0)
(6.38 0.389907 0)
(6.535 0.282741 0)
(6.34243 0.284486 0)
(6.54276 0.188169 0)
(6.31214 0.190935 0)
(6.51555 0.0919345 0)
(6.29829 0.111168 0)
(6.46566 0.0103709 0)
(6.29231 0.0461343 0)
(6.41598 -0.0503394 0)
(6.26306 0.00977738 0)
(6.38114 -0.0940294 0)
(6.22618 -0.012838 0)
(6.35472 -0.140141 0)
(6.17122 -0.0416285 0)
(6.29933 -0.170469 0)
(6.11436 -0.0476206 0)
(6.23908 -0.177446 0)
(6.11912 -0.0406645 0)
(6.20906 -0.162557 0)
(6.1552 -0.0301515 0)
(6.21316 -0.145368 0)
(6.2142 -0.00786569 0)
(6.22604 -0.126749 0)
(6.28308 0.0125796 0)
(6.21622 -0.0954173 0)
(6.33781 0.0276504 0)
(6.2186 -0.0606528 0)
(6.34016 0.0667851 0)
(6.26318 -0.0289995 0)
(6.32935 0.109787 0)
(6.30414 0.0121328 0)
(6.35208 0.140421 0)
(6.33143 0.0653927 0)
(6.37762 0.163091 0)
(6.38245 0.113079 0)
(6.39087 0.188869 0)
(6.44176 0.152256 0)
(6.43293 0.210465 0)
(6.49965 0.185366 0)
(6.48023 0.237635 0)
(6.53609 0.221791 0)
(6.52794 0.266954 0)
(6.55754 0.257331 0)
(6.56905 0.316788 0)
(6.56156 0.311346 0)
(6.59746 0.387614 0)
(6.56261 0.378146 0)
(6.61183 0.466639 0)
(6.55111 0.452178 0)
(6.59502 0.54815 0)
(6.51765 0.530254 0)
(6.55051 0.628201 0)
(6.47197 0.595917 0)
(6.49015 0.696003 0)
(6.42446 0.656498 0)
(6.41672 0.766656 0)
(6.36649 0.731422 0)
(6.35381 0.846916 0)
(6.34909 0.816228 0)
(6.30844 0.943157 0)
(6.3466 0.916236 0)
(6.26341 1.04309 0)
(6.37147 1.00618 0)
(6.21687 1.14507 0)
(6.40729 1.1032 0)
(6.15433 1.26276 0)
(6.42959 1.20218 0)
(6.12252 1.39974 0)
(6.41986 1.3136 0)
(6.10429 1.5588 0)
(6.39823 1.46646 0)
(6.08703 1.75919 0)
(6.35895 1.68544 0)
(6.06135 2.02116 0)
(6.35512 1.99133 0)
(6.03439 2.37606 0)
(6.33285 2.38891 0)
(6.02492 2.83413 0)
(6.32945 2.90628 0)
(6.03367 3.43647 0)
(6.16662 3.65668 0)
(5.89079 4.3593 0)
(6.06238 4.73549 0)
(5.47627 6.00753 0)
(6.98575 6.34075 0)
(4.64512 10.4838 0)
(5.88912 -0.236078 0)
(5.98547 -0.280798 0)
(6.16356 -0.346284 0)
(6.38712 -0.411929 0)
(6.62741 -0.468047 0)
(6.88116 -0.534489 0)
(7.1245 -0.597686 0)
(7.34511 -0.687961 0)
(7.57599 -0.797611 0)
(7.77079 -0.912046 0)
(7.98549 -1.03612 0)
(8.1724 -1.14328 0)
(8.3182 -1.2438 0)
(8.46452 -1.32191 0)
(8.6274 -1.38567 0)
(8.81938 -1.43897 0)
(8.99714 -1.49949 0)
(9.18112 -1.58382 0)
(9.32332 -1.69802 0)
(9.42486 -1.82495 0)
(9.51138 -1.94148 0)
(9.6013 -2.04698 0)
(9.67521 -2.15112 0)
(9.74045 -2.23949 0)
(9.76696 -2.31604 0)
(9.78383 -2.38361 0)
(9.77049 -2.43698 0)
(9.76354 -2.47754 0)
(9.75164 -2.49399 0)
(9.7443 -2.49362 0)
(9.70835 -2.49037 0)
(9.68063 -2.48805 0)
(9.63529 -2.47629 0)
(9.57776 -2.46402 0)
(9.51259 -2.43937 0)
(9.43201 -2.42397 0)
(9.35476 -2.42356 0)
(9.27636 -2.42783 0)
(9.21758 -2.42212 0)
(9.17344 -2.39255 0)
(9.1133 -2.35341 0)
(9.04303 -2.30202 0)
(8.96897 -2.26036 0)
(8.90599 -2.23114 0)
(8.85106 -2.19647 0)
(8.78291 -2.15513 0)
(8.71785 -2.09616 0)
(8.62069 -2.02802 0)
(8.47865 -1.92952 0)
(8.35116 -1.84469 0)
(8.23711 -1.76761 0)
(8.11959 -1.67943 0)
(8.02654 -1.6 0)
(7.93737 -1.50962 0)
(7.85996 -1.41438 0)
(7.79342 -1.33614 0)
(7.73715 -1.26664 0)
(7.65272 -1.17535 0)
(7.57867 -1.07413 0)
(7.47879 -0.965239 0)
(7.38314 -0.839502 0)
(7.26378 -0.735356 0)
(7.16561 -0.647048 0)
(7.0774 -0.569026 0)
(6.98109 -0.499558 0)
(6.89021 -0.437128 0)
(6.79272 -0.380835 0)
(6.70665 -0.333777 0)
(6.62202 -0.297733 0)
(6.54376 -0.261807 0)
(6.48391 -0.231503 0)
(6.42887 -0.207682 0)
(6.39267 -0.191659 0)
(6.36144 -0.169805 0)
(6.327 -0.144549 0)
(6.30367 -0.090935 0)
(6.27874 -0.0230826 0)
(6.26352 0.0451622 0)
(6.22637 0.118709 0)
(6.22279 0.192635 0)
(6.20373 0.267282 0)
(6.1775 0.331288 0)
(6.17524 0.396431 0)
(6.17493 0.457988 0)
(6.17263 0.512699 0)
(6.16541 0.561718 0)
(6.13403 0.612013 0)
(6.11636 0.650353 0)
(6.09348 0.666007 0)
(6.09182 0.70306 0)
(6.0719 0.714419 0)
(6.09175 0.741017 0)
(6.09146 0.758944 0)
(6.10784 0.799375 0)
(6.13698 0.80421 0)
(6.15277 0.833183 0)
(6.20878 0.845544 0)
(6.21427 0.873835 0)
(6.30674 0.866276 0)
(6.30874 0.889219 0)
(6.37815 0.865758 0)
(6.35495 0.875878 0)
(6.43963 0.820099 0)
(6.41135 0.828878 0)
(6.51257 0.785101 0)
(6.44927 0.8045 0)
(6.56497 0.730315 0)
(6.46308 0.737105 0)
(6.57476 0.658201 0)
(6.44396 0.666934 0)
(6.5472 0.549773 0)
(6.40244 0.536904 0)
(6.51449 0.410521 0)
(6.34542 0.397202 0)
(6.50652 0.28303 0)
(6.31395 0.290559 0)
(6.50654 0.190176 0)
(6.2917 0.200653 0)
(6.46495 0.0950588 0)
(6.28559 0.12393 0)
(6.40888 0.0137014 0)
(6.27816 0.056562 0)
(6.35925 -0.0438614 0)
(6.2501 0.0196056 0)
(6.31977 -0.0903578 0)
(6.21793 -0.00220836 0)
(6.28304 -0.13445 0)
(6.16968 -0.0257703 0)
(6.218 -0.162764 0)
(6.11657 -0.0334524 0)
(6.14934 -0.178536 0)
(6.1279 -0.0337062 0)
(6.11242 -0.17132 0)
(6.18063 -0.0275268 0)
(6.10566 -0.160361 0)
(6.25044 -0.00607005 0)
(6.10863 -0.144605 0)
(6.32553 0.0220168 0)
(6.0906 -0.1142 0)
(6.39491 0.0408807 0)