/*--------------------------------*- C++ -*----------------------------------*\
| =========                 |                                                 |
| \\      /  F ield         | OpenFOAM: The Open Source CFD Toolbox           |
|  \\    /   O peration     | Version:  2.4.0                                 |
|   \\  /    A nd           | Web:      www.OpenFOAM.org                      |
|    \\/     M anipulation  |                                                 |
\*---------------------------------------------------------------------------*/
FoamFile
{
    version     2.0;
    format      ascii;
    class       volScalarField;
    location    "0.007";
    object      p;
}
// * * * * * * * * * * * * * * * * * * * * * * * * * * * * * * * * * * * * * //

dimensions      [0 2 -2 0 0 0 0];

internalField   nonuniform List<scalar> 
17600
(
31.1142
30.0169
29.6449
29.4415
29.2388
29.0382
28.8454
28.6578
28.474
28.2938
28.1175
27.9451
27.7766
27.612
27.4512
27.2943
27.1411
26.9927
26.8477
26.7636
29.9869
29.6149
29.4584
29.3421
29.184
29.0074
28.8277
28.6476
28.4682
28.2907
28.116
27.9447
27.7769
27.6128
27.4524
27.2958
27.1427
26.9943
26.8491
26.7256
29.9681
29.7649
29.5678
29.4083
29.2254
29.0336
28.8444
28.6585
28.4755
28.2958
28.1199
27.9478
27.7797
27.6154
27.455
27.2983
27.1453
26.9968
26.8502
26.7185
29.9833
29.779
29.5588
29.3914
29.2109
29.023
28.8371
28.6537
28.4725
28.2942
28.1192
27.9477
27.78
27.6159
27.4556
27.299
27.146
26.9973
26.8492
26.7132
29.9633
29.7658
29.5508
29.3854
29.2081
29.0223
28.8373
28.6543
28.4734
28.2951
28.1201
27.9487
27.7809
27.6168
27.4565
27.2998
27.1467
26.9977
26.8481
26.7101
29.9316
29.7534
29.5473
29.3824
29.2063
29.0214
28.8369
28.6541
28.4734
28.2953
28.1204
27.949
27.7813
27.6172
27.4569
27.3003
27.147
26.9979
26.8471
26.7083
29.9039
29.7449
29.5457
29.3802
29.2047
29.0205
28.8364
28.6539
28.4733
28.2954
28.1206
27.9493
27.7816
27.6176
27.4572
27.3006
27.1472
26.9979
26.8461
26.7073
29.8801
29.7372
29.5438
29.378
29.2031
29.0198
28.8361
28.6538
28.4734
28.2955
28.1208
27.9496
27.7819
27.6179
27.4576
27.3009
27.1474
26.998
26.8454
26.7071
29.8591
29.7296
29.5418
29.376
29.2018
29.0192
28.8359
28.6539
28.4736
28.2958
28.1212
27.9499
27.7823
27.6183
27.4579
27.3012
27.1476
26.9981
26.845
26.7074
29.8404
29.7222
29.5398
29.3742
29.2007
29.0187
28.8358
28.654
28.4738
28.2961
28.1215
27.9503
27.7826
27.6186
27.4583
27.3015
27.1479
26.9982
26.8447
26.7081
29.8238
29.7154
29.5378
29.3725
29.1997
29.0184
28.8358
28.6542
28.4741
28.2965
28.1219
27.9507
27.7831
27.6191
27.4586
27.3019
27.1481
26.9985
26.8447
26.709
29.8092
29.709
29.536
29.371
29.1988
29.0181
28.8358
28.6543
28.4744
28.2969
28.1223
27.9511
27.7835
27.6195
27.459
27.3022
27.1484
26.9987
26.8449
26.7102
29.7966
29.7032
29.5342
29.3697
29.198
29.0178
28.8359
28.6545
28.4747
28.2972
28.1227
27.9516
27.7839
27.6198
27.4594
27.3025
27.1487
26.999
26.8452
26.7115
29.7857
29.6981
29.5326
29.3685
29.1973
29.0176
28.8359
28.6547
28.475
28.2976
28.1231
27.9519
27.7843
27.6202
27.4597
27.3029
27.149
26.9992
26.8456
26.7128
29.7765
29.6936
29.5312
29.3675
29.1967
29.0174
28.8359
28.6549
28.4752
28.2979
28.1234
27.9523
27.7846
27.6205
27.46
27.3031
27.1492
26.9995
26.8461
26.7142
29.769
29.6898
29.5299
29.3667
29.1962
29.0172
28.836
28.655
28.4755
28.2981
28.1237
27.9526
27.7849
27.6208
27.4603
27.3034
27.1494
26.9998
26.8467
26.7156
29.763
29.6868
29.5289
29.366
29.1958
29.0171
28.836
28.6551
28.4756
28.2983
28.1239
27.9528
27.7851
27.6211
27.4605
27.3036
27.1496
27
26.8472
26.7169
29.7586
29.6845
29.5281
29.3654
29.1955
29.017
28.836
28.6552
28.4758
28.2985
28.1241
27.953
27.7853
27.6212
27.4607
27.3038
27.1498
27.0002
26.8478
26.7181
29.7557
29.6829
29.5276
29.3651
29.1953
29.0169
28.836
28.6553
28.4758
28.2986
28.1242
27.9531
27.7854
27.6213
27.4608
27.3039
27.1499
27.0004
26.8484
26.7192
29.7542
29.6822
29.5273
29.3649
29.1952
29.0169
28.836
28.6553
28.4759
28.2987
28.1243
27.9532
27.7855
27.6214
27.4609
27.3039
27.15
27.0005
26.8489
26.7202
29.7542
29.6822
29.5273
29.3649
29.1952
29.0169
28.836
28.6553
28.4759
28.2987
28.1243
27.9532
27.7855
27.6214
27.4609
27.3039
27.15
27.0006
26.8494
26.721
29.7557
29.6829
29.5276
29.3651
29.1953
29.0169
28.836
28.6553
28.4758
28.2986
28.1242
27.9531
27.7854
27.6213
27.4608
27.3038
27.15
27.0006
26.8499
26.7216
29.7586
29.6845
29.5281
29.3655
29.1955
29.017
28.836
28.6552
28.4758
28.2985
28.1241
27.953
27.7853
27.6212
27.4607
27.3037
27.1499
27.0005
26.8502
26.7221
29.763
29.6868
29.5289
29.366
29.1958
29.0171
28.836
28.6551
28.4756
28.2983
28.1239
27.9528
27.7851
27.621
27.4605
27.3035
27.1497
27.0004
26.8506
26.7223
29.769
29.6898
29.5299
29.3667
29.1962
29.0172
28.836
28.655
28.4755
28.2981
28.1237
27.9525
27.7849
27.6208
27.4602
27.3033
27.1495
27.0002
26.8508
26.7223
29.7765
29.6936
29.5312
29.3675
29.1967
29.0174
28.8359
28.6549
28.4752
28.2979
28.1234
27.9523
27.7846
27.6205
27.46
27.303
27.1493
27
26.851
26.722
29.7857
29.6981
29.5326
29.3685
29.1973
29.0176
28.8359
28.6547
28.475
28.2976
28.1231
27.9519
27.7842
27.6201
27.4596
27.3027
27.149
26.9997
26.8511
26.7215
29.7966
29.7032
29.5342
29.3697
29.198
29.0178
28.8359
28.6545
28.4747
28.2972
28.1227
27.9515
27.7838
27.6198
27.4593
27.3024
27.1487
26.9993
26.8511
26.7207
29.8092
29.709
29.536
29.371
29.1988
29.0181
28.8358
28.6543
28.4744
28.2969
28.1223
27.9511
27.7834
27.6194
27.4589
27.302
27.1484
26.999
26.851
26.7195
29.8238
29.7154
29.5378
29.3725
29.1997
29.0184
28.8358
28.6541
28.4741
28.2965
28.1219
27.9507
27.783
27.619
27.4585
27.3016
27.1481
26.9985
26.8509
26.718
29.8404
29.7222
29.5398
29.3742
29.2007
29.0187
28.8358
28.654
28.4738
28.2961
28.1215
27.9503
27.7826
27.6185
27.4581
27.3013
27.1477
26.9981
26.8507
26.7161
29.8591
29.7296
29.5418
29.376
29.2018
29.0192
28.8359
28.6539
28.4736
28.2958
28.1211
27.9499
27.7822
27.6182
27.4577
27.3009
27.1474
26.9977
26.8504
26.7138
29.8801
29.7372
29.5438
29.378
29.2031
29.0198
28.8361
28.6538
28.4734
28.2955
28.1208
27.9495
27.7818
27.6178
27.4574
27.3005
27.147
26.9972
26.85
26.7111
29.9039
29.7449
29.5457
29.3802
29.2047
29.0205
28.8364
28.6539
28.4733
28.2954
28.1206
27.9492
27.7815
27.6174
27.457
27.3002
27.1467
26.9968
26.8495
26.7079
29.9316
29.7534
29.5473
29.3824
29.2063
29.0214
28.8369
28.6541
28.4734
28.2953
28.1204
27.9489
27.7812
27.6171
27.4567
27.2998
27.1464
26.9963
26.8489
26.7042
29.9633
29.7658
29.5508
29.3854
29.2081
29.0223
28.8373
28.6543
28.4734
28.2951
28.1201
27.9486
27.7808
27.6167
27.4562
27.2994
27.1459
26.9957
26.8482
26.6999
29.9833
29.779
29.5588
29.3914
29.2109
29.023
28.8371
28.6537
28.4725
28.2942
28.1192
27.9477
27.7799
27.6158
27.4554
27.2985
27.1451
26.9948
26.8471
26.6952
29.9681
29.7649
29.5678
29.4083
29.2254
29.0336
28.8444
28.6585
28.4755
28.2958
28.1199
27.9478
27.7796
27.6153
27.4547
27.2978
27.1443
26.9939
26.8459
26.6908
29.9869
29.6149
29.4584
29.3421
29.1841
29.0074
28.8277
28.6476
28.4682
28.2907
28.116
27.9447
27.7768
27.6126
27.4521
27.2952
27.1416
26.9912
26.8431
26.6864
31.1142
30.0169
29.6449
29.4415
29.2388
29.0382
28.8454
28.6578
28.474
28.2938
28.1175
27.945
27.7765
27.6118
27.4509
27.2938
27.14
26.9894
26.8413
26.6844
26.4351
26.4887
26.3415
26.2439
26.1919
26.1529
26.1207
26.0934
26.0687
26.0448
26.0206
25.9955
25.9691
25.9416
25.9132
25.8838
25.8538
25.8237
25.7937
25.7643
25.7357
25.7081
25.6821
25.6579
25.6362
25.6171
25.6011
25.5887
25.5803
25.5763
25.5771
25.5833
25.5953
25.6134
25.6382
25.67
25.7093
25.7564
25.8116
25.8754
25.9478
26.0292
26.1196
26.2192
26.328
26.4459
26.5729
26.7089
26.8537
27.0071
27.1689
27.339
27.5169
27.7027
27.8959
28.0963
28.3038
28.518
28.7389
28.9661
29.1996
29.4392
29.6846
29.9359
30.1929
30.4555
30.7236
30.9971
31.276
31.5603
31.8498
32.1446
32.4444
32.7494
33.0593
33.3741
33.6936
34.0178
34.3464
34.6792
35.0161
35.3569
35.7012
36.0487
36.3992
36.7523
37.1076
37.4646
37.823
38.1823
38.542
38.9016
39.2605
39.6182
39.9741
40.3276
40.678
41.0248
41.3672
41.7046
42.0362
42.3613
42.6792
42.989
43.2901
43.5816
43.8627
44.1327
44.3909
44.6364
44.8689
45.0876
45.2923
45.4826
45.6585
45.8198
45.9667
46.0995
46.2185
46.3241
46.4169
46.4972
46.5659
46.6234
46.6704
46.7076
46.7355
46.7549
46.7664
46.7705
46.7679
46.7592
46.7448
46.7254
46.7014
46.6734
46.6416
46.6065
46.5689
46.529
46.4869
46.4428
46.3971
46.3499
46.3015
46.2521
46.2019
46.1511
46.0998
46.0481
45.9961
45.944
45.8918
45.8396
45.7873
45.7351
45.6829
45.6306
45.5784
45.526
45.4735
45.4207
45.3675
45.3137
45.2591
45.2036
45.1468
45.0886
45.0284
44.966
44.9009
44.8325
44.7603
44.6835
44.6014
44.513
44.4172
44.3128
44.1984
44.0721
43.932
43.7757
43.6003
43.4024
43.1778
42.9214
42.6266
42.2852
41.8865
41.4164
40.8558
40.179
39.3516
38.3222
37.0305
35.3387
33.1844
29.8581
25.9439
9.30191
26.4243
26.3574
26.2781
26.2388
26.2253
26.2111
26.1916
26.1682
26.142
26.1136
26.0836
26.0528
26.0215
25.9902
25.9589
25.9277
25.8968
25.8661
25.836
25.8066
25.7782
25.751
25.7253
25.7016
25.6804
25.6619
25.6466
25.6349
25.6273
25.6241
25.6258
25.6329
25.6457
25.6648
25.6904
25.7231
25.7632
25.811
25.8669
25.9312
26.0042
26.0859
26.1767
26.2764
26.3853
26.5031
26.63
26.7657
26.9101
27.0631
27.2244
27.3938
27.5711
27.7561
27.9484
28.148
28.3545
28.5678
28.7877
29.0139
29.2463
29.4847
29.729
29.9791
30.2349
30.4963
30.7631
31.0354
31.3131
31.5961
31.8843
32.1778
32.4763
32.7799
33.0885
33.402
33.7202
34.043
34.3702
34.7018
35.0373
35.3767
35.7196
36.0658
36.415
36.7667
37.1207
37.4764
37.8335
38.1916
38.55
38.9084
39.2662
39.6228
39.9777
40.3302
40.6798
41.0258
41.3676
41.7045
42.0358
42.3609
42.6788
42.989
43.2907
43.583
43.8652
44.1365
44.3961
44.6434
44.8776
45.0982
45.3047
45.4968
45.6743
45.8371
45.9852
46.119
46.2387
46.3447
46.4375
46.5178
46.586
46.643
46.6893
46.7256
46.7525
46.7708
46.7811
46.784
46.7802
46.7702
46.7545
46.7339
46.7086
46.6793
46.6463
46.61
46.5712
46.5302
46.487
46.4418
46.3949
46.3466
46.2971
46.2465
46.1952
46.1432
46.0907
46.0378
45.9847
45.9313
45.8778
45.8242
45.7705
45.7168
45.663
45.6091
45.555
45.5008
45.4462
45.3912
45.3356
45.2792
45.2219
45.1634
45.1033
45.0415
44.9775
44.9108
44.841
44.7675
44.6896
44.6066
44.5176
44.4216
44.3175
44.2037
44.0789
43.941
43.788
43.6171
43.4252
43.2087
42.9628
42.6818
42.3586
41.9837
41.5452
41.0267
40.4065
39.654
38.7278
37.5653
36.0856
34.1202
31.517
27.5095
21.8065
7.12632
26.4698
26.399
26.3428
26.3003
26.2715
26.2453
26.2191
26.1939
26.1693
26.1445
26.119
26.0922
26.064
26.0345
26.0039
25.9724
25.9406
25.9089
25.8777
25.8474
25.8185
25.7911
25.7656
25.7424
25.7218
25.7042
25.6898
25.6791
25.6724
25.6702
25.673
25.6811
25.6949
25.7149
25.7415
25.7751
25.816
25.8646
25.9213
25.9862
26.0597
26.1419
26.2329
26.3329
26.4418
26.5597
26.6864
26.8219
26.966
27.1186
27.2794
27.4482
27.6249
27.8091
28.0008
28.1995
28.4052
28.6176
28.8365
29.0617
29.2931
29.5304
29.7737
30.0227
30.2774
30.5376
30.8033
31.0745
31.3509
31.6327
31.9197
32.2119
32.5092
32.8116
33.1188
33.431
33.7478
34.0693
34.3952
34.7253
35.0595
35.3975
35.739
36.0837
36.4314
36.7817
37.1342
37.4885
37.8442
38.2008
38.5578
38.9148
39.2712
39.6265
39.9801
40.3314
40.6799
41.0249
41.3657
41.7019
42.0325
42.3571
42.6749
42.985
43.2869
43.5797
43.8627
44.135
44.3959
44.6446
44.8805
45.1029
45.3114
45.5054
45.6847
45.8491
45.9988
46.1338
46.2544
46.3611
46.4543
46.5347
46.6029
46.6595
46.7052
46.7408
46.7669
46.7843
46.7935
46.7954
46.7904
46.7792
46.7625
46.7406
46.7142
46.6837
46.6496
46.6122
46.5724
46.5303
46.486
46.4398
46.3918
46.3424
46.2919
46.2403
46.1879
46.1348
46.0812
46.0271
45.9728
45.9181
45.8633
45.8084
45.7533
45.6981
45.6427
45.5871
45.5313
45.4751
45.4184
45.3612
45.3032
45.2442
45.1841
45.1225
45.0591
44.9936
44.9255
44.8545
44.7799
44.7011
44.6174
44.528
44.432
44.3282
44.2153
44.092
43.9565
43.8067
43.6403
43.4545
43.2458
43.0101
42.7423
42.4363
42.0839
41.6749
41.1958
40.6284
39.948
39.1198
38.0959
36.8039
35.1451
32.9318
29.9454
25.4885
18.8838
7.69447
26.4868
26.4053
26.3473
26.3015
26.2688
26.2425
26.2185
26.1955
26.1727
26.1495
26.1255
26.1007
26.0751
26.0488
26.0219
25.9945
25.9667
25.9387
25.9107
25.883
25.856
25.83
25.8055
25.783
25.7628
25.7456
25.7317
25.7215
25.7156
25.7143
25.718
25.7271
25.742
25.7631
25.7908
25.8253
25.8672
25.9167
25.9741
26.0398
26.1138
26.1965
26.2879
26.3881
26.4972
26.615
26.7417
26.877
27.0208
27.173
27.3334
27.5017
27.6778
27.8614
28.0523
28.2503
28.4551
28.6667
28.8847
29.109
29.3395
29.5759
29.8182
30.0662
30.3199
30.5791
30.8437
31.1138
31.3891
31.6698
31.9556
32.2466
32.5427
32.8439
33.1499
33.4607
33.7763
34.0964
34.4209
34.7496
35.0824
35.4189
35.7589
36.1022
36.4484
36.7971
37.148
37.5007
37.8548
38.2098
38.5653
38.9206
39.2755
39.6292
39.9813
40.3311
40.6782
41.0219
41.3615
41.6965
42.0262
42.35
42.6672
42.977
43.2787
43.5716
43.855
44.128
44.3899
44.64
44.8775
45.1017
45.312
45.508
45.6893
45.8557
46.0071
46.1437
46.2656
46.3733
46.4674
46.5482
46.6165
46.6731
46.7186
46.7537
46.7792
46.7958
46.8042
46.8051
46.7991
46.7869
46.7691
46.7462
46.7187
46.6872
46.652
46.6136
46.5728
46.5298
46.4844
46.4372
46.3882
46.3378
46.2862
46.2336
46.1801
46.126
46.0712
46.0161
45.9605
45.9047
45.8486
45.7923
45.7358
45.6791
45.6221
45.5648
45.5072
45.449
45.3903
45.3307
45.2703
45.2086
45.1456
45.0808
45.014
44.9447
44.8726
44.797
44.7175
44.6333
44.5436
44.4477
44.3444
44.2326
44.1109
43.9777
43.8312
43.6693
43.4892
43.288
43.0621
42.8068
42.5168
42.1851
41.8031
41.3595
40.8395
40.223
39.4825
38.5798
37.461
36.0459
34.222
31.7926
28.4975
23.7625
16.6675
7.02797
26.502
26.4188
26.3645
26.3222
26.289
26.2612
26.2355
26.2105
26.1857
26.1608
26.1356
26.1098
26.0836
26.0569
26.03
26.0029
25.9759
25.9492
25.9231
25.8979
25.8738
25.851
25.8299
25.8107
25.7939
25.7796
25.7684
25.7605
25.7565
25.7568
25.7619
25.7722
25.7881
25.8101
25.8387
25.8741
25.9168
25.9671
26.0252
26.0915
26.1662
26.2493
26.3411
26.4416
26.5508
26.6687
26.7953
26.9305
27.074
27.2259
27.3858
27.5537
27.7292
27.9122
28.1025
28.2998
28.504
28.7148
28.932
29.1555
29.3851
29.6207
29.8621
30.1093
30.362
30.6203
30.884
31.153
31.4274
31.707
31.9918
32.2817
32.5766
32.8766
33.1814
33.491
33.8053
34.1241
34.4472
34.7745
35.1058
35.4409
35.7794
36.1211
36.4656
36.8127
37.162
37.513
37.8653
38.2186
38.5722
38.9259
39.2789
39.6309
39.9812
40.3293
40.6747
41.0168
41.3549
41.6885
42.017
42.3396
42.6558
42.9648
43.266
43.5587
43.8421
44.1155
44.3781
44.6292
44.868
45.0938
45.306
45.504
45.6874
45.8559
46.0094
46.1478
46.2714
46.3806
46.4757
46.5574
46.6262
46.6831
46.7286
46.7635
46.7886
46.8047
46.8124
46.8126
46.8058
46.7928
46.774
46.7502
46.7218
46.6893
46.6531
46.6139
46.5723
46.5283
46.482
46.4338
46.3839
46.3325
46.28
46.2264
46.1719
46.1167
46.0609
46.0047
45.948
45.891
45.8336
45.776
45.7181
45.6599
45.6013
45.5423
45.4828
45.4227
45.3618
45.2999
45.237
45.1726
45.1066
45.0386
44.9683
44.8952
44.8188
44.7387
44.6541
44.5643
44.4686
44.3659
44.2552
44.1352
44.0045
43.8612
43.7036
43.5291
43.3352
43.1184
42.8748
42.5996
42.287
41.9294
41.5175
41.0391
40.4781
39.8127
39.0133
38.0382
36.8289
35.2996
33.3283
30.7175
27.1856
22.2823
14.9842
6.06946
26.5134
26.4301
26.3775
26.3362
26.3011
26.271
26.2435
26.2175
26.1922
26.1672
26.1421
26.1167
26.091
26.0651
26.039
26.0128
25.9868
25.9611
25.936
25.9117
25.8886
25.867
25.8471
25.8293
25.8141
25.8018
25.7927
25.7873
25.7859
25.7889
25.7966
25.8094
25.8278
25.852
25.8826
25.9197
25.9639
26.0154
26.0746
26.1417
26.2169
26.3006
26.3927
26.4934
26.6027
26.7207
26.8472
26.9822
27.1255
27.2771
27.4366
27.604
27.779
27.9615
28.1512
28.3479
28.5514
28.7615
28.978
29.2008
29.4297
29.6645
29.9052
30.1515
30.4034
30.6609
30.9237
31.1919
31.4653
31.744
32.0278
32.3167
32.6106
32.9095
33.2131
33.5216
33.8346
34.1521
34.4739
34.7998
35.1297
35.4632
35.8001
36.1402
36.4831
36.8285
37.1759
37.5251
37.8756
38.227
38.5787
38.9304
39.2815
39.6315
39.9799
40.3261
40.6696
41.0098
41.3461
41.678
42.0048
42.326
42.6408
42.9487
43.2491
43.5411
43.8242
44.0975
44.3605
44.6122
44.8521
45.0793
45.2932
45.4932
45.6787
45.8495
46.0052
46.1458
46.2715
46.3824
46.4791
46.562
46.6319
46.6894
46.7352
46.7703
46.7954
46.8112
46.8186
46.8182
46.8108
46.797
46.7775
46.7529
46.7237
46.6903
46.6533
46.6133
46.571
46.5261
46.479
46.4299
46.3791
46.3269
46.2734
46.2188
46.1634
46.1072
46.0504
45.9931
45.9352
45.877
45.8184
45.7595
45.7002
45.6405
45.5803
45.5195
45.4582
45.396
45.333
45.2688
45.2033
45.1361
45.0671
44.9958
44.9219
44.8449
44.7643
44.6794
44.5897
44.4942
44.3923
44.2828
44.1645
44.0361
43.8961
43.7427
43.5736
43.3865
43.1783
42.9457
42.6842
42.3889
42.0534
41.6697
41.2277
40.7145
40.1128
39.3994
38.5425
37.4981
36.204
34.571
32.4718
29.7147
26.013
21.0255
13.7546
5.43298
26.5226
26.4407
26.39
26.3497
26.3139
26.2825
26.2542
26.2274
26.2016
26.1761
26.1508
26.1253
26.0998
26.0741
26.0485
26.0229
25.9977
25.9729
25.9489
25.9259
25.9041
25.8838
25.8655
25.8493
25.8356
25.8248
25.8173
25.8133
25.8134
25.8179
25.8271
25.8415
25.8615
25.8874
25.9197
25.9586
26.0045
26.0576
26.1183
26.1868
26.2634
26.348
26.441
26.5424
26.6522
26.7705
26.8971
27.0321
27.1753
27.3266
27.4858
27.6528
27.8273
28.0093
28.1984
28.3945
28.5974
28.8069
29.0228
29.245
29.4732
29.7073
29.9473
30.1929
30.4441
30.7008
30.9629
31.2303
31.503
31.7808
32.0637
32.3517
32.6446
32.9424
33.245
33.5523
33.8642
34.1804
34.5009
34.8254
35.1538
35.4858
35.8212
36.1596
36.5007
36.8443
37.1899
37.5372
37.8858
38.2351
38.5848
38.9344
39.2834
39.6312
39.9775
40.3215
40.6629
41.001
41.3352
41.6651
41.99
42.3094
42.6226
42.929
43.2281
43.5191
43.8014
44.0743
44.3371
44.5892
44.8297
45.058
45.2734
45.4752
45.6629
45.836
45.9941
46.1372
46.2652
46.3784
46.477
46.5617
46.6329
46.6915
46.7382
46.7738
46.7991
46.815
46.8223
46.8216
46.8138
46.7996
46.7795
46.7542
46.7244
46.6903
46.6526
46.612
46.569
46.5233
46.4754
46.4255
46.3739
46.3208
46.2665
46.211
46.1547
46.0975
46.0397
45.9813
45.9224
45.863
45.8032
45.7429
45.6822
45.6209
45.5591
45.4967
45.4334
45.3692
45.304
45.2374
45.1693
45.0994
45.0273
44.9526
44.8751
44.7941
44.709
44.6194
44.5244
44.4232
44.3149
44.1984
44.0724
43.9356
43.7862
43.6223
43.4417
43.2417
43.0192
42.7704
42.491
42.1753
41.8167
41.4068
40.9348
40.387
39.7452
38.9848
38.0727
36.9627
35.5907
33.8656
31.659
28.7892
24.9782
19.9761
12.8786
5.11661
26.5305
26.4506
26.4014
26.3619
26.3256
26.2932
26.2639
26.2364
26.2099
26.1841
26.1586
26.1331
26.1078
26.0825
26.0574
26.0326
26.0082
25.9844
25.9615
25.9396
25.9191
25.9002
25.8833
25.8686
25.8565
25.8474
25.8415
25.8393
25.8411
25.8473
25.8582
25.8743
25.8959
25.9233
25.957
25.9972
26.0443
26.0985
26.1603
26.2297
26.3071
26.3925
26.4861
26.5881
26.6984
26.817
26.9439
27.0791
27.2223
27.3736
27.5327
27.6995
27.8738
28.0554
28.2442
28.4398
28.6423
28.8512
29.0666
29.2882
29.5158
29.7494
29.9888
30.2338
30.4844
30.7404
31.0018
31.2685
31.5404
31.8175
32.0996
32.3868
32.6788
32.9757
33.2773
33.5835
33.8941
34.2092
34.5283
34.8515
35.1785
35.5089
35.8427
36.1794
36.5188
36.8605
37.2043
37.5496
37.896
38.2433
38.5908
38.9382
39.2849
39.6304
39.9743
40.3161
40.6551
40.9908
41.3228
41.6505
41.9732
42.2904
42.6017
42.9062
43.2036
43.4932
43.7743
44.0463
44.3086
44.5604
44.8012
45.0302
45.2467
45.4501
45.6397
45.8151
45.9757
46.1214
46.2521
46.3678
46.4689
46.5556
46.6288
46.6889
46.7369
46.7735
46.7995
46.8158
46.8233
46.8227
46.8148
46.8002
46.7798
46.7541
46.7238
46.6892
46.6509
46.6099
46.5662
46.5199
46.4713
46.4207
46.3683
46.3144
46.2592
46.203
46.1457
46.0876
46.0289
45.9694
45.9094
45.8489
45.7879
45.7263
45.6641
45.6014
45.5379
45.4737
45.4086
45.3424
45.2749
45.2059
45.1351
45.0623
44.9871
44.9091
44.8278
44.7428
44.6533
44.5588
44.4585
44.3514
44.2367
44.1131
43.9793
43.8338
43.6749
43.5004
43.3081
43.0951
42.8581
42.5931
42.2955
41.9594
41.5778
41.1417
40.64
40.0581
39.377
38.5712
37.6065
36.4354
34.9927
33.1877
30.8941
27.9431
24.0751
19.1142
12.27
5.02854
26.5376
26.4598
26.412
26.3731
26.3366
26.3035
26.2735
26.2454
26.2184
26.1923
26.1666
26.1412
26.1161
26.0912
26.0665
26.0424
26.0187
25.9958
25.9739
25.9531
25.9338
25.9163
25.9007
25.8875
25.8769
25.8693
25.8651
25.8645
25.868
25.8758
25.8885
25.9062
25.9294
25.9585
25.9937
26.0354
26.0839
26.1395
26.2024
26.2729
26.3512
26.4374
26.5317
26.6341
26.7448
26.8636
26.9906
27.1258
27.269
27.4201
27.5789
27.7455
27.9194
28.1007
28.289
28.4843
28.6863
28.8948
29.1097
29.3309
29.5581
29.7911
30.03
30.2745
30.5246
30.7801
31.0409
31.307
31.5783
31.8547
32.1361
32.4224
32.7137
33.0096
33.3103
33.6154
33.925
34.2388
34.5568
34.8786
35.2041
35.533
35.8651
36.2002
36.5378
36.8776
37.2194
37.5626
37.907
38.252
38.5972
38.9423
39.2866
39.6297
39.9711
40.3103
40.6468
40.98
41.3095
41.6346
41.9549
42.2698
42.5787
42.8811
43.1765
43.4642
43.7436
44.0143
44.2755
44.5267
44.7673
44.9964
45.2136
45.4182
45.6094
45.7868
45.9499
46.0982
46.2317
46.3502
46.454
46.5434
46.6189
46.6811
46.7309
46.7689
46.796
46.8132
46.8213
46.8211
46.8133
46.7988
46.7783
46.7524
46.7218
46.6868
46.6482
46.6069
46.5627
46.5158
46.4666
46.4153
46.3623
46.3077
46.2518
46.1947
46.1366
46.0777
46.018
45.9575
45.8965
45.8348
45.7725
45.7097
45.6461
45.5819
45.5168
45.4508
45.3838
45.3155
45.2457
45.1743
45.1009
45.0252
44.9468
44.8654
44.7803
44.6912
44.5972
44.4978
44.392
44.279
44.1578
44.027
43.8853
43.7311
43.5625
43.3774
43.1733
42.9471
42.6955
42.4143
42.0985
41.742
41.3374
40.8754
40.3443
39.729
39.0097
38.1605
37.1461
35.9188
34.4134
32.5409
30.1797
27.1761
23.2942
18.4173
11.8689
5.11191
26.5441
26.4683
26.4219
26.3836
26.347
26.3133
26.2827
26.2541
26.2268
26.2003
26.1745
26.1492
26.1242
26.0997
26.0756
26.052
26.0291
26.0071
25.9861
25.9664
25.9483
25.9319
25.9177
25.9058
25.8967
25.8906
25.8879
25.8889
25.8939
25.9034
25.9176
25.937
25.9618
25.9924
26.0291
26.0723
26.1222
26.1791
26.2432
26.3149
26.3942
26.4814
26.5765
26.6796
26.7908
26.9101
27.0374
27.1728
27.316
27.4671
27.6259
27.7922
27.9659
28.1469
28.3349
28.5297
28.7313
28.9393
29.1538
29.3744
29.6011
29.8337
30.0721
30.3161
30.5657
30.8206
31.081
31.3465
31.6172
31.893
32.1738
32.4594
32.7498
33.045
33.3447
33.6489
33.9574
34.2701
34.5868
34.9073
35.2313
35.5588
35.8892
36.2225
36.5583
36.8962
37.236
37.5771
37.9193
38.262
38.6049
38.9475
39.2893
39.6298
39.9686
40.3052
40.639
40.9695
41.2962
41.6187
41.9363
42.2485
42.5548
42.8547
43.1477
43.4332
43.7106
43.9794
44.2391
44.4891
44.7288
44.9576
45.1749
45.38
45.5724
45.7515
45.9167
46.0676
46.2038
46.3254
46.4322
46.5245
46.6028
46.6676
46.7196
46.7595
46.7883
46.8069
46.816
46.8165
46.8093
46.7952
46.7749
46.749
46.7183
46.6831
46.6445
46.6029
46.5584
46.5111
46.4613
46.4095
46.3559
46.3007
46.2441
46.1863
46.1274
46.0676
46.007
45.9456
45.8836
45.8208
45.7573
45.6931
45.6282
45.5625
45.4958
45.428
45.359
45.2887
45.2167
45.1428
45.0667
44.9881
44.9065
44.8216
44.7327
44.6394
44.5409
44.4365
44.3253
44.2063
44.0784
43.9404
43.7907
43.6277
43.4494
43.2536
43.0376
42.7983
42.5321
42.2346
41.9006
41.5238
41.0964
40.6088
40.0489
39.401
38.6451
37.7546
36.6939
35.4156
33.8554
31.9276
29.517
26.4858
22.6248
17.8634
11.6315
5.32636
26.5501
26.4764
26.4311
26.3933
26.3567
26.3228
26.2917
26.2626
26.235
26.2083
26.1824
26.1571
26.1324
26.1082
26.0845
26.0615
26.0394
26.0181
25.9981
25.9794
25.9624
25.9473
25.9343
25.9238
25.916
25.9113
25.9101
25.9125
25.9191
25.9301
25.9458
25.9667
25.993
26.025
26.0632
26.1077
26.1589
26.2171
26.2824
26.3552
26.4355
26.5235
26.6194
26.7233
26.8351
26.9549
27.0826
27.2183
27.3618
27.5131
27.6719
27.8383
28.0119
28.1928
28.3806
28.5753
28.7766
28.9844
29.1985
29.4189
29.6452
29.8775
30.1155
30.3591
30.6082
30.8628
31.1226
31.3877
31.6579
31.9331
32.2132
32.4982
32.7879
33.0823
33.3812
33.6844
33.9919
34.3035
34.619
34.9382
35.2608
35.5867
35.9156
36.2472
36.5811
36.9171
37.2548
37.5938
37.9337
38.2741
38.6145
38.9546
39.2938
39.6317
39.9678
40.3015
40.6325
40.9602
41.284
41.6036
41.9183
42.2277
42.5312
42.8283
43.1186
43.4015
43.6765
43.9431
44.2008
44.449
44.6873
44.9151
45.1318
45.3369
45.5298
45.7099
45.8768
46.0298
46.1687
46.2932
46.4032
46.4987
46.5802
46.6479
46.7026
46.7451
46.776
46.7963
46.8069
46.8087
46.8024
46.789
46.7692
46.7437
46.7131
46.6781
46.6397
46.598
46.5532
46.5056
46.4555
46.4033
46.3491
46.2933
46.2361
46.1777
46.1181
46.0576
45.9961
45.9338
45.8707
45.8069
45.7422
45.6768
45.6105
45.5432
45.4749
45.4054
45.3345
45.262
45.1877
45.1114
45.0326
44.951
44.8663
44.7778
44.6851
44.5876
44.4845
44.3751
44.2584
44.1333
43.9988
43.8535
43.6958
43.524
43.336
43.1294
42.9015
42.649
42.3682
42.0545
41.7024
41.3055
40.8557
40.343
39.7549
39.0756
38.2846
37.3551
36.2519
34.9279
33.3208
31.3492
28.9059
25.8686
22.0558
17.432
11.5232
5.63737
26.5558
26.4839
26.4397
26.4024
26.3659
26.3317
26.3003
26.271
26.243
26.2162
26.1902
26.165
26.1405
26.1166
26.0934
26.071
26.0495
26.0291
26.0099
25.9922
25.9762
25.9622
25.9505
25.9412
25.9348
25.9315
25.9316
25.9355
25.9435
25.9559
25.9731
25.9954
26.0231
26.0565
26.096
26.1419
26.1943
26.2536
26.3201
26.3938
26.4751
26.564
26.6606
26.7651
26.8775
26.9977
27.1259
27.2619
27.4056
27.5571
27.716
27.8824
28.0561
28.2369
28.4247
28.6193
28.8205
29.0282
29.2422
29.4624
29.6885
29.9206
30.1584
30.4018
30.6507
30.905
31.1646
31.4293
31.6992
31.974
32.2537
32.5381
32.8273
33.121
33.4191
33.7215
34.0281
34.3387
34.653
34.971
35.2923
35.6167
35.944
36.2739
36.6061
36.9402
37.2758
37.6127
37.9503
38.2884
38.6264
38.9639
39.3005
39.6357
39.969
40.2999
40.628
40.9527
41.2736
41.5901
41.9019
42.2082
42.5088
42.803
43.0904
43.3704
43.6427
43.9067
44.162
44.408
44.6444
44.8705
45.086
45.2903
45.483
45.6635
45.8313
45.986
46.127
46.2542
46.3671
46.466
46.5507
46.6218
46.6797
46.725
46.7586
46.7813
46.7939
46.7973
46.7924
46.7801
46.7611
46.7363
46.7062
46.6717
46.6337
46.5921
46.5472
46.4994
46.4491
46.3965
46.342
46.2858
46.228
46.169
46.1088
46.0475
45.9852
45.9221
45.858
45.7931
45.7274
45.6607
45.593
45.5242
45.4543
45.383
45.3102
45.2356
45.1591
45.0802
44.9987
44.9142
44.8262
44.7342
44.6377
44.536
44.4283
44.3138
44.1915
44.0604
43.9193
43.7666
43.6009
43.4202
43.2224
43.0051
42.7653
42.4997
42.2044
41.8746
41.5047
41.0879
40.616
40.0788
39.4635
38.754
37.9297
36.9639
35.8217
34.4574
32.8112
30.8067
28.3453
25.3201
21.5763
17.1049
11.516
6.01647
26.5612
26.491
26.4478
26.411
26.3746
26.3403
26.3087
26.2791
26.2509
26.2239
26.198
26.1728
26.1485
26.1249
26.1021
26.0803
26.0594
26.0398
26.0214
26.0047
25.9897
25.9768
25.9662
25.9582
25.953
25.951
25.9524
25.9577
25.9671
25.9809
25.9995
26.0231
26.0522
26.0869
26.1277
26.1747
26.2284
26.2888
26.3563
26.431
26.5131
26.6028
26.7001
26.8052
26.9181
27.0388
27.1673
27.3036
27.4476
27.5991
27.7582
27.9246
28.0983
28.2791
28.4668
28.6613
28.8624
29.07
29.2839
29.5039
29.73
29.9619
30.1996
30.4428
30.6916
30.9457
31.2051
31.4697
31.7392
32.0138
32.2931
32.5772
32.8659
33.1591
33.4566
33.7584
34.0642
34.3739
34.6872
35.0041
35.3242
35.6473
35.9732
36.3015
36.632
36.9642
37.2979
37.6328
37.9682
38.304
38.6396
38.9747
39.3087
39.6412
39.9718
40.2999
40.6251
40.9469
41.2648
41.5784
41.887
42.1904
42.4879
42.7791
43.0635
43.3407
43.6101
43.8713
44.124
44.3675
44.6015
44.8256
45.0393
45.2422
45.4339
45.614
45.7819
45.9374
46.0799
46.2091
46.3247
46.4266
46.5147
46.5893
46.6506
46.6993
46.7359
46.7614
46.7765
46.782
46.779
46.7682
46.7505
46.7266
46.6975
46.6639
46.6263
46.585
46.5402
46.4924
46.442
46.3892
46.3345
46.2779
46.2198
46.1602
46.0994
46.0375
45.9745
45.9105
45.8455
45.7796
45.7127
45.6448
45.5758
45.5056
45.434
45.361
45.2862
45.2096
45.1308
45.0494
44.9652
44.8777
44.7865
44.691
44.5906
44.4846
44.3723
44.2527
44.125
43.9878
43.84
43.68
43.5062
43.3167
43.1092
42.8812
42.6296
42.3509
42.0412
41.6955
41.308
40.8718
40.3783
39.8173
39.1757
38.4374
37.5817
36.5823
35.405
34.0058
32.3278
30.3002
27.8336
24.8355
21.176
16.8656
11.5873
6.44141
26.5663
26.4977
26.4554
26.419
26.3828
26.3485
26.3167
26.2869
26.2586
26.2315
26.2055
26.1805
26.1563
26.1331
26.1107
26.0894
26.0692
26.0502
26.0327
26.0169
26.0029
25.991
25.9815
25.9746
25.9706
25.9699
25.9726
25.9792
25.9899
26.005
26.0249
26.0498
26.0802
26.1162
26.1582
26.2064
26.2612
26.3226
26.3911
26.4667
26.5497
26.6401
26.7381
26.8438
26.9572
27.0783
27.2071
27.3436
27.4878
27.6395
27.7986
27.9651
28.1387
28.3195
28.5071
28.7015
28.9025
29.1099
29.3237
29.5436
29.7695
30.0013
30.2388
30.4819
30.7305
30.9845
31.2437
31.508
31.7773
32.0516
32.3307
32.6144
32.9027
33.1954
33.4924
33.7936
34.0987
34.4076
34.7201
35.0359
35.3549
35.6768
36.0014
36.3283
36.6571
36.9877
37.3196
37.6525
37.986
38.3196
38.6529
38.9856
39.3172
39.6471
39.975
40.3004
40.6229
40.9418
41.2569
41.5675
41.8733
42.1736
42.4682
42.7564
43.0379
43.3122
43.5787
43.8372
44.0871
44.3281
44.5597
44.7815
44.9931
45.1942
45.3844
45.5633
45.7307
45.886
46.0291
46.1596
46.2771
46.3815
46.4727
46.5506
46.6154
46.6677
46.7078
46.7364
46.7545
46.7626
46.7619
46.7531
46.737
46.7146
46.6868
46.6543
46.6175
46.5766
46.5322
46.4846
46.4343
46.3815
46.3266
46.2698
46.2113
46.1514
46.0901
46.0276
45.9639
45.8991
45.8333
45.7664
45.6984
45.6293
45.559
45.4873
45.4142
45.3394
45.2627
45.184
45.1029
45.019
44.9321
44.8417
44.7472
44.6482
44.5439
44.4337
44.3168
44.1922
44.0589
43.9156
43.7612
43.5939
43.4121
43.2138
42.9966
42.7579
42.4946
42.2031
41.8792
41.5178
41.1131
40.6578
40.1434
39.5594
38.8926
38.1269
37.2419
36.2117
35.0031
33.5741
31.8713
29.8294
27.3686
24.4097
20.8453
16.6998
11.7188
6.89521
26.5711
26.504
26.4626
26.4266
26.3907
26.3564
26.3245
26.2945
26.2661
26.2389
26.213
26.188
26.1641
26.1411
26.1192
26.0983
26.0787
26.0605
26.0437
26.0287
26.0157
26.0048
25.9963
25.9906
25.9877
25.9882
25.9921
25.9999
26.0119
26.0283
26.0494
26.0756
26.1072
26.1444
26.1876
26.2369
26.2927
26.3552
26.4246
26.5011
26.5848
26.676
26.7746
26.8808
26.9947
27.1162
27.2453
27.3821
27.5264
27.6782
27.8374
28.0039
28.1776
28.3582
28.5458
28.74
28.9409
29.1482
29.3618
29.5815
29.8073
30.0389
30.2762
30.5192
30.7676
31.0214
31.2804
31.5445
31.8136
32.0876
32.3663
32.6497
32.9376
33.2298
33.5263
33.8268
34.1313
34.4394
34.751
35.0659
35.3839
35.7047
36.0279
36.3534
36.6808
37.0098
37.34
37.671
38.0026
38.3341
38.6653
38.9957
39.3249
39.6525
39.9779