/*--------------------------------*- C++ -*----------------------------------*\
| =========                 |                                                 |
| \\      /  F ield         | OpenFOAM: The Open Source CFD Toolbox           |
|  \\    /   O peration     | Version:  2.4.0                                 |
|   \\  /    A nd           | Web:      www.OpenFOAM.org                      |
|    \\/     M anipulation  |                                                 |
\*---------------------------------------------------------------------------*/
FoamFile
{
    version     2.0;
    format      ascii;
    class       volScalarField;
    location    "0.065";
    object      k;
}
// * * * * * * * * * * * * * * * * * * * * * * * * * * * * * * * * * * * * * //

dimensions      [0 2 -2 0 0 0 0];

internalField   nonuniform List<scalar> 
17600
(
0.590242
0.786977
0.938817
1.04137
1.10104
1.12787
1.13171
1.12067
1.10079
1.07629
1.04998
1.0237
0.998582
0.975294
0.954206
0.935476
0.919116
0.905032
0.892868
0.88451
0.380328
0.378528
0.375866
0.373344
0.371175
0.369843
0.369905
0.37184
0.376008
0.382642
0.391864
0.403677
0.417972
0.434523
0.452991
0.472935
0.493839
0.515156
0.536769
0.556291
0.363748
0.349867
0.334429
0.31855
0.303052
0.288614
0.275769
0.264896
0.256243
0.249955
0.246108
0.244734
0.245832
0.249379
0.255329
0.263603
0.274084
0.286625
0.301207
0.317875
0.361465
0.347537
0.333149
0.318509
0.303939
0.289764
0.276271
0.263688
0.25219
0.241899
0.232901
0.225253
0.218993
0.214146
0.210734
0.208775
0.208286
0.209293
0.211889
0.216199
0.361236
0.347799
0.334532
0.321372
0.308383
0.29568
0.283387
0.271619
0.26047
0.250016
0.240309
0.231387
0.223277
0.215995
0.20955
0.203951
0.199205
0.195326
0.192348
0.190276
0.361254
0.348125
0.335506
0.323265
0.31135
0.299766
0.288544
0.277726
0.267352
0.257461
0.248081
0.239234
0.230934
0.223192
0.216011
0.209393
0.203338
0.197846
0.19292
0.188547
0.361278
0.348296
0.336005
0.324272
0.313005
0.302153
0.291692
0.281615
0.271927
0.262636
0.253751
0.245278
0.237223
0.229588
0.222374
0.21558
0.209201
0.203236
0.197679
0.192525
0.361288
0.348366
0.336226
0.324751
0.313844
0.303433
0.293466
0.283908
0.274736
0.265937
0.257502
0.249425
0.241701
0.234327
0.227297
0.220606
0.214251
0.208225
0.202522
0.197145
0.361291
0.348391
0.336314
0.324959
0.314237
0.304073
0.294403
0.285179
0.276362
0.267923
0.259841
0.252098
0.244681
0.237578
0.230781
0.224279
0.218066
0.212134
0.206476
0.201099
0.361291
0.348398
0.336345
0.325042
0.314408
0.304371
0.294868
0.285842
0.277251
0.269054
0.261223
0.253733
0.246561
0.239691
0.233109
0.226802
0.220758
0.214967
0.209423
0.204132
0.36129
0.348399
0.336353
0.325071
0.314476
0.304501
0.295083
0.286169
0.27771
0.269665
0.262
0.254683
0.247691
0.241
0.234591
0.22845
0.222561
0.216913
0.211494
0.206314
0.361289
0.348397
0.336354
0.325079
0.3145
0.304552
0.295176
0.286319
0.277934
0.269977
0.262413
0.25521
0.248337
0.241772
0.235492
0.229479
0.223715
0.218187
0.212883
0.207809
0.361288
0.348395
0.336352
0.325079
0.314506
0.304569
0.295213
0.286384
0.278036
0.270128
0.262623
0.255486
0.24869
0.242208
0.236015
0.230093
0.224422
0.218987
0.213774
0.208788
0.361288
0.348393
0.336349
0.325076
0.314505
0.304573
0.295224
0.286408
0.278079
0.270196
0.262722
0.255625
0.248873
0.242442
0.236306
0.230444
0.224838
0.219469
0.214323
0.209405
0.361287
0.348392
0.336347
0.325073
0.314502
0.304571
0.295225
0.286415
0.278094
0.270223
0.262766
0.255689
0.248963
0.242562
0.23646
0.230636
0.225071
0.219747
0.214648
0.209778
0.361287
0.348391
0.336345
0.32507
0.314499
0.304568
0.295223
0.286415
0.278098
0.270232
0.262783
0.255717
0.249005
0.24262
0.236538
0.230737
0.225197
0.219901
0.214833
0.209995
0.361286
0.34839
0.336343
0.325068
0.314496
0.304565
0.29522
0.286412
0.278097
0.270234
0.262788
0.255727
0.249022
0.242646
0.236574
0.230787
0.225262
0.219983
0.214934
0.210116
0.361286
0.348389
0.336342
0.325066
0.314494
0.304563
0.295218
0.28641
0.278095
0.270233
0.262789
0.25573
0.249028
0.242656
0.236591
0.23081
0.225294
0.220025
0.214986
0.21018
0.361286
0.348389
0.336341
0.325065
0.314493
0.304561
0.295216
0.286408
0.278093
0.270231
0.262788
0.25573
0.24903
0.24266
0.236597
0.23082
0.225308
0.220044
0.215012
0.210212
0.361286
0.348388
0.336341
0.325065
0.314492
0.30456
0.295215
0.286407
0.278092
0.270231
0.262787
0.25573
0.24903
0.242661
0.236599
0.230824
0.225314
0.220052
0.215022
0.210225
0.361286
0.348388
0.336341
0.325065
0.314492
0.30456
0.295215
0.286407
0.278092
0.270231
0.262787
0.25573
0.24903
0.242661
0.236599
0.230824
0.225314
0.220051
0.215021
0.210224
0.361286
0.348389
0.336341
0.325065
0.314493
0.304561
0.295216
0.286408
0.278093
0.270231
0.262788
0.25573
0.24903
0.24266
0.236597
0.23082
0.225308
0.220044
0.215011
0.210211
0.361286
0.348389
0.336342
0.325066
0.314494
0.304563
0.295218
0.28641
0.278095
0.270233
0.262789
0.25573
0.249028
0.242656
0.236591
0.23081
0.225294
0.220024
0.214985
0.210178
0.361286
0.34839
0.336343
0.325068
0.314496
0.304565
0.29522
0.286412
0.278097
0.270234
0.262788
0.255727
0.249022
0.242646
0.236574
0.230787
0.225262
0.219983
0.214932
0.210112
0.361287
0.348391
0.336345
0.32507
0.314499
0.304568
0.295223
0.286415
0.278098
0.270232
0.262783
0.255717
0.249005
0.24262
0.236538
0.230737
0.225197
0.219901
0.214831
0.20999
0.361287
0.348392
0.336347
0.325073
0.314502
0.304571
0.295225
0.286415
0.278094
0.270223
0.262766
0.255689
0.248963
0.242562
0.23646
0.230636
0.225071
0.219746
0.214646
0.209772
0.361288
0.348393
0.336349
0.325076
0.314505
0.304573
0.295224
0.286408
0.278079
0.270196
0.262722
0.255625
0.248873
0.242442
0.236306
0.230444
0.224838
0.219468
0.214321
0.209399
0.361288
0.348395
0.336352
0.325079
0.314506
0.304569
0.295213
0.286384
0.278036
0.270128
0.262623
0.255486
0.24869
0.242208
0.236015
0.230093
0.224422
0.218987
0.213772
0.208782
0.361289
0.348397
0.336354
0.325079
0.3145
0.304552
0.295176
0.286319
0.277934
0.269977
0.262413
0.25521
0.248337
0.241772
0.235492
0.229479
0.223715
0.218187
0.212881
0.207803
0.36129
0.348399
0.336353
0.325071
0.314476
0.304501
0.295083
0.286169
0.27771
0.269665
0.262
0.254683
0.247691
0.241
0.234591
0.22845
0.222561
0.216912
0.211493
0.206311
0.361291
0.348398
0.336345
0.325042
0.314408
0.304371
0.294868
0.285842
0.277251
0.269054
0.261223
0.253733
0.246561
0.239691
0.233109
0.226802
0.220758
0.214968
0.209422
0.204132
0.361291
0.348391
0.336314
0.324959
0.314237
0.304073
0.294403
0.285179
0.276362
0.267923
0.259841
0.252098
0.244681
0.237578
0.230781
0.224279
0.218066
0.212134
0.206475
0.201105
0.361288
0.348366
0.336226
0.324751
0.313844
0.303433
0.293466
0.283908
0.274736
0.265937
0.257502
0.249425
0.241701
0.234327
0.227297
0.220606
0.214251
0.208225
0.20252
0.197157
0.361278
0.348296
0.336005
0.324272
0.313005
0.302153
0.291692
0.281615
0.271927
0.262636
0.253751
0.245278
0.237223
0.229588
0.222374
0.21558
0.209201
0.203234
0.197671
0.192533
0.361254
0.348125
0.335506
0.323265
0.31135
0.299766
0.288544
0.277726
0.267352
0.257461
0.248081
0.239234
0.230934
0.223192
0.216011
0.209393
0.203337
0.19784
0.192893
0.188513
0.361236
0.347799
0.334532
0.321372
0.308383
0.29568
0.283387
0.271619
0.26047
0.250016
0.240309
0.231387
0.223277
0.215995
0.20955
0.20395
0.199202
0.19531
0.192263
0.190063
0.361465
0.347537
0.333149
0.318509
0.303939
0.289764
0.276271
0.263688
0.25219
0.241899
0.232901
0.225253
0.218993
0.214146
0.210734
0.208773
0.208277
0.209252
0.211667
0.215435
0.363748
0.349867
0.334429
0.31855
0.303052
0.288614
0.275769
0.264896
0.256243
0.249955
0.246108
0.244734
0.245832
0.249379
0.255328
0.263599
0.27407
0.286561
0.300797
0.316446
0.380328
0.378528
0.375866
0.373344
0.371175
0.369843
0.369905
0.371841
0.376008
0.382642
0.391864
0.403677
0.417972
0.434523
0.45299
0.472933
0.493834
0.515132
0.536248
0.556919
0.590242
0.786977
0.938817
1.04137
1.10104
1.12787
1.13171
1.12067
1.10079
1.07629
1.04998
1.0237
0.998583
0.975295
0.954208
0.935482
0.919133
0.905074
0.893194
0.882971
1.12422
1.37313
1.60519
1.81485
1.99371
2.13842
2.25197
2.34024
2.40961
2.46581
2.51322
2.55488
2.59267
2.62773
2.66086
2.69257
2.7232
2.75302
2.78223
2.81101
2.83951
2.86787
2.89619
2.92456
2.95305
2.9817
3.01059
3.03975
3.06921
3.09898
3.12908
3.15949
3.19019
3.22114
3.25232
3.28368
3.31515
3.34668
3.37819
3.40963
3.4409
3.47193
3.50264
3.53294
3.56274
3.59195
3.62047
3.64822
3.67507
3.70093
3.7257
3.74924
3.77147
3.79225
3.81146
3.829
3.84475
3.85858
3.87039
3.88008
3.88754
3.89269
3.89544
3.89572
3.89348
3.88866
3.88125
3.87123
3.8586
3.84339
3.82563
3.80538
3.78272
3.75775
3.73057
3.70133
3.67017
3.63726
3.60278
3.56693
3.52993
3.492
3.45339
3.41435
3.37515
3.33607
3.2974
3.25944
3.22252
3.18695
3.15308
3.12127
3.09188
3.06529
3.04192
3.02217
3.00648
2.99529
2.98905
2.9882
2.9932
3.00444
3.0223
3.04706
3.07893
3.11798
3.16412
3.2171
3.27649
3.34167
3.41187
3.48616
3.56353
3.64292
3.72323
3.80341
3.88247
3.95951
4.03375
4.10452
4.17128
4.23361
4.29121
4.34388
4.39152
4.43411
4.47169
4.50438
4.53232
4.5557
4.57472
4.58961
4.6006
4.60791
4.61182
4.61255
4.61033
4.60538
4.5979
4.5881
4.57616
4.56226
4.54657
4.52923
4.5104
4.49022
4.4688
4.44627
4.42274
4.39831
4.37309
4.34716
4.32061
4.29354
4.26602
4.23813
4.20996
4.18158
4.15306
4.12449
4.09594
4.0675
4.03924
4.01125
3.98362
3.95645
3.92982
3.90385
3.87866
3.85435
3.83108
3.80897
3.78821
3.76897
3.75145
3.73589
3.72256
3.71176
3.70387
3.69932
3.69863
3.70247
3.71163
3.72719
3.75054
3.78358
3.82893
3.89033
3.97312
4.08493
4.23651
4.44238
4.72096
5.09337
5.58005
6.19456
6.9327
7.75636
8.4977
5.68949
0.579415
0.622296
0.68651
0.773428
0.881526
1.00721
1.14497
1.28833
1.43077
1.56679
1.6925
1.80588
1.90656
1.99539
2.0739
2.14382
2.20678
2.26414
2.31692
2.36592
2.41173
2.45485
2.49569
2.53463
2.57199
2.60805
2.64305
2.67719
2.71063
2.74351
2.77592
2.80796
2.8397
2.87117
2.90242
2.93346
2.9643
2.99493
3.02534
3.05551
3.08539
3.11494
3.14412
3.17287
3.20114
3.22885
3.25593
3.28231
3.30791
3.33263
3.35638
3.37907
3.4006
3.42085
3.43972
3.4571
3.47288
3.48695
3.4992
3.50952
3.51781
3.52399
3.52797
3.52966
3.52902
3.52598
3.5205
3.51258
3.5022
3.48937
3.47413
3.45651
3.43659
3.41445
3.39018
3.36392
3.3358
3.30597
3.27461
3.2419
3.20803
3.17324
3.13774
3.10178
3.0656
3.02949
2.9937
2.95853
2.92429
2.89127
2.85981
2.83025
2.80293
2.77823
2.75654
2.73827
2.72383
2.71368
2.70826
2.70806
2.71354
2.72516
2.74335
2.76847
2.80083
2.84059
2.8878
2.9423
3.00379
3.07171
3.14537
3.22387
3.3062
3.39126
3.4779
3.56501
3.65149
3.73634
3.81869
3.89777
3.97294
4.04369
4.10966
4.17058
4.22628
4.27671
4.32188
4.36187
4.3968
4.42685
4.45223
4.47316
4.48987
4.5026
4.51163
4.51721
4.51956
4.5189
4.51547
4.50947
4.5011
4.49054
4.47799
4.4636
4.44754
4.42995
4.41097
4.39073
4.36935
4.34696
4.32364
4.29952
4.27468
4.24922
4.22323
4.1968
4.17
4.14294
4.11568
4.08832
4.06094
4.03361
4.00644
3.9795
3.95289
3.92672
3.90107
3.87607
3.85183
3.82847
3.80614
3.78498
3.76517
3.74689
3.73035
3.71579
3.70348
3.69374
3.68694
3.68353
3.68404
3.68913
3.69964
3.71664
3.74153
3.77625
3.82345
3.88692
3.97206
4.08667
4.24174
4.45227
4.7375
5.11983
5.62145
6.25871
7.02957
7.90386
8.61316
6.63946
0.323434
0.330806
0.341147
0.35594
0.377306
0.406904
0.446301
0.496775
0.559196
0.633696
0.719526
0.815039
0.917836
1.02504
1.13363
1.24084
1.34439
1.44265
1.53471
1.62029
1.69954
1.77295
1.8411
1.90464
1.96414
2.02011
2.07297
2.12307
2.17073
2.21624
2.25983
2.30173
2.34215
2.38126
2.41921
2.45612
2.49209
2.52721
2.56154
2.59512
2.62798
2.66016
2.69165
2.72245
2.75256
2.78195
2.81059
2.83843
2.86544
2.89154
2.91668
2.94079
2.96378
2.98556
3.00605
3.02516
3.04278
3.05881
3.07316
3.08572
3.09641
3.10512
3.11179
3.11632
3.11866
3.11874
3.11653
3.112
3.10513
3.09593
3.08442
3.07063
3.05461
3.03645
3.01623
2.99406
2.97006
2.94438
2.91717
2.88861
2.85888
2.82819
2.79675
2.76478
2.73253
2.70023
2.66816
2.63658
2.60578
2.57604
2.54767
2.521
2.49636
2.47409
2.45457
2.43819
2.42537
2.41653
2.41214
2.41268
2.41864
2.43052
2.4488
2.47393
2.5063
2.54622
2.59384
2.64916
2.712
2.78193
2.85834
2.94041
3.02714
3.11743
3.21008
3.30389
3.39769
3.49037
3.58094
3.66852
3.75237
3.83188
3.90659
3.97617
4.04039
4.09912
4.15235
4.20011
4.24251
4.27972
4.31192
4.33935
4.36223
4.3808
4.39539
4.40622
4.41353
4.41756
4.41854
4.41669
4.41223
4.40535
4.39625
4.38511
4.37211
4.3574
4.34112
4.32344
4.30447
4.28434
4.26317
4.24107
4.21816
4.19452
4.17026
4.14547
4.12025
4.09468
4.06886
4.04288
4.01681
3.99077
3.96482
3.93908
3.91363
3.88859
3.86405
3.84013
3.81695
3.79465
3.77336
3.75325
3.73447
3.71723
3.70173
3.68823
3.67699
3.66835
3.66267
3.6604
3.6621
3.66842
3.68021
3.69855
3.72485
3.76105
3.80981
3.87491
3.96178
4.07822
4.23533
4.4483
4.73674
5.12364
5.63189
6.27851
7.05979
7.93848
8.60187
7.35353
0.217532
0.219035
0.220819
0.223062
0.226075
0.230223
0.236004
0.244062
0.255059
0.269777
0.289106
0.313989
0.345345
0.383972
0.430429
0.48493
0.54726
0.616748
0.6923
0.772487
0.855687
0.940238
1.0246
1.10747
1.18784
1.26507
1.33878
1.40887
1.47542
1.5386
1.59866
1.65584
1.71039
1.76252
1.81245
1.86034
1.90636
1.95066
1.99337
2.03461
2.0745
2.1131
2.15052
2.18679
2.22198
2.2561
2.28918
2.32123
2.35223
2.38218
2.41103
2.43876
2.46532
2.49064
2.51466
2.53731
2.55852
2.5782
2.59626
2.61262
2.6272
2.63991
2.65067
2.65941
2.66607
2.67059
2.67291
2.67302
2.67089
2.66652
2.65992
2.65111
2.64015
2.62709
2.61201
2.59501
2.5762
2.55571
2.53369
2.51029
2.48569
2.46006
2.43362
2.40657
2.37913
2.35154
2.32402
2.29685
2.27027
2.24457
2.22002
2.19692
2.17559
2.15635
2.13955
2.12556
2.11477
2.10761
2.10452
2.10598
2.11249
2.12458
2.14278
2.16761
2.19957
2.23906
2.28641
2.34176
2.4051
2.47616
2.55445
2.63926
2.72966
2.82453
2.92266
3.02278
3.12363
3.22398
3.32273
3.41885
3.51151
3.59998
3.68369
3.76223
3.83529
3.90269
3.96435
4.02028
4.07055
4.1153
4.15472
4.18903
4.21846
4.24326
4.26376
4.2802
4.29282
4.30187
4.30759
4.31021
4.30995
4.30704
4.30168
4.29406
4.28437
4.27279
4.25946
4.24456
4.22821
4.21057
4.19175
4.17188
4.15107
4.12944
4.10709
4.08412
4.06063
4.03672
4.01249
3.98802
3.96343
3.93879
3.9142
3.88978
3.86561
3.84181
3.81848
3.79574
3.77373
3.75257
3.7324
3.7134
3.69572
3.67958
3.66517
3.65276
3.64262
3.63508
3.63052
3.62939
3.63224
3.63974
3.65272
3.67228
3.69982
3.73725
3.78723
3.85349
3.9414
4.05868
4.21633
4.42945
4.71761
5.10374
5.61053
6.25407
7.02751
7.8826
8.52286
7.78962
0.189694
0.189176
0.188722
0.188354
0.188109
0.188034
0.188194
0.188676
0.189606
0.191135
0.193446
0.196765
0.201374
0.207617
0.215901
0.226699
0.240542
0.257996
0.279635
0.305989
0.33749
0.374414
0.41683
0.464566
0.517207
0.574115
0.634476
0.697372
0.761854
0.827014
0.892046
0.956284
1.01922
1.0805
1.13991
1.19734
1.25277
1.30623
1.35779
1.40753
1.45553
1.50188
1.54665
1.58992
1.63176
1.67221
1.71133
1.74915
1.78569
1.82099
1.85503
1.88782
1.91933
1.94954
1.9784
2.00587
2.0319
2.05642
2.07936
2.10066
2.12024
2.13804
2.15397
2.16797
2.17998
2.18995
2.19783
2.20358
2.20718
2.20863
2.20792
2.20507
2.20012
2.19312
2.18414
2.17326
2.16057
2.1462
2.13028
2.11294
2.09435
2.07467
2.05409
2.0328
2.011
1.9889
1.96673
1.94471
1.92309
1.90212
1.88206
1.86317
1.84575
1.8301
1.81653
1.80539
1.79704
1.79187
1.79033
1.79286
1.79998
1.81221
1.83012
1.85428
1.88528
1.92365
1.96986
2.02423
2.08694
2.15793
2.2369
2.32327
2.41621
2.51467
2.61744
2.72318
2.83053
2.93818
3.04485
3.14942
3.25088
3.34839
3.44128
3.52901
3.6112
3.68758
3.75802
3.82247
3.88098
3.93366
3.98068
4.02224
4.05858
4.08998
4.11676
4.13918
4.15746
4.17187
4.18265
4.19005
4.19431
4.19566
4.19432
4.19049
4.18438
4.17617
4.16603
4.15414
4.14065
4.1257
4.10944
4.09199
4.07349
4.05405
4.03378
4.0128
3.99121
3.96911
3.94662
3.92382
3.90083
3.87773
3.85464
3.83165
3.80888
3.78643
3.76442
3.74296
3.7222
3.70226
3.6833
3.66548
3.64897
3.63397
3.62071
3.60942
3.60041
3.59398
3.59054
3.59052
3.59448
3.60309
3.61718
3.63783
3.66643
3.70486
3.75573
3.82269
3.91098
4.02814
4.1849
4.39602
4.68061
5.06102
5.55899
6.18875
6.94017
7.75558
8.3797
7.99823
0.187263
0.186033
0.184846
0.183705
0.182617
0.181584
0.180617
0.179725
0.178926
0.178249
0.177724
0.17739
0.177296
0.177503
0.17809
0.179149
0.180798
0.183178
0.18646
0.190845
0.196571
0.20391
0.213167
0.224668
0.238755
0.25576
0.275982
0.29966
0.326946
0.357882
0.392383
0.430242
0.471134
0.51464
0.560278
0.607532
0.655892
0.704874
0.754051
0.803058
0.851604
0.899463
0.946471
0.992514
1.03752
1.08144
1.12424
1.16592
1.20645
1.24583
1.28405
1.32108
1.35691
1.3915
1.42483
1.45685
1.48752
1.51677
1.54457
1.57083
1.5955
1.61851
1.63979
1.65928
1.67692
1.69265
1.70643
1.7182
1.72795
1.73566
1.74131
1.74492
1.74651
1.74612
1.7438
1.73962
1.73366
1.72602
1.71682
1.70617
1.69422
1.68112
1.66702
1.65212
1.63657
1.62058
1.60435
1.58808
1.57199
1.5563
1.54125
1.52708
1.51405
1.50242
1.49249
1.48456
1.47896
1.47605
1.47624
1.47995
1.48766
1.49991
1.51725
1.54032
1.56974
1.60615
1.65017
1.70232
1.76298
1.83235
1.91035
1.99663
2.09053
2.1911
2.29718
2.40741
2.52036
2.63457
2.74865
2.8613
2.97136
3.07785
3.17994
3.27699
3.36849
3.4541
3.5336
3.6069
3.67399
3.73494
3.78991
3.83909
3.88271
3.92107
3.9545
3.98323
4.00752
4.02762
4.0438
4.0563
4.06538
4.07128
4.07424
4.07448
4.07221
4.06763
4.06093
4.05228
4.04187
4.02983
4.01634
4.00151
3.98551
3.96844
3.95043
3.93161
3.91208
3.89196
3.87135
3.85037
3.82912
3.8077
3.78622
3.7648
3.74353
3.72254
3.70195
3.68187
3.66245
3.64382
3.62614
3.60956
3.59428
3.58048
3.5684
3.55828
3.55041
3.54511
3.54277
3.54385
3.54889
3.55854
3.57365
3.59526
3.62474
3.66395
3.71539
3.78261
3.87067
3.98682
4.14138
4.34853
4.6266
4.9969
5.47971
6.08696
6.80576
7.5726
8.1755
8.02322
0.190995
0.189515
0.188069
0.18666
0.185287
0.183951
0.182653
0.181392
0.180173
0.178999
0.177877
0.176813
0.175816
0.174901
0.174081
0.173376
0.172809
0.172411
0.172214
0.172262
0.172605
0.173302
0.174424
0.176056
0.178295
0.181256
0.18507
0.189885
0.195865
0.203187
0.212038
0.222604
0.235066
0.249587
0.266299
0.285294
0.306612
0.330237
0.356094
0.384053
0.413933
0.445515
0.478554
0.512788
0.547956
0.583806
0.620099
0.656621
0.693178
0.729603
0.765747
0.801482
0.836694
0.871281
0.905148
0.938205
0.970367
1.00155
1.03166
1.06063
1.08836
1.11478
1.1398
1.16334
1.18532
1.20569
1.22437
1.24131
1.25647
1.2698
1.28129
1.29092
1.29871
1.30466
1.3088
1.3112
1.31189
1.31097
1.30852
1.30464
1.29945
1.29307
1.28564
1.27732
1.26825
1.2586
1.24855
1.23828
1.22797
1.21782
1.20803
1.19882
1.1904
1.18302
1.17691
1.17236
1.16965
1.16909
1.17105
1.17591
1.18411
1.19616
1.2126
1.23405
1.26117
1.29469
1.33534
1.3838
1.4407
1.5065
1.58143
1.66542
1.75808
1.85866
1.9661
2.0791
2.19616
2.31572
2.43624
2.55625
2.6744
2.78954
2.90066
3.00696
3.10783
3.20281
3.29158
3.37396
3.44991
3.51945
3.58269
3.63981
3.69104
3.73671
3.77713
3.81253
3.84316
3.86929
3.89118
3.90909
3.92329
3.93405
3.94159
3.94617
3.948
3.9473
3.94428
3.93912
3.932
3.9231
3.91257
3.90058
3.88725
3.87274
3.85718
3.84068
3.82338
3.80539
3.78683
3.7678
3.74843
3.72882
3.70908
3.68934
3.66969
3.65027
3.6312
3.6126
3.5946
3.57736
3.56103
3.54577
3.53177
3.51922
3.50836
3.49943
3.49272
3.48856
3.48733
3.48948
3.49554
3.50619
3.52222
3.54467
3.57488
3.61463
3.66634
3.73342
3.82069
3.93503
4.08623
4.28769
4.5567
4.91317
5.37564
5.95365
6.63231
7.3461
7.9198
7.90965
0.19554
0.193981
0.192451
0.19095
0.189479
0.188038
0.186625
0.185241
0.183885
0.182559
0.181263
0.179997
0.178765
0.177568
0.17641
0.175296
0.174231
0.173222
0.172277
0.171407
0.170624
0.169942
0.169379
0.168954
0.16869
0.168615
0.168759
0.169159
0.169857
0.170898
0.172338
0.174238
0.176666
0.179698
0.183417
0.187914
0.193283
0.19962
0.207025
0.215592
0.225407
0.236547
0.249071
0.26302
0.278412
0.29524
0.31347
0.333045
0.353884
0.375885
0.398928
0.42288
0.447598
0.472933
0.498731
0.524839
0.551105
0.57738
0.603516
0.629373
0.654814
0.679706
0.703922
0.727342
0.749851
0.771341
0.791713
0.810876
0.828749
0.845264
0.860361
0.873997
0.886139
0.896772
0.905893
0.913513
0.919661
0.924376
0.927715
0.929746
0.930552
0.930224
0.928869
0.9266
0.923542
0.919828
0.915597
0.910996
0.906181
0.901312
0.896558
0.892093
0.888102
0.884781
0.882337
0.880992
0.880991
0.882601
0.886122
0.891891
0.900293
0.911769
0.926827
0.946046
0.970088
0.99969
1.03565
1.07881
1.13
1.18994
1.25922
1.33814
1.42666
1.52436
1.63041
1.74362
1.86254
1.98553
2.11091
2.23701
2.36228
2.48534
2.60499
2.72025
2.83033
2.93463
3.03271
3.12432
3.20931
3.28765
3.35942
3.42477
3.48389
3.5372
3.58494
3.62734
3.66463
3.6971
3.72501
3.74864
3.76827
3.78416
3.79657
3.80575
3.81195
3.81538
3.81627
3.81482
3.81123
3.80567
3.79833
3.78935
3.77891
3.76714
3.75419
3.74019
3.72528
3.70957
3.6932
3.67627
3.65892
3.64125
3.62338
3.60543
3.58752
3.56977
3.55232
3.53528
3.5188
3.50303
3.48812
3.47424
3.46158
3.45033
3.44073
3.43302
3.42749
3.42447
3.42433
3.42753
3.43458
3.44615
3.46302
3.48619
3.51696
3.55705
3.60877
3.67534
3.76131
3.87314
4.01999
4.21433
4.4722
4.8119
5.25004
5.79395
6.42756
7.08649
7.62462
7.69912
0.199487
0.197919
0.196376
0.194858
0.193365
0.191896
0.190452
0.189031
0.187634
0.18626
0.18491
0.183582
0.182278
0.180997
0.179742
0.178511
0.177308
0.176133
0.174989
0.173879
0.172806
0.171773
0.170786
0.16985
0.168972
0.168159
0.16742
0.166765
0.166205
0.165754
0.165425
0.165236
0.165203
0.165349
0.165695
0.166268
0.167095
0.168208
0.169642
0.171433
0.173623
0.176254
0.179375
0.183032
0.187276
0.192157
0.197725
0.204026
0.211104
0.218998
0.227737
0.237343
0.247826
0.259184
0.271402
0.284449
0.29828
0.312836
0.328042
0.343813
0.36005
0.376644
0.393479
0.410433
0.427383
0.444201
0.460764
0.47695
0.492644
0.507739
0.522137
0.535748
0.548498
0.560324
0.571176
0.581019
0.589833
0.597611
0.604361
0.610106
0.61488
0.61873
0.621717
0.62391
0.62539
0.626246
0.626575
0.626484
0.626084
0.625495
0.624843
0.62426
0.623888
0.623875
0.624384
0.625586
0.627673
0.630855
0.635371
0.641491
0.64953
0.659854
0.672894
0.689162
0.709257
0.73388
0.76384
0.800037
0.843441
0.895033
0.95572
1.02623
1.107
1.19805
1.29896
1.40881
1.52631
1.64983
1.77758
1.90771
2.03844
2.16813
2.29534
2.41884
2.53764
2.65095
2.7582
2.85898
2.95305
3.04031
3.12077
3.19454
3.26181
3.32302
3.37836
3.42804
3.47229
3.5114
3.54562
3.57526
3.60059
3.62189
3.63943
3.65348
3.66429
3.67211
3.67715
3.67964
3.67979
3.67779
3.67383
3.66807
3.66069
3.65185
3.64169
3.63035
3.61799
3.60472
3.59068
3.57599
3.56079
3.54518
3.5293
3.51327
3.4972
3.48123
3.46549
3.45011
3.43523
3.421
3.40758
3.39515
3.38387
3.37397
3.36567
3.3592
3.35487
3.35299
3.35394
3.35816
3.36617
3.37859
3.39621
3.41999
3.45118
3.49141
3.54288
3.60861
3.69285
3.8016
3.94328
4.12937
4.3745
4.69523
5.10622
5.61286
6.19869
6.80263
7.30156
7.42432
0.202542
0.200995
0.199469
0.197965
0.196482
0.195021
0.19358
0.192161
0.190762
0.189383
0.188024
0.186685
0.185365
0.184064
0.182783
0.181522
0.180281
0.17906
0.17786
0.176682
0.175526
0.174394
0.173286
0.172206
0.171153
0.170132
0.169144
0.168193
0.167282
0.166416
0.165598
0.164834
0.16413
0.163491
0.162926
0.162441
0.162045
0.161748
0.16156
0.161492
0.161555
0.161765
0.162134
0.162679
0.163417
0.164365
0.165545
0.166976
0.168681
0.170684
0.173008
0.175678
0.178719
0.182155
0.18601
0.190303
0.195054
0.200276
0.205977
0.212162
0.218824
0.225953
0.233525
0.241511
0.249871
0.258556
0.267507
0.27666
0.285944
0.295283
0.304599
0.313814
0.322852
0.331637
0.340102
0.348187
0.355838
0.363011
0.369674
0.375805
0.381391
0.386433
0.390942
0.394937
0.39845
0.40152
0.404196
0.406535
0.4086
0.410463
0.412202
0.413902
0.415654
0.41756
0.419728
0.422278
0.425344
0.429074
0.433641
0.439242
0.446109
0.454519
0.464806
0.477374
0.492716
0.511434
0.534256
0.562047
0.59581
0.636663
0.685783
0.7443
0.81317
0.893017
0.983997
1.08571
1.19721
1.31706
1.44346
1.57445
1.70799
1.84218
1.97525
2.10569
2.23224
2.35386
2.46978
2.57943
2.68241
2.77851
2.86766
2.94992
3.02552
3.09483
3.15798
3.21518
3.26664
3.31263
3.35344
3.38934
3.42063
3.4476
3.47053
3.48969
3.50536
3.51779
3.52721
3.53387
3.53797
3.53973
3.53935
3.537
3.53287
3.52712
3.51992
3.51141
3.50175
3.49107
3.47951
3.4672
3.45428
3.44086
3.42709
3.41308
3.39896
3.38487
3.37094
3.3573
3.3441
3.33149
3.31963
3.30869
3.29887
3.29035
3.28338
3.27819
3.27506
3.27433
3.27636
3.28157
3.29049
3.30371
3.322
3.34629
3.37776
3.41795
3.46895
3.53355
3.61569
3.72087
3.85677
4.03377
4.26504
4.56534
4.94743
5.41511
5.95213
6.50218
6.9606
7.10898
0.204756
0.203238
0.20174
0.200261
0.198802
0.197362
0.195941
0.194539
0.193155
0.191789
0.190441
0.189111
0.187798
0.186502
0.185223
0.183962
0.182718
0.181491
0.180281
0.179088
0.177913
0.176756
0.175617
0.174496
0.173395
0.172313
0.171252
0.170213
0.169197
0.168204
0.167237
0.166298
0.165388
0.164509
0.163664
0.162855
0.162085
0.161358
0.160677
0.160045
0.159467
0.158947
0.15849
0.158101
0.157785
0.157548
0.157398
0.157339
0.157381
0.157531
0.157797
0.158188
0.158714
0.159384
0.160209
0.161199
0.162365
0.163717
0.165265
0.16702
0.16899
0.171181
0.173599
0.176247
0.179125
0.18223
0.185555
0.189088
0.192815
0.196716
0.200767
0.204941
0.209208
0.213535
0.217886
0.222227
0.226522
0.230738
0.234844
0.238811
0.242618
0.246244
0.249677
0.252911
0.255943
0.25878
0.261432
0.263917
0.266259
0.268488
0.270637
0.27275
0.274873
0.277059
0.27937
0.281874
0.284651
0.28779
0.291399
0.295601
0.300547
0.306417
0.313435
0.321881
0.332107
0.344556
0.359795
0.378536
0.401667
0.430268
0.465601
0.509062
0.562068
0.625892
0.701461
0.789157
0.888702
0.999135
1.11891
1.24606
1.37841
1.51373
1.64994
1.78515
1.91775
2.04638
2.17
2.2878
2.39918
2.50379
2.60143
2.69205
2.77605
2.85354
2.92464
2.9895
3.04835
3.10143
3.14903
3.19142
3.22889
3.26176
3.2903
3.31481
3.33556
3.35281
3.36683
3.37785
3.38612
3.39183
3.39522
3.39646
3.39576
3.39328
3.3892
3.38368
3.37687
3.36892
3.35998
3.35018
3.33966
3.32856
3.31701
3.30513
3.29307
3.28095
3.26892
3.25711
3.24566
3.23474
3.22451
3.21513
3.2068
3.19971
3.19409
3.1902
3.1883
3.18871
3.1918
3.19799
3.20777
3.22174
3.24063
3.26531
3.29693
3.33694
3.38726
3.4505
3.53025
3.6315
3.76116
3.92851
4.14524
4.42432
4.77671
5.20496
5.69355
6.19165
6.60993
6.76996
0.206281
0.204793
0.203324
0.201872
0.200439
0.199024
0.197627
0.196246
0.194883
0.193537
0.192207
0.190894
0.189597
0.188315
0.18705
0.1858
0.184566
0.183348
0.182145
0.180957
0.179785
0.178628
0.177486
0.17636
0.175249
0.174154
0.173075
0.172013
0.170967
0.169938
0.168927
0.167933
0.166959
0.166003
0.165068
0.164154
0.163263
0.162394
0.16155
0.160732
0.159941
0.159179
0.158447
0.157748
0.157083
0.156454
0.155864
0.155314
0.154808
0.154348
0.153938
0.153579
0.153277
0.153033
0.152851
0.152736
0.152692
0.152722
0.15283
0.153021
0.153299
0.153668
0.154131
0.154692
0.155353
0.156116
0.156983
0.157954
0.159027
0.160201
0.16147
0.162831
0.164276
0.165797
0.167384
0.169026
0.170711
0.172428
0.174162
0.175903
0.177637
0.179354
0.181045
0.1827
0.184315
0.185886
0.187412
0.188896
0.190343
0.19176
0.193161
0.194559
0.195974
0.197429
0.198951
0.200572
0.202332
0.204276
0.206457
0.208944
0.211815
0.215171
0.219137
0.223873
0.229586
0.236547
0.245113
0.25576
0.26912
0.286023
0.307544
0.335025
0.370052
0.414363
0.469648
0.537285
0.618057
0.71195
0.818105
0.934917
1.06026
1.19174
1.3269
1.46346
1.59936
1.73285
1.86248
1.98713
2.10594
2.21832
2.32392
2.42266
2.51485
2.60043
2.67944
2.75201
2.81832
2.87861
2.93314
2.98217
3.02601
3.06496
3.09931
3.12935
3.15537
3.17765
3.19646
3.21204
3.22464
3.2345
3.24183
3.24684
3.24973
3.25068
3.24988
3.24749
3.24368
3.2386
3.23241
3.22525
3.21727
3.20859
3.19937
3.18974
3.17983
3.16978
3.15973
3.14982
3.14021
3.13105
3.1225
3.11473
3.10793
3.10231
3.09809
3.09551
3.09484
3.0964
3.10054
3.10768
3.11829
3.13295
3.15236
3.17735
3.209
3.24868
3.29816
3.35983
3.43696
3.53402
3.65715
3.81456
4.01648
4.27413
4.59684
4.98619
5.42775
5.87648
6.25604
6.41913
0.207287
0.205825
0.20438
0.202953
0.201544
0.200152
0.198776
0.197418
0.196075
0.194749
0.193438
0.192143
0.190864
0.1896
0.18835
0.187116
0.185896
0.184691
0.1835
0.182324
0.181162
0.180014
0.17888
0.17776
0.176654
0.175562
0.174484
0.17342
0.17237
0.171334
0.170312
0.169305
0.168313
0.167335
0.166373
0.165426
0.164494
0.163579
0.162681
0.161799
0.160935
0.160089
0.159262
0.158454
0.157666
0.156898
0.156153
0.155429
0.154729
0.154053
0.153402
0.152778
0.152181
0.151613
0.151076
0.15057
0.150096
0.149658
0.149255
0.148891
0.148566
0.148281
0.14804
0.147842
0.14769
0.147585
0.147528
0.14752
0.147561
0.147651
0.14779
0.147978
0.148213
0.148494
0.148817
0.149181
0.149582
0.150017
0.150481
0.15097
0.151481
0.152009
0.152549
0.153099
0.153655
0.154215
0.154777
0.155341
0.155907
0.156477
0.157054
0.157644
0.158253
0.158889
0.159563
0.160289
0.161082
0.161963
0.162957
0.164092
0.165406
0.166946
0.168771
0.170957
0.173603
0.176845
0.180861
0.185901
0.192308
0.200568
0.211354
0.225602
0.244576
0.269904
0.303544
0.347617
0.404091
0.474374
0.558973
0.657338
0.76795
0.888586
1.01664
1.14944
1.28444
1.41938
1.55232
1.68169
1.80625
1.9251
2.03765
2.14398
2.24387
2.33718
2.42388
2.50402
2.57774
2.64523
2.70673
2.76249
2.8128
2.85795
2.89824
2.93396
2.96542
2.99289
3.01664
3.03695
3.05406
3.06822
3.07965
3.08858
3.09522
3.09975
3.10237
3.10325
3.10258
3.10051
3.09719
3.09279
3.08745
3.08132
3.07454
3.06724
3.05958
3.05168
3.04371
3.03579
3.02808
3.02073
3.01392
3.00782
3.0026
2.99848
2.99568
2.99443
2.995
2.99771
3.00289
3.01095
3.02236
3.03765
3.05751
3.08272
3.11431
3.15352
3.20202
3.26197
3.3363
3.429
3.54548
3.69288
3.88003
4.11655
4.41025
4.76202
5.15875
5.56109
5.90395
6.06484
0.207924
0.206481
0.205057
0.203649
0.202259
0.200886
0.199529
0.198188
0.196864
0.195555
0.194261
0.192983
0.19172
0.190471
0.189237
0.188018
0.186812
0.185621
0.184443
0.18328
0.182129
0.180992
0.179869
0.178759
0.177661
0.176577
0.175506
0.174447
0.173402
0.172369
0.171349
0.170342
0.169348
0.168367
0.167398
0.166443
0.165501
0.164572
0.163656
0.162754
0.161865
0.16099
0.160129
0.159283
0.15845
0.157633
0.15683
0.156043
0.155271
0.154515
0.153775
0.153051
0.152345
0.151656
0.150985
0.150333
0.149699
0.149085
0.148491
0.147918
0.147366
0.146837
0.14633
0.145846
0.145386
0.144951
0.144541
0.144157
0.143799
0.143467
0.143162
0.142883
0.14263
0.142404
0.142203
0.142026