/*--------------------------------*- C++ -*----------------------------------*\
| =========                 |                                                 |
| \\      /  F ield         | OpenFOAM: The Open Source CFD Toolbox           |
|  \\    /   O peration     | Version:  2.4.0                                 |
|   \\  /    A nd           | Web:      www.OpenFOAM.org                      |
|    \\/     M anipulation  |                                                 |
\*---------------------------------------------------------------------------*/
FoamFile
{
    version     2.0;
    format      ascii;
    class       volVectorField;
    location    "0.191";
    object      UMean;
}
// * * * * * * * * * * * * * * * * * * * * * * * * * * * * * * * * * * * * * //

dimensions      [0 1 -1 0 0 0 0];

internalField   nonuniform List<vector> 
17600
(
(5.34173 0.307908 0)
(3.02802 0.0607305 0)
(2.24969 -0.00146116 0)
(1.9057 -0.00351718 0)
(1.76931 -0.0013354 0)
(1.67651 -0.000153892 0)
(1.61271 -2.27373e-05 0)
(1.5529 -5.55572e-06 0)
(1.51993 -0.000170412 0)
(1.4821 -1.98614e-06 0)
(1.46697 -0.000117333 0)
(1.43762 0.000115595 0)
(1.42961 -9.84758e-05 0)
(1.40507 7.25582e-05 0)
(1.40401 -0.000252694 0)
(1.38976 -0.00013934 0)
(1.39808 -0.000549472 0)
(1.40992 -0.000558448 0)
(1.45116 -0.00128514 0)
(1.4283 -0.0304518 0)
(8.59503 0.866269 0)
(6.9826 0.380001 0)
(5.87059 0.119979 0)
(5.12446 0.0498766 0)
(4.73502 0.0271051 0)
(4.46506 0.0194695 0)
(4.28966 0.0149729 0)
(4.12395 0.0115016 0)
(4.03156 0.0083702 0)
(3.92116 0.00680327 0)
(3.87772 0.00516416 0)
(3.79227 0.00509171 0)
(3.77124 0.00366542 0)
(3.69949 0.00381423 0)
(3.69471 0.00145241 0)
(3.64627 0.001746 0)
(3.65814 -0.00246358 0)
(3.66534 -0.00468654 0)
(3.70958 -0.0058087 0)
(3.83915 -0.0884909 0)
(9.84071 1.01431 0)
(9.3555 0.570662 0)
(8.51854 0.237121 0)
(7.69306 0.127297 0)
(7.16623 0.0788439 0)
(6.77088 0.0549704 0)
(6.51641 0.0414516 0)
(6.2681 0.0318045 0)
(6.13143 0.0240711 0)
(5.95888 0.0192242 0)
(5.89385 0.0151073 0)
(5.75863 0.0137986 0)
(5.72912 0.0107211 0)
(5.61484 0.0102105 0)
(5.60863 0.00555609 0)
(5.52468 0.00506112 0)
(5.54281 -0.00293886 0)
(5.519 -0.00724521 0)
(5.58839 -0.0209916 0)
(5.69814 -0.114304 0)
(10.1417 0.94016 0)
(10.5575 0.659588 0)
(10.2789 0.323834 0)
(9.66304 0.205298 0)
(9.16846 0.142531 0)
(8.73078 0.102407 0)
(8.447 0.0775222 0)
(8.1441 0.0595824 0)
(7.98453 0.0459498 0)
(7.76307 0.0366446 0)
(7.68615 0.0291642 0)
(7.50877 0.0262519 0)
(7.47591 0.0205827 0)
(7.32451 0.0198914 0)
(7.32006 0.011353 0)
(7.20086 0.0117583 0)
(7.23014 -0.00340696 0)
(7.16023 -0.00615884 0)
(7.2655 -0.0402409 0)
(7.2896 -0.12356 0)
(10.0617 0.799786 0)
(10.8988 0.660424 0)
(11.1342 0.349274 0)
(10.8836 0.250052 0)
(10.6004 0.196144 0)
(10.2392 0.150245 0)
(10.005 0.117011 0)
(9.69616 0.091101 0)
(9.54905 0.0716023 0)
(9.30263 0.0572392 0)
(9.23117 0.0463171 0)
(9.02578 0.0407741 0)
(8.99875 0.0331846 0)
(8.81953 0.0303596 0)
(8.82322 0.0207321 0)
(8.67442 0.0167601 0)
(8.71362 0.00352753 0)
(8.61532 -0.012327 0)
(8.71014 -0.0383828 0)
(8.72063 -0.164387 0)
(9.98278 0.686615 0)
(10.8315 0.627706 0)
(11.3086 0.326823 0)
(11.3397 0.245906 0)
(11.3346 0.216327 0)
(11.1522 0.180632 0)
(11.064 0.148104 0)
(10.8235 0.119317 0)
(10.7417 0.0961793 0)
(10.5114 0.078421 0)
(10.4709 0.0637614 0)
(10.2641 0.056927 0)
(10.2542 0.0454893 0)
(10.0682 0.0435817 0)
(10.0822 0.0277161 0)
(9.92416 0.0280394 0)
(9.96724 0.00111903 0)
(9.85825 -0.000393422 0)
(9.93869 -0.0601275 0)
(9.9295 -0.162195 0)
(9.97374 0.597827 0)
(10.7018 0.595075 0)
(11.2324 0.297978 0)
(11.3446 0.216017 0)
(11.5011 0.203173 0)
(11.4606 0.183181 0)
(11.5433 0.158377 0)
(11.4215 0.132441 0)
(11.459 0.110733 0)
(11.2979 0.092874 0)
(11.327 0.0777643 0)
(11.1559 0.0697196 0)
(11.1871 0.0581588 0)
(11.018 0.0533102 0)
(11.0586 0.0392197 0)
(10.9051 0.0319787 0)
(10.9662 0.0112454 0)
(10.8499 -0.00657566 0)
(10.9347 -0.0560296 0)
(10.8948 -0.16383 0)
(9.99177 0.519141 0)
(10.5965 0.559317 0)
(11.1369 0.280343 0)
(11.2509 0.189279 0)
(11.4522 0.180957 0)
(11.4452 0.171377 0)
(11.6101 0.15241 0)
(11.565 0.130032 0)
(11.6986 0.109887 0)
(11.623 0.0954668 0)
(11.7319 0.080562 0)
(11.6354 0.0757567 0)
(11.7226 0.0622075 0)
(11.6122 0.0612187 0)
(11.6868 0.0418219 0)
(11.5758 0.0410174 0)
(11.6545 0.00753458 0)
(11.5623 0.00369034 0)
(11.6513 -0.0736697 0)
(11.5891 -0.124336 0)
(10.0107 0.448904 0)
(10.5162 0.515706 0)
(11.0528 0.267099 0)
(11.1772 0.166691 0)
(11.381 0.159177 0)
(11.3798 0.157296 0)
(11.5457 0.141601 0)
(11.5311 0.121739 0)
(11.6786 0.101125 0)
(11.6585 0.0892533 0)
(11.7899 0.0745772 0)
(11.7641 0.0724247 0)
(11.8768 0.0590979 0)
(11.8426 0.0597641 0)
(11.9377 0.040469 0)
(11.9 0.0401893 0)
(11.9876 0.00507758 0)
(11.9562 0.00204671 0)
(12.0384 -0.0851832 0)
(11.9949 -0.122408 0)
(10.0118 0.386166 0)
(10.4652 0.468682 0)
(10.9642 0.255169 0)
(11.1333 0.145574 0)
(11.3081 0.138583 0)
(11.3404 0.143092 0)
(11.4661 0.13039 0)
(11.4905 0.112826 0)
(11.5998 0.091222 0)
(11.6266 0.0809411 0)
(11.7249 0.0662148 0)
(11.752 0.0653174 0)
(11.8389 0.0525098 0)
(11.8643 0.0530788 0)
(11.939 0.0355525 0)
(11.9672 0.0318602 0)
(12.0362 0.00237836 0)
(12.0675 -0.0164551 0)
(12.1276 -0.083938 0)
(12.1134 -0.185 0)
(9.99487 0.328389 0)
(10.4318 0.422655 0)
(10.8784 0.242674 0)
(11.0993 0.126862 0)
(11.2417 0.118129 0)
(11.3111 0.130076 0)
(11.398 0.118178 0)
(11.4558 0.105187 0)
(11.5315 0.0809206 0)
(11.5894 0.0739372 0)
(11.6598 0.0570799 0)
(11.7133 0.0595686 0)
(11.7788 0.0441634 0)
(11.8262 0.0476917 0)
(11.8859 0.0270017 0)
(11.9341 0.0260925 0)
(11.9922 -0.00797527 0)
(12.0396 -0.0259725 0)
(12.0901 -0.102144 0)
(12.0702 -0.219064 0)
(9.98235 0.27794 0)
(10.3943 0.37538 0)
(10.8107 0.230485 0)
(11.0553 0.108068 0)
(11.1931 0.100017 0)
(11.2726 0.115199 0)
(11.3494 0.107287 0)
(11.4122 0.0952524 0)
(11.4832 0.0727613 0)
(11.5446 0.0648714 0)
(11.6122 0.0508683 0)
(11.6685 0.051286 0)
(11.7316 0.0395958 0)
(11.7795 0.038826 0)
(11.8398 0.0229958 0)
(11.8851 0.0144731 0)
(11.9442 -0.0124594 0)
(11.9871 -0.0440572 0)
(12.0341 -0.114487 0)
(11.9977 -0.243316 0)
(9.98118 0.232895 0)
(10.3546 0.328891 0)
(10.7568 0.213765 0)
(11.0077 0.09231 0)
(11.1551 0.0823374 0)
(11.233 0.100973 0)
(11.3095 0.0949281 0)
(11.3686 0.085527 0)
(11.4425 0.0633802 0)
(11.5011 0.0568297 0)
(11.5717 0.0433634 0)
(11.6263 0.0442748 0)
(11.6897 0.0332938 0)
(11.7375 0.0317163 0)
(11.7972 0.0166915 0)
(11.8409 0.00627341 0)
(11.8998 -0.0207785 0)
(11.9389 -0.0577449 0)
(11.9803 -0.128067 0)
(11.9329 -0.25964 0)
(9.98053 0.19326 0)
(10.3237 0.282964 0)
(10.7077 0.191744 0)
(10.9681 0.0787015 0)
(11.1191 0.0682715 0)
(11.2023 0.086061 0)
(11.2707 0.0838602 0)
(11.3346 0.0741739 0)
(11.4026 0.0556928 0)
(11.4668 0.0474989 0)
(11.5333 0.0376585 0)
(11.5923 0.0359436 0)
(11.6505 0.0286736 0)
(11.7041 0.0230032 0)
(11.7568 0.011722 0)
(11.8066 -0.00354906 0)
(11.8579 -0.0285811 0)
(11.901 -0.0703199 0)
(11.9298 -0.141025 0)
(11.8831 -0.271165 0)
(9.97798 0.156215 0)
(10.2999 0.239698 0)
(10.6658 0.163613 0)
(10.9355 0.0682395 0)
(11.0893 0.0546821 0)
(11.1777 0.0729525 0)
(11.2393 0.0709615 0)
(11.307 0.0640408 0)
(11.3703 0.0462721 0)
(11.4393 0.0401619 0)
(11.5029 0.0301191 0)
(11.5646 0.0297724 0)
(11.6208 0.021517 0)
(11.6765 0.0168356 0)
(11.726 0.00416062 0)
(11.7786 -0.0111409 0)
(11.8252 -0.0377281 0)
(11.869 -0.0815827 0)
(11.8892 -0.151616 0)
(11.8423 -0.285048 0)
(9.97925 0.123669 0)
(10.277 0.195215 0)
(10.6355 0.134963 0)
(10.9048 0.0564708 0)
(11.0695 0.0434523 0)
(11.1541 0.0580803 0)
(11.2191 0.0592989 0)
(11.2811 0.0513958 0)
(11.3489 0.0387456 0)
(11.4144 0.0304362 0)
(11.4821 0.0252174 0)
(11.5401 0.0206133 0)
(11.6006 0.0174471 0)
(11.6511 0.00689521 0)
(11.7049 0.000325224 0)
(11.7522 -0.0233396 0)
(11.8014 -0.0419954 0)
(11.8381 -0.0978222 0)
(11.8581 -0.153727 0)
(11.8021 -0.302769 0)
(9.98183 0.0936905 0)
(10.2583 0.15116 0)
(10.6117 0.105356 0)
(10.8801 0.0450631 0)
(11.0539 0.0322984 0)
(11.1351 0.0444979 0)
(11.2027 0.0461207 0)
(11.2598 0.0400695 0)
(11.3313 0.0293839 0)
(11.3939 0.0230348 0)
(11.4642 0.0180073 0)
(11.5203 0.0146044 0)
(11.5822 0.0100359 0)
(11.63 0.00174242 0)
(11.686 -0.00879299 0)
(11.7292 -0.02765 0)
(11.7797 -0.0551569 0)
(11.8111 -0.100892 0)
(11.8292 -0.170404 0)
(11.7635 -0.280803 0)
(9.98093 0.0651897 0)
(10.2473 0.107845 0)
(10.5907 0.0753118 0)
(10.8643 0.0333514 0)
(11.0383 0.0218873 0)
(11.1236 0.0316008 0)
(11.1863 0.0327126 0)
(11.2459 0.0287899 0)
(11.3144 0.020189 0)
(11.3795 0.0157514 0)
(11.4472 0.0111167 0)
(11.5063 0.00815297 0)
(11.5642 0.00314995 0)
(11.6157 -0.00472353 0)
(11.6673 -0.0164941 0)
(11.7126 -0.0341634 0)
(11.7586 -0.0653342 0)
(11.7907 -0.10644 0)
(11.8026 -0.183908 0)
(11.7374 -0.26117 0)
(9.97916 0.0395051 0)
(10.2411 0.0632963 0)
(10.5764 0.0465033 0)
(10.8545 0.0191201 0)
(11.0271 0.0139117 0)
(11.1168 0.0172047 0)
(11.1749 0.0208453 0)
(11.2378 0.0154167 0)
(11.3023 0.0128021 0)
(11.3706 0.00644369 0)
(11.4357 0.00635163 0)
(11.4974 -0.000676239 0)
(11.5524 -0.00119312 0)
(11.6069 -0.014265 0)
(11.6537 -0.0205383 0)
(11.7022 -0.0454205 0)
(11.7427 -0.0690624 0)
(11.7767 -0.119945 0)
(11.782 -0.184405 0)
(11.717 -0.280048 0)
(9.98008 0.0129055 0)
(10.2361 0.0210593 0)
(10.5714 0.0154008 0)
(10.8477 0.00657068 0)
(11.0238 0.00400619 0)
(11.1119 0.00593128 0)
(11.1718 0.00570778 0)
(11.2326 0.00539984 0)
(11.2983 0.00167895 0)
(11.3657 0.00125088 0)
(11.4321 -0.0028346 0)
(11.4923 -0.00436462 0)
(11.5492 -0.0109552 0)
(11.6008 -0.0174388 0)
(11.649 -0.0311033 0)
(11.6948 -0.0489363 0)
(11.7357 -0.0803244 0)
(11.7657 -0.124939 0)
(11.7705 -0.191449 0)
(11.7004 -0.300316 0)
(9.98132 -0.0114706 0)
(10.2349 -0.0233827 0)
(10.5728 -0.0135281 0)
(10.8464 -0.00889656 0)
(11.0256 -0.00286706 0)
(11.1107 -0.00854307 0)
(11.1737 -0.00590008 0)
(11.2312 -0.00859844 0)
(11.3002 -0.00505932 0)
(11.3649 -0.00891443 0)
(11.4337 -0.00651634 0)
(11.4914 -0.0144502 0)
(11.5504 -0.0137167 0)
(11.5985 -0.0286624 0)
(11.6498 -0.0330129 0)
(11.6912 -0.0622274 0)
(11.7338 -0.0812475 0)
(11.7589 -0.140493 0)
(11.7628 -0.186963 0)
(11.6888 -0.321993 0)
(9.98103 -0.0377302 0)
(10.2391 -0.0660202 0)
(10.5789 -0.0441641 0)
(10.8523 -0.0219595 0)
(11.0302 -0.0121756 0)
(11.1147 -0.0204305 0)
(11.1784 -0.0202566 0)
(11.2356 -0.0193838 0)
(11.3057 -0.0153347 0)
(11.369 -0.0149132 0)
(11.4385 -0.0149215 0)
(11.4953 -0.0188175 0)
(11.5543 -0.02302 0)
(11.6019 -0.0318641 0)
(11.6532 -0.044129 0)
(11.6927 -0.0639635 0)
(11.7346 -0.0951895 0)
(11.7572 -0.138794 0)
(11.7581 -0.203408 0)
(11.6805 -0.286468 0)
(9.97969 -0.0641143 0)
(10.2484 -0.109746 0)
(10.5904 -0.073823 0)
(10.8649 -0.0351688 0)
(11.0379 -0.0212593 0)
(11.124 -0.0336483 0)
(11.1861 -0.0334 0)
(11.2464 -0.0313835 0)
(11.3138 -0.0242192 0)
(11.3791 -0.0225139 0)
(11.4462 -0.021495 0)
(11.5046 -0.0251948 0)
(11.5613 -0.0298655 0)
(11.6109 -0.0376724 0)
(11.659 -0.0521908 0)
(11.6995 -0.0686188 0)
(11.7382 -0.105848 0)
(11.7608 -0.139798 0)
(11.7598 -0.217132 0)
(11.6829 -0.252141 0)
(9.97872 -0.091772 0)
(10.2616 -0.154062 0)
(10.6086 -0.102907 0)
(10.8828 -0.0480114 0)
(11.0505 -0.0305567 0)
(11.1373 -0.0480375 0)
(11.1989 -0.0452647 0)
(11.2616 -0.0445898 0)
(11.327 -0.0313381 0)
(11.394 -0.0322829 0)
(11.4587 -0.0256002 0)
(11.5185 -0.0347966 0)
(11.5733 -0.0328049 0)
(11.624 -0.0484077 0)
(11.6698 -0.0537505 0)
(11.7107 -0.0813841 0)
(11.747 -0.105658 0)
(11.7693 -0.155371 0)
(11.7669 -0.21067 0)
(11.6871 -0.273283 0)
(9.97815 -0.122747 0)
(10.2787 -0.196937 0)
(10.634 -0.133628 0)
(10.9062 -0.058096 0)
(11.0682 -0.0429811 0)
(11.1546 -0.0601375 0)
(11.2174 -0.0598444 0)
(11.281 -0.0544721 0)
(11.3463 -0.0419997 0)
(11.4133 -0.038145 0)
(11.477 -0.0343473 0)
(11.5368 -0.0391112 0)
(11.591 -0.0417229 0)
(11.6414 -0.0520541 0)
(11.6863 -0.0630147 0)
(11.7266 -0.0851759 0)
(11.7615 -0.114695 0)
(11.7828 -0.160838 0)
(11.7792 -0.215384 0)
(11.6976 -0.290122 0)
(9.97774 -0.154731 0)
(10.3004 -0.241989 0)
(10.6666 -0.161738 0)
(10.9353 -0.0703761 0)
(11.0907 -0.0535351 0)
(11.1766 -0.0755471 0)
(11.241 -0.0708756 0)
(11.3057 -0.0677462 0)
(11.3711 -0.0487505 0)
(11.4374 -0.0484425 0)
(11.5006 -0.0384402 0)
(11.56 -0.0486691 0)
(11.614 -0.0448589 0)
(11.6638 -0.0616788 0)
(11.7083 -0.0657994 0)
(11.7475 -0.0951143 0)
(11.7813 -0.117628 0)
(11.8013 -0.171344 0)
(11.7967 -0.217977 0)
(11.715 -0.30099 0)
(9.97805 -0.192096 0)
(10.327 -0.284968 0)
(10.7064 -0.190226 0)
(10.9703 -0.0805654 0)
(11.1182 -0.0674257 0)
(11.2037 -0.0884187 0)
(11.2699 -0.0841118 0)
(11.3361 -0.0777055 0)
(11.4013 -0.0583079 0)
(11.4671 -0.0555645 0)
(11.5297 -0.0460097 0)
(11.5887 -0.0544404 0)
(11.6423 -0.0518683 0)
(11.6915 -0.0667591 0)
(11.7359 -0.0731973 0)
(11.7737 -0.0994141 0)
(11.8068 -0.126372 0)
(11.8249 -0.174501 0)
(11.8203 -0.230651 0)
(11.7381 -0.289926 0)
(9.98241 -0.231977 0)
(10.3573 -0.330501 0)
(10.7551 -0.212775 0)
(11.0105 -0.0937274 0)
(11.1526 -0.0818635 0)
(11.236 -0.1029 0)
(11.3055 -0.0958067 0)
(11.3722 -0.0886746 0)
(11.4375 -0.0664984 0)
(11.5027 -0.0643752 0)
(11.5644 -0.0521793 0)
(11.6233 -0.0620011 0)
(11.676 -0.0568752 0)
(11.7255 -0.0739979 0)
(11.7684 -0.0778043 0)
(11.806 -0.106408 0)
(11.837 -0.131342 0)
(11.8547 -0.181311 0)
(11.8497 -0.239559 0)
(11.7697 -0.285371 0)
(9.99643 -0.277262 0)
(10.3861 -0.376854 0)
(10.8176 -0.22935 0)
(11.0489 -0.10951 0)
(11.1977 -0.0991127 0)
(11.2676 -0.117251 0)
(11.3513 -0.107829 0)
(11.4085 -0.098833 0)
(11.4826 -0.0751409 0)
(11.5392 -0.0731037 0)
(11.6074 -0.0586638 0)
(11.6595 -0.0697205 0)
(11.7175 -0.0614394 0)
(11.7618 -0.0821119 0)
(11.808 -0.0805381 0)
(11.8416 -0.115765 0)
(11.8735 -0.131702 0)
(11.8885 -0.193891 0)
(11.8836 -0.238679 0)
(11.805 -0.306494 0)
(10.0172 -0.328539 0)
(10.412 -0.42308 0)
(10.8962 -0.242398 0)
(11.0802 -0.127114 0)
(11.2577 -0.118516 0)
(11.2933 -0.130587 0)
(11.4119 -0.120433 0)
(11.439 -0.10699 0)
(11.5426 -0.0852586 0)
(11.5709 -0.0798163 0)
(11.6654 -0.0674335 0)
(11.6919 -0.0746528 0)
(11.7739 -0.0691104 0)
(11.7951 -0.0863477 0)
(11.8617 -0.0872489 0)
(11.8744 -0.119796 0)
(11.9208 -0.136681 0)
(11.917 -0.199498 0)
(11.9167 -0.242446 0)
(11.8232 -0.326464 0)
(10.0283 -0.385773 0)
(10.4468 -0.46963 0)
(10.9826 -0.254277 0)
(11.1131 -0.146539 0)
(11.3269 -0.138404 0)
(11.3202 -0.144253 0)
(11.4848 -0.131937 0)
(11.4695 -0.115433 0)
(11.6173 -0.0947508 0)
(11.6017 -0.0874667 0)
(11.7394 -0.0755906 0)
(11.7215 -0.0808519 0)
(11.8447 -0.0758667 0)
(11.8198 -0.091863 0)
(11.9226 -0.0923645 0)
(11.8855 -0.124585 0)
(11.9575 -0.138792 0)
(11.8955 -0.203996 0)
(11.8974 -0.241583 0)
(11.7362 -0.342651 0)
(10.0183 -0.448923 0)
(10.5064 -0.51595 0)
(11.0637 -0.266838 0)
(11.166 -0.167062 0)
(11.3932 -0.159658 0)
(11.3675 -0.157705 0)
(11.5585 -0.143676 0)
(11.5167 -0.12366 0)
(11.6907 -0.105099 0)
(11.6391 -0.094902 0)
(11.8001 -0.0844724 0)
(11.7355 -0.0864041 0)
(11.8764 -0.0826737 0)
(11.792 -0.095692 0)
(11.9037 -0.0959482 0)
(11.7922 -0.12622 0)
(11.8596 -0.136245 0)
(11.703 -0.203528 0)
(11.6777 -0.228414 0)
(11.4011 -0.349535 0)
(9.99609 -0.518726 0)
(10.5909 -0.559772 0)
(11.1437 -0.280118 0)
(11.245 -0.189747 0)
(11.4592 -0.181362 0)
(11.4381 -0.171718 0)
(11.617 -0.154365 0)
(11.5557 -0.131785 0)
(11.7039 -0.113836 0)
(11.6079 -0.100473 0)
(11.7324 -0.0903807 0)
(11.6063 -0.0880398 0)
(11.7059 -0.0854972 0)
(11.5489 -0.0928297 0)
(11.6186 -0.0954661 0)
(11.4287 -0.117203 0)
(11.4522 -0.131528 0)
(11.2114 -0.18425 0)
(11.1304 -0.217916 0)
(10.7725 -0.309153 0)
(9.97565 -0.597603 0)
(10.699 -0.595363 0)
(11.2367 -0.297937 0)
(11.3413 -0.216429 0)
(11.5048 -0.203489 0)
(11.4562 -0.183592 0)
(11.5466 -0.159997 0)
(11.414 -0.134305 0)
(11.4595 -0.113988 0)
(11.2826 -0.0978234 0)
(11.3187 -0.0860968 0)
(11.1213 -0.0815087 0)
(11.1545 -0.0779375 0)
(10.9368 -0.0830474 0)
(10.9597 -0.0846721 0)
(10.7147 -0.103212 0)
(10.7033 -0.115441 0)
(10.4037 -0.161386 0)
(10.2911 -0.191085 0)
(9.87287 -0.261421 0)
(9.98377 -0.686348 0)
(10.8303 -0.627898 0)
(11.3111 -0.326937 0)
(11.3377 -0.246263 0)
(11.3365 -0.216686 0)
(11.1489 -0.180978 0)
(11.0648 -0.14955 0)
(10.816 -0.120867 0)
(10.7387 -0.0991407 0)
(10.4942 -0.0824702 0)
(10.4565 -0.071279 0)
(10.2232 -0.0665015 0)
(10.2107 -0.0635193 0)
(9.97064 -0.0674824 0)
(9.9628 -0.0693083 0)
(9.69785 -0.084559 0)
(9.66222 -0.0953864 0)
(9.33705 -0.13364 0)
(9.20209 -0.156305 0)
(8.74977 -0.216642 0)
(10.0624 -0.799568 0)
(10.8983 -0.660627 0)
(11.1359 -0.349432 0)
(10.8819 -0.250327 0)
(10.6011 -0.196425 0)
(10.2362 -0.15054 0)
(10.004 -0.118127 0)
(9.68897 -0.0924446 0)
(9.54288 -0.0738998 0)
(9.28491 -0.0606885 0)
(9.21134 -0.0520993 0)
(8.98231 -0.0489292 0)
(8.94593 -0.0469706 0)
(8.71428 -0.0505054 0)
(8.68707 -0.0523424 0)
(8.42901 -0.0643107 0)
(8.37562 -0.0738499 0)
(8.05246 -0.10169 0)
(7.89985 -0.124077 0)
(7.45449 -0.153117 0)
(10.1422 -0.940005 0)
(10.5574 -0.659739 0)
(10.2799 -0.323972 0)
(9.66161 -0.205473 0)
(9.16822 -0.142742 0)
(8.72817 -0.102626 0)
(8.44505 -0.0783584 0)
(8.13707 -0.0605888 0)
(7.97655 -0.0476415 0)
(7.74548 -0.0391575 0)
(7.66352 -0.0335009 0)
(7.46463 -0.0320786 0)
(7.41892 -0.0309474 0)
(7.21637 -0.0340808 0)
(7.17804 -0.035458 0)
(6.94707 -0.0444863 0)
(6.88299 -0.0513518 0)
(6.58252 -0.0711471 0)
(6.42931 -0.0874729 0)
(5.99646 -0.103189 0)
(9.84107 -1.01421 0)
(9.35561 -0.570775 0)
(8.519 -0.237217 0)
(7.69183 -0.127399 0)
(7.16563 -0.0789718 0)
(6.76866 -0.0551141 0)
(6.51411 -0.041999 0)
(6.26142 -0.0324464 0)
(6.12334 -0.0251252 0)
(5.9421 -0.0208411 0)
(5.87128 -0.0177603 0)
(5.717 -0.0176482 0)
(5.67297 -0.0170603 0)
(5.51297 -0.0195363 0)
(5.47121 -0.0202593 0)
(5.28323 -0.0263149 0)
(5.21578 -0.0302857 0)
(4.96034 -0.0427182 0)
(4.81739 -0.0526162 0)
(4.42495 -0.0618995 0)
(8.59528 -0.86623 0)
(6.98277 -0.380065 0)
(5.87065 -0.120023 0)
(5.12353 -0.0499171 0)
(4.73439 -0.0271728 0)
(4.46321 -0.019539 0)
(4.28751 -0.0152366 0)
(4.11837 -0.01181 0)
(4.02467 -0.00886298 0)
(3.90728 -0.007572 0)
(3.85868 -0.0064255 0)
(3.75813 -0.00689123 0)
(3.72377 -0.00663238 0)
(3.61632 -0.00814792 0)
(3.57938 -0.00831553 0)
(3.44855 -0.0114858 0)
(3.38833 -0.0130051 0)
(3.20253 -0.0191212 0)
(3.0824 -0.0231579 0)
(2.78282 -0.0285117 0)
(5.34184 -0.307897 0)
(3.02812 -0.060747 0)
(2.24957 0.00146061 0)
(1.90521 0.00351591 0)
(1.7689 0.00132584 0)
(1.67557 0.000150207 0)
(1.61145 -1.35773e-05 0)
(1.54999 -3.37065e-05 0)
(1.51612 0.00012357 0)
(1.47491 -8.25363e-05 0)
(1.45677 -9.71977e-06 0)
(1.41993 -0.000315245 0)
(1.40421 -0.000183708 0)
(1.36227 -0.000580779 0)
(1.34254 -0.000381788 0)
(1.28839 -0.00101435 0)
(1.25505 -0.000862883 0)
(1.17331 -0.00189637 0)
(1.10747 -0.00212031 0)
(0.974305 0.00223413 0)
(2.10227 -0.181934 0)
(2.62297 -0.145342 0)
(3.12217 -0.179772 0)
(3.58356 -0.222395 0)
(3.9839 -0.268409 0)
(4.40721 -0.316381 0)
(4.87319 -0.336902 0)
(5.3499 -0.395611 0)
(5.85156 -0.463668 0)
(6.27564 -0.528842 0)
(6.69826 -0.608046 0)
(7.01395 -0.707938 0)
(7.32323 -0.78806 0)
(7.57572 -0.852498 0)
(7.82436 -0.916701 0)
(8.01331 -0.994593 0)
(8.22152 -1.1246 0)
(8.37234 -1.27785 0)
(8.51785 -1.44591 0)
(8.68958 -1.61912 0)
(8.82363 -1.78497 0)
(8.96419 -1.93948 0)
(9.13657 -2.09476 0)
(9.26023 -2.24377 0)
(9.38139 -2.39519 0)
(9.45111 -2.5318 0)
(9.47794 -2.63327 0)
(9.49428 -2.70906 0)
(9.49647 -2.76188 0)
(9.4908 -2.80373 0)
(9.46068 -2.82624 0)
(9.43842 -2.83977 0)
(9.40393 -2.84154 0)
(9.34725 -2.83951 0)
(9.27452 -2.83167 0)
(9.18009 -2.82464 0)
(9.08736 -2.81572 0)
(9.01737 -2.79668 0)
(8.99028 -2.76283 0)
(8.98911 -2.71517 0)
(8.98337 -2.66711 0)
(8.96096 -2.60794 0)
(8.93069 -2.54774 0)
(8.8945 -2.49078 0)
(8.86605 -2.41818 0)
(8.84028 -2.34236 0)
(8.80574 -2.25583 0)
(8.76493 -2.16964 0)
(8.67068 -2.05342 0)
(8.55491 -1.92263 0)
(8.45977 -1.80514 0)
(8.36089 -1.6695 0)
(8.26565 -1.53581 0)
(8.18828 -1.40901 0)
(8.11135 -1.27747 0)
(8.03402 -1.15892 0)
(7.97359 -1.05789 0)
(7.89222 -0.94917 0)
(7.82051 -0.840065 0)
(7.72144 -0.736745 0)
(7.61417 -0.613959 0)
(7.4822 -0.491402 0)
(7.35312 -0.38468 0)
(7.24201 -0.292964 0)
(7.12904 -0.214073 0)
(7.02191 -0.146391 0)
(6.92002 -0.0885805 0)
(6.83076 -0.0421922 0)
(6.74098 -0.00630894 0)
(6.66034 0.0348608 0)
(6.60558 0.0813242 0)
(6.55579 0.121634 0)
(6.5279 0.147479 0)
(6.49443 0.1623 0)
(6.46888 0.176632 0)
(6.46092 0.21515 0)
(6.45461 0.262322 0)
(6.45776 0.307387 0)
(6.44593 0.358224 0)
(6.4663 0.404716 0)
(6.46375 0.442315 0)
(6.47223 0.471433 0)
(6.4882 0.49675 0)
(6.49631 0.5038 0)
(6.51063 0.497714 0)
(6.5097 0.48937 0)
(6.49014 0.491303 0)
(6.4755 0.494707 0)
(6.44417 0.484213 0)
(6.44351 0.484731 0)
(6.40368 0.47163 0)
(6.42165 0.459554 0)
(6.41821 0.431185 0)
(6.42183 0.427321 0)
(6.44368 0.397705 0)
(6.45752 0.378308 0)
(6.5055 0.354846 0)
(6.5147 0.350351 0)
(6.58968 0.322331 0)
(6.58462 0.310384 0)
(6.63534 0.289017 0)
(6.60696 0.308008 0)
(6.65329 0.292048 0)
(6.63208 0.327298 0)
(6.68312 0.316933 0)
(6.6347 0.363688 0)
(6.69655 0.339681 0)
(6.62494 0.384263 0)
(6.71282 0.367205 0)
(6.6108 0.418259 0)
(6.69906 0.382801 0)
(6.57935 0.414267 0)
(6.66628 0.379279 0)
(6.52976 0.423226 0)
(6.63847 0.381485 0)
(6.47429 0.434508 0)
(6.62327 0.393457 0)
(6.42354 0.437834 0)
(6.58158 0.384903 0)
(6.3879 0.437399 0)
(6.52119 0.38299 0)
(6.36827 0.448436 0)
(6.46232 0.385428 0)
(6.34688 0.469945 0)
(6.42307 0.380049 0)
(6.31662 0.469526 0)
(6.39279 0.351036 0)
(6.27043 0.445642 0)
(6.34268 0.310165 0)
(6.23154 0.407621 0)
(6.28354 0.262483 0)
(6.24623 0.365763 0)
(6.23721 0.211234 0)
(6.27988 0.306783 0)
(6.21701 0.152083 0)
(6.33471 0.242063 0)
(6.20212 0.0802916 0)
(6.38 0.158675 0)
(6.18001 0.0127827 0)
(6.4044 0.0902192 0)
(6.20567 -0.0347974 0)
(6.39846 0.0622637 0)
(6.25913 -0.0636715 0)
(6.41499 0.0370235 0)
(6.30198 -0.0778512 0)
(6.45807 0.00348804 0)
(6.34541 -0.0831288 0)
(6.48539 -0.0219436 0)
(6.41371 -0.0842512 0)
(6.51136 -0.0405864 0)
(6.47498 -0.0850526 0)
(6.55527 -0.0526513 0)
(6.52736 -0.075934 0)
(6.59217 -0.0363394 0)
(6.55427 -0.0397651 0)
(6.61572 0.0019123 0)
(6.58114 -0.0116819 0)
(6.64128 0.0472376 0)
(6.59104 0.0271711 0)
(6.66129 0.10216 0)
(6.58727 0.0889703 0)
(6.66303 0.169105 0)
(6.58829 0.151651 0)
(6.62786 0.239749 0)
(6.56855 0.222702 0)
(6.56011 0.310041 0)
(6.53312 0.288992 0)
(6.47652 0.377195 0)
(6.49506 0.356421 0)
(6.40401 0.45186 0)
(6.44478 0.449947 0)
(6.35292 0.556669 0)
(6.42289 0.567702 0)
(6.34463 0.691771 0)
(6.41396 0.703533 0)
(6.34272 0.84499 0)
(6.41094 0.851719 0)
(6.34262 1.01846 0)
(6.42326 1.02129 0)
(6.32209 1.21526 0)
(6.45516 1.22179 0)
(6.28972 1.43854 0)
(6.47461 1.44492 0)
(6.2583 1.68923 0)
(6.46102 1.69017 0)
(6.20443 1.95682 0)
(6.39695 1.95955 0)
(6.15137 2.25995 0)
(6.30368 2.27891 0)
(6.08041 2.624 0)
(6.20895 2.69039 0)
(5.99083 3.08303 0)
(6.06689 3.23668 0)
(5.7846 3.68382 0)
(5.89326 3.95415 0)
(5.68709 4.52652 0)
(5.66783 4.97254 0)
(5.22946 6.03631 0)
(5.73619 6.82639 0)
(3.25252 9.97542 0)
(4.06051 -0.226409 0)
(4.27103 -0.255931 0)
(4.55086 -0.323803 0)
(4.86268 -0.381093 0)
(5.17432 -0.42375 0)
(5.49411 -0.474107 0)
(5.80635 -0.512069 0)
(6.12594 -0.570036 0)
(6.46852 -0.639013 0)
(6.76858 -0.69975 0)
(7.11177 -0.772375 0)
(7.40363 -0.851072 0)
(7.65457 -0.918654 0)
(7.90634 -0.973444 0)
(8.16464 -1.02651 0)
(8.39101 -1.09155 0)
(8.6128 -1.19489 0)
(8.78155 -1.33434 0)
(8.93271 -1.49697 0)
(9.08733 -1.67414 0)
(9.21526 -1.83861 0)
(9.35683 -1.99272 0)
(9.50495 -2.14642 0)
(9.62308 -2.28738 0)
(9.70306 -2.42288 0)
(9.73739 -2.54791 0)
(9.73899 -2.64361 0)
(9.75069 -2.71749 0)
(9.75652 -2.76555 0)
(9.74504 -2.79661 0)
(9.70166 -2.81268 0)
(9.66688 -2.82313 0)
(9.62046 -2.81983 0)
(9.55543 -2.81128 0)
(9.4762 -2.79271 0)
(9.38193 -2.78063 0)
(9.29333 -2.77899 0)
(9.2197 -2.77508 0)
(9.18104 -2.75362 0)
(9.16634 -2.71007 0)
(9.13302 -2.65884 0)
(9.08881 -2.59359 0)
(9.03984 -2.52992 0)
(8.9926 -2.47306 0)
(8.95264 -2.40337 0)
(8.90448 -2.32756 0)
(8.85368 -2.23427 0)
(8.78437 -2.13467 0)
(8.66096 -2.00483 0)
(8.53647 -1.87688 0)
(8.43295 -1.76085 0)
(8.32234 -1.62876 0)
(8.22259 -1.50237 0)
(8.13627 -1.37447 0)
(8.05135 -1.24273 0)
(7.97237 -1.12802 0)
(7.90764 -1.02722 0)
(7.81767 -0.914594 0)
(7.73694 -0.801656 0)
(7.6264 -0.691178 0)
(7.51469 -0.561299 0)
(7.38106 -0.439949 0)
(7.26158 -0.335304 0)
(7.15756 -0.246144 0)
(7.05189 -0.169689 0)
(6.95076 -0.104382 0)
(6.85112 -0.0473295 0)
(6.76264 -0.003143 0)
(6.67278 0.0303299 0)
(6.58979 0.0661601 0)
(6.53203 0.104155 0)
(6.48333 0.138303 0)
(6.45803 0.15983 0)
(6.4267 0.174179 0)
(6.39924 0.186473 0)
(6.38491 0.221291 0)
(6.37496 0.268057 0)
(6.37755 0.310573 0)
(6.36156 0.358401 0)
(6.37833 0.403398 0)
(6.37408 0.442063 0)
(6.37457 0.469302 0)
(6.39178 0.490568 0)
(6.40289 0.499299 0)
(6.41555 0.496832 0)
(6.41641 0.494153 0)
(6.39116 0.501526 0)
(6.37608 0.505804 0)
(6.34607 0.49301 0)
(6.3433 0.495087 0)
(6.30996 0.474553 0)
(6.3273 0.458557 0)
(6.32294 0.427481 0)
(6.33136 0.424117 0)
(6.35364 0.387857 0)
(6.36919 0.367146 0)
(6.41756 0.341533 0)
(6.43124 0.334931 0)
(6.50676 0.303469 0)
(6.51266 0.302328 0)
(6.55839 0.28402 0)
(6.53389 0.307313 0)
(6.58502 0.285212 0)
(6.56202 0.323274 0)
(6.62607 0.315354 0)
(6.57692 0.365361 0)
(6.65759 0.338942 0)
(6.57338 0.386304 0)
(6.66933 0.369286 0)
(6.55599 0.425209 0)
(6.65374 0.38602 0)
(6.52735 0.426733 0)
(6.62599 0.386372 0)
(6.47332 0.433709 0)
(6.6091 0.390257 0)
(6.42021 0.442843 0)
(6.59627 0.402447 0)
(6.37208 0.44848 0)
(6.55058 0.395494 0)
(6.33667 0.449114 0)
(6.48582 0.390639 0)
(6.31696 0.455949 0)
(6.43221 0.395163 0)
(6.28517 0.475076 0)
(6.40136 0.389706 0)
(6.2546 0.472151 0)
(6.3775 0.360415 0)
(6.2087 0.452168 0)
(6.33024 0.322087 0)
(6.16241 0.412584 0)
(6.28252 0.267016 0)
(6.17623 0.362892 0)
(6.25775 0.215517 0)
(6.21464 0.297236 0)
(6.2613 0.151717 0)
(6.27047 0.235116 0)
(6.26546 0.0817227 0)
(6.31841 0.158792 0)
(6.23885 0.0126842 0)
(6.35595 0.0847617 0)
(6.23729 -0.0339273 0)
(6.35994 0.0502088 0)
(6.28252 -0.069189 0)
(6.3628 0.0303467 0)
(6.33502 -0.0879544 0)
(6.39985 0.00179929 0)
(6.38126 -0.0937859 0)
(6.43896 -0.0298818 0)
(6.44616 -0.0970733 0)
(6.46045 -0.0475847 0)
(6.50644 -0.0980453 0)
(6.50157 -0.0568821 0)
(6.55071 -0.0870666 0)
(6.54354 -0.037391 0)
(6.57288 -0.0498002 0)
(6.5922 -0.00143235 0)
(6.59295 -0.0213953 0)
(6.63745 0.0486505 0)
(6.59295 0.0183583 0)
(6.6768 0.109709 0)
(6.58361 0.0763647 0)
(6.70111 0.179719 0)
(6.57252 0.14246 0)
(6.68413 0.25945 0)
(6.5492 0.217008 0)
(6.64039 0.335878 0)
(6.51661 0.284721 0)
(6.57373 0.404705 0)
(6.48467 0.353741 0)
(6.49753 0.48296 0)
(6.44072 0.445697 0)
(6.44883 0.57282 0)
(6.456 0.554634 0)
(6.43131 0.696664 0)
(6.47548 0.698537 0)
(6.40842 0.848711 0)
(6.5182 0.851001 0)
(6.38823 1.02012 0)
(6.57744 1.02491 0)
(6.35818 1.22127 0)
(6.62485 1.21701 0)
(6.35008 1.4555 0)
(6.63178 1.43316 0)
(6.34179 1.71791 0)
(6.60985 1.68198 0)
(6.31241 1.99332 0)
(6.54805 1.95384 0)
(6.24904 2.28783 0)
(6.4996 2.27921 0)
(6.17895 2.65499 0)
(6.43429 2.68437 0)
(6.13202 3.11919 0)
(6.39045 3.2104 0)
(6.10284 3.72316 0)
(6.20315 3.95856 0)
(5.93232 4.64262 0)
(6.07255 5.02158 0)
(5.51085 6.26979 0)
(6.96277 6.6483 0)
(4.62259 10.7333 0)
(5.898 -0.26252 0)
(6.00282 -0.323352 0)
(6.17574 -0.405201 0)
(6.37474 -0.480318 0)
(6.58613 -0.534404 0)
(6.79331 -0.582914 0)
(6.99754 -0.621855 0)
(7.17561 -0.676242 0)
(7.38686 -0.748323 0)
(7.56937 -0.814265 0)
(7.79359 -0.888379 0)
(8.0082 -0.957298 0)
(8.1779 -1.0162 0)
(8.36773 -1.07454 0)
(8.58367 -1.13047 0)
(8.79867 -1.19232 0)
(9.01109 -1.28562 0)
(9.21228 -1.40514 0)
(9.37703 -1.55513 0)
(9.51198 -1.72448 0)
(9.63427 -1.88675 0)
(9.75322 -2.03781 0)
(9.85632 -2.19013 0)
(9.94342 -2.32536 0)
(9.98808 -2.44722 0)
(10.0139 -2.55649 0)
(10.0066 -2.64513 0)
(10.0042 -2.71868 0)
(9.98639 -2.76521 0)
(9.96305 -2.78505 0)
(9.90905 -2.79593 0)
(9.86216 -2.80343 0)
(9.79965 -2.79432 0)
(9.72505 -2.78155 0)
(9.64824 -2.75709 0)
(9.56681 -2.74261 0)
(9.49677 -2.74512 0)
(9.42544 -2.74953 0)
(9.36877 -2.73603 0)
(9.32679 -2.69464 0)
(9.26694 -2.6401 0)
(9.20114 -2.57049 0)
(9.13293 -2.50623 0)
(9.07491 -2.44923 0)
(9.02061 -2.38131 0)
(8.94916 -2.30103 0)
(8.87609 -2.19929 0)
(8.7739 -2.08818 0)
(8.63234 -1.95184 0)
(8.5063 -1.82907 0)
(8.39025 -1.71262 0)
(8.26983 -1.58464 0)
(8.16784 -1.46538 0)
(8.0713 -1.33698 0)
(7.97978 -1.20775 0)
(7.89754 -1.0964 0)
(7.825 -0.994329 0)
(7.72428 -0.876278 0)
(7.62984 -0.757657 0)
(7.50972 -0.640154 0)
(7.3967 -0.507501 0)
(7.26589 -0.391002 0)
(7.16018 -0.289351 0)
(7.06317 -0.202451 0)
(6.96211 -0.127814 0)
(6.86607 -0.0635191 0)
(6.76757 -0.00698699 0)
(6.67775 0.0360958 0)
(6.59136 0.0668651 0)
(6.51104 0.0981377 0)
(6.4525 0.127691 0)
(6.40418 0.154778 0)
(6.37869 0.170752 0)
(6.35106 0.184913 0)
(6.32215 0.19842 0)
(6.30257 0.229658 0)
(6.28663 0.27403 0)
(6.28784 0.315792 0)
(6.26783 0.361581 0)
(6.28142 0.404212 0)
(6.277 0.442901 0)
(6.26913 0.467814 0)
(6.28499 0.484077 0)
(6.29886 0.49314 0)
(6.3091 0.495161 0)
(6.31208 0.499169 0)
(6.28465 0.511611 0)
(6.26845 0.516511 0)
(6.24171 0.501633 0)
(6.23588 0.504039 0)
(6.21086 0.475735 0)
(6.22812 0.457976 0)
(6.22079 0.424544 0)
(6.23378 0.419912 0)
(6.25995 0.376905 0)
(6.27016 0.355499 0)
(6.32583 0.326706 0)
(6.33354 0.318434 0)
(6.41668 0.283696 0)
(6.41834 0.293747 0)
(6.47338 0.278279 0)
(6.44085 0.305637 0)
(6.50614 0.27956 0)
(6.47004 0.317731 0)
(6.55505 0.308266 0)
(6.49789 0.362171 0)
(6.60201 0.334094 0)
(6.51171 0.389996 0)
(6.61618 0.370093 0)
(6.50064 0.434465 0)
(6.6001 0.387014 0)
(6.47224 0.439433 0)
(6.57548 0.391237 0)
(6.41485 0.443463 0)
(6.55668 0.394462 0)
(6.36866 0.452486 0)
(6.5399 0.408077 0)
(6.33237 0.461066 0)
(6.48514 0.402576 0)
(6.30713 0.464677 0)
(6.41682 0.396449 0)
(6.28906 0.466977 0)
(6.36694 0.401055 0)
(6.26179 0.483825 0)
(6.33487 0.393263 0)
(6.23917 0.481094 0)
(6.30432 0.363736 0)
(6.20205 0.464801 0)
(6.25158 0.327641 0)
(6.16366 0.423345 0)
(6.20088 0.26326 0)
(6.19003 0.367891 0)
(6.1764 0.206671 0)
(6.25152 0.298245 0)
(6.17784 0.137204 0)
(6.32546 0.238001 0)
(6.18112 0.0682819 0)
(6.3868 0.17143 0)
(6.15062 -0.00166267 0)
(6.43911 0.0981999 0)