/*--------------------------------*- C++ -*----------------------------------*\
| =========                 |                                                 |
| \\      /  F ield         | OpenFOAM: The Open Source CFD Toolbox           |
|  \\    /   O peration     | Version:  2.4.0                                 |
|   \\  /    A nd           | Web:      www.OpenFOAM.org                      |
|    \\/     M anipulation  |                                                 |
\*---------------------------------------------------------------------------*/
FoamFile
{
    version     2.0;
    format      ascii;
    class       volScalarField;
    location    "0.086";
    object      nuSgs;
}
// * * * * * * * * * * * * * * * * * * * * * * * * * * * * * * * * * * * * * //

dimensions      [0 2 -1 0 0 0 0];

internalField   nonuniform List<scalar> 
17600
(
0.0010129
0.000904763
0.000752406
0.000658783
0.000607685
0.000571029
0.000544218
0.00052543
0.0005035
0.000496901
0.000479086
0.000476896
0.000462571
0.00046097
0.000452537
0.000443604
0.000444018
0.000436566
0.000427664
0.000445876
0.00070558
0.000827988
0.000803297
0.00074663
0.000698777
0.000659127
0.000628758
0.000608475
0.000581975
0.000574623
0.000553557
0.000549597
0.000534937
0.000531226
0.000522992
0.000511631
0.000512556
0.000502504
0.000496499
0.000496528
0.000382614
0.00060228
0.000664317
0.000661335
0.000645049
0.000619007
0.000594736
0.000580445
0.000556438
0.000550195
0.000531885
0.000527291
0.000515062
0.000509904
0.000504471
0.000492449
0.000493593
0.00048362
0.00048262
0.000472455
0.000151675
0.000363685
0.000460919
0.000506804
0.000526617
0.000527629
0.000520921
0.000516814
0.000502745
0.000498799
0.00048672
0.000482845
0.000474841
0.000468672
0.000466685
0.000456813
0.000457288
0.000449762
0.00044947
0.000440512
5.37058e-05
0.000173298
0.000265655
0.000326599
0.000368716
0.000400508
0.000408811
0.000422979
0.00042228
0.000423697
0.000421389
0.000420131
0.000418721
0.000413804
0.000414611
0.000409714
0.000409315
0.000406279
0.00040498
0.00039956
1.74452e-05
7.0304e-05
0.000123563
0.000173257
0.000209039
0.00025716
0.000273598
0.000301472
0.000315862
0.000325049
0.000334258
0.000337503
0.000344725
0.000344236
0.000348351
0.000348643
0.000348665
0.00035034
0.000349839
0.000347849
5.57513e-06
2.65603e-05
4.72743e-05
7.55572e-05
9.5715e-05
0.000133724
0.000151073
0.000175599
0.000201454
0.000211279
0.000229941
0.000237252
0.000253025
0.000256832
0.000265587
0.000273756
0.000274919
0.000281045
0.00028366
0.000283332
2.31761e-06
9.75975e-06
1.69442e-05
2.73801e-05
3.65523e-05
5.58135e-05
6.91784e-05
8.11746e-05
0.000105127
0.000113912
0.000131104
0.000138732
0.000155795
0.000162326
0.000172414
0.000187542
0.000190145
0.000200252
0.000205478
0.000208283
1.74052e-06
4.1473e-06
6.34913e-06
9.44015e-06
1.25001e-05
1.99196e-05
2.60973e-05
3.16081e-05
4.40706e-05
4.96926e-05
6.11059e-05
6.6374e-05
7.81623e-05
8.42281e-05
9.10694e-05
0.000106336
0.000109258
0.000120137
0.000124932
0.000130094
1.6331e-06
2.82892e-06
3.31141e-06
3.9447e-06
4.64717e-06
7.01926e-06
9.13313e-06
1.1127e-05
1.60177e-05
1.83117e-05
2.35255e-05
2.59799e-05
3.19006e-05
3.50322e-05
3.90182e-05
4.86658e-05
5.07398e-05
5.83628e-05
6.14328e-05
6.60063e-05
1.57463e-06
2.04732e-06
2.763e-06
3.02221e-06
3.02419e-06
3.37641e-06
4.16072e-06
4.72349e-06
6.21279e-06
6.8877e-06
8.67944e-06
9.33249e-06
1.1224e-05
1.24475e-05
1.40505e-05
1.82876e-05
1.91141e-05
2.2701e-05
2.48545e-05
2.65508e-05
1.55782e-06
1.88735e-06
2.79219e-06
3.178e-06
2.99188e-06
3.004e-06
3.16963e-06
3.21493e-06
3.41739e-06
3.84934e-06
4.51447e-06
4.63298e-06
5.01738e-06
5.66079e-06
5.99631e-06
6.9882e-06
7.18902e-06
8.32852e-06
9.35185e-06
9.24641e-06
1.57621e-06
1.86256e-06
2.77798e-06
3.03006e-06
2.83401e-06
2.70623e-06
2.65571e-06
2.64915e-06
2.80749e-06
3.35801e-06
3.54709e-06
3.75969e-06
4.07796e-06
4.10525e-06
4.06767e-06
4.15313e-06
4.15748e-06
4.31434e-06
4.42855e-06
4.43179e-06
1.56802e-06
1.88141e-06
2.42603e-06
2.40587e-06
2.39217e-06
2.47564e-06
2.52858e-06
2.61398e-06
3.00867e-06
3.12413e-06
3.17495e-06
3.35874e-06
3.36786e-06
3.29788e-06
3.28537e-06
3.4052e-06
3.41483e-06
3.43103e-06
3.46027e-06
3.69531e-06
1.53178e-06
1.81786e-06
1.95136e-06
2.1605e-06
2.45498e-06
2.53233e-06
2.57069e-06
2.73797e-06
2.7991e-06
2.72589e-06
2.74338e-06
2.79796e-06
2.81137e-06
2.84482e-06
2.96317e-06
3.08988e-06
3.11125e-06
3.12396e-06
3.15595e-06
3.78808e-06
1.51433e-06
1.70498e-06
1.87923e-06
2.34506e-06
2.44385e-06
2.43215e-06
2.46943e-06
2.46554e-06
2.41662e-06
2.41868e-06
2.54774e-06
2.62663e-06
2.68335e-06
2.84701e-06
2.92009e-06
2.93488e-06
2.94126e-06
2.95287e-06
3.02753e-06
3.2599e-06
1.51448e-06
1.6881e-06
2.00662e-06
2.2648e-06
2.24232e-06
2.20497e-06
2.22699e-06
2.24088e-06
2.2917e-06
2.47988e-06
2.55328e-06
2.57322e-06
2.63742e-06
2.68067e-06
2.67297e-06
2.67089e-06
2.68279e-06
2.68957e-06
2.76527e-06
2.74179e-06
1.52157e-06
1.67007e-06
1.96063e-06
2.10121e-06
2.12075e-06
2.18811e-06
2.23389e-06
2.25369e-06
2.34434e-06
2.38422e-06
2.38696e-06
2.39308e-06
2.41475e-06
2.43982e-06
2.44757e-06
2.48899e-06
2.53184e-06
2.53008e-06
2.54715e-06
2.53986e-06
1.51011e-06
1.64306e-06
1.86558e-06
2.11004e-06
2.18683e-06
2.19311e-06
2.19729e-06
2.19778e-06
2.22591e-06
2.23405e-06
2.26914e-06
2.28788e-06
2.32936e-06
2.34867e-06
2.36397e-06
2.39407e-06
2.4187e-06
2.40596e-06
2.419e-06
2.47744e-06
1.50625e-06
1.66092e-06
1.98576e-06
2.05578e-06
2.05927e-06
2.08356e-06
2.16596e-06
2.18739e-06
2.2262e-06
2.23097e-06
2.23053e-06
2.22716e-06
2.23326e-06
2.27158e-06
2.2888e-06
2.33881e-06
2.34612e-06
2.35437e-06
2.38115e-06
2.55181e-06
1.50573e-06
1.74423e-06
1.8389e-06
1.89282e-06
2.03978e-06
2.16469e-06
2.18914e-06
2.187e-06
2.17696e-06
2.13834e-06
2.13038e-06
2.13424e-06
2.176e-06
2.2454e-06
2.25457e-06
2.27867e-06
2.32076e-06
2.34702e-06
2.35347e-06
2.39507e-06
1.50876e-06
1.67578e-06
1.77234e-06
2.0385e-06
2.18257e-06
2.18343e-06
2.14945e-06
2.10874e-06
2.09738e-06
2.09511e-06
2.14319e-06
2.21331e-06
2.26541e-06
2.27583e-06
2.26949e-06
2.27101e-06
2.3152e-06
2.37329e-06
2.43594e-06
2.94601e-06
1.51268e-06
1.65041e-06
1.92183e-06
2.1575e-06
2.15026e-06
2.08959e-06
2.07976e-06
2.10782e-06
2.16338e-06
2.22872e-06
2.29971e-06
2.29207e-06
2.28668e-06
2.2653e-06
2.24526e-06
2.34788e-06
2.3457e-06
2.37259e-06
2.54137e-06
2.56647e-06
1.51916e-06
1.7016e-06
2.02395e-06
2.06255e-06
2.0364e-06
2.05584e-06
2.23049e-06
2.31341e-06
2.32075e-06
2.32532e-06
2.32129e-06
2.2731e-06
2.29955e-06
2.29613e-06
2.32415e-06
2.50788e-06
2.51909e-06
2.56516e-06
2.62523e-06
2.81269e-06
1.52395e-06
1.7742e-06
1.89979e-06
2.01534e-06
2.18397e-06
2.35289e-06
2.39565e-06
2.37363e-06
2.34633e-06
2.33529e-06
2.31752e-06
2.33279e-06
2.48422e-06
2.51696e-06
2.64923e-06
2.65335e-06
2.62514e-06
2.72313e-06
2.75088e-06
2.78282e-06
1.53297e-06
1.75063e-06
1.91667e-06
2.26306e-06
2.42064e-06
2.43852e-06
2.39594e-06
2.37738e-06
2.39308e-06
2.42919e-06
2.50669e-06
2.72231e-06
2.72671e-06
2.71777e-06
2.80314e-06
2.76126e-06
2.75761e-06
2.88364e-06
2.93597e-06
3.09804e-06
1.54572e-06
1.74954e-06
2.08157e-06
2.44049e-06
2.47358e-06
2.4335e-06
2.43136e-06
2.51788e-06
2.6478e-06
2.73209e-06
2.87677e-06
2.91105e-06
2.86166e-06
2.91569e-06
2.94934e-06
2.94615e-06
3.10095e-06
3.28342e-06
3.48986e-06
3.75846e-06
1.55757e-06
1.78584e-06
2.2595e-06
2.48965e-06
2.5023e-06
2.51625e-06
2.69284e-06
2.91827e-06
2.96472e-06
3.03614e-06
3.14953e-06
3.13759e-06
3.15614e-06
3.36994e-06
3.46586e-06
3.73144e-06
4.13086e-06
4.58328e-06
5.20066e-06
6.48415e-06
1.58998e-06
1.83443e-06
2.43433e-06
2.55166e-06
2.80425e-06
2.89709e-06
3.20039e-06
3.31166e-06
3.42167e-06
3.70223e-06
3.98465e-06
4.14903e-06
4.5668e-06
5.28043e-06
5.75021e-06
7.14097e-06
8.22e-06
1.02595e-05
1.23667e-05
1.68558e-05
1.61667e-06
1.92017e-06
2.69462e-06
3.02762e-06
3.50449e-06
3.70294e-06
4.40643e-06
4.98084e-06
5.57439e-06
6.98556e-06
7.92981e-06
9.32046e-06
1.0752e-05
1.32733e-05
1.50713e-05
1.95168e-05
2.2446e-05
2.81599e-05
3.28326e-05
4.41154e-05
1.6342e-06
2.29425e-06
3.5187e-06
4.78579e-06
5.64999e-06
6.77616e-06
9.5681e-06
1.21872e-05
1.43147e-05
1.91369e-05
2.20364e-05
2.67878e-05
3.05759e-05
3.73762e-05
4.13885e-05
5.08799e-05
5.6437e-05
6.7664e-05
7.52623e-05
9.54062e-05
1.7595e-06
4.01066e-06
6.69717e-06
1.05294e-05
1.38634e-05
1.80969e-05
2.69671e-05
3.43247e-05
4.00951e-05
5.21876e-05
5.86861e-05
6.80002e-05
7.64789e-05
8.86263e-05
9.47436e-05
0.000109192
0.000117076
0.000132949
0.000142447
0.00016872
2.36553e-06
9.85142e-06
1.75947e-05
2.7737e-05
3.9449e-05
5.04668e-05
7.23583e-05
8.49984e-05
9.83607e-05
0.00011855
0.0001287
0.000140502
0.000155244
0.000168278
0.000175339
0.000191355
0.000199417
0.000214861
0.000223445
0.000245421
5.61934e-06
2.64946e-05
4.91767e-05
7.31591e-05
0.000101654
0.000123453
0.000159759
0.000174875
0.000197435
0.000215823
0.00022849
0.000239204
0.000253276
0.000261326
0.000267439
0.0002787
0.000283903
0.000293416
0.000299125
0.00031302
1.7494e-05
6.96896e-05
0.000125209
0.00017007
0.000215594
0.000248307
0.000282042
0.000297304
0.000316595
0.000326203
0.00033439
0.000338439
0.000345461
0.000346943
0.000349927
0.000353024
0.000355648
0.000358507
0.000361616
0.000366859
5.37943e-05
0.000171564
0.000266571
0.000325292
0.000371505
0.000396054
0.000414621
0.000418577
0.000424574
0.000422932
0.000422675
0.000419857
0.00041938
0.000415883
0.000415305
0.000412744
0.00041243
0.000410629
0.00041027
0.00040916
0.000151874
0.000363024
0.000461534
0.000506041
0.000527593
0.000526692
0.000523269
0.000513152
0.000507383
0.00049472
0.000490203
0.000480015
0.000476443
0.000468048
0.000465603
0.000458289
0.000456076
0.00045
0.000446217
0.000441174
0.000383022
0.000601625
0.000664609
0.000661026
0.000645802
0.00061752
0.000597411
0.000575643
0.000562705
0.000544036
0.000537119
0.000522465
0.000517208
0.000505818
0.00050201
0.000490774
0.000486972
0.000476305
0.000469638
0.000458682
0.000705802
0.000827319
0.000803529
0.000746058
0.000699662
0.000658178
0.00063057
0.000604104
0.000587986
0.000567278
0.000559428
0.000543083
0.000537081
0.000523814
0.000519215
0.000504811
0.000499503
0.000484297
0.00047521
0.000456456
0.00101303
0.000904031
0.000752935
0.000658249
0.000608191
0.000570393
0.000545452
0.000521795
0.000507925
0.000490405
0.000483467
0.000469694
0.000464316
0.000451229
0.000446994
0.000432169
0.000425603
0.000408059
0.000397085
0.000372012
0.000196249
0.000168148
0.000160004
0.000158454
0.000162078
0.00015473
0.000113337
8.70117e-05
8.36533e-05
8.13102e-05
7.56762e-05
6.90224e-05
6.38804e-05
5.9929e-05
5.96366e-05
6.0303e-05
6.097e-05
6.23375e-05
6.42879e-05
6.77725e-05
7.16453e-05
7.53687e-05
8.15156e-05
9.0189e-05
9.14961e-05
8.93521e-05
8.17038e-05
5.84709e-05
3.65405e-05
2.28476e-05
1.44741e-05
9.75057e-06
7.24348e-06
5.84242e-06
5.20473e-06
5.06625e-06
5.13948e-06
5.32925e-06
5.91032e-06
6.66287e-06
8.67987e-06
1.02942e-05
1.2392e-05
1.28061e-05
1.21894e-05
1.22337e-05
1.31202e-05
1.32661e-05
1.39441e-05
1.55631e-05
1.67992e-05
2.05783e-05
3.64861e-05
5.01268e-05
5.50011e-05
5.56874e-05
5.51178e-05
5.1571e-05
5.06461e-05
5.0925e-05
5.15579e-05
5.26662e-05
5.62289e-05
5.73537e-05
5.74395e-05
6.02896e-05
6.40731e-05
6.43964e-05
5.93297e-05
4.83121e-05
4.37878e-05
4.40625e-05
4.8457e-05
5.16153e-05
5.32989e-05
5.41562e-05
5.38549e-05
5.27424e-05
4.87295e-05
4.16498e-05
3.8312e-05
3.84048e-05
4.35841e-05
5.08581e-05
5.14957e-05
4.89777e-05
4.17265e-05
3.88873e-05
3.86884e-05
4.01346e-05
4.12429e-05
4.10891e-05
4.23094e-05
4.26028e-05
4.1202e-05
3.50725e-05
3.27084e-05
3.41016e-05
3.69265e-05
3.67321e-05
3.24381e-05
2.75932e-05
2.58604e-05
2.47881e-05
2.39335e-05
2.37339e-05
2.3869e-05
2.39222e-05
2.39605e-05
2.4177e-05
2.51712e-05
2.7508e-05
3.46811e-05
4.01141e-05
4.25501e-05
4.3388e-05
4.3592e-05
4.35071e-05
4.30617e-05
4.03457e-05
3.64493e-05
3.43927e-05
3.38048e-05
3.42515e-05
3.76768e-05
4.00632e-05
4.07607e-05
3.98279e-05
3.50628e-05
2.92391e-05
2.50257e-05
2.18169e-05
1.93716e-05
1.76131e-05
1.60084e-05
1.48985e-05
1.38284e-05
1.29262e-05
1.19696e-05
1.11351e-05
1.03085e-05
9.59217e-06
9.00278e-06
8.4931e-06
8.19889e-06
7.8949e-06
7.76985e-06
7.60631e-06
7.56684e-06
7.48325e-06
7.46868e-06
7.42482e-06
7.40446e-06
7.33687e-06
7.23217e-06
6.94739e-06
6.61772e-06
6.18476e-06
5.78134e-06
5.38879e-06
4.97261e-06
4.66744e-06
4.24955e-06
4.09014e-06
3.74315e-06
3.65569e-06
3.41908e-06
3.38941e-06
3.24936e-06
3.23512e-06
3.07715e-06
2.96415e-06
2.61931e-06
2.34476e-06
2.00415e-06
1.84647e-06
1.77867e-06
1.8114e-06
1.96381e-06
1.9976e-06
2.25198e-06
2.14668e-06
2.06945e-06
1.66777e-06
1.63191e-06
1.54917e-06
1.60646e-06
1.88798e-06
1.70697e-06
1.81417e-06
1.75776e-06
1.93299e-06
2.6515e-06
2.71273e-06
3.13639e-06
4.20224e-06
6.19225e-06
1.23464e-05
3.83652e-05
0.000123818
0.000242439
0.000208285
0.000185168
0.000174944
0.0001674
0.00016907
0.000162556
0.00013537
0.000105313
9.19033e-05
7.97933e-05
7.1688e-05
6.8773e-05
6.69058e-05
6.70918e-05
6.81807e-05
7.07539e-05
7.74273e-05
8.34768e-05
9.06461e-05
9.46882e-05
9.70928e-05
9.76967e-05
9.65781e-05
9.36047e-05
8.55981e-05
6.26334e-05
3.97677e-05
2.51139e-05
1.59422e-05
1.05995e-05
7.78629e-06
6.26815e-06
5.39404e-06
5.07691e-06
5.04092e-06
5.14677e-06
5.41667e-06
6.1089e-06
7.08575e-06
9.02366e-06
1.19104e-05
1.4157e-05
1.46148e-05
1.39427e-05
1.39618e-05
1.47931e-05
1.4908e-05
1.59256e-05
1.73927e-05
1.85083e-05
2.38688e-05
4.25065e-05
5.27625e-05
5.55532e-05
5.53069e-05
5.21901e-05
4.80598e-05
4.79496e-05
4.85206e-05
4.97848e-05
5.16121e-05
5.58651e-05
5.7215e-05
5.73074e-05
5.97549e-05
6.33378e-05
6.3932e-05
5.94657e-05
4.89167e-05
4.46291e-05
4.49495e-05
4.90647e-05
5.19316e-05
5.37092e-05
5.45835e-05
5.43473e-05
5.33261e-05
4.9078e-05
4.21322e-05
3.92528e-05
3.96419e-05
4.59529e-05
5.23138e-05
5.25601e-05
4.91667e-05
4.15843e-05
3.88934e-05
3.88378e-05
4.08379e-05
4.17416e-05
4.15441e-05
4.29006e-05
4.30539e-05
4.0897e-05
3.44314e-05
3.2252e-05
3.38572e-05
3.71539e-05
3.68663e-05
3.20574e-05
2.7251e-05
2.56147e-05
2.48533e-05
2.40853e-05
2.38829e-05
2.4074e-05
2.40915e-05
2.40135e-05
2.41243e-05
2.49367e-05
2.73237e-05
3.45892e-05
3.98399e-05
4.23393e-05
4.34721e-05
4.4013e-05
4.39729e-05
4.3497e-05
4.04625e-05
3.62514e-05
3.38799e-05
3.33597e-05
3.39835e-05
3.77377e-05
4.00447e-05
4.02315e-05
3.92345e-05
3.35686e-05
2.86024e-05
2.42634e-05
2.1396e-05
1.89641e-05
1.7248e-05
1.57573e-05
1.456e-05
1.35326e-05
1.24317e-05
1.14994e-05
1.05521e-05
9.77726e-06
9.14067e-06
8.6731e-06
8.3226e-06
8.01622e-06
7.83281e-06
7.66135e-06
7.62318e-06
7.55478e-06
7.57471e-06
7.5646e-06
7.60391e-06
7.60173e-06
7.60531e-06
7.57257e-06
7.48053e-06
7.12736e-06
6.82013e-06
6.3121e-06
5.98173e-06
5.42976e-06
5.02779e-06
4.54158e-06
4.18981e-06
3.85064e-06
3.53445e-06
3.38036e-06
3.17719e-06
3.17507e-06
3.15425e-06
3.25134e-06
3.23897e-06
3.36297e-06
3.29179e-06
3.22397e-06
2.86645e-06
2.55589e-06
2.147e-06
2.08604e-06
2.08872e-06
2.14083e-06
2.41409e-06
2.33067e-06
2.36769e-06
2.10484e-06
1.91586e-06
1.72609e-06
1.79473e-06
2.07822e-06
1.94015e-06
1.99445e-06
1.99018e-06
2.33308e-06
3.2216e-06
3.30326e-06
4.04438e-06
6.48136e-06
1.08527e-05
3.60271e-05
0.000104023
0.000236092
0.000213753
0.000191736
0.000179519
0.000169102
0.000168194
0.000168471
0.000164675
0.000152848
0.000127086
0.000100542
8.52788e-05
7.94585e-05
7.88589e-05
7.96486e-05
8.25346e-05
9.02085e-05
9.97771e-05
0.000107295
0.000108424
0.000106884
0.000103857
0.00010118
9.69206e-05
8.76203e-05
6.38177e-05
4.13727e-05
2.67021e-05
1.71336e-05
1.13757e-05
8.33275e-06
6.7328e-06
5.7717e-06
5.22724e-06
5.07254e-06
5.10087e-06
5.29862e-06
5.80304e-06
6.87009e-06
8.31626e-06
1.06932e-05
1.46997e-05
1.68893e-05
1.69701e-05
1.58035e-05
1.55684e-05
1.64058e-05
1.68162e-05
1.84815e-05
2.00054e-05
2.11345e-05
2.91739e-05
4.77429e-05
5.46468e-05
5.55574e-05
5.37765e-05
4.87768e-05
4.58182e-05
4.55128e-05
4.59776e-05
4.78496e-05
5.06934e-05
5.52855e-05
5.69012e-05
5.70804e-05
5.92621e-05
6.27313e-05
6.36054e-05
5.95175e-05
4.949e-05
4.55346e-05
4.5845e-05
4.9658e-05
5.22361e-05
5.41092e-05
5.50443e-05
5.4886e-05
5.3909e-05
4.92927e-05
4.25907e-05
4.02014e-05
4.09067e-05
4.83249e-05
5.37504e-05
5.36812e-05
4.92954e-05
4.14329e-05
3.88456e-05
3.8924e-05
4.16472e-05
4.19388e-05
4.18293e-05
4.33052e-05
4.32273e-05
4.04178e-05
3.43012e-05
3.2057e-05
3.37181e-05
3.75108e-05
3.70837e-05
3.17505e-05
2.70563e-05
2.5505e-05
2.50123e-05
2.43076e-05
2.40483e-05
2.41918e-05
2.41997e-05
2.40835e-05
2.41467e-05
2.48748e-05
2.73532e-05
3.46846e-05
3.98009e-05
4.22363e-05
4.34949e-05
4.42918e-05
4.44485e-05
4.39945e-05
4.04705e-05
3.60015e-05
3.35976e-05
3.30621e-05
3.40305e-05
3.7764e-05
3.98423e-05
3.9965e-05
3.8111e-05
3.27613e-05
2.73665e-05
2.39123e-05
2.06417e-05
1.87456e-05
1.6821e-05
1.5592e-05
1.43091e-05
1.32821e-05
1.21302e-05
1.11357e-05
1.01893e-05
9.38489e-06
8.75812e-06
8.27228e-06
7.91328e-06
7.61722e-06
7.41349e-06
7.26238e-06
7.20072e-06
7.20419e-06
7.22644e-06
7.26247e-06
7.35258e-06
7.44353e-06
7.5087e-06
7.51084e-06
7.44886e-06
7.2989e-06
6.90263e-06
6.69695e-06
6.2637e-06
6.05393e-06
5.58181e-06
5.34426e-06
4.8432e-06
4.51937e-06
4.02455e-06
3.64675e-06
3.34618e-06
3.11256e-06
3.00901e-06
3.00252e-06
3.07771e-06
3.17026e-06
3.4493e-06
3.48927e-06
3.70313e-06
3.63117e-06
3.45999e-06
2.93841e-06
2.60218e-06
2.33225e-06
2.364e-06
2.60936e-06
2.58947e-06
2.92354e-06
2.56291e-06
2.1885e-06
1.94289e-06
2.0258e-06
2.4263e-06
2.20323e-06
2.33036e-06
2.42326e-06
2.87975e-06
3.85979e-06
4.18776e-06
6.75361e-06
9.7829e-06
3.27376e-05
8.31353e-05
0.000222583
0.000206288
0.000189298
0.000177073
0.000168264
0.00016172
0.000161632
0.000161647
0.000159571
0.000153792
0.00013882
0.000123731
0.000112461
0.000109069
0.000109659
0.0001123
0.000114759
0.000114764
0.000114445
0.000112631
0.000107222
0.000103078
9.58084e-05
8.42784e-05
5.95839e-05
4.02658e-05
2.69536e-05
1.78722e-05
1.18544e-05
8.68172e-06
7.15234e-06
6.18531e-06
5.53308e-06
5.19045e-06
5.20239e-06
5.32881e-06
5.73284e-06
6.78746e-06
8.63823e-06
1.07337e-05
1.42768e-05
1.92123e-05
2.14526e-05
2.13813e-05
1.93559e-05
1.82687e-05
1.83484e-05
1.90179e-05
2.11896e-05
2.27191e-05
2.41906e-05
3.6159e-05
5.18898e-05
5.58356e-05
5.57449e-05
5.21559e-05
4.78964e-05
4.53392e-05
4.46617e-05
4.47919e-05
4.6665e-05
5.00741e-05
5.46107e-05
5.64058e-05
5.66868e-05
5.87095e-05
6.21993e-05
6.3269e-05
5.94572e-05
5.00527e-05
4.65186e-05
4.68332e-05
5.01174e-05
5.26492e-05
5.45476e-05
5.55828e-05
5.5468e-05
5.4484e-05
4.94582e-05
4.3112e-05
4.12305e-05
4.23406e-05
5.07923e-05
5.52926e-05
5.49062e-05
4.93876e-05
4.11644e-05
3.86562e-05
3.90721e-05
4.21508e-05
4.19854e-05
4.2007e-05
4.34541e-05
4.32549e-05
4.01384e-05
3.43309e-05
3.19971e-05
3.3494e-05
3.77038e-05
3.72485e-05
3.1641e-05
2.69806e-05
2.54615e-05
2.51357e-05
2.46377e-05
2.41892e-05
2.42141e-05
2.41976e-05
2.41132e-05
2.41893e-05
2.48992e-05
2.75516e-05
3.50037e-05
3.9894e-05
4.22406e-05
4.36819e-05
4.46212e-05
4.48339e-05
4.43257e-05
4.02996e-05
3.57429e-05
3.33512e-05
3.28658e-05
3.41615e-05
3.794e-05
3.94249e-05
3.95034e-05
3.70319e-05
3.13866e-05
2.67839e-05
2.30779e-05
2.04868e-05
1.81871e-05
1.67426e-05
1.51883e-05
1.41914e-05
1.29287e-05
1.1966e-05
1.08733e-05
1.00641e-05
9.29782e-06
8.73582e-06
8.25692e-06
7.89537e-06
7.58562e-06
7.34216e-06
7.17135e-06
7.05591e-06
7.01112e-06
7.00085e-06
7.0133e-06
7.03016e-06
7.08372e-06
7.09724e-06
7.09937e-06
6.98322e-06
6.7216e-06
6.56704e-06
6.28883e-06
6.15261e-06
5.87598e-06
5.76273e-06
5.47295e-06
5.3547e-06
5.04765e-06
4.93564e-06
4.6031e-06
4.41043e-06
3.99337e-06
3.59633e-06
3.2912e-06
3.10275e-06
3.1161e-06
3.15959e-06
3.392e-06
3.54901e-06
4.10044e-06
4.19076e-06
4.49627e-06
4.21834e-06
3.80194e-06
2.96501e-06
2.81391e-06
2.81118e-06
2.90068e-06
3.44581e-06
3.05591e-06
2.73708e-06
2.23691e-06
2.36096e-06
2.65169e-06
2.49943e-06
2.83136e-06
3.13762e-06
4.1494e-06
4.33568e-06
8.3425e-06
9.9906e-06
2.89586e-05
6.64887e-05
0.0002047
0.000190936
0.00017833
0.000166937
0.000161807
0.000156283
0.000152451
0.000152855
0.000151738
0.00015024
0.000146747
0.00014066
0.000136092
0.000129667
0.000126537
0.0001241
0.000119188
0.000115879
0.000110977
0.000102829
9.38222e-05
8.47609e-05
7.04493e-05
5.17325e-05
3.67154e-05
2.55863e-05
1.7681e-05
1.20974e-05
8.70727e-06
7.29997e-06
6.58272e-06
5.91092e-06
5.45086e-06
5.32186e-06
5.40254e-06
5.77073e-06
6.65882e-06
8.98442e-06
1.15305e-05
1.44372e-05
1.91217e-05
2.45527e-05
2.70773e-05
2.70312e-05
2.46778e-05
2.21564e-05
2.13392e-05
2.17384e-05
2.40227e-05
2.54194e-05
2.73938e-05
4.26163e-05
5.47109e-05
5.69209e-05
5.60247e-05
5.12487e-05
4.77249e-05
4.52974e-05
4.44475e-05
4.4583e-05
4.65287e-05
4.97918e-05
5.40118e-05
5.57474e-05
5.61269e-05
5.81492e-05
6.17306e-05
6.29515e-05
5.92722e-05
5.05995e-05
4.74728e-05
4.77381e-05
5.07369e-05
5.30512e-05
5.50929e-05
5.61495e-05
5.6102e-05
5.5118e-05
4.95919e-05
4.36893e-05
4.23176e-05
4.39285e-05
5.30486e-05
5.68208e-05
5.61665e-05
4.93422e-05
4.06855e-05
3.83978e-05
3.92761e-05
4.23545e-05
4.19487e-05
4.21458e-05
4.3548e-05
4.31349e-05
4.004e-05
3.4759e-05
3.20018e-05
3.30166e-05
3.76672e-05
3.74158e-05
3.16633e-05
2.69815e-05
2.54692e-05
2.52307e-05
2.49712e-05
2.43384e-05
2.41958e-05
2.41454e-05
2.41049e-05
2.4242e-05
2.49831e-05
2.79771e-05
3.53209e-05
3.98966e-05
4.22106e-05
4.41461e-05
4.52898e-05
4.54126e-05
4.45736e-05
3.99219e-05
3.53746e-05
3.30917e-05
3.27305e-05
3.44269e-05
3.80132e-05
3.9258e-05
3.8979e-05
3.57607e-05
3.02359e-05
2.60015e-05
2.26476e-05
2.00453e-05
1.804e-05
1.63534e-05
1.50798e-05
1.3766e-05
1.27303e-05
1.15487e-05
1.07039e-05
9.82821e-06
9.30974e-06
8.71855e-06
8.39671e-06
8.02861e-06
7.82434e-06
7.58335e-06
7.50627e-06
7.41233e-06
7.38232e-06
7.33407e-06
7.33553e-06
7.32482e-06
7.30825e-06
7.27323e-06
7.13674e-06
6.85535e-06
6.47275e-06
6.2026e-06
5.83103e-06
5.63512e-06
5.30114e-06
5.17949e-06
5.01858e-06
4.88996e-06
4.86907e-06
4.83979e-06
4.83596e-06
4.82051e-06
4.82596e-06
4.75526e-06
4.63658e-06
4.32442e-06
4.00246e-06
3.59985e-06
3.43974e-06
3.45475e-06
3.57344e-06
4.02206e-06
4.2402e-06
5.07596e-06
5.07301e-06
5.08257e-06
4.42249e-06
3.78156e-06
3.20013e-06
3.3058e-06
3.78986e-06
3.53056e-06
3.57491e-06
2.88053e-06
2.88656e-06
3.01713e-06
3.06143e-06
3.21506e-06
5.24109e-06
4.98912e-06
1.27165e-05
1.10675e-05
2.46153e-05
5.25132e-05
0.000180712
0.000169723
0.000159941
0.000148751
0.000143597
0.00014209
0.000139672
0.000140403
0.000139471
0.000138822
0.000138509
0.000136455
0.000134501
0.000129085
0.000124651
0.000119011
0.000110395
0.000102322
9.11225e-05
7.79516e-05
6.54976e-05
5.23886e-05
4.09504e-05
3.09972e-05
2.26431e-05
1.63104e-05
1.16561e-05
8.64802e-06
7.13897e-06
6.66239e-06
6.30586e-06
5.77425e-06
5.46657e-06
5.5038e-06
5.81585e-06
6.78185e-06
8.63276e-06
1.29473e-05
1.60817e-05
2.04185e-05
2.58981e-05
3.04414e-05
3.28154e-05
3.2849e-05
3.06431e-05
2.65963e-05
2.45923e-05
2.47344e-05
2.68151e-05
2.81506e-05
3.09288e-05
4.78292e-05
5.69918e-05
5.78959e-05
5.57374e-05
5.06665e-05
4.76409e-05
4.54982e-05
4.46625e-05
4.48786e-05
4.67755e-05
4.98864e-05
5.34126e-05
5.49392e-05
5.5409e-05
5.76326e-05
6.12664e-05
6.25758e-05
5.90622e-05
5.10249e-05
4.83897e-05
4.86463e-05
5.13114e-05
5.35966e-05
5.56904e-05
5.67901e-05
5.67825e-05
5.55945e-05
4.95972e-05
4.43322e-05
4.3455e-05
4.5739e-05
5.52941e-05
5.82087e-05
5.72565e-05
4.90827e-05
4.01691e-05
3.81277e-05
3.94196e-05
4.238e-05
4.19137e-05
4.24179e-05
4.35884e-05
4.29505e-05
4.02053e-05
3.56855e-05
3.20856e-05
3.25036e-05
3.75833e-05
3.7767e-05
3.21279e-05
2.71483e-05
2.55392e-05
2.53088e-05
2.51393e-05
2.45067e-05
2.41136e-05
2.40796e-05
2.40873e-05
2.43003e-05
2.51185e-05
2.88539e-05
3.55284e-05
3.96598e-05
4.21456e-05
4.46106e-05
4.59012e-05
4.59293e-05
4.45535e-05
3.92725e-05
3.49454e-05
3.28862e-05
3.27508e-05
3.50999e-05
3.81462e-05
3.90159e-05
3.84399e-05
3.42363e-05
2.93741e-05
2.51786e-05
2.21047e-05
1.95772e-05
1.76803e-05
1.61088e-05
1.46813e-05
1.3425e-05
1.21489e-05
1.1153e-05
1.02635e-05
9.65715e-06
9.06099e-06
8.65105e-06
8.24074e-06
7.99e-06
7.77905e-06
7.73102e-06
7.68924e-06
7.73535e-06
7.7519e-06
7.88344e-06
7.87592e-06
7.91405e-06
7.88319e-06
7.79241e-06
7.57594e-06
7.18676e-06
6.86017e-06
6.52477e-06
6.15942e-06
5.90343e-06
5.44297e-06
5.22352e-06
4.82695e-06
4.70031e-06
4.41184e-06
4.34883e-06
4.34171e-06
4.42442e-06
4.50122e-06
4.74278e-06
4.8714e-06
5.0662e-06
5.26984e-06
5.23153e-06
4.98541e-06
4.54733e-06
4.05526e-06
4.02449e-06
4.06584e-06
4.30649e-06
5.03739e-06
5.18966e-06
6.08843e-06
5.75719e-06
5.04568e-06
3.87219e-06
3.90372e-06
3.87553e-06
3.91396e-06
4.01825e-06
3.54827e-06
3.24831e-06
4.35975e-06
3.88425e-06
8.09427e-06
6.27545e-06
1.57464e-05
1.27977e-05
2.20409e-05
4.27146e-05
0.000149206
0.000142979
0.000134312
0.000126383
0.000120786
0.000117929
0.00011806
0.000119811
0.000121222
0.000122389
0.000122776
0.000122141
0.000120912
0.000115598
0.000109499
0.000100627
9.06663e-05
7.94357e-05
6.41925e-05
5.04736e-05
3.93054e-05
3.12302e-05
2.44273e-05
1.8754e-05
1.40144e-05
1.0526e-05
8.17206e-06
6.94773e-06
6.48094e-06
6.36563e-06
6.15653e-06
5.71085e-06
5.64578e-06
5.86922e-06
6.77289e-06
8.89401e-06
1.23115e-05
1.91247e-05
2.33346e-05
2.99765e-05
3.50463e-05
3.74646e-05
3.8656e-05
3.85499e-05
3.69434e-05
3.18527e-05
2.85918e-05
2.83882e-05
2.98308e-05
3.11017e-05
3.50239e-05
5.25064e-05
5.88218e-05
5.88367e-05
5.46228e-05
4.9443e-05
4.69748e-05
4.56957e-05
4.52141e-05
4.5693e-05
4.7542e-05
5.01192e-05
5.2943e-05
5.41938e-05
5.47462e-05
5.72589e-05
6.0964e-05
6.22162e-05
5.87264e-05
5.15047e-05
4.92327e-05
4.94877e-05
5.18615e-05
5.42761e-05
5.63035e-05
5.74594e-05
5.74638e-05
5.60676e-05
4.96256e-05
4.50776e-05
4.46007e-05
4.78453e-05
5.76265e-05
5.96026e-05
5.81834e-05
4.85003e-05
3.96198e-05
3.78872e-05
3.94811e-05
4.22003e-05
4.1957e-05
4.29657e-05
4.35034e-05
4.27696e-05
4.1036e-05
3.68911e-05
3.22542e-05
3.21382e-05
3.7251e-05
3.82514e-05
3.28518e-05
2.72514e-05
2.57597e-05
2.54027e-05
2.51914e-05
2.46324e-05
2.41176e-05
2.40763e-05
2.40966e-05
2.44511e-05
2.5454e-05
3.0472e-05
3.59561e-05
3.96387e-05
4.21642e-05
4.49215e-05
4.61535e-05
4.61013e-05
4.41939e-05
3.85837e-05
3.4496e-05
3.27533e-05
3.28181e-05
3.56918e-05
3.80827e-05
3.85382e-05
3.74777e-05
3.29055e-05
2.82565e-05
2.45207e-05
2.14214e-05
1.92921e-05
1.72514e-05
1.57985e-05
1.41804e-05
1.29473e-05
1.17634e-05
1.08356e-05
1.012e-05
9.49412e-06
9.00332e-06
8.48025e-06
8.21396e-06
7.92056e-06
7.80427e-06
7.76385e-06
7.83803e-06
7.85441e-06
7.96455e-06
7.97949e-06
8.04679e-06
8.02906e-06
8.00538e-06
7.9332e-06
7.77948e-06
7.72999e-06
7.58475e-06
7.53393e-06
7.32317e-06
7.22134e-06
6.8101e-06
6.59112e-06
6.04669e-06
5.83162e-06
5.39009e-06
4.92801e-06
4.74037e-06
4.44902e-06
4.47777e-06
4.42723e-06
4.62899e-06
4.71202e-06
5.23067e-06
5.36763e-06
5.91541e-06
6.04517e-06
6.13448e-06
5.88651e-06
5.30161e-06
4.70452e-06
4.77125e-06
4.96114e-06
5.42795e-06
6.80001e-06
6.66474e-06
6.66093e-06
5.49725e-06
4.53088e-06
4.58834e-06
4.52292e-06
5.1243e-06
4.357e-06
6.36693e-06
5.04022e-06
1.05041e-05
8.51897e-06
2.55778e-05
1.7043e-05
1.99361e-05
3.4759e-05
0.000110505
0.000107661
0.000101311
9.67519e-05
9.27276e-05
8.98479e-05
9.01551e-05
9.15495e-05
9.3647e-05
9.70595e-05
0.000100006
0.000100062
9.93183e-05
9.6842e-05
8.95315e-05
8.0289e-05
6.74857e-05
5.24999e-05
3.93766e-05
2.92825e-05
2.24204e-05
1.80765e-05
1.4204e-05
1.11809e-05
8.77741e-06
7.35045e-06
6.50092e-06
6.19535e-06
6.20119e-06
6.18446e-06
5.95145e-06
5.68153e-06
5.8001e-06
6.57325e-06
8.70308e-06
1.26634e-05
1.83925e-05
2.80467e-05
3.39747e-05
4.22222e-05
4.65737e-05
4.64743e-05
4.5888e-05
4.45498e-05
4.27284e-05
3.73681e-05
3.30411e-05
3.23664e-05
3.30628e-05
3.42622e-05
3.96266e-05
5.67801e-05
6.04809e-05
5.9553e-05
5.23219e-05
4.72016e-05
4.5951e-05
4.59319e-05
4.58977e-05
4.68378e-05
4.87551e-05
5.06587e-05
5.2633e-05
5.35427e-05
5.42202e-05
5.7114e-05
6.06858e-05
6.19069e-05
5.83752e-05
5.18524e-05
5.00074e-05
5.0249e-05
5.2616e-05
5.48203e-05
5.69191e-05
5.81634e-05
5.8211e-05
5.63601e-05
4.97009e-05
4.59309e-05
4.58058e-05
5.0315e-05
5.97759e-05
6.10477e-05
5.8916e-05
4.76297e-05
3.90455e-05
3.77541e-05
3.94603e-05
4.17782e-05
4.22866e-05
4.36545e-05
4.3523e-05
4.27081e-05
4.18333e-05
3.80386e-05
3.25724e-05
3.18887e-05
3.64857e-05
3.88086e-05
3.36814e-05
2.74544e-05
2.61984e-05
2.55325e-05
2.51914e-05
2.47512e-05
2.41846e-05
2.41199e-05
2.41517e-05
2.46639e-05
2.60829e-05
3.21645e-05
3.65565e-05
3.96836e-05
4.22994e-05
4.51594e-05
4.63343e-05
4.62257e-05
4.36142e-05
3.78932e-05
3.4067e-05
3.26613e-05
3.30203e-05
3.61675e-05
3.80225e-05
3.82321e-05
3.65366e-05
3.17148e-05
2.73051e-05
2.3745e-05
2.10113e-05
1.88782e-05
1.68961e-05
1.52842e-05
1.37742e-05
1.25921e-05
1.16211e-05
1.07217e-05
1.01362e-05
9.48886e-06
9.06264e-06
8.51008e-06
8.32893e-06
8.08601e-06
8.04705e-06
8.04198e-06
8.11655e-06
8.14254e-06
8.16971e-06
8.18386e-06
8.26651e-06
8.23776e-06
8.34667e-06
8.28593e-06
8.48463e-06
8.37984e-06
8.56417e-06
8.3576e-06
8.4371e-06
8.1405e-06
8.15052e-06
7.70663e-06
7.55923e-06
6.98995e-06
6.92883e-06
6.51177e-06
6.35998e-06
5.85207e-06
5.69206e-06
5.24885e-06
5.02059e-06
4.85551e-06
4.88794e-06
5.12118e-06
5.27603e-06
5.93009e-06
6.15047e-06
7.05931e-06
7.18721e-06
7.16865e-06
6.64265e-06
5.78936e-06
5.64318e-06
5.99233e-06
6.75933e-06
7.098e-06
8.59402e-06
7.11335e-06
7.13454e-06
6.0408e-06
7.6654e-06
6.10354e-06
9.2786e-06
7.48365e-06
2.47998e-05
1.58139e-05
2.93921e-05
2.54057e-05
2.22743e-05
2.93897e-05
6.96928e-05
6.85541e-05
6.45576e-05
6.20163e-05
5.81885e-05
5.70047e-05
5.7726e-05
5.90999e-05
6.20078e-05
6.40329e-05
6.93217e-05
7.07479e-05
7.04546e-05
6.854e-05
6.42906e-05
5.40271e-05
4.18659e-05
3.09244e-05
2.21072e-05
1.61039e-05
1.28588e-05
1.03424e-05
8.10649e-06
6.87438e-06
6.18513e-06
5.94737e-06
5.75227e-06
5.84661e-06
6.07254e-06
6.01015e-06
5.62217e-06
5.64799e-06
6.18782e-06
8.18209e-06
1.2311e-05
1.88872e-05
2.81031e-05
4.03721e-05
4.85583e-05
5.5865e-05
5.78957e-05
5.727e-05
5.53197e-05
5.19156e-05
4.87275e-05
4.24473e-05
3.71156e-05
3.62119e-05
3.64912e-05
3.75954e-05
4.4181e-05
6.05654e-05
6.2327e-05
6.01148e-05