/*--------------------------------*- C++ -*----------------------------------*\
| =========                 |                                                 |
| \\      /  F ield         | OpenFOAM: The Open Source CFD Toolbox           |
|  \\    /   O peration     | Version:  2.4.0                                 |
|   \\  /    A nd           | Web:      www.OpenFOAM.org                      |
|    \\/     M anipulation  |                                                 |
\*---------------------------------------------------------------------------*/
FoamFile
{
    version     2.0;
    format      ascii;
    class       volScalarField;
    location    "0.279";
    object      k;
}
// * * * * * * * * * * * * * * * * * * * * * * * * * * * * * * * * * * * * * //

dimensions      [0 2 -2 0 0 0 0];

internalField   nonuniform List<scalar> 
17600
(
9.28967
7.41303
5.11417
3.94829
3.31972
2.97299
2.67484
2.48728
2.30919
2.22169
2.08287
2.0368
1.95009
1.87531
1.8337
1.72855
1.69949
1.60455
1.47191
1.38473
4.50695
6.21004
5.83357
5.06469
4.39013
3.96085
3.57345
3.33193
3.09577
2.96992
2.78275
2.71912
2.61001
2.50411
2.46979
2.33823
2.31774
2.20733
2.09577
2.02172
1.32185
3.29147
3.98524
3.96478
3.75262
3.48529
3.20753
3.02904
2.83129
2.72757
2.57058
2.50223
2.42471
2.31747
2.30005
2.19255
2.18337
2.10277
2.03069
1.99652
0.207492
1.20551
1.90746
2.33494
2.50436
2.51892
2.46966
2.41149
2.29839
2.24588
2.15543
2.09206
2.06118
1.97397
1.96904
1.89753
1.89518
1.86205
1.78636
1.81428
0.0259799
0.283744
0.624625
0.967479
1.24158
1.431
1.53279
1.61536
1.61618
1.62137
1.61844
1.58878
1.59071
1.55733
1.5624
1.52934
1.53005
1.53983
1.47927
1.50819
0.00273494
0.0479321
0.133466
0.262805
0.422683
0.570047
0.693654
0.828427
0.895994
0.950958
1.02655
1.03432
1.07051
1.07962
1.10843
1.11133
1.11689
1.16775
1.14031
1.14586
0.000276754
0.00679749
0.0210459
0.0438047
0.0965778
0.149131
0.207363
0.295272
0.354942
0.397164
0.490949
0.516792
0.567142
0.610952
0.650378
0.682078
0.699079
0.77438
0.782759
0.791468
4.78686e-05
0.000913501
0.00281042
0.00575091
0.014716
0.0253644
0.0398038
0.0694575
0.0948981
0.11142
0.157822
0.181181
0.206708
0.251612
0.280239
0.317653
0.337412
0.404394
0.433233
0.467474
2.79006e-05
0.00016399
0.000418358
0.000741914
0.00177109
0.00315301
0.00551693
0.0105978
0.016452
0.0205115
0.0332142
0.0421509
0.0501673
0.0687687
0.07991
0.103539
0.113731
0.148424
0.175297
0.20772
2.52488e-05
7.44799e-05
0.00010993
0.000147433
0.000263733
0.000420012
0.000725191
0.00130461
0.00209686
0.00265259
0.00469511
0.0061639
0.007977
0.0116814
0.0153664
0.0232654
0.0251672
0.0366111
0.0549203
0.0580671
2.33989e-05
4.34756e-05
5.99823e-05
8.06953e-05
0.000101002
0.00011361
0.000140607
0.000227976
0.000367536
0.000416529
0.000612044
0.000745533
0.000950508
0.00127389
0.00228189
0.00335845
0.00375258
0.007282
0.0119072
0.0110387
2.24424e-05
3.41468e-05
4.93141e-05
5.78128e-05
7.16166e-05
7.41793e-05
7.74839e-05
8.90825e-05
0.00015301
0.000169046
0.000188968
0.000185299
0.000189125
0.000233994
0.000343626
0.000463303
0.000596646
0.00129019
0.00174989
0.00174401
2.18228e-05
3.38766e-05
4.34995e-05
4.32257e-05
5.44501e-05
7.47831e-05
7.66208e-05
7.60338e-05
8.68114e-05
0.000101762
0.000126609
0.000122476
0.000108388
0.000117799
0.000123805
0.000178507
0.000179957
0.000240454
0.000353899
0.000457397
2.12368e-05
3.12414e-05
3.76848e-05
4.09964e-05
5.5952e-05
6.96886e-05
6.86632e-05
6.28466e-05
6.26671e-05
6.77978e-05
0.000102989
0.000105241
0.000104418
8.95772e-05
8.89261e-05
0.000102149
0.000109496
0.000140966
0.000218231
0.000247414
2.1016e-05
2.70556e-05
4.00801e-05
4.52815e-05
4.89172e-05
5.45545e-05
5.47066e-05
5.48772e-05
5.38357e-05
5.49591e-05
7.08448e-05
7.95731e-05
8.15171e-05
7.30373e-05
7.45182e-05
7.50908e-05
8.0204e-05
0.000121151
0.000131289
0.000138923
2.10632e-05
2.73359e-05
4.20618e-05
4.17557e-05
4.02872e-05
4.25073e-05
5.11543e-05
5.41364e-05
5.18352e-05
5.08017e-05
5.20084e-05
6.49943e-05
6.6923e-05
6.65032e-05
6.27418e-05
6.38096e-05
7.05707e-05
8.47712e-05
8.69417e-05
9.4863e-05
2.09552e-05
2.70384e-05
3.85598e-05
3.77867e-05
3.73148e-05
3.89511e-05
4.73282e-05
5.00503e-05
4.79965e-05
4.60068e-05
4.61873e-05
5.31473e-05
5.83348e-05
6.16333e-05
6.2188e-05
6.11249e-05
6.39061e-05
6.69766e-05
6.96386e-05
8.77117e-05
2.07354e-05
2.62818e-05
3.57626e-05
3.71643e-05
3.684e-05
3.72547e-05
4.20312e-05
4.46287e-05
4.4136e-05
4.25509e-05
4.23258e-05
4.36746e-05
5.07997e-05
5.14902e-05
5.13517e-05
5.48716e-05
5.37153e-05
5.6453e-05
6.5828e-05
6.87549e-05
2.07801e-05
2.57463e-05
3.47495e-05
3.68315e-05
3.64072e-05
3.62659e-05
3.91133e-05
4.23929e-05
4.3246e-05
4.22498e-05
4.23843e-05
4.29011e-05
4.73585e-05
4.97031e-05
5.31681e-05
5.25185e-05
5.34633e-05
5.3555e-05
5.5853e-05
6.35991e-05
2.06569e-05
2.455e-05
3.4717e-05
3.74153e-05
3.65781e-05
3.61023e-05
3.72049e-05
4.18511e-05
4.35693e-05
4.33167e-05
4.26786e-05
4.31022e-05
4.48814e-05
4.67072e-05
4.84883e-05
4.94935e-05
4.95117e-05
5.00518e-05
5.03198e-05
6.1566e-05
2.05296e-05
2.43727e-05
3.54115e-05
3.63973e-05
3.51634e-05
3.5208e-05
4.06157e-05
4.36112e-05
4.40276e-05
4.40388e-05
4.26686e-05
4.2446e-05
4.54246e-05
4.77637e-05
4.81549e-05
4.87402e-05
4.79603e-05
4.83278e-05
4.90238e-05
5.19947e-05
2.06075e-05
2.54396e-05
3.27485e-05
3.39356e-05
3.64532e-05
4.02674e-05
4.3924e-05
4.30001e-05
4.27668e-05
4.2684e-05
4.23255e-05
4.42018e-05
4.68728e-05
4.69828e-05
4.75272e-05
4.69603e-05
4.70575e-05
4.9521e-05
5.05456e-05
6.66354e-05
2.06682e-05
2.47498e-05
3.09727e-05
4.15574e-05
4.30801e-05
4.37822e-05
4.21067e-05
4.05312e-05
4.21854e-05
4.31848e-05
4.52372e-05
4.79178e-05
4.75988e-05
4.81868e-05
4.79875e-05
4.80695e-05
4.98129e-05
5.12731e-05
5.05631e-05
5.09005e-05
2.08652e-05
2.48833e-05
3.73261e-05
4.55535e-05
4.44344e-05
4.1985e-05
4.07541e-05
4.26907e-05
4.82892e-05
4.88077e-05
4.96655e-05
4.94129e-05
4.95015e-05
5.05462e-05
5.0888e-05
5.24647e-05
5.45557e-05
5.37413e-05
5.36313e-05
5.57011e-05
2.1069e-05
2.65736e-05
4.30409e-05
4.33176e-05
4.09267e-05
4.12771e-05
4.49397e-05
5.42696e-05
5.42435e-05
5.37854e-05
5.16232e-05
5.15206e-05
5.40872e-05
5.65987e-05
5.88492e-05
6.31e-05
6.29856e-05
6.2353e-05
6.28981e-05
7.24484e-05
2.13241e-05
2.99571e-05
4.00807e-05
3.93787e-05
4.14911e-05
5.18621e-05
5.88584e-05
5.94748e-05
5.79145e-05
5.57741e-05
5.43649e-05
5.69613e-05
6.53857e-05
7.13116e-05
7.57815e-05
7.62899e-05
7.4049e-05
7.42311e-05
7.42107e-05
7.78035e-05
2.14828e-05
3.02544e-05
3.53158e-05
4.34295e-05
5.79595e-05
6.32153e-05
6.3855e-05
6.12987e-05
5.99993e-05
5.91157e-05
6.10302e-05
7.45175e-05
8.69624e-05
9.31939e-05
9.39324e-05
8.8921e-05
8.55949e-05
8.45818e-05
8.57826e-05
0.000111792
2.17301e-05
2.84583e-05
3.97527e-05
6.19614e-05
6.9075e-05
6.9625e-05
6.75193e-05
6.61332e-05
6.60571e-05
6.90578e-05
8.75504e-05
0.000108388
0.000117943
0.00012131
0.000116236
0.000115995
0.000119306
0.00013122
0.000151418
0.00020889
2.27014e-05
2.95838e-05
5.63885e-05
7.74507e-05
8.40603e-05
8.1951e-05
8.23221e-05
8.29652e-05
8.91222e-05
0.000117918
0.000166065
0.000202372
0.000227667
0.000259644
0.000278194
0.000356555
0.000447466
0.000658087
0.000832554
0.00132422
2.30638e-05
3.3642e-05
9.23161e-05
0.000112919
0.000120119
0.000126721
0.000142993
0.000177144
0.000253292
0.000468997
0.000623862
0.000918
0.00113302
0.00160575
0.00191163
0.00286633
0.00363424
0.00537072
0.00661883
0.0104771
2.49438e-05
5.25018e-05
0.000191264
0.000230419
0.000279661
0.000449276
0.000673638
0.00118315
0.0018759
0.00346408
0.00453952
0.0068314
0.00857146
0.0124887
0.014737
0.0209094
0.0249054
0.0339424
0.0395877
0.0590145
2.88993e-05
0.000159436
0.00066339
0.000970398
0.00156555
0.00365843
0.00575211
0.00952908
0.0155144
0.0251187
0.0310437
0.0431304
0.0517915
0.0700064
0.0786951
0.10072
0.113397
0.140567
0.156
0.202885
4.9924e-05
0.000909646
0.00394552
0.00686478
0.0124896
0.0288083
0.0426661
0.060293
0.0952887
0.124214
0.150213
0.18211
0.213099
0.25352
0.272546
0.317468
0.341231
0.385857
0.408028
0.466376
0.000279381
0.00642807
0.027215
0.0473658
0.0844331
0.160486
0.211611
0.274674
0.361451
0.416262
0.476089
0.519721
0.571754
0.614808
0.636789
0.685126
0.707998
0.742315
0.759659
0.802072
0.00273357
0.0443329
0.157718
0.24823
0.417635
0.573973
0.699907
0.805879
0.909888
0.960732
1.01518
1.03475
1.07301
1.08418
1.09615
1.1136
1.12453
1.12969
1.13903
1.14784
0.0259301
0.267502
0.659685
0.940391
1.25266
1.42623
1.5441
1.59365
1.62966
1.62175
1.61769
1.59188
1.58735
1.56193
1.55286
1.53181
1.52416
1.5037
1.49105
1.4759
0.206787
1.19959
1.93324
2.30793
2.52474
2.51065
2.47753
2.3879
2.32367
2.22484
2.17329
2.08259
2.05347
1.98228
1.95856
1.90077
1.87865
1.83006
1.79537
1.76477
1.31763
3.29436
3.99654
3.95381
3.78201
3.43887
3.2439
2.99833
2.85873
2.69458
2.60404
2.47473
2.42612
2.31961
2.28626
2.19684
2.16421
2.08776
2.04358
1.9866
4.50265
6.21822
5.84044
5.04114
4.43409
3.90559
3.6184
3.29813
3.12589
2.92889
2.82553
2.68182
2.62209
2.49693
2.46122
2.34889
2.31144
2.21347
2.17337
2.07554
9.28626
7.42184
5.11685
3.9292
3.35111
2.93615
2.70443
2.4621
2.33696
2.18643
2.11533
2.01268
1.9651
1.86717
1.84348
1.75126
1.7219
1.63942
1.61557
1.50506
1.10551
0.869622
0.673183
0.413393
0.256426
0.308898
0.319503
0.267821
0.262443
0.216988
0.223616
0.231041
0.269037
0.273542
0.280425
0.268927
0.208794
0.154569
0.128216
0.116845
0.123707
0.142945
0.179503
0.2316
0.249003
0.246583
0.2291
0.17567
0.0734389
0.0309072
0.014016
0.00615109
0.0032095
0.00223495
0.00159602
0.00140478
0.00146566
0.00151299
0.00168092
0.00264722
0.0069751
0.0241653
0.0762087
0.12202
0.139953
0.140106
0.133898
0.117319
0.0962033
0.0839923
0.0765788
0.0749902
0.076228
0.081748
0.0909431
0.0924083
0.0889953
0.0791318
0.0725442
0.0603473
0.0456057
0.0323269
0.0219668
0.0157365
0.0129773
0.0121814
0.0124408
0.0131568
0.0144574
0.0196117
0.0352277
0.0470537
0.0495509
0.0485852
0.0463692
0.0457892
0.0461502
0.0494294
0.0639832
0.0689965
0.0678272
0.0599993
0.0478656
0.043567
0.0415501
0.0366447
0.0311032
0.0281065
0.0257194
0.023633
0.0233465
0.0243046
0.0271541
0.0294133
0.0345844
0.0399135
0.0440307
0.0499092
0.0687069
0.0954616
0.106224
0.107035
0.106205
0.0992495
0.0890893
0.0794429
0.0687673
0.0591692
0.0511172
0.0418139
0.0336968
0.0280409
0.0228
0.0174421
0.0154161
0.016114
0.0177859
0.017741
0.0166488
0.0165369
0.0172005
0.0208406
0.02489
0.033082
0.0460818
0.0571782
0.0782933
0.141509
0.197698
0.198553
0.151012
0.142299
0.174844
0.179153
0.146747
0.081885
0.0550196
0.0435033
0.0364569
0.0313821
0.0274402
0.0248297
0.0222315
0.0216397
0.0212236
0.0208018
0.0194463
0.0182205
0.0182132
0.0207427
0.0282108
0.0316353
0.037484
0.0397791
0.0457512
0.0456946
0.047869
0.0468615
0.049712
0.0467071
0.0448194
0.0475234
0.0451631
0.0434835
0.0436195
0.0429184
0.0472624
0.057557
0.061929
0.068264
0.0849094
0.101628
0.104319
0.0996696
0.0941572
0.0952829
0.0912522
0.0805484
0.0710304
0.0657574
0.0634558
0.0607842
0.0532137
0.0460373
0.0436941
0.0446651
0.0458976
0.0430568
0.0308708
0.0215117
0.0166558
0.0154399
0.0164028
0.0181928
0.0186713
0.0215944
0.0551104
0.140844
0.172432
1.69601
1.51052
1.17759
0.925819
0.848133
0.450228
0.314485
0.307516
0.285204
0.289586
0.273976
0.262485
0.264133
0.262426
0.235114
0.225267
0.198565
0.147724
0.128733
0.132606
0.150794
0.19602
0.24649
0.266949
0.265024
0.257917
0.233428
0.17072
0.0743984
0.0322986
0.0144657
0.00702069
0.00334094
0.00212239
0.00172781
0.00139845
0.00135749
0.00145467
0.00154327
0.00190434
0.00372433
0.011727
0.0438364
0.108441
0.140085
0.147297
0.142517
0.124724
0.0983762
0.0788489
0.0695772
0.0644738
0.0637714
0.064998
0.0693837
0.0829415
0.0888246
0.0880485
0.0814671
0.075114
0.0643485
0.0500206
0.035608
0.0235179
0.0167583
0.0138249
0.0132229
0.0135826
0.0140045
0.0150944
0.0210339
0.0360115
0.047895
0.0498264
0.0488864
0.0460862
0.0447533
0.044794
0.0470634
0.0600417
0.0666933
0.0662597
0.0614318
0.049858
0.0453564
0.043009
0.0381373
0.0327347
0.0298775
0.0272126
0.0250837
0.0248357
0.0261702
0.0290897
0.0312398
0.0367318
0.0425896
0.046862
0.0528898
0.0726887
0.0981663
0.107419
0.107699
0.106449
0.0983227
0.0885906
0.0780143
0.0661381
0.0583912
0.0530504
0.0461329
0.0367765
0.0289054
0.0235926
0.0184241
0.0155684
0.0156207
0.0171866
0.017607
0.0168355
0.0162273
0.0165924
0.0200738
0.0240759
0.0316941
0.0444507
0.0554204
0.0752788
0.135936
0.195875
0.198829
0.154385
0.139187
0.170798
0.181419
0.158962
0.0947307
0.0626247
0.0476683
0.0384084
0.0318721
0.0271256
0.0244214
0.0214767
0.0206008
0.0201825
0.0195747
0.018592
0.0180925
0.0181828
0.0199627
0.0269368
0.0312453
0.0371104
0.0402094
0.0458237
0.0458426
0.0478472
0.046378
0.0485177
0.0460732
0.0473515
0.0492315
0.0477523
0.04712
0.048301
0.0483967
0.0522685
0.0608374
0.0656102
0.0743383
0.094486
0.106636
0.107563
0.0998143
0.092466
0.0953217
0.092612
0.081054
0.0720559
0.0669033
0.0649625
0.0628228
0.0571473
0.0475572
0.0437146
0.043664
0.0446956
0.0430564
0.033203
0.0231353
0.0170856
0.0151868
0.0156933
0.0176977
0.0182452
0.0206785
0.047928
0.128522
0.183438
1.32248
1.59294
1.27594
1.0353
0.959864
0.85328
0.515012
0.331728
0.305665
0.297848
0.277842
0.26797
0.257984
0.229057
0.191217
0.173007
0.154584
0.148584
0.157228
0.206973
0.263913
0.294264
0.292895
0.28626
0.26909
0.230524
0.156629
0.0687837
0.0314476
0.0143809
0.00703076
0.00371195
0.00202793
0.0015801
0.00144146
0.00129894
0.00131264
0.00144156
0.00160478
0.00229665
0.00567167
0.0200347
0.0757028
0.132335
0.153155
0.152387
0.139431
0.104428
0.0828469
0.0684227
0.0613863
0.0580085
0.0570524
0.0576985
0.0606196
0.0727233
0.0840285
0.0860826
0.0824453
0.0767981
0.0680561
0.0538711
0.0383188
0.0253398
0.0182534
0.0148114
0.0141509
0.0143068
0.0144469
0.015748
0.0225833
0.0368023
0.0485236
0.0499863
0.0490176
0.0458909
0.0437522
0.0434236
0.0449991
0.0561319
0.0645777
0.0645398
0.0616542
0.051828
0.0471896
0.0446051
0.0396582
0.0342594
0.0314141
0.0286073
0.0265622
0.0264155
0.0281027
0.0308157
0.03301
0.0391433
0.045393
0.0497171
0.055931
0.076293
0.100187
0.107979
0.10798
0.10647
0.0969628
0.0879922
0.0762068
0.0633683
0.0561369
0.052884
0.0501938
0.041938
0.0310255
0.023969
0.0189249
0.0157054
0.0151172
0.0160972
0.017107
0.0167358
0.0159206
0.0161636
0.0194564
0.0233003
0.030336
0.0428644
0.0536385
0.072453
0.129845
0.191572
0.198069
0.158231
0.136679
0.167463
0.183734
0.167895
0.112056
0.0724465
0.0526514
0.0401131
0.032567
0.027361
0.0236585
0.0207323
0.0196414
0.0192416
0.0188991
0.0180846
0.0180183
0.0181859
0.0197077
0.0257371
0.0308818
0.0363847
0.0412647
0.0456804
0.046042
0.0472821
0.0463516
0.0479671
0.0465844
0.0484095
0.0498327
0.0501683
0.0505282
0.0535452
0.055854
0.0592862
0.0659137
0.0708785
0.0801532
0.100567
0.109697
0.109509
0.0966422
0.0878472
0.0936127
0.0954566
0.0843758
0.0747328
0.0690992
0.0665367
0.0646397
0.0607775
0.0503945
0.0442489
0.0435036
0.0438023
0.0426908
0.0351138
0.0241609
0.0174565
0.0150836
0.0153463
0.0168773
0.0175373
0.0198213
0.04194
0.115283
0.186768
1.01718
1.55502
1.26278
1.13148
0.917747
0.910175
0.855619
0.557108
0.39378
0.321089
0.283999
0.272614
0.249365
0.214183
0.189999
0.184972
0.191144
0.216739
0.291582
0.326844
0.328081
0.320011
0.297686
0.270073
0.21248
0.126335
0.0595991
0.0274685
0.0136738
0.0066717
0.00367104
0.00216397
0.0014182
0.00131359
0.0012807
0.00123933
0.00127748
0.00142079
0.00171761
0.00301193
0.00913413
0.0357185
0.110865
0.153107
0.161323
0.154311
0.122539
0.0892284
0.0734549
0.062755
0.0568979
0.054492
0.0534655
0.0537118
0.0556282
0.0638849
0.0779119
0.0828488
0.0818273
0.0783466
0.0714357
0.0572371
0.0412965
0.0279766
0.0198913
0.015638
0.0147356
0.0147209
0.0148818
0.0166057
0.0240079
0.0376719
0.0490797
0.0500991
0.0490336
0.0456927
0.0429498
0.0421742
0.0432213
0.05201
0.0622395
0.0627363
0.0611432
0.0536675
0.0489037
0.0461859
0.0412662
0.0361528
0.0331598
0.0300472
0.0281415
0.0280673
0.0299906
0.0322758
0.0347359
0.0419643
0.0482343
0.0524773
0.0589118
0.0799666
0.10192
0.108191
0.108056
0.10609
0.095427
0.0871322
0.0741426
0.0602787
0.0533391
0.0508285
0.0513412
0.0483473
0.0349593
0.0246616
0.0189624
0.0157972
0.0146475
0.0148805
0.0162165
0.0163332
0.0156154
0.0158144
0.0190517
0.0227605
0.0291793
0.0414777
0.052123
0.0697891
0.123994
0.18629
0.196832
0.163031
0.135036
0.164341
0.18624
0.174864
0.129065
0.0849314
0.0594272
0.0429789
0.033781
0.0280917
0.0232222
0.0201547
0.0191329
0.0187293
0.0182219
0.0176167
0.0177173
0.0182944
0.0198058
0.0245473
0.0305164
0.0361746
0.0428257
0.0455561
0.0464341
0.0472498
0.0468336
0.0483896
0.0486778
0.0501374
0.0534356
0.0546507
0.0556901
0.0610553
0.0650148
0.0675532
0.0722976
0.0794886
0.0919819
0.108993
0.113735
0.112081
0.0949245
0.0820364
0.0896282
0.0970475
0.088727
0.0767118
0.0706549
0.0675159
0.0656226
0.0627232
0.0530965
0.0457458
0.0437254
0.0436552
0.0426306
0.0367326
0.0251471
0.0176636
0.0150372
0.0152477
0.0164218
0.0168376
0.0187656
0.0353939
0.0976613
0.181879
0.773227
1.36475
1.1541
1.09305
0.923217
0.869759
0.86634
0.785737
0.664058
0.477865
0.354228
0.331825
0.291066
0.262119
0.262761
0.2832
0.338154
0.374288
0.3807
0.365021
0.342651
0.304687
0.245023
0.182983
0.0934931
0.0474209
0.0229765
0.011634
0.00632705
0.0033333
0.00214715
0.00145168
0.0011501
0.00118876
0.00120077
0.00118549
0.0012514
0.00144926
0.0019952
0.00439111
0.0153736
0.066418
0.139492
0.16745
0.166453
0.148125
0.102639
0.0759623
0.0637667
0.0566345
0.0525905
0.0511053
0.0506089
0.0508087
0.0522881
0.0573049
0.0715448
0.0798434
0.0808191
0.0792088
0.0732492
0.0603861
0.0451349
0.0307375
0.0208412
0.0162879
0.0157424
0.0157274
0.0159786
0.01777
0.0251466
0.0392094
0.0496344
0.0502591
0.0489149
0.0453411
0.0419988
0.0408467
0.041579
0.0488388
0.0605542
0.0617179
0.060755
0.0549725
0.0501669
0.0474248
0.0428
0.0379621
0.0346751
0.0314578
0.0298356
0.0298644
0.0316892
0.0336491
0.0366598
0.0451567
0.0511376
0.0551679
0.0619193
0.0828807
0.102831
0.10817
0.107905
0.105412
0.093607
0.0858135
0.0721957
0.0576706
0.0503959
0.0473145
0.04996
0.0533075
0.041546
0.0268136
0.0191416
0.0157931
0.0145463
0.0143636
0.0151631
0.0156613
0.0152593
0.0155042
0.0186791
0.0222076
0.0281366
0.040132
0.0505855
0.0674151
0.118966
0.18104
0.196477
0.168729
0.134798
0.160284
0.187559
0.180768
0.146563
0.0973474
0.0677074
0.0465666
0.0356359
0.0290507
0.0233415
0.0200607
0.0189245
0.0181765
0.0175368
0.0172503
0.0175134
0.0189247
0.020453
0.0232646
0.0300388
0.0364837
0.0439697
0.0456353
0.0472179
0.0480173
0.0482449
0.0501098
0.0509541
0.0547017
0.0614673
0.0631053
0.0641901
0.0691648
0.0724888
0.0799225
0.0812953
0.091874
0.103251
0.11222
0.117859
0.117292
0.0998002
0.0820342
0.0870433
0.0996646
0.0941299
0.0798438
0.0724952
0.0687338
0.0665607
0.0637773
0.0542776
0.0464882
0.0442191
0.0436181
0.0425199
0.0379169
0.0266596
0.0180208
0.0149582
0.0149913
0.0159822
0.0160965
0.0174057
0.0309208
0.0785886
0.169225
0.585968
1.07096
0.951676
0.925045
0.879053
0.796768
0.808432
0.787046
0.747841
0.665012
0.560542
0.504547
0.467924
0.43178
0.424309
0.427713
0.427912
0.422936
0.404916
0.349993
0.295828
0.22775
0.149083
0.0805417
0.0398906
0.0195203
0.00969814
0.00545765
0.00317926
0.00193118
0.00148492
0.00113767
0.00104367
0.0011341
0.00113375
0.00112189
0.00123632
0.00154607
0.00256151
0.00692364
0.0265404
0.102736
0.164468
0.177022
0.168653
0.128779
0.0905999
0.0690482
0.0586156
0.0538622
0.0505109
0.0486411
0.0480901
0.0482545
0.0495426
0.0531895
0.0655626
0.0762629
0.079385
0.0788628
0.0744457
0.0630921
0.0475576
0.0317665
0.0211645
0.0176188
0.0170823
0.0168012
0.0169867
0.0187594
0.0263466
0.0414814
0.0505558
0.0505803
0.0484212
0.0449514
0.0412768
0.0396232
0.0400751
0.0455517
0.0591644
0.0615991
0.0607626
0.0564566
0.0515479
0.0484668
0.0441453
0.0396391
0.0362616
0.0331307
0.0318978
0.0320113
0.0333708
0.0351218
0.03909
0.0485329
0.053909
0.0577324
0.064845
0.0857173
0.103245
0.107498
0.107132
0.104314
0.0913848
0.0840463
0.0704058
0.0564255
0.0482412
0.0427639
0.0451473
0.0543262
0.0491684
0.031642
0.0204311
0.0159765
0.0146468
0.0143326
0.0147252
0.0150632
0.0148459
0.0152925
0.0186712
0.0218283
0.027196
0.039053
0.0492985
0.0652446
0.113878
0.176933
0.19614
0.174647
0.13622
0.152095
0.186148
0.18447
0.167161
0.113053
0.075956
0.0512035
0.0380698
0.03022
0.0236552
0.0201505
0.0188359
0.0179247
0.0173379
0.017219
0.0178611
0.0203382
0.0214244
0.0229116
0.029194
0.037208
0.0444329
0.0461325
0.0484969
0.0493473
0.0498598
0.0515279
0.0538345
0.0627592
0.0701119
0.0720562
0.0739549
0.0787753
0.0807062
0.0860229
0.0893406
0.104672
0.109026
0.113421
0.121319
0.127219
0.116417
0.0884495
0.0859465
0.101386
0.099977
0.0860148
0.0767695
0.0712392
0.0682956
0.0650978
0.0557963
0.0472754
0.0445958
0.0436543
0.042399
0.0385139
0.027661
0.0185035
0.014822
0.0146751
0.0154973
0.0157252
0.0168347
0.0287102
0.065268
0.148019
0.44224
0.751635
0.69327
0.674621
0.687996
0.669694
0.671496
0.703927
0.699754
0.670603
0.621978
0.553165
0.523895
0.492229
0.469364
0.453303
0.423409
0.398128
0.349685
0.272908
0.207585
0.131537
0.0700216
0.0349244
0.0162674
0.0081822
0.00454018
0.00289927
0.00191985
0.00140745
0.0011961
0.000997084
0.000995963
0.00109875
0.00105162
0.00105266
0.0012528
0.00181015
0.00367578
0.0114449
0.0459292
0.142288
0.182953
0.184134
0.1627
0.109379
0.0778878
0.0616983
0.0542016
0.0513044
0.0492151
0.0471861
0.0462259
0.0462762
0.0473967
0.0505964
0.0613401
0.0740479
0.0783262
0.0782373
0.0754396
0.0651112
0.048577
0.0319037
0.0218331
0.0193642
0.018074
0.0172255
0.0174054
0.0191679
0.0272834
0.043346
0.0514296
0.0510144
0.047574
0.0443499
0.040947
0.03902
0.0391903
0.0432829
0.0580232
0.0617131
0.0611608
0.0582611
0.0533723
0.0501111
0.0460806
0.0416427
0.0382733
0.0353514
0.0343146
0.0343844
0.0350545
0.0367165
0.0424157
0.051999
0.0565766
0.0601131
0.0680095
0.0875536
0.103246
0.106467
0.105955
0.103116
0.0891477
0.0815643
0.0695836
0.0564294
0.0477631
0.0394323
0.040088
0.0521431
0.0547716
0.0393692
0.0239009
0.0170572
0.0151495
0.014528
0.0146311
0.0146334
0.0145781
0.015278
0.0188022
0.0216197
0.0264373
0.0378543
0.0480549
0.0631948
0.108932
0.173121
0.195573
0.18023
0.138413
0.144387
0.181559
0.188602
0.18012
0.137463
0.0884082
0.0577935
0.0417236
0.0317218
0.0242597
0.020358
0.0188527
0.0180281
0.0174249
0.0173981
0.018635
0.0212174
0.0220685
0.0230702
0.0288586
0.0378798
0.044922
0.047306
0.0499377
0.0504624
0.0512746
0.0531474
0.0587843
0.0718425
0.0771247
0.0790767
0.082864
0.0876029
0.091233
0.0902573
0.0965042
0.114245
0.112532
0.115364
0.124542
0.1328
0.130512
0.100801
0.0855959
0.0979567
0.101795
0.0960437
0.082519
0.0745015
0.0701498
0.0668412
0.0579162
0.0488784
0.0453274
0.0439088
0.0424052
0.0386776
0.0279664
0.0187494
0.0147404
0.0145424
0.0150708
0.0152254
0.0159642
0.0284017
0.0561679
0.126972
0.332399
0.443395
0.422073
0.424274
0.443497
0.461264
0.473623
0.520281
0.546684
0.574708
0.569055
0.534274
0.495512
0.468488
0.416333
0.382726
0.334607
0.286997
0.231911
0.16888
0.108045
0.0567943
0.0289288
0.0136561
0.00647928
0.00387464
0.00257278
0.00192745
0.00146379
0.00119284
0.00104315
0.000929396
0.000958802
0.000986777
0.000924739
0.00101169
0.00140431
0.00240592
0.00573069
0.0189373
0.0827673
0.171947
0.195572
0.1876
0.14273
0.09863
0.0719664
0.0573038
0.0511222
0.0489262
0.0477368
0.0457068
0.0444863
0.0444996
0.0455198
0.048476
0.0579187
0.0714414
0.0763528
0.0769877
0.0756667
0.0680676
0.0506399
0.0327258
0.0232382
0.0207747
0.0188177
0.0176226
0.0177672
0.0194098
0.0276283
0.0443094
0.0517939
0.0511326
0.0469519
0.0438012
0.0407622
0.0386953
0.0387512
0.0418802
0.0562234
0.0625318
0.0624346
0.0607817
0.0560743
0.052676
0.0486948
0.0442349
0.0409266
0.0381191
0.0369412
0.0368034
0.0372199
0.0386587
0.0465506
0.0555336
0.0591656
0.0623794
0.0711828
0.0888483
0.102168
0.105273
0.104817
0.101888
0.0869419
0.0787891
0.0688087
0.0568766
0.0479916
0.0388287
0.0368607
0.0473534
0.0556718
0.0481533
0.0297201
0.0194338
0.0162605
0.0149533
0.0147247
0.0144688
0.0145193
0.0154874
0.0191729
0.0215197
0.0257796
0.0368838
0.0470121
0.0614565
0.103548
0.168195
0.193449
0.184592
0.140736
0.140081
0.178243
0.197907
0.191423
0.159278
0.104229
0.0665609
0.0472536
0.0339794
0.0253559
0.0208138
0.0189559
0.0183932
0.0176623
0.0176615
0.0194538
0.0216557
0.0223825
0.0231566
0.0288805
0.0388904
0.0460461
0.0490323
0.0509972
0.0516113
0.0528062
0.056414
0.068839
0.0806942
0.0845225
0.0865209
0.0893035
0.0949979
0.101918
0.0983426
0.115179
0.121465
0.11494
0.122345
0.130701
0.131695
0.129838
0.106505
0.0830896
0.0879446
0.0971951
0.0976439
0.0929895
0.0792142
0.0720114
0.0676211
0.0586301
0.0496755
0.0458002
0.0440206
0.0424394
0.0391437
0.0286085
0.0191318
0.0147848
0.0143189
0.0145772
0.014931
0.0159935
0.0295496
0.0503698
0.108793
0.255644
0.193253
0.190186
0.19729
0.230057
0.257328
0.268999
0.31152
0.337777
0.372788
0.408004
0.399878
0.377085
0.342995
0.287335
0.253285
0.194817
0.148344
0.102538
0.0660498
0.0389728
0.0206954
0.0105276
0.00504306
0.00301466
0.0024108
0.00188345
0.00156364
0.00126927
0.00103232
0.000941584
0.00087106
0.000873086
0.000838852
0.000869163
0.00108519
0.00179491
0.00355468
0.00927688
0.0318881
0.124931
0.198723
0.206491
0.184271
0.12517
0.0868065
0.064864
0.0540445
0.0494322
0.0478997
0.0469047
0.044937
0.043468
0.0434217
0.0443188
0.0470948
0.0558669
0.068639
0.0746215
0.0759953
0.0755142
0.0707185
0.053463
0.0339836
0.0246772
0.0216338
0.0191668
0.0179998
0.0181352
0.019708
0.0276831
0.0441575
0.0517054
0.051043
0.0467848
0.0436751
0.0408147
0.0386386
0.0385504
0.0407768
0.053653
0.0623454
0.0636951
0.0628685
0.05899
0.0555391
0.051772
0.0471504
0.0437704
0.0412854
0.0396838
0.0388874
0.0391668
0.0411359
0.0516966
0.0589788
0.0615777
0.0643798
0.0739614
0.0893509
0.101212
0.104173
0.103821
0.100859
0.0846863
0.0760527
0.0678128
0.0577181
0.0487067
0.0397572
0.0369067
0.0419512
0.0542823
0.0527424
0.037291
0.0233726
0.0182646
0.0160068
0.0150529
0.0144825
0.0145748
0.0162989
0.0197011
0.0216066
0.0253584
0.0358741
0.0459665
0.0597795
0.0984772
0.162651
0.190179
0.186535
0.142928
0.136062
0.175022
0.218924
0.213206
0.184444
0.123602
0.0790323
0.0546044
0.0384879
0.0276548
0.0219094
0.0193183
0.0184775
0.0178099
0.0179091
0.0203952
0.022103
0.0228993
0.0237525
0.0294904
0.0404928
0.0474158
0.0507511
0.0519055
0.0531375
0.0553473
0.0623824
0.0807151
0.0902901
0.093101
0.0945933
0.0949577
0.103305
0.108388
0.108026
0.128544
0.124618
0.11746
0.135937
0.137644
0.130798
0.124016
0.104934
0.0799082
0.0775407
0.0873682
0.0948543
0.0948048
0.0847973
0.0747843
0.0683867
0.0588369
0.0501035
0.0461811
0.0440736
0.0426032
0.0393371
0.0289892
0.0194619
0.0148408
0.0142496
0.0141547
0.0151037
0.0162745
0.0336885
0.0462338
0.0889724
0.202535
0.0541003
0.0546433
0.0609509
0.0873423
0.11137
0.119996
0.147255
0.163262
0.188548
0.22674
0.225959
0.217749
0.1992
0.164124
0.123981
0.0828404
0.0568476
0.038502
0.0246604
0.0141129
0.0073387
0.00373947
0.00231214
0.0020784
0.00196121
0.00163546
0.00138514
0.00105214
0.000888987
0.000860396
0.000783413
0.000724993
0.00075996
0.000864961
0.00133684
0.0025747
0.00556891
0.0151648
0.0538164
0.171721
0.218378
0.211393
0.163583
0.113727
0.0813156
0.061028
0.0520203
0.048085
0.0465718
0.0460927
0.0446002
0.0428857
0.0426826
0.0433119
0.0457856
0.0532337
0.0664845
0.07334
0.0750989
0.0752982
0.0717245
0.0545879
0.0343316
0.025017
0.0221214
0.0198252
0.0185776
0.0186145
0.0200747
0.026803
0.0426243
0.0508854
0.0505694
0.0467695
0.0436031
0.0409762
0.0386977
0.0384679
0.0400214
0.0500736
0.0612867
0.0650335
0.0647681
0.0613096
0.0580536
0.0544653
0.049729
0.0465895
0.0445153
0.0422058
0.0408367
0.0410939
0.0447923
0.0569138
0.0619692
0.0636157
0.066149
0.0764213
0.0896637
0.099553
0.103003
0.102853
0.0998582
0.0823617
0.0732788
0.0667186
0.0581467
0.0491706
0.0415156
0.0391486
0.0401365
0.0511669
0.0520396
0.045124
0.0289984
0.0221642
0.0183584
0.0158797
0.0146844
0.014899
0.0179767
0.0203302
0.0218233
0.0251325
0.0351639
0.0449453
0.0580931
0.094707
0.15622
0.186729
0.186765
0.146347
0.1308
0.167691
0.23635
0.235496
0.214638
0.152358
0.0957101
0.0647835
0.0446387
0.0317266
0.0243569
0.0203589
0.0186775
0.0181679
0.0187769
0.0213266
0.0224941
0.0234424
0.0244986
0.0309623
0.0422428
0.0492767
0.0524514
0.0536789
0.0555319
0.0589691
0.072666
0.091196
0.10034
0.101512
0.101643
0.102892
0.114782
0.113507
0.12109
0.134196
0.125439
0.126466
0.145906
0.147906
0.136079
0.118611
0.0997331
0.075696
0.0719573
0.0789761
0.0908907
0.0931549
0.0869466
0.0766347
0.0697739
0.0593434
0.0504654
0.0461948
0.0442477
0.0426147
0.0392529
0.0289233
0.0196552
0.0149194
0.0143482
0.0140948
0.0157481
0.0170071
0.04043
0.0462209
0.0691904
0.165706
0.0107221
0.0116015
0.0151794
0.0273899
0.0395253
0.04339
0.0541614
0.0609634
0.0709165
0.0990838
0.102212
0.0996519
0.091961
0.0676687
0.0442586
0.0288522
0.0202962
0.0136319
0.00843989
0.00463723
0.0025675
0.00173943
0.0017644
0.00190147
0.00179747
0.00139427
0.00100896
0.0008025
0.000777105
0.000729426
0.000625814
0.000652724
0.000745701
0.00101904
0.00192234
0.00401019
0.00904547
0.024607
0.0952303
0.208834
0.233909
0.212453
0.146681
0.102835
0.0737132
0.0575463
0.0507595
0.0476703
0.0458759
0.0453824
0.044453
0.0429725
0.0427124
0.0430134
0.0448758
0.0514354
0.0656151
0.0721542
0.0747212
0.0754385
0.0734704
0.0567808
0.03463
0.0248406
0.0229046
0.0223697
0.0204885
0.0194929
0.0206202
0.0258241
0.0393008
0.0485076
0.0490693
0.0471406
0.0437153
0.0410025
0.0385059
0.0379379
0.0388546
0.0443126
0.0585448
0.0651256
0.0655833
0.062655
0.0600154
0.0567608
0.0517587
0.0491644
0.0470105
0.0440691
0.0428648
0.043336
0.0503766
0.0613489
0.0643153
0.0651106
0.0678
0.0785177
0.0895536
0.0977903
0.101783
0.10206
0.0991346
0.080277
0.0705328
0.0653824
0.0579526
0.0490402
0.044026
0.0438001
0.0413601
0.0470025
0.0487953
0.0506488
0.0364141
0.027428
0.0224087
0.0176527
0.0153901
0.0158002
0.0200555
0.0212279
0.022209
0.0248867
0.0344835
0.0443501
0.056783
0.090303
0.150523
0.183595
0.185813
0.150479
0.124632
0.150869
0.233002
0.244791
0.234899
0.190096
0.120508
0.0794608
0.0528566
0.0365387
0.027066
0.0214112
0.019357
0.0194311
0.0204366
0.0217784
0.0230045