/*--------------------------------*- C++ -*----------------------------------*\
| =========                 |                                                 |
| \\      /  F ield         | OpenFOAM: The Open Source CFD Toolbox           |
|  \\    /   O peration     | Version:  2.4.0                                 |
|   \\  /    A nd           | Web:      www.OpenFOAM.org                      |
|    \\/     M anipulation  |                                                 |
\*---------------------------------------------------------------------------*/
FoamFile
{
    version     2.0;
    format      ascii;
    class       volVectorField;
    location    "0.172";
    object      U_0;
}
// * * * * * * * * * * * * * * * * * * * * * * * * * * * * * * * * * * * * * //

dimensions      [0 1 -1 0 0 0 0];

internalField   nonuniform List<vector> 
17600
(
(5.32864 0.309367 0)
(2.98592 0.0606386 0)
(2.19665 -0.00149765 0)
(1.84443 -0.00353706 0)
(1.71297 -0.00171113 0)
(1.60379 0.00045528 0)
(1.54411 -0.000104529 0)
(1.47858 -0.000893893 0)
(1.43962 0.00119578 0)
(1.39978 -0.000754779 0)
(1.38096 -0.000387829 0)
(1.36526 0.0005447 0)
(1.32414 0.000453255 0)
(1.34677 -0.00169512 0)
(1.30052 0.00157693 0)
(1.32181 -0.00028276 0)
(1.30812 -0.00118047 0)
(1.33209 0.000720451 0)
(1.3285 0.00253542 0)
(1.50634 -0.0118604 0)
(8.60217 0.871759 0)
(6.94784 0.383629 0)
(5.81484 0.122274 0)
(5.04789 0.0505768 0)
(4.66925 0.0273998 0)
(4.35468 0.0223179 0)
(4.20279 0.0152065 0)
(4.0083 0.01054 0)
(3.90073 0.0129304 0)
(3.80271 0.0052044 0)
(3.72269 0.00407864 0)
(3.68488 0.00776286 0)
(3.57885 0.00389663 0)
(3.62995 -0.00138025 0)
(3.48618 0.0073622 0)
(3.57036 -0.00228322 0)
(3.50293 -0.00270859 0)
(3.54798 -0.00317071 0)
(3.58872 -0.00700633 0)
(3.83852 0.0279425 0)
(9.86366 1.02159 0)
(9.33877 0.577533 0)
(8.48368 0.242486 0)
(7.62681 0.129091 0)
(7.1207 0.080873 0)
(6.65639 0.0605549 0)
(6.44515 0.0420002 0)
(6.15163 0.0325019 0)
(5.98535 0.0315578 0)
(5.85263 0.0175799 0)
(5.70476 0.0135144 0)
(5.65964 0.0194747 0)
(5.49319 0.00976318 0)
(5.56861 0.00255096 0)
(5.3367 0.0158616 0)
(5.47811 -0.00497299 0)
(5.35283 -0.00109577 0)
(5.40294 -0.00918298 0)
(5.4892 -0.0174386 0)
(5.65632 0.010538 0)
(10.1737 0.94713 0)
(10.5556 0.668928 0)
(10.2747 0.332407 0)
(9.61843 0.207986 0)
(9.16449 0.147052 0)
(8.63415 0.111155 0)
(8.41277 0.077735 0)
(8.0616 0.0638706 0)
(7.84698 0.0556919 0)
(7.70618 0.0359308 0)
(7.49307 0.0274955 0)
(7.45212 0.035185 0)
(7.23273 0.0180844 0)
(7.32766 0.010007 0)
(7.02374 0.0267655 0)
(7.20776 -0.00733927 0)
(7.03475 0.00384739 0)
(7.076 -0.0176167 0)
(7.19 -0.0240868 0)
(7.30907 -0.0265792 0)
(10.0989 0.804679 0)
(10.8997 0.670472 0)
(11.1563 0.360033 0)
(10.855 0.252684 0)
(10.6436 0.202839 0)
(10.1737 0.162815 0)
(10.0107 0.115306 0)
(9.67412 0.100565 0)
(9.4335 0.0828801 0)
(9.31857 0.0577296 0)
(9.06052 0.0452557 0)
(9.0314 0.0533225 0)
(8.78045 0.028366 0)
(8.88807 0.0201674 0)
(8.5403 0.0396948 0)
(8.7436 -0.0092266 0)
(8.55091 0.0114331 0)
(8.56942 -0.022361 0)
(8.68396 -0.0432381 0)
(8.79391 -0.0292851 0)
(10.0279 0.689548 0)
(10.825 0.637615 0)
(11.3474 0.338714 0)
(11.3052 0.24649 0)
(11.4109 0.223506 0)
(11.1212 0.197738 0)
(11.0923 0.141989 0)
(10.871 0.134462 0)
(10.6551 0.108993 0)
(10.6005 0.0787904 0)
(10.3444 0.064836 0)
(10.3349 0.0720932 0)
(10.0873 0.039392 0)
(10.1999 0.0316169 0)
(9.8527 0.0543215 0)
(10.0457 -0.0113275 0)
(9.86689 0.0207458 0)
(9.8687 -0.0248683 0)
(9.95167 -0.0536478 0)
(10.0571 -0.0897677 0)
(10.0315 0.598819 0)
(10.6862 0.60483 0)
(11.2897 0.311668 0)
(11.2787 0.213656 0)
(11.5793 0.20736 0)
(11.4655 0.206186 0)
(11.5569 0.144586 0)
(11.5254 0.152322 0)
(11.4038 0.125341 0)
(11.4348 0.0912192 0)
(11.2516 0.0811773 0)
(11.2805 0.0877661 0)
(11.0847 0.0492417 0)
(11.1939 0.0411485 0)
(10.9094 0.0706363 0)
(11.0648 -0.0154409 0)
(10.9286 0.0314221 0)
(10.9329 -0.0289686 0)
(10.981 -0.0499781 0)
(11.0828 -0.133979 0)
(10.0614 0.518148 0)
(10.5737 0.568659 0)
(11.2225 0.297599 0)
(11.1592 0.187158 0)
(11.4806 0.17696 0)
(11.4942 0.201702 0)
(11.5812 0.130038 0)
(11.6792 0.150683 0)
(11.685 0.127516 0)
(11.7628 0.0892689 0)
(11.7033 0.0869356 0)
(11.7788 0.0941756 0)
(11.6922 0.0532566 0)
(11.7862 0.0453777 0)
(11.634 0.081403 0)
(11.739 -0.0157445 0)
(11.6823 0.0283431 0)
(11.6806 -0.0145926 0)
(11.7584 -0.0902264 0)
(11.8034 -0.0168289 0)
(10.0747 0.445201 0)
(10.4927 0.522268 0)
(11.1796 0.289066 0)
(11.1221 0.172453 0)
(11.3233 0.142776 0)
(11.4413 0.192472 0)
(11.4991 0.115107 0)
(11.5921 0.138225 0)
(11.7211 0.120939 0)
(11.7732 0.0790382 0)
(11.8039 0.0831862 0)
(11.8792 0.0889386 0)
(11.9138 0.050378 0)
(11.9787 0.0407319 0)
(11.958 0.0848414 0)
(12.0456 -0.0221201 0)
(12.0549 0.0244141 0)
(12.0832 -0.0173948 0)
(12.1575 -0.106285 0)
(12.2709 -0.00703648 0)
(10.0569 0.381821 0)
(10.4193 0.46761 0)
(11.0814 0.277266 0)
(11.1739 0.16763 0)
(11.226 0.116997 0)
(11.3721 0.178089 0)
(11.4588 0.102975 0)
(11.4726 0.122271 0)
(11.6689 0.109321 0)
(11.7146 0.0680697 0)
(11.7715 0.079751 0)
(11.811 0.0778146 0)
(11.9315 0.0442635 0)
(11.9701 0.0315936 0)
(12.004 0.082668 0)
(12.0921 -0.0341873 0)
(12.1217 0.0172489 0)
(12.1864 -0.0287874 0)
(12.2316 -0.11688 0)
(12.4265 -0.0929346 0)
(10.0153 0.326421 0)
(10.3511 0.417188 0)
(10.9756 0.255835 0)
(11.1838 0.158997 0)
(11.221 0.100794 0)
(11.3445 0.162289 0)
(11.4141 0.0923011 0)
(11.3569 0.111564 0)
(11.5851 0.0952239 0)
(11.6517 0.0557974 0)
(11.7268 0.0770307 0)
(11.7616 0.0666336 0)
(11.9293 0.0327479 0)
(11.9404 0.02588 0)
(11.9781 0.0749676 0)
(12.04 -0.0406445 0)
(12.0766 0.00425473 0)
(12.1426 -0.0409667 0)
(12.1976 -0.148007 0)
(12.3333 -0.133207 0)
(9.97338 0.282591 0)
(10.3591 0.361561 0)
(10.8871 0.233453 0)
(11.0982 0.145949 0)
(11.2251 0.0835417 0)
(11.3363 0.150172 0)
(11.3513 0.0908264 0)
(11.2997 0.0989452 0)
(11.5342 0.0785501 0)
(11.6124 0.0385445 0)
(11.6838 0.0739164 0)
(11.7246 0.0505145 0)
(11.8871 0.0259021 0)
(11.8648 0.0200421 0)
(11.9243 0.0752078 0)
(11.9941 -0.0497728 0)
(12.0037 -0.00557066 0)
(12.0705 -0.0560245 0)
(12.1414 -0.165913 0)
(12.1784 -0.180778 0)
(9.97961 0.238022 0)
(10.4025 0.308896 0)
(10.7584 0.218038 0)
(10.9972 0.129814 0)
(11.1898 0.0627855 0)
(11.2872 0.139351 0)
(11.3467 0.0886044 0)
(11.319 0.0839127 0)
(11.5032 0.0627462 0)
(11.5837 0.0237238 0)
(11.6132 0.072665 0)
(11.6416 0.0388492 0)
(11.7861 0.0181041 0)
(11.767 0.0183555 0)
(11.8976 0.0623953 0)
(11.9758 -0.0511487 0)
(11.9453 -0.0182374 0)
(12.0162 -0.0659117 0)
(12.0656 -0.192152 0)
(12.1027 -0.201535 0)
(10.028 0.194273 0)
(10.348 0.265323 0)
(10.6436 0.202664 0)
(10.9611 0.112451 0)
(11.1409 0.0446311 0)
(11.2362 0.122824 0)
(11.3674 0.079839 0)
(11.3269 0.0715052 0)
(11.4503 0.0533155 0)
(11.5242 0.0131328 0)
(11.5431 0.0753002 0)
(11.5863 0.0281002 0)
(11.7106 0.00978647 0)
(11.7372 0.00769348 0)
(11.8941 0.0456462 0)
(11.945 -0.0511834 0)
(11.9007 -0.0254662 0)
(11.9722 -0.077651 0)
(12.0086 -0.214119 0)
(12.0527 -0.231325 0)
(10.0374 0.154507 0)
(10.263 0.231268 0)
(10.6289 0.171413 0)
(10.9489 0.0955988 0)
(11.1138 0.0311074 0)
(11.2106 0.104018 0)
(11.3436 0.0686903 0)
(11.2898 0.0648011 0)
(11.3923 0.0455127 0)
(11.4723 0.00221192 0)
(11.5281 0.0724526 0)
(11.5794 0.0201841 0)
(11.6965 -0.00329369 0)
(11.7191 -0.00198535 0)
(11.8433 0.0333977 0)
(11.896 -0.0536281 0)
(11.8727 -0.0316495 0)
(11.9472 -0.0945888 0)
(11.9793 -0.220806 0)
(11.9455 -0.28657 0)
(10.0058 0.12379 0)
(10.2684 0.186319 0)
(10.6485 0.139436 0)
(10.8936 0.0811252 0)
(11.0885 0.0209427 0)
(11.1935 0.0843707 0)
(11.2924 0.0632358 0)
(11.2536 0.0526422 0)
(11.3813 0.0388188 0)
(11.4756 -0.0149304 0)
(11.5203 0.0705545 0)
(11.5706 0.00884819 0)
(11.6882 -0.010163 0)
(11.6569 -0.00838393 0)
(11.7756 0.0227478 0)
(11.8616 -0.0616436 0)
(11.862 -0.0342979 0)
(11.9305 -0.118716 0)
(11.9353 -0.207088 0)
(11.8891 -0.327411 0)
(10.0033 0.0914959 0)
(10.3028 0.14028 0)
(10.5857 0.113905 0)
(10.8393 0.0707524 0)
(11.0869 0.00567743 0)
(11.1697 0.0688006 0)
(11.2476 0.0537425 0)
(11.26 0.0405165 0)
(11.3926 0.0237167 0)
(11.4625 -0.0222254 0)
(11.4783 0.065784 0)
(11.5672 0.00453215 0)
(11.6512 -0.0211698 0)
(11.6198 -0.0058483 0)
(11.7536 -0.000371596 0)
(11.8285 -0.0604263 0)
(11.8445 -0.0526831 0)
(11.9134 -0.111737 0)
(11.8977 -0.233333 0)
(11.9546 -0.299627 0)
(10.0312 0.059383 0)
(10.2529 0.101429 0)
(10.5147 0.0914369 0)
(10.8691 0.0490711 0)
(11.1028 -0.00609305 0)
(11.1302 0.0552764 0)
(11.2228 0.0430414 0)
(11.2804 0.0228651 0)
(11.3623 0.0172458 0)
(11.3989 -0.0290341 0)
(11.4571 0.0588824 0)
(11.5805 -0.00268129 0)
(11.6265 -0.0281806 0)
(11.6148 -0.0101526 0)
(11.7451 -0.0177184 0)
(11.7847 -0.0613357 0)
(11.8309 -0.0677097 0)
(11.9043 -0.114478 0)
(11.8907 -0.257568 0)
(11.9394 -0.267267 0)
(10.0242 0.0324839 0)
(10.1979 0.0646315 0)
(10.5419 0.0563608 0)
(10.9184 0.0246345 0)
(11.0703 -0.00780506 0)
(11.0814 0.0436672 0)
(11.2247 0.0280423 0)
(11.2851 0.00851806 0)
(11.3218 0.0135608 0)
(11.3805 -0.0377997 0)
(11.4759 0.0452644 0)
(11.5812 -0.00825503 0)
(11.6193 -0.0335793 0)
(11.5965 -0.0143588 0)
(11.7171 -0.0266091 0)
(11.7629 -0.0740445 0)
(11.8344 -0.0729811 0)
(11.8822 -0.131367 0)
(11.883 -0.255272 0)
(11.8229 -0.283254 0)
(10.0012 0.00924958 0)
(10.2124 0.0205544 0)
(10.5952 0.0186209 0)
(10.8893 0.0100862 0)
(11.0062 -0.00618211 0)
(11.0847 0.0275309 0)
(11.2444 0.00885791 0)
(11.2796 -0.00227571 0)
(11.3155 0.00638427 0)
(11.4022 -0.0482982 0)
(11.4785 0.0334057 0)
(11.5558 -0.011389 0)
(11.6057 -0.0383021 0)
(11.585 -0.0181473 0)
(11.7106 -0.0389497 0)
(11.7726 -0.0848972 0)
(11.8231 -0.0799414 0)
(11.8457 -0.143889 0)
(11.8753 -0.2497 0)
(11.8187 -0.341284 0)
(9.99719 -0.0158597 0)
(10.2431 -0.0269249 0)
(10.5919 -0.0098453 0)
(10.8389 -0.00178326 0)
(11.0083 -0.00924663 0)
(11.1304 0.00349337 0)
(11.244 -0.00379449 0)
(11.269 -0.0144618 0)
(11.3159 -0.000184053 0)
(11.401 -0.0582994 0)
(11.4644 0.0268658 0)
(11.5368 -0.0162477 0)
(11.6049 -0.0433649 0)
(11.6072 -0.0256299 0)
(11.7264 -0.0510301 0)
(11.7779 -0.0970828 0)
(11.7886 -0.0785658 0)
(11.8396 -0.163271 0)
(11.8908 -0.242104 0)
(11.8608 -0.408944 0)
(10.0038 -0.0424001 0)
(10.2557 -0.0707279 0)
(10.5687 -0.0377945 0)
(10.8391 -0.0165384 0)
(11.0541 -0.0202974 0)
(11.1379 -0.0121927 0)
(11.2185 -0.0158338 0)
(11.2742 -0.0245192 0)
(11.3235 -0.0102504 0)
(11.4046 -0.0635099 0)
(11.472 0.012733 0)
(11.5375 -0.0155447 0)
(11.6227 -0.0579092 0)
(11.6379 -0.0259474 0)
(11.7221 -0.0672683 0)
(11.7578 -0.0944269 0)
(11.7662 -0.0946165 0)
(11.8719 -0.163526 0)
(11.9093 -0.272687 0)
(11.8149 -0.34268 0)
(10.0118 -0.0704006 0)
(10.2539 -0.114018 0)
(10.5612 -0.0645639 0)
(10.881 -0.0357631 0)
(11.0714 -0.0261997 0)
(11.1166 -0.0261727 0)
(11.2161 -0.0294007 0)
(11.3029 -0.0389208 0)
(11.3338 -0.0191742 0)
(11.4277 -0.0705234 0)
(11.4814 0.00273574 0)
(11.5444 -0.0228267 0)
(11.6368 -0.0645369 0)
(11.6529 -0.0336985 0)
(11.7083 -0.0705314 0)
(11.7492 -0.100158 0)
(11.7839 -0.110639 0)
(11.8984 -0.170502 0)
(11.8871 -0.285481 0)
(11.7925 -0.274207 0)
(10.01 -0.0993404 0)
(10.2535 -0.155164 0)
(10.5941 -0.0968382 0)
(10.9157 -0.0526775 0)
(11.0662 -0.0299465 0)
(11.1243 -0.0427122 0)
(11.2359 -0.0432529 0)
(11.3224 -0.0541841 0)
(11.3426 -0.0242331 0)
(11.4539 -0.0809704 0)
(11.4804 -0.000710528 0)
(11.5524 -0.0326801 0)
(11.6514 -0.0684912 0)
(11.6692 -0.0427328 0)
(11.713 -0.0745719 0)
(11.7621 -0.110057 0)
(11.8212 -0.121485 0)
(11.9043 -0.184534 0)
(11.8564 -0.271816 0)
(11.8122 -0.336259 0)
(10.001 -0.128525 0)
(10.2807 -0.200875 0)
(10.637 -0.127786 0)
(10.9232 -0.0649054 0)
(11.0764 -0.0366275 0)
(11.1496 -0.0588572 0)
(11.253 -0.0603066 0)
(11.343 -0.0632923 0)
(11.3647 -0.0396014 0)
(11.4802 -0.0798317 0)
(11.4903 -0.0176187 0)
(11.5698 -0.0288408 0)
(11.673 -0.0894643 0)
(11.6959 -0.0357489 0)
(11.7265 -0.0883405 0)
(11.7807 -0.115122 0)
(11.8553 -0.131307 0)
(11.8812 -0.197504 0)
(11.8701 -0.264991 0)
(11.8878 -0.396844 0)
(9.99718 -0.163281 0)
(10.3155 -0.244966 0)
(10.6604 -0.156594 0)
(10.9419 -0.0771258 0)
(11.1103 -0.0453541 0)
(11.1732 -0.0769336 0)
(11.2794 -0.0725552 0)
(11.3717 -0.0799519 0)
(11.3894 -0.0425636 0)
(11.5018 -0.0939752 0)
(11.5133 -0.0130244 0)
(11.5996 -0.0576095 0)
(11.6996 -0.0736994 0)
(11.7205 -0.0672656 0)
(11.7412 -0.0635164 0)
(11.811 -0.152487 0)
(11.8711 -0.11534 0)
(11.8833 -0.223439 0)
(11.9172 -0.262862 0)
(11.8991 -0.431039 0)
(9.99666 -0.199493 0)
(10.3489 -0.290054 0)
(10.6957 -0.182832 0)
(10.9805 -0.0915256 0)
(11.1425 -0.0556897 0)
(11.1997 -0.0925428 0)
(11.3157 -0.089305 0)
(11.3997 -0.0869115 0)
(11.4138 -0.058872 0)
(11.5304 -0.0884106 0)
(11.554 -0.0363832 0)
(11.6312 -0.0464405 0)
(11.7246 -0.102395 0)
(11.7453 -0.0473166 0)
(11.764 -0.0971367 0)
(11.8476 -0.132855 0)
(11.8896 -0.152887 0)
(11.92 -0.201134 0)
(11.9515 -0.302399 0)
(11.8843 -0.367534 0)
(10.0103 -0.242427 0)
(10.3869 -0.335164 0)
(10.7357 -0.20423 0)
(11.0158 -0.106447 0)
(11.1828 -0.0679624 0)
(11.2343 -0.10975 0)
(11.3568 -0.102166 0)
(11.4358 -0.0992763 0)
(11.4499 -0.0642757 0)
(11.5646 -0.100291 0)
(11.6077 -0.0386398 0)
(11.6517 -0.0633149 0)
(11.7542 -0.0985065 0)
(11.7789 -0.0629436 0)
(11.8012 -0.0936299 0)
(11.8822 -0.146689 0)
(11.9258 -0.163627 0)
(11.9714 -0.197605 0)
(11.9735 -0.336808 0)
(11.9274 -0.313965 0)
(10.0507 -0.290032 0)
(10.4003 -0.379999 0)
(10.7848 -0.217523 0)
(11.0587 -0.126349 0)
(11.2421 -0.0844079 0)
(11.2596 -0.125855 0)
(11.4158 -0.116804 0)
(11.4686 -0.10909 0)
(11.4903 -0.0737632 0)
(11.603 -0.108737 0)
(11.6566 -0.0454837 0)
(11.6705 -0.0742999 0)
(11.7993 -0.0977904 0)
(11.8179 -0.0806981 0)
(11.8479 -0.0801047 0)
(11.9204 -0.179487 0)
(11.9886 -0.142028 0)
(12.0078 -0.242188 0)
(12.0078 -0.30451 0)
(11.9876 -0.376029 0)
(10.0903 -0.343839 0)
(10.3958 -0.423398 0)
(10.8678 -0.229474 0)
(11.1018 -0.149758 0)
(11.3058 -0.101242 0)
(11.2738 -0.141256 0)
(11.4956 -0.132151 0)
(11.4798 -0.113097 0)
(11.5541 -0.0896734 0)
(11.6377 -0.107658 0)
(11.7145 -0.0631057 0)
(11.6895 -0.0677425 0)
(11.8725 -0.12224 0)
(11.8496 -0.0664809 0)
(11.917 -0.109952 0)
(11.9698 -0.163934 0)
(12.0577 -0.171241 0)
(12.0238 -0.233828 0)
(12.0424 -0.306861 0)
(11.974 -0.42998 0)
(10.1021 -0.403487 0)
(10.4109 -0.46507 0)
(10.9608 -0.244551 0)
(11.1529 -0.172159 0)
(11.3543 -0.11846 0)
(11.3076 -0.158567 0)
(11.5782 -0.144649 0)
(11.4898 -0.11879 0)
(11.6405 -0.101161 0)
(11.6731 -0.118912 0)
(11.7777 -0.0614688 0)
(11.7309 -0.0889249 0)
(11.9583 -0.116483 0)
(11.8758 -0.0872496 0)
(12.0072 -0.103556 0)
(11.9835 -0.181418 0)
(12.0859 -0.169416 0)
(11.9719 -0.233827 0)
(11.9978 -0.311078 0)
(11.8194 -0.453303 0)
(10.0909 -0.466189 0)
(10.4511 -0.509397 0)
(11.0594 -0.261477 0)
(11.2132 -0.194137 0)
(11.388 -0.136891 0)
(11.3908 -0.177166 0)
(11.6359 -0.157875 0)
(11.5302 -0.121282 0)
(11.7323 -0.12034 0)
(11.7089 -0.119353 0)
(11.8302 -0.0748089 0)
(11.7881 -0.0942761 0)
(11.9735 -0.127796 0)
(11.8518 -0.0879645 0)
(11.9886 -0.110924 0)
(11.8591 -0.18091 0)
(11.934 -0.162544 0)
(11.7301 -0.234113 0)
(11.7065 -0.292961 0)
(11.3815 -0.454165 0)
(10.0643 -0.535713 0)
(10.5159 -0.551435 0)
(11.1728 -0.280562 0)
(11.269 -0.214253 0)
(11.4567 -0.159962 0)
(11.493 -0.194665 0)
(11.6627 -0.16666 0)
(11.5861 -0.129688 0)
(11.7599 -0.131895 0)
(11.6586 -0.122739 0)
(11.7657 -0.0820577 0)
(11.6754 -0.101034 0)
(11.7478 -0.124522 0)
(11.5888 -0.0882806 0)
(11.6603 -0.110148 0)
(11.4317 -0.165396 0)
(11.4417 -0.157231 0)
(11.1659 -0.210629 0)
(11.0454 -0.279316 0)
(10.6277 -0.389383 0)
(10.0248 -0.611721 0)
(10.6261 -0.588529 0)
(11.2969 -0.303492 0)
(11.3373 -0.237241 0)
(11.5327 -0.188346 0)
(11.512 -0.205497 0)
(11.5664 -0.171088 0)
(11.4596 -0.134763 0)
(11.4987 -0.132476 0)
(11.2951 -0.116141 0)
(11.3343 -0.0814669 0)
(11.1544 -0.0941567 0)
(11.1228 -0.110474 0)
(10.9272 -0.0813989 0)
(10.929 -0.0968539 0)
(10.636 -0.144906 0)
(10.5972 -0.138206 0)
(10.2673 -0.184086 0)
(10.0894 -0.243034 0)
(9.60415 -0.31971 0)
(10.013 -0.697827 0)
(10.7831 -0.625214 0)
(11.3798 -0.335311 0)
(11.3144 -0.263481 0)
(11.3813 -0.208298 0)
(11.1785 -0.199522 0)
(11.0577 -0.159569 0)
(10.843 -0.123643 0)
(10.7302 -0.114435 0)
(10.454 -0.09725 0)
(10.4261 -0.0690312 0)
(10.192 -0.0763865 0)
(10.1039 -0.0898295 0)
(9.89615 -0.0675968 0)
(9.85109 -0.078111 0)
(9.53854 -0.118844 0)
(9.46469 -0.114227 0)
(9.11301 -0.152151 0)
(8.89803 -0.194828 0)
(8.37177 -0.267222 0)
(10.0833 -0.809522 0)
(10.8764 -0.662743 0)
(11.1907 -0.358404 0)
(10.8419 -0.264101 0)
(10.6308 -0.192446 0)
(10.2229 -0.164298 0)
(9.95944 -0.126618 0)
(9.67134 -0.0956769 0)
(9.47596 -0.0846822 0)
(9.18968 -0.0722921 0)
(9.12551 -0.0510231 0)
(8.88428 -0.0551855 0)
(8.77644 -0.0675343 0)
(8.57633 -0.0513096 0)
(8.50462 -0.0575076 0)
(8.20497 -0.0908791 0)
(8.10511 -0.088421 0)
(7.76143 -0.114831 0)
(7.51917 -0.150622 0)
(7.01216 -0.195361 0)
(10.1627 -0.949976 0)
(10.5428 -0.664464 0)
(10.3039 -0.331277 0)
(9.59776 -0.215278 0)
(9.16296 -0.140937 0)
(8.66869 -0.111377 0)
(8.36364 -0.0850331 0)
(8.06991 -0.0629984 0)
(7.86094 -0.0540153 0)
(7.60706 -0.0478684 0)
(7.52983 -0.0327599 0)
(7.31639 -0.0349217 0)
(7.2106 -0.0462153 0)
(7.02996 -0.0347596 0)
(6.95139 -0.0373443 0)
(6.68613 -0.0634594 0)
(6.57128 -0.0614895 0)
(6.25702 -0.0787194 0)
(6.01559 -0.103888 0)
(5.53697 -0.133642 0)
(9.85657 -1.02312 0)
(9.33103 -0.575246 0)
(8.50555 -0.241556 0)
(7.60809 -0.133397 0)
(7.123 -0.077968 0)
(6.67679 -0.0595252 0)
(6.40899 -0.0467262 0)
(6.15816 -0.0335125 0)
(5.98346 -0.0279765 0)
(5.78372 -0.0267895 0)
(5.71231 -0.0169645 0)
(5.54886 -0.018011 0)
(5.45779 -0.0272866 0)
(5.30702 -0.0196867 0)
(5.2386 -0.0197767 0)
(5.02264 -0.0381462 0)
(4.90614 -0.0361896 0)
(4.64376 -0.045513 0)
(4.4257 -0.0604062 0)
(4.01067 -0.0805787 0)
(8.59804 -0.872304 0)
(6.94249 -0.382769 0)
(5.82909 -0.121521 0)
(5.03629 -0.0527574 0)
(4.6695 -0.0265042 0)
(4.36578 -0.0208776 0)
(4.18176 -0.0179122 0)
(4.00771 -0.011779 0)
(3.89398 -0.00948459 0)
(3.76227 -0.0108443 0)
(3.70944 -0.0056733 0)
(3.60827 -0.005989 0)
(3.54113 -0.0121409 0)
(3.43193 -0.00790447 0)
(3.38533 -0.00669851 0)
(3.23434 -0.0171046 0)
(3.13445 -0.0155034 0)
(2.9478 -0.0186419 0)
(2.77985 -0.0250381 0)
(2.48051 -0.0362322 0)
(5.32759 -0.309488 0)
(2.98278 -0.0606172 0)
(2.20263 0.00177398 0)
(1.84126 0.00305092 0)
(1.7104 0.00168483 0)
(1.60784 0.000316742 0)
(1.53912 -0.000680305 0)
(1.47245 0.000398995 0)
(1.43578 0.000380277 0)
(1.38706 -0.000884488 0)
(1.36387 0.000373887 0)
(1.33323 0.000493598 0)
(1.30401 -0.00149499 0)
(1.25433 -0.000292166 0)
(1.23873 0.000733526 0)
(1.17851 -0.00189201 0)
(1.12483 -0.00102475 0)
(1.04708 -0.000729639 0)
(0.97326 -0.00158653 0)
(0.850466 0.000797111 0)
(1.18033 0.395969 0)
(2.35869 -0.00872689 0)
(2.64878 -0.171356 0)
(2.96318 -0.216613 0)
(2.6562 0.0196846 0)
(3.42579 0.000601162 0)
(3.53316 -0.122444 0)
(3.72943 0.275809 0)
(4.67038 1.08528 0)
(5.93386 1.24264 0)
(6.8637 0.745612 0)
(7.19224 0.433814 0)
(7.66524 0.177855 0)
(8.41734 -0.353383 0)
(8.89189 -0.722738 0)
(9.58087 -1.14831 0)
(10.1072 -1.79931 0)
(10.7006 -2.37432 0)
(11.3834 -2.99302 0)
(11.8447 -3.61206 0)
(11.9439 -3.82284 0)
(12.3327 -4.08635 0)
(12.9895 -4.51405 0)
(13.5283 -4.9083 0)
(13.7965 -5.30763 0)
(13.85 -5.71381 0)
(13.3378 -5.84343 0)
(12.7803 -5.55871 0)
(12.5541 -5.53898 0)
(12.3115 -5.42031 0)
(12.081 -5.03044 0)
(11.8347 -4.90618 0)
(11.4821 -4.31228 0)
(11.2054 -3.88187 0)
(10.969 -3.60449 0)
(10.5324 -2.7628 0)
(10.3587 -2.43247 0)
(9.96579 -2.24692 0)
(9.59171 -1.35156 0)
(9.39812 -1.03992 0)
(8.56304 -1.14454 0)
(8.39069 -0.661326 0)
(8.04838 -0.0312538 0)
(7.45375 -0.353873 0)
(7.55365 -0.646274 0)
(7.58254 0.233044 0)
(7.24337 1.13828 0)
(6.70649 0.684438 0)
(6.70988 0.28505 0)
(6.48167 0.691075 0)
(6.38262 0.385879 0)
(5.85825 0.278383 0)
(6.21271 1.57731 0)
(7.12576 4.16001 0)
(7.94705 7.08417 0)
(8.79186 8.9901 0)
(9.06777 9.74382 0)
(8.87509 9.7317 0)
(8.50172 9.28102 0)
(8.19619 8.52862 0)
(7.89565 7.57043 0)
(7.70214 6.46763 0)
(7.45472 5.25409 0)
(7.1958 3.8586 0)
(6.90059 2.18732 0)
(6.61677 0.298783 0)
(6.37741 -1.55339 0)
(6.25822 -3.04588 0)
(6.20959 -4.34333 0)
(5.83563 -5.89913 0)
(5.49746 -7.19026 0)
(5.71408 -7.67937 0)
(5.97116 -8.10511 0)
(5.88776 -8.62537 0)
(5.98333 -8.34608 0)
(6.35219 -6.89212 0)
(6.63236 -5.62015 0)
(6.55927 -5.7254 0)
(6.3619 -6.71448 0)
(6.17963 -7.7127 0)
(6.08307 -8.37563 0)
(5.84167 -8.68016 0)
(5.69519 -8.92792 0)
(5.50556 -9.30945 0)
(5.30273 -9.40018 0)
(5.49582 -8.49546 0)
(5.37788 -7.71545 0)
(5.40079 -7.63552 0)
(5.86553 -6.51964 0)
(6.2244 -4.78034 0)
(5.89568 -3.46997 0)
(6.364 -1.83344 0)
(6.86215 -0.359839 0)
(7.4346 0.904637 0)
(8.01068 2.96417 0)
(8.16652 4.72586 0)
(7.94231 5.23046 0)
(8.25733 6.28051 0)
(9.03165 8.24306 0)
(8.89349 9.42084 0)
(8.43793 9.23967 0)
(7.88857 8.65584 0)
(7.9634 8.65521 0)
(8.47009 9.23998 0)
(9.06938 9.67914 0)
(9.44177 9.68179 0)
(9.38606 9.38923 0)
(9.44487 8.79627 0)
(9.05342 8.00946 0)
(8.63822 7.04895 0)
(8.27014 5.89005 0)
(7.41523 4.8003 0)
(7.33512 3.74357 0)
(6.81461 2.88332 0)
(6.81839 1.95991 0)
(6.55979 1.36765 0)
(6.56579 1.12249 0)
(6.68046 0.799894 0)
(6.76249 0.550891 0)
(6.8734 0.125549 0)
(7.35255 -0.244085 0)
(7.2852 -0.218823 0)
(7.37681 -0.289637 0)
(7.55157 -0.580389 0)
(7.70557 -0.997116 0)
(7.7481 -1.35647 0)
(8.06477 -1.40898 0)
(7.99684 -1.16105 0)
(7.88041 -1.4049 0)
(7.95878 -1.80564 0)
(7.75483 -1.88088 0)
(7.10579 -2.13628 0)
(6.97426 -2.22122 0)
(6.81222 -2.53468 0)
(6.88252 -2.8058 0)
(6.9039 -2.78888 0)
(6.99072 -3.20804 0)
(6.97956 -3.76933 0)
(7.00212 -3.81275 0)
(6.64349 -3.83287 0)
(6.61694 -3.62089 0)
(6.24433 -3.34914 0)
(6.20474 -2.89388 0)
(5.74246 -2.14752 0)
(5.52673 -1.79453 0)
(5.34552 -1.81965 0)
(5.42983 -2.68956 0)
(5.49137 -3.73486 0)
(5.67261 -4.61678 0)
(5.47297 -5.52043 0)
(5.61253 -6.58894 0)
(5.68614 -6.93034 0)
(5.93895 -7.21034 0)
(5.79435 -8.02083 0)
(5.99055 -8.48069 0)
(6.07657 -8.1199 0)
(6.15914 -7.08607 0)
(6.27108 -6.25976 0)
(6.51424 -5.46128 0)
(7.00751 -4.4167 0)
(7.24936 -3.26143 0)
(7.48445 -1.7326 0)
(7.7641 -0.12255 0)
(7.82761 1.23067 0)
(7.64729 2.27327 0)
(7.88987 3.18387 0)
(7.79894 4.29077 0)
(7.81426 5.3766 0)
(8.03924 6.23162 0)
(7.95486 7.07367 0)
(7.89564 7.82537 0)
(7.82907 8.13568 0)
(8.20035 8.26758 0)
(8.4585 8.36262 0)
(8.53804 8.24607 0)
(8.81145 7.50076 0)
(8.85268 6.6779 0)
(8.86713 5.93483 0)
(8.29523 4.94694 0)
(7.82703 3.89838 0)
(7.66154 3.33269 0)
(7.06501 3.2207 0)
(6.58319 3.27061 0)
(6.92931 3.52951 0)
(6.72572 3.49966 0)
(6.19446 3.33024 0)
(6.2415 3.49716 0)
(6.36181 3.82476 0)
(5.79905 3.89808 0)
(5.40078 4.16721 0)
(5.46855 4.41735 0)
(4.80649 4.65377 0)
(4.53475 4.49614 0)
(4.24916 5.41483 0)
(4.28375 5.37211 0)
(3.87451 4.92748 0)
(5.37093 2.00929 0)
(2.75148 2.00037 0)
(3.68393 0.787662 0)
(2.59322 3.00223 0)
(3.4739 0.160063 0)
(4.20837 -0.122396 0)
(4.47648 -0.225727 0)
(4.81233 -0.295816 0)
(4.58659 -0.145859 0)
(5.09669 -0.0653599 0)
(5.47233 -0.101302 0)
(5.1446 0.0778604 0)
(5.51592 0.672684 0)
(6.61293 0.830778 0)
(7.70793 0.503747 0)
(8.12119 0.363033 0)
(8.60583 0.0340825 0)
(9.38345 -0.546013 0)
(9.79507 -0.933094 0)
(10.5916 -1.36893 0)
(11.237 -2.017 0)
(11.9363 -2.63634 0)
(12.5687 -3.15325 0)
(12.9357 -3.65882 0)
(13.1273 -3.88226 0)
(13.476 -4.18177 0)
(13.9487 -4.66474 0)
(14.0824 -5.02241 0)
(13.9228 -5.26746 0)
(13.6943 -5.53652 0)
(13.2602 -5.68244 0)
(12.8095 -5.44899 0)
(12.6799 -5.43336 0)
(12.4996 -5.35938 0)
(12.2522 -4.92638 0)
(12.057 -4.79071 0)
(11.7169 -4.21294 0)
(11.4629 -3.76418 0)
(11.2419 -3.51684 0)
(10.8122 -2.66037 0)
(10.6144 -2.29073 0)
(10.1411 -2.08283 0)
(9.68005 -1.21261 0)
(9.57038 -0.86296 0)
(8.76319 -0.948517 0)
(8.55389 -0.544371 0)
(8.1383 0.15066 0)
(7.57861 -0.214435 0)
(7.60441 -0.69607 0)
(7.61474 0.291833 0)
(7.45516 1.35815 0)
(6.91401 0.770369 0)
(6.9583 0.306492 0)
(6.74335 0.775214 0)
(6.66677 0.563243 0)
(6.02986 0.280607 0)
(6.27181 1.34925 0)
(7.14718 3.76774 0)
(8.05187 6.69081 0)
(8.98927 8.77506 0)
(9.38816 9.74094 0)
(9.26722 9.85486 0)
(8.9312 9.42548 0)
(8.63613 8.65524 0)
(8.34541 7.67764 0)
(8.16895 6.56439 0)
(7.96976 5.36827 0)
(7.74906 3.99627 0)
(7.50075 2.31931 0)
(7.24823 0.414457 0)
(7.00596 -1.47834 0)
(6.82415 -3.00865 0)
(6.76604 -4.24418 0)
(6.44215 -5.75691 0)
(6.02763 -7.16821 0)
(6.12697 -7.74741 0)
(6.37761 -8.13272 0)
(6.27006 -8.64424 0)
(6.26782 -8.43567 0)
(6.53189 -6.99429 0)
(6.73744 -5.63262 0)
(6.60762 -5.63371 0)
(6.35569 -6.62239 0)
(6.13134 -7.64398 0)
(6.01096 -8.29412 0)
(5.71813 -8.59087 0)
(5.53197 -8.84839 0)
(5.31969 -9.22941 0)
(5.06127 -9.36126 0)
(5.20016 -8.50233 0)
(5.07691 -7.74895 0)
(5.0391 -7.63676 0)
(5.39771 -6.62724 0)
(5.74927 -4.81218 0)
(5.42776 -3.45368 0)
(5.82625 -2.06257 0)
(6.35229 -0.645765 0)
(7.01112 0.756706 0)
(7.58375 2.83031 0)
(7.71142 4.67051 0)
(7.54786 5.20131 0)
(7.80314 6.13244 0)
(8.67916 8.1109 0)
(8.64456 9.44345 0)
(8.28071 9.42806 0)
(7.7362 8.79298 0)
(7.76137 8.54925 0)
(8.2116 8.99476 0)
(8.8793 9.43668 0)
(9.45905 9.52702 0)
(9.60768 9.37091 0)
(9.7882 8.85999 0)
(9.5713 8.13725 0)
(9.22682 7.2641 0)
(8.93415 6.15267 0)
(8.11141 5.01274 0)
(7.93337 3.88088 0)
(7.4509 2.96036 0)
(7.42459 2.02333 0)
(7.12606 1.40587 0)
(7.32556 1.08101 0)
(7.24356 0.818462 0)
(7.13125 0.565043 0)
(7.38111 0.00972863 0)
(7.53171 -0.294951 0)
(7.29864 -0.223118 0)
(7.51682 -0.334738 0)
(7.5084 -0.591795 0)
(7.69088 -1.06767 0)
(7.88003 -1.43571 0)
(8.02158 -1.43359 0)
(7.886 -1.13408 0)
(7.91913 -1.41037 0)
(7.88672 -1.75222 0)
(7.52797 -1.71719 0)
(7.00835 -2.00991 0)
(7.121 -2.21374 0)
(7.12035 -2.52087 0)
(7.19931 -2.81859 0)
(7.13838 -2.81975 0)
(7.17549 -3.19185 0)
(7.08756 -3.75861 0)
(7.01002 -3.75446 0)
(6.53529 -3.71793 0)
(6.46874 -3.52912 0)
(6.12633 -3.26381 0)
(6.07457 -2.765 0)
(5.6497 -2.02439 0)
(5.44938 -1.70405 0)
(5.29373 -1.83087 0)
(5.38491 -2.72635 0)
(5.40989 -3.78427 0)
(5.58985 -4.60782 0)
(5.38487 -5.50671 0)
(5.49521 -6.6239 0)
(5.4892 -6.98687 0)
(5.79013 -7.26136 0)
(5.55374 -8.01904 0)
(5.69216 -8.48791 0)
(5.74761 -8.14818 0)
(5.78066 -7.16722 0)
(5.9652 -6.32242 0)
(6.09094 -5.57114 0)
(6.50866 -4.50877 0)
(6.79264 -3.34724 0)
(7.19076 -1.92066 0)
(7.27525 -0.187771 0)
(7.05606 1.30882 0)
(7.55975 2.24406 0)
(7.5211 2.99153 0)
(7.29185 4.18804 0)
(7.36615 5.46061 0)
(7.39234 6.466 0)
(7.41624 7.22427 0)
(7.28428 7.91086 0)
(7.59128 8.17914 0)
(7.67798 8.22949 0)
(8.18321 8.3911 0)
(8.05934 8.16056 0)
(8.53929 7.42828 0)
(8.47454 6.65374 0)
(8.68781 6.01585 0)
(8.08133 5.18906 0)
(7.74248 3.99053 0)
(7.36888 3.48455 0)
(7.36352 3.45042 0)
(6.71625 3.31701 0)
(6.29559 3.44047 0)
(6.90894 3.70002 0)
(6.34633 3.43679 0)
(5.80124 3.46638 0)
(6.35462 3.81108 0)
(6.17801 4.1691 0)
(5.35452 4.27324 0)
(5.61171 4.29944 0)
(5.43587 5.05175 0)
(5.13086 4.42782 0)
(3.96735 5.41955 0)
(4.60305 5.1073 0)
(4.1939 4.66724 0)
(5.58084 2.15318 0)
(3.59978 2.40789 0)
(3.38412 0.897745 0)
(3.48011 3.07073 0)
(5.6497 0.0112868 0)
(6.11731 -0.155956 0)
(6.26837 -0.287133 0)
(6.54705 -0.391182 0)
(6.50422 -0.272903 0)
(6.71324 -0.170985 0)
(7.16768 -0.188392 0)
(7.06762 0.00788689 0)
(7.24333 0.52548 0)
(8.05168 0.509335 0)
(8.80206 0.158822 0)
(9.23223 0.0876239 0)
(9.97318 -0.306651 0)
(10.6129 -0.74757 0)
(11.0639 -1.16905 0)
(12.0002 -1.65199 0)
(12.4601 -2.14452 0)
(12.9972 -2.76666 0)
(13.6378 -3.27632 0)
(13.7804 -3.73258 0)
(13.8598 -3.95764 0)
(14.0136 -4.27636 0)
(14.2509 -4.74373 0)
(14.0529 -5.03552 0)
(13.7505 -5.20599 0)
(13.4807 -5.38342 0)
(13.2358 -5.55161 0)
(12.9081 -5.38982 0)
(12.7606 -5.36125 0)
(12.5827 -5.27759 0)
(12.256 -4.85698 0)
(12.1252 -4.73031 0)
(11.8059 -4.16181 0)
(11.6318 -3.6565 0)
(11.4365 -3.4335 0)
(11.0051 -2.54367 0)
(10.8424 -2.13427 0)
(10.2945 -1.90403 0)
(9.76027 -1.06892 0)
(9.63258 -0.666381 0)
(8.87326 -0.729838 0)
(8.71311 -0.390784 0)
(8.2146 0.358385 0)
(7.71008 -0.0648421 0)
(7.57887 -0.745713 0)
(7.58767 0.331826 0)
(7.59556 1.50658 0)
(7.05745 0.85695 0)
(7.10596 0.295326 0)
(6.98233 0.841501 0)
(7.00786 0.735785 0)
(6.30864 0.327732 0)
(6.39666 1.15553 0)
(7.20743 3.3711 0)
(8.13119 6.25141 0)
(9.14486 8.51001 0)
(9.6834 9.69499 0)
(9.66291 9.94435 0)
(9.36357 9.55267 0)
(9.06218 8.77706 0)
(8.77021 7.78212 0)
(8.59078 6.65358 0)
(8.42702 5.4651 0)
(8.24868 4.11092 0)
(8.05797 2.43634 0)
(7.85946 0.529304 0)
(7.61814 -1.38915 0)
(7.37114 -2.95413 0)
(7.27274 -4.15287 0)
(7.00688 -5.60939 0)
(6.55844 -7.12043 0)
(6.54773 -7.79308 0)
(6.77094 -8.13784 0)
(6.65256 -8.63242 0)
(6.56112 -8.47337 0)
(6.72038 -7.05268 0)
(6.83689 -5.61618 0)
(6.65424 -5.52909 0)
(6.34559 -6.50358 0)
(6.08326 -7.56559 0)
(5.91947 -8.19176 0)
(5.57857 -8.46859 0)
(5.35916 -8.76375 0)
(5.10173 -9.12244 0)
(4.82123 -9.30104 0)
(4.89242 -8.49292 0)
(4.7781 -7.76611 0)
(4.66697 -7.64991 0)
(4.91609 -6.69821 0)
(5.30455 -4.87029 0)
(5.05026 -3.43761 0)
(5.3108 -2.23513 0)
(5.8264 -0.934852 0)
(6.55323 0.550537 0)
(7.12084 2.67258 0)
(7.19562 4.60315 0)
(7.11455 5.1705 0)
(7.33462 5.98639 0)
(8.28701 7.93354 0)
(8.36885 9.41324 0)
(8.11305 9.5763 0)
(7.57843 8.92324 0)
(7.56438 8.4878 0)
(7.95891 8.75589 0)
(8.62548 9.13481 0)
(9.39502 9.30244 0)
(9.73784 9.27671 0)
(10.0694 8.85291 0)
(10.0296 8.1989 0)
(9.80517 7.4328 0)
(9.63845 6.37347 0)
(8.87769 5.24446 0)
(8.61177 4.04358 0)
(8.17497 3.04658 0)
(7.93038 2.12029 0)
(7.74069 1.38011 0)
(7.98788 1.05268 0)
(7.6675 0.905007 0)
(7.77493 0.538971 0)
(7.92423 -0.0228763 0)
(7.62048 -0.219254 0)
(7.50005 -0.245353 0)
(7.6873 -0.337788 0)
(7.4697 -0.573936 0)
(7.74782 -1.1852 0)
(7.91772 -1.48837 0)
(7.88669 -1.38255 0)
(7.83508 -1.1122 0)
(7.94382 -1.41261 0)
(7.71171 -1.68024 0)
(7.36813 -1.54079 0)
(7.17336 -1.96704 0)
(7.46581 -2.27976 0)
(7.48417 -2.51371 0)
(7.47416 -2.8262 0)
(7.35181 -2.80653 0)
(7.34379 -3.16278 0)
(7.17899 -3.67083 0)
(6.99285 -3.64201 0)
(6.40318 -3.58026 0)
(6.2965 -3.43477 0)
(5.98398 -3.20803 0)
(5.91413 -2.64535 0)
(5.5544 -1.91683 0)
(5.3599 -1.62033 0)
(5.25888 -1.82841 0)
(5.34517 -2.76569 0)
(5.33705 -3.81805 0)
(5.54012 -4.6004 0)
(5.33422 -5.50351 0)
(5.41014 -6.61706 0)
(5.33611 -7.04525 0)
(5.62957 -7.28084 0)