/*--------------------------------*- C++ -*----------------------------------*\
| =========                 |                                                 |
| \\      /  F ield         | OpenFOAM: The Open Source CFD Toolbox           |
|  \\    /   O peration     | Version:  2.4.0                                 |
|   \\  /    A nd           | Web:      www.OpenFOAM.org                      |
|    \\/     M anipulation  |                                                 |
\*---------------------------------------------------------------------------*/
FoamFile
{
    version     2.0;
    format      ascii;
    class       surfaceScalarField;
    location    "0.123";
    object      phi;
}
// * * * * * * * * * * * * * * * * * * * * * * * * * * * * * * * * * * * * * //

dimensions      [0 3 -1 0 0 0 0];

internalField   nonuniform List<scalar> 
8640
(
1.14667e-05
1.35333e-05
7.17457e-06
4.29209e-06
5.91594e-06
1.25863e-06
5.3695e-06
5.46445e-07
5.09151e-06
2.77994e-07
4.92719e-06
1.64319e-07
4.81446e-06
1.12728e-07
4.69798e-06
1.16479e-07
4.46672e-06
2.31263e-07
-1.25585e-06
5.72256e-06
2.10494e-05
1.7484e-05
1.74541e-05
7.88733e-06
1.55112e-05
3.20162e-06
1.42554e-05
1.80216e-06
1.3481e-05
1.05246e-06
1.30022e-05
6.43069e-07
1.26726e-05
4.42338e-07
1.24471e-05
3.41986e-07
1.20973e-05
5.81103e-07
-1.30635e-06
1.21478e-05
2.56959e-05
1.6788e-05
2.41089e-05
9.47438e-06
2.26088e-05
4.70165e-06
2.12375e-05
3.17348e-06
2.02227e-05
2.06727e-06
1.95298e-05
1.33602e-06
1.90527e-05
9.19397e-07
1.87625e-05
6.32161e-07
1.82661e-05
1.07751e-06
-1.34209e-06
1.83019e-05
2.7454e-05
1.4334e-05
2.77423e-05
9.18613e-06
2.73701e-05
5.07384e-06
2.65263e-05
4.01728e-06
2.5666e-05
2.92754e-06
2.49503e-05
2.05174e-06
2.44315e-05
1.43823e-06
2.41546e-05
9.09025e-07
2.35637e-05
1.66843e-06
-1.102e-06
2.33236e-05
2.76478e-05
1.16862e-05
2.89101e-05
7.92387e-06
2.96169e-05
4.36702e-06
2.96776e-05
3.95663e-06
2.94208e-05
3.18432e-06
2.89775e-05
2.49502e-06
2.86071e-05
1.80858e-06
2.84204e-05
1.09574e-06
2.80242e-05
2.06466e-06
-3.13048e-07
2.72352e-05
2.74848e-05
9.20139e-06
2.89371e-05
6.47156e-06
3.00399e-05
3.26427e-06
3.06939e-05
3.30259e-06
3.11645e-05
2.71373e-06
3.12062e-05
2.4533e-06
3.12336e-05
1.78122e-06
3.12325e-05
1.09682e-06
3.1221e-05
2.07617e-06
5.92875e-07
3.03151e-05
2.73616e-05
6.83979e-06
2.88383e-05
4.99483e-06
2.99446e-05
2.15803e-06
3.07001e-05
2.54703e-06
3.14865e-05
1.92735e-06
3.18413e-05
2.09845e-06
3.22368e-05
1.38575e-06
3.24172e-05
9.16421e-07
3.27814e-05
1.71201e-06
1.41228e-06
3.1962e-05
2.73209e-05
4.51892e-06
2.89588e-05
3.35691e-06
2.97511e-05
1.36574e-06
3.05555e-05
1.74257e-06
3.13989e-05
1.08396e-06
3.19305e-05
1.56683e-06
3.23754e-05
9.40872e-07
3.26049e-05
6.8693e-07
3.32149e-05
1.10203e-06
6.10643e-07
3.40165e-05
2.72834e-05
2.23553e-06
2.89381e-05
1.70223e-06
2.96391e-05
6.64734e-07
3.04966e-05
8.85014e-07
3.12815e-05
2.99134e-07
3.18735e-05
9.74753e-07
3.22736e-05
5.40818e-07
3.2618e-05
3.42559e-07
3.33123e-05
4.07755e-07
-2.58895e-07
3.41818e-05
2.7214e-05
2.15716e-08
2.893e-05
-1.38417e-08
2.96751e-05
-8.03326e-08
3.04735e-05
8.66376e-08
3.11474e-05
-3.74813e-07
3.17369e-05
3.85286e-07
3.22636e-05
1.40775e-08
3.27408e-05
-1.34608e-07
3.33616e-05
-2.13077e-07
-9.26053e-07
3.40288e-05
2.72129e-05
-2.19138e-06
2.8967e-05
-1.76785e-06
2.9682e-05
-7.95382e-07
3.04648e-05
-6.96184e-07
3.11048e-05
-1.01475e-06
3.17139e-05
-2.2386e-07
3.22754e-05
-5.47407e-07
3.28037e-05
-6.62894e-07
3.33065e-05
-7.15944e-07
-1.38226e-06
3.37628e-05
2.72632e-05
-4.45458e-06
2.89838e-05
-3.48846e-06
2.96913e-05
-1.50284e-06
3.04822e-05
-1.48707e-06
3.11325e-05
-1.66509e-06
3.17736e-05
-8.64955e-07
3.23171e-05
-1.09091e-06
3.28378e-05
-1.18364e-06
3.32663e-05
-1.14439e-06
-1.69383e-06
3.35778e-05
2.73402e-05
-6.79483e-06
2.89845e-05
-5.1327e-06
2.97189e-05
-2.23728e-06
3.05314e-05
-2.29949e-06
3.12285e-05
-2.36228e-06
3.18739e-05
-1.51029e-06
3.23698e-05
-1.58683e-06
3.282e-05
-1.63386e-06
3.3176e-05
-1.50037e-06
-2.02812e-06
3.35103e-05
2.74119e-05
-9.20674e-06
2.88483e-05
-6.56911e-06
2.98153e-05
-3.20427e-06
3.06792e-05
-3.16336e-06
3.13476e-05
-3.03074e-06
3.18879e-05
-2.05058e-06
3.22745e-05
-1.97335e-06
3.25288e-05
-1.88825e-06
3.27087e-05
-1.68018e-06
-2.42562e-06
3.31062e-05
2.74943e-05
-1.17011e-05
2.88831e-05
-7.95784e-06
2.99745e-05
-4.29568e-06
3.07235e-05
-3.91239e-06
3.10809e-05
-3.38816e-06
3.12709e-05
-2.24052e-06
3.12896e-05
-1.99207e-06
3.11585e-05
-1.75718e-06
3.10584e-05
-1.5801e-06
-2.65231e-06
3.12851e-05
2.7642e-05
-1.43431e-05
2.88793e-05
-9.1951e-06
2.96135e-05
-5.02991e-06
2.97071e-05
-4.00597e-06
2.93716e-05
-3.05267e-06
2.90286e-05
-1.89754e-06
2.86368e-05
-1.60018e-06
2.82209e-05
-1.3413e-06
2.7939e-05
-1.29823e-06
-1.95525e-06
2.7242e-05
2.74513e-05
-1.67944e-05
2.77295e-05
-9.47329e-06
2.73812e-05
-4.68168e-06
2.65416e-05
-3.16636e-06
2.5632e-05
-2.14307e-06
2.49881e-05
-1.25367e-06
2.44219e-05
-1.0339e-06
2.39435e-05
-8.62912e-07
2.35875e-05
-9.42266e-07
-1.30576e-06
2.2938e-05
2.56939e-05
-1.74883e-05
2.41033e-05
-7.88267e-06
2.26183e-05
-3.19662e-06
2.12459e-05
-1.79397e-06
2.0199e-05
-1.0962e-06
1.95515e-05
-6.06136e-07
1.90191e-05
-5.01485e-07
1.8603e-05
-4.46822e-07
1.81858e-05
-5.25102e-07
-6.39284e-07
1.75193e-05
2.10467e-05
-1.3535e-05
1.74532e-05
-4.28916e-06
1.5516e-05
-1.25939e-06
1.4263e-05
-5.41022e-07
1.34629e-05
-2.96073e-07
1.30098e-05
-1.52999e-07
1.26387e-05
-1.30418e-07
1.23335e-05
-1.41629e-07
1.19681e-05
-1.59757e-07
-1.98273e-07
1.15271e-05
1.1465e-05
7.17579e-06
5.91641e-06
5.37538e-06
5.07931e-06
4.92631e-06
4.79589e-06
4.65426e-06
4.49451e-06
4.29623e-06
6.17126e-06
-1.31032e-07
-3.17666e-07
6.40342e-06
5.87272e-07
-8.19426e-07
6.83493e-06
6.79331e-07
-1.11085e-06
8.39725e-06
1.77936e-06
-3.34168e-06
1.06609e-05
4.02994e-06
-6.29356e-06
1.34829e-05
6.85116e-06
-9.6732e-06
1.65111e-05
5.58387e-06
-8.61203e-06
1.85026e-05
3.33917e-06
-5.33066e-06
1.88199e-05
9.35616e-07
-1.25293e-06
1.84916e-05
-2.67353e-06
3.00185e-06
1.9612e-05
-7.75848e-06
6.638e-06
2.06691e-05
-8.44498e-06
7.3879e-06
2.14256e-05
-1.08413e-05
1.00848e-05
2.40219e-05
-1.51161e-05
1.25198e-05
2.51768e-05
-1.95438e-05
1.83889e-05
2.49294e-05
-2.44968e-05
2.47441e-05
2.45863e-05
-2.76792e-05
2.80223e-05
2.18661e-05
-2.46481e-05
2.73683e-05
1.9455e-05
-1.91266e-05
2.15377e-05
1.75323e-05
-1.39168e-05
1.58395e-05
1.62442e-05
-5.90493e-06
7.19295e-06
1.65529e-05
7.64157e-06
-7.95027e-06
1.84066e-05
1.35188e-05
-1.53724e-05
1.97269e-05
1.96244e-05
-2.09448e-05
2.04876e-05
2.13178e-05
-2.20785e-05
2.11264e-05
1.80604e-05
-1.86992e-05
2.20768e-05
1.33936e-05
-1.43441e-05
2.29575e-05
7.41084e-06
-8.29147e-06
2.384e-05
1.45298e-06
-2.33547e-06
2.5021e-05
-7.97825e-06
6.79718e-06
2.52771e-05
-1.47383e-05
1.44822e-05
2.65332e-05
-2.12733e-05
2.00173e-05
2.81098e-05
-3.45143e-05
3.29377e-05
2.81428e-05
-4.673e-05
4.6697e-05
2.69802e-05
-5.42243e-05
5.53869e-05
2.3457e-05
-5.4472e-05
5.79952e-05
1.85818e-05
-4.5943e-05
5.08182e-05
1.54737e-05
-3.81787e-05
4.12869e-05
1.50152e-05
-4.32549e-05
4.37134e-05
1.70419e-05
-4.04465e-05
3.84198e-05
1.91853e-05
-3.69723e-05
3.48289e-05
1.89259e-05
-2.38132e-05
2.40726e-05
1.79079e-05
-1.55705e-05
1.65885e-05
1.79145e-05
-6.46731e-06
6.46077e-06
1.92609e-05
5.38743e-06
-6.73391e-06
2.03142e-05
1.75017e-05
-1.8555e-05
2.12587e-05
2.56204e-05
-2.65649e-05
2.08439e-05
3.36371e-05
-3.32222e-05
2.06282e-05
3.25534e-05
-3.23377e-05
1.93642e-05
3.09865e-05
-2.97225e-05
1.82511e-05
3.15432e-05
-3.04301e-05
1.79093e-05
3.07773e-05
-3.04355e-05
1.6671e-05
2.24557e-05
-2.12174e-05
1.62601e-05
2.12065e-05
-2.07956e-05
1.67624e-05
2.34315e-05
-2.39339e-05
1.64324e-05
3.00496e-05
-2.97196e-05
1.7933e-05
3.34103e-05
-3.49109e-05
1.84629e-05
3.99043e-05
-4.04342e-05
1.9596e-05
3.18287e-05
-3.29618e-05
2.12577e-05
2.96775e-05
-3.13391e-05
2.21653e-05
2.06444e-05
-2.15521e-05
2.31944e-05
1.0391e-05
-1.14201e-05
2.34401e-05
-4.96419e-06
4.71852e-06
2.3222e-05
-1.36461e-05
1.38641e-05
2.33742e-05
-2.56282e-05
2.5476e-05
2.31116e-05
-3.59262e-05
3.61888e-05
2.21123e-05
-4.49664e-05
4.59657e-05
2.08622e-05
-4.37388e-05
4.49889e-05
1.91414e-05
-3.98141e-05
4.15349e-05
1.67794e-05
-2.93787e-05
3.17407e-05
1.36609e-05
-2.31375e-05
2.62561e-05
8.98098e-06
-4.14499e-07
5.09438e-06
8.95336e-06
-2.83611e-06
2.86373e-06
1.11882e-05
-4.02689e-06
1.79205e-06
1.62327e-05
-2.27345e-05
1.769e-05
1.81331e-05
-1.35258e-05
1.16254e-05
2.09123e-05
-1.27476e-05
9.96843e-06
2.15071e-05
-6.60633e-06
6.01154e-06
2.3271e-05
-5.33943e-06
3.57548e-06
2.50867e-05
4.97826e-07
-2.31351e-06
2.61061e-05
7.84595e-06
-8.86536e-06
2.576e-05
1.37232e-05
-1.3377e-05
2.50687e-05
2.0079e-05
-1.93877e-05
2.45669e-05
2.53763e-05
-2.48745e-05
2.41498e-05
2.82424e-05
-2.78252e-05
2.29351e-05
2.85518e-05
-2.73371e-05
2.09125e-05
2.66831e-05
-2.46604e-05
1.91786e-05
2.35519e-05
-2.1818e-05
1.79425e-05
1.90482e-05
-1.78121e-05
1.5974e-05
1.62671e-05
-1.42986e-05
1.55872e-05
1.18196e-05
-1.14328e-05
1.42425e-05
1.45996e-05
-1.32548e-05
1.39747e-05
1.44853e-05
-1.42175e-05
1.17358e-05
2.21875e-05
-1.99487e-05
1.2235e-05
1.74565e-05
-1.79556e-05
1.07615e-05
2.5676e-05
-2.42025e-05
8.78351e-06
2.13648e-05
-1.93868e-05
8.54819e-06
2.28477e-05
-2.26124e-05
9.84222e-06
1.22341e-05
-1.35281e-05
2.22376e-05
-2.042e-05
8.02464e-06
1.1939e-05
7.76895e-08
1.20321e-05
4.94167e-07
1.20618e-05
6.49724e-07
1.25636e-05
1.27755e-06
1.41715e-05
2.42204e-06
1.60531e-05
4.96948e-06
1.76641e-05
3.97293e-06
1.93397e-05
1.66354e-06
2.0773e-05
-4.97666e-07
2.1283e-05
-3.18348e-06
2.22516e-05
-8.72715e-06
2.3853e-05
-1.00463e-05
2.47779e-05
-1.17662e-05
2.70296e-05
-1.73679e-05
2.80958e-05
-2.061e-05
2.73237e-05
-2.37246e-05
2.67608e-05
-2.71163e-05
2.40243e-05
-2.19116e-05
2.13366e-05
-1.64389e-05
2.00924e-05
-1.26726e-05
1.8381e-05
-4.1935e-06
1.87114e-05
7.31119e-06
2.01448e-05
1.20854e-05
2.15074e-05
1.82619e-05
2.25788e-05
2.02464e-05
2.29972e-05
1.7642e-05
2.3806e-05
1.25848e-05
2.43344e-05
6.88246e-06
2.52048e-05
5.826e-07
2.62565e-05
-9.02995e-06
2.64009e-05
-1.48827e-05
2.76288e-05
-2.25012e-05
2.85963e-05
-3.54818e-05
2.80304e-05
-4.61641e-05
2.59137e-05
-5.21076e-05
2.14685e-05
-5.00268e-05
1.64265e-05
-4.0901e-05
1.36418e-05
-3.53941e-05
1.40927e-05
-4.37058e-05
1.69131e-05
-4.3267e-05
1.84104e-05
-3.84696e-05
1.83087e-05
-2.37114e-05
1.69438e-05
-1.42056e-05
1.59639e-05
-5.48746e-06
1.68195e-05
4.53191e-06
1.78283e-05
1.64929e-05
1.89561e-05
2.44927e-05
1.88457e-05
3.37475e-05
1.91081e-05
3.22909e-05
1.82352e-05
3.18595e-05
1.71997e-05
3.25787e-05
1.72628e-05
3.07142e-05
1.62226e-05
2.34959e-05
1.57627e-05
2.16664e-05
1.68141e-05
2.23801e-05
1.67064e-05
3.01573e-05
1.84321e-05
3.16845e-05
1.92444e-05
3.9092e-05
2.03558e-05
3.07173e-05
2.22087e-05
2.78245e-05
2.33875e-05
1.94656e-05
2.45087e-05
9.26981e-06
2.43162e-05
-4.77174e-06
2.40716e-05
-1.34015e-05
2.40902e-05
-2.56468e-05
2.34506e-05
-3.52866e-05
2.22256e-05
-4.37414e-05
2.0408e-05
-4.19212e-05
1.81458e-05
-3.75518e-05
1.52917e-05
-2.65247e-05
1.16225e-05
-1.94683e-05
7.63178e-06
3.57623e-06
8.79505e-06
-3.99938e-06
1.22749e-05
-7.50677e-06
1.63045e-05
-2.67641e-05
1.7434e-05
-1.46553e-05
1.98827e-05
-1.51964e-05
1.96639e-05
-6.38753e-06
2.18218e-05
-7.49734e-06
2.32463e-05
-9.26679e-07
2.51162e-05
5.97605e-06
2.53587e-05
1.34807e-05
2.45937e-05
2.0844e-05
2.37214e-05
2.62486e-05
2.29195e-05
2.90443e-05
2.19723e-05
2.94989e-05
2.07081e-05
2.79473e-05
1.87847e-05
2.54753e-05
1.80167e-05
1.98162e-05
1.61302e-05
1.81535e-05
1.63356e-05
1.16142e-05
1.43747e-05
1.65605e-05
1.41941e-05
1.46659e-05
1.35781e-05
2.28036e-05
1.34627e-05
1.75719e-05
1.32016e-05
2.5937e-05
1.25678e-05
2.19987e-05
1.08963e-05
2.45192e-05
1.44871e-05
8.6433e-06
2.14397e-05
1.52849e-05
1.80028e-05
3.76779e-07
1.77151e-05
7.81834e-07
1.79516e-05
4.13224e-07
1.81535e-05
1.0757e-06
1.89005e-05
1.67501e-06
2.05749e-05
3.29509e-06
2.1935e-05
2.61283e-06
2.27235e-05
8.75037e-07
2.38765e-05
-1.65072e-06
2.50758e-05
-4.38271e-06
2.61852e-05
-9.83661e-06
2.78918e-05
-1.17529e-05
2.88522e-05
-1.27267e-05
3.02018e-05
-1.87174e-05
3.0695e-05
-2.11032e-05
2.94691e-05
-2.24987e-05
2.81067e-05
-2.57539e-05
2.53883e-05
-1.91932e-05
2.28732e-05
-1.39239e-05
2.20811e-05
-1.18805e-05
2.01838e-05
-2.2962e-06
2.02033e-05
7.29165e-06
2.13045e-05
1.09842e-05
2.27815e-05
1.67849e-05
2.40724e-05
1.89555e-05
2.46062e-05
1.71081e-05
2.53679e-05
1.18231e-05
2.56976e-05
6.55271e-06
2.66773e-05
-3.9705e-07
2.74416e-05
-9.79431e-06
2.7523e-05
-1.49641e-05
2.85332e-05
-2.35114e-05
2.8824e-05
-3.57726e-05
2.75778e-05
-4.49179e-05
2.45884e-05
-4.91182e-05
1.94541e-05
-4.48925e-05
1.42436e-05
-3.56905e-05
1.20237e-05
-3.31741e-05
1.31613e-05
-4.48434e-05
1.54996e-05
-4.56054e-05
1.5464e-05
-3.8434e-05
1.58779e-05
-2.41254e-05
1.53928e-05
-1.37204e-05
1.40241e-05
-4.11876e-06
1.45091e-05
4.04688e-06
1.55754e-05
1.54265e-05
1.67813e-05
2.32868e-05
1.69943e-05
3.35345e-05
1.74528e-05
3.18324e-05
1.70464e-05
3.22659e-05
1.61882e-05
3.34369e-05
1.63071e-05
3.05952e-05
1.58422e-05
2.39609e-05
1.52736e-05
2.2235e-05
1.66003e-05
2.10534e-05
1.68861e-05
2.98716e-05
1.87578e-05
2.98128e-05
2.05173e-05
3.73326e-05
2.17343e-05
2.95003e-05
2.33275e-05
2.62314e-05
2.42831e-05
1.851e-05
2.54345e-05
8.11848e-06
2.50439e-05
-4.38113e-06
2.48781e-05
-1.32357e-05
2.44371e-05
-2.52058e-05
2.35487e-05
-3.43983e-05
2.22268e-05
-4.24194e-05
1.96837e-05
-3.93781e-05
1.68582e-05
-3.47264e-05
1.3815e-05
-2.34815e-05
1.02653e-05
-1.59186e-05
8.05543e-06
5.7861e-06
9.37465e-06
-5.31859e-06
1.34335e-05
-1.15656e-05
1.61487e-05
-2.94793e-05
1.65256e-05
-1.50322e-05
1.84401e-05
-1.71108e-05
1.74917e-05
-5.43912e-06
1.99385e-05
-9.94422e-06
2.08121e-05
-1.80024e-06
2.35606e-05
3.2276e-06
2.43643e-05
1.26769e-05
2.38636e-05
2.13447e-05
2.31141e-05
2.69981e-05
2.19227e-05
3.02358e-05
2.08148e-05
3.06068e-05
2.03156e-05
2.84465e-05
1.82741e-05
2.75168e-05
1.8281e-05
1.98093e-05
1.63145e-05
2.01201e-05
1.6608e-05
1.13207e-05
1.54628e-05
1.77057e-05
1.48128e-05
1.53158e-05
1.53417e-05
2.22747e-05
1.47457e-05
1.81679e-05
1.37172e-05
2.69655e-05
1.61865e-05
1.95294e-05
1.43571e-05
2.63486e-05
1.54421e-05
7.55824e-06
1.82685e-05
1.86133e-05
2.34131e-05
2.8727e-07
2.32169e-05
9.77986e-07
2.33311e-05
2.99089e-07
2.37681e-05
6.387e-07
2.42423e-05
1.20082e-06
2.52439e-05
2.29349e-06
2.65334e-05
1.32328e-06
2.7515e-05
-1.06525e-07
2.83335e-05
-2.46922e-06
2.93246e-05
-5.37382e-06
2.9978e-05
-1.04901e-05
3.1167e-05
-1.29418e-05
3.20825e-05
-1.36423e-05
3.24908e-05
-1.91257e-05
3.23372e-05
-2.09496e-05
3.11541e-05
-2.13156e-05
2.91385e-05
-2.37382e-05
2.63566e-05
-1.64113e-05
2.41609e-05
-1.17281e-05
2.33057e-05
-1.10253e-05
2.16228e-05
-6.13306e-07
2.12502e-05
7.66425e-06
2.1716e-05
1.05184e-05
2.33014e-05
1.51996e-05
2.47683e-05
1.74886e-05
2.58142e-05
1.60622e-05
2.67521e-05
1.08852e-05
2.70901e-05
6.2147e-06
2.81276e-05
-1.43454e-06
2.84286e-05
-1.00953e-05
2.84041e-05
-1.49396e-05
2.90737e-05
-2.41811e-05
2.87368e-05
-3.54357e-05
2.67507e-05
-4.29317e-05
2.28782e-05
-4.52457e-05
1.7294e-05
-3.93083e-05
1.217e-05
-3.05665e-05
1.05988e-05
-3.1603e-05
1.13954e-05
-4.56399e-05
1.22081e-05
-4.64181e-05
1.11929e-05
-3.74188e-05
1.18659e-05
-2.47983e-05
1.30089e-05
-1.48634e-05
1.21201e-05
-3.22996e-06
1.24484e-05
3.71853e-06
1.34461e-05
1.44288e-05
1.45218e-05
2.2211e-05
1.5185e-05
3.28714e-05
1.58004e-05
3.1217e-05
1.57421e-05
3.23242e-05
1.52291e-05
3.39499e-05
1.54205e-05
3.04039e-05
1.54897e-05
2.38917e-05
1.46632e-05
2.30615e-05
1.62556e-05
1.9461e-05
1.69231e-05
2.9204e-05
1.84127e-05
2.83232e-05
2.12912e-05
3.4454e-05
2.27612e-05
2.80304e-05
2.40112e-05
2.49813e-05
2.49266e-05
1.75946e-05
2.59645e-05
7.08061e-06
2.5399e-05
-3.81571e-06
2.53219e-05
-1.31585e-05
2.4799e-05
-2.46829e-05
2.38032e-05
-3.34024e-05
2.20638e-05
-4.06801e-05
1.89335e-05
-3.62478e-05
1.58014e-05
-3.15942e-05
1.2975e-05
-2.06551e-05
9.89195e-06
-1.28356e-05
9.94524e-06
5.73281e-06
1.06699e-05
-6.04322e-06
1.41694e-05
-1.50652e-05
1.56822e-05
-3.0992e-05
1.56019e-05
-1.49519e-05
1.66754e-05
-1.81843e-05
1.5278e-05
-4.04174e-06
1.75983e-05
-1.22645e-05
1.8164e-05
-2.366e-06
2.2112e-05
-7.20382e-07
2.28014e-05
1.19876e-05
2.27755e-05
2.13706e-05
2.21809e-05
2.75927e-05
2.11218e-05
3.12949e-05
1.95146e-05
3.22139e-05
2.00025e-05
2.79586e-05
1.79624e-05
2.95569e-05
1.80705e-05
1.97012e-05
1.72815e-05
2.09091e-05
1.71472e-05
1.1455e-05
1.66248e-05
1.82281e-05
1.60885e-05
1.58522e-05
1.62922e-05
2.2071e-05
1.77237e-05
1.67364e-05
1.51702e-05
2.95191e-05
1.69051e-05
1.77944e-05
1.77105e-05
2.55433e-05
1.69804e-05
8.28834e-06
1.55317e-05
1.97173e-05
2.73155e-05
2.06998e-07
2.74948e-05
7.98669e-07
2.77862e-05
7.67162e-09
2.82778e-05
1.4715e-07
2.88449e-05
6.33747e-07
2.97268e-05
1.41159e-06
3.05934e-05
4.56651e-07
3.14555e-05
-9.68601e-07
3.21931e-05
-3.20688e-06
3.3144e-05
-6.32472e-06
3.32896e-05
-1.06356e-05
3.36136e-05
-1.32658e-05
3.42775e-05
-1.43062e-05
3.37615e-05
-1.86097e-05
3.27456e-05
-1.99337e-05
3.14268e-05
-1.99968e-05
2.8978e-05
-2.12894e-05
2.66113e-05
-1.40446e-05
2.51266e-05
-1.02434e-05
2.38706e-05
-9.76932e-06
2.2496e-05
7.61272e-07
2.19557e-05
8.20452e-06
2.19818e-05
1.04924e-05
2.35308e-05
1.36506e-05
2.50046e-05
1.60148e-05
2.66533e-05
1.44135e-05
2.77665e-05
9.77193e-06
2.82056e-05
5.7756e-06
2.91941e-05
-2.42298e-06
2.90855e-05
-9.98671e-06
2.8982e-05
-1.48361e-05
2.93022e-05
-2.45013e-05
2.83194e-05
-3.44528e-05
2.56129e-05
-4.02253e-05
2.1139e-05
-4.07718e-05
1.5176e-05
-3.33453e-05
1.0099e-05
-2.54896e-05
8.79237e-06
-3.02963e-05
8.72438e-06
-4.5572e-05
8.8335e-06
-4.65272e-05
8.08264e-06
-3.66679e-05
8.8826e-06
-2.55982e-05
1.06438e-05
-1.66246e-05
1.01632e-05
-2.74936e-06
1.01306e-05
3.75107e-06
1.10302e-05
1.35292e-05
1.23846e-05
2.08566e-05
1.3709e-05
3.1547e-05
1.43873e-05
3.05387e-05
1.47349e-05
3.19766e-05
1.46049e-05
3.40799e-05
1.45999e-05
3.04089e-05
1.52117e-05
2.32798e-05
1.39559e-05
2.43173e-05
1.53682e-05
1.80487e-05
1.71008e-05
2.74714e-05
1.79645e-05
2.74596e-05
2.11346e-05
3.12839e-05
2.29055e-05
2.62595e-05
2.40413e-05
2.38456e-05
2.52851e-05
1.63507e-05
2.62308e-05
6.13488e-06
2.57253e-05
-3.31019e-06
2.56296e-05
-1.30628e-05
2.47767e-05
-2.38299e-05
2.34924e-05
-3.21182e-05
2.10023e-05
-3.819e-05
1.73812e-05
-3.26267e-05
1.4573e-05
-2.8786e-05
1.21733e-05
-1.82554e-05
1.03121e-05
-1.09743e-05
1.15693e-05
4.47557e-06
1.1422e-05
-5.89597e-06
1.35196e-05
-1.71628e-05
1.39781e-05
-3.14505e-05
1.43377e-05
-1.53115e-05
1.49508e-05
-1.87974e-05
1.36079e-05
-2.69893e-06
1.5107e-05
-1.37635e-05
1.53056e-05
-2.56455e-06
2.01908e-05
-5.60561e-06
2.05737e-05
1.16046e-05
2.18439e-05
2.01004e-05
2.10402e-05
2.83964e-05
2.08634e-05
3.14717e-05
1.86189e-05
3.44584e-05
1.9519e-05
2.70585e-05
1.86178e-05
3.04581e-05
1.80978e-05
2.02213e-05
1.80641e-05
2.09428e-05
1.79137e-05
1.16054e-05
1.69927e-05
1.9149e-05
1.81235e-05
1.47213e-05
1.73089e-05
2.28857e-05
1.96269e-05
1.44184e-05
1.81944e-05
3.09515e-05
1.81282e-05
1.78606e-05
1.99286e-05
2.37428e-05
1.93113e-05
8.90568e-06
1.389e-05
2.09529e-05
3.03651e-05
1.57005e-07
3.06868e-05
4.76951e-07
3.10045e-05
-3.10033e-07
3.15109e-05
-3.59298e-07
3.19775e-05
1.67229e-07
3.28276e-05
5.61412e-07
3.38169e-05
-5.32646e-07
3.43858e-05
-1.53742e-06
3.48098e-05
-3.63096e-06
3.55385e-05
-7.05341e-06
3.52121e-05
-1.03091e-05
3.48698e-05
-1.29235e-05
3.5172e-05
-1.46085e-05
3.41764e-05
-1.7614e-05
3.2769e-05
-1.85263e-05
3.13345e-05
-1.85624e-05
2.85984e-05
-1.85533e-05
2.67785e-05
-1.22247e-05
2.58369e-05
-9.30183e-06
2.39098e-05
-7.84225e-06
2.27011e-05
1.96999e-06
2.24328e-05
8.47287e-06
2.26252e-05
1.02999e-05
2.38465e-05
1.24293e-05
2.52003e-05
1.46609e-05
2.72423e-05
1.23715e-05
2.83275e-05
8.68668e-06
2.89817e-05
5.12139e-06
2.97899e-05
-3.23117e-06
2.93369e-05
-9.53366e-06
2.9178e-05
-1.46772e-05
2.91638e-05
-2.44871e-05
2.75588e-05
-3.28479e-05
2.42236e-05
-3.68901e-05
1.92426e-05
-3.57908e-05
1.30953e-05
-2.7198e-05
8.44551e-06
-2.08398e-05
7.08137e-06
-2.89322e-05
6.19383e-06
-4.46844e-05
6.86229e-06
-4.71957e-05
7.30551e-06
-3.71112e-05
8.17231e-06
-2.6465e-05
8.86001e-06
-1.73123e-05
8.19287e-06
-2.08222e-06
7.95155e-06
3.99239e-06
8.67257e-06
1.28082e-05
1.01254e-05
1.94038e-05
1.21661e-05
2.95062e-05
1.28685e-05
2.98363e-05
1.35391e-05
3.1306e-05
1.38836e-05
3.37355e-05
1.36213e-05
3.06712e-05
1.46691e-05
2.2232e-05
1.35371e-05
2.54493e-05
1.43147e-05
1.72711e-05
1.72425e-05
2.45437e-05
1.78882e-05
2.68138e-05
2.06293e-05
2.85428e-05
2.24906e-05
2.43982e-05
2.37892e-05
2.2547e-05
2.55204e-05
1.46195e-05
2.61255e-05
5.52979e-06
2.56921e-05
-2.87682e-06
2.56405e-05
-1.30112e-05
2.48971e-05
-2.30866e-05
2.3425e-05
-3.06461e-05
2.0444e-05
-3.52089e-05
1.71789e-05
-2.93617e-05
1.40708e-05
-2.56779e-05
1.12458e-05
-1.54304e-05
1.00894e-05
-9.81792e-06
1.11771e-05
3.38788e-06
1.09303e-05
-5.6492e-06
1.10532e-05
-1.72857e-05
1.0887e-05
-3.12843e-05
1.25502e-05
-1.69747e-05
1.3261e-05
-1.95082e-05
1.21805e-05
-1.6184e-06
1.26949e-05
-1.42779e-05
1.25387e-05
-2.4084e-06
1.73701e-05
-1.0437e-05
1.78209e-05
1.11538e-05
2.08618e-05
1.70595e-05
1.91871e-05
3.00711e-05
2.02564e-05
3.04025e-05
1.86297e-05
3.60851e-05
1.89274e-05
2.67608e-05
1.92425e-05
3.0143e-05
1.88241e-05
2.06396e-05
1.83128e-05
2.14542e-05
1.8986e-05
1.09321e-05
1.75679e-05
2.05671e-05
1.98527e-05
1.24366e-05
1.89374e-05
2.3801e-05
2.01122e-05
1.32436e-05
2.05538e-05
3.05099e-05
2.00975e-05
1.83169e-05
2.16596e-05
2.21807e-05
2.15272e-05
9.03814e-06
1.25994e-05
2.28179e-05
3.2097e-05
2.19772e-08
3.27728e-05
-1.98849e-07
3.3058e-05
-5.95221e-07
3.34003e-05
-7.01644e-07
3.39163e-05
-3.48767e-07
3.44277e-05
4.99983e-08
3.53908e-05
-1.49571e-06
3.59252e-05
-2.07185e-06
3.61448e-05
-3.85055e-06
3.65227e-05
-7.43133e-06
3.57374e-05
-9.52381e-06
3.53004e-05
-1.24865e-05
3.51879e-05
-1.4496e-05
3.39435e-05
-1.63697e-05
3.27004e-05
-1.72832e-05
3.12033e-05
-1.70653e-05
2.88412e-05
-1.61912e-05
2.77513e-05
-1.11347e-05
2.67123e-05
-8.26282e-06
2.40621e-05
-5.19204e-06
2.2964e-05
3.06809e-06
2.31457e-05
8.29113e-06
2.35734e-05
9.8722e-06
2.42635e-05
1.17392e-05
2.5504e-05
1.34204e-05
2.7473e-05
1.04026e-05
2.83869e-05
7.77272e-06
2.9326e-05
4.18235e-06
2.97464e-05
-3.65159e-06
2.90245e-05
-8.81176e-06
2.90035e-05
-1.46562e-05
2.8709e-05
-2.41926e-05
2.6456e-05
-3.05949e-05
2.26454e-05
-3.30795e-05
1.73793e-05
-3.05247e-05
1.11094e-05
-2.09281e-05
6.85164e-06
-1.6582e-05
5.48279e-06
-2.75633e-05
4.15999e-06
-4.33616e-05
5.09176e-06
-4.81274e-05
6.45536e-06
-3.84748e-05
7.48689e-06
-2.74966e-05
6.86992e-06
-1.66953e-05
6.18404e-06
-1.39635e-06
6.0511e-06
4.12534e-06
6.48997e-06
1.23694e-05
7.77258e-06
1.81212e-05
1.04678e-05
2.6811e-05
1.13344e-05
2.89697e-05
1.21563e-05
3.04841e-05
1.33523e-05
3.25395e-05
1.28113e-05
3.12122e-05
1.35933e-05
2.14499e-05
1.36324e-05
2.54103e-05
1.38737e-05
1.70297e-05
1.66878e-05
2.17296e-05
1.77626e-05
2.5739e-05
2.0174e-05
2.61314e-05
2.18278e-05
2.27443e-05
2.35265e-05
2.08483e-05
2.55155e-05
1.26304e-05
2.57898e-05
5.25557e-06
2.55994e-05
-2.68649e-06
2.56448e-05
-1.30565e-05
2.47726e-05
-2.22144e-05
2.25027e-05
-2.83762e-05
1.89496e-05
-3.16558e-05
1.60397e-05
-2.64517e-05
1.25205e-05
-2.21588e-05
9.57997e-06
-1.24898e-05
8.24404e-06
-8.48199e-06
9.31122e-06
2.3207e-06
9.71726e-06
-6.05524e-06
7.89977e-06
-1.54682e-05
7.9804e-06
-3.13649e-05
1.13108e-05
-2.03051e-05
1.1984e-05
-2.01815e-05
1.10475e-05
-6.81895e-07
1.12021e-05
-1.44325e-05
9.96631e-06
-1.17256e-06
1.32321e-05
-1.37028e-05
1.45912e-05
9.79476e-06
1.95307e-05
1.212e-05
1.75957e-05
3.20061e-05
1.94095e-05
2.85887e-05
1.89617e-05
3.65329e-05
1.8599e-05
2.71235e-05
1.88734e-05
2.98686e-05
1.96524e-05
1.98606e-05
1.87202e-05
2.23864e-05
2.00266e-05
9.62578e-06
1.85169e-05
2.20767e-05
2.05299e-05
1.04236e-05
2.05021e-05
2.38288e-05
2.05724e-05
1.31733e-05
2.18125e-05
2.92698e-05
2.20014e-05
1.8128e-05
2.36668e-05
2.05153e-05
2.33562e-05
9.34878e-06
1.14958e-05
2.44598e-05
3.34904e-05
5.48076e-07
3.36031e-05
-3.11541e-07
3.37889e-05
-7.81043e-07
3.38333e-05
-7.46044e-07
3.46092e-05
-1.12466e-06
3.49956e-05
-3.36394e-07
3.55885e-05
-2.08857e-06
3.60951e-05
-2.57847e-06
3.6091e-05
-3.84644e-06
3.62182e-05
-7.55852e-06
3.54625e-05
-8.76814e-06
3.51703e-05
-1.21943e-05
3.48784e-05
-1.42041e-05
3.3648e-05
-1.51392e-05
3.29019e-05
-1.65371e-05
3.14314e-05
-1.55948e-05
2.96158e-05
-1.43756e-05
2.90784e-05
-1.05973e-05
2.75695e-05
-6.7539e-06
2.50156e-05
-2.63813e-06
2.41399e-05
3.94376e-06
2.3872e-05
8.55903e-06
2.38818e-05
9.86237e-06
2.42399e-05
1.13812e-05
2.55054e-05
1.21549e-05
2.70818e-05
8.82624e-06
2.79094e-05
6.94514e-06
2.90711e-05
3.02064e-06
2.91723e-05
-3.75287e-06
2.85439e-05
-8.18329e-06
2.8723e-05
-1.48353e-05
2.79538e-05
-2.34233e-05
2.51092e-05
-2.77502e-05
2.0933e-05
-2.89034e-05
1.55341e-05
-2.51258e-05
9.48516e-06
-1.48791e-05
5.45758e-06
-1.25544e-05
3.64319e-06
-2.57489e-05
2.10785e-06
-4.18263e-05
2.36922e-06
-4.83888e-05
3.22543e-06
-3.9331e-05
4.00812e-06
-2.82793e-05
3.42421e-06
-1.61114e-05
3.70636e-06
-1.6785e-06
4.33692e-06
3.49478e-06
4.32212e-06
1.23842e-05
5.36505e-06
1.70783e-05
8.50224e-06
2.36738e-05
9.94483e-06
2.75271e-05
1.04984e-05
2.99305e-05
1.26701e-05
3.03677e-05
1.23088e-05
3.15736e-05
1.22155e-05
2.15432e-05
1.34871e-05
2.41387e-05
1.37412e-05
1.67756e-05
1.56412e-05
1.98297e-05
1.72686e-05
2.41116e-05
1.94191e-05
2.3981e-05
2.09746e-05
2.11888e-05
2.33124e-05
1.85106e-05
2.51555e-05
1.07873e-05
2.5228e-05
5.18304e-06
2.5458e-05
-2.91654e-06
2.56375e-05
-1.3236e-05
2.45412e-05
-2.11181e-05
2.18357e-05
-2.56707e-05
1.84457e-05
-2.82658e-05
1.52549e-05
-2.32609e-05
1.09951e-05
-1.78989e-05
7.93739e-06
-9.43215e-06
6.02896e-06
-6.57356e-06
7.28466e-06
1.06499e-06
8.08661e-06
-6.85719e-06
6.32054e-06
-1.37022e-05
7.39712e-06
-3.24415e-05
1.12017e-05
-2.41097e-05
1.11893e-05
-2.0169e-05
1.02103e-05
2.97094e-07
1.05871e-05
-1.48093e-05
8.26555e-06
1.14895e-06
9.494e-06
-1.49312e-05
1.07697e-05
8.51904e-06
1.62734e-05
6.61637e-06
1.56768e-05
3.26027e-05
1.79739e-05
2.62916e-05
1.90144e-05
3.54924e-05
1.91903e-05
2.69476e-05
1.86234e-05
3.04355e-05
2.03845e-05
1.80995e-05
1.93999e-05
2.33709e-05
2.05946e-05
8.43113e-06
1.94588e-05
2.32125e-05
2.08025e-05
9.07986e-06
2.16231e-05
2.30083e-05
2.1335e-05
1.34614e-05
2.29242e-05
2.76806e-05
2.32521e-05
1.78001e-05
2.53112e-05
1.84562e-05
2.51375e-05
9.52252e-06
1.06317e-05
2.60016e-05
3.36997e-05
1.03015e-06
3.35917e-05
-2.03538e-07
3.37424e-05
-9.31702e-07
3.35332e-05
-5.36869e-07
3.43856e-05
-1.97702e-06
3.48446e-05
-7.95381e-07
3.504e-05
-2.28403e-06
3.56343e-05
-3.17277e-06
3.55434e-05
-3.75547e-06
3.55425e-05
-7.55767e-06
3.53805e-05
-8.60617e-06
3.50356e-05
-1.18493e-05
3.45743e-05
-1.37428e-05
3.36193e-05
-1.41842e-05
3.30494e-05
-1.59672e-05
3.17451e-05
-1.42905e-05
3.03903e-05
-1.30209e-05
2.9769e-05
-9.97605e-06
2.79205e-05
-4.90537e-06
2.62385e-05
-9.56109e-07
2.53194e-05
4.86287e-06
2.40714e-05
9.80705e-06
2.37602e-05
1.01736e-05
2.40119e-05
1.11294e-05
2.52429e-05
1.09239e-05
2.64485e-05
7.62066e-06
2.72482e-05
6.14546e-06
2.84486e-05
1.82023e-06
2.83973e-05
-3.70156e-06
2.80107e-05
-7.79672e-06
2.82017e-05
-1.50264e-05
2.68283e-05
-2.20499e-05
2.34534e-05
-2.43754e-05
1.91234e-05
-2.45734e-05
1.37776e-05
-1.978e-05
8.14368e-06
-9.24515e-06
4.44902e-06
-8.85979e-06
1.91755e-06
-2.32175e-05
-7.65693e-08
-3.98322e-05
-6.14488e-07
-4.78509e-05
-1.07378e-06
-3.88717e-05
-7.45214e-07
-2.86078e-05
-9.12449e-07
-1.59442e-05
1.16292e-06
-3.75386e-06
2.67603e-06
1.98166e-06
2.34015e-06
1.272e-05
3.27761e-06
1.61408e-05
6.12757e-06
2.08238e-05
8.32269e-06
2.5332e-05
8.5134e-06
2.97398e-05
1.13846e-05
2.74965e-05
1.1752e-05
3.12062e-05
1.09002e-05
2.2395e-05
1.26286e-05
2.24103e-05
1.34196e-05
1.59845e-05
1.46728e-05
1.85764e-05
1.6469e-05
2.23154e-05
1.85707e-05
2.18793e-05
2.04686e-05
1.92909e-05
2.30892e-05
1.589e-05
2.45321e-05
9.34446e-06
2.47435e-05
4.97169e-06
2.54145e-05
-3.58764e-06
2.55647e-05
-1.33862e-05
2.39188e-05
-1.94722e-05
2.07558e-05
-2.25077e-05
1.75552e-05
-2.50652e-05
1.43988e-05
-2.01046e-05
1.0384e-05
-1.38841e-05
7.02906e-06
-6.07724e-06
4.93663e-06
-4.48113e-06
6.10388e-06
-1.0225e-07
6.83447e-06
-7.58778e-06
7.58093e-06
-1.44486e-05
8.29184e-06
-3.31524e-05
1.08085e-05
-2.66264e-05
9.73782e-06
-1.90983e-05
9.55843e-06
4.76491e-07
1.01077e-05
-1.53586e-05
7.6804e-06
3.57625e-06
8.09205e-06
-1.53429e-05
8.03873e-06
8.57236e-06
1.25921e-05
2.06299e-06
1.40299e-05
3.11649e-05
1.63067e-05
2.40147e-05
1.80135e-05
3.37856e-05
1.96954e-05
2.52657e-05
1.8677e-05
3.14538e-05
2.07065e-05
1.607e-05
1.96306e-05
2.44468e-05
2.04186e-05
7.64315e-06
2.0219e-05
2.34122e-05
2.09496e-05
8.3492e-06
2.21489e-05
2.1809e-05
2.18865e-05
1.37238e-05
2.41812e-05
2.53859e-05
2.4625e-05
1.73563e-05
2.65355e-05
1.65457e-05
2.66548e-05
9.40322e-06
9.792e-06
2.74945e-05
3.36992e-05
1.35972e-06
3.35231e-05
-2.74167e-08
3.35957e-05
-1.00429e-06
3.33378e-05
-2.79041e-07
3.39972e-05
-2.63636e-06
3.45175e-05
-1.31574e-06
3.45994e-05
-2.36586e-06
3.52285e-05
-3.80189e-06
3.53493e-05
-3.87629e-06
3.52811e-05
-7.48945e-06
3.52445e-05
-8.56956e-06
3.46803e-05
-1.12851e-05
3.42202e-05
-1.32827e-05
3.36965e-05
-1.36606e-05
3.30556e-05
-1.53263e-05
3.19111e-05
-1.31459e-05
3.07367e-05
-1.18466e-05
2.96584e-05
-8.89768e-06
2.78938e-05
-3.14085e-06
2.65956e-05
3.42145e-07
2.5184e-05
6.27441e-06
2.41122e-05
1.08788e-05
2.38753e-05
1.04105e-05
2.37374e-05
1.12673e-05
2.49185e-05
9.74287e-06
2.56821e-05
6.85702e-06
2.64726e-05
5.35495e-06
2.76651e-05
6.27777e-07
2.74873e-05
-3.52381e-06
2.73958e-05
-7.70522e-06
2.74109e-05
-1.50414e-05
2.53899e-05
-2.00289e-05
2.16149e-05
-2.06003e-05
1.72793e-05
-2.02379e-05
1.21548e-05
-1.46554e-05
7.00994e-06
-4.10034e-06
3.79074e-06
-5.64058e-06
8.78224e-07
-2.0305e-05
-1.7655e-06
-3.71884e-05
-2.94434e-06
-4.66721e-05
-3.3571e-06
-3.84589e-05
-3.57526e-06
-2.83897e-05
-3.16137e-06
-1.63581e-05
-6.63881e-07
-6.25135e-06
2.04978e-07
1.1128e-06
7.51692e-07
1.21733e-05
2.28252e-06
1.461e-05
3.84563e-06
1.92607e-05
6.73233e-06
2.24453e-05
6.7169e-06
2.97552e-05
9.57983e-06
2.46336e-05
1.10344e-05
2.97516e-05
1.02719e-05
2.31575e-05