/*--------------------------------*- C++ -*----------------------------------*\
| =========                 |                                                 |
| \\      /  F ield         | OpenFOAM: The Open Source CFD Toolbox           |
|  \\    /   O peration     | Version:  2.4.0                                 |
|   \\  /    A nd           | Web:      www.OpenFOAM.org                      |
|    \\/     M anipulation  |                                                 |
\*---------------------------------------------------------------------------*/
FoamFile
{
    version     2.0;
    format      ascii;
    class       surfaceScalarField;
    location    "0.123";
    object      phi_0;
}
// * * * * * * * * * * * * * * * * * * * * * * * * * * * * * * * * * * * * * //

dimensions      [0 3 -1 0 0 0 0];

internalField   nonuniform List<scalar> 
8640
(
1.14667e-05
1.35333e-05
7.1745e-06
4.29221e-06
5.91602e-06
1.25847e-06
5.36957e-06
5.46459e-07
5.09137e-06
2.78193e-07
4.92756e-06
1.63816e-07
4.81407e-06
1.13486e-07
4.69849e-06
1.15578e-07
4.46948e-06
2.2901e-07
-1.22745e-06
5.69693e-06
2.10494e-05
1.74839e-05
1.7454e-05
7.88768e-06
1.55113e-05
3.20119e-06
1.42556e-05
1.80212e-06
1.34807e-05
1.05306e-06
1.30024e-05
6.42103e-07
1.26732e-05
4.42759e-07
1.24477e-05
3.41028e-07
1.21031e-05
5.73657e-07
-1.23791e-06
1.21135e-05
2.56961e-05
1.67878e-05
2.41086e-05
9.47511e-06
2.26088e-05
4.70098e-06
2.12378e-05
3.17312e-06
2.02223e-05
2.06857e-06
1.95296e-05
1.33484e-06
1.90546e-05
9.17728e-07
1.87612e-05
6.34398e-07
1.82753e-05
1.0596e-06
-1.23991e-06
1.82773e-05
2.74542e-05
1.43336e-05
2.7742e-05
9.18731e-06
2.73698e-05
5.07321e-06
2.65268e-05
4.01615e-06
2.56656e-05
2.92973e-06
2.49493e-05
2.05116e-06
2.44348e-05
1.43217e-06
2.41526e-05
9.16627e-07
2.35666e-05
1.64562e-06
-1.00676e-06
2.33334e-05
2.76483e-05
1.16853e-05
2.89101e-05
7.92551e-06
2.96161e-05
4.36723e-06
2.9678e-05
3.95417e-06
2.94206e-05
3.18717e-06
2.89754e-05
2.4964e-06
2.86109e-05
1.79658e-06
2.84204e-05
1.10719e-06
2.80212e-05
2.04483e-06
-2.22659e-07
2.72371e-05
2.74855e-05
9.19984e-06
2.89383e-05
6.4727e-06
3.00387e-05
3.26684e-06
3.06939e-05
3.29895e-06
3.11645e-05
2.71656e-06
3.12031e-05
2.45784e-06
3.12363e-05
1.76337e-06
3.12332e-05
1.11023e-06
3.12196e-05
2.05846e-06
6.77895e-07
3.03191e-05
2.73615e-05
6.8383e-06
2.88413e-05
4.99291e-06
2.99447e-05
2.16346e-06
3.07e-05
2.54363e-06
3.14865e-05
1.93004e-06
3.18381e-05
2.10628e-06
3.22367e-05
1.36476e-06
3.24166e-05
9.30373e-07
3.2781e-05
1.69399e-06
1.48594e-06
3.1973e-05
2.73212e-05
4.51707e-06
2.89589e-05
3.35528e-06
2.97507e-05
1.37163e-06
3.05584e-05
1.73596e-06
3.14017e-05
1.08672e-06
3.19286e-05
1.57937e-06
3.23698e-05
9.23506e-07
3.26029e-05
6.97345e-07
3.32171e-05
1.07978e-06
6.93617e-07
3.40094e-05
2.72831e-05
2.23395e-06
2.89358e-05
1.70262e-06
2.964e-05
6.67405e-07
3.05e-05
8.7592e-07
3.12829e-05
3.0386e-07
3.18706e-05
9.91632e-07
3.22674e-05
5.26752e-07
3.26221e-05
3.42635e-07
3.33231e-05
3.78832e-07
-1.28287e-07
3.4145e-05
2.72137e-05
2.02181e-08
2.89307e-05
-1.43882e-08
2.96763e-05
-7.812e-08
3.0472e-05
8.01752e-08
3.1145e-05
-3.691e-07
3.17376e-05
3.99028e-07
3.22654e-05
-1.0557e-09
3.27462e-05
-1.38156e-07
3.33649e-05
-2.399e-07
-7.57036e-07
3.39937e-05
2.72138e-05
-2.19359e-06
2.8968e-05
-1.76857e-06
2.96818e-05
-7.91941e-07
3.04621e-05
-7.00159e-07
3.11018e-05
-1.00878e-06
3.17164e-05
-2.15565e-07
3.22796e-05
-5.64255e-07
3.2806e-05
-6.64585e-07
3.33009e-05
-7.34761e-07
-1.216e-06
3.37599e-05
2.7264e-05
-4.45757e-06
2.89838e-05
-3.48837e-06
2.96905e-05
-1.49863e-06
3.048e-05
-1.48967e-06
3.11311e-05
-1.65989e-06
3.17767e-05
-8.61125e-07
3.23204e-05
-1.10798e-06
3.28373e-05
-1.18153e-06
3.32542e-05
-1.15163e-06
-1.5628e-06
3.3601e-05
2.73405e-05
-6.79808e-06
2.89832e-05
-5.13107e-06
2.97177e-05
-2.23311e-06
3.05308e-05
-2.30279e-06
3.12295e-05
-2.3586e-06
3.18765e-05
-1.50814e-06
3.23704e-05
-1.60183e-06
3.28166e-05
-1.62774e-06
3.31646e-05
-1.49966e-06
-1.95944e-06
3.35612e-05
2.74112e-05
-9.20925e-06
2.88467e-05
-6.56662e-06
2.98153e-05
-3.20165e-06
3.06796e-05
-3.16715e-06
3.13488e-05
-3.02777e-06
3.18898e-05
-2.04916e-06
3.22736e-05
-1.98566e-06
3.25248e-05
-1.87892e-06
3.27071e-05
-1.68192e-06
-2.41739e-06
3.3165e-05
2.74932e-05
-1.17025e-05
2.88825e-05
-7.95587e-06
2.99753e-05
-4.29447e-06
3.07236e-05
-3.91545e-06
3.10818e-05
-3.386e-06
3.12722e-05
-2.23954e-06
3.12878e-05
-2.00127e-06
3.11557e-05
-1.74684e-06
3.10646e-05
-1.59079e-06
-2.67257e-06
3.13198e-05
2.76413e-05
-1.43438e-05
2.88794e-05
-9.19395e-06
2.96142e-05
-5.02934e-06
2.97069e-05
-4.00808e-06
2.93722e-05
-3.05131e-06
2.90293e-05
-1.89666e-06
2.86348e-05
-1.60673e-06
2.82206e-05
-1.33266e-06
2.79447e-05
-1.31495e-06
-1.9664e-06
2.72386e-05
2.74509e-05
-1.67947e-05
2.77297e-05
-9.47273e-06
2.73817e-05
-4.68132e-06
2.65413e-05
-3.16768e-06
2.56324e-05
-2.14239e-06
2.49885e-05
-1.2528e-06
2.44202e-05
-1.03841e-06
2.39444e-05
-8.56911e-07
2.35874e-05
-9.57914e-07
-1.30084e-06
2.29218e-05
2.56938e-05
-1.74884e-05
2.41035e-05
-7.88247e-06
2.26186e-05
-3.19637e-06
2.12456e-05
-1.7947e-06
2.01992e-05
-1.09598e-06
1.95517e-05
-6.0539e-07
1.90177e-05
-5.04394e-07
1.86038e-05
-4.42973e-07
1.81814e-05
-5.35561e-07
-6.31353e-07
1.7512e-05
2.10466e-05
-1.35351e-05
1.74533e-05
-4.28914e-06
1.55162e-05
-1.25925e-06
1.42628e-05
-5.41284e-07
1.34629e-05
-2.96087e-07
1.301e-05
-1.52547e-07
1.26375e-05
-1.31804e-07
1.23341e-05
-1.39615e-07
1.19632e-05
-1.64648e-07
-1.95252e-07
1.15271e-05
1.14649e-05
7.1758e-06
5.91654e-06
5.37526e-06
5.07917e-06
4.92663e-06
4.79482e-06
4.65521e-06
4.49056e-06
4.29531e-06
6.16328e-06
-1.16445e-07
-3.49912e-07
6.41197e-06
5.7721e-07
-8.25897e-07
6.86644e-06
6.4956e-07
-1.10403e-06
8.45199e-06
1.77053e-06
-3.35608e-06
1.07021e-05
4.13088e-06
-6.38101e-06
1.35104e-05
6.84423e-06
-9.65254e-06
1.65467e-05
5.48825e-06
-8.52456e-06
1.84892e-05
3.36323e-06
-5.30564e-06
1.87204e-05
8.95548e-07
-1.12679e-06
1.84643e-05
-2.96761e-06
3.22367e-06
1.96938e-05
-7.86022e-06
6.63081e-06
2.06872e-05
-8.30257e-06
7.30908e-06
2.15299e-05
-1.0959e-05
1.01164e-05
2.41231e-05
-1.52366e-05
1.26433e-05
2.50834e-05
-1.97725e-05
1.88122e-05
2.48569e-05
-2.48401e-05
2.50666e-05
2.43948e-05
-2.75479e-05
2.80101e-05
2.15811e-05
-2.43965e-05
2.72101e-05
1.92905e-05
-1.89404e-05
2.1231e-05
1.73679e-05
-1.36425e-05
1.55651e-05
1.61574e-05
-5.20717e-06
6.41773e-06
1.6623e-05
8.23367e-06
-8.69931e-06
1.84687e-05
1.38113e-05
-1.56569e-05
1.97583e-05
1.99723e-05
-2.12619e-05
2.05383e-05
2.12938e-05
-2.20738e-05
2.11546e-05
1.78097e-05
-1.84261e-05
2.21168e-05
1.30807e-05
-1.40428e-05
2.29881e-05
7.13317e-06
-8.00443e-06
2.39008e-05
9.68545e-07
-1.88127e-06
2.50604e-05
-8.40927e-06
7.24962e-06
2.53488e-05
-1.49566e-05
1.46682e-05
2.67066e-05
-2.18976e-05
2.05398e-05
2.82887e-05
-3.55222e-05
3.39402e-05
2.82423e-05
-4.7592e-05
4.76384e-05
2.70098e-05
-5.4571e-05
5.58035e-05
2.34611e-05
-5.45053e-05
5.8054e-05
1.85697e-05
-4.5726e-05
5.06174e-05
1.55535e-05
-3.82014e-05
4.12176e-05
1.50781e-05
-4.31133e-05
4.35887e-05
1.69188e-05
-3.95573e-05
3.77165e-05
1.89922e-05
-3.60629e-05
3.39895e-05
1.86747e-05
-2.32574e-05
2.3575e-05
1.78154e-05
-1.52631e-05
1.61224e-05
1.80402e-05
-5.69694e-06
5.47213e-06
1.94501e-05
6.35705e-06
-7.76687e-06
2.04698e-05
1.81451e-05
-1.91648e-05
2.13268e-05
2.60218e-05
-2.68788e-05
2.08288e-05
3.37174e-05
-3.32194e-05
2.05847e-05
3.20417e-05
-3.17976e-05
1.92664e-05
3.08764e-05
-2.95581e-05
1.81778e-05
3.1592e-05
-3.05034e-05
1.78627e-05
3.02137e-05
-2.98986e-05
1.65758e-05
2.20558e-05
-2.07689e-05
1.62132e-05
2.1326e-05
-2.09633e-05
1.67647e-05
2.38511e-05
-2.44026e-05
1.64361e-05
3.07289e-05
-3.04003e-05
1.7938e-05
3.37698e-05
-3.52716e-05
1.84745e-05
3.99296e-05
-4.04661e-05
1.96233e-05
3.15094e-05
-3.26581e-05
2.12999e-05
2.91822e-05
-3.08589e-05
2.22608e-05
1.99348e-05
-2.08957e-05
2.32433e-05
9.3682e-06
-1.03507e-05
2.34469e-05
-5.80488e-06
5.60133e-06
2.32249e-05
-1.43116e-05
1.45336e-05
2.33898e-05
-2.65011e-05
2.63362e-05
2.31429e-05
-3.67632e-05
3.701e-05
2.20768e-05
-4.52971e-05
4.63633e-05
2.08287e-05
-4.34294e-05
4.46774e-05
1.91163e-05
-3.93113e-05
4.10237e-05
1.66991e-05
-2.8788e-05
3.12052e-05
1.35607e-05
-2.22375e-05
2.53759e-05
8.92757e-06
4.98282e-07
4.13485e-06
9.11551e-06
-3.02633e-06
2.83839e-06
1.14577e-05
-4.67291e-06
2.33075e-06
1.65013e-05
-2.26963e-05
1.76528e-05
1.83444e-05
-1.3363e-05
1.15198e-05
2.10436e-05
-1.25317e-05
9.83246e-06
2.16347e-05
-6.6394e-06
6.04835e-06
2.34181e-05
-5.17423e-06
3.39081e-06
2.52193e-05
8.74366e-07
-2.67559e-06
2.61108e-05
8.23597e-06
-9.12744e-06
2.5708e-05
1.4089e-05
-1.36862e-05
2.50452e-05
2.05227e-05
-1.986e-05
2.44917e-05
2.57255e-05
-2.51719e-05
2.39843e-05
2.83196e-05
-2.78122e-05
2.27102e-05
2.84701e-05
-2.7196e-05
2.06783e-05
2.65172e-05
-2.44853e-05
1.89833e-05
2.32998e-05
-2.16049e-05
1.78136e-05
1.87283e-05
-1.75585e-05
1.5869e-05
1.6067e-05
-1.41223e-05
1.55432e-05
1.17881e-05
-1.14624e-05
1.41525e-05
1.49438e-05
-1.35531e-05
1.3847e-05
1.48902e-05
-1.45847e-05
1.16944e-05
2.24693e-05
-2.03168e-05
1.21809e-05
1.75344e-05
-1.80209e-05
1.07133e-05
2.58724e-05
-2.44048e-05
8.79835e-06
2.11744e-05
-1.92594e-05
8.6087e-06
2.22794e-05
-2.20897e-05
1.00507e-05
1.13873e-05
-1.28292e-05
2.18775e-05
-1.99855e-05
8.15868e-06
1.1924e-05
7.30829e-08
1.20429e-05
4.58298e-07
1.20775e-05
6.14955e-07
1.26073e-05
1.24072e-06
1.42311e-05
2.50707e-06
1.60591e-05
5.01624e-06
1.76546e-05
3.89278e-06
1.93754e-05
1.64244e-06
2.07737e-05
-5.02738e-07
2.12443e-05
-3.43828e-06
2.2285e-05
-8.90089e-06
2.38615e-05
-9.87902e-06
2.48334e-05
-1.19309e-05
2.71439e-05
-1.75471e-05
2.80379e-05
-2.06665e-05
2.72649e-05
-2.40671e-05
2.66544e-05
-2.69374e-05
2.37493e-05
-2.14914e-05
2.1181e-05
-1.63721e-05
1.9954e-05
-1.24155e-05
1.82564e-05
-3.50961e-06
1.87546e-05
7.73554e-06
2.01969e-05
1.23689e-05
2.15454e-05
1.86238e-05
2.25957e-05
2.02434e-05
2.29917e-05
1.74138e-05
2.38099e-05
1.22625e-05
2.43469e-05
6.59615e-06
2.52725e-05
4.29298e-08
2.6295e-05
-9.43175e-06
2.64794e-05
-1.5141e-05
2.78015e-05
-2.32196e-05
2.87458e-05
-3.64665e-05
2.808e-05
-4.69262e-05
2.5899e-05
-5.23901e-05
2.1423e-05
-5.00292e-05
1.63935e-05
-4.06965e-05
1.3685e-05
-3.54928e-05
1.4071e-05
-4.34994e-05
1.68512e-05
-4.23374e-05
1.84611e-05
-3.76728e-05
1.82014e-05
-2.29977e-05
1.68066e-05
-1.38683e-05
1.60058e-05
-4.89617e-06
1.69893e-05
5.3736e-06
1.79989e-05
1.71355e-05
1.90521e-05
2.49685e-05
1.89015e-05
3.38681e-05
1.91022e-05
3.18409e-05
1.81818e-05
3.17969e-05
1.71758e-05
3.2598e-05
1.72169e-05
3.01727e-05
1.61613e-05
2.31114e-05
1.57386e-05
2.17487e-05
1.68268e-05
2.27628e-05
1.67822e-05
3.07735e-05
1.85106e-05
3.20413e-05
1.93995e-05
3.90407e-05
2.05392e-05
3.03697e-05
2.23349e-05
2.73866e-05
2.35012e-05
1.87685e-05
2.45394e-05
8.32996e-06
2.42941e-05
-5.55956e-06
2.40923e-05
-1.41098e-05
2.41448e-05
-2.65535e-05
2.349e-05
-3.61084e-05
2.21794e-05
-4.39865e-05
2.03898e-05
-4.16398e-05
1.81324e-05
-3.70539e-05
1.51908e-05
-2.58464e-05
1.14982e-05
-1.85449e-05
7.64096e-06
4.35552e-06
8.98744e-06
-4.37281e-06
1.24741e-05
-8.15961e-06
1.65092e-05
-2.67314e-05
1.75927e-05
-1.44465e-05
1.99888e-05
-1.49278e-05
1.97754e-05
-6.42599e-06
2.19572e-05
-7.35606e-06
2.34168e-05
-5.85289e-07
2.5169e-05
6.4838e-06
2.53159e-05
1.39421e-05
2.45282e-05
2.13105e-05
2.36251e-05
2.66285e-05
2.27471e-05
2.91976e-05
2.17582e-05
2.9459e-05
2.0538e-05
2.77374e-05
1.86051e-05
2.52328e-05
1.78989e-05
1.94345e-05
1.60685e-05
1.78973e-05
1.62919e-05
1.15647e-05
1.42805e-05
1.69553e-05
1.41096e-05
1.5061e-05
1.36313e-05
2.29477e-05
1.33812e-05
1.77845e-05
1.30949e-05
2.61588e-05
1.27544e-05
2.15148e-05
1.10666e-05
2.39671e-05
1.46379e-05
7.81594e-06
2.10853e-05
1.54301e-05
1.79729e-05
3.77517e-07
1.77156e-05
7.15592e-07
1.79726e-05
3.57887e-07
1.81678e-05
1.04554e-06
1.89506e-05
1.7243e-06
2.06266e-05
3.34022e-06
2.19219e-05
2.59752e-06
2.27023e-05
8.62017e-07
2.39027e-05
-1.70321e-06
2.509e-05
-4.62549e-06
2.62174e-05
-1.00283e-05
2.79157e-05
-1.15774e-05
2.88619e-05
-1.28771e-05
3.02546e-05
-1.89398e-05
3.06124e-05
-2.10243e-05
2.93159e-05
-2.27705e-05
2.79724e-05
-2.55939e-05
2.51613e-05
-1.86803e-05
2.27584e-05
-1.39693e-05
2.19743e-05
-1.16314e-05
2.00391e-05
-1.57442e-06
2.0194e-05
7.58068e-06
2.13268e-05
1.12361e-05
2.28187e-05
1.71319e-05
2.40653e-05
1.89968e-05
2.45974e-05
1.68817e-05
2.53636e-05
1.14963e-05
2.57218e-05
6.23793e-06
2.67481e-05
-9.83305e-07
2.74723e-05
-1.01559e-05
2.76033e-05
-1.5272e-05
2.86895e-05
-2.43058e-05
2.89295e-05
-3.67065e-05
2.75852e-05
-4.55819e-05
2.45336e-05
-4.93385e-05
1.93372e-05
-4.48329e-05
1.41798e-05
-3.55391e-05
1.20188e-05
-3.33318e-05
1.31829e-05
-4.46634e-05
1.56787e-05
-4.48333e-05
1.58193e-05
-3.78133e-05
1.60848e-05
-2.32633e-05
1.53621e-05
-1.31456e-05
1.40457e-05
-3.57974e-06
1.46795e-05
4.73972e-06
1.57675e-05
1.60475e-05
1.69096e-05
2.38264e-05
1.71087e-05
3.3669e-05
1.74809e-05
3.14687e-05
1.70324e-05
3.22454e-05
1.62099e-05
3.34204e-05
1.62869e-05
3.00957e-05
1.58213e-05
2.3577e-05
1.52599e-05
2.23101e-05
1.66321e-05
2.13906e-05
1.69919e-05
3.04137e-05
1.88455e-05
3.01878e-05
2.07408e-05
3.71454e-05
2.19621e-05
2.91483e-05
2.34322e-05
2.59164e-05
2.43666e-05
1.78341e-05
2.54549e-05
7.24174e-06
2.50171e-05
-5.1218e-06
2.48807e-05
-1.39734e-05
2.44437e-05
-2.61166e-05
2.35225e-05
-3.51872e-05
2.21215e-05
-4.25855e-05
1.96057e-05
-3.9124e-05
1.67915e-05
-3.42396e-05
1.36847e-05
-2.27396e-05
1.01767e-05
-1.50369e-05
8.13344e-06
6.39876e-06
9.55434e-06
-5.79371e-06
1.35575e-05
-1.21627e-05
1.62762e-05
-2.94501e-05
1.66215e-05
-1.47918e-05
1.85176e-05
-1.68239e-05
1.75761e-05
-5.48445e-06
2.00877e-05
-9.86767e-06
2.10066e-05
-1.50421e-06
2.36453e-05
3.84509e-06
2.43637e-05
1.32237e-05
2.3804e-05
2.18702e-05
2.30153e-05
2.74173e-05
2.17784e-05
3.04345e-05
2.06265e-05
3.06109e-05
2.01891e-05
2.81748e-05
1.81557e-05
2.72661e-05
1.81868e-05
1.94033e-05
1.62793e-05
1.98049e-05
1.65755e-05
1.12684e-05
1.54271e-05
1.81037e-05
1.4798e-05
1.56901e-05
1.53668e-05
2.23789e-05
1.47378e-05
1.84134e-05
1.3593e-05
2.73036e-05
1.62115e-05
1.88964e-05
1.44782e-05
2.57004e-05
1.54956e-05
6.79858e-06
1.78854e-05
1.86956e-05
2.34145e-05
2.9643e-07
2.32121e-05
9.18038e-07
2.33498e-05
2.20131e-07
2.37881e-05
6.07251e-07
2.42592e-05
1.25321e-06
2.52802e-05
2.31927e-06
2.65719e-05
1.30581e-06
2.75082e-05
-7.42804e-08
2.83252e-05
-2.52027e-06
2.9306e-05
-5.60625e-06
2.9959e-05
-1.06814e-05
3.11989e-05
-1.28173e-05
3.20917e-05
-1.37698e-05
3.2517e-05
-1.93651e-05
3.2327e-05
-2.08343e-05
3.10312e-05
-2.14748e-05
2.89791e-05
-2.35418e-05
2.6166e-05
-1.58672e-05
2.40655e-05
-1.18688e-05
2.32209e-05
-1.07868e-05
2.14838e-05
1.62627e-07
2.11786e-05
7.88593e-06
2.17065e-05
1.07082e-05
2.33519e-05
1.54865e-05
2.47851e-05
1.75636e-05
2.5854e-05
1.58127e-05
2.67728e-05
1.05774e-05
2.71393e-05
5.87144e-06
2.81856e-05
-2.02955e-06
2.84416e-05
-1.0412e-05
2.84886e-05
-1.5319e-05
2.92112e-05
-2.50283e-05
2.87998e-05
-3.62951e-05
2.67084e-05
-4.34905e-05
2.27682e-05
-4.53983e-05
1.71326e-05
-3.91972e-05
1.20998e-05
-3.05063e-05
1.05772e-05
-3.18092e-05
1.15242e-05
-4.56104e-05
1.25145e-05
-4.58236e-05
1.15463e-05
-3.68451e-05
1.2188e-05
-2.3905e-05
1.31095e-05
-1.4067e-05
1.21831e-05
-2.65339e-06
1.26035e-05
4.31934e-06
1.36131e-05
1.50379e-05
1.46759e-05
2.27636e-05
1.53692e-05
3.29758e-05
1.58894e-05
3.09484e-05
1.57963e-05
3.23385e-05
1.53215e-05
3.38953e-05
1.54534e-05
2.99638e-05
1.54991e-05
2.35312e-05
1.46536e-05
2.31557e-05
1.62913e-05
1.97529e-05
1.70454e-05
2.96596e-05
1.84952e-05
2.8738e-05
2.14565e-05
3.4184e-05
2.28864e-05
2.77184e-05
2.40511e-05
2.47517e-05
2.49838e-05
1.69015e-05
2.59675e-05
6.25804e-06
2.53687e-05
-4.52301e-06
2.5344e-05
-1.39486e-05
2.4808e-05
-2.55806e-05
2.37532e-05
-3.41324e-05
2.19931e-05
-4.08255e-05
1.88561e-05
-3.5987e-05
1.56906e-05
-3.1074e-05
1.28142e-05
-1.98632e-05
9.84226e-06
-1.2065e-05
1.00656e-05
6.17538e-06
1.07949e-05
-6.52294e-06
1.42968e-05
-1.56647e-05
1.58412e-05
-3.09945e-05
1.56494e-05
-1.46e-05
1.67075e-05
-1.78819e-05
1.53255e-05
-4.10245e-06
1.77575e-05
-1.22997e-05
1.83647e-05
-2.11146e-06
2.22191e-05
-9.23995e-09
2.28412e-05
1.26015e-05
2.2729e-05
2.19824e-05
2.20932e-05
2.80531e-05
2.1053e-05
3.14746e-05
1.94019e-05
3.22621e-05
1.99421e-05
2.76346e-05
1.79389e-05
2.92694e-05
1.80234e-05
1.93188e-05
1.72785e-05
2.05498e-05
1.71059e-05
1.1441e-05
1.65781e-05
1.86315e-05
1.61601e-05
1.61082e-05
1.63184e-05
2.22206e-05
1.77697e-05
1.69621e-05
1.51458e-05
2.99275e-05
1.68673e-05
1.71749e-05
1.77872e-05
2.47805e-05
1.69987e-05
7.58708e-06
1.51449e-05
1.97392e-05
2.73256e-05
2.07876e-07
2.75153e-05
7.28409e-07
2.78132e-05
-7.78565e-08
2.83063e-05
1.14179e-07
2.88776e-05
6.81976e-07
2.97442e-05
1.45264e-06
3.06094e-05
4.40577e-07
3.1464e-05
-9.28905e-07
3.22072e-05
-3.26345e-06
3.3122e-05
-6.52103e-06
3.32189e-05
-1.07782e-05
3.36201e-05
-1.32185e-05
3.42685e-05
-1.44183e-05
3.37078e-05
-1.88044e-05
3.27271e-05
-1.98535e-05
3.13395e-05
-2.00872e-05
2.88589e-05
-2.10612e-05
2.65258e-05
-1.3534e-05
2.50574e-05
-1.04004e-05
2.37677e-05
-9.4971e-06
2.23892e-05
1.54112e-06
2.18646e-05
8.41048e-06
2.19922e-05
1.05806e-05
2.36163e-05
1.38625e-05
2.50895e-05
1.60904e-05
2.67645e-05
1.41377e-05
2.78138e-05
9.52816e-06
2.82747e-05
5.41053e-06
2.92406e-05
-2.99541e-06
2.90905e-05
-1.02619e-05
2.90767e-05
-1.53052e-05
2.9413e-05
-2.53646e-05
2.83313e-05
-3.52135e-05
2.55254e-05
-4.06846e-05
2.09692e-05
-4.08421e-05
1.496e-05
-3.3188e-05
9.98329e-06
-2.55296e-05
8.77471e-06
-3.06007e-05
8.884e-06
-4.57197e-05
8.96808e-06
-4.59077e-05
8.08833e-06
-3.59653e-05
8.97403e-06
-2.47907e-05
1.07482e-05
-1.58412e-05
1.02512e-05
-2.1564e-06
1.02541e-05
4.31646e-06
1.1188e-05
1.4104e-05
1.25817e-05
2.13699e-05
1.39421e-05
3.16155e-05
1.45216e-05
3.03689e-05
1.48394e-05
3.20207e-05
1.47296e-05
3.4005e-05
1.46543e-05
3.00391e-05
1.52273e-05
2.29582e-05
1.39537e-05
2.44293e-05
1.54125e-05
1.8294e-05
1.72485e-05
2.78236e-05
1.80831e-05
2.79034e-05
2.12445e-05
3.10227e-05
2.29384e-05
2.60245e-05
2.40711e-05
2.3619e-05
2.53584e-05
1.56142e-05
2.62304e-05
5.38609e-06
2.57023e-05
-3.99488e-06
2.56389e-05
-1.38853e-05
2.47409e-05
-2.46826e-05
2.338e-05
-3.27715e-05
2.08822e-05
-3.83276e-05
1.72238e-05
-3.23286e-05
1.44276e-05
-2.82778e-05
1.20728e-05
-1.75085e-05
1.0297e-05
-1.02892e-05
1.16646e-05
4.80779e-06
1.14879e-05
-6.34621e-06
1.37525e-05
-1.79293e-05
1.42961e-05
-3.15382e-05
1.44153e-05
-1.47193e-05
1.49742e-05
-1.84408e-05
1.36138e-05
-2.74198e-06
1.52207e-05
-1.39066e-05
1.54911e-05
-2.3818e-06
2.03516e-05
-4.86981e-06
2.06438e-05
1.23094e-05
2.1841e-05
2.07851e-05
2.09764e-05
2.89177e-05
2.08509e-05
3.16002e-05
1.86376e-05
3.44754e-05
1.95292e-05
2.67429e-05
1.86655e-05
3.01331e-05
1.81183e-05
1.98659e-05
1.80586e-05
2.06095e-05
1.78715e-05
1.16281e-05
1.69424e-05
1.95607e-05
1.82391e-05
1.48114e-05
1.73675e-05
2.30922e-05
1.96256e-05
1.4704e-05
1.82618e-05
3.12912e-05
1.81628e-05
1.72739e-05
2.00117e-05
2.29316e-05
1.93279e-05
8.27091e-06
1.35339e-05
2.09389e-05
3.03624e-05
1.64535e-07
3.06986e-05
3.92174e-07
3.10234e-05
-4.02665e-07
3.15301e-05
-3.92473e-07
3.20105e-05
2.01582e-07
3.28777e-05
5.85397e-07
3.38355e-05
-5.17216e-07
3.43709e-05
-1.46427e-06
3.48166e-05
-3.70915e-06
3.55064e-05
-7.21085e-06
3.51242e-05
-1.03961e-05
3.48551e-05
-1.29493e-05
3.51601e-05
-1.47233e-05
3.40906e-05
-1.77349e-05
3.27021e-05
-1.8465e-05
3.1202e-05
-1.85871e-05
2.84488e-05
-1.8308e-05
2.67403e-05
-1.18255e-05
2.57491e-05
-9.40917e-06
2.3768e-05
-7.516e-06
2.26321e-05
2.67703e-06
2.24091e-05
8.63346e-06
2.26893e-05
1.03005e-05
2.39503e-05
1.26015e-05
2.53559e-05
1.46848e-05
2.73976e-05
1.20959e-05
2.83917e-05
8.53411e-06
2.90709e-05
4.73127e-06
2.98263e-05
-3.75075e-06
2.93476e-05
-9.78319e-06
2.92825e-05
-1.52402e-05
2.92446e-05
-2.53267e-05
2.75229e-05
-3.34917e-05
2.40835e-05
-3.72452e-05
1.90265e-05
-3.57851e-05
1.28642e-05
-2.70258e-05
8.28569e-06
-2.09511e-05
7.0072e-06
-2.93222e-05
6.23638e-06
-4.49488e-05
6.81203e-06
-4.64834e-05
7.08003e-06
-3.62333e-05
8.04682e-06
-2.57575e-05
8.91579e-06
-1.67102e-05
8.29214e-06
-1.53275e-06
8.07529e-06
4.53331e-06
8.83868e-06
1.33406e-05
1.03183e-05
1.98903e-05
1.23953e-05
2.95384e-05
1.30149e-05
2.97493e-05
1.36398e-05
3.13958e-05
1.40296e-05
3.36153e-05
1.37025e-05
3.03661e-05
1.46647e-05
2.1996e-05
1.35717e-05
2.55223e-05
1.44065e-05
1.74592e-05
1.73603e-05
2.48698e-05
1.80286e-05
2.72351e-05
2.07327e-05
2.83185e-05
2.25008e-05
2.42564e-05
2.38731e-05
2.22467e-05
2.56142e-05
1.38731e-05
2.61013e-05
4.89896e-06
2.56837e-05
-3.57728e-06
2.56696e-05
-1.38712e-05
2.48517e-05
-2.38648e-05
2.33156e-05
-3.12353e-05
2.03103e-05
-3.53223e-05
1.694e-05
-2.89584e-05
1.38723e-05
-2.52101e-05
1.11811e-05
-1.48173e-05
1.00729e-05
-9.18091e-06
1.12291e-05
3.65155e-06
1.09981e-05
-6.11517e-06
1.13445e-05
-1.82757e-05
1.12228e-05
-3.14164e-05
1.26349e-05
-1.61314e-05
1.32964e-05
-1.91023e-05
1.21562e-05
-1.60182e-06
1.27316e-05
-1.4482e-05
1.26823e-05
-2.33248e-06
1.75976e-05
-9.78512e-06
1.79064e-05
1.20006e-05
2.0892e-05
1.77995e-05
1.91836e-05
3.06261e-05
2.02998e-05
3.04839e-05
1.87661e-05
3.60091e-05
1.89886e-05
2.65204e-05
1.92768e-05
2.9845e-05
1.88782e-05
2.02645e-05
1.83015e-05
2.11862e-05
1.89826e-05
1.09469e-05
1.75758e-05
2.09675e-05
1.9938e-05
1.24492e-05
1.90026e-05
2.40276e-05
2.00958e-05
1.36109e-05
2.06286e-05
3.07584e-05
2.01728e-05
1.77297e-05
2.17589e-05
2.13455e-05
2.15354e-05
8.49432e-06
1.23058e-05
2.27635e-05
3.21022e-05
3.5355e-08
3.27841e-05
-2.89765e-07
3.30666e-05
-6.85145e-07
3.34173e-05
-7.43187e-07
3.39267e-05
-3.07762e-07
3.44672e-05
4.48342e-08
3.54256e-05
-1.4756e-06
3.59182e-05
-1.95689e-06
3.61461e-05
-3.93701e-06
3.64568e-05
-7.52152e-06
3.5657e-05
-9.59629e-06
3.52901e-05
-1.25825e-05
3.51412e-05
-1.45745e-05
3.38557e-05
-1.64494e-05
3.26048e-05
-1.72141e-05
3.1049e-05
-1.70312e-05
2.87094e-05
-1.59684e-05
2.77056e-05
-1.08218e-05
2.65435e-05
-8.247e-06
2.38762e-05
-4.84876e-06
2.29649e-05
3.58839e-06
2.32034e-05
8.39493e-06
2.36366e-05
9.86729e-06
2.43461e-05
1.1892e-05
2.56774e-05
1.33535e-05
2.76089e-05
1.01644e-05
2.8463e-05
7.67995e-06
2.94227e-05
3.77164e-06
2.97555e-05
-4.08353e-06
2.90528e-05
-9.08052e-06
2.912e-05
-1.53074e-05
2.87506e-05
-2.49574e-05
2.63658e-05
-3.11069e-05
2.246e-05
-3.33394e-05
1.71158e-05
-3.04408e-05
1.08465e-05
-2.07565e-05
6.68976e-06
-1.67943e-05
5.39217e-06
-2.80246e-05
4.1005e-06
-4.36572e-05
5.10973e-06
-4.74926e-05
6.46022e-06
-3.75838e-05
7.51526e-06
-2.68126e-05
6.96994e-06
-1.61649e-05
6.30321e-06
-8.6601e-07
6.18696e-06
4.64956e-06
6.66419e-06
1.28634e-05
7.95428e-06
1.86002e-05
1.06878e-05
2.68049e-05
1.15059e-05
2.89313e-05
1.22605e-05
3.06412e-05
1.35251e-05
3.23506e-05
1.2916e-05
3.09753e-05
1.35604e-05
2.13516e-05
1.3695e-05
2.53876e-05
1.39879e-05
1.71663e-05
1.67377e-05
2.21201e-05
1.78861e-05
2.60867e-05
2.02504e-05
2.59542e-05
2.18495e-05
2.26574e-05
2.36745e-05
2.04216e-05
2.55992e-05
1.19484e-05
2.57538e-05
4.74432e-06
2.56146e-05
-3.43811e-06
2.56632e-05
-1.39198e-05
2.46835e-05
-2.2885e-05
2.23511e-05
-2.89029e-05
1.87771e-05
-3.17483e-05
1.58449e-05
-2.60262e-05
1.23637e-05
-2.17289e-05
9.49607e-06
-1.19497e-05
8.22688e-06
-7.91173e-06
9.37547e-06
2.50296e-06
9.80893e-06
-6.54863e-06
8.03725e-06
-1.6504e-05
8.06062e-06
-3.14398e-05
1.12601e-05
-1.93308e-05
1.19716e-05
-1.98139e-05
1.1001e-05
-6.31217e-07
1.1142e-05
-1.4623e-05
1.00114e-05
-1.2019e-06
1.3471e-05
-1.32447e-05
1.47141e-05
1.07575e-05
1.96001e-05
1.29135e-05
1.7664e-05
3.25622e-05
1.94688e-05
2.86791e-05
1.91287e-05
3.63492e-05
1.87371e-05
2.69121e-05
1.89096e-05
2.96724e-05
1.97379e-05
1.94362e-05
1.87412e-05
2.21829e-05
2.00311e-05
9.65705e-06
1.85676e-05
2.2431e-05
2.06033e-05
1.04135e-05
2.055e-05
2.40808e-05
2.05802e-05
1.35807e-05
2.19138e-05
2.94248e-05
2.20944e-05
1.75492e-05
2.37268e-05
1.97131e-05
2.3314e-05
8.90708e-06
1.12502e-05
2.43697e-05
3.35034e-05
5.41318e-07
3.36388e-05
-4.25147e-07
3.37913e-05
-8.37622e-07
3.38572e-05
-8.09143e-07
3.4636e-05
-1.08647e-06
3.50042e-05
-3.23374e-07
3.56081e-05
-2.0795e-06
3.60826e-05
-2.4314e-06
3.60829e-05
-3.9373e-06
3.61644e-05
-7.60307e-06
3.54066e-05
-8.83854e-06
3.51787e-05
-1.23545e-05
3.48129e-05
-1.42086e-05
3.35727e-05
-1.52092e-05
3.28166e-05
-1.6458e-05
3.12746e-05
-1.54893e-05
2.95318e-05
-1.42257e-05
2.90235e-05
-1.03134e-05
2.73686e-05
-6.59206e-06
2.48633e-05
-2.34351e-06
2.41441e-05
4.30757e-06
2.38707e-05
8.66836e-06
2.38836e-05
9.85435e-06
2.43073e-05
1.14684e-05
2.56583e-05
1.20024e-05
2.71803e-05
8.64239e-06
2.80085e-05
6.85182e-06
2.91703e-05
2.60978e-06
2.91789e-05
-4.0921e-06
2.86105e-05
-8.51213e-06
2.88329e-05
-1.55298e-05
2.7943e-05
-2.40675e-05
2.49659e-05
-2.81298e-05
2.0706e-05
-2.90796e-05
1.52424e-05
-2.49772e-05
9.19229e-06
-1.47064e-05
5.27477e-06
-1.28768e-05
3.56542e-06
-2.63152e-05
2.01147e-06
-4.21032e-05
2.48252e-06
-4.79636e-05
3.54555e-06
-3.86469e-05
4.33156e-06
-2.75986e-05
3.64307e-06
-1.54764e-05
3.85747e-06
-1.08041e-06
4.48382e-06
4.02321e-06
4.4979e-06
1.28493e-05
5.56092e-06
1.75372e-05
8.69692e-06
2.36689e-05
1.01043e-05
2.75239e-05
1.05866e-05
3.01589e-05
1.28115e-05
3.01257e-05
1.24006e-05
3.13862e-05
1.21719e-05
2.15804e-05
1.35336e-05
2.40259e-05
1.38294e-05
1.68705e-05
1.56712e-05
2.02783e-05
1.73592e-05
2.43987e-05
1.94629e-05
2.38505e-05
2.10713e-05
2.1049e-05
2.34999e-05
1.7993e-05
2.51974e-05
1.02509e-05
2.521e-05
4.73173e-06
2.55157e-05
-3.74382e-06
2.56492e-05
-1.40532e-05
2.44267e-05
-2.16625e-05
2.16427e-05
-2.61189e-05
1.81875e-05
-2.82931e-05
1.49849e-05
-2.28236e-05
1.07626e-05
-1.75066e-05
7.79236e-06
-8.97949e-06
6.00894e-06
-6.1283e-06
7.36253e-06
1.14937e-06
8.1238e-06
-7.3099e-06
6.08946e-06
-1.44697e-05
7.15175e-06
-3.25021e-05
1.10372e-05
-2.32163e-05
1.11318e-05
-1.99084e-05
1.01472e-05
3.53325e-07
1.04746e-05
-1.49504e-05
8.18188e-06
1.09086e-06
9.59606e-06
-1.46589e-05
1.08761e-05
9.47746e-06
1.63836e-05
7.40599e-06
1.58196e-05
3.31262e-05
1.80742e-05
2.64245e-05
1.9185e-05
3.52385e-05
1.93819e-05
2.67152e-05
1.86998e-05
3.03545e-05
2.04759e-05
1.76601e-05
1.94246e-05
2.32342e-05
2.0573e-05
8.50869e-06
1.95199e-05
2.34841e-05
2.08902e-05
9.04322e-06
2.16675e-05
2.33036e-05
2.13699e-05
1.38783e-05
2.30543e-05
2.77404e-05
2.3354e-05
1.72495e-05
2.53441e-05
1.77229e-05
2.50739e-05
9.17736e-06
1.04204e-05
2.59037e-05
3.36672e-05
1.01908e-06
3.36054e-05
-3.63383e-07
3.37302e-05
-9.62404e-07
3.35564e-05
-6.35296e-07
3.44374e-05
-1.96749e-06
3.48355e-05
-7.21484e-07
3.50524e-05
-2.29641e-06
3.56334e-05
-3.01239e-06
3.55221e-05
-3.82602e-06
3.55463e-05
-7.62725e-06
3.53637e-05
-8.65595e-06
3.50183e-05
-1.20091e-05
3.45097e-05
-1.37001e-05
3.35471e-05
-1.42466e-05
3.29779e-05
-1.58888e-05
3.16202e-05
-1.41316e-05
3.03251e-05
-1.29306e-05
2.96901e-05
-9.6784e-06
2.7773e-05
-4.67501e-06
2.61538e-05
-7.24288e-07
2.5223e-05
5.23839e-06
2.39833e-05
9.90808e-06
2.37571e-05
1.00806e-05
2.40874e-05
1.1138e-05
2.53789e-05
1.0711e-05
2.65322e-05
7.48909e-06
2.73663e-05
6.01773e-06
2.85481e-05
1.42795e-06
2.84228e-05
-3.96677e-06
2.81092e-05
-8.19856e-06
2.82856e-05
-1.57061e-05
2.67545e-05
-2.25365e-05
2.32658e-05
-2.46411e-05
1.88687e-05
-2.46824e-05
1.34661e-05
-1.95746e-05
7.84311e-06
-9.08342e-06
4.23277e-06
-9.26645e-06
1.80006e-06
-2.38825e-05
-1.20284e-07
-4.01829e-05
-5.31762e-07
-4.75522e-05
-8.34899e-07
-3.83437e-05
-4.7029e-07
-2.79632e-05
-7.1665e-07
-1.523e-05
1.29792e-06
-3.09499e-06
2.82564e-06
2.4955e-06
2.52717e-06
1.31478e-05
3.53607e-06
1.65283e-05
6.29732e-06
2.09076e-05
8.45742e-06
2.53638e-05
8.62537e-06
2.99909e-05
1.14739e-05
2.72772e-05
1.18189e-05
3.10412e-05
1.09042e-05
2.2495e-05
1.26741e-05
2.22561e-05
1.34941e-05
1.60505e-05
1.47306e-05
1.90417e-05
1.65691e-05
2.25602e-05
1.86829e-05
2.17367e-05
2.06724e-05
1.90595e-05
2.3267e-05
1.53984e-05
2.45508e-05
8.96719e-06
2.47782e-05
4.50431e-06
2.55038e-05
-4.46948e-06
2.55381e-05
-1.40875e-05
2.37437e-05
-1.9868e-05
2.05285e-05
-2.29037e-05
1.73327e-05
-2.50973e-05
1.41602e-05
-1.96511e-05
1.0111e-05
-1.34574e-05
6.8338e-06
-5.70225e-06
4.88479e-06
-4.17929e-06
6.16316e-06
-1.29005e-07
6.79142e-06
-7.93816e-06
7.18147e-06
-1.48597e-05
8.03361e-06
-3.33542e-05
1.08278e-05
-2.60105e-05
9.79155e-06
-1.88721e-05
9.51933e-06
6.25544e-07
1.00073e-05
-1.54384e-05
7.48447e-06
3.61364e-06
8.01923e-06
-1.51936e-05
8.13048e-06
9.36621e-06
1.27422e-05
2.7943e-06
1.42199e-05
3.16485e-05
1.64296e-05
2.42148e-05
1.8092e-05
3.35761e-05
1.9827e-05
2.49801e-05
1.87549e-05
3.14266e-05
2.07408e-05
1.56742e-05
1.96217e-05
2.43532e-05
2.04117e-05
7.71875e-06
2.03007e-05
2.3595e-05
2.10201e-05
8.32386e-06
2.21889e-05
2.21348e-05
2.19632e-05
1.4104e-05
2.43453e-05
2.53583e-05
2.47251e-05
1.68696e-05
2.65461e-05
1.59019e-05
2.6601e-05
9.12246e-06
9.59616e-06
2.74253e-05
3.36613e-05
1.35144e-06
3.35188e-05
-2.20849e-07
3.35744e-05
-1.01805e-06
3.33491e-05
-4.09952e-07
3.40508e-05
-2.66921e-06
3.4515e-05
-1.18573e-06
3.46194e-05
-2.40078e-06
3.52648e-05
-3.65775e-06
3.53444e-05
-3.90568e-06
3.52929e-05
-7.57571e-06
3.52232e-05
-8.58627e-06
3.46371e-05
-1.1423e-05
3.41858e-05
-1.32489e-05
3.36418e-05
-1.37025e-05
3.29888e-05
-1.52358e-05
3.18194e-05
-1.29622e-05
3.066e-05
-1.17712e-05
2.95606e-05
-8.579e-06
2.77913e-05
-2.90567e-06
2.64933e-05
5.73705e-07
2.50588e-05
6.67287e-06
2.40884e-05
1.08785e-05
2.3876e-05
1.0293e-05
2.38085e-05
1.12055e-05
2.50394e-05
9.48e-06
2.57494e-05
6.77914e-06
2.66077e-05
5.15939e-06
2.77617e-05
2.74022e-07
2.75348e-05
-3.73996e-06
2.75089e-05
-8.17259e-06
2.74443e-05
-1.56416e-05
2.52494e-05
-2.03416e-05
2.13865e-05
-2.07782e-05
1.70035e-05
-2.02994e-05
1.18282e-05
-1.43994e-05
6.70578e-06
-3.96096e-06
3.54969e-06
-6.11036e-06
7.27681e-07
-2.10605e-05
-1.8098e-06
-3.76454e-05
-2.94819e-06
-4.64138e-05
-3.46116e-06
-3.78307e-05
-3.58582e-06
-2.78385e-05
-3.10691e-06
-1.5709e-05
-5.54657e-07
-5.64723e-06
3.66942e-07
1.5739e-06
9.45364e-07
1.25693e-05
2.57682e-06
1.48969e-05
3.99e-06
1.94944e-05
6.87239e-06
2.24814e-05
6.90178e-06
2.99615e-05
9.65262e-06
2.45264e-05
1.11028e-05
2.9591e-05
1.03515e-05
2.32464e-05