/*--------------------------------*- C++ -*----------------------------------*\
| =========                 |                                                 |
| \\      /  F ield         | OpenFOAM: The Open Source CFD Toolbox           |
|  \\    /   O peration     | Version:  2.4.0                                 |
|   \\  /    A nd           | Web:      www.OpenFOAM.org                      |
|    \\/     M anipulation  |                                                 |
\*---------------------------------------------------------------------------*/
FoamFile
{
    version     2.0;
    format      ascii;
    class       volScalarField;
    location    "0.123";
    object      pMean;
}
// * * * * * * * * * * * * * * * * * * * * * * * * * * * * * * * * * * * * * //

dimensions      [0 2 -2 0 0 0 0];

internalField   nonuniform List<scalar> 
4400
(
135.894
114.312
105.923
101.886
98.5566
95.2698
91.9745
88.677
85.219
81.0031
133.981
114.376
105.959
101.897
98.5593
95.2705
91.9749
88.6783
85.2346
81.3991
132.779
114.684
106.092
101.935
98.5794
95.2781
91.9785
88.6765
85.3063
81.5907
132.047
115.056
106.268
101.993
98.6212
95.306
91.9912
88.6946
85.384
81.8493
131.455
115.396
106.445
102.052
98.68
95.3485
92.0215
88.712
85.4894
82.0978
130.944
115.678
106.599
102.096
98.7348
95.4022
92.0592
88.7481
85.6102
82.3792
130.523
115.903
106.728
102.122
98.7791
95.448
92.0978
88.7869
85.7009
82.7277
130.2
116.072
106.829
102.136
98.8091
95.4861
92.1306
88.8301
85.7575
83.046
129.982
116.188
106.897
102.143
98.8282
95.5147
92.154
88.8726
85.834
83.3686
129.873
116.247
106.931
102.146
98.8387
95.5302
92.1777
88.9107
85.9248
83.6102
129.872
116.249
106.93
102.149
98.8393
95.5386
92.1908
88.951
86.0131
83.8084
129.98
116.193
106.896
102.149
98.8328
95.5346
92.2025
88.9907
86.0989
83.963
130.195
116.081
106.827
102.146
98.8161
95.521
92.2071
89.0269
86.1851
84.0769
130.516
115.914
106.725
102.136
98.7886
95.4963
92.2056
89.0613
86.2716
84.1501
130.936
115.692
106.596
102.114
98.7487
95.4613
92.1989
89.0904
86.3559
84.1895
131.446
115.411
106.441
102.073
98.6974
95.4204
92.189
89.1157
86.4265
84.2228
132.039
115.072
106.264
102.017
98.6426
95.3847
92.1818
89.1387
86.4745
84.2517
132.771
114.7
106.088
101.961
98.6029
95.3646
92.1812
89.1576
86.5015
84.2845
133.973
114.392
105.955
101.923
98.5842
95.3589
92.1838
89.1685
86.512
84.321
135.887
114.327
105.919
101.912
98.5814
95.3596
92.1853
89.1723
86.5134
84.4252
78.5889
78.0704
76.683
75.1618
73.8135
72.7525
72.1792
71.5748
71.5204
71.7811
71.9753
72.1866
72.2595
72.8366
73.6548
74.1595
74.5799
75.148
75.719
76.3668
77.0061
77.6411
78.2862
78.9579
79.6566
80.3573
81.0497
81.7614
82.4856
83.1979
83.8317
84.4162
84.9015
85.2871
85.5052
85.61
85.6083
85.5322
85.4302
85.3193
85.5072
85.9313
86.5515
87.3252
88.2213
89.0461
89.8468
90.5003
91.0244
91.4088
91.7091
92.0098
92.1606
92.3249
92.4565
92.5378
92.7157
92.7598
93.053
93.155
93.59
93.8066
94.3613
94.5998
95.118
95.1585
95.5201
95.3043
95.5378
95.1681
95.4296
95.0668
95.3977
94.9883
95.3557
94.9701
95.4539
95.1592
95.768
95.4858
96.1682
95.8367
96.5005
96.0511
96.6033
95.9935
96.391
95.6513
95.8858
95.0311
95.0979
94.0533
93.9702
92.5498
92.3947
90.0861
89.9661
84.8409
84.3777
59.3033
78.9487
78.2457
77.1319
75.8038
74.5588
73.5487
72.9954
72.5643
72.5443
72.8615
73.1191
73.3552
73.4255
73.8928
74.6546
75.1745
75.5052
75.9467
76.4161
76.9682
77.5096
78.0613
78.6375
79.2354
79.8571
80.4788
81.0848
81.6995
82.3153
82.9154
83.4475
83.9288
84.3223
84.6377
84.7976
84.895
84.8831
84.8201
84.7195
84.6043
84.8727
85.3714
86.1003
86.9859
88.009
88.9481
89.8608
90.6108
91.2097
91.6676
92.0135
92.3171
92.4656
92.6214
92.7405
92.8061
92.9816
92.9957
93.2818
93.3304
93.715
93.859
94.3135
94.481
94.9099
94.9064
95.187
94.9428
95.1414
94.7548
95.0106
94.6119
94.9381
94.4782
94.8988
94.4293
95.0161
94.6244
95.3642
94.9604
95.823
95.3416
96.257
95.5708
96.409
95.4953
96.1988
95.1156
95.6511
94.4205
94.7552
93.2839
93.4129
91.4254
91.5307
88.2512
88.4574
81.0172
79.9396
52.1638
79.521
78.6695
77.5706
76.3693
75.2425
74.3227
73.793
73.4851
73.4878
73.8015
74.1162
74.4006
74.5164
74.9002
75.5942
76.1382
76.4268
76.7774
77.17
77.6507
78.1096
78.5854
79.0852
79.5958
80.1176
80.6468
81.1605
81.6738
82.1839
82.6776
83.1115
83.4992
83.8161
84.0769
84.2055
84.3145
84.298
84.2571
84.1409
84.0271
84.3682
84.9224
85.7747
86.7815
87.9316
88.9911
90.0191
90.8589
91.5463
92.0703
92.4692
92.7618
92.9142
93.0495
93.1577
93.1959
93.3578
93.3402
93.6008
93.6043
93.9254
94.0132
94.3564
94.4643
94.7714
94.7364
94.9221
94.6693
94.8214
94.4357
94.6617
94.2406
94.5407
94.0353
94.4787
93.9374
94.5993
94.1132
94.9502
94.4208
95.4183
94.7964
95.9017
95.0112
96.1051
94.8773
95.9133
94.4237
95.3528
93.6538
94.3704
92.3908
92.8057
90.1726
90.4429
86.2058
86.736
77.6959
74.8401
50.2978
80.0241
79.1934
78.1288
76.9977
75.9681
75.1475
74.661
74.4395
74.4629
74.7559
75.103
75.4198
75.6018
75.9303
76.5431
77.0992
77.3802
77.6636
77.9887
78.4082
78.7981
79.1955
79.6067
80.0145
80.4267
80.8568
81.2764
81.69
82.1015
82.4948
82.8366
83.1418
83.398
83.6205
83.7418
83.8729
83.859
83.8412
83.6842
83.5848
83.9782
84.5777
85.5772
86.7105
87.9917
89.1715
90.3094
91.2334
92.0166
92.6004
93.0609
93.3338
93.497
93.5956
93.7006
93.7036
93.8408
93.781
94.0012
93.9501
94.2066
94.2435
94.4858
94.5409
94.7289
94.6677
94.7614
94.5082
94.6018
94.2254
94.4062
93.9696
94.2303
93.6772
94.1119
93.5153
94.2234
93.6519
94.5503
93.9063
94.9854
94.2525
95.4612
94.4245
95.6578
94.1715
95.4559
93.5572
94.9142
92.6101
93.9033
91.2088
92.1816
88.8268
89.2176
84.1877
84.3477
74.6931
69.1818
50.2347
80.4325
79.7152
78.7914
77.6988
76.7233
75.9863
75.567
75.4242
75.4902
75.7705
76.1235
76.4588
76.7035
77.0081
77.5231
78.062
78.3625
78.5991
78.8623
79.2111
79.5342
79.8493
80.1652
80.4704
80.7793
81.109
81.435
81.756
82.0754
82.377
82.6337
82.8687
83.0758
83.2753
83.41
83.5702
83.5677
83.5565
83.3357
83.2736
83.6932
84.3441
85.506
86.7575
88.1796
89.4779
90.7191
91.7126
92.604
93.239
93.7699
94.0174
94.1996
94.2416
94.3501
94.3036
94.4222
94.2992
94.4844
94.3535
94.5644
94.5327
94.6989
94.6906
94.7928
94.6923
94.7083
94.4441
94.4772
94.1037
94.2391
93.7787
94.0063
93.3934
93.8041
93.1572
93.9016
93.2465
94.1854
93.4311
94.5604
93.744
94.9694
93.8933
95.0899
93.4992
94.7336
92.6014
94.0064
91.2984
92.958
89.5562
91.1569
86.9501
88.152
82.3471
81.7792
72.3529
63.0812
49.8216
80.7922
80.1956
79.408
78.3788
77.4612
76.8283
76.5051
76.4437
76.5553
76.8269
77.1666
77.5075
77.7975
78.1004
78.5317
79.017
79.3406
79.5532
79.7549
80.0217
80.2735
80.5031
80.7305
80.9507
81.167
81.4042
81.6463
81.8821
82.1133
82.3286
82.507
82.6859
82.8559
83.0439
83.2027
83.3954
83.4165
83.3881
83.1012
83.0942
83.5224
84.2427
85.5554
86.9023
88.4751
89.8943
91.2308
92.2775
93.2951
93.9677
94.5755
94.7934
95.0088
94.9785
95.0906
94.9693
95.0896
94.8667
95.0472
94.7966
95.0056
94.8751
95.0053
94.9094
94.9631
94.7905
94.7587
94.4504
94.4423
94.043
94.1467
93.6461
93.8498
93.1789
93.5591
92.8648
93.6379
92.8991
93.864
92.9966
94.1654
93.2613
94.483
93.429
94.5093
92.9736
94.0042
91.8978
93.0627
90.2611
91.6682
87.8664
89.4957
84.4821
86.0997
79.3408
78.2557
69.7715
59.0758
50.0982
81.2941
80.6648
79.867
78.9216
78.1404
77.6607
77.456
77.4617
77.6043
77.8653
78.1865
78.5249
78.838
79.1471
79.5184
79.9363
80.2612
80.4713
80.6278
80.8119
80.9857
81.1351
81.2925
81.4469
81.5838
81.744
81.9133
82.0708
82.2153
82.3448
82.4531
82.5896
82.7354
82.9252
83.1141
83.3411
83.3957
83.3321
82.9905
83.0475
83.4733
84.2963
85.7121
87.1324
88.8621
90.3981
91.8177
92.9052
94.0745
94.7604
95.4526
95.6327
95.896
95.7955
95.9213
95.7005
95.8331
95.4707
95.6718
95.2657
95.518
95.26
95.4017
95.201
95.2351
94.9747
94.9162
94.5429
94.5116
94.0562
94.1385
93.5768
93.7612
93.0336
93.381
92.6478
93.427
92.6178
93.5839
92.6263
93.7963
92.7933
94.0128
92.9748
93.9194
92.5075
93.2857
91.3745
92.1463
89.5723
90.3938
86.7456
87.6417
82.4652
83.0239
75.7954
73.7404
66.1175
57.1114
50.4374
82.0719
81.3204
80.2629
79.3556
78.7504
78.4356
78.3448
78.4122
78.5769
78.8301
79.1365
79.4669
79.7869
80.099
80.4339
80.7894
81.0978
81.3098
81.4411
81.5601
81.6662
81.7542
81.8631
81.9631
82.03
82.1264
82.231
82.311
82.3715
82.4224
82.4713
82.5721
82.7043
82.9082
83.1349
83.3966
83.4768
83.3918
83.0183
83.1347
83.5521
84.4918
85.9636
87.4566
89.3281
90.9635
92.4631
93.5712
94.9109
95.5849
96.3603
96.5106
96.8419
96.6799
96.8199
96.5023
96.6406
96.1538
96.3634
95.789
96.1013
95.6916
95.8831
95.5687
95.6055
95.2496
95.1818
94.7355
94.6938
94.1674
94.2258
93.6014
93.7561
92.9818
93.2861
92.5363
93.2735
92.4182
93.3469
92.3481
93.4479
92.3908
93.5547
92.5169
93.3035
91.9869
92.5057
90.7063
91.1272
88.6936
88.9836
85.6414
85.563
80.9182
79.8257
73.594
70.0899
63.9224
56.4093
50.1238
82.6387
81.8375
80.6481
79.7662
79.2974
79.1306
79.1517
79.2834
79.4705
79.7145
80.0046
80.3217
80.6388
80.9486
81.2616
81.5709
81.8475
82.0505
82.1694
82.2545
82.3201
82.3761
82.4567
82.5058
82.5086
82.5505
82.5922
82.5972
82.5818
82.5639
82.5622
82.6322
82.7566
82.9819
83.2489
83.5426
83.6337
83.5598
83.1936
83.352
83.7645
84.8093
86.3138
87.8965
89.856
91.5763
93.1308
94.2631
95.778
96.4216
97.2776
97.3904
97.8025
97.6021
97.7587
97.3644
97.5083
96.93
97.1279
96.4042
96.7591
96.1757
96.4499
96.003
96.072
95.6188
95.5603
95.0348
94.9924
94.3901
94.4243
93.7424
93.8591
93.0522
93.2952
92.5558
93.1931
92.331
93.1702
92.1886
93.1418
92.1218
93.1138
92.1117
92.6731
91.459
91.6606
89.9551
90.0016
87.6676
87.4527
84.3654
83.3858
79.5212
76.9699
72.5855
68.0895
63.7131
56.28
49.9123
83.0643
82.2813
81.0653
80.216
79.8362
79.7845
79.8977
80.0824
80.2862
80.5178
80.7896
81.0909
81.4012
81.7057
82.0011
82.2759
82.5168
82.7021
82.8167
82.8943
82.9508
83.0038
83.0689
83.0685
83.0126
83.0073
82.9886
82.9261
82.8398
82.7565
82.7132
82.763
82.8911
83.1435
83.4488
83.7651
83.8614
83.829
83.5189
83.7102
84.1218
85.2563
86.7706
88.452
90.4223
92.2166
93.7998
94.9742
96.6424
97.2414
98.1834
98.2605
98.7651
98.5252
98.7007
98.2638
98.3961
97.7741
97.9387
97.1033
97.4683
96.7217
97.0835
96.4961
96.6246
96.0709
96.0438
95.4306
95.4071
94.7227
94.748
94.0193
94.0928
93.2929
93.4472
92.7398
93.2349
92.4123
93.1111
92.1884
92.9387
92.0351
92.7384
91.8312
92.0757
90.9956
90.7921
89.265
88.8154
86.7351
85.8752
83.2623
81.4919
78.5038
75.3372
72.3948
67.5681
64.7288
56.5705
50.5172
83.3925
82.6573
81.4785
80.6789
80.3644
80.391
80.5716
80.7992
81.022
81.2487
81.5067
81.7937
82.0933
82.3901
82.6674
82.9145
83.1267
83.2956
83.4152
83.4991
83.5599
83.6253
83.68
83.6325
83.5238
83.4778
83.4022
83.281
83.1383
83.007
82.9373
82.9762
83.12
83.4025
83.7351
84.0641
84.17
84.2082
83.9942
84.2202
84.6317
85.8362
87.3252
89.0923
91.0081
92.8952
94.4506
95.7226
97.4898
98.0631
99.0537
99.123
99.6917
99.4303
99.631
99.1749
99.2883
98.6525
98.7618
97.875
98.2117
97.3455
97.7769
97.062
97.264
96.6098
96.6222
95.9308
95.9179
95.1811
95.1788
94.459
94.4498
93.741
93.7473
93.1359
93.4268
92.729
93.2202
92.4284
92.926
92.1826
92.5587
91.7691
91.6634
90.7241
90.0997
88.8122
87.8279
86.0936
84.6359
82.5521
80.3156
78.1214
74.7725
72.9901
67.8963
65.961
57.3815
51.6957
83.6192
82.9477
81.8652
81.1534
80.9039
80.9852
81.2069
81.4614
81.6995
81.9257
82.1739
82.4451
82.7292
83.0121
83.2681
83.4916
83.6865
83.8505
83.9769
84.0724
84.148
84.2315
84.2725
84.1725
84.0131
83.9359
83.8148
83.6495
83.4721
83.3165
83.2381
83.2828
83.4517
83.7619
84.1129
84.4419
84.5785
84.7088
84.6181
84.8778
85.2845
86.5369
87.9657
89.8008
91.6228
93.6214
95.0837
96.5436
98.299
98.9079
99.8954
99.9839
100.592
100.313
100.535
100.083
100.166
99.5607
99.589
98.7248
98.9789
98.069
98.5044
97.7171
97.9567
97.2496
97.2739
96.5532
96.5116
95.7954
95.7075
95.0892
94.9237
94.4042
94.1711
93.7749
93.758
93.3258
93.4994
92.9559
93.13
92.5788
92.6246
91.979
91.5478
90.7674
89.8179
88.7604
87.3523
85.9538
84.0774
82.5244
79.977
78.6016
75.0384
74.15
68.695
66.9644
58.5508
52.7006
83.7569
83.172
82.2419
81.6504
81.4649
81.5713
81.8042
82.0639
82.3073
82.5339
82.774
83.0306
83.297
83.558
83.7893
83.9952
84.1757
84.3327
84.4719
84.5835
84.6781
84.7869
84.8245
84.6785
84.4789
84.3782
84.2339
84.0483
83.8558
83.6949
83.6268
83.6933
83.893
84.2304
84.5839
84.9053
85.1015
85.3408
85.3937
85.6814
86.0825
87.3482
88.7068
90.59
92.2901
94.4198
95.739
97.4565
99.0882
99.7919
100.667
100.879
101.423
101.195
101.411
100.998
101.037
100.51
100.424
99.678
99.7582
98.9322
99.2548
98.492
98.6958
98.0058
97.9834
97.3117
97.1716
96.5714
96.321
95.8957
95.4943
95.2477
94.6903
94.6272
94.1931
94.1638
93.9061
93.7511
93.4806
93.2515
92.8371
92.5196
91.7029
91.2552
89.9467
89.2505
87.4089
86.4796
84.1644
83.2814
80.3388
79.8084
75.8357
75.4755
69.6908
67.6343
59.6395
53.3919
83.7919
83.313
82.5924
82.1487
82.028
82.1399
82.3594
82.6042
82.8415
83.0652
83.2961
83.5366
83.7794
84.0139
84.2221
84.4124
84.5886
84.7521
84.9032
85.0227
85.132
85.2652
85.3088
85.1376
84.9159
84.7979
84.6552
84.4782
84.2964
84.1553
84.1182
84.2218
84.4611
84.8135
85.1578
85.4715
85.748
86.1025
86.3054
86.6171
87.029
88.2497
89.5321
91.4516
93.0118
95.2751
96.4347
98.4616
99.8307
100.728
101.406
101.839
102.214
102.107
102.238
101.926
101.879
101.491
101.258
100.716
100.547
99.9257
99.9933
99.3936
99.4399
98.8743
98.725
98.1909
97.8773
97.4699
96.9928
96.8134
96.131
96.1919
95.28
95.5923
94.6924
95.1231
94.3741
94.7025
93.9054
94.1601
93.1876
93.3901
92.0861
92.2156
90.3801
90.2907
87.8763
87.6511
84.7495
84.6607
81.1687
81.2862
76.8646
76.5573
70.5853
67.9642
60.4828
53.9538
83.752
83.4071
82.9362
82.6418
82.5611
82.6511
82.8392
83.059
83.2817
83.4964
83.7117
83.9299
84.1456
84.3545
84.5481
84.7338
84.9133
85.0867
85.2494
85.3767
85.5005
85.6572
85.7148
85.5479
85.3317
85.2101
85.0851
84.9341
84.7867
84.6929
84.7117
84.8716
85.1526
85.5122
85.8435
86.1535
86.5155
86.9709
87.3094
87.6467
88.0891
89.2118
90.4295
92.3549
93.7636
96.158
97.1301
99.496
100.603
101.662
102.163
102.871
102.962
103.08
102.995
102.856
102.656
102.471
102.035
101.798
101.317
101.026
100.728
100.407
100.173
99.8308
99.4601
99.1478
98.5843
98.4403
97.6759
97.7902
96.7921
97.1737
95.9105
96.5753
95.2417
96.0812
94.8678
95.6779
94.3763
95.1877
93.6587
94.5277
92.6343
93.5124
91.016
91.6825
88.6201
89.1652
85.6404
86.2105
82.195
82.5908
77.8364
77.2393
71.2467
68.0326
61.1095
54.5315
83.6754
83.4674
83.2419
83.0643
82.9987
83.0595
83.2109
83.4004
83.6026
83.8042
84.0058
84.2083
84.4069
84.599
84.7814
84.962
85.1458
85.3313
85.509
85.6508
85.7981
85.9769
86.0467
85.9056
85.7227
85.618
85.5238
85.4201
85.3323
85.3083
85.3991
85.6214
85.9406
86.3025
86.6141
86.9308
87.3658
87.8957
88.3457
88.719
89.1925
90.1947
91.3795
93.2587
94.5308
97.0359
97.7906
100.464
101.305
102.555
102.754
103.887
103.625
104.074
103.628
103.772
103.29
103.397
102.68
102.801
101.975
102.096
101.385
101.446
100.839
100.812
100.125
100.123
99.241
99.4202
98.3291
98.7526
97.4377
98.1098
96.545
97.4955
95.8197
96.9896
95.3652
96.631
94.8613
96.2606
94.1775
95.7812
93.2647
94.8975
91.7473
93.1398
89.4933
90.6994
86.6312
87.6394
83.1847
83.5839
78.6196
77.5573
71.7301
67.9788
61.5939
55.1428
83.7072
83.5635
83.4588
83.3541
83.3017
83.342
83.4628
83.6255
83.8091
84
84.193
84.3844
84.5694
84.7495
84.926
85.1067
85.2975
85.4959
85.6925
85.862
86.0403
86.2355
86.3191
86.2228
86.0919
86.0207
85.9723
85.932
85.9189
85.9776
86.1449
86.4233
86.7668
87.1146
87.4028
87.7304
88.2122
88.7923
89.3232
89.7486
90.254
91.1386
92.2994
94.0815
95.2445
97.8444
98.4367
101.331
101.797
103.512
103.286
104.735
104.166
104.912
104.138
104.634
103.795
104.246
103.192
103.655
102.511
102.999
101.933
102.405
101.413
101.775
100.724
101.074
99.838
100.339
98.9094
99.6281
98.0084
98.9547
97.118
98.3377
96.3593
97.8559
95.8329
97.559
95.3316
97.3077
94.6934
96.9545
93.8918
96.1149
92.452
94.4256
90.3417
92.0194
87.5506
88.7975
84.016
84.2688
79.2089
77.6353
72.117
67.9411
61.9727
55.7647
83.7818
83.6753
83.6009
83.5209
83.4794
83.5088
83.6074
83.7505
83.921
84.1045
84.2906
84.4732
84.6499
84.8242
84.9995
85.1839
85.3879
85.6056
85.8245
86.0263
86.2386
86.4484
86.5474
86.5023
86.4301
86.4033
86.4059
86.4313
86.495
86.6302
86.8604
87.1739
87.5207
87.8411
88.1067
88.4366
88.9249
89.5253
90.111
90.6078
91.1661
91.9766
93.1009
94.748
95.857
98.4972
98.961
102.05
102.084
104.289
103.755
105.312
104.546
105.585
104.525
105.312
104.145
104.882
103.537
104.279
102.885
103.68
102.333
103.164
101.832
102.577
101.157
101.866
100.265
101.083
99.3207
100.327
98.4147
99.6379
97.5372
99.0419
96.7707
98.5968
96.2151
98.3502
95.7391
98.184
95.1745
97.8783
94.4386
97.0385
93.0561
95.4207
91.06
93.0302
88.2861
89.6486
84.6358
84.7077
79.6247
77.6179
72.4192
67.9654
62.2518
56.3429
83.8668
83.7688
83.6774
83.598
83.5595
83.5806
83.664
83.7947
83.9579
84.1392
84.3238
84.5056
84.6815
84.8569
85.0378
85.2313
85.4468
85.6815
85.9226
86.1557
86.3948
86.6138
86.7287
86.731
86.712
86.7257
86.7701
86.8433
86.9598
87.1429
87.4044
87.7242
88.0531
88.3456
88.5967
88.9155
89.3912
89.9853
90.6017
91.1712
91.7992
92.6033
93.7165
95.2269
96.3222
98.9582
99.2565
102.579
102.338
104.656
104.002
105.715
104.843
106.021
104.758
105.727
104.38
105.234
103.75
104.612
103.104
104.107
102.591
103.668
102.121
103.117
101.446
102.395
100.536
101.569
99.5621
100.776
98.6422
100.075
97.7699
99.4866
97.0046
99.057
96.4468
98.8359
96.0048
98.7239
95.5018
98.4267
94.7597
97.5678
93.4426
95.9965
91.5326
93.6246
88.7755
90.1435
85.062
84.9304
79.9893
77.5569
72.681
68.0068
62.4206
56.767
84.0205
83.8394
83.7047
83.6181
83.5774
83.5939
83.6713
83.7973
83.957
84.136
84.3194
84.5011
84.6809
84.8626
85.0522
85.2569
85.4848
85.7318
85.9859
86.2342
86.4826
86.7032
86.8267
86.8523
86.8559
86.8841
86.9412
87.0294
87.1614
87.3565
87.6215
87.9346
88.2512
88.5379
88.793
89.1155
89.581
90.1607
90.7783
91.387
92.0782
92.9051
94.0123
95.4645
96.5545
99.1739
99.4736
102.827
102.483
104.802
104.14
105.984
104.918
106.171
104.865
105.894
104.48
105.361
103.851
104.751
103.205
104.292
102.701
103.888
102.222
103.342
101.53
102.597
100.609
101.746
99.622
100.935
98.6922
100.223
97.8207
99.635
97.0615
99.2182
96.4986
99.0116
96.0566
98.9223
95.5606
98.6329
94.7948
97.7578
93.4905
96.2025
91.6158
93.8388
88.8894
90.3197
85.1765
84.9924
80.0702
77.4828
72.7204
67.9824
62.4481
56.7313
80.464
80.0672
78.9859
77.351
76.0247
74.8931
74.0383
73.6697
73.3392
73.2174
73.4924
74.262
75.4266
76.6047
77.6239
78.5806
79.5142
80.3713
81.0795
81.781
82.7536
84.0152
85.4848
87.0642
88.6543
90.2476
91.8275
93.3131
94.7922
96.3023
98.0397
99.8755
101.872
103.512
104.954
105.69
106.056
105.952
105.579
104.985
104.415
103.74
103.184
102.564
102.123
101.735
101.611
101.431
101.426
101.266
101.277
101.166
101.197
101.121
101.126
101.058
101.017
100.95
100.91
100.874
100.935
101.061
101.309
101.549
101.788
101.929
101.967
101.901
101.763
101.573
101.365
101.142
100.929
100.723
100.541
100.376
100.239
100.121
100.03
99.9597
99.9126
99.8847
99.8743
99.8784
99.8951
99.9237
99.9638
100.014
100.072
100.135
100.201
100.278
100.359
100.407
100.404
100.452
100.557
100.804
101.645
102.705
80.4045
79.9583
78.7982
77.1277
75.7731
74.6453
73.8222
73.4656
73.0991
72.9631
73.2395
74.015
75.1913
76.3622
77.3556
78.3145
79.2647
80.1238
80.8121
81.5152
82.4962
83.7706
85.2017
86.7076
88.2612
89.8647
91.4788
92.988
94.4793
95.9917
97.7438
99.5745
101.574
103.251
104.688
105.469
105.838
105.777
105.402
104.844
104.277
103.645
103.086
102.491
102.053
101.675
101.561
101.395
101.401
101.239
101.258
101.136
101.171
101.087
101.091
101.017
100.978
100.904
100.866
100.825
100.894
101.021
101.28
101.527
101.773
101.921
101.962
101.898
101.76
101.568
101.359
101.136
100.923
100.716
100.534
100.369
100.232
100.114
100.023
99.9536
99.9073
99.8799
99.8705
99.8748
99.8924
99.9209
99.9621
100.012
100.071
100.132
100.198
100.273
100.355
100.402
100.396
100.413
100.447
100.629
101.463
102.5
80.2904
79.7457
78.4362
76.6784
75.2766
74.1144
73.3579
73.0308
72.6326
72.4563
72.722
73.4931
74.6475
75.7744
76.7148
77.641
78.5787
79.4065
80.0737
80.8029
81.8588
83.1657
84.5281
85.9014
87.3855
88.9874
90.683
92.2705
93.805
95.3299
97.1236
98.9398
100.932
102.69
104.099
104.973
105.336
105.341
104.986
104.463
103.919
103.344
102.794
102.232
101.809
101.456
101.354
101.226
101.251
101.111
101.154
101.028
101.076
100.988
100.986
100.901
100.858
100.778
100.742
100.702
100.783
100.92
101.195
101.461
101.72
101.887
101.938
101.88
101.744
101.551
101.342
101.118
100.904
100.696
100.515
100.349
100.212
100.094
100.003
99.9334
99.8864
99.8595
99.8491
99.8541
99.8706
99.9006
99.9408
99.9934
100.051
100.116
100.177
100.249
100.333
100.403
100.401
100.379
100.27
100.353
101.141
102.186
80.1128
79.4709
77.9809
76.1284
74.682
73.4441
72.7432
72.4029
71.9477
71.7515
72.0195
72.7474
73.8123
74.8699
75.7865
76.6796
77.5766
78.3361
78.9617
79.7281
80.8748
82.2207
83.5595
84.8182
86.236
87.8327
89.6184
91.3033
92.9122
94.4685
96.3145
98.1437
100.086
101.926
103.324
104.279
104.656
104.718
104.398
103.905
103.388
102.864
102.331
101.784
101.389
101.063
100.975
100.894
100.949
100.842
100.921
100.803
100.87
100.785
100.767
100.678
100.624
100.543
100.511
100.478
100.579
100.738
101.034
101.333
101.607
101.805
101.874
101.827
101.699
101.509
101.302
101.078
100.867
100.658
100.477
100.309
100.173
100.053
99.9623
99.89
99.8434
99.8142
99.8043
99.8069
99.8249
99.853
99.8961
99.9466
100.008
100.071
100.136
100.201
100.295
100.389
100.422
100.356
100.106
100.071
100.806
101.845
79.8896
79.1568
77.4998
75.5619
74.0592
72.7282
72.0281
71.6243
71.0686
70.8095
71.023
71.6876
72.6718
73.6833
74.6243
75.5096
76.3609
77.0566
77.654
78.4647
79.677
81.049
82.4015
83.5971
84.9691
86.6057
88.5081
90.304
91.9935
93.5765
95.447
97.2815
99.1516
101.033
102.433
103.443
103.844
103.952
103.679
103.224
102.728
102.256
101.734
101.211
100.849
100.542
100.478
100.425
100.534
100.445
100.564
100.455
100.539
100.464
100.427
100.336
100.272
100.191
100.17
100.146
100.278
100.472
100.791
101.134
101.428
101.667
101.761
101.731
101.614
101.428
101.227
101.005
100.8
100.592
100.415
100.245
100.11
99.9877
99.8961
99.8214
99.7733
99.7423
99.7297
99.7305
99.7453
99.7734
99.8143
99.8677
99.929
99.9967
100.061
100.134
100.226
100.353
100.406
100.341
99.9553
99.8353
100.514
101.573
79.6561
78.858
77.0581
75.051
73.4844
72.0362
71.2597
70.7117
69.9887
69.6086
69.6972
70.2829
71.2527
72.2742
73.2965
74.2059
75.045
75.7273
76.33
77.168
78.4013
79.8077
81.1937
82.3794
83.7298
85.4494
87.4843
89.391
91.1417
92.7256
94.5792
96.3932
98.1682
100.046
101.44
102.467
102.9
103.044
102.834
102.41
101.939
101.52
101.038
100.564
100.221
99.942
99.8995
99.8689
100.026
99.9442
100.109
100.013
100.111
100.059
100.012
99.9103
99.8403
99.7482
99.7415
99.729
99.8936
100.125
100.466
100.863
101.188
101.471
101.602
101.593
101.493
101.312
101.118
100.899
100.7
100.494
100.322
100.154
100.022
99.8991
99.8061
99.7293
99.6784
99.645
99.6279
99.6259
99.6359
99.6612
99.6983
99.7495
99.8103
99.8798
99.9516
100.03
100.135
100.266
100.356
100.292
99.8743
99.6847
100.39
101.418
79.4528
78.6082
76.6812
74.6154
72.9719
71.3963
70.45
69.6455
68.7115
68.1378
68.0856
68.6034
69.6485
70.7584
71.8959
72.8609
73.7363
74.4709
75.1185
75.982
77.2228
78.6648
80.0826
81.2728
82.6134
84.431
86.5847
88.5701
90.3627
91.9289
93.7384
95.5156
97.1761
99.0007
100.38
101.388
101.854
102.023
101.874
101.484
101.046
100.677
100.257
99.8179
99.4987
99.2628
99.2364
99.2358
99.4187
99.3628
99.5577
99.4846
99.5875
99.5626
99.4986
99.3922
99.3036
99.2154
99.2204
99.2395
99.431
99.716
100.085
100.532
100.896
101.219
101.392
101.409
101.331
101.158
100.974
100.758
100.569
100.366
100.203
100.035
99.9091
99.7848
99.6957
99.6145
99.5646
99.5251
99.5069
99.497
99.5039
99.5198
99.5532
99.5951
99.6538
99.719
99.7976
99.8839
99.998
100.141
100.238
100.217
99.8214
99.673
100.354
101.445
79.2958
78.4122
76.3641
74.234
72.5014
70.7873
69.5828
68.4654
67.3266
66.5313
66.3532
66.8158
67.9884
69.2634
70.5099
71.5605
72.5097
73.3464
74.086
74.9878
76.2487
77.7266
79.1702
80.3609
81.6925
83.5897
85.8144
87.8201
89.644
91.1927
92.9371
94.6418
96.1842
97.9141
99.2605
100.241
100.732
100.919
100.82
100.47
100.065
99.7432
99.3823
98.9723
98.6914
98.4914
98.4907
98.517
98.7254
98.7103
98.9184
98.8718
98.9574
98.9565
98.8514
98.7549
98.6488
98.588
98.6186
98.6843
98.9274
99.2668
99.6689
100.153
100.555
100.916
101.133
101.175
101.123
100.96
100.79
100.579
100.402
100.203
100.05
99.8856
99.7678
99.6448
99.5596
99.4784
99.4286
99.3876
99.3652
99.3516
99.35
99.3606
99.3816
99.417
99.4622
99.5243
99.596
99.6924
99.8079
99.9587
100.07
100.083
99.8082
99.7307
100.507
101.486
79.1812
78.2462
76.0896
73.8813
72.0287
70.1682
68.6403
67.2366
65.9627
64.9815
64.6803
65.1024
66.3994
67.8885
69.226
70.3654
71.4155
72.3947
73.2716
74.239
75.5274
77.0286
78.4845
79.6743
80.9933
82.9307
85.1602
87.1479
88.9721
90.4889
92.1594
93.7424
95.1787
96.8031
98.1013
99.0535
99.5501
99.7476
99.688
99.373
99.0007
98.7209
98.4187
98.0571
97.8255
97.664
97.6982
97.7353
97.9765
97.9861
98.1989
98.1815
98.2316
98.2544
98.1172
98.0554
97.9588
97.9377
98.0057
98.1237
98.4088
98.7891
99.2152
99.7346
100.177
100.568
100.83
100.897
100.869
100.719
100.563
100.359
100.195
100.002
99.8595
99.7013
99.5919
99.4748
99.3955
99.3174
99.2699
99.2288
99.2049
99.1871
99.1798
99.1818
99.1937
99.2156
99.2499
99.2955
99.3612
99.4464
99.566
99.7096
99.8443
99.9015
99.7703
99.8152
100.599
101.765
79.0765
78.0764
75.8222
73.5179
71.5084
69.5011
67.6525
66.0297
64.7032
63.59
63.207
63.5963
65.0054
66.709
68.1096
69.3312
70.5104
71.6502
72.6851
73.7312
75.0574
76.5688
78.0093
79.2008
80.4999
82.4224
84.5954
86.5304
88.3064
89.7833
91.3657
92.8271
94.1619
95.6815
96.9176
97.842
98.3295
98.5261
98.4892
98.2081
97.8698
97.6186
97.3792
97.0848
96.8984
96.7882
96.8558
96.9188
97.1858
97.2046
97.4185
97.4252
97.4345
97.4874
97.342
97.328
97.2475
97.2694
97.3638
97.5415
97.8462
98.2761
98.7378
99.2822
99.767
100.174
100.479
100.569
100.567
100.426
100.29
100.093
99.9453
99.7584
99.6294
99.4768
99.3817
99.2706
99.2042
99.1289
99.0892
99.0469
99.026
99.0022
98.9922
98.9842
98.9881
98.9958
99.0152
99.0449
99.0905
99.1639
99.2618
99.4062
99.5487
99.671
99.6861
99.8997
100.821
101.836
78.9433
77.8598
75.5327
73.1151
70.9325
68.8001
66.7014
64.9434
63.6369
62.4478
62.0439
62.4222
63.9371
65.8226
67.2398
68.5277
69.8362
71.1187
72.3031
73.4296
74.7969
76.3187
77.7188
78.9042
80.1763
82.027
84.0785
85.9241
87.618
89.0496
90.5265
91.885
93.131
94.55
95.7206
96.6171
97.0817
97.2636
97.2324
96.9838
96.6806
96.4584
96.2671
96.0438
95.924
95.8715
95.9718
96.0779
96.3527
96.3899
96.5985
96.6121
96.5832
96.6667
96.5131
96.5498
96.4791
96.5593
96.6881
96.9268
97.266
97.736
98.2354
98.7925
99.3187
99.7382
100.081
100.19
100.213
100.082
99.9651
99.777
99.6471
99.4683
99.3555
99.2123
99.1319
99.0319
98.9784
98.9137
98.8811
98.8444
98.8245
98.8001
98.784
98.7707
98.7618
98.7596
98.7593
98.7728
98.7929
98.8427
98.9186
99.0382
99.1971
99.3622
99.5411
99.8873
100.872
102.168
78.7259
77.5655
75.2026
72.698
70.3584
68.1516
65.9334
64.1282
62.8974
61.731
61.3542
61.7216
63.2886
65.2851
66.6808
68.0018
69.4176
70.8165
72.1173
73.315
74.6975
76.2141
77.5641
78.7418
79.9779
81.7203
83.5939
85.3175
86.9074
88.2781
89.646
90.9278
92.1131
93.4314
94.533
95.3915
95.8238
95.9807
95.9392
95.7144
95.4469
95.2573
95.1159
94.9713
94.9246
94.9302
95.0721
95.2197
95.5032
95.5687
95.754
95.7561
95.7122
95.8006
95.6691
95.7327
95.7177
95.8386
96.0176
96.2983
96.6753
97.1737
97.7111
98.2784
98.8445
99.271
99.6448
99.763
99.8113
99.688
99.5904
99.411
99.2997
99.1329
99.0388
98.9089
98.8446
98.7567
98.7184
98.6661
98.6469
98.6191
98.6047
98.5805
98.5614
98.5401
98.522
98.5034
98.4872
98.4751
98.4715
98.4889
98.5347
98.6284
98.7751
98.9895
99.2896
99.851
100.925
101.966
78.409
77.1757
74.8249
72.3006
69.9095
67.6862
65.4971
63.7242
62.6171
61.5511
61.2212
61.5529
63.1042
65.1279
66.4828
67.7851
69.2695
70.7424
72.1071
73.3565
74.7175
76.2058
77.4859
78.6525
79.8387
81.4386
83.1192
84.7131
86.1943
87.5014
88.7756
89.9917
91.131
92.3453
93.3696
94.1745
94.5659
94.6922
94.6316
94.4282
94.1934
94.0358
93.9412
93.8778
93.9151
93.9922
94.185
94.3715
94.6641
94.7482
94.9107
94.9049
94.8689
94.9506
94.8798
94.9517
95.0042
95.1415
95.36
95.6744
96.0837
96.6057
97.186
97.7584
98.3524
98.7782
99.1733
99.2961
99.3648
99.2483
99.1688
98.9985
98.9085
98.7563
98.6852
98.5692
98.5234
98.4489
98.428
98.3914
98.3873
98.3736
98.3682
98.3486
98.3266
98.2994
98.2686
98.2357
98.1964
98.1613
98.1242
98.1084
98.1143
98.1667
98.2933
98.5058
98.8905
99.5031
100.56
101.896
78.0277
76.7484
74.4713
71.9684
69.664
67.4922
65.4669
63.7906
62.8271
61.9193
61.6302
61.9171
63.3891
65.3619
66.6539
67.8815
69.3749
70.8728
72.2555
73.5352
74.8409
76.2658
77.4551
78.5882
79.7191
81.1586
82.6562
84.1277
85.5041
86.748
87.9436
89.0958
90.1918
91.2996
92.2401
92.97
93.3155
93.406
93.3211
93.1294
92.9274
92.8155
92.7755
92.798
92.9238
93.0834
93.3311
93.5585
93.8554
93.9511
94.0967
94.0943
94.0861
94.176
94.1737
94.2475
94.3555
94.4966
94.7531
95.0914
95.5266
96.0578
96.6717
97.2368
97.8514
98.2673
98.6776
98.7973
98.8861
98.7672
98.7067
98.5413
98.4821
98.3439
98.2998
98.1997
98.1752
98.1162
98.1142
98.0958
98.1099
98.1115
98.1199
98.1068
98.0866
98.0511
98.0097
97.9562
97.8964
97.829
97.7628
97.699
97.6654
97.6605
97.7409
97.9298
98.3176
99.0141
100.092
101.138
77.7018
76.3756
74.2247
71.7774
69.6432
67.6298
65.8306
64.3062
63.4941
62.7861
62.5426
62.7839
64.1007
65.9516
67.163
68.2802
69.7233
71.1932
72.54
73.8057
75.0381
76.3658
77.4662
78.5499
79.622
80.9002
82.2275
83.5751
84.8496
86.0316
87.1623
88.253
89.3004
90.2995
91.148
91.7827
92.0761
92.132
92.0271
91.8447
91.6809
91.6218
91.6445
91.7563
91.9762
92.2306
92.5343
92.7996
93.0972
93.206
93.3448
93.3661
93.3917
93.4997
93.5512
93.6345
93.7878
93.9374
94.2182
94.5638
95.0151
95.5405
96.1832
96.7301
97.3575
97.7465
98.1679
98.2712
98.3809
98.2464
98.2152
98.053
98.0381
97.9107
97.8988
97.808
97.8116
97.7646
97.7876
97.783
97.8227
97.8371
97.8658
97.8581
97.845
97.7994
97.7482
97.6706
97.589
97.4846
97.3819