/*--------------------------------*- C++ -*----------------------------------*\
| =========                 |                                                 |
| \\      /  F ield         | OpenFOAM: The Open Source CFD Toolbox           |
|  \\    /   O peration     | Version:  2.4.0                                 |
|   \\  /    A nd           | Web:      www.OpenFOAM.org                      |
|    \\/     M anipulation  |                                                 |
\*---------------------------------------------------------------------------*/
FoamFile
{
    version     2.0;
    format      ascii;
    class       volScalarField;
    location    "0.3";
    object      nuSgs;
}
// * * * * * * * * * * * * * * * * * * * * * * * * * * * * * * * * * * * * * //

dimensions      [0 2 -1 0 0 0 0];

internalField   nonuniform List<scalar> 
17600
(
0.00101262
0.000905006
0.000751884
0.000659951
0.000605997
0.000573877
0.000541464
0.000528615
0.000502585
0.000497927
0.000482507
0.000476017
0.000475716
0.000453558
0.000478163
0.000444381
0.000473919
0.00046779
0.000463637
0.000500295
0.000705229
0.000828346
0.000802896
0.000747653
0.000696661
0.000662388
0.000625504
0.000611633
0.000581135
0.000574619
0.000557452
0.000546877
0.000546798
0.000522391
0.000544069
0.000511083
0.000535751
0.000527133
0.000527153
0.00054881
0.00038186
0.000602899
0.00066367
0.000661817
0.000643383
0.000621992
0.000592172
0.00058186
0.000556869
0.000549681
0.000535603
0.000522361
0.000523699
0.000502115
0.000516851
0.00049163
0.000506737
0.000496025
0.000500697
0.000507924
0.000151341
0.000364484
0.000459294
0.00050844
0.000524414
0.000529098
0.000520103
0.000516695
0.00050396
0.000497862
0.000490279
0.000476929
0.000479596
0.000463361
0.000471267
0.000455402
0.000461066
0.000451487
0.000454763
0.000460178
5.3582e-05
0.000175908
0.000262733
0.000329044
0.000366334
0.000401273
0.000409124
0.000421772
0.000423204
0.000422579
0.000422811
0.000416769
0.000419737
0.000411161
0.000412735
0.000408552
0.000405537
0.000399151
0.000399464
0.000401419
1.73869e-05
7.16294e-05
0.00011908
0.00017679
0.000207722
0.000255456
0.0002769
0.000297572
0.000318025
0.00032356
0.000335118
0.000336148
0.000342299
0.000343565
0.000340866
0.00034719
0.000338424
0.000339088
0.000337405
0.000336455
5.5355e-06
2.68394e-05
4.64924e-05
7.64563e-05
9.6209e-05
0.000130113
0.000156988
0.000171031
0.000201106
0.000211461
0.000229528
0.000238057
0.000245914
0.000260791
0.00025687
0.000270809
0.000261616
0.000266938
0.000264181
0.000262956
2.28464e-06
9.78016e-06
1.67978e-05
2.75803e-05
3.70397e-05
5.19553e-05
7.34975e-05
8.19186e-05
0.000103445
0.000112573
0.000131077
0.000139663
0.000147793
0.000168156
0.000166538
0.000182367
0.000176008
0.000184258
0.000181667
0.000182215
1.75336e-06
4.41743e-06
6.4397e-06
9.58805e-06
1.27594e-05
1.78725e-05
2.79077e-05
3.24043e-05
4.39468e-05
4.89056e-05
6.19162e-05
6.6371e-05
7.32593e-05
8.83877e-05
8.82956e-05
0.000100665
9.78735e-05
0.00010484
0.000103511
0.000107095
1.66093e-06
3.22878e-06
3.46652e-06
4.25873e-06
4.96893e-06
6.2513e-06
9.63996e-06
1.12315e-05
1.58929e-05
1.79662e-05
2.45461e-05
2.62969e-05
2.97826e-05
3.77141e-05
3.76089e-05
4.47825e-05
4.39545e-05
4.71352e-05
4.7357e-05
4.92882e-05
1.56586e-06
2.2519e-06
2.45764e-06
3.379e-06
3.49158e-06
3.65097e-06
4.4217e-06
4.62783e-06
5.83388e-06
6.69574e-06
9.20203e-06
9.69099e-06
1.09455e-05
1.42109e-05
1.37948e-05
1.69027e-05
1.65359e-05
1.70797e-05
1.76636e-05
1.78202e-05
1.57614e-06
2.00365e-06
2.93166e-06
3.26941e-06
3.20339e-06
3.72584e-06
3.76013e-06
3.54489e-06
3.70617e-06
3.89747e-06
4.50415e-06
4.73022e-06
5.3957e-06
6.24588e-06
6.00007e-06
6.82543e-06
6.66272e-06
6.93554e-06
7.01274e-06
6.94111e-06
1.6272e-06
2.1065e-06
3.10334e-06
3.03528e-06
2.83368e-06
3.10524e-06
3.09277e-06
3.10189e-06
3.17349e-06
3.21958e-06
3.30118e-06
3.48002e-06
3.73718e-06
4.0976e-06
4.0256e-06
4.05339e-06
3.97682e-06
4.23616e-06
4.32044e-06
4.65234e-06
1.55915e-06
1.86363e-06
2.49542e-06
2.46356e-06
2.43926e-06
2.42354e-06
2.63092e-06
3.01051e-06
3.07417e-06
3.16082e-06
3.18076e-06
3.16405e-06
3.1553e-06
3.42437e-06
3.40508e-06
3.35285e-06
3.35472e-06
3.42739e-06
3.49069e-06
4.38195e-06
1.52275e-06
1.69143e-06
2.07902e-06
2.3485e-06
2.35846e-06
2.3601e-06
2.61989e-06
2.7252e-06
2.85278e-06
2.88568e-06
2.86158e-06
2.77842e-06
2.76581e-06
2.95049e-06
2.94341e-06
2.97428e-06
3.11536e-06
3.09509e-06
3.1344e-06
4.29779e-06
1.51787e-06
1.6856e-06
2.10038e-06
2.34899e-06
2.31689e-06
2.34025e-06
2.35865e-06
2.35396e-06
2.47733e-06
2.56449e-06
2.55291e-06
2.52908e-06
2.52582e-06
2.57533e-06
2.64038e-06
2.89979e-06
2.89781e-06
2.81943e-06
3.10741e-06
3.65014e-06
1.5283e-06
1.67909e-06
2.00407e-06
2.1869e-06
2.25238e-06
2.24737e-06
2.23214e-06
2.2204e-06
2.28852e-06
2.38061e-06
2.42319e-06
2.44351e-06
2.43662e-06
2.44911e-06
2.57784e-06
2.75196e-06
2.70049e-06
2.6588e-06
2.91513e-06
2.94176e-06
1.50981e-06
1.64964e-06
1.87461e-06
2.09814e-06
2.25983e-06
2.24968e-06
2.25915e-06
2.2524e-06
2.25609e-06
2.28823e-06
2.40509e-06
2.43574e-06
2.43034e-06
2.43933e-06
2.55422e-06
2.58577e-06
2.56753e-06
2.65454e-06
2.6782e-06
2.8413e-06
1.51007e-06
1.66782e-06
1.96157e-06
2.11995e-06
2.13764e-06
2.15803e-06
2.21678e-06
2.21706e-06
2.22233e-06
2.24135e-06
2.31802e-06
2.33213e-06
2.31921e-06
2.33732e-06
2.36172e-06
2.39252e-06
2.42672e-06
2.54734e-06
2.50904e-06
2.93485e-06
1.50726e-06
1.72469e-06
1.81542e-06
2.00471e-06
2.16658e-06
2.20717e-06
2.21699e-06
2.18724e-06
2.17043e-06
2.16795e-06
2.2025e-06
2.24321e-06
2.24433e-06
2.25852e-06
2.25425e-06
2.2874e-06
2.40052e-06
2.40639e-06
2.40865e-06
2.7599e-06
1.51192e-06
1.66868e-06
1.77488e-06
2.08511e-06
2.20459e-06
2.19277e-06
2.15755e-06
2.11102e-06
2.10889e-06
2.12542e-06
2.19469e-06
2.22128e-06
2.21849e-06
2.21676e-06
2.21981e-06
2.23011e-06
2.32938e-06
2.32752e-06
2.37224e-06
2.62867e-06
1.51312e-06
1.64656e-06
1.93054e-06
2.15473e-06
2.15789e-06
2.0954e-06
2.06856e-06
2.07028e-06
2.14147e-06
2.20529e-06
2.23367e-06
2.24339e-06
2.22276e-06
2.20539e-06
2.20612e-06
2.21495e-06
2.26322e-06
2.31457e-06
2.43255e-06
2.74589e-06
1.51337e-06
1.72568e-06
1.94714e-06
2.04443e-06
2.03663e-06
2.03596e-06
2.11084e-06
2.17483e-06
2.24771e-06
2.23625e-06
2.23722e-06
2.24077e-06
2.21085e-06
2.22645e-06
2.23061e-06
2.27277e-06
2.4239e-06
2.47326e-06
2.56689e-06
2.68581e-06
1.5185e-06
1.68189e-06
1.90402e-06
2.02212e-06
2.13384e-06
2.1619e-06
2.20378e-06
2.24665e-06
2.24928e-06
2.22659e-06
2.25512e-06
2.24011e-06
2.23729e-06
2.32795e-06
2.37661e-06
2.5221e-06
2.56775e-06
2.61153e-06
2.59407e-06
2.70957e-06
1.52442e-06
1.75405e-06
1.95466e-06
2.19774e-06
2.24202e-06
2.22037e-06
2.24195e-06
2.31133e-06
2.3198e-06
2.34963e-06
2.38697e-06
2.38009e-06
2.45503e-06
2.54326e-06
2.55887e-06
2.67674e-06
2.65561e-06
2.67292e-06
2.70125e-06
3.03461e-06
1.5365e-06
1.83441e-06
2.01944e-06
2.2368e-06
2.2425e-06
2.25206e-06
2.41691e-06
2.46732e-06
2.50676e-06
2.5606e-06
2.55408e-06
2.57868e-06
2.69606e-06
2.68856e-06
2.71487e-06
2.73722e-06
2.75224e-06
2.82627e-06
3.05014e-06
3.74634e-06
1.54626e-06
1.84941e-06
2.03676e-06
2.21904e-06
2.36207e-06
2.53677e-06
2.64536e-06
2.61724e-06
2.67697e-06
2.68181e-06
2.71231e-06
2.86847e-06
2.87051e-06
2.88018e-06
2.92822e-06
2.99772e-06
3.1597e-06
3.55325e-06
4.3923e-06
6.62e-06
1.55177e-06
1.83438e-06
2.15042e-06
2.38506e-06
2.66481e-06
2.71098e-06
2.76812e-06
2.7534e-06
2.87066e-06
2.90129e-06
3.12303e-06
3.19453e-06
3.23049e-06
3.35893e-06
3.54095e-06
4.04432e-06
4.73797e-06
6.10459e-06
8.72578e-06
1.47517e-05
1.59957e-06
1.84558e-06
2.45589e-06
2.55773e-06
2.82891e-06
2.86954e-06
3.08398e-06
3.17022e-06
3.50478e-06
3.61878e-06
4.00956e-06
4.18527e-06
4.59462e-06
5.54541e-06
6.44656e-06
8.60012e-06
1.07088e-05
1.4629e-05
2.10503e-05
3.50732e-05
1.58668e-06
1.94056e-06
2.68784e-06
2.8467e-06
3.29467e-06
3.57527e-06
4.38165e-06
4.85246e-06
5.72035e-06
6.63644e-06
7.6823e-06
9.33975e-06
1.11623e-05
1.46819e-05
1.72347e-05
2.30803e-05
2.78074e-05
3.68428e-05
4.87263e-05
7.73489e-05
1.63177e-06
2.4433e-06
3.16208e-06
4.00465e-06
5.44078e-06
6.7952e-06
9.52284e-06
1.18422e-05
1.45176e-05
1.853e-05
2.16363e-05
2.7323e-05
3.16616e-05
4.01515e-05
4.52993e-05
5.70351e-05
6.52207e-05
8.19681e-05
9.87024e-05
0.000142563
1.74406e-06
4.08892e-06
6.28414e-06
9.14848e-06
1.40421e-05
1.85431e-05
2.73386e-05
3.27016e-05
4.18904e-05
5.08018e-05
5.78577e-05
7.00206e-05
7.78635e-05
9.24301e-05
0.000100336
0.000117857
0.000128923
0.000151078
0.000170391
0.000221346
2.3356e-06
9.85062e-06
1.67491e-05
2.56714e-05
4.09071e-05
5.17002e-05
7.21854e-05
8.29713e-05
0.000103003
0.000114172
0.000129929
0.000143565
0.000156637
0.000172604
0.00018186
0.000200887
0.00021184
0.000233059
0.000250269
0.000291362
5.60597e-06
2.66858e-05
4.65648e-05
7.05552e-05
0.00010524
0.000124392
0.000158498
0.000174019
0.000200293
0.00021252
0.000231071
0.000241697
0.000255054
0.00026522
0.000273767
0.000286402
0.00029399
0.000308822
0.000320688
0.000347254
1.74978e-05
7.04577e-05
0.000121278
0.000171122
0.000217366
0.000247202
0.000282294
0.000297477
0.000317698
0.000324906
0.000336488
0.000339987
0.000347161
0.00034964
0.000354374
0.000358476
0.000362735
0.00036944
0.000376101
0.000388504
5.38514e-05
0.000173617
0.000264377
0.000326376
0.000371738
0.000395498
0.00041485
0.000418711
0.000424879
0.000422985
0.000423598
0.000420589
0.000420496
0.0004175
0.00041746
0.000415655
0.000416008
0.000415519
0.000416696
0.000415752
0.00015211
0.000363314
0.000460732
0.00050677
0.00052735
0.00052662
0.00052329
0.000513235
0.000507436
0.000494907
0.000490483
0.000479906
0.000476714
0.000467968
0.000465403
0.000457753
0.000454837
0.000447301
0.000441265
0.000429252
0.000383628
0.000601357
0.000664496
0.000661212
0.000645391
0.000618022
0.000597097
0.000575615
0.000562428
0.000544217
0.000536609
0.000521354
0.000516302
0.000503456
0.000498723
0.000485514
0.000478987
0.000463188
0.000449529
0.000426856
0.000706188
0.000827004
0.000803587
0.000746254
0.000699088
0.000658827
0.000629936
0.000604081
0.00058727
0.000567237
0.00055793
0.000540912
0.000534694
0.000518827
0.000512306
0.000494084
0.000483996
0.000460154
0.000437711
0.000402873
0.00101335
0.000903775
0.000753194
0.000658218
0.000607672
0.000570847
0.000544724
0.000521792
0.000506739
0.000489906
0.000481558
0.000466548
0.000460472
0.000444478
0.000437369
0.000417244
0.000404719
0.000376509
0.00034901
0.000308172
0.000226201
0.000181329
0.000174419
0.00017119
0.000154713
0.000127882
0.000116471
0.000112485
0.00011287
0.000114967
0.000123082
0.000124251
0.000116182
8.53044e-05
5.86706e-05
3.98608e-05
2.88388e-05
2.28476e-05
2.28248e-05
2.58057e-05
2.81955e-05
2.65137e-05
2.78456e-05
4.10798e-05
0.000101635
0.000127229
0.000130634
0.000130301
0.000101806
7.29104e-05
6.75016e-05
6.50438e-05
5.51198e-05
5.06524e-05
5.62471e-05
6.51661e-05
6.77566e-05
6.65962e-05
6.01737e-05
5.25869e-05
4.64093e-05
4.31199e-05
4.31078e-05
4.56135e-05
4.98112e-05
5.83031e-05
6.30653e-05
6.35405e-05
5.90866e-05
4.23478e-05
2.75954e-05
2.39767e-05
3.20811e-05
5.81846e-05
6.70164e-05
6.5433e-05
5.56986e-05
4.89811e-05
4.58317e-05
4.50622e-05
4.29315e-05
4.18816e-05
4.13327e-05
4.01832e-05
3.68363e-05
3.29213e-05
3.09078e-05
2.98565e-05
2.98374e-05
2.95283e-05
2.95313e-05
2.9679e-05
3.01046e-05
3.1604e-05
3.31993e-05
3.71028e-05
4.19812e-05
4.31953e-05
4.60287e-05
5.01465e-05
5.09811e-05
4.91398e-05
4.31558e-05
3.98504e-05
3.66863e-05
3.19523e-05
2.8538e-05
2.60705e-05
2.41438e-05
2.21736e-05
1.93987e-05
1.81188e-05
1.73737e-05
1.65309e-05
1.63276e-05
1.61807e-05
1.62073e-05
1.66941e-05
1.69872e-05
1.70909e-05
1.73546e-05
1.78332e-05
1.82493e-05
1.85177e-05
1.90349e-05
1.99678e-05
2.04745e-05
2.13915e-05
2.3539e-05
2.83365e-05
3.88732e-05
4.49954e-05
4.68688e-05
4.71041e-05
4.66478e-05
4.6551e-05
4.66052e-05
4.64674e-05
4.57486e-05
4.49599e-05
4.43247e-05
4.40504e-05
4.41264e-05
4.44296e-05
4.43918e-05
4.37796e-05
4.15388e-05
4.02688e-05
4.05897e-05
4.28456e-05
5.44744e-05
6.67739e-05
6.827e-05
6.34226e-05
5.06551e-05
4.44522e-05
3.8694e-05
3.60289e-05
3.45903e-05
3.11494e-05
2.94924e-05
2.6619e-05
2.54585e-05
2.52868e-05
2.47859e-05
2.35944e-05
2.26415e-05
2.2072e-05
2.17164e-05
2.17921e-05
2.23239e-05
2.50064e-05
2.73129e-05
2.92183e-05
3.40647e-05
3.75856e-05
3.85317e-05
3.86926e-05
3.86701e-05
3.83234e-05
3.72935e-05
3.39948e-05
3.10303e-05
3.05485e-05
3.1683e-05
3.72087e-05
4.24642e-05
4.39676e-05
4.33938e-05
4.20721e-05
4.19973e-05
4.13094e-05
4.03798e-05
3.68366e-05
3.3535e-05
2.89458e-05
2.78042e-05
2.55295e-05
2.56432e-05
2.51191e-05
2.55619e-05
2.5382e-05
2.53331e-05
2.57539e-05
2.80368e-05
3.19858e-05
3.8733e-05
3.78817e-05
4.20701e-05
4.25747e-05
4.7863e-05
5.39805e-05
6.73774e-05
7.27513e-05
8.90013e-05
7.8162e-05
7.78483e-05
6.53871e-05
8.03781e-05
0.00012334
0.000271221
0.000213073
0.00019365
0.000179051
0.000162955
0.000148103
0.000137406
0.000127776
0.000124262
0.000126782
0.000131468
0.0001274
0.000105153
7.43537e-05
5.10725e-05
3.48181e-05
2.49595e-05
1.98139e-05
1.95695e-05
2.21586e-05
2.77099e-05
2.75728e-05
2.82877e-05
3.89634e-05
8.60885e-05
0.00013197
0.000134608
0.000129897
9.70987e-05
7.36437e-05
6.81148e-05
6.36692e-05
5.41278e-05
5.2183e-05
5.79912e-05
6.54049e-05
6.6458e-05
6.53505e-05
5.96933e-05
5.37089e-05
4.95364e-05
4.78517e-05
4.87982e-05
5.18788e-05
5.53858e-05
6.25461e-05
6.53257e-05
6.45242e-05
5.6027e-05
3.80287e-05
2.51384e-05
2.36135e-05
3.543e-05
6.20459e-05
6.83451e-05
6.51786e-05
5.494e-05
4.90188e-05
4.59889e-05
4.505e-05
4.27416e-05
4.19158e-05
4.12843e-05
3.97735e-05
3.58588e-05
3.19433e-05
2.9952e-05
2.92063e-05
2.92577e-05
2.91424e-05
2.90525e-05
2.91323e-05
2.92952e-05
3.00884e-05
3.16366e-05
3.51472e-05
4.10881e-05
4.26434e-05
4.51107e-05
4.88113e-05
4.99083e-05
4.87949e-05
4.34805e-05
3.99441e-05
3.67144e-05
3.20274e-05
2.87923e-05
2.62942e-05
2.41882e-05
2.21553e-05
1.94703e-05
1.80275e-05
1.7475e-05
1.67509e-05
1.66059e-05
1.63264e-05
1.62904e-05
1.67203e-05
1.7169e-05
1.71586e-05
1.71443e-05
1.7226e-05
1.74023e-05
1.76253e-05
1.80592e-05
1.92555e-05
2.03543e-05
2.11303e-05
2.22682e-05
2.47085e-05
2.97631e-05
3.94845e-05
4.46033e-05
4.60837e-05
4.61446e-05
4.64314e-05
4.65908e-05
4.64624e-05
4.58766e-05
4.50217e-05
4.44011e-05
4.41269e-05
4.41979e-05
4.41384e-05
4.3528e-05
4.14905e-05
3.90829e-05
3.87856e-05
4.01026e-05
4.40079e-05
5.92033e-05
6.90824e-05
6.92072e-05
6.13243e-05
4.92392e-05
4.34476e-05
3.78751e-05
3.60106e-05
3.43667e-05
3.0373e-05
2.86347e-05
2.55806e-05
2.48106e-05
2.48725e-05
2.46763e-05
2.33918e-05
2.28049e-05
2.23196e-05
2.17068e-05
2.14301e-05
2.16788e-05
2.3699e-05
2.60148e-05
2.79753e-05
3.29425e-05
3.68909e-05
3.79734e-05
3.8183e-05
3.82961e-05
3.81688e-05
3.7531e-05
3.48603e-05
3.14729e-05
3.06347e-05
3.12592e-05
3.56331e-05
4.14379e-05
4.33415e-05
4.30233e-05
4.1526e-05
4.158e-05
4.10964e-05
4.04639e-05
3.79062e-05
3.51119e-05
3.0139e-05
2.83578e-05
2.57423e-05
2.524e-05
2.48945e-05
2.45625e-05
2.46609e-05
2.45551e-05
2.60788e-05
2.75438e-05
3.29349e-05
3.57489e-05
3.59715e-05
4.17091e-05
4.19291e-05
4.48434e-05
4.99581e-05
6.28194e-05
6.91589e-05
9.61652e-05
8.86241e-05
9.3876e-05
7.41887e-05
9.14252e-05
0.000116933
0.000257491
0.000242386
0.000218815
0.000194735
0.000180329
0.000162702
0.000146926
0.000138182
0.000138191
0.000139638
0.000136439
0.000121708
8.70908e-05
5.97756e-05
3.76424e-05
2.43903e-05
1.84763e-05
1.58768e-05
1.58666e-05
1.73708e-05
2.48858e-05
2.74795e-05
2.83734e-05
3.77351e-05
6.95972e-05
0.000129885
0.000138046
0.000128092
9.47699e-05
7.54689e-05
6.9007e-05
6.28194e-05
5.413e-05
5.33174e-05
5.85986e-05
6.46533e-05
6.57072e-05
6.52392e-05
6.16473e-05
5.90826e-05
5.70877e-05
5.60995e-05
5.72695e-05
5.83407e-05
6.0859e-05
6.62309e-05
6.71719e-05
6.48724e-05
5.11338e-05
3.37625e-05
2.33624e-05
2.33245e-05
4.02366e-05
6.53593e-05
6.94744e-05
6.44217e-05
5.46438e-05
4.9053e-05
4.6069e-05
4.48055e-05
4.26069e-05
4.19193e-05
4.12009e-05
3.93576e-05
3.50764e-05
3.13973e-05
2.9658e-05
2.90254e-05
2.9124e-05
2.90386e-05
2.87312e-05
2.87682e-05
2.88282e-05
2.92031e-05
3.03499e-05
3.33053e-05
3.97617e-05
4.21479e-05
4.45158e-05
4.76493e-05
4.88973e-05
4.8409e-05
4.38516e-05
4.00046e-05
3.6691e-05
3.20375e-05
2.88717e-05
2.64715e-05
2.41854e-05
2.20445e-05
1.95656e-05
1.80015e-05
1.75656e-05
1.69877e-05
1.67812e-05
1.65967e-05
1.65187e-05
1.6843e-05
1.72977e-05
1.72777e-05
1.70453e-05
1.68611e-05
1.68661e-05
1.69335e-05
1.72152e-05
1.83937e-05
2.00984e-05
2.1289e-05
2.20191e-05
2.31218e-05
2.54717e-05
3.0603e-05
3.90061e-05
4.28886e-05
4.43025e-05
4.55628e-05
4.57214e-05
4.5515e-05
4.46868e-05
4.37521e-05
4.34814e-05
4.33264e-05
4.31699e-05
4.2652e-05
4.07831e-05
3.8096e-05
3.71857e-05
3.7674e-05
4.00177e-05
4.60541e-05
6.37747e-05
7.09551e-05
6.97212e-05
5.89635e-05
4.8026e-05
4.24878e-05
3.74044e-05
3.59519e-05
3.35033e-05
2.91787e-05
2.76006e-05
2.4617e-05
2.39554e-05
2.40568e-05
2.41847e-05
2.32351e-05
2.29362e-05
2.28091e-05
2.21033e-05
2.13862e-05
2.13767e-05
2.25649e-05
2.47086e-05
2.66676e-05
3.17733e-05
3.60926e-05
3.73584e-05
3.77076e-05
3.80148e-05
3.79681e-05
3.75887e-05
3.55052e-05
3.19499e-05
3.07375e-05
3.10359e-05
3.42262e-05
4.04745e-05
4.261e-05
4.25838e-05
4.10076e-05
4.10664e-05
4.06577e-05
4.03852e-05
3.8735e-05
3.68489e-05
3.18387e-05
2.91638e-05
2.61836e-05
2.50315e-05
2.4327e-05
2.39735e-05
2.40453e-05
2.42837e-05
2.60844e-05
2.73544e-05
3.35841e-05
3.34451e-05
3.42987e-05
3.78651e-05
3.87039e-05
4.27095e-05
4.57744e-05
5.42916e-05
6.17459e-05
9.28478e-05
9.4413e-05
0.000111494
8.74279e-05
0.000102314
0.000110397
0.000234927
0.000229965
0.000212219
0.000199091
0.00018817
0.000175285
0.000162489
0.000152247
0.000149391
0.000144566
0.000133537
9.76311e-05
6.64708e-05
4.2026e-05
2.542e-05
1.83049e-05
1.57376e-05
1.42314e-05
1.43507e-05
1.44712e-05
1.92067e-05
2.5799e-05
2.77698e-05
3.55489e-05
6.09245e-05
0.000122631
0.000137921
0.000126784
9.39966e-05
7.72913e-05
7.03245e-05
6.28119e-05
5.50177e-05
5.46415e-05
5.92284e-05
6.48028e-05
6.73515e-05
6.85174e-05
6.89599e-05
6.9888e-05
6.89473e-05
6.63841e-05
6.45088e-05
6.36312e-05
6.57782e-05
6.84822e-05
6.79442e-05
6.25504e-05
4.50011e-05
2.94304e-05
2.18061e-05
2.35068e-05
4.54708e-05
6.77141e-05
7.02421e-05
6.36342e-05
5.44256e-05
4.91167e-05
4.61382e-05
4.45309e-05
4.25642e-05
4.17872e-05
4.09923e-05
3.91275e-05
3.4557e-05
3.07518e-05
2.94069e-05
2.89818e-05
2.91252e-05
2.90279e-05
2.8583e-05
2.84872e-05
2.8502e-05
2.8706e-05
2.94901e-05
3.17656e-05
3.86512e-05
4.15548e-05
4.38635e-05
4.69068e-05
4.81736e-05
4.78705e-05
4.4002e-05
4.00692e-05
3.66126e-05
3.20066e-05
2.88431e-05
2.65946e-05
2.40743e-05
2.16508e-05
1.95259e-05
1.80539e-05
1.75984e-05
1.71825e-05
1.68728e-05
1.68219e-05
1.68641e-05
1.70686e-05
1.73593e-05
1.73544e-05
1.70727e-05
1.66445e-05
1.64947e-05
1.6492e-05
1.66609e-05
1.75312e-05
1.97353e-05
2.16893e-05
2.23068e-05
2.28625e-05
2.38855e-05
2.59782e-05
3.18647e-05
3.56473e-05
3.93323e-05
4.23066e-05
4.25669e-05
4.23072e-05
4.12214e-05
4.06116e-05
4.07131e-05
4.06125e-05
4.02896e-05
3.92525e-05
3.65735e-05
3.56857e-05
3.58418e-05
3.72514e-05
4.09031e-05
4.94284e-05
6.76025e-05
7.24461e-05
6.96309e-05
5.66588e-05
4.7467e-05
4.21477e-05
3.71917e-05
3.56945e-05
3.20905e-05
2.79133e-05
2.67336e-05
2.44442e-05
2.30937e-05
2.29285e-05
2.34612e-05
2.33498e-05
2.31161e-05
2.30821e-05
2.2637e-05
2.14859e-05
2.13636e-05
2.20454e-05
2.36861e-05
2.553e-05
3.05327e-05
3.50608e-05
3.66272e-05
3.7093e-05
3.77341e-05
3.78509e-05
3.75893e-05
3.59815e-05
3.23893e-05
3.09015e-05
3.09905e-05
3.30793e-05
3.9651e-05
4.20091e-05
4.22269e-05
4.07066e-05
4.06931e-05
4.0277e-05
4.03037e-05
3.94511e-05
3.80087e-05
3.35275e-05
3.08411e-05
2.71143e-05
2.53915e-05
2.41838e-05
2.38283e-05
2.3842e-05
2.44717e-05
2.5618e-05
2.72989e-05
3.23728e-05
3.28768e-05
3.41481e-05
3.676e-05
3.7338e-05
4.03216e-05
4.31034e-05
4.7291e-05
5.50803e-05
7.46121e-05
8.7842e-05
0.000118621
0.000103688
0.000111574
0.000111844
0.000210464
0.00020458
0.000188854
0.000176445
0.000168243
0.000165076
0.000160211
0.000152845
0.000147155
0.0001371
0.000105349
7.0601e-05
4.48417e-05
2.72598e-05
1.71994e-05
1.41593e-05
1.34751e-05
1.26463e-05
1.33307e-05
1.33311e-05
1.41609e-05
2.20227e-05
2.5937e-05
3.19257e-05
5.48192e-05
0.000108438
0.000134769
0.000126284
9.39262e-05
8.00169e-05
7.22277e-05
6.35345e-05
5.638e-05
5.60445e-05
6.25447e-05
6.79104e-05
7.07513e-05
7.43065e-05
7.65875e-05
7.64426e-05
7.37742e-05
6.9067e-05
6.61859e-05
6.61412e-05
6.89126e-05
6.95414e-05
6.79756e-05
5.69572e-05
3.90532e-05
2.55674e-05
2.06062e-05
2.42539e-05
5.06722e-05
7.00231e-05
7.09212e-05
6.28468e-05
5.42514e-05
4.93438e-05
4.62881e-05
4.43204e-05
4.25154e-05
4.14847e-05
4.07483e-05
3.88973e-05
3.40253e-05
3.02539e-05
2.92901e-05
2.89854e-05
2.91884e-05
2.90811e-05
2.85772e-05
2.82916e-05
2.82858e-05
2.8411e-05
2.89535e-05
3.07681e-05
3.73106e-05
4.08832e-05
4.31988e-05
4.61447e-05
4.757e-05
4.73987e-05
4.41444e-05
4.02952e-05
3.66757e-05
3.21455e-05
2.88083e-05
2.66095e-05
2.38081e-05
2.10015e-05
1.93835e-05
1.82946e-05
1.77003e-05
1.73238e-05
1.69316e-05
1.69243e-05
1.72072e-05
1.72866e-05
1.74243e-05
1.74103e-05
1.70789e-05
1.6578e-05
1.63393e-05
1.62874e-05
1.63912e-05
1.70581e-05
1.94407e-05
2.17223e-05
2.24766e-05
2.30326e-05
2.37549e-05
2.46508e-05
2.77546e-05
2.96478e-05
3.27329e-05
3.64094e-05
3.6931e-05
3.66576e-05
3.54867e-05
3.55319e-05
3.66892e-05
3.66533e-05
3.634e-05
3.52005e-05
3.43811e-05
3.44226e-05
3.51705e-05
3.75424e-05
4.2252e-05
5.37201e-05
7.05312e-05
7.36464e-05
6.84527e-05
5.52765e-05
4.73209e-05
4.20506e-05
3.70769e-05
3.51989e-05
3.07027e-05
2.75319e-05
2.63956e-05
2.44593e-05
2.2865e-05
2.19198e-05
2.27655e-05
2.40205e-05
2.383e-05
2.34794e-05
2.26413e-05
2.16911e-05
2.14332e-05
2.18544e-05
2.2948e-05
2.46096e-05
2.94282e-05
3.42975e-05
3.60217e-05
3.64835e-05
3.73608e-05
3.76581e-05
3.75356e-05
3.63243e-05
3.28353e-05
3.1119e-05
3.10765e-05
3.2308e-05
3.85999e-05
4.14382e-05
4.19242e-05
4.06785e-05
4.06406e-05
4.02766e-05
4.03822e-05
3.99343e-05
3.88162e-05
3.50703e-05
3.2259e-05
2.82831e-05
2.63481e-05
2.44574e-05
2.39506e-05
2.39544e-05
2.51683e-05
2.61229e-05
2.89434e-05
2.99708e-05
3.27301e-05
3.48663e-05
3.61113e-05
3.74853e-05
3.96324e-05
4.30696e-05
4.59874e-05
5.12994e-05
6.54645e-05
7.99667e-05
0.000113257
0.000112385
0.000109113
0.000111607
0.000177621
0.000174102
0.000166777
0.000151655
0.000142847
0.000139129
0.000135044
0.00012962
0.000122144
0.000101223
6.9523e-05
4.51792e-05
2.88196e-05
1.71467e-05
1.17118e-05
1.1548e-05
1.1494e-05
1.11131e-05
1.22836e-05
1.24673e-05
1.30036e-05
1.71812e-05
2.26241e-05
2.9162e-05
5.20435e-05
9.23819e-05
0.000125444
0.000123904
9.5345e-05
8.32633e-05
7.32765e-05
6.35648e-05
5.81967e-05
6.06358e-05
6.80118e-05
7.26735e-05
7.77767e-05
7.95102e-05
7.88801e-05
7.72187e-05
7.31291e-05
6.8474e-05
6.69387e-05
6.85016e-05
7.03171e-05
6.98585e-05
6.57328e-05
4.88976e-05
3.26438e-05
2.20283e-05
1.97638e-05
2.57212e-05
5.56156e-05
7.17384e-05
7.15553e-05
6.19766e-05
5.42145e-05
4.97552e-05
4.66156e-05
4.4051e-05
4.23961e-05
4.11327e-05
4.05007e-05
3.87534e-05
3.38191e-05
3.01391e-05
2.92307e-05
2.89712e-05
2.92494e-05
2.92482e-05
2.87155e-05
2.82513e-05
2.81339e-05
2.81837e-05
2.85632e-05
3.00567e-05
3.62977e-05
3.99855e-05
4.21201e-05
4.55055e-05
4.72247e-05
4.70762e-05
4.42601e-05
4.05873e-05
3.6821e-05
3.22898e-05
2.87382e-05
2.65123e-05
2.35214e-05
2.06225e-05
1.9418e-05
1.89047e-05
1.81235e-05
1.75288e-05
1.70385e-05
1.70179e-05
1.74192e-05
1.74953e-05
1.75987e-05
1.75456e-05
1.70693e-05
1.6578e-05
1.6337e-05
1.62467e-05
1.6321e-05
1.68295e-05
1.91604e-05
2.14863e-05
2.22621e-05
2.33977e-05
2.39734e-05
2.47701e-05
2.6367e-05
2.70631e-05
2.85031e-05
3.12688e-05
3.18036e-05
3.16468e-05
3.09839e-05
3.12736e-05
3.27257e-05
3.32019e-05
3.34032e-05
3.32963e-05
3.33413e-05
3.3709e-05
3.49863e-05
3.83863e-05
4.36614e-05
5.77495e-05
7.29391e-05
7.43544e-05
6.66968e-05
5.47458e-05
4.74268e-05
4.20716e-05
3.70489e-05
3.48416e-05
3.03388e-05
2.74626e-05
2.61448e-05
2.46768e-05
2.29524e-05
2.16168e-05
2.19942e-05
2.50528e-05
2.5277e-05
2.41615e-05
2.2574e-05
2.17839e-05
2.16481e-05
2.19401e-05
2.2649e-05
2.39753e-05
2.82858e-05
3.33244e-05
3.5256e-05
3.59517e-05
3.70041e-05
3.75044e-05
3.74462e-05
3.65976e-05
3.33013e-05
3.12964e-05
3.11232e-05
3.18255e-05
3.76181e-05
4.08874e-05
4.19137e-05
4.07795e-05
4.06698e-05
4.05007e-05
4.06351e-05
4.01344e-05
3.91203e-05
3.63669e-05
3.37539e-05
2.92188e-05
2.70582e-05
2.50172e-05
2.46974e-05
2.46041e-05
2.54211e-05
2.77176e-05
2.96601e-05
3.06655e-05
3.39594e-05
3.43358e-05
3.55769e-05
3.94625e-05
3.97104e-05
4.29123e-05
4.68353e-05
5.27846e-05
5.61813e-05
7.24402e-05
0.000122044
0.000118121
0.000111737
0.00011183
0.000139252
0.000138207
0.000136537
0.000127374
0.000118555
0.000111648
0.000105028
9.89985e-05
8.61711e-05
6.39736e-05
4.32026e-05
2.7839e-05
1.73968e-05
1.0873e-05
8.83177e-06
8.66007e-06
8.3903e-06
8.6571e-06
1.11944e-05
1.20811e-05
1.29564e-05
1.5675e-05
1.87638e-05
2.59536e-05
4.93531e-05
8.38661e-05
0.000113418
0.000118008
9.82139e-05
8.61521e-05
7.33103e-05
6.44952e-05
6.28538e-05
6.70174e-05
7.51845e-05
8.25659e-05
8.5133e-05
8.32353e-05
7.97796e-05
7.5318e-05
7.05881e-05
6.81727e-05
6.82494e-05
6.99697e-05
7.03453e-05
6.85054e-05
5.83887e-05
4.06178e-05
2.70335e-05
1.97977e-05
1.92358e-05
2.78849e-05
6.0321e-05
7.33691e-05
7.19196e-05
6.11125e-05
5.44996e-05
5.05278e-05
4.6949e-05
4.37518e-05
4.22058e-05
4.07429e-05
4.02372e-05
3.86675e-05
3.36691e-05
3.01035e-05
2.91353e-05
2.8803e-05
2.91307e-05
2.9328e-05
2.88374e-05
2.84895e-05
2.81733e-05
2.80972e-05
2.82983e-05
2.95235e-05
3.51522e-05
3.91213e-05
4.10862e-05
4.46092e-05
4.68041e-05
4.68168e-05
4.43903e-05
4.10629e-05
3.70987e-05
3.2541e-05
2.87254e-05
2.64941e-05
2.34524e-05
2.06779e-05
2.01626e-05
2.00701e-05
1.9116e-05
1.79274e-05
1.72731e-05
1.72138e-05
1.76703e-05
1.79412e-05
1.80878e-05
1.79018e-05
1.71106e-05
1.66333e-05
1.63969e-05
1.62874e-05
1.63406e-05
1.68165e-05
1.89437e-05
2.04958e-05
2.14921e-05
2.36287e-05
2.45211e-05
2.53356e-05
2.62495e-05
2.64649e-05
2.69401e-05
2.83098e-05
2.9084e-05
2.93561e-05
2.94844e-05
3.01518e-05
3.14193e-05
3.19764e-05
3.23317e-05
3.24458e-05
3.26214e-05
3.32886e-05
3.53101e-05
3.93922e-05
4.52269e-05
6.18791e-05
7.48045e-05
7.4825e-05
6.50736e-05
5.45676e-05
4.81321e-05
4.24838e-05
3.71451e-05
3.47567e-05
3.03363e-05
2.75163e-05
2.57228e-05
2.52579e-05
2.36976e-05
2.18213e-05
2.16682e-05
2.51e-05
2.71133e-05
2.55656e-05
2.27043e-05
2.18908e-05
2.19486e-05
2.21763e-05
2.24817e-05
2.34416e-05
2.75128e-05
3.26819e-05
3.45101e-05
3.54036e-05
3.67945e-05
3.73897e-05
3.73512e-05
3.67073e-05
3.36853e-05
3.14658e-05
3.11354e-05
3.15482e-05
3.65919e-05
4.04361e-05
4.22256e-05
4.12357e-05
4.08318e-05
4.07482e-05
4.09457e-05
4.03051e-05
3.93521e-05
3.69958e-05
3.5394e-05
3.0776e-05
2.8395e-05
2.59993e-05
2.5992e-05
2.5816e-05
2.64733e-05
2.92815e-05
3.03298e-05
3.31678e-05
3.42152e-05
3.65824e-05
3.64944e-05
3.67485e-05
3.82915e-05
4.6278e-05
4.60129e-05
5.1466e-05
5.48382e-05
6.78507e-05
9.90794e-05
0.000118249
0.000117407
0.000113936
9.74511e-05
9.7661e-05
9.65671e-05
8.8175e-05
8.18073e-05
7.46803e-05
6.85101e-05
6.29615e-05
5.07405e-05
3.68313e-05
2.43889e-05
1.58937e-05
1.04345e-05
7.90586e-06
7.89222e-06
7.72929e-06
7.68138e-06
8.19288e-06
1.10486e-05
1.21533e-05
1.33645e-05
1.60712e-05
1.67272e-05
2.23967e-05
4.2311e-05
8.19651e-05
0.000106907
0.000110778
9.9588e-05
8.67878e-05
7.30299e-05
6.66189e-05
6.70775e-05
7.69679e-05
8.66682e-05
9.06327e-05
8.94031e-05
8.36513e-05
7.78505e-05
7.17834e-05
6.84441e-05
6.77342e-05
6.81889e-05
6.9269e-05
6.83544e-05
6.33872e-05
4.70224e-05
3.24383e-05
2.24132e-05
1.81655e-05
1.87708e-05
3.08792e-05
6.46844e-05
7.48481e-05
7.18603e-05
6.03602e-05
5.51185e-05
5.16199e-05
4.73298e-05
4.36792e-05
4.19948e-05
4.05898e-05
4.01214e-05
3.86426e-05
3.36193e-05
3.01993e-05
2.91061e-05
2.87053e-05
2.87259e-05
2.92501e-05
2.87699e-05
2.86582e-05
2.83811e-05
2.80023e-05
2.80783e-05
2.91293e-05
3.421e-05
3.80462e-05
3.97616e-05
4.36201e-05
4.64682e-05
4.65637e-05
4.44624e-05
4.13571e-05
3.73465e-05
3.25714e-05
2.88653e-05
2.69342e-05
2.39373e-05
2.16984e-05
2.15124e-05
2.1534e-05
2.0616e-05
1.88003e-05
1.79198e-05
1.77632e-05
1.84843e-05
1.93314e-05
1.94617e-05
1.88051e-05
1.74046e-05
1.68647e-05
1.66342e-05
1.65121e-05
1.65292e-05
1.70036e-05
1.85849e-05
1.94466e-05
2.03183e-05
2.2833e-05
2.53352e-05
2.64429e-05
2.6764e-05
2.67648e-05
2.69986e-05
2.7751e-05
2.8512e-05
2.89354e-05
2.92496e-05
3.02753e-05
3.11038e-05
3.14259e-05
3.17111e-05
3.17361e-05
3.19464e-05
3.29482e-05
3.58977e-05
4.02051e-05
4.67382e-05
6.55431e-05
7.63339e-05
7.49461e-05
6.40898e-05
5.49146e-05
4.92257e-05
4.33408e-05
3.76005e-05
3.4782e-05
3.0927e-05
2.77102e-05
2.52102e-05
2.5873e-05
2.55974e-05
2.32969e-05
2.21164e-05
2.38909e-05
2.75913e-05
2.70981e-05
2.33258e-05
2.20029e-05
2.22263e-05
2.24362e-05
2.24962e-05
2.31599e-05
2.67325e-05
3.21911e-05
3.38453e-05
3.48342e-05
3.63599e-05
3.7176e-05
3.71713e-05
3.66652e-05
3.41316e-05
3.16836e-05
3.11711e-05
3.13698e-05
3.55265e-05
3.95356e-05
4.26829e-05
4.17798e-05
4.16519e-05
4.12293e-05
4.19848e-05
4.09923e-05
4.00819e-05
3.74367e-05
3.6361e-05
3.23716e-05
3.09763e-05
2.77576e-05
2.76773e-05
2.72397e-05
2.77422e-05
3.00554e-05
3.0802e-05
3.32304e-05
3.37953e-05
3.8609e-05
3.68457e-05
3.96692e-05
3.93152e-05
4.33354e-05
4.27417e-05
4.6012e-05
5.13464e-05
7.29497e-05
8.19322e-05
0.000111442
0.000111643
0.000115074
5.7573e-05
5.66016e-05
5.44291e-05
4.69283e-05
4.31051e-05
3.94383e-05
3.68359e-05
3.38386e-05
2.66534e-05
1.95682e-05
1.30341e-05
9.37545e-06
7.41623e-06
6.93325e-06
7.36419e-06
7.15999e-06
7.13605e-06
7.80616e-06
1.0817e-05
1.19021e-05
1.3936e-05
1.66722e-05
1.63742e-05
2.05571e-05
3.81026e-05
8.22237e-05
0.000107063
0.000108771
0.000100919
8.60913e-05
7.22592e-05
6.83241e-05
7.46556e-05
8.82845e-05
9.33995e-05
9.3691e-05
8.90509e-05
7.85486e-05
6.83898e-05
6.20657e-05
6.18949e-05
6.3031e-05
6.47351e-05
6.46109e-05
6.22293e-05
5.08492e-05
3.63467e-05
2.56034e-05
1.8914e-05
1.68773e-05
1.86056e-05
3.46907e-05