/*--------------------------------*- C++ -*----------------------------------*\
| =========                 |                                                 |
| \\      /  F ield         | OpenFOAM: The Open Source CFD Toolbox           |
|  \\    /   O peration     | Version:  2.4.0                                 |
|   \\  /    A nd           | Web:      www.OpenFOAM.org                      |
|    \\/     M anipulation  |                                                 |
\*---------------------------------------------------------------------------*/
FoamFile
{
    version     2.0;
    format      ascii;
    class       volScalarField;
    location    "0.146";
    object      pMean;
}
// * * * * * * * * * * * * * * * * * * * * * * * * * * * * * * * * * * * * * //

dimensions      [0 2 -2 0 0 0 0];

internalField   nonuniform List<scalar> 
17600
(
109.05
92.9061
88.0888
86.6282
85.3522
84.0601
82.8425
81.6807
80.566
79.4465
78.3496
77.2382
76.1642
75.0717
74.0182
72.9142
71.8103
70.5932
69.1715
66.9715
107.153
92.9552
88.1293
86.6376
85.3554
84.0607
82.8427
81.6809
80.5661
79.4466
78.3496
77.2384
76.1642
75.0722
74.0182
72.9157
71.8109
70.597
69.1799
67.2357
105.749
93.2083
88.2714
86.6753
85.3692
84.065
82.8448
81.6825
80.5673
79.4472
78.3499
77.2383
76.1645
75.0721
74.019
72.9154
71.8139
70.5973
69.231
67.3792
104.778
93.5454
88.4881
86.7392
85.3982
84.0803
82.8534
81.6886
80.5715
79.4499
78.3512
77.2397
76.165
75.075
74.0199
72.9227
71.816
70.6168
69.2779
67.5553
103.96
93.8753
88.7476
86.8193
85.4399
84.1092
82.8726
81.7027
80.5814
79.4569
78.3552
77.2419
76.1672
75.0764
74.0241
72.9243
71.8288
70.6302
69.3553
67.7528
103.19
94.1632
89.0198
86.8997
85.4811
84.1459
82.9015
81.7256
80.5983
79.4696
78.3622
77.2487
76.1703
75.0843
74.0279
72.9371
71.8387
70.6575
69.445
67.981
102.466
94.4061
89.2908
86.9748
85.5126
84.1801
82.9342
81.7539
80.6203
79.4867
78.3732
77.2568
76.1766
75.0916
74.0358
72.949
71.8525
70.6942
69.5304
68.2528
101.797
94.6073
89.5544
87.0468
85.5336
84.2066
82.9663
81.7842
80.6442
79.5057
78.3852
77.2674
76.1836
75.1022
74.0465
72.9646
71.8757
70.7316
69.6187
68.5823
101.188
94.7705
89.8026
87.1211
85.5464
84.2249
82.9952
81.8144
80.6686
79.525
78.3971
77.2784
76.1901
75.1143
74.0544
72.9857
71.8917
70.7847
69.6835
68.9101
100.642
94.8969
90.0325
87.1998
85.5529
84.2353
83.0201
81.8434
80.6924
79.543
78.4084
77.288
76.1977
75.1251
74.0672
73.0046
71.9186
70.8364
69.7778
69.2667
100.158
94.9889
90.2431
87.2833
85.5543
84.2391
83.0408
81.8708
80.7152
79.5603
78.4183
77.2974
76.2037
75.1363
74.0778
73.0253
71.9484
70.8906
69.9023
69.5723
99.7314
95.0506
90.4344
87.3711
85.5519
84.2373
83.0576
81.8964
80.7372
79.5762
78.4274
77.3053
76.2109
75.1467
74.0914
73.046
71.9808
70.9521
70.0318
69.8429
99.3607
95.0878
90.6059
87.4613
85.547
84.231
83.0711
81.9201
80.7579
79.5909
78.4356
77.3125
76.2176
75.157
74.1057
73.0673
72.0188
71.0167
70.1637
70.0878
99.0429
95.1073
90.757
87.5492
85.5418
84.2217
83.0816
81.9412
80.7775
79.6042
78.4431
77.3189
76.2249
75.167
74.1212
73.09
72.0589
71.0848
70.2944
70.3099
98.775
95.1162
90.8867
87.6283
85.538
84.2113
83.0898
81.96
80.7951
79.6161
78.4498
77.3246
76.232
75.1776
74.1373
73.1147
72.1002
71.1557
70.4233
70.5102
98.5548
95.1194
90.9939
87.6961
85.5361
84.2007
83.096
81.976
80.8105
79.6264
78.4558
77.3301
76.2394
75.1878
74.1545
73.1393
72.145
71.2257
70.5557
70.6918
98.3809
95.1193
91.0784
87.7515
85.536
84.1907
83.1006
81.989
80.8235
79.6348
78.4614
77.3347
76.2472
75.1982
74.173
73.1653
72.1909
71.2961
70.6823
70.8786
98.2517
95.1178
91.1407
87.7941
85.537
84.1825
83.1036
81.9993
80.8334
79.6421
78.4658
77.3399
76.2541
75.21
74.1899
73.1949
72.2346
71.3714
70.7861
71.0433
98.1664
95.1159
91.1817
87.8231
85.5386
84.1764
83.1057
82.0063
80.8409
79.6473
78.4704
77.3443
76.2624
75.2207
74.2093
73.2232
72.281
71.4444
70.8902
71.2117
98.1241
95.1145
91.202
87.8379
85.5397
84.1734
83.1067
82.0104
80.845
79.6511
78.4739
77.3492
76.2697
75.2327
74.2279
73.2532
72.3271
71.5163
70.9992
71.3545
98.1243
95.1143
91.2022
87.838
85.5398
84.1737
83.1068
82.0114
80.8459
79.6532
78.4769
77.3539
76.2775
75.2446
74.2476
73.2828
72.375
71.5844
71.1176
71.4757
98.1673
95.1151
91.1823
87.8232
85.5392
84.177
83.1064
82.0088
80.8441
79.6531
78.4799
77.3579
76.2861
75.2555
74.2684
73.3123
72.4235
71.6505
71.2296
71.6211
98.253
95.1165
91.1417
87.7945
85.538
84.1837
83.1048
82.0037
80.8386
79.6522
78.4811
77.3634
76.2928
75.2693
74.2865
73.3457
72.4668
71.7225
71.3006
71.7259
98.3827
95.1176
91.0798
87.7521
85.5375
84.1923
83.1023
81.9951
80.8308
79.6488
78.4825
77.3677
76.3007
75.2817
74.3064
73.3778
72.5122
71.7897
71.372
71.8594
98.5571
95.1171
90.9955
87.697
85.538
84.2024
83.0984
81.9836
80.8202
79.6439
78.4833
77.3718
76.3087
75.2941
74.3271
73.4093
72.5594
71.8523
71.4513
71.9727
98.7777
95.1136
90.8885
87.6296
85.5403
84.2135
83.0928
81.9691
80.8069
79.6373
78.4831
77.3759
76.3161
75.307
74.3472
73.4419
72.606
71.9161
71.528
72.0685
99.0461
95.1043
90.7588
87.5508
85.5446
84.2244
83.0854
81.9517
80.7916
79.6289
78.4823
77.3793
76.3236
75.3198
74.3676
73.4749
72.6532
71.9812
71.5999
72.1477
99.3642
95.0848
90.6076
87.4631
85.5503
84.2341
83.0756
81.9317
80.7746
79.619
78.4808
77.382
76.331
75.3324
74.3881
73.5079
72.7013
72.0475
71.6684
72.2085
99.7352
95.0477
90.4358
87.3729
85.5555
84.241
83.063
81.9092
80.7562
79.6075
78.4784
77.3836
76.3382
75.3445
74.4089
73.5406
72.7507
72.1152
71.7372
72.2485
100.162
94.9859
90.2443
87.2853
85.5582
84.2434
83.0469
81.8846
80.7366
79.5947
78.4748
77.3843
76.3452
75.356
74.4299
73.5726
72.8016
72.1837
71.8117
72.2644
100.647
94.8939
90.0336
87.2021
85.557
84.2405
83.0269
81.8582
80.716
79.5808
78.47
77.3838
76.3517
75.3665
74.451
73.6032
72.8539
72.2523
71.8962
72.2556
101.192
94.7674
89.8037
87.1236
85.5505
84.2308
83.0029
81.8303
80.6945
79.5658
78.4639
77.3824
76.3575
75.3759
74.4716
73.6317
72.907
72.3185
71.992
72.2278
101.801
94.6044
89.5552
87.0497
85.5378
84.2134
82.9749
81.8013
80.6723
79.5499
78.4566
77.3802
76.3623
75.3843
74.4906
73.6582
72.9569
72.3811
72.0851
72.2034
102.47
94.4035
89.2915
86.978
85.5168
84.1876
82.9437
81.7721
80.6502
79.534
78.4489
77.3777
76.366
75.3919
74.5068
73.682
72.9996
72.4377
72.1607
72.1699
103.194
94.1608
89.0205
86.9031
85.4854
84.1541
82.9119
81.7448
80.63
79.5196
78.442
77.3756
76.3693
75.3984
74.5204
73.702
73.0344
72.4833
72.2197
72.1661
103.964
93.8732
88.7482
86.8228
85.4443
84.1178
82.8838
81.7228
80.6144
79.5092
78.4376
77.3748
76.3725
75.4041
74.5311
73.7177
73.0602
72.5175
72.2588
72.1635
104.782
93.5434
88.4888
86.7427
85.4028
84.0892
82.8651
81.7092
80.6054
79.5037
78.4358
77.3753
76.3754
75.4085
74.5386
73.7286
73.0769
72.5407
72.2799
72.1692
105.753
93.2065
88.2721
86.6788
85.3738
84.0742
82.8568
81.7035
80.6017
79.5018
78.4356
77.3763
76.3774
75.4114
74.543
73.735
73.0861
72.5536
72.2901
72.1822
107.157
92.9535
88.13
86.6412
85.3601
84.0699
82.8548
81.702
80.6007
79.5015
78.4358
77.377
76.3782
75.4126
74.5446
73.7374
73.0893
72.5584
72.293
72.2031
109.054
92.9044
88.0895
86.6317
85.3569
84.0694
82.8546
81.7018
80.6005
79.5015
78.4358
77.377
76.3783
75.4126
74.5448
73.7375
73.0895
72.5585
72.2921
72.2434
65.0804
64.6208
63.8849
63.095
62.3244
61.598
60.8445
59.994
59.2349
58.5033
57.8167
57.2054
56.6389
56.0041
55.2071
54.2064
53.0151
51.9135
51.0773
50.5139
50.2111
50.1598
50.4074
50.9277
51.6952
52.6964
53.8599
55.1246
56.4289
57.7079
58.9232
60.0463
61.0662
61.9893
62.8182
63.5498
64.219
64.8574
65.471
66.0251
66.4829
66.8335
67.1096
67.3549
67.5799
67.7925
68.0217
68.2665
68.4738
68.6446
68.8104
68.9726
69.1067
69.1957
69.2673
69.3493
69.4494
69.5598
69.6845
69.8326
69.998
70.1644
70.3012
70.4151
70.5138
70.584
70.6183
70.6213
70.5855
70.5058
70.3907
70.2395
70.0471
69.8128
69.5432
69.272
69.0446
68.8812
68.78
68.7453
68.7758
68.8655
69.0019
69.1637
69.3519
69.5603
69.7768
70.0035
70.2413
70.4905
70.7459
70.9993
71.2547
71.5086
71.7601
72.0049
72.2467
72.4813
72.7147
72.9342
73.1433
73.3328
73.5058
73.666
73.8169
73.939
74.0222
74.0644
74.0861
74.0862
74.0859
74.076
74.0828
74.0977
74.1494
74.2248
74.3545
74.5158
74.7223
74.9796
75.2682
75.5971
75.9385
76.2903
76.6497
76.9815
77.3234
77.5952
77.859
78.0779
78.2501
78.4092
78.5044
78.5905
78.6374
78.6854
78.715
78.7452
78.7662
78.7813
78.7994
78.7985
78.8166
78.8093
78.8228
78.8159
78.8366
78.8335
78.8593
78.8657
78.8954
78.9128
78.9452
78.977
79.0225
79.0696
79.1295
79.1935
79.267
79.3377
79.4162
79.4875
79.5598
79.6178
79.6719
79.7114
79.7448
79.7612
79.7747
79.771
79.7665
79.7454
79.7241
79.6828
79.6507
79.5912
79.5542
79.476
79.4437
79.3429
79.3158
79.1793
79.1454
78.9501
78.8872
78.6215
78.49
78.125
77.8855
77.3833
76.9658
76.2523
75.5343
74.4394
73.1105
71.2255
68.5053
63.9885
58.4388
33.1905
65.5364
64.9323
64.2738
63.5959
62.9236
62.2806
61.6268
60.8866
60.2134
59.5697
58.9402
58.3663
57.8007
57.1548
56.3674
55.4023
54.2482
53.1347
52.2787
51.7006
51.3869
51.3313
51.5703
52.0815
52.8335
53.7985
54.9174
56.1308
57.3831
58.6226
59.8111
60.9121
61.9048
62.793
63.5817
64.2625
64.8705
65.4406
65.9804
66.4641
66.8591
67.1445
67.3479
67.5175
67.6693
67.8054
67.9685
68.1703
68.3497
68.4914
68.6227
68.7531
68.8604
68.9303
68.983
69.042
69.1154
69.199
69.2968
69.418
69.5622
69.7095
69.8239
69.9199
70.0028
70.0565
70.0738
70.0593
70.005
69.9079
69.7797
69.6184
69.4178
69.18
68.9163
68.6658
68.4688
68.3435
68.2889
68.3089
68.4008
68.5533
68.7507
68.9703
69.2093
69.4616
69.7186
69.9798
70.2464
70.5203
70.7947
71.0621
71.3278
71.5871
71.8414
72.0878
72.3314
72.5656
72.7952
73.0071
73.2051
73.3804
73.5392
73.6869
73.8286
73.943
74.0223
74.0629
74.0888
74.0942
74.0982
74.0892
74.0951
74.1015
74.1436
74.2069
74.3222
74.4716
74.6631
74.9103
75.1919
75.5163
75.8572
76.2096
76.5739
76.9117
77.2565
77.5414
77.8078
78.0467
78.2247
78.3983
78.5092
78.6046
78.6657
78.7227
78.7623
78.8011
78.8262
78.849
78.8708
78.8768
78.8977
78.8921
78.9072
78.8983
78.9201
78.9148
78.9439
78.9449
78.9756
78.9871
79.0166
79.0381
79.0756
79.1085
79.1555
79.2024
79.2594
79.3118
79.3693
79.4178
79.4671
79.5005
79.5301
79.5432
79.5514
79.5424
79.5324
79.5048
79.4806
79.4379
79.4015
79.3403
79.297
79.2172
79.1709
79.0706
79.0302
78.908
78.8734
78.7181
78.6736
78.4619
78.3816
78.0961
77.935
77.5398
77.2522
76.7014
76.211
75.4095
74.5696
73.3205
71.7713
69.5002
66.5588
60.4895
54.6643
26.1351
65.9959
65.3652
64.6859
64.0356
63.4193
62.8299
62.2483
61.6083
61.0081
60.4387
59.8597
59.3214
58.7677
58.1272
57.3542
56.4425
55.3682
54.2864
53.4387
52.8637
52.5597
52.513
52.7445
53.2412
53.9673
54.8894
55.9599
57.1261
58.3322
59.5333
60.6906
61.7648
62.7305
63.5865
64.3399
64.9783
65.5302
66.037
66.508
66.9194
67.2483
67.4686
67.6011
67.6949
67.7741
67.8365
67.9333
68.0908
68.2428
68.3593
68.4626
68.5649
68.6491
68.7047
68.7447
68.786
68.8368
68.8952
68.9668
69.0618
69.1851
69.3101
69.4026
69.4819
69.5495
69.586
69.5867
69.5549
69.4822
69.3688
69.2275
69.0558
68.8478
68.6094
68.3557
68.1298
67.966
67.8796
67.8718
67.946
68.0994
68.3142
68.5715
68.849
69.139
69.4351
69.7319
70.0274
70.3218
70.6182
70.9097
71.1904
71.4664
71.7306
71.9884
72.2363
72.4818
72.7151
72.9407
73.1443
73.3319
73.4936
73.6395
73.7733
73.9048
74.0089
74.0832
74.1211
74.1519
74.1623
74.1718
74.1644
74.1708
74.1701
74.2035
74.2551
74.3535
74.4883
74.663
74.8948
75.1672
75.482
75.8208
76.1708
76.5378
76.8786
77.2221
77.5179
77.7843
78.0397
78.2229
78.4077
78.5325
78.6386
78.7109
78.7795
78.828
78.8748
78.9028
78.9315
78.9537
78.9654
78.9862
78.9849
79.0005
78.9905
79.0101
79.0043
79.0323
79.0295
79.0576
79.0654
79.0914
79.1058
79.1362
79.1576
79.193
79.2251
79.2657
79.3012
79.3379
79.3638
79.3911
79.3992
79.406
79.3912
79.3754
79.3389
79.3059
79.2524
79.2094
79.1418
79.0908
79.0073
78.9528
78.8521
78.795
78.6747
78.6222
78.4825
78.4323
78.2626
78.1982
77.9756
77.8705
77.5687
77.3706
76.9511
76.601
76.0121
75.4356
74.5613
73.5859
72.1644
70.4505
67.6693
64.8248
56.9977
51.0317
24.3372
66.3802
65.8047
65.1465
64.4653
63.8459
63.2882
62.7726
62.2304
61.6967
61.1907
60.6633
60.1462
59.6058
58.9846
58.2393
57.3962
56.4195
55.4035
54.5889
54.0408
53.7569
53.7196
53.9353
54.4065
55.101
55.9793
56.9986
58.1146
59.2721
60.4289
61.5483
62.5907
63.529
64.3576
65.0822
65.6881
66.1927
66.6399
67.0441
67.3859
67.6471
67.8041
67.8685
67.8904
67.9002
67.8949
67.9266
68.0344
68.1557
68.2497
68.3322
68.4112
68.4769
68.5226
68.5543
68.5809
68.6123
68.6486
68.6961
68.7666
68.869
68.9695
69.041
69.1061
69.1582
69.1776
69.1613
69.1125
69.0227
68.8946
68.7421
68.5603
68.346
68.109
67.8693
67.6709
67.5419
67.4949
67.5332
67.6607
67.8732
68.1488
68.4646
68.8001
69.1417
69.4809
69.8165
70.1456
70.4667
70.7834
71.0899
71.3832
71.6694
71.9377
72.199
72.4486
72.6966
72.9281
73.1497
73.3441
73.5216
73.67
73.8046
73.9236
74.0437
74.1352
74.2033
74.2372
74.273
74.2879
74.3033
74.2984
74.3065
74.3001
74.3265
74.3659
74.4474
74.5644
74.7218
74.9331
75.1944
75.4957
75.8309
76.1751
76.5436
76.8839
77.2244
77.5268
77.7932
78.057
78.2472
78.4388
78.574
78.6922
78.7731
78.8529
78.9094
78.9635
78.9949
79.0276
79.0487
79.0644
79.0839
79.0883
79.1035
79.0933
79.109
79.1023
79.1248
79.1189
79.1436
79.1475
79.1728
79.1805
79.2068
79.217
79.2442
79.26
79.2871
79.3036
79.3218
79.3245
79.3311
79.3139
79.2984
79.2554
79.2158
79.152
79.0962
79.0166
78.9527
78.8602
78.7918
78.6865
78.6169
78.4972
78.4269
78.2882
78.2205
78.0638
77.9945
77.8112
77.7223
77.4916
77.3553
77.0433
76.8009
76.3619
75.9413
75.3139
74.6447
73.6879
72.6063
70.9585
69.2479
65.719
63.2787
53.7973
47.5609
25.02
66.7226
66.2246
65.6134
64.8986
64.2445
63.7059
63.2511
62.8055
62.3481
61.8992
61.4187
60.9152
60.392
59.8016
59.0953
58.3239
57.4574
56.5315
55.7668
55.2543
54.9947
54.9608
55.1487
55.5829
56.2394
57.0702
58.0346
59.094
60.1972
61.3013
62.3746
63.3807
64.2923
65.0957
65.797
66.3803
66.849
67.2412
67.5803
67.8568
68.0535
68.1506
68.1511
68.1066
68.0528
67.9863
67.9547
68.0077
68.0928
68.1666
68.2336
68.2962
68.3493
68.388
68.4136
68.4279
68.4415
68.459
68.4857
68.5338
68.6158
68.6911
68.7443
68.7968
68.8328
68.835
68.8015
68.7359
68.631
68.4916
68.3296
68.1396
67.9204
67.6873
67.4646
67.295
67.2015
67.1941
67.2774
67.456
67.725
68.0591
68.4316
68.8232
69.2155
69.5978
69.9713
70.3327
70.6797
71.015
71.3354
71.6399
71.9349
72.2063
72.4709
72.722
72.9729
73.2023
73.4194
73.6038
73.7712
73.9069
74.0318
74.1359
74.2431
74.3198
74.3809
74.4092
74.4493
74.4673
74.4896
74.487
74.4981
74.4869
74.5083
74.5353
74.6014
74.6982
74.8385
75.0253
75.2737
75.558
75.8887
76.2233
76.5922
76.9286
77.2662
77.5691
77.8375
78.1
78.2997
78.4915
78.6353
78.7631
78.8524
78.9395
79.0039
79.0653
79.1017
79.136
79.1575
79.1741
79.1912
79.1996
79.2148
79.2037
79.2151
79.2066
79.2223
79.2135
79.2348
79.2343
79.2612
79.2628
79.2871
79.2873
79.3075
79.3074
79.322
79.319
79.3198
79.3006
79.2862
79.245
79.2064
79.1361
79.0737
78.9816
78.9046
78.7965
78.7124
78.5927
78.5063
78.3771
78.2928
78.1519
78.0685
77.911
77.8262
77.6528
77.5614
77.366
77.2501
77.0123
76.8415
76.5208
76.2347
75.7707
75.2913
74.6129
73.8724
72.7751
71.6738
69.6315
68.181
63.6578
61.8291
51.0761
44.1549
25.8478
67.0974
66.6582
66.0515
65.303
64.6133
64.0891
63.695
63.3452
62.9737
62.5795
62.1447
61.667
61.1656
60.6118
59.9561
59.2531
58.4975
57.6762
56.9716
56.4943
56.2558
56.2267
56.3878
56.7765
57.3827
58.1584
59.0636
60.0606
61.1046
62.1501
63.1687
64.1336
65.0188
65.7999
66.4773
67.0404
67.4826
67.828
68.1075
68.3253
68.4637
68.5076
68.4524
68.3483
68.2388
68.1169
68.0224
68.017
68.062
68.1167
68.1728
68.2251
68.2701
68.3042
68.3235
68.327
68.3248
68.3272
68.3364
68.3642
68.4262
68.4782
68.5165
68.5581
68.5772
68.5602
68.5097
68.4295
68.3127
68.1648
67.9961
67.8002
67.5789
67.3529
67.149
67.0088
66.9502
66.9806
67.1075
67.3349
67.6574
68.047
68.4734
68.9178
69.3588
69.7833
70.1936
70.5861
70.9585
71.3116
71.645
71.9591
72.2617
72.5345
72.8019
73.0532
73.3069
73.5338
73.7465
73.9198
74.0776
74.2012
74.3183
74.408
74.5012
74.5608
74.6143
74.6357
74.6788
74.6983
74.7275
74.7273
74.7412
74.7259
74.7436
74.7595
74.8123
74.8877
75.0121
75.172
75.4053
75.6696
75.9943
76.3164
76.6843
77.0134
77.3481
77.6465
77.9172
78.1716
78.3804
78.5676
78.7184
78.8506
78.9505
79.0383
79.1112
79.1781
79.2215
79.2557
79.2806
79.295
79.3099
79.3173
79.332
79.3191
79.3279
79.3163
79.3275
79.3147
79.3349
79.3271
79.3582
79.3514
79.378
79.3663
79.383
79.3659
79.371
79.3464
79.3336
79.29
79.2579
79.1898
79.1312
79.0318
78.9498
78.8275
78.7317
78.5934
78.4897
78.3423
78.2372
78.0832
77.982
77.8193
77.7202
77.5445
77.44
77.2493
77.135
76.9229
76.7859
76.5334
76.3381
75.9967
75.6803
75.1683
74.6654
73.8799
73.1532
71.7841
70.8708
68.1849
67.2355
61.5808
60.2001
48.8573
40.7425
25.9949
67.5784
67.1414
66.4497
65.6397
64.9249
64.425
64.1004
63.8449
63.5647
63.2317
62.8462
62.4106
61.9383
61.4227
60.8253
60.1887
59.5321
58.8164
58.1753
57.733
57.515
57.4963
57.642
57.9841
58.5319
59.2469
60.0885
61.0189
61.9965
62.978
63.9382
64.8539
65.7064
66.4653
67.1184
67.6563
68.0761
68.386
68.6171
68.7843
68.8732
68.8722
68.7725
68.6164
68.4604
68.2893
68.1341
68.0686
68.0724
68.1071
68.1545
68.2001
68.2395
68.2689
68.2825
68.2781
68.2639
68.2537
68.2469
68.2553
68.2993
68.3327
68.3606
68.3913
68.392
68.3553
68.2881
68.1968
68.0714
67.9186
67.7459
67.5473
67.3277
67.1117
66.9286
66.8176
66.7923
66.8589
67.0272
67.3005
67.6724
68.1136
68.5906
69.0833
69.5693
70.0341
70.4798
70.902
71.3
71.6708
72.0168
72.3392
72.6476
72.9203
73.1897
73.4395
73.6945
73.9174
74.1257
74.2882
74.4368
74.5494
74.6604
74.7366
74.8154
74.8567
74.9012
74.9155
74.9593
74.9789
75.0141
75.016
75.0325
75.0127
75.028
75.0337
75.0765
75.1308
75.2405
75.3734
75.5899
75.8311
76.1485
76.4551
76.8199
77.1381
77.4702
77.7591
78.0321
78.2725
78.4889
78.6658
78.8225
78.9526
79.0664
79.1483
79.2341
79.298
79.3532
79.384
79.4171
79.4235
79.4412
79.4389
79.4565
79.436
79.4495
79.4259
79.4434
79.4179
79.4473
79.4234
79.4654
79.4414
79.4792
79.4484
79.4715
79.431
79.4355
79.3821
79.3642
79.2891
79.2465
79.1454
79.0726
78.9415
78.8443
78.6903
78.5787
78.4078
78.288
78.1096
77.9881
77.8042
77.6876
77.4974
77.386
77.1847
77.067
76.8485
76.7202
76.4773
76.3344
76.0493
75.8536
75.4623
75.152
74.5359
74.0975
73.068
72.5142
70.6496
70.1282
66.6334
66.2665
59.6149
58.2123
47.0706
37.3369
25.6449
68.209
67.7103
66.8017
65.8705
65.1456
64.7005
64.4598
64.298
64.108
63.8476
63.5195
63.1332
62.6983
62.2245
61.6884
61.1162
60.5418
59.9253
59.3519
58.9471
58.7498
58.7439
58.8864
59.1924
59.6825
60.3334
61.1067
61.965
62.8706
63.7856
64.6853
65.5479
66.3562
67.0843
67.7105
68.222
68.6198
68.9057
69.0999
69.2273
69.2782
69.2407
69.1053
68.9081
68.7143
68.5012
68.2893
68.1657
68.1285
68.1411
68.178
68.218
68.2535
68.2795
68.2898
68.2806
68.2587
68.2372
68.2131
68.204
68.2338
68.2549
68.277
68.2957
68.2766
68.2201
68.1388
68.0407
67.9108
67.7562
67.5823
67.3839
67.1696
66.9665
66.8057
66.7236
66.7312
66.8321
67.0391
67.3551
67.7716
68.2597
68.783
69.3191
69.8452
70.347
70.8256
71.2762
71.6995
72.0882
72.4476
72.7772
73.0904
73.3619
73.6314
73.8784
74.1326
74.35
74.5531
74.7046
74.8447
74.9477
75.0534
75.1178
75.1827
75.2054
75.2399
75.2464
75.2888
75.3063
75.3463
75.3492
75.3678
75.3435
75.3576
75.354
75.3901
75.4244
75.5208
75.6282
75.8274
76.0429
76.3512
76.6402
76.9992
77.3025
77.6321
77.9065
78.1814
78.4036
78.6242
78.7851
78.9474
79.0676
79.1944
79.2697
79.3704
79.4229
79.4934
79.517
79.5623
79.5552
79.5827
79.5622
79.5877
79.5506
79.5762
79.5307
79.5658
79.5195
79.569
79.5206
79.58
79.5294
79.5882
79.529
79.5707
79.4968
79.5132
79.4206
79.4105
79.2921
79.2521
79.1063
79.0331
78.8609
78.7615
78.5651
78.4506
78.2348
78.1123
77.8887
77.7642
77.5363
77.4168
77.1843
77.074
76.8294
76.7152
76.4455
76.3253
76.0177
75.9027
75.5317
75.4005
74.8688
74.6711
73.8191
73.5928
72.1457
71.9161
69.4172
69.3642
65.0454
65.1124
57.8601
55.4989
45.522
34.5382
25.3589
69.0533
68.4372
67.1367
66.0312
65.3045
64.9316
64.78
64.7073
64.6038
64.4234
64.1587
63.8233
63.4322
63.0025
62.5251
62.0143
61.5088
60.982
60.4819
60.1191
59.9413
59.9458
60.0919
60.3749
60.8159
61.4039
62.1059
62.8882
63.7205
64.5695
65.4088
66.2162
66.9725
67.6575
68.2499
68.7334
69.1105
69.3794
69.5502
69.6477
69.6721
69.6081
69.4429
69.2128
68.9883
68.7423
68.4805
68.3047
68.229
68.2172
68.2404
68.2744
68.3095
68.3368
68.3478
68.3375
68.3092
68.2743
68.2302
68.2077
68.2288
68.2433
68.2622
68.2693
68.2301
68.155
68.0634
67.9633
67.8329
67.679
67.5063
67.3115
67.1059
66.9179
66.78
66.727
66.7676
66.9021
67.1448
67.5001
67.9559
68.4855
69.0499
69.624
70.1837
70.7175
71.2264
71.703
72.151
72.5584
72.9322
73.2682
73.5859
73.8562
74.1242
74.3676
74.6186
74.8292
75.025
75.1652
75.2967
75.3908
75.4922
75.5455
75.5987
75.6032
75.6275
75.6251
75.6649
75.6778
75.7206
75.7232
75.7431
75.7148
75.7286
75.7169
75.7484
75.765
75.85
75.934
76.116
76.3044
76.6009
76.8706
77.2214
77.5069
77.8318
78.0881
78.3623
78.5647
78.7864
78.927
79.0944
79.1964
79.3349
79.4028
79.5166
79.5535
79.6406
79.6522
79.7117
79.6881
79.7306
79.6869
79.7229
79.662
79.7028
79.6307
79.6888
79.6169
79.6934
79.616
79.6996
79.6151
79.7013
79.6036
79.6755
79.5554
79.5993
79.4529
79.4682
79.29
79.2724
79.0642
79.0136
78.7803
78.7026
78.4423
78.3493
78.0655
77.9666
77.6722
77.5724
77.2718
77.179
76.8705
76.794
76.4621
76.394
76.0193
75.9596
75.5211
75.4988
74.9605
74.9747
74.2025
74.2054
73.0099
73.0463
71.103
71.2101
68.0955
68.4731
63.5518
63.4458
56.422
52
44.03
33.0289
25.7171
69.7429
69.0636
67.4958
66.2422
65.4818
65.1492
65.0707
65.0803
65.0597
64.9566
64.7562
64.4717
64.1264
63.7407
63.3164
62.864
62.4197
61.9727
61.5477
61.2308
61.0744
61.0884
61.2395
61.5086
61.91
62.4415
63.0755
63.7831
64.5412
65.3228
66.1011
66.8523
67.554
68.1894
68.7413
69.1936
69.5479
69.8011
69.9589
70.0379
70.0457
69.9663
69.7787
69.5228
69.2706
69.0015
68.6994
68.4781
68.3697
68.333
68.3391
68.3688
68.4073
68.441
68.4588
68.4504
68.4137
68.3605
68.295
68.265
68.2837
68.2962
68.3128
68.3077
68.2507
68.1604
68.0634
67.9663
67.8377
67.6873
67.5183
67.3305
67.1369
66.9654
66.8504
66.8259
66.8993
67.0665
67.3432
67.7342
68.2248
68.7896
69.3895
69.9957
70.5826
71.1422
71.6766
72.1767
72.6482
73.0733
73.4626
73.8063
74.1292
74.3987
74.6646
74.9037
75.1492
75.3519
75.5385
75.6651
75.7886
75.8728
75.9705
76.0133
76.0575
76.0457
76.0599
76.0484
76.084
76.0911
76.1337
76.1348
76.1548
76.1229
76.1367
76.1172
76.145
76.1467
76.222
76.2854
76.4502
76.6121
76.894
77.1429
77.4835
77.7485
78.0661
78.3021
78.5714
78.7527
78.9724
79.092
79.2629
79.3428
79.491
79.5482
79.6728
79.6924
79.7936
79.7896
79.8629
79.8224
79.8803
79.8122
79.8602
79.7721
79.8277
79.7283
79.8077
79.7082
79.8125
79.705
79.8165
79.6954
79.8112
79.6678
79.7751
79.5988
79.6811
79.4685
79.523
79.2698
79.2937
79.0044
79.0024
78.6832
78.6575
78.3062
78.2681
77.8866
77.847
77.4469
77.4096
76.9949
76.9694
76.5389
76.5374
76.0709
76.0908
75.5623
75.6065
74.9821
75.0889
74.3277
74.5171
73.4551
73.6824
72.1034
72.4101
69.9969
70.4099
66.8795
67.2304
62.3242
60.9215
55.0113
48.8855
42.8307
32.7835
26.6649
70.2925
69.6071
67.8853
66.508
65.6889
65.3646
65.3404
65.4221
65.4765
65.4432
65.3061
65.0729
64.7735
64.4299
64.0527
63.6537
63.2646
62.8894
62.538
62.2712
62.1392
62.1622
62.317
62.5767
62.947
63.4306
64.0053
64.6449
65.3312
66.0443
66.7597
67.4517
68.0968
68.6792
69.1859
69.6055
69.9361
70.1733
70.3209
70.3895
70.3901
70.3063
70.1086
69.8335
69.557
69.2732
68.9403
68.6818
68.5463
68.4859
68.4737
68.5023
68.5489
68.5921
68.6206
68.618
68.5698
68.4918
68.405
68.3759
68.398
68.4118
68.4262
68.4089
68.3364
68.2359
68.1392
68.0492
67.9253
67.7808
67.6186
67.4409
67.2619
67.1079
67.0152
67.0184
67.1233
67.3222
67.631
68.0542
68.5753
69.1692
69.7985
70.4304
71.0383
71.6168
72.1723
72.692
73.1841
73.6245
74.0301
74.3832
74.7133
74.9838
75.247
75.4817
75.7205
75.9133
76.0903
76.2016
76.3173
76.3909
76.4834
76.5162
76.5521
76.5277
76.5326
76.512
76.5425
76.5432
76.5842
76.5826
76.6004
76.5649
76.5782
76.5506
76.5746
76.564
76.6315
76.6761
76.8245
76.9599
77.2253
77.4527
77.7811
78.0234
78.331
78.5451
78.8058
78.9641
79.1783
79.2771
79.4491
79.5074
79.6611
79.705
79.8377
79.8399
79.9501
79.9295
80.0145
79.9572
80.0279
79.9365
79.9964
79.8827
79.9498
79.8256
79.9191
79.7945
79.9203
79.7867
79.9221
79.77
79.9083
79.7238
79.8558
79.6269
79.7408
79.4642
79.5569
79.2267
79.2992
78.9209
78.9794
78.5601
78.6049
78.1437
78.1851
77.6801
77.7292
77.19
77.2508
76.685
76.7658
76.1757
76.2848
75.6479
75.7853
75.063
75.233
74.3858
74.6213
73.6133
73.9587
72.6093
73.0395
71.1469
71.6198
69.0068
69.3574
65.9921
65.4118
61.214
58.0983
53.391
46.9493
42.3844
33.5638
27.8785
70.7303
70.0725
68.276
66.8114
65.9344
65.5954
65.6003
65.7354
65.8542
65.8858
65.8116
65.6316
65.3761
65.0721
64.7356
64.3839
64.0461
63.7327
63.4487
63.2328
63.1285
63.1605
63.3169
63.5704
63.9167
64.3595
64.8835
65.4651
66.0863
66.7333
67.3839
68.0125
68.5986
69.1261
69.585
69.9701
70.2764
70.5003
70.6382
70.6998
70.6993
70.6226
70.4287
70.1411
69.8468
69.5528
69.1999
68.9136
68.757
68.6739
68.6443
68.6749
68.7355
68.7924
68.8323
68.8341
68.7728
68.6659
68.5597
68.5398
68.5712
68.5874
68.598
68.5705
68.4866
68.3807
68.2903
68.2114
68.0952
67.9589
67.8067
67.642
67.4792
67.3439
67.2728
67.3021
67.4367
67.6646
68.0027
68.4546
69.0025
69.6197
70.2725
70.9243
71.5476
72.1385
72.7102
73.2441
73.7534
74.2048
74.6256
74.9905
75.3288
75.6031
75.8651
76.0944
76.3271
76.5095
76.6769
76.7726
76.8809
76.9422
77.0276
77.049
77.0771
77.0415
77.0399
77.0101
77.0364
77.0299
77.0692
77.0633
77.0769
77.0371
77.0479
77.013
77.0323
77.0114
77.072
77.0993
77.2323
77.343
77.5896
77.7943
78.1083
78.3275
78.6222
78.8141
79.0625
79.1965
79.4011
79.4796
79.65
79.689
79.8419
79.8715
80.0076
79.9947
80.1075
80.0714
80.1639
80.0909
80.169
80.0589
80.1275
79.9922
80.066
79.9222
80.0224
79.8778
80.0138
79.8605
80.0103
79.8363
79.9864
79.7719
79.912
79.643
79.7696
79.4427
79.5551
79.1653
79.2661
78.8183
78.9154
78.4127
78.5092
77.9483
78.056
77.4284
77.5626
76.8738
77.046
76.3038
76.5216
75.7335
75.9923
75.1374
75.4393
74.4787
74.8098
73.7283
74.0867
72.9001
73.3264
71.8705
72.2942
70.3989
70.6358
68.2605
67.9145
65.0778
63.2346
59.8057
55.8665
52.0975
46.0935
42.6756
34.8852
29.1025
71.0884
70.4714
68.6561
67.1394
66.2109
65.8389
65.8486
66.0216
66.198
66.2925
66.2792
66.153
65.9406
65.674
65.375
65.0648
64.7722
64.5106
64.2836
64.1157
64.0409
64.0824
64.2389
64.4869
64.8143
65.2233
65.7034
66.2335
66.7973
67.3819
67.9669
68.5307
69.0569
69.5303
69.9427
70.2915
70.5723
70.782
70.9133
70.9712
70.9735
70.9097
70.7335
70.4428
70.1364
69.836
69.4743
69.1705
69.0018
68.8973
68.8529
68.8891
68.9667
69.0414
69.0944
69.0958
69.0173
68.88
68.7591
68.7543
68.8012
68.8202
68.8255
68.7906
68.7006
68.595
68.5149
68.4501
68.3447
68.2199
68.0814
67.9324
67.7868
67.6709
67.6214
67.6748
67.836
68.0895
68.453
68.9294
69.4995
70.1351
70.8056
71.4723
72.1063
72.7046
73.2883
73.8306
74.3533
74.8098
75.2421
75.6184
75.9654
76.2465
76.5106
76.7337
76.9622
77.1348
77.2947
77.3747
77.476
77.5221
77.6001
77.607
77.6281
77.5809
77.5761
77.5367
77.5615
77.5459
77.5861
77.5717
77.5797
77.5347
77.5413
77.4991
77.5142
77.4839
77.5381
77.5488
77.6679
77.7549
77.9814
78.1613
78.459
78.6552
78.936
79.1052
79.3392
79.4477
79.6401
79.6977
79.863
79.8857
80.0329
80.0466
80.1812
80.1554
80.2657
80.215
80.3112
80.2232
80.304
80.179
80.2521
80.0991
80.1749
80.0162
80.1175
79.9575
80.0932
79.9242
80.0775
79.8882
80.0403
79.8061
79.9415
79.646
79.7662
79.4076
79.5179
79.0933
79.1964
78.7087
78.8119
78.2602
78.3672
77.7489
77.8675
77.1707
77.3191
76.5455
76.7408
75.9013
76.1523
75.257
75.5557
74.5827
74.937
73.8515
74.2363
73.0373
73.4309
72.1754
72.5677
71.1212
71.37
69.5972
69.4239
67.3066
66.2507
63.7375
61.3303
58.3586
54.4682
51.6408
46.1921
43.4376
36.2932
30.2186
71.3851
70.8175
69.0177
67.4733
66.503
66.094
66.0975
66.2978
66.5215
66.6718
66.7138
66.6401
66.4713
66.242
65.9783
65.7051
65.451
65.2314
65.051
64.9255
64.8803
64.9332
65.0891
65.3297
65.64
66.0206
66.4623
66.9462
67.457
67.9819
68.502
69.002
69.4699
69.8914
70.2611
70.5753
70.8294
71.022
71.1481
71.2072
71.2153
71.1654
71.0148
70.7356
70.4235
70.1183
69.7551
69.4498
69.2778
69.1555
69.0992
69.1445
69.2402
69.3324
69.4012
69.4015
69.3008
69.1328
69.0018
69.0166
69.0816
69.1046
69.1072
69.0699
68.9796
68.8788
68.811
68.761
68.6706
68.5608
68.439
68.3088
68.1815
68.0858
68.0577
68.1335
68.3171
68.5922
68.9765
69.4722
70.0598
70.709
71.3917
72.0685
72.71
73.3122
73.9047
74.4489
74.9817
75.4359
75.8753
76.26
76.6134
76.9028
77.1746
77.3895
77.6178
77.7805
77.9355
78
78.0971
78.1244
78.1973
78.1856
78.2017
78.1393
78.1359
78.0851
78.1125
78.0846
78.1298
78.1007
78.1039
78.0518
78.0531
78.0034
78.015
77.9754
78.0236
78.018
78.1256
78.1898
78.3962
78.5482
78.8285
79.0019
79.2674
79.4148
79.6335
79.7168
79.8946
79.9314
80.0868
80.0959
80.2344
80.2315
80.3607
80.3222
80.4274
80.3617
80.4568
80.3552
80.4342
80.2962
80.3682
80.2019
80.2771
80.1065
80.2054
80.033
80.1611
79.9789
80.1261
79.9241
80.0695
79.8214
79.9443
79.6323
79.7355
79.3597
79.4523
79.0116
79.0975
78.5939
78.6782
78.1096
78.1962
77.5637
77.6516
76.9438
77.0508
76.2634
76.4151
75.5548
75.7613
74.8365
75.0858
74.0823
74.3727
73.2555
73.5662
72.3317
72.6509
71.3619
71.6393
70.1444
70.2098
68.3867
67.9738
65.8292
64.4909
62.128
59.7718
57.2856
53.8394
51.8678
46.9252
44.2901
37.5448
31.2542
71.6347
71.118
69.3596
67.8095
66.8121
66.3681
66.3563
66.5697
66.8284
67.0258
67.1191
67.0964
66.972
66.7801
66.5498
66.3091
66.087
65.9019
65.7599
65.6716
65.6527
65.7182
65.8738
66.1056
66.3999
66.754
67.1601
67.6014
68.0615
68.5295
68.9881
69.4268
69.8374
70.2096
70.5397
70.8221
71.0519
71.2269
71.3465
71.4104
71.4267
71.3915
71.2692
71.0146
70.7058
70.3949
70.0385
69.7461
69.5786
69.4464
69.3799
69.4356
69.5493
69.6571
69.7412
69.7417
69.6208
69.4235
69.2867
69.3253
69.4099
69.4366
69.4417
69.4094
69.3239
69.231
69.1754
69.1401
69.0685
68.9768
68.8749
68.7663
68.6594
68.5838
68.5774
68.6733
68.876
69.1679
69.5663
70.077
70.6765
71.3345
72.0241
72.7067
73.3542
73.9573
74.557
75.097
75.6382
76.0814
76.5232
76.9094