/*--------------------------------*- C++ -*----------------------------------*\
| =========                 |                                                 |
| \\      /  F ield         | OpenFOAM: The Open Source CFD Toolbox           |
|  \\    /   O peration     | Version:  2.4.0                                 |
|   \\  /    A nd           | Web:      www.OpenFOAM.org                      |
|    \\/     M anipulation  |                                                 |
\*---------------------------------------------------------------------------*/
FoamFile
{
    version     2.0;
    format      ascii;
    class       volVectorField;
    location    "0.146";
    object      U_0;
}
// * * * * * * * * * * * * * * * * * * * * * * * * * * * * * * * * * * * * * //

dimensions      [0 1 -1 0 0 0 0];

internalField   nonuniform List<vector> 
17600
(
(5.32854 0.309394 0)
(2.98493 0.0607846 0)
(2.19681 -0.00184279 0)
(1.84761 -0.00312875 0)
(1.70749 -0.00172316 0)
(1.61021 7.67753e-05 0)
(1.54219 -8.01573e-06 0)
(1.47097 5.56622e-06 0)
(1.45039 -0.000479072 0)
(1.38935 0.000150155 0)
(1.39873 -0.00027708 0)
(1.34201 -2.67585e-05 0)
(1.36623 -0.000759198 0)
(1.32408 0.000293474 0)
(1.34123 -0.000747444 0)
(1.36848 -0.00297732 0)
(1.39589 -0.000998998 0)
(1.45262 -0.00186886 0)
(1.66288 -0.00737246 0)
(1.99869 -0.0741764 0)
(8.59893 0.871789 0)
(6.94983 0.383924 0)
(5.81098 0.12097 0)
(5.05385 0.0520793 0)
(4.65855 0.0269231 0)
(4.37131 0.0212613 0)
(4.19283 0.0166911 0)
(3.99108 0.0116251 0)
(3.9372 0.00908443 0)
(3.7506 0.00733172 0)
(3.78643 0.00519237 0)
(3.61276 0.00505749 0)
(3.67258 0.000934178 0)
(3.5456 0.00499221 0)
(3.58198 -0.00428843 0)
(3.60531 -0.00864969 0)
(3.60787 -0.00745733 0)
(3.69836 -0.0266413 0)
(4.15194 -0.0567238 0)
(4.52545 -0.146412 0)
(9.85588 1.0219 0)
(9.34731 0.578263 0)
(8.47402 0.240144 0)
(7.63519 0.131871 0)
(7.10698 0.0794834 0)
(6.6782 0.0589049 0)
(6.43411 0.0459853 0)
(6.11791 0.0318929 0)
(6.05715 0.0273379 0)
(5.74791 0.0202279 0)
(5.82065 0.0153988 0)
(5.54063 0.0153265 0)
(5.62726 0.00522437 0)
(5.4319 0.0141716 0)
(5.47326 -0.00739655 0)
(5.48274 -0.0109169 0)
(5.45432 -0.0100045 0)
(5.50747 -0.0601968 0)
(6.1658 -0.105756 0)
(6.34502 -0.193728 0)
(10.1545 0.947169 0)
(10.5747 0.669825 0)
(10.2602 0.329387 0)
(9.62947 0.212112 0)
(9.14975 0.144614 0)
(8.65328 0.108386 0)
(8.41583 0.0859611 0)
(7.99581 0.0592967 0)
(7.96803 0.052979 0)
(7.54268 0.0385646 0)
(7.65852 0.0292389 0)
(7.29338 0.0306313 0)
(7.39831 0.0118494 0)
(7.14975 0.0272706 0)
(7.19299 -0.00944361 0)
(7.18362 -0.011147 0)
(7.13432 -0.00622965 0)
(7.12576 -0.100606 0)
(7.87111 -0.161464 0)
(7.99688 -0.251002 0)
(10.0596 0.804819 0)
(10.9297 0.670842 0)
(11.1375 0.356632 0)
(10.8683 0.258011 0)
(10.6336 0.199737 0)
(10.176 0.157613 0)
(10.0505 0.130049 0)
(9.55658 0.0900804 0)
(9.61147 0.0822895 0)
(9.10321 0.0614592 0)
(9.2629 0.0449263 0)
(8.84515 0.0495972 0)
(8.97169 0.0205075 0)
(8.67716 0.043093 0)
(8.73543 -0.0102526 0)
(8.70744 -0.00945351 0)
(8.63119 0.00273574 0)
(8.62072 -0.137537 0)
(9.26636 -0.218586 0)
(9.50241 -0.342865 0)
(9.96088 0.6907 0)
(10.8663 0.636363 0)
(11.3274 0.335705 0)
(11.3183 0.252599 0)
(11.4189 0.220728 0)
(11.084 0.187857 0)
(11.192 0.164974 0)
(10.6927 0.117892 0)
(10.8788 0.109049 0)
(10.3558 0.0861137 0)
(10.5658 0.0605672 0)
(10.1305 0.0695642 0)
(10.3029 0.0306087 0)
(9.96341 0.0604663 0)
(10.0574 -0.0115326 0)
(10.0269 -0.00490893 0)
(9.89699 0.0112497 0)
(9.97622 -0.167233 0)
(10.4013 -0.26565 0)
(10.7274 -0.476144 0)
(9.93074 0.602087 0)
(10.7257 0.599463 0)
(11.2855 0.311121 0)
(11.2831 0.219593 0)
(11.6381 0.207996 0)
(11.3565 0.188995 0)
(11.7399 0.176544 0)
(11.2961 0.131822 0)
(11.6439 0.122305 0)
(11.192 0.104904 0)
(11.4786 0.0719869 0)
(11.0605 0.0857419 0)
(11.3225 0.0400084 0)
(10.9471 0.0779545 0)
(11.0994 -0.0153763 0)
(11.0837 0.00268539 0)
(10.901 0.0169508 0)
(11.0883 -0.193005 0)
(11.3684 -0.297358 0)
(11.5829 -0.556873 0)
(9.94241 0.527238 0)
(10.5649 0.552912 0)
(11.2458 0.29982 0)
(11.1373 0.189694 0)
(11.6399 0.18642 0)
(11.3013 0.175949 0)
(11.8405 0.16869 0)
(11.457 0.132406 0)
(11.8907 0.117776 0)
(11.562 0.109962 0)
(11.9333 0.0746678 0)
(11.5476 0.0910281 0)
(11.9412 0.0429347 0)
(11.5526 0.0922127 0)
(11.7952 -0.0265046 0)
(11.7876 0.0130293 0)
(11.6087 0.0166711 0)
(11.8802 -0.211445 0)
(12.0757 -0.345464 0)
(12.101 -0.52092 0)
(9.99773 0.465506 0)
(10.4033 0.497043 0)
(11.181 0.288167 0)
(11.0369 0.165146 0)
(11.5739 0.163826 0)
(11.2448 0.163377 0)
(11.7391 0.149647 0)
(11.4673 0.130872 0)
(11.8289 0.101863 0)
(11.6348 0.104061 0)
(12.0227 0.0703872 0)
(11.6967 0.0870453 0)
(12.1293 0.0364862 0)
(11.785 0.09992 0)
(12.1174 -0.0451826 0)
(12.0604 0.0193261 0)
(11.9713 0.01159 0)
(12.3248 -0.242442 0)
(12.3804 -0.360988 0)
(12.43 -0.524757 0)
(10.0539 0.411934 0)
(10.3276 0.44184 0)
(11.0427 0.275702 0)
(11.0243 0.14171 0)
(11.4147 0.140166 0)
(11.2814 0.153404 0)
(11.5824 0.130344 0)
(11.4821 0.126901 0)
(11.6755 0.0888542 0)
(11.6285 0.0876562 0)
(11.8893 0.0650235 0)
(11.8179 0.0774567 0)
(11.9905 0.0326242 0)
(11.8707 0.0930768 0)
(12.1991 -0.0568965 0)
(11.9675 0.0205287 0)
(12.0921 -0.00625251 0)
(12.4765 -0.275875 0)
(12.2992 -0.364462 0)
(12.4468 -0.570381 0)
(10.0606 0.358844 0)
(10.3287 0.39681 0)
(10.905 0.257877 0)
(11.0504 0.125353 0)
(11.2514 0.113003 0)
(11.3129 0.140426 0)
(11.4788 0.112798 0)
(11.4717 0.126177 0)
(11.5835 0.0732859 0)
(11.5717 0.0832786 0)
(11.6905 0.0429529 0)
(11.9663 0.0743225 0)
(11.7053 0.0318076 0)
(12.013 0.069477 0)
(12.1218 -0.0479336 0)
(11.7908 0.0172141 0)
(12.2151 -0.0383176 0)
(12.3682 -0.296604 0)
(12.1375 -0.367657 0)
(12.2904 -0.578818 0)
(10.0259 0.310445 0)
(10.3459 0.351602 0)
(10.8282 0.242692 0)
(11.0587 0.110526 0)
(11.1653 0.0907413 0)
(11.2805 0.122917 0)
(11.425 0.0971974 0)
(11.4239 0.12124 0)
(11.5938 0.0663238 0)
(11.4149 0.0787688 0)
(11.6791 0.0169128 0)
(11.8731 0.0722557 0)
(11.5891 0.0311572 0)
(12.0868 0.0361258 0)
(11.9353 -0.0214977 0)
(11.8133 -0.00755376 0)
(12.248 -0.0692531 0)
(12.1558 -0.286463 0)
(12.0724 -0.389026 0)
(12.141 -0.638219 0)
(9.99268 0.26475 0)
(10.3657 0.304896 0)
(10.7777 0.220441 0)
(11.0316 0.102508 0)
(11.1147 0.0712306 0)
(11.2429 0.105805 0)
(11.3505 0.0805562 0)
(11.4296 0.110002 0)
(11.5492 0.0668033 0)
(11.3413 0.0735763 0)
(11.7168 -0.00947106 0)
(11.6068 0.079514 0)
(11.7379 0.0141903 0)
(11.9471 0.0164284 0)
(11.8188 -0.00213995 0)
(11.9372 -0.0427825 0)
(12.08 -0.0793475 0)
(12.0287 -0.28305 0)
(12.0617 -0.413313 0)
(12.0907 -0.687038 0)
(9.99466 0.224746 0)
(10.3635 0.255722 0)
(10.7073 0.200081 0)
(10.9801 0.0939706 0)
(11.0964 0.0570815 0)
(11.2181 0.0897322 0)
(11.2824 0.0602721 0)
(11.4516 0.0977321 0)
(11.4197 0.0719644 0)
(11.4359 0.0558372 0)
(11.5822 -0.0077909 0)
(11.5577 0.0597441 0)
(11.8165 0.00153514 0)
(11.767 0.0158194 0)
(11.8162 -0.0105447 0)
(11.9512 -0.0550151 0)
(11.8996 -0.0791924 0)
(12.0142 -0.308861 0)
(12.0569 -0.418057 0)
(12.0215 -0.705351 0)
(10.0116 0.1825 0)
(10.3147 0.216909 0)
(10.6476 0.169254 0)
(10.9428 0.0884832 0)
(11.1256 0.0377392 0)
(11.1697 0.0831494 0)
(11.2493 0.0331723 0)
(11.394 0.0971472 0)
(11.3662 0.062248 0)
(11.5108 0.0513759 0)
(11.441 -0.0140092 0)
(11.6764 0.0395472 0)
(11.7003 -0.00253874 0)
(11.6895 0.0136875 0)
(11.8708 -0.0212055 0)
(11.8393 -0.0633783 0)
(11.873 -0.0868664 0)
(12.0169 -0.327703 0)
(12.0021 -0.432802 0)
(11.8625 -0.671809 0)
(10.0054 0.14974 0)
(10.272 0.174808 0)
(10.6368 0.137512 0)
(10.9214 0.0726513 0)
(11.1374 0.0296367 0)
(11.0952 0.0724526 0)
(11.2512 0.0151849 0)
(11.3029 0.0841975 0)
(11.422 0.053527 0)
(11.4459 0.042928 0)
(11.4684 -0.0157047 0)
(11.6727 0.01437 0)
(11.5763 0.0120344 0)
(11.7026 -0.0163684 0)
(11.9007 -0.0189897 0)
(11.6981 -0.0736566 0)
(11.9313 -0.101043 0)
(11.9931 -0.340678 0)
(11.8874 -0.434504 0)
(11.7058 -0.640935 0)
(9.98766 0.118857 0)
(10.2893 0.131029 0)
(10.6147 0.10282 0)
(10.8854 0.0629851 0)
(11.097 0.0215958 0)
(11.0728 0.0652918 0)
(11.2621 -0.00873191 0)
(11.2693 0.0728596 0)
(11.4229 0.0445091 0)
(11.3681 0.0369361 0)
(11.5617 -0.0251295 0)
(11.5535 0.0103432 0)
(11.5466 0.00500145 0)
(11.7777 -0.0321124 0)
(11.787 -0.0227262 0)
(11.6719 -0.0704607 0)
(11.9538 -0.136011 0)
(11.9396 -0.328589 0)
(11.7742 -0.427209 0)
(11.6685 -0.631471 0)
(9.99115 0.0862912 0)
(10.3014 0.0897617 0)
(10.5551 0.0724543 0)
(10.8586 0.0543712 0)
(11.0662 0.00960055 0)
(11.1217 0.0525981 0)
(11.2355 -0.0291184 0)
(11.2591 0.0635998 0)
(11.3344 0.0379256 0)
(11.4237 0.0222515 0)
(11.5582 -0.0270156 0)
(11.4695 0.00937577 0)
(11.5929 -0.0121124 0)
(11.7704 -0.0412039 0)
(11.6292 -0.0174163 0)
(11.7849 -0.0854601 0)
(11.8923 -0.161102 0)
(11.8605 -0.308773 0)
(11.7595 -0.445963 0)
(11.7027 -0.596964 0)
(9.99572 0.0576997 0)
(10.2756 0.0496189 0)
(10.5255 0.045228 0)
(10.8693 0.0358442 0)
(11.0658 0.000410574 0)
(11.1476 0.0384427 0)
(11.1974 -0.0401743 0)
(11.226 0.0514741 0)
(11.3006 0.0280272 0)
(11.5235 -0.00232204 0)
(11.4522 -0.00971207 0)
(11.4701 -0.0103091 0)
(11.6574 -0.0206543 0)
(11.6231 -0.0438148 0)
(11.663 -0.0243048 0)
(11.8188 -0.109596 0)
(11.8373 -0.155447 0)
(11.8063 -0.31802 0)
(11.7774 -0.448044 0)
(11.6931 -0.597863 0)
(9.99059 0.0275309 0)
(10.2578 0.0136426 0)
(10.5436 0.00696786 0)
(10.8751 0.0252029 0)
(11.063 -0.014509 0)
(11.1287 0.0350716 0)
(11.1924 -0.0573091 0)
(11.191 0.0449502 0)
(11.3756 0.00391814 0)
(11.4892 -0.00499592 0)
(11.3705 -0.00570444 0)
(11.55 -0.0246462 0)
(11.6215 -0.0323501 0)
(11.5542 -0.0322851 0)
(11.7743 -0.05489 0)
(11.7421 -0.11017 0)
(11.8149 -0.15777 0)
(11.8032 -0.331026 0)
(11.7594 -0.42641 0)
(11.6303 -0.649824 0)
(9.99358 0.00248274 0)
(10.2541 -0.0301683 0)
(10.5651 -0.022753 0)
(10.8622 0.00757042 0)
(11.0556 -0.0172503 0)
(11.1259 0.0182549 0)
(11.1893 -0.0610774 0)
(11.2095 0.0175833 0)
(11.4238 -0.00289143 0)
(11.3732 -0.0123715 0)
(11.4096 0.000308608 0)
(11.6047 -0.0524639 0)
(11.5417 -0.0187288 0)
(11.6336 -0.0586152 0)
(11.7403 -0.0585284 0)
(11.7254 -0.116973 0)
(11.7902 -0.168132 0)
(11.8108 -0.330991 0)
(11.7451 -0.424934 0)
(11.6196 -0.662827 0)
(10.0011 -0.0266054 0)
(10.2493 -0.0693859 0)
(10.5863 -0.0590725 0)
(10.8466 -0.00111265 0)
(11.0574 -0.0315206 0)
(11.1457 0.00950449 0)
(11.1859 -0.0761678 0)
(11.2662 -0.00249523 0)
(11.3698 -0.00692968 0)
(11.3464 -0.0162005 0)
(11.4935 -0.0161154 0)
(11.5839 -0.0517193 0)
(11.5477 -0.0322318 0)
(11.6589 -0.0562792 0)
(11.7051 -0.0720813 0)
(11.7269 -0.119697 0)
(11.7842 -0.18204 0)
(11.8304 -0.322028 0)
(11.751 -0.444733 0)
(11.5814 -0.606056 0)
(9.99854 -0.0546081 0)
(10.2584 -0.112119 0)
(10.605 -0.0886619 0)
(10.84 -0.0138006 0)
(11.079 -0.0422982 0)
(11.1546 -0.0040247 0)
(11.2092 -0.0887147 0)
(11.2843 -0.0189119 0)
(11.3099 -0.00654713 0)
(11.4139 -0.0352402 0)
(11.5202 -0.0201424 0)
(11.5601 -0.0583078 0)
(11.587 -0.0401192 0)
(11.6284 -0.055517 0)
(11.7253 -0.0909962 0)
(11.7164 -0.115583 0)
(11.8279 -0.201618 0)
(11.8168 -0.319969 0)
(11.7163 -0.440931 0)
(11.5699 -0.551661 0)
(9.99231 -0.083949 0)
(10.28 -0.155203 0)
(10.613 -0.11911 0)
(10.8609 -0.0264696 0)
(11.104 -0.0545407 0)
(11.158 -0.0188103 0)
(11.2392 -0.0953364 0)
(11.2701 -0.0353902 0)
(11.3218 -0.00879028 0)
(11.4649 -0.0573493 0)
(11.5167 -0.0160308 0)
(11.5726 -0.0700346 0)
(11.5865 -0.0384857 0)
(11.6472 -0.0714695 0)
(11.7209 -0.0893461 0)
(11.7621 -0.139581 0)
(11.8281 -0.196025 0)
(11.7843 -0.327594 0)
(11.723 -0.429119 0)
(11.5784 -0.538044 0)
(9.99392 -0.117285 0)
(10.2934 -0.196506 0)
(10.6347 -0.149877 0)
(10.9022 -0.0381329 0)
(11.1125 -0.0677699 0)
(11.1735 -0.0306706 0)
(11.261 -0.106707 0)
(11.2757 -0.0476187 0)
(11.3634 -0.0210521 0)
(11.4827 -0.0686893 0)
(11.5244 -0.0231656 0)
(11.5919 -0.0680461 0)
(11.6031 -0.0549424 0)
(11.6625 -0.0654252 0)
(11.7513 -0.10857 0)
(11.7947 -0.144871 0)
(11.7898 -0.19489 0)
(11.8049 -0.334719 0)
(11.7559 -0.419896 0)
(11.5665 -0.543075 0)
(9.99663 -0.150739 0)
(10.3027 -0.239928 0)
(10.6836 -0.180805 0)
(10.9387 -0.0513849 0)
(11.1187 -0.0764825 0)
(11.2048 -0.0509257 0)
(11.2754 -0.109813 0)
(11.3085 -0.0677968 0)
(11.3956 -0.0255382 0)
(11.5015 -0.0850775 0)
(11.5503 -0.0229396 0)
(11.6135 -0.0771952 0)
(11.6303 -0.058935 0)
(11.6869 -0.0722466 0)
(11.7944 -0.122677 0)
(11.7804 -0.142422 0)
(11.8107 -0.205824 0)
(11.8449 -0.336645 0)
(11.7575 -0.412784 0)
(11.5809 -0.550556 0)
(9.99376 -0.1885 0)
(10.3287 -0.284119 0)
(10.7426 -0.211701 0)
(10.9614 -0.0596665 0)
(11.1435 -0.0900632 0)
(11.238 -0.0661453 0)
(11.2901 -0.116961 0)
(11.3549 -0.0834452 0)
(11.4315 -0.0343897 0)
(11.5335 -0.0964721 0)
(11.5758 -0.0286791 0)
(11.6392 -0.0794392 0)
(11.6602 -0.0685585 0)
(11.7282 -0.0789609 0)
(11.8051 -0.12595 0)
(11.8119 -0.153126 0)
(11.8522 -0.210292 0)
(11.8596 -0.333452 0)
(11.7757 -0.419822 0)
(11.6108 -0.547529 0)
(9.99556 -0.229505 0)
(10.3705 -0.331217 0)
(10.7907 -0.234148 0)
(10.9902 -0.0724304 0)
(11.1847 -0.103298 0)
(11.2631 -0.0843655 0)
(11.3234 -0.122657 0)
(11.4127 -0.101285 0)
(11.4725 -0.0424621 0)
(11.5629 -0.106396 0)
(11.6004 -0.0342019 0)
(11.6691 -0.0829511 0)
(11.7045 -0.0788377 0)
(11.7598 -0.082759 0)
(11.8476 -0.134369 0)
(11.8619 -0.162592 0)
(11.8762 -0.207008 0)
(11.8888 -0.341723 0)
(11.8003 -0.422284 0)
(11.6307 -0.519223 0)
(10.0149 -0.276543 0)
(10.4057 -0.378519 0)
(10.8422 -0.250321 0)
(11.0295 -0.0876488 0)
(11.2307 -0.121028 0)
(11.2922 -0.100781 0)
(11.3795 -0.131161 0)
(11.4627 -0.11859 0)
(11.5107 -0.047828 0)
(11.5842 -0.115554 0)
(11.637 -0.0410473 0)
(11.7115 -0.0891818 0)
(11.7554 -0.0861323 0)
(11.8114 -0.0905679 0)
(11.9064 -0.141362 0)
(11.8959 -0.165735 0)
(11.914 -0.211871 0)
(11.9102 -0.343262 0)
(11.8245 -0.412518 0)
(11.6605 -0.52008 0)
(10.0459 -0.329148 0)
(10.43 -0.427155 0)
(10.913 -0.258781 0)
(11.0537 -0.108001 0)
(11.2964 -0.139582 0)
(11.3251 -0.118852 0)
(11.4419 -0.140205 0)
(11.4944 -0.130327 0)
(11.5568 -0.0566071 0)
(11.6065 -0.120147 0)
(11.7034 -0.054141 0)
(11.761 -0.0913772 0)
(11.8286 -0.0982471 0)
(11.8648 -0.096295 0)
(11.9648 -0.145355 0)
(11.9242 -0.171833 0)
(11.9533 -0.210693 0)
(11.9159 -0.342013 0)
(11.8523 -0.404736 0)
(11.6618 -0.544333 0)
(10.0664 -0.389743 0)
(10.4581 -0.472479 0)
(10.9829 -0.267161 0)
(11.0828 -0.130385 0)
(11.3913 -0.161327 0)
(11.3397 -0.134821 0)
(11.5154 -0.14838 0)
(11.5196 -0.139921 0)
(11.6274 -0.0664231 0)
(11.6438 -0.12737 0)
(11.8028 -0.0678115 0)
(11.806 -0.0963714 0)
(11.9123 -0.107818 0)
(11.896 -0.102692 0)
(12.0175 -0.14747 0)
(11.9136 -0.175594 0)
(11.979 -0.204558 0)
(11.8654 -0.34546 0)
(11.8097 -0.390615 0)
(11.5225 -0.5437 0)
(10.0598 -0.454344 0)
(10.5019 -0.517716 0)
(11.0492 -0.276165 0)
(11.1656 -0.158996 0)
(11.4644 -0.180781 0)
(11.3646 -0.149879 0)
(11.6087 -0.159157 0)
(11.5552 -0.147919 0)
(11.7185 -0.080033 0)
(11.699 -0.134845 0)
(11.8763 -0.0823045 0)
(11.8212 -0.0996562 0)
(11.9358 -0.114146 0)
(11.8573 -0.108708 0)
(11.9688 -0.14478 0)
(11.789 -0.174327 0)
(11.859 -0.200117 0)
(11.6174 -0.331978 0)
(11.5303 -0.366174 0)
(11.09 -0.530299 0)
(10.0316 -0.525244 0)
(10.5695 -0.559326 0)
(11.1441 -0.290566 0)
(11.2722 -0.188541 0)
(11.5104 -0.197601 0)
(11.4389 -0.166812 0)
(11.6896 -0.170565 0)
(11.5754 -0.153823 0)
(11.7615 -0.0954746 0)
(11.6643 -0.13759 0)
(11.7874 -0.0919595 0)
(11.6781 -0.0985335 0)
(11.7286 -0.115753 0)
(11.5843 -0.105173 0)
(11.6298 -0.139863 0)
(11.38 -0.160503 0)
(11.3917 -0.192129 0)
(11.0449 -0.296741 0)
(10.8788 -0.345988 0)
(10.3423 -0.459906 0)
(9.99589 -0.603325 0)
(10.6823 -0.595419 0)
(11.2598 -0.31066 0)
(11.3705 -0.218806 0)
(11.5408 -0.215811 0)
(11.4733 -0.183338 0)
(11.617 -0.175326 0)
(11.4096 -0.153715 0)
(11.5253 -0.102265 0)
(11.2987 -0.129448 0)
(11.332 -0.0892089 0)
(11.1541 -0.0910912 0)
(11.1196 -0.103555 0)
(10.9178 -0.0960322 0)
(10.8983 -0.121799 0)
(10.598 -0.142926 0)
(10.5576 -0.1682 0)
(10.1407 -0.260213 0)
(9.92447 -0.301746 0)
(9.32813 -0.382122 0)
(9.99365 -0.691472 0)
(10.8319 -0.630534 0)
(11.339 -0.340636 0)
(11.3582 -0.250513 0)
(11.36 -0.227264 0)
(11.1622 -0.1838 0)
(11.1053 -0.162594 0)
(10.7785 -0.137641 0)
(10.7738 -0.0918935 0)
(10.4506 -0.106965 0)
(10.4159 -0.0755137 0)
(10.1951 -0.0742039 0)
(10.1083 -0.0841361 0)
(9.88421 -0.0794456 0)
(9.82361 -0.0996155 0)
(9.50682 -0.118666 0)
(9.42782 -0.139722 0)
(8.98204 -0.216872 0)
(8.73094 -0.246497 0)
(8.09713 -0.320887 0)
(10.0724 -0.805111 0)
(10.9128 -0.66632 0)
(11.1537 -0.36237 0)
(10.8847 -0.254993 0)
(10.599 -0.205046 0)
(10.2218 -0.154115 0)
(9.99687 -0.127951 0)
(9.60842 -0.106146 0)
(9.52572 -0.0688093 0)
(9.18026 -0.078199 0)
(9.11547 -0.0567235 0)
(8.88931 -0.0541852 0)
(8.78264 -0.062485 0)
(8.56449 -0.0607488 0)
(8.47942 -0.0758667 0)
(8.17356 -0.0917688 0)
(8.06555 -0.109502 0)
(7.62463 -0.167425 0)
(7.34293 -0.196043 0)
(6.72778 -0.240472 0)
(10.1576 -0.947165 0)
(10.5691 -0.666654 0)
(10.2736 -0.33426 0)
(9.63426 -0.208991 0)
(9.13061 -0.148932 0)
(8.67573 -0.105543 0)
(8.38924 -0.0846655 0)
(8.01802 -0.0709988 0)
(7.90606 -0.0435249 0)
(7.59549 -0.050535 0)
(7.52423 -0.0378916 0)
(7.31922 -0.0348672 0)
(7.21557 -0.0417973 0)
(7.02025 -0.0420677 0)
(6.92455 -0.0522827 0)
(6.64958 -0.0650664 0)
(6.52434 -0.0775297 0)
(6.11112 -0.119927 0)
(5.82267 -0.140716 0)
(5.22739 -0.17165 0)
(9.85537 -1.02171 0)
(9.34911 -0.576423 0)
(8.48287 -0.243632 0)
(7.63474 -0.12923 0)
(7.0973 -0.0827015 0)
(6.68561 -0.0568296 0)
(6.42459 -0.0451893 0)
(6.1214 -0.0394912 0)
(6.01597 -0.021638 0)
(5.7753 -0.0272734 0)
(5.71071 -0.0213151 0)
(5.54599 -0.018414 0)
(5.46074 -0.0238529 0)
(5.29903 -0.0248874 0)
(5.20643 -0.0308514 0)
(4.97701 -0.0398996 0)
(4.84788 -0.0470337 0)
(4.48739 -0.0748071 0)
(4.20883 -0.0871851 0)
(3.66799 -0.11256 0)
(8.59826 -0.871743 0)
(6.95387 -0.383173 0)
(5.81462 -0.122766 0)
(5.05197 -0.0503923 0)
(4.65408 -0.0288268 0)
(4.3713 -0.0201185 0)
(4.19112 -0.0162074 0)
(3.98592 -0.0155825 0)
(3.91099 -0.00636139 0)
(3.75926 -0.0103616 0)
(3.70952 -0.00867023 0)
(3.59957 -0.00651708 0)
(3.54071 -0.0100103 0)
(3.42431 -0.0109118 0)
(3.34833 -0.0135425 0)
(3.17989 -0.01855 0)
(3.06586 -0.0212961 0)
(2.78925 -0.0358177 0)
(2.54606 -0.0413139 0)
(2.1226 -0.0596135 0)
(5.32805 -0.309406 0)
(2.98753 -0.0606448 0)
(2.19691 0.00143808 0)
(1.84617 0.00373306 0)
(1.70646 0.00109444 0)
(1.60781 0.000255097 0)
(1.54343 0.00019786 0)
(1.46555 -0.000943532 0)
(1.4375 0.00114895 0)
(1.38851 -0.000520135 0)
(1.36451 -0.000596622 0)
(1.32287 0.000218278 0)
(1.29911 -0.000841635 0)
(1.24792 -0.000917898 0)
(1.20819 -0.00123395 0)
(1.12929 -0.00226036 0)
(1.06478 -0.00196065 0)
(0.92821 -0.00506572 0)
(0.784188 -0.00587372 0)
(0.570705 -0.00932356 0)
(2.84503 -0.0207808 0)
(3.97334 0.145149 0)
(5.14441 -0.6001 0)
(6.01497 -1.66823 0)
(7.34585 -2.85912 0)
(7.4197 -4.16161 0)
(7.78591 -4.97754 0)
(7.2616 -5.25853 0)
(6.94766 -5.04906 0)
(6.19631 -4.60217 0)
(5.17421 -4.18709 0)
(4.79593 -3.00183 0)
(3.41183 -2.63932 0)
(1.92862 -2.36262 0)
(1.88943 -0.0930693 0)
(2.22135 2.5575 0)
(3.61823 4.41449 0)
(4.07664 7.76034 0)
(4.77103 7.46015 0)
(6.31065 6.25241 0)
(5.78597 6.21709 0)
(7.44362 5.08408 0)
(8.06591 4.61251 0)
(9.10865 3.88095 0)
(9.26218 2.72938 0)
(9.65894 1.30067 0)
(9.48816 0.0595219 0)
(9.41362 -1.1295 0)
(9.85608 -2.3282 0)
(10.6418 -3.61245 0)
(11.305 -4.8205 0)
(12.2177 -5.83805 0)
(13.1548 -6.9708 0)
(13.4799 -7.70642 0)
(13.4337 -8.0178 0)
(13.1201 -8.14455 0)
(12.6218 -7.99358 0)
(12.1682 -7.86978 0)
(11.8927 -7.72561 0)
(11.354 -7.62177 0)
(11.2154 -7.21967 0)
(10.585 -7.09112 0)
(10.9528 -7.06698 0)
(10.1927 -6.71916 0)
(10.2197 -6.43125 0)
(10.3663 -6.6192 0)
(10.3429 -6.6615 0)
(10.4613 -6.2922 0)
(10.2181 -6.05771 0)
(9.96652 -5.78512 0)
(9.99938 -5.35556 0)
(10.3965 -5.16897 0)
(10.81 -4.92367 0)
(11.1186 -4.2518 0)
(11.3898 -3.53124 0)
(11.6201 -3.02345 0)
(11.7673 -2.29637 0)
(11.6719 -1.25035 0)
(11.6587 -0.469644 0)
(11.7553 0.161225 0)
(11.7278 1.02918 0)
(11.5885 1.79121 0)
(11.3887 2.17654 0)
(10.9578 2.59126 0)
(10.4206 3.19397 0)
(9.94855 3.89893 0)
(9.46739 4.88088 0)
(8.85748 5.83642 0)
(8.36164 6.15261 0)
(7.89258 5.83015 0)
(7.54573 5.79545 0)
(7.03749 5.58377 0)
(6.97333 4.96304 0)
(6.5869 4.30866 0)
(6.86858 4.28226 0)
(6.20826 4.95578 0)
(6.58736 4.18156 0)
(6.15804 3.99872 0)
(6.12232 3.64538 0)
(6.48365 2.88693 0)
(6.4516 4.04099 0)
(6.62084 4.42834 0)
(6.73624 3.30763 0)
(6.91216 3.4987 0)
(7.19491 3.90664 0)
(6.78964 2.81003 0)
(6.66658 1.85864 0)
(7.45866 2.82759 0)
(8.36851 4.67881 0)
(8.88721 5.62728 0)
(8.94221 5.59704 0)
(8.96246 5.40799 0)
(8.93709 5.31434 0)
(8.8423 4.97825 0)
(8.66586 4.04343 0)
(8.31097 2.63379 0)
(7.98577 1.20493 0)
(7.86027 0.117434 0)
(7.47765 -0.844169 0)
(7.36852 -1.71839 0)
(6.91806 -3.16438 0)
(6.8246 -4.17029 0)
(6.89038 -5.0105 0)
(7.00684 -6.60159 0)
(6.93837 -9.70143 0)
(6.57724 -10.6105 0)
(6.53672 -10.1837 0)
(7.30125 -9.13412 0)
(6.66008 -8.59518 0)
(6.65963 -8.07316 0)
(6.93211 -8.36073 0)
(6.83366 -8.15638 0)
(6.66033 -9.01228 0)
(7.24709 -9.27722 0)
(7.75362 -8.50572 0)
(8.07002 -7.42613 0)
(8.05276 -6.87506 0)
(7.90103 -6.55441 0)
(7.80081 -5.77496 0)
(7.71919 -4.48724 0)
(7.6682 -3.07373 0)
(7.482 -1.70908 0)
(7.36329 -0.436138 0)
(7.33428 0.961582 0)
(7.34901 2.72646 0)
(7.0206 4.74618 0)
(6.59931 6.20969 0)
(6.33461 6.58454 0)
(6.2665 6.88948 0)
(5.74307 7.69005 0)
(5.29628 8.42903 0)
(4.80615 8.55357 0)
(4.70108 8.11397 0)
(4.67187 7.07219 0)
(4.65639 6.04156 0)
(4.54015 5.49916 0)
(4.72682 5.49427 0)
(4.51319 5.84179 0)
(4.36569 5.70622 0)
(4.33038 5.57266 0)
(4.51851 5.2284 0)
(4.46639 4.81533 0)
(4.58501 4.54113 0)
(4.60541 4.3981 0)
(4.53756 4.25731 0)
(4.36834 4.1472 0)
(4.50835 4.11542 0)
(4.35458 3.89207 0)
(4.57247 3.79851 0)
(4.39368 3.47355 0)
(4.42656 3.33754 0)
(4.69818 3.10874 0)
(4.92035 2.23823 0)
(5.57181 2.11391 0)
(5.54266 1.16773 0)
(6.65178 0.454259 0)
(6.27075 -0.678557 0)
(7.25922 -1.00671 0)
(7.47712 -2.13755 0)
(7.99231 -2.18248 0)
(8.14077 -3.10917 0)
(8.82804 -3.38405 0)
(9.00289 -3.75582 0)
(8.82215 -3.62321 0)
(8.88716 -3.71996 0)
(8.77054 -3.57292 0)
(8.64979 -3.63471 0)
(8.23362 -3.18151 0)
(8.28853 -3.3032 0)
(8.2299 -3.56651 0)
(8.32753 -3.76846 0)
(8.19165 -3.59686 0)
(8.22137 -3.44647 0)
(7.9695 -3.39927 0)
(8.01781 -3.14041 0)
(8.39545 -2.71252 0)
(8.55227 -2.51153 0)
(8.71842 -2.25262 0)
(8.93014 -1.71367 0)
(9.17846 -1.10315 0)
(9.267 -0.551474 0)
(9.55285 0.0750443 0)
(9.73118 0.859823 0)
(9.95481 1.66304 0)
(9.71553 2.27103 0)
(9.67144 2.77728 0)
(9.42478 3.28256 0)
(9.00082 3.48052 0)
(8.40884 3.52546 0)
(8.22268 3.84448 0)
(8.1018 4.29926 0)
(7.64249 4.34915 0)
(7.49701 4.56102 0)
(7.32805 4.96375 0)
(6.98792 5.31511 0)
(6.98332 5.915 0)
(6.81936 6.73109 0)
(6.27177 7.40497 0)
(6.40079 7.86457 0)
(3.50196 10.758 0)
(5.1033 -0.258105 0)
(5.88456 -0.164568 0)
(7.17102 -0.718484 0)
(7.72385 -1.8329 0)
(8.66397 -2.98468 0)
(8.54715 -4.14814 0)
(8.75932 -4.89691 0)
(8.12248 -5.14084 0)
(7.81781 -4.8532 0)
(7.01569 -4.23118 0)
(6.06726 -3.89629 0)
(5.35937 -2.71367 0)
(4.57511 -2.0004 0)
(2.76299 -1.99322 0)
(2.15992 -0.0695697 0)
(2.43651 1.93932 0)
(4.26576 3.91935 0)
(4.01351 7.48237 0)
(5.97726 7.24482 0)
(6.72624 6.08358 0)
(6.60269 5.83422 0)
(7.72167 4.70026 0)
(8.65122 4.19675 0)
(9.46669 3.67505 0)
(9.85494 2.55153 0)
(9.92428 1.28323 0)
(9.57588 0.145902 0)
(10.0367 -1.2729 0)
(10.5929 -2.56486 0)
(11.3255 -3.86358 0)
(12.1523 -5.15124 0)
(13.1134 -6.23362 0)
(13.7748 -7.20813 0)
(13.7702 -7.71547 0)
(13.5997 -7.91982 0)
(13.1758 -7.98919 0)
(12.6199 -7.78997 0)
(12.2454 -7.69721 0)
(11.9654 -7.57994 0)
(11.4287 -7.46686 0)
(11.2598 -7.1035 0)
(10.6859 -7.00341 0)
(11.0433 -6.9905 0)
(10.1972 -6.62864 0)
(10.3481 -6.41769 0)
(10.4513 -6.68326 0)
(10.3755 -6.64513 0)
(10.2908 -6.19789 0)
(9.87674 -5.93317 0)
(9.73979 -5.76324 0)
(9.90956 -5.48899 0)
(10.3013 -5.34525 0)
(10.6516 -5.06213 0)
(10.9036 -4.36074 0)
(11.1113 -3.62325 0)
(11.3519 -3.07625 0)
(11.4989 -2.30148 0)
(11.4102 -1.24334 0)
(11.3928 -0.474664 0)
(11.465 0.176677 0)
(11.3933 1.06298 0)
(11.2536 1.84447 0)
(11.0458 2.31603 0)
(10.6215 2.79941 0)
(10.1225 3.40427 0)
(9.65355 4.09018 0)
(9.13034 5.08495 0)
(8.54795 6.05381 0)
(8.03186 6.344 0)
(7.66734 5.99822 0)
(7.27453 5.97999 0)
(6.88298 5.67426 0)
(6.73906 5.06167 0)
(6.51096 4.33522 0)
(6.71374 4.37571 0)
(6.09444 4.9856 0)
(6.52313 4.18401 0)
(6.04753 4.12693 0)
(6.0481 3.55588 0)
(6.44033 2.79198 0)
(6.44298 4.03733 0)
(6.59407 4.34762 0)
(6.76266 3.19871 0)
(6.98585 3.4325 0)
(7.23798 3.95102 0)
(6.85773 2.88383 0)
(6.66354 1.71892 0)
(7.37681 2.50141 0)
(8.25296 4.34839 0)
(8.88643 5.47539 0)
(9.05666 5.55726 0)
(9.13376 5.40468 0)
(9.16457 5.32954 0)
(9.14017 5.02333 0)
(9.04699 4.17874 0)
(8.72394 2.751 0)
(8.41755 1.28985 0)
(8.31589 0.2293 0)
(7.97462 -0.709407 0)
(7.818 -1.58026 0)
(7.39325 -3.02646 0)
(7.20953 -4.19926 0)
(7.22633 -5.00552 0)
(7.36315 -6.57332 0)
(7.33922 -9.62481 0)
(6.85085 -10.6217 0)
(6.91849 -10.2999 0)
(7.3759 -9.09589 0)
(6.68824 -8.46274 0)
(6.82615 -8.11646 0)
(6.96223 -8.38981 0)
(6.90466 -8.07623 0)
(6.75343 -9.11461 0)
(7.30122 -9.46789 0)
(7.69237 -8.6583 0)
(7.92467 -7.47982 0)
(7.81625 -6.83482 0)
(7.59521 -6.46992 0)
(7.45206 -5.73077 0)
(7.35692 -4.45957 0)
(7.34629 -3.02681 0)
(7.24811 -1.67685 0)
(7.12281 -0.390401 0)
(7.03136 1.02686 0)
(6.95644 2.83604 0)
(6.56064 4.88685 0)
(6.15534 6.29146 0)
(5.94444 6.67705 0)
(5.88193 7.02518 0)
(5.40247 7.87356 0)
(4.97019 8.62393 0)
(4.4818 8.6539 0)
(4.2846 8.10168 0)
(4.44814 7.06181 0)
(4.55637 6.04388 0)
(4.48142 5.52915 0)
(4.42047 5.46022 0)
(4.54522 5.90259 0)
(4.28941 5.79559 0)
(4.26268 5.54591 0)
(4.36373 5.24224 0)
(4.44745 4.74528 0)
(4.57859 4.51927 0)
(4.48058 4.37934 0)
(4.59512 4.29544 0)
(4.36982 4.12694 0)
(4.52348 4.1049 0)
(4.46153 3.88105 0)
(4.56487 3.79081 0)
(4.3721 3.56511 0)
(4.33244 3.25716 0)
(4.7057 3.0172 0)
(4.57501 2.05332 0)
(5.45639 1.96166 0)
(5.27799 0.90788 0)
(6.48805 0.346872 0)
(5.8677 -0.836459 0)
(7.45501 -1.25107 0)
(7.38598 -2.32228 0)
(8.12385 -2.23854 0)
(8.15259 -3.34612 0)
(8.97203 -3.47575 0)
(8.83679 -3.80733 0)
(8.79746 -3.54355 0)
(8.87978 -3.75496 0)
(8.88705 -3.52767 0)
(8.68493 -3.58048 0)
(8.44712 -3.10097 0)
(8.41969 -3.32873 0)
(8.46443 -3.55024 0)
(8.42582 -3.74285 0)
(8.29748 -3.58447 0)
(8.3495 -3.41956 0)
(8.26826 -3.37927 0)
(8.3224 -3.23291 0)
(8.66972 -2.82665 0)
(8.84518 -2.53586 0)
(8.89421 -2.28477 0)
(8.9818 -1.78815 0)
(9.17297 -1.15842 0)
(9.35303 -0.622358 0)
(9.57721 -0.0359035 0)
(9.86304 0.773739 0)
(10.0555 1.63623 0)
(10.0505 2.27484 0)
(9.8844 2.89518 0)
(9.71509 3.34945 0)
(9.38203 3.67488 0)
(8.84375 3.79328 0)
(8.29078 3.87793 0)
(8.38119 4.28338 0)
(8.04489 4.61378 0)
(7.52821 4.65038 0)
(7.49302 5.00559 0)
(7.27025 5.4427 0)
(7.12743 5.9635 0)
(7.26947 6.67618 0)
(6.8902 7.61485 0)
(7.85043 7.94779 0)
(4.8881 11.8219 0)
(6.89938 -0.661771 0)
(7.40886 -0.702255 0)
(8.57654 -1.05449 0)
(8.91945 -2.0454 0)
(9.60866 -3.17748 0)
(9.39432 -4.16558 0)
(9.59496 -4.8263 0)
(8.97614 -4.96258 0)
(8.55149 -4.63998 0)
(7.79854 -3.94567 0)
(7.02987 -3.53008 0)
(5.81801 -2.47442 0)
(5.58986 -1.47008 0)
(3.7952 -1.4617 0)
(2.4392 0.130562 0)
(2.82674 1.64787 0)
(5.14747 3.41811 0)
(3.84996 6.85207 0)
(6.67315 6.92478 0)
(7.07248 5.88706 0)
(7.13551 5.45965 0)
(8.05996 4.26946 0)
(8.92427 3.80625 0)
(9.71068 3.42346 0)
(10.1922 2.41947 0)
(9.91835 1.36155 0)
(9.98451 0.088331 0)
(10.826 -1.5404 0)
(11.3121 -2.85689 0)
(12.1195 -4.18416 0)
(13.0751 -5.5132 0)
(13.894 -6.54712 0)
(14.2046 -7.32827 0)
(13.9385 -7.64024 0)
(13.6741 -7.7511 0)
(13.1754 -7.79665 0)
(12.6588 -7.59845 0)
(12.3067 -7.53901 0)
(12.0087 -7.45505 0)
(11.5158 -7.31086 0)
(11.2976 -6.97361 0)
(10.8123 -6.91639 0)
(11.1123 -6.88234 0)
(10.2253 -6.52674 0)
(10.4986 -6.41983 0)
(10.4881 -6.71048 0)
(10.3065 -6.56562 0)
(10.0217 -6.07202 0)
(9.55923 -5.83835 0)
(9.57373 -5.76855 0)
(9.79491 -5.63391 0)
(10.0771 -5.50035 0)
(10.3309 -5.1717 0)
(10.5322 -4.46577 0)
(10.7046 -3.72445 0)
(10.9734 -3.13575 0)
(11.1203 -2.30547 0)
(11.0556 -1.24084 0)
(11.0423 -0.467832 0)
(11.1114 0.203043 0)
(10.9868 1.11096 0)
(10.8243 1.92305 0)
(10.6593 2.43065 0)
(10.2318 2.97457 0)
(9.75316 3.6191 0)
(9.30683 4.30038 0)
(8.75757 5.29495 0)
(8.21724 6.26063 0)
(7.66691 6.49903 0)
(7.41883 6.16213 0)
(6.96697 6.15053 0)
(6.74738 5.76651 0)
(6.44133 5.14171 0)
(6.482 4.34496 0)
(6.51544 4.47613 0)
(6.00507 4.98287 0)
(6.43931 4.19434 0)
(5.94798 4.25233 0)
(5.96787 3.45447 0)
(6.36999 2.70422 0)
(6.42874 4.02952 0)
(6.56993 4.25368 0)
(6.75754 3.07025 0)
(7.03767 3.35751 0)
(7.28792 3.99889 0)
(6.95609 2.96889 0)
(6.70495 1.64648 0)
(7.31285 2.18246 0)
(8.15281 4.01422 0)
(8.87073 5.2839 0)
(9.15214 5.48664 0)
(9.29505 5.39462 0)
(9.36498 5.30143 0)
(9.41401 5.05722 0)
(9.39143 4.26526 0)
(9.12992 2.85904 0)
(8.83961 1.37802 0)
(8.74639 0.307208 0)
(8.42513 -0.612514 0)
(8.24167 -1.4714 0)
(7.84426 -2.88521 0)
(7.61953 -4.2082 0)
(7.55339 -4.99886 0)
(7.73574 -6.54943 0)
(7.68039 -9.53331 0)
(7.17706 -10.642 0)
(7.26974 -10.3637 0)
(7.3879 -8.99625 0)
(6.77664 -8.35099 0)
(7.02375 -8.19419 0)
(6.89622 -8.38599 0)
(7.03497 -8.03241 0)
(6.9082 -9.23087 0)
(7.33773 -9.60945 0)
(7.57587 -8.77314 0)
(7.72755 -7.48889 0)
(7.53445 -6.7756 0)
(7.26588 -6.37484 0)
(7.08682 -5.66783 0)
(6.99551 -4.45032 0)
(7.01313 -3.00161 0)
(6.9613 -1.61541 0)
(6.8884 -0.355585 0)
(6.74685 1.08989 0)
(6.56243 2.96732 0)
(6.07328 5.04698 0)
(5.71481 6.37228 0)
(5.56139 6.74548 0)
(5.50833 7.14389 0)
(5.04692 8.02672 0)
(4.66055 8.80679 0)
(4.25608 8.77774 0)
(4.00808 8.09334 0)
(4.12245 6.99749 0)
(4.42891 5.9621 0)
(4.45814 5.63768 0)
(4.17209 5.45876 0)
(4.3436 5.85405 0)
(4.2868 5.90906 0)
(4.29613 5.5271 0)
(4.36733 5.18862 0)
(4.55639 4.6485 0)
(4.53282 4.52325 0)
(4.51369 4.38491 0)
(4.74446 4.28904 0)
(4.41663 4.18107 0)
(4.49678 4.04333 0)
(4.6774 3.92996 0)
(4.54417 3.76658 0)
(4.38696 3.6678 0)
(4.25724 3.12954 0)
(4.88667 2.98199 0)
(4.22346 1.91851 0)
(5.49017 1.82108 0)
(4.9062 0.678491 0)
(6.40688 0.266676 0)
(5.66436 -1.09591 0)
(7.84053 -1.53272 0)
(7.1728 -2.47418 0)
(8.36734 -2.35454 0)
(8.05638 -3.58275 0)