/*--------------------------------*- C++ -*----------------------------------*\
| =========                 |                                                 |
| \\      /  F ield         | OpenFOAM: The Open Source CFD Toolbox           |
|  \\    /   O peration     | Version:  2.4.0                                 |
|   \\  /    A nd           | Web:      www.OpenFOAM.org                      |
|    \\/     M anipulation  |                                                 |
\*---------------------------------------------------------------------------*/
FoamFile
{
    version     2.0;
    format      ascii;
    class       volVectorField;
    location    "0.146";
    object      UMean;
}
// * * * * * * * * * * * * * * * * * * * * * * * * * * * * * * * * * * * * * //

dimensions      [0 1 -1 0 0 0 0];

internalField   nonuniform List<vector> 
17600
(
(5.3459 0.307441 0)
(3.04145 0.0607551 0)
(2.26588 -0.00141453 0)
(1.92367 -0.00351373 0)
(1.78826 -0.00133908 0)
(1.69729 -0.000161517 0)
(1.63439 -2.72407e-05 0)
(1.57651 -2.63721e-06 0)
(1.544 -0.000169899 0)
(1.50742 1.77123e-05 0)
(1.49234 -0.000119974 0)
(1.4631 0.00015751 0)
(1.45511 -0.000109111 0)
(1.42923 0.000143011 0)
(1.42746 -0.000234206 0)
(1.41045 -6.42908e-05 0)
(1.41402 -0.000406253 0)
(1.42299 -0.000406315 0)
(1.44808 -0.00159351 0)
(1.44241 -0.0238662 0)
(8.59346 0.864507 0)
(6.99384 0.378923 0)
(5.88777 0.119467 0)
(5.14633 0.0495248 0)
(4.75902 0.0267745 0)
(4.49378 0.0191283 0)
(4.3203 0.0146274 0)
(4.15979 0.0112129 0)
(4.06857 0.00813716 0)
(3.96206 0.00667166 0)
(3.91911 0.00507573 0)
(3.83464 0.00516369 0)
(3.81456 0.00368841 0)
(3.7401 0.00421124 0)
(3.73522 0.00171011 0)
(3.68159 0.00278107 0)
(3.68332 -0.00161617 0)
(3.69025 -0.00209457 0)
(3.68952 -0.00486001 0)
(3.86195 -0.0827279 0)
(9.83483 1.01186 0)
(9.36084 0.568629 0)
(8.52983 0.235868 0)
(7.71073 0.126373 0)
(7.18612 0.0779891 0)
(6.79749 0.0541135 0)
(6.5451 0.0405652 0)
(6.30442 0.0310291 0)
(6.16916 0.0234311 0)
(6.00259 0.0187599 0)
(5.93873 0.014855 0)
(5.805 0.0137414 0)
(5.77803 0.0107586 0)
(5.65979 0.01084 0)
(5.6552 0.00606669 0)
(5.56444 0.00710355 0)
(5.57111 -0.00130013 0)
(5.54604 -0.00174986 0)
(5.56905 -0.0179217 0)
(5.6927 -0.104053 0)
(10.1342 0.937701 0)
(10.5575 0.656867 0)
(10.2817 0.321845 0)
(9.67221 0.203729 0)
(9.17835 0.14105 0)
(8.74857 0.100944 0)
(8.46581 0.0759694 0)
(8.17219 0.0581694 0)
(8.01376 0.0447774 0)
(7.79948 0.035685 0)
(7.72468 0.0286431 0)
(7.5485 0.0260027 0)
(7.52041 0.0205242 0)
(7.36332 0.0208977 0)
(7.3632 0.011894 0)
(7.23503 0.0153811 0)
(7.25572 -0.00136729 0)
(7.17773 0.00295107 0)
(7.25178 -0.0356349 0)
(7.25111 -0.101672 0)
(10.0545 0.797799 0)
(10.8972 0.65761 0)
(11.1305 0.346955 0)
(10.8847 0.248034 0)
(10.5989 0.19412 0)
(10.2455 0.14821 0)
(10.01 0.114827 0)
(9.71074 0.088991 0)
(9.56418 0.0698951 0)
(9.32452 0.0556402 0)
(9.2565 0.045564 0)
(9.05071 0.0400921 0)
(9.03134 0.0331673 0)
(8.84357 0.0313193 0)
(8.85573 0.0217987 0)
(8.69426 0.020836 0)
(8.72968 0.00800438 0)
(8.6191 -0.00339287 0)
(8.68732 -0.024535 0)
(8.67283 -0.145934 0)
(9.97551 0.684948 0)
(10.8313 0.625142 0)
(11.3025 0.324647 0)
(11.3376 0.243934 0)
(11.3252 0.214125 0)
(11.1494 0.178271 0)
(11.0566 0.145518 0)
(10.8238 0.116626 0)
(10.7416 0.094009 0)
(10.516 0.0762327 0)
(10.4799 0.062681 0)
(10.2702 0.0559659 0)
(10.2702 0.045157 0)
(10.0729 0.0449826 0)
(10.0986 0.0282948 0)
(9.92495 0.0340343 0)
(9.9689 0.00485537 0)
(9.84357 0.0136731 0)
(9.90603 -0.0481641 0)
(9.86445 -0.124996 0)
(9.96533 0.596374 0)
(10.7037 0.592711 0)
(11.2256 0.296057 0)
(11.3435 0.214366 0)
(11.4891 0.201263 0)
(11.4542 0.18082 0)
(11.5296 0.155868 0)
(11.4122 0.129416 0)
(11.448 0.108504 0)
(11.2875 0.090153 0)
(11.3216 0.0766927 0)
(11.1438 0.0682513 0)
(11.1871 0.0580866 0)
(11.0026 0.0544159 0)
(11.0588 0.040637 0)
(10.8847 0.0379097 0)
(10.9539 0.0174622 0)
(10.8145 0.00725728 0)
(10.8956 -0.0398999 0)
(10.8123 -0.12074 0)
(9.9818 0.517757 0)
(10.6004 0.557212 0)
(11.1298 0.278535 0)
(11.2515 0.187856 0)
(11.4408 0.179456 0)
(11.439 0.169192 0)
(11.596 0.150236 0)
(11.5529 0.127044 0)
(11.6839 0.107843 0)
(11.6057 0.0926967 0)
(11.7182 0.0795544 0)
(11.6126 0.0743207 0)
(11.7104 0.0619987 0)
(11.5836 0.0627872 0)
(11.6727 0.0429793 0)
(11.5413 0.0481642 0)
(11.6283 0.0145153 0)
(11.5158 0.0179168 0)
(11.602 -0.0514378 0)
(11.5074 -0.0935303 0)
(9.99833 0.447671 0)
(10.5217 0.513756 0)
(11.0461 0.26552 0)
(11.1785 0.165302 0)
(11.3708 0.158191 0)
(11.3742 0.155156 0)
(11.533 0.139971 0)
(11.5197 0.11877 0)
(11.6641 0.0996285 0)
(11.6409 0.0864806 0)
(11.7739 0.0741054 0)
(11.7392 0.0709573 0)
(11.8593 0.0594398 0)
(11.8101 0.0614097 0)
(11.9168 0.0422365 0)
(11.8598 0.0477843 0)
(11.956 0.013087 0)
(11.9066 0.0176491 0)
(11.9879 -0.0619994 0)
(11.9222 -0.0904723 0)
(9.99976 0.385013 0)
(10.4684 0.466948 0)
(10.9604 0.25367 0)
(11.132 0.144334 0)
(11.3006 0.137897 0)
(11.3333 0.141161 0)
(11.4555 0.129061 0)
(11.4789 0.110101 0)
(11.587 0.0900167 0)
(11.61 0.0785156 0)
(11.7089 0.0660312 0)
(11.7299 0.064247 0)
(11.8182 0.0531081 0)
(11.8361 0.0552154 0)
(11.9145 0.0377465 0)
(11.9302 0.0399849 0)
(12.0043 0.0112493 0)
(12.0235 -0.000356788 0)
(12.08 -0.0587038 0)
(12.0562 -0.151004 0)
(9.98598 0.327634 0)
(10.4314 0.420864 0)
(10.8774 0.241391 0)
(11.0954 0.125593 0)
(11.236 0.117829 0)
(11.3027 0.12818 0)
(11.3885 0.117288 0)
(11.4438 0.10247 0)
(11.5197 0.0801013 0)
(11.5737 0.0717277 0)
(11.6442 0.0570921 0)
(11.6951 0.0589392 0)
(11.755 0.044916 0)
(11.8054 0.0500977 0)
(11.8568 0.029752 0)
(11.9043 0.0345697 0)
(11.9593 0.00139269 0)
(12.0022 -0.00822562 0)
(12.0442 -0.0761183 0)
(12.0246 -0.181888 0)
(9.97535 0.277272 0)
(10.3933 0.373826 0)
(10.8101 0.229084 0)
(11.0518 0.107035 0)
(11.1873 0.0997317 0)
(11.2651 0.113648 0)
(11.3394 0.106428 0)
(11.4014 0.0929087 0)
(11.4713 0.0718841 0)
(11.5294 0.0632532 0)
(11.5989 0.0506238 0)
(11.6496 0.051625 0)
(11.7111 0.0400122 0)
(11.7591 0.0419583 0)
(11.8117 0.0260022 0)
(11.8577 0.0230773 0)
(11.9131 -0.0025007 0)
(11.9505 -0.0255364 0)
(11.993 -0.0879195 0)
(11.9554 -0.203294 0)
(9.97378 0.232517 0)
(10.3548 0.327365 0)
(10.7555 0.212574 0)
(11.0058 0.0912708 0)
(11.1486 0.0823358 0)
(11.2268 0.0995667 0)
(11.2988 0.094378 0)
(11.36 0.0833369 0)
(11.4293 0.062959 0)
(11.4881 0.0553035 0)
(11.5581 0.0434508 0)
(11.6077 0.0450313 0)
(11.6728 0.0337295 0)
(11.7146 0.0354963 0)
(11.7733 0.0200121 0)
(11.8133 0.0150952 0)
(11.8703 -0.00988304 0)
(11.9038 -0.0389167 0)
(11.9434 -0.100055 0)
(11.8922 -0.218493 0)
(9.97366 0.192704 0)
(10.3232 0.281904 0)
(10.7071 0.19051 0)
(10.966 0.0779942 0)
(11.1136 0.0681392 0)
(11.1953 0.0851595 0)
(11.2615 0.0831397 0)
(11.3257 0.072664 0)
(11.3898 0.0551427 0)
(11.4557 0.0465513 0)
(11.518 0.037631 0)
(11.5771 0.0371914 0)
(11.6329 0.0291451 0)
(11.6827 0.027368 0)
(11.7343 0.0151353 0)
(11.7807 0.00565524 0)
(11.8286 -0.0172197 0)
(11.8697 -0.0509062 0)
(11.8941 -0.112142 0)
(11.8448 -0.229001 0)
(9.97136 0.156068 0)
(10.2993 0.238465 0)
(10.6653 0.162959 0)
(10.9338 0.0672329 0)
(11.0841 0.0549727 0)
(11.1704 0.0718946 0)
(11.2308 0.070639 0)
(11.2977 0.0626027 0)
(11.3587 0.0460084 0)
(11.4288 0.0392898 0)
(11.4869 0.0303498 0)
(11.5523 0.0309686 0)
(11.6006 0.0224875 0)
(11.6589 0.0211913 0)
(11.7024 0.00805862 0)
(11.7552 -0.00172409 0)
(11.7959 -0.025891 0)
(11.841 -0.0616393 0)
(11.8532 -0.122689 0)
(11.8063 -0.240364 0)
(9.97093 0.123322 0)
(10.2783 0.194463 0)
(10.6335 0.134206 0)
(10.9051 0.0558618 0)
(11.0629 0.0434645 0)
(11.1484 0.0575731 0)
(11.2098 0.0586408 0)
(11.2727 0.0507937 0)
(11.3378 0.038063 0)
(11.4033 0.0306113 0)
(11.4676 0.0248321 0)
(11.5267 0.0228799 0)
(11.5813 0.0179303 0)
(11.6342 0.0122343 0)
(11.6822 0.00385067 0)
(11.7286 -0.0126285 0)
(11.775 -0.0309105 0)
(11.8097 -0.075995 0)
(11.8244 -0.126808 0)
(11.7672 -0.254445 0)
(9.9737 0.093555 0)
(10.2592 0.150381 0)
(10.6103 0.105014 0)
(10.8802 0.0442924 0)
(11.0477 0.0326148 0)
(11.1297 0.0438374 0)
(11.1942 0.0458346 0)
(11.2514 0.0394841 0)
(11.3213 0.0291909 0)
(11.3819 0.0232297 0)
(11.4524 0.0180397 0)
(11.5043 0.0167304 0)
(11.5668 0.0112581 0)
(11.6115 0.006455 0)
(11.6656 -0.00381243 0)
(11.7054 -0.0180859 0)
(11.7563 -0.0422854 0)
(11.7816 -0.0804246 0)
(11.7997 -0.141799 0)
(11.7299 -0.24092 0)
(9.97479 0.0650868 0)
(10.2463 0.107294 0)
(10.5912 0.0750944 0)
(10.8629 0.0327681 0)
(11.034 0.02216 0)
(11.1172 0.0311263 0)
(11.1789 0.0325015 0)
(11.237 0.0286072 0)
(11.3048 0.0201297 0)
(11.3686 0.0161933 0)
(11.4353 0.0113025 0)
(11.4909 0.0103565 0)
(11.5502 0.00464111 0)
(11.5969 -1.97385e-05 0)
(11.6478 -0.0106029 0)
(11.6912 -0.0252876 0)
(11.7347 -0.0507418 0)
(11.7638 -0.0874208 0)
(11.7743 -0.153107 0)
(11.704 -0.23078 0)
(9.97311 0.0393805 0)
(10.24 0.0630044 0)
(10.5769 0.0463655 0)
(10.8532 0.0187666 0)
(11.0228 0.0140867 0)
(11.1106 0.0169818 0)
(11.167 0.0206833 0)
(11.2292 0.0157142 0)
(11.2924 0.012701 0)
(11.3614 0.00734728 0)
(11.4218 0.00660041 0)
(11.485 0.00177658 0)
(11.5364 0.000386683 0)
(11.5896 -0.00898201 0)
(11.6346 -0.0148875 0)
(11.6823 -0.0357175 0)
(11.7185 -0.054772 0)
(11.7522 -0.100017 0)
(11.7533 -0.154436 0)
(11.685 -0.246553 0)
(9.97327 0.0129476 0)
(10.236 0.0208008 0)
(10.5712 0.0155171 0)
(10.8472 0.00627442 0)
(11.0189 0.00422773 0)
(11.1062 0.00576288 0)
(11.1634 0.00578094 0)
(11.2242 0.00592098 0)
(11.2892 0.00172334 0)
(11.3555 0.00247761 0)
(11.419 -0.00246102 0)
(11.4801 -0.00185877 0)
(11.5325 -0.00910823 0)
(11.5844 -0.0119726 0)
(11.6306 -0.0257401 0)
(11.6743 -0.0382542 0)
(11.713 -0.067044 0)
(11.7413 -0.103189 0)
(11.7424 -0.163734 0)
(11.6692 -0.258862 0)
(9.97491 -0.0115556 0)
(10.2343 -0.023278 0)
(10.573 -0.0134508 0)
(10.8455 -0.00881671 0)
(11.0211 -0.00288815 0)
(11.1046 -0.00835516 0)
(11.1658 -0.0058958 0)
(11.2228 -0.00760157 0)
(11.2915 -0.00500789 0)
(11.3533 -0.00714076 0)
(11.4226 -0.00625518 0)
(11.4773 -0.0115034 0)
(11.535 -0.0117279 0)
(11.582 -0.0229566 0)
(11.6314 -0.0271895 0)
(11.6707 -0.0511411 0)
(11.712 -0.0677307 0)
(11.7346 -0.118086 0)
(11.7361 -0.159692 0)
(11.6583 -0.276768 0)
(9.97457 -0.0376629 0)
(10.2386 -0.0658599 0)
(10.5791 -0.0438192 0)
(10.8511 -0.0217828 0)
(11.0257 -0.0121529 0)
(11.1087 -0.0201887 0)
(11.1702 -0.0200168 0)
(11.2276 -0.0182304 0)
(11.2954 -0.014846 0)
(11.3586 -0.0132717 0)
(11.4266 -0.0141395 0)
(11.4814 -0.0162308 0)
(11.5388 -0.0203377 0)
(11.5855 -0.0267816 0)
(11.6341 -0.0372271 0)
(11.6732 -0.0538434 0)
(11.7126 -0.0802587 0)
(11.7342 -0.117844 0)
(11.7317 -0.174119 0)
(11.6516 -0.246053 0)
(9.97348 -0.0640578 0)
(10.2477 -0.10933 0)
(10.5907 -0.0733668 0)
(10.8633 -0.0347637 0)
(11.0338 -0.0213772 0)
(11.1174 -0.0331541 0)
(11.1784 -0.0331605 0)
(11.2373 -0.0297505 0)
(11.3038 -0.0237295 0)
(11.3688 -0.0205346 0)
(11.4337 -0.0206677 0)
(11.4907 -0.0222838 0)
(11.5458 -0.0272106 0)
(11.5939 -0.0321723 0)
(11.6405 -0.0454198 0)
(11.6799 -0.0580297 0)
(11.7171 -0.0909281 0)
(11.7375 -0.118688 0)
(11.7343 -0.186915 0)
(11.654 -0.216513 0)
(9.97316 -0.0917335 0)
(10.2602 -0.153379 0)
(10.6094 -0.102385 0)
(10.8806 -0.0473372 0)
(11.0468 -0.0308519 0)
(11.1299 -0.0471463 0)
(11.1919 -0.0451129 0)
(11.2512 -0.0423846 0)
(11.3182 -0.0310036 0)
(11.3823 -0.0297699 0)
(11.4469 -0.0247908 0)
(11.5036 -0.0314664 0)
(11.5584 -0.0301155 0)
(11.6062 -0.0425196 0)
(11.6521 -0.0469361 0)
(11.6908 -0.0704418 0)
(11.7263 -0.090536 0)
(11.7458 -0.133992 0)
(11.7424 -0.179948 0)
(11.6577 -0.236614 0)
(9.97233 -0.122504 0)
(10.2775 -0.196252 0)
(10.6346 -0.132721 0)
(10.9042 -0.0575658 0)
(11.0639 -0.0429806 0)
(11.1475 -0.0593673 0)
(11.2096 -0.0592701 0)
(11.271 -0.0523579 0)
(11.3369 -0.0411693 0)
(11.4014 -0.0358095 0)
(11.4646 -0.0328503 0)
(11.522 -0.0361969 0)
(11.5755 -0.038319 0)
(11.6238 -0.0465383 0)
(11.6683 -0.0557579 0)
(11.7068 -0.0742344 0)
(11.7403 -0.0996015 0)
(11.7601 -0.138728 0)
(11.7542 -0.185871 0)
(11.6684 -0.245925 0)
(9.9719 -0.154658 0)
(10.2991 -0.240826 0)
(10.6671 -0.160976 0)
(10.9328 -0.0693142 0)
(11.0862 -0.0539393 0)
(11.1694 -0.0740383 0)
(11.2328 -0.0707184 0)
(11.2957 -0.0647596 0)
(11.3611 -0.0484281 0)
(11.4253 -0.0451051 0)
(11.4877 -0.0376098 0)
(11.545 -0.0445538 0)
(11.598 -0.0424766 0)
(11.6461 -0.0545417 0)
(11.6897 -0.0602055 0)
(11.7272 -0.0817586 0)
(11.7602 -0.105112 0)
(11.7784 -0.145703 0)
(11.7719 -0.192871 0)
(11.6855 -0.247868 0)
(9.97193 -0.191702 0)
(10.3257 -0.283949 0)
(10.7067 -0.188936 0)
(10.9672 -0.0797634 0)
(11.1138 -0.0673686 0)
(11.1959 -0.0871317 0)
(11.2618 -0.0832817 0)
(11.3253 -0.0750643 0)
(11.391 -0.0571488 0)
(11.4542 -0.0528361 0)
(11.5164 -0.0439982 0)
(11.5728 -0.0513549 0)
(11.6262 -0.0479105 0)
(11.673 -0.061231 0)
(11.7168 -0.065317 0)
(11.7527 -0.0886767 0)
(11.7854 -0.110288 0)
(11.8013 -0.153217 0)
(11.796 -0.199709 0)
(11.7086 -0.249182 0)
(9.97462 -0.231654 0)
(10.3571 -0.329102 0)
(10.7541 -0.21151 0)
(11.0079 -0.0926281 0)
(11.1471 -0.0819659 0)
(11.2283 -0.101099 0)
(11.2966 -0.0950441 0)
(11.3613 -0.0855211 0)
(11.4261 -0.0653656 0)
(11.4895 -0.0611809 0)
(11.5501 -0.0501303 0)
(11.6071 -0.0585351 0)
(11.659 -0.0529075 0)
(11.7064 -0.0681197 0)
(11.7486 -0.0698614 0)
(11.7844 -0.0956536 0)
(11.815 -0.11452 0)
(11.8307 -0.161407 0)
(11.8248 -0.2054 0)
(11.7397 -0.254328 0)
(9.98606 -0.276669 0)
(10.388 -0.375355 0)
(10.8142 -0.228034 0)
(11.0481 -0.108305 0)
(11.1901 -0.0991601 0)
(11.2614 -0.115142 0)
(11.3402 -0.10705 0)
(11.3985 -0.0952658 0)
(11.4692 -0.0740614 0)
(11.5269 -0.0693803 0)
(11.5913 -0.0568752 0)
(11.6441 -0.065453 0)
(11.6988 -0.0582004 0)
(11.743 -0.0748027 0)
(11.7866 -0.0742187 0)
(11.8199 -0.102543 0)
(11.8503 -0.117969 0)
(11.8645 -0.169754 0)
(11.8584 -0.209966 0)
(11.7764 -0.265591 0)
(10.0052 -0.327721 0)
(10.416 -0.421521 0)
(10.8905 -0.240869 0)
(11.0815 -0.126045 0)
(11.2473 -0.117937 0)
(11.2891 -0.128724 0)
(11.3979 -0.11882 0)
(11.4311 -0.103921 0)
(11.5263 -0.0831101 0)
(11.5605 -0.0768446 0)
(11.6464 -0.0643399 0)
(11.6782 -0.0714486 0)
(11.7519 -0.0642861 0)
(11.7776 -0.080417 0)
(11.8371 -0.0790988 0)
(11.854 -0.108369 0)
(11.8953 -0.12107 0)
(11.8951 -0.177186 0)
(11.8923 -0.212967 0)
(11.8009 -0.281853 0)
(10.0174 -0.384954 0)
(10.4504 -0.467563 0)
(10.9765 -0.253044 0)
(11.1144 -0.144948 0)
(11.3155 -0.137905 0)
(11.3161 -0.141784 0)
(11.4697 -0.13048 0)
(11.4619 -0.111811 0)
(11.5994 -0.0928057 0)
(11.5918 -0.0838345 0)
(11.7182 -0.0727821 0)
(11.708 -0.0769027 0)
(11.8201 -0.0714392 0)
(11.8031 -0.0851736 0)
(11.8959 -0.0847204 0)
(11.8675 -0.112709 0)
(11.932 -0.123714 0)
(11.8807 -0.182199 0)
(11.8808 -0.212376 0)
(11.7341 -0.298278 0)
(10.0092 -0.447773 0)
(10.5081 -0.513916 0)
(11.059 -0.265327 0)
(11.1651 -0.165543 0)
(11.3828 -0.158576 0)
(11.3615 -0.15535 0)
(11.5442 -0.141636 0)
(11.5071 -0.120209 0)
(11.6736 -0.10258 0)
(11.6269 -0.0913301 0)
(11.7795 -0.0811563 0)
(11.7205 -0.0824768 0)
(11.8535 -0.0779528 0)
(11.7762 -0.0890684 0)
(11.8815 -0.0883787 0)
(11.78 -0.114628 0)
(11.8447 -0.121972 0)
(11.704 -0.182578 0)
(11.6841 -0.201296 0)
(11.4353 -0.307874 0)
(9.9876 -0.517563 0)
(10.5918 -0.557371 0)
(11.1394 -0.278573 0)
(11.2425 -0.187938 0)
(11.4494 -0.179997 0)
(11.4306 -0.169172 0)
(11.6032 -0.152008 0)
(11.5446 -0.128206 0)
(11.6883 -0.111022 0)
(11.5951 -0.096742 0)
(11.7162 -0.086915 0)
(11.5938 -0.08408 0)
(11.6914 -0.0808149 0)
(11.5406 -0.0865416 0)
(11.611 -0.0881905 0)
(11.4309 -0.106611 0)
(11.4607 -0.11808 0)
(11.237 -0.16569 0)
(11.1732 -0.192712 0)
(10.8467 -0.275378 0)
(9.96786 -0.596129 0)
(10.6994 -0.592917 0)
(11.232 -0.296198 0)
(11.3379 -0.214458 0)
(11.4949 -0.201729 0)
(11.4484 -0.180918 0)
(11.5342 -0.157336 0)
(11.4053 -0.130739 0)
(11.449 -0.111033 0)
(11.2763 -0.0942069 0)
(11.3133 -0.0828024 0)
(11.1204 -0.077793 0)
(11.1562 -0.0737162 0)
(10.9454 -0.0773492 0)
(10.9741 -0.0782672 0)
(10.7393 -0.093776 0)
(10.7408 -0.103773 0)
(10.459 -0.14525 0)
(10.3712 -0.169409 0)
(9.98557 -0.235328 0)
(9.97666 -0.684706 0)
(10.8296 -0.625315 0)
(11.306 -0.324868 0)
(11.3342 -0.244 0)
(11.3287 -0.214613 0)
(11.1448 -0.178295 0)
(11.0592 -0.146889 0)
(10.8165 -0.117622 0)
(10.7405 -0.0964382 0)
(10.5021 -0.0793721 0)
(10.4682 -0.0684815 0)
(10.2402 -0.0633828 0)
(10.2331 -0.0600048 0)
(10.0004 -0.0627212 0)
(10.0013 -0.0639897 0)
(9.74669 -0.0766584 0)
(9.72789 -0.0858833 0)
(9.42047 -0.120077 0)
(9.31479 -0.139534 0)
(8.89666 -0.194213 0)
(10.0552 -0.797568 0)
(10.8966 -0.657814 0)
(11.1325 -0.347146 0)
(10.8823 -0.248097 0)
(10.6007 -0.19449 0)
(10.2417 -0.148254 0)
(10.0109 -0.115895 0)
(9.70364 -0.0898665 0)
(9.56077 -0.0717784 0)
(9.30989 -0.0583396 0)
(9.24129 -0.049972 0)
(9.01785 -0.0465553 0)
(8.98811 -0.0442843 0)
(8.76356 -0.0468316 0)
(8.74656 -0.0482191 0)
(8.4985 -0.0581975 0)
(8.46399 -0.0665432 0)
(8.15742 -0.0912316 0)
(8.03728 -0.111613 0)
(7.62254 -0.135097 0)
(10.1347 -0.937545 0)
(10.5574 -0.657026 0)
(10.2827 -0.321993 0)
(9.67061 -0.203762 0)
(9.17889 -0.141317 0)
(8.74565 -0.100983 0)
(8.4655 -0.0767749 0)
(8.16551 -0.0588083 0)
(8.00884 -0.0461998 0)
(7.78476 -0.0375955 0)
(7.70774 -0.0320627 0)
(7.51422 -0.0304716 0)
(7.47506 -0.0291055 0)
(7.27922 -0.0315224 0)
(7.25105 -0.0325694 0)
(7.02954 -0.040205 0)
(6.98422 -0.0462638 0)
(6.69876 -0.0637949 0)
(6.57845 -0.0791238 0)
(6.1711 -0.0897605 0)
(9.8352 -1.01177 0)
(9.36098 -0.568745 0)
(8.53021 -0.235962 0)
(7.70958 -0.126391 0)
(7.18601 -0.0781457 0)
(6.79533 -0.0541492 0)
(6.54408 -0.0410915 0)
(6.29837 -0.0314318 0)
(6.16388 -0.0243261 0)
(5.98858 -0.0199863 0)
(5.92189 -0.0169453 0)
(5.77229 -0.0167388 0)
(5.73374 -0.0159949 0)
(5.57973 -0.0180219 0)
(5.54682 -0.0185383 0)
(5.36746 -0.0237721 0)
(5.3165 -0.0272517 0)
(5.07424 -0.0383201 0)
(4.96141 -0.047907 0)
(4.58656 -0.0530425 0)
(8.59372 -0.864467 0)
(6.99403 -0.378987 0)
(5.88775 -0.119508 0)
(5.14556 -0.0495258 0)
(4.75872 -0.0268553 0)
(4.49212 -0.0191479 0)
(4.31907 -0.0148816 0)
(4.15492 -0.011403 0)
(4.06388 -0.00856138 0)
(3.95058 -0.00725056 0)
(3.90483 -0.00609602 0)
(3.8077 -0.00652852 0)
(3.77716 -0.0061918 0)
(3.67435 -0.0074939 0)
(3.64389 -0.00756791 0)
(3.52001 -0.0103865 0)
(3.47194 -0.0116654 0)
(3.29679 -0.0172285 0)
(3.19939 -0.0212319 0)
(2.90921 -0.023985 0)
(5.34601 -0.307431 0)
(3.04156 -0.0607706 0)
(2.26575 0.00141284 0)
(1.92328 0.00351926 0)
(1.78801 0.00132578 0)
(1.69651 0.000165309 0)
(1.63354 -1.19878e-05 0)
(1.57406 -1.62722e-05 0)
(1.54128 0.000122892 0)
(1.50157 -7.89077e-05 0)
(1.48454 7.65613e-06 0)
(1.44914 -0.000302348 0)
(1.43496 -0.000162009 0)
(1.39518 -0.00052858 0)
(1.37834 -0.000328098 0)
(1.32759 -0.000927279 0)
(1.2996 -0.000739086 0)
(1.2233 -0.0017418 0)
(1.1671 -0.00192269 0)
(1.03734 0.00363415 0)
(2.05765 -0.180145 0)
(2.55895 -0.126925 0)
(3.06352 -0.157021 0)
(3.51171 -0.188353 0)
(3.91485 -0.229738 0)
(4.32412 -0.276768 0)
(4.73425 -0.296528 0)
(5.18332 -0.368656 0)
(5.66081 -0.42995 0)
(6.0637 -0.4961 0)
(6.48206 -0.581115 0)
(6.78002 -0.686164 0)
(7.09717 -0.775479 0)
(7.35582 -0.819145 0)
(7.63189 -0.852234 0)
(7.85343 -0.892284 0)
(8.05261 -0.984086 0)
(8.21671 -1.13336 0)
(8.34525 -1.31713 0)
(8.45829 -1.48618 0)
(8.56611 -1.65142 0)
(8.67878 -1.80385 0)
(8.82965 -1.95566 0)
(8.96535 -2.10838 0)
(9.0987 -2.27154 0)
(9.19117 -2.42124 0)
(9.24245 -2.5363 0)
(9.27257 -2.62476 0)
(9.27309 -2.68408 0)
(9.28078 -2.73013 0)
(9.26989 -2.75791 0)
(9.25533 -2.77951 0)
(9.22478 -2.78874 0)
(9.16497 -2.79094 0)
(9.0806 -2.78884 0)
(8.96105 -2.78891 0)
(8.83686 -2.78961 0)
(8.72742 -2.77848 0)
(8.67855 -2.74864 0)
(8.66305 -2.70454 0)
(8.6509 -2.65584 0)
(8.63089 -2.60041 0)
(8.60044 -2.53897 0)
(8.56279 -2.47246 0)
(8.52493 -2.38696 0)
(8.49911 -2.30057 0)
(8.46636 -2.20476 0)
(8.42717 -2.11857 0)
(8.34753 -2.00991 0)
(8.26155 -1.89478 0)
(8.21859 -1.80838 0)
(8.1721 -1.70345 0)
(8.13695 -1.59613 0)
(8.10316 -1.49015 0)
(8.0624 -1.37595 0)
(8.01374 -1.27657 0)
(7.98235 -1.18502 0)
(7.90838 -1.0758 0)
(7.84021 -0.962065 0)
(7.73408 -0.85545 0)
(7.61578 -0.720253 0)
(7.46136 -0.579462 0)
(7.31915 -0.456561 0)
(7.19147 -0.352737 0)
(7.06937 -0.272394 0)
(6.94926 -0.211981 0)
(6.84453 -0.162854 0)
(6.76453 -0.126598 0)
(6.68257 -0.106727 0)
(6.61371 -0.0791529 0)
(6.56758 -0.045107 0)
(6.52196 -0.0206528 0)
(6.49959 -0.00291914 0)
(6.46993 0.00743421 0)
(6.44595 0.0179245 0)
(6.43503 0.0513394 0)
(6.41984 0.0920758 0)
(6.41261 0.139088 0)
(6.39413 0.193702 0)
(6.40482 0.249859 0)
(6.38711 0.305394 0)
(6.38183 0.342068 0)
(6.37887 0.376716 0)
(6.37104 0.399055 0)
(6.36693 0.39935 0)
(6.34041 0.397065 0)
(6.3083 0.405501 0)
(6.26049 0.416962 0)
(6.22369 0.402148 0)
(6.18426 0.394217 0)
(6.13387 0.384306 0)
(6.11587 0.361335 0)
(6.09085 0.348081 0)
(6.06774 0.337305 0)
(6.05634 0.319297 0)
(6.0433 0.298947 0)
(6.05328 0.290578 0)
(6.0351 0.291097 0)
(6.08279 0.279331 0)
(6.06241 0.273636 0)
(6.11193 0.260024 0)
(6.06181 0.279638 0)
(6.11765 0.264923 0)
(6.07364 0.302998 0)
(6.13957 0.299719 0)
(6.06783 0.382493 0)
(6.16419 0.383878 0)
(6.07517 0.470375 0)
(6.21032 0.47517 0)
(6.07797 0.562063 0)
(6.22395 0.547539 0)
(6.06848 0.613322 0)
(6.21722 0.588021 0)
(6.05526 0.664751 0)
(6.21866 0.622163 0)
(6.01825 0.692275 0)
(6.21269 0.636464 0)
(5.96871 0.696312 0)
(6.17738 0.632702 0)
(5.95161 0.70135 0)
(6.13255 0.625573 0)
(5.95792 0.702656 0)
(6.08266 0.606181 0)
(5.9667 0.701351 0)
(6.06658 0.578645 0)
(5.9607 0.68438 0)
(6.07004 0.51198 0)
(5.95278 0.614026 0)
(6.07653 0.416027 0)
(5.98379 0.529257 0)
(6.07844 0.325008 0)
(6.07753 0.455502 0)
(6.088 0.255414 0)
(6.17989 0.390473 0)
(6.11635 0.20328 0)
(6.28679 0.348419 0)
(6.12949 0.162752 0)
(6.38787 0.295018 0)
(6.14404 0.118231 0)
(6.4585 0.234628 0)
(6.20403 0.0700973 0)
(6.47597 0.19533 0)
(6.29286 0.0289637 0)
(6.49182 0.153035 0)
(6.33932 4.87846e-06 0)
(6.53053 0.0967673 0)
(6.37528 -0.0207481 0)
(6.54526 0.0458271 0)
(6.43342 -0.0452198 0)
(6.54761 -0.00185611 0)
(6.47447 -0.067234 0)
(6.55503 -0.045394 0)
(6.50241 -0.0928012 0)
(6.54975 -0.0817356 0)
(6.50748 -0.109858 0)
(6.52737 -0.107047 0)
(6.49686 -0.115141 0)
(6.4919 -0.111041 0)
(6.47592 -0.100376 0)
(6.43891 -0.0866874 0)
(6.44339 -0.0660375 0)
(6.39174 -0.0470458 0)
(6.40273 -0.0125561 0)
(6.3326 0.0132277 0)
(6.35171 0.0589628 0)
(6.26565 0.0930612 0)
(6.30097 0.143687 0)
(6.20792 0.187739 0)
(6.26214 0.236672 0)
(6.16937 0.293386 0)
(6.22274 0.346573 0)
(6.13602 0.422453 0)
(6.17851 0.47539 0)
(6.1131 0.570839 0)
(6.13537 0.618606 0)
(6.09524 0.733816 0)
(6.09153 0.775448 0)
(6.06896 0.909567 0)
(6.04902 0.951336 0)
(6.0276 1.10004 0)
(6.01905 1.14928 0)
(5.97204 1.30767 0)
(5.9977 1.36742 0)
(5.91011 1.54186 0)
(5.97324 1.60679 0)
(5.85963 1.81381 0)
(5.93156 1.87813 0)
(5.83249 2.13099 0)
(5.87643 2.2111 0)
(5.80098 2.51093 0)
(5.81542 2.63729 0)
(5.74079 2.98202 0)
(5.71509 3.21953 0)
(5.55943 3.62713 0)
(5.59553 3.99515 0)
(5.53789 4.52736 0)
(5.43329 5.10154 0)
(5.16975 6.15871 0)
(5.64381 7.095 0)
(3.16095 10.267 0)
(3.98165 -0.221836 0)
(4.16841 -0.239154 0)
(4.44401 -0.304597 0)
(4.74944 -0.348869 0)
(5.05433 -0.385456 0)
(5.38334 -0.433038 0)
(5.67956 -0.462126 0)
(5.98347 -0.528342 0)
(6.29707 -0.596999 0)
(6.56981 -0.66226 0)
(6.90891 -0.744892 0)
(7.19329 -0.828075 0)
(7.4437 -0.908026 0)
(7.68454 -0.945493 0)
(7.94163 -0.971056 0)
(8.18124 -0.998996 0)
(8.38965 -1.06207 0)
(8.56703 -1.19047 0)
(8.69693 -1.3621 0)
(8.79964 -1.53189 0)
(8.92033 -1.69662 0)
(9.04894 -1.85283 0)
(9.20152 -2.00675 0)
(9.34417 -2.15522 0)
(9.44671 -2.30423 0)
(9.50457 -2.44343 0)
(9.52308 -2.5525 0)
(9.53838 -2.63642 0)
(9.53862 -2.69122 0)
(9.54553 -2.72981 0)
(9.52584 -2.75148 0)
(9.49413 -2.76633 0)
(9.44185 -2.76694 0)
(9.37347 -2.76078 0)
(9.2831 -2.74605 0)
(9.16052 -2.73463 0)
(9.03763 -2.73766 0)
(8.92794 -2.74295 0)
(8.86929 -2.7319 0)
(8.84184 -2.69516 0)
(8.8004 -2.64636 0)
(8.75389 -2.58564 0)
(8.6971 -2.51882 0)
(8.64014 -2.45173 0)
(8.5902 -2.37247 0)
(8.54319 -2.28635 0)
(8.49874 -2.1859 0)
(8.44152 -2.09078 0)
(8.34639 -1.97371 0)
(8.26223 -1.86786 0)
(8.21405 -1.78722 0)
(8.15833 -1.68607 0)
(8.11707 -1.58348 0)
(8.06861 -1.47212 0)
(8.01586 -1.35472 0)
(7.96164 -1.25607 0)
(7.91863 -1.16068 0)
(7.83019 -1.04267 0)
(7.74811 -0.921703 0)
(7.62573 -0.80438 0)
(7.49946 -0.659789 0)
(7.34377 -0.521759 0)
(7.21212 -0.402209 0)
(7.09592 -0.301871 0)
(6.98421 -0.225337 0)
(6.8719 -0.168334 0)
(6.77025 -0.122044 0)
(6.68883 -0.0914299 0)
(6.60546 -0.0748169 0)
(6.534 -0.052005 0)
(6.48776 -0.0251372 0)
(6.44514 -0.00663029 0)
(6.42635 0.00659467 0)
(6.40076 0.0171599 0)
(6.37424 0.027127 0)
(6.35942 0.0593733 0)
(6.34163 0.10128 0)
(6.33251 0.144538 0)
(6.30878 0.196596 0)
(6.31336 0.253386 0)
(6.29251 0.310843 0)
(6.27931 0.345923 0)
(6.27714 0.376724 0)
(6.27247 0.401278 0)
(6.26994 0.405676 0)
(6.24658 0.409719 0)
(6.21325 0.423513 0)
(6.16619 0.435821 0)
(6.13131 0.420835 0)
(6.08978 0.415079 0)
(6.03966 0.397199 0)
(6.02356 0.371792 0)
(5.99388 0.357949 0)
(5.97245 0.345949 0)
(5.96164 0.322617 0)
(5.95166 0.303841 0)
(5.95823 0.291112 0)
(5.94754 0.28958 0)
(5.9966 0.269292 0)
(5.98464 0.271522 0)
(6.03432 0.256807 0)
(5.99198 0.28301 0)
(6.05194 0.259767 0)
(6.0045 0.303399 0)
(6.07657 0.298822 0)
(5.99481 0.382612 0)
(6.10239 0.37799 0)
(6.00004 0.465767 0)
(6.14933 0.47 0)
(6.00946 0.564393 0)
(6.17367 0.542857 0)
(6.01501 0.620548 0)
(6.18104 0.586816 0)
(5.99982 0.668649 0)
(6.20523 0.625219 0)
(5.97082 0.699823 0)
(6.20728 0.644074 0)
(5.93412 0.704605 0)
(6.17481 0.639006 0)
(5.92709 0.708015 0)
(6.13053 0.629392 0)
(5.93515 0.707329 0)
(6.0902 0.611982 0)
(5.93138 0.700097 0)
(6.08245 0.58331 0)
(5.92328 0.680006 0)
(6.0956 0.514264 0)
(5.9189 0.608711 0)
(6.10799 0.415098 0)
(5.93863 0.52044 0)
(6.11689 0.317463 0)
(6.02001 0.438711 0)
(6.14394 0.249173 0)
(6.115 0.3687 0)
(6.19067 0.194885 0)
(6.21077 0.331536 0)
(6.2203 0.153739 0)
(6.31317 0.282371 0)
(6.22992 0.109599 0)
(6.40285 0.221227 0)
(6.25964 0.0646215 0)
(6.43754 0.177997 0)
(6.33992 0.021636 0)
(6.44214 0.145742 0)
(6.40445 -0.0137814 0)
(6.47678 0.095493 0)
(6.44414 -0.0331478 0)
(6.50436 0.042132 0)
(6.49695 -0.0532149 0)
(6.50323 -0.00295033 0)
(6.53909 -0.0766203 0)
(6.51075 -0.0433473 0)
(6.55797 -0.0988838 0)
(6.51806 -0.0773311 0)
(6.56042 -0.115168 0)
(6.51813 -0.0993223 0)
(6.54338 -0.117999 0)
(6.50832 -0.0984266 0)
(6.5093 -0.0997014 0)
(6.47981 -0.071002 0)
(6.47261 -0.0682492 0)
(6.44998 -0.0266727 0)
(6.41453 -0.0137446 0)
(6.40964 0.0384027 0)
(6.35107 0.0579387 0)
(6.36613 0.117909 0)
(6.29639 0.140321 0)
(6.3303 0.208726 0)
(6.25808 0.231132 0)
(6.29879 0.311787 0)
(6.22201 0.344971 0)
(6.26205 0.435168 0)
(6.19508 0.478964 0)
(6.22564 0.576533 0)
(6.18221 0.629108 0)
(6.18113 0.73304 0)
(6.17534 0.79474 0)
(6.12237 0.905477 0)
(6.16966 0.973506 0)
(6.05877 1.09896 0)
(6.15964 1.16352 0)
(6.01028 1.31846 0)
(6.13349 1.36978 0)
(5.97903 1.56454 0)
(6.09266 1.6014 0)
(5.94953 1.83596 0)
(6.05492 1.87731 0)
(5.91282 2.14115 0)
(6.03639 2.21199 0)
(5.88538 2.52313 0)
(6.01331 2.63211 0)
(5.86987 2.99767 0)
(6.03253 3.18253 0)
(5.89649 3.64398 0)
(5.88652 3.99684 0)
(5.76325 4.63073 0)
(5.79133 5.15202 0)
(5.38799 6.38062 0)
(6.92079 6.88861 0)
(4.51635 11.0651 0)
(5.81631 -0.239543 0)
(5.88703 -0.293359 0)
(6.05103 -0.37425 0)
(6.24115 -0.442716 0)
(6.44088 -0.492858 0)
(6.64824 -0.540944 0)
(6.84446 -0.572557 0)
(7.01462 -0.628194 0)
(7.21538 -0.698596 0)
(7.3819 -0.769415 0)
(7.59836 -0.857942 0)
(7.79185 -0.928848 0)
(7.94461 -1.00026 0)
(8.09782 -1.04759 0)
(8.28325 -1.08229 0)
(8.50345 -1.11269 0)
(8.71165 -1.16276 0)
(8.92835 -1.26141 0)
(9.09377 -1.41356 0)
(9.21032 -1.57446 0)
(9.34323 -1.73968 0)
(9.46698 -1.89619 0)
(9.58368 -2.05496 0)
(9.69233 -2.20273 0)
(9.7615 -2.33657 0)
(9.80675 -2.45998 0)
(9.80837 -2.55983 0)
(9.80829 -2.64105 0)
(9.79242 -2.69344 0)
(9.77867 -2.72362 0)
(9.74191 -2.73789 0)
(9.69182 -2.7464 0)
(9.61861 -2.73959 0)
(9.53986 -2.72642 0)
(9.45254 -2.70374 0)
(9.34112 -2.6851 0)
(9.23775 -2.68842 0)
(9.13524 -2.70482 0)
(9.05892 -2.70841 0)
(9.00272 -2.67599 0)
(8.93225 -2.62535 0)
(8.85818 -2.55928 0)
(8.77467 -2.48959 0)
(8.70231 -2.42407 0)
(8.64245 -2.35045 0)
(8.5757 -2.26096 0)
(8.51581 -2.15606 0)
(8.4386 -2.05576 0)
(8.33797 -1.93624 0)
(8.25882 -1.84158 0)
(8.19952 -1.76218 0)
(8.135 -1.66501 0)
(8.08739 -1.56634 0)
(8.02137 -1.4483 0)
(7.95944 -1.3302 0)
(7.89783 -1.23214 0)
(7.83904 -1.13103 0)
(7.73443 -1.004 0)
(7.63359 -0.874938 0)
(7.49822 -0.747529 0)
(7.36825 -0.598212 0)
(7.21692 -0.467166 0)
(7.10039 -0.352341 0)
(6.99439 -0.25547 0)
(6.88927 -0.18158 0)
(6.78403 -0.125773 0)
(6.68415 -0.0816068 0)
(6.59764 -0.0552198 0)
(6.51682 -0.0427397 0)
(6.44772 -0.0249547 0)
(6.4031 -0.00627209 0)
(6.36259 0.00639784 0)
(6.3435 0.0142006 0)
(6.32426 0.0258935 0)
(6.29582 0.0384722 0)
(6.27687 0.0692047 0)
(6.25542 0.110744 0)
(6.24472 0.152778 0)
(6.21503 0.203295 0)
(6.214 0.259783 0)
(6.19133 0.318048 0)
(6.1689 0.351229 0)
(6.16577 0.376964 0)
(6.16259 0.401748 0)
(6.16094 0.411183 0)
(6.14054 0.421847 0)
(6.10892 0.440673 0)
(6.06502 0.453015 0)
(6.03405 0.439258 0)
(5.99177 0.435163 0)
(5.94388 0.408731 0)
(5.92907 0.383641 0)
(5.89535 0.36944 0)
(5.87424 0.355176 0)
(5.86572 0.324153 0)
(5.85072 0.306713 0)
(5.86344 0.288639 0)
(5.84769 0.284736 0)
(5.90975 0.257034 0)
(5.88987 0.267016 0)
(5.955 0.250751 0)
(5.90773 0.283161 0)
(5.98553 0.25442 0)
(5.92336 0.303207 0)
(6.01286 0.297424 0)
(5.91474 0.383435 0)
(6.03736 0.371017 0)
(5.9217 0.463257 0)
(6.07884 0.460856 0)
(5.94161 0.56646 0)
(6.11037 0.532348 0)
(5.95985 0.625728 0)
(6.13491 0.582103 0)
(5.94806 0.671317 0)
(6.16779 0.622292 0)
(5.93427 0.707524 0)
(6.17008 0.646012 0)
(5.9186 0.714751 0)
(6.12989 0.639095 0)
(5.93211 0.718027 0)
(6.08435 0.629069 0)
(5.94372 0.714196 0)
(6.05175 0.611929 0)
(5.94442 0.704333 0)
(6.03932 0.580007 0)
(5.94742 0.682959 0)
(6.04757 0.507932 0)
(5.95896 0.611297 0)
(6.0545 0.406661 0)
(5.98476 0.520359 0)
(6.04954 0.300379 0)
(6.07097 0.433463 0)
(6.06574 0.227371 0)
(6.184 0.362872 0)
(6.0995 0.171137 0)
(6.29601 0.329444 0)
(6.12547 0.127682 0)
(6.41256 0.287747 0)
(6.12799 0.0813311 0)
(6.52244 0.230607 0)