/*--------------------------------*- C++ -*----------------------------------*\
| =========                 |                                                 |
| \\      /  F ield         | OpenFOAM: The Open Source CFD Toolbox           |
|  \\    /   O peration     | Version:  2.4.0                                 |
|   \\  /    A nd           | Web:      www.OpenFOAM.org                      |
|    \\/     M anipulation  |                                                 |
\*---------------------------------------------------------------------------*/
FoamFile
{
    version     2.0;
    format      ascii;
    class       volSymmTensorField;
    location    "0.146";
    object      UPrime2Mean;
}
// * * * * * * * * * * * * * * * * * * * * * * * * * * * * * * * * * * * * * //

dimensions      [0 2 -2 0 0 0 0];

internalField   nonuniform List<symmTensor> 
17600
(
(0.0269357 -0.00291991 0 0.000440345 0 0)
(0.277326 -0.00112041 0 2.54344e-05 0 0)
(0.360149 -6.10504e-06 0 1.8091e-06 0 0)
(0.399724 -0.000289216 0 1.12189e-06 0 0)
(0.427266 -0.00021838 0 5.66557e-07 0 0)
(0.448003 -9.49727e-05 0 3.67393e-07 0 0)
(0.461759 -2.10126e-05 0 2.81044e-07 0 0)
(0.473795 -1.88084e-06 0 2.33868e-07 0 0)
(0.480694 1.71005e-05 0 2.77809e-07 0 0)
(0.488576 -5.19415e-06 0 3.08553e-07 0 0)
(0.492155 5.20824e-06 0 3.63779e-07 0 0)
(0.499448 -4.38591e-05 0 5.01334e-07 0 0)
(0.50265 -2.40647e-05 0 6.37556e-07 0 0)
(0.51165 -0.000105015 0 9.34993e-07 0 0)
(0.516877 -9.16287e-05 0 1.14464e-06 0 0)
(0.532906 -0.000311778 0 2.76017e-06 0 0)
(0.547629 -0.000447138 0 2.66457e-06 0 0)
(0.611485 0.000316573 0 1.66669e-05 0 0)
(0.720028 -0.0203878 0 0.000849644 0 0)
(1.32335 0.103087 0 0.012918 0 0)
(0.0130157 0.00583798 0 0.00459276 0 0)
(0.113439 -0.0108539 0 0.00109667 0 0)
(0.229089 -0.00612436 0 0.000166671 0 0)
(0.307965 -0.00433812 0 6.7064e-05 0 0)
(0.374543 -0.00353898 0 5.19853e-05 0 0)
(0.440617 -0.00295539 0 4.77686e-05 0 0)
(0.491926 -0.00230881 0 3.70718e-05 0 0)
(0.541602 -0.00181302 0 2.43133e-05 0 0)
(0.571749 -0.00134361 0 1.32519e-05 0 0)
(0.607969 -0.00118369 0 8.98558e-06 0 0)
(0.623541 -0.000992371 0 5.30201e-06 0 0)
(0.657004 -0.0011167 0 6.0279e-06 0 0)
(0.667286 -0.00110666 0 8.36209e-06 0 0)
(0.705684 -0.00125441 0 9.92951e-06 0 0)
(0.715441 -0.00178681 0 1.74154e-05 0 0)
(0.776003 -0.0016876 0 2.3332e-05 0 0)
(0.776644 -0.00502229 0 7.43551e-05 0 0)
(1.01643 -0.00742326 0 0.000164505 0 0)
(0.918521 -0.0223027 0 0.00126387 0 0)
(2.76766 -0.305805 0 0.0584984 0 0)
(0.0461853 0.0175252 0 0.00724662 0 0)
(0.0188522 -0.00694064 0 0.00313519 0 0)
(0.0801121 -0.00775858 0 0.000817774 0 0)
(0.139324 -0.00741214 0 0.000402978 0 0)
(0.202345 -0.00726357 0 0.00030421 0 0)
(0.280457 -0.00697926 0 0.000273583 0 0)
(0.348591 -0.00604597 0 0.000222753 0 0)
(0.421977 -0.00509689 0 0.000153005 0 0)
(0.46829 -0.0040201 0 8.98726e-05 0 0)
(0.528151 -0.00355281 0 5.63288e-05 0 0)
(0.552709 -0.00301212 0 2.94677e-05 0 0)
(0.610628 -0.00333512 0 3.30453e-05 0 0)
(0.624293 -0.00311837 0 3.38798e-05 0 0)
(0.690436 -0.00388285 0 4.94872e-05 0 0)
(0.699933 -0.00441401 0 6.84218e-05 0 0)
(0.79292 -0.00549824 0 0.000101715 0 0)
(0.795794 -0.0114659 0 0.000299772 0 0)
(1.04492 -0.0150988 0 0.000771575 0 0)
(1.07299 -0.0585724 0 0.00595853 0 0)
(2.30339 -0.390556 0 0.123767 0 0)
(0.0613611 0.0194614 0 0.00654509 0 0)
(0.00166318 0.00128141 0 0.0048992 0 0)
(0.010806 -0.00288553 0 0.00179882 0 0)
(0.0260024 -0.00469839 0 0.00107085 0 0)
(0.0494741 -0.00632658 0 0.000861573 0 0)
(0.0955904 -0.00778644 0 0.000780895 0 0)
(0.1448 -0.00780399 0 0.000665752 0 0)
(0.209935 -0.00735193 0 0.00047609 0 0)
(0.252938 -0.00613863 0 0.000301633 0 0)
(0.31626 -0.00562239 0 0.000184529 0 0)
(0.340256 -0.0050444 0 0.000107736 0 0)
(0.406846 -0.00506921 0 9.17587e-05 0 0)
(0.418385 -0.00561795 0 0.000113199 0 0)
(0.495291 -0.00494734 0 0.000120574 0 0)
(0.50248 -0.00862782 0 0.000255613 0 0)
(0.595332 -0.00436228 0 0.000250356 0 0)
(0.623821 -0.0215511 0 0.00120508 0 0)
(0.742971 -0.00972939 0 0.00139045 0 0)
(1.01515 -0.107369 0 0.0193572 0 0)
(1.23669 -0.172162 0 0.0817266 0 0)
(0.0573903 0.0157119 0 0.00457943 0 0)
(0.0059287 0.00498237 0 0.00511459 0 0)
(0.00834253 0.00274972 0 0.00224146 0 0)
(0.00880415 0.0016484 0 0.00164624 0 0)
(0.00610298 9.3268e-05 0 0.00154661 0 0)
(0.0101411 -0.00276877 0 0.00148832 0 0)
(0.0226115 -0.00434467 0 0.00133387 0 0)
(0.0517901 -0.00569721 0 0.00101278 0 0)
(0.0737364 -0.00522199 0 0.000671844 0 0)
(0.115571 -0.00556818 0 0.000437043 0 0)
(0.129833 -0.00486904 0 0.00024228 0 0)
(0.180228 -0.00592245 0 0.000258192 0 0)
(0.18964 -0.00527553 0 0.000202059 0 0)
(0.24487 -0.00754589 0 0.000343688 0 0)
(0.262855 -0.00583125 0 0.000350712 0 0)
(0.313469 -0.0126889 0 0.000746206 0 0)
(0.361054 -0.00686395 0 0.0010275 0 0)
(0.425284 -0.0388583 0 0.00658646 0 0)
(0.566563 -0.0382225 0 0.00980601 0 0)
(0.793631 -0.245714 0 0.212539 0 0)
(0.0540771 0.0128227 0 0.00327241 0 0)
(0.00616664 0.00438837 0 0.00455499 0 0)
(0.0133371 0.00400275 0 0.00192192 0 0)
(0.0222187 0.00484397 0 0.00157874 0 0)
(0.0280469 0.00592589 0 0.00181932 0 0)
(0.0209082 0.00436279 0 0.00199966 0 0)
(0.0175735 0.0029488 0 0.0019568 0 0)
(0.0131539 5.49212e-05 0 0.00157582 0 0)
(0.0150279 -0.000583063 0 0.00117936 0 0)
(0.0238758 -0.00215623 0 0.000760777 0 0)
(0.0257784 -0.00217437 0 0.000507082 0 0)
(0.0459914 -0.00319348 0 0.000436741 0 0)
(0.0464585 -0.00396693 0 0.000512893 0 0)
(0.0747723 -0.00420732 0 0.000517672 0 0)
(0.0791256 -0.00680591 0 0.00104259 0 0)
(0.110791 -0.00545834 0 0.000942012 0 0)
(0.122809 -0.0142889 0 0.00354999 0 0)
(0.174064 -0.0120365 0 0.00382438 0 0)
(0.222373 -0.0574546 0 0.0317801 0 0)
(0.380532 -0.117323 0 0.112199 0 0)
(0.055256 0.0111034 0 0.0024425 0 0)
(0.00673962 0.00329779 0 0.00406193 0 0)
(0.0138042 0.00332377 0 0.00154216 0 0)
(0.0250277 0.0043717 0 0.0011647 0 0)
(0.0409373 0.00691386 0 0.00154392 0 0)
(0.0419407 0.00734881 0 0.00195375 0 0)
(0.0501414 0.00788851 0 0.00213033 0 0)
(0.0403381 0.00548051 0 0.0019038 0 0)
(0.0445481 0.00484646 0 0.00143764 0 0)
(0.0335258 0.0026179 0 0.00111494 0 0)
(0.0367198 0.00252424 0 0.000675309 0 0)
(0.0277472 0.000913921 0 0.000809164 0 0)
(0.029908 0.000626193 0 0.000581092 0 0)
(0.0243649 -0.000806587 0 0.0010329 0 0)
(0.0271656 -0.00127058 0 0.00101556 0 0)
(0.0260389 -0.00301292 0 0.00207435 0 0)
(0.0267596 -0.00323684 0 0.00238197 0 0)
(0.0406204 -0.0100929 0 0.0111588 0 0)
(0.0556078 -0.0172844 0 0.0165454 0 0)
(0.139507 -0.059826 0 0.149819 0 0)
(0.0591731 0.00976057 0 0.00182364 0 0)
(0.0088457 0.00253355 0 0.00359838 0 0)
(0.0136252 0.00274942 0 0.00138339 0 0)
(0.0240499 0.00344286 0 0.000881567 0 0)
(0.0396476 0.00586031 0 0.00119841 0 0)
(0.0425353 0.00679728 0 0.00165084 0 0)
(0.0580258 0.00838279 0 0.0019227 0 0)
(0.0534891 0.0068939 0 0.00173194 0 0)
(0.0689373 0.00693593 0 0.0015538 0 0)
(0.0611948 0.00509925 0 0.001163 0 0)
(0.0750078 0.00570602 0 0.000884726 0 0)
(0.0641453 0.00418317 0 0.000870536 0 0)
(0.0741511 0.00479668 0 0.00102439 0 0)
(0.0593688 0.00318983 0 0.00111797 0 0)
(0.0661733 0.00378936 0 0.00184007 0 0)
(0.0488658 0.0018208 0 0.00200472 0 0)
(0.049265 0.00388726 0 0.00414472 0 0)
(0.0374207 0.00179457 0 0.00808477 0 0)
(0.0376217 0.00263369 0 0.0271355 0 0)
(0.0739386 0.0059491 0 0.16323 0 0)
(0.062434 0.00852767 0 0.00136021 0 0)
(0.00898318 0.00201265 0 0.00306447 0 0)
(0.0114376 0.00233478 0 0.0013148 0 0)
(0.0211206 0.00281561 0 0.000704087 0 0)
(0.03411 0.0047868 0 0.000934001 0 0)
(0.0366499 0.00573129 0 0.00135713 0 0)
(0.0502405 0.00727394 0 0.00166679 0 0)
(0.0481337 0.00621002 0 0.00167286 0 0)
(0.0647566 0.00633741 0 0.00124659 0 0)
(0.0620253 0.00536997 0 0.00116946 0 0)
(0.0815619 0.00544512 0 0.00079397 0 0)
(0.0765986 0.00576015 0 0.00107953 0 0)
(0.0968459 0.00497133 0 0.000933476 0 0)
(0.0872948 0.00682567 0 0.00148621 0 0)
(0.105489 0.00462841 0 0.00178339 0 0)
(0.0893474 0.00825832 0 0.00276667 0 0)
(0.100755 0.00680126 0 0.0038155 0 0)
(0.0825496 0.012488 0 0.011239 0 0)
(0.0869444 0.0216543 0 0.0281777 0 0)
(0.106061 0.0407937 0 0.125449 0 0)
(0.0605338 0.00727099 0 0.00102953 0 0)
(0.00555953 0.00171082 0 0.00257323 0 0)
(0.00757664 0.00193021 0 0.00127936 0 0)
(0.0166911 0.00234717 0 0.000585596 0 0)
(0.0278093 0.00381975 0 0.000755588 0 0)
(0.031453 0.00493269 0 0.00114669 0 0)
(0.0407497 0.00609632 0 0.00143106 0 0)
(0.0422789 0.00553304 0 0.00134488 0 0)
(0.0533034 0.00522975 0 0.00122829 0 0)
(0.0570733 0.00454068 0 0.00109748 0 0)
(0.0693831 0.00479789 0 0.000846765 0 0)
(0.0746433 0.00491731 0 0.000973644 0 0)
(0.0872217 0.00474334 0 0.00108621 0 0)
(0.0923842 0.00612655 0 0.00143972 0 0)
(0.102911 0.00527412 0 0.00195176 0 0)
(0.105992 0.00855854 0 0.00274648 0 0)
(0.111903 0.00796414 0 0.00407279 0 0)
(0.111729 0.0198414 0 0.012416 0 0)
(0.112385 0.0259918 0 0.0266146 0 0)
(0.144086 0.067831 0 0.139746 0 0)
(0.0566888 0.00601702 0 0.000776007 0 0)
(0.00314561 0.00139166 0 0.00214023 0 0)
(0.00578135 0.00142958 0 0.00123229 0 0)
(0.014047 0.00185922 0 0.000523787 0 0)
(0.023319 0.00284498 0 0.000642581 0 0)
(0.0292274 0.00420374 0 0.00100715 0 0)
(0.0353265 0.00489447 0 0.0012729 0 0)
(0.0394971 0.00479299 0 0.00138597 0 0)
(0.0463492 0.00386123 0 0.00102763 0 0)
(0.0531335 0.00404047 0 0.00105366 0 0)
(0.0610159 0.00328115 0 0.000787781 0 0)
(0.0709213 0.00446933 0 0.0010513 0 0)
(0.0783622 0.00323855 0 0.00104339 0 0)
(0.0888255 0.0057654 0 0.00143283 0 0)
(0.0944219 0.00434891 0 0.00178724 0 0)
(0.104883 0.00781279 0 0.00252271 0 0)
(0.106981 0.00882681 0 0.00397781 0 0)
(0.112138 0.0184716 0 0.0109321 0 0)
(0.114711 0.0308629 0 0.0292389 0 0)
(0.147388 0.0694815 0 0.119268 0 0)
(0.0556411 0.00493189 0 0.000592876 0 0)
(0.00336006 0.000851023 0 0.00174487 0 0)
(0.00571916 0.000852793 0 0.00119161 0 0)
(0.0130285 0.00132805 0 0.000469182 0 0)
(0.0215387 0.00201002 0 0.000575119 0 0)
(0.0275073 0.00329158 0 0.000900803 0 0)
(0.0320342 0.00390788 0 0.0011367 0 0)
(0.0364168 0.0039081 0 0.00115627 0 0)
(0.041666 0.0031064 0 0.00100673 0 0)
(0.0486423 0.00300486 0 0.00103137 0 0)
(0.0564903 0.00257757 0 0.000773561 0 0)
(0.0653027 0.00336962 0 0.000947583 0 0)
(0.0726686 0.00262139 0 0.00102902 0 0)
(0.0819772 0.00477809 0 0.00136435 0 0)
(0.0883192 0.00369148 0 0.00154998 0 0)
(0.0965008 0.00783616 0 0.00262228 0 0)
(0.0993697 0.00825795 0 0.00352552 0 0)
(0.104931 0.0205619 0 0.0117088 0 0)
(0.110539 0.0314444 0 0.028285 0 0)
(0.141616 0.0687273 0 0.111153 0 0)
(0.0559137 0.0040352 0 0.000457161 0 0)
(0.00342083 0.000357531 0 0.00143271 0 0)
(0.00485887 0.000355956 0 0.00116693 0 0)
(0.0111832 0.000971942 0 0.000469013 0 0)
(0.0195418 0.00148519 0 0.000525257 0 0)
(0.0247074 0.00259777 0 0.000797624 0 0)
(0.0284877 0.00320778 0 0.00100806 0 0)
(0.0324251 0.00336962 0 0.00108789 0 0)
(0.0377467 0.00253448 0 0.000838765 0 0)
(0.0446936 0.00256939 0 0.000834018 0 0)
(0.0517522 0.00195492 0 0.000665762 0 0)
(0.0591594 0.00297876 0 0.000865958 0 0)
(0.0665331 0.00228653 0 0.000915465 0 0)
(0.0745637 0.00419985 0 0.00109961 0 0)
(0.0808905 0.0036278 0 0.0013063 0 0)
(0.0875763 0.00669472 0 0.00213363 0 0)
(0.091309 0.00919357 0 0.00331828 0 0)
(0.0974565 0.0196618 0 0.0109559 0 0)
(0.10507 0.0317591 0 0.0277454 0 0)
(0.138895 0.0712428 0 0.103124 0 0)
(0.0556187 0.00331351 0 0.000348866 0 0)
(0.00241065 0.000202835 0 0.00113641 0 0)
(0.00361294 0.000119056 0 0.00102632 0 0)
(0.00938131 0.000796231 0 0.000430401 0 0)
(0.0174232 0.00129525 0 0.000443115 0 0)
(0.0225406 0.00225314 0 0.000649799 0 0)
(0.0258725 0.00284157 0 0.000823838 0 0)
(0.0299557 0.00300197 0 0.000830455 0 0)
(0.0345901 0.00239398 0 0.000665881 0 0)
(0.0411573 0.00225118 0 0.000698059 0 0)
(0.046723 0.00184758 0 0.00056362 0 0)
(0.054633 0.00273947 0 0.00069723 0 0)
(0.060874 0.0022202 0 0.000740617 0 0)
(0.0691357 0.00407672 0 0.000948629 0 0)
(0.0741138 0.00337836 0 0.00104474 0 0)
(0.0817879 0.00703331 0 0.00201408 0 0)
(0.0853011 0.0089971 0 0.00310245 0 0)
(0.0937931 0.0190827 0 0.0106627 0 0)
(0.102335 0.0323333 0 0.0271373 0 0)
(0.138655 0.0720609 0 0.0951765 0 0)
(0.0551637 0.00269912 0 0.000246102 0 0)
(0.00171178 0.000345486 0 0.000832435 0 0)
(0.00334331 0.000278782 0 0.000763818 0 0)
(0.00863806 0.000844307 0 0.000350064 0 0)
(0.015826 0.00119345 0 0.000346262 0 0)
(0.0210406 0.00205768 0 0.000492114 0 0)
(0.0239441 0.00246864 0 0.000639387 0 0)
(0.0277856 0.00262089 0 0.000690345 0 0)
(0.0315157 0.00196794 0 0.000530096 0 0)
(0.0379266 0.00192434 0 0.000531602 0 0)
(0.0432257 0.00150203 0 0.000438729 0 0)
(0.0517094 0.00242849 0 0.00055705 0 0)
(0.0565542 0.00185726 0 0.000580765 0 0)
(0.0654408 0.00337529 0 0.000749151 0 0)
(0.0692623 0.00291851 0 0.000867965 0 0)
(0.0782717 0.00642133 0 0.00175269 0 0)
(0.0813255 0.00829925 0 0.00306502 0 0)
(0.0923595 0.0185656 0 0.0104447 0 0)
(0.101415 0.0324689 0 0.0262593 0 0)
(0.141331 0.0708811 0 0.0873313 0 0)
(0.0551244 0.00213105 0 0.00017814 0 0)
(0.00148142 0.000347044 0 0.000593642 0 0)
(0.00328078 0.000317135 0 0.000548117 0 0)
(0.00813584 0.000721208 0 0.00029589 0 0)
(0.0147981 0.000886709 0 0.000307404 0 0)
(0.0196561 0.00155782 0 0.000413863 0 0)
(0.0224934 0.00188863 0 0.000551053 0 0)
(0.0257604 0.0019114 0 0.000572153 0 0)
(0.0295221 0.00138006 0 0.000488702 0 0)
(0.0352649 0.0012697 0 0.000499052 0 0)
(0.0410765 0.00100538 0 0.000433127 0 0)
(0.0484629 0.0017176 0 0.000505098 0 0)
(0.0541181 0.00130513 0 0.000533218 0 0)
(0.0619414 0.0024175 0 0.000716 0 0)
(0.0667445 0.00247344 0 0.000766817 0 0)
(0.0747307 0.00523588 0 0.00179631 0 0)
(0.0800941 0.00789212 0 0.0029841 0 0)
(0.0902373 0.0175857 0 0.0104541 0 0)
(0.102682 0.0328658 0 0.0251273 0 0)
(0.143757 0.0682621 0 0.0806474 0 0)
(0.0552242 0.00156795 0 0.000143378 0 0)
(0.00116397 9.14721e-05 0 0.000456297 0 0)
(0.00285686 -4.88016e-06 0 0.000454008 0 0)
(0.00733254 0.000311225 0 0.00031633 0 0)
(0.0139815 0.000405523 0 0.000327809 0 0)
(0.0184575 0.00088872 0 0.000394187 0 0)
(0.0214437 0.00117777 0 0.000498265 0 0)
(0.0241733 0.00119887 0 0.000515205 0 0)
(0.0283081 0.000792822 0 0.000446908 0 0)
(0.0334 0.000740529 0 0.000440381 0 0)
(0.0396115 0.00052021 0 0.000390444 0 0)
(0.0458238 0.0011408 0 0.000453837 0 0)
(0.0525942 0.000672683 0 0.000490112 0 0)
(0.0590213 0.00182738 0 0.000653508 0 0)
(0.0649555 0.00182549 0 0.00071437 0 0)
(0.0718705 0.0047194 0 0.00161815 0 0)
(0.0792479 0.00707315 0 0.00305122 0 0)
(0.0886706 0.0175281 0 0.00958512 0 0)
(0.104649 0.0314967 0 0.0244256 0 0)
(0.144503 0.0687178 0 0.072426 0 0)
(0.0553406 0.00105548 0 0.000109936 0 0)
(0.00128499 -5.64625e-05 0 0.000332626 0 0)
(0.0031054 -0.000209033 0 0.000346477 0 0)
(0.0073344 6.65025e-05 0 0.000285856 0 0)
(0.0138319 0.000159682 0 0.000291467 0 0)
(0.0181895 0.000504359 0 0.000326713 0 0)
(0.0209375 0.000712422 0 0.000402061 0 0)
(0.0235993 0.000787471 0 0.000416834 0 0)
(0.0274217 0.00047597 0 0.000364394 0 0)
(0.0325472 0.000518861 0 0.000360772 0 0)
(0.0382801 0.000274975 0 0.000319686 0 0)
(0.0447545 0.000825088 0 0.000381188 0 0)
(0.0511592 0.000375995 0 0.0004036 0 0)
(0.0576807 0.00140952 0 0.000570203 0 0)
(0.0633471 0.00147928 0 0.000641166 0 0)
(0.0710252 0.00418307 0 0.00148367 0 0)
(0.0778891 0.00690502 0 0.00300847 0 0)
(0.0892358 0.0169329 0 0.00891702 0 0)
(0.106429 0.0306369 0 0.0238613 0 0)
(0.148513 0.0683209 0 0.0659249 0 0)
(0.0552754 0.000650044 0 8.28254e-05 0 0)
(0.00138943 1.95218e-07 0 0.000209764 0 0)
(0.0033846 -6.28854e-05 0 0.000212064 0 0)
(0.00747741 0.000120144 0 0.000193652 0 0)
(0.0135665 0.000188402 0 0.000208829 0 0)
(0.017986 0.000344577 0 0.000223073 0 0)
(0.0203962 0.000543871 0 0.000284065 0 0)
(0.0232874 0.00051645 0 0.000289647 0 0)
(0.0266842 0.000363115 0 0.000277593 0 0)
(0.0320665 0.00028072 0 0.000268788 0 0)
(0.0371354 0.000197893 0 0.00024979 0 0)
(0.0441783 0.000463187 0 0.000293752 0 0)
(0.0497284 0.000285773 0 0.000304755 0 0)
(0.0570947 0.000880136 0 0.000466602 0 0)
(0.062071 0.00133234 0 0.000523587 0 0)
(0.0705588 0.00356182 0 0.00139117 0 0)
(0.0769547 0.00696727 0 0.00270867 0 0)
(0.0906321 0.0158182 0 0.00877565 0 0)
(0.108464 0.0308488 0 0.0216362 0 0)
(0.152729 0.0644599 0 0.060198 0 0)
(0.0552437 0.000215343 0 6.15302e-05 0 0)
(0.00118855 3.65889e-05 0 0.000139133 0 0)
(0.00307019 6.7808e-05 0 0.000123995 0 0)
(0.00710703 0.000134255 0 0.000130519 0 0)
(0.0131574 0.000118695 0 0.000156605 0 0)
(0.0174835 0.000194868 0 0.00016153 0 0)
(0.0198904 0.000227126 0 0.000205554 0 0)
(0.0226727 0.000293191 0 0.000223711 0 0)
(0.0263162 6.2015e-05 0 0.000222703 0 0)
(0.0314029 0.000163269 0 0.00022364 0 0)
(0.0367729 -0.000165633 0 0.00022424 0 0)
(0.0433918 0.000327305 0 0.000250568 0 0)
(0.0490946 -0.000174135 0 0.000272041 0 0)
(0.0563404 0.000797071 0 0.0003837 0 0)
(0.0618938 0.000656226 0 0.00052203 0 0)
(0.069921 0.00368632 0 0.00118544 0 0)
(0.0776652 0.00597137 0 0.00263935 0 0)
(0.0917461 0.0158621 0 0.00830206 0 0)
(0.111793 0.0296472 0 0.0197995 0 0)
(0.157298 0.0608208 0 0.0556562 0 0)
(0.0552696 -0.000195987 0 6.35214e-05 0 0)
(0.000962811 -5.17087e-05 0 0.000148676 0 0)
(0.00273024 -2.1517e-05 0 0.000132192 0 0)
(0.00674837 -5.27772e-05 0 0.000144103 0 0)
(0.0129772 -4.63236e-05 0 0.000162009 0 0)
(0.0171505 -0.000193081 0 0.000166475 0 0)
(0.0197059 -0.000156387 0 0.00020243 0 0)
(0.0221622 -0.000204716 0 0.00021648 0 0)
(0.0261827 -0.000196997 0 0.000213545 0 0)
(0.0310143 -0.000247701 0 0.000209497 0 0)
(0.0369794 -0.000337772 0 0.000193609 0 0)
(0.0429142 -0.000185552 0 0.000239464 0 0)
(0.0493118 -0.000247304 0 0.000201627 0 0)
(0.0558149 9.84977e-05 0 0.000385444 0 0)
(0.0621611 0.000750684 0 0.000417661 0 0)
(0.0699149 0.00269932 0 0.00114715 0 0)
(0.0792377 0.00613931 0 0.002536 0 0)
(0.0934879 0.0143232 0 0.00758303 0 0)
(0.115996 0.0297302 0 0.0190242 0 0)
(0.162769 0.0560106 0 0.0489576 0 0)
(0.0552329 -0.000646752 0 6.44706e-05 0 0)
(0.000957247 -0.000139065 0 0.000179881 0 0)
(0.00272451 -0.000127617 0 0.000162796 0 0)
(0.00676288 -0.00026333 0 0.000154783 0 0)
(0.0130378 -0.000272929 0 0.000171568 0 0)
(0.0172505 -0.000546239 0 0.000176006 0 0)
(0.019837 -0.000661555 0 0.000231577 0 0)
(0.0222954 -0.000649792 0 0.000246901 0 0)
(0.0262165 -0.000628006 0 0.000249634 0 0)
(0.0312321 -0.000538974 0 0.00021595 0 0)
(0.0372736 -0.000725361 0 0.000216988 0 0)
(0.0432456 -0.000456796 0 0.000215706 0 0)
(0.0496803 -0.000719162 0 0.000217603 0 0)
(0.0562083 -0.00018343 0 0.0003272 0 0)
(0.0628405 7.6663e-05 0 0.000468361 0 0)
(0.0710959 0.00240466 0 0.00102141 0 0)
(0.081208 0.00511942 0 0.00243025 0 0)
(0.0965753 0.0139591 0 0.00710629 0 0)
(0.120844 0.0274535 0 0.0170971 0 0)
(0.1684 0.0578 0 0.043997 0 0)
(0.0551523 -0.00109062 0 7.9035e-05 0 0)
(0.00100597 -0.000183243 0 0.000254719 0 0)
(0.00283664 -0.000154822 0 0.00021915 0 0)
(0.00707078 -0.000417761 0 0.000172578 0 0)
(0.0133887 -0.000478157 0 0.000187534 0 0)
(0.0176775 -0.000897849 0 0.000207084 0 0)
(0.0203102 -0.00110554 0 0.000279068 0 0)
(0.0229519 -0.00111687 0 0.00030079 0 0)
(0.0267969 -0.0010075 0 0.000295349 0 0)
(0.0319958 -0.000869007 0 0.000242235 0 0)
(0.0378712 -0.00103449 0 0.000235989 0 0)
(0.0442017 -0.000833421 0 0.0002257 0 0)
(0.0505009 -0.00112854 0 0.000240479 0 0)
(0.0574388 -0.000620511 0 0.000308055 0 0)
(0.0642409 -0.000548642 0 0.000546349 0 0)
(0.0730684 0.00195777 0 0.000912013 0 0)
(0.0838422 0.00409754 0 0.00250109 0 0)
(0.100491 0.0134568 0 0.00649895 0 0)
(0.126941 0.0250925 0 0.0158859 0 0)
(0.176239 0.0582135 0 0.040419 0 0)
(0.0550926 -0.00156063 0 9.67861e-05 0 0)
(0.00101961 -0.000220895 0 0.00035732 0 0)
(0.00289052 -0.000155156 0 0.000286764 0 0)
(0.00745334 -0.000520646 0 0.000172141 0 0)
(0.0139453 -0.000643248 0 0.000187445 0 0)
(0.0183046 -0.00125262 0 0.000238846 0 0)
(0.0211059 -0.00147302 0 0.000311834 0 0)
(0.0239094 -0.00157761 0 0.000357031 0 0)
(0.0279231 -0.00127853 0 0.000308813 0 0)
(0.0330941 -0.00124691 0 0.000271041 0 0)
(0.0390957 -0.00120024 0 0.000227032 0 0)
(0.045605 -0.00136705 0 0.000270734 0 0)
(0.0521638 -0.00129914 0 0.000217024 0 0)
(0.059303 -0.00139856 0 0.000384892 0 0)
(0.0664831 -0.000651098 0 0.000500417 0 0)
(0.0757648 0.000799437 0 0.000999223 0 0)
(0.0872632 0.00408678 0 0.00228177 0 0)
(0.105259 0.0113813 0 0.00600073 0 0)
(0.133767 0.0246658 0 0.014751 0 0)
(0.18375 0.0513588 0 0.0329957 0 0)
(0.0549564 -0.00209316 0 0.000133892 0 0)
(0.000912944 -0.000257781 0 0.000504999 0 0)
(0.00275896 -0.000167498 0 0.000408165 0 0)
(0.00774274 -0.000589172 0 0.000175105 0 0)
(0.0145029 -0.000824266 0 0.000200439 0 0)
(0.0191313 -0.00155791 0 0.000284698 0 0)
(0.0220485 -0.00192312 0 0.000399602 0 0)
(0.0251237 -0.00193685 0 0.000430696 0 0)
(0.0292408 -0.0016693 0 0.000382513 0 0)
(0.034636 -0.00150559 0 0.000308886 0 0)
(0.0407513 -0.00158807 0 0.000276275 0 0)
(0.0475817 -0.00164946 0 0.00029053 0 0)
(0.0542981 -0.00180398 0 0.000261674 0 0)
(0.0618253 -0.00174745 0 0.000389202 0 0)
(0.0693084 -0.00135274 0 0.000551113 0 0)
(0.0792152 0.000335597 0 0.00100864 0 0)
(0.0915125 0.00305928 0 0.00207458 0 0)
(0.11109 0.010159 0 0.00586896 0 0)
(0.141472 0.0222859 0 0.0128368 0 0)
(0.192897 0.0463275 0 0.0303368 0 0)
(0.0548411 -0.00266182 0 0.000184342 0 0)
(0.00084966 -0.000358952 0 0.000704121 0 0)
(0.00268923 -0.000268625 0 0.00055688 0 0)
(0.00811691 -0.000730765 0 0.000188452 0 0)
(0.0152107 -0.00103255 0 0.000212196 0 0)
(0.0201237 -0.0019904 0 0.000348963 0 0)
(0.0232945 -0.00235768 0 0.000469975 0 0)
(0.0266167 -0.002467 0 0.000531847 0 0)
(0.0309361 -0.00199705 0 0.000423875 0 0)
(0.0366387 -0.00198848 0 0.00037259 0 0)
(0.0429784 -0.00186753 0 0.000288543 0 0)
(0.0500866 -0.00221786 0 0.000339475 0 0)
(0.0570763 -0.00209269 0 0.000269113 0 0)
(0.0649566 -0.00248503 0 0.000434563 0 0)
(0.072941 -0.0017504 0 0.000593748 0 0)
(0.0834414 -0.000627474 0 0.00099546 0 0)
(0.0969209 0.00222122 0 0.00208648 0 0)
(0.117816 0.00840301 0 0.00536681 0 0)
(0.150499 0.0197041 0 0.0117107 0 0)
(0.203493 0.0417832 0 0.0281152 0 0)
(0.0547541 -0.00335137 0 0.000265231 0 0)
(0.000884972 -0.000498345 0 0.000947397 0 0)
(0.00281412 -0.000437977 0 0.000756323 0 0)
(0.00880414 -0.000912981 0 0.000220245 0 0)
(0.0162531 -0.00135388 0 0.000261862 0 0)
(0.0214025 -0.00243951 0 0.000449091 0 0)
(0.0249648 -0.00289933 0 0.000607307 0 0)
(0.0286025 -0.0029944 0 0.000675066 0 0)
(0.033274 -0.00246118 0 0.000530149 0 0)
(0.0392256 -0.00243681 0 0.00046669 0 0)
(0.045924 -0.00228337 0 0.000339723 0 0)
(0.053325 -0.00275493 0 0.000420011 0 0)
(0.0608114 -0.00254307 0 0.00029909 0 0)
(0.0690102 -0.00318753 0 0.000524772 0 0)
(0.0777086 -0.00229139 0 0.000613059 0 0)
(0.0887607 -0.00165255 0 0.00108708 0 0)
(0.103538 0.001287 0 0.0020069 0 0)
(0.125587 0.00642263 0 0.00500938 0 0)
(0.160959 0.0168011 0 0.0109021 0 0)
(0.215569 0.0367212 0 0.0255442 0 0)
(0.0547969 -0.00409489 0 0.000370161 0 0)
(0.00094757 -0.000664251 0 0.00124532 0 0)
(0.00304815 -0.000639465 0 0.000918668 0 0)
(0.00975034 -0.00113056 0 0.000257258 0 0)
(0.0176364 -0.00173575 0 0.00031722 0 0)
(0.0230925 -0.00297064 0 0.000564452 0 0)
(0.0270708 -0.00346841 0 0.000743419 0 0)
(0.0311674 -0.00359836 0 0.000824503 0 0)
(0.0361963 -0.00296507 0 0.000631638 0 0)
(0.0425815 -0.00297303 0 0.000560556 0 0)
(0.0495571 -0.00272531 0 0.000380101 0 0)
(0.0575341 -0.00339324 0 0.000500302 0 0)
(0.0653305 -0.00301479 0 0.000332033 0 0)
(0.0742527 -0.00400401 0 0.00061934 0 0)
(0.0834789 -0.00288581 0 0.000655649 0 0)
(0.0954411 -0.00282258 0 0.0011839 0 0)
(0.111126 0.0003159 0 0.00196391 0 0)
(0.134886 0.00410904 0 0.00475411 0 0)
(0.172516 0.0137405 0 0.0101892 0 0)
(0.229488 0.0306737 0 0.0231462 0 0)
(0.0553972 -0.00497846 0 0.000519647 0 0)
(0.0010429 -0.000857412 0 0.00161525 0 0)
(0.00347949 -0.000930048 0 0.00103249 0 0)
(0.0107941 -0.0013951 0 0.000325319 0 0)
(0.0195779 -0.0022433 0 0.000413796 0 0)
(0.0249212 -0.00355584 0 0.00072264 0 0)
(0.0299898 -0.0041575 0 0.000931007 0 0)
(0.0339222 -0.00421486 0 0.00100512 0 0)
(0.040013 -0.00358455 0 0.000773572 0 0)
(0.0462983 -0.00355288 0 0.000689698 0 0)
(0.0542777 -0.00328769 0 0.000448133 0 0)
(0.0622454 -0.00406502 0 0.000603593 0 0)
(0.0710091 -0.00358485 0 0.000381457 0 0)
(0.0801493 -0.00486746 0 0.000742357 0 0)
(0.0905228 -0.00355134 0 0.000694923 0 0)
(0.103059 -0.00410641 0 0.00132605 0 0)
(0.120116 -0.000721694 0 0.00191007 0 0)
(0.145404 0.00156243 0 0.00462136 0 0)
(0.185275 0.0106074 0 0.00940468 0 0)
(0.244999 0.0235051 0 0.0216257 0 0)
(0.056696 -0.00604724 0 0.000726959 0 0)
(0.0013598 -0.00106918 0 0.00204194 0 0)
(0.00441634 -0.0013484 0 0.00111368 0 0)
(0.0119082 -0.00169845 0 0.000415607 0 0)
(0.0225308 -0.00292363 0 0.00054507 0 0)
(0.0265924 -0.00414757 0 0.000902286 0 0)
(0.0343811 -0.00500744 0 0.00114115 0 0)
(0.0364397 -0.00477271 0 0.00118701 0 0)
(0.0456226 -0.00440156 0 0.000942643 0 0)
(0.0497715 -0.00407271 0 0.000817346 0 0)
(0.0611503 -0.00404907 0 0.000531714 0 0)
(0.0667661 -0.00467144 0 0.000704697 0 0)
(0.0792145 -0.00438327 0 0.000453573 0 0)
(0.0858737 -0.005628 0 0.000871244 0 0)
(0.100306 -0.00443076 0 0.000744662 0 0)
(0.110579 -0.00531597 0 0.00151142 0 0)
(0.131669 -0.00194906 0 0.0018212 0 0)
(0.155254 -0.000907902 0 0.00465572 0 0)
(0.198268 0.00760075 0 0.00841442 0 0)
(0.256862 0.0164088 0 0.0209012 0 0)
(0.0576433 -0.00725946 0 0.00100637 0 0)
(0.00201355 -0.00135984 0 0.00252808 0 0)
(0.00594432 -0.00189027 0 0.00120431 0 0)
(0.0132768 -0.00207489 0 0.000536045 0 0)
(0.0265313 -0.00382199 0 0.000722779 0 0)
(0.0284613 -0.00479952 0 0.00111395 0 0)
(0.0404685 -0.00608823 0 0.00138986 0 0)
(0.0390247 -0.00530137 0 0.00137786 0 0)
(0.0535917 -0.00551311 0 0.00115017 0 0)
(0.0531268 -0.00455356 0 0.000947623 0 0)
(0.0709498 -0.00508771 0 0.000648305 0 0)
(0.0708109 -0.00521014 0 0.000800619 0 0)
(0.0906505 -0.0054877 0 0.00055899 0 0)
(0.0900773 -0.00622253 0 0.000991648 0 0)
(0.112311 -0.00553703 0 0.00082466 0 0)
(0.113719 -0.00612474 0 0.00164759 0 0)
(0.141411 -0.00315605 0 0.0018091 0 0)
(0.1537 -0.00228844 0 0.00450413 0 0)
(0.198135 0.00597298 0 0.00762864 0 0)
(0.242087 0.0133774 0 0.0192893 0 0)
(0.0570013 -0.00847787 0 0.00136461 0 0)
(0.00272893 -0.00181004 0 0.00307751 0 0)
(0.00751002 -0.0024255 0 0.00130481 0 0)
(0.0150755 -0.00260755 0 0.000697564 0 0)
(0.0306222 -0.00484347 0 0.000952154 0 0)
(0.0315076 -0.00564922 0 0.00137946 0 0)
(0.0470962 -0.0072945 0 0.00167595 0 0)
(0.0429816 -0.00598527 0 0.00160353 0 0)
(0.0621124 -0.0067067 0 0.00137925 0 0)
(0.0568659 -0.00512293 0 0.00108867 0 0)
(0.0795777 -0.00610775 0 0.000771155 0 0)
(0.0720664 -0.00559693 0 0.000895513 0 0)
(0.0959765 -0.00633082 0 0.000660301 0 0)
(0.0848288 -0.00622914 0 0.00109717 0 0)
(0.108719 -0.00582178 0 0.000867581 0 0)
(0.0963989 -0.00556343 0 0.00172349 0 0)
(0.121587 -0.00258178 0 0.0017044 0 0)
(0.117096 -0.000871868 0 0.00418108 0 0)
(0.152941 0.00847378 0 0.0066387 0 0)
(0.180975 0.0173938 0 0.0167563 0 0)
(0.0553076 -0.00971052 0 0.00182755 0 0)
(0.00330674 -0.00241418 0 0.00362739 0 0)
(0.00888466 -0.00287424 0 0.00140697 0 0)
(0.0175752 -0.00334382 0 0.000903599 0 0)
(0.0346363 -0.00593541 0 0.00123572 0 0)
(0.0361001 -0.00669542 0 0.00168378 0 0)
(0.0523766 -0.00837333 0 0.00197657 0 0)
(0.046193 -0.00659123 0 0.0018259 0 0)
(0.063277 -0.00724784 0 0.00157136 0 0)
(0.0526403 -0.00502515 0 0.00117226 0 0)
(0.0693713 -0.00596634 0 0.000854937 0 0)
(0.0546389 -0.00453411 0 0.000898127 0 0)
(0.0686307 -0.00528641 0 0.000709618 0 0)
(0.0510847 -0.00376573 0 0.00104631 0 0)
(0.0625408 -0.00371535 0 0.000846843 0 0)
(0.0475232 -0.00166996 0 0.00152971 0 0)
(0.0594563 0.000337817 0 0.00153674 0 0)
(0.0573473 0.0045864 0 0.00336092 0 0)
(0.0833907 0.0127321 0 0.00559872 0 0)
(0.123388 0.0256002 0 0.0117781 0 0)
(0.0536794 -0.0110822 0 0.00244512 0 0)
(0.00392207 -0.00321566 0 0.00408833 0 0)
(0.0104538 -0.00339441 0 0.00157155 0 0)
(0.0208331 -0.00431928 0 0.00119467 0 0)
(0.0370672 -0.00694919 0 0.00158352 0 0)
(0.0367136 -0.00720904 0 0.00198419 0 0)
(0.044915 -0.00785845 0 0.00217652 0 0)
(0.0334209 -0.00521472 0 0.00192026 0 0)
(0.0375468 -0.00496846 0 0.00156112 0 0)
(0.0250925 -0.0023298 0 0.00109307 0 0)
(0.0272807 -0.00275606 0 0.000766779 0 0)
(0.0187992 -0.00075879 0 0.000756771 0 0)
(0.0190205 -0.00120467 0 0.000591186 0 0)
(0.017236 0.00111126 0 0.000847391 0 0)
(0.0178051 0.000625476 0 0.00065176 0 0)
(0.0257578 0.0037901 0 0.00121918 0 0)
(0.0308179 0.00402482 0 0.0011488 0 0)
(0.0556004 0.0102468 0 0.00257583 0 0)
(0.0833418 0.0154455 0 0.00420731 0 0)
(0.15207 0.029474 0 0.00764286 0 0)
(0.0535838 -0.0128172 0 0.00327041 0 0)
(0.00513106 -0.00434798 0 0.00456773 0 0)
(0.0117098 -0.00401217 0 0.00193889 0 0)
(0.0201174 -0.00479401 0 0.00159267 0 0)
(0.0258084 -0.0059403 0 0.00184322 0 0)
(0.0176657 -0.00422789 0 0.00201241 0 0)
(0.0137435 -0.00288921 0 0.00199199 0 0)
(0.00827344 0.000165183 0 0.00162417 0 0)
(0.00895608 0.000654655 0 0.00121388 0 0)
(0.0170481 0.00251685 0 0.000790429 0 0)
(0.0174083 0.00208752 0 0.000527377 0 0)
(0.0385989 0.00372009 0 0.000500097 0 0)
(0.0362768 0.0032486 0 0.000394223 0 0)
(0.0705787 0.0053659 0 0.000560849 0 0)
(0.0683896 0.00421844 0 0.000427488 0 0)
(0.113317 0.00754753 0 0.000830629 0 0)
(0.118563 0.00567438 0 0.000766025 0 0)
(0.174094 0.0132196 0 0.00179746 0 0)
(0.210657 0.0133042 0 0.00271206 0 0)
(0.299453 0.0307466 0 0.00517374 0 0)
(0.0572763 -0.0157104 0 0.00457555 0 0)
(0.00562577 -0.00496956 0 0.00512292 0 0)
(0.00762147 -0.00274718 0 0.00224983 0 0)
(0.00784702 -0.00160971 0 0.00165378 0 0)
(0.00482568 -8.24959e-05 0 0.00156016 0 0)
(0.00855084 0.00285864 0 0.00149389 0 0)
(0.0200834 0.00442373 0 0.00135573 0 0)
(0.0494461 0.00588009 0 0.00102759 0 0)
(0.0694906 0.00538436 0 0.00071446 0 0)
(0.112403 0.00579213 0 0.000444426 0 0)
(0.124034 0.00508179 0 0.000282756 0 0)
(0.178189 0.00599208 0 0.000269022 0 0)
(0.181223 0.00543033 0 0.000215815 0 0)
(0.2485 0.00689035 0 0.000311442 0 0)
(0.247264 0.00548734 0 0.000239788 0 0)
(0.322183 0.00806451 0 0.000481447 0 0)
(0.327659 0.00513713 0 0.000455376 0 0)
(0.399063 0.0121447 0 0.0010733 0 0)