/*--------------------------------*- C++ -*----------------------------------*\
| =========                 |                                                 |
| \\      /  F ield         | OpenFOAM: The Open Source CFD Toolbox           |
|  \\    /   O peration     | Version:  2.4.0                                 |
|   \\  /    A nd           | Web:      www.OpenFOAM.org                      |
|    \\/     M anipulation  |                                                 |
\*---------------------------------------------------------------------------*/
FoamFile
{
    version     2.0;
    format      ascii;
    class       volScalarField;
    location    "0.019";
    object      nuSgs;
}
// * * * * * * * * * * * * * * * * * * * * * * * * * * * * * * * * * * * * * //

dimensions      [0 2 -1 0 0 0 0];

internalField   nonuniform List<scalar> 
4400
(
0.00205182
0.00193683
0.00169619
0.00154442
0.00141158
0.00136352
0.00133649
0.0013454
0.00130304
0.00140985
0.00139455
0.00172865
0.00172375
0.00168265
0.00157292
0.00151914
0.00149202
0.00146537
0.00149444
0.00149633
0.000715421
0.00118296
0.00135549
0.00142789
0.00140867
0.00136931
0.00136201
0.001303
0.00136969
0.00135305
0.000267122
0.000650019
0.000850912
0.00101407
0.0011036
0.00110839
0.00112612
0.00108182
0.00111508
0.00114225
8.66314e-05
0.000281517
0.00040734
0.000550042
0.000717467
0.000783255
0.000808194
0.000809372
0.00080376
0.000839631
2.51392e-05
9.90682e-05
0.000148096
0.000220941
0.000348479
0.000452041
0.000466695
0.000497365
0.000477237
0.00049709
7.70272e-06
3.05491e-05
4.28047e-05
6.76478e-05
0.000125159
0.000196169
0.000203651
0.000216331
0.000200792
0.000213631
4.28798e-06
1.1728e-05
1.31854e-05
1.81817e-05
3.76554e-05
5.98281e-05
6.02624e-05
6.22996e-05
5.25553e-05
5.82094e-05
3.88627e-06
8.32512e-06
8.46327e-06
8.93879e-06
1.29475e-05
1.59912e-05
1.54072e-05
1.55539e-05
1.22541e-05
1.32577e-05
3.87678e-06
7.47435e-06
7.81609e-06
8.58948e-06
9.94646e-06
1.01152e-05
9.92976e-06
9.687e-06
8.57239e-06
8.58982e-06
3.84016e-06
7.65711e-06
7.87392e-06
8.46551e-06
9.97469e-06
1.01778e-05
1.00267e-05
9.67737e-06
8.55883e-06
8.55919e-06
3.92389e-06
7.81936e-06
8.05868e-06
8.58445e-06
1.27151e-05
1.66568e-05
1.66273e-05
1.43418e-05
1.39567e-05
1.37207e-05
4.23789e-06
1.02984e-05
1.25945e-05
1.75317e-05
3.62843e-05
6.15834e-05
6.41603e-05
5.86711e-05
6.08896e-05
6.13281e-05
7.80681e-06
2.63636e-05
4.19781e-05
6.6756e-05
0.000122957
0.0001968
0.000213207
0.000210119
0.000215712
0.000227322
2.54853e-05
8.94731e-05
0.000147395
0.000220783
0.000343475
0.000453023
0.000482447
0.00048649
0.000497163
0.000520613
8.72802e-05
0.000268059
0.000413932
0.0005526
0.000707574
0.00079336
0.000810035
0.00081216
0.00082028
0.000844444
0.000268605
0.000640282
0.000860957
0.0010105
0.00109997
0.00111964
0.00111435
0.00110236
0.001106
0.00112136
0.000718399
0.00117731
0.0013623
0.00142261
0.00141137
0.00137217
0.00134685
0.00132573
0.00133194
0.00132967
0.00139396
0.00172707
0.00172588
0.00167876
0.00158292
0.00150764
0.00148711
0.00146577
0.00147336
0.00144601
0.00205082
0.00193634
0.00169815
0.00153834
0.00142246
0.0013505
0.00133655
0.00132153
0.00132644
0.00126408
0.000573006
0.000426137
0.000323286
0.000266839
0.000259516
0.000344619
0.000399555
0.000386195
0.000347748
0.000332754
0.000328236
0.000297673
0.000218415
0.000155335
0.000112451
8.62625e-05
7.35453e-05
6.66167e-05
5.75971e-05
4.62464e-05
3.47482e-05
2.47876e-05
1.69769e-05
1.12665e-05
7.30781e-06
4.67087e-06
2.9613e-06
1.86997e-06
1.17958e-06
7.45713e-07
4.74139e-07
3.04072e-07
1.96984e-07
1.28898e-07
8.50893e-08
5.65653e-08
3.78029e-08
2.53616e-08
1.70625e-08
1.1503e-08
7.76762e-09
5.25261e-09
3.55658e-09
2.41146e-09
1.63754e-09
1.11407e-09
7.59735e-10
5.19722e-10
3.57061e-10
2.46786e-10
1.72029e-10
1.21449e-10
8.73043e-11
6.43459e-11
4.94685e-11
3.99293e-11
3.3851e-11
3.22664e-11
3.28132e-11
3.49748e-11
3.97022e-11
4.83532e-11
6.13353e-11
8.11958e-11
1.09634e-10
1.51229e-10
2.12309e-10
2.99987e-10
4.32058e-10
6.11789e-10
9.33015e-10
1.25319e-09
2.27237e-09
2.60352e-09
6.88818e-09
6.38281e-09
2.94197e-08
2.58519e-08
1.68246e-07
1.64135e-07
7.55643e-07
8.11574e-07
1.82632e-06
2.09011e-06
3.21013e-06
3.16617e-06
3.95631e-06
3.64768e-06
3.6266e-06
3.40874e-06
3.99972e-06
4.01569e-06
4.25812e-06
4.66769e-06
6.51694e-06
9.62107e-06
2.25607e-05
2.864e-05
8.01692e-05
0.000201855
0.000712712
0.000593638
0.000503832
0.000392379
0.000382703
0.000433305
0.000418153
0.000322044
0.000266876
0.000276803
0.000300748
0.000285791
0.00021309
0.000150734
0.000110651
8.58631e-05
7.20736e-05
6.36579e-05
5.50652e-05
4.47936e-05
3.4159e-05
2.4624e-05
1.69546e-05
1.12593e-05
7.27868e-06
4.62253e-06
2.90865e-06
1.82641e-06
1.1507e-06
7.29866e-07
4.66834e-07
3.01298e-07
1.96205e-07
1.28834e-07
8.52101e-08
5.6693e-08
3.78945e-08
2.54184e-08
1.70952e-08
1.1521e-08
7.77717e-09
5.25752e-09
3.55901e-09
2.41258e-09
1.638e-09
1.1142e-09
7.59711e-10
5.19629e-10
3.56943e-10
2.46663e-10
1.71909e-10
1.21332e-10
8.71899e-11
6.42325e-11
4.93533e-11
3.98106e-11
3.37319e-11
3.21467e-11
3.26922e-11
3.48499e-11
3.95688e-11
4.821e-11
6.11813e-11
8.09781e-11
1.09313e-10
1.50769e-10
2.11579e-10
2.98858e-10
4.30237e-10
6.083e-10
9.31495e-10
1.24151e-09
2.30724e-09
2.59557e-09
7.43683e-09
7.07972e-09
3.75474e-08
3.74567e-08
2.63813e-07
2.65943e-07
1.44461e-06
1.29958e-06
4.1528e-06
3.41568e-06
7.75396e-06
5.80103e-06
1.00402e-05
7.90933e-06
8.25835e-06
6.80946e-06
7.43366e-06
6.1352e-06
6.74372e-06
6.09479e-06
1.34886e-05
1.37738e-05
2.42167e-05
2.86384e-05
7.52441e-05
0.000177234
0.000666839
0.00057785
0.000541165
0.000502303
0.000489308
0.000469372
0.000343084
0.000208922
0.000184147
0.000214192
0.000251901
0.00025227
0.000210423
0.000150937
0.000111447
8.71993e-05
7.24373e-05
6.2316e-05
5.25867e-05
4.23623e-05
3.23827e-05
2.35606e-05
1.64156e-05
1.10242e-05
7.18516e-06
4.58152e-06
2.8835e-06
1.80702e-06
1.13591e-06
7.19857e-07
4.60978e-07
2.9836e-07
1.94967e-07
1.28427e-07
8.51389e-08
5.67258e-08
3.79429e-08
2.54567e-08
1.71203e-08
1.1536e-08
7.7857e-09
5.26218e-09
3.56146e-09
2.4138e-09
1.63853e-09
1.11436e-09
7.59672e-10
5.19487e-10
3.56747e-10
2.46438e-10
1.7167e-10
1.21085e-10
8.69398e-11
6.39814e-11
4.91024e-11
3.95593e-11
3.3483e-11
3.18996e-11
3.24448e-11
3.46014e-11
3.93167e-11
4.79413e-11
6.08699e-11
8.06561e-11
1.08893e-10
1.50218e-10
2.10695e-10
2.97674e-10
4.27641e-10
6.05521e-10
9.22435e-10
1.23574e-09
2.29128e-09
2.64e-09
7.68138e-09
8.44706e-09
4.24227e-08
5.64812e-08
3.46327e-07
4.19664e-07
2.42675e-06
2.25278e-06
9.03153e-06
6.52728e-06
2.14813e-05
1.3709e-05
3.71999e-05
2.49324e-05
4.11606e-05
2.73337e-05
3.67585e-05
2.38056e-05
2.51819e-05
1.63973e-05
2.24581e-05
1.73488e-05
3.80724e-05
3.16149e-05
7.86913e-05
0.000152174
0.000593727
0.000542516
0.000501673
0.000489652
0.000473041
0.000401668
0.000232924
0.000144034
0.000146209
0.000202673
0.000217263
0.000216605
0.000196665
0.000146991
0.000110748
8.80699e-05
7.37952e-05
6.22582e-05
5.10333e-05
3.99762e-05
2.9962e-05
2.16268e-05
1.51229e-05
1.02819e-05
6.81171e-06
4.41234e-06
2.81331e-06
1.77929e-06
1.12467e-06
7.14827e-07
4.58528e-07
2.97174e-07
1.94453e-07
1.28251e-07
8.51133e-08
5.6753e-08
3.79789e-08
2.5486e-08
1.71404e-08
1.15485e-08
7.79296e-09
5.26617e-09
3.56353e-09
2.41478e-09
1.63892e-09
1.11442e-09
7.59549e-10
5.1926e-10
3.5646e-10
2.46118e-10
1.71332e-10
1.20737e-10
8.65865e-11
6.36275e-11
4.87477e-11
3.92024e-11
3.3129e-11
3.15491e-11
3.20947e-11
3.42508e-11
3.89633e-11
4.75489e-11
6.04931e-11
8.02381e-11
1.08367e-10
1.49577e-10
2.09673e-10
2.96512e-10
4.24525e-10
6.03835e-10
9.0363e-10
1.23814e-09
2.21123e-09
2.74546e-09
7.41685e-09
1.05558e-08
4.16281e-08
8.28285e-08
3.48974e-07
5.80196e-07
2.93402e-06
2.81766e-06
1.26032e-05
9.59739e-06
2.94451e-05
2.27058e-05
5.2635e-05
4.39228e-05
8.4543e-05
6.91548e-05
0.000122135
9.15514e-05
0.000128427
7.52051e-05
9.01883e-05
4.99163e-05
6.1514e-05
4.29097e-05
7.50492e-05
0.000122464
0.000447672
0.000425951
0.000405759
0.000402826
0.000387111
0.000283334
0.000155757
0.000104232
0.000120995
0.000179116
0.000194853
0.000189827
0.000165562
0.00012811
9.97568e-05
8.462e-05
7.38923e-05
6.27828e-05
5.09888e-05
3.93547e-05
2.89779e-05
2.04936e-05
1.40336e-05
9.39201e-06
6.1962e-06
4.05077e-06
2.628e-06
1.69505e-06
1.09034e-06
7.02155e-07
4.54296e-07
2.95929e-07
1.94169e-07
1.28247e-07
8.51725e-08
5.68118e-08
3.80227e-08
2.55151e-08
1.71584e-08
1.15591e-08
7.79887e-09
5.26929e-09
3.56503e-09
2.41536e-09
1.63898e-09
1.1142e-09
7.59182e-10
5.18823e-10
3.55993e-10
2.4564e-10
1.70853e-10
1.20262e-10
8.61153e-11
6.31608e-11
4.82825e-11
3.87372e-11
3.26686e-11
3.10929e-11
3.16394e-11
3.37973e-11
3.85106e-11
4.70739e-11
6.00087e-11
7.97185e-11
1.07746e-10
1.48864e-10
2.08527e-10
2.95398e-10
4.21088e-10
6.03513e-10
8.76387e-10
1.2559e-09
2.01234e-09
2.9498e-09
6.83218e-09
1.39888e-08
5.15193e-08
1.3688e-07
4.84501e-07
1.02696e-06
3.55874e-06
4.18418e-06
1.33424e-05
1.33253e-05
1.89699e-05
2.22953e-05
3.12387e-05
3.53886e-05
4.52262e-05
5.48671e-05
9.2763e-05
9.19312e-05
0.000179166
0.000151929
0.00028168
0.000196106
0.000244787
0.000132336
0.000113461
0.000122369
0.000265398
0.000243852
0.000229582
0.000238512
0.000232597
0.000165105
9.12229e-05
7.22991e-05
0.000102094
0.000152157
0.000153518
0.000134362
0.000113787
0.000101811
8.89926e-05
8.07101e-05
7.32348e-05
6.2931e-05
5.1213e-05
3.94867e-05
2.89027e-05
2.0268e-05
1.37438e-05
9.08663e-06
5.90829e-06
3.8114e-06
2.45681e-06
1.58933e-06
1.03344e-06
6.75297e-07
4.43078e-07
2.9178e-07
1.92842e-07
1.27914e-07
8.51399e-08
5.68479e-08
3.80616e-08
2.5543e-08
1.71759e-08
1.15693e-08
7.80457e-09
5.27226e-09
3.56642e-09
2.41586e-09
1.63899e-09
1.11394e-09
7.58781e-10
5.18347e-10
3.55478e-10
2.45105e-10
1.7031e-10
1.19715e-10
8.55675e-11
6.26148e-11
4.7736e-11
3.81883e-11
3.21229e-11
3.05514e-11
3.10993e-11
3.32597e-11
3.79752e-11
4.64949e-11
5.94585e-11
7.91232e-11
1.07048e-10
1.48083e-10
2.07277e-10
2.9433e-10
4.17037e-10
6.06298e-10
8.55851e-10
1.29527e-09
1.89312e-09
3.34691e-09
6.90261e-09
2.00397e-08
6.31612e-08
2.25971e-07
6.25144e-07
1.84157e-06
3.61726e-06
6.91871e-06
8.20217e-06
1.21899e-05
1.47982e-05
1.71145e-05
3.6897e-05
3.41013e-05
4.11375e-05
5.19331e-05
6.3779e-05
8.26046e-05
9.56668e-05
0.000120519
0.000172262
0.000181079
0.000216217
0.000194351
0.000190449
0.000144446
0.000112318
9.77187e-05
8.84131e-05
9.52313e-05
9.03297e-05
6.60929e-05
4.3359e-05
4.35638e-05
8.04902e-05
9.38064e-05
8.97591e-05
7.47126e-05
7.28263e-05
8.12976e-05
8.42462e-05
8.03884e-05
7.46344e-05
6.36173e-05
5.10071e-05
3.94713e-05
2.91434e-05
2.04622e-05
1.38213e-05
9.08942e-06
5.8773e-06
3.76869e-06
2.41524e-06
1.55572e-06
1.0098e-06
6.60529e-07
4.3485e-07
2.87681e-07
1.91016e-07
1.27193e-07
8.48979e-08
5.67879e-08
3.80597e-08
2.55544e-08
1.71867e-08
1.15767e-08
7.80899e-09
5.27459e-09
3.56748e-09
2.41618e-09
1.63888e-09
1.11359e-09
7.58299e-10
5.17793e-10
3.54886e-10
2.44496e-10
1.69694e-10
1.19096e-10
8.49471e-11
6.19966e-11
4.71164e-11
3.75661e-11
3.15047e-11
2.99371e-11
3.04864e-11
3.26502e-11
3.73699e-11
4.58523e-11
5.88412e-11
7.84498e-11
1.06284e-10
1.47245e-10
2.05953e-10
2.93774e-10
4.12318e-10
6.20262e-10
8.30588e-10
1.45284e-09
1.77133e-09
4.23596e-09
6.68728e-09
2.56215e-08
6.5302e-08
2.66601e-07
6.10788e-07
1.95585e-06
2.7447e-06
7.18578e-06
6.42731e-06
9.15586e-06
1.80569e-05
1.77614e-05
2.614e-05
3.03155e-05
3.05199e-05
3.97112e-05
5.49399e-05
6.74489e-05
0.000115414
0.000118482
0.000212502
0.00019119
0.000237077
0.000216768
0.000205206
0.000163217
2.95359e-05
2.45292e-05
2.04037e-05
2.0987e-05
2.4224e-05
2.79777e-05
2.71896e-05
3.0115e-05
4.022e-05
4.35667e-05
4.48176e-05
4.87168e-05
5.42397e-05
7.11059e-05
8.42362e-05
8.53033e-05
8.14111e-05
6.73629e-05
5.12074e-05
3.75541e-05
2.72592e-05
1.94806e-05
1.34919e-05
9.03948e-06
5.90728e-06
3.80555e-06
2.43916e-06
1.56732e-06
1.01422e-06
6.61703e-07
4.34891e-07
2.87475e-07
1.90844e-07
1.27102e-07
8.48643e-08
5.67845e-08
3.8068e-08
2.55645e-08
1.71949e-08
1.15823e-08
7.81238e-09
5.27642e-09
3.56828e-09
2.41635e-09
1.63867e-09
1.11316e-09
7.57744e-10
5.17174e-10
3.54237e-10
2.43831e-10
1.69022e-10
1.18423e-10
8.42733e-11
6.1325e-11
4.64424e-11
3.68894e-11
3.08312e-11
2.92668e-11
2.98179e-11
3.19862e-11
3.67116e-11
4.51461e-11
5.81807e-11
7.77224e-11
1.05478e-10
1.46368e-10
2.04614e-10
2.93342e-10
4.08063e-10
6.30869e-10
8.10111e-10
1.57062e-09
1.65999e-09
5.36305e-09
6.22867e-09
2.97635e-08
6.47371e-08
2.66967e-07
5.86601e-07
1.68847e-06
2.32103e-06
6.29518e-06
5.34357e-06
8.04627e-06
1.62221e-05
1.745e-05
1.63772e-05
2.41105e-05
2.36146e-05
3.1684e-05
3.37857e-05
5.25001e-05
5.11453e-05
9.79205e-05
0.000105483
0.000169864
0.000177788
0.000204841
0.000227135
0.000198106
6.70146e-06
7.39834e-06
1.03232e-05
9.69441e-06
9.47201e-06
1.43605e-05
2.73235e-05
3.01653e-05
2.96996e-05
2.93195e-05
3.2692e-05
4.57255e-05
5.30368e-05
6.76592e-05
8.98356e-05
9.29677e-05
8.99621e-05
7.38168e-05
5.39111e-05
3.75125e-05
2.54398e-05
1.69394e-05
1.11711e-05
7.36857e-06
4.88843e-06
3.26207e-06
2.18285e-06
1.45921e-06
9.72968e-07
6.47445e-07
4.30484e-07
2.86313e-07
1.90631e-07
1.27119e-07
8.49146e-08
5.6825e-08
3.80946e-08
2.55809e-08
1.72046e-08
1.1588e-08
7.81551e-09
5.278e-09
3.56892e-09
2.41643e-09
1.63842e-09
1.11272e-09
7.5719e-10
5.16558e-10
3.53583e-10
2.43156e-10
1.68337e-10
1.1773e-10
8.35747e-11
6.06254e-11
4.57382e-11
3.61812e-11
3.01249e-11
2.85618e-11
2.91146e-11
3.12874e-11
3.60189e-11
4.43972e-11
5.74983e-11
7.69526e-11
1.04649e-10
1.45447e-10
2.03341e-10
2.92338e-10
4.04744e-10
6.3382e-10
7.96471e-10
1.61543e-09
1.58438e-09
5.65032e-09
5.49405e-09
3.2008e-08
6.11334e-08
2.55863e-07
5.64184e-07
1.40562e-06
2.1536e-06
4.4198e-06
3.92112e-06
7.53784e-06
1.10596e-05
1.65554e-05
1.49886e-05
2.0611e-05
2.04978e-05
2.7718e-05
2.89467e-05
4.42205e-05
4.00806e-05
7.80426e-05
6.84437e-05
0.000134833
0.000119204
0.00016784
0.000200945
0.000199913
6.4738e-06
7.92063e-06
9.58227e-06
1.82067e-05
1.86309e-05
2.36794e-05
3.02786e-05
3.10822e-05
2.88958e-05
2.93522e-05
3.30502e-05
5.75877e-05
7.92392e-05
8.33853e-05
9.53633e-05
0.000101395
9.74214e-05
7.68986e-05
5.48171e-05
3.78061e-05
2.51525e-05
1.63772e-05
1.06123e-05
6.91618e-06
4.55616e-06
3.03539e-06
2.03885e-06
1.37477e-06
9.273e-07
6.24469e-07
4.19624e-07
2.81453e-07
1.88561e-07
1.26279e-07
8.4592e-08
5.67095e-08
3.80574e-08
2.55712e-08
1.72036e-08
1.15889e-08
7.81644e-09
5.27845e-09
3.56893e-09
2.41613e-09
1.63792e-09
1.11209e-09
7.56493e-10
5.15826e-10
3.52836e-10
2.42408e-10
1.67593e-10
1.16988e-10
8.28378e-11
5.98964e-11
4.50107e-11
3.54545e-11
2.94043e-11
2.78451e-11
2.84e-11
3.05784e-11
3.53174e-11
4.36342e-11
5.68081e-11
7.61661e-11
1.03821e-10
1.44487e-10
2.02175e-10
2.90603e-10
4.02439e-10
6.285e-10
7.90263e-10
1.58773e-09
1.54775e-09
5.36481e-09
4.88804e-09
3.02253e-08
5.28024e-08
2.31798e-07
5.06006e-07
1.29691e-06
2.05715e-06
3.65199e-06
3.41907e-06
6.28127e-06
7.65262e-06
1.41845e-05
1.34391e-05
1.75145e-05
1.75684e-05
2.44857e-05
2.44953e-05
3.59176e-05
3.33142e-05
6.178e-05
5.20871e-05
0.000106957
9.42193e-05
0.000141196
0.000149932
0.000187788
4.70142e-06
8.91805e-06
9.66147e-06
1.19097e-05
2.14951e-05
2.32885e-05
2.88036e-05
3.69024e-05
4.04681e-05
4.55902e-05
5.70556e-05
6.70372e-05
0.000106509
0.000121358
0.000120734
0.000115802
0.000100158
7.3055e-05
5.10264e-05
3.54127e-05
2.48304e-05
1.7335e-05
1.17958e-05
7.81363e-06
5.10261e-06
3.32629e-06
2.17925e-06
1.43732e-06
9.53243e-07
6.34514e-07
4.23244e-07
2.82655e-07
1.88922e-07
1.26375e-07
8.4614e-08
5.67148e-08
3.80604e-08
2.55741e-08
1.72062e-08
1.15908e-08
7.81761e-09
5.27903e-09
3.56908e-09
2.41599e-09
1.6376e-09
1.11168e-09
7.56042e-10
5.1538e-10
3.52435e-10
2.42087e-10
1.67383e-10
1.16941e-10
8.30177e-11
6.03789e-11
4.58571e-11
3.66974e-11
3.10963e-11
2.98146e-11
3.04051e-11
3.25687e-11
3.71915e-11
4.52917e-11
5.81843e-11
7.71367e-11
1.04425e-10
1.44664e-10
2.02036e-10
2.89021e-10
4.01615e-10
6.16672e-10
7.90825e-10
1.50266e-09
1.5494e-09
4.74376e-09
4.5748e-09
2.36413e-08
4.25313e-08
1.83311e-07
4.10585e-07
1.13607e-06
1.88331e-06
3.70243e-06
3.32924e-06
4.42111e-06
6.8776e-06
1.14332e-05
1.33865e-05
1.59591e-05
1.68489e-05
2.11357e-05
2.34783e-05
3.24113e-05
3.09615e-05
5.02496e-05
4.37024e-05
8.26782e-05
7.65479e-05
0.000124809
0.000126917
0.000156794
9.00364e-06
1.00842e-05
1.44616e-05
1.56629e-05
2.04808e-05
3.54994e-05
5.17376e-05
6.57483e-05
7.27796e-05
7.88947e-05
0.000100092
0.000117055
0.000132015
0.000152386
0.00014731
0.000121607
9.98266e-05
8.15412e-05
5.98065e-05
3.97566e-05
2.53604e-05
1.60933e-05
1.0307e-05
6.71557e-06
4.45649e-06
2.99635e-06
2.02674e-06
1.37181e-06
9.26604e-07
6.24105e-07
4.1929e-07
2.81186e-07
1.88391e-07
1.26194e-07
8.45633e-08
5.67113e-08
3.80729e-08
2.5591e-08
1.72235e-08
1.16076e-08
7.8342e-09
5.29608e-09
3.58754e-09
2.43703e-09
1.66265e-09
1.14248e-09
7.94871e-10
5.64817e-10
4.15414e-10
3.20826e-10
2.63127e-10
2.29682e-10
2.11031e-10
2.00945e-10
1.95728e-10
1.93046e-10
1.92361e-10
1.92656e-10
1.93664e-10
1.95888e-10
1.99613e-10
2.05436e-10
2.14067e-10
2.26715e-10
2.45504e-10
2.75431e-10
3.16167e-10
3.86724e-10
4.81604e-10
6.65249e-10
8.46612e-10
1.41804e-09
1.6117e-09
3.86807e-09
4.42947e-09
1.54714e-08
3.25577e-08
1.19561e-07
2.91453e-07
7.54617e-07
1.36099e-06
3.13103e-06
2.96086e-06
3.36882e-06
1.0162e-05
9.55905e-06
1.68933e-05
1.67817e-05
1.99824e-05
1.98069e-05
2.92257e-05
3.09046e-05
3.10004e-05
3.98555e-05
3.96907e-05
6.64275e-05
6.51813e-05
0.000104588
0.000106351
0.00012893
3.41747e-05
3.64322e-05
4.34361e-05
4.81892e-05
5.64206e-05
7.80752e-05
0.000105705
0.00011178
0.000116905
0.000128796
0.000157784
0.00018659
0.000185243
0.000169074
0.000158447
0.000145383
0.000117825
8.8018e-05
6.35377e-05
4.50664e-05
3.10761e-05
2.07329e-05
1.34878e-05
8.66244e-06
5.55126e-06
3.57406e-06
2.31865e-06
1.51589e-06
9.97461e-07
6.59533e-07
4.37679e-07
2.91305e-07
1.94406e-07
1.30106e-07
8.73611e-08
5.89047e-08
3.99429e-08
2.7307e-08
1.88996e-08
1.33294e-08
9.66947e-09
7.29558e-09
5.78011e-09
4.82356e-09
4.22005e-09
3.83082e-09
3.5724e-09
3.38872e-09
3.2564e-09
3.14863e-09
3.07089e-09
3.01705e-09
2.98036e-09
2.95599e-09
2.9398e-09
2.92889e-09
2.92185e-09
2.91861e-09
2.91649e-09
2.91573e-09
2.91624e-09
2.91819e-09
2.92302e-09
2.93108e-09
2.94357e-09
2.96389e-09
2.99234e-09
3.04227e-09
3.0979e-09
3.22241e-09
3.33094e-09
3.64977e-09
3.86367e-09
4.83861e-09
6.07031e-09
1.15296e-08
2.71e-08
7.32395e-08
1.97317e-07
4.11928e-07
7.93753e-07
1.6023e-06
2.83075e-06
4.06235e-06
1.56559e-05
1.06198e-05
2.36621e-05
2.00003e-05
2.70787e-05
2.12001e-05
3.87128e-05
3.28056e-05
3.69468e-05
3.9127e-05
4.19765e-05
6.06801e-05
6.08083e-05
8.91877e-05
9.11805e-05
0.000106015
0.000122552
0.000122552
0.00012384
0.000129393
0.000144665
0.000160763
0.000178631
0.000192111
0.000199784
0.000219839
0.000250066
0.000248331
0.000239382
0.000219133
0.000194777
0.000164986
0.000130504
9.80693e-05
7.15237e-05
5.0898e-05
3.54067e-05
2.41785e-05
1.62793e-05
1.08513e-05
7.18561e-06
4.74125e-06
3.1266e-06
2.06717e-06
1.37502e-06
9.23655e-07
6.29227e-07
4.36743e-07
3.10428e-07
2.27109e-07
1.71766e-07
1.34663e-07
1.09472e-07
9.20792e-08
7.9832e-08
7.10172e-08
6.45386e-08
5.96835e-08
5.59868e-08
5.31241e-08
5.08833e-08
4.91041e-08
4.76881e-08
4.65213e-08
4.55707e-08
4.47657e-08
4.41841e-08
4.3779e-08
4.34988e-08
4.3306e-08
4.31717e-08
4.30773e-08
4.30075e-08
4.29545e-08
4.29133e-08
4.28783e-08
4.28402e-08
4.28024e-08
4.27614e-08
4.27149e-08
4.26645e-08
4.26116e-08
4.25557e-08
4.25022e-08
4.24501e-08
4.24179e-08
4.23838e-08
4.24021e-08
4.24747e-08
4.27246e-08
4.3873e-08
4.64238e-08
5.92186e-08
8.70358e-08
1.80078e-07
2.92652e-07
5.72451e-07
1.01762e-06
3.60298e-06
6.1768e-06
2.4258e-05
1.38659e-05
3.50417e-05
2.72259e-05
3.73769e-05
2.73837e-05
5.3452e-05
4.05609e-05
4.787e-05
4.29712e-05
4.93464e-05
6.35377e-05
6.18002e-05
7.70365e-05
7.5536e-05
8.12399e-05
0.000277887
0.000273633
0.000264085
0.000261372
0.000269145
0.000284702
0.000284787
0.000287258
0.000297792
0.000322823
0.000333428
0.000329613
0.000311003
0.000272227
0.000226735
0.000181747
0.000143238
0.000111998
8.62685e-05
6.50431e-05
4.79664e-05
3.47199e-05
2.48274e-05
1.76504e-05
1.25477e-05
8.97056e-06
6.48678e-06
4.77209e-06
3.58999e-06
2.77208e-06
2.2011e-06
1.79706e-06
1.50643e-06
1.29374e-06
1.13543e-06
1.01587e-06
9.24464e-07
8.53815e-07
7.98772e-07
7.5555e-07
7.21446e-07
6.94393e-07
6.72855e-07
6.55593e-07
6.41673e-07
6.30419e-07
6.21237e-07
6.137e-07
6.0726e-07
6.02485e-07
5.98932e-07
5.96368e-07
5.94536e-07
5.93211e-07
5.92233e-07
5.91489e-07
5.90886e-07
5.9038e-07
5.89949e-07
5.89521e-07
5.89034e-07
5.88508e-07
5.87899e-07
5.87188e-07
5.86367e-07
5.8541e-07
5.84274e-07
5.82954e-07
5.81376e-07
5.79631e-07
5.77398e-07
5.7525e-07
5.72036e-07
5.69618e-07
5.66145e-07
5.65021e-07
5.71142e-07
5.91388e-07
6.72475e-07
7.50451e-07
1.42247e-06
1.38347e-06
7.90869e-06
9.79778e-06
3.70394e-05
2.05823e-05
5.32184e-05
4.02922e-05
5.35519e-05
4.17409e-05
7.44085e-05
5.38573e-05
6.19613e-05
5.39097e-05
6.9895e-05
7.1957e-05
6.52406e-05
6.52364e-05
6.48979e-05
7.60153e-05
0.000445284
0.000428457
0.000404713
0.000385237
0.000383967
0.000386497
0.000383975
0.000375985
0.000378987
0.000396167
0.000393768
0.000379362
0.000343774
0.000293078
0.000242597
0.000198393
0.000161029
0.00013023
0.000105016
8.43988e-05
6.75267e-05
5.38647e-05
4.30212e-05
3.46068e-05
2.81871e-05
2.33179e-05
1.96178e-05
1.68024e-05
1.46523e-05
1.29999e-05
1.17205e-05
1.07221e-05
9.93742e-06
9.31715e-06
8.82415e-06
8.43102e-06
8.11674e-06
7.86479e-06
7.66256e-06
7.49973e-06
7.36877e-06
7.26311e-06
7.17791e-06
7.10892e-06
7.05269e-06
7.00691e-06
6.9699e-06
6.93987e-06
6.91578e-06
6.8969e-06
6.88192e-06
6.87029e-06
6.86139e-06
6.85434e-06
6.84862e-06
6.84376e-06
6.83942e-06
6.83546e-06
6.8318e-06
6.82787e-06
6.8232e-06
6.81798e-06
6.81191e-06
6.8048e-06
6.79651e-06
6.78675e-06
6.77508e-06
6.76141e-06
6.74493e-06
6.72653e-06
6.7025e-06
6.6801e-06
6.642e-06
6.62056e-06
6.55866e-06
6.54515e-06
6.46789e-06
6.47778e-06
6.49967e-06
6.51154e-06
8.54825e-06
6.98297e-06
2.1167e-05
1.76285e-05
5.77535e-05
3.52413e-05
8.22342e-05
6.22164e-05
7.99183e-05
6.69227e-05
0.000104118
7.38601e-05
8.41283e-05
7.53626e-05
9.31471e-05
8.72536e-05
7.15411e-05
6.42815e-05
6.63992e-05
8.20112e-05
0.00057899
0.000537028
0.000502753
0.000482325
0.000462832
0.000439652
0.000432684
0.000434942
0.000434983
0.000428736
0.000411668
0.000381324
0.000344761
0.000301787
0.000257516
0.000219189
0.000188253
0.000163812
0.000144444
0.00012848
0.00011484
0.000103108
9.3137e-05
8.47836e-05
7.78615e-05
7.21703e-05
6.75171e-05
6.37204e-05
6.0625e-05
5.81016e-05
5.60456e-05
5.43703e-05
5.30061e-05
5.18958e-05
5.09921e-05
5.02571e-05
4.966e-05
4.91748e-05
4.8781e-05
4.84607e-05
4.8201e-05
4.79899e-05
4.78189e-05
4.768e-05
4.75667e-05
4.74744e-05
4.73997e-05
4.73392e-05
4.72886e-05
4.72471e-05
4.72121e-05
4.71829e-05
4.71592e-05
4.7139e-05
4.71211e-05
4.71043e-05
4.7088e-05
4.70721e-05
4.70563e-05
4.70382e-05
4.70164e-05
4.69913e-05
4.69619e-05
4.69276e-05
4.68873e-05
4.68396e-05
4.67828e-05
4.67159e-05
4.66359e-05
4.65448e-05
4.64302e-05
4.63148e-05
4.61412e-05
4.60215e-05
4.5744e-05
4.56409e-05
4.52971e-05
4.51276e-05
4.50781e-05
4.44928e-05
4.79066e-05
4.35473e-05
6.22322e-05
4.88465e-05
0.000100289
7.01918e-05
0.000133299
9.85823e-05
0.000126268
0.000104597
0.000148356
0.000106649
0.000122299
0.000109046
0.000131638
0.000115023
9.13315e-05
7.86352e-05
8.85731e-05
9.3215e-05
0.000667773
0.000599997
0.000547206
0.00051367
0.00049267
0.000473139
0.000458699
0.000455065
0.000449875
0.000432084
0.000403127
0.000373764
0.000343242
0.000312696
0.000284702
0.000262271
0.000246916
0.00023595
0.000226779
0.000218498
0.000210885
0.000203848
0.000197393
0.000191566
0.000186392
0.000181861
0.000177952
0.000174621
0.000171814
0.000169468
0.000167518
0.000165905
0.000164577
0.000163485
0.000162589
0.000161856
0.000161257
0.000160768
0.000160368
0.000160043
0.000159777
0.000159561
0.000159385
0.000159241
0.000159124
0.000159027
0.000158949
0.000158885
0.000158831
0.000158785
0.000158746
0.000158714
0.000158687
0.000158662
0.00015864
0.000158617
0.000158595
0.000158572
0.000158547
0.000158518
0.000158483
0.000158442
0.000158395
0.000158339
0.000158274
0.000158197
0.000158105
0.000157998
0.00015787
0.000157726
0.000157544
0.000157367
0.00015709
0.000156922
0.00015648
0.00015638
0.000155764
0.000155861
0.000155499
0.000155715
0.000157375
0.000155393
0.000166281
0.000147246
0.000191685
0.000148278
0.000223655
0.000165462
0.000205063
0.00016966
0.000216325
0.00016481
0.000194493
0.000170666
0.000201991
0.000170999
0.000148267
0.000144199
0.000163872
0.000171029
0.000689885
0.000601189
0.000549981
0.000518981
0.000497765
0.00048049
0.000463786
0.000440091
0.000410385
0.000382396
0.000364255
0.000353391
0.000344195
0.000337462
0.00033309
0.000331044
0.000330385
0.000329711
0.000328371
0.000326445
0.000324096
0.000321506
0.000318879
0.000316362
0.000314031
0.000311927
0.000310068
0.000308456
0.000307076
0.00030591
0.000304932
0.000304118
0.000303444
0.00030289
0.000302435
0.000302063
0.000301759
0.000301512
0.000301312
0.000301149
0.000301018
0.000300912
0.000300826
0.000300757
0.000300701
0.000300657
0.000300621
0.000300593
0.00030057
0.000300552
0.000300538
0.000300529
0.000300521
0.000300515
0.000300515
0.000300515
0.000300517
0.000300519
0.000300524
0.00030053
0.000300538
0.00030055
0.000300564
0.000300582
0.000300605
0.000300633
0.000300667
0.000300711
0.00030076
0.000300833
0.000300895
0.000301039
0.0003011
0.000301414
0.000301365
0.00030219
0.000301456
0.000304218
0.000300693
0.000310015
0.000298819
0.000323664
0.000301386
0.000334488
0.000316746
0.000294689
0.000339734
0.000283105
0.000329591
0.000298361
0.000334481
0.000284761
0.000338511
0.000317787
0.000352959
0.000316784
0.000317842
0.000342562
0.000429745
0.000451346
0.000566722
0.000507088
0.000475663
0.000448765
0.000414171
0.000368926
0.000316695
0.000264722
0.000228998
0.000216656
0.000222515
0.000234897
0.000247581
0.000260086
0.000275014
0.000291926
0.000308271
0.000321823
0.000332077
0.000339468
0.000344693
0.000348373
0.000350981
0.000352844
0.000354175
0.000355131
0.000355826
0.000356338
0.000356724
0.000357019
0.000357251
0.000357435
0.000357585
0.000357708
0.000357811
0.000357898
0.000357971
0.000358034
0.000358089
0.000358136
0.000358177
0.000358212
0.000358244
0.000358273
0.000358299
0.000358323
0.000358347
0.000358369
0.000358392
0.000358417
0.000358442
0.00035847
0.000358501
0.000358537
0.000358579
0.000358628
0.000358686
0.000358755
0.000358837
0.000358935
0.000359052
0.000359193
0.000359361
0.000359562
0.000359803
0.000360091
0.000360435
0.000360848
0.000361337
0.00036193
0.00036261
0.000363476
0.00036435
0.000365733
0.000366546
0.000369258
0.000368836
0.000375289
0.000368496
0.000389129
0.000359651
0.000420852
0.000343181
0.000471411
0.000338429
0.000532337
0.000389474
0.000538848
0.000470983
0.000554358
0.000489603
0.000541494
0.000564836
0.000623894
0.000610449
0.000631296
0.00068169
0.000849166
0.000876545
0.000922667
0.000102226
0.000203444
0.00030367
0.000401189
0.000461188
0.000483588
0.000452662
0.000382036
0.000299679
0.000231906
0.000184124
0.000160962
0.000161107
0.000181695
0.000212322
0.000245201
0.000275097
0.000299361
0.000317886
0.000331407
0.000340915
0.000347412
0.000351752
0.000354594
0.000356405
0.000357535
0.000358225
0.000358628
0.000358846
0.000358949
0.000358981
0.000358969
0.000358936
0.000358888
0.000358835
0.000358781
0.00035873
0.000358681
0.000358637
0.000358596
0.00035856
0.000358527
0.000358497
0.00035847
0.000358445
0.000358421
0.000358398
0.000358375
0.000358352
0.000358328
0.000358302
0.000358273
0.000358241
0.000358205
0.000358162
0.000358112
0.000358051
0.00035798
0.000357897
0.000357797
0.000357678
0.000357533
0.00035736
0.000357151
0.0003569
0.000356597
0.000356232
0.000355791
0.000355258
0.000354616
0.00035384
0.000352904
0.000351774
0.000350411
0.000348771
0.000346802
0.000344445
0.000341637
0.000338312
0.000334399
0.000329827
0.000324527
0.000318425
0.000311446
0.000303499
0.000294486
0.000284288
0.000272758
0.000259751
0.000245191
0.000229096
0.000211635
0.00019327
0.00017461
0.000156537
0.000139513
0.000123223
0.00010585
8.04827e-05
4.29781e-05
0.000117103
0.000206595
0.000261125
0.000280244
0.000252923
0.000198336
0.000144268
0.000112153
0.000103608
9.83566e-05
9.46409e-05
9.09779e-05
9.22244e-05
0.000100587
0.000116146
0.000136995
0.000159993
0.000183717
0.000205792
0.000224953
0.000240908
0.0002538
0.000264013
0.000272015
0.000278261
0.000283112
0.000286869
0.00028978
0.000292039
0.0002938
0.000295179
0.000296263
0.00029712
0.000297798
0.000298336
0.000298765
0.000299106
0.000299379
0.000299596
0.000299771
0.00029991
0.000300022
0.000300111
0.000300183
0.00030024
0.000300286
0.000300322
0.000300351
0.000300374
0.000300391
0.000300405
0.000300416
0.000300423
0.000300426
0.000300429
0.000300431
0.00030043
0.000300427
0.000300422
0.000300414
0.000300404
0.000300392
0.000300376
0.000300356
0.000300332
0.000300303
0.000300268
0.000300226
0.000300174
0.000300112
0.000300036
0.000299944
0.000299831
0.000299693
0.000299521
0.000299306
0.00029903
0.000298673
0.000298207
0.000297599
0.000296805
0.000295779
0.000294464
0.000292804
0.000290719
0.000288141
0.000284927
0.000281112
0.000276564
0.000271284
0.000264765
0.000257146
0.000247286
0.000235649
0.000220043
0.000201153
0.000175928
0.000145297
0.000105926
5.92759e-05
0.000113479
0.000159929
0.000167909
0.00015075
0.000125446
0.000114315
0.00011569
0.000120061
0.00012184
0.00011309
0.000103712
8.78979e-05
7.36729e-05
6.17195e-05
5.37399e-05
4.96403e-05
5.0405e-05
5.64416e-05
6.7291e-05
7.86027e-05
8.98219e-05
0.000100442
0.00011007
0.000118509
0.000125733
0.00013181
0.000136851
0.000140995
0.000144381
0.000147129
0.000149352
0.000151146
0.000152593
0.000153759
0.000154699
0.000155457
0.000156068
0.000156561
0.000156958
0.00015728
0.000157539
0.000157749
0.00015792
0.000158058
0.00015817
0.000158262
0.000158336
0.000158396
0.000158448
0.000158491
0.000158525
0.000158557
0.000158586
0.000158608
0.00015863
0.000158656
0.000158685