/*--------------------------------*- C++ -*----------------------------------*\
| =========                 |                                                 |
| \\      /  F ield         | OpenFOAM: The Open Source CFD Toolbox           |
|  \\    /   O peration     | Version:  2.4.0                                 |
|   \\  /    A nd           | Web:      www.OpenFOAM.org                      |
|    \\/     M anipulation  |                                                 |
\*---------------------------------------------------------------------------*/
FoamFile
{
    version     2.0;
    format      ascii;
    class       volScalarField;
    location    "0.013";
    object      epsilon;
}
// * * * * * * * * * * * * * * * * * * * * * * * * * * * * * * * * * * * * * //

dimensions      [0 2 -3 0 0 0 0];

internalField   nonuniform List<scalar> 
17600
(
290.779
447.672
583.293
681.429
740.828
768.061
771.976
760.693
740.518
715.895
689.751
663.914
639.447
616.898
596.456
578.024
561.21
545.153
528.483
504.954
39.5488
60.6404
78.396
92.335
102.28
108.917
113.255
116.235
118.593
120.851
123.351
126.291
129.762
133.776
138.284
143.192
148.395
153.836
159.801
170.114
18.0559
21.7882
25.1118
27.7891
29.736
31.0342
31.8561
32.3936
32.8221
33.2858
33.8969
34.7398
35.8778
37.3596
39.2267
41.5246
44.3265
47.8054
52.5214
61.1697
14.7345
15.1157
15.6206
16.0697
16.3751
16.5163
16.514
16.4083
16.2447
16.0673
15.9151
15.822
15.8173
15.9278
16.1816
16.6145
17.2853
18.3194
20.0739
23.7871
14.0476
13.5192
13.1673
12.9029
12.6639
12.4158
12.1456
11.8536
11.5474
11.2378
10.9367
10.6556
10.4056
10.1972
10.0421
9.95531
9.96246
10.1191
10.5826
11.8475
13.8917
13.0886
12.4266
11.8709
11.3882
10.9523
10.546
10.1596
9.78853
9.43185
9.09066
8.76722
8.46444
8.18572
7.93519
7.71875
7.54684
7.44283
7.47234
7.83095
13.8556
12.9703
12.1959
11.5177
10.9188
10.383
9.89683
9.44998
9.03511
8.6473
8.28345
7.94182
7.62157
7.32264
7.0457
6.79252
6.56719
6.37997
6.25992
6.28995
13.8471
12.9381
12.125
11.3979
10.7463
10.1596
9.62812
9.14337
8.69832
8.28735
7.90608
7.55122
7.2203
6.91158
6.62402
6.35736
6.11273
5.89459
5.71664
5.61724
13.845
12.9294
12.1037
11.3584
10.6846
10.074
9.51898
9.01254
8.54856
8.12176
7.72768
7.36261
7.02351
6.70793
6.414
6.14045
5.88695
5.65513
5.45168
5.29582
13.8445
12.9269
12.0973
11.3456
10.6631
10.0422
9.47605
8.95839
8.48376
8.04732
7.64483
7.27262
6.92753
6.6069
6.30849
6.03056
5.77202
5.53311
5.31706
5.13418
13.8443
12.9262
12.0953
11.3414
10.6557
10.0307
9.45965
8.93668
8.45662
8.01491
7.6075
7.23085
6.88183
6.55775
6.25625
5.9754
5.71374
5.47077
5.24797
5.05121
13.8443
12.9259
12.0946
11.3399
10.6531
10.0265
9.45344
8.92814
8.44555
8.00121
7.5912
7.21206
6.86073
6.53452
6.23108
5.94838
5.6848
5.43945
5.21292
5.0087
13.8442
12.9257
12.0942
11.3393
10.6521
10.0248
9.451
8.92475
8.44105
7.9955
7.58423
7.20382
6.85125
6.52387
6.21932
5.93555
5.67086
5.42418
5.19562
4.98734
13.8442
12.9256
12.094
11.3389
10.6515
10.0241
9.44994
8.9233
8.43914
7.99307
7.58123
7.20022
6.84706
6.51909
6.21397
5.92964
5.66438
5.41703
5.18744
4.97697
13.8441
12.9255
12.0938
11.3387
10.6512
10.0237
9.44938
8.92258
8.43824
7.99195
7.57986
7.1986
6.84517
6.51694
6.21156
5.92699
5.66149
5.41385
5.18381
4.9722
13.8441
12.9254
12.0937
11.3385
10.651
10.0234
9.44903
8.92216
8.43774
7.99136
7.57918
7.19781
6.84428
6.51594
6.21046
5.92581
5.66025
5.41255
5.18237
4.9702
13.8441
12.9254
12.0936
11.3384
10.6508
10.0232
9.44878
8.92188
8.43742
7.99101
7.57879
7.19738
6.84381
6.51544
6.20995
5.92529
5.65976
5.4121
5.18195
4.96954
13.8441
12.9253
12.0935
11.3383
10.6507
10.023
9.44861
8.92169
8.43721
7.99078
7.57854
7.19712
6.84354
6.51518
6.2097
5.92508
5.65961
5.41204
5.182
4.96951
13.8441
12.9253
12.0935
11.3382
10.6506
10.0229
9.4485
8.92157
8.43708
7.99064
7.5784
7.19698
6.8434
6.51505
6.2096
5.92503
5.65964
5.41218
5.18226
4.96976
13.8441
12.9253
12.0934
11.3382
10.6505
10.0229
9.44845
8.92151
8.43702
7.99058
7.57833
7.19692
6.84335
6.51501
6.2096
5.92508
5.65977
5.41242
5.18264
4.97017
13.8441
12.9253
12.0934
11.3382
10.6505
10.0229
9.44845
8.92151
8.43702
7.99058
7.57834
7.19694
6.84338
6.51506
6.20968
5.92521
5.65998
5.41273
5.18308
4.97065
13.8441
12.9253
12.0935
11.3382
10.6506
10.0229
9.44851
8.92158
8.43709
7.99066
7.57843
7.19703
6.84349
6.51519
6.20984
5.92542
5.66027
5.41312
5.18359
4.97119
13.8441
12.9253
12.0935
11.3383
10.6507
10.023
9.44862
8.9217
8.43723
7.99081
7.57859
7.19721
6.84369
6.51542
6.2101
5.92573
5.66066
5.41359
5.18416
4.97179
13.8441
12.9254
12.0936
11.3384
10.6508
10.0232
9.44879
8.9219
8.43745
7.99105
7.57886
7.1975
6.84401
6.51577
6.21049
5.92619
5.66118
5.41421
5.18487
4.97251
13.8441
12.9254
12.0937
11.3385
10.651
10.0234
9.44904
8.92218
8.43777
7.99141
7.57927
7.19796
6.84453
6.51635
6.21114
5.92691
5.662
5.41511
5.18585
4.97349
13.8441
12.9255
12.0938
11.3387
10.6512
10.0237
9.44939
8.92261
8.43828
7.99201
7.57997
7.19878
6.84547
6.51742
6.21234
5.92824
5.66345
5.41668
5.1875
4.97511
13.8442
12.9256
12.094
11.3389
10.6515
10.0241
9.44995
8.92332
8.43918
7.99314
7.58135
7.20042
6.84738
6.51961
6.2148
5.93094
5.66636
5.41975
5.19067
4.97824
13.8442
12.9257
12.0942
11.3393
10.6521
10.0249
9.45102
8.92478
8.4411
7.99558
7.58435
7.20402
6.85157
6.52437
6.22009
5.9367
5.67249
5.42615
5.1972
4.9847
13.8443
12.9259
12.0946
11.3399
10.6531
10.0265
9.45345
8.92817
8.4456
8.00129
7.59132
7.21224
6.86099
6.53491
6.23161
5.94904
5.68546
5.43953
5.21075
4.99811
13.8443
12.9262
12.0953
11.3414
10.6557
10.0307
9.45966
8.9367
8.45667
8.01497
7.60758
7.23095
6.88195
6.55784
6.25622
5.97501
5.71236
5.46702
5.23841
5.02551
13.8445
12.9269
12.0973
11.3456
10.6631
10.0423
9.47607
8.95841
8.48378
8.04734
7.64483
7.27256
6.92734
6.60641
6.30737
6.02815
5.76691
5.52224
5.29374
5.08034
13.845
12.9294
12.1037
11.3584
10.6846
10.074
9.51899
9.01255
8.54855
8.1217
7.72752
7.36224
7.02274
6.70637
6.41091
6.13439
5.87503
5.63116
5.40277
5.18876
13.8471
12.9381
12.125
11.3979
10.7463
10.1596
9.62811
9.14334
8.69823
8.28713
7.90562
7.55028
7.21847
6.90808
6.61734
6.34461
6.08824
5.84599
5.61853
5.40472
13.8556
12.9703
12.1959
11.5177
10.9188
10.383
9.89679
9.44988
9.03487
8.64678
8.28243
7.93983
7.61779
7.31549
7.03218
6.76686
6.51794
6.28263
6.06036
5.85183
13.8917
13.0886
12.4266
11.871
11.3882
10.9523
10.5459
10.1593
9.788
9.43077
9.08853
8.76315
8.4567
8.17104
7.90729
7.66537
7.44343
7.23687
7.04014
6.86044
14.0476
13.5192
13.1673
12.9029
12.6639
12.4157
12.1454
11.8531
11.5462
11.2355
10.9321
10.6468
10.3887
10.1648
9.97962
9.83437
9.72553
9.64261
9.56403
9.51735
14.7345
15.1158
15.6207
16.0697
16.3751
16.5161
16.5134
16.407
16.242
16.0617
15.9042
15.8008
15.7763
15.8487
16.0289
16.3187
16.7087
17.1708
17.6591
18.1817
18.0559
21.7883
25.1119
27.7892
29.736
31.0338
31.8546
32.3903
32.8152
33.272
33.8701
34.6888
35.7816
37.1792
38.89
40.8969
43.1554
45.5785
48.0481
50.4507
39.5489
60.6408
78.3965
92.3356
102.28
108.917
113.253
116.23
118.582
120.831
123.315
126.227
129.654
133.596
137.989
142.716
147.633
152.568
157.373
161.593
290.779
447.673
583.295
681.433
740.835
768.073
771.998
760.734
740.593
716.028
689.99
664.336
640.192
618.21
598.759
582.064
568.298
557.709
550.503
547.456
642.571
770.931
855.445
881.349
848.619
773.905
679.43
583.116
495.388
420.465
358.839
309.267
269.923
238.967
214.759
195.927
181.357
170.158
161.629
155.221
150.504
147.149
144.9
143.564
143
143.1
143.789
145.129
147.171
149.662
152.476
155.45
158.376
160.984
162.939
163.844
163.255
160.73
155.887
148.487
138.519
126.257
112.26
97.3096
82.2828
68.0012
55.1039
43.9799
34.7675
27.404
21.6965
17.3892
14.2137
11.9202
10.2927
9.15367
8.36353
7.81623
7.43397
7.16137
6.96006
6.80411
6.67645
6.56608
6.46615
6.37253
6.28285
6.19583
6.11084
6.02767
5.9463
5.86679
5.78928
5.71389
5.64076
5.56999
5.50171
5.43604
5.37312
5.31312
5.25624
5.20273
5.15291
5.10713
5.06582
5.02945
4.99854
4.97361
4.95517
4.94364
4.93932
4.94237
4.9527
4.97072
4.99593
5.02726
5.06336
5.10264
5.14337
5.18381
5.22229
5.25727
5.28743
5.31167
5.32916
5.33931
5.34174
5.3363
5.32302
5.30206
5.27373
5.23839
5.19651
5.14859
5.09513
5.03669
4.97379
4.90697
4.83671
4.76352
4.68784
4.61011
4.53071
4.45002
4.36836
4.28604
4.20334
4.12049
4.03772
3.95522
3.87317
3.7917
3.71095
3.63103
3.55202
3.47401
3.39706
3.32121
3.24651
3.17299
3.10067
3.02958
2.95974
2.89115
2.82385
2.75784
2.69314
2.62977
2.56775
2.50709
2.44778
2.38984
2.33327
2.27804
2.22417
2.17163
2.12041
2.07049
2.02185
1.97449
1.92838
1.88351
1.83987
1.79746
1.75627
1.71632
1.67761
1.64018
1.60406
1.56933
1.53607
1.50441
1.47452
1.44662
1.42102
1.39809
1.37837
1.36252
1.35143
1.34625
1.34847
1.36007
1.38362
1.42261
1.48177
1.56772
1.69007
1.86323
2.10965
2.46576
2.99292
3.79889
5.08221
7.22987
11.0706
18.5347
35.1227
74.8333
199.804
284.27
190.381
226.225
277.719
341.025
406.441
462.054
498.392
511.409
502.79
477.976
443.523
405.19
367.111
331.791
300.467
273.532
250.88
232.149
216.873
204.57
194.788
187.127
181.247
176.866
173.76
171.733
170.662
170.598
171.149
172.112
173.265
174.355
175.082
175.101
174.028
171.459
167.011
160.377
151.396
140.117
126.843
112.132
96.7283
81.4521
67.0648
54.1529
43.0657
33.9153
26.6232
20.9878
16.749
13.6367
11.4005
9.82454
8.73178
7.98297
7.47257
7.12322
6.87987
6.70444
6.57124
6.4634
6.37015
6.28489
6.20371
6.12449
6.04621
5.96848
5.89128
5.8148
5.73927
5.66496
5.59209
5.52087
5.45146
5.38403
5.31867
5.25553
5.19472
5.13638
5.08069
5.02784
4.97809
4.93174
4.88915
4.85072
4.81692
4.78824
4.76516
4.74816
4.73763
4.73387
4.73702
4.74781
4.76588
4.79054
4.82076
4.85526
4.89255
4.93104
4.96914
5.00531
5.03819
5.06656
5.08946
5.10611
5.11599
5.11876
5.11429
5.10258
5.0838
5.0582
5.02612
4.98797
4.9442
4.89527
4.84166
4.78387
4.72236
4.65759
4.59002
4.52005
4.44807
4.37446
4.29954
4.22362
4.14699
4.06991
3.9926
3.91526
3.83809
3.76123
3.68485
3.60904
3.53393
3.45961
3.38614
3.31359
3.24201
3.17144
3.10192
3.03348
2.96614
2.89991
2.83483
2.77091
2.70817
2.64662
2.58629
2.52718
2.46932
2.4127
2.35733
2.30322
2.25035
2.19872
2.14832
2.09914
2.05116
2.00439
1.9588
1.91439
1.87114
1.82905
1.78813
1.74838
1.70981
1.67246
1.63637
1.60159
1.56822
1.53638
1.50622
1.47797
1.45191
1.42843
1.40803
1.39138
1.37936
1.3731
1.37413
1.38441
1.40658
1.44416
1.50196
1.58675
1.7083
1.88128
2.12864
2.48774
3.02194
3.8434
5.1604
7.38207
11.3869
19.2365
36.6944
78.9576
202.232
272.771
66.6987
76.192
91.3081
113.902
144.681
182.51
224.352
265.823
302.278
330.03
347.168
353.702
351.128
341.725
327.907
311.796
295.033
278.756
263.676
250.175
238.407
228.378
220.006
213.162
207.7
203.453
200.314
197.992
196.042
194.26
192.394
190.152
187.208
183.218
177.841
170.775
161.809
150.87
138.077
123.767
108.479
92.8983
77.7517
63.6955
51.2185
40.593
31.8793
24.971
19.6562
15.6757
12.7666
10.6877
9.23243
8.23222
7.55489
7.10052
6.79593
6.58911
6.44401
6.33633
6.25011
6.17524
6.10556
6.03755
5.9694
5.90037
5.83034
5.75952
5.68828
5.61706
5.54625
5.47621
5.40725
5.33959
5.27344
5.20894
5.14621
5.08536
5.02651
4.96975
4.91524
4.86314
4.81364
4.76699
4.7235
4.68349
4.64738
4.61559
4.58859
4.56684
4.55078
4.5408
4.53726
4.54094
4.55176
4.56935
4.59301
4.62178
4.65443
4.68961
4.72586
4.76171
4.79579
4.82683
4.85373
4.87562
4.89179
4.90175
4.90519
4.90197
4.8921
4.8757
4.85299
4.82428
4.78992
4.7503
4.70586
4.65702
4.60422
4.5479
4.48846
4.42631
4.36184
4.29541
4.22734
4.15795
4.08753
4.01635
3.94463
3.8726
3.80045
3.72836
3.65647
3.58493
3.51386
3.44335
3.37349
3.30437
3.23603
3.16855
3.10194
3.03627
2.97155
2.90781
2.84508
2.78337
2.72271
2.66312
2.60462
2.54722
2.49094
2.43579
2.38178
2.32891
2.27719
2.22661
2.17718
2.12887
2.0817
2.03564
1.9907
1.94686
1.90413
1.86249
1.82196
1.78253
1.74423
1.70708
1.67113
1.63643
1.60306
1.57115
1.54084
1.51234
1.48594
1.46199
1.441
1.42362
1.4107
1.40337
1.40315
1.41201
1.43262
1.46853
1.52466
1.60786
1.72808
1.90024
2.1477
2.50861
3.048
3.88168
5.22598
7.50798
11.6415
19.7709
37.6392
80.7328
192.423
258.759
25.7577
28.9028
33.6846
40.9012
51.4577
66.0958
85.1367
108.274
134.492
162.156
189.284
213.916
234.483
250.048
260.37
265.806
267.112
265.23
261.114
255.612
249.416
243.048
236.873
231.126
225.931
221.324
217.247
213.043
208.614
203.845
198.554
192.518
185.494
177.253
167.611
156.469
143.855
129.957
115.129
99.8745
84.7852
70.4588
57.4071
45.9865
36.3672
28.5454
22.3851
17.6714
14.1581
11.6025
9.78585
8.52229
7.66114
7.0848
6.70461
6.45567
6.29172
6.18063
6.10061
6.03733
5.9817
5.92826
5.87397
5.8174
5.75808
5.69616
5.63209
5.56645
5.49984
5.43283
5.3659
5.29947
5.23385
5.16931
5.10602
5.04414
4.98379
4.92505
4.86801
4.81278
4.75945
4.70816
4.65908
4.61239
4.56834
4.52721
4.48935
4.45512
4.42495
4.39926
4.3785
4.36311
4.35358
4.3507
4.35462
4.36521
4.38209
4.4046
4.43181
4.4626
4.49571
4.52981
4.56356
4.5957
4.62508
4.6507
4.67174
4.68757
4.69772
4.7019
4.69998
4.69193
4.67786
4.65795
4.63248
4.60175
4.56612
4.52596
4.48166
4.43361
4.38221
4.32783
4.27084
4.21159
4.15041
4.08762
4.02349
3.9583
3.89229
3.82569
3.7587
3.6915
3.62426
3.55713
3.49024
3.42369
3.3576
3.29205
3.2271
3.16284
3.0993
3.03653
2.97458
2.91347
2.85323
2.79389
2.73547
2.678
2.62149
2.56596
2.51143
2.45791
2.40543
2.35398
2.30357
2.2542
2.20588
2.15861
2.11238
2.06719
2.02304
1.97992
1.93783
1.89677
1.85674
1.81776
1.77984
1.74301
1.7073
1.67279
1.63953
1.60765
1.57729
1.54866
1.52201
1.4977
1.47621
1.45817
1.44442
1.43607
1.43462
1.44204
1.461
1.4951
1.5493
1.63056
1.74897
1.91964
2.16626
2.52753
3.06965
3.91101
5.27356
7.59633
11.8109
20.0878
37.9372
80.313
178.91
241.951
12.512
13.5731
15.1644
17.5386
21.0536
26.1323
33.1942
42.5648
54.3891
68.5712
84.75
102.315
120.469
138.329
155.045
169.92
182.478
192.499
199.996
205.164
208.312
209.8
209.985
209.185
207.651
205.554
202.732
198.733
193.648
187.503
180.273
171.91
162.367
151.629
139.745
126.857
113.216
99.185
85.2052
71.7528
59.2721
48.1143
38.4958
30.4873
24.0313
18.9794
15.1326
12.2768
10.2072
8.74207
7.72844
7.04303
6.58996
6.29693
6.11082
5.99349
5.91818
5.86659
5.82656
5.79034
5.75331
5.71297
5.66825
5.61898
5.56554
5.50858
5.44888
5.38721
5.3243
5.26076
5.19713
5.13381
5.07113
5.00935
4.94864
4.88913
4.83093
4.77413
4.71879
4.66499
4.61282
4.56239
4.51381
4.46725
4.4229
4.38101
4.34184
4.30573
4.27303
4.24413
4.21945
4.19944
4.18466
4.17589
4.17341
4.17731
4.18745
4.20345
4.22468
4.25029
4.27923
4.31034
4.3424
4.37419
4.40455
4.43244
4.45693
4.47727
4.49287
4.5033
4.50827
4.50765
4.5014
4.48961
4.47242
4.45007
4.42282
4.39099
4.35492
4.31494
4.27142
4.2247
4.17514
4.12306
4.06878
4.01261
3.95484
3.89573
3.83554
3.77448
3.71277
3.6506
3.58815
3.52558
3.46301
3.40059
3.33841
3.27659
3.21519
3.1543
3.09398
3.03428
2.97524
2.91691
2.85933
2.80251
2.74649
2.6913
2.63694
2.58345
2.53085
2.47915
2.42836
2.3785
2.32957
2.28159
2.23456
2.18849
2.14337
2.0992
2.05598
2.01372
1.97241
1.93206
1.89267
1.85426
1.81683
1.78043
1.74508
1.71085
1.6778
1.64605
1.61574
1.58705
1.56025
1.53566
1.51376
1.49515
1.48064
1.47132
1.46867
1.47464
1.49189
1.52405
1.57609
1.65507
1.77114
1.93959
2.18428
2.54419
3.08612
3.92976
5.29974
7.64005
11.8818
20.1657
37.6418
78.0556
164.438
224.456
8.04058
8.39146
8.92575
9.72509
10.913
12.6557
15.1549
18.624
23.254
29.1783
36.4462
45.0098
54.7205
65.3352
76.5333
87.9427
99.1749
109.861
119.685
128.407
135.87
141.999
146.786
150.267
152.493
153.506
153.099
151.092
147.515
142.428
135.917
128.089
119.087
109.096
98.3585
87.1717
75.8809
64.8529
54.4403
44.9414
36.568
29.4286
23.5308
18.8009
15.1105
12.3044
10.2224
8.71411
7.64757
6.91205
6.41839
6.09702
5.895
5.77293
5.70201
5.66166
5.63748
5.61977
5.60226
5.58119
5.5546
5.52175
5.48269
5.43799
5.38847
5.33506
5.27867
5.22018
5.16034
5.09978
5.03903
4.97848
4.91844
4.85916
4.80078
4.74345
4.68723
4.63221
4.57845
4.526
4.47493
4.42534
4.37732
4.331
4.28655
4.24415
4.20403
4.16647
4.13178
4.1003
4.0724
4.04849
4.0292
4.01525
4.00698
4.00465
4.00832
4.01783
4.03284
4.05273
4.07672
4.10385
4.13304
4.16317
4.19314
4.22187
4.24841
4.27192
4.29168
4.30717
4.31795
4.32376
4.32445
4.31999
4.31041
4.29585
4.27651
4.25261
4.22443
4.19226
4.15642
4.11722
4.07498
4.03001
3.98262
3.9331
3.88172
3.82876
3.77446
3.71905
3.66274
3.60573
3.54821
3.49033
3.43225
3.3741
3.31601
3.25807
3.20038
3.14303
3.08608
3.02961
2.97366
2.91827
2.8635
2.80937
2.75592
2.70317
2.65115
2.59988
2.54937
2.49966
2.45075
2.40267
2.35541
2.309
2.26344
2.21873
2.17489
2.13191
2.08979
2.04855
2.00817
1.96867
1.93006
1.89234
1.85554
1.81968
1.7848
1.75096
1.71823
1.6867
1.65653
1.62788
1.601
1.57622
1.55398
1.53487
1.51967
1.50944
1.50562
1.51014
1.52564
1.55572
1.60538
1.6817
1.79491
1.96032
2.20185
2.5585
3.097
3.93694
5.30249
7.63513
11.8481
20.0019
36.8169
74.3941
149.796
206.845
6.3405
6.44711
6.62198
6.89259
7.3011
7.90706
8.7893
10.0434
11.773
14.0754
17.0266
20.6685
25.0008
29.9799
35.5209
41.5027
47.7752
54.1672
60.4966
66.5809
72.2458
77.3339
81.7079
85.2502
87.8563
89.4249
89.867
89.2623
87.5119
84.5885
80.5368
75.4685
69.5541
63.0128
56.0983
49.0805
42.2234
35.7618
29.8811
24.704
20.2873
16.6292
13.682
11.3684
9.5967
8.27267
7.30738
6.622
6.14974
5.83588
5.63681
5.51845
5.45461
5.42547
5.41637
5.41671
5.41912
5.41872
5.41255
5.39907
5.37779
5.34891
5.3131
5.27127
5.22446
5.17371
5.11999
5.06418
5.00701
4.9491
4.89094
4.83292
4.7753
4.71831
4.66209
4.60675
4.55235
4.49897
4.44666
4.39546
4.34543
4.29665
4.24919
4.20317
4.15872
4.116
4.0752
4.03654
4.00028
3.96673
3.93622
3.90907
3.88598
3.86754
3.85416
3.84617
3.84378
3.84704
3.85581
3.86973
3.88825
3.91063
3.93599
3.96335
3.99168
4.01996
4.04721
4.07255
4.0952
4.11452
4.12997
4.14118
4.14786
4.14988
4.14717
4.13977
4.12776
4.11132
4.09065
4.06598
4.03756
4.00569
3.97063
3.93268
3.89212
3.84923
3.80427
3.75749
3.70915
3.65947
3.60867
3.55695
3.50448
3.45145
3.398
3.34428
3.29042
3.23654
3.18272
3.12908
3.07568
3.0226
2.96991
2.91764
2.86585
2.81459
2.76388
2.71375
2.66424
2.61536
2.56715
2.51962
2.47278
2.42666
2.38126
2.33661
2.2927
2.24955
2.20717
2.16556
2.12472
2.08466
2.04538
2.0069
1.96921
1.93234
1.8963
1.86112
1.82684
1.7935
1.76119
1.73
1.70006
1.67154
1.64468
1.6198
1.5973
1.57776
1.56193
1.55084
1.54589
1.54896
1.56266
1.59055
1.63762
1.71092
1.82068
1.9822
2.21928
2.57064
3.10228
3.93228
5.28117
7.58062
11.7103
19.6094
35.5339
69.7724
135.339
189.114
5.60705
5.62298
5.66726
5.74952
5.88466
6.09383
6.40602
6.8587
7.4964
8.36688
9.51528
10.9774
12.7731
14.9023
17.3426
20.0499
22.9614
25.9986
29.0711
32.0805
34.924
37.4971
39.697
41.4233
42.5788
43.0684
42.9324
42.3994
41.4089
39.9285
37.9628
35.5556
32.7878
29.7687
26.6244
23.4837
20.4649
17.6645
15.1514
12.9645
11.1153
9.59355
8.37329
7.41952
6.6934
6.15618
5.77171
5.50782
5.33675
5.23512
5.18356
5.16627
5.17064
5.1868
5.20725
5.22655
5.24093
5.24804
5.24664
5.23635
5.21741
5.1905
5.15655
5.11664
5.07187
5.02329
4.97187
4.91844
4.86371
4.80824
4.7525
4.69682
4.64146
4.5866
4.53237
4.47886
4.42613
4.37424
4.32324
4.27317
4.22408
4.17603
4.1291
4.08338
4.03899
3.99606
3.95474
3.91523
3.87775
3.84254
3.80991
3.78007
3.75381
3.73156
3.71373
3.70072
3.69281
3.69021
3.69294
3.70086
3.71365
3.73079
3.75159
3.77526
3.80088
3.82752
3.85424
3.88014
3.90442
3.92634
3.94531
3.96082
3.97251
3.98011
3.98346
3.98249
3.97721
3.96769
3.95407
3.93651
3.91522
3.89042
3.86237
3.8313
3.79748
3.76116
3.7226
3.68203
3.6397
3.59582
3.55062
3.50428
3.45699
3.40894
3.36027
3.31114
3.26167
3.21201
3.16224
3.11248
3.0628
3.0133
2.96403
2.91506
2.86644
2.81822
2.77043
2.72311
2.6763
2.63001
2.58428
2.53912
2.49455
2.45059
2.40725
2.36456
2.32251
2.28112
2.2404
2.20035
2.16098
2.12229
2.08429
2.047
2.01041
1.97455
1.93943
1.90508
1.87153
1.83885
1.80709
1.77635
1.74676
1.71848
1.69174
1.66683
1.64416
1.62427
1.60789
1.59601
1.58996
1.59161
1.60347
1.62908
1.67335
1.74328
1.84903
2.00579
2.23709
2.58104
3.10235
3.91618
5.23643
7.47834
11.4747
19.0136
33.8744
64.578
121.314
171.39
5.25974
5.2382
5.23018
5.23919
5.27073
5.33249
5.43512
5.59284
5.82338
6.14703
6.58476
7.15554
7.87333
8.74415
9.76374
10.9164
12.1749
13.5015
14.8496
16.1664
17.3948
18.4761
19.3521
19.9672
20.271
20.2213
19.8857
19.412
18.795
18.0349
17.1399
16.1274
15.0239
13.8632
12.6831
11.522
10.4148
9.39028
8.46912
7.66357
6.97808
6.41058
5.95414
5.59862
5.33202
5.14163
5.01475
4.93924
4.90378
4.89813
4.91321
4.94121
4.97556
5.01099
5.04339
5.06979
5.08822
5.09758
5.09746
5.08804
5.06991
5.04395
5.01119
4.97274
4.92968
4.88305
4.83375
4.78256
4.73014
4.67701
4.62356
4.57011
4.51687
4.464
4.41162
4.35979
4.30857
4.25802
4.20818
4.15909
4.1108
4.06337
4.01688
3.97142
3.92707
3.88395
3.84222
3.80202
3.76354
3.72699
3.69262
3.66063
3.6317
3.60621
3.58457
3.56716
3.55433
3.54637
3.54342
3.54553
3.55255
3.56418
3.57994
3.59921
3.62125
3.64523
3.67029
3.69558
3.72027
3.7436
3.76491
3.78362
3.79926
3.81149
3.82003
3.82471
3.82547
3.82227
3.81518
3.8043
3.78976
3.77174
3.75045
3.72608
3.69887
3.66904
3.63683
3.60245
3.56615
3.52812
3.48857
3.44771
3.40571
3.36276
3.31901
3.27461
3.2297
3.18442
3.13887
3.09316
3.04739
3.00164
2.95599
2.91051
2.86524
2.82025
2.77558
2.73127
2.68734
2.64384
2.60079
2.5582
2.51611
2.47452
2.43346
2.39294
2.35296
2.31354
2.27469
2.23641
2.19871
2.1616
2.12509
2.08917
2.05388
2.01921
1.98518
1.95183
1.91919
1.88731
1.85626
1.82611
1.79701
1.76909
1.74259
1.71778
1.69505
1.67491
1.65807
1.64546
1.63839
1.63864
1.64867
1.67191
1.7132
1.77944
1.88064
2.03178
2.25596
2.59043
3.09798
3.88965
5.17012
7.33251
11.1524
18.2481
31.9273
59.1142
107.913
153.917
5.08593
5.0472
5.01602
4.9937
4.98236
4.98486
5.00513
5.04853
5.12195
5.23368
5.39272
5.60778
5.88599
6.23149
6.64412
7.11844
7.64327
8.20169
8.77169
9.3273
9.83998
10.2804
10.6202
10.8339
10.9013
10.8098
10.6042
10.3417
10.0268
9.66512
9.26403
8.83233
8.38019
7.91879
7.45973
7.0143
6.59284
6.20409
5.85483
5.54966
5.29099
5.07927
4.91317
4.78998
4.70585
4.65614
4.63565
4.63893
4.66049
4.69496
4.73737
4.7832
4.82858
4.8703
4.90587
4.93351
4.95211
4.96117
4.9607
4.95111
4.93313
4.90771
4.87589
4.83876
4.79734
4.7526
4.70539
4.65643
4.60629
4.55544
4.50424
4.45294
4.40173
4.35074
4.30006
4.24976
4.1999
4.15052
4.10165
4.05337
4.00572
3.95876
3.91257
3.86724
3.82285
3.77952
3.73738
3.69655
3.6572
3.61951
3.58368
3.54989
3.51872
3.49051
3.46562
3.44442
3.42727
3.4145
3.40635
3.40297
3.40438
3.41046
3.42092
3.43532
3.45311
3.47359
3.49603
3.51963
3.5436
3.56719
3.58969
3.61048
3.62902
3.64486
3.65767
3.66717
3.6732
3.67566
3.67451
3.66979
3.66158
3.64998
3.63514
3.61724
3.59645
3.57298
3.54703
3.5188
3.4885
3.45634
3.4225
3.38719
3.35057
3.31283
3.27412
3.23459
3.19439
3.15365
3.11249
3.07102
3.02933
2.98753
2.94568
2.90387
2.86216
2.8206
2.77925
2.73814
2.69731
2.6568
2.61664
2.57684
2.53744
2.49844
2.45987
2.42174
2.38405
2.34683
2.31007
2.27379
2.23798
2.20267
2.16786
2.13354
2.09974
2.06647
2.03375
2.00159
1.97005
1.93915
1.90897
1.8796
1.85114
1.82375
1.79763
1.77306
1.7504
1.73014
1.71295
1.69973
1.69172
1.69064
1.69886
1.71971
1.75789
1.82016
1.91632
2.06102
2.2768
2.59976
3.0903
3.8543
5.08502
7.14911
10.7577
17.3509
29.7826
53.606
95.2963
136.954
4.99675
4.94941
4.90698
4.86999
4.83931
4.81599
4.80145
4.79766
4.80723
4.83344
4.88
4.95072
5.04896
5.17695
5.33517
5.52176
5.7322
5.9592
6.19291
6.42144
6.63158
6.80975
6.94313
7.02075
7.03466
6.98139
6.88301
6.75886
6.61166
6.4448
6.26222
6.06833
5.86785
5.66567
5.46669
5.27559
5.09669
4.93374
4.78985
4.66731
4.56761
4.49134
4.4383
4.40746
4.39709
4.40486
4.42796
4.46323
4.50735
4.55694
4.60876
4.65981
4.70745
4.7495
4.78425
4.81052
4.82764
4.83538
4.83394
4.82386
4.80589
4.78097
4.75012
4.71436
4.67466
4.63191
4.58687
4.54019
4.49238
4.44385
4.39489
4.34571
4.29647
4.24727
4.19819
4.14928
4.1006
4.05219
4.00411
3.95643
3.9092
3.8625
3.81642
3.77105
3.72647
3.68281
3.64018
3.5987
3.55852
3.51978
3.48264
3.44729
3.41421
3.38367
3.35601
3.33155
3.31064
3.29362
3.28078
3.27234
3.26845
3.26912
3.27422
3.28352
3.2966
3.31295
3.33196
3.35294
3.37517
3.39793
3.42052
3.44228
3.46264
3.48108
3.49718
3.5106
3.52109
3.52846
3.5326
3.53347
3.53108
3.52547
3.51673
3.505
3.4904
3.4731
3.45327
3.4311
3.40676
3.38044
3.35233
3.32261
3.29144
3.259
3.22544
3.19091
3.15556
3.11952
3.08291
3.04584
3.00842
2.97075
2.9329
2.89496
2.857
2.81908
2.78125
2.74355
2.70604
2.66873
2.63168
2.59489
2.5584
2.52222
2.48636
2.45085
2.41569
2.38089
2.34647
2.31241
2.27875
2.24547
2.21258
2.1801
2.14803
2.11639
2.08518
2.05444
2.0242
1.99451
1.96541
1.937
1.90939
1.88271
1.85716
1.833
1.81058
1.79037
1.77299
1.7593
1.75049
1.74819
1.75468
1.77315
1.80816
1.86624
1.95694
2.09448
2.30067
2.61025
3.08078
3.81216
4.98466
6.93538
10.3066
16.3608
27.526
48.2157
83.5854
120.756
4.9509
4.89892
4.8506
4.80618
4.76602
4.73051
4.70013
4.67553
4.65766
4.64769
4.64707
4.65736
4.68002
4.71616
4.76617
4.8295
4.90437
4.98773
5.07529
5.16176
5.24118
5.30741
5.35467
5.37807
5.37422
5.34178
5.29095
5.2282
5.15483
5.07248
4.98312
4.88899
4.79251
4.69621
4.60263
4.51426
4.43342
4.3622
4.30235
4.25527
4.22186
4.20257
4.19733
4.20555
4.22616
4.25763
4.29809
4.34534
4.39703
4.45074
4.50407
4.55479
4.60092
4.6408
4.67315
4.69711
4.71222
4.71842
4.71598
4.70547
4.68764
4.66341
4.63373
4.59956
4.56178
4.52121
4.47853
4.4343
4.38896
4.34284
4.29618
4.24915
4.20186
4.15439
4.1068
4.05915
4.01148
3.96385
3.91634
3.869
3.82194
3.77525
3.72902
3.68335
3.63837
3.59418
3.55089
3.50863
3.46753
3.42773
3.38933
3.35253
3.31773
3.28516
3.25508
3.22779
3.20361
3.18286
3.16585
3.15283
3.14403
3.13955
3.13943
3.14355
3.15168
3.16346
3.17843
3.19603
3.21563
3.23658
3.25821
3.27989
3.301
3.32099
3.33939
3.35579
3.36986
3.38134
3.39004
3.39585
3.39871
3.39859
3.39553
3.38959
3.38088
3.36951
3.35562
3.33936
3.32089
3.30036
3.27795
3.25383
3.22815
3.20107
3.17275
3.14333
3.11295
3.08174
3.04983
3.01734
2.98436
2.951
2.91735
2.88348
2.84947
2.81539
2.78129
2.74722
2.71323
2.67935
2.64562
2.61207
2.57872
2.54558
2.51268
2.48003
2.44763
2.41551
2.38365
2.35208
2.32079
2.28979
2.25909
2.22869
2.1986
2.16883
2.13939
2.11031
2.08162
2.05336
2.02559
1.99838
1.97184
1.9461
1.92134
1.89782
1.87585
1.85589
1.83853
1.82457
1.81515
1.8118
1.8167
1.83289
1.86474
1.91853
2.00346
2.13322
2.32879
2.62328
3.07115
3.76569
4.87309
6.69922
9.81612
15.3151
25.2343
43.0591
72.8606
105.549
4.92767
4.87306
4.82146
4.773
4.72785
4.68613
4.64796
4.61352
4.58307
4.55697
4.5357
4.5198
4.50983
4.50622
4.50919
4.51857
4.53367
4.55325
4.57549
4.59807
4.61835
4.63356
4.64106
4.6386
4.62458
4.59836
4.56481
4.5261
4.48287
4.43594
4.38636
4.33534
4.28422
4.23443
4.18744
4.14471
4.10764
4.0775
4.05538
4.04216
4.0384
4.04438
4.06001
4.08484
4.11805
4.15851
4.20477
4.25515
4.30781
4.36083
4.41231
4.46044
4.50362
4.54049
4.57002
4.59153
4.60469
4.60951
4.60631
4.59566
4.5783
4.55509
4.52693
4.49468
4.45917
4.42111
4.38108
4.33957
4.29692
4.25341
4.2092
4.1644
4.1191
4.07335
4.02718
3.98066
3.93383
3.88676
3.83955
3.79229
3.74509
3.69808
3.65137
3.60509
3.55938
3.51435
3.47014
3.42687
3.38467
3.34366
3.30385
3.26564
3.2292
3.19473
3.16247
3.13267
3.1056
3.08155
3.06083
3.0437
3.03041
3.02115
3.01604
3.01508
3.01819
3.02515
3.03566
3.04928
3.06552
3.08381
3.10355
3.12413
3.14496
3.16548
3.18516
3.20356
3.22029
3.23502
3.24749
3.25752
3.26497
3.26977
3.27188
3.27132
3.26813
3.26238
3.25418
3.24363
3.23087
3.21603
3.19925
3.1807
3.1605
3.13882
3.11579
3.09156
3.06625
3.04
3.01293
2.98516
2.95678
2.92791
2.89862
2.86901
2.83915
2.80911
2.77895
2.74872
2.71847
2.68823
2.65806
2.62796
2.59798
2.56812
2.5384
2.50885
2.47946
2.45025
2.42122
2.39238
2.36373
2.33527
2.30701
2.27895
2.2511
2.22347
2.19607
2.16892
2.14205
2.1155
2.08932
2.06357
2.03837
2.01384
1.99014
1.96752
1.94628
1.92684
1.90975
1.89579
1.88601
1.88186
1.8854
1.8995
1.92832
1.97783
2.05681
2.17836
2.36245
2.64044
3.06338
3.71762
4.75471
6.44879
9.30259
14.2475
22.9728
38.2164
63.1613
91.5145
4.91624
4.86008
4.80654
4.75575
4.70779
4.66266
4.62036
4.58088
4.54423
4.51046
4.47964
4.45188
4.42732
4.40607
4.38816
4.37349
4.36177
4.35249
4.34486
4.3379
4.33044
4.32127
4.3092
4.29319
4.27251
4.24687
4.21867
4.1887
4.15732
4.12502
4.0924
4.0602
4.02923
4.00037
3.97454
3.95266
3.93564
3.9243
3.91934
3.92135
3.93067
3.94745
3.97157
4.00264
4.03998
4.08264
4.12945
4.179
4.22976
4.28013
4.32847
4.37327
4.41314
4.44692
4.47375
4.49305
4.50458
4.50842
4.50489
4.49455
4.47813
4.45642
4.43026
4.40044
4.36767
4.33258
4.29565
4.25726
4.21768
4.17707
4.13555
4.09317
4.04997
4.00597
3.96119
3.91569
3.86953
3.8228
3.77562
3.7281
3.6804
3.63267
3.58507
3.53776
3.4909
3.44463
3.3991
3.35446
3.31082
3.26832
3.22698
3.18715
3.14897
3.1126
3.07823
3.04607
3.01636
2.98934
2.96527
2.94443
2.92707
2.9134
2.9036
2.89777
2.89593
2.898
2.90379
2.91302
2.92533
2.94024
2.95726
2.97583
2.99541
3.01545
3.03541
3.05482
3.07324
3.09031
3.10569
3.11915
3.13048
3.13955
3.14625
3.15055
3.15244
3.15193
3.14909
3.14399
3.13673
3.12741
3.11615
3.10308
3.08833
3.07203
3.05431
3.03531
3.01514
2.99394
2.97182
2.94888
2.92525
2.90101
2.87626
2.85108
2.82555
2.79974
2.7737
2.74751
2.7212
2.69482
2.66841
2.64199
2.61559
2.58924
2.56294
2.53672
2.51058
2.48452
2.45857
2.43271
2.40695
2.38129
2.35574
2.3303
2.30496
2.27975
2.25467
2.22973
2.20497
2.18042
2.15613
2.13216
2.10861
2.08559
2.06328
2.04188
2.02168
2.00309
1.98662
1.97299
1.96319
1.95858
1.96107
1.97339
1.99942
2.04482
2.11787
2.23097
2.40299
2.66337
3.05959
3.67087
4.63406
6.19208
8.78133
13.1873
20.7935
33.7405
54.4906
78.7706
4.91087
4.85375
4.79902
4.7468
4.69714
4.65
4.60532
4.56302
4.52304
4.4853
4.44971
4.41623
4.38481
4.35539
4.32791
4.30227
4.2783
4.25574
4.23427
4.21344
4.19276
4.17171
4.14977
4.1265
4.10161
4.07496
4.04793
4.02076
3.99373
3.96718
3.94155
3.91732
3.89505
3.87535
3.85884
3.84616
3.83794
3.83475
3.83708
3.84532
3.85971
3.8803
3.90697
3.93933
3.9768
4.01856
4.06358
4.11064
4.1584
4.20545
4.25036
4.29178
4.32849
4.35948
4.38398
4.40152
4.41193
4.41531
4.41202
4.4026
4.38775
4.36819
4.34471
4.31798
4.28863
4.25717
4.22396
4.18928
4.15328
4.11605
4.0776
4.03794
3.99705
3.95492
3.91156
3.86701
3.82137
3.77474
3.72727
3.67912
3.63048
3.58156
3.53256
3.48368
3.43512
3.38706
3.33968
3.29314
3.24759
3.20316
3.15991
3.11813
3.07795
3.03951