/*--------------------------------*- C++ -*----------------------------------*\
| =========                 |                                                 |
| \\      /  F ield         | OpenFOAM: The Open Source CFD Toolbox           |
|  \\    /   O peration     | Version:  2.4.0                                 |
|   \\  /    A nd           | Web:      www.OpenFOAM.org                      |
|    \\/     M anipulation  |                                                 |
\*---------------------------------------------------------------------------*/
FoamFile
{
    version     2.0;
    format      ascii;
    class       volScalarField;
    location    "0.013";
    object      nut;
}
// * * * * * * * * * * * * * * * * * * * * * * * * * * * * * * * * * * * * * //

dimensions      [0 2 -1 0 0 0 0];

internalField   nonuniform List<scalar> 
17600
(
0.00010783
0.00012451
0.000135992
0.000143227
0.000147274
0.000149056
0.000149309
0.000148579
0.000147254
0.000145603
0.000143809
0.000141991
0.000140226
0.000138559
0.000137012
0.000135588
0.000134265
0.00013298
0.000131625
0.000129686
0.000329174
0.000212656
0.000162186
0.00013586
0.000121229
0.000113026
0.000108733
0.000107059
0.000107296
0.000109042
0.000112049
0.000116145
0.000121196
0.000127067
0.00013361
0.000140649
0.000147964
0.000155263
0.000162118
0.000165916
0.000659515
0.000505624
0.000400842
0.000328643
0.000277967
0.000241565
0.000214853
0.000194956
0.000180047
0.000168937
0.000160836
0.000155208
0.000151683
0.000149993
0.000149933
0.000151324
0.000153979
0.000157668
0.000161953
0.000165546
0.000798067
0.000719144
0.000639471
0.000568172
0.000507729
0.00045753
0.000415966
0.000381379
0.000352354
0.000327765
0.000306741
0.000288623
0.000272913
0.00025923
0.000247274
0.000236777
0.000227434
0.000218795
0.000209787
0.000198325
0.000836034
0.000805283
0.000764927
0.000720395
0.000675859
0.000633738
0.000595086
0.000560153
0.000528771
0.000500589
0.000475196
0.000452177
0.00043114
0.000411717
0.000393542
0.000376204
0.000359144
0.000341402
0.00032063
0.000292307
0.000845497
0.000833333
0.000815252
0.00079227
0.000766099
0.000738418
0.000710521
0.000683273
0.000657181
0.00063249
0.000609268
0.000587465
0.000566956
0.000547554
0.000529008
0.000510961
0.000492843
0.000473579
0.000450468
0.000417915
0.000847815
0.000841759
0.000833143
0.000821665
0.000807552
0.000791357
0.000773734
0.000755299
0.000736558
0.000717891
0.000699556
0.000681709
0.000664414
0.000647661
0.000631354
0.000615285
0.000599041
0.000581783
0.000561347
0.000533237
0.000848382
0.000844198
0.000839116
0.000832753
0.000824919
0.000815627
0.000805037
0.000793393
0.000780968
0.000768024
0.000754786
0.00074143
0.000728084
0.000714814
0.00070162
0.00068841
0.000674929
0.000660607
0.000643942
0.000621947
0.00084852
0.000844889
0.000841035
0.000836725
0.000831764
0.000826028
0.000819475
0.000812133
0.000804082
0.000795433
0.000786306
0.000776818
0.000767067
0.000757125
0.000747022
0.000736721
0.000726073
0.000714709
0.000701645
0.00068503
0.000848553
0.000845082
0.000841635
0.000838096
0.000834344
0.000830268
0.000825786
0.000820849
0.000815444
0.000809587
0.000803314
0.000796671
0.000789709
0.00078247
0.000774974
0.000767204
0.000759068
0.00075033
0.000740361
0.000728048
0.00084856
0.000845133
0.000841817
0.000838556
0.000835284
0.000831931
0.000828429
0.000824723
0.000820774
0.000816557
0.000812064
0.000807298
0.00080227
0.000796991
0.000791464
0.000785673
0.000779553
0.000772954
0.000765484
0.000756488
0.00084856
0.000845146
0.000841871
0.000838706
0.000835616
0.000832561
0.000829496
0.000826381
0.000823176
0.000819851
0.000816383
0.000812756
0.000808958
0.000804983
0.000800821
0.000796451
0.000791824
0.000786846
0.000781283
0.000774764
0.00084856
0.000845148
0.000841885
0.000838752
0.000835729
0.000832792
0.000829914
0.000827067
0.000824222
0.000821354
0.000818439
0.000815457
0.00081239
0.000809224
0.000805943
0.000802523
0.000798931
0.000795106
0.000790921
0.000786184
0.000848559
0.000845147
0.000841887
0.000838765
0.000835766
0.000832874
0.000830072
0.000827341
0.000824663
0.000822017
0.000819386
0.00081675
0.000814094
0.000811401
0.000808655
0.000805836
0.000802918
0.000799869
0.000796632
0.000793125
0.000848558
0.000845146
0.000841887
0.000838767
0.000835776
0.000832901
0.000830129
0.000827447
0.000824843
0.000822301
0.000819808
0.00081735
0.000814914
0.000812484
0.000810048
0.000807589
0.00080509
0.000802537
0.000799922
0.00079723
0.000848557
0.000845145
0.000841885
0.000838766
0.000835778
0.000832908
0.000830148
0.000827486
0.000824913
0.000822419
0.000819991
0.000817621
0.000815297
0.000813008
0.000810743
0.000808491
0.000806241
0.000803993
0.000801769
0.000799595
0.000848557
0.000845144
0.000841884
0.000838765
0.000835777
0.000832909
0.000830153
0.000827499
0.00082494
0.000822465
0.000820068
0.000817739
0.000815471
0.000813254
0.000811081
0.000808944
0.000806837
0.000804769
0.000802781
0.000800923
0.000848557
0.000845143
0.000841883
0.000838764
0.000835776
0.000832909
0.000830154
0.000827503
0.000824949
0.000822483
0.000820099
0.000817789
0.000815548
0.000813367
0.000811242
0.000809165
0.000807138
0.000805173
0.000803324
0.000801651
0.000848556
0.000845143
0.000841883
0.000838763
0.000835775
0.000832908
0.000830154
0.000827504
0.000824951
0.000822489
0.00082011
0.00081781
0.00081558
0.000813417
0.000811315
0.00080927
0.000807285
0.000805376
0.000803605
0.000802035
0.000848556
0.000845143
0.000841882
0.000838763
0.000835774
0.000832907
0.000830153
0.000827504
0.000824952
0.000822491
0.000820114
0.000817817
0.000815593
0.000813437
0.000811345
0.000809314
0.00080735
0.000805469
0.000803738
0.000802219
0.000848556
0.000845143
0.000841882
0.000838763
0.000835774
0.000832907
0.000830153
0.000827504
0.000824952
0.000822491
0.000820115
0.000817817
0.000815594
0.000813439
0.000811349
0.000809321
0.000807362
0.00080549
0.000803774
0.000802273
0.000848556
0.000845143
0.000841883
0.000838763
0.000835775
0.000832908
0.000830154
0.000827504
0.000824951
0.000822489
0.000820111
0.000817811
0.000815584
0.000813424
0.000811327
0.000809292
0.000807324
0.000805444
0.000803721
0.000802211
0.000848557
0.000845143
0.000841883
0.000838764
0.000835776
0.000832909
0.000830154
0.000827503
0.000824949
0.000822484
0.0008201
0.000817793
0.000815554
0.000813379
0.000811263
0.000809205
0.00080721
0.000805299
0.000803543
0.000801997
0.000848557
0.000845144
0.000841884
0.000838765
0.000835777
0.000832909
0.000830153
0.0008275
0.00082494
0.000822467
0.00082007
0.000817744
0.00081548
0.000813272
0.000811115
0.000809007
0.000806954
0.000804978
0.000803153
0.000801532
0.000848557
0.000845145
0.000841885
0.000838766
0.000835778
0.000832908
0.000830148
0.000827487
0.000824914
0.00082242
0.000819995
0.000817628
0.00081531
0.000813034
0.000810793
0.000808588
0.000806425
0.000804328
0.000802375
0.000800623
0.000848558
0.000845146
0.000841887
0.000838767
0.000835776
0.000832901
0.000830129
0.000827448
0.000824844
0.000822304
0.000819813
0.00081736
0.000814933
0.000812522
0.000810124
0.000807739
0.000805377
0.000803067
0.000800896
0.000798929
0.000848559
0.000845147
0.000841887
0.000838765
0.000835766
0.000832874
0.000830072
0.000827342
0.000824665
0.000822021
0.000819393
0.000816764
0.000814123
0.000811459
0.000808772
0.00080607
0.000803368
0.000800704
0.000798179
0.000795877
0.00084856
0.000845148
0.000841885
0.000838752
0.000835729
0.000832792
0.000829914
0.000827068
0.000824224
0.000821359
0.000818449
0.000815479
0.000812435
0.000809315
0.000806125
0.000802885
0.000799632
0.000796411
0.000793344
0.000790543
0.00084856
0.000845146
0.000841871
0.000838706
0.000835616
0.000832561
0.000829497
0.000826382
0.00082318
0.000819859
0.0008164
0.00081279
0.000809029
0.000805126
0.000801105
0.000797008
0.000792905
0.000788852
0.000785001
0.000781501
0.00084856
0.000845133
0.000841817
0.000838556
0.000835284
0.000831931
0.00082843
0.000824726
0.000820779
0.000816569
0.00081209
0.000807353
0.000802381
0.000797213
0.000791902
0.000786519
0.000781183
0.000775967
0.000771053
0.000766639
0.000848553
0.000845082
0.000841635
0.000838096
0.000834345
0.000830269
0.000825788
0.000820853
0.000815453
0.000809607
0.000803356
0.000796758
0.000789883
0.000782811
0.000775632
0.000768457
0.000761433
0.000754727
0.000748485
0.000742967
0.00084852
0.000844889
0.000841035
0.000836725
0.000831764
0.000826029
0.000819478
0.000812139
0.000804097
0.000795465
0.000786373
0.000776953
0.000767331
0.000757633
0.000747983
0.000738522
0.000729426
0.000720955
0.00071319
0.000706453
0.000848382
0.000844198
0.000839116
0.000832753
0.00082492
0.000815629
0.000805041
0.000793403
0.000780992
0.000768075
0.000754888
0.000741632
0.00072847
0.000715541
0.000702975
0.000690914
0.000679538
0.0006692
0.000659884
0.000651959
0.000847815
0.000841759
0.000833143
0.000821665
0.000807553
0.00079136
0.000773741
0.000755316
0.000736595
0.000717967
0.000699706
0.000681995
0.000664952
0.000648656
0.00063318
0.000618619
0.000605129
0.000593028
0.00058248
0.000573629
0.000845497
0.000833333
0.000815252
0.00079227
0.0007661
0.000738422
0.000710532
0.000683298
0.000657234
0.000632596
0.000609471
0.000587844
0.000567653
0.000548823
0.000531305
0.000515108
0.000500337
0.000487267
0.000476293
0.00046716
0.000836034
0.000805282
0.000764926
0.000720394
0.00067586
0.000633743
0.000595101
0.000560186
0.000528838
0.000500719
0.000475437
0.000452616
0.00043193
0.000413124
0.000396034
0.0003806
0.000366891
0.000355146
0.000345893
0.000338419
0.000798066
0.000719143
0.00063947
0.00056817
0.000507729
0.000457535
0.000415981
0.000381412
0.000352419
0.000327884
0.000306955
0.000288997
0.000273556
0.000260324
0.000249118
0.000239858
0.000232546
0.00022728
0.000224168
0.00022288
0.000659513
0.000505621
0.00040084
0.000328641
0.000277967
0.000241568
0.000214861
0.000194972
0.000180078
0.000168991
0.000160927
0.000155358
0.000151927
0.000150385
0.000150557
0.000152313
0.000155543
0.000160158
0.000166052
0.000172594
0.000329172
0.000212654
0.000162185
0.000135859
0.000121229
0.000113026
0.000108734
0.00010706
0.000107299
0.000109048
0.000112059
0.000116167
0.000121239
0.000127153
0.000133784
0.000140999
0.000148658
0.000156646
0.000164868
0.000172408
0.00010783
0.00012451
0.000135992
0.000143227
0.000147274
0.000149057
0.000149311
0.000148581
0.000147259
0.000145612
0.000143826
0.000142021
0.000140279
0.000138654
0.000137184
0.000135895
0.000134813
0.000133966
0.000133379
0.000133123
0.000169584
0.000226982
0.000293145
0.000358062
0.000413998
0.000459047
0.000496047
0.00052976
0.00056482
0.000604925
0.000652737
0.000709962
0.000777397
0.000854946
0.000941657
0.00103583
0.00113522
0.00123726
0.00133932
0.00143891
0.00153385
0.00162235
0.00170301
0.00177489
0.00183739
0.00189019
0.00193301
0.0019644
0.00198092
0.00198562
0.00197876
0.00196068
0.00193171
0.00189209
0.00184193
0.00178122
0.00170987
0.00162778
0.00153505
0.00143219
0.00132038
0.00120167
0.00107911
0.000956641
0.000838748
0.000729989
0.000634443
0.000555319
0.000494806
0.000454178
0.000434026
0.00043441
0.000454736
0.000493306
0.000546876
0.000610703
0.000679315
0.000747629
0.000811809
0.000869545
0.000919865
0.000962742
0.000998712
0.00102857
0.00105321
0.00107348
0.00109017
0.00110394
0.00111539
0.001125
0.00113319
0.0011403
0.00114662
0.0011524
0.00115785
0.00116315
0.0011685
0.00117404
0.00117996
0.00118643
0.00119365
0.00120182
0.0012112
0.00122203
0.00123459
0.00124917
0.00126606
0.0012855
0.00130768
0.00133269
0.00136048
0.00139086
0.00142351
0.00145806
0.0014938
0.00152981
0.0015651
0.00159873
0.00162985
0.00165772
0.00168184
0.00170186
0.00171763
0.00172912
0.00173648
0.00173992
0.00173972
0.00173621
0.00172973
0.00172062
0.00170923
0.00169588
0.00168085
0.00166443
0.00164685
0.00162835
0.0016091
0.00158928
0.00156904
0.0015485
0.00152778
0.00150696
0.00148614
0.00146537
0.00144472
0.00142422
0.00140391
0.00138383
0.001364
0.00134444
0.00132517
0.00130618
0.0012875
0.00126912
0.00125105
0.00123329
0.00121584
0.00119869
0.00118185
0.00116532
0.00114911
0.0011332
0.00111761
0.00110235
0.00108741
0.00107281
0.00105855
0.00104463
0.00103108
0.00101788
0.00100504
0.000992569
0.000980469
0.000968741
0.00095739
0.00094642
0.000935836
0.000925646
0.000915858
0.000906486
0.000897545
0.000889053
0.000881037
0.000873526
0.000866558
0.00086018
0.000854448
0.000849433
0.000845219
0.00084191
0.00083963
0.00083853
0.000838793
0.000840636
0.000844317
0.000850144
0.000858476
0.000869731
0.000884384
0.000902972
0.00092609
0.000954384
0.000988545
0.00102931
0.00107745
0.00113382
0.00119934
0.00127497
0.00136159
0.00145955
0.00156784
0.00168263
0.00179566
0.0018933
0.00195903
0.00197932
0.00196346
0.00192053
0.0018471
0.000498805
0.000168966
0.000179288
0.000201319
0.000236942
0.000284024
0.000337587
0.000392168
0.000443843
0.000491141
0.000534792
0.000576844
0.000619771
0.000665848
0.000716816
0.000773725
0.000836891
0.000905911
0.000979756
0.00105691
0.00113553
0.0012137
0.00128954
0.00136135
0.00142774
0.00148764
0.00154024
0.00158478
0.00161808
0.00164076
0.0016531
0.00165514
0.00164692
0.0016284
0.00159947
0.00155993
0.00150952
0.00144804
0.00137548
0.00129224
0.00119932
0.00109857
0.000992758
0.000885512
0.000781056
0.000683764
0.000597669
0.000526069
0.000471357
0.000435084
0.000418149
0.000420923
0.000443089
0.000483156
0.000537985
0.000602832
0.000672177
0.000740906
0.0008052
0.000862806
0.000912821
0.000955276
0.000990745
0.00102005
0.0010441
0.00106374
0.00107975
0.00109282
0.00110353
0.00111237
0.00111976
0.00112602
0.00113145
0.0011363
0.00114075
0.001145
0.00114919
0.00115347
0.00115797
0.00116284
0.00116823
0.00117428
0.00118118
0.00118912
0.00119833
0.00120905
0.00122155
0.00123609
0.00125293
0.00127231
0.00129439
0.00131922
0.00134677
0.00137688
0.00140939
0.00144369
0.001479
0.00151444
0.00154906
0.00158196
0.00161234
0.00163955
0.00166309
0.00168267
0.00169815
0.00170954
0.00171695
0.0017206
0.00172075
0.00171772
0.00171182
0.00170339
0.00169275
0.00168018
0.00166599
0.00165042
0.0016337
0.00161606
0.00159767
0.00157869
0.00155928
0.00153955
0.00151961
0.00149956
0.00147946
0.00145939
0.00143941
0.00141955
0.00139986
0.00138037
0.0013611
0.00134208
0.00132331
0.00130481
0.00128659
0.00126865
0.001251
0.00123364
0.00121657
0.00119979
0.00118331
0.00116712
0.00115122
0.00113563
0.00112034
0.00110536
0.00109069
0.00107635
0.00106234
0.00104866
0.00103533
0.00102233
0.00100969
0.000997401
0.000985466
0.00097389
0.000962677
0.000951833
0.000941363
0.000931276
0.000921583
0.000912297
0.000903436
0.000895023
0.000887084
0.000879655
0.000872779
0.000866508
0.000860908
0.000856059
0.000852059
0.000849026
0.000847106
0.000846474
0.000847344
0.000849969
0.000854656
0.000861766
0.000871723
0.00088502
0.000902219
0.000923955
0.000950927
0.000983897
0.00102368
0.00107117
0.00112731
0.00119319
0.00126999
0.00135895
0.00146105
0.00157623
0.00170192
0.00183098
0.00194985
0.00203939
0.00207993
0.00206928
0.00201443
0.00190039
0.000693622
0.000165786
0.000165754
0.00016779
0.000175644
0.000192737
0.000220612
0.000258642
0.000304528
0.000355137
0.000407444
0.000459267
0.000509598
0.000558496
0.00060674
0.000655406
0.000705515
0.000757796
0.000812558
0.000869653
0.000928515
0.00098824
0.0010477
0.00110567
0.00116093
0.00121237
0.001259
0.00129972
0.0013314
0.00135506
0.00137021
0.00137639
0.00137321
0.00136025
0.00133711
0.00130339
0.00125881
0.00120334
0.0011373
0.00106161
0.000977971
0.000888885
0.00079766
0.000708162
0.000624435
0.000550275
0.000488875
0.000442664
0.000413345
0.000402045
0.000409368
0.000435165
0.000478015
0.000534756
0.000600628
0.000670181
0.00073848
0.000801935
0.000858509
0.000907448
0.000948873
0.000983392
0.00101183
0.00103507
0.00105395
0.00106923
0.00108157
0.00109155
0.00109963
0.00110624
0.00111171
0.00111631
0.00112029
0.00112384
0.00112714
0.00113032
0.00113352
0.00113686
0.00114044
0.00114438
0.0011488
0.00115383
0.0011596
0.00116628
0.00117406
0.00118314
0.00119376
0.00120617
0.00122062
0.00123735
0.00125657
0.00127843
0.001303
0.00133029
0.00136029
0.00139256
0.00142651
0.00146136
0.00149625
0.00153028
0.0015626
0.00159246
0.00161923
0.00164248
0.00166192
0.00167741
0.00168898
0.00169672
0.00170083
0.00170157
0.00169923
0.00169411
0.00168651
0.00167674
0.00166509
0.00165183
0.00163719
0.00162141
0.00160469
0.0015872
0.00156911
0.00155055
0.00153165
0.00151251
0.00149323
0.00147387
0.00145451
0.0014352
0.00141599
0.00139692
0.00137801
0.00135931
0.00134081
0.00132255
0.00130454
0.00128678
0.00126929
0.00125206
0.0012351
0.00121841
0.001202
0.00118586
0.00117001
0.00115443
0.00113915
0.00112415
0.00110946
0.00109507
0.00108098
0.00106721
0.00105376
0.00104064
0.00102785
0.00101538
0.00100326
0.000991478
0.000980039
0.000968949
0.000958214
0.000947841
0.000937839
0.00092822
0.000919001
0.0009102
0.000901842
0.00089396
0.000886592
0.000879787
0.000873606
0.000868122
0.000863427
0.000859635
0.000856881
0.000855335
0.000855201
0.000856727
0.000860214
0.00086602
0.000874573
0.000886375
0.000902012
0.000922153
0.000947549
0.000979036
0.00101752
0.001064
0.00111956
0.00118542
0.00126296
0.00135374
0.00145925
0.00158025
0.00171535
0.00185866
0.00199705
0.00210935
0.00217039
0.00216541
0.00210033
0.0019383
0.000909578
0.000193824
0.00018759
0.000180147
0.000173232
0.00016977
0.000172835
0.000184505
0.00020554
0.00023558
0.000273415
0.000317275
0.00036517
0.000415259
0.00046612
0.000516878
0.000567163
0.000616964
0.000666433
0.000715718
0.000764839
0.000813622
0.000861689
0.000908487
0.000953338
0.000995484
0.0010341
0.00106786
0.00109488
0.0011154
0.00112868
0.00113406
0.00113088
0.00111858
0.00109665
0.00106478
0.0010229
0.000971342
0.000910976
0.000843347
0.000770731
0.000696073
0.000622798
0.000554485
0.000494523
0.000445824
0.0004107
0.000390891
0.000387649
0.000401693
0.000432877
0.000479646
0.000538685
0.000605243
0.000674134
0.000740868
0.000802324
0.000856827
0.000903846
0.000943595
0.000976697
0.00100395
0.00102618
0.00104418
0.00105867
0.00107027
0.00107952
0.00108688
0.00109275
0.00109746
0.00110128
0.00110445
0.00110716
0.00110958
0.00111185
0.00111409
0.00111641
0.0011189
0.00112167
0.00112479
0.00112837
0.0011325
0.0011373
0.0011429
0.00114946
0.00115714
0.00116616
0.00117671
0.00118905
0.00120341
0.00122002
0.00123907
0.00126073
0.00128513
0.00131238
0.00134224
0.00137426
0.00140785
0.00144225
0.00147664
0.00151015
0.00154198
0.00157142
0.0015979
0.00162098
0.0016404
0.00165603
0.00166789
0.00167606
0.00168073
0.00168215
0.00168056
0.00167627
0.00166956
0.00166072
0.00165002
0.00163771
0.00162404
0.00160921
0.00159343
0.00157686
0.00155967
0.00154198
0.00152392
0.0015056
0.00148709
0.00146848
0.00144984
0.00143122
0.00141266
0.00139422
0.00137591
0.00135778
0.00133983
0.0013221
0.00130458
0.0012873
0.00127026
0.00125346
0.00123692
0.00122063
0.0012046
0.00118883
0.00117333
0.00115809
0.00114313
0.00112844
0.00111404
0.00109993
0.00108611
0.00107259
0.00105937
0.00104647
0.00103387
0.0010216
0.00100964
0.000998006
0.000986702
0.00097573
0.000965098
0.000954814
0.000944888
0.000935335
0.00092617
0.000917418
0.000909106
0.000901269
0.000893953
0.000887212
0.000881116
0.00087575
0.000871219
0.000867652
0.00086521
0.000864088
0.000864525
0.000866813
0.000871305
0.000878426
0.000888686
0.000902682
0.000921112
0.000944776
0.000974575
0.00101151
0.00105668
0.0011113
0.00117675
0.00125457
0.00134659
0.00145468
0.00158035
0.00172325
0.00187874
0.00203442
0.00216772
0.00224888
0.00225148
0.00217891
0.00198404
0.00112919
0.00028181
0.000268216
0.000251526
0.000232498
0.000212987
0.000195961
0.00018449
0.000180692
0.00018547
0.000198838
0.000220292
0.000248988
0.000283828
0.000323541
0.000366792
0.000412312
0.000459006
0.000505998
0.00055263
0.000598414
0.000642964
0.00068593
0.000726948
0.000765605
0.000801412
0.000833769
0.000861229
0.00088325
0.000899257
0.000908635
0.000910774
0.000905116
0.000891207
0.000868769
0.000837796
0.000798655
0.000752203
0.000699868
0.000643675
0.000586176
0.00053028
0.000479
0.000435197
0.000401385
0.000379652
0.000371668
0.000378679
0.000401319
0.000439187
0.000490375
0.000551362
0.000617573
0.000684395
0.000748086
0.0008062
0.000857522
0.000901761
0.000939206
0.000970456
0.000996235
0.00101729
0.00103433
0.00104799
0.00105885
0.00106741
0.00107409
0.00107928
0.00108328
0.00108637
0.00108877
0.00109069
0.00109228
0.00109369
0.00109503
0.00109642
0.00109794
0.00109967
0.0011017
0.00110408
0.00110691
0.00111026
0.00111422
0.0011189
0.00112442
0.00113092
0.00113856
0.00114754
0.00115806
0.00117034
0.00118462
0.0012011
0.00122001
0.00124158
0.001266
0.00129318
0.00132287
0.00135463
0.00138786
0.00142183
0.00145576
0.00148882
0.00152025
0.00154937
0.00157565
0.00159867
0.00161818
0.00163406
0.0016463
0.00165499
0.00166031
0.00166246
0.00166169
0.00165828
0.0016525
0.00164462
0.0016349
0.00162358
0.00161089
0.00159704
0.00158222
0.00156659
0.00155031
0.00153351
0.00151631
0.00149881
0.0014811
0.00146326
0.00144535
0.00142743
0.00140955
0.00139174
0.00137406
0.00135651
0.00133913
0.00132193
0.00130493
0.00128815
0.00127158
0.00125524
0.00123913
0.00122326
0.00120762
0.00119224
0.0011771
0.00116222
0.0011476
0.00113323
0.00111914
0.00110532
0.00109177
0.00107851
0.00106553
0.00105285
0.00104045
0.00102836
0.00101657
0.00100508
0.000993909
0.000983048
0.000972511
0.000962305
0.000952443
0.000942941
0.000933818
0.0009251
0.000916819
0.000909015
0.000901739
0.000895055
0.000889041
0.000883795
0.000879439
0.000876124
0.000874034
0.000873398
0.000874499
0.000877679
0.000883358
0.000892043
0.000904339
0.000920965
0.000942758
0.000970678
0.00100581
0.00104937
0.00110269
0.0011673
0.00124492
0.00133757
0.00144748
0.00157669
0.00172579
0.00189131
0.00206179
0.0022139
0.00231435
0.00232747
0.00225113
0.00204198
0.00134412
0.000405686
0.000389945
0.00036995
0.000345463
0.00031687
0.000285849
0.000255443
0.000229166
0.000209762
0.000198596
0.000195856
0.000201077
0.000213538
0.000232434
0.000256915
0.000286075
0.00031896
0.000354587
0.000391983
0.000430224
0.000468454
0.000505901
0.000541866
0.000575708
0.000606806
0.000634502
0.000657626
0.000675645
0.000687996
0.000694195
0.000693844
0.000686665
0.000672552
0.000651652
0.000624436
0.000591777
0.000554991
0.000515831
0.000476414
0.000439087
0.000406251
0.000380199
0.000363008
0.000356481
0.000362099
0.000380876
0.000413055
0.000457701
0.000512469
0.000573825
0.000637752
0.000700577
0.000759542
0.00081296
0.000860071
0.000900777
0.000935388
0.000964429
0.000988511
0.00100826
0.00102428
0.00103712
0.00104727
0.00105519
0.00106126
0.00106582
0.00106918
0.0010716
0.00107329
0.00107445
0.00107525
0.00107583
0.00107631
0.0010768
0.0010774
0.00107817
0.00107919
0.00108053
0.00108225
0.0010844
0.00108705
0.00109028
0.00109416
0.00109879
0.00110429
0.00111078
0.00111842
0.00112739
0.00113789
0.00115013
0.00116433
0.00118072
0.00119961
0.00122125
0.00124566
0.00127275
0.00130225
0.00133373
0.00136661
0.00140018
0.00143369
0.00146636
0.00149747
0.00152637
0.00155255
0.00157561
0.0015953
0.00161151
0.00162423
0.00163352
0.00163953
0.00164248
0.00164259
0.00164011
0.0016353
0.00162842
0.00161971
0.00160941
0.00159773
0.00158489
0.00157104
0.00155638
0.00154103
0.00152514
0.00150881
0.00149216
0.00147526
0.0014582
0.00144104
0.00142385
0.00140666
0.00138952
0.00137247
0.00135554
0.00133874
0.00132211
0.00130565
0.00128938
0.0012733
0.00125744
0.00124179
0.00122635
0.00121114
0.00119616
0.00118141
0.0011669
0.00115263
0.0011386
0.00112482
0.0011113
0.00109804
0.00108504
0.00107231
0.00105984
0.00104765
0.00103574
0.00102411
0.00101276
0.00100171
0.000990947
0.000980491
0.000970349
0.000960535
0.000951067
0.000941968
0.000933266
0.000924999
0.000917212
0.000909964
0.000903327
0.000897392
0.000892272
0.000888108
0.000885075
0.00088339
0.000883322
0.000885202
0.000889439
0.000896532
0.000907088
0.000921834
0.000941635
0.000967501
0.00100059
0.00104223
0.00109388
0.00115721
0.00123411
0.00132679
0.00143772
0.0015694
0.00172316
0.00189659
0.00207926
0.00224774
0.00236634
0.00239295
0.00231767
0.00210964
0.00154751
0.000522799
0.00050973
0.000493064
0.000472061
0.000445995
0.000414592
0.000378663
0.000340459
0.000303309
0.000270578
0.000244657
0.000226598
0.000216385
0.000213406
0.000216834
0.000225813
0.00023952
0.000257159
0.000277946
0.000301089
0.00032579
0.000351248
0.000376667
0.000401264
0.000424262
0.000444871
0.00046227
0.000476132
0.00048575
0.000490621
0.000490466
0.000485244
0.000475179
0.000460787
0.000442896
0.000422645
0.000401462
0.000380997
0.000363035
0.0003494
0.000341863
0.000342066
0.000351431
0.000371015
0.000401277
0.000441787
0.00049105
0.000546594
0.000605388
0.000664417
0.000721171
0.00077388
0.00082152
0.000863668
0.000900324
0.00093175
0.000958352
0.000980599
0.000998978
0.00101396
0.001026
0.0010355
0.00104284
0.00104837
0.00105239
0.00105518
0.00105698
0.00105801
0.00105846
0.0010585
0.00105828
0.00105791
0.00105752
0.00105721
0.00105704
0.0010571
0.00105744
0.00105813
0.00105921
0.00106074
0.00106277
0.00106534
0.00106853
0.0010724
0.00107705
0.00108257
0.0010891
0.00109677
0.00110577
0.00111627
0.00112848
0.00114263
0.00115907
0.00117807
0.00119975
0.00122413
0.00125111
0.00128041
0.00131161
0.00134414
0.00137734
0.00141048
0.00144283
0.00147368
0.00150244
0.0015286
0.00155179
0.00157176
0.00158838
0.00160164
0.0016116
0.00161839
0.00162219
0.00162322
0.00162172
0.00161793
0.00161208
0.00160442
0.00159517
0.00158453
0.00157271
0.00155988
0.0015462
0.00153181
0.00151685
0.00150142
0.00148564
0.00146958
0.00145333
0.00143695
0.0014205
0.00140403
0.00138759
0.0013712
0.0013549
0.00133872
0.00132267
0.00130678
0.00129105
0.0012755
0.00126013
0.00124496
0.00122999
0.00121522
0.00120067
0.00118632
0.0011722
0.00115829
0.00114461
0.00113117
0.00111795
0.00110498
0.00109224
0.00107975
0.00106751
0.00105552
0.00104378
0.0010323
0.00102108
0.00101013
0.000999456
0.000989063
0.000978965
0.000969179
0.000959725
0.000950628
0.000941922
0.000933649
0.000925862
0.000918628
0.00091203
0.000906174
0.00090119
0.000897242
0.000894534
0.000893322
0.000893922
0.000896729
0.000902228
0.000911018
0.00092383
0.000941542
0.0009652
0.000996031
0.00103544
0.00108504
0.00114663
0.00122228
0.00131434
0.00142552
0.00155863
0.00171559
0.00189489
0.00208717
0.00226946
0.00240479
0.00244726
0.00237872
0.00218309
0.00173452
0.000614
0.000604459
0.00059256
0.000577707
0.000559136
0.00053599
0.000507599
0.000473907
0.000435911
0.000395774
0.000356389
0.000320577
0.000290384
0.000266815
0.00024998
0.000239417
0.000234387
0.000234066
0.000237637
0.000244324
0.000253384
0.000264103
0.000275787
0.000287751
0.000299316
0.000309814
0.000318932
0.000326858
0.000333095
0.000337272
0.000339197
0.000338901
0.000336662
0.000333012
0.000328725
0.000324781
0.000322325
0.000322607
0.000326911
0.000336479
0.000352408
0.000375517
0.00040618
0.000444168
0.000488556
0.000537784
0.000589872
0.000642739
0.000694497
0.00074366
0.0007892
0.000830524
0.000867386
0.000899787
0.000927895
0.000951975
0.000972344
0.000989343
0.00100331
0.0010146
0.00102351
0.00103036
0.00103543
0.00103899
0.00104129
0.00104255
0.00104298
0.00104276
0.00104207
0.00104106
0.00103986
0.00103859
0.00103735
0.00103623
0.00103531
0.00103466
0.00103434
0.0010344
0.00103487
0.00103581
0.00103725
0.00103923
0.00104181
0.00104503
0.00104896
0.00105368
0.00105928
0.00106589
0.00107363
0.00108267
0.00109319
0.0011054
0.00111968
0.00113627
0.00115535
0.00117706
0.00120139
0.00122824
0.00125732
0.00128824
0.00132045
0.00135331
0.00138613
0.00141821
0.00144888
0.00147757
0.0015038
0.00152719
0.00154751
0.00156463
0.00157851
0.0015892
0.00159682
0.00160153
0.00160354
0.00160306
0.00160032
0.00159555
0.00158898
0.00158081
0.00157125
0.00156049
0.0015487
0.00153603
0.00152264
0.00150863
0.00149414
0.00147925
0.00146407
0.00144865
0.00143308
0.00141741
0.0014017
0.00138597
0.00137028
0.00135465
0.00133911
0.00132368
0.00130838
0.00129322
0.00127822
0.00126338
0.00124872
0.00123423
0.00121993
0.00120581
0.00119189
0.00117817
0.00116465
0.00115133
0.00113822
0.00112532
0.00111263
0.00110016
0.00108791
0.00107588
0.00106408
0.00105251
0.00104116
0.00103005
0.00101919
0.00100858
0.000998226
0.00098815
0.000978368
0.000968903
0.000959786
0.000951053
0.000942755
0.000934951
0.000927719
0.000921156
0.000915382
0.000910551
0.000906853
0.000904528
0.000903877
0.000905275
0.000909192
0.000916211
0.000927054
0.000942603
0.000963926
0.000992296
0.0010292
0.00107637
0.00113575
0.00120957
0.00130036
0.001411
0.00154453
0.0017033
0.00188656
0.00208599
0.00227956
0.00243002
0.00248989
0.00243384
0.00225836
0.0019029
0.000679208
0.00067251
0.000664401
0.000654529
0.000642425
0.000627472
0.000608946
0.00058614
0.000558611
0.000526487
0.000490695
0.00045294
0.000415375
0.000380109
0.000348777
0.000322345
0.00030113
0.000284962
0.000273373
0.000265741
0.000261399
0.000259685
0.000259974
0.000261688
0.00026431
0.000267403
0.000270848
0.000274684
0.000278808
0.000283163
0.000287776
0.00029278
0.000298436
0.00030514
0.000313409
0.000323864
0.00033718
0.000354032
0.000375017
0.000400567
0.000430858
0.000465735
0.000504677
0.000546821
0.000591056
0.000636152
0.000680906
0.000724263
0.000765384
0.000803671
0.000838747
0.000870425
0.000898661
0.000923515
0.000945118
0.000963645
0.000979301
0.000992308
0.00100289
0.00101129
0.00101772
0.00102243
0.00102562
0.00102751
0.0010283
0.0010282
0.00102737
0.00102599
0.00102421
0.00102217
0.00102
0.00101782
0.00101572
0.00101379
0.00101211
0.00101075
0.00100975
0.00100917
0.00100905
0.00100942
0.0010103
0.00101175
0.00101377
0.00101643
0.00101975
0.0010238
0.00102865
0.00103438
0.00104111
0.00104896
0.00105808
0.00106866
0.00108106
0.00109552
0.00111224
0.00113141
0.00115313
0.0011774
0.0012041
0.00123297
0.00126362
0.00129552
0.00132807
0.00136061
0.00139248
0.00142304
0.00145173
0.00147809
0.00150177
0.00152252
0.0015402
0.00155476
0.00156625
0.00157476
0.00158044
0.00158348
0.00158407
0.00158244
0.00157879
0.00157334
0.00156629
0.00155785
0.00154819
0.00153747
0.00152586
0.00151349
0.00150049
0.00148696
0.00147301
0.00145873
0.00144419
0.00142946
0.00141461
0.00139968
0.00138471
0.00136975
0.00135482
0.00133996
0.00132518
0.0013105
0.00129595