/*--------------------------------*- C++ -*----------------------------------*\
| =========                 |                                                 |
| \\      /  F ield         | OpenFOAM: The Open Source CFD Toolbox           |
|  \\    /   O peration     | Version:  2.4.0                                 |
|   \\  /    A nd           | Web:      www.OpenFOAM.org                      |
|    \\/     M anipulation  |                                                 |
\*---------------------------------------------------------------------------*/
FoamFile
{
    version     2.0;
    format      ascii;
    class       volScalarField;
    location    "0.101";
    object      k_0;
}
// * * * * * * * * * * * * * * * * * * * * * * * * * * * * * * * * * * * * * //

dimensions      [0 2 -2 0 0 0 0];

internalField   nonuniform List<scalar> 
4400
(
9.51977
8.51687
6.48822
5.31464
4.63827
4.19103
4.02419
3.78387
3.59661
3.54044
4.38953
6.79596
6.72561
6.30335
5.71441
5.1806
5.00201
4.67347
4.53726
4.4037
1.13847
3.19894
4.19765
4.53543
4.49389
4.24453
4.16181
3.92557
3.89068
3.75298
0.158397
0.963568
1.69619
2.2916
2.71776
2.76881
2.87893
2.84377
2.8734
2.8297
0.0166632
0.171397
0.418167
0.709853
1.12267
1.32813
1.51304
1.66918
1.74429
1.83847
0.00141174
0.0197053
0.0604427
0.120426
0.254842
0.417402
0.498114
0.677997
0.756139
0.929437
0.000134307
0.00191612
0.00555421
0.0120252
0.0280291
0.0713204
0.0931651
0.154969
0.19392
0.311231
4.28744e-05
0.000299913
0.000621131
0.000980368
0.00202096
0.00619761
0.00857696
0.0177163
0.0256363
0.0561079
3.45681e-05
0.000128672
0.000211295
0.000240708
0.000302218
0.000585493
0.000667368
0.00126155
0.00180345
0.00376452
3.30908e-05
0.000136403
0.000176436
0.000177113
0.000188766
0.000241248
0.000249814
0.000270859
0.000283985
0.000316601
3.29084e-05
0.000148434
0.000185999
0.000180168
0.000176383
0.000186068
0.000226572
0.000238164
0.00025388
0.000317578
3.36382e-05
0.000161804
0.000195309
0.000203322
0.000227461
0.000292455
0.000670631
0.000863498
0.00130463
0.00300626
4.08308e-05
0.000262922
0.000408356
0.00082823
0.00177829
0.00377568
0.00942429
0.0145668
0.0220119
0.0483459
0.000139756
0.00152812
0.00426384
0.0117593
0.0272185
0.0570777
0.0991094
0.149991
0.189054
0.309583
0.00150529
0.017157
0.0516428
0.128058
0.251966
0.382847
0.53504
0.662367
0.746742
0.95351
0.0175841
0.15212
0.410202
0.741047
1.09326
1.32257
1.53894
1.64833
1.73268
1.88595
0.166393
0.937914
1.7118
2.30648
2.68022
2.79391
2.86956
2.8465
2.85177
2.87274
1.18582
3.14385
4.22049
4.52608
4.47517
4.27766
4.13528
3.93057
3.8756
3.78112
4.41817
6.74427
6.73875
6.29084
5.70757
5.22121
4.95726
4.66029
4.57925
4.33822
9.54015
8.47367
6.52325
5.28863
4.63432
4.21807
3.99738
3.75192
3.68115
3.33235
2.10298
1.32985
0.889767
0.659277
0.609863
0.59816
0.648294
0.781982
0.864938
1.11593
1.06294
1.05853
0.857915
0.612606
0.579658
0.494846
0.42539
0.436605
0.429148
0.420795
0.419039
0.420716
0.406096
0.375471
0.315266
0.179447
0.0795967
0.0410609
0.02644
0.0253538
0.0299113
0.0548062
0.1191
0.178001
0.187475
0.180603
0.149994
0.134716
0.143917
0.21549
0.305534
0.310258
0.293792
0.250359
0.225575
0.214262
0.209994
0.207346
0.202436
0.18
0.171544
0.156018
0.136787
0.119045
0.107781
0.10198
0.100562
0.12502
0.280444
0.40439
0.489507
0.452812
0.402647
0.277201
0.173598
0.133261
0.128476
0.130632
0.143053
0.199929
0.216424
0.202089
0.144321
0.0818926
0.0594834
0.0464859
0.041822
0.0353899
0.0333798
0.0320683
0.034938
0.0374589
0.0490696
0.0487283
0.0541325
0.0527754
0.0576008
0.059023
0.0696685
0.0737634
0.0799164
0.0777265
0.06998
0.043702
0.0348018
0.0203466
0.0163924
0.0157242
0.0578635
0.478062
3.33438
2.41316
1.87555
1.57104
1.19247
0.939965
0.926917
0.918809
0.936462
1.09601
1.06644
1.1137
1.09744
0.964407
0.900961
0.798607
0.730766
0.654232
0.609093
0.561269
0.498199
0.46922
0.411248
0.332599
0.183205
0.0779414
0.038351
0.0254094
0.0220915
0.0245247
0.0418842
0.114746
0.217555
0.256075
0.257842
0.247254
0.209514
0.153882
0.144771
0.16156
0.230189
0.2826
0.282793
0.266329
0.247685
0.229751
0.219378
0.211583
0.203179
0.177618
0.168553
0.154949
0.132268
0.118952
0.116162
0.101449
0.100739
0.13219
0.339456
0.439825
0.541449
0.477308
0.404482
0.278901
0.168519
0.123656
0.119394
0.121808
0.133587
0.188825
0.208524
0.200814
0.15382
0.088669
0.0626313
0.0479828
0.0414269
0.0346183
0.0329128
0.0322903
0.0356278
0.0392582
0.052175
0.0523251
0.0572255
0.0553061
0.0600877
0.0596691
0.070829
0.0721
0.0851533
0.0813507
0.0833207
0.0604903
0.0478379
0.0242337
0.0276085
0.0184179
0.0513455
0.313357
3.10277
2.49771
2.07612
1.83298
1.64307
1.36862
1.28034
1.20192
1.06863
1.10127
1.06553
1.02722
1.03255
1.00124
0.900814
0.823855
0.782288
0.683773
0.621678
0.555399
0.481021
0.421918
0.296261
0.148244
0.0702502
0.0333087
0.0227723
0.0200555
0.0211026
0.0316608
0.0810925
0.225063
0.309123
0.325456
0.317092
0.294686
0.267386
0.198888
0.152438
0.149875
0.166944
0.224608
0.259772
0.258337
0.250878
0.233416
0.224019
0.212802
0.197147
0.175305
0.167462
0.155268
0.130579
0.116984
0.120016
0.120011
0.124204
0.210064
0.378132
0.518302
0.536051
0.466531
0.364219
0.263432
0.159273
0.114229
0.110176
0.113105
0.124959
0.17905
0.200681
0.198648
0.161032
0.0953069
0.0669529
0.0496175
0.0420368
0.0347006
0.0331851
0.033057
0.0371601
0.0411515
0.0547925
0.0556542
0.0600042
0.0575415
0.060949
0.0604672
0.0700828
0.0709498
0.0886327
0.086134
0.103642
0.0811358
0.0747359
0.0364759
0.0403967
0.0246692
0.0546053
0.201279
2.48068
2.11624
1.85624
1.65704
1.53244
1.3795
1.23728
1.18591
1.05847
0.991009
0.955344
0.856062
0.81516
0.800938
0.719266
0.642592
0.603105
0.503547
0.416889
0.332425
0.265425
0.172317
0.0948507
0.0513855
0.0270756
0.0181716
0.0180464
0.0188661
0.0250629
0.0563123
0.187892
0.345395
0.385247
0.371395
0.336851
0.298892
0.277014
0.249491
0.176399
0.151743
0.151899
0.167932
0.214907
0.238894
0.239034
0.231383
0.223133
0.203312
0.187512
0.174217
0.167757
0.156688
0.131623
0.115928
0.120888
0.127347
0.144913
0.275374
0.388383
0.560124
0.466263
0.366811
0.276449
0.224945
0.144206
0.105512
0.101912
0.105043
0.116662
0.170704
0.194122
0.195039
0.166271
0.100625
0.0713655
0.0513144
0.0438515
0.0353849
0.0343869
0.0343956
0.0392387
0.0436697
0.0590361
0.0607822
0.0652783
0.0617792
0.0643656
0.0637507
0.0703336
0.0708222
0.0820188
0.0803036
0.125685
0.113296
0.239845
0.127577
0.102239
0.0395268
0.0535154
0.121928
1.68875
1.4783
1.37609
1.26881
1.15663
1.11788
1.0144
0.963497
0.878197
0.757352
0.720122
0.631468
0.55898
0.539968
0.466491
0.401589
0.370096
0.295455
0.219945
0.143333
0.0935674
0.0565286
0.0322449
0.0199986
0.0141859
0.0148368
0.0169992
0.022057
0.041158
0.118834
0.344061
0.438536
0.432591
0.384399
0.331447
0.293076
0.270868
0.256144
0.217247
0.164194
0.152591
0.153628
0.166981
0.194315
0.209004
0.208352
0.201731
0.188766
0.182085
0.176818
0.171717
0.160229
0.136618
0.120387
0.123193
0.13212
0.166187
0.243651
0.433373
0.55745
0.40005
0.296641
0.235688
0.183565
0.125974
0.096896
0.0946329
0.0981022
0.109359
0.163713
0.186438
0.189477
0.170032
0.107189
0.0791935
0.0536492
0.0480103
0.0375093
0.0374891
0.0371767
0.0416437
0.0463923
0.0628932
0.0666975
0.0719665
0.0667485
0.0702215
0.0681119
0.0745704
0.075816
0.0779974
0.0831141
0.0823806
0.0932621
0.162946
0.156767
0.229842
0.145386
0.0896256
0.106621
0.881201
0.776536
0.739874
0.717988
0.68021
0.68229
0.643773
0.617171
0.575057
0.475625
0.449164
0.379482
0.298515
0.2794
0.223422
0.182971
0.153529
0.10928
0.0724702
0.044461
0.0278355
0.0175708
0.0126674
0.0112024
0.0118132
0.0152367
0.0223783
0.0370071
0.0809759
0.267362
0.474342
0.501083
0.454035
0.366141
0.306886
0.267446
0.254962
0.249514
0.234802
0.192403
0.159742
0.153862
0.156345
0.163907
0.175198
0.183672
0.182443
0.183072
0.18214
0.182084
0.178
0.166208
0.142121
0.124005
0.122702
0.133321
0.16269
0.209212
0.442553
0.450045
0.386939
0.300185
0.24337
0.164137
0.113169
0.0902329
0.0885963
0.0920393
0.103238
0.159754
0.1815
0.184093
0.171308
0.114314
0.0896571
0.0584135
0.053725
0.0424439
0.0428094
0.0418417
0.0455058
0.051689
0.0678331
0.0778678
0.0822477
0.0795135
0.0816965
0.0805452
0.0876257
0.0874337
0.0902657
0.0809543
0.0744881
0.0808106
0.195512
0.178708
0.201501
0.170615
0.180393
0.134258
0.298124
0.252097
0.250266
0.253763
0.25788
0.282157
0.272029
0.268557
0.255666
0.202943
0.183663
0.137944
0.0980776
0.0878746
0.0649251
0.0506639
0.0388677
0.027768
0.0178549
0.0116086
0.00846385
0.00791605
0.00855162
0.0100554
0.0144711
0.0286579
0.0438388
0.0734474
0.162274
0.446579
0.567897
0.53441
0.414581
0.328661
0.282823
0.249918
0.235905
0.234795
0.231443
0.218082
0.178528
0.158606
0.158133
0.160465
0.163394
0.174891
0.178714
0.191712
0.193851
0.194762
0.188179
0.171569
0.149791
0.130336
0.118312
0.123089
0.135275
0.179499
0.4
0.410063
0.403755
0.347178
0.292124
0.161693
0.105955
0.0853695
0.0843931
0.0878838
0.0986123
0.153046
0.180329
0.181772
0.172317
0.122885
0.100823
0.0645375
0.0595943
0.0477265
0.0494638
0.0479378
0.0535714
0.0572921
0.0716854
0.0791207
0.087997
0.0860666
0.0906014
0.0917214
0.0976324
0.10334
0.103464
0.0988573
0.0730036
0.0691396
0.0883997
0.148124
0.280635
0.229008
0.207121
0.155351
0.0525593
0.0433145
0.0438925
0.0475084
0.0564343
0.0754463
0.0744125
0.0733326
0.068619
0.0521565
0.0428837
0.0283881
0.0200963
0.0159715
0.0122757
0.00908673
0.00724051
0.00558801
0.00471307
0.00492241
0.00553745
0.00701209
0.010926
0.0174398
0.0329387
0.0650649
0.0893293
0.139326
0.322388
0.606747
0.629498
0.532286
0.369935
0.310662
0.266435
0.245399
0.233365
0.229936
0.228829
0.22607
0.206832
0.172754
0.16441
0.164912
0.166233
0.177929
0.185003
0.209655
0.212856
0.213569
0.204079
0.179909
0.158713
0.143721
0.117201
0.112008
0.120849
0.211243
0.291096
0.405771
0.474417
0.406603
0.343801
0.171639
0.103353
0.0822768
0.0815571
0.0844463
0.0944929
0.148873
0.17953
0.179861
0.171727
0.128913
0.110462
0.0717697
0.0675233
0.0557603
0.0589222
0.0566084
0.0635103
0.0660024
0.0796827
0.0849551
0.0986459
0.0968032
0.106117
0.106383
0.114296
0.111491
0.112011
0.105321
0.0799733
0.0697966
0.0482607
0.103962
0.111683
0.19351
0.256699
0.205763
0.00335173
0.00326958
0.00374624
0.00536021
0.0077796
0.0116807
0.01162
0.0109799
0.00927589
0.00640296
0.00453287
0.00326702
0.00253884
0.00233949
0.00232403
0.00237744
0.00264864
0.00305766
0.00394982
0.00656323
0.0100222
0.0170043
0.031699
0.0463472
0.0836032
0.127917
0.162525
0.240867
0.525098
0.689356
0.657322
0.473289
0.339731
0.303119
0.25949
0.250025
0.236705
0.232139
0.231891
0.235249
0.228146
0.204734
0.180421
0.178546
0.178919
0.189115
0.204686
0.239255
0.239375
0.23714
0.217633
0.196124
0.169707
0.15088
0.119736
0.115366
0.120724
0.226064
0.25962
0.49624
0.551051
0.44081
0.349346
0.175938
0.104481
0.0799973
0.0802056
0.0826334
0.0944413
0.144474
0.177236
0.176582
0.16992
0.134048
0.119131
0.0821804
0.0784015
0.0667704
0.0703759
0.0673479
0.0747526
0.0770623
0.0905151
0.0955895
0.112774
0.114669
0.126885
0.1265
0.135406
0.128841
0.130316
0.120702
0.0904322
0.0700531
0.043376
0.0766375
0.0698772
0.115809
0.218171
0.219308
0.000402429
0.000487705
0.000506297
0.000598694
0.000820099
0.00117789
0.00114357
0.00103158
0.000874247
0.000832638
0.000884011
0.00112153
0.00149204
0.00246013
0.00325928
0.00462336
0.00741862
0.0098364
0.0145439
0.0247918
0.0340711
0.0556939
0.0812275
0.107894
0.174961
0.22513
0.270829
0.39687
0.694132
0.730142
0.651697
0.4327
0.323186
0.299993
0.258238
0.252977
0.242704
0.241028
0.241603
0.254018
0.252471
0.24553
0.21749
0.211026
0.21081
0.220429
0.250799
0.276663
0.271991
0.263029
0.231504
0.210553
0.176324
0.150667
0.118426
0.119752
0.133226
0.242634
0.251867
0.646711
0.598521
0.444886
0.322971
0.159951
0.107673
0.0788394
0.0804126
0.082441
0.0973138
0.141335
0.176282
0.173788
0.167855
0.138548
0.126556
0.092234
0.0896659
0.0794677
0.0832876
0.0797526
0.0877308
0.0901493
0.105485
0.110646
0.132524
0.135441
0.154773
0.150804
0.161082
0.148799
0.149206
0.13478
0.100295
0.0717291
0.0443049
0.0593624
0.0525915
0.0859679
0.104108
0.178609
0.000374326
0.000387672
0.000430026
0.000465086
0.000598242
0.000622123
0.000652769
0.00083216
0.00112609
0.00173549
0.00339073
0.00622603
0.00859404
0.0144442
0.018054
0.0246485
0.0334789
0.0402969
0.0557384
0.0741837
0.0940609
0.139519
0.170751
0.219806
0.31394
0.36348
0.416739
0.598362
0.760004
0.745211
0.621361
0.41678
0.310609
0.29642
0.262992
0.25057
0.249302
0.261201
0.26421
0.277283
0.279657
0.279156
0.258836
0.258976
0.262184
0.280877
0.309844
0.314452
0.304131
0.286093
0.244808
0.218131
0.178839
0.146478
0.115604
0.117532
0.133304
0.195852
0.235407
0.69357
0.591634
0.357993
0.233197
0.132408
0.132687
0.0803588
0.0851197
0.0829847
0.111253
0.14248
0.177983
0.172396
0.168261
0.142683
0.133214
0.103205
0.102551
0.0937575
0.0979729
0.0949205
0.103445
0.107631
0.126987
0.136008
0.168558
0.174966
0.199408
0.189193
0.198341
0.176841
0.174915
0.148306
0.11133
0.0745817
0.045634
0.049276
0.044064
0.0687603
0.072343
0.104116
0.0038285
0.00506483
0.00539164
0.00539353
0.00591076
0.00617891
0.00676852
0.00911909
0.0120244
0.015679
0.0257638
0.036589
0.0465439
0.0651339
0.0741683
0.0908328
0.107378
0.122162
0.155394
0.180224
0.223544
0.276262
0.316494
0.40042
0.494895
0.534162
0.577962
0.713221
0.77125
0.705197
0.604062
0.414296
0.306445
0.295236
0.273764
0.247923
0.248758
0.267074
0.269136
0.293048
0.305327
0.307108
0.308196
0.310802
0.312147
0.337112
0.355079
0.350877
0.331974
0.2962
0.254461
0.219969
0.178068
0.138641
0.114754
0.112716
0.123183
0.135047
0.227522
0.700014
0.4939
0.270443
0.191236
0.143213
0.21069
0.0800483
0.101538
0.0845857
0.152563
0.148491
0.180442
0.172573
0.170722
0.147644
0.140238
0.11405
0.115571
0.108196
0.11322
0.113029
0.124021
0.13338
0.159922
0.175695
0.222515
0.229236
0.255814
0.234797
0.247623
0.210354
0.207836
0.169018
0.118854
0.0770139
0.047831
0.0443096
0.0385676
0.0552502
0.0563311
0.0697535
0.054989
0.0591082
0.0592218
0.0589348
0.061038
0.0625617
0.0653573
0.0744456
0.0837644
0.0946351
0.125309
0.147251
0.169394
0.197646
0.214414
0.239511
0.258865
0.289089
0.326882
0.358194
0.417701
0.462744
0.518653
0.61931
0.68057
0.672571
0.67302
0.736053
0.727631
0.641975
0.625298
0.445855
0.307656
0.298697
0.301867
0.271673
0.261819
0.270871
0.274691
0.306404
0.314347
0.330737
0.339229
0.336462
0.363027
0.389097
0.391074
0.37295
0.34119
0.295566
0.260475
0.215808
0.175686
0.130456
0.115161
0.106579
0.112506
0.114626
0.260397
0.629595
0.468562
0.286797
0.200581
0.224441
0.271667
0.0850575
0.165985
0.0876993
0.199115
0.161478
0.188326
0.17474
0.177036
0.153576
0.149451
0.128759
0.132017
0.128667
0.131939
0.146747
0.154882
0.171157
0.210448
0.233749
0.306417
0.303204
0.349794
0.30826
0.330559
0.279478
0.25727
0.176912
0.121062
0.0788715
0.0510618
0.04454
0.036895
0.0461799
0.0464452
0.0548955
0.30682
0.303055
0.293242
0.279659
0.277089
0.27196
0.272969
0.282182
0.293367
0.312754
0.357163
0.378632
0.399563
0.425752
0.440552
0.456119
0.480755
0.516088
0.540905
0.583238
0.6296
0.663009
0.732605
0.782876
0.773045
0.71922
0.700321
0.70903
0.628028
0.604969
0.694107
0.515934
0.32696
0.30047
0.321395
0.322052
0.300359
0.292147
0.29645
0.320581
0.329104
0.346479
0.364093
0.370832
0.424205
0.416197
0.409652
0.373928
0.338867
0.279787
0.260089
0.210513
0.168822
0.1195
0.112579
0.102839
0.104898
0.107886
0.274074
0.513509
0.509895
0.386506
0.229196
0.252575
0.256236
0.121591
0.324858
0.0933031
0.249557
0.183247
0.207995
0.180905
0.192542
0.162684
0.162628
0.153153
0.150614
0.156969
0.159163
0.176507
0.180799
0.200061
0.292403
0.324445
0.467001
0.447604
0.540867
0.463616
0.475256
0.382615
0.28122
0.17944
0.121535
0.0797655
0.0546505
0.0458792
0.0374214
0.0408719
0.0403387
0.0437954
0.907752
0.855376
0.778553
0.725392
0.689752
0.642407
0.623048
0.623701
0.627276
0.640039
0.660063
0.662869
0.665365
0.67052
0.676036
0.688309
0.711398
0.729232
0.744376
0.772342
0.793502
0.829944
0.855347
0.846222
0.804886
0.71863
0.670068
0.61671
0.509565
0.571589
0.818098
0.672338
0.382301
0.306274
0.325098
0.352257
0.364192
0.358192
0.355631
0.353552
0.372632
0.383994
0.418549
0.415178
0.433657
0.414828
0.401685
0.342019
0.319155
0.267494
0.247648
0.185992
0.154588
0.112181
0.109048
0.105334
0.102847
0.107653
0.262664
0.465102
0.689843
0.502363
0.263431
0.238039
0.184452
0.206787
0.327603
0.108379
0.251485
0.225084
0.266244
0.19813
0.215903
0.186102
0.175948
0.174898
0.169804
0.178654
0.178904
0.185888
0.214733
0.263663
0.513892
0.580112
0.852767
0.802259
0.847866
0.732589
0.584796
0.396799
0.274715
0.176752
0.121545
0.0790094
0.0590126
0.0491138
0.0411908
0.0412897
0.040084
0.0406932
1.72558
1.54051
1.35747
1.23203
1.1289
1.04222
1.00123
0.968554
0.935182
0.925362
0.906028
0.881313
0.876548
0.875219
0.877513
0.883204
0.883041
0.884335
0.889974
0.903256
0.910056
0.905328
0.893826
0.853328
0.741433
0.621977
0.552607
0.462999
0.418415
0.525189
0.89586
0.955336
0.518548
0.336267
0.319378
0.353093
0.379948
0.390813
0.406242
0.395033
0.419126
0.418246
0.42955
0.426221
0.413131
0.386094
0.328012
0.29262
0.308609
0.269271
0.23704
0.156618
0.146929
0.113755
0.111761
0.115382
0.112276
0.121295
0.239753
0.448876
0.790628
0.556421
0.300491
0.234169
0.193409
0.205689
0.231847
0.144314
0.304939
0.246129
0.35109
0.244686
0.226154
0.210258
0.193761
0.196977
0.195216
0.195384
0.202323
0.226081
0.374825
0.583707
1.13858
1.26973
1.29375
1.21478
1.00866
0.764523
0.523447
0.377005
0.256084
0.165116
0.122639
0.0788011
0.0675508
0.0567066
0.0543499
0.0495389
0.0442079
0.0428596
2.5279
2.14435
1.83801
1.62319
1.45598
1.34058
1.26077
1.18967
1.14271
1.108
1.0717
1.05602
1.04227
1.02412
1.01243
0.996081
0.981539
0.975371
0.970173
0.961237
0.94368
0.9099
0.837924
0.666933
0.493274
0.413211
0.377094
0.348443
0.35257
0.46145
0.893228
1.26779
0.85893
0.445575
0.33394
0.326123
0.355364
0.380975
0.397483
0.39047
0.414342
0.412861
0.412714
0.409221
0.340401
0.297639
0.252704
0.259135
0.278212
0.213163
0.202702
0.142117
0.130383
0.130794
0.136985
0.144004
0.148264
0.168797
0.244145
0.466676
0.789258
0.599072
0.448842
0.405887
0.230552
0.234403
0.320355
0.231913
0.366767
0.266699
0.324978
0.29645
0.244232
0.243532
0.23691
0.239564
0.248064
0.266863
0.340362
0.535064
1.09251
1.71106
1.73623
1.6884
1.40934
1.22309
0.781063
0.673855
0.433977
0.312605
0.234894
0.15129
0.135216
0.0964108
0.0978699
0.0861049
0.084846
0.0759304
0.0668172
0.0575305
3.11427
2.47551
2.07092
1.79629
1.6124
1.48998
1.40076
1.33848
1.28912
1.24799
1.20672
1.16293
1.12277
1.08652
1.05749
1.03192
1.01117
0.994322
0.973205
0.9318
0.858458
0.71453
0.489107
0.31577
0.241156
0.233912
0.261202
0.300152
0.319455
0.382177
0.77662
1.35954
1.44002
0.893085
0.489998
0.35365
0.321024
0.339721
0.35595
0.36218
0.375007
0.371754
0.355371
0.298857
0.213136
0.176215
0.160367
0.169261
0.156715
0.1629
0.14299
0.12822
0.129655
0.18815
0.199922
0.233223
0.287505
0.314162
0.324126
0.434232
0.730425
0.895309
0.728097
0.623087
0.332579
0.350741
0.491387
0.347638
0.386355
0.349186
0.363866
0.363071
0.335169
0.337819
0.353266
0.421406
0.595464
0.827492
1.22357
2.16183
2.26917
2.25109
1.87411
1.44506
0.960364
0.805047
0.561717
0.437006
0.363995
0.269421
0.276734
0.207983
0.24593
0.196398
0.223828
0.199286
0.205506
0.188558
0.183427
0.174692
3.2475
2.48319
2.07543
1.84274
1.71149
1.62541
1.55633
1.49099
1.42104
1.34646
1.26364
1.18225
1.11285
1.0552
1.01027
0.973309
0.934966
0.880577
0.791105
0.659095
0.500187
0.346972
0.23632
0.185121
0.178269
0.207978
0.268498
0.33345
0.382774
0.440071
0.60383
1.22821
1.64578
1.74176
1.42814
0.947166
0.570837
0.38884
0.318678
0.292048
0.268681
0.247239
0.219473
0.171432
0.144162
0.127692
0.127903
0.142861
0.15421
0.222798
0.16947
0.212927
0.214789
0.333316
0.439747
0.579336
0.5795
0.503388
0.401991
0.413656
0.594491
0.970552
1.12563
1.06059
0.907682
0.480799
0.82949
0.62192
0.530707
0.615401
0.600725
0.664914
0.751359
1.07753
1.37253
2.34948
2.69143
3.49376
3.29107
3.31576
2.52122
2.02622
1.05989
1.03584
0.755417
0.738862
0.605264
0.555278
0.589437
0.537284
0.67342
0.623254
0.780036
0.734034
0.875318
0.887209
0.960842
1.01421
1.1058
1.22939
2.27495
1.88279
1.72741
1.66425
1.6253
1.57379
1.49594
1.39278
1.27511
1.15206
1.02786
0.914373
0.814136
0.723405
0.639586
0.557296
0.472202
0.382492
0.293123
0.218187
0.170189
0.149267
0.149036
0.16831
0.207804
0.277575
0.413639
0.718198
1.30986
1.84644
1.90545
1.43211
1.04239
1.75203
2.76841
3.23936
3.17924
2.57693
1.8122
1.01599
0.561539
0.295614
0.177823
0.131095
0.122283
0.150021
0.139185
0.154524
0.181698
0.215561
0.274468
0.373182
0.409638
0.641808
0.655242
0.804738
0.697648
0.774447
0.702674
0.867597
0.734705
0.773386
1.18595
1.63415
2.87497
0.698349
1.70406
0.716187
0.580686
0.918473
1.54731
2.78954
3.38165
5.17025
5.3487
6.05705
5.10299
5.15738
3.43582
3.13206
1.40387
1.55402
0.593546
1.15408
0.494338
1.16145
0.654953
1.35176
1.01515
1.7038
1.55234
2.15035
2.13051
2.67077
2.81811
3.41654
3.55581
4.34519
4.55467
5.53152
0.0488912
0.12938
0.29462
0.578753
1.27753
1.25269
0.805853
0.49652
0.496189
0.593291
0.900334
0.947072
0.781166
0.664132
0.654456
0.608971
0.481774
0.49089
1.95537
4.33111
5.6808
6.04399
5.44341
4.25504
3.04609
2.13827
1.3064
0.881977
0.495723
0.420784
0.454569
0.620195
0.964744
1.4272
1.84552
2.23941
2.2945
2.18203
1.51129
0.863292
0.76338
0.927632
1.37729
1.78736
1.55343
1.52182
0.786957
0.491259
0.335668
0.283586
0.318116
0.37981
0.420771
0.414984
0.399355
0.394863
0.426709
0.505838
0.648418
0.864954
1.15394
1.37604
1.44093
1.35695
1.1883
0.97917
0.755938
0.523888
0.362722
0.24788
0.178567
0.125226
0.0934716
0.0763863
0.0729923
0.0791974
0.0899427
0.102089
0.110397
0.113034
0.110513
0.101611
0.0894354
0.0759007
0.0640495
0.0552938
0.0459735
0.0376515
0.030929
0.0258554
0.0234198
0.0241474
0.0267254
0.0289978
0.030532
0.0342922
0.0967724
0.251472
0.206899
0.0973246
0.109938
0.209857
0.195644
0.175927
0.241112
0.503668
0.516745
0.426823
0.270516
0.200232
0.212152
0.323053
0.382773
0.320356
0.310619
0.524917
1.76144
3.0582
3.32686
3.34397
2.22906
1.36245
0.818274
0.585494
0.491239
0.454819
0.439062
0.491994
0.493155
0.510053
0.482705
0.464067
0.469704
0.487152
0.537931
0.599713
0.616991
0.670601
0.869224
0.858962
0.774225
0.707746
0.764307
0.56359
0.312125
0.33585
0.230986
0.23234
0.240647
0.217596
0.230358
0.297085
0.426283
0.506136
0.518475
0.479581
0.386821
0.327139
0.323676
0.366441
0.488775
0.74603
0.947043
0.953024
0.769754
0.471818
0.293113
0.187067
0.13105
0.102584
0.0919524
0.0880588
0.0888424
0.0926703
0.0976342
0.104992
0.113112
0.122108
0.131303
0.14057
0.148407
0.152321
0.153184
0.148162
0.135349
0.114454
0.0869709
0.0584784
0.0374698
0.026832
0.0230819
0.0260437
0.0344323
0.0460177
0.0521985
0.0674832
0.14555
0.161579
0.0962792
0.113476
0.143605
0.200091
0.170801
0.110259
0.107972
0.14568
0.225121
0.217373
0.173626
0.132417
0.104408
0.115229
0.126344
0.152395
0.416616
1.5372
2.54554
2.68797
1.83857
0.880083
0.460709
0.306058
0.271955
0.269244
0.265628
0.255245
0.279175
0.294743
0.330149
0.391001
0.435175
0.434802
0.444912
0.427282
0.400319
0.39563
0.464
0.741252
0.876687
0.731004
0.459035
0.320906
0.303429
0.189947
0.155911
0.177802
0.171009
0.193702
0.218694
0.186328
0.17618
0.15837
0.155068
0.202352
0.258374
0.250991
0.172882
0.137478
0.161767
0.208044
0.242413
0.271338
0.347127
0.541426
0.575963
0.498095
0.287801
0.161045
0.109208
0.0937573
0.0878806
0.0867292
0.0869649
0.0888395
0.087444
0.0884781
0.0848411
0.08808
0.0896148
0.0998844
0.113342
0.132302
0.154506
0.173664
0.185668
0.188531
0.180065
0.158457
0.124868
0.0812901
0.0467104
0.0363062
0.0382885
0.0492856
0.058801
0.0903808
0.131877
0.0932671
0.0730976
0.100305
0.182381
0.156278
0.106975
0.0797218
0.0805692
0.0910758
0.128956
0.135892
0.128186
0.113813
0.0980961
0.0966231
0.108998
0.247949
1.03948
1.98961
2.23144
1.40251
0.600167
0.333609
0.267127
0.25795
0.268635
0.269772
0.256767
0.24033
0.251812
0.265936
0.272053
0.30932
0.320373
0.322854
0.31624
0.34947
0.403967
0.489619
0.617813
0.754619
0.754525
0.412842
0.225416
0.1774
0.161784
0.138625
0.138593
0.146023
0.1501
0.146727
0.169145
0.169151
0.173142
0.156536
0.125019
0.100598
0.104774
0.112015
0.102628
0.126717
0.207642
0.250326
0.262494
0.264368
0.258756
0.269535
0.374671
0.420077
0.356349
0.193344
0.115558
0.0918753
0.0799816
0.0760694
0.0671681
0.0633931
0.0525002
0.0472325
0.0393371
0.0378791
0.0347322
0.0352145
0.0367827
0.0421684
0.0539691
0.0789687
0.117896
0.15784
0.189491
0.201423
0.199101
0.179432
0.130234
0.07929
0.0635634
0.0647317
0.0608944
0.0865009
0.101642
0.0658979
0.0588139
0.0964786
0.201641
0.14055
0.0863526
0.0728594
0.0756539
0.0842
0.120837
0.13775
0.131833
0.130135
0.12423
0.114948
0.150327
0.558346
1.51986
1.84487
1.39097
0.570953
0.304778
0.245903
0.238419
0.243443
0.244529
0.238428
0.219163
0.227253
0.205301
0.253607
0.254815
0.301722
0.312298
0.321617
0.287959
0.280016
0.306068
0.434514
0.572519
0.640022
0.499512
0.243426
0.1497
0.139719
0.141782
0.137789
0.144195
0.146839
0.150292
0.141169
0.15593
0.142192
0.171885
0.162206
0.143967
0.0939917
0.0765948
0.0829287
0.0961407
0.150988
0.216472
0.259244
0.273946
0.276959
0.274908
0.259731
0.273346
0.353323
0.357264
0.266753
0.142107
0.095163
0.0705491
0.058469
0.0478081
0.0430303
0.0357926
0.0325248
0.029464
0.0282288
0.0271774
0.0264235
0.0257662
0.0256222
0.0260397
0.0271373
0.0312545
0.0462946
0.0940262
0.15244
0.188859
0.208589
0.205496
0.17212
0.122028
0.105173
0.0812729
0.0795882
0.0835043
0.0500189
0.044154
0.0947497
0.205552
0.117418
0.0793034
0.0758758
0.082876
0.0916616
0.142122
0.152703
0.158896
0.179122
0.190423
0.178268
0.276435
1.0347
1.50172
1.45913
0.653371
0.318153
0.236774
0.223833
0.221579
0.227435
0.22679
0.217869
0.205596
0.219771
0.174911
0.197963
0.2063
0.262159
0.30909
0.348681
0.343999
0.283518
0.281885
0.364601
0.456267
0.449392
0.307811
0.168304
0.127271
0.127354
0.141923
0.148037
0.15582
0.160666
0.155603
0.148568
0.169376
0.136926
0.150932
0.158813
0.156203
0.115093
0.0748009
0.0741179
0.0954099
0.166689
0.205385
0.234732
0.254654
0.261761
0.266364
0.259762
0.257491
0.293093
0.335093
0.310539
0.19586
0.113076
0.0730747
0.0535348
0.0416035
0.0369121
0.0328795
0.0312432
0.0306096
0.0308709
0.0334187
0.0338101
0.0340723
0.0322911
0.029365
0.0256574
0.0227505
0.0221546
0.0253333
0.0423953
0.100043
0.166437
0.201841
0.211513
0.194446
0.173415
0.134643
0.084471
0.0770016
0.0433078
0.0388442
0.0941139
0.196043
0.107051
0.0788742
0.0869232
0.0990609
0.110932
0.152459
0.16872
0.204952
0.28926
0.318671
0.327795
0.610138
1.18194
1.35871
0.834475
0.367298
0.243763
0.220255
0.222246
0.224883
0.237491
0.22321
0.215594
0.206568
0.216134
0.170558
0.184609
0.198852
0.231349
0.26931
0.331079
0.40234
0.358328
0.300324
0.316211
0.379504
0.333107
0.216084
0.147752
0.126514
0.132611
0.144983
0.149422
0.159397
0.167018
0.148356
0.167224
0.181598
0.151865
0.144342
0.142804
0.165344
0.148613
0.0902548
0.0766453
0.107481
0.173437
0.196899
0.212497
0.232891
0.241653
0.24333
0.245426
0.245967
0.260551
0.313955
0.310483
0.240835
0.136313
0.079979
0.053667
0.0410629
0.0360772
0.0335387
0.0333165
0.0365177
0.0385911
0.0412069
0.0422003
0.043856
0.0441632
0.0427708
0.0389713
0.0318148
0.0240389
0.0193671
0.0195583
0.0278031
0.057313
0.13761
0.191316
0.207294
0.210651
0.207812
0.11895
0.0794688
0.0413831
0.0391236
0.0940852
0.183491
0.102996
0.0878193
0.10427
0.125404
0.134119
0.129833
0.205083
0.312627
0.405123
0.44591
0.513891
0.862918
1.13485
1.03046
0.47185
0.267287
0.223657
0.220869
0.229969
0.254216
0.256534
0.206898
0.212112
0.211052
0.217934
0.171932
0.192393
0.218393
0.248472
0.273301
0.303713
0.402735
0.429913
0.374765
0.302401
0.327412
0.292045
0.192332
0.14755
0.137263
0.149626
0.15669
0.152109
0.153838
0.161148
0.134857
0.171475
0.181536
0.169568
0.149068
0.140328
0.16759
0.177418
0.134999
0.0950976
0.114514
0.134424
0.156915
0.191103
0.221781
0.238691
0.239058
0.233788
0.23306
0.238968
0.287003
0.302119
0.271582
0.164374
0.0894232
0.0552954
0.0412616
0.0367291
0.0367633
0.03901
0.041486
0.042007
0.0439549
0.0449174
0.0475266
0.048945
0.0498187
0.0490051
0.0447412
0.0376988
0.0272234
0.0187419
0.0171558
0.0211343
0.0412286
0.107363
0.173659
0.199913
0.233176
0.194684
0.0913499
0.0436111
0.0478372
0.0983797
0.169961
0.102544
0.0918708
0.110496
0.132854
0.142055
0.12121
0.302225
0.369535
0.456412
0.522591
0.655766
0.881151
1.00525
0.644348
0.319041
0.23561
0.217488
0.230063
0.245099
0.287578
0.260487
0.18092
0.18018
0.205593
0.212121
0.187337
0.222067
0.261338
0.291885
0.305925
0.310505
0.361329
0.444797
0.457714
0.345699
0.312954
0.276562
0.192912
0.155889
0.160204
0.163892
0.170876
0.149963
0.131325
0.155453
0.127081
0.17504
0.168756
0.171861
0.166773
0.141552
0.157405
0.185428
0.171988
0.128098
0.119726
0.117773
0.144598
0.184791
0.215393
0.238472
0.240378
0.234023
0.226522
0.227221
0.256945
0.292446
0.284079
0.210347
0.104599
0.0581544
0.0420626
0.0393034
0.041358
0.0427093
0.0427831
0.0423425
0.0432628
0.0445954
0.0475535
0.0495684
0.0521859
0.0530585
0.0521448
0.0473129
0.0399938
0.029174
0.0187055
0.0157824
0.018257
0.0339458
0.0834726
0.152694
0.219992
0.225827
0.129561
0.0533974
0.0566112
0.104651
0.162849
0.103521
0.0930831
0.110113
0.132745
0.144189
0.180531
0.330652
0.379817
0.466062
0.544222
0.68594
0.819054
0.756319
0.410158
0.263859
0.228645
0.22184
0.246455
0.242931
0.289876
0.240941
0.174286
0.170548
0.197042
0.193407
0.194952
0.231991
0.27742
0.302314
0.311661
0.31361
0.320288
0.412889
0.487832
0.439235
0.329128
0.278614
0.204087
0.16566
0.16807
0.17707
0.168854
0.146713
0.131068
0.146279
0.124587
0.162657
0.156069
0.171483
0.177664
0.148828
0.135794
0.171504
0.188007
0.156842
0.115422
0.111446
0.149027
0.188915
0.215891
0.242838
0.24935
0.242549
0.223357
0.218429
0.231326
0.278808
0.285142
0.247652
0.13063
0.0646446
0.0462396
0.0439177
0.0446824
0.0446745
0.0424822
0.0416514
0.0423324
0.0433321
0.0475661
0.0486295
0.0524942
0.0535223
0.0549071
0.0535184
0.0465196
0.0391282
0.0285886
0.0188309
0.0148711
0.0168305
0.0301901
0.0657012
0.163554
0.222192
0.187126
0.0828233
0.0749011
0.121327
0.159321
0.105535
0.0941468
0.109726