/*--------------------------------*- C++ -*----------------------------------*\
| =========                 |                                                 |
| \\      /  F ield         | OpenFOAM: The Open Source CFD Toolbox           |
|  \\    /   O peration     | Version:  2.4.0                                 |
|   \\  /    A nd           | Web:      www.OpenFOAM.org                      |
|    \\/     M anipulation  |                                                 |
\*---------------------------------------------------------------------------*/
FoamFile
{
    version     2.0;
    format      ascii;
    class       volScalarField;
    location    "0.101";
    object      pMean;
}
// * * * * * * * * * * * * * * * * * * * * * * * * * * * * * * * * * * * * * //

dimensions      [0 2 -2 0 0 0 0];

internalField   nonuniform List<scalar> 
4400
(
145.918
124.041
115.471
111.283
107.759
104.275
100.756
97.2317
93.4792
88.7528
144.01
124.106
115.507
111.294
107.761
104.276
100.757
97.2334
93.4975
89.258
142.811
124.411
115.64
111.332
107.781
104.283
100.761
97.2317
93.5824
89.5132
142.08
124.78
115.815
111.39
107.823
104.311
100.774
97.2535
93.6738
89.8422
141.488
125.116
115.991
111.449
107.882
104.353
100.806
97.2729
93.7977
90.1508
140.977
125.395
116.145
111.493
107.938
104.406
100.846
97.3148
93.9377
90.4854
140.557
125.617
116.272
111.519
107.983
104.452
100.887
97.3597
94.0466
90.8822
140.235
125.784
116.373
111.532
108.015
104.49
100.924
97.4095
94.1247
91.2372
140.018
125.898
116.441
111.539
108.035
104.519
100.95
97.4599
94.2201
91.5901
139.909
125.956
116.475
111.541
108.048
104.535
100.977
97.5058
94.3281
91.8631
139.908
125.958
116.475
111.542
108.05
104.544
100.993
97.5539
94.4335
92.0889
140.015
125.903
116.442
111.541
108.045
104.541
101.008
97.6015
94.5345
92.2682
140.23
125.792
116.375
111.537
108.029
104.529
101.016
97.6449
94.6347
92.4054
140.55
125.627
116.275
111.527
108.003
104.506
101.017
97.6863
94.7338
92.5004
140.969
125.407
116.147
111.504
107.963
104.473
101.014
97.7216
94.8282
92.5602
141.479
125.129
115.994
111.463
107.912
104.434
101.007
97.7527
94.9067
92.6072
142.071
124.793
115.819
111.407
107.858
104.4
101.002
97.7796
94.9618
92.6453
142.803
124.424
115.644
111.351
107.819
104.381
101.003
97.8009
94.9936
92.6806
144.003
124.118
115.512
111.313
107.801
104.376
101.006
97.813
95.0058
92.7183
145.911
124.054
115.476
111.303
107.798
104.377
101.008
97.8171
95.0075
92.8211
85.9455
85.5204
84.1588
82.7396
81.6968
81.1516
81.109
80.7108
80.4275
80.0328
79.1745
78.2279
77.4651
77.4559
78.0803
79.013
80.2201
81.7765
83.5373
85.34
87.0971
88.754
90.2231
91.4629
92.4326
93.1487
93.6211
93.9235
94.1082
94.1929
94.1824
94.1356
94.0757
94.0554
94.0683
94.1877
94.3301
94.5873
94.8757
95.2683
95.7667
96.3541
97.0145
97.7389
98.4777
99.1253
99.7288
100.22
100.621
100.932
101.195
101.389
101.519
101.568
101.67
101.599
101.729
101.576
101.746
101.567
101.737
101.703
102.057
102.206
102.73
102.909
103.457
103.511
103.939
103.724
103.997
103.607
103.861
103.427
103.744
103.329
103.768
103.383
103.937
103.526
104.127
103.65
104.218
103.672
104.146
103.526
103.859
103.16
103.3
102.478
102.399
101.349
101.067
99.5764
99.1771
96.6451
96.2304
90.4739
89.6363
62.1199
86.4424
85.7692
84.724
83.54
82.5807
82.0169
81.9206
81.6596
81.4129
81.0951
80.3388
79.4648
78.7232
78.6151
79.1425
80.0214
81.1335
82.5481
84.1635
85.8173
87.4265
88.9381
90.2781
91.3955
92.2451
92.844
93.2217
93.4305
93.5185
93.5155
93.4393
93.3476
93.285
93.301
93.385
93.6024
93.8533
94.2367
94.641
95.1342
95.7186
96.3497
97.0524
97.7877
98.5242
99.1483
99.7381
100.21
100.596
100.906
101.168
101.337
101.439
101.474
101.549
101.473
101.588
101.414
101.583
101.352
101.5
101.446
101.831
101.999
102.551
102.758
103.338
103.413
103.865
103.647
103.93
103.51
103.77
103.287
103.621
103.129
103.609
103.108
103.742
103.173
103.913
103.224
104.021
103.18
103.956
102.986
103.669
102.583
103.079
101.84
102.075
100.559
100.519
98.4234
98.3087
94.7263
94.6853
86.3768
85.1291
54.5118
87.1757
86.3171
85.2735
84.2322
83.3834
82.8409
82.6891
82.5067
82.2743
81.982
81.3588
80.612
79.9469
79.7823
80.2351
81.0789
82.1284
83.4102
84.876
86.381
87.8347
89.1894
90.3766
91.3483
92.059
92.5334
92.8118
92.9325
92.9356
92.8579
92.7212
92.5946
92.5405
92.6057
92.7721
93.094
93.4655
93.9822
94.5037
95.1018
95.7762
96.4482
97.1999
97.9426
98.6781
99.2819
99.8626
100.309
100.696
100.992
101.262
101.393
101.482
101.493
101.543
101.453
101.546
101.351
101.505
101.232
101.356
101.274
101.688
101.871
102.436
102.67
103.26
103.358
103.814
103.6
103.867
103.436
103.668
103.159
103.47
102.929
103.401
102.816
103.469
102.774
103.587
102.715
103.663
102.56
103.607
102.263
103.348
101.781
102.777
100.982
101.715
99.6083
99.9455
97.1262
97.2392
92.6073
93.0411
82.984
80.0224
52.7457
87.8277
86.981
85.9562
84.9744
84.2057
83.6956
83.5058
83.3645
83.1491
82.8826
82.3865
81.7707
81.2141
81.0376
81.4223
82.2192
83.2104
84.3723
85.6811
87.0259
88.3126
89.488
90.4968
91.3022
91.8675
92.222
92.4059
92.4499
92.3837
92.2401
92.0505
91.9001
91.8666
91.9905
92.2462
92.6755
93.1775
93.8291
94.461
95.1699
95.9279
96.644
97.4541
98.1962
98.9353
99.5192
100.088
100.504
100.905
101.183
101.472
101.559
101.654
101.629
101.67
101.556
101.617
101.389
101.523
101.205
101.317
101.194
101.636
101.824
102.393
102.646
103.231
103.349
103.787
103.585
103.811
103.383
103.557
103.045
103.296
102.738
103.153
102.529
103.134
102.372
103.165
102.183
103.163
101.873
103.049
101.391
102.788
100.723
102.286
99.7549
101.257
98.2887
99.3842
95.7099
96.0624
90.5493
90.7122
79.9778
74.1928
53.0472
88.3473
87.6197
86.7418
85.7753
85.031
84.5429
84.3428
84.2413
84.0769
83.8585
83.4744
82.9874
82.5506
82.394
82.7084
83.4319
84.3542
85.397
86.5431
87.7105
88.8113
89.7919
90.6112
91.2492
91.6767
91.9225
92.0249
92.007
91.8852
91.6855
91.4525
91.2888
91.281
91.4693
91.8219
92.3617
92.9967
93.7759
94.5103
95.3373
96.1678
96.9343
97.8063
98.535
99.2839
99.8462
100.402
100.772
101.209
101.463
101.787
101.827
101.945
101.867
101.921
101.766
101.812
101.531
101.656
101.27
101.387
101.215
101.684
101.861
102.431
102.691
103.257
103.392
103.79
103.601
103.764
103.343
103.439
102.935
103.102
102.551
102.871
102.249
102.751
101.987
102.672
101.678
102.554
101.224
102.308
100.526
101.875
99.5306
101.201
98.1771
100.205
96.3691
98.3509
93.6354
95.1534
88.7117
88.2284
77.6769
67.5654
52.8195
88.8037
88.1987
87.4554
86.5329
85.8108
85.3782
85.2102
85.1611
85.0579
84.8938
84.6059
84.236
83.9163
83.8018
84.0543
84.6791
85.5097
86.4283
87.4034
88.38
89.286
90.0657
90.7044
91.1936
91.4983
91.6535
91.6938
91.6262
91.459
91.2127
90.9464
90.7802
90.8026
91.0559
91.5065
92.1597
92.9255
93.8248
94.6573
95.6057
96.4911
97.3182
98.245
98.9483
99.7055
100.248
100.785
101.096
101.597
101.821
102.197
102.184
102.347
102.203
102.285
102.062
102.134
101.765
101.914
101.423
101.57
101.337
101.839
101.98
102.561
102.805
103.354
103.49
103.836
103.658
103.737
103.328
103.326
102.841
102.901
102.37
102.57
101.973
102.338
101.609
102.14
101.197
101.9
100.641
101.524
99.8203
100.931
98.6283
100.061
96.9162
98.7258
94.3842
96.5288
90.7949
93.0367
85.3657
84.5287
74.9389
63.1614
53.3034
89.3875
88.7501
87.9963
87.1446
86.5184
86.1984
86.1007
86.095
86.0427
85.9287
85.7253
85.458
85.2392
85.1749
85.3796
85.8952
86.6096
87.3996
88.2096
88.9986
89.711
90.3038
90.789
91.1535
91.3536
91.4391
91.431
91.3231
91.117
90.8327
90.5451
90.3878
90.4464
90.768
91.3143
92.0805
92.9689
93.9768
94.8999
95.9663
96.8881
97.7893
98.7504
99.4243
100.184
100.713
101.214
101.457
102.06
102.235
102.679
102.61
102.837
102.629
102.761
102.449
102.575
102.087
102.283
101.658
101.866
101.546
102.099
102.175
102.789
102.989
103.534
103.651
103.939
103.766
103.746
103.35
103.236
102.775
102.71
102.211
102.267
101.712
101.914
101.239
101.588
100.719
101.219
100.061
100.715
99.165
99.992
97.9233
98.9417
96.068
97.2476
93.0771
94.4404
88.4595
89.5751
81.2074
79.4181
70.6738
60.9751
53.8014
90.211
89.4666
88.4698
87.6488
87.156
86.9599
86.9367
86.975
86.9678
86.904
86.7759
86.5953
86.4566
86.4382
86.61
87.0245
87.6178
88.2768
88.9346
89.5523
90.0911
90.5306
90.897
91.1551
91.2634
91.2951
91.2489
91.1046
90.8682
90.5606
90.2635
90.1182
90.2183
90.6129
91.2553
92.1277
93.1276
94.2319
95.2372
96.4077
97.3488
98.3317
99.2978
99.9552
100.698
101.216
101.677
101.836
102.57
102.676
103.195
103.088
103.399
103.138
103.329
102.942
103.117
102.524
102.751
101.98
102.28
101.835
102.457
102.439
103.12
103.241
103.813
103.88
104.114
103.94
103.809
103.43
103.192
102.759
102.557
102.097
101.995
101.49
101.508
100.897
101.039
100.253
100.524
99.4607
99.866
98.4221
98.9743
97.0235
97.6809
94.9629
95.5637
91.7423
92.0073
86.6275
85.8302
78.5701
75.134
68.0224
60.1875
53.4735
90.8242
90.035
88.9082
88.1048
87.7169
87.6348
87.6976
87.7906
87.8288
87.8101
87.7408
87.6294
87.5525
87.5709
87.7245
88.0553
88.5311
89.0598
89.578
90.0521
90.4501
90.7755
91.0523
91.2129
91.238
91.2281
91.1503
90.9796
90.7265
90.4105
90.1133
89.985
90.1308
90.5996
91.3319
92.2991
93.3962
94.5802
95.6639
96.9055
97.8639
98.9232
99.8684
100.534
101.227
101.748
102.137
102.232
103.106
103.135
103.732
103.588
103.993
103.715
103.968
103.533
103.75
103.079
103.312
102.399
102.798
102.19
102.913
102.766
103.562
103.561
104.201
104.18
104.384
104.194
103.951
103.59
103.226
102.824
102.476
102.064
101.789
101.346
101.16
100.626
100.533
99.8442
99.8419
98.89
98.9884
97.6539
97.8685
96.0028
96.26
93.6383
93.68
90.1389
89.3713
84.8943
82.3833
77.3075
72.7174
67.7353
60.0299
53.2243
91.2867
90.5161
89.3599
88.5829
88.2638
88.2713
88.4093
88.5506
88.6266
88.642
88.617
88.5607
88.5332
88.5831
88.7282
88.9922
89.3594
89.7645
90.1591
90.5151
90.8083
91.0566
91.2601
91.3265
91.2757
91.2357
91.1384
90.9564
90.6956
90.3771
90.093
89.9982
90.1992
90.7397
91.5527
92.5987
93.7753
95.0164
96.1707
97.4427
98.4196
99.5406
100.448
101.147
101.747
102.287
102.575
102.651
103.64
103.592
104.28
104.102
104.624
104.336
104.647
104.202
104.433
103.734
103.948
102.933
103.397
102.618
103.452
103.169
104.094
103.953
104.695
104.555
104.751
104.535
104.19
103.848
103.367
102.993
102.514
102.141
101.713
101.319
100.945
100.476
100.14
99.5502
99.2421
98.4179
98.1424
96.9561
96.7185
95.0315
94.7238
92.3847
91.6885
88.6967
87.016
83.5711
80.3617
77.0114
72.0376
68.9515
60.3275
53.9243
91.6469
90.9255
89.8011
89.0636
88.7958
88.8621
89.0558
89.2402
89.3545
89.4048
89.4186
89.412
89.4273
89.5016
89.6407
89.8518
90.1255
90.4235
90.7149
90.969
91.1755
91.3683
91.5088
91.4872
91.3702
91.3121
91.2045
91.025
90.7746
90.4754
90.2257
90.1769
90.4415
91.0517
91.934
93.0433
94.2743
95.5478
96.7544
98.0207
99.0137
100.172
101.039
101.78
102.247
102.837
102.978
103.128
104.169
104.085
104.817
104.644
105.263
104.991
105.359
104.925
105.16
104.47
104.648
103.603
104.066
103.149
104.073
103.672
104.71
104.425
105.268
105.013
105.197
104.977
104.513
104.218
103.607
103.285
102.675
102.357
101.791
101.454
100.919
100.515
99.9717
99.464
98.8795
98.1641
97.5203
96.4889
95.7595
94.321
93.3964
91.4552
90.0762
87.7053
85.4982
83.0076
79.6067
77.6761
72.3719
70.4556
61.2329
55.3021
91.9009
91.2448
90.2102
89.5497
89.3373
89.4461
89.6734
89.8874
90.0337
90.1172
90.1664
90.2008
90.2515
90.343
90.4719
90.637
90.8369
91.0504
91.2487
91.4134
91.5511
91.6992
91.7797
91.6738
91.5005
91.4385
91.3346
91.1734
90.9574
90.7048
90.514
90.5292
90.8632
91.537
92.4823
93.64
94.8998
96.1846
97.4188
98.6502
99.653
100.82
101.646
102.43
102.74
103.405
103.364
103.714
104.679
104.646
105.359
105.235
105.929
105.674
106.09
105.689
105.915
105.289
105.404
104.414
104.795
103.822
104.754
104.287
105.365
104.982
105.882
105.543
105.695
105.499
104.901
104.683
103.92
103.692
102.93
102.721
101.992
101.778
101.06
100.786
100.034
99.6452
98.8178
98.2212
97.2778
96.4004
95.2784
94.0767
92.6735
91.127
89.2771
87.5465
84.9867
83.5084
79.8484
79.0511
73.2752
71.6985
62.5719
56.4615
92.0656
91.4969
90.6074
90.0554
89.8996
90.0254
90.2584
90.4811
90.6472
90.7588
90.8392
90.9097
90.99
91.0884
91.2006
91.3259
91.4599
91.594
91.7154
91.8064
91.8895
92.0092
92.0506
91.878
91.6686
91.6151
91.5395
91.4187
91.2548
91.0696
90.9611
91.0564
91.4563
92.1851
93.1818
94.371
95.6418
96.9253
98.1636
99.3407
100.348
101.492
102.28
103.093
103.259
104.034
103.796
104.436
105.203
105.303
105.86
105.924
106.568
106.411
106.842
106.513
106.71
106.206
106.209
105.384
105.567
104.694
105.485
105.04
106.043
105.639
106.503
106.136
106.217
106.075
105.329
105.204
104.282
104.174
103.249
103.196
102.279
102.262
101.319
101.278
100.26
100.126
98.9924
98.6822
97.379
96.8305
95.2846
94.4842
92.597
91.6171
89.2627
88.3665
85.3307
84.9223
80.7396
80.656
74.4254
72.541
63.826
57.2266
92.1261
91.6604
90.9714
90.5571
90.4613
90.5892
90.8055
91.0174
91.1899
91.3209
91.4266
91.5234
91.6186
91.714
91.807
91.8948
91.9793
92.0566
92.1118
92.1365
92.1752
92.2769
92.2987
92.0914
91.8713
91.8323
91.8089
91.7543
91.6635
91.5704
91.5663
91.7485
92.2086
92.9776
94.0055
95.2066
96.4759
97.7505
98.9703
100.09
101.098
102.186
102.944
103.775
103.83
104.718
104.312
105.298
105.717
106.078
106.376
106.751
107.214
107.236
107.587
107.4
107.514
107.199
107.043
106.48
106.373
105.756
106.219
105.932
106.702
106.408
107.099
106.802
106.738
106.673
105.771
105.73
104.665
104.668
103.602
103.702
102.621
102.812
101.66
101.895
100.603
100.829
99.3396
99.4912
97.7372
97.7598
95.6652
95.5605
93.0358
92.9202
89.869
89.9831
86.2613
86.7055
81.9342
81.9966
75.4791
72.9712
64.7957
57.8202
92.1103
91.7719
91.3213
91.05
90.9921
91.0954
91.278
91.4694
91.6383
91.7781
91.8949
91.9994
92.095
92.182
92.2603
92.3258
92.3775
92.4122
92.4192
92.3961
92.4059
92.5012
92.5224
92.3222
92.1256
92.1117
92.1473
92.165
92.1601
92.1763
92.2926
92.5704
93.085
93.8771
94.9126
96.1057
97.3615
98.6169
99.8054
100.876
101.873
102.884
103.627
104.471
104.435
105.435
104.872
106.223
106.333
106.908
106.973
107.72
107.856
108.185
108.296
108.334
108.279
108.227
107.839
107.658
107.183
106.983
106.969
106.97
107.344
107.286
107.652
107.537
107.228
107.27
106.199
106.229
105.045
105.139
103.959
104.192
102.976
103.36
102.03
102.534
101
101.599
99.7819
100.455
98.2615
98.9785
96.3022
97.0608
93.8257
94.6756
90.867
91.8498
87.4598
88.3183
83.0996
82.8772
76.2926
73.0874
65.5215
58.4348
92.0664
91.8532
91.6301
91.4707
91.4267
91.4985
91.6423
91.8068
91.9637
92.1032
92.2249
92.3345
92.4319
92.5128
92.5771
92.6228
92.6517
92.6604
92.6434
92.6013
92.6086
92.7079
92.7353
92.5728
92.4316
92.4584
92.5535
92.6463
92.7321
92.8587
93.0915
93.4593
94.016
94.8129
95.8329
97.0009
98.2331
99.4617
100.619
101.655
102.63
103.563
104.313
105.156
105.056
106.172
105.431
107.097
106.934
107.743
107.438
108.729
108.445
109.201
108.892
109.288
108.904
109.222
108.509
108.777
107.894
108.204
107.658
108.072
107.938
108.238
108.13
108.325
107.672
107.826
106.586
106.665
105.4
105.553
104.293
104.626
103.312
103.855
102.389
103.128
101.398
102.337
100.25
101.416
98.8567
100.238
97.0639
98.6398
94.7787
96.4726
91.9938
93.5727
88.6291
89.5492
84.0608
83.3094
76.9037
73.0489
66.085
59.0964
92.0939
91.9511
91.855
91.7656
91.7292
91.7758
91.8872
92.027
92.1716
92.3091
92.4334
92.5438
92.637
92.7109
92.766
92.8019
92.8205
92.8203
92.8045
92.7762
92.8039
92.9124
92.9561
92.8551
92.7876
92.865
93.0189
93.1809
93.3479
93.5706
93.8985
94.3359
94.9159
95.6974
96.6821
97.8107
99.0096
100.21
101.343
102.361
103.31
104.177
104.938
105.759
105.611
106.87
106
107.892
107.36
108.702
107.899
109.587
108.936
110.069
109.375
110.211
109.405
110.159
109.056
109.755
108.498
109.254
108.242
109.113
108.468
109.206
108.574
109.099
108.045
108.298
106.92
107.024
105.716
105.895
104.582
104.991
103.602
104.28
102.704
103.647
101.756
102.995
100.69
102.281
99.4325
101.371
97.8158
100.037
95.7138
98.005
93.0431
94.9436
89.6096
90.3761
84.779
83.4235
77.3822
73.0045
66.5135
59.7689
92.1706
92.0685
92.0052
91.937
91.9055
91.9374
92.0258
92.1473
92.2826
92.417
92.5394
92.6459
92.7337
92.803
92.8546
92.889
92.9146
92.9279
92.931
92.9346
92.9974
93.1219
93.1876
93.1552
93.1646
93.2955
93.4986
93.7112
93.9362
94.2232
94.6088
95.0866
95.672
96.4231
97.3588
98.4397
99.6032
100.778
101.896
102.914
103.848
104.675
105.433
106.206
106.058
107.431
106.472
108.585
107.593
109.495
108.344
110.165
109.273
110.78
109.747
110.952
109.758
110.874
109.436
110.487
108.941
110.063
108.676
109.945
108.853
110.026
108.891
109.73
108.292
108.668
107.176
107.283
105.939
106.142
104.782
105.265
103.813
104.611
102.948
104.061
102.051
103.529
101.071
102.986
99.9402
102.276
98.4759
101.121
96.5108
99.1553
93.8845
95.9214
90.337
90.8816
85.2737
83.3953
77.7401
73.0108
66.8131
60.3887
92.2555
92.1626
92.0829
92.0139
91.9827
92.0045
92.0778
92.1876
92.3171
92.4506
92.5732
92.6801
92.7673
92.8379
92.8942
92.9373
92.9748
93.0063
93.0365
93.078
93.1736
93.3118
93.4012
93.4306
93.5062
93.6783
93.9108
94.1491
94.4013
94.7145
95.1206
95.6074
96.1876
96.9103
97.802
98.8393
99.9705
101.124
102.233
103.256
104.186
104.999
105.762
106.467
106.353
107.821
106.705
109.11
107.828
109.835
108.573
110.58
109.559
111.251
109.981
111.417
110.01
111.275
109.68
110.877
109.207
110.566
108.95
110.496
109.119
110.577
109.131
110.141
108.462
108.894
107.321
107.418
106.036
106.275
104.86
105.416
103.895
104.799
103.05
104.299
102.187
103.842
101.273
103.403
100.238
102.81
98.8935
101.76
97.0388
99.8276
94.4533
96.4778
90.8386
91.1267
85.7014
83.3097
78.0434
73.0379
66.9906
60.8467
92.4096
92.2341
92.1105
92.0337
91.9995
92.0159
92.0832
92.1882
92.3139
92.4449
92.5661
92.673
92.764
92.8412
92.9068
92.962
93.0135
93.0611
93.1101
93.1734
93.2828
93.4247
93.5258
93.5844
93.6864
93.872
94.1118
94.3543
94.6109
94.9271
95.3338
95.8236
96.4106
97.1249
97.9972
99.0125
100.126
101.267
102.367
103.39
104.323
105.123
105.881
106.561
106.474
107.977
106.87
109.345
107.959
109.962
108.717
110.874
109.627
111.415
110.094
111.608
110.122
111.421
109.793
111.034
109.32
110.767
109.065
110.743
109.203
110.814
109.208
110.292
108.498
108.957
107.349
107.447
106.055
106.307
104.87
105.453
103.899
104.847
103.054
104.374
102.195
103.952
101.285
103.553
100.261
103.007
98.9469
101.997
97.1394
100.078
94.5961
96.6806
90.9847
91.1962
85.803
83.219
78.0888
73.0037
67.0192
60.8196
88.1514
87.6499
86.4591
84.7375
83.3096
82.1326
81.2346
80.9553
80.8591
81.0055
81.5078
82.4093
83.6339
84.812
85.7679
86.673
87.6642
88.6806
89.6436
90.7931
92.4324
94.4235
96.5379
98.6369
100.651
102.593
104.436
106.053
107.445
108.675
109.858
110.901
111.797
112.216
112.341
111.948
111.473
110.801
110.191
109.589
109.244
108.905
108.8
108.658
108.732
108.82
109.084
109.241
109.361
109.377
109.35
109.283
109.189
109.077
108.962
108.838
108.715
108.597
108.476
108.329
108.153
107.94
107.714
107.481
107.254
107.032
106.824
106.623
106.448
106.285
106.148
106.019
105.914
105.825
105.768
105.735
105.739
105.772
105.84
105.934
106.054
106.191
106.341
106.499
106.66
106.822
106.984
107.144
107.299
107.451
107.598
107.746
107.882
107.971
107.996
108.067
108.211
108.511
109.294
110.333
88.0799
87.5515
86.2695
84.4961
83.0278
81.8479
80.9622
80.702
80.5941
80.7521
81.2675
82.1588
83.3577
84.5008
85.4262
86.3482
87.3619
88.3709
89.3246
90.5245
92.204
94.211
96.2701
98.2724
100.242
102.201
104.095
105.754
107.172
108.411
109.607
110.653
111.546
111.988
112.102
111.734
111.253
110.616
110.002
109.432
109.088
108.801
108.698
108.594
108.682
108.79
109.065
109.237
109.364
109.384
109.358
109.291
109.195
109.079
108.961
108.835
108.71
108.592
108.473
108.327
108.152
107.939
107.71
107.477
107.249
107.027
106.819
106.617
106.442
106.278
106.142
106.012
105.907
105.817
105.761
105.727
105.732
105.765
105.833
105.929
106.049
106.188
106.339
106.498
106.66
106.823
106.986
107.146
107.302
107.451
107.599
107.744
107.883
107.971
107.989
108.021
108.099
108.348
109.13
110.154
87.9464
87.3454
85.9114
84.0109
82.4826
81.246
80.3789
80.1615
80.0843
80.2569
80.7838
81.6203
82.7051
83.734
84.5805
85.4866
86.5166
87.5411
88.5628
89.8893
91.6981
93.7325
95.6927
97.5273
99.4052
101.363
103.345
105.098
106.568
107.833
109.057
110.115
111
111.477
111.565
111.246
110.756
110.18
109.58
109.05
108.735
108.523
108.44
108.382
108.495
108.646
108.938
109.15
109.297
109.339
109.327
109.269
109.178
109.065
108.945
108.816
108.69
108.572
108.455
108.312
108.139
107.927
107.699
107.464
107.236
107.013
106.804
106.601
106.427
106.263
106.128
105.997
105.892
105.8
105.744
105.71
105.715
105.748
105.817
105.913
106.034
106.173
106.324
106.483
106.644
106.807
106.968
107.129
107.284
107.437
107.579
107.726
107.87
107.983
108.001
107.982
107.912
108.08
108.837
109.867
87.7497
87.0613
85.4416
83.403
81.8219
80.4773
79.6202
79.4025
79.3292
79.5466
80.1088
80.8419
81.7145
82.5679
83.3381
84.2227
85.2635
86.3143
87.4571
88.9567
90.9129
92.9761
94.8931
96.5826
98.3624
100.3
102.355
104.21
105.749
107.058
108.319
109.405
110.262
110.771
110.842
110.557
110.071
109.553
108.981
108.495
108.225
108.089
108.045
108.017
108.17
108.371
108.681
108.954
109.137
109.22
109.235
109.196
109.12
109.017
108.899
108.767
108.638
108.52
108.408
108.269
108.099
107.891
107.665
107.431
107.206
106.983
106.776
106.571
106.399
106.235
106.1
105.967
105.862
105.768
105.713
105.676
105.683
105.714
105.785
105.879
106.001
106.138
106.288
106.443
106.604
106.763
106.925
107.083
107.242
107.391
107.539
107.68
107.84
107.977
108.026
107.944
107.741
107.802
108.534
109.557
87.5118
86.7281
84.9285
82.7741
81.123
79.6491
78.7556
78.4857
78.3527
78.566
79.0953
79.7023
80.3686
81.0754
81.8216
82.7016
83.7581
84.8794
86.171
87.8371
89.9146
92.0023
93.9305
95.5445
97.2459
99.1983
101.339
103.294
104.903
106.255
107.524
108.622
109.434
109.935
109.991
109.713
109.234
108.758
108.231
107.8
107.569
107.516
107.522
107.551
107.747
107.989
108.333
108.661
108.894
109.026
109.077
109.063
109.005
108.913
108.796
108.662
108.533
108.418
108.316
108.184
108.021
107.819
107.598
107.369
107.148
106.928
106.725
106.521
106.352
106.188
106.054
105.918
105.814
105.717
105.663
105.623
105.631
105.66
105.732
105.825
105.946
106.08
106.226
106.377
106.532
106.688
106.844
107.001
107.156
107.311
107.459
107.611
107.77
107.943
108.01
107.916
107.58
107.581
108.274
109.316
87.2622
86.4025
84.4461
82.1996
80.4724
78.8453
77.8503
77.4446
77.1633
77.2882
77.6891
78.1473
78.7041
79.3553
80.1518
81.0678
82.1959
83.4477
84.8954
86.6814
88.8226
90.9555
92.9333
94.5473
96.1959
98.1936
100.429
102.468
104.125
105.499
106.739
107.801
108.542
108.985
109.013
108.717
108.239
107.799
107.342
106.955
106.768
106.806
106.892
107.014
107.242
107.536
107.916
108.292
108.577
108.758
108.85
108.868
108.835
108.755
108.638
108.503
108.374
108.262
108.17
108.047
107.896
107.702
107.492
107.27
107.061
106.846
106.652
106.45
106.288
106.123
105.991
105.851
105.749
105.648
105.595
105.552
105.561
105.589
105.661
105.754
105.872
106.003
106.142
106.288
106.433
106.582
106.728
106.879
107.029
107.184
107.338
107.497
107.671
107.849
107.955
107.851
107.486
107.431
108.175
109.184
87.0354
86.1229
84.0255
81.7071
79.8934
78.1152
76.9473
76.2903
75.7947
75.7239
75.9473
76.261
76.8512
77.5551
78.4519
79.4569
80.726
82.1581
83.7658
85.6425
87.8213
90.0048
92.0387
93.6889
95.3025
97.3515
99.6653
101.746
103.427
104.799
105.982
106.969
107.61
107.957
107.943
107.616
107.143
106.727
106.343
106.007
105.874
105.989
106.165
106.364
106.638
107.006
107.423
107.851
108.185
108.411
108.544
108.597
108.596
108.527
108.41
108.266
108.137
108.034
107.957
107.851
107.716
107.536
107.343
107.133
106.942
106.736
106.555
106.359
106.207
106.039
105.911
105.765
105.667
105.56
105.511
105.464
105.476
105.502
105.578
105.666
105.786
105.911
106.047
106.181
106.318
106.45
106.587
106.721
106.864
107.008
107.167
107.33
107.514
107.703
107.822
107.763
107.41
107.413
108.133
109.234
86.8462
85.8925
83.6573
81.2751
79.3746
77.4627
76.0586
75.0983
74.3772
74.0399
74.0667
74.2577
74.9733
75.8292
76.8325
77.9807
79.4274
81.06
82.838
84.796
87.0119
89.2446
91.3291
93.0251
94.6301
96.7144
99.0582
101.117
102.796
104.142
105.248
106.119
106.641
106.873
106.804
106.46
105.994
105.602
105.287
105.008
104.92
105.099
105.351
105.61
105.948
106.381
106.85
107.336
107.72
107.99
108.162
108.243
108.27
108.21
108.086
107.929
107.804
107.717
107.672
107.589
107.479
107.318
107.148
106.953
106.784
106.595
106.433
106.246
106.103
105.934
105.809
105.659
105.565
105.454
105.408
105.357
105.374
105.398
105.478
105.567
105.687
105.81
105.938
106.065
106.187
106.308
106.424
106.545
106.666
106.801
106.943
107.111
107.289
107.49
107.624
107.62
107.372
107.441
108.284
109.266
86.6914
85.6811
83.3155
80.8685
78.8724
76.8553
75.1836
73.9553
73.0573
72.4416
72.2426
72.3367
73.1917
74.2761
75.3927
76.7031
78.3308
80.1741
82.1315
84.1843
86.4349
88.7041
90.8321
92.5749
94.1889
96.2714
98.575
100.567
102.204
103.487
104.505
105.232
105.624
105.756
105.63
105.283
104.828
104.462
104.205
103.977
103.933
104.164
104.48
104.804
105.207
105.691
106.215
106.745
107.184
107.504
107.716
107.819
107.864
107.806
107.682
107.52
107.407
107.337
107.321
107.263
107.181
107.046
106.905
106.728
106.586
106.415
106.28
106.106
105.976
105.805
105.684
105.532
105.442
105.328
105.283
105.231
105.251
105.277
105.363
105.455
105.577
105.699
105.821
105.94
106.049
106.155
106.252
106.351
106.452
106.56
106.688
106.832
107.011
107.195
107.363
107.412
107.313
107.499
108.34
109.556
86.5407
85.4545
82.9664
80.4416
78.3312
76.246
74.3535
72.9319
71.9146
71.0394
70.64
70.645
71.6276
72.9669
74.191
75.6553
77.4677
79.5105
81.6325
83.7823
86.0747
88.3753
90.5269
92.3127
93.9408
95.9668
98.1698
100.05
101.601
102.805
103.712
104.297
104.564
104.62
104.448
104.113
103.68
103.337
103.122
102.945
102.943
103.201
103.578
103.964
104.414
104.944
105.521
106.086
106.582
106.947
107.198
107.32
107.377
107.316
107.208
107.053
106.961
106.903
106.914
106.878
106.828
106.72
106.613
106.457
106.347
106.197
106.093
105.934
105.822
105.651
105.54
105.383
105.3
105.18
105.141
105.084
105.114
105.14
105.237
105.33
105.458
105.576
105.698
105.805
105.906
105.992
106.073
106.146
106.223
106.303
106.4
106.519
106.664
106.847
107.016
107.155
107.201
107.548
108.541
109.563
86.3582
85.1719
82.5888
79.9637
77.7317
75.6297
73.6305
72.0991
71.0123
69.9194
69.3795
69.3198
70.4246
71.9907
73.2812
74.8687
76.8405
79.0399
81.2945
83.5352
85.8789
88.2207
90.3773
92.1929
93.8378
95.7523
97.7963
99.5245
100.955
102.062
102.84
103.301
103.463
103.474
103.278
102.968
102.562
102.243
102.056
101.925
101.96
102.239
102.647
103.085
103.593
104.16
104.781
105.377
105.926
106.323
106.605
106.733
106.801
106.741
106.664
106.522
106.456
106.408
106.448
106.437
106.423
106.341
106.273
106.141
106.068
105.944
105.875
105.734
105.645
105.477
105.375
105.217
105.141
105.015
104.982
104.924
104.962
104.994
105.098
105.199
105.327
105.447
105.563
105.665
105.751
105.824
105.882
105.935
105.98
106.031
106.089
106.171
106.282
106.429
106.615
106.795
107.013
107.464
108.521
109.866
86.0885
84.8081
82.1753
79.4754
77.1415
75.0861
73.1288
71.5734
70.4521
69.2372
68.6054
68.4795
69.6445
71.3661
72.6847
74.3434
76.4355
78.7524
81.1008
83.4189
85.8021
88.179
90.3305
92.1691
93.8196
95.5932
97.4134
98.9655
100.255
101.239
101.892
102.263
102.361
102.346
102.147
101.868
101.495
101.202
101.031
100.932
101.001
101.293
101.726
102.215
102.77
103.364
104.021
104.645
105.236
105.648
105.943
106.065
106.147
106.092
106.05
105.926
105.892
105.859
105.934
105.949
105.973
105.914
105.888
105.782
105.753
105.659
105.632
105.511
105.45
105.286
105.197
105.036
104.967
104.837
104.812
104.755
104.801
104.84
104.951
105.059
105.191
105.31
105.423
105.516
105.592
105.646
105.687
105.71
105.73
105.741
105.763
105.797
105.863
105.972
106.131
106.371
106.69
107.351
108.485
109.52
85.7144
84.3469
81.7237
79.023
76.7037
74.7501
72.9755
71.473
70.3642
69.1018
68.387
68.1586
69.3001
71.0796
72.4097
74.0817
76.249
78.6319
81.0304
83.3963
85.8013
88.1981
90.3188
92.1672
93.7971
95.4101
96.9888
98.3664
99.5143
100.373
100.924
101.229
101.284
101.256
101.067
100.822
100.488
100.222
100.061
99.9956
100.089
100.386
100.831
101.361
101.961
102.586
103.271
103.914
104.533
104.941
105.232
105.341
105.441
105.394
105.4
105.296
105.302
105.287
105.394
105.427
105.487
105.447
105.464
105.39
105.41
105.347
105.366
105.271
105.24
105.085
105.01
104.848
104.789
104.656
104.639
104.582
104.639
104.683
104.803
104.917
105.051
105.17
105.277
105.362
105.425
105.465
105.482
105.483
105.465
105.445
105.416
105.406
105.41
105.468
105.59
105.812
106.212
106.875
107.972
109.32
85.2751
83.8572
81.3212
78.6562
76.4997
74.7079
73.2287
71.8392
70.7759
69.5304
68.7201
68.3679
69.3967
71.1279
72.446
74.0766
76.2562
78.6526
81.071
83.4592
85.8655
88.2473
90.3117
92.1329
93.724
95.1739
96.53
97.7488
98.7613
99.5036
99.9629
100.215
100.243
100.211
100.039
99.8284
99.5407
99.3023
99.1508
99.1108
99.225
99.5383
99.9948
100.559
101.197
101.853
102.554
103.209
103.828
104.215
104.497
104.593
104.715
104.693
104.756
104.673
104.72
104.713
104.844
104.883
104.974
104.948
105.01
104.97
105.046
105.015
105.089
105.021
105.03
104.883
104.829
104.66
104.616
104.477
104.471
104.415
104.481
104.534
104.659
104.778
104.912
105.029
105.13
105.205
105.255
105.277
105.272
105.245
105.197
105.132
105.062
104.988
104.939
104.918
104.978
105.167
105.531
106.261
107.334
108.35
84.9133
83.444
81.0611
78.4642
76.5502
75.0185
73.8585
72.6379
71.6493
70.4811
69.5798
69.0853
69.8995
71.479
72.7569
74.3187
76.4563
78.818
81.2134
83.5915
85.9722
88.3093
90.3144
92.0783
93.6102
94.909
96.0677
97.1338
98.0119
98.6459
99.0238
99.2344
99.2498
99.214
99.0608
98.8807
98.6438
98.4417
98.3114
98.297
98.439
98.7724
99.2423
99.8324
100.501
101.188
101.89
102.543
103.138
103.499
103.775
103.87
104.017
104.026
104.136
104.071
104.158
104.15
104.299
104.332
104.448
104.43
104.539
104.53
104.672
104.67
104.81
104.764
104.825
104.678
104.657
104.475
104.454
104.305
104.316
104.257
104.338
104.391
104.525
104.643
104.781
104.887
104.984
105.044
105.082
105.083
105.058
105
104.918
104.811
104.686
104.557
104.424
104.334
104.286