/*--------------------------------*- C++ -*----------------------------------*\
| =========                 |                                                 |
| \\      /  F ield         | OpenFOAM: The Open Source CFD Toolbox           |
|  \\    /   O peration     | Version:  2.4.0                                 |
|   \\  /    A nd           | Web:      www.OpenFOAM.org                      |
|    \\/     M anipulation  |                                                 |
\*---------------------------------------------------------------------------*/
FoamFile
{
    version     2.0;
    format      ascii;
    class       volVectorField;
    location    "0.068";
    object      U;
}
// * * * * * * * * * * * * * * * * * * * * * * * * * * * * * * * * * * * * * //

dimensions      [0 1 -1 0 0 0 0];

internalField   nonuniform List<vector> 
17600
(
(5.32812 0.309435 0)
(2.98396 0.0606501 0)
(2.1967 -0.00164055 0)
(1.84845 -0.00351779 0)
(1.70721 -0.0012917 0)
(1.60899 -0.000120662 0)
(1.54276 -6.17176e-05 0)
(1.47339 0.000100788 0)
(1.44188 -0.000207897 0)
(1.39353 -3.35781e-05 0)
(1.38424 -0.000279359 0)
(1.33774 0.000777492 0)
(1.34384 -0.000979879 0)
(1.29898 0.000939883 0)
(1.29503 0.000618684 0)
(1.26987 -0.000995942 0)
(1.26181 0.000578949 0)
(1.218 0.00326327 0)
(1.19863 -0.00059855 0)
(1.12297 -0.030768 0)
(8.59984 0.87205 0)
(6.94536 0.383554 0)
(5.8131 0.121414 0)
(5.05593 0.0510302 0)
(4.65558 0.0283672 0)
(4.37203 0.0204675 0)
(4.19233 0.0162584 0)
(4.00006 0.0127264 0)
(3.91495 0.00930567 0)
(3.77454 0.00753271 0)
(3.74544 0.0056908 0)
(3.6183 0.00733601 0)
(3.63728 0.00179074 0)
(3.50305 0.00784188 0)
(3.51934 0.00426889 0)
(3.44297 0.00189539 0)
(3.41021 0.00493735 0)
(3.34938 0.0133249 0)
(3.31151 0.00546611 0)
(3.1849 -0.0614567 0)
(9.8593 1.02238 0)
(9.33786 0.577449 0)
(8.47852 0.240696 0)
(7.639 0.130277 0)
(7.09968 0.0820322 0)
(6.68395 0.0573342 0)
(6.42812 0.044951 0)
(6.13839 0.0347072 0)
(6.01641 0.0266166 0)
(5.79804 0.0213473 0)
(5.7548 0.0170385 0)
(5.55744 0.0177912 0)
(5.59239 0.00836221 0)
(5.37635 0.0185823 0)
(5.42011 0.00910811 0)
(5.29534 0.00886481 0)
(5.24593 0.0110611 0)
(5.17711 0.0247409 0)
(5.10724 0.00818642 0)
(5.06209 -0.05831 0)
(10.165 0.948349 0)
(10.5583 0.668795 0)
(10.2648 0.329563 0)
(9.63646 0.210201 0)
(9.13529 0.148162 0)
(8.66897 0.106178 0)
(8.39545 0.0837824 0)
(8.03639 0.0646177 0)
(7.90143 0.0504734 0)
(7.6222 0.0406482 0)
(7.574 0.0333464 0)
(7.31566 0.0315119 0)
(7.37392 0.0186531 0)
(7.08167 0.0328045 0)
(7.15643 0.0151845 0)
(6.98813 0.0193465 0)
(6.93048 0.0187974 0)
(6.85691 0.0404369 0)
(6.74774 0.00711315 0)
(6.69721 -0.0686348 0)
(10.0826 0.806487 0)
(10.9073 0.670195 0)
(11.1398 0.35597 0)
(10.881 0.256069 0)
(10.6076 0.204138 0)
(10.2086 0.155112 0)
(10.0038 0.125947 0)
(9.62796 0.0985226 0)
(9.51554 0.0779886 0)
(9.20591 0.0633824 0)
(9.17114 0.0532712 0)
(8.86481 0.0472022 0)
(8.96141 0.0316115 0)
(8.60287 0.049818 0)
(8.71081 0.0217093 0)
(8.51174 0.0325035 0)
(8.45006 0.026864 0)
(8.37038 0.0587759 0)
(8.2964 0.0198258 0)
(8.02078 -0.112866 0)
(10.0009 0.692107 0)
(10.8393 0.636875 0)
(11.3219 0.333272 0)
(11.3438 0.251135 0)
(11.373 0.225733 0)
(11.1437 0.185705 0)
(11.108 0.158735 0)
(10.7991 0.12901 0)
(10.7585 0.104015 0)
(10.469 0.0860769 0)
(10.4772 0.0746951 0)
(10.1453 0.063005 0)
(10.2999 0.0454194 0)
(9.89851 0.068909 0)
(10.0357 0.027498 0)
(9.83299 0.0472517 0)
(9.77128 0.0356865 0)
(9.66623 0.0730136 0)
(9.71275 0.0434963 0)
(9.30952 -0.091442 0)
(9.99076 0.602685 0)
(10.7043 0.603164 0)
(11.2555 0.30487 0)
(11.3365 0.219166 0)
(11.5576 0.212752 0)
(11.4545 0.187409 0)
(11.6087 0.168803 0)
(11.4307 0.143938 0)
(11.507 0.118684 0)
(11.3026 0.101003 0)
(11.396 0.0926486 0)
(11.0772 0.0755247 0)
(11.3104 0.0566263 0)
(10.9148 0.0889092 0)
(11.0667 0.0309119 0)
(10.9022 0.0613408 0)
(10.8528 0.0467842 0)
(10.7053 0.080554 0)
(10.8853 0.0614075 0)
(10.5248 -0.0119271 0)
(10.0133 0.523877 0)
(10.5833 0.564983 0)
(11.1757 0.288734 0)
(11.2282 0.190705 0)
(11.5193 0.190439 0)
(11.44 0.175039 0)
(11.6647 0.16071 0)
(11.6008 0.14245 0)
(11.7404 0.117777 0)
(11.653 0.100642 0)
(11.8428 0.100622 0)
(11.5777 0.079032 0)
(11.8944 0.0586682 0)
(11.5822 0.106273 0)
(11.7236 0.0291958 0)
(11.6496 0.0703316 0)
(11.6321 0.0592143 0)
(11.4689 0.0840793 0)
(11.7061 0.0581127 0)
(11.4897 0.106026 0)
(10.0425 0.454877 0)
(10.4878 0.518109 0)
(11.0938 0.276122 0)
(11.1532 0.167208 0)
(11.4392 0.166929 0)
(11.3995 0.162981 0)
(11.5675 0.146604 0)
(11.6061 0.135176 0)
(11.6807 0.108849 0)
(11.7105 0.0892672 0)
(11.8987 0.098911 0)
(11.7174 0.0746462 0)
(12.0468 0.0476686 0)
(11.8737 0.116819 0)
(11.9716 0.0216296 0)
(12.0144 0.0677483 0)
(12.0352 0.0697237 0)
(11.93 0.0839871 0)
(12.1045 0.0424874 0)
(12.0857 0.151691 0)
(10.0468 0.39249 0)
(10.4391 0.469517 0)
(10.9896 0.26354 0)
(11.118 0.146523 0)
(11.3519 0.142475 0)
(11.3725 0.151864 0)
(11.4745 0.130847 0)
(11.5947 0.128553 0)
(11.5619 0.100412 0)
(11.7312 0.0739209 0)
(11.7724 0.0955277 0)
(11.7452 0.0654671 0)
(11.981 0.0322448 0)
(11.9032 0.121126 0)
(11.981 0.0110364 0)
(12.0833 0.0556186 0)
(12.1039 0.0741113 0)
(12.0933 0.0761939 0)
(12.1737 0.0358263 0)
(12.3005 0.079555 0)
(10.0231 0.33559 0)
(10.4205 0.422002 0)
(10.889 0.251519 0)
(11.0868 0.126045 0)
(11.2923 0.120269 0)
(11.306 0.140678 0)
(11.4591 0.113891 0)
(11.5012 0.124337 0)
(11.5323 0.0875369 0)
(11.718 0.0636812 0)
(11.624 0.0931461 0)
(11.809 0.0531998 0)
(11.8528 0.0223005 0)
(11.844 0.1205 0)
(11.9817 -0.000506455 0)
(12.0161 0.0451163 0)
(12.0415 0.0725944 0)
(12.0991 0.0685531 0)
(12.1537 0.016373 0)
(12.2395 0.0144951 0)
(9.99872 0.284223 0)
(10.4049 0.374616 0)
(10.8006 0.239604 0)
(11.0654 0.10597 0)
(11.2267 0.102429 0)
(11.2552 0.124157 0)
(11.4486 0.0999691 0)
(11.3736 0.11985 0)
(11.5841 0.0699572 0)
(11.5936 0.0632999 0)
(11.5884 0.0809448 0)
(11.8276 0.043088 0)
(11.7208 0.0233056 0)
(11.8107 0.1083 0)
(11.9829 -0.00655975 0)
(11.9214 0.0369802 0)
(11.9625 0.069402 0)
(12.0889 0.0548232 0)
(12.1568 0.000840836 0)
(12.1116 -0.014973 0)
(9.98961 0.23908 0)
(10.3805 0.327362 0)
(10.728 0.223625 0)
(11.0503 0.0878644 0)
(11.1375 0.0876281 0)
(11.2735 0.104454 0)
(11.3531 0.0925657 0)
(11.348 0.104659 0)
(11.5648 0.0584973 0)
(11.4716 0.0612296 0)
(11.6364 0.0647978 0)
(11.7396 0.0390892 0)
(11.6529 0.0239682 0)
(11.8157 0.0877472 0)
(11.9281 -0.00854469 0)
(11.8529 0.0350329 0)
(11.9152 0.0558278 0)
(12.0864 0.0333432 0)
(12.1184 -0.00338559 0)
(12.0581 -0.0203194 0)
(9.99606 0.19766 0)
(10.3396 0.283078 0)
(10.6878 0.198388 0)
(11.0053 0.0778963 0)
(11.0874 0.0703969 0)
(11.2858 0.0892132 0)
(11.239 0.0826876 0)
(11.4022 0.0886921 0)
(11.4411 0.0535314 0)
(11.4674 0.0520183 0)
(11.6354 0.0491994 0)
(11.6291 0.0419249 0)
(11.659 0.0152061 0)
(11.8047 0.0717373 0)
(11.8431 -0.00538315 0)
(11.8232 0.0252664 0)
(11.9219 0.0414294 0)
(12.0315 0.0182244 0)
(12.057 -0.015366 0)
(12.0678 -0.0197766 0)
(10.0058 0.16076 0)
(10.2944 0.239404 0)
(10.672 0.169009 0)
(10.9329 0.0683627 0)
(11.1054 0.0539217 0)
(11.2189 0.0785866 0)
(11.2251 0.0688687 0)
(11.3955 0.0741047 0)
(11.3401 0.0495737 0)
(11.5242 0.0348687 0)
(11.5535 0.046704 0)
(11.5826 0.038112 0)
(11.684 0.00287504 0)
(11.7526 0.0626818 0)
(11.7839 -0.0051772 0)
(11.8145 0.0126226 0)
(11.9402 0.0297205 0)
(11.9475 0.00843243 0)
(12.0027 -0.0326147 0)
(12.0559 -0.0174338 0)
(10.0053 0.128014 0)
(10.2712 0.194415 0)
(10.6443 0.139409 0)
(10.8885 0.0572655 0)
(11.1191 0.0408066 0)
(11.1324 0.0668266 0)
(11.2857 0.0510823 0)
(11.2897 0.0665679 0)
(11.3575 0.0384383 0)
(11.5164 0.0220454 0)
(11.4674 0.0463812 0)
(11.5971 0.0257203 0)
(11.6807 -0.00377083 0)
(11.6774 0.0571874 0)
(11.7633 -0.0091271 0)
(11.8366 -0.0038947 0)
(11.8785 0.0229433 0)
(11.9041 0.00100453 0)
(11.9903 -0.0492879 0)
(11.9974 -0.0303399 0)
(9.99841 0.0977337 0)
(10.2681 0.149976 0)
(10.5995 0.109588 0)
(10.8932 0.0439229 0)
(11.0695 0.0318798 0)
(11.1318 0.0505293 0)
(11.2843 0.0385346 0)
(11.209 0.0569174 0)
(11.4214 0.0215839 0)
(11.4307 0.0186372 0)
(11.4467 0.0409428 0)
(11.623 0.0121846 0)
(11.6268 -0.00498858 0)
(11.6331 0.0497736 0)
(11.781 -0.0205653 0)
(11.8213 -0.0113865 0)
(11.7967 0.0171167 0)
(11.9158 -0.0126832 0)
(11.9812 -0.0660572 0)
(11.9237 -0.0448091 0)
(9.99795 0.0691252 0)
(10.2574 0.106588 0)
(10.576 0.0778601 0)
(10.8926 0.0329728 0)
(11.015 0.0222188 0)
(11.1848 0.0329092 0)
(11.1956 0.0305932 0)
(11.2452 0.0393991 0)
(11.4101 0.0121093 0)
(11.3609 0.0160137 0)
(11.4817 0.0274676 0)
(11.6089 0.00362656 0)
(11.5656 -0.00274295 0)
(11.6474 0.0345252 0)
(11.7953 -0.0280607 0)
(11.7455 -0.0152304 0)
(11.8 0.00764437 0)
(11.9218 -0.030572 0)
(11.9452 -0.0741838 0)
(11.88 -0.0609561 0)
(10.0015 0.0423598 0)
(10.2398 0.0630422 0)
(10.5827 0.0459986 0)
(10.8524 0.0224489 0)
(11.0315 0.00890335 0)
(11.1744 0.021484 0)
(11.1463 0.0198706 0)
(11.3109 0.0193162 0)
(11.3309 0.00881338 0)
(11.37 0.00660078 0)
(11.5101 0.015178 0)
(11.5519 0.00214628 0)
(11.5592 -0.00801399 0)
(11.6827 0.0180979 0)
(11.7539 -0.0299254 0)
(11.7162 -0.0203525 0)
(11.8324 -0.0089784 0)
(11.8966 -0.040469 0)
(11.9174 -0.0808946 0)
(11.8686 -0.0884082 0)
(9.99815 0.0168111 0)
(10.2415 0.018213 0)
(10.5787 0.0164953 0)
(10.8258 0.00869696 0)
(11.0738 -0.00217711 0)
(11.1039 0.0124317 0)
(11.1969 0.00236052 0)
(11.2962 0.00504656 0)
(11.2873 0.00624876 0)
(11.4178 -0.00878725 0)
(11.4883 0.00951207 0)
(11.5123 -0.00148013 0)
(11.6008 -0.0182795 0)
(11.6765 0.00816674 0)
(11.7045 -0.0316861 0)
(11.7546 -0.0312053 0)
(11.8188 -0.0216787 0)
(11.878 -0.0487506 0)
(11.9078 -0.0918475 0)
(11.8983 -0.124443 0)
(9.99352 -0.00910134 0)
(10.2556 -0.0256649 0)
(10.5542 -0.0121785 0)
(10.854 -0.00851396 0)
(11.0584 -0.00888962 0)
(11.0878 0.000247761 0)
(11.2471 -0.0154011 0)
(11.2379 -0.00309408 0)
(11.3144 -0.00509025 0)
(11.4379 -0.0205935 0)
(11.4443 0.00765735 0)
(11.5297 -0.0100726 0)
(11.6261 -0.0282619 0)
(11.6367 0.00378367 0)
(11.714 -0.0395603 0)
(11.7707 -0.0401739 0)
(11.8004 -0.0324024 0)
(11.8773 -0.0572229 0)
(11.903 -0.107289 0)
(11.9266 -0.155092 0)
(9.99796 -0.0357613 0)
(10.2521 -0.0679742 0)
(10.5568 -0.0435164 0)
(10.8847 -0.0235905 0)
(11.0185 -0.014317 0)
(11.1416 -0.0171296 0)
(11.2246 -0.0270951 0)
(11.2304 -0.0153127 0)
(11.3563 -0.0169144 0)
(11.4183 -0.0276753 0)
(11.4358 0.00333448 0)
(11.5689 -0.0239096 0)
(11.6106 -0.029728 0)
(11.6291 -0.00603992 0)
(11.7407 -0.045295 0)
(11.7611 -0.0503162 0)
(11.8089 -0.0389879 0)
(11.8684 -0.0715115 0)
(11.9196 -0.121059 0)
(11.9269 -0.16742 0)
(10.0013 -0.0626737 0)
(10.2443 -0.111042 0)
(10.5968 -0.0760164 0)
(10.8729 -0.0346194 0)
(11.0346 -0.0247572 0)
(11.1713 -0.0323273 0)
(11.1924 -0.036708 0)
(11.2733 -0.0317924 0)
(11.3674 -0.0263646 0)
(11.3999 -0.0332353 0)
(11.4711 -0.00629323 0)
(11.5813 -0.0313899 0)
(11.5962 -0.0334586 0)
(11.657 -0.0165768 0)
(11.7472 -0.0514327 0)
(11.7704 -0.0590612 0)
(11.8119 -0.046694 0)
(11.8717 -0.0860662 0)
(11.9541 -0.133154 0)
(11.906 -0.177881 0)
(9.99451 -0.0901841 0)
(10.2637 -0.156781 0)
(10.6237 -0.106157 0)
(10.8658 -0.0453502 0)
(11.0843 -0.037484 0)
(11.1537 -0.0437287 0)
(11.2126 -0.0503944 0)
(11.3088 -0.0480033 0)
(11.3596 -0.0324801 0)
(11.4167 -0.041185 0)
(11.507 -0.0169019 0)
(11.5736 -0.0355646 0)
(11.615 -0.0410985 0)
(11.6792 -0.0240043 0)
(11.7599 -0.0610239 0)
(11.7799 -0.0626163 0)
(11.8184 -0.0592281 0)
(11.9045 -0.0988976 0)
(11.9661 -0.146532 0)
(11.8731 -0.186254 0)
(9.99172 -0.120758 0)
(10.2926 -0.201906 0)
(10.6282 -0.134757 0)
(10.9047 -0.0580278 0)
(11.1025 -0.0487416 0)
(11.1534 -0.0565786 0)
(11.2574 -0.065288 0)
(11.3182 -0.0616841 0)
(11.3676 -0.0380691 0)
(11.4565 -0.0543509 0)
(11.5206 -0.0216852 0)
(11.5821 -0.0443436 0)
(11.6458 -0.0446426 0)
(11.6985 -0.0376507 0)
(11.7757 -0.0628252 0)
(11.7891 -0.0716085 0)
(11.8521 -0.0706928 0)
(11.93 -0.112655 0)
(11.9567 -0.154529 0)
(11.8645 -0.195394 0)
(9.99885 -0.15458 0)
(10.3046 -0.24512 0)
(10.6563 -0.165131 0)
(10.9532 -0.0702447 0)
(11.1023 -0.059167 0)
(11.1916 -0.0718049 0)
(11.2858 -0.0794364 0)
(11.3258 -0.0727832 0)
(11.4047 -0.0478247 0)
(11.4882 -0.0639788 0)
(11.5309 -0.0277289 0)
(11.614 -0.0522298 0)
(11.6754 -0.0514405 0)
(11.7193 -0.0464614 0)
(11.7902 -0.0661874 0)
(11.8243 -0.0826286 0)
(11.8822 -0.0799455 0)
(11.9433 -0.124758 0)
(11.9629 -0.163605 0)
(11.9164 -0.215636 0)
(10.001 -0.191244 0)
(10.3208 -0.288877 0)
(10.7137 -0.195374 0)
(10.9815 -0.0803662 0)
(11.1258 -0.0719689 0)
(11.2343 -0.0879437 0)
(11.3003 -0.0902876 0)
(11.3579 -0.08527 0)
(11.4501 -0.0580835 0)
(11.5083 -0.0713422 0)
(11.5585 -0.0359986 0)
(11.6577 -0.0598129 0)
(11.7011 -0.0573064 0)
(11.7421 -0.0533174 0)
(11.824 -0.0742059 0)
(11.862 -0.0899899 0)
(11.9042 -0.0888065 0)
(11.9703 -0.137908 0)
(11.9909 -0.175603 0)
(11.9938 -0.237353 0)
(10.0008 -0.231572 0)
(10.3573 -0.335017 0)
(10.7684 -0.21959 0)
(11.0091 -0.0916466 0)
(11.1736 -0.0883628 0)
(11.2608 -0.102099 0)
(11.3296 -0.101939 0)
(11.4093 -0.0988481 0)
(11.4875 -0.0665053 0)
(11.5348 -0.0792006 0)
(11.6061 -0.045246 0)
(11.6952 -0.0679966 0)
(11.7293 -0.0605836 0)
(11.7827 -0.0640318 0)
(11.8622 -0.0783375 0)
(11.893 -0.0996717 0)
(11.9442 -0.0955307 0)
(11.9998 -0.15229 0)
(12.0336 -0.188548 0)
(12.0552 -0.258949 0)
(10.0177 -0.277018 0)
(10.3897 -0.382547 0)
(10.8242 -0.235795 0)
(11.0482 -0.107671 0)
(11.2275 -0.106692 0)
(11.2818 -0.116408 0)
(11.3883 -0.115544 0)
(11.4503 -0.110823 0)
(11.53 -0.0740558 0)
(11.573 -0.0887851 0)
(11.66 -0.0544766 0)
(11.7193 -0.0756036 0)
(11.7785 -0.0643643 0)
(11.8265 -0.0751024 0)
(11.8988 -0.0811266 0)
(11.9367 -0.111001 0)
(11.9878 -0.0992389 0)
(12.0321 -0.169459 0)
(12.0895 -0.199217 0)
(12.0768 -0.279477 0)
(10.0495 -0.328969 0)
(10.4051 -0.429305 0)
(10.9086 -0.248335 0)
(11.0796 -0.126623 0)
(11.2917 -0.126061 0)
(11.3089 -0.130912 0)
(11.4635 -0.129473 0)
(11.4716 -0.119662 0)
(11.5959 -0.0840654 0)
(11.6038 -0.0960388 0)
(11.7213 -0.0648384 0)
(11.7409 -0.080568 0)
(11.8492 -0.0729067 0)
(11.8574 -0.081155 0)
(11.9599 -0.0886415 0)
(11.9781 -0.116852 0)
(12.0361 -0.107576 0)
(12.0699 -0.180223 0)
(12.1318 -0.212203 0)
(12.068 -0.295361 0)
(10.0693 -0.386996 0)
(10.4289 -0.476102 0)
(11.0124 -0.260962 0)
(11.101 -0.146177 0)
(11.3769 -0.147578 0)
(11.3323 -0.145132 0)
(11.5455 -0.141871 0)
(11.4886 -0.127878 0)
(11.6789 -0.0943059 0)
(11.6233 -0.103062 0)
(11.8052 -0.0754292 0)
(11.7664 -0.087248 0)
(11.9323 -0.08075 0)
(11.8805 -0.0884629 0)
(12.0355 -0.0953617 0)
(11.9844 -0.122927 0)
(12.0843 -0.112913 0)
(12.051 -0.19058 0)
(12.1038 -0.217233 0)
(11.9809 -0.316851 0)
(10.0584 -0.450329 0)
(10.4889 -0.523998 0)
(11.1009 -0.273488 0)
(11.1502 -0.167647 0)
(11.456 -0.170228 0)
(11.3676 -0.158717 0)
(11.6244 -0.153889 0)
(11.5254 -0.136085 0)
(11.7589 -0.105797 0)
(11.6566 -0.110174 0)
(11.88 -0.0875585 0)
(11.7798 -0.0932184 0)
(11.9707 -0.0887627 0)
(11.8501 -0.0942451 0)
(12.0178 -0.100469 0)
(11.8732 -0.125086 0)
(11.987 -0.115109 0)
(11.8355 -0.193061 0)
(11.8562 -0.211833 0)
(11.6169 -0.331716 0)
(10.0286 -0.520848 0)
(10.5833 -0.568909 0)
(11.176 -0.286588 0)
(11.2372 -0.191673 0)
(11.5178 -0.192147 0)
(11.4344 -0.173161 0)
(11.6858 -0.165131 0)
(11.5621 -0.144352 0)
(11.7783 -0.116335 0)
(11.6259 -0.115711 0)
(11.8116 -0.0957173 0)
(11.6384 -0.095207 0)
(11.7833 -0.0915346 0)
(11.5851 -0.093589 0)
(11.7031 -0.0991306 0)
(11.4665 -0.118043 0)
(11.5471 -0.111772 0)
(11.2864 -0.179692 0)
(11.2543 -0.199653 0)
(10.9008 -0.309343 0)
(10.0035 -0.600731 0)
(10.7005 -0.604926 0)
(11.2598 -0.304305 0)
(11.3441 -0.219785 0)
(11.5516 -0.213942 0)
(11.4594 -0.186588 0)
(11.6111 -0.171291 0)
(11.415 -0.146653 0)
(11.5217 -0.118168 0)
(11.282 -0.111857 0)
(11.3647 -0.0922399 0)
(11.1165 -0.0877598 0)
(11.183 -0.0836009 0)
(10.9253 -0.0841148 0)
(10.9821 -0.0877376 0)
(10.6917 -0.1037 0)
(10.7325 -0.098847 0)
(10.4076 -0.157421 0)
(10.3329 -0.174843 0)
(9.91099 -0.272118 0)
(10.0096 -0.690684 0)
(10.8358 -0.637572 0)
(11.3279 -0.333893 0)
(11.3468 -0.251496 0)
(11.3682 -0.226745 0)
(11.1484 -0.185407 0)
(11.1047 -0.160201 0)
(10.7897 -0.131936 0)
(10.762 -0.103598 0)
(10.4491 -0.0941001 0)
(10.4468 -0.0767585 0)
(10.1616 -0.0713534 0)
(10.1747 -0.0680182 0)
(9.89702 -0.0682526 0)
(9.91253 -0.0711754 0)
(9.60955 -0.084617 0)
(9.61504 -0.0815374 0)
(9.27288 -0.128754 0)
(9.15744 -0.146221 0)
(8.71876 -0.213524 0)
(10.0877 -0.805366 0)
(10.9057 -0.670588 0)
(11.1451 -0.356979 0)
(10.8814 -0.256134 0)
(10.604 -0.204889 0)
(10.2108 -0.154964 0)
(9.99897 -0.126734 0)
(9.62073 -0.101247 0)
(9.51193 -0.0775465 0)
(9.18769 -0.069301 0)
(9.14048 -0.0562882 0)
(8.86337 -0.0521686 0)
(8.84729 -0.0501341 0)
(8.58205 -0.0506611 0)
(8.57196 -0.0530534 0)
(8.28379 -0.0640558 0)
(8.26341 -0.0619476 0)
(7.93267 -0.0975808 0)
(7.78874 -0.114095 0)
(7.36856 -0.147225 0)
(10.1679 -0.94756 0)
(10.5586 -0.669067 0)
(10.2687 -0.330501 0)
(9.63519 -0.210055 0)
(9.1327 -0.148723 0)
(8.66879 -0.106083 0)
(8.39126 -0.0842202 0)
(8.0295 -0.0668552 0)
(7.89421 -0.0499672 0)
(7.60625 -0.0447967 0)
(7.54274 -0.036231 0)
(7.30376 -0.0338313 0)
(7.2739 -0.032883 0)
(7.04395 -0.0335994 0)
(7.0194 -0.0353708 0)
(6.76604 -0.0438165 0)
(6.73002 -0.0418392 0)
(6.43103 -0.067154 0)
(6.28232 -0.0786357 0)
(5.88472 -0.0962529 0)
(9.86102 -1.0219 0)
(9.33927 -0.577649 0)
(8.48081 -0.241384 0)
(7.63704 -0.130054 0)
(7.0978 -0.0824221 0)
(6.6823 -0.0572498 0)
(6.42516 -0.045171 0)
(6.13151 -0.0362544 0)
(6.00853 -0.0261327 0)
(5.78417 -0.0238889 0)
(5.72549 -0.0191856 0)
(5.54128 -0.018269 0)
(5.50946 -0.0180099 0)
(5.32974 -0.0186885 0)
(5.30019 -0.0197348 0)
(5.09709 -0.0254739 0)
(5.05511 -0.0234349 0)
(4.80911 -0.0391063 0)
(4.67096 -0.0456437 0)
(4.32336 -0.0559958 0)
(8.60095 -0.871855 0)
(6.94707 -0.383682 0)
(5.81383 -0.121772 0)
(5.05406 -0.0508367 0)
(4.65432 -0.028583 0)
(4.3701 -0.020409 0)
(4.19047 -0.0163265 0)
(3.99419 -0.0135534 0)
(3.90826 -0.00893587 0)
(3.76391 -0.00870835 0)
(3.72216 -0.0068891 0)
(3.60346 -0.00685977 0)
(3.57754 -0.00692484 0)
(3.45922 -0.00732554 0)
(3.43282 -0.00771743 0)
(3.29425 -0.0107914 0)
(3.2565 -0.00899467 0)
(3.08575 -0.0163899 0)
(2.97475 -0.0189934 0)
(2.72226 -0.0232003 0)
(5.32851 -0.309389 0)
(2.98501 -0.0606842 0)
(2.19645 0.00158527 0)
(1.8474 0.00360674 0)
(1.70671 0.00122346 0)
(1.60789 0.000151439 0)
(1.54214 8.1405e-05 0)
(1.47034 -0.000284771 0)
(1.43844 0.000396544 0)
(1.38889 -0.000132945 0)
(1.37282 2.36997e-05 0)
(1.33066 -0.000152572 0)
(1.3187 -0.000207196 0)
(1.27486 -0.000233006 0)
(1.262 -0.000149385 0)
(1.2073 -0.000869036 0)
(1.18798 0.000138831 0)
(1.12151 -0.0010104 0)
(1.06858 -0.00113529 0)
(0.965558 0.00437808 0)
(1.62934 -0.296791 0)
(1.03519 0.513639 0)
(2.34798 0.906255 0)
(3.96758 1.56902 0)
(5.30536 2.44819 0)
(7.01856 2.43267 0)
(8.13624 2.05563 0)
(8.87371 1.59722 0)
(9.92188 0.914649 0)
(9.88811 0.102836 0)
(9.70644 -0.563662 0)
(9.42845 -1.18437 0)
(8.55617 -1.58898 0)
(8.69558 -2.12382 0)
(9.19946 -3.17768 0)
(9.68603 -3.65084 0)
(9.99362 -3.90354 0)
(10.7854 -4.47301 0)
(11.3626 -4.99537 0)
(11.207 -5.37243 0)
(11.2866 -5.58928 0)
(9.97819 -5.67115 0)
(9.38366 -5.28222 0)
(8.09195 -5.09952 0)
(7.42054 -4.22286 0)
(7.08919 -3.70401 0)
(6.24854 -3.66597 0)
(5.94124 -2.90828 0)
(5.39302 -2.52323 0)
(4.93912 -1.10766 0)
(4.94105 -0.413913 0)
(4.45359 -0.321104 0)
(4.10551 2.08118 0)
(4.65562 4.58748 0)
(5.86111 4.85839 0)
(6.33925 4.22747 0)
(6.20822 3.65752 0)
(5.90207 3.16796 0)
(6.1543 2.72736 0)
(6.34296 2.49198 0)
(6.47085 2.44744 0)
(7.37316 2.1541 0)
(7.67252 2.28059 0)
(8.33654 2.01754 0)
(8.77156 1.34721 0)
(8.94007 1.23394 0)
(9.90484 0.76314 0)
(10.251 0.148506 0)
(10.3607 -0.568068 0)
(10.6409 -1.50434 0)
(10.5149 -2.02981 0)
(10.8081 -2.94828 0)
(11.3321 -4.4449 0)
(11.1967 -5.20936 0)
(10.7185 -5.19535 0)
(10.4249 -5.22278 0)
(10.4704 -5.72211 0)
(10.562 -6.55748 0)
(10.3758 -7.13714 0)
(10.0887 -7.41924 0)
(10.0635 -7.99133 0)
(10.1809 -8.74548 0)
(9.88439 -8.87043 0)
(9.00994 -8.1475 0)
(8.00105 -7.17558 0)
(7.24132 -6.56601 0)
(6.85515 -6.48277 0)
(6.80494 -6.80141 0)
(6.96731 -7.26302 0)
(7.22484 -7.62272 0)
(7.55603 -7.65717 0)
(7.86875 -7.31063 0)
(8.14754 -6.71499 0)
(8.45248 -5.87937 0)
(8.78951 -4.74993 0)
(9.00069 -3.51616 0)
(9.10267 -2.17394 0)
(9.19268 -0.703994 0)
(9.23503 0.668464 0)
(9.16172 1.94342 0)
(9.02457 3.17571 0)
(8.8654 4.20304 0)
(8.67321 5.01251 0)
(8.35958 5.65893 0)
(7.90791 5.98988 0)
(7.4399 5.96056 0)
(7.02812 5.71952 0)
(6.71219 5.49171 0)
(6.50351 5.26996 0)
(6.36256 5.00123 0)
(6.19661 4.64337 0)
(6.13843 4.30272 0)
(5.97198 3.8594 0)
(5.88135 3.47874 0)
(5.81221 3.05693 0)
(5.70743 2.75939 0)
(5.6697 2.46781 0)
(5.54792 2.26418 0)
(5.51598 2.03792 0)
(5.41377 1.84159 0)
(5.39242 1.63797 0)
(5.33007 1.48701 0)
(5.28636 1.34859 0)
(5.29281 1.27646 0)
(5.18892 1.1927 0)
(5.26184 1.13908 0)
(5.12854 1.06185 0)
(5.25015 0.977272 0)
(5.14449 0.881712 0)
(5.30725 0.791516 0)
(5.21912 0.697022 0)
(5.40816 0.629754 0)
(5.29707 0.564636 0)
(5.48379 0.515948 0)
(5.34126 0.470752 0)
(5.50608 0.439878 0)
(5.3384 0.387709 0)
(5.49386 0.37094 0)
(5.30087 0.315516 0)
(5.46892 0.295098 0)
(5.26026 0.254498 0)
(5.44279 0.230385 0)
(5.23061 0.195128 0)
(5.43055 0.187146 0)
(5.20468 0.147498 0)
(5.4327 0.150316 0)
(5.18845 0.122541 0)
(5.43155 0.122039 0)
(5.18226 0.10254 0)
(5.43223 0.110998 0)
(5.17121 0.0848607 0)
(5.43786 0.1012 0)
(5.16483 0.079059 0)
(5.43591 0.0937366 0)
(5.16191 0.0720983 0)
(5.44046 0.0937382 0)
(5.15116 0.0693994 0)
(5.44701 0.0914726 0)
(5.14857 0.0687956 0)
(5.44817 0.100863 0)
(5.14039 0.0651496 0)
(5.46791 0.10033 0)
(5.11451 0.0927364 0)
(5.49375 0.0792726 0)
(5.10501 0.113543 0)
(5.47818 0.109381 0)
(5.14907 0.0773838 0)
(5.43394 0.169101 0)
(5.17562 0.0790332 0)
(5.45046 0.152583 0)
(5.15594 0.152426 0)
(5.45485 0.130933 0)
(5.19193 0.172251 0)
(5.41878 0.181822 0)
(5.22065 0.178444 0)
(5.4192 0.198159 0)
(5.24884 0.231326 0)
(5.3809 0.219197 0)
(5.31424 0.263574 0)
(5.3472 0.25224 0)
(5.37267 0.317702 0)
(5.29083 0.284817 0)
(5.46896 0.370498 0)
(5.23996 0.320342 0)
(5.54502 0.438379 0)
(5.18913 0.38057 0)
(5.63501 0.489939 0)
(5.17565 0.438399 0)
(5.68238 0.572187 0)
(5.17759 0.536126 0)
(5.73359 0.612269 0)
(5.25421 0.63791 0)
(5.68025 0.707696 0)
(5.38569 0.780272 0)
(5.63093 0.751479 0)
(5.5978 0.923596 0)
(5.47591 0.874422 0)
(5.82002 1.08218 0)
(5.38078 1.01197 0)
(5.98873 1.21421 0)
(5.40613 1.22666 0)
(6.01585 1.35304 0)
(5.58625 1.49023 0)
(5.89637 1.47901 0)
(5.8703 1.77255 0)
(5.71307 1.74529 0)
(6.08821 2.01116 0)
(5.77178 2.10553 0)
(6.04661 2.20346 0)
(6.05216 2.51768 0)
(5.78512 2.61655 0)
(6.13501 2.86907 0)
(5.68059 3.2676 0)
(5.80464 3.3669 0)
(5.87768 3.83476 0)
(5.71895 4.37469 0)
(5.6289 4.76819 0)
(5.43964 5.81784 0)
(5.81316 6.82717 0)
(3.18007 10.2234 0)
(3.53971 -0.0294102 0)
(2.66867 0.478012 0)
(3.05455 0.498523 0)
(3.73587 0.893301 0)
(4.96192 1.68921 0)
(6.88385 1.82357 0)
(7.97775 1.63436 0)
(8.64251 1.15273 0)
(9.61021 0.631132 0)
(9.54316 0.140644 0)
(9.26131 -0.46263 0)
(9.19062 -1.0981 0)
(8.89913 -1.55209 0)
(9.66285 -2.20853 0)
(10.4164 -3.40667 0)
(10.8454 -3.86726 0)
(10.9516 -4.04073 0)
(11.4316 -4.63091 0)
(11.884 -5.07199 0)
(11.331 -5.31586 0)
(11.1612 -5.26102 0)
(9.86071 -5.32309 0)
(9.30763 -4.94309 0)
(8.23259 -4.70245 0)
(7.44435 -4.00843 0)
(7.36337 -3.42982 0)
(6.42005 -3.50311 0)
(6.17495 -2.72038 0)
(5.79928 -2.28001 0)
(5.01751 -1.09415 0)
(5.37743 -0.189992 0)
(4.83724 -0.147308 0)
(4.29811 1.81579 0)
(5.14186 4.15777 0)
(6.5333 4.59571 0)
(7.17246 4.2453 0)
(7.12488 3.75915 0)
(6.82684 3.15634 0)
(7.11578 2.73491 0)
(6.97586 2.47679 0)
(7.01222 2.20049 0)
(7.6661 1.88379 0)
(8.10341 2.0225 0)
(8.80245 1.82228 0)
(9.00716 1.23372 0)
(9.25162 0.973511 0)
(9.96102 0.569638 0)
(10.1371 0.0914211 0)
(10.4863 -0.677842 0)
(10.9425 -1.59699 0)
(10.8654 -2.07938 0)
(11.2568 -3.07783 0)
(11.7466 -4.52034 0)
(11.4853 -5.10907 0)
(10.9657 -5.03292 0)
(10.7065 -5.13381 0)
(10.7468 -5.71661 0)
(10.7473 -6.53667 0)
(10.4772 -7.04501 0)
(10.1956 -7.36003 0)
(10.175 -8.00514 0)
(10.1745 -8.67149 0)
(9.69433 -8.59623 0)
(8.67292 -7.73434 0)
(7.62309 -6.78797 0)
(6.92266 -6.33348 0)
(6.59214 -6.41348 0)
(6.53734 -6.83645 0)
(6.66821 -7.35482 0)
(6.87648 -7.73279 0)
(7.15527 -7.7719 0)
(7.41903 -7.42478 0)
(7.65571 -6.82939 0)
(7.93547 -5.98515 0)
(8.24886 -4.84116 0)
(8.4164 -3.5642 0)
(8.49156 -2.21004 0)
(8.58344 -0.722644 0)
(8.65648 0.687757 0)
(8.60118 1.98344 0)
(8.4641 3.21468 0)
(8.31721 4.26295 0)
(8.18547 5.10432 0)
(7.93863 5.7883 0)
(7.5416 6.15086 0)
(7.11753 6.12562 0)
(6.74534 5.87205 0)
(6.44553 5.6044 0)
(6.23076 5.33551 0)
(6.12816 5.06978 0)
(5.98993 4.68943 0)
(5.87412 4.33693 0)
(5.82461 3.91554 0)
(5.71652 3.50975 0)
(5.64047 3.10101 0)
(5.61128 2.77671 0)
(5.49812 2.51435 0)
(5.48898 2.27827 0)
(5.38074 2.0792 0)
(5.36921 1.85301 0)
(5.29495 1.6671 0)
(5.28639 1.50152 0)
(5.21719 1.36419 0)
(5.21539 1.28916 0)
(5.15334 1.21194 0)
(5.12936 1.13723 0)
(5.13749 1.08225 0)
(5.09284 0.956671 0)
(5.19733 0.88109 0)
(5.15865 0.768184 0)
(5.29739 0.677388 0)
(5.26736 0.612652 0)
(5.3901 0.551656 0)
(5.3326 0.499587 0)
(5.44991 0.479716 0)
(5.33296 0.423746 0)
(5.45939 0.409363 0)
(5.29974 0.362105 0)
(5.43171 0.335662 0)
(5.25952 0.290821 0)
(5.40946 0.272741 0)
(5.21911 0.221069 0)
(5.40911 0.215257 0)
(5.19137 0.172046 0)
(5.41352 0.166481 0)
(5.18151 0.134865 0)
(5.41932 0.138855 0)
(5.17294 0.106638 0)
(5.42815 0.120354 0)
(5.16536 0.091893 0)
(5.43186 0.107036 0)
(5.15882 0.0783188 0)
(5.44233 0.102409 0)
(5.14286 0.0717889 0)
(5.45394 0.0944708 0)
(5.13635 0.0697566 0)
(5.45676 0.0962426 0)
(5.12736 0.0621303 0)
(5.47448 0.0974964 0)
(5.11085 0.0732662 0)
(5.48061 0.0907952 0)
(5.11981 0.0729475 0)
(5.46888 0.120132 0)
(5.13196 0.0489574 0)
(5.469 0.145798 0)
(5.12195 0.0718775 0)
(5.50453 0.116222 0)
(5.07853 0.133127 0)
(5.53724 0.104087 0)
(5.09307 0.128179 0)
(5.49875 0.178062 0)
(5.12829 0.0949414 0)
(5.51374 0.202192 0)
(5.11463 0.16008 0)
(5.50905 0.187477 0)
(5.17312 0.18438 0)
(5.46432 0.240899 0)
(5.20925 0.213965 0)
(5.46033 0.247879 0)
(5.26238 0.270291 0)
(5.40513 0.291725 0)
(5.33683 0.312504 0)
(5.37559 0.317191 0)
(5.41788 0.377868 0)
(5.3064 0.368706 0)
(5.51831 0.446547 0)
(5.25589 0.403945 0)
(5.64737 0.516839 0)
(5.17653 0.480199 0)
(5.73844 0.607613 0)
(5.17383 0.539324 0)
(5.8272 0.682094 0)
(5.19208 0.658527 0)
(5.8478 0.761682 0)
(5.29688 0.803558 0)
(5.79446 0.833308 0)
(5.5349 0.950623 0)
(5.64931 0.935906 0)
(5.77051 1.16591 0)
(5.51085 1.06403 0)
(6.04751 1.30845 0)
(5.4667 1.26042 0)
(6.12667 1.46665 0)
(5.57819 1.59802 0)
(6.00075 1.61336 0)
(5.94008 1.88568 0)
(5.81115 1.84234 0)
(6.20829 2.14619 0)
(5.79885 2.28028 0)
(6.13395 2.3847 0)
(6.17708 2.7147 0)
(5.99017 2.84002 0)
(6.36024 3.12013 0)
(6.09615 3.5569 0)
(5.90105 3.83983 0)
(6.08139 4.36123 0)
(5.78134 5.06058 0)
(5.33581 6.19377 0)
(7.04968 6.54587 0)
(4.56613 11.0159 0)
(5.20482 0.097569 0)
(4.42205 0.496157 0)
(4.79163 0.568989 0)
(4.85956 0.668804 0)
(5.17367 0.978256 0)
(6.75429 1.22944 0)
(7.90529 1.25911 0)
(8.39692 0.813662 0)
(9.08323 0.456016 0)
(9.21522 0.13312 0)
(9.31853 -0.373626 0)
(9.7864 -1.07712 0)
(9.98606 -1.72295 0)
(10.9164 -2.42624 0)
(11.4567 -3.59628 0)
(11.6393 -4.00495 0)
(11.5924 -4.09572 0)
(11.8345 -4.69446 0)
(12.1464 -5.01426 0)
(11.2578 -5.1294 0)
(10.9019 -4.92947 0)
(9.77642 -4.96858 0)
(9.18583 -4.68238 0)
(8.44687 -4.35536 0)
(7.43992 -3.81175 0)
(7.61787 -3.1851 0)
(6.64938 -3.33221 0)
(6.34306 -2.60391 0)
(6.21118 -2.00459 0)
(5.1018 -1.05363 0)
(5.63186 -0.0864571 0)
(5.36335 0.0699491 0)
(4.49554 1.59171 0)
(5.43076 3.61546 0)
(7.01247 4.17522 0)
(7.89021 4.18241 0)
(7.91798 3.81255 0)
(7.79678 3.09094 0)
(8.11769 2.79044 0)
(7.94394 2.56867 0)
(7.75648 2.11359 0)
(7.96193 1.69188 0)
(8.51885 1.7496 0)
(9.12762 1.67333 0)
(9.3598 1.15873 0)
(9.65239 0.81077 0)
(10.1191 0.44254 0)
(10.3079 -0.0331936 0)
(10.9034 -0.875642 0)
(11.3892 -1.735 0)
(11.2829 -2.14737 0)
(11.7374 -3.21457 0)
(12.1368 -4.55918 0)
(11.733 -4.9572 0)
(11.1924 -4.86947 0)
(10.9586 -5.07126 0)
(10.9671 -5.7047 0)
(10.8879 -6.47056 0)
(10.565 -6.92344 0)
(10.2985 -7.28987 0)
(10.2556 -7.98514 0)
(10.1122 -8.52922 0)
(9.44511 -8.25038 0)
(8.30763 -7.29566 0)
(7.2513 -6.42424 0)
(6.61135 -6.12887 0)
(6.31624 -6.35095 0)
(6.2533 -6.86179 0)
(6.34405 -7.42446 0)
(6.49622 -7.82389 0)
(6.71913 -7.86665 0)
(6.93677 -7.51685 0)
(7.13013 -6.92585 0)
(7.37896 -6.07806 0)
(7.66734 -4.91592 0)
(7.78332 -3.60087 0)
(7.8279 -2.23172 0)
(7.94712 -0.758095 0)
(8.05137 0.680601 0)
(8.00741 2.02862 0)
(7.85978 3.27144 0)
(7.74458 4.31294 0)
(7.6522 5.17207 0)
(7.46828 5.89065 0)
(7.13484 6.28573 0)
(6.76284 6.27483 0)
(6.43025 6.00575 0)
(6.17068 5.71462 0)
(5.96811 5.40259 0)
(5.85174 5.10851 0)
(5.79836 4.75342 0)
(5.67243 4.36297 0)
(5.57672 3.94778 0)
(5.59569 3.53754 0)
(5.46878 3.1329 0)
(5.47789 2.79912 0)
(5.38728 2.54111 0)
(5.35819 2.30034 0)
(5.31982 2.10558 0)
(5.25263 1.86625 0)
(5.26489 1.68541 0)
(5.18035 1.51084 0)
(5.20427 1.38456 0)
(5.11477 1.30167 0)
(5.11774 1.22771 0)
(5.05559 1.1513 0)
(5.07615 1.07218 0)
(5.06286 0.959999 0)
(5.13425 0.850501 0)
(5.15893 0.755705 0)
(5.2251 0.648908 0)
(5.28041 0.59712 0)
(5.29438 0.531755 0)
(5.34398 0.499485 0)
(5.33129 0.46302 0)
(5.34335 0.444131 0)
(5.31373 0.394959 0)
(5.33079 0.388416 0)
(5.25997 0.326782 0)
(5.32517 0.30954 0)
(5.22959 0.264973 0)
(5.31802 0.237305 0)
(5.2274 0.19916 0)
(5.32877 0.192862 0)
(5.217 0.144076 0)
(5.35778 0.154509 0)
(5.21068 0.119866 0)
(5.3686 0.123747 0)
(5.21688 0.100232 0)
(5.37657 0.115158 0)
(5.20335 0.0811225 0)
(5.39788 0.103111 0)
(5.19224 0.0793699 0)
(5.39936 0.0945351 0)
(5.19374 0.0690436 0)
(5.40878 0.0988279 0)
(5.17205 0.0654674 0)
(5.43231 0.092129 0)
(5.16199 0.0667795 0)
(5.43648 0.107564 0)
(5.15228 0.0508518 0)
(5.46622 0.116626 0)
(5.11294 0.0746714 0)
(5.50967 0.0924248 0)
(5.08225 0.103912 0)
(5.53574 0.109336 0)
(5.08069 0.078526 0)
(5.52158 0.174282 0)
(5.10554 0.0506633 0)
(5.53273 0.190863 0)
(5.06195 0.114614 0)
(5.59386 0.146446 0)
(5.04605 0.156004 0)
(5.59399 0.207319 0)