/*--------------------------------*- C++ -*----------------------------------*\
| =========                 |                                                 |
| \\      /  F ield         | OpenFOAM: The Open Source CFD Toolbox           |
|  \\    /   O peration     | Version:  2.4.0                                 |
|   \\  /    A nd           | Web:      www.OpenFOAM.org                      |
|    \\/     M anipulation  |                                                 |
\*---------------------------------------------------------------------------*/
FoamFile
{
    version     2.0;
    format      ascii;
    class       volScalarField;
    location    "0.072";
    object      p;
}
// * * * * * * * * * * * * * * * * * * * * * * * * * * * * * * * * * * * * * //

dimensions      [0 2 -2 0 0 0 0];

internalField   nonuniform List<scalar> 
17600
(
83.9628
68.2832
63.8638
62.7297
61.7801
60.8104
59.9598
59.1427
58.4474
57.6572
56.9637
56.2791
55.4836
54.8215
54.1857
53.4295
52.5446
52.1781
50.73
49.3807
82.0546
68.3331
63.9047
62.7393
61.7835
60.8109
59.9602
59.1429
58.4477
57.6575
56.9629
56.2802
55.4837
54.8207
54.187
53.4313
52.543
52.1766
50.7412
49.5174
80.6411
68.5891
64.0485
62.7776
61.7974
60.8152
59.9626
59.1445
58.4495
57.6582
56.9626
56.282
55.4833
54.8202
54.1894
53.4338
52.5426
52.176
50.7992
49.6491
79.6652
68.9306
64.2684
62.8429
61.8266
60.8303
59.9712
59.1509
58.4545
57.6615
56.9637
56.2846
55.4831
54.8206
54.1931
53.4358
52.5487
52.177
50.8946
49.799
78.8432
69.2659
64.5323
62.9253
61.8685
60.8591
59.9901
59.1659
58.4653
57.6699
56.9678
56.289
55.4842
54.8227
54.1984
53.4372
52.5635
52.1814
51.0228
49.9532
78.0691
69.5588
64.8098
63.0082
61.9096
60.8957
60.0181
59.1898
58.4829
57.6849
56.9759
56.2961
55.4878
54.8272
54.2057
53.439
52.5868
52.1904
51.173
50.1156
77.3404
69.8066
65.0866
63.0859
61.9407
60.9296
60.0495
59.2192
58.5051
57.7054
56.9876
56.3058
55.4945
54.8341
54.2149
53.4426
52.6182
52.192
51.3278
50.3389
76.6671
70.0119
65.3558
63.1604
61.9613
60.9554
60.0801
59.2505
58.5288
57.7288
57.0002
56.3164
55.5039
54.8426
54.2248
53.4498
52.6548
52.209
51.4427
50.6503
76.0549
70.1783
65.6092
63.2373
61.9734
60.9728
60.1073
59.2814
58.5524
57.7528
57.0122
56.3268
55.5144
54.8517
54.2332
53.4617
52.6906
52.2418
51.5076
50.9939
75.5059
70.3066
65.844
63.3191
61.9789
60.9821
60.1302
59.3112
58.5753
57.7759
57.0226
56.3366
55.5256
54.86
54.2418
53.475
52.7289
52.2736
51.5872
51.3954
75.0186
70.3995
66.0595
63.4064
61.9791
60.9848
60.1489
59.3393
58.5973
57.7981
57.0317
56.3454
55.5367
54.8666
54.2519
53.4893
52.7678
52.2937
51.6961
51.7015
74.5898
70.4622
66.255
63.4988
61.9749
60.9822
60.1635
59.3656
58.6187
57.8191
57.0406
56.3526
55.5479
54.8729
54.2626
53.5061
52.8066
52.3385
51.8085
51.9315
74.2173
70.5
66.43
63.5944
61.9681
60.9753
60.1744
59.3898
58.6391
57.8388
57.0493
56.3583
55.5596
54.8784
54.275
53.525
52.8467
52.3892
51.9191
52.131
73.898
70.519
66.5846
63.6876
61.9611
60.9656
60.1821
59.4116
58.6587
57.856
57.0574
56.3632
55.5713
54.8837
54.2881
53.5464
52.8867
52.4446
52.0271
52.3173
73.6285
70.5271
66.7176
63.7712
61.9556
60.9549
60.1873
59.431
58.6764
57.8705
57.0653
56.367
55.5824
54.8901
54.3015
53.5698
52.927
52.5032
52.1312
52.4952
73.4068
70.5301
66.8272
63.8426
61.9524
60.9443
60.1909
59.4475
58.6922
57.8832
57.0695
56.3698
55.5936
54.8967
54.3153
53.5952
52.9682
52.5629
52.2306
52.6632
73.2319
70.5306
66.9128
63.9012
61.9512
60.9349
60.1932
59.4606
58.7057
57.8939
57.0756
56.3721
55.6045
54.9044
54.3291
53.6227
53.0094
52.6238
52.3262
52.8207
73.1021
70.5294
66.9754
63.9462
61.9517
60.9271
60.1944
59.4705
58.7166
57.9027
57.0812
56.3741
55.6151
54.9131
54.3429
53.6522
53.0509
52.6853
52.4185
52.9662
73.0162
70.5279
67.0165
63.9769
61.9529
60.9215
60.195
59.4773
58.7242
57.9091
57.0865
56.3763
55.6253
54.9227
54.3573
53.6827
53.0932
52.7464
52.5092
53.1033
72.9734
70.5271
67.0364
63.9925
61.9539
60.9187
60.1953
59.481
58.7286
57.9133
57.0908
56.3786
55.635
54.9335
54.3712
53.7141
53.1363
52.8061
52.602
53.226
72.9736
70.5274
67.0358
63.9928
61.9541
60.9192
60.1953
59.4816
58.7294
57.9154
57.094
56.381
55.6433
54.9451
54.3849
53.7458
53.1815
52.8616
52.7053
53.3361
73.0166
70.5288
67.0148
63.9777
61.9536
60.923
60.1954
59.479
58.7266
57.9158
57.0966
56.3833
55.6523
54.9573
54.3988
53.7785
53.2264
52.9175
52.8014
53.4589
73.1029
70.5307
66.9729
63.9476
61.9531
60.9294
60.1954
59.4734
58.7205
57.9131
57.0985
56.3854
55.6618
54.9699
54.4129
53.8125
53.269
52.9793
52.8733
53.5901
73.2331
70.5325
66.9092
63.9033
61.9528
60.9383
60.1944
59.4651
58.7105
57.9099
57.0995
56.3876
55.6707
54.9826
54.4278
53.846
53.3136
53.038
52.9472
53.7239
73.4085
70.5327
66.8227
63.8451
61.9544
60.9485
60.1924
59.4539
58.6974
57.9045
57.0997
56.3897
55.6791
54.9959
54.4423
53.8803
53.3601
53.0929
53.0264
53.8465
73.6304
70.5298
66.713
63.7736
61.9584
60.9593
60.1895
59.4397
58.6815
57.8969
57.0993
56.3908
55.6875
55.0098
54.4565
53.9162
53.4062
53.1496
53.1001
53.9638
73.9001
70.5215
66.5801
63.6903
61.9646
60.9702
60.1847
59.4233
58.6626
57.8881
57.098
56.391
55.6962
55.023
54.4714
53.9526
53.453
53.2079
53.1691
54.0775
74.2199
70.5031
66.4253
63.5972
61.9727
60.98
60.1777
59.4047
58.6414
57.8777
57.0956
56.3903
55.7048
55.0357
54.4872
53.9888
53.5013
53.2687
53.235
54.1756
74.5927
70.4667
66.2497
63.5013
61.9808
60.9866
60.1679
59.3837
58.619
57.8654
57.0924
56.3878
55.7137
55.0475
54.5039
54.0242
53.5518
53.3316
53.3023
54.2581
75.0215
70.4045
66.0543
63.4085
61.9863
60.9889
60.1542
59.3608
58.5953
57.8519
57.0878
56.3838
55.7225
55.0582
54.521
54.0594
53.6039
53.3959
53.377
54.3202
75.509
70.3109
65.8394
63.3207
61.9875
60.9858
60.1364
59.3365
58.5704
57.8375
57.0818
56.3782
55.7308
55.0678
54.5379
54.0937
53.6571
53.4617
53.4625
54.3527
76.0582
70.1818
65.6051
63.2383
61.9834
60.9757
60.1143
59.3109
58.5444
57.8217
57.0746
56.371
55.7386
55.0761
54.5545
54.1259
53.7112
53.5259
53.5588
54.3591
76.6704
70.0154
65.3517
63.1607
61.9726
60.9578
60.0874
59.2843
58.5178
57.8046
57.0666
56.3632
55.745
55.0834
54.5698
54.1551
53.7628
53.5862
53.658
54.3528
77.3436
69.8104
65.0826
63.0856
61.9534
60.9316
60.057
59.2575
58.4919
57.787
57.0583
56.3556
55.7496
55.09
54.5832
54.1803
53.8078
53.6398
53.745
54.3462
78.0719
69.5631
64.8064
63.0073
61.9233
60.8977
60.0254
59.2318
58.4684
57.7706
57.0507
56.3496
55.753
55.096
54.5948
54.2004
53.8446
53.684
53.8113
54.3559
78.8456
69.2706
64.5295
62.9237
61.8826
60.8613
59.9973
59.2105
58.4505
57.7582
57.0457
56.3463
55.7557
55.1016
54.6045
54.2154
53.8721
53.7178
53.8532
54.3646
79.6674
68.9356
64.2661
62.8408
61.8411
60.8328
59.9786
59.1968
58.4401
57.7512
57.0434
56.3457
55.7578
55.1063
54.6119
54.2252
53.8906
53.7407
53.8768
54.3803
80.6431
68.5942
64.0464
62.7752
61.8119
60.8179
59.9702
59.1906
58.436
57.7483
57.0429
56.3466
55.7589
55.1095
54.6168
54.2303
53.9013
53.7536
53.8911
54.4014
82.0563
68.3382
63.9027
62.7369
61.798
60.8137
59.9682
59.1886
58.435
57.7475
57.0428
56.3477
55.759
55.111
54.6194
54.2317
53.9056
53.7588
53.8986
54.4265
83.9644
68.2883
63.8617
62.7274
61.7946
60.8131
59.9681
59.188
58.4349
57.7474
57.0426
56.3483
55.7586
55.111
54.6204
54.2313
53.9063
53.7596
53.9009
54.4646
52.7378
55.4693
57.2614
57.1417
55.5329
52.525
46.8979
39.2961
31.7474
24.6972
18.3209
13.0245
8.17434
5.46113
4.99008
5.23786
7.51315
10.9665
14.8393
19.5052
23.8898
28.2802
33.758
40.6775
47.9223
54.1373
60.5048
66.0945
70.3607
74.8022
78.2031
81.3947
84.929
87.0534
89.8043
91.7143
90.0116
85.8512
82.0189
78.5434
75.1044
71.9054
68.6218
64.1074
59.3331
55.9468
53.189
49.9309
47.6652
45.7904
43.5349
42.0933
42.1365
42.6797
42.598
42.2514
43.0758
45.1693
47.4116
49.4624
51.7875
54.4066
57.1069
59.6421
61.6371
63.0393
63.9037
64.2156
63.7914
62.625
60.8743
58.4027
54.9135
50.1116
43.6997
35.9792
27.177
17.5507
8.11527
-0.0723569
-6.53772
-11.1789
-13.5556
-13.1009
-10.1353
-5.36862
1.31631
9.65985
18.4836
26.6111
33.6536
39.8315
45.417
50.7598
55.9839
60.9339
65.2343
68.7214
71.3661
73.3416
74.8029
75.8981
76.7306
77.3645
77.8579
78.2179
78.4938
78.6864
78.8321
78.948
79.0411
79.1216
79.1915
79.248
79.2909
79.3294
79.3534
79.3742
79.3887
79.3966
79.4007
79.4055
79.4056
79.4085
79.4078
79.4052
79.4005
79.396
79.3893
79.3846
79.3767
79.3695
79.3613
79.3537
79.3472
79.339
79.3287
79.321
79.3106
79.3015
79.2939
79.2822
79.2702
79.2625
79.2432
79.234
79.2132
79.1983
79.1808
79.1605
79.1375
79.1131
79.0878
79.0558
79.0287
78.9921
78.955
78.9136
78.8692
78.8214
78.7677
78.7072
78.6472
78.5719
78.5006
78.4106
78.3203
78.2205
78.1078
77.9864
77.8568
77.7122
77.5569
77.3913
77.2004
77.0103
76.794
76.5638
76.3103
76.0498
75.7585
75.4534
75.1291
74.7686
74.3861
73.9735
73.5334
73.0566
72.5348
71.9772
71.3544
70.6881
69.94
69.082
68.0037
66.676
64.691
61.073
56.8212
32.7669
52.8745
55.5689
57.3805
57.1359
55.2711
52.4731
47.6371
40.8143
33.7334
26.9904
20.8782
15.6496
10.9833
8.40613
7.79259
7.48017
9.40371
12.8972
16.3925
20.7219
25.6146
30.5617
35.8213
42.2457
49.3511
55.2055
61.2285
66.6914
70.9897
75.2668
78.8461
82.0866
85.8697
88.2205
91.2151
93.752
92.9009
88.9438
84.39
80.2495
76.2001
72.6339
69.429
65.079
60.2408
57.074
54.3151
51.1514
49.0623
47.3273
45.1157
43.5705
43.5934
44.3238
44.496
44.3083
45.1199
47.1396
49.3679
51.4045
53.5137
55.7293
58.1031
60.5272
62.502
63.7733
64.5122
64.7969
64.3778
63.1974
61.3717
58.7773
55.1281
50.0734
43.3433
35.2275
26.0451
16.0854
6.41089
-1.94823
-8.56602
-13.261
-15.5582
-15.0206
-11.9906
-7.04027
-0.10703
8.5019
17.5768
26.0043
33.3147
39.6618
45.3321
50.7125
55.9252
60.8694
65.1777
68.6681
71.355
73.3478
74.8355
75.9321
76.771
77.4044
77.8956
78.2583
78.5298
78.7251
78.8661
78.9848
79.0745
79.1571
79.2236
79.2795
79.3182
79.3554
79.3757
79.3968
79.4086
79.4156
79.4166
79.4206
79.418
79.421
79.4182
79.4146
79.4067
79.4016
79.3929
79.3876
79.3787
79.3696
79.3601
79.3517
79.3452
79.3352
79.3246
79.3143
79.3035
79.2931
79.287
79.2723
79.2609
79.2501
79.2303
79.2183
79.1974
79.179
79.1639
79.1386
79.1159
79.0866
79.0623
79.0252
78.9982
78.958
78.9186
78.8732
78.827
78.7776
78.717
78.657
78.5905
78.5147
78.4351
78.3452
78.2458
78.1468
78.0216
77.9012
77.7595
77.6118
77.4502
77.2703
77.0763
76.8725
76.6525
76.3988
76.1436
75.8565
75.5629
75.2336
74.88
74.5097
74.0963
73.6731
73.1858
72.6716
72.1169
71.4831
70.8144
70.0578
69.1682
68.1806
66.813
65.0313
62.8486
57.4937
52.7893
25.3573
53.0799
55.5811
57.2291
56.7618
54.7907
52.0485
47.879
41.7951
35.169
28.9086
23.2079
18.095
13.6686
11.1536
10.3924
9.54108
10.9696
14.7663
18.3843
22.2971
27.3329
32.7554
37.8269
43.659
50.5341
56.1819
61.8912
67.1763
71.5209
75.6931
79.3358
82.6303
86.5745
89.0856
92.0571
94.9536
94.5302
90.7936
85.7289
81.1609
76.8629
73.0855
70.0705
65.8416
61.1137
58.122
55.3711
52.2808
50.2995
48.7768
46.715
45.1642
45.125
45.9192
46.3753
46.4674
47.3168
49.1719
51.2412
53.1962
55.1299
57.0051
59.0814
61.3959
63.3669
64.5439
65.1694
65.4151
65.0009
63.8225
61.9274
59.2176
55.4186
50.1433
43.1325
34.6662
25.1315
14.8784
5.00384
-3.50234
-10.2586
-14.9908
-17.1902
-16.5698
-13.4807
-8.36421
-1.21946
7.60423
16.8774
25.5412
33.0892
39.5897
45.3199
50.7298
55.945
60.8584
65.1588
68.6505
71.3519
73.3569
74.8619
75.9646
76.8005
77.4384
77.9275
78.2947
78.5628
78.7616
78.897
79.0199
79.104
79.1912
79.2528
79.309
79.3419
79.3802
79.3952
79.4185
79.429
79.4337
79.4329
79.4357
79.4302
79.4336
79.4295
79.423
79.4128
79.4058
79.3961
79.3902
79.3803
79.3695
79.3583
79.3491
79.3431
79.3323
79.3196
79.3085
79.2959
79.2848
79.2795
79.263
79.2491
79.2397
79.2167
79.2053
79.18
79.1614
79.1443
79.1195
79.0922
79.0636
79.0338
78.9967
78.9666
78.9266
78.8804
78.8349
78.7845
78.7343
78.6681
78.6066
78.5355
78.4562
78.374
78.277
78.1766
78.069
77.943
77.8109
77.6706
77.5077
77.3455
77.1527
76.9531
76.7399
76.5018
76.2451
75.9684
75.6745
75.3505
75.0208
74.6394
74.2459
73.8179
73.3513
72.8478
72.2935
71.6877
71.0075
70.2452
69.4231
68.4031
67.1823
65.7256
63.2731
61.2352
53.9778
48.8815
23.2933
53.3285
55.553
56.8552
56.3403
54.3254
51.4134
47.7577
42.3219
36.1108
30.4168
25.0365
20.0954
15.9141
13.3862
12.5162
11.607
12.6609
16.6294
20.6419
24.2633
29.0754
34.7341
39.6863
44.9465
51.4971
57.0417
62.4907
67.5888
71.9197
76.0755
79.6744
83.0139
87.0432
89.6619
92.4123
95.4079
95.2042
91.5543
86.2388
81.5893
77.223
73.3165
70.546
66.5478
61.9839
59.1296
56.448
53.3476
51.4501
50.1552
48.2791
46.8048
46.7251
47.5096
48.2497
48.7264
49.634
51.2026
52.9865
54.8187
56.618
58.2338
60.054
62.2563
64.2196
65.3488
65.8996
66.0881
65.6633
64.4802
62.5278
59.709
55.7689
50.3132
43.0531
34.3058
24.4533
13.9532
3.9092
-4.71555
-11.5894
-16.3499
-18.4479
-17.7409
-14.5817
-9.33349
-1.9923
6.97558
16.4061
25.2529
32.9802
39.6078
45.3986
50.8191
56.0173
60.9015
65.168
68.6392
71.3536
73.367
74.8708
75.9883
76.825
77.4689
77.9579
78.3296
78.5908
78.7943
78.9214
79.0519
79.1307
79.2232
79.2825
79.3365
79.3657
79.4004
79.4146
79.4368
79.4491
79.4503
79.4489
79.4474
79.4424
79.4431
79.4408
79.4289
79.4185
79.4074
79.3999
79.3913
79.3831
79.3685
79.3565
79.3461
79.3414
79.3295
79.3156
79.3023
79.2883
79.2768
79.272
79.2532
79.2387
79.2286
79.2045
79.1923
79.1631
79.1418
79.1273
79.1003
79.0703
79.0384
79.0073
78.9668
78.9382
78.8931
78.8454
78.7939
78.7458
78.6894
78.6218
78.5551
78.4823
78.3995
78.3126
78.2111
78.1061
77.9953
77.8631
77.7261
77.5756
77.4132
77.2379
77.0436
76.8248
76.6102
76.361
76.086
75.7957
75.4859
75.157
74.7937
74.4019
73.9757
73.5346
73.0501
72.4978
71.9127
71.226
70.5178
69.7056
68.7445
67.6868
66.1281
64.7556
61.376
59.8487
50.7125
45.0615
23.643
53.5392
55.5427
56.3359
55.8359
53.9171
50.6991
47.394
42.6442
36.8041
31.5174
26.3703
21.7088
17.7845
15.229
14.4419
13.9409
14.8367
18.6277
22.9785
26.4745
30.8376
36.4435
41.3542
46.1673
52.3017
57.7642
62.9583
67.9048
72.155
76.3998
79.8481
83.223
87.2627
89.9634
92.3995
95.3082
95.3338
91.6823
86.2627
81.7505
77.3732
73.36
70.9109
67.169
62.6878
60.0716
57.4893
54.2969
52.5236
51.451
49.6913
48.4352
48.465
49.2419
50.1911
51.017
51.9281
53.1228
54.5667
56.2762
57.985
59.4201
61.0284
63.1109
65.0494
66.1695
66.6947
66.8254
66.3733
65.1703
63.1613
60.2422
56.1726
50.5654
43.1038
34.1303
24.0295
13.3177
3.15229
-5.57259
-12.5405
-17.3064
-19.3192
-18.5252
-15.2924
-9.92757
-2.42997
6.6405
16.1572
25.1485
33.006
39.7102
45.5574
50.9896
56.1534
60.9706
65.2096
68.6526
71.3572
73.3982
74.8934
76.0175
76.8462
77.4967
77.9795
78.3573
78.6157
78.824
78.9466
79.0819
79.1591
79.2523
79.3137
79.3575
79.3888
79.4129
79.4321
79.4499
79.4697
79.4615
79.4656
79.4542
79.455
79.4483
79.4553
79.4292
79.4263
79.4042
79.406
79.3887
79.3893
79.3628
79.3572
79.339
79.3436
79.323
79.3146
79.292
79.2833
79.266
79.269
79.241
79.2296
79.2162
79.1943
79.1782
79.148
79.1224
79.1112
79.0813
79.0493
79.0136
78.9799
78.9381
78.9103
78.8614
78.8088
78.7546
78.7064
78.6474
78.5738
78.5066
78.4287
78.3458
78.25
78.1473
78.0378
77.9227
77.7836
77.6402
77.4873
77.3162
77.1327
76.9283
76.7087
76.4737
76.2194
75.9313
75.6307
75.3029
74.9483
74.5796
74.1594
73.7298
73.238
72.7354
72.1516
71.5132
70.8241
70.0093
69.1843
68.0017
67.0069
64.9115
63.967
59.342
58.4644
47.9709
41.274
23.99
53.6703
55.566
55.7381
55.1698
53.526
50.0171
46.9343
42.9868
37.5095
32.4724
27.6993
23.3659
19.7666
17.2497
16.5022
16.5148
17.4808
20.819
25.2226
28.7035
32.5731
37.8968
42.7928
47.3182
52.9759
58.3357
63.3038
68.1075
72.2249
76.5838
79.8619
83.235
87.2427
89.9695
92.1295
94.808
95.1855
91.5326
86.0928
81.8321
77.4994
73.4282
71.2475
67.6382
63.2685
60.9447
58.4344
55.2097
53.6345
52.7413
51.1334
50.1792
50.4425
51.2038
52.1706
53.1489
53.9991
54.8496
55.9936
57.5998
59.2461
60.5598
62.0078
63.9729
65.8649
67.0034
67.5311
67.6057
67.1173
65.8864
63.8153
60.811
56.6183
50.8832
43.2801
34.1334
23.8618
13.0052
2.74654
-6.04211
-13.0837
-17.8421
-19.7794
-18.9133
-15.6111
-10.1363
-2.52627
6.6037
16.1544
25.2207
33.1677
39.9212
45.7944
51.2237
56.3842
61.1226
65.2978
68.7194
71.3868
73.4279
74.913
76.0475
76.8555
77.5231
78.0016
78.3856
78.6467
78.8495
78.9735
79.1036
79.1868
79.2725
79.3458
79.3705
79.4101
79.4187
79.4483
79.4594
79.4913
79.4683
79.4825
79.4539
79.4686
79.4459
79.4698
79.422
79.4308
79.3927
79.4124
79.38
79.3952
79.3511
79.3573
79.3253
79.3479
79.3121
79.3137
79.2772
79.2812
79.2508
79.2686
79.2243
79.2211
79.2004
79.187
79.1661
79.1356
79.0981
79.0972
79.0638
79.0284
78.9893
78.9547
78.9075
78.8836
78.832
78.7727
78.7134
78.6701
78.6056
78.5281
78.4562
78.3793
78.2903
78.1919
78.0831
77.9721
77.8498
77.7094
77.5571
77.3977
77.221
77.0334
76.8172
76.5816
76.3441
76.0797
75.7832
75.4492
75.117
74.7553
74.3585
73.918
73.4538
72.968
72.4147
71.8278
71.0821
70.4147
69.4574
68.7352
67.104
66.5476
63.5256
63.2277
57.3808
56.7496
45.7103
37.4595
23.6919
53.7644
55.4997
55.1716
54.4124
53.1016
49.5068
46.4621
43.277
38.2953
33.4926
29.169
25.1681
21.8828
19.57
18.8033
19.2005
20.3729
23.171
27.2982
30.7972
34.2999
39.1979
43.9835
48.3482
53.5364
58.7363
63.5415
68.2065
72.2238
76.5954
79.7432
83.0597
87.0386
89.6536
91.5981
94.0044
94.7497
91.2084
85.9048
81.9633
77.7203
73.6411
71.589
68.0799
63.8701
61.7621
59.382
56.327
54.975
54.1816
52.7542
52.168
52.6224
53.2602
54.0407
54.9936
55.7909
56.4121
57.3271
58.8277
60.421
61.6559
62.9794
64.8369
66.6816
67.8624
68.3995
68.4187
67.8766
66.6112
64.48
61.4015
57.1125
51.2686
43.5736
34.3051
23.9422
13.0248
2.71255
-6.11096
-13.1857
-17.9378
-19.813
-18.8898
-15.5272
-9.96039
-2.28062
6.85581
16.4148
25.4833
33.462
40.2287
46.1265
51.509
56.6328
61.3219
65.4212
68.7831
71.4292
73.4584
74.913
76.0796
76.8691
77.5512
78.0304
78.4048
78.6788
78.8651
78.9968
79.1174
79.2137
79.2871
79.3789
79.3783
79.4299
79.4191
79.4616
79.4637
79.5111
79.4656
79.494
79.4426
79.4771
79.4343
79.4791
79.4047
79.429
79.3743
79.415
79.3671
79.399
79.3306
79.3544
79.3055
79.3508
79.2919
79.3146
79.2489
79.2787
79.2294
79.2693
79.1975
79.2156
79.1731
79.1864
79.1393
79.1256
79.0675
79.0862
79.0345
79.02
78.9524
78.9288
78.8734
78.8683
78.792
78.739
78.6696
78.6402
78.5591
78.4855
78.4023
78.3348
78.2339
78.1355
78.0157
77.9108
77.7807
77.635
77.4723
77.3152
77.1315
76.9332
76.7038
76.4707
76.2143
75.9404
75.6254
75.2953
74.919
74.5552
74.115
73.6979
73.1839
72.7142
72.0651
71.5088
70.5955
70.1053
68.7081
68.3829
65.9999
66.0199
62.0815
62.339
55.4861
54.615
43.8792
33.641
23.0599
54.0082
55.4216
54.6159
53.5654
52.5176
49.1902
46.127
43.4863
39.161
34.6552
30.7752
27.0782
24.1027
22.1478
21.3682
21.9411
23.2951
25.6196
29.2667
32.7213
35.9924
40.4304
44.9635
49.2222
54.0077
58.9871
63.6881
68.187
72.1664
76.4711
79.5484
82.7606
86.699
89.0489
90.8032
93.0899
94.07
90.7464
85.7774
82.169
78.0465
74.0276
71.9766
68.6354
64.6121
62.6247
60.4984
57.7618
56.5446
55.82
54.604
54.2772
54.7834
55.2173
55.7238
56.5799
57.3663
57.8619
58.6054
59.9798
61.5091
62.7083
63.9432
65.7006
67.5118
68.747
69.2845
69.2474
68.6421
67.3287
65.1518
62.0003
57.6578
51.7233
43.991
34.6434
24.2682
13.3563
3.04971
-5.7666
-12.8298
-17.5693
-19.4061
-18.44
-15.0338
-9.40888
-1.69332
7.40017
16.9083
25.9467
33.8849
40.6267
46.5414
51.8859
56.9292
61.5177
65.5669
68.8748
71.4825
73.5252
74.9399
76.102
76.8839
77.5626
78.0561
78.4172
78.7125
78.8785
79.0216
79.127
79.2394
79.2972
79.4092
79.3802
79.4412
79.4127
79.4686
79.4596
79.5251
79.4513
79.4939
79.4194
79.4782
79.4161
79.4785
79.3797
79.4173
79.3475
79.4113
79.3468
79.395
79.2977
79.3472
79.2749
79.3475
79.258
79.3045
79.2072
79.2707
79.195
79.2644
79.155
79.2055
79.1326
79.1975
79.0985
79.1138
79.0185
79.0783
78.9921
79.0113
78.8956
78.9097
78.8234
78.8561
78.7381
78.7116
78.6091
78.617
78.5003
78.4492
78.3366
78.2996
78.1643
78.0851
77.94
77.8574
77.6955
77.5676
77.3816
77.2387
77.0231
76.8478
76.5864
76.3617
76.0669
75.8291
75.462
75.1361
74.6938
74.3879
73.8595
73.4855
72.8052
72.505
71.6092
71.2935
69.9525
69.8619
67.8095
67.92
64.832
65.3535
60.5614
61.2697
53.8727
51.2266
42.1395
31.0367
22.8062
54.4744
55.4589
54.0598
52.6356
51.7749
48.9478
45.9763
43.6654
40.0672
35.8884
32.4216
29.0933
26.379
24.8052
24.1052
24.6811
26.0726
27.9909
31.1141
34.4189
37.531
41.5475
45.7885
49.9496
54.424
59.1404
63.7546
68.0804
72.014
76.2058
79.2801
82.4223
86.2726
88.2651
89.8719
92.1001
93.0876
90.1948
85.7732
82.4216
78.6151
74.7616
72.5104
69.4566
65.7209
63.7396
61.8524
59.4337
58.3105
57.5888
56.5428
56.3245
56.7672
56.9803
57.2236
57.9842
58.7839
59.2114
59.8229
61.0621
62.5189
63.7098
64.8995
66.5735
68.3654
69.645
70.1693
70.0654
69.3956
68.0248
65.8145
62.6145
58.2326
52.2677
44.5154
35.1645
24.8095
13.9867
3.73844
-5.01823
-12.0215
-16.7267
-18.5449
-17.5589
-14.1406
-8.48692
-0.778533
8.24054
17.645
26.583
34.4456
41.1307
47.0132
52.335
57.3323
61.7801
65.7287
68.9975
71.5489
73.5695
74.9843
76.125
76.8973
77.5738
78.0804
78.4312
78.7512
78.8857
79.0433
79.127
79.2609
79.3007
79.4316
79.3754
79.4415
79.3968
79.4681
79.4477
79.5303
79.424
79.4794
79.3834
79.4674
79.3911
79.4645
79.3402
79.391
79.3077
79.3969
79.3139
79.3761
79.244
79.3207
79.231
79.331
79.2042
79.2759
79.1455
79.2488
79.1457
79.2438
79.0891
79.1783
79.077
79.1849
79.0362
79.0987
78.9517
79.063
78.9278
78.9987
78.8187
78.8819
78.7516
78.8508
78.659
78.6821
78.5274
78.6004
78.4178
78.4182
78.2466
78.2748
78.0784
78.0434
77.8376
77.8197
77.5951
77.5092
77.2572
77.1819
76.8991
76.771
76.422
76.2791
75.8905
75.7228
75.242
75.0224
74.4192
74.2372
73.5123
73.3369
72.3612
72.3376
71.0314
70.9654
69.1864
69.4267
66.7803
67.27
63.5332
64.5736
59.2891
59.1691
52.5918
47.1994
40.3828
29.8626
23.3707
54.9023
55.3995
53.5826
51.9981
51.0595
48.7125
45.9596
43.8704
40.943
37.2224
34.0379
31.1405
28.6301
27.3402
26.8095
27.2792
28.5142
30.1048
32.7838
35.8868
38.8966
42.5603
46.4746
50.54
54.7658
59.2215
63.7355
67.8976
71.7929
75.8294
78.9019
82.0348
85.7474
87.4695
88.9163
90.9544
91.7693
89.5194
85.7272
82.5648
79.3764
75.7838
73.2441
70.6005
67.2288
65.139
63.3528
61.2165
60.14
59.3837
58.4251
58.1921
58.5056
58.5451
58.6102
59.2807
60.0717
60.4695
60.9786
62.0699
63.4534
64.6585
65.8494
67.4685
69.2457
70.5382
71.0328
70.8569
70.1166
68.6873
66.441
63.2304
58.8255
52.8935
45.1505
35.8602
25.5628
14.8811
4.75202
-3.90542
-10.7914
-15.4294
-17.2393
-16.2529
-12.8503
-7.20574
0.432341
9.36157
18.6104
27.387
35.1329
41.7277
47.549
52.7954
57.7472
62.1306
65.9228
69.1207
71.6259
73.5969
75.0329
76.1519
76.9256
77.5817
78.1061
78.4358
78.7846
78.882
79.0568
79.1172
79.2756
79.3022
79.4438
79.3638
79.4335
79.3712
79.4549
79.4243
79.5209
79.3811
79.45
79.3335
79.4386
79.3518
79.4334
79.2817
79.3509
79.2527
79.3675
79.2641
79.337
79.1688
79.2766
79.1715
79.2973
79.1306
79.2191
79.0586
79.2097
79.081
79.1977
78.9969
79.1279
79.0006
79.1525
78.945
79.0407
78.8579
79.0277
78.8394
78.9533
78.7051
78.8478
78.6535
78.8149
78.5362
78.638
78.4095
78.576
78.2872
78.3761
78.114
78.2441
77.9339
78.0027
77.6915
77.785
77.4328
77.4632
77.0905
77.13
76.706
76.7081
76.2254
76.19
75.6356
75.6306
74.9911
74.8686
74.055
74.0954
73.1277
73.1037
71.7907
72.0447
70.3617
70.5474
68.3078
68.7983
65.6193
66.5773
62.6065
63.0732
58.4
55.9955
50.9478
44.5077
39.3778
30.0217
24.4107
55.187
55.345
53.2812
51.6103
50.5104
48.4781
46.0208
44.1246
41.7556
38.3433
35.5367
33.1247
30.7767
29.6459
29.2589
29.5747
30.5852
31.9703
34.3353
37.2048
40.0857
43.4855
47.0671
50.9798
54.9962
59.1835
63.6028
67.5949
71.46
75.3853
78.4377
81.56
85.0517
86.6654
87.9588
89.7467
90.4299
88.7941
85.4473
82.507
80.0852
76.7849
74.1018
71.8523
68.8509
66.6793
64.8761
62.9857
61.9434
61.1183
60.1443
59.8241
60.0308
59.9828
59.9518
60.5257
61.2654
61.6461
62.0673
63.004
64.3202
65.56
66.7865
68.38
70.1354
71.4109
71.8552
71.6088
70.7887
69.3023
67.0256
63.8187
59.4379
53.5652
45.9169
36.7212
26.5404
16.0254
6.06163
-2.47178
-9.19591
-13.7201
-15.5142
-14.5471
-11.1845
-5.59135
1.93858
10.7321
19.7937
28.3724
35.9226
42.4254
48.1795
53.3323
58.1438
62.5018
66.1622
69.2898
71.7562
73.6568
75.0914
76.1536
76.9504
77.5846
78.126
78.4425
78.8099
78.8719
79.0628
79.0981
79.2737
79.2948
79.4424
79.3433
79.4171
79.3325
79.4215
79.3746
79.4878
79.3219
79.4075
79.2701
79.386
79.2841
79.3754
79.2056
79.2989
79.1854
79.3162
79.1855
79.2687
79.074
79.2115
79.0943
79.2378
79.0278
79.1275
78.9506
79.1461
78.9931
79.1201
78.8767
79.0443
78.9042
79.0875
78.8126
78.9393
78.7363
78.9649
78.7221
78.8581
78.5478
78.7621
78.5287
78.7372
78.3629
78.5436
78.2576
78.4975
78.1015
78.2831
77.9341
78.1713
77.7227
77.914
77.4771
77.7159
77.2129
77.3834
76.8401
77.0494
76.4864
76.6301
75.9331
76.0809
75.359
75.5003
74.6349
74.6913
73.6244
73.8312
72.5936
72.704
71.0858
71.5523
69.4794
69.9559
67.4819
68.0034
64.9831
65.3894
62.1548
60.7021
57.1049
53.1999
49.1073
43.1171
39.3367
31.1759
25.5946
55.3804
55.3703
53.1049
51.3607
50.1468
48.2847
46.0981
44.4432
42.5383
39.389
36.8981
35.0203
32.8309
31.7105
31.3596
31.5868
32.4715
33.7111
35.7903
38.3865
41.1253
44.3
47.5928
51.2983
55.127
59.055
63.3532
67.1915
70.9867
74.838
77.888
80.9906
84.1966
85.7975
87.0235
88.5667
89.2361
88.0645
84.9969
82.401
80.579
77.5723
74.9778
72.9709
70.3644
68.2223
66.3322
64.6245
63.6254
62.7078
61.6728
61.288
61.4388
61.3629
61.2837
61.7463
62.3962
62.7538
63.0896
63.8779
65.1307
66.4233
67.7037
69.2857
71.006
72.2414
72.6266
72.3101
71.4038
69.8602
67.5648
64.3727
60.0528
54.2781
46.7957
37.7515
27.7445
17.4138
7.64278
-0.735645
-7.27785
-11.6536
-13.4161
-12.4759
-9.1774
-3.66416
3.71238
12.3195
21.1833
29.4997
36.8247
43.192
48.852
53.9922
58.5776
62.8431
66.4004
69.4549
71.9037
73.7064
75.1719
76.1489
76.9616
77.5847
78.1326
78.4479
78.8267
78.8504
79.052
79.0612
79.2478
79.2631
79.4279
79.3104
79.3862
79.2749
79.3642
79.2902
79.4292
79.2471
79.3491
79.1896
79.3035
79.1848
79.2959
79.1211
79.2378
79.1038
79.2326
79.07
79.1682
78.9683
79.1312
78.9958
79.1326
78.8867
79.0061
78.8311
79.0584
78.8768
78.994
78.7276
78.9392
78.7874
78.9662
78.6293
78.7898
78.5954
78.8765
78.572
78.6867
78.3425
78.6467
78.3896
78.5872
78.1329
78.3928
78.0767
78.3485
77.8601
78.1213
77.7117
77.9981
77.4266
77.7406
77.2215
77.523
76.8487
77.2153
76.5322
76.8412
76.0693
76.4867
75.5444
75.83
74.8722
75.385
74.162
74.3134
73.039
73.5618
72.0399
72.1657
70.4868
70.9136
68.9381
69.2854
67.1223
66.8836
64.6199
63.5794
61.1126
58.4222
55.3927
51.3513
48.2199
42.7848
39.9788
32.626
26.7127
55.5116
55.4214
53.0068
51.2081
49.9402
48.1828
46.1928
44.7705
43.3116
40.4182
38.1579
36.7573
34.7773
33.5798
33.1902
33.4479
34.2807
35.3391
37.1463
39.4679
42.0634
45.0362
48.0374
51.5073
55.1574
58.8813
63.0385
66.7219
70.4354
74.2042
77.2141
80.2854
83.2485
84.8752
86.1372
87.4768
88.0974
87.2195
84.5551
82.3594
80.806
78.184
75.802
73.8911
71.7036
69.642
67.6717
66.0966
65.1309
64.1528
63.0813
62.6774
62.8051
62.7311
62.6211
62.9558
63.4907
63.8173
64.0697
64.7216
65.8978
67.2398
68.5843
70.155
71.8263
73.0033
73.3284
72.94
71.9489
70.3534
68.0515
64.8877
60.6519
55.0262
47.7617
38.9378
29.1697
19.0325
9.46585
1.28644
-5.05118
-9.2659
-10.9777
-10.0878
-6.86418
-1.45759
5.75165
14.0706
22.7357
30.7654
37.8407
44.0218
49.5373
54.6777
59.0877
63.223
66.619
69.5678
72.0071
73.742
75.2875
76.1656
76.9668
77.5579
78.1125
78.4211
78.8357
78.8008
79.0173
79.0012
79.2014
79.2161
79.3969
79.2554
79.3353
79.1893
79.2901
79.1848
79.3462
79.1542
79.2645
79.0855
79.1961
79.0674
79.2025
79.0263
79.1553
78.9921
79.1078
78.9205
79.0476
78.8565
79.0295
78.8588
78.9742
78.7156
78.8755
78.7106
78.9363
78.7101
78.8143
78.563
78.8142
78.6321
78.7682
78.3916
78.619
78.4572
78.7441
78.3498
78.4407
78.1257
78.5013
78.2148
78.3582
77.8586
78.1864
77.8736
78.1377
77.5822
77.8844
77.4573
77.7495
77.1053
77.4734
76.9358
77.2232
76.4285
76.8856
76.1965
76.4853
75.5402
76.0775
75.0911
75.3705
74.3147
74.852
73.5127
73.7188
72.5522
72.9807
71.2437
71.4489
70.0962
70.1203
68.2209
68.2887
66.3946
65.4808
63.4901
61.7535
59.4266
56.7454
54.166
50.5023
48.3735
43.3607
40.8873
33.9716
27.7123
55.5928
55.4648
52.9897
51.1236
49.8232
48.1935
46.3125
45.0367
44.059
41.4686
39.3182
38.2829
36.5856
35.3569
34.8762
35.1797
35.9774
36.8365
38.4048
40.4657
42.8774
45.6576
48.4124
51.6303
55.0802
58.6054
62.6271
66.177
69.8092
73.5263
76.464
79.4592
82.2606
83.9346
85.2631
86.417
86.9547
86.3635
84.2473
82.318
80.8716
78.7045
76.5061
74.6749
72.847
70.8882
68.9215
67.4474
66.5205
65.5145
64.4466
64.0611
64.1761
64.097
63.9456
64.1598
64.5828
64.8569
65.0156
65.5352
66.6278
67.9927
69.3978
70.9618
72.5714
73.6762
73.9446
73.4864
72.4169
70.7743
68.4793
65.3579
61.2268
55.7918
48.7887
40.2591
30.76
20.873
11.5185
3.56614
-2.55003
-6.60765
-8.26684
-7.42492
-4.28906
0.991994
8.02616
16.0675
24.4217
32.1218
38.9654
44.9451
50.2755
55.321
59.7245
63.6877
66.8844
69.7164
72.104
73.8061
75.4057
76.1567
76.951
77.4965
78.0618
78.37
78.8268
78.7186
78.966
78.9305
79.1451
79.1619
79.3284
79.1572
79.2568
79.083
79.2112
79.0765
79.228
79.0286
79.1458
78.9694
79.082
78.9448
79.0853
78.9003
79.0362
78.8493
78.9553
78.7524
78.9056
78.7243
78.891
78.6782
78.782
78.5452
78.7421
78.5746
78.7592
78.4846
78.6003
78.3931
78.6618
78.4133
78.4896
78.1444
78.4574
78.3027
78.5197
78.0364
78.1577
77.9278
78.3395
77.9612
78.0102
77.5651
77.9772
77.6355
77.8244
77.2685
77.6097
77.1686
77.4186
76.779
77.1631
76.6129
76.8348
76.049
76.528
75.8536
76.0451
75.0935
75.6101
74.6669
74.8908
73.8424
74.2282
72.859
73.1543
72.0817
72.1626
70.2959
70.6856
69.4702
69.0486
66.9701
66.974
64.9193
63.7935
61.7135
59.9898
57.8168
55.5877
53.5955
50.4037
49.073
44.3524
41.6463
35.0606
28.6643
55.6571
55.4886
53.0262
51.1034
49.7621
48.3035
46.5001
45.2692
44.7449
42.5084
40.4055
39.5996
38.237
37.0912
36.4719
36.7398
37.5247
38.2364
39.5807
41.3569
43.569
46.1707
48.6995
51.6492
54.9024
58.2389
62.0962
65.5383
69.0713
72.7499
75.6536
78.5876
81.2294
82.9552
84.3374
85.4278
85.9731
85.6722
84.0281
82.234
80.8783
79.1114
77.0815
75.3724
73.8221
72.009
70.1068
68.7228
67.8304
66.8285
65.8209
65.4584
65.5425
65.4387
65.2468
65.3628
65.6679
65.8489
65.9154
66.3089
67.3079
68.6659
70.1154
71.6788
73.229
74.2545
74.4686
73.9412
72.7967
71.1141
68.8325
65.782
61.7715
56.5574
49.8557
41.6614
32.4757
22.8787
13.8095
6.10483