/*--------------------------------*- C++ -*----------------------------------*\
| =========                 |                                                 |
| \\      /  F ield         | OpenFOAM: The Open Source CFD Toolbox           |
|  \\    /   O peration     | Version:  2.4.0                                 |
|   \\  /    A nd           | Web:      www.OpenFOAM.org                      |
|    \\/     M anipulation  |                                                 |
\*---------------------------------------------------------------------------*/
FoamFile
{
    version     2.0;
    format      ascii;
    class       surfaceScalarField;
    location    "0.072";
    object      phi_0;
}
// * * * * * * * * * * * * * * * * * * * * * * * * * * * * * * * * * * * * * //

dimensions      [0 3 -1 0 0 0 0];

internalField   nonuniform List<scalar> 
34880
(
5.48753e-06
7.01247e-06
3.12533e-06
2.36221e-06
2.47224e-06
6.5309e-07
2.21788e-06
2.54357e-07
2.07594e-06
1.41938e-07
1.96755e-06
1.08389e-07
1.88611e-06
8.14402e-08
1.81741e-06
6.87044e-08
1.77702e-06
4.03902e-08
1.72807e-06
4.89513e-08
1.70565e-06
2.24141e-08
1.67922e-06
2.64316e-08
1.64334e-06
3.58825e-08
1.62755e-06
1.57835e-08
1.61662e-06
1.09358e-08
1.58918e-06
2.7436e-08
1.55676e-06
3.24202e-08
1.64893e-06
-9.21651e-08
1.34193e-06
3.06996e-07
-1.57234e-06
2.91427e-06
1.011e-05
9.40246e-06
7.83103e-06
4.64119e-06
6.70865e-06
1.77547e-06
6.06307e-06
8.99939e-07
5.64649e-06
5.58518e-07
5.34866e-06
4.06219e-07
5.12143e-06
3.08669e-07
4.94136e-06
2.48781e-07
4.80897e-06
1.7278e-07
4.68897e-06
1.68948e-07
4.61203e-06
9.9357e-08
4.52745e-06
1.11011e-07
4.45438e-06
1.08953e-07
4.39527e-06
7.48868e-08
4.3515e-06
5.47033e-08
4.2838e-06
9.51393e-08
4.22339e-06
9.28282e-08
4.33624e-06
-2.05017e-07
4.06237e-06
5.80866e-07
-2.12782e-06
4.61785e-06
1.2424e-05
9.47844e-06
1.10058e-05
6.05945e-06
9.97812e-06
2.8031e-06
9.202e-06
1.67606e-06
8.61926e-06
1.14126e-06
8.18986e-06
8.35623e-07
7.85484e-06
6.43683e-07
7.59245e-06
5.11171e-07
7.38334e-06
3.81892e-07
7.20966e-06
3.42631e-07
7.08397e-06
2.2505e-07
6.95062e-06
2.44363e-07
6.85206e-06
2.07507e-07
6.75269e-06
1.74256e-07
6.68156e-06
1.25838e-07
6.58536e-06
1.91335e-07
6.50908e-06
1.69108e-07
6.57192e-06
-2.67861e-07
6.48841e-06
6.64381e-07
-2.13274e-06
6.49332e-06
1.341e-05
8.56841e-06
1.28919e-05
6.57756e-06
1.23237e-05
3.37137e-06
1.17155e-05
2.28423e-06
1.11333e-05
1.72343e-06
1.06591e-05
1.30983e-06
1.0269e-05
1.03373e-06
9.95924e-06
8.20975e-07
9.69826e-06
6.42877e-07
9.48513e-06
5.55757e-07
9.32753e-06
3.82648e-07
9.15129e-06
4.20605e-07
9.03613e-06
3.22667e-07
8.90725e-06
3.03138e-07
8.81154e-06
2.21548e-07
8.69149e-06
3.11376e-07
8.62243e-06
2.38168e-07
8.58709e-06
-2.3252e-07
8.62858e-06
6.22892e-07
-2.10475e-06
8.60059e-06
1.35869e-05
7.48147e-06
1.36648e-05
6.49968e-06
1.36225e-05
3.41371e-06
1.33991e-05
2.50761e-06
1.30171e-05
2.10548e-06
1.26271e-05
1.69984e-06
1.22651e-05
1.39566e-06
1.19665e-05
1.1196e-06
1.16955e-05
9.1386e-07
1.14666e-05
7.8464e-07
1.13057e-05
5.4357e-07
1.1101e-05
6.2536e-07
1.09793e-05
4.44341e-07
1.08394e-05
4.42987e-07
1.07265e-05
3.34509e-07
1.05851e-05
4.52733e-07
1.05442e-05
2.79059e-07
1.04354e-05
-1.23717e-07
1.0413e-05
6.45358e-07
-2.13119e-06
1.04394e-05
1.34752e-05
6.50627e-06
1.37591e-05
6.21574e-06
1.40012e-05
3.17162e-06
1.41402e-05
2.36861e-06
1.40794e-05
2.16635e-06
1.39056e-05
1.87358e-06
1.36811e-05
1.62015e-06
1.34784e-05
1.32229e-06
1.32654e-05
1.12694e-06
1.30594e-05
9.90648e-07
1.29363e-05
6.66644e-07
1.27321e-05
8.29551e-07
1.26172e-05
5.59204e-07
1.24932e-05
5.66975e-07
1.23777e-05
4.50095e-07
1.22229e-05
6.07449e-07
1.22104e-05
2.91646e-07
1.2094e-05
-7.39115e-09
1.19878e-05
7.51558e-07
-1.83394e-06
1.16906e-05
1.33488e-05
5.65748e-06
1.3696e-05
5.86853e-06
1.39455e-05
2.92215e-06
1.42153e-05
2.09882e-06
1.43806e-05
2.00097e-06
1.44223e-05
1.83189e-06
1.4382e-05
1.66046e-06
1.43414e-05
1.36296e-06
1.42659e-05
1.20236e-06
1.41352e-05
1.12134e-06
1.41055e-05
6.96346e-07
1.39503e-05
9.84804e-07
1.38634e-05
6.46105e-07
1.379e-05
6.40368e-07
1.36978e-05
5.42337e-07
1.35511e-05
7.54114e-07
1.3558e-05
2.84728e-07
1.34633e-05
8.7312e-08
1.33807e-05
8.34145e-07
-1.2632e-06
1.281e-05
1.32525e-05
4.90495e-06
1.36789e-05
5.44219e-06
1.38313e-05
2.76976e-06
1.40901e-05
1.84002e-06
1.43162e-05
1.77482e-06
1.44621e-05
1.68602e-06
1.45162e-05
1.60632e-06
1.45885e-05
1.29067e-06
1.46597e-05
1.13113e-06
1.4609e-05
1.17207e-06
1.47021e-05
6.03229e-07
1.46498e-05
1.03716e-06
1.46127e-05
6.83206e-07
1.46245e-05
6.28521e-07
1.45973e-05
5.69538e-07
1.44953e-05
8.56165e-07
1.45201e-05
2.59854e-07
1.44652e-05
1.42192e-07
1.4469e-05
8.30384e-07
-5.37585e-07
1.37434e-05
1.31852e-05
4.21971e-06
1.36099e-05
5.01749e-06
1.37477e-05
2.63196e-06
1.39784e-05
1.60937e-06
1.41904e-05
1.56284e-06
1.43762e-05
1.50013e-06
1.44446e-05
1.53793e-06
1.45435e-05
1.19177e-06
1.46946e-05
9.80034e-07
1.46647e-05
1.20198e-06
1.48228e-05
4.45141e-07
1.4867e-05
9.92974e-07
1.48643e-05
6.85914e-07
1.49477e-05
5.45155e-07
1.50076e-05
5.09604e-07
1.49853e-05
8.78415e-07
1.50169e-05
2.28257e-07
1.5049e-05
1.10141e-07
1.51824e-05
6.97015e-07
-8.00677e-07
1.54454e-05
1.31296e-05
3.59012e-06
1.35489e-05
4.59822e-06
1.36945e-05
2.48632e-06
1.38916e-05
1.41231e-06
1.40926e-05
1.36182e-06
1.42881e-05
1.30466e-06
1.43508e-05
1.47522e-06
1.44683e-05
1.07422e-06
1.46243e-05
8.24032e-07
1.46071e-05
1.21922e-06
1.4775e-05
2.77214e-07
1.485e-05
9.17968e-07
1.48561e-05
6.79782e-07
1.49589e-05
4.42369e-07
1.50567e-05
4.11848e-07
1.51028e-05
8.32308e-07
1.51241e-05
2.06984e-07
1.52501e-05
-1.58995e-08
1.54421e-05
5.05048e-07
-9.49844e-07
1.55912e-05
1.30551e-05
3.03501e-06
1.35005e-05
4.15283e-06
1.36523e-05
2.33456e-06
1.38134e-05
1.25122e-06
1.40429e-05
1.13225e-06
1.41908e-05
1.1568e-06
1.42839e-05
1.38209e-06
1.44224e-05
9.35704e-07
1.45142e-05
7.32288e-07
1.45742e-05
1.15919e-06
1.47131e-05
1.38318e-07
1.47676e-05
8.63447e-07
1.48105e-05
6.36918e-07
1.49141e-05
3.38772e-07
1.49778e-05
3.48165e-07
1.50647e-05
7.4534e-07
1.51096e-05
1.62107e-07
1.52415e-05
-1.47769e-07
1.5427e-05
3.19564e-07
-1.00125e-06
1.54784e-05
1.29718e-05
2.5632e-06
1.34563e-05
3.6683e-06
1.36024e-05
2.18852e-06
1.3768e-05
1.0856e-06
1.40026e-05
8.97627e-07
1.40924e-05
1.06703e-06
1.42576e-05
1.21682e-06
1.43585e-05
8.34869e-07
1.44177e-05
6.73052e-07
1.45641e-05
1.01282e-06
1.46285e-05
7.39194e-08
1.46779e-05
8.13986e-07
1.47787e-05
5.36186e-07
1.48665e-05
2.50956e-07
1.48763e-05
3.3832e-07
1.50038e-05
6.17829e-07
1.50964e-05
6.95488e-08
1.5172e-05
-2.23362e-07
1.53338e-05
1.57734e-07
-1.17639e-06
1.5509e-05
1.29173e-05
2.14591e-06
1.34103e-05
3.17533e-06
1.35808e-05
2.01798e-06
1.37595e-05
9.06881e-07
1.39299e-05
7.27205e-07
1.40325e-05
9.64476e-07
1.42277e-05
1.0216e-06
1.42766e-05
7.8596e-07
1.43803e-05
5.69337e-07
1.45273e-05
8.6582e-07
1.45346e-05
6.66663e-08
1.46267e-05
7.21849e-07
1.47429e-05
4.19985e-07
1.47963e-05
1.97566e-07
1.48003e-05
3.34308e-07
1.49662e-05
4.52002e-07
1.50595e-05
-2.38169e-08
1.50831e-05
-2.4689e-07
1.52729e-05
-3.21362e-08
-1.46314e-06
1.55597e-05
1.28926e-05
1.75327e-06
1.33576e-05
2.71034e-06
1.36011e-05
1.77455e-06
1.37425e-05
7.65409e-07
1.38471e-05
6.22696e-07
1.40128e-05
7.98737e-07
1.41627e-05
8.71732e-07
1.42254e-05
7.2322e-07
1.43692e-05
4.25582e-07
1.44591e-05
7.75867e-07
1.4471e-05
5.47447e-08
1.46124e-05
5.80466e-07
1.46853e-05
3.47073e-07
1.47236e-05
1.593e-07
1.47796e-05
2.78314e-07
1.49307e-05
3.00844e-07
1.49901e-05
-8.31675e-08
1.50274e-05
-2.84223e-07
1.52473e-05
-2.52005e-07
-1.70623e-06
1.54904e-05
1.28626e-05
1.39068e-06
1.33022e-05
2.27069e-06
1.35966e-05
1.48023e-06
1.36947e-05
6.67235e-07
1.38056e-05
5.11869e-07
1.3992e-05
6.12296e-07
1.40888e-05
7.74885e-07
1.42199e-05
5.92128e-07
1.43374e-05
3.08088e-07
1.43951e-05
7.18193e-07
1.44485e-05
1.38456e-09
1.45956e-05
4.33347e-07
1.46199e-05
3.22747e-07
1.46771e-05
1.02106e-07
1.47845e-05
1.70949e-07
1.4881e-05
2.04355e-07
1.49251e-05
-1.27293e-07
1.50068e-05
-3.65992e-07
1.52217e-05
-4.66864e-07
-1.85689e-06
1.53724e-05
1.28144e-05
1.07626e-06
1.32643e-05
1.8208e-06
1.35736e-05
1.17096e-06
1.36534e-05
5.87441e-07
1.38043e-05
3.60971e-07
1.39391e-05
4.77424e-07
1.40496e-05
6.64456e-07
1.42214e-05
4.20333e-07
1.42809e-05
2.48589e-07
1.43601e-05
6.38987e-07
1.44504e-05
-8.89761e-08
1.45456e-05
3.38151e-07
1.4566e-05
3.02395e-07
1.46747e-05
-6.61234e-09
1.47609e-05
8.4742e-08
1.48174e-05
1.47911e-07
1.49037e-05
-2.13691e-07
1.50025e-05
-4.647e-07
1.51651e-05
-6.29514e-07
-1.91425e-06
1.52225e-05
1.27809e-05
7.95401e-07
1.325e-05
1.35169e-06
1.35349e-05
8.86053e-07
1.36552e-05
4.67158e-07
1.37912e-05
2.24983e-07
1.38808e-05
3.87738e-07
1.4051e-05
4.94302e-07
1.41942e-05
2.77126e-07
1.42307e-05
2.12127e-07
1.43615e-05
5.08177e-07
1.44328e-05
-1.6029e-07
1.44828e-05
2.88116e-07
1.45522e-05
2.32986e-07
1.46726e-05
-1.26998e-07
1.47042e-05
5.31056e-08
1.47794e-05
7.27347e-08
1.49017e-05
-3.36004e-07
1.4988e-05
-5.50974e-07
1.50945e-05
-7.36012e-07
-1.8651e-06
1.50454e-05
1.27797e-05
5.15715e-07
1.32315e-05
8.99905e-07
1.35092e-05
6.08279e-07
1.36758e-05
3.00646e-07
1.37452e-05
1.55495e-07
1.38656e-05
2.67425e-07
1.40533e-05
3.06561e-07
1.41467e-05
1.83691e-07
1.42179e-05
1.40949e-07
1.43717e-05
3.5442e-07
1.43842e-05
-1.72843e-07
1.44554e-05
2.16974e-07
1.45658e-05
1.22517e-07
1.46296e-05
-1.90735e-07
1.46702e-05
1.24346e-08
1.47761e-05
-3.31434e-08
1.48837e-05
-4.43598e-07
1.4966e-05
-6.33274e-07
1.50297e-05
-7.99698e-07
-1.81002e-06
1.49746e-05
1.27771e-05
2.38569e-07
1.31964e-05
4.80646e-07
1.35125e-05
2.92208e-07
1.367e-05
1.43078e-07
1.37105e-05
1.15032e-07
1.38869e-05
9.10472e-08
1.4025e-05
1.68429e-07
1.4119e-05
8.97474e-08
1.42379e-05
2.1966e-08
1.43506e-05
2.41752e-07
1.43514e-05
-1.73611e-07
1.44698e-05
9.85533e-08
1.45569e-05
3.53888e-08
1.45893e-05
-2.23092e-07
1.46749e-05
-7.3149e-08
1.4771e-05
-1.29254e-07
1.4867e-05
-5.39608e-07
1.49475e-05
-7.13784e-07
1.49718e-05
-8.24021e-07
-1.89609e-06
1.50579e-05
1.27526e-05
-1.40135e-08
1.31815e-05
5.17438e-08
1.35254e-05
-5.16676e-08
1.36433e-05
2.50953e-08
1.37212e-05
3.71768e-08
1.38943e-05
-8.20555e-08
1.3988e-05
7.47193e-08
1.41302e-05
-5.24428e-08
1.42473e-05
-9.50998e-08
1.4314e-05
1.75068e-07
1.43634e-05
-2.23075e-07
1.4481e-05
-1.90407e-08
1.45266e-05
-1.02065e-08
1.45896e-05
-2.86065e-07
1.4681e-05
-1.64545e-07
1.47604e-05
-2.0873e-07
1.48616e-05
-6.40713e-07
1.49272e-05
-7.79465e-07
1.49577e-05
-8.54472e-07
-2.07566e-06
1.51373e-05
1.27402e-05
-2.5425e-07
1.32042e-05
-4.12257e-07
1.35202e-05
-3.67645e-07
1.36352e-05
-8.98521e-08
1.37471e-05
-7.47403e-08
1.38736e-05
-2.08575e-07
1.3982e-05
-3.36455e-08
1.41558e-05
-2.26271e-07
1.42279e-05
-1.67257e-07
1.43069e-05
9.61581e-08
1.43876e-05
-3.03807e-07
1.44684e-05
-9.98498e-08
1.45157e-05
-5.75504e-08
1.46047e-05
-3.75011e-07
1.46751e-05
-2.34989e-07
1.47594e-05
-2.92951e-07
1.48545e-05
-7.35817e-07
1.49129e-05
-8.37904e-07
1.49922e-05
-9.33775e-07
-2.16984e-06
1.50864e-05
1.27617e-05
-5.1593e-07
1.32226e-05
-8.73186e-07
1.3505e-05
-6.50078e-07
1.36519e-05
-2.3673e-07
1.37494e-05
-1.72216e-07
1.38625e-05
-3.21706e-07
1.4009e-05
-1.80119e-07
1.41607e-05
-3.77996e-07
1.4214e-05
-2.20551e-07
1.43293e-05
-1.91419e-08
1.43944e-05
-3.68866e-07
1.44598e-05
-1.65264e-07
1.45275e-05
-1.25291e-07
1.4613e-05
-4.60504e-07
1.46776e-05
-2.99551e-07
1.47589e-05
-3.74285e-07
1.48506e-05
-8.27539e-07
1.4928e-05
-9.1531e-07
1.50241e-05
-1.02979e-06
-1.97326e-06
1.48275e-05
1.27855e-05
-8.01436e-07
1.32155e-05
-1.30322e-06
1.3513e-05
-9.4758e-07
1.36668e-05
-3.90503e-07
1.37421e-05
-2.47544e-07
1.38853e-05
-4.64856e-07
1.40358e-05
-3.30615e-07
1.4153e-05
-4.9517e-07
1.42306e-05
-2.98177e-07
1.43512e-05
-1.39798e-07
1.43965e-05
-4.14071e-07
1.44709e-05
-2.39743e-07
1.45467e-05
-2.01044e-07
1.46242e-05
-5.38038e-07
1.46868e-05
-3.62132e-07
1.47631e-05
-4.5057e-07
1.48605e-05
-9.24943e-07
1.49644e-05
-1.01919e-06
1.50494e-05
-1.11479e-06
-1.86153e-06
1.49376e-05
1.27931e-05
-1.09451e-06
1.32253e-05
-1.73548e-06
1.35466e-05
-1.26885e-06
1.36676e-05
-5.11493e-07
1.37562e-05
-3.36161e-07
1.39223e-05
-6.30903e-07
1.40458e-05
-4.54121e-07
1.41638e-05
-6.13199e-07
1.42608e-05
-3.9521e-07
1.4366e-05
-2.44997e-07
1.44096e-05
-4.57655e-07
1.44954e-05
-3.25557e-07
1.45699e-05
-2.75485e-07
1.46398e-05
-6.07937e-07
1.46966e-05
-4.19017e-07
1.4786e-05
-5.39923e-07
1.4881e-05
-1.01993e-06
1.49877e-05
-1.12593e-06
1.50421e-05
-1.16918e-06
-1.74008e-06
1.49207e-05
1.281e-05
-1.40453e-06
1.32708e-05
-2.1963e-06
1.35726e-05
-1.57062e-06
1.36684e-05
-6.07278e-07
1.37906e-05
-4.58364e-07
1.39478e-05
-7.88115e-07
1.40595e-05
-5.65856e-07
1.41962e-05
-7.49854e-07
1.42878e-05
-4.86819e-07
1.43829e-05
-3.40056e-07
1.44356e-05
-5.10399e-07
1.45275e-05
-4.17485e-07
1.4593e-05
-3.40944e-07
1.46597e-05
-6.74649e-07
1.4719e-05
-4.78325e-07
1.48188e-05
-6.39683e-07
1.49019e-05
-1.10304e-06
1.49896e-05
-1.21368e-06
1.50458e-05
-1.2253e-06
-1.7516e-06
1.50573e-05
1.28492e-05
-1.75369e-06
1.33166e-05
-2.66372e-06
1.35816e-05
-1.83568e-06
1.36854e-05
-7.11008e-07
1.38285e-05
-6.01506e-07
1.39703e-05
-9.2992e-07
1.40965e-05
-6.92009e-07
1.42332e-05
-8.86568e-07
1.43114e-05
-5.65002e-07
1.44094e-05
-4.38111e-07
1.44751e-05
-5.76103e-07
1.4559e-05
-5.01315e-07
1.46181e-05
-4.00065e-07
1.46958e-05
-7.52389e-07
1.47496e-05
-5.32083e-07
1.48527e-05
-7.42847e-07
1.49224e-05
-1.17269e-06
1.49904e-05
-1.28164e-06
1.51107e-05
-1.34565e-06
-1.91022e-06
1.52693e-05
1.2892e-05
-2.14572e-06
1.33488e-05
-3.12045e-06
1.35979e-05
-2.08478e-06
1.37184e-05
-8.31519e-07
1.38675e-05
-7.50623e-07
1.40102e-05
-1.07264e-06
1.41485e-05
-8.30313e-07
1.42645e-05
-1.00259e-06
1.43402e-05
-6.40663e-07
1.44522e-05
-5.5013e-07
1.45192e-05
-6.43056e-07
1.45902e-05
-5.72334e-07
1.46586e-05
-4.68465e-07
1.47407e-05
-8.34474e-07
1.47817e-05
-5.73121e-07
1.48955e-05
-8.56681e-07
1.49415e-05
-1.21863e-06
1.50152e-05
-1.35532e-06
1.52147e-05
-1.5452e-06
-2.05306e-06
1.53576e-05
1.29324e-05
-2.57815e-06
1.33918e-05
-3.57987e-06
1.36003e-05
-2.29319e-06
1.37544e-05
-9.85625e-07
1.39153e-05
-9.11542e-07
1.40664e-05
-1.22373e-06
1.41997e-05
-9.63685e-07
1.42948e-05
-1.0976e-06
1.43868e-05
-7.32662e-07
1.45023e-05
-6.6571e-07
1.45644e-05
-7.05112e-07
1.46367e-05
-6.44692e-07
1.47105e-05
-5.42179e-07
1.47836e-05
-9.07606e-07
1.48274e-05
-6.16901e-07
1.49407e-05
-9.7003e-07
1.49641e-05
-1.24205e-06
1.50779e-05
-1.46908e-06
1.52835e-05
-1.75082e-06
-2.09988e-06
1.53303e-05
1.29845e-05
-3.06268e-06
1.3452e-05
-4.04732e-06
1.36104e-05
-2.45164e-06
1.379e-05
-1.16515e-06
1.39754e-05
-1.09696e-06
1.41236e-05
-1.37195e-06
1.42496e-05
-1.08971e-06
1.43384e-05
-1.18641e-06
1.44479e-05
-8.42109e-07
1.45491e-05
-7.66917e-07
1.46222e-05
-7.78266e-07
1.46929e-05
-7.15342e-07
1.47653e-05
-6.14624e-07
1.48307e-05
-9.72928e-07
1.48833e-05
-6.69507e-07
1.49784e-05
-1.06517e-06
1.50097e-05
-1.2734e-06
1.51482e-05
-1.60759e-06
1.52793e-05
-1.88187e-06
-2.18466e-06
1.53641e-05
1.3049e-05
-3.61164e-06
1.35106e-05
-4.50899e-06
1.36396e-05
-2.58059e-06
1.38377e-05
-1.36327e-06
1.40443e-05
-1.30353e-06
1.41818e-05
-1.50952e-06
1.43111e-05
-1.21895e-06
1.43987e-05
-1.27399e-06
1.45131e-05
-9.56581e-07
1.46013e-05
-8.55117e-07
1.46888e-05
-8.65683e-07
1.47464e-05
-7.73029e-07
1.48282e-05
-6.96405e-07
1.48821e-05
-1.0268e-06
1.49414e-05
-7.28861e-07
1.50209e-05
-1.14466e-06
1.5068e-05
-1.32046e-06
1.51785e-05
-1.71812e-06
1.52508e-05
-1.95414e-06
-2.415e-06
1.54812e-05
1.31115e-05
-4.22316e-06
1.35675e-05
-4.96492e-06
1.36841e-05
-2.69722e-06
1.39009e-05
-1.58005e-06
1.41208e-05
-1.52345e-06
1.42552e-05
-1.64397e-06
1.43872e-05
-1.35096e-06
1.44693e-05
-1.35605e-06
1.45834e-05
-1.07073e-06
1.46649e-05
-9.36524e-07
1.47509e-05
-9.5177e-07
1.48032e-05
-8.25302e-07
1.48933e-05
-7.86523e-07
1.49301e-05
-1.06358e-06
1.49954e-05
-7.94131e-07
1.50506e-05
-1.19993e-06
1.50783e-05
-1.34808e-06
1.51243e-05
-1.76413e-06
1.51621e-05
-1.99201e-06
-2.62162e-06
1.53687e-05
1.31756e-05
-4.89875e-06
1.36319e-05
-5.42118e-06
1.37454e-05
-2.8108e-06
1.39809e-05
-1.81547e-06
1.42152e-05
-1.75783e-06
1.43491e-05
-1.7778e-06
1.44743e-05
-1.47617e-06
1.45499e-05
-1.43164e-06
1.46523e-05
-1.17319e-06
1.4723e-05
-1.00723e-06
1.47875e-05
-1.01627e-06
1.48319e-05
-8.6963e-07
1.48959e-05
-8.50584e-07
1.48952e-05
-1.06287e-06
1.49313e-05
-8.30198e-07
1.49203e-05
-1.18891e-06
1.48823e-05
-1.31011e-06
1.4827e-05
-1.70884e-06
1.47644e-05
-1.92937e-06
-2.62696e-06
1.47697e-05
1.32536e-05
-5.65234e-06
1.36913e-05
-5.85891e-06
1.38269e-05
-2.94643e-06
1.40929e-05
-2.08143e-06
1.43306e-05
-1.99551e-06
1.44436e-05
-1.89084e-06
1.45414e-05
-1.57392e-06
1.45838e-05
-1.47412e-06
1.46338e-05
-1.22312e-06
1.46536e-05
-1.02702e-06
1.46473e-05
-1.01001e-06
1.46343e-05
-8.5665e-07
1.4615e-05
-8.31264e-07
1.45373e-05
-9.85114e-07
1.44977e-05
-7.9063e-07
1.43946e-05
-1.0858e-06
1.42731e-05
-1.1886e-06
1.41083e-05
-1.54409e-06
1.39279e-05
-1.74891e-06
-2.38253e-06
1.36834e-05
1.33511e-05
-6.50341e-06
1.36965e-05
-6.20431e-06
1.39413e-05
-3.19128e-06
1.42189e-05
-2.35898e-06
1.43883e-05
-2.16493e-06
1.44106e-05
-1.91319e-06
1.44017e-05
-1.56499e-06
1.43283e-05
-1.40076e-06
1.42515e-05
-1.14629e-06
1.41599e-05
-9.3541e-07
1.40434e-05
-8.93551e-07
1.39403e-05
-7.53527e-07
1.38295e-05
-7.20414e-07
1.3681e-05
-8.3665e-07
1.3573e-05
-6.82679e-07
1.3405e-05
-9.1777e-07
1.32242e-05
-1.00782e-06
1.29898e-05
-1.30963e-06
1.27335e-05
-1.49262e-06
-2.06495e-06
1.24159e-05
1.34759e-05
-7.47928e-06
1.3762e-05
-6.49048e-06
1.39989e-05
-3.42814e-06
1.41439e-05
-2.50397e-06
1.40832e-05
-2.10427e-06
1.38965e-05
-1.72644e-06
1.36943e-05
-1.36279e-06
1.34627e-05
-1.16915e-06
1.32545e-05
-9.3815e-07
1.3067e-05
-7.47861e-07
1.28763e-05
-7.02811e-07
1.27167e-05
-5.94006e-07
1.25576e-05
-5.61243e-07
1.23755e-05
-6.54593e-07
1.22324e-05
-5.39613e-07
1.20336e-05
-7.18933e-07
1.18249e-05
-7.99103e-07
1.15547e-05
-1.03945e-06
1.12504e-05
-1.18835e-06
-1.42519e-06
1.06107e-05
1.35872e-05
-8.56649e-06
1.36679e-05
-6.57119e-06
1.36215e-05
-3.38167e-06
1.34014e-05
-2.28392e-06
1.30185e-05
-1.72137e-06
1.26198e-05
-1.32774e-06
1.22725e-05
-1.01551e-06
1.19514e-05
-8.47985e-07
1.16847e-05
-6.71525e-07
1.14626e-05
-5.25679e-07
1.12514e-05
-4.91615e-07
1.10768e-05
-4.19442e-07
1.09063e-05
-3.90791e-07
1.07201e-05
-4.68376e-07
1.05667e-05
-3.86226e-07
1.03622e-05
-5.14351e-07
1.01471e-05
-5.84039e-07
9.867e-06
-7.59355e-07
9.557e-06
-8.78359e-07
-9.51745e-07
9.08356e-06
1.34105e-05
-9.47698e-06
1.28949e-05
-6.05561e-06
1.23231e-05
-2.8099e-06
1.17163e-05
-1.67713e-06
1.11334e-05
-1.13843e-06
1.06531e-05
-8.47462e-07
1.02721e-05
-6.34497e-07
9.94672e-06
-5.22593e-07
9.68578e-06
-4.1058e-07
9.47522e-06
-3.15116e-07
9.28007e-06
-2.96464e-07
9.11821e-06
-2.57587e-07
8.9617e-06
-2.34283e-07
8.79063e-06
-2.97306e-07
8.64529e-06
-2.4089e-07
8.45519e-06
-3.24243e-07
8.24995e-06
-3.78808e-07
7.98517e-06
-4.94568e-07
7.68397e-06
-5.77166e-07
-5.83992e-07
7.31622e-06
1.24247e-05
-9.40167e-06
1.10083e-05
-4.63926e-06
9.97765e-06
-1.77922e-06
9.20168e-06
-9.0115e-07
8.61892e-06
-5.55672e-07
8.18482e-06
-4.13361e-07
7.85516e-06
-3.04836e-07
7.58335e-06
-2.5079e-07
7.36876e-06
-1.95985e-07
7.19964e-06
-1.46002e-07
7.04383e-06
-1.40653e-07
6.91227e-06
-1.26022e-07
6.78698e-06
-1.08996e-07
6.64396e-06
-1.54288e-07
6.52193e-06
-1.1886e-07
6.3621e-06
-1.64415e-07
6.18271e-06
-1.99418e-07
5.95212e-06
-2.63973e-07
5.68079e-06
-3.05841e-07
-2.88078e-07
5.38488e-06
1.01106e-05
-7.01225e-06
7.83292e-06
-2.36159e-06
6.70806e-06
-6.5436e-07
6.06199e-06
-2.55078e-07
5.6465e-06
-1.40182e-07
5.34448e-06
-1.11344e-07
5.12035e-06
-8.07027e-08
4.93642e-06
-6.68571e-08
4.79318e-06
-5.27473e-08
4.68359e-06
-3.64184e-08
4.58067e-06
-3.77295e-08
4.49079e-06
-3.61397e-08
4.40892e-06
-2.71276e-08
4.30388e-06
-4.92533e-08
4.21902e-06
-3.39957e-08
4.10347e-06
-4.88677e-08
3.96805e-06
-6.39964e-08
3.7911e-06
-8.70271e-08
3.58296e-06
-9.76953e-08
-8.69583e-08
3.38184e-06
5.48775e-06
3.12616e-06
2.4718e-06
2.21672e-06
2.07654e-06
1.96519e-06
1.88449e-06
1.81763e-06
1.76489e-06
1.72847e-06
1.69074e-06
1.6546e-06
1.62747e-06
1.57822e-06
1.54422e-06
1.49535e-06
1.43136e-06
1.34433e-06
1.24663e-06
1.15968e-06
2.88095e-06
-2.04952e-06
2.08285e-06
2.0594e-06
-1.51878e-06
2.34033e-06
1.75268e-06
-6.96606e-07
1.00332e-06
2.89007e-06
9.42105e-07
-2.07949e-06
4.86209e-06
2.03729e-06
-4.00931e-06
7.09314e-06
4.50004e-06
-6.73109e-06
9.10097e-06
6.24435e-06
-8.25218e-06
1.06029e-05
6.54834e-06
-8.05023e-06
1.18296e-05
6.75339e-06
-7.98012e-06
1.24839e-05
5.78398e-06
-6.43833e-06
1.28526e-05
3.55441e-06
-3.92307e-06
1.36175e-05
2.27995e-06
-3.04486e-06
1.39326e-05
5.41264e-07
-8.56386e-07
1.39363e-05
-2.69384e-06
2.69019e-06
1.39564e-05
-4.42368e-06
4.40354e-06
1.34655e-05
-6.28869e-06
6.77964e-06
1.28219e-05
-8.63877e-06
9.28239e-06
1.24222e-05
-9.80428e-06
1.0204e-05
1.26028e-05
-1.18349e-05
1.16543e-05
1.34983e-05
-1.25472e-05
1.16517e-05
1.42583e-05
-1.45385e-05
1.37785e-05
1.46089e-05
-1.7205e-05
1.68544e-05
1.4132e-05
-1.77781e-05
1.82551e-05
1.33299e-05
-1.83554e-05
1.91575e-05
1.21969e-05
-1.73384e-05
1.84714e-05
1.1237e-05
-1.6948e-05
1.79079e-05
1.04624e-05
-1.59372e-05
1.67118e-05
9.62983e-06
-1.44147e-05
1.52473e-05
8.77231e-06
-1.41141e-05
1.49716e-05
8.06609e-06
-1.21283e-05
1.28345e-05
7.13515e-06
-1.04269e-05
1.13579e-05
6.36998e-06
-1.04949e-05
1.12601e-05
5.39857e-06
-7.89042e-06
8.86183e-06
4.17033e-06
-6.93557e-06
8.16381e-06
2.91927e-06
-5.48917e-06
6.74023e-06
9.9047e-07
-3.51328e-07
2.28012e-06
-6.8844e-07
5.07488e-06
-3.39597e-06
-1.33616e-06
1.02425e-05
-9.59476e-06
-1.01587e-06
1.44921e-05
-1.48124e-05
3.82592e-07
1.64207e-05
-1.78191e-05
2.13847e-06
1.63533e-05
-1.81092e-05
4.06633e-06
1.44774e-05
-1.64052e-05
5.48653e-06
1.36408e-05
-1.5061e-05
6.5531e-06
1.43855e-05
-1.5452e-05
7.72314e-06
1.08289e-05
-1.19989e-05
8.45082e-06
7.40304e-06
-8.13073e-06
8.99862e-06
7.8592e-06
-8.407e-06
9.65771e-06
6.42263e-06
-7.08172e-06
1.02312e-05
3.49974e-06
-4.07321e-06
1.05003e-05
2.29171e-06
-2.56089e-06
1.06376e-05
7.04988e-07
-8.42268e-07
1.09235e-05
-2.17274e-06
1.8869e-06
1.14603e-05
-4.66478e-06
4.12793e-06
1.21291e-05
-6.12406e-06
5.45524e-06
1.27392e-05
-7.66064e-06
7.05056e-06
1.33085e-05
-1.01266e-05
9.55733e-06
1.39988e-05
-1.27047e-05
1.20145e-05
1.47415e-05
-1.4965e-05
1.42224e-05
1.50704e-05
-1.69673e-05
1.66383e-05
1.48228e-05
-1.79966e-05
1.82442e-05
1.43864e-05
-1.85033e-05
1.89398e-05
1.38692e-05
-1.92178e-05
1.9735e-05
1.30096e-05
-1.88349e-05
1.96945e-05
1.20752e-05
-1.7209e-05
1.81435e-05
1.1647e-05
-1.69219e-05
1.73501e-05
1.15341e-05
-1.86369e-05
1.87498e-05
1.11218e-05
-1.98554e-05
2.02676e-05
1.02777e-05
-1.91256e-05
1.99698e-05
9.32579e-06
-1.74538e-05
1.84056e-05
8.63873e-06
-1.64398e-05
1.71268e-05
8.32861e-06
-1.6684e-05
1.69941e-05
8.31956e-06
-1.79132e-05
1.79223e-05
8.50123e-06
-1.97565e-05
1.95748e-05
8.78842e-06
-2.18414e-05
2.15543e-05
9.10847e-06
-2.33417e-05
2.30216e-05
9.43108e-06
-2.3793e-05
2.34704e-05
9.71693e-06
-2.34333e-05
2.31474e-05
9.91489e-06
-2.19091e-05
2.17111e-05
9.98954e-06
-1.91993e-05
1.91247e-05
1.00428e-05
-1.5647e-05
1.55937e-05
1.00645e-05
-1.17425e-05
1.17208e-05
9.99964e-06
-7.70542e-06
7.77023e-06
9.90968e-06
-3.34711e-06
3.43708e-06
9.83572e-06
1.12324e-06
-1.04929e-06
9.70614e-06
5.10231e-06
-4.97273e-06
9.49366e-06
8.81078e-06
-8.59829e-06
9.26695e-06
1.23533e-05
-1.21266e-05
9.00565e-06
1.49783e-05
-1.4717e-05
8.64912e-06
1.62468e-05
-1.58903e-05
8.29131e-06
1.64726e-05
-1.61147e-05
7.98473e-06
1.637e-05
-1.60634e-05
7.78539e-06
1.61715e-05
-1.59721e-05
7.70378e-06
1.63156e-05
-1.6234e-05
7.7427e-06
1.66541e-05
-1.6693e-05
7.78187e-06
1.70227e-05
-1.70619e-05
7.74483e-06
1.67769e-05
-1.67398e-05
7.71389e-06
1.58653e-05
-1.58344e-05
7.65709e-06
1.44624e-05
-1.44056e-05
7.56709e-06
1.29635e-05
-1.28735e-05
7.45058e-06
1.14836e-05
-1.13671e-05
7.35491e-06
1.01281e-05
-1.00324e-05
7.28063e-06
8.89513e-06
-8.82085e-06
7.21012e-06
7.845e-06
-7.77449e-06
7.12814e-06
6.9355e-06
-6.85352e-06
7.04172e-06
6.15327e-06
-6.06684e-06
6.95564e-06
5.4663e-06
-5.38022e-06
6.88633e-06
4.85313e-06
-4.78382e-06
6.82364e-06
4.32192e-06
-4.25923e-06
6.77461e-06
3.93133e-06
-3.88231e-06
6.72174e-06
3.60465e-06
-3.55178e-06
6.68586e-06
3.39623e-06
-3.36036e-06
6.6391e-06
3.21301e-06
-3.16625e-06
6.62061e-06
3.03461e-06
-3.01612e-06
6.6015e-06
2.84038e-06
-2.82127e-06
6.6057e-06
2.6405e-06
-2.64471e-06
6.62371e-06
2.38192e-06
-2.39992e-06
6.65404e-06
2.17274e-06
-2.20306e-06
6.68847e-06
1.94198e-06
-1.97641e-06
6.72626e-06
1.74085e-06
-1.77864e-06
6.7575e-06
1.57459e-06
-1.60582e-06
6.77447e-06
1.42908e-06
-1.44606e-06
6.7925e-06
1.28121e-06
-1.29925e-06
6.78585e-06
1.1852e-06
-1.17854e-06
6.78283e-06
1.06423e-06
-1.06122e-06
6.76392e-06
9.6393e-07
-9.45014e-07
6.75081e-06
8.7417e-07
-8.61066e-07
6.72325e-06
7.85867e-07
-7.58301e-07
6.71353e-06
6.96257e-07
-6.86536e-07
6.68894e-06
6.28833e-07
-6.04243e-07
6.68117e-06
5.63731e-07
-5.55965e-07
6.66522e-06
4.96664e-07
-4.80711e-07
6.66506e-06
4.56221e-07
-4.56064e-07
6.65083e-06
4.12515e-07
-3.98285e-07
6.65249e-06
3.89606e-07
-3.91262e-07
6.64867e-06
3.50559e-07
-3.46746e-07
6.64475e-06
3.33545e-07
-3.29621e-07
6.63916e-06
3.6604e-07
-3.60449e-07
6.65411e-06
2.49741e-07
-2.64698e-07
6.62197e-06
3.72829e-07
-3.40689e-07
6.66067e-06
3.03214e-07
-3.41908e-07
6.62268e-06
2.44523e-07
-2.06533e-07
6.64823e-06
4.2347e-07
-4.49025e-07
6.63994e-06
2.24577e-07
-2.16283e-07
6.64251e-06
3.4464e-07
-3.47212e-07
6.62935e-06
4.01816e-07
-3.88658e-07
6.66621e-06
2.40442e-07
-2.77303e-07
6.61596e-06
4.39175e-07
-3.88922e-07
6.66372e-06
3.76446e-07
-4.24205e-07
6.63575e-06
3.55437e-07
-3.27469e-07
6.66467e-06
4.48925e-07
-4.77846e-07
6.62793e-06
4.77283e-07
-4.40543e-07
6.6871e-06
4.20816e-07
-4.79984e-07
6.63402e-06
5.35148e-07
-4.82062e-07
6.68432e-06
5.49662e-07
-5.99964e-07
6.64675e-06
5.84238e-07
-5.46667e-07
6.70466e-06
5.81659e-07
-6.39572e-07
6.65004e-06
7.16375e-07
-6.6175e-07
6.70868e-06
6.86789e-07
-7.45436e-07
6.67256e-06
7.96031e-07
-7.59907e-07
6.72761e-06
7.80543e-07
-8.35598e-07
6.6821e-06
9.34266e-07
-8.88755e-07
6.73546e-06
9.27057e-07
-9.80411e-07
6.71542e-06
1.05451e-06
-1.03448e-06
6.7563e-06
1.06e-06
-1.10088e-06
6.74364e-06
1.20217e-06
-1.1895e-06
6.76076e-06
1.27885e-06
-1.29597e-06
6.79661e-06
1.37719e-06
-1.41305e-06
6.78746e-06
1.43413e-06
-1.42498e-06
6.84777e-06
1.56081e-06
-1.62112e-06
6.79604e-06
1.74326e-06
-1.69154e-06
6.91071e-06
1.78639e-06
-1.90106e-06
6.85302e-06
1.96809e-06
-1.91039e-06
6.9656e-06
2.03175e-06
-2.14433e-06
6.8722e-06
2.31718e-06
-2.22378e-06
7.01884e-06
2.38227e-06
-2.52892e-06
6.97318e-06
2.63979e-06
-2.59412e-06
7.06126e-06
2.7377e-06
-2.82578e-06
7.06571e-06
3.00782e-06
-3.01227e-06
7.08171e-06
3.22158e-06
-3.23759e-06
7.18101e-06
3.46933e-06
-3.56862e-06
7.10919e-06
3.80129e-06
-3.72948e-06
7.28578e-06
3.96334e-06
-4.13993e-06
7.18952e-06
4.39912e-06
-4.30286e-06
7.37039e-06
4.57363e-06
-4.7545e-06
7.33152e-06
5.09508e-06
-5.05622e-06
7.35303e-06
5.40772e-06
-5.42923e-06
7.44543e-06
5.85006e-06
-5.94246e-06
7.31912e-06
6.39862e-06
-6.27231e-06
7.50088e-06
6.76874e-06
-6.9505e-06
7.44769e-06
7.43101e-06
-7.37782e-06
7.42846e-06
8.02077e-06
-8.00155e-06
7.43946e-06
8.68662e-06
-8.69762e-06
7.18675e-06
9.63351e-06
-9.3808e-06
7.29937e-06
1.02609e-05
-1.03735e-05
7.21063e-06
1.1746e-05
-1.16573e-05
6.97534e-06
1.29658e-05
-1.27305e-05
7.19398e-06
1.45778e-05
-1.47964e-05
6.24228e-06
1.83623e-05
-1.74106e-05
6.12694e-06
2.01987e-05
-2.00834e-05
3.13178e-05
-3.08913e-05
5.7004e-06
4.62244e-06
-2.05411e-06
4.34656e-06
-1.2429e-06
3.78252e-06
-1.32559e-07
3.9254e-06
7.99221e-07
4.82491e-06
1.13778e-06
6.62313e-06
2.70183e-06
8.57626e-06
4.29122e-06
1.03199e-05
4.80471e-06
1.19052e-05
5.1681e-06
1.27458e-05
4.94333e-06
1.32777e-05
3.02256e-06
1.39827e-05
1.57496e-06
1.43146e-05
2.0936e-07
1.43306e-05
-2.70986e-06
1.40198e-05
-4.11288e-06
1.34461e-05
-5.71495e-06
1.32368e-05
-8.42946e-06
1.33823e-05
-9.94987e-06
1.37882e-05
-1.22408e-05
1.46315e-05
-1.33905e-05
1.50917e-05
-1.49987e-05
1.49786e-05
-1.70919e-05
1.41902e-05
-1.69898e-05
1.33084e-05
-1.74736e-05
1.22589e-05
-1.62889e-05
1.13425e-05
-1.60316e-05
1.05782e-05
-1.51729e-05
9.75372e-06
-1.35902e-05
8.91815e-06
-1.32785e-05
8.2536e-06
-1.14637e-05
7.36365e-06
-9.53699e-06
6.57364e-06
-9.7049e-06
5.7333e-06
-7.05008e-06
4.54245e-06
-5.74471e-06
3.51257e-06
-4.45929e-06
1.89573e-06
1.26551e-06
3.77948e-07
6.59266e-06
-1.85617e-07
1.08061e-05
3.35363e-07
1.39711e-05
1.771e-06
1.4985e-05
3.28144e-06
1.48428e-05
4.90829e-06
1.28505e-05
6.14854e-06
1.24005e-05
7.08643e-06
1.34476e-05
8.00185e-06
9.91347e-06
8.52044e-06
6.88446e-06
8.9407e-06
7.43894e-06
9.67599e-06
5.68734e-06
1.03161e-05
2.85964e-06
1.06387e-05
1.96915e-06
1.09809e-05
3.62721e-07
1.143e-05
-2.62176e-06
1.19223e-05
-5.15713e-06
1.24654e-05
-6.66717e-06
1.30836e-05
-8.27888e-06
1.37999e-05
-1.08429e-05
1.45219e-05
-1.34268e-05
1.50054e-05
-1.54485e-05
1.49492e-05
-1.69111e-05
1.4474e-05
-1.75214e-05
1.399e-05
-1.80193e-05
1.34203e-05
-1.8648e-05
1.25242e-05
-1.79389e-05
1.1707e-05
-1.63918e-05
1.1427e-05
-1.6642e-05
1.13053e-05
-1.85152e-05
1.0788e-05
-1.93381e-05
9.86044e-06
-1.8198e-05
8.91565e-06
-1.6509e-05
8.28296e-06
-1.58071e-05
8.00312e-06
-1.64042e-05
7.99503e-06
-1.79052e-05
8.15083e-06
-1.99123e-05
8.37969e-06
-2.20703e-05
8.6275e-06
-2.35895e-05
8.89082e-06
-2.40563e-05
9.10135e-06
-2.36438e-05
9.22354e-06
-2.20312e-05
9.24622e-06
-1.9222e-05
9.26997e-06
-1.56708e-05
9.27392e-06
-1.17464e-05
9.18417e-06
-7.61567e-06
9.07445e-06
-3.23739e-06
8.99403e-06
1.20366e-06
8.87621e-06
5.22013e-06
8.70334e-06
8.98365e-06
8.50195e-06
1.25547e-05
8.30363e-06
1.51766e-05
8.00731e-06
1.65432e-05
7.6799e-06
1.68e-05
7.42488e-06
1.6625e-05
7.27454e-06
1.63218e-05
7.19677e-06
1.63934e-05
7.18409e-06
1.66667e-05
7.27222e-06
1.69345e-05
7.36133e-06
1.66878e-05
7.36039e-06
1.58662e-05
7.30266e-06
1.45201e-05
7.2709e-06
1.29953e-05
7.20816e-06
1.15463e-05
7.15448e-06
1.01818e-05
7.0992e-06
8.95041e-06
7.0424e-06
7.9018e-06
6.97269e-06
7.0052e-06
6.90089e-06
6.22507e-06