/*--------------------------------*- C++ -*----------------------------------*\
| =========                 |                                                 |
| \\      /  F ield         | OpenFOAM: The Open Source CFD Toolbox           |
|  \\    /   O peration     | Version:  2.4.0                                 |
|   \\  /    A nd           | Web:      www.OpenFOAM.org                      |
|    \\/     M anipulation  |                                                 |
\*---------------------------------------------------------------------------*/
FoamFile
{
    version     2.0;
    format      ascii;
    class       surfaceScalarField;
    location    "0.196";
    object      phi_0;
}
// * * * * * * * * * * * * * * * * * * * * * * * * * * * * * * * * * * * * * //

dimensions      [0 3 -1 0 0 0 0];

internalField   nonuniform List<scalar> 
34880
(
5.48871e-06
7.01129e-06
3.1265e-06
2.36221e-06
2.47014e-06
6.56358e-07
2.22109e-06
2.49046e-07
2.07387e-06
1.47229e-07
1.97143e-06
1.02434e-07
1.88638e-06
8.50485e-08
1.82793e-06
5.84574e-08
1.77608e-06
5.18463e-08
1.7448e-06
3.12741e-08
1.72439e-06
2.04197e-08
1.70378e-06
2.06011e-08
1.67786e-06
2.59217e-08
1.70991e-06
-3.20513e-08
1.69381e-06
1.61019e-08
1.72114e-06
-2.73277e-08
1.82464e-06
-1.03505e-07
1.87829e-06
-5.36434e-08
2.10202e-06
-2.23735e-07
4.12362e-08
2.06079e-06
1.01124e-05
9.39886e-06
7.83269e-06
4.64195e-06
6.70773e-06
1.78132e-06
6.06634e-06
8.90435e-07
5.64444e-06
5.69132e-07
5.35386e-06
3.93007e-07
5.1268e-06
3.12115e-07
4.9524e-06
2.32858e-07
4.814e-06
1.90244e-07
4.71897e-06
1.26305e-07
4.64077e-06
9.86121e-08
4.58065e-06
8.0724e-08
4.52505e-06
8.15244e-08
4.54673e-06
-5.37326e-08
4.50049e-06
6.23443e-08
4.59323e-06
-1.20065e-07
4.71294e-06
-2.23217e-07
4.85054e-06
-1.91241e-07
5.40081e-06
-7.74011e-07
7.60788e-07
4.68126e-06
1.24271e-05
9.47176e-06
1.10068e-05
6.06222e-06
9.97962e-06
2.80854e-06
9.20461e-06
1.66545e-06
8.61832e-06
1.15542e-06
8.19401e-06
8.1732e-07
7.86543e-06
6.40698e-07
7.59998e-06
4.98307e-07
7.39343e-06
3.9679e-07
7.24444e-06
2.75293e-07
7.11294e-06
2.30112e-07
7.01877e-06
1.74902e-07
6.93727e-06
1.63024e-07
6.9314e-06
-4.78631e-08
6.85883e-06
1.34917e-07
6.98755e-06
-2.48786e-07
7.07064e-06
-3.06314e-07
7.24043e-06
-3.61031e-07
7.9233e-06
-1.45687e-06
9.29306e-07
7.75478e-06
1.34141e-05
8.55766e-06
1.28907e-05
6.58557e-06
1.23276e-05
3.37173e-06
1.17176e-05
2.2754e-06
1.11343e-05
1.73869e-06
1.06613e-05
1.29031e-06
1.02832e-05
1.01885e-06
9.96408e-06
8.17416e-07
9.70871e-06
6.52165e-07
9.52511e-06
4.58892e-07
9.34934e-06
4.05882e-07
9.22491e-06
2.99326e-07
9.12712e-06
2.60819e-07
9.08682e-06
-7.56568e-09
8.99274e-06
2.28998e-07
9.13057e-06
-3.86615e-07
9.18437e-06
-3.60113e-07
9.32168e-06
-4.98345e-07
9.92488e-06
-2.06007e-06
2.03786e-07
1.06504e-05
1.3593e-05
7.46468e-06
1.36591e-05
6.51949e-06
1.36282e-05
3.40254e-06
1.34003e-05
2.50338e-06
1.30212e-05
2.11775e-06
1.26267e-05
1.68481e-06
1.22821e-05
1.36341e-06
1.19711e-05
1.12845e-06
1.17e-05
9.23226e-07
1.15146e-05
6.44339e-07
1.1317e-05
6.03451e-07
1.11694e-05
4.46911e-07
1.10755e-05
3.54802e-07
1.10019e-05
6.5951e-08
1.08955e-05
3.35479e-07
1.10226e-05
-5.13783e-07
1.10779e-05
-4.15396e-07
1.11674e-05
-5.87784e-07
1.15387e-05
-2.43144e-06
-1.13082e-06
1.28733e-05
1.34851e-05
6.47954e-06
1.37454e-05
6.25921e-06
1.40068e-05
3.14116e-06
1.41383e-05
2.37189e-06
1.4088e-05
2.16803e-06
1.39031e-05
1.8697e-06
1.36987e-05
1.56784e-06
1.34895e-05
1.33759e-06
1.32573e-05
1.15547e-06
1.31166e-05
7.85041e-07
1.29376e-05
7.82451e-07
1.27842e-05
6.0031e-07
1.27167e-05
4.22277e-07
1.26304e-05
1.52297e-07
1.2522e-05
4.4387e-07
1.26221e-05
-6.13872e-07
1.27075e-05
-5.00817e-07
1.27889e-05
-6.69173e-07
1.29742e-05
-2.61671e-06
-2.18176e-06
1.40251e-05
1.33676e-05
5.61199e-06
1.36702e-05
5.95654e-06
1.39454e-05
2.86598e-06
1.42011e-05
2.11614e-06
1.43957e-05
1.9735e-06
1.44214e-05
1.84395e-06
1.43934e-05
1.59591e-06
1.43695e-05
1.36145e-06
1.42415e-05
1.28348e-06
1.42016e-05
8.24946e-07
1.40982e-05
8.85889e-07
1.39787e-05
7.19742e-07
1.39586e-05
4.42456e-07
1.38972e-05
2.13603e-07
1.38125e-05
5.28625e-07
1.38789e-05
-6.80242e-07
1.39874e-05
-6.09337e-07
1.41216e-05
-8.0341e-07
1.42845e-05
-2.77957e-06
-2.70255e-06
1.48053e-05
1.32862e-05
4.82579e-06
1.36564e-05
5.58635e-06
1.38283e-05
2.69403e-06
1.4047e-05
1.89745e-06
1.4321e-05
1.69953e-06
1.4462e-05
1.70292e-06
1.45125e-05
1.54539e-06
1.46423e-05
1.23172e-06
1.46196e-05
1.30617e-06
1.4688e-05
7.56567e-07
1.469e-05
8.83882e-07
1.465e-05
7.59695e-07
1.46976e-05
3.94887e-07
1.46961e-05
2.15069e-07
1.46789e-05
5.45865e-07
1.47437e-05
-7.4511e-07
1.48396e-05
-7.05233e-07
1.503e-05
-9.93767e-07
1.53085e-05
-3.05806e-06
-1.78047e-06
1.43864e-05
1.32263e-05
4.09952e-06
1.36054e-05
5.20721e-06
1.37657e-05
2.53371e-06
1.39219e-05
1.74127e-06
1.41621e-05
1.45931e-06
1.43602e-05
1.50482e-06
1.44133e-05
1.49235e-06
1.4602e-05
1.04303e-06
1.46463e-05
1.26187e-06
1.4765e-05
6.37882e-07
1.48111e-05
8.37758e-07
1.48395e-05
7.31259e-07
1.49371e-05
2.9731e-07
1.49825e-05
1.69648e-07
1.50485e-05
4.79908e-07
1.51702e-05
-8.66848e-07
1.52549e-05
-7.89927e-07
1.54236e-05
-1.16249e-06
1.58772e-05
-3.51165e-06
-2.78525e-06
1.6882e-05
1.31615e-05
3.43798e-06
1.35597e-05
4.80906e-06
1.37166e-05
2.3768e-06
1.38713e-05
1.58652e-06
1.40479e-05
1.28274e-06
1.42499e-05
1.30286e-06
1.43222e-05
1.42e-06
1.44577e-05
9.0751e-07
1.45744e-05
1.1452e-06
1.47276e-05
4.84639e-07
1.47449e-05
8.20483e-07
1.48296e-05
6.46562e-07
1.49157e-05
2.11248e-07
1.49411e-05
1.44268e-07
1.50665e-05
3.54425e-07
1.52152e-05
-1.01549e-06
1.53477e-05
-9.22473e-07
1.54862e-05
-1.30093e-06
1.57781e-05
-3.8036e-06
-4.02911e-06
1.7022e-05
1.30769e-05
2.86106e-06
1.35081e-05
4.37792e-06
1.36559e-05
2.229e-06
1.38624e-05
1.37995e-06
1.3968e-05
1.17719e-06
1.41779e-05
1.09296e-06
1.42871e-05
1.31079e-06
1.4315e-05
8.79578e-07
1.45144e-05
9.45781e-07
1.46468e-05
3.52262e-07
1.46519e-05
8.15436e-07
1.48279e-05
4.70475e-07
1.48288e-05
2.10389e-07
1.48373e-05
1.35822e-07
1.50144e-05
1.77261e-07
1.51092e-05
-1.11023e-06
1.52442e-05
-1.05752e-06
1.54792e-05
-1.53596e-06
1.56272e-05
-3.95157e-06
-4.88758e-06
1.64857e-05
1.29888e-05
2.3723e-06
1.34398e-05
3.92688e-06
1.36356e-05
2.03321e-06
1.38166e-05
1.19897e-06
1.39112e-05
1.08254e-06
1.41624e-05
8.41778e-07
1.42252e-05
1.24803e-06
1.42826e-05
8.22196e-07
1.44619e-05
7.66425e-07
1.452e-05
2.94124e-07
1.462e-05
7.15468e-07
1.47927e-05
2.97818e-07
1.47305e-05
2.72514e-07
1.48229e-05
4.35042e-08
1.49851e-05
1.50011e-08
1.50062e-05
-1.1313e-06
1.51251e-05
-1.17641e-06
1.54404e-05
-1.85124e-06
1.55767e-05
-4.08791e-06
-5.30197e-06
1.59911e-05
1.29195e-05
1.9528e-06
1.33868e-05
3.45961e-06
1.36381e-05
1.78185e-06
1.37371e-05
1.09998e-06
1.38945e-05
9.2516e-07
1.41364e-05
5.99907e-07
1.41597e-05
1.22466e-06
1.42939e-05
6.88062e-07
1.43659e-05
6.94353e-07
1.44562e-05
2.0389e-07
1.46242e-05
5.47471e-07
1.46874e-05
2.34638e-07
1.46942e-05
2.65646e-07
1.4823e-05
-8.52757e-08
1.49112e-05
-7.32302e-08
1.49619e-05
-1.18191e-06
1.50863e-05
-1.3009e-06
1.53519e-05
-2.11684e-06
1.55221e-05
-4.25804e-06
-5.59749e-06
1.58176e-05
1.28688e-05
1.584e-06
1.33589e-05
2.96952e-06
1.36173e-05
1.52346e-06
1.36922e-05
1.02509e-06
1.38875e-05
7.29771e-07
1.40563e-05
4.31141e-07
1.41351e-05
1.14584e-06
1.42598e-05
5.63385e-07
1.42902e-05
6.6396e-07
1.44502e-05
4.38728e-08
1.45883e-05
4.09416e-07
1.45902e-05
2.327e-07
1.46714e-05
1.84432e-07
1.47697e-05
-1.835e-07
1.48397e-05
-1.43257e-07
1.49474e-05
-1.28965e-06
1.5073e-05
-1.42644e-06
1.52396e-05
-2.2835e-06
1.54128e-05
-4.43123e-06
-6.05261e-06
1.58679e-05
1.28285e-05
1.25546e-06
1.33335e-05
2.46455e-06
1.35703e-05
1.28669e-06
1.36957e-05
8.99709e-07
1.38461e-05
5.79385e-07
1.39676e-05
3.09579e-07
1.41306e-05
9.82809e-07
1.4209e-05
4.85054e-07
1.42715e-05
6.01449e-07
1.44384e-05
-1.23003e-07
1.44998e-05
3.47968e-07
1.45412e-05
1.91294e-07
1.46429e-05
8.27243e-08
1.47058e-05
-2.464e-07
1.4806e-05
-2.43462e-07
1.49293e-05
-1.41296e-06
1.50199e-05
-1.51703e-06
1.51564e-05
-2.41997e-06
1.53237e-05
-4.59849e-06
-6.62213e-06
1.58932e-05
1.28127e-05
9.42735e-07
1.33012e-05
1.97605e-06
1.35535e-05
1.03444e-06
1.36906e-05
7.62544e-07
1.37769e-05
4.93114e-07
1.39435e-05
1.42968e-07
1.41074e-05
8.1898e-07
1.41657e-05
4.26745e-07
1.42823e-05
4.84848e-07
1.44003e-05
-2.4102e-07
1.44337e-05
3.14553e-07
1.45315e-05
9.34969e-08
1.46083e-05
5.86439e-09
1.4654e-05
-2.92092e-07
1.47995e-05
-3.88952e-07
1.48748e-05
-1.48818e-06
1.4977e-05
-1.61926e-06
1.51217e-05
-2.56465e-06
1.52369e-05
-4.71369e-06
-7.17355e-06
1.57883e-05
1.2807e-05
6.3575e-07
1.32575e-05
1.52552e-06
1.35314e-05
7.60536e-07
1.36626e-05
6.3134e-07
1.37535e-05
4.02266e-07
1.3947e-05
-5.05667e-08
1.40447e-05
7.21246e-07
1.4156e-05
3.1547e-07
1.42916e-05
3.49221e-07
1.43477e-05
-2.97122e-07
1.44435e-05
2.1883e-07
1.44962e-05
4.07425e-08
1.45609e-05
-5.87853e-08
1.46421e-05
-3.73283e-07
1.47814e-05
-5.28284e-07
1.48205e-05
-1.52728e-06
1.4966e-05
-1.7648e-06
1.50931e-05
-2.69172e-06
1.51004e-05
-4.72103e-06
-6.06097e-06
1.39879e-05
1.2779e-05
3.56733e-07
1.32143e-05
1.09027e-06
1.35045e-05
4.70282e-07
1.36591e-05
4.76752e-07
1.37719e-05
2.89501e-07
1.38943e-05
-1.72976e-07
1.39971e-05
6.18471e-07
1.41851e-05
1.27443e-07
1.42743e-05
2.59965e-07
1.43171e-05
-3.39859e-07
1.44335e-05
1.02421e-07
1.44409e-05
3.33089e-08
1.45427e-05
-1.60604e-07
1.46643e-05
-4.94807e-07
1.4721e-05
-5.8506e-07
1.4812e-05
-1.61825e-06
1.49287e-05
-1.88145e-06
1.50342e-05
-2.79728e-06
1.50874e-05
-4.77423e-06
-6.53962e-06
1.55661e-05
1.27512e-05
1.05543e-07
1.31982e-05
6.43296e-07
1.34947e-05
1.7378e-07
1.36744e-05
2.96984e-07
1.37585e-05
2.05423e-07
1.38364e-05
-2.50843e-07
1.40191e-05
4.35735e-07
1.41885e-05
-4.19152e-08
1.42468e-05
2.01637e-07
1.43034e-05
-3.96439e-07
1.43831e-05
2.27123e-08
1.44222e-05
-5.79239e-09
1.45736e-05
-3.12055e-07
1.46406e-05
-5.61759e-07
1.46761e-05
-6.20528e-07
1.4788e-05
-1.73022e-06
1.48824e-05
-1.97584e-06
1.49981e-05
-2.91297e-06
1.50744e-05
-4.8505e-06
-7.05858e-06
1.55933e-05
1.27517e-05
-1.46195e-07
1.32029e-05
1.92144e-07
1.34916e-05
-1.14956e-07
1.36781e-05
1.10483e-07
1.37242e-05
1.59359e-07
1.38518e-05
-3.7846e-07
1.40389e-05
2.48677e-07
1.41543e-05
-1.57331e-07
1.42405e-05
1.15452e-07
1.42933e-05
-4.49262e-07
1.4361e-05
-4.50452e-08
1.44573e-05
-1.02085e-07
1.45689e-05
-4.236e-07
1.45963e-05
-5.89143e-07
1.46653e-05
-6.89519e-07
1.47765e-05
-1.84143e-06
1.48652e-05
-2.06457e-06
1.498e-05
-3.02781e-06
1.50745e-05
-4.94499e-06
-7.45689e-06
1.54728e-05
1.2759e-05
-4.05204e-07
1.32021e-05
-2.5091e-07
1.34931e-05
-4.06007e-07
1.36664e-05
-6.28501e-08
1.37253e-05
1.00471e-07
1.38814e-05
-5.34483e-07
1.40096e-05
1.20442e-07
1.41402e-05
-2.87895e-07
1.4265e-05
-9.34868e-09
1.42769e-05
-4.61186e-07
1.43925e-05
-1.60696e-07
1.44732e-05
-1.82737e-07
1.45289e-05
-4.79357e-07
1.45869e-05
-6.47102e-07
1.46894e-05
-7.91995e-07
1.47694e-05
-1.92142e-06
1.4857e-05
-2.15217e-06
1.49638e-05
-3.13467e-06
1.50257e-05
-5.00681e-06
-7.72414e-06
1.52929e-05
1.27607e-05
-6.6587e-07
1.32053e-05
-6.95578e-07
1.34994e-05
-7.00101e-07
1.36597e-05
-2.23139e-07
1.37472e-05
1.29878e-08
1.38691e-05
-6.56412e-07
1.39972e-05
-7.66528e-09
1.41641e-05
-4.5476e-07
1.42745e-05
-1.19738e-07
1.42805e-05
-4.67162e-07
1.44161e-05
-2.96327e-07
1.4447e-05
-2.13636e-07
1.45218e-05
-5.54165e-07
1.46116e-05
-7.36944e-07
1.47054e-05
-8.85716e-07
1.47466e-05
-1.96261e-06
1.48475e-05
-2.25309e-06
1.49598e-05
-3.24698e-06
1.48947e-05
-4.94179e-06
-6.4685e-06
1.36391e-05
1.27731e-05
-9.38956e-07
1.32241e-05
-1.14662e-06
1.35035e-05
-9.795e-07
1.36715e-05
-3.91126e-07
1.37538e-05
-6.92995e-08
1.38664e-05
-7.69057e-07
1.40298e-05
-1.70991e-07
1.41855e-05
-6.10479e-07
1.42638e-05
-1.98083e-07
1.43077e-05
-5.11068e-07
1.44097e-05
-3.98267e-07
1.44422e-05
-2.46133e-07
1.45353e-05
-6.47331e-07
1.46546e-05
-8.56212e-07
1.4688e-05
-9.1906e-07
1.47418e-05
-2.01649e-06
1.48438e-05
-2.35507e-06
1.49573e-05
-3.36045e-06
1.49373e-05
-4.92183e-06
-6.83773e-06
1.53066e-05
1.27953e-05
-1.23422e-06
1.32425e-05
-1.59389e-06
1.35174e-05
-1.25438e-06
1.36837e-05
-5.57378e-07
1.37624e-05
-1.48032e-07
1.39006e-05
-9.07225e-07
1.40665e-05
-3.36926e-07
1.4179e-05
-7.23008e-07
1.42811e-05
-3.0016e-07
1.43287e-05
-5.58617e-07
1.44252e-05
-4.94807e-07
1.44577e-05
-2.78677e-07
1.45601e-05
-7.49677e-07
1.46693e-05
-9.65397e-07
1.46832e-05
-9.33013e-07
1.47605e-05
-2.09376e-06
1.48508e-05
-2.4454e-06
1.49474e-05
-3.45704e-06
1.49613e-05
-4.93576e-06
-7.20038e-06
1.5324e-05
1.28164e-05
-1.55063e-06
1.32647e-05
-2.04222e-06
1.35455e-05
-1.53517e-06
1.36923e-05
-7.04143e-07
1.37859e-05
-2.416e-07
1.39409e-05
-1.06229e-06
1.40847e-05
-4.80683e-07
1.41893e-05
-8.27632e-07
1.43119e-05
-4.22738e-07
1.4364e-05
-6.10753e-07
1.444e-05
-5.70752e-07
1.44854e-05
-3.24135e-07
1.45835e-05
-8.47774e-07
1.46789e-05
-1.06074e-06
1.47035e-05
-9.57599e-07
1.47899e-05
-2.18015e-06
1.48671e-05
-2.5226e-06
1.49329e-05
-3.52291e-06
1.49784e-05
-4.9812e-06
-7.51922e-06
1.52972e-05
1.28436e-05
-1.89427e-06
1.33072e-05
-2.50574e-06
1.3573e-05
-1.80103e-06
1.36998e-05
-8.30944e-07
1.38212e-05
-3.62955e-07
1.39731e-05
-1.21422e-06
1.41097e-05
-6.17332e-07
1.42243e-05
-9.42185e-07
1.43512e-05
-5.49633e-07
1.43882e-05
-6.47792e-07
1.44663e-05
-6.48807e-07
1.45195e-05
-3.77363e-07
1.46131e-05
-9.4137e-07
1.46953e-05
-1.14291e-06
1.47527e-05
-1.01504e-06
1.48081e-05
-2.23557e-06
1.48863e-05
-2.60073e-06
1.49249e-05
-3.5615e-06
1.49824e-05
-5.03872e-06
-7.91147e-06
1.53746e-05
1.28834e-05
-2.27766e-06
1.33545e-05
-2.9769e-06
1.35896e-05
-2.03604e-06
1.37176e-05
-9.59025e-07
1.38643e-05
-5.09622e-07
1.40113e-05
-1.36126e-06
1.41602e-05
-7.66221e-07
1.42664e-05
-1.04838e-06
1.43851e-05
-6.68266e-07
1.4414e-05
-6.76689e-07
1.45071e-05
-7.41981e-07
1.45603e-05
-4.30498e-07
1.46498e-05
-1.0309e-06
1.47313e-05
-1.22446e-06
1.47985e-05
-1.08219e-06
1.48332e-05
-2.27025e-06
1.49031e-05
-2.67069e-06
1.49436e-05
-3.60201e-06
1.49374e-05
-5.03247e-06
-6.7287e-06
1.37546e-05
1.29326e-05
-2.71024e-06
1.34001e-05
-3.44437e-06
1.35725e-05
-2.20846e-06
1.37506e-05
-1.13711e-06
1.39183e-05
-6.77393e-07
1.40674e-05
-1.51037e-06
1.42261e-05
-9.24859e-07
1.43101e-05
-1.13242e-06
1.44078e-05
-7.65893e-07
1.4461e-05
-7.29934e-07
1.45445e-05
-8.25516e-07
1.46153e-05
-5.01278e-07
1.46921e-05
-1.10766e-06
1.47973e-05
-1.32966e-06
1.48272e-05
-1.11214e-06
1.48767e-05
-2.31972e-06
1.49121e-05
-2.7061e-06
1.49751e-05
-3.66501e-06
1.50201e-05
-5.07745e-06
-6.98137e-06
1.52728e-05
1.29879e-05
-3.19819e-06
1.34435e-05
-3.89996e-06
1.35782e-05
-2.34311e-06
1.37936e-05
-1.35251e-06
1.39892e-05
-8.73024e-07
1.41386e-05
-1.65973e-06
1.42907e-05
-1.07698e-06
1.4334e-05
-1.17569e-06
1.44399e-05
-8.71777e-07
1.45067e-05
-7.9675e-07
1.45954e-05
-9.14283e-07
1.46766e-05
-5.82484e-07
1.47647e-05
-1.19573e-06
1.48492e-05
-1.41418e-06
1.48681e-05
-1.131e-06
1.49044e-05
-2.35599e-06
1.49288e-05
-2.73055e-06
1.50031e-05
-3.73925e-06
1.50203e-05
-5.09466e-06
-7.24909e-06
1.5288e-05
1.30441e-05
-3.74229e-06
1.34864e-05
-4.34232e-06
1.36196e-05
-2.47625e-06
1.38595e-05
-1.59241e-06
1.40742e-05
-1.08769e-06
1.42025e-05
-1.78805e-06
1.43342e-05
-1.20875e-06
1.43584e-05
-1.19984e-06
1.44813e-05
-9.94694e-07
1.45704e-05
-8.85821e-07
1.46643e-05
-1.00818e-06
1.4753e-05
-6.71216e-07
1.48375e-05
-1.28027e-06
1.48872e-05
-1.4638e-06
1.49135e-05
-1.15732e-06
1.49325e-05
-2.37501e-06
1.49594e-05
-2.75742e-06
1.4996e-05
-3.77586e-06
1.4987e-05
-5.08564e-06
-7.39579e-06
1.51337e-05
1.30955e-05
-4.33781e-06
1.35378e-05
-4.78459e-06
1.36942e-05
-2.63265e-06
1.3944e-05
-1.84223e-06
1.41465e-05
-1.29013e-06
1.42534e-05
-1.89496e-06
1.43785e-05
-1.3339e-06
1.4409e-05
-1.23036e-06
1.45511e-05
-1.13673e-06
1.46636e-05
-9.98305e-07
1.47375e-05
-1.0821e-06
1.4832e-05
-7.65694e-07
1.48918e-05
-1.34013e-06
1.49114e-05
-1.48338e-06
1.49508e-05
-1.19669e-06
1.49336e-05
-2.35782e-06
1.49243e-05
-2.74814e-06
1.4866e-05
-3.71757e-06
1.47288e-05
-4.9484e-06
-7.27003e-06
1.4603e-05
1.31514e-05
-4.98916e-06
1.36163e-05
-5.24953e-06
1.37927e-05
-2.80906e-06
1.40099e-05
-2.05943e-06
1.42109e-05
-1.49113e-06
1.43232e-05
-2.00723e-06
1.44486e-05
-1.45936e-06
1.45004e-05
-1.28209e-06
1.46451e-05
-1.28145e-06
1.47412e-05
-1.09446e-06
1.47771e-05
-1.118e-06
1.48589e-05
-8.47488e-07
1.48675e-05
-1.34866e-06
1.48398e-05
-1.45575e-06
1.48561e-05
-1.21294e-06
1.47461e-05
-2.24788e-06
1.46318e-05
-2.63382e-06
1.44079e-05
-3.49363e-06
1.40565e-05
-4.59702e-06
-6.91583e-06
1.37023e-05
1.32306e-05
-5.71977e-06
1.37035e-05
-5.7224e-06
1.3876e-05
-2.98163e-06
1.40743e-05
-2.25765e-06
1.43175e-05
-1.73432e-06
1.44156e-05
-2.10534e-06
1.4518e-05
-1.56177e-06
1.45681e-05
-1.33223e-06
1.46387e-05
-1.35206e-06
1.46622e-05
-1.11793e-06
1.46291e-05
-1.08493e-06
1.46418e-05
-8.60191e-07
1.45533e-05
-1.2601e-06
1.44431e-05
-1.3456e-06
1.43751e-05
-1.1449e-06
1.41447e-05
-2.01752e-06
1.38989e-05
-2.38803e-06
1.35192e-05
-3.11392e-06
1.29725e-05
-4.05032e-06
-5.67764e-06
1.17343e-05
1.33335e-05
-6.55323e-06
1.37213e-05
-6.11027e-06
1.39634e-05
-3.22371e-06
1.41791e-05
-2.47332e-06
1.43991e-05
-1.95429e-06
1.43886e-05
-2.09489e-06
1.43852e-05
-1.55831e-06
1.43369e-05
-1.28391e-06
1.42494e-05
-1.2646e-06
1.41507e-05
-1.0192e-06
1.40172e-05
-9.5142e-07
1.39262e-05
-7.69284e-07
1.37413e-05
-1.07518e-06
1.35534e-05
-1.15771e-06
1.34019e-05
-9.93328e-07
1.30886e-05
-1.7042e-06
1.2746e-05
-2.0455e-06
1.22675e-05
-2.63543e-06
1.16323e-05
-3.41508e-06
-4.987e-06
1.09417e-05
1.3461e-05
-7.51421e-06
1.37782e-05
-6.42746e-06
1.40055e-05
-3.45101e-06
1.41116e-05
-2.57945e-06
1.41094e-05
-1.9521e-06
1.38769e-05
-1.86237e-06
1.36813e-05
-1.36274e-06
1.34779e-05
-1.0805e-06
1.3244e-05
-1.03069e-06
1.30456e-05
-8.20816e-07
1.28442e-05
-7.50042e-07
1.26858e-05
-6.10855e-07
1.24521e-05
-8.41459e-07
1.22236e-05
-9.2922e-07
1.20229e-05
-7.92638e-07
1.16692e-05
-1.35054e-06
1.12708e-05
-1.64709e-06
1.07397e-05
-2.10428e-06
1.00308e-05
-2.70625e-06
-3.88731e-06
8.93114e-06
1.35757e-05
-8.58994e-06
1.36794e-05
-6.53108e-06
1.36225e-05
-3.39411e-06
1.33784e-05
-2.33544e-06
1.30447e-05
-1.6184e-06
1.26012e-05
-1.41878e-06
1.22614e-05
-1.02303e-06
1.19652e-05
-7.8423e-07
1.16694e-05
-7.34877e-07
1.14347e-05
-5.86153e-07
1.12151e-05
-5.30414e-07
1.10342e-05
-4.30016e-07
1.07915e-05
-5.98766e-07
1.05518e-05
-6.89446e-07
1.03313e-05
-5.72161e-07
9.96775e-06
-9.87006e-07
9.54723e-06
-1.22656e-06
8.99519e-06
-1.55225e-06
8.27108e-06
-1.98214e-06
-2.89321e-06
7.27698e-06
1.34016e-05
-9.49153e-06
1.29027e-05
-6.03216e-06
1.23222e-05
-2.81367e-06
1.17004e-05
-1.71363e-06
1.11552e-05
-1.07313e-06
1.06366e-05
-9.00242e-07
1.02623e-05
-6.4875e-07
9.95664e-06
-4.78527e-07
9.66907e-06
-4.47311e-07
9.44462e-06
-3.61702e-07
9.24064e-06
-3.26436e-07
9.06949e-06
-2.58865e-07
8.84477e-06
-3.74047e-07
8.61369e-06
-4.58366e-07
8.39932e-06
-3.57787e-07
8.05281e-06
-6.40497e-07
7.63927e-06
-8.13031e-07
7.10421e-06
-1.01718e-06
6.4053e-06
-1.28322e-06
-1.98896e-06
5.50105e-06
1.24179e-05
-9.40943e-06
1.10133e-05
-4.62759e-06
9.97746e-06
-1.77781e-06
9.18985e-06
-9.2602e-07
8.63523e-06
-5.18504e-07
8.17242e-06
-4.37428e-07
7.8451e-06
-3.21433e-07
7.58929e-06
-2.22717e-07
7.35408e-06
-2.12103e-07
7.1691e-06
-1.76722e-07
7.00316e-06
-1.60496e-07
6.8641e-06
-1.19807e-07
6.67677e-06
-1.86714e-07
6.47062e-06
-2.52211e-07
6.28654e-06
-1.73707e-07
5.9823e-06
-3.36261e-07
5.60787e-06
-4.38596e-07
5.12993e-06
-5.39248e-07
4.51279e-06
-6.66084e-07
-1.16704e-06
3.69088e-06
1.01056e-05
-7.01499e-06
7.83583e-06
-2.35786e-06
6.71001e-06
-6.51989e-07
6.05111e-06
-2.67122e-07
5.65843e-06
-1.25824e-07
5.33756e-06
-1.1655e-07
5.10829e-06
-9.21696e-08
4.9402e-06
-5.46208e-08
4.78343e-06
-5.5342e-08
4.6568e-06
-5.00881e-08
4.54333e-06
-4.70264e-08
4.45242e-06
-2.89002e-08
4.31911e-06
-5.3404e-08
4.15535e-06
-8.84475e-08
4.02736e-06
-4.5721e-08
3.79523e-06
-1.0413e-07
3.50179e-06
-1.45151e-07
3.13365e-06
-1.71108e-07
2.67111e-06
-2.03544e-07
-4.61577e-07
1.96564e-06
5.48501e-06
3.12715e-06
2.47516e-06
2.20804e-06
2.08221e-06
1.96566e-06
1.87349e-06
1.81887e-06
1.76353e-06
1.71344e-06
1.66641e-06
1.63751e-06
1.58411e-06
1.49566e-06
1.44994e-06
1.34581e-06
1.20066e-06
1.02955e-06
8.26008e-07
3.64432e-07
3.60133e-06
2.46902e-06
-4.00956e-06
5.88792e-06
3.82595e-06
-6.11254e-06
7.78638e-06
2.0052e-06
-3.90366e-06
9.01313e-06
-1.71383e-06
4.87081e-07
1.04322e-05
-5.02407e-06
3.605e-06
1.16042e-05
-7.07676e-06
5.90475e-06
1.24269e-05
-1.09386e-05
1.01159e-05
1.24228e-05
-1.4097e-05
1.4101e-05
1.19998e-05
-1.647e-05
1.68931e-05
1.132e-05
-1.75009e-05
1.81807e-05
1.02961e-05
-1.74984e-05
1.85223e-05
9.36386e-06
-1.59079e-05
1.68401e-05
8.44668e-06
-1.2787e-05
1.37042e-05
8.13788e-06
-1.12212e-05
1.153e-05
7.26558e-06
-8.40191e-06
9.27422e-06
6.85317e-06
-5.38845e-06
5.80087e-06
7.79981e-06
-3.37527e-06
2.42862e-06
8.04268e-06
-1.27296e-06
1.03009e-06
7.59942e-06
1.47202e-07
2.96059e-07
8.32111e-06
1.46996e-06
-2.19165e-06
9.49403e-06
5.06608e-06
-6.239e-06
1.05716e-05
9.71499e-06
-1.07926e-05
1.2004e-05
1.00964e-05
-1.15288e-05
1.30159e-05
9.217e-06
-1.02289e-05
1.34765e-05
9.77691e-06
-1.02375e-05
1.38392e-05
9.30934e-06
-9.67206e-06
1.40097e-05
7.73964e-06
-7.91015e-06
1.41872e-05
5.66133e-06
-5.83877e-06
1.46252e-05
3.14619e-06
-3.5842e-06
1.4657e-05
3.01421e-06
-3.04605e-06
1.45366e-05
4.92326e-06
-4.80287e-06
1.47597e-05
4.02192e-06
-4.24503e-06
1.50093e-05
2.04255e-06
-2.29206e-06
1.51408e-05
1.1254e-06
-1.2569e-06
1.53978e-05
-8.61964e-08
-1.70896e-07
1.5926e-05
-4.71554e-06
4.18739e-06
1.58965e-05
-9.97647e-06
1.0006e-05
1.56641e-05
-1.28499e-05
1.30823e-05
1.58035e-05
-1.71568e-05
1.70174e-05
1.57231e-05
-2.19149e-05
2.19953e-05
1.53001e-05
-2.51336e-05
2.55565e-05
1.46942e-05
-2.7373e-05
2.7979e-05
1.4146e-05
-2.8942e-05
2.94901e-05
1.38184e-05
-3.11552e-05
3.14828e-05
1.30933e-05
-3.23859e-05
3.3111e-05
1.19269e-05
-3.08807e-05
3.20472e-05
1.06822e-05
-2.84761e-05
2.97208e-05
9.31199e-06
-2.49435e-05
2.63137e-05
8.03733e-06
-2.16072e-05
2.28819e-05
7.31742e-06
-2.07187e-05
2.14386e-05
7.10847e-06
-2.00147e-05
2.02237e-05
7.25494e-06
-2.01082e-05
1.99617e-05
7.68198e-06
-2.04566e-05
2.00296e-05
8.25017e-06
-2.09554e-05
2.03872e-05
8.86e-06
-2.0251e-05
1.96411e-05
9.40927e-06
-1.80264e-05
1.74772e-05
9.84553e-06
-1.53495e-05
1.49132e-05
1.04188e-05
-1.20453e-05
1.1472e-05
1.0919e-05
-8.95286e-06
8.45262e-06
1.12194e-05
-6.07106e-06
5.77067e-06
1.14744e-05
-1.80753e-06
1.5525e-06
1.16769e-05
1.56254e-06
-1.76504e-06
1.18858e-05
3.88708e-06
-4.09599e-06
1.19997e-05
6.96171e-06
-7.07559e-06
1.19005e-05
9.56054e-06
-9.46131e-06
1.17781e-05
1.10069e-05
-1.08846e-05
1.16061e-05
1.22804e-05
-1.21083e-05
1.13313e-05
1.4046e-05
-1.37712e-05
1.10413e-05
1.51466e-05
-1.48566e-05
1.07353e-05
1.54766e-05
-1.51706e-05
1.0398e-05
1.68961e-05
-1.65589e-05
1.00831e-05
1.6897e-05
-1.65821e-05
9.83933e-06
1.50845e-05
-1.48407e-05
9.65413e-06
1.44346e-05
-1.42494e-05
9.60227e-06
1.49135e-05
-1.48617e-05
9.60103e-06
1.45295e-05
-1.45283e-05
9.44183e-06
1.37749e-05
-1.36157e-05
9.22857e-06
1.38747e-05
-1.36614e-05
8.99856e-06
1.37665e-05
-1.35365e-05
8.7313e-06
1.24463e-05
-1.21791e-05
8.55377e-06
1.09813e-05
-1.08037e-05
8.33088e-06
1.02796e-05
-1.00567e-05
8.1016e-06
9.61821e-06
-9.38894e-06
8.08226e-06
9.04068e-06
-9.02133e-06
8.23561e-06
9.17794e-06
-9.33129e-06
8.30903e-06
9.51088e-06
-9.58429e-06
8.26108e-06
9.42506e-06
-9.37711e-06
8.13964e-06
9.12061e-06
-8.99918e-06
8.01246e-06
8.37354e-06
-8.24635e-06
8.072e-06
8.42871e-06
-8.48824e-06
8.38255e-06
9.16418e-06
-9.47473e-06
8.53878e-06
1.04121e-05
-1.05684e-05
8.51033e-06
1.1319e-05
-1.12906e-05
8.40803e-06
1.20628e-05
-1.19605e-05
8.50381e-06
1.22709e-05
-1.23667e-05
8.73817e-06
1.28158e-05
-1.30501e-05
9.08732e-06
1.37275e-05
-1.40767e-05
9.67831e-06
1.43547e-05
-1.49457e-05
1.03763e-05
1.49898e-05
-1.56878e-05
1.10224e-05
1.41952e-05
-1.48414e-05
1.16722e-05
1.19608e-05
-1.26106e-05
1.24186e-05
9.82072e-06
-1.05672e-05
1.30602e-05
7.24348e-06
-7.88505e-06
1.35016e-05
3.33006e-06
-3.77149e-06
1.38431e-05
-3.45969e-07
4.506e-09
1.42359e-05
-3.94727e-06
3.55444e-06
1.46616e-05
-8.5383e-06
8.11263e-06
1.4866e-05
-1.23821e-05
1.21778e-05
1.47116e-05
-1.46574e-05
1.48118e-05
1.42933e-05
-1.68219e-05
1.72402e-05
1.36251e-05
-1.81935e-05
1.88617e-05
1.27621e-05
-1.76492e-05
1.85122e-05
1.18853e-05
-1.68684e-05
1.77452e-05
1.11173e-05
-1.72284e-05
1.79964e-05
1.03616e-05
-1.86374e-05
1.93931e-05
9.53344e-06
-1.96665e-05
2.04946e-05
8.82801e-06
-2.02599e-05
2.09654e-05
8.26201e-06
-2.2146e-05
2.2712e-05
7.71248e-06
-2.67862e-05
2.73357e-05
7.53828e-06
-3.1095e-05
3.12692e-05
7.70821e-06
-3.06926e-05
3.05227e-05
7.91279e-06
-2.88649e-05
2.86603e-05
8.17533e-06
-2.82804e-05
2.80179e-05
8.4879e-06
-2.62619e-05
2.59493e-05
8.73194e-06
-2.26311e-05
2.2387e-05
8.91731e-06
-1.93721e-05
1.91867e-05
9.1274e-06
-1.65628e-05
1.63527e-05
9.41752e-06
-1.28428e-05
1.25527e-05
9.66446e-06
-8.19334e-06
7.9464e-06
9.68718e-06
-3.44057e-06
3.41786e-06
9.66761e-06
1.32636e-06
-1.30679e-06
9.8626e-06
5.22181e-06
-5.4168e-06
9.89697e-06
7.6281e-06
-7.66246e-06
9.64059e-06
1.06878e-05
-1.04314e-05
9.49137e-06
1.47138e-05
-1.45646e-05
9.54184e-06
1.71235e-05
-1.7174e-05
9.48956e-06
1.85296e-05
-1.84773e-05
9.36342e-06
2.07239e-05
-2.05978e-05
9.2653e-06
2.18118e-05
-2.17137e-05
9.15124e-06
2.15457e-05
-2.14316e-05
8.95528e-06
2.23413e-05
-2.21453e-05
8.78595e-06
2.29535e-05
-2.27842e-05
8.63964e-06
2.21949e-05
-2.20486e-05
8.36845e-06
2.06277e-05
-2.03565e-05
8.17538e-06
1.92827e-05
-1.90896e-05
7.99659e-06
1.82501e-05
-1.80713e-05
7.84084e-06
1.74372e-05
-1.72815e-05
7.75227e-06
1.67699e-05
-1.66814e-05
7.80945e-06
1.52902e-05
-1.53474e-05
7.67947e-06
1.67538e-05
-1.66239e-05
7.77628e-06
1.84414e-05
-1.85382e-05
7.48349e-06
2.10082e-05
-2.07154e-05
7.67896e-06
1.90718e-05
-1.92673e-05
7.94013e-06
2.10292e-05
-2.12904e-05
7.91941e-06
2.1478e-05
-2.14573e-05
7.88169e-06
2.05867e-05
-2.05489e-05
7.58471e-06
1.63161e-05
-1.60192e-05
7.35427e-06
1.35212e-05
-1.32908e-05
7.15852e-06
1.08135e-05
-1.06177e-05
7.37679e-06
8.08347e-06
-8.30174e-06
7.73552e-06
4.91832e-06
-5.27705e-06
8.07799e-06
2.71274e-06
-3.05521e-06
7.96963e-06
-1.0995e-06
1.20786e-06
8.04575e-06
-5.65305e-06
5.57693e-06
8.08299e-06
-9.91431e-06
9.87707e-06
8.34446e-06
-1.33536e-05
1.30921e-05
9.0339e-06
-1.68374e-05
1.6148e-05
9.55195e-06
-1.79062e-05
1.73881e-05
1.01869e-05
-2.00807e-05
1.94458e-05
1.08596e-05
-2.19014e-05
2.12286e-05
1.12265e-05
-2.24338e-05
2.2067e-05
1.13501e-05
-2.22166e-05
2.2093e-05
1.14036e-05
-2.07081e-05
2.06546e-05
1.12954e-05
-1.72136e-05
1.73218e-05
1.11172e-05
-1.39818e-05
1.416e-05
1.09714e-05
-1.1778e-05
1.19239e-05
1.09296e-05
-8.22441e-06
8.26615e-06
1.07489e-05
-3.92425e-06
4.10502e-06
1.04395e-05
3.97753e-07
-8.84401e-08
1.00105e-05
3.5005e-06
-3.07147e-06
9.35104e-06
4.6907e-06
-4.03122e-06
8.75643e-06
5.16262e-06
-4.56801e-06
8.30483e-06
6.02012e-06
-5.56852e-06
8.02568e-06
7.11546e-06
-6.83632e-06
7.93377e-06
7.56399e-06
-7.47207e-06
7.99549e-06
7.68145e-06
-7.74317e-06
7.76561e-06
8.13749e-06
-7.90761e-06
7.61121e-06
8.30841e-06
-8.15401e-06
7.54509e-06
9.31208e-06
-9.24596e-06
7.66425e-06
1.00208e-05
-1.014e-05
7.99222e-06
1.11728e-05
-1.15008e-05
8.31508e-06
1.20866e-05
-1.24094e-05
8.63962e-06
1.27311e-05
-1.30556e-05
8.96573e-06
1.31487e-05
-1.34748e-05
9.08682e-06
1.3637e-05
-1.37581e-05
8.88872e-06
1.44983e-05
-1.43001e-05
8.68223e-06
1.58537e-05
-1.56472e-05
7.59981e-06
1.91423e-05
-1.80599e-05
7.13338e-06
2.09436e-05
-2.04772e-05
3.28618e-05
-3.22867e-05
6.5583e-06
5.64829e-06
1.50199e-06
7.75097e-06
1.72327e-06
9.73107e-06
2.51004e-08
1.08145e-05
-2.79722e-06
1.21333e-05
-6.34289e-06
1.31534e-05
-8.09683e-06
1.34698e-05
-1.1255e-05
1.32548e-05
-1.3882e-05
1.27214e-05
-1.59366e-05
1.19956e-05
-1.67751e-05
1.08208e-05
-1.63236e-05
9.96094e-06
-1.5048e-05
8.95096e-06
-1.17771e-05
8.37374e-06
-1.0644e-05
7.65932e-06
-7.68749e-06
7.22694e-06
-4.95608e-06
8.10993e-06
-4.25825e-06
8.28023e-06
-1.44326e-06
7.82503e-06
6.02405e-07
8.29603e-06
9.98952e-07
9.12899e-06
4.23312e-06
1.03273e-05
8.51669e-06
1.19136e-05
8.51008e-06
1.29607e-05
8.1699e-06
1.36023e-05
9.13538e-06
1.40168e-05
8.89485e-06
1.40471e-05
7.70932e-06
1.42596e-05
5.44878e-06
1.47404e-05
2.66542e-06
1.47306e-05
3.02404e-06
1.47068e-05
4.94699e-06
1.49239e-05
3.80489e-06
1.50712e-05
1.89524e-06
1.51817e-05
1.01488e-06
1.56115e-05
-5.16e-07
1.62156e-05
-5.31964e-06
1.61469e-05
-9.90777e-06
1.59981e-05
-1.27012e-05
1.61367e-05
-1.72953e-05
1.59289e-05
-2.17071e-05
1.53783e-05
-2.4583e-05
1.47058e-05
-2.67006e-05
1.41531e-05
-2.83892e-05
1.37338e-05
-3.0736e-05
1.28397e-05
-3.14918e-05
1.15493e-05
-2.95904e-05
1.02055e-05
-2.71323e-05
8.75837e-06
-2.34964e-05
7.51043e-06
-2.03593e-05
6.92555e-06
-2.01338e-05
6.88046e-06
-1.99696e-05
7.11938e-06
-2.03471e-05
7.54337e-06
-2.08806e-05
8.03403e-06
-2.1446e-05
8.54727e-06
-2.07642e-05
9.01285e-06
-1.8492e-05
9.40844e-06
-1.57451e-05
9.93853e-06
-1.25754e-05
1.03942e-05
-9.40854e-06
1.06698e-05
-6.34664e-06
1.09853e-05
-2.12302e-06
1.12598e-05
1.28798e-06
1.14425e-05
3.70443e-06
1.15627e-05
6.84148e-06
1.15129e-05
9.61035e-06
1.13688e-05
1.1151e-05
1.11279e-05
1.25213e-05
1.08111e-05
1.43628e-05
1.05275e-05
1.54302e-05
1.02324e-05
1.57717e-05
9.93211e-06
1.71964e-05
9.69665e-06
1.71325e-05
9.50865e-06
1.52725e-05
9.33581e-06
1.46074e-05
9.29769e-06
1.49516e-05
9.33221e-06
1.4495e-05
9.19013e-06
1.3917e-05
8.98042e-06
1.40844e-05
8.81593e-06
1.3931e-05
8.58738e-06
1.26749e-05
8.40332e-06
1.11653e-05
8.22035e-06
1.04625e-05
8.0271e-06
9.81147e-06
7.98733e-06
9.08044e-06
8.14933e-06
9.01594e-06
8.26731e-06
9.39289e-06
8.2335e-06
9.45888e-06
8.12344e-06
9.23067e-06
8.05239e-06
8.44459e-06
8.08934e-06
8.39175e-06
8.44394e-06
8.80958e-06
8.777e-06
1.00791e-05
8.93146e-06
1.11646e-05
8.91948e-06
1.20747e-05
8.96308e-06
1.22274e-05
9.14259e-06
1.26362e-05
9.49286e-06
1.33772e-05
1.01214e-05
1.37262e-05
1.08736e-05
1.42376e-05
1.15594e-05
1.35094e-05
1.22308e-05
1.12894e-05
1.29536e-05
9.09789e-06
1.35616e-05
6.63556e-06
1.40142e-05
2.87739e-06