/*--------------------------------*- C++ -*----------------------------------*\
| =========                 |                                                 |
| \\      /  F ield         | OpenFOAM: The Open Source CFD Toolbox           |
|  \\    /   O peration     | Version:  2.4.0                                 |
|   \\  /    A nd           | Web:      www.OpenFOAM.org                      |
|    \\/     M anipulation  |                                                 |
\*---------------------------------------------------------------------------*/
FoamFile
{
    version     2.0;
    format      ascii;
    class       volScalarField;
    location    "0.028";
    object      p;
}
// * * * * * * * * * * * * * * * * * * * * * * * * * * * * * * * * * * * * * //

dimensions      [0 2 -2 0 0 0 0];

internalField   nonuniform List<scalar> 
4400
(
104.82
84.504
77.0678
73.5793
71.1639
68.8264
66.675
64.119
61.8899
58.1132
102.884
84.5723
77.1044
73.5926
71.1659
68.826
66.6745
64.1223
61.877
58.2601
101.667
84.8923
77.2389
73.6318
71.1858
68.8361
66.6768
64.1302
61.8837
58.481
100.932
85.2828
77.4156
73.6891
71.2271
68.869
66.6857
64.1449
61.9098
58.777
100.335
85.6421
77.5942
73.7499
71.2821
68.926
66.7045
64.1676
61.9617
59.1234
99.8231
85.9388
77.7466
73.7975
71.3316
68.9944
66.7288
64.193
62.0439
59.4879
99.3989
86.1741
77.8752
73.8308
71.3604
69.0623
66.7539
64.2169
62.1156
59.8716
99.0779
86.3522
77.9707
73.8553
71.3755
69.1176
66.7697
64.2499
62.1529
60.2004
98.8613
86.4729
78.0357
73.8744
71.3739
69.1595
66.7882
64.2691
62.2045
60.4774
98.7522
86.5365
78.064
73.8922
71.3638
69.1838
66.8047
64.2818
62.2747
60.6896
98.7513
86.5411
78.0572
73.9084
71.344
69.1933
66.8183
64.2964
62.3329
60.8682
98.8581
86.4856
78.0164
73.924
71.3139
69.1878
66.8315
64.3095
62.3931
61.008
99.0738
86.3716
77.9386
73.9368
71.277
69.1658
66.8385
64.3284
62.4471
61.1032
99.3941
86.1988
77.8302
73.9415
71.2284
69.1324
66.8439
64.3443
62.4974
61.1533
99.8161
85.968
77.6906
73.9311
71.1733
69.0849
66.8414
64.3595
62.5468
61.1846
100.327
85.675
77.5262
73.9013
71.1102
69.0318
66.8322
64.3747
62.5911
61.199
100.92
85.3225
77.3386
73.8511
71.0498
68.985
66.8215
64.3911
62.6274
61.2275
101.653
84.9376
77.1551
73.7978
71.0084
68.959
66.8155
64.4089
62.6537
61.2621
102.868
84.6205
77.0188
73.759
70.99
68.9524
66.8133
64.4217
62.6667
61.3137
104.804
84.5526
76.9818
73.7463
70.987
68.9569
66.8122
64.427
62.6705
61.4219
64.2377
66.0349
62.65
59.975
58.2804
50.1804
38.3741
30.4199
24.6626
17.7658
13.408
16.3644
23.2617
31.2588
41.5073
53.4223
64.198
72.6158
78.8063
83.2002
86.3062
88.4542
89.9384
91.0509
91.8259
92.2916
92.5594
92.7168
92.8082
92.858
92.8812
92.8871
92.8816
92.8684
92.8494
92.8258
92.7985
92.7686
92.7369
92.704
92.6702
92.6357
92.6007
92.5652
92.5298
92.4941
92.4582
92.4221
92.3859
92.3496
92.3132
92.2767
92.2401
92.2034
92.1665
92.1294
92.0922
92.0544
92.0165
91.9772
91.9383
91.8955
91.8555
91.8036
91.764
91.6874
91.6544
91.5134
91.5108
91.2249
91.3528
90.8407
91.4028
90.7831
92.0537
91.5203
92.8624
92.2116
92.7681
92.0731
92.3218
91.6378
92.3746
91.9271
92.5142
91.8844
92.1675
91.6655
92.0301
91.4946
91.5472
90.6897
90.7671
89.6447
89.2305
86.6269
86.5407
80.153
78.9537
49.4484
64.1135
66.0968
62.2631
59.1932
58.8795
51.4046
38.5673
30.9715
27.4345
22.1813
17.6766
19.3926
25.6268
33.5769
43.3016
54.3109
64.2058
71.87
77.7318
82.2822
85.6476
87.8866
89.3352
90.4411
91.3039
91.8845
92.2487
92.4791
92.6248
92.7148
92.7682
92.7971
92.8095
92.8106
92.8032
92.7887
92.7685
92.7443
92.7172
92.688
92.6572
92.6252
92.5921
92.5582
92.524
92.4893
92.4541
92.4187
92.3829
92.3469
92.3107
92.2743
92.2378
92.201
92.164
92.1267
92.0891
92.0509
92.0124
91.9724
91.9327
91.8887
91.8479
91.7936
91.7534
91.6712
91.6385
91.4812
91.4778
91.1394
91.2544
90.6044
91.1586
90.347
91.7395
91.1279
92.6328
91.9401
92.5337
91.6959
92.1135
91.1466
92.2691
91.4474
92.431
91.4175
92.0138
91.0987
91.8804
90.9445
91.2363
89.8519
90.2105
88.5991
88.4711
84.5807
84.9513
76.0718
74.8875
42.3079
63.8296
65.967
61.8454
58.3975
59.4691
52.6466
38.4611
30.5353
29.5842
26.0114
21.4596
22.2964
28.1397
35.9422
44.8888
54.7186
63.7868
71.1302
76.765
81.2877
84.9473
87.4124
88.8648
89.922
90.8268
91.5031
91.9555
92.2529
92.4487
92.5763
92.6583
92.7093
92.7391
92.7542
92.7582
92.7525
92.7391
92.7204
92.6978
92.6722
92.6444
92.6148
92.5836
92.5513
92.5183
92.4846
92.4502
92.4153
92.38
92.3443
92.3083
92.272
92.2355
92.1986
92.1615
92.1239
92.086
92.0474
92.0084
91.9678
91.9274
91.8823
91.8408
91.7845
91.744
91.6575
91.6257
91.4567
91.452
91.0759
91.1612
90.41
90.8688
89.9565
91.335
90.8359
92.3551
91.6965
92.1216
91.0873
91.6131
90.5046
91.9161
90.715
92.1413
90.5762
91.806
90.3049
91.7172
90.2633
90.9535
88.9065
89.4978
87.4123
87.4908
82.3654
83.4417
72.758
70.0182
40.4999
63.3363
65.5081
61.6128
57.8355
59.5671
53.4631
39.1677
31.7683
32.0654
29.6555
25.3838
25.8041
31.2961
38.5489
46.4133
54.9696
62.9449
69.8825
75.5871
80.1693
84.0806
86.8737
88.4337
89.468
90.3948
91.1527
91.6867
92.0446
92.2841
92.445
92.5533
92.625
92.6711
92.6996
92.7148
92.7176
92.7107
92.6973
92.679
92.6568
92.6319
92.6046
92.5752
92.5446
92.5127
92.4799
92.4463
92.412
92.3771
92.3418
92.306
92.2698
92.2333
92.1963
92.159
92.1213
92.0831
92.044
92.0046
91.9634
91.9224
91.8763
91.8342
91.7763
91.7357
91.6464
91.6162
91.4413
91.4373
91.0444
91.0972
90.3042
90.6026
89.7201
90.8904
90.7171
92.0261
91.4748
91.4939
90.2024
90.8628
89.7262
91.3256
89.8582
91.4849
89.1964
91.2074
89.0914
91.4673
88.8267
90.6163
87.5582
89.1293
86.3172
86.1943
80.3349
80.9389
69.7147
64.4507
41.0894
62.7594
64.8274
61.5151
57.4961
59.1166
53.9332
40.9254
34.1787
34.8898
33.1055
29.4013
29.7823
34.7791
41.2083
47.8181
55.0184
62.0152
68.3152
73.9682
78.7854
82.9599
86.1206
87.9148
89.0188
89.9958
90.8336
91.4439
91.8564
92.1334
92.3224
92.4539
92.5448
92.6061
92.6473
92.6737
92.6844
92.6835
92.675
92.6608
92.6419
92.6198
92.5949
92.5672
92.538
92.5073
92.4755
92.4425
92.4088
92.3743
92.3393
92.3037
92.2676
92.2311
92.1941
92.1567
92.1187
92.0802
92.0408
92.001
91.9592
91.9177
91.8708
91.8281
91.7691
91.7285
91.6381
91.6094
91.4362
91.4335
91.0517
91.0707
90.3119
90.4076
89.6384
90.436
90.5476
91.4859
90.9701
90.5813
89.1448
89.9369
88.9232
90.6597
89.0811
90.5215
87.8594
90.082
87.7526
90.4352
86.7662
89.5984
85.3454
88.329
84.116
85.2243
78.7023
78.3054
67.2146
57.5016
40.9489
62.28
64.0535
61.481
57.5162
58.4207
54.3546
43.5301
37.4037
37.767
36.438
33.5671
33.8005
37.9272
43.3992
48.9736
54.8606
60.9512
66.8353
72.2718
77.2037
81.6183
85.1049
87.2201
88.5187
89.6158
90.5512
91.2307
91.6886
91.9983
92.211
92.3595
92.4651
92.5406
92.5953
92.634
92.6527
92.6574
92.6535
92.6434
92.6275
92.6081
92.5847
92.5594
92.5317
92.5022
92.4712
92.4389
92.4057
92.3716
92.3369
92.3015
92.2655
92.229
92.192
92.1544
92.1162
92.0775
92.0378
91.9975
91.9552
91.9132
91.8658
91.8225
91.7629
91.7221
91.6324
91.6053
91.4399
91.4413
91.0935
91.0895
90.416
90.3017
89.6277
89.9058
90.06
90.5163
89.9096
89.4253
88.0747
89.0477
88.2094
89.9495
88.4093
89.4431
86.9413
89.0085
86.8482
89.1697
85.1487
87.901
83.0993
86.5331
80.4207
83.1505
75.4083
74.8604
65.2905
52.6533
41.4473
62.0747
63.318
61.4093
57.7848
57.5417
54.6595
46.4632
41.0656
40.7351
39.6655
37.7138
37.6471
40.6378
45.1393
49.8382
54.6477
59.6013
65.0801
70.563
75.5962
80.1709
83.9473
86.387
87.9551
89.2471
90.3077
91.0519
91.5403
91.8753
92.117
92.2912
92.415
92.5021
92.5625
92.6053
92.6262
92.6337
92.6336
92.6272
92.6139
92.5966
92.5759
92.5521
92.5257
92.4972
92.4671
92.4355
92.4028
92.3691
92.3346
92.2994
92.2635
92.227
92.1899
92.1522
92.1139
92.0749
92.0349
91.9942
91.9516
91.909
91.8612
91.8173
91.7577
91.7165
91.629
91.6027
91.4504
91.4553
91.1601
91.1431
90.5858
90.2828
89.6455
89.2769
89.293
89.1963
88.6307
88.2816
87.2895
88.3615
87.6472
89.109
87.7679
88.3353
86.1768
87.9703
86.1646
87.7194
84.0688
86.2933
81.8208
84.2909
77.1918
79.3246
70.8162
69.8431
60.6036
49.9915
42.4799
62.175
62.8686
61.306
58.1874
57.1582
54.9428
49.1513
44.4255
43.5575
42.8593
41.642
41.1865
43.0055
46.5953
50.4325
54.2795
58.1407
62.7227
68.3176
73.8302
78.6664
82.745
85.5194
87.4016
88.9164
90.1069
90.9109
91.4196
91.7669
92.0227
92.2109
92.3474
92.4451
92.5116
92.5524
92.5833
92.603
92.6106
92.6086
92.6008
92.5863
92.5675
92.5453
92.5201
92.4926
92.4632
92.4323
92.4
92.3667
92.3324
92.2974
92.2616
92.2251
92.188
92.1502
92.1116
92.0724
92.0321
91.9912
91.9482
91.9052
91.8571
91.8127
91.7534
91.7114
91.627
91.6
91.4627
91.4692
91.2301
91.2142
90.7764
90.3536
89.7165
88.6373
88.4043
87.7611
87.4314
87.5028
86.9323
87.843
87.1426
88.1115
86.9139
87.2684
85.4491
86.9529
85.1575
86.0697
82.7831
84.5981
80.6492
81.7141
75.1321
75.2689
67.5749
64.6965
56.5235
48.8984
42.1492
62.1769
62.5278
61.0886
58.6289
57.1021
55.3452
50.992
47.4638
46.098
45.7339
45.1509
44.526
45.3334
47.9244
50.796
53.6135
56.5724
60.1482
65.3762
71.5829
77.0303
81.5513
84.702
86.9188
88.6705
89.9667
90.7992
91.3139
91.6687
91.9398
92.1452
92.2964
92.4048
92.4791
92.5266
92.5607
92.5829
92.5936
92.5948
92.5891
92.5768
92.5598
92.5389
92.5149
92.4883
92.4597
92.4293
92.3974
92.3644
92.3304
92.2955
92.2598
92.2233
92.1861
92.1482
92.1096
92.0701
92.0296
91.9883
91.945
91.9017
91.8534
91.8084
91.75
91.7068
91.6263
91.5962
91.4742
91.4754
91.2915
91.2751
90.9703
90.491
89.8817
88.1643
87.6011
86.4159
86.555
87.2268
86.9471
87.515
86.6145
86.9766
86.0473
86.1664
84.7095
85.8385
83.873
84.1955
81.2151
82.7411
78.9942
78.6892
73.3425
71.483
65.8205
61.3186
55.4638
48.4805
41.3166
62.1787
62.2893
61.0138
59.0583
57.3976
55.9847
53.111
50.4921
48.853
48.309
48.2819
47.767
47.6947
49.1377
50.9099
52.7503
54.9052
57.5807
62.1958
68.6506
75.097
80.274
83.9754
86.5796
88.5083
89.8643
90.7201
91.2327
91.5841
91.8589
92.0749
92.2372
92.3552
92.4385
92.4955
92.5359
92.5628
92.5774
92.5818
92.5783
92.5682
92.5527
92.5332
92.5102
92.4844
92.4564
92.4265
92.3951
92.3624
92.3285
92.2937
92.2581
92.2216
92.1844
92.1464
92.1076
92.068
92.0272
91.9857
91.9422
91.8984
91.8503
91.8046
91.7473
91.7025
91.6265
91.5914
91.4837
91.4727
91.3354
91.3148
91.1401
90.6673
90.1207
88.007
87.1675
85.3944
86.167
87.2396
87.2861
87.2989
86.2643
85.8234
85.2901
85.2513
84.0731
84.4746
82.4266
82.3083
79.9298
80.5165
76.971
75.5805
71.8616
69.0507
65.0094
59.965
56.6002
48.4924
41.6884
62.1923
62.1966
61.0121
59.4253
58.0184
56.808
55.0906
53.3136
51.4706
50.7598
51.1156
50.7675
50.1524
50.3906
50.7945
51.5635
53.0855
55.1211
59.2692
66.4093
73.4736
79.1432
83.3261
86.3321
88.4111
89.7566
90.5968
91.1273
91.5015
91.7955
92.0273
92.2002
92.3247
92.4128
92.4743
92.5178
92.547
92.5639
92.5705
92.569
92.5605
92.5464
92.528
92.5059
92.4809
92.4534
92.424
92.3929
92.3605
92.3268
92.2922
92.2566
92.2201
92.1828
92.1447
92.1058
92.066
92.0251
91.9832
91.9396
91.8955
91.8475
91.8012
91.7452
91.6988
91.6277
91.5864
91.493
91.464
91.3684
91.3258
91.2767
90.8316
90.4343
88.2308
87.2711
84.8744
86.1049
87.2663
87.8055
87.3838
86.2918
85.0469
84.6938
84.7006
83.6479
83.2957
81.3673
80.598
78.9718
78.3926
75.3263
73.328
71.0973
68.0163
65.2102
60.0374
58.3802
49.2237
43.3614
62.1348
62.1033
61.1978
59.8642
58.4426
57.7502
57.1021
55.5879
53.5809
53.2043
53.912
53.4432
52.5436
51.9235
50.7767
50.3222
51.223
52.8644
57.3545
64.5442
72.2474
78.3849
82.8599
86.0283
88.1916
89.5875
90.4746
91.051
91.4516
91.753
91.983
92.1561
92.2852
92.3803
92.449
92.498
92.5313
92.5513
92.5603
92.5606
92.5536
92.5409
92.5234
92.5021
92.4778
92.4508
92.4218
92.3911
92.3588
92.3253
92.2907
92.2552
92.2187
92.1814
92.1432
92.1041
92.0642
92.0231
91.981
91.9373
91.8929
91.8451
91.7983
91.7438
91.6955
91.63
91.5821
91.5039
91.455
91.3975
91.3196
91.3745
90.9545
90.7989
88.7847
87.9072
85.0439
86.3324
87.2462
88.415
87.7155
87.01
84.7557
84.3999
84.549
83.6879
82.4454
80.9138
79.6881
78.4866
77.0368
74.7679
72.371
71.2214
68.0357
66.5152
60.9289
60.0486
50.6627
44.9596
61.9937
62.0002
61.3595
60.2767
59.1265
58.5149
58.4464
57.3645
55.7738
55.5954
56.4622
56.0863
54.7114
53.3766
51.1448
49.4983
49.8104
51.0992
55.123
62.8337
71.1428
77.7399
82.4414
85.7645
88.0259
89.4663
90.371
90.965
91.3854
91.7012
91.9426
92.1258
92.262
92.3617
92.4336
92.4848
92.5198
92.5414
92.5521
92.5537
92.5479
92.5362
92.5195
92.4989
92.4751
92.4486
92.4199
92.3894
92.3574
92.324
92.2895
92.254
92.2175
92.1801
92.1418
92.1026
92.0625
92.0213
91.9791
91.9352
91.8905
91.8431
91.7957
91.7429
91.6929
91.6332
91.5793
91.5175
91.4497
91.4291
91.3056
91.447
91.0175
91.1872
89.4901
89.0219
85.9651
86.9477
87.1603
88.9593
88.0721
88.1305
84.9928
84.6948
84.5525
84.2788
82.3733
81.2143
79.615
78.988
76.7006
75.4852
72.6112
72.523
68.6932
68.5005
62.3493
61.3238
52.2307
45.9345
61.8471
61.919
61.7426
60.8172
59.5475
59.5066
60.1463
59.4216
57.676
57.4321
58.4832
58.5501
56.9478
54.6345
51.6958
49.2564
48.8385
49.9364
53.7362
61.5011
70.1711
77.1981
82.1393
85.5746
87.894
89.3838
90.3259
90.9382
91.3627
91.6774
91.9165
92.0988
92.237
92.3406
92.4167
92.4715
92.5091
92.5328
92.545
92.5479
92.5432
92.5323
92.5164
92.4963
92.4729
92.4468
92.4184
92.388
92.3561
92.3229
92.2884
92.2529
92.2164
92.179
92.1406
92.1013
92.0611
92.0197
91.9773
91.9334
91.8885
91.8413
91.7935
91.7424
91.691
91.6369
91.5781
91.5328
91.4489
91.4641
91.292
91.5074
91.0327
91.533
90.1693
90.3616
87.458
88.053
87.1603
89.3393
88.3273
89.2839
85.8563
85.7516
84.59
85.3351
83.0347
82.6887
79.979
80.3389
77.2647
77.5249
73.646
74.6468
69.8876
70.4126
63.7703
62.0847
53.4941
46.5823
61.6153
61.7849
61.9576
61.3662
60.2972
60.4576
61.4239
60.8682
59.4133
59.4774
60.2692
60.0024
58.5372
55.8783
52.3039
49.4689
48.5724
49.4215
53.1508
60.8872
69.6334
76.8761
81.991
85.5081
87.8568
89.3534
90.2923
90.905
91.3344
91.6533
91.8971
92.0836
92.2248
92.3302
92.4077
92.4636
92.5022
92.5268
92.5399
92.5436
92.5396
92.5293
92.5139
92.4943
92.4712
92.4453
92.4171
92.387
92.3552
92.3219
92.2875
92.252
92.2155
92.178
92.1396
92.1002
92.0598
92.0183
91.9757
91.9318
91.8867
91.8399
91.7917
91.742
91.6896
91.6405
91.5784
91.5473
91.452
91.4983
91.2856
91.5604
91.0213
91.7963
90.6772
91.6627
89.1466
89.62
87.4814
89.7003
88.3712
90.2674
87.0355
87.3188
84.773
86.6378
84.0926
84.9396
80.6875
82.3779
78.5185
80.054
75.1
76.7784
71.1941
71.8313
65.0405
62.4691
54.3219
47.1517
61.4413
61.7276
62.251
61.9168
60.8274
61.1077
62.5019
62.2473
60.6951
60.6586
61.5711
61.1798
59.4803
56.7974
53.0837
49.954
48.7845
49.5848
53.3054
60.914
69.5138
76.7787
81.9734
85.5129
87.8515
89.3441
90.2881
90.9045
91.3323
91.6476
91.8876
92.0719
92.2131
92.3199
92.3993
92.4568
92.4967
92.5223
92.5362
92.5405
92.5371
92.5272
92.5122
92.4928
92.47
92.4443
92.4162
92.3862
92.3544
92.3212
92.2868
92.2513
92.2147
92.1772
92.1387
92.0992
92.0587
92.0171
91.9744
91.9304
91.8852
91.8386
91.7903
91.7417
91.6889
91.6434
91.5796
91.559
91.4569
91.5267
91.2872
91.6083
91.0087
91.9659
90.949
92.6297
90.6165
91.3276
88.1564
90.1191
88.3245
90.8476
88.0369
89.314
85.4309
87.7944
85.1351
87.4636
81.7777
84.4722
80.0894
82.5189
76.381
78.5651
72.4724
72.6778
65.9825
62.5335
54.8914
47.758
61.3707
61.7203
62.3669
62.2221
61.4151
61.7638
62.9556
62.8615
61.7185
61.6214
62.2389
61.8474
60.174
57.4527
53.8258
50.6608
49.3112
50.1469
53.9779
61.4055
69.7222
76.8446
82.0199
85.5485
87.8711
89.355
90.2943
90.9064
91.3309
91.6446
91.8845
92.0692
92.2106
92.3174
92.3968
92.4543
92.4943
92.5201
92.5343
92.5389
92.5357
92.5261
92.5112
92.492
92.4693
92.4437
92.4157
92.3856
92.3539
92.3207
92.2863
92.2507
92.2141
92.1765
92.1379
92.0984
92.0578
92.0161
91.9733
91.9293
91.884
91.8375
91.7892
91.7413
91.6886
91.6455
91.5812
91.5667
91.4611
91.5449
91.2925
91.6484
91.0118
92.0662
90.9968
93.1072
91.4437
92.8286
89.3694
90.7583
88.2824
91.1742
88.4733
91.1805
86.791
88.9192
85.6771
89.5251
83.3283
86.2466
81.3116
84.6347
77.5559
79.7122
73.5289
73.0618
66.7025
62.5073
55.2153
48.325
61.4456
61.8093
62.4406
62.395
61.7884
62.1261
63.2131
63.1983
62.2318
62.1182
62.5567
62.105
60.4791
57.8513
54.4117
51.3891
50.0487
50.9928
54.9639
62.0818
70.0583
76.9652
82.0609
85.5606
87.866
89.3469
90.2912
90.9087
91.3349
91.6472
91.885
92.0681
92.2087
92.3154
92.395
92.4528
92.493
92.519
92.5333
92.5381
92.535
92.5255
92.5107
92.4916
92.4689
92.4434
92.4154
92.3853
92.3536
92.3204
92.286
92.2504
92.2137
92.176
92.1374
92.0977
92.0571
92.0153
91.9725
91.9284
91.883
91.8367
91.7885
91.741
91.6886
91.6465
91.5831
91.5695
91.4651
91.5482
91.3004
91.6636
91.0375
92.1152
90.9759
93.1954
91.3689
93.5627
90.3706
91.7099
88.6669
91.378
88.6458
92.3304
88.0512
90.3572
86.1609
90.6372
84.7798
88.055
82.0465
85.971
78.7628
80.4514
74.1613
73.3743
67.2805
62.3359
55.3226
48.8428
61.533
61.9017
62.4537
62.4399
62.0079
62.3205
63.175
63.2048
62.4735
62.3135
62.5624
62.1008
60.5436
57.9995
54.7782
51.9613
50.7264
51.7812
55.8287
62.6789
70.3398
77.0342
82.0411
85.521
87.8196
89.3089
90.2657
90.8932
91.3258
91.6415
91.881
92.0651
92.2065
92.3137
92.3937
92.4518
92.4922
92.5183
92.5328
92.5376
92.5346
92.5251
92.5104
92.4913
92.4687
92.4432
92.4152
92.3852
92.3534
92.3202
92.2858
92.2501
92.2135
92.1758
92.1371
92.0974
92.0567
92.0149
91.972
91.9279
91.8826
91.8363
91.7882
91.7409
91.6891
91.6468
91.5856
91.5688
91.4717
91.541
91.3164
91.6514
91.0799
92.1007
91.0117
93.0815
91.1986
93.7122
90.2306
92.3625
89.0503
91.6699
88.8852
92.7639
88.5843
91.44
86.755
91.0915
85.5468
89.4451
82.732
86.4583
79.5762
81.0217
74.6698
73.5371
67.7674
62.1439
55.3474
49.2817
61.7195
62.0013
62.4123
62.42
62.0977
62.3912
63.101
63.1145
62.503
62.3432
62.4322
61.9101
60.4134
58.0005
54.9456
52.2912
51.1473
52.2693
56.3405
63.0187
70.471
77.0145
81.9777
85.4571
87.7537
89.2607
90.2353
90.8758
91.3161
91.6357
91.8769
92.062
92.2039
92.3116
92.392
92.4504
92.4911
92.5174
92.532
92.537
92.5341
92.5247
92.5101
92.491
92.4685
92.443
92.415
92.385
92.3533
92.3201
92.2857
92.25
92.2133
92.1756
92.137
92.0973
92.0565
92.0148
91.9718
91.9278
91.8825
91.8361
91.7882
91.7408
91.6899
91.6463
91.5883
91.5658
91.4791
91.5332
91.3304
91.6469
91.1026
92.1094
91.0204
93.0433
91.1424
93.5466
90.3109
92.5207
89.0516
92.0753
88.948
92.8527
88.5527
91.8418
86.9103
91.2922
85.611
89.9434
82.984
86.6446
79.7894
81.2523
74.7988
73.528
67.9054
62.0138
55.3731
49.2961
57.0103
55.7887
53.6754
51.0104
47.7998
44.2251
40.3949
35.8265
31.1062
28.6346
30.8772
37.0222
44.8719
55.0908
65.0464
73.1879
80.3762
85.8884
89.9904
92.8569
94.7295
95.8417
96.3821
96.5165
96.3842
96.0949
95.7273
95.3411
94.9655
94.6192
94.3108
94.0425
93.812
93.6153
93.4477
93.3047
93.1821
93.0761
92.9837
92.9024
92.83
92.7647
92.7053
92.6506
92.5997
92.552
92.5068
92.4638
92.4225
92.3828
92.3445
92.3074
92.2714
92.2367
92.203
92.1707
92.1397
92.1103
92.0828
92.0574
92.0347
92.0152
91.9996
91.9888
91.9839
91.9859
91.9964
92.0167
92.0483
92.0925
92.1502
92.2218
92.3069
92.405
92.5144
92.6344
92.764
92.9034
93.054
93.2181
93.3992
93.6016
93.8285
94.0863
94.3755
94.7022
95.0654
95.4665
95.9
96.3645
96.8416
97.3285
97.8102
98.2966
98.8037
99.3742
100.042
100.804
101.534
101.948
56.964
55.7493
53.6894
51.1151
47.9507
44.2719
40.0568
35.0518
30.0085
27.302
29.6008
36.1026
44.1863
54.5665
64.5957
72.9769
80.2411
85.8418
89.9923
92.8752
94.7637
95.8793
96.4163
96.5442
96.4045
96.1079
95.7367
95.3426
94.9641
94.6165
94.3078
94.0395
93.8092
93.6129
93.4456
93.303
93.1807
93.075
92.9828
92.9016
92.8293
92.7642
92.7049
92.6503
92.5995
92.5517
92.5066
92.4636
92.4224
92.3827
92.3444
92.3072
92.2713
92.2365
92.2029
92.1705
92.1395
92.11
92.0824
92.057
92.0342
92.0146
91.9988
91.9878
91.9827
91.9845
91.9948
92.0149
92.0464
92.0905
92.1483
92.2201
92.3055
92.4039
92.5136
92.6337
92.7632
92.902
93.0523
93.2151
93.3959
93.5964
93.8234
94.0785
94.3688
94.6918
95.0576
95.4545
95.8927
96.353
96.837
97.322
97.8112
98.294
98.8022
99.3605
100.028
100.78
101.523
101.952
57.1148
55.9326
53.9639
51.5028
48.3115
44.2716
39.2372
33.435
27.9895
24.8032
27.006
34.128
42.7349
53.4299
63.6467
72.4686
79.8938
85.6402
89.8824
92.8149
94.7367
95.8703
96.4135
96.5408
96.3978
96.0987
95.726
95.3342
94.9555
94.609
94.3015
94.0344
93.8052
93.6098
93.4433
93.3012
93.1792
93.0739
92.982
92.901
92.8288
92.7638
92.7046
92.65
92.5992
92.5515
92.5064
92.4634
92.4222
92.3825
92.3441
92.307
92.271
92.2361
92.2024
92.1699
92.1388
92.1093
92.0815
92.0558
92.0328
92.0128
91.9966
91.9852
91.9794
91.9806
91.9902
92.0096
92.0407
92.0845
92.1422
92.2143
92.3001
92.3993
92.5093
92.6299
92.7586
92.8968
93.0443
93.2059
93.3818
93.5819
93.8013
94.0579
94.3372
94.6629
95.0156
95.4166
95.8416
96.3094
96.7832
97.2836
97.7701
98.2745
98.7875
99.3659
100.03
100.816
101.573
102.025
57.4483
56.3973
54.6372
52.2057
48.91
44.1853
37.8516
31.0002
25.198
21.4287
23.3209
31.1857
40.6158
51.7463
62.342
71.6628
79.3543
85.3
89.6562
92.6734
94.6481
95.8133
96.3725
96.5059
96.3643
96.0655
95.6938
95.3041
94.9295
94.5874
94.2845
94.0211
93.795
93.602
93.4374
93.2967
93.1759
93.0714
92.9801
92.8995
92.8277
92.763
92.7039
92.6494
92.5988
92.5511
92.5061
92.4631
92.4218
92.3821
92.3437
92.3065
92.2705
92.2355
92.2017
92.1691
92.1377
92.1079
92.0799
92.0539
92.0303
92.0098
91.9929
91.9806
91.9739
91.974
91.9824
92.0007
92.0307
92.0737
92.1312
92.2034
92.29
92.3899
92.5009
92.6211
92.7496
92.8841
93.0304
93.1834
93.3585
93.5448
93.7656
94.003
94.2855
94.5872
94.944
95.3178
95.7495
96.1916
96.6821
97.1695
97.691
98.2093
98.7754
99.3908
100.12
100.925
101.722
102.174
57.9056
57.0109
55.3874
53.0485
49.5914
43.9901
36.0905
27.9522
21.8037
17.4242
18.6809
27.3252
37.894
49.5475
60.8103
70.5691
78.6442
84.8331
89.3197
92.4556
94.5037
95.7125
96.2962
96.4417
96.3059
96.0106
95.6427
95.2582
94.89
94.5545
94.2578
93.9999
93.7784
93.5892
93.4276
93.2892
93.1702
93.067
92.9767
92.8969
92.8257
92.7614
92.7026
92.6484
92.5979
92.5504
92.5054
92.4625
92.4213
92.3816
92.3431
92.3059
92.2698
92.2347
92.2007
92.1679
92.1363
92.1062
92.0778
92.0513
92.0272
92.0059
91.9882
91.9747
91.9668
91.9654
91.9723
91.9889
92.0176
92.0596
92.1166
92.1891
92.2764
92.3779
92.4891
92.6107
92.7361
92.8702
93.0077
93.1596
93.3196
93.5068
93.7057
93.9466
94.2009
94.5048
94.8305
95.2027
95.604
96.0471
96.5132
97.0206
97.5388
98.1134
98.7131
99.4227
100.196
101.103
101.85
102.367
58.4494
57.6769
56.1451
53.8824
50.2364
43.7152
34.1299
24.4969
18.0246
13.155
13.6162
22.729
34.5728
46.7828
59.0047
69.2565
77.796
84.2624
88.8788
92.1671
94.308
95.5737
96.1903
96.3531
96.2261
95.9367
95.575
95.1979
94.8379
94.5106
94.2217
93.9708
93.7553
93.5709
93.4134
93.2782
93.1616
93.0603
92.9715
92.8928
92.8225
92.7588
92.7006
92.6468
92.5966
92.5493
92.5045
92.4616
92.4205
92.3808
92.3424
92.3051
92.2689
92.2337
92.1996
92.1665
92.1347
92.1042
92.0754
92.0483
92.0235
92.0014
91.9826
91.9679
91.9585
91.9553
91.9604
91.975
92.0022
92.0426
92.0993
92.1718
92.2605
92.3633
92.4765
92.5979
92.7236
92.852
92.988
93.1267
93.2864
93.4535
93.6524
93.8709
94.1182
94.4029
94.7095
95.0676
95.4435
95.8719
96.3261
96.8198
97.3618
97.9441
98.6176
99.365
100.263
101.159
102.134
102.527
58.9815
58.3026
56.8598
54.6378
50.7612
43.3432
32.1042
20.8463
13.9886
8.68252
8.17733
17.3661
30.528
43.4131
56.7476
67.7574
76.8513
83.5797
88.4109
91.8243
94.0629
95.3963
96.055
96.2409
96.1263
95.8454
95.4919
95.1241
94.774
94.4566
94.177
93.9346
93.7262
93.5478
93.395
93.2637
93.1502
93.0514
92.9644
92.8873
92.8181
92.7553
92.6978
92.6445
92.5947
92.5477
92.5031
92.4605
92.4194
92.3798
92.3414
92.3041
92.2678
92.2325
92.1982
92.1649
92.1328
92.102
92.0726
92.045
92.0194
91.9963
91.9764
91.9602
91.9491
91.9439
91.9469
91.9591
91.9843
92.0229
92.079
92.1518
92.2419
92.3474
92.4618
92.5859
92.7083
92.8364
92.9624
93.0972
93.2432
93.402
93.5889
93.7902
94.0317
94.284
94.5922
94.9043
95.2808
95.6744
96.1126
96.6066
97.1332
97.7459
98.438
99.254
100.176
101.205
101.967
102.675
59.4431
58.8298
57.5091
55.2191
51.1804
42.9299
30.1152
17.1478
9.68509
3.91621
2.27738
11.4254
26.0541
39.7237
53.9717
65.97
75.8135
82.8478
87.9258
91.4516
93.7785
95.1826
95.8902
96.1049
96.0064
95.7365
95.3934
95.0368
94.6985
94.3929
94.1242
93.8915
93.6914
93.5199
93.3728
93.246
93.1362
93.0401
92.9556
92.8803
92.8125
92.7508
92.6942
92.6416
92.5923
92.5458
92.5015
92.459
92.4181
92.3786
92.3402
92.3029
92.2665
92.2311
92.1966
92.1632
92.1307
92.0995
92.0696
92.0413
92.0149
91.9908
91.9696
91.9517
91.9387
91.931
91.9317
91.9409
91.9639
92.0001
92.0559
92.1284
92.221
92.3289
92.4467
92.5724
92.6943
92.8185
92.9377
93.0631
93.1978
93.3473
93.5149
93.7149
93.9194
94.1814
94.4379
94.7549
95.0914
95.4645
95.8905
96.357
96.8779
97.5036
98.187
99.0562
100.003
101.081
102.17
102.357
59.857
59.2739
58.0644
55.6747
51.4338
42.4672
28.3036
13.5452
5.22362
-0.953274
-3.42149
6.04
22.0609
36.3704
50.9682
63.8482
74.5551
82.1363
87.4549
91.0765
93.4703
94.938
95.6971
95.9451
95.8661
95.6098
95.2794
94.9362
94.6118
94.3197
94.0635
93.8417
93.6511
93.4875
93.3469
93.2254
93.1197
93.027
92.9451
92.872
92.8059
92.7455
92.6899
92.6381
92.5895
92.5434
92.4995
92.4573
92.4166
92.3772
92.3389
92.3015
92.2651
92.2296
92.1949
92.1612
92.1284
92.0967
92.0663
92.0373
92.01
91.9847
91.9621
91.9424
91.9274
91.9169
91.9149
91.9205
91.9411
91.974
92.0294
92.1015
92.1973
92.3085
92.4301
92.5596
92.6796
92.8017
92.9118
93.0262
93.1527
93.2804
93.4485
93.6152
93.8235
94.0459
94.2974
94.5808
94.8958
95.2455
95.6444
96.0821
96.6024
97.1851
97.9146
98.7199
99.761
100.736
101.524
102.574
60.2384
59.7161
58.4892
56.0686
51.5905
41.9934
26.7795
10.368
0.937456
-5.44016
-7.80509
2.3146
19.4866
33.9536
48.261
61.5883
73.0983
81.3945
87.0068
90.7185
93.1539
94.6695
95.4771
95.7609
95.7047
95.4648
95.1495
94.8222
94.5139
94.2372
93.9951
93.7857
93.6057
93.4509
93.3175
93.2018
93.1009
93.012
92.9331
92.8623
92.7982
92.7394
92.6849
92.6341
92.5862
92.5407
92.4972
92.4553
92.4148
92.3756
92.3373
92.3
92.2636
92.2279
92.1931
92.1591
92.1259
92.0938
92.0628
92.033
92.0048
91.9782
91.9541
91.9324
91.9151
91.9015
91.8965
91.8978
91.9157
91.9442
91.9997
92.0702
92.1709
92.2852
92.4133
92.5471
92.6657
92.787
92.8829
92.9915
93.0982
93.2171
93.3672
93.5219
93.7094
93.916
94.1407
94.403
94.6887
95.0073
95.3815
95.7894
96.2738
96.856
97.5098
98.3857
99.2679
100.529
101.358
101.662
60.6148
60.1602
58.9049
56.4626
51.8268
41.7051
25.6593
7.80348
-2.88269
-9.32458
-11.0867
-0.345451
17.7858
32.3468
46.0941
59.4716
71.5562
80.6098
86.5689
90.379
92.8385
94.3841
95.2327
95.5525
95.5216
95.3008
95.0036
94.6948
94.4049
94.1457
93.9194
93.7238
93.5554
93.4103
93.2848
93.1757
93.08
92.9953
92.9197
92.8516
92.7895
92.7324
92.6793
92.6295
92.5824
92.5376
92.4946
92.4531
92.4129
92.3738
92.3357
92.2984
92.2619
92.2261
92.1911
92.1568
92.1233
92.0907
92.059
92.0284
91.9992
91.9713
91.9457
91.9217
91.9021
91.8849
91.8767
91.8728
91.8877
91.9105
91.9664
92.0339
92.1418
92.2587
92.3969
92.5348
92.6544
92.7733
92.8548
92.9547
93.0417
93.1493
93.2823
93.4238
93.591
93.7785
93.9776
94.2153
94.469
94.7596
95.0971
95.4645
95.9274
96.4457
97.0897
97.8652
98.8235
99.5919
100.661
101.522
61.019
60.5979
59.3273
56.8159
52.1075
41.6337
25.0421
6.10355
-5.84557
-12.5052
-13.4986
-2.27735
16.435
31.1362
44.3922
57.6568
70.1022
79.8026
86.1239
90.0414
92.5194
94.0827
94.9642
95.3189
95.3155
95.117
94.8411
94.5538
94.2851
94.0456
93.8367
93.6562
93.5006
93.3661
93.2492
93.1471
93.057
92.9769
92.905
92.8397
92.78
92.7247
92.6732
92.6245
92.5783
92.5342
92.4917
92.4506
92.4107
92.3718
92.3338
92.2966
92.26
92.2242
92.1889
92.1544
92.1205
92.0874
92.0551
92.0236
91.9934
91.9641
91.9368
91.9105
91.8884
91.8672
91.8556
91.8453
91.8572
91.8721
91.9294
91.9913
92.11
92.2278
92.382
92.5231
92.6472
92.7618
92.8275
92.9154
92.9847
93.0703
93.2033
93.3089
93.477
93.6307
93.8045
94.0254
94.2294
94.5021
94.7937
95.1138
95.545
95.9718
96.6166
97.2612
98.1481
99.2801
99.7047
100.25
61.4505
61.0592
59.7607
57.2242
52.4474
41.7918
25.067
5.52828
-7.40203
-14.5261
-14.6388
-3.12933
15.4987
30.14
42.9428
56.1093
68.859
79.0037
85.6446
89.6754
92.1779
93.7574
94.6682
95.0574
95.0846
94.9124
94.6616
94.3994
94.1547
93.9372
93.7476
93.5835
93.4416
93.3185
93.211
93.1163
93.0323
92.9571
92.8891
92.8269
92.7697
92.7164
92.6664
92.6191
92.5739
92.5305
92.4886
92.448
92.4084
92.3697
92.3319
92.2947
92.2581
92.2221
92.1867
92.1518
92.1176
92.0839
92.051
92.0187
91.9874
91.9566
91.9277
91.8989
91.8742
91.8484
91.8334
91.8154
91.8242
91.8285
91.8885
91.9409
92.0758
92.1906
92.3701
92.5115
92.6461
92.7552
92.797
92.8839
92.9097
93.0063
93.0993
93.2066
93.3532
93.4697
93.6438
93.8046
93.9934
94.2335
94.4507
94.7675
95.0749
95.5293
95.9725
96.6477
97.2929
97.9014
98.7301
99.252
61.9269
61.5165
60.2163
57.6812
52.9507
42.2928
25.8207
6.16796
-7.28762
-14.7852
-14.4852
-2.80025
15.0749
29.3175
41.6157
54.6949
67.8109
78.2647
85.0912
89.2327
91.7825
93.3903
94.3346
94.7622
94.8253
94.685
94.4645
94.2314
94.0141
93.8209
93.6524
93.5062
93.379
93.268
93.1703
93.0837
93.0061
92.936
92.8721
92.8133
92.7587
92.7075
92.6592
92.6133
92.5691
92.5265
92.4852
92.4451
92.4059
92.3675
92.3298
92.2926
92.256
92.2199
92.1843
92.1492
92.1146
92.0804
92.0468
92.0136
91.9812
91.949
91.9184
91.8868
91.8596
91.8288
91.8102
91.783
91.789
91.7788
91.8437
91.8802
92.0392
92.1436
92.364
92.4962
92.6593
92.7452
92.7793
92.8397
92.8429
92.9237
93.0024
93.0991
93.2171
93.3248
93.4546
93.5903
93.7542
93.9235
94.1272
94.3479
94.6346
94.9351
95.3656
95.7929
96.4615
96.971
97.2479
97.6335
62.4492
62.0051
60.6622
58.086
53.4439
43.0971
27.1639
8.27991
-5.30988
-13.2205
-12.9865
-1.48426
15.0813
28.6309
40.4573
53.4175
66.8442
77.5971
84.4518
88.655
91.2878
92.9536
93.9468
94.4235
94.5321
94.4323
94.2488
94.05
93.8636
93.6975
93.5519
93.4246
93.3132
93.2149
93.1276
93.0493
92.9785
92.9138
92.8542
92.7989
92.747
92.6981
92.6516
92.6071
92.564
92.5223
92.4817
92.4421
92.4033
92.3652
92.3276
92.2905
92.2539
92.2177
92.1819
92.1465
92.1114
92.0767
92.0425
92.0084
91.975
91.9412
91.9089
91.8746
91.8449
91.8084
91.7865
91.7482
91.7518
91.7223
91.7945
91.8062
91.9995
92.0823
92.3642
92.4756
92.6872
92.7364
92.7678
92.7952
92.7683
92.8407
92.8976
92.9879
93.0888
93.1611
93.2714
93.371
93.4863
93.628
93.7674
93.9223