/*--------------------------------*- C++ -*----------------------------------*\
| =========                 |                                                 |
| \\      /  F ield         | OpenFOAM: The Open Source CFD Toolbox           |
|  \\    /   O peration     | Version:  2.4.0                                 |
|   \\  /    A nd           | Web:      www.OpenFOAM.org                      |
|    \\/     M anipulation  |                                                 |
\*---------------------------------------------------------------------------*/
FoamFile
{
    version     2.0;
    format      ascii;
    class       volScalarField;
    location    "0.223";
    object      p;
}
// * * * * * * * * * * * * * * * * * * * * * * * * * * * * * * * * * * * * * //

dimensions      [0 2 -2 0 0 0 0];

internalField   nonuniform List<scalar> 
17600
(
72.2348
56.5696
52.166
50.9959
50.0584
49.1397
48.1907
47.4778
46.7093
45.9699
45.2242
44.6273
43.8069
43.2055
42.6423
41.9733
41.6199
40.9543
40.8501
40.6202
70.3264
56.6196
52.2072
51.0058
50.0613
49.1406
48.191
47.4774
46.7103
45.9698
45.2235
44.6276
43.8076
43.2037
42.644
41.9722
41.6204
40.9543
40.8546
40.5293
68.9122
56.8763
52.3511
51.0441
50.0749
49.1456
48.1928
47.4791
46.7123
45.9703
45.2229
44.6283
43.8077
43.2014
42.6457
41.9693
41.6208
40.9499
40.8536
40.3594
67.9355
57.2192
52.5705
51.1093
50.1045
49.1608
48.2011
47.4855
46.7173
45.9729
45.2241
44.629
43.8082
43.1984
42.6474
41.9648
41.6179
40.9428
40.8428
40.1787
67.1131
57.5559
52.8332
51.1915
50.1478
49.1887
48.2206
47.4999
46.7282
45.9801
45.2293
44.6297
43.8114
43.1948
42.6497
41.9592
41.6098
40.9363
40.814
40.0253
66.3391
57.8498
53.109
51.2744
50.1915
49.2233
48.2506
47.5225
46.7459
45.9937
45.2396
44.6309
43.8188
43.1909
42.6532
41.9536
41.595
40.9314
40.7772
39.9185
65.6109
58.098
53.3831
51.3526
50.2244
49.2543
48.2854
47.5497
46.768
46.0131
45.2541
44.6325
43.8311
43.1871
42.6579
41.9492
41.5734
40.9265
40.7451
39.8302
64.9377
58.3033
53.65
51.4284
50.2454
49.2772
48.3202
47.578
46.7914
46.0356
45.2706
44.6334
43.847
43.1829
42.6628
41.9473
41.544
40.923
40.6667
39.829
64.3245
58.4698
53.9027
51.5075
50.2569
49.2918
48.3523
47.6051
46.8149
46.0586
45.287
44.6331
43.8641
43.1787
42.6656
41.9502
41.5051
40.9226
40.4916
39.9145
63.7736
58.5993
54.1369
51.5919
50.2621
49.2987
48.3807
47.63
46.8391
46.0798
45.3023
44.6318
43.8804
43.1744
42.6671
41.9543
41.4657
40.9196
40.3828
40.0538
63.2838
58.6949
54.351
51.6819
50.2619
49.2984
48.4055
47.6528
46.8634
46.0989
45.3162
44.6301
43.8947
43.1711
42.6672
41.9599
41.4283
40.9151
40.3387
40.1095
62.8525
58.7598
54.5447
51.7767
50.2573
49.2927
48.4267
47.6736
46.8872
46.1164
45.3292
44.6274
43.9069
43.1693
42.6651
41.9677
41.3958
40.9104
40.3139
40.1148
62.4773
58.7993
54.7179
51.8741
50.2502
49.2827
48.4449
47.6907
46.9103
46.1328
45.3407
44.6249
43.9165
43.1703
42.6611
41.9761
41.3722
40.9043
40.3014
40.1245
62.1557
58.8214
54.8698
51.968
50.2441
49.2696
48.4603
47.7048
46.9323
46.1479
45.3505
44.623
43.9242
43.1732
42.6562
41.9846
41.3557
40.8967
40.3092
40.1197
61.8844
58.8338
54.9996
52.0523
50.2401
49.2554
48.473
47.7168
46.9519
46.162
45.3585
44.6227
43.9301
43.1779
42.6506
41.9934
41.3432
40.8934
40.2991
40.2236
61.6609
58.8404
55.1064
52.1248
50.2386
49.2408
48.4844
47.7257
46.969
46.1748
45.3649
44.6221
43.9348
43.1835
42.6459
42.001
41.3376
40.8882
40.3335
40.1273
61.4845
58.8431
55.1903
52.1838
50.2403
49.2263
48.4943
47.7319
46.9823
46.1866
45.3695
44.6215
43.9385
43.1888
42.6469
42.0073
41.3397
40.8762
40.4213
40.1767
61.3529
58.8441
55.2516
52.2298
50.2428
49.2138
48.5032
47.7373
46.9911
46.1979
45.3718
44.6259
43.9395
43.1964
42.6305
42.0162
41.3337
40.9028
40.349
40.16
61.266
58.8441
55.292
52.2606
50.2507
49.2033
48.5112
47.7392
46.9959
46.208
45.373
44.6273
43.9412
43.2035
42.6304
42.0207
41.3408
40.8859
40.3412
40.3609
61.2224
58.844
55.312
52.2765
50.253
49.1965
48.5179
47.74
46.9965
46.2167
45.3727
44.6301
43.9424
43.2104
42.6312
42.0271
41.3466
40.8862
40.3631
40.3925
61.2219
58.8442
55.3125
52.2762
50.2541
49.1937
48.5239
47.7389
46.9922
46.2233
45.3723
44.6314
43.9443
43.2163
42.635
42.0293
41.3558
40.8886
40.4091
40.3286
61.2649
58.8444
55.2934
52.26
50.2538
49.1942
48.5295
47.7354
46.9869
46.2262
45.3715
44.6321
43.9485
43.2219
42.6407
42.0285
41.3722
40.8833
40.4736
40.38
61.3512
58.8444
55.2539
52.2291
50.2519
49.2001
48.5321
47.7304
46.9742
46.2318
45.3697
44.6337
43.948
43.2306
42.6427
42.0365
41.3774
40.9018
40.4216
40.4045
61.4825
58.8427
55.1936
52.1831
50.2505
49.2078
48.5346
47.723
46.9595
46.2312
45.3689
44.6328
43.9507
43.2383
42.647
42.0416
41.3901
40.9124
40.4064
40.5588
61.659
58.839
55.1105
52.1243
50.249
49.2187
48.5343
47.7141
46.9411
46.2286
45.3683
44.6308
43.9533
43.2461
42.6516
42.0471
41.4052
40.9246
40.4254
40.5847
61.8828
58.8309
55.0047
52.0526
50.249
49.2306
48.5319
47.7029
46.921
46.2223
45.3691
44.6267
43.9571
43.2543
42.6567
42.052
41.4245
40.9374
40.4762
40.5297
62.1549
58.8166
54.876
51.9694
50.2508
49.243
48.5267
47.6893
46.8995
46.2123
45.3706
44.6212
43.9608
43.2639
42.662
42.0566
41.448
40.9488
40.5336
40.573
62.4774
58.7911
54.7249
51.8785
50.2526
49.2563
48.5173
47.674
46.8759
46.2009
45.3712
44.6156
43.9609
43.2776
42.6629
42.0693
41.4636
40.9766
40.4954
40.553
62.8542
58.746
54.5528
51.7842
50.2548
49.2658
48.5049
47.656
46.8527
46.1848
45.3735
44.6069
43.9627
43.291
42.6652
42.0796
41.4874
40.9999
40.4808
40.6152
63.2873
58.6751
54.3595
51.6941
50.2537
49.2717
48.4879
47.6367
46.8293
46.1654
45.376
44.5963
43.9644
43.3047
42.6679
42.0881
41.5179
41.0228
40.5014
40.6119
63.7795
58.5728
54.1458
51.6094
50.2484
49.2732
48.4656
47.6153
46.8061
46.1434
45.3776
44.5847
43.964
43.3203
42.6698
42.0958
41.5513
41.0524
40.546
40.5616
64.3329
58.4366
53.9126
51.5307
50.2377
49.2687
48.4393
47.5905
46.784
46.1192
45.3783
44.5721
43.9621
43.3364
42.672
42.1007
41.5892
41.0828
40.6191
40.4761
64.9485
58.265
53.6611
51.4583
50.2191
49.2558
48.4101
47.5634
46.7618
46.0944
45.3772
44.5599
43.9584
43.3516
42.6745
42.1049
41.6243
41.1145
40.686
40.4259
65.6245
58.0564
53.3945
51.3893
50.1921
49.2325
48.3792
47.5352
46.74
46.0708
45.374
44.5495
43.954
43.364
42.677
42.1097
41.6521
41.1465
40.721
40.3571
66.3553
57.8062
53.1198
51.3176
50.1558
49.1998
48.348
47.5085
46.72
46.0497
45.3694
44.5417
43.9507
43.3727
42.6802
42.1139
41.6735
41.1698
40.7472
40.3577
67.1309
57.5115
52.8427
51.2399
50.111
49.1635
48.3198
47.4867
46.7046
46.0341
45.3655
44.5378
43.9493
43.3779
42.6838
42.1176
41.6879
41.185
40.7633
40.3474
67.9545
57.1752
52.5781
51.1612
50.0675
49.1348
48.3004
47.4731
46.6959
46.0252
45.363
44.5372
43.9493
43.3802
42.6869
42.1207
41.6953
41.1941
40.7678
40.3483
68.9325
56.8332
52.3576
51.0973
50.0378
49.1199
48.2911
47.467
46.6931
46.0215
45.3612
44.5385
43.9501
43.38
42.6889
42.1229
41.698
41.1977
40.7684
40.3575
70.348
56.5772
52.2138
51.0589
50.024
49.1161
48.2881
47.4649
46.6929
46.0207
45.3596
44.5399
43.951
43.3784
42.6896
42.124
41.6979
41.1976
40.7674
40.3739
72.2576
56.5276
52.1734
51.0485
50.0207
49.1164
48.2872
47.4642
46.6933
46.0208
45.3585
44.5402
43.952
43.3766
42.6893
42.1246
41.6972
41.1962
40.7661
40.4091
40.2321
38.9217
39.0697
39.6607
35.736
33.8205
32.7525
30.2298
26.301
21.6591
18.1795
16.628
14.2507
10.1892
6.17
2.02165
-2.72687
-5.92345
-7.36363
-8.72677
-8.83189
-8.09661
-7.36108
-5.44698
-2.12359
2.98
7.70788
11.3262
15.0692
18.7993
22.1145
23.6092
25.1695
27.4607
29.0355
30.1675
31.602
33.517
35.9231
38.3678
40.9139
43.9132
47.1651
50.0615
52.7176
55.2938
57.3856
58.9713
60.2743
61.393
62.2011
62.5095
62.6617
62.6688
62.4682
62.0272
60.8545
59.1084
57.1996
54.8424
51.6446
47.439
42.0035
34.9981
26.1751
16.1156
6.02661
-3.0998
-10.4174
-15.0854
-16.5559
-14.3804
-9.78666
-6.22588
-4.55264
-1.72165
3.74875
10.6696
19.0051
28.3954
36.5261
43.016
49.3418
54.6033
57.0493
57.7882
57.7921
57.2108
55.9519
53.8523
51.31
47.2622
41.5048
35.9481
29.3608
20.4881
12.1537
5.75171
-0.250006
-6.50695
-11.4321
-13.4142
-13.2462
-12.4293
-10.4194
-6.48383
-1.22349
4.97531
12.0126
19.0298
25.9104
32.7194
39.0603
44.6461
48.1263
48.2483
45.9202
43.5624
41.3609
39.8373
37.4561
34.3958
29.7725
24.7223
19.7068
15.808
13.1538
11.6548
10.8173
9.67726
7.59116
6.4528
8.05864
12.1918
18.623
26.5329
34.1307
40.2147
44.7773
48.5814
51.78
54.2509
56.3094
57.9698
58.9661
59.95
60.5588
60.8809
61.135
61.3802
61.7181
61.3863
61.2063
60.9128
59.9773
59.8355
59.0269
57.753
56.8926
55.9385
54.9803
53.8167
52.7579
49.2299
46.0232
41.9461
35.6464
28.5872
23.9556
22.5251
21.7436
20.6113
19.8723
19.0452
18.5256
19.3873
21.4581
24.7794
29.1846
34.4014
38.8573
42.4409
45.2993
47.7565
49.4638
50.7822
51.4362
52.0143
52.1082
51.9654
51.7495
50.5196
49.8684
48.6998
45.117
40.2042
33.7803
26.4242
19.5712
8.32952
40.5179
39.4059
39.153
39.2794
35.5313
33.3076
32.6095
30.3245
26.2779
21.3007
17.8603
16.78
15.1668
11.527
7.42579
3.4244
-1.21083
-4.35204
-5.66309
-6.83375
-6.90559
-5.72187
-4.65883
-2.77277
0.488339
5.27501
9.77663
12.9889
16.0855
19.2504
22.4127
23.9199
24.9853
26.7055
28.0807
29.1186
30.191
31.6467
33.7918
36.2602
38.7626
41.7609
45.1794
48.3573
51.2708
54.0621
56.4043
58.2161
59.642
60.8574
61.8087
62.2919
62.5498
62.6589
62.5478
62.1949
61.1293
59.4885
57.6392
55.3055
52.1679
48.0249
42.6505
35.7177
26.9507
16.9777
6.97592
-2.14483
-9.44125
-14.0511
-15.6769
-13.7234
-8.98687
-5.07161
-3.32614
-0.575204
4.93306
12.0142
20.4386
29.777
37.866
44.2594
50.27
55.2497
57.5569
58.1879
58.117
57.4141
56.0573
53.8337
51.0562
46.8212
40.8827
35.017
27.9865
18.6117
9.98119
3.53146
-2.45911
-8.91974
-14.2556
-16.3871
-16.1527
-14.9809
-12.5833
-8.50848
-3.22645
3.18165
10.4738
17.7523
24.8253
31.892
38.4833
44.2288
47.7921
47.9861
45.8125
43.5731
41.4611
40.4108
37.9612
35.0263
30.2863
25.3011
20.3766
16.6597
14.0974
12.5511
11.6445
10.4371
8.2191
6.87081
8.32533
12.4227
18.8495
26.7591
34.3249
40.3495
44.8841
48.6753
51.8169
54.2087
56.3
57.9717
58.9382
59.9288
60.5396
60.8731
61.1909
61.4728
61.8482
61.5191
61.2747
61.0729
60.1444
60.1007
59.1794
57.7056
56.7926
55.8652
54.6906
53.2302
52.0928
48.5327
45.2927
41.011
34.2494
27.2735
22.8391
21.3665
20.3255
18.8444
17.7553
16.8635
16.4088
17.0385
19.0804
22.2345
26.8541
32.2983
37.1183
41.0691
44.2291
46.8788
48.9306
50.4003
51.1986
51.8233
51.7783
51.6947
51.3355
49.9867
49.2938
48.044
44.4665
39.1948
32.3588
24.2283
16.2928
4.26512
40.6977
39.8764
38.9636
38.6664
35.3454
32.8769
32.244
30.1685
26.3201
21.474
17.921
16.9685
15.8873
12.4335
8.62376
4.79642
0.359495
-2.61906
-3.67176
-4.64051
-4.80516
-3.2751
-1.6962
0.129859
3.17955
7.44202
11.6182
14.6303
17.2249
19.8733
22.7139
24.1475
24.9395
25.9567
27.0057
27.9722
28.6598
29.7044
31.4821
33.8635
36.3565
39.3007
42.9003
46.4231
49.6234
52.6726
55.3111
57.3968
58.9773
60.2785
61.3573
62.0231
62.3902
62.5977
62.5791
62.3178
61.3845
59.8769
58.1104
55.8397
52.7834
48.7228
43.4446
36.6304
27.9642
18.1193
8.24727
-0.828305
-8.07582
-12.5777
-14.3029
-12.6086
-7.84477
-3.63713
-1.76408
0.986633
6.53649
13.7148
22.1725
31.398
39.3578
45.6308
51.3289
55.985
58.1581
58.6779
58.5271
57.7156
56.2326
53.906
50.8995
46.4496
40.3101
34.1286
26.6313
16.8196
7.9914
1.5958
-4.37903
-11.0618
-16.8076
-19.221
-18.855
-17.2939
-14.5507
-10.3397
-4.98625
1.62409
9.12802
16.6272
23.8798
31.1816
37.999
43.8564
47.5139
47.8401
45.894
43.6821
41.8434
41.0056
38.8397
35.7193
31.1334
26.1352
21.2837
17.6587
15.2337
13.642
12.6546
11.4151
9.118
7.59065
8.90731
12.9379
19.314
27.1791
34.6686
40.5736
45.0342
48.7979
51.8751
54.1867
56.2994
57.9749
58.9264
59.8965
60.5277
60.8829
61.2616
61.5651
61.9391
61.6137
61.3124
61.0477
60.2274
60.2532
59.3296
57.7193
56.7559
56.0397
54.4735
52.5859
51.2207
47.9164
44.6939
39.9594
33.0435
26.0675
21.7573
20.1564
18.7244
16.9337
15.6122
14.6843
14.1639
14.7918
16.8094
19.8882
24.6414
30.227
35.5345
39.7479
43.1237
45.9847
48.4292
50.0062
51.1479
51.7893
51.7772
51.5809
51.1293
49.7193
48.91
47.6526
43.9444
38.2148
31.1179
22.365
13.4598
2.57594
40.7316
40.2941
38.86
37.9449
35.0867
32.583
31.8104
29.887
26.4003
22.0005
18.4049
17.3315
16.5437
13.4584
9.78647
6.25491
2.10974
-0.649193
-1.37354
-2.06804
-2.36715
-0.776028
1.31772
3.15637
5.81092
9.44447
13.2667
16.2329
18.501
20.5615
23.0548
24.3184
24.9028
25.3289
25.8516
26.7205
27.0358
27.5798
28.9896
31.1467
33.6192
36.5562
40.2859
44.1744
47.7513
51.1468
54.1076
56.4799
58.2589
59.6719
60.871
61.7085
62.1866
62.4863
62.5708
62.414
61.6354
60.2764
58.6129
56.4405
53.4807
49.519
44.3718
37.7026
29.165
19.4915
9.8106
0.838941
-6.34349
-10.7104
-12.4713
-11.0311
-6.32252
-1.92025
0.0877526
2.91994
8.54851
15.7689
24.1778
33.2238
40.9772
47.0812
52.4876
56.7847
58.8271
59.2523
59.0066
58.103
56.5019
54.0496
50.8773
46.2068
39.8649
33.3473
25.3651
15.1914
6.26124
-0.0336862
-5.94086
-12.8723
-18.9808
-21.6806
-21.2836
-19.3401
-16.2443
-11.908
-6.49694
0.281456
7.96402
15.6008
22.9977
30.5217
37.5782
43.5594
47.3107
47.8076
46.1427
44.0257
42.6217
41.547
39.9376
36.7195
32.2263
27.1434
22.3533
18.8218
16.5371
14.9039
13.8455
12.5978
10.2958
8.65611
9.83418
13.7761
20.047
27.7772
35.1144
40.8809
45.2307
48.9477
51.9443
54.1697
56.2851
57.9585
58.9271
59.8721
60.514
60.9046
61.3299
61.6503
61.988
61.7135
61.3469
60.9119
60.2163
60.2334
59.3645
57.7949
56.6944
56.2565
54.357
51.8529
50.1476
47.1562
44.145
38.9679
32.0658
25.0945
20.6286
18.756
16.9898
14.7556
13.2497
12.4247
11.9781
12.6501
14.6206
17.7174
22.5874
28.4404
34.0761
38.5084
42.1954
45.4035
47.8926
49.6802
50.8879
51.6702
51.7672
51.4049
51.0216
49.5152
48.4923
47.05
43.3413
37.5203
30.0707
21.2333
11.7806
1.89913
40.6601
40.5079
38.809
37.3086
34.7466
32.3424
31.4334
29.6203
26.5344
22.6924
19.1283
17.8617
17.2651
14.4091
10.865
7.77017
4.05033
1.45606
1.01904
0.640193
0.304925
1.8185
4.17117
6.06041
8.4019
11.4343
14.8626
17.8116
19.8689
21.419
23.3943
24.5774
24.9378
24.8264
24.7533
25.2683
25.2009
25.2006
26.1612
28.0331
30.4283
33.4034
37.3322
41.5963
45.6104
49.4209
52.7743
55.4806
57.4918
59.0346
60.3521
61.3511
61.9518
62.3392
62.5303
62.4853
61.8671
60.6802
59.1418
57.0907
54.2498
50.3973
45.406
38.8913
30.5174
21.0568
11.662
2.86407
-4.24911
-8.46709
-10.2062
-8.99761
-4.4043
0.0918891
2.19465
5.15385
10.9169
18.1498
26.4149
35.1995
42.6873
48.5776
53.7048
57.6547
59.546
59.8918
59.5592
58.5568
56.8641
54.2829
50.9617
46.1311
39.6143
32.7341
24.3052
13.8016
4.86576
-1.27644
-7.13124
-14.2125
-20.6581
-23.5905
-23.2258
-21.026
-17.633
-13.1929
-7.7125
-0.793458
7.05533
14.7901
22.3036
29.9971
37.2377
43.3156
47.178
47.8897
46.5192
44.6638
43.6545
42.2569
41.2077
37.9676
33.429
28.3144
23.5928
20.1626
17.9963
16.3204
15.1856
13.9772
11.7335
10.0451
11.1113
14.9525
21.0523
28.5629
35.679
41.2516
45.4765
49.1047
52.0222
54.1608
56.2467
57.9246
58.9227
59.8547
60.5219
60.934
61.3929
61.7166
62.0128
61.8413
61.3999
60.8671
60.2429
60.1072
59.2969
57.8639
56.6207
56.2627
54.2047
51.4033
49.1684
46.1973
43.2757
38.0632
31.3799
24.4621
19.7416
17.4092
15.1776
12.5552
10.7814
9.97844
9.77253
10.6429
12.5622
15.7196
20.6613
26.6859
32.5171
37.3179
41.3913
44.8381
47.4257
49.4348
50.6718
51.4527
51.4199
51.3028
50.7704
49.1353
48.0091
46.4387
42.985
37.2186
29.4854
20.9995
11.1199
1.58879
40.4484
40.469
38.7895
36.8999
34.4268
32.0856
31.1504
29.4374
26.7038
23.4908
20.079
18.557
18.0184
15.3651
11.9537
9.37118
6.24082
3.73571
3.39831
3.38392
3.1523
4.45013
6.78516
8.71841
10.91
13.458
16.3805
19.3036
21.2337
22.4819
23.8415
24.8357
25.039
24.3792
23.6321
23.6471
23.03
22.5051
23.02
24.4701
26.7553
29.8123
33.9204
38.5907
43.1787
47.5158
51.3173
54.3797
56.6542
58.361
59.8148
60.9713
61.6987
62.1696
62.4609
62.5191
62.0613
61.0709
59.6856
57.7807
55.0717
51.3479
46.5199
40.1882
32.0302
22.8594
13.8497
5.26088
-1.77821
-5.83796
-7.52795
-6.5323
-2.10301
2.40426
4.55318
7.6415
13.5725
20.8203
28.8564
37.2767
44.4374
50.0943
54.9377
58.5666
60.316
60.5939
60.1797
59.0747
57.2892
54.6138
51.1502
46.196
39.5614
32.3578
23.5167
12.7638
3.86232
-2.11843
-7.87476
-15.0328
-21.6455
-24.8656
-24.5717
-22.2263
-18.6794
-14.1754
-8.62234
-1.61875
6.33227
14.115
21.7557
29.5695
36.9621
43.1257
47.1211
48.0849
47.0465
45.5712
44.8173
43.4443
42.5291
39.1747
34.7189
29.6648
25.0357
21.7007
19.5881
17.8445
16.6659
15.5299
13.3884
11.7404
12.7008
16.4008
22.2991
29.5215
36.3708
41.6881
45.7668
49.2768
52.1118
54.1817
56.2001
57.8755
58.9297
59.8225
60.5357
60.9714
61.4559
61.7862
62.0278
61.9708
61.4761
60.9689
60.3599
59.9746
59.1255
57.9048
56.5674
56.0681
53.8538
51.1114
48.6814
45.2255
42.11
37.1617
30.9356
24.2596
19.2512
16.3364
13.5535
10.3559
8.2866
7.63079
7.66767
8.66587
10.6553
13.9896
18.856
25.1403
31.2693
36.3647
40.6001
44.2109
47.1407
49.2326
50.6535
51.2696
51.2606
51.3188
50.4849
48.958
47.7505
46.238
42.9484
37.088
29.4892
21.1883
10.9206
1.51829
40.3109
40.4146
38.7924
36.6404
34.1861
31.8865
30.9455
29.3883
26.9111
24.2446
21.1659
19.4245
18.7714
16.327
13.1168
11.054
8.57869
6.14394
5.72327
6.06742
6.04338
7.01383
9.17164
11.1488
13.2546
15.4547
17.8786
20.667
22.5888
23.6638
24.4196
25.0585
25.1059
23.9962
22.4964
21.837
20.6421
19.556
19.6843
20.7029
22.7454
25.8353
30.1163
35.213
40.4262
45.3784
49.7025
53.1718
55.7645
57.6764
59.2695
60.5748
61.4385
61.9906
62.3599
62.518
62.2246
61.4381
60.2433
58.5087
55.9452
52.3701
47.7172
41.6229
33.7264
24.9114
16.3231
7.9796
1.0617
-2.83262
-4.46412
-3.66856
0.551501
4.99744
7.15397
10.3655
16.47
23.723
31.4657
39.423
46.1933
51.5988
56.1639
59.4906
61.1151
61.3546
60.8628
59.659
57.7682
55.0052
51.4197
46.3919
39.6702
32.212
22.9977
12.1512
3.29109
-2.57515
-8.18505
-15.2933
-21.9194
-25.3379
-25.2481
-22.9104
-19.3187
-14.8162
-9.23725
-2.1405
5.86313
13.653
21.3901
29.2941
36.8004
43.0185
47.1086
48.3827
47.7571
46.7443
46.1731
44.9856
43.7094
40.3574
36.0966
31.1755
26.6851
23.3852
21.2622
19.4823
18.2638
17.2141
15.2722
13.6924
14.5351
18.0731
23.7312
30.6176
37.1581
42.2129
46.0975
49.4725
52.2145
54.2324
56.1703
57.8171
58.9265
59.8045
60.5409
61.0195
61.5062
61.8777
62.0645
62.061
61.6021
61.1623
60.5597
59.9318
59.0116
57.9637
56.6528
55.9495
53.5233
50.7312
48.2965
44.4538
40.868
36.4778
30.5808
24.2691
19.2345
15.5818
12.0986
8.32764
5.88542
5.30997
5.67856
6.85605
8.98163
12.3629
17.3217
23.9181
30.2566
35.568
39.977
43.7415
46.8191
49.2085
50.6464
51.405
51.5791
51.3287
50.503
49.1065
47.6341
46.0568
42.7831
37.0317
29.8422
21.3909
11.0251
1.78697
40.2914
40.2994
38.5913
36.2766
34.0132
31.7734
30.7651
29.4207
27.211
24.9282
22.2572
20.4192
19.5722
17.299
14.3394
12.6968
10.8343
8.57212
7.97048
8.47105
8.7231
9.50119
11.364
13.3224
15.4448
17.466
19.5015
22.0572
23.8994
24.9405
25.2032
25.3345
25.2171
23.6195
21.404
19.8641
18.0405
16.4818
16.2466
16.8611
18.6145
21.6805
26.0762
31.5111
37.3456
43.0023
47.9475
51.895
54.837
56.9728
58.71
60.1754
61.1894
61.8178
62.2437
62.4983
62.3742
61.8006
60.821
59.2743
56.8763
53.4587
49.023
43.2041
35.5869
27.1484
19.0122
11.0022
4.26696
0.531492
-1.05433
-0.460861
3.50626
7.84035
9.98799
13.3072
19.5784
26.8049
34.172
41.5827
47.9143
53.0557
57.3414
60.4067
61.9243
62.1581
61.596
60.3066
58.2876
55.448
51.7254
46.6572
39.9105
32.2394
22.7333
11.8971
3.08233
-2.67881
-8.17644
-15.0275
-21.5386
-25.0694
-25.2301
-23.0632
-19.5721
-15.126
-9.50949
-2.36536
5.61251
13.3949
21.223
29.1953
36.7403
43.019
47.1754
48.78
48.6319
48.1544
47.6589
46.5559
44.8345
41.6371
37.4911
32.807
28.4416
25.1524
23.0256
21.2029
19.9554
19.0203
17.386
15.8261
16.5626
19.9199
25.3122
31.8081
38.0029
42.7973
46.4813
49.697
52.3312
54.2904
56.1613
57.7909
58.9178
59.788
60.5408
61.0743
61.5581
61.9604
62.147
62.1325
61.7757
61.3826
60.8394
60.0296
59.1494
58.1583
56.7642
56.0527
53.4358
50.4633
47.7951
43.9278
40.0953
35.7681
30.2536
24.1618
19.1364
14.9406
10.7975
6.48631
3.65721
3.08486
3.78916
5.27087
7.5712
10.9157
16.1128
22.6215
29.2023
34.7764
39.4401
43.3065
46.5748
49.3643
50.6577
51.7529
51.8865
51.4268
50.7162
49.1653
47.3546
45.703
42.5559
37.1699
30.2083
21.7684
11.6357
2.59306
40.9939
40.5622
38.1875
35.7682
33.8053
31.7672
30.6503
29.5117
27.5944
25.5798
23.2849
21.4638
20.46
18.328
15.6055
14.2041
12.8878
10.8942
10.0668
10.6105
11.1473
11.8893
13.4172
15.268
17.4653
19.4799
21.1593
23.4271
25.1654
26.2362
26.2317
25.6966
25.2758
23.1911
20.2607
17.808
15.2767
13.282
12.7023
12.986
14.4628
17.5156
21.9796
27.6041
33.9866
40.4177
46.057
50.5314
53.8667
56.2596
58.1586
59.7996
60.9714
61.6591
62.1263
62.4772
62.5255
62.1658
61.4106
60.0772
57.8564
54.6217
50.4477
44.9029
37.5628
29.517
21.8762
14.2566
7.73817
4.1621
2.62494
3.02931
6.71035
10.9046
13.0587
16.4612
22.8518
30.008
36.9134
43.6996
49.5554
54.4324
58.4524
61.2833
62.7153
62.9775
62.3678
61.0017
58.8682
55.9288
52.0771
46.9599
40.2283
32.4395
22.7089
11.8928
3.14724
-2.56664
-7.92161
-14.435
-20.6151
-24.2038
-24.6301
-22.7618
-19.4606
-15.1017
-9.47726
-2.30846
5.58428
13.3233
21.2347
29.2449
36.8286
43.1582
47.3605
49.2511
49.615
49.6712
49.1036
48.1045
46.068
42.9357
38.8862
34.4803
30.2281
26.9852
24.8537
23.0051
21.7277
20.8619
19.4562
18.0645
18.7058
21.8715
27.0174
33.0962
38.8886
43.4006
46.8931
49.9385
52.466
54.3805
56.1748
57.7705
58.9127
59.7768
60.5551
61.1377
61.6141
62.03
62.2473
62.2402
61.9693
61.5904
61.1378
60.2059
59.3469
58.4766
56.8638
56.0281
53.4477
50.4163
47.4526
43.5742
39.9903
35.043
29.7732
23.8629
18.731
13.9763
9.5096
4.90149
1.64682
1.19682
2.11998
3.83734
6.36374
9.7526
15.1482
21.5819
28.5934
34.1073
39.0406
43.0273
46.734
49.2907
50.8307
51.8271
51.9773
51.6155
50.7743
49.0911
47.0841
45.6016
42.6081
37.4219
30.6331
22.6185
12.728
3.90794
41.3042
40.6754
37.9511
35.4087
33.6412
31.839
30.6504
29.6401
28.0113
26.2159
24.231
22.509
21.4162
19.4435
16.9295
15.6093
14.7354
13.0578
12.0376
12.5731
13.3586
14.1492
15.3883
17.1191
19.3601
21.4101
22.8538
24.8203
26.478
27.5843
27.405
26.1994
25.2294
22.6945
19.1302
15.8253
12.5699
10.1756
9.21247
9.13468
10.3302
13.4272
18.005
23.6762
30.4577
37.6492
44.0229
49.0953
52.885
55.5534
57.6228
59.4537
60.7915
61.5239
62.0156
62.46
62.6802
62.5447
62.0313
60.9218
58.8812
55.8591
51.9522
46.6539
39.5894
31.9532
24.8056
17.6076
11.3716
7.98581
6.5198
6.75258
10.1221
14.1681
16.3865
19.8557
26.2599
33.2487
39.6259
45.7331
51.0919
55.6806
59.4743
62.1061
63.4726
63.7806
63.1571
61.7087
59.508
56.4729
52.5074
47.3225
40.612
32.7797
22.929
12.1053
3.43006
-2.29831
-7.50836
-13.6592
-19.4146
-22.9485
-23.6485
-22.0922
-19.0047
-14.7612
-9.10716
-1.91403
5.83149
13.5025
21.4636
29.4982
37.0937
43.4077
47.6586
49.8056
50.6978
51.2199
50.5759
49.696
47.3621
44.1804
40.314
36.1355
32.0123
28.863
26.7485
24.8708
23.5442
22.7303
21.5293
20.3282
20.916
23.8941
28.7881
34.4782
39.8234
44.0224
47.3186
50.1994
52.602
54.477
56.2301
57.7831
58.9014
59.7615
60.5655
61.2071
61.6741
62.0994
62.3465
62.3651
62.156
61.7648
61.3593
60.421
59.4046
58.6625
56.958
55.8352
53.1631
50.4374
47.2219
43.4051
40.1194
34.4474
29.1306
23.469
18.1614
12.9568
8.14769
3.25561
0.650107
-0.439175
0.624268
2.75938
5.35097
8.88015
14.2902
21.049
28.1395
33.6918
38.8184
42.9854
46.8618
49.1387
51.1874
51.7373
52.1933
51.6894
50.6967
49.2162
47.1289
45.6962
42.6951
37.6987
31.4208
23.7654
14.0869
5.58892
41.4538
40.7593
37.9323
35.2829
33.5424
31.9352
30.7219
29.8023
28.4268
26.8291
25.1145
23.4963
22.3789
20.6135
18.2743
16.9306
16.3712
15.0835
13.9904
14.3962
15.3454
16.3053
17.3469
18.8886
21.1511
23.2788
24.6073
26.3235
27.8565
28.9587
28.6919
26.8985
25.2346
22.2649
18.1293
14.0293
10.0566
7.23242
5.8761
5.44376
6.35481
9.5119
14.201
19.8281
26.866
34.7652
41.8928
47.6195
51.9044
54.8523
57.0892
59.0925
60.6042
61.4163
61.9355
62.4571
62.8541
62.9546
62.687
61.7976
59.9414
57.1375
53.4798
48.403
41.6293
34.4148
27.7569
21.0281
15.1224
11.933
10.5518
10.6602
13.7199
17.6322
19.9927
23.5082
29.7773
36.4491
42.2332
47.6373
52.5116
56.8007
60.3753
62.8507
64.1844
64.5471
63.9278
62.4089
60.1464
57.0522
53.0354
47.7573
41.0541
33.2158
23.3703
12.5639
3.86698
-1.87776
-7.00204
-12.7976
-18.1334
-21.5364
-22.4445
-21.1614
-18.2828
-14.1165
-8.41354
-1.29343
6.28466
13.8774
21.8814
29.9084
37.5025
43.7895
48.0761
50.4667
51.875
52.797
52.2023
51.2343
48.6539
45.4511
41.7331
37.7343
33.7887
30.7867
28.6807
26.7622
25.407
24.6009
23.58
22.6029
23.1555
25.9438
30.5833
35.9133
40.8155
44.6543
47.7281
50.4557
52.752
54.5799
56.2787
57.8034
58.8947
59.7503
60.5827
61.2701
61.7361
62.1581
62.4278
62.4958
62.3286
61.9482
61.4949
60.6815
59.4686
58.7375
57.0421
55.6779
52.7511
50.2874
47.0835
43.1546
40.0636
34.08
28.2692
23.031
17.4288
11.876
7.08884
1.7732
-1.90441
-2.16858
-0.577942
1.91406
4.47181
8.32806
13.5347
20.7168
27.4693
33.5877
38.4905
43.0726
46.7073
49.5544
51.5572
52.0973
52.6447
51.7783
50.8901
49.617
47.293
45.6348
42.6864
38.0908
32.3545
24.9748
15.8159
7.59869
41.5163
40.8302
37.9619
35.2651
33.5094
32.0552
30.8709
30.0056
28.8219
27.4204
25.9545
24.4228
23.3103
21.7779
19.5768
18.1981
17.8534
16.9657
15.9049
16.1422
17.1583
18.2592
19.2508
20.618
22.8131
25.0622
26.3832
27.8311
29.2775
30.3309
30.0281
27.8372
25.4139
21.9227
17.2553
12.345
7.62171
4.34292
2.58364
1.86892
2.57228
5.82636
10.6043
16.1418
23.342
31.87
39.7226
46.1115
50.9222
54.1569
56.5386
58.6867
60.3956
61.3469
61.9096
62.4876
63.061
63.4114
63.4027
62.7293
61.0485
58.4491
55.0058
50.1289
43.6581
36.8669
30.6912
24.4349
18.8716
15.9052
14.6784
14.7587
17.5201
21.3164
23.8856
27.4052
33.3504
39.5318
44.6745
49.38
53.7799
57.7914
61.1617
63.4999
64.8291
65.2617
64.6498
63.0747
60.7644
57.6175
53.5744
48.2624
41.5791
33.7263
23.979
13.2567
4.51033
-1.35936
-6.40702
-11.9129
-16.8491
-20.091
-21.1133
-20.0132
-17.2832
-13.1516
-7.4262
-0.376709
7.02127
14.537
22.5494
30.5358
38.1198
44.3221
48.6036
51.2248
53.0854
54.3118
53.8822
52.6989
50.0449
46.7735
43.1098
39.3004
35.5691
32.7158
30.6088
28.6861
27.2916
26.4715
25.6121
24.8396
25.3883
28.0181
32.4055
37.3678
41.8274
45.301
48.1351
50.6856
52.8677
54.66
56.3281
57.8188
58.8762
59.7333
60.6
61.3223
61.7986
62.2249
62.4913
62.6406
62.4988
62.1936
61.6702
60.8816
59.7574
58.8125
57.2841
55.639
52.5287
49.989
46.9174
42.9452
39.557
34.083
27.3824
22.2323
16.796
10.7438
5.98724
0.744055
-2.5902
-3.04723
-1.30892
1.05186
3.97205
7.91951
13.2885
20.5662
27.2153
33.6198
38.3668
43.3999
46.7864
50.276
51.9269
52.8748
53.0568
52.2603
51.4541
49.9752
47.4005
45.6252
42.7693
38.4947
33.2273
26.5058
17.9674
9.93833
41.4848
40.8322
38.0226
35.3596
33.6018
32.1972
31.054
30.2477
29.207
27.969
26.7312
25.3131
24.191
22.8715
20.8764
19.5065
19.2345
18.7052
17.7459
17.7687
18.815
20.0528
21.0861
22.3564
24.4057
26.7078
28.1935
29.4329
30.7756
31.8144
31.4653
28.9693
25.8495
21.7283
16.4922
10.817
5.32986
1.54453
-0.637464
-1.60247
-1.04667
2.15803
7.22122
12.6952
19.9994
29.0561
37.563
44.5774
49.9471
53.4886
56.015
58.3071
60.2293
61.3491
61.9521
62.5749
63.3056
63.9206
64.1929
63.7343
62.2243
59.8141
56.5262
51.82
45.6726
39.2984
33.558
27.7672
22.602
19.9178
18.9061
19.0587
21.5472
25.2522
28.0512
31.4844
36.9016
42.4257
46.8973
50.9476
54.8934
58.6239
61.8163
64.0492
65.389
65.9018
65.3024
63.691
61.3385
58.1954
54.0847
48.8038
42.2265
34.3456
24.7251
14.1548
5.41683
-0.657936
-5.71934
-10.9421
-15.5359
-18.6114
-19.7144
-18.6538
-16.0071
-11.8753
-6.13271
0.776198
7.97107
15.4273
23.4036
31.3932
38.9269
45.0174
49.2747
52.0971
54.3067
55.725
55.5742
54.2615
51.5935
48.1534
44.5249
40.9118
37.3621
34.6264
32.5101
30.6114
29.1976
28.341
27.6104
27.0379
27.614
30.1018
34.2287
38.8334
42.8575
45.951
48.5204
50.8872
52.9611
54.6961
56.3347
57.804
58.8329
59.7016
60.6193
61.3656
61.8397
62.2924
62.555
62.784
62.6885
62.4692
61.9499
61.0105
60.0796
58.9598
57.5077
55.7556
52.3456
49.8145
46.6136
42.876
38.9321
34.2676
27.0435
21.2303
16.0597
9.96483
5.16056
-0.405609
-3.34175
-3.72806
-2.0494
0.599665
3.84987
7.49536
13.4916
20.4888
27.4645
33.581
38.7558
43.7537
47.2429
50.6198
52.3189
53.3088
53.3424
53.0118
51.9336
50.1491
47.6796
45.8458
42.8956
38.9903
34.3937
28.3192
20.216
12.5869
41.3847
40.725
38.1052
35.5426
33.7696
32.3661
31.2505
30.5144
29.5883
28.4761
27.453
26.1567
25.0306
23.912
22.1994
20.8318
20.4806
20.2601
19.4799
19.3324
20.363
21.722
22.8469
24.02
25.9212
28.2629
29.9752
31.1322
32.3885
33.4106
33.0185
30.3186
26.5801
21.7669
15.8808
9.44217
3.25481
-1.04146
-3.59318
-4.80149
-4.42029
-1.17242
4.06922
9.52679
16.9039
26.3981
35.4763
43.0686
49.004
52.8858
55.5853
58.0315
60.1633
61.4394
62.0483
62.7101
63.5859
64.4582
65.0431
64.8258
63.4976
61.2431
58.035
53.4809
47.6603
41.6567
36.3158
31.0249
26.3158
23.9554
23.1773
23.5414
25.8188
29.4414
32.4176
35.6306
40.3348
45.0943
48.8815
52.3236
55.8512
59.306
62.3243
64.4841
65.8461
66.4438
65.863
64.2459
61.8605
58.7688
54.6498
49.4108
42.9354
35.175
25.6301
15.2847
6.53867
0.340088
-4.80753
-9.82019
-14.1064
-17.0138
-18.1451
-17.0341
-14.4346
-10.2903
-4.59157
2.1094
9.18967
16.5716
24.4903
32.4792
39.9706
45.9236
50.1197
53.1112
55.581
57.1678
57.3321
55.9658
53.2357
49.661
46.1259
42.634
39.1804
36.4984
34.3648
32.5365
31.1125
30.2039
29.5936
29.1993
29.8148
32.2058
36.0662
40.2702
43.849
46.5818
48.8982
51.0651
53.0157
54.6757
56.2746
57.7352
58.7564
59.6338
60.6125
61.4004
61.8706
62.3392
62.6232
62.9221
62.8842
62.7538
62.1996
61.2413
60.2887
59.0943
57.5896
55.8103
52.3232
49.6858
46.4423
42.8196
38.5057
34.0867
26.9453
20.5634
15.214
9.32092
4.83255
-1.25523
-3.87884
-4.44802
-2.54859
0.484633
3.59266
7.52947
13.6939
20.6073
27.7176
33.6734
39.1773
43.8842
47.8227
50.8021
52.6699
53.4862
53.7759
53.4942
52.1383
50.4832
48.2448
46.1638
43.1573
39.7989
35.702
29.7843
22.3062
15.3151
41.2599
40.5345
38.1525
35.6605
33.9889
32.5869
31.464
30.8036
29.9545
28.9461
28.1304
26.972
25.8652
24.9154
23.4814
22.1007
21.6576
21.682
21.0966
20.8691
21.848
23.2277
24.4826
25.6608
27.3762
29.7257
31.7181
32.8962
34.0893
35.1633
34.7354
31.8556
27.582
22.0158
15.3702
8.16744
1.37259
-3.44194
-6.31927
-7.68359
-7.46745
-4.26347
1.14966
6.65498
14.1196
23.9734
33.5283
41.6454
48.1272
52.3514
55.2275
57.8297
60.1347
61.5503
62.1771
62.8694
63.8843
65.0198
65.9514