/*--------------------------------*- C++ -*----------------------------------*\
| =========                 |                                                 |
| \\      /  F ield         | OpenFOAM: The Open Source CFD Toolbox           |
|  \\    /   O peration     | Version:  2.4.0                                 |
|   \\  /    A nd           | Web:      www.OpenFOAM.org                      |
|    \\/     M anipulation  |                                                 |
\*---------------------------------------------------------------------------*/
FoamFile
{
    version     2.0;
    format      ascii;
    class       volScalarField;
    location    "0.027";
    object      nuSgs;
}
// * * * * * * * * * * * * * * * * * * * * * * * * * * * * * * * * * * * * * //

dimensions      [0 2 -1 0 0 0 0];

internalField   nonuniform List<scalar> 
17600
(
0.00101288
0.000904114
0.000752222
0.000659084
0.00060815
0.000569634
0.000546033
0.000520119
0.000509776
0.000488737
0.00048438
0.000473807
0.000468129
0.000458131
0.000447283
0.000440637
0.00043945
0.000430539
0.000432213
0.000403552
0.000705559
0.000827583
0.00080294
0.000746352
0.000699823
0.000656935
0.000632195
0.000601674
0.000589662
0.000565742
0.000558892
0.000547024
0.000538969
0.000530477
0.000519122
0.000511657
0.000511555
0.000503315
0.000503568
0.000502078
0.000382198
0.000602408
0.000663776
0.000660645
0.000646557
0.000616202
0.000599437
0.00057329
0.000563485
0.000543871
0.000535137
0.00052543
0.000516431
0.000511167
0.000502435
0.00049368
0.000493553
0.000488342
0.000484082
0.000494284
0.000151489
0.000364127
0.000460439
0.000504826
0.000528646
0.000526219
0.000523917
0.000512367
0.000506898
0.00049614
0.000487454
0.00048188
0.000473812
0.00047092
0.000466941
0.000457967
0.000457042
0.000454652
0.000447641
0.000454296
5.36695e-05
0.000174506
0.000266192
0.000321825
0.000373946
0.000395437
0.000415804
0.000418575
0.000423284
0.000423947
0.000420919
0.000419739
0.000416451
0.000415798
0.00041599
0.000411552
0.000409233
0.000407865
0.000403329
0.00040139
1.74427e-05
7.07974e-05
0.000128699
0.000163141
0.000217708
0.000249543
0.000282145
0.000299695
0.000312959
0.000329117
0.000332276
0.000337869
0.000341049
0.000344337
0.000351333
0.000350788
0.000349385
0.000349177
0.000348825
0.000344796
5.56603e-06
2.67114e-05
5.19765e-05
6.97427e-05
9.95164e-05
0.000129649
0.000156339
0.00018006
0.0001929
0.000218134
0.000227481
0.000238155
0.000248671
0.000255837
0.000270107
0.000275513
0.000276574
0.000278928
0.000281016
0.000279452
2.2798e-06
9.75718e-06
1.90739e-05
2.58503e-05
3.66468e-05
5.54988e-05
6.91411e-05
8.91253e-05
9.84707e-05
0.000118206
0.000128218
0.000138861
0.000152735
0.000160705
0.000177264
0.000188744
0.000192053
0.000198702
0.000202192
0.00020314
1.70377e-06
3.91476e-06
7.53342e-06
9.34969e-06
1.25495e-05
1.97306e-05
2.59529e-05
3.64494e-05
4.15413e-05
5.25711e-05
5.83626e-05
6.48741e-05
7.6896e-05
8.28049e-05
9.50703e-05
0.000106548
0.000110549
0.000119072
0.000122797
0.000123913
1.64198e-06
2.37215e-06
3.97781e-06
4.2706e-06
4.90908e-06
6.74516e-06
9.14858e-06
1.35174e-05
1.54883e-05
1.98379e-05
2.21322e-05
2.46563e-05
3.08935e-05
3.43485e-05
4.15594e-05
4.82488e-05
5.16263e-05
5.8688e-05
6.08224e-05
6.1349e-05
1.60642e-06
2.01392e-06
2.98157e-06
3.05399e-06
3.08426e-06
3.3607e-06
4.05624e-06
5.62361e-06
6.24962e-06
7.55137e-06
8.06731e-06
8.71359e-06
1.0682e-05
1.19921e-05
1.49876e-05
1.80774e-05
2.00654e-05
2.36968e-05
2.4773e-05
2.50918e-05
1.58279e-06
1.9252e-06
2.65616e-06
2.71844e-06
2.69807e-06
2.73064e-06
2.88949e-06
3.47639e-06
3.68917e-06
4.02237e-06
4.12754e-06
4.18909e-06
4.47715e-06
4.74518e-06
5.48017e-06
6.6995e-06
7.48668e-06
8.81039e-06
9.16305e-06
9.07481e-06
1.56441e-06
1.86883e-06
2.39568e-06
2.54139e-06
2.52512e-06
2.51802e-06
2.5673e-06
2.8345e-06
2.98556e-06
3.16435e-06
3.21129e-06
3.19668e-06
3.20949e-06
3.22937e-06
3.32465e-06
3.66529e-06
3.99368e-06
4.29692e-06
4.33163e-06
4.2598e-06
1.54368e-06
1.7627e-06
2.2551e-06
2.41179e-06
2.38563e-06
2.38188e-06
2.40233e-06
2.51136e-06
2.72483e-06
2.81165e-06
2.83818e-06
2.84148e-06
2.8375e-06
2.82852e-06
2.85813e-06
3.03157e-06
3.16065e-06
3.21891e-06
3.22451e-06
3.27371e-06
1.53225e-06
1.71851e-06
2.10589e-06
2.27382e-06
2.26349e-06
2.25903e-06
2.27844e-06
2.39303e-06
2.5154e-06
2.58384e-06
2.60903e-06
2.60202e-06
2.59013e-06
2.58972e-06
2.60864e-06
2.71343e-06
2.80409e-06
2.84155e-06
2.8507e-06
2.90234e-06
1.5232e-06
1.6828e-06
2.03931e-06
2.17956e-06
2.16555e-06
2.16591e-06
2.19183e-06
2.2763e-06
2.3695e-06
2.41522e-06
2.4231e-06
2.41638e-06
2.41177e-06
2.40712e-06
2.41794e-06
2.49826e-06
2.568e-06
2.58854e-06
2.59419e-06
2.60721e-06
1.51609e-06
1.66516e-06
1.96813e-06
2.09805e-06
2.09076e-06
2.09104e-06
2.12004e-06
2.20038e-06
2.25837e-06
2.28483e-06
2.28869e-06
2.28236e-06
2.27362e-06
2.27051e-06
2.28039e-06
2.33824e-06
2.3836e-06
2.4013e-06
2.40073e-06
2.40265e-06
1.51231e-06
1.64616e-06
1.93688e-06
2.04676e-06
2.03567e-06
2.03793e-06
2.07682e-06
2.13096e-06
2.17618e-06
2.19429e-06
2.19319e-06
2.18419e-06
2.17824e-06
2.17368e-06
2.17937e-06
2.22003e-06
2.25872e-06
2.27047e-06
2.26611e-06
2.27607e-06
1.50881e-06
1.63901e-06
1.91655e-06
2.00801e-06
1.99876e-06
2.00126e-06
2.04305e-06
2.09633e-06
2.12544e-06
2.13503e-06
2.13276e-06
2.12262e-06
2.11335e-06
2.10901e-06
2.11445e-06
2.14558e-06
2.17423e-06
2.18422e-06
2.18208e-06
2.18864e-06
1.50795e-06
1.63227e-06
1.9055e-06
1.99295e-06
1.98356e-06
1.9866e-06
2.03098e-06
2.07677e-06
2.09905e-06
2.10839e-06
2.10377e-06
2.09302e-06
2.08615e-06
2.0801e-06
2.08373e-06
2.10807e-06
2.13441e-06
2.14374e-06
2.13872e-06
2.14046e-06
1.50739e-06
1.63358e-06
1.91495e-06
1.99097e-06
1.9829e-06
1.9861e-06
2.02868e-06
2.08047e-06
2.09973e-06
2.10848e-06
2.10422e-06
2.09289e-06
2.08467e-06
2.07843e-06
2.08321e-06
2.10898e-06
2.13262e-06
2.14293e-06
2.1386e-06
2.1457e-06
1.50903e-06
1.63757e-06
1.92608e-06
2.00922e-06
2.00258e-06
2.00417e-06
2.04278e-06
2.10394e-06
2.12407e-06
2.13787e-06
2.13431e-06
2.12147e-06
2.11504e-06
2.10868e-06
2.11411e-06
2.14472e-06
2.17187e-06
2.18442e-06
2.18042e-06
2.19585e-06
1.51145e-06
1.64735e-06
1.95683e-06
2.04573e-06
2.04031e-06
2.04011e-06
2.07019e-06
2.15074e-06
2.17674e-06
2.1983e-06
2.19625e-06
2.18378e-06
2.17845e-06
2.1717e-06
2.17916e-06
2.22083e-06
2.25442e-06
2.26843e-06
2.26546e-06
2.27943e-06
1.51576e-06
1.66224e-06
1.99703e-06
2.10048e-06
2.09744e-06
2.09599e-06
2.11995e-06
2.2192e-06
2.25746e-06
2.29186e-06
2.29222e-06
2.28023e-06
2.27593e-06
2.2699e-06
2.27976e-06
2.33656e-06
2.38015e-06
2.39983e-06
2.40358e-06
2.43618e-06
1.52191e-06
1.68265e-06
2.0537e-06
2.1775e-06
2.17667e-06
2.17352e-06
2.19199e-06
2.30544e-06
2.36709e-06
2.42324e-06
2.42858e-06
2.41622e-06
2.41168e-06
2.40644e-06
2.41971e-06
2.49911e-06
2.55933e-06
2.58723e-06
2.59649e-06
2.60814e-06
1.53069e-06
1.71212e-06
2.12939e-06
2.27905e-06
2.27967e-06
2.27245e-06
2.28714e-06
2.41422e-06
2.50718e-06
2.59642e-06
2.61225e-06
2.59931e-06
2.59365e-06
2.58834e-06
2.60517e-06
2.71458e-06
2.80335e-06
2.84415e-06
2.85286e-06
2.87173e-06
1.54246e-06
1.75568e-06
2.23411e-06
2.40878e-06
2.40845e-06
2.39525e-06
2.4104e-06
2.56354e-06
2.69526e-06
2.82485e-06
2.85476e-06
2.84141e-06
2.83681e-06
2.83308e-06
2.8565e-06
3.01424e-06
3.15963e-06
3.2544e-06
3.28308e-06
3.34511e-06
1.55865e-06
1.82382e-06
2.39114e-06
2.55667e-06
2.5487e-06
2.53904e-06
2.5761e-06
2.83129e-06
2.98172e-06
3.16979e-06
3.21037e-06
3.20431e-06
3.2165e-06
3.23833e-06
3.32404e-06
3.70281e-06
4.00732e-06
4.46794e-06
4.66995e-06
4.73609e-06
1.5842e-06
1.94383e-06
2.64399e-06
2.7173e-06
2.69777e-06
2.71145e-06
2.90011e-06
3.48872e-06
3.66381e-06
4.03669e-06
4.12287e-06
4.21154e-06
4.52056e-06
4.80859e-06
5.38568e-06
6.93563e-06
7.75242e-06
9.48204e-06
1.02582e-05
1.08427e-05
1.62106e-06
2.17231e-06
3.02589e-06
3.03248e-06
3.06773e-06
3.25848e-06
4.22285e-06
5.75597e-06
6.23307e-06
7.60573e-06
8.15341e-06
8.8375e-06
1.08747e-05
1.22294e-05
1.43606e-05
1.89939e-05
2.09977e-05
2.53082e-05
2.69438e-05
2.96483e-05
1.66629e-06
2.56129e-06
3.9626e-06
4.20153e-06
4.98632e-06
6.35341e-06
9.87485e-06
1.3849e-05
1.54514e-05
1.99613e-05
2.23911e-05
2.49178e-05
3.12649e-05
3.48133e-05
4.00722e-05
5.03487e-05
5.37728e-05
6.13061e-05
6.41594e-05
7.00323e-05
1.74347e-06
4.14351e-06
7.35368e-06
9.06983e-06
1.36003e-05
1.82816e-05
2.77256e-05
3.70674e-05
4.1341e-05
5.25501e-05
5.8926e-05
6.53302e-05
7.70089e-05
8.32966e-05
9.40491e-05
0.00010929
0.000113522
0.000123156
0.000126582
0.000134853
2.29238e-06
1.00362e-05
1.86821e-05
2.52299e-05
4.03138e-05
5.17191e-05
7.27638e-05
8.93126e-05
9.77786e-05
0.000118167
0.000129117
0.000139095
0.000152069
0.000162615
0.000176725
0.000191691
0.000194995
0.000203325
0.000205869
0.000213321
5.52092e-06
2.71443e-05
5.09626e-05
6.8901e-05
0.000103936
0.000124689
0.000159776
0.000179245
0.000192558
0.000218342
0.000228755
0.000237163
0.000248595
0.000258337
0.000269359
0.000278313
0.00027905
0.000282941
0.000283763
0.000288385
1.73506e-05
7.17945e-05
0.00012657
0.000163641
0.000218865
0.000248818
0.000283434
0.000298811
0.000313832
0.000328469
0.000333907
0.000336222
0.000341864
0.000345752
0.000351273
0.000352493
0.000350806
0.000351577
0.000350886
0.00035272
5.34808e-05
0.000177128
0.000263729
0.000324174
0.000372689
0.000396338
0.000415558
0.000418506
0.000423923
0.000423616
0.000422368
0.00041789
0.000417547
0.000415874
0.000416008
0.000413057
0.00040949
0.00040756
0.000406007
0.00040586
0.000151168
0.000365081
0.00045915
0.000506838
0.000527369
0.000527098
0.000523707
0.000512888
0.000507164
0.00049488
0.000489551
0.000479086
0.000476016
0.000469024
0.000466849
0.000458539
0.000456717
0.000451891
0.000450855
0.00044866
0.000381672
0.000603286
0.000663372
0.000661614
0.000644699
0.000619353
0.000596744
0.000575406
0.000562815
0.000543368
0.000536335
0.000523143
0.000518396
0.000507549
0.000503686
0.000491677
0.000491721
0.00048469
0.000483878
0.000478475
0.000705404
0.000828474
0.000802613
0.000747991
0.000696823
0.000660355
0.000629042
0.000604249
0.000588063
0.000566164
0.000558995
0.000545602
0.000539827
0.000526148
0.000520993
0.000506849
0.000508979
0.000498188
0.000497971
0.000486599
0.0010129
0.00090512
0.000751317
0.000660579
0.000605678
0.000572308
0.000543579
0.000522208
0.000507922
0.000489762
0.00048347
0.000473167
0.000467984
0.000454153
0.000448602
0.000434416
0.000437246
0.00042379
0.000423231
0.000404348
0.000187439
0.000167449
0.000130269
0.000130511
0.000113247
7.95351e-05
6.02246e-05
4.47446e-05
4.01278e-05
3.94226e-05
4.06964e-05
4.78344e-05
5.36012e-05
5.33201e-05
5.46419e-05
5.93168e-05
8.59473e-05
9.61314e-05
9.11983e-05
7.34222e-05
6.33583e-05
6.09136e-05
7.09763e-05
8.2819e-05
8.28528e-05
7.60347e-05
5.72098e-05
4.05382e-05
2.67911e-05
1.70403e-05
1.18234e-05
9.6837e-06
9.30304e-06
1.00442e-05
1.17105e-05
1.30776e-05
1.36673e-05
1.36062e-05
1.25657e-05
1.16843e-05
1.15898e-05
1.18368e-05
1.2158e-05
1.21217e-05
1.18696e-05
1.17903e-05
1.18637e-05
1.22593e-05
1.27364e-05
1.30824e-05
1.32042e-05
1.31214e-05
1.21713e-05
1.03581e-05
8.61801e-06
7.03808e-06
5.66337e-06
4.50571e-06
3.55414e-06
2.78753e-06
2.17993e-06
1.70417e-06
1.33461e-06
1.04867e-06
8.27522e-07
6.56064e-07
5.22555e-07
4.18034e-07
3.35736e-07
2.70574e-07
2.18714e-07
1.77249e-07
1.43962e-07
1.17146e-07
9.54776e-08
7.79227e-08
6.36687e-08
5.20727e-08
4.26239e-08
3.4914e-08
2.86158e-08
2.34657e-08
1.92511e-08
1.57995e-08
1.29712e-08
1.06525e-08
8.75077e-09
7.19044e-09
5.90981e-09
4.85847e-09
3.99516e-09
3.28609e-09
2.70359e-09
2.22498e-09
1.83166e-09
1.50838e-09
1.24262e-09
1.02412e-09
8.44458e-10
6.96703e-10
5.75176e-10
4.75214e-10
3.92985e-10
3.25341e-10
2.69692e-10
2.23921e-10
1.86287e-10
1.55346e-10
1.29927e-10
1.09081e-10
9.19848e-11
7.80175e-11
6.66763e-11
5.74246e-11
5.00539e-11
4.42606e-11
3.9587e-11
3.63218e-11
3.39541e-11
3.22722e-11
3.20807e-11
3.23707e-11
3.33295e-11
3.49834e-11
3.80493e-11
4.22749e-11
4.6288e-11
5.37048e-11
6.27216e-11
7.0269e-11
8.5861e-11
9.83994e-11
1.22603e-10
1.39855e-10
1.79736e-10
2.04742e-10
2.74947e-10
3.08321e-10
4.39062e-10
4.85937e-10
7.1855e-10
8.19487e-10
1.12267e-09
1.54131e-09
1.72359e-09
3.1379e-09
2.87865e-09
5.52192e-09
4.8759e-09
8.46717e-09
1.08675e-08
1.60477e-08
3.29045e-08
6.56114e-08
1.26678e-07
2.42869e-07
3.79827e-07
6.25121e-07
7.40101e-07
1.00282e-06
1.01785e-06
1.07114e-06
1.15093e-06
1.18838e-06
1.28897e-06
1.32953e-06
1.48696e-06
1.51993e-06
1.64526e-06
1.62962e-06
1.66744e-06
1.62211e-06
1.63913e-06
1.60591e-06
1.64349e-06
1.63761e-06
1.68047e-06
1.74445e-06
1.84484e-06
2.07119e-06
2.15464e-06
2.52795e-06
2.46138e-06
2.69597e-06
2.35782e-06
2.35632e-06
2.20493e-06
2.30831e-06
2.59554e-06
2.75192e-06
3.05424e-06
3.23078e-06
3.73937e-06
4.64105e-06
5.83789e-06
7.7467e-06
1.05781e-05
1.59648e-05
3.39879e-05
0.000141322
0.000234102
0.000209705
0.000179518
0.000161584
0.000159696
0.000140023
0.000117201
8.82215e-05
6.36255e-05
5.19083e-05
5.13503e-05
5.63057e-05
5.69143e-05
5.45814e-05
5.44689e-05
6.93183e-05
0.000102444
0.000108492
0.00010218
8.2114e-05
6.97878e-05
6.87446e-05
7.86934e-05
8.4086e-05
8.17139e-05
6.75888e-05
4.83393e-05
3.31803e-05
2.20676e-05
1.43283e-05
1.00957e-05
8.55627e-06
8.45742e-06
9.85629e-06
1.18948e-05
1.26458e-05
1.2853e-05
1.27635e-05
1.20339e-05
1.12716e-05
1.10011e-05
1.11962e-05
1.19655e-05
1.22452e-05
1.21763e-05
1.20228e-05
1.20149e-05
1.2203e-05
1.24317e-05
1.25705e-05
1.26316e-05
1.26138e-05
1.21414e-05
1.04527e-05
8.71535e-06
7.13769e-06
5.75189e-06
4.5743e-06
3.60498e-06
2.82563e-06
2.20901e-06
1.72676e-06
1.35235e-06
1.06266e-06
8.38551e-07
6.64727e-07
5.29324e-07
4.23292e-07
3.39796e-07
2.7369e-07
2.21091e-07
1.79053e-07
1.45324e-07
1.18169e-07
9.62431e-08
7.8493e-08
6.4092e-08
5.2386e-08
4.28551e-08
3.50843e-08
2.87409e-08
2.35575e-08
1.93182e-08
1.58486e-08
1.3007e-08
1.06786e-08
8.76971e-09
7.20418e-09
5.91976e-09
4.86566e-09
4.00033e-09
3.28979e-09
2.70622e-09
2.22683e-09
1.83295e-09
1.50926e-09
1.24321e-09
1.0245e-09
8.44684e-10
6.96822e-10
5.75222e-10
4.75213e-10
3.92957e-10
3.253e-10
2.69649e-10
2.2388e-10
1.86253e-10
1.55321e-10
1.29912e-10
1.09075e-10
9.19857e-11
7.80235e-11
6.66841e-11
5.74323e-11
5.00602e-11
4.42625e-11
3.95857e-11
3.63156e-11
3.3941e-11
3.22571e-11
3.20595e-11
3.23476e-11
3.33034e-11
3.49552e-11
3.79509e-11
4.23251e-11
4.62977e-11
5.33898e-11
6.29184e-11
7.03655e-11
8.5717e-11
9.81627e-11
1.23059e-10
1.39803e-10
1.81544e-10
2.04838e-10
2.82538e-10
3.09773e-10
4.64281e-10
4.95532e-10
8.0373e-10
8.72683e-10
1.37813e-09
1.70471e-09
2.18529e-09
3.72646e-09
3.94278e-09
7.25034e-09
7.3451e-09
1.34548e-08
1.54613e-08
2.93835e-08
4.47932e-08
7.80951e-08
1.33383e-07
2.06874e-07
3.40389e-07
4.15179e-07
5.74818e-07
6.2408e-07
6.69431e-07
8.43967e-07
9.32898e-07
1.13091e-06
1.21695e-06
1.47449e-06
1.55044e-06
1.77873e-06
1.82632e-06
2.02123e-06
2.04762e-06
2.17899e-06
2.18137e-06
2.29171e-06
2.19711e-06
2.20328e-06
2.04857e-06
2.04007e-06
1.96006e-06
1.99899e-06
2.08451e-06
2.24736e-06
2.63258e-06
2.67613e-06
3.05701e-06
2.7244e-06
2.69396e-06
2.46554e-06
2.61756e-06
3.02472e-06
3.0908e-06
3.34395e-06
3.72131e-06
4.71577e-06
6.37726e-06
8.0166e-06
1.03271e-05
1.43836e-05
3.51266e-05
0.000119407
0.00024314
0.00021431
0.000199518
0.000173967
0.00017179
0.000166518
0.000155085
0.000146248
0.000118825
9.43428e-05
8.86407e-05
8.83264e-05
8.06883e-05
6.8745e-05
6.75905e-05
9.71769e-05
0.000111328
0.000112121
0.000105466
8.79456e-05
8.22786e-05
8.57744e-05
9.10532e-05
8.86921e-05
7.9018e-05
5.66507e-05
3.86916e-05
2.58934e-05
1.72788e-05
1.17325e-05
8.76218e-06
7.86763e-06
7.89222e-06
9.86188e-06
1.20267e-05
1.23696e-05
1.22644e-05
1.20656e-05
1.16557e-05
1.11987e-05
1.08601e-05
1.08202e-05
1.14283e-05
1.22269e-05
1.25294e-05
1.24941e-05
1.24089e-05
1.24028e-05
1.24589e-05
1.24772e-05
1.24624e-05
1.23563e-05
1.18881e-05
1.03722e-05
8.70393e-06
7.15368e-06
5.78332e-06
4.61445e-06
3.64389e-06
2.85775e-06
2.23444e-06
1.74683e-06
1.36822e-06
1.07521e-06
8.48421e-07
6.72434e-07
5.35287e-07
4.27865e-07
3.43275e-07
2.7632e-07
2.23069e-07
1.80536e-07
1.46432e-07
1.18996e-07
9.68589e-08
7.89513e-08
6.44329e-08
5.26394e-08
4.30433e-08
3.5224e-08
2.88446e-08
2.36344e-08
1.93752e-08
1.58908e-08
1.30383e-08
1.07017e-08
8.78684e-09
7.21682e-09
5.92906e-09
4.87248e-09
4.00532e-09
3.29341e-09
2.70881e-09
2.22867e-09
1.83423e-09
1.51014e-09
1.24381e-09
1.0249e-09
8.44957e-10
6.97006e-10
5.75345e-10
4.75292e-10
3.93004e-10
3.25322e-10
2.69652e-10
2.23868e-10
1.86228e-10
1.55285e-10
1.29866e-10
1.0902e-10
9.19236e-11
7.79558e-11
6.66135e-11
5.73602e-11
4.99862e-11
4.41891e-11
3.95149e-11
3.62452e-11
3.38699e-11
3.21869e-11
3.1989e-11
3.22763e-11
3.32277e-11
3.4892e-11
3.77838e-11
4.23148e-11
4.62916e-11
5.30068e-11
6.29544e-11
7.04036e-11
8.5577e-11
9.77927e-11
1.23433e-10
1.39619e-10
1.83463e-10
2.04406e-10
2.91069e-10
3.10797e-10
4.97574e-10
5.09075e-10
9.21142e-10
9.61569e-10
1.69259e-09
2.11586e-09
2.74941e-09
5.29523e-09
5.18642e-09
1.04007e-08
9.9799e-09
1.44017e-08
1.86623e-08
2.10431e-08
3.40386e-08
4.52671e-08
6.22578e-08
9.10924e-08
1.20753e-07
1.28872e-07
2.24619e-07
2.85836e-07
4.39508e-07
5.20295e-07
7.53875e-07
8.04759e-07
9.78457e-07
1.05942e-06
1.25223e-06
1.33409e-06
1.55754e-06
1.66049e-06
1.91003e-06
2.00676e-06
2.28111e-06
2.34695e-06
2.66932e-06
2.7008e-06
2.95179e-06
2.78779e-06
2.78685e-06
2.49871e-06
2.46339e-06
2.34728e-06
2.44256e-06
2.68199e-06
2.83787e-06
3.40685e-06
3.06578e-06
3.21936e-06
2.90152e-06
3.07592e-06
3.79872e-06
3.71483e-06
3.89615e-06
4.53027e-06
5.84085e-06
7.68981e-06
1.11605e-05
1.38831e-05
3.4498e-05
9.68705e-05
0.000231591
0.000209274
0.000199222
0.000180307
0.0001714
0.000169397
0.000162224
0.00015787
0.000153341
0.000143134
0.00013242
0.000126725
0.000119454
0.000112651
0.000114913
0.000120756
0.000117406
0.000112816
0.000106787
0.00010139
9.95875e-05
9.8188e-05
9.53888e-05
8.78259e-05
6.3678e-05
4.20711e-05
2.68915e-05
1.71868e-05
1.20816e-05
9.59893e-06
7.96743e-06
7.26386e-06
7.46292e-06
9.77829e-06
1.17608e-05
1.20079e-05
1.17124e-05
1.13345e-05
1.13335e-05
1.12298e-05
1.08967e-05
1.06787e-05
1.07727e-05
1.17254e-05
1.26596e-05
1.30495e-05
1.30437e-05
1.29167e-05
1.27769e-05
1.26684e-05
1.25446e-05
1.23051e-05
1.15147e-05
1.00779e-05
8.56867e-06
7.10414e-06
5.77325e-06
4.6216e-06
3.66064e-06
2.87908e-06
2.25503e-06
1.76457e-06
1.383e-06
1.08731e-06
8.58222e-07
6.80282e-07
5.41496e-07
4.32714e-07
3.47017e-07
2.79175e-07
2.25228e-07
1.82155e-07
1.47639e-07
1.19892e-07
9.7522e-08
7.9441e-08
6.4794e-08
5.29054e-08
4.32392e-08
3.53682e-08
2.89507e-08
2.37124e-08
1.94326e-08
1.5933e-08
1.30693e-08
1.07244e-08
8.80351e-09
7.22905e-09
5.93803e-09
4.87907e-09
4.01016e-09
3.29698e-09
2.71145e-09
2.23062e-09
1.83568e-09
1.51122e-09
1.2446e-09
1.02548e-09
8.45364e-10
6.97289e-10
5.75531e-10
4.75402e-10
3.93056e-10
3.2533e-10
2.69625e-10
2.23815e-10
1.86158e-10
1.55204e-10
1.29779e-10
1.08929e-10
9.1831e-11
7.78653e-11
6.65238e-11
5.72705e-11
4.98973e-11
4.41024e-11
3.94293e-11
3.61557e-11
3.37828e-11
3.20989e-11
3.18969e-11
3.21819e-11
3.3124e-11
3.48034e-11
3.76022e-11
4.22489e-11
4.61886e-11
5.36023e-11
6.11014e-11
7.09199e-11
8.58528e-11
9.67756e-11
1.23397e-10
1.39696e-10
1.85502e-10
2.03203e-10
3.01243e-10
3.12096e-10
5.41137e-10
5.2643e-10
1.10885e-09
1.08525e-09
2.42941e-09
2.90552e-09
4.44817e-09
8.52153e-09
9.68371e-09
2.29529e-08
2.29182e-08
4.4003e-08
5.35053e-08
7.3304e-08
1.18223e-07
1.56455e-07
2.1003e-07
3.27838e-07
3.40636e-07
4.77338e-07
5.06308e-07
6.20043e-07
6.62238e-07
7.91909e-07
7.99073e-07
8.42846e-07
8.60924e-07
8.97132e-07
9.28962e-07
9.99512e-07
1.0591e-06
1.11527e-06
1.26605e-06
1.40831e-06
1.58666e-06
1.95577e-06
2.16976e-06
2.62839e-06
2.7945e-06
3.33672e-06
3.37247e-06
3.69474e-06
3.39456e-06
3.26445e-06
2.80517e-06
2.82511e-06
2.87672e-06
3.09221e-06
3.77751e-06
3.52349e-06
3.5101e-06
3.25432e-06
3.50424e-06
3.99377e-06
4.13891e-06
4.85209e-06
6.63528e-06
7.49706e-06
1.28066e-05
1.40928e-05
3.2938e-05
7.82417e-05
0.000208649
0.000194011
0.00018653
0.000174549
0.000162247
0.000161394
0.000160221
0.000155811
0.000154306
0.000152246
0.000147434
0.000141808
0.000138188
0.000135896
0.0001348
0.000129407
0.00010845
9.84623e-05
0.000100016
0.00010255
0.000102164
9.8963e-05
9.15911e-05
6.74831e-05
4.36486e-05
2.80338e-05
1.80708e-05
1.20985e-05
9.47102e-06
8.66183e-06
7.77431e-06
7.07592e-06
7.27646e-06
9.39741e-06
1.10293e-05
1.1397e-05
1.11536e-05
1.09667e-05
1.11033e-05
1.12682e-05
1.1168e-05
1.06749e-05
1.04757e-05
1.07792e-05
1.22589e-05
1.33901e-05
1.38712e-05
1.38884e-05
1.36787e-05
1.3387e-05
1.30479e-05
1.24104e-05
1.12372e-05
9.82663e-06
8.37549e-06
6.98766e-06
5.71653e-06
4.60008e-06
3.65703e-06
2.88438e-06
2.26528e-06
1.77624e-06
1.39391e-06
1.09683e-06
8.66219e-07
6.8684e-07
5.4678e-07
4.36909e-07
3.50304e-07
2.81722e-07
2.27181e-07
1.8364e-07
1.4876e-07
1.20733e-07
9.81502e-08
7.99084e-08
6.51408e-08
5.31622e-08
4.3429e-08
3.55084e-08
2.90542e-08
2.37888e-08
1.9489e-08
1.59746e-08
1.31e-08
1.07472e-08
8.82029e-09
7.24146e-09
5.94721e-09
4.88584e-09
4.01515e-09
3.30064e-09
2.71413e-09
2.23256e-09
1.83707e-09
1.51219e-09
1.24527e-09
1.02592e-09
8.45636e-10
6.97441e-10
5.75599e-10
4.75412e-10
3.93027e-10
3.25277e-10
2.69558e-10
2.23738e-10
1.86073e-10
1.55115e-10
1.29686e-10
1.08831e-10
9.17294e-11
7.77615e-11
6.64186e-11
5.7164e-11
4.97884e-11
4.39916e-11
3.93211e-11
3.60446e-11
3.36671e-11
3.19833e-11
3.1779e-11
3.20599e-11
3.29675e-11
3.45786e-11
3.76527e-11
4.20437e-11
4.59336e-11
5.3435e-11
6.10915e-11
7.05216e-11
8.57335e-11
9.64559e-11
1.23607e-10
1.39198e-10
1.8755e-10
2.02431e-10
3.12434e-10
3.14106e-10
5.879e-10
5.45038e-10
1.34181e-09
1.23943e-09
3.51235e-09
3.88963e-09
7.8711e-09
1.2119e-08
1.74283e-08
3.40046e-08
4.04735e-08
7.7767e-08
9.11614e-08
1.51109e-07
1.77369e-07
2.43402e-07
2.79663e-07
3.44862e-07
4.64186e-07
5.66652e-07
7.84372e-07
8.33726e-07
9.40269e-07
9.50657e-07
9.62504e-07
1.02623e-06
1.03174e-06
1.06481e-06
1.06802e-06
1.11275e-06
1.1277e-06
1.19651e-06
1.21724e-06
1.28131e-06
1.30937e-06
1.40635e-06
1.50632e-06
1.72041e-06
2.11412e-06
2.48676e-06
3.21665e-06
3.44452e-06
4.20122e-06
4.16945e-06
4.39626e-06
3.7429e-06
3.49369e-06
3.2507e-06
3.45125e-06
4.12476e-06
3.96531e-06
4.53663e-06
3.94156e-06
4.03744e-06
4.31596e-06
4.8475e-06
6.92137e-06
7.50715e-06
1.48839e-05
1.49189e-05
3.09023e-05
6.39224e-05
0.000179859
0.000169506
0.000164493
0.000157577
0.000145889
0.000144248
0.000145208
0.000144556
0.000145363
0.000145731
0.000144344
0.000139752
0.000137717
0.00013626
0.000133802
0.000126304
0.000102442
8.47475e-05
8.22817e-05
8.40628e-05
8.36658e-05
8.02664e-05
6.36133e-05
4.25371e-05
2.81564e-05
1.86327e-05
1.24352e-05
9.12464e-06
8.10094e-06
8.12344e-06
7.78669e-06
7.0622e-06
7.16463e-06
8.97985e-06
1.00198e-05
1.0382e-05
1.04413e-05
1.04698e-05
1.07891e-05
1.12484e-05
1.12347e-05
1.07837e-05
1.03701e-05
1.0353e-05
1.12705e-05
1.31283e-05
1.41141e-05
1.4421e-05
1.44275e-05
1.42989e-05
1.38878e-05
1.27316e-05
1.13123e-05
9.80633e-06
8.31103e-06
6.90558e-06
5.64573e-06
4.55511e-06
3.6346e-06
2.8767e-06
2.26593e-06
1.78156e-06
1.40137e-06
1.10461e-06
8.73386e-07
6.93017e-07
5.51888e-07
4.41017e-07
3.53541e-07
2.84233e-07
2.29106e-07
1.85102e-07
1.49863e-07
1.2156e-07
9.87674e-08
8.03678e-08
6.54818e-08
5.3415e-08
4.36162e-08
3.56469e-08
2.91566e-08
2.38644e-08
1.95448e-08
1.60158e-08
1.31304e-08
1.07695e-08
8.83674e-09
7.25353e-09
5.95605e-09
4.89229e-09
4.01985e-09
3.30405e-09
2.71659e-09
2.23432e-09
1.83832e-09
1.51308e-09
1.24589e-09
1.02635e-09
8.45929e-10
6.97631e-10
5.75707e-10
4.75456e-10
3.93024e-10
3.25239e-10
2.69491e-10
2.23649e-10
1.85968e-10
1.55001e-10
1.29564e-10
1.08702e-10
9.15974e-11
7.7631e-11
6.62864e-11
5.70285e-11
4.96525e-11
4.38587e-11
3.91893e-11
3.59067e-11
3.35319e-11
3.18505e-11
3.1642e-11
3.19207e-11
3.28394e-11
3.44379e-11
3.77756e-11
4.09651e-11
4.70921e-11
5.21738e-11
6.14399e-11
7.0231e-11
8.52724e-11
9.58661e-11
1.23849e-10
1.38791e-10
1.89596e-10
2.01614e-10
3.24147e-10
3.17847e-10
6.45662e-10
5.76517e-10
1.65251e-09
1.50235e-09
4.88306e-09
5.4048e-09
1.18357e-08
1.81176e-08
2.59741e-08
5.08686e-08
5.92178e-08
1.03495e-07
1.27453e-07
1.66139e-07
2.66604e-07
3.02852e-07
4.69675e-07
5.34855e-07
5.78977e-07
7.17456e-07
7.26756e-07
7.32242e-07
7.91614e-07
8.60773e-07
9.59658e-07
1.02563e-06
1.19069e-06
1.23076e-06
1.36301e-06
1.40794e-06
1.53996e-06
1.55487e-06
1.64158e-06
1.626e-06
1.69849e-06
1.65731e-06
1.66346e-06
1.68121e-06
1.77107e-06
1.86783e-06
2.15635e-06
2.51377e-06
3.11714e-06
4.12696e-06
4.30907e-06
5.13217e-06
4.64564e-06
4.39844e-06
3.72948e-06
3.94804e-06
4.11175e-06
4.41563e-06
4.99448e-06
4.82585e-06
5.46493e-06
5.31587e-06
7.76769e-06
8.00705e-06
1.99325e-05
1.71752e-05
2.95627e-05
5.34019e-05
0.000147176
0.000139402
0.000137192
0.000134002
0.000123882
0.000121312
0.000122017
0.000122396
0.000123284
0.000126499
0.000127142
0.000125361
0.000122992
0.000121958
0.000118812
0.000111027
8.89284e-05
6.96011e-05
5.98711e-05
5.56862e-05
5.22972e-05
4.71344e-05
3.558e-05
2.54404e-05
1.77749e-05
1.26464e-05
9.34261e-06
7.7393e-06
7.49371e-06
7.70476e-06
7.7248e-06
7.12453e-06
7.04229e-06
8.38956e-06
9.19485e-06
9.4296e-06
9.60451e-06
9.87672e-06
1.04414e-05
1.10733e-05
1.11437e-05
1.08005e-05
1.03538e-05
1.02575e-05
1.04295e-05
1.19008e-05
1.35424e-05
1.43148e-05
1.44949e-05
1.44517e-05
1.42118e-05
1.33819e-05
1.17069e-05
9.99075e-06
8.36912e-06
6.90382e-06
5.61924e-06
4.52204e-06
3.60795e-06
2.86078e-06
2.25934e-06
1.78124e-06
1.40469e-06
1.10962e-06
8.78807e-07
6.98123e-07
5.56344e-07
4.44727e-07
3.56532e-07
2.86592e-07
2.30935e-07
1.86503e-07
1.50926e-07
1.22361e-07
9.93671e-08
8.08152e-08
6.58145e-08
5.36617e-08
4.37989e-08
3.5782e-08
2.92563e-08
2.3938e-08
1.95991e-08
1.60558e-08
1.31598e-08
1.07912e-08
8.85269e-09
7.26526e-09
5.96467e-09
4.89862e-09
4.02448e-09
3.30745e-09
2.71906e-09
2.23612e-09
1.83962e-09
1.514e-09
1.24653e-09
1.02677e-09
8.46189e-10
6.97771e-10
5.75759e-10
4.75443e-10
3.92965e-10
3.25149e-10
2.6938e-10
2.23521e-10
1.85831e-10
1.54857e-10
1.29417e-10
1.08552e-10
9.14449e-11
7.7477e-11
6.61314e-11
5.68741e-11
4.94975e-11
4.3702e-11
3.90353e-11
3.57508e-11
3.33741e-11
3.16911e-11
3.14781e-11
3.17557e-11
3.26848e-11
3.42892e-11
3.75859e-11
4.07244e-11
4.69006e-11
5.1985e-11
6.17363e-11
6.95048e-11
8.53946e-11
9.6482e-11
1.23632e-10
1.37412e-10
1.91852e-10
2.02061e-10
3.36033e-10
3.22072e-10
7.22819e-10
6.31747e-10
2.13901e-09
1.96073e-09
7.52387e-09
8.3003e-09
2.25077e-08
3.19499e-08
5.34107e-08
9.16232e-08
1.27675e-07
2.00423e-07
2.83509e-07
3.49101e-07
5.82455e-07
5.8602e-07
7.66006e-07
7.76018e-07
7.61231e-07
7.85592e-07
8.16858e-07
8.86504e-07
9.13013e-07
1.12624e-06
1.12956e-06
1.25039e-06
1.26763e-06
1.34477e-06
1.38033e-06
1.55069e-06
1.58266e-06
1.73862e-06
1.79336e-06
2.11764e-06
2.15742e-06
2.4389e-06
2.38089e-06
2.5854e-06
2.35927e-06
2.36012e-06
2.28178e-06
2.34872e-06
2.48424e-06
2.92599e-06
3.66858e-06
4.34872e-06
5.60233e-06
5.43952e-06
5.593e-06
4.68841e-06
4.62085e-06
4.91019e-06
5.40476e-06
5.17046e-06
5.97557e-06
5.96449e-06
1.17252e-05
9.38453e-06
2.27135e-05
1.89986e-05
2.65461e-05
4.56111e-05
0.000107664
0.000102385
0.000101912
0.000101712
9.62493e-05
9.31249e-05
9.36533e-05
9.44057e-05
9.5127e-05
9.80689e-05
9.9963e-05
9.92803e-05
9.64969e-05
9.48108e-05
9.16587e-05
8.52288e-05
6.52292e-05
4.63346e-05
3.59864e-05
3.10025e-05
2.88281e-05
2.57325e-05
2.06861e-05
1.56128e-05
1.14974e-05
9.22272e-06
7.90799e-06
7.19479e-06
7.00893e-06
7.0768e-06
7.22448e-06
7.1581e-06
7.08741e-06
7.80005e-06
8.62692e-06
8.8257e-06
9.19833e-06
9.7312e-06
1.01314e-05
1.05412e-05
1.06978e-05
1.06267e-05
1.03357e-05
1.02293e-05
1.02638e-05
1.07692e-05
1.19851e-05
1.30121e-05
1.3677e-05
1.39517e-05
1.39648e-05
1.35772e-05
1.20398e-05
1.02202e-05
8.50309e-06
6.96419e-06
5.63422e-06
4.51632e-06
3.59591e-06
2.85007e-06
2.253e-06
1.77939e-06
1.40613e-06
1.11301e-06
8.83035e-07
7.02426e-07
5.60287e-07
4.48113e-07
3.59318e-07
2.88817e-07
2.32676e-07
1.87844e-07
1.51948e-07
1.23133e-07
9.99471e-08
8.12487e-08
6.61375e-08
5.39017e-08
4.39768e-08
3.59137e-08
2.93538e-08
2.401e-08
1.96523e-08
1.60951e-08
1.31888e-08
1.08125e-08
8.86839e-09
7.27682e-09
5.97316e-09
4.90483e-09
4.02901e-09
3.31073e-09
2.72143e-09
2.2378e-09
1.84079e-09
1.5148e-09
1.24706e-09
1.0271e-09
8.4637e-10
6.97849e-10
5.75762e-10
4.7539e-10
3.92873e-10
3.25033e-10
2.69244e-10
2.2337e-10
1.85668e-10
1.54688e-10
1.29243e-10
1.08373e-10
9.12634e-11
7.7298e-11
6.59525e-11
5.66923e-11
4.93147e-11
4.35228e-11
3.88573e-11
3.55658e-11
3.31898e-11
3.15092e-11
3.12933e-11
3.15697e-11
3.25026e-11
3.41142e-11
3.74119e-11
4.05005e-11
4.65851e-11
5.17066e-11
6.15306e-11
6.92153e-11
8.49788e-11
9.60416e-11
1.2338e-10
1.36813e-10
1.92809e-10
2.02082e-10
3.46246e-10
3.31155e-10
8.02276e-10
7.20667e-10
2.6719e-09
2.58081e-09
1.05768e-08
1.17788e-08
3.73455e-08
4.86027e-08
1.0237e-07
1.46945e-07
2.43398e-07
3.13734e-07
5.7205e-07
5.71888e-07
1.14906e-06
9.62059e-07
1.7051e-06
1.45782e-06
1.78289e-06
1.67413e-06
2.31945e-06
2.13848e-06
2.7724e-06
2.48988e-06
2.40887e-06
2.30624e-06
2.32639e-06
2.11907e-06
2.10506e-06
2.06055e-06
1.96509e-06
1.93778e-06
1.96961e-06
2.06758e-06
2.13076e-06
2.25309e-06
2.53127e-06
2.65049e-06
3.00231e-06
2.8753e-06
3.05673e-06
2.78077e-06
2.97776e-06
2.94216e-06
3.10382e-06
3.41854e-06
4.55151e-06
5.13879e-06
6.5133e-06
6.327e-06
5.63672e-06
5.30298e-06
7.97775e-06
6.6173e-06
1.11076e-05
8.49991e-06
1.44938e-05
1.17024e-05
3.48082e-05
2.34939e-05
2.5437e-05
3.86296e-05
6.53782e-05
6.39994e-05
6.53202e-05
6.6158e-05
6.38971e-05
6.01362e-05
5.99221e-05
6.07522e-05
6.15152e-05
6.35032e-05
6.71599e-05
6.70728e-05
6.56398e-05
6.46008e-05
6.26897e-05
5.58526e-05
4.03652e-05
2.75589e-05
2.00168e-05
1.67502e-05
1.53576e-05
1.3923e-05
1.22894e-05
9.96743e-06
8.05021e-06
7.4848e-06
7.29792e-06
6.99727e-06
6.48505e-06
6.1688e-06
6.3628e-06
7.25344e-06
7.39973e-06
7.57811e-06
8.2557e-06
8.51037e-06
9.06811e-06
9.77654e-06
9.79738e-06
9.59787e-06
9.68558e-06
9.97627e-06
1.01018e-05
1.01396e-05
1.02405e-05
1.07215e-05
1.16487e-05
1.22996e-05
1.26723e-05
1.28811e-05