/*--------------------------------*- C++ -*----------------------------------*\
| =========                 |                                                 |
| \\      /  F ield         | OpenFOAM: The Open Source CFD Toolbox           |
|  \\    /   O peration     | Version:  2.4.0                                 |
|   \\  /    A nd           | Web:      www.OpenFOAM.org                      |
|    \\/     M anipulation  |                                                 |
\*---------------------------------------------------------------------------*/
FoamFile
{
    version     2.0;
    format      ascii;
    class       volScalarField;
    location    "0.027";
    object      p;
}
// * * * * * * * * * * * * * * * * * * * * * * * * * * * * * * * * * * * * * //

dimensions      [0 2 -2 0 0 0 0];

internalField   nonuniform List<scalar> 
17600
(
76.3999
60.7232
56.343
55.1659
54.2364
53.2762
52.3677
51.6513
50.9264
50.1351
49.3876
48.7624
48.0702
47.3891
46.7341
46.1493
45.7163
45.4309
44.9337
44.6247
74.4915
60.773
56.3837
55.1757
54.2394
53.2775
52.3675
51.6512
50.9277
50.135
49.3871
48.7621
48.0711
47.3895
46.7344
46.1489
45.7157
45.4295
44.9438
44.6374
73.0776
61.0289
56.5277
55.2137
54.2532
53.2825
52.3688
51.6531
50.9305
50.1352
49.3864
48.7615
48.0711
47.3898
46.7344
46.1475
45.7151
45.4252
44.9697
44.6613
72.1011
61.3705
56.748
55.2783
54.2824
53.2977
52.3767
51.6605
50.9361
50.1378
49.3875
48.7608
48.0695
47.3892
46.7349
46.1456
45.7145
45.416
45.0074
44.6925
71.2787
61.7059
57.012
55.3597
54.3244
53.3256
52.3955
51.6771
50.9467
50.1458
49.393
48.7604
48.0663
47.3868
46.7377
46.1452
45.7138
45.402
45.0518
44.7333
70.5038
62.0001
57.29
55.4411
54.3657
53.3604
52.4246
51.7029
50.9628
50.1607
49.4049
48.7608
48.0618
47.3827
46.7438
46.1492
45.7114
45.3859
45.0838
44.8099
69.775
62.2484
57.5664
55.5176
54.3974
53.3916
52.4586
51.7351
50.9821
50.1811
49.4233
48.7618
48.0564
47.3768
46.7531
46.16
45.7062
45.3711
45.0887
44.9115
69.1015
62.456
57.8351
55.5899
54.4186
53.4148
52.491
51.7696
51.003
50.2039
49.4452
48.7623
48.0502
47.3687
46.7645
46.1775
45.6996
45.3552
45.094
45.0967
68.4908
62.6225
58.0883
55.6673
54.43
53.4288
52.5216
51.8043
51.023
50.2279
49.4685
48.7602
48.0433
47.3598
46.7762
46.1983
45.6927
45.3393
45.1102
45.316
67.9428
62.7509
58.3233
55.7483
54.4366
53.4356
52.545
51.8393
51.0442
50.2489
49.4906
48.7576
48.0359
47.3499
46.7882
46.2205
45.6852
45.3259
45.1379
45.5205
67.4571
62.8424
58.5389
55.8357
54.4367
53.4352
52.5653
51.8721
51.0638
50.2698
49.5104
48.7518
48.03
47.3421
46.7986
46.2412
45.6792
45.3166
45.1734
45.6877
67.0295
62.9024
58.7354
55.9267
54.4336
53.4299
52.58
51.904
51.0838
50.2866
49.5282
48.7471
48.0242
47.3343
46.8081
46.2616
45.6747
45.3106
45.2098
45.8202
66.6581
62.9375
58.9115
56.0207
54.428
53.4191
52.5915
51.9339
51.1022
50.3011
49.5447
48.7416
48.0193
47.3289
46.8152
46.2805
45.6734
45.3076
45.2442
45.927
66.3404
62.9529
59.0668
56.1136
54.4208
53.4064
52.6007
51.9603
51.1193
50.3135
49.5588
48.7366
48.0157
47.3241
46.8205
46.2994
45.6741
45.306
45.2754
46.0153
66.0724
62.9587
59.2007
56.1964
54.4156
53.3929
52.6063
51.9841
51.1355
50.3228
49.5717
48.733
48.0117
47.3207
46.8253
46.3172
45.6762
45.3061
45.3045
46.0864
65.8527
62.9581
59.3107
56.2688
54.4115
53.3797
52.6116
52.0037
51.1494
50.3311
49.5825
48.729
48.0086
47.3196
46.8281
46.333
45.6812
45.307
45.3302
46.14
65.6788
62.9556
59.3978
56.3273
54.4098
53.3689
52.6142
52.0193
51.1625
50.3361
49.5911
48.7272
48.0055
47.3192
46.8305
46.3479
45.6866
45.3079
45.352
46.1842
65.5506
62.9517
59.4608
56.3733
54.4087
53.3594
52.6165
52.0305
51.1726
50.34
49.5982
48.7255
48.0027
47.3212
46.8317
46.3602
45.6942
45.3101
45.3714
46.2178
65.4657
62.9482
59.5018
56.4051
54.4082
53.3531
52.6175
52.0368
51.1814
50.3416
49.6027
48.7256
48.0004
47.324
46.8324
46.371
45.7026
45.3125
45.3876
46.2416
65.4242
62.9457
59.5206
56.4227
54.4076
53.3498
52.6185
52.0386
51.1875
50.3419
49.6055
48.7262
47.9983
47.3286
46.8321
46.3794
45.7118
45.3159
45.4
46.2623
65.4251
62.945
59.5185
56.4251
54.4063
53.3505
52.6191
52.0355
51.1916
50.3403
49.6059
48.7283
47.9966
47.334
46.8317
46.3858
45.7219
45.3201
45.4089
46.2741
65.4688
62.946
59.4947
56.4128
54.4047
53.3544
52.6196
52.0277
51.1929
50.3372
49.6045
48.7312
47.9954
47.3408
46.8313
46.3896
45.7324
45.3254
45.4141
46.283
65.5554
62.9481
59.4494
56.386
54.4029
53.3615
52.6197
52.0152
51.192
50.3326
49.6008
48.735
47.9952
47.3482
46.8306
46.3912
45.7432
45.3321
45.4168
46.2856
65.6859
62.9506
59.3817
56.3454
54.4015
53.3712
52.6193
51.9983
51.1886
50.3265
49.5949
48.7397
47.9958
47.3562
46.8301
46.3907
45.7541
45.3403
45.4164
46.2838
65.8613
62.952
59.2908
56.2914
54.4011
53.3831
52.6182
51.9772
51.1826
50.3188
49.5869
48.7452
47.9976
47.3646
46.8296
46.388
45.7652
45.351
45.4132
46.2706
66.0831
62.9508
59.1765
56.2244
54.4025
53.3962
52.6159
51.9523
51.1742
50.3095
49.5765
48.7513
48.0009
47.3731
46.8291
46.3829
45.777
45.3638
45.4059
46.2541
66.3526
62.9445
59.0388
56.1457
54.4057
53.4098
52.612
51.924
51.1637
50.2989
49.5636
48.7578
48.0056
47.3813
46.8293
46.3757
45.7889
45.3795
45.3964
46.2288
66.6723
62.9279
58.879
56.0574
54.4105
53.4228
52.6062
51.8924
51.1507
50.2871
49.5488
48.7649
48.0116
47.3886
46.8299
46.3664
45.8013
45.3989
45.385
46.1923
67.0452
62.8935
58.6985
55.9665
54.4148
53.433
52.5981
51.8583
51.1351
50.2735
49.5318
48.7727
48.0197
47.3952
46.8303
46.3549
45.8152
45.4215
45.3736
46.142
67.4744
62.8337
58.4979
55.8785
54.4167
53.4384
52.5871
51.8226
51.1174
50.2581
49.5118
48.7811
48.0294
47.4011
46.8309
46.3406
45.8305
45.4485
45.3627
46.0707
67.9626
62.7424
58.2775
55.795
54.415
53.4377
52.5724
51.7856
51.098
50.2411
49.4886
48.7897
48.0407
47.4062
46.8318
46.3231
45.8467
45.4794
45.3605
45.9756
68.5125
62.6153
58.0373
55.7163
54.4087
53.4294
52.5537
51.7478
51.0772
50.223
49.4625
48.7974
48.0534
47.4105
46.8329
46.3032
45.864
45.5116
45.3722
45.8552
69.1254
62.4506
57.7785
55.6425
54.3968
53.412
52.5307
51.7099
51.055
50.2048
49.4349
48.8029
48.0665
47.4141
46.8338
46.283
45.8815
45.5429
45.3982
45.725
69.799
62.2477
57.5051
55.5711
54.3774
53.3854
52.5033
51.6736
51.0323
50.1871
49.409
48.806
48.0785
47.4169
46.8336
46.2663
45.8977
45.5716
45.4312
45.6036
70.5275
62.003
57.2253
55.4956
54.3479
53.3504
52.474
51.6412
51.0104
50.1707
49.3884
48.8073
48.0883
47.419
46.8333
46.2554
45.912
45.5957
45.4633
45.5128
71.3009
61.7134
56.9456
55.4136
54.308
53.313
52.4474
51.6158
50.9921
50.1585
49.3756
48.808
48.0958
47.421
46.8335
46.2505
45.9239
45.6143
45.4857
45.4563
72.1218
61.3814
56.6799
55.3312
54.2673
53.2841
52.4292
51.6004
50.9801
50.1517
49.3705
48.8086
48.1007
47.4228
46.8341
46.2501
45.9324
45.6272
45.4964
45.4255
73.0963
61.0421
56.4594
55.2655
54.2385
53.2691
52.4207
51.5943
50.9739
50.1489
49.3706
48.809
48.1029
47.4239
46.8346
46.2522
45.9377
45.6345
45.4996
45.4194
74.5086
60.7869
56.3157
55.227
54.2245
53.2649
52.4182
51.5934
50.9712
50.1476
49.3726
48.809
48.103
47.4244
46.8344
46.2543
45.94
45.6371
45.5002
45.4347
76.4163
60.7371
56.2749
55.2176
54.2208
53.2646
52.4177
51.5935
50.9708
50.1465
49.3743
48.8091
48.1019
47.4245
46.8338
46.2552
45.9409
45.6368
45.5
45.4817
46.614
47.6972
47.3155
46.8526
47.3135
46.6662
45.5097
44.2833
42.2278
39.0608
35.4389
31.7731
27.3895
21.9779
16.0485
10.9719
8.23413
6.0194
4.47846
4.05279
4.77308
6.32358
8.28523
10.8895
15.0014
20.9175
27.5714
33.8802
39.1525
43.3922
47.6929
51.9821
55.5787
58.8765
61.8697
64.2593
66.2439
67.8924
69.1717
70.2017
71.0692
71.7823
72.3477
72.7878
73.1344
73.4188
73.6598
73.8631
74.0314
74.1687
74.28
74.3696
74.4413
74.498
74.5426
74.5773
74.6038
74.6238
74.6384
74.6486
74.6552
74.6589
74.6601
74.6593
74.6569
74.653
74.6481
74.6421
74.6354
74.628
74.62
74.6116
74.6028
74.5936
74.5842
74.5745
74.5647
74.5546
74.5445
74.5342
74.5238
74.5133
74.5027
74.4921
74.4814
74.4707
74.46
74.4492
74.4384
74.4275
74.4167
74.4058
74.3949
74.384
74.3731
74.3621
74.3512
74.3402
74.3293
74.3183
74.3073
74.2963
74.2853
74.2743
74.2633
74.2523
74.2413
74.2303
74.2192
74.2082
74.1972
74.1861
74.175
74.1639
74.1528
74.1417
74.1305
74.1194
74.1082
74.097
74.0857
74.0744
74.0631
74.0517
74.0402
74.0287
74.0171
74.0054
73.9936
73.9818
73.9699
73.9578
73.9458
73.9336
73.922
73.9099
73.8997
73.8886
73.8824
73.875
73.8788
73.8819
73.907
73.934
73.9955
74.0613
74.1649
74.2679
74.3903
74.4944
74.5829
74.6358
74.637
74.622
74.538
74.4919
74.4106
74.3555
74.3384
74.2845
74.2984
74.2531
74.2561
74.2292
74.2053
74.2145
74.1576
74.1818
74.1191
74.0957
74.0709
73.993
73.9616
73.8845
73.8084
73.729
73.6249
73.5309
73.4138
73.2584
73.1434
72.9833
72.7731
72.5816
72.363
72.0879
71.7697
71.4126
70.9543
70.4184
69.8193
68.9848
67.9029
66.5661
64.6809
62.2692
58.63
53.1758
45.9826
18.2116
46.4773
47.6866
47.4203
46.7349
47.243
46.6973
45.4134
44.3451
42.4618
39.2436
35.4876
31.9041
27.9263
22.8774
16.8954
11.3468
8.42272
7.32791
6.63131
6.38047
6.88238
7.90959
9.67582
12.5357
16.8558
22.7072
28.9437
34.7248
39.7458
43.9582
48.0538
52.0944
55.5897
58.77
61.6677
63.9979
65.9092
67.5445
68.8708
69.9377
70.8164
71.5403
72.1275
72.5922
72.9571
73.2531
73.5039
73.7189
73.9004
74.0511
74.1748
74.2756
74.3569
74.4222
74.4742
74.5154
74.5479
74.5731
74.5925
74.6071
74.6176
74.6248
74.6293
74.6315
74.6317
74.6302
74.6275
74.6235
74.6185
74.6128
74.6063
74.5992
74.5915
74.5834
74.575
74.5662
74.5571
74.5478
74.5383
74.5286
74.5187
74.5087
74.4986
74.4884
74.478
74.4676
74.4572
74.4466
74.436
74.4254
74.4147
74.404
74.3932
74.3824
74.3716
74.3608
74.3499
74.339
74.3281
74.3172
74.3062
74.2952
74.2842
74.2733
74.2622
74.2512
74.2402
74.2291
74.218
74.2069
74.1958
74.1846
74.1734
74.1622
74.151
74.1397
74.1284
74.1171
74.1057
74.0942
74.0827
74.0712
74.0595
74.0478
74.0359
74.024
74.0119
73.9997
73.9873
73.9748
73.9621
73.9491
73.9362
73.9227
73.9098
73.8959
73.884
73.8702
73.8618
73.8503
73.8519
73.8493
73.8739
73.8951
73.9619
74.0261
74.1447
74.2535
74.3985
74.5107
74.6186
74.6722
74.6722
74.6522
74.5346
74.5004
74.3705
74.3403
74.287
74.2545
74.2597
74.2078
74.2296
74.162
74.1827
74.1364
74.1234
74.112
74.0525
74.039
73.979
73.9106
73.8746
73.7732
73.6888
73.6088
73.4802
73.3675
73.2305
73.0842
72.9169
72.7264
72.5146
72.3027
72.0269
71.703
71.3633
70.951
70.448
69.8679
69.1422
68.2014
67.0253
65.5449
63.459
60.6595
56.7348
49.8613
42.6099
11.4693
46.3539
47.6369
47.5842
46.624
47.0068
46.6429
45.2243
44.2579
42.6739
39.3969
35.3478
31.8296
28.4515
23.9562
17.683
11.3195
8.43968
8.67244
8.86839
8.61212
8.74462
9.41893
11.2167
14.354
18.7435
24.4038
30.2349
35.5102
40.2565
44.3866
48.3573
52.1986
55.5639
58.6697
61.4863
63.7575
65.6277
67.2356
68.5674
69.6656
70.5732
71.3121
71.9141
72.4014
72.7895
73.1019
73.3628
73.5863
73.7772
73.9383
74.0726
74.1833
74.2738
74.3472
74.4065
74.4542
74.4925
74.523
74.5471
74.5659
74.5803
74.5911
74.5988
74.6038
74.6067
74.6076
74.607
74.605
74.6018
74.5976
74.5926
74.5868
74.5803
74.5733
74.5659
74.5579
74.5497
74.541
74.5322
74.5231
74.5137
74.5042
74.4945
74.4846
74.4746
74.4645
74.4544
74.4441
74.4337
74.4232
74.4127
74.4022
74.3915
74.3809
74.3702
74.3594
74.3486
74.3378
74.3269
74.316
74.3051
74.2941
74.2832
74.2722
74.2611
74.2501
74.239
74.2279
74.2167
74.2056
74.1944
74.1831
74.1719
74.1605
74.1492
74.1378
74.1263
74.1148
74.1032
74.0915
74.0798
74.0679
74.056
74.0439
74.0317
74.0193
74.0068
73.994
73.9811
73.9678
73.9544
73.9405
73.9265
73.9118
73.8976
73.8818
73.8682
73.8514
73.8409
73.8246
73.8239
73.8142
73.8385
73.8513
73.9247
73.9842
74.1223
74.2342
74.4105
74.5267
74.6664
74.7101
74.7255
74.6764
74.5462
74.4812
74.3411
74.2993
74.2426
74.2285
74.2056
74.1933
74.1672
74.1332
74.1248
74.085
74.0726
74.0522
73.9912
73.9726
73.8938
73.838
73.7734
73.6664
73.5875
73.472
73.3336
73.2185
73.0592
72.8767
72.7048
72.4896
72.256
71.9958
71.6865
71.3376
70.9603
70.5078
69.9324
69.2797
68.4602
67.4301
66.1437
64.5347
62.1441
59.0306
55.1941
46.5527
39.5445
9.97641
46.2843
47.5759
47.7104
46.4837
46.6468
46.5419
45.0294
43.9487
42.6853
39.4713
35.1606
31.724
28.9965
24.9902
18.5357
11.6385
9.28156
10.4385
11.094
10.6897
10.6317
11.228
12.9597
16.2364
20.6665
26.0141
31.4311
36.2621
40.746
44.7628
48.5773
52.2906
55.5435
58.5443
61.2985
63.52
65.3657
66.9822
68.3158
69.4076
70.3258
71.0867
71.7095
72.2176
72.6276
72.9587
73.2325
73.4646
73.6633
73.8324
73.975
74.0941
74.1926
74.2736
74.3399
74.3939
74.4378
74.4734
74.5022
74.5252
74.5435
74.5577
74.5685
74.5765
74.5819
74.5852
74.5867
74.5866
74.5852
74.5826
74.579
74.5745
74.5692
74.5633
74.5568
74.5497
74.5422
74.5343
74.5261
74.5175
74.5087
74.4996
74.4904
74.4809
74.4713
74.4615
74.4516
74.4415
74.4314
74.4211
74.4108
74.4004
74.3899
74.3793
74.3687
74.3581
74.3473
74.3365
74.3257
74.3149
74.304
74.2931
74.2821
74.2711
74.26
74.249
74.2379
74.2267
74.2155
74.2043
74.193
74.1817
74.1703
74.1589
74.1474
74.1358
74.1242
74.1125
74.1007
74.0888
74.0768
74.0647
74.0525
74.04
74.0274
74.0147
74.0017
73.9884
73.9748
73.9609
73.9467
73.9319
73.917
73.9009
73.8855
73.8677
73.8524
73.8324
73.8197
73.798
73.795
73.7765
73.8005
73.8019
73.8831
73.9337
74.0964
74.2074
74.4249
74.5413
74.7232
74.7545
74.7873
74.7141
74.5533
74.4802
74.3011
74.2583
74.2012
74.1842
74.1787
74.1468
74.1376
74.0765
74.0775
74.0285
74.0228
73.99
73.9363
73.8977
73.8205
73.7554
73.6771
73.5714
73.4715
73.3359
73.2048
73.0582
72.875
72.69
72.4907
72.2456
71.9825
71.7031
71.3509
70.9786
70.5567
70.0263
69.4058
68.6712
67.7951
66.6984
65.2892
63.5202
61.0495
57.3233
53.919
43.5768
36.7764
11.2061
46.3166
47.5395
47.7182
46.4208
46.2037
46.2517
44.7957
43.5468
42.4878
39.5002
35.0714
31.6561
29.4283
25.8365
19.6122
13.6593
11.0703
12.4791
13.1135
12.4936
12.4905
13.3257
15.0995
18.3453
22.7058
27.6153
32.5046
36.9474
41.1884
45.1369
48.7969
52.336
55.5115
58.407
61.0756
63.2667
65.0933
66.7269
68.0986
69.1965
70.0998
70.8611
71.5033
72.0366
72.4694
72.8188
73.1062
73.3487
73.5559
73.7328
73.8828
74.0089
74.1143
74.202
74.2746
74.3345
74.3839
74.4246
74.4579
74.4851
74.5071
74.5247
74.5387
74.5494
74.5574
74.563
74.5666
74.5685
74.5688
74.5677
74.5656
74.5623
74.5582
74.5533
74.5478
74.5416
74.5349
74.5277
74.5201
74.5121
74.5038
74.4952
74.4863
74.4772
74.4679
74.4584
74.4488
74.439
74.429
74.419
74.4088
74.3986
74.3882
74.3778
74.3673
74.3567
74.346
74.3353
74.3246
74.3138
74.3029
74.292
74.281
74.27
74.259
74.2479
74.2367
74.2255
74.2143
74.203
74.1916
74.1802
74.1687
74.1572
74.1456
74.1339
74.1221
74.1102
74.0982
74.0861
74.0739
74.0615
74.049
74.0362
74.0233
74.01
73.9966
73.9828
73.9686
73.954
73.9391
73.9234
73.9075
73.8902
73.8734
73.8537
73.8366
73.8134
73.7985
73.7707
73.7653
73.7363
73.7598
73.7459
73.8363
73.8721
74.0652
74.1694
74.4407
74.5488
74.7913
74.7912
74.869
74.7411
74.5777
74.4558
74.2658
74.2045
74.1474
74.1593
74.122
74.1419
74.0726
74.034
74.0277
73.9638
73.9801
73.9317
73.8752
73.8321
73.7432
73.6737
73.5868
73.4742
73.3536
73.2122
73.0647
72.8995
72.7016
72.5003
72.2702
72.0018
71.7207
71.4042
71.0327
70.5981
70.1198
69.5568
68.8945
68.1629
67.1421
65.899
64.4772
62.3363
60.1847
55.4672
52.9475
41.0187
33.9492
12.8399
46.5038
47.602
47.5643
46.1932
45.7771
45.7836
44.515
43.1513
42.0805
39.4581
35.2232
31.8073
29.8041
26.6051
20.8389
15.239
13.1408
14.4932
14.9705
14.2466
14.3691
15.4454
17.3599
20.5115
24.6069
29.094
33.4741
37.5606
41.5709
45.4201
49.0148
52.3866
55.4404
58.2674
60.8519
63.0018
64.8203
66.4531
67.8522
68.9891
69.9056
70.6593
71.302
71.852
72.3077
72.6768
72.9791
73.2332
73.4504
73.6364
73.7942
73.9272
74.0389
74.1325
74.2109
74.2764
74.3311
74.3765
74.4143
74.4455
74.4712
74.4922
74.5092
74.5227
74.5332
74.5411
74.5468
74.5505
74.5525
74.5531
74.5523
74.5503
74.5473
74.5435
74.5389
74.5335
74.5276
74.5211
74.5141
74.5067
74.4989
74.4907
74.4823
74.4736
74.4646
74.4554
74.446
74.4365
74.4268
74.4169
74.4069
74.3968
74.3866
74.3763
74.3659
74.3554
74.3448
74.3341
74.3234
74.3127
74.3018
74.2909
74.28
74.269
74.2579
74.2468
74.2356
74.2244
74.2131
74.2017
74.1903
74.1788
74.1672
74.1555
74.1438
74.132
74.12
74.108
74.0958
74.0835
74.071
74.0583
74.0455
74.0324
74.0191
74.0055
73.9916
73.9772
73.9625
73.9473
73.9316
73.915
73.8981
73.8795
73.8615
73.8398
73.8211
73.7943
73.7772
73.7429
73.7351
73.6934
73.7165
73.6823
73.7831
73.796
74.027
74.115
74.4571
74.5469
74.878
74.8249
74.9559
74.7751
74.5955
74.4356
74.231
74.13
74.1182
74.1012
74.1088
74.1118
74.0267
74.0032
73.9504
73.929
73.9253
73.8746
73.8295
73.7564
73.6703
73.5952
73.4968
73.3806
73.2357
73.0894
72.9265
72.7387
72.5323
72.3096
72.0443
71.7613
71.463
71.109
70.6759
70.2344
69.7057
69.1075
68.3948
67.5501
66.5007
65.0369
63.8092
61.1087
59.531
53.4257
51.9952
38.8819
30.8396
13.6979
46.9005
47.8268
47.2405
45.7926
45.3509
45.1891
44.1316
42.8341
41.6272
39.3177
35.5255
32.2206
30.2283
27.3325
22.1845
17.1998
15.3565
16.3661
16.7
16.1125
16.4275
17.6183
19.5112
22.4908
26.2329
30.3601
34.4221
38.2061
42.0007
45.6709
49.1576
52.4499
55.3749
58.1112
60.654
62.7683
64.5728
66.2019
67.5911
68.74
69.6934
70.4734
71.1234
71.677
72.1424
72.5265
72.8447
73.1131
73.3427
73.5394
73.7064
73.8471
73.9653
74.0649
74.1489
74.2197
74.2793
74.3294
74.3715
74.4067
74.436
74.4603
74.4802
74.4964
74.5094
74.5196
74.5273
74.5329
74.5365
74.5386
74.5391
74.5385
74.5366
74.5338
74.5301
74.5256
74.5204
74.5145
74.5082
74.5013
74.494
74.4863
74.4783
74.47
74.4613
74.4524
74.4433
74.434
74.4245
74.4148
74.405
74.3951
74.385
74.3748
74.3645
74.354
74.3435
74.333
74.3223
74.3116
74.3007
74.2899
74.2789
74.2679
74.2568
74.2457
74.2345
74.2232
74.2118
74.2004
74.1889
74.1773
74.1657
74.1539
74.142
74.1301
74.118
74.1057
74.0934
74.0808
74.0681
74.0552
74.0421
74.0287
74.015
74.001
73.9866
73.9718
73.9565
73.9406
73.9242
73.9067
73.8889
73.869
73.8498
73.826
73.8057
73.7753
73.7563
73.7147
73.7044
73.6484
73.6704
73.6107
73.7213
73.7014
73.9757
74.0356
74.4625
74.5169
74.9473
74.8239
75.0338
74.786
74.6237
74.3981
74.1971
74.0218
74.0867
74.0342
74.0932
74.0834
73.9984
73.9358
73.9076
73.8715
73.8706
73.845
73.7684
73.6885
73.6074
73.5108
73.4148
73.2889
73.1268
72.9618
72.7886
72.5927
72.3608
72.1105
71.8333
71.5303
71.1831
70.7935
70.3528
69.8518
69.3119
68.5872
67.9434
66.9008
65.8976
64.0452
63.3331
59.5869
58.9642
51.4572
50.519
37.0985
27.5223
13.8513
47.2672
48.0156
46.9109
45.3383
44.9082
44.5795
43.6537
42.5516
41.252
39.1219
35.8697
32.8165
30.7523
28.0661
23.6919
19.4109
17.659
18.2402
18.414
17.8672
18.3691
19.8039
21.6068
24.2828
27.7046
31.4734
35.2671
38.8048
42.3906
45.9355
49.272
52.4664
55.3244
57.9528
60.4459
62.5624
64.3583
65.9822
67.3633
68.4941
69.4517
70.2628
70.9453
71.5166
71.9874
72.3755
72.7025
72.9841
73.2283
73.4383
73.6166
73.7665
73.8924
73.9984
74.0881
74.1642
74.2287
74.2833
74.3296
74.3686
74.4014
74.4289
74.4517
74.4706
74.486
74.4984
74.5081
74.5155
74.5208
74.5243
74.5262
74.5268
74.526
74.5242
74.5214
74.5177
74.5133
74.5081
74.5024
74.496
74.4892
74.482
74.4744
74.4664
74.4581
74.4495
74.4406
74.4316
74.4223
74.4128
74.4031
74.3933
74.3834
74.3733
74.3631
74.3527
74.3423
74.3318
74.3212
74.3105
74.2997
74.2888
74.2779
74.2669
74.2558
74.2446
74.2334
74.222
74.2106
74.1992
74.1876
74.1759
74.1642
74.1523
74.1403
74.1282
74.1159
74.1035
74.091
74.0782
74.0653
74.0521
74.0387
74.025
74.0109
73.9965
73.9817
73.9664
73.9506
73.934
73.9169
73.8986
73.8799
73.8587
73.8383
73.8126
73.7907
73.7567
73.7357
73.6866
73.6738
73.6016
73.6216
73.5303
73.6496
73.5839
73.9052
73.9197
74.4485
74.4463
74.9979
74.7784
75.0808
74.7756
74.6114
74.3679
74.1404
73.9001
74.028
73.9158
74.0836
74.0304
73.9808
73.8609
73.8574
73.7861
73.8505
73.7855
73.7208
73.6196
73.5401
73.4118
73.3524
73.1939
73.008
72.8358
72.6618
72.4297
72.1953
71.9247
71.6222
71.269
70.9453
70.4811
70.0294
69.4258
68.9296
68.0201
67.5411
66.1142
65.5868
62.8615
62.9333
57.9378
58.0898
49.5539
48.4203
35.6717
24.0659
13.5652
47.5509
48.0831
46.6561
44.9551
44.4766
44.0267
43.1255
42.2505
40.9859
38.9423
36.1951
33.5119
31.3969
28.8876
25.2609
21.6107
19.8832
20.1233
20.1788
19.5887
20.0842
21.6894
23.4998
25.8523
28.9883
32.5097
36.0134
39.3127
42.6545
46.0768
49.3717
52.4524
55.2193
57.787
60.2231
62.3333
64.1412
65.7613
67.143
68.2795
69.238
70.0525
70.7508
71.3461
71.8354
72.2322
72.5643
72.8534
73.1088
73.3319
73.523
73.6839
73.8188
73.9323
74.0282
74.1098
74.1791
74.2382
74.2885
74.3313
74.3675
74.3981
74.4238
74.4453
74.4631
74.4776
74.4892
74.4984
74.5053
74.5103
74.5135
74.5153
74.5156
74.5148
74.5129
74.51
74.5063
74.5018
74.4966
74.4909
74.4845
74.4777
74.4705
74.4629
74.4549
74.4466
74.438
74.4291
74.4201
74.4108
74.4013
74.3916
74.3818
74.3718
74.3617
74.3515
74.3411
74.3306
74.3201
74.3094
74.2986
74.2878
74.2769
74.2658
74.2547
74.2435
74.2323
74.2209
74.2095
74.1979
74.1863
74.1745
74.1627
74.1507
74.1386
74.1263
74.1139
74.1014
74.0886
74.0757
74.0625
74.0491
74.0354
74.0213
74.007
73.9922
73.9769
73.9611
73.9448
73.9276
73.9098
73.8906
73.871
73.8487
73.8271
73.7994
73.7762
73.7385
73.7157
73.659
73.6436
73.5539
73.5704
73.4421
73.566
73.4414
73.8079
73.7617
74.401
74.3361
75.0095
74.6988
75.0712
74.7356
74.5475
74.2888
74.0655
73.748
73.9782
73.7558
74.0324
73.9503
73.956
73.7549
73.82
73.6741
73.826
73.7156
73.7056
73.5174
73.4802
73.3168
73.308
73.0629
72.9269
72.6791
72.5363
72.255
72.0594
71.6752
71.4289
70.9844
70.7156
70.1058
69.7625
68.929
68.6379
67.287
67.2259
65.0558
65.1402
61.554
62.1801
56.25
56.9696
47.9462
44.9982
34.3965
21.9402
13.6621
47.7345
48.0944
46.5115
44.6805
44.0569
43.5217
42.6021
41.9222
40.8053
38.8475
36.5058
34.1944
32.1186
29.786
26.713
23.6435
22.0242
21.889
21.7992
21.3813
21.8572
23.2976
25.0677
27.2627
30.0939
33.436
36.7329
39.792
42.9341
46.1571
49.3969
52.4502
55.0741
57.5638
60.0065
62.1042
63.9008
65.5249
66.9045
68.0513
69.0409
69.8801
70.5828
71.1794
71.6785
72.0892
72.4335
72.7316
72.9949
73.2273
73.4287
73.6001
73.7446
73.8662
73.969
74.0563
74.1307
74.1942
74.2484
74.2948
74.3344
74.368
74.3965
74.4205
74.4406
74.4572
74.4708
74.4816
74.4901
74.4965
74.5011
74.504
74.5054
74.5055
74.5045
74.5024
74.4994
74.4956
74.491
74.4858
74.4799
74.4735
74.4667
74.4594
74.4517
74.4437
74.4354
74.4268
74.4179
74.4088
74.3994
74.3899
74.3802
74.3703
74.3603
74.3502
74.3399
74.3295
74.319
74.3083
74.2976
74.2868
74.2758
74.2648
74.2537
74.2425
74.2312
74.2198
74.2083
74.1967
74.185
74.1731
74.1612
74.1491
74.1369
74.1245
74.1119
74.0992
74.0863
74.0731
74.0597
74.0461
74.0321
74.0178
74.003
73.9879
73.9722
73.9559
73.9391
73.9213
73.9028
73.8828
73.8624
73.8389
73.8163
73.7867
73.7621
73.721
73.6965
73.6323
73.6143
73.5065
73.5181
73.3482
73.4702
73.2726
73.6791
73.5576
74.3197
74.2036
74.9981
74.6437
75.0125
74.67
74.3922
74.0821
73.8791
73.5367
73.8837
73.5789
73.9686
73.7563
73.8881
73.5739
73.7611
73.4982
73.8104
73.5883
73.6707
73.3727
73.4711
73.1396
73.2779
72.9261
72.8503
72.4693
72.4677
72.0271
71.9419
71.4059
71.2541
70.6043
70.5312
69.6389
69.4895
68.3021
68.3855
66.4636
66.8243
64.0197
64.4816
60.127
61.2048
54.5898
54.8543
46.78
40.6429
32.9016
21.1861
14.5454
47.8429
48.0605
46.424
44.4891
43.7001
43.1316
42.1716
41.5733
40.6579
38.8973
36.8547
34.8025
32.8466
30.7011
28.0112
25.4379
23.9917
23.6041
23.3268
22.9473
23.4849
24.8762
26.5031
28.5687
31.1305
34.1936
37.3492
40.1982
43.1732
46.2752
49.3721
52.3984
54.9589
57.3189
59.7641
61.9079
63.6786
65.2832
66.6707
67.8196
68.8226
69.6974
70.4332
71.0428
71.5424
71.9561
72.3098
72.6192
72.8922
73.1325
73.3415
73.5205
73.6727
73.8015
73.9109
74.0039
74.0832
74.1512
74.2094
74.2593
74.3021
74.3387
74.3699
74.3963
74.4186
74.4373
74.4527
74.4653
74.4753
74.4831
74.4889
74.493
74.4954
74.4965
74.4963
74.495
74.4927
74.4895
74.4855
74.4808
74.4754
74.4694
74.463
74.456
74.4487
74.4409
74.4328
74.4244
74.4158
74.4068
74.3977
74.3883
74.3787
74.3689
74.359
74.3489
74.3387
74.3284
74.3179
74.3073
74.2966
74.2858
74.2749
74.2638
74.2527
74.2415
74.2301
74.2187
74.2071
74.1955
74.1837
74.1718
74.1597
74.1475
74.1352
74.1227
74.11
74.0971
74.084
74.0706
74.057
74.0431
74.0289
74.0142
73.9992
73.9837
73.9676
73.9509
73.9335
73.9151
73.8961
73.8753
73.8541
73.8295
73.8058
73.7745
73.7487
73.7044
73.6782
73.6072
73.5865
73.4615
73.4662
73.2536
73.3637
73.0867
73.5138
73.3278
74.2033
74.1229
75.0035
74.7338
74.9678
74.5687
74.136
73.6844
73.6118
73.2589
73.6956
73.3676
73.887
73.4599
73.7712
73.3095
73.5923
73.2661
73.7377
73.3145
73.6152
73.1441
73.357
72.8825
73.2211
72.6228
72.7597
72.1973
72.3767
71.7301
71.8288
71.049
71.0988
70.2051
70.2903
69.0656
69.132
67.5823
67.8951
65.4569
66.1424
62.651
63.6424
58.8571
59.7449
53.8024
51.4382
45.25
37.8108
32.0582
21.737
15.9246
47.886
47.9946
46.3458
44.3936
43.4127
42.7889
41.8403
41.2839
40.5645
39.0401
37.1904
35.3306
33.5538
31.6575
29.3061
26.9896
25.5684
25.1798
24.9266
24.4157
24.8376
26.3177
27.8933
29.7545
32.1163
34.8753
37.8352
40.5605
43.3268
46.3392
49.3667
52.2856
54.8192
57.1227
59.5107
61.6854
63.4752
65.0559
66.4459
67.6172
68.628
69.5041
70.2564
70.8969
71.4209
71.8453
72.2042
72.5195
72.7996
73.0473
73.2632
73.4487
73.6066
73.7409
73.8554
73.9533
74.0372
74.1093
74.1713
74.2247
74.2706
74.3101
74.3439
74.3727
74.3972
74.4178
74.4351
74.4493
74.4608
74.47
74.477
74.4822
74.4857
74.4876
74.4883
74.4877
74.4861
74.4835
74.4801
74.4759
74.471
74.4654
74.4593
74.4527
74.4457
74.4382
74.4303
74.4222
74.4137
74.4049
74.3959
74.3867
74.3772
74.3675
74.3577
74.3477
74.3376
74.3273
74.3168
74.3063
74.2956
74.2848
74.2739
74.2628
74.2517
74.2405
74.2291
74.2176
74.206
74.1943
74.1824
74.1704
74.1583
74.146
74.1336
74.1209
74.1081
74.095
74.0817
74.0682
74.0544
74.0402
74.0257
74.0108
73.9954
73.9796
73.9631
73.9459
73.9281
73.9092
73.8895
73.868
73.846
73.8204
73.7958
73.7629
73.7359
73.6887
73.6612
73.5841
73.5609
73.4208
73.4175
73.165
73.2537
72.899
73.3223
73.0954
74.0703
74.1117
75.0304
74.8647
74.8039
74.2724
73.5937
73.0463
73.2127
72.9231
73.4909
73.1303
73.6919
73.1701
73.5845
72.9999
73.371
72.9758
73.5552
72.9616
73.3981
72.7866
73.2038
72.5847
73.0551
72.1286
72.5459
71.7541
72.2728
71.2305
71.5968
70.4936
70.8857
69.6127
70.0447
68.3782
68.6434
66.775
67.2487
64.4666
65.2682
61.743
62.357
58.237
56.992
52.7608
48.1952
43.3641
36.3268
32.1351
23.2464
17.4523
47.9075
47.9247
46.2814
44.3254
43.1823
42.5262
41.634
41.0727
40.4748
39.1743
37.538
35.8531
34.2243
32.5564
30.5153
28.3821
26.9714
26.5486
26.3729
25.9435
26.2131
27.5497
29.1308
30.8368
32.9471
35.5059
38.2761
40.8914
43.5025
46.3238
49.3047
52.1795
54.6221
56.9112
59.3042
61.4515
63.2332
64.8296
66.2366
67.4315
68.4707
69.3544
70.0946
70.7351
71.28
71.7295
72.1067
72.4331
72.7196
72.9716
73.1922
73.3828
73.5457
73.6845
73.8033
73.9053
73.9932
74.069
74.1345
74.1912
74.2401
74.2823
74.3187
74.3498
74.3764
74.399
74.4179
74.4337
74.4467
74.4572
74.4654
74.4717
74.4761
74.479
74.4805
74.4807
74.4797
74.4777
74.4748
74.4711
74.4666
74.4615
74.4558
74.4495
74.4427
74.4355
74.4279
74.4199
74.4116
74.4031
74.3942
74.3851
74.3757
74.3662
74.3564
74.3465
74.3364
74.3262
74.3158
74.3053
74.2946
74.2838
74.2729
74.2619
74.2507
74.2395
74.2281
74.2165
74.2049
74.1931
74.1812
74.1691
74.1569
74.1445
74.1319
74.1192
74.1062
74.093
74.0795
74.0658
74.0518
74.0374
74.0226
74.0074
73.9918
73.9755
73.9587
73.9411
73.9228
73.9034
73.8831
73.8609
73.8383
73.8117
73.7862
73.7518
73.7238
73.6742
73.6454
73.5636
73.5383
73.3868
73.3749
73.0911
73.15
72.7325
73.117
72.8795
73.9049
74.0987
74.9847
74.8042
74.3385
73.4507
72.7175
72.2465
72.7428
72.6278
73.3702
72.9227
73.4975
72.9087
73.2474
72.6697
73.0539
72.5977
73.2218
72.584
73.0834
72.3875
72.9244
72.2622
72.6243
71.4428
72.0725
71.177
71.8001
70.5337
71.0305
69.4894
70.3977
68.869
69.4654
67.3731
67.9716
65.9663
66.4413
63.7853
64.2252
61.4387
60.5027
57.4136
54.5094
51.0185
46.0799
42.4746
36.0413
32.996
25.0308
18.8027
47.9226
47.8489
46.2151
44.2833
43.0226
42.3262
41.5028
40.8999
40.3816
39.3372
37.9134
36.35
34.8503
33.4239
31.5778
29.575
28.3417
27.9662
27.6752
27.2412
27.5558
28.7757
30.2413
31.854
33.6944
36.0134
38.6813
41.1328
43.6077
46.3011
49.1487
52.027
54.4424
56.6376
59.0527
61.2438
62.9853
64.5703
66.0253
67.2561
68.3144
69.2201
69.9701
70.6056
71.1483
71.6047
71.9965
72.3401
72.6404
72.9011
73.1272
73.3219
73.4886
73.6311
73.7535
73.8593
73.9509
74.0302
74.0991
74.1588
74.2106
74.2555
74.2942
74.3276
74.3562
74.3806
74.4013
74.4186
74.433
74.4448
74.4542
74.4615
74.4669
74.4706
74.4729
74.4738
74.4735
74.4721
74.4697
74.4664
74.4624
74.4577
74.4523
74.4463
74.4399
74.4329
74.4255
74.4178
74.4097
74.4012
74.3925
74.3835
74.3743
74.3649
74.3552
74.3454
74.3353
74.3251
74.3148
74.3043
74.2937
74.2829
74.272
74.2609
74.2498
74.2385
74.2271
74.2155
74.2038
74.192
74.18
74.1679
74.1555
74.1431
74.1304
74.1175
74.1044
74.091
74.0774
74.0635
74.0492
74.0346
74.0196
74.0041
73.9882
73.9716
73.9545
73.9365
73.9177
73.8978
73.877
73.8542
73.8308
73.8034
73.777
73.7415
73.7124
73.661
73.631
73.546
73.5189
73.3608
73.3416
73.039
73.0635
72.6018
72.9108
72.6573
73.6732
73.9634
74.7548
74.4373
73.5132
72.3705
71.8148
71.559
72.4275
72.451
73.2765
72.895
73.1805
72.5041
72.7248
72.1926
72.6554
72.2031
72.8073
72.2148
72.7916
72.0091
72.4399
71.8294
72.0554
70.8178
71.5994
70.6864
71.1471
69.8079
70.2732
68.5405
69.604
68.2066
68.4799
66.2184
66.9133
65.027
65.1639
62.5821
62.6056
60.0177
58.2675
55.4068
52.424
49.1905
44.9919
42.6678
36.8299
34.3243
26.7177
19.9864
47.9225
47.7808
46.1509
44.264
42.9186
42.1513
41.4045
40.8207
40.3269
39.4782
38.2927
36.8615
35.4271
34.1919
32.6088
30.7368
29.5246
29.2261
29.0291
28.5295
28.713
29.8836
31.2504
32.765
34.481
36.5006
38.9886
41.3445
43.6287
46.2413
49.0061
51.7909
54.2373
56.3978
58.7448
60.9864
62.7714
64.3399
65.8055
67.0742
68.1511
69.0643
69.8281
70.4813
71.0407
71.5067
71.9003
72.2447
72.5496
72.8189
73.0551
73.2588
73.4322
73.5797
73.706
73.8153
73.9102
73.9928
74.0648
74.1275
74.1821
74.2295
74.2706
74.3061
74.3367
74.3629
74.3852
74.404
74.4197
74.4327
74.4432
74.4516
74.4579
74.4625
74.4655
74.4671
74.4674
74.4666
74.4647
74.4619
74.4583
74.454
74.4489
74.4433
74.4371
74.4304
74.4232
74.4157
74.4077
74.3995
74.3909