/*--------------------------------*- C++ -*----------------------------------*\
| =========                 |                                                 |
| \\      /  F ield         | OpenFOAM: The Open Source CFD Toolbox           |
|  \\    /   O peration     | Version:  2.4.0                                 |
|   \\  /    A nd           | Web:      www.OpenFOAM.org                      |
|    \\/     M anipulation  |                                                 |
\*---------------------------------------------------------------------------*/
FoamFile
{
    version     2.0;
    format      ascii;
    class       volVectorField;
    location    "0.027";
    object      U;
}
// * * * * * * * * * * * * * * * * * * * * * * * * * * * * * * * * * * * * * //

dimensions      [0 1 -1 0 0 0 0];

internalField   nonuniform List<vector> 
17600
(
(5.32821 0.309443 0)
(2.9825 0.060694 0)
(2.19675 -0.00178185 0)
(1.84857 -0.00327567 0)
(1.70837 -0.00155028 0)
(1.60755 -2.22044e-05 0)
(1.53854 0.000346873 0)
(1.46912 -0.000481751 0)
(1.44493 -0.000174629 0)
(1.38946 0.000134665 0)
(1.37536 0.000344971 0)
(1.34709 -0.000496214 0)
(1.33498 0.000329186 0)
(1.30404 0.000154333 0)
(1.2686 0.000584911 0)
(1.23907 0.000842763 0)
(1.2273 0.000215976 0)
(1.20189 -0.000466327 0)
(1.19838 0.00362689 0)
(0.888364 -0.0521052 0)
(8.59955 0.872148 0)
(6.94275 0.383766 0)
(5.81202 0.120742 0)
(5.05551 0.0516341 0)
(4.66044 0.0278727 0)
(4.36532 0.0211751 0)
(4.18632 0.0175795 0)
(3.99161 0.010553 0)
(3.91851 0.0098403 0)
(3.76116 0.00861557 0)
(3.72701 0.00587862 0)
(3.64709 0.00370529 0)
(3.6053 0.00640013 0)
(3.53235 0.00781497 0)
(3.44364 0.00786643 0)
(3.37738 0.00537289 0)
(3.36974 0.0046483 0)
(3.28504 -0.000221396 0)
(3.31531 0.0288128 0)
(2.93503 -0.102556 0)
(9.85854 1.02268 0)
(9.33559 0.577895 0)
(8.47568 0.239405 0)
(7.63681 0.131021 0)
(7.10944 0.081396 0)
(6.67229 0.0589487 0)
(6.42339 0.0471413 0)
(6.12659 0.0308556 0)
(6.01962 0.0279245 0)
(5.78079 0.0238839 0)
(5.72413 0.0153816 0)
(5.60734 0.012231 0)
(5.53227 0.0161109 0)
(5.43724 0.0196736 0)
(5.31074 0.019719 0)
(5.20939 0.0109168 0)
(5.21715 0.011688 0)
(5.08355 0.00182968 0)
(5.1008 0.0433523 0)
(4.91044 -0.0786866 0)
(10.1623 0.948828 0)
(10.5579 0.669791 0)
(10.2604 0.327985 0)
(9.63025 0.210722 0)
(9.15173 0.147366 0)
(8.65301 0.108958 0)
(8.3946 0.086814 0)
(8.02189 0.0592306 0)
(7.9023 0.0524181 0)
(7.60876 0.0455528 0)
(7.52533 0.0284265 0)
(7.38987 0.0247994 0)
(7.27997 0.0288784 0)
(7.17677 0.0345133 0)
(7.02915 0.036242 0)
(6.88992 0.0177556 0)
(6.91361 0.0199089 0)
(6.75804 0.0100453 0)
(6.70217 0.0450514 0)
(6.72485 -0.0373415 0)
(10.0761 0.807218 0)
(10.9103 0.670651 0)
(11.1348 0.354047 0)
(10.868 0.256113 0)
(10.6313 0.202957 0)
(10.1912 0.159378 0)
(10.0082 0.129718 0)
(9.6138 0.0920955 0)
(9.50892 0.0799742 0)
(9.20684 0.0718007 0)
(9.09811 0.0440149 0)
(8.96696 0.0400871 0)
(8.82972 0.0441676 0)
(8.72727 0.0500169 0)
(8.58288 0.0561084 0)
(8.40778 0.0263291 0)
(8.44018 0.0274304 0)
(8.28349 0.0237708 0)
(8.16654 0.0462012 0)
(8.23744 -0.00537372 0)
(9.98604 0.693161 0)
(10.8429 0.639618 0)
(11.3149 0.332687 0)
(11.3198 0.249574 0)
(11.4032 0.223108 0)
(11.1317 0.191724 0)
(11.1184 0.162572 0)
(10.791 0.122055 0)
(10.74 0.105294 0)
(10.4923 0.0990546 0)
(10.3772 0.0605201 0)
(10.2745 0.0557902 0)
(10.1348 0.0611411 0)
(10.0378 0.0643541 0)
(9.92448 0.0770841 0)
(9.72908 0.0369853 0)
(9.76513 0.0333104 0)
(9.60702 0.0418348 0)
(9.49066 0.0438874 0)
(9.45179 0.0469369 0)
(9.97177 0.604139 0)
(10.7173 0.600227 0)
(11.2471 0.307033 0)
(11.287 0.218253 0)
(11.5759 0.207581 0)
(11.456 0.196357 0)
(11.6281 0.173907 0)
(11.4377 0.137919 0)
(11.4771 0.11795 0)
(11.3508 0.11922 0)
(11.2737 0.0738598 0)
(11.2247 0.0677642 0)
(11.124 0.0769962 0)
(11.0488 0.0759995 0)
(10.9864 0.0958303 0)
(10.8063 0.0491224 0)
(10.8439 0.0379116 0)
(10.6884 0.0598744 0)
(10.6048 0.0464936 0)
(10.4545 0.0673566 0)
(9.97841 0.526888 0)
(10.6019 0.566759 0)
(11.1808 0.293437 0)
(11.181 0.186886 0)
(11.4877 0.179371 0)
(11.4522 0.182357 0)
(11.6939 0.163141 0)
(11.6254 0.139987 0)
(11.714 0.115733 0)
(11.7186 0.123719 0)
(11.7136 0.0777835 0)
(11.7328 0.0716079 0)
(11.7032 0.0860903 0)
(11.6854 0.0801457 0)
(11.6866 0.108799 0)
(11.5732 0.0578897 0)
(11.612 0.0439725 0)
(11.4888 0.0689017 0)
(11.4224 0.0630092 0)
(11.2769 0.0362659 0)
(9.95712 0.457954 0)
(10.5526 0.506257 0)
(11.0852 0.289501 0)
(11.1572 0.174012 0)
(11.3832 0.149263 0)
(11.3938 0.170304 0)
(11.5984 0.14997 0)
(11.615 0.132178 0)
(11.688 0.10563 0)
(11.7564 0.119601 0)
(11.8036 0.0710832 0)
(11.859 0.0654379 0)
(11.8822 0.0874544 0)
(11.9256 0.0757077 0)
(11.9778 0.108457 0)
(11.9632 0.0601081 0)
(12.0086 0.0455464 0)
(11.9448 0.0759104 0)
(11.9007 0.0627732 0)
(11.8504 0.00790206 0)
(9.96747 0.39834 0)
(10.4934 0.462465 0)
(10.9701 0.272877 0)
(11.1657 0.151156 0)
(11.2872 0.132255 0)
(11.3688 0.1478 0)
(11.5057 0.130467 0)
(11.536 0.129709 0)
(11.6288 0.0948124 0)
(11.7085 0.105473 0)
(11.7562 0.0676555 0)
(11.8252 0.0600336 0)
(11.8773 0.0806969 0)
(11.9257 0.0668997 0)
(11.9903 0.102839 0)
(12.0495 0.0541224 0)
(12.0881 0.0417523 0)
(12.0762 0.07421 0)
(12.074 0.0551294 0)
(12.0888 -0.0270873 0)
(9.97198 0.341973 0)
(10.4487 0.402436 0)
(10.8774 0.265295 0)
(11.1251 0.140445 0)
(11.2478 0.103494 0)
(11.338 0.1406 0)
(11.4267 0.122353 0)
(11.4775 0.112346 0)
(11.5667 0.0851251 0)
(11.6426 0.10224 0)
(11.708 0.0552402 0)
(11.7712 0.0508176 0)
(11.8256 0.0810928 0)
(11.8792 0.058589 0)
(11.9415 0.0869057 0)
(12.005 0.0486417 0)
(12.0405 0.0390018 0)
(12.0599 0.0665389 0)
(12.0809 0.0372184 0)
(11.9875 -0.0111445 0)
(9.97469 0.291834 0)
(10.414 0.36451 0)
(10.7949 0.245187 0)
(11.0852 0.116954 0)
(11.2148 0.0920484 0)
(11.2891 0.11966 0)
(11.3823 0.104612 0)
(11.4242 0.11145 0)
(11.5062 0.0725533 0)
(11.5951 0.0837152 0)
(11.6605 0.0578872 0)
(11.7184 0.0463906 0)
(11.778 0.0688902 0)
(11.8424 0.0511379 0)
(11.8909 0.0820644 0)
(11.9426 0.0422258 0)
(11.9878 0.0290109 0)
(12.0147 0.0563212 0)
(12.0083 0.0365746 0)
(11.8257 0.0171624 0)
(9.98425 0.24882 0)
(10.3702 0.30574 0)
(10.7391 0.233284 0)
(11.0415 0.106418 0)
(11.1714 0.0644423 0)
(11.2573 0.113911 0)
(11.3432 0.0976119 0)
(11.3683 0.0904476 0)
(11.4729 0.0661593 0)
(11.5499 0.0791288 0)
(11.6043 0.0455996 0)
(11.6868 0.0364502 0)
(11.7407 0.0708112 0)
(11.7975 0.0415265 0)
(11.8474 0.0656096 0)
(11.8992 0.0389691 0)
(11.9413 0.0264478 0)
(11.9597 0.0481635 0)
(11.9371 0.0330083 0)
(11.8323 -0.00373315 0)
(9.98854 0.206151 0)
(10.3388 0.270664 0)
(10.6876 0.203857 0)
(10.9987 0.0887707 0)
(11.1413 0.0566275 0)
(11.22 0.0956299 0)
(11.3081 0.0787557 0)
(11.3364 0.0883407 0)
(11.4311 0.0537476 0)
(11.5097 0.061844 0)
(11.5729 0.0471978 0)
(11.6486 0.0319453 0)
(11.7007 0.0566654 0)
(11.7712 0.0356461 0)
(11.8129 0.0608189 0)
(11.8516 0.0330359 0)
(11.8997 0.0152149 0)
(11.92 0.0428267 0)
(11.9068 0.0252893 0)
(11.841 -0.012598 0)
(9.98903 0.17208 0)
(10.3151 0.218565 0)
(10.6462 0.176671 0)
(10.962 0.0825951 0)
(11.1142 0.0353535 0)
(11.1891 0.0875071 0)
(11.2816 0.0713116 0)
(11.3052 0.068801 0)
(11.398 0.0478424 0)
(11.4818 0.055942 0)
(11.5381 0.0367483 0)
(11.6166 0.0216381 0)
(11.6765 0.0559749 0)
(11.7425 0.0286752 0)
(11.7783 0.0443718 0)
(11.8173 0.0296807 0)
(11.8675 0.0140317 0)
(11.8862 0.0337111 0)
(11.881 0.0164552 0)
(11.7921 -0.0122835 0)
(9.99152 0.135521 0)
(10.294 0.182664 0)
(10.6118 0.142773 0)
(10.9314 0.0680747 0)
(11.0913 0.0280427 0)
(11.1644 0.0732733 0)
(11.2593 0.0518151 0)
(11.2806 0.062333 0)
(11.3722 0.0392492 0)
(11.4563 0.0378495 0)
(11.5114 0.0365155 0)
(11.5936 0.0174804 0)
(11.6514 0.0430922 0)
(11.7191 0.0218164 0)
(11.7555 0.0383704 0)
(11.7864 0.0252859 0)
(11.8383 0.00447079 0)
(11.8627 0.0249656 0)
(11.8552 0.0124606 0)
(11.7589 -0.0178725 0)
(9.99211 0.107531 0)
(10.2771 0.134724 0)
(10.5865 0.110336 0)
(10.9057 0.0605836 0)
(11.0738 0.0120474 0)
(11.1457 0.0619436 0)
(11.2417 0.0416232 0)
(11.261 0.0457737 0)
(11.3518 0.0314401 0)
(11.4374 0.0305191 0)
(11.4891 0.0294566 0)
(11.5749 0.00758006 0)
(11.6336 0.0383764 0)
(11.7007 0.0174142 0)
(11.7347 0.0237633 0)
(11.7627 0.0204464 0)
(11.8182 0.00120443 0)
(11.842 0.0179521 0)
(11.8292 0.00490841 0)
(11.7301 -0.00905223 0)
(9.9929 0.076302 0)
(10.2649 0.0957664 0)
(10.5674 0.0781498 0)
(10.8862 0.046629 0)
(11.0617 0.00329689 0)
(11.1306 0.0498864 0)
(11.2288 0.0240405 0)
(11.2477 0.0351666 0)
(11.3354 0.0255454 0)
(11.4233 0.0146717 0)
(11.4737 0.0261374 0)
(11.5608 0.00311494 0)
(11.6188 0.0276891 0)
(11.6874 0.0100946 0)
(11.7207 0.0158106 0)
(11.7446 0.0166306 0)
(11.8013 -0.00533948 0)
(11.8259 0.00905748 0)
(11.8143 0.000945033 0)
(11.7362 -0.0211604 0)
(9.99373 0.0506433 0)
(10.2556 0.0517247 0)
(10.5562 0.0445301 0)
(10.8724 0.036303 0)
(11.0535 -0.00879366 0)
(11.1215 0.037943 0)
(11.2201 0.0114844 0)
(11.2388 0.020787 0)
(11.3247 0.0178519 0)
(11.4148 0.00476521 0)
(11.4625 0.0207142 0)
(11.5514 -0.00550647 0)
(11.6106 0.0203711 0)
(11.6778 0.00604968 0)
(11.7105 0.0039419 0)
(11.733 0.0109314 0)
(11.7906 -0.00952165 0)
(11.8164 0.00179071 0)
(11.8079 -0.00806088 0)
(11.7157 -0.0137858 0)
(9.9942 0.0228366 0)
(10.2507 0.011172 0)
(10.5513 0.0123885 0)
(10.8644 0.0219608 0)
(11.0505 -0.0170949 0)
(11.1166 0.0269316 0)
(11.2153 -0.00469157 0)
(11.236 0.00805558 0)
(11.3183 0.0120602 0)
(11.4109 -0.00887837 0)
(11.4575 0.0160527 0)
(11.5465 -0.0105623 0)
(11.6066 0.0104801 0)
(11.6724 -0.000546611 0)
(11.7062 -0.00524911 0)
(11.7271 0.00652752 0)
(11.7846 -0.014505 0)
(11.8122 -0.00693352 0)
(11.7971 -0.0119042 0)
(11.6921 -0.00865006 0)
(9.99483 -0.00269401 0)
(10.2492 -0.0309251 0)
(10.5531 -0.0213814 0)
(10.8625 0.00955728 0)
(11.0518 -0.0271187 0)
(11.1165 0.0147045 0)
(11.2149 -0.0185706 0)
(11.2379 -0.00582753 0)
(11.3169 0.00481705 0)
(11.412 -0.0200083 0)
(11.4574 0.0111182 0)
(11.5461 -0.0179914 0)
(11.6074 0.00161122 0)
(11.6712 -0.00515108 0)
(11.707 -0.0156405 0)
(11.7266 0.000209534 0)
(11.7838 -0.0186213 0)
(11.8113 -0.0142227 0)
(11.7927 -0.0182409 0)
(11.723 -0.0219512 0)
(9.99547 -0.0296092 0)
(10.2515 -0.0726152 0)
(10.5615 -0.0536305 0)
(10.8663 -0.00391053 0)
(11.0579 -0.0368492 0)
(11.121 0.00340963 0)
(11.2182 -0.033947 0)
(11.2454 -0.0190076 0)
(11.3201 -0.0017024 0)
(11.4179 -0.0319451 0)
(11.463 0.00541165 0)
(11.55 -0.0233253 0)
(11.6127 -0.00737545 0)
(11.6749 -0.0115224 0)
(11.7124 -0.0249628 0)
(11.7317 -0.00558451 0)
(11.788 -0.0223089 0)
(11.8155 -0.0222505 0)
(11.8052 -0.0260239 0)
(11.7443 -0.026083 0)
(9.99616 -0.0569423 0)
(10.2576 -0.114406 0)
(10.5763 -0.086572 0)
(10.8762 -0.016579 0)
(11.0684 -0.0468749 0)
(11.13 -0.0089708 0)
(11.2261 -0.0481674 0)
(11.2579 -0.0321999 0)
(11.3281 -0.00903266 0)
(11.4288 -0.04332 0)
(11.474 -0.000381579 0)
(11.5584 -0.0290302 0)
(11.6228 -0.0167304 0)
(11.6829 -0.0172519 0)
(11.7226 -0.0339196 0)
(11.7425 -0.0123271 0)
(11.7975 -0.0259609 0)
(11.8276 -0.0305473 0)
(11.8196 -0.0348452 0)
(11.7166 -0.0221592 0)
(9.99693 -0.0857792 0)
(10.2677 -0.156998 0)
(10.5979 -0.118754 0)
(10.8919 -0.0285984 0)
(11.0835 -0.0577883 0)
(11.1438 -0.020748 0)
(11.2381 -0.0628676 0)
(11.2757 -0.0452816 0)
(11.341 -0.0163443 0)
(11.4447 -0.054565 0)
(11.4905 -0.00649318 0)
(11.5715 -0.0343786 0)
(11.6376 -0.0260613 0)
(11.6955 -0.0235186 0)
(11.738 -0.042538 0)
(11.7592 -0.0194487 0)
(11.813 -0.0295199 0)
(11.8435 -0.0387223 0)
(11.8242 -0.0380873 0)
(11.7171 -0.0126549 0)
(9.99772 -0.116667 0)
(10.2821 -0.199618 0)
(10.6262 -0.150997 0)
(10.9136 -0.0403534 0)
(11.1033 -0.0689991 0)
(11.1622 -0.0333839 0)
(11.2548 -0.0772397 0)
(11.2988 -0.0580107 0)
(11.359 -0.0246526 0)
(11.4658 -0.0650525 0)
(11.5126 -0.0128347 0)
(11.5893 -0.0392508 0)
(11.657 -0.0353677 0)
(11.713 -0.0301061 0)
(11.7583 -0.0509786 0)
(11.7818 -0.0268388 0)
(11.8338 -0.0323123 0)
(11.8618 -0.0463151 0)
(11.8446 -0.0462149 0)
(11.7942 -0.0392312 0)
(9.99844 -0.15019 0)
(10.301 -0.242534 0)
(10.6615 -0.182646 0)
(10.9413 -0.051758 0)
(11.1277 -0.0812532 0)
(11.1856 -0.0462052 0)
(11.2763 -0.0910512 0)
(11.3272 -0.0703532 0)
(11.3824 -0.0333537 0)
(11.4923 -0.0756683 0)
(11.5407 -0.0201414 0)
(11.6122 -0.0432102 0)
(11.6813 -0.0445577 0)
(11.7354 -0.0369552 0)
(11.7838 -0.0591218 0)
(11.8106 -0.0348374 0)
(11.86 -0.0350113 0)
(11.8889 -0.0555829 0)
(11.8822 -0.0554027 0)
(11.8017 -0.0322754 0)
(9.99875 -0.187259 0)
(10.3253 -0.285674 0)
(10.7039 -0.212372 0)
(10.9749 -0.0636378 0)
(11.1569 -0.0941156 0)
(11.214 -0.0592838 0)
(11.3031 -0.104805 0)
(11.3612 -0.0817981 0)
(11.4114 -0.0423193 0)
(11.5246 -0.0856516 0)
(11.575 -0.0278404 0)
(11.6406 -0.0474397 0)
(11.7106 -0.0541699 0)
(11.763 -0.0436024 0)
(11.8145 -0.0664845 0)
(11.846 -0.0435796 0)
(11.8932 -0.0377387 0)
(11.9227 -0.0637214 0)
(11.9065 -0.0619517 0)
(11.7969 -0.0257336 0)
(9.99788 -0.227902 0)
(10.3564 -0.330388 0)
(10.754 -0.237071 0)
(11.015 -0.0776152 0)
(11.1909 -0.108677 0)
(11.2475 -0.0725989 0)
(11.336 -0.118047 0)
(11.4015 -0.0933771 0)
(11.447 -0.0521777 0)
(11.563 -0.0945114 0)
(11.6157 -0.035388 0)
(11.6748 -0.0512714 0)
(11.7451 -0.0636846 0)
(11.7962 -0.0512402 0)
(11.8507 -0.0742429 0)
(11.8882 -0.0518663 0)
(11.933 -0.0400778 0)
(11.96 -0.0721402 0)
(11.944 -0.0671607 0)
(11.8822 -0.049599 0)
(9.99418 -0.272849 0)
(10.3966 -0.37731 0)
(10.8138 -0.254437 0)
(11.0603 -0.0952812 0)
(11.2278 -0.125719 0)
(11.2847 -0.0866834 0)
(11.3755 -0.130634 0)
(11.4485 -0.104711 0)
(11.4897 -0.063167 0)
(11.6073 -0.103803 0)
(11.6628 -0.043337 0)
(11.7143 -0.05382 0)
(11.7846 -0.0729906 0)
(11.8344 -0.0587195 0)
(11.8927 -0.0827356 0)
(11.9378 -0.060052 0)
(11.98 -0.0428567 0)
(12.0073 -0.0812236 0)
(11.9954 -0.0775476 0)
(11.9143 -0.0505761 0)
(9.98472 -0.323482 0)
(10.4484 -0.425581 0)
(10.8862 -0.267115 0)
(11.1098 -0.115203 0)
(11.2646 -0.14374 0)
(11.3226 -0.101667 0)
(11.426 -0.14297 0)
(11.5035 -0.114927 0)
(11.5422 -0.0747684 0)
(11.6564 -0.112757 0)
(11.7169 -0.0520757 0)
(11.7591 -0.05594 0)
(11.8306 -0.0824872 0)
(11.8772 -0.0652749 0)
(11.9429 -0.0919659 0)
(11.9929 -0.0684324 0)
(12.0362 -0.0455959 0)
(12.0596 -0.0886355 0)
(12.044 -0.0828119 0)
(11.9544 -0.0609891 0)
(9.96746 -0.380112 0)
(10.5149 -0.475499 0)
(10.9696 -0.278294 0)
(11.1608 -0.135255 0)
(11.3014 -0.161756 0)
(11.3606 -0.11802 0)
(11.4992 -0.155497 0)
(11.5629 -0.124708 0)
(11.6108 -0.0860928 0)
(11.7054 -0.121618 0)
(11.7791 -0.0610152 0)
(11.805 -0.0585079 0)
(11.885 -0.0909659 0)
(11.9166 -0.0731151 0)
(12.0002 -0.101312 0)
(12.0289 -0.0773409 0)
(12.0815 -0.0484946 0)
(12.0755 -0.0953866 0)
(12.0587 -0.0874268 0)
(11.9659 -0.0856392 0)
(9.94783 -0.442988 0)
(10.5989 -0.527338 0)
(11.048 -0.287937 0)
(11.2103 -0.155163 0)
(11.3486 -0.179854 0)
(11.4126 -0.13823 0)
(11.5993 -0.168086 0)
(11.6122 -0.133584 0)
(11.6965 -0.0972156 0)
(11.7392 -0.129577 0)
(11.831 -0.0709265 0)
(11.8228 -0.0621822 0)
(11.9107 -0.097524 0)
(11.8976 -0.0811316 0)
(11.9892 -0.108207 0)
(11.9354 -0.0839389 0)
(11.9991 -0.0493058 0)
(11.9166 -0.0989262 0)
(11.9034 -0.0841396 0)
(11.7535 -0.107661 0)
(9.9392 -0.514131 0)
(10.695 -0.57577 0)
(11.1037 -0.29558 0)
(11.2778 -0.177377 0)
(11.4235 -0.199765 0)
(11.4989 -0.16206 0)
(11.6774 -0.178632 0)
(11.6201 -0.140072 0)
(11.7341 -0.108035 0)
(11.6811 -0.132864 0)
(11.7539 -0.078733 0)
(11.684 -0.0646099 0)
(11.7391 -0.0992905 0)
(11.6442 -0.0837382 0)
(11.7003 -0.107763 0)
(11.5313 -0.0803854 0)
(11.5993 -0.0473084 0)
(11.4247 -0.092099 0)
(11.4208 -0.0790089 0)
(11.2149 -0.116595 0)
(9.94639 -0.596036 0)
(10.7899 -0.61183 0)
(11.1696 -0.307164 0)
(11.389 -0.208271 0)
(11.4883 -0.22165 0)
(11.5286 -0.181929 0)
(11.5904 -0.180948 0)
(11.4424 -0.141067 0)
(11.4964 -0.111469 0)
(11.3097 -0.125552 0)
(11.3163 -0.0765549 0)
(11.1715 -0.0604824 0)
(11.1655 -0.0904374 0)
(10.9919 -0.0775084 0)
(11.0051 -0.0956373 0)
(10.7503 -0.0691299 0)
(10.8309 -0.0405008 0)
(10.5909 -0.0789275 0)
(10.6093 -0.0698084 0)
(10.3513 -0.116105 0)
(9.97523 -0.68772 0)
(10.894 -0.642283 0)
(11.2538 -0.334585 0)
(11.4032 -0.24431 0)
(11.318 -0.232927 0)
(11.2063 -0.183237 0)
(11.0711 -0.166136 0)
(10.808 -0.126897 0)
(10.7478 -0.0986593 0)
(10.4613 -0.104222 0)
(10.411 -0.0637666 0)
(10.2238 -0.0484652 0)
(10.1788 -0.0737343 0)
(9.96698 -0.0644294 0)
(9.95289 -0.0773009 0)
(9.65793 -0.0547462 0)
(9.75461 -0.0320102 0)
(9.4813 -0.0640104 0)
(9.52375 -0.0581995 0)
(9.23362 -0.100219 0)
(10.0681 -0.803558 0)
(10.9428 -0.673458 0)
(11.0923 -0.357247 0)
(10.9325 -0.251377 0)
(10.5603 -0.209113 0)
(10.2585 -0.154311 0)
(9.96124 -0.130275 0)
(9.63709 -0.0974619 0)
(9.50402 -0.0736464 0)
(9.19132 -0.0764256 0)
(9.11619 -0.0466396 0)
(8.92756 -0.0339545 0)
(8.8677 -0.0547594 0)
(8.65183 -0.049079 0)
(8.61861 -0.0572132 0)
(8.32537 -0.0402295 0)
(8.42853 -0.0237874 0)
(8.15204 -0.0476992 0)
(8.20748 -0.0475625 0)
(7.90829 -0.0706575 0)
(10.1583 -0.946628 0)
(10.5814 -0.670616 0)
(10.2317 -0.33063 0)
(9.67615 -0.207044 0)
(9.09796 -0.151578 0)
(8.70449 -0.106055 0)
(8.35586 -0.0860782 0)
(8.04487 -0.0644121 0)
(7.89008 -0.0467463 0)
(7.6062 -0.0495805 0)
(7.52803 -0.0300366 0)
(7.3653 -0.0205111 0)
(7.30499 -0.0365358 0)
(7.10864 -0.0334863 0)
(7.06312 -0.0376051 0)
(6.80493 -0.0272013 0)
(6.89948 -0.0158408 0)
(6.64564 -0.0326183 0)
(6.70223 -0.0356563 0)
(6.40912 -0.0397173 0)
(9.85683 -1.02159 0)
(9.35196 -0.57831 0)
(8.45681 -0.241622 0)
(7.66569 -0.128192 0)
(7.07322 -0.0842249 0)
(6.70677 -0.0573278 0)
(6.3966 -0.0459573 0)
(6.14465 -0.0351062 0)
(6.00642 -0.0234797 0)
(5.78486 -0.0269496 0)
(5.71678 -0.0161249 0)
(5.59517 -0.00971115 0)
(5.54431 -0.020634 0)
(5.38415 -0.0191644 0)
(5.33526 -0.0206263 0)
(5.1332 -0.0162373 0)
(5.20397 -0.0087027 0)
(4.99712 -0.0195889 0)
(5.04123 -0.0222453 0)
(4.76855 -0.0199161 0)
(8.59912 -0.871743 0)
(6.95339 -0.383796 0)
(5.80079 -0.12212 0)
(5.07034 -0.0498154 0)
(4.63957 -0.0294119 0)
(4.38546 -0.0205148 0)
(4.17065 -0.0165876 0)
(4.00305 -0.0132526 0)
(3.90779 -0.00707399 0)
(3.76711 -0.0104267 0)
(3.71693 -0.00617958 0)
(3.64292 -0.00248543 0)
(3.6082 -0.00836155 0)
(3.4977 -0.00780218 0)
(3.45623 -0.00805809 0)
(3.32211 -0.00765108 0)
(3.35957 -0.00331441 0)
(3.22044 -0.00900575 0)
(3.23846 -0.0100092 0)
(3.02592 -0.00932637 0)
(5.32819 -0.309404 0)
(2.98698 -0.0606588 0)
(2.1923 0.00141485 0)
(1.8524 0.00389038 0)
(1.70234 0.00103363 0)
(1.61304 0.000155291 0)
(1.53458 7.02257e-05 0)
(1.47258 -0.000422175 0)
(1.43974 0.00112315 0)
(1.39332 -0.00074432 0)
(1.36962 -0.000334982 0)
(1.34607 0.000773388 0)
(1.33461 -0.000554427 0)
(1.29064 -0.000298006 0)
(1.2706 -0.000339022 0)
(1.21654 -0.00125136 0)
(1.2216 0.000165256 0)
(1.16795 -0.00115773 0)
(1.16104 -0.000910306 0)
(1.07037 0.00570756 0)
(1.97202 -0.22251 0)
(1.55108 -0.0644483 0)
(1.5323 0.0856908 0)
(2.36351 -0.139381 0)
(1.48684 -0.00499869 0)
(2.21421 0.324255 0)
(2.98371 0.407629 0)
(3.02739 0.779541 0)
(3.8749 1.01852 0)
(4.6499 1.33727 0)
(4.89095 1.74516 0)
(5.70601 1.712 0)
(6.71008 1.49628 0)
(8.17807 1.31502 0)
(8.34427 1.61601 0)
(7.43361 1.70915 0)
(8.28622 -0.0930852 0)
(9.52258 -1.93003 0)
(10.1558 -1.81662 0)
(10.837 -1.27302 0)
(10.9845 -1.55248 0)
(10.2352 -1.94818 0)
(9.89691 -2.32887 0)
(10.5041 -3.18094 0)
(11.2284 -4.28885 0)
(11.4048 -5.1265 0)
(11.0933 -5.4532 0)
(10.5053 -5.32561 0)
(9.8865 -5.07894 0)
(9.47129 -4.86965 0)
(8.98305 -4.56063 0)
(8.46538 -4.23064 0)
(8.20052 -4.01465 0)
(7.96031 -3.83541 0)
(7.65465 -3.60121 0)
(7.36293 -3.27507 0)
(7.01547 -2.92674 0)
(6.69451 -2.65098 0)
(6.51869 -2.43004 0)
(6.43219 -2.21953 0)
(6.33622 -2.02081 0)
(6.19243 -1.84319 0)
(6.01734 -1.67705 0)
(5.86168 -1.50312 0)
(5.76574 -1.31567 0)
(5.72327 -1.133 0)
(5.69808 -0.980806 0)
(5.6611 -0.870095 0)
(5.60605 -0.793122 0)
(5.54248 -0.733789 0)
(5.48274 -0.678708 0)
(5.43407 -0.621748 0)
(5.39748 -0.562838 0)
(5.37046 -0.504643 0)
(5.34978 -0.44989 0)
(5.333 -0.400192 0)
(5.31875 -0.356003 0)
(5.30639 -0.317038 0)
(5.29566 -0.282705 0)
(5.28642 -0.252366 0)
(5.27854 -0.225456 0)
(5.27187 -0.201507 0)
(5.26626 -0.180145 0)
(5.26155 -0.161061 0)
(5.25762 -0.144 0)
(5.25433 -0.128737 0)
(5.25158 -0.115082 0)
(5.24928 -0.102863 0)
(5.24737 -0.0919291 0)
(5.24576 -0.0821447 0)
(5.24441 -0.0733886 0)
(5.24329 -0.0655536 0)
(5.24235 -0.058543 0)
(5.24157 -0.0522698 0)
(5.2409 -0.0466562 0)
(5.24035 -0.0416337 0)
(5.23988 -0.0371401 0)
(5.23949 -0.0331195 0)
(5.23916 -0.0295215 0)
(5.23888 -0.0263021 0)
(5.23865 -0.0234213 0)
(5.23846 -0.0208428 0)
(5.23829 -0.018534 0)
(5.23815 -0.0164664 0)
(5.23803 -0.0146142 0)
(5.23793 -0.0129539 0)
(5.23784 -0.0114642 0)
(5.23777 -0.0101268 0)
(5.23771 -0.00892514 0)
(5.23766 -0.00784351 0)
(5.23761 -0.00686812 0)
(5.23757 -0.0059871 0)
(5.23754 -0.00518968 0)
(5.23752 -0.00446545 0)
(5.23749 -0.00380501 0)
(5.23747 -0.00320061 0)
(5.23746 -0.00264498 0)
(5.23745 -0.00213098 0)
(5.23743 -0.00165209 0)
(5.23742 -0.0012029 0)
(5.23742 -0.000778273 0)
(5.23741 -0.000373056 0)
(5.2374 1.81656e-05 0)
(5.2374 0.000398428 0)
(5.2374 0.000772423 0)
(5.2374 0.00114455 0)
(5.2374 0.00151892 0)
(5.2374 0.00189891 0)
(5.23741 0.00228817 0)
(5.23742 0.00269099 0)
(5.23742 0.00311147 0)
(5.23743 0.00355321 0)
(5.23744 0.00402013 0)
(5.23745 0.00451695 0)
(5.23746 0.00504838 0)
(5.23747 0.00561894 0)
(5.23749 0.00623348 0)
(5.23752 0.00689796 0)
(5.23754 0.00761849 0)
(5.23756 0.00840136 0)
(5.2376 0.00925325 0)
(5.23763 0.0101827 0)
(5.23767 0.0111979 0)
(5.23771 0.0123093 0)
(5.23777 0.013525 0)
(5.23783 0.0148621 0)
(5.23789 0.0163253 0)
(5.23796 0.0179476 0)
(5.23807 0.0197122 0)
(5.23813 0.0217045 0)
(5.23828 0.0238289 0)
(5.23831 0.0263311 0)
(5.23856 0.0288523 0)
(5.23847 0.0321228 0)
(5.2389 0.0349948 0)
(5.23847 0.039551 0)
(5.23922 0.0424992 0)
(5.23808 0.0493635 0)
(5.23922 0.0516481 0)
(5.23679 0.0626319 0)
(5.23791 0.0628162 0)
(5.23367 0.0803801 0)
(5.23295 0.0765053 0)
(5.22719 0.102133 0)
(5.22053 0.0929517 0)
(5.21576 0.123358 0)
(5.19741 0.110828 0)
(5.20011 0.134948 0)
(5.16488 0.126451 0)
(5.18702 0.128455 0)
(5.12973 0.138355 0)
(5.18736 0.101506 0)
(5.10582 0.156165 0)
(5.19343 0.0622872 0)
(5.12892 0.185875 0)
(5.15092 0.0514903 0)
(5.24526 0.183117 0)
(5.01611 0.131134 0)
(5.41762 0.11193 0)
(4.86929 0.265493 0)
(5.50636 0.063975 0)
(4.85492 0.317082 0)
(5.45241 0.143441 0)
(4.93544 0.257197 0)
(5.38771 0.295025 0)
(4.97242 0.210682 0)
(5.35197 0.384264 0)
(5.03771 0.272905 0)
(5.24508 0.387391 0)
(5.15499 0.392966 0)
(5.1607 0.418671 0)
(5.18286 0.451953 0)
(5.21751 0.543901 0)
(5.08048 0.493577 0)
(5.34102 0.65972 0)
(4.99783 0.602746 0)
(5.43562 0.762126 0)
(4.92976 0.751106 0)
(5.46644 0.881584 0)
(4.98432 0.952446 0)
(5.44695 1.00468 0)
(5.03256 1.18349 0)
(5.32406 1.18583 0)
(5.21654 1.47997 0)
(5.11087 1.44462 0)
(5.39486 1.73765 0)
(5.0372 1.76301 0)
(5.44774 2.07042 0)
(4.96609 2.34566 0)
(5.23753 2.43123 0)
(5.24057 2.80859 0)
(4.9429 3.134 0)
(4.99449 3.53563 0)
(4.64372 4.10068 0)
(4.72849 4.4859 0)
(5.1965 4.78323 0)
(5.12043 5.74959 0)
(4.90799 6.765 0)
(5.28815 7.72315 0)
(2.9344 11.009 0)
(3.44699 -0.185 0)
(3.54025 -0.00721039 0)
(2.98173 0.0307285 0)
(3.87723 -0.0664956 0)
(3.15919 0.0648735 0)
(3.06405 0.145602 0)
(3.60174 0.232748 0)
(3.4888 0.552437 0)
(4.07016 0.82032 0)
(4.59257 1.19504 0)
(4.92625 1.43223 0)
(5.62681 1.1731 0)
(6.69721 0.883139 0)
(7.61132 1.09183 0)
(7.17185 1.81227 0)
(7.20974 1.5102 0)
(8.50178 -0.684087 0)
(9.31055 -2.33458 0)
(9.88279 -2.12511 0)
(10.5475 -1.50431 0)
(10.5927 -1.48245 0)
(10.3771 -1.76855 0)
(10.7336 -2.36899 0)
(11.3282 -3.38205 0)
(11.7296 -4.41659 0)
(11.7391 -5.04172 0)
(11.367 -5.19861 0)
(10.7457 -5.02477 0)
(10.0494 -4.82588 0)
(9.55201 -4.65808 0)
(9.10229 -4.37515 0)
(8.64622 -4.08812 0)
(8.37999 -3.9002 0)
(8.11775 -3.72398 0)
(7.742 -3.47424 0)
(7.40315 -3.13526 0)
(7.09174 -2.80024 0)
(6.79928 -2.56096 0)
(6.61256 -2.37463 0)
(6.51694 -2.17616 0)
(6.42113 -1.96876 0)
(6.27448 -1.77472 0)
(6.08233 -1.60009 0)
(5.88557 -1.43723 0)
(5.73484 -1.27535 0)
(5.65271 -1.11549 0)
(5.62182 -0.972125 0)
(5.60829 -0.858383 0)
(5.58765 -0.774823 0)
(5.55316 -0.711613 0)
(5.51012 -0.656964 0)
(5.46685 -0.603266 0)
(5.42891 -0.548338 0)
(5.39793 -0.493514 0)
(5.3731 -0.441147 0)
(5.35288 -0.393028 0)
(5.33596 -0.349928 0)
(5.3215 -0.311803 0)
(5.30904 -0.278186 0)
(5.29832 -0.248487 0)
(5.28915 -0.222149 0)
(5.28134 -0.198705 0)
(5.2747 -0.17778 0)
(5.26909 -0.159071 0)
(5.26436 -0.142325 0)
(5.26035 -0.12733 0)
(5.25696 -0.113898 0)
(5.25409 -0.101866 0)
(5.25167 -0.0910896 0)
(5.24961 -0.0814369 0)
(5.24786 -0.0727913 0)
(5.24637 -0.0650491 0)
(5.24511 -0.0581165 0)
(5.24403 -0.0519088 0)
(5.24311 -0.0463503 0)
(5.24232 -0.0413741 0)
(5.24165 -0.0369197 0)
(5.24108 -0.0329319 0)
(5.24058 -0.0293617 0)
(5.24015 -0.0261658 0)
(5.23979 -0.023305 0)
(5.23947 -0.0207432 0)
(5.2392 -0.0184487 0)
(5.23896 -0.0163932 0)
(5.23876 -0.0145515 0)
(5.23859 -0.0128999 0)
(5.23843 -0.0114177 0)
(5.2383 -0.0100868 0)
(5.23819 -0.00889065 0)
(5.23809 -0.0078138 0)
(5.238 -0.0068424 0)
(5.23792 -0.00596497 0)
(5.23786 -0.00517068 0)
(5.23781 -0.00444907 0)
(5.23775 -0.00379093 0)
(5.23771 -0.00318862 0)
(5.23768 -0.00263487 0)
(5.23765 -0.00212247 0)
(5.23762 -0.00164504 0)
(5.2376 -0.00119716 0)
(5.23759 -0.00077396 0)
(5.23758 -0.000369645 0)
(5.23757 2.01704e-05 0)
(5.23756 0.000399701 0)
(5.23756 0.000772993 0)
(5.23756 0.00114425 0)
(5.23756 0.00151766 0)
(5.23756 0.00189676 0)
(5.23758 0.00228515 0)
(5.23759 0.0026871 0)
(5.2376 0.00310666 0)
(5.23761 0.00354744 0)
(5.23764 0.00401327 0)
(5.23766 0.00450898 0)
(5.23769 0.00503919 0)
(5.23772 0.00560839 0)
(5.23776 0.00622136 0)
(5.2378 0.00688419 0)
(5.23785 0.00760283 0)
(5.2379 0.00838358 0)
(5.23797 0.009233 0)
(5.23804 0.0101598 0)
(5.23811 0.0111719 0)
(5.2382 0.01228 0)
(5.2383 0.0134915 0)
(5.23841 0.0148249 0)
(5.23854 0.0162824 0)
(5.23867 0.0179011 0)
(5.23885 0.0196566 0)
(5.23899 0.0216492 0)
(5.23925 0.0237554 0)
(5.23936 0.0262747 0)
(5.23977 0.0287483 0)
(5.23974 0.0320941 0)
(5.24046 0.0348282 0)
(5.24001 0.0396394 0)
(5.24131 0.0421872 0)
(5.23994 0.049808 0)
(5.24212 0.0510079 0)
(5.23898 0.0639986 0)
(5.24198 0.0615232 0)
(5.23612 0.083814 0)
(5.23846 0.0741301 0)
(5.22943 0.10946 0)
(5.22737 0.0889824 0)
(5.21634 0.136616 0)
(5.20501 0.103953 0)
(5.19675 0.155877 0)
(5.17201 0.11213 0)
(5.18108 0.160079 0)
(5.12951 0.106835 0)
(5.19613 0.149101 0)
(5.07041 0.099894 0)
(5.26901 0.123101 0)
(4.98347 0.121694 0)
(5.3934 0.0972522 0)
(4.8651 0.163825 0)
(5.53046 0.105378 0)
(4.76192 0.194516 0)
(5.58404 0.137557 0)
(4.8019 0.219271 0)
(5.45475 0.183944 0)
(4.99217 0.225442 0)
(5.26403 0.261235 0)
(5.14134 0.220891 0)
(5.17374 0.335945 0)
(5.19598 0.267795 0)
(5.12554 0.350247 0)
(5.27095 0.373143 0)
(5.03929 0.374555 0)
(5.34981 0.433645 0)
(5.04551 0.4814 0)
(5.2725 0.471624 0)
(5.17054 0.593416 0)
(5.18499 0.555709 0)
(5.28933 0.700084 0)
(5.04691 0.672603 0)
(5.44971 0.837911 0)
(4.98013 0.814635 0)
(5.54231 0.972204 0)
(4.92794 1.01669 0)
(5.56205 1.15753 0)
(5.02048 1.29618 0)
(5.47397 1.30024 0)
(5.21788 1.60531 0)
(5.27674 1.59003 0)
(5.44421 1.95085 0)
(5.03677 2.00954 0)
(5.5078 2.30964 0)
(5.20424 2.50369 0)
(5.32531 2.69325 0)
(5.44433 3.13535 0)
(5.4013 3.41083 0)
(5.62913 3.73338 0)
(5.37991 4.47555 0)
(5.0814 5.08119 0)
(5.19641 5.67317 0)
(5.18097 7.02084 0)
(6.39608 7.82292 0)
(4.12682 11.8865 0)
(4.7791 -0.262703 0)
(5.1909 -0.0773072 0)
(4.75334 0.0876067 0)
(5.14142 -0.101802 0)
(5.04945 0.0804777 0)
(4.68796 0.246131 0)
(4.98525 0.240754 0)
(4.84096 0.431726 0)
(4.79451 0.671524 0)
(5.14982 1.03089 0)
(5.74628 1.21103 0)
(6.28825 0.91539 0)
(6.8207 0.649482 0)
(7.09885 1.04281 0)
(7.1185 1.68374 0)
(8.20617 1.06223 0)
(9.52192 -0.966786 0)
(9.7659 -2.38763 0)
(9.86597 -2.25449 0)
(10.2948 -1.60666 0)
(10.4649 -1.44147 0)
(10.7684 -1.85595 0)
(11.4169 -2.62929 0)
(11.9027 -3.58999 0)
(12.1281 -4.49655 0)
(11.9959 -4.97131 0)
(11.4976 -5.00694 0)
(10.8697 -4.80353 0)
(10.2368 -4.62156 0)
(9.74683 -4.48675 0)
(9.32809 -4.21115 0)
(8.9133 -3.94586 0)
(8.60939 -3.78328 0)
(8.28338 -3.58062 0)
(7.82889 -3.31017 0)
(7.42269 -2.98773 0)
(7.13897 -2.67513 0)
(6.90607 -2.46898 0)
(6.71792 -2.32289 0)
(6.58505 -2.13697 0)
(6.46343 -1.91277 0)
(6.30911 -1.69866 0)
(6.11754 -1.51435 0)
(5.91167 -1.3565 0)
(5.72965 -1.21529 0)
(5.6053 -1.08299 0)
(5.54557 -0.960794 0)
(5.53025 -0.855405 0)
(5.53052 -0.770137 0)
(5.52576 -0.701577 0)
(5.50873 -0.642815 0)
(5.48193 -0.58791 0)
(5.45124 -0.53406 0)
(5.42146 -0.481302 0)
(5.39495 -0.431026 0)
(5.3722 -0.384625 0)
(5.35285 -0.342846 0)
(5.33632 -0.305758 0)
(5.32213 -0.272997 0)
(5.30995 -0.244034 0)
(5.29951 -0.218341 0)
(5.29059 -0.19546 0)
(5.28297 -0.175022 0)
(5.27648 -0.15673 0)
(5.27097 -0.140339 0)
(5.26627 -0.125644 0)
(5.26225 -0.112465 0)
(5.25883 -0.100648 0)
(5.25591 -0.0900516 0)
(5.25341 -0.0805516 0)
(5.25126 -0.0720351 0)
(5.24942 -0.0644022 0)
(5.24784 -0.0575623 0)
(5.24648 -0.0514333 0)
(5.2453 -0.0459418 0)
(5.24428 -0.0410227 0)
(5.2434 -0.0366169 0)
(5.24265 -0.0326708 0)
(5.24198 -0.0291361 0)
(5.24141 -0.0259707 0)
(5.24091 -0.0231361 0)
(5.24048 -0.0205968 0)
(5.2401 -0.0183215 0)
(5.23977 -0.0162828 0)
(5.23949 -0.0144555 0)
(5.23924 -0.0128164 0)
(5.23901 -0.0113451 0)
(5.23882 -0.0100236 0)
(5.23866 -0.00883575 0)
(5.23851 -0.00776606 0)
(5.23838 -0.00680096 0)
(5.23827 -0.00592911 0)
(5.23818 -0.0051397 0)
(5.23809 -0.00442233 0)
(5.23802 -0.00376801 0)
(5.23795 -0.00316902 0)
(5.2379 -0.00261826 0)
(5.23786 -0.00210853 0)
(5.23782 -0.00163339 0)
(5.23778 -0.00118772 0)
(5.23776 -0.000766414 0)
(5.23774 -0.000363988 0)
(5.23773 2.38606e-05 0)
(5.23771 0.000402206 0)
(5.23771 0.000773956 0)
(5.23771 0.00114367 0)
(5.23772 0.00151562 0)
(5.23772 0.00189326 0)
(5.23774 0.00228015 0)
(5.23776 0.0026805 0)
(5.23778 0.00309842 0)
(5.2378 0.0035375 0)
(5.23784 0.00400153 0)
(5.23788 0.00449527 0)
(5.23792 0.0050234 0)
(5.23797 0.00559032 0)
(5.23803 0.00620085 0)
(5.23809 0.00686095 0)
(5.23816 0.00757663 0)
(5.23824 0.008354 0)
(5.23834 0.00919972 0)
(5.23844 0.0101223 0)
(5.23855 0.0111297 0)
(5.23868 0.0122326 0)
(5.23883 0.0134381 0)
(5.23899 0.0147651 0)