/*--------------------------------*- C++ -*----------------------------------*\
| =========                 |                                                 |
| \\      /  F ield         | OpenFOAM: The Open Source CFD Toolbox           |
|  \\    /   O peration     | Version:  2.4.0                                 |
|   \\  /    A nd           | Web:      www.OpenFOAM.org                      |
|    \\/     M anipulation  |                                                 |
\*---------------------------------------------------------------------------*/
FoamFile
{
    version     2.0;
    format      ascii;
    class       volSymmTensorField;
    location    "0.027";
    object      UPrime2Mean;
}
// * * * * * * * * * * * * * * * * * * * * * * * * * * * * * * * * * * * * * //

dimensions      [0 2 -2 0 0 0 0];

internalField   nonuniform List<symmTensor> 
17600
(
(0.138191 -0.0149546 0 0.00228778 0 0)
(1.42248 -0.00619485 0 0.000137272 0 0)
(1.83416 -0.000353522 0 8.82125e-06 0 0)
(2.02307 -0.00158947 0 5.92432e-06 0 0)
(2.15416 -0.00114637 0 2.81587e-06 0 0)
(2.2377 -0.000423556 0 1.5834e-06 0 0)
(2.28931 -6.81005e-05 0 1.01374e-06 0 0)
(2.31997 4.36116e-05 0 5.95717e-07 0 0)
(2.33673 2.79842e-05 0 5.76906e-07 0 0)
(2.35228 -6.77632e-05 0 4.45126e-07 0 0)
(2.35888 -7.10043e-05 0 2.70467e-07 0 0)
(2.38042 -0.000190692 0 5.39893e-07 0 0)
(2.38827 -0.000201906 0 4.97335e-07 0 0)
(2.41952 -0.00031742 0 9.38906e-07 0 0)
(2.43114 -0.000523348 0 1.11568e-06 0 0)
(2.49102 -0.0011164 0 6.8022e-06 0 0)
(2.54925 -0.00237101 0 6.86618e-06 0 0)
(2.82771 0.00197322 0 7.63183e-05 0 0)
(3.26762 -0.09993 0 0.00438687 0 0)
(6.16401 0.506147 0 0.0652005 0 0)
(0.0693164 0.0303945 0 0.0235061 0 0)
(0.559842 -0.0534984 0 0.00542577 0 0)
(1.10957 -0.0292797 0 0.000786221 0 0)
(1.462 -0.0201171 0 0.000306397 0 0)
(1.77006 -0.0156805 0 0.000232505 0 0)
(2.03333 -0.0115179 0 0.000198491 0 0)
(2.23558 -0.00763425 0 0.000141499 0 0)
(2.37418 -0.0044512 0 7.55041e-05 0 0)
(2.45488 -0.00290242 0 3.6105e-05 0 0)
(2.52804 -0.00219864 0 1.78765e-05 0 0)
(2.54696 -0.00231586 0 7.27863e-06 0 0)
(2.6375 -0.00296342 0 8.78981e-06 0 0)
(2.64294 -0.00322755 0 1.71089e-05 0 0)
(2.76626 -0.00298435 0 1.0449e-05 0 0)
(2.74719 -0.00488477 0 2.16152e-05 0 0)
(2.94969 -0.00473549 0 2.36069e-05 0 0)
(2.8884 -0.0181904 0 0.000189012 0 0)
(3.87381 -0.0284441 0 0.00027718 0 0)
(3.25204 -0.0999084 0 0.00430334 0 0)
(11.29 -1.4134 0 0.252229 0 0)
(0.235027 0.0886709 0 0.0366406 0 0)
(0.0901275 -0.0329843 0 0.0151469 0 0)
(0.374587 -0.0357258 0 0.00374346 0 0)
(0.623013 -0.0330612 0 0.00179388 0 0)
(0.912054 -0.0317777 0 0.00132958 0 0)
(1.22123 -0.0275578 0 0.00111806 0 0)
(1.4995 -0.0209825 0 0.000836077 0 0)
(1.71705 -0.0136209 0 0.000470046 0 0)
(1.84997 -0.0092913 0 0.000245223 0 0)
(1.98087 -0.00644497 0 0.000101176 0 0)
(2.00358 -0.00653867 0 4.206e-05 0 0)
(2.16078 -0.00748626 0 5.49196e-05 0 0)
(2.14555 -0.00819398 0 7.35898e-05 0 0)
(2.358 -0.00762747 0 7.03628e-05 0 0)
(2.28996 -0.010549 0 7.50416e-05 0 0)
(2.60034 -0.0107996 0 6.28195e-05 0 0)
(2.46014 -0.0394534 0 0.000702646 0 0)
(3.49946 -0.0488988 0 0.00144566 0 0)
(3.23341 -0.236981 0 0.0241803 0 0)
(8.6031 -1.70317 0 0.557269 0 0)
(0.307855 0.0974772 0 0.0328362 0 0)
(0.00782422 0.00657699 0 0.0232311 0 0)
(0.0513258 -0.0128247 0 0.00803057 0 0)
(0.106262 -0.0195287 0 0.00467332 0 0)
(0.212512 -0.0273659 0 0.00372673 0 0)
(0.388629 -0.0309011 0 0.00317348 0 0)
(0.596903 -0.0283174 0 0.00248906 0 0)
(0.799299 -0.0208996 0 0.00145504 0 0)
(0.92986 -0.0150275 0 0.00082957 0 0)
(1.08051 -0.0104917 0 0.000318345 0 0)
(1.0952 -0.0104079 0 0.000158211 0 0)
(1.27932 -0.0106965 0 0.000147799 0 0)
(1.24179 -0.0137745 0 0.000250182 0 0)
(1.4869 -0.00760795 0 0.000222169 0 0)
(1.39416 -0.0198158 0 0.00045084 0 0)
(1.69892 0.000376042 0 0.000333046 0 0)
(1.59562 -0.0661731 0 0.00372453 0 0)
(2.14502 -0.0162664 0 0.00168367 0 0)
(2.72588 -0.382665 0 0.0832648 0 0)
(3.81455 -0.642707 0 0.342279 0 0)
(0.288302 0.0791054 0 0.0231151 0 0)
(0.0269157 0.0241257 0 0.0240954 0 0)
(0.0364563 0.0120381 0 0.00983693 0 0)
(0.0411322 0.00893424 0 0.007023 0 0)
(0.0242743 0.000403743 0 0.00663236 0 0)
(0.0330919 -0.0105515 0 0.00601699 0 0)
(0.0866304 -0.0170079 0 0.00499893 0 0)
(0.179701 -0.0171693 0 0.00308384 0 0)
(0.249058 -0.0136378 0 0.0018586 0 0)
(0.35478 -0.0109117 0 0.000739872 0 0)
(0.357043 -0.00955616 0 0.000339458 0 0)
(0.49479 -0.0121971 0 0.000441263 0 0)
(0.470243 -0.0114891 0 0.000363327 0 0)
(0.630287 -0.0138798 0 0.000589897 0 0)
(0.617924 -0.00780898 0 0.000387529 0 0)
(0.738668 -0.0221987 0 0.000891393 0 0)
(0.7815 -0.00989652 0 0.00195838 0 0)
(0.990329 -0.103957 0 0.0212324 0 0)
(1.2765 -0.109003 0 0.0354338 0 0)
(2.00454 -0.837729 0 0.967365 0 0)
(0.268992 0.0646217 0 0.0165878 0 0)
(0.0242879 0.0217424 0 0.021505 0 0)
(0.0517816 0.017284 0 0.00840787 0 0)
(0.101118 0.0226759 0 0.00664591 0 0)
(0.112098 0.0250402 0 0.00776928 0 0)
(0.084814 0.0182755 0 0.00805442 0 0)
(0.0579991 0.00921515 0 0.00734358 0 0)
(0.0425145 -0.00049714 0 0.00476502 0 0)
(0.0453352 -0.00213092 0 0.00329468 0 0)
(0.0669338 -0.00442592 0 0.00131867 0 0)
(0.0574883 -0.00354076 0 0.000729223 0 0)
(0.107939 -0.00554881 0 0.000749641 0 0)
(0.0917217 -0.00791847 0 0.000982845 0 0)
(0.157015 -0.00507609 0 0.000999905 0 0)
(0.160288 -0.0107148 0 0.00191422 0 0)
(0.199517 -0.000394367 0 0.00145316 0 0)
(0.21616 -0.0252234 0 0.010316 0 0)
(0.298083 -0.0107923 0 0.00616246 0 0)
(0.391808 -0.147801 0 0.130461 0 0)
(0.750754 -0.328521 0 0.456197 0 0)
(0.26551 0.0555549 0 0.0123959 0 0)
(0.0164857 0.0165538 0 0.01906 0 0)
(0.043683 0.0140993 0 0.00679507 0 0)
(0.10516 0.0204056 0 0.00484208 0 0)
(0.157186 0.0295139 0 0.00670694 0 0)
(0.167155 0.0301903 0 0.00778138 0 0)
(0.174364 0.0278673 0 0.00811561 0 0)
(0.142066 0.0159058 0 0.00565365 0 0)
(0.146467 0.0124203 0 0.00394445 0 0)
(0.114206 0.00499296 0 0.00191849 0 0)
(0.121401 0.0070809 0 0.000862723 0 0)
(0.092621 0.00309082 0 0.00143586 0 0)
(0.0963353 0.00388206 0 0.000795285 0 0)
(0.0726631 0.000827283 0 0.00169626 0 0)
(0.0855861 0.00176189 0 0.00127382 0 0)
(0.059593 0.00351581 0 0.00281169 0 0)
(0.0603771 0.00367334 0 0.00405085 0 0)
(0.0464531 0.0057202 0 0.0333399 0 0)
(0.060054 -0.0151891 0 0.052403 0 0)
(0.171312 -0.083795 0 0.618817 0 0)
(0.268799 0.0481467 0 0.00920921 0 0)
(0.0113137 0.0124653 0 0.016743 0 0)
(0.0350229 0.011051 0 0.00590709 0 0)
(0.0903903 0.0158737 0 0.00352155 0 0)
(0.145684 0.0249267 0 0.00515024 0 0)
(0.166412 0.0282074 0 0.00653181 0 0)
(0.199347 0.0297005 0 0.00721565 0 0)
(0.192888 0.021014 0 0.00495684 0 0)
(0.222546 0.0169428 0 0.00418725 0 0)
(0.214924 0.0106426 0 0.002056 0 0)
(0.232182 0.0127296 0 0.00106024 0 0)
(0.225304 0.0105476 0 0.00145561 0 0)
(0.215856 0.0121887 0 0.0016352 0 0)
(0.205433 0.00826999 0 0.00176951 0 0)
(0.183561 0.00992456 0 0.00272129 0 0)
(0.167027 0.00696143 0 0.00215045 0 0)
(0.130016 0.0206274 0 0.00813314 0 0)
(0.0925674 0.0301099 0 0.0147024 0 0)
(0.0508676 0.0404896 0 0.0958166 0 0)
(0.0678792 0.111365 0 0.639651 0 0)
(0.271492 0.0415991 0 0.00677901 0 0)
(0.00879883 0.00965358 0 0.0139271 0 0)
(0.028482 0.00874879 0 0.00547851 0 0)
(0.0783325 0.0125095 0 0.00245672 0 0)
(0.124336 0.0203473 0 0.00392085 0 0)
(0.148848 0.0238364 0 0.00502367 0 0)
(0.173376 0.0257383 0 0.00624573 0 0)
(0.184281 0.0186018 0 0.00461481 0 0)
(0.210224 0.0156426 0 0.00301224 0 0)
(0.228554 0.0113917 0 0.00178091 0 0)
(0.250116 0.0115097 0 0.00071626 0 0)
(0.265472 0.0145524 0 0.00178992 0 0)
(0.270915 0.0122941 0 0.00100828 0 0)
(0.274241 0.0169897 0 0.00203423 0 0)
(0.263764 0.0103885 0 0.00187851 0 0)
(0.248591 0.0206401 0 0.00291874 0 0)
(0.21705 0.0267445 0 0.00497536 0 0)
(0.171773 0.0525253 0 0.0262572 0 0)
(0.121281 0.0883031 0 0.091824 0 0)
(0.128485 0.17027 0 0.445583 0 0)
(0.274256 0.0355365 0 0.00494857 0 0)
(0.00670016 0.00708547 0 0.0114355 0 0)
(0.0236903 0.00696351 0 0.00503173 0 0)
(0.068078 0.00981409 0 0.00182978 0 0)
(0.110358 0.0163282 0 0.00290405 0 0)
(0.132093 0.0200651 0 0.00401545 0 0)
(0.151647 0.0219611 0 0.00504438 0 0)
(0.163042 0.0163622 0 0.00320139 0 0)
(0.186356 0.0131219 0 0.002913 0 0)
(0.208221 0.00900003 0 0.00177278 0 0)
(0.227297 0.0110242 0 0.000794427 0 0)
(0.251451 0.0117818 0 0.0013148 0 0)
(0.256965 0.0131047 0 0.00135755 0 0)
(0.271339 0.0139182 0 0.00176957 0 0)
(0.263504 0.0136001 0 0.00228524 0 0)
(0.263954 0.0186303 0 0.00281824 0 0)
(0.230885 0.0304192 0 0.00639251 0 0)
(0.206875 0.0662636 0 0.0300233 0 0)
(0.155827 0.0931922 0 0.0848558 0 0)
(0.187988 0.244755 0 0.528595 0 0)
(0.276737 0.0301894 0 0.00352598 0 0)
(0.00550807 0.00519808 0 0.00907865 0 0)
(0.0202435 0.00554515 0 0.00471656 0 0)
(0.060473 0.00779764 0 0.00126498 0 0)
(0.0991548 0.0133983 0 0.0021335 0 0)
(0.118871 0.0168568 0 0.00306322 0 0)
(0.134303 0.0189385 0 0.00425697 0 0)
(0.146343 0.0138991 0 0.00322857 0 0)
(0.166533 0.0106147 0 0.00198782 0 0)
(0.188745 0.00847477 0 0.00126641 0 0)
(0.206237 0.00813184 0 0.000468165 0 0)
(0.229569 0.0120517 0 0.00144368 0 0)
(0.234981 0.00994984 0 0.000891043 0 0)
(0.24925 0.014717 0 0.0014576 0 0)
(0.243319 0.0119475 0 0.00174126 0 0)
(0.247303 0.019816 0 0.00250207 0 0)
(0.219848 0.0333761 0 0.00624071 0 0)
(0.203008 0.0626521 0 0.0259862 0 0)
(0.161687 0.108401 0 0.0954835 0 0)
(0.201211 0.255809 0 0.434405 0 0)
(0.278297 0.0254035 0 0.00252437 0 0)
(0.00466081 0.00370002 0 0.00710394 0 0)
(0.0175805 0.0041171 0 0.00431602 0 0)
(0.0542565 0.00609273 0 0.000878855 0 0)
(0.0898277 0.0107233 0 0.00154123 0 0)
(0.108194 0.0139095 0 0.00232009 0 0)
(0.120665 0.0162907 0 0.0034098 0 0)
(0.132167 0.01159 0 0.00204533 0 0)
(0.150473 0.00947914 0 0.00179589 0 0)
(0.172198 0.00648058 0 0.00139337 0 0)
(0.189073 0.00795495 0 0.000565052 0 0)
(0.210493 0.00951156 0 0.00102397 0 0)
(0.2171 0.00970704 0 0.000942363 0 0)
(0.229299 0.0126657 0 0.00136351 0 0)
(0.22501 0.0117501 0 0.00167135 0 0)
(0.230215 0.0215359 0 0.00332607 0 0)
(0.208566 0.0313399 0 0.00616154 0 0)
(0.197625 0.0702874 0 0.0314325 0 0)
(0.167384 0.11242 0 0.0913502 0 0)
(0.220275 0.263953 0 0.407029 0 0)
(0.279635 0.0211203 0 0.00174009 0 0)
(0.00408543 0.00260506 0 0.00539081 0 0)
(0.0157787 0.00306106 0 0.00383389 0 0)
(0.0488011 0.00481633 0 0.000612193 0 0)
(0.0826422 0.00862239 0 0.00108947 0 0)
(0.0989136 0.0115655 0 0.0017397 0 0)
(0.110089 0.0137582 0 0.00270727 0 0)
(0.119792 0.00979953 0 0.00198172 0 0)
(0.138465 0.00765989 0 0.00129022 0 0)
(0.157498 0.00574955 0 0.000912546 0 0)
(0.176362 0.00619779 0 0.000348623 0 0)
(0.195049 0.0090214 0 0.000999746 0 0)
(0.202731 0.00815014 0 0.000759448 0 0)
(0.213675 0.0114149 0 0.000987692 0 0)
(0.210973 0.0117581 0 0.00145802 0 0)
(0.217701 0.019685 0 0.00260734 0 0)
(0.200807 0.0333589 0 0.00657536 0 0)
(0.195933 0.0701159 0 0.0302489 0 0)
(0.176319 0.117053 0 0.0897381 0 0)
(0.246608 0.27811 0 0.377322 0 0)
(0.280431 0.0174099 0 0.00120284 0 0)
(0.00378815 0.00178447 0 0.00396152 0 0)
(0.0145445 0.0020563 0 0.00312526 0 0)
(0.0445642 0.00380629 0 0.000417923 0 0)
(0.076434 0.00688725 0 0.000753827 0 0)
(0.0918524 0.00932684 0 0.00123055 0 0)
(0.101132 0.0116142 0 0.00205379 0 0)
(0.110531 0.0079982 0 0.00124681 0 0)
(0.127718 0.0065772 0 0.000969279 0 0)
(0.146901 0.00450689 0 0.000937119 0 0)
(0.16486 0.00547258 0 0.000374081 0 0)
(0.182865 0.00740599 0 0.000718238 0 0)
(0.190951 0.00720024 0 0.000657633 0 0)
(0.20158 0.0105728 0 0.000971876 0 0)
(0.19946 0.0108547 0 0.00126838 0 0)
(0.208045 0.0206906 0 0.00299734 0 0)
(0.196076 0.0330017 0 0.00644908 0 0)
(0.196002 0.0715238 0 0.0304476 0 0)
(0.187761 0.122327 0 0.0886704 0 0)
(0.265336 0.282083 0 0.3424 0 0)
(0.280995 0.0140019 0 0.000784811 0 0)
(0.00367086 0.00119808 0 0.00279049 0 0)
(0.0137816 0.00130163 0 0.0023595 0 0)
(0.0411818 0.0030223 0 0.000299043 0 0)
(0.0715249 0.00542903 0 0.000534113 0 0)
(0.0861218 0.00751861 0 0.000888534 0 0)
(0.0941642 0.00947041 0 0.00152798 0 0)
(0.102784 0.00651351 0 0.00107295 0 0)
(0.119511 0.00520233 0 0.000729354 0 0)
(0.137895 0.0036933 0 0.000632474 0 0)
(0.155861 0.00442653 0 0.000265875 0 0)
(0.173029 0.00644831 0 0.000637457 0 0)
(0.18152 0.00634648 0 0.00060986 0 0)
(0.191447 0.00906188 0 0.000742176 0 0)
(0.190811 0.0107675 0 0.00115072 0 0)
(0.200644 0.0202107 0 0.0028428 0 0)
(0.193123 0.0331205 0 0.00660943 0 0)
(0.198146 0.0724412 0 0.0304187 0 0)
(0.199932 0.125622 0 0.0857969 0 0)
(0.287028 0.28211 0 0.309358 0 0)
(0.281391 0.0110543 0 0.000498401 0 0)
(0.00361462 0.000779882 0 0.00183082 0 0)
(0.0133227 0.000760935 0 0.00161921 0 0)
(0.0385422 0.0023547 0 0.000191703 0 0)
(0.0676536 0.00423119 0 0.000341271 0 0)
(0.0816187 0.00579666 0 0.000568564 0 0)
(0.0887301 0.00760954 0 0.00104364 0 0)
(0.0967345 0.00515062 0 0.000672492 0 0)
(0.11302 0.00420936 0 0.000449077 0 0)
(0.130753 0.00290975 0 0.000545777 0 0)
(0.148914 0.00361244 0 0.000259184 0 0)
(0.165137 0.00532002 0 0.000458352 0 0)
(0.174139 0.00542585 0 0.000457149 0 0)
(0.183808 0.00821623 0 0.000628464 0 0)
(0.184376 0.0102151 0 0.000978894 0 0)
(0.195235 0.019882 0 0.00270921 0 0)
(0.19238 0.0332563 0 0.0065365 0 0)
(0.20188 0.0728485 0 0.029525 0 0)
(0.213544 0.127877 0 0.0814866 0 0)
(0.311183 0.282295 0 0.278381 0 0)
(0.281599 0.00834736 0 0.000290778 0 0)
(0.00363473 0.000469522 0 0.0010898 0 0)
(0.0130884 0.000383576 0 0.00103507 0 0)
(0.0365785 0.00175296 0 0.000125319 0 0)
(0.0646492 0.00316718 0 0.000233299 0 0)
(0.0782669 0.0042986 0 0.000373937 0 0)
(0.0845343 0.00580661 0 0.000693271 0 0)
(0.092198 0.00387438 0 0.000489862 0 0)
(0.108038 0.00315437 0 0.000329908 0 0)
(0.125454 0.0021503 0 0.000389099 0 0)
(0.143488 0.00282469 0 0.000202469 0 0)
(0.159314 0.00430044 0 0.000365244 0 0)
(0.168527 0.00473431 0 0.000442576 0 0)
(0.178136 0.00706896 0 0.000531856 0 0)
(0.179773 0.00977452 0 0.000861928 0 0)
(0.191889 0.0196518 0 0.00261677 0 0)
(0.19309 0.0331723 0 0.00642602 0 0)
(0.206969 0.0727993 0 0.0283063 0 0)
(0.227992 0.129221 0 0.0771219 0 0)
(0.332923 0.27927 0 0.250586 0 0)
(0.281732 0.0058964 0 0.000149112 0 0)
(0.00366672 0.000265166 0 0.000543367 0 0)
(0.0129784 0.000161945 0 0.000558321 0 0)
(0.0351746 0.00120516 0 6.54797e-05 0 0)
(0.062485 0.00223918 0 0.00013339 0 0)
(0.0758169 0.00291426 0 0.000206313 0 0)
(0.081589 0.00411364 0 0.000395748 0 0)
(0.0888694 0.0027554 0 0.000292258 0 0)
(0.104499 0.00220583 0 0.000174786 0 0)
(0.121568 0.00154518 0 0.000274062 0 0)
(0.13966 0.00206397 0 0.000177049 0 0)
(0.155047 0.00337101 0 0.000263419 0 0)
(0.164589 0.00393932 0 0.000321925 0 0)
(0.174209 0.00617282 0 0.000419616 0 0)
(0.176933 0.00932195 0 0.000746823 0 0)
(0.190128 0.0192105 0 0.00243763 0 0)
(0.195219 0.0330018 0 0.00623623 0 0)
(0.213433 0.0722299 0 0.0267884 0 0)
(0.243208 0.12964 0 0.0721603 0 0)
(0.355774 0.273441 0 0.221983 0 0)
(0.281763 0.00360271 0 6.11616e-05 0 0)
(0.00370271 0.000105515 0 0.000196865 0 0)
(0.0129353 3.19716e-05 0 0.0002424 0 0)
(0.0342715 0.000677473 0 3.81008e-05 0 0)
(0.0610693 0.00140137 0 8.90807e-05 0 0)
(0.0742463 0.00161932 0 0.000125808 0 0)
(0.0796669 0.00251587 0 0.000218594 0 0)
(0.0867129 0.00163232 0 0.000185728 0 0)
(0.102186 0.00131793 0 0.00012915 0 0)
(0.119065 0.000851165 0 0.000197762 0 0)
(0.137196 0.0013581 0 0.000156572 0 0)
(0.152373 0.00237545 0 0.000197617 0 0)
(0.162147 0.00323345 0 0.000274875 0 0)
(0.171858 0.00517873 0 0.000340165 0 0)
(0.175698 0.008794 0 0.00064549 0 0)
(0.189949 0.0187345 0 0.0022537 0 0)
(0.19867 0.0326444 0 0.0059543 0 0)
(0.221064 0.0713929 0 0.0250202 0 0)
(0.259072 0.12902 0 0.066622 0 0)
(0.378414 0.267292 0 0.197025 0 0)
(0.281717 0.00139958 0 1.49297e-05 0 0)
(0.00372874 -8.86926e-06 0 3.14794e-05 0 0)
(0.0129228 -2.68043e-05 0 5.56224e-05 0 0)
(0.0338345 0.000170607 0 2.42487e-05 0 0)
(0.0603622 0.000609665 0 5.19604e-05 0 0)
(0.0734917 0.000387681 0 7.8009e-05 0 0)
(0.0787304 0.000908834 0 0.000111113 0 0)
(0.0856628 0.00060732 0 0.000115442 0 0)
(0.101027 0.000405706 0 9.89569e-05 0 0)
(0.117895 0.000303325 0 0.000134173 0 0)
(0.136009 0.000654378 0 0.000139271 0 0)
(0.15116 0.00147091 0 0.000152661 0 0)
(0.16112 0.00250268 0 0.000206695 0 0)
(0.171047 0.00428303 0 0.000273182 0 0)
(0.17597 0.00828971 0 0.00056283 0 0)
(0.191212 0.0181986 0 0.00204606 0 0)
(0.203385 0.0321957 0 0.00561258 0 0)
(0.22981 0.0701805 0 0.0230676 0 0)
(0.275483 0.127515 0 0.0609839 0 0)
(0.401101 0.259018 0 0.173447 0 0)
(0.281599 -0.000759843 0 1.07184e-05 0 0)
(0.00373602 -0.000122505 0 5.50953e-05 0 0)
(0.0129177 -6.66723e-05 0 2.26933e-05 0 0)
(0.0338364 -0.000339031 0 4.1158e-05 0 0)
(0.0603513 -0.000156913 0 5.21402e-05 0 0)
(0.0735095 -0.000840238 0 9.36097e-05 0 0)
(0.0787489 -0.000654605 0 0.000109007 0 0)
(0.0856497 -0.000460854 0 0.000107754 0 0)
(0.101017 -0.000468429 0 0.000132201 0 0)
(0.117943 -0.00030681 0 0.000106722 0 0)
(0.136112 -6.65949e-05 0 0.000138205 0 0)
(0.151338 0.000544371 0 0.000136451 0 0)
(0.161505 0.00176482 0 0.000165385 0 0)
(0.171678 0.00334944 0 0.000231684 0 0)
(0.17771 0.00768282 0 0.000505885 0 0)
(0.193891 0.0175371 0 0.00184973 0 0)
(0.209345 0.0315604 0 0.00521984 0 0)
(0.239632 0.0684691 0 0.0209645 0 0)
(0.292684 0.12508 0 0.0550345 0 0)
(0.424398 0.24969 0 0.151193 0 0)
(0.28141 -0.00296659 0 4.54037e-05 0 0)
(0.00372539 -0.000245805 0 0.000258625 0 0)
(0.012921 -0.000120092 0 0.000132933 0 0)
(0.0342794 -0.000856125 0 7.58378e-05 0 0)
(0.061036 -0.000950145 0 6.93092e-05 0 0)
(0.0743034 -0.0020734 0 0.000154233 0 0)
(0.0797184 -0.00224696 0 0.000195589 0 0)
(0.0866922 -0.00150515 0 0.000152826 0 0)
(0.102125 -0.00137295 0 0.000208303 0 0)
(0.119255 -0.000903943 0 0.000108572 0 0)
(0.13748 -0.000768593 0 0.000144272 0 0)
(0.152919 -0.000370774 0 0.000139753 0 0)
(0.163287 0.000983766 0 0.00012835 0 0)
(0.173791 0.002429 0 0.00020234 0 0)
(0.180894 0.00708978 0 0.00045904 0 0)
(0.198041 0.0167974 0 0.0016395 0 0)
(0.216533 0.0308063 0 0.00479014 0 0)
(0.250631 0.0663948 0 0.0187619 0 0)
(0.31058 0.121916 0 0.0491877 0 0)
(0.446763 0.23925 0 0.131244 0 0)
(0.281145 -0.00526692 0 0.000124457 0 0)
(0.00370214 -0.000410883 0 0.000651043 0 0)
(0.0129505 -0.000229577 0 0.000388956 0 0)
(0.0351868 -0.00139365 0 0.000131584 0 0)
(0.0624299 -0.00179891 0 0.00011416 0 0)
(0.075912 -0.00336291 0 0.000268713 0 0)
(0.0816734 -0.00387242 0 0.000373802 0 0)
(0.0888271 -0.0025918 0 0.000251234 0 0)
(0.104409 -0.0023062 0 0.000330373 0 0)
(0.121853 -0.00151747 0 0.00013945 0 0)
(0.140161 -0.00151391 0 0.000163822 0 0)
(0.155936 -0.00130125 0 0.000169452 0 0)
(0.166535 0.000151221 0 0.00010837 0 0)
(0.177406 0.00150043 0 0.000196965 0 0)
(0.185609 0.00641932 0 0.000432587 0 0)
(0.203684 0.0159683 0 0.0014452 0 0)
(0.225047 0.0298869 0 0.004327 0 0)
(0.262802 0.0639295 0 0.0165415 0 0)
(0.329038 0.117921 0 0.0434017 0 0)
(0.469521 0.227723 0 0.112693 0 0)
(0.280797 -0.00773737 0 0.000255263 0 0)
(0.00367817 -0.000640963 0 0.00123587 0 0)
(0.0130435 -0.000433509 0 0.000785062 0 0)
(0.0366005 -0.00196557 0 0.00020223 0 0)
(0.0645756 -0.00273553 0 0.000187554 0 0)
(0.0783866 -0.00474591 0 0.000440843 0 0)
(0.0846867 -0.00557998 0 0.000648611 0 0)
(0.0921312 -0.00373926 0 0.000407032 0 0)
(0.107947 -0.00330087 0 0.000501468 0 0)
(0.12582 -0.00216557 0 0.000199344 0 0)
(0.144248 -0.00230403 0 0.000198097 0 0)
(0.160473 -0.00224935 0 0.000221956 0 0)
(0.17133 -0.000763236 0 0.000106422 0 0)
(0.182647 0.000536761 0 0.000217271 0 0)
(0.191943 0.0056939 0 0.000424004 0 0)
(0.210934 0.0150357 0 0.00126322 0 0)
(0.23498 0.0287849 0 0.00384623 0 0)
(0.276214 0.0610555 0 0.0143446 0 0)
(0.348505 0.11321 0 0.0377586 0 0)
(0.494271 0.21554 0 0.0955736 0 0)
(0.280349 -0.0104375 0 0.000451029 0 0)
(0.00367278 -0.000965646 0 0.00202051 0 0)
(0.0132591 -0.000771056 0 0.00131907 0 0)
(0.0385869 -0.00258908 0 0.000287236 0 0)
(0.0675308 -0.00379653 0 0.000295775 0 0)
(0.0818196 -0.0062593 0 0.000674584 0 0)
(0.0888694 -0.00738811 0 0.00101525 0 0)
(0.0967262 -0.00498029 0 0.000620312 0 0)
(0.112869 -0.00435948 0 0.000713572 0 0)
(0.131283 -0.00285719 0 0.000279141 0 0)
(0.149865 -0.00314603 0 0.000240548 0 0)
(0.166659 -0.00322366 0 0.000288675 0 0)
(0.177818 -0.00177644 0 0.000119338 0 0)
(0.189665 -0.00045236 0 0.000252529 0 0)
(0.200043 0.00490251 0 0.000420959 0 0)
(0.219954 0.0140169 0 0.00109158 0 0)
(0.246464 0.0275197 0 0.00336116 0 0)
(0.291106 0.0577715 0 0.0122024 0 0)
(0.369331 0.107834 0 0.0323627 0 0)
(0.519058 0.2025 0 0.0801169 0 0)
(0.279778 -0.0134371 0 0.000731463 0 0)
(0.00371474 -0.0014169 0 0.00301166 0 0)
(0.0136799 -0.00128104 0 0.00197757 0 0)
(0.0412342 -0.00329009 0 0.000390376 0 0)
(0.0713837 -0.00502352 0 0.000449348 0 0)
(0.0863331 -0.00793306 0 0.000981044 0 0)
(0.0943749 -0.00933167 0 0.0014773 0 0)
(0.102777 -0.00633449 0 0.000894913 0 0)
(0.119358 -0.00552351 0 0.00097329 0 0)
(0.138412 -0.00362417 0 0.000384919 0 0)
(0.157204 -0.00406652 0 0.000297983 0 0)
(0.174663 -0.00422948 0 0.000371146 0 0)
(0.186202 -0.00292541 0 0.000152697 0 0)
(0.198663 -0.00147634 0 0.000306608 0 0)
(0.210131 0.00400492 0 0.000427939 0 0)
(0.230946 0.0128837 0 0.000936968 0 0)
(0.25972 0.0261102 0 0.00288453 0 0)
(0.30768 0.0540366 0 0.0101453 0 0)
(0.391268 0.101839 0 0.0272953 0 0)
(0.543727 0.18855 0 0.0661324 0 0)
(0.279041 -0.0168109 0 0.00112553 0 0)
(0.00384584 -0.00203457 0 0.00421804 0 0)
(0.0144118 -0.00199579 0 0.00271445 0 0)
(0.0446544 -0.00411112 0 0.000522902 0 0)
(0.076256 -0.00646721 0 0.000661217 0 0)
(0.0921014 -0.00980924 0 0.00136761 0 0)
(0.101413 -0.0114274 0 0.00202654 0 0)
(0.110505 -0.00782392 0 0.00123165 0 0)
(0.127651 -0.00681051 0 0.00127883 0 0)
(0.147444 -0.0044795 0 0.000508121 0 0)
(0.166505 -0.00509168 0 0.000365345 0 0)
(0.184724 -0.00528941 0 0.00046392 0 0)
(0.196735 -0.00421199 0 0.000207896 0 0)
(0.209916 -0.00253532 0 0.000378685 0 0)
(0.222464 0.00300667 0 0.000442656 0 0)
(0.244205 0.0116261 0 0.000796814 0 0)
(0.274983 0.024583 0 0.00242888 0 0)
(0.326097 0.0498275 0 0.00821587 0 0)
(0.414697 0.0951626 0 0.0225629 0 0)
(0.571642 0.173963 0 0.0534629 0 0)
(0.278085 -0.0205993 0 0.00167008 0 0)
(0.0041275 -0.00288052 0 0.00567893 0 0)
(0.0155828 -0.00292409 0 0.00340254 0 0)
(0.0489876 -0.00513837 0 0.000712653 0 0)
(0.0823243 -0.00821562 0 0.000957738 0 0)
(0.0993655 -0.0119393 0 0.00184963 0 0)
(0.110261 -0.0137202 0 0.00266987 0 0)
(0.120195 -0.0094907 0 0.00164173 0 0)
(0.138039 -0.00822619 0 0.00162424 0 0)
(0.158651 -0.00543094 0 0.000638841 0 0)
(0.178063 -0.00622976 0 0.000444739 0 0)
(0.19713 -0.00643478 0 0.00056901 0 0)
(0.209734 -0.00568395 0 0.000289107 0 0)
(0.223762 -0.00366086 0 0.000464859 0 0)
(0.237384 0.00191618 0 0.000459273 0 0)
(0.260092 0.0102789 0 0.000673158 0 0)
(0.292568 0.0228873 0 0.0019956 0 0)
(0.346748 0.045173 0 0.00646161 0 0)
(0.440394 0.0878632 0 0.0182132 0 0)
(0.601129 0.158286 0 0.0420656 0 0)
(0.276845 -0.0248624 0 0.00241529 0 0)
(0.0046445 -0.00402642 0 0.00742677 0 0)
(0.0173374 -0.00404181 0 0.00392764 0 0)
(0.0543156 -0.00647468 0 0.000997888 0 0)
(0.0897179 -0.0103587 0 0.00137737 0 0)
(0.108317 -0.0143872 0 0.0024523 0 0)
(0.121155 -0.0162483 0 0.00341596 0 0)
(0.132084 -0.0113859 0 0.00213534 0 0)
(0.150789 -0.00981472 0 0.00201384 0 0)
(0.172286 -0.00651611 0 0.000787426 0 0)
(0.192179 -0.00747718 0 0.000541403 0 0)
(0.212178 -0.00767127 0 0.000683128 0 0)
(0.225588 -0.0073815 0 0.000403637 0 0)
(0.240644 -0.0048491 0 0.000566168 0 0)
(0.255396 0.000624401 0 0.000488233 0 0)
(0.279143 0.00889468 0 0.000571995 0 0)
(0.31301 0.0209413 0 0.00158275 0 0)
(0.370238 0.0401621 0 0.00492629 0 0)
(0.468379 0.0798714 0 0.0142666 0 0)
(0.632618 0.141771 0 0.0320742 0 0)
(0.275263 -0.0296972 0 0.00343542 0 0)
(0.00550985 -0.00554734 0 0.00945851 0 0)
(0.0198354 -0.00533504 0 0.00433488 0 0)
(0.0607403 -0.00817577 0 0.0014082 0 0)
(0.0986357 -0.0129356 0 0.00195333 0 0)
(0.119291 -0.0171939 0 0.00319087 0 0)
(0.134546 -0.0190285 0 0.00424501 0 0)
(0.146524 -0.0135285 0 0.00270765 0 0)
(0.16644 -0.0116207 0 0.00245233 0 0)
(0.188747 -0.00775658 0 0.000955479 0 0)
(0.209565 -0.00887161 0 0.000646385 0 0)
(0.23042 -0.00896301 0 0.000788869 0 0)
(0.245197 -0.00932876 0 0.000557444 0 0)
(0.261259 -0.00604746 0 0.000673028 0 0)
(0.277493 -0.000957637 0 0.000535258 0 0)
(0.301931 0.00754842 0 0.000492353 0 0)
(0.337204 0.0187644 0 0.00120258 0 0)
(0.396734 0.0348266 0 0.00362874 0 0)
(0.499167 0.0712487 0 0.0107724 0 0)
(0.667682 0.122998 0 0.0229733 0 0)
(0.273278 -0.0351416 0 0.00481779 0 0)
(0.00690438 -0.00754725 0 0.011787 0 0)
(0.0232683 -0.00682504 0 0.00472251 0 0)
(0.0685514 -0.0103094 0 0.00196125 0 0)
(0.109437 -0.0160054 0 0.00271214 0 0)
(0.132984 -0.0204464 0 0.00408196 0 0)
(0.151239 -0.0221343 0 0.00515902 0 0)
(0.164061 -0.0159767 0 0.0033873 0 0)
(0.186213 -0.0137371 0 0.00295869 0 0)
(0.208405 -0.00921935 0 0.00115988 0 0)
(0.231688 -0.0104956 0 0.000774244 0 0)
(0.251857 -0.0103889 0 0.00091115 0 0)
(0.269531 -0.011517 0 0.000751303 0 0)
(0.284003 -0.0073247 0 0.000806035 0 0)
(0.302539 -0.0026616 0 0.000592358 0 0)
(0.323513 0.00600643 0 0.000424651 0 0)
(0.361464 0.0165831 0 0.000887156 0 0)
(0.417508 0.0287825 0 0.00254417 0 0)
(0.524085 0.0623977 0 0.00791178 0 0)
(0.690676 0.0997225 0 0.0147624 0 0)
(0.270887 -0.0411938 0 0.00665948 0 0)
(0.00907362 -0.010101 0 0.014396 0 0)
(0.0279163 -0.00854405 0 0.00514178 0 0)
(0.0784998 -0.0130278 0 0.00268741 0 0)
(0.122735 -0.0197059 0 0.00370258 0 0)
(0.150727 -0.0243809 0 0.0051912 0 0)
(0.171829 -0.0256375 0 0.00619399 0 0)
(0.185247 -0.0188841 0 0.0042366 0 0)
(0.209886 -0.0162257 0 0.00355014 0 0)
(0.228116 -0.0108593 0 0.00143239 0 0)
(0.254125 -0.0122915 0 0.000953461 0 0)
(0.26588 -0.0116044 0 0.00107228 0 0)
(0.285211 -0.0133242 0 0.000967322 0 0)
(0.286188 -0.00783829 0 0.000955768 0 0)
(0.304845 -0.00376266 0 0.000637238 0 0)
(0.309515 0.00448874 0 0.000371314 0 0)
(0.350517 0.0141531 0 0.000647863 0 0)
(0.387081 0.0219451 0 0.0017168 0 0)
(0.494577 0.0523344 0 0.00574665 0 0)
(0.637056 0.070157 0 0.00813882 0 0)
(0.268241 -0.0479113 0 0.00909592 0 0)
(0.0121543 -0.0131596 0 0.0170616 0 0)
(0.0343195 -0.0106945 0 0.00567417 0 0)
(0.0917302 -0.0165851 0 0.00366666 0 0)
(0.139382 -0.024226 0 0.00499491 0 0)
(0.172377 -0.0290929 0 0.00656818 0 0)
(0.190235 -0.0288593 0 0.00730166 0 0)
(0.1999 -0.0214073 0 0.00518346 0 0)
(0.21484 -0.0173833 0 0.00409711 0 0)
(0.217857 -0.0111749 0 0.00168768 0 0)
(0.232306 -0.0122077 0 0.00111513 0 0)
(0.222082 -0.0101056 0 0.00114656 0 0)
(0.229341 -0.0115528 0 0.00109929 0 0)
(0.208189 -0.00480081 0 0.000956697 0 0)
(0.220037 -0.00283148 0 0.000588943 0 0)
(0.207197 0.00423656 0 0.000311269 0 0)
(0.243697 0.00989969 0 0.000448645 0 0)
(0.258249 0.016166 0 0.00120953 0 0)
(0.352526 0.0365433 0 0.00390381 0 0)
(0.455184 0.0415789 0 0.00426934 0 0)
(0.266296 -0.0554573 0 0.0123004 0 0)
(0.0167489 -0.0168569 0 0.0193579 0 0)
(0.0434398 -0.0138099 0 0.00658087 0 0)
(0.107121 -0.0210731 0 0.0050346 0 0)
(0.151652 -0.0286418 0 0.00656413 0 0)
(0.173547 -0.0313029 0 0.00791514 0 0)
(0.164265 -0.026449 0 0.00805109 0 0)
(0.150399 -0.0173506 0 0.00569697 0 0)
(0.136297 -0.0112077 0 0.0041043 0 0)
(0.121313 -0.00602505 0 0.00166545 0 0)
(0.114145 -0.00602343 0 0.00102731 0 0)
(0.0993918 -0.00316499 0 0.000987945 0 0)
(0.0935087 -0.00336604 0 0.000951038 0 0)
(0.0864919 0.0012952 0 0.000773553 0 0)
(0.0901444 0.000221806 0 0.000429495 0 0)
(0.0928932 0.00354716 0 0.000239896 0 0)
(0.107802 0.00394498 0 0.000344956 0 0)
(0.125355 0.00962779 0 0.000832904 0 0)
(0.178793 0.016636 0 0.00268917 0 0)
(0.242856 0.0178668 0 0.0021783 0 0)
(0.269858 -0.064656 0 0.0165244 0 0)
(0.0240968 -0.0218022 0 0.0216679 0 0)
(0.0517953 -0.0172336 0 0.00830129 0 0)
(0.102086 -0.0230384 0 0.00676885 0 0)
(0.109635 -0.0245746 0 0.00768777 0 0)
(0.0873611 -0.0189608 0 0.00807972 0 0)
(0.054485 -0.00822886 0 0.00735159 0 0)
(0.0421441 -0.00057882 0 0.0049135 0 0)
(0.046307 0.00325854 0 0.00317196 0 0)
(0.0581891 0.00370155 0 0.00122342 0 0)
(0.0658583 0.00368324 0 0.000687881 0 0)
(0.0934058 0.00548864 0 0.000648855 0 0)
(0.0962625 0.00599349 0 0.000644108 0 0)
(0.14842 0.00572696 0 0.000497808 0 0)
(0.135461 0.00245104 0 0.000259848 0 0)
(0.188005 0.000710058 0 0.000169076 0 0)
(0.148512 -0.00350716 0 0.00027912 0 0)
(0.193941 0.00247011 0 0.000554778 0 0)
(0.166455 -0.00486749 0 0.00196545 0 0)
(0.19348 0.00467184 0 0.00133763 0 0)
(0.289098 -0.0791234 0 0.0230458 0 0)
(0.0267512 -0.0241316 0 0.024212 0 0)
(0.036542 -0.0121164 0 0.00976519 0 0)
(0.0411759 -0.00904585 0 0.0071039 0 0)
(0.0243599 -0.000214873 0 0.006588 0 0)
(0.0313377 0.010148 0 0.00603098 0 0)
(0.0904289 0.0175996 0 0.00499704 0 0)
(0.170595 0.016655 0 0.00312323 0 0)
(0.26182 0.0142577 0 0.00184953 0 0)
(0.331147 0.0101066 0 0.000685935 0 0)
(0.380984 0.00959943 0 0.000348091 0 0)
(0.457942 0.0101821 0 0.00034684 0 0)
(0.482676 0.0107112 0 0.000358006 0 0)
(0.590155 0.00640388 0 0.00026704 0 0)
(0.554333 0.00257373 0 0.000133311 0 0)
(0.654329 -0.00363101 0 0.000106622 0 0)
(0.535434 -0.00932627 0 0.00020039 0 0)
(0.613465 -0.00474399 0 0.000354057 0 0)
(0.474334 -0.0218035 0 0.00133761 0 0)
(0.457895 0.00403192 0 0.00137318 0 0)
(0.308538 -0.0975193 0 0.0327804 0 0)
(0.00777912 -0.00655066 0 0.0233055 0 0)
(0.0509184 0.0127018 0 0.00800273 0 0)
(0.106144 0.0195989 0 0.00470975 0 0)
(0.213915 0.0274116 0 0.00371529 0 0)
(0.384654 0.0306676 0 0.00316512 0 0)
(0.604412 0.0286568 0 0.00249454 0 0)
(0.786584 0.0206844 0 0.00147485 0 0)
(0.948327 0.0151108 0 0.000820578 0 0)
(1.04977 0.0101275 0 0.000297485 0 0)
(1.12799 0.00961439 0 0.000133904 0 0)
(1.22401 0.00981799 0 0.000151471 0 0)
(1.2688 0.00994747 0 0.000159084 0 0)
(1.39056 0.00459008 0 0.000115424 0 0)
(1.34214 0.00106198 0 5.68891e-05 0 0)
(1.44929 -0.00640911 0 5.75007e-05 0 0)
(1.26822 -0.0113398 0 0.000122424 0 0)
(1.35505 -0.00945159 0 0.000193151 0 0)
(1.11303 -0.0287596 0 0.000825716 0 0)
(1.04833 0.0134438 0 0.00160708 0 0)
(0.235409 -0.0887127 0 0.0366045 0 0)
(0.0901396 0.033031 0 0.0151812 0 0)
(0.373723 0.0356332 0 0.00373383 0 0)
(0.623212 0.0331663 0 0.00180482 0 0)
(0.913582 0.031834 0 0.00133014 0 0)