/*--------------------------------*- C++ -*----------------------------------*\
| =========                 |                                                 |
| \\      /  F ield         | OpenFOAM: The Open Source CFD Toolbox           |
|  \\    /   O peration     | Version:  2.4.0                                 |
|   \\  /    A nd           | Web:      www.OpenFOAM.org                      |
|    \\/     M anipulation  |                                                 |
\*---------------------------------------------------------------------------*/
FoamFile
{
    version     2.0;
    format      ascii;
    class       volScalarField;
    location    "0.016";
    object      k_0;
}
// * * * * * * * * * * * * * * * * * * * * * * * * * * * * * * * * * * * * * //

dimensions      [0 2 -2 0 0 0 0];

internalField   nonuniform List<scalar> 
17600
(
9.28431
7.41268
5.14805
3.90842
3.31247
2.99131
2.68077
2.42948
2.30069
2.33319
2.31375
2.30854
2.30009
2.24135
2.3585
2.20846
2.37707
2.22783
2.34278
2.1739
4.50036
6.20877
5.86304
5.03938
4.38349
3.97815
3.59069
3.26619
3.07209
3.07541
3.0383
3.0325
3.03287
2.94899
3.07678
2.91567
3.08275
2.95898
3.02212
3.10624
1.31609
3.27849
4.01518
3.97464
3.73847
3.47927
3.23348
2.99704
2.79564
2.74692
2.69366
2.67815
2.68779
2.61256
2.69321
2.59027
2.67571
2.62677
2.62315
2.74612
0.206399
1.18426
1.92923
2.36676
2.49888
2.49925
2.48019
2.41813
2.27914
2.19115
2.1428
2.1107
2.11924
2.06967
2.09269
2.0498
2.0647
2.06302
2.0395
2.05502
0.0258036
0.261061
0.623764
1.01191
1.25594
1.38491
1.55152
1.62975
1.61439
1.54787
1.5175
1.48669
1.48296
1.46913
1.43836
1.43621
1.41383
1.42477
1.4135
1.36839
0.00272333
0.042451
0.121045
0.289819
0.45137
0.531564
0.694943
0.852712
0.908947
0.890783
0.886793
0.883121
0.869975
0.871235
0.834904
0.840847
0.807161
0.814302
0.799602
0.780425
0.000279438
0.00600028
0.0183828
0.0526334
0.112437
0.141984
0.201178
0.313288
0.373387
0.37576
0.378967
0.387096
0.384458
0.383345
0.357898
0.357618
0.327256
0.325634
0.32022
0.329102
4.82598e-05
0.000803407
0.00245792
0.00728474
0.0195179
0.0264851
0.0401646
0.0788685
0.107096
0.106996
0.110066
0.110113
0.109903
0.108063
0.0949804
0.0903833
0.0733864
0.0697667
0.0696407
0.0718972
2.71597e-05
0.000133051
0.000357597
0.000995693
0.00273708
0.00382722
0.0061488
0.0147146
0.0210949
0.0203202
0.0206345
0.0196022
0.0192348
0.0179223
0.0130757
0.0115179
0.00754955
0.00648891
0.00636203
0.00573277
2.45505e-05
5.19375e-05
8.97473e-05
0.000195941
0.00043833
0.000587056
0.000902923
0.0022534
0.00308015
0.00279965
0.0027559
0.00240388
0.00226268
0.00193365
0.00109655
0.000907638
0.000461291
0.000342866
0.000265095
0.000189992
2.33802e-05
4.11383e-05
5.28459e-05
8.15761e-05
0.000135488
0.000157054
0.000196608
0.000367492
0.000445381
0.000406199
0.000397796
0.000344571
0.000329856
0.000281795
0.000182966
0.00014546
8.83338e-05
5.69717e-05
3.61323e-05
2.95826e-05
2.26658e-05
3.66889e-05
4.37181e-05
6.06763e-05
8.23992e-05
8.65969e-05
9.27087e-05
0.000106292
0.000128383
0.000127514
0.00012802
0.00013018
0.000128355
0.000123513
0.000110608
8.96299e-05
6.47472e-05
4.60086e-05
2.92703e-05
1.76447e-05
2.2002e-05
3.30572e-05
3.89954e-05
5.32546e-05
6.539e-05
6.80256e-05
6.97739e-05
7.22775e-05
7.80425e-05
8.13659e-05
8.80007e-05
9.08167e-05
9.07915e-05
9.09411e-05
8.75983e-05
7.86776e-05
6.02282e-05
4.46416e-05
2.70023e-05
1.48867e-05
2.15841e-05
2.98515e-05
3.61716e-05
4.79606e-05
5.6852e-05
5.8003e-05
5.95805e-05
6.0802e-05
6.31621e-05
6.61977e-05
6.99164e-05
7.37131e-05
7.54097e-05
7.50294e-05
7.32099e-05
7.00362e-05
5.93349e-05
4.35118e-05
2.6108e-05
1.60411e-05
2.12354e-05
2.79271e-05
3.42455e-05
4.42925e-05
5.02796e-05
5.12373e-05
5.24771e-05
5.31872e-05
5.47002e-05
5.52785e-05
5.81963e-05
6.29586e-05
6.38824e-05
6.48267e-05
6.42547e-05
6.26085e-05
5.72931e-05
4.39049e-05
2.63464e-05
1.79224e-05
2.10044e-05
2.64311e-05
3.3065e-05
4.11079e-05
4.58777e-05
4.64134e-05
4.7392e-05
4.81046e-05
4.85095e-05
4.83572e-05
4.92244e-05
5.36971e-05
5.6896e-05
5.83819e-05
5.81238e-05
5.74447e-05
5.45334e-05
4.40882e-05
2.65872e-05
1.95807e-05
2.08213e-05
2.56291e-05
3.17701e-05
3.89941e-05
4.25374e-05
4.29906e-05
4.39365e-05
4.41403e-05
4.41619e-05
4.35942e-05
4.37815e-05
4.66082e-05
5.09567e-05
5.39423e-05
5.42797e-05
5.40814e-05
5.20284e-05
4.42442e-05
2.60718e-05
1.59176e-05
2.07042e-05
2.49726e-05
3.10506e-05
3.73739e-05
4.03435e-05
4.06837e-05
4.13645e-05
4.15154e-05
4.12182e-05
4.02528e-05
4.02578e-05
4.17807e-05
4.71038e-05
5.11411e-05
5.19957e-05
5.20257e-05
5.05845e-05
4.37422e-05
2.53557e-05
1.77245e-05
2.06259e-05
2.46368e-05
3.0479e-05
3.63855e-05
3.88722e-05
3.91906e-05
3.98972e-05
3.98845e-05
3.93042e-05
3.81216e-05
3.80551e-05
3.92121e-05
4.43091e-05
4.90192e-05
5.04561e-05
5.06593e-05
4.94752e-05
4.29064e-05
2.66785e-05
1.93039e-05
2.05908e-05
2.44552e-05
3.02339e-05
3.58817e-05
3.8146e-05
3.84618e-05
3.91279e-05
3.91417e-05
3.8403e-05
3.71407e-05
3.70331e-05
3.79862e-05
4.30808e-05
4.80918e-05
4.98156e-05
5.00896e-05
4.9017e-05
4.257e-05
2.74536e-05
1.48291e-05
2.05921e-05
2.44659e-05
3.02019e-05
3.59084e-05
3.81333e-05
3.84562e-05
3.91345e-05
3.91482e-05
3.83867e-05
3.71339e-05
3.70277e-05
3.79567e-05
4.30952e-05
4.80259e-05
4.97663e-05
5.00288e-05
4.89685e-05
4.22239e-05
2.74308e-05
1.52101e-05
2.06317e-05
2.4649e-05
3.04147e-05
3.64526e-05
3.8831e-05
3.91856e-05
3.98664e-05
3.99251e-05
3.92832e-05
3.81319e-05
3.80703e-05
3.91046e-05
4.44435e-05
4.89041e-05
5.03851e-05
5.0576e-05
4.94242e-05
4.21293e-05
2.75522e-05
1.70767e-05
2.07115e-05
2.50298e-05
3.08822e-05
3.75214e-05
4.02571e-05
4.06768e-05
4.13556e-05
4.15421e-05
4.11653e-05
4.02371e-05
4.02682e-05
4.16451e-05
4.72349e-05
5.07573e-05
5.17464e-05
5.17838e-05
5.03602e-05
4.24016e-05
2.73805e-05
1.61949e-05
2.0837e-05
2.5654e-05
3.16307e-05
3.91349e-05
4.24526e-05
4.30167e-05
4.3718e-05
4.43207e-05
4.4156e-05
4.35515e-05
4.38034e-05
4.61149e-05
5.14538e-05
5.36751e-05
5.40315e-05
5.38551e-05
5.19196e-05
4.26264e-05
2.69008e-05
1.66546e-05
2.10172e-05
2.65806e-05
3.26896e-05
4.14335e-05
4.56468e-05
4.64872e-05
4.70978e-05
4.83106e-05
4.84193e-05
4.82653e-05
4.93883e-05
5.3227e-05
5.70511e-05
5.78942e-05
5.77848e-05
5.71354e-05
5.41811e-05
4.27101e-05
2.6586e-05
1.76245e-05
2.12667e-05
2.79678e-05
3.40111e-05
4.45122e-05
5.01367e-05
5.13714e-05
5.21168e-05
5.36083e-05
5.42651e-05
5.51062e-05
5.87946e-05
6.20509e-05
6.43656e-05
6.43931e-05
6.37804e-05
6.21266e-05
5.69632e-05
4.22402e-05
2.6187e-05
1.66084e-05
2.16031e-05
3.01081e-05
3.57329e-05
4.8399e-05
5.63617e-05
5.82274e-05
5.92333e-05
6.0925e-05
6.29058e-05
6.57062e-05
7.06649e-05
7.33361e-05
7.4931e-05
7.458e-05
7.30516e-05
6.94902e-05
5.86696e-05
4.17115e-05
2.61128e-05
1.67816e-05
2.20637e-05
3.30876e-05
3.89035e-05
5.32731e-05
6.51768e-05
6.81167e-05
6.96058e-05
7.24844e-05
7.75363e-05
8.20256e-05
8.76803e-05
9.0068e-05
9.13707e-05
9.03823e-05
8.69147e-05
7.79721e-05
5.96512e-05
4.20406e-05
2.6272e-05
1.61355e-05
2.26987e-05
3.68238e-05
4.36148e-05
6.14149e-05
8.12426e-05
8.7049e-05
9.21411e-05
0.000110105
0.000126405
0.000126248
0.000128451
0.000128469
0.000128923
0.000123867
0.000108783
8.78286e-05
6.4197e-05
4.43869e-05
2.75216e-05
1.86663e-05
2.34572e-05
4.10934e-05
5.25486e-05
8.26378e-05
0.000133791
0.000157413
0.000195696
0.000373646
0.000442411
0.000412524
0.000395356
0.000350813
0.000337942
0.000272201
0.000207515
0.000150131
9.7698e-05
7.001e-05
5.57953e-05
6.60081e-05
2.45533e-05
5.10909e-05
8.9478e-05
0.00019909
0.000434977
0.000588378
0.000897282
0.00230879
0.00304525
0.00287005
0.00276492
0.00244898
0.00237061
0.00185297
0.00144151
0.00103322
0.000670908
0.000645534
0.000695713
0.00110612
2.71962e-05
0.000132564
0.000354289
0.00102767
0.00270039
0.00382826
0.0061055
0.0149658
0.0209679
0.0206791
0.0206857
0.0200416
0.0199834
0.0175777
0.0155765
0.01251
0.0101147
0.0101269
0.0108044
0.0154903
4.8222e-05
0.000798008
0.00244955
0.00740854
0.0193623
0.0264895
0.0397519
0.0800242
0.106477
0.108035
0.110469
0.111121
0.113246
0.108508
0.103727
0.0948281
0.0877916
0.0887246
0.0924773
0.112898
0.00027899
0.00598135
0.0183706
0.053345
0.111408
0.142111
0.197013
0.318527
0.372973
0.3768
0.383285
0.385809
0.39205
0.38531
0.376401
0.368901
0.360673
0.366203
0.376366
0.422555
0.00272409
0.0424391
0.120985
0.291137
0.449231
0.531932
0.69022
0.861567
0.906342
0.8962
0.887509
0.881535
0.883694
0.870782
0.859853
0.854875
0.848637
0.86118
0.874176
0.934475
0.0257919
0.261165
0.623436
1.01272
1.25439
1.38751
1.54858
1.63285
1.61444
1.55446
1.50994
1.49446
1.49106
1.46622
1.46161
1.44996
1.44937
1.46021
1.47105
1.52152
0.206344
1.18448
1.92887
2.36703
2.49867
2.49929
2.48095
2.41692
2.28164
2.19201
2.13642
2.12508
2.11395
2.08181
2.08369
2.06294
2.07061
2.06287
2.06865
2.08436
1.31582
3.27878
4.01494
3.97451
3.73905
3.47734
3.23778
2.98918
2.80488
2.73801
2.69316
2.68802
2.66405
2.63657
2.641
2.60423
2.62062
2.57185
2.57853
2.52693
4.50015
6.20888
5.86298
5.03892
4.38459
3.97482
3.59621
3.2555
3.08235
3.06391
3.0384
3.03375
2.98927
2.97655
2.97692
2.92261
2.93956
2.83599
2.83846
2.6812
9.2841
7.4126
5.14815
3.90777
3.31367
2.98795
2.68503
2.42028
2.30751
2.32054
2.31225
2.30404
2.25522
2.25368
2.25046
2.19763
2.20116
2.0791
2.06659
1.82811
1.51069
0.712085
0.70971
0.961372
0.850513
0.535614
0.292856
0.219051
0.244319
0.312907
0.33952
0.333974
0.28403
0.257858
0.26904
0.288449
0.256972
0.131289
0.0564935
0.0268601
0.0166065
0.0111929
0.0085672
0.00878579
0.00972598
0.00940336
0.00885559
0.00871273
0.00875886
0.0087781
0.00867202
0.00754856
0.00517661
0.00333005
0.00204453
0.00121492
0.000709647
0.000413476
0.000243149
0.000145309
8.84618e-05
5.48219e-05
3.44995e-05
2.19825e-05
1.41462e-05
9.17594e-06
5.99098e-06
3.93312e-06
2.59436e-06
1.71827e-06
1.14202e-06
7.61327e-07
5.08849e-07
3.40843e-07
2.28729e-07
1.53733e-07
1.03464e-07
6.97094e-08
4.7011e-08
3.17292e-08
2.14302e-08
1.44827e-08
9.79263e-09
6.62457e-09
4.48344e-09
3.03554e-09
2.05597e-09
1.39302e-09
9.442e-10
6.40208e-10
4.3423e-10
2.94635e-10
2.00004e-10
1.35825e-10
9.22797e-11
6.27285e-11
4.26665e-11
2.90377e-11
1.97747e-11
1.34777e-11
9.19517e-12
6.27997e-12
4.29391e-12
2.94027e-12
2.01696e-12
1.38628e-12
9.54876e-13
6.59537e-13
4.57085e-13
3.17975e-13
2.22158e-13
1.56044e-13
1.10313e-13
7.85492e-14
5.63906e-14
4.08812e-14
2.99775e-14
2.22594e-14
1.67557e-14
1.28098e-14
9.96747e-15
7.896e-15
6.36991e-15
5.24816e-15
4.41381e-15
3.78197e-15
3.31206e-15
2.9597e-15
2.68609e-15
2.48984e-15
2.3539e-15
2.24656e-15
2.18681e-15
2.18198e-15
2.1927e-15
2.22626e-15
2.31109e-15
2.40725e-15
2.61798e-15
2.79399e-15
3.17354e-15
3.48272e-15
4.13005e-15
4.66547e-15
5.80818e-15
6.75474e-15
8.77651e-15
1.0514e-14
1.42444e-14
1.75289e-14
2.45554e-14
3.09108e-14
4.46562e-14
5.72856e-14
8.44947e-14
1.10025e-13
1.65363e-13
2.17786e-13
3.31135e-13
4.39856e-13
6.75198e-13
9.04741e-13
1.35304e-12
2.00276e-12
2.66903e-12
4.13173e-12
6.10431e-12
8.15826e-12
1.28455e-11
1.85839e-11
2.53952e-11
4.05688e-11
5.82806e-11
7.96597e-11
1.3207e-10
1.81135e-10
2.8632e-10
3.94614e-10
6.46408e-10
8.95914e-10
1.47572e-09
2.0635e-09
3.22273e-09
5.13244e-09
6.99806e-09
1.05112e-08
1.71115e-08
1.96896e-08
3.66273e-08
4.1483e-08
1.05388e-07
1.88803e-07
8.5101e-07
1.74828e-06
6.43845e-06
1.13199e-05
1.80998e-05
5.11029e-05
6.1958e-05
0.000125774
0.000146753
0.000249599
0.000237625
0.000272292
0.000232681
0.000248749
0.000236409
0.000245024
0.000297468
0.000290073
0.000308831
0.000348031
0.000508021
0.000745036
0.00105381
0.0020918
0.00419814
0.00762925
0.0298229
0.607804
2.35877
1.45195
1.25406
1.18097
1.1142
0.83191
0.392933
0.255975
0.273642
0.411603
0.505342
0.463785
0.341661
0.297668
0.309191
0.304159
0.232097
0.098595
0.0369231
0.0185779
0.0143244
0.011295
0.00826746
0.00649805
0.00630689
0.00744817
0.00825554
0.00858091
0.00868277
0.0086606
0.00853285
0.00759881
0.0052697
0.00339786
0.00208688
0.00123905
0.000722267
0.000420046
0.000246574
0.000147285
8.97781e-05
5.57364e-05
3.51293e-05
2.24058e-05
1.44237e-05
9.35425e-06
6.10371e-06
4.00355e-06
2.63795e-06
1.74508e-06
1.15843e-06
7.71328e-07
5.14927e-07
3.44529e-07
2.3096e-07
1.55081e-07
1.04278e-07
7.02006e-08
4.73072e-08
3.19077e-08
2.15377e-08
1.45475e-08
9.83167e-09
6.64805e-09
4.49756e-09
3.04404e-09
2.06108e-09
1.39609e-09
9.46049e-10
6.41327e-10
4.34914e-10
2.95053e-10
2.00259e-10
1.3598e-10
9.2374e-11
6.27848e-11
4.27002e-11
2.90584e-11
1.97873e-11
1.34848e-11
9.19871e-12
6.28139e-12
4.29416e-12
2.93994e-12
2.01647e-12
1.38586e-12
9.5462e-13
6.5943e-13
4.57087e-13
3.18065e-13
2.22302e-13
1.56205e-13
1.10467e-13
7.86816e-14
5.64983e-14
4.09627e-14
3.00345e-14
2.2297e-14
1.67797e-14
1.28256e-14
9.9769e-15
7.90084e-15
6.37309e-15
5.24963e-15
4.4134e-15
3.7805e-15
3.31019e-15
2.95816e-15
2.68462e-15
2.4887e-15
2.3549e-15
2.24823e-15
2.18779e-15
2.18294e-15
2.19365e-15
2.22711e-15
2.3062e-15
2.42316e-15
2.59176e-15
2.79896e-15
3.15569e-15
3.50637e-15
4.11254e-15
4.62939e-15
5.81183e-15
6.78669e-15
8.77297e-15
1.04667e-14
1.41925e-14
1.75209e-14
2.46464e-14
3.09164e-14
4.45118e-14
5.71966e-14
8.48525e-14
1.10238e-13
1.65241e-13
2.17371e-13
3.3138e-13
4.39668e-13
6.75093e-13
9.0472e-13
1.33991e-12
2.02634e-12
2.68254e-12
4.05993e-12
6.19137e-12
8.19832e-12
1.29101e-11
1.77655e-11
2.78454e-11
3.77988e-11
5.97576e-11
8.19003e-11
1.31078e-10
1.79625e-10
2.89269e-10
3.98223e-10
6.556e-10
9.0237e-10
1.51455e-09
2.09849e-09
3.41724e-09
5.30748e-09
7.05515e-09
1.31634e-08
1.56943e-08
2.63476e-08
3.28811e-08
4.50207e-08
8.33406e-08
1.39177e-07
3.65999e-07
7.28132e-07
4.13973e-06
5.9534e-06
2.81928e-05
3.19155e-05
7.25229e-05
8.10661e-05
0.000168324
0.000188582
0.00029922
0.000291048
0.00038403
0.000311009
0.00030538
0.000281682
0.000295355
0.000407283
0.000404706
0.000518172
0.000636343
0.000766097
0.00107929
0.00186448
0.00368145
0.0073905
0.0391957
0.434767
2.2752
1.79805
1.44638
1.12567
1.14958
1.08022
0.60261
0.414434
0.480253
0.628081
0.63099
0.499009
0.367046
0.33705
0.33548
0.312806
0.18055
0.0690749
0.0258774
0.0149684
0.0124686
0.010933
0.00861526
0.00656083
0.00570338
0.00581314
0.00718344
0.00819616
0.00853967
0.00856246
0.00843179
0.00755862
0.00527453
0.00340784
0.0020952
0.0012454
0.00072675
0.000422949
0.000248632
0.000148609
9.0568e-05
5.62694e-05
3.5505e-05
2.26691e-05
1.46039e-05
9.47428e-06
6.18183e-06
4.05345e-06
2.6694e-06
1.7647e-06
1.17059e-06
7.78822e-07
5.19532e-07
3.47352e-07
2.32687e-07
1.56136e-07
1.04921e-07
7.05927e-08
4.75461e-08
3.20532e-08
2.16263e-08
1.46017e-08
9.86477e-09
6.66832e-09
4.50999e-09
3.05168e-09
2.06577e-09
1.39896e-09
9.47799e-10
6.42389e-10
4.35549e-10
2.95427e-10
2.00475e-10
1.36102e-10
9.24387e-11
6.28155e-11
4.27122e-11
2.90615e-11
1.9787e-11
1.34837e-11
9.1978e-12
6.28106e-12
4.29428e-12
2.94024e-12
2.01682e-12
1.38621e-12
9.54912e-13
6.59614e-13
4.57181e-13
3.18084e-13
2.22258e-13
1.56114e-13
1.10356e-13
7.85762e-14
5.64066e-14
4.08831e-14
2.99682e-14
2.22483e-14
1.67442e-14
1.27954e-14
9.95164e-15
7.88199e-15
6.35791e-15
5.23535e-15
4.4017e-15
3.77219e-15
3.30303e-15
2.95111e-15
2.67763e-15
2.48169e-15
2.3474e-15
2.23933e-15
2.17856e-15
2.17393e-15
2.18475e-15
2.22015e-15
2.28574e-15
2.43017e-15
2.56197e-15
2.84488e-15
3.07752e-15
3.58065e-15
3.98506e-15
4.82747e-15
5.54226e-15
7.04631e-15
8.42922e-15
1.05159e-14
1.43826e-14
1.74967e-14
2.42931e-14
3.07314e-14
4.4627e-14
5.71444e-14
8.44226e-14
1.09777e-13
1.64843e-13
2.17127e-13
3.31431e-13
4.39349e-13
6.737e-13
9.04543e-13
1.33004e-12
2.02969e-12
2.68444e-12
4.04243e-12
6.1631e-12
8.18141e-12
1.29243e-11
1.77303e-11
2.78169e-11
3.76759e-11
5.98436e-11
8.1994e-11
1.30874e-10
1.79171e-10
2.90851e-10
3.98597e-10
6.63944e-10
9.04827e-10
1.5704e-09
2.12527e-09
3.7732e-09
5.19663e-09
8.10738e-09
1.41548e-08
1.6211e-08
3.62164e-08
3.31468e-08
9.0303e-08
1.09205e-07
4.32172e-07
1.16748e-06
7.19202e-06
1.30963e-05
6.02092e-05
6.62909e-05
0.00013937
0.000137356
0.000197322
0.000197518
0.0002456
0.000266577
0.000379448
0.000385613
0.000469302
0.00038473
0.000360208
0.000334571
0.000387359
0.000466457
0.000488705
0.000580882
0.000848006
0.00118077
0.00191669
0.00436001
0.00674878
0.0385362
0.288762
1.77961
1.65254
1.44991
1.04503
0.971516
0.96615
0.867452
0.785459
0.760152
0.727407
0.568704
0.426542
0.365137
0.36089
0.350323
0.272261
0.119358
0.0443333
0.0169597
0.0116717
0.0105725
0.0098633
0.00891751
0.00734807
0.00600366
0.00567151
0.00622468
0.00754565
0.00818563
0.00833488
0.00824716
0.00741005
0.00521174
0.00338626
0.00208841
0.00124357
0.000726642
0.000423248
0.000249075
0.000149271
9.12781e-05
5.68172e-05
3.59132e-05
2.29599e-05
1.48029e-05
9.60594e-06
6.26675e-06
4.10719e-06
2.70294e-06
1.78543e-06
1.18332e-06
7.86609e-07
5.2428e-07
3.50243e-07
2.34447e-07
1.57207e-07
1.05573e-07
7.09899e-08
4.77881e-08
3.22005e-08
2.17159e-08
1.4656e-08
9.89765e-09
6.68817e-09
4.52192e-09
3.05882e-09
2.07005e-09
1.40152e-09
9.49316e-10
6.43289e-10
4.36089e-10
2.95754e-10
2.00673e-10
1.36224e-10
9.2517e-11
6.28673e-11
4.27466e-11
2.90845e-11
1.98026e-11
1.34942e-11
9.20465e-12
6.2854e-12
4.29696e-12
2.94176e-12
2.01749e-12
1.38633e-12
9.54752e-13
6.59343e-13
4.56871e-13
3.17795e-13
2.22033e-13
1.55952e-13
1.10237e-13
7.84875e-14
5.63412e-14
4.08358e-14
2.99321e-14
2.2215e-14
1.67142e-14
1.27724e-14
9.93259e-15
7.86293e-15
6.34063e-15
5.22169e-15
4.38847e-15
3.75706e-15
3.28817e-15
2.93807e-15
2.66438e-15
2.46817e-15
2.33577e-15
2.22904e-15
2.16875e-15
2.16433e-15
2.17533e-15
2.20895e-15
2.28672e-15
2.40568e-15
2.57502e-15
2.78546e-15
3.1268e-15
3.49371e-15
4.07404e-15
4.61387e-15
5.76241e-15
6.75661e-15
8.71841e-15
1.03874e-14
1.41723e-14
1.75192e-14
2.44116e-14
3.05264e-14
4.42966e-14
5.7247e-14
8.46045e-14
1.09439e-13
1.64037e-13
2.16546e-13
3.30338e-13
4.37363e-13
6.69993e-13
9.04423e-13
1.31824e-12
2.03284e-12
2.68142e-12
4.15327e-12
5.68478e-12
8.91897e-12
1.20419e-11
1.84992e-11
2.68469e-11
3.68312e-11
6.0622e-11
8.22463e-11
1.29304e-10
1.77455e-10
2.92517e-10
3.98007e-10
6.7291e-10
9.04649e-10
1.63865e-09
2.15482e-09
4.11266e-09
5.38258e-09
1.00805e-08
1.35156e-08
2.37904e-08
3.03589e-08
5.95938e-08
9.13772e-08
2.49679e-07
6.85275e-07
2.85696e-06
7.14956e-06
2.98983e-05
5.48341e-05
0.000180099
0.000212847
0.000397359
0.000385351
0.000412477
0.000372817
0.00037938
0.000374854
0.000440768
0.000458457
0.00062477
0.00051562
0.000522713
0.000477391
0.00048123
0.000676926
0.000619917
0.000775463
0.00108764
0.00171506
0.00471672
0.00632349
0.0352516
0.189742
1.20207
1.18748
1.12616
0.834189
0.633942
0.669827
0.809905
0.804327
0.756058
0.544419
0.406775
0.376554
0.374439
0.367806
0.33273
0.16568
0.0579044
0.0234108
0.0126805
0.00947117
0.00842853
0.00810731
0.00847188
0.00809422
0.00686368
0.00596201
0.00595298
0.00689835
0.00770544
0.00796548
0.00791705
0.00705981
0.00500608
0.00328124
0.00203521
0.00121714
0.000714553
0.000418449
0.000247542
0.000149061
9.1515e-05
5.71813e-05
3.62242e-05
2.31963e-05
1.49715e-05
9.72112e-06
6.34296e-06
4.15643e-06
2.7342e-06
1.80503e-06
1.19549e-06
7.94112e-07
5.28886e-07
3.53061e-07
2.36166e-07
1.58253e-07
1.06209e-07
7.13758e-08
4.8022e-08
3.23421e-08
2.18017e-08
1.4708e-08
9.92922e-09
6.7073e-09
4.53356e-09
3.06593e-09
2.07439e-09
1.40416e-09
9.50943e-10
6.44301e-10
4.36716e-10
2.96139e-10
2.00913e-10
1.36376e-10
9.26107e-11
6.29229e-11
4.27794e-11
2.9104e-11
1.98132e-11
1.34989e-11
9.20621e-12
6.28556e-12
4.29644e-12
2.94099e-12
2.01684e-12
1.38592e-12
9.54486e-13
6.59139e-13
4.56735e-13
3.17726e-13
2.21976e-13
1.55883e-13
1.10169e-13
7.84294e-14
5.62879e-14
4.07812e-14
2.98803e-14
2.21729e-14
1.66803e-14
1.27401e-14
9.90079e-15
7.83602e-15
6.31815e-15
5.19826e-15
4.36518e-15
3.73849e-15
3.27277e-15
2.92248e-15
2.64966e-15
2.45599e-15
2.3241e-15
2.21615e-15
2.15585e-15
2.15161e-15
2.16259e-15
2.19595e-15
2.26951e-15
2.39296e-15
2.55991e-15
2.78547e-15
3.09521e-15
3.48934e-15
4.03132e-15
4.65249e-15
5.68198e-15
6.7807e-15
8.62661e-15
1.03695e-14
1.38562e-14
1.83917e-14
2.27004e-14
3.24461e-14
4.14447e-14
6.12075e-14
7.88901e-14
1.16109e-13
1.5254e-13
2.32192e-13
3.12932e-13
4.40096e-13
6.56326e-13
9.4652e-13
1.25844e-12
1.99737e-12
2.69128e-12
4.18268e-12
5.64734e-12
8.82109e-12
1.19542e-11
1.86392e-11
2.66153e-11
3.65847e-11
6.05258e-11
8.19997e-11
1.28918e-10
1.76528e-10
2.9395e-10
3.96743e-10
6.87873e-10
9.03106e-10
1.73864e-09
2.18475e-09
4.59102e-09
5.90214e-09
1.04872e-08
1.92985e-08
2.19806e-08
5.44128e-08
5.77897e-08
9.37558e-08
1.55061e-07
3.07326e-07
7.14555e-07
2.16718e-06
5.95417e-06
1.58153e-05
4.29887e-05
9.59158e-05
0.000174607
0.000287265
0.000354384
0.000413625
0.000438279
0.000409626
0.000435474
0.000476768
0.000560181
0.000696686
0.000614489
0.000554109
0.000528807
0.000629677
0.00115417
0.00100723
0.00187064
0.00183605
0.00606841
0.00680001
0.0288303
0.123759
0.728885
0.718026
0.68036
0.479062
0.269133
0.280058
0.531421
0.591642
0.525931
0.292769
0.215451
0.241309
0.283342
0.277067
0.176485
0.0667125
0.0255609
0.0136717
0.0104358
0.00851049
0.00712862
0.00617798
0.00636047
0.00742077
0.00714705
0.00633288
0.00610126
0.00658136
0.00735702
0.00762596
0.00759811
0.00675638
0.00477581
0.00315505
0.00197139
0.00118433
0.000697651
0.000410243
0.000243982
0.000147795
9.12891e-05
5.73131e-05
3.64497e-05
2.33987e-05
1.51245e-05
9.82817e-06
6.4146e-06
4.20302e-06
2.7639e-06
1.82369e-06
1.2071e-06
8.01291e-07
5.33302e-07
3.55767e-07
2.37821e-07
1.59265e-07
1.06827e-07
7.17522e-08
4.82514e-08
3.24822e-08
2.18872e-08
1.47601e-08
9.96089e-09
6.72665e-09
4.54537e-09
3.07311e-09
2.07874e-09
1.40683e-09
9.52579e-10
6.45287e-10
4.37308e-10
2.96501e-10
2.01133e-10
1.36503e-10
9.26831e-11
6.2966e-11
4.28048e-11
2.91176e-11
1.98203e-11
1.35033e-11
9.20923e-12
6.28737e-12
4.2975e-12
2.94175e-12
2.01734e-12
1.3861e-12
9.54471e-13
6.59085e-13
4.56659e-13
3.17586e-13
2.21812e-13
1.5575e-13
1.10063e-13
7.83295e-14
5.61955e-14
4.0708e-14
2.98232e-14
2.21208e-14
1.66299e-14
1.26965e-14
9.86613e-15
7.805e-15
6.28748e-15
5.17245e-15
4.34578e-15
3.71913e-15
3.25203e-15
2.90446e-15
2.63372e-15
2.43835e-15
2.30571e-15
2.19992e-15
2.14035e-15
2.13593e-15
2.14685e-15
2.18038e-15
2.25488e-15
2.38073e-15
2.54058e-15
2.76344e-15
3.07814e-15
3.4764e-15
4.01089e-15
4.61757e-15
5.65957e-15
6.75965e-15
8.62488e-15
1.03134e-14
1.38008e-14
1.83325e-14
2.26816e-14
3.23622e-14
4.12312e-14
6.11909e-14
7.89191e-14
1.16148e-13
1.52251e-13
2.31975e-13
3.12804e-13
4.36231e-13
6.75148e-13
8.91487e-13
1.36427e-12
1.83841e-12
2.78959e-12
4.15007e-12
5.54234e-12
8.51971e-12
1.2552e-11
1.71976e-11
2.76384e-11
3.73162e-11
5.88755e-11
8.07706e-11
1.30415e-10
1.76987e-10
2.94166e-10
3.93763e-10
7.08819e-10
8.98748e-10
1.89504e-09
2.19193e-09
5.81076e-09
6.4473e-09
1.72293e-08
2.64148e-08
3.81971e-08
1.49996e-07
1.36011e-07
5.68504e-07
7.68039e-07
1.96888e-06
3.63717e-06
9.17292e-06
8.03726e-06
1.12458e-05
1.27096e-05
2.79232e-05
4.28449e-05
0.000144662
0.000179574
0.000350592
0.000378084
0.00058648
0.000518729
0.000575147
0.000582536
0.000650253
0.000911974
0.000728458
0.000662246
0.000682069
0.00107003
0.00106787
0.00217947
0.00218348
0.0125708
0.00865144
0.0269119
0.086639
0.315123
0.30312
0.278467
0.161021
0.0802162
0.0815682
0.200878
0.257863
0.221067
0.107351
0.0756164
0.107184
0.12591
0.109578
0.0518634
0.0239461
0.0122728
0.00875448
0.00885926
0.00797873
0.00637601
0.00545467
0.00521665
0.00562423
0.00636396
0.00631478
0.00628409
0.00660289
0.00728491
0.00748625
0.0074433
0.00668488
0.00467961
0.00306951
0.00191747
0.00115446
0.000681507
0.000401715
0.000239783
0.000145976
9.06677e-05
5.7236e-05
3.65633e-05
2.35485e-05
1.52533e-05
9.92362e-06
6.48042e-06
4.24658e-06
2.792e-06
1.84151e-06
1.21827e-06
8.0823e-07
5.37584e-07
3.58401e-07
2.39436e-07
1.60252e-07
1.07429e-07
7.21196e-08
4.84756e-08
3.26186e-08
2.197e-08
1.48105e-08
9.99165e-09
6.74534e-09
4.5567e-09
3.08e-09
2.08297e-09
1.40939e-09
9.54115e-10
6.46219e-10
4.3788e-10
2.96845e-10
2.01336e-10
1.36626e-10
9.27601e-11
6.30124e-11
4.28317e-11
2.91341e-11
1.98311e-11
1.35099e-11
9.21282e-12
6.2894e-12
4.29873e-12
2.94224e-12
2.01728e-12
1.38588e-12
9.54267e-13
6.58854e-13
4.56396e-13
3.17368e-13
2.21662e-13
1.5562e-13
1.09934e-13
7.82198e-14
5.61099e-14
4.06323e-14
2.97498e-14
2.20556e-14
1.65781e-14
1.26537e-14
9.826e-15
7.76798e-15
6.2575e-15
5.14662e-15
4.31766e-15
3.69178e-15
3.22966e-15
2.8829e-15
2.61081e-15
2.41761e-15
2.28781e-15
2.1818e-15
2.12162e-15
2.11728e-15
2.12843e-15
2.16207e-15
2.23483e-15
2.35918e-15
2.51867e-15
2.75343e-15
3.05116e-15
3.45225e-15
3.97963e-15
4.60539e-15
5.64737e-15
6.67285e-15
8.62652e-15
1.02986e-14
1.38793e-14
1.79709e-14
2.27126e-14
3.23671e-14
4.1108e-14
6.107e-14
7.8763e-14
1.15932e-13
1.52072e-13
2.30573e-13
3.16684e-13
4.25697e-13
6.80264e-13
8.99345e-13
1.36325e-12
1.82873e-12
2.87158e-12
3.877e-12
5.96968e-12
8.0562e-12
1.28321e-11
1.74622e-11
2.73297e-11
3.70965e-11
5.90461e-11
8.06046e-11
1.3002e-10
1.76247e-10
2.96088e-10
3.91231e-10
7.29115e-10
8.92959e-10
2.07798e-09
2.21989e-09
7.47747e-09
7.21884e-09
3.26432e-08
3.84372e-08
1.19009e-07
2.54136e-07
4.88788e-07
1.37702e-06
2.34908e-06
5.08531e-06
7.21716e-06
1.04524e-05
1.87075e-05
2.67708e-05
6.26512e-05
6.60935e-05
9.78264e-05
0.000113039
0.000167157
0.000208142
0.000374991
0.000458297
0.000665869
0.000626008
0.000682241
0.000686762
0.000854549
0.00129627
0.00128866
0.00108041
0.00196493
0.00146543
0.0058755
0.00350359
0.0167722
0.011085
0.0222855
0.0633593
0.0663159
0.0590305
0.04954
0.0270881
0.0129163
0.0123996
0.0569347
0.0793043
0.062599
0.0265252
0.0198972
0.0294947
0.0316978
0.025607
0.0150149
0.0099324
0.00755897
0.00705914
0.00734452
0.00729298
0.00549566
0.00490468
0.0049264
0.00489472
0.0051519
0.00573961
0.00630179
0.00689641
0.00735393
0.00748912
0.00741601
0.00666923
0.00463016
0.00300122
0.00186478
0.00112393
0.000666079
0.000394257
0.000236231
0.00014437
9.00537e-05
5.7099e-05
3.66172e-05
2.36594e-05
1.53604e-05
1.00076e-05
6.5402e-06
4.28688e-06
2.81831e-06
1.85833e-06
1.22887e-06
8.14845e-07
5.41688e-07
3.60932e-07
2.40991e-07
1.61205e-07
1.08012e-07
7.2476e-08
4.86926e-08
3.27508e-08
2.20507e-08
1.48596e-08
1.00214e-08
6.76344e-09
4.56774e-09
3.08671e-09
2.087e-09
1.41183e-09
9.5561e-10
6.47128e-10
4.38421e-10
2.9717e-10
2.01537e-10
1.36749e-10
9.2831e-11
6.30539e-11
4.28577e-11
2.91496e-11
1.98391e-11
1.35139e-11
9.21499e-12
6.29033e-12
4.29862e-12
2.94178e-12
2.01692e-12
1.38557e-12
9.53893e-13
6.58507e-13
4.56146e-13
3.17164e-13
2.2145e-13
1.55424e-13
1.09781e-13
7.80928e-14
5.59902e-14
4.05272e-14
2.96667e-14
2.19885e-14
1.65179e-14
1.25984e-14
9.77854e-15
7.72764e-15
6.2194e-15
5.10934e-15
4.28533e-15
3.66463e-15
3.20242e-15
2.85612e-15
2.58799e-15
2.39611e-15
2.26496e-15
2.15932e-15
2.1005e-15
2.0964e-15
2.10737e-15
2.14067e-15
2.21422e-15
2.33644e-15
2.50392e-15
2.71731e-15
3.0376e-15
3.40907e-15
3.98648e-15
4.52977e-15
5.65704e-15
6.59647e-15
8.61656e-15
1.02964e-14
1.38642e-14
1.771e-14
2.28741e-14
3.21992e-14
4.0881e-14
6.09537e-14
7.86774e-14
1.15765e-13
1.51882e-13
2.27561e-13
3.2265e-13
4.23492e-13
6.70303e-13
8.99575e-13
1.37393e-12
1.83491e-12
2.86736e-12
3.86534e-12
6.01372e-12
8.09477e-12
1.27294e-11
1.73368e-11
2.73085e-11
3.70417e-11
5.8855e-11
8.02678e-11
1.29756e-10
1.75307e-10
2.97712e-10
3.8804e-10
7.52209e-10
8.85554e-10
2.31739e-09
2.2917e-09
9.67504e-09
8.7352e-09
5.37169e-08
6.54049e-08
1.96947e-07
5.13699e-07
8.50695e-07
2.43272e-06
4.45611e-06
7.94786e-06
2.36313e-05
3.59586e-05
5.43845e-05
0.000138567
0.000136948
0.000188838
0.000193803
0.000214766
0.000197258
0.000236661
0.000279507
0.000473026
0.000562559
0.000845201
0.000828203
0.000820748
0.000891404
0.00119173
0.00144046
0.00148307
0.00307847
0.00210717
0.00769028
0.00505065
0.045631
0.0191315
0.0218936
0.0472351
0.00392943
0.00388151
0.00374483
0.00226532
0.00102133
0.00100679
0.0125121
0.0163039
0.0111964
0.00409967
0.0029153
0.00458917
0.00524471
0.00508947
0.00559529
0.00548272
0.00577572
0.00634158
0.00625348
0.00589881
0.00454699
0.00427556
0.00466435
0.00467356
0.00437024
0.00456938
0.00604612
0.00704355
0.0074244
0.00751376
0.00741885
0.00661053
0.00455686
0.00291616
0.00179259
0.00107738
0.0006416
0.00038313
0.000231648
0.000142602
8.94578e-05
5.69936e-05
3.66794e-05
2.37552e-05
1.54527e-05
1.00819e-05
6.59432e-06
4.32405e-06
2.84287e-06
1.87417e-06
1.23892e-06
8.21157e-07
5.45615e-07
3.63362e-07
2.4249e-07
1.62128e-07
1.08578e-07
7.28218e-08
4.89044e-08
3.28805e-08
2.21297e-08
1.49077e-08
1.00508e-08
6.7814e-09
4.57863e-09
3.0933e-09
2.09104e-09
1.41431e-09
9.57101e-10
6.4802e-10
4.3897e-10
2.97511e-10
2.01739e-10
1.36866e-10
9.29033e-11
6.30993e-11
4.28832e-11
2.91629e-11
1.98469e-11
1.35186e-11
9.21705e-12
6.29084e-12
4.29883e-12
2.94191e-12
2.01674e-12
1.38517e-12
9.53563e-13
6.58257e-13
4.55863e-13
3.16862e-13
2.2121e-13
1.55243e-13
1.09613e-13
7.79339e-14
5.58649e-14
4.043e-14
2.95792e-14
2.19065e-14
1.64478e-14
1.254e-14
9.72563e-15
7.67862e-15
6.17575e-15
5.07212e-15
4.25219e-15
3.63171e-15
3.17172e-15
2.82985e-15
2.56166e-15
2.36845e-15
2.2398e-15
2.13619e-15
2.07678e-15
2.07248e-15
2.0836e-15
2.11704e-15
2.19153e-15
2.31048e-15
2.47654e-15
2.69471e-15
3.01235e-15
3.37719e-15
3.95014e-15
4.50143e-15
5.62775e-15
6.55259e-15
8.56092e-15
1.02487e-14
1.38253e-14
1.76134e-14
2.27563e-14
3.22158e-14
4.08253e-14
6.06547e-14
7.84284e-14
1.15646e-13
1.51746e-13
2.23829e-13
3.26344e-13
4.25415e-13
6.61914e-13
8.94172e-13
1.37987e-12
1.83866e-12
2.86184e-12
3.85607e-12
6.00112e-12
8.076e-12
1.26831e-11
1.72677e-11
2.72127e-11
3.69051e-11
5.86153e-11
7.98879e-11
1.29281e-10
1.74221e-10
2.98546e-10
3.84391e-10
7.77114e-10
8.77127e-10
2.64331e-09
2.38921e-09
1.47675e-08
1.17196e-08
1.41546e-07
1.54666e-07
9.79063e-07
1.84251e-06
4.55365e-06
9.55495e-06
3.37583e-05
3.50118e-05
0.000124457
9.42973e-05
0.000128305
0.00014549
0.000177086
0.000196738
0.000246745
0.000283436
0.000311832
0.00030848
0.000331645
0.000391887
0.000741329
0.000799155
0.00205653
0.00131712
0.0039362
0.00209604
0.0034788
0.00230873
0.00581387
0.00360539
0.0260366
0.0117221
0.0449499
0.0339371
0.0264794
0.0385162
0.000189055
0.000153943
0.000127972
0.000117972
0.000105958
0.000789183
0.0028362
0.00269782
0.00145932
0.000545897