/*--------------------------------*- C++ -*----------------------------------*\
| =========                 |                                                 |
| \\      /  F ield         | OpenFOAM: The Open Source CFD Toolbox           |
|  \\    /   O peration     | Version:  2.4.0                                 |
|   \\  /    A nd           | Web:      www.OpenFOAM.org                      |
|    \\/     M anipulation  |                                                 |
\*---------------------------------------------------------------------------*/
FoamFile
{
    version     2.0;
    format      ascii;
    class       volScalarField;
    location    "0.016";
    object      pPrime2Mean;
}
// * * * * * * * * * * * * * * * * * * * * * * * * * * * * * * * * * * * * * //

dimensions      [0 4 -4 0 0 0 0];

internalField   nonuniform List<scalar> 
17600
(
4.03347e+07
3.93181e+07
3.82245e+07
3.71405e+07
3.60719e+07
3.5019e+07
3.39817e+07
3.296e+07
3.19538e+07
3.09631e+07
2.99878e+07
2.90278e+07
2.80827e+07
2.71522e+07
2.62351e+07
2.53299e+07
2.44329e+07
2.35371e+07
2.26267e+07
2.16486e+07
4.03355e+07
3.93181e+07
3.82245e+07
3.71405e+07
3.60719e+07
3.5019e+07
3.39817e+07
3.296e+07
3.19538e+07
3.09631e+07
2.99878e+07
2.90278e+07
2.80828e+07
2.71522e+07
2.62352e+07
2.533e+07
2.44331e+07
2.35376e+07
2.2628e+07
2.16504e+07
4.03361e+07
3.93179e+07
3.82245e+07
3.71405e+07
3.60719e+07
3.5019e+07
3.39817e+07
3.296e+07
3.19538e+07
3.09631e+07
2.99879e+07
2.90278e+07
2.80828e+07
2.71523e+07
2.62353e+07
2.53302e+07
2.44336e+07
2.35387e+07
2.26303e+07
2.166e+07
4.03365e+07
3.93178e+07
3.82244e+07
3.71405e+07
3.60719e+07
3.5019e+07
3.39817e+07
3.296e+07
3.19538e+07
3.09631e+07
2.99879e+07
2.90278e+07
2.80828e+07
2.71524e+07
2.62355e+07
2.53306e+07
2.44343e+07
2.35402e+07
2.26338e+07
2.16736e+07
4.03369e+07
3.93177e+07
3.82243e+07
3.71405e+07
3.60719e+07
3.5019e+07
3.39817e+07
3.296e+07
3.19538e+07
3.09632e+07
2.99879e+07
2.90279e+07
2.80829e+07
2.71525e+07
2.62358e+07
2.53311e+07
2.44352e+07
2.35422e+07
2.26384e+07
2.16901e+07
4.03372e+07
3.93175e+07
3.82242e+07
3.71405e+07
3.60719e+07
3.5019e+07
3.39817e+07
3.296e+07
3.19538e+07
3.09632e+07
2.99879e+07
2.90279e+07
2.8083e+07
2.71527e+07
2.62361e+07
2.53317e+07
2.44364e+07
2.35446e+07
2.2644e+07
2.17083e+07
4.03375e+07
3.93174e+07
3.82241e+07
3.71404e+07
3.60719e+07
3.5019e+07
3.39817e+07
3.296e+07
3.19539e+07
3.09632e+07
2.9988e+07
2.9028e+07
2.80831e+07
2.71529e+07
2.62364e+07
2.53324e+07
2.44378e+07
2.35474e+07
2.26505e+07
2.17274e+07
4.03378e+07
3.93174e+07
3.8224e+07
3.71404e+07
3.60719e+07
3.5019e+07
3.39817e+07
3.296e+07
3.19539e+07
3.09632e+07
2.9988e+07
2.90281e+07
2.80832e+07
2.71531e+07
2.62369e+07
2.53332e+07
2.44393e+07
2.35505e+07
2.26577e+07
2.17469e+07
4.0338e+07
3.93173e+07
3.82239e+07
3.71404e+07
3.60719e+07
3.50189e+07
3.39817e+07
3.296e+07
3.19539e+07
3.09632e+07
2.9988e+07
2.90281e+07
2.80834e+07
2.71534e+07
2.62373e+07
2.5334e+07
2.44411e+07
2.3554e+07
2.26654e+07
2.17664e+07
4.03383e+07
3.93172e+07
3.82238e+07
3.71404e+07
3.60719e+07
3.50189e+07
3.39817e+07
3.296e+07
3.19539e+07
3.09633e+07
2.99881e+07
2.90282e+07
2.80835e+07
2.71536e+07
2.62379e+07
2.5335e+07
2.44429e+07
2.35578e+07
2.26735e+07
2.17858e+07
4.03385e+07
3.93172e+07
3.82237e+07
3.71403e+07
3.60719e+07
3.50189e+07
3.39816e+07
3.296e+07
3.19539e+07
3.09633e+07
2.99881e+07
2.90283e+07
2.80837e+07
2.71539e+07
2.62384e+07
2.53361e+07
2.4445e+07
2.35618e+07
2.2682e+07
2.18049e+07
4.03386e+07
3.93172e+07
3.82236e+07
3.71403e+07
3.60719e+07
3.50189e+07
3.39816e+07
3.296e+07
3.19539e+07
3.09633e+07
2.99882e+07
2.90284e+07
2.80839e+07
2.71543e+07
2.6239e+07
2.53372e+07
2.44471e+07
2.35661e+07
2.26907e+07
2.18235e+07
4.03388e+07
3.93172e+07
3.82236e+07
3.71403e+07
3.60719e+07
3.50189e+07
3.39816e+07
3.296e+07
3.19539e+07
3.09634e+07
2.99882e+07
2.90285e+07
2.8084e+07
2.71546e+07
2.62397e+07
2.53384e+07
2.44494e+07
2.35705e+07
2.26996e+07
2.18416e+07
4.03389e+07
3.93172e+07
3.82235e+07
3.71403e+07
3.60719e+07
3.50189e+07
3.39816e+07
3.296e+07
3.19539e+07
3.09634e+07
2.99883e+07
2.90286e+07
2.80842e+07
2.7155e+07
2.62403e+07
2.53397e+07
2.44517e+07
2.3575e+07
2.27085e+07
2.1859e+07
4.0339e+07
3.93171e+07
3.82235e+07
3.71402e+07
3.60719e+07
3.50189e+07
3.39816e+07
3.296e+07
3.1954e+07
3.09634e+07
2.99884e+07
2.90287e+07
2.80844e+07
2.71554e+07
2.6241e+07
2.53409e+07
2.44542e+07
2.35796e+07
2.27174e+07
2.18758e+07
4.03391e+07
3.93171e+07
3.82234e+07
3.71402e+07
3.60719e+07
3.50189e+07
3.39816e+07
3.296e+07
3.1954e+07
3.09635e+07
2.99884e+07
2.90288e+07
2.80847e+07
2.71557e+07
2.62418e+07
2.53423e+07
2.44566e+07
2.35843e+07
2.27263e+07
2.18919e+07
4.03392e+07
3.93171e+07
3.82234e+07
3.71402e+07
3.60719e+07
3.50189e+07
3.39816e+07
3.296e+07
3.1954e+07
3.09635e+07
2.99885e+07
2.9029e+07
2.80849e+07
2.71561e+07
2.62425e+07
2.53436e+07
2.44592e+07
2.3589e+07
2.2735e+07
2.19074e+07
4.03393e+07
3.93171e+07
3.82234e+07
3.71402e+07
3.60719e+07
3.50189e+07
3.39816e+07
3.296e+07
3.1954e+07
3.09635e+07
2.99886e+07
2.90291e+07
2.80851e+07
2.71566e+07
2.62433e+07
2.5345e+07
2.44617e+07
2.35937e+07
2.27436e+07
2.19221e+07
4.03393e+07
3.93171e+07
3.82234e+07
3.71402e+07
3.60719e+07
3.50189e+07
3.39816e+07
3.296e+07
3.1954e+07
3.09636e+07
2.99886e+07
2.90292e+07
2.80853e+07
2.7157e+07
2.6244e+07
2.53464e+07
2.44643e+07
2.35983e+07
2.27519e+07
2.19362e+07
4.03393e+07
3.93171e+07
3.82234e+07
3.71402e+07
3.60719e+07
3.50189e+07
3.39816e+07
3.296e+07
3.19541e+07
3.09636e+07
2.99887e+07
2.90293e+07
2.80856e+07
2.71574e+07
2.62448e+07
2.53478e+07
2.44668e+07
2.36029e+07
2.27601e+07
2.19495e+07
4.03393e+07
3.93171e+07
3.82234e+07
3.71402e+07
3.60719e+07
3.50189e+07
3.39816e+07
3.296e+07
3.19541e+07
3.09637e+07
2.99888e+07
2.90295e+07
2.80858e+07
2.71578e+07
2.62455e+07
2.53492e+07
2.44693e+07
2.36074e+07
2.27679e+07
2.19622e+07
4.03393e+07
3.93171e+07
3.82234e+07
3.71402e+07
3.60719e+07
3.5019e+07
3.39816e+07
3.296e+07
3.19541e+07
3.09637e+07
2.99888e+07
2.90296e+07
2.8086e+07
2.71582e+07
2.62463e+07
2.53506e+07
2.44718e+07
2.36118e+07
2.27755e+07
2.19741e+07
4.03393e+07
3.93171e+07
3.82234e+07
3.71402e+07
3.60719e+07
3.5019e+07
3.39817e+07
3.29601e+07
3.19541e+07
3.09637e+07
2.99889e+07
2.90297e+07
2.80863e+07
2.71586e+07
2.62471e+07
2.53519e+07
2.44742e+07
2.36161e+07
2.27827e+07
2.19854e+07
4.03392e+07
3.93171e+07
3.82234e+07
3.71402e+07
3.60719e+07
3.5019e+07
3.39817e+07
3.29601e+07
3.19541e+07
3.09638e+07
2.9989e+07
2.90298e+07
2.80865e+07
2.7159e+07
2.62478e+07
2.53532e+07
2.44766e+07
2.36202e+07
2.27897e+07
2.1996e+07
4.03391e+07
3.93171e+07
3.82234e+07
3.71402e+07
3.60719e+07
3.5019e+07
3.39817e+07
3.29601e+07
3.19542e+07
3.09638e+07
2.9989e+07
2.903e+07
2.80867e+07
2.71594e+07
2.62485e+07
2.53545e+07
2.44789e+07
2.36242e+07
2.27962e+07
2.20059e+07
4.03391e+07
3.93172e+07
3.82235e+07
3.71402e+07
3.60719e+07
3.5019e+07
3.39817e+07
3.29601e+07
3.19542e+07
3.09638e+07
2.99891e+07
2.90301e+07
2.80869e+07
2.71598e+07
2.62492e+07
2.53558e+07
2.4481e+07
2.3628e+07
2.28024e+07
2.20152e+07
4.03389e+07
3.93172e+07
3.82235e+07
3.71403e+07
3.60719e+07
3.5019e+07
3.39817e+07
3.29601e+07
3.19542e+07
3.09639e+07
2.99892e+07
2.90302e+07
2.80871e+07
2.71602e+07
2.62498e+07
2.53569e+07
2.44831e+07
2.36316e+07
2.28083e+07
2.20238e+07
4.03388e+07
3.93172e+07
3.82236e+07
3.71403e+07
3.60719e+07
3.5019e+07
3.39817e+07
3.29601e+07
3.19542e+07
3.09639e+07
2.99892e+07
2.90303e+07
2.80873e+07
2.71605e+07
2.62505e+07
2.53581e+07
2.44851e+07
2.36349e+07
2.28137e+07
2.20318e+07
4.03387e+07
3.93172e+07
3.82237e+07
3.71403e+07
3.60719e+07
3.5019e+07
3.39817e+07
3.29602e+07
3.19542e+07
3.09639e+07
2.99893e+07
2.90304e+07
2.80875e+07
2.71609e+07
2.62511e+07
2.53591e+07
2.4487e+07
2.36381e+07
2.28188e+07
2.20391e+07
4.03385e+07
3.93172e+07
3.82237e+07
3.71403e+07
3.60719e+07
3.5019e+07
3.39817e+07
3.29602e+07
3.19543e+07
3.0964e+07
2.99893e+07
2.90305e+07
2.80877e+07
2.71612e+07
2.62516e+07
2.53601e+07
2.44887e+07
2.3641e+07
2.28234e+07
2.20458e+07
4.03383e+07
3.93173e+07
3.82238e+07
3.71404e+07
3.60719e+07
3.5019e+07
3.39818e+07
3.29602e+07
3.19543e+07
3.0964e+07
2.99894e+07
2.90306e+07
2.80878e+07
2.71615e+07
2.62522e+07
2.53611e+07
2.44903e+07
2.36437e+07
2.28277e+07
2.20519e+07
4.0338e+07
3.93173e+07
3.82239e+07
3.71404e+07
3.60719e+07
3.5019e+07
3.39818e+07
3.29602e+07
3.19543e+07
3.0964e+07
2.99894e+07
2.90307e+07
2.8088e+07
2.71617e+07
2.62526e+07
2.53619e+07
2.44918e+07
2.36462e+07
2.28315e+07
2.20573e+07
4.03378e+07
3.93174e+07
3.8224e+07
3.71404e+07
3.60719e+07
3.5019e+07
3.39818e+07
3.29602e+07
3.19543e+07
3.0964e+07
2.99895e+07
2.90307e+07
2.80881e+07
2.7162e+07
2.62531e+07
2.53627e+07
2.44931e+07
2.36483e+07
2.28349e+07
2.20622e+07
4.03375e+07
3.93175e+07
3.82241e+07
3.71405e+07
3.60719e+07
3.5019e+07
3.39818e+07
3.29603e+07
3.19543e+07
3.0964e+07
2.99895e+07
2.90308e+07
2.80882e+07
2.71622e+07
2.62534e+07
2.53633e+07
2.44942e+07
2.36503e+07
2.28379e+07
2.20664e+07
4.03372e+07
3.93176e+07
3.82242e+07
3.71405e+07
3.60719e+07
3.50191e+07
3.39818e+07
3.29603e+07
3.19543e+07
3.0964e+07
2.99895e+07
2.90309e+07
2.80883e+07
2.71624e+07
2.62538e+07
2.53639e+07
2.44952e+07
2.36519e+07
2.28405e+07
2.207e+07
4.03369e+07
3.93177e+07
3.82243e+07
3.71405e+07
3.60719e+07
3.50191e+07
3.39819e+07
3.29603e+07
3.19543e+07
3.09641e+07
2.99895e+07
2.90309e+07
2.80884e+07
2.71625e+07
2.6254e+07
2.53644e+07
2.44961e+07
2.36533e+07
2.28426e+07
2.2073e+07
4.03365e+07
3.93178e+07
3.82244e+07
3.71405e+07
3.6072e+07
3.50191e+07
3.39819e+07
3.29603e+07
3.19543e+07
3.09641e+07
2.99896e+07
2.90309e+07
2.80885e+07
2.71626e+07
2.62543e+07
2.53648e+07
2.44968e+07
2.36544e+07
2.28444e+07
2.20755e+07
4.03361e+07
3.9318e+07
3.82245e+07
3.71406e+07
3.6072e+07
3.50191e+07
3.39819e+07
3.29603e+07
3.19543e+07
3.09641e+07
2.99896e+07
2.9031e+07
2.80885e+07
2.71627e+07
2.62544e+07
2.53651e+07
2.44973e+07
2.36553e+07
2.28457e+07
2.20773e+07
4.03355e+07
3.93181e+07
3.82246e+07
3.71406e+07
3.6072e+07
3.50191e+07
3.39819e+07
3.29603e+07
3.19543e+07
3.09641e+07
2.99896e+07
2.9031e+07
2.80886e+07
2.71628e+07
2.62546e+07
2.53653e+07
2.44976e+07
2.36558e+07
2.28465e+07
2.20785e+07
4.03347e+07
3.93181e+07
3.82246e+07
3.71406e+07
3.6072e+07
3.50191e+07
3.39819e+07
3.29603e+07
3.19543e+07
3.09641e+07
2.99896e+07
2.9031e+07
2.80886e+07
2.71628e+07
2.62546e+07
2.53654e+07
2.44978e+07
2.36561e+07
2.2847e+07
2.2079e+07
2.07222e+07
2.04989e+07
2.03264e+07
2.01754e+07
2.00336e+07
1.98977e+07
1.97659e+07
1.96372e+07
1.95109e+07
1.93863e+07
1.92632e+07
1.91412e+07
1.90202e+07
1.89002e+07
1.87812e+07
1.86631e+07
1.85459e+07
1.84296e+07
1.8314e+07
1.8199e+07
1.80848e+07
1.79711e+07
1.7858e+07
1.77454e+07
1.76332e+07
1.75215e+07
1.74103e+07
1.72994e+07
1.7189e+07
1.7079e+07
1.69694e+07
1.68602e+07
1.67513e+07
1.66429e+07
1.65348e+07
1.64271e+07
1.63197e+07
1.62127e+07
1.61061e+07
1.59999e+07
1.5894e+07
1.57884e+07
1.56832e+07
1.55784e+07
1.5474e+07
1.53698e+07
1.52661e+07
1.51627e+07
1.50597e+07
1.4957e+07
1.48546e+07
1.47527e+07
1.4651e+07
1.45498e+07
1.44488e+07
1.43483e+07
1.4248e+07
1.41482e+07
1.40487e+07
1.39495e+07
1.38507e+07
1.37522e+07
1.36541e+07
1.35564e+07
1.3459e+07
1.33619e+07
1.32652e+07
1.31689e+07
1.30729e+07
1.29772e+07
1.2882e+07
1.2787e+07
1.26924e+07
1.25982e+07
1.25043e+07
1.24108e+07
1.23176e+07
1.22248e+07
1.21323e+07
1.20401e+07
1.19484e+07
1.18569e+07
1.17659e+07
1.16751e+07
1.15848e+07
1.14947e+07
1.14051e+07
1.13157e+07
1.12268e+07
1.11382e+07
1.10499e+07
1.0962e+07
1.08744e+07
1.07872e+07
1.07003e+07
1.06138e+07
1.05277e+07
1.04419e+07
1.03564e+07
1.02713e+07
1.01866e+07
1.01022e+07
1.00181e+07
9.9344e+06
9.85105e+06
9.76805e+06
9.6854e+06
9.60311e+06
9.52116e+06
9.43957e+06
9.35832e+06
9.27743e+06
9.19689e+06
9.1167e+06
9.03686e+06
8.95737e+06
8.87824e+06
8.79945e+06
8.72102e+06
8.64293e+06
8.5652e+06
8.48782e+06
8.41079e+06
8.33411e+06
8.25778e+06
8.1818e+06
8.10618e+06
8.0309e+06
7.95598e+06
7.8814e+06
7.80718e+06
7.73331e+06
7.65979e+06
7.58662e+06
7.5138e+06
7.44133e+06
7.36922e+06
7.29745e+06
7.22603e+06
7.15497e+06
7.08426e+06
7.01389e+06
6.94388e+06
6.87422e+06
6.8049e+06
6.73594e+06
6.66733e+06
6.59907e+06
6.53116e+06
6.4636e+06
6.39639e+06
6.32953e+06
6.26302e+06
6.19685e+06
6.13104e+06
6.06558e+06
6.00046e+06
5.9357e+06
5.87128e+06
5.80721e+06
5.74349e+06
5.68011e+06
5.61708e+06
5.5544e+06
5.49206e+06
5.43006e+06
5.36841e+06
5.30709e+06
5.24612e+06
5.18549e+06
5.12519e+06
5.06523e+06
5.0056e+06
4.9463e+06
4.88734e+06
4.82869e+06
4.77037e+06
4.71235e+06
4.65465e+06
4.59725e+06
4.54014e+06
4.48332e+06
4.42676e+06
4.37045e+06
4.31438e+06
4.25852e+06
4.20284e+06
4.14731e+06
4.09189e+06
4.03651e+06
3.98112e+06
3.92562e+06
3.86988e+06
3.81375e+06
3.75701e+06
3.69929e+06
3.64011e+06
3.57869e+06
3.51204e+06
3.43976e+06
2.08263e+07
2.05839e+07
2.03933e+07
2.02299e+07
2.00797e+07
1.99375e+07
1.98007e+07
1.96679e+07
1.9538e+07
1.94105e+07
1.92849e+07
1.91607e+07
1.90378e+07
1.89161e+07
1.87956e+07
1.86762e+07
1.85578e+07
1.84403e+07
1.83237e+07
1.82079e+07
1.80928e+07
1.79784e+07
1.78646e+07
1.77513e+07
1.76386e+07
1.75264e+07
1.74147e+07
1.73035e+07
1.71927e+07
1.70823e+07
1.69724e+07
1.68629e+07
1.67538e+07
1.66451e+07
1.65368e+07
1.64289e+07
1.63214e+07
1.62143e+07
1.61075e+07
1.60011e+07
1.58951e+07
1.57895e+07
1.56842e+07
1.55793e+07
1.54747e+07
1.53705e+07
1.52667e+07
1.51633e+07
1.50602e+07
1.49574e+07
1.48551e+07
1.4753e+07
1.46514e+07
1.45501e+07
1.44491e+07
1.43485e+07
1.42483e+07
1.41484e+07
1.40489e+07
1.39497e+07
1.38509e+07
1.37524e+07
1.36543e+07
1.35565e+07
1.34591e+07
1.3362e+07
1.32653e+07
1.3169e+07
1.3073e+07
1.29773e+07
1.2882e+07
1.27871e+07
1.26925e+07
1.25982e+07
1.25043e+07
1.24108e+07
1.23176e+07
1.22248e+07
1.21323e+07
1.20402e+07
1.19484e+07
1.1857e+07
1.17659e+07
1.16752e+07
1.15848e+07
1.14948e+07
1.14051e+07
1.13158e+07
1.12268e+07
1.11382e+07
1.10499e+07
1.0962e+07
1.08744e+07
1.07872e+07
1.07004e+07
1.06138e+07
1.05277e+07
1.04419e+07
1.03564e+07
1.02713e+07
1.01866e+07
1.01022e+07
1.00181e+07
9.9344e+06
9.85105e+06
9.76805e+06
9.6854e+06
9.6031e+06
9.52116e+06
9.43956e+06
9.35832e+06
9.27742e+06
9.19688e+06
9.11669e+06
9.03685e+06
8.95736e+06
8.87822e+06
8.79944e+06
8.721e+06
8.64291e+06
8.56518e+06
8.4878e+06
8.41076e+06
8.33408e+06
8.25775e+06
8.18177e+06
8.10614e+06
8.03086e+06
7.95594e+06
7.88136e+06
7.80713e+06
7.73326e+06
7.65973e+06
7.58655e+06
7.51373e+06
7.44125e+06
7.36913e+06
7.29736e+06
7.22593e+06
7.15486e+06
7.08413e+06
7.01376e+06
6.94373e+06
6.87406e+06
6.80473e+06
6.73575e+06
6.66712e+06
6.59884e+06
6.53091e+06
6.46332e+06
6.39609e+06
6.3292e+06
6.26266e+06
6.19646e+06
6.13061e+06
6.06511e+06
5.99995e+06
5.93514e+06
5.87067e+06
5.80654e+06
5.74275e+06
5.67931e+06
5.61621e+06
5.55344e+06
5.49101e+06
5.42892e+06
5.36716e+06
5.30574e+06
5.24464e+06
5.18386e+06
5.12342e+06
5.06329e+06
5.00348e+06
4.94399e+06
4.8848e+06
4.82592e+06
4.76734e+06
4.70905e+06
4.65104e+06
4.5933e+06
4.53582e+06
4.47859e+06
4.42158e+06
4.36479e+06
4.30817e+06
4.25171e+06
4.19537e+06
4.13911e+06
4.08286e+06
4.02656e+06
3.97012e+06
3.91341e+06
3.8563e+06
3.79854e+06
3.73985e+06
3.67972e+06
3.61741e+06
3.55174e+06
3.47871e+06
3.39304e+06
2.09084e+07
2.06582e+07
2.04562e+07
2.02826e+07
2.01248e+07
1.99766e+07
1.98351e+07
1.96982e+07
1.9565e+07
1.94346e+07
1.93064e+07
1.918e+07
1.90552e+07
1.89319e+07
1.88099e+07
1.86892e+07
1.85696e+07
1.8451e+07
1.83334e+07
1.82167e+07
1.81008e+07
1.79857e+07
1.78712e+07
1.77573e+07
1.76441e+07
1.75314e+07
1.74192e+07
1.73075e+07
1.71964e+07
1.70857e+07
1.69754e+07
1.68657e+07
1.67563e+07
1.66474e+07
1.65389e+07
1.64308e+07
1.63231e+07
1.62158e+07
1.61089e+07
1.60024e+07
1.58962e+07
1.57905e+07
1.56851e+07
1.55801e+07
1.54755e+07
1.53712e+07
1.52674e+07
1.51638e+07
1.50607e+07
1.49579e+07
1.48555e+07
1.47534e+07
1.46517e+07
1.45504e+07
1.44494e+07
1.43488e+07
1.42485e+07
1.41486e+07
1.40491e+07
1.39499e+07
1.3851e+07
1.37525e+07
1.36544e+07
1.35566e+07
1.34592e+07
1.33621e+07
1.32654e+07
1.3169e+07
1.3073e+07
1.29774e+07
1.28821e+07
1.27871e+07
1.26925e+07
1.25983e+07
1.25044e+07
1.24108e+07
1.23176e+07
1.22248e+07
1.21323e+07
1.20402e+07
1.19484e+07
1.1857e+07
1.17659e+07
1.16752e+07
1.15848e+07
1.14948e+07
1.14051e+07
1.13158e+07
1.12268e+07
1.11382e+07
1.10499e+07
1.0962e+07
1.08744e+07
1.07872e+07
1.07004e+07
1.06138e+07
1.05277e+07
1.04419e+07
1.03564e+07
1.02713e+07
1.01866e+07
1.01022e+07
1.00181e+07
9.9344e+06
9.85104e+06
9.76804e+06
9.6854e+06
9.6031e+06
9.52115e+06
9.43955e+06
9.35831e+06
9.27742e+06
9.19687e+06
9.11668e+06
9.03684e+06
8.95735e+06
8.87821e+06
8.79942e+06
8.72098e+06
8.6429e+06
8.56516e+06
8.48777e+06
8.41074e+06
8.33406e+06
8.25772e+06
8.18174e+06
8.10611e+06
8.03083e+06
7.95589e+06
7.88131e+06
7.80708e+06
7.7332e+06
7.65967e+06
7.58649e+06
7.51366e+06
7.44118e+06
7.36904e+06
7.29726e+06
7.22583e+06
7.15474e+06
7.08401e+06
7.01362e+06
6.94358e+06
6.87389e+06
6.80455e+06
6.73556e+06
6.66691e+06
6.59861e+06
6.53066e+06
6.46305e+06
6.39579e+06
6.32887e+06
6.2623e+06
6.19607e+06
6.13018e+06
6.06464e+06
5.99944e+06
5.93458e+06
5.87006e+06
5.80587e+06
5.74203e+06
5.67851e+06
5.61534e+06
5.55249e+06
5.48998e+06
5.42779e+06
5.36592e+06
5.30438e+06
5.24316e+06
5.18225e+06
5.12165e+06
5.06136e+06
5.00137e+06
4.94168e+06
4.88228e+06
4.82317e+06
4.76433e+06
4.70576e+06
4.64744e+06
4.58937e+06
4.53152e+06
4.47389e+06
4.41644e+06
4.35916e+06
4.30201e+06
4.24496e+06
4.18797e+06
4.13097e+06
4.07392e+06
4.01671e+06
3.95925e+06
3.90139e+06
3.84294e+06
3.78363e+06
3.72309e+06
3.66076e+06
3.59557e+06
3.52638e+06
3.44862e+06
3.35584e+06
2.09759e+07
2.07241e+07
2.05146e+07
2.0333e+07
2.01685e+07
2.00148e+07
1.98687e+07
1.97281e+07
1.95915e+07
1.94583e+07
1.93276e+07
1.91992e+07
1.90725e+07
1.89476e+07
1.88241e+07
1.8702e+07
1.85813e+07
1.84616e+07
1.83431e+07
1.82255e+07
1.81088e+07
1.79929e+07
1.78777e+07
1.77633e+07
1.76494e+07
1.75362e+07
1.74236e+07
1.73116e+07
1.72e+07
1.7089e+07
1.69784e+07
1.68684e+07
1.67588e+07
1.66496e+07
1.65409e+07
1.64326e+07
1.63248e+07
1.62173e+07
1.61103e+07
1.60036e+07
1.58974e+07
1.57915e+07
1.5686e+07
1.5581e+07
1.54763e+07
1.53719e+07
1.5268e+07
1.51644e+07
1.50612e+07
1.49584e+07
1.48559e+07
1.47538e+07
1.46521e+07
1.45507e+07
1.44497e+07
1.43491e+07
1.42488e+07
1.41488e+07
1.40493e+07
1.395e+07
1.38512e+07
1.37527e+07
1.36545e+07
1.35567e+07
1.34593e+07
1.33622e+07
1.32655e+07
1.31691e+07
1.30731e+07
1.29774e+07
1.28821e+07
1.27872e+07
1.26926e+07
1.25983e+07
1.25044e+07
1.24109e+07
1.23177e+07
1.22248e+07
1.21324e+07
1.20402e+07
1.19484e+07
1.1857e+07
1.17659e+07
1.16752e+07
1.15848e+07
1.14948e+07
1.14051e+07
1.13158e+07
1.12268e+07
1.11382e+07
1.10499e+07
1.0962e+07
1.08744e+07
1.07872e+07
1.07004e+07
1.06138e+07
1.05277e+07
1.04419e+07
1.03564e+07
1.02713e+07
1.01866e+07
1.01022e+07
1.00181e+07
9.93439e+06
9.85104e+06
9.76804e+06
9.68539e+06
9.60309e+06
9.52115e+06
9.43955e+06
9.3583e+06
9.27741e+06
9.19686e+06
9.11667e+06
9.03683e+06
8.95734e+06
8.8782e+06
8.79941e+06
8.72097e+06
8.64288e+06
8.56514e+06
8.48775e+06
8.41072e+06
8.33403e+06
8.25769e+06
8.18171e+06
8.10607e+06
8.03079e+06
7.95585e+06
7.88127e+06
7.80703e+06
7.73315e+06
7.65961e+06
7.58642e+06
7.51359e+06
7.4411e+06
7.36896e+06
7.29717e+06
7.22573e+06
7.15463e+06
7.08389e+06
7.01349e+06
6.94344e+06
6.87373e+06
6.80438e+06
6.73537e+06
6.6667e+06
6.59838e+06
6.53041e+06
6.46278e+06
6.39549e+06
6.32854e+06
6.26194e+06
6.19568e+06
6.12976e+06
6.06417e+06
5.99893e+06
5.93402e+06
5.86945e+06
5.80521e+06
5.7413e+06
5.67772e+06
5.61447e+06
5.55155e+06
5.48894e+06
5.42666e+06
5.36469e+06
5.30303e+06
5.24168e+06
5.18064e+06
5.11989e+06
5.05944e+06
4.99927e+06
4.93938e+06
4.87977e+06
4.82043e+06
4.76134e+06
4.70249e+06
4.64387e+06
4.58547e+06
4.52726e+06
4.46922e+06
4.41134e+06
4.35358e+06
4.2959e+06
4.23827e+06
4.18064e+06
4.12294e+06
4.06509e+06
4.007e+06
3.94855e+06
3.88957e+06
3.82984e+06
3.76907e+06
3.70678e+06
3.6425e+06
3.57473e+06
3.50276e+06
3.42166e+06
3.32638e+06
2.10334e+07
2.07825e+07
2.05686e+07
2.03808e+07
2.02105e+07
2.00519e+07
1.99016e+07
1.97573e+07
1.96176e+07
1.94816e+07
1.93486e+07
1.92181e+07
1.90896e+07
1.89631e+07
1.88382e+07
1.87148e+07
1.85929e+07
1.84722e+07
1.83526e+07
1.82342e+07
1.81167e+07
1.8e+07
1.78842e+07
1.77691e+07
1.76548e+07
1.75411e+07
1.7428e+07
1.73155e+07
1.72036e+07
1.70923e+07
1.69814e+07
1.68711e+07
1.67612e+07
1.66519e+07
1.65429e+07
1.64345e+07
1.63264e+07
1.62188e+07
1.61116e+07
1.60049e+07
1.58985e+07
1.57925e+07
1.5687e+07
1.55818e+07
1.5477e+07
1.53726e+07
1.52686e+07
1.5165e+07
1.50617e+07
1.49589e+07
1.48563e+07
1.47542e+07
1.46524e+07
1.4551e+07
1.445e+07
1.43493e+07
1.4249e+07
1.4149e+07
1.40495e+07
1.39502e+07
1.38513e+07
1.37528e+07
1.36547e+07
1.35569e+07
1.34594e+07
1.33623e+07
1.32656e+07
1.31692e+07
1.30732e+07
1.29775e+07
1.28822e+07
1.27872e+07
1.26926e+07
1.25984e+07
1.25045e+07
1.24109e+07
1.23177e+07
1.22249e+07
1.21324e+07
1.20402e+07
1.19485e+07
1.1857e+07
1.17659e+07
1.16752e+07
1.15848e+07
1.14948e+07
1.14051e+07
1.13158e+07
1.12268e+07
1.11382e+07
1.10499e+07
1.0962e+07
1.08744e+07
1.07872e+07
1.07004e+07
1.06139e+07
1.05277e+07
1.04419e+07
1.03564e+07
1.02713e+07
1.01866e+07
1.01021e+07
1.00181e+07
9.93439e+06
9.85104e+06
9.76804e+06
9.68539e+06
9.60309e+06
9.52114e+06
9.43954e+06
9.3583e+06
9.2774e+06
9.19685e+06
9.11666e+06
9.03682e+06
8.95732e+06
8.87818e+06
8.79939e+06
8.72095e+06
8.64286e+06
8.56512e+06
8.48773e+06
8.41069e+06
8.334e+06
8.25766e+06
8.18168e+06
8.10604e+06
8.03075e+06
7.95581e+06
7.88122e+06
7.80698e+06
7.73309e+06
7.65955e+06
7.58636e+06
7.51351e+06
7.44102e+06
7.36887e+06
7.29707e+06
7.22562e+06
7.15452e+06
7.08376e+06
7.01335e+06
6.94329e+06
6.87357e+06
6.8042e+06
6.73518e+06
6.66649e+06
6.59815e+06
6.53016e+06
6.4625e+06
6.39519e+06
6.32822e+06
6.26159e+06
6.19529e+06
6.12933e+06
6.06371e+06
5.99842e+06
5.93347e+06
5.86884e+06
5.80455e+06
5.74058e+06
5.67693e+06
5.61361e+06
5.5506e+06
5.48791e+06
5.42554e+06
5.36346e+06
5.30169e+06
5.24022e+06
5.17904e+06
5.11814e+06
5.05753e+06
4.99718e+06
4.93711e+06
4.87728e+06
4.81771e+06
4.75837e+06
4.69924e+06
4.64033e+06
4.58159e+06
4.52303e+06
4.4646e+06
4.40629e+06
4.34805e+06
4.28986e+06
4.23166e+06
4.1734e+06
4.115e+06
4.05639e+06
3.99745e+06
3.93804e+06
3.87799e+06
3.81703e+06
3.75494e+06
3.69098e+06
3.62503e+06
3.555e+06
3.4809e+06
3.39776e+06
3.30222e+06
2.10834e+07
2.08349e+07
2.06184e+07
2.0426e+07
2.02508e+07
2.00878e+07
1.99335e+07
1.97858e+07
1.96432e+07
1.95046e+07
1.93693e+07
1.92367e+07
1.91065e+07
1.89784e+07
1.88521e+07
1.87274e+07
1.86043e+07
1.84826e+07
1.83621e+07
1.82428e+07
1.81245e+07
1.80071e+07
1.78906e+07
1.7775e+07
1.76601e+07
1.75459e+07
1.74324e+07
1.73195e+07
1.72072e+07
1.70955e+07
1.69844e+07
1.68738e+07
1.67637e+07
1.66541e+07
1.65449e+07
1.64363e+07
1.63281e+07
1.62203e+07
1.6113e+07
1.60061e+07
1.58996e+07
1.57935e+07
1.56879e+07
1.55826e+07
1.54778e+07
1.53733e+07
1.52692e+07
1.51656e+07
1.50622e+07
1.49593e+07
1.48568e+07
1.47546e+07
1.46528e+07
1.45513e+07
1.44503e+07
1.43496e+07
1.42492e+07
1.41493e+07
1.40496e+07
1.39504e+07
1.38515e+07
1.3753e+07
1.36548e+07
1.3557e+07
1.34595e+07
1.33624e+07
1.32657e+07
1.31693e+07
1.30733e+07
1.29776e+07
1.28823e+07
1.27873e+07
1.26927e+07
1.25984e+07
1.25045e+07
1.24109e+07
1.23177e+07
1.22249e+07
1.21324e+07
1.20403e+07
1.19485e+07
1.1857e+07
1.17659e+07
1.16752e+07
1.15848e+07
1.14948e+07
1.14051e+07
1.13158e+07
1.12268e+07
1.11382e+07
1.10499e+07
1.0962e+07
1.08744e+07
1.07872e+07
1.07004e+07
1.06139e+07
1.05277e+07
1.04419e+07
1.03564e+07
1.02713e+07
1.01866e+07
1.01021e+07
1.00181e+07
9.93439e+06
9.85104e+06
9.76803e+06
9.68538e+06
9.60308e+06
9.52113e+06
9.43954e+06
9.35829e+06
9.27739e+06
9.19685e+06
9.11665e+06
9.03681e+06
8.95731e+06
8.87817e+06
8.79938e+06
8.72093e+06
8.64284e+06
8.5651e+06
8.48771e+06
8.41067e+06
8.33398e+06
8.25764e+06
8.18164e+06
8.106e+06
8.03071e+06
7.95577e+06
7.88118e+06
7.80693e+06
7.73304e+06
7.65949e+06
7.58629e+06
7.51344e+06
7.44094e+06
7.36879e+06
7.29698e+06
7.22552e+06
7.15441e+06
7.08364e+06
7.01322e+06
6.94315e+06
6.87342e+06
6.80403e+06
6.73499e+06
6.66629e+06
6.59793e+06
6.52991e+06
6.46223e+06
6.3949e+06
6.3279e+06
6.26123e+06
6.19491e+06
6.12891e+06
6.06325e+06
5.99792e+06
5.93292e+06
5.86824e+06
5.80389e+06
5.73986e+06
5.67615e+06
5.61275e+06
5.54967e+06
5.48689e+06
5.42442e+06
5.36225e+06
5.30037e+06
5.23877e+06
5.17745e+06
5.11641e+06
5.05563e+06
4.99511e+06
4.93485e+06
4.87482e+06
4.81501e+06
4.75542e+06
4.69603e+06
4.63682e+06
4.57776e+06
4.51884e+06
4.46003e+06
4.40129e+06
4.3426e+06
4.2839e+06
4.22514e+06
4.16627e+06
4.1072e+06
4.04783e+06
3.98808e+06
3.92773e+06
3.8667e+06
3.80454e+06
3.74127e+06
3.67574e+06
3.60838e+06
3.53645e+06
3.46074e+06
3.37659e+06
3.28174e+06
2.11274e+07
2.08821e+07
2.06643e+07
2.04684e+07
2.02893e+07
2.01224e+07
1.99645e+07
1.98136e+07
1.96682e+07
1.95271e+07
1.93896e+07
1.92551e+07
1.91232e+07
1.89935e+07
1.88658e+07
1.87399e+07
1.86157e+07
1.84929e+07
1.83715e+07
1.82513e+07
1.81322e+07
1.80141e+07
1.7897e+07
1.77808e+07
1.76653e+07
1.75507e+07
1.74367e+07
1.73234e+07
1.72108e+07
1.70988e+07
1.69873e+07
1.68764e+07
1.67661e+07
1.66563e+07
1.65469e+07
1.64381e+07
1.63297e+07
1.62218e+07
1.61143e+07
1.60073e+07
1.59007e+07
1.57946e+07
1.56888e+07
1.55835e+07
1.54785e+07
1.5374e+07
1.52699e+07
1.51661e+07
1.50628e+07
1.49598e+07
1.48572e+07
1.4755e+07
1.46531e+07
1.45517e+07
1.44506e+07
1.43498e+07
1.42495e+07
1.41495e+07
1.40498e+07
1.39506e+07
1.38517e+07
1.37531e+07
1.36549e+07
1.35571e+07
1.34596e+07
1.33625e+07
1.32658e+07
1.31694e+07
1.30733e+07
1.29776e+07
1.28823e+07
1.27873e+07
1.26927e+07
1.25985e+07
1.25045e+07
1.2411e+07
1.23178e+07
1.22249e+07
1.21324e+07
1.20403e+07
1.19485e+07
1.18571e+07
1.1766e+07
1.16752e+07
1.15848e+07
1.14948e+07
1.14051e+07
1.13158e+07
1.12268e+07
1.11382e+07
1.10499e+07
1.0962e+07
1.08745e+07
1.07872e+07
1.07004e+07
1.06139e+07
1.05277e+07
1.04419e+07
1.03564e+07
1.02713e+07
1.01866e+07
1.01021e+07
1.00181e+07
9.93439e+06
9.85103e+06
9.76803e+06
9.68538e+06
9.60308e+06
9.52113e+06
9.43953e+06
9.35828e+06
9.27738e+06
9.19684e+06
9.11664e+06
9.03679e+06
8.9573e+06
8.87816e+06
8.79936e+06
8.72092e+06
8.64282e+06
8.56508e+06
8.48769e+06
8.41064e+06
8.33395e+06
8.25761e+06
8.18161e+06
8.10597e+06
8.03067e+06
7.95573e+06
7.88113e+06
7.80688e+06
7.73298e+06
7.65943e+06
7.58623e+06
7.51337e+06
7.44086e+06
7.3687e+06
7.29689e+06
7.22542e+06
7.1543e+06
7.08352e+06
7.01309e+06
6.943e+06
6.87326e+06
6.80386e+06
6.7348e+06
6.66608e+06
6.5977e+06
6.52967e+06
6.46197e+06
6.3946e+06
6.32758e+06
6.26088e+06
6.19452e+06
6.1285e+06
6.0628e+06
5.99742e+06
5.93237e+06
5.86765e+06
5.80324e+06
5.73915e+06
5.67538e+06
5.61191e+06
5.54875e+06
5.48588e+06
5.42332e+06
5.36104e+06
5.29905e+06
5.23733e+06
5.17588e+06
5.11469e+06
5.05376e+06
4.99306e+06
4.93261e+06
4.87237e+06
4.81235e+06
4.75251e+06
4.69286e+06
4.63335e+06
4.57398e+06
4.5147e+06
4.45552e+06
4.39636e+06
4.33722e+06
4.27801e+06
4.21873e+06
4.15924e+06
4.09954e+06
4.03943e+06
3.97892e+06
3.91765e+06
3.85573e+06
3.7924e+06
3.72809e+06
3.66112e+06
3.59254e+06
3.51914e+06
3.44216e+06
3.35775e+06
3.26396e+06
2.11669e+07
2.09249e+07
2.07067e+07
2.05083e+07
2.03259e+07
2.01556e+07
1.99945e+07
1.98407e+07
1.96926e+07
1.95491e+07
1.94095e+07
1.92732e+07
1.91396e+07
1.90084e+07
1.88793e+07
1.87522e+07
1.86268e+07
1.85031e+07
1.83807e+07
1.82597e+07
1.81398e+07
1.80211e+07
1.79033e+07
1.77865e+07
1.76705e+07
1.75554e+07
1.7441e+07
1.73273e+07
1.72143e+07
1.7102e+07
1.69902e+07
1.68791e+07
1.67685e+07
1.66584e+07
1.65489e+07
1.64399e+07
1.63313e+07
1.62233e+07
1.61157e+07
1.60085e+07
1.59018e+07
1.57955e+07
1.56897e+07
1.55843e+07
1.54793e+07
1.53747e+07
1.52705e+07
1.51667e+07
1.50633e+07
1.49602e+07
1.48576e+07
1.47553e+07
1.46535e+07
1.4552e+07
1.44508e+07
1.43501e+07
1.42497e+07
1.41497e+07
1.405e+07
1.39507e+07
1.38518e+07
1.37533e+07
1.36551e+07
1.35572e+07
1.34597e+07
1.33626e+07
1.32658e+07
1.31694e+07
1.30734e+07
1.29777e+07
1.28824e+07
1.27874e+07
1.26928e+07
1.25985e+07
1.25046e+07
1.2411e+07
1.23178e+07
1.2225e+07
1.21325e+07
1.20403e+07
1.19485e+07
1.18571e+07
1.1766e+07
1.16752e+07
1.15849e+07
1.14948e+07
1.14051e+07
1.13158e+07
1.12268e+07
1.11382e+07
1.10499e+07
1.0962e+07
1.08745e+07
1.07872e+07
1.07004e+07
1.06139e+07
1.05277e+07
1.04419e+07
1.03564e+07
1.02713e+07
1.01866e+07
1.01021e+07
1.00181e+07
9.93439e+06
9.85103e+06
9.76803e+06
9.68538e+06
9.60307e+06
9.52112e+06
9.43952e+06
9.35827e+06
9.27738e+06
9.19683e+06
9.11663e+06
9.03678e+06
8.95729e+06
8.87814e+06
8.79935e+06
8.7209e+06
8.64281e+06
8.56506e+06
8.48767e+06
8.41062e+06
8.33393e+06
8.25758e+06
8.18158e+06
8.10594e+06
8.03064e+06
7.95569e+06
7.88109e+06
7.80683e+06
7.73293e+06
7.65937e+06
7.58617e+06
7.5133e+06
7.44079e+06
7.36862e+06
7.2968e+06
7.22532e+06
7.15419e+06
7.0834e+06
7.01296e+06
6.94286e+06
6.8731e+06
6.80369e+06
6.73461e+06
6.66588e+06
6.59748e+06
6.52942e+06
6.4617e+06
6.39431e+06
6.32726e+06
6.26054e+06
6.19415e+06
6.12808e+06
6.06234e+06
5.99693e+06
5.93184e+06
5.86706e+06
5.8026e+06
5.73845e+06
5.67461e+06
5.61107e+06
5.54783e+06
5.48489e+06
5.42223e+06
5.35985e+06
5.29775e+06
5.23591e+06
5.17434e+06
5.11299e+06
5.05191e+06
4.99104e+06
4.93041e+06
4.86995e+06
4.80972e+06
4.74963e+06
4.68973e+06
4.62992e+06
4.57025e+06
4.51062e+06
4.45108e+06
4.3915e+06
4.33193e+06
4.27222e+06
4.21243e+06
4.15234e+06
4.09204e+06
4.03119e+06
3.96999e+06
3.90781e+06
3.8451e+06
3.78066e+06
3.71541e+06
3.64719e+06
3.57751e+06
3.50309e+06
3.42507e+06
3.34075e+06
3.24812e+06
2.12027e+07
2.09639e+07
2.07458e+07
2.05457e+07
2.03606e+07
2.01874e+07
2.00234e+07
1.98669e+07
1.97163e+07
1.95707e+07
1.9429e+07
1.92909e+07
1.91556e+07
1.9023e+07
1.88926e+07
1.87643e+07
1.86378e+07
1.85131e+07
1.83898e+07
1.82679e+07
1.81473e+07
1.80279e+07
1.79095e+07
1.77921e+07
1.76756e+07
1.756e+07
1.74452e+07
1.73311e+07
1.72178e+07
1.71051e+07
1.69931e+07
1.68817e+07
1.67708e+07
1.66606e+07
1.65508e+07
1.64416e+07
1.63329e+07
1.62247e+07
1.6117e+07
1.60097e+07
1.59029e+07
1.57965e+07
1.56906e+07
1.55851e+07
1.548e+07
1.53753e+07
1.52711e+07
1.51672e+07
1.50638e+07
1.49607e+07
1.4858e+07
1.47557e+07
1.46538e+07