/*--------------------------------*- C++ -*----------------------------------*\
| =========                 |                                                 |
| \\      /  F ield         | OpenFOAM: The Open Source CFD Toolbox           |
|  \\    /   O peration     | Version:  2.4.0                                 |
|   \\  /    A nd           | Web:      www.OpenFOAM.org                      |
|    \\/     M anipulation  |                                                 |
\*---------------------------------------------------------------------------*/
FoamFile
{
    version     2.0;
    format      ascii;
    class       volVectorField;
    location    "0.016";
    object      U_0;
}
// * * * * * * * * * * * * * * * * * * * * * * * * * * * * * * * * * * * * * //

dimensions      [0 1 -1 0 0 0 0];

internalField   nonuniform List<vector> 
17600
(
(5.32799 0.309435 0)
(2.98481 0.0607145 0)
(2.20233 -0.00177606 0)
(1.84444 -0.00340707 0)
(1.69352 -0.000539501 0)
(1.61611 -0.00107385 0)
(1.54069 -0.000240997 0)
(1.46949 0.000407976 0)
(1.41463 0.00150031 0)
(1.42186 -0.00070067 0)
(1.42046 -0.000310849 0)
(1.4131 0.00106756 0)
(1.41255 -0.00127088 0)
(1.38862 0.00141989 0)
(1.43391 -0.00125962 0)
(1.38014 0.000393247 0)
(1.43409 0.00120487 0)
(1.37882 -0.00136399 0)
(1.41756 0.00433227 0)
(1.18224 -0.0639471 0)
(8.5976 0.871982 0)
(6.94806 0.382894 0)
(5.82886 0.121785 0)
(5.04413 0.0531847 0)
(4.62435 0.0285012 0)
(4.40149 0.0170645 0)
(4.18018 0.0184012 0)
(3.98383 0.0148079 0)
(3.84878 0.00763866 0)
(3.87866 -0.00343713 0)
(3.8562 0.000459079 0)
(3.84774 0.00404142 0)
(3.85267 -0.0012631 0)
(3.76879 0.00182216 0)
(3.92061 -0.00259827 0)
(3.73268 0.000662135 0)
(3.92419 0.00308105 0)
(3.75665 -0.00505338 0)
(3.87666 0.0221794 0)
(3.66489 -0.100827 0)
(9.85433 1.02248 0)
(9.33983 0.575449 0)
(8.504 0.24173 0)
(7.6277 0.136082 0)
(7.05232 0.0801889 0)
(6.73129 0.0507713 0)
(6.40789 0.0512824 0)
(6.12174 0.0401861 0)
(5.91446 0.0177087 0)
(5.95137 -0.00602205 0)
(5.90169 0.00304329 0)
(5.88888 0.00647547 0)
(5.91531 0.00172619 0)
(5.7531 0.000304175 0)
(6.01857 -0.00311613 0)
(5.69657 0.00189331 0)
(6.00789 0.0025531 0)
(5.76575 -0.00545913 0)
(5.88748 0.0227286 0)
(5.87855 -0.104684 0)
(10.1562 0.948572 0)
(10.5553 0.664756 0)
(10.2978 0.330529 0)
(9.63885 0.221535 0)
(9.07125 0.143877 0)
(8.72932 0.095342 0)
(8.3671 0.095145 0)
(8.03266 0.0755789 0)
(7.76772 0.0326391 0)
(7.79521 -0.00711338 0)
(7.7197 0.00772324 0)
(7.69013 0.00761069 0)
(7.75331 0.00808022 0)
(7.50788 -0.00260162 0)
(7.86713 -0.00339957 0)
(7.44607 0.00485366 0)
(7.82446 -0.00151367 0)
(7.56325 -2.06524e-05 0)
(7.6389 0.0147338 0)
(7.79909 -0.103471 0)
(10.0692 0.807896 0)
(10.8934 0.662971 0)
(11.1735 0.35577 0)
(10.9144 0.274413 0)
(10.5305 0.198167 0)
(10.2754 0.138998 0)
(9.96457 0.141679 0)
(9.64957 0.116652 0)
(9.36296 0.0525922 0)
(9.36928 -0.005416 0)
(9.27842 0.0154766 0)
(9.22648 0.00734924 0)
(9.31847 0.0169954 0)
(9.02803 -0.00477104 0)
(9.41327 -0.00437931 0)
(8.96752 0.0113231 0)
(9.34066 -0.00876389 0)
(9.10232 0.00890065 0)
(9.16144 0.00189827 0)
(9.28552 -0.0407202 0)
(9.9913 0.695197 0)
(10.8067 0.627357 0)
(11.3336 0.327199 0)
(11.4254 0.278585 0)
(11.2939 0.220045 0)
(11.2088 0.163893 0)
(11.0597 0.177716 0)
(10.8458 0.153546 0)
(10.613 0.0761197 0)
(10.6003 -0.00369794 0)
(10.5101 0.026438 0)
(10.4596 0.00829565 0)
(10.5348 0.0223763 0)
(10.2831 -0.00169354 0)
(10.5961 -0.00577863 0)
(10.2095 0.0193791 0)
(10.5126 -0.0178613 0)
(10.3315 0.0163266 0)
(10.3892 -0.00317821 0)
(10.2781 0.048349 0)
(9.9826 0.610248 0)
(10.6821 0.591329 0)
(11.2121 0.290907 0)
(11.4503 0.248622 0)
(11.4999 0.214324 0)
(11.5073 0.160109 0)
(11.5619 0.189702 0)
(11.4877 0.17437 0)
(11.392 0.0882768 0)
(11.4003 0.00489734 0)
(11.3204 0.0344677 0)
(11.3312 0.00806667 0)
(11.3372 0.0327798 0)
(11.1999 -0.00275482 0)
(11.3681 -0.00970942 0)
(11.1056 0.0304346 0)
(11.293 -0.0229587 0)
(11.1981 0.0145524 0)
(11.1718 0.0141407 0)
(10.9093 0.0863024 0)
(9.99257 0.53042 0)
(10.6029 0.561325 0)
(11.1024 0.261554 0)
(11.3077 0.224043 0)
(11.4969 0.189963 0)
(11.4791 0.150944 0)
(11.6271 0.183332 0)
(11.6534 0.168653 0)
(11.648 0.0976822 0)
(11.773 -0.00631513 0)
(11.6307 0.041124 0)
(11.7789 0.0125017 0)
(11.7134 0.0241175 0)
(11.648 0.00925311 0)
(11.7251 -0.00399558 0)
(11.5848 0.0349256 0)
(11.6421 -0.0320118 0)
(11.5781 0.0240959 0)
(11.4868 0.0386833 0)
(11.333 0.0626777 0)
(9.99053 0.463091 0)
(10.5628 0.511446 0)
(11.0044 0.256987 0)
(11.2141 0.183722 0)
(11.4099 0.181268 0)
(11.4416 0.129991 0)
(11.5421 0.171796 0)
(11.5902 0.16768 0)
(11.6887 0.070946 0)
(11.7504 0.0064238 0)
(11.7148 0.0363123 0)
(11.8443 -0.00507018 0)
(11.7193 0.0438413 0)
(11.7804 0.00912826 0)
(11.7613 -0.021584 0)
(11.6555 0.0569955 0)
(11.7032 -0.0232353 0)
(11.6395 0.0165595 0)
(11.5436 0.0408294 0)
(11.5876 0.00429345 0)
(9.99494 0.395693 0)
(10.5057 0.472195 0)
(10.9426 0.236018 0)
(11.1256 0.173739 0)
(11.3602 0.144278 0)
(11.3746 0.127456 0)
(11.4705 0.161726 0)
(11.5292 0.134554 0)
(11.6076 0.095104 0)
(11.7098 -0.0232282 0)
(11.6808 0.0414329 0)
(11.7379 0.0131686 0)
(11.7234 0.0211236 0)
(11.709 0.0159641 0)
(11.6868 0.00684211 0)
(11.6841 0.043327 0)
(11.6778 -0.0309925 0)
(11.5847 0.0294213 0)
(11.5958 0.0357215 0)
(11.7884 -0.0811695 0)
(9.99786 0.341001 0)
(10.4537 0.417032 0)
(10.8754 0.238947 0)
(11.0705 0.134768 0)
(11.3058 0.139175 0)
(11.3141 0.103713 0)
(11.4292 0.14648 0)
(11.449 0.144408 0)
(11.568 0.0527801 0)
(11.6514 0.00187392 0)
(11.6031 0.0374056 0)
(11.7187 -0.0147665 0)
(11.6269 0.0416363 0)
(11.6552 0.0263609 0)
(11.6784 -0.0328284 0)
(11.6219 0.0644416 0)
(11.644 -0.00623294 0)
(11.613 0.001844 0)
(11.6322 -0.00717834 0)
(11.5902 -0.0191298 0)
(10.0013 0.286862 0)
(10.4053 0.37588 0)
(10.8156 0.218877 0)
(11.0237 0.125178 0)
(11.2519 0.106538 0)
(11.2766 0.0979304 0)
(11.3699 0.141592 0)
(11.4093 0.105415 0)
(11.5147 0.0833709 0)
(11.5931 -0.030053 0)
(11.5771 0.0371258 0)
(11.6503 0.00829225 0)
(11.571 0.0176295 0)
(11.6256 0.0206044 0)
(11.6301 0.00253705 0)
(11.5879 0.0513107 0)
(11.6359 -0.0308291 0)
(11.6174 0.00694732 0)
(11.5851 0.0192369 0)
(11.4971 -0.0264596 0)
(10.0033 0.242858 0)
(10.3651 0.324469 0)
(10.7615 0.211221 0)
(10.9807 0.095752 0)
(11.2096 0.099007 0)
(11.2344 0.0805367 0)
(11.3324 0.120911 0)
(11.3624 0.113181 0)
(11.4702 0.0462264 0)
(11.5548 -0.00949873 0)
(11.5367 0.0382824 0)
(11.5943 -0.0171946 0)
(11.5491 0.035298 0)
(11.5679 0.0325981 0)
(11.5938 -0.0298837 0)
(11.5873 0.0559554 0)
(11.6123 -0.00588982 0)
(11.5874 -0.0109332 0)
(11.5813 -0.0117593 0)
(11.5734 -0.0681874 0)
(10.0047 0.200246 0)
(10.3315 0.281922 0)
(10.7146 0.185739 0)
(10.9433 0.0866561 0)
(11.1701 0.0767993 0)
(11.2048 0.0698106 0)
(11.2926 0.11466 0)
(11.3276 0.0791171 0)
(11.4323 0.0653056 0)
(11.516 -0.0277752 0)
(11.5031 0.0317763 0)
(11.5615 0.00318967 0)
(11.4976 0.0124619 0)
(11.5391 0.0246334 0)
(11.5786 -0.0102274 0)
(11.5517 0.0478175 0)
(11.5961 -0.0249258 0)
(11.5993 -0.0116145 0)
(11.5558 -0.00383104 0)
(11.5013 -0.0184125 0)
(10.0052 0.163792 0)
(10.3047 0.234981 0)
(10.674 0.164593 0)
(10.9114 0.0675587 0)
(11.1379 0.0673087 0)
(11.1774 0.0563672 0)
(11.2631 0.093874 0)
(11.2953 0.0788227 0)
(11.3995 0.0413066 0)
(11.4856 -0.0179345 0)
(11.475 0.0355507 0)
(11.5254 -0.0160633 0)
(11.4694 0.0237382 0)
(11.5105 0.0336909 0)
(11.5512 -0.02871 0)
(11.5368 0.0437429 0)
(11.5879 -0.0102592 0)
(11.5798 -0.0216854 0)
(11.5503 -0.0205015 0)
(11.6132 -0.105779 0)
(10.0055 0.129363 0)
(10.2831 0.191878 0)
(10.6404 0.13553 0)
(10.8852 0.0570808 0)
(11.1104 0.0524582 0)
(11.1577 0.0438231 0)
(11.2359 0.0841677 0)
(11.2712 0.052728 0)
(11.3721 0.0474974 0)
(11.4586 -0.0236229 0)
(11.4545 0.025726 0)
(11.4946 -0.000594429 0)
(11.4455 0.00689498 0)
(11.4836 0.0246434 0)
(11.5356 -0.0202743 0)
(11.5242 0.0356128 0)
(11.571 -0.0212093 0)
(11.5805 -0.0269434 0)
(11.5714 -0.0347432 0)
(11.5269 -0.0808558 0)
(10.0055 0.0984419 0)
(10.2666 0.147265 0)
(10.6136 0.108433 0)
(10.8643 0.0422732 0)
(11.0888 0.0421102 0)
(11.1416 0.0322741 0)
(11.2154 0.0648357 0)
(11.2518 0.0444968 0)
(11.3491 0.0339937 0)
(11.4397 -0.0208587 0)
(11.4351 0.0284786 0)
(11.4723 -0.0121317 0)
(11.4264 0.00882551 0)
(11.4638 0.0300688 0)
(11.5211 -0.028868 0)
(11.5124 0.0264005 0)
(11.563 -0.0154714 0)
(11.5813 -0.0346641 0)
(11.5491 -0.0405528 0)
(11.397 -0.0669892 0)
(10.0054 0.0691529 0)
(10.2546 0.104201 0)
(10.5935 0.0788129 0)
(10.849 0.0294157 0)
(11.0721 0.0312197 0)
(11.1307 0.0198005 0)
(11.1995 0.0515088 0)
(11.2376 0.0251731 0)
(11.3329 0.0310251 0)
(11.4238 -0.0195373 0)
(11.423 0.0200068 0)
(11.4541 -0.00422926 0)
(11.4123 -0.000127457 0)
(11.4486 0.0235093 0)
(11.5107 -0.028573 0)
(11.5042 0.0180995 0)
(11.5561 -0.0198414 0)
(11.5718 -0.0430017 0)
(11.5211 -0.038469 0)
(11.5022 -0.0908585 0)
(10.0052 0.04155 0)
(10.2469 0.0610501 0)
(10.5799 0.0492739 0)
(10.8392 0.0153813 0)
(11.0606 0.0212367 0)
(11.1239 0.00880735 0)
(11.1885 0.0339497 0)
(11.2288 0.0117246 0)
(11.3213 0.0233588 0)
(11.4138 -0.0192243 0)
(11.4149 0.0189976 0)
(11.4412 -0.00765366 0)
(11.4045 -0.00466688 0)
(11.4376 0.022854 0)
(11.5032 -0.0313043 0)
(11.4997 0.00806891 0)
(11.5481 -0.0209702 0)
(11.5636 -0.0452883 0)
(11.5493 -0.0531626 0)
(11.5653 -0.130206 0)
(10.0049 0.0147382 0)
(10.2435 0.0183369 0)
(10.5727 0.0190836 0)
(10.8348 0.00142199 0)
(11.0542 0.011723 0)
(11.1214 -0.00279443 0)
(11.1822 0.0179695 0)
(11.225 -0.00381363 0)
(11.3154 0.0162634 0)
(11.4087 -0.0160827 0)
(11.4113 0.0133569 0)
(11.4342 -0.00582357 0)
(11.401 -0.0104254 0)
(11.4318 0.0183956 0)
(11.4989 -0.0321894 0)
(11.4968 -0.00235754 0)
(11.5436 -0.0224498 0)
(11.5685 -0.0529648 0)
(11.5418 -0.0670974 0)
(11.3917 -0.0737734 0)
(10.0047 -0.0117617 0)
(10.244 -0.024328 0)
(10.5719 -0.0112007 0)
(10.836 -0.0125934 0)
(11.0527 0.00211723 0)
(11.1231 -0.0138685 0)
(11.1806 0.00119826 0)
(11.2262 -0.0187783 0)
(11.3149 0.00956678 0)
(11.4081 -0.0144439 0)
(11.4127 0.00934264 0)
(11.4321 -0.00547028 0)
(11.4026 -0.0162083 0)
(11.4305 0.015704 0)
(11.4976 -0.0348192 0)
(11.4973 -0.0117909 0)
(11.5418 -0.024731 0)
(11.5627 -0.058542 0)
(11.5164 -0.0578973 0)
(11.4665 -0.103198 0)
(10.0044 -0.0385876 0)
(10.2487 -0.0670155 0)
(10.5774 -0.0414142 0)
(10.8426 -0.0264833 0)
(11.0562 -0.00765118 0)
(11.129 -0.0249779 0)
(11.1836 -0.0155564 0)
(11.2323 -0.0334786 0)
(11.3198 0.00217631 0)
(11.4124 -0.0121804 0)
(11.4187 0.0050607 0)
(11.4353 -0.00539428 0)
(11.4091 -0.0208698 0)
(11.4339 0.011168 0)
(11.4996 -0.0356081 0)
(11.5002 -0.020963 0)
(11.54 -0.0278714 0)
(11.5594 -0.061962 0)
(11.5352 -0.0790017 0)
(11.4913 -0.138783 0)
(10.004 -0.0663293 0)
(10.2575 -0.10988 0)
(10.5893 -0.0713344 0)
(10.8548 -0.0400397 0)
(11.0647 -0.0179414 0)
(11.1391 -0.0360972 0)
(11.1914 -0.0322711 0)
(11.2435 -0.0481355 0)
(11.3302 -0.00518677 0)
(11.4214 -0.00999194 0)
(11.4294 0.000691389 0)
(11.444 -0.00505163 0)
(11.4205 -0.0260171 0)
(11.4423 0.0075722 0)
(11.5047 -0.0367651 0)
(11.5053 -0.0304698 0)
(11.5413 -0.0303403 0)
(11.5618 -0.0682708 0)
(11.5287 -0.0755767 0)
(11.4127 -0.0698417 0)
(10.0036 -0.0955867 0)
(10.2707 -0.153068 0)
(10.6078 -0.100697 0)
(10.8726 -0.0531878 0)
(11.0782 -0.0289983 0)
(11.1537 -0.047289 0)
(11.204 -0.0489219 0)
(11.2598 -0.062547 0)
(11.3461 -0.012662 0)
(11.4353 -0.00802513 0)
(11.445 -0.00343636 0)
(11.458 -0.0052357 0)
(11.437 -0.0303757 0)
(11.4554 0.00405794 0)
(11.5131 -0.0385036 0)
(11.5134 -0.0379876 0)
(11.5445 -0.0330405 0)
(11.5603 -0.0706986 0)
(11.521 -0.0838361 0)
(11.449 -0.150537 0)
(10.003 -0.126951 0)
(10.2884 -0.196691 0)
(10.6328 -0.129276 0)
(10.8959 -0.0659639 0)
(11.0968 -0.0410457 0)
(11.173 -0.0586204 0)
(11.2215 -0.0653713 0)
(11.2814 -0.0767712 0)
(11.3677 -0.0201756 0)
(11.4541 -0.0062916 0)
(11.4656 -0.00749015 0)
(11.4775 -0.00550735 0)
(11.4587 -0.0343708 0)
(11.4735 0.000599703 0)
(11.5251 -0.0394181 0)
(11.5241 -0.0448183 0)
(11.5491 -0.0362862 0)
(11.5613 -0.0759073 0)
(11.5297 -0.0885751 0)
(11.4475 -0.0816748 0)
(10.0022 -0.16105 0)
(10.3112 -0.240709 0)
(10.6646 -0.156693 0)
(10.9248 -0.0787188 0)
(11.1207 -0.054279 0)
(11.1972 -0.0700759 0)
(11.2443 -0.0815002 0)
(11.3083 -0.0907698 0)
(11.3951 -0.0277843 0)
(11.4779 -0.0050151 0)
(11.4913 -0.0112952 0)
(11.5028 -0.00602494 0)
(11.4859 -0.0380413 0)
(11.4968 -0.00210154 0)
(11.5408 -0.0404718 0)
(11.5374 -0.0506852 0)
(11.5563 -0.0390207 0)
(11.5644 -0.077418 0)
(11.5245 -0.0905047 0)
(11.416 -0.13852 0)
(10.0009 -0.198609 0)
(10.3395 -0.285078 0)
(10.7032 -0.181866 0)
(10.9593 -0.0922225 0)
(11.15 -0.0689708 0)
(11.2268 -0.0816079 0)
(11.2726 -0.0971439 0)
(11.3408 -0.10444 0)
(11.4281 -0.0354759 0)
(11.507 -0.00424113 0)
(11.5222 -0.0148429 0)
(11.534 -0.00690202 0)
(11.5188 -0.0411086 0)
(11.5254 -0.00423648 0)
(11.5604 -0.0415162 0)
(11.5537 -0.0545911 0)
(11.5653 -0.0416164 0)
(11.5667 -0.0813179 0)
(11.5284 -0.0960926 0)
(11.4459 -0.0968644 0)
(9.99908 -0.240174 0)
(10.3741 -0.330331 0)
(10.7486 -0.202781 0)
(10.9995 -0.107652 0)
(11.1853 -0.0854819 0)
(11.2622 -0.0933124 0)
(11.3067 -0.112312 0)
(11.379 -0.117841 0)
(11.4671 -0.0430832 0)
(11.5413 -0.0039577 0)
(11.5585 -0.0180823 0)
(11.5712 -0.00811581 0)
(11.5578 -0.0436239 0)
(11.5595 -0.00561627 0)
(11.5843 -0.0421288 0)
(11.573 -0.0570482 0)
(11.5764 -0.0440863 0)
(11.5719 -0.0826298 0)
(11.5301 -0.0954931 0)
(11.4181 -0.128672 0)
(9.99636 -0.286388 0)
(10.4158 -0.376578 0)
(10.8007 -0.218461 0)
(11.0447 -0.126151 0)
(11.2264 -0.104001 0)
(11.3037 -0.105018 0)
(11.3466 -0.126808 0)
(11.4231 -0.131209 0)
(11.512 -0.050835 0)
(11.581 -0.00431292 0)
(11.6004 -0.0209627 0)
(11.6149 -0.00968376 0)
(11.6032 -0.0455837 0)
(11.5996 -0.00614379 0)
(11.6129 -0.0422755 0)
(11.5957 -0.0577181 0)
(11.5898 -0.0460002 0)
(11.5771 -0.0841662 0)
(11.5326 -0.101762 0)
(11.4367 -0.108453 0)
(9.99283 -0.338346 0)
(10.4645 -0.42313 0)
(10.8593 -0.229855 0)
(11.0947 -0.147428 0)
(11.2739 -0.12478 0)
(11.3516 -0.116724 0)
(11.393 -0.139864 0)
(11.4736 -0.143756 0)
(11.5634 -0.0587403 0)
(11.6271 -0.00560852 0)
(11.6486 -0.0236426 0)
(11.6658 -0.0117127 0)
(11.6561 -0.046669 0)
(11.6463 -0.00584823 0)
(11.6467 -0.0418716 0)
(11.6219 -0.0561158 0)
(11.6055 -0.0478758 0)
(11.5845 -0.0837961 0)
(11.5374 -0.101312 0)
(11.427 -0.120285 0)
(9.98922 -0.396555 0)
(10.5179 -0.470119 0)
(10.9239 -0.239214 0)
(11.1524 -0.169858 0)
(11.3286 -0.147111 0)
(11.406 -0.129147 0)
(11.4485 -0.152603 0)
(11.5333 -0.155747 0)
(11.6228 -0.0659862 0)
(11.6807 -0.0075564 0)
(11.7043 -0.0259684 0)
(11.7254 -0.0146398 0)
(11.7176 -0.0469348 0)
(11.7008 -0.00454829 0)
(11.687 -0.0405528 0)
(11.6521 -0.0525317 0)
(11.624 -0.0485468 0)
(11.5925 -0.0828642 0)
(11.5405 -0.104481 0)
(11.435 -0.128091 0)
(9.98715 -0.460846 0)
(10.5695 -0.516646 0)
(10.9947 -0.249628 0)
(11.2285 -0.193955 0)
(11.3913 -0.169422 0)
(11.4635 -0.141262 0)
(11.5202 -0.165853 0)
(11.6061 -0.169341 0)
(11.6836 -0.0745373 0)
(11.7339 -0.0104473 0)
(11.7545 -0.0276989 0)
(11.7813 -0.0177709 0)
(11.7719 -0.0466808 0)
(11.7491 -0.00228015 0)
(11.7238 -0.0376247 0)
(11.6738 -0.0469018 0)
(11.6377 -0.0476297 0)
(11.5897 -0.0806511 0)
(11.5363 -0.0998593 0)
(11.4204 -0.141076 0)
(9.9865 -0.531695 0)
(10.6164 -0.55886 0)
(11.0806 -0.264116 0)
(11.3388 -0.221335 0)
(11.4585 -0.191185 0)
(11.5182 -0.152833 0)
(11.5989 -0.177739 0)
(11.6568 -0.180854 0)
(11.6775 -0.0826668 0)
(11.7086 -0.0145977 0)
(11.7004 -0.0285966 0)
(11.7274 -0.0207266 0)
(11.703 -0.0445453 0)
(11.6734 -1.10268e-05 0)
(11.6558 -0.0330889 0)
(11.5812 -0.0383236 0)
(11.5592 -0.0466113 0)
(11.4782 -0.0716801 0)
(11.435 -0.101885 0)
(11.2819 -0.145413 0)
(9.98256 -0.60942 0)
(10.6827 -0.593009 0)
(11.2079 -0.288907 0)
(11.4567 -0.251698 0)
(11.4901 -0.210525 0)
(11.5188 -0.164745 0)
(11.5514 -0.185114 0)
(11.4921 -0.180862 0)
(11.3953 -0.0822888 0)
(11.3858 -0.0145373 0)
(11.3231 -0.0257936 0)
(11.3346 -0.0212823 0)
(11.2849 -0.0392652 0)
(11.2405 0.00164847 0)
(11.2509 -0.0276247 0)
(11.1391 -0.0303224 0)
(11.158 -0.04304 0)
(11.0225 -0.0626615 0)
(11.0128 -0.0973706 0)
(10.7838 -0.137247 0)
(9.99041 -0.695781 0)
(10.8072 -0.626521 0)
(11.3333 -0.32774 0)
(11.4249 -0.278574 0)
(11.2958 -0.21926 0)
(11.2042 -0.166107 0)
(11.0672 -0.174627 0)
(10.8325 -0.159649 0)
(10.6259 -0.0688312 0)
(10.5867 -0.00865231 0)
(10.4945 -0.0186953 0)
(10.4966 -0.0185765 0)
(10.4267 -0.031035 0)
(10.3787 0.00241986 0)
(10.4101 -0.022025 0)
(10.2693 -0.0235683 0)
(10.3272 -0.0374663 0)
(10.1373 -0.0544296 0)
(10.1633 -0.0834107 0)
(9.85397 -0.13672 0)
(10.0685 -0.807724 0)
(10.8939 -0.663164 0)
(11.1734 -0.355563 0)
(10.913 -0.274961 0)
(10.5343 -0.19719 0)
(10.267 -0.140949 0)
(9.97739 -0.139349 0)
(9.62825 -0.12075 0)
(9.38398 -0.0483595 0)
(9.34825 -0.00158199 0)
(9.2639 -0.0115152 0)
(9.26821 -0.0145184 0)
(9.18793 -0.0223441 0)
(9.15122 0.00225291 0)
(9.18665 -0.0162189 0)
(9.04075 -0.0174258 0)
(9.1187 -0.0311157 0)
(8.89392 -0.0429169 0)
(8.94608 -0.070057 0)
(8.57542 -0.11479 0)
(10.1559 -0.948682 0)
(10.5555 -0.664703 0)
(10.2979 -0.330442 0)
(9.63746 -0.221927 0)
(9.07474 -0.143113 0)
(8.72152 -0.0969095 0)
(8.37891 -0.0931942 0)
(8.01184 -0.0788227 0)
(7.78874 -0.0296012 0)
(7.77122 0.00263293 0)
(7.7116 -0.00659223 0)
(7.71784 -0.0103201 0)
(7.63691 -0.0145234 0)
(7.61664 0.00146304 0)
(7.64248 -0.0104338 0)
(7.51476 -0.0124877 0)
(7.58735 -0.0232212 0)
(7.35766 -0.0308565 0)
(7.41842 -0.0542537 0)
(7.01459 -0.0810652 0)
(9.85416 -1.02248 0)
(9.33984 -0.575452 0)
(8.5042 -0.241642 0)
(7.62651 -0.13641 0)
(7.055 -0.0795689 0)
(6.7252 -0.0519727 0)
(6.41664 -0.0497542 0)
(6.10543 -0.0425906 0)
(5.93035 -0.0156338 0)
(5.93041 0.0036084 0)
(5.89734 -0.00351565 0)
(5.9007 -0.00619002 0)
(5.82996 -0.00813701 0)
(5.82237 0.000664775 0)
(5.83451 -0.00537504 0)
(5.73944 -0.00829194 0)
(5.78664 -0.0143996 0)
(5.58616 -0.0195598 0)
(5.63291 -0.0351093 0)
(5.23849 -0.049384 0)
(8.59752 -0.871992 0)
(6.94798 -0.382895 0)
(5.82912 -0.121728 0)
(5.04321 -0.0533977 0)
(4.62613 -0.0280915 0)
(4.39743 -0.0178211 0)
(4.1855 -0.0174109 0)
(3.97334 -0.0162756 0)
(3.85765 -0.00643542 0)
(3.86507 0.00236836 0)
(3.85194 -0.00145281 0)
(3.8503 -0.00264198 0)
(3.79962 -0.00346588 0)
(3.79729 0.000139091 0)
(3.80026 -0.00174924 0)
(3.74125 -0.00442142 0)
(3.7577 -0.00641986 0)
(3.61592 -0.00959673 0)
(3.63064 -0.0164117 0)
(3.31627 -0.0232491 0)
(5.32798 -0.309435 0)
(2.98473 -0.0607179 0)
(2.20254 0.00179852 0)
(1.84395 0.003329 0)
(1.6943 0.000695039 0)
(1.6144 0.000809297 0)
(1.54252 0.000613746 0)
(1.4656 -0.000899984 0)
(1.41659 -0.00108821 0)
(1.41782 0.000485042 0)
(1.41623 -0.000230974 0)
(1.41304 -8.36514e-05 0)
(1.39197 -0.000437932 0)
(1.38975 2.51162e-05 0)
(1.39014 0.00020446 0)
(1.36807 -0.000811887 0)
(1.36404 -0.000366649 0)
(1.30577 -0.00125904 0)
(1.29313 -0.0015492 0)
(1.15387 0.00473452 0)
(2.3546 -0.21928 0)
(1.69159 0.698201 0)
(1.89747 1.15342 0)
(3.31382 -0.17917 0)
(3.55369 -0.396584 0)
(4.72771 0.510865 0)
(7.44828 0.984227 0)
(7.23027 2.17395 0)
(7.76047 1.93004 0)
(8.87359 0.658461 0)
(9.8664 -0.0712905 0)
(11.9596 -1.03343 0)
(12.3461 -1.57223 0)
(11.5122 -1.71218 0)
(11.1895 -2.71021 0)
(11.0163 -4.53963 0)
(10.492 -5.97388 0)
(9.87444 -6.37373 0)
(9.11482 -6.17425 0)
(8.33782 -5.79493 0)
(7.83866 -5.39875 0)
(7.53982 -4.90545 0)
(7.2744 -4.32325 0)
(6.9514 -3.87817 0)
(6.58246 -3.54891 0)
(6.26009 -3.22157 0)
(6.04138 -2.90635 0)
(5.89594 -2.6337 0)
(5.78518 -2.40005 0)
(5.69636 -2.19097 0)
(5.62369 -1.99572 0)
(5.56195 -1.81034 0)
(5.5089 -1.63582 0)
(5.46354 -1.4746 0)
(5.42448 -1.32829 0)
(5.39044 -1.19688 0)
(5.36068 -1.07922 0)
(5.33487 -0.973696 0)
(5.31272 -0.878811 0)
(5.29388 -0.793305 0)
(5.27792 -0.71616 0)
(5.26443 -0.646523 0)
(5.25304 -0.583655 0)
(5.24341 -0.526897 0)
(5.23526 -0.475652 0)
(5.22836 -0.429388 0)
(5.22253 -0.387623 0)
(5.21757 -0.349916 0)
(5.21337 -0.315873 0)
(5.2098 -0.285137 0)
(5.20678 -0.257389 0)
(5.2042 -0.232337 0)
(5.20201 -0.209717 0)
(5.20014 -0.189294 0)
(5.19856 -0.170858 0)
(5.19721 -0.154213 0)
(5.19605 -0.139184 0)
(5.19506 -0.125617 0)
(5.19422 -0.11337 0)
(5.1935 -0.102314 0)
(5.19287 -0.0923322 0)
(5.19234 -0.0833215 0)
(5.19189 -0.0751892 0)
(5.1915 -0.0678485 0)
(5.19115 -0.0612208 0)
(5.19086 -0.0552382 0)
(5.19061 -0.0498396 0)
(5.1904 -0.0449666 0)
(5.1902 -0.0405666 0)
(5.19004 -0.0365948 0)
(5.1899 -0.0330111 0)
(5.18978 -0.0297763 0)
(5.18967 -0.0268548 0)
(5.18957 -0.0242174 0)
(5.18949 -0.0218377 0)
(5.18942 -0.0196895 0)
(5.18936 -0.0177483 0)
(5.1893 -0.0159954 0)
(5.18926 -0.0144138 0)
(5.18922 -0.0129852 0)
(5.18917 -0.011693 0)
(5.18914 -0.0105251 0)
(5.18911 -0.0094708 0)
(5.18909 -0.00851745 0)
(5.18906 -0.00765341 0)
(5.18904 -0.00687102 0)
(5.18903 -0.00616348 0)
(5.18901 -0.00552205 0)
(5.18899 -0.00493836 0)
(5.18898 -0.00440774 0)
(5.18897 -0.00392601 0)
(5.18896 -0.00348678 0)
(5.18895 -0.00308395 0)
(5.18894 -0.0027146 0)
(5.18894 -0.00237637 0)
(5.18894 -0.00206442 0)
(5.18893 -0.00177393 0)
(5.18892 -0.00150342 0)
(5.18892 -0.00125145 0)
(5.18892 -0.00101407 0)
(5.18891 -0.000787446 0)
(5.18891 -0.000570618 0)
(5.18891 -0.000362838 0)
(5.18891 -0.000160849 0)
(5.18891 3.8882e-05 0)
(5.18891 0.000237031 0)
(5.18891 0.000434139 0)
(5.18891 0.000633206 0)
(5.18891 0.000837641 0)
(5.18891 0.00104804 0)
(5.18892 0.00126503 0)
(5.18892 0.00149182 0)
(5.18892 0.00173196 0)
(5.18892 0.00198632 0)
(5.18893 0.00225578 0)
(5.18893 0.00254406 0)
(5.18894 0.00285521 0)
(5.18894 0.00319064 0)
(5.18895 0.00355193 0)
(5.18896 0.00394356 0)
(5.18896 0.00437042 0)
(5.18897 0.0048349 0)
(5.18899 0.00533971 0)
(5.189 0.00589055 0)
(5.18901 0.00649367 0)
(5.18902 0.00715309 0)
(5.18904 0.00787317 0)
(5.18906 0.0086615 0)
(5.18908 0.00952635 0)
(5.1891 0.010474 0)
(5.18913 0.0115114 0)
(5.18916 0.0126489 0)
(5.18918 0.0138979 0)
(5.18922 0.0152681 0)
(5.18926 0.0167701 0)
(5.1893 0.0184185 0)
(5.18935 0.020229 0)
(5.18941 0.0222167 0)
(5.18947 0.0243978 0)
(5.18955 0.0267931 0)
(5.18962 0.0294253 0)
(5.18971 0.0323172 0)
(5.18982 0.0354937 0)
(5.18994 0.0389853 0)
(5.19007 0.0428257 0)
(5.19022 0.04705 0)
(5.19039 0.051697 0)
(5.19058 0.0568139 0)
(5.1908 0.0624513 0)
(5.19104 0.0686686 0)
(5.19131 0.0755224 0)
(5.1916 0.0831031 0)
(5.19193 0.0914649 0)
(5.19224 0.100768 0)
(5.19263 0.110998 0)
(5.1929 0.122528 0)
(5.19327 0.135061 0)
(5.19327 0.149576 0)
(5.19345 0.164883 0)
(5.19269 0.183502 0)
(5.19202 0.202005 0)
(5.18954 0.226092 0)
(5.1865 0.24797 0)
(5.18065 0.278113 0)
(5.17299 0.302792 0)
(5.1617 0.336909 0)
(5.14849 0.361619 0)
(5.13321 0.396 0)
(5.11103 0.413531 0)
(5.11936 0.451242 0)
(5.03914 0.453335 0)
(5.19475 0.504104 0)
(4.86159 0.503956 0)
(5.44956 0.559091 0)
(4.54189 0.588997 0)
(5.79462 0.657485 0)
(4.3032 0.665807 0)
(5.88883 0.838175 0)
(4.41092 0.771202 0)
(5.68162 0.967119 0)
(4.7008 1.04914 0)
(5.37033 1.06453 0)
(5.00059 1.27481 0)
(5.23341 1.394 0)
(4.9666 1.45012 0)
(5.26247 1.7336 0)
(5.05379 1.84377 0)
(5.17627 2.01815 0)
(5.15413 2.29326 0)
(5.03719 2.53881 0)
(5.31051 2.7954 0)
(4.94031 3.11514 0)
(5.39893 3.38525 0)
(5.30635 3.93592 0)
(5.3028 4.28623 0)
(5.27906 4.8058 0)
(4.82773 5.86608 0)
(4.42394 6.96372 0)
(4.9813 8.00402 0)
(2.83605 11.1966 0)
(4.28332 -0.178156 0)
(3.21713 0.712612 0)
(4.1207 1.09076 0)
(5.54106 -0.0316214 0)
(4.42765 -0.633535 0)
(5.75245 -0.272267 0)
(7.35093 0.805533 0)
(6.6952 2.1291 0)
(7.61627 1.50427 0)
(8.15516 0.245089 0)
(9.81865 -0.767633 0)
(11.9387 -1.51813 0)
(12.071 -1.43722 0)
(11.372 -1.51019 0)
(11.2571 -2.7721 0)
(11.3371 -4.5543 0)
(10.7817 -5.75845 0)
(10.0545 -6.07239 0)
(9.35198 -5.88976 0)
(8.47628 -5.4896 0)
(7.82584 -5.11179 0)
(7.39371 -4.73967 0)
(7.04881 -4.22177 0)
(6.84053 -3.74676 0)
(6.6528 -3.41056 0)
(6.4074 -3.11763 0)
(6.18784 -2.83313 0)
(6.02789 -2.57625 0)
(5.89942 -2.35319 0)
(5.79296 -2.15372 0)
(5.70895 -1.96563 0)
(5.64048 -1.7847 0)
(5.58087 -1.61344 0)
(5.52812 -1.45516 0)
(5.48193 -1.31145 0)
(5.44176 -1.18225 0)
(5.40682 -1.06649 0)
(5.37649 -0.962685 0)
(5.35029 -0.869355 0)
(5.32778 -0.785234 0)
(5.30849 -0.709292 0)
(5.29201 -0.640684 0)
(5.27792 -0.57869 0)
(5.26586 -0.522671 0)
(5.25552 -0.472052 0)
(5.24665 -0.426317 0)
(5.23903 -0.384999 0)
(5.23248 -0.347673 0)
(5.22682 -0.313953 0)
(5.22195 -0.283492 0)
(5.21775 -0.255977 0)
(5.21411 -0.231125 0)
(5.21095 -0.208675 0)
(5.20822 -0.188398 0)
(5.20585 -0.170085 0)
(5.20379 -0.153546 0)
(5.20199 -0.138609 0)
(5.20042 -0.125119 0)
(5.19906 -0.112938 0)
(5.19787 -0.10194 0)
(5.19682 -0.0920074 0)
(5.19591 -0.083039 0)
(5.19511 -0.0749427 0)
(5.1944 -0.0676334 0)
(5.19378 -0.0610332 0)
(5.19323 -0.0550741 0)
(5.19275 -0.0496954 0)
(5.19233 -0.04484 0)
(5.19195 -0.0404556 0)
(5.19161 -0.0364971 0)
(5.19132 -0.0329246 0)
(5.19106 -0.0296998 0)
(5.19082 -0.0267874 0)
(5.19062 -0.0241576 0)
(5.19044 -0.0217843 0)
(5.19028 -0.0196419 0)
(5.19013 -0.0177064 0)
(5.19 -0.0159581 0)
(5.18988 -0.0143803 0)
(5.18978 -0.0129554 0)
(5.18968 -0.0116668 0)
(5.1896 -0.010502 0)
(5.18953 -0.00945004 0)
(5.18947 -0.00849907 0)
(5.1894 -0.00763754 0)
(5.18935 -0.00685705 0)
(5.18931 -0.00615094 0)
(5.18927 -0.00551089 0)
(5.18923 -0.00492884 0)
(5.18919 -0.00439936 0)
(5.18916 -0.00391827 0)
(5.18914 -0.00347991 0)
(5.18911 -0.00307809 0)
(5.18909 -0.00270948 0)
(5.18908 -0.00237158 0)
(5.18906 -0.00206013 0)
(5.18904 -0.0017706 0)
(5.18903 -0.00150054 0)
(5.18902 -0.0012488 0)
(5.18902 -0.00101188 0)
(5.18901 -0.000785921 0)
(5.189 -0.000569522 0)
(5.189 -0.000361902 0)
(5.189 -0.000160228 0)
(5.18899 3.89144e-05 0)
(5.18899 0.000236674 0)
(5.18899 0.000433621 0)
(5.189 0.000632405 0)
(5.189 0.000836249 0)
(5.189 0.00104636 0)
(5.18901 0.0012633 0)
(5.18902 0.00148985 0)
(5.18902 0.00172937 0)
(5.18903 0.00198336 0)
(5.18905 0.00225271 0)
(5.18906 0.0025406 0)
(5.18907 0.00285096 0)
(5.18909 0.00318585 0)
(5.18911 0.0035468 0)
(5.18913 0.00393782 0)
(5.18915 0.00436363 0)
(5.18917 0.00482731 0)
(5.18921 0.00533151 0)
(5.18924 0.00588145 0)
(5.18927 0.00648323 0)
(5.18931 0.00714151 0)
(5.18935 0.00786058 0)
(5.1894 0.00864756 0)
(5.18945 0.00951054 0)
(5.18951 0.0104565 0)
(5.18958 0.0114922 0)
(5.18965 0.0126276 0)
(5.18973 0.0138739 0)
(5.18981 0.0152414 0)
(5.18992 0.0167405 0)
(5.19003 0.0183855 0)
(5.19014 0.0201919 0)
(5.19027 0.0221754 0)
(5.19043 0.0243518 0)
(5.19059 0.0267417 0)
(5.19077 0.0293675 0)
(5.19098 0.0322525 0)
(5.19121 0.0354213 0)
(5.19146 0.0389043 0)
(5.19175 0.0427345 0)
(5.19206 0.0469479 0)
(5.19242 0.0515825 0)
(5.19282 0.0566859 0)
(5.19326 0.0623072 0)
(5.19376 0.0685088 0)
(5.19432 0.0753435 0)
(5.19492 0.0829088 0)
(5.19561 0.0912466 0)
(5.19631 0.100545 0)
(5.19717 0.110741 0)
(5.19791 0.122312 0)
(5.19893 0.134776 0)
(5.19948 0.149488 0)
(5.20057 0.164609 0)
(5.20044 0.183871 0)
(5.20101 0.201889 0)
(5.19921 0.227635 0)
(5.19748 0.248537 0)
(5.19246 0.281811 0)
(5.18524 0.305548 0)
(5.17412 0.342494 0)
(5.16328 0.369462 0)
(5.13444 0.399247 0)
(5.15143 0.428568 0)
(5.05547 0.44661 0)
(5.20438 0.469035 0)
(4.90895 0.498032 0)
(5.37683 0.501696 0)
(4.69446 0.566491 0)
(5.60999 0.577681 0)
(4.53968 0.631094 0)
(5.70129 0.747698 0)
(4.58669 0.682611 0)
(5.60468 0.932608 0)
(4.80853 0.873703 0)
(5.3126 1.00632 0)
(5.19123 1.17302 0)
(5.06155 1.20115 0)
(5.26717 1.34514 0)
(5.13868 1.59354 0)
(5.15739 1.59867 0)
(5.25014 1.86942 0)
(5.08461 2.04838 0)
(5.24378 2.31201 0)
(5.09475 2.53927 0)
(4.98092 2.82409 0)
(5.25653 3.19404 0)
(4.68209 3.68136 0)
(4.95727 3.96362 0)
(4.79278 4.73792 0)
(4.97605 5.22642 0)
(5.35628 5.71822 0)
(5.34909 6.84255 0)
(6.39351 7.72108 0)
(4.20069 11.926 0)
(6.13972 -0.050451 0)
(4.99989 0.642822 0)
(5.86684 0.681506 0)
(7.12903 -0.12678 0)
(6.7647 -0.812351 0)
(7.14943 -0.651359 0)
(7.06594 0.83165 0)
(7.2433 1.86728 0)
(8.20248 1.05402 0)
(8.75093 -0.341715 0)
(10.6223 -1.63689 0)
(11.8539 -1.90676 0)
(11.5167 -1.24904 0)
(11.1241 -1.44843 0)
(11.453 -2.88648 0)
(11.7638 -4.5022 0)
(11.1202 -5.48057 0)
(10.1451 -5.6995 0)
(9.4735 -5.59072 0)
(8.61356 -5.27126 0)
(7.83483 -4.84639 0)
(7.32692 -4.5024 0)
(6.87949 -4.11795 0)
(6.65653 -3.69171 0)
(6.61251 -3.32472 0)
(6.49726 -3.02016 0)
(6.31809 -2.75513 0)
(6.16227 -2.51685 0)
(6.02649 -2.30261 0)
(5.90122 -2.11048 0)
(5.79759 -1.93058 0)
(5.71689 -1.75584 0)
(5.65028 -1.58831 0)
(5.59149 -1.43285 0)
(5.53897 -1.29185 0)
(5.49268 -1.1652 0)
(5.45236 -1.05171 0)
(5.41741 -0.949891 0)
(5.38718 -0.858311 0)
(5.36108 -0.775729 0)
(5.33857 -0.701129 0)
(5.31916 -0.633678 0)
(5.30244 -0.572672 0)
(5.288 -0.517495 0)
(5.27552 -0.467595 0)
(5.26471 -0.422472 0)
(5.25535 -0.381678 0)
(5.24722 -0.3448 0)
(5.24014 -0.311464 0)
(5.23398 -0.281333 0)
(5.22861 -0.254102 0)
(5.22393 -0.229493 0)
(5.21982 -0.207254 0)
(5.21623 -0.187159 0)
(5.21309 -0.169003 0)
(5.21033 -0.1526 0)
(5.20789 -0.13778 0)
(5.20576 -0.124392 0)
(5.20388 -0.1123 0)
(5.20222 -0.101379 0)
(5.20075 -0.091514 0)
(5.19945 -0.0826041 0)
(5.19831 -0.0745586 0)
(5.19729 -0.067294 0)
(5.19639 -0.0607332 0)
(5.19559 -0.0548083 0)
(5.19488 -0.0494594 0)
(5.19425 -0.0446306 0)
(5.19368 -0.04027 0)
(5.19318 -0.0363321 0)
(5.19273 -0.0327776 0)
(5.19234 -0.0295691 0)
(5.19198 -0.0266715 0)
(5.19166 -0.0240545 0)
(5.19138 -0.0216924 0)
(5.19112 -0.0195602 0)
(5.19089 -0.017634 0)
(5.19069 -0.0158937 0)
(5.19051 -0.0143226 0)
(5.19035 -0.012904 0)
(5.19019 -0.0116212 0)
(5.19006 -0.0104611 0)
(5.18995 -0.009413 0)
(5.18984 -0.00846579 0)
(5.18975 -0.00760776 0)
(5.18966 -0.00683014 0)
(5.18959 -0.00612627 0)
(5.18952 -0.00548871 0)
(5.18946 -0.00490919 0)
(5.1894 -0.00438173 0)
(5.18936 -0.00390231 0)
(5.18931 -0.00346574 0)
(5.18927 -0.00306594 0)
(5.18924 -0.00269872 0)
(5.18921 -0.00236188 0)
(5.18919 -0.00205172 0)
(5.18916 -0.00176361 0)
(5.18914 -0.00149456 0)
(5.18913 -0.00124336 0)
(5.18911 -0.00100739 0)
(5.1891 -0.000782537 0)
(5.18909 -0.00056678 0)
(5.18908 -0.000359611 0)
(5.18908 -0.000158624 0)
(5.18907 3.96837e-05 0)
(5.18907 0.000236892 0)
(5.18908 0.000433471 0)
(5.18908 0.000631557 0)
(5.18908 0.000834448 0)
(5.18909 0.0010439 0)
(5.1891 0.00126034 0)
(5.18911 0.00148601 0)
(5.18912 0.00172439 0)
(5.18914 0.00197753 0)