/*--------------------------------*- C++ -*----------------------------------*\
| =========                 |                                                 |
| \\      /  F ield         | OpenFOAM: The Open Source CFD Toolbox           |
|  \\    /   O peration     | Version:  2.4.0                                 |
|   \\  /    A nd           | Web:      www.OpenFOAM.org                      |
|    \\/     M anipulation  |                                                 |
\*---------------------------------------------------------------------------*/
FoamFile
{
    version     2.0;
    format      ascii;
    class       volSymmTensorField;
    location    "0.077";
    object      UPrime2Mean;
}
// * * * * * * * * * * * * * * * * * * * * * * * * * * * * * * * * * * * * * //

dimensions      [0 2 -2 0 0 0 0];

internalField   nonuniform List<symmTensor> 
17600
(
(0.0505442 -0.00547728 0 0.000828319 0 0)
(0.520324 -0.00213369 0 4.82043e-05 0 0)
(0.674843 -3.48159e-05 0 3.34768e-06 0 0)
(0.747965 -0.000548948 0 2.08773e-06 0 0)
(0.799038 -0.000413425 0 1.00318e-06 0 0)
(0.8362 -0.000171551 0 5.82858e-07 0 0)
(0.860835 -3.86222e-05 0 3.8102e-07 0 0)
(0.881187 2.65385e-06 0 2.34218e-07 0 0)
(0.892936 2.62108e-05 0 2.36826e-07 0 0)
(0.905926 -3.01967e-06 0 2.07082e-07 0 0)
(0.911956 -3.56378e-06 0 1.61509e-07 0 0)
(0.924577 -6.95889e-05 0 2.49828e-07 0 0)
(0.930286 -5.95656e-05 0 2.54907e-07 0 0)
(0.946497 -0.000168126 0 4.79719e-07 0 0)
(0.956573 -0.000204375 0 6.30434e-07 0 0)
(0.986189 -0.000524847 0 2.9311e-06 0 0)
(1.01483 -0.000894993 0 3.07135e-06 0 0)
(1.13471 0.000630041 0 2.77368e-05 0 0)
(1.3238 -0.0379259 0 0.00158855 0 0)
(2.43021 0.192068 0 0.0239116 0 0)
(0.0245908 0.0109826 0 0.00861378 0 0)
(0.211194 -0.0202056 0 0.00204317 0 0)
(0.425292 -0.0113424 0 0.00030773 0 0)
(0.569095 -0.00797544 0 0.000122614 0 0)
(0.692018 -0.00647475 0 9.50309e-05 0 0)
(0.810067 -0.00527779 0 8.55747e-05 0 0)
(0.90254 -0.00405818 0 6.59257e-05 0 0)
(0.987267 -0.00304969 0 4.10106e-05 0 0)
(1.03899 -0.00225974 0 2.15484e-05 0 0)
(1.09868 -0.00191139 0 1.27466e-05 0 0)
(1.12415 -0.00170699 0 6.42761e-06 0 0)
(1.18084 -0.0018616 0 6.31641e-06 0 0)
(1.19782 -0.00198391 0 9.5923e-06 0 0)
(1.26548 -0.00214032 0 9.29069e-06 0 0)
(1.2837 -0.00337067 0 1.9563e-05 0 0)
(1.39366 -0.00289611 0 1.95811e-05 0 0)
(1.39866 -0.00964218 0 0.000104234 0 0)
(1.8471 -0.0129551 0 0.000155843 0 0)
(1.62135 -0.0446553 0 0.00180259 0 0)
(5.08248 -0.583952 0 0.0977448 0 0)
(0.0864536 0.0327874 0 0.0135595 0 0)
(0.0347574 -0.0128245 0 0.00581542 0 0)
(0.147698 -0.0142829 0 0.00150192 0 0)
(0.254254 -0.0135285 0 0.000734291 0 0)
(0.370498 -0.013256 0 0.000554814 0 0)
(0.509698 -0.0124906 0 0.000490771 0 0)
(0.633001 -0.0106891 0 0.000397599 0 0)
(0.758857 -0.00866769 0 0.00026227 0 0)
(0.838792 -0.00679239 0 0.000152439 0 0)
(0.93772 -0.00578294 0 8.7529e-05 0 0)
(0.977363 -0.00509774 0 4.42448e-05 0 0)
(1.07469 -0.00549085 0 4.69293e-05 0 0)
(1.09585 -0.00543901 0 4.75946e-05 0 0)
(1.21116 -0.00647343 0 6.80422e-05 0 0)
(1.22805 -0.00810745 0 8.4596e-05 0 0)
(1.39554 -0.00906462 0 0.00010547 0 0)
(1.40501 -0.021934 0 0.000406849 0 0)
(1.87371 -0.0253618 0 0.000766039 0 0)
(1.87312 -0.112462 0 0.00991816 0 0)
(4.22224 -0.7296 0 0.213275 0 0)
(0.114423 0.0363278 0 0.0122276 0 0)
(0.00278335 0.00242606 0 0.00905558 0 0)
(0.0194322 -0.0053074 0 0.00328957 0 0)
(0.0458567 -0.00845831 0 0.00194429 0 0)
(0.0889626 -0.0115324 0 0.00156897 0 0)
(0.170333 -0.0139508 0 0.00140046 0 0)
(0.259497 -0.0138874 0 0.00118836 0 0)
(0.371539 -0.0126079 0 0.000818679 0 0)
(0.445854 -0.0104262 0 0.000515252 0 0)
(0.55064 -0.00921635 0 0.000292841 0 0)
(0.588668 -0.00845505 0 0.000169868 0 0)
(0.699914 -0.00828401 0 0.000137577 0 0)
(0.716258 -0.00958375 0 0.000173314 0 0)
(0.848828 -0.00798945 0 0.000178733 0 0)
(0.861497 -0.0152676 0 0.000372251 0 0)
(1.02579 -0.00624374 0 0.000273043 0 0)
(1.08317 -0.0397484 0 0.00191128 0 0)
(1.30742 -0.0135194 0 0.00103819 0 0)
(1.77499 -0.198442 0 0.0347011 0 0)
(2.21812 -0.305671 0 0.131593 0 0)
(0.106697 0.0293394 0 0.00856487 0 0)
(0.0101385 0.0092639 0 0.00944047 0 0)
(0.0137192 0.00496037 0 0.00408673 0 0)
(0.0145447 0.00314922 0 0.00297327 0 0)
(0.00867188 0.000149316 0 0.00281155 0 0)
(0.0146774 -0.00494573 0 0.00266483 0 0)
(0.0364952 -0.00785705 0 0.00237918 0 0)
(0.0861729 -0.00987558 0 0.00174004 0 0)
(0.123435 -0.00895421 0 0.00114567 0 0)
(0.192182 -0.00920265 0 0.000694802 0 0)
(0.213672 -0.00809089 0 0.000377077 0 0)
(0.296861 -0.00962093 0 0.000394541 0 0)
(0.310195 -0.00871733 0 0.000288323 0 0)
(0.402876 -0.0121128 0 0.000524464 0 0)
(0.43693 -0.00975521 0 0.000417671 0 0)
(0.520677 -0.0199871 0 0.000977552 0 0)
(0.617914 -0.012573 0 0.00113339 0 0)
(0.725268 -0.063278 0 0.00970659 0 0)
(0.980651 -0.0692931 0 0.0152932 0 0)
(1.37843 -0.432005 0 0.373205 0 0)
(0.0994868 0.023909 0 0.00612216 0 0)
(0.00893913 0.00814129 0 0.00840319 0 0)
(0.0206814 0.00720467 0 0.00350015 0 0)
(0.0375712 0.00892514 0 0.00283313 0 0)
(0.0461548 0.0107212 0 0.00330037 0 0)
(0.0328092 0.00783198 0 0.00356883 0 0)
(0.0244058 0.00503798 0 0.00348185 0 0)
(0.0154464 -3.5728e-05 0 0.00269633 0 0)
(0.0168506 -0.00113161 0 0.00200051 0 0)
(0.0300389 -0.00361743 0 0.00120158 0 0)
(0.0308812 -0.00350513 0 0.000778033 0 0)
(0.0630299 -0.00495699 0 0.000644657 0 0)
(0.0624114 -0.00617095 0 0.000746927 0 0)
(0.10795 -0.00602206 0 0.000745267 0 0)
(0.119983 -0.0106035 0 0.00148725 0 0)
(0.16857 -0.00664822 0 0.00108062 0 0)
(0.203022 -0.0238428 0 0.00555072 0 0)
(0.280266 -0.0138106 0 0.0033424 0 0)
(0.371581 -0.100366 0 0.0566633 0 0)
(0.619787 -0.193551 0 0.184062 0 0)
(0.099025 0.0206121 0 0.00456911 0 0)
(0.00614649 0.00598463 0 0.00745698 0 0)
(0.0179064 0.00590821 0 0.00279942 0 0)
(0.039151 0.00797197 0 0.00206075 0 0)
(0.0660854 0.0124994 0 0.00279267 0 0)
(0.0679387 0.0131157 0 0.00345373 0 0)
(0.0792952 0.0137922 0 0.00377453 0 0)
(0.0616028 0.00928906 0 0.00322426 0 0)
(0.0662854 0.00809166 0 0.00240092 0 0)
(0.0469964 0.00426971 0 0.0017315 0 0)
(0.0500819 0.00448105 0 0.000979093 0 0)
(0.0345389 0.00193389 0 0.00117469 0 0)
(0.0366103 0.00200134 0 0.000711879 0 0)
(0.0267572 -9.20727e-06 0 0.00146194 0 0)
(0.0331242 -0.000163197 0 0.00109981 0 0)
(0.0290023 -0.00202138 0 0.00271082 0 0)
(0.0365057 -0.00269386 0 0.00262367 0 0)
(0.0481665 -0.00910592 0 0.0159913 0 0)
(0.0783574 -0.0252591 0 0.0264727 0 0)
(0.178186 -0.0832773 0 0.254229 0 0)
(0.101433 0.0179544 0 0.00339687 0 0)
(0.00461376 0.00434517 0 0.00654618 0 0)
(0.0146521 0.00473525 0 0.00245744 0 0)
(0.033451 0.00612065 0 0.0015041 0 0)
(0.0614676 0.0104866 0 0.00211936 0 0)
(0.0673363 0.0120738 0 0.002863 0 0)
(0.0918375 0.0145313 0 0.00333985 0 0)
(0.0855471 0.0117436 0 0.00285937 0 0)
(0.108834 0.0114924 0 0.00252828 0 0)
(0.0986602 0.00843145 0 0.00173658 0 0)
(0.117686 0.00973252 0 0.0012094 0 0)
(0.103843 0.00741685 0 0.00115125 0 0)
(0.114298 0.00905595 0 0.00128758 0 0)
(0.0955401 0.0068018 0 0.00139407 0 0)
(0.0988697 0.00881633 0 0.00223137 0 0)
(0.076167 0.00601118 0 0.00215588 0 0)
(0.0686485 0.011299 0 0.00533998 0 0)
(0.0444224 0.0119901 0 0.00905763 0 0)
(0.0366023 0.0141791 0 0.0443574 0 0)
(0.0615211 0.0301562 0 0.272391 0 0)
(0.103636 0.0155668 0 0.00250361 0 0)
(0.00387451 0.00322771 0 0.00545242 0 0)
(0.0119725 0.00378103 0 0.00225089 0 0)
(0.0288262 0.00479644 0 0.00109305 0 0)
(0.0531787 0.00843796 0 0.00156912 0 0)
(0.0595005 0.0101344 0 0.00224259 0 0)
(0.0807243 0.0124483 0 0.00281215 0 0)
(0.0807273 0.0105249 0 0.00266222 0 0)
(0.105001 0.0104401 0 0.0019001 0 0)
(0.106099 0.00887463 0 0.00161245 0 0)
(0.133189 0.00919482 0 0.000914528 0 0)
(0.132164 0.00995771 0 0.00133557 0 0)
(0.156929 0.00931166 0 0.000902913 0 0)
(0.149851 0.0127482 0 0.00173114 0 0)
(0.167362 0.0104975 0 0.00171456 0 0)
(0.150123 0.0166193 0 0.00303581 0 0)
(0.152656 0.0180184 0 0.00411466 0 0)
(0.123626 0.0299024 0 0.0140454 0 0)
(0.111727 0.0497425 0 0.0455094 0 0)
(0.115662 0.087288 0 0.199143 0 0)
(0.103685 0.0132563 0 0.0018302 0 0)
(0.00276765 0.00250393 0 0.00445444 0 0)
(0.00927188 0.00291355 0 0.00209161 0 0)
(0.0253132 0.00384338 0 0.000805511 0 0)
(0.045914 0.00660719 0 0.00114942 0 0)
(0.0539936 0.00863388 0 0.00179061 0 0)
(0.0686591 0.0103785 0 0.00227847 0 0)
(0.0735957 0.00939257 0 0.00199795 0 0)
(0.0896414 0.00861916 0 0.00176952 0 0)
(0.0994576 0.00743034 0 0.00140908 0 0)
(0.117157 0.00805463 0 0.000856074 0 0)
(0.13033 0.00845724 0 0.00104638 0 0)
(0.145878 0.00882861 0 0.000998629 0 0)
(0.158426 0.0112458 0 0.00147535 0 0)
(0.168926 0.0112693 0 0.00184111 0 0)
(0.176044 0.0168038 0 0.00294284 0 0)
(0.17415 0.0200352 0 0.00461461 0 0)
(0.172106 0.041315 0 0.0166436 0 0)
(0.157263 0.0561567 0 0.0421472 0 0)
(0.182691 0.135622 0 0.232157 0 0)
(0.10288 0.0111451 0 0.00130889 0 0)
(0.00233706 0.00200188 0 0.0035614 0 0)
(0.00745475 0.00218396 0 0.00197348 0 0)
(0.0227092 0.00312175 0 0.000593797 0 0)
(0.039887 0.00519228 0 0.000837543 0 0)
(0.0497396 0.00736293 0 0.00141138 0 0)
(0.0596462 0.00867193 0 0.00190773 0 0)
(0.0672853 0.00820933 0 0.00194391 0 0)
(0.0782581 0.00673916 0 0.00129889 0 0)
(0.0911716 0.00668125 0 0.00116043 0 0)
(0.103583 0.00596732 0 0.000651322 0 0)
(0.120059 0.00789049 0 0.00105154 0 0)
(0.130773 0.00668973 0 0.000793808 0 0)
(0.147023 0.0107039 0 0.00128747 0 0)
(0.154651 0.00968958 0 0.00159024 0 0)
(0.166652 0.0156592 0 0.00249991 0 0)
(0.16566 0.021227 0 0.00473302 0 0)
(0.170038 0.0375582 0 0.0140391 0 0)
(0.162816 0.0640683 0 0.0473003 0 0)
(0.194634 0.139643 0 0.19374 0 0)
(0.102562 0.00928315 0 0.00092995 0 0)
(0.00196038 0.00145348 0 0.0027898 0 0)
(0.00639234 0.00153906 0 0.00182722 0 0)
(0.0204293 0.00239764 0 0.000412727 0 0)
(0.0357645 0.00402465 0 0.000593973 0 0)
(0.0457758 0.00611299 0 0.00109913 0 0)
(0.053713 0.00727399 0 0.00151955 0 0)
(0.0610827 0.00692291 0 0.00142221 0 0)
(0.0708262 0.00574858 0 0.00111928 0 0)
(0.083072 0.00528226 0 0.00106692 0 0)
(0.0943805 0.00513945 0 0.000567975 0 0)
(0.109633 0.0064372 0 0.000821061 0 0)
(0.120396 0.00575113 0 0.000705969 0 0)
(0.134604 0.0093698 0 0.00115917 0 0)
(0.142782 0.00835017 0 0.00136336 0 0)
(0.153215 0.0162079 0 0.002832 0 0)
(0.155105 0.0188822 0 0.00433372 0 0)
(0.160086 0.0409715 0 0.0162847 0 0)
(0.160721 0.0639386 0 0.0453862 0 0)
(0.194823 0.138961 0 0.180416 0 0)
(0.102756 0.00771848 0 0.000654122 0 0)
(0.00176814 0.00105043 0 0.00212371 0 0)
(0.00575995 0.00112218 0 0.00164801 0 0)
(0.0182807 0.00191944 0 0.000308676 0 0)
(0.0327346 0.00319146 0 0.000417072 0 0)
(0.0421751 0.00508348 0 0.000806065 0 0)
(0.0488454 0.00616849 0 0.00119924 0 0)
(0.0557811 0.00593465 0 0.00124926 0 0)
(0.0645163 0.00471181 0 0.000819687 0 0)
(0.0760542 0.00458329 0 0.000760693 0 0)
(0.0864992 0.00417066 0 0.000406551 0 0)
(0.101372 0.00575549 0 0.000681852 0 0)
(0.110881 0.00502759 0 0.000560221 0 0)
(0.125021 0.00805038 0 0.000832833 0 0)
(0.131533 0.0080772 0 0.0011603 0 0)
(0.143786 0.0137239 0 0.00217777 0 0)
(0.145025 0.0196562 0 0.00433605 0 0)
(0.154338 0.039325 0 0.0155229 0 0)
(0.157244 0.0643805 0 0.0439253 0 0)
(0.201519 0.141615 0 0.168256 0 0)
(0.1027 0.00633089 0 0.000447397 0 0)
(0.00171238 0.000785195 0 0.00156223 0 0)
(0.00527223 0.000726385 0 0.00131818 0 0)
(0.0165103 0.00154331 0 0.000216145 0 0)
(0.0300168 0.00251083 0 0.000280531 0 0)
(0.0391952 0.00420971 0 0.000583377 0 0)
(0.04455 0.00514786 0 0.000888426 0 0)
(0.0514988 0.00503281 0 0.000872219 0 0)
(0.0588406 0.00398671 0 0.000595993 0 0)
(0.0703432 0.0038047 0 0.00065215 0 0)
(0.0798341 0.0035115 0 0.000315975 0 0)
(0.0944824 0.00493594 0 0.000501074 0 0)
(0.102918 0.00420727 0 0.000432215 0 0)
(0.116972 0.00737424 0 0.000740569 0 0)
(0.122906 0.0070694 0 0.00095305 0 0)
(0.135824 0.0135729 0 0.00221802 0 0)
(0.137422 0.0189128 0 0.00415184 0 0)
(0.150085 0.0383311 0 0.0152939 0 0)
(0.155888 0.0655707 0 0.0430985 0 0)
(0.205964 0.140566 0 0.154322 0 0)
(0.102817 0.00509097 0 0.000300659 0 0)
(0.00162219 0.000572305 0 0.00112647 0 0)
(0.00496517 0.00044229 0 0.000987404 0 0)
(0.0151344 0.0012376 0 0.000182317 0 0)
(0.0279948 0.00193716 0 0.000213549 0 0)
(0.0365109 0.00335269 0 0.000423402 0 0)
(0.0415302 0.00420217 0 0.000665661 0 0)
(0.0476521 0.00410114 0 0.000701918 0 0)
(0.0548434 0.00316989 0 0.000451004 0 0)
(0.0653875 0.00303883 0 0.000465091 0 0)
(0.0752865 0.00279034 0 0.000248834 0 0)
(0.0883414 0.00404527 0 0.000415247 0 0)
(0.0973345 0.00352908 0 0.000384347 0 0)
(0.110139 0.00607093 0 0.000570756 0 0)
(0.117187 0.00642393 0 0.000840296 0 0)
(0.128892 0.0123758 0 0.00200191 0 0)
(0.133221 0.0180655 0 0.00412669 0 0)
(0.146806 0.0375727 0 0.0150797 0 0)
(0.157645 0.0656849 0 0.0417421 0 0)
(0.211126 0.1384 0 0.140656 0 0)
(0.10321 0.00398824 0 0.000192729 0 0)
(0.00150441 0.000357228 0 0.000754168 0 0)
(0.00478588 0.000229122 0 0.000665472 0 0)
(0.0140122 0.000935346 0 0.000129813 0 0)
(0.0265397 0.00144362 0 0.000145594 0 0)
(0.0342607 0.00253743 0 0.000291864 0 0)
(0.0395338 0.00329023 0 0.000465754 0 0)
(0.0444563 0.00316156 0 0.000474613 0 0)
(0.0520306 0.00245624 0 0.000307435 0 0)
(0.0613642 0.00227429 0 0.000375717 0 0)
(0.0719471 0.00205347 0 0.000214837 0 0)
(0.0831102 0.00322205 0 0.000323966 0 0)
(0.0934774 0.002759 0 0.000307357 0 0)
(0.10444 0.00513911 0 0.000484613 0 0)
(0.113025 0.00555369 0 0.000733287 0 0)
(0.123212 0.0113798 0 0.00185724 0 0)
(0.13114 0.0171124 0 0.00401665 0 0)
(0.144301 0.036961 0 0.0145831 0 0)
(0.161811 0.0649331 0 0.0397935 0 0)
(0.217308 0.137189 0 0.127899 0 0)
(0.103512 0.0029923 0 0.000120638 0 0)
(0.00148837 0.000211118 0 0.000474201 0 0)
(0.00476597 9.87406e-05 0 0.000426927 0 0)
(0.0132722 0.000691664 0 0.000105423 0 0)
(0.0253956 0.00104648 0 0.000112349 0 0)
(0.0328899 0.00185545 0 0.000198716 0 0)
(0.0378786 0.00245476 0 0.000318109 0 0)
(0.0423375 0.00236551 0 0.000340827 0 0)
(0.0496992 0.00176991 0 0.000227575 0 0)
(0.0587623 0.0016351 0 0.000278133 0 0)
(0.0689357 0.00148417 0 0.000177583 0 0)
(0.0797984 0.00248323 0 0.000261244 0 0)
(0.0902045 0.00209141 0 0.000273855 0 0)
(0.100679 0.00423078 0 0.0004164 0 0)
(0.109407 0.00478516 0 0.000640427 0 0)
(0.120078 0.0104847 0 0.00173955 0 0)
(0.129371 0.0164018 0 0.0038542 0 0)
(0.144202 0.0361404 0 0.0139542 0 0)
(0.1663 0.0640573 0 0.0376195 0 0)
(0.223939 0.134911 0 0.116187 0 0)
(0.103355 0.00209766 0 6.74929e-05 0 0)
(0.00152004 0.000141052 0 0.000252926 0 0)
(0.0047134 3.40264e-05 0 0.000231416 0 0)
(0.0127269 0.000492248 0 6.64355e-05 0 0)
(0.024379 0.000737773 0 7.07215e-05 0 0)
(0.0320676 0.00129029 0 0.00011136 0 0)
(0.036318 0.00174003 0 0.000186134 0 0)
(0.0409899 0.00167248 0 0.000198171 0 0)
(0.0477652 0.0012468 0 0.000131262 0 0)
(0.0569615 0.00115759 0 0.000180908 0 0)
(0.0664844 0.00104949 0 0.00012884 0 0)
(0.077828 0.00187793 0 0.000176423 0 0)
(0.0873292 0.00166038 0 0.000197457 0 0)
(0.098362 0.00340122 0 0.000321052 0 0)
(0.106582 0.00432737 0 0.000536106 0 0)
(0.118616 0.0095588 0 0.0015683 0 0)
(0.127951 0.016095 0 0.00363236 0 0)
(0.146073 0.0348783 0 0.0131875 0 0)
(0.170809 0.0636302 0 0.0352406 0 0)
(0.232505 0.131164 0 0.104221 0 0)
(0.103281 0.00125902 0 3.75337e-05 0 0)
(0.00150605 8.05304e-05 0 0.000118797 0 0)
(0.00469145 5.61956e-06 0 0.000111377 0 0)
(0.0123484 0.000293027 0 4.98072e-05 0 0)
(0.0237304 0.000444383 0 5.97189e-05 0 0)
(0.0313594 0.000742997 0 6.98759e-05 0 0)
(0.0352709 0.00106842 0 0.00010399 0 0)
(0.0399946 0.00101319 0 0.000113344 0 0)
(0.0465443 0.000741855 0 8.42719e-05 0 0)
(0.055532 0.000709286 0 0.000115631 0 0)
(0.0651113 0.000623342 0 9.47736e-05 0 0)
(0.0762295 0.0013221 0 0.000121398 0 0)
(0.0855542 0.00114661 0 0.000152315 0 0)
(0.0967162 0.0027068 0 0.000251763 0 0)
(0.105238 0.00372186 0 0.000445145 0 0)
(0.117661 0.0088395 0 0.00139913 0 0)
(0.128238 0.0154553 0 0.00340018 0 0)
(0.148756 0.0337456 0 0.0123408 0 0)
(0.176834 0.0625972 0 0.0326634 0 0)
(0.242406 0.127214 0 0.0935504 0 0)
(0.103451 0.000445464 0 2.20043e-05 0 0)
(0.00147515 -4.82502e-07 0 5.23724e-05 0 0)
(0.00466192 -2.27242e-05 0 4.56787e-05 0 0)
(0.0121335 6.73113e-05 0 3.80628e-05 0 0)
(0.0235008 0.000150495 0 5.16837e-05 0 0)
(0.0307894 0.000176526 0 5.30652e-05 0 0)
(0.0349904 0.000366481 0 6.26317e-05 0 0)
(0.0393244 0.000323501 0 6.73281e-05 0 0)
(0.0459873 0.000220296 0 6.47965e-05 0 0)
(0.0546296 0.000219948 0 7.76484e-05 0 0)
(0.0646049 0.000147182 0 8.26985e-05 0 0)
(0.0750002 0.000712974 0 9.43707e-05 0 0)
(0.0850364 0.000575905 0 0.000125103 0 0)
(0.0956273 0.00200748 0 0.000207855 0 0)
(0.105222 0.00296179 0 0.00040227 0 0)
(0.117249 0.00814381 0 0.0012467 0 0)
(0.130282 0.0144086 0 0.00322314 0 0)
(0.151998 0.0327096 0 0.011404 0 0)
(0.184598 0.060711 0 0.0301692 0 0)
(0.25268 0.122719 0 0.0833053 0 0)
(0.103484 -0.000353038 0 2.23506e-05 0 0)
(0.0014777 -5.96676e-05 0 5.89225e-05 0 0)
(0.00469264 -3.76946e-05 0 4.34898e-05 0 0)
(0.0121503 -0.00014589 0 4.54704e-05 0 0)
(0.0235037 -0.00012022 0 5.82112e-05 0 0)
(0.0307962 -0.000375208 0 6.36895e-05 0 0)
(0.0350964 -0.000354004 0 6.98044e-05 0 0)
(0.039265 -0.000377658 0 7.64167e-05 0 0)
(0.0459761 -0.000336871 0 8.80398e-05 0 0)
(0.0546327 -0.000304594 0 7.96936e-05 0 0)
(0.0646489 -0.000357015 0 9.60974e-05 0 0)
(0.074936 7.85521e-05 0 9.50725e-05 0 0)
(0.0853031 -7.16732e-06 0 0.000121482 0 0)
(0.095786 0.00122103 0 0.000195573 0 0)
(0.105986 0.0022477 0 0.000384326 0 0)
(0.118374 0.00719817 0 0.00114725 0 0)
(0.133296 0.0134685 0 0.00302345 0 0)
(0.156649 0.0312323 0 0.0104715 0 0)
(0.193288 0.0587135 0 0.0275385 0 0)
(0.26418 0.117755 0 0.0737054 0 0)
(0.103291 -0.00115491 0 3.58932e-05 0 0)
(0.00144471 -0.000106286 0 0.00013132 0 0)
(0.00465061 -3.6791e-05 0 9.60497e-05 0 0)
(0.0123301 -0.000347797 0 6.32294e-05 0 0)
(0.0236505 -0.000373313 0 6.7182e-05 0 0)
(0.0312598 -0.000906351 0 8.83705e-05 0 0)
(0.0353397 -0.00102646 0 0.000104552 0 0)
(0.0398121 -0.00107078 0 0.000119653 0 0)
(0.046393 -0.000852379 0 0.000127175 0 0)
(0.0554071 -0.000820683 0 9.68763e-05 0 0)
(0.0651702 -0.00078154 0 0.000105042 0 0)
(0.075966 -0.000569651 0 0.00010463 0 0)
(0.086045 -0.000502603 0 0.000114469 0 0)
(0.0972089 0.000374811 0 0.000202594 0 0)
(0.107296 0.00165796 0 0.000359165 0 0)
(0.121129 0.0060945 0 0.00107707 0 0)
(0.136837 0.0126636 0 0.00274598 0 0)
(0.162954 0.0294296 0 0.0096127 0 0)
(0.202413 0.0565021 0 0.0245934 0 0)
(0.277325 0.11284 0 0.0656617 0 0)
(0.103207 -0.00199822 0 6.62598e-05 0 0)
(0.00141348 -0.000175765 0 0.000277291 0 0)
(0.00461769 -5.83201e-05 0 0.000208054 0 0)
(0.0126393 -0.000548532 0 9.06361e-05 0 0)
(0.0241898 -0.000659896 0 8.64969e-05 0 0)
(0.0319046 -0.00145691 0 0.000137461 0 0)
(0.036071 -0.00170352 0 0.000174957 0 0)
(0.0407881 -0.0017588 0 0.000201787 0 0)
(0.0475234 -0.00138014 0 0.000190039 0 0)
(0.0566759 -0.00131118 0 0.000133208 0 0)
(0.0665951 -0.00123388 0 0.000122976 0 0)
(0.0776025 -0.00117677 0 0.000125425 0 0)
(0.0878676 -0.00106396 0 0.000121757 0 0)
(0.0993573 -0.000394762 0 0.000211435 0 0)
(0.11002 0.000941102 0 0.000369706 0 0)
(0.1248 0.0050665 0 0.000992176 0 0)
(0.141807 0.0116261 0 0.0025434 0 0)
(0.170321 0.0275384 0 0.00865851 0 0)
(0.213069 0.0537616 0 0.0219606 0 0)
(0.29158 0.107274 0 0.0578237 0 0)
(0.103169 -0.00291015 0 0.000116638 0 0)
(0.00140602 -0.000281037 0 0.000500232 0 0)
(0.00464009 -0.000136731 0 0.000384546 0 0)
(0.0131514 -0.000772477 0 0.000126703 0 0)
(0.0251259 -0.00100829 0 0.000119125 0 0)
(0.0328466 -0.00206952 0 0.000217928 0 0)
(0.0374712 -0.00245455 0 0.000290142 0 0)
(0.0422072 -0.00248805 0 0.000327144 0 0)
(0.0494164 -0.00196819 0 0.000281424 0 0)
(0.0584963 -0.00183377 0 0.000192855 0 0)
(0.0689661 -0.00175094 0 0.000155326 0 0)
(0.0799188 -0.00181272 0 0.000164813 0 0)
(0.0908866 -0.00170479 0 0.000145416 0 0)
(0.102313 -0.00117843 0 0.000236393 0 0)
(0.114292 9.35715e-05 0 0.000408545 0 0)
(0.129255 0.00403402 0 0.000921509 0 0)
(0.148483 0.0103353 0 0.00239485 0 0)
(0.178613 0.0255011 0 0.00763923 0 0)
(0.225679 0.0505268 0 0.0196767 0 0)
(0.306272 0.10076 0 0.0496895 0 0)
(0.102972 -0.00390272 0 0.000190302 0 0)
(0.00140717 -0.000416735 0 0.000797335 0 0)
(0.00471094 -0.00026446 0 0.000624757 0 0)
(0.0139434 -0.00102705 0 0.000169982 0 0)
(0.026306 -0.00140773 0 0.000165733 0 0)
(0.0343486 -0.0027615 0 0.000330079 0 0)
(0.0392624 -0.00325077 0 0.000443603 0 0)
(0.0443663 -0.00330416 0 0.000499794 0 0)
(0.0518004 -0.00257208 0 0.00039338 0 0)
(0.0612385 -0.00246096 0 0.000286312 0 0)
(0.0719931 -0.00225877 0 0.000193422 0 0)
(0.0833776 -0.00258636 0 0.000234491 0 0)
(0.094684 -0.00228203 0 0.00016507 0 0)
(0.106704 -0.00217364 0 0.000308078 0 0)
(0.119398 -0.000656899 0 0.000432981 0 0)
(0.135253 0.00274252 0 0.000925658 0 0)
(0.156294 0.00903406 0 0.00218674 0 0)
(0.188613 0.0231196 0 0.00680191 0 0)
(0.239675 0.0467879 0 0.0173063 0 0)
(0.323445 0.093788 0 0.0426878 0 0)
(0.102732 -0.00500621 0 0.000295487 0 0)
(0.00142481 -0.000590431 0 0.00116913 0 0)
(0.00484411 -0.000452216 0 0.000928504 0 0)
(0.0150027 -0.00130211 0 0.000215777 0 0)
(0.027796 -0.00187479 0 0.000228319 0 0)
(0.036342 -0.00350856 0 0.000472751 0 0)
(0.0415339 -0.00411385 0 0.000640156 0 0)
(0.047254 -0.00415797 0 0.000706921 0 0)
(0.0548517 -0.00326153 0 0.000539918 0 0)
(0.064979 -0.00314131 0 0.000405252 0 0)
(0.0758441 -0.00286188 0 0.000251615 0 0)
(0.0879893 -0.00339691 0 0.000323178 0 0)
(0.0995101 -0.00295513 0 0.000202011 0 0)
(0.112485 -0.00326016 0 0.000402691 0 0)
(0.125559 -0.00144572 0 0.000469913 0 0)
(0.143027 0.00123034 0 0.000964332 0 0)
(0.165402 0.0076874 0 0.0020157 0 0)
(0.200487 0.0202276 0 0.00604421 0 0)
(0.255368 0.0426943 0 0.0150811 0 0)
(0.343918 0.0860791 0 0.0365497 0 0)
(0.102521 -0.00625858 0 0.000444031 0 0)
(0.0014802 -0.00082704 0 0.00162139 0 0)
(0.00509043 -0.000730484 0 0.00127589 0 0)
(0.0163441 -0.00161163 0 0.000269573 0 0)
(0.0297452 -0.00243093 0 0.000312291 0 0)
(0.0388274 -0.00433824 0 0.00065046 0 0)
(0.0445505 -0.00505246 0 0.000876202 0 0)
(0.050881 -0.00507007 0 0.000946946 0 0)
(0.0589485 -0.00404929 0 0.000716498 0 0)
(0.0696928 -0.00389334 0 0.000544041 0 0)
(0.0808798 -0.0035665 0 0.000321697 0 0)
(0.0937866 -0.00425508 0 0.000423469 0 0)
(0.105804 -0.00375599 0 0.000256591 0 0)
(0.119584 -0.00438065 0 0.000510589 0 0)
(0.133502 -0.00239493 0 0.000535266 0 0)
(0.152476 -0.000382485 0 0.00101471 0 0)
(0.176307 0.00612233 0 0.00191874 0 0)
(0.214206 0.016996 0 0.00530884 0 0)
(0.273356 0.0380117 0 0.0131847 0 0)
(0.365951 0.0775741 0 0.0310102 0 0)
(0.102435 -0.00766934 0 0.000648217 0 0)
(0.0015838 -0.00114652 0 0.00217649 0 0)
(0.00551797 -0.00111582 0 0.00158802 0 0)
(0.0180407 -0.00200722 0 0.000347073 0 0)
(0.0322789 -0.00313547 0 0.000432074 0 0)
(0.0419345 -0.00528729 0 0.000872366 0 0)
(0.0484598 -0.00610343 0 0.0011558 0 0)
(0.0554147 -0.00607489 0 0.00122099 0 0)
(0.064174 -0.00493637 0 0.000917821 0 0)
(0.0754581 -0.00474662 0 0.000705961 0 0)
(0.0872659 -0.00434986 0 0.000401808 0 0)
(0.100934 -0.00523071 0 0.000549227 0 0)
(0.113632 -0.00459154 0 0.000313629 0 0)
(0.128298 -0.00566667 0 0.000656482 0 0)
(0.143379 -0.00336079 0 0.000590925 0 0)
(0.163698 -0.00225777 0 0.00113274 0 0)
(0.189282 0.0045396 0 0.00181067 0 0)
(0.230176 0.0132022 0 0.00475349 0 0)
(0.293596 0.0330067 0 0.0114318 0 0)
(0.389291 0.0676199 0 0.0265103 0 0)
(0.102877 -0.00928421 0 0.000926025 0 0)
(0.00175069 -0.00153543 0 0.00285127 0 0)
(0.00624656 -0.00162037 0 0.00179455 0 0)
(0.020022 -0.00251995 0 0.000466707 0 0)
(0.035633 -0.00405522 0 0.000607079 0 0)
(0.0454067 -0.00634669 0 0.00114675 0 0)
(0.0535722 -0.0073262 0 0.0014906 0 0)
(0.060547 -0.00712738 0 0.00151997 0 0)
(0.0707694 -0.00599837 0 0.0011605 0 0)
(0.0820359 -0.00565956 0 0.000889145 0 0)
(0.0953347 -0.00531474 0 0.000510137 0 0)
(0.109151 -0.00626508 0 0.000695576 0 0)
(0.123378 -0.00558485 0 0.00038795 0 0)
(0.138456 -0.00704994 0 0.000843089 0 0)
(0.155475 -0.00445772 0 0.000646053 0 0)
(0.17664 -0.00432116 0 0.00134091 0 0)
(0.204876 0.00285015 0 0.00166461 0 0)
(0.248286 0.0089156 0 0.0044678 0 0)
(0.315919 0.0278382 0 0.00968282 0 0)
(0.415528 0.055863 0 0.0232119 0 0)
(0.10427 -0.011202 0 0.0013111 0 0)
(0.00213601 -0.00196285 0 0.00363486 0 0)
(0.00759693 -0.00228351 0 0.00193845 0 0)
(0.0221582 -0.00311658 0 0.000635053 0 0)
(0.040349 -0.0052315 0 0.000849663 0 0)
(0.0488672 -0.00745859 0 0.00147196 0 0)
(0.0607444 -0.00877829 0 0.00187537 0 0)
(0.0656707 -0.00812243 0 0.00183043 0 0)
(0.0799128 -0.00734813 0 0.00145194 0 0)
(0.0887884 -0.00652609 0 0.00107662 0 0)
(0.10647 -0.00657871 0 0.000654549 0 0)
(0.117745 -0.00723017 0 0.000830216 0 0)
(0.136774 -0.006924 0 0.000501391 0 0)
(0.149229 -0.00832991 0 0.00102056 0 0)
(0.171557 -0.00593068 0 0.000744594 0 0)
(0.190377 -0.00627514 0 0.00153904 0 0)
(0.224205 0.000772804 0 0.00160961 0 0)
(0.266233 0.00470217 0 0.00417109 0 0)
(0.338899 0.0222995 0 0.00837082 0 0)
(0.439037 0.0433661 0 0.0198115 0 0)
(0.10577 -0.0134031 0 0.00183293 0 0)
(0.00303457 -0.00247383 0 0.00453081 0 0)
(0.00990021 -0.00313353 0 0.00209036 0 0)
(0.0246918 -0.00380659 0 0.000858046 0 0)
(0.0469222 -0.00673208 0 0.00117285 0 0)
(0.0525855 -0.00864721 0 0.00186101 0 0)
(0.0708713 -0.010562 0 0.00231467 0 0)
(0.0708844 -0.00907474 0 0.00217445 0 0)
(0.0931105 -0.00910893 0 0.00179481 0 0)
(0.0954206 -0.00736294 0 0.00128517 0 0)
(0.122578 -0.00821865 0 0.000837567 0 0)
(0.125739 -0.00818249 0 0.000986482 0 0)
(0.155481 -0.0086289 0 0.000652795 0 0)
(0.157814 -0.00948238 0 0.00122246 0 0)
(0.191267 -0.00763617 0 0.000867497 0 0)
(0.197635 -0.0079318 0 0.00176053 0 0)
(0.240941 -0.00117261 0 0.0015841 0 0)
(0.267328 0.00116238 0 0.00391367 0 0)
(0.342816 0.0178732 0 0.00730938 0 0)
(0.423036 0.0324268 0 0.0163061 0 0)
(0.105104 -0.015697 0 0.00251147 0 0)
(0.00418584 -0.00324609 0 0.00554725 0 0)
(0.012666 -0.00405665 0 0.00226791 0 0)
(0.0280682 -0.00474483 0 0.0011526 0 0)
(0.0544716 -0.00855275 0 0.00159651 0 0)
(0.0581166 -0.0101324 0 0.00233903 0 0)
(0.0829592 -0.0126863 0 0.00283451 0 0)
(0.0780272 -0.0102517 0 0.00257677 0 0)
(0.10849 -0.0111846 0 0.00219831 0 0)
(0.102087 -0.00825867 0 0.00151119 0 0)
(0.138269 -0.010039 0 0.00106822 0 0)
(0.128167 -0.00883617 0 0.00114396 0 0)
(0.165863 -0.0101799 0 0.000839907 0 0)
(0.149632 -0.00954502 0 0.00139297 0 0)
(0.187519 -0.00850775 0 0.000991419 0 0)
(0.1703 -0.00748757 0 0.00189059 0 0)
(0.212133 -0.00154277 0 0.00150873 0 0)
(0.209664 0.000918569 0 0.00362313 0 0)
(0.272961 0.016627 0 0.00611939 0 0)
(0.320822 0.0267192 0 0.0132825 0 0)
(0.102327 -0.0180467 0 0.00339378 0 0)
(0.00520682 -0.00440394 0 0.00660044 0 0)
(0.0153608 -0.00494993 0 0.00247426 0 0)
(0.0327721 -0.00611134 0 0.0015494 0 0)
(0.0621149 -0.0105979 0 0.00213748 0 0)
(0.0663917 -0.0120716 0 0.00292439 0 0)
(0.0929053 -0.0146611 0 0.0033974 0 0)
(0.0835875 -0.0113946 0 0.00302085 0 0)
(0.111374 -0.0122256 0 0.00255965 0 0)
(0.09455 -0.00818358 0 0.00169835 0 0)
(0.122302 -0.00995879 0 0.0012417 0 0)
(0.0979892 -0.00727816 0 0.00121075 0 0)
(0.121815 -0.0087147 0 0.000946849 0 0)
(0.0921848 -0.00586306 0 0.00138612 0 0)
(0.112772 -0.00576672 0 0.000980489 0 0)
(0.0872065 -0.00240152 0 0.00176993 0 0)
(0.109717 0.00087284 0 0.00129404 0 0)
(0.103194 0.00572634 0 0.0030937 0 0)
(0.145733 0.0166694 0 0.00479893 0 0)
(0.192853 0.0273855 0 0.0101592 0 0)
(0.0996784 -0.0206641 0 0.00456329 0 0)
(0.00657305 -0.00598258 0 0.00749797 0 0)
(0.0185347 -0.00605101 0 0.00281188 0 0)
(0.0388136 -0.00796832 0 0.00211051 0 0)
(0.066753 -0.0125359 0 0.00280517 0 0)
(0.0673977 -0.0130894 0 0.0035087 0 0)
(0.0798343 -0.0138188 0 0.00379591 0 0)
(0.0607017 -0.0090989 0 0.00323866 0 0)
(0.0667115 -0.00843001 0 0.00258841 0 0)
(0.0461475 -0.00389204 0 0.00162957 0 0)
(0.0497599 -0.00475656 0 0.00114961 0 0)
(0.0352399 -0.00135629 0 0.00104294 0 0)
(0.0356954 -0.00228844 0 0.000818412 0 0)
(0.0319367 0.00156903 0 0.00112736 0 0)
(0.0321041 0.000349421 0 0.000771732 0 0)
(0.043275 0.00498235 0 0.00140003 0 0)
(0.0468877 0.00401008 0 0.000970284 0 0)
(0.0786512 0.0113902 0 0.00238108 0 0)
(0.104427 0.0142486 0 0.00353332 0 0)
(0.181185 0.0294772 0 0.00711729 0 0)
(0.0998855 -0.0239453 0 0.00611446 0 0)
(0.00912812 -0.00810836 0 0.00841601 0 0)
(0.0211508 -0.00728875 0 0.00350709 0 0)
(0.0374194 -0.00887899 0 0.00285967 0 0)
(0.0466941 -0.0107668 0 0.00330262 0 0)
(0.0325773 -0.00775126 0 0.00358995 0 0)
(0.0245885 -0.0050447 0 0.00349812 0 0)
(0.0151831 0.000187078 0 0.00276653 0 0)
(0.0165172 0.00110089 0 0.00202627 0 0)
(0.0298747 0.00395627 0 0.00119384 0 0)
(0.0300028 0.00323279 0 0.000796828 0 0)
(0.0651411 0.00572634 0 0.00069397 0 0)
(0.0583686 0.00488578 0 0.000549611 0 0)
(0.116108 0.00795073 0 0.00074316 0 0)
(0.1046 0.00552317 0 0.00050245 0 0)
(0.178106 0.00977953 0 0.000937535 0 0)
(0.167735 0.00481176 0 0.00065825 0 0)
(0.246663 0.0136462 0 0.0015983 0 0)
(0.262117 0.00829993 0 0.00245247 0 0)
(0.351193 0.0267169 0 0.004455 0 0)
(0.106932 -0.0293523 0 0.00855313 0 0)
(0.0102254 -0.00923639 0 0.00945017 0 0)
(0.0139585 -0.0050249 0 0.00409065 0 0)
(0.0146182 -0.00309285 0 0.00299105 0 0)
(0.008786 -0.000185393 0 0.0028119 0 0)
(0.0149746 0.0050219 0 0.00267557 0 0)
(0.0363246 0.00785729 0 0.00238766 0 0)
(0.0867965 0.0100358 0 0.00175632 0 0)
(0.122812 0.00906863 0 0.00119431 0 0)
(0.193653 0.00925365 0 0.000672043 0 0)
(0.212133 0.00818643 0 0.000424955 0 0)
(0.302022 0.00932835 0 0.000371762 0 0)
(0.301025 0.00843693 0 0.00029859 0 0)
(0.414902 0.0101433 0 0.000408032 0 0)
(0.39745 0.00732623 0 0.000274189 0 0)
(0.522332 0.0100669 0 0.000535488 0 0)
(0.497378 0.00326339 0 0.000385786 0 0)
(0.60239 0.0116463 0 0.000955133 0 0)
(0.609575 0.00069189 0 0.00150411 0 0)
(0.662692 0.0198643 0 0.00281713 0 0)
(0.114558 -0.0363347 0 0.0122168 0 0)
(0.00285563 -0.00241488 0 0.00906318 0 0)
(0.0193333 0.00527012 0 0.00329191 0 0)
(0.0462158 0.00851297 0 0.00195302 0 0)
(0.0887019 0.011517 0 0.00156936 0 0)
(0.171052 0.0140016 0 0.00140315 0 0)
(0.259168 0.0138998 0 0.00119053 0 0)
(0.37275 0.0127406 0 0.000830971 0 0)
(0.445756 0.0104966 0 0.00053171 0 0)
(0.552468 0.00931513 0 0.000290652 0 0)