/*--------------------------------*- C++ -*----------------------------------*\
| =========                 |                                                 |
| \\      /  F ield         | OpenFOAM: The Open Source CFD Toolbox           |
|  \\    /   O peration     | Version:  2.4.0                                 |
|   \\  /    A nd           | Web:      www.OpenFOAM.org                      |
|    \\/     M anipulation  |                                                 |
\*---------------------------------------------------------------------------*/
FoamFile
{
    version     2.0;
    format      ascii;
    class       volScalarField;
    location    "0.203";
    object      pMean;
}
// * * * * * * * * * * * * * * * * * * * * * * * * * * * * * * * * * * * * * //

dimensions      [0 2 -2 0 0 0 0];

internalField   nonuniform List<scalar> 
17600
(
103.006
86.9935
82.2874
80.9188
79.7315
78.5346
77.4137
76.3551
75.3409
74.327
73.3265
72.3151
71.3316
70.3271
69.3526
68.3148
67.2714
66.0758
64.6799
62.5497
101.106
87.0428
82.328
80.9283
79.7348
78.5351
77.414
76.3553
75.3411
74.3271
73.3265
72.3152
71.3316
70.3276
69.3527
68.316
67.272
66.0787
64.6871
62.7296
99.6987
87.2968
82.4706
80.9661
79.7486
78.5395
77.4161
76.357
75.3424
74.3278
73.327
72.3153
71.332
70.3278
69.3537
68.3163
67.2753
66.0799
64.7302
62.8398
98.7264
87.6351
82.6883
81.0304
79.7777
78.5548
77.4248
76.3632
75.3468
74.3308
73.3285
72.3168
71.333
70.3307
69.3557
68.3234
67.2799
66.0984
64.776
62.9972
97.9072
87.9666
82.949
81.1111
79.8196
78.5837
77.4441
76.3777
75.3572
74.3383
73.3331
72.3197
71.336
70.3336
69.3612
68.3282
67.2944
66.1173
64.8509
63.194
97.1362
88.2558
83.2227
81.1921
79.8611
78.6204
77.473
76.401
75.3747
74.3517
73.3413
72.3271
71.3407
70.3423
69.368
68.3434
67.3094
66.1517
64.9443
63.4277
96.4107
88.5001
83.4952
81.2678
79.8926
78.6545
77.5058
76.4296
75.3975
74.3697
73.3536
72.3364
71.3489
70.352
69.3795
68.3603
67.3304
66.1967
65.0493
63.7214
95.7404
88.7026
83.7602
81.3404
79.9138
78.6809
77.5378
76.4603
75.4222
74.3896
73.3672
72.3481
71.3583
70.3652
69.3943
68.3823
67.3599
66.2477
65.1549
64.0806
95.1309
88.8668
84.0099
81.4155
79.9266
78.6988
77.5665
76.4908
75.4473
74.4098
73.3809
72.3603
71.3674
70.3801
69.4075
68.4106
67.3849
66.3161
65.2337
64.4355
94.584
88.9941
84.2411
81.495
79.933
78.7089
77.5911
76.5201
75.4719
74.4289
73.3938
72.3714
71.3775
70.3943
69.4247
68.4375
67.4201
66.384
65.3447
64.8275
94.0984
89.0867
84.453
81.5795
79.9344
78.7124
77.6116
76.5478
75.4955
74.447
73.4055
72.3821
71.3862
70.4089
69.4405
68.4661
67.4595
66.4543
65.4877
65.1689
93.6711
89.1488
84.6455
81.6685
79.9319
78.7103
77.6282
76.5737
75.5184
74.464
73.4163
72.3916
71.3958
70.4229
69.4588
68.4948
67.5024
66.5315
65.6388
65.4716
93.2997
89.1862
84.8182
81.76
79.927
78.7036
77.6414
76.5975
75.5401
74.4795
73.4262
72.4003
71.405
70.4368
69.4781
68.524
67.5509
66.6119
65.7941
65.7452
92.9813
89.2057
84.9703
81.8492
79.9219
78.6939
77.6518
76.6188
75.5605
74.4937
73.4353
72.4081
71.4147
70.4506
69.4984
68.5548
67.6018
66.6966
65.9487
65.9935
92.713
89.2147
85.1008
81.9294
79.9181
78.683
77.6599
76.6377
75.579
74.5064
73.4435
72.4154
71.4241
70.4649
69.5194
68.5877
67.6543
66.7841
66.1026
66.2194
92.4922
89.2179
85.2086
81.9982
79.9163
78.672
77.6661
76.6537
75.5953
74.5175
73.451
72.4224
71.4339
70.4789
69.542
68.6202
67.711
66.8696
66.2628
66.4261
92.318
89.2179
85.2936
82.0544
79.9165
78.6616
77.6706
76.6668
75.6092
74.5266
73.458
72.4286
71.4443
70.4931
69.566
68.654
67.7688
66.9553
66.4157
66.647
92.1885
89.2166
85.3561
82.0977
79.9176
78.6532
77.6737
76.6772
75.6199
74.5347
73.4636
72.4356
71.4532
70.509
69.5878
68.6921
67.8235
67.0469
66.5344
66.8227
92.1031
89.2147
85.3972
82.127
79.9195
78.6468
77.676
76.6843
75.6282
74.5406
73.4694
72.442
71.4634
70.5244
69.612
68.7292
67.8806
67.1364
66.652
67.0175
92.0607
89.2135
85.4176
82.1421
79.9207
78.6438
77.6773
76.6886
75.633
74.5451
73.4741
72.4487
71.4731
70.5401
69.6363
68.767
67.9383
67.2234
66.7805
67.1895
92.0609
89.2133
85.4177
82.1423
79.9209
78.6442
77.6778
76.6896
75.6345
74.5477
73.478
72.4552
71.4834
70.5557
69.6618
68.8041
67.9984
67.3057
66.9231
67.3412
92.1039
89.2142
85.3977
82.1273
79.9205
78.6476
77.678
76.6872
75.6333
74.5482
73.482
72.4611
71.4942
70.5709
69.6881
68.8414
68.0585
67.387
67.0576
67.5183
92.1897
89.2157
85.3569
82.0982
79.9192
78.6547
77.6768
76.6822
75.6281
74.5479
73.4839
72.4686
71.5031
70.5887
69.7118
68.8829
68.1131
67.4746
67.1473
67.6402
92.3197
89.2167
85.2947
82.0552
79.9188
78.6636
77.6751
76.6738
75.6206
74.545
73.4862
72.4747
71.5134
70.6051
69.7373
68.923
68.1695
67.5584
67.2349
67.7966
92.4944
89.2163
85.21
81.9992
79.9194
78.6742
77.6718
76.6624
75.6101
74.5406
73.4875
72.4807
71.5237
70.6213
69.7637
68.9624
68.2281
67.6372
67.335
67.9338
92.7156
89.2127
85.1025
81.9308
79.9219
78.6856
77.667
76.6481
75.597
74.5345
73.4882
72.4864
71.5338
70.6376
69.7901
69.002
68.2875
67.7148
67.4408
68.0488
92.9845
89.2034
84.9722
81.8508
79.9264
78.6969
77.6603
76.6309
75.5818
74.5266
73.4882
72.4914
71.5439
70.6539
69.8165
69.0422
68.3468
67.7946
67.5396
68.1602
93.3032
89.1838
84.8202
81.7619
79.9322
78.7072
77.6511
76.6112
75.5646
74.5173
73.487
72.496
71.5532
70.6706
69.842
69.084
68.4048
67.8791
67.6219
68.2434
93.675
89.1464
84.6476
81.6703
79.938
78.7145
77.6392
76.5891
75.5462
74.5062
73.4854
72.499
71.563
70.6861
69.8686
69.1245
68.4652
67.9635
67.7067
68.3167
94.1023
89.0842
84.4552
81.5814
79.941
78.7175
77.6236
76.5649
75.5264
74.4938
73.4826
72.5009
71.5726
70.7008
69.8954
69.1638
68.5279
68.0473
67.8035
68.362
94.5882
88.9913
84.2434
81.4971
79.94
78.715
77.604
76.5391
75.5056
74.4802
73.4783
72.5019
71.5815
70.7147
69.9219
69.202
68.5915
68.1315
67.9132
68.3802
95.1353
88.8637
84.0124
81.4176
79.9339
78.7059
77.5802
76.5116
75.484
74.4653
73.4729
72.5016
71.5897
70.7274
69.9478
69.2379
68.6553
68.213
68.0336
68.3797
95.745
88.6995
83.7627
81.3429
79.9212
78.689
77.5525
76.4831
75.4617
74.4495
73.4663
72.5005
71.5967
70.739
69.9717
69.2712
68.7147
68.2896
68.1466
68.3849
96.4154
88.4973
83.4977
81.2706
79.9003
78.6636
77.5215
76.4544
75.4395
74.4336
73.4591
72.499
71.6024
70.7493
69.9921
69.301
68.7653
68.3578
68.2359
68.3733
97.1409
88.2531
83.2254
81.195
79.8689
78.6304
77.4898
76.4273
75.4192
74.4191
73.4526
72.4976
71.6073
70.758
70.009
69.3255
68.8062
68.4119
68.3046
68.3913
97.912
87.9641
82.9518
81.1142
79.8276
78.5943
77.4618
76.4055
75.4035
74.4086
73.4485
72.4974
71.6117
70.7652
70.0221
69.3443
68.8361
68.4514
68.3508
68.405
98.7312
87.6328
82.6913
81.0336
79.7859
78.5659
77.4431
76.3919
75.3944
74.4031
73.4469
72.4984
71.6153
70.7707
70.031
69.3572
68.8554
68.4774
68.3766
68.4217
99.7035
87.2946
82.4737
80.9695
79.7568
78.5509
77.4348
76.3861
75.3906
74.4012
73.4469
72.4996
71.6177
70.774
70.0361
69.3644
68.8656
68.4915
68.3893
68.4412
101.111
87.0407
82.3312
80.9316
79.7431
78.5466
77.4328
76.3846
75.3896
74.4008
73.4471
72.5003
71.6187
70.7753
70.0379
69.367
68.869
68.4962
68.3928
68.4643
103.011
86.9914
82.2905
80.9221
79.7398
78.5461
77.4326
76.3844
75.3894
74.4008
73.4471
72.5003
71.6188
70.7753
70.038
69.367
68.8691
68.4959
68.3916
68.5003
60.8414
60.0769
58.8939
57.7155
56.707
55.8751
55.1794
54.5423
54.0609
53.6464
53.2508
52.8729
52.4623
51.9725
51.3794
50.6392
49.7902
49.0027
48.364
47.9278
47.6985
47.6581
47.8323
48.21
48.6907
49.3103
50.0453
50.8569
51.7054
52.5402
53.34
54.1015
54.8282
55.5345
56.2293
56.9202
57.6254
58.341
59.055
59.7419
60.3675
60.9106
61.3807
61.8032
62.1751
62.4835
62.7405
62.9442
63.066
63.1049
63.0943
63.0396
62.917
62.7158
62.4555
62.1633
61.8585
61.5464
61.2463
60.9744
60.7395
60.5457
60.3924
60.3009
60.2812
60.3282
60.4331
60.5901
60.7828
60.9969
61.2281
61.4631
61.6818
61.8647
62.0124
62.1492
62.305
62.4929
62.704
62.9389
63.1981
63.4724
63.7547
64.0318
64.3004
64.5589
64.802
65.0376
65.2668
65.4905
65.7053
65.9021
66.0815
66.2353
66.3744
66.4902
66.5918
66.6785
66.7525
66.8039
66.8389
66.8652
66.8937
66.9296
66.9711
67.0171
67.065
67.104
67.1439
67.1852
67.2337
67.2802
67.3367
67.3895
67.4542
67.5141
67.5888
67.6573
67.724
67.7901
67.8474
67.9041
67.9483
67.9911
68.0427
68.0855
68.1489
68.1775
68.218
68.2512
68.2809
68.3336
68.3783
68.454
68.5383
68.6691
68.8254
69.0196
69.2499
69.5081
69.7916
70.0724
70.3654
70.6352
70.9048
71.1331
71.3534
71.5298
71.698
71.8244
71.9321
72.0018
72.0548
72.083
72.0933
72.0902
72.0683
72.0409
72.0037
71.9633
71.9172
71.8587
71.8052
71.7397
71.7007
71.6551
71.6474
71.6347
71.6762
71.7147
71.8048
71.881
72.0188
72.1296
72.3159
72.4482
72.6823
72.7962
73.0719
73.1505
73.432
73.4792
73.7343
73.7454
73.9541
73.918
74.0466
73.9204
73.9375
73.6645
73.4714
72.959
72.4241
71.4949
70.316
68.5339
65.9578
61.5765
55.9422
31.2225
61.1475
60.3773
59.3489
58.324
57.4394
56.7176
56.1307
55.5983
55.1896
54.8409
54.4814
54.1224
53.7044
53.18
52.5623
51.8337
50.9902
50.1908
49.5524
49.11
48.8748
48.8406
49.0184
49.3988
49.8929
50.5012
51.2123
51.9915
52.8155
53.6366
54.4266
55.1692
55.8678
56.5367
57.1839
57.8121
58.4445
59.081
59.7087
60.309
60.8521
61.3091
61.6848
62.0097
62.2875
62.505
62.6858
62.8378
62.9214
62.9208
62.8673
62.7678
62.6
62.3579
62.0572
61.7217
61.3713
61.0143
60.6715
60.3609
60.0969
59.8801
59.7087
59.6097
59.5919
59.6462
59.7611
59.9306
60.139
60.3709
60.6221
60.8781
61.1167
61.3206
61.494
61.6659
61.8623
62.0934
62.3517
62.6392
62.9544
63.2838
63.6199
63.9487
64.263
64.5625
64.8439
65.1125
65.3699
65.6173
65.8521
66.065
66.2556
66.4171
66.5606
66.6776
66.7817
66.8712
66.9471
67.0037
67.0466
67.0801
67.1178
67.1633
67.2146
67.2657
67.3159
67.3521
67.3867
67.4167
67.4509
67.4774
67.5119
67.5375
67.5727
67.6024
67.6484
67.6914
67.7313
67.775
67.813
67.8539
67.886
67.9161
67.9568
67.9915
68.048
68.0803
68.1183
68.1628
68.1953
68.2572
68.3125
68.3956
68.4902
68.6266
68.7878
68.9862
69.2204
69.4859
69.7738
70.0615
70.3593
70.6339
70.9079
71.1379
71.3593
71.5348
71.7048
71.8271
71.9354
72.0006
72.0537
72.0771
72.0843
72.0734
72.0466
72.0123
71.9686
71.9229
71.8693
71.802
71.7329
71.6493
71.5894
71.5189
71.4864
71.4401
71.4493
71.4517
71.5172
71.5534
71.6708
71.7388
71.9061
71.9915
72.2143
72.2843
72.5484
72.593
72.854
72.8785
73.1024
73.09
73.2628
73.1976
73.2898
73.133
73.104
72.7906
72.535
71.9461
71.3035
70.2266
68.8343
66.675
63.8098
57.9761
51.8852
23.9998
61.4844
60.7541
59.8023
58.8621
58.0647
57.4225
56.9184
56.4812
56.1372
55.8435
55.5141
55.1777
54.774
54.2433
53.6214
52.921
52.1146
51.3419
50.7253
50.2849
50.0582
50.0353
50.2113
50.583
51.0765
51.6705
52.3616
53.1184
53.9217
54.7305
55.515
56.2432
56.916
57.5513
58.1554
58.7257
59.2849
59.8422
60.3861
60.8985
61.3568
61.7291
62.0146
62.2451
62.4317
62.562
62.6677
62.7664
62.8102
62.7727
62.6809
62.5385
62.3284
62.0493
61.7128
61.3387
60.9467
60.5475
60.1647
59.8181
59.5278
59.2884
59.102
58.9987
58.9848
59.0471
59.1732
59.3559
59.5806
59.8314
60.1034
60.3807
60.64
60.8669
61.0694
61.279
61.5179
61.7929
62.0987
62.4378
62.8071
63.1901
63.5779
63.9572
64.3169
64.6566
64.9758
65.2765
65.5598
65.8276
66.0782
66.3036
66.5034
66.6719
66.8211
66.9399
67.0471
67.1396
67.2175
67.2796
67.3323
67.3752
67.4236
67.4772
67.5371
67.591
67.642
67.6736
67.7028
67.72
67.739
67.7446
67.7565
67.7539
67.7594
67.7583
67.7728
67.7873
67.7991
67.8171
67.8346
67.8564
67.8757
67.892
67.9215
67.9466
67.9941
68.0302
68.0666
68.1226
68.1595
68.2312
68.2985
68.3923
68.4975
68.6432
68.8105
69.0137
69.2506
69.5207
69.8086
70.1006
70.3983
70.677
70.9523
71.1839
71.4031
71.5777
71.7452
71.864
71.9704
72.0317
72.0834
72.1041
72.1088
72.0917
72.0604
72.0206
71.9706
71.9186
71.8561
71.7786
71.6953
71.594
71.5152
71.4191
71.3628
71.2844
71.2626
71.2254
71.2674
71.2621
71.3597
71.3798
71.5277
71.5659
71.7713
71.8039
72.0434
72.0624
72.2887
72.294
72.4799
72.4455
72.5747
72.4814
72.529
72.3454
72.2549
71.9057
71.5754
70.9223
70.1537
68.9159
67.3535
64.7239
61.8389
54.3865
48.0459
22.0344
61.7956
61.1458
60.2912
59.393
58.6311
58.0414
57.61
57.2635
56.9813
56.7358
56.4374
56.1131
55.7281
55.2141
54.6112
53.9521
53.201
52.4799
51.8968
51.4758
51.2647
51.2491
51.4107
51.7623
52.2443
52.823
53.495
54.2324
55.0125
55.8064
56.5847
57.3041
57.9549
58.5611
59.1289
59.6486
60.1393
60.618
61.079
61.5054
61.8783
62.168
62.3684
62.5109
62.6114
62.6609
62.6934
62.7334
62.7326
62.6601
62.5354
62.3538
62.1051
61.7927
61.4237
61.0148
60.5851
60.1488
59.7301
59.3514
59.0371
58.7764
58.5782
58.4747
58.466
58.5372
58.6746
58.872
59.1138
59.3844
59.6789
59.9783
60.2585
60.5104
60.7447
60.9944
61.2763
61.596
61.9489
62.3378
62.7582
63.1925
63.6298
64.0574
64.4609
64.8386
65.1941
65.5251
65.8322
66.1179
66.3806
66.6153
66.8226
66.997
67.1526
67.2744
67.3861
67.482
67.5626
67.6293
67.6925
67.7452
67.8049
67.8651
67.9322
67.9871
68.0365
68.0626
68.0865
68.0906
68.0941
68.0785
68.0675
68.0369
68.013
67.9804
67.9623
67.9453
67.9287
67.9176
67.9137
67.914
67.9206
67.9219
67.9401
67.9544
67.9929
68.0311
68.0684
68.1324
68.1775
68.2586
68.3375
68.4445
68.5603
68.7163
68.8908
69.0993
69.3384
69.6109
69.8959
70.1892
70.4842
70.7659
71.0395
71.271
71.4859
71.6582
71.8208
71.9356
72.0394
72.0964
72.1476
72.1652
72.1686
72.1452
72.112
72.0654
72.011
71.95
71.8789
71.7898
71.6952
71.5761
71.4772
71.3549
71.2746
71.1664
71.1169
71.0397
71.0544
71.0061
71.0818
71.0571
71.1793
71.1768
71.3565
71.3573
71.5628
71.5567
71.7408
71.725
71.8665
71.8166
71.8938
71.7787
71.7736
71.5628
71.4014
71.0156
70.5974
69.8758
69.0019
67.5631
65.9593
62.6767
60.0494
51.1012
44.4974
22.5652
62.1118
61.5504
60.7972
59.9313
59.1765
58.6235
58.2551
57.994
57.7776
57.5751
57.3078
56.9899
56.6247
56.1426
55.5702
54.9581
54.2841
53.6288
53.0876
52.6972
52.5022
52.4834
52.6199
52.9413
53.4032
53.9609
54.6088
55.3227
56.0768
56.8503
57.6168
58.3314
58.9673
59.5492
60.0865
60.5648
60.996
61.4003
61.7801
62.1238
62.4139
62.6247
62.7457
62.8075
62.8286
62.805
62.7652
62.7406
62.6902
62.5849
62.4317
62.2163
61.9338
61.5906
61.1911
60.7508
60.2875
59.8198
59.3709
58.9645
58.629
58.3496
58.144
58.0433
58.0402
58.121
58.2702
58.4827
58.7432
59.0358
59.3538
59.6761
59.9778
60.2561
60.525
60.8155
61.1407
61.5047
61.9043
62.3405
62.8089
63.2917
63.7756
64.248
64.692
65.1056
65.4947
65.8531
66.1822
66.4833
66.7559
66.9972
67.2105
67.3899
67.552
67.6777
67.7953
67.8956
67.9797
68.05
68.1225
68.1847
68.2557
68.3207
68.3922
68.4463
68.4934
68.5129
68.5318
68.5233
68.5123
68.4752
68.4417
68.3832
68.3312
68.2668
68.2168
68.1658
68.1208
68.0779
68.0516
68.0286
68.0227
68.0078
68.0159
68.0182
68.0493
68.0871
68.1283
68.1957
68.2525
68.3399
68.431
68.5498
68.6771
68.8423
69.0246
69.2394
69.4811
69.7533
70.0347
70.3255
70.616
70.8979
71.1686
71.3973
71.6066
71.774
71.9316
72.042
72.1431
72.1952
72.247
72.2608
72.2636
72.2349
72.2005
72.1467
72.0885
72.0171
71.9376
71.8355
71.73
71.5935
71.4737
71.3253
71.2206
71.0829
71.0103
70.8928
70.8816
70.7892
70.8377
70.7702
70.8641
70.8222
70.9733
70.9443
71.109
71.0784
71.2158
71.178
71.2712
71.2048
71.2307
71.0953
71.0345
70.7902
70.5624
70.1275
69.6379
68.8
67.8898
66.1191
64.6867
60.5501
58.3782
48.2991
41.158
23.3139
62.5001
61.9976
61.2937
60.4447
59.6893
59.1647
58.8575
58.679
58.5325
58.3718
58.1409
57.8396
57.4944
57.0542
56.5258
55.9634
55.3726
54.7901
54.2945
53.9365
53.7548
53.7316
53.8439
54.127
54.5569
55.0842
55.7009
56.3864
57.1118
57.8567
58.6026
59.3101
59.9393
60.5037
61.0125
61.455
61.8376
62.1757
62.4794
62.7463
62.9593
63.0977
63.1474
63.1355
63.086
62.9955
62.8836
62.791
62.6892
62.5523
62.3735
62.1287
61.8162
61.4449
61.0161
60.5477
60.0552
59.5624
59.0897
58.6606
58.307
58.0134
57.8049
57.7089
57.7118
57.8008
57.962
58.1915
58.4729
58.7891
59.132
59.4779
59.8026
60.109
60.414
60.7453
61.1128
61.5191
61.9643
62.4453
62.9586
63.4869
64.0145
64.5269
65.0069
65.4537
65.8728
66.2557
66.605
66.9199
67.201
67.4469
67.6653
67.848
68.0159
68.1461
68.2707
68.3758
68.4642
68.5371
68.6174
68.6879
68.7698
68.8389
68.9115
68.9618
69.006
69.019
69.0336
69.0138
68.9895
68.9316
68.8757
68.7899
68.7116
68.617
68.5362
68.4501
68.377
68.301
68.2514
68.2039
68.1854
68.1531
68.1518
68.1417
68.1673
68.2021
68.2487
68.3161
68.3858
68.4772
68.5797
68.7068
68.848
69.0188
69.2099
69.4305
69.6757
69.9448
70.2239
70.5088
70.7941
71.0703
71.3362
71.5592
71.7643
71.9251
72.0792
72.1845
72.2837
72.3292
72.3819
72.3893
72.394
72.3585
72.3256
72.2632
72.2029
72.118
72.0328
71.9142
71.8
71.6432
71.5046
71.3287
71.2024
71.0342
70.9425
70.7853
70.7476
70.6152
70.6329
70.5233
70.5871
70.506
70.6252
70.5674
70.6851
70.6311
70.7195
70.6546
70.7035
70.6116
70.5947
70.4253
70.3196
70.018
69.7555
69.2212
68.728
67.6689
66.8836
64.5783
63.5247
58.4244
56.6115
46.0012
37.9316
23.4721
62.9564
62.4917
61.768
60.8948
60.1368
59.6481
59.4096
59.3126
59.2396
59.1254
58.9357
58.6662
58.3463
57.9533
57.4808
56.9723
56.4557
55.947
55.4986
55.1702
55.0015
54.9798
55.0765
55.3195
55.7069
56.1959
56.7765
57.4281
58.1192
58.8293
59.5466
60.2378
60.8601
61.4116
61.8952
62.303
62.6453
62.9292
63.1668
63.3649
63.5093
63.584
63.5719
63.4931
63.383
63.2309
63.0481
62.8874
62.7358
62.5675
62.3633
62.0911
61.7516
61.3536
60.8984
60.4067
59.8916
59.3793
58.8873
58.4398
58.0736
57.7718
57.565
57.4748
57.4826
57.5785
57.7515
58.0006
58.3046
58.6459
59.0152
59.3862
59.7355
60.0713
60.4135
60.7844
61.1918
61.6385
62.1267
62.6504
63.2053
63.776
64.3437
64.8908
65.4023
65.8783
66.3231
66.7274
67.0953
67.4223
67.7113
67.9613
68.1844
68.3685
68.5412
68.6757
68.808
68.9168
69.0095
69.0846
69.1713
69.2488
69.3408
69.4134
69.4855
69.5296
69.5699
69.5769
69.5866
69.5567
69.521
69.4439
69.3666
69.2547
69.152
69.0291
68.9203
68.7997
68.6999
68.5911
68.5186
68.4448
68.4129
68.3616
68.3511
68.328
68.35
68.3788
68.4308
68.494
68.5766
68.6686
68.7817
68.9129
69.0702
69.2426
69.446
69.6669
69.9182
70.181
70.4604
70.7338
71.0174
71.2801
71.5425
71.7523
71.9577
72.1061
72.2635
72.358
72.4619
72.4955
72.553
72.547
72.5602
72.5115
72.4872
72.4107
72.354
72.2485
72.1639
72.0223
71.9039
71.7217
71.5698
71.3651
71.2187
71.0187
70.912
70.7199
70.6555
70.4827
70.468
70.3152
70.3522
70.2278
70.3133
70.2223
70.295
70.2124
70.258
70.155
70.1702
70.0363
69.9935
69.7618
69.6441
69.2283
69.0105
68.2586
67.8914
66.4186
65.9434
62.9587
62.3731
56.4057
54.5965
44.1441
34.811
23.1796
63.6024
63.0908
62.1899
61.2225
60.4732
60.0505
59.8969
59.8824
59.8834
59.8255
59.6841
59.4568
59.1705
58.8269
58.4159
57.964
57.5107
57.0723
56.6765
56.3779
56.223
56.2065
56.298
56.5095
56.8526
57.2988
57.8365
58.4459
59.0978
59.7699
60.4517
61.1175
61.725
62.2603
62.7205
63.0969
63.4047
63.6473
63.8304
63.9699
64.057
64.0767
64.0107
63.8757
63.7137
63.506
63.256
63.0312
62.8326
62.6317
62.3998
62.1006
61.7363
61.3147
60.8384
60.3293
59.7982
59.271
58.7627
58.3019
57.9296
57.6264
57.426
57.342
57.3529
57.4544
57.6396
57.9105
58.2388
58.607
59.0041
59.4007
59.7756
60.1423
60.5216
60.9311
61.3763
61.8602
62.3878
62.9525
63.5454
64.155
64.7591
65.3363
65.8744
66.3752
66.8408
67.2638
67.648
67.9858
68.2831
68.5368
68.7647
68.949
69.1245
69.2628
69.4023
69.5133
69.6089
69.6853
69.7777
69.8621
69.962
70.0377
70.1091
70.146
70.1818
70.1825
70.1872
70.1478
70.1023
70.0075
69.9105
69.7745
69.6498
69.5004
69.3671
69.2134
69.0886
68.9495
68.8553
68.754
68.7069
68.6355
68.6155
68.579
68.5986
68.6185
68.675
68.7307
68.8233
68.9118
69.0356
69.1656
69.3383
69.5119
69.7296
69.945
70.2039
70.457
70.74
70.9956
71.2809
71.5229
71.7847
71.9743
72.1834
72.3128
72.4793
72.5574
72.6723
72.6891
72.7569
72.7307
72.7596
72.6904
72.6824
72.5834
72.5396
72.4039
72.3294
72.1547
72.0402
71.8235
71.6695
71.4288
71.274
71.0345
70.9199
70.6841
70.6054
70.3865
70.3484
70.1438
70.1639
69.988
70.0437
69.9071
69.9459
69.8184
69.8386
69.6736
69.6823
69.4562
69.4387
69.0698
69.0213
68.388
68.3267
67.213
67.1085
65.0877
65.0092
61.3119
61.107
54.5836
52.0367
42.5593
32.2446
22.9153
64.5302
63.8993
62.5862
61.4575
60.7259
60.389
60.3276
60.3932
60.4658
60.471
60.3826
60.2026
59.956
59.6591
59.3071
58.913
58.5157
58.1401
57.8017
57.5394
57.4007
57.3909
57.4844
57.6775
57.9842
58.3886
58.8785
59.4392
60.048
60.6803
61.3208
61.9511
62.5339
63.0452
63.479
63.8271
64.1069
64.3181
64.4609
64.5526
64.5937
64.5679
64.4553
64.2732
64.0667
63.8109
63.5003
63.219
62.9775
62.7425
62.4793
62.1529
61.7682
61.3292
60.839
60.3194
59.7765
59.2361
58.7133
58.2458
57.8746
57.5764
57.3866
57.3098
57.3233
57.4288
57.6271
57.9215
58.2755
58.6715
59.0969
59.5196
59.9214
60.3197
60.7346
61.1808
61.6616
62.1799
62.7433
63.3462
63.9744
64.6187
65.2554
65.8582
66.4179
66.9383
67.4203
67.8595
68.2575
68.6053
68.9115
69.1683
69.401
69.5858
69.7629
69.9037
70.0486
70.1599
70.2562
70.3326
70.4291
70.5192
70.6266
70.7051
70.7772
70.8068
70.8377
70.8318
70.8316
70.7825
70.7282
70.6181
70.5037
70.3455
70.201
70.0272
69.872
69.6882
69.5403
69.3739
69.2601
69.1313
69.0673
68.9755
68.9458
68.8954
68.9117
68.9202
68.9789
69.0249
69.1242
69.206
69.3406
69.4637
69.6513
69.825
70.0562
70.2617
70.5296
70.7689
71.0572
71.292
71.5808
71.7971
72.0581
72.2224
72.4359
72.5423
72.7197
72.7775
72.9094
72.9062
72.9906
72.939
72.9886
72.8906
72.9064
72.7743
72.7547
72.5772
72.5238
72.3034
72.207
71.9418
71.8041
71.5141
71.371
71.0753
70.9709
70.6747
70.5989
70.3155
70.2777
70.0045
70.0249
69.7788
69.8271
69.6105
69.6485
69.4338
69.4686
69.1923
69.244
68.8595
68.9295
68.3351
68.4309
67.4928
67.6137
66.0779
66.2522
63.6848
64.0054
59.7339
59.4584
53.0398
48.8749
41.0852
30.7497
23.1616
65.284
64.5925
62.9986
61.7297
60.9819
60.6999
60.7155
60.8553
60.9961
61.0636
61.0285
60.8961
60.6908
60.4355
60.1368
59.8001
59.4545
59.1343
58.8533
58.6333
58.5165
58.5167
58.6164
58.8025
59.0833
59.4506
59.8942
60.4053
60.9671
61.5559
62.152
62.7381
63.2839
63.7657
64.1703
64.4915
64.7458
64.9324
65.0475
65.1044
65.111
65.0517
64.9008
64.6791
64.432
64.1357
63.7738
63.4446
63.166
62.896
62.5986
62.2472
61.8475
61.3985
60.903
60.3785
59.8265
59.2723
58.737
58.2706
57.9073
57.6197
57.4433
57.3748
57.3927
57.5029
57.7148
58.0334
58.4131
58.8376
59.2909
59.7398
60.1701
60.5996
61.0482
61.5277
62.0414
62.5913
63.1878
63.8252
64.4856
65.1604
65.8251
66.4497
67.0274
67.5621
68.0555
68.5085
68.9183
69.2747
69.5899
69.8505
70.0877
70.273
70.4516
70.5937
70.7407
70.8505
70.9446
71.0181
71.1183
71.2127
71.3276
71.4085
71.4832
71.5068
71.5326
71.5204
71.5147
71.4566
71.3934
71.2699
71.1405
70.9625
70.7996
70.6028
70.4276
70.2172
70.0486
69.8583
69.7269
69.5725
69.4907
69.379
69.3398
69.2745
69.2866
69.2821
69.3396
69.3733
69.4756
69.5488
69.6932
69.8081
70.009
70.1801
70.423
70.6163
70.8922
71.1146
71.4066
71.6193
71.9112
72.1014
72.3615
72.4974
72.713
72.7944
72.9804
73.0158
73.1648
73.1404
73.2458
73.1673
73.2399
73.1077
73.1499
72.9764
72.9891
72.7603
72.7367
72.4584
72.3924
72.0662
71.9664
71.608
71.4998
71.129
71.0565
70.6807
70.6372
70.262
70.2524
69.8851
69.9323
69.5866
69.6579
69.3243
69.3948
69.0519
69.1357
68.7013
68.8277
68.2329
68.4162
67.5609
67.8154
66.5356
66.8315
64.9005
65.3088
62.3506
62.7241
58.3439
57.1393
51.5378
46.0154
39.8939
30.33
23.9159
65.8909
65.1872
63.4352
62.0531
61.262
61.0006
61.0721
61.276
61.4777
61.6026
61.6198
61.5344
61.3703
61.153
60.8989
60.6151
60.3195
60.0501
59.8233
59.6483
59.5566
59.5692
59.6778
59.8644
60.129
60.4668
60.87
61.3332
61.8453
62.3875
62.9377
63.4749
63.9755
64.4201
64.794
65.0906
65.3218
65.4875
65.5835
65.6168
65.6002
65.5199
65.3431
65.0899
64.8069
64.4758
64.0713
63.7038
63.3931
63.0883
62.7557
62.384
61.9756
61.523
61.0295
60.5064
59.9465
59.3776
58.833
58.3763
58.0274
57.7539
57.5924
57.5336
57.5577
57.6755
57.9038
58.2465
58.651
59.1034
59.5836
60.059
60.519
60.9783
61.457
61.966
62.5099
63.0887
63.7148
64.3829
65.0722
65.7727
66.4607
67.1035
67.6955
68.2396
68.7418
69.2047
69.6235
69.9864
70.3106
70.5757
70.8186
71.0043
71.1836
71.3262
71.4721
71.5774
71.6678
71.7354
71.8378
71.9366
72.0591
72.1425
72.2197
72.2398
72.2607
72.2425
72.2307
72.1641
72.0926
71.9571
71.8146
71.6197
71.4392
71.2201
71.0267
70.7932
70.6065
70.3954
70.2488
70.0706
69.9722
69.8418
69.7936
69.7127
69.7187
69.7
69.7537
69.7728
69.8732
69.9354
70.0877
70.1953
70.4068
70.5726
70.8256
71.0059
71.2867
71.4924
71.7868
71.9771
72.2678
72.4326
72.6903
72.7987
73.0135
73.0704
73.2597
73.273
73.434
73.39
73.5136
73.4128
73.5034
73.3413
73.4015
73.1873
73.2274
72.9495
72.9531
72.6142
72.5853
72.1918
72.1396
71.7035
71.6491
71.1892
71.164
70.6849
70.6959
70.207
70.2537
69.7668
69.868
69.3972
69.5188
69.0436
69.1723
68.6643
68.813
68.1904
68.3896
67.5629
67.843
66.7435
67.098
65.5533
65.9522
63.8076
64.1758
61.2716
60.9674
57.0249
54.5236
49.8688
44.0882
39.3235
30.8089
24.9438
66.3708
65.6948
63.8732
62.4162
61.5787
61.31
61.4093
61.6589
61.9124
62.0913
62.1612
62.1229
61.9988
61.8176
61.6009
61.3626
61.1152
60.891
60.7126
60.5821
60.5189
60.5448
60.6605
60.8497
61.1047
61.4211
61.7922
62.214
62.6793
63.1735
63.6735
64.1588
64.6112
65.0133
65.3528
65.6253
65.8357
65.9854
66.0686
66.0883
66.0578
65.9681
65.78
65.5037
65.1909
64.8266
64.3887
63.9918
63.6544
63.3152
62.9497
62.5622
62.153
61.704
61.2164
60.6988
60.1336
59.5508
59.0014
58.5628
58.2338
57.9763
57.8297
57.7822
57.8158
57.9447
58.1925
58.5601
58.9881
59.4668
59.9729
60.4747
60.9637
61.4517
61.9566
62.4907
63.0616
63.6663
64.3179
65.0126
65.727
66.4481
67.1543
67.8116
68.4143
68.9643
69.4735
69.9421
70.3677
70.7337
71.0655
71.3363
71.5849
71.7716
71.9519
72.0929
72.2357
72.3335
72.4191
72.4797
72.5834
72.6846
72.8149
72.9006
72.9808
72.9982
73.0155
72.9908
72.9738
72.8982
72.8194
72.6731
72.5193
72.3096
72.1124
71.8729
71.662
71.4095
71.2069
70.9772
70.8178
70.6192
70.5046
70.3574
70.3009
70.2055
70.2029
70.1692
70.2166
70.2195
70.3126
70.3614
70.5186
70.6198
70.838
70.9975
71.2575
71.4266
71.7074
71.8974
72.1906
72.3619
72.6475
72.789
73.0397
73.1239
73.3344
73.3703
73.5567
73.5499
73.7138
73.6538
73.788
73.6713
73.7727
73.5892
73.6553
73.4087
73.4611
73.1434
73.1613
72.7736
72.7675
72.3195
72.3022
71.798
71.7854
71.2443
71.2612
70.68
70.7425
70.1284
70.2418
69.6199
69.7935
69.1693
69.3721
68.7245
68.9493
68.2391
68.479
67.6548
67.9173
66.9241
67.2339
66.0076
66.3037
64.7062
64.9399
62.8888
62.7595
60.2001
58.9152
55.529
52.3199
48.4696
43.064
39.3694
31.8041
26.0384
66.7608
66.1278
64.2993
62.8053
61.926
61.6281
61.7282
62.007
62.3061
62.5369
62.6591
62.6677
62.5831
62.4359
62.252
62.0519
61.8492
61.6665
61.528
61.4378
61.4054
61.4462
61.567
61.7562
62.0047
62.3057
62.6507
63.0375
63.4606
63.9064
64.3546
64.7875
65.1913
65.5503
65.8548
66.1019
66.2913
66.4271
66.5037
66.5186
66.4849
66.3947
66.2086
65.9183
65.5788
65.1837
64.7216
64.3041
63.9458
63.5734
63.1794
62.7815
62.378
61.9393
61.4629
60.9526
60.384
59.7904
59.2433
58.8293
58.5254
58.285
58.1528
58.1176
58.1639
58.3088
58.5788
58.9711
59.4216
59.9251
60.456
60.984
61.5005
62.0149
62.5418
63.0974
63.6915
64.3189
64.9915
65.7076
66.4423
67.1794
67.8979
68.566
69.1759
69.7297
70.2449
70.7147
71.1455
71.5105
71.847
72.1238
72.3771
72.5657
72.7479
72.8848
73.0236
73.1125
73.1935
73.2458
73.3506
73.4523
73.5904
73.6765
73.7609
73.7746
73.7899
73.7576
73.738
73.6525
73.5692
73.411
73.2481
73.0259
72.813
72.5553
72.3285
72.0599
71.8438
71.5961
71.4252
71.2096
71.0811
70.9174
70.8529
70.745
70.734
70.6856
70.7239
70.709
70.7914
70.8236
70.9811
71.0753
71.2969
71.4488
71.7136
71.8737
72.1523
72.3278
72.6165
72.7701
73.046
73.1668
73.4076
73.4716
73.6745
73.6926
73.872
73.8465
74.0041
73.9293
74.0658
73.9374
74.0426
73.8444
73.9076
73.6364
73.6859
73.3414
73.3583
72.9399
72.9383
72.4566
72.4509
71.9033
71.9091
71.3125
71.3299
70.6848
70.7531
70.0611
70.1772
69.4801
69.6505
68.9387
69.141
68.3954
68.6339
67.8052
68.0597
67.119
67.378
66.3071
66.5554
65.2521
65.3982
63.8044
63.7409
61.832
61.1701
58.8215
57.0471
54.0863
50.7987
47.7722
42.8601
39.8377
32.9464
27.0912
67.0784
66.4975
64.7067
63.2041
62.2915
61.9549
62.0405
62.3361
62.6714
62.948
63.1183
63.1727
63.1277
63.0137
62.8605
62.6921
62.5278
62.3834
62.2785
62.2222
62.2193
62.2774
62.4034
62.5909
62.8323
63.1199
63.4433
63.7974
64.1794
64.5775
64.9744
65.3567
65.7141
66.0319
66.3036
66.5259
66.6953
66.8182
66.8915
66.9073
66.8779
66.7952
66.6212
66.3297
65.9666
65.5432
65.0639
64.637
64.2615
63.8592
63.4423
63.0399
62.6466
62.2215
61.7632
61.265
60.695
60.0953
59.5578
59.174
58.8978
58.676
58.5594
58.5393
58.6008
58.7639
59.0583
59.4749
59.9479
60.4748
61.0289
61.5822
62.1246
62.6623
63.2081
63.782
64.3948
65.0407
65.7293
66.4614
67.2112
67.959
68.6845
69.3587
69.973
70.529
71.0491
71.5166
71.9513
72.3108
72.6497
72.9312
73.1856
73.3767
73.5626
73.6918
73.8285
73.9063
73.9837
74.0275
74.1341
74.2326
74.3808
74.4645
74.5546
74.5608
74.5761
74.5344
74.5158
74.4183
74.335
74.1634
73.9948
73.7605
73.535
73.2615
73.0213
72.7381
72.5104
72.2448
72.0638
71.8337
71.6943
71.5139
71.4423
71.323
71.304
71.2422
71.2707
71.2376
71.3075
71.3215
71.4735
71.558
71.7813
71.9256
72.1922
72.3433
72.6193
72.7791
73.0622
73.2006
73.4635
73.5632
73.7918
73.8387
74.0325
74.0339
74.2041
74.1607
74.3066
74.2175
74.3491
74.2092
74.3118
74.1017
74.1578
73.8667
73.9038
73.5406
73.5466
73.1106
73.1006
72.5979
72.589
72.0185
72.0213
71.4057
71.3991
70.7278
70.7616
70.0455
70.1174
69.4002
69.5121
68.768
68.9035
68.1256
68.2914
67.4162
67.591
66.5995
66.7679
65.6395
65.7534
64.3357
64.3367
62.6431
62.3659
60.4052
59.5143
57.2729
55.4795
52.9875
49.9696
47.7051
43.228
40.4386
34.0201
28.103
67.3337
66.8097
65.0949
63.6086
62.6736
62.2946
62.3542
62.6535
63.0143
63.329
63.5432
63.6418
63.6363
63.5556
63.4318
63.2914
63.1581
63.047
62.9722
62.9443
62.9668
63.0423
63.1745
63.3601
63.5932
63.8662
64.1686
64.4924
64.8334
65.1845
65.5319
65.8661
66.1785
66.4583
66.7004
66.899
67.0516
67.1638
67.2351
67.2563
67.2337
67.1638
67.0096
66.7297
66.3509
65.9012
65.4115
64.9839
64.594
64.1688
63.7336
63.3315
62.952
62.5426
62.1066
61.627
61.0634
60.4648
59.9438
59.5952
59.3491
59.1457
59.0474
59.0463
59.1254
59.3072
59.6251
60.0649
60.5617
61.1105
61.6863
62.2637
62.8299
63.3873
63.9498
64.5388
65.166
65.8256
66.5242
67.2671
68.0266
68.7793
69.5067
70.1827
70.7989
71.3552
71.8792
72.3407
72.78
73.1283
73.4681
73.7505
74.0025
74.1961
74.3874
74.5063